/*--------------------------------*- C++ -*----------------------------------*\
| =========                 |                                                 |
| \\      /  F ield         | OpenFOAM: The Open Source CFD Toolbox           |
|  \\    /   O peration     | Version:  v2012                                 |
|   \\  /    A nd           | Website:  www.openfoam.com                      |
|    \\/     M anipulation  |                                                 |
\*---------------------------------------------------------------------------*/
FoamFile
{
    version     2.0;
    format      ascii;
    class       volVectorField;
    location    "3.3";
    object      Psi;
}
// * * * * * * * * * * * * * * * * * * * * * * * * * * * * * * * * * * * * * //

dimensions      [0 2 -1 0 0 0 0];


internalField   nonuniform List<vector> 
65536
(
(0 0 8.84508e-06)
(0 0 2.65347e-05)
(0 0 4.42227e-05)
(0 0 6.19082e-05)
(0 0 7.95902e-05)
(0 0 9.72677e-05)
(0 0 0.00011494)
(0 0 0.000132605)
(0 0 0.000150262)
(0 0 0.000167911)
(0 0 0.00018555)
(0 0 0.000203177)
(0 0 0.000220793)
(0 0 0.000238394)
(0 0 0.000255982)
(0 0 0.000273553)
(0 0 0.000291107)
(0 0 0.000308642)
(0 0 0.000326157)
(0 0 0.000343651)
(0 0 0.000361121)
(0 0 0.000378567)
(0 0 0.000395987)
(0 0 0.000413379)
(0 0 0.000430742)
(0 0 0.000448073)
(0 0 0.00046537)
(0 0 0.000482633)
(0 0 0.000499859)
(0 0 0.000517046)
(0 0 0.000534191)
(0 0 0.000551293)
(0 0 0.00056835)
(0 0 0.000585358)
(0 0 0.000602316)
(0 0 0.000619222)
(0 0 0.000636072)
(0 0 0.000652864)
(0 0 0.000669596)
(0 0 0.000686264)
(0 0 0.000702866)
(0 0 0.000719399)
(0 0 0.00073586)
(0 0 0.000752246)
(0 0 0.000768554)
(0 0 0.000784781)
(0 0 0.000800922)
(0 0 0.000816976)
(0 0 0.000832939)
(0 0 0.000848806)
(0 0 0.000864575)
(0 0 0.000880242)
(0 0 0.000895804)
(0 0 0.000911256)
(0 0 0.000926595)
(0 0 0.000941818)
(0 0 0.000956919)
(0 0 0.000971896)
(0 0 0.000986744)
(0 0 0.00100146)
(0 0 0.00101604)
(0 0 0.00103048)
(0 0 0.00104477)
(0 0 0.00105891)
(0 0 0.0010729)
(0 0 0.00108674)
(0 0 0.00110041)
(0 0 0.00111392)
(0 0 0.00112725)
(0 0 0.00114042)
(0 0 0.0011534)
(0 0 0.00116621)
(0 0 0.00117882)
(0 0 0.00119125)
(0 0 0.00120348)
(0 0 0.00121552)
(0 0 0.00122735)
(0 0 0.00123897)
(0 0 0.00125038)
(0 0 0.00126158)
(0 0 0.00127257)
(0 0 0.00128333)
(0 0 0.00129386)
(0 0 0.00130417)
(0 0 0.00131424)
(0 0 0.00132408)
(0 0 0.00133368)
(0 0 0.00134304)
(0 0 0.00135215)
(0 0 0.00136102)
(0 0 0.00136963)
(0 0 0.00137799)
(0 0 0.00138609)
(0 0 0.00139393)
(0 0 0.00140152)
(0 0 0.00140883)
(0 0 0.00141589)
(0 0 0.00142267)
(0 0 0.00142918)
(0 0 0.00143543)
(0 0 0.0014414)
(0 0 0.00144709)
(0 0 0.00145251)
(0 0 0.00145765)
(0 0 0.00146251)
(0 0 0.0014671)
(0 0 0.0014714)
(0 0 0.00147542)
(0 0 0.00147916)
(0 0 0.00148262)
(0 0 0.0014858)
(0 0 0.00148869)
(0 0 0.00149131)
(0 0 0.00149364)
(0 0 0.00149569)
(0 0 0.00149746)
(0 0 0.00149894)
(0 0 0.00150015)
(0 0 0.00150108)
(0 0 0.00150173)
(0 0 0.00150211)
(0 0 0.0015022)
(0 0 0.00150203)
(0 0 0.00150158)
(0 0 0.00150085)
(0 0 0.00149986)
(0 0 0.0014986)
(0 0 0.00149707)
(0 0 0.00149527)
(0 0 0.00149322)
(0 0 0.0014909)
(0 0 0.00148832)
(0 0 0.00148548)
(0 0 0.00148239)
(0 0 0.00147905)
(0 0 0.00147546)
(0 0 0.00147162)
(0 0 0.00146753)
(0 0 0.0014632)
(0 0 0.00145863)
(0 0 0.00145382)
(0 0 0.00144878)
(0 0 0.00144351)
(0 0 0.001438)
(0 0 0.00143227)
(0 0 0.00142631)
(0 0 0.00142013)
(0 0 0.00141374)
(0 0 0.00140713)
(0 0 0.0014003)
(0 0 0.00139327)
(0 0 0.00138602)
(0 0 0.00137858)
(0 0 0.00137093)
(0 0 0.00136308)
(0 0 0.00135504)
(0 0 0.00134681)
(0 0 0.00133839)
(0 0 0.00132978)
(0 0 0.00132098)
(0 0 0.00131201)
(0 0 0.00130286)
(0 0 0.00129353)
(0 0 0.00128404)
(0 0 0.00127437)
(0 0 0.00126454)
(0 0 0.00125454)
(0 0 0.00124439)
(0 0 0.00123407)
(0 0 0.00122361)
(0 0 0.00121299)
(0 0 0.00120222)
(0 0 0.00119131)
(0 0 0.00118025)
(0 0 0.00116906)
(0 0 0.00115773)
(0 0 0.00114626)
(0 0 0.00113466)
(0 0 0.00112293)
(0 0 0.00111108)
(0 0 0.0010991)
(0 0 0.001087)
(0 0 0.00107479)
(0 0 0.00106245)
(0 0 0.00105001)
(0 0 0.00103745)
(0 0 0.00102479)
(0 0 0.00101202)
(0 0 0.000999153)
(0 0 0.000986182)
(0 0 0.000973114)
(0 0 0.00095995)
(0 0 0.000946694)
(0 0 0.000933348)
(0 0 0.000919913)
(0 0 0.000906393)
(0 0 0.00089279)
(0 0 0.000879105)
(0 0 0.000865342)
(0 0 0.000851502)
(0 0 0.000837588)
(0 0 0.000823601)
(0 0 0.000809545)
(0 0 0.00079542)
(0 0 0.000781229)
(0 0 0.000766975)
(0 0 0.000752658)
(0 0 0.000738282)
(0 0 0.000723847)
(0 0 0.000709356)
(0 0 0.000694811)
(0 0 0.000680213)
(0 0 0.000665565)
(0 0 0.000650867)
(0 0 0.000636123)
(0 0 0.000621333)
(0 0 0.000606498)
(0 0 0.000591622)
(0 0 0.000576705)
(0 0 0.000561748)
(0 0 0.000546754)
(0 0 0.000531724)
(0 0 0.000516659)
(0 0 0.000501561)
(0 0 0.000486431)
(0 0 0.00047127)
(0 0 0.000456079)
(0 0 0.000440861)
(0 0 0.000425616)
(0 0 0.000410346)
(0 0 0.000395051)
(0 0 0.000379733)
(0 0 0.000364393)
(0 0 0.000349033)
(0 0 0.000333652)
(0 0 0.000318253)
(0 0 0.000302836)
(0 0 0.000287402)
(0 0 0.000271953)
(0 0 0.000256488)
(0 0 0.000241011)
(0 0 0.00022552)
(0 0 0.000210017)
(0 0 0.000194504)
(0 0 0.00017898)
(0 0 0.000163447)
(0 0 0.000147906)
(0 0 0.000132357)
(0 0 0.000116801)
(0 0 0.00010124)
(0 0 8.56728e-05)
(0 0 7.01018e-05)
(0 0 5.45273e-05)
(0 0 3.895e-05)
(0 0 2.33708e-05)
(0 0 7.79038e-06)
(0 0 2.65356e-05)
(0 0 7.96052e-05)
(0 0 0.00013267)
(0 0 0.000185728)
(0 0 0.000238775)
(0 0 0.000291808)
(0 0 0.000344824)
(0 0 0.000397821)
(0 0 0.000450794)
(0 0 0.000503741)
(0 0 0.000556659)
(0 0 0.000609542)
(0 0 0.00066239)
(0 0 0.000715196)
(0 0 0.000767959)
(0 0 0.000820674)
(0 0 0.000873337)
(0 0 0.000925944)
(0 0 0.000978491)
(0 0 0.00103097)
(0 0 0.00108339)
(0 0 0.00113573)
(0 0 0.00118799)
(0 0 0.00124016)
(0 0 0.00129225)
(0 0 0.00134425)
(0 0 0.00139614)
(0 0 0.00144793)
(0 0 0.00149961)
(0 0 0.00155117)
(0 0 0.00160261)
(0 0 0.00165392)
(0 0 0.00170509)
(0 0 0.00175612)
(0 0 0.001807)
(0 0 0.00185772)
(0 0 0.00190827)
(0 0 0.00195865)
(0 0 0.00200885)
(0 0 0.00205885)
(0 0 0.00210866)
(0 0 0.00215827)
(0 0 0.00220765)
(0 0 0.00225681)
(0 0 0.00230574)
(0 0 0.00235442)
(0 0 0.00240285)
(0 0 0.00245102)
(0 0 0.00249891)
(0 0 0.00254651)
(0 0 0.00259382)
(0 0 0.00264083)
(0 0 0.00268752)
(0 0 0.00273388)
(0 0 0.0027799)
(0 0 0.00282557)
(0 0 0.00287088)
(0 0 0.00291581)
(0 0 0.00296036)
(0 0 0.00300451)
(0 0 0.00304825)
(0 0 0.00309157)
(0 0 0.00313445)
(0 0 0.00317689)
(0 0 0.00321887)
(0 0 0.00326037)
(0 0 0.00330139)
(0 0 0.00334192)
(0 0 0.00338193)
(0 0 0.00342143)
(0 0 0.00346039)
(0 0 0.0034988)
(0 0 0.00353666)
(0 0 0.00357394)
(0 0 0.00361064)
(0 0 0.00364674)
(0 0 0.00368224)
(0 0 0.00371712)
(0 0 0.00375136)
(0 0 0.00378497)
(0 0 0.00381792)
(0 0 0.0038502)
(0 0 0.00388181)
(0 0 0.00391274)
(0 0 0.00394296)
(0 0 0.00397248)
(0 0 0.00400128)
(0 0 0.00402936)
(0 0 0.0040567)
(0 0 0.00408329)
(0 0 0.00410914)
(0 0 0.00413421)
(0 0 0.00415852)
(0 0 0.00418206)
(0 0 0.0042048)
(0 0 0.00422676)
(0 0 0.00424792)
(0 0 0.00426827)
(0 0 0.00428782)
(0 0 0.00430655)
(0 0 0.00432446)
(0 0 0.00434154)
(0 0 0.0043578)
(0 0 0.00437322)
(0 0 0.00438781)
(0 0 0.00440156)
(0 0 0.00441447)
(0 0 0.00442654)
(0 0 0.00443776)
(0 0 0.00444814)
(0 0 0.00445767)
(0 0 0.00446636)
(0 0 0.0044742)
(0 0 0.00448119)
(0 0 0.00448734)
(0 0 0.00449265)
(0 0 0.00449711)
(0 0 0.00450073)
(0 0 0.00450352)
(0 0 0.00450547)
(0 0 0.00450659)
(0 0 0.00450688)
(0 0 0.00450635)
(0 0 0.004505)
(0 0 0.00450283)
(0 0 0.00449985)
(0 0 0.00449606)
(0 0 0.00449147)
(0 0 0.00448608)
(0 0 0.00447991)
(0 0 0.00447295)
(0 0 0.00446521)
(0 0 0.00445671)
(0 0 0.00444743)
(0 0 0.0044374)
(0 0 0.00442662)
(0 0 0.00441509)
(0 0 0.00440283)
(0 0 0.00438984)
(0 0 0.00437613)
(0 0 0.0043617)
(0 0 0.00434657)
(0 0 0.00433074)
(0 0 0.00431423)
(0 0 0.00429703)
(0 0 0.00427916)
(0 0 0.00426062)
(0 0 0.00424143)
(0 0 0.00422159)
(0 0 0.00420111)
(0 0 0.00418)
(0 0 0.00415828)
(0 0 0.00413593)
(0 0 0.00411299)
(0 0 0.00408945)
(0 0 0.00406532)
(0 0 0.00404062)
(0 0 0.00401535)
(0 0 0.00398952)
(0 0 0.00396314)
(0 0 0.00393621)
(0 0 0.00390876)
(0 0 0.00388077)
(0 0 0.00385228)
(0 0 0.00382328)
(0 0 0.00379378)
(0 0 0.00376379)
(0 0 0.00373332)
(0 0 0.00370238)
(0 0 0.00367097)
(0 0 0.00363912)
(0 0 0.00360681)
(0 0 0.00357407)
(0 0 0.0035409)
(0 0 0.00350731)
(0 0 0.00347331)
(0 0 0.00343891)
(0 0 0.00340411)
(0 0 0.00336892)
(0 0 0.00333336)
(0 0 0.00329742)
(0 0 0.00326113)
(0 0 0.00322447)
(0 0 0.00318748)
(0 0 0.00315014)
(0 0 0.00311247)
(0 0 0.00307448)
(0 0 0.00303617)
(0 0 0.00299756)
(0 0 0.00295865)
(0 0 0.00291944)
(0 0 0.00287995)
(0 0 0.00284018)
(0 0 0.00280013)
(0 0 0.00275983)
(0 0 0.00271927)
(0 0 0.00267845)
(0 0 0.0026374)
(0 0 0.0025961)
(0 0 0.00255458)
(0 0 0.00251284)
(0 0 0.00247088)
(0 0 0.0024287)
(0 0 0.00238633)
(0 0 0.00234375)
(0 0 0.00230099)
(0 0 0.00225804)
(0 0 0.0022149)
(0 0 0.0021716)
(0 0 0.00212812)
(0 0 0.00208449)
(0 0 0.00204069)
(0 0 0.00199675)
(0 0 0.00195265)
(0 0 0.00190842)
(0 0 0.00186404)
(0 0 0.00181954)
(0 0 0.00177491)
(0 0 0.00173016)
(0 0 0.00168528)
(0 0 0.0016403)
(0 0 0.00159521)
(0 0 0.00155001)
(0 0 0.00150472)
(0 0 0.00145932)
(0 0 0.00141384)
(0 0 0.00136827)
(0 0 0.00132261)
(0 0 0.00127688)
(0 0 0.00123106)
(0 0 0.00118518)
(0 0 0.00113922)
(0 0 0.0010932)
(0 0 0.00104712)
(0 0 0.00100098)
(0 0 0.000954777)
(0 0 0.000908525)
(0 0 0.000862223)
(0 0 0.000815873)
(0 0 0.00076948)
(0 0 0.000723046)
(0 0 0.000676573)
(0 0 0.000630064)
(0 0 0.000583522)
(0 0 0.00053695)
(0 0 0.00049035)
(0 0 0.000443725)
(0 0 0.000397078)
(0 0 0.00035041)
(0 0 0.000303724)
(0 0 0.000257023)
(0 0 0.000210309)
(0 0 0.000163585)
(0 0 0.000116852)
(0 0 7.01135e-05)
(0 0 2.33716e-05)
(0 0 4.42276e-05)
(0 0 0.00013268)
(0 0 0.000221125)
(0 0 0.000309558)
(0 0 0.000397973)
(0 0 0.000486365)
(0 0 0.000574729)
(0 0 0.000663061)
(0 0 0.000751353)
(0 0 0.000839602)
(0 0 0.000927801)
(0 0 0.00101594)
(0 0 0.00110403)
(0 0 0.00119204)
(0 0 0.00127998)
(0 0 0.00136785)
(0 0 0.00145562)
(0 0 0.00154331)
(0 0 0.00163089)
(0 0 0.00171836)
(0 0 0.00180573)
(0 0 0.00189296)
(0 0 0.00198007)
(0 0 0.00206704)
(0 0 0.00215386)
(0 0 0.00224052)
(0 0 0.00232702)
(0 0 0.00241335)
(0 0 0.00249948)
(0 0 0.00258543)
(0 0 0.00267117)
(0 0 0.00275669)
(0 0 0.00284198)
(0 0 0.00292704)
(0 0 0.00301184)
(0 0 0.00309638)
(0 0 0.00318064)
(0 0 0.00326462)
(0 0 0.00334829)
(0 0 0.00343164)
(0 0 0.00351467)
(0 0 0.00359735)
(0 0 0.00367967)
(0 0 0.00376162)
(0 0 0.00384317)
(0 0 0.00392432)
(0 0 0.00400504)
(0 0 0.00408533)
(0 0 0.00416516)
(0 0 0.00424451)
(0 0 0.00432338)
(0 0 0.00440173)
(0 0 0.00447956)
(0 0 0.00455684)
(0 0 0.00463355)
(0 0 0.00470968)
(0 0 0.00478521)
(0 0 0.00486011)
(0 0 0.00493437)
(0 0 0.00500797)
(0 0 0.00508088)
(0 0 0.00515309)
(0 0 0.00522458)
(0 0 0.00529532)
(0 0 0.0053653)
(0 0 0.00543449)
(0 0 0.00550287)
(0 0 0.00557043)
(0 0 0.00563713)
(0 0 0.00570297)
(0 0 0.00576792)
(0 0 0.00583195)
(0 0 0.00589506)
(0 0 0.00595721)
(0 0 0.00601839)
(0 0 0.00607858)
(0 0 0.00613775)
(0 0 0.00619589)
(0 0 0.00625298)
(0 0 0.006309)
(0 0 0.00636393)
(0 0 0.00641775)
(0 0 0.00647045)
(0 0 0.006522)
(0 0 0.00657239)
(0 0 0.0066216)
(0 0 0.00666961)
(0 0 0.00671641)
(0 0 0.00676199)
(0 0 0.00680633)
(0 0 0.0068494)
(0 0 0.00689121)
(0 0 0.00693174)
(0 0 0.00697097)
(0 0 0.00700889)
(0 0 0.00704549)
(0 0 0.00708076)
(0 0 0.00711469)
(0 0 0.00714727)
(0 0 0.00717849)
(0 0 0.00720834)
(0 0 0.00723682)
(0 0 0.00726392)
(0 0 0.00728963)
(0 0 0.00731395)
(0 0 0.00733687)
(0 0 0.00735839)
(0 0 0.0073785)
(0 0 0.00739721)
(0 0 0.00741451)
(0 0 0.00743039)
(0 0 0.00744487)
(0 0 0.00745794)
(0 0 0.00746959)
(0 0 0.00747984)
(0 0 0.00748868)
(0 0 0.00749612)
(0 0 0.00750215)
(0 0 0.00750679)
(0 0 0.00751004)
(0 0 0.00751191)
(0 0 0.00751239)
(0 0 0.00751149)
(0 0 0.00750923)
(0 0 0.00750561)
(0 0 0.00750064)
(0 0 0.00749432)
(0 0 0.00748667)
(0 0 0.00747769)
(0 0 0.00746739)
(0 0 0.00745578)
(0 0 0.00744288)
(0 0 0.00742869)
(0 0 0.00741323)
(0 0 0.0073965)
(0 0 0.00737853)
(0 0 0.00735931)
(0 0 0.00733886)
(0 0 0.0073172)
(0 0 0.00729434)
(0 0 0.00727029)
(0 0 0.00724506)
(0 0 0.00721867)
(0 0 0.00719113)
(0 0 0.00716246)
(0 0 0.00713266)
(0 0 0.00710176)
(0 0 0.00706977)
(0 0 0.00703669)
(0 0 0.00700255)
(0 0 0.00696736)
(0 0 0.00693114)
(0 0 0.00689389)
(0 0 0.00685564)
(0 0 0.0068164)
(0 0 0.00677618)
(0 0 0.006735)
(0 0 0.00669287)
(0 0 0.00664981)
(0 0 0.00660583)
(0 0 0.00656095)
(0 0 0.00651517)
(0 0 0.00646853)
(0 0 0.00642103)
(0 0 0.00637268)
(0 0 0.0063235)
(0 0 0.00627351)
(0 0 0.00622272)
(0 0 0.00617114)
(0 0 0.00611879)
(0 0 0.00606569)
(0 0 0.00601184)
(0 0 0.00595726)
(0 0 0.00590197)
(0 0 0.00584598)
(0 0 0.0057893)
(0 0 0.00573195)
(0 0 0.00567395)
(0 0 0.00561529)
(0 0 0.00555601)
(0 0 0.00549611)
(0 0 0.0054356)
(0 0 0.00537451)
(0 0 0.00531284)
(0 0 0.0052506)
(0 0 0.00518781)
(0 0 0.00512448)
(0 0 0.00506063)
(0 0 0.00499627)
(0 0 0.0049314)
(0 0 0.00486605)
(0 0 0.00480022)
(0 0 0.00473393)
(0 0 0.00466718)
(0 0 0.0046)
(0 0 0.00453239)
(0 0 0.00446436)
(0 0 0.00439592)
(0 0 0.0043271)
(0 0 0.00425789)
(0 0 0.0041883)
(0 0 0.00411836)
(0 0 0.00404807)
(0 0 0.00397743)
(0 0 0.00390647)
(0 0 0.00383519)
(0 0 0.00376359)
(0 0 0.0036917)
(0 0 0.00361952)
(0 0 0.00354706)
(0 0 0.00347432)
(0 0 0.00340132)
(0 0 0.00332807)
(0 0 0.00325458)
(0 0 0.00318085)
(0 0 0.00310689)
(0 0 0.00303271)
(0 0 0.00295832)
(0 0 0.00288372)
(0 0 0.00280893)
(0 0 0.00273396)
(0 0 0.0026588)
(0 0 0.00258347)
(0 0 0.00250797)
(0 0 0.00243231)
(0 0 0.0023565)
(0 0 0.00228054)
(0 0 0.00220444)
(0 0 0.00212821)
(0 0 0.00205185)
(0 0 0.00197537)
(0 0 0.00189878)
(0 0 0.00182207)
(0 0 0.00174526)
(0 0 0.00166836)
(0 0 0.00159135)
(0 0 0.00151426)
(0 0 0.00143709)
(0 0 0.00135984)
(0 0 0.00128251)
(0 0 0.00120512)
(0 0 0.00112766)
(0 0 0.00105014)
(0 0 0.000972571)
(0 0 0.000894948)
(0 0 0.000817279)
(0 0 0.000739568)
(0 0 0.000661819)
(0 0 0.000584036)
(0 0 0.000506224)
(0 0 0.000428386)
(0 0 0.000350527)
(0 0 0.00027265)
(0 0 0.00019476)
(0 0 0.00011686)
(0 0 3.89539e-05)
(0 0 6.19221e-05)
(0 0 0.000185763)
(0 0 0.000309593)
(0 0 0.000433406)
(0 0 0.000557194)
(0 0 0.00068095)
(0 0 0.000804668)
(0 0 0.000928339)
(0 0 0.00105196)
(0 0 0.00117551)
(0 0 0.001299)
(0 0 0.00142241)
(0 0 0.00154573)
(0 0 0.00166896)
(0 0 0.00179209)
(0 0 0.00191511)
(0 0 0.002038)
(0 0 0.00216077)
(0 0 0.0022834)
(0 0 0.00240587)
(0 0 0.00252819)
(0 0 0.00265033)
(0 0 0.00277229)
(0 0 0.00289406)
(0 0 0.00301562)
(0 0 0.00313697)
(0 0 0.00325808)
(0 0 0.00337894)
(0 0 0.00349955)
(0 0 0.00361989)
(0 0 0.00373994)
(0 0 0.00385968)
(0 0 0.00397911)
(0 0 0.0040982)
(0 0 0.00421694)
(0 0 0.00433532)
(0 0 0.0044533)
(0 0 0.00457089)
(0 0 0.00468805)
(0 0 0.00480476)
(0 0 0.00492102)
(0 0 0.00503679)
(0 0 0.00515206)
(0 0 0.00526681)
(0 0 0.00538101)
(0 0 0.00549464)
(0 0 0.00560768)
(0 0 0.0057201)
(0 0 0.00583189)
(0 0 0.00594301)
(0 0 0.00605344)
(0 0 0.00616316)
(0 0 0.00627215)
(0 0 0.00638037)
(0 0 0.00648779)
(0 0 0.0065944)
(0 0 0.00670017)
(0 0 0.00680506)
(0 0 0.00690905)
(0 0 0.00701212)
(0 0 0.00711422)
(0 0 0.00721535)
(0 0 0.00731546)
(0 0 0.00741452)
(0 0 0.00751252)
(0 0 0.00760942)
(0 0 0.00770518)
(0 0 0.00779979)
(0 0 0.00789321)
(0 0 0.00798541)
(0 0 0.00807636)
(0 0 0.00816604)
(0 0 0.00825442)
(0 0 0.00834146)
(0 0 0.00842714)
(0 0 0.00851143)
(0 0 0.0085943)
(0 0 0.00867573)
(0 0 0.00875568)
(0 0 0.00883413)
(0 0 0.00891106)
(0 0 0.00898644)
(0 0 0.00906023)
(0 0 0.00913243)
(0 0 0.00920299)
(0 0 0.00927191)
(0 0 0.00933915)
(0 0 0.0094047)
(0 0 0.00946853)
(0 0 0.00953062)
(0 0 0.00959094)
(0 0 0.00964949)
(0 0 0.00970625)
(0 0 0.00976118)
(0 0 0.00981429)
(0 0 0.00986555)
(0 0 0.00991494)
(0 0 0.00996245)
(0 0 0.0100081)
(0 0 0.0100518)
(0 0 0.0100936)
(0 0 0.0101335)
(0 0 0.0101714)
(0 0 0.0102074)
(0 0 0.0102415)
(0 0 0.0102736)
(0 0 0.0103037)
(0 0 0.0103319)
(0 0 0.0103581)
(0 0 0.0103823)
(0 0 0.0104045)
(0 0 0.0104248)
(0 0 0.0104431)
(0 0 0.0104594)
(0 0 0.0104737)
(0 0 0.0104861)
(0 0 0.0104965)
(0 0 0.010505)
(0 0 0.0105115)
(0 0 0.010516)
(0 0 0.0105186)
(0 0 0.0105193)
(0 0 0.010518)
(0 0 0.0105148)
(0 0 0.0105098)
(0 0 0.0105028)
(0 0 0.0104939)
(0 0 0.0104832)
(0 0 0.0104706)
(0 0 0.0104562)
(0 0 0.0104399)
(0 0 0.0104218)
(0 0 0.010402)
(0 0 0.0103803)
(0 0 0.0103569)
(0 0 0.0103317)
(0 0 0.0103048)
(0 0 0.0102761)
(0 0 0.0102458)
(0 0 0.0102137)
(0 0 0.0101801)
(0 0 0.0101447)
(0 0 0.0101077)
(0 0 0.0100692)
(0 0 0.010029)
(0 0 0.00998728)
(0 0 0.009944)
(0 0 0.00989918)
(0 0 0.00985286)
(0 0 0.00980504)
(0 0 0.00975576)
(0 0 0.00970502)
(0 0 0.00965286)
(0 0 0.00959929)
(0 0 0.00954433)
(0 0 0.009488)
(0 0 0.00943032)
(0 0 0.00937132)
(0 0 0.00931101)
(0 0 0.00924942)
(0 0 0.00918657)
(0 0 0.00912247)
(0 0 0.00905714)
(0 0 0.00899062)
(0 0 0.00892291)
(0 0 0.00885405)
(0 0 0.00878404)
(0 0 0.00871291)
(0 0 0.00864068)
(0 0 0.00856737)
(0 0 0.008493)
(0 0 0.0084176)
(0 0 0.00834117)
(0 0 0.00826374)
(0 0 0.00818533)
(0 0 0.00810597)
(0 0 0.00802566)
(0 0 0.00794443)
(0 0 0.00786229)
(0 0 0.00777928)
(0 0 0.0076954)
(0 0 0.00761067)
(0 0 0.00752512)
(0 0 0.00743876)
(0 0 0.00735161)
(0 0 0.00726369)
(0 0 0.00717501)
(0 0 0.0070856)
(0 0 0.00699547)
(0 0 0.00690465)
(0 0 0.00681313)
(0 0 0.00672096)
(0 0 0.00662813)
(0 0 0.00653467)
(0 0 0.0064406)
(0 0 0.00634592)
(0 0 0.00625067)
(0 0 0.00615485)
(0 0 0.00605847)
(0 0 0.00596156)
(0 0 0.00586413)
(0 0 0.0057662)
(0 0 0.00566777)
(0 0 0.00556887)
(0 0 0.00546951)
(0 0 0.0053697)
(0 0 0.00526945)
(0 0 0.00516879)
(0 0 0.00506772)
(0 0 0.00496626)
(0 0 0.00486442)
(0 0 0.00476221)
(0 0 0.00465964)
(0 0 0.00455674)
(0 0 0.0044535)
(0 0 0.00434995)
(0 0 0.00424609)
(0 0 0.00414193)
(0 0 0.00403749)
(0 0 0.00393277)
(0 0 0.00382779)
(0 0 0.00372256)
(0 0 0.00361708)
(0 0 0.00351138)
(0 0 0.00340545)
(0 0 0.0032993)
(0 0 0.00319295)
(0 0 0.00308641)
(0 0 0.00297968)
(0 0 0.00287277)
(0 0 0.00276569)
(0 0 0.00265844)
(0 0 0.00255105)
(0 0 0.00244351)
(0 0 0.00233583)
(0 0 0.00222802)
(0 0 0.00212009)
(0 0 0.00201204)
(0 0 0.00190388)
(0 0 0.00179561)
(0 0 0.00168726)
(0 0 0.00157881)
(0 0 0.00147028)
(0 0 0.00136167)
(0 0 0.00125299)
(0 0 0.00114425)
(0 0 0.00103545)
(0 0 0.000926593)
(0 0 0.000817692)
(0 0 0.000708749)
(0 0 0.000599771)
(0 0 0.000490762)
(0 0 0.000381729)
(0 0 0.000272677)
(0 0 0.000163612)
(0 0 5.45382e-05)
(0 0 7.96202e-05)
(0 0 0.000238856)
(0 0 0.000398078)
(0 0 0.000557278)
(0 0 0.000716447)
(0 0 0.000875575)
(0 0 0.00103465)
(0 0 0.00119367)
(0 0 0.00135262)
(0 0 0.00151149)
(0 0 0.00167027)
(0 0 0.00182896)
(0 0 0.00198753)
(0 0 0.00214599)
(0 0 0.00230431)
(0 0 0.00246249)
(0 0 0.00262051)
(0 0 0.00277837)
(0 0 0.00293605)
(0 0 0.00309354)
(0 0 0.00325082)
(0 0 0.00340788)
(0 0 0.00356471)
(0 0 0.00372129)
(0 0 0.00387761)
(0 0 0.00403364)
(0 0 0.00418938)
(0 0 0.0043448)
(0 0 0.00449989)
(0 0 0.00465464)
(0 0 0.00480901)
(0 0 0.004963)
(0 0 0.00511657)
(0 0 0.00526972)
(0 0 0.00542242)
(0 0 0.00557464)
(0 0 0.00572637)
(0 0 0.00587758)
(0 0 0.00602825)
(0 0 0.00617835)
(0 0 0.00632786)
(0 0 0.00647674)
(0 0 0.00662498)
(0 0 0.00677255)
(0 0 0.00691942)
(0 0 0.00706555)
(0 0 0.00721093)
(0 0 0.00735551)
(0 0 0.00749928)
(0 0 0.00764219)
(0 0 0.00778422)
(0 0 0.00792534)
(0 0 0.0080655)
(0 0 0.00820469)
(0 0 0.00834285)
(0 0 0.00847997)
(0 0 0.008616)
(0 0 0.00875091)
(0 0 0.00888466)
(0 0 0.00901722)
(0 0 0.00914855)
(0 0 0.00927862)
(0 0 0.00940738)
(0 0 0.0095348)
(0 0 0.00966084)
(0 0 0.00978547)
(0 0 0.00990865)
(0 0 0.0100303)
(0 0 0.0101505)
(0 0 0.0102691)
(0 0 0.0103861)
(0 0 0.0105014)
(0 0 0.0106151)
(0 0 0.0107271)
(0 0 0.0108373)
(0 0 0.0109457)
(0 0 0.0110523)
(0 0 0.011157)
(0 0 0.0112599)
(0 0 0.0113608)
(0 0 0.0114597)
(0 0 0.0115567)
(0 0 0.0116516)
(0 0 0.0117445)
(0 0 0.0118353)
(0 0 0.0119239)
(0 0 0.0120104)
(0 0 0.0120947)
(0 0 0.0121768)
(0 0 0.0122567)
(0 0 0.0123343)
(0 0 0.0124096)
(0 0 0.0124826)
(0 0 0.0125532)
(0 0 0.0126215)
(0 0 0.0126875)
(0 0 0.012751)
(0 0 0.0128121)
(0 0 0.0128708)
(0 0 0.012927)
(0 0 0.0129808)
(0 0 0.0130321)
(0 0 0.0130809)
(0 0 0.0131272)
(0 0 0.013171)
(0 0 0.0132123)
(0 0 0.013251)
(0 0 0.0132872)
(0 0 0.0133209)
(0 0 0.013352)
(0 0 0.0133806)
(0 0 0.0134067)
(0 0 0.0134302)
(0 0 0.0134512)
(0 0 0.0134696)
(0 0 0.0134855)
(0 0 0.0134989)
(0 0 0.0135097)
(0 0 0.0135181)
(0 0 0.0135239)
(0 0 0.0135272)
(0 0 0.0135281)
(0 0 0.0135264)
(0 0 0.0135223)
(0 0 0.0135158)
(0 0 0.0135068)
(0 0 0.0134954)
(0 0 0.0134816)
(0 0 0.0134654)
(0 0 0.0134468)
(0 0 0.0134259)
(0 0 0.0134026)
(0 0 0.013377)
(0 0 0.0133491)
(0 0 0.013319)
(0 0 0.0132866)
(0 0 0.0132519)
(0 0 0.0132151)
(0 0 0.013176)
(0 0 0.0131348)
(0 0 0.0130915)
(0 0 0.013046)
(0 0 0.0129984)
(0 0 0.0129488)
(0 0 0.0128971)
(0 0 0.0128434)
(0 0 0.0127878)
(0 0 0.0127301)
(0 0 0.0126705)
(0 0 0.012609)
(0 0 0.0125456)
(0 0 0.0124803)
(0 0 0.0124132)
(0 0 0.0123443)
(0 0 0.0122736)
(0 0 0.0122012)
(0 0 0.012127)
(0 0 0.0120511)
(0 0 0.0119735)
(0 0 0.0118943)
(0 0 0.0118134)
(0 0 0.011731)
(0 0 0.011647)
(0 0 0.0115614)
(0 0 0.0114743)
(0 0 0.0113857)
(0 0 0.0112957)
(0 0 0.0112042)
(0 0 0.0111113)
(0 0 0.011017)
(0 0 0.0109214)
(0 0 0.0108244)
(0 0 0.0107261)
(0 0 0.0106265)
(0 0 0.0105256)
(0 0 0.0104236)
(0 0 0.0103203)
(0 0 0.0102158)
(0 0 0.0101102)
(0 0 0.0100034)
(0 0 0.00989553)
(0 0 0.00978657)
(0 0 0.00967654)
(0 0 0.00956547)
(0 0 0.00945339)
(0 0 0.00934032)
(0 0 0.00922628)
(0 0 0.00911129)
(0 0 0.00899538)
(0 0 0.00887857)
(0 0 0.00876089)
(0 0 0.00864234)
(0 0 0.00852296)
(0 0 0.00840278)
(0 0 0.0082818)
(0 0 0.00816005)
(0 0 0.00803755)
(0 0 0.00791432)
(0 0 0.00779038)
(0 0 0.00766576)
(0 0 0.00754046)
(0 0 0.00741452)
(0 0 0.00728795)
(0 0 0.00716076)
(0 0 0.00703299)
(0 0 0.00690464)
(0 0 0.00677573)
(0 0 0.00664628)
(0 0 0.00651631)
(0 0 0.00638584)
(0 0 0.00625488)
(0 0 0.00612345)
(0 0 0.00599156)
(0 0 0.00585923)
(0 0 0.00572648)
(0 0 0.00559332)
(0 0 0.00545976)
(0 0 0.00532582)
(0 0 0.00519152)
(0 0 0.00505687)
(0 0 0.00492188)
(0 0 0.00478656)
(0 0 0.00465094)
(0 0 0.00451501)
(0 0 0.0043788)
(0 0 0.00424231)
(0 0 0.00410556)
(0 0 0.00396856)
(0 0 0.00383132)
(0 0 0.00369385)
(0 0 0.00355616)
(0 0 0.00341826)
(0 0 0.00328017)
(0 0 0.00314189)
(0 0 0.00300343)
(0 0 0.00286481)
(0 0 0.00272602)
(0 0 0.00258709)
(0 0 0.00244802)
(0 0 0.00230881)
(0 0 0.00216948)
(0 0 0.00203004)
(0 0 0.00189049)
(0 0 0.00175084)
(0 0 0.0016111)
(0 0 0.00147128)
(0 0 0.00133138)
(0 0 0.00119141)
(0 0 0.00105139)
(0 0 0.00091131)
(0 0 0.000771186)
(0 0 0.000631022)
(0 0 0.000490828)
(0 0 0.000350608)
(0 0 0.000210372)
(0 0 7.01251e-05)
(0 0 9.73228e-05)
(0 0 0.000291963)
(0 0 0.000486586)
(0 0 0.000681183)
(0 0 0.000875741)
(0 0 0.00107025)
(0 0 0.0012647)
(0 0 0.00145907)
(0 0 0.00165337)
(0 0 0.00184756)
(0 0 0.00204165)
(0 0 0.00223562)
(0 0 0.00242945)
(0 0 0.00262314)
(0 0 0.00281667)
(0 0 0.00301003)
(0 0 0.00320319)
(0 0 0.00339616)
(0 0 0.0035889)
(0 0 0.00378142)
(0 0 0.00397368)
(0 0 0.00416567)
(0 0 0.00435738)
(0 0 0.00454879)
(0 0 0.00473987)
(0 0 0.00493061)
(0 0 0.00512099)
(0 0 0.00531099)
(0 0 0.00550059)
(0 0 0.00568975)
(0 0 0.00587847)
(0 0 0.00606672)
(0 0 0.00625447)
(0 0 0.00644169)
(0 0 0.00662837)
(0 0 0.00681447)
(0 0 0.00699996)
(0 0 0.00718482)
(0 0 0.00736902)
(0 0 0.00755253)
(0 0 0.00773531)
(0 0 0.00791734)
(0 0 0.00809858)
(0 0 0.008279)
(0 0 0.00845856)
(0 0 0.00863723)
(0 0 0.00881497)
(0 0 0.00899175)
(0 0 0.00916752)
(0 0 0.00934226)
(0 0 0.00951592)
(0 0 0.00968846)
(0 0 0.00985984)
(0 0 0.01003)
(0 0 0.010199)
(0 0 0.0103666)
(0 0 0.010533)
(0 0 0.0106979)
(0 0 0.0108615)
(0 0 0.0110236)
(0 0 0.0111841)
(0 0 0.0113432)
(0 0 0.0115006)
(0 0 0.0116565)
(0 0 0.0118106)
(0 0 0.011963)
(0 0 0.0121136)
(0 0 0.0122624)
(0 0 0.0124094)
(0 0 0.0125544)
(0 0 0.0126974)
(0 0 0.0128385)
(0 0 0.0129775)
(0 0 0.0131144)
(0 0 0.0132492)
(0 0 0.0133818)
(0 0 0.0135122)
(0 0 0.0136402)
(0 0 0.013766)
(0 0 0.0138894)
(0 0 0.0140104)
(0 0 0.014129)
(0 0 0.0142451)
(0 0 0.0143586)
(0 0 0.0144696)
(0 0 0.014578)
(0 0 0.0146838)
(0 0 0.0147869)
(0 0 0.0148873)
(0 0 0.014985)
(0 0 0.0150799)
(0 0 0.015172)
(0 0 0.0152612)
(0 0 0.0153476)
(0 0 0.0154312)
(0 0 0.0155118)
(0 0 0.0155895)
(0 0 0.0156642)
(0 0 0.015736)
(0 0 0.0158047)
(0 0 0.0158705)
(0 0 0.0159332)
(0 0 0.0159928)
(0 0 0.0160495)
(0 0 0.016103)
(0 0 0.0161535)
(0 0 0.0162008)
(0 0 0.0162451)
(0 0 0.0162863)
(0 0 0.0163243)
(0 0 0.0163593)
(0 0 0.0163911)
(0 0 0.0164199)
(0 0 0.0164455)
(0 0 0.016468)
(0 0 0.0164875)
(0 0 0.0165038)
(0 0 0.016517)
(0 0 0.0165272)
(0 0 0.0165343)
(0 0 0.0165384)
(0 0 0.0165394)
(0 0 0.0165373)
(0 0 0.0165323)
(0 0 0.0165243)
(0 0 0.0165132)
(0 0 0.0164993)
(0 0 0.0164823)
(0 0 0.0164625)
(0 0 0.0164398)
(0 0 0.0164141)
(0 0 0.0163857)
(0 0 0.0163544)
(0 0 0.0163202)
(0 0 0.0162833)
(0 0 0.0162437)
(0 0 0.0162013)
(0 0 0.0161562)
(0 0 0.0161084)
(0 0 0.016058)
(0 0 0.016005)
(0 0 0.0159494)
(0 0 0.0158912)
(0 0 0.0158305)
(0 0 0.0157673)
(0 0 0.0157016)
(0 0 0.0156335)
(0 0 0.015563)
(0 0 0.0154901)
(0 0 0.0154149)
(0 0 0.0153373)
(0 0 0.0152575)
(0 0 0.0151754)
(0 0 0.0150911)
(0 0 0.0150047)
(0 0 0.0149161)
(0 0 0.0148253)
(0 0 0.0147325)
(0 0 0.0146377)
(0 0 0.0145408)
(0 0 0.0144419)
(0 0 0.0143411)
(0 0 0.0142383)
(0 0 0.0141337)
(0 0 0.0140272)
(0 0 0.0139189)
(0 0 0.0138088)
(0 0 0.0136969)
(0 0 0.0135833)
(0 0 0.013468)
(0 0 0.0133511)
(0 0 0.0132325)
(0 0 0.0131123)
(0 0 0.0129905)
(0 0 0.0128672)
(0 0 0.0127424)
(0 0 0.0126161)
(0 0 0.0124884)
(0 0 0.0123592)
(0 0 0.0122287)
(0 0 0.0120968)
(0 0 0.0119635)
(0 0 0.011829)
(0 0 0.0116932)
(0 0 0.0115562)
(0 0 0.0114179)
(0 0 0.0112785)
(0 0 0.0111379)
(0 0 0.0109962)
(0 0 0.0108534)
(0 0 0.0107095)
(0 0 0.0105646)
(0 0 0.0104186)
(0 0 0.0102717)
(0 0 0.0101238)
(0 0 0.00997491)
(0 0 0.00982515)
(0 0 0.0096745)
(0 0 0.00952298)
(0 0 0.00937062)
(0 0 0.00921744)
(0 0 0.00906348)
(0 0 0.00890874)
(0 0 0.00875325)
(0 0 0.00859704)
(0 0 0.00844013)
(0 0 0.00828254)
(0 0 0.0081243)
(0 0 0.00796541)
(0 0 0.00780591)
(0 0 0.00764581)
(0 0 0.00748514)
(0 0 0.00732391)
(0 0 0.00716214)
(0 0 0.00699986)
(0 0 0.00683708)
(0 0 0.00667381)
(0 0 0.00651009)
(0 0 0.00634591)
(0 0 0.00618131)
(0 0 0.00601629)
(0 0 0.00585088)
(0 0 0.00568509)
(0 0 0.00551893)
(0 0 0.00535242)
(0 0 0.00518558)
(0 0 0.00501842)
(0 0 0.00485095)
(0 0 0.00468319)
(0 0 0.00451515)
(0 0 0.00434684)
(0 0 0.00417828)
(0 0 0.00400948)
(0 0 0.00384045)
(0 0 0.0036712)
(0 0 0.00350175)
(0 0 0.00333211)
(0 0 0.00316229)
(0 0 0.00299229)
(0 0 0.00282213)
(0 0 0.00265182)
(0 0 0.00248138)
(0 0 0.0023108)
(0 0 0.0021401)
(0 0 0.00196929)
(0 0 0.00179838)
(0 0 0.00162738)
(0 0 0.0014563)
(0 0 0.00128514)
(0 0 0.00111392)
(0 0 0.000942639)
(0 0 0.000771314)
(0 0 0.00059995)
(0 0 0.000428557)
(0 0 0.000257143)
(0 0 8.57156e-05)
(0 0 0.000115031)
(0 0 0.000345086)
(0 0 0.000575122)
(0 0 0.000805126)
(0 0 0.00103508)
(0 0 0.00126499)
(0 0 0.00149481)
(0 0 0.00172456)
(0 0 0.00195421)
(0 0 0.00218374)
(0 0 0.00241315)
(0 0 0.00264241)
(0 0 0.00287152)
(0 0 0.00310046)
(0 0 0.00332921)
(0 0 0.00355775)
(0 0 0.00378607)
(0 0 0.00401416)
(0 0 0.00424199)
(0 0 0.00446954)
(0 0 0.0046968)
(0 0 0.00492374)
(0 0 0.00515035)
(0 0 0.0053766)
(0 0 0.00560248)
(0 0 0.00582795)
(0 0 0.00605299)
(0 0 0.00627759)
(0 0 0.00650171)
(0 0 0.00672532)
(0 0 0.00694841)
(0 0 0.00717094)
(0 0 0.00739289)
(0 0 0.00761421)
(0 0 0.00783489)
(0 0 0.00805489)
(0 0 0.00827418)
(0 0 0.00849273)
(0 0 0.00871049)
(0 0 0.00892743)
(0 0 0.00914352)
(0 0 0.00935873)
(0 0 0.009573)
(0 0 0.0097863)
(0 0 0.00999859)
(0 0 0.0102098)
(0 0 0.01042)
(0 0 0.010629)
(0 0 0.0108368)
(0 0 0.0110434)
(0 0 0.0112487)
(0 0 0.0114527)
(0 0 0.0116554)
(0 0 0.0118566)
(0 0 0.0120564)
(0 0 0.0122546)
(0 0 0.0124513)
(0 0 0.0126463)
(0 0 0.0128397)
(0 0 0.0130314)
(0 0 0.0132213)
(0 0 0.0134094)
(0 0 0.0135955)
(0 0 0.0137798)
(0 0 0.0139621)
(0 0 0.0141423)
(0 0 0.0143204)
(0 0 0.0144964)
(0 0 0.0146701)
(0 0 0.0148416)
(0 0 0.0150108)
(0 0 0.0151776)
(0 0 0.015342)
(0 0 0.0155039)
(0 0 0.0156633)
(0 0 0.0158201)
(0 0 0.0159743)
(0 0 0.0161258)
(0 0 0.0162745)
(0 0 0.0164204)
(0 0 0.0165635)
(0 0 0.0167038)
(0 0 0.016841)
(0 0 0.0169753)
(0 0 0.0171066)
(0 0 0.0172348)
(0 0 0.0173599)
(0 0 0.0174818)
(0 0 0.0176006)
(0 0 0.0177161)
(0 0 0.0178283)
(0 0 0.0179372)
(0 0 0.0180428)
(0 0 0.0181449)
(0 0 0.0182437)
(0 0 0.0183391)
(0 0 0.0184309)
(0 0 0.0185193)
(0 0 0.0186041)
(0 0 0.0186854)
(0 0 0.0187632)
(0 0 0.0188373)
(0 0 0.0189079)
(0 0 0.0189748)
(0 0 0.0190381)
(0 0 0.0190977)
(0 0 0.0191537)
(0 0 0.0192061)
(0 0 0.0192548)
(0 0 0.0192997)
(0 0 0.0193411)
(0 0 0.0193787)
(0 0 0.0194127)
(0 0 0.0194429)
(0 0 0.0194695)
(0 0 0.0194925)
(0 0 0.0195118)
(0 0 0.0195274)
(0 0 0.0195394)
(0 0 0.0195478)
(0 0 0.0195525)
(0 0 0.0195537)
(0 0 0.0195512)
(0 0 0.0195453)
(0 0 0.0195357)
(0 0 0.0195227)
(0 0 0.0195061)
(0 0 0.019486)
(0 0 0.0194625)
(0 0 0.0194356)
(0 0 0.0194053)
(0 0 0.0193716)
(0 0 0.0193345)
(0 0 0.0192941)
(0 0 0.0192505)
(0 0 0.0192035)
(0 0 0.0191534)
(0 0 0.0191)
(0 0 0.0190435)
(0 0 0.0189838)
(0 0 0.0189211)
(0 0 0.0188553)
(0 0 0.0187865)
(0 0 0.0187147)
(0 0 0.0186399)
(0 0 0.0185622)
(0 0 0.0184816)
(0 0 0.0183982)
(0 0 0.018312)
(0 0 0.018223)
(0 0 0.0181313)
(0 0 0.0180369)
(0 0 0.0179398)
(0 0 0.0178401)
(0 0 0.0177379)
(0 0 0.0176331)
(0 0 0.0175258)
(0 0 0.017416)
(0 0 0.0173038)
(0 0 0.0171892)
(0 0 0.0170723)
(0 0 0.0169531)
(0 0 0.0168316)
(0 0 0.0167078)
(0 0 0.0165819)
(0 0 0.0164538)
(0 0 0.0163236)
(0 0 0.0161913)
(0 0 0.016057)
(0 0 0.0159207)
(0 0 0.0157824)
(0 0 0.0156421)
(0 0 0.0155)
(0 0 0.015356)
(0 0 0.0152103)
(0 0 0.0150627)
(0 0 0.0149133)
(0 0 0.0147623)
(0 0 0.0146096)
(0 0 0.0144553)
(0 0 0.0142993)
(0 0 0.0141418)
(0 0 0.0139827)
(0 0 0.0138222)
(0 0 0.0136602)
(0 0 0.0134967)
(0 0 0.0133319)
(0 0 0.0131656)
(0 0 0.0129981)
(0 0 0.0128293)
(0 0 0.0126591)
(0 0 0.0124878)
(0 0 0.0123153)
(0 0 0.0121415)
(0 0 0.0119667)
(0 0 0.0117907)
(0 0 0.0116136)
(0 0 0.0114355)
(0 0 0.0112564)
(0 0 0.0110763)
(0 0 0.0108952)
(0 0 0.0107132)
(0 0 0.0105303)