/*--------------------------------*- C++ -*----------------------------------*\
| =========                 |                                                 |
| \\      /  F ield         | OpenFOAM: The Open Source CFD Toolbox           |
|  \\    /   O peration     | Version:  v2012                                 |
|   \\  /    A nd           | Website:  www.openfoam.com                      |
|    \\/     M anipulation  |                                                 |
\*---------------------------------------------------------------------------*/
FoamFile
{
    version     2.0;
    format      ascii;
    class       volScalarField;
    location    "0";
    object      zeta;
}
// * * * * * * * * * * * * * * * * * * * * * * * * * * * * * * * * * * * * * //

dimensions      [0 0 -1 0 0 0 0];


internalField   nonuniform List<scalar> 
65536
(
1.39089e-21
1.99275e-21
2.84426e-21
4.04427e-21
5.72886e-21
8.08449e-21
1.13656e-20
1.5918e-20
2.22097e-20
3.0871e-20
4.2748e-20
5.89709e-20
8.10429e-20
1.10956e-19
1.51335e-19
2.05629e-19
2.78348e-19
3.75359e-19
5.04268e-19
6.74889e-19
8.99829e-19
1.19521e-18
1.58155e-18
2.08487e-18
2.73799e-18
3.58212e-18
4.66879e-18
6.06214e-18
7.84157e-18
1.0105e-17
1.29726e-17
1.6591e-17
2.11385e-17
2.68307e-17
3.3927e-17
4.27383e-17
5.36344e-17
6.70543e-17
8.35153e-17
1.03624e-16
1.28089e-16
1.57733e-16
1.93502e-16
2.36486e-16
2.87927e-16
3.49233e-16
4.21992e-16
5.07983e-16
6.09188e-16
7.27795e-16
8.66209e-16
1.02705e-15
1.21316e-15
1.42758e-15
1.67356e-15
1.9545e-15
2.27398e-15
2.63569e-15
3.04339e-15
3.50089e-15
4.01194e-15
4.58022e-15
5.20925e-15
5.90228e-15
6.66225e-15
7.49166e-15
8.3925e-15
9.36615e-15
1.04133e-14
1.15337e-14
1.27265e-14
1.39895e-14
1.53198e-14
1.67132e-14
1.81645e-14
1.96672e-14
2.12138e-14
2.27956e-14
2.44028e-14
2.60247e-14
2.76495e-14
2.92647e-14
3.08574e-14
3.24138e-14
3.39202e-14
3.53625e-14
3.67269e-14
3.8e-14
3.91688e-14
4.02212e-14
4.11461e-14
4.19335e-14
4.25749e-14
4.30632e-14
4.33933e-14
4.35614e-14
4.35659e-14
4.34071e-14
4.30871e-14
4.26098e-14
4.19811e-14
4.12085e-14
4.03012e-14
3.92697e-14
3.8126e-14
3.68831e-14
3.55548e-14
3.41558e-14
3.27011e-14
3.12061e-14
2.96864e-14
2.81572e-14
2.66337e-14
2.51305e-14
2.36617e-14
2.22408e-14
2.08803e-14
1.95921e-14
1.83868e-14
1.72743e-14
1.62635e-14
1.53621e-14
1.45771e-14
1.39142e-14
1.33781e-14
1.29727e-14
1.27009e-14
1.25645e-14
1.25645e-14
1.27009e-14
1.29727e-14
1.33781e-14
1.39142e-14
1.45771e-14
1.53621e-14
1.62635e-14
1.72743e-14
1.83868e-14
1.95921e-14
2.08803e-14
2.22408e-14
2.36617e-14
2.51305e-14
2.66337e-14
2.81572e-14
2.96864e-14
3.12061e-14
3.27011e-14
3.41558e-14
3.55548e-14
3.68831e-14
3.8126e-14
3.92697e-14
4.03012e-14
4.12085e-14
4.19811e-14
4.26098e-14
4.30871e-14
4.34071e-14
4.35659e-14
4.35614e-14
4.33933e-14
4.30632e-14
4.25749e-14
4.19335e-14
4.11461e-14
4.02212e-14
3.91688e-14
3.8e-14
3.67269e-14
3.53625e-14
3.39202e-14
3.24138e-14
3.08574e-14
2.92647e-14
2.76495e-14
2.60247e-14
2.44028e-14
2.27956e-14
2.12138e-14
1.96672e-14
1.81645e-14
1.67132e-14
1.53198e-14
1.39895e-14
1.27265e-14
1.15337e-14
1.04133e-14
9.36615e-15
8.3925e-15
7.49166e-15
6.66225e-15
5.90228e-15
5.20925e-15
4.58022e-15
4.01194e-15
3.50089e-15
3.04339e-15
2.63569e-15
2.27398e-15
1.9545e-15
1.67356e-15
1.42758e-15
1.21316e-15
1.02705e-15
8.66209e-16
7.27795e-16
6.09188e-16
5.07983e-16
4.21992e-16
3.49233e-16
2.87927e-16
2.36486e-16
1.93502e-16
1.57733e-16
1.28089e-16
1.03624e-16
8.35153e-17
6.70543e-17
5.36344e-17
4.27383e-17
3.3927e-17
2.68307e-17
2.11385e-17
1.6591e-17
1.29726e-17
1.0105e-17
7.84157e-18
6.06214e-18
4.66879e-18
3.58212e-18
2.73799e-18
2.08487e-18
1.58155e-18
1.19521e-18
8.99829e-19
6.74889e-19
5.04268e-19
3.75359e-19
2.78348e-19
2.05629e-19
1.51335e-19
1.10956e-19
8.10429e-20
5.89709e-20
4.2748e-20
3.0871e-20
2.22097e-20
1.5918e-20
1.13656e-20
8.08449e-21
5.72886e-21
4.04427e-21
2.84426e-21
1.99275e-21
1.39089e-21
2.24934e-21
3.22265e-21
4.5997e-21
6.54035e-21
9.26464e-21
1.30741e-20
1.83803e-20
2.57424e-20
3.59172e-20
4.99242e-20
6.91316e-20
9.53669e-20
1.31062e-19
1.79436e-19
2.44737e-19
3.32541e-19
4.5014e-19
6.07025e-19
8.15496e-19
1.09142e-18
1.45519e-18
1.93288e-18
2.55766e-18
3.37163e-18
4.42784e-18
5.79296e-18
7.55031e-18
9.80361e-18
1.26813e-17
1.63417e-17
2.09791e-17
2.68307e-17
3.41848e-17
4.33902e-17
5.48664e-17
6.91157e-17
8.67369e-17
1.08439e-16
1.3506e-16
1.6758e-16
2.07145e-16
2.55083e-16
3.12929e-16
3.82442e-16
4.65632e-16
5.64775e-16
6.8244e-16
8.21504e-16
9.8517e-16
1.17698e-15
1.40082e-15
1.66094e-15
1.96191e-15
2.30867e-15
2.70646e-15
3.16079e-15
3.67745e-15
4.2624e-15
4.92174e-15
5.66159e-15
6.48805e-15
7.40707e-15
8.42433e-15
9.54509e-15
1.07741e-14
1.21154e-14
1.35722e-14
1.51468e-14
1.68402e-14
1.86522e-14
2.05811e-14
2.26236e-14
2.4775e-14
2.70284e-14
2.93754e-14
3.18056e-14
3.43068e-14
3.68648e-14
3.9464e-14
4.20868e-14
4.47144e-14
4.73266e-14
4.99022e-14
5.24192e-14
5.48553e-14
5.71878e-14
5.93943e-14
6.14531e-14
6.33433e-14
6.50453e-14
6.65409e-14
6.78143e-14
6.88515e-14
6.96413e-14
7.0175e-14
7.04469e-14
7.04542e-14
7.01974e-14
6.96798e-14
6.8908e-14
6.78912e-14
6.66418e-14
6.51745e-14
6.35065e-14
6.16569e-14
5.96468e-14
5.74988e-14
5.52363e-14
5.28838e-14
5.04661e-14
4.80084e-14
4.55354e-14
4.30716e-14
4.06407e-14
3.82654e-14
3.59676e-14
3.37674e-14
3.1684e-14
2.97348e-14
2.79357e-14
2.63011e-14
2.48435e-14
2.35739e-14
2.25018e-14
2.16349e-14
2.09793e-14
2.05397e-14
2.03192e-14
2.03192e-14
2.05397e-14
2.09793e-14
2.16349e-14
2.25018e-14
2.35739e-14
2.48435e-14
2.63011e-14
2.79357e-14
2.97348e-14
3.1684e-14
3.37674e-14
3.59676e-14
3.82654e-14
4.06407e-14
4.30716e-14
4.55354e-14
4.80084e-14
5.04661e-14
5.28838e-14
5.52363e-14
5.74988e-14
5.96468e-14
6.16569e-14
6.35065e-14
6.51745e-14
6.66418e-14
6.78912e-14
6.8908e-14
6.96798e-14
7.01974e-14
7.04542e-14
7.04469e-14
7.0175e-14
6.96413e-14
6.88515e-14
6.78143e-14
6.65409e-14
6.50453e-14
6.33433e-14
6.14531e-14
5.93943e-14
5.71878e-14
5.48553e-14
5.24192e-14
4.99022e-14
4.73266e-14
4.47144e-14
4.20868e-14
3.9464e-14
3.68648e-14
3.43068e-14
3.18056e-14
2.93754e-14
2.70284e-14
2.4775e-14
2.26236e-14
2.05811e-14
1.86522e-14
1.68402e-14
1.51468e-14
1.35722e-14
1.21154e-14
1.07741e-14
9.54509e-15
8.42433e-15
7.40707e-15
6.48805e-15
5.66159e-15
4.92174e-15
4.2624e-15
3.67745e-15
3.16079e-15
2.70646e-15
2.30867e-15
1.96191e-15
1.66094e-15
1.40082e-15
1.17698e-15
9.8517e-16
8.21504e-16
6.8244e-16
5.64775e-16
4.65632e-16
3.82442e-16
3.12929e-16
2.55083e-16
2.07145e-16
1.6758e-16
1.3506e-16
1.08439e-16
8.67369e-17
6.91157e-17
5.48664e-17
4.33902e-17
3.41848e-17
2.68307e-17
2.09791e-17
1.63417e-17
1.26813e-17
9.80361e-18
7.55031e-18
5.79296e-18
4.42784e-18
3.37163e-18
2.55766e-18
1.93288e-18
1.45519e-18
1.09142e-18
8.15496e-19
6.07025e-19
4.5014e-19
3.32541e-19
2.44737e-19
1.79436e-19
1.31062e-19
9.53669e-20
6.91316e-20
4.99242e-20
3.59172e-20
2.57424e-20
1.83803e-20
1.30741e-20
9.26464e-21
6.54035e-21
4.5997e-21
3.22265e-21
2.24934e-21
3.62386e-21
5.19195e-21
7.41047e-21
1.0537e-20
1.49261e-20
2.10634e-20
2.96121e-20
4.1473e-20
5.78654e-20
8.04318e-20
1.11376e-19
1.53644e-19
2.1115e-19
2.89085e-19
3.9429e-19
5.3575e-19
7.25211e-19
9.77965e-19
1.31383e-18
1.75837e-18
2.34443e-18
3.11401e-18
4.1206e-18
5.43195e-18
7.13359e-18
9.3329e-18
1.21641e-17
1.57944e-17
2.04305e-17
2.63277e-17
3.37989e-17
4.32263e-17
5.50744e-17
6.9905e-17
8.8394e-17
1.11351e-16
1.3974e-16
1.74704e-16
2.17592e-16
2.69984e-16
3.33726e-16
4.10958e-16
5.04153e-16
6.16144e-16
7.50169e-16
9.09896e-16
1.09946e-15
1.32351e-15
1.58719e-15
1.89621e-15
2.25683e-15
2.6759e-15
3.16079e-15
3.71945e-15
4.36031e-15
5.09228e-15
5.92466e-15
6.86706e-15
7.9293e-15
9.12126e-15
1.04528e-14
1.19334e-14
1.35722e-14
1.53779e-14
1.73579e-14
1.95189e-14
2.18659e-14
2.44027e-14
2.71309e-14
3.00501e-14
3.31577e-14
3.64484e-14
3.99144e-14
4.35449e-14
4.73261e-14
5.12413e-14
5.52708e-14
5.93921e-14
6.35795e-14
6.7805e-14
7.20383e-14
7.62468e-14
8.03963e-14
8.44514e-14
8.83761e-14
9.21339e-14
9.56889e-14
9.90058e-14
1.02051e-13
1.04793e-13
1.07203e-13
1.09254e-13
1.10925e-13
1.12198e-13
1.13057e-13
1.13495e-13
1.13507e-13
1.13093e-13
1.1226e-13
1.11016e-13
1.09378e-13
1.07365e-13
1.05001e-13
1.02314e-13
9.93341e-14
9.60957e-14
9.2635e-14
8.89899e-14
8.51998e-14
8.13048e-14
7.73452e-14
7.33611e-14
6.93917e-14
6.54753e-14
6.16486e-14
5.79465e-14
5.44019e-14
5.10454e-14
4.79051e-14
4.50066e-14
4.23731e-14
4.00247e-14
3.79794e-14
3.62521e-14
3.48554e-14
3.37993e-14
3.30911e-14
3.27358e-14
3.27358e-14
3.30911e-14
3.37993e-14
3.48554e-14
3.62521e-14
3.79794e-14
4.00247e-14
4.23731e-14
4.50066e-14
4.79051e-14
5.10454e-14
5.44019e-14
5.79465e-14
6.16486e-14
6.54753e-14
6.93917e-14
7.33611e-14
7.73452e-14
8.13048e-14
8.51998e-14
8.89899e-14
9.2635e-14
9.60957e-14
9.93341e-14
1.02314e-13
1.05001e-13
1.07365e-13
1.09378e-13
1.11016e-13
1.1226e-13
1.13093e-13
1.13507e-13
1.13495e-13
1.13057e-13
1.12198e-13
1.10925e-13
1.09254e-13
1.07203e-13
1.04793e-13
1.02051e-13
9.90058e-14
9.56889e-14
9.21339e-14
8.83761e-14
8.44514e-14
8.03963e-14
7.62468e-14
7.20383e-14
6.7805e-14
6.35795e-14
5.93921e-14
5.52708e-14
5.12413e-14
4.73261e-14
4.35449e-14
3.99144e-14
3.64484e-14
3.31577e-14
3.00501e-14
2.71309e-14
2.44027e-14
2.18659e-14
1.95189e-14
1.73579e-14
1.53779e-14
1.35722e-14
1.19334e-14
1.04528e-14
9.12126e-15
7.9293e-15
6.86706e-15
5.92466e-15
5.09228e-15
4.36031e-15
3.71945e-15
3.16079e-15
2.6759e-15
2.25683e-15
1.89621e-15
1.58719e-15
1.32351e-15
1.09946e-15
9.09896e-16
7.50169e-16
6.16144e-16
5.04153e-16
4.10958e-16
3.33726e-16
2.69984e-16
2.17592e-16
1.74704e-16
1.3974e-16
1.11351e-16
8.8394e-17
6.9905e-17
5.50744e-17
4.32263e-17
3.37989e-17
2.63277e-17
2.04305e-17
1.57944e-17
1.21641e-17
9.3329e-18
7.13359e-18
5.43195e-18
4.1206e-18
3.11401e-18
2.34443e-18
1.75837e-18
1.31383e-18
9.77965e-19
7.25211e-19
5.3575e-19
3.9429e-19
2.89085e-19
2.1115e-19
1.53644e-19
1.11376e-19
8.04318e-20
5.78654e-20
4.1473e-20
2.96121e-20
2.10634e-20
1.49261e-20
1.0537e-20
7.41047e-21
5.19195e-21
3.62386e-21
5.81626e-21
8.33303e-21
1.18937e-20
1.69118e-20
2.39562e-20
3.38066e-20
4.75272e-20
6.65639e-20
9.28734e-20
1.29092e-19
1.78758e-19
2.46596e-19
3.38894e-19
4.63979e-19
6.32832e-19
8.59874e-19
1.16396e-18
1.56962e-18
2.10868e-18
2.82216e-18
3.76278e-18
4.99796e-18
6.61352e-18
8.71824e-18
1.14494e-17
1.49792e-17
1.95233e-17
2.53498e-17
3.27908e-17
4.22557e-17
5.42469e-17
6.93778e-17
8.8394e-17
1.12197e-16
1.41872e-16
1.78717e-16
2.24281e-16
2.80399e-16
3.49233e-16
4.33322e-16
5.35627e-16
6.59585e-16
8.0916e-16
9.88906e-16
1.20401e-15
1.46038e-15
1.76463e-15
2.12422e-15
2.54742e-15
3.04339e-15
3.6222e-15
4.29479e-15
5.07304e-15
5.96968e-15
6.99826e-15
8.17306e-15
9.50903e-15
1.10216e-14
1.27265e-14
1.46395e-14
1.67766e-14
1.9153e-14
2.17833e-14
2.46814e-14
2.78593e-14
3.13276e-14
3.50946e-14
3.91661e-14
4.35448e-14
4.82301e-14
5.32178e-14
5.84994e-14
6.40623e-14
6.98891e-14
7.59579e-14
8.22418e-14
8.87092e-14
9.53237e-14
1.02045e-13
1.08826e-13
1.15621e-13
1.22375e-13
1.29035e-13
1.35544e-13
1.41843e-13
1.47874e-13
1.5358e-13
1.58903e-13
1.63791e-13
1.68192e-13
1.72059e-13
1.75352e-13
1.78034e-13
1.80076e-13
1.81456e-13
1.82159e-13
1.82178e-13
1.81514e-13
1.80176e-13
1.7818e-13
1.75551e-13
1.7232e-13
1.68526e-13
1.64213e-13
1.5943e-13
1.54233e-13
1.48678e-13
1.42828e-13
1.36745e-13
1.30494e-13
1.24138e-13
1.17744e-13
1.11373e-13
1.05087e-13
9.89455e-14
9.30037e-14
8.73146e-14
8.19274e-14
7.68873e-14
7.22353e-14
6.80084e-14
6.42393e-14
6.09566e-14
5.81843e-14
5.59427e-14
5.42476e-14
5.31109e-14
5.25406e-14
5.25406e-14
5.31109e-14
5.42476e-14
5.59427e-14
5.81843e-14
6.09566e-14
6.42393e-14
6.80084e-14
7.22353e-14
7.68873e-14
8.19274e-14
8.73146e-14
9.30037e-14
9.89455e-14
1.05087e-13
1.11373e-13
1.17744e-13
1.24138e-13
1.30494e-13
1.36745e-13
1.42828e-13
1.48678e-13
1.54233e-13
1.5943e-13
1.64213e-13
1.68526e-13
1.7232e-13
1.75551e-13
1.7818e-13
1.80176e-13
1.81514e-13
1.82178e-13
1.82159e-13
1.81456e-13
1.80076e-13
1.78034e-13
1.75352e-13
1.72059e-13
1.68192e-13
1.63791e-13
1.58903e-13
1.5358e-13
1.47874e-13
1.41843e-13
1.35544e-13
1.29035e-13
1.22375e-13
1.15621e-13
1.08826e-13
1.02045e-13
9.53237e-14
8.87092e-14
8.22418e-14
7.59579e-14
6.98891e-14
6.40623e-14
5.84994e-14
5.32178e-14
4.82301e-14
4.35448e-14
3.91661e-14
3.50946e-14
3.13276e-14
2.78593e-14
2.46814e-14
2.17833e-14
1.9153e-14
1.67766e-14
1.46395e-14
1.27265e-14
1.10216e-14
9.50903e-15
8.17306e-15
6.99826e-15
5.96968e-15
5.07304e-15
4.29479e-15
3.6222e-15
3.04339e-15
2.54742e-15
2.12422e-15
1.76463e-15
1.46038e-15
1.20401e-15
9.88906e-16
8.0916e-16
6.59585e-16
5.35627e-16
4.33322e-16
3.49233e-16
2.80399e-16
2.24281e-16
1.78717e-16
1.41872e-16
1.12197e-16
8.8394e-17
6.93778e-17
5.42469e-17
4.22557e-17
3.27908e-17
2.53498e-17
1.95233e-17
1.49792e-17
1.14494e-17
8.71824e-18
6.61352e-18
4.99796e-18
3.76278e-18
2.82216e-18
2.10868e-18
1.56962e-18
1.16396e-18
8.59874e-19
6.32832e-19
4.63979e-19
3.38894e-19
2.46596e-19
1.78758e-19
1.29092e-19
9.28734e-20
6.65639e-20
4.75272e-20
3.38066e-20
2.39562e-20
1.69118e-20
1.18937e-20
8.33303e-21
5.81626e-21
9.29977e-21
1.33239e-20
1.90172e-20
2.70407e-20
3.83042e-20
5.40543e-20
7.59925e-20
1.06431e-19
1.48498e-19
2.06409e-19
2.85821e-19
3.9429e-19
5.41868e-19
7.41869e-19
1.01185e-18
1.37488e-18
1.86108e-18
2.50972e-18
3.37163e-18
4.51243e-18
6.01642e-18
7.99138e-18
1.05745e-17
1.39398e-17
1.83067e-17
2.39507e-17
3.12164e-17
4.05325e-17
5.24301e-17
6.75638e-17
8.67369e-17
1.1093e-16
1.41336e-16
1.79395e-16
2.26842e-16
2.85756e-16
3.58609e-16
4.48337e-16
5.58398e-16
6.92851e-16
8.56429e-16
1.05463e-15
1.29379e-15
1.58119e-15
1.92513e-15
2.33503e-15
2.82152e-15
3.39647e-15
4.07314e-15
4.86617e-15
5.79163e-15
6.86706e-15
8.11143e-15
9.54509e-15
1.11897e-14
1.30681e-14
1.52043e-14
1.76227e-14
2.03487e-14
2.34076e-14
2.68245e-14
3.06242e-14
3.483e-14
3.94637e-14
4.4545e-14
5.00906e-14
5.61138e-14
6.26238e-14
6.9625e-14
7.71165e-14
8.50914e-14
9.35364e-14
1.02431e-13
1.11748e-13
1.21451e-13
1.31499e-13
1.4184e-13
1.52416e-13
1.63162e-13
1.74006e-13
1.84869e-13
1.95669e-13
2.06318e-13
2.16725e-13
2.26796e-13
2.3644e-13
2.45563e-13
2.54075e-13
2.6189e-13
2.68926e-13
2.7511e-13
2.80375e-13
2.84663e-13
2.87929e-13
2.90135e-13
2.91259e-13
2.9129e-13
2.90228e-13
2.88088e-13
2.84897e-13
2.80693e-13
2.75527e-13
2.69461e-13
2.62564e-13
2.54918e-13
2.46607e-13
2.37726e-13
2.28372e-13
2.18645e-13
2.0865e-13
1.98488e-13
1.88264e-13
1.78077e-13
1.68027e-13
1.58207e-13
1.48706e-13
1.3961e-13
1.30996e-13
1.22937e-13
1.15499e-13
1.08741e-13
1.02714e-13
9.74651e-14
9.30325e-14
8.94483e-14
8.6738e-14
8.49206e-14
8.40087e-14
8.40087e-14
8.49206e-14
8.6738e-14
8.94483e-14
9.30325e-14
9.74651e-14
1.02714e-13
1.08741e-13
1.15499e-13
1.22937e-13
1.30996e-13
1.3961e-13
1.48706e-13
1.58207e-13
1.68027e-13
1.78077e-13
1.88264e-13
1.98488e-13
2.0865e-13
2.18645e-13
2.28372e-13
2.37726e-13
2.46607e-13
2.54918e-13
2.62564e-13
2.69461e-13
2.75527e-13
2.80693e-13
2.84897e-13
2.88088e-13
2.90228e-13
2.9129e-13
2.91259e-13
2.90135e-13
2.87929e-13
2.84663e-13
2.80375e-13
2.7511e-13
2.68926e-13
2.6189e-13
2.54075e-13
2.45563e-13
2.3644e-13
2.26796e-13
2.16725e-13
2.06318e-13
1.95669e-13
1.84869e-13
1.74006e-13
1.63162e-13
1.52416e-13
1.4184e-13
1.31499e-13
1.21451e-13
1.11748e-13
1.02431e-13
9.35364e-14
8.50914e-14
7.71165e-14
6.9625e-14
6.26238e-14
5.61138e-14
5.00906e-14
4.4545e-14
3.94637e-14
3.483e-14
3.06242e-14
2.68245e-14
2.34076e-14
2.03487e-14
1.76227e-14
1.52043e-14
1.30681e-14
1.11897e-14
9.54509e-15
8.11143e-15
6.86706e-15
5.79163e-15
4.86617e-15
4.07314e-15
3.39647e-15
2.82152e-15
2.33503e-15
1.92513e-15
1.58119e-15
1.29379e-15
1.05463e-15
8.56429e-16
6.92851e-16
5.58398e-16
4.48337e-16
3.58609e-16
2.85756e-16
2.26842e-16
1.79395e-16
1.41336e-16
1.1093e-16
8.67369e-17
6.75638e-17
5.24301e-17
4.05325e-17
3.12164e-17
2.39507e-17
1.83067e-17
1.39398e-17
1.05745e-17
7.99138e-18
6.01642e-18
4.51243e-18
3.37163e-18
2.50972e-18
1.86108e-18
1.37488e-18
1.01185e-18
7.41869e-19
5.41868e-19
3.9429e-19
2.85821e-19
2.06409e-19
1.48498e-19
1.06431e-19
7.59925e-20
5.40543e-20
3.83042e-20
2.70407e-20
1.90172e-20
1.33239e-20
9.29977e-21
1.48135e-20
2.12235e-20
3.02923e-20
4.30729e-20
6.10143e-20
8.61025e-20
1.21048e-19
1.69532e-19
2.3654e-19
3.28787e-19
4.55281e-19
6.2806e-19
8.63134e-19
1.18171e-18
1.61177e-18
2.19002e-18
2.9645e-18
3.9977e-18
5.37062e-18
7.1878e-18
9.58348e-18
1.27294e-17
1.68441e-17
2.22046e-17
2.91605e-17
3.81508e-17
4.97242e-17
6.45638e-17
8.35153e-17
1.07622e-16
1.38162e-16
1.76699e-16
2.25132e-16
2.85756e-16
3.61334e-16
4.55177e-16
5.71224e-16
7.14151e-16
8.89466e-16
1.10363e-15
1.3642e-15
1.6799e-15
2.06086e-15
2.51866e-15
3.06652e-15
3.71945e-15
4.49436e-15
5.41019e-15
6.48805e-15
7.75125e-15
9.22542e-15
1.09385e-14
1.29206e-14
1.52043e-14
1.78239e-14
2.08161e-14
2.42187e-14
2.8071e-14
3.24132e-14
3.72856e-14
4.27285e-14
4.87809e-14
5.54802e-14
6.28613e-14
7.09552e-14
7.97887e-14
8.9383e-14
9.97526e-14
1.10905e-13
1.22838e-13
1.35541e-13
1.48993e-13
1.63161e-13
1.78001e-13
1.93458e-13
2.09463e-13
2.25935e-13
2.42781e-13
2.59898e-13
2.77172e-13
2.94476e-13
3.11679e-13
3.28641e-13
3.45218e-13
3.61261e-13
3.76622e-13
3.91154e-13
4.04713e-13
4.17161e-13
4.2837e-13
4.3822e-13
4.46606e-13
4.53437e-13
4.58638e-13
4.62153e-13
4.63943e-13
4.63992e-13
4.623e-13
4.58892e-13
4.53808e-13
4.47112e-13
4.38884e-13
4.29221e-13
4.18236e-13
4.06055e-13
3.92817e-13
3.7867e-13
3.6377e-13
3.48277e-13
3.32356e-13
3.1617e-13
2.99883e-13
2.83657e-13
2.67648e-13
2.52005e-13
2.36872e-13
2.22383e-13
2.08662e-13
1.95825e-13
1.83977e-13
1.73211e-13
1.63612e-13
1.55251e-13
1.4819e-13
1.42481e-13
1.38164e-13
1.35269e-13
1.33816e-13
1.33816e-13
1.35269e-13
1.38164e-13
1.42481e-13
1.4819e-13
1.55251e-13
1.63612e-13
1.73211e-13
1.83977e-13
1.95825e-13
2.08662e-13
2.22383e-13
2.36872e-13
2.52005e-13
2.67648e-13
2.83657e-13
2.99883e-13
3.1617e-13
3.32356e-13
3.48277e-13
3.6377e-13
3.7867e-13
3.92817e-13
4.06055e-13
4.18236e-13
4.29221e-13
4.38884e-13
4.47112e-13
4.53808e-13
4.58892e-13
4.623e-13
4.63992e-13
4.63943e-13
4.62153e-13
4.58638e-13
4.53437e-13
4.46606e-13
4.3822e-13
4.2837e-13
4.17161e-13
4.04713e-13
3.91154e-13
3.76622e-13
3.61261e-13
3.45218e-13
3.28641e-13
3.11679e-13
2.94476e-13
2.77172e-13
2.59898e-13
2.42781e-13
2.25935e-13
2.09463e-13
1.93458e-13
1.78001e-13
1.63161e-13
1.48993e-13
1.35541e-13
1.22838e-13
1.10905e-13
9.97526e-14
8.9383e-14
7.97887e-14
7.09552e-14
6.28613e-14
5.54802e-14
4.87809e-14
4.27285e-14
3.72856e-14
3.24132e-14
2.8071e-14
2.42187e-14
2.08161e-14
1.78239e-14
1.52043e-14
1.29206e-14
1.09385e-14
9.22542e-15
7.75125e-15
6.48805e-15
5.41019e-15
4.49436e-15
3.71945e-15
3.06652e-15
2.51866e-15
2.06086e-15
1.6799e-15
1.3642e-15
1.10363e-15
8.89466e-16
7.14151e-16
5.71224e-16
4.55177e-16
3.61334e-16
2.85756e-16
2.25132e-16
1.76699e-16
1.38162e-16
1.07622e-16
8.35153e-17
6.45638e-17
4.97242e-17
3.81508e-17
2.91605e-17
2.22046e-17
1.68441e-17
1.27294e-17
9.58348e-18
7.1878e-18
5.37062e-18
3.9977e-18
2.9645e-18
2.19002e-18
1.61177e-18
1.18171e-18
8.63134e-19
6.2806e-19
4.55281e-19
3.28787e-19
2.3654e-19
1.69532e-19
1.21048e-19
8.61025e-20
6.10143e-20
4.30729e-20
3.02923e-20
2.12235e-20
1.48135e-20
2.35071e-20
3.36789e-20
4.80699e-20
6.8351e-20
9.68218e-20
1.36633e-19
1.92087e-19
2.69026e-19
3.75359e-19
5.21742e-19
7.22471e-19
9.96649e-19
1.36968e-18
1.87523e-18
2.55766e-18
3.47528e-18
4.70427e-18
6.34382e-18
8.52248e-18
1.14061e-17
1.52077e-17
2.01998e-17
2.67293e-17
3.52358e-17
4.62739e-17
6.05403e-17
7.89059e-17
1.02454e-16
1.32528e-16
1.70781e-16
2.19245e-16
2.80399e-16
3.57255e-16
4.53457e-16
5.73391e-16
7.22306e-16
9.06459e-16
1.13326e-15
1.41147e-15
1.75132e-15
2.1648e-15
2.66579e-15
3.27032e-15
3.99678e-15
4.86617e-15
5.90228e-15
7.13196e-15
8.58527e-15
1.02957e-14
1.23002e-14
1.46395e-14
1.73579e-14
2.05033e-14
2.41272e-14
2.82843e-14
3.30324e-14
3.84319e-14
4.4545e-14
5.14355e-14
5.91674e-14
6.78045e-14
7.74089e-14
8.80399e-14
9.97526e-14
1.12597e-13
1.26614e-13
1.41839e-13
1.58294e-13
1.75991e-13
1.94928e-13
2.15086e-13
2.36432e-13
2.58915e-13
2.82465e-13
3.06993e-13
3.3239e-13
3.58529e-13
3.85262e-13
4.12425e-13
4.39835e-13
4.67295e-13
4.94594e-13
5.21511e-13
5.47816e-13
5.73275e-13
5.97651e-13
6.20711e-13
6.42227e-13
6.6198e-13
6.79767e-13
6.95398e-13
7.08705e-13
7.19545e-13
7.27799e-13
7.33376e-13
7.36217e-13
7.36294e-13
7.3361e-13
7.28201e-13
7.20135e-13
7.09509e-13
6.96452e-13
6.81118e-13
6.63685e-13
6.44356e-13
6.2335e-13
6.00901e-13
5.77256e-13
5.52671e-13
5.27405e-13
5.0172e-13
4.75876e-13
4.50127e-13
4.24723e-13
3.999e-13
3.75885e-13
3.52892e-13
3.31119e-13
3.10749e-13
2.91947e-13
2.74864e-13
2.59631e-13
2.46363e-13
2.35159e-13
2.26099e-13
2.19248e-13
2.14654e-13
2.12349e-13
2.12349e-13
2.14654e-13
2.19248e-13
2.26099e-13
2.35159e-13
2.46363e-13
2.59631e-13
2.74864e-13
2.91947e-13
3.10749e-13
3.31119e-13
3.52892e-13
3.75885e-13
3.999e-13
4.24723e-13
4.50127e-13
4.75876e-13
5.0172e-13
5.27405e-13
5.52671e-13
5.77256e-13
6.00901e-13
6.2335e-13
6.44356e-13
6.63685e-13
6.81118e-13
6.96452e-13
7.09509e-13
7.20135e-13
7.28201e-13
7.3361e-13
7.36294e-13
7.36217e-13
7.33376e-13
7.27799e-13
7.19545e-13
7.08705e-13
6.95398e-13
6.79767e-13
6.6198e-13
6.42227e-13
6.20711e-13
5.97651e-13
5.73275e-13
5.47816e-13
5.21511e-13
4.94594e-13
4.67295e-13
4.39835e-13
4.12425e-13
3.85262e-13
3.58529e-13
3.3239e-13
3.06993e-13
2.82465e-13
2.58915e-13
2.36432e-13
2.15086e-13
1.94928e-13
1.75991e-13
1.58294e-13
1.41839e-13
1.26614e-13
1.12597e-13
9.97526e-14
8.80399e-14
7.74089e-14
6.78045e-14
5.91674e-14
5.14355e-14
4.4545e-14
3.84319e-14
3.30324e-14
2.82843e-14
2.41272e-14
2.05033e-14
1.73579e-14
1.46395e-14
1.23002e-14
1.02957e-14
8.58527e-15
7.13196e-15
5.90228e-15
4.86617e-15
3.99678e-15
3.27032e-15
2.66579e-15
2.1648e-15
1.75132e-15
1.41147e-15
1.13326e-15
9.06459e-16
7.22306e-16
5.73391e-16
4.53457e-16
3.57255e-16
2.80399e-16
2.19245e-16
1.70781e-16
1.32528e-16
1.02454e-16
7.89059e-17
6.05403e-17
4.62739e-17
3.52358e-17
2.67293e-17
2.01998e-17
1.52077e-17
1.14061e-17
8.52248e-18
6.34382e-18
4.70427e-18
3.47528e-18
2.55766e-18
1.87523e-18
1.36968e-18
9.96649e-19
7.22471e-19
5.21742e-19
3.75359e-19
2.69026e-19
1.92087e-19
1.36633e-19
9.68218e-20
6.8351e-20
4.80699e-20
3.36789e-20
2.35071e-20
3.71618e-20
5.32421e-20
7.59925e-20
1.08054e-19
1.53063e-19
2.16e-19
3.03665e-19
4.25296e-19
5.93395e-19
8.24808e-19
1.14214e-18
1.57558e-18
2.1653e-18
2.9645e-18
4.04335e-18
5.49398e-18
7.43686e-18
1.00288e-17
1.3473e-17
1.80316e-17
2.40415e-17
3.19334e-17
4.22557e-17
5.57034e-17
7.31533e-17
9.57067e-17
1.2474e-16
1.61967e-16
2.0951e-16
2.69984e-16
3.46599e-16
4.43275e-16
5.64775e-16
7.16859e-16
9.06459e-16
1.14188e-15
1.433e-15
1.79155e-15
2.23135e-15
2.76862e-15
3.42228e-15
4.21428e-15
5.16996e-15
6.31841e-15
7.6928e-15
9.33077e-15
1.12747e-14
1.35722e-14
1.62762e-14
1.94451e-14
2.31433e-14
2.74407e-14
3.24132e-14
3.8142e-14
4.47139e-14
5.22201e-14
6.0756e-14
7.04201e-14
8.1313e-14
9.35363e-14
1.0719e-13
1.22374e-13
1.3918e-13
1.57696e-13
1.78001e-13
2.00161e-13
2.2423e-13
2.50244e-13
2.78221e-13
3.08156e-13
3.40024e-13
3.7377e-13
4.09313e-13
4.46542e-13
4.85317e-13
5.25467e-13
5.66789e-13
6.09051e-13
6.51992e-13
6.95324e-13
7.38735e-13
7.81892e-13
8.24444e-13
8.66029e-13
9.06275e-13
9.44811e-13
9.81266e-13
1.01528e-12
1.04651e-12
1.07463e-12
1.09934e-12
1.12037e-12
1.13751e-12
1.15056e-12
1.15938e-12
1.16387e-12
1.16399e-12
1.15975e-12
1.1512e-12
1.13844e-12
1.12165e-12
1.101e-12
1.07676e-12
1.0492e-12
1.01865e-12
9.85438e-13
9.49949e-13
9.1257e-13
8.73703e-13
8.33761e-13
7.93157e-13
7.523e-13
7.11595e-13
6.71433e-13
6.32191e-13
5.94228e-13
5.57879e-13
5.23458e-13
4.91255e-13
4.61532e-13
4.34525e-13
4.10444e-13
3.89469e-13
3.71757e-13
3.57434e-13
3.46604e-13
3.39341e-13
3.35698e-13
3.35698e-13
3.39341e-13
3.46604e-13
3.57434e-13
3.71757e-13
3.89469e-13
4.10444e-13
4.34525e-13
4.61532e-13
4.91255e-13
5.23458e-13
5.57879e-13
5.94228e-13
6.32191e-13
6.71433e-13
7.11595e-13
7.523e-13
7.93157e-13
8.33761e-13
8.73703e-13
9.1257e-13
9.49949e-13
9.85438e-13
1.01865e-12
1.0492e-12
1.07676e-12
1.101e-12
1.12165e-12
1.13844e-12
1.1512e-12
1.15975e-12
1.16399e-12
1.16387e-12
1.15938e-12
1.15056e-12
1.13751e-12
1.12037e-12
1.09934e-12
1.07463e-12
1.04651e-12
1.01528e-12
9.81266e-13
9.44811e-13
9.06275e-13
8.66029e-13
8.24444e-13
7.81892e-13
7.38735e-13
6.95324e-13
6.51992e-13
6.09051e-13
5.66789e-13
5.25467e-13
4.85317e-13
4.46542e-13
4.09313e-13
3.7377e-13
3.40024e-13
3.08156e-13
2.78221e-13
2.50244e-13
2.2423e-13
2.00161e-13
1.78001e-13
1.57696e-13
1.3918e-13
1.22374e-13
1.0719e-13
9.35363e-14
8.1313e-14
7.04201e-14
6.0756e-14
5.22201e-14
4.47139e-14
3.8142e-14
3.24132e-14
2.74407e-14
2.31433e-14
1.94451e-14
1.62762e-14
1.35722e-14
1.12747e-14
9.33077e-15
7.6928e-15
6.31841e-15
5.16996e-15
4.21428e-15
3.42228e-15
2.76862e-15
2.23135e-15
1.79155e-15
1.433e-15
1.14188e-15
9.06459e-16
7.16859e-16
5.64775e-16
4.43275e-16
3.46599e-16
2.69984e-16
2.0951e-16
1.61967e-16
1.2474e-16
9.57067e-17
7.31533e-17
5.57034e-17
4.22557e-17
3.19334e-17
2.40415e-17
1.80316e-17
1.3473e-17
1.00288e-17
7.43686e-18
5.49398e-18
4.04335e-18
2.9645e-18
2.1653e-18
1.57558e-18
1.14214e-18
8.24808e-19
5.93395e-19
4.25296e-19
3.03665e-19
2.16e-19
1.53063e-19
1.08054e-19
7.59925e-20
5.32421e-20
3.71618e-20
5.85262e-20
8.38512e-20
1.19681e-19
1.70175e-19
2.41059e-19
3.4018e-19
4.78243e-19
6.698e-19
9.3454e-19
1.29899e-18
1.79875e-18
2.48138e-18
3.41013e-18
4.66879e-18
6.36788e-18
8.65249e-18
1.17123e-17
1.57944e-17
2.12186e-17
2.8398e-17
3.78631e-17
5.0292e-17
6.65486e-17
8.77274e-17
1.15209e-16
1.50729e-16
1.96454e-16
2.55083e-16
3.29958e-16
4.25199e-16
5.4586e-16
6.98115e-16
8.89466e-16
1.12898e-15
1.42758e-15
1.79834e-15
2.25683e-15
2.82152e-15
3.51416e-15
4.36031e-15
5.38975e-15
6.63708e-15
8.14219e-15
9.95088e-15
1.21154e-14
1.4695e-14
1.77566e-14
2.1375e-14
2.56334e-14
3.06242e-14
3.64484e-14
4.32164e-14
5.10476e-14
6.007e-14
7.04201e-14
8.22416e-14
9.56847e-14
1.10905e-13
1.2806e-13
1.47311e-13
1.68815e-13
1.92727e-13
2.19195e-13
2.48357e-13
2.80335e-13
3.15235e-13
3.5314e-13
3.9411e-13
4.3817e-13
4.85316e-13
5.35505e-13
5.88651e-13
6.44628e-13
7.0326e-13
7.64328e-13
8.27559e-13
8.92638e-13
9.59196e-13
1.02682e-12
1.09507e-12
1.16344e-12
1.2314e-12
1.29842e-12
1.36391e-12
1.4273e-12
1.48799e-12
1.5454e-12
1.59897e-12
1.64815e-12
1.69243e-12
1.73135e-12
1.76448e-12
1.79147e-12
1.81202e-12
1.8259e-12
1.83298e-12
1.83317e-12
1.82649e-12
1.81302e-12
1.79294e-12
1.76648e-12
1.73397e-12
1.6958e-12
1.65239e-12
1.60427e-12
1.55197e-12
1.49608e-12
1.43721e-12
1.376e-12
1.31309e-12
1.24914e-12
1.1848e-12
1.12069e-12
1.05744e-12
9.9564e-13
9.35851e-13
8.78604e-13
8.24396e-13
7.73679e-13
7.26868e-13
6.84335e-13
6.46409e-13
6.13376e-13
5.85481e-13
5.62924e-13
5.45867e-13
5.3443e-13
5.28691e-13
5.28691e-13
5.3443e-13
5.45867e-13
5.62924e-13
5.85481e-13
6.13376e-13
6.46409e-13
6.84335e-13
7.26868e-13
7.73679e-13
8.24396e-13
8.78604e-13
9.35851e-13
9.9564e-13
1.05744e-12
1.12069e-12
1.1848e-12
1.24914e-12
1.31309e-12
1.376e-12
1.43721e-12
1.49608e-12
1.55197e-12
1.60427e-12
1.65239e-12
1.6958e-12
1.73397e-12
1.76648e-12
1.79294e-12
1.81302e-12
1.82649e-12
1.83317e-12
1.83298e-12
1.8259e-12
1.81202e-12
1.79147e-12
1.76448e-12
1.73135e-12
1.69243e-12
1.64815e-12
1.59897e-12
1.5454e-12
1.48799e-12
1.4273e-12
1.36391e-12
1.29842e-12
1.2314e-12
1.16344e-12
1.09507e-12
1.02682e-12
9.59196e-13
8.92638e-13
8.27559e-13
7.64328e-13
7.0326e-13
6.44628e-13
5.88651e-13
5.35505e-13
4.85316e-13
4.3817e-13
3.9411e-13
3.5314e-13
3.15235e-13
2.80335e-13
2.48357e-13
2.19195e-13
1.92727e-13
1.68815e-13
1.47311e-13
1.2806e-13
1.10905e-13
9.56847e-14
8.22416e-14
7.04201e-14
6.007e-14
5.10476e-14
4.32164e-14
3.64484e-14
3.06242e-14
2.56334e-14
2.1375e-14
1.77566e-14
1.4695e-14
1.21154e-14
9.95088e-15
8.14219e-15
6.63708e-15
5.38975e-15
4.36031e-15
3.51416e-15
2.82152e-15
2.25683e-15
1.79834e-15
1.42758e-15
1.12898e-15
8.89466e-16
6.98115e-16
5.4586e-16
4.25199e-16
3.29958e-16
2.55083e-16
1.96454e-16
1.50729e-16
1.15209e-16
8.77274e-17
6.65486e-17
5.0292e-17
3.78631e-17
2.8398e-17
2.12186e-17
1.57944e-17
1.17123e-17
8.65249e-18
6.36788e-18
4.66879e-18
3.41013e-18
2.48138e-18
1.79875e-18
1.29899e-18
9.3454e-19
6.698e-19
4.78243e-19
3.4018e-19
2.41059e-19
1.70175e-19
1.19681e-19
8.38512e-20
5.85262e-20
9.18248e-20
1.31559e-19
1.87774e-19
2.66997e-19
3.78211e-19
5.33726e-19
7.50341e-19
1.05088e-18
1.46625e-18
2.03806e-18
2.82216e-18
3.89317e-18
5.35033e-18
7.32512e-18
9.9909e-18
1.35754e-17
1.83761e-17
2.47806e-17
3.3291e-17
4.45552e-17
5.94054e-17
7.89059e-17
1.04412e-16
1.3764e-16
1.80758e-16
2.36486e-16
3.08227e-16
4.00213e-16
5.17688e-16
6.67117e-16
8.56429e-16
1.09531e-15
1.39553e-15
1.77132e-15
2.23981e-15
2.82152e-15
3.54086e-15
4.42683e-15
5.51355e-15
6.84112e-15
8.45627e-15
1.04133e-14
1.27747e-14
1.56125e-14
1.90085e-14
2.30558e-14
2.78593e-14
3.35363e-14
4.02177e-14
4.80479e-14
5.71858e-14
6.78045e-14
8.00912e-14
9.4247e-14
1.10486e-13
1.29033e-13
1.50125e-13
1.74004e-13
2.0092e-13
2.31123e-13
2.64862e-13
3.02379e-13
3.43907e-13
3.8966e-13
4.39832e-13
4.94588e-13
5.54061e-13
6.18339e-13
6.87469e-13
7.61439e-13
8.40182e-13
9.23566e-13
1.01139e-12
1.10338e-12
1.19919e-12
1.2984e-12
1.40051e-12
1.50493e-12
1.61104e-12
1.71811e-12
1.82538e-12
1.93201e-12
2.03716e-12
2.13991e-12
2.23936e-12
2.33458e-12
2.42466e-12
2.5087e-12
2.58587e-12
2.65535e-12
2.7164e-12
2.76839e-12
2.81073e-12
2.84297e-12
2.86476e-12
2.87586e-12
2.87616e-12
2.86567e-12
2.84454e-12
2.81303e-12
2.77153e-12
2.72052e-12
2.66062e-12
2.59253e-12
2.51702e-12
2.43497e-12
2.34727e-12
2.25491e-12
2.15888e-12
2.06018e-12
1.95985e-12
1.85889e-12
1.75831e-12
1.65908e-12
1.56211e-12
1.46831e-12
1.37849e-12
1.29344e-12
1.21387e-12
1.14042e-12
1.07369e-12
1.01419e-12
9.62359e-13
9.18591e-13
8.83201e-13
8.5644e-13
8.38495e-13
8.29491e-13
8.29491e-13
8.38495e-13
8.5644e-13
8.83201e-13
9.18591e-13
9.62359e-13
1.01419e-12
1.07369e-12
1.14042e-12
1.21387e-12
1.29344e-12
1.37849e-12
1.46831e-12
1.56211e-12
1.65908e-12
1.75831e-12
1.85889e-12
1.95985e-12
2.06018e-12
2.15888e-12