/*--------------------------------*- C++ -*----------------------------------*\
| =========                 |                                                 |
| \\      /  F ield         | OpenFOAM: The Open Source CFD Toolbox           |
|  \\    /   O peration     | Version:  v2012                                 |
|   \\  /    A nd           | Website:  www.openfoam.com                      |
|    \\/     M anipulation  |                                                 |
\*---------------------------------------------------------------------------*/
FoamFile
{
    version     2.0;
    format      ascii;
    class       volVectorField;
    location    "1.9";
    object      Psi;
}
// * * * * * * * * * * * * * * * * * * * * * * * * * * * * * * * * * * * * * //

dimensions      [0 2 -1 0 0 0 0];


internalField   nonuniform List<vector> 
65536
(
(0 0 8.61633e-06)
(0 0 2.58483e-05)
(0 0 4.30787e-05)
(0 0 6.03062e-05)
(0 0 7.75299e-05)
(0 0 9.47486e-05)
(0 0 0.000111961)
(0 0 0.000129166)
(0 0 0.000146363)
(0 0 0.00016355)
(0 0 0.000180727)
(0 0 0.000197891)
(0 0 0.000215042)
(0 0 0.000232178)
(0 0 0.000249298)
(0 0 0.000266402)
(0 0 0.000283486)
(0 0 0.000300551)
(0 0 0.000317593)
(0 0 0.000334614)
(0 0 0.000351609)
(0 0 0.000368578)
(0 0 0.00038552)
(0 0 0.000402433)
(0 0 0.000419314)
(0 0 0.000436162)
(0 0 0.000452976)
(0 0 0.000469754)
(0 0 0.000486492)
(0 0 0.000503191)
(0 0 0.000519847)
(0 0 0.000536458)
(0 0 0.000553023)
(0 0 0.000569539)
(0 0 0.000586003)
(0 0 0.000602414)
(0 0 0.000618769)
(0 0 0.000635066)
(0 0 0.000651302)
(0 0 0.000667475)
(0 0 0.000683581)
(0 0 0.000699619)
(0 0 0.000715585)
(0 0 0.000731477)
(0 0 0.000747291)
(0 0 0.000763026)
(0 0 0.000778677)
(0 0 0.000794242)
(0 0 0.000809718)
(0 0 0.000825101)
(0 0 0.000840389)
(0 0 0.000855578)
(0 0 0.000870665)
(0 0 0.000885646)
(0 0 0.000900519)
(0 0 0.000915279)
(0 0 0.000929923)
(0 0 0.000944449)
(0 0 0.000958851)
(0 0 0.000973127)
(0 0 0.000987273)
(0 0 0.00100129)
(0 0 0.00101516)
(0 0 0.0010289)
(0 0 0.00104249)
(0 0 0.00105593)
(0 0 0.00106922)
(0 0 0.00108235)
(0 0 0.00109533)
(0 0 0.00110814)
(0 0 0.00112079)
(0 0 0.00113327)
(0 0 0.00114557)
(0 0 0.0011577)
(0 0 0.00116964)
(0 0 0.00118141)
(0 0 0.00119298)
(0 0 0.00120436)
(0 0 0.00121555)
(0 0 0.00122654)
(0 0 0.00123733)
(0 0 0.00124791)
(0 0 0.00125829)
(0 0 0.00126846)
(0 0 0.00127841)
(0 0 0.00128814)
(0 0 0.00129766)
(0 0 0.00130695)
(0 0 0.00131602)
(0 0 0.00132486)
(0 0 0.00133347)
(0 0 0.00134184)
(0 0 0.00134999)
(0 0 0.00135789)
(0 0 0.00136555)
(0 0 0.00137297)
(0 0 0.00138015)
(0 0 0.00138708)
(0 0 0.00139377)
(0 0 0.0014002)
(0 0 0.00140639)
(0 0 0.00141232)
(0 0 0.00141799)
(0 0 0.00142342)
(0 0 0.00142858)
(0 0 0.00143349)
(0 0 0.00143814)
(0 0 0.00144253)
(0 0 0.00144666)
(0 0 0.00145054)
(0 0 0.00145415)
(0 0 0.0014575)
(0 0 0.00146058)
(0 0 0.00146341)
(0 0 0.00146597)
(0 0 0.00146827)
(0 0 0.00147031)
(0 0 0.00147209)
(0 0 0.00147361)
(0 0 0.00147486)
(0 0 0.00147586)
(0 0 0.00147659)
(0 0 0.00147707)
(0 0 0.00147728)
(0 0 0.00147724)
(0 0 0.00147694)
(0 0 0.00147638)
(0 0 0.00147557)
(0 0 0.00147451)
(0 0 0.00147319)
(0 0 0.00147162)
(0 0 0.0014698)
(0 0 0.00146773)
(0 0 0.00146541)
(0 0 0.00146285)
(0 0 0.00146004)
(0 0 0.00145698)
(0 0 0.00145369)
(0 0 0.00145016)
(0 0 0.00144638)
(0 0 0.00144237)
(0 0 0.00143813)
(0 0 0.00143365)
(0 0 0.00142894)
(0 0 0.00142401)
(0 0 0.00141884)
(0 0 0.00141345)
(0 0 0.00140784)
(0 0 0.001402)
(0 0 0.00139595)
(0 0 0.00138968)
(0 0 0.00138319)
(0 0 0.0013765)
(0 0 0.00136959)
(0 0 0.00136247)
(0 0 0.00135515)
(0 0 0.00134763)
(0 0 0.0013399)
(0 0 0.00133198)
(0 0 0.00132386)
(0 0 0.00131554)
(0 0 0.00130704)
(0 0 0.00129834)
(0 0 0.00128946)
(0 0 0.00128039)
(0 0 0.00127115)
(0 0 0.00126172)
(0 0 0.00125212)
(0 0 0.00124234)
(0 0 0.00123239)
(0 0 0.00122228)
(0 0 0.00121199)
(0 0 0.00120155)
(0 0 0.00119094)
(0 0 0.00118018)
(0 0 0.00116926)
(0 0 0.00115818)
(0 0 0.00114696)
(0 0 0.00113559)
(0 0 0.00112408)
(0 0 0.00111242)
(0 0 0.00110062)
(0 0 0.00108869)
(0 0 0.00107662)
(0 0 0.00106442)
(0 0 0.0010521)
(0 0 0.00103964)
(0 0 0.00102707)
(0 0 0.00101437)
(0 0 0.00100156)
(0 0 0.000988628)
(0 0 0.000975585)
(0 0 0.000962433)
(0 0 0.000949174)
(0 0 0.000935809)
(0 0 0.000922343)
(0 0 0.000908777)
(0 0 0.000895114)
(0 0 0.000881356)
(0 0 0.000867507)
(0 0 0.000853568)
(0 0 0.000839541)
(0 0 0.00082543)
(0 0 0.000811237)
(0 0 0.000796964)
(0 0 0.000782613)
(0 0 0.000768187)
(0 0 0.000753688)
(0 0 0.000739119)
(0 0 0.00072448)
(0 0 0.000709776)
(0 0 0.000695007)
(0 0 0.000680176)
(0 0 0.000665285)
(0 0 0.000650336)
(0 0 0.000635331)
(0 0 0.000620272)
(0 0 0.000605161)
(0 0 0.00059)
(0 0 0.000574791)
(0 0 0.000559535)
(0 0 0.000544235)
(0 0 0.000528891)
(0 0 0.000513506)
(0 0 0.000498082)
(0 0 0.00048262)
(0 0 0.000467122)
(0 0 0.000451588)
(0 0 0.000436022)
(0 0 0.000420424)
(0 0 0.000404796)
(0 0 0.000389139)
(0 0 0.000373454)
(0 0 0.000357744)
(0 0 0.000342009)
(0 0 0.00032625)
(0 0 0.00031047)
(0 0 0.000294669)
(0 0 0.000278848)
(0 0 0.000263009)
(0 0 0.000247153)
(0 0 0.00023128)
(0 0 0.000215393)
(0 0 0.000199492)
(0 0 0.000183579)
(0 0 0.000167653)
(0 0 0.000151718)
(0 0 0.000135773)
(0 0 0.000119819)
(0 0 0.000103858)
(0 0 8.78906e-05)
(0 0 7.19178e-05)
(0 0 5.59406e-05)
(0 0 3.996e-05)
(0 0 2.3977e-05)
(0 0 7.99248e-06)
(0 0 2.58493e-05)
(0 0 7.75463e-05)
(0 0 0.000129238)
(0 0 0.000180922)
(0 0 0.000232594)
(0 0 0.000284251)
(0 0 0.00033589)
(0 0 0.000387507)
(0 0 0.000439098)
(0 0 0.000490661)
(0 0 0.000542191)
(0 0 0.000593684)
(0 0 0.000645138)
(0 0 0.000696548)
(0 0 0.000747911)
(0 0 0.000799221)
(0 0 0.000850476)
(0 0 0.000901671)
(0 0 0.000952801)
(0 0 0.00100386)
(0 0 0.00105485)
(0 0 0.00110576)
(0 0 0.00115659)
(0 0 0.00120733)
(0 0 0.00125797)
(0 0 0.00130852)
(0 0 0.00135896)
(0 0 0.0014093)
(0 0 0.00145951)
(0 0 0.00150961)
(0 0 0.00155958)
(0 0 0.00160942)
(0 0 0.00165911)
(0 0 0.00170866)
(0 0 0.00175806)
(0 0 0.0018073)
(0 0 0.00185636)
(0 0 0.00190526)
(0 0 0.00195397)
(0 0 0.00200249)
(0 0 0.00205081)
(0 0 0.00209892)
(0 0 0.00214682)
(0 0 0.0021945)
(0 0 0.00224195)
(0 0 0.00228916)
(0 0 0.00233611)
(0 0 0.00238281)
(0 0 0.00242924)
(0 0 0.0024754)
(0 0 0.00252126)
(0 0 0.00256683)
(0 0 0.0026121)
(0 0 0.00265704)
(0 0 0.00270166)
(0 0 0.00274595)
(0 0 0.00278988)
(0 0 0.00283346)
(0 0 0.00287667)
(0 0 0.00291951)
(0 0 0.00296195)
(0 0 0.00300399)
(0 0 0.00304562)
(0 0 0.00308683)
(0 0 0.0031276)
(0 0 0.00316793)
(0 0 0.00320781)
(0 0 0.00324722)
(0 0 0.00328615)
(0 0 0.00332459)
(0 0 0.00336254)
(0 0 0.00339997)
(0 0 0.00343689)
(0 0 0.00347327)
(0 0 0.00350911)
(0 0 0.0035444)
(0 0 0.00357912)
(0 0 0.00361327)
(0 0 0.00364684)
(0 0 0.00367982)
(0 0 0.00371219)
(0 0 0.00374394)
(0 0 0.00377507)
(0 0 0.00380558)
(0 0 0.00383543)
(0 0 0.00386464)
(0 0 0.00389319)
(0 0 0.00392108)
(0 0 0.00394828)
(0 0 0.0039748)
(0 0 0.00400063)
(0 0 0.00402577)
(0 0 0.00405019)
(0 0 0.0040739)
(0 0 0.0040969)
(0 0 0.00411916)
(0 0 0.0041407)
(0 0 0.00416149)
(0 0 0.00418155)
(0 0 0.00420085)
(0 0 0.0042194)
(0 0 0.0042372)
(0 0 0.00425423)
(0 0 0.0042705)
(0 0 0.004286)
(0 0 0.00430073)
(0 0 0.00431468)
(0 0 0.00432786)
(0 0 0.00434025)
(0 0 0.00435187)
(0 0 0.0043627)
(0 0 0.00437274)
(0 0 0.00438201)
(0 0 0.00439048)
(0 0 0.00439817)
(0 0 0.00440508)
(0 0 0.0044112)
(0 0 0.00441653)
(0 0 0.00442108)
(0 0 0.00442484)
(0 0 0.00442783)
(0 0 0.00443003)
(0 0 0.00443145)
(0 0 0.0044321)
(0 0 0.00443197)
(0 0 0.00443107)
(0 0 0.0044294)
(0 0 0.00442697)
(0 0 0.00442377)
(0 0 0.00441982)
(0 0 0.00441511)
(0 0 0.00440964)
(0 0 0.00440343)
(0 0 0.00439648)
(0 0 0.00438878)
(0 0 0.00438035)
(0 0 0.00437119)
(0 0 0.00436131)
(0 0 0.0043507)
(0 0 0.00433938)
(0 0 0.00432735)
(0 0 0.00431462)
(0 0 0.00430118)
(0 0 0.00428706)
(0 0 0.00427224)
(0 0 0.00425675)
(0 0 0.00424057)
(0 0 0.00422373)
(0 0 0.00420623)
(0 0 0.00418807)
(0 0 0.00416925)
(0 0 0.0041498)
(0 0 0.0041297)
(0 0 0.00410898)
(0 0 0.00408763)
(0 0 0.00406566)
(0 0 0.00404309)
(0 0 0.00401991)
(0 0 0.00399613)
(0 0 0.00397177)
(0 0 0.00394682)
(0 0 0.0039213)
(0 0 0.00389521)
(0 0 0.00386856)
(0 0 0.00384136)
(0 0 0.00381362)
(0 0 0.00378534)
(0 0 0.00375653)
(0 0 0.0037272)
(0 0 0.00369735)
(0 0 0.003667)
(0 0 0.00363615)
(0 0 0.00360481)
(0 0 0.00357299)
(0 0 0.00354069)
(0 0 0.00350793)
(0 0 0.00347471)
(0 0 0.00344103)
(0 0 0.00340692)
(0 0 0.00337237)
(0 0 0.0033374)
(0 0 0.00330201)
(0 0 0.0032662)
(0 0 0.00323)
(0 0 0.0031934)
(0 0 0.00315642)
(0 0 0.00311906)
(0 0 0.00308133)
(0 0 0.00304324)
(0 0 0.00300479)
(0 0 0.002966)
(0 0 0.00292687)
(0 0 0.00288741)
(0 0 0.00284763)
(0 0 0.00280753)
(0 0 0.00276713)
(0 0 0.00272643)
(0 0 0.00268544)
(0 0 0.00264416)
(0 0 0.00260261)
(0 0 0.00256079)
(0 0 0.00251871)
(0 0 0.00247638)
(0 0 0.00243379)
(0 0 0.00239097)
(0 0 0.00234792)
(0 0 0.00230464)
(0 0 0.00226114)
(0 0 0.00221743)
(0 0 0.00217351)
(0 0 0.00212939)
(0 0 0.00208509)
(0 0 0.00204059)
(0 0 0.00199592)
(0 0 0.00195107)
(0 0 0.00190605)
(0 0 0.00186087)
(0 0 0.00181554)
(0 0 0.00177005)
(0 0 0.00172442)
(0 0 0.00167865)
(0 0 0.00163275)
(0 0 0.00158672)
(0 0 0.00154056)
(0 0 0.00149429)
(0 0 0.0014479)
(0 0 0.0014014)
(0 0 0.0013548)
(0 0 0.0013081)
(0 0 0.0012613)
(0 0 0.00121442)
(0 0 0.00116745)
(0 0 0.00112039)
(0 0 0.00107326)
(0 0 0.00102605)
(0 0 0.000978775)
(0 0 0.000931432)
(0 0 0.000884027)
(0 0 0.000836564)
(0 0 0.000789045)
(0 0 0.000741475)
(0 0 0.000693857)
(0 0 0.000646194)
(0 0 0.00059849)
(0 0 0.000550748)
(0 0 0.000502971)
(0 0 0.000455163)
(0 0 0.000407327)
(0 0 0.000359465)
(0 0 0.000311581)
(0 0 0.000263677)
(0 0 0.000215758)
(0 0 0.000167825)
(0 0 0.000119883)
(0 0 7.19324e-05)
(0 0 2.3978e-05)
(0 0 4.30841e-05)
(0 0 0.000129249)
(0 0 0.000215406)
(0 0 0.00030155)
(0 0 0.000387673)
(0 0 0.000473772)
(0 0 0.00055984)
(0 0 0.000645872)
(0 0 0.000731862)
(0 0 0.000817803)
(0 0 0.000903691)
(0 0 0.000989518)
(0 0 0.00107528)
(0 0 0.00116097)
(0 0 0.00124657)
(0 0 0.0013321)
(0 0 0.00141753)
(0 0 0.00150286)
(0 0 0.00158808)
(0 0 0.00167319)
(0 0 0.00175817)
(0 0 0.00184303)
(0 0 0.00192774)
(0 0 0.00201231)
(0 0 0.00209673)
(0 0 0.00218098)
(0 0 0.00226506)
(0 0 0.00234895)
(0 0 0.00243266)
(0 0 0.00251616)
(0 0 0.00259945)
(0 0 0.00268252)
(0 0 0.00276535)
(0 0 0.00284794)
(0 0 0.00293028)
(0 0 0.00301234)
(0 0 0.00309413)
(0 0 0.00317563)
(0 0 0.00325682)
(0 0 0.0033377)
(0 0 0.00341824)
(0 0 0.00349844)
(0 0 0.00357829)
(0 0 0.00365776)
(0 0 0.00373685)
(0 0 0.00381554)
(0 0 0.00389381)
(0 0 0.00397165)
(0 0 0.00404904)
(0 0 0.00412598)
(0 0 0.00420243)
(0 0 0.00427839)
(0 0 0.00435384)
(0 0 0.00442877)
(0 0 0.00450315)
(0 0 0.00457696)
(0 0 0.0046502)
(0 0 0.00472285)
(0 0 0.00479488)
(0 0 0.00486628)
(0 0 0.00493703)
(0 0 0.00500711)
(0 0 0.0050765)
(0 0 0.00514519)
(0 0 0.00521317)
(0 0 0.0052804)
(0 0 0.00534687)
(0 0 0.00541256)
(0 0 0.00547746)
(0 0 0.00554154)
(0 0 0.0056048)
(0 0 0.0056672)
(0 0 0.00572874)
(0 0 0.00578939)
(0 0 0.00584913)
(0 0 0.00590796)
(0 0 0.00596584)
(0 0 0.00602277)
(0 0 0.00607873)
(0 0 0.0061337)
(0 0 0.00618766)
(0 0 0.00624059)
(0 0 0.00629249)
(0 0 0.00634334)
(0 0 0.00639311)
(0 0 0.0064418)
(0 0 0.0064894)
(0 0 0.00653588)
(0 0 0.00658123)
(0 0 0.00662544)
(0 0 0.0066685)
(0 0 0.00671039)
(0 0 0.00675111)
(0 0 0.00679064)
(0 0 0.00682897)
(0 0 0.00686608)
(0 0 0.00690198)
(0 0 0.00693665)
(0 0 0.00697007)
(0 0 0.00700226)
(0 0 0.00703318)
(0 0 0.00706284)
(0 0 0.00709124)
(0 0 0.00711835)
(0 0 0.00714419)
(0 0 0.00716874)
(0 0 0.007192)
(0 0 0.00721396)
(0 0 0.00723462)
(0 0 0.00725398)
(0 0 0.00727203)
(0 0 0.00728878)
(0 0 0.00730422)
(0 0 0.00731835)
(0 0 0.00733116)
(0 0 0.00734267)
(0 0 0.00735287)
(0 0 0.00736175)
(0 0 0.00736933)
(0 0 0.00737561)
(0 0 0.00738058)
(0 0 0.00738425)
(0 0 0.00738662)
(0 0 0.00738769)
(0 0 0.00738748)
(0 0 0.00738598)
(0 0 0.00738319)
(0 0 0.00737913)
(0 0 0.0073738)
(0 0 0.0073672)
(0 0 0.00735935)
(0 0 0.00735024)
(0 0 0.00733988)
(0 0 0.00732828)
(0 0 0.00731545)
(0 0 0.0073014)
(0 0 0.00728613)
(0 0 0.00726965)
(0 0 0.00725197)
(0 0 0.00723309)
(0 0 0.00721304)
(0 0 0.00719181)
(0 0 0.00716941)
(0 0 0.00714586)
(0 0 0.00712116)
(0 0 0.00709533)
(0 0 0.00706837)
(0 0 0.00704029)
(0 0 0.00701111)
(0 0 0.00698083)
(0 0 0.00694947)
(0 0 0.00691704)
(0 0 0.00688354)
(0 0 0.00684899)
(0 0 0.0068134)
(0 0 0.00677678)
(0 0 0.00673915)
(0 0 0.00670051)
(0 0 0.00666087)
(0 0 0.00662026)
(0 0 0.00657867)
(0 0 0.00653613)
(0 0 0.00649264)
(0 0 0.00644822)
(0 0 0.00640288)
(0 0 0.00635663)
(0 0 0.00630948)
(0 0 0.00626146)
(0 0 0.00621256)
(0 0 0.00616281)
(0 0 0.00611222)
(0 0 0.00606079)
(0 0 0.00600855)
(0 0 0.00595551)
(0 0 0.00590167)
(0 0 0.00584706)
(0 0 0.00579168)
(0 0 0.00573555)
(0 0 0.00567868)
(0 0 0.0056211)
(0 0 0.0055628)
(0 0 0.0055038)
(0 0 0.00544412)
(0 0 0.00538377)
(0 0 0.00532277)
(0 0 0.00526112)
(0 0 0.00519884)
(0 0 0.00513595)
(0 0 0.00507245)
(0 0 0.00500837)
(0 0 0.00494371)
(0 0 0.00487848)
(0 0 0.00481271)
(0 0 0.0047464)
(0 0 0.00467956)
(0 0 0.00461222)
(0 0 0.00454438)
(0 0 0.00447605)
(0 0 0.00440725)
(0 0 0.00433799)
(0 0 0.00426828)
(0 0 0.00419814)
(0 0 0.00412757)
(0 0 0.00405659)
(0 0 0.00398521)
(0 0 0.00391345)
(0 0 0.00384131)
(0 0 0.0037688)
(0 0 0.00369594)
(0 0 0.00362274)
(0 0 0.0035492)
(0 0 0.00347535)
(0 0 0.00340118)
(0 0 0.00332672)
(0 0 0.00325197)
(0 0 0.00317693)
(0 0 0.00310163)
(0 0 0.00302606)
(0 0 0.00295025)
(0 0 0.00287419)
(0 0 0.0027979)
(0 0 0.00272139)
(0 0 0.00264467)
(0 0 0.00256773)
(0 0 0.0024906)
(0 0 0.00241329)
(0 0 0.00233579)
(0 0 0.00225811)
(0 0 0.00218027)
(0 0 0.00210227)
(0 0 0.00202413)
(0 0 0.00194583)
(0 0 0.0018674)
(0 0 0.00178885)
(0 0 0.00171016)
(0 0 0.00163137)
(0 0 0.00155246)
(0 0 0.00147344)
(0 0 0.00139433)
(0 0 0.00131513)
(0 0 0.00123584)
(0 0 0.00115648)
(0 0 0.00107704)
(0 0 0.000997526)
(0 0 0.000917952)
(0 0 0.000838321)
(0 0 0.000758637)
(0 0 0.000678906)
(0 0 0.000599133)
(0 0 0.000519323)
(0 0 0.00043948)
(0 0 0.000359611)
(0 0 0.00027972)
(0 0 0.000199812)
(0 0 0.000119892)
(0 0 3.99649e-05)
(0 0 6.03215e-05)
(0 0 0.000180961)
(0 0 0.000301588)
(0 0 0.000422197)
(0 0 0.000542778)
(0 0 0.000663324)
(0 0 0.000783828)
(0 0 0.00090428)
(0 0 0.00102467)
(0 0 0.001145)
(0 0 0.00126525)
(0 0 0.00138542)
(0 0 0.00150549)
(0 0 0.00162546)
(0 0 0.00174533)
(0 0 0.00186507)
(0 0 0.00198468)
(0 0 0.00210415)
(0 0 0.00222347)
(0 0 0.00234263)
(0 0 0.00246162)
(0 0 0.00258043)
(0 0 0.00269905)
(0 0 0.00281746)
(0 0 0.00293565)
(0 0 0.00305361)
(0 0 0.00317134)
(0 0 0.00328881)
(0 0 0.003406)
(0 0 0.00352292)
(0 0 0.00363954)
(0 0 0.00375585)
(0 0 0.00387184)
(0 0 0.00398748)
(0 0 0.00410276)
(0 0 0.00421767)
(0 0 0.00433219)
(0 0 0.00444631)
(0 0 0.00455999)
(0 0 0.00467324)
(0 0 0.00478602)
(0 0 0.00489832)
(0 0 0.00501012)
(0 0 0.00512141)
(0 0 0.00523215)
(0 0 0.00534233)
(0 0 0.00545193)
(0 0 0.00556093)
(0 0 0.00566931)
(0 0 0.00577704)
(0 0 0.0058841)
(0 0 0.00599047)
(0 0 0.00609612)
(0 0 0.00620104)
(0 0 0.00630519)
(0 0 0.00640856)
(0 0 0.00651112)
(0 0 0.00661285)
(0 0 0.00671371)
(0 0 0.0068137)
(0 0 0.00691277)
(0 0 0.00701091)
(0 0 0.00710809)
(0 0 0.00720428)
(0 0 0.00729947)
(0 0 0.00739362)
(0 0 0.0074867)
(0 0 0.0075787)
(0 0 0.00766958)
(0 0 0.00775933)
(0 0 0.00784791)
(0 0 0.0079353)
(0 0 0.00802147)
(0 0 0.00810641)
(0 0 0.00819008)
(0 0 0.00827246)
(0 0 0.00835352)
(0 0 0.00843324)
(0 0 0.00851161)
(0 0 0.00858858)
(0 0 0.00866415)
(0 0 0.00873829)
(0 0 0.00881097)
(0 0 0.00888217)
(0 0 0.00895188)
(0 0 0.00902006)
(0 0 0.00908671)
(0 0 0.0091518)
(0 0 0.00921532)
(0 0 0.00927723)
(0 0 0.00933753)
(0 0 0.0093962)
(0 0 0.00945322)
(0 0 0.00950857)
(0 0 0.00956225)
(0 0 0.00961423)
(0 0 0.00966449)
(0 0 0.00971304)
(0 0 0.00975985)
(0 0 0.00980492)
(0 0 0.00984822)
(0 0 0.00988976)
(0 0 0.00992952)
(0 0 0.00996749)
(0 0 0.0100037)
(0 0 0.010038)
(0 0 0.0100706)
(0 0 0.0101014)
(0 0 0.0101303)
(0 0 0.0101574)
(0 0 0.0101827)
(0 0 0.0102061)
(0 0 0.0102277)
(0 0 0.0102475)
(0 0 0.0102655)
(0 0 0.0102816)
(0 0 0.0102958)
(0 0 0.0103083)
(0 0 0.0103189)
(0 0 0.0103277)
(0 0 0.0103346)
(0 0 0.0103398)
(0 0 0.0103431)
(0 0 0.0103446)
(0 0 0.0103443)
(0 0 0.0103422)
(0 0 0.0103383)
(0 0 0.0103326)
(0 0 0.0103251)
(0 0 0.0103158)
(0 0 0.0103048)
(0 0 0.0102921)
(0 0 0.0102776)
(0 0 0.0102613)
(0 0 0.0102433)
(0 0 0.0102237)
(0 0 0.0102023)
(0 0 0.0101792)
(0 0 0.0101544)
(0 0 0.010128)
(0 0 0.0100999)
(0 0 0.0100702)
(0 0 0.0100388)
(0 0 0.0100058)
(0 0 0.00997122)
(0 0 0.00993504)
(0 0 0.00989728)
(0 0 0.00985796)
(0 0 0.00981709)
(0 0 0.00977469)
(0 0 0.00973076)
(0 0 0.00968534)
(0 0 0.00963843)
(0 0 0.00959004)
(0 0 0.0095402)
(0 0 0.00948892)
(0 0 0.00943621)
(0 0 0.0093821)
(0 0 0.0093266)
(0 0 0.00926972)
(0 0 0.00921148)
(0 0 0.0091519)
(0 0 0.009091)
(0 0 0.00902879)
(0 0 0.0089653)
(0 0 0.00890053)
(0 0 0.00883451)
(0 0 0.00876726)
(0 0 0.00869879)
(0 0 0.00862912)
(0 0 0.00855827)
(0 0 0.00848625)
(0 0 0.0084131)
(0 0 0.00833881)
(0 0 0.00826342)
(0 0 0.00818695)
(0 0 0.0081094)
(0 0 0.0080308)
(0 0 0.00795117)
(0 0 0.00787053)
(0 0 0.00778889)
(0 0 0.00770628)
(0 0 0.00762271)
(0 0 0.0075382)
(0 0 0.00745277)
(0 0 0.00736645)
(0 0 0.00727924)
(0 0 0.00719117)
(0 0 0.00710226)
(0 0 0.00701252)
(0 0 0.00692198)
(0 0 0.00683064)
(0 0 0.00673854)
(0 0 0.00664569)
(0 0 0.0065521)
(0 0 0.0064578)
(0 0 0.00636281)
(0 0 0.00626713)
(0 0 0.00617079)
(0 0 0.00607381)
(0 0 0.0059762)
(0 0 0.00587798)
(0 0 0.00577917)
(0 0 0.00567979)
(0 0 0.00557984)
(0 0 0.00547935)
(0 0 0.00537834)
(0 0 0.00527682)
(0 0 0.0051748)
(0 0 0.0050723)
(0 0 0.00496934)
(0 0 0.00486592)
(0 0 0.00476208)
(0 0 0.00465781)
(0 0 0.00455314)
(0 0 0.00444808)
(0 0 0.00434264)
(0 0 0.00423684)
(0 0 0.00413068)
(0 0 0.00402419)
(0 0 0.00391738)
(0 0 0.00381025)
(0 0 0.00370282)
(0 0 0.0035951)
(0 0 0.00348711)
(0 0 0.00337885)
(0 0 0.00327034)
(0 0 0.00316159)
(0 0 0.0030526)
(0 0 0.0029434)
(0 0 0.00283398)
(0 0 0.00272436)
(0 0 0.00261455)
(0 0 0.00250456)
(0 0 0.00239439)
(0 0 0.00228407)
(0 0 0.00217358)
(0 0 0.00206296)
(0 0 0.0019522)
(0 0 0.00184131)
(0 0 0.00173029)
(0 0 0.00161917)
(0 0 0.00150795)
(0 0 0.00139662)
(0 0 0.00128521)
(0 0 0.00117372)
(0 0 0.00106216)
(0 0 0.000950527)
(0 0 0.000838837)
(0 0 0.000727096)
(0 0 0.00061531)
(0 0 0.000503487)
(0 0 0.000391633)
(0 0 0.000279754)
(0 0 0.000167859)
(0 0 5.59543e-05)
(0 0 7.75629e-05)
(0 0 0.000232684)
(0 0 0.00038779)
(0 0 0.000542871)
(0 0 0.000697917)
(0 0 0.000852919)
(0 0 0.00100787)
(0 0 0.00116275)
(0 0 0.00131755)
(0 0 0.00147227)
(0 0 0.0016269)
(0 0 0.00178141)
(0 0 0.00193581)
(0 0 0.00209007)
(0 0 0.0022442)
(0 0 0.00239817)
(0 0 0.00255197)
(0 0 0.00270559)
(0 0 0.00285902)
(0 0 0.00301225)
(0 0 0.00316526)
(0 0 0.00331803)
(0 0 0.00347055)
(0 0 0.00362282)
(0 0 0.0037748)
(0 0 0.00392649)
(0 0 0.00407787)
(0 0 0.00422893)
(0 0 0.00437963)
(0 0 0.00452998)
(0 0 0.00467995)
(0 0 0.00482951)
(0 0 0.00497866)
(0 0 0.00512737)
(0 0 0.00527562)
(0 0 0.00542339)
(0 0 0.00557066)
(0 0 0.00571741)
(0 0 0.00586361)
(0 0 0.00600924)
(0 0 0.00615428)
(0 0 0.0062987)
(0 0 0.00644248)
(0 0 0.00658559)
(0 0 0.00672801)
(0 0 0.00686971)
(0 0 0.00701066)
(0 0 0.00715084)
(0 0 0.00729022)
(0 0 0.00742877)
(0 0 0.00756645)
(0 0 0.00770325)
(0 0 0.00783914)
(0 0 0.00797407)
(0 0 0.00810802)
(0 0 0.00824097)
(0 0 0.00837287)
(0 0 0.00850371)
(0 0 0.00863344)
(0 0 0.00876203)
(0 0 0.00888945)
(0 0 0.00901567)
(0 0 0.00914066)
(0 0 0.00926439)
(0 0 0.00938681)
(0 0 0.0095079)
(0 0 0.00962763)
(0 0 0.00974595)
(0 0 0.00986285)
(0 0 0.00997828)
(0 0 0.0100922)
(0 0 0.0102046)
(0 0 0.0103155)
(0 0 0.0104247)
(0 0 0.0105323)
(0 0 0.0106383)
(0 0 0.0107425)
(0 0 0.0108451)
(0 0 0.0109459)
(0 0 0.0110449)
(0 0 0.0111421)
(0 0 0.0112374)
(0 0 0.0113309)
(0 0 0.0114225)
(0 0 0.0115122)
(0 0 0.0115999)
(0 0 0.0116856)
(0 0 0.0117693)
(0 0 0.011851)
(0 0 0.0119306)
(0 0 0.0120082)
(0 0 0.0120837)
(0 0 0.012157)
(0 0 0.0122282)
(0 0 0.0122972)
(0 0 0.0123641)
(0 0 0.0124287)
(0 0 0.0124912)
(0 0 0.0125514)
(0 0 0.0126093)
(0 0 0.012665)
(0 0 0.0127185)
(0 0 0.0127696)
(0 0 0.0128184)
(0 0 0.012865)
(0 0 0.0129092)
(0 0 0.012951)
(0 0 0.0129906)
(0 0 0.0130278)
(0 0 0.0130626)
(0 0 0.0130952)
(0 0 0.0131253)
(0 0 0.0131531)
(0 0 0.0131785)
(0 0 0.0132016)
(0 0 0.0132223)
(0 0 0.0132407)
(0 0 0.0132567)
(0 0 0.0132703)
(0 0 0.0132816)
(0 0 0.0132905)
(0 0 0.0132971)
(0 0 0.0133013)
(0 0 0.0133033)
(0 0 0.0133029)
(0 0 0.0133001)
(0 0 0.0132951)
(0 0 0.0132878)
(0 0 0.0132782)
(0 0 0.0132663)
(0 0 0.0132521)
(0 0 0.0132357)
(0 0 0.013217)
(0 0 0.0131961)
(0 0 0.013173)
(0 0 0.0131476)
(0 0 0.0131201)
(0 0 0.0130904)
(0 0 0.0130585)
(0 0 0.0130245)
(0 0 0.0129884)
(0 0 0.0129501)
(0 0 0.0129098)
(0 0 0.0128674)
(0 0 0.0128229)
(0 0 0.0127763)
(0 0 0.0127278)
(0 0 0.0126772)
(0 0 0.0126246)
(0 0 0.0125701)
(0 0 0.0125136)
(0 0 0.0124551)
(0 0 0.0123948)
(0 0 0.0123326)
(0 0 0.0122684)
(0 0 0.0122025)
(0 0 0.0121347)
(0 0 0.0120651)
(0 0 0.0119937)
(0 0 0.0119205)
(0 0 0.0118456)
(0 0 0.011769)
(0 0 0.0116907)
(0 0 0.0116107)
(0 0 0.011529)
(0 0 0.0114457)
(0 0 0.0113608)
(0 0 0.0112743)
(0 0 0.0111862)
(0 0 0.0110966)
(0 0 0.0110055)
(0 0 0.0109129)
(0 0 0.0108188)
(0 0 0.0107232)
(0 0 0.0106263)
(0 0 0.0105279)
(0 0 0.0104282)
(0 0 0.0103271)
(0 0 0.0102247)
(0 0 0.010121)
(0 0 0.010016)
(0 0 0.00990971)
(0 0 0.00980223)
(0 0 0.00969355)
(0 0 0.00958368)
(0 0 0.00947266)
(0 0 0.0093605)
(0 0 0.00924724)
(0 0 0.00913289)
(0 0 0.00901748)
(0 0 0.00890103)
(0 0 0.00878357)
(0 0 0.00866513)
(0 0 0.00854571)
(0 0 0.00842536)
(0 0 0.00830408)
(0 0 0.00818191)
(0 0 0.00805887)
(0 0 0.00793498)
(0 0 0.00781026)
(0 0 0.00768473)
(0 0 0.00755842)
(0 0 0.00743135)
(0 0 0.00730354)
(0 0 0.00717501)
(0 0 0.00704579)
(0 0 0.00691588)
(0 0 0.00678532)
(0 0 0.00665413)
(0 0 0.00652232)
(0 0 0.00638991)
(0 0 0.00625693)
(0 0 0.00612339)
(0 0 0.00598931)
(0 0 0.00585471)
(0 0 0.00571961)
(0 0 0.00558402)
(0 0 0.00544796)
(0 0 0.00531146)
(0 0 0.00517452)
(0 0 0.00503716)
(0 0 0.00489941)
(0 0 0.00476126)
(0 0 0.00462275)
(0 0 0.00448388)
(0 0 0.00434467)
(0 0 0.00420514)
(0 0 0.0040653)
(0 0 0.00392515)
(0 0 0.00378473)
(0 0 0.00364403)
(0 0 0.00350307)
(0 0 0.00336187)
(0 0 0.00322044)
(0 0 0.00307878)
(0 0 0.00293692)
(0 0 0.00279486)
(0 0 0.00265261)
(0 0 0.00251019)
(0 0 0.0023676)
(0 0 0.00222486)
(0 0 0.00208197)
(0 0 0.00193895)
(0 0 0.00179581)
(0 0 0.00165256)
(0 0 0.0015092)
(0 0 0.00136574)
(0 0 0.00122221)
(0 0 0.00107859)
(0 0 0.000934915)
(0 0 0.000791178)
(0 0 0.000647393)
(0 0 0.000503568)
(0 0 0.000359713)
(0 0 0.000215837)
(0 0 7.1947e-05)
(0 0 9.48092e-05)
(0 0 0.000284422)
(0 0 0.000474016)
(0 0 0.00066358)
(0 0 0.000853102)
(0 0 0.00104257)
(0 0 0.00123197)
(0 0 0.00142129)
(0 0 0.00161052)
(0 0 0.00179964)
(0 0 0.00198865)
(0 0 0.00217753)
(0 0 0.00236626)
(0 0 0.00255483)
(0 0 0.00274322)
(0 0 0.00293143)
(0 0 0.00311944)
(0 0 0.00330723)
(0 0 0.00349478)
(0 0 0.00368209)
(0 0 0.00386912)
(0 0 0.00405588)
(0 0 0.00424233)
(0 0 0.00442846)
(0 0 0.00461425)
(0 0 0.00479968)
(0 0 0.00498474)
(0 0 0.00516939)
(0 0 0.00535363)
(0 0 0.00553742)
(0 0 0.00572075)
(0 0 0.0059036)
(0 0 0.00608593)
(0 0 0.00626773)
(0 0 0.00644897)
(0 0 0.00662962)
(0 0 0.00680966)
(0 0 0.00698906)
(0 0 0.0071678)
(0 0 0.00734584)
(0 0 0.00752316)
(0 0 0.00769973)
(0 0 0.00787551)
(0 0 0.00805047)
(0 0 0.0082246)
(0 0 0.00839784)
(0 0 0.00857017)
(0 0 0.00874156)
(0 0 0.00891196)
(0 0 0.00908136)
(0 0 0.0092497)
(0 0 0.00941696)
(0 0 0.0095831)
(0 0 0.00974808)
(0 0 0.00991187)
(0 0 0.0100744)
(0 0 0.0102357)
(0 0 0.0103957)
(0 0 0.0105543)
(0 0 0.0107115)
(0 0 0.0108673)
(0 0 0.0110217)
(0 0 0.0111745)
(0 0 0.0113258)
(0 0 0.0114755)
(0 0 0.0116236)
(0 0 0.01177)
(0 0 0.0119146)
(0 0 0.0120576)
(0 0 0.0121987)
(0 0 0.012338)
(0 0 0.0124755)
(0 0 0.012611)
(0 0 0.0127446)
(0 0 0.0128762)
(0 0 0.0130058)
(0 0 0.0131333)
(0 0 0.0132587)
(0 0 0.0133819)
(0 0 0.013503)
(0 0 0.0136219)
(0 0 0.0137385)
(0 0 0.0138528)
(0 0 0.0139648)
(0 0 0.0140744)
(0 0 0.0141816)
(0 0 0.0142865)
(0 0 0.0143889)
(0 0 0.0144887)
(0 0 0.0145861)
(0 0 0.014681)
(0 0 0.0147732)
(0 0 0.0148629)
(0 0 0.01495)
(0 0 0.0150344)
(0 0 0.0151161)
(0 0 0.0151952)
(0 0 0.0152715)
(0 0 0.0153452)
(0 0 0.015416)
(0 0 0.0154841)
(0 0 0.0155494)
(0 0 0.015612)
(0 0 0.0156717)
(0 0 0.0157286)
(0 0 0.0157826)
(0 0 0.0158338)
(0 0 0.0158822)
(0 0 0.0159276)
(0 0 0.0159702)
(0 0 0.01601)
(0 0 0.0160468)
(0 0 0.0160808)
(0 0 0.0161119)
(0 0 0.0161401)
(0 0 0.0161654)
(0 0 0.0161878)
(0 0 0.0162074)
(0 0 0.016224)
(0 0 0.0162378)
(0 0 0.0162487)
(0 0 0.0162568)
(0 0 0.016262)
(0 0 0.0162643)
(0 0 0.0162638)
(0 0 0.0162604)
(0 0 0.0162543)
(0 0 0.0162453)
(0 0 0.0162335)
(0 0 0.0162189)
(0 0 0.0162016)
(0 0 0.0161815)
(0 0 0.0161586)
(0 0 0.0161331)
(0 0 0.0161048)
(0 0 0.0160738)
(0 0 0.0160401)
(0 0 0.0160038)
(0 0 0.0159648)
(0 0 0.0159232)
(0 0 0.015879)
(0 0 0.0158322)
(0 0 0.0157829)
(0 0 0.015731)
(0 0 0.0156766)
(0 0 0.0156196)
(0 0 0.0155602)
(0 0 0.0154984)
(0 0 0.0154341)
(0 0 0.0153674)
(0 0 0.0152983)
(0 0 0.0152268)
(0 0 0.015153)
(0 0 0.0150769)
(0 0 0.0149985)
(0 0 0.0149179)
(0 0 0.014835)
(0 0 0.0147499)
(0 0 0.0146626)
(0 0 0.0145731)
(0 0 0.0144815)
(0 0 0.0143878)
(0 0 0.014292)
(0 0 0.0141942)
(0 0 0.0140943)
(0 0 0.0139925)
(0 0 0.0138886)
(0 0 0.0137829)
(0 0 0.0136752)
(0 0 0.0135656)
(0 0 0.0134542)
(0 0 0.0133409)
(0 0 0.0132259)
(0 0 0.0131091)
(0 0 0.0129905)
(0 0 0.0128702)
(0 0 0.0127483)
(0 0 0.0126247)
(0 0 0.0124995)
(0 0 0.0123727)
(0 0 0.0122443)
(0 0 0.0121144)
(0 0 0.011983)
(0 0 0.0118501)
(0 0 0.0117157)
(0 0 0.01158)
(0 0 0.0114429)
(0 0 0.0113044)
(0 0 0.0111646)
(0 0 0.0110235)
(0 0 0.0108811)
(0 0 0.0107375)
(0 0 0.0105927)
(0 0 0.0104467)
(0 0 0.0102995)
(0 0 0.0101513)
(0 0 0.0100019)
(0 0 0.00985146)
(0 0 0.00969999)
(0 0 0.00954751)
(0 0 0.00939404)
(0 0 0.00923962)
(0 0 0.00908427)
(0 0 0.00892801)
(0 0 0.00877088)
(0 0 0.00861289)
(0 0 0.00845408)
(0 0 0.00829447)
(0 0 0.00813408)
(0 0 0.00797294)
(0 0 0.00781107)
(0 0 0.0076485)
(0 0 0.00748524)
(0 0 0.00732133)
(0 0 0.00715678)
(0 0 0.00699162)
(0 0 0.00682586)
(0 0 0.00665954)
(0 0 0.00649267)
(0 0 0.00632526)
(0 0 0.00615735)
(0 0 0.00598895)
(0 0 0.00582007)
(0 0 0.00565075)
(0 0 0.00548099)
(0 0 0.00531082)
(0 0 0.00514025)
(0 0 0.0049693)
(0 0 0.00479799)
(0 0 0.00462633)
(0 0 0.00445434)
(0 0 0.00428203)
(0 0 0.00410943)
(0 0 0.00393654)
(0 0 0.00376338)
(0 0 0.00358997)
(0 0 0.00341632)
(0 0 0.00324243)
(0 0 0.00306834)
(0 0 0.00289404)
(0 0 0.00271956)
(0 0 0.0025449)
(0 0 0.00237008)
(0 0 0.00219511)
(0 0 0.00202)
(0 0 0.00184477)
(0 0 0.00166942)
(0 0 0.00149396)
(0 0 0.00131842)
(0 0 0.00114279)
(0 0 0.000967094)
(0 0 0.000791338)
(0 0 0.000615535)
(0 0 0.000439694)
(0 0 0.000263827)
(0 0 8.79441e-05)
(0 0 0.000112062)
(0 0 0.000336178)
(0 0 0.000560272)
(0 0 0.000784332)
(0 0 0.00100834)
(0 0 0.00123229)
(0 0 0.00145615)
(0 0 0.00167993)
(0 0 0.00190359)
(0 0 0.00212713)
(0 0 0.00235054)
(0 0 0.00257378)
(0 0 0.00279686)
(0 0 0.00301975)
(0 0 0.00324244)
(0 0 0.0034649)
(0 0 0.00368713)
(0 0 0.0039091)
(0 0 0.00413079)
(0 0 0.00435219)
(0 0 0.00457328)
(0 0 0.00479403)
(0 0 0.00501442)
(0 0 0.00523444)
(0 0 0.00545405)
(0 0 0.00567325)
(0 0 0.005892)
(0 0 0.00611028)
(0 0 0.00632806)
(0 0 0.00654533)
(0 0 0.00676205)
(0 0 0.00697819)
(0 0 0.00719373)
(0 0 0.00740864)
(0 0 0.00762289)
(0 0 0.00783645)
(0 0 0.0080493)
(0 0 0.00826138)
(0 0 0.00847268)
(0 0 0.00868316)
(0 0 0.00889279)
(0 0 0.00910153)
(0 0 0.00930935)
(0 0 0.0095162)
(0 0 0.00972206)
(0 0 0.00992688)
(0 0 0.0101306)
(0 0 0.0103333)
(0 0 0.0105347)
(0 0 0.010735)
(0 0 0.010934)
(0 0 0.0111318)
(0 0 0.0113282)
(0 0 0.0115233)
(0 0 0.0117169)
(0 0 0.0119091)
(0 0 0.0120998)
(0 0 0.012289)
(0 0 0.0124765)
(0 0 0.0126625)
(0 0 0.0128467)
(0 0 0.0130292)
(0 0 0.0132099)
(0 0 0.0133888)
(0 0 0.0135658)
(0 0 0.0137409)
(0 0 0.013914)
(0 0 0.0140851)
(0 0 0.0142541)
(0 0 0.014421)
(0 0 0.0145858)
(0 0 0.0147483)
(0 0 0.0149086)
(0 0 0.0150665)
(0 0 0.0152221)
(0 0 0.0153754)
(0 0 0.0155261)
(0 0 0.0156744)
(0 0 0.0158202)
(0 0 0.0159633)
(0 0 0.0161039)
(0 0 0.0162418)
(0 0 0.0163769)
(0 0 0.0165094)
(0 0 0.016639)
(0 0 0.0167659)
(0 0 0.0168898)
(0 0 0.0170109)
(0 0 0.017129)
(0 0 0.0172442)
(0 0 0.0173563)
(0 0 0.0174654)
(0 0 0.0175715)
(0 0 0.0176744)
(0 0 0.0177742)
(0 0 0.0178709)
(0 0 0.0179644)
(0 0 0.0180546)
(0 0 0.0181417)
(0 0 0.0182255)
(0 0 0.018306)
(0 0 0.0183832)
(0 0 0.0184571)
(0 0 0.0185277)
(0 0 0.018595)
(0 0 0.0186589)
(0 0 0.0187194)
(0 0 0.0187766)
(0 0 0.0188304)
(0 0 0.0188807)
(0 0 0.0189277)
(0 0 0.0189713)
(0 0 0.0190114)
(0 0 0.0190482)
(0 0 0.0190815)
(0 0 0.0191114)
(0 0 0.0191379)
(0 0 0.019161)
(0 0 0.0191807)
(0 0 0.0191969)
(0 0 0.0192098)
(0 0 0.0192193)
(0 0 0.0192254)
(0 0 0.0192282)
(0 0 0.0192275)
(0 0 0.0192235)
(0 0 0.0192162)
(0 0 0.0192056)
(0 0 0.0191916)
(0 0 0.0191744)
(0 0 0.0191539)
(0 0 0.0191301)
(0 0 0.019103)
(0 0 0.0190728)
(0 0 0.0190393)
(0 0 0.0190026)
(0 0 0.0189628)
(0 0 0.0189198)
(0 0 0.0188737)
(0 0 0.0188245)
(0 0 0.0187722)
(0 0 0.0187169)
(0 0 0.0186585)
(0 0 0.0185971)
(0 0 0.0185328)
(0 0 0.0184654)
(0 0 0.0183952)
(0 0 0.018322)
(0 0 0.018246)
(0 0 0.0181671)
(0 0 0.0180854)
(0 0 0.0180009)
(0 0 0.0179136)
(0 0 0.0178236)
(0 0 0.0177309)
(0 0 0.0176355)
(0 0 0.0175375)
(0 0 0.0174368)
(0 0 0.0173336)
(0 0 0.0172278)
(0 0 0.0171195)
(0 0 0.0170087)
(0 0 0.0168954)
(0 0 0.0167797)
(0 0 0.0166616)
(0 0 0.0165412)
(0 0 0.0164184)
(0 0 0.0162934)
(0 0 0.016166)
(0 0 0.0160365)
(0 0 0.0159047)
(0 0 0.0157708)
(0 0 0.0156348)
(0 0 0.0154966)
(0 0 0.0153565)
(0 0 0.0152143)
(0 0 0.0150701)
(0 0 0.0149239)
(0 0 0.0147759)
(0 0 0.0146259)
(0 0 0.0144741)
(0 0 0.0143205)
(0 0 0.0141652)
(0 0 0.014008)
(0 0 0.0138492)
(0 0 0.0136887)
(0 0 0.0135266)
(0 0 0.0133629)
(0 0 0.0131976)
(0 0 0.0130307)
(0 0 0.0128624)
(0 0 0.0126926)
(0 0 0.0125214)
(0 0 0.0123488)
(0 0 0.0121748)
(0 0 0.0119995)
(0 0 0.0118229)
(0 0 0.0116451)
(0 0 0.011466)
(0 0 0.0112857)
(0 0 0.0111043)
(0 0 0.0109217)
(0 0 0.0107381)