/*--------------------------------*- C++ -*----------------------------------*\
| =========                 |                                                 |
| \\      /  F ield         | OpenFOAM: The Open Source CFD Toolbox           |
|  \\    /   O peration     | Version:  v2012                                 |
|   \\  /    A nd           | Website:  www.openfoam.com                      |
|    \\/     M anipulation  |                                                 |
\*---------------------------------------------------------------------------*/
FoamFile
{
    version     2.0;
    format      ascii;
    class       volScalarField;
    location    "1.9";
    object      W;
}
// * * * * * * * * * * * * * * * * * * * * * * * * * * * * * * * * * * * * * //

dimensions      [0 0 -1 0 0 0 0];


internalField   nonuniform List<scalar> 
65536
(
7.73932e-22
2.37027e-21
4.12535e-21
6.1829e-21
8.72938e-21
1.19991e-20
1.62831e-20
2.1945e-20
2.94455e-20
3.93738e-20
5.24883e-20
6.9765e-20
9.24595e-20
1.22183e-19
1.60994e-19
2.11522e-19
2.77103e-19
3.61966e-19
4.71445e-19
6.12253e-19
7.92805e-19
1.02361e-18
1.31775e-18
1.69147e-18
2.16483e-18
2.76254e-18
3.51495e-18
4.45918e-18
5.64044e-18
7.11364e-18
8.94521e-18
1.12152e-17
1.40198e-17
1.74739e-17
2.17147e-17
2.69049e-17
3.32368e-17
4.09371e-17
5.02717e-17
6.15513e-17
7.51376e-17
9.14497e-17
1.10971e-16
1.34258e-16
1.61947e-16
1.94761e-16
2.33523e-16
2.79161e-16
3.32717e-16
3.95356e-16
4.68376e-16
5.53212e-16
6.51445e-16
7.64807e-16
8.95185e-16
1.04462e-15
1.21531e-15
1.40961e-15
1.63e-15
1.87913e-15
2.15975e-15
2.47471e-15
2.82695e-15
3.21946e-15
3.65525e-15
4.13733e-15
4.66861e-15
5.25193e-15
5.88995e-15
6.58512e-15
7.3396e-15
8.15524e-15
9.03344e-15
9.97517e-15
1.09808e-14
1.20502e-14
1.31825e-14
1.43761e-14
1.56286e-14
1.6937e-14
1.82971e-14
1.97042e-14
2.11524e-14
2.26352e-14
2.41451e-14
2.56738e-14
2.72122e-14
2.87507e-14
3.02788e-14
3.17858e-14
3.32604e-14
3.4691e-14
3.60662e-14
3.73741e-14
3.86036e-14
3.97434e-14
4.07831e-14
4.17128e-14
4.25234e-14
4.3207e-14
4.37564e-14
4.41662e-14
4.44317e-14
4.45502e-14
4.45201e-14
4.43415e-14
4.40161e-14
4.35469e-14
4.29386e-14
4.21974e-14
4.13307e-14
4.03471e-14
3.92567e-14
3.80703e-14
3.67997e-14
3.54574e-14
3.40564e-14
3.26102e-14
3.11326e-14
2.96372e-14
2.81378e-14
2.66478e-14
2.51803e-14
2.3748e-14
2.23629e-14
2.10364e-14
1.97791e-14
1.86008e-14
1.75105e-14
1.65163e-14
1.56252e-14
1.48435e-14
1.41764e-14
1.36282e-14
1.32022e-14
1.29009e-14
1.27257e-14
1.2677e-14
1.27545e-14
1.29567e-14
1.32814e-14
1.37251e-14
1.42838e-14
1.49521e-14
1.57239e-14
1.65921e-14
1.75485e-14
1.85842e-14
1.96892e-14
2.08526e-14
2.2063e-14
2.33079e-14
2.45744e-14
2.58489e-14
2.71176e-14
2.83663e-14
2.95806e-14
3.07464e-14
3.18498e-14
3.28773e-14
3.3816e-14
3.46541e-14
3.53806e-14
3.59858e-14
3.64614e-14
3.68006e-14
3.69983e-14
3.70511e-14
3.69575e-14
3.67176e-14
3.63335e-14
3.58091e-14
3.51499e-14
3.4363e-14
3.34572e-14
3.24422e-14
3.1329e-14
3.01296e-14
2.88564e-14
2.75226e-14
2.61413e-14
2.47258e-14
2.32891e-14
2.18438e-14
2.0402e-14
1.89749e-14
1.75729e-14
1.62054e-14
1.48807e-14
1.36059e-14
1.23871e-14
1.1229e-14
1.01355e-14
9.10894e-15
8.15097e-15
7.26214e-15
6.44213e-15
5.68983e-15
5.00346e-15
4.38065e-15
3.81855e-15
3.31397e-15
2.86342e-15
2.46322e-15
2.1096e-15
1.79875e-15
1.52692e-15
1.29041e-15
1.0857e-15
9.09392e-16
7.58323e-16
6.29528e-16
5.20274e-16
4.28057e-16
3.50608e-16
2.85884e-16
2.32063e-16
1.87528e-16
1.50858e-16
1.20813e-16
9.63155e-17
7.64395e-17
6.03915e-17
4.74973e-17
3.71874e-17
2.89839e-17
2.24879e-17
1.73689e-17
1.33544e-17
1.02214e-17
7.78792e-18
5.90693e-18
4.45996e-18
3.35219e-18
2.50815e-18
1.86812e-18
1.38511e-18
1.02233e-18
7.51149e-19
5.494e-19
4.00018e-19
2.89934e-19
2.09193e-19
1.50253e-19
1.07432e-19
7.64663e-20
5.41795e-20
3.82133e-20
2.68262e-20
1.87367e-20
1.30033e-20
8.93202e-21
6.00727e-21
3.84156e-21
2.14217e-21
6.88765e-22
2.51445e-21
7.70092e-21
1.34033e-20
2.00884e-20
2.83616e-20
3.89837e-20
5.28995e-20
7.12898e-20
9.565e-20
1.27894e-19
1.70482e-19
2.26583e-19
3.00272e-19
3.96777e-19
5.22784e-19
6.86816e-19
8.99705e-19
1.17517e-18
1.53051e-18
1.98751e-18
2.57346e-18
3.32245e-18
4.27692e-18
5.48951e-18
7.02529e-18
8.96441e-18
1.14052e-17
1.44681e-17
1.82995e-17
2.30776e-17
2.90174e-17
3.63786e-17
4.54726e-17
5.66721e-17
7.04209e-17
8.72463e-17
1.07771e-16
1.3273e-16
1.62983e-16
1.99537e-16
2.43562e-16
2.96415e-16
3.59662e-16
4.351e-16
5.24788e-16
6.31071e-16
7.56605e-16
9.04391e-16
1.0778e-15
1.2806e-15
1.51698e-15
1.79158e-15
2.10951e-15
2.47636e-15
2.89822e-15
3.3817e-15
3.93387e-15
4.56232e-15
5.2751e-15
6.0807e-15
6.98799e-15
8.00618e-15
9.14473e-15
1.04133e-14
1.18215e-14
1.33789e-14
1.50952e-14
1.69792e-14
1.90395e-14
2.1284e-14
2.37196e-14
2.63521e-14
2.9186e-14
3.22243e-14
3.54682e-14
3.89171e-14
4.25679e-14
4.64156e-14
5.04525e-14
5.46682e-14
5.90497e-14
6.35812e-14
6.82441e-14
7.3017e-14
7.78756e-14
8.27932e-14
8.77406e-14
9.26864e-14
9.75972e-14
1.02438e-13
1.07173e-13
1.11764e-13
1.16175e-13
1.20368e-13
1.24306e-13
1.27954e-13
1.31279e-13
1.34248e-13
1.36833e-13
1.39008e-13
1.40751e-13
1.42043e-13
1.42872e-13
1.43227e-13
1.43104e-13
1.42504e-13
1.41432e-13
1.39898e-13
1.37918e-13
1.35512e-13
1.32704e-13
1.29521e-13
1.25997e-13
1.22166e-13
1.18066e-13
1.13737e-13
1.09222e-13
1.04564e-13
9.9806e-14
9.49933e-14
9.01693e-14
8.53772e-14
8.0659e-14
7.60551e-14
7.16041e-14
6.73421e-14
6.33033e-14
5.95187e-14
5.6017e-14
5.28236e-14
4.99613e-14
4.74497e-14
4.53052e-14
4.35415e-14
4.21689e-14
4.11949e-14
4.06238e-14
4.0457e-14
4.0693e-14
4.13269e-14
4.23512e-14
4.37552e-14
4.55251e-14
4.76441e-14
5.00923e-14
5.28469e-14
5.58819e-14
5.91684e-14
6.26746e-14
6.63661e-14
7.02058e-14
7.41545e-14
7.81706e-14
8.22114e-14
8.62323e-14
9.01885e-14
9.40345e-14
9.77254e-14
1.01217e-13
1.04466e-13
1.07433e-13
1.10079e-13
1.1237e-13
1.14276e-13
1.15769e-13
1.1683e-13
1.17441e-13
1.17592e-13
1.17278e-13
1.16501e-13
1.15267e-13
1.13588e-13
1.11482e-13
1.08973e-13
1.06086e-13
1.02855e-13
9.93132e-14
9.54992e-14
9.14526e-14
8.72149e-14
8.28279e-14
7.83337e-14
7.37736e-14
6.91875e-14
6.46135e-14
6.00873e-14
5.56416e-14
5.13062e-14
4.71072e-14
4.30674e-14
3.92054e-14
3.55367e-14
3.20728e-14
2.88217e-14
2.57882e-14
2.2974e-14
2.03781e-14
1.79968e-14
1.58245e-14
1.38535e-14
1.2075e-14
1.04786e-14
9.05325e-15
7.78735e-15
6.6689e-15
5.68585e-15
4.82624e-15
4.07843e-15
3.43118e-15
2.87381e-15
2.39626e-15
1.98916e-15
1.64384e-15
1.3524e-15
1.10765e-15
9.03125e-16
7.33062e-16
5.92351e-16
4.76498e-16
3.8158e-16
3.04193e-16
2.41408e-16
1.90718e-16
1.49992e-16
1.1743e-16
9.15213e-17
7.10067e-17
5.48413e-17
4.21646e-17
3.22714e-17
2.45876e-17
1.86486e-17
1.408e-17
1.05825e-17
7.91777e-18
5.89719e-18
4.37235e-18
3.22711e-18
2.37104e-18
1.73418e-18
1.26263e-18
9.15145e-19
6.60285e-19
4.74246e-19
3.39083e-19
2.41345e-19
1.71001e-19
1.20608e-19
8.46672e-20
5.91353e-20
4.10397e-20
2.81902e-20
1.89594e-20
1.21242e-20
6.76088e-21
2.17385e-21
4.8859e-21
1.49641e-20
2.60454e-20
3.90359e-20
5.51109e-20
7.57471e-20
1.02778e-19
1.38497e-19
1.85805e-19
2.48415e-19
3.31104e-19
4.40018e-19
5.83062e-19
7.70376e-19
1.01493e-18
1.33324e-18
1.74632e-18
2.28075e-18
2.97009e-18
3.85654e-18
4.99298e-18
6.44547e-18
8.29622e-18
1.06472e-17
1.36244e-17
1.73831e-17
2.21137e-17
2.80491e-17
3.54731e-17
4.47299e-17
5.62362e-17
7.04939e-17
8.81054e-17
1.09791e-16
1.3641e-16
1.6898e-16
2.08707e-16
2.57007e-16
3.15546e-16
3.86264e-16
4.71423e-16
5.73642e-16
6.95942e-16
8.41792e-16
1.01516e-15
1.22058e-15
1.46315e-15
1.74867e-15
2.08364e-15
2.47529e-15
2.93171e-15
3.46183e-15
4.07546e-15
4.78337e-15
5.59725e-15
6.52979e-15
7.59458e-15
8.8062e-15
1.01801e-14
1.17325e-14
1.34804e-14
1.54414e-14
1.76337e-14
2.00756e-14
2.27856e-14
2.57821e-14
2.90829e-14
3.27054e-14
3.66657e-14
4.09786e-14
4.56571e-14
5.07122e-14
5.61522e-14
6.19824e-14
6.82049e-14
7.48179e-14
8.18156e-14
8.91875e-14
9.69185e-14
1.04989e-13
1.13372e-13
1.22039e-13
1.30952e-13
1.40071e-13
1.49348e-13
1.58733e-13
1.68169e-13
1.77595e-13
1.86948e-13
1.96161e-13
2.05165e-13
2.13888e-13
2.22259e-13
2.30208e-13
2.37664e-13
2.44561e-13
2.50834e-13
2.56423e-13
2.61274e-13
2.65338e-13
2.68575e-13
2.7095e-13
2.72437e-13
2.7302e-13
2.72692e-13
2.71455e-13
2.69319e-13
2.66305e-13
2.62444e-13
2.57774e-13
2.52342e-13
2.46202e-13
2.39417e-13
2.32053e-13
2.24184e-13
2.15886e-13
2.0724e-13
1.98328e-13
1.89233e-13
1.80041e-13
1.70834e-13
1.61693e-13
1.52699e-13
1.43927e-13
1.3545e-13
1.27337e-13
1.19651e-13
1.12451e-13
1.0579e-13
9.97156e-14
9.42702e-14
8.949e-14
8.54054e-14
8.20411e-14
7.94161e-14
7.75434e-14
7.64305e-14
7.60793e-14
7.64857e-14
7.76403e-14
7.95279e-14
8.21276e-14
8.54128e-14
8.93514e-14
9.39054e-14
9.90313e-14
1.0468e-13
1.10797e-13
1.17322e-13
1.2419e-13
1.31331e-13
1.38673e-13
1.46137e-13
1.53643e-13
1.61108e-13
1.68448e-13
1.75578e-13
1.82415e-13
1.88877e-13
1.94883e-13
2.0036e-13
2.05236e-13
2.09449e-13
2.12941e-13
2.15664e-13
2.17579e-13
2.18658e-13
2.1888e-13
2.18238e-13
2.16735e-13
2.14382e-13
2.11205e-13
2.07237e-13
2.0252e-13
1.97107e-13
1.91056e-13
1.84433e-13
1.77307e-13
1.69754e-13
1.6185e-13
1.53673e-13
1.45302e-13
1.36813e-13
1.2828e-13
1.19774e-13
1.1136e-13
1.03099e-13
9.50463e-14
8.725e-14
7.97517e-14
7.25862e-14
6.57812e-14
5.93581e-14
5.33314e-14
4.77097e-14
4.24958e-14
3.76876e-14
3.3278e-14
2.92563e-14
2.56084e-14
2.23172e-14
1.93637e-14
1.67273e-14
1.43863e-14
1.23183e-14
1.05011e-14
8.91229e-15
7.53037e-15
6.3345e-15
5.30486e-15
4.42281e-15
3.67099e-15
3.03337e-15
2.49531e-15
2.0435e-15
1.66601e-15
1.35216e-15
1.09251e-15
8.78754e-16
7.03645e-16
5.60894e-16
4.45091e-16
3.51605e-16
2.76502e-16
2.1646e-16
1.68691e-16
1.3087e-16
1.0107e-16
7.77028e-17
5.94679e-17
4.53063e-17
3.4361e-17
2.59419e-17
1.9497e-17
1.45869e-17
1.0864e-17
8.05458e-18
5.94465e-18
4.36756e-18
3.19433e-18
2.32569e-18
1.68559e-18
1.21614e-18
8.73469e-19
6.24514e-19
4.44496e-19
3.14936e-19
2.22122e-19
1.5593e-19
1.08907e-19
7.5581e-20
5.19166e-20
3.49168e-20
2.2329e-20
1.24516e-20
4.00368e-21
8.49214e-21
2.60095e-20
4.52708e-20
6.78501e-20
9.57871e-20
1.31646e-19
1.7861e-19
2.40657e-19
3.22825e-19
4.31559e-19
5.75144e-19
7.64244e-19
1.01257e-18
1.33771e-18
1.76215e-18
2.31454e-18
3.03128e-18
3.95847e-18
5.15425e-18
6.69175e-18
8.66257e-18
1.11811e-17
1.43898e-17
1.84652e-17
2.36255e-17
3.01392e-17
3.83359e-17
4.86187e-17
6.14782e-17
7.75102e-17
9.74348e-17
1.2212e-16
1.52606e-16
1.90139e-16
2.36201e-16
2.92552e-16
3.61272e-16
4.44807e-16
5.46029e-16
6.68289e-16
8.15485e-16
9.92131e-16
1.20343e-15
1.45537e-15
1.75479e-15
2.10945e-15
2.52819e-15
3.02094e-15
3.59888e-15
4.27446e-15
5.06156e-15
5.9755e-15
7.03315e-15
8.25295e-15
9.65496e-15
1.12609e-14
1.30941e-14
1.51793e-14
1.75431e-14
2.02132e-14
2.32186e-14
2.65893e-14
3.03561e-14
3.45503e-14
3.92033e-14
4.43462e-14
5.00093e-14
5.62217e-14
6.30106e-14
7.04008e-14
7.84142e-14
8.70686e-14
9.63775e-14
1.0635e-13
1.16987e-13
1.28287e-13
1.40237e-13
1.5282e-13
1.66008e-13
1.79767e-13
1.94051e-13
2.08808e-13
2.23975e-13
2.39481e-13
2.55244e-13
2.71178e-13
2.87185e-13
3.03162e-13
3.19e-13
3.34584e-13
3.49797e-13
3.64518e-13
3.78626e-13
3.92e-13
4.04523e-13
4.16082e-13
4.26568e-13
4.35881e-13
4.4393e-13
4.50634e-13
4.55925e-13
4.59747e-13
4.62059e-13
4.62835e-13
4.62065e-13
4.59753e-13
4.55921e-13
4.50607e-13
4.43862e-13
4.35756e-13
4.26368e-13
4.15794e-13
4.04138e-13
3.91516e-13
3.78054e-13
3.63881e-13
3.49135e-13
3.33954e-13
3.18481e-13
3.02857e-13
2.87223e-13
2.71716e-13
2.56469e-13
2.4161e-13
2.2726e-13
2.13534e-13
2.00536e-13
1.88365e-13
1.77108e-13
1.66844e-13
1.57641e-13
1.49559e-13
1.42646e-13
1.36944e-13
1.3248e-13
1.29275e-13
1.27341e-13
1.26677e-13
1.27276e-13
1.2912e-13
1.32182e-13
1.36426e-13
1.41805e-13
1.48265e-13
1.55742e-13
1.64161e-13
1.7344e-13
1.83488e-13
1.94204e-13
2.05479e-13
2.17199e-13
2.29241e-13
2.41475e-13
2.53769e-13
2.65987e-13
2.77989e-13
2.89636e-13
3.00791e-13
3.1132e-13
3.21091e-13
3.29983e-13
3.3788e-13
3.4468e-13
3.5029e-13
3.54633e-13
3.57646e-13
3.59283e-13
3.59514e-13
3.58327e-13
3.55728e-13
3.51739e-13
3.46403e-13
3.39773e-13
3.31924e-13
3.2294e-13
3.12919e-13
3.01968e-13
2.90205e-13
2.77751e-13
2.64733e-13
2.51278e-13
2.37515e-13
2.23569e-13
2.09561e-13
1.95606e-13
1.81811e-13
1.68275e-13
1.55087e-13
1.42326e-13
1.30059e-13
1.18341e-13
1.07218e-13
9.67237e-14
8.6881e-14
7.77034e-14
6.91948e-14
6.13509e-14
5.416e-14
4.76038e-14
4.16588e-14
3.6297e-14
3.14867e-14
2.71941e-14
2.33835e-14
2.00183e-14
1.70618e-14
1.44777e-14
1.22307e-14
1.02865e-14
8.61306e-15
7.17977e-15
5.95835e-15
4.92268e-15
4.04888e-15
3.3153e-15
2.70249e-15
2.19309e-15
1.77173e-15
1.42491e-15
1.14083e-15
9.09282e-16
7.21471e-16
5.69874e-16
4.48104e-16
3.50766e-16
2.73333e-16
2.12033e-16
1.63738e-16
1.25872e-16
9.63257e-17
7.33818e-17
5.56502e-17
4.20123e-17
3.15731e-17
2.36206e-17
1.75911e-17
1.30415e-17
9.62481e-18
7.07111e-18
5.17147e-18
3.76506e-18
2.72873e-18
1.96871e-18
1.41396e-18
1.01093e-18
7.19518e-19
5.0979e-19
3.59549e-19
2.52402e-19
1.76287e-19
1.22343e-19
8.40383e-20
5.65217e-20
3.61463e-20
2.01574e-20
6.48158e-21
1.42436e-20
4.36255e-20
7.59332e-20
1.13804e-19
1.60656e-19
2.20784e-19
2.9952e-19
4.03528e-19
5.41247e-19
7.23466e-19
9.64058e-19
1.28088e-18
1.69687e-18
2.24147e-18
2.95229e-18
3.87727e-18
5.07732e-18
6.62949e-18
8.63103e-18
1.12042e-17
1.45021e-17
1.87159e-17
2.40836e-17
3.09001e-17
3.95298e-17
5.04213e-17
6.41248e-17
8.13129e-17
1.02805e-16
1.29594e-16
1.62881e-16
2.04114e-16
2.55029e-16
3.177e-16
3.94599e-16
4.88656e-16
6.03333e-16
7.42707e-16
9.11554e-16
1.11545e-15
1.36088e-15
1.65534e-15
2.0075e-15
2.42728e-15
2.92603e-15
3.51668e-15
4.21385e-15
5.03403e-15
5.99573e-15
7.11961e-15
8.42862e-15
9.94814e-15
1.1706e-14
1.37328e-14
1.60616e-14
1.87283e-14
2.17712e-14
2.52315e-14
2.91525e-14
3.35799e-14
3.85614e-14
4.41463e-14
5.03851e-14
5.73289e-14
6.50291e-14
7.35363e-14
8.28998e-14
9.31669e-14
1.04382e-13
1.16584e-13
1.29808e-13
1.44083e-13
1.59429e-13
1.7586e-13
1.93377e-13
2.11974e-13
2.3163e-13
2.52312e-13
2.73976e-13
2.96562e-13
3.19994e-13
3.44184e-13
3.69026e-13
3.94403e-13
4.2018e-13
4.46212e-13
4.72338e-13
4.98389e-13
5.24184e-13
5.49536e-13
5.74251e-13
5.98132e-13
6.20982e-13
6.42604e-13
6.62807e-13
6.81407e-13
6.98229e-13
7.13112e-13
7.2591e-13
7.36493e-13
7.44753e-13
7.50604e-13
7.53981e-13
7.54846e-13
7.53186e-13
7.49014e-13
7.42368e-13
7.33315e-13
7.21943e-13
7.08366e-13
6.9272e-13
6.75163e-13
6.55868e-13
6.35026e-13
6.12843e-13
5.89532e-13
5.65316e-13
5.40425e-13
5.15086e-13
4.89532e-13
4.63989e-13
4.38679e-13
4.13816e-13
3.89607e-13
3.66245e-13
3.43914e-13
3.2278e-13
3.02999e-13
2.8471e-13
2.68037e-13
2.53087e-13
2.39952e-13
2.28708e-13
2.19415e-13
2.12118e-13
2.06845e-13
2.03611e-13
2.02412e-13
2.03233e-13
2.06042e-13
2.10792e-13
2.17423e-13
2.25858e-13
2.36007e-13
2.47765e-13
2.61011e-13
2.75613e-13
2.91422e-13
3.08278e-13
3.26006e-13
3.44423e-13
3.63333e-13
3.82531e-13
4.01806e-13
4.20943e-13
4.39722e-13
4.57924e-13
4.75332e-13
4.91735e-13
5.06929e-13
5.20722e-13
5.32936e-13
5.43409e-13
5.52001e-13
5.58591e-13
5.63083e-13
5.65407e-13
5.6552e-13
5.63406e-13
5.59076e-13
5.5257e-13
5.43955e-13
5.3332e-13
5.20783e-13
5.06479e-13
4.90562e-13
4.73205e-13
4.54591e-13
4.34912e-13
4.14368e-13
3.93159e-13
3.71485e-13
3.49544e-13
3.27523e-13
3.05603e-13
2.8395e-13
2.62719e-13
2.42047e-13
2.22056e-13
2.0285e-13
1.84514e-13
1.67119e-13
1.50715e-13
1.35337e-13
1.21004e-13
1.07723e-13
9.54842e-14
8.4269e-14
7.40478e-14
6.47831e-14
5.64302e-14
4.89394e-14
4.22571e-14
3.6327e-14
3.10918e-14
2.64938e-14
2.24763e-14
1.89836e-14
1.59628e-14
1.33631e-14
1.11372e-14
9.2408e-15
7.63318e-15
6.27714e-15
5.13897e-15
4.18838e-15
3.39836e-15
2.74502e-15
2.20734e-15
1.76703e-15
1.40819e-15
1.11719e-15
8.82334e-16
6.93716e-16
5.42964e-16
4.23058e-16
3.28146e-16
2.5338e-16
1.94766e-16
1.49035e-16
1.13527e-16
8.60888e-17
6.4987e-17
4.8836e-17
3.65331e-17
2.72061e-17
2.01687e-17
1.48841e-17
1.09346e-17
7.99672e-18
5.82178e-18
4.21923e-18
3.044e-18
2.1862e-18
1.56304e-18
1.11246e-18
7.8819e-19
5.559e-19
3.90241e-19
2.72561e-19
1.89159e-19
1.29939e-19
8.73965e-20
5.58941e-20
3.11718e-20
1.00237e-20
2.35617e-20
7.2166e-20
1.25611e-19
1.88255e-19
2.65747e-19
3.65181e-19
4.95366e-19
6.67315e-19
8.94962e-19
1.19613e-18
1.59372e-18
2.11722e-18
2.8045e-18
3.70414e-18
4.87821e-18
6.40582e-18
8.38742e-18
1.09501e-17
1.42543e-17
1.85015e-17
2.39441e-17
3.08974e-17
3.97534e-17
5.09979e-17
6.52312e-17
8.31922e-17
1.05787e-16
1.34122e-16
1.69546e-16
2.13693e-16
2.6854e-16
3.36467e-16
4.20326e-16
5.2353e-16
6.50138e-16
8.04964e-16
9.93696e-16
1.22302e-15
1.50078e-15
1.83613e-15
2.23968e-15
2.72376e-15
3.30253e-15
3.99228e-15
4.81158e-15
5.78157e-15
6.92619e-15
8.27241e-15
9.85047e-15
1.16941e-14
1.38408e-14
1.63319e-14
1.9213e-14
2.25336e-14
2.63478e-14
3.07138e-14
3.56941e-14
4.13554e-14
4.77682e-14
5.50064e-14
6.31473e-14
7.22706e-14
8.24578e-14
9.37914e-14
1.06354e-13
1.20227e-13
1.35489e-13
1.52216e-13
1.70478e-13
1.90337e-13
2.11849e-13
2.35058e-13
2.59994e-13
2.86677e-13
3.15108e-13
3.45272e-13
3.77134e-13
4.10638e-13
4.45708e-13
4.82243e-13
5.20119e-13
5.5919e-13
5.99282e-13
6.40201e-13
6.81729e-13
7.23626e-13
7.65633e-13
8.07472e-13
8.48852e-13
8.89469e-13
9.2901e-13
9.67158e-13
1.00359e-12
1.03801e-12
1.07008e-12
1.09954e-12
1.12608e-12
1.14947e-12
1.16947e-12
1.18587e-12
1.19852e-12
1.20726e-12
1.21202e-12
1.21273e-12
1.20937e-12
1.20199e-12
1.19064e-12
1.17544e-12
1.15654e-12
1.13413e-12
1.10842e-12
1.07969e-12
1.04821e-12
1.01429e-12
9.78273e-13
9.40493e-13
9.01313e-13
8.61099e-13
8.20221e-13
7.79046e-13
7.37936e-13
6.97245e-13
6.57313e-13
6.18464e-13
5.81006e-13
5.45226e-13
5.11386e-13
4.79729e-13
4.50471e-13
4.23802e-13
3.99889e-13
3.78872e-13
3.60864e-13
3.45957e-13
3.34213e-13
3.25673e-13
3.20352e-13
3.18241e-13
3.1931e-13
3.23502e-13
3.3074e-13
3.40921e-13
3.53922e-13
3.69596e-13
3.87773e-13
4.08263e-13
4.30852e-13
4.55305e-13
4.81369e-13
5.0877e-13
5.37217e-13
5.66404e-13
5.96013e-13
6.25713e-13
6.55167e-13
6.84037e-13
7.11982e-13
7.38667e-13
7.63765e-13
7.86963e-13
8.07967e-13
8.26504e-13
8.42327e-13
8.55223e-13
8.65008e-13
8.71541e-13
8.74717e-13
8.74474e-13
8.70792e-13
8.63695e-13
8.53248e-13
8.39558e-13
8.2277e-13
8.03067e-13
7.80661e-13
7.55796e-13
7.28738e-13
6.99771e-13
6.69195e-13
6.37317e-13
6.04447e-13
5.70894e-13
5.36959e-13
5.02932e-13
4.6909e-13
4.35687e-13
4.02958e-13
3.71114e-13
3.40339e-13
3.10791e-13
2.826e-13
2.55869e-13
2.30675e-13
2.0707e-13
1.85081e-13
1.64714e-13
1.45955e-13
1.28773e-13
1.1312e-13
9.89379e-14
8.61569e-14
7.46994e-14
6.44823e-14
5.54188e-14
4.74201e-14
4.03974e-14
3.42632e-14
2.89322e-14
2.43228e-14
2.03572e-14
1.69626e-14
1.40714e-14
1.16211e-14
9.55472e-15
7.82081e-15
6.373e-15
5.17003e-15
4.17538e-15
3.35701e-15
2.68695e-15
2.14099e-15
1.69831e-15
1.34112e-15
1.05429e-15
8.25085e-16
6.42803e-16
4.98538e-16
3.84909e-16
2.9584e-16
2.26357e-16
1.72413e-16
1.30732e-16
9.86801e-17
7.41504e-17
5.54668e-17
4.13036e-17
3.06181e-17
2.25945e-17
1.65983e-17
1.21383e-17
8.83667e-18
6.40405e-18
4.62016e-18
3.31815e-18
2.37231e-18
1.68843e-18
1.19627e-18
8.43713e-19
5.92289e-19
4.13686e-19
2.87108e-19
1.97229e-19
1.32663e-19
8.48503e-20
4.7324e-20
1.52184e-20
3.86956e-20
1.1852e-19
2.06294e-19
3.09171e-19
4.36416e-19
5.99667e-19
8.13374e-19
1.0956e-18
1.46919e-18
1.96337e-18
2.6157e-18
3.47449e-18
4.60182e-18
6.07729e-18
8.00261e-18
1.05073e-17
1.3756e-17
1.79568e-17
2.33723e-17
3.03324e-17
3.92503e-17
5.06416e-17
6.51479e-17
8.3564e-17
1.06872e-16
1.36278e-16
1.73266e-16
2.19643e-16
2.77612e-16
3.49845e-16
4.39568e-16
5.50667e-16
6.87801e-16
8.56535e-16
1.06349e-15
1.31653e-15
1.62491e-15
1.99954e-15
2.4532e-15
3.00078e-15
3.6596e-15
4.44968e-15
5.39409e-15
6.51929e-15
7.85551e-15
9.43708e-15
1.13029e-14
1.34967e-14
1.60675e-14
1.90702e-14
2.25654e-14
2.66201e-14
3.1308e-14
3.67094e-14
4.29115e-14
5.00085e-14
5.81012e-14
6.7297e-14
7.77095e-14
8.94579e-14
1.02666e-13
1.17462e-13
1.33977e-13
1.52342e-13
1.72689e-13
1.95149e-13
2.19847e-13
2.46901e-13
2.76423e-13
3.08512e-13
3.43252e-13
3.80712e-13
4.20938e-13
4.63956e-13
5.09765e-13
5.58336e-13
6.09607e-13
6.63486e-13
7.19842e-13
7.78511e-13
8.39289e-13
9.01932e-13
9.66161e-13
1.03166e-12
1.09807e-12
1.165e-12
1.23204e-12
1.29874e-12
1.36463e-12
1.42921e-12
1.492e-12
1.55248e-12
1.61014e-12
1.66448e-12
1.71502e-12
1.76129e-12
1.80285e-12
1.8393e-12
1.87028e-12
1.89547e-12
1.91462e-12
1.92751e-12
1.93401e-12
1.93404e-12
1.9276e-12
1.91472e-12
1.89554e-12
1.87025e-12
1.83909e-12
1.80238e-12
1.76049e-12
1.71383e-12
1.66285e-12
1.60808e-12
1.55002e-12
1.48925e-12
1.42633e-12
1.36184e-12
1.29638e-12
1.23053e-12
1.16486e-12
1.09993e-12
1.03627e-12
9.74395e-13
9.14784e-13
8.57883e-13
8.04103e-13
7.53818e-13
7.07361e-13
6.65025e-13
6.27063e-13
5.93686e-13
5.65065e-13
5.41332e-13
5.22578e-13
5.08856e-13
5.00181e-13
4.96531e-13
4.97847e-13
5.04034e-13
5.14961e-13
5.30462e-13
5.50336e-13
5.74346e-13
6.02224e-13
6.33663e-13
6.68329e-13
7.05851e-13
7.45831e-13
7.87841e-13
8.31429e-13
8.76118e-13
9.21413e-13
9.66804e-13
1.01177e-12
1.05579e-12
1.09834e-12
1.13891e-12
1.17699e-12
1.21211e-12
1.24382e-12
1.2717e-12
1.29539e-12
1.31456e-12
1.32894e-12
1.33831e-12
1.34252e-12
1.34149e-12
1.3352e-12
1.32368e-12
1.30705e-12
1.28547e-12
1.25918e-12
1.22846e-12
1.19364e-12
1.1551e-12
1.11325e-12
1.06853e-12
1.0214e-12
9.72322e-13
9.21783e-13
8.7025e-13
8.18183e-13
7.66025e-13
7.14193e-13
6.63076e-13
6.13028e-13
5.64368e-13
5.17374e-13
4.72281e-13
4.29286e-13
3.88543e-13
3.50163e-13
3.14223e-13
2.80762e-13
2.49784e-13
2.21266e-13
1.95156e-13
1.71382e-13
1.49851e-13
1.30454e-13
1.13074e-13
9.75809e-14
8.38424e-14
7.17224e-14
6.10851e-14
5.17966e-14
4.37271e-14
3.67518e-14
3.07528e-14
2.56191e-14
2.12479e-14
1.75443e-14
1.44219e-14
1.18024e-14
9.61577e-15
7.7993e-15
6.29774e-15
5.06255e-15
4.05143e-15
3.22774e-15
2.56e-15
2.02129e-15
1.58879e-15
1.24323e-15
9.68453e-16
7.51018e-16
5.79782e-16
4.45575e-16
3.40893e-16
2.59631e-16
1.96849e-16
1.48576e-16
1.11636e-16
8.35017e-17
6.21764e-17
4.60885e-17
3.40093e-17
2.49828e-17
1.82692e-17
1.32996e-17
9.63814e-18
6.95323e-18
4.99366e-18
3.57018e-18
2.54097e-18
1.8003e-18
1.26974e-18
8.91368e-19
6.2259e-19
4.32103e-19
2.96847e-19
1.99682e-19
1.27725e-19
7.12425e-20
2.29114e-20
6.32163e-20
1.93625e-19
3.37021e-19
5.05082e-19
7.12924e-19
9.79541e-19
1.32851e-18
1.78929e-18
2.39918e-18
3.20583e-18
4.27048e-18
5.67191e-18
7.51136e-18
9.91854e-18
1.30592e-17
1.71446e-17
2.24427e-17
2.92926e-17
3.8122e-17
4.94681e-17
6.40037e-17
8.25684e-17
1.06206e-16
1.3621e-16
1.74177e-16
2.22073e-16
2.82305e-16
3.57815e-16
4.52185e-16
5.69753e-16
7.15764e-16
8.96529e-16
1.11961e-15
1.39405e-15
1.73059e-15
2.14197e-15
2.64324e-15
3.25206e-15
3.98916e-15
4.87866e-15
5.94861e-15
7.23144e-15
8.76448e-15
1.05906e-14
1.27585e-14
1.53239e-14
1.83495e-14
2.1906e-14
2.60726e-14
3.09376e-14
3.6599e-14
4.31646e-14
5.07531e-14
5.94938e-14
6.95269e-14
8.10036e-14
9.4086e-14
1.08946e-13
1.25766e-13
1.44737e-13
1.66057e-13
1.8993e-13
2.16565e-13
2.46172e-13
2.7896e-13
3.15135e-13
3.54896e-13
3.98431e-13
4.45914e-13
4.97498e-13
5.53315e-13
6.13469e-13
6.7803e-13
7.47031e-13
8.20466e-13
8.98279e-13
9.80367e-13
1.06657e-12
1.15668e-12
1.25042e-12
1.34745e-12
1.44738e-12
1.54976e-12
1.65407e-12
1.75973e-12
1.86613e-12
1.97258e-12
2.07838e-12
2.18276e-12
2.28495e-12
2.38414e-12
2.47954e-12
2.57033e-12
2.65572e-12
2.73494e-12
2.80725e-12
2.87197e-12
2.92848e-12
2.9762e-12
3.01464e-12
3.04342e-12
3.06223e-12
3.07084e-12
3.06917e-12
3.0572e-12
3.03505e-12
3.00293e-12
2.96115e-12
2.91012e-12
2.85037e-12
2.78247e-12
2.70711e-12
2.62503e-12
2.53704e-12
2.44397e-12
2.34672e-12
2.2462e-12
2.14333e-12
2.03905e-12
1.93427e-12
1.8299e-12
1.7268e-12
1.62583e-12
1.52777e-12
1.43338e-12
1.34334e-12
1.25829e-12
1.17881e-12
1.10541e-12
1.03854e-12
9.7857e-13
9.25827e-13
8.80563e-13
8.42969e-13
8.13173e-13
7.91243e-13
7.7719e-13
7.70963e-13
7.72457e-13
7.81512e-13
7.97911e-13
8.21383e-13
8.51604e-13
8.88198e-13
9.30736e-13
9.78737e-13
1.03167e-12
1.08896e-12
1.14999e-12
1.21409e-12
1.28055e-12
1.34864e-12
1.41759e-12
1.48663e-12
1.55494e-12
1.62173e-12
1.68621e-12
1.74757e-12
1.80507e-12
1.85797e-12
1.9056e-12
1.94733e-12
1.9826e-12
2.01093e-12
2.03191e-12
2.04523e-12
2.05067e-12
2.0481e-12
2.03751e-12
2.01897e-12
1.99266e-12
1.95884e-12
1.91789e-12
1.87024e-12
1.8164e-12
1.75697e-12
1.69256e-12
1.62385e-12
1.55155e-12
1.47637e-12
1.39904e-12
1.32028e-12
1.24077e-12
1.16121e-12
1.0822e-12
1.00435e-12
9.28185e-13
8.54183e-13
7.82763e-13
7.14277e-13
6.49017e-13
5.8721e-13
5.29023e-13
4.74563e-13
4.23885e-13
3.76992e-13
3.33843e-13
2.94357e-13
2.58419e-13
2.25885e-13
1.96589e-13
1.70349e-13
1.46967e-13
1.26241e-13
1.07964e-13
9.19279e-14
7.793e-14
6.57731e-14
5.52682e-14
4.62361e-14
3.85093e-14
3.19318e-14
2.63605e-14
2.16647e-14
1.77264e-14
1.44395e-14
1.17097e-14
9.45366e-15
7.59824e-15
6.07972e-15
4.84293e-15
3.84049e-15
3.03191e-15
2.38285e-15
1.86434e-15
1.45212e-15
1.12597e-15
8.69152e-16
6.67896e-16
5.10935e-16
3.89104e-16
2.9499e-16
2.22634e-16
1.67269e-16
1.25107e-16
9.31506e-17
6.90448e-17
5.09467e-17
3.74232e-17
2.73656e-17
1.9921e-17
1.44363e-17
1.04145e-17
7.47938e-18
5.34728e-18
3.80575e-18
2.69641e-18
1.90177e-18
1.33507e-18
9.3252e-19
6.47226e-19
4.44651e-19
2.99125e-19
1.91349e-19
1.0674e-19
3.43294e-20
1.02788e-19
3.14831e-19
5.4799e-19
8.21239e-19
1.15913e-18
1.5925e-18
2.15965e-18
2.90843e-18
3.89936e-18
5.20983e-18
6.93923e-18
9.21543e-18
1.22027e-17
1.61114e-17
2.12106e-17
2.78427e-17
3.64424e-17
4.75595e-17
6.18872e-17
8.02964e-17
1.03877e-16
1.3399e-16
1.72326e-16
2.2098e-16
2.82537e-16
3.6018e-16
4.57806e-16
5.80176e-16
7.33082e-16
9.23545e-16
1.16005e-15
1.45278e-15
1.81399e-15
2.25826e-15
2.80297e-15
3.46868e-15
4.27968e-15
5.26449e-15
6.45653e-15
7.89474e-15
9.62432e-15
1.16975e-14
1.41745e-14
1.71243e-14
2.06255e-14
2.47674e-14
2.9651e-14
3.53901e-14
4.21118e-14
4.99579e-14
5.90856e-14
6.96682e-14
8.18956e-14
9.5975e-14
1.12131e-13
1.30605e-13
1.51657e-13
1.75561e-13
2.02608e-13
2.33102e-13
2.67358e-13
3.05702e-13
3.48464e-13
3.95977e-13
4.48573e-13
5.06577e-13
5.70301e-13
6.40041e-13
7.16067e-13
7.98619e-13
8.87899e-13
9.84065e-13
1.08722e-12
1.19741e-12
1.3146e-12
1.43871e-12
1.56956e-12
1.70688e-12
1.85031e-12
1.99942e-12
2.15366e-12
2.31239e-12
2.47486e-12
2.64026e-12
2.80766e-12
2.97605e-12
3.14437e-12
3.31145e-12
3.47611e-12
3.6371e-12
3.79315e-12
3.94299e-12
4.08533e-12
4.21893e-12
4.34257e-12
4.45511e-12
4.55546e-12
4.64266e-12
4.71582e-12
4.7742e-12
4.81719e-12
4.84432e-12
4.85531e-12
4.84999e-12
4.8284e-12
4.79074e-12
4.73737e-12
4.66882e-12
4.58575e-12
4.48901e-12
4.37956e-12
4.25847e-12
4.12694e-12
3.98625e-12
3.83775e-12
3.68285e-12
3.52299e-12
3.35963e-12
3.19423e-12
3.02824e-12
2.86308e-12
2.7001e-12
2.54063e-12
2.38589e-12
2.23704e-12
2.09517e-12
1.96124e-12
1.83615e-12
1.72066e-12
1.61546e-12
1.52112e-12
1.43812e-12
1.36683e-12
1.30753e-12
1.2604e-12
1.22551e-12
1.20286e-12
1.19236e-12
1.19382e-12
1.20697e-12
1.23145e-12
1.26683e-12
1.3126e-12
1.36814e-12
1.43278e-12
1.50578e-12
1.58629e-12
1.67343e-12
1.76622e-12
1.86363e-12
1.96458e-12
2.06792e-12
2.1725e-12
2.27709e-12
2.38049e-12
2.48145e-12
2.57877e-12
2.67125e-12
2.75774e-12
2.83713e-12
2.9084e-12
2.97061e-12
3.02292e-12
3.06461e-12
3.09507e-12
3.11385e-12
3.12063e-12
3.11523e-12
3.09766e-12
3.06803e-12
3.02665e-12
2.97392e-12
2.91042e-12
2.83683e-12
2.75394e-12
2.66265e-12
2.56392e-12
2.45878e-12
2.3483e-12
2.23358e-12
2.11571e-12
1.99578e-12
1.87484e-12
1.75391e-12
1.63394e-12
1.51581e-12
1.40032e-12
1.2882e-12
1.18005e-12
1.07642e-12
9.77722e-13
8.84302e-13
7.96402e-13
7.14177e-13
6.377e-13
5.6697e-13
5.01918e-13
4.42415e-13
3.88283e-13
3.39299e-13
2.9521e-13
2.55733e-13
2.20572e-13
1.89415e-13
1.61949e-13
1.37859e-13
1.16839e-13
9.85883e-14
8.2823e-14
6.92722e-14
5.7683e-14
4.78205e-14
3.94689e-14
3.24317e-14
2.6531e-14
2.16075e-14
1.75195e-14
1.41417e-14
1.13644e-14
9.09174e-15
7.24114e-15
5.74147e-15
4.53204e-15
3.56137e-15
2.78608e-15
2.1698e-15
1.68227e-15
1.29843e-15
9.97674e-16
7.63143e-16
5.81123e-16
4.4053e-16
3.3245e-16
2.49759e-16
1.86792e-16
1.39072e-16
1.03077e-16
7.6055e-17
5.58643e-17
4.08493e-17
2.97355e-17
2.15481e-17
1.55448e-17
1.11636e-17
7.9812e-18
5.68033e-18
4.02457e-18
2.83852e-18
1.99272e-18
1.39189e-18
9.66085e-19
6.63739e-19
4.46538e-19
2.85673e-19
1.5937e-19
5.12592e-20
1.66366e-19
5.09566e-19
8.86943e-19
1.32918e-18
1.87597e-18
2.57717e-18
3.4947e-18
4.70588e-18
6.30856e-18
8.42778e-18
1.12242e-17
1.49042e-17
1.97333e-17
2.60512e-17
3.42924e-17
4.50096e-17
5.89045e-17
7.68647e-17
1.00009e-16
1.29742e-16
1.67822e-16
2.16444e-16
2.78335e-16
3.56871e-16
4.56223e-16
5.81515e-16
7.3903e-16
9.36438e-16
1.18307e-15
1.49022e-15
1.87155e-15
2.34348e-15
2.92568e-15
3.64163e-15
4.51928e-15
5.59168e-15
6.89786e-15
8.48367e-15
1.04028e-14
1.27177e-14
1.5501e-14
1.88365e-14
2.28207e-14
2.75642e-14
3.31931e-14
3.98503e-14
4.76978e-14
5.69174e-14
6.77126e-14
8.03101e-14
9.49611e-14
1.11942e-13
1.31557e-13
1.54135e-13
1.80035e-13
2.09642e-13
2.43368e-13
2.8165e-13
3.2495e-13
3.7375e-13
4.28551e-13
4.89866e-13
5.58219e-13
6.34136e-13
7.18139e-13
8.10737e-13
9.12423e-13
1.02366e-12
1.14486e-12
1.2764e-12
1.41859e-12
1.57167e-12
1.73578e-12
1.91098e-12
2.09723e-12
2.29434e-12
2.50202e-12
2.71983e-12
2.9472e-12
3.18339e-12
3.42753e-12
3.67859e-12
3.93537e-12
4.19655e-12
4.46065e-12
4.72607e-12
4.9911e-12
5.25391e-12
5.5126e-12
5.7652e-12
6.0097e-12
6.24409e-12
6.46636e-12
6.67455e-12
6.86676e-12
7.04118e-12
7.19615e-12
7.33015e-12
7.44183e-12
7.53004e-12
7.59386e-12
7.63261e-12
7.64583e-12
7.63336e-12
7.59528e-12
7.53194e-12
7.44394e-12
7.33217e-12
7.19772e-12
7.04194e-12
6.86637e-12
6.67275e-12
6.46297e-12
6.23906e-12
6.00318e-12
5.75753e-12
5.5044e-12
5.24607e-12
4.98486e-12
4.723e-12
4.46272e-12
4.20613e-12
3.95529e-12
3.71209e-12
3.47834e-12
3.25567e-12
3.04561e-12
2.84948e-12
2.66848e-12
2.50364e-12
2.35581e-12
2.22571e-12
2.11387e-12
2.0207e-12
1.94643e-12
1.89117e-12
1.85486e-12
1.83733e-12
1.83826e-12
1.8572e-12
1.89357e-12
1.94668e-12
2.01569e-12
2.09967e-12
2.19754e-12
2.30814e-12