/*--------------------------------*- C++ -*----------------------------------*\
| =========                 |                                                 |
| \\      /  F ield         | OpenFOAM: The Open Source CFD Toolbox           |
|  \\    /   O peration     | Version:  v2012                                 |
|   \\  /    A nd           | Website:  www.openfoam.com                      |
|    \\/     M anipulation  |                                                 |
\*---------------------------------------------------------------------------*/
FoamFile
{
    version     2.0;
    format      ascii;
    class       volVectorField;
    location    "7.2";
    object      U;
}
// * * * * * * * * * * * * * * * * * * * * * * * * * * * * * * * * * * * * * //

dimensions      [0 1 -1 0 0 0 0];


internalField   nonuniform List<vector> 
65536
(
(0.00075328 -0.000753274 0)
(0.00225983 -0.00075326 0)
(0.00376633 -0.000753233 0)
(0.00527277 -0.000753192 0)
(0.00677911 -0.000753138 0)
(0.00828533 -0.000753068 0)
(0.0097914 -0.000752983 0)
(0.0112973 -0.000752882 0)
(0.0128029 -0.000752762 0)
(0.0143083 -0.000752624 0)
(0.0158135 -0.000752466 0)
(0.0173182 -0.000752286 0)
(0.0188226 -0.000752082 0)
(0.0203266 -0.000751853 0)
(0.0218301 -0.000751597 0)
(0.023333 -0.000751312 0)
(0.0248353 -0.000750994 0)
(0.026337 -0.000750643 0)
(0.0278379 -0.000750255 0)
(0.0293381 -0.000749827 0)
(0.0308373 -0.000749357 0)
(0.0323355 -0.000748842 0)
(0.0338327 -0.000748279 0)
(0.0353287 -0.000747664 0)
(0.0368234 -0.000746994 0)
(0.0383167 -0.000746266 0)
(0.0398085 -0.000745475 0)
(0.0412987 -0.000744619 0)
(0.0427871 -0.000743693 0)
(0.0442735 -0.000742693 0)
(0.0457579 -0.000741616 0)
(0.0472401 -0.000740456 0)
(0.0487198 -0.00073921 0)
(0.050197 -0.000737874 0)
(0.0516714 -0.000736443 0)
(0.0531429 -0.000734912 0)
(0.0546112 -0.000733277 0)
(0.0560761 -0.000731533 0)
(0.0575374 -0.000729675 0)
(0.0589949 -0.0007277 0)
(0.0604483 -0.000725601 0)
(0.0618974 -0.000723374 0)
(0.063342 -0.000721014 0)
(0.0647816 -0.000718516 0)
(0.0662162 -0.000715876 0)
(0.0676453 -0.000713088 0)
(0.0690687 -0.000710148 0)
(0.070486 -0.000707051 0)
(0.071897 -0.000703792 0)
(0.0733014 -0.000700365 0)
(0.0746987 -0.000696768 0)
(0.0760886 -0.000692994 0)
(0.0774708 -0.00068904 0)
(0.0788449 -0.0006849 0)
(0.0802106 -0.000680571 0)
(0.0815674 -0.000676048 0)
(0.082915 -0.000671328 0)
(0.0842529 -0.000666406 0)
(0.0855808 -0.000661279 0)
(0.0868983 -0.000655943 0)
(0.0882048 -0.000650394 0)
(0.0895 -0.00064463 0)
(0.0907835 -0.000638647 0)
(0.0920548 -0.000632443 0)
(0.0933135 -0.000626015 0)
(0.0945591 -0.000619362 0)
(0.0957912 -0.00061248 0)
(0.0970093 -0.000605369 0)
(0.0982129 -0.000598026 0)
(0.0994016 -0.000590451 0)
(0.100575 -0.000582643 0)
(0.101732 -0.000574602 0)
(0.102874 -0.000566327 0)
(0.103998 -0.000557818 0)
(0.105105 -0.000549076 0)
(0.106194 -0.000540102 0)
(0.107266 -0.000530897 0)
(0.108318 -0.000521463 0)
(0.109352 -0.000511801 0)
(0.110366 -0.000501914 0)
(0.11136 -0.000491804 0)
(0.112333 -0.000481475 0)
(0.113286 -0.00047093 0)
(0.114217 -0.000460173 0)
(0.115127 -0.000449207 0)
(0.116014 -0.000438037 0)
(0.116879 -0.000426669 0)
(0.117721 -0.000415107 0)
(0.11854 -0.000403357 0)
(0.119335 -0.000391424 0)
(0.120106 -0.000379315 0)
(0.120852 -0.000367036 0)
(0.121574 -0.000354595 0)
(0.122271 -0.000341997 0)
(0.122942 -0.000329251 0)
(0.123588 -0.000316365 0)
(0.124208 -0.000303345 0)
(0.124801 -0.0002902 0)
(0.125368 -0.000276938 0)
(0.125909 -0.000263568 0)
(0.126423 -0.000250098 0)
(0.12691 -0.000236538 0)
(0.127369 -0.000222896 0)
(0.127801 -0.00020918 0)
(0.128206 -0.000195401 0)
(0.128583 -0.000181568 0)
(0.128932 -0.000167689 0)
(0.129254 -0.000153775 0)
(0.129547 -0.000139834 0)
(0.129813 -0.000125875 0)
(0.130051 -0.000111909 0)
(0.130261 -9.79444e-05 0)
(0.130443 -8.39901e-05 0)
(0.130597 -7.00554e-05 0)
(0.130723 -5.61495e-05 0)
(0.130821 -4.22811e-05 0)
(0.130892 -2.84591e-05 0)
(0.130935 -1.4692e-05 0)
(0.130951 -9.8836e-07 0)
(0.130939 1.26436e-05 0)
(0.1309 2.61958e-05 0)
(0.130834 3.96603e-05 0)
(0.130741 5.30296e-05 0)
(0.130622 6.62963e-05 0)
(0.130476 7.94531e-05 0)
(0.130304 9.24931e-05 0)
(0.130106 0.00010541 0)
(0.129882 0.000118197 0)
(0.129633 0.000130848 0)
(0.129358 0.000143357 0)
(0.129059 0.000155719 0)
(0.128735 0.000167929 0)
(0.128387 0.000179981 0)
(0.128015 0.000191871 0)
(0.12762 0.000203595 0)
(0.127201 0.000215149 0)
(0.126759 0.000226528 0)
(0.126295 0.00023773 0)
(0.125808 0.00024875 0)
(0.125299 0.000259588 0)
(0.124769 0.000270238 0)
(0.124218 0.000280701 0)
(0.123646 0.000290973 0)
(0.123054 0.000301052 0)
(0.122442 0.000310938 0)
(0.12181 0.000320629 0)
(0.121159 0.000330124 0)
(0.12049 0.000339422 0)
(0.119801 0.000348523 0)
(0.119095 0.000357427 0)
(0.118371 0.000366134 0)
(0.11763 0.000374644 0)
(0.116873 0.000382957 0)
(0.116098 0.000391074 0)
(0.115308 0.000398995 0)
(0.114502 0.000406723 0)
(0.113681 0.000414258 0)
(0.112845 0.000421601 0)
(0.111995 0.000428753 0)
(0.11113 0.000435718 0)
(0.110251 0.000442495 0)
(0.10936 0.000449088 0)
(0.108455 0.000455498 0)
(0.107538 0.000461728 0)
(0.106608 0.000467779 0)
(0.105666 0.000473654 0)
(0.104713 0.000479356 0)
(0.103749 0.000484887 0)
(0.102773 0.00049025 0)
(0.101787 0.000495447 0)
(0.100791 0.000500481 0)
(0.0997854 0.000505356 0)
(0.0987698 0.000510073 0)
(0.097745 0.000514636 0)
(0.0967111 0.000519047 0)
(0.0956686 0.00052331 0)
(0.0946178 0.000527428 0)
(0.0935588 0.000531403 0)
(0.092492 0.000535239 0)
(0.0914177 0.000538939 0)
(0.0903361 0.000542506 0)
(0.0892475 0.000545942 0)
(0.0881522 0.000549252 0)
(0.0870504 0.000552437 0)
(0.0859424 0.000555501 0)
(0.0848283 0.000558447 0)
(0.0837085 0.000561279 0)
(0.0825831 0.000563998 0)
(0.0814524 0.000566608 0)
(0.0803165 0.000569112 0)
(0.0791758 0.000571513 0)
(0.0780304 0.000573814 0)
(0.0768805 0.000576017 0)
(0.0757262 0.000578126 0)
(0.0745679 0.000580143 0)
(0.0734056 0.000582071 0)
(0.0722395 0.000583913 0)
(0.0710698 0.000585671 0)
(0.0698967 0.000587349 0)
(0.0687204 0.000588948 0)
(0.0675409 0.000590471 0)
(0.0663584 0.000591921 0)
(0.0651731 0.0005933 0)
(0.0639851 0.000594611 0)
(0.0627946 0.000595857 0)
(0.0616016 0.000597039 0)
(0.0604064 0.000598159 0)
(0.0592089 0.000599221 0)
(0.0580094 0.000600226 0)
(0.056808 0.000601176 0)
(0.0556047 0.000602074 0)
(0.0543996 0.000602922 0)
(0.053193 0.000603722 0)
(0.0519847 0.000604475 0)
(0.050775 0.000605184 0)
(0.0495639 0.000605851 0)
(0.0483516 0.000606477 0)
(0.047138 0.000607065 0)
(0.0459233 0.000607615 0)
(0.0447075 0.00060813 0)
(0.0434907 0.000608612 0)
(0.042273 0.000609061 0)
(0.0410544 0.000609481 0)
(0.0398351 0.000609871 0)
(0.0386149 0.000610234 0)
(0.0373941 0.000610571 0)
(0.0361726 0.000610884 0)
(0.0349505 0.000611174 0)
(0.0337279 0.000611441 0)
(0.0325048 0.000611688 0)
(0.0312811 0.000611916 0)
(0.0300571 0.000612125 0)
(0.0288326 0.000612317 0)
(0.0276078 0.000612494 0)
(0.0263826 0.000612655 0)
(0.0251572 0.000612802 0)
(0.0239314 0.000612936 0)
(0.0227054 0.000613058 0)
(0.0214792 0.000613168 0)
(0.0202527 0.000613268 0)
(0.0190261 0.000613358 0)
(0.0177993 0.000613439 0)
(0.0165723 0.000613512 0)
(0.0153452 0.000613577 0)
(0.014118 0.000613634 0)
(0.0128907 0.000613685 0)
(0.0116633 0.00061373 0)
(0.0104358 0.000613769 0)
(0.00920819 0.000613803 0)
(0.00798055 0.000613831 0)
(0.00675286 0.000613855 0)
(0.00552512 0.000613875 0)
(0.00429735 0.00061389 0)
(0.00306956 0.000613902 0)
(0.00184174 0.000613909 0)
(0.000613915 0.000613913 0)
(0.000753292 -0.00225983 0)
(0.00225986 -0.00225979 0)
(0.00376639 -0.00225971 0)
(0.00527286 -0.00225959 0)
(0.00677923 -0.00225943 0)
(0.00828548 -0.00225922 0)
(0.00979158 -0.00225896 0)
(0.0112975 -0.00225866 0)
(0.0128032 -0.0022583 0)
(0.0143086 -0.00225789 0)
(0.0158138 -0.00225742 0)
(0.0173186 -0.00225688 0)
(0.018823 -0.00225627 0)
(0.0203271 -0.00225559 0)
(0.0218306 -0.00225482 0)
(0.0233336 -0.00225396 0)
(0.024836 -0.00225301 0)
(0.0263377 -0.00225196 0)
(0.0278387 -0.0022508 0)
(0.0293389 -0.00224952 0)
(0.0308383 -0.00224812 0)
(0.0323366 -0.00224657 0)
(0.0338339 -0.00224489 0)
(0.03533 -0.00224305 0)
(0.0368248 -0.00224104 0)
(0.0383182 -0.00223886 0)
(0.0398102 -0.00223649 0)
(0.0413005 -0.00223392 0)
(0.042789 -0.00223115 0)
(0.0442756 -0.00222815 0)
(0.0457601 -0.00222493 0)
(0.0472425 -0.00222145 0)
(0.0487224 -0.00221772 0)
(0.0501997 -0.00221371 0)
(0.0516744 -0.00220943 0)
(0.053146 -0.00220484 0)
(0.0546145 -0.00219994 0)
(0.0560797 -0.00219471 0)
(0.0575412 -0.00218914 0)
(0.0589989 -0.00218322 0)
(0.0604526 -0.00217693 0)
(0.061902 -0.00217025 0)
(0.0633468 -0.00216318 0)
(0.0647867 -0.00215569 0)
(0.0662215 -0.00214777 0)
(0.067651 -0.00213942 0)
(0.0690747 -0.0021306 0)
(0.0704923 -0.00212131 0)
(0.0719037 -0.00211154 0)
(0.0733083 -0.00210127 0)
(0.074706 -0.00209048 0)
(0.0760963 -0.00207916 0)
(0.0774789 -0.0020673 0)
(0.0788534 -0.00205489 0)
(0.0802194 -0.0020419 0)
(0.0815766 -0.00202834 0)
(0.0829246 -0.00201418 0)
(0.0842629 -0.00199942 0)
(0.0855912 -0.00198404 0)
(0.0869091 -0.00196804 0)
(0.0882161 -0.00195139 0)
(0.0895117 -0.00193411 0)
(0.0907957 -0.00191616 0)
(0.0920674 -0.00189755 0)
(0.0933265 -0.00187827 0)
(0.0945726 -0.00185831 0)
(0.0958051 -0.00183767 0)
(0.0970237 -0.00181633 0)
(0.0982278 -0.00179431 0)
(0.0994169 -0.00177158 0)
(0.100591 -0.00174816 0)
(0.101749 -0.00172404 0)
(0.10289 -0.00169921 0)
(0.104015 -0.00167368 0)
(0.105123 -0.00164746 0)
(0.106213 -0.00162054 0)
(0.107284 -0.00159292 0)
(0.108337 -0.00156461 0)
(0.109371 -0.00153563 0)
(0.110386 -0.00150596 0)
(0.11138 -0.00147563 0)
(0.112354 -0.00144464 0)
(0.113307 -0.001413 0)
(0.114239 -0.00138072 0)
(0.115149 -0.00134782 0)
(0.116037 -0.00131431 0)
(0.116902 -0.0012802 0)
(0.117744 -0.00124551 0)
(0.118563 -0.00121025 0)
(0.119359 -0.00117445 0)
(0.12013 -0.00113811 0)
(0.120877 -0.00110127 0)
(0.121599 -0.00106394 0)
(0.122296 -0.00102614 0)
(0.122968 -0.000987894 0)
(0.123614 -0.000949226 0)
(0.124234 -0.000910158 0)
(0.124828 -0.000870715 0)
(0.125395 -0.000830921 0)
(0.125936 -0.000790803 0)
(0.12645 -0.000750385 0)
(0.126937 -0.000709695 0)
(0.127396 -0.000668759 0)
(0.127829 -0.000627604 0)
(0.128233 -0.000586258 0)
(0.12861 -0.000544749 0)
(0.12896 -0.000503103 0)
(0.129281 -0.000461351 0)
(0.129575 -0.000419518 0)
(0.129841 -0.000377634 0)
(0.130079 -0.000335726 0)
(0.130288 -0.000293823 0)
(0.13047 -0.000251951 0)
(0.130624 -0.000210138 0)
(0.13075 -0.000168411 0)
(0.130849 -0.000126797 0)
(0.130919 -8.53225e-05 0)
(0.130962 -4.40129e-05 0)
(0.130978 -2.89383e-06 0)
(0.130966 3.801e-05 0)
(0.130927 7.86744e-05 0)
(0.130861 0.000119076 0)
(0.130768 0.000159191 0)
(0.130648 0.000198998 0)
(0.130502 0.000238475 0)
(0.13033 0.000277602 0)
(0.130131 0.000316358 0)
(0.129907 0.000354725 0)
(0.129658 0.000392684 0)
(0.129383 0.000430217 0)
(0.129084 0.000467309 0)
(0.12876 0.000503943 0)
(0.128411 0.000540104 0)
(0.128039 0.000575779 0)
(0.127643 0.000610955 0)
(0.127224 0.000645619 0)
(0.126781 0.00067976 0)
(0.126317 0.000713368 0)
(0.12583 0.000746433 0)
(0.125321 0.000778947 0)
(0.12479 0.000810902 0)
(0.124239 0.000842291 0)
(0.123667 0.000873108 0)
(0.123074 0.000903349 0)
(0.122461 0.000933007 0)
(0.121829 0.000962081 0)
(0.121178 0.000990566 0)
(0.120508 0.00101846 0)
(0.119819 0.00104577 0)
(0.119113 0.00107248 0)
(0.118389 0.0010986 0)
(0.117647 0.00112413 0)
(0.116889 0.00114906 0)
(0.116114 0.00117341 0)
(0.115324 0.00119718 0)
(0.114517 0.00122036 0)
(0.113696 0.00124296 0)
(0.112859 0.00126499 0)
(0.112009 0.00128645 0)
(0.111144 0.00130734 0)
(0.110265 0.00132767 0)
(0.109373 0.00134744 0)
(0.108468 0.00136667 0)
(0.10755 0.00138536 0)
(0.10662 0.00140351 0)
(0.105678 0.00142113 0)
(0.104724 0.00143824 0)
(0.103759 0.00145483 0)
(0.102784 0.00147091 0)
(0.101798 0.0014865 0)
(0.100801 0.0015016 0)
(0.0997949 0.00151622 0)
(0.0987791 0.00153037 0)
(0.0977539 0.00154406 0)
(0.0967198 0.00155729 0)
(0.095677 0.00157007 0)
(0.0946258 0.00158242 0)
(0.0935665 0.00159435 0)
(0.0924995 0.00160585 0)
(0.0914249 0.00161695 0)
(0.0903431 0.00162765 0)
(0.0892542 0.00163795 0)
(0.0881587 0.00164788 0)
(0.0870566 0.00165743 0)
(0.0859483 0.00166662 0)
(0.084834 0.00167546 0)
(0.083714 0.00168395 0)
(0.0825884 0.0016921 0)
(0.0814574 0.00169993 0)
(0.0803214 0.00170744 0)
(0.0791805 0.00171464 0)
(0.0780348 0.00172154 0)
(0.0768847 0.00172814 0)
(0.0757303 0.00173447 0)
(0.0745718 0.00174052 0)
(0.0734093 0.0017463 0)
(0.0722431 0.00175182 0)
(0.0710732 0.00175709 0)
(0.0699 0.00176212 0)
(0.0687234 0.00176692 0)
(0.0675438 0.00177148 0)
(0.0663612 0.00177583 0)
(0.0651758 0.00177997 0)
(0.0639877 0.0017839 0)
(0.062797 0.00178763 0)
(0.0616039 0.00179117 0)
(0.0604085 0.00179453 0)
(0.059211 0.00179772 0)
(0.0580114 0.00180073 0)
(0.0568098 0.00180358 0)
(0.0556064 0.00180627 0)
(0.0544013 0.00180881 0)
(0.0531945 0.00181121 0)
(0.0519862 0.00181347 0)
(0.0507764 0.00181559 0)
(0.0495652 0.00181759 0)
(0.0483528 0.00181947 0)
(0.0471391 0.00182123 0)
(0.0459243 0.00182288 0)
(0.0447085 0.00182442 0)
(0.0434916 0.00182587 0)
(0.0422739 0.00182721 0)
(0.0410552 0.00182847 0)
(0.0398358 0.00182964 0)
(0.0386156 0.00183073 0)
(0.0373947 0.00183174 0)
(0.0361732 0.00183267 0)
(0.0349511 0.00183354 0)
(0.0337284 0.00183434 0)
(0.0325052 0.00183508 0)
(0.0312816 0.00183576 0)
(0.0300575 0.00183639 0)
(0.028833 0.00183697 0)
(0.0276081 0.00183749 0)
(0.0263829 0.00183798 0)
(0.0251574 0.00183842 0)
(0.0239317 0.00183882 0)
(0.0227056 0.00183918 0)
(0.0214794 0.00183951 0)
(0.0202529 0.00183981 0)
(0.0190263 0.00184008 0)
(0.0177994 0.00184033 0)
(0.0165725 0.00184054 0)
(0.0153453 0.00184074 0)
(0.0141181 0.00184091 0)
(0.0128908 0.00184106 0)
(0.0116633 0.00184119 0)
(0.0104358 0.00184131 0)
(0.00920825 0.00184141 0)
(0.0079806 0.0018415 0)
(0.0067529 0.00184157 0)
(0.00552516 0.00184163 0)
(0.00429738 0.00184167 0)
(0.00306957 0.00184171 0)
(0.00184175 0.00184173 0)
(0.000613919 0.00184174 0)
(0.000753318 -0.00376643 0)
(0.00225994 -0.00376636 0)
(0.00376653 -0.00376623 0)
(0.00527305 -0.00376603 0)
(0.00677948 -0.00376576 0)
(0.00828579 -0.00376542 0)
(0.00979195 -0.003765 0)
(0.0112979 -0.00376449 0)
(0.0128037 -0.0037639 0)
(0.0143092 -0.00376322 0)
(0.0158145 -0.00376243 0)
(0.0173194 -0.00376154 0)
(0.0188239 -0.00376053 0)
(0.020328 -0.0037594 0)
(0.0218317 -0.00375813 0)
(0.0233348 -0.00375671 0)
(0.0248373 -0.00375514 0)
(0.0263392 -0.00375339 0)
(0.0278404 -0.00375147 0)
(0.0293407 -0.00374934 0)
(0.0308402 -0.00374701 0)
(0.0323387 -0.00374445 0)
(0.0338362 -0.00374165 0)
(0.0353325 -0.00373859 0)
(0.0368276 -0.00373526 0)
(0.0383213 -0.00373164 0)
(0.0398135 -0.0037277 0)
(0.041304 -0.00372344 0)
(0.0427928 -0.00371883 0)
(0.0442797 -0.00371385 0)
(0.0457646 -0.00370848 0)
(0.0472473 -0.00370271 0)
(0.0487276 -0.0036965 0)
(0.0502053 -0.00368984 0)
(0.0516803 -0.00368271 0)
(0.0531523 -0.00367508 0)
(0.0546213 -0.00366692 0)
(0.0560869 -0.00365823 0)
(0.0575489 -0.00364896 0)
(0.0590071 -0.00363911 0)
(0.0604613 -0.00362864 0)
(0.0619112 -0.00361753 0)
(0.0633565 -0.00360575 0)
(0.064797 -0.00359329 0)
(0.0662324 -0.00358011 0)
(0.0676624 -0.0035662 0)
(0.0690867 -0.00355152 0)
(0.0705051 -0.00353606 0)
(0.0719171 -0.00351979 0)
(0.0733224 -0.00350268 0)
(0.0747207 -0.00348471 0)
(0.0761117 -0.00346587 0)
(0.0774951 -0.00344612 0)
(0.0788703 -0.00342544 0)
(0.0802371 -0.00340382 0)
(0.0815951 -0.00338123 0)
(0.0829439 -0.00335764 0)
(0.084283 -0.00333305 0)
(0.0856122 -0.00330743 0)
(0.0869309 -0.00328077 0)
(0.0882387 -0.00325304 0)
(0.0895352 -0.00322424 0)
(0.0908201 -0.00319434 0)
(0.0920927 -0.00316333 0)
(0.0933527 -0.0031312 0)
(0.0945997 -0.00309794 0)
(0.0958331 -0.00306354 0)
(0.0970526 -0.00302799 0)
(0.0982576 -0.00299129 0)
(0.0994477 -0.00295342 0)
(0.100622 -0.00291438 0)
(0.101781 -0.00287417 0)
(0.102924 -0.0028328 0)
(0.10405 -0.00279025 0)
(0.105158 -0.00274654 0)
(0.106249 -0.00270166 0)
(0.107322 -0.00265563 0)
(0.108376 -0.00260845 0)
(0.10941 -0.00256013 0)
(0.110426 -0.00251068 0)
(0.111421 -0.00246012 0)
(0.112396 -0.00240845 0)
(0.11335 -0.00235571 0)
(0.114282 -0.0023019 0)
(0.115193 -0.00224705 0)
(0.116082 -0.00219118 0)
(0.116948 -0.00213431 0)
(0.117791 -0.00207647 0)
(0.118611 -0.00201769 0)
(0.119407 -0.001958 0)
(0.120179 -0.00189742 0)
(0.120926 -0.00183599 0)
(0.121649 -0.00177375 0)
(0.122347 -0.00171073 0)
(0.123019 -0.00164696 0)
(0.123665 -0.00158249 0)
(0.124286 -0.00151735 0)
(0.12488 -0.00145158 0)
(0.125448 -0.00138523 0)
(0.12599 -0.00131834 0)
(0.126504 -0.00125094 0)
(0.126991 -0.0011831 0)
(0.127451 -0.00111484 0)
(0.127884 -0.00104622 0)
(0.128289 -0.000977278 0)
(0.128666 -0.000908065 0)
(0.129016 -0.000838625 0)
(0.129337 -0.000769006 0)
(0.129631 -0.000699254 0)
(0.129897 -0.000629416 0)
(0.130135 -0.000559539 0)
(0.130344 -0.000489669 0)
(0.130526 -0.000419852 0)
(0.13068 -0.000350134 0)
(0.130806 -0.00028056 0)
(0.130904 -0.000211174 0)
(0.130975 -0.000142021 0)
(0.131017 -7.31434e-05 0)
(0.131033 -4.58398e-06 0)
(0.13102 6.3616e-05 0)
(0.130981 0.000131416 0)
(0.130914 0.000198777 0)
(0.130821 0.000265661 0)
(0.130701 0.000332029 0)
(0.130554 0.000397848 0)
(0.130382 0.000463081 0)
(0.130183 0.000527696 0)
(0.129958 0.000591661 0)
(0.129708 0.000654945 0)
(0.129433 0.000717519 0)
(0.129133 0.000779356 0)
(0.128808 0.000840429 0)
(0.128459 0.000900714 0)
(0.128086 0.000960187 0)
(0.12769 0.00101883 0)
(0.12727 0.00107661 0)
(0.126827 0.00113353 0)
(0.126361 0.00118955 0)
(0.125873 0.00124467 0)
(0.125364 0.00129887 0)
(0.124833 0.00135213 0)
(0.12428 0.00140445 0)
(0.123707 0.00145582 0)
(0.123114 0.00150623 0)
(0.122501 0.00155566 0)
(0.121868 0.00160412 0)
(0.121216 0.0016516 0)
(0.120545 0.00169809 0)
(0.119855 0.0017436 0)
(0.119148 0.00178812 0)
(0.118423 0.00183165 0)
(0.117681 0.0018742 0)
(0.116922 0.00191576 0)
(0.116147 0.00195634 0)
(0.115355 0.00199594 0)
(0.114548 0.00203458 0)
(0.113726 0.00207224 0)
(0.112889 0.00210895 0)
(0.112037 0.0021447 0)
(0.111171 0.00217952 0)
(0.110292 0.0022134 0)
(0.109399 0.00224635 0)
(0.108493 0.00227839 0)
(0.107574 0.00230953 0)
(0.106644 0.00233977 0)
(0.105701 0.00236913 0)
(0.104747 0.00239763 0)
(0.103781 0.00242527 0)
(0.102805 0.00245207 0)
(0.101818 0.00247805 0)
(0.100821 0.0025032 0)
(0.0998141 0.00252756 0)
(0.0987976 0.00255113 0)
(0.0977719 0.00257393 0)
(0.0967371 0.00259597 0)
(0.0956937 0.00261727 0)
(0.094642 0.00263785 0)
(0.0935822 0.00265771 0)
(0.0925146 0.00267687 0)
(0.0914395 0.00269536 0)
(0.0903571 0.00271318 0)
(0.0892677 0.00273034 0)
(0.0881717 0.00274687 0)
(0.0870691 0.00276279 0)
(0.0859604 0.00277809 0)
(0.0848456 0.00279281 0)
(0.0837251 0.00280695 0)
(0.082599 0.00282053 0)
(0.0814677 0.00283357 0)
(0.0803312 0.00284607 0)
(0.0791899 0.00285806 0)
(0.0780439 0.00286955 0)
(0.0768934 0.00288056 0)
(0.0757386 0.00289109 0)
(0.0745797 0.00290116 0)
(0.0734168 0.00291078 0)
(0.0722503 0.00291998 0)
(0.0710801 0.00292876 0)
(0.0699065 0.00293713 0)
(0.0687297 0.00294511 0)
(0.0675498 0.00295272 0)
(0.0663669 0.00295995 0)
(0.0651812 0.00296684 0)
(0.0639928 0.00297338 0)
(0.0628019 0.0029796 0)
(0.0616085 0.0029855 0)
(0.0604129 0.00299109 0)
(0.0592151 0.00299638 0)
(0.0580153 0.0030014 0)
(0.0568135 0.00300614 0)
(0.0556099 0.00301062 0)
(0.0544046 0.00301485 0)
(0.0531976 0.00301884 0)
(0.0519891 0.0030226 0)
(0.0507791 0.00302613 0)
(0.0495678 0.00302946 0)
(0.0483552 0.00303258 0)
(0.0471414 0.00303551 0)
(0.0459265 0.00303825 0)
(0.0447105 0.00304082 0)
(0.0434935 0.00304322 0)
(0.0422756 0.00304546 0)
(0.0410569 0.00304755 0)
(0.0398373 0.00304949 0)
(0.038617 0.0030513 0)
(0.037396 0.00305298 0)
(0.0361744 0.00305453 0)
(0.0349522 0.00305598 0)
(0.0337294 0.00305731 0)
(0.0325062 0.00305854 0)
(0.0312824 0.00305967 0)
(0.0300583 0.00306071 0)
(0.0288337 0.00306167 0)
(0.0276088 0.00306254 0)
(0.0263836 0.00306334 0)
(0.025158 0.00306407 0)
(0.0239322 0.00306474 0)
(0.0227061 0.00306534 0)
(0.0214798 0.00306589 0)
(0.0202533 0.00306639 0)
(0.0190266 0.00306683 0)
(0.0177997 0.00306724 0)
(0.0165727 0.0030676 0)
(0.0153456 0.00306792 0)
(0.0141183 0.0030682 0)
(0.012891 0.00306846 0)
(0.0116635 0.00306868 0)
(0.010436 0.00306887 0)
(0.00920837 0.00306904 0)
(0.0079807 0.00306918 0)
(0.00675299 0.0030693 0)
(0.00552523 0.00306939 0)
(0.00429743 0.00306947 0)
(0.00306961 0.00306953 0)
(0.00184177 0.00306957 0)
(0.000613926 0.00306958 0)
(0.000753358 -0.00527309 0)
(0.00226006 -0.005273 0)
(0.00376673 -0.00527282 0)
(0.00527333 -0.00527254 0)
(0.00677985 -0.00527217 0)
(0.00828625 -0.00527169 0)
(0.00979251 -0.00527111 0)
(0.0112986 -0.00527041 0)
(0.0128045 -0.0052696 0)
(0.0143101 -0.00526865 0)
(0.0158155 -0.00526756 0)
(0.0173205 -0.00526632 0)
(0.0188252 -0.00526492 0)
(0.0203295 -0.00526335 0)
(0.0218333 -0.00526159 0)
(0.0233366 -0.00525962 0)
(0.0248393 -0.00525743 0)
(0.0263414 -0.00525501 0)
(0.0278428 -0.00525233 0)
(0.0293434 -0.00524938 0)
(0.0308432 -0.00524613 0)
(0.032342 -0.00524257 0)
(0.0338397 -0.00523867 0)
(0.0353364 -0.00523441 0)
(0.0368318 -0.00522977 0)
(0.0383258 -0.00522472 0)
(0.0398184 -0.00521924 0)
(0.0413093 -0.0052133 0)
(0.0427986 -0.00520688 0)
(0.044286 -0.00519993 0)
(0.0457713 -0.00519245 0)
(0.0472545 -0.00518439 0)
(0.0487353 -0.00517573 0)
(0.0502136 -0.00516644 0)
(0.0516891 -0.00515649 0)
(0.0531618 -0.00514583 0)
(0.0546314 -0.00513445 0)
(0.0560977 -0.00512231 0)
(0.0575604 -0.00510938 0)
(0.0590193 -0.00509561 0)
(0.0604742 -0.00508099 0)
(0.0619249 -0.00506547 0)
(0.0633711 -0.00504902 0)
(0.0648124 -0.0050316 0)
(0.0662487 -0.00501319 0)
(0.0676796 -0.00499375 0)
(0.0691048 -0.00497323 0)
(0.0705241 -0.00495162 0)
(0.0719371 -0.00492887 0)
(0.0733435 -0.00490495 0)
(0.0747429 -0.00487983 0)
(0.0761349 -0.00485348 0)
(0.0775193 -0.00482586 0)
(0.0788957 -0.00479695 0)
(0.0802637 -0.0047667 0)
(0.0816228 -0.0047351 0)
(0.0829728 -0.00470211 0)
(0.0843132 -0.00466771 0)
(0.0856436 -0.00463187 0)
(0.0869635 -0.00459457 0)
(0.0882727 -0.00455577 0)
(0.0895705 -0.00451546 0)
(0.0908566 -0.00447362 0)
(0.0921306 -0.00443023 0)
(0.093392 -0.00438527 0)
(0.0946404 -0.00433872 0)
(0.0958752 -0.00429057 0)
(0.097096 -0.00424081 0)
(0.0983024 -0.00418943 0)
(0.0994939 -0.00413642 0)
(0.10067 -0.00408177 0)
(0.10183 -0.00402548 0)
(0.102974 -0.00396755 0)
(0.104102 -0.00390799 0)
(0.105211 -0.00384678 0)
(0.106304 -0.00378395 0)
(0.107378 -0.00371949 0)
(0.108433 -0.00365342 0)
(0.109469 -0.00358576 0)
(0.110486 -0.00351651 0)
(0.111482 -0.0034457 0)
(0.112459 -0.00337335 0)
(0.113414 -0.00329948 0)
(0.114348 -0.00322412 0)
(0.11526 -0.0031473 0)
(0.116149 -0.00306904 0)
(0.117017 -0.00298939 0)
(0.117861 -0.00290838 0)
(0.118682 -0.00282605 0)
(0.119479 -0.00274243 0)
(0.120252 -0.00265758 0)
(0.121001 -0.00257153 0)
(0.121724 -0.00248434 0)
(0.122423 -0.00239606 0)
(0.123096 -0.00230673 0)
(0.123743 -0.00221641 0)
(0.124365 -0.00212516 0)
(0.12496 -0.00203303 0)
(0.125528 -0.00194008 0)
(0.12607 -0.00184637 0)
(0.126585 -0.00175196 0)
(0.127073 -0.00165691 0)
(0.127533 -0.00156129 0)
(0.127966 -0.00146515 0)
(0.128372 -0.00136857 0)
(0.128749 -0.00127161 0)
(0.129099 -0.00117433 0)
(0.129421 -0.00107679 0)
(0.129715 -0.000979076 0)
(0.129981 -0.000881238 0)
(0.130219 -0.000783345 0)
(0.130428 -0.000685462 0)
(0.13061 -0.000587655 0)
(0.130764 -0.000489986 0)
(0.13089 -0.000392519 0)
(0.130987 -0.000295318 0)
(0.131058 -0.000198443 0)
(0.1311 -0.000101956 0)
(0.131115 -5.91453e-06 0)
(0.131102 8.96221e-05 0)
(0.131062 0.000184597 0)
(0.130995 0.000278956 0)
(0.130901 0.000372645 0)
(0.13078 0.000465612 0)
(0.130633 0.000557806 0)
(0.13046 0.000649179 0)
(0.13026 0.000739685 0)
(0.130035 0.000829278 0)
(0.129784 0.000917917 0)
(0.129508 0.00100556 0)
(0.129207 0.00109217 0)
(0.128881 0.0011777 0)
(0.128531 0.00126214 0)
(0.128157 0.00134543 0)
(0.12776 0.00142755 0)
(0.127339 0.00150848 0)
(0.126895 0.00158818 0)
(0.126428 0.00166664 0)
(0.125939 0.00174382 0)
(0.125428 0.00181972 0)
(0.124896 0.00189431 0)
(0.124343 0.00196757 0)
(0.123769 0.0020395 0)
(0.123174 0.00211008 0)
(0.122559 0.00217929 0)
(0.121925 0.00224714 0)
(0.121272 0.00231362 0)
(0.1206 0.00237871 0)
(0.119909 0.00244242 0)
(0.119201 0.00250475 0)
(0.118475 0.00256569 0)
(0.117731 0.00262526 0)
(0.116971 0.00268344 0)
(0.116195 0.00274024 0)
(0.115402 0.00279568 0)
(0.114594 0.00284976 0)
(0.11377 0.00290248 0)
(0.112932 0.00295386 0)
(0.112079 0.00300391 0)
(0.111212 0.00305263 0)
(0.110332 0.00310005 0)
(0.109438 0.00314617 0)
(0.108531 0.00319101 0)
(0.107611 0.00323459 0)
(0.106679 0.00327691 0)
(0.105736 0.003318 0)
(0.10478 0.00335788 0)
(0.103814 0.00339656 0)
(0.102837 0.00343406 0)
(0.101849 0.0034704 0)
(0.100851 0.0035056 0)
(0.0998429 0.00353968 0)
(0.0988255 0.00357266 0)
(0.0977988 0.00360456 0)
(0.0967632 0.0036354 0)
(0.0957189 0.0036652 0)
(0.0946663 0.00369398 0)
(0.0936056 0.00372177 0)
(0.0925372 0.00374858 0)
(0.0914613 0.00377443 0)
(0.0903781 0.00379936 0)
(0.089288 0.00382337 0)
(0.0881912 0.00384649 0)
(0.0870879 0.00386875 0)
(0.0859784 0.00389015 0)
(0.0848629 0.00391074 0)
(0.0837417 0.00393051 0)
(0.082615 0.00394951 0)
(0.081483 0.00396774 0)
(0.0803459 0.00398522 0)
(0.079204 0.00400199 0)
(0.0780574 0.00401806 0)
(0.0769063 0.00403344 0)
(0.0757509 0.00404816 0)
(0.0745915 0.00406224 0)
(0.0734281 0.0040757 0)
(0.0722611 0.00408856 0)
(0.0710904 0.00410083 0)
(0.0699164 0.00411253 0)
(0.0687391 0.00412369 0)
(0.0675587 0.00413432 0)
(0.0663754 0.00414443 0)
(0.0651892 0.00415405 0)
(0.0640004 0.0041632 0)
(0.0628091 0.00417188 0)
(0.0616154 0.00418012 0)
(0.0604195 0.00418793 0)
(0.0592213 0.00419533 0)
(0.0580212 0.00420234 0)
(0.0568191 0.00420896 0)
(0.0556151 0.00421522 0)
(0.0544095 0.00422113 0)
(0.0532023 0.0042267 0)
(0.0519935 0.00423194 0)
(0.0507832 0.00423688 0)
(0.0495717 0.00424152 0)
(0.0483588 0.00424588 0)
(0.0471448 0.00424997 0)
(0.0459296 0.0042538 0)
(0.0447135 0.00425738 0)
(0.0434963 0.00426073 0)
(0.0422782 0.00426385 0)
(0.0410593 0.00426677 0)
(0.0398396 0.00426948 0)
(0.0386191 0.004272 0)
(0.037398 0.00427434 0)
(0.0361762 0.00427651 0)
(0.0349539 0.00427852 0)
(0.033731 0.00428037 0)
(0.0325076 0.00428209 0)
(0.0312837 0.00428366 0)
(0.0300595 0.00428511 0)
(0.0288348 0.00428644 0)
(0.0276098 0.00428766 0)
(0.0263845 0.00428878 0)
(0.0251588 0.00428979 0)
(0.0239329 0.00429072 0)
(0.0227068 0.00429156 0)
(0.0214804 0.00429232 0)
(0.0202539 0.00429301 0)
(0.0190271 0.00429363 0)
(0.0178002 0.00429419 0)
(0.0165731 0.00429469 0)
(0.015346 0.00429514 0)
(0.0141187 0.00429553 0)
(0.0128913 0.00429588 0)
(0.0116638 0.00429619 0)
(0.0104362 0.00429646 0)
(0.00920856 0.00429669 0)
(0.00798086 0.00429688 0)
(0.00675311 0.00429705 0)
(0.00552533 0.00429718 0)
(0.00429751 0.00429729 0)
(0.00306967 0.00429737 0)
(0.00184181 0.00429742 0)
(0.000613937 0.00429744 0)
(0.00075341 -0.00677985 0)
(0.00226022 -0.00677973 0)
(0.00376699 -0.0067795 0)
(0.0052737 -0.00677915 0)
(0.00678033 -0.00677868 0)
(0.00828685 -0.00677808 0)
(0.00979324 -0.00677734 0)
(0.0112995 -0.00677645 0)
(0.0128055 -0.00677542 0)
(0.0143113 -0.00677422 0)
(0.0158168 -0.00677284 0)
(0.017322 -0.00677127 0)
(0.0188269 -0.00676949 0)
(0.0203314 -0.00676749 0)
(0.0218354 -0.00676525 0)
(0.023339 -0.00676275 0)
(0.024842 -0.00675996 0)
(0.0263443 -0.00675688 0)
(0.027846 -0.00675347 0)
(0.029347 -0.0067497 0)
(0.0308471 -0.00674557 0)
(0.0323462 -0.00674102 0)
(0.0338444 -0.00673605 0)
(0.0353415 -0.00673062 0)
(0.0368373 -0.00672469 0)
(0.0383318 -0.00671825 0)
(0.0398249 -0.00671125 0)
(0.0413164 -0.00670365 0)
(0.0428062 -0.00669544 0)
(0.0442942 -0.00668656 0)
(0.0457802 -0.00667699 0)
(0.047264 -0.00666668 0)
(0.0487455 -0.0066556 0)
(0.0502246 -0.00664371 0)
(0.0517009 -0.00663096 0)
(0.0531744 -0.00661732 0)
(0.0546448 -0.00660275 0)
(0.056112 -0.00658719 0)
(0.0575756 -0.00657062 0)
(0.0590355 -0.00655298 0)
(0.0604915 -0.00653424 0)
(0.0619432 -0.00651434 0)
(0.0633904 -0.00649325 0)
(0.0648329 -0.00647092 0)
(0.0662703 -0.0064473 0)
(0.0677024 -0.00642236 0)
(0.0691289 -0.00639605 0)
(0.0705495 -0.00636831 0)
(0.0719638 -0.00633912 0)
(0.0733715 -0.00630843 0)
(0.0747723 -0.00627619 0)
(0.0761658 -0.00624236 0)
(0.0775517 -0.0062069 0)
(0.0789295 -0.00616978 0)
(0.080299 -0.00613094 0)
(0.0816598 -0.00609036 0)
(0.0830114 -0.006048 0)
(0.0843534 -0.00600381 0)
(0.0856854 -0.00595778 0)
(0.0870071 -0.00590985 0)
(0.0883179 -0.00586001 0)
(0.0896175 -0.00580822 0)
(0.0909054 -0.00575446 0)
(0.0921812 -0.0056987 0)
(0.0934444 -0.00564092 0)
(0.0946945 -0.0055811 0)
(0.0959312 -0.00551921 0)
(0.0971539 -0.00545525 0)
(0.0983621 -0.0053892 0)
(0.0995555 -0.00532106 0)
(0.100734 -0.0052508 0)
(0.101896 -0.00517843 0)
(0.103042 -0.00510395 0)
(0.104171 -0.00502736 0)
(0.105282 -0.00494866 0)
(0.106376 -0.00486785 0)
(0.107452 -0.00478496 0)
(0.108509 -0.0047 0)
(0.109548 -0.00461297 0)
(0.110566 -0.00452391 0)
(0.111564 -0.00443283 0)
(0.112542 -0.00433977 0)
(0.113499 -0.00424475 0)
(0.114435 -0.00414781 0)
(0.115348 -0.00404898 0)
(0.11624 -0.00394831 0)
(0.117109 -0.00384584 0)
(0.117954 -0.00374161 0)
(0.118777 -0.00363568 0)
(0.119575 -0.0035281 0)
(0.12035 -0.00341893 0)
(0.1211 -0.00330822 0)
(0.121825 -0.00319603 0)
(0.122524 -0.00308244 0)
(0.123199 -0.00296749 0)
(0.123847 -0.00285128 0)
(0.12447 -0.00273386 0)
(0.125066 -0.0026153 0)
(0.125635 -0.00249569 0)
(0.126178 -0.0023751 0)
(0.126694 -0.00225361 0)
(0.127182 -0.0021313 0)
(0.127643 -0.00200825 0)
(0.128077 -0.00188453 0)
(0.128482 -0.00176025 0)
(0.128861 -0.00163547 0)
(0.129211 -0.00151028 0)
(0.129533 -0.00138477 0)
(0.129827 -0.00125902 0)
(0.130093 -0.00113311 0)
(0.130331 -0.00100714 0)
(0.13054 -0.000881181 0)
(0.130722 -0.000755318 0)
(0.130875 -0.000629635 0)
(0.131001 -0.000504214 0)
(0.131099 -0.000379136 0)
(0.131168 -0.000254479 0)
(0.13121 -0.000130321 0)
(0.131224 -6.74034e-06 0)
(0.131211 0.00011619 0)
(0.131171 0.000238395 0)
(0.131103 0.000359806 0)
(0.131008 0.000480352 0)
(0.130886 0.000599966 0)
(0.130738 0.000718585 0)
(0.130564 0.000836145 0)
(0.130363 0.000952586 0)
(0.130137 0.00106785 0)