/*--------------------------------*- C++ -*----------------------------------*\
| =========                 |                                                 |
| \\      /  F ield         | OpenFOAM: The Open Source CFD Toolbox           |
|  \\    /   O peration     | Version:  v2012                                 |
|   \\  /    A nd           | Website:  www.openfoam.com                      |
|    \\/     M anipulation  |                                                 |
\*---------------------------------------------------------------------------*/
FoamFile
{
    version     2.0;
    format      ascii;
    class       volVectorField;
    location    "2.6";
    object      Psi;
}
// * * * * * * * * * * * * * * * * * * * * * * * * * * * * * * * * * * * * * //

dimensions      [0 2 -1 0 0 0 0];


internalField   nonuniform List<vector> 
65536
(
(0 0 8.73381e-06)
(0 0 2.62008e-05)
(0 0 4.36662e-05)
(0 0 6.11289e-05)
(0 0 7.85879e-05)
(0 0 9.6042e-05)
(0 0 0.00011349)
(0 0 0.000130931)
(0 0 0.000148364)
(0 0 0.000165788)
(0 0 0.000183201)
(0 0 0.000200603)
(0 0 0.000217992)
(0 0 0.000235366)
(0 0 0.000252725)
(0 0 0.000270067)
(0 0 0.000287391)
(0 0 0.000304696)
(0 0 0.00032198)
(0 0 0.000339241)
(0 0 0.000356478)
(0 0 0.00037369)
(0 0 0.000390874)
(0 0 0.00040803)
(0 0 0.000425155)
(0 0 0.000442248)
(0 0 0.000459307)
(0 0 0.000476329)
(0 0 0.000493314)
(0 0 0.000510259)
(0 0 0.000527161)
(0 0 0.000544019)
(0 0 0.000560831)
(0 0 0.000577594)
(0 0 0.000594306)
(0 0 0.000610964)
(0 0 0.000627566)
(0 0 0.00064411)
(0 0 0.000660593)
(0 0 0.000677012)
(0 0 0.000693365)
(0 0 0.000709648)
(0 0 0.000725859)
(0 0 0.000741995)
(0 0 0.000758053)
(0 0 0.00077403)
(0 0 0.000789923)
(0 0 0.000805728)
(0 0 0.000821442)
(0 0 0.000837062)
(0 0 0.000852585)
(0 0 0.000868007)
(0 0 0.000883324)
(0 0 0.000898534)
(0 0 0.000913632)
(0 0 0.000928615)
(0 0 0.00094348)
(0 0 0.000958222)
(0 0 0.000972838)
(0 0 0.000987324)
(0 0 0.00100168)
(0 0 0.00101589)
(0 0 0.00102996)
(0 0 0.00104389)
(0 0 0.00105767)
(0 0 0.0010713)
(0 0 0.00108476)
(0 0 0.00109807)
(0 0 0.00111121)
(0 0 0.00112419)
(0 0 0.00113699)
(0 0 0.00114961)
(0 0 0.00116206)
(0 0 0.00117432)
(0 0 0.00118639)
(0 0 0.00119827)
(0 0 0.00120996)
(0 0 0.00122144)
(0 0 0.00123273)
(0 0 0.0012438)
(0 0 0.00125467)
(0 0 0.00126532)
(0 0 0.00127576)
(0 0 0.00128598)
(0 0 0.00129597)
(0 0 0.00130574)
(0 0 0.00131527)
(0 0 0.00132458)
(0 0 0.00133365)
(0 0 0.00134248)
(0 0 0.00135107)
(0 0 0.00135941)
(0 0 0.00136751)
(0 0 0.00137537)
(0 0 0.00138297)
(0 0 0.00139031)
(0 0 0.00139741)
(0 0 0.00140424)
(0 0 0.00141082)
(0 0 0.00141713)
(0 0 0.00142319)
(0 0 0.00142898)
(0 0 0.0014345)
(0 0 0.00143976)
(0 0 0.00144475)
(0 0 0.00144948)
(0 0 0.00145393)
(0 0 0.00145812)
(0 0 0.00146203)
(0 0 0.00146568)
(0 0 0.00146905)
(0 0 0.00147215)
(0 0 0.00147498)
(0 0 0.00147754)
(0 0 0.00147982)
(0 0 0.00148184)
(0 0 0.00148358)
(0 0 0.00148505)
(0 0 0.00148626)
(0 0 0.00148719)
(0 0 0.00148786)
(0 0 0.00148826)
(0 0 0.00148839)
(0 0 0.00148825)
(0 0 0.00148785)
(0 0 0.00148719)
(0 0 0.00148627)
(0 0 0.00148508)
(0 0 0.00148364)
(0 0 0.00148194)
(0 0 0.00147998)
(0 0 0.00147776)
(0 0 0.0014753)
(0 0 0.00147258)
(0 0 0.00146962)
(0 0 0.00146641)
(0 0 0.00146295)
(0 0 0.00145925)
(0 0 0.00145531)
(0 0 0.00145113)
(0 0 0.00144672)
(0 0 0.00144207)
(0 0 0.00143719)
(0 0 0.00143207)
(0 0 0.00142673)
(0 0 0.00142117)
(0 0 0.00141538)
(0 0 0.00140938)
(0 0 0.00140315)
(0 0 0.00139671)
(0 0 0.00139006)
(0 0 0.0013832)
(0 0 0.00137613)
(0 0 0.00136885)
(0 0 0.00136137)
(0 0 0.0013537)
(0 0 0.00134582)
(0 0 0.00133775)
(0 0 0.00132949)
(0 0 0.00132104)
(0 0 0.0013124)
(0 0 0.00130358)
(0 0 0.00129458)
(0 0 0.0012854)
(0 0 0.00127604)
(0 0 0.00126651)
(0 0 0.00125681)
(0 0 0.00124694)
(0 0 0.00123691)
(0 0 0.00122671)
(0 0 0.00121636)
(0 0 0.00120584)
(0 0 0.00119518)
(0 0 0.00118436)
(0 0 0.00117339)
(0 0 0.00116228)
(0 0 0.00115103)
(0 0 0.00113963)
(0 0 0.0011281)
(0 0 0.00111643)
(0 0 0.00110463)
(0 0 0.0010927)
(0 0 0.00108064)
(0 0 0.00106845)
(0 0 0.00105615)
(0 0 0.00104373)
(0 0 0.00103119)
(0 0 0.00101853)
(0 0 0.00100576)
(0 0 0.00099289)
(0 0 0.000979909)
(0 0 0.000966824)
(0 0 0.000953637)
(0 0 0.000940352)
(0 0 0.000926971)
(0 0 0.000913496)
(0 0 0.000899929)
(0 0 0.000886274)
(0 0 0.000872531)
(0 0 0.000858704)
(0 0 0.000844796)
(0 0 0.000830807)
(0 0 0.000816741)
(0 0 0.0008026)
(0 0 0.000788386)
(0 0 0.0007741)
(0 0 0.000759747)
(0 0 0.000745326)
(0 0 0.000730841)
(0 0 0.000716294)
(0 0 0.000701686)
(0 0 0.000687019)
(0 0 0.000672296)
(0 0 0.000657518)
(0 0 0.000642688)
(0 0 0.000627806)
(0 0 0.000612876)
(0 0 0.000597898)
(0 0 0.000582875)
(0 0 0.000567807)
(0 0 0.000552697)
(0 0 0.000537547)
(0 0 0.000522358)
(0 0 0.000507131)
(0 0 0.000491868)
(0 0 0.000476571)
(0 0 0.000461241)
(0 0 0.000445879)
(0 0 0.000430488)
(0 0 0.000415067)
(0 0 0.000399619)
(0 0 0.000384145)
(0 0 0.000368646)
(0 0 0.000353123)
(0 0 0.000337579)
(0 0 0.000322012)
(0 0 0.000306426)
(0 0 0.000290821)
(0 0 0.000275199)
(0 0 0.000259559)
(0 0 0.000243904)
(0 0 0.000228235)
(0 0 0.000212552)
(0 0 0.000196856)
(0 0 0.000181149)
(0 0 0.000165432)
(0 0 0.000149705)
(0 0 0.000133969)
(0 0 0.000118226)
(0 0 0.000102476)
(0 0 8.67202e-05)
(0 0 7.09596e-05)
(0 0 5.51949e-05)
(0 0 3.94271e-05)
(0 0 2.36572e-05)
(0 0 7.88586e-06)
(0 0 2.62018e-05)
(0 0 7.86037e-05)
(0 0 0.000131001)
(0 0 0.00018339)
(0 0 0.000235768)
(0 0 0.000288131)
(0 0 0.000340477)
(0 0 0.000392802)
(0 0 0.000445102)
(0 0 0.000497374)
(0 0 0.000549614)
(0 0 0.00060182)
(0 0 0.000653987)
(0 0 0.000706112)
(0 0 0.00075819)
(0 0 0.000810218)
(0 0 0.000862192)
(0 0 0.000914107)
(0 0 0.000965959)
(0 0 0.00101774)
(0 0 0.00106946)
(0 0 0.00112109)
(0 0 0.00117265)
(0 0 0.00122412)
(0 0 0.0012755)
(0 0 0.00132678)
(0 0 0.00137795)
(0 0 0.00142902)
(0 0 0.00147998)
(0 0 0.00153081)
(0 0 0.00158152)
(0 0 0.0016321)
(0 0 0.00168254)
(0 0 0.00173283)
(0 0 0.00178297)
(0 0 0.00183294)
(0 0 0.00188275)
(0 0 0.00193239)
(0 0 0.00198184)
(0 0 0.0020311)
(0 0 0.00208016)
(0 0 0.00212901)
(0 0 0.00217765)
(0 0 0.00222606)
(0 0 0.00227424)
(0 0 0.00232217)
(0 0 0.00236985)
(0 0 0.00241727)
(0 0 0.00246441)
(0 0 0.00251128)
(0 0 0.00255785)
(0 0 0.00260412)
(0 0 0.00265008)
(0 0 0.00269571)
(0 0 0.00274101)
(0 0 0.00278596)
(0 0 0.00283056)
(0 0 0.00287479)
(0 0 0.00291864)
(0 0 0.0029621)
(0 0 0.00300516)
(0 0 0.00304781)
(0 0 0.00309003)
(0 0 0.00313182)
(0 0 0.00317316)
(0 0 0.00321404)
(0 0 0.00325445)
(0 0 0.00329437)
(0 0 0.00333381)
(0 0 0.00337273)
(0 0 0.00341114)
(0 0 0.00344902)
(0 0 0.00348636)
(0 0 0.00352314)
(0 0 0.00355936)
(0 0 0.00359501)
(0 0 0.00363007)
(0 0 0.00366453)
(0 0 0.00369838)
(0 0 0.00373161)
(0 0 0.00376422)
(0 0 0.00379618)
(0 0 0.0038275)
(0 0 0.00385815)
(0 0 0.00388813)
(0 0 0.00391743)
(0 0 0.00394605)
(0 0 0.00397397)
(0 0 0.00400118)
(0 0 0.00402767)
(0 0 0.00405344)
(0 0 0.00407848)
(0 0 0.00410279)
(0 0 0.00412634)
(0 0 0.00414915)
(0 0 0.00417119)
(0 0 0.00419247)
(0 0 0.00421298)
(0 0 0.00423271)
(0 0 0.00425166)
(0 0 0.00426982)
(0 0 0.0042872)
(0 0 0.00430377)
(0 0 0.00431955)
(0 0 0.00433453)
(0 0 0.0043487)
(0 0 0.00436207)
(0 0 0.00437462)
(0 0 0.00438637)
(0 0 0.0043973)
(0 0 0.00440741)
(0 0 0.00441672)
(0 0 0.0044252)
(0 0 0.00443288)
(0 0 0.00443974)
(0 0 0.00444578)
(0 0 0.00445101)
(0 0 0.00445543)
(0 0 0.00445904)
(0 0 0.00446184)
(0 0 0.00446384)
(0 0 0.00446503)
(0 0 0.00446542)
(0 0 0.00446502)
(0 0 0.00446382)
(0 0 0.00446183)
(0 0 0.00445906)
(0 0 0.0044555)
(0 0 0.00445117)
(0 0 0.00444606)
(0 0 0.00444018)
(0 0 0.00443355)
(0 0 0.00442615)
(0 0 0.004418)
(0 0 0.0044091)
(0 0 0.00439947)
(0 0 0.0043891)
(0 0 0.004378)
(0 0 0.00436617)
(0 0 0.00435363)
(0 0 0.00434038)
(0 0 0.00432643)
(0 0 0.00431178)
(0 0 0.00429645)
(0 0 0.00428043)
(0 0 0.00426373)
(0 0 0.00424637)
(0 0 0.00422835)
(0 0 0.00420967)
(0 0 0.00419035)
(0 0 0.00417039)
(0 0 0.0041498)
(0 0 0.00412859)
(0 0 0.00410676)
(0 0 0.00408432)
(0 0 0.00406129)
(0 0 0.00403766)
(0 0 0.00401345)
(0 0 0.00398866)
(0 0 0.0039633)
(0 0 0.00393739)
(0 0 0.00391092)
(0 0 0.00388391)
(0 0 0.00385637)
(0 0 0.00382829)
(0 0 0.0037997)
(0 0 0.00377059)
(0 0 0.00374099)
(0 0 0.00371088)
(0 0 0.00368029)
(0 0 0.00364923)
(0 0 0.00361769)
(0 0 0.00358569)
(0 0 0.00355323)
(0 0 0.00352033)
(0 0 0.00348699)
(0 0 0.00345322)
(0 0 0.00341903)
(0 0 0.00338443)
(0 0 0.00334942)
(0 0 0.00331401)
(0 0 0.00327822)
(0 0 0.00324204)
(0 0 0.00320549)
(0 0 0.00316857)
(0 0 0.0031313)
(0 0 0.00309367)
(0 0 0.00305571)
(0 0 0.00301741)
(0 0 0.00297878)
(0 0 0.00293983)
(0 0 0.00290057)
(0 0 0.00286101)
(0 0 0.00282116)
(0 0 0.00278101)
(0 0 0.00274058)
(0 0 0.00269988)
(0 0 0.00265891)
(0 0 0.00261768)
(0 0 0.0025762)
(0 0 0.00253447)
(0 0 0.0024925)
(0 0 0.0024503)
(0 0 0.00240787)
(0 0 0.00236523)
(0 0 0.00232237)
(0 0 0.00227931)
(0 0 0.00223605)
(0 0 0.00219259)
(0 0 0.00214894)
(0 0 0.00210512)
(0 0 0.00206112)
(0 0 0.00201694)
(0 0 0.00197261)
(0 0 0.00192812)
(0 0 0.00188347)
(0 0 0.00183868)
(0 0 0.00179374)
(0 0 0.00174867)
(0 0 0.00170347)
(0 0 0.00165813)
(0 0 0.00161268)
(0 0 0.00156711)
(0 0 0.00152143)
(0 0 0.00147564)
(0 0 0.00142975)
(0 0 0.00138376)
(0 0 0.00133767)
(0 0 0.00129149)
(0 0 0.00124523)
(0 0 0.00119888)
(0 0 0.00115246)
(0 0 0.00110596)
(0 0 0.00105939)
(0 0 0.00101276)
(0 0 0.000966059)
(0 0 0.000919299)
(0 0 0.000872483)
(0 0 0.000825613)
(0 0 0.000778694)
(0 0 0.000731728)
(0 0 0.000684719)
(0 0 0.000637668)
(0 0 0.000590581)
(0 0 0.000543459)
(0 0 0.000496306)
(0 0 0.000449124)
(0 0 0.000401916)
(0 0 0.000354685)
(0 0 0.000307434)
(0 0 0.000260166)
(0 0 0.000212883)
(0 0 0.000165588)
(0 0 0.000118284)
(0 0 7.09728e-05)
(0 0 2.36581e-05)
(0 0 4.36714e-05)
(0 0 0.000131011)
(0 0 0.000218344)
(0 0 0.000305662)
(0 0 0.000392962)
(0 0 0.000480238)
(0 0 0.000567485)
(0 0 0.000654696)
(0 0 0.000741867)
(0 0 0.000828991)
(0 0 0.000916063)
(0 0 0.00100308)
(0 0 0.00109003)
(0 0 0.0011769)
(0 0 0.00126371)
(0 0 0.00135042)
(0 0 0.00143705)
(0 0 0.00152358)
(0 0 0.00161001)
(0 0 0.00169632)
(0 0 0.00178251)
(0 0 0.00186858)
(0 0 0.00195451)
(0 0 0.0020403)
(0 0 0.00212593)
(0 0 0.00221141)
(0 0 0.00229671)
(0 0 0.00238183)
(0 0 0.00246676)
(0 0 0.0025515)
(0 0 0.00263602)
(0 0 0.00272032)
(0 0 0.00280439)
(0 0 0.00288822)
(0 0 0.00297179)
(0 0 0.00305509)
(0 0 0.00313812)
(0 0 0.00322085)
(0 0 0.00330328)
(0 0 0.00338539)
(0 0 0.00346716)
(0 0 0.00354859)
(0 0 0.00362966)
(0 0 0.00371036)
(0 0 0.00379066)
(0 0 0.00387056)
(0 0 0.00395004)
(0 0 0.00402908)
(0 0 0.00410767)
(0 0 0.00418579)
(0 0 0.00426342)
(0 0 0.00434055)
(0 0 0.00441715)
(0 0 0.00449322)
(0 0 0.00456873)
(0 0 0.00464366)
(0 0 0.004718)
(0 0 0.00479173)
(0 0 0.00486483)
(0 0 0.00493728)
(0 0 0.00500906)
(0 0 0.00508015)
(0 0 0.00515053)
(0 0 0.00522019)
(0 0 0.00528911)
(0 0 0.00535725)
(0 0 0.00542461)
(0 0 0.00549117)
(0 0 0.00555691)
(0 0 0.00562179)
(0 0 0.00568582)
(0 0 0.00574896)
(0 0 0.00581121)
(0 0 0.00587253)
(0 0 0.00593291)
(0 0 0.00599233)
(0 0 0.00605077)
(0 0 0.00610822)
(0 0 0.00616465)
(0 0 0.00622006)
(0 0 0.00627441)
(0 0 0.00632769)
(0 0 0.00637989)
(0 0 0.00643099)
(0 0 0.00648097)
(0 0 0.00652982)
(0 0 0.00657752)
(0 0 0.00662406)
(0 0 0.00666942)
(0 0 0.00671359)
(0 0 0.00675655)
(0 0 0.00679829)
(0 0 0.0068388)
(0 0 0.00687807)
(0 0 0.00691609)
(0 0 0.00695283)
(0 0 0.00698831)
(0 0 0.00702249)
(0 0 0.00705538)
(0 0 0.00708697)
(0 0 0.00711725)
(0 0 0.00714621)
(0 0 0.00717384)
(0 0 0.00720014)
(0 0 0.00722511)
(0 0 0.00724873)
(0 0 0.00727101)
(0 0 0.00729194)
(0 0 0.00731151)
(0 0 0.00732973)
(0 0 0.00734659)
(0 0 0.0073621)
(0 0 0.00737625)
(0 0 0.00738903)
(0 0 0.00740046)
(0 0 0.00741054)
(0 0 0.00741925)
(0 0 0.00742662)
(0 0 0.00743263)
(0 0 0.0074373)
(0 0 0.00744062)
(0 0 0.00744261)
(0 0 0.00744326)
(0 0 0.00744258)
(0 0 0.00744058)
(0 0 0.00743726)
(0 0 0.00743263)
(0 0 0.0074267)
(0 0 0.00741947)
(0 0 0.00741095)
(0 0 0.00740115)
(0 0 0.00739008)
(0 0 0.00737775)
(0 0 0.00736416)
(0 0 0.00734933)
(0 0 0.00733326)
(0 0 0.00731597)
(0 0 0.00729746)
(0 0 0.00727775)
(0 0 0.00725684)
(0 0 0.00723475)
(0 0 0.00721149)
(0 0 0.00718707)
(0 0 0.0071615)
(0 0 0.0071348)
(0 0 0.00710696)
(0 0 0.00707802)
(0 0 0.00704797)
(0 0 0.00701684)
(0 0 0.00698463)
(0 0 0.00695135)
(0 0 0.00691702)
(0 0 0.00688166)
(0 0 0.00684527)
(0 0 0.00680787)
(0 0 0.00676947)
(0 0 0.00673008)
(0 0 0.00668972)
(0 0 0.0066484)
(0 0 0.00660613)
(0 0 0.00656293)
(0 0 0.00651881)
(0 0 0.00647378)
(0 0 0.00642786)
(0 0 0.00638106)
(0 0 0.0063334)
(0 0 0.00628488)
(0 0 0.00623553)
(0 0 0.00618535)
(0 0 0.00613436)
(0 0 0.00608257)
(0 0 0.00602999)
(0 0 0.00597665)
(0 0 0.00592255)
(0 0 0.0058677)
(0 0 0.00581213)
(0 0 0.00575584)
(0 0 0.00569885)
(0 0 0.00564117)
(0 0 0.00558281)
(0 0 0.00552379)
(0 0 0.00546412)
(0 0 0.00540381)
(0 0 0.00534289)
(0 0 0.00528135)
(0 0 0.00521922)
(0 0 0.0051565)
(0 0 0.00509321)
(0 0 0.00502937)
(0 0 0.00496499)
(0 0 0.00490007)
(0 0 0.00483463)
(0 0 0.00476869)
(0 0 0.00470225)
(0 0 0.00463533)
(0 0 0.00456794)
(0 0 0.0045001)
(0 0 0.00443181)
(0 0 0.00436308)
(0 0 0.00429394)
(0 0 0.00422438)
(0 0 0.00415443)
(0 0 0.00408409)
(0 0 0.00401337)
(0 0 0.00394229)
(0 0 0.00387085)
(0 0 0.00379907)
(0 0 0.00372696)
(0 0 0.00365452)
(0 0 0.00358177)
(0 0 0.00350872)
(0 0 0.00343538)
(0 0 0.00336176)
(0 0 0.00328786)
(0 0 0.0032137)
(0 0 0.00313928)
(0 0 0.00306462)
(0 0 0.00298972)
(0 0 0.0029146)
(0 0 0.00283925)
(0 0 0.00276369)
(0 0 0.00268793)
(0 0 0.00261198)
(0 0 0.00253584)
(0 0 0.00245952)
(0 0 0.00238302)
(0 0 0.00230637)
(0 0 0.00222955)
(0 0 0.00215259)
(0 0 0.00207548)
(0 0 0.00199823)
(0 0 0.00192085)
(0 0 0.00184335)
(0 0 0.00176573)
(0 0 0.001688)
(0 0 0.00161016)
(0 0 0.00153223)
(0 0 0.0014542)
(0 0 0.00137608)
(0 0 0.00129788)
(0 0 0.0012196)
(0 0 0.00114124)
(0 0 0.00106282)
(0 0 0.00098434)
(0 0 0.0009058)
(0 0 0.000827208)
(0 0 0.000748568)
(0 0 0.000669885)
(0 0 0.000591164)
(0 0 0.00051241)
(0 0 0.000433626)
(0 0 0.000354818)
(0 0 0.00027599)
(0 0 0.000197147)
(0 0 0.000118293)
(0 0 3.94316e-05)
(0 0 6.11436e-05)
(0 0 0.000183427)
(0 0 0.0003057)
(0 0 0.000427953)
(0 0 0.000550181)
(0 0 0.000672375)
(0 0 0.000794528)
(0 0 0.000916632)
(0 0 0.00103868)
(0 0 0.00116066)
(0 0 0.00128257)
(0 0 0.0014044)
(0 0 0.00152613)
(0 0 0.00164777)
(0 0 0.00176931)
(0 0 0.00189072)
(0 0 0.00201201)
(0 0 0.00213316)
(0 0 0.00225417)
(0 0 0.00237502)
(0 0 0.0024957)
(0 0 0.0026162)
(0 0 0.00273652)
(0 0 0.00285663)
(0 0 0.00297653)
(0 0 0.00309621)
(0 0 0.00321565)
(0 0 0.00333483)
(0 0 0.00345375)
(0 0 0.00357239)
(0 0 0.00369074)
(0 0 0.00380878)
(0 0 0.00392649)
(0 0 0.00404386)
(0 0 0.00416088)
(0 0 0.00427752)
(0 0 0.00439377)
(0 0 0.00450962)
(0 0 0.00462504)
(0 0 0.00474001)
(0 0 0.00485451)
(0 0 0.00496854)
(0 0 0.00508206)
(0 0 0.00519505)
(0 0 0.0053075)
(0 0 0.00541938)
(0 0 0.00553067)
(0 0 0.00564135)
(0 0 0.0057514)
(0 0 0.00586079)
(0 0 0.00596949)
(0 0 0.00607749)
(0 0 0.00618477)
(0 0 0.00629128)
(0 0 0.00639702)
(0 0 0.00650196)
(0 0 0.00660606)
(0 0 0.00670931)
(0 0 0.00681167)
(0 0 0.00691312)
(0 0 0.00701364)
(0 0 0.0071132)
(0 0 0.00721177)
(0 0 0.00730932)
(0 0 0.00740582)
(0 0 0.00750125)
(0 0 0.00759559)
(0 0 0.0076888)
(0 0 0.00778085)
(0 0 0.00787172)
(0 0 0.00796139)
(0 0 0.00804981)
(0 0 0.00813698)
(0 0 0.00822285)
(0 0 0.00830741)
(0 0 0.00839063)
(0 0 0.00847248)
(0 0 0.00855293)
(0 0 0.00863196)
(0 0 0.00870955)
(0 0 0.00878566)
(0 0 0.00886029)
(0 0 0.00893339)
(0 0 0.00900495)
(0 0 0.00907495)
(0 0 0.00914336)
(0 0 0.00921016)
(0 0 0.00927533)
(0 0 0.00933886)
(0 0 0.00940071)
(0 0 0.00946087)
(0 0 0.00951933)
(0 0 0.00957607)
(0 0 0.00963106)
(0 0 0.00968429)
(0 0 0.00973575)
(0 0 0.00978543)
(0 0 0.0098333)
(0 0 0.00987936)
(0 0 0.0099236)
(0 0 0.009966)
(0 0 0.0100065)
(0 0 0.0100452)
(0 0 0.0100821)
(0 0 0.010117)
(0 0 0.0101501)
(0 0 0.0101813)
(0 0 0.0102106)
(0 0 0.010238)
(0 0 0.0102635)
(0 0 0.0102871)
(0 0 0.0103088)
(0 0 0.0103286)
(0 0 0.0103465)
(0 0 0.0103625)
(0 0 0.0103766)
(0 0 0.0103888)
(0 0 0.0103992)
(0 0 0.0104076)
(0 0 0.0104141)
(0 0 0.0104187)
(0 0 0.0104215)
(0 0 0.0104224)
(0 0 0.0104215)
(0 0 0.0104187)
(0 0 0.010414)
(0 0 0.0104075)
(0 0 0.0103992)
(0 0 0.0103891)
(0 0 0.0103771)
(0 0 0.0103634)
(0 0 0.0103479)
(0 0 0.0103306)
(0 0 0.0103116)
(0 0 0.0102908)
(0 0 0.0102683)
(0 0 0.0102441)
(0 0 0.0102181)
(0 0 0.0101905)
(0 0 0.0101612)
(0 0 0.0101303)
(0 0 0.0100977)
(0 0 0.0100635)
(0 0 0.0100277)
(0 0 0.00999029)
(0 0 0.00995131)
(0 0 0.00991077)
(0 0 0.00986869)
(0 0 0.00982508)
(0 0 0.00977997)
(0 0 0.00973336)
(0 0 0.00968529)
(0 0 0.00963576)
(0 0 0.0095848)
(0 0 0.00953241)
(0 0 0.00947863)
(0 0 0.00942347)
(0 0 0.00936695)
(0 0 0.00930908)
(0 0 0.00924989)
(0 0 0.00918939)
(0 0 0.0091276)
(0 0 0.00906455)
(0 0 0.00900024)
(0 0 0.0089347)
(0 0 0.00886795)
(0 0 0.00880001)
(0 0 0.00873089)
(0 0 0.00866062)
(0 0 0.00858922)
(0 0 0.00851669)
(0 0 0.00844307)
(0 0 0.00836837)
(0 0 0.00829261)
(0 0 0.00821581)
(0 0 0.00813799)
(0 0 0.00805916)
(0 0 0.00797935)
(0 0 0.00789858)
(0 0 0.00781686)
(0 0 0.00773421)
(0 0 0.00765065)
(0 0 0.00756621)
(0 0 0.00748089)
(0 0 0.00739472)
(0 0 0.00730772)
(0 0 0.0072199)
(0 0 0.00713128)
(0 0 0.00704188)
(0 0 0.00695172)
(0 0 0.00686082)
(0 0 0.00676919)
(0 0 0.00667685)
(0 0 0.00658382)
(0 0 0.00649012)
(0 0 0.00639576)
(0 0 0.00630076)
(0 0 0.00620513)
(0 0 0.0061089)
(0 0 0.00601209)
(0 0 0.00591469)
(0 0 0.00581674)
(0 0 0.00571825)
(0 0 0.00561923)
(0 0 0.0055197)
(0 0 0.00541967)
(0 0 0.00531916)
(0 0 0.00521819)
(0 0 0.00511677)
(0 0 0.00501491)
(0 0 0.00491262)
(0 0 0.00480993)
(0 0 0.00470684)
(0 0 0.00460337)
(0 0 0.00449953)
(0 0 0.00439534)
(0 0 0.0042908)
(0 0 0.00418593)
(0 0 0.00408074)
(0 0 0.00397525)
(0 0 0.00386946)
(0 0 0.00376338)
(0 0 0.00365703)
(0 0 0.00355042)
(0 0 0.00344356)
(0 0 0.00333646)
(0 0 0.00322913)
(0 0 0.00312158)
(0 0 0.00301382)
(0 0 0.00290586)
(0 0 0.0027977)
(0 0 0.00268937)
(0 0 0.00258086)
(0 0 0.00247218)
(0 0 0.00236335)
(0 0 0.00225437)
(0 0 0.00214525)
(0 0 0.002036)
(0 0 0.00192663)
(0 0 0.00181713)
(0 0 0.00170754)
(0 0 0.00159783)
(0 0 0.00148804)
(0 0 0.00137816)
(0 0 0.00126819)
(0 0 0.00115816)
(0 0 0.00104806)
(0 0 0.000937893)
(0 0 0.000827677)
(0 0 0.000717414)
(0 0 0.000607111)
(0 0 0.000496773)
(0 0 0.000386408)
(0 0 0.000276021)
(0 0 0.000165619)
(0 0 5.52073e-05)
(0 0 7.86197e-05)
(0 0 0.000235854)
(0 0 0.000393074)
(0 0 0.000550271)
(0 0 0.000707434)
(0 0 0.000864554)
(0 0 0.00102162)
(0 0 0.00117862)
(0 0 0.00133556)
(0 0 0.0014924)
(0 0 0.00164916)
(0 0 0.00180581)
(0 0 0.00196234)
(0 0 0.00211875)
(0 0 0.00227502)
(0 0 0.00243114)
(0 0 0.0025871)
(0 0 0.00274289)
(0 0 0.00289848)
(0 0 0.00305388)
(0 0 0.00320906)
(0 0 0.00336402)
(0 0 0.00351873)
(0 0 0.00367318)
(0 0 0.00382736)
(0 0 0.00398125)
(0 0 0.00413483)
(0 0 0.0042881)
(0 0 0.00444102)
(0 0 0.00459358)
(0 0 0.00474577)
(0 0 0.00489756)
(0 0 0.00504893)
(0 0 0.00519986)
(0 0 0.00535034)
(0 0 0.00550034)
(0 0 0.00564984)
(0 0 0.00579881)
(0 0 0.00594724)
(0 0 0.00609509)
(0 0 0.00624235)
(0 0 0.00638899)
(0 0 0.00653498)
(0 0 0.00668029)
(0 0 0.0068249)
(0 0 0.00696879)
(0 0 0.00711192)
(0 0 0.00725426)
(0 0 0.00739578)
(0 0 0.00753647)
(0 0 0.00767627)
(0 0 0.00781518)
(0 0 0.00795314)
(0 0 0.00809013)
(0 0 0.00822613)
(0 0 0.00836108)
(0 0 0.00849498)
(0 0 0.00862777)
(0 0 0.00875942)
(0 0 0.00888991)
(0 0 0.00901919)
(0 0 0.00914724)
(0 0 0.00927402)
(0 0 0.00939948)
(0 0 0.00952361)
(0 0 0.00964636)
(0 0 0.00976769)
(0 0 0.00988757)
(0 0 0.010006)
(0 0 0.0101229)
(0 0 0.0102382)
(0 0 0.0103519)
(0 0 0.010464)
(0 0 0.0105745)
(0 0 0.0106833)
(0 0 0.0107903)
(0 0 0.0108956)
(0 0 0.0109991)
(0 0 0.0111007)
(0 0 0.0112005)
(0 0 0.0112984)
(0 0 0.0113944)
(0 0 0.0114884)
(0 0 0.0115805)
(0 0 0.0116705)
(0 0 0.0117585)
(0 0 0.0118444)
(0 0 0.0119283)
(0 0 0.01201)
(0 0 0.0120895)
(0 0 0.0121669)
(0 0 0.0122421)
(0 0 0.0123151)
(0 0 0.0123858)
(0 0 0.0124543)
(0 0 0.0125205)
(0 0 0.0125844)
(0 0 0.0126459)
(0 0 0.0127052)
(0 0 0.0127621)
(0 0 0.0128166)
(0 0 0.0128687)
(0 0 0.0129185)
(0 0 0.0129659)
(0 0 0.0130108)
(0 0 0.0130534)
(0 0 0.0130935)
(0 0 0.0131312)
(0 0 0.0131664)
(0 0 0.0131992)
(0 0 0.0132296)
(0 0 0.0132575)
(0 0 0.013283)
(0 0 0.013306)
(0 0 0.0133265)
(0 0 0.0133447)
(0 0 0.0133603)
(0 0 0.0133736)
(0 0 0.0133844)
(0 0 0.0133928)
(0 0 0.0133987)
(0 0 0.0134023)
(0 0 0.0134034)
(0 0 0.0134022)
(0 0 0.0133986)
(0 0 0.0133926)
(0 0 0.0133842)
(0 0 0.0133735)
(0 0 0.0133605)
(0 0 0.0133451)
(0 0 0.0133274)
(0 0 0.0133075)
(0 0 0.0132852)
(0 0 0.0132607)
(0 0 0.013234)
(0 0 0.013205)
(0 0 0.0131738)
(0 0 0.0131405)
(0 0 0.013105)
(0 0 0.0130673)
(0 0 0.0130275)
(0 0 0.0129856)
(0 0 0.0129416)
(0 0 0.0128955)
(0 0 0.0128474)
(0 0 0.0127972)
(0 0 0.0127451)
(0 0 0.0126909)
(0 0 0.0126348)
(0 0 0.0125768)
(0 0 0.0125168)
(0 0 0.012455)
(0 0 0.0123913)
(0 0 0.0123257)
(0 0 0.0122584)
(0 0 0.0121892)
(0 0 0.0121182)
(0 0 0.0120455)
(0 0 0.0119711)
(0 0 0.011895)
(0 0 0.0118171)
(0 0 0.0117377)
(0 0 0.0116566)
(0 0 0.0115738)
(0 0 0.0114896)
(0 0 0.0114037)
(0 0 0.0113163)
(0 0 0.0112274)
(0 0 0.011137)
(0 0 0.0110452)
(0 0 0.0109519)
(0 0 0.0108572)
(0 0 0.0107611)
(0 0 0.0106637)
(0 0 0.0105649)
(0 0 0.0104648)
(0 0 0.0103635)
(0 0 0.0102608)
(0 0 0.0101569)
(0 0 0.0100518)
(0 0 0.00994554)
(0 0 0.00983808)
(0 0 0.00972948)
(0 0 0.00961975)
(0 0 0.00950893)
(0 0 0.00939704)
(0 0 0.00928409)
(0 0 0.00917013)
(0 0 0.00905515)
(0 0 0.0089392)
(0 0 0.0088223)
(0 0 0.00870446)
(0 0 0.00858571)
(0 0 0.00846607)
(0 0 0.00834556)
(0 0 0.00822421)
(0 0 0.00810204)
(0 0 0.00797907)
(0 0 0.00785532)
(0 0 0.00773081)
(0 0 0.00760556)
(0 0 0.00747959)
(0 0 0.00735293)
(0 0 0.0072256)
(0 0 0.0070976)
(0 0 0.00696897)
(0 0 0.00683972)
(0 0 0.00670988)
(0 0 0.00657945)
(0 0 0.00644846)
(0 0 0.00631693)
(0 0 0.00618487)
(0 0 0.00605231)
(0 0 0.00591925)
(0 0 0.00578572)
(0 0 0.00565174)
(0 0 0.00551731)
(0 0 0.00538246)
(0 0 0.00524719)
(0 0 0.00511154)
(0 0 0.0049755)
(0 0 0.0048391)
(0 0 0.00470235)
(0 0 0.00456526)
(0 0 0.00442785)
(0 0 0.00429013)
(0 0 0.00415212)
(0 0 0.00401382)
(0 0 0.00387526)
(0 0 0.00373643)
(0 0 0.00359736)
(0 0 0.00345805)
(0 0 0.00331853)
(0 0 0.00317879)
(0 0 0.00303885)
(0 0 0.00289872)
(0 0 0.00275841)
(0 0 0.00261793)
(0 0 0.00247729)
(0 0 0.0023365)
(0 0 0.00219558)
(0 0 0.00205452)
(0 0 0.00191334)
(0 0 0.00177205)
(0 0 0.00163066)
(0 0 0.00148917)
(0 0 0.0013476)
(0 0 0.00120595)
(0 0 0.00106424)
(0 0 0.000922459)
(0 0 0.00078063)
(0 0 0.000638756)
(0 0 0.000496847)
(0 0 0.000354911)
(0 0 0.000212954)
(0 0 7.09861e-05)
(0 0 9.61004e-05)
(0 0 0.000288295)
(0 0 0.000480473)
(0 0 0.000672622)
(0 0 0.00086473)
(0 0 0.00105679)
(0 0 0.00124878)
(0 0 0.00144069)
(0 0 0.00163252)
(0 0 0.00182424)
(0 0 0.00201585)
(0 0 0.00220734)
(0 0 0.00239868)
(0 0 0.00258987)
(0 0 0.00278089)
(0 0 0.00297173)
(0 0 0.00316237)
(0 0 0.0033528)
(0 0 0.003543)
(0 0 0.00373296)
(0 0 0.00392265)
(0 0 0.00411207)
(0 0 0.00430119)
(0 0 0.00449)
(0 0 0.00467848)
(0 0 0.0048666)
(0 0 0.00505435)
(0 0 0.0052417)
(0 0 0.00542864)
(0 0 0.00561515)
(0 0 0.00580119)
(0 0 0.00598675)
(0 0 0.00617181)
(0 0 0.00635633)
(0 0 0.00654029)
(0 0 0.00672367)
(0 0 0.00690643)
(0 0 0.00708856)
(0 0 0.00727002)
(0 0 0.00745078)
(0 0 0.00763081)
(0 0 0.00781008)
(0 0 0.00798857)
(0 0 0.00816623)
(0 0 0.00834304)
(0 0 0.00851895)
(0 0 0.00869395)
(0 0 0.00886798)
(0 0 0.00904102)
(0 0 0.00921302)
(0 0 0.00938396)
(0 0 0.00955379)
(0 0 0.00972248)
(0 0 0.00988998)
(0 0 0.0100563)
(0 0 0.0102213)
(0 0 0.010385)
(0 0 0.0105474)
(0 0 0.0107083)
(0 0 0.0108679)
(0 0 0.011026)
(0 0 0.0111826)
(0 0 0.0113376)
(0 0 0.011491)
(0 0 0.0116428)
(0 0 0.0117929)
(0 0 0.0119412)
(0 0 0.0120878)
(0 0 0.0122326)
(0 0 0.0123756)
(0 0 0.0125166)
(0 0 0.0126557)
(0 0 0.0127928)
(0 0 0.0129278)
(0 0 0.0130608)
(0 0 0.0131917)
(0 0 0.0133205)
(0 0 0.013447)
(0 0 0.0135713)
(0 0 0.0136934)
(0 0 0.0138131)
(0 0 0.0139305)
(0 0 0.0140455)
(0 0 0.014158)
(0 0 0.0142681)
(0 0 0.0143757)
(0 0 0.0144808)
(0 0 0.0145833)
(0 0 0.0146832)
(0 0 0.0147805)
(0 0 0.0148751)
(0 0 0.0149671)
(0 0 0.0150563)
(0 0 0.0151428)
(0 0 0.0152265)
(0 0 0.0153075)
(0 0 0.0153856)
(0 0 0.0154609)
(0 0 0.0155333)
(0 0 0.0156029)
(0 0 0.0156696)
(0 0 0.0157333)
(0 0 0.0157942)
(0 0 0.0158521)
(0 0 0.0159071)
(0 0 0.0159591)
(0 0 0.0160081)
(0 0 0.0160542)
(0 0 0.0160973)
(0 0 0.0161374)
(0 0 0.0161745)
(0 0 0.0162086)
(0 0 0.0162397)
(0 0 0.0162678)
(0 0 0.016293)
(0 0 0.0163151)
(0 0 0.0163343)
(0 0 0.0163504)
(0 0 0.0163637)
(0 0 0.0163739)
(0 0 0.0163812)
(0 0 0.0163855)
(0 0 0.0163869)
(0 0 0.0163853)
(0 0 0.0163809)
(0 0 0.0163735)
(0 0 0.0163633)
(0 0 0.0163502)
(0 0 0.0163342)
(0 0 0.0163154)
(0 0 0.0162937)
(0 0 0.0162693)
(0 0 0.0162421)
(0 0 0.0162121)
(0 0 0.0161794)
(0 0 0.016144)
(0 0 0.0161058)
(0 0 0.016065)
(0 0 0.0160216)
(0 0 0.0159755)
(0 0 0.0159268)
(0 0 0.0158755)
(0 0 0.0158217)
(0 0 0.0157653)
(0 0 0.0157065)
(0 0 0.0156451)
(0 0 0.0155813)
(0 0 0.0155151)
(0 0 0.0154465)
(0 0 0.0153755)
(0 0 0.0153022)
(0 0 0.0152266)
(0 0 0.0151487)
(0 0 0.0150685)
(0 0 0.0149861)
(0 0 0.0149015)
(0 0 0.0148147)
(0 0 0.0147258)
(0 0 0.0146348)
(0 0 0.0145417)
(0 0 0.0144465)
(0 0 0.0143494)
(0 0 0.0142502)
(0 0 0.014149)
(0 0 0.014046)
(0 0 0.013941)
(0 0 0.0138341)
(0 0 0.0137254)
(0 0 0.0136149)
(0 0 0.0135026)
(0 0 0.0133885)
(0 0 0.0132728)
(0 0 0.0131553)
(0 0 0.0130361)
(0 0 0.0129154)
(0 0 0.012793)
(0 0 0.012669)
(0 0 0.0125435)
(0 0 0.0124165)
(0 0 0.012288)
(0 0 0.012158)
(0 0 0.0120267)
(0 0 0.0118939)
(0 0 0.0117597)
(0 0 0.0116242)
(0 0 0.0114874)
(0 0 0.0113493)
(0 0 0.01121)
(0 0 0.0110694)
(0 0 0.0109276)
(0 0 0.0107847)
(0 0 0.0106406)
(0 0 0.0104955)
(0 0 0.0103492)
(0 0 0.0102019)
(0 0 0.0100535)
(0 0 0.00990413)
(0 0 0.00975378)
(0 0 0.00960249)
(0 0 0.00945027)
(0 0 0.00929714)
(0 0 0.00914314)
(0 0 0.0089883)
(0 0 0.00883262)
(0 0 0.00867614)
(0 0 0.00851889)
(0 0 0.00836088)
(0 0 0.00820214)
(0 0 0.00804269)
(0 0 0.00788256)
(0 0 0.00772176)
(0 0 0.00756033)
(0 0 0.00739827)
(0 0 0.00723561)
(0 0 0.00707237)
(0 0 0.00690858)
(0 0 0.00674424)
(0 0 0.00657939)
(0 0 0.00641404)
(0 0 0.00624821)
(0 0 0.00608191)
(0 0 0.00591517)
(0 0 0.005748)
(0 0 0.00558042)
(0 0 0.00541245)
(0 0 0.0052441)
(0 0 0.00507539)
(0 0 0.00490633)
(0 0 0.00473695)
(0 0 0.00456725)
(0 0 0.00439725)
(0 0 0.00422696)
(0 0 0.00405641)
(0 0 0.00388559)
(0 0 0.00371453)
(0 0 0.00354324)
(0 0 0.00337173)
(0 0 0.00320001)
(0 0 0.0030281)
(0 0 0.00285601)
(0 0 0.00268375)
(0 0 0.00251133)
(0 0 0.00233876)
(0 0 0.00216605)
(0 0 0.00199322)
(0 0 0.00182028)
(0 0 0.00164723)
(0 0 0.00147408)
(0 0 0.00130086)
(0 0 0.00112756)
(0 0 0.000954192)
(0 0 0.000780775)
(0 0 0.000607315)
(0 0 0.00043382)
(0 0 0.000260302)
(0 0 8.67688e-05)
(0 0 0.000113587)
(0 0 0.000340754)
(0 0 0.000567901)
(0 0 0.000795014)
(0 0 0.00102208)
(0 0 0.00124908)
(0 0 0.00147601)
(0 0 0.00170285)
(0 0 0.00192958)
(0 0 0.00215619)
(0 0 0.00238267)
(0 0 0.002609)
(0 0 0.00283517)
(0 0 0.00306115)
(0 0 0.00328694)
(0 0 0.00351251)
(0 0 0.00373785)
(0 0 0.00396294)
(0 0 0.00418776)
(0 0 0.0044123)
(0 0 0.00463653)
(0 0 0.00486042)
(0 0 0.00508398)
(0 0 0.00530716)
(0 0 0.00552995)
(0 0 0.00575232)
(0 0 0.00597426)
(0 0 0.00619573)
(0 0 0.00641671)
(0 0 0.00663718)
(0 0 0.0068571)
(0 0 0.00707646)
(0 0 0.00729522)
(0 0 0.00751335)
(0 0 0.00773082)
(0 0 0.0079476)
(0 0 0.00816367)
(0 0 0.00837897)
(0 0 0.00859349)
(0 0 0.00880719)
(0 0 0.00902003)
(0 0 0.00923197)
(0 0 0.00944299)
(0 0 0.00965303)
(0 0 0.00986206)
(0 0 0.01007)
(0 0 0.0102769)
(0 0 0.0104827)
(0 0 0.0106873)
(0 0 0.0108907)
(0 0 0.0110928)
(0 0 0.0112936)
(0 0 0.011493)
(0 0 0.0116911)
(0 0 0.0118877)
(0 0 0.0120828)
(0 0 0.0122764)
(0 0 0.0124683)
(0 0 0.0126587)
(0 0 0.0128474)
(0 0 0.0130343)
(0 0 0.0132194)
(0 0 0.0134027)
(0 0 0.0135842)
(0 0 0.0137636)
(0 0 0.0139411)
(0 0 0.0141166)
(0 0 0.0142899)
(0 0 0.0144611)
(0 0 0.0146301)
(0 0 0.0147969)
(0 0 0.0149614)
(0 0 0.0151235)
(0 0 0.0152833)
(0 0 0.0154405)
(0 0 0.0155953)
(0 0 0.0157476)
(0 0 0.0158972)
(0 0 0.0160442)
(0 0 0.0161885)
(0 0 0.0163301)
(0 0 0.0164689)
(0 0 0.0166049)
(0 0 0.016738)
(0 0 0.0168682)
(0 0 0.0169955)
(0 0 0.0171197)
(0 0 0.017241)
(0 0 0.0173591)
(0 0 0.0174742)
(0 0 0.0175861)
(0 0 0.0176948)
(0 0 0.0178003)
(0 0 0.0179026)
(0 0 0.0180016)
(0 0 0.0180973)
(0 0 0.0181897)
(0 0 0.0182787)
(0 0 0.0183644)
(0 0 0.0184466)
(0 0 0.0185254)
(0 0 0.0186008)
(0 0 0.0186728)
(0 0 0.0187413)
(0 0 0.0188062)
(0 0 0.0188677)
(0 0 0.0189257)
(0 0 0.0189802)
(0 0 0.0190311)
(0 0 0.0190785)
(0 0 0.0191224)
(0 0 0.0191627)
(0 0 0.0191995)
(0 0 0.0192327)
(0 0 0.0192624)
(0 0 0.0192886)
(0 0 0.0193112)
(0 0 0.0193303)
(0 0 0.0193459)
(0 0 0.019358)
(0 0 0.0193665)
(0 0 0.0193716)
(0 0 0.0193732)
(0 0 0.0193714)
(0 0 0.0193661)
(0 0 0.0193573)
(0 0 0.0193452)
(0 0 0.0193297)
(0 0 0.0193107)
(0 0 0.0192885)
(0 0 0.0192629)
(0 0 0.0192339)
(0 0 0.0192017)
(0 0 0.0191663)
(0 0 0.0191275)
(0 0 0.0190856)
(0 0 0.0190405)
(0 0 0.0189922)
(0 0 0.0189408)
(0 0 0.0188863)
(0 0 0.0188286)
(0 0 0.018768)
(0 0 0.0187043)
(0 0 0.0186377)
(0 0 0.018568)
(0 0 0.0184955)
(0 0 0.01842)
(0 0 0.0183417)
(0 0 0.0182606)
(0 0 0.0181766)
(0 0 0.0180899)
(0 0 0.0180005)
(0 0 0.0179083)
(0 0 0.0178135)
(0 0 0.0177161)
(0 0 0.017616)
(0 0 0.0175134)
(0 0 0.0174082)
(0 0 0.0173006)
(0 0 0.0171905)
(0 0 0.017078)
(0 0 0.016963)
(0 0 0.0168458)
(0 0 0.0167262)
(0 0 0.0166043)
(0 0 0.0164801)
(0 0 0.0163538)
(0 0 0.0162252)
(0 0 0.0160946)
(0 0 0.0159618)
(0 0 0.0158269)
(0 0 0.01569)
(0 0 0.0155511)
(0 0 0.0154102)
(0 0 0.0152674)
(0 0 0.0151227)
(0 0 0.0149761)
(0 0 0.0148278)
(0 0 0.0146776)
(0 0 0.0145256)
(0 0 0.014372)
(0 0 0.0142166)
(0 0 0.0140596)
(0 0 0.013901)
(0 0 0.0137408)
(0 0 0.0135791)
(0 0 0.0134158)
(0 0 0.013251)
(0 0 0.0130849)
(0 0 0.0129172)
(0 0 0.0127483)
(0 0 0.0125779)
(0 0 0.0124063)
(0 0 0.0122334)
(0 0 0.0120592)
(0 0 0.0118838)
(0 0 0.0117072)
(0 0 0.0115294)
(0 0 0.0113506)
(0 0 0.0111706)
(0 0 0.0109896)