/*--------------------------------*- C++ -*----------------------------------*\
| =========                 |                                                 |
| \\      /  F ield         | OpenFOAM: The Open Source CFD Toolbox           |
|  \\    /   O peration     | Version:  v2012                                 |
|   \\  /    A nd           | Website:  www.openfoam.com                      |
|    \\/     M anipulation  |                                                 |
\*---------------------------------------------------------------------------*/
FoamFile
{
    version     2.0;
    format      ascii;
    class       surfaceScalarField;
    location    "18";
    object      phi;
}
// * * * * * * * * * * * * * * * * * * * * * * * * * * * * * * * * * * * * * //

dimensions      [0 3 -1 0 0 0 0];
oriented        oriented;


internalField   nonuniform List<scalar> 
130560
(
3.25887e-06
-3.25887e-06
6.51791e-06
-3.25903e-06
9.77726e-06
-3.25935e-06
1.30371e-05
-3.25983e-06
1.62975e-05
-3.26046e-06
1.95588e-05
-3.26125e-06
2.2821e-05
-3.26219e-06
2.60843e-05
-3.26328e-06
2.93488e-05
-3.26452e-06
3.26147e-05
-3.2659e-06
3.58821e-05
-3.26743e-06
3.91512e-05
-3.2691e-06
4.24221e-05
-3.2709e-06
4.5695e-05
-3.27284e-06
4.89698e-05
-3.2749e-06
5.22469e-05
-3.27708e-06
5.55263e-05
-3.27937e-06
5.88081e-05
-3.28178e-06
6.20924e-05
-3.28428e-06
6.53792e-05
-3.28688e-06
6.86688e-05
-3.28957e-06
7.19611e-05
-3.29234e-06
7.52563e-05
-3.29518e-06
7.85544e-05
-3.29809e-06
8.18555e-05
-3.30104e-06
8.51595e-05
-3.30405e-06
8.84666e-05
-3.30708e-06
9.17767e-05
-3.31014e-06
9.50899e-05
-3.31322e-06
9.84062e-05
-3.31629e-06
0.000101726
-3.31935e-06
0.000105048
-3.32238e-06
0.000108373
-3.32538e-06
0.000111702
-3.32833e-06
0.000115033
-3.33121e-06
0.000118367
-3.33401e-06
0.000121704
-3.3367e-06
0.000125043
-3.33929e-06
0.000128385
-3.34175e-06
0.000131729
-3.34405e-06
0.000135075
-3.34619e-06
0.000138423
-3.34815e-06
0.000141773
-3.34989e-06
0.000145124
-3.35142e-06
0.000148477
-3.35269e-06
0.000151831
-3.3537e-06
0.000155185
-3.35442e-06
0.00015854
-3.35483e-06
0.000161895
-3.3549e-06
0.000165249
-3.35461e-06
0.000168603
-3.35393e-06
0.000171956
-3.35284e-06
0.000175308
-3.35132e-06
0.000178657
-3.34933e-06
0.000182004
-3.34685e-06
0.000185348
-3.34385e-06
0.000188688
-3.3403e-06
0.000192024
-3.33618e-06
0.000195356
-3.33144e-06
0.000198682
-3.32607e-06
0.000202002
-3.32004e-06
0.000205315
-3.3133e-06
0.000208621
-3.30583e-06
0.000211918
-3.2976e-06
0.000215207
-3.28857e-06
0.000218486
-3.27871e-06
0.000221754
-3.26799e-06
0.00022501
-3.25638e-06
0.000228254
-3.24384e-06
0.000231484
-3.23034e-06
0.0002347
-3.21584e-06
0.0002379
-3.20031e-06
0.000241084
-3.18373e-06
0.00024425
-3.16604e-06
0.000247397
-3.14723e-06
0.000250525
-3.12726e-06
0.000253631
-3.1061e-06
0.000256714
-3.08371e-06
0.000259774
-3.06006e-06
0.00026281
-3.03514e-06
0.000265819
-3.00889e-06
0.0002688
-2.98131e-06
0.000271752
-2.95235e-06
0.000274674
-2.92199e-06
0.000277564
-2.89022e-06
0.000280421
-2.85699e-06
0.000283244
-2.8223e-06
0.00028603
-2.78612e-06
0.000288778
-2.74843e-06
0.000291487
-2.70922e-06
0.000294156
-2.66847e-06
0.000296782
-2.62616e-06
0.000299364
-2.58228e-06
0.000301901
-2.53683e-06
0.000304391
-2.4898e-06
0.000306832
-2.44118e-06
0.000309223
-2.39098e-06
0.000311562
-2.33919e-06
0.000313848
-2.28581e-06
0.000316079
-2.23086e-06
0.000318253
-2.17434e-06
0.00032037
-2.11626e-06
0.000322426
-2.05664e-06
0.000324422
-1.9955e-06
0.000326355
-1.93286e-06
0.000328223
-1.86874e-06
0.000330027
-1.80317e-06
0.000331763
-1.73617e-06
0.00033343
-1.66779e-06
0.000335029
-1.59806e-06
0.000336556
-1.52702e-06
0.00033801
-1.45471e-06
0.000339391
-1.38117e-06
0.000340698
-1.30646e-06
0.000341929
-1.23062e-06
0.000343082
-1.15372e-06
0.000344158
-1.0758e-06
0.000345155
-9.96921e-07
0.000346072
-9.17152e-07
0.000346909
-8.36554e-07
0.000347664
-7.55192e-07
0.000348337
-6.73134e-07
0.000348927
-5.90449e-07
0.000349435
-5.07209e-07
0.000349858
-4.23486e-07
0.000350197
-3.39355e-07
0.000350452
-2.54889e-07
0.000350623
-1.70165e-07
0.000350708
-8.52594e-08
0.000350708
-2.48679e-10
0.000350623
8.479e-08
0.000350453
1.6978e-07
0.000350199
2.54643e-07
0.00034986
3.39304e-07
0.000349436
4.23687e-07
0.000348928
5.07717e-07
0.000348337
5.91319e-07
0.000347662
6.74421e-07
0.000346905
7.56952e-07
0.000346067
8.38842e-07
0.000345147
9.20022e-07
0.000344146
1.00043e-06
0.000343066
1.07999e-06
0.000341907
1.15866e-06
0.000340671
1.23636e-06
0.000339358
1.31305e-06
0.000337969
1.38867e-06
0.000336506
1.46316e-06
0.00033497
1.53648e-06
0.000333361
1.60858e-06
0.000331682
1.67942e-06
0.000329933
1.74896e-06
0.000328116
1.81715e-06
0.000326232
1.88398e-06
0.000324282
1.9494e-06
0.000322269
2.01339e-06
0.000320193
2.07592e-06
0.000318056
2.13697e-06
0.000315859
2.19652e-06
0.000313605
2.25456e-06
0.000311294
2.31106e-06
0.000308928
2.36603e-06
0.000306508
2.41945e-06
0.000304037
2.47132e-06
0.000301515
2.52164e-06
0.000298945
2.5704e-06
0.000296327
2.6176e-06
0.000293664
2.66327e-06
0.000290957
2.70739e-06
0.000288207
2.74998e-06
0.000285416
2.79105e-06
0.000282585
2.83061e-06
0.000279716
2.86869e-06
0.000276811
2.90529e-06
0.000273871
2.94043e-06
0.000270897
2.97414e-06
0.00026789
3.00644e-06
0.000264853
3.03735e-06
0.000261786
3.06689e-06
0.000258691
3.09508e-06
0.000255569
3.12197e-06
0.000252421
3.14756e-06
0.000249249
3.1719e-06
0.000246054
3.19501e-06
0.000242837
3.21691e-06
0.0002396
3.23765e-06
0.000236343
3.25724e-06
0.000233067
3.27573e-06
0.000229774
3.29314e-06
0.000226464
3.3095e-06
0.000223139
3.32484e-06
0.0002198
3.3392e-06
0.000216448
3.35262e-06
0.000213082
3.36511e-06
0.000209706
3.37672e-06
0.000206318
3.38747e-06
0.000202921
3.39739e-06
0.000199514
3.40653e-06
0.000196099
3.4149e-06
0.000192677
3.42255e-06
0.000189247
3.42949e-06
0.000185812
3.43577e-06
0.00018237
3.4414e-06
0.000178924
3.44643e-06
0.000175473
3.45087e-06
0.000172018
3.45477e-06
0.00016856
3.45813e-06
0.000165099
3.461e-06
0.000161636
3.4634e-06
0.00015817
3.46536e-06
0.000154703
3.4669e-06
0.000151235
3.46804e-06
0.000147767
3.46882e-06
0.000144297
3.46925e-06
0.000140828
3.46936e-06
0.000137359
3.46917e-06
0.00013389
3.46871e-06
0.000130422
3.46799e-06
0.000126955
3.46704e-06
0.000123489
3.46588e-06
0.000120025
3.46453e-06
0.000116562
3.463e-06
0.0001131
3.46131e-06
0.000109641
3.45949e-06
0.000106183
3.45755e-06
0.000102728
3.4555e-06
9.92743e-05
3.45337e-06
9.58232e-05
3.45117e-06
9.23743e-05
3.44891e-06
8.89277e-05
3.44661e-06
8.54834e-05
3.44428e-06
8.20414e-05
3.44193e-06
7.86019e-05
3.43959e-06
7.51646e-05
3.43725e-06
7.17297e-05
3.43493e-06
6.8297e-05
3.43265e-06
6.48666e-05
3.4304e-06
6.14384e-05
3.42821e-06
5.80123e-05
3.42608e-06
5.45883e-05
3.42403e-06
5.11663e-05
3.42205e-06
4.77461e-05
3.42015e-06
4.43278e-05
3.41835e-06
4.09111e-05
3.41666e-06
3.7496e-05
3.41506e-06
3.40824e-05
3.41359e-06
3.06702e-05
3.41223e-06
2.72592e-05
3.41099e-06
2.38494e-05
3.40988e-06
2.04405e-05
3.4089e-06
1.70324e-05
3.40805e-06
1.36251e-05
3.40734e-06
1.02183e-05
3.40677e-06
6.81197e-06
3.40634e-06
3.40591e-06
3.40605e-06
3.40591e-06
3.25872e-06
-6.51759e-06
6.5176e-06
-6.51792e-06
9.7768e-06
-6.51855e-06
1.30365e-05
-6.5195e-06
1.62968e-05
-6.52077e-06
1.95579e-05
-6.52234e-06
2.28199e-05
-6.52422e-06
2.60831e-05
-6.52641e-06
2.93474e-05
-6.52889e-06
3.26132e-05
-6.53167e-06
3.58805e-05
-6.53473e-06
3.91495e-05
-6.53807e-06
4.24202e-05
-6.54168e-06
4.5693e-05
-6.54556e-06
4.89677e-05
-6.54968e-06
5.22447e-05
-6.55404e-06
5.5524e-05
-6.55864e-06
5.88057e-05
-6.56345e-06
6.20898e-05
-6.56847e-06
6.53766e-05
-6.57368e-06
6.86661e-05
-6.57907e-06
7.19584e-05
-6.58461e-06
7.52535e-05
-6.5903e-06
7.85516e-05
-6.59612e-06
8.18526e-05
-6.60205e-06
8.51566e-05
-6.60806e-06
8.84637e-05
-6.61415e-06
9.17738e-05
-6.62028e-06
9.5087e-05
-6.62643e-06
9.84033e-05
-6.63259e-06
0.000101723
-6.63873e-06
0.000105045
-6.64481e-06
0.000108371
-6.65082e-06
0.000111699
-6.65673e-06
0.00011503
-6.6625e-06
0.000118364
-6.66811e-06
0.000121701
-6.67353e-06
0.000125041
-6.67872e-06
0.000128383
-6.68364e-06
0.000131727
-6.68828e-06
0.000135073
-6.69257e-06
0.000138421
-6.6965e-06
0.000141772
-6.70002e-06
0.000145123
-6.70309e-06
0.000148476
-6.70566e-06
0.00015183
-6.7077e-06
0.000155185
-6.70916e-06
0.00015854
-6.71e-06
0.000161895
-6.71016e-06
0.00016525
-6.7096e-06
0.000168605
-6.70828e-06
0.000171958
-6.70613e-06
0.00017531
-6.7031e-06
0.00017866
-6.69915e-06
0.000182007
-6.69422e-06
0.000185351
-6.68825e-06
0.000188692
-6.68118e-06
0.000192029
-6.67296e-06
0.000195361
-6.66353e-06
0.000198688
-6.65282e-06
0.000202009
-6.64077e-06
0.000205323
-6.62733e-06
0.000208629
-6.61242e-06
0.000211928
-6.59599e-06
0.000215217
-6.57797e-06
0.000218497
-6.55829e-06
0.000221766
-6.53688e-06
0.000225023
-6.51369e-06
0.000228268
-6.48864e-06
0.000231499
-6.46167e-06
0.000234716
-6.43271e-06
0.000237917
-6.40169e-06
0.000241102
-6.36855e-06
0.000244269
-6.33321e-06
0.000247418
-6.29562e-06
0.000250546
-6.25571e-06
0.000253653
-6.21341e-06
0.000256738
-6.16867e-06
0.0002598
-6.12141e-06
0.000262836
-6.07158e-06
0.000265846
-6.01913e-06
0.000268829
-5.96398e-06
0.000271783
-5.90609e-06
0.000274706
-5.84541e-06
0.000277598
-5.78188e-06
0.000280456
-5.71546e-06
0.00028328
-5.64609e-06
0.000286068
-5.57375e-06
0.000288818
-5.49839e-06
0.000291528
-5.41998e-06
0.000294198
-5.33848e-06
0.000296826
-5.25388e-06
0.00029941
-5.16613e-06
0.000301948
-5.07524e-06
0.00030444
-4.98118e-06
0.000306883
-4.88395e-06
0.000309275
-4.78354e-06
0.000311616
-4.67995e-06
0.000313903
-4.5732e-06
0.000316136
-4.46328e-06
0.000318312
-4.35023e-06
0.000320429
-4.23406e-06
0.000322488
-4.11481e-06
0.000324485
-3.99251e-06
0.000326419
-3.8672e-06
0.000328289
-3.73893e-06
0.000330094
-3.60775e-06
0.000331831
-3.47373e-06
0.0003335
-3.33693e-06
0.0003351
-3.19743e-06
0.000336628
-3.0553e-06
0.000338084
-2.91063e-06
0.000339466
-2.76351e-06
0.000340774
-2.61404e-06
0.000342006
-2.46231e-06
0.00034316
-2.30844e-06
0.000344237
-2.15254e-06
0.000345235
-1.99473e-06
0.000346153
-1.83513e-06
0.00034699
-1.67387e-06
0.000347746
-1.51108e-06
0.00034842
-1.34689e-06
0.000349011
-1.18145e-06
0.000349519
-1.0149e-06
0.000349942
-8.47377e-07
0.000350282
-6.79039e-07
0.000350537
-5.10031e-07
0.000350708
-3.40507e-07
0.000350793
-1.70619e-07
0.000350793
-5.20333e-10
0.000350708
1.69634e-07
0.000350538
3.3969e-07
0.000350284
5.09494e-07
0.000349944
6.78892e-07
0.00034952
8.47732e-07
0.000349012
1.01587e-06
0.00034842
1.18314e-06
0.000347745
1.34942e-06
0.000346987
1.51455e-06
0.000346148
1.6784e-06
0.000345227
1.84082e-06
0.000344226
2.0017e-06
0.000343145
2.16089e-06
0.000341985
2.31828e-06
0.000340748
2.47375e-06
0.000339434
2.62718e-06
0.000338044
2.77846e-06
0.00033658
2.92749e-06
0.000335042
3.07418e-06
0.000333432
3.21842e-06
0.000331751
3.36014e-06
0.000330001
3.49925e-06
0.000328182
3.63569e-06
0.000326297
3.76937e-06
0.000324346
3.90024e-06
0.000322331
4.02824e-06
0.000320254
4.15332e-06
0.000318116
4.27544e-06
0.000315918
4.39456e-06
0.000313661
4.51065e-06
0.000311349
4.62367e-06
0.000308981
4.73362e-06
0.00030656
4.84046e-06
0.000304087
4.9442e-06
0.000301564
5.04483e-06
0.000298992
5.14235e-06
0.000296373
5.23676e-06
0.000293708
5.32807e-06
0.000290999
5.41631e-06
0.000288248
5.50148e-06
0.000285455
5.5836e-06
0.000282623
5.66272e-06
0.000279753
5.73885e-06
0.000276846
5.81203e-06
0.000273904
5.8823e-06
0.000270929
5.9497e-06
0.000267921
6.01427e-06
0.000264882
6.07606e-06
0.000261814
6.13511e-06
0.000258718
6.19148e-06
0.000255594
6.24523e-06
0.000252446
6.29639e-06
0.000249272
6.34504e-06
0.000246076
6.39122e-06
0.000242858
6.435e-06
0.000239619
6.47644e-06
0.000236361
6.5156e-06
0.000233084
6.55254e-06
0.00022979
6.58732e-06
0.000226479
6.62001e-06
0.000223154
6.65067e-06
0.000219813
6.67936e-06
0.00021646
6.70615e-06
0.000213094
6.73111e-06
0.000209716
6.75429e-06
0.000206328
6.77576e-06
0.00020293
6.79558e-06
0.000199523
6.81382e-06
0.000196107
6.83054e-06
0.000192684
6.8458e-06
0.000189254
6.85965e-06
0.000185817
6.87218e-06
0.000182375
6.88342e-06
0.000178928
6.89344e-06
0.000175477
6.9023e-06
0.000172021
6.91006e-06
0.000168563
6.91676e-06
0.000165101
6.92248e-06
0.000161637
6.92725e-06
0.000158172
6.93114e-06
0.000154704
6.93419e-06
0.000151236
6.93645e-06
0.000147767
6.93798e-06
0.000144297
6.93882e-06
0.000140828
6.93902e-06
0.000137358
6.93862e-06
0.000133889
6.93767e-06
0.000130421
6.93622e-06
0.000126954
6.9343e-06
0.000123488
6.93195e-06
0.000120023
6.92922e-06
0.00011656
6.92615e-06
0.000113098
6.92276e-06
0.000109639
6.9191e-06
0.000106181
6.9152e-06
0.000102725
6.91109e-06
9.92721e-05
6.90682e-06
9.58208e-05
6.90239e-06
9.23719e-05
6.89786e-06
8.89252e-05
6.89324e-06
8.5481e-05
6.88857e-06
8.2039e-05
6.88387e-06
7.85994e-05
6.87916e-06
7.51622e-05
6.87447e-06
7.17273e-05
6.86983e-06
6.82947e-05
6.86525e-06
6.48644e-05
6.86075e-06
6.14362e-05
6.85636e-06
5.80102e-05
6.85209e-06
5.45863e-05
6.84797e-06
5.11643e-05
6.844e-06
4.77443e-05
6.84021e-06
4.4326e-05
6.83661e-06
4.09095e-05
6.8332e-06
3.74945e-05
6.83001e-06
3.40811e-05
6.82705e-06
3.0669e-05
6.82432e-06
2.72581e-05
6.82184e-06
2.38484e-05
6.81962e-06
2.04396e-05
6.81765e-06
1.70317e-05
6.81596e-06
1.36245e-05
6.81453e-06
1.02179e-05
6.81339e-06
6.81168e-06
6.81253e-06
3.40577e-06
6.81196e-06
6.81168e-06
3.2584e-06
-9.776e-06
6.51696e-06
-9.77648e-06
9.77584e-06
-9.77743e-06
1.30352e-05
-9.77886e-06
1.62952e-05
-9.78076e-06
1.9556e-05
-9.78313e-06
2.28177e-05
-9.78596e-06
2.60806e-05
-9.78924e-06
2.93446e-05
-9.79298e-06
3.26101e-05
-9.79715e-06
3.58771e-05
-9.80175e-06
3.91458e-05
-9.80677e-06
4.24163e-05
-9.8122e-06
4.56888e-05
-9.81802e-06
4.89633e-05
-9.82422e-06
5.22401e-05
-9.83078e-06
5.55191e-05
-9.83769e-06
5.88006e-05
-9.84492e-06
6.20846e-05
-9.85247e-06
6.53712e-05
-9.8603e-06
6.86605e-05
-9.8684e-06
7.19527e-05
-9.87674e-06
7.52477e-05
-9.8853e-06
7.85456e-05
-9.89405e-06
8.18465e-05
-9.90296e-06
8.51504e-05
-9.91201e-06
8.84575e-05
-9.92116e-06
9.17676e-05
-9.93039e-06
9.50808e-05
-9.93965e-06
9.83971e-05
-9.94892e-06
0.000101717
-9.95815e-06
0.000105039
-9.96731e-06
0.000108365
-9.97636e-06
0.000111693
-9.98526e-06
0.000115025
-9.99396e-06
0.000118359
-1.00024e-05
0.000121696
-1.00106e-05
0.000125036
-1.00184e-05
0.000128378
-1.00258e-05
0.000131722
-1.00328e-05
0.000135069
-1.00393e-05
0.000138418
-1.00453e-05
0.000141768
-1.00506e-05
0.000145121
-1.00552e-05
0.000148474
-1.00592e-05
0.000151829
-1.00623e-05
0.000155184
-1.00645e-05
0.00015854
-1.00658e-05
0.000161896
-1.00661e-05
0.000165252
-1.00654e-05
0.000168607
-1.00634e-05
0.000171961
-1.00603e-05
0.000175314
-1.00558e-05
0.000178664
-1.005e-05
0.000182013
-1.00426e-05
0.000185358
-1.00337e-05
0.0001887
-1.00232e-05
0.000192038
-1.0011e-05
0.000195372
-9.99688e-06
0.0001987
-9.9809e-06
0.000202022
-9.96291e-06
0.000205337
-9.94282e-06
0.000208646
-9.92054e-06
0.000211946
-9.89598e-06
0.000215237
-9.86902e-06
0.000218518
-9.83958e-06
0.000221789
-9.80756e-06
0.000225048
-9.77286e-06
0.000228294
-9.73537e-06
0.000231528
-9.69499e-06
0.000234747
-9.65163e-06
0.00023795
-9.60519e-06
0.000241137
-9.55556e-06
0.000244307
-9.50264e-06
0.000247457
-9.44634e-06
0.000250588
-9.38655e-06
0.000253698
-9.32318e-06
0.000256785
-9.25614e-06
0.000259849
-9.18533e-06
0.000262888
-9.11066e-06
0.000265901
-9.03205e-06
0.000268887
-8.9494e-06
0.000271843
-8.86263e-06
0.00027477
-8.77167e-06
0.000277664
-8.67643e-06
0.000280526
-8.57686e-06
0.000283352
-8.47287e-06
0.000286143
-8.3644e-06
0.000288896
-8.25141e-06
0.00029161
-8.13382e-06
0.000294283
-8.01161e-06
0.000296914
-7.88473e-06
0.000299501
-7.75314e-06
0.000302042
-7.61682e-06
0.000304537
-7.47574e-06
0.000306983
-7.3299e-06
0.000309379
-7.17928e-06
0.000311723
-7.02389e-06
0.000314013
-6.86374e-06
0.000316249
-6.69885e-06
0.000318428
-6.52924e-06
0.000320549
-6.35495e-06
0.00032261
-6.17603e-06
0.00032461
-5.99252e-06
0.000326547
-5.80449e-06
0.00032842
-5.61202e-06
0.000330228
-5.41518e-06
0.000331968
-5.21407e-06
0.00033364
-5.00878e-06
0.000335242
-4.79943e-06
0.000336773
-4.58613e-06
0.000338231
-4.36901e-06
0.000339616
-4.14821e-06
0.000340926
-3.92387e-06
0.000342159
-3.69614e-06
0.000343316
-3.4652e-06
0.000344395
-3.2312e-06
0.000345394
-2.99433e-06
0.000346314
-2.75477e-06
0.000347153
-2.51271e-06
0.00034791
-2.26836e-06
0.000348585
-2.0219e-06
0.000349177
-1.77356e-06
0.000349686
-1.52355e-06
0.000350111
-1.27209e-06
0.000350451
-1.01939e-06
0.000350707
-7.65694e-07
0.000350877
-5.11216e-07
0.000350963
-2.56191e-07
0.000350963
-8.50423e-10
0.000350878
2.54574e-07
0.000350708
5.0985e-07
0.000350453
7.64747e-07
0.000350113
1.01903e-06
0.000349688
1.27248e-06
0.000349179
1.52487e-06
0.000348586
1.77597e-06
0.00034791
2.02556e-06
0.000347151
2.27343e-06
0.00034631
2.51937e-06
0.000345388
2.76318e-06
0.000344385
3.00465e-06
0.000343302
3.24359e-06
0.000342141
3.47983e-06
0.000340901
3.71317e-06
0.000339585
3.94345e-06
0.000338193
4.1705e-06
0.000336726
4.39417e-06
0.000335186
4.61431e-06
0.000333574
4.83079e-06
0.00033189
5.04347e-06
0.000330137
5.25223e-06
0.000328316
5.45696e-06
0.000326428
5.65757e-06
0.000324474
5.85394e-06
0.000322457
6.04601e-06
0.000320376
6.23369e-06
0.000318235
6.41692e-06
0.000316034
6.59563e-06
0.000313774
6.7698e-06
0.000311459
6.93936e-06
0.000309088
7.1043e-06
0.000306664
7.26458e-06
0.000304188
7.4202e-06
0.000301662
7.57114e-06
0.000299087
7.71741e-06
0.000296464
7.85901e-06
0.000293796
7.99596e-06
0.000291085
8.12829e-06
0.00028833
8.25601e-06
0.000285534
8.37917e-06
0.000282699
8.49781e-06
0.000279826
8.61196e-06
0.000276917
8.72169e-06
0.000273972
8.82704e-06
0.000270993
8.92809e-06
0.000267983
9.02488e-06
0.000264941
9.11751e-06
0.00026187
9.20602e-06
0.000258771
9.29052e-06
0.000255646
9.37106e-06
0.000252494
9.44774e-06
0.000249319
9.52063e-06
0.00024612
9.58983e-06
0.0002429
9.65543e-06
0.000239659
9.71751e-06
0.000236398
9.77617e-06
0.000233119
9.8315e-06
0.000229823
9.88359e-06
0.00022651
9.93255e-06
0.000223182
9.97846e-06
0.00021984
1.00214e-05
0.000216485
1.00615e-05
0.000213117
1.00989e-05
0.000209738
1.01336e-05
0.000206348
1.01657e-05
0.000202948
1.01954e-05
0.000199539
1.02226e-05
0.000196122
1.02476e-05
0.000192698
1.02704e-05
0.000189266
1.02912e-05
0.000185828
1.03099e-05
0.000182385
1.03267e-05
0.000178937
1.03416e-05
0.000175485
1.03548e-05
0.000172028
1.03664e-05
0.000168569
1.03764e-05
0.000165106
1.03849e-05
0.000161641
1.0392e-05
0.000158175
1.03977e-05
0.000154707
1.04023e-05
0.000151238
1.04056e-05
0.000147768
1.04078e-05
0.000144298
1.0409e-05
0.000140827
1.04093e-05
0.000137357
1.04086e-05
0.000133888
1.04071e-05
0.000130419
1.04049e-05
0.000126951
1.0402e-05
0.000123485
1.03984e-05
0.00012002
1.03943e-05
0.000116556
1.03896e-05
0.000113095
1.03845e-05
0.000109635
1.03789e-05
0.000106177
1.03731e-05
0.000102721
1.03669e-05
9.92677e-05
1.03604e-05
9.58163e-05
1.03537e-05
9.23673e-05
1.03469e-05
8.89206e-05
1.03399e-05
8.54763e-05
1.03329e-05
8.20343e-05
1.03258e-05
7.85948e-05
1.03187e-05
7.51576e-05
1.03117e-05
7.17228e-05
1.03047e-05
6.82903e-05
1.02978e-05
6.486e-05
1.0291e-05
6.1432e-05
1.02844e-05
5.80061e-05
1.0278e-05
5.45823e-05
1.02718e-05
5.11605e-05
1.02658e-05
4.77407e-05
1.02601e-05
4.43226e-05
1.02547e-05
4.09063e-05
1.02495e-05
3.74916e-05
1.02447e-05
3.40783e-05
1.02403e-05
3.06665e-05
1.02362e-05
2.72559e-05
1.02324e-05
2.38464e-05
1.02291e-05
2.04379e-05
1.02261e-05
1.70303e-05
1.02236e-05
1.36234e-05
1.02215e-05
1.0217e-05
1.02197e-05
6.8111e-06
1.02184e-05
3.40548e-06
1.02176e-05
1.02172e-05
3.25792e-06
-1.30339e-05
6.516e-06
-1.30346e-05
9.7744e-06
-1.30358e-05
1.30333e-05
-1.30377e-05
1.62928e-05
-1.30403e-05
1.95531e-05
-1.30435e-05
2.28144e-05
-1.30472e-05
2.60768e-05
-1.30516e-05
2.93404e-05
-1.30566e-05
3.26055e-05
-1.30622e-05
3.58721e-05
-1.30683e-05
3.91404e-05
-1.30751e-05
4.24105e-05
-1.30823e-05
4.56826e-05
-1.30901e-05
4.89567e-05
-1.30984e-05
5.22331e-05
-1.31072e-05
5.55118e-05
-1.31164e-05
5.8793e-05
-1.31261e-05
6.20767e-05
-1.31362e-05
6.5363e-05
-1.31466e-05
6.86521e-05
-1.31575e-05
7.1944e-05
-1.31686e-05
7.52388e-05
-1.31801e-05
7.85366e-05
-1.31918e-05
8.18374e-05
-1.32037e-05
8.51412e-05
-1.32158e-05
8.84481e-05
-1.32281e-05
9.17582e-05
-1.32405e-05
9.50714e-05
-1.32529e-05
9.83878e-05
-1.32653e-05
0.000101707
-1.32776e-05
0.00010503
-1.32899e-05
0.000108356
-1.33021e-05
0.000111684
-1.3314e-05
0.000115016
-1.33257e-05
0.000118351
-1.3337e-05
0.000121688
-1.3348e-05
0.000125028
-1.33585e-05
0.000128371
-1.33685e-05
0.000131716
-1.33779e-05
0.000135063
-1.33866e-05
0.000138412
-1.33946e-05
0.000141764
-1.34018e-05
0.000145117
-1.34081e-05
0.000148471
-1.34135e-05
0.000151826
-1.34177e-05
0.000155183
-1.34208e-05
0.000158539
-1.34227e-05
0.000161896
-1.34232e-05
0.000165253
-1.34223e-05
0.00016861
-1.34198e-05
0.000171965
-1.34157e-05
0.000175319
-1.34099e-05
0.000178672
-1.34022e-05
0.000182022
-1.33926e-05
0.000185369
-1.33809e-05
0.000188712
-1.3367e-05
0.000192052
-1.33508e-05
0.000195388
-1.33322e-05
0.000198718
-1.3311e-05
0.000202042
-1.32871e-05
0.00020536
-1.32605e-05
0.00020867
-1.32309e-05
0.000211972
-1.31983e-05
0.000215266
-1.31626e-05
0.00021855
-1.31235e-05
0.000221823
-1.30809e-05
0.000225085
-1.30348e-05
0.000228335
-1.2985e-05
0.000231571
-1.29313e-05
0.000234793
-1.28736e-05
0.000238
-1.28119e-05
0.00024119
-1.27459e-05
0.000244363
-1.26755e-05
0.000247517
-1.26005e-05
0.000250651
-1.2521e-05
0.000253765
-1.24366e-05
0.000256856
-1.23474e-05
0.000259924
-1.22531e-05
0.000262967
-1.21537e-05
0.000265984
-1.2049e-05
0.000268973
-1.19389e-05
0.000271934
-1.18234e-05
0.000274865
-1.17022e-05
0.000277764
-1.15753e-05
0.000280629
-1.14427e-05
0.000283461
-1.13041e-05
0.000286256
-1.11596e-05
0.000289013
-1.1009e-05
0.000291732
-1.08523e-05
0.00029441
-1.06894e-05
0.000297045
-1.05203e-05
0.000299637
-1.03449e-05
0.000302183
-1.01632e-05
0.000304683
-9.97507e-06
0.000307133
-9.78062e-06
0.000309534
-9.57979e-06
0.000311883
-9.37259e-06
0.000314178
-9.15903e-06
0.000316418
-8.93913e-06
0.000318602
-8.71293e-06
0.000320727
-8.48048e-06
0.000322793
-8.24183e-06
0.000324798
-7.99705e-06
0.000326739
-7.74624e-06
0.000328617
-7.48948e-06
0.000330429
-7.22689e-06
0.000332173
-6.95859e-06
0.000333849
-6.6847e-06
0.000335455
-6.40538e-06
0.00033699
-6.12078e-06
0.000338452
-5.83107e-06
0.00033984
-5.53645e-06
0.000341153
-5.23709e-06
0.00034239
-4.9332e-06
0.00034355
-4.62501e-06
0.000344632
-4.31274e-06
0.000345634
-3.99662e-06
0.000346556
-3.67691e-06
0.000347397
-3.35386e-06
0.000348157
-3.02773e-06
0.000348833
-2.69881e-06
0.000349427
-2.36735e-06
0.000349937
-2.03367e-06
0.000350363
-1.69804e-06
0.000350705
-1.36076e-06
0.000350961
-1.02214e-06
0.000351132
-6.82476e-07
0.000351218
-3.42083e-07
0.000351219
-1.26809e-09
0.000351134
3.39659e-07
0.000350963
6.80387e-07
0.000350707
1.02061e-06
0.000350366
1.36001e-06
0.00034994
1.69829e-06
0.00034943
2.03515e-06
0.000348836
2.37029e-06
0.000348158
2.70341e-06
0.000347397
3.03424e-06
0.000346554
3.36248e-06
0.000345629
3.68786e-06
0.000344624
4.01012e-06
0.000343538
4.329e-06
0.000342374
4.64426e-06
0.000341132
4.95565e-06
0.000339812
5.26294e-06
0.000338417
5.56592e-06
0.000336946
5.86438e-06
0.000335403
6.15812e-06
0.000333786
6.44695e-06
0.000332099
6.73071e-06
0.000330342
7.00924e-06
0.000328517
7.28237e-06
0.000326624
7.54999e-06
0.000324666
7.81195e-06
0.000322644
8.06816e-06
0.000320559
8.3185e-06
0.000318413
8.56289e-06
0.000316208
8.80126e-06
0.000313944
9.03354e-06
0.000311624
9.25967e-06
0.000309248
9.47962e-06
0.00030682
9.69336e-06
0.000304339
9.90086e-06
0.000301808
1.01021e-05
0.000299228
1.02971e-05
0.000296601
1.04859e-05
0.000293929
1.06685e-05
0.000291212
1.08449e-05
0.000288453
1.10151e-05
0.000285653
1.11793e-05
0.000282814
1.13374e-05
0.000279936
1.14895e-05
0.000277022
1.16357e-05
0.000274073
1.17761e-05
0.00027109
1.19107e-05
0.000268075
1.20397e-05
0.00026503
1.21631e-05
0.000261955
1.2281e-05
0.000258852
1.23935e-05
0.000255722
1.25008e-05
0.000252567
1.26029e-05
0.000249388
1.26999e-05
0.000246186
1.27921e-05
0.000242962
1.28794e-05
0.000239717
1.2962e-05
0.000236453
1.30401e-05
0.000233171
1.31137e-05
0.000229872
1.3183e-05
0.000226556
1.32481e-05
0.000223225
1.33092e-05
0.000219881
1.33663e-05
0.000216522
1.34197e-05
0.000213152
1.34693e-05
0.00020977
1.35154e-05
0.000206378
1.35581e-05
0.000202976
1.35975e-05
0.000199564
1.36337e-05
0.000196145
1.36669e-05
0.000192718
1.36972e-05
0.000189285
1.37247e-05
0.000185845
1.37495e-05
0.0001824
1.37717e-05
0.00017895
1.37915e-05
0.000175496
1.3809e-05
0.000172038
1.38243e-05
0.000168577
1.38375e-05
0.000165113
1.38487e-05
0.000161647
1.38581e-05
0.000158179
1.38656e-05
0.00015471
1.38715e-05
0.00015124
1.38758e-05
0.000147769
1.38787e-05
0.000144298
1.38802e-05
0.000140827
1.38804e-05
0.000137356
1.38794e-05
0.000133886
1.38774e-05
0.000130416
1.38743e-05
0.000126948
1.38703e-05
0.000123481
1.38654e-05
0.000120015
1.38598e-05
0.000116551
1.38535e-05
0.000113089
1.38466e-05
0.000109629
1.38392e-05
0.000106171
1.38312e-05
0.000102715
1.38229e-05
9.92611e-05
1.38142e-05
9.58095e-05
1.38052e-05
9.23604e-05
1.37961e-05
8.89136e-05
1.37867e-05
8.54692e-05
1.37773e-05
8.20273e-05
1.37678e-05
7.85878e-05
1.37582e-05
7.51506e-05
1.37488e-05
7.17159e-05
1.37394e-05
6.82835e-05
1.37301e-05
6.48534e-05
1.37211e-05
6.14256e-05
1.37122e-05
5.79999e-05
1.37036e-05
5.45764e-05
1.36953e-05
5.11549e-05
1.36873e-05
4.77353e-05
1.36797e-05
4.43175e-05
1.36724e-05
4.09015e-05
1.36655e-05
3.74871e-05
1.36591e-05
3.40743e-05
1.36532e-05
3.06628e-05
1.36477e-05
2.72525e-05
1.36427e-05
2.38435e-05
1.36382e-05
2.04354e-05
1.36342e-05
1.70281e-05
1.36308e-05
1.36216e-05
1.3628e-05
1.02157e-05
1.36257e-05
6.81024e-06
1.36239e-05
3.40505e-06
1.36228e-05
1.36222e-05
3.25727e-06
-1.62912e-05
6.51471e-06
-1.6292e-05
9.77248e-06
-1.62936e-05
1.30307e-05
-1.6296e-05
1.62896e-05
-1.62992e-05
1.95493e-05
-1.63031e-05
2.281e-05
-1.63079e-05
2.60718e-05
-1.63134e-05
2.93348e-05
-1.63197e-05
3.25993e-05
-1.63267e-05
3.58653e-05
-1.63344e-05
3.9133e-05
-1.63428e-05
4.24026e-05
-1.63519e-05
4.56742e-05
-1.63617e-05
4.89479e-05
-1.63721e-05
5.22238e-05
-1.63831e-05
5.55021e-05
-1.63947e-05
5.87828e-05
-1.64068e-05
6.20661e-05
-1.64195e-05
6.53521e-05
-1.64326e-05
6.86409e-05
-1.64462e-05
7.19325e-05
-1.64603e-05
7.5227e-05
-1.64746e-05
7.85246e-05
-1.64893e-05
8.18251e-05
-1.65043e-05
8.51288e-05
-1.65195e-05
8.84357e-05
-1.65349e-05
9.17457e-05
-1.65505e-05
9.50589e-05
-1.65661e-05
9.83753e-05
-1.65817e-05
0.000101695
-1.65972e-05
0.000105018
-1.66127e-05
0.000108344
-1.66279e-05
0.000111672
-1.6643e-05
0.000115004
-1.66577e-05
0.000118339
-1.6672e-05
0.000121677
-1.66858e-05
0.000125018
-1.66991e-05
0.000128361
-1.67117e-05
0.000131707
-1.67236e-05
0.000135055
-1.67347e-05
0.000138405
-1.67448e-05
0.000141757
-1.6754e-05
0.000145111
-1.6762e-05
0.000148466
-1.67688e-05
0.000151823
-1.67743e-05
0.000155181
-1.67784e-05
0.000158539
-1.67809e-05
0.000161897
-1.67817e-05
0.000165256
-1.67807e-05
0.000168614
-1.67779e-05
0.000171971
-1.6773e-05
0.000175327
-1.67659e-05
0.000178681
-1.67565e-05
0.000182033
-1.67446e-05
0.000185382
-1.67302e-05
0.000188728
-1.6713e-05
0.000192071
-1.6693e-05
0.000195409
-1.667e-05
0.000198741
-1.66437e-05
0.000202068
-1.66142e-05
0.000205389
-1.65811e-05
0.000208702
-1.65444e-05
0.000212008
-1.65039e-05
0.000215305
-1.64594e-05
0.000218592
-1.64108e-05
0.000221869
-1.63579e-05
0.000225135
-1.63005e-05
0.000228388
-1.62384e-05
0.000231628
-1.61716e-05
0.000234855
-1.60998e-05
0.000238065
-1.60228e-05
0.00024126
-1.59405e-05
0.000244437
-1.58528e-05
0.000247596
-1.57594e-05
0.000250736
-1.56602e-05
0.000253854
-1.5555e-05
0.00025695
-1.54437e-05
0.000260023
-1.5326e-05
0.000263071
-1.5202e-05
0.000266094
-1.50713e-05
0.000269089
-1.4934e-05
0.000272055
-1.47897e-05
0.000274991
-1.46384e-05
0.000277896
-1.448e-05
0.000280768
-1.43144e-05
0.000283605
-1.41413e-05
0.000286406
-1.39608e-05
0.00028917
-1.37727e-05
0.000291895
-1.3577e-05
0.000294579
-1.33735e-05
0.00029722
-1.31621e-05
0.000299819
-1.29429e-05
0.000302371
-1.27158e-05
0.000304877
-1.24808e-05
0.000307334
-1.22377e-05
0.000309741
-1.19867e-05
0.000312096
-1.17277e-05
0.000314398
-1.14607e-05
0.000316644
-1.11857e-05
0.000318834
-1.09029e-05
0.000320966
-1.06122e-05
0.000323038
-1.03138e-05
0.000325048
-1.00076e-05
0.000326996
-9.69394e-06
0.000328879
-9.37279e-06
0.000330697
-9.04432e-06
0.000332447
-8.70869e-06
0.000334128
-8.36606e-06
0.000335739
-8.01661e-06
0.000337279
-7.66054e-06
0.000338746
-7.29807e-06
0.000340139
-6.92942e-06
0.000341457
-6.55483e-06
0.000342698
-6.17457e-06
0.000343862
-5.78891e-06
0.000344948
-5.39813e-06
0.000345953
-5.00252e-06
0.000346879
-4.6024e-06
0.000347723
-4.19809e-06
0.000348485
-3.78992e-06
0.000349165
-3.37823e-06
0.000349761
-2.96338e-06
0.000350273
-2.54573e-06
0.0003507
-2.12563e-06
0.000351043
-1.70347e-06
0.000351301
-1.27962e-06
0.000351473
-8.54471e-07
0.000351559
-4.28401e-07
0.00035156
-1.80141e-09
0.000351474
4.24938e-07
0.000351303
8.51427e-07
0.000351047
1.27728e-06
0.000350704
1.70211e-06
0.000350277
2.12552e-06
0.000349765
2.54716e-06
0.000349169
2.96663e-06
0.000348489
3.38357e-06
0.000347725
3.79762e-06
0.000346879
4.20843e-06
0.000345952
4.61566e-06
0.000344943
5.01897e-06
0.000343854
5.41804e-06
0.000342685
5.81255e-06
0.000341439
6.20222e-06
0.000340115
6.58674e-06
0.000338715
6.96586e-06
0.00033724
7.3393e-06
0.000335691
7.70682e-06
0.00033407
8.06819e-06
0.000332378
8.42319e-06
0.000330615
8.77162e-06
0.000328784
9.1133e-06
0.000326886
9.44805e-06
0.000324923
9.77572e-06
0.000322895
1.00962e-05
0.000320804
1.04093e-05
0.000318652
1.07149e-05
0.00031644
1.1013e-05
0.00031417
1.13034e-05
0.000311844
1.15862e-05
0.000309462
1.18612e-05
0.000307027
1.21284e-05
0.00030454
1.23878e-05
0.000302003
1.26393e-05
0.000299417
1.28831e-05
0.000296784
1.3119e-05
0.000294105
1.33472e-05
0.000291383
1.35676e-05
0.000288617
1.37803e-05
0.000285811
1.39854e-05
0.000282966
1.41829e-05
0.000280082
1.43729e-05
0.000277162
1.45556e-05
0.000274208
1.47309e-05
0.000271219