/*--------------------------------*- C++ -*----------------------------------*\
| =========                 |                                                 |
| \\      /  F ield         | OpenFOAM: The Open Source CFD Toolbox           |
|  \\    /   O peration     | Version:  v2012                                 |
|   \\  /    A nd           | Website:  www.openfoam.com                      |
|    \\/     M anipulation  |                                                 |
\*---------------------------------------------------------------------------*/
FoamFile
{
    version     2.0;
    format      ascii;
    class       volVectorField;
    location    "18";
    object      Psi;
}
// * * * * * * * * * * * * * * * * * * * * * * * * * * * * * * * * * * * * * //

dimensions      [0 2 -1 0 0 0 0];


internalField   nonuniform List<vector> 
65536
(
(0 0 8.13697e-06)
(0 0 2.44114e-05)
(0 0 4.0687e-05)
(0 0 5.69646e-05)
(0 0 7.32449e-05)
(0 0 8.95287e-05)
(0 0 0.000105817)
(0 0 0.00012211)
(0 0 0.000138409)
(0 0 0.000154714)
(0 0 0.000171026)
(0 0 0.000187347)
(0 0 0.000203676)
(0 0 0.000220014)
(0 0 0.000236362)
(0 0 0.00025272)
(0 0 0.00026909)
(0 0 0.000285471)
(0 0 0.000301864)
(0 0 0.00031827)
(0 0 0.000334689)
(0 0 0.000351121)
(0 0 0.000367567)
(0 0 0.000384028)
(0 0 0.000400502)
(0 0 0.000416992)
(0 0 0.000433496)
(0 0 0.000450016)
(0 0 0.00046655)
(0 0 0.0004831)
(0 0 0.000499665)
(0 0 0.000516244)
(0 0 0.000532839)
(0 0 0.000549448)
(0 0 0.000566072)
(0 0 0.000582709)
(0 0 0.00059936)
(0 0 0.000616024)
(0 0 0.000632701)
(0 0 0.000649389)
(0 0 0.000666088)
(0 0 0.000682797)
(0 0 0.000699515)
(0 0 0.000716242)
(0 0 0.000732975)
(0 0 0.000749713)
(0 0 0.000766456)
(0 0 0.000783201)
(0 0 0.000799948)
(0 0 0.000816694)
(0 0 0.000833437)
(0 0 0.000850176)
(0 0 0.000866908)
(0 0 0.000883632)
(0 0 0.000900344)
(0 0 0.000917042)
(0 0 0.000933725)
(0 0 0.000950388)
(0 0 0.000967029)
(0 0 0.000983645)
(0 0 0.00100023)
(0 0 0.00101679)
(0 0 0.00103331)
(0 0 0.00104979)
(0 0 0.00106623)
(0 0 0.00108262)
(0 0 0.00109896)
(0 0 0.00111525)
(0 0 0.00113147)
(0 0 0.00114763)
(0 0 0.00116372)
(0 0 0.00117974)
(0 0 0.00119568)
(0 0 0.00121153)
(0 0 0.00122729)
(0 0 0.00124296)
(0 0 0.00125852)
(0 0 0.00127398)
(0 0 0.00128932)
(0 0 0.00130454)
(0 0 0.00131963)
(0 0 0.00133459)
(0 0 0.00134941)
(0 0 0.00136408)
(0 0 0.0013786)
(0 0 0.00139296)
(0 0 0.00140715)
(0 0 0.00142116)
(0 0 0.00143499)
(0 0 0.00144863)
(0 0 0.00146207)
(0 0 0.0014753)
(0 0 0.00148832)
(0 0 0.00150112)
(0 0 0.00151369)
(0 0 0.00152602)
(0 0 0.0015381)
(0 0 0.00154994)
(0 0 0.00156151)
(0 0 0.00157281)
(0 0 0.00158383)
(0 0 0.00159457)
(0 0 0.00160502)
(0 0 0.00161517)
(0 0 0.00162501)
(0 0 0.00163453)
(0 0 0.00164373)
(0 0 0.0016526)
(0 0 0.00166114)
(0 0 0.00166933)
(0 0 0.00167717)
(0 0 0.00168465)
(0 0 0.00169178)
(0 0 0.00169853)
(0 0 0.00170491)
(0 0 0.0017109)
(0 0 0.00171651)
(0 0 0.00172173)
(0 0 0.00172656)
(0 0 0.00173099)
(0 0 0.00173501)
(0 0 0.00173862)
(0 0 0.00174183)
(0 0 0.00174462)
(0 0 0.00174699)
(0 0 0.00174894)
(0 0 0.00175048)
(0 0 0.00175159)
(0 0 0.00175228)
(0 0 0.00175254)
(0 0 0.00175238)
(0 0 0.0017518)
(0 0 0.00175079)
(0 0 0.00174936)
(0 0 0.0017475)
(0 0 0.00174522)
(0 0 0.00174253)
(0 0 0.00173942)
(0 0 0.00173589)
(0 0 0.00173195)
(0 0 0.00172761)
(0 0 0.00172286)
(0 0 0.00171771)
(0 0 0.00171216)
(0 0 0.00170622)
(0 0 0.0016999)
(0 0 0.00169319)
(0 0 0.00168611)
(0 0 0.00167866)
(0 0 0.00167084)
(0 0 0.00166267)
(0 0 0.00165414)
(0 0 0.00164527)
(0 0 0.00163606)
(0 0 0.00162652)
(0 0 0.00161665)
(0 0 0.00160647)
(0 0 0.00159598)
(0 0 0.00158518)
(0 0 0.00157409)
(0 0 0.00156271)
(0 0 0.00155105)
(0 0 0.00153912)
(0 0 0.00152692)
(0 0 0.00151447)
(0 0 0.00150177)
(0 0 0.00148883)
(0 0 0.00147565)
(0 0 0.00146225)
(0 0 0.00144863)
(0 0 0.0014348)
(0 0 0.00142077)
(0 0 0.00140654)
(0 0 0.00139212)
(0 0 0.00137752)
(0 0 0.00136275)
(0 0 0.00134782)
(0 0 0.00133272)
(0 0 0.00131747)
(0 0 0.00130208)
(0 0 0.00128655)
(0 0 0.00127088)
(0 0 0.00125509)
(0 0 0.00123918)
(0 0 0.00122316)
(0 0 0.00120703)
(0 0 0.00119079)
(0 0 0.00117447)
(0 0 0.00115805)
(0 0 0.00114154)
(0 0 0.00112496)
(0 0 0.00110829)
(0 0 0.00109156)
(0 0 0.00107477)
(0 0 0.00105791)
(0 0 0.001041)
(0 0 0.00102403)
(0 0 0.00100701)
(0 0 0.000989955)
(0 0 0.000972855)
(0 0 0.000955718)
(0 0 0.000938547)
(0 0 0.000921346)
(0 0 0.000904117)
(0 0 0.000886865)
(0 0 0.000869591)
(0 0 0.000852298)
(0 0 0.000834989)
(0 0 0.000817667)
(0 0 0.000800333)
(0 0 0.00078299)
(0 0 0.000765639)
(0 0 0.000748284)
(0 0 0.000730925)
(0 0 0.000713565)
(0 0 0.000696204)
(0 0 0.000678845)
(0 0 0.000661488)
(0 0 0.000644135)
(0 0 0.000626787)
(0 0 0.000609445)
(0 0 0.000592111)
(0 0 0.000574783)
(0 0 0.000557465)
(0 0 0.000540155)
(0 0 0.000522856)
(0 0 0.000505566)
(0 0 0.000488287)
(0 0 0.000471019)
(0 0 0.000453763)
(0 0 0.000436518)
(0 0 0.000419284)
(0 0 0.000402062)
(0 0 0.000384851)
(0 0 0.000367652)
(0 0 0.000350465)
(0 0 0.000333289)
(0 0 0.000316123)
(0 0 0.000298968)
(0 0 0.000281824)
(0 0 0.00026469)
(0 0 0.000247565)
(0 0 0.000230449)
(0 0 0.000213343)
(0 0 0.000196244)
(0 0 0.000179153)
(0 0 0.000162069)
(0 0 0.000144991)
(0 0 0.000127919)
(0 0 0.000110853)
(0 0 9.37907e-05)
(0 0 7.67325e-05)
(0 0 5.96775e-05)
(0 0 4.2625e-05)
(0 0 2.55743e-05)
(0 0 8.52465e-06)
(0 0 2.44107e-05)
(0 0 7.32333e-05)
(0 0 0.000122059)
(0 0 0.000170892)
(0 0 0.000219732)
(0 0 0.000268582)
(0 0 0.000317446)
(0 0 0.000366325)
(0 0 0.00041522)
(0 0 0.000464136)
(0 0 0.000513073)
(0 0 0.000562033)
(0 0 0.00061102)
(0 0 0.000660034)
(0 0 0.000709077)
(0 0 0.000758152)
(0 0 0.00080726)
(0 0 0.000856403)
(0 0 0.000905582)
(0 0 0.000954799)
(0 0 0.00100406)
(0 0 0.00105335)
(0 0 0.00110269)
(0 0 0.00115207)
(0 0 0.0012015)
(0 0 0.00125096)
(0 0 0.00130048)
(0 0 0.00135003)
(0 0 0.00139964)
(0 0 0.00144929)
(0 0 0.00149898)
(0 0 0.00154872)
(0 0 0.00159851)
(0 0 0.00164833)
(0 0 0.0016982)
(0 0 0.00174812)
(0 0 0.00179807)
(0 0 0.00184806)
(0 0 0.0018981)
(0 0 0.00194816)
(0 0 0.00199826)
(0 0 0.00204839)
(0 0 0.00209854)
(0 0 0.00214872)
(0 0 0.00219892)
(0 0 0.00224914)
(0 0 0.00229937)
(0 0 0.00234961)
(0 0 0.00239985)
(0 0 0.00245009)
(0 0 0.00250032)
(0 0 0.00255054)
(0 0 0.00260074)
(0 0 0.00265091)
(0 0 0.00270105)
(0 0 0.00275115)
(0 0 0.0028012)
(0 0 0.00285119)
(0 0 0.00290112)
(0 0 0.00295097)
(0 0 0.00300074)
(0 0 0.00305041)
(0 0 0.00309997)
(0 0 0.00314942)
(0 0 0.00319874)
(0 0 0.00324792)
(0 0 0.00329695)
(0 0 0.00334581)
(0 0 0.00339449)
(0 0 0.00344298)
(0 0 0.00349125)
(0 0 0.00353931)
(0 0 0.00358713)
(0 0 0.00363469)
(0 0 0.00368198)
(0 0 0.00372898)
(0 0 0.00377568)
(0 0 0.00382205)
(0 0 0.00386808)
(0 0 0.00391374)
(0 0 0.00395903)
(0 0 0.00400392)
(0 0 0.00404838)
(0 0 0.00409241)
(0 0 0.00413597)
(0 0 0.00417905)
(0 0 0.00422162)
(0 0 0.00426367)
(0 0 0.00430516)
(0 0 0.00434609)
(0 0 0.00438641)
(0 0 0.00442612)
(0 0 0.00446519)
(0 0 0.00450359)
(0 0 0.0045413)
(0 0 0.00457831)
(0 0 0.00461457)
(0 0 0.00465007)
(0 0 0.00468479)
(0 0 0.0047187)
(0 0 0.00475179)
(0 0 0.00478401)
(0 0 0.00481536)
(0 0 0.00484581)
(0 0 0.00487534)
(0 0 0.00490392)
(0 0 0.00493153)
(0 0 0.00495815)
(0 0 0.00498376)
(0 0 0.00500834)
(0 0 0.00503187)
(0 0 0.00505433)
(0 0 0.0050757)
(0 0 0.00509596)
(0 0 0.0051151)
(0 0 0.0051331)
(0 0 0.00514993)
(0 0 0.0051656)
(0 0 0.00518008)
(0 0 0.00519336)
(0 0 0.00520543)
(0 0 0.00521628)
(0 0 0.00522589)
(0 0 0.00523427)
(0 0 0.00524139)
(0 0 0.00524726)
(0 0 0.00525186)
(0 0 0.0052552)
(0 0 0.00525726)
(0 0 0.00525806)
(0 0 0.00525757)
(0 0 0.00525582)
(0 0 0.00525279)
(0 0 0.00524849)
(0 0 0.00524292)
(0 0 0.00523609)
(0 0 0.005228)
(0 0 0.00521867)
(0 0 0.00520808)
(0 0 0.00519627)
(0 0 0.00518323)
(0 0 0.00516897)
(0 0 0.00515352)
(0 0 0.00513688)
(0 0 0.00511906)
(0 0 0.00510008)
(0 0 0.00507996)
(0 0 0.00505871)
(0 0 0.00503635)
(0 0 0.00501289)
(0 0 0.00498836)
(0 0 0.00496278)
(0 0 0.00493616)
(0 0 0.00490852)
(0 0 0.00487989)
(0 0 0.00485028)
(0 0 0.00481972)
(0 0 0.00478823)
(0 0 0.00475583)
(0 0 0.00472255)
(0 0 0.00468841)
(0 0 0.00465342)
(0 0 0.00461762)
(0 0 0.00458102)
(0 0 0.00454366)
(0 0 0.00450555)
(0 0 0.00446671)
(0 0 0.00442717)
(0 0 0.00438696)
(0 0 0.00434609)
(0 0 0.0043046)
(0 0 0.00426249)
(0 0 0.0042198)
(0 0 0.00417654)
(0 0 0.00413274)
(0 0 0.00408842)
(0 0 0.00404361)
(0 0 0.00399831)
(0 0 0.00395256)
(0 0 0.00390638)
(0 0 0.00385977)
(0 0 0.00381277)
(0 0 0.0037654)
(0 0 0.00371766)
(0 0 0.00366958)
(0 0 0.00362118)
(0 0 0.00357248)
(0 0 0.00352348)
(0 0 0.00347422)
(0 0 0.0034247)
(0 0 0.00337494)
(0 0 0.00332495)
(0 0 0.00327475)
(0 0 0.00322436)
(0 0 0.00317378)
(0 0 0.00312304)
(0 0 0.00307213)
(0 0 0.00302109)
(0 0 0.0029699)
(0 0 0.0029186)
(0 0 0.00286719)
(0 0 0.00281567)
(0 0 0.00276406)
(0 0 0.00271237)
(0 0 0.00266061)
(0 0 0.00260879)
(0 0 0.00255691)
(0 0 0.00250498)
(0 0 0.00245301)
(0 0 0.002401)
(0 0 0.00234897)
(0 0 0.00229692)
(0 0 0.00224485)
(0 0 0.00219278)
(0 0 0.00214069)
(0 0 0.00208861)
(0 0 0.00203653)
(0 0 0.00198446)
(0 0 0.0019324)
(0 0 0.00188035)
(0 0 0.00182833)
(0 0 0.00177632)
(0 0 0.00172434)
(0 0 0.00167238)
(0 0 0.00162045)
(0 0 0.00156855)
(0 0 0.00151669)
(0 0 0.00146485)
(0 0 0.00141305)
(0 0 0.00136128)
(0 0 0.00130954)
(0 0 0.00125784)
(0 0 0.00120617)
(0 0 0.00115454)
(0 0 0.00110294)
(0 0 0.00105138)
(0 0 0.000999853)
(0 0 0.000948357)
(0 0 0.000896894)
(0 0 0.000845461)
(0 0 0.000794059)
(0 0 0.000742685)
(0 0 0.000691339)
(0 0 0.000640019)
(0 0 0.000588723)
(0 0 0.00053745)
(0 0 0.000486199)
(0 0 0.000434967)
(0 0 0.000383752)
(0 0 0.000332553)
(0 0 0.000281368)
(0 0 0.000230194)
(0 0 0.00017903)
(0 0 0.000127873)
(0 0 7.67218e-05)
(0 0 2.55736e-05)
(0 0 4.06832e-05)
(0 0 0.000122052)
(0 0 0.000203426)
(0 0 0.00028481)
(0 0 0.000366208)
(0 0 0.000447623)
(0 0 0.00052906)
(0 0 0.000610522)
(0 0 0.000692013)
(0 0 0.000773536)
(0 0 0.000855095)
(0 0 0.000936694)
(0 0 0.00101834)
(0 0 0.00110002)
(0 0 0.00118176)
(0 0 0.00126355)
(0 0 0.0013454)
(0 0 0.0014273)
(0 0 0.00150926)
(0 0 0.00159129)
(0 0 0.00167338)
(0 0 0.00175554)
(0 0 0.00183777)
(0 0 0.00192007)
(0 0 0.00200244)
(0 0 0.00208489)
(0 0 0.00216741)
(0 0 0.00225001)
(0 0 0.00233268)
(0 0 0.00241543)
(0 0 0.00249825)
(0 0 0.00258115)
(0 0 0.00266413)
(0 0 0.00274718)
(0 0 0.0028303)
(0 0 0.00291349)
(0 0 0.00299674)
(0 0 0.00308007)
(0 0 0.00316345)
(0 0 0.0032469)
(0 0 0.0033304)
(0 0 0.00341395)
(0 0 0.00349755)
(0 0 0.00358118)
(0 0 0.00366485)
(0 0 0.00374855)
(0 0 0.00383227)
(0 0 0.00391601)
(0 0 0.00399975)
(0 0 0.00408349)
(0 0 0.00416722)
(0 0 0.00425092)
(0 0 0.00433459)
(0 0 0.00441822)
(0 0 0.0045018)
(0 0 0.0045853)
(0 0 0.00466873)
(0 0 0.00475206)
(0 0 0.00483528)
(0 0 0.00491838)
(0 0 0.00500133)
(0 0 0.00508413)
(0 0 0.00516675)
(0 0 0.00524918)
(0 0 0.00533139)
(0 0 0.00541337)
(0 0 0.0054951)
(0 0 0.00557655)
(0 0 0.0056577)
(0 0 0.00573852)
(0 0 0.00581901)
(0 0 0.00589912)
(0 0 0.00597883)
(0 0 0.00605812)
(0 0 0.00613695)
(0 0 0.00621531)
(0 0 0.00629315)
(0 0 0.00637046)
(0 0 0.0064472)
(0 0 0.00652333)
(0 0 0.00659883)
(0 0 0.00667367)
(0 0 0.0067478)
(0 0 0.0068212)
(0 0 0.00689382)
(0 0 0.00696565)
(0 0 0.00703663)
(0 0 0.00710673)
(0 0 0.00717591)
(0 0 0.00724414)
(0 0 0.00731138)
(0 0 0.00737759)
(0 0 0.00744272)
(0 0 0.00750675)
(0 0 0.00756963)
(0 0 0.00763133)
(0 0 0.00769179)
(0 0 0.00775099)
(0 0 0.00780889)
(0 0 0.00786543)
(0 0 0.00792059)
(0 0 0.00797433)
(0 0 0.00802661)
(0 0 0.00807738)
(0 0 0.00812661)
(0 0 0.00817427)
(0 0 0.00822031)
(0 0 0.00826471)
(0 0 0.00830742)
(0 0 0.00834841)
(0 0 0.00838764)
(0 0 0.0084251)
(0 0 0.00846073)
(0 0 0.00849452)
(0 0 0.00852644)
(0 0 0.00855645)
(0 0 0.00858453)
(0 0 0.00861065)
(0 0 0.0086348)
(0 0 0.00865695)
(0 0 0.00867708)
(0 0 0.00869517)
(0 0 0.0087112)
(0 0 0.00872517)
(0 0 0.00873705)
(0 0 0.00874683)
(0 0 0.00875451)
(0 0 0.00876007)
(0 0 0.00876352)
(0 0 0.00876484)
(0 0 0.00876404)
(0 0 0.00876111)
(0 0 0.00875606)
(0 0 0.00874889)
(0 0 0.00873961)
(0 0 0.00872822)
(0 0 0.00871473)
(0 0 0.00869916)
(0 0 0.00868151)
(0 0 0.00866181)
(0 0 0.00864006)
(0 0 0.00861629)
(0 0 0.00859052)
(0 0 0.00856277)
(0 0 0.00853306)
(0 0 0.00850141)
(0 0 0.00846785)
(0 0 0.00843242)
(0 0 0.00839513)
(0 0 0.00835602)
(0 0 0.00831511)
(0 0 0.00827245)
(0 0 0.00822806)
(0 0 0.00818197)
(0 0 0.00813423)
(0 0 0.00808486)
(0 0 0.0080339)
(0 0 0.0079814)
(0 0 0.00792738)
(0 0 0.00787188)
(0 0 0.00781494)
(0 0 0.00775661)
(0 0 0.00769691)
(0 0 0.0076359)
(0 0 0.00757359)
(0 0 0.00751005)
(0 0 0.0074453)
(0 0 0.00737938)
(0 0 0.00731233)
(0 0 0.00724419)
(0 0 0.007175)
(0 0 0.0071048)
(0 0 0.00703362)
(0 0 0.0069615)
(0 0 0.00688848)
(0 0 0.00681459)
(0 0 0.00673988)
(0 0 0.00666436)
(0 0 0.00658809)
(0 0 0.00651109)
(0 0 0.0064334)
(0 0 0.00635504)
(0 0 0.00627606)
(0 0 0.00619648)
(0 0 0.00611633)
(0 0 0.00603564)
(0 0 0.00595445)
(0 0 0.00587278)
(0 0 0.00579065)
(0 0 0.0057081)
(0 0 0.00562515)
(0 0 0.00554182)
(0 0 0.00545814)
(0 0 0.00537414)
(0 0 0.00528983)
(0 0 0.00520524)
(0 0 0.00512038)
(0 0 0.00503529)
(0 0 0.00494998)
(0 0 0.00486446)
(0 0 0.00477875)
(0 0 0.00469288)
(0 0 0.00460686)
(0 0 0.0045207)
(0 0 0.00443443)
(0 0 0.00434804)
(0 0 0.00426157)
(0 0 0.00417501)
(0 0 0.00408838)
(0 0 0.0040017)
(0 0 0.00391498)
(0 0 0.00382822)
(0 0 0.00374143)
(0 0 0.00365463)
(0 0 0.00356782)
(0 0 0.00348101)
(0 0 0.00339421)
(0 0 0.00330742)
(0 0 0.00322065)
(0 0 0.0031339)
(0 0 0.00304719)
(0 0 0.00296051)
(0 0 0.00287387)
(0 0 0.00278727)
(0 0 0.00270072)
(0 0 0.00261422)
(0 0 0.00252777)
(0 0 0.00244138)
(0 0 0.00235504)
(0 0 0.00226875)
(0 0 0.00218253)
(0 0 0.00209636)
(0 0 0.00201025)
(0 0 0.0019242)
(0 0 0.0018382)
(0 0 0.00175227)
(0 0 0.00166639)
(0 0 0.00158056)
(0 0 0.00149479)
(0 0 0.00140907)
(0 0 0.0013234)
(0 0 0.00123778)
(0 0 0.0011522)
(0 0 0.00106667)
(0 0 0.00098118)
(0 0 0.000895727)
(0 0 0.00081031)
(0 0 0.000724925)
(0 0 0.00063957)
(0 0 0.00055424)
(0 0 0.000468933)
(0 0 0.000383646)
(0 0 0.000298375)
(0 0 0.000213116)
(0 0 0.000127866)
(0 0 4.26214e-05)
(0 0 5.69538e-05)
(0 0 0.000170864)
(0 0 0.000284783)
(0 0 0.000398715)
(0 0 0.000512667)
(0 0 0.000626643)
(0 0 0.000740649)
(0 0 0.00085469)
(0 0 0.000968772)
(0 0 0.0010829)
(0 0 0.00119708)
(0 0 0.00131131)
(0 0 0.0014256)
(0 0 0.00153996)
(0 0 0.00165439)
(0 0 0.00176889)
(0 0 0.00188347)
(0 0 0.00199813)
(0 0 0.00211288)
(0 0 0.00222771)
(0 0 0.00234264)
(0 0 0.00245766)
(0 0 0.00257278)
(0 0 0.002688)
(0 0 0.00280332)
(0 0 0.00291874)
(0 0 0.00303427)
(0 0 0.00314991)
(0 0 0.00326565)
(0 0 0.00338149)
(0 0 0.00349745)
(0 0 0.00361351)
(0 0 0.00372968)
(0 0 0.00384594)
(0 0 0.00396232)
(0 0 0.00407878)
(0 0 0.00419535)
(0 0 0.00431201)
(0 0 0.00442875)
(0 0 0.00454558)
(0 0 0.00466249)
(0 0 0.00477946)
(0 0 0.00489651)
(0 0 0.00501361)
(0 0 0.00513075)
(0 0 0.00524794)
(0 0 0.00536516)
(0 0 0.00548241)
(0 0 0.00559966)
(0 0 0.0057169)
(0 0 0.00583413)
(0 0 0.00595133)
(0 0 0.00606849)
(0 0 0.00618559)
(0 0 0.00630261)
(0 0 0.00641954)
(0 0 0.00653635)
(0 0 0.00665304)
(0 0 0.00676957)
(0 0 0.00688592)
(0 0 0.00700209)
(0 0 0.00711803)
(0 0 0.00723372)
(0 0 0.00734915)
(0 0 0.00746427)
(0 0 0.00757908)
(0 0 0.00769352)
(0 0 0.00780758)
(0 0 0.00792123)
(0 0 0.00803442)
(0 0 0.00814713)
(0 0 0.00825932)
(0 0 0.00837095)
(0 0 0.00848199)
(0 0 0.0085924)
(0 0 0.00870214)
(0 0 0.00881117)
(0 0 0.00891944)
(0 0 0.00902692)
(0 0 0.00913355)
(0 0 0.0092393)
(0 0 0.00934411)
(0 0 0.00944795)
(0 0 0.00955075)
(0 0 0.00965248)
(0 0 0.00975308)
(0 0 0.00985251)
(0 0 0.0099507)
(0 0 0.0100476)
(0 0 0.0101432)
(0 0 0.0102374)
(0 0 0.0103301)
(0 0 0.0104214)
(0 0 0.0105111)
(0 0 0.0105992)
(0 0 0.0106856)
(0 0 0.0107703)
(0 0 0.0108532)
(0 0 0.0109343)
(0 0 0.0110135)
(0 0 0.0110908)
(0 0 0.0111661)
(0 0 0.0112393)
(0 0 0.0113105)
(0 0 0.0113795)
(0 0 0.0114462)
(0 0 0.0115107)
(0 0 0.0115729)
(0 0 0.0116328)
(0 0 0.0116902)
(0 0 0.0117452)
(0 0 0.0117977)
(0 0 0.0118476)
(0 0 0.011895)
(0 0 0.0119397)
(0 0 0.0119817)
(0 0 0.0120211)
(0 0 0.0120577)
(0 0 0.0120915)
(0 0 0.0121226)
(0 0 0.0121508)
(0 0 0.0121761)
(0 0 0.0121986)
(0 0 0.0122182)
(0 0 0.0122348)
(0 0 0.0122485)
(0 0 0.0122593)
(0 0 0.0122671)
(0 0 0.0122719)
(0 0 0.0122738)
(0 0 0.0122726)
(0 0 0.0122685)
(0 0 0.0122615)
(0 0 0.0122514)
(0 0 0.0122384)
(0 0 0.0122224)
(0 0 0.0122035)
(0 0 0.0121817)
(0 0 0.012157)
(0 0 0.0121294)
(0 0 0.0120989)
(0 0 0.0120656)
(0 0 0.0120295)
(0 0 0.0119906)
(0 0 0.011949)
(0 0 0.0119046)
(0 0 0.0118576)
(0 0 0.011808)
(0 0 0.0117557)
(0 0 0.0117009)
(0 0 0.0116436)
(0 0 0.0115838)
(0 0 0.0115216)
(0 0 0.0114571)
(0 0 0.0113902)
(0 0 0.011321)
(0 0 0.0112496)
(0 0 0.0111761)
(0 0 0.0111004)
(0 0 0.0110226)
(0 0 0.0109429)
(0 0 0.0108612)
(0 0 0.0107775)
(0 0 0.0106921)
(0 0 0.0106048)
(0 0 0.0105158)
(0 0 0.010425)
(0 0 0.0103327)
(0 0 0.0102388)
(0 0 0.0101433)
(0 0 0.0100464)
(0 0 0.00994809)
(0 0 0.00984838)
(0 0 0.00974737)
(0 0 0.00964509)
(0 0 0.00954159)
(0 0 0.00943694)
(0 0 0.00933117)
(0 0 0.00922434)
(0 0 0.0091165)
(0 0 0.00900768)
(0 0 0.00889794)
(0 0 0.00878732)
(0 0 0.00867586)
(0 0 0.00856361)
(0 0 0.00845061)
(0 0 0.0083369)
(0 0 0.00822252)
(0 0 0.00810751)
(0 0 0.0079919)
(0 0 0.00787573)
(0 0 0.00775904)
(0 0 0.00764186)
(0 0 0.00752422)
(0 0 0.00740616)
(0 0 0.0072877)
(0 0 0.00716888)
(0 0 0.00704972)
(0 0 0.00693025)
(0 0 0.0068105)
(0 0 0.00669049)
(0 0 0.00657025)
(0 0 0.0064498)
(0 0 0.00632915)
(0 0 0.00620835)
(0 0 0.00608739)
(0 0 0.0059663)
(0 0 0.00584511)
(0 0 0.00572382)
(0 0 0.00560245)
(0 0 0.00548102)
(0 0 0.00535954)
(0 0 0.00523803)
(0 0 0.0051165)
(0 0 0.00499495)
(0 0 0.00487341)
(0 0 0.00475187)
(0 0 0.00463036)
(0 0 0.00450887)
(0 0 0.00438742)
(0 0 0.00426601)
(0 0 0.00414466)
(0 0 0.00402336)
(0 0 0.00390212)
(0 0 0.00378095)
(0 0 0.00365984)
(0 0 0.00353881)
(0 0 0.00341785)
(0 0 0.00329697)
(0 0 0.00317618)
(0 0 0.00305546)
(0 0 0.00293482)
(0 0 0.00281427)
(0 0 0.0026938)
(0 0 0.0025734)
(0 0 0.00245309)
(0 0 0.00233286)
(0 0 0.00221271)
(0 0 0.00209263)
(0 0 0.00197263)
(0 0 0.00185269)
(0 0 0.00173282)
(0 0 0.00161302)
(0 0 0.00149328)
(0 0 0.0013736)
(0 0 0.00125397)
(0 0 0.00113439)
(0 0 0.00101485)
(0 0 0.000895361)
(0 0 0.000775904)
(0 0 0.00065648)
(0 0 0.000537082)
(0 0 0.000417707)
(0 0 0.00029835)
(0 0 0.000179005)
(0 0 5.96675e-05)
(0 0 7.32215e-05)
(0 0 0.000219668)
(0 0 0.000366125)
(0 0 0.0005126)
(0 0 0.0006591)
(0 0 0.000805632)
(0 0 0.000952202)
(0 0 0.00109882)
(0 0 0.00124549)
(0 0 0.00139221)
(0 0 0.001539)
(0 0 0.00168587)
(0 0 0.00183281)
(0 0 0.00197983)
(0 0 0.00212695)
(0 0 0.00227416)
(0 0 0.00242147)
(0 0 0.00256888)
(0 0 0.00271641)
(0 0 0.00286404)
(0 0 0.0030118)
(0 0 0.00315968)
(0 0 0.00330769)
(0 0 0.00345582)
(0 0 0.00360409)
(0 0 0.00375249)
(0 0 0.00390102)
(0 0 0.00404969)
(0 0 0.0041985)
(0 0 0.00434745)
(0 0 0.00449654)
(0 0 0.00464576)
(0 0 0.00479512)
(0 0 0.00494461)
(0 0 0.00509423)
(0 0 0.00524399)
(0 0 0.00539386)
(0 0 0.00554386)
(0 0 0.00569397)
(0 0 0.00584418)
(0 0 0.0059945)
(0 0 0.00614491)
(0 0 0.00629541)
(0 0 0.00644598)
(0 0 0.00659661)
(0 0 0.0067473)
(0 0 0.00689803)
(0 0 0.00704879)
(0 0 0.00719956)
(0 0 0.00735033)
(0 0 0.00750108)
(0 0 0.00765179)
(0 0 0.00780245)
(0 0 0.00795303)
(0 0 0.00810352)
(0 0 0.00825388)
(0 0 0.00840411)
(0 0 0.00855416)
(0 0 0.00870403)
(0 0 0.00885367)
(0 0 0.00900306)
(0 0 0.00915217)
(0 0 0.00930096)
(0 0 0.00944941)
(0 0 0.00959748)
(0 0 0.00974513)
(0 0 0.00989233)
(0 0 0.010039)
(0 0 0.0101852)
(0 0 0.0103308)
(0 0 0.0104758)
(0 0 0.0106201)
(0 0 0.0107637)
(0 0 0.0109065)
(0 0 0.0110485)
(0 0 0.0111897)
(0 0 0.0113299)
(0 0 0.0114692)
(0 0 0.0116075)
(0 0 0.0117447)
(0 0 0.0118807)
(0 0 0.0120155)
(0 0 0.0121491)
(0 0 0.0122814)
(0 0 0.0124123)
(0 0 0.0125417)
(0 0 0.0126696)
(0 0 0.012796)
(0 0 0.0129206)
(0 0 0.0130436)
(0 0 0.0131648)
(0 0 0.0132841)
(0 0 0.0134016)
(0 0 0.013517)
(0 0 0.0136303)
(0 0 0.0137415)
(0 0 0.0138505)
(0 0 0.0139573)
(0 0 0.0140616)
(0 0 0.0141636)
(0 0 0.014263)
(0 0 0.0143599)
(0 0 0.0144542)
(0 0 0.0145457)
(0 0 0.0146345)
(0 0 0.0147205)
(0 0 0.0148035)
(0 0 0.0148835)
(0 0 0.0149606)
(0 0 0.0150345)
(0 0 0.0151053)
(0 0 0.0151728)
(0 0 0.0152371)
(0 0 0.015298)
(0 0 0.0153556)
(0 0 0.0154097)
(0 0 0.0154604)
(0 0 0.0155075)
(0 0 0.015551)
(0 0 0.015591)
(0 0 0.0156273)
(0 0 0.0156599)
(0 0 0.0156889)
(0 0 0.0157141)
(0 0 0.0157355)
(0 0 0.0157531)
(0 0 0.015767)
(0 0 0.015777)
(0 0 0.0157833)
(0 0 0.0157856)
(0 0 0.0157842)
(0 0 0.0157789)
(0 0 0.0157698)
(0 0 0.0157569)
(0 0 0.0157401)
(0 0 0.0157196)
(0 0 0.0156953)
(0 0 0.0156672)
(0 0 0.0156354)
(0 0 0.0155998)
(0 0 0.0155606)
(0 0 0.0155177)
(0 0 0.0154713)
(0 0 0.0154212)
(0 0 0.0153676)
(0 0 0.0153106)
(0 0 0.01525)
(0 0 0.0151861)
(0 0 0.0151189)
(0 0 0.0150484)
(0 0 0.0149746)
(0 0 0.0148977)
(0 0 0.0148176)
(0 0 0.0147345)
(0 0 0.0146484)
(0 0 0.0145594)
(0 0 0.0144675)
(0 0 0.0143729)
(0 0 0.0142755)
(0 0 0.0141754)
(0 0 0.0140728)
(0 0 0.0139676)
(0 0 0.01386)
(0 0 0.01375)
(0 0 0.0136377)
(0 0 0.0135232)
(0 0 0.0134064)
(0 0 0.0132876)
(0 0 0.0131668)
(0 0 0.013044)
(0 0 0.0129193)
(0 0 0.0127927)
(0 0 0.0126645)
(0 0 0.0125345)
(0 0 0.0124029)
(0 0 0.0122698)
(0 0 0.0121351)
(0 0 0.011999)
(0 0 0.0118616)
(0 0 0.0117229)
(0 0 0.0115829)
(0 0 0.0114417)
(0 0 0.0112994)
(0 0 0.011156)
(0 0 0.0110116)
(0 0 0.0108663)
(0 0 0.01072)
(0 0 0.0105729)
(0 0 0.010425)
(0 0 0.0102763)
(0 0 0.0101268)
(0 0 0.00997675)
(0 0 0.00982603)
(0 0 0.00967473)
(0 0 0.00952288)
(0 0 0.00937053)
(0 0 0.00921771)
(0 0 0.00906445)
(0 0 0.00891081)
(0 0 0.0087568)
(0 0 0.00860246)
(0 0 0.00844783)
(0 0 0.00829292)
(0 0 0.00813777)
(0 0 0.00798241)
(0 0 0.00782687)
(0 0 0.00767115)
(0 0 0.0075153)
(0 0 0.00735933)
(0 0 0.00720326)
(0 0 0.00704711)
(0 0 0.0068909)
(0 0 0.00673465)
(0 0 0.00657837)
(0 0 0.00642208)
(0 0 0.00626579)
(0 0 0.00610952)
(0 0 0.00595327)
(0 0 0.00579706)
(0 0 0.0056409)
(0 0 0.00548479)
(0 0 0.00532875)
(0 0 0.00517279)
(0 0 0.0050169)
(0 0 0.0048611)
(0 0 0.00470539)
(0 0 0.00454977)
(0 0 0.00439425)
(0 0 0.00423883)
(0 0 0.00408352)
(0 0 0.00392831)
(0 0 0.0037732)
(0 0 0.0036182)
(0 0 0.00346331)
(0 0 0.00330853)
(0 0 0.00315384)
(0 0 0.00299926)
(0 0 0.00284478)
(0 0 0.0026904)
(0 0 0.00253611)
(0 0 0.00238192)
(0 0 0.00222781)
(0 0 0.00207378)
(0 0 0.00191983)
(0 0 0.00176596)
(0 0 0.00161216)
(0 0 0.00145842)
(0 0 0.00130474)
(0 0 0.00115112)
(0 0 0.000997537)
(0 0 0.000843999)
(0 0 0.000690496)
(0 0 0.000537023)
(0 0 0.000383571)
(0 0 0.000230136)
(0 0 7.67111e-05)
(0 0 8.94857e-05)
(0 0 0.000268461)
(0 0 0.00044745)
(0 0 0.000626461)
(0 0 0.000805502)
(0 0 0.000984582)
(0 0 0.00116371)
(0 0 0.00134289)
(0 0 0.00152214)
(0 0 0.00170146)
(0 0 0.00188086)
(0 0 0.00206035)
(0 0 0.00223993)
(0 0 0.00241961)
(0 0 0.00259941)
(0 0 0.00277932)
(0 0 0.00295935)
(0 0 0.00313952)
(0 0 0.00331982)
(0 0 0.00350026)
(0 0 0.00368084)
(0 0 0.00386158)
(0 0 0.00404247)
(0 0 0.00422351)
(0 0 0.00440472)
(0 0 0.0045861)
(0 0 0.00476764)
(0 0 0.00494934)
(0 0 0.00513122)
(0 0 0.00531327)
(0 0 0.00549549)
(0 0 0.00567787)
(0 0 0.00586043)
(0 0 0.00604314)
(0 0 0.00622602)
(0 0 0.00640906)
(0 0 0.00659225)
(0 0 0.00677559)
(0 0 0.00695907)
(0 0 0.00714268)
(0 0 0.00732642)
(0 0 0.00751027)
(0 0 0.00769423)
(0 0 0.00787829)
(0 0 0.00806242)
(0 0 0.00824662)
(0 0 0.00843087)
(0 0 0.00861516)
(0 0 0.00879947)
(0 0 0.00898377)
(0 0 0.00916806)
(0 0 0.0093523)
(0 0 0.00953648)
(0 0 0.00972056)
(0 0 0.00990454)
(0 0 0.0100884)
(0 0 0.010272)
(0 0 0.0104555)
(0 0 0.0106387)
(0 0 0.0108217)
(0 0 0.0110043)
(0 0 0.0111866)
(0 0 0.0113685)
(0 0 0.0115501)
(0 0 0.0117311)
(0 0 0.0119116)
(0 0 0.0120916)
(0 0 0.012271)
(0 0 0.0124498)
(0 0 0.0126278)
(0 0 0.0128051)
(0 0 0.0129815)
(0 0 0.0131571)
(0 0 0.0133318)
(0 0 0.0135055)
(0 0 0.0136781)
(0 0 0.0138497)
(0 0 0.01402)
(0 0 0.0141891)
(0 0 0.0143569)
(0 0 0.0145233)
(0 0 0.0146882)
(0 0 0.0148516)
(0 0 0.0150134)
(0 0 0.0151735)
(0 0 0.0153318)
(0 0 0.0154883)
(0 0 0.0156428)
(0 0 0.0157954)
(0 0 0.0159458)
(0 0 0.0160941)
(0 0 0.0162401)
(0 0 0.0163837)
(0 0 0.016525)
(0 0 0.0166636)
(0 0 0.0167997)
(0 0 0.0169331)
(0 0 0.0170637)
(0 0 0.0171914)
(0 0 0.0173161)
(0 0 0.0174378)
(0 0 0.0175564)
(0 0 0.0176717)
(0 0 0.0177838)
(0 0 0.0178924)
(0 0 0.0179976)
(0 0 0.0180992)
(0 0 0.0181972)
(0 0 0.0182914)
(0 0 0.0183819)
(0 0 0.0184685)
(0 0 0.0185512)
(0 0 0.0186299)
(0 0 0.0187045)
(0 0 0.0187749)
(0 0 0.0188412)
(0 0 0.0189032)
(0 0 0.0189608)
(0 0 0.0190142)
(0 0 0.0190631)
(0 0 0.0191075)
(0 0 0.0191475)
(0 0 0.0191829)
(0 0 0.0192137)
(0 0 0.0192399)
(0 0 0.0192616)
(0 0 0.0192785)
(0 0 0.0192908)
(0 0 0.0192984)
(0 0 0.0193014)
(0 0 0.0192996)
(0 0 0.0192931)
(0 0 0.019282)
(0 0 0.0192662)
(0 0 0.0192457)
(0 0 0.0192205)
(0 0 0.0191908)
(0 0 0.0191564)
(0 0 0.0191174)
(0 0 0.0190739)
(0 0 0.0190259)
(0 0 0.0189735)
(0 0 0.0189166)
(0 0 0.0188553)
(0 0 0.0187898)
(0 0 0.0187199)
(0 0 0.0186458)
(0 0 0.0185676)
(0 0 0.0184853)
(0 0 0.018399)
(0 0 0.0183087)
(0 0 0.0182146)
(0 0 0.0181166)
(0 0 0.0180149)
(0 0 0.0179096)
(0 0 0.0178007)
(0 0 0.0176882)
(0 0 0.0175724)
(0 0 0.0174532)
(0 0 0.0173308)
(0 0 0.0172052)
(0 0 0.0170765)
(0 0 0.0169448)
(0 0 0.0168103)
(0 0 0.0166729)
(0 0 0.0165327)
(0 0 0.0163899)
(0 0 0.0162446)
(0 0 0.0160967)
(0 0 0.0159465)
(0 0 0.0157939)
(0 0 0.0156391)
(0 0 0.0154822)
(0 0 0.0153232)
(0 0 0.0151623)
(0 0 0.0149994)
(0 0 0.0148347)
(0 0 0.0146683)
(0 0 0.0145002)
(0 0 0.0143305)
(0 0 0.0141593)
(0 0 0.0139866)
(0 0 0.0138126)
(0 0 0.0136372)
(0 0 0.0134606)
(0 0 0.0132829)
(0 0 0.013104)
(0 0 0.0129241)
(0 0 0.0127432)
(0 0 0.0125613)
(0 0 0.0123786)
(0 0 0.0121951)
(0 0 0.0120108)
(0 0 0.0118258)
(0 0 0.0116401)
(0 0 0.0114538)
(0 0 0.011267)
(0 0 0.0110796)
(0 0 0.0108917)
(0 0 0.0107034)
(0 0 0.0105147)
(0 0 0.0103257)
(0 0 0.0101363)
(0 0 0.00994661)
(0 0 0.00975667)
(0 0 0.00956651)
(0 0 0.00937614)
(0 0 0.00918561)
(0 0 0.00899494)
(0 0 0.00880415)
(0 0 0.00861326)
(0 0 0.0084223)
(0 0 0.0082313)
(0 0 0.00804026)
(0 0 0.00784921)
(0 0 0.00765816)
(0 0 0.00746713)
(0 0 0.00727614)
(0 0 0.0070852)
(0 0 0.00689432)
(0 0 0.0067035)
(0 0 0.00651277)
(0 0 0.00632214)
(0 0 0.00613159)
(0 0 0.00594116)
(0 0 0.00575084)
(0 0 0.00556063)
(0 0 0.00537055)
(0 0 0.00518059)
(0 0 0.00499075)
(0 0 0.00480105)
(0 0 0.00461148)
(0 0 0.00442204)
(0 0 0.00423272)
(0 0 0.00404354)
(0 0 0.00385449)
(0 0 0.00366556)
(0 0 0.00347676)
(0 0 0.00328807)
(0 0 0.00309951)
(0 0 0.00291105)
(0 0 0.00272271)
(0 0 0.00253446)
(0 0 0.00234631)
(0 0 0.00215826)
(0 0 0.00197029)
(0 0 0.0017824)
(0 0 0.00159458)
(0 0 0.00140682)
(0 0 0.00121913)
(0 0 0.00103148)
(0 0 0.000843881)
(0 0 0.000656315)
(0 0 0.000468777)
(0 0 0.000281258)
(0 0 9.37514e-05)
(0 0 0.000105745)
(0 0 0.000317242)
(0 0 0.000528753)
(0 0 0.000740291)
(0 0 0.000951865)
(0 0 0.00116348)
(0 0 0.00137516)
(0 0 0.0015869)
(0 0 0.00179872)
(0 0 0.00201063)
(0 0 0.00222262)
(0 0 0.00243473)
(0 0 0.00264694)
(0 0 0.00285928)
(0 0 0.00307175)
(0 0 0.00328436)
(0 0 0.00349711)
(0 0 0.00371002)
(0 0 0.00392309)
(0 0 0.00413632)
(0 0 0.00434973)
(0 0 0.00456331)
(0 0 0.00477708)
(0 0 0.00499104)
(0 0 0.00520519)
(0 0 0.00541954)
(0 0 0.00563408)
(0 0 0.00584882)
(0 0 0.00606377)
(0 0 0.00627892)
(0 0 0.00649427)
(0 0 0.00670982)
(0 0 0.00692557)
(0 0 0.00714152)
(0 0 0.00735765)
(0 0 0.00757398)
(0 0 0.00779049)
(0 0 0.00800718)
(0 0 0.00822404)
(0 0 0.00844106)
(0 0 0.00865822)
(0 0 0.00887553)
(0 0 0.00909296)
(0 0 0.00931051)
(0 0 0.00952815)
(0 0 0.00974588)
(0 0 0.00996367)
(0 0 0.0101815)
(0 0 0.0103994)
(0 0 0.0106172)
(0 0 0.0108351)
(0 0 0.0110529)
(0 0 0.0112706)
(0 0 0.0114882)
(0 0 0.0117057)
(0 0 0.011923)
(0 0 0.0121401)
(0 0 0.012357)
(0 0 0.0125736)
(0 0 0.0127899)
(0 0 0.0130059)
(0 0 0.0132214)
(0 0 0.0134365)
(0 0 0.0136512)
(0 0 0.0138652)
(0 0 0.0140787)
(0 0 0.0142915)
(0 0 0.0145036)
(0 0 0.014715)
(0 0 0.0149255)
(0 0 0.0151352)
(0 0 0.0153439)
(0 0 0.0155515)
(0 0 0.0157581)
(0 0 0.0159635)
(0 0 0.0161677)
(0 0 0.0163706)
(0 0 0.0165721)
(0 0 0.0167721)
(0 0 0.0169705)
(0 0 0.0171673)
(0 0 0.0173624)
(0 0 0.0175557)
(0 0 0.0177471)
(0 0 0.0179365)
(0 0 0.0181238)
(0 0 0.0183089)
(0 0 0.0184918)
(0 0 0.0186722)
(0 0 0.0188502)
(0 0 0.0190256)
(0 0 0.0191984)
(0 0 0.0193684)
(0 0 0.0195355)
(0 0 0.0196996)
(0 0 0.0198606)
(0 0 0.0200184)
(0 0 0.020173)
(0 0 0.0203241)
(0 0 0.0204717)
(0 0 0.0206158)
(0 0 0.0207561)
(0 0 0.0208926)
(0 0 0.0210252)
(0 0 0.0211538)
(0 0 0.0212783)
(0 0 0.0213985)
(0 0 0.0215145)
(0 0 0.0216261)
(0 0 0.0217332)
(0 0 0.0218357)
(0 0 0.0219336)
(0 0 0.0220267)
(0 0 0.022115)
(0 0 0.0221984)
(0 0 0.0222769)
(0 0 0.0223503)
(0 0 0.0224186)
(0 0 0.0224817)
(0 0 0.0225396)
(0 0 0.0225922)
(0 0 0.0226395)
(0 0 0.0226815)
(0 0 0.022718)
(0 0 0.022749)
(0 0 0.0227746)
(0 0 0.0227947)
(0 0 0.0228093)
(0 0 0.0228183)
(0 0 0.0228218)
(0 0 0.0228197)
(0 0 0.0228121)
(0 0 0.0227989)
(0 0 0.0227801)
(0 0 0.0227559)
(0 0 0.0227261)
(0 0 0.0226909)
(0 0 0.0226502)
(0 0 0.0226041)
(0 0 0.0225526)
(0 0 0.0224958)
(0 0 0.0224336)
(0 0 0.0223663)
(0 0 0.0222938)
(0 0 0.0222161)
(0 0 0.0221335)
(0 0 0.0220458)
(0 0 0.0219532)
(0 0 0.0218558)
(0 0 0.0217536)
(0 0 0.0216468)
(0 0 0.0215353)
(0 0 0.0214194)
(0 0 0.021299)
(0 0 0.0211743)
(0 0 0.0210454)
(0 0 0.0209124)
(0 0 0.0207753)
(0 0 0.0206342)
(0 0 0.0204893)
(0 0 0.0203407)
(0 0 0.0201884)
(0 0 0.0200326)
(0 0 0.0198734)
(0 0 0.0197108)
(0 0 0.0195449)
(0 0 0.019376)
(0 0 0.019204)
(0 0 0.0190291)
(0 0 0.0188513)
(0 0 0.0186708)
(0 0 0.0184877)
(0 0 0.0183021)
(0 0 0.018114)
(0 0 0.0179236)
(0 0 0.0177309)
(0 0 0.0175361)
(0 0 0.0173392)
(0 0 0.0171404)
(0 0 0.0169396)
(0 0 0.0167371)
(0 0 0.0165329)
(0 0 0.0163271)
(0 0 0.0161197)
(0 0 0.0159108)
(0 0 0.0157006)
(0 0 0.015489)
(0 0 0.0152763)
(0 0 0.0150623)
(0 0 0.0148473)
(0 0 0.0146312)
(0 0 0.0144142)
(0 0 0.0141963)
(0 0 0.0139775)
(0 0 0.013758)
(0 0 0.0135377)
(0 0 0.0133168)
(0 0 0.0130952)
(0 0 0.0128731)
(0 0 0.0126505)
(0 0 0.0124274)
(0 0 0.0122038)
(0 0 0.0119799)
(0 0 0.0117557)
(0 0 0.0115312)
(0 0 0.0113063)