/*--------------------------------*- C++ -*----------------------------------*\
| =========                 |                                                 |
| \\      /  F ield         | OpenFOAM: The Open Source CFD Toolbox           |
|  \\    /   O peration     | Version:  v2012                                 |
|   \\  /    A nd           | Website:  www.openfoam.com                      |
|    \\/     M anipulation  |                                                 |
\*---------------------------------------------------------------------------*/
FoamFile
{
    version     2.0;
    format      ascii;
    class       volVectorField;
    location    "18";
    object      U;
}
// * * * * * * * * * * * * * * * * * * * * * * * * * * * * * * * * * * * * * //

dimensions      [0 1 -1 0 0 0 0];


internalField   nonuniform List<vector> 
65536
(
(0.000663883 -0.000663897 0)
(0.00199168 -0.000663932 0)
(0.00331958 -0.000663997 0)
(0.00464764 -0.000664094 0)
(0.00597593 -0.000664222 0)
(0.0073045 -0.000664382 0)
(0.00863343 -0.000664574 0)
(0.00996277 -0.000664796 0)
(0.0112926 -0.000665048 0)
(0.0126229 -0.000665331 0)
(0.0139539 -0.000665642 0)
(0.0152855 -0.000665982 0)
(0.0166178 -0.000666349 0)
(0.0179509 -0.000666742 0)
(0.0192847 -0.000667162 0)
(0.0206195 -0.000667605 0)
(0.0219551 -0.000668073 0)
(0.0232918 -0.000668562 0)
(0.0246294 -0.000669072 0)
(0.025968 -0.000669601 0)
(0.0273078 -0.000670149 0)
(0.0286486 -0.000670713 0)
(0.0299906 -0.000671291 0)
(0.0313338 -0.000671882 0)
(0.0326781 -0.000672484 0)
(0.0340237 -0.000673095 0)
(0.0353705 -0.000673714 0)
(0.0367186 -0.000674336 0)
(0.0380679 -0.000674962 0)
(0.0394184 -0.000675587 0)
(0.0407702 -0.00067621 0)
(0.0421233 -0.000676828 0)
(0.0434775 -0.000677438 0)
(0.044833 -0.000678037 0)
(0.0461897 -0.000678623 0)
(0.0475475 -0.000679192 0)
(0.0489065 -0.000679741 0)
(0.0502665 -0.000680267 0)
(0.0516276 -0.000680766 0)
(0.0529896 -0.000681235 0)
(0.0543526 -0.00068167 0)
(0.0557163 -0.000682067 0)
(0.0570809 -0.000682423 0)
(0.0584461 -0.000682732 0)
(0.0598119 -0.000682991 0)
(0.0611781 -0.000683195 0)
(0.0625447 -0.000683341 0)
(0.0639115 -0.000683422 0)
(0.0652785 -0.000683435 0)
(0.0666454 -0.000683375 0)
(0.068012 -0.000683236 0)
(0.0693784 -0.000683013 0)
(0.0707442 -0.000682701 0)
(0.0721093 -0.000682294 0)
(0.0734735 -0.000681787 0)
(0.0748365 -0.000681175 0)
(0.0761983 -0.000680451 0)
(0.0775585 -0.000679609 0)
(0.0789168 -0.000678643 0)
(0.0802732 -0.000677548 0)
(0.0816272 -0.000676316 0)
(0.0829786 -0.000674942 0)
(0.0843271 -0.000673419 0)
(0.0856724 -0.00067174 0)
(0.0870142 -0.000669899 0)
(0.0883522 -0.000667889 0)
(0.0896859 -0.000665704 0)
(0.0910152 -0.000663337 0)
(0.0923395 -0.00066078 0)
(0.0936585 -0.000658028 0)
(0.0949718 -0.000655073 0)
(0.096279 -0.000651908 0)
(0.0975797 -0.000648527 0)
(0.0988733 -0.000644923 0)
(0.10016 -0.000641089 0)
(0.101438 -0.000637019 0)
(0.102708 -0.000632706 0)
(0.103969 -0.000628144 0)
(0.105221 -0.000623326 0)
(0.106463 -0.000618246 0)
(0.107694 -0.000612898 0)
(0.108914 -0.000607277 0)
(0.110123 -0.000601376 0)
(0.11132 -0.000595191 0)
(0.112504 -0.000588717 0)
(0.113675 -0.000581948 0)
(0.114833 -0.000574879 0)
(0.115975 -0.000567508 0)
(0.117103 -0.000559829 0)
(0.118215 -0.00055184 0)
(0.119311 -0.000543537 0)
(0.120389 -0.000534917 0)
(0.12145 -0.000525978 0)
(0.122494 -0.000516719 0)
(0.123518 -0.000507138 0)
(0.124522 -0.000497233 0)
(0.125507 -0.000487006 0)
(0.126471 -0.000476455 0)
(0.127413 -0.000465582 0)
(0.128333 -0.000454388 0)
(0.129231 -0.000442874 0)
(0.130105 -0.000431044 0)
(0.130955 -0.000418899 0)
(0.131781 -0.000406445 0)
(0.132582 -0.000393685 0)
(0.133356 -0.000380624 0)
(0.134104 -0.000367267 0)
(0.134825 -0.000353621 0)
(0.135519 -0.000339692 0)
(0.136185 -0.000325489 0)
(0.136821 -0.000311018 0)
(0.137429 -0.000296289 0)
(0.138007 -0.000281311 0)
(0.138554 -0.000266093 0)
(0.139071 -0.000250647 0)
(0.139557 -0.000234982 0)
(0.140011 -0.000219112 0)
(0.140434 -0.000203047 0)
(0.140824 -0.0001868 0)
(0.141181 -0.000170384 0)
(0.141505 -0.000153812 0)
(0.141797 -0.000137099 0)
(0.142054 -0.000120258 0)
(0.142278 -0.000103304 0)
(0.142467 -8.62523e-05 0)
(0.142623 -6.91169e-05 0)
(0.142744 -5.19136e-05 0)
(0.14283 -3.46577e-05 0)
(0.142882 -1.73647e-05 0)
(0.1429 -5.03997e-08 0)
(0.142883 1.72696e-05 0)
(0.142831 3.45796e-05 0)
(0.142744 5.1864e-05 0)
(0.142623 6.91071e-05 0)
(0.142468 8.62937e-05 0)
(0.142278 0.000103408 0)
(0.142054 0.000120436 0)
(0.141796 0.000137362 0)
(0.141505 0.000154171 0)
(0.141179 0.00017085 0)
(0.140821 0.000187385 0)
(0.14043 0.000203762 0)
(0.140006 0.000219967 0)
(0.13955 0.00023599 0)
(0.139062 0.000251817 0)
(0.138542 0.000267437 0)
(0.137992 0.000282838 0)
(0.137411 0.000298011 0)
(0.136799 0.000312945 0)
(0.136159 0.000327632 0)
(0.135489 0.000342061 0)
(0.13479 0.000356225 0)
(0.134063 0.000370117 0)
(0.133309 0.000383729 0)
(0.132528 0.000397055 0)
(0.131721 0.000410089 0)
(0.130888 0.000422826 0)
(0.130029 0.000435263 0)
(0.129146 0.000447394 0)
(0.128239 0.000459216 0)
(0.127309 0.000470727 0)
(0.126356 0.000481925 0)
(0.125381 0.000492807 0)
(0.124385 0.000503374 0)
(0.123367 0.000513624 0)
(0.12233 0.000523557 0)
(0.121273 0.000533175 0)
(0.120197 0.000542477 0)
(0.119102 0.000551466 0)
(0.11799 0.000560143 0)
(0.116862 0.00056851 0)
(0.115716 0.000576571 0)
(0.114555 0.000584328 0)
(0.113379 0.000591785 0)
(0.112187 0.000598946 0)
(0.110982 0.000605815 0)
(0.109764 0.000612395 0)
(0.108533 0.000618693 0)
(0.107289 0.000624712 0)
(0.106033 0.000630458 0)
(0.104767 0.000635936 0)
(0.103489 0.000641152 0)
(0.102202 0.000646111 0)
(0.100905 0.00065082 0)
(0.0995984 0.000655284 0)
(0.0982834 0.00065951 0)
(0.0969601 0.000663503 0)
(0.0956291 0.000667271 0)
(0.0942908 0.000670818 0)
(0.0929456 0.000674153 0)
(0.091594 0.000677281 0)
(0.0902363 0.000680208 0)
(0.088873 0.000682942 0)
(0.0875044 0.000685489 0)
(0.0861308 0.000687855 0)
(0.0847528 0.000690047 0)
(0.0833705 0.000692071 0)
(0.0819843 0.000693934 0)
(0.0805946 0.000695641 0)
(0.0792016 0.0006972 0)
(0.0778057 0.000698616 0)
(0.076407 0.000699896 0)
(0.0750059 0.000701046 0)
(0.0736027 0.000702071 0)
(0.0721975 0.000702978 0)
(0.0707907 0.000703773 0)
(0.0693823 0.00070446 0)
(0.0679727 0.000705046 0)
(0.0665621 0.000705536 0)
(0.0651505 0.000705936 0)
(0.0637382 0.000706251 0)
(0.0623254 0.000706485 0)
(0.0609122 0.000706644 0)
(0.0594988 0.000706734 0)
(0.0580852 0.000706757 0)
(0.0566717 0.00070672 0)
(0.0552583 0.000706627 0)
(0.0538451 0.000706482 0)
(0.0524323 0.00070629 0)
(0.0510199 0.000706054 0)
(0.049608 0.000705779 0)
(0.0481968 0.000705468 0)
(0.0467861 0.000705126 0)
(0.0453762 0.000704756 0)
(0.0439671 0.000704361 0)
(0.0425588 0.000703946 0)
(0.0411513 0.000703512 0)
(0.0397447 0.000703064 0)
(0.038339 0.000702605 0)
(0.0369343 0.000702137 0)
(0.0355305 0.000701663 0)
(0.0341276 0.000701185 0)
(0.0327257 0.000700708 0)
(0.0313248 0.000700232 0)
(0.0299248 0.000699761 0)
(0.0285258 0.000699296 0)
(0.0271277 0.000698839 0)
(0.0257304 0.000698393 0)
(0.0243341 0.00069796 0)
(0.0229386 0.000697541 0)
(0.0215439 0.000697139 0)
(0.0201501 0.000696753 0)
(0.018757 0.000696387 0)
(0.0173645 0.000696042 0)
(0.0159728 0.000695718 0)
(0.0145817 0.000695417 0)
(0.0131912 0.00069514 0)
(0.0118012 0.000694888 0)
(0.0104116 0.000694662 0)
(0.00902255 0.000694462 0)
(0.00763383 0.00069429 0)
(0.00624543 0.000694145 0)
(0.00485728 0.000694029 0)
(0.00346934 0.000693942 0)
(0.00208155 0.000693883 0)
(0.000693839 0.000693854 0)
(0.000663854 -0.00199167 0)
(0.00199159 -0.00199177 0)
(0.00331943 -0.00199196 0)
(0.00464743 -0.00199225 0)
(0.00597565 -0.00199264 0)
(0.00730417 -0.00199312 0)
(0.00863303 -0.00199369 0)
(0.00996231 -0.00199436 0)
(0.0112921 -0.00199512 0)
(0.0126224 -0.00199597 0)
(0.0139533 -0.0019969 0)
(0.0152848 -0.00199792 0)
(0.0166171 -0.00199902 0)
(0.0179501 -0.00200021 0)
(0.0192839 -0.00200146 0)
(0.0206186 -0.0020028 0)
(0.0219542 -0.0020042 0)
(0.0232908 -0.00200567 0)
(0.0246284 -0.0020072 0)
(0.025967 -0.00200879 0)
(0.0273067 -0.00201043 0)
(0.0286475 -0.00201213 0)
(0.0299895 -0.00201386 0)
(0.0313326 -0.00201564 0)
(0.032677 -0.00201745 0)
(0.0340225 -0.00201928 0)
(0.0353693 -0.00202114 0)
(0.0367174 -0.00202301 0)
(0.0380667 -0.00202489 0)
(0.0394172 -0.00202677 0)
(0.040769 -0.00202864 0)
(0.0421221 -0.0020305 0)
(0.0434764 -0.00203233 0)
(0.0448319 -0.00203413 0)
(0.0461886 -0.00203589 0)
(0.0475465 -0.0020376 0)
(0.0489055 -0.00203925 0)
(0.0502656 -0.00204083 0)
(0.0516267 -0.00204233 0)
(0.0529888 -0.00204374 0)
(0.0543518 -0.00204505 0)
(0.0557157 -0.00204625 0)
(0.0570803 -0.00204732 0)
(0.0584456 -0.00204825 0)
(0.0598115 -0.00204903 0)
(0.0611778 -0.00204965 0)
(0.0625446 -0.00205009 0)
(0.0639115 -0.00205034 0)
(0.0652786 -0.00205038 0)
(0.0666456 -0.00205021 0)
(0.0680125 -0.00204979 0)
(0.069379 -0.00204913 0)
(0.070745 -0.0020482 0)
(0.0721103 -0.00204699 0)
(0.0734747 -0.00204547 0)
(0.074838 -0.00204364 0)
(0.0761999 -0.00204147 0)
(0.0775604 -0.00203895 0)
(0.078919 -0.00203606 0)
(0.0802756 -0.00203278 0)
(0.0816299 -0.00202909 0)
(0.0829816 -0.00202498 0)
(0.0843304 -0.00202041 0)
(0.085676 -0.00201538 0)
(0.0870182 -0.00200987 0)
(0.0883565 -0.00200385 0)
(0.0896906 -0.0019973 0)
(0.0910202 -0.0019902 0)
(0.0923449 -0.00198254 0)
(0.0936643 -0.00197429 0)
(0.094978 -0.00196543 0)
(0.0962856 -0.00195594 0)
(0.0975867 -0.00194581 0)
(0.0988809 -0.001935 0)
(0.100168 -0.0019235 0)
(0.101446 -0.0019113 0)
(0.102717 -0.00189837 0)
(0.103978 -0.00188469 0)
(0.105231 -0.00187024 0)
(0.106473 -0.001855 0)
(0.107705 -0.00183897 0)
(0.108926 -0.00182211 0)
(0.110136 -0.00180441 0)
(0.111333 -0.00178586 0)
(0.112518 -0.00176644 0)
(0.113689 -0.00174614 0)
(0.114847 -0.00172494 0)
(0.11599 -0.00170283 0)
(0.117119 -0.0016798 0)
(0.118231 -0.00165583 0)
(0.119328 -0.00163092 0)
(0.120407 -0.00160507 0)
(0.121469 -0.00157825 0)
(0.122512 -0.00155048 0)
(0.123537 -0.00152173 0)
(0.124543 -0.00149202 0)
(0.125528 -0.00146134 0)
(0.126492 -0.00142969 0)
(0.127435 -0.00139706 0)
(0.128356 -0.00136348 0)
(0.129254 -0.00132894 0)
(0.130129 -0.00129344 0)
(0.13098 -0.00125701 0)
(0.131806 -0.00121964 0)
(0.132607 -0.00118135 0)
(0.133383 -0.00114216 0)
(0.134131 -0.00110209 0)
(0.134853 -0.00106114 0)
(0.135547 -0.00101935 0)
(0.136213 -0.000976729 0)
(0.136851 -0.000933309 0)
(0.137459 -0.000889112 0)
(0.138037 -0.000844168 0)
(0.138585 -0.000798505 0)
(0.139102 -0.000752154 0)
(0.139589 -0.00070515 0)
(0.140043 -0.000657525 0)
(0.140466 -0.000609317 0)
(0.140857 -0.000560563 0)
(0.141214 -0.000511302 0)
(0.141539 -0.000461574 0)
(0.14183 -0.00041142 0)
(0.142088 -0.000360883 0)
(0.142312 -0.000310007 0)
(0.142502 -0.000258836 0)
(0.142657 -0.000207414 0)
(0.142778 -0.000155789 0)
(0.142865 -0.000104005 0)
(0.142917 -5.21109e-05 0)
(0.142935 -1.52242e-07 0)
(0.142917 5.18235e-05 0)
(0.142865 0.000103769 0)
(0.142779 0.000155638 0)
(0.142658 0.000207383 0)
(0.142502 0.000258958 0)
(0.142312 0.000310316 0)
(0.142088 0.000361414 0)
(0.14183 0.000412206 0)
(0.141538 0.000462649 0)
(0.141213 0.000512699 0)
(0.140854 0.000562317 0)
(0.140462 0.00061146 0)
(0.140038 0.00066009 0)
(0.139582 0.00070817 0)
(0.139093 0.000755662 0)
(0.138573 0.000802533 0)
(0.138022 0.000848748 0)
(0.137441 0.000894277 0)
(0.136829 0.000939089 0)
(0.136188 0.000983156 0)
(0.135517 0.00102645 0)
(0.134818 0.00106895 0)
(0.134091 0.00111063 0)
(0.133336 0.00115148 0)
(0.132555 0.00119146 0)
(0.131747 0.00123057 0)
(0.130913 0.00126878 0)
(0.130054 0.0013061 0)
(0.12917 0.00134249 0)
(0.128263 0.00137796 0)
(0.127332 0.0014125 0)
(0.126378 0.00144609 0)
(0.125402 0.00147874 0)
(0.124405 0.00151044 0)
(0.123387 0.00154119 0)
(0.122349 0.00157099 0)
(0.121292 0.00159984 0)
(0.120215 0.00162775 0)
(0.11912 0.00165471 0)
(0.118008 0.00168074 0)
(0.116878 0.00170584 0)
(0.115732 0.00173002 0)
(0.11457 0.00175329 0)
(0.113393 0.00177566 0)
(0.112201 0.00179713 0)
(0.110996 0.00181773 0)
(0.109777 0.00183747 0)
(0.108545 0.00185636 0)
(0.107301 0.00187441 0)
(0.106045 0.00189164 0)
(0.104777 0.00190807 0)
(0.1035 0.00192371 0)
(0.102212 0.00193859 0)
(0.100914 0.00195271 0)
(0.099607 0.00196609 0)
(0.0982915 0.00197876 0)
(0.0969678 0.00199074 0)
(0.0956364 0.00200203 0)
(0.0942977 0.00201267 0)
(0.0929521 0.00202267 0)
(0.0916 0.00203204 0)
(0.0902419 0.00204082 0)
(0.0888782 0.00204902 0)
(0.0875092 0.00205665 0)
(0.0861353 0.00206374 0)
(0.0847569 0.00207031 0)
(0.0833743 0.00207637 0)
(0.0819878 0.00208196 0)
(0.0805978 0.00208707 0)
(0.0792045 0.00209174 0)
(0.0778083 0.00209599 0)
(0.0764094 0.00209982 0)
(0.0750081 0.00210326 0)
(0.0736046 0.00210633 0)
(0.0721992 0.00210905 0)
(0.0707921 0.00211142 0)
(0.0693836 0.00211348 0)
(0.0679738 0.00211523 0)
(0.0665629 0.0021167 0)
(0.0651512 0.00211789 0)
(0.0637387 0.00211883 0)
(0.0623258 0.00211953 0)
(0.0609124 0.00212 0)
(0.0594988 0.00212026 0)
(0.0580852 0.00212033 0)
(0.0566715 0.00212022 0)
(0.055258 0.00211993 0)
(0.0538447 0.00211949 0)
(0.0524318 0.00211891 0)
(0.0510194 0.0021182 0)
(0.0496074 0.00211737 0)
(0.0481961 0.00211644 0)
(0.0467854 0.0021154 0)
(0.0453754 0.00211429 0)
(0.0439662 0.0021131 0)
(0.0425579 0.00211185 0)
(0.0411504 0.00211055 0)
(0.0397438 0.0021092 0)
(0.0383381 0.00210782 0)
(0.0369333 0.00210641 0)
(0.0355295 0.00210499 0)
(0.0341266 0.00210355 0)
(0.0327248 0.00210212 0)
(0.0313238 0.00210069 0)
(0.0299239 0.00209927 0)
(0.0285248 0.00209788 0)
(0.0271267 0.0020965 0)
(0.0257295 0.00209517 0)
(0.0243332 0.00209386 0)
(0.0229378 0.00209261 0)
(0.0215431 0.0020914 0)
(0.0201493 0.00209024 0)
(0.0187562 0.00208914 0)
(0.0173639 0.0020881 0)
(0.0159722 0.00208713 0)
(0.0145811 0.00208622 0)
(0.0131906 0.00208539 0)
(0.0118007 0.00208463 0)
(0.0104112 0.00208396 0)
(0.00902217 0.00208336 0)
(0.00763351 0.00208284 0)
(0.00624516 0.0020824 0)
(0.00485708 0.00208206 0)
(0.00346919 0.00208179 0)
(0.00208146 0.00208162 0)
(0.00069381 0.00208153 0)
(0.000663788 -0.00331934 0)
(0.0019914 -0.00331951 0)
(0.0033191 -0.00331983 0)
(0.00464697 -0.00332032 0)
(0.00597507 -0.00332096 0)
(0.00730345 -0.00332176 0)
(0.0086322 -0.00332272 0)
(0.00996135 -0.00332384 0)
(0.011291 -0.0033251 0)
(0.0126212 -0.00332652 0)
(0.0139519 -0.00332808 0)
(0.0152834 -0.00332978 0)
(0.0166155 -0.00333162 0)
(0.0179484 -0.00333359 0)
(0.0192822 -0.00333569 0)
(0.0206168 -0.00333792 0)
(0.0219523 -0.00334026 0)
(0.0232888 -0.00334271 0)
(0.0246263 -0.00334527 0)
(0.0259648 -0.00334793 0)
(0.0273044 -0.00335067 0)
(0.0286452 -0.0033535 0)
(0.0299871 -0.0033564 0)
(0.0313302 -0.00335936 0)
(0.0326745 -0.00336238 0)
(0.03402 -0.00336545 0)
(0.0353668 -0.00336855 0)
(0.0367148 -0.00337168 0)
(0.0380641 -0.00337482 0)
(0.0394147 -0.00337795 0)
(0.0407665 -0.00338108 0)
(0.0421196 -0.00338419 0)
(0.0434739 -0.00338725 0)
(0.0448295 -0.00339026 0)
(0.0461863 -0.00339321 0)
(0.0475442 -0.00339607 0)
(0.0489033 -0.00339883 0)
(0.0502635 -0.00340148 0)
(0.0516247 -0.00340399 0)
(0.0529869 -0.00340635 0)
(0.0543501 -0.00340855 0)
(0.0557141 -0.00341055 0)
(0.0570789 -0.00341235 0)
(0.0584444 -0.00341392 0)
(0.0598105 -0.00341523 0)
(0.0611771 -0.00341628 0)
(0.062544 -0.00341703 0)
(0.0639113 -0.00341746 0)
(0.0652786 -0.00341755 0)
(0.066646 -0.00341727 0)
(0.0680132 -0.0034166 0)
(0.06938 -0.00341551 0)
(0.0707464 -0.00341398 0)
(0.072112 -0.00341198 0)
(0.0734768 -0.00340947 0)
(0.0748406 -0.00340644 0)
(0.076203 -0.00340285 0)
(0.0775639 -0.00339867 0)
(0.078923 -0.00339387 0)
(0.0802802 -0.00338842 0)
(0.081635 -0.0033823 0)
(0.0829873 -0.00337546 0)
(0.0843367 -0.00336787 0)
(0.085683 -0.00335951 0)
(0.0870258 -0.00335034 0)
(0.0883648 -0.00334033 0)
(0.0896996 -0.00332944 0)
(0.09103 -0.00331763 0)
(0.0923554 -0.00330488 0)
(0.0936756 -0.00329116 0)
(0.0949902 -0.00327641 0)
(0.0962987 -0.00326062 0)
(0.0976006 -0.00324375 0)
(0.0988957 -0.00322577 0)
(0.100183 -0.00320663 0)
(0.101463 -0.00318631 0)
(0.102735 -0.00316478 0)
(0.103997 -0.003142 0)
(0.10525 -0.00311794 0)
(0.106494 -0.00309257 0)
(0.107727 -0.00306586 0)
(0.108949 -0.00303778 0)
(0.11016 -0.0030083 0)
(0.111358 -0.0029774 0)
(0.112544 -0.00294505 0)
(0.113717 -0.00291123 0)
(0.114876 -0.00287591 0)
(0.11602 -0.00283907 0)
(0.11715 -0.0028007 0)
(0.118264 -0.00276077 0)
(0.119361 -0.00271926 0)
(0.120442 -0.00267618 0)
(0.121505 -0.00263149 0)
(0.12255 -0.0025852 0)
(0.123576 -0.0025373 0)
(0.124583 -0.00248778 0)
(0.125569 -0.00243664 0)
(0.126535 -0.00238388 0)
(0.127479 -0.00232951 0)
(0.128402 -0.00227353 0)
(0.129301 -0.00221595 0)
(0.130177 -0.00215678 0)
(0.131029 -0.00209604 0)
(0.131857 -0.00203375 0)
(0.132659 -0.00196992 0)
(0.133435 -0.00190459 0)
(0.134185 -0.00183777 0)
(0.134908 -0.00176951 0)
(0.135604 -0.00169983 0)
(0.136271 -0.00162877 0)
(0.136909 -0.00155638 0)
(0.137518 -0.00148268 0)
(0.138097 -0.00140774 0)
(0.138646 -0.0013316 0)
(0.139165 -0.00125432 0)
(0.139652 -0.00117594 0)
(0.140107 -0.00109652 0)
(0.140531 -0.00101613 0)
(0.140922 -0.000934835 0)
(0.14128 -0.000852688 0)
(0.141605 -0.000769761 0)
(0.141897 -0.000686125 0)
(0.142155 -0.000601848 0)
(0.14238 -0.000517005 0)
(0.14257 -0.000431669 0)
(0.142726 -0.000345916 0)
(0.142847 -0.000259822 0)
(0.142934 -0.000173465 0)
(0.142986 -8.69219e-05 0)
(0.143004 -2.71763e-07 0)
(0.142987 8.64068e-05 0)
(0.142935 0.000173035 0)
(0.142848 0.000259535 0)
(0.142727 0.000345828 0)
(0.142571 0.000431837 0)
(0.142381 0.000517485 0)
(0.142156 0.000602697 0)
(0.141898 0.000687399 0)
(0.141605 0.000771518 0)
(0.141279 0.000854982 0)
(0.14092 0.000937722 0)
(0.140528 0.00101967 0)
(0.140103 0.00110076 0)
(0.139645 0.00118094 0)
(0.139156 0.00126013 0)
(0.138635 0.00133828 0)
(0.138083 0.00141534 0)
(0.137501 0.00149126 0)
(0.136888 0.00156598 0)
(0.136246 0.00163945 0)
(0.135574 0.00171164 0)
(0.134874 0.0017825 0)
(0.134146 0.00185199 0)
(0.13339 0.00192008 0)
(0.132607 0.00198674 0)
(0.131798 0.00205194 0)
(0.130963 0.00211565 0)
(0.130103 0.00217785 0)
(0.129218 0.00223852 0)
(0.128309 0.00229764 0)
(0.127377 0.00235521 0)
(0.126422 0.00241121 0)
(0.125445 0.00246562 0)
(0.124447 0.00251846 0)
(0.123428 0.00256971 0)
(0.122388 0.00261937 0)
(0.121329 0.00266745 0)
(0.120252 0.00271396 0)
(0.119155 0.00275889 0)
(0.118042 0.00280227 0)
(0.116911 0.00284409 0)
(0.115764 0.00288438 0)
(0.114601 0.00292315 0)
(0.113422 0.00296041 0)
(0.11223 0.0029962 0)
(0.111023 0.00303052 0)
(0.109803 0.0030634 0)
(0.108569 0.00309486 0)
(0.107324 0.00312493 0)
(0.106067 0.00315363 0)
(0.104799 0.003181 0)
(0.10352 0.00320705 0)
(0.102231 0.00323181 0)
(0.100932 0.00325533 0)
(0.0996244 0.00327762 0)
(0.098308 0.00329871 0)
(0.0969834 0.00331865 0)
(0.095651 0.00333745 0)
(0.0943114 0.00335516 0)
(0.092965 0.0033718 0)
(0.0916121 0.00338741 0)
(0.0902532 0.00340201 0)
(0.0888888 0.00341565 0)
(0.087519 0.00342835 0)
(0.0861445 0.00344015 0)
(0.0847654 0.00345107 0)
(0.0833821 0.00346116 0)
(0.081995 0.00347044 0)
(0.0806043 0.00347895 0)
(0.0792105 0.00348671 0)
(0.0778137 0.00349376 0)
(0.0764142 0.00350013 0)
(0.0750124 0.00350585 0)
(0.0736084 0.00351095 0)
(0.0722026 0.00351545 0)
(0.0707951 0.0035194 0)
(0.0693861 0.00352281 0)
(0.0679759 0.00352571 0)
(0.0665647 0.00352813 0)
(0.0651526 0.0035301 0)
(0.0637398 0.00353165 0)
(0.0623265 0.0035328 0)
(0.0609129 0.00353357 0)
(0.0594991 0.00353399 0)
(0.0580851 0.00353409 0)
(0.0566712 0.00353388 0)
(0.0552575 0.00353339 0)
(0.0538441 0.00353265 0)
(0.052431 0.00353166 0)
(0.0510183 0.00353046 0)
(0.0496062 0.00352907 0)
(0.0481948 0.0035275 0)
(0.046784 0.00352577 0)
(0.0453739 0.0035239 0)
(0.0439646 0.00352191 0)
(0.0425562 0.00351981 0)
(0.0411486 0.00351763 0)
(0.039742 0.00351537 0)
(0.0383362 0.00351306 0)
(0.0369314 0.00351071 0)
(0.0355276 0.00350832 0)
(0.0341247 0.00350593 0)
(0.0327229 0.00350352 0)
(0.0313219 0.00350113 0)
(0.029922 0.00349877 0)
(0.028523 0.00349643 0)
(0.0271249 0.00349414 0)
(0.0257278 0.0034919 0)
(0.0243315 0.00348972 0)
(0.0229361 0.00348762 0)
(0.0215416 0.0034856 0)
(0.0201478 0.00348367 0)
(0.0187548 0.00348183 0)
(0.0173625 0.00348009 0)
(0.0159709 0.00347847 0)
(0.01458 0.00347696 0)
(0.0131896 0.00347557 0)
(0.0117997 0.0034743 0)
(0.0104104 0.00347317 0)
(0.00902143 0.00347217 0)
(0.00763287 0.0034713 0)
(0.00624464 0.00347058 0)
(0.00485667 0.00346999 0)
(0.0034689 0.00346956 0)
(0.00208128 0.00346927 0)
(0.000693751 0.00346912 0)
(0.000663689 -0.00464685 0)
(0.0019911 -0.00464708 0)
(0.00331861 -0.00464754 0)
(0.00464629 -0.00464822 0)
(0.00597419 -0.00464912 0)
(0.00730239 -0.00465025 0)
(0.00863094 -0.00465159 0)
(0.00995991 -0.00465316 0)
(0.0112894 -0.00465493 0)
(0.0126194 -0.00465692 0)
(0.01395 -0.00465911 0)
(0.0152812 -0.0046615 0)
(0.0166132 -0.00466408 0)
(0.017946 -0.00466685 0)
(0.0192795 -0.0046698 0)
(0.020614 -0.00467292 0)
(0.0219494 -0.00467621 0)
(0.0232857 -0.00467965 0)
(0.0246231 -0.00468324 0)
(0.0259615 -0.00468697 0)
(0.0273011 -0.00469082 0)
(0.0286417 -0.00469479 0)
(0.0299835 -0.00469887 0)
(0.0313266 -0.00470303 0)
(0.0326708 -0.00470727 0)
(0.0340163 -0.00471158 0)
(0.035363 -0.00471594 0)
(0.036711 -0.00472033 0)
(0.0380603 -0.00472474 0)
(0.0394109 -0.00472915 0)
(0.0407627 -0.00473355 0)
(0.0421158 -0.00473791 0)
(0.0434702 -0.00474222 0)
(0.0448258 -0.00474646 0)
(0.0461827 -0.0047506 0)
(0.0475408 -0.00475463 0)
(0.0489 -0.00475852 0)
(0.0502603 -0.00476225 0)
(0.0516217 -0.0047658 0)
(0.0529841 -0.00476913 0)
(0.0543475 -0.00477223 0)
(0.0557117 -0.00477506 0)
(0.0570768 -0.00477761 0)
(0.0584426 -0.00477983 0)
(0.059809 -0.00478171 0)
(0.0611759 -0.0047832 0)
(0.0625432 -0.00478428 0)
(0.0639109 -0.00478492 0)
(0.0652787 -0.00478508 0)
(0.0666464 -0.00478473 0)
(0.0680141 -0.00478383 0)
(0.0693815 -0.00478234 0)
(0.0707484 -0.00478023 0)
(0.0721146 -0.00477747 0)
(0.0734801 -0.004774 0)
(0.0748444 -0.00476979 0)
(0.0762076 -0.00476481 0)
(0.0775692 -0.004759 0)
(0.0789291 -0.00475233 0)
(0.080287 -0.00474474 0)
(0.0816427 -0.00473621 0)
(0.0829958 -0.00472668 0)
(0.0843462 -0.00471611 0)
(0.0856934 -0.00470445 0)
(0.0870372 -0.00469166 0)
(0.0883772 -0.00467769 0)
(0.0897131 -0.00466249 0)
(0.0910446 -0.00464601 0)
(0.0923712 -0.00462821 0)
(0.0936926 -0.00460904 0)
(0.0950084 -0.00458845 0)
(0.0963181 -0.00456639 0)
(0.0976214 -0.00454282 0)
(0.0989178 -0.00451768 0)
(0.100207 -0.00449094 0)
(0.101488 -0.00446254 0)
(0.102761 -0.00443244 0)
(0.104025 -0.00440059 0)
(0.10528 -0.00436695 0)
(0.106525 -0.00433147 0)
(0.10776 -0.00429412 0)
(0.108983 -0.00425485 0)
(0.110196 -0.00421362 0)
(0.111396 -0.0041704 0)
(0.112584 -0.00412514 0)
(0.113758 -0.00407782 0)
(0.114919 -0.0040284 0)
(0.116065 -0.00397685 0)
(0.117197 -0.00392315 0)
(0.118313 -0.00386727 0)
(0.119412 -0.00380919 0)
(0.120495 -0.00374888 0)
(0.12156 -0.00368634 0)
(0.122607 -0.00362154 0)
(0.123635 -0.00355448 0)
(0.124643 -0.00348516 0)
(0.125632 -0.00341356 0)
(0.126599 -0.0033397 0)
(0.127546 -0.00326357 0)
(0.12847 -0.00318518 0)
(0.129371 -0.00310455 0)
(0.130249 -0.0030217 0)
(0.131103 -0.00293664 0)
(0.131932 -0.00284939 0)
(0.132737 -0.00276 0)
(0.133515 -0.0026685 0)
(0.134266 -0.00257491 0)
(0.134991 -0.0024793 0)
(0.135688 -0.00238169 0)
(0.136357 -0.00228215 0)
(0.136997 -0.00218074 0)
(0.137607 -0.00207751 0)
(0.138188 -0.00197252 0)
(0.138738 -0.00186585 0)
(0.139258 -0.00175757 0)
(0.139747 -0.00164776 0)
(0.140203 -0.0015365 0)
(0.140628 -0.00142387 0)
(0.14102 -0.00130995 0)
(0.141379 -0.00119485 0)
(0.141705 -0.00107866 0)
(0.141998 -0.00096147 0)
(0.142257 -0.000843382 0)
(0.142482 -0.000724498 0)
(0.142673 -0.000604922 0)
(0.142829 -0.000484761 0)
(0.142951 -0.000364121 0)
(0.143038 -0.000243111 0)
(0.14309 -0.000121841 0)
(0.143108 -4.21224e-07 0)
(0.143091 0.000121039 0)
(0.143039 0.000242428 0)
(0.142952 0.000363637 0)
(0.14283 0.000484556 0)
(0.142674 0.000605075 0)
(0.142483 0.000725089 0)
(0.142258 0.00084449 0)
(0.141999 0.000963174 0)
(0.141706 0.00108104 0)
(0.141379 0.00119799 0)
(0.141019 0.00131392 0)
(0.140625 0.00142874 0)
(0.140199 0.00154235 0)
(0.139741 0.00165468 0)
(0.139251 0.00176563 0)
(0.138728 0.00187513 0)
(0.138175 0.00198309 0)
(0.137591 0.00208943 0)
(0.136977 0.00219411 0)
(0.136333 0.00229703 0)
(0.13566 0.00239815 0)
(0.134958 0.00249741 0)
(0.134229 0.00259475 0)
(0.133471 0.00269012 0)
(0.132686 0.00278348 0)
(0.131875 0.00287479 0)
(0.131039 0.00296402 0)
(0.130177 0.00305113 0)
(0.12929 0.00313609 0)
(0.128379 0.00321888 0)
(0.127445 0.00329949 0)
(0.126489 0.0033779 0)
(0.12551 0.00345409 0)
(0.124509 0.00352806 0)
(0.123488 0.00359981 0)
(0.122447 0.00366934 0)
(0.121386 0.00373664 0)
(0.120306 0.00380174 0)
(0.119208 0.00386463 0)
(0.118093 0.00392534 0)
(0.11696 0.00398387 0)
(0.115811 0.00404026 0)
(0.114646 0.00409451 0)
(0.113466 0.00414666 0)
(0.112272 0.00419672 0)
(0.111063 0.00424474 0)
(0.109841 0.00429074 0)
(0.108606 0.00433475 0)
(0.107359 0.00437681 0)
(0.106101 0.00441696 0)
(0.104831 0.00445523 0)
(0.10355 0.00449166 0)
(0.10226 0.00452629 0)
(0.10096 0.00455917 0)
(0.0996505 0.00459033 0)
(0.0983326 0.00461983 0)
(0.0970066 0.00464769 0)
(0.0956729 0.00467397 0)
(0.094332 0.00469872 0)
(0.0929843 0.00472197 0)
(0.0916302 0.00474377 0)
(0.0902702 0.00476417 0)
(0.0889046 0.00478322 0)
(0.0875337 0.00480096 0)
(0.0861581 0.00481743 0)
(0.084778 0.00483268 0)
(0.0833937 0.00484676 0)
(0.0820056 0.00485971 0)
(0.0806141 0.00487157 0)
(0.0792194 0.0048824 0)
(0.0778217 0.00489222 0)
(0.0764215 0.0049011 0)
(0.0750189 0.00490906 0)
(0.0736142 0.00491616 0)
(0.0722077 0.00492242 0)
(0.0707995 0.0049279 0)
(0.0693899 0.00493264 0)
(0.0679791 0.00493666 0)
(0.0665673 0.00494002 0)
(0.0651547 0.00494274 0)
(0.0637414 0.00494487 0)
(0.0623277 0.00494644 0)
(0.0609136 0.00494749 0)
(0.0594994 0.00494805 0)
(0.0580851 0.00494815 0)
(0.0566708 0.00494783 0)
(0.0552568 0.00494711 0)
(0.053843 0.00494604 0)
(0.0524297 0.00494463 0)
(0.0510168 0.00494292 0)
(0.0496045 0.00494094 0)
(0.0481928 0.00493872 0)
(0.0467818 0.00493627 0)
(0.0453716 0.00493363 0)
(0.0439622 0.00493082 0)
(0.0425536 0.00492786 0)
(0.041146 0.00492478 0)
(0.0397392 0.00492161 0)
(0.0383334 0.00491835 0)
(0.0369286 0.00491503 0)
(0.0355247 0.00491167 0)
(0.0341219 0.0049083 0)
(0.03272 0.00490492 0)
(0.0313191 0.00490156 0)
(0.0299192 0.00489823 0)
(0.0285202 0.00489494 0)
(0.0271222 0.00489172 0)
(0.0257251 0.00488857 0)
(0.024329 0.00488551 0)
(0.0229337 0.00488256 0)
(0.0215392 0.00487972 0)
(0.0201455 0.004877 0)
(0.0187527 0.00487442 0)
(0.0173605 0.00487198 0)
(0.015969 0.0048697 0)
(0.0145782 0.00486757 0)
(0.013188 0.00486562 0)
(0.0117983 0.00486384 0)
(0.0104091 0.00486225 0)
(0.00902031 0.00486084 0)
(0.00763192 0.00485963 0)
(0.00624385 0.00485861 0)
(0.00485605 0.00485779 0)
(0.00346846 0.00485718 0)
(0.00208102 0.00485677 0)
(0.000693663 0.00485657 0)
(0.000663558 -0.00597413 0)
(0.00199071 -0.00597443 0)
(0.00331796 -0.00597502 0)
(0.00464537 -0.00597589 0)
(0.00597302 -0.00597706 0)
(0.00730096 -0.00597851 0)
(0.00862926 -0.00598025 0)
(0.00995798 -0.00598226 0)
(0.0112872 -0.00598455 0)
(0.012617 -0.00598711 0)
(0.0139473 -0.00598994 0)
(0.0152784 -0.00599302 0)
(0.0166101 -0.00599635 0)
(0.0179427 -0.00599992 0)
(0.019276 -0.00600373 0)
(0.0206103 -0.00600776 0)
(0.0219455 -0.006012 0)
(0.0232817 -0.00601644 0)
(0.0246189 -0.00602107 0)
(0.0259572 -0.00602588 0)
(0.0272965 -0.00603086 0)
(0.0286371 -0.00603598 0)
(0.0299788 -0.00604124 0)
(0.0313217 -0.00604662 0)
(0.0326659 -0.0060521 0)
(0.0340113 -0.00605766 0)
(0.035358 -0.00606329 0)
(0.0367059 -0.00606896 0)
(0.0380552 -0.00607466 0)
(0.0394058 -0.00608036 0)
(0.0407576 -0.00608605 0)
(0.0421108 -0.00609169 0)
(0.0434653 -0.00609727 0)
(0.044821 -0.00610275 0)
(0.046178 -0.00610811 0)
(0.0475361 -0.00611333 0)
(0.0488955 -0.00611837 0)
(0.0502561 -0.00612321 0)
(0.0516177 -0.00612781 0)
(0.0529804 -0.00613214 0)
(0.054344 -0.00613617 0)
(0.0557086 -0.00613987 0)
(0.057074 -0.00614319 0)
(0.0584401 -0.0061461 0)
(0.059807 -0.00614856 0)
(0.0611743 -0.00615054 0)
(0.0625422 -0.00615198 0)
(0.0639103 -0.00615286 0)
(0.0652786 -0.00615313 0)
(0.0666471 -0.00615273 0)
(0.0680154 -0.00615164 0)
(0.0693834 -0.00614979 0)
(0.0707511 -0.00614715 0)
(0.0721181 -0.00614366 0)
(0.0734843 -0.00613927 0)
(0.0748496 -0.00613393 0)
(0.0762136 -0.00612759 0)
(0.0775762 -0.00612019 0)
(0.0789371 -0.00611169 0)
(0.0802961 -0.00610202 0)
(0.0816529 -0.00609112 0)
(0.0830072 -0.00607895 0)
(0.0843587 -0.00606544 0)
(0.0857072 -0.00605053 0)
(0.0870523 -0.00603416 0)
(0.0883937 -0.00601627 0)
(0.0897311 -0.00599681 0)
(0.091064 -0.00597571 0)
(0.0923922 -0.0059529 0)
(0.0937152 -0.00592834 0)
(0.0950326 -0.00590194 0)
(0.0963441 -0.00587367 0)
(0.0976491 -0.00584344 0)
(0.0989473 -0.00581121 0)
(0.100238 -0.0057769 0)
(0.101521 -0.00574046 0)
(0.102796 -0.00570184 0)
(0.104062 -0.00566097 0)
(0.105319 -0.00561779 0)
(0.106566 -0.00557225 0)
(0.107803 -0.0055243 0)
(0.109029 -0.00547387 0)
(0.110244 -0.00542093 0)
(0.111447 -0.00536542 0)
(0.112637 -0.00530729 0)
(0.113813 -0.00524651 0)
(0.114977 -0.00518302 0)
(0.116125 -0.00511679 0)
(0.117259 -0.00504779 0)
(0.118378 -0.00497598 0)
(0.11948 -0.00490133 0)
(0.120565 -0.00482382 0)
(0.121632 -0.00474343 0)
(0.122682 -0.00466014 0)
(0.123712 -0.00457394 0)
(0.124724 -0.00448481 0)
(0.125715 -0.00439276 0)
(0.126685 -0.00429778 0)
(0.127634 -0.00419988 0)
(0.12856 -0.00409908 0)
(0.129464 -0.00399538 0)
(0.130345 -0.00388882 0)
(0.131202 -0.00377941 0)
(0.132033 -0.00366719 0)
(0.13284 -0.0035522 0)
(0.13362 -0.00343448 0)
(0.134375 -0.00331409 0)
(0.135101 -0.00319107 0)
(0.135801 -0.00306549 0)
(0.136472 -0.00293742 0)
(0.137114 -0.00280692 0)
(0.137726 -0.00267408 0)
(0.138309 -0.00253898 0)
(0.138861 -0.00240171 0)
(0.139383 -0.00226236 0)
(0.139873 -0.00212104 0)
(0.140331 -0.00197784 0)
(0.140757 -0.00183288 0)
(0.141151 -0.00168626 0)
(0.141511 -0.00153812 0)
(0.141839 -0.00138856 0)
(0.142133 -0.00123771 0)
(0.142392 -0.00108571 0)
(0.142618 -0.000932683 0)
(0.14281 -0.000778762 0)
(0.142967 -0.000624085 0)
(0.143089 -0.000468791 0)
(0.143177 -0.00031302 0)
(0.143229 -0.000156913 0)