/*--------------------------------*- C++ -*----------------------------------*\
| =========                 |                                                 |
| \\      /  F ield         | OpenFOAM: The Open Source CFD Toolbox           |
|  \\    /   O peration     | Version:  v2012                                 |
|   \\  /    A nd           | Website:  www.openfoam.com                      |
|    \\/     M anipulation  |                                                 |
\*---------------------------------------------------------------------------*/
FoamFile
{
    version     2.0;
    format      ascii;
    class       volScalarField;
    location    "18";
    object      W;
}
// * * * * * * * * * * * * * * * * * * * * * * * * * * * * * * * * * * * * * //

dimensions      [0 0 -1 0 0 0 0];


internalField   nonuniform List<scalar> 
65536
(
4.76471e-15
1.43415e-14
2.40618e-14
3.40244e-14
4.43309e-14
5.50858e-14
6.6398e-14
7.83811e-14
9.11553e-14
1.04847e-13
1.19593e-13
1.35537e-13
1.52834e-13
1.71653e-13
1.92173e-13
2.1459e-13
2.39117e-13
2.65982e-13
2.95434e-13
3.27745e-13
3.63209e-13
4.02146e-13
4.44902e-13
4.91855e-13
5.43415e-13
6.00029e-13
6.62177e-13
7.30386e-13
8.05223e-13
8.87303e-13
9.77292e-13
1.07591e-12
1.18394e-12
1.30221e-12
1.43164e-12
1.5732e-12
1.72795e-12
1.89699e-12
2.08156e-12
2.28295e-12
2.50255e-12
2.74185e-12
3.00244e-12
3.286e-12
3.59435e-12
3.9294e-12
4.29318e-12
4.68784e-12
5.11567e-12
5.57906e-12
6.08054e-12
6.62278e-12
7.20856e-12
7.84079e-12
8.52252e-12
9.25691e-12
1.00473e-11
1.0897e-11
1.18095e-11
1.27885e-11
1.38377e-11
1.49608e-11
1.61616e-11
1.74441e-11
1.88121e-11
2.02694e-11
2.18201e-11
2.34678e-11
2.52164e-11
2.70694e-11
2.90304e-11
3.11026e-11
3.3289e-11
3.55925e-11
3.80155e-11
4.05602e-11
4.32282e-11
4.60208e-11
4.89386e-11
5.19818e-11
5.51499e-11
5.84418e-11
6.18556e-11
6.53887e-11
6.90375e-11
7.27977e-11
7.66642e-11
8.06306e-11
8.469e-11
8.88342e-11
9.30541e-11
9.73396e-11
1.0168e-10
1.06062e-10
1.10474e-10
1.14901e-10
1.19328e-10
1.23741e-10
1.28122e-10
1.32455e-10
1.36722e-10
1.40905e-10
1.44985e-10
1.48945e-10
1.52765e-10
1.56427e-10
1.59913e-10
1.63205e-10
1.66285e-10
1.69137e-10
1.71746e-10
1.74096e-10
1.76173e-10
1.77967e-10
1.79465e-10
1.8066e-10
1.81542e-10
1.82107e-10
1.82351e-10
1.82271e-10
1.81868e-10
1.81144e-10
1.80101e-10
1.78746e-10
1.77087e-10
1.75133e-10
1.72894e-10
1.70384e-10
1.67616e-10
1.64606e-10
1.61371e-10
1.57927e-10
1.54293e-10
1.50489e-10
1.46533e-10
1.42445e-10
1.38245e-10
1.33953e-10
1.29589e-10
1.2517e-10
1.20717e-10
1.16246e-10
1.11775e-10
1.0732e-10
1.02896e-10
9.85174e-11
9.41967e-11
8.99457e-11
8.57753e-11
8.16947e-11
7.77121e-11
7.38347e-11
7.00682e-11
6.64175e-11
6.28862e-11
5.94772e-11
5.61923e-11
5.30323e-11
4.99975e-11
4.70873e-11
4.43005e-11
4.16355e-11
3.90901e-11
3.66615e-11
3.4347e-11
3.21432e-11
3.00469e-11
2.80543e-11
2.6162e-11
2.43662e-11
2.26633e-11
2.10495e-11
1.95214e-11
1.80756e-11
1.67085e-11
1.54172e-11
1.41985e-11
1.30494e-11
1.19674e-11
1.09497e-11
9.99401e-12
9.09795e-12
8.25936e-12
7.47618e-12
6.74641e-12
6.06817e-12
5.43959e-12
4.85887e-12
4.32422e-12
3.83383e-12
3.38592e-12
2.97864e-12
2.61013e-12
2.2785e-12
1.9818e-12
1.71803e-12
1.48517e-12
1.28116e-12
1.10389e-12
9.5127e-13
8.21174e-13
7.11497e-13
6.20151e-13
5.45085e-13
4.84297e-13
4.35853e-13
3.97894e-13
3.68661e-13
3.46498e-13
3.29876e-13
3.17395e-13
3.07805e-13
3.00005e-13
2.9306e-13
2.86195e-13
2.78803e-13
2.70438e-13
2.60808e-13
2.49768e-13
2.37297e-13
2.2349e-13
2.0853e-13
1.92667e-13
1.76201e-13
1.59451e-13
1.4274e-13
1.26377e-13
1.10639e-13
9.57617e-14
8.19321e-14
6.92842e-14
5.79e-14
4.78119e-14
3.90085e-14
3.14415e-14
2.50336e-14
1.9687e-14
1.52908e-14
1.17284e-14
8.88308e-15
6.64305e-15
4.90472e-15
3.57491e-15
2.57208e-15
1.82657e-15
1.2802e-15
8.8546e-16
6.04298e-16
4.06848e-16
2.70096e-16
1.7662e-16
1.13439e-16
7.1003e-17
4.23286e-17
2.22745e-17
6.92681e-18
1.62543e-14
4.89253e-14
8.20885e-14
1.16083e-13
1.51256e-13
1.87968e-13
2.2659e-13
2.67513e-13
3.1115e-13
3.57935e-13
4.08335e-13
4.62846e-13
5.22004e-13
5.86383e-13
6.56605e-13
7.33342e-13
8.17324e-13
9.0934e-13
1.01025e-12
1.12099e-12
1.24256e-12
1.37608e-12
1.52274e-12
1.68384e-12
1.8608e-12
2.05516e-12
2.26858e-12
2.50287e-12
2.76e-12
3.0421e-12
3.35146e-12
3.69058e-12
4.06214e-12
4.46907e-12
4.91448e-12
5.40176e-12
5.93455e-12
6.51675e-12
7.15255e-12
7.84646e-12
8.60329e-12
9.4282e-12
1.03267e-11
1.13046e-11
1.23683e-11
1.35242e-11
1.47796e-11
1.61417e-11
1.76186e-11
1.92185e-11
2.09503e-11
2.2823e-11
2.48464e-11
2.70306e-11
2.9386e-11
3.19236e-11
3.46549e-11
3.75914e-11
4.07453e-11
4.41291e-11
4.77555e-11
5.16375e-11
5.57881e-11
6.02207e-11
6.49486e-11
6.99852e-11
7.53436e-11
8.10368e-11
8.70776e-11
9.34781e-11
1.0025e-10
1.07405e-10
1.14952e-10
1.22901e-10
1.31259e-10
1.40034e-10
1.49231e-10
1.58853e-10
1.68902e-10
1.79377e-10
1.90277e-10
2.01595e-10
2.13325e-10
2.25456e-10
2.37974e-10
2.50865e-10
2.64108e-10
2.7768e-10
2.91556e-10
3.05707e-10
3.20098e-10
3.34695e-10
3.49458e-10
3.64342e-10
3.79303e-10
3.9429e-10
4.09251e-10
4.24131e-10
4.38874e-10
4.53419e-10
4.67705e-10
4.81671e-10
4.95252e-10
5.08384e-10
5.21005e-10
5.33051e-10
5.4446e-10
5.55171e-10
5.65128e-10
5.74274e-10
5.82557e-10
5.8993e-10
5.96348e-10
6.01774e-10
6.06173e-10
6.09517e-10
6.11785e-10
6.12961e-10
6.13036e-10
6.12007e-10
6.09879e-10
6.06662e-10
6.02374e-10
5.97039e-10
5.90687e-10
5.83354e-10
5.75082e-10
5.65918e-10
5.55913e-10
5.45123e-10
5.33607e-10
5.21428e-10
5.0865e-10
4.9534e-10
4.81564e-10
4.67392e-10
4.52891e-10
4.38129e-10
4.23171e-10
4.08082e-10
3.92924e-10
3.77755e-10
3.62633e-10
3.4761e-10
3.32735e-10
3.18053e-10
3.03607e-10
2.89433e-10
2.75565e-10
2.62031e-10
2.48856e-10
2.36061e-10
2.23663e-10
2.11676e-10
2.0011e-10
1.8897e-10
1.78261e-10
1.67983e-10
1.58136e-10
1.48713e-10
1.39711e-10
1.31121e-10
1.22934e-10
1.1514e-10
1.07728e-10
1.00685e-10
9.39985e-11
8.76563e-11
8.1645e-11
7.59513e-11
7.05623e-11
6.54652e-11
6.06474e-11
5.60968e-11
5.18019e-11
4.77515e-11
4.39351e-11
4.03427e-11
3.69649e-11
3.37928e-11
3.0818e-11
2.80327e-11
2.54295e-11
2.30013e-11
2.07415e-11
1.86436e-11
1.67015e-11
1.49092e-11
1.32606e-11
1.175e-11
1.03714e-11
9.11893e-12
7.9866e-12
6.96833e-12
6.05793e-12
5.24912e-12
4.53552e-12
3.91066e-12
3.36801e-12
2.901e-12
2.50309e-12
2.16775e-12
1.88853e-12
1.65913e-12
1.47339e-12
1.32538e-12
1.20939e-12
1.12005e-12
1.0523e-12
1.00146e-12
9.63267e-13
9.33903e-13
9.10023e-13
8.88772e-13
8.67797e-13
8.4525e-13
8.19775e-13
7.90486e-13
7.56936e-13
7.19067e-13
6.77161e-13
6.31773e-13
5.83664e-13
5.33735e-13
4.82958e-13
4.3231e-13
3.82723e-13
3.35038e-13
2.89967e-13
2.48074e-13
2.09766e-13
1.75288e-13
1.44739e-13
1.18082e-13
9.51705e-14
7.57706e-14
5.95847e-14
4.6277e-14
3.54938e-14
2.68818e-14
2.01022e-14
1.48413e-14
1.0817e-14
7.78236e-15
5.52646e-15
3.87325e-15
2.67888e-15
1.82819e-15
1.23081e-15
8.17084e-16
5.34293e-16
3.43158e-16
2.14783e-16
1.28042e-16
6.73788e-17
2.09534e-17
3.42826e-14
1.03193e-13
1.73152e-13
2.4488e-13
3.19117e-13
3.96626e-13
4.78202e-13
5.64676e-13
6.56927e-13
7.55883e-13
8.62538e-13
9.77954e-13
1.10327e-12
1.23972e-12
1.38864e-12
1.55145e-12
1.72973e-12
1.92517e-12
2.1396e-12
2.37504e-12
2.63365e-12
2.91781e-12
3.23009e-12
3.57329e-12
3.95045e-12
4.36489e-12
4.8202e-12
5.32029e-12
5.86937e-12
6.47205e-12
7.13329e-12
7.85847e-12
8.6534e-12
9.52436e-12
1.04781e-11
1.1522e-11
1.26639e-11
1.39122e-11
1.5276e-11
1.6765e-11
1.83898e-11
2.01614e-11
2.20918e-11
2.41936e-11
2.64805e-11
2.89667e-11
3.16676e-11
3.45994e-11
3.77791e-11
4.12246e-11
4.49552e-11
4.89905e-11
5.33516e-11
5.80602e-11
6.31391e-11
6.86119e-11
7.45032e-11
8.08382e-11
8.76431e-11
9.49446e-11
1.0277e-10
1.11147e-10
1.20104e-10
1.29669e-10
1.39871e-10
1.50738e-10
1.62297e-10
1.74577e-10
1.87603e-10
2.01402e-10
2.15997e-10
2.31411e-10
2.47663e-10
2.64774e-10
2.82757e-10
3.01625e-10
3.21388e-10
3.42049e-10
3.63611e-10
3.86069e-10
4.09415e-10
4.33633e-10
4.58705e-10
4.84604e-10
5.11296e-10
5.38744e-10
5.66901e-10
5.95712e-10
6.25118e-10
6.55048e-10
6.85429e-10
7.16176e-10
7.472e-10
7.78401e-10
8.09677e-10
8.40916e-10
8.72002e-10
9.02812e-10
9.33222e-10
9.63099e-10
9.92311e-10
1.02072e-09
1.0482e-09
1.0746e-09
1.09979e-09
1.12365e-09
1.14603e-09
1.16682e-09
1.18589e-09
1.20314e-09
1.21846e-09
1.23176e-09
1.24295e-09
1.25197e-09
1.25875e-09
1.26325e-09
1.26543e-09
1.26528e-09
1.2628e-09
1.25798e-09
1.25086e-09
1.24148e-09
1.22989e-09
1.21615e-09
1.20034e-09
1.18256e-09
1.16291e-09
1.1415e-09
1.11846e-09
1.0939e-09
1.06797e-09
1.0408e-09
1.01255e-09
9.83348e-10
9.5335e-10
9.22699e-10
8.91541e-10
8.60016e-10
8.28263e-10
7.96411e-10
7.64589e-10
7.32914e-10
7.01498e-10
6.70446e-10
6.39851e-10
6.098e-10
5.80369e-10
5.51628e-10
5.23635e-10
4.9644e-10
4.70085e-10
4.44602e-10
4.20019e-10
3.96351e-10
3.73611e-10
3.51803e-10
3.30926e-10
3.10972e-10
2.9193e-10
2.73786e-10
2.5652e-10
2.40109e-10
2.24531e-10
2.09757e-10
1.9576e-10
1.82512e-10
1.69982e-10
1.5814e-10
1.46957e-10
1.36403e-10
1.26448e-10
1.17065e-10
1.08227e-10
9.99059e-11
9.20779e-11
8.47189e-11
7.78063e-11
7.13188e-11
6.52364e-11
5.95403e-11
5.42131e-11
4.92381e-11
4.46e-11
4.02842e-11
3.62768e-11
3.25648e-11
2.91357e-11
2.59773e-11
2.30778e-11
2.04257e-11
1.80096e-11
1.5818e-11
1.38397e-11
1.20633e-11
1.04771e-11
9.06977e-12
7.82953e-12
6.74468e-12
5.8035e-12
4.99424e-12
4.30526e-12
3.72502e-12
3.24218e-12
2.84565e-12
2.5247e-12
2.26895e-12
2.06854e-12
1.91411e-12
1.79692e-12
1.7089e-12
1.64271e-12
1.59178e-12
1.55035e-12
1.51354e-12
1.4773e-12
1.43847e-12
1.39474e-12
1.34457e-12
1.28721e-12
1.22256e-12
1.15109e-12
1.07373e-12
9.91796e-13
9.06804e-13
8.20403e-13
7.34254e-13
6.49939e-13
5.6888e-13
4.92284e-13
4.21107e-13
3.56033e-13
2.97478e-13
2.45604e-13
2.00348e-13
1.61457e-13
1.28532e-13
1.01065e-13
7.84856e-14
6.01918e-14
4.55831e-14
3.40842e-14
2.51621e-14
1.83379e-14
1.31923e-14
9.36757e-15
6.56489e-15
4.54023e-15
3.0983e-15
2.08578e-15
1.38459e-15
9.05346e-16
5.81449e-16
3.63916e-16
2.1694e-16
1.14158e-16
3.55006e-17
6.55685e-14
1.97374e-13
3.31207e-13
4.68461e-13
6.10567e-13
7.59001e-13
9.153e-13
1.08107e-12
1.25803e-12
1.44796e-12
1.6528e-12
1.87461e-12
2.1156e-12
2.37818e-12
2.66493e-12
2.97865e-12
3.32239e-12
3.69946e-12
4.11344e-12
4.56825e-12
5.06814e-12
5.61776e-12
6.22214e-12
6.88677e-12
7.61762e-12
8.42118e-12
9.30451e-12
1.02753e-11
1.13418e-11
1.25131e-11
1.37989e-11
1.52099e-11
1.67575e-11
1.84541e-11
2.0313e-11
2.23486e-11
2.45765e-11
2.70134e-11
2.96772e-11
3.25871e-11
3.57638e-11
3.92294e-11
4.30074e-11
4.71229e-11
5.16028e-11
5.64755e-11
6.17711e-11
6.75218e-11
7.37613e-11
8.05252e-11
8.78511e-11
9.57784e-11
1.04348e-10
1.13604e-10
1.2359e-10
1.34354e-10
1.45944e-10
1.58409e-10
1.718e-10
1.86171e-10
2.01575e-10
2.18066e-10
2.357e-10
2.54531e-10
2.74614e-10
2.96005e-10
3.18756e-10
3.42921e-10
3.6855e-10
3.9569e-10
4.24388e-10
4.54685e-10
4.86616e-10
5.20216e-10
5.5551e-10
5.92517e-10
6.31251e-10
6.71715e-10
7.13905e-10
7.57807e-10
8.03396e-10
8.50637e-10
8.99481e-10
9.49868e-10
1.00172e-09
1.05496e-09
1.10948e-09
1.16516e-09
1.22187e-09
1.27948e-09
1.33781e-09
1.39669e-09
1.45593e-09
1.51534e-09
1.57469e-09
1.63376e-09
1.69231e-09
1.75009e-09
1.80686e-09
1.86234e-09
1.91628e-09
1.9684e-09
2.01844e-09
2.06614e-09
2.11123e-09
2.15346e-09
2.19259e-09
2.22838e-09
2.26062e-09
2.28911e-09
2.31365e-09
2.33411e-09
2.35032e-09
2.36219e-09
2.36963e-09
2.37257e-09
2.37098e-09
2.36486e-09
2.35424e-09
2.33916e-09
2.31973e-09
2.29604e-09
2.26823e-09
2.23647e-09
2.20094e-09
2.16186e-09
2.11944e-09
2.07394e-09
2.02562e-09
1.97474e-09
1.92158e-09
1.86644e-09
1.80959e-09
1.75134e-09
1.69197e-09
1.63176e-09
1.57099e-09
1.50993e-09
1.44883e-09
1.38794e-09
1.32749e-09
1.26768e-09
1.20872e-09
1.15079e-09
1.09404e-09
1.03861e-09
9.84644e-10
9.32231e-10
8.81466e-10
8.32419e-10
7.85145e-10
7.39685e-10
6.96064e-10
6.54292e-10
6.14371e-10
5.76287e-10
5.4002e-10
5.05539e-10
4.72805e-10
4.41775e-10
4.12397e-10
3.84619e-10
3.58382e-10
3.33626e-10
3.1029e-10
2.8831e-10
2.67624e-10
2.4817e-10
2.29886e-10
2.12711e-10
1.96589e-10
1.81463e-10
1.67278e-10
1.53985e-10
1.41533e-10
1.29877e-10
1.18974e-10
1.08783e-10
9.92665e-11
9.03886e-11
8.21164e-11
7.44192e-11
6.7268e-11
6.06359e-11
5.44977e-11
4.88295e-11
4.36086e-11
3.88135e-11
3.44233e-11
3.0418e-11
2.67779e-11
2.34837e-11
2.05166e-11
1.78576e-11
1.5488e-11
1.33894e-11
1.1543e-11
9.93049e-12
8.53351e-12
7.33389e-12
6.31375e-12
5.45546e-12
4.74185e-12
4.15619e-12
3.68234e-12
3.30484e-12
3.00898e-12
2.7809e-12
2.60767e-12
2.47741e-12
2.37929e-12
2.30371e-12
2.24222e-12
2.18769e-12
2.13421e-12
2.07718e-12
2.01321e-12
1.9401e-12
1.85672e-12
1.76292e-12
1.65938e-12
1.54745e-12
1.429e-12
1.30622e-12
1.18149e-12
1.05718e-12
9.35584e-13
8.18729e-13
7.0835e-13
6.05816e-13
5.12103e-13
4.27804e-13
3.53143e-13
2.88023e-13
2.32076e-13
1.84721e-13
1.45225e-13
1.12764e-13
8.64686e-14
6.5474e-14
4.89513e-14
3.61332e-14
2.63305e-14
1.89402e-14
1.34477e-14
9.42335e-15
6.51654e-15
4.44657e-15
2.9932e-15
1.98681e-15
1.29903e-15
8.34239e-16
5.22103e-16
3.11227e-16
1.63768e-16
5.09279e-17
1.20983e-13
3.64199e-13
6.11201e-13
8.64592e-13
1.12704e-12
1.40131e-12
1.69028e-12
1.99694e-12
2.3245e-12
2.67633e-12
3.05604e-12
3.4675e-12
3.91487e-12
4.40267e-12
4.93575e-12
5.51939e-12
6.15934e-12
6.86182e-12
7.63362e-12
8.48214e-12
9.41541e-12
1.04422e-11
1.15721e-11
1.28154e-11
1.41835e-11
1.56888e-11
1.73445e-11
1.91653e-11
2.11671e-11
2.33668e-11
2.57833e-11
2.84366e-11
3.13486e-11
3.45429e-11
3.8045e-11
4.18824e-11
4.60848e-11
5.06841e-11
5.57145e-11
6.1213e-11
6.72189e-11
7.37746e-11
8.09251e-11
8.87187e-11
9.72067e-11
1.06444e-10
1.16487e-10
1.27399e-10
1.39244e-10
1.5209e-10
1.66009e-10
1.81077e-10
1.97373e-10
2.14979e-10
2.33981e-10
2.54469e-10
2.76534e-10
3.00273e-10
3.25783e-10
3.53163e-10
3.82517e-10
4.13946e-10
4.47555e-10
4.83449e-10
5.21731e-10
5.62503e-10
6.05867e-10
6.51918e-10
7.00752e-10
7.52455e-10
8.07109e-10
8.64789e-10
9.25558e-10
9.89473e-10
1.05657e-09
1.12689e-09
1.20044e-09
1.27722e-09
1.3572e-09
1.44036e-09
1.52662e-09
1.61591e-09
1.70811e-09
1.8031e-09
1.90072e-09
2.00077e-09
2.10306e-09
2.20733e-09
2.31332e-09
2.42072e-09
2.52922e-09
2.63846e-09
2.74805e-09
2.85759e-09
2.96666e-09
3.0748e-09
3.18155e-09
3.28642e-09
3.38892e-09
3.48854e-09
3.58477e-09
3.67711e-09
3.76504e-09
3.84807e-09
3.92572e-09
3.99752e-09
4.06302e-09
4.12182e-09
4.17352e-09
4.21778e-09
4.2543e-09
4.28281e-09
4.3031e-09
4.31501e-09
4.31843e-09
4.31331e-09
4.29964e-09
4.27749e-09
4.24697e-09
4.20825e-09
4.16156e-09
4.10717e-09
4.0454e-09
3.97664e-09
3.90127e-09
3.81977e-09
3.73259e-09
3.64027e-09
3.54331e-09
3.44227e-09
3.3377e-09
3.23017e-09
3.12023e-09
3.00844e-09
2.89534e-09
2.78146e-09
2.6673e-09
2.55336e-09
2.44009e-09
2.32793e-09
2.21726e-09
2.10845e-09
2.00183e-09
1.89769e-09
1.79628e-09
1.69783e-09
1.60252e-09
1.51051e-09
1.4219e-09
1.33679e-09
1.25522e-09
1.17724e-09
1.10284e-09
1.03201e-09
9.647e-10
9.00857e-10
8.40407e-10
7.83262e-10
7.29323e-10
6.78481e-10
6.30622e-10
5.85625e-10
5.43365e-10
5.03716e-10
4.6655e-10
4.31741e-10
3.99164e-10
3.68696e-10
3.40217e-10
3.13614e-10
2.88776e-10
2.65595e-10
2.43974e-10
2.23815e-10
2.05029e-10
1.87533e-10
1.71248e-10
1.561e-10
1.42021e-10
1.28947e-10
1.1682e-10
1.05584e-10
9.51895e-11
8.55886e-11
7.67374e-11
6.85946e-11
6.11216e-11
5.42817e-11
4.80402e-11
4.23638e-11
3.72205e-11
3.25794e-11
2.84102e-11
2.46836e-11
2.13707e-11
1.84431e-11
1.58729e-11
1.36326e-11
1.16952e-11
1.00343e-11
8.6239e-12
7.43879e-12
6.45448e-12
5.64734e-12
4.99467e-12
4.47484e-12
4.06738e-12
3.75309e-12
3.51414e-12
3.33419e-12
3.19841e-12
3.09365e-12
3.00843e-12
2.93303e-12
2.85943e-12
2.7814e-12
2.69435e-12
2.59528e-12
2.48268e-12
2.35632e-12
2.2171e-12
2.06683e-12
1.90799e-12
1.7435e-12
1.57653e-12
1.41026e-12
1.2477e-12
1.09156e-12
9.44156e-13
8.07286e-13
6.82244e-13
5.69804e-13
4.70255e-13
3.83457e-13
3.08908e-13
2.45826e-13
1.93229e-13
1.50009e-13
1.15009e-13
8.70698e-14
6.50868e-14
4.80362e-14
3.49991e-14
2.51723e-14
1.78701e-14
1.25208e-14
8.65748e-15
5.90679e-15
3.97574e-15
2.63875e-15
1.72513e-15
1.10779e-15
6.93256e-16
4.13228e-16
2.17433e-16
6.7615e-17
2.18537e-13
6.57897e-13
1.10419e-12
1.56216e-12
2.03671e-12
2.53288e-12
3.05594e-12
3.61141e-12
4.20513e-12
4.84329e-12
5.53254e-12
6.28e-12
7.09332e-12
7.9808e-12
8.95141e-12
1.00149e-11
1.11818e-11
1.24638e-11
1.38733e-11
1.5424e-11
1.71308e-11
1.90101e-11
2.10794e-11
2.33582e-11
2.58674e-11
2.86301e-11
3.1671e-11
3.50175e-11
3.86989e-11
4.27473e-11
4.71974e-11
5.2087e-11
5.74568e-11
6.33511e-11
6.98175e-11
7.69076e-11
8.4677e-11
9.31854e-11
1.02497e-10
1.12682e-10
1.23813e-10
1.3597e-10
1.49238e-10
1.63708e-10
1.79475e-10
1.96643e-10
2.15321e-10
2.35623e-10
2.57672e-10
2.81597e-10
3.07533e-10
3.35622e-10
3.66012e-10
3.9886e-10
4.34326e-10
4.72579e-10
5.13791e-10
5.58143e-10
6.05816e-10
6.56999e-10
7.11881e-10
7.70656e-10
8.33518e-10
9.00661e-10
9.72276e-10
1.04855e-09
1.12968e-09
1.21583e-09
1.30717e-09
1.40387e-09
1.50607e-09
1.6139e-09
1.72747e-09
1.84687e-09
1.97218e-09
2.10342e-09
2.24061e-09
2.38373e-09
2.53273e-09
2.68749e-09
2.8479e-09
3.01376e-09
3.18484e-09
3.36088e-09
3.54154e-09
3.72644e-09
3.91515e-09
4.10718e-09
4.302e-09
4.499e-09
4.69753e-09
4.89691e-09
5.09638e-09
5.29516e-09
5.4924e-09
5.68724e-09
5.87877e-09
6.06608e-09
6.24821e-09
6.42421e-09
6.59312e-09
6.75399e-09
6.90587e-09
7.04786e-09
7.17907e-09
7.29866e-09
7.40583e-09
7.49988e-09
7.58012e-09
7.64599e-09
7.69698e-09
7.73268e-09
7.7528e-09
7.75712e-09
7.74554e-09
7.71807e-09
7.67482e-09
7.61601e-09
7.54197e-09
7.45314e-09
7.35004e-09
7.2333e-09
7.10363e-09
6.96182e-09
6.80874e-09
6.6453e-09
6.47248e-09
6.29129e-09
6.10277e-09
5.90799e-09
5.708e-09
5.50389e-09
5.2967e-09
5.08745e-09
4.87716e-09
4.66677e-09
4.45719e-09
4.24929e-09
4.04385e-09
3.84162e-09
3.64326e-09
3.44936e-09
3.26047e-09
3.07702e-09
2.89942e-09
2.72798e-09
2.56296e-09
2.40454e-09
2.25287e-09
2.10801e-09
1.96998e-09
1.83877e-09
1.71431e-09
1.5965e-09
1.48519e-09
1.38023e-09
1.28142e-09
1.18856e-09
1.10142e-09
1.01977e-09
9.43349e-10
8.71924e-10
8.05237e-10
7.43038e-10
6.85077e-10
6.3111e-10
5.80899e-10
5.34213e-10
4.90831e-10
4.5054e-10
4.13138e-10
3.78433e-10
3.46245e-10
3.16403e-10
2.88749e-10
2.63134e-10
2.3942e-10
2.17478e-10
1.97191e-10
1.78447e-10
1.61147e-10
1.45196e-10
1.30509e-10
1.17004e-10
1.04609e-10
9.32539e-11
8.28757e-11
7.34142e-11
6.48129e-11
5.70185e-11
4.99806e-11
4.36505e-11
3.7982e-11
3.29301e-11
2.84516e-11
2.45043e-11
2.10473e-11
1.80409e-11
1.54465e-11
1.32265e-11
1.13447e-11
9.76575e-12
8.45603e-12
7.3831e-12
6.51612e-12
5.82582e-12
5.28469e-12
4.86705e-12
4.54918e-12
4.30937e-12
4.12809e-12
3.988e-12
3.87404e-12
3.77348e-12
3.67586e-12
3.57304e-12
3.45905e-12
3.32999e-12
3.18386e-12
3.02038e-12
2.84066e-12
2.64701e-12
2.4426e-12
2.23117e-12
2.01676e-12
1.80342e-12
1.595e-12
1.39496e-12
1.2062e-12
1.03103e-12
8.71077e-13
7.27311e-13
6.00082e-13
4.89193e-13
3.93989e-13
3.13457e-13
2.46331e-13
1.91192e-13
1.46551e-13
1.10927e-13
8.29044e-14
6.11747e-14
4.4564e-14
3.20462e-14
2.27463e-14
1.59349e-14
1.10166e-14
7.51537e-15
5.05781e-15
3.35654e-15
2.19417e-15
1.40885e-15
8.81583e-16
5.25448e-16
2.76467e-16
8.59708e-17
3.87934e-13
1.16791e-12
1.96036e-12
2.77382e-12
3.61708e-12
4.49925e-12
5.42979e-12
6.41865e-12
7.47635e-12
8.61411e-12
9.84389e-12
1.11786e-11
1.2632e-11
1.42193e-11
1.59565e-11
1.78616e-11
1.99536e-11
2.22535e-11
2.47841e-11
2.75704e-11
3.06396e-11
3.40212e-11
3.77477e-11
4.18544e-11
4.63796e-11
5.13654e-11
5.68574e-11
6.29054e-11
6.95634e-11
7.68902e-11
8.49498e-11
9.38113e-11
1.0355e-10
1.14247e-10
1.2599e-10
1.38874e-10
1.53002e-10
1.68484e-10
1.85439e-10
2.03995e-10
2.24288e-10
2.46466e-10
2.70685e-10
2.97112e-10
3.25928e-10
3.57321e-10
3.91494e-10
4.2866e-10
4.69046e-10
5.1289e-10
5.60443e-10
6.11969e-10
6.67744e-10
7.28055e-10
7.93202e-10
8.63497e-10
9.3926e-10
1.02082e-09
1.10852e-09
1.20271e-09
1.30373e-09
1.41195e-09
1.52771e-09
1.65138e-09
1.78331e-09
1.92384e-09
2.07332e-09
2.23206e-09
2.40037e-09
2.57853e-09
2.7668e-09
2.96542e-09
3.17456e-09
3.39438e-09
3.62499e-09
3.86644e-09
4.11871e-09
4.38174e-09
4.6554e-09
4.93946e-09
5.23363e-09
5.53754e-09
5.85072e-09
6.17261e-09
6.50255e-09
6.83979e-09
7.18347e-09
7.53263e-09
7.88623e-09
8.24308e-09
8.60196e-09
8.96149e-09
9.32025e-09
9.67672e-09
1.00293e-08
1.03764e-08
1.07162e-08
1.1047e-08
1.13671e-08
1.16747e-08
1.19679e-08
1.22451e-08
1.25045e-08
1.27445e-08
1.29635e-08
1.31599e-08
1.33325e-08
1.34799e-08
1.3601e-08
1.36949e-08
1.37608e-08
1.37981e-08
1.38064e-08
1.37854e-08
1.37352e-08
1.36559e-08
1.3548e-08
1.3412e-08
1.32487e-08
1.30591e-08
1.28445e-08
1.2606e-08
1.23452e-08
1.20638e-08
1.17633e-08
1.14458e-08
1.1113e-08
1.0767e-08
1.04097e-08
1.00432e-08
9.66943e-09
9.29038e-09
8.90799e-09
8.52414e-09
8.1406e-09
7.75909e-09
7.38119e-09
7.00839e-09
6.64204e-09
6.28336e-09
5.93345e-09
5.59327e-09
5.26364e-09
4.94525e-09
4.63867e-09
4.34433e-09
4.06254e-09
3.7935e-09
3.53732e-09
3.29399e-09
3.06342e-09
2.84546e-09
2.63985e-09
2.44632e-09
2.26451e-09
2.09403e-09
1.93447e-09
1.78536e-09
1.64625e-09
1.51665e-09
1.39607e-09
1.28402e-09
1.18002e-09
1.08359e-09
9.94254e-10
9.1157e-10
8.35095e-10
7.6441e-10
6.99116e-10
6.38832e-10
5.832e-10
5.31882e-10
4.84563e-10
4.40948e-10
4.00762e-10
3.63749e-10
3.29676e-10
2.98324e-10
2.69493e-10
2.42999e-10
2.18672e-10
1.96357e-10
1.75912e-10
1.57205e-10
1.40115e-10
1.24531e-10
1.1035e-10
9.74763e-11
8.58211e-11
7.53007e-11
6.58369e-11
5.73555e-11
4.97864e-11
4.30626e-11
3.71201e-11
3.18977e-11
2.73364e-11
2.33797e-11
1.99731e-11
1.70644e-11
1.46034e-11
1.25421e-11
1.08346e-11
9.43745e-12
8.30936e-12
7.41154e-12
6.7077e-12
6.16417e-12
5.74998e-12
5.43698e-12
5.19989e-12
5.01638e-12
4.86712e-12
4.73579e-12
4.60906e-12
4.47653e-12
4.33061e-12
4.16634e-12
3.98116e-12
3.77466e-12
3.54825e-12
3.30476e-12
3.04816e-12
2.7831e-12
2.51459e-12
2.24769e-12
1.98715e-12
1.73727e-12
1.50165e-12
1.28313e-12
1.0837e-12
9.04548e-13
7.46082e-13
6.0803e-13
4.89556e-13
3.89381e-13
3.05915e-13
2.37377e-13
1.81908e-13
1.37657e-13
1.02858e-13
7.58823e-14
5.52667e-14
3.97348e-14
2.81985e-14
1.9751e-14
1.36526e-14
9.31218e-15
6.26615e-15
4.15789e-15
2.71768e-15
1.74479e-15
1.09169e-15
6.50628e-16
3.42312e-16
1.06443e-16
6.77482e-13
2.03973e-12
3.42403e-12
4.84554e-12
6.31981e-12
7.86293e-12
9.4917e-12
1.12238e-11
1.30778e-11
1.50737e-11
1.72328e-11
1.9578e-11
2.21339e-11
2.49274e-11
2.79875e-11
3.13457e-11
3.50365e-11
3.90973e-11
4.35691e-11
4.84964e-11
5.39281e-11
5.99175e-11
6.65225e-11
7.38068e-11
8.18395e-11
9.06963e-11
1.0046e-10
1.11219e-10
1.23072e-10
1.36126e-10
1.50494e-10
1.66304e-10
1.83691e-10
2.02802e-10
2.23797e-10
2.46849e-10
2.72142e-10
2.99878e-10
3.30274e-10
3.63561e-10
3.99989e-10
4.39826e-10
4.83357e-10
5.30888e-10
5.82745e-10
6.39276e-10
7.00849e-10
7.67855e-10
8.40706e-10
9.1984e-10
1.00572e-09
1.09881e-09
1.19964e-09
1.30872e-09
1.42661e-09
1.55386e-09
1.69108e-09
1.83886e-09
1.99782e-09
2.1686e-09
2.35184e-09
2.54818e-09
2.75828e-09
2.98278e-09
3.22233e-09
3.47755e-09
3.74904e-09
4.03739e-09
4.34315e-09
4.66681e-09
5.00884e-09
5.36963e-09
5.7495e-09
6.1487e-09
6.56739e-09
7.00562e-09
7.46335e-09
7.9404e-09
8.43647e-09
8.9511e-09
9.48372e-09
1.00336e-08
1.05997e-08
1.1181e-08
1.17763e-08
1.2384e-08
1.30025e-08
1.363e-08
1.42644e-08
1.49036e-08
1.55451e-08
1.61864e-08
1.68248e-08
1.74575e-08
1.80814e-08
1.86934e-08
1.92905e-08
1.98693e-08
2.04267e-08
2.09592e-08
2.14638e-08
2.19372e-08
2.23763e-08
2.27781e-08
2.31399e-08
2.3459e-08
2.37331e-08
2.396e-08
2.41378e-08
2.4265e-08
2.43405e-08
2.43632e-08
2.43328e-08
2.42492e-08
2.41125e-08
2.39235e-08
2.36832e-08
2.3393e-08
2.30546e-08
2.26702e-08
2.22421e-08
2.17732e-08
2.12662e-08
2.07245e-08
2.01515e-08
1.95505e-08
1.89253e-08
1.82796e-08
1.76171e-08
1.69416e-08
1.62567e-08
1.55659e-08
1.48729e-08
1.41809e-08
1.3493e-08
1.28122e-08
1.21414e-08
1.14829e-08
1.0839e-08
1.02117e-08
9.60288e-09
9.01391e-09
8.44607e-09
7.90036e-09
7.37753e-09
6.87812e-09
6.40246e-09
5.95066e-09
5.52267e-09
5.11828e-09
4.73712e-09
4.3787e-09
4.04242e-09
3.72759e-09
3.43343e-09
3.15912e-09
2.90378e-09
2.66651e-09
2.44638e-09
2.24245e-09
2.0538e-09
1.8795e-09
1.71864e-09
1.57036e-09
1.43379e-09
1.30811e-09
1.19256e-09
1.08638e-09
9.88872e-10
8.99375e-10
8.17269e-10
7.41974e-10
6.72952e-10
6.09701e-10
5.51759e-10
4.98701e-10
4.50132e-10
4.05692e-10
3.65053e-10
3.2791e-10
2.93989e-10
2.63036e-10
2.34822e-10
2.09135e-10
1.85784e-10
1.64591e-10
1.45395e-10
1.28045e-10
1.12405e-10
9.83461e-11
8.57489e-11
7.45022e-11
6.45015e-11
5.56483e-11
4.78494e-11
4.10166e-11
3.50661e-11
2.99183e-11
2.54974e-11
2.17313e-11
1.85515e-11
1.58929e-11
1.36942e-11
1.18973e-11
1.04477e-11
9.29461e-12
8.39066e-12
7.69221e-12
7.15937e-12
6.75602e-12
6.44988e-12
6.21256e-12
6.01957e-12
5.8503e-12
5.68797e-12
5.51949e-12
5.33533e-12
5.12927e-12
4.89808e-12
4.64121e-12
4.36034e-12
4.05896e-12
3.74189e-12
3.41484e-12
3.08395e-12
2.75538e-12
2.43494e-12
2.12787e-12
1.83853e-12
1.57038e-12
1.32581e-12
1.10623e-12
9.12115e-13
7.43092e-13
5.98108e-13
4.75573e-13
3.73519e-13
2.89752e-13
2.21982e-13
1.67938e-13
1.25454e-13
9.25295e-14
6.73758e-14
4.84303e-14
3.43624e-14
2.40637e-14
1.66307e-14
1.13415e-14
7.63046e-15
5.06242e-15
3.30845e-15
2.12381e-15
1.3287e-15
7.91809e-16
4.16564e-16
1.29528e-16
1.16444e-12
3.506e-12
5.88601e-12
8.33085e-12
1.08676e-11
1.35244e-11
1.63305e-11
1.93167e-11
2.25157e-11
2.59622e-11
2.96936e-11
3.375e-11
3.81747e-11
4.30147e-11
4.8321e-11
5.41492e-11
6.05598e-11
6.76188e-11
7.53985e-11
8.39777e-11
9.34424e-11
1.03887e-10
1.15414e-10
1.28136e-10
1.42177e-10
1.57669e-10
1.7476e-10
1.93608e-10
2.14389e-10
2.37289e-10
2.62517e-10
2.90295e-10
3.20865e-10
3.54491e-10
3.91459e-10
4.32075e-10
4.76675e-10
5.25615e-10
5.79285e-10
6.38101e-10
7.02511e-10
7.72994e-10
8.50065e-10
9.34273e-10
1.02621e-09
1.12649e-09
1.23578e-09
1.35479e-09
1.48426e-09
1.62498e-09
1.77778e-09
1.94352e-09
2.12312e-09
2.31752e-09
2.52773e-09
2.75475e-09
2.99967e-09
3.26355e-09
3.54753e-09
3.85275e-09
4.18036e-09
4.53154e-09
4.90744e-09
5.30924e-09
5.73809e-09
6.1951e-09
6.68137e-09
7.19792e-09
7.74573e-09
8.32569e-09
8.9386e-09
9.58514e-09
1.02659e-08
1.09812e-08
1.17313e-08
1.25163e-08
1.33361e-08
1.41901e-08
1.5078e-08
1.59986e-08
1.69509e-08
1.79334e-08
1.89444e-08
1.99817e-08
2.10429e-08
2.21253e-08
2.32256e-08
2.43406e-08
2.54663e-08
2.65987e-08
2.77332e-08
2.88653e-08
2.99897e-08
3.11013e-08
3.21946e-08
3.32638e-08
3.43033e-08
3.5307e-08
3.62691e-08
3.71836e-08
3.80448e-08
3.88468e-08
3.95842e-08
4.02518e-08
4.08446e-08
4.13581e-08
4.17882e-08
4.21314e-08
4.23845e-08
4.25452e-08
4.26115e-08
4.25825e-08
4.24576e-08
4.2237e-08
4.19218e-08
4.15135e-08
4.10146e-08
4.04281e-08
3.97577e-08
3.90075e-08
3.81825e-08
3.72879e-08
3.63294e-08
3.53133e-08
3.42459e-08
3.31339e-08
3.1984e-08
3.0803e-08
2.95978e-08
2.83753e-08
2.71419e-08
2.59041e-08
2.46681e-08
2.34397e-08
2.22244e-08
2.10271e-08
1.98527e-08
1.87051e-08
1.75882e-08
1.65051e-08
1.54586e-08
1.44509e-08
1.3484e-08
1.2559e-08
1.16771e-08
1.08387e-08
1.00439e-08
9.29275e-09
8.58465e-09
7.9189e-09
7.29454e-09
6.7104e-09
6.16514e-09
5.65728e-09
5.18526e-09
4.74739e-09
4.34198e-09
3.96727e-09
3.62151e-09
3.30296e-09
3.00988e-09
2.7406e-09
2.49348e-09
2.26695e-09
2.0595e-09
1.86969e-09
1.69616e-09
1.53762e-09
1.39287e-09
1.26078e-09
1.14029e-09
1.03044e-09
9.30324e-10
8.39104e-10
7.56021e-10
6.80371e-10
6.11514e-10
5.48865e-10
4.91889e-10
4.401e-10
3.93057e-10
3.50358e-10
3.11638e-10
2.76565e-10
2.44839e-10
2.16184e-10
1.9035e-10
1.67107e-10
1.46246e-10
1.27574e-10
1.10911e-10
9.60925e-11
8.29651e-11
7.13855e-11
6.12196e-11
5.23416e-11
4.46336e-11
3.79841e-11
3.22887e-11
2.74485e-11
2.33708e-11
1.99682e-11
1.71587e-11
1.48658e-11
1.30179e-11
1.15488e-11
1.03972e-11
9.50702e-12
8.82716e-12
8.31169e-12
7.91971e-12
7.61543e-12
7.36808e-12
7.15183e-12
6.94574e-12
6.7335e-12
6.50325e-12
6.24724e-12
5.96145e-12
5.64511e-12
5.30023e-12
4.93103e-12
4.54334e-12
4.14407e-12
3.74063e-12
3.34047e-12
2.95061e-12
2.57734e-12
2.22592e-12
1.90046e-12
1.60384e-12
1.33769e-12
1.10254e-12
8.97902e-13
7.22459e-13
5.74253e-13
4.50877e-13
3.49652e-13
2.67793e-13
2.02538e-13
1.51258e-13
1.11533e-13
8.11931e-14
5.83486e-14
4.13903e-14
2.89792e-14
2.00239e-14
1.3653e-14
9.18402e-15
6.09215e-15
3.98082e-15
2.55509e-15
1.59833e-15
9.52399e-16
5.01015e-16
1.55782e-16
1.97017e-12
5.93229e-12
9.96038e-12
1.40997e-11
1.83968e-11
2.28999e-11
2.76593e-11
3.27279e-11
3.81621e-11
4.40216e-11
5.03709e-11
5.7279e-11
6.4821e-11
7.30781e-11
8.21385e-11
9.20985e-11
1.03063e-10
1.15147e-10
1.28475e-10
1.43185e-10
1.59427e-10
1.77364e-10
1.97176e-10
2.1906e-10
2.4323e-10
2.6992e-10
2.99386e-10
3.31907e-10
3.67789e-10
4.07363e-10
4.50989e-10
4.99062e-10
5.52007e-10
6.10288e-10
6.74407e-10
7.44906e-10
8.22374e-10
9.07444e-10
1.0008e-09
1.10318e-09
1.21538e-09
1.33824e-09
1.47268e-09
1.61967e-09
1.78025e-09
1.95553e-09
2.14668e-09
2.35497e-09
2.5817e-09
2.82829e-09
3.09621e-09
3.38699e-09
3.70228e-09
4.04375e-09
4.41317e-09
4.81238e-09
5.24326e-09
5.70776e-09
6.20788e-09
6.74564e-09
7.32312e-09
7.94238e-09
8.60553e-09
9.31462e-09
1.00717e-08
1.08788e-08
1.17377e-08
1.26505e-08
1.36186e-08
1.46438e-08
1.57274e-08
1.68705e-08
1.80742e-08
1.93391e-08
2.06655e-08
2.20535e-08
2.35028e-08
2.50125e-08
2.65814e-08
2.82079e-08
2.98896e-08
3.1624e-08
3.34076e-08
3.52366e-08
3.71063e-08
3.90118e-08
4.09473e-08
4.29063e-08
4.48819e-08
4.68665e-08
4.8852e-08
5.08297e-08
5.27905e-08
5.47247e-08
5.66224e-08
5.84733e-08
6.02669e-08
6.19926e-08
6.36398e-08
6.5198e-08
6.66566e-08
6.80056e-08
6.92354e-08
7.03367e-08
7.13011e-08
7.21207e-08
7.27887e-08
7.3299e-08
7.36468e-08
7.38281e-08
7.38404e-08
7.36823e-08
7.33537e-08
7.28556e-08
7.21906e-08
7.13625e-08
7.03761e-08
6.92377e-08
6.79545e-08
6.65349e-08
6.49883e-08
6.33247e-08
6.1555e-08
5.96906e-08
5.77434e-08
5.57256e-08
5.36496e-08
5.15279e-08
4.93726e-08
4.7196e-08
4.50097e-08
4.28251e-08
4.06528e-08
3.85028e-08
3.63846e-08
3.43066e-08
3.22766e-08
3.03013e-08
2.83869e-08
2.65383e-08
2.47597e-08
2.30545e-08
2.14253e-08
1.98736e-08
1.84007e-08
1.70067e-08
1.56913e-08
1.44537e-08