/*--------------------------------*- C++ -*----------------------------------*\
| =========                 |                                                 |
| \\      /  F ield         | OpenFOAM: The Open Source CFD Toolbox           |
|  \\    /   O peration     | Version:  v2012                                 |
|   \\  /    A nd           | Website:  www.openfoam.com                      |
|    \\/     M anipulation  |                                                 |
\*---------------------------------------------------------------------------*/
FoamFile
{
    version     2.0;
    format      ascii;
    class       volScalarField;
    location    "14.1";
    object      Psi_z;
}
// * * * * * * * * * * * * * * * * * * * * * * * * * * * * * * * * * * * * * //

dimensions      [0 2 -1 0 0 0 0];


internalField   nonuniform List<scalar> 
65536
(
8.65086e-06
2.59532e-05
4.3257e-05
6.05632e-05
7.78727e-05
9.51866e-05
0.000112506
0.000129831
0.000147163
0.000164504
0.000181853
0.000199212
0.000216581
0.000233961
0.000251354
0.000268759
0.000286177
0.000303609
0.000321056
0.000338518
0.000355995
0.000373488
0.000390997
0.000408522
0.000426064
0.000443623
0.000461199
0.000478792
0.000496401
0.000514027
0.000531669
0.000549326
0.000567
0.000584688
0.00060239
0.000620106
0.000637834
0.000655573
0.000673323
0.000691082
0.000708849
0.000726622
0.0007444
0.00076218
0.000779961
0.000797741
0.000815517
0.000833287
0.000851049
0.0008688
0.000886537
0.000904257
0.000921956
0.000939632
0.000957281
0.000974898
0.000992481
0.00101003
0.00102753
0.00104498
0.00106238
0.00107972
0.00109701
0.00111422
0.00113136
0.00114843
0.00116541
0.00118229
0.00119909
0.00121578
0.00123236
0.00124883
0.00126518
0.00128139
0.00129747
0.00131341
0.0013292
0.00134483
0.00136029
0.00137558
0.00139069
0.00140561
0.00142033
0.00143485
0.00144916
0.00146324
0.0014771
0.00149071
0.00150409
0.0015172
0.00153006
0.00154264
0.00155495
0.00156697
0.0015787
0.00159012
0.00160124
0.00161203
0.00162251
0.00163265
0.00164245
0.0016519
0.001661
0.00166974
0.00167812
0.00168612
0.00169375
0.00170099
0.00170784
0.00171431
0.00172037
0.00172603
0.00173128
0.00173613
0.00174056
0.00174457
0.00174817
0.00175135
0.0017541
0.00175643
0.00175833
0.00175981
0.00176086
0.00176149
0.00176169
0.00176146
0.00176081
0.00175974
0.00175825
0.00175634
0.00175402
0.00175128
0.00174813
0.00174458
0.00174063
0.00173627
0.00173153
0.0017264
0.00172088
0.00171498
0.00170872
0.00170208
0.00169509
0.00168774
0.00168004
0.00167201
0.00166363
0.00165493
0.00164591
0.00163657
0.00162693
0.00161699
0.00160675
0.00159624
0.00158544
0.00157437
0.00156305
0.00155146
0.00153963
0.00152756
0.00151526
0.00150274
0.00148999
0.00147704
0.00146389
0.00145054
0.001437
0.00142328
0.00140939
0.00139533
0.00138112
0.00136674
0.00135223
0.00133757
0.00132277
0.00130785
0.00129281
0.00127766
0.00126239
0.00124702
0.00123155
0.00121599
0.00120034
0.0011846
0.00116879
0.00115291
0.00113695
0.00112094
0.00110486
0.00108873
0.00107255
0.00105631
0.00104004
0.00102373
0.00100738
0.000990993
0.000974579
0.000958138
0.000941674
0.000925188
0.000908684
0.000892164
0.000875631
0.000859086
0.000842532
0.000825971
0.000809405
0.000792836
0.000776266
0.000759695
0.000743127
0.000726561
0.000709999
0.000693443
0.000676894
0.000660353
0.000643819
0.000627296
0.000610782
0.00059428
0.000577789
0.00056131
0.000544843
0.000528389
0.000511949
0.000495521
0.000479107
0.000462707
0.000446321
0.000429948
0.000413589
0.000397244
0.000380912
0.000364593
0.000348288
0.000331995
0.000315714
0.000299446
0.000283189
0.000266943
0.000250708
0.000234483
0.000218268
0.000202062
0.000185865
0.000169675
0.000153493
0.000137318
0.000121148
0.000104984
8.88249e-05
7.26695e-05
5.65173e-05
4.03677e-05
2.42199e-05
8.07318e-06
2.59523e-05
7.78585e-05
0.000129769
0.000181687
0.000233615
0.000285556
0.000337512
0.000389487
0.000441484
0.000493504
0.000545551
0.000597627
0.000649734
0.000701874
0.000754051
0.000806266
0.00085852
0.000910816
0.000963156
0.00101554
0.00106797
0.00112045
0.00117298
0.00122555
0.00127818
0.00133086
0.00138358
0.00143636
0.00148919
0.00154207
0.00159499
0.00164797
0.00170099
0.00175405
0.00180716
0.00186031
0.00191349
0.00196671
0.00201997
0.00207324
0.00212655
0.00217987
0.0022332
0.00228654
0.00233989
0.00239323
0.00244656
0.00249988
0.00255316
0.00260642
0.00265963
0.0027128
0.0027659
0.00281893
0.00287188
0.00292474
0.00297749
0.00303012
0.00308263
0.003135
0.0031872
0.00323924
0.00329109
0.00334274
0.00339417
0.00344537
0.00349631
0.00354699
0.00359737
0.00364745
0.00369721
0.00374662
0.00379566
0.00384432
0.00389257
0.00394039
0.00398776
0.00403465
0.00408105
0.00412693
0.00417226
0.00421703
0.00426121
0.00430477
0.0043477
0.00438996
0.00443153
0.00447239
0.00451251
0.00455187
0.00459045
0.00462821
0.00466514
0.00470121
0.0047364
0.00477068
0.00480403
0.00483643
0.00486785
0.00489828
0.00492769
0.00495606
0.00498336
0.0050096
0.00503473
0.00505874
0.00508163
0.00510336
0.00512393
0.00514331
0.00516151
0.00517849
0.00519426
0.0052088
0.00522209
0.00523414
0.00524493
0.00525446
0.00526272
0.00526971
0.00527542
0.00527986
0.00528301
0.00528489
0.00528549
0.00528481
0.00528286
0.00527965
0.00527517
0.00526944
0.00526246
0.00525424
0.0052448
0.00523414
0.00522227
0.00520921
0.00519497
0.00517956
0.00516301
0.00514532
0.00512651
0.00510661
0.00508562
0.00506357
0.00504047
0.00501635
0.00499122
0.00496511
0.00493804
0.00491002
0.00488109
0.00485125
0.00482054
0.00478898
0.00475658
0.00472338
0.00468938
0.00465463
0.00461913
0.00458292
0.00454601
0.00450842
0.00447019
0.00443132
0.00439185
0.0043518
0.00431118
0.00427002
0.00422834
0.00418615
0.00414349
0.00410037
0.00405681
0.00401283
0.00396844
0.00392368
0.00387855
0.00383307
0.00378726
0.00374115
0.00369473
0.00364804
0.00360108
0.00355388
0.00350644
0.00345878
0.00341092
0.00336286
0.00331463
0.00326623
0.00321768
0.00316898
0.00312016
0.00307121
0.00302216
0.002973
0.00292376
0.00287443
0.00282504
0.00277558
0.00272606
0.0026765
0.0026269
0.00257726
0.0025276
0.00247791
0.00242821
0.00237851
0.00232879
0.00227908
0.00222937
0.00217967
0.00212999
0.00208032
0.00203067
0.00198104
0.00193144
0.00188187
0.00183233
0.00178282
0.00173335
0.00168391
0.00163451
0.00158515
0.00153583
0.00148655
0.00143731
0.0013881
0.00133895
0.00128983
0.00124075
0.00119172
0.00114272
0.00109376
0.00104485
0.00099597
0.000947129
0.000898324
0.000849553
0.000800817
0.000752112
0.000703439
0.000654794
0.000606177
0.000557585
0.000509018
0.000460472
0.000411946
0.000363439
0.000314948
0.00026647
0.000218005
0.000169549
0.000121101
7.26586e-05
2.42191e-05
4.32523e-05
0.000129759
0.000216274
0.0003028
0.000389344
0.000475909
0.0005625
0.000649122
0.00073578
0.000822478
0.00090922
0.00099601
0.00108285
0.00116975
0.00125671
0.00134373
0.00143082
0.00151798
0.00160521
0.00169252
0.0017799
0.00186736
0.00195491
0.00204253
0.00213024
0.00221804
0.00230592
0.00239388
0.00248193
0.00257006
0.00265827
0.00274656
0.00283493
0.00292338
0.00301189
0.00310047
0.00318912
0.00327782
0.00336658
0.00345538
0.00354422
0.0036331
0.00372199
0.0038109
0.00389982
0.00398873
0.00407762
0.00416649
0.00425531
0.00434408
0.00443278
0.00452139
0.00460991
0.00469831
0.00478657
0.00487468
0.00496261
0.00505035
0.00513788
0.00522517
0.0053122
0.00539894
0.00548538
0.00557148
0.00565721
0.00574256
0.00582749
0.00591196
0.00599596
0.00607945
0.0061624
0.00624477
0.00632653
0.00640765
0.00648809
0.00656781
0.00664679
0.00672497
0.00680232
0.00687881
0.0069544
0.00702904
0.0071027
0.00717533
0.0072469
0.00731736
0.00738667
0.0074548
0.0075217
0.00758733
0.00765165
0.00771462
0.00777619
0.00783634
0.00789501
0.00795217
0.00800778
0.0080618
0.0081142
0.00816493
0.00821397
0.00826127
0.00830681
0.00835055
0.00839245
0.0084325
0.00847066
0.00850689
0.00854119
0.00857352
0.00860385
0.00863217
0.00865846
0.0086827
0.00870487
0.00872496
0.00874296
0.00875885
0.00877262
0.00878427
0.00879379
0.00880118
0.00880644
0.00880957
0.00881056
0.00880943
0.00880618
0.00880081
0.00879334
0.00878378
0.00877214
0.00875844
0.00874268
0.0087249
0.00870511
0.00868333
0.00865958
0.00863389
0.00860628
0.00857678
0.00854541
0.00851222
0.00847721
0.00844044
0.00840192
0.0083617
0.0083198
0.00827626
0.00823111
0.00818439
0.00813614
0.00808639
0.00803518
0.00798255
0.00792853
0.00787317
0.00781649
0.00775854
0.00769935
0.00763897
0.00757743
0.00751476
0.00745101
0.00738621
0.00732041
0.00725362
0.0071859
0.00711727
0.00704778
0.00697745
0.00690633
0.00683444
0.00676181
0.00668849
0.0066145
0.00653987
0.00646463
0.00638881
0.00631245
0.00623557
0.0061582
0.00608036
0.00600208
0.00592339
0.0058443
0.00576486
0.00568507
0.00560497
0.00552456
0.00544389
0.00536295
0.00528178
0.00520039
0.0051188
0.00503704
0.0049551
0.00487302
0.0047908
0.00470846
0.00462602
0.00454349
0.00446088
0.0043782
0.00429546
0.00421268
0.00412987
0.00404703
0.00396418
0.00388132
0.00379846
0.00371561
0.00363277
0.00354996
0.00346717
0.00338442
0.00330171
0.00321904
0.00313642
0.00305385
0.00297133
0.00288888
0.00280648
0.00272414
0.00264187
0.00255967
0.00247753
0.00239546
0.00231346
0.00223153
0.00214967
0.00206787
0.00198615
0.00190449
0.0018229
0.00174137
0.00165991
0.00157851
0.00149717
0.00141588
0.00133466
0.00125349
0.00117236
0.00109129
0.00101027
0.000929282
0.000848338
0.000767431
0.000686557
0.000605714
0.000524897
0.000444104
0.00036333
0.000282573
0.000201829
0.000121094
4.0364e-05
6.05498e-05
0.000181653
0.000302766
0.000423897
0.000545051
0.000666235
0.000787457
0.000908721
0.00103004
0.00115141
0.00127284
0.00139434
0.00151591
0.00163757
0.00175931
0.00188113
0.00200305
0.00212507
0.00224719
0.00236942
0.00249175
0.0026142
0.00273676
0.00285943
0.00298222
0.00310514
0.00322817
0.00335132
0.00347458
0.00359797
0.00372147
0.00384508
0.0039688
0.00409263
0.00421655
0.00434058
0.00446469
0.00458888
0.00471315
0.00483748
0.00496187
0.0050863
0.00521077
0.00533526
0.00545976
0.00558425
0.00570871
0.00583314
0.00595751
0.00608181
0.00620601
0.00633009
0.00645404
0.00657782
0.00670141
0.00682479
0.00694793
0.00707079
0.00719336
0.0073156
0.00743747
0.00755895
0.00768
0.00780057
0.00792064
0.00804017
0.00815911
0.00827742
0.00839506
0.00851199
0.00862817
0.00874353
0.00885805
0.00897166
0.00908433
0.00919599
0.00930661
0.00941611
0.00952447
0.00963161
0.00973748
0.00984203
0.00994521
0.010047
0.0101472
0.0102459
0.010343
0.0104384
0.0105322
0.0106241
0.0107142
0.0108024
0.0108887
0.0109729
0.0110551
0.0111352
0.0112131
0.0112888
0.0113622
0.0114333
0.011502
0.0115683
0.011632
0.0116933
0.011752
0.0118081
0.0118616
0.0119124
0.0119604
0.0120057
0.0120482
0.0120879
0.0121247
0.0121587
0.0121897
0.0122179
0.0122431
0.0122653
0.0122846
0.012301
0.0123143
0.0123246
0.012332
0.0123364
0.0123378
0.0123362
0.0123316
0.0123241
0.0123136
0.0123002
0.0122839
0.0122647
0.0122426
0.0122177
0.0121899
0.0121594
0.0121261
0.0120901
0.0120514
0.0120101
0.0119661
0.0119196
0.0118706
0.0118191
0.0117651
0.0117087
0.01165
0.011589
0.0115258
0.0114603
0.0113927
0.011323
0.0112513
0.0111775
0.0111018
0.0110243
0.0109449
0.0108637
0.0107808
0.0106962
0.01061
0.0105222
0.0104329
0.0103421
0.0102499
0.0101564
0.0100615
0.0099654
0.00986806
0.00976956
0.00966993
0.00956924
0.00946752
0.00936482
0.00926119
0.00915666
0.00905129
0.00894511
0.00883816
0.00873049
0.00862213
0.00851311
0.00840349
0.00829329
0.00818254
0.00807128
0.00795955
0.00784737
0.00773478
0.0076218
0.00750846
0.0073948
0.00728083
0.00716658
0.00705208
0.00693735
0.00682241
0.00670729
0.006592
0.00647656
0.006361
0.00624532
0.00612956
0.00601371
0.00589781
0.00578185
0.00566587
0.00554986
0.00543384
0.00531783
0.00520183
0.00508585
0.00496991
0.004854
0.00473814
0.00462234
0.00450659
0.00439092
0.00427531
0.00415979
0.00404434
0.00392898
0.00381371
0.00369853
0.00358344
0.00346845
0.00335355
0.00323875
0.00312405
0.00300944
0.00289493
0.00278051
0.00266619
0.00255197
0.00243783
0.00232378
0.00220983
0.00209595
0.00198216
0.00186845
0.00175481
0.00164124
0.00152775
0.00141431
0.00130094
0.00118762
0.00107436
0.000961138
0.000847961
0.000734823
0.000621717
0.00050864
0.000395585
0.000282548
0.000169524
5.65071e-05
7.78439e-05
0.000233536
0.000389242
0.000544969
0.000700727
0.000856524
0.00101237
0.00116827
0.00132424
0.00148027
0.00163639
0.0017926
0.0019489
0.0021053
0.00226181
0.00241844
0.00257518
0.00273206
0.00288906
0.0030462
0.00320349
0.00336091
0.00351849
0.00367621
0.00383408
0.00399211
0.0041503
0.00430863
0.00446712
0.00462576
0.00478455
0.00494349
0.00510256
0.00526178
0.00542112
0.00558059
0.00574017
0.00589986
0.00605965
0.00621952
0.00637947
0.00653947
0.00669952
0.0068596
0.0070197
0.00717978
0.00733984
0.00749985
0.00765979
0.00781963
0.00797935
0.00813893
0.00829832
0.00845751
0.00861646
0.00877514
0.00893351
0.00909154
0.00924918
0.00940639
0.00956315
0.00971939
0.00987508
0.0100302
0.0101846
0.0103384
0.0104914
0.0106435
0.0107949
0.0109453
0.0110947
0.0112431
0.0113905
0.0115366
0.0116816
0.0118252
0.0119675
0.0121084
0.0122478
0.0123857
0.0125219
0.0126564
0.0127892
0.0129201
0.0130491
0.0131761
0.013301
0.0134238
0.0135444
0.0136627
0.0137786
0.0138922
0.0140032
0.0141116
0.0142174
0.0143204
0.0144207
0.0145181
0.0146125
0.014704
0.0147924
0.0148777
0.0149598
0.0150387
0.0151142
0.0151864
0.0152552
0.0153206
0.0153824
0.0154407
0.0154954
0.0155465
0.0155939
0.0156376
0.0156775
0.0157137
0.0157462
0.0157748
0.0157996
0.0158206
0.0158378
0.0158511
0.0158606
0.0158662
0.0158679
0.0158659
0.01586
0.0158503
0.0158368
0.0158195
0.0157985
0.0157738
0.0157454
0.0157133
0.0156776
0.0156383
0.0155954
0.0155491
0.0154992
0.015446
0.0153895
0.0153296
0.0152664
0.0152001
0.0151306
0.0150581
0.0149825
0.014904
0.0148226
0.0147384
0.0146513
0.0145616
0.0144693
0.0143744
0.014277
0.0141772
0.014075
0.0139706
0.0138639
0.013755
0.0136441
0.0135311
0.0134162
0.0132994
0.0131808
0.0130605
0.0129384
0.0128147
0.0126895
0.0125628
0.0124346
0.0123051
0.0121742
0.0120421
0.0119088
0.0117743
0.0116388
0.0115022
0.0113646
0.0112261
0.0110867
0.0109465
0.0108055
0.0106637
0.0105213
0.0103782
0.0102345
0.0100902
0.00994538
0.00980007
0.00965431
0.00950812
0.00936155
0.00921462
0.00906736
0.00891981
0.008772
0.00862394
0.00847568
0.00832723
0.00817861
0.00802986
0.00788099
0.00773202
0.00758298
0.00743387
0.00728473
0.00713555
0.00698637
0.00683719
0.00668803
0.0065389
0.00638981
0.00624078
0.0060918
0.0059429
0.00579408
0.00564534
0.0054967
0.00534816
0.00519973
0.0050514
0.00490319
0.0047551
0.00460712
0.00445927
0.00431154
0.00416394
0.00401647
0.00386911
0.00372189
0.00357478
0.0034278
0.00328094
0.0031342
0.00298757
0.00284106
0.00269466
0.00254836
0.00240216
0.00225606
0.00211005
0.00196413
0.0018183
0.00167254
0.00152685
0.00138123
0.00123568
0.00109017
0.000944716
0.000799303
0.000653926
0.000508579
0.000363254
0.000217946
7.26476e-05
9.51335e-05
0.000285406
0.000475695
0.000666011
0.000856364
0.00104677
0.00123723
0.00142775
0.00161836
0.00180906
0.00199985
0.00219076
0.00238178
0.00257292
0.0027642
0.00295562
0.00314719
0.00333891
0.0035308
0.00372285
0.00391508
0.00410748
0.00430007
0.00449283
0.00468579
0.00487894
0.00507227
0.00526579
0.0054595
0.0056534
0.00584749
0.00604175
0.00623619
0.00643079
0.00662556
0.00682048
0.00701555
0.00721074
0.00740606
0.00760149
0.00779701
0.0079926
0.00818825
0.00838394
0.00857964
0.00877534
0.00897101
0.00916663
0.00936216
0.00955757
0.00975285
0.00994794
0.0101428
0.0103374
0.0105318
0.0107258
0.0109194
0.0111127
0.0113054
0.0114977
0.0116893
0.0118804
0.0120708
0.0122604
0.0124493
0.0126373
0.0128244
0.0130105
0.0131956
0.0133796
0.0135623
0.0137438
0.013924
0.0141028
0.0142801
0.0144558
0.0146299
0.0148022
0.0149727
0.0151413
0.015308
0.0154725
0.0156349
0.0157951
0.0159529
0.0161083
0.0162611
0.0164114
0.0165589
0.0167037
0.0168455
0.0169844
0.0171202
0.0172529
0.0173823
0.0175084
0.0176311
0.0177503
0.0178659
0.0179778
0.018086
0.0181903
0.0182908
0.0183873
0.0184798
0.0185681
0.0186523
0.0187323
0.018808
0.0188793
0.0189462
0.0190087
0.0190667
0.0191202
0.0191691
0.0192134
0.0192531
0.0192881
0.0193185
0.0193441
0.0193651
0.0193814
0.019393
0.0193998
0.019402
0.0193994
0.0193922
0.0193803
0.0193638
0.0193426
0.0193169
0.0192866
0.0192518
0.0192125
0.0191688
0.0191206
0.0190682
0.0190114
0.0189505
0.0188853
0.0188161
0.0187428
0.0186655
0.0185843
0.0184993
0.0184105
0.018318
0.0182219
0.0181223
0.0180192
0.0179127
0.0178029
0.0176899
0.0175738
0.0174546
0.0173325
0.0172075
0.0170797
0.0169491
0.0168159
0.0166802
0.016542
0.0164015
0.0162586
0.0161135
0.0159662
0.0158169
0.0156656
0.0155125
0.0153574
0.0152007
0.0150422
0.0148822
0.0147206
0.0145575
0.0143931
0.0142273
0.0140602
0.013892
0.0137226
0.0135521
0.0133806
0.0132082
0.0130349
0.0128607
0.0126857
0.01251
0.0123335
0.0121565
0.0119788
0.0118006
0.0116218
0.0114426
0.011263
0.0110829
0.0109025
0.0107218
0.0105408
0.0103595
0.0101781
0.00999637
0.00981452
0.00963253
0.00945042
0.00926821
0.00908594
0.00890361
0.00872126
0.00853889
0.00835654
0.0081742
0.00799191
0.00780967
0.00762749
0.00744539
0.00726339
0.00708148
0.00689968
0.00671799
0.00653643
0.006355
0.00617371
0.00599255
0.00581154
0.00563068
0.00544997
0.00526941
0.00508901
0.00490876
0.00472867
0.00454872
0.00436893
0.00418929
0.0040098
0.00383046
0.00365125
0.00347219
0.00329326
0.00311445
0.00293578
0.00275722
0.00257878
0.00240044
0.00222221
0.00204407
0.00186602
0.00168805
0.00151016
0.00133233
0.00115457
0.000976853
0.000799183
0.000621549
0.000443944
0.000266358
8.87847e-05
0.000112418
0.00033726
0.000562121
0.000787014
0.00101195
0.00123695
0.00146201
0.00168716
0.0019124
0.00213775
0.00236321
0.0025888
0.00281453
0.00304041
0.00326645
0.00349265
0.00371904
0.0039456
0.00417236
0.00439932
0.00462649
0.00485387
0.00508146
0.00530927
0.00553731
0.00576557
0.00599405
0.00622276
0.0064517
0.00668086
0.00691024
0.00713984
0.00736964
0.00759965
0.00782985
0.00806023
0.00829079
0.0085215
0.00875237
0.00898336
0.00921447
0.00944566
0.00967693
0.00990825
0.0101396
0.0103709
0.0106022
0.0108335
0.0110646
0.0112957
0.0115265
0.0117572
0.0119876
0.0122177
0.0124474
0.0126768
0.0129058
0.0131342
0.0133622
0.0135895
0.0138161
0.0140421
0.0142672
0.0144915
0.0147148
0.0149372
0.0151584
0.0153786
0.0155974
0.015815
0.0160312
0.0162459
0.016459
0.0166705
0.0168802
0.017088
0.0172939
0.0174978
0.0176995
0.017899
0.0180962
0.0182908
0.018483
0.0186725
0.0188592
0.019043
0.0192239
0.0194016
0.0195762
0.0197475
0.0199154
0.0200797
0.0202404
0.0203974
0.0205506
0.0206998
0.020845
0.0209861
0.0211229
0.0212553
0.0213834
0.0215069
0.0216258
0.02174
0.0218494
0.021954
0.0220537
0.0221483
0.0222378
0.0223222
0.0224015
0.0224754
0.022544
0.0226073
0.0226652
0.0227176
0.0227646
0.022806
0.022842
0.0228723
0.0228972
0.0229164
0.0229301
0.0229382
0.0229407
0.0229376
0.0229291
0.022915
0.0228954
0.0228703
0.0228398
0.0228039
0.0227627
0.0227161
0.0226644
0.0226074
0.0225452
0.0224781
0.0224059
0.0223287
0.0222467
0.0221599
0.0220685
0.0219723
0.0218717
0.0217666
0.0216571
0.0215433
0.0214254
0.0213034
0.0211774
0.0210474
0.0209137
0.0207763
0.0206352
0.0204907
0.0203427
0.0201915
0.020037
0.0198794
0.0197188
0.0195553
0.019389
0.0192199
0.0190483
0.0188741
0.0186974
0.0185185
0.0183372
0.0181539
0.0179684
0.017781
0.0175916
0.0174005
0.0172076
0.0170131
0.016817
0.0166195
0.0164205
0.0162202
0.0160186
0.0158158
0.0156119
0.0154069
0.0152009
0.014994
0.0147862
0.0145776
0.0143682
0.0141581
0.0139474
0.013736
0.0135241
0.0133117
0.0130989
0.0128856
0.0126719
0.0124579
0.0122436
0.0120291
0.0118143
0.0115993
0.0113842
0.0111689
0.0109535
0.010738
0.0105225
0.010307
0.0100914
0.00987586
0.00966034
0.00944487
0.00922946
0.00901413
0.0087989
0.00858377
0.00836877
0.00815389
0.00793916
0.00772457
0.00751014
0.00729587
0.00708177
0.00686784
0.00665409
0.00644052
0.00622713
0.00601393
0.0058009
0.00558806
0.00537541
0.00516293
0.00495064
0.00473852
0.00452657
0.00431479
0.00410318
0.00389173
0.00368043
0.00346927
0.00325827
0.00304739
0.00283665
0.00262602
0.00241551
0.00220511
0.0019948
0.00178458
0.00157444
0.00136437
0.00115436
0.000944404
0.000734492
0.000524613
0.000314758
0.000104918
0.000129696
0.000389094
0.000648515
0.000907973
0.00116748
0.00142706
0.00168672
0.00194647
0.00220633
0.00246632
0.00272644
0.00298671
0.00324714
0.00350774
0.00376853
0.00402951
0.0042907
0.0045521
0.00481373
0.00507559
0.00533769
0.00560004
0.00586263
0.00612549
0.0063886
0.00665197
0.00691561
0.00717951
0.00744367
0.0077081
0.00797278
0.00823771
0.00850289
0.0087683
0.00903395
0.0092998
0.00956587
0.00983212
0.0100985
0.0103651
0.0106318
0.0108987
0.0111656
0.0114325
0.0116995
0.0119666
0.0122335
0.0125004
0.0127672
0.0130339
0.0133004
0.0135666
0.0138326
0.0140982
0.0143635
0.0146283
0.0148926
0.0151564
0.0154195
0.015682
0.0159436
0.0162045
0.0164645
0.0167234
0.0169813
0.0172381
0.0174936
0.0177478
0.0180006
0.0182519
0.0185015
0.0187495
0.0189956
0.0192399
0.0194821
0.0197222
0.01996
0.0201955
0.0204286
0.020659
0.0208868
0.0211117
0.0213337
0.0215526
0.0217683
0.0219807
0.0221897
0.0223951
0.0225968
0.0227948
0.0229887
0.0231787
0.0233644
0.0235458
0.0237228
0.0238953
0.0240631
0.0242261
0.0243842
0.0245373
0.0246853
0.024828
0.0249655
0.0250975
0.025224
0.0253448
0.02546
0.0255694
0.0256729
0.0257704
0.025862
0.0259474
0.0260268
0.0260999
0.0261668
0.0262274
0.0262816
0.0263295
0.026371
0.0264061
0.0264348
0.026457
0.0264727
0.0264821
0.026485
0.0264814
0.0264715
0.0264551
0.0264324
0.0264034
0.0263681
0.0263266
0.0262789
0.0262251
0.0261651
0.0260992
0.0260274
0.0259497
0.0258662
0.025777
0.0256822
0.0255818
0.025476
0.0253649
0.0252485
0.025127
0.0250005
0.024869
0.0247326
0.0245916
0.0244459
0.0242957
0.0241412
0.0239823
0.0238193
0.0236523
0.0234813
0.0233065
0.023128
0.0229459
0.0227603
0.0225714
0.0223792
0.0221839
0.0219856
0.0217843
0.0215803
0.0213735
0.0211642
0.0209523
0.0207381
0.0205216
0.0203029
0.0200822
0.0198594
0.0196348
0.0194083
0.0191801
0.0189503
0.018719
0.0184862
0.018252
0.0180166
0.0177799
0.017542
0.0173031
0.0170632
0.0168223
0.0165806
0.016338
0.0160947
0.0158508
0.0156061
0.0153609
0.0151152
0.014869
0.0146224
0.0143754
0.014128
0.0138803
0.0136324
0.0133843
0.013136
0.0128875
0.0126389
0.0123902
0.0121415
0.0118927
0.0116439
0.0113952
0.0111464
0.0108978
0.0106492
0.0104007
0.0101523
0.00990404
0.00965593
0.00940797
0.00916018
0.00891256
0.00866512
0.00841787
0.00817082
0.00792397
0.00767732
0.00743089
0.00718467
0.00693866
0.00669286
0.00644728
0.00620191
0.00595675
0.0057118
0.00546706
0.00522252
0.00497817
0.00473401
0.00449004
0.00424625
0.00400263
0.00375918
0.00351588
0.00327273
0.00302972
0.00278685
0.00254409
0.00230145
0.00205891
0.00181647
0.0015741
0.00133181
0.00108958
0.000847401
0.000605259
0.000363144
0.000121046
0.000146966
0.000440906
0.000734872
0.00102888
0.00132295
0.00161709
0.00191133
0.00220567
0.00250014
0.00279475
0.00308951
0.00338445
0.00367957
0.00397488
0.00427041
0.00456616
0.00486214
0.00515838
0.00545486
0.00575162
0.00604864
0.00634595
0.00664355
0.00694144
0.00723962
0.00753811
0.0078369
0.00813599
0.00843539
0.00873508
0.00903506
0.00933534
0.0096359
0.00993673
0.0102378
0.0105392
0.0108408
0.0111426
0.0114446
0.0117467
0.0120491
0.0123516
0.0126541
0.0129568
0.0132595
0.0135622
0.0138649
0.0141675
0.01447
0.0147723
0.0150745
0.0153764
0.015678
0.0159792
0.01628
0.0165803
0.01688
0.0171791
0.0174775
0.0177752
0.018072
0.0183679
0.0186627
0.0189565
0.019249
0.0195403
0.0198301
0.0201185
0.0204053
0.0206903
0.0209736
0.0212549
0.0215342
0.0218113
0.0220862
0.0223586
0.0226285
0.0228958
0.0231602
0.0234217
0.0236802
0.0239355
0.0241874
0.0244359
0.0246808
0.0249219
0.0251591
0.0253923
0.0256213
0.025846
0.0260662
0.0262818
0.0264927
0.0266986
0.0268996
0.0270954
0.0272859
0.027471
0.0276505
0.0278244
0.0279924
0.0281545
0.0283106
0.0284605
0.0286041
0.0287413
0.0288721
0.0289963
0.0291138
0.0292246
0.0293286
0.0294256
0.0295157
0.0295987
0.0296746
0.0297434
0.029805
0.0298594
0.0299065
0.0299463
0.0299788
0.030004
0.0300219
0.0300324
0.0300357
0.0300316
0.0300202
0.0300016
0.0299758
0.0299428
0.0299027
0.0298555
0.0298012
0.02974
0.0296719
0.029597
0.0295154
0.0294271
0.0293322
0.0292309
0.0291231
0.0290091
0.028889
0.0287627
0.0286306
0.0284925
0.0283488
0.0281994
0.0280446
0.0278844
0.027719
0.0275484
0.0273729
0.0271926
0.0270075
0.0268178
0.0266237
0.0264253
0.0262226
0.0260159
0.0258052
0.0255908
0.0253726
0.0251509
0.0249258
0.0246974
0.0244658
0.0242312
0.0239936
0.0237532
0.0235101
0.0232645
0.0230163
0.0227658
0.0225131
0.0222582
0.0220013
0.0217424
0.0214817
0.0212193
0.0209552
0.0206896
0.0204225
0.020154
0.0198842
0.0196133
0.0193411
0.019068
0.0187938
0.0185187
0.0182428
0.0179661
0.0176887
0.0174107
0.0171321
0.0168529
0.0165732
0.0162931
0.0160127
0.0157319
0.0154508
0.0151695
0.0148879
0.0146062
0.0143244
0.0140425
0.0137605
0.0134784
0.0131964
0.0129144
0.0126325
0.0123506
0.0120688
0.0117871
0.0115056
0.0112242
0.0109429
0.0106619
0.010381
0.0101004
0.00981991
0.00953967
0.00925966
0.00897989
0.00870035
0.00842105
0.00814199
0.00786318
0.00758461
0.00730629
0.00702821
0.00675037
0.00647277
0.0061954
0.00591827
0.00564135
0.00536466
0.00508818
0.0048119
0.00453582
0.00425993
0.00398422
0.00370868
0.00343329
0.00315806
0.00288297
0.00260801
0.00233316
0.00205842
0.00178377
0.00150921
0.00123471
0.000960271
0.000685876
0.000411513
0.000137169
0.000164228
0.000492692
0.000821186
0.00114973
0.00147834
0.00180703
0.00213583
0.00246475
0.00279381
0.00312303
0.00345242
0.00378201
0.0041118
0.00444181
0.00477207
0.00510257
0.00543334
0.00576439
0.00609573
0.00642737
0.00675931
0.00709158
0.00742417
0.00775709
0.00809035
0.00842395
0.00875789
0.00909217
0.0094268
0.00976176
0.0100971
0.0104327
0.0107686
0.0111049
0.0114415
0.0117783
0.0121154
0.0124528
0.0127904
0.0131282
0.0134662
0.0138044
0.0141426
0.014481
0.0148194
0.0151579
0.0154963
0.0158347
0.0161729
0.016511
0.0168488
0.0171864
0.0175237
0.0178605
0.0181969
0.0185328
0.018868
0.0192026
0.0195364
0.0198693
0.0202013
0.0205322
0.0208621
0.0211907
0.021518
0.0218438
0.0221681
0.0224907
0.0228116
0.0231306
0.0234476
0.0237624
0.0240749
0.024385
0.0246926
0.0249975
0.0252996
0.0255988
0.0258948
0.0261875
0.0264768
0.0267626
0.0270447
0.0273228
0.027597
0.0278669
0.0281325
0.0283936
0.02865
0.0289016
0.0291482
0.0293896
0.0296258
0.0298565
0.0300815
0.0303008
0.0305142
0.0307215
0.0309225
0.0311172
0.0313055
0.031487
0.0316618
0.0318297
0.0319906
0.0321443
0.0322908
0.0324299
0.0325616
0.0326856
0.0328021
0.0329108
0.0330116
0.0331046
0.0331897
0.0332667
0.0333357
0.0333965
0.0334493
0.0334938
0.0335302
0.0335584
0.0335783
0.0335901
0.0335937
0.033589
0.0335763
0.0335554
0.0335264
0.0334893
0.0334443
0.0333914
0.0333305
0.0332619
0.0331856
0.0331016
0.0330101
0.0329111
0.0328047
0.0326911
0.0325704
0.0324426
0.032308
0.0321665
0.0320184
0.0318637
0.0317027
0.0315354
0.0313619
0.0311824
0.0309971
0.0308061
0.0306095
0.0304075
0.0302002
0.0299878
0.0297704
0.0295482
0.0293213
0.0290898
0.0288539
0.0286138
0.0283696
0.0281214
0.0278694
0.0276137
0.0273544
0.0270918
0.0268259
0.0265568
0.0262847
0.0260098
0.0257321
0.0254518
0.0251689
0.0248837
0.0245962
0.0243066
0.0240149
0.0237213
0.0234258
0.0231286
0.0228298
0.0225294
0.0222277
0.0219245
0.0216202
0.0213146
0.0210079
0.0207003
0.0203917
0.0200822
0.019772
0.019461
0.0191494
0.0188372
0.0185245
0.0182113
0.0178977
0.0175837
0.0172694
0.0169548
0.01664
0.0163251
0.01601
0.0156947
0.0153795
0.0150642
0.0147489
0.0144336
0.0141184
0.0138033
0.0134883
0.0131734
0.0128587
0.0125441
0.0122298
0.0119156
0.0116017
0.011288
0.0109745
0.0106613
0.0103483
0.0100356
0.00972313
0.00941096
0.00909907
0.00878745
0.00847611
0.00816505
0.00785426
0.00754375
0.0072335
0.00692352
0.00661379
0.00630432
0.0059951
0.00568611
0.00537736
0.00506883
0.00476051
0.00445239
0.00414446
0.00383672
0.00352914
0.00322172
0.00291444
0.0026073
0.00230028
0.00199336
0.00168653
0.00137978
0.0010731
0.000766462
0.000459863
0.000153285
0.00018148
0.00054445
0.000907452
0.00127051
0.00163364
0.00199686
0.0023602
0.00272368
0.00308732
0.00345113
0.00381513
0.00417935
0.00454381
0.00490851
0.00527347
0.00563872
0.00600426
0.00637012
0.0067363
0.00710281
0.00746967
0.00783688
0.00820446
0.00857241
0.00894073
0.00930944
0.00967853
0.010048
0.0104179
0.0107881
0.0111587
0.0115297
0.0119011
0.0122728
0.0126448
0.0130172
0.0133898
0.0137628
0.014136
0.0145095
0.0148832
0.015257
0.015631
0.0160052
0.0163793
0.0167536
0.0171278
0.0175019
0.017876
0.0182498
0.0186235
0.0189968
0.0193698
0.0197424
0.0201144
0.0204859
0.0208567
0.0212268
0.021596
0.0219643
0.0223316
0.0226977
0.0230627
0.0234262
0.0237883
0.0241489
0.0245077
0.0248648
0.0252199
0.0255729
0.0259237
0.0262721
0.026618
0.0269613
0.0273018
0.0276393
0.0279737
0.0283049
0.0286326
0.0289567
0.029277
0.0295935
0.0299058
0.0302138
0.0305174
0.0308163
0.0311105
0.0313996
0.0316836
0.0319622
0.0322354
0.0325028
0.0327644
0.0330199
0.0332692
0.0335122
0.0337485
0.0339782
0.0342009
0.0344166
0.0346252
0.0348263
0.03502
0.035206
0.0353842
0.0355546
0.0357169
0.035871
0.0360168
0.0361543
0.0362833
0.0364037
0.0365155
0.0366185
0.0367127
0.036798
0.0368744
0.0369418
0.0370002
0.0370495
0.0370898
0.0371209
0.037143
0.037156
0.0371598
0.0371547
0.0371404
0.0371172
0.037085
0.0370439
0.0369939
0.0369351
0.0368676
0.0367915
0.0367068
0.0366137
0.0365122
0.0364024
0.0362845
0.0361585
0.0360247
0.0358831
0.0357338
0.035577
0.0354128
0.0352414
0.0350629
0.0348774
0.0346852
0.0344864
0.034281
0.0340694
0.0338516
0.0336278
0.0333981
0.0331628
0.032922
0.0326758
0.0324245
0.0321681
0.0319069
0.031641
0.0313705
0.0310957
0.0308166
0.0305335
0.0302464
0.0299556
0.0296612
0.0293634
0.0290622
0.0287578
0.0284505
0.0281402
0.0278271
0.0275115
0.0271933
0.0268728
0.02655
0.026225
0.0258981
0.0255693
0.0252386
0.0249063
0.0245724
0.0242371
0.0239003
0.0235623
0.0232231
0.0228828
0.0225414
0.0221991
0.021856
0.021512
0.0211674
0.0208221
0.0204762
0.0201299
0.019783
0.0194358
0.0190883
0.0187404
0.0183923
0.018044
0.0176956
0.0173471
0.0169985