/*--------------------------------*- C++ -*----------------------------------*\
| =========                 |                                                 |
| \\      /  F ield         | OpenFOAM: The Open Source CFD Toolbox           |
|  \\    /   O peration     | Version:  v2012                                 |
|   \\  /    A nd           | Website:  www.openfoam.com                      |
|    \\/     M anipulation  |                                                 |
\*---------------------------------------------------------------------------*/
FoamFile
{
    version     2.0;
    format      ascii;
    class       volScalarField;
    location    "14.1";
    object      W;
}
// * * * * * * * * * * * * * * * * * * * * * * * * * * * * * * * * * * * * * //

dimensions      [0 0 -1 0 0 0 0];


internalField   nonuniform List<scalar> 
65536
(
9.50535e-17
2.86545e-16
4.82234e-16
6.85019e-16
8.97905e-16
1.12403e-15
1.3667e-15
1.62945e-15
1.91604e-15
2.23056e-15
2.57746e-15
2.96157e-15
3.38821e-15
3.86318e-15
4.39292e-15
4.98447e-15
5.64564e-15
6.38504e-15
7.21215e-15
8.13749e-15
9.17262e-15
1.03303e-14
1.16248e-14
1.30714e-14
1.46874e-14
1.64917e-14
1.85048e-14
2.07498e-14
2.32514e-14
2.60372e-14
2.91372e-14
3.25841e-14
3.64139e-14
4.06657e-14
4.53821e-14
5.06095e-14
5.63983e-14
6.28033e-14
6.98837e-14
7.77037e-14
8.63324e-14
9.58446e-14
1.06321e-13
1.17847e-13
1.30516e-13
1.44427e-13
1.59686e-13
1.76406e-13
1.94708e-13
2.14719e-13
2.36575e-13
2.60418e-13
2.86401e-13
3.14681e-13
3.45426e-13
3.7881e-13
4.15016e-13
4.54232e-13
4.96656e-13
5.42491e-13
5.91946e-13
6.45236e-13
7.02582e-13
7.64206e-13
8.30336e-13
9.012e-13
9.77028e-13
1.05805e-12
1.14449e-12
1.23657e-12
1.33452e-12
1.43853e-12
1.54881e-12
1.66556e-12
1.78894e-12
1.91911e-12
2.05623e-12
2.20041e-12
2.35175e-12
2.51032e-12
2.67617e-12
2.84931e-12
3.02974e-12
3.2174e-12
3.4122e-12
3.61402e-12
3.8227e-12
4.03802e-12
4.25976e-12
4.48761e-12
4.72124e-12
4.96028e-12
5.20431e-12
5.45286e-12
5.70544e-12
5.96148e-12
6.22042e-12
6.48163e-12
6.74445e-12
7.00821e-12
7.27218e-12
7.53564e-12
7.79781e-12
8.05792e-12
8.31519e-12
8.56883e-12
8.81802e-12
9.06198e-12
9.29991e-12
9.53104e-12
9.7546e-12
9.96985e-12
1.01761e-11
1.03725e-11
1.05586e-11
1.07337e-11
1.08972e-11
1.10486e-11
1.11873e-11
1.1313e-11
1.14252e-11
1.15235e-11
1.16076e-11
1.16774e-11
1.17325e-11
1.17729e-11
1.17984e-11
1.1809e-11
1.18046e-11
1.17853e-11
1.17512e-11
1.17023e-11
1.16389e-11
1.15611e-11
1.14692e-11
1.13634e-11
1.1244e-11
1.11113e-11
1.09658e-11
1.08077e-11
1.06376e-11
1.04557e-11
1.02627e-11
1.00589e-11
9.84485e-12
9.62111e-12
9.38821e-12
9.14672e-12
8.89723e-12
8.64037e-12
8.37676e-12
8.10708e-12
7.83201e-12
7.55227e-12
7.26858e-12
6.9817e-12
6.69241e-12
6.4015e-12
6.10978e-12
5.81808e-12
5.52725e-12
5.23813e-12
4.95156e-12
4.6684e-12
4.38949e-12
4.11565e-12
3.8477e-12
3.58642e-12
3.33254e-12
3.08679e-12
2.84982e-12
2.62223e-12
2.40456e-12
2.1973e-12
2.00083e-12
1.8155e-12
1.64154e-12
1.47912e-12
1.32831e-12
1.18912e-12
1.06145e-12
9.45144e-13
8.39949e-13
7.45553e-13
6.61572e-13
5.87561e-13
5.23022e-13
4.67404e-13
4.2012e-13
3.80546e-13
3.48031e-13
3.21905e-13
3.01485e-13
2.8608e-13
2.75004e-13
2.67574e-13
2.63125e-13
2.61014e-13
2.60624e-13
2.61374e-13
2.62726e-13
2.6419e-13
2.65331e-13
2.65771e-13
2.65198e-13
2.63368e-13
2.60103e-13
2.55296e-13
2.48905e-13
2.40953e-13
2.31521e-13
2.2074e-13
2.08784e-13
1.95863e-13
1.82208e-13
1.68063e-13
1.53676e-13
1.39288e-13
1.25124e-13
1.1139e-13
9.82607e-14
8.58822e-14
7.43662e-14
6.37909e-14
5.42022e-14
4.56158e-14
3.80205e-14
3.1383e-14
2.56514e-14
2.07605e-14
1.66358e-14
1.31977e-14
1.03651e-14
8.05826e-15
6.20117e-15
4.72327e-15
3.5606e-15
2.65636e-15
1.96115e-15
1.43274e-15
1.03569e-15
7.40758e-16
5.24182e-16
3.66962e-16
2.54139e-16
1.74101e-16
1.17974e-16
7.90634e-17
5.2395e-17
3.43195e-17
2.21953e-17
1.41318e-17
8.78809e-18
5.21589e-18
2.73744e-18
8.5023e-19
3.2961e-16
9.93638e-16
1.67225e-15
2.37553e-15
3.11392e-15
3.89831e-15
4.74021e-15
5.65185e-15
6.64639e-15
7.73802e-15
8.94218e-15
1.02757e-14
1.17571e-14
1.34066e-14
1.52465e-14
1.73014e-14
1.95984e-14
2.21676e-14
2.5042e-14
2.82582e-14
3.18564e-14
3.58813e-14
4.0382e-14
4.54126e-14
5.10329e-14
5.73085e-14
6.43116e-14
7.21218e-14
8.0826e-14
9.05198e-14
1.01308e-13
1.13304e-13
1.26634e-13
1.41435e-13
1.57853e-13
1.76051e-13
1.96206e-13
2.18506e-13
2.43159e-13
2.70387e-13
3.00432e-13
3.33552e-13
3.70029e-13
4.10162e-13
4.54272e-13
5.02704e-13
5.55827e-13
6.14031e-13
6.77735e-13
7.4738e-13
8.23436e-13
9.06397e-13
9.96784e-13
1.09515e-12
1.20206e-12
1.31812e-12
1.44396e-12
1.58023e-12
1.7276e-12
1.88676e-12
2.05843e-12
2.24334e-12
2.44225e-12
2.65589e-12
2.88505e-12
3.13049e-12
3.39297e-12
3.67327e-12
3.97213e-12
4.29029e-12
4.62846e-12
4.98732e-12
5.36751e-12
5.76965e-12
6.19428e-12
6.64189e-12
7.1129e-12
7.60765e-12
8.12642e-12
8.66938e-12
9.23659e-12
9.82801e-12
1.04435e-11
1.10828e-11
1.17455e-11
1.2431e-11
1.31387e-11
1.38678e-11
1.46172e-11
1.5386e-11
1.61728e-11
1.69762e-11
1.77947e-11
1.86265e-11
1.947e-11
2.0323e-11
2.11835e-11
2.20493e-11
2.29181e-11
2.37875e-11
2.4655e-11
2.5518e-11
2.6374e-11
2.72202e-11
2.80541e-11
2.88729e-11
2.96739e-11
3.04546e-11
3.12123e-11
3.19445e-11
3.26486e-11
3.33224e-11
3.39635e-11
3.45698e-11
3.51391e-11
3.56697e-11
3.61598e-11
3.66077e-11
3.70121e-11
3.73716e-11
3.76852e-11
3.79519e-11
3.8171e-11
3.83419e-11
3.84642e-11
3.85377e-11
3.85622e-11
3.8538e-11
3.84651e-11
3.8344e-11
3.81752e-11
3.79593e-11
3.76971e-11
3.73895e-11
3.70374e-11
3.6642e-11
3.62044e-11
3.57259e-11
3.52078e-11
3.46516e-11
3.40586e-11
3.34305e-11
3.27688e-11
3.20752e-11
3.13515e-11
3.05993e-11
2.98206e-11
2.90172e-11
2.81911e-11
2.73442e-11
2.64787e-11
2.55965e-11
2.47e-11
2.37913e-11
2.28728e-11
2.19467e-11
2.10155e-11
2.00816e-11
1.91475e-11
1.82158e-11
1.72889e-11
1.63695e-11
1.54602e-11
1.45634e-11
1.36817e-11
1.28176e-11
1.19735e-11
1.11517e-11
1.03545e-11
9.58385e-12
8.84176e-12
8.12998e-12
7.45008e-12
6.80342e-12
6.19114e-12
5.61416e-12
5.07312e-12
4.56844e-12
4.10028e-12
3.66852e-12
3.27282e-12
2.91258e-12
2.58699e-12
2.295e-12
2.03538e-12
1.80669e-12
1.60735e-12
1.43563e-12
1.28967e-12
1.16752e-12
1.06716e-12
9.86502e-13
9.2342e-13
8.75782e-13
8.41462e-13
8.18359e-13
8.04424e-13
7.97673e-13
7.96216e-13
7.98272e-13
8.02188e-13
8.06465e-13
8.09769e-13
8.10949e-13
8.09052e-13
8.03329e-13
7.93241e-13
7.78459e-13
7.58859e-13
7.34511e-13
7.05661e-13
6.72712e-13
6.36197e-13
5.96752e-13
5.55081e-13
5.11931e-13
4.68055e-13
4.24186e-13
3.81014e-13
3.39157e-13
2.99152e-13
2.61442e-13
2.26364e-13
1.94157e-13
1.64958e-13
1.38815e-13
1.15692e-13
9.54875e-14
7.80424e-14
6.31576e-14
5.06059e-14
4.01446e-14
3.15265e-14
2.45085e-14
1.88592e-14
1.43638e-14
1.08274e-14
8.07732e-15
5.96305e-15
4.35616e-15
3.14882e-15
2.25204e-15
1.59355e-15
1.11555e-15
7.72542e-16
5.29224e-16
3.58599e-16
2.40318e-16
1.59254e-16
1.04311e-16
6.74591e-17
4.29505e-17
2.67091e-17
1.58521e-17
8.31962e-18
2.58406e-18
7.15343e-16
2.15651e-15
3.62945e-15
5.15614e-15
6.75929e-15
8.46265e-15
1.02913e-14
1.22719e-14
1.44331e-14
1.68059e-14
1.9424e-14
2.23242e-14
2.55466e-14
2.91357e-14
3.31402e-14
3.76137e-14
4.26156e-14
4.82114e-14
5.44735e-14
6.14818e-14
6.93245e-14
7.80991e-14
8.79131e-14
9.88851e-14
1.11146e-13
1.24839e-13
1.40122e-13
1.5717e-13
1.76173e-13
1.97341e-13
2.20901e-13
2.47106e-13
2.76227e-13
3.08564e-13
3.44442e-13
3.84214e-13
4.28265e-13
4.7701e-13
5.30902e-13
5.90426e-13
6.56111e-13
7.28522e-13
8.08269e-13
8.96007e-13
9.92437e-13
1.09831e-12
1.21442e-12
1.34163e-12
1.48083e-12
1.63299e-12
1.79913e-12
1.9803e-12
2.17764e-12
2.39233e-12
2.6256e-12
2.87874e-12
3.15309e-12
3.45004e-12
3.77102e-12
4.1175e-12
4.49099e-12
4.89304e-12
5.3252e-12
5.78906e-12
6.2862e-12
6.8182e-12
7.38664e-12
7.99307e-12
8.63899e-12
9.32586e-12
1.00551e-11
1.0828e-11
1.16457e-11
1.25095e-11
1.34202e-11
1.43787e-11
1.53857e-11
1.64416e-11
1.75468e-11
1.87013e-11
1.99049e-11
2.11572e-11
2.24576e-11
2.38051e-11
2.51985e-11
2.66362e-11
2.81164e-11
2.9637e-11
3.11954e-11
3.2789e-11
3.44145e-11
3.60687e-11
3.77478e-11
3.94479e-11
4.11646e-11
4.28936e-11
4.463e-11
4.63689e-11
4.81053e-11
4.98337e-11
5.15489e-11
5.32452e-11
5.49172e-11
5.65593e-11
5.8166e-11
5.97316e-11
6.12508e-11
6.27184e-11
6.41291e-11
6.5478e-11
6.67605e-11
6.79719e-11
6.91083e-11
7.01656e-11
7.11404e-11
7.20294e-11
7.28298e-11
7.35391e-11
7.41552e-11
7.46765e-11
7.51015e-11
7.54294e-11
7.56596e-11
7.57918e-11
7.58263e-11
7.57635e-11
7.56042e-11
7.53496e-11
7.50011e-11
7.45604e-11
7.40293e-11
7.34102e-11
7.27053e-11
7.19171e-11
7.10485e-11
7.01022e-11
6.90813e-11
6.79889e-11
6.68281e-11
6.56022e-11
6.43147e-11
6.29689e-11
6.15682e-11
6.01164e-11
5.86168e-11
5.70733e-11
5.54893e-11
5.38687e-11
5.22152e-11
5.05327e-11
4.8825e-11
4.7096e-11
4.53498e-11
4.35903e-11
4.18217e-11
4.00481e-11
3.82738e-11
3.6503e-11
3.47401e-11
3.29892e-11
3.12549e-11
2.95413e-11
2.78529e-11
2.61939e-11
2.45684e-11
2.29806e-11
2.14344e-11
1.99336e-11
1.84817e-11
1.70821e-11
1.57378e-11
1.44515e-11
1.32257e-11
1.20625e-11
1.09634e-11
9.92969e-12
8.96224e-12
8.06142e-12
7.22717e-12
6.45903e-12
5.75609e-12
5.11705e-12
4.54021e-12
4.02352e-12
3.56459e-12
3.16073e-12
2.80898e-12
2.50617e-12
2.24892e-12
2.03369e-12
1.85684e-12
1.71463e-12
1.6033e-12
1.51905e-12
1.45814e-12
1.41687e-12
1.39163e-12
1.37896e-12
1.37555e-12
1.37831e-12
1.38436e-12
1.39109e-12
1.39619e-12
1.39768e-12
1.3939e-12
1.38357e-12
1.36576e-12
1.3399e-12
1.30578e-12
1.26354e-12
1.21358e-12
1.15662e-12
1.09357e-12
1.02552e-12
9.53684e-13
8.79349e-13
8.03807e-13
7.28316e-13
6.54056e-13
5.82088e-13
5.13331e-13
4.48537e-13
3.88287e-13
3.32983e-13
2.82859e-13
2.37991e-13
1.98318e-13
1.63658e-13
1.33739e-13
1.08216e-13
8.66978e-14
6.87666e-14
5.39971e-14
4.1972e-14
3.22935e-14
2.45931e-14
1.85363e-14
1.38268e-14
1.02066e-14
7.45548e-15
5.38868e-15
3.85367e-15
2.72665e-15
1.90862e-15
1.32167e-15
9.05342e-16
6.13418e-16
4.11064e-16
2.72389e-16
1.78406e-16
1.15372e-16
7.34534e-17
4.56761e-17
2.71086e-17
1.42271e-17
4.41892e-18
1.41833e-15
4.27587e-15
7.19673e-15
1.02246e-14
1.34049e-14
1.67847e-14
2.04141e-14
2.43464e-14
2.86386e-14
3.33525e-14
3.85555e-14
4.43209e-14
5.07292e-14
5.78689e-14
6.58374e-14
7.47422e-14
8.47019e-14
9.58477e-14
1.08324e-13
1.22292e-13
1.37927e-13
1.55425e-13
1.75002e-13
1.96895e-13
2.21365e-13
2.48702e-13
2.79222e-13
3.13274e-13
3.5124e-13
3.9354e-13
4.40633e-13
4.93022e-13
5.51254e-13
6.15929e-13
6.87697e-13
7.67269e-13
8.55412e-13
9.52962e-13
1.06082e-12
1.17997e-12
1.31145e-12
1.45641e-12
1.61605e-12
1.7917e-12
1.98473e-12
2.19666e-12
2.42907e-12
2.68366e-12
2.96221e-12
3.26665e-12
3.59896e-12
3.96128e-12
4.35581e-12
4.78488e-12
5.25092e-12
5.75645e-12
6.30408e-12
6.89652e-12
7.53654e-12
8.227e-12
8.97078e-12
9.77085e-12
1.06302e-11
1.15517e-11
1.25385e-11
1.35935e-11
1.47195e-11
1.59194e-11
1.7196e-11
1.85517e-11
1.9989e-11
2.15102e-11
2.31173e-11
2.48119e-11
2.65956e-11
2.84695e-11
3.04342e-11
3.24903e-11
3.46375e-11
3.68754e-11
3.92028e-11
4.16183e-11
4.41198e-11
4.67045e-11
4.93691e-11
5.21099e-11
5.49223e-11
5.78012e-11
6.07409e-11
6.37351e-11
6.67769e-11
6.98588e-11
7.29728e-11
7.61104e-11
7.92626e-11
8.242e-11
8.55728e-11
8.87109e-11
9.18239e-11
9.49013e-11
9.79326e-11
1.00907e-10
1.03814e-10
1.06642e-10
1.09382e-10
1.12023e-10
1.14556e-10
1.16972e-10
1.1926e-10
1.21413e-10
1.23423e-10
1.25283e-10
1.26987e-10
1.28528e-10
1.29901e-10
1.31103e-10
1.3213e-10
1.32978e-10
1.33647e-10
1.34136e-10
1.34442e-10
1.34569e-10
1.34515e-10
1.34284e-10
1.33878e-10
1.33299e-10
1.32551e-10
1.3164e-10
1.30568e-10
1.29342e-10
1.27967e-10
1.26448e-10
1.24791e-10
1.23003e-10
1.21091e-10
1.19059e-10
1.16917e-10
1.14669e-10
1.12323e-10
1.09886e-10
1.07363e-10
1.04763e-10
1.02092e-10
9.93561e-11
9.65621e-11
9.37167e-11
9.08263e-11
8.78972e-11
8.49361e-11
8.1949e-11
7.89425e-11
7.59228e-11
7.28961e-11
6.98687e-11
6.68469e-11
6.38369e-11
6.08451e-11
5.78775e-11
5.49406e-11
5.20404e-11
4.91831e-11
4.63749e-11
4.36217e-11
4.09293e-11
3.83035e-11
3.57498e-11
3.32735e-11
3.08794e-11
2.85723e-11
2.63564e-11
2.42356e-11
2.22131e-11
2.02919e-11
1.84742e-11
1.67617e-11
1.51556e-11
1.36564e-11
1.22638e-11
1.09772e-11
9.79521e-12
8.71579e-12
7.7364e-12
6.85394e-12
6.06482e-12
5.36498e-12
4.74995e-12
4.21491e-12
3.75474e-12
3.36407e-12
3.03734e-12
2.76885e-12
2.55282e-12
2.38345e-12
2.25494e-12
2.16157e-12
2.09773e-12
2.058e-12
2.03715e-12
2.03023e-12
2.03261e-12
2.04e-12
2.04854e-12
2.05479e-12
2.05582e-12
2.04919e-12
2.033e-12
2.0059e-12
1.96705e-12
1.91616e-12
1.85342e-12
1.77946e-12
1.6953e-12
1.6023e-12
1.50207e-12
1.39639e-12
1.28712e-12
1.17618e-12
1.06539e-12
9.56475e-13
8.50986e-13
7.50256e-13
6.5538e-13
5.67197e-13
4.86287e-13
4.12985e-13
3.47394e-13
2.89416e-13
2.38783e-13
1.95088e-13
1.57825e-13
1.26417e-13
1.00252e-13
7.87054e-14
6.11669e-14
4.70543e-14
3.58283e-14
2.70003e-14
2.01374e-14
1.48628e-14
1.08552e-14
7.84493e-15
5.60956e-15
3.96856e-15
2.77765e-15
1.92326e-15
1.3173e-15
8.92463e-16
5.98009e-16
3.96236e-16
2.59504e-16
1.67807e-16
1.06831e-16
6.64282e-17
3.94234e-17
2.06896e-17
6.42613e-18
2.72468e-15
8.21437e-15
1.38264e-14
1.96451e-14
2.57579e-14
3.22564e-14
3.92369e-14
4.68025e-14
5.50636e-14
6.41399e-14
7.41614e-14
8.52705e-14
9.76231e-14
1.11391e-13
1.26762e-13
1.43946e-13
1.63173e-13
1.84697e-13
2.08799e-13
2.35791e-13
2.66016e-13
2.99854e-13
3.37724e-13
3.80087e-13
4.27453e-13
4.80384e-13
5.39497e-13
6.05469e-13
6.79047e-13
7.61045e-13
8.5236e-13
9.53967e-13
1.06694e-12
1.19243e-12
1.33172e-12
1.48619e-12
1.65733e-12
1.84676e-12
2.05625e-12
2.28768e-12
2.54311e-12
2.82474e-12
3.13493e-12
3.47621e-12
3.85129e-12
4.26307e-12
4.71463e-12
5.20924e-12
5.75037e-12
6.34168e-12
6.98703e-12
7.69048e-12
8.4563e-12
9.28891e-12
1.01929e-11
1.11732e-11
1.22346e-11
1.33824e-11
1.46216e-11
1.59577e-11
1.73961e-11
1.89422e-11
2.06016e-11
2.23796e-11
2.42818e-11
2.63134e-11
2.84795e-11
3.07852e-11
3.32351e-11
3.58337e-11
3.85848e-11
4.14922e-11
4.45588e-11
4.77871e-11
5.11789e-11
5.47355e-11
5.8457e-11
6.23432e-11
6.63925e-11
7.06026e-11
7.49701e-11
7.94906e-11
8.41586e-11
8.89674e-11
9.39092e-11
9.89749e-11
1.04154e-10
1.09436e-10
1.14808e-10
1.20256e-10
1.25766e-10
1.31322e-10
1.36907e-10
1.42504e-10
1.48095e-10
1.53661e-10
1.59181e-10
1.64638e-10
1.7001e-10
1.75278e-10
1.8042e-10
1.85419e-10
1.90253e-10
1.94903e-10
1.99352e-10
2.03581e-10
2.07574e-10
2.11315e-10
2.14789e-10
2.17983e-10
2.20886e-10
2.23486e-10
2.25775e-10
2.27746e-10
2.29392e-10
2.30709e-10
2.31696e-10
2.3235e-10
2.32672e-10
2.32665e-10
2.32332e-10
2.31678e-10
2.30708e-10
2.29432e-10
2.27856e-10
2.2599e-10
2.23846e-10
2.21433e-10
2.18764e-10
2.15851e-10
2.12708e-10
2.09346e-10
2.0578e-10
2.02024e-10
1.9809e-10
1.93992e-10
1.89744e-10
1.8536e-10
1.80852e-10
1.76233e-10
1.71517e-10
1.66714e-10
1.61838e-10
1.569e-10
1.51911e-10
1.46883e-10
1.41825e-10
1.36749e-10
1.31663e-10
1.26579e-10
1.21506e-10
1.16452e-10
1.11427e-10
1.0644e-10
1.015e-10
9.66142e-11
9.1792e-11
8.70413e-11
8.23704e-11
7.7787e-11
7.3299e-11
6.8914e-11
6.46391e-11
6.04817e-11
5.64483e-11
5.25456e-11
4.87794e-11
4.51555e-11
4.16788e-11
3.8354e-11
3.5185e-11
3.21749e-11
2.93263e-11
2.66411e-11
2.412e-11
2.17634e-11
1.95705e-11
1.75397e-11
1.56689e-11
1.39547e-11
1.23933e-11
1.09799e-11
9.70931e-12
8.57541e-12
7.57166e-12
6.69102e-12
5.92603e-12
5.26885e-12
4.71142e-12
4.24543e-12
3.86251e-12
3.55419e-12
3.31204e-12
3.12772e-12
2.99304e-12
2.90001e-12
2.84094e-12
2.80847e-12
2.79564e-12
2.79596e-12
2.80347e-12
2.81279e-12
2.81917e-12
2.81856e-12
2.80761e-12
2.78369e-12
2.74497e-12
2.69031e-12
2.61931e-12
2.53225e-12
2.43e-12
2.31398e-12
2.18604e-12
2.04838e-12
1.90344e-12
1.75378e-12
1.60196e-12
1.4505e-12
1.30172e-12
1.15773e-12
1.02032e-12
8.90987e-13
7.70844e-13
6.6067e-13
5.60905e-13
4.71678e-13
3.92843e-13
3.24023e-13
2.64658e-13
2.1405e-13
1.71409e-13
1.35898e-13
1.06666e-13
8.2878e-14
6.37424e-14
4.85249e-14
3.65613e-14
2.72629e-14
2.01183e-14
1.46911e-14
1.06153e-14
7.58938e-15
5.36843e-15
3.75692e-15
2.60097e-15
1.78127e-15
1.20666e-15
8.08458e-16
5.35626e-16
3.50763e-16
2.268e-16
1.44377e-16
8.97696e-17
5.32733e-17
2.79572e-17
8.6833e-18
5.13847e-15
1.54919e-14
2.60774e-14
3.70549e-14
4.85905e-14
6.08575e-14
7.40392e-14
8.83311e-14
1.03943e-13
1.21103e-13
1.40058e-13
1.61078e-13
1.84461e-13
2.10534e-13
2.39655e-13
2.72224e-13
3.08679e-13
3.49505e-13
3.9524e-13
4.46477e-13
5.03874e-13
5.68154e-13
6.40119e-13
7.20653e-13
8.10729e-13
9.11423e-13
1.02391e-12
1.1495e-12
1.28961e-12
1.4458e-12
1.6198e-12
1.81346e-12
2.02883e-12
2.26816e-12
2.53385e-12
2.82857e-12
3.15517e-12
3.51675e-12
3.91669e-12
4.35861e-12
4.84643e-12
5.38434e-12
5.97686e-12
6.62884e-12
7.34544e-12
8.13217e-12
8.99491e-12
9.93987e-12
1.09736e-11
1.21032e-11
1.33358e-11
1.46792e-11
1.61413e-11
1.77307e-11
1.94558e-11
2.13258e-11
2.33499e-11
2.55377e-11
2.78987e-11
3.04429e-11
3.31803e-11
3.61208e-11
3.92744e-11
4.2651e-11
4.62602e-11
5.01115e-11
5.42138e-11
5.85758e-11
6.32052e-11
6.81095e-11
7.32948e-11
7.87668e-11
8.45298e-11
9.05868e-11
9.69396e-11
1.03589e-10
1.10533e-10
1.17768e-10
1.25291e-10
1.33094e-10
1.41169e-10
1.49504e-10
1.58086e-10
1.66901e-10
1.7593e-10
1.85154e-10
1.94552e-10
2.04098e-10
2.13767e-10
2.2353e-10
2.33358e-10
2.43219e-10
2.53078e-10
2.62903e-10
2.72656e-10
2.82302e-10
2.91802e-10
3.01119e-10
3.10216e-10
3.19054e-10
3.27597e-10
3.35809e-10
3.43655e-10
3.51101e-10
3.58115e-10
3.64667e-10
3.70731e-10
3.7628e-10
3.81292e-10
3.85748e-10
3.89631e-10
3.92927e-10
3.95625e-10
3.97719e-10
3.99205e-10
4.00081e-10
4.0035e-10
4.00017e-10
3.9909e-10
3.9758e-10
3.95501e-10
3.92868e-10
3.897e-10
3.86017e-10
3.8184e-10
3.77194e-10
3.72101e-10
3.66589e-10
3.60683e-10
3.54411e-10
3.47799e-10
3.40876e-10
3.33668e-10
3.26203e-10
3.18508e-10
3.10609e-10
3.02532e-10
2.94301e-10
2.8594e-10
2.77474e-10
2.68924e-10
2.60311e-10
2.51655e-10
2.42977e-10
2.34294e-10
2.25623e-10
2.16982e-10
2.08386e-10
1.99849e-10
1.91386e-10
1.8301e-10
1.74734e-10
1.66569e-10
1.58527e-10
1.50619e-10
1.42856e-10
1.35248e-10
1.27805e-10
1.20535e-10
1.13447e-10
1.06551e-10
9.98548e-11
9.33654e-11
8.70903e-11
8.10366e-11
7.52103e-11
6.96173e-11
6.42625e-11
5.91503e-11
5.42842e-11
4.96669e-11
4.53002e-11
4.1185e-11
3.73213e-11
3.37077e-11
3.03422e-11
2.72214e-11
2.43412e-11
2.16961e-11
1.92799e-11
1.70853e-11
1.51042e-11
1.33275e-11
1.17458e-11
1.03486e-11
9.12503e-12
8.06393e-12
7.15363e-12
6.38226e-12
5.73782e-12
5.20826e-12
4.78155e-12
4.44582e-12
4.18939e-12
4.00086e-12
3.86923e-12
3.78392e-12
3.73488e-12
3.71266e-12
3.70848e-12
3.7143e-12
3.7229e-12
3.72793e-12
3.72398e-12
3.7066e-12
3.67234e-12
3.61875e-12
3.54437e-12
3.44867e-12
3.33203e-12
3.19564e-12
3.04136e-12
2.87165e-12
2.68941e-12
2.49785e-12
2.30031e-12
2.10018e-12
1.90073e-12
1.705e-12
1.51574e-12
1.33528e-12
1.16555e-12
1.00798e-12
8.63581e-13
7.32903e-13
6.16092e-13
5.12941e-13
4.2294e-13
3.4534e-13
2.79216e-13
2.23526e-13
1.77167e-13
1.39018e-13
1.07986e-13
8.3032e-14
6.31938e-14
4.76024e-14
3.5488e-14
2.61823e-14
1.91153e-14
1.38094e-14
9.87116e-15
6.98125e-15
4.88479e-15
3.38129e-15
2.31534e-15
1.56824e-15
1.05058e-15
6.95959e-16
4.55711e-16
2.9463e-16
1.87541e-16
1.16599e-16
6.91913e-17
3.63093e-17
1.12772e-17
9.54382e-15
2.87745e-14
4.84387e-14
6.88357e-14
9.02757e-14
1.13083e-13
1.376e-13
1.64193e-13
1.93256e-13
2.25213e-13
2.60529e-13
2.99712e-13
3.43318e-13
3.91962e-13
4.46318e-13
5.07135e-13
5.75237e-13
6.51539e-13
7.3705e-13
8.32889e-13
9.40291e-13
1.06062e-12
1.19539e-12
1.34627e-12
1.51509e-12
1.70388e-12
1.91487e-12
2.1505e-12
2.41348e-12
2.70675e-12
3.03354e-12
3.3974e-12
3.80218e-12
4.25211e-12
4.75177e-12
5.30615e-12
5.92067e-12
6.6012e-12
7.35408e-12
8.18616e-12
9.10484e-12
1.0118e-11
1.12343e-11
1.24627e-11
1.3813e-11
1.52956e-11
1.69215e-11
1.87024e-11
2.06507e-11
2.27794e-11
2.51022e-11
2.76335e-11
3.03882e-11
3.33819e-11
3.66308e-11
4.01516e-11
4.39613e-11
4.80775e-11
5.25181e-11
5.7301e-11
6.24443e-11
6.79662e-11
7.38845e-11
8.02169e-11
8.69805e-11
9.41917e-11
1.01866e-10
1.10018e-10
1.18661e-10
1.27807e-10
1.37465e-10
1.47643e-10
1.58347e-10
1.69581e-10
1.81343e-10
1.93633e-10
2.06444e-10
2.19767e-10
2.33589e-10
2.47893e-10
2.62659e-10
2.77862e-10
2.93473e-10
3.0946e-10
3.25784e-10
3.42405e-10
3.59278e-10
3.76352e-10
3.93575e-10
4.1089e-10
4.28237e-10
4.45554e-10
4.62776e-10
4.79835e-10
4.96663e-10
5.1319e-10
5.29345e-10
5.4506e-10
5.60263e-10
5.74888e-10
5.88866e-10
6.02136e-10
6.14635e-10
6.26307e-10
6.37097e-10
6.46958e-10
6.55845e-10
6.6372e-10
6.70551e-10
6.7631e-10
6.80978e-10
6.84538e-10
6.86984e-10
6.88313e-10
6.8853e-10
6.87645e-10
6.85674e-10
6.82638e-10
6.78565e-10
6.73486e-10
6.67437e-10
6.60459e-10
6.52593e-10
6.43889e-10
6.34393e-10
6.24157e-10
6.13235e-10
6.01679e-10
5.89544e-10
5.76884e-10
5.63754e-10
5.50207e-10
5.36296e-10
5.22073e-10
5.07586e-10
4.92884e-10
4.78014e-10
4.6302e-10
4.47942e-10
4.32821e-10
4.17695e-10
4.02597e-10
3.87561e-10
3.72617e-10
3.57793e-10
3.43115e-10
3.28607e-10
3.1429e-10
3.00186e-10
2.86313e-10
2.72688e-10
2.59326e-10
2.46242e-10
2.33448e-10
2.20958e-10
2.08782e-10
1.96931e-10
1.85413e-10
1.74238e-10
1.63414e-10
1.52947e-10
1.42846e-10
1.33115e-10
1.2376e-10
1.14786e-10
1.06196e-10
9.79943e-11
9.01822e-11
8.27612e-11
7.57316e-11
6.90925e-11
6.28422e-11
5.69774e-11
5.1494e-11
4.63863e-11
4.16476e-11
3.72699e-11
3.3244e-11
2.95592e-11
2.62042e-11
2.31662e-11
2.04316e-11
1.79859e-11
1.58139e-11
1.38998e-11
1.2227e-11
1.0779e-11
9.53856e-12
8.48866e-12
7.61211e-12
6.89187e-12
6.31111e-12
5.85334e-12
5.50247e-12
5.24294e-12
5.05977e-12
4.9387e-12
4.86623e-12
4.82975e-12
4.81759e-12
4.81912e-12
4.82483e-12
4.8264e-12
4.81674e-12
4.79007e-12
4.7419e-12
4.66909e-12
4.56975e-12
4.44325e-12
4.29008e-12
4.1118e-12
3.91084e-12
3.69037e-12
3.45415e-12
3.20628e-12
2.95109e-12
2.69289e-12
2.43589e-12
2.18395e-12
1.94057e-12
1.70872e-12
1.49082e-12
1.28871e-12
1.10361e-12
9.36219e-13
7.86684e-13
6.54713e-13
5.39631e-13
4.40458e-13
3.55995e-13
2.84895e-13
2.25733e-13
1.77071e-13
1.37503e-13
1.05697e-13
8.04208e-14
6.05628e-14
4.51386e-14
3.32941e-14
2.43019e-14
1.75525e-14
1.25441e-14
8.86992e-15
6.20514e-15
4.29449e-15
2.94018e-15
1.99115e-15
1.33371e-15
8.83402e-16
5.78379e-16
3.73899e-16
2.37976e-16
1.47943e-16
8.77855e-17
4.60649e-17
1.43068e-17
1.74721e-14
5.26798e-14
8.86866e-14
1.26044e-13
1.65324e-13
2.07123e-13
2.52076e-13
3.00856e-13
3.5419e-13
4.12865e-13
4.77739e-13
5.4975e-13
6.2993e-13
7.19414e-13
8.19454e-13
9.31437e-13
1.05689e-12
1.19752e-12
1.35519e-12
1.53197e-12
1.73018e-12
1.95234e-12
2.20127e-12
2.48007e-12
2.79215e-12
3.14128e-12
3.53162e-12
3.96774e-12
4.45465e-12
4.99785e-12
5.60337e-12
6.27782e-12
7.02839e-12
7.86295e-12
8.79007e-12
9.81904e-12
1.096e-11
1.22238e-11
1.36225e-11
1.51686e-11
1.68761e-11
1.87597e-11
2.08352e-11
2.31197e-11
2.56313e-11
2.83894e-11
3.14144e-11
3.4728e-11
3.83532e-11
4.23143e-11
4.66365e-11
5.13464e-11
5.64717e-11
6.20411e-11
6.80843e-11
7.46319e-11
8.17152e-11
8.93663e-11
9.76176e-11
1.06502e-10
1.16051e-10
1.26298e-10
1.37276e-10
1.49014e-10
1.61543e-10
1.74891e-10
1.89086e-10
2.04151e-10
2.20108e-10
2.36975e-10
2.54768e-10
2.73496e-10
2.93167e-10
3.13781e-10
3.35334e-10
3.57816e-10
3.81211e-10
4.05494e-10
4.30637e-10
4.56602e-10
4.83343e-10
5.10808e-10
5.38936e-10
5.67659e-10
5.96901e-10
6.26577e-10
6.56596e-10
6.86861e-10
7.17267e-10
7.47703e-10
7.78052e-10
8.08195e-10
8.38007e-10
8.67361e-10
8.96128e-10
9.24178e-10
9.51381e-10
9.77611e-10
1.00274e-09
1.02665e-09
1.04922e-09
1.07034e-09
1.08991e-09
1.10783e-09
1.12401e-09
1.13838e-09
1.15088e-09
1.16144e-09
1.17002e-09
1.17659e-09
1.18113e-09
1.18364e-09
1.18411e-09
1.18257e-09
1.17903e-09
1.17355e-09
1.16617e-09
1.15694e-09
1.14594e-09
1.13324e-09
1.11893e-09
1.10309e-09
1.08581e-09
1.06721e-09
1.04737e-09
1.02641e-09
1.00442e-09
9.81519e-10
9.57809e-10
9.33392e-10
9.08373e-10
8.82849e-10
8.56919e-10
8.30673e-10
8.04202e-10
7.7759e-10
7.50915e-10
7.24252e-10
6.97671e-10
6.71237e-10
6.45008e-10
6.1904e-10
5.93382e-10
5.68079e-10
5.43171e-10
5.18695e-10
4.94682e-10
4.71163e-10
4.4816e-10
4.25697e-10
4.03791e-10
3.8246e-10
3.61717e-10
3.41574e-10
3.22041e-10
3.03125e-10
2.84834e-10
2.67172e-10
2.50143e-10
2.33752e-10
2.17999e-10
2.02885e-10
1.8841e-10
1.74575e-10
1.61376e-10
1.48811e-10
1.36876e-10
1.25568e-10
1.14879e-10
1.04803e-10
9.5331e-11
8.64547e-11
7.81626e-11
7.04427e-11
6.32814e-11
5.66638e-11
5.05736e-11
4.49931e-11
3.99035e-11
3.52847e-11
3.11157e-11
2.73742e-11
2.40375e-11
2.1082e-11
1.84836e-11
1.62178e-11
1.42601e-11
1.25858e-11
1.11704e-11
9.98962e-12
9.01953e-12
8.23683e-12
7.6188e-12
7.14349e-12
6.78982e-12
6.53764e-12
6.36789e-12
6.26262e-12
6.20518e-12
6.1802e-12
6.1738e-12
6.17357e-12
6.16871e-12
6.15009e-12
6.11026e-12
6.04347e-12
5.9457e-12
5.81458e-12
5.64933e-12
5.45061e-12
5.22043e-12
4.96192e-12
4.67913e-12
4.37683e-12
4.06024e-12
3.73484e-12
3.40609e-12
3.07927e-12
2.75928e-12
2.45047e-12
2.15659e-12
1.88063e-12
1.62487e-12
1.39084e-12
1.17934e-12
9.90531e-13
8.2401e-13
6.78887e-13
5.539e-13
4.4751e-13
3.57997e-13
2.83553e-13
2.22349e-13
1.72606e-13
1.32638e-13
1.00888e-13
7.5954e-14
5.65941e-14
4.17325e-14
3.04534e-14
2.19903e-14
1.5712e-14
1.11075e-14
7.76893e-15
5.37574e-15
3.67978e-15
2.49162e-15
1.66867e-15
1.10511e-15
7.23444e-16
4.67622e-16
2.97597e-16
1.84992e-16
1.09761e-16
5.75937e-17
1.7887e-17
3.15368e-14
9.50897e-14
1.60095e-13
2.27556e-13
2.98511e-13
3.74048e-13
4.55319e-13
5.43552e-13
6.40069e-13
7.46307e-13
8.63829e-13
9.94348e-13
1.13975e-12
1.3021e-12
1.4837e-12
1.68708e-12
1.91504e-12
2.17068e-12
2.45745e-12
2.77914e-12
3.13998e-12
3.54462e-12
3.99821e-12
4.50645e-12
5.07562e-12
5.71266e-12
6.4252e-12
7.22163e-12
8.11119e-12
9.104e-12
1.02112e-11
1.14449e-11
1.28183e-11
1.4346e-11
1.60438e-11
1.79288e-11
2.00196e-11
2.23364e-11
2.49011e-11
2.77371e-11
3.087e-11
3.43268e-11
3.81369e-11
4.23316e-11
4.69443e-11
5.20104e-11
5.75678e-11
6.36563e-11
7.03181e-11
7.75975e-11
8.55412e-11
9.41975e-11
1.03617e-10
1.13853e-10
1.24958e-10
1.36989e-10
1.50002e-10
1.64055e-10
1.79207e-10
1.95516e-10
2.13041e-10
2.31839e-10
2.51967e-10
2.73479e-10
2.96428e-10
3.20863e-10
3.46828e-10
3.74364e-10
4.03506e-10
4.34282e-10
4.66713e-10
5.00814e-10
5.36588e-10
5.74029e-10
6.13122e-10
6.53839e-10
6.9614e-10
7.39974e-10
7.85273e-10
8.31958e-10
8.79937e-10
9.29099e-10
9.79322e-10
1.03047e-09
1.08239e-09
1.13492e-09
1.18787e-09
1.24107e-09
1.2943e-09
1.34736e-09
1.40002e-09
1.45206e-09
1.50324e-09
1.55333e-09
1.60209e-09
1.64929e-09
1.69468e-09
1.73804e-09
1.77915e-09
1.81779e-09
1.85376e-09
1.88687e-09
1.91696e-09
1.94386e-09
1.96743e-09
1.98757e-09
2.00417e-09
2.01716e-09
2.02649e-09
2.03213e-09
2.03408e-09
2.03236e-09
2.027e-09
2.01807e-09
2.00565e-09
1.98984e-09
1.97077e-09
1.94857e-09
1.92339e-09
1.8954e-09
1.86477e-09
1.8317e-09
1.79637e-09
1.75898e-09
1.71973e-09
1.67882e-09
1.63646e-09
1.59285e-09
1.54818e-09
1.50264e-09
1.45643e-09
1.40971e-09
1.36267e-09
1.31545e-09
1.26822e-09
1.22111e-09
1.17426e-09
1.12778e-09
1.0818e-09
1.0364e-09
9.91682e-10
9.47725e-10
9.04599e-10
8.62368e-10
8.21086e-10
7.80798e-10
7.41543e-10
7.03353e-10
6.66253e-10
6.30265e-10
5.95402e-10
5.61675e-10
5.2909e-10
4.97651e-10
4.67356e-10
4.38204e-10
4.10188e-10
3.83303e-10
3.57538e-10
3.32883e-10
3.09327e-10
2.86857e-10
2.65459e-10
2.45119e-10
2.25819e-10
2.07544e-10
1.90275e-10
1.73994e-10
1.58682e-10
1.44316e-10
1.30876e-10
1.18337e-10
1.06674e-10
9.58631e-11
8.58753e-11
7.66825e-11
6.82546e-11
6.05606e-11
5.35682e-11
4.72441e-11
4.15541e-11
3.64633e-11
3.19362e-11
2.79371e-11
2.44299e-11
2.13785e-11
1.87472e-11
1.65006e-11
1.46038e-11
1.30227e-11
1.17241e-11
1.06758e-11
9.84667e-12
9.20701e-12
8.72839e-12
8.38387e-12
8.1481e-12
7.99739e-12
7.90984e-12
7.8654e-12
7.84599e-12
7.83558e-12
7.82025e-12
7.78826e-12
7.73011e-12
7.63849e-12
7.50831e-12
7.3366e-12
7.12239e-12
6.86659e-12
6.57175e-12
6.24186e-12
5.88205e-12
5.49833e-12
5.0973e-12
4.68581e-12
4.27073e-12
3.85863e-12
3.45564e-12
3.06716e-12
2.69783e-12
2.35136e-12
2.03054e-12
1.7372e-12
1.47231e-12
1.23602e-12
1.02776e-12
8.46376e-13
6.90258e-13
5.57447e-13
4.45767e-13
3.52936e-13
2.76654e-13
2.14685e-13
1.64917e-13
1.254e-13
9.43782e-14
7.0301e-14
5.18253e-14
3.78081e-14
2.7294e-14
1.94968e-14
1.378e-14
9.63604e-15
6.66633e-15
4.56234e-15
3.08866e-15
2.06818e-15
1.36949e-15
8.96391e-16
5.79341e-16
3.68655e-16
2.29142e-16
1.35947e-16
7.13297e-17
2.21524e-17
5.61306e-14
1.69251e-13
2.84977e-13
4.05106e-13
5.31502e-13
6.66118e-13
8.11018e-13
9.68411e-13
1.14068e-12
1.33039e-12
1.54037e-12
1.7737e-12
2.03378e-12
2.32434e-12
2.64952e-12
3.01388e-12
3.4225e-12
3.88098e-12
4.39554e-12
4.97306e-12
5.62117e-12
6.34831e-12
7.16383e-12
8.07803e-12
9.10233e-12
1.02493e-11
1.15328e-11
1.29681e-11
1.45719e-11
1.63627e-11
1.83606e-11
2.05878e-11
2.30684e-11
2.58287e-11
2.88975e-11
3.2306e-11
3.60882e-11
4.02808e-11
4.49235e-11
5.00593e-11
5.57343e-11
6.19982e-11
6.89043e-11
7.65096e-11
8.48748e-11
9.40646e-11
1.04148e-10
1.15196e-10
1.27288e-10
1.40502e-10
1.54923e-10
1.7064e-10
1.87743e-10
2.06328e-10
2.26492e-10
2.48336e-10
2.71961e-10
2.97472e-10
3.24972e-10
3.54566e-10
3.86358e-10
4.20449e-10
4.56939e-10
4.95923e-10
5.3749e-10
5.81725e-10
6.28703e-10
6.7849e-10
7.31143e-10
7.86703e-10
8.452e-10
9.06648e-10
9.71043e-10
1.03836e-09
1.10856e-09
1.18158e-09
1.25733e-09
1.33569e-09
1.41654e-09
1.4997e-09
1.585e-09
1.67221e-09
1.76109e-09
1.85138e-09
1.94278e-09
2.03497e-09
2.12762e-09
2.22036e-09
2.3128e-09
2.40456e-09
2.49522e-09
2.58436e-09
2.67155e-09
2.75636e-09
2.83835e-09
2.91711e-09
2.9922e-09
3.06323e-09
3.12981e-09
3.19157e-09
3.24816e-09
3.29927e-09
3.34462e-09
3.38397e-09
3.4171e-09
3.44384e-09
3.46406e-09
3.47768e-09
3.48465e-09
3.48498e-09
3.47871e-09
3.46593e-09
3.44676e-09
3.42136e-09
3.38995e-09
3.35275e-09
3.31004e-09
3.2621e-09
3.20926e-09
3.15186e-09
3.09024e-09
3.02477e-09
2.95584e-09
2.88381e-09
2.80908e-09
2.73201e-09
2.65299e-09
2.57239e-09
2.49054e-09
2.40781e-09
2.32451e-09
2.24095e-09
2.15743e-09
2.07422e-09
1.99156e-09
1.9097e-09
1.82884e-09
1.74917e-09
1.67086e-09
1.59407e-09
1.51892e-09
1.44553e-09
1.37399e-09
1.30438e-09
1.23677e-09