/*--------------------------------*- C++ -*----------------------------------*\
| =========                 |                                                 |
| \\      /  F ield         | OpenFOAM: The Open Source CFD Toolbox           |
|  \\    /   O peration     | Version:  v2012                                 |
|   \\  /    A nd           | Website:  www.openfoam.com                      |
|    \\/     M anipulation  |                                                 |
\*---------------------------------------------------------------------------*/
FoamFile
{
    version     2.0;
    format      ascii;
    class       volScalarField;
    location    "8.1";
    object      W;
}
// * * * * * * * * * * * * * * * * * * * * * * * * * * * * * * * * * * * * * //

dimensions      [0 0 -1 0 0 0 0];


internalField   nonuniform List<scalar> 
65536
(
1.59253e-19
4.83168e-19
8.23513e-19
1.19188e-18
1.60074e-18
2.06385e-18
2.59657e-18
3.21642e-18
3.94344e-18
4.80087e-18
5.81566e-18
7.01923e-18
8.44824e-18
1.01455e-17
1.21612e-17
1.45538e-17
1.73915e-17
2.07541e-17
2.47345e-17
2.94409e-17
3.49991e-17
4.1555e-17
4.9278e-17
5.83643e-17
6.90404e-17
8.15681e-17
9.62488e-17
1.1343e-16
1.33509e-16
1.56943e-16
1.84257e-16
2.16047e-16
2.52996e-16
2.95882e-16
3.45587e-16
4.03115e-16
4.69602e-16
5.46333e-16
6.34758e-16
7.36512e-16
8.53432e-16
9.87582e-16
1.14127e-15
1.31709e-15
1.51791e-15
1.74695e-15
2.00779e-15
2.30436e-15
2.64107e-15
3.02275e-15
3.45472e-15
3.94285e-15
4.49358e-15
5.11394e-15
5.81163e-15
6.59502e-15
7.47322e-15
8.45609e-15
9.55431e-15
1.07794e-14
1.21437e-14
1.36606e-14
1.53442e-14
1.72097e-14
1.92732e-14
2.15517e-14
2.40634e-14
2.68273e-14
2.98631e-14
3.31919e-14
3.68353e-14
4.08158e-14
4.51567e-14
4.98817e-14
5.50154e-14
6.05825e-14
6.66081e-14
7.31174e-14
8.01356e-14
8.76875e-14
9.57974e-14
1.04489e-13
1.13785e-13
1.23707e-13
1.34273e-13
1.45504e-13
1.57413e-13
1.70013e-13
1.83316e-13
1.97328e-13
2.12051e-13
2.27486e-13
2.43625e-13
2.60461e-13
2.77976e-13
2.96151e-13
3.14959e-13
3.34367e-13
3.54338e-13
3.74824e-13
3.95775e-13
4.17133e-13
4.3883e-13
4.60797e-13
4.82953e-13
5.05213e-13
5.27488e-13
5.49678e-13
5.71681e-13
5.93391e-13
6.14696e-13
6.35479e-13
6.55624e-13
6.7501e-13
6.93517e-13
7.11024e-13
7.27412e-13
7.42563e-13
7.56365e-13
7.68708e-13
7.79491e-13
7.88618e-13
7.96003e-13
8.01569e-13
8.05249e-13
8.06991e-13
8.06752e-13
8.04507e-13
8.00241e-13
7.93958e-13
7.85674e-13
7.75425e-13
7.63259e-13
7.49242e-13
7.33453e-13
7.15987e-13
6.96954e-13
6.76476e-13
6.54686e-13
6.31729e-13
6.07758e-13
5.82933e-13
5.57423e-13
5.31397e-13
5.05028e-13
4.78489e-13
4.51951e-13
4.25584e-13
3.99549e-13
3.74003e-13
3.49095e-13
3.24963e-13
3.01735e-13
2.79526e-13
2.58441e-13
2.3857e-13
2.1999e-13
2.02763e-13
1.86938e-13
1.72551e-13
1.59621e-13
1.48158e-13
1.38156e-13
1.29597e-13
1.22451e-13
1.16678e-13
1.12226e-13
1.09033e-13
1.07028e-13
1.06132e-13
1.06256e-13
1.07306e-13
1.09179e-13
1.11769e-13
1.14962e-13
1.18644e-13
1.22694e-13
1.26992e-13
1.31417e-13
1.3585e-13
1.40173e-13
1.44273e-13
1.48041e-13
1.51379e-13
1.54195e-13
1.56409e-13
1.57952e-13
1.58768e-13
1.58818e-13
1.58074e-13
1.56526e-13
1.5418e-13
1.51054e-13
1.47185e-13
1.42619e-13
1.37417e-13
1.3165e-13
1.25396e-13
1.18741e-13
1.11776e-13
1.0459e-13
9.72769e-14
8.99239e-14
8.2616e-14
7.54314e-14
6.8441e-14
6.17068e-14
5.52817e-14
4.92083e-14
4.35194e-14
3.8238e-14
3.33776e-14
2.89428e-14
2.49307e-14
2.13313e-14
1.81289e-14
1.5303e-14
1.28298e-14
1.06826e-14
8.83358e-15
7.25407e-15
5.91556e-15
4.79032e-15
3.85187e-15
3.07541e-15
2.43807e-15
1.91904e-15
1.49971e-15
1.1636e-15
8.96306e-16
6.8542e-16
5.20346e-16
3.92151e-16
2.93378e-16
2.17874e-16
1.60612e-16
1.17526e-16
8.53628e-17
6.15416e-17
4.4038e-17
3.1278e-17
2.20492e-17
1.54271e-17
1.07129e-17
7.38329e-18
5.05015e-18
3.42808e-18
2.30914e-18
1.54316e-18
1.02258e-18
6.7099e-19
4.3447e-19
2.75093e-19
1.66125e-19
8.84179e-20
2.76809e-20
5.44144e-19
1.65088e-18
2.81369e-18
4.07214e-18
5.46879e-18
7.05051e-18
8.86979e-18
1.09863e-17
1.34684e-17
1.63954e-17
1.9859e-17
2.39664e-17
2.88425e-17
3.46333e-17
4.15093e-17
4.96698e-17
5.93474e-17
7.08134e-17
8.4384e-17
1.00427e-16
1.19371e-16
1.41712e-16
1.68026e-16
1.98979e-16
2.35342e-16
2.78003e-16
3.27987e-16
3.86472e-16
4.54809e-16
5.34551e-16
6.2747e-16
7.35595e-16
8.61238e-16
1.00703e-15
1.17597e-15
1.37144e-15
1.5973e-15
1.85788e-15
2.1581e-15
2.50346e-15
2.90018e-15
3.35521e-15
3.87636e-15
4.47233e-15
5.15282e-15
5.92866e-15
6.81185e-15
7.81568e-15
8.95488e-15
1.02457e-14
1.1706e-14
1.33554e-14
1.52154e-14
1.73097e-14
1.96638e-14
2.23058e-14
2.5266e-14
2.85772e-14
3.2275e-14
3.63976e-14
4.09861e-14
4.60846e-14
5.17399e-14
5.80023e-14
6.49248e-14
7.25637e-14
8.09784e-14
9.02312e-14
1.00387e-13
1.11515e-13
1.23686e-13
1.36972e-13
1.51449e-13
1.67194e-13
1.84287e-13
2.02807e-13
2.22834e-13
2.44451e-13
2.67735e-13
2.92767e-13
3.19623e-13
3.48377e-13
3.79099e-13
4.11856e-13
4.46708e-13
4.83707e-13
5.22901e-13
5.64327e-13
6.08011e-13
6.5397e-13
7.02207e-13
7.52714e-13
8.05465e-13
8.60421e-13
9.17524e-13
9.76702e-13
1.03786e-12
1.10088e-12
1.16564e-12
1.23198e-12
1.29972e-12
1.36868e-12
1.43862e-12
1.50932e-12
1.58051e-12
1.65191e-12
1.72322e-12
1.79414e-12
1.86431e-12
1.93341e-12
2.00106e-12
2.06689e-12
2.13054e-12
2.19161e-12
2.24973e-12
2.3045e-12
2.35556e-12
2.40254e-12
2.44508e-12
2.48285e-12
2.51552e-12
2.54281e-12
2.56445e-12
2.58021e-12
2.58989e-12
2.59334e-12
2.59044e-12
2.58112e-12
2.56536e-12
2.54318e-12
2.51465e-12
2.47989e-12
2.43909e-12
2.39245e-12
2.34025e-12
2.2828e-12
2.22046e-12
2.15363e-12
2.08275e-12
2.00827e-12
1.93069e-12
1.85054e-12
1.76833e-12
1.68462e-12
1.59994e-12
1.51486e-12
1.4299e-12
1.34561e-12
1.26248e-12
1.18101e-12
1.10167e-12
1.02488e-12
9.51034e-13
8.80498e-13
8.13588e-13
7.50581e-13
6.91708e-13
6.37158e-13
5.87077e-13
5.41566e-13
5.00682e-13
4.64441e-13
4.3282e-13
4.05756e-13
3.83148e-13
3.64861e-13
3.50728e-13
3.40549e-13
3.34097e-13
3.31117e-13
3.31332e-13
3.34439e-13
3.40119e-13
3.48033e-13
3.57829e-13
3.69143e-13
3.81604e-13
3.94835e-13
4.08458e-13
4.22102e-13
4.354e-13
4.48002e-13
4.59574e-13
4.69807e-13
4.78418e-13
4.8516e-13
4.8982e-13
4.9223e-13
4.92264e-13
4.89843e-13
4.84935e-13
4.77558e-13
4.67774e-13
4.55692e-13
4.41463e-13
4.25274e-13
4.07343e-13
3.87917e-13
3.6726e-13
3.45651e-13
3.23372e-13
3.00707e-13
2.77929e-13
2.55299e-13
2.33058e-13
2.11426e-13
1.90593e-13
1.70721e-13
1.51943e-13
1.34358e-13
1.18036e-13
1.03018e-13
8.93184e-14
7.6927e-14
6.58123e-14
5.59252e-14
4.72022e-14
3.95689e-14
3.29431e-14
2.72381e-14
2.23654e-14
1.82368e-14
1.47664e-14
1.18725e-14
9.47838e-15
7.51344e-15
5.91347e-15
4.62095e-15
3.58503e-15
2.7613e-15
2.11147e-15
1.60284e-15
1.20788e-15
9.03593e-16
6.71006e-16
4.94624e-16
3.61918e-16
2.62859e-16
1.89497e-16
1.35595e-16
9.63025e-17
6.78854e-17
4.74956e-17
3.29809e-17
2.27297e-17
1.55466e-17
1.05529e-17
7.10828e-18
4.75025e-18
3.14772e-18
2.06543e-18
1.33737e-18
8.46778e-19
5.11355e-19
2.72164e-19
8.5208e-20
1.15321e-18
3.49865e-18
5.9627e-18
8.62899e-18
1.15876e-17
1.49374e-17
1.87895e-17
2.32699e-17
2.8523e-17
3.47161e-17
4.2043e-17
5.07297e-17
6.10398e-17
7.32811e-17
8.78131e-17
1.05056e-16
1.25499e-16
1.49713e-16
1.78366e-16
2.1223e-16
2.52205e-16
2.99337e-16
3.54835e-16
4.20098e-16
4.96745e-16
5.8664e-16
6.91931e-16
8.15087e-16
9.58943e-16
1.12674e-15
1.32221e-15
1.54957e-15
1.81366e-15
2.11998e-15
2.47478e-15
2.88513e-15
3.35904e-15
3.90556e-15
4.53489e-15
5.25849e-15
6.08926e-15
7.04164e-15
8.13176e-15
9.37766e-15
1.07994e-14
1.24194e-14
1.42622e-14
1.63555e-14
1.87293e-14
2.14171e-14
2.44555e-14
2.78848e-14
3.1749e-14
3.60962e-14
4.09787e-14
4.64534e-14
5.25819e-14
5.94309e-14
6.70721e-14
7.55827e-14
8.50454e-14
9.55487e-14
1.07187e-13
1.2006e-13
1.34273e-13
1.49939e-13
1.67176e-13
1.86105e-13
2.06856e-13
2.29563e-13
2.54364e-13
2.814e-13
3.10819e-13
3.4277e-13
3.77403e-13
4.14871e-13
4.55326e-13
4.98921e-13
5.45804e-13
5.96122e-13
6.50014e-13
7.07616e-13
7.69051e-13
8.34436e-13
9.03873e-13
9.77451e-13
1.05524e-12
1.1373e-12
1.22366e-12
1.31432e-12
1.40929e-12
1.5085e-12
1.6119e-12
1.71938e-12
1.8308e-12
1.94599e-12
2.06475e-12
2.18684e-12
2.31197e-12
2.43981e-12
2.57002e-12
2.70218e-12
2.83585e-12
2.97056e-12
3.10579e-12
3.24099e-12
3.37557e-12
3.50892e-12
3.64038e-12
3.7693e-12
3.89498e-12
4.01673e-12
4.13383e-12
4.24557e-12
4.35122e-12
4.4501e-12
4.5415e-12
4.62476e-12
4.69925e-12
4.76435e-12
4.8195e-12
4.86421e-12
4.89802e-12
4.92054e-12
4.93146e-12
4.93053e-12
4.91758e-12
4.89255e-12
4.85545e-12
4.80636e-12
4.74549e-12
4.67312e-12
4.58962e-12
4.49546e-12
4.39118e-12
4.27741e-12
4.15486e-12
4.02432e-12
3.8866e-12
3.74262e-12
3.59331e-12
3.43963e-12
3.2826e-12
3.12322e-12
2.9625e-12
2.80147e-12
2.64111e-12
2.4824e-12
2.32625e-12
2.17356e-12
2.02515e-12
1.88179e-12
1.74419e-12
1.61298e-12
1.48871e-12
1.37185e-12
1.26282e-12
1.16191e-12
1.06937e-12
9.85341e-13
9.0991e-13
8.43075e-13
7.84764e-13
7.34835e-13
6.93084e-13
6.59241e-13
6.32981e-13
6.13923e-13
6.0164e-13
5.95653e-13
5.95448e-13
6.00467e-13
6.10123e-13
6.23799e-13
6.40854e-13
6.60628e-13
6.8245e-13
7.05643e-13
7.29528e-13
7.53439e-13
7.76723e-13
7.98754e-13
8.18941e-13
8.36733e-13
8.51633e-13
8.63203e-13
8.71071e-13
8.74942e-13
8.74596e-13
8.699e-13
8.60803e-13
8.4734e-13
8.29629e-13
8.07868e-13
7.82325e-13
7.53337e-13
7.21296e-13
6.86638e-13
6.49834e-13
6.11378e-13
5.71771e-13
5.31512e-13
4.91086e-13
4.50952e-13
4.11536e-13
3.73221e-13
3.36343e-13
3.01187e-13
2.67981e-13
2.36899e-13
2.08064e-13
1.81543e-13
1.57361e-13
1.35496e-13
1.15891e-13
9.84571e-14
8.30811e-14
6.96302e-14
5.79582e-14
4.79113e-14
3.93325e-14
3.20655e-14
2.59587e-14
2.08676e-14
1.66567e-14
1.32014e-14
1.03886e-14
8.11666e-15
6.29614e-15
4.84881e-15
3.7072e-15
2.81383e-15
2.1202e-15
1.5859e-15
1.17755e-15
8.6793e-16
6.35005e-16
4.61157e-16
3.32423e-16
2.37847e-16
1.68911e-16
1.1906e-16
8.32944e-17
5.7836e-17
3.98571e-17
2.72602e-17
1.85032e-17
1.2463e-17
8.32837e-18
5.51858e-18
3.62104e-18
2.34459e-18
1.48449e-18
8.96457e-19
4.7713e-19
1.4938e-19
2.22764e-18
6.7581e-18
1.15171e-17
1.66658e-17
2.23775e-17
2.8843e-17
3.62758e-17
4.49184e-17
5.50489e-17
6.69887e-17
8.11104e-17
9.78484e-17
1.17709e-16
1.41283e-16
1.6926e-16
2.02446e-16
2.41781e-16
2.88359e-16
3.43457e-16
4.08556e-16
4.85379e-16
5.75925e-16
6.82507e-16
8.07799e-16
9.54892e-16
1.12735e-15
1.32926e-15
1.56533e-15
1.84097e-15
2.16236e-15
2.53655e-15
2.97161e-15
3.47671e-15
4.0623e-15
4.7402e-15
5.52383e-15
6.42835e-15
7.47084e-15
8.67058e-15
1.00492e-14
1.1631e-14
1.34431e-14
1.55158e-14
1.78831e-14
2.05825e-14
2.36559e-14
2.71494e-14
3.11142e-14
3.56067e-14
4.06889e-14
4.64289e-14
5.29011e-14
6.01871e-14
6.83754e-14
7.75624e-14
8.78526e-14
9.93589e-14
1.12203e-13
1.26516e-13
1.42438e-13
1.60119e-13
1.79718e-13
2.01406e-13
2.25362e-13
2.51776e-13
2.80846e-13
3.12782e-13
3.47801e-13
3.86129e-13
4.28e-13
4.73655e-13
5.23341e-13
5.7731e-13
6.35816e-13
6.99116e-13
7.67466e-13
8.41123e-13
9.20335e-13
1.00535e-12
1.0964e-12
1.1937e-12
1.29748e-12
1.40791e-12
1.52517e-12
1.6494e-12
1.78072e-12
1.91921e-12
2.06493e-12
2.21789e-12
2.37806e-12
2.54535e-12
2.71966e-12
2.90079e-12
3.08851e-12
3.28255e-12
3.48253e-12
3.68806e-12
3.89865e-12
4.11376e-12
4.33279e-12
4.55506e-12
4.77984e-12
5.00631e-12
5.23363e-12
5.46088e-12
5.68708e-12
5.9112e-12
6.13218e-12
6.34892e-12
6.56027e-12
6.76509e-12
6.96218e-12
7.15038e-12
7.3285e-12
7.49539e-12
7.6499e-12
7.79094e-12
7.91744e-12
8.02843e-12
8.12296e-12
8.20021e-12
8.25942e-12
8.29994e-12
8.32125e-12
8.32293e-12
8.3047e-12
8.26641e-12
8.20806e-12
8.12979e-12
8.03188e-12
7.91479e-12
7.77908e-12
7.6255e-12
7.4549e-12
7.2683e-12
7.06682e-12
6.85171e-12
6.62431e-12
6.38606e-12
6.13848e-12
5.88314e-12
5.62167e-12
5.35572e-12
5.08694e-12
4.817e-12
4.54752e-12
4.2801e-12
4.01628e-12
3.75752e-12
3.50523e-12
3.26068e-12
3.02506e-12
2.79946e-12
2.58481e-12
2.38195e-12
2.19158e-12
2.01426e-12
1.85043e-12
1.70039e-12
1.56433e-12
1.44229e-12
1.33422e-12
1.23995e-12
1.1592e-12
1.09157e-12
1.03661e-12
9.93737e-13
9.62323e-13
9.41647e-13
9.30928e-13
9.29321e-13
9.35928e-13
9.49804e-13
9.69966e-13
9.95395e-13
1.02505e-12
1.05788e-12
1.09282e-12
1.12881e-12
1.16482e-12
1.19985e-12
1.23291e-12
1.26311e-12
1.2896e-12
1.31163e-12
1.32852e-12
1.33972e-12
1.34478e-12
1.34338e-12
1.33531e-12
1.32053e-12
1.29909e-12
1.27118e-12
1.23712e-12
1.19733e-12
1.15232e-12
1.10271e-12
1.04917e-12
9.92418e-13
9.33215e-13
8.72325e-13
8.10511e-13
7.48511e-13
6.87022e-13
6.26689e-13
5.68094e-13
5.11742e-13
4.5806e-13
4.07393e-13
3.59999e-13
3.16058e-13
2.7567e-13
2.38862e-13
2.056e-13
1.75791e-13
1.49296e-13
1.2594e-13
1.05517e-13
8.78029e-14
7.25612e-14
5.95517e-14
4.85357e-14
3.92818e-14
3.15696e-14
2.5193e-14
1.99623e-14
1.57052e-14
1.22679e-14
9.51433e-15
7.32574e-15
5.59989e-15
4.24963e-15
3.20152e-15
2.39432e-15
1.77754e-15
1.30996e-15
9.58275e-16
6.95833e-16
5.01527e-16
3.58798e-16
2.54779e-16
1.79568e-16
1.25614e-16
8.72138e-17
6.0098e-17
4.1101e-17
2.78962e-17
1.87887e-17
1.25549e-17
8.31888e-18
5.4583e-18
3.5341e-18
2.23761e-18
1.35123e-18
7.19179e-19
2.25161e-19
4.17787e-18
1.26743e-17
2.15981e-17
3.12508e-17
4.19565e-17
5.40719e-17
6.79958e-17
8.41813e-17
1.03148e-16
1.25495e-16
1.51918e-16
1.83228e-16
2.20368e-16
2.64439e-16
3.16728e-16
3.78733e-16
4.52203e-16
5.39177e-16
6.42025e-16
7.63505e-16
9.06814e-16
1.07566e-15
1.27435e-15
1.50783e-15
1.78182e-15
2.10294e-15
2.47875e-15
2.91797e-15
3.43057e-15
4.02797e-15
4.72322e-15
5.53116e-15
6.46871e-15
7.55508e-15
8.81203e-15
1.02642e-14
1.19394e-14
1.3869e-14
1.60882e-14
1.86367e-14
2.15587e-14
2.49038e-14
2.87273e-14
3.30908e-14
3.80626e-14
4.37185e-14
5.01422e-14
5.74261e-14
6.56719e-14
7.49913e-14
8.55067e-14
9.73516e-14
1.10672e-13
1.25625e-13
1.42384e-13
1.61133e-13
1.82074e-13
2.0542e-13
2.31402e-13
2.60267e-13
2.92278e-13
3.27712e-13
3.66866e-13
4.10049e-13
4.57589e-13
5.09828e-13
5.67122e-13
6.29842e-13
6.98371e-13
7.73101e-13
8.54435e-13
9.42784e-13
1.03856e-12
1.14219e-12
1.25407e-12
1.37464e-12
1.50428e-12
1.64339e-12
1.79235e-12
1.95151e-12
2.12121e-12
2.30175e-12
2.49338e-12
2.69634e-12
2.9108e-12
3.13689e-12
3.37467e-12
3.62415e-12
3.88526e-12
4.15785e-12
4.4417e-12
4.73651e-12
5.04188e-12
5.35732e-12
5.68223e-12
6.01594e-12
6.35765e-12
6.70647e-12
7.0614e-12
7.42134e-12
7.7851e-12
8.15135e-12
8.51873e-12
8.88573e-12
9.25079e-12
9.61227e-12
9.96845e-12
1.03176e-11
1.06578e-11
1.09873e-11
1.13042e-11
1.16067e-11
1.18928e-11
1.21608e-11
1.24089e-11
1.26352e-11
1.28382e-11
1.30163e-11
1.31681e-11
1.32922e-11
1.33875e-11
1.34529e-11
1.34877e-11
1.34912e-11
1.3463e-11
1.34028e-11
1.33106e-11
1.31867e-11
1.30315e-11
1.28457e-11
1.26302e-11
1.23862e-11
1.21149e-11
1.1818e-11
1.14972e-11
1.11545e-11
1.07918e-11
1.04116e-11
1.00161e-11
9.60773e-12
9.18911e-12
8.76278e-12
8.33134e-12
7.89738e-12
7.46346e-12
7.03208e-12
6.60567e-12
6.18655e-12
5.77691e-12
5.3788e-12
4.99412e-12
4.62459e-12
4.27174e-12
3.93691e-12
3.62125e-12
3.32569e-12
3.05097e-12
2.79763e-12
2.566e-12
2.35625e-12
2.16833e-12
2.00203e-12
1.85699e-12
1.73268e-12
1.62843e-12
1.54344e-12
1.47677e-12
1.4274e-12
1.39418e-12
1.37588e-12
1.3712e-12
1.37875e-12
1.39709e-12
1.42473e-12
1.46014e-12
1.50176e-12
1.54802e-12
1.59735e-12
1.6482e-12
1.69903e-12
1.74839e-12
1.79487e-12
1.83714e-12
1.87399e-12
1.90434e-12
1.92723e-12
1.94187e-12
1.94763e-12
1.94406e-12
1.9309e-12
1.90808e-12
1.87571e-12
1.83409e-12
1.78368e-12
1.7251e-12
1.65913e-12
1.58665e-12
1.50863e-12
1.42612e-12
1.34021e-12
1.252e-12
1.16259e-12
1.07304e-12
9.8433e-13
8.97392e-13
8.13047e-13
7.32011e-13
6.54887e-13
5.82156e-13
5.14181e-13
4.51206e-13
3.93365e-13
3.4069e-13
2.9312e-13
2.50515e-13
2.12671e-13
1.79329e-13
1.5019e-13
1.24929e-13
1.03205e-13
8.46716e-14
6.89855e-14
5.58143e-14
4.4842e-14
3.57737e-14
2.83378e-14
2.22884e-14
1.74056e-14
1.34953e-14
1.03884e-14
7.93912e-15
6.02345e-15
4.53687e-15
3.39229e-15
2.51794e-15
1.85526e-15
1.35694e-15
9.85156e-16
7.0995e-16
5.07833e-16
3.6056e-16
2.54091e-16
1.77725e-16
1.23382e-16
8.50127e-17
5.81353e-17
3.94547e-17
2.65719e-17
1.77548e-17
1.17637e-17
7.71827e-18
4.99722e-18
3.16391e-18
1.91058e-18
1.01688e-18
3.18365e-19
7.72407e-18
2.34316e-17
3.99273e-17
5.77669e-17
7.75481e-17
9.99279e-17
1.25642e-16
1.55523e-16
1.90529e-16
2.31763e-16
2.80504e-16
3.38243e-16
4.06714e-16
4.8794e-16
5.84284e-16
6.98498e-16
8.33792e-16
9.93903e-16
1.18318e-15
1.40667e-15
1.67024e-15
1.98068e-15
2.34585e-15
2.77481e-15
3.27802e-15
3.86755e-15
4.55722e-15
5.36291e-15
6.30282e-15
7.39774e-15
8.67138e-15
1.01508e-14
1.18666e-14
1.38538e-14
1.61518e-14
1.88053e-14
2.18644e-14
2.5386e-14
2.94337e-14
3.40788e-14
3.94013e-14
4.54901e-14
5.24447e-14
6.03754e-14
6.94047e-14
7.96678e-14
9.13144e-14
1.04509e-13
1.19433e-13
1.36283e-13
1.55278e-13
1.76652e-13
2.00663e-13
2.27589e-13
2.57732e-13
2.91415e-13
3.28989e-13
3.70828e-13
4.17332e-13
4.68926e-13
5.26063e-13
5.89222e-13
6.58907e-13
7.35648e-13
8.19998e-13
9.12537e-13
1.01386e-12
1.12459e-12
1.24536e-12
1.37682e-12
1.51964e-12
1.67446e-12
1.84198e-12
2.02285e-12
2.21773e-12
2.42726e-12
2.65208e-12
2.89277e-12
3.14989e-12
3.42397e-12
3.71547e-12
4.02479e-12
4.35228e-12
4.69819e-12
5.0627e-12
5.44588e-12
5.84772e-12
6.26806e-12
6.70664e-12
7.16307e-12
7.63683e-12
8.12723e-12
8.63346e-12
9.15452e-12
9.68929e-12
1.02365e-11
1.07946e-11
1.1362e-11
1.19369e-11
1.25174e-11
1.31014e-11
1.36867e-11
1.42708e-11
1.48513e-11
1.54255e-11
1.59907e-11
1.65442e-11
1.7083e-11
1.76043e-11
1.81052e-11
1.85826e-11
1.90337e-11
1.94557e-11
1.98458e-11
2.02012e-11
2.05195e-11
2.07983e-11
2.10352e-11
2.12284e-11
2.13761e-11
2.14766e-11
2.15289e-11
2.15319e-11
2.14851e-11
2.1388e-11
2.12408e-11
2.10438e-11
2.07977e-11
2.05037e-11
2.01631e-11
1.97778e-11
1.93498e-11
1.88816e-11
1.83758e-11
1.78355e-11
1.72639e-11
1.66645e-11
1.60407e-11
1.53966e-11
1.47358e-11
1.40625e-11
1.33805e-11
1.26939e-11
1.20067e-11
1.13226e-11
1.06455e-11
9.97882e-12
9.32609e-12
8.69046e-12
8.07487e-12
7.482e-12
6.91425e-12
6.37373e-12
5.86224e-12
5.3813e-12
4.93209e-12
4.51549e-12
4.13209e-12
3.7822e-12
3.46583e-12
3.18273e-12
2.93241e-12
2.71414e-12
2.52698e-12
2.36977e-12
2.24121e-12
2.13979e-12
2.06387e-12
2.01169e-12
1.98136e-12
1.97089e-12
1.97819e-12
2.00112e-12
2.03746e-12
2.08498e-12
2.14139e-12
2.20442e-12
2.2718e-12
2.34129e-12
2.41074e-12
2.47803e-12
2.54119e-12
2.59835e-12
2.64782e-12
2.68807e-12
2.71779e-12
2.73589e-12
2.74152e-12
2.73406e-12
2.7132e-12
2.67885e-12
2.63121e-12
2.57073e-12
2.49807e-12
2.41415e-12
2.32005e-12
2.21702e-12
2.10645e-12
1.98981e-12
1.86863e-12
1.74445e-12
1.61878e-12
1.4931e-12
1.36878e-12
1.24711e-12
1.1292e-12
1.01604e-12
9.08463e-13
8.07111e-13
7.12473e-13
6.24874e-13
5.44483e-13
4.7133e-13
4.05317e-13
3.46237e-13
2.93794e-13
2.4762e-13
2.07293e-13
1.72354e-13
1.42324e-13
1.16719e-13
9.50585e-14
7.68804e-14
6.17445e-14
4.92408e-14
3.89925e-14
3.06587e-14
2.39347e-14
1.85521e-14
1.42769e-14
1.09079e-14
8.27372e-15
6.23022e-15
4.65734e-15
3.45616e-15
2.54602e-15
1.86179e-15
1.35143e-15
9.73729e-16
6.96402e-16
4.94367e-16
3.48337e-16
2.43614e-16
1.69103e-16
1.16503e-16
7.96621e-17
5.40596e-17
3.64051e-17
2.43236e-17
1.61151e-17
1.05728e-17
6.84513e-18
4.33377e-18
2.61697e-18
1.39283e-18
4.36068e-19
1.41334e-17
4.28735e-17
7.30523e-17
1.05684e-16
1.41859e-16
1.82776e-16
2.29777e-16
2.84381e-16
3.48332e-16
4.23639e-16
5.12636e-16
6.18031e-16
7.42984e-16
8.91176e-16
1.0669e-15
1.27516e-15
1.52179e-15
1.81358e-15
2.15842e-15
2.56548e-15
3.04538e-15
3.61044e-15
4.27489e-15
5.05516e-15
5.97018e-15
7.04174e-15
8.29486e-15
9.75822e-15
1.14647e-14
1.34517e-14
1.5762e-14
1.84443e-14
2.15539e-14
2.51534e-14
2.93138e-14
3.4115e-14
3.96473e-14
4.60122e-14
5.33235e-14
6.17087e-14
7.13102e-14
8.22868e-14
9.48153e-14
1.09092e-13
1.25333e-13
1.4378e-13
1.64695e-13
1.88371e-13
2.15124e-13
2.45305e-13
2.79293e-13
3.17501e-13
3.60378e-13
4.0841e-13
4.6212e-13
5.22071e-13
5.88866e-13
6.63152e-13
7.45615e-13
8.36985e-13
9.38033e-13
1.04957e-12
1.17246e-12
1.30759e-12
1.45589e-12
1.61832e-12
1.79588e-12
1.9896e-12
2.2005e-12
2.42966e-12
2.67815e-12
2.94702e-12
3.23735e-12
3.55019e-12
3.88655e-12
4.24743e-12
4.63376e-12
5.04643e-12
5.48624e-12
5.95391e-12
6.45007e-12
6.97523e-12
7.52975e-12
8.11389e-12
8.72773e-12
9.37116e-12
1.00439e-11
1.07455e-11
1.14753e-11
1.22323e-11
1.30155e-11
1.38234e-11
1.46544e-11
1.55066e-11
1.6378e-11
1.72661e-11
1.81682e-11
1.90816e-11
2.0003e-11
2.0929e-11
2.18562e-11
2.27806e-11
2.36984e-11
2.46052e-11
2.5497e-11
2.63692e-11
2.72173e-11
2.80368e-11
2.88231e-11
2.95716e-11
3.02779e-11
3.09375e-11
3.15461e-11
3.20997e-11
3.25942e-11
3.30261e-11
3.3392e-11
3.36888e-11
3.39139e-11
3.40651e-11
3.41405e-11
3.41387e-11
3.40588e-11
3.39005e-11
3.36639e-11
3.33496e-11
3.2959e-11
3.24936e-11
3.19559e-11
3.13485e-11
3.06747e-11
2.99384e-11
2.91436e-11
2.82951e-11
2.73978e-11
2.64569e-11
2.54781e-11
2.44672e-11
2.34301e-11
2.23729e-11
2.13017e-11
2.02226e-11
1.91416e-11
1.80647e-11
1.69976e-11
1.59458e-11
1.49145e-11
1.39086e-11
1.29326e-11
1.19907e-11
1.10866e-11
1.02235e-11
9.40434e-12
8.63134e-12
7.90644e-12
7.23106e-12
6.60617e-12
6.03229e-12
5.50954e-12
5.03763e-12
4.61588e-12
4.24328e-12
3.91849e-12
3.63987e-12
3.40551e-12
3.21327e-12
3.06079e-12
2.9455e-12
2.86469e-12
2.81548e-12
2.7949e-12
2.79984e-12
2.82714e-12
2.87358e-12
2.93588e-12
3.01076e-12
3.09497e-12
3.18527e-12
3.2785e-12
3.37159e-12
3.46162e-12
3.5458e-12
3.62157e-12
3.68658e-12
3.73873e-12
3.77623e-12
3.79761e-12
3.80173e-12
3.7878e-12
3.7554e-12
3.70449e-12
3.63536e-12
3.54868e-12
3.44543e-12
3.32689e-12
3.19458e-12
3.05026e-12
2.89584e-12
2.73338e-12
2.56497e-12
2.39273e-12
2.21875e-12
2.04504e-12
1.87347e-12
1.70577e-12
1.54347e-12
1.38791e-12
1.24017e-12
1.10113e-12
9.71434e-13
8.51496e-13
7.41527e-13
6.41544e-13
5.51392e-13
4.70773e-13
3.99263e-13
3.36346e-13
2.81433e-13
2.33889e-13
1.9305e-13
1.58249e-13
1.28828e-13
1.04149e-13
8.36118e-14
6.66544e-14
5.27626e-14
4.1471e-14
3.23648e-14
2.50781e-14
1.92931e-14
1.4736e-14
1.11742e-14
8.41204e-15
6.28671e-15
4.66416e-15
3.4351e-15
2.51139e-15
1.82258e-15
1.31295e-15
9.38842e-16
6.6636e-16
4.69453e-16
3.28271e-16
2.27837e-16
1.56949e-16
1.07306e-16
7.28124e-17
4.90296e-17
3.2756e-17
2.17005e-17
1.42365e-17
9.21681e-18
5.83516e-18
3.52352e-18
1.8753e-18
5.8712e-19
2.56222e-17
7.77229e-17
1.32426e-16
1.91565e-16
2.57112e-16
3.31236e-16
4.16358e-16
5.15227e-16
6.3099e-16
7.67279e-16
9.283e-16
1.11895e-15
1.34491e-15
1.61284e-15
1.93046e-15
2.30681e-15
2.75237e-15
3.27938e-15
3.90203e-15
4.63682e-15
5.50286e-15
6.52227e-15
7.72062e-15
9.1274e-15
1.07766e-14
1.27072e-14
1.49642e-14
1.75989e-14
2.067e-14
2.42446e-14
2.83992e-14
3.32206e-14
3.88075e-14
4.52716e-14
5.27392e-14
6.13527e-14
7.12726e-14
8.26789e-14
9.57737e-14
1.10783e-13
1.27959e-13
1.47581e-13
1.69963e-13
1.9545e-13
2.24423e-13
2.57304e-13
2.94557e-13
3.36691e-13
3.84263e-13
4.3788e-13
4.98205e-13
5.65955e-13
6.41909e-13
7.26906e-13
8.21849e-13
9.27706e-13
1.04551e-12
1.17638e-12
1.32146e-12
1.48201e-12
1.65934e-12
1.85481e-12
2.06985e-12
2.30597e-12
2.56471e-12
2.84767e-12
3.15649e-12
3.49283e-12
3.8584e-12
4.2549e-12
4.68405e-12
5.14753e-12
5.64703e-12
6.18416e-12
6.76049e-12
7.37751e-12
8.0366e-12
8.73902e-12
9.48589e-12
1.02782e-11
1.11166e-11
1.20018e-11
1.29341e-11
1.39135e-11
1.49398e-11
1.60125e-11
1.71308e-11
1.82935e-11
1.94991e-11
2.07456e-11
2.20308e-11
2.33521e-11
2.47062e-11
2.60898e-11
2.7499e-11
2.89295e-11
3.03766e-11
3.18352e-11
3.33e-11
3.47652e-11
3.62248e-11
3.76724e-11
3.91014e-11
4.05051e-11
4.18764e-11
4.32083e-11
4.44938e-11
4.57255e-11
4.68964e-11
4.79996e-11
4.90281e-11
4.99755e-11
5.08352e-11
5.16014e-11
5.22686e-11
5.28315e-11
5.32857e-11
5.36272e-11
5.38526e-11
5.39592e-11
5.39451e-11
5.3809e-11
5.35506e-11
5.31702e-11
5.26689e-11
5.20488e-11
5.13127e-11
5.04642e-11
4.95077e-11
4.84483e-11
4.72919e-11
4.6045e-11
4.47147e-11
4.33086e-11
4.18351e-11
4.03025e-11
3.87198e-11
3.70962e-11
3.54408e-11
3.37632e-11
3.20725e-11
3.03781e-11
2.86889e-11
2.70137e-11
2.5361e-11
2.37387e-11
2.21542e-11
2.06146e-11
1.91261e-11
1.76946e-11
1.63249e-11
1.50215e-11
1.37881e-11
1.26275e-11
1.1542e-11
1.05333e-11
9.60204e-12
8.74867e-12
7.97278e-12
7.27349e-12
6.64934e-12
6.09842e-12
5.61836e-12
5.20642e-12
4.85946e-12
4.57406e-12
4.34652e-12
4.17289e-12
4.04902e-12
3.97061e-12
3.93319e-12
3.9322e-12
3.96301e-12
4.02093e-12
4.10124e-12
4.19925e-12
4.31031e-12
4.42987e-12
4.55347e-12
4.67682e-12
4.79585e-12
4.90671e-12
5.00586e-12
5.09008e-12
5.15654e-12
5.20281e-12
5.22691e-12
5.22734e-12
5.20307e-12
5.15362e-12
5.07896e-12
4.97959e-12
4.85646e-12
4.71097e-12
4.54492e-12
4.36044e-12
4.15996e-12
3.94613e-12
3.72175e-12
3.48969e-12
3.25284e-12
3.01405e-12
2.77601e-12
2.54128e-12
2.31216e-12
2.09072e-12
1.87873e-12
1.67764e-12
1.48859e-12
1.31243e-12
1.14969e-12
1.00061e-12
8.65189e-13
7.43189e-13
6.34176e-13
5.37558e-13
4.52613e-13
3.78526e-13
3.14425e-13
2.59401e-13
2.12541e-13
1.72948e-13
1.39758e-13
1.12152e-13
8.93706e-14
7.0717e-14
5.55624e-14
4.33464e-14
3.35759e-14
2.58221e-14
1.97166e-14
1.49465e-14
1.12486e-14
8.40434e-15
6.23363e-15
4.58988e-15
3.35486e-15
2.43418e-15
1.75318e-15
1.25339e-15
8.8946e-16
6.26523e-16
4.38038e-16
3.03979e-16
2.09374e-16
1.43133e-16
9.71126e-17
6.53868e-17
4.36807e-17
2.89361e-17
1.89824e-17
1.22888e-17
7.77977e-18
4.69767e-18
2.50018e-18
7.82754e-19
4.60348e-17
1.39639e-16
2.37909e-16
3.44132e-16
4.61845e-16
5.94929e-16
7.47728e-16
9.25163e-16
1.13287e-15
1.37735e-15
1.66613e-15
2.00796e-15
2.41304e-15
2.89322e-15
3.46234e-15
4.13652e-15
4.93452e-15
5.87814e-15
6.99276e-15
8.30776e-15
9.85725e-15
1.16806e-14
1.38235e-14
1.63383e-14
1.92856e-14
2.27348e-14
2.67656e-14
3.14693e-14
3.69503e-14
4.33275e-14
5.07364e-14
5.9331e-14
6.9286e-14
8.07988e-14
9.40928e-14
1.09419e-13
1.27062e-13
1.47337e-13
1.70601e-13
1.97251e-13
2.27729e-13
2.62528e-13
3.02195e-13
3.47333e-13
3.98611e-13
4.56763e-13
5.22597e-13
5.96998e-13
6.80931e-13
7.7545e-13
8.817e-13
1.00092e-12
1.13444e-12
1.28372e-12
1.45029e-12
1.6358e-12
1.84204e-12
2.07086e-12
2.32425e-12
2.6043e-12
2.91321e-12
3.25328e-12
3.6269e-12
4.03654e-12
4.48477e-12
4.9742e-12
5.50752e-12
6.08744e-12
6.71668e-12
7.39799e-12
8.13406e-12
8.92757e-12
9.78109e-12
1.06971e-11
1.1678e-11
1.27259e-11
1.38429e-11
1.50306e-11
1.62906e-11
1.76241e-11
1.90318e-11
2.05142e-11
2.20714e-11
2.3703e-11
2.54079e-11
2.71849e-11
2.90319e-11
3.09464e-11
3.29252e-11
3.49646e-11
3.70602e-11
3.9207e-11
4.13994e-11
4.3631e-11
4.58949e-11
4.81836e-11
5.04891e-11
5.28026e-11
5.51149e-11
5.74165e-11
5.96972e-11
6.19466e-11
6.4154e-11
6.63083e-11
6.83986e-11
7.04135e-11
7.23419e-11
7.41728e-11
7.58953e-11
7.74987e-11
7.8973e-11
8.03083e-11
8.14955e-11
8.25262e-11
8.33926e-11
8.40878e-11
8.4606e-11
8.4942e-11
8.50921e-11
8.50535e-11
8.48244e-11
8.44046e-11
8.37948e-11
8.29971e-11
8.20147e-11
8.08523e-11
7.95155e-11
7.80113e-11
7.63478e-11
7.45341e-11
7.25803e-11
7.04975e-11
6.82975e-11
6.59929e-11
6.35968e-11
6.11229e-11
5.85852e-11
5.59979e-11
5.33752e-11
5.07316e-11
4.8081e-11
4.54373e-11
4.28138e-11
4.02233e-11
3.76782e-11
3.51897e-11
3.27685e-11
3.04244e-11
2.81661e-11
2.60013e-11
2.39368e-11
2.19781e-11
2.013e-11
1.83958e-11
1.67782e-11
1.52785e-11
1.38973e-11
1.26342e-11
1.14879e-11
1.04565e-11
9.53712e-12
8.72636e-12
8.02018e-12
7.41405e-12
6.90294e-12
6.48146e-12
6.14385e-12
5.88407e-12
5.69585e-12
5.57275e-12
5.50815e-12
5.49537e-12
5.52763e-12
5.59817e-12
5.70022e-12
5.8271e-12
5.97221e-12
6.12914e-12
6.29165e-12
6.45377e-12
6.60986e-12
6.75462e-12
6.88319e-12
6.99119e-12
7.07478e-12
7.1307e-12
7.15632e-12
7.14966e-12
7.10942e-12
7.035e-12
6.92648e-12
6.78461e-12
6.61078e-12
6.40696e-12
6.17567e-12
5.91987e-12
5.64289e-12
5.34837e-12
5.04013e-12
4.72208e-12
4.39813e-12
4.07212e-12
3.7477e-12
3.42827e-12
3.11694e-12
2.81643e-12
2.52911e-12
2.25688e-12
2.00124e-12
1.76328e-12
1.54366e-12
1.34267e-12
1.16027e-12
9.96079e-13
8.49492e-13
7.19673e-13
6.05626e-13
5.06231e-13
4.20291e-13
3.46571e-13
2.83831e-13
2.30852e-13
1.86467e-13
1.49571e-13
1.19139e-13
9.42346e-14
7.40119e-14
5.77184e-14
4.46925e-14
3.43598e-14
2.62271e-14
1.98757e-14
1.49539e-14
1.11696e-14
8.28245e-15
6.0969e-15
4.45532e-15
3.23191e-15
2.32724e-15
1.66347e-15
1.18025e-15
8.31212e-16
5.81056e-16
4.03169e-16
2.77658e-16
1.89791e-16
1.28755e-16
8.66839e-17
5.79032e-17
3.83551e-17
2.516e-17
1.62873e-17
1.03108e-17
6.22585e-18
3.31347e-18
1.03737e-18
8.19765e-17
2.48658e-16
4.23631e-16
6.1274e-16
8.22267e-16
1.05911e-15
1.33099e-15
1.64663e-15
2.01606e-15
2.45079e-15
2.9642e-15
3.57181e-15
4.29168e-15
5.14486e-15
6.15586e-15
7.35324e-15
8.77021e-15
1.04454e-14
1.24237e-14
1.47571e-14
1.7506e-14
2.074e-14
2.45395e-14
2.89974e-14
3.42204e-14
4.03312e-14
4.74702e-14
5.57983e-14
6.54994e-14
7.67829e-14
8.98871e-14
1.05083e-13
1.22676e-13
1.43015e-13
1.6649e-13
1.93543e-13
2.24667e-13
2.6042e-13
3.01421e-13
3.48365e-13
4.02022e-13
4.63251e-13
5.33001e-13
6.12322e-13
7.02373e-13
8.04425e-13
9.19874e-13
1.05025e-12
1.19721e-12
1.36258e-12
1.5483e-12
1.75652e-12
1.98951e-12
2.24973e-12
2.53981e-12
2.86256e-12
3.22096e-12
3.61817e-12
4.05753e-12
4.54254e-12
5.07687e-12
5.66433e-12
6.30889e-12
7.01463e-12
7.78574e-12
8.6265e-12
9.54125e-12
1.05343e-11
1.16101e-11
1.2773e-11
1.40271e-11
1.53767e-11
1.68256e-11
1.83776e-11
2.00362e-11
2.18045e-11
2.36853e-11
2.5681e-11
2.77932e-11
3.00234e-11
3.23721e-11
3.48393e-11
3.74243e-11
4.01255e-11
4.29405e-11
4.5866e-11
4.8898e-11
5.20311e-11
5.52594e-11
5.85757e-11
6.19719e-11
6.54388e-11
6.89663e-11
7.25433e-11
7.61576e-11
7.97964e-11
8.34457e-11
8.7091e-11
9.07169e-11
9.43073e-11
9.78458e-11
1.01315e-10
1.04699e-10
1.07978e-10
1.11137e-10
1.14156e-10
1.1702e-10
1.1971e-10
1.22212e-10
1.24508e-10
1.26584e-10
1.28426e-10
1.30021e-10
1.31358e-10
1.32425e-10
1.33214e-10
1.33718e-10
1.33931e-10
1.33849e-10
1.33469e-10
1.32792e-10
1.3182e-10
1.30555e-10
1.29003e-10
1.27172e-10
1.25071e-10
1.2271e-10
1.20103e-10
1.17263e-10
1.14206e-10
1.1095e-10
1.07512e-10
1.03913e-10
1.00172e-10
9.63106e-11
9.23499e-11
8.83117e-11
8.42181e-11
8.00908e-11
7.59513e-11
7.18208e-11
6.77196e-11
6.36674e-11
5.96827e-11
5.57832e-11