/*--------------------------------*- C++ -*----------------------------------*\
| =========                 |                                                 |
| \\      /  F ield         | OpenFOAM: The Open Source CFD Toolbox           |
|  \\    /   O peration     | Version:  v2012                                 |
|   \\  /    A nd           | Website:  www.openfoam.com                      |
|    \\/     M anipulation  |                                                 |
\*---------------------------------------------------------------------------*/
FoamFile
{
    version     2.0;
    format      ascii;
    class       volVectorField;
    location    "6.1";
    object      U;
}
// * * * * * * * * * * * * * * * * * * * * * * * * * * * * * * * * * * * * * //

dimensions      [0 1 -1 0 0 0 0];


internalField   nonuniform List<vector> 
65536
(
(0.00074772 -0.00074771 0)
(0.00224314 -0.000747685 0)
(0.00373848 -0.000747637 0)
(0.00523371 -0.000747566 0)
(0.00672876 -0.00074747 0)
(0.00822361 -0.000747349 0)
(0.00971819 -0.000747203 0)
(0.0112124 -0.00074703 0)
(0.0127063 -0.000746829 0)
(0.0141998 -0.000746599 0)
(0.0156928 -0.00074634 0)
(0.0171852 -0.000746048 0)
(0.018677 -0.000745724 0)
(0.0201681 -0.000745364 0)
(0.0216585 -0.000744968 0)
(0.023148 -0.000744533 0)
(0.0246366 -0.000744057 0)
(0.0261243 -0.000743538 0)
(0.0276108 -0.000742974 0)
(0.0290962 -0.000742361 0)
(0.0305803 -0.000741698 0)
(0.0320631 -0.000740982 0)
(0.0335443 -0.000740208 0)
(0.035024 -0.000739376 0)
(0.0365019 -0.000738481 0)
(0.0379779 -0.00073752 0)
(0.039452 -0.000736491 0)
(0.040924 -0.000735388 0)
(0.0423936 -0.00073421 0)
(0.0438609 -0.000732952 0)
(0.0453255 -0.00073161 0)
(0.0467874 -0.000730182 0)
(0.0482463 -0.000728662 0)
(0.0497022 -0.000727047 0)
(0.0511546 -0.000725333 0)
(0.0526036 -0.000723516 0)
(0.0540488 -0.000721592 0)
(0.0554901 -0.000719556 0)
(0.0569271 -0.000717404 0)
(0.0583598 -0.000715132 0)
(0.0597878 -0.000712737 0)
(0.0612109 -0.000710212 0)
(0.0626288 -0.000707555 0)
(0.0640412 -0.00070476 0)
(0.0654479 -0.000701825 0)
(0.0668487 -0.000698743 0)
(0.0682431 -0.000695512 0)
(0.0696309 -0.000692126 0)
(0.0710117 -0.000688583 0)
(0.0723853 -0.000684877 0)
(0.0737514 -0.000681004 0)
(0.0751095 -0.000676962 0)
(0.0764594 -0.000672745 0)
(0.0778007 -0.000668351 0)
(0.079133 -0.000663775 0)
(0.080456 -0.000659015 0)
(0.0817692 -0.000654066 0)
(0.0830724 -0.000648926 0)
(0.0843651 -0.000643592 0)
(0.085647 -0.00063806 0)
(0.0869176 -0.000632329 0)
(0.0881765 -0.000626395 0)
(0.0894234 -0.000620257 0)
(0.0906577 -0.000613912 0)
(0.0918792 -0.000607359 0)
(0.0930874 -0.000600596 0)
(0.0942818 -0.000593622 0)
(0.0954621 -0.000586436 0)
(0.0966278 -0.000579036 0)
(0.0977784 -0.000571423 0)
(0.0989137 -0.000563597 0)
(0.100033 -0.000555556 0)
(0.101136 -0.000547302 0)
(0.102222 -0.000538835 0)
(0.103292 -0.000530157 0)
(0.104343 -0.000521268 0)
(0.105377 -0.00051217 0)
(0.106392 -0.000502865 0)
(0.107389 -0.000493356 0)
(0.108366 -0.000483644 0)
(0.109323 -0.000473733 0)
(0.110261 -0.000463626 0)
(0.111178 -0.000453326 0)
(0.112074 -0.000442837 0)
(0.11295 -0.000432163 0)
(0.113803 -0.000421309 0)
(0.114635 -0.000410279 0)
(0.115445 -0.000399079 0)
(0.116231 -0.000387713 0)
(0.116996 -0.000376187 0)
(0.117736 -0.000364508 0)
(0.118454 -0.00035268 0)
(0.119147 -0.000340711 0)
(0.119817 -0.000328607 0)
(0.120462 -0.000316375 0)
(0.121082 -0.000304022 0)
(0.121678 -0.000291555 0)
(0.122249 -0.000278981 0)
(0.122794 -0.000266307 0)
(0.123314 -0.000253543 0)
(0.123808 -0.000240694 0)
(0.124277 -0.00022777 0)
(0.124719 -0.000214778 0)
(0.125136 -0.000201726 0)
(0.125526 -0.000188623 0)
(0.125891 -0.000175476 0)
(0.126228 -0.000162294 0)
(0.12654 -0.000149086 0)
(0.126825 -0.000135858 0)
(0.127083 -0.00012262 0)
(0.127315 -0.00010938 0)
(0.127521 -9.61459e-05 0)
(0.1277 -8.29255e-05 0)
(0.127852 -6.97268e-05 0)
(0.127979 -5.65579e-05 0)
(0.128079 -4.34264e-05 0)
(0.128152 -3.03399e-05 0)
(0.1282 -1.73059e-05 0)
(0.128221 -4.3318e-06 0)
(0.128217 8.57537e-06 0)
(0.128187 2.14086e-05 0)
(0.128131 3.41611e-05 0)
(0.12805 4.68264e-05 0)
(0.127944 5.93979e-05 0)
(0.127813 7.18697e-05 0)
(0.127656 8.42357e-05 0)
(0.127476 9.64903e-05 0)
(0.12727 0.000108628 0)
(0.127041 0.000120644 0)
(0.126788 0.000132532 0)
(0.126511 0.000144289 0)
(0.12621 0.000155909 0)
(0.125887 0.000167389 0)
(0.125541 0.000178724 0)
(0.125172 0.000189911 0)
(0.124781 0.000200947 0)
(0.124368 0.000211827 0)
(0.123933 0.00022255 0)
(0.123478 0.000233112 0)
(0.123001 0.000243511 0)
(0.122503 0.000253745 0)
(0.121986 0.000263812 0)
(0.121448 0.00027371 0)
(0.120891 0.000283437 0)
(0.120314 0.000292993 0)
(0.119719 0.000302376 0)
(0.119104 0.000311585 0)
(0.118472 0.00032062 0)
(0.117822 0.00032948 0)
(0.117154 0.000338165 0)
(0.116469 0.000346675 0)
(0.115767 0.00035501 0)
(0.115049 0.00036317 0)
(0.114314 0.000371156 0)
(0.113564 0.000378969 0)
(0.112798 0.000386608 0)
(0.112017 0.000394076 0)
(0.111222 0.000401373 0)
(0.110412 0.0004085 0)
(0.109588 0.000415458 0)
(0.10875 0.00042225 0)
(0.107898 0.000428876 0)
(0.107034 0.000435338 0)
(0.106157 0.000441638 0)
(0.105267 0.000447777 0)
(0.104366 0.000453758 0)
(0.103452 0.000459582 0)
(0.102527 0.000465252 0)
(0.101591 0.00047077 0)
(0.100644 0.000476137 0)
(0.0996862 0.000481356 0)
(0.0987183 0.000486429 0)
(0.0977404 0.000491359 0)
(0.0967527 0.000496147 0)
(0.0957557 0.000500797 0)
(0.0947494 0.00050531 0)
(0.0937343 0.000509689 0)
(0.0927105 0.000513936 0)
(0.0916784 0.000518054 0)
(0.0906382 0.000522045 0)
(0.0895901 0.000525912 0)
(0.0885344 0.000529657 0)
(0.0874714 0.000533283 0)
(0.0864012 0.000536792 0)
(0.0853241 0.000540186 0)
(0.0842403 0.000543469 0)
(0.0831501 0.000546642 0)
(0.0820537 0.000549708 0)
(0.0809512 0.00055267 0)
(0.0798429 0.000555529 0)
(0.078729 0.000558288 0)
(0.0776096 0.00056095 0)
(0.0764851 0.000563517 0)
(0.0753555 0.000565992 0)
(0.074221 0.000568376 0)
(0.0730819 0.000570672 0)
(0.0719382 0.000572882 0)
(0.0707903 0.000575008 0)
(0.0696381 0.000577054 0)
(0.068482 0.00057902 0)
(0.067322 0.00058091 0)
(0.0661583 0.000582724 0)
(0.064991 0.000584466 0)
(0.0638203 0.000586138 0)
(0.0626464 0.000587741 0)
(0.0614693 0.000589277 0)
(0.0602892 0.000590749 0)
(0.0591062 0.000592159 0)
(0.0579205 0.000593508 0)
(0.0567322 0.000594798 0)
(0.0555413 0.000596032 0)
(0.054348 0.00059721 0)
(0.0531524 0.000598336 0)
(0.0519546 0.00059941 0)
(0.0507547 0.000600434 0)
(0.0495528 0.00060141 0)
(0.048349 0.00060234 0)
(0.0471434 0.000603226 0)
(0.0459361 0.000604068 0)
(0.0447271 0.000604869 0)
(0.0435165 0.000605629 0)
(0.0423045 0.000606351 0)
(0.0410911 0.000607036 0)
(0.0398763 0.000607686 0)
(0.0386603 0.000608301 0)
(0.0374431 0.000608883 0)
(0.0362248 0.000609433 0)
(0.0350054 0.000609953 0)
(0.0337849 0.000610443 0)
(0.0325636 0.000610906 0)
(0.0313413 0.000611341 0)
(0.0301182 0.000611751 0)
(0.0288943 0.000612136 0)
(0.0276696 0.000612497 0)
(0.0264442 0.000612835 0)
(0.0252182 0.000613152 0)
(0.0239916 0.000613447 0)
(0.0227644 0.000613723 0)
(0.0215367 0.000613979 0)
(0.0203085 0.000614217 0)
(0.0190798 0.000614437 0)
(0.0178507 0.000614639 0)
(0.0166212 0.000614826 0)
(0.0153914 0.000614996 0)
(0.0141612 0.000615151 0)
(0.0129308 0.000615292 0)
(0.0117001 0.000615418 0)
(0.0104691 0.00061553 0)
(0.00923793 0.000615629 0)
(0.00800657 0.000615715 0)
(0.00677505 0.000615788 0)
(0.00554341 0.000615848 0)
(0.00431165 0.000615896 0)
(0.00307981 0.000615932 0)
(0.00184791 0.000615956 0)
(0.000615974 0.000615968 0)
(0.000747742 -0.00224315 0)
(0.0022432 -0.00224307 0)
(0.00373859 -0.00224293 0)
(0.00523387 -0.00224272 0)
(0.00672897 -0.00224243 0)
(0.00822387 -0.00224207 0)
(0.00971849 -0.00224163 0)
(0.0112128 -0.00224111 0)
(0.0127067 -0.00224051 0)
(0.0142003 -0.00223983 0)
(0.0156933 -0.00223905 0)
(0.0171858 -0.00223817 0)
(0.0186776 -0.0022372 0)
(0.0201688 -0.00223613 0)
(0.0216593 -0.00223494 0)
(0.0231489 -0.00223364 0)
(0.0246376 -0.00223221 0)
(0.0261253 -0.00223066 0)
(0.027612 -0.00222897 0)
(0.0290975 -0.00222713 0)
(0.0305817 -0.00222515 0)
(0.0320645 -0.002223 0)
(0.0335459 -0.00222068 0)
(0.0350256 -0.00221819 0)
(0.0365037 -0.00221551 0)
(0.0379799 -0.00221263 0)
(0.0394541 -0.00220954 0)
(0.0409262 -0.00220624 0)
(0.042396 -0.00220271 0)
(0.0438634 -0.00219894 0)
(0.0453283 -0.00219492 0)
(0.0467903 -0.00219063 0)
(0.0482494 -0.00218608 0)
(0.0497054 -0.00218124 0)
(0.0511581 -0.0021761 0)
(0.0526073 -0.00217065 0)
(0.0540527 -0.00216488 0)
(0.0554942 -0.00215878 0)
(0.0569315 -0.00215233 0)
(0.0583644 -0.00214552 0)
(0.0597927 -0.00213834 0)
(0.061216 -0.00213077 0)
(0.0626342 -0.0021228 0)
(0.0640469 -0.00211442 0)
(0.0654539 -0.00210562 0)
(0.0668549 -0.00209638 0)
(0.0682496 -0.00208669 0)
(0.0696377 -0.00207653 0)
(0.0710189 -0.00206591 0)
(0.0723929 -0.00205479 0)
(0.0737592 -0.00204318 0)
(0.0751177 -0.00203106 0)
(0.076468 -0.00201841 0)
(0.0778096 -0.00200523 0)
(0.0791423 -0.00199151 0)
(0.0804656 -0.00197723 0)
(0.0817793 -0.00196239 0)
(0.0830828 -0.00194697 0)
(0.0843759 -0.00193097 0)
(0.0856582 -0.00191438 0)
(0.0869292 -0.00189719 0)
(0.0881885 -0.00187939 0)
(0.0894358 -0.00186098 0)
(0.0906705 -0.00184194 0)
(0.0918924 -0.00182229 0)
(0.093101 -0.001802 0)
(0.0942959 -0.00178108 0)
(0.0954766 -0.00175952 0)
(0.0966427 -0.00173732 0)
(0.0977938 -0.00171448 0)
(0.0989294 -0.001691 0)
(0.100049 -0.00166688 0)
(0.101153 -0.00164212 0)
(0.10224 -0.00161672 0)
(0.103309 -0.00159068 0)
(0.104361 -0.00156401 0)
(0.105395 -0.00153672 0)
(0.106411 -0.0015088 0)
(0.107408 -0.00148027 0)
(0.108385 -0.00145113 0)
(0.109343 -0.00142139 0)
(0.110281 -0.00139107 0)
(0.111199 -0.00136016 0)
(0.112095 -0.00132869 0)
(0.112971 -0.00129667 0)
(0.113825 -0.0012641 0)
(0.114657 -0.00123101 0)
(0.115467 -0.0011974 0)
(0.116254 -0.0011633 0)
(0.117019 -0.00112871 0)
(0.11776 -0.00109367 0)
(0.118477 -0.00105818 0)
(0.119171 -0.00102227 0)
(0.119841 -0.00098595 0)
(0.120486 -0.000949247 0)
(0.121107 -0.00091218 0)
(0.121703 -0.00087477 0)
(0.122274 -0.000837041 0)
(0.122819 -0.000799014 0)
(0.123339 -0.000760712 0)
(0.123834 -0.000722159 0)
(0.124303 -0.000683378 0)
(0.124745 -0.000644394 0)
(0.125162 -0.00060523 0)
(0.125553 -0.000565912 0)
(0.125917 -0.000526464 0)
(0.126255 -0.000486911 0)
(0.126566 -0.000447276 0)
(0.126851 -0.000407586 0)
(0.12711 -0.000367864 0)
(0.127342 -0.000328136 0)
(0.127547 -0.000288425 0)
(0.127726 -0.000248756 0)
(0.127879 -0.000209152 0)
(0.128005 -0.000169638 0)
(0.128105 -0.000130235 0)
(0.128178 -9.09686e-05 0)
(0.128226 -5.18595e-05 0)
(0.128247 -1.293e-05 0)
(0.128243 2.57984e-05 0)
(0.128213 6.43049e-05 0)
(0.128157 0.000102569 0)
(0.128076 0.000140571 0)
(0.127969 0.000178292 0)
(0.127837 0.000215713 0)
(0.127681 0.000252817 0)
(0.1275 0.000289586 0)
(0.127294 0.000326004 0)
(0.127065 0.000362056 0)
(0.126811 0.000397726 0)
(0.126534 0.000433 0)
(0.126233 0.000467865 0)
(0.12591 0.000502308 0)
(0.125563 0.000536318 0)
(0.125194 0.000569883 0)
(0.124803 0.000602992 0)
(0.124389 0.000635637 0)
(0.123955 0.000667807 0)
(0.123498 0.000699496 0)
(0.123021 0.000730696 0)
(0.122524 0.0007614 0)
(0.122006 0.000791602 0)
(0.121468 0.000821297 0)
(0.12091 0.00085048 0)
(0.120333 0.000879148 0)
(0.119737 0.000907297 0)
(0.119123 0.000934925 0)
(0.11849 0.00096203 0)
(0.117839 0.000988611 0)
(0.117171 0.00101467 0)
(0.116486 0.0010402 0)
(0.115783 0.0010652 0)
(0.115065 0.00108968 0)
(0.11433 0.00111364 0)
(0.113579 0.00113708 0)
(0.112813 0.00115999 0)
(0.112032 0.0011824 0)
(0.111236 0.00120428 0)
(0.110426 0.00122566 0)
(0.109601 0.00124654 0)
(0.108763 0.00126691 0)
(0.107911 0.00128679 0)
(0.107047 0.00130617 0)
(0.106169 0.00132507 0)
(0.105279 0.00134349 0)
(0.104377 0.00136143 0)
(0.103464 0.0013789 0)
(0.102538 0.00139591 0)
(0.101602 0.00141246 0)
(0.100654 0.00142856 0)
(0.0996965 0.00144421 0)
(0.0987283 0.00145943 0)
(0.0977501 0.00147421 0)
(0.0967621 0.00148858 0)
(0.0957648 0.00150252 0)
(0.0947583 0.00151606 0)
(0.0937429 0.00152919 0)
(0.0927189 0.00154193 0)
(0.0916865 0.00155429 0)
(0.090646 0.00156626 0)
(0.0895977 0.00157786 0)
(0.0885418 0.00158909 0)
(0.0874785 0.00159996 0)
(0.0864081 0.00161049 0)
(0.0853308 0.00162067 0)
(0.0842468 0.00163051 0)
(0.0831563 0.00164003 0)
(0.0820597 0.00164923 0)
(0.080957 0.00165811 0)
(0.0798485 0.00166668 0)
(0.0787344 0.00167496 0)
(0.0776148 0.00168294 0)
(0.0764901 0.00169064 0)
(0.0753603 0.00169806 0)
(0.0742257 0.00170521 0)
(0.0730864 0.0017121 0)
(0.0719426 0.00171873 0)
(0.0707944 0.00172511 0)
(0.0696421 0.00173124 0)
(0.0684858 0.00173714 0)
(0.0673257 0.0017428 0)
(0.0661618 0.00174824 0)
(0.0649944 0.00175347 0)
(0.0638236 0.00175848 0)
(0.0626495 0.00176329 0)
(0.0614723 0.00176789 0)
(0.0602921 0.00177231 0)
(0.059109 0.00177654 0)
(0.0579232 0.00178058 0)
(0.0567347 0.00178445 0)
(0.0555437 0.00178815 0)
(0.0543503 0.00179168 0)
(0.0531546 0.00179506 0)
(0.0519567 0.00179828 0)
(0.0507567 0.00180135 0)
(0.0495547 0.00180428 0)
(0.0483508 0.00180706 0)
(0.0471451 0.00180972 0)
(0.0459377 0.00181224 0)
(0.0447286 0.00181465 0)
(0.043518 0.00181693 0)
(0.0423059 0.00181909 0)
(0.0410924 0.00182114 0)
(0.0398776 0.00182309 0)
(0.0386615 0.00182493 0)
(0.0374442 0.00182668 0)
(0.0362258 0.00182833 0)
(0.0350064 0.00182989 0)
(0.0337859 0.00183136 0)
(0.0325645 0.00183274 0)
(0.0313421 0.00183405 0)
(0.030119 0.00183528 0)
(0.028895 0.00183643 0)
(0.0276703 0.00183751 0)
(0.0264449 0.00183853 0)
(0.0252188 0.00183948 0)
(0.0239922 0.00184036 0)
(0.022765 0.00184119 0)
(0.0215372 0.00184196 0)
(0.0203089 0.00184267 0)
(0.0190802 0.00184333 0)
(0.0178511 0.00184393 0)
(0.0166216 0.00184449 0)
(0.0153917 0.001845 0)
(0.0141615 0.00184547 0)
(0.0129311 0.00184589 0)
(0.0117003 0.00184627 0)
(0.0104693 0.0018466 0)
(0.00923811 0.0018469 0)
(0.00800673 0.00184716 0)
(0.00677519 0.00184738 0)
(0.00554352 0.00184756 0)
(0.00431173 0.0018477 0)
(0.00307987 0.00184781 0)
(0.00184794 0.00184788 0)
(0.000615986 0.00184792 0)
(0.000747789 -0.00373865 0)
(0.00224334 -0.00373854 0)
(0.00373883 -0.0037383 0)
(0.0052342 -0.00373795 0)
(0.00672941 -0.00373747 0)
(0.0082244 -0.00373687 0)
(0.00971914 -0.00373614 0)
(0.0112136 -0.00373528 0)
(0.0127076 -0.00373428 0)
(0.0142012 -0.00373314 0)
(0.0156944 -0.00373185 0)
(0.017187 -0.0037304 0)
(0.018679 -0.00372879 0)
(0.0201703 -0.003727 0)
(0.0216609 -0.00372503 0)
(0.0231507 -0.00372286 0)
(0.0246396 -0.0037205 0)
(0.0261275 -0.00371791 0)
(0.0276143 -0.0037151 0)
(0.0291 -0.00371206 0)
(0.0305844 -0.00370875 0)
(0.0320675 -0.00370518 0)
(0.0335491 -0.00370133 0)
(0.0350291 -0.00369719 0)
(0.0365074 -0.00369273 0)
(0.0379839 -0.00368794 0)
(0.0394584 -0.00368281 0)
(0.0409308 -0.00367732 0)
(0.0424009 -0.00367144 0)
(0.0438687 -0.00366517 0)
(0.0453338 -0.00365848 0)
(0.0467962 -0.00365136 0)
(0.0482557 -0.00364378 0)
(0.0497121 -0.00363573 0)
(0.0511652 -0.00362718 0)
(0.0526148 -0.00361811 0)
(0.0540606 -0.00360851 0)
(0.0555026 -0.00359835 0)
(0.0569404 -0.00358761 0)
(0.0583738 -0.00357628 0)
(0.0598025 -0.00356432 0)
(0.0612264 -0.00355172 0)
(0.0626451 -0.00353845 0)
(0.0640584 -0.0035245 0)
(0.065466 -0.00350985 0)
(0.0668676 -0.00349446 0)
(0.0682629 -0.00347832 0)
(0.0696516 -0.00346142 0)
(0.0710334 -0.00344372 0)
(0.072408 -0.00342521 0)
(0.0737751 -0.00340587 0)
(0.0751343 -0.00338567 0)
(0.0764852 -0.00336461 0)
(0.0778276 -0.00334266 0)
(0.079161 -0.00331979 0)
(0.0804851 -0.00329601 0)
(0.0817995 -0.00327128 0)
(0.0831038 -0.0032456 0)
(0.0843977 -0.00321894 0)
(0.0856807 -0.0031913 0)
(0.0869525 -0.00316265 0)
(0.0882127 -0.00313299 0)
(0.0894608 -0.00310231 0)
(0.0906964 -0.0030706 0)
(0.0919191 -0.00303784 0)
(0.0931285 -0.00300403 0)
(0.0943242 -0.00296917 0)
(0.0955058 -0.00293324 0)
(0.0966728 -0.00289625 0)
(0.0978247 -0.00285818 0)
(0.0989612 -0.00281905 0)
(0.100082 -0.00277884 0)
(0.101186 -0.00273757 0)
(0.102274 -0.00269523 0)
(0.103344 -0.00265183 0)
(0.104397 -0.00260738 0)
(0.105432 -0.00256188 0)
(0.106449 -0.00251535 0)
(0.107446 -0.00246779 0)
(0.108425 -0.00241922 0)
(0.109383 -0.00236964 0)
(0.110322 -0.00231909 0)
(0.11124 -0.00226757 0)
(0.112138 -0.0022151 0)
(0.113014 -0.00216171 0)
(0.113869 -0.00210742 0)
(0.114702 -0.00205225 0)
(0.115512 -0.00199622 0)
(0.1163 -0.00193936 0)
(0.117065 -0.0018817 0)
(0.117807 -0.00182328 0)
(0.118525 -0.00176411 0)
(0.119219 -0.00170423 0)
(0.11989 -0.00164368 0)
(0.120536 -0.00158248 0)
(0.121157 -0.00152068 0)
(0.121753 -0.00145831 0)
(0.122324 -0.0013954 0)
(0.12287 -0.00133199 0)
(0.123391 -0.00126813 0)
(0.123886 -0.00120385 0)
(0.124355 -0.00113919 0)
(0.124798 -0.00107419 0)
(0.125214 -0.00100889 0)
(0.125605 -0.000943332 0)
(0.12597 -0.000877558 0)
(0.126307 -0.000811608 0)
(0.126619 -0.000745523 0)
(0.126904 -0.000679345 0)
(0.127163 -0.000613115 0)
(0.127395 -0.000546874 0)
(0.1276 -0.000480662 0)
(0.127779 -0.00041452 0)
(0.127931 -0.000348488 0)
(0.128058 -0.000282605 0)
(0.128157 -0.000216909 0)
(0.128231 -0.00015144 0)
(0.128278 -8.62332e-05 0)
(0.128299 -2.13269e-05 0)
(0.128294 4.32437e-05 0)
(0.128264 0.000107444 0)
(0.128208 0.000171239 0)
(0.128126 0.000234597 0)
(0.128019 0.000297486 0)
(0.127887 0.000359874 0)
(0.12773 0.000421732 0)
(0.127549 0.000483032 0)
(0.127343 0.000543747 0)
(0.127113 0.000603849 0)
(0.126859 0.000663315 0)
(0.126581 0.000722121 0)
(0.12628 0.000780243 0)
(0.125955 0.000837662 0)
(0.125608 0.000894357 0)
(0.125239 0.00095031 0)
(0.124847 0.0010055 0)
(0.124433 0.00105992 0)
(0.123997 0.00111355 0)
(0.12354 0.00116637 0)
(0.123063 0.00121838 0)
(0.122564 0.00126956 0)
(0.122046 0.0013199 0)
(0.121507 0.0013694 0)
(0.120948 0.00141804 0)
(0.120371 0.00146582 0)
(0.119774 0.00151274 0)
(0.119159 0.00155879 0)
(0.118526 0.00160397 0)
(0.117874 0.00164827 0)
(0.117205 0.00169169 0)
(0.116519 0.00173424 0)
(0.115817 0.00177592 0)
(0.115097 0.00181672 0)
(0.114362 0.00185664 0)
(0.11361 0.0018957 0)
(0.112843 0.0019339 0)
(0.112062 0.00197123 0)
(0.111265 0.00200771 0)
(0.110454 0.00204333 0)
(0.109629 0.00207812 0)
(0.10879 0.00211207 0)
(0.107938 0.00214519 0)
(0.107072 0.00217749 0)
(0.106194 0.00220898 0)
(0.105304 0.00223967 0)
(0.104401 0.00226957 0)
(0.103487 0.00229868 0)
(0.102561 0.00232702 0)
(0.101624 0.00235459 0)
(0.100676 0.00238142 0)
(0.0997171 0.0024075 0)
(0.0987483 0.00243286 0)
(0.0977695 0.00245749 0)
(0.096781 0.00248142 0)
(0.0957831 0.00250466 0)
(0.0947761 0.00252721 0)
(0.0937602 0.0025491 0)
(0.0927356 0.00257032 0)
(0.0917027 0.0025909 0)
(0.0906618 0.00261084 0)
(0.0896129 0.00263016 0)
(0.0885565 0.00264888 0)
(0.0874928 0.002667 0)
(0.0864219 0.00268453 0)
(0.0853441 0.00270149 0)
(0.0842597 0.00271789 0)
(0.0831688 0.00273374 0)
(0.0820717 0.00274906 0)
(0.0809686 0.00276385 0)
(0.0798597 0.00277814 0)
(0.0787452 0.00279192 0)
(0.0776253 0.00280522 0)
(0.0765002 0.00281805 0)
(0.07537 0.00283041 0)
(0.074235 0.00284232 0)
(0.0730954 0.00285378 0)
(0.0719512 0.00286482 0)
(0.0708028 0.00287545 0)
(0.0696502 0.00288566 0)
(0.0684935 0.00289548 0)
(0.0673331 0.00290492 0)
(0.0661689 0.00291398 0)
(0.0650012 0.00292268 0)
(0.0638302 0.00293103 0)
(0.0626558 0.00293903 0)
(0.0614783 0.00294671 0)
(0.0602979 0.00295406 0)
(0.0591145 0.00296109 0)
(0.0579284 0.00296783 0)
(0.0567397 0.00297427 0)
(0.0555485 0.00298043 0)
(0.0543549 0.00298632 0)
(0.053159 0.00299193 0)
(0.0519609 0.00299729 0)
(0.0507607 0.00300241 0)
(0.0495585 0.00300728 0)
(0.0483545 0.00301192 0)
(0.0471486 0.00301634 0)
(0.045941 0.00302055 0)
(0.0447318 0.00302454 0)
(0.043521 0.00302834 0)
(0.0423088 0.00303194 0)
(0.0410951 0.00303536 0)
(0.0398801 0.0030386 0)
(0.0386639 0.00304167 0)
(0.0374465 0.00304457 0)
(0.036228 0.00304732 0)
(0.0350084 0.00304991 0)
(0.0337878 0.00305236 0)
(0.0325662 0.00305466 0)
(0.0313438 0.00305683 0)
(0.0301205 0.00305888 0)
(0.0288965 0.0030608 0)
(0.0276717 0.0030626 0)
(0.0264462 0.00306429 0)
(0.0252201 0.00306586 0)
(0.0239933 0.00306734 0)
(0.022766 0.00306871 0)
(0.0215382 0.00306999 0)
(0.0203099 0.00307117 0)
(0.0190811 0.00307227 0)
(0.0178519 0.00307328 0)
(0.0166223 0.00307421 0)
(0.0153924 0.00307506 0)
(0.0141621 0.00307583 0)
(0.0129316 0.00307653 0)
(0.0117008 0.00307716 0)
(0.0104697 0.00307772 0)
(0.00923848 0.00307821 0)
(0.00800705 0.00307864 0)
(0.00677545 0.003079 0)
(0.00554373 0.0030793 0)
(0.0043119 0.00307954 0)
(0.00307999 0.00307972 0)
(0.00184802 0.00307984 0)
(0.000616009 0.0030799 0)
(0.00074786 -0.00523428 0)
(0.00224356 -0.00523412 0)
(0.00373919 -0.00523379 0)
(0.0052347 -0.0052333 0)
(0.00673006 -0.00523263 0)
(0.0082252 -0.0052318 0)
(0.00972009 -0.00523079 0)
(0.0112147 -0.00522959 0)
(0.0127089 -0.0052282 0)
(0.0142027 -0.00522661 0)
(0.015696 -0.00522481 0)
(0.0171889 -0.00522279 0)
(0.0186811 -0.00522055 0)
(0.0201726 -0.00521806 0)
(0.0216634 -0.00521531 0)
(0.0231534 -0.0052123 0)
(0.0246426 -0.005209 0)
(0.0261308 -0.0052054 0)
(0.0276179 -0.00520148 0)
(0.0291038 -0.00519723 0)
(0.0305886 -0.00519263 0)
(0.032072 -0.00518765 0)
(0.0335539 -0.00518228 0)
(0.0350343 -0.0051765 0)
(0.036513 -0.00517028 0)
(0.0379898 -0.0051636 0)
(0.0394648 -0.00515644 0)
(0.0409376 -0.00514878 0)
(0.0424082 -0.00514058 0)
(0.0438764 -0.00513182 0)
(0.0453421 -0.00512249 0)
(0.0468051 -0.00511254 0)
(0.0482651 -0.00510196 0)
(0.0497221 -0.00509071 0)
(0.0511758 -0.00507877 0)
(0.052626 -0.00506611 0)
(0.0540725 -0.0050527 0)
(0.0555151 -0.0050385 0)
(0.0569536 -0.0050235 0)
(0.0583878 -0.00500766 0)
(0.0598173 -0.00499095 0)
(0.0612419 -0.00497334 0)
(0.0626614 -0.0049548 0)
(0.0640756 -0.0049353 0)
(0.065484 -0.00491481 0)
(0.0668865 -0.00489329 0)
(0.0682827 -0.00487073 0)
(0.0696724 -0.00484709 0)
(0.0710552 -0.00482234 0)
(0.0724308 -0.00479646 0)
(0.0737989 -0.00476941 0)
(0.0751591 -0.00474116 0)
(0.0765111 -0.0047117 0)
(0.0778545 -0.00468099 0)
(0.079189 -0.00464901 0)
(0.0805142 -0.00461573 0)
(0.0818298 -0.00458113 0)
(0.0831353 -0.0045452 0)
(0.0844303 -0.0045079 0)
(0.0857146 -0.00446921 0)
(0.0869876 -0.00442913 0)
(0.0882489 -0.00438763 0)
(0.0894983 -0.00434469 0)
(0.0907351 -0.0043003 0)
(0.0919591 -0.00425445 0)
(0.0931698 -0.00420713 0)
(0.0943668 -0.00415832 0)
(0.0955496 -0.00410803 0)
(0.0967179 -0.00405624 0)
(0.0978711 -0.00400295 0)
(0.0990089 -0.00394817 0)
(0.100131 -0.00389188 0)
(0.101236 -0.00383409 0)
(0.102325 -0.00377481 0)
(0.103397 -0.00371404 0)
(0.104451 -0.0036518 0)
(0.105487 -0.00358809 0)
(0.106505 -0.00352292 0)
(0.107504 -0.00345632 0)
(0.108484 -0.0033883 0)
(0.109444 -0.00331888 0)
(0.110383 -0.00324808 0)
(0.111303 -0.00317592 0)
(0.112202 -0.00310244 0)
(0.113079 -0.00302766 0)
(0.113935 -0.00295162 0)
(0.114769 -0.00287434 0)
(0.11558 -0.00279586 0)
(0.116369 -0.00271623 0)
(0.117135 -0.00263547 0)
(0.117878 -0.00255362 0)
(0.118597 -0.00247074 0)
(0.119292 -0.00238687 0)
(0.119963 -0.00230205 0)
(0.120609 -0.00221633 0)
(0.121231 -0.00212975 0)
(0.121828 -0.00204238 0)
(0.1224 -0.00195425 0)
(0.122947 -0.00186543 0)
(0.123468 -0.00177597 0)
(0.123963 -0.00168592 0)
(0.124432 -0.00159534 0)
(0.124876 -0.00150428 0)
(0.125293 -0.00141281 0)
(0.125684 -0.00132097 0)
(0.126049 -0.00122883 0)
(0.126387 -0.00113644 0)
(0.126699 -0.00104386 0)
(0.126984 -0.000951156 0)
(0.127242 -0.000858377 0)
(0.127474 -0.000765582 0)
(0.12768 -0.000672829 0)
(0.127858 -0.000580175 0)
(0.128011 -0.000487674 0)
(0.128137 -0.000395384 0)
(0.128236 -0.000303356 0)
(0.128309 -0.000211647 0)
(0.128356 -0.000120307 0)
(0.128377 -2.93876e-05 0)
(0.128372 6.10601e-05 0)
(0.128341 0.000150988 0)
(0.128284 0.000240347 0)
(0.128202 0.000329093 0)
(0.128094 0.00041718 0)
(0.127962 0.000504565 0)
(0.127804 0.000591207 0)
(0.127622 0.000677065 0)
(0.127415 0.000762102 0)
(0.127185 0.000846281 0)
(0.12693 0.000929566 0)
(0.126651 0.00101192 0)
(0.126349 0.00109333 0)
(0.126024 0.00117374 0)
(0.125676 0.00125314 0)
(0.125305 0.0013315 0)
(0.124912 0.00140879 0)
(0.124498 0.00148499 0)
(0.124061 0.00156009 0)
(0.123603 0.00163406 0)
(0.123125 0.00170689 0)
(0.122625 0.00177855 0)
(0.122106 0.00184904 0)
(0.121566 0.00191835 0)
(0.121006 0.00198646 0)
(0.120428 0.00205336 0)
(0.11983 0.00211905 0)
(0.119214 0.00218353 0)
(0.118579 0.00224678 0)
(0.117927 0.0023088 0)
(0.117257 0.0023696 0)
(0.11657 0.00242917 0)
(0.115866 0.00248751 0)
(0.115146 0.00254462 0)
(0.114409 0.00260052 0)
(0.113657 0.00265519 0)
(0.112889 0.00270866 0)
(0.112106 0.00276092 0)
(0.111308 0.00281198 0)
(0.110496 0.00286185 0)
(0.10967 0.00291054 0)
(0.10883 0.00295806 0)
(0.107977 0.00300442 0)
(0.107111 0.00304963 0)
(0.106231 0.0030937 0)
(0.10534 0.00313665 0)
(0.104436 0.00317849 0)
(0.103521 0.00321923 0)
(0.102594 0.00325889 0)
(0.101656 0.00329749 0)
(0.100707 0.00333502 0)
(0.099748 0.00337153 0)
(0.0987783 0.00340701 0)
(0.0977987 0.00344148 0)
(0.0968094 0.00347497 0)
(0.0958106 0.00350748 0)
(0.0948028 0.00353904 0)
(0.093786 0.00356966 0)
(0.0927607 0.00359935 0)
(0.0917271 0.00362815 0)
(0.0906853 0.00365605 0)
(0.0896358 0.00368308 0)
(0.0885786 0.00370927 0)
(0.0875142 0.00373461 0)
(0.0864426 0.00375914 0)
(0.0853641 0.00378287 0)
(0.084279 0.00380581 0)
(0.0831875 0.00382799 0)
(0.0820898 0.00384942 0)
(0.0809861 0.00387011 0)
(0.0798766 0.00389009 0)
(0.0787615 0.00390938 0)
(0.077641 0.00392798 0)
(0.0765153 0.00394591 0)
(0.0753846 0.0039632 0)
(0.0742491 0.00397986 0)
(0.0731089 0.0039959 0)
(0.0719642 0.00401134 0)
(0.0708153 0.00402619 0)
(0.0696622 0.00404048 0)
(0.0685051 0.00405421 0)
(0.0673442 0.00406741 0)
(0.0661796 0.00408008 0)
(0.0650115 0.00409225 0)
(0.06384 0.00410392 0)
(0.0626652 0.00411511 0)
(0.0614873 0.00412584 0)
(0.0603065 0.00413612 0)
(0.0591228 0.00414596 0)
(0.0579363 0.00415537 0)
(0.0567473 0.00416438 0)
(0.0555557 0.00417299 0)
(0.0543618 0.00418121 0)
(0.0531656 0.00418907 0)
(0.0519672 0.00419656 0)
(0.0507667 0.00420371 0)
(0.0495642 0.00421052 0)
(0.0483599 0.00421701 0)
(0.0471537 0.00422318 0)
(0.0459459 0.00422906 0)
(0.0447364 0.00423464 0)
(0.0435254 0.00423994 0)
(0.042313 0.00424498 0)
(0.0410991 0.00424975 0)
(0.0398839 0.00425428 0)
(0.0386675 0.00425857 0)
(0.0374499 0.00426262 0)
(0.0362312 0.00426646 0)
(0.0350114 0.00427008 0)
(0.0337906 0.00427349 0)
(0.0325689 0.00427672 0)
(0.0313463 0.00427975 0)
(0.0301229 0.0042826 0)
(0.0288987 0.00428528 0)
(0.0276738 0.0042878 0)
(0.0264482 0.00429015 0)
(0.0252219 0.00429236 0)
(0.023995 0.00429441 0)
(0.0227676 0.00429633 0)
(0.0215397 0.00429811 0)
(0.0203112 0.00429977 0)
(0.0190823 0.0043013 0)
(0.0178531 0.00430271 0)
(0.0166234 0.004304 0)
(0.0153934 0.00430519 0)
(0.014163 0.00430627 0)
(0.0129324 0.00430724 0)
(0.0117015 0.00430812 0)
(0.0104704 0.0043089 0)
(0.00923903 0.00430959 0)
(0.00800752 0.00431018 0)
(0.00677585 0.00431069 0)
(0.00554405 0.00431111 0)
(0.00431215 0.00431144 0)
(0.00308017 0.00431169 0)
(0.00184812 0.00431186 0)
(0.000616045 0.00431194 0)
(0.000747953 -0.00673007 0)
(0.00224384 -0.00672986 0)
(0.00373966 -0.00672945 0)
(0.00523536 -0.00672882 0)
(0.00673091 -0.00672797 0)
(0.00822626 -0.00672691 0)
(0.00972136 -0.00672562 0)
(0.0112162 -0.00672409 0)
(0.0127106 -0.00672232 0)
(0.0142046 -0.00672029 0)
(0.0156982 -0.00671799 0)
(0.0171913 -0.00671542 0)
(0.0186838 -0.00671255 0)
(0.0201756 -0.00670937 0)
(0.0216667 -0.00670586 0)
(0.0231571 -0.00670201 0)
(0.0246465 -0.0066978 0)
(0.0261351 -0.0066932 0)
(0.0276225 -0.0066882 0)
(0.0291089 -0.00668276 0)
(0.0305941 -0.00667688 0)
(0.0320779 -0.00667051 0)
(0.0335603 -0.00666365 0)
(0.0350412 -0.00665625 0)
(0.0365203 -0.00664829 0)
(0.0379978 -0.00663975 0)
(0.0394733 -0.00663058 0)
(0.0409467 -0.00662077 0)
(0.0424179 -0.00661027 0)
(0.0438868 -0.00659906 0)
(0.0453531 -0.0065871 0)
(0.0468168 -0.00657436 0)
(0.0482776 -0.0065608 0)
(0.0497354 -0.00654639 0)
(0.0511899 -0.00653109 0)
(0.0526409 -0.00651486 0)
(0.0540883 -0.00649766 0)
(0.0555318 -0.00647946 0)
(0.0569713 -0.00646023 0)
(0.0584064 -0.00643991 0)
(0.0598369 -0.00641848 0)
(0.0612626 -0.00639589 0)
(0.0626832 -0.0063721 0)
(0.0640984 -0.00634708 0)
(0.065508 -0.00632079 0)
(0.0669117 -0.00629318 0)
(0.0683092 -0.00626422 0)
(0.0697001 -0.00623388 0)
(0.0710842 -0.00620211 0)
(0.0724611 -0.00616887 0)
(0.0738305 -0.00613414 0)
(0.0751921 -0.00609787 0)
(0.0765455 -0.00606003 0)
(0.0778904 -0.00602059 0)
(0.0792263 -0.00597952 0)
(0.080553 -0.00593677 0)
(0.0818701 -0.00589233 0)
(0.0831772 -0.00584616 0)
(0.0844738 -0.00579824 0)
(0.0857596 -0.00574853 0)
(0.0870342 -0.00569703 0)
(0.0882972 -0.00564369 0)
(0.0895482 -0.00558851 0)
(0.0907868 -0.00553146 0)
(0.0920124 -0.00547253 0)
(0.0932248 -0.00541171 0)
(0.0944235 -0.00534897 0)
(0.095608 -0.00528432 0)
(0.096778 -0.00521774 0)
(0.097933 -0.00514923 0)
(0.0990725 -0.00507878 0)
(0.100196 -0.00500641 0)
(0.101303 -0.0049321 0)
(0.102394 -0.00485588 0)
(0.103468 -0.00477773 0)
(0.104523 -0.00469768 0)
(0.105561 -0.00461575 0)
(0.106581 -0.00453194 0)
(0.107581 -0.00444627 0)
(0.108562 -0.00435878 0)
(0.109524 -0.00426949 0)
(0.110465 -0.00417842 0)
(0.111386 -0.0040856 0)
(0.112286 -0.00399108 0)
(0.113165 -0.00389488 0)
(0.114022 -0.00379705 0)
(0.114858 -0.00369763 0)
(0.115671 -0.00359667 0)
(0.116461 -0.00349421 0)
(0.117228 -0.00339031 0)
(0.117972 -0.00328501 0)
(0.118692 -0.00317837 0)
(0.119388 -0.00307046 0)
(0.12006 -0.00296132 0)
(0.120708 -0.00285102 0)
(0.121331 -0.00273962 0)
(0.121929 -0.0026272 0)
(0.122502 -0.0025138 0)
(0.123049 -0.00239951 0)
(0.123571 -0.0022844 0)
(0.124066 -0.00216852 0)
(0.124536 -0.00205197 0)
(0.12498 -0.0019348 0)
(0.125398 -0.00181708 0)
(0.125789 -0.00169891 0)
(0.126154 -0.00158034 0)
(0.126493 -0.00146146 0)
(0.126805 -0.00134233 0)
(0.12709 -0.00122304 0)
(0.127348 -0.00110365 0)
(0.12758 -0.000984248 0)
(0.127786 -0.000864898 0)
(0.127964 -0.000745675 0)
(0.128116 -0.000626651 0)
(0.128242 -0.000507898 0)
(0.128341 -0.000389486 0)
(0.128414 -0.000271483 0)
(0.12846 -0.000153958 0)
(0.128481 -3.69765e-05 0)
(0.128475 7.93972e-05 0)
(0.128443 0.0001951 0)
(0.128386 0.00031007 0)
(0.128303 0.000424248 0)
(0.128195 0.000537577 0)
(0.128061 0.000650001 0)
(0.127903 0.000761466 0)
(0.12772 0.000871921 0)
(0.127512 0.000981317 0)