/*--------------------------------*- C++ -*----------------------------------*\
| =========                 |                                                 |
| \\      /  F ield         | OpenFOAM: The Open Source CFD Toolbox           |
|  \\    /   O peration     | Version:  v2012                                 |
|   \\  /    A nd           | Website:  www.openfoam.com                      |
|    \\/     M anipulation  |                                                 |
\*---------------------------------------------------------------------------*/
FoamFile
{
    version     2.0;
    format      ascii;
    class       surfaceScalarField;
    location    "19.8";
    object      phi;
}
// * * * * * * * * * * * * * * * * * * * * * * * * * * * * * * * * * * * * * //

dimensions      [0 3 -1 0 0 0 0];
oriented        oriented;


internalField   nonuniform List<scalar> 
130560
(
3.19822e-06
-3.19822e-06
6.39657e-06
-3.19834e-06
9.59515e-06
-3.19858e-06
1.27941e-05
-3.19893e-06
1.59935e-05
-3.1994e-06
1.91935e-05
-3.19998e-06
2.23941e-05
-3.20068e-06
2.55956e-05
-3.20149e-06
2.8798e-05
-3.20241e-06
3.20015e-05
-3.20343e-06
3.5206e-05
-3.20456e-06
3.84118e-05
-3.20579e-06
4.16189e-05
-3.20712e-06
4.48275e-05
-3.20854e-06
4.80375e-05
-3.21005e-06
5.12492e-05
-3.21164e-06
5.44625e-05
-3.21331e-06
5.76775e-05
-3.21506e-06
6.08944e-05
-3.21688e-06
6.41132e-05
-3.21876e-06
6.73339e-05
-3.2207e-06
7.05566e-05
-3.22269e-06
7.37813e-05
-3.22472e-06
7.70081e-05
-3.22678e-06
8.02369e-05
-3.22888e-06
8.34679e-05
-3.23099e-06
8.6701e-05
-3.23312e-06
8.99363e-05
-3.23524e-06
9.31737e-05
-3.23736e-06
9.64131e-05
-3.23946e-06
9.96547e-05
-3.24154e-06
0.000102898
-3.24357e-06
0.000106144
-3.24556e-06
0.000109391
-3.24748e-06
0.000112641
-3.24933e-06
0.000115892
-3.25109e-06
0.000119144
-3.25275e-06
0.000122399
-3.2543e-06
0.000125654
-3.25572e-06
0.000128911
-3.257e-06
0.00013217
-3.25812e-06
0.000135429
-3.25907e-06
0.000138688
-3.25982e-06
0.000141949
-3.26037e-06
0.00014521
-3.2607e-06
0.00014847
-3.26079e-06
0.000151731
-3.26061e-06
0.000154991
-3.26016e-06
0.00015825
-3.2594e-06
0.000161509
-3.25833e-06
0.000164766
-3.25692e-06
0.000168021
-3.25515e-06
0.000171274
-3.25299e-06
0.000174524
-3.25043e-06
0.000177772
-3.24744e-06
0.000181016
-3.24401e-06
0.000184256
-3.24009e-06
0.000187492
-3.23568e-06
0.000190722
-3.23074e-06
0.000193948
-3.22525e-06
0.000197167
-3.21919e-06
0.000200379
-3.21252e-06
0.000203584
-3.20523e-06
0.000206782
-3.19728e-06
0.00020997
-3.18864e-06
0.00021315
-3.1793e-06
0.000216319
-3.16921e-06
0.000219477
-3.15835e-06
0.000222624
-3.1467e-06
0.000225758
-3.13422e-06
0.000228879
-3.12089e-06
0.000231986
-3.10667e-06
0.000235077
-3.09153e-06
0.000238153
-3.07545e-06
0.000241211
-3.0584e-06
0.000244251
-3.04034e-06
0.000247273
-3.02126e-06
0.000250274
-3.00111e-06
0.000253254
-2.97987e-06
0.000256211
-2.95752e-06
0.000259145
-2.93402e-06
0.000262055
-2.90934e-06
0.000264938
-2.88347e-06
0.000267794
-2.85637e-06
0.000270622
-2.82802e-06
0.000273421
-2.79839e-06
0.000276188
-2.76746e-06
0.000278923
-2.73521e-06
0.000281625
-2.70162e-06
0.000284292
-2.66666e-06
0.000286922
-2.63032e-06
0.000289515
-2.59258e-06
0.000292068
-2.55342e-06
0.000294581
-2.51283e-06
0.000297052
-2.4708e-06
0.000299479
-2.42732e-06
0.000301861
-2.38237e-06
0.000304197
-2.33595e-06
0.000306485
-2.28805e-06
0.000308724
-2.23868e-06
0.000310912
-2.18783e-06
0.000313047
-2.1355e-06
0.000315129
-2.0817e-06
0.000317156
-2.02643e-06
0.000319125
-1.96971e-06
0.000321037
-1.91154e-06
0.000322889
-1.85195e-06
0.00032468
-1.79094e-06
0.000326408
-1.72854e-06
0.000328073
-1.66477e-06
0.000329673
-1.59966e-06
0.000331206
-1.53323e-06
0.000332671
-1.46553e-06
0.000334068
-1.39657e-06
0.000335394
-1.32641e-06
0.000336649
-1.25507e-06
0.000337832
-1.18261e-06
0.000338941
-1.10907e-06
0.000339976
-1.03449e-06
0.000340935
-9.58931e-07
0.000341817
-8.82444e-07
0.000342622
-8.05083e-07
0.000343349
-7.26908e-07
0.000343997
-6.47979e-07
0.000344565
-5.68358e-07
0.000345053
-4.8811e-07
0.000345461
-4.07301e-07
0.000345787
-3.25997e-07
0.000346031
-2.4427e-07
0.000346193
-1.62188e-07
0.000346273
-7.98229e-08
0.00034627
2.75228e-09
0.000346185
8.54649e-08
0.000346017
1.68241e-07
0.000345766
2.51008e-07
0.000345432
3.33692e-07
0.000345016
4.16218e-07
0.000344517
4.98513e-07
0.000343937
5.80506e-07
0.000343275
6.62123e-07
0.000342531
7.43294e-07
0.000341707
8.23948e-07
0.000340803
9.04018e-07
0.00033982
9.83436e-07
0.000338758
1.06214e-06
0.000337618
1.14006e-06
0.0003364
1.21713e-06
0.000335107
1.29331e-06
0.000333739
1.36853e-06
0.000332296
1.44273e-06
0.00033078
1.51587e-06
0.000329192
1.58789e-06
0.000327533
1.65875e-06
0.000325805
1.72841e-06
0.000324008
1.79682e-06
0.000322144
1.86394e-06
0.000320214
1.92974e-06
0.00031822
1.99419e-06
0.000316163
2.05726e-06
0.000314044
2.11892e-06
0.000311865
2.17914e-06
0.000309627
2.23791e-06
0.000307332
2.29522e-06
0.000304981
2.35103e-06
0.000302575
2.40535e-06
0.000300117
2.45816e-06
0.000297608
2.50946e-06
0.000295049
2.55925e-06
0.000292441
2.60751e-06
0.000289787
2.65426e-06
0.000287087
2.6995e-06
0.000284344
2.74323e-06
0.000281559
2.78546e-06
0.000278732
2.8262e-06
0.000275867
2.86547e-06
0.000272964
2.90327e-06
0.000270024
2.93963e-06
0.000267049
2.97456e-06
0.000264041
3.00808e-06
0.000261001
3.04022e-06
0.00025793
3.07099e-06
0.00025483
3.10041e-06
0.000251701
3.12852e-06
0.000248546
3.15534e-06
0.000245365
3.18089e-06
0.00024216
3.2052e-06
0.000238932
3.2283e-06
0.000235681
3.25022e-06
0.00023241
3.27099e-06
0.00022912
3.29064e-06
0.00022581
3.3092e-06
0.000222484
3.3267e-06
0.000219141
3.34317e-06
0.000215782
3.35864e-06
0.000212409
3.37315e-06
0.000209022
3.38672e-06
0.000205623
3.39939e-06
0.000202212
3.4112e-06
0.000198789
3.42216e-06
0.000195357
3.43231e-06
0.000191915
3.44169e-06
0.000188465
3.45032e-06
0.000185007
3.45823e-06
0.000181541
3.46546e-06
0.000178069
3.47204e-06
0.000174591
3.47799e-06
0.000171108
3.48334e-06
0.00016762
3.48813e-06
0.000164127
3.49237e-06
0.000160631
3.49611e-06
0.000157132
3.49936e-06
0.00015363
3.50215e-06
0.000150125
3.50451e-06
0.000146619
3.50646e-06
0.000143111
3.50804e-06
0.000139602
3.50925e-06
0.000136091
3.51013e-06
0.000132581
3.5107e-06
0.00012907
3.51099e-06
0.000125559
3.51101e-06
0.000122048
3.51078e-06
0.000118538
3.51033e-06
0.000115028
3.50967e-06
0.000111519
3.50883e-06
0.000108011
3.50783e-06
0.000104505
3.50668e-06
0.000100999
3.5054e-06
9.74952e-05
3.504e-06
9.39927e-05
3.50251e-06
9.04918e-05
3.50093e-06
8.69925e-05
3.49929e-06
8.34949e-05
3.4976e-06
7.9999e-05
3.49587e-06
7.65049e-05
3.49411e-06
7.30126e-05
3.49235e-06
6.9522e-05
3.49058e-06
6.60332e-05
3.48882e-06
6.25461e-05
3.48709e-06
5.90607e-05
3.48539e-06
5.5577e-05
3.48373e-06
5.20949e-05
3.48212e-06
4.86143e-05
3.48057e-06
4.51352e-05
3.47909e-06
4.16575e-05
3.47768e-06
3.81812e-05
3.47635e-06
3.47061e-05
3.47512e-06
3.12321e-05
3.47398e-06
2.77591e-05
3.47293e-06
2.42872e-05
3.47199e-06
2.0816e-05
3.47116e-06
1.73455e-05
3.47044e-06
1.38757e-05
3.46984e-06
1.04064e-05
3.46935e-06
6.93737e-06
3.46899e-06
3.46862e-06
3.46874e-06
3.46862e-06
3.19811e-06
-6.39633e-06
6.39634e-06
-6.39657e-06
9.59481e-06
-6.39705e-06
1.27936e-05
-6.39775e-06
1.59929e-05
-6.39869e-06
1.91928e-05
-6.39986e-06
2.23934e-05
-6.40126e-06
2.55947e-05
-6.40287e-06
2.87971e-05
-6.40471e-06
3.20004e-05
-6.40676e-06
3.52048e-05
-6.40902e-06
3.84105e-05
-6.41149e-06
4.16176e-05
-6.41414e-06
4.4826e-05
-6.41699e-06
4.8036e-05
-6.42001e-06
5.12475e-05
-6.4232e-06
5.44608e-05
-6.42656e-06
5.76758e-05
-6.43006e-06
6.08926e-05
-6.4337e-06
6.41113e-05
-6.43747e-06
6.7332e-05
-6.44135e-06
7.05546e-05
-6.44533e-06
7.37793e-05
-6.4494e-06
7.70061e-05
-6.45354e-06
8.02349e-05
-6.45774e-06
8.34659e-05
-6.46198e-06
8.6699e-05
-6.46623e-06
8.99343e-05
-6.4705e-06
9.31717e-05
-6.47475e-06
9.64112e-05
-6.47896e-06
9.96527e-05
-6.48312e-06
0.000102896
-6.4872e-06
0.000106142
-6.49118e-06
0.00010939
-6.49504e-06
0.000112639
-6.49875e-06
0.00011589
-6.50228e-06
0.000119143
-6.50562e-06
0.000122397
-6.50873e-06
0.000125653
-6.51159e-06
0.00012891
-6.51416e-06
0.000132169
-6.51642e-06
0.000135428
-6.51833e-06
0.000138688
-6.51986e-06
0.000141949
-6.52098e-06
0.00014521
-6.52165e-06
0.000148471
-6.52184e-06
0.000151732
-6.5215e-06
0.000154992
-6.52062e-06
0.000158252
-6.51913e-06
0.00016151
-6.51701e-06
0.000164768
-6.5142e-06
0.000168023
-6.51068e-06
0.000171277
-6.50639e-06
0.000174527
-6.5013e-06
0.000177775
-6.49534e-06
0.00018102
-6.48849e-06
0.00018426
-6.48069e-06
0.000187497
-6.47189e-06
0.000190728
-6.46204e-06
0.000193954
-6.45108e-06
0.000197174
-6.43898e-06
0.000200387
-6.42568e-06
0.000203593
-6.41112e-06
0.000206791
-6.39524e-06
0.00020998
-6.378e-06
0.00021316
-6.35933e-06
0.00021633
-6.33919e-06
0.000219489
-6.31751e-06
0.000222637
-6.29423e-06
0.000225772
-6.2693e-06
0.000228894
-6.24266e-06
0.000232001
-6.21425e-06
0.000235094
-6.18401e-06
0.00023817
-6.15188e-06
0.000241229
-6.1178e-06
0.000244271
-6.08172e-06
0.000247293
-6.04358e-06
0.000250295
-6.00331e-06
0.000253276
-5.96086e-06
0.000256235
-5.91618e-06
0.00025917
-5.86921e-06
0.000262081
-5.81988e-06
0.000264965
-5.76816e-06
0.000267823
-5.71399e-06
0.000270652
-5.65731e-06
0.000273452
-5.59808e-06
0.000276221
-5.53624e-06
0.000278957
-5.47177e-06
0.00028166
-5.4046e-06
0.000284328
-5.3347e-06
0.00028696
-5.26204e-06
0.000289554
-5.18658e-06
0.000292109
-5.10828e-06
0.000294623
-5.02711e-06
0.000297095
-4.94306e-06
0.000299524
-4.8561e-06
0.000301908
-4.76621e-06
0.000304245
-4.67337e-06
0.000306535
-4.57758e-06
0.000308775
-4.47884e-06
0.000310964
-4.37713e-06
0.000313101
-4.27247e-06
0.000315185
-4.16486e-06
0.000317213
-4.05432e-06
0.000319184
-3.94086e-06
0.000321097
-3.82451e-06
0.00032295
-3.7053e-06
0.000324742
-3.58327e-06
0.000326472
-3.45844e-06
0.000328138
-3.33088e-06
0.000329739
-3.20063e-06
0.000331274
-3.06775e-06
0.000332741
-2.9323e-06
0.000334138
-2.79435e-06
0.000335466
-2.65398e-06
0.000336722
-2.51127e-06
0.000337906
-2.3663e-06
0.000339016
-2.21916e-06
0.000340051
-2.06996e-06
0.000341011
-1.91879e-06
0.000341895
-1.76576e-06
0.0003427
-1.61098e-06
0.000343428
-1.45457e-06
0.000344077
-1.29665e-06
0.000344646
-1.13734e-06
0.000345134
-9.76778e-07
0.000345542
-8.15092e-07
0.000345869
-6.52416e-07
0.000346113
-4.8889e-07
0.000346276
-3.24654e-07
0.000346356
-1.59853e-07
0.000346353
5.37068e-09
0.000346268
1.70869e-07
0.000346099
3.36496e-07
0.000345848
5.02104e-07
0.000345515
6.67544e-07
0.000345098
8.3267e-07
0.000344599
9.97334e-07
0.000344018
1.16139e-06
0.000343356
1.3247e-06
0.000342612
1.48711e-06
0.000341787
1.64849e-06
0.000340883
1.80869e-06
0.000339899
1.96759e-06
0.000338836
2.12506e-06
0.000337695
2.28096e-06
0.000336477
2.43517e-06
0.000335182
2.58758e-06
0.000333813
2.73807e-06
0.000332369
2.88653e-06
0.000330852
3.03286e-06
0.000329263
3.17695e-06
0.000327603
3.31872e-06
0.000325873
3.45807e-06
0.000324075
3.59493e-06
0.00032221
3.72921e-06
0.000320279
3.86085e-06
0.000318283
3.98977e-06
0.000316225
4.11593e-06
0.000314104
4.23927e-06
0.000311924
4.35974e-06
0.000309684
4.4773e-06
0.000307388
4.59192e-06
0.000305035
4.70356e-06
0.000302628
4.81221e-06
0.000300169
4.91784e-06
0.000297658
5.02045e-06
0.000295097
5.12001e-06
0.000292488
5.21654e-06
0.000289832
5.31004e-06
0.000287131
5.4005e-06
0.000284386
5.48796e-06
0.000281599
5.57241e-06
0.000278772
5.65388e-06
0.000275905
5.7324e-06
0.000273
5.80799e-06
0.000270059
5.88069e-06
0.000267083
5.95054e-06
0.000264074
6.01756e-06
0.000261032
6.08181e-06
0.00025796
6.14332e-06
0.000254858
6.20215e-06
0.000251728
6.25834e-06
0.000248571
6.31194e-06
0.000245389
6.36301e-06
0.000242183
6.41161e-06
0.000238953
6.45778e-06
0.000235702
6.5016e-06
0.00023243
6.54311e-06
0.000229138
6.58237e-06
0.000225828
6.61946e-06
0.0002225
6.65443e-06
0.000219156
6.68734e-06
0.000215796
6.71825e-06
0.000212422
6.74724e-06
0.000209035
6.77435e-06
0.000205634
6.79966e-06
0.000202222
6.82323e-06
0.000198799
6.84512e-06
0.000195366
6.8654e-06
0.000191924
6.88412e-06
0.000188473
6.90135e-06
0.000185014
6.91715e-06
0.000181548
6.93158e-06
0.000178075
6.9447e-06
0.000174597
6.95658e-06
0.000171113
6.96725e-06
0.000167624
6.9768e-06
0.000164131
6.98526e-06
0.000160635
6.9927e-06
0.000157135
6.99918e-06
0.000153632
7.00473e-06
0.000150127
7.00943e-06
0.00014662
7.01331e-06
0.000143112
7.01643e-06
0.000139602
7.01884e-06
0.000136092
7.02058e-06
0.000132581
7.0217e-06
0.00012907
7.02224e-06
0.000125558
7.02226e-06
0.000122047
7.02178e-06
0.000118537
7.02086e-06
0.000115027
7.01953e-06
0.000111518
7.01783e-06
0.00010801
7.01581e-06
0.000104503
7.01348e-06
0.000100998
7.0109e-06
9.74937e-05
7.00809e-06
9.39911e-05
7.00509e-06
9.04901e-05
7.00193e-06
8.69908e-05
6.99864e-06
8.34931e-05
6.99524e-06
7.99973e-05
6.99176e-06
7.65031e-05
6.98824e-06
7.30108e-05
6.98469e-06
6.95202e-05
6.98115e-06
6.60314e-05
6.97762e-06
6.25444e-05
6.97414e-06
5.9059e-05
6.97073e-06
5.55753e-05
6.9674e-06
5.20933e-05
6.96417e-06
4.86128e-05
6.96107e-06
4.51338e-05
6.95809e-06
4.16562e-05
6.95527e-06
3.81799e-05
6.95262e-06
3.47049e-05
6.95014e-06
3.1231e-05
6.94785e-06
2.77582e-05
6.94576e-06
2.42863e-05
6.94388e-06
2.08153e-05
6.94221e-06
1.73449e-05
6.94077e-06
1.38752e-05
6.93956e-06
1.0406e-05
6.93859e-06
6.93712e-06
6.93785e-06
3.4685e-06
6.93736e-06
6.93712e-06
3.19787e-06
-9.59421e-06
6.39586e-06
-9.59456e-06
9.59409e-06
-9.59528e-06
1.27927e-05
-9.59634e-06
1.59917e-05
-9.59775e-06
1.91914e-05
-9.59951e-06
2.23917e-05
-9.6016e-06
2.55929e-05
-9.60404e-06
2.8795e-05
-9.6068e-06
3.19981e-05
-9.60989e-06
3.52024e-05
-9.61328e-06
3.84079e-05
-9.61699e-06
4.16147e-05
-9.62098e-06
4.4823e-05
-9.62526e-06
4.80328e-05
-9.6298e-06
5.12442e-05
-9.6346e-06
5.44573e-05
-9.63965e-06
5.76721e-05
-9.64491e-06
6.08888e-05
-9.65039e-06
6.41074e-05
-9.65606e-06
6.73279e-05
-9.6619e-06
7.05505e-05
-9.66789e-06
7.37751e-05
-9.67401e-06
7.70018e-05
-9.68024e-06
8.02306e-05
-9.68656e-06
8.34616e-05
-9.69294e-06
8.66947e-05
-9.69935e-06
8.993e-05
-9.70576e-06
9.31674e-05
-9.71216e-06
9.64069e-05
-9.71851e-06
9.96486e-05
-9.72477e-06
0.000102892
-9.73092e-06
0.000106138
-9.73692e-06
0.000109386
-9.74274e-06
0.000112635
-9.74833e-06
0.000115887
-9.75367e-06
0.00011914
-9.75871e-06
0.000122395
-9.76342e-06
0.000125651
-9.76774e-06
0.000128908
-9.77163e-06
0.000132167
-9.77506e-06
0.000135426
-9.77796e-06
0.000138687
-9.7803e-06
0.000141948
-9.78202e-06
0.000145209
-9.78308e-06
0.000148471
-9.7834e-06
0.000151732
-9.78295e-06
0.000154993
-9.78167e-06
0.000158254
-9.77949e-06
0.000161513
-9.77636e-06
0.000164771
-9.77221e-06
0.000168027
-9.76698e-06
0.000171282
-9.7606e-06
0.000174533
-9.75301e-06
0.000177782
-9.74414e-06
0.000181028
-9.73392e-06
0.000184269
-9.72228e-06
0.000187506
-9.70914e-06
0.000190739
-9.69443e-06
0.000193966
-9.67807e-06
0.000197187
-9.65998e-06
0.000200401
-9.64009e-06
0.000203608
-9.61831e-06
0.000206808
-9.59457e-06
0.000209999
-9.56878e-06
0.00021318
-9.54085e-06
0.000216352
-9.51071e-06
0.000219512
-9.47825e-06
0.000222661
-9.44341e-06
0.000225798
-9.40609e-06
0.000228922
-9.3662e-06
0.000232031
-9.32366e-06
0.000235126
-9.27837e-06
0.000238204
-9.23025e-06
0.000241265
-9.17921e-06
0.000244309
-9.12516e-06
0.000247333
-9.06802e-06
0.000250338
-9.00769e-06
0.000253321
-8.94409e-06
0.000256282
-8.87714e-06
0.000259219
-8.80674e-06
0.000262132
-8.73283e-06
0.000265019
-8.65531e-06
0.00026788
-8.57411e-06
0.000270711
-8.48915e-06
0.000273514
-8.40036e-06
0.000276285
-8.30767e-06
0.000279024
-8.21101e-06
0.00028173
-8.11031e-06
0.000284401
-8.00551e-06
0.000287035
-7.89656e-06
0.000289632
-7.78341e-06
0.00029219
-7.66599e-06
0.000294707
-7.54428e-06
0.000297182
-7.41823e-06
0.000299614
-7.28781e-06
0.000302001
-7.15299e-06
0.000304341
-7.01375e-06
0.000306634
-6.87007e-06
0.000308877
-6.72196e-06
0.000311069
-6.56939e-06
0.000313209
-6.41239e-06
0.000315295
-6.25096e-06
0.000317326
-6.08512e-06
0.0003193
-5.91491e-06
0.000321216
-5.74035e-06
0.000323072
-5.56149e-06
0.000324867
-5.37838e-06
0.0003266
-5.19109e-06
0.000328268
-4.99968e-06
0.000329872
-4.80423e-06
0.000331409
-4.60483e-06
0.000332878
-4.40157e-06
0.000334279
-4.19456e-06
0.000335609
-3.9839e-06
0.000336867
-3.76973e-06
0.000338053
-3.55216e-06
0.000339165
-3.33133e-06
0.000340202
-3.1074e-06
0.000341164
-2.88051e-06
0.000342049
-2.65082e-06
0.000342857
-2.41851e-06
0.000343586
-2.18374e-06
0.000344236
-1.9467e-06
0.000344806
-1.70758e-06
0.000345296
-1.46657e-06
0.000345705
-1.22387e-06
0.000346032
-9.79687e-07
0.000346277
-7.34221e-07
0.00034644
-4.8769e-07
0.000346521
-2.40306e-07
0.000346519
7.71157e-09
0.000346433
2.56143e-07
0.000346265
5.04768e-07
0.000346014
7.53364e-07
0.00034568
1.00171e-06
0.000345263
1.24958e-06
0.000344763
1.49676e-06
0.000344182
1.74302e-06
0.000343518
1.98816e-06
0.000342773
2.23195e-06
0.000341948
2.47419e-06
0.000341042
2.71467e-06
0.000340056
2.95318e-06
0.000338992
3.18954e-06
0.000337849
3.42355e-06
0.000336629
3.65502e-06
0.000335333
3.88377e-06
0.000333961
4.10965e-06
0.000332515
4.33247e-06
0.000330996
4.55208e-06
0.000329405
4.76834e-06
0.000327742
4.9811e-06
0.00032601
5.19023e-06
0.00032421
5.39561e-06
0.000322342
5.59712e-06
0.000320408
5.79465e-06
0.00031841
5.98812e-06
0.000316348
6.17742e-06
0.000314225
6.36249e-06
0.000312041
6.54325e-06
0.000309799
6.71963e-06
0.000307499
6.8916e-06
0.000305144
7.05909e-06
0.000302734
7.22209e-06
0.000300271
7.38055e-06
0.000297757
7.53446e-06
0.000295193
7.68382e-06
0.000292581
7.82861e-06
0.000289923
7.96884e-06
0.000287219
8.10453e-06
0.000284471
8.23568e-06
0.000281681
8.36233e-06
0.00027885
8.48451e-06
0.00027598
8.60226e-06
0.000273073
8.71561e-06
0.000270129
8.82461e-06
0.00026715
8.92933e-06
0.000264138
9.02981e-06
0.000261093
9.12612e-06
0.000258018
9.21834e-06
0.000254914
9.30651e-06
0.000251782
9.39074e-06
0.000248623
9.47108e-06
0.000245438
9.54762e-06
0.000242229
9.62044e-06
0.000238997
9.68963e-06
0.000235744
9.75527e-06
0.000232469
9.81746e-06
0.000229175
9.87629e-06
0.000225863
9.93184e-06
0.000222533
9.98421e-06
0.000219187
1.00335e-05
0.000215825
1.00798e-05
0.00021245
1.01232e-05
0.00020906
1.01638e-05
0.000205658
1.02017e-05
0.000202244
1.02369e-05
0.00019882
1.02697e-05
0.000195385
1.03e-05
0.000191941
1.0328e-05
0.000188489
1.03538e-05
0.000185028
1.03774e-05
0.000181561
1.0399e-05
0.000178087
1.04186e-05
0.000174607
1.04364e-05
0.000171122
1.04523e-05
0.000167633
1.04665e-05
0.000164139
1.04792e-05
0.000160641
1.04903e-05
0.00015714
1.04999e-05
0.000153637
1.05082e-05
0.000150131
1.05152e-05
0.000146624
1.05209e-05
0.000143114
1.05255e-05
0.000139604
1.05291e-05
0.000136093
1.05316e-05
0.000132582
1.05333e-05
0.00012907
1.0534e-05
0.000125558
1.0534e-05
0.000122047
1.05332e-05
0.000118536
1.05318e-05
0.000115025
1.05298e-05
0.000111516
1.05272e-05
0.000108008
1.05241e-05
0.000104501
1.05206e-05
0.000100995
1.05166e-05
9.74907e-05
1.05124e-05
9.3988e-05
1.05078e-05
9.04868e-05
1.05031e-05
8.69874e-05
1.04981e-05
8.34897e-05
1.0493e-05
7.99937e-05
1.04877e-05
7.64996e-05
1.04824e-05
7.30072e-05
1.0477e-05
6.95167e-05
1.04717e-05
6.60279e-05
1.04664e-05
6.2541e-05
1.04611e-05
5.90557e-05
1.0456e-05
5.55721e-05
1.0451e-05
5.20902e-05
1.04461e-05
4.86098e-05
1.04414e-05
4.5131e-05
1.0437e-05
4.16535e-05
1.04327e-05
3.81774e-05
1.04287e-05
3.47026e-05
1.0425e-05
3.12289e-05
1.04215e-05
2.77563e-05
1.04184e-05
2.42847e-05
1.04155e-05
2.08138e-05
1.0413e-05
1.73437e-05
1.04109e-05
1.38742e-05
1.0409e-05
1.04053e-05
1.04076e-05
6.93663e-06
1.04065e-05
3.46825e-06
1.04057e-05
1.04054e-05
3.19751e-06
-1.27917e-05
6.39515e-06
-1.27922e-05
9.59302e-06
-1.27931e-05
1.27913e-05
-1.27946e-05
1.599e-05
-1.27965e-05
1.91893e-05
-1.27988e-05
2.23893e-05
-1.28016e-05
2.55901e-05
-1.28049e-05
2.87919e-05
-1.28086e-05
3.19947e-05
-1.28127e-05
3.51986e-05
-1.28172e-05
3.84038e-05
-1.28222e-05
4.16104e-05
-1.28275e-05
4.48184e-05
-1.28333e-05
4.80279e-05
-1.28393e-05
5.12391e-05
-1.28458e-05
5.44519e-05
-1.28525e-05
5.76666e-05
-1.28596e-05
6.08831e-05
-1.28669e-05
6.41015e-05
-1.28745e-05
6.73219e-05
-1.28823e-05
7.05443e-05
-1.28903e-05
7.37688e-05
-1.28985e-05
7.69954e-05
-1.29069e-05
8.02242e-05
-1.29153e-05
8.34551e-05
-1.29239e-05
8.66882e-05
-1.29324e-05
8.99235e-05
-1.29411e-05
9.3161e-05
-1.29496e-05
9.64006e-05
-1.29581e-05
9.96424e-05
-1.29665e-05
0.000102886
-1.29748e-05
0.000106132
-1.29828e-05
0.00010938
-1.29907e-05
0.00011263
-1.29982e-05
0.000115882
-1.30054e-05
0.000119135
-1.30121e-05
0.00012239
-1.30185e-05
0.000125647
-1.30243e-05
0.000128905
-1.30296e-05
0.000132164
-1.30342e-05
0.000135424
-1.30382e-05
0.000138685
-1.30414e-05
0.000141947
-1.30437e-05
0.000145209
-1.30452e-05
0.000148471
-1.30457e-05
0.000151734
-1.30452e-05
0.000154995
-1.30436e-05
0.000158257
-1.30408e-05
0.000161517
-1.30367e-05
0.000164776
-1.30313e-05
0.000168034
-1.30244e-05
0.000171289
-1.3016e-05
0.000174542
-1.3006e-05
0.000177792
-1.29943e-05
0.000181039
-1.29808e-05
0.000184282
-1.29654e-05
0.000187521
-1.2948e-05
0.000190755
-1.29285e-05
0.000193984
-1.29068e-05
0.000197207
-1.28828e-05
0.000200423
-1.28564e-05
0.000203632
-1.28275e-05
0.000206833
-1.2796e-05
0.000210026
-1.27617e-05
0.00021321
-1.27246e-05
0.000216384
-1.26845e-05
0.000219547
-1.26414e-05
0.000222699
-1.25951e-05
0.000225838
-1.25454e-05
0.000228964
-1.24924e-05
0.000232076
-1.24358e-05
0.000235174
-1.23756e-05
0.000238255
-1.23115e-05
0.000241319
-1.22436e-05
0.000244366
-1.21717e-05
0.000247393
-1.20956e-05
0.000250401
-1.20153e-05
0.000253388
-1.19307e-05
0.000256352
-1.18415e-05
0.000259293
-1.17478e-05
0.00026221
-1.16494e-05
0.0002651
-1.15461e-05
0.000267964
-1.1438e-05
0.0002708
-1.13248e-05
0.000273606
-1.12066e-05
0.000276382
-1.10831e-05
0.000279125
-1.09543e-05
0.000281835
-1.08201e-05
0.00028451
-1.06805e-05
0.000287148
-1.05353e-05
0.000289749
-1.03845e-05
0.000292311
-1.0228e-05
0.000294833
-1.00658e-05
0.000297313
-9.89777e-06
0.000299749
-9.72392e-06
0.00030214
-9.54419e-06
0.000304485
-9.35856e-06
0.000306782
-9.16701e-06
0.000309029
-8.96952e-06
0.000311226
-8.76609e-06
0.00031337
-8.55674e-06
0.000315461
-8.34147e-06
0.000317496
-8.12031e-06
0.000319474
-7.8933e-06
0.000321394
-7.66048e-06
0.000323255
-7.42192e-06
0.000325054
-7.17769e-06
0.000326791
-6.92786e-06
0.000328464
-6.67253e-06
0.000330071
-6.41179e-06
0.000331612
-6.14578e-06
0.000333085
-5.8746e-06
0.000334489
-5.59841e-06
0.000335823
-5.31735e-06
0.000337084
-5.03158e-06
0.000338274
-4.74127e-06
0.000339389
-4.44661e-06
0.000340429
-4.14779e-06
0.000341394
-3.84502e-06
0.000342281
-3.53851e-06
0.000343091
-3.22849e-06
0.000343823
-2.91519e-06
0.000344475
-2.59884e-06
0.000345047
-2.27972e-06
0.000345539
-1.95806e-06
0.000345949
-1.63414e-06
0.000346277
-1.30824e-06
0.000346524
-9.80623e-07
0.000346688
-6.5158e-07
0.000346769
-3.21396e-07
0.000346767
9.63513e-09
0.000346682
3.41221e-07
0.000346514
6.73066e-07
0.000346262
1.00487e-06
0.000345927
1.33634e-06
0.00034551
1.66718e-06
0.000345009
1.99709e-06
0.000344427
2.32579e-06
0.000343762
2.65297e-06
0.000343015
2.97835e-06
0.000342188
3.30165e-06
0.00034128
3.62261e-06
0.000340292
3.94093e-06
0.000339225
4.25637e-06
0.00033808
4.56867e-06
0.000336858
4.87757e-06
0.000335559
5.18285e-06
0.000334184
5.48426e-06
0.000332735
5.7816e-06
0.000331212
6.07465e-06
0.000329618
6.36321e-06
0.000327952
6.6471e-06
0.000326216
6.92613e-06
0.000324411
7.20015e-06
0.000322539
7.469e-06
0.000320601
7.73253e-06
0.000318599
7.99062e-06
0.000316533
8.24315e-06
0.000314406
8.49002e-06
0.000312218
8.73112e-06
0.000309971
8.96639e-06
0.000307667
9.19574e-06
0.000305307
9.41912e-06
0.000302892
9.63649e-06
0.000300425
9.8478e-06
0.000297907
1.0053e-05
0.000295338
1.02522e-05
0.000292722
1.04452e-05
0.000290058
1.06322e-05
0.00028735
1.08131e-05
0.000284597
1.09879e-05
0.000281803
1.11567e-05
0.000278968
1.13196e-05
0.000276094
1.14765e-05
0.000273182
1.16276e-05
0.000270234
1.17728e-05
0.000267251
1.19123e-05
0.000264234
1.20462e-05
0.000261186
1.21745e-05
0.000258107
1.22974e-05
0.000254998
1.24148e-05
0.000251862
1.2527e-05
0.000248699
1.2634e-05
0.000245511
1.27359e-05
0.000242298
1.28329e-05
0.000239063
1.2925e-05
0.000235806
1.30124e-05
0.000232528
1.30952e-05
0.000229231
1.31735e-05
0.000225915
1.32474e-05
0.000222582
1.33171e-05
0.000219233
1.33827e-05
0.000215869
1.34442e-05
0.00021249
1.35019e-05
0.000209098
1.35559e-05
0.000205693
1.36063e-05
0.000202277
1.36532e-05
0.00019885
1.36967e-05
0.000195413
1.3737e-05
0.000191967
1.37742e-05
0.000188512
1.38084e-05
0.00018505
1.38398e-05
0.000181581
1.38684e-05
0.000178105
1.38944e-05
0.000174623
1.39179e-05
0.000171137
1.3939e-05
0.000167645
1.39579e-05
0.00016415
1.39746e-05
0.000160651
1.39893e-05
0.000157149
1.4002e-05
0.000153644
1.40129e-05
0.000150137
1.40221e-05
0.000146628
1.40297e-05
0.000143118
1.40357e-05
0.000139607
1.40403e-05
0.000136095
1.40436e-05
0.000132582
1.40457e-05
0.00012907
1.40466e-05
0.000125557
1.40465e-05
0.000122045
1.40454e-05
0.000118534
1.40433e-05
0.000115023
1.40405e-05
0.000111513
1.4037e-05
0.000108004
1.40328e-05
0.000104497
1.4028e-05
0.000100991
1.40227e-05
9.74862e-05
1.4017e-05
9.39832e-05
1.40108e-05
9.04819e-05
1.40044e-05
8.69823e-05
1.39977e-05
8.34845e-05
1.39908e-05
7.99885e-05
1.39837e-05
7.64943e-05
1.39766e-05
7.30019e-05
1.39694e-05
6.95114e-05
1.39622e-05
6.60227e-05
1.39551e-05
6.25358e-05
1.3948e-05
5.90507e-05
1.39411e-05
5.55673e-05
1.39344e-05
5.20855e-05
1.39279e-05
4.86054e-05
1.39216e-05
4.51267e-05
1.39156e-05
4.16495e-05
1.39099e-05
3.81737e-05
1.39045e-05
3.46992e-05
1.38995e-05
3.12258e-05
1.38949e-05
2.77535e-05
1.38907e-05
2.42822e-05
1.38869e-05
2.08117e-05
1.38835e-05
1.73419e-05
1.38806e-05
1.38728e-05
1.38782e-05
1.04041e-05
1.38762e-05
6.93589e-06
1.38747e-05
3.46788e-06
1.38737e-05
1.38733e-05
3.19704e-06
-1.59888e-05
6.39419e-06
-1.59894e-05
9.59159e-06
-1.59905e-05
1.27894e-05
-1.59923e-05
1.59876e-05
-1.59947e-05
1.91864e-05
-1.59976e-05
2.2386e-05
-1.60012e-05
2.55864e-05
-1.60053e-05
2.87877e-05
-1.60099e-05
3.19901e-05
-1.60151e-05
3.51936e-05
-1.60208e-05
3.83984e-05
-1.6027e-05
4.16046e-05
-1.60337e-05
4.48123e-05
-1.60409e-05
4.80214e-05
-1.60485e-05
5.12323e-05
-1.60566e-05
5.44448e-05
-1.60651e-05
5.76592e-05
-1.60739e-05
6.08754e-05
-1.60831e-05
6.40936e-05
-1.60927e-05
6.73138e-05
-1.61025e-05
7.0536e-05
-1.61126e-05
7.37604e-05
-1.61229e-05
7.69869e-05
-1.61334e-05
8.02156e-05
-1.6144e-05
8.34464e-05
-1.61547e-05
8.66795e-05
-1.61655e-05
8.99148e-05
-1.61764e-05
9.31524e-05
-1.61872e-05
9.63921e-05
-1.61979e-05
9.9634e-05
-1.62085e-05
0.000102878
-1.62188e-05
0.000106124
-1.6229e-05
0.000109372
-1.62389e-05
0.000112623
-1.62484e-05
0.000115875
-1.62574e-05
0.000119129
-1.6266e-05
0.000122384
-1.6274e-05
0.000125641
-1.62814e-05
0.0001289
-1.62881e-05
0.00013216
-1.62941e-05
0.000135421
-1.62991e-05
0.000138683
-1.63032e-05
0.000141945
-1.63063e-05
0.000145208
-1.63083e-05
0.000148472
-1.63091e-05
0.000151735
-1.63086e-05
0.000154998
-1.63067e-05
0.000158261
-1.63034e-05
0.000161522
-1.62984e-05
0.000164783
-1.62918e-05
0.000168042
-1.62834e-05
0.000171299
-1.6273e-05
0.000174554
-1.62607e-05
0.000177806
-1.62462e-05
0.000181054
-1.62295e-05
0.000184299
-1.62104e-05
0.00018754
-1.61889e-05
0.000190777
-1.61647e-05
0.000194008
-1.61378e-05
0.000197233
-1.6108e-05
0.000200452
-1.60752e-05
0.000203663
-1.60393e-05
0.000206867
-1.60001e-05
0.000210063
-1.59574e-05
0.00021325
-1.59113e-05
0.000216427
-1.58614e-05
0.000219593
-1.58077e-05
0.000222748
-1.575e-05
0.000225891
-1.56882e-05
0.000229021
-1.56221e-05
0.000232136
-1.55516e-05
0.000235237
-1.54765e-05
0.000238323
-1.53967e-05
0.000241391
-1.53121e-05
0.000244442
-1.52224e-05
0.000247473
-1.51275e-05
0.000250485
-1.50273e-05
0.000253477
-1.49217e-05
0.000256446
-1.48105e-05
0.000259391
-1.46936e-05
0.000262313
-1.45707e-05
0.000265208
-1.44419e-05
0.000268077
-1.43069e-05
0.000270918
-1.41656e-05
0.000273729
-1.4018e-05
0.00027651
-1.38638e-05
0.000279259
-1.3703e-05
0.000281974
-1.35354e-05
0.000284655
-1.3361e-05
0.000287299
-1.31796e-05
0.000289906
-1.29913e-05
0.000292473
-1.27958e-05
0.000295001
-1.25931e-05
0.000297486
-1.23831e-05
0.000299928
-1.21659e-05
0.000302325
-1.19413e-05
0.000304676
-1.17093e-05
0.000306979
-1.14699e-05
0.000309232
-1.1223e-05
0.000311435
-1.09687e-05
0.000313585
-1.0707e-05
0.000315682
-1.04379e-05
0.000317723
-1.01613e-05
0.000319707
-9.87749e-06
0.000321633
-9.58636e-06
0.000323499
-9.28803e-06
0.000325304
-8.98259e-06
0.000327046
-8.67013e-06
0.000328724
-8.35077e-06
0.000330337
-8.02464e-06
0.000331883
-7.69188e-06
0.000333361
-7.35265e-06
0.00033477
-7.00713e-06
0.000336108
-6.6555e-06
0.000337375
-6.29797e-06
0.000338568
-5.93474e-06
0.000339687
-5.56605e-06
0.000340732
-5.19215e-06
0.0003417
-4.81328e-06
0.000342591
-4.42972e-06
0.000343405
-4.04176e-06
0.000344139
-3.64967e-06
0.000344794
-3.25377e-06
0.000345369
-2.85438e-06
0.000345862
-2.45181e-06
0.000346275
-2.04641e-06
0.000346605
-1.63851e-06
0.000346853
-1.22845e-06
0.000347018
-8.16612e-07
0.0003471
-4.03339e-07
0.000347098
1.10009e-08
0.000347014
4.26037e-07
0.000346845
8.41399e-07
0.000346593
1.25671e-06
0.000346258
1.67161e-06
0.00034584
2.08571e-06
0.000345338
2.49865e-06
0.000344754
2.91005e-06
0.000344087
3.31956e-06
0.000343339
3.72682e-06
0.000342509
4.13147e-06
0.000341598
4.53316e-06
0.000340608
4.93156e-06
0.000339538
5.32634e-06
0.000338389
5.71718e-06
0.000337163
6.10375e-06
0.00033586
6.48578e-06
0.000334481
6.86296e-06
0.000333028
7.23503e-06
0.000331501
7.60171e-06
0.000329901
7.96276e-06
0.000328231
8.31795e-06
0.00032649
8.66706e-06
0.00032468
9.00986e-06
0.000322803
9.34619e-06
0.000320859
9.67585e-06
0.000318851
9.99868e-06
0.00031678
1.03145e-05
0.000314647
1.06233e-05
0.000312453
1.09248e-05
0.0003102
1.1219e-05
0.00030789
1.15058e-05
0.000305524
1.17852e-05
0.000303104
1.20569e-05
0.00030063
1.23211e-05
0.000298106
1.25777e-05
0.000295531
1.28266e-05
0.000292908
1.30679e-05
0.000290239
1.33016e-05
0.000287524
1.35277e-05
0.000284766
1.37462e-05
0.000281966
1.39571e-05
0.000279125
1.41606e-05
0.000276245