/*--------------------------------*- C++ -*----------------------------------*\
| =========                 |                                                 |
| \\      /  F ield         | OpenFOAM: The Open Source CFD Toolbox           |
|  \\    /   O peration     | Version:  v2012                                 |
|   \\  /    A nd           | Website:  www.openfoam.com                      |
|    \\/     M anipulation  |                                                 |
\*---------------------------------------------------------------------------*/
FoamFile
{
    version     2.0;
    format      ascii;
    class       volScalarField;
    location    "19.8";
    object      Psi_z;
}
// * * * * * * * * * * * * * * * * * * * * * * * * * * * * * * * * * * * * * //

dimensions      [0 2 -1 0 0 0 0];


internalField   nonuniform List<scalar> 
65536
(
7.98904e-06
2.39675e-05
3.99468e-05
5.59276e-05
7.19103e-05
8.78957e-05
0.000103884
0.000119876
0.000135873
0.000151874
0.00016788
0.000183892
0.000199911
0.000215936
0.000231968
0.000248008
0.000264056
0.000280112
0.000296177
0.000312251
0.000328335
0.000344428
0.00036053
0.000376643
0.000392766
0.000408899
0.000425042
0.000441196
0.00045736
0.000473534
0.000489719
0.000505913
0.000522117
0.000538331
0.000554553
0.000570785
0.000587024
0.000603271
0.000619526
0.000635786
0.000652053
0.000668324
0.000684599
0.000700877
0.000717157
0.000733437
0.000749717
0.000765995
0.000782269
0.000798539
0.000814802
0.000831057
0.000847302
0.000863534
0.000879753
0.000895955
0.000912139
0.000928301
0.00094444
0.000960553
0.000976636
0.000992687
0.0010087
0.00102468
0.00104062
0.00105651
0.00107235
0.00108814
0.00110388
0.00111955
0.00113516
0.0011507
0.00116617
0.00118156
0.00119687
0.00121209
0.00122721
0.00124224
0.00125717
0.00127199
0.00128669
0.00130127
0.00131573
0.00133006
0.00134425
0.00135829
0.00137218
0.00138592
0.00139949
0.00141289
0.00142612
0.00143916
0.00145201
0.00146466
0.0014771
0.00148934
0.00150135
0.00151313
0.00152469
0.001536
0.00154706
0.00155786
0.0015684
0.00157867
0.00158866
0.00159836
0.00160777
0.00161689
0.00162569
0.00163418
0.00164235
0.0016502
0.00165771
0.00166488
0.0016717
0.00167817
0.00168428
0.00169003
0.00169541
0.00170042
0.00170505
0.0017093
0.00171315
0.00171662
0.00171969
0.00172237
0.00172464
0.00172651
0.00172797
0.00172902
0.00172967
0.0017299
0.00172972
0.00172912
0.00172812
0.0017267
0.00172487
0.00172262
0.00171997
0.00171691
0.00171344
0.00170957
0.00170529
0.00170062
0.00169555
0.00169009
0.00168424
0.00167801
0.0016714
0.00166442
0.00165707
0.00164935
0.00164128
0.00163286
0.00162409
0.00161498
0.00160554
0.00159577
0.00158568
0.00157528
0.00156457
0.00155357
0.00154227
0.00153069
0.00151884
0.00150671
0.00149433
0.00148169
0.0014688
0.00145568
0.00144232
0.00142874
0.00141495
0.00140095
0.00138674
0.00137234
0.00135776
0.001343
0.00132806
0.00131296
0.0012977
0.00128229
0.00126674
0.00125104
0.00123522
0.00121926
0.00120319
0.00118701
0.00117072
0.00115432
0.00113783
0.00112125
0.00110459
0.00108784
0.00107101
0.00105412
0.00103716
0.00102014
0.00100305
0.000985921
0.000968737
0.000951507
0.000934236
0.000916926
0.000899581
0.000882204
0.000864798
0.000847366
0.000829911
0.000812436
0.000794942
0.000777433
0.000759911
0.000742377
0.000724834
0.000707284
0.000689728
0.000672168
0.000654605
0.000637041
0.000619478
0.000601915
0.000584356
0.000566799
0.000549247
0.0005317
0.000514159
0.000496624
0.000479097
0.000461576
0.000444064
0.000426559
0.000409063
0.000391576
0.000374097
0.000356626
0.000339165
0.000321712
0.000304267
0.000286831
0.000269402
0.000251982
0.000234569
0.000217163
0.000199764
0.000182371
0.000164984
0.000147602
0.000130225
0.000112853
9.54843e-05
7.8119e-05
6.07564e-05
4.33959e-05
2.6037e-05
8.67889e-06
2.3967e-05
7.19018e-05
0.000119839
0.000167781
0.000215729
0.000263684
0.000311649
0.000359625
0.000407614
0.000455617
0.000503636
0.000551672
0.000599727
0.000647802
0.000695899
0.000744018
0.000792161
0.00084033
0.000888525
0.000936746
0.000984996
0.00103327
0.00108158
0.00112992
0.00117829
0.00122669
0.00127512
0.00132358
0.00137207
0.0014206
0.00146915
0.00151773
0.00156634
0.00161499
0.00166365
0.00171235
0.00176107
0.00180981
0.00185857
0.00190736
0.00195616
0.00200497
0.0020538
0.00210263
0.00215147
0.00220032
0.00224916
0.00229799
0.00234682
0.00239563
0.00244442
0.00249319
0.00254192
0.00259062
0.00263928
0.00268789
0.00273644
0.00278493
0.00283335
0.00288169
0.00292994
0.0029781
0.00302615
0.00307409
0.00312191
0.00316958
0.00321712
0.00326449
0.0033117
0.00335873
0.00340556
0.00345219
0.00349859
0.00354477
0.00359069
0.00363636
0.00368174
0.00372684
0.00377162
0.00381608
0.0038602
0.00390395
0.00394733
0.00399032
0.00403289
0.00407503
0.00411671
0.00415793
0.00419865
0.00423886
0.00427854
0.00431767
0.00435622
0.00439418
0.00443153
0.00446823
0.00450428
0.00453964
0.0045743
0.00460824
0.00464143
0.00467385
0.00470547
0.00473629
0.00476627
0.00479539
0.00482363
0.00485097
0.00487739
0.00490287
0.00492739
0.00495093
0.00497346
0.00499498
0.00501545
0.00503487
0.00505322
0.00507047
0.00508662
0.00510165
0.00511554
0.00512828
0.00513986
0.00515026
0.00515948
0.00516751
0.00517433
0.00517993
0.00518432
0.00518748
0.00518941
0.00519011
0.00518957
0.00518779
0.00518477
0.00518051
0.00517501
0.00516828
0.00516032
0.00515113
0.00514072
0.0051291
0.00511628
0.00510225
0.00508705
0.00507066
0.00505312
0.00503442
0.00501459
0.00499363
0.00497157
0.00494842
0.0049242
0.00489892
0.0048726
0.00484527
0.00481693
0.00478762
0.00475735
0.00472614
0.00469401
0.00466099
0.0046271
0.00459235
0.00455678
0.0045204
0.00448323
0.00444531
0.00440664
0.00436726
0.00432719
0.00428645
0.00424506
0.00420304
0.00416042
0.00411722
0.00407346
0.00402916
0.00398435
0.00393904
0.00389326
0.00384702
0.00380034
0.00375326
0.00370577
0.00365791
0.0036097
0.00356114
0.00351226
0.00346307
0.00341359
0.00336384
0.00331384
0.00326359
0.00321311
0.00316242
0.00311154
0.00306046
0.00300922
0.00295781
0.00290626
0.00285456
0.00280275
0.00275081
0.00269877
0.00264664
0.00259442
0.00254212
0.00248975
0.00243732
0.00238484
0.00233231
0.00227974
0.00222714
0.00217451
0.00212186
0.00206919
0.0020165
0.00196382
0.00191112
0.00185843
0.00180574
0.00175306
0.00170039
0.00164774
0.00159509
0.00154247
0.00148987
0.00143728
0.00138472
0.00133218
0.00127967
0.00122718
0.00117472
0.00112228
0.00106987
0.00101748
0.000965126
0.000912792
0.000860483
0.000808199
0.000755938
0.000703699
0.000651481
0.000599284
0.000547106
0.000494945
0.000442801
0.000390671
0.000338555
0.00028645
0.000234354
0.000182267
0.000130186
7.811e-05
2.60364e-05
3.9944e-05
0.000119833
0.000199727
0.000279628
0.00035954
0.000439464
0.000519403
0.000599362
0.000679341
0.000759344
0.000839374
0.000919433
0.000999523
0.00107965
0.00115981
0.00124
0.00132024
0.00140052
0.00148084
0.00156121
0.00164163
0.00172209
0.0018026
0.00188317
0.00196378
0.00204445
0.00212516
0.00220593
0.00228675
0.00236763
0.00244855
0.00252952
0.00261054
0.00269161
0.00277273
0.00285389
0.00293509
0.00301633
0.0030976
0.00317891
0.00326025
0.00334161
0.00342299
0.00350438
0.00358579
0.00366719
0.0037486
0.00383
0.00391138
0.00399274
0.00407406
0.00415534
0.00423658
0.00431775
0.00439885
0.00447988
0.00456081
0.00464163
0.00472234
0.00480292
0.00488335
0.00496362
0.00504372
0.00512363
0.00520333
0.0052828
0.00536204
0.00544101
0.0055197
0.00559809
0.00567616
0.00575389
0.00583125
0.00590822
0.00598478
0.00606091
0.00613657
0.00621174
0.0062864
0.00636052
0.00643406
0.00650701
0.00657933
0.00665099
0.00672196
0.00679221
0.00686171
0.00693042
0.00699832
0.00706536
0.00713152
0.00719675
0.00726103
0.00732432
0.00738659
0.00744779
0.00750789
0.00756685
0.00762465
0.00768123
0.00773657
0.00779063
0.00784336
0.00789474
0.00794473
0.00799329
0.00804038
0.00808598
0.00813004
0.00817253
0.00821341
0.00825266
0.00829024
0.00832612
0.00836026
0.00839265
0.00842324
0.00845202
0.00847895
0.00850401
0.00852718
0.00854843
0.00856774
0.00858509
0.00860047
0.00861385
0.00862522
0.00863458
0.00864189
0.00864717
0.00865039
0.00865156
0.00865066
0.00864769
0.00864266
0.00863556
0.00862639
0.00861517
0.0086019
0.00858658
0.00856922
0.00854984
0.00852846
0.00850508
0.00847972
0.0084524
0.00842314
0.00839196
0.00835889
0.00832395
0.00828717
0.00824856
0.00820817
0.00816602
0.00812214
0.00807656
0.00802931
0.00798043
0.00792996
0.00787792
0.00782435
0.00776929
0.00771277
0.00765484
0.00759552
0.00753486
0.0074729
0.00740966
0.0073452
0.00727954
0.00721273
0.0071448
0.00707579
0.00700574
0.00693468
0.00686265
0.0067897
0.00671585
0.00664113
0.00656559
0.00648926
0.00641218
0.00633437
0.00625587
0.00617671
0.00609692
0.00601654
0.00593559
0.0058541
0.0057721
0.00568962
0.00560669
0.00552333
0.00543957
0.00535542
0.00527093
0.0051861
0.00510096
0.00501554
0.00492985
0.00484391
0.00475775
0.00467137
0.0045848
0.00449806
0.00441116
0.00432412
0.00423694
0.00414966
0.00406227
0.00397479
0.00388723
0.00379961
0.00371193
0.00362421
0.00353644
0.00344866
0.00336085
0.00327303
0.0031852
0.00309738
0.00300956
0.00292176
0.00283397
0.00274621
0.00265847
0.00257076
0.00248309
0.00239544
0.00230784
0.00222028
0.00213275
0.00204527
0.00195783
0.00187044
0.00178309
0.00169578
0.00160851
0.00152129
0.00143411
0.00134697
0.00125987
0.00117281
0.00108578
0.000998786
0.000911823
0.000824891
0.000737985
0.000651104
0.000564245
0.000477405
0.000390581
0.000303771
0.000216972
0.00013018
4.33929e-05
5.59196e-05
0.000167761
0.000279608
0.000391466
0.000503337
0.000615227
0.000727139
0.000839077
0.000951044
0.00106305
0.00117508
0.00128716
0.00139928
0.00151145
0.00162367
0.00173595
0.00184828
0.00196067
0.00207312
0.00218563
0.00229821
0.00241086
0.00252358
0.00263636
0.00274922
0.00286215
0.00297516
0.00308823
0.00320138
0.0033146
0.0034279
0.00354126
0.00365469
0.00376819
0.00388176
0.00399538
0.00410907
0.00422281
0.0043366
0.00445043
0.00456431
0.00467822
0.00479216
0.00490612
0.00502009
0.00513407
0.00524805
0.00536202
0.00547596
0.00558987
0.00570374
0.00581755
0.00593129
0.00604495
0.00615851
0.00627196
0.00638528
0.00649845
0.00661146
0.00672428
0.00683691
0.00694931
0.00706147
0.00717337
0.00728497
0.00739626
0.00750722
0.00761781
0.007728
0.00783778
0.00794711
0.00805596
0.00816429
0.00827209
0.00837931
0.00848591
0.00859188
0.00869716
0.00880172
0.00890552
0.00900852
0.00911069
0.00921198
0.00931235
0.00941175
0.00951015
0.00960749
0.00970374
0.00979884
0.00989274
0.00998541
0.0100768
0.0101668
0.0102555
0.0103427
0.0104284
0.0105126
0.0105952
0.0106762
0.0107555
0.010833
0.0109087
0.0109826
0.0110546
0.0111246
0.0111927
0.0112586
0.0113225
0.0113842
0.0114438
0.0115011
0.0115561
0.0116087
0.011659
0.0117068
0.0117522
0.0117951
0.0118354
0.0118731
0.0119083
0.0119407
0.0119705
0.0119976
0.0120219
0.0120434
0.0120622
0.0120781
0.0120913
0.0121015
0.0121089
0.0121134
0.0121151
0.0121138
0.0121097
0.0121026
0.0120927
0.0120798
0.0120641
0.0120455
0.0120241
0.0119997
0.0119726
0.0119426
0.0119099
0.0118743
0.0118361
0.0117951
0.0117514
0.0117051
0.0116561
0.0116046
0.0115505
0.0114939
0.0114348
0.0113734
0.0113095
0.0112433
0.0111748
0.0111041
0.0110312
0.0109562
0.010879
0.0107999
0.0107187
0.0106356
0.0105506
0.0104638
0.0103753
0.0102849
0.010193
0.0100994
0.0100042
0.00990756
0.00980944
0.00970991
0.00960902
0.00950683
0.00940339
0.00929874
0.00919294
0.00908603
0.00897806
0.00886908
0.00875914
0.00864827
0.00853653
0.00842395
0.00831057
0.00819645
0.00808162
0.00796611
0.00784997
0.00773322
0.00761592
0.00749809
0.00737976
0.00726097
0.00714175
0.00702213
0.00690213
0.00678179
0.00666114
0.00654019
0.00641897
0.00629751
0.00617583
0.00605395
0.00593188
0.00580966
0.0056873
0.00556481
0.00544222
0.00531953
0.00519677
0.00507394
0.00495106
0.00482815
0.00470521
0.00458225
0.00445928
0.00433632
0.00421337
0.00409044
0.00396753
0.00384466
0.00372182
0.00359902
0.00347627
0.00335357
0.00323092
0.00310833
0.0029858
0.00286332
0.00274091
0.00261855
0.00249626
0.00237403
0.00225186
0.00212975
0.0020077
0.00188571
0.00176377
0.00164188
0.00152004
0.00139826
0.00127651
0.00115481
0.00103314
0.000911515
0.000789916
0.000668344
0.000546795
0.000425265
0.00030375
0.000182246
6.07479e-05
7.18931e-05
0.000215682
0.000359479
0.000503288
0.000647117
0.000790968
0.000934848
0.00107876
0.00122271
0.00136671
0.00151075
0.00165485
0.001799
0.00194321
0.00208749
0.00223184
0.00237626
0.00252075
0.00266533
0.00280999
0.00295473
0.00309956
0.00324448
0.00338949
0.00353459
0.00367978
0.00382507
0.00397046
0.00411594
0.00426151
0.00440718
0.00455293
0.00469878
0.00484471
0.00499073
0.00513682
0.00528299
0.00542924
0.00557555
0.00572191
0.00586834
0.0060148
0.00616131
0.00630784
0.0064544
0.00660096
0.00674752
0.00689406
0.00704058
0.00718706
0.00733348
0.00747983
0.00762609
0.00777224
0.00791828
0.00806416
0.00820989
0.00835543
0.00850076
0.00864585
0.00879069
0.00893525
0.00907949
0.0092234
0.00936693
0.00951006
0.00965276
0.00979499
0.00993672
0.0100779
0.0102185
0.0103585
0.0104979
0.0106365
0.0107744
0.0109116
0.0110479
0.0111833
0.0113178
0.0114513
0.0115838
0.0117153
0.0118456
0.0119747
0.0121026
0.0122291
0.0123544
0.0124782
0.0126005
0.0127214
0.0128406
0.0129582
0.013074
0.0131881
0.0133003
0.0134106
0.013519
0.0136253
0.0137294
0.0138314
0.0139312
0.0140287
0.0141237
0.0142164
0.0143065
0.0143941
0.014479
0.0145612
0.0146407
0.0147173
0.014791
0.0148618
0.0149296
0.0149943
0.0150559
0.0151143
0.0151695
0.0152214
0.01527
0.0153152
0.015357
0.0153953
0.0154302
0.0154615
0.0154892
0.0155134
0.0155339
0.0155508
0.015564
0.0155735
0.0155793
0.0155815
0.0155799
0.0155745
0.0155655
0.0155527
0.0155362
0.0155159
0.015492
0.0154644
0.0154331
0.0153982
0.0153596
0.0153174
0.0152717
0.0152225
0.0151697
0.0151135
0.0150539
0.0149909
0.0149245
0.0148549
0.0147821
0.0147061
0.014627
0.0145448
0.0144596
0.0143715
0.0142805
0.0141867
0.0140901
0.0139908
0.013889
0.0137845
0.0136776
0.0135682
0.0134565
0.0133426
0.0132264
0.013108
0.0129876
0.0128652
0.0127408
0.0126145
0.0124865
0.0123567
0.0122252
0.0120921
0.0119575
0.0118214
0.0116839
0.011545
0.0114048
0.0112633
0.0111207
0.010977
0.0108321
0.0106863
0.0105395
0.0103918
0.0102432
0.0100938
0.00994368
0.00979281
0.00964125
0.00948906
0.00933628
0.00918294
0.00902909
0.00887476
0.00872
0.00856482
0.00840927
0.00825338
0.00809718
0.00794069
0.00778395
0.00762698
0.00746981
0.00731245
0.00715494
0.00699729
0.00683953
0.00668167
0.00652372
0.00636572
0.00620766
0.00604958
0.00589147
0.00573336
0.00557525
0.00541716
0.00525909
0.00510106
0.00494307
0.00478512
0.00462723
0.00446941
0.00431164
0.00415395
0.00399633
0.00383878
0.00368131
0.00352392
0.00336661
0.00320937
0.00305222
0.00289515
0.00273815
0.00258123
0.00242439
0.00226761
0.0021109
0.00195426
0.00179768
0.00164116
0.00148469
0.00132827
0.00117189
0.00101556
0.00085926
0.00070299
0.000546744
0.000390518
0.000234305
7.81008e-05
8.7864e-05
0.000263595
0.000439336
0.000615093
0.000790872
0.00096668
0.00114252
0.00131841
0.00149434
0.00167032
0.00184637
0.00202247
0.00219865
0.0023749
0.00255124
0.00272765
0.00290416
0.00308076
0.00325746
0.00343425
0.00361116
0.00378817
0.00396528
0.00414252
0.00431986
0.00449732
0.0046749
0.00485259
0.0050304
0.00520832
0.00538636
0.00556451
0.00574277
0.00592114
0.00609961
0.00627818
0.00645685
0.0066356
0.00681443
0.00699334
0.00717232
0.00735135
0.00753043
0.00770954
0.00788869
0.00806784
0.00824699
0.00842613
0.00860523
0.00878429
0.00896328
0.00914219
0.00932099
0.00949966
0.00967818
0.00985653
0.0100347
0.0102126
0.0103903
0.0105677
0.0107448
0.0109215
0.0110978
0.0112738
0.0114493
0.0116243
0.0117988
0.0119727
0.012146
0.0123186
0.0124906
0.0126618
0.0128322
0.0130017
0.0131704
0.013338
0.0135047
0.0136703
0.0138348
0.0139981
0.0141602
0.0143209
0.0144803
0.0146382
0.0147946
0.0149495
0.0151027
0.0152541
0.0154038
0.0155516
0.0156974
0.0158413
0.015983
0.0161225
0.0162598
0.0163948
0.0165273
0.0166574
0.0167849
0.0169097
0.0170317
0.017151
0.0172673
0.0173807
0.017491
0.0175981
0.017702
0.0178027
0.0178999
0.0179937
0.0180839
0.0181705
0.0182535
0.0183327
0.0184081
0.0184796
0.0185471
0.0186107
0.0186702
0.0187255
0.0187767
0.0188236
0.0188663
0.0189046
0.0189386
0.0189681
0.0189933
0.019014
0.0190302
0.0190418
0.019049
0.0190516
0.0190496
0.0190431
0.019032
0.0190164
0.0189962
0.0189715
0.0189422
0.0189084
0.0188701
0.0188273
0.0187802
0.0187286
0.0186726
0.0186123
0.0185478
0.018479
0.018406
0.0183289
0.0182478
0.0181626
0.0180735
0.0179805
0.0178836
0.0177831
0.0176789
0.017571
0.0174597
0.0173449
0.0172267
0.0171052
0.0169806
0.0168528
0.016722
0.0165882
0.0164515
0.0163121
0.0161699
0.0160251
0.0158778
0.0157281
0.0155759
0.0154215
0.0152648
0.015106
0.0149452
0.0147824
0.0146178
0.0144513
0.014283
0.0141132
0.0139417
0.0137687
0.0135943
0.0134185
0.0132414
0.013063
0.0128835
0.0127029
0.0125212
0.0123385
0.0121549
0.0119704
0.011785
0.011599
0.0114121
0.0112246
0.0110365
0.0108478
0.0106586
0.0104689
0.0102787
0.0100881
0.00989713
0.00970582
0.00951419
0.00932229
0.00913014
0.00893777
0.00874521
0.00855249
0.00835962
0.00816664
0.00797357
0.00778042
0.00758721
0.00739397
0.00720071
0.00700743
0.00681417
0.00662093
0.00642771
0.00623455
0.00604143
0.00584837
0.00565539
0.00546248
0.00526965
0.0050769
0.00488425
0.00469169
0.00449922
0.00430685
0.00411458
0.00392241
0.00373033
0.00353836
0.00334648
0.00315469
0.00296299
0.00277139
0.00257986
0.00238842
0.00219705
0.00200575
0.00181452
0.00162335
0.00143224
0.00124117
0.00105015
0.00085916
0.000668204
0.000477272
0.000286356
9.54509e-05
0.000103832
0.000311499
0.000519177
0.000726875
0.000934599
0.00114236
0.00135016
0.00155801
0.00176591
0.00197388
0.00218192
0.00239003
0.00259823
0.00280651
0.0030149
0.00322338
0.00343197
0.00364067
0.00384948
0.00405842
0.00426748
0.00447666
0.00468598
0.00489543
0.00510502
0.00531474
0.0055246
0.0057346
0.00594474
0.00615502
0.00636543
0.00657598
0.00678666
0.00699747
0.0072084
0.00741945
0.00763061
0.00784188
0.00805324
0.0082647
0.00847624
0.00868784
0.00889951
0.00911122
0.00932296
0.00953472
0.00974648
0.00995823
0.0101699
0.0103816
0.0105932
0.0108047
0.011016
0.0112272
0.0114383
0.0116491
0.0118597
0.01207
0.0122801
0.0124898
0.0126992
0.0129081
0.0131166
0.0133246
0.0135321
0.013739
0.0139453
0.014151
0.0143559
0.01456
0.0147633
0.0149658
0.0151673
0.0153678
0.0155672
0.0157655
0.0159627
0.0161585
0.0163531
0.0165462
0.0167379
0.016928
0.0171165
0.0173033
0.0174883
0.0176715
0.0178527
0.0180318
0.0182089
0.0183837
0.0185563
0.0187264
0.0188941
0.0190592
0.0192217
0.0193814
0.0195382
0.0196921
0.0198429
0.0199906
0.0201351
0.0202762
0.0204139
0.020548
0.0206786
0.0208054
0.0209284
0.0210475
0.0211626
0.0212736
0.0213804
0.021483
0.0215812
0.0216749
0.0217642
0.0218488
0.0219288
0.022004
0.0220745
0.02214
0.0222006
0.0222562
0.0223067
0.0223521
0.0223923
0.0224274
0.0224571
0.0224816
0.0225008
0.0225147
0.0225232
0.0225263
0.022524
0.0225163
0.0225032
0.0224847
0.0224608
0.0224315
0.0223969
0.0223569
0.0223116
0.022261
0.0222051
0.0221441
0.0220779
0.0220065
0.0219301
0.0218487
0.0217623
0.0216711
0.021575
0.0214742
0.0213687
0.0212586
0.0211441
0.021025
0.0209017
0.0207741
0.0206423
0.0205064
0.0203666
0.0202229
0.0200754
0.0199241
0.0197693
0.019611
0.0194493
0.0192843
0.0191161
0.0189448
0.0187705
0.0185933
0.0184133
0.0182306
0.0180453
0.0178574
0.0176672
0.0174746
0.0172798
0.0170829
0.0168839
0.0166829
0.0164801
0.0162755
0.0160692
0.0158613
0.0156518
0.0154409
0.0152286
0.015015
0.0148001
0.0145841
0.0143669
0.0141488
0.0139296
0.0137096
0.0134887
0.013267
0.0130446
0.0128214
0.0125977
0.0123734
0.0121485
0.0119232
0.0116974
0.0114712
0.0112447
0.0110178
0.0107907
0.0105633
0.0103356
0.0101078
0.00987984
0.00965172
0.00942349
0.00919518
0.0089668
0.00873839
0.00850995
0.0082815
0.00805307
0.00782466
0.00759629
0.00736798
0.00713973
0.00691156
0.00668347
0.00645547
0.00622756
0.00599977
0.00577207
0.0055445
0.00531703
0.00508969
0.00486246
0.00463534
0.00440835
0.00418147
0.00395471
0.00372806
0.00350151
0.00327508
0.00304874
0.0028225
0.00259635
0.00237028
0.00214429
0.00191838
0.00169253
0.00146674
0.001241
0.0010153
0.00078964
0.000564009
0.000338397
0.000112798
0.000119795
0.000359391
0.000598999
0.00083863
0.00107829
0.00131799
0.00155774
0.00179755
0.00203742
0.00227736
0.00251739
0.0027575
0.00299772
0.00323803
0.00347845
0.003719
0.00395966
0.00420046
0.00444138
0.00468245
0.00492367
0.00516503
0.00540654
0.00564821
0.00589004
0.00613202
0.00637417
0.00661648
0.00685895
0.00710158
0.00734437
0.00758732
0.00783042
0.00807367
0.00831706
0.0085606
0.00880426
0.00904806
0.00929196
0.00953598
0.00978009
0.0100243
0.0102685
0.0105129
0.0107572
0.0110016
0.011246
0.0114904
0.0117347
0.011979
0.0122232
0.0124672
0.0127112
0.012955
0.0131985
0.0134419
0.013685
0.0139278
0.0141702
0.0144123
0.014654
0.0148952
0.0151359
0.015376
0.0156155
0.0158544
0.0160926
0.01633
0.0165666
0.0168023
0.017037
0.0172707
0.0175034
0.0177349
0.0179652
0.0181942
0.0184218
0.018648
0.0188727
0.0190957
0.0193171
0.0195367
0.0197544
0.0199701
0.0201838
0.0203954
0.0206047
0.0208117
0.0210162
0.0212182
0.0214175
0.0216141
0.0218078
0.0219986
0.0221863
0.0223708
0.022552
0.0227298
0.0229041
0.0230748
0.0232418
0.0234048
0.023564
0.023719
0.0238699
0.0240165
0.0241586
0.0242963
0.0244294
0.0245577
0.0246812
0.0247997
0.0249133
0.0250217
0.0251249
0.0252227
0.0253152
0.0254022
0.0254837
0.0255594
0.0256295
0.0256938
0.0257522
0.0258047
0.0258513
0.0258918
0.0259263
0.0259546
0.0259768
0.0259929
0.0260027
0.0260063
0.0260037
0.0259948
0.0259797
0.0259583
0.0259307
0.0258969
0.0258569
0.0258107
0.0257583
0.0256998
0.0256353
0.0255647
0.0254882
0.0254057
0.0253174
0.0252233
0.0251235
0.025018
0.024907
0.0247905
0.0246686
0.0245413
0.0244089
0.0242713
0.0241288
0.0239813
0.023829
0.023672
0.0235104
0.0233443
0.0231738
0.0229991
0.0228202
0.0226373
0.0224504
0.0222598
0.0220654
0.0218675
0.0216661
0.0214614
0.0212534
0.0210423
0.0208282
0.0206112
0.0203915
0.020169
0.019944
0.0197165
0.0194867
0.0192546
0.0190203
0.018784
0.0185458
0.0183056
0.0180637
0.0178202
0.017575
0.0173283
0.0170802
0.0168307
0.01658
0.0163281
0.0160751
0.015821
0.015566
0.01531
0.0150533
0.0147957
0.0145374
0.0142784
0.0140189
0.0137588
0.0134981
0.013237
0.0129755
0.0127137
0.0124515
0.012189
0.0119263
0.0116633
0.0114002
0.0111369
0.0108735
0.01061
0.0103464
0.0100828
0.00981919
0.00955555
0.00929194
0.00902835
0.00876482
0.00850135
0.00823796
0.00797466
0.00771145
0.00744836
0.00718538
0.00692252
0.00665979
0.00639719
0.00613473
0.0058724
0.00561021
0.00534816
0.00508625
0.00482447
0.00456283
0.00430132
0.00403993
0.00377867
0.00351752
0.00325649
0.00299556
0.00273473
0.00247399
0.00221334
0.00195276
0.00169225
0.0014318
0.0011714
0.000911048
0.000650725
0.000390426
0.00013014
0.000135755
0.000407269
0.000678799
0.000950354
0.00122194
0.00149358
0.00176527
0.00203703
0.00230886
0.00258077
0.00285277
0.00312488
0.0033971
0.00366943
0.0039419
0.00421449
0.00448723
0.00476011
0.00503315
0.00530635
0.00557971
0.00585324
0.00612695
0.00640083
0.00667489
0.00694914
0.00722357
0.00749819
0.00777299
0.00804798
0.00832315
0.0085985
0.00887402
0.00914972
0.00942559
0.00970161
0.00997779
0.0102541
0.0105306
0.0108072
0.0110839
0.0113606
0.0116375
0.0119145
0.0121915
0.0124685
0.0127455
0.0130225
0.0132995
0.0135764
0.0138532
0.01413
0.0144065
0.0146829
0.014959
0.015235
0.0155106
0.0157858
0.0160607
0.0163352
0.0166092
0.0168827
0.0171557
0.017428
0.0176996
0.0179705
0.0182406
0.0185098
0.0187781
0.0190454
0.0193117
0.0195768
0.0198407
0.0201033
0.0203645
0.0206242
0.0208825
0.0211391
0.0213939
0.021647
0.0218981
0.0221472
0.0223942
0.022639
0.0228815
0.0231216
0.0233591
0.0235939
0.023826
0.0240553
0.0242815
0.0245046
0.0247245
0.024941
0.0251541
0.0253635
0.0255692
0.0257711
0.025969
0.0261627
0.0263523
0.0265375
0.0267181
0.0268942
0.0270655
0.027232
0.0273934
0.0275498
0.0277009
0.0278466
0.0279869
0.0281215
0.0282505
0.0283736
0.0284909
0.0286021
0.0287071
0.028806
0.0288985
0.0289846
0.0290642
0.0291373
0.0292037
0.0292634
0.0293163
0.0293624
0.0294015
0.0294338
0.029459
0.0294773
0.0294885
0.0294926
0.0294897
0.0294796
0.0294625
0.0294382
0.0294069
0.0293685
0.0293231
0.0292706
0.0292112
0.0291448
0.0290715
0.0289914
0.0289045
0.0288108
0.0287105
0.0286037
0.0284903
0.0283705
0.0282445
0.0281121
0.0279737
0.0278292
0.0276789
0.0275227
0.0273608
0.0271933
0.0270204
0.0268421
0.0266586
0.0264701
0.0262765
0.0260781
0.0258751
0.0256674
0.0254553
0.0252389
0.0250183
0.0247936
0.024565
0.0243327
0.0240966
0.0238571
0.0236141
0.0233678
0.0231184
0.022866
0.0226107
0.0223525
0.0220917
0.0218284
0.0215626
0.0212945
0.0210242
0.0207518
0.0204774
0.020201
0.0199229
0.0196431
0.0193616
0.0190787
0.0187943
0.0185086
0.0182216
0.0179335
0.0176442
0.0173539
0.0170627
0.0167706
0.0164777
0.0161841
0.0158898
0.0155948
0.0152993
0.0150032
0.0147068
0.0144098
0.0141126
0.013815
0.0135171
0.013219
0.0129207
0.0126222
0.0123236
0.0120249
0.0117261
0.0114273
0.0111284
0.0108296
0.0105308
0.010232
0.00993328
0.00963464
0.0093361
0.00903766
0.00873933
0.00844113
0.00814307
0.00784515
0.00754738
0.00724976
0.00695229
0.00665498
0.00635783
0.00606084
0.00576401
0.00546734
0.00517082
0.00487445
0.00457822
0.00428214
0.00398619
0.00369037
0.00339467
0.00309908
0.0028036
0.00250822
0.00221292
0.00191771
0.00162256
0.00132747
0.00103242
0.000737418
0.00044244
0.000147478
0.000151709
0.000455133
0.000758573
0.00106204
0.00136555
0.00166911
0.00197273
0.00227643
0.00258021
0.00288408
0.00318806
0.00349215
0.00379636
0.00410071
0.0044052
0.00470984
0.00501464
0.00531961
0.00562475
0.00593007
0.00623558
0.00654128
0.00684717
0.00715327
0.00745957
0.00776608
0.00807279
0.00837971
0.00868685
0.00899419
0.00930174
0.0096095
0.00991745
0.0102256
0.0105339
0.0108425
0.0111512
0.01146
0.0117691
0.0120782
0.0123875
0.0126969
0.0130064
0.013316
0.0136257
0.0139353
0.014245
0.0145547
0.0148644
0.015174
0.0154835
0.0157928
0.016102
0.016411
0.0167198
0.0170283
0.0173365
0.0176443
0.0179517
0.0182586
0.018565
0.0188709
0.0191761
0.0194806
0.0197844
0.0200874
0.0203894
0.0206906
0.0209907
0.0212897
0.0215875
0.021884
0.0221792
0.022473
0.0227652
0.0230558
0.0233447
0.0236318
0.023917
0.0242001
0.0244811
0.0247599
0.0250363
0.0253102
0.0255816
0.0258503
0.0261161
0.026379
0.0266388
0.0268954
0.0271486
0.0273984
0.0276445
0.0278869
0.0281255
0.02836
0.0285903
0.0288163
0.0290379
0.0292549
0.0294672
0.0296745
0.0298769
0.0300741
0.030266
0.0304524
0.0306333
0.0308084
0.0309777
0.031141
0.0312981
0.031449
0.0315935
0.0317315
0.0318629
0.0319875
0.0321052
0.032216
0.0323197
0.0324162
0.0325055
0.0325874
0.0326618
0.0327288
0.0327881
0.0328398
0.0328837
0.0329199
0.0329482
0.0329687
0.0329813
0.032986
0.0329827
0.0329715
0.0329524
0.0329252
0.0328902
0.0328472
0.0327963
0.0327376
0.032671
0.0325966
0.0325145
0.0324248
0.0323274
0.0322226
0.0321102
0.0319905
0.0318635
0.0317294
0.0315881
0.0314399
0.0312849
0.0311231
0.0309546
0.0307797
0.0305984
0.0304108
0.0302171
0.0300175
0.029812
0.0296008
0.0293841
0.0291619
0.0289345
0.028702
0.0284645
0.0282222
0.0279752
0.0277237
0.0274678
0.0272076
0.0269434
0.0266752
0.0264032
0.0261276
0.0258484
0.0255659
0.0252801
0.0249912
0.0246994
0.0244047
0.0241072
0.0238072
0.0235047
0.0231999
0.0228929
0.0225837
0.0222725
0.0219594
0.0216446
0.0213281
0.0210099
0.0206903
0.0203693
0.020047
0.0197235
0.0193988
0.0190731
0.0187464
0.0184188
0.0180904
0.0177613
0.0174314
0.017101
0.0167699
0.0164384
0.0161064
0.015774
0.0154412
0.0151082
0.0147749
0.0144414
0.0141077
0.0137738
0.0134399
0.0131058
0.0127718
0.0124377
0.0121036
0.0117696
0.0114356
0.0111017
0.0107678
0.0104341
0.0101005
0.00976709
0.00943378
0.00910062
0.00876763
0.00843481
0.00810216
0.00776969
0.0074374
0.00710529
0.00677337
0.00644162
0.00611005
0.00577866
0.00544743
0.00511638
0.00478548
0.00445473
0.00412413
0.00379367
0.00346334
0.00313312
0.00280302
0.00247301
0.00214309
0.00181325
0.00148348
0.00115376
0.000824084
0.000494438
0.000164811
0.000167657
0.000502979
0.000838319
0.00117369
0.00150911
0.00184458
0.00218012
0.00251575
0.00285146
0.00318729
0.00352322
0.00385929
0.00419549
0.00453185
0.00486836
0.00520504
0.00554189
0.00587894
0.00621617
0.00655361
0.00689126
0.00722912
0.0075672
0.0079055
0.00824403
0.0085828
0.0089218
0.00926103
0.0096005
0.0099402
0.0102801
0.0106203
0.0109607
0.0113013
0.0116421
0.0119832
0.0123244
0.0126658
0.0130074
0.0133492
0.0136911
0.0140331
0.0143753
0.0147175
0.0150598
0.0154022
0.0157446
0.016087
0.0164293
0.0167716
0.0171138
0.0174558
0.0177977
0.0181394
0.0184808
0.018822
0.0191627
0.0195031
0.0198431
0.0201825
0.0205214
0.0208596
0.0211972
0.021534
0.02187
0.0222051
0.0225393
0.0228724
0.0232043
0.0235351
0.0238645
0.0241926
0.0245192
0.0248442
0.0251676
0.0254891
0.0258088
0.0261265
0.026442
0.0267554
0.0270664
0.0273749
0.0276808
0.027984
0.0282844
0.0285818
0.0288761
0.0291671
0.0294547
0.0297388
0.0300192
0.0302957
0.0305683
0.0308367
0.0311009
0.0313606
0.0316157
0.031866
0.0321114
0.0323518
0.0325869
0.0328167
0.0330408
0.0332593
0.0334719
0.0336785
0.0338789
0.034073
0.0342606
0.0344415
0.0346157
0.0347829
0.0349431
0.035096
0.0352416
0.0353798
0.0355103
0.0356332
0.0357481
0.0358552
0.0359541
0.036045
0.0361275
0.0362018
0.0362676
0.0363249
0.0363737
0.0364138
0.0364453
0.0364681
0.0364821
0.0364873
0.0364838
0.0364714
0.0364502
0.0364202
0.0363814
0.0363338
0.0362774
0.0362123
0.0361386
0.0360562
0.0359653
0.0358658
0.035758
0.0356417
0.0355173
0.0353846
0.0352439
0.0350953
0.0349388
0.0347746
0.0346028
0.0344235
0.0342369
0.0340431
0.0338422
0.0336344
0.0334198
0.0331987
0.032971
0.0327371
0.032497
0.032251
0.0319991
0.0317416
0.0314785
0.0312102
0.0309366
0.0306581
0.0303747
0.0300867
0.0297941
0.0294971
0.029196
0.0288908
0.0285818
0.028269
0.0279527
0.0276329
0.0273098
0.0269836
0.0266544
0.0263224
0.0259876
0.0256503
0.0253105
0.0249683
0.024624
0.0242776
0.0239292
0.023579
0.023227
0.0228734
0.0225183
0.0221617
0.0218038
0.0214447
0.0210844
0.0207231
0.0203608
0.0199975
0.0196335
0.0192687