/*--------------------------------*- C++ -*----------------------------------*\
| =========                 |                                                 |
| \\      /  F ield         | OpenFOAM: The Open Source CFD Toolbox           |
|  \\    /   O peration     | Version:  v2012                                 |
|   \\  /    A nd           | Website:  www.openfoam.com                      |
|    \\/     M anipulation  |                                                 |
\*---------------------------------------------------------------------------*/
FoamFile
{
    version     2.0;
    format      ascii;
    class       surfaceScalarField;
    location    "12.6";
    object      phi;
}
// * * * * * * * * * * * * * * * * * * * * * * * * * * * * * * * * * * * * * //

dimensions      [0 3 -1 0 0 0 0];
oriented        oriented;


internalField   nonuniform List<scalar> 
130560
(
3.55535e-06
-3.55535e-06
7.11088e-06
-3.55552e-06
1.06667e-05
-3.55587e-06
1.42231e-05
-3.55638e-06
1.77802e-05
-3.55705e-06
2.13381e-05
-3.5579e-06
2.4897e-05
-3.5589e-06
2.8457e-05
-3.56006e-06
3.20184e-05
-3.56137e-06
3.55812e-05
-3.56283e-06
3.91457e-05
-3.56444e-06
4.27118e-05
-3.56617e-06
4.62799e-05
-3.56804e-06
4.98499e-05
-3.57002e-06
5.3422e-05
-3.57212e-06
5.69963e-05
-3.57432e-06
6.05729e-05
-3.5766e-06
6.41519e-05
-3.57897e-06
6.77333e-05
-3.58141e-06
7.13172e-05
-3.58391e-06
7.49037e-05
-3.58645e-06
7.84927e-05
-3.58902e-06
8.20843e-05
-3.59161e-06
8.56785e-05
-3.59419e-06
8.92753e-05
-3.59677e-06
9.28746e-05
-3.59931e-06
9.64764e-05
-3.6018e-06
0.000100081
-3.60422e-06
0.000103687
-3.60656e-06
0.000107296
-3.60878e-06
0.000110907
-3.61089e-06
0.00011452
-3.61284e-06
0.000118134
-3.61462e-06
0.00012175
-3.61621e-06
0.000125368
-3.61758e-06
0.000128987
-3.61871e-06
0.000132606
-3.61957e-06
0.000136226
-3.62013e-06
0.000139847
-3.62038e-06
0.000143467
-3.62027e-06
0.000147087
-3.61979e-06
0.000150706
-3.6189e-06
0.000154323
-3.61758e-06
0.000157939
-3.61579e-06
0.000161553
-3.61351e-06
0.000165163
-3.61069e-06
0.000168771
-3.60732e-06
0.000172374
-3.60335e-06
0.000175973
-3.59875e-06
0.000179566
-3.59349e-06
0.000183154
-3.58753e-06
0.000186735
-3.58085e-06
0.000190308
-3.5734e-06
0.000193873
-3.56514e-06
0.000197429
-3.55605e-06
0.000200975
-3.54609e-06
0.000204511
-3.53522e-06
0.000208034
-3.52341e-06
0.000211545
-3.51061e-06
0.000215041
-3.49681e-06
0.000218523
-3.48195e-06
0.000221989
-3.466e-06
0.000225438
-3.44893e-06
0.000228869
-3.43071e-06
0.00023228
-3.4113e-06
0.000235671
-3.39066e-06
0.00023904
-3.36877e-06
0.000242385
-3.3456e-06
0.000245706
-3.32111e-06
0.000249002
-3.29527e-06
0.00025227
-3.26806e-06
0.000255509
-3.23945e-06
0.000258719
-3.20941e-06
0.000261897
-3.17792e-06
0.000265042
-3.14496e-06
0.000268152
-3.11051e-06
0.000271227
-3.07454e-06
0.000274264
-3.03704e-06
0.000277262
-2.99801e-06
0.000280219
-2.95741e-06
0.000283134
-2.91525e-06
0.000286006
-2.87151e-06
0.000288832
-2.82619e-06
0.000291611
-2.77929e-06
0.000294342
-2.7308e-06
0.000297023
-2.68074e-06
0.000299652
-2.62909e-06
0.000302228
-2.57588e-06
0.000304749
-2.52111e-06
0.000307214
-2.46479e-06
0.000309621
-2.40695e-06
0.000311968
-2.34759e-06
0.000314255
-2.28675e-06
0.000316479
-2.22445e-06
0.00031864
-2.16071e-06
0.000320736
-2.09557e-06
0.000322765
-2.02906e-06
0.000324726
-1.96122e-06
0.000326618
-1.89208e-06
0.00032844
-1.8217e-06
0.00033019
-1.75011e-06
0.000331867
-1.67736e-06
0.000333471
-1.6035e-06
0.000334999
-1.52859e-06
0.000336452
-1.45268e-06
0.000337828
-1.37583e-06
0.000339126
-1.29809e-06
0.000340345
-1.21953e-06
0.000341486
-1.14021e-06
0.000342546
-1.06019e-06
0.000343525
-9.79546e-07
0.000344424
-8.98338e-07
0.00034524
-8.16634e-07
0.000345975
-7.34506e-07
0.000346627
-6.52022e-07
0.000347196
-5.69254e-07
0.000347682
-4.86272e-07
0.000348086
-4.03148e-07
0.000348406
-3.19953e-07
0.000348642
-2.36758e-07
0.000348796
-1.53635e-07
0.000348867
-7.06528e-08
0.000348854
1.21179e-08
0.00034876
9.46082e-08
0.000348583
1.7675e-07
0.000348325
2.58477e-07
0.000347985
3.39724e-07
0.000347564
4.20426e-07
0.000347064
5.0052e-07
0.000346484
5.79947e-07
0.000345825
6.58646e-07
0.000345089
7.36562e-07
0.000344275
8.13638e-07
0.000343385
8.89823e-07
0.00034242
9.65066e-07
0.000341381
1.03932e-06
0.000340268
1.11253e-06
0.000339084
1.18467e-06
0.000337828
1.25568e-06
0.000336503
1.32554e-06
0.000335108
1.3942e-06
0.000333647
1.46163e-06
0.000332119
1.5278e-06
0.000330526
1.59269e-06
0.00032887
1.65626e-06
0.000327151
1.7185e-06
0.000325372
1.77938e-06
0.000323533
1.83888e-06
0.000321636
1.897e-06
0.000319682
1.95372e-06
0.000317673
2.00902e-06
0.000315611
2.0629e-06
0.000313495
2.11535e-06
0.000311329
2.16637e-06
0.000309113
2.21596e-06
0.000306849
2.26412e-06
0.000304538
2.31085e-06
0.000302182
2.35615e-06
0.000299782
2.40003e-06
0.000297339
2.44251e-06
0.000294856
2.48358e-06
0.000292332
2.52327e-06
0.000289771
2.56157e-06
0.000287172
2.59852e-06
0.000284538
2.63412e-06
0.00028187
2.66839e-06
0.000279168
2.70135e-06
0.000276435
2.73302e-06
0.000273672
2.76342e-06
0.000270879
2.79257e-06
0.000268059
2.82049e-06
0.000265212
2.8472e-06
0.000262339
2.87274e-06
0.000259442
2.89712e-06
0.000256521
2.92036e-06
0.000253579
2.9425e-06
0.000250615
2.96356e-06
0.000247632
2.98357e-06
0.000244629
3.00254e-06
0.000241609
3.02052e-06
0.000238571
3.03752e-06
0.000235518
3.05357e-06
0.000232449
3.06871e-06
0.000229366
3.08295e-06
0.00022627
3.09633e-06
0.000223161
3.10886e-06
0.00022004
3.12059e-06
0.000216909
3.13153e-06
0.000213767
3.14172e-06
0.000210616
3.15117e-06
0.000207456
3.15992e-06
0.000204288
3.16799e-06
0.000201113
3.17541e-06
0.00019793
3.1822e-06
0.000194742
3.18839e-06
0.000191548
3.19401e-06
0.000188349
3.19907e-06
0.000185145
3.2036e-06
0.000181938
3.20763e-06
0.000178726
3.21117e-06
0.000175512
3.21426e-06
0.000172295
3.21691e-06
0.000169076
3.21915e-06
0.000165855
3.22099e-06
0.000162633
3.22247e-06
0.000159409
3.22359e-06
0.000156185
3.22438e-06
0.00015296
3.22486e-06
0.000149735
3.22505e-06
0.00014651
3.22496e-06
0.000143285
3.22462e-06
0.000140061
3.22404e-06
0.000136838
3.22324e-06
0.000133616
3.22224e-06
0.000130395
3.22105e-06
0.000127175
3.21969e-06
0.000123957
3.21817e-06
0.00012074
3.21651e-06
0.000117526
3.21472e-06
0.000114313
3.21282e-06
0.000111102
3.21083e-06
0.000107893
3.20874e-06
0.000104687
3.20658e-06
0.000101482
3.20436e-06
9.82801e-05
3.20209e-06
9.50804e-05
3.19978e-06
9.18829e-05
3.19745e-06
8.86878e-05
3.19509e-06
8.54951e-05
3.19273e-06
8.23047e-05
3.19038e-06
7.91167e-05
3.18803e-06
7.5931e-05
3.1857e-06
7.27476e-05
3.18341e-06
6.95664e-05
3.18115e-06
6.63875e-05
3.17893e-06
6.32107e-05
3.17677e-06
6.00361e-05
3.17466e-06
5.68634e-05
3.17262e-06
5.36928e-05
3.17066e-06
5.0524e-05
3.16877e-06
4.73571e-05
3.16696e-06
4.41918e-05
3.16524e-06
4.10282e-05
3.16362e-06
3.78661e-05
3.16209e-06
3.47055e-05
3.16066e-06
3.15461e-05
3.15934e-06
2.8388e-05
3.15813e-06
2.5231e-05
3.15703e-06
2.20749e-05
3.15605e-06
1.89197e-05
3.15518e-06
1.57653e-05
3.15444e-06
1.26115e-05
3.15381e-06
9.45817e-06
3.15331e-06
6.30524e-06
3.15293e-06
3.15256e-06
3.15268e-06
3.15256e-06
3.55519e-06
-7.11054e-06
7.11054e-06
-7.11088e-06
1.06662e-05
-7.11157e-06
1.42225e-05
-7.11259e-06
1.77793e-05
-7.11395e-06
2.13371e-05
-7.11563e-06
2.48958e-05
-7.11764e-06
2.84557e-05
-7.11997e-06
3.2017e-05
-7.1226e-06
3.55797e-05
-7.12553e-06
3.9144e-05
-7.12874e-06
4.271e-05
-7.13222e-06
4.62779e-05
-7.13596e-06
4.98478e-05
-7.13994e-06
5.34199e-05
-7.14414e-06
5.69941e-05
-7.14854e-06
6.05706e-05
-7.15313e-06
6.41495e-05
-7.15788e-06
6.77309e-05
-7.16277e-06
7.13147e-05
-7.16778e-06
7.49012e-05
-7.17287e-06
7.84902e-05
-7.17803e-06
8.20818e-05
-7.18321e-06
8.5676e-05
-7.18841e-06
8.92728e-05
-7.19357e-06
9.28721e-05
-7.19866e-06
9.6474e-05
-7.20366e-06
0.000100078
-7.20853e-06
0.000103685
-7.21322e-06
0.000107294
-7.2177e-06
0.000110905
-7.22192e-06
0.000114518
-7.22585e-06
0.000118133
-7.22944e-06
0.000121749
-7.23264e-06
0.000125367
-7.2354e-06
0.000128986
-7.23768e-06
0.000132606
-7.23943e-06
0.000136226
-7.24058e-06
0.000139847
-7.2411e-06
0.000143468
-7.24092e-06
0.000147088
-7.23999e-06
0.000150707
-7.23825e-06
0.000154325
-7.23563e-06
0.000157942
-7.23209e-06
0.000161556
-7.22755e-06
0.000165167
-7.22195e-06
0.000168775
-7.21523e-06
0.000172379
-7.20732e-06
0.000175978
-7.19816e-06
0.000179572
-7.18767e-06
0.000183161
-7.1758e-06
0.000186742
-7.16246e-06
0.000190316
-7.14759e-06
0.000193882
-7.13112e-06
0.000197439
-7.11298e-06
0.000200986
-7.09309e-06
0.000204522
-7.07139e-06
0.000208047
-7.0478e-06
0.000211558
-7.02224e-06
0.000215056
-6.99466e-06
0.000218539
-6.96498e-06
0.000222006
-6.93312e-06
0.000225457
-6.89902e-06
0.000228888
-6.86261e-06
0.000232301
-6.82381e-06
0.000235693
-6.78258e-06
0.000239063
-6.73883e-06
0.00024241
-6.69252e-06
0.000245732
-6.64356e-06
0.000249029
-6.59192e-06
0.000252298
-6.53752e-06
0.000255539
-6.48033e-06
0.00025875
-6.42027e-06
0.00026193
-6.35732e-06
0.000265076
-6.29142e-06
0.000268188
-6.22253e-06
0.000271264
-6.15061e-06
0.000274303
-6.07563e-06
0.000277302
-5.99756e-06
0.000280261
-5.91638e-06
0.000283178
-5.83207e-06
0.000286051
-5.7446e-06
0.000288879
-5.65396e-06
0.00029166
-5.56016e-06
0.000294392
-5.46319e-06
0.000297074
-5.36305e-06
0.000299705
-5.25975e-06
0.000302283
-5.15332e-06
0.000304805
-5.04376e-06
0.000307272
-4.93111e-06
0.00030968
-4.8154e-06
0.000312029
-4.69667e-06
0.000314317
-4.57496e-06
0.000316543
-4.45033e-06
0.000318705
-4.32282e-06
0.000320802
-4.1925e-06
0.000322833
-4.05945e-06
0.000324795
-3.92372e-06
0.000326688
-3.78541e-06
0.000328511
-3.64459e-06
0.000330263
-3.50137e-06
0.000331941
-3.35582e-06
0.000333546
-3.20806e-06
0.000335075
-3.05818e-06
0.000336529
-2.9063e-06
0.000337906
-2.75253e-06
0.000339204
-2.597e-06
0.000340425
-2.43982e-06
0.000341566
-2.28111e-06
0.000342626
-2.12101e-06
0.000343607
-1.95965e-06
0.000344505
-1.79717e-06
0.000345322
-1.63369e-06
0.000346057
-1.46936e-06
0.00034671
-1.30433e-06
0.000347279
-1.13872e-06
0.000347765
-9.72684e-07
0.000348169
-8.06365e-07
0.000348489
-6.39904e-07
0.000348725
-4.73443e-07
0.000348879
-3.07126e-07
0.000348949
-1.41092e-07
0.000348937
2.45186e-08
0.000348842
1.89567e-07
0.000348665
3.53918e-07
0.000348406
5.17438e-07
0.000348065
6.79995e-07
0.000347644
8.41461e-07
0.000347143
1.00171e-06
0.000346563
1.16062e-06
0.000345903
1.31808e-06
0.000345166
1.47396e-06
0.000344351
1.62817e-06
0.00034346
1.78059e-06
0.000342494
1.93112e-06
0.000341454
2.07967e-06
0.00034034
2.22615e-06
0.000339155
2.37046e-06
0.000337898
2.51253e-06
0.000336571
2.65227e-06
0.000335176
2.78963e-06
0.000333713
2.92452e-06
0.000332184
3.0569e-06
0.00033059
3.18669e-06
0.000328932
3.31386e-06
0.000327212
3.43835e-06
0.000325431
3.56013e-06
0.000323591
3.67916e-06
0.000321693
3.79541e-06
0.000319738
3.90884e-06
0.000317727
4.01946e-06
0.000315663
4.12722e-06
0.000313546
4.23213e-06
0.000311378
4.33417e-06
0.000309161
4.43335e-06
0.000306895
4.52967e-06
0.000304583
4.62312e-06
0.000302225
4.71372e-06
0.000299824
4.80148e-06
0.00029738
4.88642e-06
0.000294895
4.96855e-06
0.000292371
5.04791e-06
0.000289808
5.12451e-06
0.000287208
5.19839e-06
0.000284572
5.26957e-06
0.000281903
5.3381e-06
0.0002792
5.404e-06
0.000276466
5.46731e-06
0.000273701
5.52809e-06
0.000270907
5.58636e-06
0.000268085
5.64218e-06
0.000265237
5.69559e-06
0.000262363
5.74663e-06
0.000259465
5.79536e-06
0.000256543
5.84183e-06
0.0002536
5.88608e-06
0.000250635
5.92818e-06
0.000247651
5.96816e-06
0.000244647
6.00609e-06
0.000241626
6.04201e-06
0.000238587
6.07599e-06
0.000235533
6.10807e-06
0.000232463
6.13831e-06
0.000229379
6.16676e-06
0.000226282
6.19349e-06
0.000223172
6.21854e-06
0.000220051
6.24196e-06
0.000216919
6.26382e-06
0.000213776
6.28417e-06
0.000210624
6.30305e-06
0.000207464
6.32052e-06
0.000204295
6.33664e-06
0.000201119
6.35145e-06
0.000197936
6.36501e-06
0.000194747
6.37736e-06
0.000191553
6.38856e-06
0.000188353
6.39866e-06
0.000185149
6.4077e-06
0.000181941
6.41573e-06
0.000178729
6.4228e-06
0.000175515
6.42895e-06
0.000172297
6.43423e-06
0.000169078
6.43869e-06
0.000165856
6.44236e-06
0.000162634
6.44528e-06
0.00015941
6.4475e-06
0.000156185
6.44907e-06
0.00015296
6.45001e-06
0.000149735
6.45036e-06
0.000146509
6.45017e-06
0.000143285
6.44947e-06
0.00014006
6.4483e-06
0.000136837
6.44668e-06
0.000133614
6.44466e-06
0.000130393
6.44226e-06
0.000127173
6.43953e-06
0.000123955
6.43648e-06
0.000120738
6.43314e-06
0.000117524
6.42956e-06
0.000114311
6.42575e-06
0.0001111
6.42174e-06
0.000107891
6.41755e-06
0.000104684
6.41322e-06
0.00010148
6.40877e-06
9.82778e-05
6.40422e-06
9.5078e-05
6.39959e-06
9.18805e-05
6.39491e-06
8.86854e-05
6.39019e-06
8.54927e-05
6.38546e-06
8.23023e-05
6.38074e-06
7.91143e-05
6.37603e-06
7.59286e-05
6.37137e-06
7.27453e-05
6.36677e-06
6.95642e-05
6.36224e-06
6.63853e-05
6.3578e-06
6.32086e-05
6.35347e-06
6.0034e-05
6.34925e-06
5.68614e-05
6.34517e-06
5.36909e-05
6.34123e-06
5.05222e-05
6.33745e-06
4.73553e-05
6.33383e-06
4.41902e-05
6.33039e-06
4.10267e-05
6.32713e-06
3.78647e-05
6.32407e-06
3.47041e-05
6.32122e-06
3.15449e-05
6.31857e-06
2.83869e-05
6.31615e-06
2.523e-05
6.31395e-06
2.2074e-05
6.31198e-06
1.8919e-05
6.31024e-06
1.57647e-05
6.30875e-06
1.2611e-05
6.30749e-06
9.45779e-06
6.30649e-06
6.30498e-06
6.30574e-06
3.15243e-06
6.30524e-06
6.30499e-06
3.55484e-06
-1.06654e-05
7.10985e-06
-1.06659e-05
1.06652e-05
-1.06669e-05
1.42211e-05
-1.06685e-05
1.77776e-05
-1.06705e-05
2.13351e-05
-1.0673e-05
2.48935e-05
-1.06761e-05
2.84531e-05
-1.06796e-05
3.2014e-05
-1.06835e-05
3.55764e-05
-1.06879e-05
3.91405e-05
-1.06928e-05
4.27063e-05
-1.0698e-05
4.62739e-05
-1.07036e-05
4.98436e-05
-1.07096e-05
5.34154e-05
-1.07159e-05
5.69895e-05
-1.07226e-05
6.05658e-05
-1.07295e-05
6.41446e-05
-1.07366e-05
6.77258e-05
-1.0744e-05
7.13096e-05
-1.07516e-05
7.4896e-05
-1.07592e-05
7.8485e-05
-1.0767e-05
8.20766e-05
-1.07748e-05
8.56708e-05
-1.07826e-05
8.92677e-05
-1.07904e-05
9.28671e-05
-1.07981e-05
9.64691e-05
-1.08057e-05
0.000100074
-1.0813e-05
0.00010368
-1.08201e-05
0.00010729
-1.08269e-05
0.000110901
-1.08333e-05
0.000114514
-1.08392e-05
0.00011813
-1.08446e-05
0.000121746
-1.08495e-05
0.000125365
-1.08537e-05
0.000128984
-1.08572e-05
0.000132605
-1.08599e-05
0.000136226
-1.08617e-05
0.000139847
-1.08625e-05
0.000143469
-1.08623e-05
0.00014709
-1.0861e-05
0.00015071
-1.08585e-05
0.000154329
-1.08546e-05
0.000157946
-1.08494e-05
0.000161561
-1.08426e-05
0.000165174
-1.08343e-05
0.000168783
-1.08243e-05
0.000172388
-1.08126e-05
0.000175989
-1.07989e-05
0.000179584
-1.07833e-05
0.000183174
-1.07655e-05
0.000186757
-1.07456e-05
0.000190333
-1.07234e-05
0.0001939
-1.06988e-05
0.000197459
-1.06717e-05
0.000201008
-1.06419e-05
0.000204546
-1.06094e-05
0.000208072
-1.05741e-05
0.000211586
-1.05359e-05
0.000215086
-1.04946e-05
0.000218571
-1.04502e-05
0.000222041
-1.04025e-05
0.000225493
-1.03514e-05
0.000228927
-1.02969e-05
0.000232342
-1.02388e-05
0.000235737
-1.0177e-05
0.000239109
-1.01115e-05
0.000242459
-1.00421e-05
0.000245784
-9.96871e-06
0.000249083
-9.89131e-06
0.000252356
-9.80979e-06
0.000255599
-9.72406e-06
0.000258813
-9.63404e-06
0.000261995
-9.53966e-06
0.000265145
-9.44086e-06
0.00026826
-9.33757e-06
0.000271339
-9.22974e-06
0.000274381
-9.11731e-06
0.000277383
-9.00024e-06
0.000280346
-8.87849e-06
0.000283266
-8.75204e-06
0.000286142
-8.62085e-06
0.000288973
-8.48491e-06
0.000291757
-8.3442e-06
0.000294492
-8.19874e-06
0.000297178
-8.04852e-06
0.000299812
-7.89356e-06
0.000302392
-7.73388e-06
0.000304918
-7.56951e-06
0.000307387
-7.40049e-06
0.000309799
-7.22688e-06
0.000312151
-7.04873e-06
0.000314442
-6.8661e-06
0.000316671
-6.67908e-06
0.000318836
-6.48774e-06
0.000320935
-6.29218e-06
0.000322968
-6.0925e-06
0.000324933
-5.88882e-06
0.000326829
-5.68124e-06
0.000328655
-5.46991e-06
0.000330408
-5.25494e-06
0.000332089
-5.0365e-06
0.000333696
-4.81472e-06
0.000335227
-4.58977e-06
0.000336683
-4.36181e-06
0.000338061
-4.13101e-06
0.000339362
-3.89756e-06
0.000340583
-3.66163e-06
0.000341726
-3.42341e-06
0.000342788
-3.18309e-06
0.000343769
-2.94089e-06
0.000344669
-2.69699e-06
0.000345487
-2.4516e-06
0.000346222
-2.20494e-06
0.000346875
-1.9572e-06
0.000347445
-1.70861e-06
0.000347932
-1.45938e-06
0.000348335
-1.20972e-06
0.000348655
-9.59854e-07
0.000348892
-7.09986e-07
0.000349045
-4.60334e-07
0.000349115
-2.11108e-07
0.000349102
3.74797e-08
0.000349006
2.85223e-07
0.000348828
5.31917e-07
0.000348568
7.7736e-07
0.000348227
1.02136e-06
0.000347805
1.26371e-06
0.000347302
1.50424e-06
0.00034672
1.74275e-06
0.000346059
1.97908e-06
0.00034532
2.21305e-06
0.000344504
2.44449e-06
0.000343611
2.67324e-06
0.000342643
2.89917e-06
0.000341601
3.1221e-06
0.000340485
3.34193e-06
0.000339297
3.5585e-06
0.000338038
3.77169e-06
0.000336708
3.9814e-06
0.000335311
4.18752e-06
0.000333845
4.38994e-06
0.000332314
4.58857e-06
0.000330717
4.78332e-06
0.000329057
4.97413e-06
0.000327334
5.16092e-06
0.000325551
5.34364e-06
0.000323707
5.52222e-06
0.000321806
5.69662e-06
0.000319848
5.8668e-06
0.000317835
6.03274e-06
0.000315768
6.1944e-06
0.000313648
6.35177e-06
0.000311478
6.50485e-06
0.000309257
6.65361e-06
0.000306989
6.79807e-06
0.000304674
6.93824e-06
0.000302313
7.07412e-06
0.000299909
7.20574e-06
0.000297462
7.33313e-06
0.000294975
7.4563e-06
0.000292447
7.5753e-06
0.000289882
7.69017e-06
0.000287279
7.80095e-06
0.000284641
7.90768e-06
0.000281969
8.01042e-06
0.000279263
8.10923e-06
0.000276526
8.20415e-06
0.000273759
8.29526e-06
0.000270963
8.38261e-06
0.000268139
8.46628e-06
0.000265288
8.54634e-06
0.000262412
8.62284e-06
0.000259511
8.69588e-06
0.000256588
8.76551e-06
0.000253642
8.83183e-06
0.000250675
8.8949e-06
0.000247689
8.95481e-06
0.000244683
9.01163e-06
0.00024166
9.06545e-06
0.000238619
9.11635e-06
0.000235563
9.1644e-06
0.000232492
9.2097e-06
0.000229406
9.25231e-06
0.000226307
9.29233e-06
0.000223196
9.32984e-06
0.000220073
9.36491e-06
0.000216939
9.39763e-06
0.000213795
9.42808e-06
0.000210642
9.45633e-06
0.00020748
9.48248e-06
0.00020431
9.50659e-06
0.000201133
9.52874e-06
0.000197949
9.54901e-06
0.000194759
9.56748e-06
0.000191563
9.58423e-06
0.000188362
9.59931e-06
0.000185157
9.61281e-06
0.000181948
9.6248e-06
0.000178736
9.63535e-06
0.00017552
9.64452e-06
0.000172302
9.65239e-06
0.000169082
9.65901e-06
0.000165859
9.66446e-06
0.000162636
9.6688e-06
0.000159411
9.67208e-06
0.000156186
9.67438e-06
0.00015296
9.67574e-06
0.000149734
9.67623e-06
0.000146509
9.6759e-06
0.000143283
9.6748e-06
0.000140059
9.673e-06
0.000136835
9.67053e-06
0.000133612
9.66746e-06
0.000130391
9.66382e-06
0.00012717
9.65968e-06
0.000123952
9.65507e-06
0.000120735
9.65003e-06
0.00011752
9.64462e-06
0.000114307
9.63887e-06
0.000111096
9.63282e-06
0.000107887
9.62652e-06
0.00010468
9.61999e-06
0.000101475
9.61328e-06
9.82732e-05
9.60643e-06
9.50733e-05
9.59946e-06
9.18758e-05
9.59241e-06
8.86807e-05
9.58531e-06
8.5488e-05
9.57819e-06
8.22976e-05
9.57108e-06
7.91097e-05
9.564e-06
7.5924e-05
9.55699e-06
7.27408e-05
9.55006e-06
6.95597e-05
9.54325e-06
6.6381e-05
9.53658e-06
6.32044e-05
9.53006e-06
6.00299e-05
9.52372e-06
5.68575e-05
9.51758e-06
5.36871e-05
9.51165e-06
5.05186e-05
9.50596e-06
4.73519e-05
9.50052e-06
4.41869e-05
9.49535e-06
4.10236e-05
9.49045e-06
3.78618e-05
9.48585e-06
3.47015e-05
9.48156e-06
3.15425e-05
9.47759e-06
2.83847e-05
9.47394e-06
2.5228e-05
9.47063e-06
2.20723e-05
9.46767e-06
1.89175e-05
9.46506e-06
1.57634e-05
9.46282e-06
1.261e-05
9.46093e-06
9.45703e-06
9.45942e-06
6.30448e-06
9.45829e-06
3.15218e-06
9.45754e-06
9.45716e-06
3.55432e-06
-1.42197e-05
7.10882e-06
-1.42204e-05
1.06637e-05
-1.42218e-05
1.4219e-05
-1.42238e-05
1.77751e-05
-1.42266e-05
2.1332e-05
-1.423e-05
2.489e-05
-1.4234e-05
2.84491e-05
-1.42387e-05
3.20096e-05
-1.4244e-05
3.55716e-05
-1.42499e-05
3.91352e-05
-1.42564e-05
4.27006e-05
-1.42634e-05
4.62679e-05
-1.4271e-05
4.98373e-05
-1.4279e-05
5.34088e-05
-1.42875e-05
5.69825e-05
-1.42963e-05
6.05587e-05
-1.43056e-05
6.41372e-05
-1.43152e-05
6.77183e-05
-1.43251e-05
7.13019e-05
-1.43352e-05
7.48882e-05
-1.43455e-05
7.84771e-05
-1.43559e-05
8.20687e-05
-1.43664e-05
8.5663e-05
-1.43769e-05
8.92599e-05
-1.43874e-05
9.28595e-05
-1.43977e-05
9.64617e-05
-1.44079e-05
0.000100066
-1.44177e-05
0.000103674
-1.44273e-05
0.000107283
-1.44364e-05
0.000110895
-1.4445e-05
0.000114509
-1.44531e-05
0.000118125
-1.44604e-05
0.000121742
-1.4467e-05
0.000125361
-1.44727e-05
0.000128981
-1.44775e-05
0.000132603
-1.44812e-05
0.000136225
-1.44837e-05
0.000139847
-1.4485e-05
0.00014347
-1.44849e-05
0.000147092
-1.44832e-05
0.000150714
-1.448e-05
0.000154334
-1.4475e-05
0.000157953
-1.44681e-05
0.000161569
-1.44593e-05
0.000165183
-1.44484e-05
0.000168794
-1.44352e-05
0.000172401
-1.44197e-05
0.000176004
-1.44016e-05
0.000179602
-1.43809e-05
0.000183194
-1.43574e-05
0.000186779
-1.4331e-05
0.000190357
-1.43016e-05
0.000193928
-1.42689e-05
0.000197489
-1.42329e-05
0.00020104
-1.41935e-05
0.000204581
-1.41503e-05
0.000208111
-1.41034e-05
0.000211627
-1.40526e-05
0.00021513
-1.39977e-05
0.000218619
-1.39386e-05
0.000222092
-1.38752e-05
0.000225547
-1.38073e-05
0.000228985
-1.37347e-05
0.000232404
-1.36574e-05
0.000235802
-1.35752e-05
0.000239179
-1.3488e-05
0.000242532
-1.33956e-05
0.000245861
-1.32979e-05
0.000249165
-1.31948e-05
0.000252441
-1.30863e-05
0.000255689
-1.29721e-05
0.000258907
-1.28522e-05
0.000262094
-1.27264e-05
0.000265248
-1.25948e-05
0.000268368
-1.24572e-05
0.000271452
-1.23135e-05
0.000274498
-1.21636e-05
0.000277505
-1.20076e-05
0.000280472
-1.18453e-05
0.000283397
-1.16767e-05
0.000286278
-1.15019e-05
0.000289113
-1.13206e-05
0.000291902
-1.1133e-05
0.000294643
-1.0939e-05
0.000297333
-1.07387e-05
0.000299971
-1.05321e-05
0.000302557
-1.03191e-05
0.000305087
-1.00999e-05
0.000307561
-9.87448e-06
0.000309977
-9.6429e-06
0.000312333
-9.40526e-06
0.000314629
-9.16164e-06
0.000316862
-8.91214e-06
0.000319031
-8.65688e-06
0.000321135
-8.39598e-06
0.000323172
-8.12957e-06
0.000325141
-7.8578e-06
0.000327041
-7.58084e-06
0.00032887
-7.29885e-06
0.000330627
-7.01201e-06
0.000332311
-6.72051e-06
0.000333921
-6.42457e-06
0.000335455
-6.12437e-06
0.000336913
-5.82016e-06
0.000338295
-5.51216e-06
0.000339598
-5.20059e-06
0.000340822
-4.88572e-06
0.000341966
-4.5678e-06
0.00034303
-4.24707e-06
0.000344013
-3.92382e-06
0.000344914
-3.5983e-06
0.000345734
-3.27079e-06
0.00034647
-2.94158e-06
0.000347124
-2.61093e-06
0.000347694
-2.27915e-06
0.000348182
-1.94651e-06
0.000348585
-1.6133e-06
0.000348905
-1.27981e-06
0.000349141
-9.46316e-07
0.000349294
-6.13116e-07
0.000349364
-2.80489e-07
0.00034935
5.12838e-08
0.000349253
3.81926e-07
0.000349074
7.11164e-07
0.000348812
1.03873e-06
0.000348469
1.36436e-06
0.000348045
1.68779e-06
0.000347541
2.00877e-06
0.000346957
2.32707e-06
0.000346293
2.64244e-06
0.000345552
2.95465e-06
0.000344733
3.26349e-06
0.000343837
3.56873e-06
0.000342866
3.87019e-06
0.000341821
4.16765e-06
0.000340701
4.46095e-06
0.00033951
4.7499e-06
0.000338247
5.03435e-06
0.000336915
5.31413e-06
0.000335513
5.5891e-06
0.000334044
5.85913e-06
0.000332508
6.12411e-06
0.000330908
6.3839e-06
0.000329244
6.63842e-06
0.000327517
6.88757e-06
0.000325729
7.13127e-06
0.000323882
7.36945e-06
0.000321977
7.60205e-06
0.000320014
7.82901e-06
0.000317997
8.05029e-06
0.000315925
8.26587e-06
0.000313801
8.47572e-06
0.000311626
8.67982e-06
0.000309402
8.87817e-06
0.000307129
9.07078e-06
0.00030481
9.25764e-06
0.000302445
9.43879e-06
0.000300037
9.61425e-06
0.000297586
9.78405e-06
0.000295094
9.94823e-06
0.000292562
1.01068e-05
0.000289992
1.02599e-05
0.000287386
1.04076e-05
0.000284744
1.05498e-05
0.000282067
1.06867e-05
0.000279358
1.08183e-05
0.000276618
1.09448e-05
0.000273847
1.10662e-05
0.000271047
1.11826e-05
0.000268219
1.1294e-05
0.000265365
1.14006e-05
0.000262485
1.15025e-05
0.000259581
1.15998e-05
0.000256654
1.16925e-05
0.000253705
1.17808e-05
0.000250735
1.18648e-05
0.000247746
1.19445e-05
0.000244737
1.20202e-05
0.000241711
1.20918e-05
0.000238668
1.21596e-05
0.000235608
1.22235e-05
0.000232534
1.22838e-05
0.000229446
1.23405e-05
0.000226345
1.23937e-05
0.000223231
1.24436e-05
0.000220106
1.24902e-05
0.00021697
1.25337e-05
0.000213824
1.25742e-05
0.000210668
1.26117e-05
0.000207504
1.26465e-05
0.000204332
1.26785e-05
0.000201153
1.27079e-05
0.000197967
1.27348e-05
0.000194776
1.27593e-05
0.000191578
1.27815e-05
0.000188376
1.28015e-05
0.000185169
1.28194e-05
0.000181959
1.28353e-05
0.000178745
1.28493e-05
0.000175528
1.28614e-05
0.000172309
1.28718e-05
0.000169087
1.28805e-05
0.000165864
1.28877e-05
0.000162639
1.28934e-05
0.000159414
1.28977e-05
0.000156188
1.29006e-05
0.000152961
1.29023e-05
0.000149734
1.29029e-05
0.000146508
1.29024e-05
0.000143282
1.29008e-05
0.000140056
1.28984e-05
0.000136832
1.2895e-05
0.000133609
1.28908e-05
0.000130386
1.28859e-05
0.000127166
1.28803e-05
0.000123947
1.28741e-05
0.00012073
1.28673e-05
0.000117514
1.286e-05
0.000114301
1.28523e-05
0.000111089
1.28442e-05
0.00010788
1.28357e-05
0.000104673
1.28269e-05
0.000101469
1.28179e-05
9.82663e-05
1.28088e-05
9.50663e-05
1.27994e-05
9.18688e-05
1.279e-05
8.86736e-05
1.27804e-05
8.54809e-05
1.27709e-05
8.22906e-05
1.27614e-05
7.91027e-05
1.27519e-05
7.59172e-05
1.27425e-05
7.2734e-05
1.27332e-05
6.95531e-05
1.27241e-05
6.63745e-05
1.27152e-05
6.31981e-05
1.27065e-05
6.00238e-05
1.2698e-05
5.68516e-05
1.26898e-05
5.36814e-05
1.26818e-05
5.05132e-05
1.26742e-05
4.73467e-05
1.26669e-05
4.41821e-05
1.266e-05
4.1019e-05
1.26535e-05
3.78576e-05
1.26473e-05
3.46975e-05
1.26416e-05
3.15388e-05
1.26363e-05
2.83814e-05
1.26314e-05
2.5225e-05
1.2627e-05
2.20697e-05
1.2623e-05
1.89152e-05
1.26195e-05
1.57615e-05
1.26165e-05
1.26085e-05
1.2614e-05
9.4559e-06
1.2612e-05
6.30372e-06
1.26105e-05
3.1518e-06
1.26095e-05
1.2609e-05
3.55363e-06
-1.77733e-05
7.10744e-06
-1.77742e-05
1.06616e-05
-1.77759e-05
1.42163e-05
-1.77785e-05
1.77717e-05
-1.7782e-05
2.1328e-05
-1.77862e-05
2.48853e-05
-1.77913e-05
2.84438e-05
-1.77972e-05
3.20037e-05
-1.78039e-05
3.55651e-05
-1.78113e-05
3.91282e-05
-1.78195e-05
4.2693e-05
-1.78283e-05
4.62599e-05
-1.78378e-05
4.98288e-05
-1.78479e-05
5.33999e-05
-1.78585e-05
5.69732e-05
-1.78697e-05
6.0549e-05
-1.78814e-05
6.41273e-05
-1.78935e-05
6.77081e-05
-1.79059e-05
7.12916e-05
-1.79187e-05
7.48777e-05
-1.79316e-05
7.84666e-05
-1.79448e-05
8.20582e-05
-1.7958e-05
8.56525e-05
-1.79713e-05
8.92496e-05
-1.79845e-05
9.28494e-05
-1.79975e-05
9.64518e-05
-1.80103e-05
0.000100057
-1.80228e-05
0.000103665
-1.80349e-05
0.000107275
-1.80465e-05
0.000110887
-1.80574e-05
0.000114501
-1.80676e-05
0.000118118
-1.8077e-05
0.000121736
-1.80854e-05
0.000125356
-1.80927e-05
0.000128978
-1.80989e-05
0.0001326
-1.81037e-05
0.000136224
-1.81071e-05
0.000139847
-1.81088e-05
0.000143471
-1.81089e-05
0.000147095
-1.81071e-05
0.000150719
-1.81032e-05
0.000154341
-1.80972e-05
0.000157962
-1.80889e-05
0.00016158
-1.80781e-05
0.000165197
-1.80647e-05
0.00016881
-1.80485e-05
0.000172419
-1.80293e-05
0.000176025
-1.8007e-05
0.000179625
-1.79814e-05
0.00018322
-1.79523e-05
0.000186809
-1.79195e-05
0.00019039
-1.7883e-05
0.000193964
-1.78424e-05
0.000197528
-1.77977e-05
0.000201083
-1.77486e-05
0.000204628
-1.7695e-05
0.000208161
-1.76366e-05
0.000211682
-1.75734e-05
0.000215189
-1.75051e-05
0.000218682
-1.74315e-05
0.000222159
-1.73524e-05
0.00022562
-1.72678e-05
0.000229063
-1.71773e-05
0.000232486
-1.70809e-05
0.000235889
-1.69784e-05
0.000239271
-1.68696e-05
0.00024263
-1.67544e-05
0.000245964
-1.66325e-05
0.000249273
-1.65039e-05
0.000252556
-1.63684e-05
0.000255809
-1.62258e-05
0.000259033
-1.60761e-05
0.000262226
-1.59191e-05
0.000265386
-1.57547e-05
0.000268511
-1.55828e-05
0.000271601
-1.54033e-05
0.000274654
-1.52161e-05
0.000277667
-1.50212e-05
0.000280641
-1.48184e-05
0.000283572
-1.46078e-05
0.000286459
-1.43892e-05
0.000289301
-1.41627e-05
0.000292096
-1.39282e-05
0.000294843
-1.36857e-05
0.000297539
-1.34353e-05
0.000300184
-1.31769e-05
0.000302776
-1.29106e-05
0.000305312
-1.26365e-05
0.000307792
-1.23546e-05
0.000310215
-1.2065e-05
0.000312577
-1.17678e-05
0.000314879
-1.14631e-05
0.000317117
-1.1151e-05
0.000319292
-1.08317e-05
0.000321401
-1.05053e-05
0.000323444
-1.0172e-05
0.000325418
-9.83199e-06
0.000327323
-9.48547e-06
0.000329156
-9.13264e-06
0.000330918
-8.77373e-06
0.000332607
-8.40899e-06
0.000334221
-8.03865e-06
0.000335759
-7.663e-06
0.000337222
-7.28231e-06
0.000338606
-6.89685e-06
0.000339913
-6.50694e-06
0.00034114
-6.11288e-06
0.000342287
-5.71499e-06
0.000343353
-5.31359e-06
0.000344339
-4.90901e-06
0.000345242
-4.5016e-06
0.000346063
-4.09169e-06
0.000346801
-3.67965e-06
0.000347456
-3.26581e-06
0.000348027
-2.85055e-06
0.000348515
-2.43421e-06
0.000348919
-2.01716e-06
0.000349239
-1.59975e-06
0.000349475
-1.18236e-06
0.000349627
-7.65328e-07
0.000349695
-3.49019e-07
0.000349681
6.62173e-08
0.000349582
4.80032e-07
0.000349402
8.92082e-07
0.000349138
1.30203e-06
0.000348793
1.70955e-06
0.000348366
2.11431e-06
0.000347859
2.516e-06
0.000347272
2.91431e-06
0.000346606
3.30895e-06
0.000345861
3.69963e-06
0.000345038
4.08608e-06
0.000344139
4.46801e-06
0.000343164
4.84519e-06
0.000342114
5.21737e-06
0.000340991
5.58432e-06
0.000339795
5.94582e-06
0.000338527
6.30166e-06
0.00033719
6.65165e-06
0.000335783
6.99562e-06
0.000334309
7.3334e-06
0.000332768
7.66482e-06
0.000331162
7.98976e-06
0.000329493
8.30808e-06
0.000327761
8.61967e-06
0.000325968
8.92443e-06
0.000324115
9.22227e-06
0.000322204
9.51311e-06
0.000320236
9.79689e-06
0.000318213
1.00736e-05
0.000316135
1.03431e-05
0.000314006
1.06054e-05
0.000311825
1.08605e-05
0.000309595
1.11085e-05
0.000307316
1.13492e-05
0.000304991
1.15828e-05
0.000302621
1.18092e-05
0.000300207
1.20284e-05
0.00029775
1.22406e-05
0.000295252
1.24457e-05
0.000292715
1.26439e-05
0.00029014
1.28351e-05
0.000287528
1.30196e-05
0.000284881
1.31972e-05
0.000282199
1.33682e-05
0.000279485
1.35326e-05
0.000276739
1.36906e-05
0.000273963
1.38421e-05
0.000271158
1.39874e-05
0.000268326
1.41266e-05
0.000265467
1.42597e-05
0.000262583
1.43868e-05
0.000259674
1.45082e-05
0.000256743
1.4624e-05
0.000253789
1.47341e-05