/*--------------------------------*- C++ -*----------------------------------*\
| =========                 |                                                 |
| \\      /  F ield         | OpenFOAM: The Open Source CFD Toolbox           |
|  \\    /   O peration     | Version:  v2012                                 |
|   \\  /    A nd           | Website:  www.openfoam.com                      |
|    \\/     M anipulation  |                                                 |
\*---------------------------------------------------------------------------*/
FoamFile
{
    version     2.0;
    format      ascii;
    class       surfaceScalarField;
    location    "0.7";
    object      phi;
}
// * * * * * * * * * * * * * * * * * * * * * * * * * * * * * * * * * * * * * //

dimensions      [0 3 -1 0 0 0 0];
oriented        oriented;


internalField   nonuniform List<scalar> 
130560
(
3.35521e-06
-3.35521e-06
6.71019e-06
-3.35498e-06
1.00647e-05
-3.35453e-06
1.34186e-05
-3.35385e-06
1.67715e-05
-3.35294e-06
2.01233e-05
-3.35181e-06
2.34738e-05
-3.35044e-06
2.68226e-05
-3.34884e-06
3.01696e-05
-3.347e-06
3.35145e-05
-3.34492e-06
3.68571e-05
-3.3426e-06
4.01971e-05
-3.34003e-06
4.35343e-05
-3.3372e-06
4.68685e-05
-3.33412e-06
5.01993e-05
-3.33078e-06
5.35264e-05
-3.32717e-06
5.68497e-05
-3.32328e-06
6.01688e-05
-3.31912e-06
6.34835e-05
-3.31466e-06
6.67934e-05
-3.30992e-06
7.00983e-05
-3.30487e-06
7.33978e-05
-3.29951e-06
7.66916e-05
-3.29384e-06
7.99795e-05
-3.28785e-06
8.3261e-05
-3.28152e-06
8.65358e-05
-3.27485e-06
8.98037e-05
-3.26783e-06
9.30641e-05
-3.26045e-06
9.63168e-05
-3.2527e-06
9.95614e-05
-3.24458e-06
0.000102797
-3.23607e-06
0.000106025
-3.22717e-06
0.000109242
-3.21785e-06
0.000112451
-3.20813e-06
0.000115649
-3.19797e-06
0.000118836
-3.18738e-06
0.000122012
-3.17635e-06
0.000125177
-3.16486e-06
0.00012833
-3.1529e-06
0.000131471
-3.14047e-06
0.000134598
-3.12755e-06
0.000137712
-3.11414e-06
0.000140812
-3.10022e-06
0.000143898
-3.08579e-06
0.000146969
-3.07083e-06
0.000150024
-3.05534e-06
0.000153064
-3.03931e-06
0.000156086
-3.02272e-06
0.000159092
-3.00558e-06
0.00016208
-2.98787e-06
0.000165049
-2.96958e-06
0.000168
-2.95071e-06
0.000170931
-2.93124e-06
0.000173843
-2.91118e-06
0.000176733
-2.89051e-06
0.000179602
-2.86924e-06
0.00018245
-2.84734e-06
0.000185275
-2.82483e-06
0.000188076
-2.80169e-06
0.000190854
-2.77791e-06
0.000193608
-2.75351e-06
0.000196336
-2.72846e-06
0.000199039
-2.70277e-06
0.000201715
-2.67645e-06
0.000204365
-2.64947e-06
0.000206987
-2.62185e-06
0.00020958
-2.59359e-06
0.000212145
-2.56468e-06
0.00021468
-2.53513e-06
0.000217185
-2.50493e-06
0.000219659
-2.47409e-06
0.000222102
-2.44262e-06
0.000224512
-2.41051e-06
0.00022689
-2.37776e-06
0.000229234
-2.34439e-06
0.000231545
-2.31041e-06
0.000233821
-2.2758e-06
0.000236061
-2.24059e-06
0.000238266
-2.20477e-06
0.000240434
-2.16836e-06
0.000242566
-2.13137e-06
0.000244659
-2.09379e-06
0.000246715
-2.05565e-06
0.000248732
-2.01695e-06
0.00025071
-1.97771e-06
0.000252648
-1.93792e-06
0.000254545
-1.89761e-06
0.000256402
-1.85679e-06
0.000258218
-1.81546e-06
0.000259991
-1.77365e-06
0.000261723
-1.73135e-06
0.000263411
-1.6886e-06
0.000265057
-1.64539e-06
0.000266658
-1.60175e-06
0.000268216
-1.55769e-06
0.000269729
-1.51322e-06
0.000271198
-1.46836e-06
0.000272621
-1.42312e-06
0.000273998
-1.37751e-06
0.00027533
-1.33156e-06
0.000276615
-1.28528e-06
0.000277854
-1.23867e-06
0.000279045
-1.19177e-06
0.00028019
-1.14458e-06
0.000281287
-1.09711e-06
0.000282337
-1.04939e-06
0.000283338
-1.00143e-06
0.000284291
-9.53241e-07
0.000285196
-9.04842e-07
0.000286052
-8.56246e-07
0.00028686
-8.07469e-07
0.000287618
-7.58526e-07
0.000288328
-7.09431e-07
0.000288988
-6.60199e-07
0.000289599
-6.10844e-07
0.00029016
-5.6138e-07
0.000290672
-5.11822e-07
0.000291134
-4.62182e-07
0.000291547
-4.12475e-07
0.000291909
-3.62714e-07
0.000292222
-3.12912e-07
0.000292485
-2.63083e-07
0.000292699
-2.1324e-07
0.000292862
-1.63394e-07
0.000292976
-1.13559e-07
0.000293039
-6.37475e-08
0.000293053
-1.39711e-08
0.000293017
3.57578e-08
0.000292932
8.54273e-08
0.000292797
1.35026e-07
0.000292612
1.84541e-07
0.000292379
2.33962e-07
0.000292095
2.83277e-07
0.000291763
3.32474e-07
0.000291381
3.81543e-07
0.000290951
4.30472e-07
0.000290472
4.7925e-07
0.000289944
5.27865e-07
0.000289367
5.76308e-07
0.000288743
6.24566e-07
0.00028807
6.72629e-07
0.00028735
7.20486e-07
0.000286582
7.68126e-07
0.000285766
8.15538e-07
0.000284903
8.62711e-07
0.000283994
9.09634e-07
0.000283037
9.56296e-07
0.000282035
1.00269e-06
0.000280986
1.04879e-06
0.000279891
1.09461e-06
0.000278751
1.14012e-06
0.000277566
1.18532e-06
0.000276336
1.23019e-06
0.000275061
1.27472e-06
0.000273742
1.3189e-06
0.000272379
1.36273e-06
0.000270973
1.40619e-06
0.000269524
1.44927e-06
0.000268032
1.49196e-06
0.000266498
1.53425e-06
0.000264921
1.57613e-06
0.000263304
1.61759e-06
0.000261645
1.65862e-06
0.000259946
1.6992e-06
0.000258207
1.73934e-06
0.000256428
1.77902e-06
0.000254609
1.81823e-06
0.000252753
1.85696e-06
0.000250857
1.89521e-06
0.000248924
1.93296e-06
0.000246954
1.9702e-06
0.000244947
2.00694e-06
0.000242904
2.04316e-06
0.000240825
2.07885e-06
0.000238711
2.11401e-06
0.000236563
2.14863e-06
0.00023438
2.1827e-06
0.000232164
2.21622e-06
0.000229914
2.24918e-06
0.000227633
2.28159e-06
0.000225319
2.31342e-06
0.000222975
2.34469e-06
0.000220599
2.37538e-06
0.000218194
2.40549e-06
0.000215759
2.43502e-06
0.000213295
2.46397e-06
0.000210803
2.49234e-06
0.000208282
2.52012e-06
0.000205735
2.54731e-06
0.000203161
2.57392e-06
0.000200561
2.59994e-06
0.000197936
2.62537e-06
0.000195286
2.65022e-06
0.000192611
2.67448e-06
0.000189913
2.69816e-06
0.000187192
2.72126e-06
0.000184448
2.74379e-06
0.000181682
2.76574e-06
0.000178895
2.78711e-06
0.000176087
2.80793e-06
0.000173259
2.82818e-06
0.000170411
2.84787e-06
0.000167544
2.86701e-06
0.000164659
2.88561e-06
0.000161755
2.90366e-06
0.000158834
2.92118e-06
0.000155896
2.93817e-06
0.000152941
2.95464e-06
0.00014997
2.9706e-06
0.000146984
2.98605e-06
0.000143983
3.001e-06
0.000140968
3.01545e-06
0.000137938
3.02942e-06
0.000134895
3.04292e-06
0.00013184
3.05594e-06
0.000128771
3.06851e-06
0.00012569
3.08063e-06
0.000122598
3.0923e-06
0.000119495
3.10354e-06
0.00011638
3.11435e-06
0.000113255
3.12474e-06
0.000110121
3.13473e-06
0.000106976
3.14431e-06
0.000103823
3.1535e-06
0.000100661
3.16231e-06
9.74899e-05
3.17075e-06
9.43111e-05
3.17882e-06
9.11245e-05
3.18653e-06
8.79306e-05
3.19389e-06
8.47297e-05
3.20091e-06
8.15221e-05
3.20759e-06
7.83082e-05
3.21395e-06
7.50882e-05
3.21999e-06
7.18625e-05
3.22572e-06
6.86313e-05
3.23114e-06
6.53951e-05
3.23627e-06
6.2154e-05
3.24111e-06
5.89083e-05
3.24566e-06
5.56584e-05
3.24994e-06
5.24044e-05
3.25394e-06
4.91467e-05
3.25768e-06
4.58856e-05
3.26116e-06
4.26212e-05
3.26438e-06
3.93538e-05
3.26735e-06
3.60838e-05
3.27008e-06
3.28112e-05
3.27256e-06
2.95364e-05
3.2748e-06
2.62596e-05
3.27681e-06
2.2981e-05
3.27859e-06
1.97009e-05
3.28014e-06
1.64194e-05
3.28146e-06
1.31368e-05
3.28256e-06
9.85338e-06
3.28344e-06
6.56928e-06
3.2841e-06
3.28475e-06
3.28453e-06
3.28475e-06
3.35542e-06
-6.71063e-06
6.71062e-06
-6.71018e-06
1.00654e-05
-6.70928e-06
1.34194e-05
-6.70792e-06
1.67726e-05
-6.70611e-06
2.01246e-05
-6.70384e-06
2.34753e-05
-6.70111e-06
2.68244e-05
-6.69791e-06
3.01716e-05
-6.69424e-06
3.35168e-05
-6.69008e-06
3.68596e-05
-6.68544e-06
4.01999e-05
-6.6803e-06
4.35374e-05
-6.67466e-06
4.68717e-05
-6.6685e-06
5.02028e-05
-6.66182e-06
5.35302e-05
-6.65461e-06
5.68538e-05
-6.64684e-06
6.01732e-05
-6.63851e-06
6.34881e-05
-6.62962e-06
6.67983e-05
-6.62013e-06
7.01035e-05
-6.61004e-06
7.34033e-05
-6.59934e-06
7.66975e-05
-6.588e-06
7.99857e-05
-6.57602e-06
8.32675e-05
-6.56337e-06
8.65427e-05
-6.55004e-06
8.98109e-05
-6.53601e-06
9.30717e-05
-6.52127e-06
9.63248e-05
-6.50578e-06
9.95698e-05
-6.48955e-06
0.000102806
-6.47254e-06
0.000106034
-6.45474e-06
0.000109252
-6.43612e-06
0.000112461
-6.41668e-06
0.000115659
-6.39638e-06
0.000118847
-6.37521e-06
0.000122024
-6.35315e-06
0.000125189
-6.33018e-06
0.000128342
-6.30628e-06
0.000131483
-6.28142e-06
0.000134611
-6.2556e-06
0.000137726
-6.22878e-06
0.000140827
-6.20095e-06
0.000143913
-6.1721e-06
0.000146984
-6.14219e-06
0.00015004
-6.11122e-06
0.00015308
-6.07916e-06
0.000156103
-6.046e-06
0.00015911
-6.01173e-06
0.000162098
-5.97631e-06
0.000165068
-5.93974e-06
0.000168019
-5.902e-06
0.000170951
-5.86308e-06
0.000173863
-5.82297e-06
0.000176754
-5.78164e-06
0.000179624
-5.73909e-06
0.000182472
-5.69531e-06
0.000185297
-5.65028e-06
0.0001881
-5.604e-06
0.000190878
-5.55646e-06
0.000193632
-5.50765e-06
0.000196362
-5.45756e-06
0.000199065
-5.40619e-06
0.000201742
-5.35354e-06
0.000204392
-5.29959e-06
0.000207015
-5.24435e-06
0.000209609
-5.18783e-06
0.000212174
-5.13001e-06
0.00021471
-5.0709e-06
0.000217216
-5.0105e-06
0.00021969
-4.94882e-06
0.000222134
-4.88587e-06
0.000224545
-4.82164e-06
0.000226923
-4.75615e-06
0.000229268
-4.68941e-06
0.000231579
-4.62143e-06
0.000233856
-4.55221e-06
0.000236097
-4.48178e-06
0.000238302
-4.41014e-06
0.000240471
-4.33731e-06
0.000242603
-4.26331e-06
0.000244697
-4.18816e-06
0.000246754
-4.11186e-06
0.000248771
-4.03446e-06
0.000250749
-3.95595e-06
0.000252688
-3.87637e-06
0.000254586
-3.79574e-06
0.000256443
-3.71408e-06
0.000258259
-3.63141e-06
0.000260033
-3.54777e-06
0.000261765
-3.46317e-06
0.000263454
-3.37765e-06
0.0002651
-3.29123e-06
0.000266702
-3.20393e-06
0.00026826
-3.11579e-06
0.000269774
-3.02684e-06
0.000271243
-2.9371e-06
0.000272666
-2.8466e-06
0.000274044
-2.75538e-06
0.000275376
-2.66346e-06
0.000276662
-2.57087e-06
0.0002779
-2.47765e-06
0.000279093
-2.38383e-06
0.000280237
-2.28943e-06
0.000281335
-2.19449e-06
0.000282384
-2.09903e-06
0.000283386
-2.00309e-06
0.00028434
-1.9067e-06
0.000285245
-1.80988e-06
0.000286101
-1.71268e-06
0.000286909
-1.61511e-06
0.000287667
-1.51721e-06
0.000288377
-1.419e-06
0.000289037
-1.32053e-06
0.000289648
-1.2218e-06
0.00029021
-1.12286e-06
0.000290722
-1.02373e-06
0.000291184
-9.24436e-07
0.000291596
-8.25008e-07
0.000291959
-7.25473e-07
0.000292272
-6.25857e-07
0.000292535
-5.26186e-07
0.000292748
-4.26486e-07
0.000292912
-3.26782e-07
0.000293025
-2.271e-07
0.000293089
-1.27464e-07
0.000293103
-2.78995e-08
0.000293067
7.15703e-08
0.000292982
1.70921e-07
0.000292847
2.70129e-07
0.000292662
3.69172e-07
0.000292428
4.68025e-07
0.000292144
5.66666e-07
0.000291812
6.65072e-07
0.00029143
7.63221e-07
0.000291
8.6109e-07
0.00029052
9.58657e-07
0.000289992
1.0559e-06
0.000289416
1.1528e-06
0.000288791
1.24932e-06
0.000288118
1.34546e-06
0.000287397
1.44119e-06
0.000286629
1.53648e-06
0.000285813
1.63131e-06
0.00028495
1.72567e-06
0.00028404
1.81952e-06
0.000283084
1.91286e-06
0.000282081
2.00565e-06
0.000281032
2.09788e-06
0.000279937
2.18952e-06
0.000278796
2.28055e-06
0.000277611
2.37095e-06
0.00027638
2.4607e-06
0.000275105
2.54978e-06
0.000273786
2.63816e-06
0.000272423
2.72583e-06
0.000271016
2.81276e-06
0.000269567
2.89893e-06
0.000268074
2.98432e-06
0.00026654
3.06891e-06
0.000264963
3.15267e-06
0.000263345
3.2356e-06
0.000261686
3.31767e-06
0.000259986
3.39885e-06
0.000258247
3.47914e-06
0.000256467
3.55851e-06
0.000254648
3.63693e-06
0.000252791
3.71441e-06
0.000250895
3.79091e-06
0.000248962
3.86642e-06
0.000246991
3.94092e-06
0.000244984
4.0144e-06
0.00024294
4.08684e-06
0.000240861
4.15823e-06
0.000238746
4.22855e-06
0.000236597
4.2978e-06
0.000234414
4.36595e-06
0.000232197
4.43299e-06
0.000229947
4.49893e-06
0.000227665
4.56374e-06
0.000225351
4.62741e-06
0.000223006
4.68995e-06
0.00022063
4.75133e-06
0.000218224
4.81156e-06
0.000215788
4.87063e-06
0.000213323
4.92853e-06
0.000210831
4.98526e-06
0.00020831
5.04083e-06
0.000205762
5.09521e-06
0.000203187
5.14843e-06
0.000200587
5.20046e-06
0.000197961
5.25133e-06
0.00019531
5.30102e-06
0.000192635
5.34955e-06
0.000189936
5.3969e-06
0.000187215
5.4431e-06
0.00018447
5.48815e-06
0.000181704
5.53204e-06
0.000178916
5.5748e-06
0.000176108
5.61642e-06
0.000173279
5.65692e-06
0.000170431
5.6963e-06
0.000167563
5.73458e-06
0.000164677
5.77176e-06
0.000161773
5.80786e-06
0.000158851
5.8429e-06
0.000155912
5.87687e-06
0.000152957
5.9098e-06
0.000149986
5.94171e-06
0.000146999
5.9726e-06
0.000143998
6.00249e-06
0.000140982
6.03139e-06
0.000137952
6.05932e-06
0.000134909
6.08631e-06
0.000131852
6.11235e-06
0.000128783
6.13748e-06
0.000125702
6.1617e-06
0.000122609
6.18503e-06
0.000119505
6.2075e-06
0.000116391
6.22911e-06
0.000113266
6.24989e-06
0.00011013
6.26985e-06
0.000106986
6.28901e-06
0.000103832
6.30739e-06
0.000100669
6.325e-06
9.7498e-05
6.34186e-06
9.43189e-05
6.35799e-06
9.1132e-05
6.37341e-06
8.79378e-05
6.38812e-06
8.47365e-05
6.40215e-06
8.15286e-05
6.41551e-06
7.83143e-05
6.42822e-06
7.5094e-05
6.4403e-06
7.1868e-05
6.45175e-06
6.86365e-05
6.46259e-06
6.54e-05
6.47284e-06
6.21586e-05
6.48251e-06
5.89126e-05
6.49161e-06
5.56624e-05
6.50015e-06
5.24082e-05
6.50816e-06
4.91503e-05
6.51563e-06
4.58888e-05
6.52258e-06
4.26242e-05
6.52902e-06
3.93566e-05
6.53495e-06
3.60863e-05
6.5404e-06
3.28135e-05
6.54536e-06
2.95384e-05
6.54985e-06
2.62614e-05
6.55386e-06
2.29826e-05
6.55742e-06
1.97022e-05
6.56051e-06
1.64205e-05
6.56316e-06
1.31377e-05
6.56536e-06
9.85404e-06
6.56711e-06
6.56972e-06
6.56842e-06
3.28497e-06
6.56929e-06
6.56972e-06
3.35588e-06
-1.00665e-05
6.71153e-06
-1.00658e-05
1.00667e-05
-1.00645e-05
1.34213e-05
-1.00625e-05
1.67749e-05
-1.00597e-05
2.01274e-05
-1.00563e-05
2.34785e-05
-1.00523e-05
2.68281e-05
-1.00475e-05
3.01758e-05
-1.0042e-05
3.35215e-05
-1.00357e-05
3.68648e-05
-1.00288e-05
4.02056e-05
-1.00211e-05
4.35436e-05
-1.00126e-05
4.68785e-05
-1.00034e-05
5.021e-05
-9.9934e-06
5.3538e-05
-9.98259e-06
5.68621e-05
-9.97096e-06
6.01821e-05
-9.95849e-06
6.34977e-05
-9.94516e-06
6.68085e-05
-9.93095e-06
7.01143e-05
-9.91584e-06
7.34147e-05
-9.8998e-06
7.67095e-05
-9.88282e-06
7.99984e-05
-9.86486e-06
8.32809e-05
-9.84591e-06
8.65568e-05
-9.82594e-06
8.98257e-05
-9.80491e-06
9.30873e-05
-9.78282e-06
9.63411e-05
-9.75962e-06
9.95868e-05
-9.73529e-06
0.000102824
-9.7098e-06
0.000106052
-9.68312e-06
0.000109272
-9.65522e-06
0.000112481
-9.62608e-06
0.00011568
-9.59566e-06
0.000118869
-9.56393e-06
0.000122047
-9.53087e-06
0.000125213
-9.49643e-06
0.000128367
-9.4606e-06
0.000131509
-9.42335e-06
0.000134638
-9.38463e-06
0.000137754
-9.34443e-06
0.000140856
-9.30272e-06
0.000143943
-9.25946e-06
0.000147015
-9.21462e-06
0.000150072
-9.16819e-06
0.000153113
-9.12013e-06
0.000156138
-9.07041e-06
0.000159145
-9.01901e-06
0.000162135
-8.9659e-06
0.000165106
-8.91107e-06
0.000168058
-8.85448e-06
0.000170992
-8.79612e-06
0.000173905
-8.73596e-06
0.000176797
-8.67399e-06
0.000179668
-8.61018e-06
0.000182517
-8.54452e-06
0.000185344
-8.47699e-06
0.000188147
-8.40758e-06
0.000190927
-8.33628e-06
0.000193683
-8.26307e-06
0.000196413
-8.18794e-06
0.000199118
-8.11089e-06
0.000201796
-8.03191e-06
0.000204448
-7.951e-06
0.000207071
-7.86815e-06
0.000209667
-7.78335e-06
0.000212233
-7.69662e-06
0.000214771
-7.60796e-06
0.000217277
-7.51736e-06
0.000219753
-7.42483e-06
0.000222198
-7.33039e-06
0.00022461
-7.23404e-06
0.00022699
-7.1358e-06
0.000229336
-7.03567e-06
0.000231648
-6.93368e-06
0.000233926
-6.82984e-06
0.000236169
-6.72417e-06
0.000238375
-6.6167e-06
0.000240545
-6.50743e-06
0.000242678
-6.39641e-06
0.000244774
-6.28366e-06
0.000246831
-6.16919e-06
0.00024885
-6.05305e-06
0.000250829
-5.93527e-06
0.000252769
-5.81587e-06
0.000254668
-5.6949e-06
0.000256526
-5.57237e-06
0.000258343
-5.44835e-06
0.000260118
-5.32285e-06
0.000261851
-5.19592e-06
0.000263541
-5.0676e-06
0.000265187
-4.93793e-06
0.00026679
-4.80695e-06
0.000268349
-4.67471e-06
0.000269864
-4.54124e-06
0.000271333
-4.40659e-06
0.000272757
-4.27081e-06
0.000274136
-4.13394e-06
0.000275469
-3.99602e-06
0.000276755
-3.85711e-06
0.000277994
-3.71724e-06
0.000279187
-3.57646e-06
0.000280332
-3.43482e-06
0.00028143
-3.29237e-06
0.00028248
-3.14915e-06
0.000283483
-3.0052e-06
0.000284436
-2.86057e-06
0.000285342
-2.71532e-06
0.000286199
-2.56947e-06
0.000287007
-2.42308e-06
0.000287766
-2.27619e-06
0.000288475
-2.12885e-06
0.000289136
-1.9811e-06
0.000289747
-1.83297e-06
0.000290309
-1.68453e-06
0.000290821
-1.5358e-06
0.000291283
-1.38682e-06
0.000291696
-1.23765e-06
0.000292059
-1.08831e-06
0.000292372
-9.38854e-07
0.000292635
-7.89315e-07
0.000292848
-6.39733e-07
0.000293011
-4.90146e-07
0.000293125
-3.40592e-07
0.000293189
-1.91108e-07
0.000293202
-4.17306e-08
0.000293167
1.07504e-07
0.000293081
2.5656e-07
0.000292946
4.05401e-07
0.000292761
5.53994e-07
0.000292527
7.02302e-07
0.000292243
8.50292e-07
0.00029191
9.9793e-07
0.000291528
1.14518e-06
0.000291097
1.29201e-06
0.000290617
1.43839e-06
0.000290089
1.58428e-06
0.000289512
1.72965e-06
0.000288887
1.87447e-06
0.000288214
2.01871e-06
0.000287493
2.16232e-06
0.000286724
2.30528e-06
0.000285908
2.44756e-06
0.000285044
2.58912e-06
0.000284134
2.72994e-06
0.000283177
2.86997e-06
0.000282173
3.00918e-06
0.000281123
3.14755e-06
0.000280028
3.28504e-06
0.000278887
3.42161e-06
0.000277701
3.55724e-06
0.000276469
3.6919e-06
0.000275194
3.82554e-06
0.000273874
3.95814e-06
0.00027251
4.08966e-06
0.000271102
4.22008e-06
0.000269652
4.34936e-06
0.000268159
4.47747e-06
0.000266623
4.60438e-06
0.000265046
4.73006e-06
0.000263427
4.85448e-06
0.000261767
4.9776e-06
0.000260067
5.09941e-06
0.000258326
5.21986e-06
0.000256545
5.33893e-06
0.000254726
5.45659e-06
0.000252867
5.57283e-06
0.000250971
5.6876e-06
0.000249036
5.80088e-06
0.000247064
5.91266e-06
0.000245056
6.02289e-06
0.000243011
6.13158e-06
0.000240931
6.23868e-06
0.000238815
6.34418e-06
0.000236665
6.44806e-06
0.000234481
6.5503e-06
0.000232263
6.65089e-06
0.000230012
6.7498e-06
0.000227729
6.84702e-06
0.000225413
6.94255e-06
0.000223067
7.03636e-06
0.00022069
7.12844e-06
0.000218283
7.21879e-06
0.000215846
7.3074e-06
0.00021338
7.39426e-06
0.000210886
7.47936e-06
0.000208364
7.56271e-06
0.000205815
7.64429e-06
0.000203239
7.72411e-06
0.000200638
7.80216e-06
0.000198011
7.87846e-06
0.000195359
7.95299e-06
0.000192682
8.02577e-06
0.000189982
8.09681e-06
0.000187259
8.1661e-06
0.000184514
8.23366e-06
0.000181747
8.29949e-06
0.000178958
8.36361e-06
0.000176148
8.42603e-06
0.000173318
8.48677e-06
0.000170469
8.54583e-06
0.0001676
8.60323e-06
0.000164713
8.65899e-06
0.000161808
8.71313e-06
0.000158885
8.76566e-06
0.000155945
8.81661e-06
0.000152989
8.86599e-06
0.000150017
8.91383e-06
0.000147029
8.96015e-06
0.000144027
9.00496e-06
0.00014101
9.0483e-06
0.000137979
9.09018e-06
0.000134935
9.13063e-06
0.000131877
9.16968e-06
0.000128807
9.20735e-06
0.000125725
9.24366e-06
0.000122632
9.27864e-06
0.000119527
9.31232e-06
0.000116411
9.34472e-06
0.000113285
9.37586e-06
0.00011015
9.40578e-06
0.000107004
9.4345e-06
0.000103849
9.46205e-06
0.000100686
9.48844e-06
9.75141e-05
9.51371e-06
9.43342e-05
9.53788e-06
9.11467e-05
9.56098e-06
8.79517e-05
9.58303e-06
8.47498e-05
9.60406e-06
8.15413e-05
9.62408e-06
7.83264e-05
9.64313e-06
7.51054e-05
9.66122e-06
7.18788e-05
9.67838e-06
6.86468e-05
9.69463e-06
6.54096e-05
9.70998e-06
6.21677e-05
9.72447e-06
5.89212e-05
9.73811e-06
5.56704e-05
9.75091e-06
5.24157e-05
9.7629e-06
4.91572e-05
9.77409e-06
4.58953e-05
9.7845e-06
4.26301e-05
9.79415e-06
3.9362e-05
9.80305e-06
3.60912e-05
9.8112e-06
3.2818e-05
9.81864e-06
2.95424e-05
9.82536e-06
2.62649e-05
9.83137e-06
2.29857e-05
9.8367e-06
1.97048e-05
9.84133e-06
1.64227e-05
9.8453e-06
1.31395e-05
9.84859e-06
9.85535e-06
9.85122e-06
6.5706e-06
9.85318e-06
3.28541e-06
9.85448e-06
9.85512e-06
3.35656e-06
-1.34231e-05
6.71289e-06
-1.34222e-05
1.00688e-05
-1.34204e-05
1.3424e-05
-1.34177e-05
1.67783e-05
-1.34141e-05
2.01315e-05
-1.34095e-05
2.34834e-05
-1.34041e-05
2.68336e-05
-1.33977e-05
3.01821e-05
-1.33904e-05
3.35284e-05
-1.33821e-05
3.68725e-05
-1.33729e-05
4.02141e-05
-1.33626e-05
4.35528e-05
-1.33514e-05
4.68885e-05
-1.33391e-05
5.02209e-05
-1.33258e-05
5.35497e-05
-1.33114e-05
5.68747e-05
-1.32959e-05
6.01955e-05
-1.32793e-05
6.35119e-05
-1.32616e-05
6.68237e-05
-1.32427e-05
7.01304e-05
-1.32226e-05
7.34318e-05
-1.32012e-05
7.67276e-05
-1.31786e-05
8.00174e-05
-1.31547e-05
8.3301e-05
-1.31295e-05
8.65779e-05
-1.31029e-05
8.98479e-05
-1.30749e-05
9.31106e-05
-1.30455e-05
9.63655e-05
-1.30146e-05
9.96124e-05
-1.29822e-05
0.000102851
-1.29482e-05
0.00010608
-1.29127e-05
0.000109301
-1.28756e-05
0.000112512
-1.28368e-05
0.000115712
-1.27962e-05
0.000118902
-1.2754e-05
0.000122081
-1.27099e-05
0.000125249
-1.26641e-05
0.000128405
-1.26164e-05
0.000131548
-1.25667e-05
0.000134679
-1.25152e-05
0.000137796
-1.24616e-05
0.000140899
-1.2406e-05
0.000143988
-1.23484e-05
0.000147062
-1.22887e-05
0.000150121
-1.22268e-05
0.000153163
-1.21627e-05
0.000156189
-1.20965e-05
0.000159198
-1.2028e-05
0.00016219
-1.19572e-05
0.000165163
-1.18842e-05
0.000168117
-1.18087e-05
0.000171052
-1.1731e-05
0.000173967
-1.16508e-05
0.000176861
-1.15682e-05
0.000179734
-1.14831e-05
0.000182585
-1.13956e-05
0.000185413
-1.13056e-05
0.000188219
-1.12131e-05
0.000191001
-1.1118e-05
0.000193758
-1.10204e-05
0.00019649
-1.09203e-05
0.000199197
-1.08175e-05
0.000201877
-1.07122e-05
0.000204531
-1.06043e-05
0.000207156
-1.04939e-05
0.000209754
-1.03808e-05
0.000212322
-1.02652e-05
0.000214861
-1.01469e-05
0.00021737
-1.00261e-05
0.000219848
-9.90276e-06
0.000222294
-9.77682e-06
0.000224709
-9.64834e-06
0.00022709
-9.51732e-06
0.000229438
-9.3838e-06
0.000231752
-9.24778e-06
0.000234032
-9.1093e-06
0.000236276
-8.96837e-06
0.000238484
-8.82504e-06
0.000240656
-8.67932e-06
0.000242791
-8.53125e-06
0.000244888
-8.38086e-06
0.000246947
-8.2282e-06
0.000248968
-8.0733e-06
0.000250949
-7.9162e-06
0.00025289
-7.75695e-06
0.00025479
-7.59559e-06
0.00025665
-7.43218e-06
0.000258469
-7.26675e-06
0.000260245
-7.09935e-06
0.000261979
-6.93005e-06
0.00026367
-6.7589e-06
0.000265318
-6.58594e-06
0.000266923
-6.41123e-06
0.000268483
-6.23484e-06
0.000269998
-6.05682e-06
0.000271469
-5.87722e-06
0.000272894
-5.6961e-06
0.000274274
-5.51354e-06
0.000275608
-5.32958e-06
0.000276895
-5.14429e-06
0.000278135
-4.95773e-06
0.000279329
-4.76995e-06
0.000280475
-4.58103e-06
0.000281574
-4.39102e-06
0.000282624
-4.19998e-06
0.000283627
-4.00798e-06
0.000284582
-3.81508e-06
0.000285488
-3.62133e-06
0.000286345
-3.4268e-06
0.000287154
-3.23155e-06
0.000287913
-3.03563e-06
0.000288623
-2.8391e-06
0.000289284
-2.64203e-06
0.000289896
-2.44447e-06
0.000290458
-2.24647e-06
0.00029097
-2.0481e-06
0.000291432
-1.84941e-06
0.000291845
-1.65044e-06
0.000292208
-1.45127e-06
0.000292521
-1.25193e-06
0.000292784
-1.05248e-06
0.000292998
-8.52983e-07
0.000293161
-6.53475e-07
0.000293274
-4.54012e-07
0.000293338
-2.54642e-07
0.000293352
-5.54158e-08
0.000293316
1.43619e-07
0.00029323
3.42416e-07
0.000293094
5.40926e-07
0.000292909
7.39103e-07
0.000292674
9.36901e-07
0.000292391
1.13427e-06
0.000292057
1.33118e-06
0.000291675
1.52756e-06
0.000291243
1.72339e-06
0.000290763
1.91861e-06
0.000290234
2.11319e-06
0.000289657
2.30707e-06
0.000289031
2.50021e-06
0.000288357
2.69257e-06
0.000287636
2.88411e-06
0.000286866
3.07478e-06
0.000286049
3.26453e-06
0.000285185
3.45334e-06
0.000284274
3.64114e-06
0.000283316
3.82789e-06
0.000282311
4.01357e-06
0.000281261
4.19811e-06
0.000280164
4.38147e-06
0.000279022
4.56363e-06
0.000277835
4.74452e-06
0.000276603
4.9241e-06
0.000275326
5.10234e-06
0.000274005
5.27919e-06
0.00027264
5.45461e-06
0.000271232
5.62855e-06
0.00026978
5.80097e-06
0.000268286
5.97183e-06
0.000266749
6.1411e-06
0.00026517
6.30871e-06
0.00026355
6.47465e-06
0.000261889
6.63886e-06
0.000260187
6.80131e-06
0.000258445
6.96196e-06
0.000256663
7.12076e-06
0.000254842
7.27769e-06
0.000252982
7.43271e-06
0.000251084
7.58578e-06
0.000249148
7.73686e-06
0.000247175
7.88593e-06
0.000245165
8.03295e-06
0.000243118
8.17789e-06
0.000241036
8.32073e-06
0.000238919
8.46142e-06
0.000236767
8.59996e-06
0.000234581
8.73631e-06
0.000232361
8.87045e-06
0.000230109
9.00236e-06
0.000227824
9.13201e-06
0.000225507
9.25939e-06
0.000223159
9.38449e-06
0.00022078
9.50729e-06
0.000218371
9.62777e-06
0.000215933
9.74592e-06
0.000213465
9.86174e-06
0.000210969
9.97522e-06
0.000208446
1.00863e-05
0.000205895
1.01951e-05
0.000203317
1.03016e-05
0.000200714
1.04056e-05
0.000198085
1.05073e-05
0.000195431
1.06067e-05
0.000192753
1.07038e-05
0.000190052
1.07984e-05
0.000187327
1.08908e-05
0.00018458
1.09809e-05
0.000181811
1.10686e-05
0.00017902
1.11541e-05
0.000176209
1.12373e-05
0.000173377
1.13183e-05
0.000170526
1.1397e-05
0.000167656
1.14735e-05
0.000164767
1.15478e-05
0.00016186
1.162e-05
0.000158936
1.169e-05
0.000155994
1.17579e-05
0.000153037
1.18237e-05
0.000150063
1.18875e-05
0.000147074
1.19492e-05
0.00014407
1.20089e-05
0.000141052
1.20667e-05
0.000138019
1.21225e-05
0.000134974
1.21764e-05
0.000131915
1.22284e-05
0.000128844
1.22786e-05
0.00012576
1.23269e-05
0.000122665
1.23735e-05
0.000119559
1.24184e-05
0.000116443
1.24616e-05
0.000113315
1.25031e-05
0.000110178
1.25429e-05
0.000107032
1.25812e-05
0.000103876
1.26178e-05
0.000100711
1.2653e-05
9.75382e-05
1.26867e-05
9.43573e-05
1.27188e-05
9.11686e-05
1.27496e-05
8.79727e-05
1.2779e-05
8.47698e-05
1.2807e-05
8.15603e-05
1.28336e-05
7.83444e-05
1.2859e-05
7.51225e-05
1.28831e-05
7.1895e-05
1.29059e-05
6.86621e-05
1.29276e-05
6.54241e-05
1.2948e-05
6.21812e-05
1.29673e-05
5.89339e-05
1.29854e-05
5.56823e-05
1.30025e-05
5.24268e-05
1.30184e-05
4.91676e-05
1.30333e-05
4.59049e-05
1.30472e-05
4.2639e-05
1.306e-05
3.93702e-05
1.30719e-05
3.60986e-05
1.30827e-05
3.28247e-05
1.30926e-05
2.95484e-05
1.31016e-05
2.62702e-05
1.31096e-05
2.29903e-05
1.31167e-05
1.97088e-05
1.31228e-05
1.6426e-05
1.31281e-05
1.31421e-05
1.31325e-05
9.85732e-06
1.3136e-05
6.5719e-06
1.31386e-05
3.28606e-06
1.31403e-05
1.31412e-05
3.35746e-06
-1.67805e-05
6.7147e-06
-1.67794e-05
1.00715e-05
-1.67772e-05
1.34276e-05
-1.67738e-05
1.67829e-05
-1.67693e-05
2.0137e-05
-1.67637e-05
2.34898e-05
-1.67569e-05
2.6841e-05
-1.67489e-05
3.01904e-05
-1.67398e-05
3.35377e-05
-1.67295e-05
3.68828e-05
-1.67179e-05
4.02254e-05
-1.67052e-05
4.35651e-05
-1.66912e-05
4.69019e-05
-1.66759e-05
5.02353e-05
-1.66593e-05
5.35653e-05
-1.66413e-05
5.68913e-05
-1.6622e-05
6.02133e-05
-1.66013e-05
6.35309e-05
-1.65792e-05
6.68438e-05
-1.65556e-05
7.01518e-05
-1.65305e-05
7.34545e-05
-1.65039e-05
7.67516e-05
-1.64757e-05
8.00427e-05
-1.64459e-05
8.33277e-05
-1.64144e-05
8.6606e-05
-1.63812e-05
8.98774e-05
-1.63463e-05
9.31415e-05
-1.63096e-05
9.6398e-05
-1.62711e-05
9.96465e-05
-1.62306e-05
0.000102887
-1.61883e-05
0.000106118
-1.61439e-05
0.00010934
-1.60976e-05
0.000112552
-1.60491e-05
0.000115754
-1.59986e-05
0.000118946
-1.59458e-05
0.000122127
-1.58909e-05
0.000125297
-1.58336e-05
0.000128454
-1.5774e-05
0.0001316
-1.57121e-05
0.000134732
-1.56477e-05
0.000137851
-1.55808e-05
0.000140957
-1.55114e-05
0.000144048
-1.54394e-05
0.000147124
-1.53648e-05
0.000150185
-1.52876e-05
0.00015323
-1.52076e-05
0.000156258
-1.51248e-05
0.000159269
-1.50393e-05
0.000162263
-1.49509e-05
0.000165238
-1.48596e-05
0.000168195
-1.47654e-05
0.000171132
-1.46682e-05
0.000174049
-1.4568e-05
0.000176946
-1.44648e-05
0.000179821
-1.43585e-05
0.000182675
-1.42492e-05
0.000185506
-1.41367e-05
0.000188314
-1.40211e-05
0.000191098
-1.39023e-05
0.000193858
-1.37803e-05
0.000196593
-1.36551e-05
0.000199302
-1.35267e-05
0.000201985
-1.33951e-05
0.000204641
-1.32603e-05
0.000207269
-1.31222e-05
0.00020987
-1.29809e-05
0.000212441
-1.28363e-05
0.000214982
-1.26885e-05
0.000217494
-1.25375e-05
0.000219974
-1.23832e-05
0.000222423
-1.22258e-05
0.00022484
-1.20652e-05
0.000227224
-1.19014e-05
0.000229575
-1.17344e-05
0.000231891
-1.15643e-05
0.000234173
-1.13912e-05
0.00023642
-1.1215e-05
0.00023863
-1.10358e-05
0.000240805
-1.08535e-05
0.000242942
-1.06684e-05
0.000245041
-1.04803e-05
0.000247102
-1.02894e-05
0.000249125
-1.00957e-05
0.000251108
-9.89928e-06
0.000253051
-9.70014e-06
0.000254954
-9.49835e-06
0.000256816
-9.29399e-06
0.000258636
-9.0871e-06
0.000260414
-8.87777e-06
0.00026215
-8.66604e-06
0.000263844
-8.452e-06
0.000265493
-8.23569e-06
0.000267099
-8.01721e-06
0.000268661
-7.7966e-06
0.000270178
-7.57396e-06
0.00027165
-7.34935e-06
0.000273077
-7.12285e-06
0.000274458
-6.89453e-06
0.000275793
-6.66447e-06
0.000277081
-6.43274e-06
0.000278323
-6.19942e-06
0.000279518
-5.96459e-06
0.000280665
-5.72832e-06
0.000281765
-5.4907e-06
0.000282816
-5.25179e-06
0.00028382
-5.01167e-06
0.000284776
-4.77043e-06
0.000285682
-4.52813e-06
0.00028654
-4.28485e-06
0.000287349
-4.04068e-06
0.00028811
-3.79567e-06
0.00028882
-3.5499e-06
0.000289482
-3.30345e-06
0.000290094
-3.0564e-06
0.000290656
-2.8088e-06
0.000291169
-2.56073e-06
0.000291631
-2.31226e-06
0.000292044
-2.06345e-06
0.000292408
-1.81438e-06
0.000292721
-1.56511e-06
0.000292984
-1.31571e-06
0.000293197
-1.06623e-06
0.000293361
-8.16756e-07
0.000293474
-5.67334e-07
0.000293537
-3.1803e-07
0.000293551
-6.89066e-08
0.000293514
1.79977e-07
0.000293428
4.28561e-07
0.000293292
6.76786e-07
0.000293107
9.24594e-07
0.000292872
1.17193e-06
0.000292587
1.41873e-06
0.000292254
1.66494e-06
0.000291871
1.91051e-06
0.000291439
2.15538e-06
0.000290958
2.39949e-06
0.000290428
2.64279e-06
0.00028985
2.88522e-06
0.000289224
3.12673e-06
0.000288549
3.36727e-06
0.000287826
3.60677e-06
0.000287056
3.84519e-06
0.000286238
4.08247e-06
0.000285373
4.31855e-06
0.00028446
4.55338e-06
0.000283501
4.78691e-06
0.000282496
5.01908e-06
0.000281444
5.24984e-06
0.000280346
5.47913e-06
0.000279203
5.7069e-06
0.000278015
5.93309e-06
0.000276781
6.15766e-06
0.000275503
6.38054e-06
0.00027418
6.60168e-06
0.000272814
6.82103e-06
0.000271404
7.03853e-06
0.000269951
7.25414e-06
0.000268455
7.4678e-06
0.000266916
7.67945e-06
0.000265336
7.88905e-06
0.000263714
8.09655e-06
0.000262051
8.30188e-06
0.000260348
8.50502e-06
0.000258604
8.7059e-06
0.00025682
8.90447e-06
0.000254997
9.1007e-06
0.000253135
9.29454e-06
0.000251235
9.48594e-06
0.000249297
9.67486e-06
0.000247322
9.86125e-06
0.000245309
1.00451e-05
0.000243261
1.02263e-05
0.000241177
1.04049e-05
0.000239057
1.05808e-05
0.000236903