/*--------------------------------*- C++ -*----------------------------------*\
| =========                 |                                                 |
| \\      /  F ield         | OpenFOAM: The Open Source CFD Toolbox           |
|  \\    /   O peration     | Version:  v2012                                 |
|   \\  /    A nd           | Website:  www.openfoam.com                      |
|    \\/     M anipulation  |                                                 |
\*---------------------------------------------------------------------------*/
FoamFile
{
    version     2.0;
    format      ascii;
    class       volVectorField;
    location    "3.1";
    object      Psi;
}
// * * * * * * * * * * * * * * * * * * * * * * * * * * * * * * * * * * * * * //

dimensions      [0 2 -1 0 0 0 0];


internalField   nonuniform List<vector> 
65536
(
(0 0 8.81404e-06)
(0 0 2.64415e-05)
(0 0 4.40675e-05)
(0 0 6.16908e-05)
(0 0 7.93106e-05)
(0 0 9.69257e-05)
(0 0 0.000114535)
(0 0 0.000132138)
(0 0 0.000149733)
(0 0 0.000167318)
(0 0 0.000184894)
(0 0 0.000202458)
(0 0 0.00022001)
(0 0 0.000237549)
(0 0 0.000255072)
(0 0 0.000272579)
(0 0 0.000290068)
(0 0 0.000307539)
(0 0 0.000324989)
(0 0 0.000342417)
(0 0 0.000359822)
(0 0 0.000377203)
(0 0 0.000394556)
(0 0 0.000411882)
(0 0 0.000429177)
(0 0 0.000446441)
(0 0 0.000463671)
(0 0 0.000480866)
(0 0 0.000498024)
(0 0 0.000515142)
(0 0 0.000532218)
(0 0 0.000549251)
(0 0 0.000566238)
(0 0 0.000583177)
(0 0 0.000600065)
(0 0 0.0006169)
(0 0 0.00063368)
(0 0 0.000650401)
(0 0 0.000667062)
(0 0 0.000683659)
(0 0 0.00070019)
(0 0 0.000716651)
(0 0 0.000733041)
(0 0 0.000749355)
(0 0 0.000765591)
(0 0 0.000781745)
(0 0 0.000797815)
(0 0 0.000813797)
(0 0 0.000829688)
(0 0 0.000845484)
(0 0 0.000861181)
(0 0 0.000876777)
(0 0 0.000892268)
(0 0 0.00090765)
(0 0 0.000922919)
(0 0 0.000938071)
(0 0 0.000953103)
(0 0 0.000968011)
(0 0 0.000982791)
(0 0 0.000997439)
(0 0 0.00101195)
(0 0 0.00102632)
(0 0 0.00104055)
(0 0 0.00105463)
(0 0 0.00106856)
(0 0 0.00108233)
(0 0 0.00109594)
(0 0 0.00110939)
(0 0 0.00112267)
(0 0 0.00113578)
(0 0 0.00114871)
(0 0 0.00116146)
(0 0 0.00117402)
(0 0 0.0011864)
(0 0 0.00119858)
(0 0 0.00121057)
(0 0 0.00122235)
(0 0 0.00123393)
(0 0 0.00124531)
(0 0 0.00125647)
(0 0 0.00126741)
(0 0 0.00127814)
(0 0 0.00128864)
(0 0 0.00129892)
(0 0 0.00130897)
(0 0 0.00131878)
(0 0 0.00132836)
(0 0 0.0013377)
(0 0 0.00134679)
(0 0 0.00135564)
(0 0 0.00136424)
(0 0 0.00137259)
(0 0 0.00138069)
(0 0 0.00138853)
(0 0 0.00139612)
(0 0 0.00140344)
(0 0 0.0014105)
(0 0 0.00141729)
(0 0 0.00142382)
(0 0 0.00143008)
(0 0 0.00143607)
(0 0 0.00144178)
(0 0 0.00144723)
(0 0 0.0014524)
(0 0 0.00145729)
(0 0 0.00146191)
(0 0 0.00146625)
(0 0 0.00147032)
(0 0 0.0014741)
(0 0 0.00147761)
(0 0 0.00148084)
(0 0 0.00148379)
(0 0 0.00148646)
(0 0 0.00148885)
(0 0 0.00149097)
(0 0 0.0014928)
(0 0 0.00149436)
(0 0 0.00149564)
(0 0 0.00149664)
(0 0 0.00149737)
(0 0 0.00149782)
(0 0 0.001498)
(0 0 0.00149791)
(0 0 0.00149754)
(0 0 0.00149691)
(0 0 0.00149601)
(0 0 0.00149484)
(0 0 0.0014934)
(0 0 0.00149171)
(0 0 0.00148975)
(0 0 0.00148753)
(0 0 0.00148505)
(0 0 0.00148232)
(0 0 0.00147933)
(0 0 0.0014761)
(0 0 0.00147261)
(0 0 0.00146888)
(0 0 0.0014649)
(0 0 0.00146068)
(0 0 0.00145622)
(0 0 0.00145152)
(0 0 0.00144659)
(0 0 0.00144142)
(0 0 0.00143603)
(0 0 0.00143041)
(0 0 0.00142456)
(0 0 0.0014185)
(0 0 0.00141221)
(0 0 0.00140571)
(0 0 0.00139899)
(0 0 0.00139207)
(0 0 0.00138493)
(0 0 0.00137759)
(0 0 0.00137005)
(0 0 0.00136231)
(0 0 0.00135438)
(0 0 0.00134625)
(0 0 0.00133792)
(0 0 0.00132941)
(0 0 0.00132072)
(0 0 0.00131184)
(0 0 0.00130279)
(0 0 0.00129356)
(0 0 0.00128415)
(0 0 0.00127457)
(0 0 0.00126483)
(0 0 0.00125492)
(0 0 0.00124485)
(0 0 0.00123462)
(0 0 0.00122423)
(0 0 0.00121369)
(0 0 0.001203)
(0 0 0.00119216)
(0 0 0.00118117)
(0 0 0.00117004)
(0 0 0.00115878)
(0 0 0.00114737)
(0 0 0.00113583)
(0 0 0.00112417)
(0 0 0.00111237)
(0 0 0.00110044)
(0 0 0.0010884)
(0 0 0.00107623)
(0 0 0.00106394)
(0 0 0.00105154)
(0 0 0.00103902)
(0 0 0.0010264)
(0 0 0.00101367)
(0 0 0.00100083)
(0 0 0.000987891)
(0 0 0.000974851)
(0 0 0.000961714)
(0 0 0.000948481)
(0 0 0.000935155)
(0 0 0.00092174)
(0 0 0.000908236)
(0 0 0.000894647)
(0 0 0.000880974)
(0 0 0.00086722)
(0 0 0.000853388)
(0 0 0.000839479)
(0 0 0.000825495)
(0 0 0.000811439)
(0 0 0.000797314)
(0 0 0.00078312)
(0 0 0.00076886)
(0 0 0.000754536)
(0 0 0.000740151)
(0 0 0.000725705)
(0 0 0.000711202)
(0 0 0.000696642)
(0 0 0.000682028)
(0 0 0.000667362)
(0 0 0.000652645)
(0 0 0.000637879)
(0 0 0.000623066)
(0 0 0.000608208)
(0 0 0.000593306)
(0 0 0.000578362)
(0 0 0.000563377)
(0 0 0.000548353)
(0 0 0.000533292)
(0 0 0.000518194)
(0 0 0.000503063)
(0 0 0.000487898)
(0 0 0.000472701)
(0 0 0.000457474)
(0 0 0.000442218)
(0 0 0.000426934)
(0 0 0.000411624)
(0 0 0.000396288)
(0 0 0.000380928)
(0 0 0.000365546)
(0 0 0.000350142)
(0 0 0.000334717)
(0 0 0.000319273)
(0 0 0.00030381)
(0 0 0.000288331)
(0 0 0.000272834)
(0 0 0.000257323)
(0 0 0.000241797)
(0 0 0.000226258)
(0 0 0.000210707)
(0 0 0.000195144)
(0 0 0.00017957)
(0 0 0.000163987)
(0 0 0.000148395)
(0 0 0.000132796)
(0 0 0.000117189)
(0 0 0.000101576)
(0 0 8.59581e-05)
(0 0 7.03354e-05)
(0 0 5.47091e-05)
(0 0 3.908e-05)
(0 0 2.34488e-05)
(0 0 7.81639e-06)
(0 0 2.64424e-05)
(0 0 7.93258e-05)
(0 0 0.000132205)
(0 0 0.000185076)
(0 0 0.000237936)
(0 0 0.000290782)
(0 0 0.000343611)
(0 0 0.00039642)
(0 0 0.000449206)
(0 0 0.000501964)
(0 0 0.000554692)
(0 0 0.000607386)
(0 0 0.000660043)
(0 0 0.000712659)
(0 0 0.00076523)
(0 0 0.000817753)
(0 0 0.000870222)
(0 0 0.000922635)
(0 0 0.000974987)
(0 0 0.00102727)
(0 0 0.00107949)
(0 0 0.00113163)
(0 0 0.00118369)
(0 0 0.00123567)
(0 0 0.00128756)
(0 0 0.00133935)
(0 0 0.00139105)
(0 0 0.00144263)
(0 0 0.00149411)
(0 0 0.00154546)
(0 0 0.0015967)
(0 0 0.0016478)
(0 0 0.00169876)
(0 0 0.00174958)
(0 0 0.00180024)
(0 0 0.00185075)
(0 0 0.00190109)
(0 0 0.00195126)
(0 0 0.00200125)
(0 0 0.00205104)
(0 0 0.00210063)
(0 0 0.00215002)
(0 0 0.00219919)
(0 0 0.00224814)
(0 0 0.00229685)
(0 0 0.00234532)
(0 0 0.00239353)
(0 0 0.00244148)
(0 0 0.00248915)
(0 0 0.00253654)
(0 0 0.00258364)
(0 0 0.00263043)
(0 0 0.00267691)
(0 0 0.00272306)
(0 0 0.00276887)
(0 0 0.00281433)
(0 0 0.00285943)
(0 0 0.00290416)
(0 0 0.0029485)
(0 0 0.00299245)
(0 0 0.00303599)
(0 0 0.00307911)
(0 0 0.0031218)
(0 0 0.00316404)
(0 0 0.00320583)
(0 0 0.00324715)
(0 0 0.00328799)
(0 0 0.00332834)
(0 0 0.00336818)
(0 0 0.0034075)
(0 0 0.00344629)
(0 0 0.00348455)
(0 0 0.00352224)
(0 0 0.00355937)
(0 0 0.00359593)
(0 0 0.00363189)
(0 0 0.00366725)
(0 0 0.003702)
(0 0 0.00373612)
(0 0 0.00376961)
(0 0 0.00380245)
(0 0 0.00383463)
(0 0 0.00386615)
(0 0 0.00389698)
(0 0 0.00392713)
(0 0 0.00395657)
(0 0 0.00398531)
(0 0 0.00401333)
(0 0 0.00404062)
(0 0 0.00406717)
(0 0 0.00409298)
(0 0 0.00411803)
(0 0 0.00414233)
(0 0 0.00416585)
(0 0 0.0041886)
(0 0 0.00421057)
(0 0 0.00423175)
(0 0 0.00425214)
(0 0 0.00427172)
(0 0 0.0042905)
(0 0 0.00430847)
(0 0 0.00432562)
(0 0 0.00434195)
(0 0 0.00435747)
(0 0 0.00437215)
(0 0 0.00438601)
(0 0 0.00439904)
(0 0 0.00441123)
(0 0 0.00442259)
(0 0 0.00443311)
(0 0 0.0044428)
(0 0 0.00445164)
(0 0 0.00445966)
(0 0 0.00446683)
(0 0 0.00447317)
(0 0 0.00447867)
(0 0 0.00448334)
(0 0 0.00448718)
(0 0 0.00449019)
(0 0 0.00449238)
(0 0 0.00449373)
(0 0 0.00449427)
(0 0 0.00449399)
(0 0 0.0044929)
(0 0 0.004491)
(0 0 0.00448829)
(0 0 0.00448478)
(0 0 0.00448047)
(0 0 0.00447538)
(0 0 0.0044695)
(0 0 0.00446284)
(0 0 0.00445541)
(0 0 0.00444721)
(0 0 0.00443825)
(0 0 0.00442854)
(0 0 0.00441808)
(0 0 0.00440687)
(0 0 0.00439494)
(0 0 0.00438227)
(0 0 0.00436889)
(0 0 0.0043548)
(0 0 0.00434)
(0 0 0.0043245)
(0 0 0.00430832)
(0 0 0.00429145)
(0 0 0.00427391)
(0 0 0.00425571)
(0 0 0.00423685)
(0 0 0.00421734)
(0 0 0.00419719)
(0 0 0.00417641)
(0 0 0.00415501)
(0 0 0.00413299)
(0 0 0.00411036)
(0 0 0.00408714)
(0 0 0.00406332)
(0 0 0.00403893)
(0 0 0.00401396)
(0 0 0.00398843)
(0 0 0.00396234)
(0 0 0.00393571)
(0 0 0.00390854)
(0 0 0.00388084)
(0 0 0.00385262)
(0 0 0.00382389)
(0 0 0.00379465)
(0 0 0.00376492)
(0 0 0.0037347)
(0 0 0.00370401)
(0 0 0.00367284)
(0 0 0.00364122)
(0 0 0.00360914)
(0 0 0.00357662)
(0 0 0.00354366)
(0 0 0.00351027)
(0 0 0.00347647)
(0 0 0.00344225)
(0 0 0.00340764)
(0 0 0.00337263)
(0 0 0.00333723)
(0 0 0.00330145)
(0 0 0.00326531)
(0 0 0.0032288)
(0 0 0.00319194)
(0 0 0.00315473)
(0 0 0.00311719)
(0 0 0.00307931)
(0 0 0.00304111)
(0 0 0.0030026)
(0 0 0.00296377)
(0 0 0.00292465)
(0 0 0.00288524)
(0 0 0.00284554)
(0 0 0.00280556)
(0 0 0.00276531)
(0 0 0.0027248)
(0 0 0.00268403)
(0 0 0.00264301)
(0 0 0.00260174)
(0 0 0.00256024)
(0 0 0.00251851)
(0 0 0.00247656)
(0 0 0.00243439)
(0 0 0.00239201)
(0 0 0.00234943)
(0 0 0.00230665)
(0 0 0.00226367)
(0 0 0.00222051)
(0 0 0.00217718)
(0 0 0.00213366)
(0 0 0.00208998)
(0 0 0.00204614)
(0 0 0.00200214)
(0 0 0.00195799)
(0 0 0.00191369)
(0 0 0.00186925)
(0 0 0.00182467)
(0 0 0.00177996)
(0 0 0.00173513)
(0 0 0.00169017)
(0 0 0.0016451)
(0 0 0.00159991)
(0 0 0.00155462)
(0 0 0.00150922)
(0 0 0.00146373)
(0 0 0.00141813)
(0 0 0.00137245)
(0 0 0.00132668)
(0 0 0.00128083)
(0 0 0.0012349)
(0 0 0.00118889)
(0 0 0.00114281)
(0 0 0.00109666)
(0 0 0.00105045)
(0 0 0.00100417)
(0 0 0.000957838)
(0 0 0.00091145)
(0 0 0.000865009)
(0 0 0.000818519)
(0 0 0.000771984)
(0 0 0.000725406)
(0 0 0.000678787)
(0 0 0.000632132)
(0 0 0.000585442)
(0 0 0.000538721)
(0 0 0.000491971)
(0 0 0.000445195)
(0 0 0.000398395)
(0 0 0.000351574)
(0 0 0.000304734)
(0 0 0.000257879)
(0 0 0.00021101)
(0 0 0.00016413)
(0 0 0.000117242)
(0 0 7.03476e-05)
(0 0 2.34496e-05)
(0 0 4.40724e-05)
(0 0 0.000132215)
(0 0 0.000220349)
(0 0 0.000308471)
(0 0 0.000396575)
(0 0 0.000484656)
(0 0 0.000572708)
(0 0 0.000660726)
(0 0 0.000748706)
(0 0 0.00083664)
(0 0 0.000924524)
(0 0 0.00101235)
(0 0 0.00110012)
(0 0 0.00118781)
(0 0 0.00127544)
(0 0 0.00136298)
(0 0 0.00145043)
(0 0 0.00153779)
(0 0 0.00162505)
(0 0 0.0017122)
(0 0 0.00179923)
(0 0 0.00188614)
(0 0 0.00197292)
(0 0 0.00205955)
(0 0 0.00214604)
(0 0 0.00223237)
(0 0 0.00231853)
(0 0 0.00240451)
(0 0 0.00249031)
(0 0 0.00257591)
(0 0 0.0026613)
(0 0 0.00274648)
(0 0 0.00283143)
(0 0 0.00291613)
(0 0 0.00300058)
(0 0 0.00308477)
(0 0 0.00316868)
(0 0 0.0032523)
(0 0 0.00333562)
(0 0 0.00341862)
(0 0 0.00350129)
(0 0 0.00358361)
(0 0 0.00366557)
(0 0 0.00374716)
(0 0 0.00382835)
(0 0 0.00390914)
(0 0 0.00398951)
(0 0 0.00406943)
(0 0 0.0041489)
(0 0 0.0042279)
(0 0 0.00430641)
(0 0 0.00438441)
(0 0 0.00446188)
(0 0 0.0045388)
(0 0 0.00461517)
(0 0 0.00469095)
(0 0 0.00476613)
(0 0 0.00484069)
(0 0 0.00491461)
(0 0 0.00498787)
(0 0 0.00506045)
(0 0 0.00513233)
(0 0 0.00520349)
(0 0 0.00527391)
(0 0 0.00534357)
(0 0 0.00541245)
(0 0 0.00548053)
(0 0 0.00554779)
(0 0 0.0056142)
(0 0 0.00567976)
(0 0 0.00574442)
(0 0 0.00580819)
(0 0 0.00587103)
(0 0 0.00593293)
(0 0 0.00599387)
(0 0 0.00605382)
(0 0 0.00611277)
(0 0 0.00617069)
(0 0 0.00622758)
(0 0 0.0062834)
(0 0 0.00633815)
(0 0 0.0063918)
(0 0 0.00644433)
(0 0 0.00649573)
(0 0 0.00654599)
(0 0 0.00659507)
(0 0 0.00664298)
(0 0 0.00668968)
(0 0 0.00673518)
(0 0 0.00677944)
(0 0 0.00682247)
(0 0 0.00686423)
(0 0 0.00690473)
(0 0 0.00694395)
(0 0 0.00698187)
(0 0 0.0070185)
(0 0 0.0070538)
(0 0 0.00708778)
(0 0 0.00712043)
(0 0 0.00715173)
(0 0 0.00718168)
(0 0 0.00721028)
(0 0 0.0072375)
(0 0 0.00726336)
(0 0 0.00728784)
(0 0 0.00731094)
(0 0 0.00733265)
(0 0 0.00735297)
(0 0 0.00737191)
(0 0 0.00738945)
(0 0 0.00740559)
(0 0 0.00742034)
(0 0 0.00743369)
(0 0 0.00744565)
(0 0 0.00745621)
(0 0 0.00746538)
(0 0 0.00747316)
(0 0 0.00747956)
(0 0 0.00748457)
(0 0 0.00748821)
(0 0 0.00749047)
(0 0 0.00749136)
(0 0 0.00749089)
(0 0 0.00748906)
(0 0 0.00748589)
(0 0 0.00748137)
(0 0 0.00747551)
(0 0 0.00746834)
(0 0 0.00745984)
(0 0 0.00745003)
(0 0 0.00743893)
(0 0 0.00742654)
(0 0 0.00741287)
(0 0 0.00739793)
(0 0 0.00738173)
(0 0 0.00736428)
(0 0 0.0073456)
(0 0 0.0073257)
(0 0 0.00730459)
(0 0 0.00728228)
(0 0 0.00725878)
(0 0 0.0072341)
(0 0 0.00720827)
(0 0 0.00718128)
(0 0 0.00715317)
(0 0 0.00712393)
(0 0 0.00709358)
(0 0 0.00706213)
(0 0 0.00702961)
(0 0 0.00699602)
(0 0 0.00696138)
(0 0 0.00692569)
(0 0 0.00688898)
(0 0 0.00685126)
(0 0 0.00681255)
(0 0 0.00677285)
(0 0 0.00673218)
(0 0 0.00669056)
(0 0 0.006648)
(0 0 0.00660451)
(0 0 0.00656012)
(0 0 0.00651482)
(0 0 0.00646865)
(0 0 0.0064216)
(0 0 0.00637371)
(0 0 0.00632497)
(0 0 0.00627541)
(0 0 0.00622504)
(0 0 0.00617387)
(0 0 0.00612192)
(0 0 0.0060692)
(0 0 0.00601572)
(0 0 0.00596151)
(0 0 0.00590657)
(0 0 0.00585092)
(0 0 0.00579457)
(0 0 0.00573754)
(0 0 0.00567983)
(0 0 0.00562147)
(0 0 0.00556247)
(0 0 0.00550283)
(0 0 0.00544258)
(0 0 0.00538173)
(0 0 0.00532028)
(0 0 0.00525826)
(0 0 0.00519568)
(0 0 0.00513254)
(0 0 0.00506887)
(0 0 0.00500467)
(0 0 0.00493996)
(0 0 0.00487475)
(0 0 0.00480905)
(0 0 0.00474287)
(0 0 0.00467623)
(0 0 0.00460914)
(0 0 0.00454161)
(0 0 0.00447365)
(0 0 0.00440528)
(0 0 0.0043365)
(0 0 0.00426733)
(0 0 0.00419777)
(0 0 0.00412784)
(0 0 0.00405755)
(0 0 0.00398691)
(0 0 0.00391593)
(0 0 0.00384462)
(0 0 0.00377299)
(0 0 0.00370106)
(0 0 0.00362882)
(0 0 0.00355629)
(0 0 0.00348349)
(0 0 0.00341041)
(0 0 0.00333707)
(0 0 0.00326347)
(0 0 0.00318964)
(0 0 0.00311556)
(0 0 0.00304126)
(0 0 0.00296674)
(0 0 0.00289202)
(0 0 0.00281708)
(0 0 0.00274196)
(0 0 0.00266664)
(0 0 0.00259115)
(0 0 0.00251548)
(0 0 0.00243965)
(0 0 0.00236366)
(0 0 0.00228752)
(0 0 0.00221123)
(0 0 0.0021348)
(0 0 0.00205825)
(0 0 0.00198156)
(0 0 0.00190476)
(0 0 0.00182784)
(0 0 0.00175081)
(0 0 0.00167368)
(0 0 0.00159646)
(0 0 0.00151914)
(0 0 0.00144174)
(0 0 0.00136425)
(0 0 0.00128669)
(0 0 0.00120905)
(0 0 0.00113135)
(0 0 0.00105359)
(0 0 0.000975773)
(0 0 0.000897901)
(0 0 0.000819981)
(0 0 0.000742018)
(0 0 0.000664015)
(0 0 0.000585977)
(0 0 0.000507908)
(0 0 0.000429813)
(0 0 0.000351696)
(0 0 0.00027356)
(0 0 0.00019541)
(0 0 0.00011725)
(0 0 3.9084e-05)
(0 0 6.1705e-05)
(0 0 0.000185111)
(0 0 0.000308507)
(0 0 0.000431885)
(0 0 0.000555238)
(0 0 0.000678558)
(0 0 0.000801839)
(0 0 0.000925072)
(0 0 0.00104825)
(0 0 0.00117137)
(0 0 0.00129441)
(0 0 0.00141738)
(0 0 0.00154026)
(0 0 0.00166305)
(0 0 0.00178573)
(0 0 0.00190829)
(0 0 0.00203074)
(0 0 0.00215305)
(0 0 0.00227522)
(0 0 0.00239724)
(0 0 0.0025191)
(0 0 0.00264078)
(0 0 0.00276228)
(0 0 0.00288358)
(0 0 0.00300468)
(0 0 0.00312555)
(0 0 0.00324619)
(0 0 0.00336658)
(0 0 0.00348671)
(0 0 0.00360657)
(0 0 0.00372613)
(0 0 0.00384539)
(0 0 0.00396433)
(0 0 0.00408294)
(0 0 0.00420119)
(0 0 0.00431907)
(0 0 0.00443656)
(0 0 0.00455365)
(0 0 0.00467031)
(0 0 0.00478653)
(0 0 0.00490229)
(0 0 0.00501756)
(0 0 0.00513233)
(0 0 0.00524657)
(0 0 0.00536026)
(0 0 0.00547339)
(0 0 0.00558593)
(0 0 0.00569785)
(0 0 0.00580913)
(0 0 0.00591975)
(0 0 0.00602968)
(0 0 0.00613891)
(0 0 0.00624739)
(0 0 0.00635511)
(0 0 0.00646205)
(0 0 0.00656817)
(0 0 0.00667345)
(0 0 0.00677786)
(0 0 0.00688138)
(0 0 0.00698397)
(0 0 0.00708561)
(0 0 0.00718627)
(0 0 0.00728592)
(0 0 0.00738454)
(0 0 0.00748209)
(0 0 0.00757855)
(0 0 0.00767389)
(0 0 0.00776808)
(0 0 0.00786109)
(0 0 0.00795289)
(0 0 0.00804346)
(0 0 0.00813276)
(0 0 0.00822077)
(0 0 0.00830746)
(0 0 0.00839279)
(0 0 0.00847675)
(0 0 0.00855931)
(0 0 0.00864043)
(0 0 0.0087201)
(0 0 0.00879828)
(0 0 0.00887495)
(0 0 0.00895008)
(0 0 0.00902365)
(0 0 0.00909564)
(0 0 0.00916601)
(0 0 0.00923476)
(0 0 0.00930185)
(0 0 0.00936726)
(0 0 0.00943097)
(0 0 0.00949296)
(0 0 0.00955321)
(0 0 0.0096117)
(0 0 0.00966842)
(0 0 0.00972334)
(0 0 0.00977645)
(0 0 0.00982774)
(0 0 0.00987718)
(0 0 0.00992476)
(0 0 0.00997048)
(0 0 0.0100143)
(0 0 0.0100563)
(0 0 0.0100963)
(0 0 0.0101344)
(0 0 0.0101706)
(0 0 0.0102049)
(0 0 0.0102373)
(0 0 0.0102677)
(0 0 0.0102961)
(0 0 0.0103226)
(0 0 0.0103472)
(0 0 0.0103698)
(0 0 0.0103904)
(0 0 0.0104091)
(0 0 0.0104259)
(0 0 0.0104406)
(0 0 0.0104535)
(0 0 0.0104644)
(0 0 0.0104733)
(0 0 0.0104803)
(0 0 0.0104854)
(0 0 0.0104886)
(0 0 0.0104898)
(0 0 0.0104891)
(0 0 0.0104866)
(0 0 0.0104821)
(0 0 0.0104758)
(0 0 0.0104676)
(0 0 0.0104575)
(0 0 0.0104456)
(0 0 0.0104319)
(0 0 0.0104163)
(0 0 0.0103989)
(0 0 0.0103798)
(0 0 0.0103589)
(0 0 0.0103362)
(0 0 0.0103117)
(0 0 0.0102856)
(0 0 0.0102577)
(0 0 0.0102281)
(0 0 0.0101968)
(0 0 0.0101639)
(0 0 0.0101294)
(0 0 0.0100932)
(0 0 0.0100554)
(0 0 0.010016)
(0 0 0.00997505)
(0 0 0.00993254)
(0 0 0.0098885)
(0 0 0.00984295)
(0 0 0.0097959)
(0 0 0.00974738)
(0 0 0.00969741)
(0 0 0.00964599)
(0 0 0.00959317)
(0 0 0.00953894)
(0 0 0.00948334)
(0 0 0.00942639)
(0 0 0.0093681)
(0 0 0.0093085)
(0 0 0.00924759)
(0 0 0.00918542)
(0 0 0.00912199)
(0 0 0.00905732)
(0 0 0.00899144)
(0 0 0.00892436)
(0 0 0.00885611)
(0 0 0.00878671)
(0 0 0.00871616)
(0 0 0.00864451)
(0 0 0.00857176)
(0 0 0.00849793)
(0 0 0.00842305)
(0 0 0.00834713)
(0 0 0.0082702)
(0 0 0.00819227)
(0 0 0.00811336)
(0 0 0.00803349)
(0 0 0.00795269)
(0 0 0.00787096)
(0 0 0.00778834)
(0 0 0.00770483)
(0 0 0.00762046)
(0 0 0.00753524)
(0 0 0.0074492)
(0 0 0.00736236)
(0 0 0.00727472)
(0 0 0.00718631)
(0 0 0.00709715)
(0 0 0.00700726)
(0 0 0.00691664)
(0 0 0.00682533)
(0 0 0.00673333)
(0 0 0.00664067)
(0 0 0.00654736)
(0 0 0.00645342)
(0 0 0.00635886)
(0 0 0.0062637)
(0 0 0.00616796)
(0 0 0.00607165)
(0 0 0.00597479)
(0 0 0.0058774)
(0 0 0.00577948)
(0 0 0.00568106)
(0 0 0.00558215)
(0 0 0.00548277)
(0 0 0.00538292)
(0 0 0.00528263)
(0 0 0.0051819)
(0 0 0.00508075)
(0 0 0.0049792)
(0 0 0.00487726)
(0 0 0.00477494)
(0 0 0.00467225)
(0 0 0.0045692)
(0 0 0.00446582)
(0 0 0.00436211)
(0 0 0.00425807)
(0 0 0.00415374)
(0 0 0.0040491)
(0 0 0.00394419)
(0 0 0.003839)
(0 0 0.00373355)
(0 0 0.00362785)
(0 0 0.00352191)
(0 0 0.00341573)
(0 0 0.00330934)
(0 0 0.00320273)
(0 0 0.00309592)
(0 0 0.00298891)
(0 0 0.00288172)
(0 0 0.00277436)
(0 0 0.00266682)
(0 0 0.00255913)
(0 0 0.00245128)
(0 0 0.00234329)
(0 0 0.00223517)
(0 0 0.00212692)
(0 0 0.00201854)
(0 0 0.00191006)
(0 0 0.00180146)
(0 0 0.00169277)
(0 0 0.00158398)
(0 0 0.00147511)
(0 0 0.00136616)
(0 0 0.00125713)
(0 0 0.00114803)
(0 0 0.00103888)
(0 0 0.00092967)
(0 0 0.000820411)
(0 0 0.000711109)
(0 0 0.00060177)
(0 0 0.0004924)
(0 0 0.000383004)
(0 0 0.000273588)
(0 0 0.000164159)
(0 0 5.47205e-05)
(0 0 7.93411e-05)
(0 0 0.000238019)
(0 0 0.000396683)
(0 0 0.000555324)
(0 0 0.000713933)
(0 0 0.0008725)
(0 0 0.00103102)
(0 0 0.00118947)
(0 0 0.00134786)
(0 0 0.00150616)
(0 0 0.00166438)
(0 0 0.0018225)
(0 0 0.0019805)
(0 0 0.00213838)
(0 0 0.00229613)
(0 0 0.00245373)
(0 0 0.00261118)
(0 0 0.00276845)
(0 0 0.00292555)
(0 0 0.00308245)
(0 0 0.00323914)
(0 0 0.00339561)
(0 0 0.00355184)
(0 0 0.00370782)
(0 0 0.00386354)
(0 0 0.00401897)
(0 0 0.0041741)
(0 0 0.00432891)
(0 0 0.00448339)
(0 0 0.00463751)
(0 0 0.00479127)
(0 0 0.00494463)
(0 0 0.00509758)
(0 0 0.0052501)
(0 0 0.00540217)
(0 0 0.00555376)
(0 0 0.00570485)
(0 0 0.00585542)
(0 0 0.00600545)
(0 0 0.00615491)
(0 0 0.00630377)
(0 0 0.00645201)
(0 0 0.00659961)
(0 0 0.00674653)
(0 0 0.00689275)
(0 0 0.00703823)
(0 0 0.00718296)
(0 0 0.0073269)
(0 0 0.00747002)
(0 0 0.00761229)
(0 0 0.00775367)
(0 0 0.00789414)
(0 0 0.00803367)
(0 0 0.00817222)
(0 0 0.00830975)
(0 0 0.00844624)
(0 0 0.00858164)
(0 0 0.00871593)
(0 0 0.00884907)
(0 0 0.00898102)
(0 0 0.00911175)
(0 0 0.00924122)
(0 0 0.00936939)
(0 0 0.00949624)
(0 0 0.00962171)
(0 0 0.00974578)
(0 0 0.00986841)
(0 0 0.00998956)
(0 0 0.0101092)
(0 0 0.0102273)
(0 0 0.0103438)
(0 0 0.0104586)
(0 0 0.0105718)
(0 0 0.0106833)
(0 0 0.0107931)
(0 0 0.0109011)
(0 0 0.0110073)
(0 0 0.0111116)
(0 0 0.0112141)
(0 0 0.0113147)
(0 0 0.0114133)
(0 0 0.0115099)
(0 0 0.0116046)
(0 0 0.0116972)
(0 0 0.0117877)
(0 0 0.0118761)
(0 0 0.0119624)
(0 0 0.0120465)
(0 0 0.0121285)
(0 0 0.0122082)
(0 0 0.0122857)
(0 0 0.012361)
(0 0 0.0124339)
(0 0 0.0125045)
(0 0 0.0125729)
(0 0 0.0126388)
(0 0 0.0127024)
(0 0 0.0127636)
(0 0 0.0128224)
(0 0 0.0128788)
(0 0 0.0129327)
(0 0 0.0129842)
(0 0 0.0130333)
(0 0 0.0130798)
(0 0 0.0131239)
(0 0 0.0131655)
(0 0 0.0132046)
(0 0 0.0132412)
(0 0 0.0132753)
(0 0 0.0133069)
(0 0 0.0133359)
(0 0 0.0133625)
(0 0 0.0133865)
(0 0 0.013408)
(0 0 0.013427)
(0 0 0.0134435)
(0 0 0.0134575)
(0 0 0.013469)
(0 0 0.013478)
(0 0 0.0134845)
(0 0 0.0134886)
(0 0 0.0134902)
(0 0 0.0134893)
(0 0 0.013486)
(0 0 0.0134802)
(0 0 0.0134721)
(0 0 0.0134615)
(0 0 0.0134485)
(0 0 0.0134332)
(0 0 0.0134155)
(0 0 0.0133955)
(0 0 0.0133731)
(0 0 0.0133485)
(0 0 0.0133216)
(0 0 0.0132923)
(0 0 0.0132609)
(0 0 0.0132272)
(0 0 0.0131914)
(0 0 0.0131533)
(0 0 0.0131131)
(0 0 0.0130707)
(0 0 0.0130263)
(0 0 0.0129797)
(0 0 0.0129311)
(0 0 0.0128804)
(0 0 0.0128277)
(0 0 0.012773)
(0 0 0.0127164)
(0 0 0.0126578)
(0 0 0.0125973)
(0 0 0.0125348)
(0 0 0.0124706)
(0 0 0.0124044)
(0 0 0.0123365)
(0 0 0.0122667)
(0 0 0.0121952)
(0 0 0.0121219)
(0 0 0.012047)
(0 0 0.0119703)
(0 0 0.011892)
(0 0 0.011812)
(0 0 0.0117304)
(0 0 0.0116472)
(0 0 0.0115625)
(0 0 0.0114762)
(0 0 0.0113884)
(0 0 0.0112991)
(0 0 0.0112084)
(0 0 0.0111162)
(0 0 0.0110227)
(0 0 0.0109277)
(0 0 0.0108314)
(0 0 0.0107338)
(0 0 0.0106348)
(0 0 0.0105346)
(0 0 0.0104331)
(0 0 0.0103304)
(0 0 0.0102265)
(0 0 0.0101214)
(0 0 0.0100151)
(0 0 0.00990769)
(0 0 0.00979918)
(0 0 0.00968959)
(0 0 0.00957893)
(0 0 0.00946724)
(0 0 0.00935453)
(0 0 0.00924084)
(0 0 0.00912617)
(0 0 0.00901056)
(0 0 0.00889403)
(0 0 0.00877659)
(0 0 0.00865828)
(0 0 0.00853912)
(0 0 0.00841912)
(0 0 0.0082983)
(0 0 0.0081767)
(0 0 0.00805433)
(0 0 0.0079312)
(0 0 0.00780735)
(0 0 0.00768279)
(0 0 0.00755754)
(0 0 0.00743163)
(0 0 0.00730506)
(0 0 0.00717787)
(0 0 0.00705006)
(0 0 0.00692166)
(0 0 0.00679269)
(0 0 0.00666316)
(0 0 0.00653309)
(0 0 0.0064025)
(0 0 0.00627141)
(0 0 0.00613983)
(0 0 0.00600778)
(0 0 0.00587528)
(0 0 0.00574233)
(0 0 0.00560897)
(0 0 0.00547519)
(0 0 0.00534102)
(0 0 0.00520648)
(0 0 0.00507157)
(0 0 0.00493631)
(0 0 0.00480071)
(0 0 0.00466479)
(0 0 0.00452856)
(0 0 0.00439203)
(0 0 0.00425522)
(0 0 0.00411814)
(0 0 0.0039808)
(0 0 0.0038432)
(0 0 0.00370537)
(0 0 0.00356732)
(0 0 0.00342904)
(0 0 0.00329057)
(0 0 0.0031519)
(0 0 0.00301304)
(0 0 0.00287401)
(0 0 0.00273482)
(0 0 0.00259547)
(0 0 0.00245597)
(0 0 0.00231634)
(0 0 0.00217658)
(0 0 0.0020367)
(0 0 0.00189671)
(0 0 0.00175661)
(0 0 0.00161642)
(0 0 0.00147615)
(0 0 0.0013358)
(0 0 0.00119537)
(0 0 0.00105489)
(0 0 0.000914347)
(0 0 0.000773758)
(0 0 0.000633129)
(0 0 0.000492468)
(0 0 0.000351781)
(0 0 0.000211076)
(0 0 7.03597e-05)
(0 0 9.69818e-05)
(0 0 0.00029094)
(0 0 0.000484881)
(0 0 0.000678795)
(0 0 0.000872669)
(0 0 0.00106649)
(0 0 0.00126026)
(0 0 0.00145394)
(0 0 0.00164755)
(0 0 0.00184105)
(0 0 0.00203445)
(0 0 0.00222772)
(0 0 0.00242086)
(0 0 0.00261385)
(0 0 0.00280668)
(0 0 0.00299933)
(0 0 0.00319179)
(0 0 0.00338404)
(0 0 0.00357607)
(0 0 0.00376787)
(0 0 0.00395941)
(0 0 0.00415068)
(0 0 0.00434166)
(0 0 0.00453233)
(0 0 0.00472268)
(0 0 0.00491268)
(0 0 0.00510232)
(0 0 0.00529157)
(0 0 0.00548042)
(0 0 0.00566883)
(0 0 0.00585679)
(0 0 0.00604428)
(0 0 0.00623126)
(0 0 0.00641772)
(0 0 0.00660362)
(0 0 0.00678894)
(0 0 0.00697366)
(0 0 0.00715774)
(0 0 0.00734116)
(0 0 0.00752388)
(0 0 0.00770588)
(0 0 0.00788712)
(0 0 0.00806756)
(0 0 0.00824719)
(0 0 0.00842596)
(0 0 0.00860384)
(0 0 0.00878079)
(0 0 0.00895677)
(0 0 0.00913176)
(0 0 0.00930571)
(0 0 0.00947858)
(0 0 0.00965033)
(0 0 0.00982093)
(0 0 0.00999033)
(0 0 0.0101585)
(0 0 0.0103254)
(0 0 0.010491)
(0 0 0.0106552)
(0 0 0.0108179)
(0 0 0.0109793)
(0 0 0.0111391)
(0 0 0.0112975)
(0 0 0.0114542)
(0 0 0.0116093)
(0 0 0.0117627)
(0 0 0.0119145)
(0 0 0.0120644)
(0 0 0.0122126)
(0 0 0.0123588)
(0 0 0.0125032)
(0 0 0.0126457)
(0 0 0.0127862)
(0 0 0.0129246)
(0 0 0.0130609)
(0 0 0.0131952)
(0 0 0.0133272)
(0 0 0.0134571)
(0 0 0.0135847)
(0 0 0.01371)
(0 0 0.013833)
(0 0 0.0139536)
(0 0 0.0140718)
(0 0 0.0141875)
(0 0 0.0143007)
(0 0 0.0144114)
(0 0 0.0145196)
(0 0 0.0146251)
(0 0 0.014728)
(0 0 0.0148282)
(0 0 0.0149257)
(0 0 0.0150205)
(0 0 0.0151125)
(0 0 0.0152017)
(0 0 0.0152881)
(0 0 0.0153716)
(0 0 0.0154523)
(0 0 0.01553)
(0 0 0.0156049)
(0 0 0.0156768)
(0 0 0.0157457)
(0 0 0.0158117)
(0 0 0.0158746)
(0 0 0.0159346)
(0 0 0.0159915)
(0 0 0.0160454)
(0 0 0.0160963)
(0 0 0.0161441)
(0 0 0.0161888)
(0 0 0.0162305)
(0 0 0.0162691)
(0 0 0.0163046)
(0 0 0.016337)
(0 0 0.0163664)
(0 0 0.0163927)
(0 0 0.0164159)
(0 0 0.0164361)
(0 0 0.0164532)
(0 0 0.0164672)
(0 0 0.0164782)
(0 0 0.0164862)
(0 0 0.0164911)
(0 0 0.016493)
(0 0 0.0164919)
(0 0 0.0164878)
(0 0 0.0164808)
(0 0 0.0164708)
(0 0 0.0164578)
(0 0 0.0164419)
(0 0 0.0164232)
(0 0 0.0164015)
(0 0 0.016377)
(0 0 0.0163496)
(0 0 0.0163195)
(0 0 0.0162865)
(0 0 0.0162508)
(0 0 0.0162123)
(0 0 0.0161711)
(0 0 0.0161272)
(0 0 0.0160807)
(0 0 0.0160315)
(0 0 0.0159796)
(0 0 0.0159252)
(0 0 0.0158683)
(0 0 0.0158088)
(0 0 0.0157468)
(0 0 0.0156824)
(0 0 0.0156155)
(0 0 0.0155462)
(0 0 0.0154745)
(0 0 0.0154005)
(0 0 0.0153242)
(0 0 0.0152455)
(0 0 0.0151647)
(0 0 0.0150816)
(0 0 0.0149963)
(0 0 0.0149088)
(0 0 0.0148192)
(0 0 0.0147275)
(0 0 0.0146337)
(0 0 0.0145379)
(0 0 0.0144401)
(0 0 0.0143404)
(0 0 0.0142387)
(0 0 0.014135)
(0 0 0.0140295)
(0 0 0.0139222)
(0 0 0.013813)
(0 0 0.0137021)
(0 0 0.0135894)
(0 0 0.013475)
(0 0 0.0133589)
(0 0 0.0132411)
(0 0 0.0131217)
(0 0 0.0130007)
(0 0 0.0128782)
(0 0 0.0127541)
(0 0 0.0126285)
(0 0 0.0125014)
(0 0 0.0123729)
(0 0 0.012243)
(0 0 0.0121117)
(0 0 0.011979)
(0 0 0.011845)
(0 0 0.0117097)
(0 0 0.0115731)
(0 0 0.0114353)
(0 0 0.0112963)
(0 0 0.0111561)
(0 0 0.0110148)
(0 0 0.0108723)
(0 0 0.0107287)
(0 0 0.0105841)
(0 0 0.0104384)
(0 0 0.0102917)
(0 0 0.010144)
(0 0 0.00999531)
(0 0 0.0098457)
(0 0 0.00969518)
(0 0 0.00954376)
(0 0 0.00939148)
(0 0 0.00923836)
(0 0 0.00908442)
(0 0 0.00892969)
(0 0 0.00877419)
(0 0 0.00861795)
(0 0 0.00846098)
(0 0 0.00830331)
(0 0 0.00814496)
(0 0 0.00798595)
(0 0 0.00782631)
(0 0 0.00766605)
(0 0 0.0075052)
(0 0 0.00734377)
(0 0 0.00718179)
(0 0 0.00701927)
(0 0 0.00685623)
(0 0 0.0066927)
(0 0 0.00652869)
(0 0 0.00636421)
(0 0 0.0061993)
(0 0 0.00603395)
(0 0 0.00586819)
(0 0 0.00570204)
(0 0 0.00553551)
(0 0 0.00536862)
(0 0 0.00520138)
(0 0 0.00503381)
(0 0 0.00486592)
(0 0 0.00469773)
(0 0 0.00452925)
(0 0 0.00436049)
(0 0 0.00419147)
(0 0 0.0040222)
(0 0 0.00385269)
(0 0 0.00368296)
(0 0 0.00351302)
(0 0 0.00334287)
(0 0 0.00317253)
(0 0 0.00300202)
(0 0 0.00283134)
(0 0 0.0026605)
(0 0 0.00248952)
(0 0 0.0023184)
(0 0 0.00214716)
(0 0 0.0019758)
(0 0 0.00180434)
(0 0 0.00163278)
(0 0 0.00146114)
(0 0 0.00128942)
(0 0 0.00111763)
(0 0 0.000945786)
(0 0 0.000773891)
(0 0 0.000601957)
(0 0 0.000429991)
(0 0 0.000258003)
(0 0 8.60026e-05)
(0 0 0.000114628)
(0 0 0.000343878)
(0 0 0.000573108)
(0 0 0.000802305)
(0 0 0.00103146)
(0 0 0.00126055)
(0 0 0.00148957)
(0 0 0.0017185)
(0 0 0.00194733)
(0 0 0.00217605)
(0 0 0.00240464)
(0 0 0.00263309)
(0 0 0.00286137)
(0 0 0.00308948)
(0 0 0.0033174)
(0 0 0.00354511)
(0 0 0.0037726)
(0 0 0.00399985)
(0 0 0.00422683)
(0 0 0.00445354)
(0 0 0.00467994)
(0 0 0.00490603)
(0 0 0.00513178)
(0 0 0.00535717)
(0 0 0.00558217)
(0 0 0.00580677)
(0 0 0.00603094)
(0 0 0.00625465)
(0 0 0.00647788)
(0 0 0.00670061)
(0 0 0.0069228)
(0 0 0.00714443)
(0 0 0.00736547)
(0 0 0.00758589)
(0 0 0.00780565)
(0 0 0.00802474)
(0 0 0.00824311)
(0 0 0.00846073)
(0 0 0.00867756)
(0 0 0.00889358)
(0 0 0.00910874)
(0 0 0.00932301)
(0 0 0.00953635)
(0 0 0.00974871)
(0 0 0.00996007)
(0 0 0.0101704)
(0 0 0.0103796)
(0 0 0.0105876)
(0 0 0.0107945)
(0 0 0.0110002)
(0 0 0.0112046)
(0 0 0.0114077)
(0 0 0.0116094)
(0 0 0.0118097)
(0 0 0.0120085)
(0 0 0.0122059)
(0 0 0.0124016)
(0 0 0.0125958)
(0 0 0.0127883)
(0 0 0.0129791)
(0 0 0.0131681)
(0 0 0.0133553)
(0 0 0.0135406)
(0 0 0.013724)
(0 0 0.0139055)
(0 0 0.0140849)
(0 0 0.0142622)
(0 0 0.0144374)
(0 0 0.0146104)
(0 0 0.0147812)
(0 0 0.0149496)
(0 0 0.0151157)
(0 0 0.0152794)
(0 0 0.0154407)
(0 0 0.0155994)
(0 0 0.0157556)
(0 0 0.0159092)
(0 0 0.0160601)
(0 0 0.0162083)
(0 0 0.0163537)
(0 0 0.0164963)
(0 0 0.0166361)
(0 0 0.016773)
(0 0 0.0169069)
(0 0 0.0170378)
(0 0 0.0171657)
(0 0 0.0172905)
(0 0 0.0174121)
(0 0 0.0175306)
(0 0 0.0176459)
(0 0 0.017758)
(0 0 0.0178668)
(0 0 0.0179723)
(0 0 0.0180745)
(0 0 0.0181733)
(0 0 0.0182686)
(0 0 0.0183606)
(0 0 0.0184491)
(0 0 0.0185341)
(0 0 0.0186156)
(0 0 0.0186936)
(0 0 0.018768)
(0 0 0.0188389)
(0 0 0.0189062)
(0 0 0.01897)
(0 0 0.0190301)
(0 0 0.0190866)
(0 0 0.0191395)
(0 0 0.0191887)
(0 0 0.0192343)
(0 0 0.0192763)
(0 0 0.0193147)
(0 0 0.0193494)
(0 0 0.0193805)
(0 0 0.0194079)
(0 0 0.0194317)
(0 0 0.0194519)
(0 0 0.0194685)
(0 0 0.0194814)
(0 0 0.0194908)
(0 0 0.0194966)
(0 0 0.0194988)
(0 0 0.0194975)
(0 0 0.0194926)
(0 0 0.0194843)
(0 0 0.0194724)
(0 0 0.019457)
(0 0 0.0194382)
(0 0 0.019416)
(0 0 0.0193904)
(0 0 0.0193613)
(0 0 0.019329)
(0 0 0.0192933)
(0 0 0.0192542)
(0 0 0.019212)
(0 0 0.0191664)
(0 0 0.0191177)
(0 0 0.0190657)
(0 0 0.0190106)
(0 0 0.0189524)
(0 0 0.0188911)
(0 0 0.0188268)
(0 0 0.0187594)
(0 0 0.0186891)
(0 0 0.0186157)
(0 0 0.0185395)
(0 0 0.0184604)
(0 0 0.0183784)
(0 0 0.0182936)
(0 0 0.0182061)
(0 0 0.0181158)
(0 0 0.0180228)
(0 0 0.0179271)
(0 0 0.0178288)
(0 0 0.017728)
(0 0 0.0176245)
(0 0 0.0175186)
(0 0 0.0174101)
(0 0 0.0172992)
(0 0 0.0171859)
(0 0 0.0170703)
(0 0 0.0169523)
(0 0 0.016832)
(0 0 0.0167095)
(0 0 0.0165847)
(0 0 0.0164578)
(0 0 0.0163287)
(0 0 0.0161975)
(0 0 0.0160643)
(0 0 0.015929)
(0 0 0.0157917)
(0 0 0.0156524)
(0 0 0.0155112)
(0 0 0.0153682)
(0 0 0.0152233)
(0 0 0.0150766)
(0 0 0.0149281)
(0 0 0.0147778)
(0 0 0.0146259)
(0 0 0.0144722)
(0 0 0.014317)
(0 0 0.0141601)
(0 0 0.0140017)
(0 0 0.0138417)
(0 0 0.0136803)
(0 0 0.0135174)
(0 0 0.013353)
(0 0 0.0131872)
(0 0 0.0130201)
(0 0 0.0128517)
(0 0 0.0126819)
(0 0 0.0125109)
(0 0 0.0123387)
(0 0 0.0121652)
(0 0 0.0119906)
(0 0 0.0118149)
(0 0 0.011638)
(0 0 0.01146)
(0 0 0.011281)
(0 0 0.011101)
(0 0 0.01092)
(0 0 0.010738)