/*--------------------------------*- C++ -*----------------------------------*\
| =========                 |                                                 |
| \\      /  F ield         | OpenFOAM: The Open Source CFD Toolbox           |
|  \\    /   O peration     | Version:  v2012                                 |
|   \\  /    A nd           | Website:  www.openfoam.com                      |
|    \\/     M anipulation  |                                                 |
\*---------------------------------------------------------------------------*/
FoamFile
{
    version     2.0;
    format      ascii;
    class       surfaceScalarField;
    location    "15.7";
    object      phi;
}
// * * * * * * * * * * * * * * * * * * * * * * * * * * * * * * * * * * * * * //

dimensions      [0 3 -1 0 0 0 0];
oriented        oriented;


internalField   nonuniform List<scalar> 
130560
(
3.37211e-06
-3.37211e-06
6.74441e-06
-3.37231e-06
1.01171e-05
-3.37269e-06
1.34904e-05
-3.37327e-06
1.68644e-05
-3.37403e-06
2.02394e-05
-3.37499e-06
2.36155e-05
-3.37612e-06
2.6993e-05
-3.37745e-06
3.03719e-05
-3.37895e-06
3.37525e-05
-3.38062e-06
3.7135e-05
-3.38247e-06
4.05195e-05
-3.38449e-06
4.39062e-05
-3.38667e-06
4.72952e-05
-3.389e-06
5.06866e-05
-3.39148e-06
5.40807e-05
-3.39411e-06
5.74776e-05
-3.39687e-06
6.08774e-05
-3.39976e-06
6.42801e-05
-3.40277e-06
6.7686e-05
-3.40589e-06
7.10951e-05
-3.40911e-06
7.45076e-05
-3.41242e-06
7.79234e-05
-3.41582e-06
8.13427e-05
-3.41928e-06
8.47655e-05
-3.4228e-06
8.81918e-05
-3.42636e-06
9.16218e-05
-3.42996e-06
9.50553e-05
-3.43357e-06
9.84925e-05
-3.43719e-06
0.000101933
-3.44079e-06
0.000105378
-3.44437e-06
0.000108826
-3.44791e-06
0.000112277
-3.45138e-06
0.000115732
-3.45478e-06
0.00011919
-3.45807e-06
0.000122651
-3.46126e-06
0.000126115
-3.4643e-06
0.000129583
-3.46719e-06
0.000133052
-3.4699e-06
0.000136525
-3.4724e-06
0.00014
-3.47469e-06
0.000143476
-3.47672e-06
0.000146955
-3.47848e-06
0.000150435
-3.47995e-06
0.000153916
-3.48109e-06
0.000157398
-3.48188e-06
0.00016088
-3.48229e-06
0.000164362
-3.4823e-06
0.000167844
-3.48187e-06
0.000171325
-3.48097e-06
0.000174805
-3.47958e-06
0.000178282
-3.47766e-06
0.000181758
-3.47519e-06
0.00018523
-3.47212e-06
0.000188698
-3.46843e-06
0.000192162
-3.46408e-06
0.000195621
-3.45904e-06
0.000199074
-3.45327e-06
0.000202521
-3.44675e-06
0.000205961
-3.43943e-06
0.000209392
-3.43127e-06
0.000212814
-3.42225e-06
0.000216227
-3.41232e-06
0.000219628
-3.40146e-06
0.000223018
-3.38961e-06
0.000226394
-3.37676e-06
0.000229757
-3.36285e-06
0.000233105
-3.34786e-06
0.000236437
-3.33175e-06
0.000239751
-3.31447e-06
0.000243047
-3.29601e-06
0.000246324
-3.27632e-06
0.000249579
-3.25536e-06
0.000252812
-3.23311e-06
0.000256022
-3.20953e-06
0.000259206
-3.18459e-06
0.000262364
-3.15826e-06
0.000265495
-3.13051e-06
0.000268596
-3.10131e-06
0.000271667
-3.07063e-06
0.000274705
-3.03846e-06
0.00027771
-3.00475e-06
0.00028068
-2.9695e-06
0.000283612
-2.93268e-06
0.000286507
-2.89427e-06
0.000289361
-2.85426e-06
0.000292173
-2.81264e-06
0.000294943
-2.76938e-06
0.000297667
-2.72449e-06
0.000300345
-2.67795e-06
0.000302975
-2.62976e-06
0.000305555
-2.57993e-06
0.000308083
-2.52844e-06
0.000310559
-2.4753e-06
0.000312979
-2.42053e-06
0.000315343
-2.36413e-06
0.00031765
-2.30611e-06
0.000319896
-2.24649e-06
0.000322081
-2.18529e-06
0.000324204
-2.12254e-06
0.000326262
-2.05825e-06
0.000328255
-1.99246e-06
0.00033018
-1.9252e-06
0.000332036
-1.8565e-06
0.000333823
-1.7864e-06
0.000335538
-1.71495e-06
0.00033718
-1.64218e-06
0.000338748
-1.56815e-06
0.000340241
-1.4929e-06
0.000341657
-1.4165e-06
0.000342996
-1.33899e-06
0.000344257
-1.26043e-06
0.000345438
-1.18088e-06
0.000346538
-1.10041e-06
0.000347557
-1.01909e-06
0.000348494
-9.36971e-07
0.000349348
-8.54134e-07
0.000350119
-7.70647e-07
0.000350805
-6.86583e-07
0.000351407
-6.02016e-07
0.000351924
-5.1702e-07
0.000352356
-4.31671e-07
0.000352702
-3.46047e-07
0.000352962
-2.60223e-07
0.000353137
-1.74278e-07
0.000353225
-8.82897e-08
0.000353227
-2.33486e-09
0.000353144
8.3509e-08
0.000352975
1.69165e-07
0.00035272
2.54558e-07
0.00035238
3.39612e-07
0.000351956
4.24253e-07
0.000351448
5.08408e-07
0.000350856
5.92007e-07
0.000350181
6.74979e-07
0.000349424
7.57257e-07
0.000348585
8.38774e-07
0.000347665
9.19468e-07
0.000346666
9.99275e-07
0.000345588
1.07814e-06
0.000344432
1.156e-06
0.000343199
1.2328e-06
0.000341891
1.3085e-06
0.000340508
1.38304e-06
0.000339051
1.45637e-06
0.000337523
1.52846e-06
0.000335923
1.59926e-06
0.000334255
1.66874e-06
0.000332518
1.73686e-06
0.000330714
1.80359e-06
0.000328845
1.8689e-06
0.000326913
1.93276e-06
0.000324917
1.99516e-06
0.000322861
2.05607e-06
0.000320746
2.11547e-06
0.000318573
2.17336e-06
0.000316343
2.22971e-06
0.000314058
2.28452e-06
0.000311721
2.33779e-06
0.000309331
2.38951e-06
0.000306891
2.43968e-06
0.000304403
2.4883e-06
0.000301868
2.53537e-06
0.000299287
2.58091e-06
0.000296662
2.62491e-06
0.000293994
2.66739e-06
0.000291286
2.70836e-06
0.000288538
2.74784e-06
0.000285752
2.78583e-06
0.00028293
2.82236e-06
0.000280073
2.85745e-06
0.000277182
2.89111e-06
0.000274258
2.92336e-06
0.000271304
2.95424e-06
0.00026832
2.98376e-06
0.000265308
3.01195e-06
0.000262269
3.03884e-06
0.000259205
3.06444e-06
0.000256116
3.0888e-06
0.000253004
3.11193e-06
0.00024987
3.13386e-06
0.000246716
3.15463e-06
0.000243541
3.17427e-06
0.000240349
3.1928e-06
0.000237138
3.21026e-06
0.000233912
3.22667e-06
0.00023067
3.24208e-06
0.000227413
3.2565e-06
0.000224143
3.26997e-06
0.000220861
3.28252e-06
0.000217566
3.29418e-06
0.000214261
3.30498e-06
0.000210947
3.31496e-06
0.000207622
3.32415e-06
0.00020429
3.33256e-06
0.00020095
3.34024e-06
0.000197602
3.34722e-06
0.000194249
3.35352e-06
0.00019089
3.35917e-06
0.000187525
3.36421e-06
0.000184157
3.36865e-06
0.000180784
3.37253e-06
0.000177408
3.37587e-06
0.00017403
3.37871e-06
0.000170649
3.38106e-06
0.000167266
3.38296e-06
0.000163881
3.38443e-06
0.000160496
3.38549e-06
0.00015711
3.38616e-06
0.000153723
3.38648e-06
0.000150337
3.38646e-06
0.000146951
3.38613e-06
0.000143565
3.38551e-06
0.00014018
3.38461e-06
0.000136797
3.38347e-06
0.000133415
3.3821e-06
0.000130034
3.38052e-06
0.000126656
3.37874e-06
0.000123279
3.3768e-06
0.000119904
3.3747e-06
0.000116532
3.37246e-06
0.000113162
3.37011e-06
0.000109794
3.36765e-06
0.000106429
3.3651e-06
0.000103066
3.36247e-06
9.97065e-05
3.35979e-06
9.63494e-05
3.35706e-06
9.29951e-05
3.35431e-06
8.96436e-05
3.35153e-06
8.62949e-05
3.34874e-06
8.29489e-05
3.34597e-06
7.96057e-05
3.34321e-06
7.62652e-05
3.34047e-06
7.29274e-05
3.33778e-06
6.95923e-05
3.33513e-06
6.62598e-05
3.33254e-06
6.29297e-05
3.33002e-06
5.96022e-05
3.32757e-06
5.6277e-05
3.32521e-06
5.2954e-05
3.32293e-06
4.96333e-05
3.32076e-06
4.63146e-05
3.31868e-06
4.29979e-05
3.31672e-06
3.9683e-05
3.31488e-06
3.63698e-05
3.31315e-06
3.30583e-05
3.31156e-06
2.97482e-05
3.31009e-06
2.64394e-05
3.30876e-06
2.31319e-05
3.30757e-06
1.98253e-05
3.30652e-06
1.65197e-05
3.30562e-06
1.32149e-05
3.30486e-06
9.91062e-06
3.30425e-06
6.60683e-06
3.30379e-06
3.30334e-06
3.30349e-06
3.30334e-06
3.37193e-06
-6.74404e-06
6.74405e-06
-6.74443e-06
1.01166e-05
-6.7452e-06
1.34896e-05
-6.74635e-06
1.68635e-05
-6.74788e-06
2.02383e-05
-6.74979e-06
2.36142e-05
-6.75207e-06
2.69915e-05
-6.75472e-06
3.03703e-05
-6.75772e-06
3.37507e-05
-6.76108e-06
3.71331e-05
-6.76478e-06
4.05174e-05
-6.76882e-06
4.39039e-05
-6.77318e-06
4.72928e-05
-6.77785e-06
5.06841e-05
-6.78283e-06
5.40781e-05
-6.78809e-06
5.74748e-05
-6.79362e-06
6.08745e-05
-6.79941e-06
6.42771e-05
-6.80543e-06
6.76829e-05
-6.81168e-06
7.1092e-05
-6.81814e-06
7.45043e-05
-6.82477e-06
7.79201e-05
-6.83157e-06
8.13393e-05
-6.8385e-06
8.4762e-05
-6.84555e-06
8.81884e-05
-6.8527e-06
9.16183e-05
-6.8599e-06
9.50519e-05
-6.86714e-06
9.84891e-05
-6.87439e-06
0.00010193
-6.88162e-06
0.000105374
-6.88879e-06
0.000108822
-6.89588e-06
0.000112274
-6.90284e-06
0.000115729
-6.90965e-06
0.000119187
-6.91627e-06
0.000122648
-6.92265e-06
0.000126113
-6.92876e-06
0.00012958
-6.93456e-06
0.00013305
-6.94e-06
0.000136523
-6.94503e-06
0.000139998
-6.94962e-06
0.000143475
-6.95372e-06
0.000146954
-6.95727e-06
0.000150434
-6.96022e-06
0.000153915
-6.96253e-06
0.000157398
-6.96414e-06
0.00016088
-6.96499e-06
0.000164363
-6.96503e-06
0.000167845
-6.9642e-06
0.000171327
-6.96244e-06
0.000174807
-6.95969e-06
0.000178285
-6.95589e-06
0.000181761
-6.95096e-06
0.000185234
-6.94486e-06
0.000188703
-6.93751e-06
0.000192167
-6.92885e-06
0.000195627
-6.91881e-06
0.000199081
-6.90731e-06
0.000202529
-6.89429e-06
0.000205969
-6.87968e-06
0.000209401
-6.86341e-06
0.000212824
-6.8454e-06
0.000216238
-6.82559e-06
0.00021964
-6.80389e-06
0.000223031
-6.78024e-06
0.000226409
-6.75457e-06
0.000229772
-6.72679e-06
0.000233121
-6.69684e-06
0.000236454
-6.66465e-06
0.00023977
-6.63014e-06
0.000243067
-6.59325e-06
0.000246345
-6.5539e-06
0.000249601
-6.51202e-06
0.000252836
-6.46755e-06
0.000256047
-6.42042e-06
0.000259233
-6.37058e-06
0.000262392
-6.31794e-06
0.000265524
-6.26247e-06
0.000268627
-6.2041e-06
0.000271699
-6.14277e-06
0.000274739
-6.07843e-06
0.000277746
-6.01105e-06
0.000280717
-5.94057e-06
0.000283651
-5.86694e-06
0.000286547
-5.79015e-06
0.000289403
-5.71014e-06
0.000292217
-5.6269e-06
0.000294988
-5.5404e-06
0.000297714
-5.45062e-06
0.000300394
-5.35755e-06
0.000303025
-5.26118e-06
0.000305607
-5.1615e-06
0.000308137
-5.05852e-06
0.000310614
-4.95224e-06
0.000313036
-4.84268e-06
0.000315402
-4.72987e-06
0.000317709
-4.61381e-06
0.000319957
-4.49456e-06
0.000322144
-4.37214e-06
0.000324268
-4.24661e-06
0.000326328
-4.118e-06
0.000328322
-3.98639e-06
0.000330249
-3.85182e-06
0.000332106
-3.71439e-06
0.000333894
-3.57415e-06
0.00033561
-3.4312e-06
0.000337254
-3.28562e-06
0.000338823
-3.13751e-06
0.000340317
-2.98696e-06
0.000341735
-2.83409e-06
0.000343075
-2.67901e-06
0.000344336
-2.52183e-06
0.000345518
-2.36268e-06
0.000346619
-2.20168e-06
0.000347639
-2.03896e-06
0.000348577
-1.87466e-06
0.000349432
-1.70891e-06
0.000350203
-1.54187e-06
0.00035089
-1.37366e-06
0.000351493
-1.20445e-06
0.00035201
-1.03439e-06
0.000352442
-8.63612e-07
0.000352788
-6.92286e-07
0.000353048
-5.20561e-07
0.000353223
-3.48594e-07
0.000353311
-1.76539e-07
0.000353313
-4.55246e-09
0.000353229
1.67212e-07
0.00035306
3.386e-07
0.000352805
5.09461e-07
0.000352465
6.79642e-07
0.00035204
8.48997e-07
0.000351531
1.01738e-06
0.000350939
1.18465e-06
0.000350263
1.35066e-06
0.000349505
1.51528e-06
0.000348665
1.67838e-06
0.000347745
1.83983e-06
0.000346745
1.9995e-06
0.000345666
2.15728e-06
0.000344509
2.31306e-06
0.000343275
2.46672e-06
0.000341965
2.61816e-06
0.000340581
2.76728e-06
0.000339123
2.914e-06
0.000337593
3.05822e-06
0.000335993
3.19986e-06
0.000334323
3.33885e-06
0.000332584
3.47512e-06
0.000330779
3.60861e-06
0.000328909
3.73925e-06
0.000326975
3.867e-06
0.000324978
3.99181e-06
0.000322921
4.11365e-06
0.000320804
4.23247e-06
0.000318629
4.34825e-06
0.000316398
4.46096e-06
0.000314111
4.5706e-06
0.000311772
4.67714e-06
0.000309381
4.78058e-06
0.00030694
4.88091e-06
0.00030445
4.97815e-06
0.000301913
5.07229e-06
0.000299331
5.16335e-06
0.000296704
5.25134e-06
0.000294035
5.33629e-06
0.000291325
5.41822e-06
0.000288576
5.49715e-06
0.000285789
5.57312e-06
0.000282965
5.64617e-06
0.000280106
5.71632e-06
0.000277214
5.78362e-06
0.000274289
5.84811e-06
0.000271333
5.90984e-06
0.000268348
5.96886e-06
0.000265335
6.02521e-06
0.000262295
6.07895e-06
0.000259229
6.13014e-06
0.000256139
6.17881e-06
0.000253026
6.22505e-06
0.000249891
6.26889e-06
0.000246735
6.3104e-06
0.00024356
6.34965e-06
0.000240366
6.38668e-06
0.000237155
6.42156e-06
0.000233927
6.45436e-06
0.000230684
6.48513e-06
0.000227426
6.51394e-06
0.000224156
6.54085e-06
0.000220872
6.56592e-06
0.000217577
6.58922e-06
0.000214271
6.6108e-06
0.000210955
6.63072e-06
0.000207631
6.64906e-06
0.000204297
6.66586e-06
0.000200956
6.68119e-06
0.000197608
6.69512e-06
0.000194254
6.70769e-06
0.000190894
6.71896e-06
0.00018753
6.729e-06
0.00018416
6.73786e-06
0.000180787
6.74559e-06
0.000177411
6.75225e-06
0.000174032
6.7579e-06
0.00017065
6.76258e-06
0.000167267
6.76635e-06
0.000163882
6.76926e-06
0.000160496
6.77135e-06
0.00015711
6.77268e-06
0.000153723
6.77329e-06
0.000150336
6.77323e-06
0.00014695
6.77255e-06
0.000143564
6.77128e-06
0.000140179
6.76947e-06
0.000136795
6.76717e-06
0.000133413
6.7644e-06
0.000130032
6.76122e-06
0.000126653
6.75766e-06
0.000123277
6.75375e-06
0.000119902
6.74953e-06
0.000116529
6.74505e-06
0.000113159
6.74032e-06
0.000109791
6.73538e-06
0.000106426
6.73026e-06
0.000103063
6.725e-06
9.97036e-05
6.71962e-06
9.63465e-05
6.71416e-06
9.29922e-05
6.70863e-06
8.96407e-05
6.70306e-06
8.6292e-05
6.69748e-06
8.2946e-05
6.69191e-06
7.96028e-05
6.68638e-06
7.62624e-05
6.6809e-06
7.29247e-05
6.6755e-06
6.95896e-05
6.6702e-06
6.62572e-05
6.66501e-06
6.29272e-05
6.65996e-06
5.95997e-05
6.65505e-06
5.62746e-05
6.65032e-06
5.29518e-05
6.64576e-06
4.96311e-05
6.6414e-06
4.63126e-05
6.63725e-06
4.2996e-05
6.63332e-06
3.96812e-05
6.62963e-06
3.63682e-05
6.62618e-06
3.30568e-05
6.62298e-06
2.97468e-05
6.62004e-06
2.64382e-05
6.61738e-06
2.31308e-05
6.61499e-06
1.98244e-05
6.61289e-06
1.65189e-05
6.61108e-06
1.32142e-05
6.60956e-06
9.91015e-06
6.60834e-06
6.60652e-06
6.60743e-06
3.30318e-06
6.60682e-06
6.60652e-06
3.37154e-06
-1.01156e-05
6.74327e-06
-1.01162e-05
1.01154e-05
-1.01173e-05
1.34881e-05
-1.01191e-05
1.68616e-05
-1.01214e-05
2.0236e-05
-1.01242e-05
2.36116e-05
-1.01276e-05
2.69885e-05
-1.01316e-05
3.03669e-05
-1.01361e-05
3.3747e-05
-1.01412e-05
3.7129e-05
-1.01468e-05
4.0513e-05
-1.01528e-05
4.38992e-05
-1.01594e-05
4.72877e-05
-1.01664e-05
5.06788e-05
-1.01739e-05
5.40725e-05
-1.01818e-05
5.7469e-05
-1.01901e-05
6.08684e-05
-1.01988e-05
6.42708e-05
-1.02079e-05
6.76764e-05
-1.02173e-05
7.10853e-05
-1.0227e-05
7.44975e-05
-1.0237e-05
7.79131e-05
-1.02472e-05
8.13322e-05
-1.02576e-05
8.47548e-05
-1.02682e-05
8.81811e-05
-1.0279e-05
9.1611e-05
-1.02898e-05
9.50446e-05
-1.03007e-05
9.84818e-05
-1.03116e-05
0.000101923
-1.03225e-05
0.000105367
-1.03333e-05
0.000108815
-1.0344e-05
0.000112267
-1.03545e-05
0.000115722
-1.03647e-05
0.00011918
-1.03747e-05
0.000122642
-1.03843e-05
0.000126107
-1.03935e-05
0.000129575
-1.04023e-05
0.000133045
-1.04105e-05
0.000136518
-1.04181e-05
0.000139994
-1.04251e-05
0.000143471
-1.04313e-05
0.00014695
-1.04366e-05
0.000150431
-1.04411e-05
0.000153914
-1.04447e-05
0.000157397
-1.04472e-05
0.00016088
-1.04485e-05
0.000164364
-1.04486e-05
0.000167847
-1.04475e-05
0.000171329
-1.04449e-05
0.000174811
-1.04409e-05
0.00017829
-1.04352e-05
0.000181767
-1.04279e-05
0.000185241
-1.04189e-05
0.000188711
-1.04079e-05
0.000192177
-1.0395e-05
0.000195639
-1.038e-05
0.000199094
-1.03629e-05
0.000202543
-1.03434e-05
0.000205985
-1.03216e-05
0.000209419
-1.02973e-05
0.000212844
-1.02704e-05
0.000216259
-1.02407e-05
0.000219664
-1.02083e-05
0.000223056
-1.01729e-05
0.000226436
-1.01345e-05
0.000229802
-1.00929e-05
0.000233154
-1.00481e-05
0.000236489
-9.99987e-06
0.000239807
-9.9482e-06
0.000243106
-9.89294e-06
0.000246387
-9.834e-06
0.000249646
-9.77127e-06
0.000252883
-9.70465e-06
0.000256097
-9.63404e-06
0.000259285
-9.55934e-06
0.000262448
-9.48047e-06
0.000265583
-9.39733e-06
0.000268688
-9.30983e-06
0.000271764
-9.21791e-06
0.000274807
-9.12147e-06
0.000277816
-9.02044e-06
0.00028079
-8.91477e-06
0.000283728
-8.80438e-06
0.000286627
-8.68923e-06
0.000289486
-8.56926e-06
0.000292303
-8.44443e-06
0.000295078
-8.3147e-06
0.000297807
-8.18005e-06
0.00030049
-8.04045e-06
0.000303125
-7.89589e-06
0.00030571
-7.74637e-06
0.000308243
-7.59189e-06
0.000310723
-7.43246e-06
0.000313149
-7.2681e-06
0.000315518
-7.09884e-06
0.000317828
-6.92472e-06
0.00032008
-6.7458e-06
0.00032227
-6.56211e-06
0.000324397
-6.37374e-06
0.00032646
-6.18076e-06
0.000328456
-5.98326e-06
0.000330386
-5.78133e-06
0.000332247
-5.57508e-06
0.000334037
-5.36462e-06
0.000335756
-5.15008e-06
0.000337402
-4.93159e-06
0.000338974
-4.7093e-06
0.00034047
-4.48335e-06
0.00034189
-4.25391e-06
0.000343232
-4.02114e-06
0.000344495
-3.78522e-06
0.000345679
-3.54633e-06
0.000346782
-3.30466e-06
0.000347804
-3.06041e-06
0.000348743
-2.81379e-06
0.000349599
-2.56499e-06
0.000350371
-2.31424e-06
0.000351059
-2.06176e-06
0.000351663
-1.80775e-06
0.000352181
-1.55246e-06
0.000352613
-1.29611e-06
0.00035296
-1.03893e-06
0.00035322
-7.81145e-07
0.000353395
-5.23e-07
0.000353483
-2.64724e-07
0.000353485
-6.5505e-09
0.000353401
2.51288e-07
0.000353231
5.08561e-07
0.000352975
7.65039e-07
0.000352634
1.0205e-06
0.000352209
1.27471e-06
0.000351699
1.52746e-06
0.000351105
1.77854e-06
0.000350428
2.02773e-06
0.000349668
2.27482e-06
0.000348827
2.51963e-06
0.000347905
2.76196e-06
0.000346903
3.00162e-06
0.000345822
3.23843e-06
0.000344662
3.47223e-06
0.000343426
3.70285e-06
0.000342114
3.93013e-06
0.000340728
4.15393e-06
0.000339267
4.37412e-06
0.000337735
4.59055e-06
0.000336132
4.8031e-06
0.000334459
5.01168e-06
0.000332718
5.21616e-06
0.00033091
5.41646e-06
0.000329037
5.61249e-06
0.0003271
5.80417e-06
0.0003251
5.99144e-06
0.00032304
6.17423e-06
0.00032092
6.3525e-06
0.000318742
6.5262e-06
0.000316507
6.6953e-06
0.000314218
6.85976e-06
0.000311876
7.01958e-06
0.000309481
7.17474e-06
0.000307037
7.32524e-06
0.000304544
7.47109e-06
0.000302004
7.61229e-06
0.000299419
7.74886e-06
0.000296789
7.88082e-06
0.000294117
8.00822e-06
0.000291404
8.13107e-06
0.000288652
8.24943e-06
0.000285862
8.36335e-06
0.000283035
8.47286e-06
0.000280174
8.57804e-06
0.000277278
8.67894e-06
0.000274351
8.77562e-06
0.000271392
8.86816e-06
0.000268405
8.95662e-06
0.000265389
9.04108e-06
0.000262346
9.12163e-06
0.000259278
9.19833e-06
0.000256185
9.27128e-06
0.00025307
9.34056e-06
0.000249933
9.40625e-06
0.000246774
9.46844e-06
0.000243597
9.52723e-06
0.000240401
9.58271e-06
0.000237187
9.63496e-06
0.000233958
9.68407e-06
0.000230713
9.73015e-06
0.000227453
9.77329e-06
0.000224181
9.81358e-06
0.000220895
9.8511e-06
0.000217599
9.88597e-06
0.000214291
9.91826e-06
0.000210974
9.94807e-06
0.000207647
9.9755e-06
0.000204313
1.00006e-05
0.00020097
1.00236e-05
0.000197621
1.00444e-05
0.000194266
1.00631e-05
0.000190905
1.008e-05
0.000187539
1.0095e-05
0.000184168
1.01082e-05
0.000180794
1.01197e-05
0.000177417
1.01297e-05
0.000174037
1.01381e-05
0.000170654
1.0145e-05
0.00016727
1.01506e-05
0.000163884
1.01549e-05
0.000160498
1.0158e-05
0.00015711
1.01599e-05
0.000153723
1.01608e-05
0.000150336
1.01606e-05
0.000146949
1.01596e-05
0.000143562
1.01576e-05
0.000140177
1.01548e-05
0.000136793
1.01513e-05
0.00013341
1.01471e-05
0.000130029
1.01423e-05
0.00012665
1.01369e-05
0.000123272
1.0131e-05
0.000119897
1.01246e-05
0.000116524
1.01179e-05
0.000113154
1.01107e-05
0.000109786
1.01033e-05
0.000106421
1.00956e-05
0.000103058
1.00877e-05
9.96982e-05
1.00795e-05
9.63411e-05
1.00713e-05
9.29867e-05
1.0063e-05
8.96352e-05
1.00546e-05
8.62864e-05
1.00462e-05
8.29405e-05
1.00378e-05
7.95974e-05
1.00295e-05
7.62571e-05
1.00213e-05
7.29194e-05
1.00131e-05
6.95845e-05
1.00052e-05
6.62521e-05
9.99735e-06
6.29223e-05
9.98975e-06
5.9595e-05
9.98237e-06
5.62701e-05
9.97525e-06
5.29475e-05
9.9684e-06
4.9627e-05
9.96184e-06
4.63087e-05
9.9556e-06
4.29923e-05
9.9497e-06
3.96778e-05
9.94414e-06
3.6365e-05
9.93895e-06
3.30539e-05
9.93414e-06
2.97442e-05
9.92973e-06
2.64358e-05
9.92572e-06
2.31287e-05
9.92213e-06
1.98226e-05
9.91897e-06
1.65174e-05
9.91625e-06
1.3213e-05
9.91396e-06
9.90924e-06
9.91213e-06
6.60591e-06
9.91076e-06
3.30288e-06
9.90985e-06
9.9094e-06
3.37095e-06
-1.34865e-05
6.7421e-06
-1.34873e-05
1.01136e-05
-1.34889e-05
1.34858e-05
-1.34912e-05
1.68587e-05
-1.34943e-05
2.02325e-05
-1.34981e-05
2.36076e-05
-1.35027e-05
2.69839e-05
-1.3508e-05
3.03618e-05
-1.3514e-05
3.37414e-05
-1.35208e-05
3.71229e-05
-1.35282e-05
4.05064e-05
-1.35363e-05
4.38921e-05
-1.35451e-05
4.72802e-05
-1.35545e-05
5.06708e-05
-1.35645e-05
5.40641e-05
-1.35751e-05
5.74602e-05
-1.35862e-05
6.08593e-05
-1.35979e-05
6.42614e-05
-1.361e-05
6.76666e-05
-1.36226e-05
7.10752e-05
-1.36355e-05
7.44871e-05
-1.36489e-05
7.79025e-05
-1.36626e-05
8.13215e-05
-1.36765e-05
8.4744e-05
-1.36907e-05
8.81702e-05
-1.37051e-05
9.16e-05
-1.37197e-05
9.50335e-05
-1.37342e-05
9.84708e-05
-1.37489e-05
0.000101912
-1.37634e-05
0.000105356
-1.37779e-05
0.000108805
-1.37922e-05
0.000112257
-1.38063e-05
0.000115712
-1.38201e-05
0.000119171
-1.38335e-05
0.000122633
-1.38464e-05
0.000126098
-1.38588e-05
0.000129566
-1.38705e-05
0.000133037
-1.38816e-05
0.000136511
-1.38919e-05
0.000139987
-1.39012e-05
0.000143466
-1.39096e-05
0.000146946
-1.39169e-05
0.000150428
-1.3923e-05
0.000153911
-1.39279e-05
0.000157395
-1.39313e-05
0.00016088
-1.39332e-05
0.000164365
-1.39335e-05
0.000167849
-1.39321e-05
0.000171333
-1.39288e-05
0.000174816
-1.39236e-05
0.000178297
-1.39162e-05
0.000181776
-1.39067e-05
0.000185252
-1.38947e-05
0.000188724
-1.38803e-05
0.000192192
-1.38632e-05
0.000195656
-1.38434e-05
0.000199113
-1.38207e-05
0.000202565
-1.3795e-05
0.000206009
-1.3766e-05
0.000209446
-1.37338e-05
0.000212874
-1.3698e-05
0.000216291
-1.36587e-05
0.000219699
-1.36156e-05
0.000223095
-1.35686e-05
0.000226478
-1.35175e-05
0.000229847
-1.34623e-05
0.000233202
-1.34027e-05
0.00023654
-1.33386e-05
0.000239862
-1.32698e-05
0.000243165
-1.31963e-05
0.000246449
-1.31179e-05
0.000249712
-1.30344e-05
0.000252953
-1.29457e-05
0.000256171
-1.28517e-05
0.000259364
-1.27523e-05
0.000262531
-1.26473e-05
0.00026567
-1.25365e-05
0.00026878
-1.242e-05
0.00027186
-1.22976e-05
0.000274907
-1.21691e-05
0.000277922
-1.20345e-05
0.0002809
-1.18937e-05
0.000283843
-1.17466e-05
0.000286747
-1.15931e-05
0.000289611
-1.14332e-05
0.000292433
-1.12669e-05
0.000295212
-1.10939e-05
0.000297947
-1.09144e-05
0.000300634
-1.07283e-05
0.000303274
-1.05356e-05
0.000305864
-1.03362e-05
0.000308402
-1.01302e-05
0.000310887
-9.91761e-06
0.000313318
-9.69842e-06
0.000315692
-9.47268e-06
0.000318007
-9.24045e-06
0.000320263
-9.00179e-06
0.000322458
-8.75677e-06
0.00032459
-8.50549e-06
0.000326657
-8.24805e-06
0.000328658
-7.98457e-06
0.000330592
-7.71516e-06
0.000332457
-7.43998e-06
0.000334252
-7.15918e-06
0.000335974
-6.87292e-06
0.000337624
-6.58138e-06
0.0003392
-6.28475e-06
0.0003407
-5.98324e-06
0.000342123
-5.67705e-06
0.000343468
-5.36642e-06
0.000344734
-5.05157e-06
0.000345921
-4.73276e-06
0.000347026
-4.41023e-06
0.00034805
-4.08425e-06
0.000348991
-3.75509e-06
0.00034985
-3.42303e-06
0.000350624
-3.08836e-06
0.000351313
-2.75137e-06
0.000351918
-2.41235e-06
0.000352437
-2.0716e-06
0.00035287
-1.72944e-06
0.000353218
-1.38617e-06
0.000353479
-1.0421e-06
0.000353653
-6.97541e-07
0.000353741
-3.52811e-07
0.000353743
-8.21783e-09
0.000353658
3.35926e-07
0.000353487
6.79312e-07
0.000353231
1.02163e-06
0.000352889
1.36259e-06
0.000352462
1.70188e-06
0.00035195
2.03922e-06
0.000351354
2.37431e-06
0.000350675
2.70688e-06
0.000349913
3.03665e-06
0.000349069
3.36336e-06
0.000348145
3.68675e-06
0.00034714
4.00658e-06
0.000346055
4.32259e-06
0.000344893
4.63458e-06
0.000343654
4.94231e-06
0.000342338
5.24559e-06
0.000340948
5.5442e-06
0.000339484
5.83798e-06
0.000337948
6.12674e-06
0.000336341
6.41033e-06
0.000334664
6.68859e-06
0.000332918
6.96138e-06
0.000331106
7.22858e-06
0.000329229
7.49007e-06
0.000327287
7.74576e-06
0.000325283
7.99554e-06
0.000323218
8.23935e-06
0.000321093
8.4771e-06
0.000318911
8.70875e-06
0.000316672
8.93425e-06
0.000314378
9.15357e-06
0.000312031
9.36668e-06
0.000309632
9.57357e-06
0.000307183
9.77423e-06
0.000304686
9.96867e-06
0.000302141
1.01569e-05
0.000299551
1.0339e-05
0.000296917
1.05149e-05
0.00029424
1.06847e-05
0.000291523
1.08484e-05
0.000288766
1.10062e-05
0.000285972
1.1158e-05
0.000283141
1.13039e-05
0.000280275
1.1444e-05
0.000277375
1.15785e-05
0.000274443
1.17073e-05
0.000271481
1.18305e-05
0.000268489
1.19484e-05
0.000265469
1.20609e-05
0.000262423
1.21681e-05
0.000259351
1.22703e-05
0.000256255
1.23674e-05
0.000253136
1.24597e-05
0.000249995
1.25471e-05
0.000246833
1.26299e-05
0.000243653
1.27081e-05
0.000240453
1.2782e-05
0.000237237
1.28515e-05
0.000234004
1.29168e-05
0.000230756
1.29781e-05
0.000227494
1.30355e-05
0.000224218
1.30891e-05
0.000220931
1.31389e-05
0.000217631
1.31853e-05
0.000214321
1.32282e-05
0.000211001
1.32678e-05
0.000207673
1.33042e-05
0.000204336
1.33376e-05
0.000200991
1.3368e-05
0.00019764
1.33956e-05
0.000194283
1.34206e-05
0.00019092
1.34429e-05
0.000187552
1.34627e-05
0.00018418
1.34802e-05
0.000180804
1.34955e-05
0.000177425
1.35086e-05
0.000174044
1.35197e-05
0.00017066
1.35288e-05
0.000167274
1.35361e-05
0.000163887
1.35418e-05
0.0001605
1.35458e-05
0.000157111
1.35482e-05
0.000153723
1.35493e-05
0.000150335
1.3549e-05
0.000146947
1.35474e-05
0.00014356
1.35447e-05
0.000140173
1.35409e-05
0.000136789
1.35362e-05
0.000133405
1.35305e-05
0.000130024
1.3524e-05
0.000126644
1.35167e-05
0.000123266
1.35087e-05
0.000119891
1.35002e-05
0.000116517
1.34911e-05
0.000113147
1.34815e-05
0.000109778
1.34715e-05
0.000106413
1.34611e-05
0.00010305
1.34505e-05
9.96901e-05
1.34396e-05
9.63328e-05
1.34286e-05
9.29784e-05
1.34174e-05
8.96268e-05
1.34062e-05
8.62781e-05
1.33949e-05
8.29323e-05
1.33837e-05
7.95892e-05
1.33725e-05
7.6249e-05
1.33615e-05
7.29115e-05
1.33506e-05
6.95767e-05
1.33399e-05
6.62446e-05
1.33295e-05
6.2915e-05
1.33193e-05
5.9588e-05
1.33094e-05
5.62633e-05
1.32999e-05
5.29409e-05
1.32907e-05
4.96208e-05
1.3282e-05
4.63028e-05
1.32736e-05
4.29868e-05
1.32657e-05
3.96726e-05
1.32583e-05
3.63602e-05
1.32513e-05
3.30495e-05
1.32449e-05
2.97402e-05
1.3239e-05
2.64323e-05
1.32336e-05
2.31255e-05
1.32289e-05
1.98199e-05
1.32246e-05
1.65152e-05
1.3221e-05
1.32112e-05
1.32179e-05
9.90787e-06
1.32155e-05
6.60499e-06
1.32136e-05
3.30242e-06
1.32124e-05
1.32118e-05
3.37017e-06
-1.68567e-05
6.74055e-06
-1.68577e-05
1.01113e-05
-1.68596e-05
1.34827e-05
-1.68625e-05
1.68548e-05
-1.68664e-05
2.02279e-05
-1.68712e-05
2.36022e-05
-1.6877e-05
2.69778e-05
-1.68836e-05
3.0355e-05
-1.68912e-05
3.37339e-05
-1.68997e-05
3.71147e-05
-1.6909e-05
4.04976e-05
-1.69192e-05
4.38827e-05
-1.69302e-05
4.72701e-05
-1.6942e-05
5.06602e-05
-1.69545e-05
5.40529e-05
-1.69678e-05
5.74485e-05
-1.69818e-05
6.0847e-05
-1.69964e-05
6.42487e-05
-1.70116e-05
6.76536e-05
-1.70274e-05
7.10617e-05
-1.70437e-05
7.44734e-05
-1.70605e-05
7.78885e-05
-1.70777e-05
8.13072e-05
-1.70952e-05
8.47295e-05
-1.71131e-05
8.81555e-05
-1.71312e-05
9.15853e-05
-1.71494e-05
9.50188e-05
-1.71678e-05
9.84561e-05
-1.71862e-05
0.000101897
-1.72045e-05
0.000105342
-1.72227e-05
0.00010879
-1.72407e-05
0.000112243
-1.72585e-05
0.000115698
-1.72758e-05
0.000119158
-1.72927e-05
0.00012262
-1.7309e-05
0.000126086
-1.73246e-05
0.000129555
-1.73395e-05
0.000133027
-1.73535e-05
0.000136502
-1.73665e-05
0.000139979
-1.73784e-05
0.000143458
-1.7389e-05
0.00014694
-1.73984e-05
0.000150423
-1.74062e-05
0.000153907
-1.74124e-05
0.000157393
-1.7417e-05
0.000160879
-1.74196e-05
0.000164366
-1.74202e-05
0.000167852
-1.74186e-05
0.000171338
-1.74148e-05
0.000174823
-1.74084e-05
0.000178306
-1.73995e-05
0.000181788
-1.73877e-05
0.000185266
-1.73731e-05
0.000188741
-1.73553e-05
0.000192212
-1.73342e-05
0.000195678
-1.73097e-05
0.000199139
-1.72816e-05
0.000202594
-1.72497e-05
0.000206041
-1.72138e-05
0.000209481
-1.71737e-05
0.000212913
-1.71293e-05
0.000216334
-1.70804e-05
0.000219746
-1.70268e-05
0.000223145
-1.69683e-05
0.000226533
-1.69048e-05
0.000229906
-1.6836e-05
0.000233265
-1.67618e-05
0.000236609
-1.66819e-05
0.000239935
-1.65962e-05
0.000243244
-1.65046e-05
0.000246532
-1.64068e-05
0.000249801
-1.63027e-05
0.000253047
-1.61921e-05
0.00025627
-1.60749e-05
0.000259469
-1.59508e-05
0.000262641
-1.58198e-05
0.000265786
-1.56816e-05
0.000268902
-1.55361e-05
0.000271988
-1.53832e-05
0.000275042
-1.52228e-05
0.000278062
-1.50548e-05
0.000281047
-1.48789e-05
0.000283996
-1.46952e-05
0.000286906
-1.45035e-05
0.000289777
-1.43037e-05
0.000292606
-1.40958e-05
0.000295392
-1.38797e-05
0.000298133
-1.36554e-05
0.000300827
-1.34228e-05
0.000303473
-1.31819e-05
0.00030607
-1.29327e-05
0.000308615
-1.26752e-05
0.000311107
-1.24094e-05
0.000313543
-1.21353e-05
0.000315924
-1.1853e-05
0.000318246
-1.15626e-05
0.000320508
-1.12641e-05
0.000322709
-1.09577e-05
0.000324847
-1.06434e-05
0.00032692
-1.03214e-05
0.000328928
-9.99179e-06
0.000330867
-9.65477e-06
0.000332738
-9.31051e-06
0.000334538
-8.95919e-06
0.000336266
-8.60103e-06
0.000337921
-8.23625e-06
0.000339501
-7.86509e-06
0.000341006
-7.4878e-06
0.000342433
-7.10465e-06
0.000343783
-6.71592e-06
0.000345053
-6.3219e-06
0.000346243
-5.92291e-06
0.000347352
-5.51925e-06
0.000348379
-5.11127e-06
0.000349324
-4.6993e-06
0.000350184
-4.28369e-06
0.000350961
-3.86481e-06
0.000351652
-3.44301e-06
0.000352259
-3.01867e-06
0.000352779
-2.59216e-06
0.000353214
-2.16388e-06
0.000353562
-1.73421e-06
0.000353823
-1.30354e-06
0.000353998
-8.72261e-07
0.000354086
-4.40763e-07
0.000354087
-9.44048e-09
0.000354002
4.21317e-07
0.00035383
8.51123e-07
0.000353572
1.27959e-06
0.000353228
1.70635e-06
0.000352799
2.13101e-06
0.000352285
2.55322e-06
0.000351687
2.97261e-06
0.000351005
3.38883e-06
0.00035024
3.80154e-06
0.000349393
4.21041e-06
0.000348464
4.61511e-06
0.000347456
5.01534e-06
0.000346367
5.41079e-06
0.000345201
5.80118e-06
0.000343957
6.18623e-06
0.000342637
6.56569e-06
0.000341242
6.93931e-06
0.000339773
7.30686e-06
0.000338231
7.66812e-06
0.000336619
8.02288e-06
0.000334937
8.37096e-06
0.000333186
8.71219e-06
0.000331368
9.04641e-06
0.000329485
9.37347e-06
0.000327537
9.69324e-06
0.000325527
1.00056e-05
0.000323456
1.03105e-05
0.000321325
1.06078e-05
0.000319136
1.08975e-05
0.000316891
1.11794e-05
0.000314591
1.14536e-05
0.000312238
1.172e-05
0.000309833
1.19786e-05
0.000307378
1.22294e-05
0.000304874
1.24725e-05
0.000302323
1.27077e-05
0.000299727
1.29352e-05
0.000297087
1.3155e-05
0.000294404
1.33672e-05
0.000291681
1.35718e-05
0.000288918
1.37688e-05
0.000286118
1.39585e-05
0.000283281
1.41407e-05
0.000280409
1.43158e-05
0.000277504
1.44836e-05
0.000274567
1.46445e-05
0.000271599
1.47984e-05
0.000268602
1.49455e-05
0.000265577