/*--------------------------------*- C++ -*----------------------------------*\
| =========                 |                                                 |
| \\      /  F ield         | OpenFOAM: The Open Source CFD Toolbox           |
|  \\    /   O peration     | Version:  v2012                                 |
|   \\  /    A nd           | Website:  www.openfoam.com                      |
|    \\/     M anipulation  |                                                 |
\*---------------------------------------------------------------------------*/
FoamFile
{
    version     2.0;
    format      ascii;
    class       volScalarField;
    location    "15.7";
    object      Psi_z;
}
// * * * * * * * * * * * * * * * * * * * * * * * * * * * * * * * * * * * * * //

dimensions      [0 2 -1 0 0 0 0];


internalField   nonuniform List<scalar> 
65536
(
8.41621e-06
2.52492e-05
4.20837e-05
5.89205e-05
7.57607e-05
9.26052e-05
0.000109455
0.000126311
0.000143174
0.000160044
0.000176924
0.000193813
0.000210713
0.000227623
0.000244546
0.000261482
0.000278431
0.000295394
0.000312372
0.000329365
0.000346374
0.000363399
0.000380441
0.0003975
0.000414576
0.00043167
0.000448782
0.000465912
0.000483061
0.000500227
0.000517411
0.000534613
0.000551832
0.000569069
0.000586322
0.000603592
0.000620877
0.000638178
0.000655492
0.000672819
0.000690159
0.00070751
0.00072487
0.000742238
0.000759614
0.000776994
0.000794378
0.000811763
0.000829147
0.000846528
0.000863904
0.000881272
0.000898629
0.000915973
0.000933301
0.000950609
0.000967894
0.000985153
0.00100238
0.00101958
0.00103673
0.00105385
0.00107092
0.00108793
0.00110489
0.00112179
0.00113863
0.00115539
0.00117208
0.00118868
0.0012052
0.00122162
0.00123794
0.00125415
0.00127025
0.00128624
0.00130209
0.00131781
0.00133339
0.00134882
0.0013641
0.00137921
0.00139415
0.00140891
0.00142349
0.00143787
0.00145205
0.00146602
0.00147977
0.00149329
0.00150658
0.00151963
0.00153242
0.00154495
0.00155722
0.00156921
0.00158091
0.00159233
0.00160344
0.00161424
0.00162473
0.0016349
0.00164473
0.00165422
0.00166337
0.00167217
0.00168061
0.00168868
0.00169638
0.0017037
0.00171064
0.00171719
0.00172335
0.0017291
0.00173446
0.0017394
0.00174393
0.00174805
0.00175175
0.00175503
0.00175789
0.00176032
0.00176232
0.00176389
0.00176504
0.00176575
0.00176604
0.00176589
0.00176532
0.00176432
0.00176289
0.00176104
0.00175876
0.00175607
0.00175295
0.00174943
0.00174549
0.00174115
0.0017364
0.00173126
0.00172572
0.0017198
0.00171349
0.00170681
0.00169976
0.00169234
0.00168456
0.00167643
0.00166796
0.00165914
0.00165
0.00164053
0.00163075
0.00162065
0.00161025
0.00159956
0.00158858
0.00157732
0.00156579
0.00155399
0.00154194
0.00152964
0.0015171
0.00150433
0.00149133
0.00147811
0.00146469
0.00145106
0.00143723
0.00142322
0.00140903
0.00139467
0.00138013
0.00136544
0.0013506
0.00133561
0.00132049
0.00130523
0.00128984
0.00127434
0.00125872
0.00124299
0.00122717
0.00121124
0.00119522
0.00117912
0.00116294
0.00114669
0.00113036
0.00111397
0.00109751
0.001081
0.00106444
0.00104782
0.00103117
0.00101447
0.000997733
0.000980965
0.000964166
0.000947339
0.000930489
0.000913617
0.000896727
0.000879821
0.000862902
0.000845972
0.000829033
0.000812087
0.000795137
0.000778184
0.00076123
0.000744276
0.000727325
0.000710378
0.000693435
0.000676498
0.000659569
0.000642648
0.000625736
0.000608834
0.000591943
0.000575063
0.000558195
0.00054134
0.000524497
0.000507668
0.000490852
0.000474049
0.000457261
0.000440486
0.000423725
0.000406978
0.000390245
0.000373525
0.000356819
0.000340126
0.000323445
0.000306777
0.000290121
0.000273476
0.000256843
0.00024022
0.000223608
0.000207004
0.00019041
0.000173824
0.000157246
0.000140675
0.00012411
0.00010755
9.09956e-05
7.44452e-05
5.78983e-05
4.1354e-05
2.48116e-05
8.27043e-06
2.52484e-05
7.57466e-05
0.000126249
0.000176759
0.000227279
0.000277811
0.00032836
0.000378926
0.000429514
0.000480125
0.000530763
0.00058143
0.000632128
0.00068286
0.000733628
0.000784434
0.000835281
0.00088617
0.000937103
0.000988081
0.00103911
0.00109018
0.00114131
0.00119249
0.00124371
0.001295
0.00134633
0.00139772
0.00144917
0.00150067
0.00155222
0.00160382
0.00165548
0.00170719
0.00175895
0.00181076
0.00186262
0.00191452
0.00196647
0.00201845
0.00207047
0.00212252
0.00217461
0.00222671
0.00227884
0.00233098
0.00238314
0.00243529
0.00248745
0.00253959
0.00259172
0.00264383
0.00269591
0.00274794
0.00279993
0.00285186
0.00290372
0.0029555
0.00300719
0.00305877
0.00311025
0.0031616
0.00321281
0.00326386
0.00331475
0.00336545
0.00341596
0.00346626
0.00351632
0.00356614
0.00361569
0.00366496
0.00371393
0.00376258
0.00381089
0.00385884
0.00390641
0.00395358
0.00400032
0.00404662
0.00409246
0.0041378
0.00418263
0.00422693
0.00427067
0.00431382
0.00435637
0.00439828
0.00443954
0.00448012
0.00452
0.00455914
0.00459753
0.00463514
0.00467194
0.00470792
0.00474304
0.00477729
0.00481063
0.00484305
0.00487452
0.00490502
0.00493453
0.00496302
0.00499048
0.00501687
0.00504219
0.00506642
0.00508952
0.00511149
0.00513232
0.00515197
0.00517044
0.00518771
0.00520378
0.00521861
0.00523222
0.00524457
0.00525568
0.00526551
0.00527408
0.00528137
0.00528738
0.00529211
0.00529554
0.00529768
0.00529854
0.0052981
0.00529638
0.00529338
0.00528909
0.00528353
0.0052767
0.00526861
0.00525927
0.00524869
0.00523688
0.00522384
0.0052096
0.00519417
0.00517756
0.00515978
0.00514086
0.0051208
0.00509963
0.00507737
0.00505403
0.00502964
0.00500421
0.00497776
0.00495032
0.00492191
0.00489254
0.00486225
0.00483105
0.00479896
0.00476601
0.00473223
0.00469762
0.00466223
0.00462607
0.00458916
0.00455153
0.00451321
0.0044742
0.00443455
0.00439426
0.00435336
0.00431189
0.00426984
0.00422726
0.00418416
0.00414056
0.00409648
0.00405195
0.00400698
0.00396159
0.00391581
0.00386964
0.00382312
0.00377626
0.00372908
0.00368159
0.00363381
0.00358576
0.00353745
0.0034889
0.00344012
0.00339114
0.00334195
0.00329258
0.00324305
0.00319335
0.00314351
0.00309353
0.00304344
0.00299323
0.00294292
0.00289252
0.00284204
0.00279148
0.00274087
0.00269019
0.00263947
0.00258871
0.00253792
0.0024871
0.00243626
0.00238541
0.00233455
0.00228368
0.00223282
0.00218197
0.00213112
0.00208029
0.00202948
0.0019787
0.00192793
0.00187719
0.00182649
0.00177581
0.00172517
0.00167457
0.001624
0.00157347
0.00152299
0.00147254
0.00142213
0.00137177
0.00132144
0.00127116
0.00122092
0.00117072
0.00112056
0.00107044
0.00102036
0.000970321
0.000920317
0.00087035
0.000820417
0.000770517
0.000720649
0.000670812
0.000621003
0.000571221
0.000521464
0.00047173
0.000422016
0.000372322
0.000322645
0.000272982
0.000223332
0.000173692
0.00012406
7.44338e-05
2.48109e-05
4.2079e-05
0.00012624
0.000210407
0.000294587
0.000378784
0.000463002
0.000547246
0.00063152
0.000715831
0.00080018
0.000884574
0.000969016
0.00105351
0.00113806
0.00122267
0.00130735
0.00139209
0.0014769
0.00156179
0.00164675
0.00173179
0.00181692
0.00190212
0.00198742
0.0020728
0.00215827
0.00224383
0.00232948
0.00241522
0.00250105
0.00258697
0.00267298
0.00275908
0.00284527
0.00293154
0.00301789
0.00310432
0.00319083
0.0032774
0.00336405
0.00345075
0.00353751
0.00362432
0.00371117
0.00379805
0.00388496
0.00397189
0.00405883
0.00414576
0.00423268
0.00431957
0.00440642
0.00449322
0.00457996
0.00466661
0.00475317
0.00483961
0.00492593
0.00501209
0.00509808
0.00518389
0.00526948
0.00535485
0.00543996
0.00552478
0.00560931
0.00569351
0.00577735
0.00586081
0.00594386
0.00602647
0.0061086
0.00619024
0.00627135
0.00635188
0.00643182
0.00651113
0.00658976
0.0066677
0.00674489
0.00682131
0.00689691
0.00697165
0.00704551
0.00711843
0.00719038
0.00726132
0.0073312
0.0074
0.00746765
0.00753414
0.0075994
0.00766341
0.00772612
0.00778749
0.00784748
0.00790604
0.00796315
0.00801875
0.0080728
0.00812528
0.00817614
0.00822534
0.00827285
0.00831864
0.00836265
0.00840487
0.00844527
0.0084838
0.00852044
0.00855516
0.00858793
0.00861873
0.00864753
0.00867432
0.00869906
0.00872175
0.00874235
0.00876086
0.00877727
0.00879156
0.00880371
0.00881373
0.00882161
0.00882733
0.00883091
0.00883233
0.00883161
0.00882873
0.00882372
0.00881657
0.00880729
0.0087959
0.00878241
0.00876683
0.00874918
0.00872948
0.00870774
0.008684
0.00865826
0.00863055
0.00860091
0.00856935
0.00853591
0.00850061
0.00846348
0.00842456
0.00838388
0.00834148
0.00829738
0.00825162
0.00820424
0.00815527
0.00810475
0.00805272
0.00799922
0.00794428
0.00788795
0.00783025
0.00777124
0.00771094
0.00764941
0.00758667
0.00752276
0.00745773
0.00739161
0.00732444
0.00725626
0.0071871
0.00711701
0.00704601
0.00697415
0.00690146
0.00682797
0.00675373
0.00667875
0.00660309
0.00652676
0.0064498
0.00637225
0.00629413
0.00621547
0.0061363
0.00605665
0.00597654
0.00589601
0.00581508
0.00573377
0.00565211
0.00557012
0.00548783
0.00540525
0.00532241
0.00523933
0.00515603
0.00507252
0.00498883
0.00490497
0.00482095
0.00473681
0.00465254
0.00456817
0.00448371
0.00439916
0.00431456
0.00422989
0.00414519
0.00406045
0.00397569
0.00389092
0.00380614
0.00372136
0.0036366
0.00355186
0.00346714
0.00338245
0.0032978
0.00321319
0.00312862
0.00304411
0.00295965
0.00287525
0.00279091
0.00270663
0.00262241
0.00253826
0.00245418
0.00237017
0.00228623
0.00220236
0.00211855
0.00203482
0.00195115
0.00186756
0.00178403
0.00170056
0.00161716
0.00153382
0.00145054
0.00136732
0.00128416
0.00120105
0.00111799
0.00103497
0.000952007
0.00086908
0.000786192
0.00070334
0.000620518
0.000537725
0.000454956
0.000372208
0.000289478
0.00020676
0.000124052
4.13502e-05
5.89073e-05
0.000176725
0.000294554
0.000412399
0.000530267
0.000648166
0.000766101
0.000884079
0.00100211
0.00112019
0.00123834
0.00135655
0.00147484
0.0015932
0.00171165
0.00183019
0.00194882
0.00206756
0.00218639
0.00230534
0.00242439
0.00254357
0.00266285
0.00278226
0.00290179
0.00302145
0.00314123
0.00326114
0.00338118
0.00350134
0.00362164
0.00374205
0.00386259
0.00398326
0.00410404
0.00422494
0.00434594
0.00446706
0.00458827
0.00470958
0.00483097
0.00495244
0.00507399
0.00519559
0.00531724
0.00543892
0.00556064
0.00568236
0.00580408
0.00592578
0.00604745
0.00616906
0.00629061
0.00641206
0.00653339
0.0066546
0.00677564
0.00689651
0.00701716
0.00713758
0.00725774
0.0073776
0.00749714
0.00761633
0.00773512
0.0078535
0.00797141
0.00808883
0.00820571
0.00832202
0.00843771
0.00855275
0.00866708
0.00878067
0.00889347
0.00900544
0.00911651
0.00922666
0.00933581
0.00944393
0.00955097
0.00965686
0.00976156
0.00986501
0.00996716
0.0100679
0.0101673
0.0102652
0.0103616
0.0104564
0.0105495
0.0106409
0.0107306
0.0108184
0.0109044
0.0109885
0.0110705
0.0111505
0.0112284
0.0113041
0.0113777
0.0114489
0.0115179
0.0115844
0.0116486
0.0117102
0.0117694
0.011826
0.01188
0.0119313
0.0119799
0.0120259
0.012069
0.0121094
0.0121469
0.0121816
0.0122134
0.0122422
0.0122682
0.0122911
0.0123112
0.0123282
0.0123422
0.0123533
0.0123613
0.0123663
0.0123683
0.0123673
0.0123632
0.0123562
0.0123462
0.0123332
0.0123172
0.0122983
0.0122765
0.0122517
0.0122241
0.0121937
0.0121604
0.0121243
0.0120855
0.0120439
0.0119997
0.0119529
0.0119034
0.0118514
0.0117969
0.0117399
0.0116804
0.0116187
0.0115545
0.0114882
0.0114195
0.0113488
0.0112759
0.0112009
0.011124
0.011045
0.0109642
0.0108815
0.0107971
0.0107109
0.010623
0.0105334
0.0104423
0.0103497
0.0102556
0.0101601
0.0100633
0.00996507
0.00986563
0.00976497
0.00966316
0.00956023
0.00945624
0.00935123
0.00924525
0.00913835
0.00903057
0.00892195
0.00881253
0.00870237
0.00859149
0.00847994
0.00836776
0.00825498
0.00814164
0.00802777
0.00791342
0.0077986
0.00768336
0.00756772
0.00745172
0.00733537
0.00721872
0.00710179
0.00698459
0.00686717
0.00674953
0.0066317
0.00651371
0.00639557
0.0062773
0.00615892
0.00604045
0.00592191
0.00580331
0.00568466
0.00556598
0.00544729
0.00532859
0.00520989
0.00509122
0.00497256
0.00485395
0.00473538
0.00461686
0.0044984
0.00438
0.00426168
0.00414343
0.00402526
0.00390718
0.00378919
0.00367129
0.00355348
0.00343576
0.00331814
0.00320062
0.0030832
0.00296588
0.00284865
0.00273152
0.00261449
0.00249754
0.0023807
0.00226394
0.00214727
0.00203068
0.00191418
0.00179775
0.0016814
0.00156512
0.0014489
0.00133275
0.00121666
0.00110062
0.000984631
0.000868686
0.000752781
0.00063691
0.000521068
0.00040525
0.000289451
0.000173665
5.78875e-05
7.57322e-05
0.000227201
0.000378683
0.000530186
0.00068172
0.000833293
0.000984913
0.00113659
0.00128833
0.00144014
0.00159203
0.00174401
0.00189608
0.00204826
0.00220054
0.00235294
0.00250546
0.00265811
0.00281089
0.00296382
0.00311688
0.0032701
0.00342346
0.00357698
0.00373066
0.00388451
0.00403851
0.00419268
0.00434701
0.00450151
0.00465617
0.004811
0.00496598
0.00512113
0.00527642
0.00543187
0.00558746
0.00574319
0.00589904
0.00605502
0.00621111
0.00636731
0.00652359
0.00667995
0.00683638
0.00699286
0.00714937
0.0073059
0.00746242
0.00761892
0.00777538
0.00793177
0.00808808
0.00824426
0.00840031
0.00855618
0.00871185
0.00886729
0.00902247
0.00917734
0.00933188
0.00948604
0.00963979
0.00979309
0.00994588
0.0100981
0.0102498
0.0104008
0.0105512
0.0107008
0.0108496
0.0109976
0.0111447
0.0112908
0.0114359
0.0115799
0.0117228
0.0118645
0.012005
0.0121441
0.0122818
0.012418
0.0125527
0.0126858
0.0128172
0.0129469
0.0130748
0.0132008
0.0133248
0.0134467
0.0135666
0.0136842
0.0137996
0.0139126
0.0140233
0.0141314
0.014237
0.01434
0.0144402
0.0145377
0.0146323
0.014724
0.0148127
0.0148984
0.0149809
0.0150603
0.0151365
0.0152093
0.0152788
0.0153448
0.0154075
0.0154666
0.0155221
0.015574
0.0156223
0.015667
0.0157079
0.015745
0.0157784
0.015808
0.0158337
0.0158557
0.0158737
0.0158879
0.0158982
0.0159047
0.0159072
0.0159059
0.0159007
0.0158917
0.0158788
0.015862
0.0158415
0.0158171
0.015789
0.0157572
0.0157216
0.0156824
0.0156396
0.0155931
0.0155431
0.0154897
0.0154327
0.0153724
0.0153088
0.0152418
0.0151716
0.0150983
0.0150218
0.0149422
0.0148597
0.0147743
0.014686
0.0145949
0.0145011
0.0144046
0.0143056
0.014204
0.0141
0.0139936
0.0138849
0.013774
0.0136609
0.0135457
0.0134285
0.0133093
0.0131882
0.0130654
0.0129407
0.0128144
0.0126865
0.012557
0.012426
0.0122935
0.0121598
0.0120247
0.0118883
0.0117508
0.0116122
0.0114724
0.0113317
0.01119
0.0110474
0.0109039
0.0107596
0.0106145
0.0104687
0.0103223
0.0101752
0.0100275
0.00987928
0.00973056
0.00958136
0.00943173
0.0092817
0.00913131
0.0089806
0.00882958
0.00867829
0.00852676
0.00837502
0.00822309
0.008071
0.00791877
0.00776643
0.00761399
0.00746148
0.00730891
0.0071563
0.00700367
0.00685103
0.00669841
0.0065458
0.00639324
0.00624072
0.00608826
0.00593586
0.00578354
0.00563131
0.00547917
0.00532713
0.0051752
0.00502337
0.00487166
0.00472007
0.00456859
0.00441724
0.00426602
0.00411492
0.00396395
0.00381311
0.00366239
0.00351179
0.00336132
0.00321097
0.00306074
0.00291063
0.00276063
0.00261073
0.00246095
0.00231126
0.00216167
0.00201218
0.00186277
0.00171344
0.00156418
0.001415
0.00126588
0.00111681
0.000967802
0.000818834
0.000669903
0.000521004
0.000372128
0.00022327
7.44222e-05
9.25527e-05
0.000277663
0.00046279
0.000647943
0.000833134
0.00101837
0.00120367
0.00138903
0.00157448
0.00176001
0.00194563
0.00213137
0.00231722
0.0025032
0.00268931
0.00287556
0.00306197
0.00324853
0.00343525
0.00362215
0.00380922
0.00399647
0.00418391
0.00437154
0.00455937
0.0047474
0.00493562
0.00512405
0.00531268
0.00550151
0.00569054
0.00587978
0.00606921
0.00625884
0.00644866
0.00663866
0.00682883
0.00701918
0.00720969
0.00740035
0.00759115
0.00778208
0.00797312
0.00816426
0.00835548
0.00854676
0.00873808
0.00892943
0.00912078
0.0093121
0.00950338
0.00969457
0.00988566
0.0100766
0.0102674
0.010458
0.0106483
0.0108383
0.0110281
0.0112174
0.0114064
0.0115949
0.0117829
0.0119703
0.0121572
0.0123434
0.0125288
0.0127135
0.0128974
0.0130803
0.0132624
0.0134433
0.0136232
0.0138019
0.0139794
0.0141556
0.0143303
0.0145037
0.0146754
0.0148456
0.015014
0.0151807
0.0153455
0.0155083
0.0156691
0.0158277
0.0159841
0.0161383
0.01629
0.0164392
0.0165858
0.0167298
0.0168709
0.0170093
0.0171446
0.017277
0.0174062
0.0175321
0.0176548
0.0177741
0.0178899
0.0180021
0.0181107
0.0182155
0.0183165
0.0184137
0.0185068
0.018596
0.018681
0.0187619
0.0188385
0.0189108
0.0189788
0.0190424
0.0191015
0.0191561
0.0192061
0.0192516
0.0192925
0.0193287
0.0193602
0.019387
0.0194091
0.0194265
0.0194391
0.0194469
0.0194501
0.0194484
0.0194421
0.019431
0.0194152
0.0193947
0.0193695
0.0193397
0.0193053
0.0192663
0.0192228
0.0191748
0.0191223
0.0190655
0.0190043
0.0189388
0.0188692
0.0187953
0.0187174
0.0186355
0.0185496
0.0184598
0.0183662
0.0182688
0.0181678
0.0180633
0.0179552
0.0178438
0.017729
0.0176109
0.0174897
0.0173654
0.0172382
0.017108
0.016975
0.0168393
0.0167009
0.01656
0.0164166
0.0162708
0.0161227
0.0159723
0.0158199
0.0156653
0.0155088
0.0153504
0.0151902
0.0150282
0.0148646
0.0146994
0.0145326
0.0143644
0.0141948
0.0140239
0.0138518
0.0136785
0.0135041
0.0133286
0.0131522
0.0129748
0.0127965
0.0126174
0.0124375
0.012257
0.0120757
0.0118939
0.0117114
0.0115285
0.011345
0.0111612
0.0109769
0.0107923
0.0106073
0.010422
0.0102365
0.0100508
0.00986485
0.00967874
0.0094925
0.00930614
0.0091197
0.00893319
0.00874663
0.00856005
0.00837347
0.0081869
0.00800036
0.00781386
0.00762743
0.00744107
0.00725479
0.00706861
0.00688253
0.00669657
0.00651073
0.00632502
0.00613945
0.00595401
0.00576873
0.00558359
0.0053986
0.00521377
0.00502909
0.00484457
0.00466021
0.004476
0.00429194
0.00410804
0.00392428
0.00374067
0.00355721
0.00337388
0.00319069
0.00300762
0.00282468
0.00264186
0.00245915
0.00227655
0.00209405
0.00191164
0.00172932
0.00154707
0.00136489
0.00118278
0.00100072
0.000818708
0.000636733
0.000454788
0.000272865
9.09535e-05
0.000109368
0.00032811
0.000546871
0.000765663
0.0009845
0.00120339
0.00142236
0.0016414
0.00186053
0.00207978
0.00229913
0.00251862
0.00273824
0.00295801
0.00317794
0.00339804
0.00361832
0.00383878
0.00405944
0.0042803
0.00450137
0.00472266
0.00494417
0.00516591
0.00538788
0.00561008
0.00583253
0.00605521
0.00627814
0.00650131
0.00672471
0.00694836
0.00717225
0.00739636
0.0076207
0.00784526
0.00807004
0.00829502
0.00852019
0.00874554
0.00897106
0.00919673
0.00942255
0.00964848
0.0098745
0.0101006
0.0103268
0.010553
0.0107792
0.0110053
0.0112315
0.0114575
0.0116834
0.0119091
0.0121347
0.01236
0.012585
0.0128097
0.013034
0.0132579
0.0134814
0.0137042
0.0139265
0.0141482
0.0143691
0.0145893
0.0148086
0.0150271
0.0152445
0.0154609
0.0156761
0.0158902
0.0161029
0.0163143
0.0165242
0.0167326
0.0169393
0.0171443
0.0173475
0.0175488
0.0177481
0.0179452
0.0181402
0.0183328
0.018523
0.0187107
0.0188958
0.0190782
0.0192577
0.0194342
0.0196077
0.0197781
0.0199451
0.0201088
0.020269
0.0204256
0.0205785
0.0207276
0.0208728
0.021014
0.021151
0.0212838
0.0214123
0.0215364
0.021656
0.0217709
0.0218812
0.0219867
0.0220874
0.0221831
0.0222738
0.0223594
0.0224399
0.0225151
0.0225851
0.0226497
0.022709
0.0227628
0.0228112
0.022854
0.0228913
0.022923
0.0229492
0.0229697
0.0229847
0.022994
0.0229976
0.0229957
0.0229882
0.022975
0.0229563
0.022932
0.0229022
0.0228669
0.0228261
0.0227799
0.0227284
0.0226716
0.0226095
0.0225422
0.0224697
0.0223922
0.0223097
0.0222223
0.0221301
0.0220331
0.0219314
0.0218251
0.0217143
0.0215991
0.0214795
0.0213558
0.0212279
0.021096
0.0209601
0.0208204
0.0206769
0.0205299
0.0203793
0.0202252
0.0200678
0.0199072
0.0197435
0.0195768
0.0194071
0.0192346
0.0190593
0.0188815
0.0187011
0.0185183
0.0183331
0.0181457
0.0179562
0.0177646
0.017571
0.0173756
0.0171783
0.0169794
0.0167788
0.0165767
0.0163731
0.0161682
0.0159619
0.0157544
0.0155457
0.0153359
0.0151251
0.0149133
0.0147006
0.0144871
0.0142728
0.0140577
0.013842
0.0136257
0.0134088
0.0131914
0.0129736
0.0127553
0.0125366
0.0123176
0.0120983
0.0118787
0.0116589
0.0114389
0.0112187
0.0109984
0.010778
0.0105575
0.010337
0.0101164
0.0098959
0.00967536
0.00945487
0.00923443
0.00901407
0.00879379
0.00857362
0.00835356
0.00813363
0.00791384
0.0076942
0.00747471
0.00725538
0.00703622
0.00681724
0.00659843
0.00637981
0.00616137
0.00594311
0.00572504
0.00550716
0.00528946
0.00507194
0.0048546
0.00463744
0.00442046
0.00420365
0.003987
0.00377051
0.00355417
0.00333798
0.00312194
0.00290602
0.00269024
0.00247457
0.00225901
0.00204355
0.00182819
0.00161291
0.0013977
0.00118256
0.000967474
0.000752433
0.000537427
0.000322446
0.00010748
0.000126177
0.000378537
0.00063092
0.000883339
0.00113581
0.00138835
0.00164096
0.00189367
0.00214649
0.00239943
0.0026525
0.00290572
0.00315911
0.00341266
0.0036664
0.00392034
0.00417448
0.00442884
0.00468342
0.00493824
0.00519331
0.00544863
0.0057042
0.00596004
0.00621615
0.00647253
0.00672919
0.00698614
0.00724336
0.00750086
0.00775864
0.00801671
0.00827505
0.00853365
0.00879253
0.00905166
0.00931104
0.00957066
0.0098305
0.0100906
0.0103508
0.0106113
0.0108719
0.0111326
0.0113935
0.0116544
0.0119154
0.0121765
0.0124376
0.0126986
0.0129596
0.0132205
0.0134813
0.0137418
0.0140022
0.0142623
0.0145221
0.0147815
0.0150404
0.0152989
0.0155568
0.0158142
0.0160708
0.0163268
0.0165819
0.0168361
0.0170893
0.0173416
0.0175926
0.0178425
0.0180911
0.0183383
0.018584
0.0188281
0.0190706
0.0193112
0.01955
0.0197868
0.0200216
0.0202541
0.0204843
0.020712
0.0209372
0.0211598
0.0213795
0.0215964
0.0218102
0.0220209
0.0222283
0.0224323
0.0226328
0.0228297
0.0230227
0.0232119
0.023397
0.023578
0.0237547
0.023927
0.0240948
0.0242579
0.0244163
0.0245699
0.0247184
0.0248618
0.025
0.0251329
0.0252604
0.0253824
0.0254987
0.0256094
0.0257142
0.0258132
0.0259062
0.0259932
0.0260741
0.0261488
0.0262173
0.0262795
0.0263354
0.0263849
0.026428
0.0264647
0.0264949
0.0265186
0.0265359
0.0265466
0.0265509
0.0265486
0.0265398
0.0265246
0.0265029
0.0264748
0.0264403
0.0263995
0.0263524
0.026299
0.0262394
0.0261736
0.0261018
0.026024
0.0259402
0.0258506
0.0257552
0.0256542
0.0255475
0.0254354
0.0253178
0.0251949
0.0250668
0.0249336
0.0247955
0.0246524
0.0245046
0.0243521
0.0241951
0.0240336
0.0238678
0.0236978
0.0235238
0.0233458
0.0231639
0.0229783
0.0227891
0.0225964
0.0224004
0.0222011
0.0219986
0.0217931
0.0215847
0.0213735
0.0211597
0.0209432
0.0207242
0.0205029
0.0202793
0.0200536
0.0198258
0.019596
0.0193644
0.0191309
0.0188958
0.0186591
0.0184209
0.0181813
0.0179403
0.017698
0.0174546
0.0172101
0.0169645
0.016718
0.0164706
0.0162223
0.0159733
0.0157235
0.0154731
0.0152222
0.0149707
0.0147187
0.0144662
0.0142134
0.0139602
0.0137068
0.0134531
0.0131991
0.012945
0.0126907
0.0124364
0.0121819
0.0119274
0.0116728
0.0114183
0.0111638
0.0109093
0.0106549
0.0104006
0.0101464
0.00989234
0.00963839
0.0093846
0.00913097
0.00887751
0.00862423
0.00837115
0.00811826
0.00786557
0.0076131
0.00736083
0.00710878
0.00685694
0.00660532
0.00635392
0.00610273
0.00585176
0.00560099
0.00535043
0.00510008
0.00484992
0.00459995
0.00435017
0.00410057
0.00385114
0.00360188
0.00335277
0.0031038
0.00285498
0.00260628
0.0023577
0.00210923
0.00186085
0.00161256
0.00136435
0.0011162
0.000868098
0.000620041
0.000372013
0.000124002
0.000142978
0.000428942
0.000714932
0.00100096
0.00128705
0.00157322
0.00185947
0.00214584
0.00243232
0.00271895
0.00300572
0.00329267
0.0035798
0.00386713
0.00415466
0.00444243
0.00473042
0.00501867
0.00530717
0.00559594
0.00588499
0.00617433
0.00646397
0.0067539
0.00704415
0.0073347
0.00762558
0.00791677
0.00820829
0.00850013
0.00879229
0.00908478
0.00937757
0.00967068
0.00996409
0.0102578
0.0105518
0.0108461
0.0111406
0.0114354
0.0117304
0.0120256
0.012321
0.0126166
0.0129123
0.0132081
0.013504
0.0138
0.014096
0.014392
0.0146879
0.0149837
0.0152793
0.0155748
0.01587
0.0161649
0.0164595
0.0167536
0.0170473
0.0173404
0.0176329
0.0179248
0.0182159
0.0185061
0.0187955
0.0190838
0.0193711
0.0196572
0.019942
0.0202255
0.0205075
0.0207879
0.0210666
0.0213436
0.0216187
0.0218918
0.0221627
0.0224314
0.0226978
0.0229616
0.0232228
0.0234813
0.0237369
0.0239895
0.0242389
0.0244851
0.0247278
0.0249669
0.0252024
0.025434
0.0256615
0.025885
0.0261042
0.0263189
0.0265291
0.0267346
0.0269353
0.0271309
0.0273214
0.0275067
0.0276866
0.0278609
0.0280296
0.0281924
0.0283494
0.0285003
0.0286451
0.0287836
0.0289158
0.0290414
0.0291605
0.0292729
0.0293785
0.0294773
0.0295692
0.029654
0.0297318
0.0298025
0.0298659
0.0299222
0.0299711
0.0300128
0.0300471
0.030074
0.0300936
0.0301058
0.0301106
0.030108
0.030098
0.0300807
0.030056
0.0300241
0.0299849
0.0299385
0.0298849
0.0298242
0.0297565
0.0296818
0.0296002
0.0295118
0.0294166
0.0293148
0.0292064
0.0290916
0.0289705
0.028843
0.0287095
0.0285699
0.0284245
0.0282732
0.0281163
0.0279538
0.0277859
0.0276128
0.0274344
0.0272511
0.0270629
0.0268699
0.0266723
0.0264701
0.0262637
0.026053
0.0258382
0.0256195
0.025397
0.0251707
0.0249409
0.0247077
0.0244712
0.0242315
0.0239888
0.0237431
0.0234947
0.0232435
0.0229898
0.0227337
0.0224752
0.0222145
0.0219517
0.0216868
0.0214201
0.0211516
0.0208814
0.0206095
0.0203362
0.0200614
0.0197853
0.0195079
0.0192294
0.0189498
0.0186692
0.0183876
0.0181052
0.017822
0.017538
0.0172534
0.0169682
0.0166825
0.0163963
0.0161096
0.0158225
0.0155352
0.0152475
0.0149596
0.0146715
0.0143832
0.0140948
0.0138063
0.0135178
0.0132292
0.0129407
0.0126522
0.0123637
0.0120753
0.0117871
0.0114989
0.0112109
0.0109231
0.0106354
0.0103479
0.0100606
0.00977357
0.00948672
0.00920009
0.0089137
0.00862755
0.00834164
0.00805598
0.00777056
0.00748539
0.00720047
0.0069158
0.00663136
0.00634717
0.00606322
0.0057795
0.005496
0.00521273
0.00492966
0.0046468
0.00436414
0.00408166
0.00379937
0.00351723
0.00323526
0.00295343
0.00267174
0.00239017
0.00210871
0.00182734
0.00154607
0.00126486
0.000983721
0.000702625
0.000421562
0.000140518
0.000159771
0.000479322
0.000798902
0.00111853
0.00143822
0.001758
0.00207788
0.00239788
0.00271801
0.00303831
0.00335878
0.00367943
0.0040003
0.00432138
0.0046427
0.00496428
0.00528612
0.00560824
0.00593065
0.00625336
0.00657639
0.00689974
0.00722343
0.00754745
0.00787183
0.00819655
0.00852164
0.00884709
0.0091729
0.00949908
0.00982562
0.0101525
0.0104798
0.0108074
0.0111354
0.0114637
0.0117923
0.0121212
0.0124504
0.01278
0.0131097
0.0134398
0.01377
0.0141004
0.014431
0.0147618
0.0150926
0.0154235
0.0157544
0.0160854
0.0164162
0.016747
0.0170776
0.017408
0.0177381
0.0180679
0.0183973
0.0187263
0.0190547
0.0193825
0.0197097
0.0200362
0.0203617
0.0206864
0.0210101
0.0213327
0.021654
0.0219741
0.0222927
0.0226099
0.0229254
0.0232392
0.0235511
0.023861
0.0241688
0.0244744
0.0247777
0.0250784
0.0253765
0.0256718
0.0259642
0.0262535
0.0265396
0.0268224
0.0271016
0.0273772
0.0276489
0.0279166
0.0281803
0.0284396
0.0286944
0.0289446
0.0291901
0.0294306
0.029666
0.0298961
0.0301208
0.03034
0.0305533
0.0307609
0.0309623
0.0311576
0.0313465
0.031529
0.0317048
0.0318739
0.0320361
0.0321912
0.0323393
0.03248
0.0326135
0.0327394
0.0328577
0.0329684
0.0330713
0.0331664
0.0332535
0.0333327
0.0334038
0.0334667
0.0335216
0.0335682
0.0336066
0.0336368
0.0336587
0.0336723
0.0336776
0.0336747
0.0336635
0.0336441
0.0336164
0.0335806
0.0335366
0.0334846
0.0334245
0.0333565
0.0332805
0.0331968
0.0331054
0.0330063
0.0328996
0.0327855
0.0326641
0.0325354
0.0323996
0.0322569
0.0321072
0.0319509
0.0317879
0.0316184
0.0314426
0.0312606
0.0310726
0.0308786
0.0306789
0.0304735
0.0302627
0.0300465
0.0298252
0.0295989
0.0293677
0.0291318
0.0288913
0.0286464
0.0283972
0.0281439
0.0278867
0.0276256
0.0273608
0.0270925
0.0268208
0.0265458
0.0262678
0.0259867
0.0257027
0.0254161
0.0251268
0.0248351
0.024541
0.0242447
0.0239462
0.0236458
0.0233434
0.0230393
0.0227335
0.0224261
0.0221172
0.0218069
0.0214954
0.0211826
0.0208687
0.0205538
0.0202379
0.0199212
0.0196036
0.0192853
0.0189664
0.0186468
0.0183267
0.0180062
0.0176852
0.0173638
0.0170422
0.0167202
0.0163981
0.0160758
0.0157534
0.0154308
0.0151082
0.0147856
0.014463
0.0141405
0.013818
0.0134956
0.0131734
0.0128513
0.0125293
0.0122076
0.011886
0.0115647
0.0112436
0.0109227
0.0106021
0.0102817
0.00996159
0.00964176
0.0093222
0.00900293
0.00868393
0.00836521
0.00804677
0.00772862
0.00741073
0.00709312
0.00677578
0.0064587
0.00614187
0.00582529
0.00550895
0.00519284
0.00487695
0.00456127
0.0042458
0.00393051
0.0036154
0.00330045
0.00298565
0.002671
0.00235646
0.00204204
0.00172772
0.00141347
0.0010993
0.000785176
0.000471091
0.000157028
0.000176554
0.000529673
0.000882824
0.00123603
0.0015893
0.00194267
0.00229616
0.00264978
0.00300355
0.0033575
0.00371164
0.00406599
0.00442057
0.0047754
0.00513049
0.00548586
0.00584153
0.00619751
0.00655382
0.00691046
0.00726746
0.00762481
0.00798254
0.00834065
0.00869915
0.00905805
0.00941734
0.00977704
0.0101371
0.0104977
0.0108586
0.0112199
0.0115816
0.0119438
0.0123063
0.0126692
0.0130324
0.0133961
0.01376
0.0141243
0.0144889
0.0148537
0.0152188
0.0155841
0.0159496
0.0163153
0.0166811
0.017047
0.0174129
0.0177788
0.0181447
0.0185104
0.018876
0.0192414
0.0196065
0.0199712
0.0203356
0.0206994
0.0210627
0.0214253
0.0217873
0.0221483
0.0225085
0.0228677
0.0232258
0.0235827
0.0239382
0.0242924
0.024645
0.0249959
0.025345
0.0256923
0.0260375
0.0263805
0.0267212
0.0270594
0.0273951
0.027728
0.028058
0.0283849
0.0287086
0.0290289
0.0293457
0.0296588
0.0299679
0.0302731
0.030574
0.0308705
0.0311625
0.0314496
0.0317319
0.0320091
0.0322809
0.0325473
0.0328081
0.033063
0.033312
0.0335547
0.0337911
0.034021
0.0342443
0.0344606
0.03467
0.0348721
0.035067
0.0352543
0.0354341
0.035606
0.03577
0.0359261
0.0360739
0.0362134
0.0363446
0.0364672
0.0365813
0.0366866
0.0367832
0.0368709
0.0369497
0.0370195
0.0370802
0.0371319
0.0371744
0.0372078
0.0372321
0.0372471
0.037253
0.0372497
0.0372372
0.0372157
0.037185
0.0371452
0.0370964
0.0370387
0.0369721
0.0368966
0.0368124
0.0367196
0.0366182
0.0365083
0.0363901
0.0362636
0.036129
0.0359863
0.0358358
0.0356776
0.0355117
0.0353384
0.0351578
0.03497
0.0347752
0.0345735
0.0343651
0.0341502
0.0339289
0.0337014
0.0334678
0.0332284
0.0329832
0.0327325
0.0324764
0.0322151
0.0319488
0.0316776
0.0314016
0.0311211
0.0308363
0.0305472
0.030254
0.0299569
0.0296561
0.0293517
0.0290438
0.0287327
0.0284184
0.0281011
0.0277809
0.027458
0.0271325
0.0268046
0.0264743
0.0261418
0.0258073
0.0254707
0.0251324
0.0247922
0.0244505
0.0241072
0.0237625
0.0234165
0.0230693
0.0227209
0.0223715
0.0220212
0.0216699
0.0213179
0.0209651
0.0206117
0.0202577
0.0199031
0.0195482
0.0191928
0.0188371
0.0184811
0.0181249
0.0177685
0.017412
0.0170554
0.0166987