/*--------------------------------*- C++ -*----------------------------------*\
| =========                 |                                                 |
| \\      /  F ield         | OpenFOAM: The Open Source CFD Toolbox           |
|  \\    /   O peration     | Version:  v2012                                 |
|   \\  /    A nd           | Website:  www.openfoam.com                      |
|    \\/     M anipulation  |                                                 |
\*---------------------------------------------------------------------------*/
FoamFile
{
    version     2.0;
    format      ascii;
    class       volScalarField;
    location    "0.3";
    object      Psi_z;
}
// * * * * * * * * * * * * * * * * * * * * * * * * * * * * * * * * * * * * * //

dimensions      [0 2 -1 0 0 0 0];


internalField   nonuniform List<scalar> 
65536
(
8.33438e-06
2.50025e-05
4.16689e-05
5.83325e-05
7.49922e-05
9.16467e-05
0.000108295
0.000124936
0.000141568
0.000158191
0.000174803
0.000191402
0.000207988
0.00022456
0.000241115
0.000257654
0.000274173
0.000290673
0.000307151
0.000323606
0.000340038
0.000356443
0.000372821
0.00038917
0.000405489
0.000421775
0.000438027
0.000454244
0.000470424
0.000486564
0.000502663
0.000518719
0.00053473
0.000550695
0.00056661
0.000582474
0.000598284
0.000614039
0.000629737
0.000645374
0.000660949
0.000676459
0.000691902
0.000707275
0.000722576
0.000737803
0.000752951
0.00076802
0.000783006
0.000797906
0.000812718
0.000827439
0.000842066
0.000856596
0.000871027
0.000885354
0.000899576
0.000913689
0.000927691
0.000941577
0.000955346
0.000968994
0.000982518
0.000995914
0.00100918
0.00102231
0.00103531
0.00104817
0.00106088
0.00107345
0.00108587
0.00109813
0.00111024
0.0011222
0.00113399
0.00114562
0.00115708
0.00116837
0.00117948
0.00119042
0.00120118
0.00121176
0.00122215
0.00123236
0.00124238
0.0012522
0.00126183
0.00127125
0.00128048
0.00128951
0.00129833
0.00130694
0.00131534
0.00132353
0.0013315
0.00133926
0.0013468
0.00135412
0.00136121
0.00136809
0.00137473
0.00138115
0.00138734
0.0013933
0.00139902
0.00140451
0.00140977
0.00141479
0.00141957
0.00142411
0.00142842
0.00143248
0.0014363
0.00143988
0.00144322
0.00144631
0.00144915
0.00145175
0.00145411
0.00145622
0.00145808
0.00145969
0.00146106
0.00146218
0.00146305
0.00146368
0.00146405
0.00146418
0.00146406
0.00146369
0.00146307
0.00146221
0.0014611
0.00145975
0.00145814
0.00145629
0.0014542
0.00145186
0.00144928
0.00144645
0.00144339
0.00144008
0.00143652
0.00143273
0.0014287
0.00142444
0.00141993
0.00141519
0.00141022
0.00140501
0.00139957
0.00139391
0.00138801
0.00138188
0.00137553
0.00136896
0.00136216
0.00135515
0.00134791
0.00134046
0.00133279
0.00132492
0.00131683
0.00130853
0.00130002
0.00129131
0.0012824
0.00127329
0.00126399
0.00125449
0.00124479
0.00123491
0.00122484
0.00121459
0.00120415
0.00119354
0.00118274
0.00117178
0.00116065
0.00114934
0.00113787
0.00112624
0.00111446
0.00110251
0.00109041
0.00107816
0.00106577
0.00105323
0.00104055
0.00102773
0.00101477
0.00100169
0.000988472
0.00097513
0.000961665
0.00094808
0.000934377
0.000920561
0.000906633
0.000892597
0.000878455
0.000864211
0.000849867
0.000835426
0.000820891
0.000806265
0.000791551
0.00077675
0.000761867
0.000746903
0.000731861
0.000716743
0.000701553
0.000686292
0.000670964
0.00065557
0.000640113
0.000624595
0.000609018
0.000593385
0.000577697
0.000561958
0.000546168
0.000530331
0.000514447
0.00049852
0.00048255
0.00046654
0.000450491
0.000434406
0.000418286
0.000402133
0.000385948
0.000369733
0.000353489
0.000337219
0.000320923
0.000304603
0.000288261
0.000271898
0.000255515
0.000239114
0.000222695
0.000206261
0.000189813
0.000173351
0.000156877
0.000140392
0.000123898
0.000107395
9.08852e-05
7.43689e-05
5.78477e-05
4.13225e-05
2.47947e-05
8.26506e-06
2.50035e-05
7.50088e-05
0.000125009
0.000175001
0.000224981
0.000274946
0.000324892
0.000374816
0.000424714
0.000474583
0.000524419
0.000574219
0.000623979
0.000673694
0.000723362
0.000772978
0.000822538
0.000872038
0.000921474
0.000970842
0.00102014
0.00106935
0.00111849
0.00116754
0.00121649
0.00126536
0.00131411
0.00136277
0.00141131
0.00145973
0.00150803
0.0015562
0.00160423
0.00165213
0.00169988
0.00174747
0.0017949
0.00184217
0.00188927
0.00193618
0.00198291
0.00202944
0.00207577
0.00212189
0.0021678
0.00221348
0.00225893
0.00230414
0.0023491
0.0023938
0.00243824
0.00248241
0.00252629
0.00256988
0.00261318
0.00265616
0.00269883
0.00274118
0.00278318
0.00282485
0.00286615
0.0029071
0.00294768
0.00298787
0.00302767
0.00306707
0.00310606
0.00314464
0.00318278
0.00322049
0.00325775
0.00329455
0.00333089
0.00336675
0.00340213
0.00343701
0.0034714
0.00350527
0.00353862
0.00357144
0.00360372
0.00363546
0.00366665
0.00369727
0.00372732
0.00375679
0.00378567
0.00381396
0.00384165
0.00386872
0.00389518
0.00392102
0.00394623
0.0039708
0.00399472
0.004018
0.00404062
0.00406257
0.00408386
0.00410448
0.00412442
0.00414368
0.00416224
0.00418012
0.00419729
0.00421377
0.00422954
0.0042446
0.00425895
0.00427258
0.00428549
0.00429768
0.00430915
0.00431988
0.00432989
0.00433916
0.0043477
0.00435551
0.00436257
0.0043689
0.00437448
0.00437933
0.00438343
0.00438679
0.0043894
0.00439127
0.0043924
0.00439278
0.00439242
0.00439132
0.00438947
0.00438688
0.00438355
0.00437948
0.00437467
0.00436913
0.00436285
0.00435583
0.00434808
0.0043396
0.0043304
0.00432047
0.00430981
0.00429844
0.00428635
0.00427355
0.00426004
0.00424582
0.00423089
0.00421527
0.00419896
0.00418195
0.00416426
0.00414588
0.00412683
0.00410711
0.00408672
0.00406566
0.00404396
0.0040216
0.0039986
0.00397496
0.00395069
0.00392579
0.00390028
0.00387415
0.00384742
0.00382009
0.00379216
0.00376366
0.00373457
0.00370492
0.00367471
0.00364394
0.00361263
0.00358079
0.00354841
0.00351552
0.00348211
0.0034482
0.00341379
0.0033789
0.00334353
0.00330769
0.00327139
0.00323464
0.00319745
0.00315983
0.00312179
0.00308333
0.00304446
0.0030052
0.00296555
0.00292552
0.00288512
0.00284436
0.00280325
0.0027618
0.00272001
0.0026779
0.00263547
0.00259274
0.0025497
0.00250638
0.00246277
0.00241889
0.00237474
0.00233034
0.00228568
0.00224079
0.00219566
0.00215031
0.00210473
0.00205895
0.00201296
0.00196678
0.0019204
0.00187385
0.00182711
0.00178021
0.00173315
0.00168593
0.00163856
0.00159104
0.00154339
0.0014956
0.00144769
0.00139966
0.00135151
0.00130326
0.00125489
0.00120643
0.00115787
0.00110923
0.0010605
0.00101168
0.000962794
0.000913834
0.000864806
0.000815715
0.000766564
0.000717359
0.000668103
0.000618799
0.000569452
0.000520065
0.000470642
0.000421187
0.000371703
0.000322193
0.000272662
0.000223112
0.000173547
0.000123971
7.43856e-05
2.47958e-05
4.16744e-05
0.00012502
0.000208358
0.000291681
0.000374985
0.000458263
0.000541511
0.000624721
0.000707889
0.000791008
0.000874072
0.000957076
0.00104001
0.00112288
0.00120566
0.00128836
0.00137096
0.00145347
0.00153587
0.00161815
0.00170031
0.00178235
0.00186424
0.001946
0.0020276
0.00210904
0.00219031
0.0022714
0.00235231
0.00243302
0.00251352
0.00259381
0.00267388
0.00275371
0.0028333
0.00291263
0.00299169
0.00307048
0.00314898
0.00322718
0.00330506
0.00338263
0.00345985
0.00353673
0.00361325
0.00368939
0.00376515
0.00384051
0.00391545
0.00398997
0.00406404
0.00413766
0.00421081
0.00428347
0.00435564
0.00442729
0.00449842
0.004569
0.00463902
0.00470847
0.00477733
0.00484558
0.00491321
0.00498021
0.00504656
0.00511224
0.00517724
0.00524154
0.00530512
0.00536798
0.00543009
0.00549144
0.00555201
0.00561179
0.00567076
0.00572891
0.00578623
0.00584269
0.00589828
0.005953
0.00600681
0.00605972
0.0061117
0.00616274
0.00621283
0.00626196
0.00631011
0.00635727
0.00640342
0.00644856
0.00649266
0.00653573
0.00657775
0.00661871
0.00665859
0.00669739
0.0067351
0.0067717
0.00680719
0.00684156
0.00687479
0.00690689
0.00693784
0.00696764
0.00699627
0.00702373
0.00705002
0.00707513
0.00709904
0.00712177
0.00714329
0.00716361
0.00718272
0.00720062
0.0072173
0.00723275
0.00724699
0.00726
0.00727177
0.00728232
0.00729163
0.0072997
0.00730654
0.00731214
0.0073165
0.00731961
0.00732149
0.00732213
0.00732153
0.00731969
0.00731661
0.0073123
0.00730674
0.00729996
0.00729194
0.0072827
0.00727223
0.00726053
0.00724761
0.00723348
0.00721814
0.00720158
0.00718382
0.00716487
0.00714471
0.00712337
0.00710085
0.00707714
0.00705227
0.00702623
0.00699903
0.00697068
0.00694118
0.00691055
0.0068788
0.00684592
0.00681193
0.00677684
0.00674065
0.00670338
0.00666504
0.00662564
0.00658518
0.00654368
0.00650114
0.00645759
0.00641303
0.00636747
0.00632092
0.0062734
0.00622492
0.00617549
0.00612513
0.00607385
0.00602165
0.00596857
0.0059146
0.00585976
0.00580407
0.00574754
0.00569019
0.00563203
0.00557307
0.00551333
0.00545282
0.00539157
0.00532957
0.00526686
0.00520344
0.00513933
0.00507454
0.00500909
0.004943
0.00487627
0.00480893
0.00474099
0.00467246
0.00460337
0.00453371
0.00446352
0.00439279
0.00432156
0.00424983
0.00417761
0.00410492
0.00403178
0.00395819
0.00388417
0.00380974
0.00373491
0.00365969
0.00358409
0.00350812
0.00343181
0.00335515
0.00327817
0.00320087
0.00312327
0.00304538
0.0029672
0.00288875
0.00281004
0.00273109
0.00265189
0.00257246
0.00249281
0.00241296
0.0023329
0.00225264
0.00217221
0.0020916
0.00201082
0.00192989
0.00184881
0.00176758
0.00168622
0.00160474
0.00152313
0.00144141
0.00135959
0.00127767
0.00119566
0.00111356
0.00103138
0.000949131
0.000866816
0.00078444
0.000702011
0.000619533
0.000537013
0.000454457
0.00037187
0.000289258
0.000206627
0.000123982
4.13281e-05
5.8348e-05
0.00017504
0.000291721
0.000408381
0.000525015
0.000641612
0.000758167
0.00087467
0.000991113
0.00110749
0.00122379
0.00134
0.00145612
0.00157214
0.00168805
0.00180383
0.00191949
0.002035
0.00215037
0.00226558
0.00238062
0.00249548
0.00261014
0.00272461
0.00283886
0.00295289
0.00306668
0.00318023
0.00329351
0.00340652
0.00351924
0.00363166
0.00374376
0.00385554
0.00396698
0.00407805
0.00418876
0.00429908
0.00440899
0.00451848
0.00462754
0.00473615
0.00484428
0.00495193
0.00505907
0.00516569
0.00527177
0.00537729
0.00548223
0.00558657
0.00569029
0.00579338
0.00589581
0.00599756
0.00609861
0.00619895
0.00629854
0.00639738
0.00649543
0.00659268
0.0066891
0.00678468
0.00687939
0.00697321
0.00706612
0.00715809
0.00724911
0.00733915
0.00742819
0.00751621
0.00760319
0.0076891
0.00777392
0.00785763
0.00794022
0.00802165
0.00810191
0.00818098
0.00825883
0.00833545
0.00841081
0.0084849
0.00855769
0.00862917
0.00869932
0.00876812
0.00883554
0.00890158
0.00896621
0.00902942
0.00909119
0.0091515
0.00921034
0.00926769
0.00932354
0.00937788
0.00943068
0.00948194
0.00953163
0.00957976
0.0096263
0.00967125
0.00971459
0.00975632
0.00979641
0.00983487
0.00987168
0.00990684
0.00994033
0.00997215
0.0100023
0.0100307
0.0100575
0.0100826
0.0101059
0.0101276
0.0101475
0.0101657
0.0101822
0.010197
0.01021
0.0102213
0.0102309
0.0102387
0.0102448
0.0102492
0.0102518
0.0102527
0.0102519
0.0102493
0.010245
0.0102389
0.0102312
0.0102217
0.0102104
0.0101975
0.0101828
0.0101665
0.0101484
0.0101286
0.0101071
0.0100839
0.010059
0.0100325
0.0100043
0.00997438
0.00994283
0.00990964
0.0098748
0.00983834
0.00980025
0.00976055
0.00971925
0.00967635
0.00963188
0.00958584
0.00953824
0.0094891
0.00943843
0.00938624
0.00933255
0.00927737
0.00922071
0.00916259
0.00910303
0.00904204
0.00897963
0.00891583
0.00885065
0.00878411
0.00871622
0.008647
0.00857647
0.00850466
0.00843157
0.00835723
0.00828165
0.00820486
0.00812687
0.00804771
0.0079674
0.00788595
0.00780339
0.00771973
0.007635
0.00754922
0.00746241
0.00737459
0.00728578
0.007196
0.00710528
0.00701363
0.00692108
0.00682764
0.00673335
0.00663821
0.00654225
0.00644549
0.00634796
0.00624966
0.00615063
0.00605088
0.00595043
0.00584931
0.00574753
0.0056451
0.00554206
0.00543842
0.0053342
0.00522942
0.00512409
0.00501823
0.00491186
0.00480501
0.00469767
0.00458988
0.00448165
0.00437299
0.00426392
0.00415446
0.00404462
0.00393441
0.00382386
0.00371296
0.00360175
0.00349023
0.00337842
0.00326632
0.00315396
0.00304134
0.00292847
0.00281538
0.00270206
0.00258853
0.0024748
0.00236089
0.0022468
0.00213254
0.00201813
0.00190356
0.00178886
0.00167404
0.00155909
0.00144403
0.00132888
0.00121363
0.00109829
0.000982882
0.000867406
0.00075187
0.000636283
0.000520654
0.000404989
0.000289297
0.000173586
5.78633e-05
7.50257e-05
0.000225072
0.000375103
0.000525109
0.00067508
0.000825005
0.000974875
0.00112468
0.0012744
0.00142404
0.00157359
0.00172302
0.00187233
0.00202151
0.00217055
0.00231944
0.00246815
0.00261669
0.00276504
0.00291318
0.0030611
0.0032088
0.00335625
0.00350344
0.00365035
0.00379698
0.00394331
0.00408931
0.00423498
0.0043803
0.00452525
0.00466981
0.00481397
0.00495771
0.00510101
0.00524385
0.00538621
0.00552808
0.00566942
0.00581023
0.00595047
0.00609014
0.0062292
0.00636763
0.00650542
0.00664253
0.00677895
0.00691465
0.00704961
0.00718379
0.00731719
0.00744976
0.00758149
0.00771235
0.00784231
0.00797135
0.00809943
0.00822654
0.00835265
0.00847772
0.00860173
0.00872465
0.00884646
0.00896712
0.00908661
0.0092049
0.00932196
0.00943777
0.00955229
0.00966549
0.00977735
0.00988785
0.00999694
0.0101046
0.0102108
0.0103156
0.0104188
0.0105205
0.0106206
0.0107192
0.0108161
0.0109114
0.011005
0.0110969
0.0111872
0.0112756
0.0113624
0.0114473
0.0115304
0.0116117
0.0116912
0.0117687
0.0118444
0.0119182
0.01199
0.0120599
0.0121278
0.0121937
0.0122577
0.0123196
0.0123794
0.0124372
0.012493
0.0125466
0.0125982
0.0126477
0.012695
0.0127402
0.0127833
0.0128242
0.012863
0.0128996
0.012934
0.0129662
0.0129963
0.0130241
0.0130497
0.0130732
0.0130944
0.0131134
0.0131301
0.0131447
0.013157
0.0131671
0.0131749
0.0131805
0.0131839
0.013185
0.013184
0.0131806
0.0131751
0.0131673
0.0131573
0.0131451
0.0131307
0.013114
0.0130951
0.0130741
0.0130508
0.0130254
0.0129977
0.0129679
0.0129359
0.0129018
0.0128655
0.012827
0.0127865
0.0127438
0.012699
0.0126521
0.0126031
0.012552
0.0124989
0.0124437
0.0123865
0.0123273
0.0122661
0.0122029
0.0121377
0.0120706
0.0120015
0.0119306
0.0118577
0.011783
0.0117063
0.0116279
0.0115476
0.0114656
0.0113817
0.0112962
0.0112088
0.0111198
0.0110291
0.0109367
0.0108427
0.0107471
0.0106499
0.0105512
0.0104509
0.010349
0.0102457
0.010141
0.0100348
0.00992721
0.00981823
0.00970791
0.00959626
0.00948331
0.00936909
0.00925362
0.00913694
0.00901907
0.00890004
0.00877987
0.0086586
0.00853624
0.00841283
0.00828839
0.00816295
0.00803654
0.00790918
0.0077809
0.00765172
0.00752167
0.00739077
0.00725905
0.00712654
0.00699326
0.00685922
0.00672447
0.00658901
0.00645288
0.0063161
0.00617868
0.00604065
0.00590203
0.00576285
0.00562312
0.00548286
0.0053421
0.00520085
0.00505913
0.00491696
0.00477436
0.00463135
0.00448795
0.00434416
0.00420002
0.00405553
0.00391071
0.00376558
0.00362015
0.00347443
0.00332845
0.00318221
0.00303573
0.00288903
0.00274211
0.00259499
0.00244768
0.00230019
0.00215254
0.00200473
0.00185679
0.00170871
0.00156052
0.00141222
0.00126382
0.00111534
0.000966777
0.000818152
0.000669472
0.000520747
0.000371987
0.000223202
7.44022e-05
9.17083e-05
0.000275119
0.000458511
0.000641872
0.000825191
0.00100845
0.00119165
0.00137476
0.00155778
0.0017407
0.0019235
0.00210616
0.00228867
0.00247103
0.00265321
0.00283521
0.003017
0.00319857
0.00337991
0.003561
0.00374182
0.00392237
0.00410261
0.00428254
0.00446213
0.00464138
0.00482025
0.00499873
0.00517681
0.00535445
0.00553165
0.00570837
0.00588461
0.00606033
0.00623551
0.00641013
0.00658417
0.0067576
0.00693039
0.00710253
0.00727399
0.00744474
0.00761474
0.00778399
0.00795244
0.00812007
0.00828686
0.00845276
0.00861776
0.00878181
0.0089449
0.00910699
0.00926804
0.00942803
0.00958693
0.0097447
0.0099013
0.0100567
0.0102109
0.0103638
0.0105154
0.0106657
0.0108147
0.0109622
0.0111083
0.0112529
0.0113961
0.0115377
0.0116777
0.0118161
0.0119529
0.012088
0.0122214
0.012353
0.0124829
0.012611
0.0127372
0.0128616
0.012984
0.0131045
0.013223
0.0133395
0.013454
0.0135664
0.0136767
0.0137849
0.013891
0.0139948
0.0140965
0.0141959
0.014293
0.0143879
0.0144804
0.0145706
0.0146584
0.0147439
0.0148269
0.0149075
0.0149857
0.0150614
0.0151346
0.0152053
0.0152734
0.015339
0.0154021
0.0154626
0.0155205
0.0155757
0.0156284
0.0156784
0.0157258
0.0157706
0.0158127
0.0158521
0.0158888
0.0159228
0.0159542
0.0159828
0.0160087
0.016032
0.0160525
0.0160702
0.0160853
0.0160976
0.0161072
0.0161141
0.0161182
0.0161196
0.0161183
0.0161142
0.0161074
0.0160979
0.0160857
0.0160707
0.0160531
0.0160327
0.0160097
0.0159839
0.0159555
0.0159243
0.0158905
0.0158541
0.015815
0.0157732
0.0157288
0.0156818
0.0156322
0.01558
0.0155252
0.0154679
0.015408
0.0153456
0.0152806
0.0152131
0.0151432
0.0150708
0.0149959
0.0149187
0.014839
0.0147569
0.0146725
0.0145857
0.0144966
0.0144052
0.0143115
0.0142156
0.0141174
0.0140171
0.0139146
0.0138099
0.0137032
0.0135943
0.0134834
0.0133705
0.0132555
0.0131386
0.0130197
0.012899
0.0127763
0.0126518
0.0125255
0.0123975
0.0122676
0.0121361
0.0120028
0.0118679
0.0117314
0.0115933
0.0114536
0.0113125
0.0111698
0.0110257
0.0108801
0.0107332
0.0105849
0.0104353
0.0102844
0.0101323
0.00997893
0.00982437
0.00966865
0.00951181
0.00935387
0.00919487
0.00903483
0.00887379
0.00871178
0.00854883
0.00838497
0.00822022
0.00805462
0.00788819
0.00772096
0.00755296
0.00738421
0.00721475
0.00704459
0.00687377
0.0067023
0.00653022
0.00635754
0.00618429
0.00601049
0.00583617
0.00566135
0.00548604
0.00531027
0.00513406
0.00495743
0.00478039
0.00460298
0.0044252
0.00424708
0.00406862
0.00388986
0.0037108
0.00353147
0.00335187
0.00317203
0.00299196
0.00281168
0.00263119
0.00245052
0.00226967
0.00208867
0.00190752
0.00172624
0.00154485
0.00136334
0.00118175
0.00100008
0.000818335
0.000636539
0.000454701
0.000272833
9.09462e-05
0.000108397
0.000325184
0.000541949
0.000758679
0.000975357
0.00119197
0.0014085
0.00162494
0.00184127
0.00205747
0.00227354
0.00248944
0.00270518
0.00292072
0.00313606
0.00335118
0.00356606
0.00378068
0.00399503
0.00420908
0.00442282
0.00463623
0.00484929
0.00506197
0.00527426
0.00548614
0.00569758
0.00590856
0.00611906
0.00632906
0.00653852
0.00674743
0.00695575
0.00716348
0.00737056
0.00757699
0.00778273
0.00798775
0.00819203
0.00839553
0.00859822
0.00880007
0.00900105
0.00920114
0.00940028
0.00959846
0.00979564
0.00999178
0.0101868
0.0103808
0.0105736
0.0107652
0.0109557
0.0111448
0.0113327
0.0115192
0.0117044
0.0118881
0.0120704
0.0122512
0.0124305
0.0126082
0.0127843
0.0129587
0.0131315
0.0133025
0.0134717
0.0136391
0.0138047
0.0139684
0.0141301
0.0142899
0.0144476
0.0146033
0.0147568
0.0149083
0.0150575
0.0152045
0.0153493
0.0154918
0.0156319
0.0157697
0.0159051
0.016038
0.0161684
0.0162964
0.0164218
0.0165446
0.0166648
0.0167823
0.0168972
0.0170093
0.0171187
0.0172254
0.0173293
0.0174303
0.0175285
0.0176238
0.0177162
0.0178057
0.0178922
0.0179758
0.0180564
0.018134
0.0182086
0.0182801
0.0183485
0.0184139
0.0184762
0.0185353
0.0185914
0.0186443
0.018694
0.0187406
0.018784
0.0188243
0.0188613
0.0188952
0.0189258
0.0189533
0.0189775
0.0189985
0.0190163
0.0190309
0.0190422
0.0190504
0.0190552
0.0190569
0.0190553
0.0190505
0.0190425
0.0190312
0.0190168
0.0189991
0.0189782
0.0189542
0.0189269
0.0188964
0.0188628
0.018826
0.018786
0.0187429
0.0186967
0.0186473
0.0185948
0.0185392
0.0184806
0.0184188
0.0183541
0.0182863
0.0182154
0.0181416
0.0180648
0.017985
0.0179023
0.0178167
0.0177282
0.0176368
0.0175426
0.0174456
0.0173457
0.0172431
0.0171377
0.0170297
0.0169189
0.0168055
0.0166894
0.0165708
0.0164496
0.0163258
0.0161996
0.0160709
0.0159397
0.0158062
0.0156703
0.015532
0.0153915
0.0152487
0.0151037
0.0149565
0.0148071
0.0146557
0.0145022
0.0143466
0.014189
0.0140295
0.0138681
0.0137048
0.0135397
0.0133728
0.0132041
0.0130337
0.0128616
0.0126879
0.0125126
0.0123357
0.0121573
0.0119774
0.0117961
0.0116134
0.0114292
0.0112438
0.0110571
0.0108691
0.0106799
0.0104895
0.010298
0.0101053
0.0099116
0.00971683
0.00952105
0.00932429
0.00912659
0.00892798
0.0087285
0.00852816
0.00832701
0.00812506
0.00792236
0.00771894
0.00751481
0.00731
0.00710455
0.00689848
0.00669182
0.00648459
0.00627681
0.00606852
0.00585973
0.00565046
0.00544074
0.0052306
0.00502005
0.00480911
0.0045978
0.00438615
0.00417417
0.00396189
0.00374931
0.00353646
0.00332336
0.00311003
0.00289647
0.00268271
0.00246877
0.00225465
0.00204038
0.00182597
0.00161144
0.0013968
0.00118207
0.000967253
0.000752374
0.000537446
0.000322482
0.000107496
0.000125093
0.000375271
0.000625424
0.000875536
0.00112559
0.00137557
0.00162545
0.00187523
0.00212488
0.00237439
0.00262374
0.0028729
0.00312187
0.00337062
0.00361914
0.0038674
0.00411538
0.00436307
0.00461045
0.00485748
0.00510416
0.00535045
0.00559634
0.0058418
0.00608681
0.00633135
0.00657538
0.00681888
0.00706183
0.00730419
0.00754595
0.00778706
0.00802751
0.00826726
0.00850628
0.00874454
0.00898201
0.00921865
0.00945444
0.00968932
0.00992328
0.0101563
0.0103883
0.0106192
0.0108491
0.0110779
0.0113055
0.0115319
0.011757
0.0119809
0.0122035
0.0124247
0.0126445
0.0128629
0.0130798
0.0132951
0.0135088
0.013721
0.0139314
0.0141401
0.0143471
0.0145523
0.0147556
0.0149569
0.0151564
0.0153538
0.0155492
0.0157425
0.0159336
0.0161226
0.0163093
0.0164937
0.0166758
0.0168556
0.0170329
0.0172077
0.01738
0.0175498
0.0177169
0.0178814
0.0180432
0.0182023
0.0183586
0.0185121
0.0186627
0.0188104
0.0189551
0.0190969
0.0192357
0.0193714
0.019504
0.0196335
0.0197598
0.019883
0.0200029
0.0201195
0.0202329
0.0203429
0.0204496
0.020553
0.0206529
0.0207494
0.0208424
0.020932
0.0210181
0.0211006
0.0211796
0.0212551
0.021327
0.0213953
0.02146
0.0215211
0.0215785
0.0216323
0.0216824
0.0217289
0.0217717
0.0218108
0.0218461
0.0218778
0.0219058
0.0219301
0.0219506
0.0219674
0.0219805
0.0219899
0.0219955
0.0219974
0.0219956
0.02199
0.0219808
0.0219678
0.0219511
0.0219307
0.0219066
0.0218788
0.0218473
0.0218121
0.0217733
0.0217308
0.0216846
0.0216349
0.0215815
0.0215245
0.0214639
0.0213997
0.021332
0.0212607
0.0211859
0.0211076
0.0210259
0.0209406
0.020852
0.0207599
0.0206644
0.0205655
0.0204633
0.0203578
0.0202491
0.020137
0.0200217
0.0199032
0.0197816
0.0196568
0.0195289
0.019398
0.019264
0.019127
0.0189871
0.0188442
0.0186985
0.0185499
0.0183984
0.0182443
0.0180873
0.0179277
0.0177655
0.0176006
0.0174332
0.0172632
0.0170908
0.016916
0.0167387
0.0165591
0.0163772
0.0161931
0.0160067
0.0158182
0.0156276
0.0154349
0.0152401
0.0150434
0.0148447
0.0146442
0.0144418
0.0142376
0.0140317
0.013824
0.0136147
0.0134037
0.0131912
0.0129771
0.0127616
0.0125446
0.0123261
0.0121064
0.0118853
0.0116629
0.0114393
0.0112144
0.0109885
0.0107613
0.0105331
0.0103039
0.0100736
0.00984238
0.0096102
0.00937711
0.00914315
0.00890835
0.00867274
0.00843636
0.00819923
0.00796139
0.00772286
0.00748368
0.00724388
0.00700347
0.0067625
0.00652098
0.00627894
0.00603641
0.0057934
0.00554996
0.00530609
0.00506183
0.00481718
0.00457219
0.00432686
0.00408122
0.00383529
0.00358908
0.00334263
0.00309594
0.00284904
0.00260194
0.00235466
0.00210723
0.00185965
0.00161195
0.00136414
0.00111624
0.000868259
0.000620226
0.000372152
0.000124053
0.000141797
0.000425383
0.00070894
0.000992451
0.0012759
0.00155926
0.00184251
0.00212565
0.00240864
0.00269147
0.00297412
0.00325656
0.00353878
0.00382076
0.00410247
0.00438389
0.004665
0.00494578
0.0052262
0.00550624
0.00578587
0.00606508
0.00634382
0.00662209
0.00689984
0.00717705
0.0074537
0.00772975
0.00800517
0.00827994
0.00855401
0.00882737
0.00909997
0.00937178
0.00964276
0.00991289
0.0101821
0.0104504
0.0107177
0.0109841
0.0112493
0.0115135
0.0117765
0.0120384
0.012299
0.0125584
0.0128165
0.0130732
0.0133285
0.0135824
0.0138348
0.0140856
0.0143349
0.0145825
0.0148284
0.0150726
0.015315
0.0155555
0.0157941
0.0160308
0.0162655
0.0164982
0.0167287
0.0169571
0.0171833
0.0174072
0.0176288
0.017848
0.0180647
0.018279
0.0184908
0.0187
0.0189065
0.0191103
0.0193114
0.0195097
0.0197051
0.0198976
0.0200872
0.0202737
0.0204573
0.0206377
0.0208149
0.020989
0.0211598
0.0213273
0.0214915
0.0216523
0.0218097
0.0219636
0.022114
0.0222609
0.0224041
0.0225438
0.0226798
0.0228121
0.0229406
0.0230654
0.0231865
0.0233036
0.0234169
0.0235264
0.0236319
0.0237335
0.0238311
0.0239247
0.0240143
0.0240999
0.0241815
0.0242589
0.0243323
0.0244015
0.0244667
0.0245277
0.0245845
0.0246372
0.0246857
0.02473
0.0247702
0.0248061
0.0248378
0.0248653
0.0248886
0.0249077
0.0249225
0.0249331
0.0249395
0.0249416
0.0249396
0.0249333
0.0249228
0.024908
0.0248891
0.024866
0.0248386
0.0248071
0.0247714
0.0247315
0.0246874
0.0246392
0.0245869
0.0245304
0.0244699
0.0244052
0.0243365
0.0242638
0.0241869
0.0241061
0.0240213
0.0239325
0.0238398
0.0237431
0.0236425
0.0235381
0.0234298
0.0233177
0.0232018
0.0230821
0.0229588
0.0228317
0.0227009
0.0225666
0.0224286
0.0222871
0.0221421
0.0219936
0.0218416
0.0216862
0.0215275
0.0213655
0.0212002
0.0210317
0.0208599
0.0206851
0.0205071
0.0203261
0.0201421
0.0199551
0.0197652
0.0195725
0.0193769
0.0191786
0.0189776
0.018774
0.0185677
0.0183588
0.0181475
0.0179337
0.0177175
0.017499
0.0172781
0.017055
0.0168298
0.0166023
0.0163728
0.0161413
0.0159077
0.0156722
0.0154348
0.0151956
0.0149546
0.0147119
0.0144675
0.0142214
0.0139738
0.0137245
0.0134738
0.0132217
0.0129681
0.0127132
0.012457
0.0121995
0.0119407
0.0116808
0.0114197
0.0111576
0.0108943
0.01063
0.0103648
0.0100986
0.00983145
0.00956346
0.00929462
0.00902498
0.00875456
0.0084834
0.00821154
0.007939
0.00766581
0.00739201
0.00711762
0.00684268
0.00656721
0.00629123
0.00601478
0.00573787
0.00546055
0.00518282
0.00490472
0.00462627
0.00434748
0.00406839
0.00378902
0.00350938
0.0032295
0.0029494
0.0026691
0.00238862
0.00210798
0.0018272
0.0015463
0.00126529
0.000984202
0.000703047
0.000421847
0.000140619
0.000158511
0.000475523
0.000792504
0.00110943
0.00142629
0.00174305
0.0020597
0.00237621
0.00269256
0.00300873
0.0033247
0.00364044
0.00395594
0.00427116
0.00458609
0.00490069
0.00521495
0.00552884
0.00584234
0.0061554
0.00646802
0.00678016
0.00709179
0.00740288
0.0077134
0.00802333
0.00833262
0.00864125
0.00894918
0.00925637
0.0095628
0.00986843
0.0101732
0.0104771
0.0107801
0.0110821
0.0113832
0.0116832
0.0119821
0.0122798
0.0125764
0.0128718
0.013166
0.0134588
0.0137502
0.0140403
0.0143289
0.0146159
0.0149014
0.0151853
0.0154676
0.0157481
0.0160268
0.0163037
0.0165788
0.0168518
0.0171229
0.0173919
0.0176588
0.0179235
0.018186
0.0184462
0.0187041
0.0189595
0.0192125
0.0194629
0.0197107
0.0199559
0.0201983
0.020438
0.0206749
0.0209088
0.0211398
0.0213678
0.0215927
0.0218145
0.0220331
0.0222484
0.0224605
0.0226691
0.0228744
0.0230762
0.0232745
0.0234691
0.0236602
0.0238476
0.0240312
0.0242111
0.0243871
0.0245593
0.0247275
0.0248918
0.0250521
0.0252083
0.0253604
0.0255084
0.0256522
0.0257917
0.0259271
0.0260582
0.0261849
0.0263073
0.0264253
0.0265389
0.0266481
0.0267528
0.0268531
0.0269488
0.02704
0.0271266
0.0272087
0.0272861
0.027359
0.0274272
0.0274908
0.0275497
0.0276039
0.0276535
0.0276984
0.0277385
0.027774
0.0278048
0.0278308
0.0278521
0.0278687
0.0278806
0.0278877
0.0278901
0.0278878
0.0278808
0.027869
0.0278525
0.0278313
0.0278054
0.0277748
0.0277396
0.0276996
0.027655
0.0276057
0.0275518
0.0274933
0.0274301
0.0273624
0.0272901
0.0272132
0.0271318
0.0270459
0.0269555
0.0268606
0.0267613
0.0266576
0.0265495
0.026437
0.0263202
0.026199
0.0260736
0.025944
0.0258102
0.0256722
0.02553
0.0253838
0.0252335
0.0250792
0.0249209
0.0247587
0.0245926
0.0244226
0.0242488
0.0240713
0.0238901
0.0237052
0.0235166
0.0233246
0.023129
0.0229299
0.0227274
0.0225216
0.0223125
0.0221001
0.0218845
0.0216658
0.021444
0.0212192
0.0209914
0.0207607
0.0205271
0.0202907
0.0200516
0.0198098
0.0195654
0.0193184
0.0190689
0.0188169
0.0185626
0.0183059
0.0180469
0.0177857
0.0175223
0.0172569
0.0169894
0.0167198
0.0164484
0.016175
0.0158999
0.0156229
0.0153442
0.0150639
0.0147819
0.0144984
0.0142133
0.0139268
0.0136388
0.0133495
0.0130589
0.0127669
0.0124738
0.0121794
0.0118839
0.0115874
0.0112897
0.010991
0.0106914
0.0103908
0.0100893
0.009787
0.00948383
0.00917988
0.00887517
0.00856974
0.00826363
0.00795687
0.00764948
0.00734151
0.00703297
0.00672391
0.00641435
0.00610431
0.00579383
0.00548293
0.00517164
0.00485998
0.00454799
0.00423567
0.00392306
0.00361019
0.00329707
0.00298372
0.00267018
0.00235646
0.00204258
0.00172856
0.00141443
0.00110021
0.000785915
0.000471569
0.000157193
0.000175235
0.000525694
0.000876119
0.00122649
0.00157677
0.00192696
0.00227702
0.00262692
0.00297666
0.00332619
0.00367551
0.00402457
0.00437336
0.00472186
0.00507002
0.00541784
0.00576528
0.00611231
0.0064589
0.00680502
0.00715065
0.00749575
0.00784029
0.00818424
0.00852757
0.00887024
0.00921221
0.00955344
0.00989392
0.0102336
0.0105724
0.0109103
0.0112473
0.0115834
0.0119184
0.0122524
0.0125853
0.012917
0.0132475
0.0135768
0.0139048
0.0142314
0.0145567
0.0148805
0.0152028
0.0155236
0.0158427
0.0161602
0.016476
0.01679
0.0171021
0.0174123
0.0177206
0.0180269
0.0183311
0.0186331
0.0189329
0.0192305
0.0195257
0.0198185
0.0201088
0.0203966
0.0206818
0.0209644
0.0212442
0.0215212
0.0217953
0.0220665
0.0223347
0.0225998
0.0228618
0.0231206
0.0233762
0.0236284
0.0238772
0.0241225
0.0243643
0.0246025
0.0248371
0.0250679
0.025295
0.0255182
0.0257376
0.0259529
0.0261643
0.0263716
0.0265747
0.0267737
0.0269685
0.0271589
0.027345
0.0275268
0.027704
0.0278768
0.0280451
0.0282088
0.0283679
0.0285223
0.028672
0.028817
0.0289572
0.0290926
0.0292232
0.0293488
0.0294696
0.0295854
0.0296963
0.0298022
0.029903
0.0299989
0.0300896
0.0301753
0.0302559
0.0303313
0.0304017
0.0304668
0.0305268
0.0305816
0.0306313
0.0306757
0.0307149
0.030749
0.0307777
0.0308013
0.0308197
0.0308328
0.0308407
0.0308433
0.0308407
0.0308329
0.0308199
0.0308017
0.0307782
0.0307496
0.0307157
0.0306767
0.0306325
0.0305832
0.0305286
0.030469
0.0304043
0.0303344
0.0302595
0.0301795
0.0300945
0.0300044
0.0299094
0.0298094
0.0297044
0.0295946
0.0294798
0.0293602
0.0292358
0.0291065
0.0289725
0.0288338
0.0286904
0.0285424
0.0283897
0.0282325
0.0280707
0.0279044
0.0277337
0.0275586
0.0273792
0.0271954
0.0270074
0.0268151
0.0266188
0.0264183
0.0262137
0.0260052
0.0257927
0.0255763
0.0253561
0.0251322
0.0249045
0.0246731
0.0244382
0.0241997
0.0239578
0.0237124
0.0234637
0.0232117
0.0229565
0.0226981
0.0224367
0.0221722
0.0219047
0.0216343
0.0213611
0.0210852
0.0208065
0.0205251
0.0202412
0.0199547