/*--------------------------------*- C++ -*----------------------------------*\
| =========                 |                                                 |
| \\      /  F ield         | OpenFOAM: The Open Source CFD Toolbox           |
|  \\    /   O peration     | Version:  v2012                                 |
|   \\  /    A nd           | Website:  www.openfoam.com                      |
|    \\/     M anipulation  |                                                 |
\*---------------------------------------------------------------------------*/
FoamFile
{
    version     2.0;
    format      ascii;
    class       volVectorField;
    location    "0.3";
    object      U;
}
// * * * * * * * * * * * * * * * * * * * * * * * * * * * * * * * * * * * * * //

dimensions      [0 1 -1 0 0 0 0];


internalField   nonuniform List<vector> 
65536
(
(0.000677656 -0.000677636 0)
(0.00203292 -0.000677587 0)
(0.00338804 -0.000677495 0)
(0.00474294 -0.000677357 0)
(0.00609751 -0.000677174 0)
(0.00745167 -0.000676944 0)
(0.00880533 -0.000676668 0)
(0.0101584 -0.000676344 0)
(0.0115107 -0.000675971 0)
(0.0128623 -0.000675551 0)
(0.014213 -0.000675081 0)
(0.0155627 -0.000674561 0)
(0.0169113 -0.00067399 0)
(0.0182587 -0.000673368 0)
(0.0196048 -0.000672693 0)
(0.0209495 -0.000671963 0)
(0.0222927 -0.000671179 0)
(0.0236343 -0.000670338 0)
(0.0249741 -0.000669441 0)
(0.0263121 -0.000668484 0)
(0.0276481 -0.000667467 0)
(0.028982 -0.000666388 0)
(0.0303137 -0.000665246 0)
(0.031643 -0.00066404 0)
(0.0329699 -0.000662767 0)
(0.0342942 -0.000661427 0)
(0.0356157 -0.000660017 0)
(0.0369343 -0.000658535 0)
(0.0382499 -0.000656981 0)
(0.0395623 -0.000655352 0)
(0.0408714 -0.000653646 0)
(0.042177 -0.000651861 0)
(0.0434789 -0.000649997 0)
(0.044777 -0.000648049 0)
(0.0460712 -0.000646018 0)
(0.0473612 -0.000643901 0)
(0.0486469 -0.000641696 0)
(0.049928 -0.000639401 0)
(0.0512046 -0.000637014 0)
(0.0524762 -0.000634533 0)
(0.0537428 -0.000631957 0)
(0.0550041 -0.000629283 0)
(0.05626 -0.00062651 0)
(0.0575103 -0.000623636 0)
(0.0587546 -0.000620659 0)
(0.059993 -0.000617577 0)
(0.0612251 -0.000614388 0)
(0.0624506 -0.000611092 0)
(0.0636695 -0.000607686 0)
(0.0648815 -0.000604168 0)
(0.0660863 -0.000600537 0)
(0.0672838 -0.000596792 0)
(0.0684736 -0.000592931 0)
(0.0696556 -0.000588954 0)
(0.0708295 -0.000584857 0)
(0.0719951 -0.000580642 0)
(0.0731522 -0.000576305 0)
(0.0743005 -0.000571847 0)
(0.0754397 -0.000567266 0)
(0.0765697 -0.000562562 0)
(0.0776901 -0.000557734 0)
(0.0788007 -0.000552781 0)
(0.0799013 -0.000547703 0)
(0.0809917 -0.000542499 0)
(0.0820715 -0.000537169 0)
(0.0831405 -0.000531712 0)
(0.0841984 -0.000526129 0)
(0.0852451 -0.00052042 0)
(0.0862802 -0.000514585 0)
(0.0873036 -0.000508624 0)
(0.0883149 -0.000502536 0)
(0.0893138 -0.000496324 0)
(0.0903003 -0.000489987 0)
(0.0912739 -0.000483527 0)
(0.0922345 -0.000476943 0)
(0.0931818 -0.000470237 0)
(0.0941156 -0.000463409 0)
(0.0950356 -0.000456462 0)
(0.0959415 -0.000449396 0)
(0.0968333 -0.000442213 0)
(0.0977105 -0.000434913 0)
(0.098573 -0.0004275 0)
(0.0994206 -0.000419973 0)
(0.100253 -0.000412335 0)
(0.10107 -0.000404589 0)
(0.101872 -0.000396735 0)
(0.102657 -0.000388776 0)
(0.103427 -0.000380713 0)
(0.10418 -0.00037255 0)
(0.104917 -0.000364288 0)
(0.105637 -0.00035593 0)
(0.106341 -0.000347477 0)
(0.107027 -0.000338933 0)
(0.107697 -0.0003303 0)
(0.108349 -0.00032158 0)
(0.108983 -0.000312776 0)
(0.1096 -0.000303891 0)
(0.110199 -0.000294926 0)
(0.11078 -0.000285886 0)
(0.111342 -0.000276771 0)
(0.111887 -0.000267586 0)
(0.112413 -0.000258333 0)
(0.11292 -0.000249015 0)
(0.113409 -0.000239633 0)
(0.113879 -0.000230192 0)
(0.11433 -0.000220693 0)
(0.114762 -0.00021114 0)
(0.115174 -0.000201536 0)
(0.115568 -0.000191882 0)
(0.115942 -0.000182181 0)
(0.116297 -0.000172437 0)
(0.116632 -0.000162652 0)
(0.116947 -0.000152829 0)
(0.117243 -0.00014297 0)
(0.117519 -0.000133078 0)
(0.117775 -0.000123155 0)
(0.118012 -0.000113204 0)
(0.118228 -0.000103228 0)
(0.118425 -9.32293e-05 0)
(0.118601 -8.32099e-05 0)
(0.118758 -7.31727e-05 0)
(0.118894 -6.312e-05 0)
(0.11901 -5.30544e-05 0)
(0.119106 -4.29783e-05 0)
(0.119182 -3.2894e-05 0)
(0.119238 -2.28041e-05 0)
(0.119273 -1.27109e-05 0)
(0.119289 -2.61669e-06 0)
(0.119284 7.47602e-06 0)
(0.119259 1.75649e-05 0)
(0.119213 2.76476e-05 0)
(0.119148 3.77217e-05 0)
(0.119063 4.77849e-05 0)
(0.118957 5.78348e-05 0)
(0.118831 6.7869e-05 0)
(0.118685 7.78853e-05 0)
(0.11852 8.78811e-05 0)
(0.118334 9.78541e-05 0)
(0.118128 0.000107802 0)
(0.117903 0.000117722 0)
(0.117657 0.000127612 0)
(0.117392 0.00013747 0)
(0.117107 0.000147293 0)
(0.116803 0.000157078 0)
(0.116479 0.000166824 0)
(0.116136 0.000176527 0)
(0.115773 0.000186185 0)
(0.115391 0.000195797 0)
(0.11499 0.000205358 0)
(0.114569 0.000214867 0)
(0.11413 0.000224321 0)
(0.113672 0.000233717 0)
(0.113195 0.000243053 0)
(0.1127 0.000252327 0)
(0.112186 0.000261536 0)
(0.111654 0.000270677 0)
(0.111103 0.000279748 0)
(0.110534 0.000288746 0)
(0.109948 0.000297669 0)
(0.109344 0.000306514 0)
(0.108722 0.00031528 0)
(0.108083 0.000323962 0)
(0.107426 0.00033256 0)
(0.106752 0.00034107 0)
(0.106062 0.00034949 0)
(0.105354 0.000357819 0)
(0.10463 0.000366053 0)
(0.10389 0.00037419 0)
(0.103133 0.00038223 0)
(0.102361 0.000390168 0)
(0.101573 0.000398004 0)
(0.100769 0.000405735 0)
(0.0999495 0.00041336 0)
(0.0991152 0.000420877 0)
(0.0982659 0.000428283 0)
(0.0974019 0.000435578 0)
(0.0965235 0.00044276 0)
(0.0956308 0.000449828 0)
(0.0947241 0.000456779 0)
(0.0938036 0.000463614 0)
(0.0928695 0.00047033 0)
(0.0919221 0.000476927 0)
(0.0909617 0.000483404 0)
(0.0899884 0.000489759 0)
(0.0890025 0.000495993 0)
(0.0880043 0.000502104 0)
(0.086994 0.000508093 0)
(0.0859718 0.000513958 0)
(0.084938 0.000519699 0)
(0.0838929 0.000525316 0)
(0.0828366 0.00053081 0)
(0.0817695 0.000536179 0)
(0.0806918 0.000541424 0)
(0.0796037 0.000546546 0)
(0.0785055 0.000551545 0)
(0.0773974 0.000556421 0)
(0.0762797 0.000561175 0)
(0.0751526 0.000565807 0)
(0.0740163 0.000570318 0)
(0.0728712 0.000574709 0)
(0.0717174 0.00057898 0)
(0.0705551 0.000583134 0)
(0.0693847 0.00058717 0)
(0.0682064 0.00059109 0)
(0.0670203 0.000594896 0)
(0.0658267 0.000598588 0)
(0.0646258 0.000602168 0)
(0.0634179 0.000605637 0)
(0.0622031 0.000608997 0)
(0.0609818 0.000612249 0)
(0.059754 0.000615396 0)
(0.0585201 0.000618438 0)
(0.0572802 0.000621377 0)
(0.0560345 0.000624215 0)
(0.0547832 0.000626954 0)
(0.0535266 0.000629595 0)
(0.0522647 0.00063214 0)
(0.0509979 0.000634592 0)
(0.0497263 0.000636952 0)
(0.04845 0.000639221 0)
(0.0471693 0.000641402 0)
(0.0458843 0.000643497 0)
(0.0445952 0.000645506 0)
(0.0433022 0.000647434 0)
(0.0420054 0.00064928 0)
(0.040705 0.000651047 0)
(0.0394012 0.000652736 0)
(0.038094 0.000654351 0)
(0.0367837 0.000655891 0)
(0.0354704 0.000657359 0)
(0.0341542 0.000658757 0)
(0.0328353 0.000660087 0)
(0.0315138 0.000661349 0)
(0.0301898 0.000662546 0)
(0.0288635 0.000663679 0)
(0.027535 0.00066475 0)
(0.0262044 0.00066576 0)
(0.0248719 0.00066671 0)
(0.0235375 0.000667602 0)
(0.0222014 0.000668437 0)
(0.0208637 0.000669216 0)
(0.0195245 0.000669941 0)
(0.0181839 0.000670612 0)
(0.016842 0.000671231 0)
(0.0154989 0.000671799 0)
(0.0141548 0.000672316 0)
(0.0128096 0.000672783 0)
(0.0114636 0.000673202 0)
(0.0101168 0.000673572 0)
(0.00876926 0.000673894 0)
(0.00742115 0.00067417 0)
(0.00607253 0.000674399 0)
(0.0047235 0.000674581 0)
(0.00337416 0.000674718 0)
(0.00202459 0.000674809 0)
(0.000674877 0.000674854 0)
(0.000677697 -0.00203294 0)
(0.00203305 -0.0020328 0)
(0.00338826 -0.00203252 0)
(0.00474324 -0.00203211 0)
(0.0060979 -0.00203156 0)
(0.00745216 -0.00203087 0)
(0.0088059 -0.00203004 0)
(0.010159 -0.00202907 0)
(0.0115115 -0.00202796 0)
(0.0128632 -0.0020267 0)
(0.0142139 -0.00202529 0)
(0.0155637 -0.00202373 0)
(0.0169124 -0.00202202 0)
(0.0182599 -0.00202015 0)
(0.0196061 -0.00201812 0)
(0.020951 -0.00201594 0)
(0.0222943 -0.00201359 0)
(0.0236359 -0.00201107 0)
(0.0249759 -0.00200837 0)
(0.026314 -0.00200551 0)
(0.0276501 -0.00200246 0)
(0.0289842 -0.00199922 0)
(0.030316 -0.0019958 0)
(0.0316454 -0.00199218 0)
(0.0329725 -0.00198836 0)
(0.0342968 -0.00198434 0)
(0.0356185 -0.00198012 0)
(0.0369373 -0.00197567 0)
(0.038253 -0.00197101 0)
(0.0395655 -0.00196613 0)
(0.0408748 -0.00196101 0)
(0.0421805 -0.00195566 0)
(0.0434826 -0.00195007 0)
(0.0447809 -0.00194423 0)
(0.0460752 -0.00193814 0)
(0.0473654 -0.00193179 0)
(0.0486513 -0.00192517 0)
(0.0499326 -0.00191829 0)
(0.0512093 -0.00191113 0)
(0.0524811 -0.00190369 0)
(0.0537479 -0.00189596 0)
(0.0550094 -0.00188794 0)
(0.0562655 -0.00187963 0)
(0.057516 -0.00187101 0)
(0.0587606 -0.00186208 0)
(0.0599991 -0.00185283 0)
(0.0612314 -0.00184327 0)
(0.0624572 -0.00183338 0)
(0.0636763 -0.00182316 0)
(0.0648885 -0.00181261 0)
(0.0660935 -0.00180172 0)
(0.0672912 -0.00179049 0)
(0.0684813 -0.00177891 0)
(0.0696635 -0.00176698 0)
(0.0708377 -0.00175469 0)
(0.0720035 -0.00174204 0)
(0.0731609 -0.00172903 0)
(0.0743094 -0.00171566 0)
(0.0754489 -0.00170192 0)
(0.0765791 -0.00168781 0)
(0.0776997 -0.00167332 0)
(0.0788106 -0.00165847 0)
(0.0799115 -0.00164323 0)
(0.081002 -0.00162762 0)
(0.0820821 -0.00161163 0)
(0.0831513 -0.00159526 0)
(0.0842096 -0.00157851 0)
(0.0852565 -0.00156139 0)
(0.0862919 -0.00154388 0)
(0.0873155 -0.001526 0)
(0.088327 -0.00150773 0)
(0.0893262 -0.0014891 0)
(0.0903129 -0.00147009 0)
(0.0912868 -0.0014507 0)
(0.0922476 -0.00143095 0)
(0.0931952 -0.00141083 0)
(0.0941292 -0.00139035 0)
(0.0950494 -0.00136951 0)
(0.0959556 -0.00134831 0)
(0.0968476 -0.00132675 0)
(0.0977251 -0.00130486 0)
(0.0985878 -0.00128261 0)
(0.0994356 -0.00126003 0)
(0.100268 -0.00123712 0)
(0.101086 -0.00121387 0)
(0.101887 -0.00119031 0)
(0.102673 -0.00116643 0)
(0.103443 -0.00114224 0)
(0.104196 -0.00111775 0)
(0.104933 -0.00109296 0)
(0.105654 -0.00106789 0)
(0.106358 -0.00104253 0)
(0.107044 -0.00101689 0)
(0.107714 -0.000990989 0)
(0.108366 -0.000964827 0)
(0.109001 -0.000938413 0)
(0.109618 -0.000911753 0)
(0.110217 -0.000884858 0)
(0.110798 -0.000857733 0)
(0.11136 -0.000830388 0)
(0.111905 -0.00080283 0)
(0.112431 -0.000775068 0)
(0.112939 -0.000747109 0)
(0.113428 -0.000718963 0)
(0.113898 -0.000690636 0)
(0.114349 -0.000662138 0)
(0.114781 -0.000633476 0)
(0.115193 -0.000604659 0)
(0.115587 -0.000575695 0)
(0.115961 -0.000546591 0)
(0.116316 -0.000517357 0)
(0.116651 -0.000488 0)
(0.116967 -0.000458527 0)
(0.117263 -0.000428947 0)
(0.117539 -0.000399268 0)
(0.117795 -0.000369497 0)
(0.118032 -0.000339643 0)
(0.118248 -0.000309712 0)
(0.118445 -0.000279712 0)
(0.118621 -0.000249652 0)
(0.118778 -0.000219538 0)
(0.118914 -0.000189377 0)
(0.11903 -0.000159178 0)
(0.119126 -0.000128947 0)
(0.119202 -9.86921e-05 0)
(0.119258 -6.84199e-05 0)
(0.119293 -3.81378e-05 0)
(0.119309 -7.85291e-06 0)
(0.119304 2.24276e-05 0)
(0.119279 5.26965e-05 0)
(0.119234 8.29469e-05 0)
(0.119168 0.000113172 0)
(0.119083 0.000143364 0)
(0.118977 0.000173516 0)
(0.118851 0.000203621 0)
(0.118705 0.000233672 0)
(0.11854 0.000263662 0)
(0.118354 0.000293583 0)
(0.118148 0.000323429 0)
(0.117922 0.000353192 0)
(0.117677 0.000382865 0)
(0.117412 0.000412441 0)
(0.117127 0.000441911 0)
(0.116822 0.00047127 0)
(0.116498 0.000500509 0)
(0.116155 0.000529622 0)
(0.115792 0.0005586 0)
(0.11541 0.000587435 0)
(0.115009 0.000616122 0)
(0.114588 0.000644651 0)
(0.114149 0.000673015 0)
(0.113691 0.000701207 0)
(0.113214 0.000729219 0)
(0.112718 0.000757043 0)
(0.112204 0.000784672 0)
(0.111672 0.000812098 0)
(0.111121 0.000839313 0)
(0.110552 0.00086631 0)
(0.109966 0.000893082 0)
(0.109361 0.00091962 0)
(0.108739 0.000945918 0)
(0.1081 0.000971968 0)
(0.107443 0.000997763 0)
(0.106769 0.0010233 0)
(0.106078 0.00104856 0)
(0.105371 0.00107355 0)
(0.104647 0.00109825 0)
(0.103906 0.00112267 0)
(0.103149 0.00114679 0)
(0.102377 0.0011706 0)
(0.101588 0.00119411 0)
(0.100784 0.00121731 0)
(0.0999647 0.00124019 0)
(0.0991301 0.00126274 0)
(0.0982806 0.00128496 0)
(0.0974164 0.00130685 0)
(0.0965377 0.00132839 0)
(0.0956448 0.0013496 0)
(0.0947378 0.00137045 0)
(0.0938171 0.00139096 0)
(0.0928828 0.00141111 0)
(0.0919352 0.0014309 0)
(0.0909745 0.00145033 0)
(0.090001 0.0014694 0)
(0.0890149 0.0014881 0)
(0.0880164 0.00150643 0)
(0.0870058 0.0015244 0)
(0.0859834 0.00154199 0)
(0.0849494 0.00155922 0)
(0.083904 0.00157607 0)
(0.0828475 0.00159255 0)
(0.0817801 0.00160866 0)
(0.0807022 0.0016244 0)
(0.0796138 0.00163976 0)
(0.0785154 0.00165476 0)
(0.077407 0.00166938 0)
(0.0762891 0.00168364 0)
(0.0751617 0.00169754 0)
(0.0740252 0.00171107 0)
(0.0728799 0.00172424 0)
(0.0717258 0.00173706 0)
(0.0705634 0.00174952 0)
(0.0693927 0.00176163 0)
(0.0682141 0.00177338 0)
(0.0670278 0.0017848 0)
(0.0658339 0.00179588 0)
(0.0646329 0.00180661 0)
(0.0634247 0.00181702 0)
(0.0622098 0.0018271 0)
(0.0609882 0.00183685 0)
(0.0597602 0.00184629 0)
(0.0585261 0.00185542 0)
(0.057286 0.00186423 0)
(0.0560401 0.00187274 0)
(0.0547886 0.00188096 0)
(0.0535318 0.00188888 0)
(0.0522698 0.00189652 0)
(0.0510027 0.00190387 0)
(0.0497309 0.00191095 0)
(0.0484545 0.00191775 0)
(0.0471736 0.00192429 0)
(0.0458884 0.00193057 0)
(0.0445992 0.0019366 0)
(0.043306 0.00194238 0)
(0.042009 0.00194792 0)
(0.0407085 0.00195322 0)
(0.0394045 0.00195829 0)
(0.0380972 0.00196313 0)
(0.0367867 0.00196775 0)
(0.0354732 0.00197215 0)
(0.0341569 0.00197634 0)
(0.0328379 0.00198033 0)
(0.0315162 0.00198411 0)
(0.0301921 0.0019877 0)
(0.0288657 0.0019911 0)
(0.0275371 0.00199431 0)
(0.0262064 0.00199734 0)
(0.0248738 0.00200019 0)
(0.0235393 0.00200286 0)
(0.0222031 0.00200537 0)
(0.0208653 0.0020077 0)
(0.0195259 0.00200988 0)
(0.0181852 0.00201189 0)
(0.0168432 0.00201375 0)
(0.0155 0.00201545 0)
(0.0141558 0.002017 0)
(0.0128105 0.0020184 0)
(0.0114644 0.00201965 0)
(0.0101175 0.00202076 0)
(0.00876986 0.00202173 0)
(0.00742165 0.00202256 0)
(0.00607295 0.00202324 0)
(0.00472383 0.00202379 0)
(0.00337439 0.0020242 0)
(0.00202472 0.00202447 0)
(0.000674923 0.00202461 0)
(0.000677789 -0.00338838 0)
(0.00203332 -0.00338815 0)
(0.00338872 -0.00338769 0)
(0.00474389 -0.003387 0)
(0.00609874 -0.00338609 0)
(0.00745318 -0.00338494 0)
(0.00880711 -0.00338356 0)
(0.0101604 -0.00338194 0)
(0.0115131 -0.00338009 0)
(0.012865 -0.00337799 0)
(0.0142159 -0.00337564 0)
(0.0155659 -0.00337305 0)
(0.0169148 -0.0033702 0)
(0.0182625 -0.00336709 0)
(0.019609 -0.00336372 0)
(0.020954 -0.00336008 0)
(0.0222975 -0.00335616 0)
(0.0236394 -0.00335197 0)
(0.0249796 -0.00334748 0)
(0.026318 -0.00334271 0)
(0.0276543 -0.00333763 0)
(0.0289886 -0.00333224 0)
(0.0303207 -0.00332654 0)
(0.0316504 -0.00332052 0)
(0.0329777 -0.00331417 0)
(0.0343024 -0.00330747 0)
(0.0356243 -0.00330043 0)
(0.0369434 -0.00329303 0)
(0.0382594 -0.00328527 0)
(0.0395722 -0.00327713 0)
(0.0408818 -0.00326861 0)
(0.0421878 -0.0032597 0)
(0.0434903 -0.00325038 0)
(0.0447889 -0.00324066 0)
(0.0460835 -0.00323051 0)
(0.0473741 -0.00321994 0)
(0.0486603 -0.00320892 0)
(0.049942 -0.00319745 0)
(0.0512191 -0.00318553 0)
(0.0524913 -0.00317313 0)
(0.0537584 -0.00316026 0)
(0.0550204 -0.0031469 0)
(0.0562769 -0.00313305 0)
(0.0575277 -0.00311869 0)
(0.0587727 -0.00310381 0)
(0.0600117 -0.00308841 0)
(0.0612444 -0.00307248 0)
(0.0624707 -0.003056 0)
(0.0636902 -0.00303898 0)
(0.0649028 -0.0030214 0)
(0.0661083 -0.00300325 0)
(0.0673065 -0.00298453 0)
(0.068497 -0.00296524 0)
(0.0696797 -0.00294535 0)
(0.0708544 -0.00292488 0)
(0.0720207 -0.00290381 0)
(0.0731785 -0.00288213 0)
(0.0743275 -0.00285984 0)
(0.0754675 -0.00283694 0)
(0.0765982 -0.00281343 0)
(0.0777193 -0.00278929 0)
(0.0788307 -0.00276453 0)
(0.0799321 -0.00273914 0)
(0.0810232 -0.00271312 0)
(0.0821037 -0.00268647 0)
(0.0831735 -0.00265919 0)
(0.0842322 -0.00263128 0)
(0.0852796 -0.00260273 0)
(0.0863155 -0.00257355 0)
(0.0873396 -0.00254374 0)
(0.0883517 -0.00251331 0)
(0.0893514 -0.00248224 0)
(0.0903386 -0.00245056 0)
(0.0913129 -0.00241825 0)
(0.0922743 -0.00238533 0)
(0.0932223 -0.00235179 0)
(0.0941568 -0.00231765 0)
(0.0950775 -0.00228291 0)
(0.0959842 -0.00224757 0)
(0.0968766 -0.00221164 0)
(0.0977546 -0.00217514 0)
(0.0986178 -0.00213806 0)
(0.099466 -0.00210042 0)
(0.100299 -0.00206223 0)
(0.101117 -0.00202348 0)
(0.101919 -0.0019842 0)
(0.102705 -0.0019444 0)
(0.103475 -0.00190408 0)
(0.104229 -0.00186325 0)
(0.104967 -0.00182193 0)
(0.105688 -0.00178012 0)
(0.106392 -0.00173785 0)
(0.107079 -0.00169512 0)
(0.107749 -0.00165194 0)
(0.108401 -0.00160833 0)
(0.109036 -0.00156429 0)
(0.109653 -0.00151985 0)
(0.110253 -0.00147502 0)
(0.110834 -0.0014298 0)
(0.111397 -0.00138422 0)
(0.111942 -0.00133828 0)
(0.112468 -0.001292 0)
(0.112976 -0.00124539 0)
(0.113465 -0.00119847 0)
(0.113935 -0.00115125 0)
(0.114387 -0.00110375 0)
(0.114819 -0.00105597 0)
(0.115232 -0.00100793 0)
(0.115626 -0.000959647 0)
(0.116 -0.000911132 0)
(0.116355 -0.000862399 0)
(0.11669 -0.000813461 0)
(0.117006 -0.000764332 0)
(0.117302 -0.000715023 0)
(0.117578 -0.000665549 0)
(0.117835 -0.000615923 0)
(0.118071 -0.000566157 0)
(0.118288 -0.000516264 0)
(0.118485 -0.000466256 0)
(0.118661 -0.000416147 0)
(0.118818 -0.000365948 0)
(0.118954 -0.000315673 0)
(0.11907 -0.000265333 0)
(0.119167 -0.00021494 0)
(0.119242 -0.000164507 0)
(0.119298 -0.000114045 0)
(0.119334 -6.3567e-05 0)
(0.119349 -1.30843e-05 0)
(0.119344 3.7391e-05 0)
(0.119319 8.78472e-05 0)
(0.119274 0.000138272 0)
(0.119208 0.000188655 0)
(0.119123 0.000238983 0)
(0.119017 0.000289244 0)
(0.118891 0.000339427 0)
(0.118745 0.00038952 0)
(0.118579 0.000439511 0)
(0.118394 0.000489388 0)
(0.118188 0.000539139 0)
(0.117962 0.000588752 0)
(0.117716 0.000638215 0)
(0.117451 0.000687516 0)
(0.117166 0.000736643 0)
(0.116862 0.000785582 0)
(0.116537 0.000834323 0)
(0.116194 0.000882851 0)
(0.115831 0.000931156 0)
(0.115448 0.000979224 0)
(0.115047 0.00102704 0)
(0.114626 0.0010746 0)
(0.114187 0.00112188 0)
(0.113728 0.00116888 0)
(0.113251 0.00121557 0)
(0.112755 0.00126195 0)
(0.112241 0.00130801 0)
(0.111708 0.00135373 0)
(0.111157 0.0013991 0)
(0.110588 0.0014441 0)
(0.110001 0.00148873 0)
(0.109397 0.00153297 0)
(0.108774 0.0015768 0)
(0.108134 0.00162023 0)
(0.107477 0.00166323 0)
(0.106803 0.00170579 0)
(0.106112 0.0017479 0)
(0.105404 0.00178956 0)
(0.104679 0.00183074 0)
(0.103938 0.00187144 0)
(0.103181 0.00191165 0)
(0.102408 0.00195135 0)
(0.101619 0.00199054 0)
(0.100815 0.0020292 0)
(0.0999949 0.00206734 0)
(0.0991599 0.00210493 0)
(0.09831 0.00214197 0)
(0.0974454 0.00217845 0)
(0.0965662 0.00221437 0)
(0.0956728 0.00224971 0)
(0.0947654 0.00228448 0)
(0.0938442 0.00231866 0)
(0.0929094 0.00235224 0)
(0.0919613 0.00238523 0)
(0.0910002 0.00241762 0)
(0.0900261 0.0024494 0)
(0.0890395 0.00248057 0)
(0.0880406 0.00251113 0)
(0.0870295 0.00254108 0)
(0.0860066 0.0025704 0)
(0.0849721 0.00259911 0)
(0.0839262 0.0026272 0)
(0.0828692 0.00265466 0)
(0.0818014 0.00268151 0)
(0.0807229 0.00270774 0)
(0.0796341 0.00273335 0)
(0.0785351 0.00275834 0)
(0.0774263 0.00278271 0)
(0.0763078 0.00280648 0)
(0.07518 0.00282964 0)
(0.074043 0.00285219 0)
(0.0728972 0.00287414 0)
(0.0717427 0.00289549 0)
(0.0705797 0.00291625 0)
(0.0694086 0.00293643 0)
(0.0682295 0.00295602 0)
(0.0670427 0.00297505 0)
(0.0658485 0.0029935 0)
(0.0646469 0.00301139 0)
(0.0634384 0.00302873 0)
(0.062223 0.00304552 0)
(0.061001 0.00306178 0)
(0.0597726 0.0030775 0)
(0.058538 0.0030927 0)
(0.0572975 0.00310739 0)
(0.0560512 0.00312157 0)
(0.0547994 0.00313526 0)
(0.0535421 0.00314845 0)
(0.0522797 0.00316117 0)
(0.0510123 0.00317342 0)
(0.0497402 0.00318521 0)
(0.0484634 0.00319655 0)
(0.0471821 0.00320744 0)
(0.0458966 0.00321791 0)
(0.044607 0.00322795 0)
(0.0433135 0.00323757 0)
(0.0420163 0.0032468 0)
(0.0407154 0.00325562 0)
(0.0394111 0.00326406 0)
(0.0381035 0.00327212 0)
(0.0367927 0.00327982 0)
(0.035479 0.00328715 0)
(0.0341624 0.00329413 0)
(0.032843 0.00330077 0)
(0.0315211 0.00330708 0)
(0.0301968 0.00331305 0)
(0.0288701 0.00331871 0)
(0.0275413 0.00332406 0)
(0.0262103 0.0033291 0)
(0.0248774 0.00333384 0)
(0.0235427 0.0033383 0)
(0.0222063 0.00334246 0)
(0.0208683 0.00334636 0)
(0.0195287 0.00334997 0)
(0.0181878 0.00335333 0)
(0.0168456 0.00335642 0)
(0.0155022 0.00335925 0)
(0.0141577 0.00336183 0)
(0.0128123 0.00336416 0)
(0.011466 0.00336625 0)
(0.0101189 0.0033681 0)
(0.00877105 0.00336971 0)
(0.00742266 0.00337109 0)
(0.00607377 0.00337223 0)
(0.00472446 0.00337314 0)
(0.00337484 0.00337382 0)
(0.002025 0.00337427 0)
(0.000675013 0.0033745 0)
(0.000677927 -0.00474405 0)
(0.00203373 -0.00474373 0)
(0.00338941 -0.00474309 0)
(0.00474485 -0.00474213 0)
(0.00609998 -0.00474085 0)
(0.0074547 -0.00473925 0)
(0.00880892 -0.00473732 0)
(0.0101625 -0.00473506 0)
(0.0115155 -0.00473246 0)
(0.0128676 -0.00472953 0)
(0.0142189 -0.00472625 0)
(0.0155692 -0.00472262 0)
(0.0169184 -0.00471864 0)
(0.0182664 -0.0047143 0)
(0.0196132 -0.00470958 0)
(0.0209586 -0.0047045 0)
(0.0223024 -0.00469902 0)
(0.0236447 -0.00469316 0)
(0.0249852 -0.00468689 0)
(0.0263239 -0.00468021 0)
(0.0276606 -0.00467311 0)
(0.0289953 -0.00466558 0)
(0.0303278 -0.00465761 0)
(0.0316579 -0.00464919 0)
(0.0329856 -0.00464031 0)
(0.0343106 -0.00463095 0)
(0.035633 -0.0046211 0)
(0.0369525 -0.00461076 0)
(0.038269 -0.0045999 0)
(0.0395823 -0.00458852 0)
(0.0408923 -0.00457661 0)
(0.0421988 -0.00456414 0)
(0.0435017 -0.00455111 0)
(0.0448008 -0.00453751 0)
(0.046096 -0.00452332 0)
(0.0473871 -0.00450853 0)
(0.0486738 -0.00449312 0)
(0.0499561 -0.00447708 0)
(0.0512337 -0.0044604 0)
(0.0525065 -0.00444306 0)
(0.0537742 -0.00442505 0)
(0.0550367 -0.00440636 0)
(0.0562938 -0.00438698 0)
(0.0575453 -0.00436688 0)
(0.058791 -0.00434607 0)
(0.0600306 -0.00432452 0)
(0.0612639 -0.00430222 0)
(0.0624908 -0.00427917 0)
(0.063711 -0.00425535 0)
(0.0649243 -0.00423075 0)
(0.0661305 -0.00420535 0)
(0.0673293 -0.00417916 0)
(0.0685206 -0.00415215 0)
(0.069704 -0.00412433 0)
(0.0708794 -0.00409567 0)
(0.0720464 -0.00406617 0)
(0.0732049 -0.00403583 0)
(0.0743547 -0.00400464 0)
(0.0754954 -0.00397259 0)
(0.0766268 -0.00393967 0)
(0.0777487 -0.00390588 0)
(0.0788609 -0.00387122 0)
(0.079963 -0.00383568 0)
(0.0810548 -0.00379925 0)
(0.0821361 -0.00376194 0)
(0.0832067 -0.00372375 0)
(0.0842662 -0.00368467 0)
(0.0853143 -0.00364471 0)
(0.086351 -0.00360386 0)
(0.0873758 -0.00356212 0)
(0.0883886 -0.00351951 0)
(0.0893891 -0.00347601 0)
(0.090377 -0.00343165 0)
(0.0913522 -0.00338641 0)
(0.0923142 -0.00334031 0)
(0.093263 -0.00329335 0)
(0.0941982 -0.00324555 0)
(0.0951196 -0.0031969 0)
(0.096027 -0.00314742 0)
(0.0969202 -0.00309711 0)
(0.0977988 -0.003046 0)
(0.0986627 -0.00299408 0)
(0.0995116 -0.00294137 0)
(0.100345 -0.00288788 0)
(0.101164 -0.00283363 0)
(0.101966 -0.00277862 0)
(0.102753 -0.00272288 0)
(0.103524 -0.00266641 0)
(0.104279 -0.00260924 0)
(0.105017 -0.00255137 0)
(0.105738 -0.00249283 0)
(0.106443 -0.00243363 0)
(0.10713 -0.00237379 0)
(0.107801 -0.00231332 0)
(0.108454 -0.00225225 0)
(0.109089 -0.00219058 0)
(0.109707 -0.00212835 0)
(0.110307 -0.00206556 0)
(0.110889 -0.00200224 0)
(0.111452 -0.0019384 0)
(0.111997 -0.00187407 0)
(0.112524 -0.00180926 0)
(0.113032 -0.00174399 0)
(0.113522 -0.00167828 0)
(0.113992 -0.00161215 0)
(0.114444 -0.00154563 0)
(0.114877 -0.00147872 0)
(0.11529 -0.00141144 0)
(0.115684 -0.00134383 0)
(0.116059 -0.00127589 0)
(0.116414 -0.00120765 0)
(0.116749 -0.00113911 0)
(0.117065 -0.00107031 0)
(0.117362 -0.00100126 0)
(0.117638 -0.000931982 0)
(0.117895 -0.000862487 0)
(0.118131 -0.000792797 0)
(0.118348 -0.000722929 0)
(0.118545 -0.000652901 0)
(0.118722 -0.00058273 0)
(0.118878 -0.000512435 0)
(0.119015 -0.000442032 0)
(0.119131 -0.000371539 0)
(0.119227 -0.000300972 0)
(0.119303 -0.000230349 0)
(0.119359 -0.000159686 0)
(0.119394 -8.89997e-05 0)
(0.11941 -1.83074e-05 0)
(0.119405 5.23747e-05 0)
(0.11938 0.00012303 0)
(0.119334 0.000193642 0)
(0.119269 0.000264194 0)
(0.119183 0.000334669 0)
(0.119077 0.000405052 0)
(0.118951 0.000475324 0)
(0.118805 0.000545471 0)
(0.118639 0.000615475 0)
(0.118453 0.00068532 0)
(0.118247 0.000754989 0)
(0.118022 0.000824464 0)
(0.117776 0.000893729 0)
(0.11751 0.000962767 0)
(0.117225 0.00103156 0)
(0.11692 0.00110009 0)
(0.116596 0.00116835 0)
(0.116252 0.00123631 0)
(0.115888 0.00130395 0)
(0.115506 0.00137126 0)
(0.115104 0.00143823 0)
(0.114683 0.00150482 0)
(0.114243 0.00157104 0)
(0.113784 0.00163685 0)
(0.113307 0.00170224 0)
(0.112811 0.00176719 0)
(0.112296 0.00183169 0)
(0.111763 0.00189571 0)
(0.111211 0.00195924 0)
(0.110642 0.00202227 0)
(0.110055 0.00208476 0)
(0.109449 0.00214671 0)
(0.108827 0.0022081 0)
(0.108186 0.00226892 0)
(0.107529 0.00232913 0)
(0.106854 0.00238874 0)
(0.106162 0.00244771 0)
(0.105454 0.00250604 0)
(0.104728 0.00256371 0)
(0.103987 0.0026207 0)
(0.103229 0.00267701 0)
(0.102456 0.00273261 0)
(0.101666 0.00278748 0)
(0.100861 0.00284163 0)
(0.10004 0.00289503 0)
(0.0992047 0.00294767 0)
(0.0983541 0.00299954 0)
(0.0974888 0.00305063 0)
(0.096609 0.00310092 0)
(0.0957149 0.00315041 0)
(0.0948068 0.00319909 0)
(0.0938849 0.00324695 0)
(0.0929494 0.00329398 0)
(0.0920006 0.00334017 0)
(0.0910387 0.00338552 0)
(0.0900639 0.00343002 0)
(0.0890766 0.00347366 0)
(0.0880769 0.00351645 0)
(0.0870651 0.00355837 0)
(0.0860414 0.00359943 0)
(0.0850062 0.00363962 0)
(0.0839595 0.00367895 0)
(0.0829018 0.0037174 0)
(0.0818332 0.00375498 0)
(0.080754 0.0037917 0)
(0.0796644 0.00382755 0)
(0.0785647 0.00386253 0)
(0.0774551 0.00389666 0)
(0.076336 0.00392992 0)
(0.0752074 0.00396234 0)
(0.0740697 0.0039939 0)
(0.0729231 0.00402463 0)
(0.0717679 0.00405451 0)
(0.0706043 0.00408357 0)
(0.0694324 0.00411181 0)
(0.0682527 0.00413924 0)
(0.0670652 0.00416586 0)
(0.0658703 0.00419168 0)
(0.0646681 0.00421672 0)
(0.0634588 0.00424099 0)
(0.0622428 0.00426449 0)
(0.0610201 0.00428723 0)
(0.0597911 0.00430923 0)
(0.0585559 0.0043305 0)
(0.0573148 0.00435105 0)
(0.0560679 0.00437089 0)
(0.0548155 0.00439004 0)
(0.0535577 0.0044085 0)
(0.0522947 0.0044263 0)
(0.0510267 0.00444343 0)
(0.049754 0.00445993 0)
(0.0484767 0.00447578 0)
(0.0471949 0.00449103 0)
(0.0459089 0.00450566 0)
(0.0446188 0.00451971 0)
(0.0433248 0.00453317 0)
(0.0420271 0.00454607 0)
(0.0407257 0.00455841 0)
(0.0394209 0.00457021 0)
(0.0381129 0.00458149 0)
(0.0368017 0.00459225 0)
(0.0354875 0.0046025 0)
(0.0341705 0.00461227 0)
(0.0328508 0.00462155 0)
(0.0315285 0.00463036 0)
(0.0302037 0.00463872 0)
(0.0288767 0.00464663 0)
(0.0275475 0.0046541 0)
(0.0262162 0.00466115 0)
(0.0248829 0.00466779 0)
(0.0235479 0.00467401 0)
(0.0222111 0.00467984 0)
(0.0208727 0.00468528 0)
(0.0195329 0.00469034 0)
(0.0181916 0.00469502 0)
(0.0168491 0.00469934 0)
(0.0155054 0.0047033 0)
(0.0141607 0.00470691 0)
(0.0128149 0.00471017 0)
(0.0114683 0.00471309 0)
(0.0101209 0.00471567 0)
(0.00877284 0.00471792 0)
(0.00742417 0.00471984 0)
(0.00607499 0.00472144 0)
(0.00472542 0.00472272 0)
(0.00337552 0.00472367 0)
(0.0020254 0.0047243 0)
(0.000675149 0.00472462 0)
(0.00067811 -0.00610004 0)
(0.00203428 -0.00609963 0)
(0.00339032 -0.00609881 0)
(0.00474614 -0.00609758 0)
(0.00610164 -0.00609594 0)
(0.00745673 -0.00609388 0)
(0.00881132 -0.00609141 0)
(0.0101653 -0.00608851 0)
(0.0115187 -0.00608518 0)
(0.0128712 -0.00608141 0)
(0.0142229 -0.00607721 0)
(0.0155736 -0.00607255 0)
(0.0169232 -0.00606745 0)
(0.0182716 -0.00606187 0)
(0.0196188 -0.00605583 0)
(0.0209646 -0.0060493 0)
(0.0223089 -0.00604228 0)
(0.0236516 -0.00603475 0)
(0.0249926 -0.00602671 0)
(0.0263318 -0.00601814 0)
(0.027669 -0.00600903 0)
(0.0290042 -0.00599937 0)
(0.0303371 -0.00598914 0)
(0.0316678 -0.00597833 0)
(0.032996 -0.00596692 0)
(0.0343216 -0.00595491 0)
(0.0356446 -0.00594227 0)
(0.0369646 -0.00592899 0)
(0.0382817 -0.00591506 0)
(0.0395956 -0.00590045 0)
(0.0409062 -0.00588515 0)
(0.0422134 -0.00586915 0)
(0.043517 -0.00585242 0)
(0.0448168 -0.00583495 0)
(0.0461126 -0.00581673 0)
(0.0474044 -0.00579773 0)
(0.0486918 -0.00577794 0)
(0.0499748 -0.00575735 0)
(0.0512532 -0.00573592 0)
(0.0525267 -0.00571365 0)
(0.0537952 -0.00569052 0)
(0.0550585 -0.00566652 0)
(0.0563164 -0.00564161 0)
(0.0575687 -0.0056158 0)
(0.0588152 -0.00558906 0)
(0.0600557 -0.00556138 0)
(0.0612899 -0.00553273 0)
(0.0625177 -0.00550311 0)
(0.0637388 -0.0054725 0)
(0.064953 -0.00544089 0)
(0.0661601 -0.00540826 0)
(0.0673598 -0.0053746 0)
(0.068552 -0.00533989 0)
(0.0697363 -0.00530413 0)
(0.0709126 -0.0052673 0)
(0.0720807 -0.00522939 0)
(0.0732402 -0.00519039 0)
(0.0743909 -0.0051503 0)
(0.0755326 -0.0051091 0)
(0.076665 -0.00506678 0)
(0.0777879 -0.00502335 0)
(0.0789011 -0.00497879 0)
(0.0800042 -0.00493309 0)
(0.081097 -0.00488627 0)
(0.0821794 -0.0048383 0)
(0.0832509 -0.0047892 0)
(0.0843114 -0.00473896 0)
(0.0853606 -0.00468757 0)
(0.0863983 -0.00463505 0)
(0.0874241 -0.00458138 0)
(0.0884379 -0.00452659 0)
(0.0894394 -0.00447066 0)
(0.0904283 -0.00441361 0)
(0.0914044 -0.00435544 0)
(0.0923675 -0.00429615 0)
(0.0933172 -0.00423577 0)
(0.0942534 -0.00417429 0)
(0.0951758 -0.00411173 0)
(0.0960841 -0.00404809 0)
(0.0969782 -0.0039834 0)
(0.0978578 -0.00391766 0)
(0.0987226 -0.00385088 0)
(0.0995724 -0.00378309 0)
(0.100407 -0.0037143 0)
(0.101226 -0.00364452 0)
(0.10203 -0.00357378 0)
(0.102817 -0.00350208 0)
(0.103589 -0.00342946 0)
(0.104344 -0.00335592 0)
(0.105083 -0.00328149 0)
(0.105806 -0.0032062 0)
(0.106511 -0.00313005 0)
(0.107199 -0.00305308 0)
(0.10787 -0.00297531 0)
(0.108524 -0.00289675 0)
(0.10916 -0.00281744 0)
(0.109778 -0.00273739 0)
(0.110379 -0.00265663 0)
(0.110961 -0.00257519 0)
(0.111525 -0.00249308 0)
(0.112071 -0.00241033 0)
(0.112599 -0.00232697 0)
(0.113107 -0.00224302 0)
(0.113597 -0.00215851 0)
(0.114068 -0.00207345 0)
(0.11452 -0.00198789 0)
(0.114953 -0.00190183 0)
(0.115367 -0.0018153 0)
(0.115761 -0.00172834 0)
(0.116136 -0.00164095 0)
(0.116492 -0.00155318 0)
(0.116828 -0.00146503 0)
(0.117144 -0.00137654 0)
(0.117441 -0.00128773 0)
(0.117717 -0.00119863 0)
(0.117974 -0.00110925 0)
(0.118211 -0.00101961 0)
(0.118428 -0.000929752 0)
(0.118625 -0.000839686 0)
(0.118802 -0.000749438 0)
(0.118959 -0.000659028 0)
(0.119095 -0.000568481 0)
(0.119212 -0.000477818 0)