/*--------------------------------*- C++ -*----------------------------------*\
| =========                 |                                                 |
| \\      /  F ield         | OpenFOAM: The Open Source CFD Toolbox           |
|  \\    /   O peration     | Version:  v2012                                 |
|   \\  /    A nd           | Website:  www.openfoam.com                      |
|    \\/     M anipulation  |                                                 |
\*---------------------------------------------------------------------------*/
FoamFile
{
    version     2.0;
    format      ascii;
    class       volVectorField;
    location    "3.7";
    object      U;
}
// * * * * * * * * * * * * * * * * * * * * * * * * * * * * * * * * * * * * * //

dimensions      [0 1 -1 0 0 0 0];


internalField   nonuniform List<vector> 
65536
(
(0.000724458 -0.00072444 0)
(0.00217333 -0.000724399 0)
(0.00362209 -0.000724319 0)
(0.00507064 -0.000724199 0)
(0.00651892 -0.00072404 0)
(0.00796684 -0.00072384 0)
(0.00941432 -0.000723598 0)
(0.0108613 -0.000723314 0)
(0.0123076 -0.000722987 0)
(0.0137533 -0.000722616 0)
(0.0151981 -0.0007222 0)
(0.0166421 -0.000721739 0)
(0.0180851 -0.000721229 0)
(0.0195271 -0.000720671 0)
(0.0209678 -0.000720062 0)
(0.0224074 -0.000719402 0)
(0.0238455 -0.000718688 0)
(0.0252822 -0.000717918 0)
(0.0267172 -0.000717091 0)
(0.0281506 -0.000716204 0)
(0.0295821 -0.000715256 0)
(0.0310117 -0.000714243 0)
(0.0324391 -0.000713165 0)
(0.0338644 -0.000712019 0)
(0.0352873 -0.000710801 0)
(0.0367077 -0.00070951 0)
(0.0381254 -0.000708142 0)
(0.0395403 -0.000706696 0)
(0.0409523 -0.000705169 0)
(0.0423611 -0.000703556 0)
(0.0437666 -0.000701857 0)
(0.0451686 -0.000700067 0)
(0.0465669 -0.000698184 0)
(0.0479614 -0.000696205 0)
(0.0493518 -0.000694127 0)
(0.050738 -0.000691946 0)
(0.0521197 -0.000689659 0)
(0.0534968 -0.000687264 0)
(0.0548689 -0.000684758 0)
(0.0562359 -0.000682136 0)
(0.0575975 -0.000679396 0)
(0.0589536 -0.000676535 0)
(0.0603038 -0.00067355 0)
(0.0616479 -0.000670437 0)
(0.0629857 -0.000667193 0)
(0.0643168 -0.000663816 0)
(0.0656411 -0.000660303 0)
(0.0669582 -0.00065665 0)
(0.0682678 -0.000652855 0)
(0.0695697 -0.000648914 0)
(0.0708636 -0.000644826 0)
(0.0721492 -0.000640587 0)
(0.0734261 -0.000636196 0)
(0.0746941 -0.000631649 0)
(0.0759529 -0.000626944 0)
(0.0772021 -0.000622079 0)
(0.0784413 -0.000617052 0)
(0.0796704 -0.000611861 0)
(0.080889 -0.000606504 0)
(0.0820966 -0.00060098 0)
(0.083293 -0.000595287 0)
(0.0844779 -0.000589424 0)
(0.0856509 -0.000583389 0)
(0.0868117 -0.000577182 0)
(0.0879598 -0.000570802 0)
(0.089095 -0.000564249 0)
(0.090217 -0.000557521 0)
(0.0913253 -0.000550619 0)
(0.0924196 -0.000543542 0)
(0.0934996 -0.000536292 0)
(0.094565 -0.000528868 0)
(0.0956153 -0.000521271 0)
(0.0966502 -0.000513502 0)
(0.0976695 -0.000505562 0)
(0.0986726 -0.000497452 0)
(0.0996594 -0.000489175 0)
(0.10063 -0.000480731 0)
(0.101583 -0.000472123 0)
(0.102518 -0.000463353 0)
(0.103436 -0.000454423 0)
(0.104336 -0.000445337 0)
(0.105218 -0.000436096 0)
(0.106081 -0.000426705 0)
(0.106925 -0.000417166 0)
(0.107749 -0.000407484 0)
(0.108555 -0.000397661 0)
(0.10934 -0.000387702 0)
(0.110106 -0.000377611 0)
(0.110851 -0.000367393 0)
(0.111575 -0.000357051 0)
(0.112279 -0.00034659 0)
(0.112962 -0.000336016 0)
(0.113623 -0.000325333 0)
(0.114263 -0.000314547 0)
(0.114881 -0.000303662 0)
(0.115478 -0.000292684 0)
(0.116052 -0.000281619 0)
(0.116604 -0.000270471 0)
(0.117134 -0.000259248 0)
(0.117642 -0.000247954 0)
(0.118126 -0.000236596 0)
(0.118588 -0.000225178 0)
(0.119027 -0.000213708 0)
(0.119443 -0.000202191 0)
(0.119836 -0.000190633 0)
(0.120205 -0.00017904 0)
(0.120552 -0.000167418 0)
(0.120875 -0.000155773 0)
(0.121175 -0.000144111 0)
(0.121452 -0.000132437 0)
(0.121705 -0.000120759 0)
(0.121935 -0.00010908 0)
(0.122141 -9.74081e-05 0)
(0.122324 -8.57478e-05 0)
(0.122484 -7.41047e-05 0)
(0.122621 -6.24845e-05 0)
(0.122734 -5.08924e-05 0)
(0.122824 -3.93337e-05 0)
(0.122891 -2.78136e-05 0)
(0.122935 -1.6337e-05 0)
(0.122957 -4.90879e-06 0)
(0.122955 6.46623e-06 0)
(0.122931 1.77835e-05 0)
(0.122884 2.90385e-05 0)
(0.122814 4.02271e-05 0)
(0.122723 5.1345e-05 0)
(0.122609 6.23883e-05 0)
(0.122473 7.3353e-05 0)
(0.122316 8.42357e-05 0)
(0.122136 9.50326e-05 0)
(0.121935 0.000105741 0)
(0.121713 0.000116356 0)
(0.12147 0.000126877 0)
(0.121206 0.000137299 0)
(0.12092 0.000147621 0)
(0.120615 0.000157839 0)
(0.120289 0.000167952 0)
(0.119943 0.000177957 0)
(0.119577 0.000187851 0)
(0.119192 0.000197634 0)
(0.118786 0.000207303 0)
(0.118362 0.000216856 0)
(0.117919 0.000226292 0)
(0.117457 0.000235611 0)
(0.116976 0.000244809 0)
(0.116478 0.000253887 0)
(0.115961 0.000262844 0)
(0.115426 0.000271677 0)
(0.114874 0.000280388 0)
(0.114304 0.000288974 0)
(0.113718 0.000297436 0)
(0.113115 0.000305773 0)
(0.112495 0.000313985 0)
(0.111858 0.000322071 0)
(0.111206 0.000330031 0)
(0.110538 0.000337866 0)
(0.109855 0.000345574 0)
(0.109156 0.000353157 0)
(0.108442 0.000360614 0)
(0.107713 0.000367946 0)
(0.10697 0.000375152 0)
(0.106212 0.000382234 0)
(0.105441 0.000389191 0)
(0.104656 0.000396023 0)
(0.103857 0.000402732 0)
(0.103045 0.000409318 0)
(0.102219 0.000415782 0)
(0.101381 0.000422124 0)
(0.100531 0.000428344 0)
(0.0996678 0.000434444 0)
(0.0987928 0.000440423 0)
(0.097906 0.000446284 0)
(0.0970076 0.000452027 0)
(0.0960978 0.000457652 0)
(0.0951768 0.00046316 0)
(0.094245 0.000468553 0)
(0.0933025 0.000473831 0)
(0.0923496 0.000478996 0)
(0.0913864 0.000484047 0)
(0.0904133 0.000488986 0)
(0.0894304 0.000493815 0)
(0.0884379 0.000498534 0)
(0.0874361 0.000503144 0)
(0.0864252 0.000507646 0)
(0.0854054 0.000512042 0)
(0.084377 0.000516333 0)
(0.08334 0.000520519 0)
(0.0822948 0.000524602 0)
(0.0812415 0.000528583 0)
(0.0801804 0.000532463 0)
(0.0791115 0.000536243 0)
(0.0780353 0.000539926 0)
(0.0769517 0.000543511 0)
(0.0758611 0.000547001 0)
(0.0747637 0.000550396 0)
(0.0736595 0.000553698 0)
(0.0725488 0.000556908 0)
(0.0714317 0.000560028 0)
(0.0703086 0.000563058 0)
(0.0691794 0.000566001 0)
(0.0680445 0.000568857 0)
(0.0669039 0.000571628 0)
(0.0657579 0.000574316 0)
(0.0646066 0.000576921 0)
(0.0634501 0.000579445 0)
(0.0622887 0.00058189 0)
(0.0611225 0.000584257 0)
(0.0599516 0.000586547 0)
(0.0587762 0.000588762 0)
(0.0575965 0.000590903 0)
(0.0564125 0.000592972 0)
(0.0552245 0.00059497 0)
(0.0540326 0.000596898 0)
(0.0528369 0.000598758 0)
(0.0516375 0.000600552 0)
(0.0504346 0.00060228 0)
(0.0492283 0.000603945 0)
(0.0480187 0.000605547 0)
(0.046806 0.000607088 0)
(0.0455903 0.00060857 0)
(0.0443717 0.000609993 0)
(0.0431503 0.000611359 0)
(0.0419262 0.000612669 0)
(0.0406996 0.000613926 0)
(0.0394705 0.000615129 0)
(0.038239 0.00061628 0)
(0.0370053 0.000617381 0)
(0.0357694 0.000618432 0)
(0.0345315 0.000619436 0)
(0.0332916 0.000620392 0)
(0.0320499 0.000621303 0)
(0.0308064 0.000622169 0)
(0.0295612 0.000622991 0)
(0.0283144 0.000623771 0)
(0.027066 0.000624509 0)
(0.0258163 0.000625207 0)
(0.0245652 0.000625865 0)
(0.0233128 0.000626484 0)
(0.0220592 0.000627066 0)
(0.0208045 0.00062761 0)
(0.0195487 0.000628119 0)
(0.018292 0.000628591 0)
(0.0170343 0.000629029 0)
(0.0157758 0.000629433 0)
(0.0145165 0.000629804 0)
(0.0132566 0.000630141 0)
(0.0119959 0.000630446 0)
(0.0107347 0.000630719 0)
(0.00947304 0.000630961 0)
(0.00821087 0.000631172 0)
(0.00694832 0.000631351 0)
(0.00568543 0.000631501 0)
(0.00442228 0.000631621 0)
(0.00315892 0.000631709 0)
(0.00189541 0.000631769 0)
(0.000631813 0.000631799 0)
(0.000724495 -0.00217335 0)
(0.00217345 -0.00217323 0)
(0.00362228 -0.00217299 0)
(0.00507091 -0.00217263 0)
(0.00651927 -0.00217216 0)
(0.00796727 -0.00217156 0)
(0.00941483 -0.00217083 0)
(0.0108619 -0.00216998 0)
(0.0123083 -0.002169 0)
(0.013754 -0.00216789 0)
(0.015199 -0.00216664 0)
(0.016643 -0.00216526 0)
(0.0180862 -0.00216373 0)
(0.0195282 -0.00216206 0)
(0.0209691 -0.00216023 0)
(0.0224087 -0.00215826 0)
(0.023847 -0.00215611 0)
(0.0252837 -0.00215381 0)
(0.0267189 -0.00215133 0)
(0.0281524 -0.00214867 0)
(0.029584 -0.00214583 0)
(0.0310137 -0.00214279 0)
(0.0324413 -0.00213956 0)
(0.0338667 -0.00213612 0)
(0.0352897 -0.00213247 0)
(0.0367103 -0.0021286 0)
(0.0381281 -0.0021245 0)
(0.0395432 -0.00212017 0)
(0.0409553 -0.00211559 0)
(0.0423643 -0.00211075 0)
(0.04377 -0.00210566 0)
(0.0451722 -0.00210029 0)
(0.0465707 -0.00209465 0)
(0.0479654 -0.00208871 0)
(0.049356 -0.00208248 0)
(0.0507424 -0.00207594 0)
(0.0521243 -0.00206908 0)
(0.0535016 -0.0020619 0)
(0.0548739 -0.00205438 0)
(0.0562412 -0.00204652 0)
(0.0576031 -0.00203831 0)
(0.0589594 -0.00202973 0)
(0.0603098 -0.00202077 0)
(0.0616542 -0.00201144 0)
(0.0629922 -0.00200171 0)
(0.0643236 -0.00199158 0)
(0.0656482 -0.00198105 0)
(0.0669655 -0.00197009 0)
(0.0682755 -0.00195871 0)
(0.0695777 -0.00194689 0)
(0.0708719 -0.00193463 0)
(0.0721577 -0.00192191 0)
(0.073435 -0.00190874 0)
(0.0747033 -0.0018951 0)
(0.0759624 -0.00188099 0)
(0.0772119 -0.0018664 0)
(0.0784515 -0.00185132 0)
(0.0796809 -0.00183575 0)
(0.0808997 -0.00181968 0)
(0.0821077 -0.00180311 0)
(0.0833045 -0.00178603 0)
(0.0844897 -0.00176844 0)
(0.0856631 -0.00175034 0)
(0.0868241 -0.00173172 0)
(0.0879727 -0.00171258 0)
(0.0891082 -0.00169292 0)
(0.0902305 -0.00167274 0)
(0.0913392 -0.00165203 0)
(0.0924339 -0.0016308 0)
(0.0935142 -0.00160905 0)
(0.0945799 -0.00158678 0)
(0.0956305 -0.00156398 0)
(0.0966658 -0.00154068 0)
(0.0976854 -0.00151685 0)
(0.0986889 -0.00149252 0)
(0.0996761 -0.00146769 0)
(0.100646 -0.00144236 0)
(0.1016 -0.00141653 0)
(0.102536 -0.00139022 0)
(0.103454 -0.00136343 0)
(0.104354 -0.00133616 0)
(0.105236 -0.00130844 0)
(0.106099 -0.00128026 0)
(0.106944 -0.00125164 0)
(0.107769 -0.00122259 0)
(0.108574 -0.00119312 0)
(0.10936 -0.00116324 0)
(0.110126 -0.00113296 0)
(0.110871 -0.0011023 0)
(0.111596 -0.00107127 0)
(0.1123 -0.00103989 0)
(0.112983 -0.00100816 0)
(0.113645 -0.000976104 0)
(0.114285 -0.00094374 0)
(0.114903 -0.00091108 0)
(0.1155 -0.000878141 0)
(0.116074 -0.00084494 0)
(0.116627 -0.000811492 0)
(0.117157 -0.000777816 0)
(0.117664 -0.000743929 0)
(0.118149 -0.000709847 0)
(0.118611 -0.00067559 0)
(0.11905 -0.000641173 0)
(0.119466 -0.000606616 0)
(0.119859 -0.000571936 0)
(0.120229 -0.000537151 0)
(0.120575 -0.000502279 0)
(0.120898 -0.000467338 0)
(0.121198 -0.000432346 0)
(0.121475 -0.00039732 0)
(0.121728 -0.000362278 0)
(0.121958 -0.000327238 0)
(0.122164 -0.000292215 0)
(0.122347 -0.000257229 0)
(0.122507 -0.000222294 0)
(0.122644 -0.000187428 0)
(0.122757 -0.000152647 0)
(0.122847 -0.000117966 0)
(0.122914 -8.34003e-05 0)
(0.122958 -4.89657e-05 0)
(0.122979 -1.46764e-05 0)
(0.122978 1.94532e-05 0)
(0.122953 5.34094e-05 0)
(0.122906 8.71788e-05 0)
(0.122837 0.000120749 0)
(0.122745 0.000154106 0)
(0.122631 0.00018724 0)
(0.122495 0.000220138 0)
(0.122337 0.000252789 0)
(0.122158 0.000285183 0)
(0.121957 0.00031731 0)
(0.121734 0.000349161 0)
(0.121491 0.000380725 0)
(0.121226 0.000411995 0)
(0.120941 0.000442963 0)
(0.120635 0.00047362 0)
(0.120309 0.00050396 0)
(0.119963 0.000533976 0)
(0.119597 0.000563662 0)
(0.119211 0.000593011 0)
(0.118806 0.00062202 0)
(0.118381 0.000650681 0)
(0.117938 0.000678992 0)
(0.117475 0.000706948 0)
(0.116995 0.000734545 0)
(0.116496 0.00076178 0)
(0.115978 0.00078865 0)
(0.115444 0.000815152 0)
(0.114891 0.000841284 0)
(0.114321 0.000867044 0)
(0.113735 0.00089243 0)
(0.113131 0.000917442 0)
(0.112511 0.000942077 0)
(0.111874 0.000966336 0)
(0.111222 0.000990217 0)
(0.110554 0.00101372 0)
(0.10987 0.00103685 0)
(0.109171 0.00105959 0)
(0.108457 0.00108197 0)
(0.107728 0.00110396 0)
(0.106984 0.00112558 0)
(0.106227 0.00114682 0)
(0.105455 0.00116769 0)
(0.104669 0.00118819 0)
(0.10387 0.00120832 0)
(0.103058 0.00122807 0)
(0.102232 0.00124746 0)
(0.101394 0.00126649 0)
(0.100543 0.00128515 0)
(0.0996799 0.00130345 0)
(0.0988047 0.00132139 0)
(0.0979176 0.00133897 0)
(0.0970189 0.0013562 0)
(0.0961089 0.00137307 0)
(0.0951878 0.00138959 0)
(0.0942557 0.00140577 0)
(0.093313 0.00142161 0)
(0.0923598 0.0014371 0)
(0.0913964 0.00145225 0)
(0.0904231 0.00146707 0)
(0.0894399 0.00148155 0)
(0.0884473 0.00149571 0)
(0.0874453 0.00150954 0)
(0.0864342 0.00152304 0)
(0.0854141 0.00153623 0)
(0.0843855 0.0015491 0)
(0.0833483 0.00156166 0)
(0.0823029 0.00157391 0)
(0.0812494 0.00158585 0)
(0.080188 0.00159749 0)
(0.079119 0.00160883 0)
(0.0780426 0.00161987 0)
(0.0769589 0.00163063 0)
(0.0758681 0.0016411 0)
(0.0747704 0.00165128 0)
(0.073666 0.00166119 0)
(0.0725551 0.00167081 0)
(0.0714379 0.00168017 0)
(0.0703146 0.00168926 0)
(0.0691853 0.00169809 0)
(0.0680501 0.00170666 0)
(0.0669094 0.00171497 0)
(0.0657632 0.00172303 0)
(0.0646117 0.00173084 0)
(0.0634551 0.00173841 0)
(0.0622935 0.00174575 0)
(0.0611272 0.00175285 0)
(0.0599561 0.00175972 0)
(0.0587806 0.00176636 0)
(0.0576007 0.00177278 0)
(0.0564166 0.00177899 0)
(0.0552285 0.00178498 0)
(0.0540364 0.00179076 0)
(0.0528405 0.00179634 0)
(0.051641 0.00180172 0)
(0.050438 0.00180691 0)
(0.0492316 0.0018119 0)
(0.0480219 0.0018167 0)
(0.0468091 0.00182133 0)
(0.0455933 0.00182577 0)
(0.0443745 0.00183004 0)
(0.043153 0.00183413 0)
(0.0419288 0.00183806 0)
(0.0407021 0.00184183 0)
(0.0394728 0.00184544 0)
(0.0382413 0.00184889 0)
(0.0370075 0.00185219 0)
(0.0357715 0.00185535 0)
(0.0345335 0.00185836 0)
(0.0332935 0.00186122 0)
(0.0320517 0.00186396 0)
(0.0308081 0.00186655 0)
(0.0295628 0.00186902 0)
(0.0283159 0.00187136 0)
(0.0270675 0.00187357 0)
(0.0258177 0.00187566 0)
(0.0245665 0.00187764 0)
(0.023314 0.00187949 0)
(0.0220603 0.00188124 0)
(0.0208055 0.00188287 0)
(0.0195497 0.00188439 0)
(0.0182929 0.00188581 0)
(0.0170352 0.00188712 0)
(0.0157766 0.00188834 0)
(0.0145173 0.00188945 0)
(0.0132572 0.00189046 0)
(0.0119965 0.00189137 0)
(0.0107353 0.00189219 0)
(0.0094735 0.00189292 0)
(0.00821127 0.00189355 0)
(0.00694865 0.00189409 0)
(0.00568571 0.00189454 0)
(0.00442249 0.00189489 0)
(0.00315907 0.00189516 0)
(0.0018955 0.00189534 0)
(0.000631843 0.00189543 0)
(0.000724575 -0.00362238 0)
(0.00217369 -0.00362218 0)
(0.00362268 -0.00362179 0)
(0.00507147 -0.00362119 0)
(0.00651999 -0.0036204 0)
(0.00796816 -0.0036194 0)
(0.00941588 -0.00361819 0)
(0.0108631 -0.00361678 0)
(0.0123097 -0.00361515 0)
(0.0137556 -0.0036133 0)
(0.0152007 -0.00361123 0)
(0.016645 -0.00360892 0)
(0.0180883 -0.00360638 0)
(0.0195305 -0.0036036 0)
(0.0209716 -0.00360056 0)
(0.0224115 -0.00359727 0)
(0.0238499 -0.00359371 0)
(0.0252869 -0.00358987 0)
(0.0267223 -0.00358574 0)
(0.0281561 -0.00358132 0)
(0.029588 -0.00357659 0)
(0.0310179 -0.00357154 0)
(0.0324458 -0.00356616 0)
(0.0338714 -0.00356044 0)
(0.0352948 -0.00355436 0)
(0.0367156 -0.00354792 0)
(0.0381338 -0.0035411 0)
(0.0395492 -0.00353388 0)
(0.0409616 -0.00352626 0)
(0.042371 -0.00351821 0)
(0.043777 -0.00350973 0)
(0.0451796 -0.0035008 0)
(0.0465785 -0.0034914 0)
(0.0479735 -0.00348152 0)
(0.0493646 -0.00347114 0)
(0.0507514 -0.00346025 0)
(0.0521337 -0.00344883 0)
(0.0535114 -0.00343688 0)
(0.0548842 -0.00342436 0)
(0.0562519 -0.00341126 0)
(0.0576143 -0.00339758 0)
(0.0589711 -0.00338329 0)
(0.0603221 -0.00336838 0)
(0.0616669 -0.00335283 0)
(0.0630055 -0.00333663 0)
(0.0643374 -0.00331976 0)
(0.0656625 -0.00330221 0)
(0.0669805 -0.00328396 0)
(0.068291 -0.00326499 0)
(0.0695938 -0.00324531 0)
(0.0708886 -0.00322488 0)
(0.072175 -0.0032037 0)
(0.0734529 -0.00318175 0)
(0.0747218 -0.00315903 0)
(0.0759815 -0.00313551 0)
(0.0772317 -0.0031112 0)
(0.078472 -0.00308608 0)
(0.079702 -0.00306013 0)
(0.0809215 -0.00303335 0)
(0.0821302 -0.00300574 0)
(0.0833277 -0.00297728 0)
(0.0845136 -0.00294797 0)
(0.0856876 -0.00291781 0)
(0.0868494 -0.00288678 0)
(0.0879986 -0.00285488 0)
(0.0891348 -0.00282211 0)
(0.0902578 -0.00278847 0)
(0.0913672 -0.00275396 0)
(0.0924626 -0.00271858 0)
(0.0935436 -0.00268233 0)
(0.09461 -0.0026452 0)
(0.0956613 -0.00260721 0)
(0.0966973 -0.00256836 0)
(0.0977176 -0.00252866 0)
(0.0987218 -0.0024881 0)
(0.0997096 -0.0024467 0)
(0.100681 -0.00240448 0)
(0.101635 -0.00236142 0)
(0.102571 -0.00231756 0)
(0.10349 -0.0022729 0)
(0.104391 -0.00222745 0)
(0.105273 -0.00218124 0)
(0.106137 -0.00213426 0)
(0.106982 -0.00208655 0)
(0.107808 -0.00203812 0)
(0.108614 -0.00198899 0)
(0.1094 -0.00193917 0)
(0.110166 -0.0018887 0)
(0.110912 -0.00183758 0)
(0.111638 -0.00178585 0)
(0.112342 -0.00173352 0)
(0.113025 -0.00168063 0)
(0.113688 -0.00162719 0)
(0.114328 -0.00157323 0)
(0.114947 -0.00151878 0)
(0.115544 -0.00146386 0)
(0.116119 -0.00140851 0)
(0.116672 -0.00135274 0)
(0.117202 -0.0012966 0)
(0.117709 -0.0012401 0)
(0.118194 -0.00118328 0)
(0.118657 -0.00112616 0)
(0.119096 -0.00106878 0)
(0.119512 -0.00101116 0)
(0.119905 -0.000953344 0)
(0.120275 -0.000895349 0)
(0.120622 -0.000837209 0)
(0.120945 -0.000778955 0)
(0.121245 -0.000720615 0)
(0.121522 -0.000662219 0)
(0.121775 -0.000603796 0)
(0.122005 -0.000545376 0)
(0.122211 -0.000486987 0)
(0.122394 -0.000428657 0)
(0.122554 -0.000370415 0)
(0.12269 -0.000312287 0)
(0.122803 -0.0002543 0)
(0.122893 -0.000196481 0)
(0.12296 -0.000138856 0)
(0.123004 -8.14486e-05 0)
(0.123025 -2.42841e-05 0)
(0.123023 3.26138e-05 0)
(0.122998 8.92223e-05 0)
(0.122951 0.000145519 0)
(0.122881 0.000201482 0)
(0.122789 0.000257092 0)
(0.122675 0.000312327 0)
(0.122539 0.000367169 0)
(0.122381 0.0004216 0)
(0.122201 0.000475602 0)
(0.121999 0.000529157 0)
(0.121777 0.000582251 0)
(0.121533 0.000634868 0)
(0.121268 0.000686994 0)
(0.120982 0.000738615 0)
(0.120676 0.000789719 0)
(0.120349 0.000840293 0)
(0.120003 0.000890326 0)
(0.119636 0.000939809 0)
(0.11925 0.000988731 0)
(0.118844 0.00103708 0)
(0.118419 0.00108486 0)
(0.117975 0.00113205 0)
(0.117512 0.00117864 0)
(0.117031 0.00122464 0)
(0.116532 0.00127004 0)
(0.116014 0.00131482 0)
(0.115479 0.001359 0)
(0.114926 0.00140255 0)
(0.114356 0.00144549 0)
(0.113768 0.0014878 0)
(0.113164 0.00152949 0)
(0.112544 0.00157055 0)
(0.111907 0.00161098 0)
(0.111254 0.00165078 0)
(0.110585 0.00168995 0)
(0.109901 0.0017285 0)
(0.109201 0.00176641 0)
(0.108486 0.00180369 0)
(0.107757 0.00184035 0)
(0.107013 0.00187638 0)
(0.106255 0.00191179 0)
(0.105482 0.00194657 0)
(0.104696 0.00198073 0)
(0.103897 0.00201427 0)
(0.103084 0.0020472 0)
(0.102258 0.00207951 0)
(0.101419 0.00211122 0)
(0.100568 0.00214232 0)
(0.0997041 0.00217281 0)
(0.0988284 0.00220271 0)
(0.0979408 0.00223201 0)
(0.0970417 0.00226072 0)
(0.0961312 0.00228884 0)
(0.0952096 0.00231638 0)
(0.094277 0.00234334 0)
(0.0933339 0.00236972 0)
(0.0923802 0.00239554 0)
(0.0914164 0.00242079 0)
(0.0904426 0.00244548 0)
(0.089459 0.00246962 0)
(0.0884659 0.00249321 0)
(0.0874635 0.00251625 0)
(0.0864519 0.00253876 0)
(0.0854315 0.00256073 0)
(0.0844024 0.00258218 0)
(0.0833648 0.00260311 0)
(0.082319 0.00262351 0)
(0.0812651 0.00264341 0)
(0.0802034 0.00266281 0)
(0.079134 0.00268171 0)
(0.0780571 0.00270011 0)
(0.076973 0.00271803 0)
(0.0758818 0.00273548 0)
(0.0747838 0.00275245 0)
(0.073679 0.00276895 0)
(0.0725678 0.00278499 0)
(0.0714502 0.00280058 0)
(0.0703265 0.00281573 0)
(0.0691968 0.00283044 0)
(0.0680614 0.00284471 0)
(0.0669203 0.00285856 0)
(0.0657738 0.00287199 0)
(0.064622 0.00288501 0)
(0.063465 0.00289762 0)
(0.0623032 0.00290984 0)
(0.0611365 0.00292167 0)
(0.0599651 0.00293311 0)
(0.0587893 0.00294418 0)
(0.0576091 0.00295488 0)
(0.0564247 0.00296521 0)
(0.0552363 0.0029752 0)
(0.054044 0.00298483 0)
(0.0528478 0.00299413 0)
(0.0516481 0.00300309 0)
(0.0504448 0.00301172 0)
(0.0492381 0.00302004 0)
(0.0480282 0.00302804 0)
(0.0468151 0.00303574 0)
(0.0455991 0.00304314 0)
(0.0443801 0.00305025 0)
(0.0431583 0.00305708 0)
(0.0419339 0.00306362 0)
(0.040707 0.0030699 0)
(0.0394775 0.00307591 0)
(0.0382458 0.00308166 0)
(0.0370118 0.00308715 0)
(0.0357756 0.00309241 0)
(0.0345374 0.00309742 0)
(0.0332972 0.00310219 0)
(0.0320552 0.00310674 0)
(0.0308114 0.00311107 0)
(0.029566 0.00311517 0)
(0.0283189 0.00311907 0)
(0.0270704 0.00312275 0)
(0.0258204 0.00312624 0)
(0.024569 0.00312952 0)
(0.0233164 0.00313261 0)
(0.0220626 0.00313552 0)
(0.0208076 0.00313824 0)
(0.0195517 0.00314077 0)
(0.0182947 0.00314313 0)
(0.0170368 0.00314532 0)
(0.0157781 0.00314734 0)
(0.0145187 0.00314919 0)
(0.0132585 0.00315087 0)
(0.0119977 0.00315239 0)
(0.0107363 0.00315376 0)
(0.0094744 0.00315496 0)
(0.00821205 0.00315602 0)
(0.00694931 0.00315691 0)
(0.00568624 0.00315766 0)
(0.00442291 0.00315826 0)
(0.00315937 0.0031587 0)
(0.00189568 0.003159 0)
(0.000631903 0.00315914 0)
(0.000724694 -0.00507161 0)
(0.00217404 -0.00507133 0)
(0.00362327 -0.00507078 0)
(0.00507231 -0.00506995 0)
(0.00652108 -0.00506884 0)
(0.00796949 -0.00506745 0)
(0.00941746 -0.00506576 0)
(0.0108649 -0.00506379 0)
(0.0123118 -0.00506151 0)
(0.013758 -0.00505893 0)
(0.0152034 -0.00505604 0)
(0.0166479 -0.00505282 0)
(0.0180915 -0.00504928 0)
(0.019534 -0.00504539 0)
(0.0209754 -0.00504115 0)
(0.0224156 -0.00503655 0)
(0.0238544 -0.00503158 0)
(0.0252917 -0.00502622 0)
(0.0267275 -0.00502046 0)
(0.0281616 -0.00501428 0)
(0.0295938 -0.00500767 0)
(0.0310242 -0.00500062 0)
(0.0324525 -0.00499311 0)
(0.0338785 -0.00498511 0)
(0.0353023 -0.00497663 0)
(0.0367236 -0.00496762 0)
(0.0381422 -0.00495809 0)
(0.0395581 -0.00494801 0)
(0.0409711 -0.00493735 0)
(0.0423809 -0.00492611 0)
(0.0437875 -0.00491425 0)
(0.0451906 -0.00490177 0)
(0.0465901 -0.00488863 0)
(0.0479857 -0.00487482 0)
(0.0493774 -0.00486031 0)
(0.0507648 -0.00484509 0)
(0.0521478 -0.00482913 0)
(0.0535261 -0.00481241 0)
(0.0548996 -0.0047949 0)
(0.056268 -0.0047766 0)
(0.0576311 -0.00475746 0)
(0.0589887 -0.00473748 0)
(0.0603404 -0.00471662 0)
(0.061686 -0.00469488 0)
(0.0630254 -0.00467222 0)
(0.0643581 -0.00464862 0)
(0.0656841 -0.00462407 0)
(0.0670028 -0.00459854 0)
(0.0683142 -0.00457201 0)
(0.0696179 -0.00454446 0)
(0.0709136 -0.00451588 0)
(0.072201 -0.00448625 0)
(0.0734797 -0.00445554 0)
(0.0747496 -0.00442374 0)
(0.0760103 -0.00439084 0)
(0.0772614 -0.00435682 0)
(0.0785027 -0.00432165 0)
(0.0797337 -0.00428534 0)
(0.0809542 -0.00424787 0)
(0.0821639 -0.00420922 0)
(0.0833624 -0.00416939 0)
(0.0845493 -0.00412836 0)
(0.0857244 -0.00408614 0)
(0.0868872 -0.0040427 0)
(0.0880374 -0.00399805 0)
(0.0891748 -0.00395218 0)
(0.0902988 -0.00390508 0)
(0.0914092 -0.00385677 0)
(0.0925056 -0.00380723 0)
(0.0935877 -0.00375647 0)
(0.0946551 -0.0037045 0)
(0.0957075 -0.00365131 0)
(0.0967445 -0.00359691 0)
(0.0977658 -0.00354131 0)
(0.098771 -0.00348452 0)
(0.0997598 -0.00342655 0)
(0.100732 -0.00336742 0)
(0.101687 -0.00330713 0)
(0.102624 -0.0032457 0)
(0.103544 -0.00318316 0)
(0.104446 -0.00311951 0)
(0.105329 -0.00305479 0)
(0.106194 -0.002989 0)
(0.10704 -0.00292218 0)
(0.107866 -0.00285435 0)
(0.108673 -0.00278554 0)
(0.109461 -0.00271577 0)
(0.110228 -0.00264507 0)
(0.110974 -0.00257348 0)
(0.1117 -0.00250102 0)
(0.112405 -0.00242773 0)
(0.113089 -0.00235364 0)
(0.113752 -0.00227879 0)
(0.114393 -0.00220321 0)
(0.115013 -0.00212694 0)
(0.11561 -0.00205002 0)
(0.116186 -0.00197248 0)
(0.116739 -0.00189437 0)
(0.11727 -0.00181573 0)
(0.117778 -0.00173659 0)
(0.118263 -0.001657 0)
(0.118725 -0.00157699 0)
(0.119165 -0.00149662 0)
(0.119581 -0.00141592 0)
(0.119975 -0.00133493 0)
(0.120345 -0.00125369 0)
(0.120692 -0.00117225 0)
(0.121015 -0.00109066 0)
(0.121315 -0.00100894 0)
(0.121592 -0.000927143 0)
(0.121845 -0.000845311 0)
(0.122075 -0.000763483 0)
(0.122281 -0.000681699 0)
(0.122464 -0.000599998 0)
(0.122624 -0.00051842 0)
(0.12276 -0.000437004 0)
(0.122873 -0.000355786 0)
(0.122963 -0.000274803 0)
(0.123029 -0.000194092 0)
(0.123073 -0.000113688 0)
(0.123094 -3.36244e-05 0)
(0.123091 4.6065e-05 0)
(0.123066 0.000125348 0)
(0.123019 0.000204194 0)
(0.122948 0.000282571 0)
(0.122856 0.000360453 0)
(0.122741 0.000437809 0)
(0.122604 0.000514614 0)
(0.122446 0.000590841 0)
(0.122265 0.000666467 0)
(0.122063 0.000741467 0)
(0.12184 0.00081582 0)
(0.121596 0.000889504 0)
(0.12133 0.000962499 0)
(0.121044 0.00103479 0)
(0.120737 0.00110635 0)
(0.12041 0.00117717 0)
(0.120062 0.00124723 0)
(0.119695 0.00131652 0)
(0.119308 0.00138502 0)
(0.118902 0.00145273 0)
(0.118476 0.00151962 0)
(0.118031 0.0015857 0)
(0.117568 0.00165094 0)
(0.117086 0.00171535 0)
(0.116586 0.00177891 0)
(0.116067 0.00184161 0)
(0.115531 0.00190346 0)
(0.114978 0.00196444 0)
(0.114407 0.00202456 0)
(0.113819 0.0020838 0)
(0.113214 0.00214216 0)
(0.112592 0.00219965 0)
(0.111955 0.00225625 0)
(0.111301 0.00231197 0)
(0.110631 0.00236682 0)
(0.109946 0.00242078 0)
(0.109246 0.00247385 0)
(0.108531 0.00252605 0)
(0.1078 0.00257737 0)
(0.107056 0.00262781 0)
(0.106297 0.00267737 0)
(0.105524 0.00272606 0)
(0.104737 0.00277389 0)
(0.103936 0.00282084 0)
(0.103123 0.00286694 0)
(0.102296 0.00291217 0)
(0.101457 0.00295656 0)
(0.100605 0.00300009 0)
(0.0997403 0.00304278 0)
(0.0988639 0.00308462 0)
(0.0979756 0.00312564 0)
(0.0970758 0.00316583 0)
(0.0961646 0.00320519 0)
(0.0952423 0.00324374 0)
(0.094309 0.00328147 0)
(0.0933652 0.00331841 0)
(0.0924109 0.00335454 0)
(0.0914464 0.00338989 0)
(0.0904719 0.00342445 0)
(0.0894877 0.00345824 0)
(0.0884939 0.00349126 0)
(0.0874908 0.00352351 0)
(0.0864786 0.00355501 0)
(0.0854576 0.00358577 0)
(0.0844278 0.00361578 0)
(0.0833896 0.00364507 0)
(0.0823432 0.00367363 0)
(0.0812887 0.00370149 0)
(0.0802263 0.00372863 0)
(0.0791563 0.00375508 0)
(0.0780789 0.00378084 0)
(0.0769942 0.00380592 0)
(0.0759024 0.00383033 0)
(0.0748038 0.00385408 0)
(0.0736985 0.00387717 0)
(0.0725867 0.00389962 0)
(0.0714686 0.00392144 0)
(0.0703444 0.00394264 0)
(0.0692142 0.00396322 0)
(0.0680782 0.00398319 0)
(0.0669366 0.00400257 0)
(0.0657896 0.00402136 0)
(0.0646373 0.00403958 0)
(0.0634799 0.00405723 0)
(0.0623176 0.00407432 0)
(0.0611504 0.00409087 0)
(0.0599786 0.00410688 0)
(0.0588023 0.00412237 0)
(0.0576217 0.00413733 0)
(0.0564369 0.0041518 0)
(0.0552481 0.00416576 0)
(0.0540553 0.00417924 0)
(0.0528588 0.00419224 0)
(0.0516586 0.00420478 0)
(0.0504549 0.00421686 0)
(0.0492479 0.00422849 0)
(0.0480376 0.00423969 0)
(0.0468242 0.00425046 0)
(0.0456077 0.00426081 0)
(0.0443884 0.00427075 0)
(0.0431663 0.00428029 0)
(0.0419416 0.00428945 0)
(0.0407143 0.00429823 0)
(0.0394846 0.00430663 0)
(0.0382525 0.00431467 0)
(0.0370182 0.00432236 0)
(0.0357817 0.0043297 0)
(0.0345433 0.00433671 0)
(0.0333028 0.00434339 0)
(0.0320605 0.00434975 0)
(0.0308165 0.0043558 0)
(0.0295708 0.00436154 0)
(0.0283235 0.00436698 0)
(0.0270746 0.00437214 0)
(0.0258244 0.00437701 0)
(0.0245728 0.0043816 0)
(0.02332 0.00438592 0)
(0.0220659 0.00438998 0)
(0.0208108 0.00439378 0)
(0.0195546 0.00439733 0)
(0.0182974 0.00440063 0)
(0.0170394 0.00440369 0)
(0.0157805 0.00440651 0)
(0.0145208 0.00440909 0)
(0.0132604 0.00441145 0)
(0.0119994 0.00441358 0)
(0.0107378 0.00441548 0)
(0.00947575 0.00441717 0)
(0.00821321 0.00441864 0)
(0.00695029 0.00441989 0)
(0.00568704 0.00442094 0)
(0.00442353 0.00442177 0)
(0.00315981 0.00442239 0)
(0.00189594 0.0044228 0)
(0.000631991 0.00442301 0)
(0.000724852 -0.00652112 0)
(0.00217452 -0.00652076 0)
(0.00362407 -0.00652006 0)
(0.00507342 -0.00651899 0)
(0.00652251 -0.00651757 0)
(0.00797125 -0.00651579 0)
(0.00941956 -0.00651363 0)
(0.0108674 -0.0065111 0)
(0.0123146 -0.00650819 0)
(0.0137611 -0.00650488 0)
(0.0152069 -0.00650118 0)
(0.0166518 -0.00649706 0)
(0.0180958 -0.00649251 0)
(0.0195387 -0.00648754 0)
(0.0209805 -0.00648211 0)
(0.0224211 -0.00647621 0)
(0.0238603 -0.00646984 0)
(0.0252981 -0.00646297 0)
(0.0267343 -0.00645559 0)
(0.0281689 -0.00644767 0)
(0.0296017 -0.0064392 0)
(0.0310325 -0.00643016 0)
(0.0324613 -0.00642053 0)
(0.033888 -0.00641028 0)
(0.0353123 -0.0063994 0)
(0.0367342 -0.00638786 0)
(0.0381535 -0.00637564 0)
(0.03957 -0.0063627 0)
(0.0409836 -0.00634904 0)
(0.0423941 -0.00633462 0)
(0.0438014 -0.00631941 0)
(0.0452052 -0.00630339 0)
(0.0466055 -0.00628654 0)
(0.0480019 -0.00626882 0)
(0.0493944 -0.0062502 0)
(0.0507826 -0.00623067 0)
(0.0521665 -0.00621019 0)
(0.0535457 -0.00618873 0)
(0.0549201 -0.00616626 0)
(0.0562895 -0.00614276 0)
(0.0576535 -0.00611819 0)
(0.059012 -0.00609254 0)
(0.0603648 -0.00606576 0)
(0.0617114 -0.00603784 0)
(0.0630519 -0.00600874 0)
(0.0643857 -0.00597844 0)
(0.0657127 -0.0059469 0)
(0.0670326 -0.00591411 0)
(0.0683452 -0.00588004 0)
(0.06965 -0.00584466 0)
(0.0709469 -0.00580795 0)
(0.0722355 -0.00576987 0)
(0.0735155 -0.00573042 0)
(0.0747867 -0.00568957 0)
(0.0760486 -0.00564729 0)
(0.077301 -0.00560357 0)
(0.0785436 -0.00555838 0)
(0.0797759 -0.00551172 0)
(0.0809978 -0.00546356 0)
(0.0822088 -0.00541389 0)
(0.0834087 -0.00536269 0)
(0.084597 -0.00530996 0)
(0.0857734 -0.00525568 0)
(0.0869376 -0.00519984 0)
(0.0880892 -0.00514244 0)
(0.089228 -0.00508346 0)
(0.0903534 -0.00502292 0)
(0.0914652 -0.0049608 0)
(0.092563 -0.00489711 0)
(0.0936465 -0.00483184 0)
(0.0947153 -0.004765 0)
(0.0957691 -0.0046966 0)
(0.0968075 -0.00462665 0)
(0.0978301 -0.00455515 0)
(0.0988367 -0.00448212 0)
(0.0998268 -0.00440757 0)
(0.1008 -0.00433151 0)
(0.101757 -0.00425397 0)
(0.102695 -0.00417497 0)
(0.103616 -0.00409452 0)
(0.10452 -0.00401265 0)
(0.105404 -0.0039294 0)
(0.10627 -0.00384477 0)
(0.107117 -0.00375882 0)
(0.107945 -0.00367157 0)
(0.108753 -0.00358304 0)
(0.109541 -0.00349329 0)
(0.110309 -0.00340234 0)
(0.111057 -0.00331024 0)
(0.111784 -0.00321702 0)
(0.11249 -0.00312273 0)
(0.113175 -0.00302741 0)
(0.113838 -0.00293111 0)
(0.11448 -0.00283388 0)
(0.1151 -0.00273575 0)
(0.115699 -0.00263679 0)
(0.116275 -0.00253703 0)
(0.116829 -0.00243654 0)
(0.11736 -0.00233535 0)
(0.117868 -0.00223353 0)
(0.118354 -0.00213113 0)
(0.118817 -0.0020282 0)
(0.119257 -0.00192479 0)
(0.119674 -0.00182095 0)
(0.120068 -0.00171675 0)
(0.120438 -0.00161224 0)
(0.120785 -0.00150746 0)
(0.121109 -0.00140248 0)
(0.121409 -0.00129734 0)
(0.121685 -0.0011921 0)
(0.121939 -0.00108682 0)
(0.122168 -0.000981544 0)
(0.122375 -0.000876325 0)
(0.122558 -0.000771215 0)
(0.122717 -0.000666264 0)
(0.122853 -0.000561521 0)
(0.122966 -0.000457034 0)
(0.123055 -0.000352852 0)
(0.123122 -0.000249021 0)
(0.123165 -0.000145585 0)
(0.123185 -4.25896e-05 0)
(0.123182 5.99234e-05 0)
(0.123157 0.000161912 0)
(0.123108 0.000263337 0)