/*--------------------------------*- C++ -*----------------------------------*\
| =========                 |                                                 |
| \\      /  F ield         | OpenFOAM: The Open Source CFD Toolbox           |
|  \\    /   O peration     | Version:  v2012                                 |
|   \\  /    A nd           | Website:  www.openfoam.com                      |
|    \\/     M anipulation  |                                                 |
\*---------------------------------------------------------------------------*/
FoamFile
{
    version     2.0;
    format      ascii;
    class       volScalarField;
    location    "7.9";
    object      Psi_z;
}
// * * * * * * * * * * * * * * * * * * * * * * * * * * * * * * * * * * * * * //

dimensions      [0 2 -1 0 0 0 0];


internalField   nonuniform List<scalar> 
65536
(
9.26259e-06
2.77877e-05
4.63126e-05
6.48372e-05
8.33614e-05
0.000101885
0.000120408
0.000138929
0.00015745
0.000175969
0.000194487
0.000213002
0.000231515
0.000250025
0.000268532
0.000287035
0.000305534
0.000324028
0.000342516
0.000360998
0.000379473
0.00039794
0.000416397
0.000434845
0.000453281
0.000471705
0.000490115
0.000508509
0.000526888
0.000545247
0.000563587
0.000581905
0.000600199
0.000618467
0.000636707
0.000654917
0.000673095
0.000691237
0.000709341
0.000727405
0.000745425
0.000763399
0.000781323
0.000799194
0.000817009
0.000834764
0.000852456
0.00087008
0.000887633
0.00090511
0.000922508
0.000939822
0.000957048
0.000974181
0.000991217
0.00100815
0.00102498
0.00104169
0.00105829
0.00107476
0.00109111
0.00110732
0.00112339
0.00113932
0.0011551
0.00117072
0.00118618
0.00120147
0.00121659
0.00123153
0.00124628
0.00126084
0.0012752
0.00128936
0.00130331
0.00131704
0.00133055
0.00134384
0.00135688
0.00136969
0.00138225
0.00139456
0.00140661
0.00141839
0.00142991
0.00144115
0.00145211
0.00146279
0.00147317
0.00148326
0.00149305
0.00150253
0.0015117
0.00152056
0.0015291
0.00153732
0.00154521
0.00155278
0.00156
0.0015669
0.00157345
0.00157966
0.00158553
0.00159105
0.00159622
0.00160104
0.00160551
0.00160963
0.00161339
0.0016168
0.00161985
0.00162255
0.00162489
0.00162687
0.0016285
0.00162978
0.0016307
0.00163127
0.00163149
0.00163137
0.00163089
0.00163007
0.00162891
0.0016274
0.00162556
0.00162339
0.00162088
0.00161804
0.00161488
0.0016114
0.0016076
0.00160349
0.00159907
0.00159435
0.00158932
0.00158399
0.00157838
0.00157248
0.00156629
0.00155983
0.00155309
0.00154609
0.00153882
0.00153129
0.00152352
0.00151549
0.00150722
0.00149872
0.00148998
0.00148102
0.00147183
0.00146243
0.00145282
0.001443
0.00143298
0.00142277
0.00141237
0.00140178
0.00139101
0.00138006
0.00136895
0.00135766
0.00134622
0.00133463
0.00132288
0.00131099
0.00129895
0.00128678
0.00127447
0.00126204
0.00124948
0.0012368
0.00122401
0.00121111
0.00119809
0.00118498
0.00117176
0.00115845
0.00114505
0.00113156
0.00111798
0.00110432
0.00109058
0.00107677
0.00106289
0.00104893
0.00103491
0.00102083
0.00100669
0.000992484
0.000978228
0.000963919
0.000949561
0.000935155
0.000920704
0.00090621
0.000891676
0.000877103
0.000862493
0.000847849
0.000833172
0.000818464
0.000803728
0.000788964
0.000774174
0.00075936
0.000744523
0.000729665
0.000714787
0.000699891
0.000684977
0.000670048
0.000655103
0.000640144
0.000625173
0.00061019
0.000595196
0.000580191
0.000565178
0.000550156
0.000535127
0.000520091
0.000505048
0.00049
0.000474947
0.000459889
0.000444828
0.000429762
0.000414694
0.000399623
0.00038455
0.000369474
0.000354397
0.000339319
0.00032424
0.000309159
0.000294078
0.000278997
0.000263915
0.000248833
0.00023375
0.000218668
0.000203586
0.000188504
0.000173423
0.000158341
0.00014326
0.000128179
0.000113098
9.80179e-05
8.29378e-05
6.78579e-05
5.27781e-05
3.76986e-05
2.26191e-05
7.53969e-06
2.77878e-05
8.33632e-05
0.000138938
0.000194512
0.000250085
0.000305655
0.000361224
0.000416789
0.000472351
0.000527909
0.000583461
0.000639008
0.000694547
0.000750078
0.000805599
0.000861109
0.000916606
0.000972089
0.00102755
0.001083
0.00113843
0.00119383
0.0012492
0.00130454
0.00135985
0.00141513
0.00147036
0.00152554
0.00158068
0.00163576
0.00169078
0.00174574
0.00180062
0.00185543
0.00191015
0.00196478
0.00201932
0.00207375
0.00212806
0.00218226
0.00223632
0.00229024
0.00234402
0.00239764
0.00245109
0.00250435
0.00255743
0.00261031
0.00266297
0.00271541
0.00276761
0.00281955
0.00287124
0.00292264
0.00297375
0.00302456
0.00307504
0.00312519
0.00317498
0.00322441
0.00327345
0.00332209
0.00337031
0.00341811
0.00346545
0.00351232
0.0035587
0.00360459
0.00364995
0.00369477
0.00373903
0.00378272
0.00382582
0.0038683
0.00391015
0.00395135
0.00399189
0.00403174
0.00407088
0.00410931
0.00414699
0.00418392
0.00422008
0.00425544
0.00428999
0.00432372
0.00435661
0.00438864
0.0044198
0.00445008
0.00447945
0.0045079
0.00453542
0.004562
0.00458763
0.00461229
0.00463596
0.00465865
0.00468034
0.00470102
0.00472069
0.00473932
0.00475693
0.00477349
0.00478901
0.00480347
0.00481688
0.00482923
0.00484052
0.00485075
0.0048599
0.00486799
0.00487501
0.00488097
0.00488586
0.00488969
0.00489246
0.00489417
0.00489483
0.00489444
0.00489301
0.00489055
0.00488705
0.00488254
0.00487701
0.00487048
0.00486296
0.00485445
0.00484497
0.00483452
0.00482312
0.00481078
0.00479751
0.00478333
0.00476825
0.00475227
0.00473542
0.0047177
0.00469914
0.00467975
0.00465953
0.00463852
0.00461671
0.00459413
0.00457079
0.00454671
0.00452191
0.00449639
0.00447017
0.00444328
0.00441572
0.00438751
0.00435867
0.00432921
0.00429915
0.0042685
0.00423728
0.0042055
0.00417319
0.00414035
0.004107
0.00407315
0.00403882
0.00400403
0.00396878
0.00393309
0.00389698
0.00386046
0.00382354
0.00378623
0.00374856
0.00371052
0.00367214
0.00363342
0.00359438
0.00355503
0.00351539
0.00347545
0.00343524
0.00339476
0.00335402
0.00331304
0.00327182
0.00323038
0.00318872
0.00314686
0.0031048
0.00306254
0.00302011
0.0029775
0.00293473
0.00289181
0.00284873
0.00280551
0.00276215
0.00271867
0.00267506
0.00263134
0.00258751
0.00254358
0.00249954
0.00245542
0.00241121
0.00236691
0.00232254
0.0022781
0.00223359
0.00218901
0.00214438
0.00209969
0.00205495
0.00201016
0.00196532
0.00192044
0.00187553
0.00183058
0.0017856
0.00174058
0.00169554
0.00165048
0.00160539
0.00156028
0.00151515
0.00147
0.00142484
0.00137967
0.00133449
0.00128929
0.00124408
0.00119887
0.00115365
0.00110842
0.00106319
0.00101796
0.000972719
0.000927478
0.000882235
0.00083699
0.000791744
0.000746498
0.000701251
0.000656004
0.000610758
0.000565512
0.000520267
0.000475023
0.000429779
0.000384537
0.000339295
0.000294053
0.000248813
0.000203573
0.000158334
0.000113096
6.78572e-05
2.2619e-05
4.63132e-05
0.000138939
0.000231565
0.000324188
0.00041681
0.000509428
0.000602043
0.000694653
0.000787257
0.000879854
0.000972442
0.00106502
0.00115759
0.00125014
0.00134268
0.0014352
0.00152769
0.00162017
0.00171261
0.00180503
0.0018974
0.00198974
0.00208203
0.00217428
0.00226647
0.00235859
0.00245065
0.00254263
0.00263453
0.00272633
0.00281804
0.00290964
0.00300112
0.00309247
0.00318369
0.00327475
0.00336565
0.00345637
0.00354691
0.00363724
0.00372736
0.00381724
0.00390688
0.00399625
0.00408534
0.00417413
0.00426261
0.00435075
0.00443854
0.00452594
0.00461296
0.00469955
0.0047857
0.00487139
0.00495659
0.00504128
0.00512544
0.00520903
0.00529204
0.00537444
0.00545619
0.00553728
0.00561767
0.00569734
0.00577626
0.0058544
0.00593173
0.00600822
0.00608384
0.00615857
0.00623236
0.00630519
0.00637704
0.00644786
0.00651764
0.00658633
0.00665391
0.00672034
0.00678561
0.00684967
0.0069125
0.00697406
0.00703434
0.0070933
0.00715091
0.00720714
0.00726197
0.00731538
0.00736732
0.00741779
0.00746676
0.0075142
0.00756008
0.0076044
0.00764712
0.00768823
0.00772771
0.00776553
0.00780169
0.00783617
0.00786895
0.00790002
0.00792937
0.00795698
0.00798285
0.00800696
0.00802932
0.0080499
0.00806872
0.00808576
0.00810102
0.0081145
0.00812621
0.00813613
0.00814428
0.00815066
0.00815527
0.00815811
0.00815921
0.00815855
0.00815617
0.00815205
0.00814622
0.00813869
0.00812947
0.00811858
0.00810603
0.00809183
0.00807602
0.00805859
0.00803958
0.008019
0.00799687
0.00797322
0.00794806
0.00792142
0.00789332
0.00786378
0.00783283
0.00780049
0.00776678
0.00773174
0.00769538
0.00765773
0.00761881
0.00757866
0.0075373
0.00749475
0.00745104
0.0074062
0.00736025
0.00731322
0.00726513
0.00721601
0.00716589
0.0071148
0.00706275
0.00700977
0.0069559
0.00690115
0.00684555
0.00678912
0.00673189
0.00667388
0.00661512
0.00655563
0.00649543
0.00643454
0.00637299
0.0063108
0.00624799
0.00618459
0.0061206
0.00605606
0.00599098
0.00592539
0.00585929
0.00579272
0.00572569
0.00565821
0.00559031
0.005522
0.00545329
0.00538421
0.00531477
0.00524499
0.00517487
0.00510444
0.00503371
0.00496269
0.0048914
0.00481984
0.00474804
0.004676
0.00460373
0.00453125
0.00445857
0.00438569
0.00431263
0.0042394
0.00416601
0.00409246
0.00401877
0.00394494
0.00387099
0.00379691
0.00372272
0.00364842
0.00357403
0.00349954
0.00342496
0.00335031
0.00327558
0.00320078
0.00312592
0.003051
0.00297603
0.002901
0.00282593
0.00275082
0.00267567
0.00260048
0.00252527
0.00245002
0.00237476
0.00229946
0.00222415
0.00214883
0.00207348
0.00199812
0.00192276
0.00184738
0.00177199
0.0016966
0.0016212
0.0015458
0.00147039
0.00139498
0.00131957
0.00124416
0.00116875
0.00109334
0.00101793
0.00094252
0.000867111
0.000791704
0.000716298
0.000640893
0.00056549
0.000490088
0.000414688
0.000339288
0.00026389
0.000188492
0.000113095
3.76983e-05
6.48389e-05
0.000194516
0.000324193
0.000453867
0.000583538
0.000713205
0.000842867
0.000972522
0.00110217
0.00123181
0.00136143
0.00149105
0.00162064
0.00175022
0.00187978
0.00200931
0.00213881
0.00226827
0.0023977
0.00252709
0.00265642
0.0027857
0.00291492
0.00304407
0.00317314
0.00330212
0.00343101
0.0035598
0.00368847
0.00381701
0.00394541
0.00407366
0.00420175
0.00432966
0.00445737
0.00458488
0.00471215
0.00483918
0.00496595
0.00509244
0.00521862
0.00534448
0.00547
0.00559514
0.0057199
0.00584423
0.00596813
0.00609155
0.00621448
0.00633688
0.00645873
0.00657999
0.00670063
0.00682063
0.00693995
0.00705855
0.0071764
0.00729347
0.00740972
0.00752511
0.0076396
0.00775316
0.00786575
0.00797733
0.00808786
0.0081973
0.0083056
0.00841273
0.00851864
0.00862329
0.00872665
0.00882866
0.00892928
0.00902848
0.00912621
0.00922242
0.00931707
0.00941012
0.00950153
0.00959126
0.00967926
0.0097655
0.00984992
0.0099325
0.0100132
0.010092
0.0101688
0.0102436
0.0103163
0.010387
0.0104556
0.010522
0.0105863
0.0106484
0.0107082
0.0107658
0.0108211
0.0108741
0.0109247
0.010973
0.0110189
0.0110624
0.0111035
0.0111422
0.0111784
0.0112122
0.0112435
0.0112723
0.0112987
0.0113226
0.0113439
0.0113628
0.0113792
0.0113931
0.0114045
0.0114134
0.0114198
0.0114238
0.0114253
0.0114244
0.011421
0.0114153
0.0114071
0.0113965
0.0113836
0.0113683
0.0113507
0.0113308
0.0113087
0.0112843
0.0112576
0.0112288
0.0111978
0.0111646
0.0111294
0.011092
0.0110527
0.0110113
0.0109679
0.0109226
0.0108754
0.0108263
0.0107753
0.0107226
0.0106681
0.0106118
0.0105539
0.0104943
0.010433
0.0103702
0.0103059
0.01024
0.0101726
0.0101038
0.0100336
0.00996205
0.00988915
0.00981495
0.00973949
0.0096628
0.00958492
0.00950589
0.00942574
0.00934449
0.00926219
0.00917887
0.00909456
0.00900929
0.00892309
0.00883599
0.00874803
0.00865923
0.00856962
0.00847924
0.0083881
0.00829624
0.00820368
0.00811046
0.00801658
0.00792209
0.007827
0.00773134
0.00763513
0.0075384
0.00744116
0.00734344
0.00724526
0.00714664
0.0070476
0.00694815
0.00684832
0.00674813
0.00664758
0.00654671
0.00644552
0.00634403
0.00624226
0.00614022
0.00603793
0.00593539
0.00583263
0.00572965
0.00562647
0.0055231
0.00541955
0.00531583
0.00521196
0.00510793
0.00500377
0.00489948
0.00479506
0.00469054
0.00458591
0.00448119
0.00437637
0.00427148
0.00416651
0.00406147
0.00395636
0.0038512
0.00374598
0.00364072
0.00353541
0.00343007
0.00332469
0.00321928
0.00311384
0.00300838
0.00290289
0.00279739
0.00269187
0.00258634
0.0024808
0.00237525
0.00226969
0.00216412
0.00205855
0.00195298
0.0018474
0.00174183
0.00163625
0.00153068
0.0014251
0.00131953
0.00121395
0.00110838
0.00100282
0.000897249
0.000791684
0.000686122
0.000580561
0.000475002
0.000369445
0.000263888
0.000158333
5.27775e-05
8.3365e-05
0.000250095
0.000416823
0.000583548
0.00075027
0.000916987
0.0010837
0.0012504
0.00141709
0.00158377
0.00175044
0.00191709
0.00208372
0.00225032
0.0024169
0.00258344
0.00274995
0.00291642
0.00308283
0.0032492
0.00341549
0.00358172
0.00374787
0.00391394
0.0040799
0.00424575
0.00441148
0.00457708
0.00474253
0.00490782
0.00507293
0.00523785
0.00540256
0.00556704
0.00573127
0.00589523
0.0060589
0.00622226
0.00638528
0.00654794
0.00671021
0.00687207
0.00703349
0.00719443
0.00735487
0.00751478
0.00767411
0.00783285
0.00799095
0.00814837
0.00830508
0.00846104
0.00861621
0.00877055
0.00892402
0.00907656
0.00922815
0.00937873
0.00952825
0.00967667
0.00982395
0.00997002
0.0101148
0.0102584
0.0104006
0.0105413
0.0106806
0.0108185
0.0109547
0.0110893
0.0112223
0.0113535
0.011483
0.0116106
0.0117363
0.0118601
0.0119818
0.0121015
0.0122191
0.0123346
0.0124478
0.0125587
0.0126674
0.0127736
0.0128774
0.0129787
0.0130776
0.0131738
0.0132674
0.0133584
0.0134466
0.0135321
0.0136148
0.0136946
0.0137716
0.0138457
0.0139168
0.013985
0.0140501
0.0141122
0.0141713
0.0142273
0.0142802
0.0143299
0.0143765
0.0144199
0.0144602
0.0144973
0.0145312
0.0145618
0.0145893
0.0146136
0.0146346
0.0146525
0.0146672
0.0146786
0.0146869
0.014692
0.0146939
0.0146927
0.0146884
0.0146809
0.0146704
0.0146567
0.0146401
0.0146204
0.0145977
0.0145721
0.0145436
0.0145121
0.0144778
0.0144407
0.0144008
0.0143581
0.0143127
0.0142647
0.014214
0.0141607
0.0141049
0.0140466
0.0139858
0.0139227
0.0138571
0.0137892
0.0137191
0.0136467
0.0135721
0.0134954
0.0134166
0.0133358
0.013253
0.0131682
0.0130816
0.012993
0.0129027
0.0128106
0.0127168
0.0126214
0.0125243
0.0124256
0.0123255
0.0122238
0.0121207
0.0120162
0.0119103
0.0118031
0.0116946
0.011585
0.0114741
0.011362
0.0112489
0.0111347
0.0110194
0.0109032
0.0107859
0.0106678
0.0105487
0.0104288
0.0103081
0.0101866
0.0100643
0.00994124
0.00981751
0.0096931
0.00956804
0.00944236
0.00931609
0.00918926
0.00906189
0.008934
0.00880561
0.00867676
0.00854746
0.00841774
0.00828761
0.0081571
0.00802623
0.00789501
0.00776347
0.00763161
0.00749947
0.00736704
0.00723436
0.00710144
0.00696828
0.00683491
0.00670134
0.00656758
0.00643364
0.00629953
0.00616528
0.00603087
0.00589634
0.00576168
0.00562691
0.00549203
0.00535706
0.00522199
0.00508685
0.00495163
0.00481635
0.004681
0.0045456
0.00441015
0.00427465
0.00413912
0.00400355
0.00386795
0.00373232
0.00359667
0.003461
0.00332532
0.00318962
0.0030539
0.00291818
0.00278245
0.00264672
0.00251098
0.00237524
0.0022395
0.00210375
0.00196801
0.00183227
0.00169653
0.0015608
0.00142506
0.00128933
0.0011536
0.00101788
0.000882154
0.000746433
0.000610715
0.000474999
0.000339284
0.00020357
6.78565e-05
0.000101892
0.000305674
0.000509455
0.000713233
0.000917007
0.00112078
0.00132454
0.00152829
0.00173203
0.00193575
0.00213946
0.00234315
0.00254681
0.00275045
0.00295405
0.00315762
0.00336114
0.00356461
0.00376802
0.00397137
0.00417464
0.00437783
0.00458092
0.0047839
0.00498677
0.0051895
0.00539209
0.00559451
0.00579676
0.00599881
0.00620065
0.00640225
0.0066036
0.00680467
0.00700544
0.00720588
0.00740597
0.00760567
0.00780497
0.00800383
0.00820222
0.00840011
0.00859745
0.00879422
0.00899038
0.00918589
0.0093807
0.00957478
0.00976809
0.00996057
0.0101522
0.0103429
0.0105326
0.0107213
0.010909
0.0110955
0.0112809
0.011465
0.0116479
0.0118294
0.0120095
0.0121881
0.0123652
0.0125408
0.0127146
0.0128868
0.0130572
0.0132257
0.0133924
0.013557
0.0137196
0.0138801
0.0140385
0.0141946
0.0143483
0.0144997
0.0146487
0.0147951
0.0149389
0.0150801
0.0152186
0.0153543
0.0154872
0.0156171
0.0157441
0.0158681
0.0159889
0.0161066
0.0162211
0.0163324
0.0164403
0.0165449
0.016646
0.0167437
0.0168379
0.0169285
0.0170155
0.0170989
0.0171785
0.0172545
0.0173268
0.0173952
0.0174599
0.0175207
0.0175777
0.0176308
0.0176801
0.0177254
0.0177668
0.0178043
0.0178379
0.0178676
0.0178933
0.0179151
0.017933
0.017947
0.0179571
0.0179633
0.0179656
0.0179641
0.0179588
0.0179496
0.0179367
0.01792
0.0178996
0.0178755
0.0178477
0.0178163
0.0177814
0.0177429
0.0177009
0.0176554
0.0176066
0.0175543
0.0174988
0.01744
0.017378
0.0173128
0.0172445
0.0171731
0.0170987
0.0170214
0.0169412
0.0168581
0.0167723
0.0166837
0.0165925
0.0164987
0.0164023
0.0163034
0.0162021
0.0160984
0.0159923
0.0158841
0.0157736
0.0156609
0.0155462
0.0154294
0.0153107
0.01519
0.0150675
0.0149431
0.014817
0.0146892
0.0145597
0.0144286
0.014296
0.0141618
0.0140262
0.0138892
0.0137509
0.0136112
0.0134702
0.0133281
0.0131847
0.0130402
0.0128947
0.012748
0.0126004
0.0124518
0.0123023
0.0121518
0.0120006
0.0118484
0.0116955
0.0115419
0.0113875
0.0112324
0.0110767
0.0109203
0.0107634
0.0106058
0.0104478
0.0102892
0.0101301
0.00997054
0.00981054
0.00965013
0.00948931
0.00932812
0.00916658
0.0090047
0.0088425
0.00868001
0.00851723
0.0083542
0.00819092
0.0080274
0.00786368
0.00769975
0.00753563
0.00737134
0.00720689
0.00704229
0.00687755
0.00671268
0.0065477
0.0063826
0.00621741
0.00605213
0.00588677
0.00572134
0.00555584
0.00539027
0.00522466
0.005059
0.00489329
0.00472755
0.00456178
0.00439598
0.00423015
0.00406431
0.00389844
0.00373257
0.00356668
0.00340079
0.00323489
0.00306898
0.00290307
0.00273716
0.00257125
0.00240534
0.00223944
0.00207353
0.00190763
0.00174174
0.00157584
0.00140995
0.00124407
0.00107818
0.000912303
0.000746426
0.000580551
0.000414678
0.000248806
8.29353e-05
0.000120419
0.000361256
0.000602091
0.000842923
0.00108375
0.00132457
0.00156538
0.00180619
0.00204698
0.00228775
0.0025285
0.00276924
0.00300994
0.00325061
0.00349125
0.00373184
0.00397238
0.00421286
0.00445328
0.00469362
0.00493387
0.00517402
0.00541407
0.00565399
0.00589377
0.0061334
0.00637286
0.00661213
0.00685119
0.00709002
0.0073286
0.00756691
0.00780492
0.0080426
0.00827993
0.00851688
0.00875341
0.0089895
0.00922511
0.0094602
0.00969473
0.00992868
0.010162
0.0103946
0.0106265
0.0108577
0.011088
0.0113175
0.0115461
0.0117736
0.0120002
0.0122257
0.0124501
0.0126732
0.0128951
0.0131157
0.0133349
0.0135526
0.0137689
0.0139835
0.0141965
0.0144078
0.0146172
0.0148248
0.0150305
0.0152341
0.0154356
0.0156349
0.015832
0.0160268
0.0162191
0.016409
0.0165962
0.0167809
0.0169627
0.0171418
0.017318
0.0174912
0.0176614
0.0178284
0.0179922
0.0181527
0.0183099
0.0184636
0.0186138
0.0187605
0.0189034
0.0190427
0.0191782
0.0193098
0.0194374
0.0195611
0.0196808
0.0197963
0.0199077
0.0200149
0.0201178
0.0202164
0.0203107
0.0204006
0.020486
0.020567
0.0206435
0.0207154
0.0207828
0.0208456
0.0209038
0.0209574
0.0210064
0.0210508
0.0210905
0.0211255
0.0211559
0.0211817
0.0212028
0.0212193
0.0212312
0.0212385
0.0212412
0.0212394
0.021233
0.0212221
0.0212068
0.021187
0.0211628
0.0211342
0.0211013
0.0210641
0.0210227
0.0209771
0.0209274
0.0208736
0.0208157
0.0207539
0.0206881
0.0206185
0.0205451
0.0204679
0.0203871
0.0203026
0.0202146
0.0201231
0.0200281
0.0199298
0.0198283
0.0197235
0.0196155
0.0195045
0.0193904
0.0192734
0.0191535
0.0190308
0.0189054
0.0187773
0.0186466
0.0185133
0.0183776
0.0182395
0.018099
0.0179563
0.0178113
0.0176642
0.0175151
0.0173639
0.0172107
0.0170557
0.0168988
0.0167402
0.0165798
0.0164178
0.0162541
0.0160889
0.0159223
0.0157541
0.0155846
0.0154138
0.0152416
0.0150683
0.0148937
0.014718
0.0145412
0.0143633
0.0141844
0.0140046
0.0138238
0.0136421
0.0134596
0.0132762
0.0130921
0.0129073
0.0127217
0.0125355
0.0123486
0.0121611
0.011973
0.0117844
0.0115953
0.0114056
0.0112155
0.011025
0.010834
0.0106427
0.0104509
0.0102589
0.0100664
0.00987373
0.00968072
0.00948744
0.00929391
0.00910015
0.00890616
0.00871197
0.00851759
0.00832303
0.00812832
0.00793345
0.00773844
0.00754331
0.00734807
0.00715272
0.00695727
0.00676174
0.00656613
0.00637045
0.00617471
0.00597892
0.00578307
0.00558718
0.00539126
0.0051953
0.00499932
0.00480331
0.00460729
0.00441124
0.00421519
0.00401913
0.00382306
0.00362698
0.00343091
0.00323483
0.00303875
0.00284268
0.0026466
0.00245053
0.00225447
0.00205841
0.00186235
0.0016663
0.00147025
0.00127421
0.00107817
0.000882134
0.000686101
0.000490071
0.000294042
9.80138e-05
0.000138947
0.000416839
0.00069473
0.000972617
0.0012505
0.00152838
0.00180624
0.0020841
0.00236194
0.00263977
0.00291757
0.00319535
0.0034731
0.00375081
0.00402849
0.00430611
0.00458368
0.00486118
0.00513861
0.00541595
0.0056932
0.00597033
0.00624734
0.00652421
0.00680093
0.00707747
0.00735381
0.00762995
0.00790584
0.00818148
0.00845683
0.00873186
0.00900656
0.00928089
0.00955481
0.00982829
0.0101013
0.0103738
0.0106458
0.0109171
0.0111878
0.0114579
0.0117272
0.0119958
0.0122635
0.0125303
0.0127962
0.0130611
0.013325
0.0135877
0.0138493
0.0141097
0.0143687
0.0146263
0.0148825
0.0151372
0.0153903
0.0156418
0.0158914
0.0161393
0.0163852
0.0166292
0.0168711
0.0171108
0.0173483
0.0175834
0.0178162
0.0180464
0.018274
0.0184989
0.0187211
0.0189404
0.0191566
0.0193699
0.01958
0.0197868
0.0199903
0.0201904
0.0203869
0.0205799
0.0207691
0.0209545
0.0211361
0.0213136
0.0214872
0.0216565
0.0218217
0.0219826
0.022139
0.022291
0.0224385
0.0225814
0.0227196
0.0228531
0.0229818
0.0231056
0.0232244
0.0233384
0.0234472
0.023551
0.0236497
0.0237432
0.0238316
0.0239146
0.0239925
0.024065
0.0241322
0.0241941
0.0242506
0.0243018
0.0243476
0.0243881
0.0244232
0.0244529
0.0244772
0.0244962
0.0245099
0.0245183
0.0245214
0.0245192
0.0245117
0.0244991
0.0244813
0.0244584
0.0244303
0.0243973
0.0243592
0.0243162
0.0242683
0.0242155
0.024158
0.0240958
0.0240289
0.0239573
0.0238813
0.0238008
0.0237159
0.0236267
0.0235333
0.0234356
0.0233339
0.0232281
0.0231184
0.0230048
0.0228874
0.0227663
0.0226416
0.0225133
0.0223815
0.0222463
0.0221078
0.021966
0.0218211
0.0216731
0.0215221
0.0213682
0.0212114
0.0210519
0.0208896
0.0207247
0.0205573
0.0203874
0.0202151
0.0200405
0.0198636
0.0196846
0.0195034
0.0193202
0.019135
0.0189479
0.0187589
0.0185682
0.0183757
0.0181816
0.0179859
0.0177886
0.0175899
0.0173897
0.0171881
0.0169853
0.0167811
0.0165758
0.0163693
0.0161616
0.0159529
0.0157432
0.0155325
0.0153209
0.0151083
0.0148949
0.0146807
0.0144657
0.01425
0.0140336
0.0138165
0.0135988
0.0133805
0.0131616
0.0129422
0.0127223
0.0125019
0.012281
0.0120597
0.011838
0.011616
0.0113936
0.0111708
0.0109477
0.0107244
0.0105008
0.0102769
0.0100528
0.00982847
0.00960394
0.00937923
0.00915436
0.00892932
0.00870414
0.00847883
0.0082534
0.00802786
0.00780222
0.0075765
0.0073507
0.00712482
0.00689889
0.00667289
0.00644686
0.00622077
0.00599466
0.00576851
0.00554234
0.00531614
0.00508993
0.00486371
0.00463748
0.00441124
0.00418499
0.00395874
0.0037325
0.00350625
0.00328001
0.00305377
0.00282753
0.0026013
0.00237508
0.00214886
0.00192264
0.00169644
0.00147023
0.00124403
0.00101784
0.00079165
0.000565462
0.000339276
0.000113092
0.000157475
0.000472425
0.000787373
0.00110232
0.00141726
0.00173219
0.00204711
0.00236202
0.00267692
0.0029918
0.00330666
0.00362149
0.00393629
0.00425106
0.00456577
0.00488044
0.00519504
0.00550958
0.00582403
0.00613838
0.00645264
0.00676676
0.00708076
0.00739459
0.00770826
0.00802173
0.00833499
0.008648
0.00896076
0.00927322
0.00958537
0.00989716
0.0102086
0.0105196
0.0108301
0.0111402
0.0114497
0.0117587
0.012067
0.0123747
0.0126816
0.0129878
0.0132932
0.0135977
0.0139013
0.0142039
0.0145054
0.0148058
0.015105
0.015403
0.0156997
0.0159949
0.0162887
0.0165809
0.0168715
0.0171604
0.0174474
0.0177326
0.0180158
0.018297
0.018576
0.0188527
0.0191271
0.0193991
0.0196685
0.0199352
0.0201993
0.0204605
0.0207187
0.0209739
0.0212259
0.0214747
0.0217201
0.0219621
0.0222005
0.0224351
0.0226661
0.0228931
0.0231161
0.023335
0.0235497
0.0237602
0.0239662
0.0241677
0.0243646
0.0245568
0.0247442
0.0249268
0.0251044
0.0252769
0.0254442
0.0256064
0.0257632
0.0259147
0.0260607
0.0262012
0.0263361
0.0264653
0.0265888
0.0267066
0.0268186
0.0269247
0.0270249
0.0271191
0.0272074
0.0272897
0.0273659
0.0274361
0.0275002
0.0275583
0.0276102
0.027656
0.0276958
0.0277294
0.027757
0.0277785
0.0277939
0.0278034
0.0278068
0.0278042
0.0277957
0.0277812
0.0277609
0.0277348
0.0277029
0.0276653
0.027622
0.0275731
0.0275187
0.0274587
0.0273933
0.0273226
0.0272466
0.0271653
0.027079
0.0269875
0.0268911
0.0267898
0.0266837
0.0265728
0.0264572
0.0263371
0.0262126
0.0260836
0.0259503
0.0258128
0.0256712
0.0255256
0.025376
0.0252225
0.0250653
0.0249044
0.02474
0.024572
0.0244006
0.0242259
0.024048
0.0238669
0.0236828
0.0234957
0.0233058
0.023113
0.0229175
0.0227194
0.0225187
0.0223156
0.0221101
0.0219022
0.0216921
0.0214799
0.0212655
0.0210492
0.0208309
0.0206107
0.0203887
0.0201649
0.0199395
0.0197125
0.0194839
0.0192538
0.0190223
0.0187894
0.0185552
0.0183198
0.0180831
0.0178453
0.0176063
0.0173663
0.0171253
0.0168834
0.0166405
0.0163968
0.0161522
0.0159068
0.0156607
0.0154138
0.0151663
0.0149181
0.0146694
0.01442
0.0141702
0.0139198
0.0136689
0.0134176
0.0131658
0.0129137
0.0126612
0.0124083
0.0121551
0.0119016
0.0116479
0.0113938
0.0111395
0.010885
0.0106303
0.0103754
0.0101203
0.0098651
0.00960971
0.00935419
0.00909855
0.0088428
0.00858695
0.00833101
0.00807499
0.00781891
0.00756277
0.00730657
0.00705033
0.00679404
0.00653773
0.00628138
0.00602502
0.00576864
0.00551224
0.00525583
0.00499942
0.004743
0.00448658
0.00423016
0.00397374
0.00371733
0.00346092
0.00320452
0.00294813
0.00269174
0.00243536
0.00217898
0.00192261
0.00166625
0.00140989
0.00115354
0.000897195
0.000640851
0.00038451
0.00012817
0.000176004
0.000528012
0.000880019
0.00123202
0.00158402
0.00193601
0.00228799
0.00263997
0.00299192
0.00334386
0.00369578
0.00404767
0.00439953
0.00475134
0.00510311
0.00545483
0.00580648
0.00615805
0.00650954
0.00686093
0.0072122
0.00756334
0.00791433
0.00826515
0.00861578
0.00896621
0.0093164
0.00966632
0.010016
0.0103653
0.0107143
0.0110628
0.011411
0.0117587
0.0121059
0.0124526
0.0127987
0.0131441
0.0134889
0.0138329
0.0141762
0.0145186
0.0148601
0.0152006
0.0155401
0.0158785
0.0162157
0.0165517
0.0168863
0.0172196
0.0175514
0.0178816
0.0182102
0.0185371
0.0188622
0.0191853
0.0195064
0.0198255
0.0201423
0.0204568
0.0207689
0.0210786
0.0213856
0.0216898
0.0219913
0.0222898
0.0225852
0.0228775
0.0231664
0.023452
0.023734
0.0240124
0.0242871
0.0245578
0.0248246
0.0250873
0.0253457
0.0255998
0.0258494
0.0260944
0.0263347
0.0265702
0.0268008
0.0270264
0.0272468
0.0274619
0.0276717
0.027876
0.0280748
0.0282678
0.0284552
0.0286366
0.0288122
0.0289817
0.0291451
0.0293024
0.0294533
0.029598
0.0297362
0.029868
0.0299933
0.030112
0.0302242
0.0303296
0.0304284
0.0305204
0.0306057
0.0306842
0.0307559
0.0308208
0.0308789
0.0309301
0.0309745
0.0310121
0.0310428
0.0310668
0.031084
0.0310944
0.0310981
0.0310952
0.0310855
0.0310693
0.0310464
0.0310171
0.0309813
0.030939
0.0308905
0.0308356
0.0307745
0.0307073
0.030634
0.0305547
0.0304695
0.0303785
0.0302817
0.0301792
0.0300712
0.0299577
0.0298388
0.0297146
0.0295852
0.0294507
0.0293111
0.0291667
0.0290174
0.0288635
0.0287049
0.0285418
0.0283743
0.0282025
0.0280265
0.0278464
0.0276623
0.0274742
0.0272824
0.0270869
0.0268877
0.0266851
0.026479
0.0262696
0.026057
0.0258413
0.0256226
0.0254009
0.0251763
0.024949
0.024719
0.0244865
0.0242514
0.024014
0.0237742
0.0235321
0.0232879
0.0230416
0.0227932
0.0225429
0.0222908
0.0220368
0.0217811
0.0215238
0.0212649
0.0210044
0.0207425
0.0204791
0.0202144
0.0199485
0.0196812
0.0194129
0.0191433
0.0188728
0.0186012
0.0183286
0.0180551
0.0177807
0.0175055
0.0172295
0.0169527
0.0166753
0.0163971
0.0161184
0.015839
0.015559
0.0152786
0.0149976
0.0147161
0.0144342
0.0141519
0.0138692
0.0135862
0.0133028
0.0130191
0.0127351
0.0124509
0.0121663
0.0118816
0.0115967
0.0113115
0.0110262
0.0107407
0.0104551
0.0101693
0.00988347
0.00959748
0.0093114
0.00902524
0.008739
0.00845269
0.00816633
0.00787992
0.00759346
0.00730697
0.00702045
0.00673391
0.00644735
0.00616078
0.00587419
0.0055876
0.00530101
0.00501442
0.00472783
0.00444124
0.00415465
0.00386808
0.00358151
0.00329495
0.00300839
0.00272185
0.00243531
0.00214878
0.00186226
0.00157575
0.00128924
0.00100274
0.000716238
0.000429742
0.000143247
0.000194534
0.000583602
0.000972668
0.00136173
0.00175079
0.00213984
0.00252889
0.00291792
0.00330694
0.00369594
0.00408492
0.00447388
0.0048628
0.00525168
0.00564051
0.00602928
0.00641799
0.00680662
0.00719515
0.00758358
0.00797189
0.00836006
0.00874807
0.00913589
0.00952352
0.00991092
0.0102981
0.0106849
0.0110715
0.0114577
0.0118435
0.0122289
0.0126139
0.0129984
0.0133823
0.0137656
0.0141483
0.0145303
0.0149115
0.015292
0.0156716
0.0160502
0.0164279
0.0168045
0.01718
0.0175543
0.0179272
0.0182989
0.018669
0.0190377
0.0194047
0.01977
0.0201335
0.0204951
0.0208547
0.0212122
0.0215675
0.0219205
0.0222711
0.0226191
0.0229644
0.023307
0.0236468
0.0239835
0.024317
0.0246474
0.0249743
0.0252978
0.0256176
0.0259336
0.0262458
0.0265539
0.0268579
0.0271576
0.0274529
0.0277436
0.0280297
0.0283109
0.0285873
0.0288585
0.0291245
0.0293852
0.0296405
0.0298902
0.0301342
0.0303724
0.0306046
0.0308308
0.0310508
0.0312646
0.031472
0.0316729
0.0318672
0.0320549
0.0322358
0.0324098
0.0325769
0.032737
0.0328901
0.033036
0.0331746
0.033306
0.0334301
0.0335468
0.0336561
0.0337579
0.0338523
0.0339391
0.0340184
0.0340902
0.0341543
0.034211
0.03426
0.0343015
0.0343355
0.0343619
0.0343808
0.0343923
0.0343962
0.0343928
0.034382
0.0343639
0.0343384
0.0343058
0.034266
0.0342191
0.0341652
0.0341043
0.0340366
0.033962
0.0338807
0.0337928
0.0336983
0.0335974
0.0334901
0.0333765
0.0332568
0.033131
0.0329992
0.0328616
0.0327182
0.0325692
0.0324146
0.0322546
0.0320893
0.0319187
0.0317431
0.0315625
0.031377
0.0311867
0.0309918
0.0307924
0.0305885
0.0303803
0.0301679
0.0299514
0.029731
0.0295066
0.0292785
0.0290467
0.0288114
0.0285726
0.0283305
0.0280852
0.0278367
0.0275851
0.0273306
0.0270733
0.0268131
0.0265504
0.026285
0.0260172
0.025747
0.0254745
0.0251997
0.0249228
0.0246439
0.0243629
0.0240801
0.0237954
0.023509
0.0232208
0.0229311
0.0226398
0.022347
0.0220529
0.0217573
0.0214605
0.0211624
0.0208632
0.0205628
0.0202614
0.0199589
0.0196555
0.0193511
0.0190459
0.0187399
0.0184331
0.0181255
0.0178173
0.0175084
0.0171988
0.0168887
0.016578
0.0162668