/*--------------------------------*- C++ -*----------------------------------*\
| =========                 |                                                 |
| \\      /  F ield         | OpenFOAM: The Open Source CFD Toolbox           |
|  \\    /   O peration     | Version:  v2012                                 |
|   \\  /    A nd           | Website:  www.openfoam.com                      |
|    \\/     M anipulation  |                                                 |
\*---------------------------------------------------------------------------*/
FoamFile
{
    version     2.0;
    format      ascii;
    class       volVectorField;
    location    "7.9";
    object      U;
}
// * * * * * * * * * * * * * * * * * * * * * * * * * * * * * * * * * * * * * //

dimensions      [0 1 -1 0 0 0 0];


internalField   nonuniform List<vector> 
65536
(
(0.000754719 -0.000754717 0)
(0.00226415 -0.00075471 0)
(0.00377357 -0.000754698 0)
(0.00528295 -0.000754679 0)
(0.00679229 -0.000754653 0)
(0.00830157 -0.000754619 0)
(0.00981077 -0.000754577 0)
(0.0113199 -0.000754525 0)
(0.0128289 -0.000754463 0)
(0.0143377 -0.000754389 0)
(0.0158465 -0.000754302 0)
(0.017355 -0.0007542 0)
(0.0188633 -0.000754082 0)
(0.0203713 -0.000753945 0)
(0.0218791 -0.000753788 0)
(0.0233865 -0.000753608 0)
(0.0248935 -0.000753403 0)
(0.0264001 -0.00075317 0)
(0.0279062 -0.000752908 0)
(0.0294118 -0.000752612 0)
(0.0309167 -0.000752281 0)
(0.0324209 -0.00075191 0)
(0.0339244 -0.000751498 0)
(0.035427 -0.000751039 0)
(0.0369286 -0.000750532 0)
(0.0384292 -0.000749972 0)
(0.0399285 -0.000749356 0)
(0.0414266 -0.000748679 0)
(0.0429233 -0.000747938 0)
(0.0444185 -0.000747128 0)
(0.0459119 -0.000746245 0)
(0.0474035 -0.000745285 0)
(0.0488931 -0.000744243 0)
(0.0503806 -0.000743115 0)
(0.0518657 -0.000741897 0)
(0.0533483 -0.000740582 0)
(0.0548281 -0.000739166 0)
(0.056305 -0.000737645 0)
(0.0577788 -0.000736014 0)
(0.0592492 -0.000734267 0)
(0.060716 -0.000732398 0)
(0.0621789 -0.000730404 0)
(0.0636377 -0.000728279 0)
(0.0650922 -0.000726017 0)
(0.0665419 -0.000723614 0)
(0.0679868 -0.000721063 0)
(0.0694263 -0.00071836 0)
(0.0708604 -0.0007155 0)
(0.0722885 -0.000712476 0)
(0.0737104 -0.000709285 0)
(0.0751258 -0.000705921 0)
(0.0765343 -0.000702378 0)
(0.0779355 -0.000698652 0)
(0.0793291 -0.000694738 0)
(0.0807146 -0.000690631 0)
(0.0820918 -0.000686327 0)
(0.0834602 -0.000681819 0)
(0.0848193 -0.000677106 0)
(0.0861688 -0.000672181 0)
(0.0875082 -0.000667041 0)
(0.0888372 -0.000661682 0)
(0.0901552 -0.0006561 0)
(0.0914618 -0.000650291 0)
(0.0927566 -0.000644254 0)
(0.094039 -0.000637983 0)
(0.0953087 -0.000631477 0)
(0.0965652 -0.000624734 0)
(0.0978079 -0.00061775 0)
(0.0990364 -0.000610524 0)
(0.10025 -0.000603054 0)
(0.101449 -0.00059534 0)
(0.102632 -0.000587379 0)
(0.103799 -0.000579172 0)
(0.104949 -0.000570718 0)
(0.106082 -0.000562017 0)
(0.107197 -0.00055307 0)
(0.108294 -0.000543878 0)
(0.109373 -0.000534442 0)
(0.110432 -0.000524763 0)
(0.111472 -0.000514843 0)
(0.112492 -0.000504685 0)
(0.113491 -0.000494292 0)
(0.114469 -0.000483667 0)
(0.115426 -0.000472813 0)
(0.116361 -0.000461735 0)
(0.117273 -0.000450436 0)
(0.118163 -0.000438922 0)
(0.119029 -0.000427198 0)
(0.119872 -0.00041527 0)
(0.12069 -0.000403142 0)
(0.121484 -0.000390823 0)
(0.122254 -0.000378317 0)
(0.122998 -0.000365633 0)
(0.123716 -0.000352777 0)
(0.124409 -0.000339757 0)
(0.125076 -0.000326581 0)
(0.125716 -0.000313257 0)
(0.126329 -0.000299794 0)
(0.126915 -0.000286201 0)
(0.127474 -0.000272485 0)
(0.128005 -0.000258657 0)
(0.128508 -0.000244726 0)
(0.128984 -0.0002307 0)
(0.129431 -0.000216591 0)
(0.12985 -0.000202407 0)
(0.130241 -0.000188159 0)
(0.130603 -0.000173856 0)
(0.130937 -0.000159508 0)
(0.131241 -0.000145126 0)
(0.131517 -0.00013072 0)
(0.131764 -0.000116299 0)
(0.131982 -0.000101873 0)
(0.132172 -8.74534e-05 0)
(0.132332 -7.3049e-05 0)
(0.132464 -5.86698e-05 0)
(0.132567 -4.43255e-05 0)
(0.132641 -3.00258e-05 0)
(0.132687 -1.57799e-05 0)
(0.132704 -1.59717e-06 0)
(0.132693 1.25134e-05 0)
(0.132654 2.65429e-05 0)
(0.132587 4.04828e-05 0)
(0.132492 5.43246e-05 0)
(0.132369 6.80602e-05 0)
(0.13222 8.16818e-05 0)
(0.132043 9.51817e-05 0)
(0.131839 0.000108553 0)
(0.131608 0.000121787 0)
(0.131351 0.000134879 0)
(0.131069 0.000147822 0)
(0.13076 0.000160609 0)
(0.130426 0.000173236 0)
(0.130067 0.000185695 0)
(0.129683 0.000197983 0)
(0.129275 0.000210094 0)
(0.128842 0.000222024 0)
(0.128386 0.000233769 0)
(0.127907 0.000245324 0)
(0.127405 0.000256687 0)
(0.12688 0.000267854 0)
(0.126333 0.000278822 0)
(0.125765 0.000289589 0)
(0.125175 0.000300152 0)
(0.124564 0.00031051 0)
(0.123933 0.00032066 0)
(0.123281 0.000330602 0)
(0.12261 0.000340334 0)
(0.12192 0.000349856 0)
(0.12121 0.000359167 0)
(0.120483 0.000368267 0)
(0.119737 0.000377155 0)
(0.118974 0.000385833 0)
(0.118193 0.0003943 0)
(0.117396 0.000402557 0)
(0.116583 0.000410605 0)
(0.115754 0.000418446 0)
(0.114909 0.00042608 0)
(0.114049 0.000433509 0)
(0.113175 0.000440735 0)
(0.112286 0.00044776 0)
(0.111384 0.000454585 0)
(0.110468 0.000461212 0)
(0.109539 0.000467645 0)
(0.108597 0.000473885 0)
(0.107643 0.000479936 0)
(0.106677 0.000485798 0)
(0.105699 0.000491477 0)
(0.104711 0.000496973 0)
(0.103711 0.000502291 0)
(0.102701 0.000507432 0)
(0.101681 0.000512402 0)
(0.100652 0.000517201 0)
(0.0996125 0.000521834 0)
(0.0985642 0.000526304 0)
(0.0975071 0.000530614 0)
(0.0964416 0.000534768 0)
(0.0953679 0.000538768 0)
(0.0942864 0.000542618 0)
(0.0931973 0.000546323 0)
(0.0921009 0.000549884 0)
(0.0909976 0.000553305 0)
(0.0898876 0.00055659 0)
(0.0887711 0.000559743 0)
(0.0876485 0.000562766 0)
(0.0865199 0.000565663 0)
(0.0853857 0.000568438 0)
(0.0842461 0.000571093 0)
(0.0831012 0.000573632 0)
(0.0819514 0.000576059 0)
(0.0807969 0.000578376 0)
(0.0796378 0.000580587 0)
(0.0784745 0.000582695 0)
(0.077307 0.000584704 0)
(0.0761355 0.000586615 0)
(0.0749604 0.000588434 0)
(0.0737817 0.000590162 0)
(0.0725997 0.000591802 0)
(0.0714144 0.000593358 0)
(0.0702262 0.000594833 0)
(0.069035 0.000596229 0)
(0.0678412 0.000597549 0)
(0.0666448 0.000598796 0)
(0.0654459 0.000599973 0)
(0.0642448 0.000601082 0)
(0.0630415 0.000602126 0)
(0.0618362 0.000603108 0)
(0.060629 0.00060403 0)
(0.0594201 0.000604894 0)
(0.0582094 0.000605703 0)
(0.0569972 0.00060646 0)
(0.0557835 0.000607166 0)
(0.0545685 0.000607825 0)
(0.0533522 0.000608437 0)
(0.0521347 0.000609006 0)
(0.0509161 0.000609533 0)
(0.0496965 0.000610021 0)
(0.048476 0.000610471 0)
(0.0472546 0.000610885 0)
(0.0460324 0.000611266 0)
(0.0448095 0.000611615 0)
(0.0435859 0.000611934 0)
(0.0423617 0.000612224 0)
(0.041137 0.000612488 0)
(0.0399118 0.000612726 0)
(0.0386861 0.000612941 0)
(0.03746 0.000613134 0)
(0.0362335 0.000613307 0)
(0.0350067 0.00061346 0)
(0.0337797 0.000613596 0)
(0.0325523 0.000613715 0)
(0.0313248 0.00061382 0)
(0.0300971 0.00061391 0)
(0.0288691 0.000613988 0)
(0.0276411 0.000614054 0)
(0.0264129 0.000614109 0)
(0.0251846 0.000614155 0)
(0.0239563 0.000614193 0)
(0.0227279 0.000614223 0)
(0.0214994 0.000614246 0)
(0.0202709 0.000614263 0)
(0.0190423 0.000614276 0)
(0.0178138 0.000614284 0)
(0.0165852 0.000614288 0)
(0.0153566 0.000614289 0)
(0.014128 0.000614288 0)
(0.0128995 0.000614286 0)
(0.0116709 0.000614281 0)
(0.0104423 0.000614276 0)
(0.00921379 0.000614271 0)
(0.00798526 0.000614265 0)
(0.00675673 0.00061426 0)
(0.00552822 0.000614255 0)
(0.00429972 0.00061425 0)
(0.00307122 0.000614247 0)
(0.00184273 0.000614245 0)
(0.000614243 0.000614244 0)
(0.000754725 -0.00226415 0)
(0.00226417 -0.00226414 0)
(0.00377359 -0.0022641 0)
(0.00528299 -0.00226404 0)
(0.00679234 -0.00226397 0)
(0.00830164 -0.00226386 0)
(0.00981086 -0.00226374 0)
(0.01132 -0.00226359 0)
(0.012829 -0.0022634 0)
(0.0143379 -0.00226318 0)
(0.0158466 -0.00226292 0)
(0.0173552 -0.00226262 0)
(0.0188635 -0.00226226 0)
(0.0203716 -0.00226185 0)
(0.0218794 -0.00226138 0)
(0.0233869 -0.00226085 0)
(0.024894 -0.00226023 0)
(0.0264006 -0.00225954 0)
(0.0279068 -0.00225875 0)
(0.0294124 -0.00225787 0)
(0.0309174 -0.00225688 0)
(0.0324217 -0.00225577 0)
(0.0339253 -0.00225454 0)
(0.0354279 -0.00225317 0)
(0.0369297 -0.00225165 0)
(0.0384303 -0.00224997 0)
(0.0399298 -0.00224813 0)
(0.041428 -0.0022461 0)
(0.0429249 -0.00224388 0)
(0.0444201 -0.00224145 0)
(0.0459137 -0.00223881 0)
(0.0474055 -0.00223594 0)
(0.0488953 -0.00223281 0)
(0.0503829 -0.00222944 0)
(0.0518682 -0.00222578 0)
(0.053351 -0.00222184 0)
(0.054831 -0.0022176 0)
(0.0563082 -0.00221304 0)
(0.0577821 -0.00220816 0)
(0.0592528 -0.00220292 0)
(0.0607198 -0.00219732 0)
(0.062183 -0.00219134 0)
(0.0636421 -0.00218497 0)
(0.0650968 -0.00217819 0)
(0.0665469 -0.00217099 0)
(0.067992 -0.00216334 0)
(0.0694319 -0.00215524 0)
(0.0708662 -0.00214666 0)
(0.0722947 -0.0021376 0)
(0.0737169 -0.00212803 0)
(0.0751327 -0.00211794 0)
(0.0765415 -0.00210732 0)
(0.0779431 -0.00209614 0)
(0.0793371 -0.00208441 0)
(0.080723 -0.00207209 0)
(0.0821006 -0.00205918 0)
(0.0834693 -0.00204566 0)
(0.0848289 -0.00203153 0)
(0.0861788 -0.00201675 0)
(0.0875187 -0.00200134 0)
(0.0888481 -0.00198526 0)
(0.0901665 -0.00196852 0)
(0.0914736 -0.0019511 0)
(0.0927688 -0.00193299 0)
(0.0940518 -0.00191418 0)
(0.0953219 -0.00189467 0)
(0.0965788 -0.00187444 0)
(0.0978221 -0.00185349 0)
(0.0990511 -0.00183181 0)
(0.100265 -0.0018094 0)
(0.101464 -0.00178626 0)
(0.102648 -0.00176238 0)
(0.103815 -0.00173776 0)
(0.104966 -0.0017124 0)
(0.106099 -0.0016863 0)
(0.107215 -0.00165945 0)
(0.108313 -0.00163188 0)
(0.109392 -0.00160356 0)
(0.110452 -0.00157453 0)
(0.111492 -0.00154476 0)
(0.112512 -0.00151429 0)
(0.113512 -0.00148311 0)
(0.114491 -0.00145123 0)
(0.115448 -0.00141866 0)
(0.116383 -0.00138542 0)
(0.117296 -0.00135152 0)
(0.118186 -0.00131698 0)
(0.119053 -0.0012818 0)
(0.119896 -0.00124601 0)
(0.120715 -0.00120962 0)
(0.121509 -0.00117265 0)
(0.122279 -0.00113513 0)
(0.123023 -0.00109707 0)
(0.123742 -0.00105849 0)
(0.124435 -0.00101943 0)
(0.125102 -0.00097989 0)
(0.125742 -0.00093991 0)
(0.126356 -0.000899512 0)
(0.126942 -0.000858722 0)
(0.127501 -0.000817567 0)
(0.128033 -0.000776073 0)
(0.128536 -0.000734269 0)
(0.129012 -0.000692184 0)
(0.12946 -0.000649846 0)
(0.129879 -0.000607285 0)
(0.13027 -0.00056453 0)
(0.130632 -0.000521611 0)
(0.130965 -0.000478559 0)
(0.13127 -0.000435402 0)
(0.131546 -0.000392173 0)
(0.131793 -0.0003489 0)
(0.132011 -0.000305614 0)
(0.1322 -0.000262344 0)
(0.132361 -0.000219121 0)
(0.132492 -0.000175974 0)
(0.132595 -0.000132932 0)
(0.132669 -9.0023e-05 0)
(0.132715 -4.72762e-05 0)
(0.132732 -4.71908e-06 0)
(0.132721 3.76213e-05 0)
(0.132682 7.97185e-05 0)
(0.132615 0.000121546 0)
(0.132519 0.00016308 0)
(0.132397 0.000204295 0)
(0.132247 0.000245167 0)
(0.132069 0.000285674 0)
(0.131865 0.000325793 0)
(0.131634 0.000365504 0)
(0.131377 0.000404787 0)
(0.131094 0.000443621 0)
(0.130785 0.000481989 0)
(0.130451 0.000519873 0)
(0.130092 0.000557257 0)
(0.129707 0.000594125 0)
(0.129299 0.000630462 0)
(0.128866 0.000666256 0)
(0.12841 0.000701494 0)
(0.12793 0.000736164 0)
(0.127427 0.000770256 0)
(0.126902 0.000803759 0)
(0.126355 0.000836666 0)
(0.125786 0.000868968 0)
(0.125196 0.00090066 0)
(0.124584 0.000931734 0)
(0.123953 0.000962187 0)
(0.123301 0.000992014 0)
(0.122629 0.00102121 0)
(0.121938 0.00104978 0)
(0.121229 0.00107771 0)
(0.120501 0.00110501 0)
(0.119755 0.00113167 0)
(0.118991 0.00115771 0)
(0.11821 0.00118311 0)
(0.117413 0.00120788 0)
(0.116599 0.00123202 0)
(0.115769 0.00125554 0)
(0.114924 0.00127844 0)
(0.114064 0.00130073 0)
(0.113189 0.00132241 0)
(0.1123 0.00134348 0)
(0.111397 0.00136395 0)
(0.110481 0.00138383 0)
(0.109551 0.00140313 0)
(0.108609 0.00142184 0)
(0.107655 0.00143999 0)
(0.106688 0.00145758 0)
(0.105711 0.00147461 0)
(0.104722 0.0014911 0)
(0.103722 0.00150705 0)
(0.102712 0.00152247 0)
(0.101691 0.00153737 0)
(0.100661 0.00155177 0)
(0.0996215 0.00156566 0)
(0.0985729 0.00157907 0)
(0.0975155 0.001592 0)
(0.0964497 0.00160445 0)
(0.0953757 0.00161645 0)
(0.0942939 0.001628 0)
(0.0932045 0.00163911 0)
(0.0921079 0.00164979 0)
(0.0910043 0.00166005 0)
(0.089894 0.0016699 0)
(0.0887773 0.00167936 0)
(0.0876544 0.00168842 0)
(0.0865256 0.00169711 0)
(0.0853911 0.00170543 0)
(0.0842512 0.00171339 0)
(0.0831062 0.00172101 0)
(0.0819561 0.00172828 0)
(0.0808014 0.00173523 0)
(0.0796421 0.00174186 0)
(0.0784785 0.00174818 0)
(0.0773108 0.0017542 0)
(0.0761392 0.00175994 0)
(0.0749639 0.00176539 0)
(0.073785 0.00177057 0)
(0.0726028 0.00177549 0)
(0.0714174 0.00178015 0)
(0.070229 0.00178458 0)
(0.0690377 0.00178876 0)
(0.0678437 0.00179272 0)
(0.0666471 0.00179646 0)
(0.0654482 0.00179998 0)
(0.0642469 0.00180331 0)
(0.0630435 0.00180644 0)
(0.0618381 0.00180938 0)
(0.0606308 0.00181214 0)
(0.0594217 0.00181473 0)
(0.0582109 0.00181716 0)
(0.0569986 0.00181943 0)
(0.0557849 0.00182155 0)
(0.0545697 0.00182352 0)
(0.0533533 0.00182535 0)
(0.0521358 0.00182706 0)
(0.0509171 0.00182864 0)
(0.0496974 0.0018301 0)
(0.0484768 0.00183145 0)
(0.0472554 0.00183269 0)
(0.0460331 0.00183383 0)
(0.0448102 0.00183487 0)
(0.0435865 0.00183583 0)
(0.0423623 0.0018367 0)
(0.0411375 0.00183749 0)
(0.0399122 0.0018382 0)
(0.0386865 0.00183884 0)
(0.0374603 0.00183942 0)
(0.0362338 0.00183994 0)
(0.035007 0.0018404 0)
(0.0337799 0.0018408 0)
(0.0325526 0.00184116 0)
(0.031325 0.00184147 0)
(0.0300972 0.00184174 0)
(0.0288693 0.00184197 0)
(0.0276412 0.00184217 0)
(0.026413 0.00184234 0)
(0.0251847 0.00184247 0)
(0.0239563 0.00184258 0)
(0.0227279 0.00184267 0)
(0.0214994 0.00184274 0)
(0.0202709 0.00184279 0)
(0.0190423 0.00184283 0)
(0.0178138 0.00184285 0)
(0.0165852 0.00184287 0)
(0.0153566 0.00184287 0)
(0.014128 0.00184287 0)
(0.0128995 0.00184286 0)
(0.0116709 0.00184284 0)
(0.0104423 0.00184283 0)
(0.00921378 0.00184281 0)
(0.00798524 0.00184279 0)
(0.00675672 0.00184278 0)
(0.00552821 0.00184276 0)
(0.00429971 0.00184275 0)
(0.00307121 0.00184274 0)
(0.00184273 0.00184273 0)
(0.000614242 0.00184273 0)
(0.000754737 -0.00377361 0)
(0.00226421 -0.00377358 0)
(0.00377366 -0.00377352 0)
(0.00528308 -0.00377343 0)
(0.00679246 -0.0037733 0)
(0.00830179 -0.00377314 0)
(0.00981105 -0.00377293 0)
(0.0113202 -0.00377268 0)
(0.0128293 -0.00377237 0)
(0.0143382 -0.00377201 0)
(0.015847 -0.00377158 0)
(0.0173556 -0.00377108 0)
(0.018864 -0.0037705 0)
(0.0203722 -0.00376983 0)
(0.0218801 -0.00376905 0)
(0.0233876 -0.00376816 0)
(0.0248948 -0.00376715 0)
(0.0264016 -0.003766 0)
(0.0279079 -0.0037647 0)
(0.0294137 -0.00376324 0)
(0.0309188 -0.0037616 0)
(0.0324233 -0.00375976 0)
(0.033927 -0.00375771 0)
(0.0354299 -0.00375544 0)
(0.0369318 -0.00375292 0)
(0.0384327 -0.00375014 0)
(0.0399324 -0.00374708 0)
(0.0414309 -0.00374371 0)
(0.042928 -0.00374003 0)
(0.0444235 -0.003736 0)
(0.0459174 -0.00373161 0)
(0.0474095 -0.00372683 0)
(0.0488996 -0.00372165 0)
(0.0503876 -0.00371603 0)
(0.0518733 -0.00370996 0)
(0.0533564 -0.00370341 0)
(0.0548369 -0.00369636 0)
(0.0563145 -0.00368878 0)
(0.0577889 -0.00368064 0)
(0.05926 -0.00367193 0)
(0.0607275 -0.00366262 0)
(0.0621912 -0.00365267 0)
(0.0636509 -0.00364207 0)
(0.0651061 -0.00363079 0)
(0.0665568 -0.0036188 0)
(0.0680025 -0.00360607 0)
(0.069443 -0.00359258 0)
(0.070878 -0.00357831 0)
(0.0723071 -0.00356322 0)
(0.0737301 -0.00354729 0)
(0.0751465 -0.00353049 0)
(0.0765561 -0.0035128 0)
(0.0779584 -0.0034942 0)
(0.0793531 -0.00347465 0)
(0.0807398 -0.00345414 0)
(0.0821182 -0.00343264 0)
(0.0834878 -0.00341013 0)
(0.0848482 -0.00338658 0)
(0.0861989 -0.00336197 0)
(0.0875397 -0.00333629 0)
(0.08887 -0.00330952 0)
(0.0901893 -0.00328163 0)
(0.0914973 -0.0032526 0)
(0.0927935 -0.00322243 0)
(0.0940773 -0.00319109 0)
(0.0953484 -0.00315857 0)
(0.0966063 -0.00312486 0)
(0.0978505 -0.00308995 0)
(0.0990805 -0.00305383 0)
(0.100296 -0.00301649 0)
(0.101496 -0.00297792 0)
(0.10268 -0.00293812 0)
(0.103849 -0.00289709 0)
(0.105 -0.00285482 0)
(0.106135 -0.00281131 0)
(0.107251 -0.00276657 0)
(0.10835 -0.00272061 0)
(0.10943 -0.00267342 0)
(0.110491 -0.00262501 0)
(0.111532 -0.0025754 0)
(0.112554 -0.0025246 0)
(0.113554 -0.00247262 0)
(0.114534 -0.00241947 0)
(0.115492 -0.00236518 0)
(0.116428 -0.00230977 0)
(0.117342 -0.00225325 0)
(0.118232 -0.00219566 0)
(0.1191 -0.00213701 0)
(0.119944 -0.00207734 0)
(0.120764 -0.00201667 0)
(0.121559 -0.00195504 0)
(0.122329 -0.00189248 0)
(0.123075 -0.00182902 0)
(0.123794 -0.0017647 0)
(0.124488 -0.00169956 0)
(0.125155 -0.00163364 0)
(0.125796 -0.00156698 0)
(0.12641 -0.00149962 0)
(0.126997 -0.00143161 0)
(0.127556 -0.00136299 0)
(0.128088 -0.0012938 0)
(0.128592 -0.00122409 0)
(0.129068 -0.00115392 0)
(0.129516 -0.00108332 0)
(0.129936 -0.00101236 0)
(0.130327 -0.000941065 0)
(0.130689 -0.0008695 0)
(0.131023 -0.000797713 0)
(0.131328 -0.000725752 0)
(0.131604 -0.000653669 0)
(0.131851 -0.000581514 0)
(0.132069 -0.000509337 0)
(0.132258 -0.000437188 0)
(0.132418 -0.000365117 0)
(0.13255 -0.000293173 0)
(0.132653 -0.000221404 0)
(0.132727 -0.000149858 0)
(0.132772 -7.8583e-05 0)
(0.132789 -7.62423e-06 0)
(0.132777 6.29726e-05 0)
(0.132738 0.000133163 0)
(0.13267 0.000202904 0)
(0.132575 0.000272154 0)
(0.132451 0.000340872 0)
(0.132301 0.000409017 0)
(0.132123 0.000476553 0)
(0.131919 0.000543443 0)
(0.131687 0.00060965 0)
(0.131429 0.000675142 0)
(0.131146 0.000739886 0)
(0.130836 0.000803852 0)
(0.130501 0.000867011 0)
(0.130141 0.000929334 0)
(0.129756 0.000990797 0)
(0.129347 0.00105137 0)
(0.128913 0.00111105 0)
(0.128456 0.00116979 0)
(0.127976 0.00122758 0)
(0.127473 0.00128441 0)
(0.126947 0.00134026 0)
(0.126399 0.00139511 0)
(0.125829 0.00144896 0)
(0.125238 0.00150179 0)
(0.124625 0.00155358 0)
(0.123993 0.00160434 0)
(0.12334 0.00165406 0)
(0.122668 0.00170272 0)
(0.121976 0.00175033 0)
(0.121266 0.00179689 0)
(0.120537 0.00184239 0)
(0.11979 0.00188683 0)
(0.119025 0.00193021 0)
(0.118244 0.00197255 0)
(0.117445 0.00201383 0)
(0.116631 0.00205406 0)
(0.1158 0.00209326 0)
(0.114954 0.00213142 0)
(0.114093 0.00216856 0)
(0.113218 0.00220468 0)
(0.112328 0.00223979 0)
(0.111424 0.00227391 0)
(0.110507 0.00230703 0)
(0.109577 0.00233919 0)
(0.108634 0.00237037 0)
(0.107679 0.00240061 0)
(0.106711 0.00242991 0)
(0.105733 0.00245829 0)
(0.104743 0.00248576 0)
(0.103743 0.00251233 0)
(0.102732 0.00253802 0)
(0.101711 0.00256285 0)
(0.10068 0.00258683 0)
(0.0996398 0.00260998 0)
(0.0985905 0.00263231 0)
(0.0975325 0.00265385 0)
(0.096466 0.0026746 0)
(0.0953914 0.00269458 0)
(0.094309 0.00271382 0)
(0.0932191 0.00273232 0)
(0.0921219 0.00275011 0)
(0.0910177 0.0027672 0)
(0.0899069 0.00278361 0)
(0.0887896 0.00279936 0)
(0.0876662 0.00281446 0)
(0.0865369 0.00282892 0)
(0.085402 0.00284278 0)
(0.0842616 0.00285604 0)
(0.0831161 0.00286872 0)
(0.0819656 0.00288084 0)
(0.0808104 0.00289241 0)
(0.0796508 0.00290344 0)
(0.0784868 0.00291397 0)
(0.0773187 0.002924 0)
(0.0761467 0.00293354 0)
(0.074971 0.00294262 0)
(0.0737918 0.00295124 0)
(0.0726092 0.00295943 0)
(0.0714235 0.0029672 0)
(0.0702347 0.00297455 0)
(0.0690431 0.00298152 0)
(0.0678488 0.00298811 0)
(0.066652 0.00299433 0)
(0.0654527 0.0030002 0)
(0.0642512 0.00300573 0)
(0.0630476 0.00301094 0)
(0.0618419 0.00301583 0)
(0.0606344 0.00302043 0)
(0.0594251 0.00302474 0)
(0.0582141 0.00302878 0)
(0.0570016 0.00303255 0)
(0.0557876 0.00303607 0)
(0.0545723 0.00303935 0)
(0.0533557 0.0030424 0)
(0.052138 0.00304524 0)
(0.0509191 0.00304786 0)
(0.0496993 0.00305029 0)
(0.0484786 0.00305253 0)
(0.047257 0.00305459 0)
(0.0460346 0.00305649 0)
(0.0448115 0.00305822 0)
(0.0435877 0.00305981 0)
(0.0423634 0.00306125 0)
(0.0411385 0.00306256 0)
(0.0399131 0.00306375 0)
(0.0386873 0.00306481 0)
(0.0374611 0.00306577 0)
(0.0362345 0.00306663 0)
(0.0350076 0.00306739 0)
(0.0337804 0.00306806 0)
(0.032553 0.00306865 0)
(0.0313254 0.00306916 0)
(0.0300975 0.00306961 0)
(0.0288696 0.00306999 0)
(0.0276414 0.00307032 0)
(0.0264132 0.00307059 0)
(0.0251849 0.00307082 0)
(0.0239565 0.003071 0)
(0.022728 0.00307115 0)
(0.0214995 0.00307126 0)
(0.020271 0.00307134 0)
(0.0190424 0.0030714 0)
(0.0178138 0.00307143 0)
(0.0165852 0.00307145 0)
(0.0153566 0.00307146 0)
(0.014128 0.00307145 0)
(0.0128994 0.00307143 0)
(0.0116709 0.00307141 0)
(0.0104423 0.00307138 0)
(0.00921375 0.00307135 0)
(0.00798522 0.00307132 0)
(0.0067567 0.00307129 0)
(0.00552819 0.00307127 0)
(0.00429969 0.00307124 0)
(0.0030712 0.00307123 0)
(0.00184272 0.00307122 0)
(0.000614239 0.00307121 0)
(0.000754755 -0.0052831 0)
(0.00226426 -0.00528306 0)
(0.00377375 -0.00528297 0)
(0.00528321 -0.00528285 0)
(0.00679264 -0.00528267 0)
(0.00830201 -0.00528245 0)
(0.00981132 -0.00528217 0)
(0.0113205 -0.00528182 0)
(0.0128297 -0.00528141 0)
(0.0143387 -0.00528091 0)
(0.0158476 -0.00528032 0)
(0.0173563 -0.00527963 0)
(0.0188648 -0.00527883 0)
(0.0203731 -0.0052779 0)
(0.0218811 -0.00527683 0)
(0.0233888 -0.0052756 0)
(0.0248961 -0.0052742 0)
(0.0264031 -0.00527261 0)
(0.0279095 -0.00527081 0)
(0.0294155 -0.00526878 0)
(0.0309209 -0.00526651 0)
(0.0324256 -0.00526396 0)
(0.0339296 -0.00526112 0)
(0.0354327 -0.00525796 0)
(0.036935 -0.00525446 0)
(0.0384362 -0.00525059 0)
(0.0399363 -0.00524633 0)
(0.0414351 -0.00524165 0)
(0.0429326 -0.00523652 0)
(0.0444286 -0.00523091 0)
(0.0459229 -0.00522479 0)
(0.0474155 -0.00521813 0)
(0.0489061 -0.00521091 0)
(0.0503946 -0.00520308 0)
(0.0518808 -0.00519461 0)
(0.0533646 -0.00518548 0)
(0.0548457 -0.00517564 0)
(0.0563239 -0.00516506 0)
(0.057799 -0.00515371 0)
(0.0592708 -0.00514155 0)
(0.0607391 -0.00512855 0)
(0.0622036 -0.00511466 0)
(0.063664 -0.00509986 0)
(0.0651201 -0.0050841 0)
(0.0665716 -0.00506735 0)
(0.0680182 -0.00504957 0)
(0.0694597 -0.00503072 0)
(0.0708956 -0.00501077 0)
(0.0723257 -0.00498968 0)
(0.0737497 -0.00496742 0)
(0.0751672 -0.00494394 0)
(0.0765778 -0.00491921 0)
(0.0779813 -0.0048932 0)
(0.0793772 -0.00486587 0)
(0.0807651 -0.00483718 0)
(0.0821446 -0.00480711 0)
(0.0835154 -0.00477563 0)
(0.0848771 -0.00474269 0)
(0.0862291 -0.00470827 0)
(0.0875712 -0.00467235 0)
(0.0889028 -0.00463489 0)
(0.0902235 -0.00459586 0)
(0.0915328 -0.00455525 0)
(0.0928304 -0.00451303 0)
(0.0941157 -0.00446917 0)
(0.0953882 -0.00442367 0)
(0.0966475 -0.00437649 0)
(0.0978932 -0.00432763 0)
(0.0991246 -0.00427707 0)
(0.100341 -0.0042248 0)
(0.101543 -0.00417082 0)
(0.102729 -0.0041151 0)
(0.103899 -0.00405766 0)
(0.105052 -0.00399848 0)
(0.106188 -0.00393757 0)
(0.107306 -0.00387493 0)
(0.108406 -0.00381056 0)
(0.109488 -0.00374448 0)
(0.11055 -0.0036767 0)
(0.111593 -0.00360723 0)
(0.112615 -0.00353609 0)
(0.113617 -0.00346329 0)
(0.114598 -0.00338886 0)
(0.115558 -0.00331283 0)
(0.116495 -0.00323522 0)
(0.11741 -0.00315607 0)
(0.118302 -0.0030754 0)
(0.119171 -0.00299325 0)
(0.120016 -0.00290967 0)
(0.120837 -0.00282469 0)
(0.121634 -0.00273836 0)
(0.122405 -0.00265072 0)
(0.123151 -0.00256183 0)
(0.123872 -0.00247173 0)
(0.124567 -0.00238048 0)
(0.125235 -0.00228814 0)
(0.125877 -0.00219475 0)
(0.126491 -0.00210039 0)
(0.127079 -0.00200511 0)
(0.127639 -0.00190897 0)
(0.128172 -0.00181204 0)
(0.128676 -0.00171439 0)
(0.129153 -0.00161608 0)
(0.129601 -0.00151718 0)
(0.130021 -0.00141775 0)
(0.130413 -0.00131787 0)
(0.130775 -0.00121761 0)
(0.131109 -0.00111704 0)
(0.131414 -0.00101622 0)
(0.13169 -0.000915238 0)
(0.131937 -0.00081415 0)
(0.132156 -0.000713033 0)
(0.132345 -0.000611955 0)
(0.132505 -0.000510987 0)
(0.132636 -0.000410197 0)
(0.132739 -0.000309653 0)
(0.132812 -0.000209423 0)
(0.132858 -0.000109573 0)
(0.132874 -1.01675e-05 0)
(0.132862 8.87301e-05 0)
(0.132822 0.000187057 0)
(0.132754 0.000284754 0)
(0.132658 0.000381761 0)
(0.132534 0.00047802 0)
(0.132382 0.000573478 0)
(0.132204 0.000668079 0)
(0.131998 0.000761774 0)
(0.131766 0.000854512 0)
(0.131508 0.000946246 0)
(0.131223 0.00103693 0)
(0.130913 0.00112652 0)
(0.130577 0.00121498 0)
(0.130215 0.00130227 0)
(0.12983 0.00138835 0)
(0.129419 0.00147319 0)
(0.128985 0.00155676 0)
(0.128526 0.00163903 0)
(0.128045 0.00171997 0)
(0.12754 0.00179955 0)
(0.127013 0.00187776 0)
(0.126464 0.00195457 0)
(0.125893 0.00202997 0)
(0.1253 0.00210394 0)
(0.124687 0.00217647 0)
(0.124053 0.00224754 0)
(0.123399 0.00231715 0)
(0.122726 0.00238528 0)
(0.122033 0.00245194 0)
(0.121321 0.00251712 0)
(0.120591 0.00258082 0)
(0.119842 0.00264304 0)
(0.119077 0.00270377 0)
(0.118294 0.00276303 0)
(0.117494 0.00282082 0)
(0.116678 0.00287714 0)
(0.115847 0.00293201 0)
(0.114999 0.00298543 0)
(0.114137 0.00303741 0)
(0.11326 0.00308796 0)
(0.112369 0.00313711 0)
(0.111464 0.00318485 0)
(0.110546 0.00323121 0)
(0.109615 0.00327621 0)
(0.108671 0.00331985 0)
(0.107714 0.00336217 0)
(0.106746 0.00340317 0)
(0.105766 0.00344288 0)
(0.104776 0.00348131 0)
(0.103774 0.00351849 0)
(0.102762 0.00355444 0)
(0.10174 0.00358918 0)
(0.100708 0.00362273 0)
(0.0996671 0.00365512 0)
(0.0986169 0.00368636 0)
(0.0975579 0.00371648 0)
(0.0964905 0.00374551 0)
(0.095415 0.00377347 0)
(0.0943317 0.00380037 0)
(0.0932409 0.00382625 0)
(0.0921428 0.00385113 0)
(0.0910378 0.00387504 0)
(0.0899262 0.00389799 0)
(0.0888082 0.00392001 0)
(0.087684 0.00394112 0)
(0.0865539 0.00396135 0)
(0.0854183 0.00398073 0)
(0.0842772 0.00399927 0)
(0.083131 0.004017 0)
(0.0819799 0.00403394 0)
(0.080824 0.00405011 0)
(0.0796637 0.00406554 0)
(0.0784991 0.00408026 0)
(0.0773304 0.00409427 0)
(0.0761579 0.00410761 0)
(0.0749817 0.0041203 0)
(0.0738019 0.00413235 0)
(0.0726188 0.00414379 0)
(0.0714326 0.00415464 0)
(0.0702434 0.00416493 0)
(0.0690513 0.00417466 0)
(0.0678565 0.00418386 0)
(0.0666593 0.00419255 0)
(0.0654596 0.00420075 0)
(0.0642577 0.00420848 0)
(0.0630537 0.00421575 0)
(0.0618476 0.00422259 0)
(0.0606397 0.00422901 0)
(0.0594301 0.00423502 0)
(0.0582188 0.00424066 0)
(0.057006 0.00424592 0)
(0.0557917 0.00425083 0)
(0.0545761 0.00425541 0)
(0.0533592 0.00425967 0)
(0.0521412 0.00426362 0)
(0.0509222 0.00426728 0)
(0.0497021 0.00427067 0)
(0.0484812 0.00427379 0)
(0.0472594 0.00427667 0)
(0.0460368 0.00427931 0)
(0.0448135 0.00428172 0)
(0.0435896 0.00428393 0)
(0.0423651 0.00428594 0)
(0.04114 0.00428776 0)
(0.0399145 0.00428941 0)
(0.0386885 0.00429089 0)
(0.0374622 0.00429222 0)
(0.0362355 0.00429341 0)
(0.0350085 0.00429447 0)
(0.0337812 0.0042954 0)
(0.0325537 0.00429622 0)
(0.0313259 0.00429693 0)
(0.030098 0.00429754 0)
(0.02887 0.00429807 0)
(0.0276418 0.00429852 0)
(0.0264135 0.00429889 0)
(0.0251851 0.0042992 0)
(0.0239567 0.00429945 0)
(0.0227282 0.00429965 0)
(0.0214996 0.0042998 0)
(0.020271 0.00429991 0)
(0.0190424 0.00429999 0)
(0.0178138 0.00430003 0)
(0.0165852 0.00430006 0)
(0.0153566 0.00430006 0)
(0.014128 0.00430004 0)
(0.0128994 0.00430001 0)
(0.0116708 0.00429998 0)
(0.0104423 0.00429994 0)
(0.00921372 0.00429989 0)
(0.00798519 0.00429985 0)
(0.00675667 0.00429981 0)
(0.00552816 0.00429977 0)
(0.00429967 0.00429974 0)
(0.00307119 0.00429971 0)
(0.00184271 0.0042997 0)
(0.000614236 0.00429969 0)
(0.000754778 -0.00679262 0)
(0.00226433 -0.00679257 0)
(0.00377387 -0.00679247 0)
(0.00528338 -0.00679231 0)
(0.00679286 -0.0067921 0)
(0.0083023 -0.00679182 0)
(0.00981168 -0.00679147 0)
(0.011321 -0.00679104 0)
(0.0128302 -0.00679052 0)
(0.0143393 -0.0067899 0)
(0.0158483 -0.00678916 0)
(0.0173571 -0.00678829 0)
(0.0188658 -0.00678728 0)
(0.0203742 -0.00678611 0)
(0.0218824 -0.00678476 0)
(0.0233903 -0.00678321 0)
(0.0248978 -0.00678144 0)
(0.026405 -0.00677943 0)
(0.0279117 -0.00677715 0)
(0.029418 -0.00677458 0)
(0.0309236 -0.00677169 0)
(0.0324287 -0.00676845 0)
(0.033933 -0.00676484 0)
(0.0354365 -0.00676082 0)
(0.0369392 -0.00675636 0)
(0.0384408 -0.00675144 0)
(0.0399414 -0.00674601 0)
(0.0414407 -0.00674004 0)
(0.0429387 -0.00673349 0)
(0.0444353 -0.00672633 0)
(0.0459302 -0.00671852 0)
(0.0474234 -0.00671001 0)
(0.0489147 -0.00670077 0)
(0.0504039 -0.00669076 0)
(0.0518909 -0.00667994 0)
(0.0533754 -0.00666825 0)
(0.0548573 -0.00665566 0)
(0.0563364 -0.00664212 0)
(0.0578124 -0.00662759 0)
(0.0592852 -0.00661202 0)
(0.0607545 -0.00659536 0)
(0.06222 -0.00657757 0)
(0.0636814 -0.0065586 0)
(0.0651387 -0.0065384 0)
(0.0665913 -0.00651693 0)
(0.0680391 -0.00649413 0)
(0.0694818 -0.00646996 0)
(0.0709191 -0.00644438 0)
(0.0723505 -0.00641732 0)
(0.0737758 -0.00638876 0)
(0.0751947 -0.00635863 0)
(0.0766068 -0.0063269 0)
(0.0780118 -0.00629351 0)
(0.0794092 -0.00625843 0)
(0.0807987 -0.00622161 0)
(0.0821798 -0.00618301 0)
(0.0835523 -0.00614258 0)
(0.0849156 -0.00610028 0)
(0.0862694 -0.00605608 0)
(0.0876131 -0.00600994 0)
(0.0889465 -0.00596182 0)
(0.090269 -0.00591169 0)
(0.0915802 -0.00585951 0)
(0.0928796 -0.00580526 0)
(0.0941668 -0.00574891 0)
(0.0954412 -0.00569043 0)
(0.0967025 -0.00562981 0)
(0.09795 -0.00556701 0)
(0.0991834 -0.00550203 0)
(0.100402 -0.00543484 0)
(0.101606 -0.00536544 0)
(0.102794 -0.00529381 0)
(0.103965 -0.00521995 0)
(0.10512 -0.00514387 0)
(0.106258 -0.00506555 0)
(0.107379 -0.004985 0)
(0.108481 -0.00490223 0)
(0.109564 -0.00481726 0)
(0.110628 -0.00473008 0)
(0.111673 -0.00464074 0)
(0.112698 -0.00454923 0)
(0.113702 -0.0044556 0)
(0.114684 -0.00435986 0)
(0.115646 -0.00426206 0)
(0.116585 -0.00416222 0)
(0.117502 -0.00406039 0)
(0.118395 -0.00395661 0)
(0.119266 -0.00385093 0)
(0.120113 -0.00374339 0)
(0.120935 -0.00363406 0)
(0.121733 -0.00352298 0)
(0.122506 -0.00341022 0)
(0.123254 -0.00329584 0)
(0.123976 -0.00317991 0)
(0.124672 -0.0030625 0)
(0.125341 -0.00294367 0)
(0.125984 -0.0028235 0)
(0.1266 -0.00270207 0)
(0.127189 -0.00257946 0)
(0.12775 -0.00245575 0)
(0.128283 -0.00233101 0)
(0.128789 -0.00220534 0)
(0.129266 -0.00207883 0)
(0.129715 -0.00195155 0)
(0.130135 -0.0018236 0)
(0.130527 -0.00169507 0)
(0.13089 -0.00156604 0)
(0.131224 -0.00143661 0)
(0.13153 -0.00130687 0)
(0.131806 -0.00117691 0)
(0.132053 -0.00104682 0)
(0.132271 -0.000916689 0)
(0.13246 -0.000786613 0)
(0.13262 -0.000656678 0)
(0.132752 -0.000526975 0)
(0.132854 -0.000397589 0)
(0.132927 -0.000268609 0)
(0.132972 -0.000140119 0)
(0.132987 -1.22027e-05 0)
(0.132975 0.000115058 0)
(0.132934 0.000241582 0)
(0.132865 0.000367293 0)
(0.132768 0.000492114 0)
(0.132643 0.000615972 0)
(0.132491 0.000738794 0)
(0.132312 0.000860513 0)
(0.132105 0.000981062 0)
(0.131872 0.00110038 0)
(0.131612 0.0012184 0)