/*--------------------------------*- C++ -*----------------------------------*\
| =========                 |                                                 |
| \\      /  F ield         | OpenFOAM: The Open Source CFD Toolbox           |
|  \\    /   O peration     | Version:  v2012                                 |
|   \\  /    A nd           | Website:  www.openfoam.com                      |
|    \\/     M anipulation  |                                                 |
\*---------------------------------------------------------------------------*/
FoamFile
{
    version     2.0;
    format      ascii;
    class       surfaceScalarField;
    location    "13.6";
    object      phi;
}
// * * * * * * * * * * * * * * * * * * * * * * * * * * * * * * * * * * * * * //

dimensions      [0 3 -1 0 0 0 0];
oriented        oriented;


internalField   nonuniform List<scalar> 
130560
(
3.49666e-06
-3.49666e-06
6.99351e-06
-3.49685e-06
1.04907e-05
-3.49723e-06
1.39885e-05
-3.49779e-06
1.74871e-05
-3.49854e-06
2.09865e-05
-3.49947e-06
2.44871e-05
-3.50058e-06
2.7989e-05
-3.50186e-06
3.14923e-05
-3.50332e-06
3.49972e-05
-3.50494e-06
3.85039e-05
-3.50673e-06
4.20126e-05
-3.50867e-06
4.55234e-05
-3.51076e-06
4.90364e-05
-3.51299e-06
5.25517e-05
-3.51535e-06
5.60696e-05
-3.51785e-06
5.959e-05
-3.52045e-06
6.31132e-05
-3.52317e-06
6.66392e-05
-3.52598e-06
7.0168e-05
-3.52887e-06
7.36999e-05
-3.53184e-06
7.72347e-05
-3.53487e-06
8.07727e-05
-3.53794e-06
8.43137e-05
-3.54105e-06
8.78579e-05
-3.54418e-06
9.14052e-05
-3.5473e-06
9.49556e-05
-3.55042e-06
9.85091e-05
-3.55351e-06
0.000102066
-3.55654e-06
0.000105625
-3.55951e-06
0.000109188
-3.5624e-06
0.000112753
-3.56518e-06
0.000116321
-3.56783e-06
0.000119891
-3.57034e-06
0.000123464
-3.57267e-06
0.000127038
-3.57481e-06
0.000130615
-3.57674e-06
0.000134194
-3.57842e-06
0.000137773
-3.57984e-06
0.000141354
-3.58096e-06
0.000144936
-3.58176e-06
0.000148518
-3.58221e-06
0.000152101
-3.58228e-06
0.000155683
-3.58195e-06
0.000159264
-3.58118e-06
0.000162844
-3.57994e-06
0.000166422
-3.57821e-06
0.000169998
-3.57594e-06
0.000173571
-3.57311e-06
0.000177141
-3.56969e-06
0.000180706
-3.56563e-06
0.000184267
-3.56091e-06
0.000187823
-3.55549e-06
0.000191372
-3.54934e-06
0.000194914
-3.54241e-06
0.000198449
-3.53468e-06
0.000201975
-3.52611e-06
0.000205492
-3.51665e-06
0.000208998
-3.50628e-06
0.000212493
-3.49496e-06
0.000215976
-3.48265e-06
0.000219445
-3.46932e-06
0.0002229
-3.45492e-06
0.000226339
-3.43943e-06
0.000229762
-3.4228e-06
0.000233167
-3.405e-06
0.000236553
-3.386e-06
0.000239919
-3.36576e-06
0.000243263
-3.34424e-06
0.000246585
-3.32143e-06
0.000249882
-3.29728e-06
0.000253154
-3.27176e-06
0.000256399
-3.24484e-06
0.000259615
-3.2165e-06
0.000262802
-3.18671e-06
0.000265957
-3.15544e-06
0.00026908
-3.12267e-06
0.000272168
-3.08838e-06
0.000275221
-3.05254e-06
0.000278236
-3.01515e-06
0.000281212
-2.97618e-06
0.000284148
-2.93561e-06
0.000287041
-2.89345e-06
0.000289891
-2.84967e-06
0.000292695
-2.80427e-06
0.000295452
-2.75725e-06
0.000298161
-2.7086e-06
0.000300819
-2.65833e-06
0.000303426
-2.60645e-06
0.000305979
-2.55294e-06
0.000308476
-2.49784e-06
0.000310918
-2.44114e-06
0.000313301
-2.38287e-06
0.000315624
-2.32304e-06
0.000317885
-2.26168e-06
0.000320084
-2.19881e-06
0.000322219
-2.13446e-06
0.000324287
-2.06866e-06
0.000326289
-2.00144e-06
0.000328221
-1.93284e-06
0.000330084
-1.8629e-06
0.000331876
-1.79166e-06
0.000333595
-1.71917e-06
0.000335241
-1.64548e-06
0.000336811
-1.57064e-06
0.000338306
-1.4947e-06
0.000339724
-1.41772e-06
0.000341063
-1.33976e-06
0.000342324
-1.26087e-06
0.000343505
-1.18113e-06
0.000344606
-1.10059e-06
0.000345625
-1.01932e-06
0.000346563
-9.37391e-07
0.000347418
-8.54871e-07
0.000348189
-7.7183e-07
0.000348878
-6.8834e-07
0.000349482
-6.04475e-07
0.000350003
-5.20307e-07
0.000350439
-4.3591e-07
0.00035079
-3.51358e-07
0.000351057
-2.66726e-07
0.000351239
-1.82088e-07
0.000351336
-9.75168e-08
0.000351349
-1.30871e-08
0.000351278
7.11287e-08
0.000351123
1.55059e-07
0.000350884
2.38631e-07
0.000350563
3.21778e-07
0.000350158
4.04429e-07
0.000349672
4.86517e-07
0.000349104
5.67978e-07
0.000348455
6.48747e-07
0.000347726
7.28764e-07
0.000346918
8.07968e-07
0.000346032
8.86301e-07
0.000345068
9.63709e-07
0.000344028
1.04014e-06
0.000342913
1.11554e-06
0.000341723
1.18986e-06
0.00034046
1.26307e-06
0.000339125
1.3351e-06
0.000337719
1.40593e-06
0.000336243
1.47552e-06
0.000334699
1.54383e-06
0.000333088
1.61083e-06
0.000331412
1.6765e-06
0.000329671
1.7408e-06
0.000327867
1.80371e-06
0.000326002
1.86521e-06
0.000324077
1.92528e-06
0.000322093
1.98391e-06
0.000320052
2.04108e-06
0.000317955
2.09678e-06
0.000315804
2.15101e-06
0.0003136
2.20376e-06
0.000311345
2.25502e-06
0.000309041
2.30479e-06
0.000306688
2.35308e-06
0.000304288
2.39989e-06
0.000301842
2.44522e-06
0.000299353
2.48909e-06
0.000296822
2.53149e-06
0.000294249
2.57245e-06
0.000291637
2.61196e-06
0.000288987
2.65006e-06
0.000286301
2.68675e-06
0.000283579
2.72205e-06
0.000280823
2.75598e-06
0.000278034
2.78856e-06
0.000275214
2.8198e-06
0.000272364
2.84974e-06
0.000269486
2.8784e-06
0.00026658
2.90579e-06
0.000263648
2.93195e-06
0.000260691
2.95689e-06
0.000257711
2.98065e-06
0.000254708
3.00325e-06
0.000251683
3.02472e-06
0.000248638
3.04508e-06
0.000245573
3.06437e-06
0.000242491
3.08261e-06
0.000239391
3.09983e-06
0.000236275
3.11606e-06
0.000233144
3.13132e-06
0.000229998
3.14566e-06
0.000226839
3.15908e-06
0.000223667
3.17164e-06
0.000220484
3.18334e-06
0.00021729
3.19423e-06
0.000214085
3.20433e-06
0.000210872
3.21366e-06
0.000207649
3.22226e-06
0.000204419
3.23016e-06
0.000201182
3.23738e-06
0.000197938
3.24394e-06
0.000194688
3.24989e-06
0.000191433
3.25523e-06
0.000188173
3.26e-06
0.000184909
3.26423e-06
0.000181641
3.26793e-06
0.000178369
3.27114e-06
0.000175096
3.27387e-06
0.000171819
3.27616e-06
0.000168541
3.27803e-06
0.000165262
3.27949e-06
0.000161981
3.28057e-06
0.0001587
3.28129e-06
0.000155418
3.28168e-06
0.000152137
3.28175e-06
0.000148855
3.28153e-06
0.000145574
3.28103e-06
0.000142294
3.28027e-06
0.000139015
3.27928e-06
0.000135736
3.27807e-06
0.00013246
3.27666e-06
0.000129185
3.27506e-06
0.000125911
3.27329e-06
0.00012264
3.27138e-06
0.000119371
3.26933e-06
0.000116104
3.26716e-06
0.000112839
3.26488e-06
0.000109576
3.26251e-06
0.000106316
3.26007e-06
0.000103059
3.25756e-06
9.98036e-05
3.25499e-06
9.65512e-05
3.25239e-06
9.33014e-05
3.24977e-06
9.00543e-05
3.24712e-06
8.68098e-05
3.24447e-06
8.3568e-05
3.24183e-06
8.03288e-05
3.2392e-06
7.70922e-05
3.2366e-06
7.38582e-05
3.23403e-06
7.06267e-05
3.2315e-06
6.73976e-05
3.22903e-06
6.4171e-05
3.22662e-06
6.09468e-05
3.22427e-06
5.77248e-05
3.222e-06
5.45049e-05
3.21981e-06
5.12872e-05
3.2177e-06
4.80716e-05
3.21569e-06
4.48578e-05
3.21378e-06
4.16458e-05
3.21197e-06
3.84355e-05
3.21027e-06
3.52269e-05
3.20869e-06
3.20196e-05
3.20722e-06
2.88138e-05
3.20587e-06
2.56091e-05
3.20465e-06
2.24056e-05
3.20356e-06
1.9203e-05
3.2026e-06
1.60012e-05
3.20177e-06
1.28001e-05
3.20107e-06
9.5996e-06
3.20051e-06
6.39951e-06
3.2001e-06
3.19968e-06
3.19982e-06
3.19968e-06
3.49648e-06
-6.99314e-06
6.99315e-06
-6.99352e-06
1.04902e-05
-6.99428e-06
1.39878e-05
-6.9954e-06
1.74862e-05
-6.9969e-06
2.09855e-05
-6.99876e-06
2.44859e-05
-7.00098e-06
2.79876e-05
-7.00355e-06
3.14907e-05
-7.00647e-06
3.49955e-05
-7.00972e-06
3.85021e-05
-7.0133e-06
4.20106e-05
-7.01719e-06
4.55212e-05
-7.02138e-06
4.90341e-05
-7.02585e-06
5.25493e-05
-7.03059e-06
5.60671e-05
-7.03558e-06
5.95874e-05
-7.04081e-06
6.31105e-05
-7.04624e-06
6.66364e-05
-7.05187e-06
7.01652e-05
-7.05768e-06
7.3697e-05
-7.06362e-06
7.72318e-05
-7.06969e-06
8.07697e-05
-7.07585e-06
8.43107e-05
-7.08209e-06
8.78549e-05
-7.08835e-06
9.14022e-05
-7.09463e-06
9.49527e-05
-7.10087e-06
9.85063e-05
-7.10706e-06
0.000102063
-7.11316e-06
0.000105622
-7.11912e-06
0.000109185
-7.12491e-06
0.00011275
-7.13049e-06
0.000116318
-7.13582e-06
0.000119889
-7.14085e-06
0.000123462
-7.14554e-06
0.000127037
-7.14985e-06
0.000130614
-7.15372e-06
0.000134192
-7.15711e-06
0.000137772
-7.15997e-06
0.000141354
-7.16224e-06
0.000144936
-7.16386e-06
0.000148518
-7.16479e-06
0.000152101
-7.16497e-06
0.000155684
-7.16434e-06
0.000159265
-7.16283e-06
0.000162846
-7.16039e-06
0.000166424
-7.15695e-06
0.000170001
-7.15245e-06
0.000173575
-7.14683e-06
0.000177145
-7.14001e-06
0.000180711
-7.13193e-06
0.000184273
-7.12252e-06
0.000187829
-7.11172e-06
0.000191379
-7.09944e-06
0.000194922
-7.08563e-06
0.000198458
-7.0702e-06
0.000201985
-7.05309e-06
0.000205502
-7.03422e-06
0.00020901
-7.01352e-06
0.000212506
-6.99091e-06
0.000215989
-6.96633e-06
0.00021946
-6.93969e-06
0.000222916
-6.91094e-06
0.000226356
-6.87998e-06
0.00022978
-6.84676e-06
0.000233186
-6.8112e-06
0.000236574
-6.77323e-06
0.000239941
-6.73278e-06
0.000243286
-6.68979e-06
0.000246609
-6.64419e-06
0.000249908
-6.59592e-06
0.000253181
-6.54491e-06
0.000256427
-6.4911e-06
0.000259645
-6.43445e-06
0.000262833
-6.37489e-06
0.00026599
-6.31238e-06
0.000269114
-6.24686e-06
0.000272204
-6.1783e-06
0.000275258
-6.10664e-06
0.000278275
-6.03187e-06
0.000281253
-5.95394e-06
0.00028419
-5.87282e-06
0.000287085
-5.7885e-06
0.000289936
-5.70095e-06
0.000292742
-5.61016e-06
0.000295501
-5.51612e-06
0.000298211
-5.41882e-06
0.000300871
-5.31828e-06
0.000303479
-5.2145e-06
0.000306034
-5.10748e-06
0.000308533
-4.99726e-06
0.000310976
-4.88385e-06
0.00031336
-4.76729e-06
0.000315685
-4.64762e-06
0.000317948
-4.52487e-06
0.000320148
-4.3991e-06
0.000322284
-4.27036e-06
0.000324354
-4.13872e-06
0.000326357
-4.00424e-06
0.000328291
-3.86701e-06
0.000330156
-3.72708e-06
0.000331948
-3.58457e-06
0.000333669
-3.43954e-06
0.000335315
-3.29211e-06
0.000336887
-3.14238e-06
0.000338383
-2.99044e-06
0.000339802
-2.83642e-06
0.000341142
-2.68044e-06
0.000342404
-2.5226e-06
0.000343586
-2.36305e-06
0.000344687
-2.2019e-06
0.000345707
-2.03929e-06
0.000346645
-1.87537e-06
0.000347501
-1.71025e-06
0.000348273
-1.5441e-06
0.000348962
-1.37705e-06
0.000349566
-1.20925e-06
0.000350087
-1.04084e-06
0.000350523
-8.71968e-07
0.000350874
-7.0279e-07
0.000351141
-5.33452e-07
0.000351323
-3.64101e-07
0.000351421
-1.94886e-07
0.000351433
-2.59538e-08
0.000351362
1.4255e-07
0.000351207
3.1048e-07
0.000350967
4.77696e-07
0.000350645
6.44057e-07
0.00035024
8.09426e-07
0.000349753
9.73668e-07
0.000349184
1.13665e-06
0.000348535
1.29825e-06
0.000347805
1.45835e-06
0.000346996
1.61681e-06
0.000346109
1.77353e-06
0.000345145
1.9284e-06
0.000344103
2.08131e-06
0.000342987
2.23216e-06
0.000341796
2.38085e-06
0.000340531
2.5273e-06
0.000339195
2.67141e-06
0.000337788
2.81311e-06
0.000336311
2.95233e-06
0.000334766
3.08898e-06
0.000333154
3.22301e-06
0.000331476
3.35437e-06
0.000329734
3.48299e-06
0.000327929
3.60883e-06
0.000326062
3.73185e-06
0.000324135
3.85201e-06
0.00032215
3.96928e-06
0.000320107
4.08363e-06
0.000318009
4.19504e-06
0.000315857
4.3035e-06
0.000313651
4.409e-06
0.000311395
4.51152e-06
0.000309089
4.61107e-06
0.000306734
4.70765e-06
0.000304333
4.80126e-06
0.000301886
4.89192e-06
0.000299395
4.97964e-06
0.000296862
5.06443e-06
0.000294289
5.14633e-06
0.000291675
5.22535e-06
0.000289024
5.30153e-06
0.000286336
5.37489e-06
0.000283612
5.44547e-06
0.000280855
5.51331e-06
0.000278065
5.57844e-06
0.000275244
5.64092e-06
0.000272393
5.70077e-06
0.000269513
5.75806e-06
0.000266606
5.81282e-06
0.000263673
5.86511e-06
0.000260715
5.91497e-06
0.000257733
5.96246e-06
0.000254729
6.00763e-06
0.000251703
6.05054e-06
0.000248657
6.09124e-06
0.000245591
6.12979e-06
0.000242508
6.16624e-06
0.000239407
6.20065e-06
0.00023629
6.23308e-06
0.000233158
6.26358e-06
0.000230011
6.29222e-06
0.000226851
6.31904e-06
0.000223679
6.34412e-06
0.000220494
6.3675e-06
0.000217299
6.38925e-06
0.000214094
6.40941e-06
0.00021088
6.42806e-06
0.000207657
6.44523e-06
0.000204426
6.461e-06
0.000201188
6.4754e-06
0.000197944
6.48851e-06
0.000194693
6.50037e-06
0.000191437
6.51103e-06
0.000188177
6.52055e-06
0.000184912
6.52897e-06
0.000181644
6.53635e-06
0.000178372
6.54275e-06
0.000175098
6.54819e-06
0.000171821
6.55275e-06
0.000168543
6.55645e-06
0.000165263
6.55935e-06
0.000161982
6.56149e-06
0.0001587
6.56292e-06
0.000155418
6.56367e-06
0.000152136
6.56379e-06
0.000148854
6.56332e-06
0.000145573
6.56231e-06
0.000142293
6.56078e-06
0.000139013
6.55877e-06
0.000135735
6.55633e-06
0.000132458
6.55349e-06
0.000129183
6.55028e-06
0.000125909
6.54674e-06
0.000122638
6.54289e-06
0.000119368
6.53877e-06
0.000116101
6.53441e-06
0.000112836
6.52985e-06
0.000109574
6.5251e-06
0.000106313
6.52019e-06
0.000103056
6.51516e-06
9.98008e-05
6.51002e-06
9.65484e-05
6.50481e-06
9.32986e-05
6.49954e-06
9.00515e-05
6.49424e-06
8.6807e-05
6.48893e-06
8.35652e-05
6.48364e-06
8.03261e-05
6.47837e-06
7.70895e-05
6.47316e-06
7.38555e-05
6.46801e-06
7.06241e-05
6.46295e-06
6.73951e-05
6.458e-06
6.41686e-05
6.45316e-06
6.09444e-05
6.44846e-06
5.77225e-05
6.44391e-06
5.45028e-05
6.43952e-06
5.12852e-05
6.4353e-06
4.80696e-05
6.43128e-06
4.48559e-05
6.42745e-06
4.1644e-05
6.42382e-06
3.84339e-05
6.42042e-06
3.52253e-05
6.41725e-06
3.20182e-05
6.41431e-06
2.88125e-05
6.41161e-06
2.5608e-05
6.40917e-06
2.24046e-05
6.40698e-06
1.92021e-05
6.40505e-06
1.60005e-05
6.40339e-06
1.27995e-05
6.402e-06
9.59917e-06
6.40089e-06
6.39922e-06
6.40005e-06
3.19954e-06
6.3995e-06
6.39923e-06
3.4961e-06
-1.04892e-05
6.99239e-06
-1.04898e-05
1.04891e-05
-1.04909e-05
1.39863e-05
-1.04926e-05
1.74843e-05
-1.04949e-05
2.09832e-05
-1.04977e-05
2.44833e-05
-1.0501e-05
2.79846e-05
-1.05049e-05
3.14874e-05
-1.05093e-05
3.49919e-05
-1.05142e-05
3.84982e-05
-1.05196e-05
4.20064e-05
-1.05254e-05
4.55167e-05
-1.05317e-05
4.90293e-05
-1.05384e-05
5.25443e-05
-1.05456e-05
5.60618e-05
-1.05531e-05
5.95819e-05
-1.05609e-05
6.31048e-05
-1.05691e-05
6.66305e-05
-1.05776e-05
7.01592e-05
-1.05863e-05
7.36908e-05
-1.05953e-05
7.72256e-05
-1.06044e-05
8.07634e-05
-1.06137e-05
8.43044e-05
-1.06231e-05
8.78486e-05
-1.06325e-05
9.13959e-05
-1.0642e-05
9.49464e-05
-1.06514e-05
9.85001e-05
-1.06607e-05
0.000102057
-1.06699e-05
0.000105617
-1.06789e-05
0.000109179
-1.06876e-05
0.000112745
-1.0696e-05
0.000116313
-1.07041e-05
0.000119884
-1.07117e-05
0.000123457
-1.07188e-05
0.000127033
-1.07253e-05
0.00013061
-1.07312e-05
0.000134189
-1.07363e-05
0.00013777
-1.07407e-05
0.000141352
-1.07442e-05
0.000144935
-1.07467e-05
0.000148518
-1.07481e-05
0.000152102
-1.07485e-05
0.000155685
-1.07476e-05
0.000159268
-1.07454e-05
0.000162849
-1.07418e-05
0.000166429
-1.07368e-05
0.000170006
-1.07301e-05
0.000173581
-1.07217e-05
0.000177153
-1.07116e-05
0.000180721
-1.06996e-05
0.000184284
-1.06855e-05
0.000187841
-1.06694e-05
0.000191393
-1.06511e-05
0.000194938
-1.06305e-05
0.000198475
-1.06074e-05
0.000202004
-1.05818e-05
0.000205523
-1.05536e-05
0.000209032
-1.05227e-05
0.00021253
-1.04888e-05
0.000216016
-1.04521e-05
0.000219488
-1.04122e-05
0.000222947
-1.03691e-05
0.000226389
-1.03228e-05
0.000229816
-1.02731e-05
0.000233224
-1.02198e-05
0.000236614
-1.01629e-05
0.000239984
-1.01024e-05
0.000243332
-1.00379e-05
0.000246657
-9.96963e-06
0.000249959
-9.89729e-06
0.000253235
-9.82085e-06
0.000256484
-9.74022e-06
0.000259704
-9.6553e-06
0.000262896
-9.56603e-06
0.000266056
-9.47232e-06
0.000269183
-9.3741e-06
0.000272276
-9.2713e-06
0.000275333
-9.16387e-06
0.000278353
-9.05175e-06
0.000281334
-8.93489e-06
0.000284274
-8.81324e-06
0.000287173
-8.68678e-06
0.000290027
-8.55547e-06
0.000292836
-8.4193e-06
0.000295598
-8.27824e-06
0.000298312
-8.1323e-06
0.000300975
-7.98148e-06
0.000303586
-7.82578e-06
0.000306144
-7.66524e-06
0.000308647
-7.49987e-06
0.000311093
-7.32972e-06
0.00031348
-7.15483e-06
0.000315808
-6.97526e-06
0.000318074
-6.79108e-06
0.000320277
-6.60236e-06
0.000322416
-6.40917e-06
0.000324489
-6.21163e-06
0.000326494
-6.00982e-06
0.000328431
-5.80386e-06
0.000330298
-5.59387e-06
0.000332094
-5.37998e-06
0.000333816
-5.16232e-06
0.000335465
-4.94105e-06
0.000337039
-4.71631e-06
0.000338537
-4.48827e-06
0.000339958
-4.2571e-06
0.0003413
-4.02296e-06
0.000342564
-3.78605e-06
0.000343747
-3.54656e-06
0.00034485
-3.30467e-06
0.000345871
-3.06059e-06
0.00034681
-2.81453e-06
0.000347667
-2.56668e-06
0.00034844
-2.31727e-06
0.000349129
-2.06651e-06
0.000349735
-1.81463e-06
0.000350256
-1.56183e-06
0.000350692
-1.30834e-06
0.000351044
-1.05439e-06
0.000351311
-8.00192e-07
0.000351492
-5.45981e-07
0.00035159
-2.91975e-07
0.000351602
-3.83945e-08
0.00035153
2.14541e-07
0.000351374
4.66615e-07
0.000351134
7.17613e-07
0.000350811
9.67326e-07
0.000350405
1.21555e-06
0.000349916
1.46207e-06
0.000349346
1.70671e-06
0.000348695
1.94927e-06
0.000347964
2.18955e-06
0.000347153
2.4274e-06
0.000346264
2.66262e-06
0.000345298
2.89505e-06
0.000344254
3.12454e-06
0.000343136
3.35094e-06
0.000341942
3.57409e-06
0.000340676
3.79387e-06
0.000339337
4.01014e-06
0.000337927
4.22278e-06
0.000336448
4.43168e-06
0.0003349
4.63675e-06
0.000333285
4.83787e-06
0.000331605
5.03497e-06
0.00032986
5.22796e-06
0.000328052
5.41677e-06
0.000326182
5.60134e-06
0.000324253
5.78162e-06
0.000322264
5.95756e-06
0.000320219
6.12912e-06
0.000318118
6.29626e-06
0.000315962
6.45896e-06
0.000313754
6.61721e-06
0.000311495
6.771e-06
0.000309185
6.92032e-06
0.000306828
7.06518e-06
0.000304423
7.20559e-06
0.000301974
7.34155e-06
0.00029948
7.47311e-06
0.000296945
7.60027e-06
0.000294368
7.72309e-06
0.000291752
7.84158e-06
0.000289097
7.95581e-06
0.000286406
8.06581e-06
0.00028368
8.17163e-06
0.00028092
8.27334e-06
0.000278128
8.37099e-06
0.000275304
8.46465e-06
0.00027245
8.55438e-06
0.000269568
8.64024e-06
0.000266659
8.72232e-06
0.000263723
8.80069e-06
0.000260763
8.87542e-06
0.000257778
8.94659e-06
0.000254772
9.01428e-06
0.000251744
9.07857e-06
0.000248695
9.13955e-06
0.000245628
9.1973e-06
0.000242542
9.2519e-06
0.000239439
9.30345e-06
0.00023632
9.35202e-06
0.000233186
9.3977e-06
0.000230038
9.44059e-06
0.000226876
9.48076e-06
0.000223702
9.5183e-06
0.000220516
9.5533e-06
0.00021732
9.58585e-06
0.000214113
9.61602e-06
0.000210897
9.64392e-06
0.000207673
9.66961e-06
0.000204441
9.69319e-06
0.000201201
9.71473e-06
0.000197956
9.73432e-06
0.000194704
9.75204e-06
0.000191447
9.76797e-06
0.000188185
9.78218e-06
0.000184919
9.79476e-06
0.00018165
9.80577e-06
0.000178378
9.8153e-06
0.000175102
9.82341e-06
0.000171825
9.83018e-06
0.000168546
9.83568e-06
0.000165265
9.83997e-06
0.000161983
9.84313e-06
0.000158701
9.84521e-06
0.000155418
9.84629e-06
0.000152136
9.84643e-06
0.000148853
9.84567e-06
0.000145572
9.8441e-06
0.000142291
9.84176e-06
0.000139011
9.83871e-06
0.000135732
9.835e-06
0.000132455
9.8307e-06
0.000129179
9.82584e-06
0.000125906
9.82048e-06
0.000122634
9.81467e-06
0.000119364
9.80846e-06
0.000116097
9.80188e-06
0.000112831
9.795e-06
0.000109569
9.78784e-06
0.000106308
9.78045e-06
0.000103051
9.77287e-06
9.97957e-05
9.76513e-06
9.65432e-05
9.75728e-06
9.32934e-05
9.74935e-06
9.00463e-05
9.74138e-06
8.68018e-05
9.73339e-06
8.356e-05
9.72542e-06
8.03209e-05
9.71749e-06
7.70844e-05
9.70965e-06
7.38505e-05
9.70191e-06
7.06192e-05
9.6943e-06
6.73903e-05
9.68685e-06
6.41639e-05
9.67957e-06
6.09399e-05
9.6725e-06
5.77181e-05
9.66566e-06
5.44986e-05
9.65906e-06
5.12812e-05
9.65272e-06
4.80658e-05
9.64666e-06
4.48523e-05
9.64091e-06
4.16407e-05
9.63546e-06
3.84307e-05
9.63035e-06
3.52224e-05
9.62558e-06
3.20156e-05
9.62116e-06
2.88101e-05
9.61711e-06
2.56058e-05
9.61343e-06
2.24026e-05
9.61014e-06
1.92005e-05
9.60725e-06
1.59991e-05
9.60475e-06
1.27984e-05
9.60266e-06
9.59834e-06
9.60098e-06
6.39866e-06
9.59973e-06
3.19926e-06
9.5989e-06
9.59849e-06
3.49553e-06
-1.39848e-05
6.99125e-06
-1.39855e-05
1.04874e-05
-1.39871e-05
1.3984e-05
-1.39893e-05
1.74815e-05
-1.39923e-05
2.09799e-05
-1.39961e-05
2.44794e-05
-1.40005e-05
2.79802e-05
-1.40057e-05
3.14825e-05
-1.40116e-05
3.49865e-05
-1.40181e-05
3.84923e-05
-1.40254e-05
4.2e-05
-1.40332e-05
4.55099e-05
-1.40416e-05
4.90221e-05
-1.40506e-05
5.25367e-05
-1.40602e-05
5.60539e-05
-1.40702e-05
5.95737e-05
-1.40808e-05
6.30963e-05
-1.40917e-05
6.66217e-05
-1.41031e-05
7.01502e-05
-1.41148e-05
7.36816e-05
-1.41268e-05
7.72162e-05
-1.4139e-05
8.0754e-05
-1.41514e-05
8.42949e-05
-1.4164e-05
8.7839e-05
-1.41767e-05
9.13864e-05
-1.41894e-05
9.4937e-05
-1.4202e-05
9.84908e-05
-1.42145e-05
0.000102048
-1.42268e-05
0.000105608
-1.42389e-05
0.000109171
-1.42507e-05
0.000112737
-1.4262e-05
0.000116305
-1.42728e-05
0.000119877
-1.42831e-05
0.000123451
-1.42926e-05
0.000127027
-1.43014e-05
0.000130605
-1.43094e-05
0.000134185
-1.43164e-05
0.000137767
-1.43223e-05
0.000141349
-1.4327e-05
0.000144933
-1.43305e-05
0.000148518
-1.43326e-05
0.000152102
-1.43332e-05
0.000155687
-1.43322e-05
0.000159271
-1.43294e-05
0.000162854
-1.43248e-05
0.000166435
-1.43181e-05
0.000170015
-1.43094e-05
0.000173591
-1.42984e-05
0.000177165
-1.42851e-05
0.000180734
-1.42692e-05
0.0001843
-1.42506e-05
0.000187859
-1.42293e-05
0.000191413
-1.42051e-05
0.000194961
-1.41777e-05
0.0001985
-1.41471e-05
0.000202032
-1.41132e-05
0.000205554
-1.40758e-05
0.000209066
-1.40347e-05
0.000212567
-1.39897e-05
0.000216056
-1.39409e-05
0.000219531
-1.38879e-05
0.000222993
-1.38307e-05
0.000226439
-1.3769e-05
0.000229869
-1.37029e-05
0.000233281
-1.3632e-05
0.000236675
-1.35564e-05
0.000240048
-1.34757e-05
0.0002434
-1.339e-05
0.000246729
-1.32991e-05
0.000250035
-1.32028e-05
0.000253315
-1.3101e-05
0.000256568
-1.29936e-05
0.000259794
-1.28805e-05
0.000262989
-1.27616e-05
0.000266154
-1.26368e-05
0.000269286
-1.25059e-05
0.000272383
-1.23689e-05
0.000275445
-1.22258e-05
0.00027847
-1.20764e-05
0.000281455
-1.19206e-05
0.000284401
-1.17585e-05
0.000287304
-1.15899e-05
0.000290163
-1.14149e-05
0.000292977
-1.12333e-05
0.000295744
-1.10453e-05
0.000298463
-1.08507e-05
0.000301131
-1.06495e-05
0.000303747
-1.04419e-05
0.000306309
-1.02278e-05
0.000308817
-1.00073e-05
0.000311267
-9.78033e-06
0.00031366
-9.54706e-06
0.000315992
-9.30753e-06
0.000318263
-9.06184e-06
0.00032047
-8.81007e-06
0.000322614
-8.55235e-06
0.000324691
-8.2888e-06
0.0003267
-8.01955e-06
0.000328641
-7.74475e-06
0.000330512
-7.46456e-06
0.000332311
-7.17916e-06
0.000334038
-6.88873e-06
0.00033569
-6.59346e-06
0.000337267
-6.29355e-06
0.000338768
-5.98924e-06
0.000340192
-5.68073e-06
0.000341537
-5.36827e-06
0.000342803
-5.0521e-06
0.000343989
-4.73247e-06
0.000345094
-4.40964e-06
0.000346117
-4.08388e-06
0.000347058
-3.75547e-06
0.000347916
-3.42468e-06
0.000348691
-3.0918e-06
0.000349381
-2.75712e-06
0.000349988
-2.42092e-06
0.000350509
-2.08351e-06
0.000350946
-1.74518e-06
0.000351298
-1.40623e-06
0.000351565
-1.06696e-06
0.000351747
-7.27661e-07
0.000351843
-3.88642e-07
0.000351855
-5.01941e-08
0.000351782
2.8739e-07
0.000351625
6.23821e-07
0.000351384
9.58812e-07
0.000351059
1.29208e-06
0.000350651
1.62336e-06
0.000350161
1.95237e-06
0.000349589
2.27885e-06
0.000348936
2.60254e-06
0.000348202
2.92321e-06
0.000347389
3.2406e-06
0.000346497
3.55448e-06
0.000345527
3.86465e-06
0.000344481
4.17087e-06
0.000343359
4.47295e-06
0.000342162
4.7707e-06
0.000340892
5.06394e-06
0.00033955
5.35248e-06
0.000338136
5.63618e-06
0.000336653
5.91488e-06
0.000335102
6.18845e-06
0.000333483
6.45675e-06
0.000331798
6.71967e-06
0.000330049
6.9771e-06
0.000328237
7.22895e-06
0.000326363
7.47513e-06
0.000324429
7.71558e-06
0.000322436
7.95022e-06
0.000320386
8.17901e-06
0.000318281
8.40191e-06
0.000316121
8.61887e-06
0.000313908
8.82989e-06
0.000311644
9.03495e-06
0.00030933
9.23404e-06
0.000306968
9.42717e-06
0.00030456
9.61435e-06
0.000302106
9.7956e-06
0.000299608
9.97097e-06
0.000297068
1.01405e-05
0.000294486
1.03042e-05
0.000291866
1.04621e-05
0.000289207
1.06143e-05
0.000286512
1.07609e-05
0.000283782
1.09019e-05
0.000281018
1.10374e-05
0.000278221
1.11675e-05
0.000275394
1.12923e-05
0.000272536
1.14118e-05
0.00026965
1.15262e-05
0.000266737
1.16355e-05
0.000263798
1.17399e-05
0.000260834
1.18394e-05
0.000257846
1.19342e-05
0.000254836
1.20243e-05
0.000251805
1.21099e-05
0.000248753
1.21911e-05
0.000245683
1.2268e-05
0.000242594
1.23406e-05
0.000239488
1.24092e-05
0.000236366
1.24739e-05
0.000233229
1.25346e-05
0.000230078
1.25917e-05
0.000226914
1.26451e-05
0.000223737
1.2695e-05
0.000220549
1.27416e-05
0.00021735
1.27848e-05
0.000214141
1.28249e-05
0.000210923
1.2862e-05
0.000207697
1.28961e-05
0.000204462
1.29274e-05
0.000201221
1.2956e-05
0.000197973
1.2982e-05
0.00019472
1.30055e-05
0.000191461
1.30266e-05
0.000188198
1.30455e-05
0.000184931
1.30621e-05
0.00018166
1.30767e-05
0.000178386
1.30893e-05
0.000175109
1.31e-05
0.000171831
1.31089e-05
0.00016855
1.31161e-05
0.000165268
1.31217e-05
0.000161986
1.31258e-05
0.000158702
1.31285e-05
0.000155419
1.31299e-05
0.000152135
1.31299e-05
0.000148852
1.31289e-05
0.000145569
1.31267e-05
0.000142288
1.31235e-05
0.000139007
1.31193e-05
0.000135728
1.31143e-05
0.00013245
1.31085e-05
0.000129174
1.31019e-05
0.0001259
1.30947e-05
0.000122628
1.30869e-05
0.000119358
1.30785e-05
0.00011609
1.30697e-05
0.000112824
1.30604e-05
0.000109561
1.30508e-05
0.000106301
1.30409e-05
0.000103043
1.30307e-05
9.97879e-05
1.30204e-05
9.65354e-05
1.30098e-05
9.32855e-05
1.29992e-05
9.00384e-05
1.29885e-05
8.67939e-05
1.29778e-05
8.35522e-05
1.29672e-05
8.03131e-05
1.29565e-05
7.70767e-05
1.2946e-05
7.3843e-05
1.29357e-05
7.06118e-05
1.29255e-05
6.73831e-05
1.29155e-05
6.41569e-05
1.29058e-05
6.09331e-05
1.28963e-05
5.77116e-05
1.28872e-05
5.44923e-05
1.28783e-05
5.12751e-05
1.28699e-05
4.80601e-05
1.28618e-05
4.48469e-05
1.28541e-05
4.16356e-05
1.28468e-05
3.8426e-05
1.28399e-05
3.5218e-05
1.28336e-05
3.20115e-05
1.28276e-05
2.88064e-05
1.28222e-05
2.56025e-05
1.28173e-05
2.23998e-05
1.28129e-05
1.9198e-05
1.2809e-05
1.5997e-05
1.28057e-05
1.27968e-05
1.28029e-05
9.59708e-06
1.28007e-05
6.39782e-06
1.2799e-05
3.19884e-06
1.27979e-05
1.27973e-05
3.49477e-06
-1.74795e-05
6.98973e-06
-1.74805e-05
1.04851e-05
-1.74824e-05
1.3981e-05
-1.74852e-05
1.74777e-05
-1.7489e-05
2.09754e-05
-1.74937e-05
2.44742e-05
-1.74993e-05
2.79743e-05
-1.75059e-05
3.14759e-05
-1.75132e-05
3.49792e-05
-1.75215e-05
3.84844e-05
-1.75305e-05
4.19916e-05
-1.75403e-05
4.55009e-05
-1.75509e-05
4.90125e-05
-1.75623e-05
5.25266e-05
-1.75743e-05
5.60433e-05
-1.75869e-05
5.95626e-05
-1.76001e-05
6.30848e-05
-1.76139e-05
6.661e-05
-1.76282e-05
7.01381e-05
-1.76429e-05
7.36693e-05
-1.7658e-05
7.72037e-05
-1.76734e-05
8.07413e-05
-1.7689e-05
8.42821e-05
-1.77049e-05
8.78263e-05
-1.77208e-05
9.13737e-05
-1.77368e-05
9.49244e-05
-1.77527e-05
9.84784e-05
-1.77685e-05
0.000102036
-1.7784e-05
0.000105596
-1.77993e-05
0.000109159
-1.78141e-05
0.000112726
-1.78284e-05
0.000116295
-1.78421e-05
0.000119867
-1.78551e-05
0.000123442
-1.78672e-05
0.000127019
-1.78784e-05
0.000130598
-1.78885e-05
0.000134179
-1.78974e-05
0.000137762
-1.7905e-05
0.000141346
-1.79112e-05
0.000144931
-1.79157e-05
0.000148517
-1.79186e-05
0.000152103
-1.79195e-05
0.00015569
-1.79185e-05
0.000159276
-1.79152e-05
0.00016286
-1.79097e-05
0.000166444
-1.79016e-05
0.000170026
-1.7891e-05
0.000173605
-1.78775e-05
0.000177181
-1.7861e-05
0.000180753
-1.78415e-05
0.000184321
-1.78185e-05
0.000187884
-1.77921e-05
0.000191441
-1.77621e-05
0.000194991
-1.77282e-05
0.000198534
-1.76902e-05
0.000202069
-1.76481e-05
0.000205595
-1.76016e-05
0.000209111
-1.75505e-05
0.000212616
-1.74946e-05
0.000216108
-1.74338e-05
0.000219588
-1.73678e-05
0.000223054
-1.72966e-05
0.000226505
-1.72198e-05
0.00022994
-1.71374e-05
0.000233357
-1.70491e-05
0.000236755
-1.69548e-05
0.000240134
-1.68542e-05
0.000243491
-1.67473e-05
0.000246826
-1.66339e-05
0.000250137
-1.65137e-05
0.000253422
-1.63867e-05
0.000256681
-1.62527e-05
0.000259913
-1.61116e-05
0.000263114
-1.59631e-05
0.000266285
-1.58072e-05
0.000269422
-1.56438e-05
0.000272526
-1.54728e-05
0.000275594
-1.5294e-05
0.000278625
-1.51073e-05
0.000281618
-1.49127e-05
0.000284569
-1.47102e-05
0.000287479
-1.44995e-05
0.000290345
-1.42808e-05
0.000293165
-1.40539e-05
0.000295939
-1.38188e-05
0.000298664
-1.35755e-05
0.000301338
-1.33241e-05
0.000303961
-1.30645e-05
0.00030653
-1.27968e-05
0.000309044
-1.25211e-05
0.000311501
-1.22373e-05
0.000313899
-1.19455e-05
0.000316238
-1.1646e-05
0.000318514
-1.13387e-05
0.000320728
-1.10238e-05
0.000322877
-1.07014e-05
0.00032496
-1.03717e-05
0.000326975
-1.00348e-05
0.000328922
-9.69103e-06
0.000330797
-9.34048e-06
0.000332602
-8.98338e-06
0.000334333
-8.61997e-06
0.00033599
-8.2505e-06
0.000337572
-7.87522e-06
0.000339077
-7.4944e-06
0.000340504
-7.10832e-06
0.000341853
-6.71729e-06
0.000343123
-6.3216e-06
0.000344312
-5.92158e-06
0.00034542
-5.51755e-06
0.000346446
-5.10984e-06
0.000347389
-4.6988e-06
0.000348249
-4.28478e-06
0.000349026
-3.86813e-06
0.000349718
-3.44923e-06
0.000350325
-3.02843e-06
0.000350848
-2.60611e-06
0.000351285
-2.18264e-06
0.000351638
-1.75839e-06
0.000351904
-1.33374e-06
0.000352086
-9.0907e-07
0.000352182
-4.84743e-07
0.000352193
-6.11337e-08
0.000352119
3.61389e-07
0.00035196
7.82462e-07
0.000351717
1.20173e-06
0.00035139
1.61883e-06
0.00035098
2.03343e-06
0.000350488
2.44518e-06
0.000349913
2.85376e-06
0.000349256
3.25885e-06
0.000348519
3.66013e-06
0.000347703
4.0573e-06
0.000346807
4.45007e-06
0.000345834
4.83817e-06
0.000344783
5.22133e-06
0.000343657
5.5993e-06
0.000342456
5.97183e-06
0.000341181
6.33869e-06
0.000339834
6.69968e-06
0.000338415
7.05458e-06
0.000336927
7.40322e-06
0.00033537
7.74541e-06
0.000333746
8.08101e-06
0.000332056
8.40986e-06
0.000330301
8.73182e-06
0.000328483
9.04679e-06
0.000326603
9.35466e-06
0.000324664
9.65534e-06
0.000322665
9.94874e-06
0.000320609
1.02348e-05
0.000318498
1.05135e-05
0.000316332
1.07847e-05
0.000314113
1.10485e-05
0.000311843
1.13049e-05
0.000309524
1.15537e-05
0.000307156
1.17951e-05
0.000304741
1.2029e-05
0.000302281
1.22555e-05
0.000299777
1.24747e-05
0.000297231
1.26865e-05
0.000294645
1.2891e-05
0.000292018
1.30883e-05
0.000289354
1.32785e-05
0.000286654
1.34616e-05
0.000283918
1.36377e-05
0.000281148
1.38069e-05
0.000278346
1.39694e-05
0.000275514
1.41252e-05
0.000272651
1.42745e-05
0.00026976
1.44172e-05
0.000266842
1.45537e-05
0.000263898
1.4684e-05
0.000260929
1.48082e-05
0.000257937