/*--------------------------------*- C++ -*----------------------------------*\
| =========                 |                                                 |
| \\      /  F ield         | OpenFOAM: The Open Source CFD Toolbox           |
|  \\    /   O peration     | Version:  v2012                                 |
|   \\  /    A nd           | Website:  www.openfoam.com                      |
|    \\/     M anipulation  |                                                 |
\*---------------------------------------------------------------------------*/
FoamFile
{
    version     2.0;
    format      ascii;
    class       volScalarField;
    location    "13.6";
    object      W;
}
// * * * * * * * * * * * * * * * * * * * * * * * * * * * * * * * * * * * * * //

dimensions      [0 0 -1 0 0 0 0];


internalField   nonuniform List<scalar> 
65536
(
5.55929e-17
1.67638e-16
2.82289e-16
4.01347e-16
5.26681e-16
6.6025e-16
8.04121e-16
9.60507e-16
1.13179e-15
1.32054e-15
1.52959e-15
1.76202e-15
2.02121e-15
2.31091e-15
2.63524e-15
2.99876e-15
3.40652e-15
3.86412e-15
4.37776e-15
4.95429e-15
5.60132e-15
6.32726e-15
7.14141e-15
8.05406e-15
9.07657e-15
1.02215e-14
1.15026e-14
1.29352e-14
1.4536e-14
1.63234e-14
1.83177e-14
2.0541e-14
2.30176e-14
2.57739e-14
2.88392e-14
3.22448e-14
3.60253e-14
4.02182e-14
4.48641e-14
5.0007e-14
5.56948e-14
6.19791e-14
6.89153e-14
7.65636e-14
8.49883e-14
9.42586e-14
1.04449e-13
1.15637e-13
1.27909e-13
1.41354e-13
1.56068e-13
1.72152e-13
1.89712e-13
2.08863e-13
2.29722e-13
2.52414e-13
2.7707e-13
3.03826e-13
3.32824e-13
3.6421e-13
3.98136e-13
4.3476e-13
4.74242e-13
5.16745e-13
5.62438e-13
6.1149e-13
6.64071e-13
7.20354e-13
7.8051e-13
8.44707e-13
9.13114e-13
9.85893e-13
1.0632e-12
1.14519e-12
1.23201e-12
1.32378e-12
1.42063e-12
1.52267e-12
1.62999e-12
1.74267e-12
1.86077e-12
1.98432e-12
2.11336e-12
2.24786e-12
2.38781e-12
2.53315e-12
2.68379e-12
2.83962e-12
3.00051e-12
3.16629e-12
3.33675e-12
3.51166e-12
3.69076e-12
3.87376e-12
4.06032e-12
4.2501e-12
4.44271e-12
4.63774e-12
4.83474e-12
5.03325e-12
5.23279e-12
5.43284e-12
5.63287e-12
5.83234e-12
6.03069e-12
6.22734e-12
6.42172e-12
6.61324e-12
6.80133e-12
6.98538e-12
7.16482e-12
7.33907e-12
7.50757e-12
7.66977e-12
7.82513e-12
7.97314e-12
8.11329e-12
8.2451e-12
8.36814e-12
8.48197e-12
8.5862e-12
8.68047e-12
8.76444e-12
8.8378e-12
8.90029e-12
8.95167e-12
8.99173e-12
9.0203e-12
9.03725e-12
9.04246e-12
9.03588e-12
9.01746e-12
8.98719e-12
8.94511e-12
8.89127e-12
8.82576e-12
8.74871e-12
8.66027e-12
8.56063e-12
8.44999e-12
8.32861e-12
8.19677e-12
8.05477e-12
7.90296e-12
7.7417e-12
7.5714e-12
7.39251e-12
7.20548e-12
7.01082e-12
6.80906e-12
6.60077e-12
6.38655e-12
6.16703e-12
5.94286e-12
5.71474e-12
5.48337e-12
5.2495e-12
5.01388e-12
4.7773e-12
4.54054e-12
4.3044e-12
4.06969e-12
3.83721e-12
3.60776e-12
3.38211e-12
3.16103e-12
2.94525e-12
2.73548e-12
2.53236e-12
2.33652e-12
2.1485e-12
1.96881e-12
1.79788e-12
1.63607e-12
1.48368e-12
1.34092e-12
1.20794e-12
1.0848e-12
9.71492e-13
8.67939e-13
7.73984e-13
6.89405e-13
6.13919e-13
5.47184e-13
4.88805e-13
4.3834e-13
3.95306e-13
3.59187e-13
3.29436e-13
3.05485e-13
2.86749e-13
2.72634e-13
2.6254e-13
2.55869e-13
2.52033e-13
2.50455e-13
2.50579e-13
2.51875e-13
2.53847e-13
2.56035e-13
2.58022e-13
2.59445e-13
2.59989e-13
2.594e-13
2.57483e-13
2.54106e-13
2.49195e-13
2.42738e-13
2.34778e-13
2.25408e-13
2.14768e-13
2.03032e-13
1.90404e-13
1.77106e-13
1.63372e-13
1.49434e-13
1.35519e-13
1.21837e-13
1.08579e-13
9.59084e-14
8.396e-14
7.28375e-14
6.26136e-14
5.33308e-14
4.50039e-14
3.76228e-14
3.11566e-14
2.55574e-14
2.07644e-14
1.67082e-14
1.33144e-14
1.05066e-14
8.20973e-15
6.35173e-15
4.86549e-15
3.68983e-15
2.77017e-15
2.05875e-15
1.51451e-15
1.10277e-15
7.9474e-16
5.66846e-16
4.00114e-16
2.79484e-16
1.9318e-16
1.32122e-16
8.94052e-17
5.98529e-17
3.96332e-17
2.59476e-17
1.67774e-17
1.06827e-17
6.64489e-18
3.94534e-18
2.0714e-18
6.4351e-19
1.9295e-16
5.81836e-16
9.79782e-16
1.39305e-15
1.82815e-15
2.29186e-15
2.7914e-15
3.33445e-15
3.92929e-15
4.5849e-15
5.31107e-15
6.11855e-15
7.01912e-15
8.02579e-15
9.15292e-15
1.04164e-14
1.18338e-14
1.34247e-14
1.52105e-14
1.72152e-14
1.94653e-14
2.199e-14
2.48218e-14
2.79965e-14
3.15536e-14
3.55369e-14
3.99945e-14
4.49794e-14
5.05501e-14
5.67706e-14
6.37114e-14
7.14496e-14
8.00697e-14
8.96643e-14
1.00334e-13
1.12189e-13
1.25349e-13
1.39945e-13
1.56118e-13
1.74021e-13
1.93819e-13
2.15693e-13
2.39836e-13
2.66455e-13
2.95773e-13
3.28032e-13
3.63487e-13
4.02412e-13
4.451e-13
4.91861e-13
5.43025e-13
5.98941e-13
6.59979e-13
7.26527e-13
7.98993e-13
8.77805e-13
9.63412e-13
1.05628e-12
1.15689e-12
1.26574e-12
1.38336e-12
1.51028e-12
1.64703e-12
1.79417e-12
1.95227e-12
2.12189e-12
2.30361e-12
2.498e-12
2.70562e-12
2.92703e-12
3.16279e-12
3.41341e-12
3.67941e-12
3.96126e-12
4.25942e-12
4.5743e-12
4.90627e-12
5.25564e-12
5.62269e-12
6.00761e-12
6.41055e-12
6.83158e-12
7.27067e-12
7.72775e-12
8.20263e-12
8.69504e-12
9.20462e-12
9.73089e-12
1.02733e-11
1.08312e-11
1.14037e-11
1.19901e-11
1.25893e-11
1.32002e-11
1.38217e-11
1.44525e-11
1.50911e-11
1.57361e-11
1.63859e-11
1.7039e-11
1.76935e-11
1.83478e-11
1.9e-11
1.96482e-11
2.02906e-11
2.09252e-11
2.155e-11
2.21632e-11
2.27628e-11
2.33469e-11
2.39135e-11
2.44609e-11
2.49872e-11
2.54908e-11
2.59698e-11
2.64227e-11
2.68481e-11
2.72444e-11
2.76103e-11
2.79446e-11
2.82461e-11
2.85138e-11
2.87469e-11
2.89445e-11
2.91058e-11
2.92304e-11
2.93177e-11
2.93675e-11
2.93793e-11
2.93532e-11
2.92891e-11
2.91871e-11
2.90473e-11
2.88701e-11
2.86557e-11
2.84047e-11
2.81176e-11
2.77952e-11
2.74381e-11
2.70472e-11
2.66234e-11
2.61678e-11
2.56814e-11
2.51655e-11
2.46213e-11
2.40502e-11
2.34536e-11
2.28332e-11
2.21906e-11
2.15274e-11
2.08456e-11
2.0147e-11
1.94337e-11
1.87076e-11
1.79711e-11
1.72262e-11
1.64754e-11
1.57208e-11
1.49651e-11
1.42104e-11
1.34594e-11
1.27145e-11
1.19781e-11
1.12526e-11
1.05403e-11
9.84365e-12
9.16474e-12
8.50569e-12
7.86846e-12
7.25485e-12
6.66651e-12
6.10489e-12
5.57125e-12
5.06663e-12
4.59186e-12
4.14753e-12
3.73401e-12
3.35141e-12
2.99965e-12
2.67841e-12
2.38713e-12
2.12509e-12
1.89135e-12
1.68482e-12
1.50422e-12
1.34815e-12
1.2151e-12
1.10344e-12
1.01146e-12
9.37394e-13
8.79415e-13
8.35681e-13
8.04337e-13
7.83536e-13
7.7146e-13
7.66334e-13
7.66448e-13
7.70175e-13
7.75986e-13
7.82474e-13
7.88367e-13
7.92543e-13
7.94048e-13
7.92102e-13
7.86112e-13
7.75672e-13
7.6056e-13
7.40741e-13
7.16345e-13
6.8766e-13
6.55111e-13
6.19231e-13
5.80642e-13
5.40024e-13
4.98086e-13
4.5554e-13
4.13074e-13
3.71331e-13
3.30888e-13
2.92246e-13
2.55812e-13
2.21902e-13
1.90737e-13
1.62445e-13
1.37069e-13
1.14579e-13
9.48788e-14
7.78218e-14
6.32226e-14
5.08688e-14
4.05333e-14
3.19834e-14
2.49898e-14
1.9333e-14
1.48084e-14
1.12296e-14
8.43024e-15
6.26489e-15
4.6085e-15
3.35548e-15
2.4181e-15
1.72463e-15
1.2173e-15
8.50265e-16
5.87684e-16
4.01922e-16
2.71968e-16
1.82065e-16
1.20556e-16
7.89254e-17
5.10311e-17
3.24925e-17
2.02108e-17
1.19999e-17
6.30018e-18
1.95728e-18
4.19447e-16
1.26485e-15
2.13002e-15
3.0286e-15
3.97475e-15
4.98331e-15
6.06998e-15
7.25151e-15
8.54599e-15
9.97302e-15
1.1554e-14
1.33123e-14
1.52737e-14
1.74667e-14
1.99226e-14
2.26761e-14
2.57657e-14
2.9234e-14
3.31281e-14
3.75003e-14
4.24086e-14
4.79169e-14
5.40961e-14
6.10248e-14
6.87894e-14
7.74855e-14
8.72185e-14
9.81044e-14
1.10271e-13
1.23859e-13
1.39021e-13
1.55927e-13
1.74762e-13
1.95727e-13
2.19043e-13
2.44951e-13
2.73713e-13
3.05612e-13
3.40957e-13
3.80083e-13
4.23351e-13
4.71152e-13
5.23906e-13
5.82066e-13
6.46118e-13
7.16582e-13
7.94014e-13
8.79008e-13
9.72198e-13
1.07425e-12
1.18589e-12
1.30785e-12
1.44094e-12
1.58598e-12
1.74386e-12
1.91548e-12
2.10181e-12
2.30382e-12
2.52255e-12
2.75906e-12
3.01443e-12
3.28977e-12
3.58623e-12
3.90495e-12
4.2471e-12
4.61384e-12
5.00633e-12
5.42574e-12
5.87318e-12
6.34979e-12
6.85661e-12
7.39467e-12
7.96494e-12
8.56831e-12
9.20558e-12
9.87748e-12
1.05846e-11
1.13275e-11
1.21064e-11
1.29217e-11
1.37733e-11
1.46612e-11
1.5585e-11
1.65444e-11
1.75386e-11
1.85668e-11
1.9628e-11
2.07207e-11
2.18435e-11
2.29948e-11
2.41724e-11
2.53743e-11
2.65981e-11
2.78412e-11
2.91007e-11
3.03738e-11
3.16572e-11
3.29476e-11
3.42415e-11
3.55354e-11
3.68254e-11
3.81079e-11
3.93788e-11
4.06343e-11
4.18704e-11
4.30831e-11
4.42686e-11
4.54228e-11
4.6542e-11
4.76223e-11
4.86603e-11
4.96524e-11
5.05952e-11
5.14856e-11
5.23206e-11
5.30973e-11
5.38133e-11
5.44661e-11
5.50537e-11
5.55741e-11
5.60257e-11
5.64072e-11
5.67173e-11
5.69551e-11
5.712e-11
5.72115e-11
5.72295e-11
5.71739e-11
5.7045e-11
5.68432e-11
5.65693e-11
5.62239e-11
5.58082e-11
5.53234e-11
5.47707e-11
5.41518e-11
5.34683e-11
5.2722e-11
5.19148e-11
5.10489e-11
5.01265e-11
4.91499e-11
4.81216e-11
4.70442e-11
4.59204e-11
4.47531e-11
4.35452e-11
4.22998e-11
4.10201e-11
3.97095e-11
3.83715e-11
3.70095e-11
3.56273e-11
3.42287e-11
3.28176e-11
3.1398e-11
2.99739e-11
2.85495e-11
2.7129e-11
2.57166e-11
2.43165e-11
2.29329e-11
2.157e-11
2.02318e-11
1.89223e-11
1.76453e-11
1.64045e-11
1.52034e-11
1.4045e-11
1.29324e-11
1.18681e-11
1.08544e-11
9.89329e-12
8.98629e-12
8.13458e-12
7.33892e-12
6.59969e-12
5.91686e-12
5.29001e-12
4.71834e-12
4.20069e-12
3.73556e-12
3.32112e-12
2.95526e-12
2.63561e-12
2.35957e-12
2.12435e-12
1.92698e-12
1.76439e-12
1.63338e-12
1.53071e-12
1.45309e-12
1.39723e-12
1.35987e-12
1.33781e-12
1.32793e-12
1.32723e-12
1.33288e-12
1.3422e-12
1.35276e-12
1.36233e-12
1.36898e-12
1.37105e-12
1.36719e-12
1.35639e-12
1.33794e-12
1.31147e-12
1.27691e-12
1.23451e-12
1.18475e-12
1.12837e-12
1.06629e-12
9.99597e-13
9.29448e-13
8.57066e-13
7.83678e-13
7.10466e-13
6.38534e-13
5.68872e-13
5.02336e-13
4.39626e-13
3.81279e-13
3.2767e-13
2.79017e-13
2.35392e-13
1.96736e-13
1.62884e-13
1.33581e-13
1.08506e-13
8.7291e-14
6.95457e-14
5.48688e-14
4.28655e-14
3.31582e-14
2.53951e-14
1.92556e-14
1.4454e-14
1.07403e-14
7.89988e-15
5.75142e-15
4.14436e-15
2.95558e-15
2.08598e-15
1.45692e-15
1.00692e-15
6.88595e-16
4.65922e-16
3.11889e-16
2.06509e-16
1.3519e-16
8.7407e-17
5.56516e-17
3.46151e-17
2.05516e-17
1.07899e-17
3.35212e-18
8.33497e-16
2.51349e-15
4.23289e-15
6.01894e-15
7.89987e-15
9.90529e-15
1.20665e-14
1.4417e-14
1.69928e-14
1.98332e-14
2.29808e-14
2.64824e-14
3.03896e-14
3.47592e-14
3.96539e-14
4.51433e-14
5.13043e-14
5.82221e-14
6.59911e-14
7.47161e-14
8.4513e-14
9.55102e-14
1.0785e-13
1.21689e-13
1.37201e-13
1.54577e-13
1.74029e-13
1.95789e-13
2.20114e-13
2.47284e-13
2.77607e-13
3.11423e-13
3.49101e-13
3.91046e-13
4.377e-13
4.89543e-13
5.471e-13
6.10939e-13
6.81677e-13
7.59982e-13
8.46577e-13
9.42239e-13
1.04781e-12
1.16418e-12
1.29233e-12
1.43329e-12
1.58816e-12
1.75813e-12
1.94443e-12
2.1484e-12
2.37145e-12
2.61505e-12
2.88077e-12
3.17023e-12
3.48516e-12
3.82732e-12
4.19858e-12
4.60086e-12
5.03613e-12
5.50643e-12
6.01384e-12
6.56048e-12
7.14851e-12
7.78007e-12
8.45736e-12
9.18252e-12
9.95769e-12
1.0785e-11
1.16664e-11
1.26039e-11
1.35994e-11
1.46546e-11
1.57711e-11
1.69502e-11
1.81933e-11
1.95014e-11
2.08752e-11
2.23153e-11
2.38218e-11
2.53948e-11
2.70337e-11
2.87379e-11
3.05062e-11
3.2337e-11
3.42284e-11
3.61782e-11
3.81835e-11
4.02412e-11
4.23477e-11
4.44988e-11
4.66903e-11
4.89172e-11
5.11742e-11
5.34558e-11
5.5756e-11
5.80685e-11
6.03867e-11
6.27038e-11
6.50128e-11
6.73064e-11
6.95772e-11
7.18179e-11
7.4021e-11
7.61789e-11
7.82843e-11
8.03299e-11
8.23085e-11
8.42132e-11
8.60373e-11
8.77744e-11
8.94183e-11
9.09635e-11
9.24045e-11
9.37365e-11
9.4955e-11
9.6056e-11
9.70361e-11
9.78923e-11
9.86221e-11
9.92235e-11
9.9695e-11
1.00036e-10
1.00245e-10
1.00323e-10
1.00269e-10
1.00086e-10
9.97735e-11
9.93339e-11
9.87691e-11
9.80814e-11
9.72735e-11
9.63483e-11
9.53091e-11
9.41594e-11
9.29029e-11
9.15434e-11
9.0085e-11
8.8532e-11
8.68888e-11
8.51598e-11
8.33498e-11
8.14635e-11
7.95058e-11
7.74817e-11
7.53963e-11
7.32547e-11
7.10624e-11
6.88246e-11
6.65469e-11
6.4235e-11
6.18944e-11
5.95311e-11
5.71508e-11
5.47597e-11
5.23637e-11
4.99689e-11
4.75817e-11
4.5208e-11
4.28543e-11
4.05266e-11
3.82311e-11
3.59738e-11
3.37607e-11
3.15975e-11
2.94898e-11
2.74428e-11
2.54616e-11
2.35508e-11
2.17146e-11
1.99569e-11
1.8281e-11
1.66897e-11
1.51853e-11
1.37697e-11
1.24438e-11
1.12083e-11
1.00631e-11
9.00773e-12
8.04091e-12
7.16093e-12
6.36557e-12
5.65211e-12
5.01738e-12
4.45781e-12
3.96949e-12
3.54819e-12
3.18942e-12
2.8885e-12
2.64056e-12
2.44064e-12
2.28371e-12
2.1647e-12
2.07858e-12
2.02039e-12
1.98525e-12
1.96847e-12
1.96554e-12
1.97218e-12
1.98442e-12
1.9986e-12
2.01144e-12
2.02005e-12
2.02197e-12
2.01524e-12
1.99833e-12
1.97023e-12
1.93038e-12
1.87871e-12
1.81557e-12
1.7417e-12
1.65817e-12
1.56637e-12
1.46786e-12
1.36438e-12
1.2577e-12
1.14963e-12
1.0419e-12
9.36117e-13
8.33741e-13
7.36011e-13
6.43948e-13
5.58331e-13
4.79702e-13
4.08371e-13
3.44435e-13
2.87804e-13
2.38227e-13
1.95326e-13
1.58626e-13
1.27585e-13
1.01628e-13
8.01653e-14
6.26165e-14
4.84279e-14
3.70834e-14
2.81136e-14
2.10998e-14
1.56763e-14
1.15289e-14
8.39234e-15
6.04658e-15
4.31165e-15
3.04271e-15
2.1249e-15
1.46843e-15
1.00411e-15
6.79352e-16
4.54721e-16
3.0106e-16
1.97074e-16
1.2741e-16
8.11168e-17
5.0452e-17
2.99533e-17
1.57256e-17
4.88545e-18
1.60547e-15
4.84155e-15
8.15388e-15
1.15951e-14
1.52199e-14
1.90855e-14
2.32526e-14
2.77859e-14
3.27554e-14
3.82369e-14
4.43132e-14
5.10751e-14
5.86226e-14
6.70659e-14
7.65269e-14
8.71404e-14
9.90559e-14
1.12439e-13
1.27473e-13
1.44362e-13
1.63331e-13
1.8463e-13
2.08535e-13
2.35351e-13
2.65417e-13
2.99105e-13
3.36826e-13
3.79032e-13
4.26221e-13
4.78942e-13
5.37793e-13
6.03434e-13
6.76585e-13
7.58031e-13
8.48633e-13
9.49326e-13
1.06113e-12
1.18514e-12
1.32257e-12
1.4747e-12
1.64294e-12
1.8288e-12
2.0339e-12
2.25999e-12
2.50892e-12
2.78271e-12
3.08348e-12
3.4135e-12
3.77517e-12
4.17105e-12
4.60382e-12
5.07633e-12
5.59153e-12
6.15255e-12
6.76264e-12
7.42516e-12
8.14363e-12
8.92164e-12
9.76292e-12
1.06712e-11
1.16505e-11
1.27045e-11
1.38373e-11
1.50529e-11
1.6355e-11
1.77477e-11
1.92346e-11
2.08194e-11
2.25057e-11
2.42967e-11
2.61956e-11
2.8205e-11
3.03274e-11
3.25649e-11
3.49193e-11
3.73915e-11
3.99824e-11
4.2692e-11
4.55199e-11
4.84649e-11
5.15253e-11
5.46984e-11
5.7981e-11
6.1369e-11
6.48577e-11
6.84413e-11
7.21134e-11
7.58668e-11
7.96935e-11
8.35844e-11
8.75302e-11
9.15204e-11
9.55442e-11
9.95898e-11
1.03645e-10
1.07698e-10
1.11734e-10
1.15741e-10
1.19705e-10
1.23611e-10
1.27447e-10
1.31199e-10
1.34851e-10
1.38392e-10
1.41807e-10
1.45085e-10
1.48212e-10
1.51177e-10
1.53969e-10
1.56578e-10
1.58994e-10
1.61209e-10
1.63215e-10
1.65005e-10
1.66574e-10
1.67917e-10
1.69031e-10
1.69912e-10
1.70559e-10
1.70972e-10
1.71151e-10
1.71097e-10
1.70811e-10
1.70299e-10
1.69562e-10
1.68605e-10
1.67435e-10
1.66055e-10
1.64474e-10
1.62697e-10
1.60732e-10
1.58587e-10
1.5627e-10
1.53788e-10
1.51151e-10
1.48366e-10
1.45444e-10
1.42392e-10
1.39219e-10
1.35935e-10
1.32548e-10
1.29067e-10
1.25502e-10
1.21861e-10
1.18154e-10
1.14388e-10
1.10573e-10
1.06718e-10
1.02832e-10
9.89224e-11
9.49993e-11
9.10711e-11
8.71466e-11
8.32343e-11
7.93431e-11
7.54815e-11
7.16582e-11
6.78816e-11
6.41603e-11
6.05023e-11
5.6916e-11
5.3409e-11
4.99892e-11
4.66636e-11
4.34393e-11
4.03228e-11
3.73202e-11
3.44368e-11
3.16776e-11
2.90469e-11
2.65482e-11
2.41844e-11
2.19575e-11
1.98688e-11
1.79189e-11
1.61073e-11
1.44331e-11
1.28943e-11
1.14882e-11
1.02115e-11
9.06016e-12
8.0295e-12
7.11429e-12
6.30882e-12
5.60691e-12
5.00204e-12
4.48739e-12
4.0559e-12
3.70036e-12
3.41343e-12
3.18776e-12
3.01602e-12
2.89094e-12
2.8054e-12
2.75248e-12
2.72551e-12
2.71812e-12
2.72431e-12
2.7385e-12
2.75559e-12
2.77101e-12
2.78076e-12
2.78146e-12
2.77037e-12
2.74541e-12
2.7052e-12
2.64899e-12
2.57669e-12
2.48878e-12
2.38631e-12
2.27077e-12
2.14404e-12
2.00829e-12
1.86587e-12
1.71924e-12
1.57085e-12
1.42307e-12
1.27809e-12
1.13788e-12
1.00413e-12
8.78212e-13
7.61184e-13
6.53767e-13
5.56371e-13
4.69116e-13
3.91866e-13
3.24268e-13
2.65796e-13
2.15796e-13
1.73522e-13
1.38184e-13
1.08974e-13
8.50988e-14
6.58008e-14
5.03757e-14
3.81828e-14
2.86513e-14
2.12827e-14
1.56491e-14
1.13897e-14
8.20479e-15
5.84971e-15
4.12751e-15
2.88208e-15
1.99144e-15
1.36158e-15
9.21098e-16
6.16469e-16
4.0811e-16
2.67126e-16
1.72685e-16
1.09934e-16
6.83716e-17
4.05902e-17
2.13093e-17
6.62005e-18
3.03704e-15
9.15891e-15
1.54257e-14
2.19375e-14
2.87982e-14
3.61167e-14
4.40083e-14
5.25963e-14
6.20138e-14
7.24051e-14
8.39282e-14
9.6756e-14
1.11079e-13
1.27108e-13
1.45074e-13
1.65236e-13
1.87879e-13
2.1332e-13
2.41908e-13
2.74033e-13
3.10125e-13
3.50663e-13
3.96175e-13
4.47245e-13
5.04519e-13
5.68711e-13
6.40606e-13
7.21072e-13
8.11061e-13
9.11622e-13
1.0239e-12
1.14916e-12
1.28878e-12
1.44427e-12
1.61726e-12
1.80955e-12
2.02309e-12
2.25998e-12
2.52252e-12
2.81318e-12
3.13464e-12
3.48977e-12
3.88167e-12
4.31367e-12
4.78931e-12
5.31241e-12
5.887e-12
6.51738e-12
7.20812e-12
7.96404e-12
8.79021e-12
9.69198e-12
1.06749e-11
1.17449e-11
1.2908e-11
1.41705e-11
1.5539e-11
1.702e-11
1.86204e-11
2.03473e-11
2.22077e-11
2.42086e-11
2.63573e-11
2.86607e-11
3.11258e-11
3.37594e-11
3.65681e-11
3.95582e-11
4.27355e-11
4.61055e-11
4.9673e-11
5.34423e-11
5.7417e-11
6.15998e-11
6.59925e-11
7.0596e-11
7.54102e-11
8.04336e-11
8.56638e-11
9.10968e-11
9.67274e-11
1.02549e-10
1.08553e-10
1.14731e-10
1.21071e-10
1.2756e-10
1.34185e-10
1.40929e-10
1.47775e-10
1.54706e-10
1.61701e-10
1.68739e-10
1.75799e-10
1.82856e-10
1.89887e-10
1.96867e-10
2.03771e-10
2.10574e-10
2.17249e-10
2.23771e-10
2.30115e-10
2.36254e-10
2.42166e-10
2.47825e-10
2.53209e-10
2.58297e-10
2.63069e-10
2.67504e-10
2.71587e-10
2.75302e-10
2.78635e-10
2.81575e-10
2.84111e-10
2.86237e-10
2.87945e-10
2.89234e-10
2.901e-10
2.90544e-10
2.9057e-10
2.9018e-10
2.8938e-10
2.88179e-10
2.86585e-10
2.84608e-10
2.82261e-10
2.79555e-10
2.76506e-10
2.73128e-10
2.69436e-10
2.65447e-10
2.61177e-10
2.56643e-10
2.51862e-10
2.46852e-10
2.4163e-10
2.36213e-10
2.30619e-10
2.24864e-10
2.18966e-10
2.12941e-10
2.06805e-10
2.00573e-10
1.94262e-10
1.87887e-10
1.81462e-10
1.75001e-10
1.68519e-10
1.62029e-10
1.55545e-10
1.4908e-10
1.42646e-10
1.36255e-10
1.29921e-10
1.23655e-10
1.17468e-10
1.11373e-10
1.05379e-10
9.94982e-11
9.3741e-11
8.81173e-11
8.26369e-11
7.73093e-11
7.21432e-11
6.71469e-11
6.23283e-11
5.76944e-11
5.32515e-11
4.90052e-11
4.49601e-11
4.11201e-11
3.74881e-11
3.40659e-11
3.08543e-11
2.78532e-11
2.50613e-11
2.24762e-11
2.00947e-11
1.79124e-11
1.59241e-11
1.41237e-11
1.25041e-11
1.10577e-11
9.776e-12
8.65013e-12
7.67065e-12
6.82772e-12
6.11122e-12
5.51082e-12
5.01606e-12
4.61644e-12
4.3015e-12
4.06089e-12
3.88445e-12
3.76229e-12
3.68484e-12
3.64292e-12
3.62782e-12
3.63139e-12
3.64606e-12
3.66495e-12
3.68191e-12
3.69159e-12
3.68948e-12
3.67192e-12
3.63619e-12
3.58044e-12
3.50372e-12
3.40592e-12
3.28771e-12
3.15047e-12
2.99622e-12
2.82743e-12
2.64697e-12
2.45798e-12
2.26367e-12
2.06728e-12
1.8719e-12
1.68041e-12
1.49539e-12
1.31904e-12
1.15315e-12
9.9907e-13
8.57741e-13
7.29676e-13
6.15012e-13
5.13551e-13
4.24814e-13
3.48094e-13
2.8252e-13
2.27104e-13
1.80799e-13
1.4254e-13
1.11279e-13
8.60212e-14
6.5839e-14
4.9891e-14
3.74279e-14
2.77959e-14
2.04339e-14
1.48691e-14
1.07092e-14
7.63383e-15
5.38544e-15
3.75984e-15
2.59754e-15
1.77573e-15
1.20111e-15
8.03774e-16
5.32048e-16
3.48213e-16
2.25084e-16
1.4328e-16
8.91042e-17
5.28956e-17
2.77684e-17
8.62652e-18
5.66011e-15
1.70699e-14
2.87511e-14
4.08914e-14
5.36854e-14
6.73371e-14
8.20628e-14
9.80937e-14
1.15679e-13
1.35091e-13
1.56626e-13
1.80607e-13
2.07395e-13
2.37383e-13
2.71011e-13
3.08761e-13
3.51172e-13
3.98839e-13
4.52424e-13
5.12658e-13
5.80356e-13
6.56417e-13
7.41837e-13
8.37722e-13
9.45289e-13
1.06588e-12
1.20099e-12
1.35225e-12
1.52147e-12
1.71061e-12
1.92185e-12
2.15757e-12
2.42038e-12
2.71311e-12
3.03888e-12
3.40106e-12
3.80334e-12
4.24968e-12
4.74442e-12
5.29223e-12
5.89815e-12
6.56759e-12
7.30641e-12
8.12083e-12
9.01757e-12
1.00037e-11
1.10869e-11
1.22752e-11
1.35772e-11
1.50018e-11
1.65585e-11
1.82573e-11
2.01086e-11
2.21232e-11
2.43124e-11
2.66877e-11
2.92613e-11
3.20452e-11
3.50521e-11
3.82946e-11
4.17855e-11
4.55376e-11
4.95634e-11
5.38757e-11
5.84866e-11
6.34079e-11
6.86508e-11
7.4226e-11
8.01431e-11
8.64108e-11
9.30368e-11
1.00027e-10
1.07387e-10
1.15118e-10
1.23224e-10
1.31702e-10
1.40549e-10
1.49762e-10
1.59331e-10
1.69247e-10
1.79497e-10
1.90066e-10
2.00934e-10
2.12082e-10
2.23484e-10
2.35114e-10
2.46942e-10
2.58935e-10
2.7106e-10
2.83278e-10
2.9555e-10
3.07834e-10
3.20087e-10
3.32264e-10
3.44319e-10
3.56204e-10
3.67874e-10
3.79279e-10
3.90373e-10
4.01108e-10
4.1144e-10
4.21323e-10
4.30716e-10
4.39577e-10
4.47869e-10
4.55555e-10
4.62605e-10
4.68989e-10
4.74681e-10
4.7966e-10
4.83908e-10
4.87412e-10
4.9016e-10
4.92147e-10
4.93372e-10
4.93835e-10
4.93544e-10
4.92506e-10
4.90736e-10
4.88249e-10
4.85064e-10
4.81203e-10
4.76691e-10
4.71554e-10
4.6582e-10
4.59521e-10
4.52687e-10
4.45351e-10
4.37547e-10
4.29308e-10
4.20669e-10
4.11664e-10
4.02327e-10
3.92691e-10
3.82791e-10
3.72658e-10
3.62324e-10
3.5182e-10
3.41176e-10
3.30421e-10
3.19581e-10
3.08684e-10
2.97755e-10
2.86818e-10
2.75896e-10
2.65012e-10
2.54186e-10
2.43439e-10
2.32789e-10
2.22255e-10
2.11854e-10
2.01603e-10
1.91518e-10
1.81613e-10
1.71903e-10
1.62402e-10
1.53123e-10
1.44079e-10
1.35281e-10
1.2674e-10
1.18467e-10
1.10472e-10
1.02763e-10
9.53486e-11
8.82361e-11
8.14315e-11
7.49401e-11
6.87658e-11
6.29118e-11
5.73795e-11
5.21696e-11
4.72812e-11
4.27122e-11
3.8459e-11
3.4517e-11
3.088e-11
2.75408e-11
2.44909e-11
2.17205e-11
1.92191e-11
1.6975e-11
1.49759e-11
1.32086e-11
1.16593e-11
1.03138e-11
9.15766e-12
8.17599e-12
7.3539e-12
6.67645e-12
6.12881e-12
5.69634e-12
5.36467e-12
5.11979e-12
4.94816e-12
4.83676e-12
4.77321e-12
4.74579e-12
4.7436e-12
4.75658e-12
4.7756e-12
4.79255e-12
4.8004e-12
4.79323e-12
4.76632e-12
4.7161e-12
4.6402e-12
4.53741e-12
4.40762e-12
4.25173e-12
4.07156e-12
3.86972e-12
3.64946e-12
3.41448e-12
3.16883e-12
2.91667e-12
2.66215e-12
2.40926e-12
2.16168e-12
1.9227e-12
1.69512e-12
1.48122e-12
1.28272e-12
1.10077e-12
9.36013e-13
7.88592e-13
6.58227e-13
5.44276e-13
4.45813e-13
3.61697e-13
2.90648e-13
2.31308e-13
1.823e-13
1.42275e-13
1.09948e-13
8.41276e-14
6.37317e-14
4.77985e-14
3.54885e-14
2.60827e-14
1.89752e-14
1.36635e-14
9.73776e-15
6.86835e-15
4.79425e-15
3.31161e-15
2.26352e-15
1.53082e-15
1.02427e-15
6.77918e-16
4.4363e-16
2.86731e-16
1.82506e-16
1.13489e-16
6.73672e-17
3.53639e-17
1.09859e-17
1.04012e-14
3.13693e-14
5.2839e-14
7.5157e-14
9.86831e-14
1.23795e-13
1.50891e-13
1.80402e-13
2.12787e-13
2.4855e-13
2.88241e-13
3.3246e-13
3.81874e-13
4.37216e-13
4.99298e-13
5.6902e-13
6.47381e-13
7.35488e-13
8.3457e-13
9.45991e-13
1.07126e-12
1.21206e-12
1.37025e-12
1.54787e-12
1.74721e-12
1.97076e-12
2.22131e-12
2.5019e-12
2.81589e-12
3.16696e-12
3.55918e-12
3.99698e-12
4.48522e-12
5.02921e-12
5.63473e-12
6.3081e-12
7.05617e-12
7.88638e-12
8.80679e-12
9.82609e-12
1.09537e-11
1.21997e-11
1.35749e-11
1.50911e-11
1.67606e-11
1.85966e-11
2.06134e-11
2.28258e-11
2.52496e-11
2.79015e-11
3.07991e-11
3.39607e-11
3.74055e-11
4.11533e-11
4.52247e-11
4.96411e-11
5.44242e-11
5.95964e-11
6.51802e-11
7.11984e-11
7.7674e-11
8.46298e-11
9.20882e-11
1.00071e-10
1.086e-10
1.17695e-10
1.27375e-10
1.37659e-10
1.4856e-10
1.60094e-10
1.72272e-10
1.85101e-10
1.98588e-10
2.12735e-10
2.27541e-10
2.42999e-10
2.591e-10
2.75831e-10
2.93171e-10
3.11099e-10
3.29584e-10
3.48592e-10
3.68085e-10
3.88017e-10
4.0834e-10
4.28997e-10
4.49929e-10
4.71071e-10
4.92353e-10
5.13704e-10
5.35045e-10
5.56295e-10
5.77374e-10
5.98194e-10
6.1867e-10
6.38715e-10
6.58241e-10
6.77162e-10
6.95392e-10
7.12848e-10
7.2945e-10
7.45122e-10
7.59791e-10
7.7339e-10
7.85856e-10
7.97135e-10
8.07177e-10
8.15939e-10
8.23388e-10
8.29494e-10
8.34239e-10
8.37611e-10
8.39604e-10
8.40223e-10
8.39478e-10
8.37387e-10
8.33975e-10
8.29273e-10
8.23319e-10
8.16154e-10
8.07828e-10
7.98391e-10
7.87901e-10
7.76415e-10
7.63997e-10
7.5071e-10
7.36619e-10
7.2179e-10
7.06291e-10
6.90188e-10
6.73547e-10
6.56433e-10
6.38909e-10
6.21038e-10
6.0288e-10
5.84492e-10
5.6593e-10
5.47247e-10
5.28494e-10
5.09717e-10
4.90962e-10
4.72272e-10
4.53685e-10
4.35239e-10
4.16968e-10
3.98904e-10
3.81077e-10
3.63515e-10
3.46244e-10
3.29285e-10
3.12663e-10
2.96396e-10
2.80504e-10
2.65003e-10
2.49909e-10
2.35237e-10
2.21e-10
2.0721e-10
1.93878e-10
1.81013e-10
1.68626e-10
1.56723e-10
1.4531e-10
1.34393e-10
1.23975e-10
1.1406e-10
1.04649e-10
9.574e-11
8.7333e-11
7.94242e-11
7.2009e-11
6.50808e-11
5.86318e-11
5.26523e-11
4.71312e-11
4.20559e-11
3.74123e-11
3.3185e-11
2.93574e-11
2.59117e-11
2.28292e-11
2.00903e-11
1.76748e-11
1.55619e-11
1.37304e-11
1.21591e-11
1.08265e-11
9.71126e-12
8.79236e-12
8.04897e-12
7.46076e-12
7.00797e-12
6.67147e-12
6.43288e-12
6.27469e-12
6.18029e-12
6.13411e-12
6.12171e-12
6.12984e-12
6.14653e-12
6.16121e-12
6.16473e-12
6.14944e-12
6.10924e-12
6.03957e-12
5.93743e-12
5.80128e-12
5.63102e-12
5.42785e-12
5.19414e-12
4.93324e-12
4.64932e-12
4.34715e-12
4.03185e-12
3.70873e-12
3.38307e-12
3.05992e-12
2.74393e-12
2.43924e-12
2.14938e-12
1.87718e-12
1.6248e-12
1.39365e-12
1.1845e-12
9.97483e-13
8.32217e-13
6.87851e-13
5.6318e-13
4.56737e-13
3.66877e-13
2.91865e-13
2.29944e-13
1.79396e-13
1.38589e-13
1.06009e-13
8.02837e-14
6.01948e-14
4.46799e-14
3.28294e-14
2.38773e-14
1.71893e-14
1.22478e-14
8.63689e-15
6.02751e-15
4.1627e-15
2.84474e-15
1.92359e-15
1.28688e-15
8.51608e-16
5.57223e-16
3.60109e-16
2.29188e-16
1.42506e-16
8.45858e-17
4.44006e-17
1.37928e-17
1.88514e-14
5.68561e-14
9.57756e-14
1.36242e-13
1.78912e-13
2.24472e-13
2.73655e-13
3.2724e-13
3.86072e-13
4.5107e-13
5.23237e-13
6.03677e-13
6.93606e-13
7.94369e-13
9.07452e-13
1.03451e-12
1.17737e-12
1.33806e-12
1.51885e-12
1.72223e-12
1.95099e-12
2.20821e-12
2.4973e-12
2.82205e-12
3.18663e-12
3.59566e-12
4.05424e-12
4.56799e-12
5.1431e-12
5.78637e-12
6.50526e-12
7.30796e-12
8.20342e-12
9.20143e-12
1.03127e-11
1.15488e-11
1.29224e-11
1.44471e-11
1.6138e-11
1.80109e-11
2.00833e-11
2.23736e-11
2.4902e-11
2.76898e-11
3.07598e-11
3.41366e-11
3.78458e-11
4.19151e-11
4.63733e-11
5.1251e-11
5.65803e-11
6.23946e-11
6.87289e-11
7.56193e-11
8.31034e-11
9.12196e-11
1.00007e-10
1.09507e-10
1.19758e-10
1.30803e-10
1.42681e-10
1.55433e-10
1.69099e-10
1.83716e-10
1.99322e-10
2.15951e-10
2.33635e-10
2.52403e-10
2.7228e-10
2.93287e-10
3.15439e-10
3.38749e-10
3.6322e-10
3.88851e-10
4.15633e-10
4.43548e-10
4.72573e-10
5.02674e-10
5.33808e-10
5.65924e-10
5.98961e-10
6.32847e-10
6.67503e-10
7.02838e-10
7.38751e-10
7.75135e-10
8.11871e-10
8.48832e-10
8.85886e-10
9.22891e-10
9.59702e-10
9.96166e-10
1.03213e-09
1.06743e-09
1.10191e-09
1.13542e-09
1.16779e-09
1.19887e-09
1.22851e-09
1.25656e-09
1.28289e-09
1.30737e-09
1.32987e-09
1.35029e-09
1.36853e-09
1.38451e-09
1.39815e-09
1.40939e-09
1.4182e-09
1.42455e-09
1.42841e-09
1.4298e-09
1.42873e-09
1.42522e-09
1.41933e-09
1.4111e-09
1.4006e-09
1.38792e-09
1.37314e-09
1.35636e-09
1.33769e-09
1.31723e-09
1.29511e-09
1.27145e-09
1.24636e-09
1.21999e-09
1.19245e-09
1.16388e-09
1.1344e-09
1.10413e-09
1.0732e-09
1.04172e-09
1.00981e-09
9.77577e-10
9.45125e-10
9.12554e-10
8.79955e-10
8.47417e-10
8.1502e-10
7.82842e-10
7.50951e-10
7.19412e-10
6.88284e-10
6.57621e-10
6.27469e-10
5.97874e-10
5.68875e-10
5.40505e-10
5.12796e-10
4.85776e-10
4.59468e-10
4.33894e-10
4.09071e-10
3.85014e-10
3.61738e-10
3.39252e-10
3.17567e-10
2.96688e-10
2.76622e-10
2.57372e-10
2.3894e-10
2.21326e-10
2.0453e-10
1.88548e-10
1.73376e-10
1.59008e-10
1.45436e-10
1.32651e-10
1.20642e-10
1.09395e-10
9.88962e-11
8.91283e-11
8.0073e-11
7.17101e-11
6.40177e-11
5.69722e-11
5.05487e-11
4.47206e-11
3.94605e-11
3.47395e-11
3.05282e-11
2.67963e-11
2.35131e-11
2.06475e-11
1.81685e-11
1.60451e-11
1.42465e-11
1.27426e-11
1.15035e-11
1.05005e-11
9.70544e-12
9.09128e-12
8.63204e-12
8.30296e-12
8.08055e-12
7.94274e-12
7.86892e-12
7.84007e-12
7.83885e-12
7.84968e-12
7.85884e-12
7.85452e-12
7.8269e-12
7.76817e-12
7.67254e-12
7.53618e-12
7.35722e-12
7.13556e-12
6.87278e-12
6.57193e-12
6.2373e-12
5.87419e-12
5.48864e-12
5.08716e-12
4.67644e-12
4.26313e-12
3.85355e-12
3.45354e-12
3.06828e-12
2.70214e-12
2.35866e-12
2.04045e-12
1.74927e-12
1.486e-12
1.25078e-12
1.04306e-12
8.61723e-13
7.05229e-13
5.71695e-13
4.59029e-13
3.65031e-13
2.87478e-13
2.242e-13
1.73141e-13
1.32393e-13
1.00233e-13
7.51289e-14
5.57483e-14
4.09505e-14
2.9776e-14
2.14303e-14
1.52659e-14
1.07628e-14
7.50953e-15
5.18517e-15
3.54283e-15
2.39521e-15
1.60214e-15
1.06008e-15
6.93537e-16
4.48149e-16
2.8519e-16
1.77311e-16
1.05237e-16
5.52381e-17
1.71591e-17
3.37018e-14
1.01649e-13
1.71242e-13
2.43619e-13
3.1996e-13
4.01506e-13
4.8957e-13
5.85562e-13
6.91003e-13
8.0755e-13
9.37017e-13
1.08139e-12
1.24288e-12
1.42391e-12
1.62717e-12
1.85565e-12
2.11266e-12
2.4019e-12
2.72745e-12
3.09384e-12
3.50614e-12
3.96992e-12
4.49139e-12
5.07742e-12
5.73561e-12
6.47435e-12
7.30292e-12
8.23153e-12
9.27145e-12
1.04351e-11
1.17359e-11
1.3189e-11
1.48106e-11
1.66185e-11
1.86322e-11
2.08728e-11
2.33634e-11
2.6129e-11
2.91967e-11
3.25956e-11
3.63573e-11
4.05157e-11
4.51072e-11
5.01707e-11
5.57479e-11
6.18831e-11
6.86233e-11
7.60184e-11
8.41209e-11
9.29862e-11
1.02672e-10
1.1324e-10
1.24752e-10
1.37273e-10
1.50872e-10
1.65617e-10
1.81578e-10
1.98828e-10
2.17438e-10
2.37482e-10
2.59029e-10
2.82152e-10
3.06919e-10
3.33397e-10
3.61647e-10
3.91729e-10
4.23695e-10
4.57593e-10
4.93462e-10
5.31334e-10
5.71229e-10
6.1316e-10
6.57125e-10
7.03113e-10
7.51096e-10
8.01033e-10
8.52868e-10
9.06528e-10
9.61923e-10
1.01895e-09
1.07747e-09
1.13736e-09
1.19845e-09
1.26057e-09
1.32351e-09
1.38707e-09
1.45103e-09
1.51513e-09
1.57914e-09
1.64278e-09
1.70578e-09
1.76786e-09
1.82874e-09
1.88812e-09
1.94573e-09
2.00126e-09
2.05445e-09
2.10503e-09
2.15272e-09
2.19728e-09
2.23848e-09
2.2761e-09
2.30995e-09
2.33986e-09
2.36568e-09
2.38728e-09
2.40456e-09
2.41747e-09
2.42595e-09
2.42999e-09
2.4296e-09
2.42483e-09
2.41574e-09
2.40243e-09
2.385e-09
2.36359e-09
2.33837e-09
2.30951e-09
2.2772e-09
2.24164e-09
2.20306e-09
2.16168e-09
2.11774e-09
2.07146e-09
2.0231e-09
1.97289e-09
1.92108e-09
1.86789e-09
1.81357e-09
1.75832e-09
1.70237e-09
1.64592e-09
1.58918e-09
1.53232e-09
1.47552e-09
1.41895e-09
1.36275e-09
1.30706e-09
1.25202e-09
1.19773e-09
1.14429e-09
1.09181e-09
1.04037e-09
9.90033e-10
9.40865e-10
8.92921e-10