/*--------------------------------*- C++ -*----------------------------------*\
| =========                 |                                                 |
| \\      /  F ield         | OpenFOAM: The Open Source CFD Toolbox           |
|  \\    /   O peration     | Version:  v2012                                 |
|   \\  /    A nd           | Website:  www.openfoam.com                      |
|    \\/     M anipulation  |                                                 |
\*---------------------------------------------------------------------------*/
FoamFile
{
    version     2.0;
    format      ascii;
    class       volVectorField;
    location    "14.2";
    object      Psi;
}
// * * * * * * * * * * * * * * * * * * * * * * * * * * * * * * * * * * * * * //

dimensions      [0 2 -1 0 0 0 0];


internalField   nonuniform List<vector> 
65536
(
(0 0 8.63575e-06)
(0 0 2.59079e-05)
(0 0 4.31814e-05)
(0 0 6.04574e-05)
(0 0 7.77368e-05)
(0 0 9.50205e-05)
(0 0 0.00011231)
(0 0 0.000129605)
(0 0 0.000146907)
(0 0 0.000164217)
(0 0 0.000181536)
(0 0 0.000198865)
(0 0 0.000216204)
(0 0 0.000233555)
(0 0 0.000250917)
(0 0 0.000268293)
(0 0 0.000285681)
(0 0 0.000303084)
(0 0 0.000320501)
(0 0 0.000337933)
(0 0 0.000355381)
(0 0 0.000372844)
(0 0 0.000390324)
(0 0 0.00040782)
(0 0 0.000425333)
(0 0 0.000442864)
(0 0 0.000460411)
(0 0 0.000477975)
(0 0 0.000495556)
(0 0 0.000513153)
(0 0 0.000530767)
(0 0 0.000548398)
(0 0 0.000566043)
(0 0 0.000583704)
(0 0 0.00060138)
(0 0 0.000619069)
(0 0 0.000636771)
(0 0 0.000654484)
(0 0 0.000672209)
(0 0 0.000689943)
(0 0 0.000707685)
(0 0 0.000725433)
(0 0 0.000743187)
(0 0 0.000760944)
(0 0 0.000778702)
(0 0 0.00079646)
(0 0 0.000814214)
(0 0 0.000831964)
(0 0 0.000849705)
(0 0 0.000867436)
(0 0 0.000885154)
(0 0 0.000902856)
(0 0 0.000920538)
(0 0 0.000938197)
(0 0 0.00095583)
(0 0 0.000973432)
(0 0 0.000991001)
(0 0 0.00100853)
(0 0 0.00102602)
(0 0 0.00104346)
(0 0 0.00106085)
(0 0 0.00107819)
(0 0 0.00109546)
(0 0 0.00111267)
(0 0 0.00112981)
(0 0 0.00114687)
(0 0 0.00116384)
(0 0 0.00118073)
(0 0 0.00119753)
(0 0 0.00121422)
(0 0 0.0012308)
(0 0 0.00124727)
(0 0 0.00126363)
(0 0 0.00127985)
(0 0 0.00129594)
(0 0 0.00131189)
(0 0 0.00132768)
(0 0 0.00134333)
(0 0 0.00135881)
(0 0 0.00137411)
(0 0 0.00138924)
(0 0 0.00140418)
(0 0 0.00141892)
(0 0 0.00143347)
(0 0 0.0014478)
(0 0 0.00146191)
(0 0 0.00147579)
(0 0 0.00148944)
(0 0 0.00150284)
(0 0 0.00151599)
(0 0 0.00152888)
(0 0 0.0015415)
(0 0 0.00155385)
(0 0 0.00156591)
(0 0 0.00157768)
(0 0 0.00158914)
(0 0 0.0016003)
(0 0 0.00161114)
(0 0 0.00162166)
(0 0 0.00163185)
(0 0 0.0016417)
(0 0 0.00165121)
(0 0 0.00166036)
(0 0 0.00166915)
(0 0 0.00167758)
(0 0 0.00168564)
(0 0 0.00169332)
(0 0 0.00170062)
(0 0 0.00170753)
(0 0 0.00171405)
(0 0 0.00172017)
(0 0 0.00172589)
(0 0 0.00173121)
(0 0 0.00173611)
(0 0 0.0017406)
(0 0 0.00174468)
(0 0 0.00174834)
(0 0 0.00175157)
(0 0 0.00175439)
(0 0 0.00175678)
(0 0 0.00175874)
(0 0 0.00176028)
(0 0 0.00176139)
(0 0 0.00176207)
(0 0 0.00176233)
(0 0 0.00176216)
(0 0 0.00176157)
(0 0 0.00176056)
(0 0 0.00175912)
(0 0 0.00175727)
(0 0 0.001755)
(0 0 0.00175231)
(0 0 0.00174922)
(0 0 0.00174571)
(0 0 0.00174181)
(0 0 0.0017375)
(0 0 0.00173281)
(0 0 0.00172772)
(0 0 0.00172225)
(0 0 0.00171639)
(0 0 0.00171017)
(0 0 0.00170357)
(0 0 0.00169662)
(0 0 0.00168931)
(0 0 0.00168164)
(0 0 0.00167364)
(0 0 0.0016653)
(0 0 0.00165663)
(0 0 0.00164763)
(0 0 0.00163832)
(0 0 0.0016287)
(0 0 0.00161879)
(0 0 0.00160857)
(0 0 0.00159807)
(0 0 0.0015873)
(0 0 0.00157625)
(0 0 0.00156493)
(0 0 0.00155337)
(0 0 0.00154155)
(0 0 0.00152949)
(0 0 0.0015172)
(0 0 0.00150468)
(0 0 0.00149194)
(0 0 0.001479)
(0 0 0.00146585)
(0 0 0.0014525)
(0 0 0.00143896)
(0 0 0.00142524)
(0 0 0.00141135)
(0 0 0.00139729)
(0 0 0.00138306)
(0 0 0.00136869)
(0 0 0.00135416)
(0 0 0.0013395)
(0 0 0.00132469)
(0 0 0.00130976)
(0 0 0.00129471)
(0 0 0.00127954)
(0 0 0.00126426)
(0 0 0.00124888)
(0 0 0.00123339)
(0 0 0.00121782)
(0 0 0.00120215)
(0 0 0.0011864)
(0 0 0.00117057)
(0 0 0.00115467)
(0 0 0.0011387)
(0 0 0.00112266)
(0 0 0.00110656)
(0 0 0.00109041)
(0 0 0.00107421)
(0 0 0.00105795)
(0 0 0.00104166)
(0 0 0.00102532)
(0 0 0.00100895)
(0 0 0.000992541)
(0 0 0.000976103)
(0 0 0.000959639)
(0 0 0.00094315)
(0 0 0.00092664)
(0 0 0.000910111)
(0 0 0.000893566)
(0 0 0.000877007)
(0 0 0.000860437)
(0 0 0.000843857)
(0 0 0.000827271)
(0 0 0.000810679)
(0 0 0.000794084)
(0 0 0.000777488)
(0 0 0.000760891)
(0 0 0.000744296)
(0 0 0.000727704)
(0 0 0.000711116)
(0 0 0.000694534)
(0 0 0.000677958)
(0 0 0.00066139)
(0 0 0.00064483)
(0 0 0.00062828)
(0 0 0.00061174)
(0 0 0.000595211)
(0 0 0.000578694)
(0 0 0.000562188)
(0 0 0.000545695)
(0 0 0.000529215)
(0 0 0.000512748)
(0 0 0.000496295)
(0 0 0.000479855)
(0 0 0.000463429)
(0 0 0.000447016)
(0 0 0.000430617)
(0 0 0.000414233)
(0 0 0.000397861)
(0 0 0.000381504)
(0 0 0.000365159)
(0 0 0.000348828)
(0 0 0.000332509)
(0 0 0.000316203)
(0 0 0.000299909)
(0 0 0.000283627)
(0 0 0.000267356)
(0 0 0.000251095)
(0 0 0.000234845)
(0 0 0.000218605)
(0 0 0.000202374)
(0 0 0.000186151)
(0 0 0.000169937)
(0 0 0.00015373)
(0 0 0.000137529)
(0 0 0.000121335)
(0 0 0.000105146)
(0 0 8.89616e-05)
(0 0 7.27813e-05)
(0 0 5.66043e-05)
(0 0 4.04298e-05)
(0 0 2.42571e-05)
(0 0 8.0856e-06)
(0 0 2.5907e-05)
(0 0 7.77225e-05)
(0 0 0.000129542)
(0 0 0.00018137)
(0 0 0.000233207)
(0 0 0.000285057)
(0 0 0.000336923)
(0 0 0.000388808)
(0 0 0.000440714)
(0 0 0.000492644)
(0 0 0.000544601)
(0 0 0.000596587)
(0 0 0.000648604)
(0 0 0.000700655)
(0 0 0.000752742)
(0 0 0.000804867)
(0 0 0.000857032)
(0 0 0.000909239)
(0 0 0.00096149)
(0 0 0.00101379)
(0 0 0.00106613)
(0 0 0.00111852)
(0 0 0.00117096)
(0 0 0.00122345)
(0 0 0.00127599)
(0 0 0.00132858)
(0 0 0.00138122)
(0 0 0.00143391)
(0 0 0.00148665)
(0 0 0.00153945)
(0 0 0.00159229)
(0 0 0.00164518)
(0 0 0.00169812)
(0 0 0.0017511)
(0 0 0.00180413)
(0 0 0.0018572)
(0 0 0.0019103)
(0 0 0.00196345)
(0 0 0.00201662)
(0 0 0.00206982)
(0 0 0.00212305)
(0 0 0.0021763)
(0 0 0.00222956)
(0 0 0.00228284)
(0 0 0.00233611)
(0 0 0.00238939)
(0 0 0.00244265)
(0 0 0.0024959)
(0 0 0.00254913)
(0 0 0.00260233)
(0 0 0.00265548)
(0 0 0.00270859)
(0 0 0.00276164)
(0 0 0.00281462)
(0 0 0.00286752)
(0 0 0.00292034)
(0 0 0.00297305)
(0 0 0.00302564)
(0 0 0.00307812)
(0 0 0.00313045)
(0 0 0.00318262)
(0 0 0.00323463)
(0 0 0.00328646)
(0 0 0.00333809)
(0 0 0.0033895)
(0 0 0.00344069)
(0 0 0.00349162)
(0 0 0.00354229)
(0 0 0.00359268)
(0 0 0.00364277)
(0 0 0.00369253)
(0 0 0.00374195)
(0 0 0.00379101)
(0 0 0.00383969)
(0 0 0.00388796)
(0 0 0.00393581)
(0 0 0.00398322)
(0 0 0.00403015)
(0 0 0.00407659)
(0 0 0.00412252)
(0 0 0.00416791)
(0 0 0.00421274)
(0 0 0.00425698)
(0 0 0.00430061)
(0 0 0.00434361)
(0 0 0.00438595)
(0 0 0.00442761)
(0 0 0.00446856)
(0 0 0.00450878)
(0 0 0.00454824)
(0 0 0.00458692)
(0 0 0.00462479)
(0 0 0.00466183)
(0 0 0.00469802)
(0 0 0.00473333)
(0 0 0.00476774)
(0 0 0.00480122)
(0 0 0.00483376)
(0 0 0.00486532)
(0 0 0.00489589)
(0 0 0.00492545)
(0 0 0.00495397)
(0 0 0.00498143)
(0 0 0.00500782)
(0 0 0.00503312)
(0 0 0.0050573)
(0 0 0.00508035)
(0 0 0.00510225)
(0 0 0.00512299)
(0 0 0.00514255)
(0 0 0.00516092)
(0 0 0.00517808)
(0 0 0.00519403)
(0 0 0.00520875)
(0 0 0.00522222)
(0 0 0.00523445)
(0 0 0.00524543)
(0 0 0.00525514)
(0 0 0.00526358)
(0 0 0.00527075)
(0 0 0.00527664)
(0 0 0.00528126)
(0 0 0.00528459)
(0 0 0.00528664)
(0 0 0.00528742)
(0 0 0.00528692)
(0 0 0.00528514)
(0 0 0.00528209)
(0 0 0.00527778)
(0 0 0.00527222)
(0 0 0.0052654)
(0 0 0.00525734)
(0 0 0.00524805)
(0 0 0.00523754)
(0 0 0.00522582)
(0 0 0.00521291)
(0 0 0.00519881)
(0 0 0.00518354)
(0 0 0.00516711)
(0 0 0.00514955)
(0 0 0.00513087)
(0 0 0.00511108)
(0 0 0.00509021)
(0 0 0.00506826)
(0 0 0.00504527)
(0 0 0.00502125)
(0 0 0.00499622)
(0 0 0.0049702)
(0 0 0.00494321)
(0 0 0.00491527)
(0 0 0.00488641)
(0 0 0.00485665)
(0 0 0.004826)
(0 0 0.0047945)
(0 0 0.00476216)
(0 0 0.004729)
(0 0 0.00469506)
(0 0 0.00466034)
(0 0 0.00462488)
(0 0 0.0045887)
(0 0 0.00455181)
(0 0 0.00451425)
(0 0 0.00447604)
(0 0 0.00443719)
(0 0 0.00439773)
(0 0 0.00435768)
(0 0 0.00431706)
(0 0 0.0042759)
(0 0 0.00423421)
(0 0 0.00419202)
(0 0 0.00414934)
(0 0 0.0041062)
(0 0 0.00406262)
(0 0 0.00401861)
(0 0 0.0039742)
(0 0 0.00392941)
(0 0 0.00388424)
(0 0 0.00383873)
(0 0 0.00379289)
(0 0 0.00374673)
(0 0 0.00370027)
(0 0 0.00365353)
(0 0 0.00360652)
(0 0 0.00355927)
(0 0 0.00351178)
(0 0 0.00346406)
(0 0 0.00341614)
(0 0 0.00336803)
(0 0 0.00331974)
(0 0 0.00327128)
(0 0 0.00322266)
(0 0 0.0031739)
(0 0 0.00312501)
(0 0 0.00307599)
(0 0 0.00302687)
(0 0 0.00297765)
(0 0 0.00292833)
(0 0 0.00287893)
(0 0 0.00282947)
(0 0 0.00277993)
(0 0 0.00273034)
(0 0 0.00268071)
(0 0 0.00263103)
(0 0 0.00258131)
(0 0 0.00253157)
(0 0 0.00248181)
(0 0 0.00243204)
(0 0 0.00238225)
(0 0 0.00233246)
(0 0 0.00228267)
(0 0 0.00223288)
(0 0 0.0021831)
(0 0 0.00213334)
(0 0 0.00208359)
(0 0 0.00203386)
(0 0 0.00198416)
(0 0 0.00193448)
(0 0 0.00188483)
(0 0 0.00183521)
(0 0 0.00178562)
(0 0 0.00173607)
(0 0 0.00168655)
(0 0 0.00163707)
(0 0 0.00158763)
(0 0 0.00153823)
(0 0 0.00148887)
(0 0 0.00143955)
(0 0 0.00139027)
(0 0 0.00134103)
(0 0 0.00129184)
(0 0 0.00124268)
(0 0 0.00119357)
(0 0 0.0011445)
(0 0 0.00109546)
(0 0 0.00104647)
(0 0 0.000997513)
(0 0 0.000948596)
(0 0 0.000899714)
(0 0 0.000850867)
(0 0 0.000802055)
(0 0 0.000753274)
(0 0 0.000704525)
(0 0 0.000655805)
(0 0 0.000607112)
(0 0 0.000558445)
(0 0 0.000509802)
(0 0 0.000461181)
(0 0 0.000412581)
(0 0 0.000363999)
(0 0 0.000315432)
(0 0 0.00026688)
(0 0 0.00021834)
(0 0 0.00016981)
(0 0 0.000121287)
(0 0 7.27703e-05)
(0 0 2.42564e-05)
(0 0 4.31767e-05)
(0 0 0.000129533)
(0 0 0.000215896)
(0 0 0.000302272)
(0 0 0.000388664)
(0 0 0.000475078)
(0 0 0.000561519)
(0 0 0.00064799)
(0 0 0.000734498)
(0 0 0.000821045)
(0 0 0.000907636)
(0 0 0.000994276)
(0 0 0.00108097)
(0 0 0.00116772)
(0 0 0.00125453)
(0 0 0.0013414)
(0 0 0.00142834)
(0 0 0.00151535)
(0 0 0.00160243)
(0 0 0.00168959)
(0 0 0.00177683)
(0 0 0.00186414)
(0 0 0.00195154)
(0 0 0.00203902)
(0 0 0.00212659)
(0 0 0.00221424)
(0 0 0.00230197)
(0 0 0.0023898)
(0 0 0.0024777)
(0 0 0.00256569)
(0 0 0.00265376)
(0 0 0.00274192)
(0 0 0.00283015)
(0 0 0.00291846)
(0 0 0.00300684)
(0 0 0.00309529)
(0 0 0.0031838)
(0 0 0.00327238)
(0 0 0.00336101)
(0 0 0.00344968)
(0 0 0.0035384)
(0 0 0.00362715)
(0 0 0.00371593)
(0 0 0.00380472)
(0 0 0.00389352)
(0 0 0.00398232)
(0 0 0.00407111)
(0 0 0.00415987)
(0 0 0.00424859)
(0 0 0.00433726)
(0 0 0.00442586)
(0 0 0.00451439)
(0 0 0.00460281)
(0 0 0.00469113)
(0 0 0.00477931)
(0 0 0.00486734)
(0 0 0.00495521)
(0 0 0.00504288)
(0 0 0.00513035)
(0 0 0.00521758)
(0 0 0.00530456)
(0 0 0.00539126)
(0 0 0.00547766)
(0 0 0.00556372)
(0 0 0.00564943)
(0 0 0.00573476)
(0 0 0.00581967)
(0 0 0.00590414)
(0 0 0.00598814)
(0 0 0.00607163)
(0 0 0.00615459)
(0 0 0.00623699)
(0 0 0.00631877)
(0 0 0.00639993)
(0 0 0.00648041)
(0 0 0.00656018)
(0 0 0.00663921)
(0 0 0.00671746)
(0 0 0.00679489)
(0 0 0.00687147)
(0 0 0.00694714)
(0 0 0.00702188)
(0 0 0.00709564)
(0 0 0.00716839)
(0 0 0.00724008)
(0 0 0.00731068)
(0 0 0.00738014)
(0 0 0.00744841)
(0 0 0.00751547)
(0 0 0.00758126)
(0 0 0.00764576)
(0 0 0.00770891)
(0 0 0.00777067)
(0 0 0.00783101)
(0 0 0.00788989)
(0 0 0.00794726)
(0 0 0.00800309)
(0 0 0.00805734)
(0 0 0.00810997)
(0 0 0.00816095)
(0 0 0.00821023)
(0 0 0.00825779)
(0 0 0.00830359)
(0 0 0.00834759)
(0 0 0.00838977)
(0 0 0.00843009)
(0 0 0.00846852)
(0 0 0.00850504)
(0 0 0.00853963)
(0 0 0.00857224)
(0 0 0.00860287)
(0 0 0.00863149)
(0 0 0.00865808)
(0 0 0.00868262)
(0 0 0.00870509)
(0 0 0.00872548)
(0 0 0.00874378)
(0 0 0.00875997)
(0 0 0.00877405)
(0 0 0.008786)
(0 0 0.00879583)
(0 0 0.00880352)
(0 0 0.00880907)
(0 0 0.0088125)
(0 0 0.00881378)
(0 0 0.00881294)
(0 0 0.00880998)
(0 0 0.00880489)
(0 0 0.0087977)
(0 0 0.00878842)
(0 0 0.00877704)
(0 0 0.0087636)
(0 0 0.00874811)
(0 0 0.00873058)
(0 0 0.00871103)
(0 0 0.00868949)
(0 0 0.00866598)
(0 0 0.00864051)
(0 0 0.00861312)
(0 0 0.00858383)
(0 0 0.00855267)
(0 0 0.00851967)
(0 0 0.00848486)
(0 0 0.00844827)
(0 0 0.00840993)
(0 0 0.00836987)
(0 0 0.00832812)
(0 0 0.00828473)
(0 0 0.00823973)
(0 0 0.00819315)
(0 0 0.00814502)
(0 0 0.00809539)
(0 0 0.00804429)
(0 0 0.00799176)
(0 0 0.00793783)
(0 0 0.00788255)
(0 0 0.00782594)
(0 0 0.00776806)
(0 0 0.00770894)
(0 0 0.00764861)
(0 0 0.00758711)
(0 0 0.00752448)
(0 0 0.00746076)
(0 0 0.00739599)
(0 0 0.0073302)
(0 0 0.00726342)
(0 0 0.0071957)
(0 0 0.00712707)
(0 0 0.00705757)
(0 0 0.00698723)
(0 0 0.00691608)
(0 0 0.00684416)
(0 0 0.0067715)
(0 0 0.00669814)
(0 0 0.0066241)
(0 0 0.00654942)
(0 0 0.00647413)
(0 0 0.00639825)
(0 0 0.00632183)
(0 0 0.00624487)
(0 0 0.00616743)
(0 0 0.00608951)
(0 0 0.00601115)
(0 0 0.00593237)
(0 0 0.00585321)
(0 0 0.00577367)
(0 0 0.00569379)
(0 0 0.00561358)
(0 0 0.00553308)
(0 0 0.0054523)
(0 0 0.00537126)
(0 0 0.00528998)
(0 0 0.00520848)
(0 0 0.00512678)
(0 0 0.00504489)
(0 0 0.00496284)
(0 0 0.00488064)
(0 0 0.0047983)
(0 0 0.00471585)
(0 0 0.00463328)
(0 0 0.00455062)
(0 0 0.00446789)
(0 0 0.00438508)
(0 0 0.00430222)
(0 0 0.00421931)
(0 0 0.00413637)
(0 0 0.0040534)
(0 0 0.00397042)
(0 0 0.00388743)
(0 0 0.00380444)
(0 0 0.00372146)
(0 0 0.00363849)
(0 0 0.00355554)
(0 0 0.00347263)
(0 0 0.00338974)
(0 0 0.0033069)
(0 0 0.0032241)
(0 0 0.00314134)
(0 0 0.00305864)
(0 0 0.00297599)
(0 0 0.0028934)
(0 0 0.00281087)
(0 0 0.00272841)
(0 0 0.002646)
(0 0 0.00256367)
(0 0 0.0024814)
(0 0 0.0023992)
(0 0 0.00231707)
(0 0 0.00223501)
(0 0 0.00215301)
(0 0 0.00207109)
(0 0 0.00198923)
(0 0 0.00190745)
(0 0 0.00182573)
(0 0 0.00174407)
(0 0 0.00166248)
(0 0 0.00158095)
(0 0 0.00149948)
(0 0 0.00141807)
(0 0 0.00133672)
(0 0 0.00125542)
(0 0 0.00117418)
(0 0 0.00109298)
(0 0 0.00101182)
(0 0 0.000930715)
(0 0 0.000849645)
(0 0 0.000768613)
(0 0 0.000687614)
(0 0 0.000606646)
(0 0 0.000525705)
(0 0 0.000444787)
(0 0 0.000363889)
(0 0 0.000283008)
(0 0 0.00020214)
(0 0 0.00012128)
(0 0 4.04261e-05)
(0 0 6.04441e-05)
(0 0 0.000181336)
(0 0 0.000302237)
(0 0 0.000423156)
(0 0 0.000544099)
(0 0 0.000665072)
(0 0 0.000786083)
(0 0 0.000907137)
(0 0 0.00102824)
(0 0 0.0011494)
(0 0 0.00127062)
(0 0 0.00139191)
(0 0 0.00151328)
(0 0 0.00163472)
(0 0 0.00175625)
(0 0 0.00187787)
(0 0 0.00199958)
(0 0 0.00212139)
(0 0 0.0022433)
(0 0 0.00236532)
(0 0 0.00248745)
(0 0 0.00260969)
(0 0 0.00273204)
(0 0 0.00285452)
(0 0 0.00297711)
(0 0 0.00309982)
(0 0 0.00322265)
(0 0 0.00334559)
(0 0 0.00346866)
(0 0 0.00359185)
(0 0 0.00371516)
(0 0 0.00383857)
(0 0 0.0039621)
(0 0 0.00408574)
(0 0 0.00420948)
(0 0 0.00433331)
(0 0 0.00445724)
(0 0 0.00458125)
(0 0 0.00470534)
(0 0 0.0048295)
(0 0 0.00495371)
(0 0 0.00507798)
(0 0 0.00520228)
(0 0 0.0053266)
(0 0 0.00545094)
(0 0 0.00557527)
(0 0 0.00569959)
(0 0 0.00582387)
(0 0 0.0059481)
(0 0 0.00607225)
(0 0 0.00619632)
(0 0 0.00632027)
(0 0 0.0064441)
(0 0 0.00656776)
(0 0 0.00669124)
(0 0 0.00681451)
(0 0 0.00693755)
(0 0 0.00706033)
(0 0 0.00718281)
(0 0 0.00730497)
(0 0 0.00742678)
(0 0 0.00754819)
(0 0 0.00766918)
(0 0 0.00778971)
(0 0 0.00790974)
(0 0 0.00802924)
(0 0 0.00814816)
(0 0 0.00826646)
(0 0 0.0083841)
(0 0 0.00850104)
(0 0 0.00861723)
(0 0 0.00873262)
(0 0 0.00884718)
(0 0 0.00896084)
(0 0 0.00907356)
(0 0 0.0091853)
(0 0 0.00929599)
(0 0 0.00940559)
(0 0 0.00951405)
(0 0 0.00962131)
(0 0 0.00972731)
(0 0 0.009832)
(0 0 0.00993532)
(0 0 0.0100372)
(0 0 0.0101377)
(0 0 0.0102365)
(0 0 0.0103338)
(0 0 0.0104295)
(0 0 0.0105234)
(0 0 0.0106156)
(0 0 0.0107059)
(0 0 0.0107944)
(0 0 0.0108809)
(0 0 0.0109655)
(0 0 0.011048)
(0 0 0.0111283)
(0 0 0.0112065)
(0 0 0.0112825)
(0 0 0.0113563)
(0 0 0.0114277)
(0 0 0.0114967)
(0 0 0.0115634)
(0 0 0.0116275)
(0 0 0.0116892)
(0 0 0.0117483)
(0 0 0.0118048)
(0 0 0.0118586)
(0 0 0.0119098)
(0 0 0.0119582)
(0 0 0.0120039)
(0 0 0.0120468)
(0 0 0.0120869)
(0 0 0.0121242)
(0 0 0.0121586)
(0 0 0.01219)
(0 0 0.0122186)
(0 0 0.0122442)
(0 0 0.0122669)
(0 0 0.0122866)
(0 0 0.0123034)
(0 0 0.0123171)
(0 0 0.0123279)
(0 0 0.0123357)
(0 0 0.0123405)
(0 0 0.0123423)
(0 0 0.0123411)
(0 0 0.0123369)
(0 0 0.0123298)
(0 0 0.0123197)
(0 0 0.0123067)
(0 0 0.0122908)
(0 0 0.0122719)
(0 0 0.0122502)
(0 0 0.0122256)
(0 0 0.0121982)
(0 0 0.012168)
(0 0 0.0121351)
(0 0 0.0120994)
(0 0 0.012061)
(0 0 0.01202)
(0 0 0.0119763)
(0 0 0.0119301)
(0 0 0.0118813)
(0 0 0.01183)
(0 0 0.0117763)
(0 0 0.0117202)
(0 0 0.0116617)
(0 0 0.0116009)
(0 0 0.0115378)
(0 0 0.0114726)
(0 0 0.0114051)
(0 0 0.0113356)
(0 0 0.011264)
(0 0 0.0111904)
(0 0 0.0111149)
(0 0 0.0110374)
(0 0 0.0109581)
(0 0 0.010877)
(0 0 0.0107942)
(0 0 0.0107097)
(0 0 0.0106235)
(0 0 0.0105358)
(0 0 0.0104465)
(0 0 0.0103558)
(0 0 0.0102637)
(0 0 0.0101701)
(0 0 0.0100753)
(0 0 0.00997913)
(0 0 0.00988178)
(0 0 0.00978325)
(0 0 0.00968359)
(0 0 0.00958286)
(0 0 0.00948109)
(0 0 0.00937834)
(0 0 0.00927464)
(0 0 0.00917004)
(0 0 0.00906459)
(0 0 0.00895833)
(0 0 0.00885129)
(0 0 0.00874352)
(0 0 0.00863506)
(0 0 0.00852594)
(0 0 0.0084162)
(0 0 0.00830587)
(0 0 0.008195)
(0 0 0.00808362)
(0 0 0.00797175)
(0 0 0.00785944)
(0 0 0.0077467)
(0 0 0.00763358)
(0 0 0.00752009)
(0 0 0.00740628)
(0 0 0.00729215)
(0 0 0.00717775)
(0 0 0.00706309)
(0 0 0.00694819)
(0 0 0.00683309)
(0 0 0.0067178)
(0 0 0.00660233)
(0 0 0.00648673)
(0 0 0.00637099)
(0 0 0.00625514)
(0 0 0.00613919)
(0 0 0.00602317)
(0 0 0.00590709)
(0 0 0.00579095)
(0 0 0.00567479)
(0 0 0.0055586)
(0 0 0.0054424)
(0 0 0.0053262)
(0 0 0.00521002)
(0 0 0.00509385)
(0 0 0.00497772)
(0 0 0.00486163)
(0 0 0.00474559)
(0 0 0.0046296)
(0 0 0.00451367)
(0 0 0.00439781)
(0 0 0.00428202)
(0 0 0.00416631)
(0 0 0.00405068)
(0 0 0.00393513)
(0 0 0.00381968)
(0 0 0.00370431)
(0 0 0.00358904)
(0 0 0.00347386)
(0 0 0.00335878)
(0 0 0.0032438)
(0 0 0.00312891)
(0 0 0.00301412)
(0 0 0.00289943)
(0 0 0.00278483)
(0 0 0.00267033)
(0 0 0.00255593)
(0 0 0.00244161)
(0 0 0.00232739)
(0 0 0.00221325)
(0 0 0.0020992)
(0 0 0.00198523)
(0 0 0.00187133)
(0 0 0.00175752)
(0 0 0.00164378)
(0 0 0.0015301)
(0 0 0.00141649)
(0 0 0.00130294)
(0 0 0.00118945)
(0 0 0.00107601)
(0 0 0.000962618)
(0 0 0.000849267)
(0 0 0.000735954)
(0 0 0.000622674)
(0 0 0.000509422)
(0 0 0.000396193)
(0 0 0.000282982)
(0 0 0.000169784)
(0 0 5.6594e-05)
(0 0 7.77079e-05)
(0 0 0.000233128)
(0 0 0.000388562)
(0 0 0.000544017)
(0 0 0.000699504)
(0 0 0.000855029)
(0 0 0.0010106)
(0 0 0.00116623)
(0 0 0.00132193)
(0 0 0.00147769)
(0 0 0.00163354)
(0 0 0.00178948)
(0 0 0.00194551)
(0 0 0.00210164)
(0 0 0.00225788)
(0 0 0.00241424)
(0 0 0.00257072)
(0 0 0.00272732)
(0 0 0.00288406)
(0 0 0.00304094)
(0 0 0.00319795)
(0 0 0.00335512)
(0 0 0.00351243)
(0 0 0.00366989)
(0 0 0.0038275)
(0 0 0.00398527)
(0 0 0.00414319)
(0 0 0.00430127)
(0 0 0.00445951)
(0 0 0.00461789)
(0 0 0.00477643)
(0 0 0.00493512)
(0 0 0.00509395)
(0 0 0.00525291)
(0 0 0.00541202)
(0 0 0.00557124)
(0 0 0.00573059)
(0 0 0.00589005)
(0 0 0.00604961)
(0 0 0.00620925)
(0 0 0.00636897)
(0 0 0.00652876)
(0 0 0.0066886)
(0 0 0.00684847)
(0 0 0.00700835)
(0 0 0.00716824)
(0 0 0.0073281)
(0 0 0.00748792)
(0 0 0.00764767)
(0 0 0.00780734)
(0 0 0.00796689)
(0 0 0.0081263)
(0 0 0.00828553)
(0 0 0.00844457)
(0 0 0.00860338)
(0 0 0.00876192)
(0 0 0.00892016)
(0 0 0.00907807)
(0 0 0.0092356)
(0 0 0.00939272)
(0 0 0.00954938)
(0 0 0.00970554)
(0 0 0.00986116)
(0 0 0.0100162)
(0 0 0.0101706)
(0 0 0.0103243)
(0 0 0.0104773)
(0 0 0.0106294)
(0 0 0.0107808)
(0 0 0.0109312)
(0 0 0.0110807)
(0 0 0.0112291)
(0 0 0.0113765)
(0 0 0.0115227)
(0 0 0.0116677)
(0 0 0.0118115)
(0 0 0.0119539)
(0 0 0.0120949)
(0 0 0.0122344)
(0 0 0.0123724)
(0 0 0.0125088)
(0 0 0.0126435)
(0 0 0.0127764)
(0 0 0.0129075)
(0 0 0.0130368)
(0 0 0.013164)
(0 0 0.0132892)
(0 0 0.0134123)
(0 0 0.0135331)
(0 0 0.0136517)
(0 0 0.013768)
(0 0 0.0138818)
(0 0 0.0139932)
(0 0 0.014102)
(0 0 0.0142081)
(0 0 0.0143116)
(0 0 0.0144122)
(0 0 0.01451)
(0 0 0.0146049)
(0 0 0.0146968)
(0 0 0.0147857)
(0 0 0.0148714)
(0 0 0.014954)
(0 0 0.0150333)
(0 0 0.0151094)
(0 0 0.0151821)
(0 0 0.0152514)
(0 0 0.0153172)
(0 0 0.0153796)
(0 0 0.0154384)
(0 0 0.0154936)
(0 0 0.0155452)
(0 0 0.0155932)
(0 0 0.0156374)
(0 0 0.0156779)
(0 0 0.0157147)
(0 0 0.0157477)
(0 0 0.0157768)
(0 0 0.0158022)
(0 0 0.0158238)
(0 0 0.0158415)
(0 0 0.0158553)
(0 0 0.0158653)
(0 0 0.0158715)
(0 0 0.0158738)
(0 0 0.0158722)
(0 0 0.0158669)
(0 0 0.0158577)
(0 0 0.0158447)
(0 0 0.0158279)
(0 0 0.0158074)
(0 0 0.0157831)
(0 0 0.0157552)
(0 0 0.0157235)
(0 0 0.0156882)
(0 0 0.0156494)
(0 0 0.0156069)
(0 0 0.015561)
(0 0 0.0155116)
(0 0 0.0154588)
(0 0 0.0154026)
(0 0 0.015343)
(0 0 0.0152802)
(0 0 0.0152142)
(0 0 0.0151451)
(0 0 0.0150728)
(0 0 0.0149976)
(0 0 0.0149193)
(0 0 0.0148381)
(0 0 0.0147541)
(0 0 0.0146674)
(0 0 0.0145779)
(0 0 0.0144857)
(0 0 0.014391)
(0 0 0.0142938)
(0 0 0.0141941)
(0 0 0.0140921)
(0 0 0.0139877)
(0 0 0.0138812)
(0 0 0.0137724)
(0 0 0.0136615)
(0 0 0.0135487)
(0 0 0.0134338)
(0 0 0.0133171)
(0 0 0.0131985)
(0 0 0.0130781)
(0 0 0.0129561)
(0 0 0.0128324)
(0 0 0.0127072)
(0 0 0.0125804)
(0 0 0.0124522)
(0 0 0.0123226)
(0 0 0.0121917)
(0 0 0.0120595)
(0 0 0.0119261)
(0 0 0.0117915)
(0 0 0.0116559)
(0 0 0.0115192)
(0 0 0.0113815)
(0 0 0.0112429)
(0 0 0.0111033)
(0 0 0.010963)
(0 0 0.0108218)
(0 0 0.0106799)
(0 0 0.0105373)
(0 0 0.0103941)
(0 0 0.0102502)
(0 0 0.0101057)
(0 0 0.00996072)
(0 0 0.00981522)
(0 0 0.00966927)
(0 0 0.00952289)
(0 0 0.00937611)
(0 0 0.00922898)
(0 0 0.00908151)
(0 0 0.00893375)
(0 0 0.00878573)
(0 0 0.00863746)
(0 0 0.00848897)
(0 0 0.0083403)
(0 0 0.00819146)
(0 0 0.00804248)
(0 0 0.00789339)
(0 0 0.00774419)
(0 0 0.00759491)
(0 0 0.00744558)
(0 0 0.00729619)
(0 0 0.00714679)
(0 0 0.00699737)
(0 0 0.00684795)
(0 0 0.00669856)
(0 0 0.00654919)
(0 0 0.00639986)
(0 0 0.00625059)
(0 0 0.00610138)
(0 0 0.00595224)
(0 0 0.00580317)
(0 0 0.0056542)
(0 0 0.00550532)
(0 0 0.00535654)
(0 0 0.00520787)
(0 0 0.00505931)
(0 0 0.00491086)
(0 0 0.00476253)
(0 0 0.00461432)
(0 0 0.00446623)
(0 0 0.00431827)
(0 0 0.00417043)
(0 0 0.00402272)
(0 0 0.00387513)
(0 0 0.00372767)
(0 0 0.00358034)
(0 0 0.00343312)
(0 0 0.00328603)
(0 0 0.00313906)
(0 0 0.0029922)
(0 0 0.00284546)
(0 0 0.00269883)
(0 0 0.0025523)
(0 0 0.00240587)
(0 0 0.00225955)
(0 0 0.00211331)
(0 0 0.00196717)
(0 0 0.0018211)
(0 0 0.00167512)
(0 0 0.00152921)
(0 0 0.00138336)
(0 0 0.00123758)
(0 0 0.00109185)
(0 0 0.00094617)
(0 0 0.000800533)
(0 0 0.000654932)
(0 0 0.000509361)
(0 0 0.000363813)
(0 0 0.000218281)
(0 0 7.27593e-05)
(0 0 9.49673e-05)
(0 0 0.000284907)
(0 0 0.000474864)
(0 0 0.000664847)
(0 0 0.000854868)
(0 0 0.00104494)
(0 0 0.00123507)
(0 0 0.00142526)
(0 0 0.00161554)
(0 0 0.00180591)
(0 0 0.00199637)
(0 0 0.00218694)
(0 0 0.00237763)
(0 0 0.00256845)
(0 0 0.0027594)
(0 0 0.00295049)
(0 0 0.00314173)
(0 0 0.00333312)
(0 0 0.00352468)
(0 0 0.00371641)
(0 0 0.00390831)
(0 0 0.00410039)
(0 0 0.00429266)
(0 0 0.00448511)
(0 0 0.00467774)
(0 0 0.00487057)
(0 0 0.00506359)
(0 0 0.0052568)
(0 0 0.0054502)
(0 0 0.00564378)
(0 0 0.00583756)
(0 0 0.00603152)
(0 0 0.00622565)
(0 0 0.00641996)
(0 0 0.00661443)
(0 0 0.00680906)
(0 0 0.00700383)
(0 0 0.00719874)
(0 0 0.00739378)
(0 0 0.00758893)
(0 0 0.00778417)
(0 0 0.0079795)
(0 0 0.00817488)
(0 0 0.00837031)
(0 0 0.00856577)
(0 0 0.00876122)
(0 0 0.00895665)
(0 0 0.00915203)
(0 0 0.00934734)
(0 0 0.00954253)
(0 0 0.0097376)
(0 0 0.00993249)
(0 0 0.0101272)
(0 0 0.0103216)
(0 0 0.0105158)
(0 0 0.0107096)
(0 0 0.0109031)
(0 0 0.0110962)
(0 0 0.0112888)
(0 0 0.0114809)
(0 0 0.0116725)
(0 0 0.0118634)
(0 0 0.0120537)
(0 0 0.0122433)
(0 0 0.0124321)
(0 0 0.0126201)
(0 0 0.0128072)
(0 0 0.0129933)
(0 0 0.0131783)
(0 0 0.0133623)
(0 0 0.0135451)
(0 0 0.0137267)
(0 0 0.0139069)
(0 0 0.0140857)
(0 0 0.0142631)
(0 0 0.0144389)
(0 0 0.0146131)
(0 0 0.0147856)
(0 0 0.0149563)
(0 0 0.0151251)
(0 0 0.0152919)
(0 0 0.0154567)
(0 0 0.0156194)
(0 0 0.0157798)
(0 0 0.0159378)
(0 0 0.0160935)
(0 0 0.0162467)
(0 0 0.0163972)
(0 0 0.0165451)
(0 0 0.0166902)
(0 0 0.0168325)
(0 0 0.0169718)
(0 0 0.017108)
(0 0 0.0172411)
(0 0 0.017371)
(0 0 0.0174976)
(0 0 0.0176207)
(0 0 0.0177404)
(0 0 0.0178565)
(0 0 0.017969)
(0 0 0.0180777)
(0 0 0.0181826)
(0 0 0.0182837)
(0 0 0.0183808)
(0 0 0.0184738)
(0 0 0.0185628)
(0 0 0.0186476)
(0 0 0.0187282)
(0 0 0.0188045)
(0 0 0.0188764)
(0 0 0.018944)
(0 0 0.0190072)
(0 0 0.0190658)
(0 0 0.01912)
(0 0 0.0191695)
(0 0 0.0192145)
(0 0 0.0192549)
(0 0 0.0192906)
(0 0 0.0193216)
(0 0 0.019348)
(0 0 0.0193696)
(0 0 0.0193865)
(0 0 0.0193988)
(0 0 0.0194063)
(0 0 0.0194091)
(0 0 0.0194072)
(0 0 0.0194006)
(0 0 0.0193893)
(0 0 0.0193734)
(0 0 0.0193529)
(0 0 0.0193277)
(0 0 0.019298)
(0 0 0.0192638)
(0 0 0.019225)
(0 0 0.0191818)
(0 0 0.0191343)
(0 0 0.0190823)
(0 0 0.0190261)
(0 0 0.0189656)
(0 0 0.0189009)
(0 0 0.0188321)
(0 0 0.0187592)
(0 0 0.0186824)
(0 0 0.0186016)
(0 0 0.018517)
(0 0 0.0184285)
(0 0 0.0183364)
(0 0 0.0182406)
(0 0 0.0181413)
(0 0 0.0180385)
(0 0 0.0179323)
(0 0 0.0178228)
(0 0 0.01771)
(0 0 0.0175941)
(0 0 0.0174752)
(0 0 0.0173532)
(0 0 0.0172284)
(0 0 0.0171007)
(0 0 0.0169703)
(0 0 0.0168372)
(0 0 0.0167016)
(0 0 0.0165635)
(0 0 0.016423)
(0 0 0.0162801)
(0 0 0.0161351)
(0 0 0.0159879)
(0 0 0.0158386)
(0 0 0.0156873)
(0 0 0.0155341)
(0 0 0.015379)
(0 0 0.0152222)
(0 0 0.0150637)
(0 0 0.0149035)
(0 0 0.0147418)
(0 0 0.0145787)
(0 0 0.0144141)
(0 0 0.0142482)
(0 0 0.014081)
(0 0 0.0139126)
(0 0 0.0137431)
(0 0 0.0135725)
(0 0 0.0134008)
(0 0 0.0132282)
(0 0 0.0130547)
(0 0 0.0128803)
(0 0 0.0127051)
(0 0 0.0125292)
(0 0 0.0123525)
(0 0 0.0121752)
(0 0 0.0119973)
(0 0 0.0118189)
(0 0 0.0116399)
(0 0 0.0114604)
(0 0 0.0112805)
(0 0 0.0111002)
(0 0 0.0109196)
(0 0 0.0107386)
(0 0 0.0105573)
(0 0 0.0103758)
(0 0 0.010194)
(0 0 0.0100121)
(0 0 0.00982995)
(0 0 0.00964768)
(0 0 0.00946529)
(0 0 0.0092828)
(0 0 0.00910024)
(0 0 0.00891763)
(0 0 0.00873499)
(0 0 0.00855234)
(0 0 0.00836969)
(0 0 0.00818707)
(0 0 0.00800448)
(0 0 0.00782195)
(0 0 0.00763949)
(0 0 0.0074571)
(0 0 0.0072748)
(0 0 0.0070926)
(0 0 0.0069105)
(0 0 0.00672853)
(0 0 0.00654667)
(0 0 0.00636495)
(0 0 0.00618337)
(0 0 0.00600192)
(0 0 0.00582063)
(0 0 0.00563948)
(0 0 0.00545848)
(0 0 0.00527763)
(0 0 0.00509694)
(0 0 0.0049164)
(0 0 0.00473602)
(0 0 0.0045558)
(0 0 0.00437572)
(0 0 0.0041958)
(0 0 0.00401602)
(0 0 0.00383639)
(0 0 0.00365691)
(0 0 0.00347756)
(0 0 0.00329835)
(0 0 0.00311927)
(0 0 0.00294031)
(0 0 0.00276148)
(0 0 0.00258276)
(0 0 0.00240414)
(0 0 0.00222563)
(0 0 0.00204722)
(0 0 0.0018689)
(0 0 0.00169065)
(0 0 0.00151248)
(0 0 0.00133438)
(0 0 0.00115634)
(0 0 0.000978356)
(0 0 0.000800412)
(0 0 0.000622505)
(0 0 0.000444626)
(0 0 0.000266768)
(0 0 8.89212e-05)
(0 0 0.000112221)
(0 0 0.00033667)
(0 0 0.000561139)
(0 0 0.000785639)
(0 0 0.00101018)
(0 0 0.00123479)
(0 0 0.00145946)
(0 0 0.00168421)
(0 0 0.00190906)
(0 0 0.00213402)
(0 0 0.00235909)
(0 0 0.00258429)
(0 0 0.00280963)
(0 0 0.00303512)
(0 0 0.00326077)
(0 0 0.00348659)
(0 0 0.00371258)
(0 0 0.00393876)
(0 0 0.00416514)
(0 0 0.00439171)
(0 0 0.00461849)
(0 0 0.00484549)
(0 0 0.0050727)
(0 0 0.00530013)
(0 0 0.00552779)
(0 0 0.00575568)
(0 0 0.00598379)
(0 0 0.00621213)
(0 0 0.0064407)
(0 0 0.00666949)
(0 0 0.0068985)
(0 0 0.00712774)
(0 0 0.00735718)
(0 0 0.00758683)
(0 0 0.00781668)
(0 0 0.00804672)
(0 0 0.00827693)
(0 0 0.00850731)
(0 0 0.00873784)
(0 0 0.00896851)
(0 0 0.00919929)
(0 0 0.00943017)
(0 0 0.00966113)
(0 0 0.00989214)
(0 0 0.0101232)
(0 0 0.0103542)
(0 0 0.0105853)
(0 0 0.0108162)
(0 0 0.0110471)
(0 0 0.0112779)
(0 0 0.0115085)
(0 0 0.0117389)
(0 0 0.011969)
(0 0 0.0121989)
(0 0 0.0124285)
(0 0 0.0126577)
(0 0 0.0128865)
(0 0 0.0131147)
(0 0 0.0133425)
(0 0 0.0135697)
(0 0 0.0137962)
(0 0 0.014022)
(0 0 0.014247)
(0 0 0.0144712)
(0 0 0.0146945)
(0 0 0.0149168)
(0 0 0.015138)
(0 0 0.0153581)
(0 0 0.015577)
(0 0 0.0157946)
(0 0 0.0160108)
(0 0 0.0162255)
(0 0 0.0164387)
(0 0 0.0166503)
(0 0 0.0168601)
(0 0 0.0170681)
(0 0 0.0172741)
(0 0 0.0174782)
(0 0 0.0176801)
(0 0 0.0178798)
(0 0 0.0180772)
(0 0 0.0182721)
(0 0 0.0184645)
(0 0 0.0186543)
(0 0 0.0188413)
(0 0 0.0190255)
(0 0 0.0192067)
(0 0 0.0193849)
(0 0 0.0195599)
(0 0 0.0197316)
(0 0 0.0198999)
(0 0 0.0200648)
(0 0 0.020226)
(0 0 0.0203835)
(0 0 0.0205372)
(0 0 0.020687)
(0 0 0.0208327)
(0 0 0.0209744)
(0 0 0.0211118)
(0 0 0.0212449)
(0 0 0.0213736)
(0 0 0.0214977)
(0 0 0.0216173)
(0 0 0.0217322)
(0 0 0.0218424)
(0 0 0.0219477)
(0 0 0.022048)
(0 0 0.0221434)
(0 0 0.0222337)
(0 0 0.0223189)
(0 0 0.0223989)
(0 0 0.0224736)
(0 0 0.022543)
(0 0 0.0226071)
(0 0 0.0226657)
(0 0 0.022719)
(0 0 0.0227667)
(0 0 0.022809)
(0 0 0.0228457)
(0 0 0.0228769)
(0 0 0.0229025)
(0 0 0.0229225)
(0 0 0.0229369)
(0 0 0.0229458)
(0 0 0.0229491)
(0 0 0.0229468)
(0 0 0.022939)
(0 0 0.0229256)
(0 0 0.0229068)
(0 0 0.0228824)
(0 0 0.0228526)
(0 0 0.0228174)
(0 0 0.0227769)
(0 0 0.022731)
(0 0 0.0226799)
(0 0 0.0226235)
(0 0 0.022562)
(0 0 0.0224954)
(0 0 0.0224238)
(0 0 0.0223472)
(0 0 0.0222657)
(0 0 0.0221795)
(0 0 0.0220885)
(0 0 0.0219928)
(0 0 0.0218926)
(0 0 0.0217879)
(0 0 0.0216789)
(0 0 0.0215655)
(0 0 0.0214479)
(0 0 0.0213263)
(0 0 0.0212006)
(0 0 0.0210709)
(0 0 0.0209375)
(0 0 0.0208003)
(0 0 0.0206595)
(0 0 0.0205152)
(0 0 0.0203675)
(0 0 0.0202164)
(0 0 0.020062)
(0 0 0.0199046)
(0 0 0.0197441)
(0 0 0.0195807)
(0 0 0.0194145)
(0 0 0.0192455)
(0 0 0.0190738)
(0 0 0.0188997)
(0 0 0.018723)
(0 0 0.018544)
(0 0 0.0183628)
(0 0 0.0181794)
(0 0 0.0179938)
(0 0 0.0178063)
(0 0 0.0176169)
(0 0 0.0174257)
(0 0 0.0172327)
(0 0 0.017038)
(0 0 0.0168418)
(0 0 0.0166441)
(0 0 0.0164449)
(0 0 0.0162444)
(0 0 0.0160426)
(0 0 0.0158396)
(0 0 0.0156355)
(0 0 0.0154303)
(0 0 0.0152241)
(0 0 0.0150169)
(0 0 0.0148089)
(0 0 0.0146)
(0 0 0.0143904)
(0 0 0.01418)
(0 0 0.013969)
(0 0 0.0137574)
(0 0 0.0135452)
(0 0 0.0133325)
(0 0 0.0131193)
(0 0 0.0129057)
(0 0 0.0126918)
(0 0 0.0124775)
(0 0 0.0122629)
(0 0 0.012048)
(0 0 0.0118329)
(0 0 0.0116176)
(0 0 0.0114021)
(0 0 0.0111865)
(0 0 0.0109708)
(0 0 0.010755)
(0 0 0.0105391)