/*--------------------------------*- C++ -*----------------------------------*\
| =========                 |                                                 |
| \\      /  F ield         | OpenFOAM: The Open Source CFD Toolbox           |
|  \\    /   O peration     | Version:  v2012                                 |
|   \\  /    A nd           | Website:  www.openfoam.com                      |
|    \\/     M anipulation  |                                                 |
\*---------------------------------------------------------------------------*/
FoamFile
{
    version     2.0;
    format      ascii;
    class       volScalarField;
    location    "14.2";
    object      W;
}
// * * * * * * * * * * * * * * * * * * * * * * * * * * * * * * * * * * * * * //

dimensions      [0 0 -1 0 0 0 0];


internalField   nonuniform List<scalar> 
65536
(
1.05751e-16
3.18777e-16
5.36418e-16
7.61863e-16
9.98414e-16
1.24952e-15
1.51881e-15
1.81016e-15
2.1277e-15
2.47591e-15
2.85967e-15
3.28425e-15
3.75548e-15
4.2797e-15
4.86394e-15
5.51589e-15
6.24406e-15
7.05783e-15
7.96756e-15
8.98466e-15
1.01218e-14
1.13927e-14
1.28129e-14
1.43993e-14
1.61703e-14
1.81466e-14
2.03505e-14
2.28068e-14
2.55425e-14
2.85875e-14
3.19741e-14
3.57379e-14
3.99177e-14
4.45559e-14
4.96984e-14
5.53955e-14
6.17017e-14
6.86759e-14
7.63821e-14
8.48895e-14
9.42728e-14
1.04612e-13
1.15995e-13
1.28513e-13
1.42268e-13
1.57364e-13
1.73917e-13
1.92048e-13
2.11887e-13
2.3357e-13
2.57243e-13
2.8306e-13
3.11182e-13
3.41781e-13
3.75035e-13
4.11131e-13
4.50264e-13
4.92636e-13
5.38459e-13
5.87949e-13
6.41331e-13
6.98833e-13
7.60691e-13
8.27142e-13
8.98429e-13
9.74795e-13
1.05648e-12
1.14374e-12
1.2368e-12
1.3359e-12
1.44127e-12
1.55314e-12
1.67171e-12
1.79719e-12
1.92975e-12
2.06957e-12
2.21679e-12
2.37153e-12
2.5339e-12
2.70397e-12
2.88178e-12
3.06733e-12
3.26062e-12
3.46156e-12
3.67006e-12
3.88599e-12
4.10915e-12
4.33931e-12
4.5762e-12
4.81951e-12
5.06886e-12
5.32384e-12
5.58399e-12
5.8488e-12
6.11773e-12
6.39017e-12
6.6655e-12
6.94304e-12
7.22209e-12
7.50189e-12
7.78168e-12
8.06067e-12
8.33803e-12
8.61293e-12
8.88453e-12
9.15196e-12
9.41439e-12
9.67096e-12
9.92082e-12
1.01631e-11
1.03971e-11
1.0622e-11
1.0837e-11
1.10413e-11
1.12344e-11
1.14155e-11
1.1584e-11
1.17395e-11
1.18813e-11
1.20091e-11
1.21223e-11
1.22208e-11
1.23041e-11
1.2372e-11
1.24244e-11
1.24611e-11
1.24821e-11
1.24872e-11
1.24766e-11
1.24502e-11
1.24083e-11
1.2351e-11
1.22784e-11
1.21909e-11
1.20887e-11
1.1972e-11
1.18413e-11
1.1697e-11
1.15393e-11
1.13688e-11
1.1186e-11
1.09912e-11
1.07849e-11
1.05678e-11
1.03403e-11
1.0103e-11
9.85647e-12
9.60131e-12
9.33814e-12
9.06759e-12
8.79034e-12
8.50705e-12
8.21843e-12
7.92522e-12
7.62813e-12
7.32796e-12
7.02546e-12
6.72146e-12
6.41676e-12
6.1122e-12
5.80863e-12
5.50689e-12
5.20785e-12
4.91236e-12
4.62126e-12
4.33539e-12
4.05558e-12
3.78262e-12
3.51727e-12
3.26024e-12
3.01222e-12
2.77383e-12
2.54564e-12
2.32812e-12
2.12172e-12
1.92677e-12
1.74354e-12
1.57221e-12
1.41289e-12
1.26558e-12
1.13021e-12
1.00662e-12
8.94592e-13
7.93804e-13
7.0388e-13
6.24377e-13
5.54791e-13
4.94571e-13
4.43119e-13
3.99802e-13
3.63956e-13
3.34895e-13
3.1192e-13
2.94321e-13
2.8139e-13
2.72425e-13
2.66737e-13
2.63657e-13
2.62545e-13
2.62793e-13
2.63839e-13
2.65164e-13
2.66306e-13
2.66864e-13
2.66497e-13
2.64938e-13
2.61984e-13
2.57507e-13
2.51445e-13
2.43803e-13
2.34649e-13
2.24101e-13
2.12327e-13
1.99528e-13
1.85935e-13
1.71792e-13
1.57349e-13
1.42853e-13
1.28537e-13
1.1461e-13
1.0126e-13
8.86389e-14
7.68678e-14
6.60327e-14
5.61863e-14
4.73505e-14
3.95189e-14
3.26617e-14
2.67297e-14
2.16591e-14
1.73758e-14
1.38e-14
1.08496e-14
8.44339e-15
6.50376e-15
4.95825e-15
3.74093e-15
2.79314e-15
2.06368e-15
1.5087e-15
1.0913e-15
7.80996e-16
5.52951e-16
3.87289e-16
2.68329e-16
1.8389e-16
1.24645e-16
8.35551e-17
5.53821e-17
3.62809e-17
2.34655e-17
1.49408e-17
9.29102e-18
5.51411e-18
2.89379e-18
8.98759e-19
3.66624e-16
1.10516e-15
1.85974e-15
2.64143e-15
3.46172e-15
4.33258e-15
5.26663e-15
6.27731e-15
7.37903e-15
8.58736e-15
9.9192e-15
1.1393e-14
1.30289e-14
1.48491e-14
1.6878e-14
1.91423e-14
2.16718e-14
2.4499e-14
2.766e-14
3.11947e-14
3.51468e-14
3.9565e-14
4.45025e-14
5.00182e-14
5.6177e-14
6.30502e-14
7.07161e-14
7.92609e-14
8.87789e-14
9.93737e-14
1.11159e-13
1.24257e-13
1.38805e-13
1.54949e-13
1.72851e-13
1.92684e-13
2.14638e-13
2.3892e-13
2.65751e-13
2.95373e-13
3.28046e-13
3.64048e-13
4.03683e-13
4.47272e-13
4.95162e-13
5.47725e-13
6.05355e-13
6.68475e-13
7.37533e-13
8.13004e-13
8.95393e-13
9.85229e-13
1.08307e-12
1.18951e-12
1.30517e-12
1.43068e-12
1.56671e-12
1.71397e-12
1.87318e-12
2.04507e-12
2.23041e-12
2.42998e-12
2.64458e-12
2.87502e-12
3.12211e-12
3.38667e-12
3.66952e-12
3.97146e-12
4.29331e-12
4.63582e-12
4.99977e-12
5.38586e-12
5.79478e-12
6.22715e-12
6.68355e-12
7.16449e-12
7.67041e-12
8.20164e-12
8.75847e-12
9.34104e-12
9.94941e-12
1.05835e-11
1.12432e-11
1.1928e-11
1.26377e-11
1.33715e-11
1.41286e-11
1.49083e-11
1.57094e-11
1.65308e-11
1.73709e-11
1.82283e-11
1.91013e-11
1.99881e-11
2.08866e-11
2.17946e-11
2.27101e-11
2.36304e-11
2.45533e-11
2.54759e-11
2.63957e-11
2.731e-11
2.82158e-11
2.91104e-11
2.99908e-11
3.08543e-11
3.16979e-11
3.25189e-11
3.33144e-11
3.40817e-11
3.48183e-11
3.55217e-11
3.61893e-11
3.6819e-11
3.74086e-11
3.79562e-11
3.84599e-11
3.89181e-11
3.93294e-11
3.96924e-11
4.00062e-11
4.02698e-11
4.04825e-11
4.06438e-11
4.07534e-11
4.08111e-11
4.0817e-11
4.07712e-11
4.06742e-11
4.05265e-11
4.03286e-11
4.00815e-11
3.9786e-11
3.94432e-11
3.90543e-11
3.86204e-11
3.81429e-11
3.76232e-11
3.70629e-11
3.64635e-11
3.58266e-11
3.5154e-11
3.44472e-11
3.37082e-11
3.29388e-11
3.21408e-11
3.13162e-11
3.04669e-11
2.9595e-11
2.87026e-11
2.77917e-11
2.68646e-11
2.59234e-11
2.49704e-11
2.40079e-11
2.30384e-11
2.20642e-11
2.10878e-11
2.01117e-11
1.91385e-11
1.81706e-11
1.72107e-11
1.62614e-11
1.53252e-11
1.44048e-11
1.35024e-11
1.26207e-11
1.1762e-11
1.09285e-11
1.01224e-11
9.34557e-12
8.5999e-12
7.887e-12
7.2083e-12
6.56498e-12
5.95801e-12
5.38812e-12
4.85575e-12
4.36113e-12
3.90419e-12
3.48462e-12
3.10187e-12
2.75514e-12
2.44341e-12
2.16544e-12
1.9198e-12
1.70491e-12
1.51901e-12
1.36022e-12
1.22656e-12
1.11596e-12
1.02628e-12
9.55346e-13
9.00969e-13
8.60956e-13
8.3314e-13
8.15398e-13
8.05674e-13
8.02e-13
8.02513e-13
8.05484e-13
8.0933e-13
8.12635e-13
8.14169e-13
8.12898e-13
8.07998e-13
7.98858e-13
7.85082e-13
7.66486e-13
7.43087e-13
7.15087e-13
6.82853e-13
6.46894e-13
6.07826e-13
5.6635e-13
5.23211e-13
4.79172e-13
4.34981e-13
3.91346e-13
3.4891e-13
3.08237e-13
2.69793e-13
2.33944e-13
2.0095e-13
1.70971e-13
1.44072e-13
1.20234e-13
9.93634e-14
8.13111e-14
6.58816e-14
5.28493e-14
4.19705e-14
3.29951e-14
2.56761e-14
1.97766e-14
1.50761e-14
1.13741e-14
8.49198e-15
6.27389e-15
4.58644e-15
3.31742e-15
2.37403e-15
1.68076e-15
1.17717e-15
8.15559e-16
5.58897e-16
3.78822e-16
2.53934e-16
1.68308e-16
1.10256e-16
7.13092e-17
4.54028e-17
2.82335e-17
1.6756e-17
8.7935e-18
2.73115e-18
7.95355e-16
2.39759e-15
4.03475e-15
5.73099e-15
7.51127e-15
9.40168e-15
1.14297e-14
1.36247e-14
1.6018e-14
1.86435e-14
2.15383e-14
2.47423e-14
2.82999e-14
3.22592e-14
3.66736e-14
4.16016e-14
4.71081e-14
5.32642e-14
6.0149e-14
6.78494e-14
7.64614e-14
8.60911e-14
9.68553e-14
1.08883e-13
1.22316e-13
1.3731e-13
1.54037e-13
1.72685e-13
1.93462e-13
2.16593e-13
2.42327e-13
2.70935e-13
3.02714e-13
3.37984e-13
3.77099e-13
4.20441e-13
4.68423e-13
5.21497e-13
5.80149e-13
6.44906e-13
7.16334e-13
7.95045e-13
8.81698e-13
9.76995e-13
1.08169e-12
1.1966e-12
1.32258e-12
1.46054e-12
1.61146e-12
1.77637e-12
1.95636e-12
2.15258e-12
2.36624e-12
2.59861e-12
2.851e-12
3.12481e-12
3.42146e-12
3.74245e-12
4.08931e-12
4.46361e-12
4.86697e-12
5.30104e-12
5.76748e-12
6.26799e-12
6.80425e-12
7.37795e-12
7.99077e-12
8.64434e-12
9.34028e-12
1.00801e-11
1.08653e-11
1.16973e-11
1.25774e-11
1.35066e-11
1.44861e-11
1.55167e-11
1.6599e-11
1.77336e-11
1.89206e-11
2.01603e-11
2.14522e-11
2.27959e-11
2.41907e-11
2.56355e-11
2.71288e-11
2.8669e-11
3.02541e-11
3.18816e-11
3.35489e-11
3.52529e-11
3.69902e-11
3.87572e-11
4.05497e-11
4.23635e-11
4.41939e-11
4.60361e-11
4.78849e-11
4.97349e-11
5.15807e-11
5.34164e-11
5.52362e-11
5.70344e-11
5.88047e-11
6.05413e-11
6.22382e-11
6.38896e-11
6.54895e-11
6.70324e-11
6.85128e-11
6.99254e-11
7.12653e-11
7.25278e-11
7.37084e-11
7.48032e-11
7.58084e-11
7.67208e-11
7.75374e-11
7.82558e-11
7.88739e-11
7.939e-11
7.9803e-11
8.01119e-11
8.03165e-11
8.04167e-11
8.04128e-11
8.03057e-11
8.00964e-11
7.97864e-11
7.93774e-11
7.88714e-11
7.82708e-11
7.75779e-11
7.67956e-11
7.59268e-11
7.49745e-11
7.3942e-11
7.28326e-11
7.16497e-11
7.03969e-11
6.90778e-11
6.76961e-11
6.62554e-11
6.47596e-11
6.32124e-11
6.16175e-11
5.9979e-11
5.83005e-11
5.6586e-11
5.48395e-11
5.30648e-11
5.1266e-11
4.9447e-11
4.7612e-11
4.57649e-11
4.39101e-11
4.20516e-11
4.01937e-11
3.83407e-11
3.64968e-11
3.46665e-11
3.2854e-11
3.10637e-11
2.92999e-11
2.75669e-11
2.58689e-11
2.421e-11
2.25941e-11
2.10251e-11
1.95066e-11
1.8042e-11
1.66343e-11
1.52864e-11
1.40008e-11
1.27797e-11
1.16246e-11
1.05371e-11
9.51795e-12
8.56765e-12
7.68623e-12
6.87329e-12
6.12798e-12
5.44905e-12
4.83482e-12
4.28326e-12
3.79199e-12
3.35831e-12
2.97923e-12
2.65154e-12
2.37179e-12
2.13639e-12
1.94162e-12
1.78365e-12
1.65861e-12
1.5626e-12
1.49176e-12
1.44226e-12
1.41039e-12
1.39253e-12
1.38526e-12
1.38532e-12
1.3897e-12
1.39567e-12
1.40075e-12
1.40284e-12
1.40013e-12
1.39121e-12
1.37503e-12
1.3509e-12
1.31852e-12
1.27791e-12
1.22943e-12
1.17371e-12
1.11162e-12
1.04424e-12
9.72757e-13
8.9846e-13
8.22656e-13
7.4663e-13
6.71594e-13
5.98652e-13
5.28765e-13
4.6273e-13
4.01172e-13
3.44533e-13
2.93084e-13
2.46933e-13
2.06042e-13
1.70252e-13
1.393e-13
1.12851e-13
9.05149e-14
7.18734e-14
5.64962e-14
4.39587e-14
3.38545e-14
2.58052e-14
1.94666e-14
1.45324e-14
1.07355e-14
7.84733e-15
5.67556e-15
4.06123e-15
2.87504e-15
2.01346e-15
1.39486e-15
9.55826e-16
6.47822e-16
4.34227e-16
2.87792e-16
1.8852e-16
1.21921e-16
7.76248e-17
4.82689e-17
2.8646e-17
1.50331e-17
4.6691e-18
1.57614e-15
4.75137e-15
7.99618e-15
1.13586e-14
1.48884e-14
1.86375e-14
2.26607e-14
2.70164e-14
3.17672e-14
3.69809e-14
4.2731e-14
4.90978e-14
5.61694e-14
6.40423e-14
7.2823e-14
8.26287e-14
9.35888e-14
1.05846e-13
1.19559e-13
1.349e-13
1.52064e-13
1.71261e-13
1.92726e-13
2.16718e-13
2.4352e-13
2.73446e-13
3.0684e-13
3.44079e-13
3.85579e-13
4.31794e-13
4.83221e-13
5.40404e-13
6.03937e-13
6.74467e-13
7.527e-13
8.394e-13
9.354e-13
1.0416e-12
1.15898e-12
1.28859e-12
1.43156e-12
1.58912e-12
1.76259e-12
1.95336e-12
2.16295e-12
2.39297e-12
2.64514e-12
2.92127e-12
3.2233e-12
3.55327e-12
3.91336e-12
4.30582e-12
4.73304e-12
5.19753e-12
5.70188e-12
6.2488e-12
6.84111e-12
7.48168e-12
8.17351e-12
8.91965e-12
9.72319e-12
1.05873e-11
1.15152e-11
1.251e-11
1.35749e-11
1.47131e-11
1.59276e-11
1.72215e-11
1.85976e-11
2.00588e-11
2.16074e-11
2.3246e-11
2.49766e-11
2.6801e-11
2.87207e-11
3.07369e-11
3.28503e-11
3.50613e-11
3.73696e-11
3.97745e-11
4.2275e-11
4.48692e-11
4.75547e-11
5.03286e-11
5.31873e-11
5.61264e-11
5.91411e-11
6.22258e-11
6.53742e-11
6.85794e-11
7.18339e-11
7.51295e-11
7.84576e-11
8.18088e-11
8.51734e-11
8.85412e-11
9.19016e-11
9.52436e-11
9.85561e-11
1.01828e-10
1.05047e-10
1.08202e-10
1.11282e-10
1.14274e-10
1.17169e-10
1.19956e-10
1.22623e-10
1.25161e-10
1.2756e-10
1.29811e-10
1.31907e-10
1.33839e-10
1.35601e-10
1.37187e-10
1.38592e-10
1.39811e-10
1.40841e-10
1.41679e-10
1.42324e-10
1.42774e-10
1.43031e-10
1.43094e-10
1.42965e-10
1.42647e-10
1.42142e-10
1.41455e-10
1.40589e-10
1.3955e-10
1.38342e-10
1.36972e-10
1.35445e-10
1.33769e-10
1.3195e-10
1.29994e-10
1.2791e-10
1.25704e-10
1.23383e-10
1.20955e-10
1.18428e-10
1.15808e-10
1.13103e-10
1.10321e-10
1.07468e-10
1.04551e-10
1.01578e-10
9.85558e-11
9.54904e-11
9.23888e-11
8.92577e-11
8.61036e-11
8.2933e-11
7.97523e-11
7.65679e-11
7.3386e-11
7.0213e-11
6.70552e-11
6.39188e-11
6.081e-11
5.7735e-11
5.47e-11
5.17111e-11
4.87743e-11
4.58956e-11
4.30809e-11
4.03358e-11
3.76657e-11
3.50761e-11
3.25718e-11
3.01575e-11
2.78375e-11
2.56157e-11
2.34956e-11
2.14799e-11
1.95712e-11
1.77712e-11
1.60811e-11
1.45015e-11
1.30323e-11
1.16729e-11
1.0422e-11
9.27755e-12
8.23712e-12
7.29761e-12
6.45541e-12
5.70645e-12
5.04622e-12
4.46984e-12
3.9721e-12
3.54753e-12
3.19045e-12
2.89503e-12
2.65534e-12
2.46542e-12
2.31929e-12
2.21106e-12
2.13493e-12
2.08527e-12
2.05666e-12
2.04394e-12
2.04227e-12
2.04716e-12
2.05451e-12
2.06071e-12
2.06258e-12
2.0575e-12
2.04338e-12
2.01866e-12
1.98237e-12
1.93403e-12
1.87371e-12
1.80192e-12
1.71961e-12
1.62806e-12
1.52884e-12
1.4237e-12
1.31453e-12
1.20324e-12
1.09171e-12
9.81703e-13
8.74828e-13
7.72484e-13
6.7583e-13
5.85769e-13
5.0294e-13
4.27732e-13
3.60293e-13
3.00562e-13
2.48297e-13
2.03114e-13
1.64514e-13
1.31927e-13
1.04736e-13
8.23132e-14
6.40352e-14
4.9308e-14
3.75783e-14
2.83434e-14
2.11561e-14
1.56264e-14
1.14209e-14
8.25908e-15
5.9092e-15
4.18278e-15
2.92899e-15
2.0289e-15
1.39017e-15
9.4212e-16
6.31439e-16
4.18466e-16
2.74099e-16
1.77257e-16
1.1285e-16
7.01692e-17
4.16415e-17
2.18525e-17
6.78706e-18
3.02596e-15
9.12218e-15
1.53527e-14
2.18103e-14
2.8591e-14
3.57951e-14
4.35285e-14
5.19039e-14
6.10426e-14
7.10754e-14
8.21448e-14
9.44063e-14
1.0803e-13
1.23204e-13
1.40134e-13
1.59048e-13
1.80196e-13
2.03855e-13
2.30334e-13
2.59968e-13
2.93133e-13
3.30242e-13
3.71748e-13
4.18156e-13
4.70017e-13
5.27941e-13
5.92598e-13
6.64723e-13
7.45123e-13
8.34683e-13
9.34373e-13
1.04525e-12
1.16847e-12
1.3053e-12
1.4571e-12
1.62537e-12
1.81173e-12
2.01792e-12
2.24586e-12
2.49758e-12
2.77529e-12
3.08138e-12
3.41838e-12
3.78904e-12
4.19627e-12
4.64319e-12
5.13313e-12
5.6696e-12
6.25633e-12
6.89728e-12
7.5966e-12
8.35865e-12
9.18801e-12
1.00895e-11
1.1068e-11
1.21287e-11
1.32769e-11
1.45182e-11
1.58581e-11
1.73024e-11
1.88568e-11
2.05272e-11
2.23195e-11
2.42396e-11
2.62932e-11
2.8486e-11
3.08236e-11
3.33111e-11
3.59535e-11
3.87557e-11
4.17217e-11
4.48553e-11
4.81597e-11
5.16376e-11
5.52908e-11
5.91204e-11
6.31267e-11
6.7309e-11
7.16657e-11
7.61942e-11
8.08906e-11
8.57501e-11
9.07665e-11
9.59325e-11
1.0124e-10
1.06678e-10
1.12236e-10
1.17902e-10
1.23662e-10
1.295e-10
1.35403e-10
1.41351e-10
1.47327e-10
1.53312e-10
1.59287e-10
1.65231e-10
1.71122e-10
1.7694e-10
1.82663e-10
1.88268e-10
1.93735e-10
1.99042e-10
2.04167e-10
2.0909e-10
2.13792e-10
2.18253e-10
2.22456e-10
2.26383e-10
2.3002e-10
2.33352e-10
2.36366e-10
2.39052e-10
2.41401e-10
2.43404e-10
2.45057e-10
2.46355e-10
2.47296e-10
2.47878e-10
2.48105e-10
2.47977e-10
2.47501e-10
2.4668e-10
2.45524e-10
2.4404e-10
2.42238e-10
2.40129e-10
2.37724e-10
2.35037e-10
2.32081e-10
2.28869e-10
2.25415e-10
2.21735e-10
2.17843e-10
2.13755e-10
2.09484e-10
2.05047e-10
2.00457e-10
1.95729e-10
1.90879e-10
1.85919e-10
1.80863e-10
1.75724e-10
1.70515e-10
1.65249e-10
1.59938e-10
1.54592e-10
1.49223e-10
1.43842e-10
1.38459e-10
1.33085e-10
1.27728e-10
1.22398e-10
1.17105e-10
1.11857e-10
1.06662e-10
1.0153e-10
9.64684e-11
9.14854e-11
8.65891e-11
8.17872e-11
7.70872e-11
7.24966e-11
6.80226e-11
6.3672e-11
5.94517e-11
5.53678e-11
5.14264e-11
4.76329e-11
4.39924e-11
4.05094e-11
3.71879e-11
3.4031e-11
3.10413e-11
2.82206e-11
2.55699e-11
2.30895e-11
2.07787e-11
1.8636e-11
1.66592e-11
1.4845e-11
1.31897e-11
1.16885e-11
1.03359e-11
9.12605e-12
8.0522e-12
7.10723e-12
6.28352e-12
5.57312e-12
4.96776e-12
4.45896e-12
4.0381e-12
3.69651e-12
3.42551e-12
3.21648e-12
3.06097e-12
2.95072e-12
2.87775e-12
2.83441e-12
2.81344e-12
2.80807e-12
2.81204e-12
2.81966e-12
2.82589e-12
2.82639e-12
2.81753e-12
2.79642e-12
2.76096e-12
2.70979e-12
2.64229e-12
2.55857e-12
2.45933e-12
2.34587e-12
2.21997e-12
2.08374e-12
1.93962e-12
1.79014e-12
1.63792e-12
1.48552e-12
1.33532e-12
1.18951e-12
1.04998e-12
9.18287e-13
7.9565e-13
6.82923e-13
5.80618e-13
4.88925e-13
4.0775e-13
3.36751e-13
2.75396e-13
2.23001e-13
1.78783e-13
1.41901e-13
1.11495e-13
8.67173e-14
6.67591e-14
5.08675e-14
3.83592e-14
2.86266e-14
2.11405e-14
1.54483e-14
1.11697e-14
7.99043e-15
5.65514e-15
3.95946e-15
2.74235e-15
1.87878e-15
1.27311e-15
8.53189e-16
5.65369e-16
3.70289e-16
2.39443e-16
1.52429e-16
9.47735e-17
5.624e-17
2.95125e-17
9.166e-18
5.70267e-15
1.7192e-14
2.8936e-14
4.11106e-14
5.38976e-14
6.74875e-14
8.20811e-14
9.78925e-14
1.15152e-13
1.34108e-13
1.55032e-13
1.78219e-13
2.03993e-13
2.32712e-13
2.64768e-13
3.00595e-13
3.40671e-13
3.85524e-13
4.35741e-13
4.91967e-13
5.54915e-13
6.25374e-13
7.04215e-13
7.92397e-13
8.90978e-13
1.00112e-12
1.12411e-12
1.26136e-12
1.4144e-12
1.58493e-12
1.77482e-12
1.98607e-12
2.22092e-12
2.48176e-12
2.77124e-12
3.0922e-12
3.44774e-12
3.84123e-12
4.27629e-12
4.75684e-12
5.2871e-12
5.87162e-12
6.51527e-12
7.22326e-12
8.00117e-12
8.85495e-12
9.79091e-12
1.08158e-11
1.19366e-11
1.31609e-11
1.44966e-11
1.59519e-11
1.75355e-11
1.92563e-11
2.11237e-11
2.31474e-11
2.53374e-11
2.77038e-11
3.0257e-11
3.30078e-11
3.59667e-11
3.91444e-11
4.25517e-11
4.61992e-11
5.00971e-11
5.42556e-11
5.86842e-11
6.33921e-11
6.83878e-11
7.36788e-11
7.92721e-11
8.51733e-11
9.1387e-11
9.79164e-11
1.04763e-10
1.11928e-10
1.19408e-10
1.27202e-10
1.35302e-10
1.43702e-10
1.52392e-10
1.6136e-10
1.70592e-10
1.80071e-10
1.89778e-10
1.99691e-10
2.09786e-10
2.20037e-10
2.30416e-10
2.40892e-10
2.51433e-10
2.62003e-10
2.72566e-10
2.83085e-10
2.93522e-10
3.03835e-10
3.13985e-10
3.23932e-10
3.33633e-10
3.43049e-10
3.5214e-10
3.60867e-10
3.69192e-10
3.77078e-10
3.84493e-10
3.91404e-10
3.9778e-10
4.03597e-10
4.08829e-10
4.13456e-10
4.17461e-10
4.2083e-10
4.23551e-10
4.25618e-10
4.27027e-10
4.27778e-10
4.27875e-10
4.27324e-10
4.26134e-10
4.24319e-10
4.21893e-10
4.18876e-10
4.15288e-10
4.11151e-10
4.06489e-10
4.0133e-10
3.957e-10
3.89627e-10
3.83142e-10
3.76273e-10
3.69052e-10
3.61508e-10
3.53671e-10
3.45571e-10
3.37237e-10
3.28699e-10
3.19984e-10
3.11118e-10
3.02128e-10
2.93039e-10
2.83874e-10
2.74657e-10
2.65409e-10
2.56149e-10
2.46898e-10
2.37674e-10
2.28493e-10
2.19372e-10
2.10326e-10
2.01369e-10
1.92514e-10
1.83775e-10
1.75162e-10
1.66689e-10
1.58364e-10
1.50199e-10
1.42203e-10
1.34386e-10
1.26756e-10
1.19322e-10
1.12092e-10
1.05074e-10
9.8275e-11
9.17022e-11
8.53618e-11
7.926e-11
7.34019e-11
6.77925e-11
6.24358e-11
5.73351e-11
5.24929e-11
4.7911e-11
4.35901e-11
3.95301e-11
3.57296e-11
3.21865e-11
2.88974e-11
2.5858e-11
2.3063e-11
2.05059e-11
1.81795e-11
1.60754e-11
1.41847e-11
1.24974e-11
1.10032e-11
9.69084e-12
8.54895e-12
7.56559e-12
6.7286e-12
6.02566e-12
5.44438e-12
4.9724e-12
4.59746e-12
4.3075e-12
4.09074e-12
3.93579e-12
3.83166e-12
3.7679e-12
3.73465e-12
3.72273e-12
3.72369e-12
3.7299e-12
3.73464e-12
3.73208e-12
3.71741e-12
3.68682e-12
3.63753e-12
3.56775e-12
3.47669e-12
3.36449e-12
3.23211e-12
3.08128e-12
2.91432e-12
2.73406e-12
2.54366e-12
2.34648e-12
2.14593e-12
1.94536e-12
1.74788e-12
1.55635e-12
1.3732e-12
1.20048e-12
1.03974e-12
8.9209e-13
7.58169e-13
6.38207e-13
5.32061e-13
4.3927e-13
3.59119e-13
2.90704e-13
2.32991e-13
1.84873e-13
1.45218e-13
1.12916e-13
8.69054e-14
6.62018e-14
4.99109e-14
3.7239e-14
2.74948e-14
2.00875e-14
1.45212e-14
1.03861e-14
7.34934e-15
5.14481e-15
3.56278e-15
2.4405e-15
1.65352e-15
1.10799e-15
7.34128e-16
4.80766e-16
3.10852e-16
1.97871e-16
1.23019e-16
7.29968e-17
3.83042e-17
1.18963e-17
1.05836e-14
3.19076e-14
5.37074e-14
7.63113e-14
1.00059e-13
1.25307e-13
1.52431e-13
1.8183e-13
2.13936e-13
2.49214e-13
2.88172e-13
3.31364e-13
3.79398e-13
4.32944e-13
4.92739e-13
5.59597e-13
6.34418e-13
7.18197e-13
8.12032e-13
9.17141e-13
1.03487e-12
1.16669e-12
1.31426e-12
1.47938e-12
1.66405e-12
1.87045e-12
2.10102e-12
2.3584e-12
2.64552e-12
2.96557e-12
3.32206e-12
3.71881e-12
4.16e-12
4.6502e-12
5.19437e-12
5.79791e-12
6.46666e-12
7.20698e-12
8.02571e-12
8.93026e-12
9.92861e-12
1.10293e-11
1.22416e-11
1.35752e-11
1.50407e-11
1.66494e-11
1.8413e-11
2.03442e-11
2.24563e-11
2.47634e-11
2.72802e-11
3.00221e-11
3.30054e-11
3.62467e-11
3.97636e-11
4.35738e-11
4.76958e-11
5.21486e-11
5.69511e-11
6.21228e-11
6.76832e-11
7.36516e-11
8.00474e-11
8.68894e-11
9.41959e-11
1.01985e-10
1.10272e-10
1.19074e-10
1.28404e-10
1.38275e-10
1.48698e-10
1.5968e-10
1.71227e-10
1.83343e-10
1.96028e-10
2.09279e-10
2.23089e-10
2.37449e-10
2.52343e-10
2.67754e-10
2.83659e-10
3.0003e-10
3.16838e-10
3.34045e-10
3.51611e-10
3.69491e-10
3.87636e-10
4.05992e-10
4.245e-10
4.43101e-10
4.61728e-10
4.80314e-10
4.98787e-10
5.17076e-10
5.35106e-10
5.528e-10
5.70084e-10
5.8688e-10
6.03115e-10
6.18714e-10
6.33605e-10
6.47719e-10
6.60991e-10
6.7336e-10
6.84767e-10
6.95161e-10
7.04494e-10
7.12727e-10
7.19824e-10
7.25757e-10
7.30506e-10
7.34055e-10
7.36397e-10
7.3753e-10
7.37462e-10
7.36204e-10
7.33775e-10
7.30201e-10
7.25511e-10
7.19742e-10
7.12933e-10
7.0513e-10
6.96381e-10
6.86739e-10
6.76256e-10
6.64991e-10
6.53001e-10
6.40346e-10
6.27084e-10
6.13277e-10
5.98984e-10
5.84262e-10
5.6917e-10
5.53764e-10
5.38098e-10
5.22224e-10
5.06192e-10
4.90049e-10
4.73841e-10
4.5761e-10
4.41394e-10
4.25233e-10
4.09159e-10
3.93205e-10
3.774e-10
3.61772e-10
3.46343e-10
3.31138e-10
3.16177e-10
3.01477e-10
2.87057e-10
2.72931e-10
2.59113e-10
2.45616e-10
2.32451e-10
2.19628e-10
2.07157e-10
1.95047e-10
1.83305e-10
1.71938e-10
1.60953e-10
1.50355e-10
1.40149e-10
1.30341e-10
1.20933e-10
1.1193e-10
1.03332e-10
9.51427e-11
8.73614e-11
7.99883e-11
7.30221e-11
6.64604e-11
6.02999e-11
5.45358e-11
4.91623e-11
4.41723e-11
3.95577e-11
3.53088e-11
3.1415e-11
2.78645e-11
2.46442e-11
2.17404e-11
1.91382e-11
1.68221e-11
1.47758e-11
1.29826e-11
1.14252e-11
1.00862e-11
8.94798e-12
7.9929e-12
7.2034e-12
6.56213e-12
6.05204e-12
5.65651e-12
5.35941e-12
5.14523e-12
4.99915e-12
4.90711e-12
4.85595e-12
4.83346e-12
4.82845e-12
4.83089e-12
4.83192e-12
4.82395e-12
4.80071e-12
4.75725e-12
4.68997e-12
4.59659e-12
4.47611e-12
4.32872e-12
4.15569e-12
3.95927e-12
3.74246e-12
3.50891e-12
3.26269e-12
3.00811e-12
2.74954e-12
2.49125e-12
2.23723e-12
1.99109e-12
1.75595e-12
1.53438e-12
1.32834e-12
1.13921e-12
9.67783e-13
8.14323e-13
6.78618e-13
5.60054e-13
4.57697e-13
3.70371e-13
2.9674e-13
2.35378e-13
1.84832e-13
1.43674e-13
1.10546e-13
8.41869e-14
6.34533e-14
4.73309e-14
3.49374e-14
2.55192e-14
1.84436e-14
1.31887e-14
9.33071e-15
6.53063e-15
4.52166e-15
3.09683e-15
2.09789e-15
1.40555e-15
9.31162e-16
6.09728e-16
3.94193e-16
2.50897e-16
1.55973e-16
9.2545e-17
4.85596e-17
1.50811e-17
1.93594e-14
5.83672e-14
9.82512e-14
1.39616e-13
1.83089e-13
2.29324e-13
2.79015e-13
3.329e-13
3.91773e-13
4.56496e-13
5.28005e-13
6.07325e-13
6.95582e-13
7.94013e-13
9.03986e-13
1.02701e-12
1.16475e-12
1.31905e-12
1.49195e-12
1.68571e-12
1.90283e-12
2.14607e-12
2.41846e-12
2.72339e-12
3.06456e-12
3.44606e-12
3.87239e-12
4.3485e-12
4.87983e-12
5.47233e-12
6.13253e-12
6.86758e-12
7.68527e-12
8.59411e-12
9.60336e-12
1.07231e-11
1.19642e-11
1.33385e-11
1.48589e-11
1.65391e-11
1.8394e-11
2.04395e-11
2.26928e-11
2.51723e-11
2.78975e-11
3.08892e-11
3.41695e-11
3.77619e-11
4.16912e-11
4.59833e-11
5.06657e-11
5.57669e-11
6.13167e-11
6.73461e-11
7.38871e-11
8.09726e-11
8.86363e-11
9.69128e-11
1.05837e-10
1.15443e-10
1.25768e-10
1.36845e-10
1.48709e-10
1.61394e-10
1.74931e-10
1.89351e-10
2.04684e-10
2.20954e-10
2.38185e-10
2.56396e-10
2.75604e-10
2.9582e-10
3.17049e-10
3.39294e-10
3.62548e-10
3.86802e-10
4.12036e-10
4.38226e-10
4.65337e-10
4.93331e-10
5.22156e-10
5.51756e-10
5.82065e-10
6.13008e-10
6.44502e-10
6.76457e-10
7.08773e-10
7.41344e-10
7.74055e-10
8.06787e-10
8.39414e-10
8.71805e-10
9.03824e-10
9.35335e-10
9.66196e-10
9.96268e-10
1.02541e-09
1.05348e-09
1.08035e-09
1.10588e-09
1.12995e-09
1.15244e-09
1.17323e-09
1.19223e-09
1.20934e-09
1.22447e-09
1.23756e-09
1.24855e-09
1.25739e-09
1.26405e-09
1.2685e-09
1.27075e-09
1.2708e-09
1.26867e-09
1.26438e-09
1.25799e-09
1.24956e-09
1.23913e-09
1.2268e-09
1.21265e-09
1.19676e-09
1.17924e-09
1.1602e-09
1.13974e-09
1.11797e-09
1.09501e-09
1.07097e-09
1.04598e-09
1.02014e-09
9.93572e-10
9.66389e-10
9.38698e-10
9.10603e-10
8.82205e-10
8.53601e-10
8.24882e-10
7.96132e-10
7.67433e-10
7.38858e-10
7.10477e-10
6.82353e-10
6.54543e-10
6.27099e-10
6.00068e-10
5.73493e-10
5.4741e-10
5.21852e-10
4.96848e-10
4.72422e-10
4.48595e-10
4.25386e-10
4.0281e-10
3.80879e-10
3.59602e-10
3.38989e-10
3.19045e-10
2.99776e-10
2.81184e-10
2.63271e-10
2.46038e-10
2.29486e-10
2.13614e-10
1.98419e-10
1.83899e-10
1.7005e-10
1.56868e-10
1.44348e-10
1.32484e-10
1.21269e-10
1.10694e-10
1.0075e-10
9.14275e-11
8.27135e-11
7.45955e-11
6.70593e-11
6.00891e-11
5.36682e-11
4.77781e-11
4.23995e-11
3.75117e-11
3.3093e-11
2.91207e-11
2.55713e-11
2.24207e-11
1.9644e-11
1.72162e-11
1.51121e-11
1.33061e-11
1.1773e-11
1.04879e-11
9.42601e-12
8.56326e-12
7.87616e-12
7.34199e-12
6.93888e-12
6.64593e-12
6.4433e-12
6.31231e-12
6.23553e-12
6.19691e-12
6.1818e-12
6.17713e-12
6.17139e-12
6.15478e-12
6.11923e-12
6.05838e-12
5.96764e-12
5.84414e-12
5.68661e-12
5.49533e-12
5.27196e-12
5.01936e-12
4.74138e-12
4.44266e-12
4.12836e-12
3.80395e-12
3.47495e-12
3.14673e-12
2.82432e-12
2.51225e-12
2.21441e-12
1.93402e-12
1.6735e-12
1.43454e-12
1.21812e-12
1.02451e-12
8.53409e-13
7.04014e-13
5.75114e-13
4.65206e-13
3.72582e-13
2.9543e-13
2.31907e-13
1.80207e-13
1.38611e-13
1.05528e-13
7.95147e-14
5.92948e-14
4.37569e-14
3.1953e-14
2.30879e-14
1.65061e-14
1.16751e-14
8.16981e-15
5.65551e-15
3.8727e-15
2.62304e-15
1.75712e-15
1.16391e-15
7.62033e-16
4.92601e-16
3.135e-16
1.94873e-16
1.15618e-16
6.06632e-17
1.88396e-17
3.49119e-14
1.05261e-13
1.77202e-13
2.51833e-13
3.30293e-13
4.13773e-13
5.03531e-13
6.00914e-13
7.07366e-13
8.24456e-13
9.53891e-13
1.09754e-12
1.25746e-12
1.43591e-12
1.63538e-12
1.85863e-12
2.10872e-12
2.38902e-12
2.70327e-12
3.0556e-12
3.45059e-12
3.8933e-12
4.38932e-12
4.94484e-12
5.56666e-12
6.2623e-12
7.04004e-12
7.90897e-12
8.87909e-12
9.96137e-12
1.11678e-11
1.25116e-11
1.40071e-11
1.56699e-11
1.75171e-11
1.95673e-11
2.18405e-11
2.43586e-11
2.71452e-11
3.02258e-11
3.36276e-11
3.73801e-11
4.15149e-11
4.60658e-11
5.10688e-11
5.65622e-11
6.25867e-11
6.91854e-11
7.64038e-11
8.42896e-11
9.28929e-11
1.02266e-10
1.12464e-10
1.23543e-10
1.35561e-10
1.48578e-10
1.62656e-10
1.77856e-10
1.94242e-10
2.11877e-10
2.30824e-10
2.51144e-10
2.72899e-10
2.96147e-10
3.20945e-10
3.47345e-10
3.75395e-10
4.05139e-10
4.36615e-10
4.69852e-10
5.04873e-10
5.41693e-10
5.80315e-10
6.20734e-10
6.62931e-10
7.06877e-10
7.52528e-10
7.99827e-10
8.48702e-10
8.99067e-10
9.50819e-10
1.00384e-09
1.058e-09
1.11315e-09
1.16911e-09
1.22573e-09
1.28279e-09
1.34009e-09
1.39742e-09
1.45455e-09
1.51122e-09
1.56721e-09
1.62225e-09
1.67609e-09
1.72847e-09
1.77914e-09
1.82783e-09
1.87431e-09
1.91832e-09
1.95964e-09
1.99805e-09
2.03334e-09
2.06534e-09
2.09387e-09
2.11878e-09
2.13994e-09
2.15727e-09
2.17067e-09
2.1801e-09
2.18552e-09
2.18694e-09
2.18438e-09
2.17787e-09
2.16751e-09
2.15337e-09
2.13557e-09
2.11425e-09
2.08956e-09
2.06167e-09
2.03075e-09
1.99702e-09
1.96066e-09
1.92189e-09
1.88094e-09
1.83802e-09
1.79334e-09
1.74715e-09
1.69965e-09
1.65105e-09
1.60158e-09
1.55143e-09
1.50079e-09
1.44986e-09
1.3988e-09
1.34778e-09
1.29695e-09
1.24645e-09
1.19642e-09
1.14698e-09
1.09822e-09
1.05025e-09
1.00315e-09
9.56994e-10
9.11849e-10
8.67769e-10
8.248e-10
7.8298e-10
7.42342e-10
7.02908e-10
6.64696e-10
6.27719e-10
5.91984e-10
5.57495e-10
5.2425e-10
4.92245e-10
4.61474e-10
4.31928e-10
4.03595e-10
3.76463e-10
3.50517e-10
3.25742e-10
3.0212e-10
2.79636e-10
2.58269e-10
2.38002e-10
2.18814e-10
2.00685e-10
1.83593e-10
1.67516e-10
1.52431e-10
1.38312e-10
1.25136e-10
1.12876e-10
1.01503e-10
9.09892e-11
8.13045e-11
7.24175e-11
6.42958e-11
5.69061e-11
5.02139e-11
4.41838e-11
3.87798e-11
3.39654e-11
2.97037e-11
2.59574e-11
2.26896e-11
1.98632e-11
1.74417e-11
1.53892e-11
1.36704e-11
1.22508e-11
1.10973e-11
1.01777e-11
9.46095e-12
8.9177e-12
8.51993e-12
8.24124e-12
8.05694e-12
7.94413e-12
7.88179e-12
7.85089e-12
7.83449e-12
7.81777e-12
7.78815e-12
7.73528e-12
7.65111e-12
7.52981e-12
7.36775e-12
7.16338e-12
6.91708e-12
6.63099e-12
6.30874e-12
5.95522e-12
5.57626e-12
5.17838e-12
4.76843e-12
4.35332e-12
3.93978e-12
3.53405e-12
3.14178e-12
2.76779e-12
2.41603e-12
2.0895e-12
1.79025e-12
1.51942e-12
1.27731e-12
1.06351e-12
8.76945e-13
7.16077e-13
5.7899e-13
4.63527e-13
3.67402e-13
2.88297e-13
2.23946e-13
1.72195e-13
1.31053e-13
9.8717e-14
7.3592e-14
5.42921e-14
3.96354e-14
2.86316e-14
2.04643e-14
1.44715e-14
1.01244e-14
7.00716e-15
4.79734e-15
3.24874e-15
2.1759e-15
1.44109e-15
9.43379e-16
6.09753e-16
3.88014e-16
2.41169e-16
1.43074e-16
7.50652e-17
2.33116e-17
6.2078e-14
1.87175e-13
3.15125e-13
4.47896e-13
5.87528e-13
7.36157e-13
8.96043e-13
1.0696e-12
1.25942e-12
1.46833e-12
1.69939e-12
1.95597e-12
2.24177e-12
2.56086e-12
2.91774e-12
3.31739e-12
3.76531e-12
4.26761e-12
4.83103e-12
5.46305e-12
6.17196e-12
6.96692e-12
7.85805e-12
8.85656e-12
9.97479e-12
1.12264e-11
1.26263e-11
1.41912e-11
1.59391e-11
1.789e-11
2.00656e-11
2.249e-11
2.51893e-11
2.81918e-11
3.15288e-11
3.52339e-11
3.93438e-11
4.38981e-11
4.89399e-11
5.45154e-11
6.06746e-11
6.7471e-11
7.49621e-11
8.32094e-11
9.22784e-11
1.02239e-10
1.13165e-10
1.25135e-10
1.38231e-10
1.52541e-10
1.68155e-10
1.85168e-10
2.03679e-10
2.2379e-10
2.45606e-10
2.69235e-10
2.94788e-10
3.22375e-10
3.52111e-10
3.84106e-10
4.18474e-10
4.55323e-10
4.94761e-10
5.36889e-10
5.81806e-10
6.296e-10
6.80354e-10
7.34139e-10
7.91015e-10
8.51027e-10
9.14208e-10
9.80571e-10
1.05011e-09
1.12281e-09
1.19861e-09
1.27745e-09
1.35923e-09
1.44383e-09
1.5311e-09
1.62087e-09
1.71293e-09
1.80705e-09
1.90296e-09
2.00038e-09
2.09898e-09
2.19843e-09
2.29835e-09
2.39835e-09
2.49801e-09
2.59691e-09
2.6946e-09
2.79061e-09
2.88449e-09
2.97577e-09
3.06397e-09
3.14863e-09
3.22931e-09
3.30555e-09
3.37694e-09
3.44307e-09
3.50358e-09
3.55813e-09
3.60641e-09
3.64815e-09
3.68313e-09
3.71116e-09
3.73211e-09
3.74588e-09
3.75244e-09
3.75178e-09
3.74396e-09
3.72908e-09
3.70728e-09
3.67874e-09
3.64369e-09
3.60239e-09
3.55513e-09
3.50225e-09
3.44408e-09
3.38101e-09
3.31342e-09
3.24171e-09
3.16631e-09
3.08762e-09
3.00606e-09
2.92206e-09
2.83601e-09
2.74833e-09
2.65939e-09
2.56958e-09
2.47924e-09
2.38871e-09
2.29831e-09
2.20834e-09
2.11906e-09
2.03073e-09
1.94357e-09
1.85778e-09
1.77355e-09
1.69104e-09
1.61038e-09
1.53169e-09
1.45508e-09
1.38061e-09
1.30836e-09
1.23837e-09
1.17068e-09