/*--------------------------------*- C++ -*----------------------------------*\
| =========                 |                                                 |
| \\      /  F ield         | OpenFOAM: The Open Source CFD Toolbox           |
|  \\    /   O peration     | Version:  v2012                                 |
|   \\  /    A nd           | Website:  www.openfoam.com                      |
|    \\/     M anipulation  |                                                 |
\*---------------------------------------------------------------------------*/
FoamFile
{
    version     2.0;
    format      ascii;
    class       volScalarField;
    location    "5.7";
    object      W;
}
// * * * * * * * * * * * * * * * * * * * * * * * * * * * * * * * * * * * * * //

dimensions      [0 0 -1 0 0 0 0];


internalField   nonuniform List<scalar> 
65536
(
1.64398e-20
5.01188e-20
8.62378e-20
1.26559e-19
1.73045e-19
2.27942e-19
2.93876e-19
3.73961e-19
4.71916e-19
5.92213e-19
7.40242e-19
9.22508e-19
1.14687e-18
1.42283e-18
1.76184e-18
2.17771e-18
2.68708e-18
3.30995e-18
4.07031e-18
4.9969e-18
6.1241e-18
7.4929e-18
9.15213e-18
1.11598e-17
1.35847e-17
1.65083e-17
2.00266e-17
2.4253e-17
2.93207e-17
3.53858e-17
4.26313e-17
5.12709e-17
6.15535e-17
7.37686e-17
8.82521e-17
1.05393e-16
1.2564e-16
1.4951e-16
1.77598e-16
2.10585e-16
2.49252e-16
2.94487e-16
3.47304e-16
4.08852e-16
4.80433e-16
5.63517e-16
6.59761e-16
7.71027e-16
8.994e-16
1.04721e-15
1.21706e-15
1.41183e-15
1.63472e-15
1.88926e-15
2.17934e-15
2.50924e-15
2.88363e-15
3.30761e-15
3.78672e-15
4.32698e-15
4.93486e-15
5.61736e-15
6.38194e-15
7.23659e-15
8.18979e-15
9.25052e-15
1.04282e-14
1.17328e-14
1.31747e-14
1.47646e-14
1.65134e-14
1.84327e-14
2.0534e-14
2.28288e-14
2.5329e-14
2.8046e-14
3.09913e-14
3.4176e-14
3.76105e-14
4.13047e-14
4.52678e-14
4.95076e-14
5.40312e-14
5.88438e-14
6.39494e-14
6.935e-14
7.50456e-14
8.10339e-14
8.73104e-14
9.38678e-14
1.00696e-13
1.07783e-13
1.15112e-13
1.22663e-13
1.30416e-13
1.38344e-13
1.46418e-13
1.54607e-13
1.62875e-13
1.71183e-13
1.79492e-13
1.87756e-13
1.95931e-13
2.03969e-13
2.11818e-13
2.1943e-13
2.26753e-13
2.33734e-13
2.40322e-13
2.46468e-13
2.52122e-13
2.57237e-13
2.61769e-13
2.65678e-13
2.68927e-13
2.71482e-13
2.73317e-13
2.74409e-13
2.74742e-13
2.74306e-13
2.73097e-13
2.71118e-13
2.68379e-13
2.64896e-13
2.60692e-13
2.55797e-13
2.50246e-13
2.44082e-13
2.37352e-13
2.30107e-13
2.22404e-13
2.14304e-13
2.05869e-13
1.97165e-13
1.88259e-13
1.79219e-13
1.70113e-13
1.61009e-13
1.51972e-13
1.43066e-13
1.34353e-13
1.25891e-13
1.17734e-13
1.09933e-13
1.02533e-13
9.55761e-14
8.90982e-14
8.31302e-14
7.76981e-14
7.28225e-14
6.85187e-14
6.47969e-14
6.16621e-14
5.91143e-14
5.71484e-14
5.57549e-14
5.49192e-14
5.46224e-14
5.48413e-14
5.55483e-14
5.67117e-14
5.82962e-14
6.02625e-14
6.2568e-14
6.51669e-14
6.80104e-14
7.10472e-14
7.42242e-14
7.74861e-14
8.07771e-14
8.40407e-14
8.72204e-14
9.02609e-14
9.31087e-14
9.57125e-14
9.80244e-14
1.00001e-13
1.01602e-13
1.02796e-13
1.03555e-13
1.03858e-13
1.03691e-13
1.0305e-13
1.01935e-13
1.00355e-13
9.83261e-14
9.58713e-14
9.30198e-14
8.98063e-14
8.62704e-14
8.24557e-14
7.84086e-14
7.41775e-14
6.98117e-14
6.53601e-14
6.08709e-14
5.63898e-14
5.19601e-14
4.76212e-14
4.34087e-14
3.93535e-14
3.54816e-14
3.18144e-14
2.83679e-14
2.51537e-14
2.21785e-14
1.94448e-14
1.69513e-14
1.46933e-14
1.2663e-14
1.08503e-14
9.24326e-15
7.82841e-15
6.59136e-15
5.5172e-15
4.59086e-15
3.79742e-15
3.12244e-15
2.55211e-15
2.07345e-15
1.67444e-15
1.34405e-15
1.07233e-15
8.5034e-16
6.702e-16
5.24994e-16
4.0873e-16
3.16259e-16
2.43202e-16
1.85867e-16
1.4117e-16
1.06557e-16
7.99311e-17
5.95852e-17
4.41413e-17
3.24961e-17
2.37735e-17
1.72833e-17
1.24861e-17
8.96385e-18
6.39474e-18
4.53326e-18
3.19342e-18
2.2354e-18
1.55491e-18
1.07473e-18
7.38105e-19
5.03643e-19
3.41354e-19
2.29662e-19
1.53142e-19
1.00812e-19
6.48712e-20
3.97481e-20
2.1394e-20
6.73925e-21
5.52017e-20
1.68286e-19
2.89557e-19
4.24925e-19
5.8097e-19
7.65228e-19
9.86503e-19
1.25523e-18
1.58388e-18
1.98744e-18
2.48396e-18
3.09524e-18
3.84762e-18
4.77289e-18
5.90941e-18
7.30344e-18
9.01066e-18
1.1098e-17
1.36457e-17
1.675e-17
2.05259e-17
2.51103e-17
3.06666e-17
3.73886e-17
4.55064e-17
5.52919e-17
6.70661e-17
8.12075e-17
9.81605e-17
1.18447e-16
1.42677e-16
1.71562e-16
2.05935e-16
2.46759e-16
2.95154e-16
3.52415e-16
4.20037e-16
4.99743e-16
5.9351e-16
7.03606e-16
8.32624e-16
9.83521e-16
1.15966e-15
1.36486e-15
1.60344e-15
1.88029e-15
2.20089e-15
2.57141e-15
2.99877e-15
3.49067e-15
4.05572e-15
4.70346e-15
5.44445e-15
6.29037e-15
7.25404e-15
8.34956e-15
9.59233e-15
1.09991e-14
1.25883e-14
1.43794e-14
1.63939e-14
1.86546e-14
2.11861e-14
2.40144e-14
2.71674e-14
3.06743e-14
3.4566e-14
3.88749e-14
4.36345e-14
4.88798e-14
5.46466e-14
6.09718e-14
6.78925e-14
7.54465e-14
8.36713e-14
9.26041e-14
1.02281e-13
1.12738e-13
1.24008e-13
1.36122e-13
1.49108e-13
1.62992e-13
1.77794e-13
1.93531e-13
2.10213e-13
2.27845e-13
2.46426e-13
2.65946e-13
2.86389e-13
3.07728e-13
3.29931e-13
3.52952e-13
3.76737e-13
4.01224e-13
4.26338e-13
4.51993e-13
4.78094e-13
5.04537e-13
5.31204e-13
5.57971e-13
5.84705e-13
6.11262e-13
6.37494e-13
6.63245e-13
6.88355e-13
7.12661e-13
7.35996e-13
7.58195e-13
7.79093e-13
7.98531e-13
8.16353e-13
8.32409e-13
8.46561e-13
8.58681e-13
8.68653e-13
8.76376e-13
8.81767e-13
8.84757e-13
8.85299e-13
8.83365e-13
8.78947e-13
8.7206e-13
8.62739e-13
8.51041e-13
8.37045e-13
8.2085e-13
8.02574e-13
7.82354e-13
7.60345e-13
7.36718e-13
7.11654e-13
6.85349e-13
6.58006e-13
6.29837e-13
6.01056e-13
5.71882e-13
5.4253e-13
5.13217e-13
4.84151e-13
4.55536e-13
4.27566e-13
4.00424e-13
3.74281e-13
3.49296e-13
3.25613e-13
3.0336e-13
2.8265e-13
2.63577e-13
2.46223e-13
2.30648e-13
2.169e-13
2.05008e-13
1.94984e-13
1.86826e-13
1.80516e-13
1.76021e-13
1.73293e-13
1.72269e-13
1.72875e-13
1.75021e-13
1.78606e-13
1.83516e-13
1.89628e-13
1.96804e-13
2.04901e-13
2.13763e-13
2.2323e-13
2.33133e-13
2.43298e-13
2.5355e-13
2.63711e-13
2.73605e-13
2.83059e-13
2.91905e-13
2.99982e-13
3.07142e-13
3.13248e-13
3.18179e-13
3.21832e-13
3.24123e-13
3.24988e-13
3.24386e-13
3.223e-13
3.18735e-13
3.13721e-13
3.07307e-13
2.99566e-13
2.90591e-13
2.8049e-13
2.69388e-13
2.57422e-13
2.44736e-13
2.31483e-13
2.17815e-13
2.03886e-13
1.89846e-13
1.75838e-13
1.61995e-13
1.48441e-13
1.35287e-13
1.22628e-13
1.10544e-13
9.91027e-14
8.83529e-14
7.833e-14
6.90546e-14
6.05341e-14
5.27641e-14
4.57291e-14
3.9405e-14
3.37599e-14
2.8756e-14
2.43514e-14
2.05009e-14
1.7158e-14
1.42755e-14
1.1807e-14
9.70732e-15
7.93342e-15
6.44485e-15
5.20412e-15
4.17691e-15
3.33217e-15
2.64214e-15
2.08225e-15
1.63098e-15
1.2697e-15
9.8237e-16
7.55388e-16
5.77268e-16
4.38421e-16
3.30907e-16
2.48208e-16
1.85019e-16
1.37057e-16
1.00895e-16
7.38094e-17
5.36572e-17
3.87627e-17
2.78269e-17
1.98509e-17
1.4072e-17
9.91266e-18
6.93872e-18
4.82637e-18
3.33585e-18
2.29098e-18
1.56322e-18
1.05949e-18
7.12822e-19
4.75317e-19
3.12898e-19
2.01346e-19
1.2337e-19
6.6403e-20
2.0918e-20
1.1354e-19
3.46126e-19
5.95521e-19
8.73863e-19
1.19465e-18
1.57336e-18
2.02804e-18
2.5801e-18
3.25511e-18
4.08378e-18
5.10311e-18
6.35777e-18
7.90168e-18
9.79993e-18
1.21311e-17
1.49897e-17
1.84897e-17
2.27681e-17
2.79888e-17
3.43484e-17
4.20817e-17
5.14687e-17
6.28425e-17
7.6599e-17
9.3207e-17
1.13221e-16
1.37296e-16
1.66202e-16
2.00844e-16
2.42283e-16
2.91762e-16
3.50729e-16
4.20872e-16
5.04149e-16
6.02834e-16
7.19553e-16
8.57338e-16
1.01968e-15
1.21058e-15
1.43462e-15
1.69706e-15
2.00386e-15
2.36182e-15
2.77863e-15
3.263e-15
3.82477e-15
4.47498e-15
5.22604e-15
6.09181e-15
7.08778e-15
8.23117e-15
9.54108e-15
1.10386e-14
1.27472e-14
1.46922e-14
1.69019e-14
1.94069e-14
2.22405e-14
2.54389e-14
2.90412e-14
3.30896e-14
3.76292e-14
4.27084e-14
4.83785e-14
5.46939e-14
6.17122e-14
6.94937e-14
7.81012e-14
8.76004e-14
9.80587e-14
1.09546e-13
1.22132e-13
1.35889e-13
1.50889e-13
1.67204e-13
1.84903e-13
2.04056e-13
2.24727e-13
2.4698e-13
2.70871e-13
2.9645e-13
3.23763e-13
3.52844e-13
3.83721e-13
4.16408e-13
4.50909e-13
4.87214e-13
5.253e-13
5.65125e-13
6.06635e-13
6.49754e-13
6.94391e-13
7.40434e-13
7.87752e-13
8.36194e-13
8.8559e-13
9.35748e-13
9.8646e-13
1.0375e-12
1.08861e-12
1.13954e-12
1.19002e-12
1.23974e-12
1.28841e-12
1.33573e-12
1.38138e-12
1.42505e-12
1.46641e-12
1.50517e-12
1.54102e-12
1.57367e-12
1.60285e-12
1.62829e-12
1.64978e-12
1.6671e-12
1.68006e-12
1.68853e-12
1.69239e-12
1.69157e-12
1.68603e-12
1.67577e-12
1.66083e-12
1.64129e-12
1.61729e-12
1.58898e-12
1.55657e-12
1.52029e-12
1.48042e-12
1.43726e-12
1.39114e-12
1.34241e-12
1.29145e-12
1.23865e-12
1.18441e-12
1.12913e-12
1.07324e-12
1.01713e-12
9.61212e-13
9.05871e-13
8.51486e-13
7.98414e-13
7.46994e-13
6.97539e-13
6.50337e-13
6.05648e-13
5.63702e-13
5.24699e-13
4.88809e-13
4.5617e-13
4.26888e-13
4.01038e-13
3.78667e-13
3.59787e-13
3.44386e-13
3.32421e-13
3.23822e-13
3.18492e-13
3.16311e-13
3.17132e-13
3.20784e-13
3.27077e-13
3.35797e-13
3.4671e-13
3.59564e-13
3.74089e-13
3.90002e-13
4.07004e-13
4.24786e-13
4.43033e-13
4.61423e-13
4.79633e-13
4.97342e-13
5.14237e-13
5.30015e-13
5.44387e-13
5.57085e-13
5.67865e-13
5.7651e-13
5.82836e-13
5.86695e-13
5.87976e-13
5.86609e-13
5.82564e-13
5.75856e-13
5.6654e-13
5.54712e-13
5.40505e-13
5.24087e-13
5.05658e-13
4.85445e-13
4.63695e-13
4.40671e-13
4.16645e-13
3.91896e-13
3.66699e-13
3.41323e-13
3.16025e-13
2.91045e-13
2.66603e-13
2.42897e-13
2.20096e-13
1.98346e-13
1.77761e-13
1.58432e-13
1.40417e-13
1.23754e-13
1.08454e-13
9.45075e-14
8.18853e-14
7.05427e-14
6.04216e-14
5.14535e-14
4.35619e-14
3.66654e-14
3.06799e-14
2.55203e-14
2.1103e-14
1.73466e-14
1.4174e-14
1.15123e-14
9.29435e-15
7.45849e-15
5.94909e-15
4.71639e-15
3.71637e-15
2.91053e-15
2.26548e-15
1.75258e-15
1.34746e-15
1.0296e-15
7.81868e-16
5.90066e-16
4.42553e-16
3.29855e-16
2.44325e-16
1.79845e-16
1.31554e-16
9.56289e-17
6.90788e-17
4.95871e-17
3.53719e-17
2.50733e-17
1.76614e-17
1.23622e-17
8.59847e-18
5.94283e-18
4.08128e-18
2.78475e-18
1.88737e-18
1.2698e-18
8.46709e-19
5.57382e-19
3.58669e-19
2.19767e-19
1.1829e-19
3.72637e-20
2.11501e-19
6.44738e-19
1.10922e-18
1.62751e-18
2.22468e-18
2.92947e-18
3.77542e-18
4.80224e-18
6.05739e-18
7.59782e-18
9.49215e-18
1.18232e-17
1.46908e-17
1.82155e-17
2.25428e-17
2.78478e-17
3.43413e-17
4.22762e-17
5.1956e-17
6.37438e-17
7.80732e-17
9.54611e-17
1.16522e-16
1.41987e-16
1.72719e-16
2.09741e-16
2.54256e-16
3.07685e-16
3.71691e-16
4.48227e-16
5.39571e-16
6.48386e-16
7.77766e-16
9.31304e-16
1.11316e-15
1.32816e-15
1.58183e-15
1.88055e-15
2.23164e-15
2.64347e-15
3.1256e-15
3.68891e-15
4.34576e-15
5.11015e-15
5.99788e-15
7.02679e-15
8.2169e-15
9.59066e-15
1.11731e-14
1.29923e-14
1.50791e-14
1.7468e-14
2.01971e-14
2.3308e-14
2.68467e-14
3.08634e-14
3.54128e-14
4.05545e-14
4.63527e-14
5.28769e-14
6.02019e-14
6.84075e-14
7.75788e-14
8.78064e-14
9.91857e-14
1.11817e-13
1.25807e-13
1.41263e-13
1.583e-13
1.77034e-13
1.97585e-13
2.20074e-13
2.44623e-13
2.71353e-13
3.00386e-13
3.31839e-13
3.65825e-13
4.02452e-13
4.4182e-13
4.84021e-13
5.29133e-13
5.77224e-13
6.28343e-13
6.82526e-13
7.39784e-13
8.00112e-13
8.63478e-13
9.29825e-13
9.99069e-13
1.0711e-12
1.14576e-12
1.22289e-12
1.30228e-12
1.38368e-12
1.46682e-12
1.55138e-12
1.63704e-12
1.72341e-12
1.81009e-12
1.89665e-12
1.98264e-12
2.06756e-12
2.15093e-12
2.23223e-12
2.31094e-12
2.38652e-12
2.45844e-12
2.52618e-12
2.58923e-12
2.64709e-12
2.69929e-12
2.74537e-12
2.78493e-12
2.8176e-12
2.84306e-12
2.86103e-12
2.87131e-12
2.87372e-12
2.86819e-12
2.85468e-12
2.83323e-12
2.80395e-12
2.76702e-12
2.72267e-12
2.67122e-12
2.61303e-12
2.54854e-12
2.47822e-12
2.40261e-12
2.32227e-12
2.23783e-12
2.14991e-12
2.05919e-12
1.96633e-12
1.87203e-12
1.77696e-12
1.6818e-12
1.58721e-12
1.49384e-12
1.40229e-12
1.31315e-12
1.22696e-12
1.14421e-12
1.06538e-12
9.90857e-13
9.21009e-13
8.56144e-13
7.96516e-13
7.42329e-13
6.93735e-13
6.50837e-13
6.13687e-13
5.82286e-13
5.56594e-13
5.36521e-13
5.21935e-13
5.12663e-13
5.08493e-13
5.09173e-13
5.14416e-13
5.23899e-13
5.37268e-13
5.54139e-13
5.74098e-13
5.96708e-13
6.21506e-13
6.48014e-13
6.75735e-13
7.04162e-13
7.32785e-13
7.61091e-13
7.88571e-13
8.14732e-13
8.39095e-13
8.6121e-13
8.80658e-13
8.97059e-13
9.10077e-13
9.1943e-13
9.24891e-13
9.26293e-13
9.23534e-13
9.16576e-13
9.0545e-13
8.90249e-13
8.7113e-13
8.48309e-13
8.22058e-13
7.92694e-13
7.60575e-13
7.26093e-13
6.89663e-13
6.51713e-13
6.12679e-13
5.72992e-13
5.33072e-13
4.93319e-13
4.54105e-13
4.15774e-13
3.78628e-13
3.42932e-13
3.08906e-13
2.76729e-13
2.46533e-13
2.18412e-13
1.92417e-13
1.68562e-13
1.4683e-13
1.27173e-13
1.09517e-13
9.37718e-14
7.98265e-14
6.7561e-14
5.6847e-14
4.75521e-14
3.95432e-14
3.26891e-14
2.68629e-14
2.19438e-14
1.78184e-14
1.43818e-14
1.15383e-14
9.20109e-15
7.29291e-15
5.74535e-15
4.49862e-15
3.50092e-15
2.7078e-15
2.08151e-15
1.59022e-15
1.2074e-15
9.11066e-16
6.83206e-16
5.09154e-16
3.77085e-16
2.77534e-16
2.0299e-16
1.47541e-16
1.06568e-16
7.64913e-17
5.4559e-17
3.86712e-17
2.72378e-17
1.90641e-17
1.32593e-17
9.16375e-18
6.29303e-18
4.29376e-18
2.91004e-18
1.9578e-18
1.30546e-18
8.59374e-19
5.53e-19
3.38842e-19
1.82384e-19
5.74552e-20
3.81762e-19
1.16372e-18
2.00194e-18
2.93704e-18
4.01419e-18
5.28505e-18
6.80996e-18
8.66035e-18
1.09215e-17
1.36957e-17
1.71063e-17
2.13017e-17
2.64614e-17
3.28016e-17
4.0583e-17
5.01195e-17
6.17887e-17
7.60437e-17
9.34277e-17
1.1459e-16
1.40307e-16
1.71502e-16
2.09273e-16
2.54924e-16
3.09997e-16
3.76315e-16
4.56026e-16
5.51656e-16
6.66171e-16
8.03041e-16
9.66322e-16
1.16074e-15
1.39179e-15
1.66585e-15
1.9903e-15
2.37366e-15
2.82574e-15
3.35782e-15
3.98283e-15
4.71553e-15
5.57278e-15
6.57375e-15
7.74017e-15
9.09666e-15
1.0671e-14
1.24944e-14
1.46019e-14
1.70329e-14
1.9831e-14
2.30451e-14
2.67291e-14
3.0943e-14
3.57526e-14
4.12303e-14
4.74557e-14
5.45153e-14
6.25036e-14
7.15227e-14
8.16832e-14
9.3104e-14
1.05913e-13
1.20245e-13
1.36247e-13
1.54071e-13
1.73878e-13
1.95838e-13
2.20127e-13
2.4693e-13
2.76434e-13
3.08833e-13
3.44325e-13
3.83109e-13
4.25383e-13
4.71345e-13
5.21189e-13
5.75103e-13
6.33266e-13
6.95845e-13
7.62994e-13
8.34849e-13
9.11525e-13
9.93114e-13
1.07968e-12
1.17126e-12
1.26784e-12
1.3694e-12
1.47585e-12
1.58707e-12
1.70289e-12
1.82309e-12
1.94741e-12
2.07552e-12
2.20705e-12
2.34156e-12
2.47857e-12
2.61756e-12
2.75791e-12
2.89901e-12
3.04016e-12
3.18063e-12
3.31965e-12
3.45644e-12
3.59015e-12
3.71995e-12
3.84499e-12
3.9644e-12
4.07732e-12
4.18293e-12
4.2804e-12
4.36895e-12
4.44785e-12
4.51641e-12
4.57401e-12
4.6201e-12
4.65422e-12
4.67597e-12
4.68507e-12
4.68133e-12
4.66467e-12
4.6351e-12
4.59275e-12
4.53787e-12
4.47081e-12
4.392e-12
4.30202e-12
4.2015e-12
4.09119e-12
3.97191e-12
3.84455e-12
3.71008e-12
3.56948e-12
3.42382e-12
3.27417e-12
3.12161e-12
2.96725e-12
2.81217e-12
2.65744e-12
2.5041e-12
2.35315e-12
2.20554e-12
2.06216e-12
1.92384e-12
1.79135e-12
1.66536e-12
1.54648e-12
1.43524e-12
1.33208e-12
1.23736e-12
1.15135e-12
1.07427e-12
1.00622e-12
9.47241e-13
8.97309e-13
8.56317e-13
8.24093e-13
8.00401e-13
7.84941e-13
7.77356e-13
7.77233e-13
7.84105e-13
7.97457e-13
8.16725e-13
8.41306e-13
8.70554e-13
9.03789e-13
9.403e-13
9.79349e-13
1.02018e-12
1.06203e-12
1.10411e-12
1.14566e-12
1.18592e-12
1.22414e-12
1.25962e-12
1.29168e-12
1.3197e-12
1.34314e-12
1.36149e-12
1.37435e-12
1.3814e-12
1.38239e-12
1.3772e-12
1.36577e-12
1.34817e-12
1.32455e-12
1.29516e-12
1.26033e-12
1.22046e-12
1.17605e-12
1.12763e-12
1.07579e-12
1.02114e-12
9.64334e-13
9.06004e-13
8.46792e-13
7.87319e-13
7.28172e-13
6.69901e-13
6.13004e-13
5.57927e-13
5.05051e-13
4.54698e-13
4.07122e-13
3.62515e-13
3.21004e-13
2.82662e-13
2.47502e-13
2.15494e-13
1.8656e-13
1.60591e-13
1.37444e-13
1.16956e-13
9.89455e-14
8.32221e-14
6.95885e-14
5.78471e-14
4.78035e-14
3.927e-14
3.20683e-14
2.60312e-14
2.10043e-14
1.68464e-14
1.34301e-14
1.0642e-14
8.38156e-15
6.56113e-15
5.10478e-15
3.94741e-15
3.03373e-15
2.31722e-15
1.75903e-15
1.32706e-15
9.94983e-16
7.4138e-16
5.48987e-16
4.03994e-16
2.95443e-16
2.14712e-16
1.55067e-16
1.1129e-16
7.93722e-17
5.62536e-17
3.96186e-17
2.77277e-17
1.92837e-17
1.33266e-17
9.15137e-18
6.24379e-18
4.23153e-18
2.84682e-18
1.89824e-18
1.24959e-18
8.04101e-19
4.92704e-19
2.65204e-19
8.35463e-20
6.79541e-19
2.07135e-18
3.56308e-18
5.22683e-18
7.14276e-18
9.40256e-18
1.21133e-17
1.54015e-17
1.94183e-17
2.43451e-17
3.04001e-17
3.78463e-17
4.7001e-17
5.82468e-17
7.20446e-17
8.89492e-17
1.09628e-16
1.3488e-16
1.65665e-16
2.03128e-16
2.48638e-16
3.03821e-16
3.70614e-16
4.51311e-16
5.48626e-16
6.65763e-16
8.06499e-16
9.75271e-16
1.17728e-15
1.41862e-15
1.7064e-15
2.0489e-15
2.45573e-15
2.93805e-15
3.50876e-15
4.18272e-15
4.97708e-15
5.91147e-15
7.0084e-15
8.29358e-15
9.7963e-15
1.15498e-14
1.35919e-14
1.5965e-14
1.87174e-14
2.19029e-14
2.55821e-14
2.98227e-14
3.46999e-14
4.02976e-14
4.67084e-14
5.40349e-14
6.23898e-14
7.18968e-14
8.26912e-14
9.49203e-14
1.08744e-13
1.24337e-13
1.41884e-13
1.61586e-13
1.83658e-13
2.08328e-13
2.35839e-13
2.66445e-13
3.00416e-13
3.38031e-13
3.79582e-13
4.25371e-13
4.75707e-13
5.30905e-13
5.91284e-13
6.57165e-13
7.28867e-13
8.06704e-13
8.90979e-13
9.81987e-13
1.08e-12
1.18528e-12
1.29804e-12
1.41849e-12
1.54679e-12
1.68304e-12
1.82732e-12
1.97964e-12
2.13997e-12
2.30819e-12
2.48413e-12
2.66754e-12
2.85809e-12
3.05538e-12
3.25891e-12
3.46812e-12
3.68233e-12
3.90081e-12
4.12271e-12
4.34712e-12
4.57303e-12
4.79938e-12
5.02502e-12
5.24874e-12
5.46929e-12
5.68535e-12
5.89559e-12
6.09865e-12
6.29316e-12
6.47775e-12
6.65107e-12
6.81182e-12
6.95873e-12
7.09061e-12
7.20634e-12
7.3049e-12
7.38537e-12
7.44696e-12
7.48902e-12
7.51104e-12
7.51267e-12
7.4937e-12
7.45411e-12
7.39406e-12
7.31385e-12
7.21398e-12
7.0951e-12
6.95803e-12
6.80375e-12
6.63338e-12
6.44816e-12
6.24947e-12
6.03878e-12
5.81764e-12
5.5877e-12
5.35063e-12
5.10814e-12
4.86196e-12
4.61381e-12
4.36538e-12
4.11833e-12
3.87426e-12
3.63468e-12
3.40105e-12
3.1747e-12
2.95686e-12
2.74866e-12
2.5511e-12
2.36504e-12
2.19123e-12
2.0303e-12
1.88271e-12
1.74883e-12
1.6289e-12
1.52303e-12
1.43121e-12
1.35334e-12
1.2892e-12
1.23847e-12
1.20073e-12
1.17549e-12
1.16214e-12
1.16004e-12
1.16844e-12
1.18652e-12
1.21342e-12
1.24819e-12
1.28986e-12
1.33739e-12
1.38971e-12
1.44572e-12
1.50427e-12
1.56424e-12
1.62448e-12
1.68384e-12
1.74122e-12
1.79553e-12
1.84574e-12
1.89089e-12
1.93008e-12
1.96252e-12
1.98751e-12
2.00447e-12
2.01295e-12
2.01264e-12
2.00335e-12
1.98504e-12
1.95783e-12
1.92195e-12
1.87778e-12
1.82583e-12
1.7667e-12
1.7011e-12
1.62984e-12
1.55375e-12
1.47376e-12
1.39077e-12
1.30573e-12
1.21956e-12
1.13314e-12
1.04732e-12
9.62887e-13
8.80548e-13
8.00935e-13
7.24589e-13
6.51961e-13
5.83406e-13
5.19189e-13
4.59484e-13
4.04382e-13
3.53895e-13
3.07969e-13
2.66486e-13
2.29279e-13
1.96138e-13
1.66824e-13
1.41071e-13
1.18602e-13
9.91307e-14
8.2371e-14
6.80425e-14
5.58747e-14
4.5611e-14
3.70112e-14
2.98536e-14
2.39359e-14
1.90759e-14
1.5111e-14
1.18978e-14
9.31105e-15
7.24234e-15
5.59889e-15
4.30189e-15
3.28508e-15
2.49319e-15
1.88054e-15
1.40968e-15
1.05018e-15
7.77512e-16
5.72067e-16
4.18292e-16
3.03948e-16
2.19484e-16
1.57503e-16
1.12318e-16
7.95955e-17
5.60529e-17
3.92263e-17
2.72786e-17
1.88506e-17
1.2944e-17
8.83108e-18
5.98479e-18
4.02626e-18
2.68465e-18
1.76726e-18
1.13723e-18
6.96829e-19
3.7508e-19
1.18161e-19
1.19883e-18
3.65409e-18
6.2852e-18
9.21903e-18
1.25966e-17
1.65792e-17
2.13549e-17
2.71462e-17
3.42187e-17
4.28906e-17
5.35451e-17
6.66437e-17
8.27428e-17
1.02513e-16
1.26762e-16
1.56463e-16
1.92781e-16
2.3712e-16
2.91154e-16
3.56888e-16
4.36713e-16
5.33473e-16
6.50545e-16
7.91934e-16
9.62375e-16
1.16745e-15
1.41375e-15
1.70898e-15
2.06221e-15
2.48403e-15
2.98678e-15
3.58484e-15
4.29491e-15
5.13631e-15
6.13139e-15
7.3059e-15
8.68945e-15
1.0316e-14
1.22244e-14
1.4459e-14
1.70702e-14
2.01153e-14
2.36591e-14
2.77748e-14
3.25448e-14
3.80616e-14
4.44286e-14
5.17615e-14
6.01888e-14
6.98532e-14
8.09124e-14
9.35403e-14
1.07928e-13
1.24285e-13
1.4284e-13
1.6384e-13
1.87556e-13
2.14279e-13
2.4432e-13
2.78015e-13
3.15721e-13
3.57817e-13
4.04706e-13
4.56808e-13
5.14566e-13
5.7844e-13
6.48906e-13
7.26454e-13
8.11586e-13
9.0481e-13
1.00664e-12
1.11758e-12
1.23814e-12
1.36881e-12
1.51006e-12
1.66234e-12
1.82608e-12
2.00164e-12
2.18935e-12
2.38949e-12
2.60225e-12
2.82779e-12
3.06614e-12
3.31726e-12
3.58102e-12
3.85717e-12
4.14535e-12
4.44507e-12
4.75573e-12
5.07658e-12
5.40676e-12
5.74524e-12
6.09087e-12
6.44237e-12
6.79833e-12
7.15718e-12
7.51726e-12
7.87679e-12
8.23387e-12
8.58654e-12
8.93274e-12
9.27036e-12
9.59727e-12
9.91128e-12
1.02102e-11
1.0492e-11
1.07545e-11
1.09956e-11
1.12135e-11
1.14064e-11
1.15726e-11
1.17105e-11
1.1819e-11
1.18968e-11
1.19431e-11
1.19573e-11
1.19389e-11
1.18879e-11
1.18044e-11
1.16887e-11
1.15416e-11
1.1364e-11
1.11572e-11
1.09225e-11
1.06616e-11
1.03764e-11
1.00691e-11
9.74181e-12
9.39701e-12
9.0372e-12
8.66498e-12
8.28303e-12
7.89402e-12
7.50067e-12
7.10564e-12
6.71155e-12
6.32091e-12
5.93617e-12
5.55961e-12
5.19339e-12
4.83949e-12
4.49974e-12
4.17575e-12
3.86896e-12
3.58059e-12
3.31168e-12
3.06306e-12
2.83536e-12
2.629e-12
2.44426e-12
2.28118e-12
2.13966e-12
2.01944e-12
1.92009e-12
1.84105e-12
1.78161e-12
1.74093e-12
1.71807e-12
1.71197e-12
1.72145e-12
1.74527e-12
1.78208e-12
1.83046e-12
1.88891e-12
1.95588e-12
2.02978e-12
2.10896e-12
2.19175e-12
2.27648e-12
2.36147e-12
2.44508e-12
2.52568e-12
2.60172e-12
2.67172e-12
2.7343e-12
2.7882e-12
2.83229e-12
2.86559e-12
2.88731e-12
2.89682e-12
2.89371e-12
2.87775e-12
2.84891e-12
2.80739e-12
2.75356e-12
2.688e-12
2.61144e-12
2.52479e-12
2.42909e-12
2.32547e-12
2.21518e-12
2.09952e-12
1.97981e-12
1.85737e-12
1.73353e-12
1.60954e-12
1.48661e-12
1.36582e-12
1.24819e-12
1.13459e-12
1.02578e-12
9.22378e-13
8.2488e-13
7.33641e-13
6.48893e-13
5.70749e-13
4.99212e-13
4.34189e-13
3.75504e-13
3.22908e-13
2.76095e-13
2.34715e-13
1.98387e-13
1.66712e-13
1.39279e-13
1.15681e-13
9.55179e-14
7.84047e-14
6.39771e-14
5.18946e-14
4.18432e-14
3.3537e-14
2.67184e-14
2.11581e-14
1.66538e-14
1.3029e-14
1.01313e-14
7.83011e-15
6.01465e-15
4.59185e-15
3.48412e-15
2.62737e-15
1.96909e-15
1.46663e-15
1.08563e-15
7.98626e-16
5.83852e-16
4.24185e-16
3.06265e-16
2.19748e-16
1.56688e-16
1.11026e-16
7.81792e-17
5.47056e-17
3.80402e-17
2.62856e-17
1.80484e-17
1.2313e-17
8.34416e-18
5.61338e-18
3.74286e-18
2.46386e-18
1.58548e-18
9.71505e-19
5.22934e-19
1.64741e-19
2.0992e-18
6.39822e-18
1.10044e-17
1.61394e-17
2.20495e-17
2.90162e-17
3.73676e-17
4.74921e-17
5.98524e-17
7.50035e-17
9.36129e-17
1.16484e-16
1.44587e-16
1.79088e-16
2.21392e-16
2.7319e-16
3.36511e-16
4.1379e-16
5.07938e-16
6.22435e-16
7.61428e-16
9.29849e-16
1.13356e-15
1.37949e-15
1.67584e-15
2.03227e-15
2.46018e-15
2.97291e-15
3.5861e-15
4.31803e-15
5.19002e-15
6.22685e-15
7.45728e-15
8.91458e-15
1.06372e-14
1.26694e-14
1.5062e-14
1.78733e-14
2.11699e-14
2.50276e-14
2.95329e-14
3.47836e-14
4.08903e-14
4.79779e-14
5.61866e-14
6.56737e-14
7.66152e-14
8.92071e-14
1.03667e-13
1.20237e-13
1.39183e-13
1.60798e-13
1.85404e-13
2.13352e-13
2.45027e-13
2.80844e-13
3.21253e-13
3.66738e-13
4.17819e-13
4.75053e-13
5.39031e-13
6.10378e-13
6.89755e-13
7.77854e-13
8.75398e-13
9.83135e-13
1.10184e-12
1.2323e-12
1.37533e-12
1.53173e-12
1.70233e-12
1.88791e-12
2.08929e-12
2.30721e-12
2.54241e-12
2.79557e-12
3.0673e-12
3.35815e-12
3.66858e-12
3.99897e-12
4.34955e-12
4.72044e-12
5.11164e-12
5.52297e-12
5.95408e-12
6.40447e-12
6.87343e-12
7.36006e-12
7.86323e-12
8.38164e-12
8.91375e-12
9.45778e-12
1.00118e-11
1.05736e-11
1.11407e-11
1.17107e-11
1.22807e-11
1.28478e-11
1.34089e-11
1.39609e-11
1.45003e-11
1.50239e-11
1.55282e-11
1.60098e-11
1.64654e-11
1.68915e-11
1.7285e-11
1.76427e-11
1.79618e-11
1.82396e-11
1.84737e-11
1.86618e-11
1.88021e-11
1.88932e-11
1.89339e-11
1.89235e-11
1.88616e-11
1.87482e-11
1.8584e-11
1.83698e-11
1.8107e-11
1.77972e-11
1.74427e-11
1.70459e-11
1.66098e-11
1.61374e-11
1.56321e-11
1.50977e-11
1.45381e-11
1.39572e-11
1.33592e-11
1.27483e-11
1.21287e-11
1.15045e-11
1.08799e-11
1.02589e-11
9.64525e-12
9.04268e-12
8.45459e-12
7.88417e-12
7.33434e-12
6.80774e-12
6.30668e-12
5.83321e-12
5.38902e-12
4.97552e-12
4.5938e-12
4.24463e-12
3.92852e-12
3.64567e-12
3.39603e-12
3.17927e-12
2.99485e-12
2.84198e-12
2.71969e-12
2.62679e-12
2.56193e-12
2.52358e-12
2.51007e-12
2.51959e-12
2.55021e-12
2.59985e-12
2.66639e-12
2.74756e-12
2.84107e-12
2.94452e-12
3.05551e-12
3.17158e-12
3.2903e-12
3.40923e-12
3.52599e-12
3.63825e-12
3.74378e-12
3.84049e-12
3.9264e-12
3.99975e-12
4.05896e-12
4.10267e-12
4.12978e-12
4.13946e-12
4.13115e-12
4.10457e-12
4.05976e-12
3.99702e-12
3.91694e-12
3.82036e-12
3.70839e-12
3.58233e-12
3.44369e-12
3.29412e-12
3.13538e-12
2.96934e-12
2.79787e-12
2.62285e-12
2.44615e-12
2.26954e-12
2.09468e-12
1.92314e-12
1.7563e-12
1.59537e-12
1.44142e-12
1.29528e-12
1.15764e-12
1.02895e-12
9.0954e-13
7.99533e-13
6.98917e-13
6.07541e-13
5.25137e-13
4.5134e-13
3.85706e-13
3.27732e-13
2.76871e-13
2.32553e-13
1.94196e-13
1.6122e-13
1.33061e-13
1.09176e-13
8.90491e-14
7.22029e-14
5.81958e-14
4.66263e-14
3.71333e-14
2.93955e-14
2.31299e-14
1.80899e-14
1.40624e-14
1.08652e-14
8.34372e-15
6.36829e-15
4.83081e-15
3.64204e-15
2.72892e-15
2.03215e-15
1.50394e-15
1.10614e-15
8.08528e-16
5.87323e-16
4.23988e-16
3.04173e-16
2.16858e-16
1.53644e-16
1.08178e-16
7.569e-17
5.26277e-17
3.63629e-17
2.49662e-17
1.70316e-17
1.15415e-17
7.76409e-18
5.17682e-18
3.40778e-18
2.1929e-18
1.34371e-18
7.23287e-19
2.27861e-19
3.64998e-18
1.11245e-17
1.9132e-17
2.80567e-17
3.83258e-17
5.04272e-17
6.49299e-17
8.25061e-17
1.03957e-16
1.30245e-16
1.62523e-16
2.02182e-16
2.50898e-16
3.10688e-16
3.83981e-16
4.73696e-16
5.83336e-16
7.17103e-16
8.8002e-16
1.07809e-15
1.31845e-15
1.60961e-15
1.96164e-15
2.3865e-15
2.89827e-15
3.51359e-15
4.252e-15
5.13643e-15
6.19373e-15
7.45525e-15
8.95751e-15
1.0743e-14
1.28609e-14
1.53681e-14
1.83303e-14
2.18232e-14
2.59334e-14
3.07603e-14
3.64173e-14
4.30337e-14
5.0756e-14
5.97506e-14
7.02051e-14
8.2331e-14
9.63658e-14
1.12575e-13
1.31257e-13
1.5274e-13
1.77393e-13
2.0562e-13
2.3787e-13
2.74633e-13
3.16448e-13
3.63902e-13
4.17635e-13
4.78338e-13
5.46758e-13
6.23699e-13
7.10019e-13
8.06636e-13
9.14522e-13
1.0347e-12
1.16826e-12
1.31632e-12
1.48006e-12
1.66068e-12
1.85945e-12
2.07761e-12
2.31647e-12
2.57732e-12
2.86142e-12
3.17006e-12
3.50445e-12
3.86576e-12
4.25511e-12
4.67351e-12
5.12187e-12
5.60096e-12
6.11142e-12
6.6537e-12
7.22807e-12
7.83456e-12
8.473e-12
9.14293e-12
9.84363e-12
1.05741e-11
1.1333e-11
1.21186e-11
1.29291e-11
1.3762e-11
1.46148e-11
1.54843e-11
1.63673e-11
1.72602e-11
1.81588e-11
1.90589e-11
1.99561e-11
2.08454e-11
2.17219e-11
2.25805e-11
2.34159e-11
2.42227e-11
2.49956e-11
2.57291e-11
2.6418e-11
2.70572e-11
2.76418e-11
2.81671e-11
2.86288e-11
2.90229e-11
2.93459e-11
2.95947e-11
2.97667e-11
2.98601e-11
2.98734e-11
2.98059e-11
2.96575e-11
2.94288e-11
2.91209e-11
2.87358e-11
2.82759e-11
2.77444e-11
2.7145e-11
2.64819e-11
2.57599e-11
2.49842e-11
2.41605e-11
2.32946e-11
2.23927e-11
2.14612e-11
2.05066e-11
1.95355e-11
1.85544e-11
1.75696e-11
1.65876e-11
1.56143e-11
1.46554e-11
1.37166e-11
1.28028e-11
1.19188e-11
1.10688e-11
1.02566e-11
9.48539e-12
8.75815e-12
8.07717e-12
7.4443e-12
6.86094e-12
6.32801e-12
5.846e-12
5.41497e-12
5.03459e-12
4.70415e-12
4.42261e-12
4.1886e-12
4.00044e-12
3.8562e-12
3.75368e-12
3.69048e-12
3.66398e-12
3.67137e-12
3.70968e-12
3.7758e-12
3.86649e-12
3.9784e-12
4.10807e-12
4.25202e-12
4.40667e-12
4.56848e-12
4.73388e-12
4.89936e-12
5.0615e-12
5.21695e-12
5.36256e-12
5.49533e-12
5.61251e-12
5.7116e-12
5.7904e-12
5.84704e-12
5.88003e-12
5.88823e-12
5.87092e-12
5.8278e-12
5.75895e-12
5.66489e-12
5.5465e-12
5.40506e-12
5.24216e-12
5.05971e-12
4.85987e-12
4.64501e-12
4.41764e-12
4.18039e-12
3.93593e-12
3.68692e-12
3.43596e-12
3.18554e-12
2.938e-12
2.69549e-12
2.45993e-12
2.23302e-12
2.01619e-12
1.8106e-12
1.61715e-12
1.43649e-12
1.26901e-12
1.11486e-12
9.73993e-13
8.46172e-13
7.30995e-13
6.27929e-13
5.36333e-13
4.55485e-13
3.84606e-13
3.22886e-13
2.69502e-13
2.23637e-13
1.84495e-13
1.51311e-13
1.23366e-13
9.99873e-14
8.05588e-14
6.45192e-14
5.13647e-14
4.06473e-14
3.19728e-14
2.49979e-14
1.94264e-14
1.50052e-14
1.15198e-14
8.79006e-15
6.6662e-15
5.02457e-15
3.76397e-15
2.80231e-15
2.07349e-15
1.52476e-15
1.11431e-15
8.09315e-16
5.84154e-16
4.19019e-16
2.98698e-16
2.11602e-16
1.48969e-16
1.04221e-16
7.24595e-17
5.0062e-17
3.43697e-17
2.34454e-17
1.58871e-17
1.06872e-17
7.12569e-18
4.69064e-18
3.01842e-18
1.84956e-18
9.95582e-19
3.13645e-19
6.3027e-18
1.92089e-17
3.30332e-17
4.8438e-17
6.61586e-17
8.70352e-17
1.12047e-16
1.42351e-16
1.79326e-16
2.24624e-16
2.80229e-16
3.48531e-16
4.32408e-16
5.35324e-16
6.61446e-16
8.15784e-16
1.00435e-15
1.23434e-15
1.51436e-15
1.85469e-15
2.26758e-15
2.76755e-15
3.37187e-15
4.10095e-15
4.97888e-15
6.03406e-15
7.29985e-15
8.81539e-15
1.06265e-14
1.27865e-14
1.53576e-14
1.84122e-14
2.20339e-14
2.63194e-14
3.13803e-14
3.73449e-14
4.43602e-14
5.25945e-14
6.22398e-14
7.35147e-14
8.66668e-14
1.01977e-13
1.19761e-13
1.40376e-13
1.6422e-13
1.91742e-13
2.23438e-13
2.59864e-13
3.01632e-13
3.49421e-13
4.03977e-13
4.66119e-13
5.36743e-13
6.16824e-13
7.07421e-13
8.09678e-13
9.24829e-13
1.0542e-12
1.19919e-12
1.36132e-12
1.54217e-12
1.74341e-12
1.96681e-12
2.21418e-12
2.48743e-12
2.7885e-12
3.11939e-12
3.48213e-12
3.87875e-12
4.3113e-12
4.78177e-12
5.29214e-12
5.84429e-12
6.44001e-12
7.08097e-12
7.76866e-12
8.50438e-12
9.28923e-12
1.0124e-11
1.10093e-11
1.19452e-11
1.29316e-11
1.3968e-11
1.50533e-11
1.61862e-11
1.73646e-11
1.85862e-11
1.9848e-11
2.11466e-11
2.24779e-11
2.38374e-11
2.522e-11
2.66201e-11
2.80315e-11
2.94478e-11
3.08619e-11
3.22663e-11
3.36535e-11
3.50153e-11
3.63434e-11
3.76297e-11
3.88654e-11
4.00424e-11
4.11522e-11
4.21868e-11
4.31383e-11
4.39992e-11
4.47626e-11
4.54221e-11
4.59719e-11
4.6407e-11
4.67231e-11
4.69168e-11
4.69857e-11
4.69283e-11
4.67439e-11
4.64333e-11
4.59978e-11
4.54401e-11
4.47637e-11
4.39731e-11
4.30738e-11
4.20721e-11
4.09752e-11
3.97909e-11
3.85278e-11
3.71948e-11
3.58015e-11
3.43576e-11
3.28732e-11
3.13584e-11
2.98234e-11
2.82783e-11
2.67328e-11
2.51965e-11
2.36786e-11
2.21876e-11
2.07317e-11
1.93184e-11
1.79545e-11
1.66461e-11
1.53986e-11
1.42168e-11
1.31044e-11
1.20647e-11