/*--------------------------------*- C++ -*----------------------------------*\
| =========                 |                                                 |
| \\      /  F ield         | OpenFOAM: The Open Source CFD Toolbox           |
|  \\    /   O peration     | Version:  v2012                                 |
|   \\  /    A nd           | Website:  www.openfoam.com                      |
|    \\/     M anipulation  |                                                 |
\*---------------------------------------------------------------------------*/
FoamFile
{
    version     2.0;
    format      ascii;
    class       surfaceScalarField;
    location    "3.5";
    object      phi;
}
// * * * * * * * * * * * * * * * * * * * * * * * * * * * * * * * * * * * * * //

dimensions      [0 3 -1 0 0 0 0];
oriented        oriented;


internalField   nonuniform List<scalar> 
130560
(
3.54412e-06
-3.54412e-06
7.08804e-06
-3.54392e-06
1.06316e-05
-3.54352e-06
1.41745e-05
-3.54292e-06
1.77166e-05
-3.54212e-06
2.12577e-05
-3.54112e-06
2.47976e-05
-3.5399e-06
2.83361e-05
-3.53848e-06
3.18729e-05
-3.53684e-06
3.54079e-05
-3.53499e-06
3.89408e-05
-3.53291e-06
4.24714e-05
-3.53059e-06
4.59995e-05
-3.52805e-06
4.95247e-05
-3.52525e-06
5.30469e-05
-3.52221e-06
5.65659e-05
-3.51891e-06
6.00812e-05
-3.51535e-06
6.35927e-05
-3.51151e-06
6.71001e-05
-3.50738e-06
7.0603e-05
-3.50296e-06
7.41013e-05
-3.49824e-06
7.75945e-05
-3.4932e-06
8.10823e-05
-3.48783e-06
8.45644e-05
-3.48213e-06
8.80405e-05
-3.47608e-06
9.15102e-05
-3.46966e-06
9.4973e-05
-3.46287e-06
9.84287e-05
-3.4557e-06
0.000101877
-3.44812e-06
0.000105317
-3.44013e-06
0.000108749
-3.43171e-06
0.000112172
-3.42285e-06
0.000115585
-3.41354e-06
0.000118989
-3.40375e-06
0.000122382
-3.39348e-06
0.000125765
-3.38271e-06
0.000129136
-3.37142e-06
0.000132496
-3.35961e-06
0.000135843
-3.34724e-06
0.000139178
-3.33432e-06
0.000142498
-3.32082e-06
0.000145805
-3.30674e-06
0.000149097
-3.29205e-06
0.000152374
-3.27673e-06
0.000155635
-3.26079e-06
0.000158879
-3.24419e-06
0.000162106
-3.22693e-06
0.000165315
-3.209e-06
0.000168505
-3.19037e-06
0.000171676
-3.17104e-06
0.000174827
-3.151e-06
0.000177958
-3.13022e-06
0.000181066
-3.1087e-06
0.000184153
-3.08643e-06
0.000187216
-3.0634e-06
0.000190256
-3.03959e-06
0.000193271
-3.015e-06
0.00019626
-2.98961e-06
0.000199224
-2.96343e-06
0.00020216
-2.93643e-06
0.000205069
-2.90862e-06
0.000207949
-2.87998e-06
0.000210799
-2.85052e-06
0.000213619
-2.82022e-06
0.000216409
-2.78909e-06
0.000219166
-2.75712e-06
0.00022189
-2.72431e-06
0.000224581
-2.69066e-06
0.000227237
-2.65617e-06
0.000229858
-2.62084e-06
0.000232442
-2.58468e-06
0.00023499
-2.54768e-06
0.0002375
-2.50985e-06
0.000239971
-2.47119e-06
0.000242403
-2.43172e-06
0.000244794
-2.39144e-06
0.000247145
-2.35036e-06
0.000249453
-2.30849e-06
0.000251719
-2.26583e-06
0.000253941
-2.22241e-06
0.00025612
-2.17824e-06
0.000258253
-2.13332e-06
0.000260341
-2.08768e-06
0.000262382
-2.04133e-06
0.000264376
-1.99428e-06
0.000266323
-1.94656e-06
0.000268221
-1.89818e-06
0.00027007
-1.84917e-06
0.00027187
-1.79954e-06
0.000273619
-1.74932e-06
0.000275317
-1.69853e-06
0.000276965
-1.64719e-06
0.00027856
-1.59533e-06
0.000280103
-1.54296e-06
0.000281593
-1.49013e-06
0.00028303
-1.43684e-06
0.000284413
-1.38313e-06
0.000285742
-1.32902e-06
0.000287017
-1.27455e-06
0.000288236
-1.21973e-06
0.000289401
-1.1646e-06
0.00029051
-1.10919e-06
0.000291564
-1.05351e-06
0.000292561
-9.9761e-07
0.000293503
-9.41506e-07
0.000294388
-8.8523e-07
0.000295217
-8.28811e-07
0.000295989
-7.72275e-07
0.000296705
-7.15652e-07
0.000297364
-6.5897e-07
0.000297966
-6.02255e-07
0.000298512
-5.45537e-07
0.000299
-4.88842e-07
0.000299433
-4.32196e-07
0.000299808
-3.75627e-07
0.000300127
-3.1916e-07
0.00030039
-2.6282e-07
0.000300597
-2.06633e-07
0.000300747
-1.50622e-07
0.000300842
-9.48124e-08
0.000300881
-3.92262e-08
0.000300865
1.61138e-08
0.000300794
7.11858e-08
0.000300668
1.25969e-07
0.000300488
1.80442e-07
0.000300253
2.34586e-07
0.000299965
2.88382e-07
0.000299623
3.41811e-07
0.000299228
3.94856e-07
0.000298781
4.47501e-07
0.000298281
4.99728e-07
0.000297729
5.51524e-07
0.000297126
6.02874e-07
0.000296473
6.53764e-07
0.000295769
7.0418e-07
0.000295014
7.54112e-07
0.000294211
8.03546e-07
0.000293358
8.52473e-07
0.000292458
9.00883e-07
0.000291509
9.48766e-07
0.000290513
9.96113e-07
0.00028947
1.04292e-06
0.000288381
1.08917e-06
0.000287246
1.13486e-06
0.000286066
1.17999e-06
0.000284841
1.22455e-06
0.000283573
1.26854e-06
0.000282261
1.31194e-06
0.000280906
1.35476e-06
0.000279509
1.397e-06
0.00027807
1.43864e-06
0.000276591
1.4797e-06
0.00027507
1.52016e-06
0.00027351
1.56002e-06
0.000271911
1.59928e-06
0.000270273
1.63795e-06
0.000268597
1.67601e-06
0.000266884
1.71348e-06
0.000265133
1.75034e-06
0.000263347
1.78661e-06
0.000261524
1.82228e-06
0.000259667
1.85735e-06
0.000257775
1.89183e-06
0.00025585
1.92571e-06
0.000253891
1.959e-06
0.000251899
1.99169e-06
0.000249875
2.0238e-06
0.00024782
2.05532e-06
0.000245733
2.08626e-06
0.000243617
2.11661e-06
0.00024147
2.14639e-06
0.000239295
2.17559e-06
0.000237091
2.20422e-06
0.000234858
2.23228e-06
0.000232599
2.25978e-06
0.000230312
2.28671e-06
0.000227999
2.31308e-06
0.00022566
2.3389e-06
0.000223296
2.36417e-06
0.000220907
2.3889e-06
0.000218494
2.41308e-06
0.000216057
2.43673e-06
0.000213597
2.45984e-06
0.000211115
2.48243e-06
0.00020861
2.5045e-06
0.000206084
2.52604e-06
0.000203537
2.54708e-06
0.00020097
2.5676e-06
0.000198382
2.58763e-06
0.000195775
2.60715e-06
0.000193149
2.62619e-06
0.000190504
2.64474e-06
0.000187841
2.66281e-06
0.000185161
2.68041e-06
0.000182463
2.69753e-06
0.000179749
2.7142e-06
0.000177018
2.73041e-06
0.000174272
2.74617e-06
0.000171511
2.76149e-06
0.000168734
2.77636e-06
0.000165944
2.79081e-06
0.000163139
2.80483e-06
0.00016032
2.81844e-06
0.000157489
2.83164e-06
0.000154644
2.84443e-06
0.000151787
2.85682e-06
0.000148919
2.86882e-06
0.000146038
2.88044e-06
0.000143147
2.89168e-06
0.000140244
2.90255e-06
0.000137331
2.91305e-06
0.000134408
2.9232e-06
0.000131475
2.93301e-06
0.000128532
2.94246e-06
0.000125581
2.95159e-06
0.00012262
2.96038e-06
0.000119651
2.96885e-06
0.000116674
2.97701e-06
0.00011369
2.98486e-06
0.000110697
2.9924e-06
0.000107697
2.99966e-06
0.000104691
3.00662e-06
0.000101678
3.0133e-06
9.86579e-05
3.01971e-06
9.5632e-05
3.02585e-06
9.26003e-05
3.03173e-06
8.95629e-05
3.03735e-06
8.65202e-05
3.04272e-06
8.34724e-05
3.04784e-06
8.04197e-05
3.05273e-06
7.73623e-05
3.05738e-06
7.43005e-05
3.06181e-06
7.12344e-05
3.06601e-06
6.81644e-05
3.07e-06
6.50907e-05
3.07378e-06
6.20133e-05
3.07735e-06
5.89326e-05
3.08072e-06
5.58487e-05
3.08389e-06
5.27619e-05
3.08686e-06
4.96722e-05
3.08965e-06
4.65799e-05
3.09225e-06
4.34853e-05
3.09468e-06
4.03884e-05
3.09692e-06
3.72894e-05
3.09899e-06
3.41885e-05
3.10089e-06
3.10859e-05
3.10262e-06
2.79817e-05
3.10418e-06
2.48761e-05
3.10558e-06
2.17693e-05
3.10682e-06
1.86614e-05
3.1079e-06
1.55525e-05
3.10882e-06
1.24429e-05
3.10959e-06
9.33274e-06
3.1102e-06
6.22208e-06
3.11066e-06
3.11111e-06
3.11096e-06
3.11111e-06
3.54431e-06
-7.08843e-06
7.08842e-06
-7.08803e-06
1.06321e-05
-7.08723e-06
1.41753e-05
-7.08604e-06
1.77176e-05
-7.08444e-06
2.12589e-05
-7.08243e-06
2.4799e-05
-7.08001e-06
2.83377e-05
-7.07717e-06
3.18748e-05
-7.0739e-06
3.541e-05
-7.07019e-06
3.89431e-05
-7.06604e-06
4.24739e-05
-7.06142e-06
4.60022e-05
-7.05633e-06
4.95277e-05
-7.05075e-06
5.30502e-05
-7.04468e-06
5.65693e-05
-7.03809e-06
6.0085e-05
-7.03097e-06
6.35967e-05
-7.02329e-06
6.71044e-05
-7.01505e-06
7.06077e-05
-7.00622e-06
7.41062e-05
-6.99678e-06
7.75997e-05
-6.98671e-06
8.10879e-05
-6.97599e-06
8.45704e-05
-6.9646e-06
8.80468e-05
-6.95251e-06
9.15168e-05
-6.93969e-06
9.49801e-05
-6.92613e-06
9.84362e-05
-6.91179e-06
0.000101885
-6.89665e-06
0.000105325
-6.88069e-06
0.000108757
-6.86387e-06
0.000112181
-6.84616e-06
0.000115595
-6.82754e-06
0.000118999
-6.80799e-06
0.000122393
-6.78746e-06
0.000125776
-6.76593e-06
0.000129148
-6.74337e-06
0.000132508
-6.71975e-06
0.000135856
-6.69504e-06
0.000139191
-6.66922e-06
0.000142512
-6.64224e-06
0.00014582
-6.61408e-06
0.000149112
-6.58471e-06
0.00015239
-6.5541e-06
0.000155651
-6.52222e-06
0.000158896
-6.48905e-06
0.000162124
-6.45454e-06
0.000165333
-6.41869e-06
0.000168524
-6.38145e-06
0.000171696
-6.3428e-06
0.000174848
-6.30272e-06
0.000177979
-6.26118e-06
0.000181088
-6.21816e-06
0.000184175
-6.17363e-06
0.00018724
-6.12757e-06
0.00019028
-6.07997e-06
0.000193296
-6.03079e-06
0.000196286
-5.98003e-06
0.00019925
-5.92766e-06
0.000202188
-5.87367e-06
0.000205097
-5.81806e-06
0.000207978
-5.76079e-06
0.000210829
-5.70187e-06
0.00021365
-5.64128e-06
0.00021644
-5.57902e-06
0.000219198
-5.51509e-06
0.000221923
-5.44947e-06
0.000224615
-5.38217e-06
0.000227272
-5.31318e-06
0.000229894
-5.24252e-06
0.000232479
-5.17018e-06
0.000235028
-5.09618e-06
0.000237538
-5.02051e-06
0.00024001
-4.9432e-06
0.000242443
-4.86425e-06
0.000244835
-4.78368e-06
0.000247186
-4.70151e-06
0.000249495
-4.61775e-06
0.000251762
-4.53244e-06
0.000253985
-4.44558e-06
0.000256164
-4.35722e-06
0.000258298
-4.26737e-06
0.000260387
-4.17607e-06
0.000262429
-4.08334e-06
0.000264424
-3.98924e-06
0.000266371
-3.89378e-06
0.00026827
-3.797e-06
0.000270119
-3.69896e-06
0.00027192
-3.59968e-06
0.00027367
-3.49922e-06
0.000275369
-3.39761e-06
0.000277016
-3.29491e-06
0.000278612
-3.19116e-06
0.000280156
-3.0864e-06
0.000281646
-2.9807e-06
0.000283083
-2.8741e-06
0.000284467
-2.76666e-06
0.000285796
-2.65842e-06
0.000287071
-2.54944e-06
0.000288291
-2.43978e-06
0.000289456
-2.32949e-06
0.000290566
-2.21863e-06
0.000291619
-2.10726e-06
0.000292617
-1.99542e-06
0.000293559
-1.88319e-06
0.000294444
-1.77061e-06
0.000295273
-1.65774e-06
0.000296046
-1.54464e-06
0.000296761
-1.43137e-06
0.00029742
-1.31797e-06
0.000298023
-1.20452e-06
0.000298568
-1.09105e-06
0.000299057
-9.77637e-07
0.000299489
-8.6432e-07
0.000299864
-7.51155e-07
0.000300184
-6.38195e-07
0.000300446
-5.25491e-07
0.000300653
-4.13092e-07
0.000300803
-3.01048e-07
0.000300898
-1.89405e-07
0.000300937
-7.82099e-08
0.00030092
3.24919e-08
0.000300849
1.42657e-07
0.000300723
2.52243e-07
0.000300542
3.61209e-07
0.000300307
4.69516e-07
0.000300018
5.77126e-07
0.000299676
6.84002e-07
0.000299281
7.90109e-07
0.000298833
8.95414e-07
0.000298333
9.99885e-07
0.000297781
1.10349e-06
0.000297177
1.2062e-06
0.000296523
1.308e-06
0.000295818
1.40884e-06
0.000295064
1.50872e-06
0.00029426
1.6076e-06
0.000293407
1.70546e-06
0.000292505
1.80229e-06
0.000291556
1.89806e-06
0.000290559
1.99276e-06
0.000289516
2.08638e-06
0.000288426
2.17889e-06
0.000287291
2.27028e-06
0.00028611
2.36055e-06
0.000284885
2.44967e-06
0.000283616
2.53765e-06
0.000282303
2.62446e-06
0.000280948
2.71011e-06
0.000279551
2.79459e-06
0.000278111
2.87788e-06
0.000276631
2.95999e-06
0.00027511
3.0409e-06
0.00027355
3.12063e-06
0.00027195
3.19916e-06
0.000270311
3.27649e-06
0.000268635
3.35262e-06
0.000266921
3.42755e-06
0.00026517
3.50129e-06
0.000263382
3.57382e-06
0.00026156
3.64516e-06
0.000259702
3.7153e-06
0.000257809
3.78425e-06
0.000255883
3.85201e-06
0.000253923
3.91858e-06
0.000251931
3.98398e-06
0.000249907
4.04819e-06
0.000247851
4.11123e-06
0.000245764
4.1731e-06
0.000243647
4.23381e-06
0.0002415
4.29336e-06
0.000239324
4.35175e-06
0.000237119
4.40901e-06
0.000234886
4.46512e-06
0.000232626
4.52011e-06
0.000230338
4.57397e-06
0.000228025
4.62672e-06
0.000225685
4.67835e-06
0.000223321
4.72889e-06
0.000220931
4.77834e-06
0.000218517
4.8267e-06
0.00021608
4.87399e-06
0.00021362
4.92021e-06
0.000211137
4.96538e-06
0.000208632
5.00951e-06
0.000206105
5.0526e-06
0.000203558
5.09466e-06
0.00020099
5.13571e-06
0.000198401
5.17575e-06
0.000195794
5.2148e-06
0.000193167
5.25287e-06
0.000190522
5.28996e-06
0.000187859
5.32609e-06
0.000185178
5.36128e-06
0.00018248
5.39553e-06
0.000179765
5.42886e-06
0.000177034
5.46127e-06
0.000174288
5.49278e-06
0.000171526
5.52341e-06
0.000168749
5.55316e-06
0.000165958
5.58205e-06
0.000163152
5.61009e-06
0.000160334
5.63729e-06
0.000157502
5.66368e-06
0.000154657
5.68925e-06
0.0001518
5.71403e-06
0.00014893
5.73802e-06
0.00014605
5.76125e-06
0.000143157
5.78373e-06
0.000140255
5.80546e-06
0.000137341
5.82647e-06
0.000134418
5.84676e-06
0.000131484
5.86635e-06
0.000128541
5.88526e-06
0.00012559
5.9035e-06
0.000122629
5.92108e-06
0.00011966
5.93802e-06
0.000116682
5.95433e-06
0.000113697
5.97002e-06
0.000110704
5.98511e-06
0.000107705
5.9996e-06
0.000104698
6.01353e-06
0.000101684
6.02688e-06
9.86641e-05
6.03969e-06
9.5638e-05
6.05196e-06
9.2606e-05
6.06371e-06
8.95684e-05
6.07494e-06
8.65254e-05
6.08568e-06
8.34773e-05
6.09592e-06
8.04244e-05
6.10569e-06
7.73668e-05
6.11499e-06
7.43047e-05
6.12384e-06
7.12385e-05
6.13225e-06
6.81683e-05
6.14022e-06
6.50943e-05
6.14777e-06
6.20167e-05
6.1549e-06
5.89358e-05
6.16163e-06
5.58517e-05
6.16797e-06
5.27647e-05
6.17392e-06
4.96748e-05
6.17949e-06
4.65824e-05
6.18469e-06
4.34875e-05
6.18953e-06
4.03905e-05
6.19402e-06
3.72913e-05
6.19816e-06
3.41902e-05
6.20195e-06
3.10874e-05
6.20541e-06
2.79831e-05
6.20853e-06
2.48773e-05
6.21133e-06
2.17704e-05
6.21381e-06
1.86623e-05
6.21597e-06
1.55533e-05
6.21781e-06
1.24436e-05
6.21934e-06
9.3332e-06
6.22056e-06
6.22239e-06
6.22148e-06
3.11127e-06
6.22208e-06
6.22238e-06
3.54471e-06
-1.06331e-05
7.08922e-06
-1.06325e-05
1.06333e-05
-1.06314e-05
1.41769e-05
-1.06296e-05
1.77196e-05
-1.06272e-05
2.12613e-05
-1.06242e-05
2.48019e-05
-1.06205e-05
2.8341e-05
-1.06163e-05
3.18785e-05
-1.06114e-05
3.54141e-05
-1.06059e-05
3.89477e-05
-1.05996e-05
4.2479e-05
-1.05927e-05
4.60078e-05
-1.05851e-05
4.95338e-05
-1.05768e-05
5.30568e-05
-1.05677e-05
5.65765e-05
-1.05578e-05
6.00927e-05
-1.05471e-05
6.3605e-05
-1.05356e-05
6.71133e-05
-1.05233e-05
7.06172e-05
-1.05101e-05
7.41163e-05
-1.0496e-05
7.76105e-05
-1.04809e-05
8.10994e-05
-1.04648e-05
8.45825e-05
-1.04478e-05
8.80597e-05
-1.04297e-05
9.15305e-05
-1.04105e-05
9.49945e-05
-1.03902e-05
9.84514e-05
-1.03687e-05
0.000101901
-1.0346e-05
0.000105342
-1.03221e-05
0.000108775
-1.02969e-05
0.000112199
-1.02704e-05
0.000115614
-1.02425e-05
0.00011902
-1.02132e-05
0.000122415
-1.01824e-05
0.000125799
-1.01502e-05
0.000129172
-1.01164e-05
0.000132533
-1.0081e-05
0.000135882
-1.0044e-05
0.000139218
-1.00053e-05
0.000142541
-9.96483e-06
0.000145849
-9.92263e-06
0.000149143
-9.87861e-06
0.000152422
-9.83274e-06
0.000155684
-9.78495e-06
0.000158931
-9.73523e-06
0.00016216
-9.68351e-06
0.000165371
-9.62976e-06
0.000168563
-9.57393e-06
0.000171736
-9.516e-06
0.00017489
-9.45591e-06
0.000178022
-9.39363e-06
0.000181133
-9.32912e-06
0.000184222
-9.26235e-06
0.000187287
-9.19329e-06
0.000190329
-9.12191e-06
0.000193347
-9.04817e-06
0.000196339
-8.97205e-06
0.000199305
-8.89351e-06
0.000202243
-8.81255e-06
0.000205155
-8.72914e-06
0.000208037
-8.64326e-06
0.00021089
-8.55488e-06
0.000213713
-8.46401e-06
0.000216504
-8.37063e-06
0.000219264
-8.27473e-06
0.000221991
-8.17631e-06
0.000224684
-8.07535e-06
0.000227343
-7.97188e-06
0.000229966
-7.86588e-06
0.000232553
-7.75736e-06
0.000235103
-7.64634e-06
0.000237616
-7.53283e-06
0.000240089
-7.41684e-06
0.000242524
-7.2984e-06
0.000244917
-7.17752e-06
0.00024727
-7.05424e-06
0.000249581
-6.92858e-06
0.000251849
-6.80058e-06
0.000254074
-6.67026e-06
0.000256254
-6.53768e-06
0.00025839
-6.40287e-06
0.00026048
-6.26588e-06
0.000262523
-6.12675e-06
0.000264519
-5.98554e-06
0.000266468
-5.8423e-06
0.000268368
-5.6971e-06
0.000270219
-5.54998e-06
0.00027202
-5.40101e-06
0.000273771
-5.25026e-06
0.000275471
-5.09779e-06
0.00027712
-4.94368e-06
0.000278717
-4.78799e-06
0.000280261
-4.63079e-06
0.000281753
-4.47218e-06
0.000283191
-4.31221e-06
0.000284575
-4.15097e-06
0.000285905
-3.98855e-06
0.000287181
-3.82501e-06
0.000288402
-3.66045e-06
0.000289567
-3.49495e-06
0.000290677
-3.32859e-06
0.000291731
-3.16146e-06
0.00029273
-2.99364e-06
0.000293672
-2.82521e-06
0.000294557
-2.65627e-06
0.000295386
-2.4869e-06
0.000296159
-2.31718e-06
0.000296875
-2.1472e-06
0.000297534
-1.97704e-06
0.000298136
-1.80679e-06
0.000298682
-1.63652e-06
0.00029917
-1.46633e-06
0.000299602
-1.29629e-06
0.000299978
-1.12648e-06
0.000300296
-9.56974e-07
0.000300559
-7.87855e-07
0.000300765
-6.19196e-07
0.000300915
-4.5107e-07
0.000301009
-2.83547e-07
0.000301047
-1.16699e-07
0.000301031
4.94084e-08
0.000300958
2.14709e-07
0.000300832
3.79139e-07
0.00030065
5.42638e-07
0.000300415
7.05145e-07
0.000300125
8.66605e-07
0.000299782
1.02696e-06
0.000299386
1.18617e-06
0.000298937
1.34416e-06
0.000298436
1.50091e-06
0.000297883
1.65635e-06
0.000297279
1.81046e-06
0.000296624
1.96318e-06
0.000295918
2.11448e-06
0.000295163
2.26432e-06
0.000294358
2.41266e-06
0.000293504
2.55949e-06
0.000292601
2.70475e-06
0.000291651
2.84843e-06
0.000290653
2.99051e-06
0.000289608
3.13095e-06
0.000288518
3.26973e-06
0.000287381
3.40684e-06
0.000286199
3.54225e-06
0.000284973
3.67595e-06
0.000283703
3.80792e-06
0.000282389
3.93815e-06
0.000281033
4.06663e-06
0.000279634
4.19335e-06
0.000278193
4.3183e-06
0.000276712
4.44147e-06
0.00027519
4.56285e-06
0.000273628
4.68244e-06
0.000272027
4.80023e-06
0.000270387
4.91623e-06
0.00026871
5.03043e-06
0.000266994
5.14283e-06
0.000265242
5.25343e-06
0.000263454
5.36223e-06
0.00026163
5.46923e-06
0.000259771
5.57444e-06
0.000257877
5.67786e-06
0.000255949
5.7795e-06
0.000253989
5.87935e-06
0.000251995
5.97744e-06
0.00024997
6.07375e-06
0.000247913
6.1683e-06
0.000245825
6.2611e-06
0.000243706
6.35215e-06
0.000241558
6.44147e-06
0.000239381
6.52906e-06
0.000237175
6.61494e-06
0.000234941
6.6991e-06
0.000232679
6.78157e-06
0.000230391
6.86235e-06
0.000228076
6.94146e-06
0.000225736
7.01891e-06
0.00022337
7.0947e-06
0.000220979
7.16886e-06
0.000218565
7.24139e-06
0.000216126
7.31232e-06
0.000213665
7.38164e-06
0.000211181
7.44938e-06
0.000208675
7.51556e-06
0.000206147
7.58018e-06
0.000203599
7.64326e-06
0.00020103
7.70482e-06
0.000198441
7.76487e-06
0.000195832
7.82343e-06
0.000193204
7.88051e-06
0.000190558
7.93614e-06
0.000187894
7.99033e-06
0.000185212
8.04309e-06
0.000182513
8.09445e-06
0.000179798
8.14442e-06
0.000177066
8.19303e-06
0.000174318
8.24028e-06
0.000171555
8.2862e-06
0.000168778
8.33081e-06
0.000165986
8.37413e-06
0.00016318
8.41618e-06
0.00016036
8.45697e-06
0.000157527
8.49652e-06
0.000154682
8.53487e-06
0.000151824
8.57202e-06
0.000148954
8.608e-06
0.000146072
8.64282e-06
0.000143179
8.67651e-06
0.000140276
8.7091e-06
0.000137361
8.74059e-06
0.000134437
8.77101e-06
0.000131503
8.80039e-06
0.00012856
8.82874e-06
0.000125607
8.85608e-06
0.000122646
8.88243e-06
0.000119676
8.90782e-06
0.000116698
8.93226e-06
0.000113712
8.95578e-06
0.000110719
8.9784e-06
0.000107718
9.00013e-06
0.000104711
9.02099e-06
0.000101697
9.04101e-06
9.86763e-05
9.06021e-06
9.56497e-05
9.0786e-06
9.26172e-05
9.09621e-06
8.95791e-05
9.11304e-06
8.65356e-05
9.12913e-06
8.34871e-05
9.14448e-06
8.04337e-05
9.15912e-06
7.73756e-05
9.17306e-06
7.43131e-05
9.18632e-06
7.12464e-05
9.19891e-06
6.81758e-05
9.21085e-06
6.51014e-05
9.22216e-06
6.20235e-05
9.23286e-06
5.89421e-05
9.24294e-06
5.58577e-05
9.25243e-06
5.27702e-05
9.26135e-06
4.968e-05
9.2697e-06
4.65872e-05
9.27749e-06
4.3492e-05
9.28475e-06
4.03946e-05
9.29146e-06
3.72951e-05
9.29766e-06
3.41937e-05
9.30334e-06
3.10906e-05
9.30852e-06
2.79859e-05
9.31321e-06
2.48798e-05
9.3174e-06
2.17725e-05
9.32111e-06
1.86641e-05
9.32434e-06
1.55548e-05
9.3271e-06
1.24448e-05
9.3294e-06
9.33412e-06
9.33123e-06
6.223e-06
9.3326e-06
3.11157e-06
9.3335e-06
9.33396e-06
3.54531e-06
-1.41784e-05
7.09042e-06
-1.41777e-05
1.06351e-05
-1.41761e-05
1.41793e-05
-1.41737e-05
1.77226e-05
-1.41705e-05
2.1265e-05
-1.41665e-05
2.48061e-05
-1.41617e-05
2.83459e-05
-1.41561e-05
3.18841e-05
-1.41496e-05
3.54204e-05
-1.41422e-05
3.89547e-05
-1.41339e-05
4.24867e-05
-1.41247e-05
4.60162e-05
-1.41146e-05
4.9543e-05
-1.41035e-05
5.30667e-05
-1.40914e-05
5.65872e-05
-1.40783e-05
6.01042e-05
-1.40641e-05
6.36174e-05
-1.40489e-05
6.71266e-05
-1.40325e-05
7.06314e-05
-1.40149e-05
7.41315e-05
-1.39961e-05
7.76266e-05
-1.3976e-05
8.11165e-05
-1.39547e-05
8.46007e-05
-1.3932e-05
8.8079e-05
-1.39079e-05
9.15509e-05
-1.38824e-05
9.50161e-05
-1.38554e-05
9.84742e-05
-1.38268e-05
0.000101925
-1.37966e-05
0.000105367
-1.37648e-05
0.000108802
-1.37313e-05
0.000112227
-1.3696e-05
0.000115644
-1.36589e-05
0.00011905
-1.36199e-05
0.000122447
-1.35789e-05
0.000125833
-1.3536e-05
0.000129207
-1.3491e-05
0.00013257
-1.34439e-05
0.000135921
-1.33946e-05
0.000139259
-1.3343e-05
0.000142583
-1.32892e-05
0.000145893
-1.3233e-05
0.000149189
-1.31744e-05
0.00015247
-1.31133e-05
0.000155734
-1.30496e-05
0.000158982
-1.29834e-05
0.000162213
-1.29145e-05
0.000165427
-1.28429e-05
0.000168621
-1.27685e-05
0.000171797
-1.26913e-05
0.000174952
-1.26113e-05
0.000178087
-1.25283e-05
0.0001812
-1.24423e-05
0.000184291
-1.23534e-05
0.000187359
-1.22613e-05
0.000190403
-1.21662e-05
0.000193423
-1.20679e-05
0.000196417
-1.19665e-05
0.000199386
-1.18618e-05
0.000202327
-1.17539e-05
0.000205241
-1.16427e-05
0.000208126
-1.15282e-05
0.000210981
-1.14104e-05
0.000213806
-1.12893e-05
0.0002166
-1.11648e-05
0.000219363
-1.10369e-05
0.000222092
-1.09057e-05
0.000224788
-1.07711e-05
0.000227449
-1.06331e-05
0.000230075
-1.04917e-05
0.000232664
-1.0347e-05
0.000235217
-1.0199e-05
0.000237732
-1.00476e-05
0.000240208
-9.89294e-06
0.000242645
-9.73498e-06
0.000245041
-9.57378e-06
0.000247396
-9.40935e-06
0.000249709
-9.24175e-06
0.00025198
-9.07103e-06
0.000254207
-8.89721e-06
0.000256389
-8.72037e-06
0.000258527
-8.54055e-06
0.000260619
-8.35782e-06
0.000262664
-8.17224e-06
0.000264663
-7.98388e-06
0.000266613
-7.7928e-06
0.000268515
-7.5991e-06
0.000270368
-7.40285e-06
0.000272171
-7.20412e-06
0.000273924
-7.00301e-06
0.000275626
-6.79961e-06
0.000277276
-6.59402e-06
0.000278874
-6.38631e-06
0.00028042
-6.17661e-06
0.000281913
-5.965e-06
0.000283352
-5.75159e-06
0.000284738
-5.53648e-06
0.000286069
-5.31978e-06
0.000287346
-5.10161e-06
0.000288567
-4.88207e-06
0.000289734
-4.66127e-06
0.000290844
-4.43932e-06
0.000291899
-4.21635e-06
0.000292898
-3.99245e-06
0.000293841
-3.76775e-06
0.000294727
-3.54236e-06
0.000295556
-3.3164e-06
0.000296329
-3.08998e-06
0.000297045
-2.86321e-06
0.000297704
-2.6362e-06
0.000298306
-2.40907e-06
0.000298852
-2.18192e-06
0.00029934
-1.95487e-06
0.000299772
-1.72803e-06
0.000300147
-1.50149e-06
0.000300466
-1.27537e-06
0.000300727
-1.04976e-06
0.000300933
-8.24765e-07
0.000301082
-6.00485e-07
0.000301176
-3.77014e-07
0.000301214
-1.54444e-07
0.000301196
6.71342e-08
0.000301123
2.87634e-07
0.000300995
5.06969e-07
0.000300813
7.25059e-07
0.000300576
9.41825e-07
0.000300285
1.15719e-06
0.000299941
1.37108e-06
0.000299544
1.58343e-06
0.000299094
1.79417e-06
0.000298592
2.00323e-06
0.000298038
2.21056e-06
0.000297432
2.4161e-06
0.000296775
2.61978e-06
0.000296068
2.82157e-06
0.000295311
3.02141e-06
0.000294505
3.21926e-06
0.000293649
3.41507e-06
0.000292745
3.6088e-06
0.000291793
3.80042e-06
0.000290794
3.98989e-06
0.000289747
4.17717e-06
0.000288655
4.36225e-06
0.000287517
4.54509e-06
0.000286333
4.72566e-06
0.000285105
4.90395e-06
0.000283833
5.07994e-06
0.000282518
5.2536e-06
0.000281159
5.42492e-06
0.000279759
5.5939e-06
0.000278317
5.7605e-06
0.000276833
5.92473e-06
0.00027531
6.08658e-06
0.000273746
6.24604e-06
0.000272143
6.40311e-06
0.000270502
6.55777e-06
0.000268822
6.71004e-06
0.000267105
6.8599e-06
0.000265351
7.00737e-06
0.000263561
7.15243e-06
0.000261735
7.2951e-06
0.000259874
7.43538e-06
0.000257979
7.57326e-06
0.000256049
7.70877e-06
0.000254087
7.8419e-06
0.000252092
7.97267e-06
0.000250064
8.10107e-06
0.000248005
8.22713e-06
0.000245916
8.35085e-06
0.000243796
8.47224e-06
0.000241646
8.59132e-06
0.000239467
8.70809e-06
0.000237259
8.82257e-06
0.000235023
8.93477e-06
0.00023276
9.04472e-06
0.00023047
9.15241e-06
0.000228154
9.25787e-06
0.000225812
9.36111e-06
0.000223444
9.46215e-06
0.000221052
9.56101e-06
0.000218636
9.6577e-06
0.000216196
9.75224e-06
0.000213733
9.84465e-06
0.000211247
9.93495e-06
0.00020874
1.00232e-05
0.00020621
1.01093e-05
0.00020366
1.01934e-05
0.00020109
1.02754e-05
0.000198499
1.03555e-05
0.000195889
1.04335e-05
0.00019326
1.05096e-05
0.000190612
1.05838e-05
0.000187947
1.0656e-05
0.000185263
1.07263e-05
0.000182563
1.07948e-05
0.000179846
1.08614e-05
0.000177113
1.09261e-05
0.000174364
1.09891e-05
0.0001716
1.10503e-05
0.000168821
1.11098e-05
0.000166028
1.11675e-05
0.00016322
1.12235e-05
0.000160399
1.12779e-05
0.000157565
1.13306e-05
0.000154719
1.13817e-05
0.000151859
1.14312e-05
0.000148988
1.14791e-05
0.000146106
1.15255e-05
0.000143212
1.15704e-05
0.000140307
1.16138e-05
0.000137392
1.16558e-05
0.000134467
1.16963e-05
0.000131531
1.17354e-05
0.000128587
1.17732e-05
0.000125633
1.18096e-05
0.000122671
1.18447e-05
0.0001197
1.18786e-05
0.000116721
1.19111e-05
0.000113735
1.19424e-05
0.000110741
1.19726e-05
0.000107739
1.20015e-05
0.000104731
1.20293e-05
0.000101716
1.2056e-05
9.86947e-05
1.20815e-05
9.56672e-05
1.2106e-05
9.2634e-05
1.21295e-05
8.95951e-05
1.21519e-05
8.6551e-05
1.21733e-05
8.35017e-05
1.21938e-05
8.04476e-05
1.22132e-05
7.73888e-05
1.22318e-05
7.43257e-05
1.22495e-05
7.12584e-05
1.22662e-05
6.81871e-05
1.22821e-05
6.51121e-05
1.22972e-05
6.20335e-05
1.23114e-05
5.89516e-05
1.23248e-05
5.58666e-05
1.23375e-05
5.27786e-05
1.23493e-05
4.96878e-05
1.23605e-05
4.65945e-05
1.23708e-05
4.34987e-05
1.23805e-05
4.04008e-05
1.23894e-05
3.73007e-05
1.23977e-05
3.41988e-05
1.24052e-05
3.10952e-05
1.24121e-05
2.79901e-05
1.24184e-05
2.48835e-05
1.24239e-05
2.17757e-05
1.24289e-05
1.86669e-05
1.24332e-05
1.55571e-05
1.24369e-05
1.24466e-05
1.24399e-05
9.33549e-06
1.24424e-05
6.22391e-06
1.24442e-05
3.11203e-06
1.24454e-05
1.2446e-05
3.5461e-06
-1.77245e-05
7.09201e-06
-1.77236e-05
1.06375e-05
-1.77216e-05
1.41825e-05
-1.77186e-05
1.77266e-05
-1.77147e-05
2.12698e-05
-1.77097e-05
2.48118e-05
-1.77037e-05
2.83525e-05
-1.76967e-05
3.18915e-05
-1.76886e-05
3.54287e-05
-1.76794e-05
3.89639e-05
-1.76691e-05
4.24969e-05
-1.76577e-05
4.60274e-05
-1.76451e-05
4.95551e-05
-1.76313e-05
5.30799e-05
-1.76162e-05
5.66015e-05
-1.75999e-05
6.01196e-05
-1.75822e-05
6.36339e-05
-1.75632e-05
6.71442e-05
-1.75428e-05
7.06502e-05
-1.75209e-05
7.41516e-05
-1.74975e-05
7.76481e-05
-1.74725e-05
8.11393e-05
-1.74459e-05
8.46249e-05
-1.74176e-05
8.81046e-05
-1.73876e-05
9.1578e-05
-1.73558e-05
9.50447e-05
-1.73221e-05
9.85044e-05
-1.72865e-05
0.000101957
-1.72489e-05
0.000105401
-1.72092e-05
0.000108837
-1.71674e-05
0.000112265
-1.71234e-05
0.000115683
-1.70771e-05
0.000119092
-1.70285e-05
0.00012249
-1.69774e-05
0.000125878
-1.69238e-05
0.000129255
-1.68677e-05
0.00013262
-1.68089e-05
0.000135972
-1.67474e-05
0.000139313
-1.66831e-05
0.000142639
-1.66159e-05
0.000145952
-1.65458e-05
0.00014925
-1.64726e-05
0.000152533
-1.63964e-05
0.000155801
-1.63169e-05
0.000159052
-1.62342e-05
0.000162285
-1.61482e-05
0.000165501
-1.60588e-05
0.000168699
-1.5966e-05
0.000171877
-1.58696e-05
0.000175035
-1.57696e-05
0.000178173
-1.56659e-05
0.000181289
-1.55586e-05
0.000184383
-1.54475e-05
0.000187454
-1.53325e-05
0.000190502
-1.52137e-05
0.000193525
-1.50909e-05
0.000196522
-1.49641e-05
0.000199494
-1.48333e-05
0.000202438
-1.46985e-05
0.000205355
-1.45596e-05
0.000208244
-1.44165e-05
0.000211102
-1.42693e-05
0.000213931
-1.41179e-05
0.000216728
-1.39623e-05
0.000219494
-1.38024e-05
0.000222227
-1.36384e-05
0.000224926
-1.34702e-05
0.00022759
-1.32977e-05
0.00023022
-1.3121e-05
0.000232813
-1.29401e-05
0.000235369
-1.2755e-05
0.000237887
-1.25657e-05
0.000240366
-1.23723e-05
0.000242806
-1.21748e-05
0.000245205
-1.19732e-05
0.000247564
-1.17676e-05
0.00024988
-1.15581e-05
0.000252154
-1.13446e-05
0.000254384
-1.11272e-05
0.000256569
-1.0906e-05
0.00025871
-1.06811e-05
0.000260805
-1.04526e-05
0.000262853
-1.02205e-05
0.000264854
-9.98492e-06
0.000266807
-9.74594e-06
0.000268712
-9.50366e-06
0.000270567
-9.25818e-06
0.000272372
-9.00961e-06
0.000274127
-8.75806e-06
0.000275832
-8.50364e-06
0.000277484
-8.24646e-06
0.000279084
-7.98665e-06
0.000280632
-7.72433e-06
0.000282127
-7.45962e-06
0.000283568
-7.19266e-06
0.000284955
-6.92357e-06
0.000286288
-6.6525e-06
0.000287565
-6.37958e-06
0.000288788
-6.10494e-06
0.000289956
-5.82873e-06
0.000291068
-5.55108e-06
0.000292123
-5.27215e-06
0.000293123
-4.99207e-06
0.000294066
-4.71098e-06
0.000294953
-4.42903e-06
0.000295783
-4.14637e-06
0.000296556
-3.86312e-06
0.000297272
-3.57945e-06
0.000297932
-3.29548e-06
0.000298534
-3.01136e-06
0.000299079
-2.72722e-06
0.000299567
-2.44321e-06
0.000299999
-2.15945e-06
0.000300373
-1.87608e-06
0.000300691
-1.59324e-06
0.000300953
-1.31104e-06
0.000301157
-1.02962e-06
0.000301306
-7.49089e-07
0.000301399
-4.69577e-07
0.000301435
-1.91195e-07
0.000301417
8.59415e-08
0.000301342
3.61725e-07
0.000301213
6.36048e-07
0.00030103
9.08808e-07
0.000300792
1.17991e-06
0.0003005
1.44925e-06
0.000300154
1.71675e-06
0.000299755
1.98231e-06
0.000299303
2.24585e-06
0.000298799
2.50729e-06
0.000298243
2.76656e-06
0.000297636
3.02358e-06
0.000296977
3.27829e-06
0.000296268
3.53062e-06
0.000295509
3.78051e-06
0.0002947
4.02789e-06
0.000293843
4.27273e-06
0.000292937
4.51497e-06
0.000291982
4.75455e-06
0.000290981
4.99145e-06
0.000289932
5.22561e-06
0.000288838
5.45701e-06
0.000287697
5.6856e-06
0.000286512
5.91136e-06
0.000285281
6.13426e-06
0.000284007
6.35428e-06
0.000282689
6.57139e-06
0.000281328
6.78557e-06
0.000279926
6.99681e-06
0.000278481
7.20508e-06
0.000276995
7.41039e-06
0.000275469
7.61271e-06
0.000273903
7.81205e-06
0.000272298
8.00838e-06
0.000270654
8.20172e-06
0.000268972
8.39206e-06
0.000267252
8.57939e-06
0.000265496
8.76371e-06
0.000263703
8.94504e-06
0.000261875
9.12336e-06
0.000260012
9.2987e-06
0.000258114
9.47105e-06
0.000256182
9.64042e-06
0.000254218
9.80682e-06
0.00025222
9.97026e-06
0.00025019
1.01307e-05
0.000248129
1.02883e-05
0.000246037
1.04429e-05
0.000243915
1.05946e-05
0.000241762
1.07435e-05
0.000239581
1.08894e-05
0.000237371
1.10325e-05
0.000235133
1.11727e-05
0.000232868
1.13101e-05
0.000230576
1.14447e-05
0.000228257