/*--------------------------------*- C++ -*----------------------------------*\
| =========                 |                                                 |
| \\      /  F ield         | OpenFOAM: The Open Source CFD Toolbox           |
|  \\    /   O peration     | Version:  v2012                                 |
|   \\  /    A nd           | Website:  www.openfoam.com                      |
|    \\/     M anipulation  |                                                 |
\*---------------------------------------------------------------------------*/
FoamFile
{
    version     2.0;
    format      ascii;
    class       surfaceScalarField;
    location    "17.8";
    object      phi;
}
// * * * * * * * * * * * * * * * * * * * * * * * * * * * * * * * * * * * * * //

dimensions      [0 3 -1 0 0 0 0];
oriented        oriented;


internalField   nonuniform List<scalar> 
130560
(
3.26723e-06
-3.26723e-06
6.53463e-06
-3.2674e-06
9.80236e-06
-3.26773e-06
1.30706e-05
-3.26821e-06
1.63394e-05
-3.26886e-06
1.96091e-05
-3.26967e-06
2.28797e-05
-3.27063e-06
2.61515e-05
-3.27175e-06
2.94245e-05
-3.27302e-06
3.26989e-05
-3.27444e-06
3.59749e-05
-3.27601e-06
3.92527e-05
-3.27772e-06
4.25322e-05
-3.27957e-06
4.58138e-05
-3.28155e-06
4.90975e-05
-3.28367e-06
5.23834e-05
-3.2859e-06
5.56716e-05
-3.28825e-06
5.89623e-05
-3.29072e-06
6.22556e-05
-3.29329e-06
6.55516e-05
-3.29596e-06
6.88503e-05
-3.29872e-06
7.21519e-05
-3.30156e-06
7.54563e-05
-3.30448e-06
7.87638e-05
-3.30746e-06
8.20743e-05
-3.3105e-06
8.53879e-05
-3.31358e-06
8.87046e-05
-3.3167e-06
9.20244e-05
-3.31984e-06
9.53474e-05
-3.323e-06
9.86736e-05
-3.32615e-06
0.000102003
-3.3293e-06
0.000105335
-3.33242e-06
0.000108671
-3.33551e-06
0.000112009
-3.33854e-06
0.000115351
-3.3415e-06
0.000118695
-3.34438e-06
0.000122042
-3.34716e-06
0.000125392
-3.34983e-06
0.000128745
-3.35236e-06
0.000132099
-3.35474e-06
0.000135456
-3.35696e-06
0.000138815
-3.35898e-06
0.000142176
-3.36079e-06
0.000145538
-3.36238e-06
0.000148902
-3.36371e-06
0.000152267
-3.36478e-06
0.000155632
-3.36554e-06
0.000158998
-3.36599e-06
0.000162365
-3.36609e-06
0.00016573
-3.36583e-06
0.000169096
-3.36517e-06
0.00017246
-3.3641e-06
0.000175822
-3.36258e-06
0.000179183
-3.36058e-06
0.000182541
-3.35809e-06
0.000185896
-3.35507e-06
0.000189247
-3.35148e-06
0.000192595
-3.34731e-06
0.000195937
-3.34252e-06
0.000199274
-3.33708e-06
0.000202605
-3.33097e-06
0.000205929
-3.32413e-06
0.000209246
-3.31656e-06
0.000212554
-3.3082e-06
0.000215853
-3.29904e-06
0.000219142
-3.28903e-06
0.00022242
-3.27814e-06
0.000225687
-3.26635e-06
0.00022894
-3.25361e-06
0.00023218
-3.23989e-06
0.000235405
-3.22516e-06
0.000238615
-3.20938e-06
0.000241807
-3.19252e-06
0.000244982
-3.17455e-06
0.000248137
-3.15544e-06
0.000251272
-3.13514e-06
0.000254386
-3.11364e-06
0.000257477
-3.09089e-06
0.000260544
-3.06687e-06
0.000263585
-3.04154e-06
0.0002666
-3.01488e-06
0.000269587
-2.98686e-06
0.000272545
-2.95745e-06
0.000275471
-2.92663e-06
0.000278366
-2.89436e-06
0.000281226
-2.86064e-06
0.000284052
-2.82542e-06
0.00028684
-2.7887e-06
0.000289591
-2.75046e-06
0.000292301
-2.71067e-06
0.000294971
-2.66933e-06
0.000297597
-2.62643e-06
0.000300179
-2.58194e-06
0.000302715
-2.53587e-06
0.000305203
-2.4882e-06
0.000307642
-2.43894e-06
0.00031003
-2.38808e-06
0.000312366
-2.33562e-06
0.000314647
-2.28158e-06
0.000316873
-2.22595e-06
0.000319042
-2.16875e-06
0.000321152
-2.10999e-06
0.000323202
-2.04969e-06
0.00032519
-1.98787e-06
0.000327114
-1.92454e-06
0.000328974
-1.85974e-06
0.000330767
-1.7935e-06
0.000332493
-1.72583e-06
0.00033415
-1.65679e-06
0.000335737
-1.58641e-06
0.000337251
-1.51472e-06
0.000338693
-1.44178e-06
0.000340061
-1.36763e-06
0.000341353
-1.29232e-06
0.000342569
-1.2159e-06
0.000343707
-1.13843e-06
0.000344767
-1.05996e-06
0.000345748
-9.80564e-07
0.000346648
-9.00294e-07
0.000347467
-8.19217e-07
0.000348205
-7.374e-07
0.00034886
-6.54914e-07
0.000349431
-5.71827e-07
0.00034992
-4.88212e-07
0.000350324
-4.04143e-07
0.000350644
-3.19695e-07
0.000350878
-2.34942e-07
0.000351028
-1.49961e-07
0.000351093
-6.48294e-08
0.000351073
2.03764e-08
0.000350967
1.05579e-07
0.000350777
1.907e-07
0.000350501
2.75664e-07
0.000350141
3.60395e-07
0.000349696
4.44815e-07
0.000349167
5.28851e-07
0.000348554
6.1243e-07
0.000347859
6.95477e-07
0.000347081
7.77924e-07
0.000346221
8.597e-07
0.000345281
9.40739e-07
0.00034426
1.02097e-06
0.000343159
1.10034e-06
0.000341981
1.17879e-06
0.000340724
1.25624e-06
0.000339392
1.33266e-06
0.000337984
1.40798e-06
0.000336501
1.48216e-06
0.000334946
1.55514e-06
0.000333319
1.62688e-06
0.000331622
1.69735e-06
0.000329856
1.76649e-06
0.000328021
1.83428e-06
0.000326121
1.90068e-06
0.000324155
1.96567e-06
0.000322126
2.02921e-06
0.000320034
2.09128e-06
0.000317883
2.15186e-06
0.000315672
2.21093e-06
0.000313403
2.26848e-06
0.000311079
2.32449e-06
0.0003087
2.37896e-06
0.000306268
2.43188e-06
0.000303785
2.48324e-06
0.000301252
2.53304e-06
0.00029867
2.58129e-06
0.000296042
2.62799e-06
0.000293369
2.67314e-06
0.000290652
2.71675e-06
0.000287894
2.75884e-06
0.000285094
2.7994e-06
0.000282256
2.83847e-06
0.00027938
2.87604e-06
0.000276468
2.91215e-06
0.000273521
2.94681e-06
0.000270541
2.98004e-06
0.000267529
3.01187e-06
0.000264487
3.04231e-06
0.000261415
3.07139e-06
0.000258316
3.09914e-06
0.00025519
3.12558e-06
0.00025204
3.15074e-06
0.000248865
3.17465e-06
0.000245668
3.19734e-06
0.000242449
3.21884e-06
0.00023921
3.23918e-06
0.000235951
3.25839e-06
0.000232675
3.27649e-06
0.000229381
3.29353e-06
0.000226072
3.30954e-06
0.000222747
3.32453e-06
0.000219409
3.33856e-06
0.000216057
3.35164e-06
0.000212693
3.36382e-06
0.000209318
3.37511e-06
0.000205932
3.38557e-06
0.000202537
3.39521e-06
0.000199133
3.40406e-06
0.000195721
3.41217e-06
0.000192301
3.41955e-06
0.000188875
3.42624e-06
0.000185443
3.43228e-06
0.000182005
3.43768e-06
0.000178563
3.44248e-06
0.000175116
3.44671e-06
0.000171666
3.45039e-06
0.000168212
3.45356e-06
0.000164756
3.45624e-06
0.000161297
3.45846e-06
0.000157837
3.46024e-06
0.000154376
3.46161e-06
0.000150913
3.46259e-06
0.00014745
3.46321e-06
0.000143986
3.4635e-06
0.000140523
3.46347e-06
0.00013706
3.46315e-06
0.000133597
3.46255e-06
0.000130135
3.46172e-06
0.000126675
3.46065e-06
0.000123215
3.45938e-06
0.000119757
3.45792e-06
0.000116301
3.45629e-06
0.000112847
3.45451e-06
0.000109394
3.4526e-06
0.000105944
3.45057e-06
0.000102495
3.44845e-06
9.90488e-05
3.44624e-06
9.56049e-05
3.44396e-06
9.21632e-05
3.44164e-06
8.87239e-05
3.43927e-06
8.52871e-05
3.43688e-06
8.18526e-05
3.43448e-06
7.84205e-05
3.43208e-06
7.49908e-05
3.42969e-06
7.15635e-05
3.42732e-06
6.81385e-05
3.42499e-06
6.47158e-05
3.42271e-06
6.12953e-05
3.42048e-06
5.7877e-05
3.41832e-06
5.44608e-05
3.41623e-06
5.10466e-05
3.41422e-06
4.76343e-05
3.41229e-06
4.42238e-05
3.41047e-06
4.08151e-05
3.40875e-06
3.74079e-05
3.40713e-06
3.40023e-05
3.40564e-06
3.0598e-05
3.40426e-06
2.7195e-05
3.403e-06
2.37931e-05
3.40188e-06
2.03923e-05
3.40089e-06
1.69922e-05
3.40003e-06
1.35929e-05
3.39931e-06
1.01942e-05
3.39873e-06
6.79588e-06
3.3983e-06
3.39787e-06
3.39801e-06
3.39787e-06
3.26708e-06
-6.53431e-06
6.53432e-06
-6.53464e-06
9.80189e-06
-6.53529e-06
1.30699e-05
-6.53627e-06
1.63387e-05
-6.53757e-06
1.96082e-05
-6.53918e-06
2.28786e-05
-6.54111e-06
2.61502e-05
-6.54335e-06
2.94231e-05
-6.5459e-06
3.26974e-05
-6.54874e-06
3.59733e-05
-6.55188e-06
3.92509e-05
-6.55531e-06
4.25303e-05
-6.55901e-06
4.58118e-05
-6.56298e-06
4.90953e-05
-6.56721e-06
5.23811e-05
-6.57169e-06
5.56692e-05
-6.5764e-06
5.89599e-05
-6.58134e-06
6.22531e-05
-6.58649e-06
6.55489e-05
-6.59183e-06
6.88476e-05
-6.59736e-06
7.21491e-05
-6.60305e-06
7.54535e-05
-6.60889e-06
7.87609e-05
-6.61487e-06
8.20713e-05
-6.62095e-06
8.53849e-05
-6.62713e-06
8.87016e-05
-6.63337e-06
9.20214e-05
-6.63967e-06
9.53444e-05
-6.646e-06
9.86706e-05
-6.65232e-06
0.000102
-6.65863e-06
0.000105332
-6.66489e-06
0.000108668
-6.67107e-06
0.000112007
-6.67714e-06
0.000115348
-6.68309e-06
0.000118693
-6.68886e-06
0.00012204
-6.69444e-06
0.00012539
-6.69979e-06
0.000128742
-6.70488e-06
0.000132097
-6.70966e-06
0.000135454
-6.71411e-06
0.000138814
-6.71817e-06
0.000142175
-6.72182e-06
0.000145537
-6.72501e-06
0.000148901
-6.7277e-06
0.000152266
-6.72985e-06
0.000155632
-6.7314e-06
0.000158999
-6.73232e-06
0.000162365
-6.73256e-06
0.000165731
-6.73206e-06
0.000169097
-6.73077e-06
0.000172461
-6.72865e-06
0.000175824
-6.72563e-06
0.000179186
-6.72167e-06
0.000182544
-6.71671e-06
0.0001859
-6.71069e-06
0.000189252
-6.70356e-06
0.0001926
-6.69525e-06
0.000195943
-6.6857e-06
0.000199281
-6.67485e-06
0.000202612
-6.66265e-06
0.000205937
-6.64901e-06
0.000209255
-6.63389e-06
0.000212564
-6.61721e-06
0.000215864
-6.59892e-06
0.000219153
-6.57893e-06
0.000222432
-6.5572e-06
0.0002257
-6.53364e-06
0.000228954
-6.50819e-06
0.000232195
-6.48079e-06
0.000235421
-6.45136e-06
0.000238632
-6.41984e-06
0.000241826
-6.38616e-06
0.000245001
-6.35025e-06
0.000248158
-6.31205e-06
0.000251294
-6.2715e-06
0.000254409
-6.22852e-06
0.000257501
-6.18305e-06
0.000260569
-6.13504e-06
0.000263612
-6.08442e-06
0.000266629
-6.03113e-06
0.000269617
-5.97511e-06
0.000272576
-5.91632e-06
0.000275504
-5.8547e-06
0.0002784
-5.79019e-06
0.000281262
-5.72275e-06
0.000284089
-5.65235e-06
0.000286879
-5.57893e-06
0.000289631
-5.50246e-06
0.000292343
-5.4229e-06
0.000295014
-5.34023e-06
0.000297642
-5.25443e-06
0.000300225
-5.16546e-06
0.000302763
-5.07332e-06
0.000305253
-4.97799e-06
0.000307693
-4.87947e-06
0.000310083
-4.77774e-06
0.00031242
-4.67283e-06
0.000314703
-4.56474e-06
0.000316931
-4.45347e-06
0.000319101
-4.33906e-06
0.000321213
-4.22152e-06
0.000323264
-4.1009e-06
0.000325253
-3.97723e-06
0.000327179
-3.85056e-06
0.00032904
-3.72093e-06
0.000330835
-3.5884e-06
0.000332563
-3.45304e-06
0.000334221
-3.31492e-06
0.000335808
-3.17411e-06
0.000337324
-3.0307e-06
0.000338767
-2.88477e-06
0.000340136
-2.73642e-06
0.00034143
-2.58574e-06
0.000342647
-2.43285e-06
0.000343786
-2.27785e-06
0.000344847
-2.12086e-06
0.000345828
-1.962e-06
0.000346729
-1.80139e-06
0.000347549
-1.63917e-06
0.000348287
-1.47547e-06
0.000348943
-1.31042e-06
0.000349515
-1.14418e-06
0.000350004
-9.76874e-07
0.000350408
-8.08662e-07
0.000350728
-6.39689e-07
0.000350964
-4.70107e-07
0.000351114
-3.00068e-07
0.000351179
-1.29727e-07
0.000351158
4.07612e-08
0.000351053
2.11243e-07
0.000350862
3.81563e-07
0.000350586
5.51568e-07
0.000350225
7.21104e-07
0.00034978
8.9002e-07
0.000349251
1.05817e-06
0.000348638
1.22539e-06
0.000347941
1.39156e-06
0.000347163
1.55652e-06
0.000346302
1.72014e-06
0.000345361
1.88229e-06
0.000344339
2.04282e-06
0.000343238
2.20162e-06
0.000342058
2.35856e-06
0.000340801
2.51353e-06
0.000339467
2.66642e-06
0.000338058
2.81711e-06
0.000336574
2.96551e-06
0.000335018
3.11152e-06
0.00033339
3.25505e-06
0.000331691
3.39602e-06
0.000329923
3.53434e-06
0.000328088
3.66996e-06
0.000326186
3.80279e-06
0.000324218
3.93279e-06
0.000322188
4.05989e-06
0.000320095
4.18405e-06
0.000317942
4.30523e-06
0.000315729
4.42338e-06
0.000313459
4.53849e-06
0.000311133
4.65053e-06
0.000308753
4.75948e-06
0.000306319
4.86531e-06
0.000303834
4.96804e-06
0.0003013
5.06765e-06
0.000298717
5.16414e-06
0.000296087
5.25753e-06
0.000293413
5.34782e-06
0.000290694
5.43504e-06
0.000287934
5.51919e-06
0.000285133
5.60031e-06
0.000282293
5.67842e-06
0.000279416
5.75356e-06
0.000276502
5.82576e-06
0.000273554
5.89506e-06
0.000270572
5.9615e-06
0.000267559
6.02512e-06
0.000264515
6.08598e-06
0.000261443
6.14411e-06
0.000258342
6.19958e-06
0.000255215
6.25244e-06
0.000252063
6.30273e-06
0.000248888
6.35053e-06
0.000245689
6.39588e-06
0.000242469
6.43885e-06
0.000239229
6.47949e-06
0.000235969
6.51788e-06
0.000232692
6.55406e-06
0.000229397
6.58811e-06
0.000226087
6.62008e-06
0.000222761
6.65004e-06
0.000219422
6.67806e-06
0.000216069
6.70419e-06
0.000212704
6.72851e-06
0.000209328
6.75108e-06
0.000205942
6.77195e-06
0.000202546
6.79119e-06
0.000199141
6.80887e-06
0.000195728
6.82505e-06
0.000192308
6.83979e-06
0.000188881
6.85315e-06
0.000185448
6.86518e-06
0.00018201
6.87596e-06
0.000178567
6.88553e-06
0.00017512
6.89396e-06
0.000171669
6.9013e-06
0.000168215
6.90761e-06
0.000164758
6.91294e-06
0.000161299
6.91735e-06
0.000157838
6.92088e-06
0.000154376
6.9236e-06
0.000150914
6.92554e-06
0.00014745
6.92676e-06
0.000143986
6.9273e-06
0.000140522
6.92722e-06
0.000137059
6.92656e-06
0.000133596
6.92536e-06
0.000130134
6.92366e-06
0.000126673
6.92151e-06
0.000123214
6.91894e-06
0.000119756
6.916e-06
0.000116299
6.91272e-06
0.000112845
6.90915e-06
0.000109392
6.90531e-06
0.000105941
6.90124e-06
0.000102493
6.89697e-06
9.90465e-05
6.89254e-06
9.56024e-05
6.88798e-06
9.21608e-05
6.88331e-06
8.87215e-05
6.87856e-06
8.52846e-05
6.87377e-06
8.18501e-05
6.86895e-06
7.84181e-05
6.86414e-06
7.49884e-05
6.85935e-06
7.15611e-05
6.85461e-06
6.81362e-05
6.84994e-06
6.47135e-05
6.84536e-06
6.12931e-05
6.8409e-06
5.78749e-05
6.83656e-06
5.44587e-05
6.83237e-06
5.10446e-05
6.82834e-06
4.76324e-05
6.82449e-06
4.4222e-05
6.82083e-06
4.08134e-05
6.81738e-06
3.74064e-05
6.81415e-06
3.40009e-05
6.81115e-06
3.05967e-05
6.80839e-06
2.71939e-05
6.80588e-06
2.37921e-05
6.80362e-06
2.03914e-05
6.80163e-06
1.69915e-05
6.79992e-06
1.35923e-05
6.79848e-06
1.01937e-05
6.79732e-06
6.79559e-06
6.79645e-06
3.39772e-06
6.79588e-06
6.79559e-06
3.26675e-06
-9.80106e-06
6.53366e-06
-9.80155e-06
9.80091e-06
-9.80254e-06
1.30686e-05
-9.804e-06
1.6337e-05
-9.80595e-06
1.96062e-05
-9.80838e-06
2.28764e-05
-9.81128e-06
2.61477e-05
-9.81464e-06
2.94203e-05
-9.81847e-06
3.26943e-05
-9.82275e-06
3.59698e-05
-9.82747e-06
3.92472e-05
-9.83262e-06
4.25263e-05
-9.83818e-06
4.58075e-05
-9.84415e-06
4.90908e-05
-9.85051e-06
5.23763e-05
-9.85724e-06
5.56643e-05
-9.86432e-06
5.89547e-05
-9.87175e-06
6.22477e-05
-9.87949e-06
6.55434e-05
-9.88752e-06
6.88418e-05
-9.89583e-06
7.21432e-05
-9.90439e-06
7.54475e-05
-9.91318e-06
7.87547e-05
-9.92216e-06
8.20651e-05
-9.93131e-06
8.53786e-05
-9.9406e-06
8.86952e-05
-9.95e-06
9.2015e-05
-9.95948e-06
9.5338e-05
-9.96899e-06
9.86642e-05
-9.97852e-06
0.000101994
-9.98801e-06
0.000105326
-9.99743e-06
0.000108662
-1.00067e-05
0.000112001
-1.00159e-05
0.000115342
-1.00248e-05
0.000118687
-1.00335e-05
0.000122034
-1.0042e-05
0.000125385
-1.005e-05
0.000128737
-1.00577e-05
0.000132093
-1.00649e-05
0.00013545
-1.00716e-05
0.00013881
-1.00778e-05
0.000142171
-1.00833e-05
0.000145534
-1.00881e-05
0.000148899
-1.00922e-05
0.000152265
-1.00955e-05
0.000155631
-1.00979e-05
0.000158998
-1.00993e-05
0.000162365
-1.00998e-05
0.000165732
-1.00991e-05
0.000169099
-1.00972e-05
0.000172464
-1.00941e-05
0.000175828
-1.00896e-05
0.00017919
-1.00838e-05
0.00018255
-1.00764e-05
0.000185907
-1.00674e-05
0.00018926
-1.00568e-05
0.000192609
-1.00444e-05
0.000195954
-1.00302e-05
0.000199293
-1.0014e-05
0.000202626
-9.99575e-06
0.000205952
-9.97538e-06
0.000209271
-9.95278e-06
0.000212582
-9.92785e-06
0.000215883
-9.90048e-06
0.000219175
-9.87059e-06
0.000222456
-9.83807e-06
0.000225725
-9.80282e-06
0.000228982
-9.76473e-06
0.000232225
-9.72371e-06
0.000235453
-9.67965e-06
0.000238665
-9.63246e-06
0.000241861
-9.58202e-06
0.000245039
-9.52824e-06
0.000248198
-9.47103e-06
0.000251337
-9.41027e-06
0.000254454
-9.34589e-06
0.000257549
-9.27776e-06
0.00026062
-9.20582e-06
0.000263665
-9.12996e-06
0.000266684
-9.0501e-06
0.000269675
-8.96615e-06
0.000272637
-8.87802e-06
0.000275568
-8.78565e-06
0.000278467
-8.68894e-06
0.000281332
-8.58785e-06
0.000284162
-8.48229e-06
0.000286955
-8.3722e-06
0.00028971
-8.25754e-06
0.000292426
-8.13825e-06
0.0002951
-8.01428e-06
0.000297731
-7.88559e-06
0.000300318
-7.75216e-06
0.000302858
-7.61397e-06
0.000305351
-7.47098e-06
0.000307795
-7.32319e-06
0.000310188
-7.17061e-06
0.000312528
-7.01323e-06
0.000314814
-6.85106e-06
0.000317045
-6.68414e-06
0.000319219
-6.51249e-06
0.000321333
-6.33615e-06
0.000323387
-6.15517e-06
0.00032538
-5.9696e-06
0.000327309
-5.77953e-06
0.000329173
-5.58501e-06
0.000330971
-5.38614e-06
0.000332701
-5.18302e-06
0.000334361
-4.97574e-06
0.000335952
-4.76443e-06
0.00033747
-4.5492e-06
0.000338916
-4.33019e-06
0.000340287
-4.10753e-06
0.000341582
-3.88139e-06
0.000342801
-3.65191e-06
0.000343943
-3.41926e-06
0.000345006
-3.18362e-06
0.000345989
-2.94517e-06
0.000346892
-2.7041e-06
0.000347713
-2.4606e-06
0.000348452
-2.21488e-06
0.000349109
-1.96713e-06
0.000349682
-1.71759e-06
0.000350172
-1.46645e-06
0.000350577
-1.21394e-06
0.000350898
-9.60295e-07
0.000351134
-7.05731e-07
0.000351284
-4.50481e-07
0.000351349
-1.94776e-07
0.000351329
6.11505e-08
0.000351223
3.17066e-07
0.000351032
5.72739e-07
0.000350755
8.27937e-07
0.000350394
1.08243e-06
0.000349948
1.33599e-06
0.000349418
1.5884e-06
0.000348804
1.83942e-06
0.000348106
2.08885e-06
0.000347326
2.33646e-06
0.000346465
2.58206e-06
0.000345521
2.82544e-06
0.000344498
3.0664e-06
0.000343395
3.30475e-06
0.000342213
3.54031e-06
0.000340954
3.77291e-06
0.000339618
4.00237e-06
0.000338206
4.22853e-06
0.00033672
4.45125e-06
0.000335162
4.67038e-06
0.000333531
4.88578e-06
0.00033183
5.09733e-06
0.000330059
5.30491e-06
0.000328221
5.50841e-06
0.000326316
5.70774e-06
0.000324346
5.9028e-06
0.000322312
6.09351e-06
0.000320216
6.2798e-06
0.00031806
6.46161e-06
0.000315844
6.63889e-06
0.000313571
6.81158e-06
0.000311242
6.97966e-06
0.000308859
7.14309e-06
0.000306422
7.30186e-06
0.000303934
7.45595e-06
0.000301396
7.60537e-06
0.00029881
7.7501e-06
0.000296178
7.89017e-06
0.0002935
8.02558e-06
0.000290779
8.15638e-06
0.000288015
8.28258e-06
0.000285211
8.40422e-06
0.000282368
8.52135e-06
0.000279488
8.63401e-06
0.000276571
8.74226e-06
0.00027362
8.84616e-06
0.000270636
8.94576e-06
0.00026762
9.04114e-06
0.000264574
9.13236e-06
0.000261498
9.2195e-06
0.000258395
9.30264e-06
0.000255266
9.38185e-06
0.000252111
9.45723e-06
0.000248933
9.52885e-06
0.000245732
9.5968e-06
0.00024251
9.66118e-06
0.000239267
9.72207e-06
0.000236005
9.77956e-06
0.000232726
9.83376e-06
0.000229429
9.88475e-06
0.000226117
9.93263e-06
0.000222789
9.97749e-06
0.000219448
1.00194e-05
0.000216093
1.00586e-05
0.000212727
1.0095e-05
0.000209349
1.01287e-05
0.000205961
1.016e-05
0.000202564
1.01887e-05
0.000199157
1.02152e-05
0.000195743
1.02394e-05
0.000192321
1.02614e-05
0.000188893
1.02814e-05
0.000185459
1.02994e-05
0.00018202
1.03154e-05
0.000178575
1.03297e-05
0.000175127
1.03423e-05
0.000171675
1.03532e-05
0.00016822
1.03626e-05
0.000164762
1.03706e-05
0.000161303
1.03771e-05
0.000157841
1.03824e-05
0.000154378
1.03864e-05
0.000150915
1.03892e-05
0.000147451
1.0391e-05
0.000143986
1.03917e-05
0.000140522
1.03916e-05
0.000137058
1.03905e-05
0.000133595
1.03887e-05
0.000130132
1.03861e-05
0.000126671
1.03828e-05
0.000123211
1.03789e-05
0.000119753
1.03744e-05
0.000116296
1.03695e-05
0.000112841
1.03641e-05
0.000109388
1.03582e-05
0.000105937
1.03521e-05
0.000102488
1.03457e-05
9.90419e-05
1.0339e-05
9.55978e-05
1.03321e-05
9.21561e-05
1.03251e-05
8.87167e-05
1.03179e-05
8.52798e-05
1.03107e-05
8.18453e-05
1.03034e-05
7.84133e-05
1.02962e-05
7.49837e-05
1.0289e-05
7.15565e-05
1.02818e-05
6.81316e-05
1.02748e-05
6.47091e-05
1.02679e-05
6.12888e-05
1.02612e-05
5.78707e-05
1.02547e-05
5.44547e-05
1.02483e-05
5.10408e-05
1.02423e-05
4.76288e-05
1.02365e-05
4.42186e-05
1.0231e-05
4.08102e-05
1.02258e-05
3.74034e-05
1.02209e-05
3.39981e-05
1.02164e-05
3.05942e-05
1.02123e-05
2.71916e-05
1.02085e-05
2.37901e-05
1.02051e-05
2.03897e-05
1.02021e-05
1.69901e-05
1.01995e-05
1.35912e-05
1.01974e-05
1.01929e-05
1.01956e-05
6.795e-06
1.01943e-05
3.39743e-06
1.01935e-05
1.0193e-05
3.26626e-06
-1.30673e-05
6.53268e-06
-1.3068e-05
9.79943e-06
-1.30693e-05
1.30667e-05
-1.30712e-05
1.63346e-05
-1.30738e-05
1.96033e-05
-1.30771e-05
2.2873e-05
-1.3081e-05
2.61438e-05
-1.30855e-05
2.94159e-05
-1.30906e-05
3.26895e-05
-1.30963e-05
3.59646e-05
-1.31026e-05
3.92415e-05
-1.31095e-05
4.25203e-05
-1.31169e-05
4.58011e-05
-1.31249e-05
4.9084e-05
-1.31334e-05
5.23692e-05
-1.31424e-05
5.56568e-05
-1.31519e-05
5.89469e-05
-1.31618e-05
6.22396e-05
-1.31722e-05
6.5535e-05
-1.31829e-05
6.88332e-05
-1.31941e-05
7.21343e-05
-1.32055e-05
7.54384e-05
-1.32173e-05
7.87455e-05
-1.32293e-05
8.20557e-05
-1.32415e-05
8.53691e-05
-1.3254e-05
8.86856e-05
-1.32665e-05
9.20054e-05
-1.32792e-05
9.53284e-05
-1.3292e-05
9.86546e-05
-1.33047e-05
0.000101984
-1.33174e-05
0.000105317
-1.33301e-05
0.000108652
-1.33425e-05
0.000111991
-1.33548e-05
0.000115333
-1.33668e-05
0.000118678
-1.33785e-05
0.000122026
-1.33898e-05
0.000125377
-1.34006e-05
0.00012873
-1.3411e-05
0.000132086
-1.34207e-05
0.000135444
-1.34297e-05
0.000138804
-1.3438e-05
0.000142166
-1.34455e-05
0.00014553
-1.3452e-05
0.000148896
-1.34576e-05
0.000152262
-1.34621e-05
0.00015563
-1.34654e-05
0.000158998
-1.34674e-05
0.000162366
-1.3468e-05
0.000165734
-1.34672e-05
0.000169102
-1.34649e-05
0.000172469
-1.34609e-05
0.000175834
-1.3455e-05
0.000179198
-1.34473e-05
0.000182559
-1.34377e-05
0.000185917
-1.34259e-05
0.000189272
-1.34118e-05
0.000192623
-1.33954e-05
0.00019597
-1.33766e-05
0.000199311
-1.33551e-05
0.000202646
-1.3331e-05
0.000205975
-1.3304e-05
0.000209296
-1.3274e-05
0.000212609
-1.32409e-05
0.000215913
-1.32046e-05
0.000219207
-1.31649e-05
0.000222491
-1.31217e-05
0.000225763
-1.30748e-05
0.000229022
-1.30242e-05
0.000232268
-1.29697e-05
0.0002355
-1.29111e-05
0.000238716
-1.28483e-05
0.000241915
-1.27812e-05
0.000245096
-1.27097e-05
0.000248259
-1.26335e-05
0.000251401
-1.25527e-05
0.000254522
-1.2467e-05
0.000257621
-1.23763e-05
0.000260696
-1.22805e-05
0.000263745
-1.21795e-05
0.000266768
-1.20732e-05
0.000269763
-1.19613e-05
0.000272729
-1.1844e-05
0.000275665
-1.17209e-05
0.000278568
-1.15921e-05
0.000281437
-1.14574e-05
0.000284272
-1.13168e-05
0.00028707
-1.11701e-05
0.000289829
-1.10173e-05
0.000292549
-1.08583e-05
0.000295228
-1.0693e-05
0.000297864
-1.05215e-05
0.000300456
-1.03436e-05
0.000303001
-1.01594e-05
0.000305499
-9.96877e-06
0.000307947
-9.77172e-06
0.000310345
-9.56827e-06
0.00031269
-9.3584e-06
0.000314981
-9.14215e-06
0.000317217
-8.91954e-06
0.000319395
-8.69061e-06
0.000321514
-8.45541e-06
0.000323573
-8.21401e-06
0.00032557
-7.96649e-06
0.000327503
-7.71294e-06
0.000329372
-7.45345e-06
0.000331174
-7.18814e-06
0.000332908
-6.91715e-06
0.000334573
-6.6406e-06
0.000336167
-6.35866e-06
0.000337689
-6.07148e-06
0.000339138
-5.77924e-06
0.000340513
-5.48214e-06
0.000341812
-5.18037e-06
0.000343034
-4.87414e-06
0.000344178
-4.56367e-06
0.000345244
-4.2492e-06
0.00034623
-3.93098e-06
0.000347135
-3.60924e-06
0.000347959
-3.28427e-06
0.0003487
-2.95631e-06
0.000349359
-2.62566e-06
0.000349934
-2.29259e-06
0.000350424
-1.95739e-06
0.000350831
-1.62037e-06
0.000351152
-1.28182e-06
0.000351389
-9.42044e-07
0.00035154
-6.01351e-07
0.000351605
-2.60051e-07
0.000351584
8.15466e-08
0.000351478
4.23129e-07
0.000351287
7.64386e-07
0.00035101
1.10501e-06
0.000350647
1.44469e-06
0.0003502
1.78312e-06
0.000349669
2.12e-06
0.000349053
2.45504e-06
0.000348354
2.78794e-06
0.000347572
3.11842e-06
0.000346708
3.4462e-06
0.000345762
3.77101e-06
0.000344736
4.09258e-06
0.00034363
4.41067e-06
0.000342446
4.72503e-06
0.000341183
5.03541e-06
0.000339844
5.34161e-06
0.000338429
5.6434e-06
0.00033694
5.94058e-06
0.000335377
6.23296e-06
0.000333742
6.52036e-06
0.000332037
6.8026e-06
0.000330263
7.07955e-06
0.00032842
7.35104e-06
0.000326511
7.61694e-06
0.000324536
7.87715e-06
0.000322498
8.13154e-06
0.000320398
8.38003e-06
0.000318237
8.62253e-06
0.000316017
8.85897e-06
0.000313739
9.08929e-06
0.000311406
9.31344e-06
0.000309017
9.53138e-06
0.000306576
9.74309e-06
0.000304084
9.94855e-06
0.000301541
1.01478e-05
0.00029895
1.03407e-05
0.000296313
1.05274e-05
0.000293631
1.0708e-05
0.000290905
1.08823e-05
0.000288137
1.10505e-05
0.000285329
1.12126e-05
0.000282481
1.13687e-05
0.000279596
1.15189e-05
0.000276675
1.16631e-05
0.00027372
1.18016e-05
0.000270732
1.19343e-05
0.000267711
1.20613e-05
0.000264661
1.21828e-05
0.000261581
1.22989e-05
0.000258475
1.24096e-05
0.000255341
1.25151e-05
0.000252183
1.26155e-05
0.000249001
1.27108e-05
0.000245797
1.28013e-05
0.000242571
1.2887e-05
0.000239325
1.2968e-05
0.00023606
1.30446e-05
0.000232777
1.31167e-05
0.000229477
1.31845e-05
0.000226162
1.32482e-05
0.000222831
1.33079e-05
0.000219487
1.33636e-05
0.00021613
1.34157e-05
0.000212761
1.3464e-05
0.000209381
1.35089e-05
0.00020599
1.35504e-05
0.00020259
1.35886e-05
0.000199182
1.36238e-05
0.000195765
1.36559e-05
0.000192341
1.36851e-05
0.000188911
1.37116e-05
0.000185475
1.37354e-05
0.000182034
1.37567e-05
0.000178588
1.37756e-05
0.000175138
1.37923e-05
0.000171685
1.38067e-05
0.000168228
1.38191e-05
0.000164769
1.38296e-05
0.000161308
1.38382e-05
0.000157845
1.3845e-05
0.000154381
1.38503e-05
0.000150917
1.3854e-05
0.000147451
1.38562e-05
0.000143986
1.38571e-05
0.000140521
1.38568e-05
0.000137056
1.38553e-05
0.000133592
1.38527e-05
0.000130129
1.38491e-05
0.000126667
1.38447e-05
0.000123207
1.38394e-05
0.000119748
1.38333e-05
0.00011629
1.38266e-05
0.000112835
1.38194e-05
0.000109382
1.38115e-05
0.000105931
1.38033e-05
0.000102482
1.37946e-05
9.90351e-05
1.37856e-05
9.55908e-05
1.37764e-05
9.2149e-05
1.37669e-05
8.87095e-05
1.37573e-05
8.52726e-05
1.37476e-05
8.18381e-05
1.37379e-05
7.84061e-05
1.37282e-05
7.49766e-05
1.37185e-05
7.15495e-05
1.37089e-05
6.81248e-05
1.36995e-05
6.47024e-05
1.36903e-05
6.12823e-05
1.36813e-05
5.78644e-05
1.36725e-05
5.44487e-05
1.36641e-05
5.1035e-05
1.3656e-05
4.76233e-05
1.36482e-05
4.42134e-05
1.36408e-05
4.08053e-05
1.36339e-05
3.73989e-05
1.36274e-05
3.3994e-05
1.36213e-05
3.05905e-05
1.36158e-05
2.71882e-05
1.36107e-05
2.37872e-05
1.36062e-05
2.03871e-05
1.36022e-05
1.69879e-05
1.35987e-05
1.35894e-05
1.35958e-05
1.01916e-05
1.35935e-05
6.79413e-06
1.35918e-05
3.39699e-06
1.35906e-05
1.359e-05
3.2656e-06
-1.63329e-05
6.53136e-06
-1.63337e-05
9.79745e-06
-1.63354e-05
1.3064e-05
-1.63378e-05
1.63313e-05
-1.63411e-05
1.95994e-05
-1.63452e-05
2.28685e-05
-1.635e-05
2.61387e-05
-1.63557e-05
2.94102e-05
-1.63621e-05
3.26831e-05
-1.63693e-05
3.59577e-05
-1.63772e-05
3.9234e-05
-1.63858e-05
4.25123e-05
-1.63952e-05
4.57925e-05
-1.64052e-05
4.90749e-05
-1.64158e-05
5.23596e-05
-1.64271e-05
5.56468e-05
-1.6439e-05
5.89364e-05
-1.64515e-05
6.22287e-05
-1.64645e-05
6.55238e-05
-1.6478e-05
6.88216e-05
-1.64919e-05
7.21225e-05
-1.65063e-05
7.54263e-05
-1.65211e-05
7.87332e-05
-1.65362e-05
8.20432e-05
-1.65515e-05
8.53564e-05
-1.65672e-05
8.86728e-05
-1.6583e-05
9.19925e-05
-1.65989e-05
9.53155e-05
-1.6615e-05
9.86417e-05
-1.6631e-05
0.000101971
-1.6647e-05
0.000105304
-1.66629e-05
0.00010864
-1.66786e-05
0.000111979
-1.6694e-05
0.000115322
-1.67091e-05
0.000118667
-1.67239e-05
0.000122015
-1.67381e-05
0.000125366
-1.67518e-05
0.00012872
-1.67648e-05
0.000132077
-1.67771e-05
0.000135436
-1.67885e-05
0.000138797
-1.67991e-05
0.00014216
-1.68085e-05
0.000145525
-1.68169e-05
0.000148891
-1.6824e-05
0.000152259
-1.68298e-05
0.000155627
-1.68341e-05
0.000158997
-1.68368e-05
0.000162367
-1.68378e-05
0.000165736
-1.6837e-05
0.000169106
-1.68342e-05
0.000172474
-1.68294e-05
0.000175841
-1.68223e-05
0.000179207
-1.68129e-05
0.00018257
-1.6801e-05
0.000185931
-1.67865e-05
0.000189288
-1.67692e-05
0.000192642
-1.67489e-05
0.000195991
-1.67256e-05
0.000199335
-1.6699e-05
0.000202673
-1.66691e-05
0.000206004
-1.66356e-05
0.000209329
-1.65983e-05
0.000212645
-1.65572e-05
0.000215953
-1.6512e-05
0.00021925
-1.64627e-05
0.000222538
-1.64089e-05
0.000225813
-1.63506e-05
0.000229077
-1.62876e-05
0.000232327
-1.62197e-05
0.000235562
-1.61467e-05
0.000238783
-1.60685e-05
0.000241986
-1.59849e-05
0.000245172
-1.58957e-05
0.000248339
-1.58008e-05
0.000251487
-1.56999e-05
0.000254613
-1.55931e-05
0.000257716
-1.54799e-05
0.000260796
-1.53604e-05
0.000263851
-1.52344e-05
0.00026688
-1.51017e-05
0.000269881
-1.49621e-05
0.000272852
-1.48156e-05
0.000275793
-1.4662e-05
0.000278702
-1.45011e-05
0.000281578
-1.43329e-05
0.000284418
-1.41573e-05
0.000287222
-1.3974e-05
0.000289988
-1.37832e-05
0.000292714
-1.35845e-05
0.000295399
-1.33781e-05
0.000298042
-1.31638e-05
0.00030064
-1.29415e-05
0.000303191
-1.27112e-05
0.000305696
-1.2473e-05
0.000308151
-1.22267e-05
0.000310555
-1.19723e-05
0.000312906
-1.171e-05
0.000315204
-1.14396e-05
0.000317445
-1.11613e-05
0.00031963
-1.0875e-05
0.000321755
-1.05809e-05
0.00032382
-1.0279e-05
0.000325823
-9.96942e-06
0.000327762
-9.65228e-06
0.000329637
-9.32771e-06
0.000331444
-8.99584e-06
0.000333184
-8.65683e-06
0.000334854
-8.31087e-06
0.000336454
-7.95813e-06
0.000337981
-7.59882e-06
0.000339435
-7.23318e-06
0.000340814
-6.86142e-06
0.000342118
-6.48381e-06
0.000343344
-6.1006e-06
0.000344493
-5.71209e-06
0.000345562
-5.31855e-06
0.000346551
-4.92029e-06
0.00034746
-4.51764e-06
0.000348286
-4.11091e-06
0.000349031
-3.70045e-06
0.000349692
-3.2866e-06
0.000350269
-2.86972e-06
0.000350761
-2.45017e-06
0.000351169
-2.02833e-06
0.000351492
-1.60457e-06
0.000351729
-1.17928e-06
0.000351881
-7.52833e-07
0.000351946
-3.25626e-07
0.000351926
1.01953e-07
0.00035182
5.29514e-07
0.000351627
9.56665e-07
0.000351349
1.38302e-06
0.000350986
1.80819e-06
0.000350537
2.23179e-06
0.000350004
2.65345e-06
0.000349386
3.07279e-06
0.000348684
3.48945e-06
0.0003479
3.90307e-06
0.000347033
4.3133e-06
0.000346084
4.7198e-06
0.000345054
5.12225e-06
0.000343945
5.52032e-06
0.000342756
5.9137e-06
0.000341489
6.30211e-06
0.000340146
6.68525e-06
0.000338726
7.06287e-06
0.000337232
7.43471e-06
0.000335664
7.80052e-06
0.000334025
8.16008e-06
0.000332314
8.51318e-06
0.000330534
8.85963e-06
0.000328686
9.19924e-06
0.000326771
9.53185e-06
0.000324791
9.85731e-06
0.000322747
1.01755e-05
0.000320641
1.04862e-05
0.000318474
1.07895e-05
0.000316247
1.10852e-05
0.000313964
1.13732e-05
0.000311624
1.16534e-05
0.000309229
1.19259e-05
0.000306782
1.21906e-05
0.000304283
1.24474e-05
0.000301734
1.26964e-05
0.000299137
1.29376e-05
0.000296494
1.31709e-05
0.000293805
1.33965e-05
0.000291073
1.36144e-05
0.000288299
1.38245e-05
0.000285485
1.40271e-05
0.000282631
1.42221e-05
0.000279741
1.44096e-05
0.000276814
1.45898e-05
0.000273853
1.47627e-05