/*--------------------------------*- C++ -*----------------------------------*\
| =========                 |                                                 |
| \\      /  F ield         | OpenFOAM: The Open Source CFD Toolbox           |
|  \\    /   O peration     | Version:  v2012                                 |
|   \\  /    A nd           | Website:  www.openfoam.com                      |
|    \\/     M anipulation  |                                                 |
\*---------------------------------------------------------------------------*/
FoamFile
{
    version     2.0;
    format      ascii;
    class       volVectorField;
    location    "17.8";
    object      U;
}
// * * * * * * * * * * * * * * * * * * * * * * * * * * * * * * * * * * * * * //

dimensions      [0 1 -1 0 0 0 0];


internalField   nonuniform List<vector> 
65536
(
(0.000665586 -0.000665601 0)
(0.00199679 -0.000665636 0)
(0.0033281 -0.000665703 0)
(0.00465958 -0.000665802 0)
(0.00599128 -0.000665934 0)
(0.00732328 -0.000666098 0)
(0.00865564 -0.000666294 0)
(0.00998843 -0.000666522 0)
(0.0113217 -0.000666781 0)
(0.0126555 -0.00066707 0)
(0.01399 -0.00066739 0)
(0.0153251 -0.000667738 0)
(0.0166609 -0.000668114 0)
(0.0179975 -0.000668518 0)
(0.0193349 -0.000668948 0)
(0.0206733 -0.000669403 0)
(0.0220125 -0.000669882 0)
(0.0233528 -0.000670384 0)
(0.0246941 -0.000670908 0)
(0.0260364 -0.000671451 0)
(0.0273798 -0.000672013 0)
(0.0287244 -0.000672591 0)
(0.0300702 -0.000673185 0)
(0.0314172 -0.000673792 0)
(0.0327654 -0.00067441 0)
(0.0341148 -0.000675037 0)
(0.0354655 -0.000675672 0)
(0.0368175 -0.000676312 0)
(0.0381708 -0.000676954 0)
(0.0395253 -0.000677597 0)
(0.0408811 -0.000678237 0)
(0.0422383 -0.000678872 0)
(0.0435966 -0.0006795 0)
(0.0449563 -0.000680117 0)
(0.0463171 -0.00068072 0)
(0.0476792 -0.000681306 0)
(0.0490424 -0.000681871 0)
(0.0504067 -0.000682414 0)
(0.0517721 -0.000682929 0)
(0.0531384 -0.000683413 0)
(0.0545058 -0.000683863 0)
(0.0558739 -0.000684274 0)
(0.0572429 -0.000684643 0)
(0.0586126 -0.000684965 0)
(0.0599828 -0.000685235 0)
(0.0613536 -0.000685451 0)
(0.0627247 -0.000685605 0)
(0.064096 -0.000685695 0)
(0.0654675 -0.000685715 0)
(0.066839 -0.00068566 0)
(0.0682103 -0.000685525 0)
(0.0695812 -0.000685305 0)
(0.0709516 -0.000684994 0)
(0.0723213 -0.000684587 0)
(0.07369 -0.000684077 0)
(0.0750577 -0.000683459 0)
(0.076424 -0.000682728 0)
(0.0777887 -0.000681877 0)
(0.0791516 -0.0006809 0)
(0.0805124 -0.00067979 0)
(0.0818709 -0.000678542 0)
(0.0832268 -0.000677148 0)
(0.0845797 -0.000675603 0)
(0.0859293 -0.000673899 0)
(0.0872754 -0.000672031 0)
(0.0886176 -0.00066999 0)
(0.0899556 -0.000667771 0)
(0.0912889 -0.000665366 0)
(0.0926172 -0.000662769 0)
(0.0939402 -0.000659973 0)
(0.0952573 -0.00065697 0)
(0.0965683 -0.000653754 0)
(0.0978726 -0.000650319 0)
(0.0991698 -0.000646656 0)
(0.100459 -0.00064276 0)
(0.101741 -0.000638624 0)
(0.103014 -0.000634242 0)
(0.104278 -0.000629606 0)
(0.105533 -0.000624711 0)
(0.106777 -0.00061955 0)
(0.108011 -0.000614118 0)
(0.109234 -0.000608408 0)
(0.110445 -0.000602416 0)
(0.111644 -0.000596135 0)
(0.11283 -0.000589561 0)
(0.114003 -0.000582689 0)
(0.115161 -0.000575514 0)
(0.116305 -0.000568033 0)
(0.117434 -0.000560241 0)
(0.118546 -0.000552135 0)
(0.119642 -0.000543713 0)
(0.120721 -0.000534971 0)
(0.121783 -0.000525908 0)
(0.122825 -0.000516522 0)
(0.123849 -0.000506811 0)
(0.124853 -0.000496775 0)
(0.125836 -0.000486414 0)
(0.126799 -0.000475729 0)
(0.12774 -0.000464719 0)
(0.128658 -0.000453388 0)
(0.129554 -0.000441736 0)
(0.130425 -0.000429766 0)
(0.131273 -0.000417483 0)
(0.132096 -0.00040489 0)
(0.132893 -0.00039199 0)
(0.133664 -0.000378791 0)
(0.134408 -0.000365297 0)
(0.135125 -0.000351515 0)
(0.135815 -0.000337452 0)
(0.136475 -0.000323115 0)
(0.137107 -0.000308514 0)
(0.13771 -0.000293657 0)
(0.138282 -0.000278554 0)
(0.138824 -0.000263214 0)
(0.139335 -0.000247649 0)
(0.139815 -0.000231869 0)
(0.140263 -0.000215888 0)
(0.140679 -0.000199716 0)
(0.141062 -0.000183366 0)
(0.141412 -0.000166853 0)
(0.14173 -0.000150189 0)
(0.142013 -0.000133389 0)
(0.142263 -0.000116466 0)
(0.142479 -9.94358e-05 0)
(0.142661 -8.23133e-05 0)
(0.142809 -6.51134e-05 0)
(0.142922 -4.78516e-05 0)
(0.143 -3.05433e-05 0)
(0.143044 -1.32044e-05 0)
(0.143053 4.14967e-06 0)
(0.143027 2.1503e-05 0)
(0.142967 3.88399e-05 0)
(0.142872 5.61448e-05 0)
(0.142742 7.3402e-05 0)
(0.142578 9.05962e-05 0)
(0.14238 0.000107712 0)
(0.142147 0.000124735 0)
(0.141881 0.00014165 0)
(0.14158 0.000158442 0)
(0.141247 0.000175098 0)
(0.14088 0.000191604 0)
(0.14048 0.000207946 0)
(0.140048 0.000224112 0)
(0.139583 0.000240089 0)
(0.139087 0.000255866 0)
(0.13856 0.00027143 0)
(0.138001 0.000286772 0)
(0.137412 0.000301881 0)
(0.136794 0.000316746 0)
(0.136145 0.00033136 0)
(0.135468 0.000345713 0)
(0.134762 0.000359797 0)
(0.134028 0.000373605 0)
(0.133267 0.000387131 0)
(0.13248 0.000400368 0)
(0.131666 0.000413311 0)
(0.130826 0.000425955 0)
(0.129962 0.000438295 0)
(0.129073 0.000450328 0)
(0.12816 0.000462051 0)
(0.127224 0.000473462 0)
(0.126266 0.000484558 0)
(0.125285 0.000495338 0)
(0.124284 0.000505801 0)
(0.123262 0.000515948 0)
(0.12222 0.000525777 0)
(0.121159 0.00053529 0)
(0.120078 0.000544489 0)
(0.11898 0.000553374 0)
(0.117865 0.000561947 0)
(0.116732 0.000570212 0)
(0.115583 0.000578171 0)
(0.114419 0.000585827 0)
(0.11324 0.000593185 0)
(0.112046 0.000600246 0)
(0.110839 0.000607017 0)
(0.109618 0.000613501 0)
(0.108384 0.000619704 0)
(0.107139 0.00062563 0)
(0.105882 0.000631284 0)
(0.104613 0.000636672 0)
(0.103335 0.0006418 0)
(0.102046 0.000646672 0)
(0.100748 0.000651297 0)
(0.0994404 0.000655678 0)
(0.0981247 0.000659823 0)
(0.0968009 0.000663737 0)
(0.0954695 0.000667427 0)
(0.094131 0.0006709 0)
(0.0927857 0.000674162 0)
(0.0914341 0.000677219 0)
(0.0900766 0.000680077 0)
(0.0887136 0.000682745 0)
(0.0873454 0.000685226 0)
(0.0859725 0.00068753 0)
(0.0845952 0.000689661 0)
(0.0832137 0.000691626 0)
(0.0818285 0.000693431 0)
(0.0804398 0.000695084 0)
(0.079048 0.00069659 0)
(0.0776533 0.000697955 0)
(0.0762561 0.000699186 0)
(0.0748565 0.000700288 0)
(0.0734548 0.000701267 0)
(0.0720513 0.00070213 0)
(0.0706461 0.000702882 0)
(0.0692396 0.000703529 0)
(0.0678319 0.000704076 0)
(0.0664232 0.000704529 0)
(0.0650137 0.000704893 0)
(0.0636036 0.000705173 0)
(0.062193 0.000705375 0)
(0.060782 0.000705503 0)
(0.0593709 0.000705562 0)
(0.0579597 0.000705557 0)
(0.0565486 0.000705493 0)
(0.0551377 0.000705374 0)
(0.0537271 0.000705204 0)
(0.0523168 0.000704988 0)
(0.0509071 0.000704729 0)
(0.0494979 0.000704433 0)
(0.0480893 0.000704102 0)
(0.0466814 0.000703741 0)
(0.0452743 0.000703352 0)
(0.043868 0.00070294 0)
(0.0424625 0.000702508 0)
(0.041058 0.000702059 0)
(0.0396543 0.000701596 0)
(0.0382516 0.000701123 0)
(0.0368498 0.000700642 0)
(0.035449 0.000700155 0)
(0.0340492 0.000699667 0)
(0.0326503 0.000699178 0)
(0.0312525 0.000698692 0)
(0.0298556 0.000698211 0)
(0.0284596 0.000697737 0)
(0.0270646 0.000697272 0)
(0.0256706 0.000696819 0)
(0.0242774 0.000696378 0)
(0.0228851 0.000695953 0)
(0.0214936 0.000695544 0)
(0.0201029 0.000695153 0)
(0.018713 0.000694781 0)
(0.0173238 0.000694431 0)
(0.0159353 0.000694102 0)
(0.0145474 0.000693797 0)
(0.0131601 0.000693517 0)
(0.0117734 0.000693262 0)
(0.0103871 0.000693033 0)
(0.00900128 0.000692831 0)
(0.00761582 0.000692656 0)
(0.00623069 0.00069251 0)
(0.00484582 0.000692392 0)
(0.00346115 0.000692304 0)
(0.00207663 0.000692245 0)
(0.000692201 0.000692215 0)
(0.000665556 -0.00199678 0)
(0.0019967 -0.00199688 0)
(0.00332794 -0.00199708 0)
(0.00465935 -0.00199738 0)
(0.005991 -0.00199777 0)
(0.00732294 -0.00199827 0)
(0.00865524 -0.00199886 0)
(0.00998796 -0.00199954 0)
(0.0113212 -0.00200032 0)
(0.0126549 -0.00200119 0)
(0.0139893 -0.00200214 0)
(0.0153244 -0.00200319 0)
(0.0166601 -0.00200432 0)
(0.0179967 -0.00200553 0)
(0.0193341 -0.00200682 0)
(0.0206724 -0.00200819 0)
(0.0220116 -0.00200963 0)
(0.0233518 -0.00201114 0)
(0.024693 -0.00201271 0)
(0.0260353 -0.00201434 0)
(0.0273787 -0.00201603 0)
(0.0287233 -0.00201776 0)
(0.030069 -0.00201955 0)
(0.031416 -0.00202137 0)
(0.0327642 -0.00202322 0)
(0.0341136 -0.00202511 0)
(0.0354643 -0.00202702 0)
(0.0368163 -0.00202894 0)
(0.0381695 -0.00203087 0)
(0.0395241 -0.0020328 0)
(0.0408799 -0.00203472 0)
(0.0422371 -0.00203663 0)
(0.0435955 -0.00203851 0)
(0.0449551 -0.00204037 0)
(0.046316 -0.00204218 0)
(0.0476781 -0.00204394 0)
(0.0490413 -0.00204564 0)
(0.0504057 -0.00204727 0)
(0.0517711 -0.00204882 0)
(0.0531376 -0.00205028 0)
(0.054505 -0.00205163 0)
(0.0558732 -0.00205287 0)
(0.0572423 -0.00205398 0)
(0.058612 -0.00205495 0)
(0.0599824 -0.00205577 0)
(0.0613533 -0.00205642 0)
(0.0627245 -0.00205688 0)
(0.064096 -0.00205716 0)
(0.0654677 -0.00205722 0)
(0.0668393 -0.00205706 0)
(0.0682107 -0.00205666 0)
(0.0695818 -0.00205601 0)
(0.0709524 -0.00205508 0)
(0.0723223 -0.00205386 0)
(0.0736912 -0.00205234 0)
(0.0750591 -0.00205049 0)
(0.0764257 -0.00204831 0)
(0.0777906 -0.00204576 0)
(0.0791538 -0.00204283 0)
(0.0805149 -0.00203951 0)
(0.0818737 -0.00203577 0)
(0.0832298 -0.0020316 0)
(0.084583 -0.00202697 0)
(0.085933 -0.00202187 0)
(0.0872794 -0.00201627 0)
(0.088622 -0.00201015 0)
(0.0899603 -0.0020035 0)
(0.091294 -0.00199629 0)
(0.0926227 -0.00198851 0)
(0.0939461 -0.00198012 0)
(0.0952636 -0.00197112 0)
(0.096575 -0.00196148 0)
(0.0978798 -0.00195118 0)
(0.0991774 -0.0019402 0)
(0.100468 -0.00192852 0)
(0.10175 -0.00191612 0)
(0.103023 -0.00190298 0)
(0.104288 -0.00188908 0)
(0.105543 -0.0018744 0)
(0.106788 -0.00185892 0)
(0.108023 -0.00184263 0)
(0.109246 -0.00182551 0)
(0.110458 -0.00180753 0)
(0.111657 -0.0017887 0)
(0.112844 -0.00176898 0)
(0.114017 -0.00174837 0)
(0.115176 -0.00172685 0)
(0.11632 -0.00170441 0)
(0.11745 -0.00168103 0)
(0.118563 -0.00165672 0)
(0.11966 -0.00163146 0)
(0.120739 -0.00160523 0)
(0.121801 -0.00157805 0)
(0.122845 -0.00154989 0)
(0.123869 -0.00152076 0)
(0.124873 -0.00149065 0)
(0.125858 -0.00145957 0)
(0.126821 -0.00142751 0)
(0.127762 -0.00139448 0)
(0.128681 -0.00136048 0)
(0.129577 -0.00132552 0)
(0.13045 -0.00128961 0)
(0.131298 -0.00125276 0)
(0.132121 -0.00121497 0)
(0.132919 -0.00117627 0)
(0.133691 -0.00113666 0)
(0.134436 -0.00109617 0)
(0.135153 -0.00105482 0)
(0.135843 -0.00101262 0)
(0.136504 -0.000969607 0)
(0.137137 -0.000925794 0)
(0.13774 -0.000881213 0)
(0.138313 -0.000835893 0)
(0.138855 -0.000789863 0)
(0.139367 -0.000743156 0)
(0.139847 -0.000695806 0)
(0.140295 -0.000647849 0)
(0.140711 -0.00059932 0)
(0.141095 -0.000550259 0)
(0.141446 -0.000500705 0)
(0.141763 -0.000450699 0)
(0.142047 -0.000400283 0)
(0.142297 -0.000349501 0)
(0.142513 -0.000298395 0)
(0.142695 -0.000247012 0)
(0.142843 -0.000195397 0)
(0.142956 -0.000143596 0)
(0.143035 -9.1656e-05 0)
(0.143078 -3.96234e-05 0)
(0.143088 1.24545e-05 0)
(0.143062 6.45302e-05 0)
(0.143001 0.000116557 0)
(0.142906 0.000168487 0)
(0.142777 0.000220274 0)
(0.142612 0.000271872 0)
(0.142414 0.000323235 0)
(0.142181 0.000374318 0)
(0.141914 0.000425076 0)
(0.141614 0.000475467 0)
(0.14128 0.000525449 0)
(0.140913 0.000574979 0)
(0.140513 0.000624019 0)
(0.14008 0.000672529 0)
(0.139615 0.000720473 0)
(0.139119 0.000767814 0)
(0.138591 0.000814519 0)
(0.138032 0.000860554 0)
(0.137442 0.000905889 0)
(0.136823 0.000950495 0)
(0.136174 0.000994344 0)
(0.135496 0.00103741 0)
(0.13479 0.00107967 0)
(0.134056 0.0011211 0)
(0.133294 0.00116169 0)
(0.132506 0.0012014 0)
(0.131691 0.00124024 0)
(0.130851 0.00127817 0)
(0.129986 0.0013152 0)
(0.129096 0.0013513 0)
(0.128183 0.00138647 0)
(0.127247 0.0014207 0)
(0.126288 0.00145399 0)
(0.125307 0.00148633 0)
(0.124305 0.00151772 0)
(0.123282 0.00154816 0)
(0.122239 0.00157765 0)
(0.121177 0.00160619 0)
(0.120096 0.00163378 0)
(0.118998 0.00166044 0)
(0.117881 0.00168615 0)
(0.116748 0.00171095 0)
(0.115599 0.00173482 0)
(0.114434 0.00175778 0)
(0.113254 0.00177985 0)
(0.11206 0.00180103 0)
(0.110852 0.00182134 0)
(0.10963 0.00184079 0)
(0.108396 0.00185939 0)
(0.10715 0.00187716 0)
(0.105893 0.00189412 0)
(0.104624 0.00191028 0)
(0.103345 0.00192566 0)
(0.102055 0.00194027 0)
(0.100757 0.00195413 0)
(0.0994489 0.00196727 0)
(0.0981327 0.0019797 0)
(0.0968084 0.00199144 0)
(0.0954766 0.0020025 0)
(0.0941376 0.00201291 0)
(0.0927919 0.00202269 0)
(0.09144 0.00203186 0)
(0.0900821 0.00204042 0)
(0.0887187 0.00204842 0)
(0.0873502 0.00205586 0)
(0.0859769 0.00206276 0)
(0.0845992 0.00206915 0)
(0.0832174 0.00207504 0)
(0.0818319 0.00208045 0)
(0.0804429 0.0020854 0)
(0.0790508 0.00208991 0)
(0.0776559 0.002094 0)
(0.0762583 0.00209768 0)
(0.0748585 0.00210099 0)
(0.0734566 0.00210392 0)
(0.0720528 0.0021065 0)
(0.0706475 0.00210875 0)
(0.0692408 0.00211069 0)
(0.0678329 0.00211232 0)
(0.066424 0.00211367 0)
(0.0650143 0.00211476 0)
(0.063604 0.0021156 0)
(0.0621932 0.0021162 0)
(0.0607821 0.00211658 0)
(0.0593709 0.00211675 0)
(0.0579596 0.00211673 0)
(0.0565484 0.00211653 0)
(0.0551373 0.00211617 0)
(0.0537266 0.00211566 0)
(0.0523163 0.002115 0)
(0.0509065 0.00211422 0)
(0.0494972 0.00211333 0)
(0.0480886 0.00211233 0)
(0.0466806 0.00211125 0)
(0.0452735 0.00211008 0)
(0.0438671 0.00210884 0)
(0.0424616 0.00210754 0)
(0.041057 0.00210619 0)
(0.0396533 0.0021048 0)
(0.0382506 0.00210337 0)
(0.0368488 0.00210193 0)
(0.035448 0.00210047 0)
(0.0340482 0.002099 0)
(0.0326493 0.00209753 0)
(0.0312515 0.00209607 0)
(0.0298546 0.00209462 0)
(0.0284587 0.0020932 0)
(0.0270637 0.0020918 0)
(0.0256696 0.00209044 0)
(0.0242765 0.00208912 0)
(0.0228842 0.00208784 0)
(0.0214928 0.00208661 0)
(0.0201021 0.00208544 0)
(0.0187123 0.00208432 0)
(0.0173231 0.00208327 0)
(0.0159346 0.00208228 0)
(0.0145468 0.00208136 0)
(0.0131596 0.00208052 0)
(0.0117729 0.00207976 0)
(0.0103867 0.00207907 0)
(0.0090009 0.00207846 0)
(0.0076155 0.00207794 0)
(0.00623042 0.0020775 0)
(0.00484561 0.00207714 0)
(0.003461 0.00207688 0)
(0.00207654 0.0020767 0)
(0.000692171 0.00207662 0)
(0.000665488 -0.00332786 0)
(0.0019965 -0.00332802 0)
(0.00332761 -0.00332836 0)
(0.00465889 -0.00332885 0)
(0.0059904 -0.00332951 0)
(0.00732221 -0.00333034 0)
(0.00865438 -0.00333132 0)
(0.00998698 -0.00333246 0)
(0.0113201 -0.00333376 0)
(0.0126537 -0.00333521 0)
(0.013988 -0.00333681 0)
(0.0153229 -0.00333856 0)
(0.0166586 -0.00334044 0)
(0.017995 -0.00334247 0)
(0.0193323 -0.00334462 0)
(0.0206705 -0.0033469 0)
(0.0220096 -0.00334931 0)
(0.0233497 -0.00335182 0)
(0.0246909 -0.00335445 0)
(0.0260331 -0.00335717 0)
(0.0273764 -0.00335999 0)
(0.0287209 -0.00336289 0)
(0.0300666 -0.00336587 0)
(0.0314135 -0.00336891 0)
(0.0327616 -0.00337201 0)
(0.034111 -0.00337516 0)
(0.0354617 -0.00337834 0)
(0.0368137 -0.00338155 0)
(0.0381669 -0.00338478 0)
(0.0395215 -0.003388 0)
(0.0408773 -0.00339122 0)
(0.0422345 -0.00339441 0)
(0.0435929 -0.00339756 0)
(0.0449526 -0.00340066 0)
(0.0463136 -0.00340369 0)
(0.0476757 -0.00340664 0)
(0.0490391 -0.00340948 0)
(0.0504035 -0.00341221 0)
(0.0517691 -0.00341481 0)
(0.0531357 -0.00341725 0)
(0.0545032 -0.00341951 0)
(0.0558716 -0.00342159 0)
(0.0572408 -0.00342345 0)
(0.0586108 -0.00342509 0)
(0.0599814 -0.00342646 0)
(0.0613525 -0.00342756 0)
(0.062724 -0.00342836 0)
(0.0640957 -0.00342883 0)
(0.0654677 -0.00342896 0)
(0.0668396 -0.00342871 0)
(0.0682113 -0.00342806 0)
(0.0695828 -0.00342699 0)
(0.0709537 -0.00342546 0)
(0.072324 -0.00342345 0)
(0.0736934 -0.00342093 0)
(0.0750617 -0.00341787 0)
(0.0764287 -0.00341424 0)
(0.0777942 -0.00341002 0)
(0.0791579 -0.00340516 0)
(0.0805195 -0.00339965 0)
(0.0818789 -0.00339344 0)
(0.0832356 -0.0033865 0)
(0.0845894 -0.00337881 0)
(0.0859401 -0.00337033 0)
(0.0872872 -0.00336102 0)
(0.0886304 -0.00335085 0)
(0.0899695 -0.00333978 0)
(0.0913039 -0.0033278 0)
(0.0926334 -0.00331484 0)
(0.0939576 -0.0033009 0)
(0.095276 -0.00328592 0)
(0.0965882 -0.00326987 0)
(0.0978939 -0.00325273 0)
(0.0991925 -0.00323445 0)
(0.100484 -0.003215 0)
(0.101767 -0.00319436 0)
(0.103041 -0.00317247 0)
(0.104307 -0.00314933 0)
(0.105563 -0.00312488 0)
(0.106809 -0.00309911 0)
(0.108045 -0.00307198 0)
(0.109269 -0.00304345 0)
(0.110482 -0.00301352 0)
(0.111683 -0.00298214 0)
(0.11287 -0.00294929 0)
(0.114045 -0.00291495 0)
(0.115205 -0.0028791 0)
(0.116351 -0.00284171 0)
(0.117481 -0.00280277 0)
(0.118596 -0.00276226 0)
(0.119694 -0.00272016 0)
(0.120775 -0.00267646 0)
(0.121838 -0.00263115 0)
(0.122883 -0.00258423 0)
(0.123908 -0.00253568 0)
(0.124914 -0.0024855 0)
(0.1259 -0.00243369 0)
(0.126864 -0.00238026 0)
(0.127807 -0.0023252 0)
(0.128727 -0.00226853 0)
(0.129624 -0.00221026 0)
(0.130498 -0.0021504 0)
(0.131348 -0.00208896 0)
(0.132172 -0.00202597 0)
(0.132971 -0.00196145 0)
(0.133744 -0.00189542 0)
(0.13449 -0.00182792 0)
(0.135209 -0.00175897 0)
(0.1359 -0.00168862 0)
(0.136562 -0.00161689 0)
(0.137196 -0.00154384 0)
(0.1378 -0.00146951 0)
(0.138374 -0.00139394 0)
(0.138917 -0.00131719 0)
(0.139429 -0.00123931 0)
(0.13991 -0.00116035 0)
(0.140359 -0.00108038 0)
(0.140776 -0.000999458 0)
(0.141161 -0.000917645 0)
(0.141512 -0.000835009 0)
(0.14183 -0.000751619 0)
(0.142115 -0.000667545 0)
(0.142365 -0.000582858 0)
(0.142582 -0.000497633 0)
(0.142764 -0.000411944 0)
(0.142912 -0.000325868 0)
(0.143025 -0.000239481 0)
(0.143104 -0.000152862 0)
(0.143148 -6.60881e-05 0)
(0.143157 2.07608e-05 0)
(0.143131 0.000107606 0)
(0.143071 0.000194369 0)
(0.142976 0.000280971 0)
(0.142846 0.000367334 0)
(0.142681 0.000453382 0)
(0.142482 0.000539036 0)
(0.142249 0.000624224 0)
(0.141982 0.00070887 0)
(0.141681 0.000792902 0)
(0.141346 0.00087625 0)
(0.140978 0.000958845 0)
(0.140578 0.00104062 0)
(0.140144 0.00112151 0)
(0.139679 0.00120146 0)
(0.139181 0.0012804 0)
(0.138653 0.00135828 0)
(0.138093 0.00143504 0)
(0.137502 0.00151063 0)
(0.136882 0.001585 0)
(0.136232 0.00165811 0)
(0.135553 0.00172991 0)
(0.134846 0.00180037 0)
(0.13411 0.00186945 0)
(0.133348 0.00193711 0)
(0.132558 0.00200332 0)
(0.131742 0.00206806 0)
(0.130901 0.0021313 0)
(0.130035 0.00219302 0)
(0.129144 0.0022532 0)
(0.128229 0.00231183 0)
(0.127292 0.00236889 0)
(0.126331 0.00242438 0)
(0.125349 0.00247828 0)
(0.124346 0.0025306 0)
(0.123322 0.00258133 0)
(0.122278 0.00263047 0)
(0.121215 0.00267803 0)
(0.120133 0.00272402 0)
(0.119033 0.00276843 0)
(0.117915 0.00281129 0)
(0.116781 0.0028526 0)
(0.11563 0.00289238 0)
(0.114464 0.00293064 0)
(0.113283 0.0029674 0)
(0.112088 0.00300269 0)
(0.110878 0.00303652 0)
(0.109656 0.00306892 0)
(0.108421 0.00309991 0)
(0.107173 0.00312951 0)
(0.105915 0.00315775 0)
(0.104645 0.00318467 0)
(0.103365 0.00321028 0)
(0.102074 0.00323461 0)
(0.100775 0.0032577 0)
(0.0994659 0.00327958 0)
(0.0981488 0.00330027 0)
(0.0968236 0.00331981 0)
(0.0954909 0.00333823 0)
(0.0941511 0.00335556 0)
(0.0928046 0.00337183 0)
(0.0914518 0.00338709 0)
(0.0900931 0.00340135 0)
(0.088729 0.00341465 0)
(0.0873597 0.00342703 0)
(0.0859858 0.00343851 0)
(0.0846074 0.00344913 0)
(0.083225 0.00345893 0)
(0.0818388 0.00346792 0)
(0.0804492 0.00347615 0)
(0.0790566 0.00348365 0)
(0.0776611 0.00349045 0)
(0.076263 0.00349657 0)
(0.0748626 0.00350205 0)
(0.0734603 0.00350692 0)
(0.0720561 0.0035112 0)
(0.0706503 0.00351494 0)
(0.0692432 0.00351814 0)
(0.0678349 0.00352085 0)
(0.0664256 0.00352309 0)
(0.0650156 0.00352488 0)
(0.063605 0.00352626 0)
(0.0621939 0.00352724 0)
(0.0607825 0.00352785 0)
(0.059371 0.00352813 0)
(0.0579594 0.00352808 0)
(0.056548 0.00352774 0)
(0.0551368 0.00352712 0)
(0.0537258 0.00352625 0)
(0.0523153 0.00352515 0)
(0.0509054 0.00352383 0)
(0.0494959 0.00352233 0)
(0.0480872 0.00352066 0)
(0.0466791 0.00351883 0)
(0.0452719 0.00351687 0)
(0.0438654 0.0035148 0)
(0.0424599 0.00351262 0)
(0.0410552 0.00351036 0)
(0.0396514 0.00350803 0)
(0.0382487 0.00350565 0)
(0.0368469 0.00350323 0)
(0.035446 0.00350078 0)
(0.0340462 0.00349833 0)
(0.0326474 0.00349587 0)
(0.0312495 0.00349343 0)
(0.0298527 0.00349101 0)
(0.0284568 0.00348863 0)
(0.0270618 0.0034863 0)
(0.0256678 0.00348402 0)
(0.0242748 0.00348181 0)
(0.0228825 0.00347968 0)
(0.0214912 0.00347762 0)
(0.0201006 0.00347566 0)
(0.0187108 0.0034738 0)
(0.0173218 0.00347204 0)
(0.0159334 0.00347039 0)
(0.0145456 0.00346886 0)
(0.0131585 0.00346745 0)
(0.0117719 0.00346617 0)
(0.0103858 0.00346502 0)
(0.00900014 0.00346401 0)
(0.00761485 0.00346313 0)
(0.00622989 0.0034624 0)
(0.00484519 0.00346181 0)
(0.0034607 0.00346137 0)
(0.00207636 0.00346107 0)
(0.000692111 0.00346093 0)
(0.000665388 -0.00465877 0)
(0.0019962 -0.004659 0)
(0.00332711 -0.00465947 0)
(0.00465818 -0.00466016 0)
(0.0059895 -0.00466109 0)
(0.00732111 -0.00466225 0)
(0.00865309 -0.00466363 0)
(0.0099855 -0.00466523 0)
(0.0113184 -0.00466705 0)
(0.0126519 -0.00466909 0)
(0.0139859 -0.00467133 0)
(0.0153207 -0.00467378 0)
(0.0166562 -0.00467643 0)
(0.0179925 -0.00467927 0)
(0.0193296 -0.00468229 0)
(0.0206676 -0.0046855 0)
(0.0220066 -0.00468887 0)
(0.0233466 -0.0046924 0)
(0.0246876 -0.00469608 0)
(0.0260297 -0.00469991 0)
(0.027373 -0.00470386 0)
(0.0287174 -0.00470794 0)
(0.030063 -0.00471212 0)
(0.0314098 -0.00471639 0)
(0.0327578 -0.00472075 0)
(0.0341072 -0.00472517 0)
(0.0354578 -0.00472965 0)
(0.0368097 -0.00473416 0)
(0.038163 -0.00473869 0)
(0.0395176 -0.00474322 0)
(0.0408734 -0.00474774 0)
(0.0422306 -0.00475223 0)
(0.0435891 -0.00475666 0)
(0.0449489 -0.00476102 0)
(0.0463099 -0.00476528 0)
(0.0476722 -0.00476943 0)
(0.0490357 -0.00477344 0)
(0.0504003 -0.00477728 0)
(0.051766 -0.00478094 0)
(0.0531328 -0.00478438 0)
(0.0545005 -0.00478759 0)
(0.0558692 -0.00479052 0)
(0.0572387 -0.00479316 0)
(0.0586089 -0.00479548 0)
(0.0599798 -0.00479743 0)
(0.0613512 -0.004799 0)
(0.0627231 -0.00480015 0)
(0.0640953 -0.00480085 0)
(0.0654676 -0.00480106 0)
(0.06684 -0.00480075 0)
(0.0682123 -0.00479988 0)
(0.0695843 -0.00479841 0)
(0.0709558 -0.00479631 0)
(0.0723266 -0.00479354 0)
(0.0736967 -0.00479005 0)
(0.0750656 -0.00478582 0)
(0.0764334 -0.00478078 0)
(0.0777996 -0.00477491 0)
(0.079164 -0.00476816 0)
(0.0805265 -0.00476048 0)
(0.0818866 -0.00475183 0)
(0.0832443 -0.00474217 0)
(0.084599 -0.00473144 0)
(0.0859506 -0.00471961 0)
(0.0872988 -0.00470662 0)
(0.0886431 -0.00469244 0)
(0.0899832 -0.004677 0)
(0.0913188 -0.00466026 0)
(0.0926495 -0.00464218 0)
(0.0939748 -0.0046227 0)
(0.0952945 -0.00460177 0)
(0.096608 -0.00457936 0)
(0.097915 -0.00455541 0)
(0.099215 -0.00452986 0)
(0.100507 -0.00450269 0)
(0.101792 -0.00447383 0)
(0.103068 -0.00444324 0)
(0.104335 -0.00441088 0)
(0.105593 -0.0043767 0)
(0.106841 -0.00434065 0)
(0.108078 -0.00430271 0)
(0.109304 -0.00426282 0)
(0.110519 -0.00422094 0)
(0.111721 -0.00417705 0)
(0.112911 -0.0041311 0)
(0.114087 -0.00408305 0)
(0.115249 -0.00403289 0)
(0.116397 -0.00398057 0)
(0.117529 -0.00392608 0)
(0.118645 -0.00386938 0)
(0.119745 -0.00381046 0)
(0.120828 -0.0037493 0)
(0.121893 -0.00368588 0)
(0.12294 -0.00362019 0)
(0.123967 -0.00355223 0)
(0.124975 -0.00348198 0)
(0.125963 -0.00340945 0)
(0.126929 -0.00333463 0)
(0.127874 -0.00325754 0)
(0.128796 -0.00317819 0)
(0.129695 -0.00309659 0)
(0.130571 -0.00301276 0)
(0.131422 -0.00292672 0)
(0.132249 -0.0028385 0)
(0.133049 -0.00274813 0)
(0.133824 -0.00265566 0)
(0.134572 -0.00256111 0)
(0.135293 -0.00246453 0)
(0.135985 -0.00236598 0)
(0.136649 -0.00226551 0)
(0.137284 -0.00216318 0)
(0.13789 -0.00205904 0)
(0.138465 -0.00195318 0)
(0.13901 -0.00184565 0)
(0.139523 -0.00173653 0)
(0.140006 -0.00162591 0)
(0.140456 -0.00151387 0)
(0.140874 -0.00140049 0)
(0.141259 -0.00128586 0)
(0.141612 -0.00117007 0)
(0.141931 -0.00105323 0)
(0.142216 -0.000935421 0)
(0.142467 -0.000816756 0)
(0.142684 -0.000697336 0)
(0.142867 -0.000577265 0)
(0.143016 -0.00045665 0)
(0.143129 -0.0003356 0)
(0.143208 -0.000214223 0)
(0.143252 -9.26297e-05 0)
(0.143261 2.90691e-05 0)
(0.143236 0.000150763 0)
(0.143175 0.000272341 0)
(0.143079 0.000393693 0)
(0.142949 0.00051471 0)
(0.142784 0.000635282 0)
(0.142585 0.000755304 0)
(0.142351 0.00087467 0)
(0.142083 0.000993275 0)
(0.141781 0.00111102 0)
(0.141446 0.0012278 0)
(0.141077 0.00134353 0)
(0.140675 0.00145811 0)
(0.140241 0.00157144 0)
(0.139774 0.00168345 0)
(0.139276 0.00179404 0)
(0.138745 0.00190315 0)
(0.138184 0.00201068 0)
(0.137592 0.00211658 0)
(0.136971 0.00222077 0)
(0.136319 0.00232318 0)
(0.135639 0.00242376 0)
(0.13493 0.00252246 0)
(0.134193 0.00261921 0)
(0.133428 0.00271397 0)
(0.132637 0.00280671 0)
(0.131819 0.00289738 0)
(0.130976 0.00298594 0)
(0.130108 0.00307238 0)
(0.129215 0.00315665 0)
(0.128299 0.00323875 0)
(0.127359 0.00331865 0)
(0.126397 0.00339634 0)
(0.125413 0.00347181 0)
(0.124408 0.00354506 0)
(0.123382 0.00361608 0)
(0.122336 0.00368488 0)
(0.121271 0.00375145 0)
(0.120187 0.00381582 0)
(0.119085 0.00387798 0)
(0.117966 0.00393797 0)
(0.116829 0.00399578 0)
(0.115677 0.00405145 0)
(0.114509 0.00410499 0)
(0.113326 0.00415643 0)
(0.112129 0.00420581 0)
(0.110918 0.00425314 0)
(0.109694 0.00429846 0)
(0.108457 0.00434181 0)
(0.107208 0.00438322 0)
(0.105948 0.00442272 0)
(0.104676 0.00446036 0)
(0.103394 0.00449617 0)
(0.102103 0.0045302 0)
(0.100802 0.00456248 0)
(0.0994915 0.00459306 0)
(0.0981729 0.00462199 0)
(0.0968464 0.0046493 0)
(0.0955124 0.00467504 0)
(0.0941713 0.00469926 0)
(0.0928235 0.004722 0)
(0.0914695 0.00474331 0)
(0.0901097 0.00476323 0)
(0.0887444 0.00478181 0)
(0.0873741 0.00479909 0)
(0.085999 0.00481512 0)
(0.0846196 0.00482995 0)
(0.0832362 0.00484361 0)
(0.0818491 0.00485616 0)
(0.0804587 0.00486764 0)
(0.0790651 0.0048781 0)
(0.0776688 0.00488757 0)
(0.07627 0.0048961 0)
(0.0748689 0.00490373 0)
(0.0734657 0.0049105 0)
(0.0720609 0.00491646 0)
(0.0706545 0.00492165 0)
(0.0692467 0.0049261 0)
(0.0678379 0.00492985 0)
(0.0664281 0.00493294 0)
(0.0650175 0.00493542 0)
(0.0636064 0.00493731 0)
(0.0621949 0.00493865 0)
(0.0607831 0.00493948 0)
(0.0593711 0.00493983 0)
(0.0579592 0.00493973 0)
(0.0565474 0.00493921 0)
(0.0551359 0.00493832 0)
(0.0537247 0.00493707 0)
(0.0523139 0.0049355 0)
(0.0509037 0.00493364 0)
(0.049494 0.00493151 0)
(0.0480851 0.00492914 0)
(0.0466769 0.00492656 0)
(0.0452695 0.00492379 0)
(0.0438629 0.00492086 0)
(0.0424572 0.00491779 0)
(0.0410524 0.0049146 0)
(0.0396486 0.00491132 0)
(0.0382458 0.00490796 0)
(0.0368439 0.00490455 0)
(0.0354431 0.00490111 0)
(0.0340433 0.00489766 0)
(0.0326444 0.0048942 0)
(0.0312466 0.00489077 0)
(0.0298498 0.00488737 0)
(0.028454 0.00488402 0)
(0.0270591 0.00488074 0)
(0.0256652 0.00487754 0)
(0.0242721 0.00487443 0)
(0.02288 0.00487143 0)
(0.0214888 0.00486854 0)
(0.0200983 0.00486579 0)
(0.0187086 0.00486317 0)
(0.0173197 0.0048607 0)
(0.0159315 0.00485838 0)
(0.0145439 0.00485623 0)
(0.0131569 0.00485425 0)
(0.0117705 0.00485246 0)
(0.0103845 0.00485084 0)
(0.00899901 0.00484942 0)
(0.00761389 0.00484819 0)
(0.0062291 0.00484716 0)
(0.00484457 0.00484633 0)
(0.00346026 0.00484571 0)
(0.0020761 0.0048453 0)
(0.000692022 0.00484509 0)
(0.000665253 -0.00598944 0)
(0.00199579 -0.00598974 0)
(0.00332644 -0.00599035 0)
(0.00465725 -0.00599124 0)
(0.0059883 -0.00599244 0)
(0.00731965 -0.00599393 0)
(0.00865137 -0.00599571 0)
(0.00998352 -0.00599778 0)
(0.0113162 -0.00600012 0)
(0.0126494 -0.00600275 0)
(0.0139832 -0.00600564 0)
(0.0153178 -0.0060088 0)
(0.016653 -0.00601222 0)
(0.0179891 -0.00601588 0)
(0.019326 -0.00601979 0)
(0.0206638 -0.00602392 0)
(0.0220026 -0.00602827 0)
(0.0233424 -0.00603283 0)
(0.0246833 -0.00603758 0)
(0.0260252 -0.00604251 0)
(0.0273683 -0.00604762 0)
(0.0287126 -0.00605288 0)
(0.0300581 -0.00605827 0)
(0.0314048 -0.00606379 0)
(0.0327528 -0.00606942 0)
(0.034102 -0.00607513 0)
(0.0354526 -0.00608091 0)
(0.0368045 -0.00608674 0)
(0.0381577 -0.00609259 0)
(0.0395123 -0.00609845 0)
(0.0408682 -0.00610429 0)
(0.0422255 -0.00611009 0)
(0.043584 -0.00611583 0)
(0.0449439 -0.00612147 0)
(0.046305 -0.00612699 0)
(0.0476675 -0.00613236 0)
(0.0490311 -0.00613756 0)
(0.0503959 -0.00614254 0)
(0.0517618 -0.00614729 0)
(0.0531289 -0.00615176 0)
(0.0544969 -0.00615593 0)
(0.0558659 -0.00615975 0)
(0.0572357 -0.0061632 0)
(0.0586064 -0.00616622 0)
(0.0599777 -0.00616879 0)
(0.0613496 -0.00617087 0)
(0.0627219 -0.0061724 0)
(0.0640947 -0.00617336 0)
(0.0654676 -0.00617369 0)
(0.0668406 -0.00617335 0)
(0.0682135 -0.0061723 0)
(0.0695862 -0.00617048 0)
(0.0709584 -0.00616784 0)
(0.0723301 -0.00616434 0)
(0.073701 -0.00615993 0)
(0.0750708 -0.00615455 0)
(0.0764395 -0.00614815 0)
(0.0778066 -0.00614068 0)
(0.0791721 -0.00613207 0)
(0.0805357 -0.00612228 0)
(0.081897 -0.00611124 0)
(0.0832558 -0.00609889 0)
(0.0846118 -0.00608518 0)
(0.0859647 -0.00607005 0)
(0.0873141 -0.00605344 0)
(0.0886598 -0.00603527 0)
(0.0900014 -0.00601551 0)
(0.0913385 -0.00599407 0)
(0.0926708 -0.0059709 0)
(0.0939978 -0.00594594 0)
(0.0953191 -0.00591912 0)
(0.0966344 -0.00589039 0)
(0.0979432 -0.00585967 0)
(0.099245 -0.00582691 0)
(0.100539 -0.00579205 0)
(0.101826 -0.00575502 0)
(0.103104 -0.00571577 0)
(0.104373 -0.00567424 0)
(0.105633 -0.00563037 0)
(0.106883 -0.0055841 0)
(0.108122 -0.00553539 0)
(0.109351 -0.00548417 0)
(0.110568 -0.00543039 0)
(0.111772 -0.00537402 0)
(0.112964 -0.00531499 0)
(0.114143 -0.00525328 0)
(0.115307 -0.00518883 0)
(0.116457 -0.00512161 0)
(0.117592 -0.00505159 0)
(0.118711 -0.00497873 0)
(0.119814 -0.00490301 0)
(0.120899 -0.00482439 0)
(0.121967 -0.00474288 0)
(0.123016 -0.00465843 0)
(0.124046 -0.00457106 0)
(0.125057 -0.00448074 0)
(0.126047 -0.00438748 0)
(0.127016 -0.00429128 0)
(0.127963 -0.00419215 0)
(0.128888 -0.0040901 0)
(0.12979 -0.00398515 0)
(0.130668 -0.00387733 0)
(0.131522 -0.00376666 0)
(0.132351 -0.00365318 0)
(0.133154 -0.00353693 0)
(0.133931 -0.00341796 0)
(0.134681 -0.00329632 0)
(0.135404 -0.00317207 0)
(0.136099 -0.00304527 0)
(0.136765 -0.00291599 0)
(0.137402 -0.00278431 0)
(0.13801 -0.00265031 0)
(0.138587 -0.00251407 0)
(0.139134 -0.00237569 0)
(0.139649 -0.00223527 0)
(0.140133 -0.0020929 0)
(0.140585 -0.00194869 0)
(0.141004 -0.00180276 0)
(0.141391 -0.00165522 0)
(0.141745 -0.00150619 0)
(0.142065 -0.00135579 0)
(0.142351 -0.00120416 0)
(0.142603 -0.00105141 0)
(0.142821 -0.000897692 0)
(0.143005 -0.000743132 0)
(0.143154 -0.00058787 0)
(0.143268 -0.000432047 0)
(0.143347 -0.000275802 0)
(0.143391 -0.000119279 0)