/*--------------------------------*- C++ -*----------------------------------*\
| =========                 |                                                 |
| \\      /  F ield         | OpenFOAM: The Open Source CFD Toolbox           |
|  \\    /   O peration     | Version:  v2012                                 |
|   \\  /    A nd           | Website:  www.openfoam.com                      |
|    \\/     M anipulation  |                                                 |
\*---------------------------------------------------------------------------*/
FoamFile
{
    version     2.0;
    format      ascii;
    class       volVectorField;
    location    "10.9";
    object      Psi;
}
// * * * * * * * * * * * * * * * * * * * * * * * * * * * * * * * * * * * * * //

dimensions      [0 2 -1 0 0 0 0];


internalField   nonuniform List<vector> 
65536
(
(0 0 9.09432e-06)
(0 0 2.72833e-05)
(0 0 4.54732e-05)
(0 0 6.36646e-05)
(0 0 8.1858e-05)
(0 0 0.000100054)
(0 0 0.000118253)
(0 0 0.000136457)
(0 0 0.000154664)
(0 0 0.000172876)
(0 0 0.000191093)
(0 0 0.000209316)
(0 0 0.000227545)
(0 0 0.00024578)
(0 0 0.000264022)
(0 0 0.000282271)
(0 0 0.000300527)
(0 0 0.00031879)
(0 0 0.00033706)
(0 0 0.000355338)
(0 0 0.000373622)
(0 0 0.000391914)
(0 0 0.000410212)
(0 0 0.000428517)
(0 0 0.000446828)
(0 0 0.000465145)
(0 0 0.000483467)
(0 0 0.000501793)
(0 0 0.000520123)
(0 0 0.000538456)
(0 0 0.00055679)
(0 0 0.000575125)
(0 0 0.00059346)
(0 0 0.000611792)
(0 0 0.000630122)
(0 0 0.000648446)
(0 0 0.000666764)
(0 0 0.000685074)
(0 0 0.000703373)
(0 0 0.000721659)
(0 0 0.000739931)
(0 0 0.000758185)
(0 0 0.000776419)
(0 0 0.000794631)
(0 0 0.000812818)
(0 0 0.000830976)
(0 0 0.000849102)
(0 0 0.000867194)
(0 0 0.000885247)
(0 0 0.000903258)
(0 0 0.000921222)
(0 0 0.000939137)
(0 0 0.000956997)
(0 0 0.000974799)
(0 0 0.000992538)
(0 0 0.00101021)
(0 0 0.00102781)
(0 0 0.00104533)
(0 0 0.00106277)
(0 0 0.00108012)
(0 0 0.00109737)
(0 0 0.00111453)
(0 0 0.00113158)
(0 0 0.00114852)
(0 0 0.00116534)
(0 0 0.00118204)
(0 0 0.00119861)
(0 0 0.00121505)
(0 0 0.00123134)
(0 0 0.00124748)
(0 0 0.00126347)
(0 0 0.00127929)
(0 0 0.00129494)
(0 0 0.00131042)
(0 0 0.00132571)
(0 0 0.0013408)
(0 0 0.0013557)
(0 0 0.00137039)
(0 0 0.00138487)
(0 0 0.00139913)
(0 0 0.00141316)
(0 0 0.00142695)
(0 0 0.00144049)
(0 0 0.00145379)
(0 0 0.00146683)
(0 0 0.0014796)
(0 0 0.0014921)
(0 0 0.00150432)
(0 0 0.00151626)
(0 0 0.0015279)
(0 0 0.00153924)
(0 0 0.00155027)
(0 0 0.00156098)
(0 0 0.00157138)
(0 0 0.00158145)
(0 0 0.00159119)
(0 0 0.00160059)
(0 0 0.00160965)
(0 0 0.00161835)
(0 0 0.0016267)
(0 0 0.00163469)
(0 0 0.00164232)
(0 0 0.00164958)
(0 0 0.00165647)
(0 0 0.00166298)
(0 0 0.00166911)
(0 0 0.00167485)
(0 0 0.00168021)
(0 0 0.00168518)
(0 0 0.00168976)
(0 0 0.00169394)
(0 0 0.00169773)
(0 0 0.00170113)
(0 0 0.00170412)
(0 0 0.00170672)
(0 0 0.00170891)
(0 0 0.00171071)
(0 0 0.00171211)
(0 0 0.00171311)
(0 0 0.00171371)
(0 0 0.00171392)
(0 0 0.00171373)
(0 0 0.00171315)
(0 0 0.00171218)
(0 0 0.00171081)
(0 0 0.00170907)
(0 0 0.00170693)
(0 0 0.00170442)
(0 0 0.00170153)
(0 0 0.00169827)
(0 0 0.00169464)
(0 0 0.00169065)
(0 0 0.00168629)
(0 0 0.00168158)
(0 0 0.00167652)
(0 0 0.00167111)
(0 0 0.00166537)
(0 0 0.00165928)
(0 0 0.00165287)
(0 0 0.00164614)
(0 0 0.00163908)
(0 0 0.00163171)
(0 0 0.00162404)
(0 0 0.00161607)
(0 0 0.0016078)
(0 0 0.00159925)
(0 0 0.00159041)
(0 0 0.0015813)
(0 0 0.00157192)
(0 0 0.00156229)
(0 0 0.00155239)
(0 0 0.00154225)
(0 0 0.00153186)
(0 0 0.00152125)
(0 0 0.0015104)
(0 0 0.00149933)
(0 0 0.00148804)
(0 0 0.00147655)
(0 0 0.00146485)
(0 0 0.00145296)
(0 0 0.00144087)
(0 0 0.00142861)
(0 0 0.00141616)
(0 0 0.00140355)
(0 0 0.00139077)
(0 0 0.00137783)
(0 0 0.00136474)
(0 0 0.0013515)
(0 0 0.00133812)
(0 0 0.0013246)
(0 0 0.00131095)
(0 0 0.00129718)
(0 0 0.00128329)
(0 0 0.00126928)
(0 0 0.00125517)
(0 0 0.00124094)
(0 0 0.00122662)
(0 0 0.00121221)
(0 0 0.0011977)
(0 0 0.00118311)
(0 0 0.00116844)
(0 0 0.00115368)
(0 0 0.00113886)
(0 0 0.00112397)
(0 0 0.00110901)
(0 0 0.00109399)
(0 0 0.00107891)
(0 0 0.00106378)
(0 0 0.00104859)
(0 0 0.00103336)
(0 0 0.00101809)
(0 0 0.00100277)
(0 0 0.000987414)
(0 0 0.000972023)
(0 0 0.000956599)
(0 0 0.000941144)
(0 0 0.000925662)
(0 0 0.000910155)
(0 0 0.000894624)
(0 0 0.000879073)
(0 0 0.000863503)
(0 0 0.000847916)
(0 0 0.000832314)
(0 0 0.0008167)
(0 0 0.000801074)
(0 0 0.000785439)
(0 0 0.000769795)
(0 0 0.000754145)
(0 0 0.00073849)
(0 0 0.000722831)
(0 0 0.000707169)
(0 0 0.000691506)
(0 0 0.000675842)
(0 0 0.000660179)
(0 0 0.000644517)
(0 0 0.000628857)
(0 0 0.000613201)
(0 0 0.000597548)
(0 0 0.0005819)
(0 0 0.000566257)
(0 0 0.00055062)
(0 0 0.000534989)
(0 0 0.000519364)
(0 0 0.000503747)
(0 0 0.000488136)
(0 0 0.000472533)
(0 0 0.000456938)
(0 0 0.00044135)
(0 0 0.000425771)
(0 0 0.0004102)
(0 0 0.000394637)
(0 0 0.000379082)
(0 0 0.000363535)
(0 0 0.000347997)
(0 0 0.000332466)
(0 0 0.000316944)
(0 0 0.000301429)
(0 0 0.000285921)
(0 0 0.000270421)
(0 0 0.000254928)
(0 0 0.000239441)
(0 0 0.000223962)
(0 0 0.000208488)
(0 0 0.00019302)
(0 0 0.000177557)
(0 0 0.0001621)
(0 0 0.000146647)
(0 0 0.000131199)
(0 0 0.000115755)
(0 0 0.000100314)
(0 0 8.48756e-05)
(0 0 6.94401e-05)
(0 0 5.40068e-05)
(0 0 3.85751e-05)
(0 0 2.31446e-05)
(0 0 7.71479e-06)
(0 0 2.72827e-05)
(0 0 8.18491e-05)
(0 0 0.000136418)
(0 0 0.000190992)
(0 0 0.000245572)
(0 0 0.00030016)
(0 0 0.000354757)
(0 0 0.000409366)
(0 0 0.000463987)
(0 0 0.000518623)
(0 0 0.000573275)
(0 0 0.000627943)
(0 0 0.00068263)
(0 0 0.000737335)
(0 0 0.000792061)
(0 0 0.000846807)
(0 0 0.000901574)
(0 0 0.000956363)
(0 0 0.00101117)
(0 0 0.00106601)
(0 0 0.00112086)
(0 0 0.00117574)
(0 0 0.00123063)
(0 0 0.00128555)
(0 0 0.00134048)
(0 0 0.00139543)
(0 0 0.0014504)
(0 0 0.00150538)
(0 0 0.00156037)
(0 0 0.00161537)
(0 0 0.00167037)
(0 0 0.00172538)
(0 0 0.00178038)
(0 0 0.00183538)
(0 0 0.00189037)
(0 0 0.00194535)
(0 0 0.0020003)
(0 0 0.00205523)
(0 0 0.00211013)
(0 0 0.00216499)
(0 0 0.00221981)
(0 0 0.00227458)
(0 0 0.00232928)
(0 0 0.00238392)
(0 0 0.00243848)
(0 0 0.00249296)
(0 0 0.00254734)
(0 0 0.00260162)
(0 0 0.00265578)
(0 0 0.00270982)
(0 0 0.00276372)
(0 0 0.00281747)
(0 0 0.00287105)
(0 0 0.00292446)
(0 0 0.00297768)
(0 0 0.0030307)
(0 0 0.0030835)
(0 0 0.00313607)
(0 0 0.00318839)
(0 0 0.00324044)
(0 0 0.00329221)
(0 0 0.00334369)
(0 0 0.00339485)
(0 0 0.00344568)
(0 0 0.00349616)
(0 0 0.00354626)
(0 0 0.00359598)
(0 0 0.00364529)
(0 0 0.00369417)
(0 0 0.0037426)
(0 0 0.00379057)
(0 0 0.00383804)
(0 0 0.003885)
(0 0 0.00393143)
(0 0 0.00397731)
(0 0 0.00402261)
(0 0 0.00406731)
(0 0 0.00411139)
(0 0 0.00415483)
(0 0 0.00419761)
(0 0 0.0042397)
(0 0 0.00428108)
(0 0 0.00432173)
(0 0 0.00436163)
(0 0 0.00440076)
(0 0 0.00443908)
(0 0 0.00447659)
(0 0 0.00451326)
(0 0 0.00454906)
(0 0 0.00458399)
(0 0 0.00461801)
(0 0 0.00465111)
(0 0 0.00468327)
(0 0 0.00471447)
(0 0 0.00474469)
(0 0 0.00477391)
(0 0 0.00480211)
(0 0 0.00482928)
(0 0 0.00485541)
(0 0 0.00488047)
(0 0 0.00490445)
(0 0 0.00492733)
(0 0 0.00494911)
(0 0 0.00496978)
(0 0 0.00498931)
(0 0 0.0050077)
(0 0 0.00502494)
(0 0 0.00504102)
(0 0 0.00505593)
(0 0 0.00506967)
(0 0 0.00508223)
(0 0 0.0050936)
(0 0 0.00510378)
(0 0 0.00511276)
(0 0 0.00512055)
(0 0 0.00512714)
(0 0 0.00513253)
(0 0 0.00513673)
(0 0 0.00513973)
(0 0 0.00514154)
(0 0 0.00514215)
(0 0 0.00514158)
(0 0 0.00513984)
(0 0 0.00513691)
(0 0 0.00513282)
(0 0 0.00512758)
(0 0 0.00512118)
(0 0 0.00511364)
(0 0 0.00510497)
(0 0 0.00509518)
(0 0 0.00508429)
(0 0 0.0050723)
(0 0 0.00505923)
(0 0 0.0050451)
(0 0 0.00502991)
(0 0 0.00501368)
(0 0 0.00499643)
(0 0 0.00497818)
(0 0 0.00495894)
(0 0 0.00493872)
(0 0 0.00491755)
(0 0 0.00489544)
(0 0 0.00487242)
(0 0 0.00484849)
(0 0 0.00482369)
(0 0 0.00479802)
(0 0 0.00477151)
(0 0 0.00474417)
(0 0 0.00471603)
(0 0 0.00468711)
(0 0 0.00465742)
(0 0 0.00462699)
(0 0 0.00459583)
(0 0 0.00456396)
(0 0 0.00453141)
(0 0 0.00449819)
(0 0 0.00446433)
(0 0 0.00442984)
(0 0 0.00439474)
(0 0 0.00435906)
(0 0 0.0043228)
(0 0 0.004286)
(0 0 0.00424866)
(0 0 0.00421081)
(0 0 0.00417246)
(0 0 0.00413364)
(0 0 0.00409436)
(0 0 0.00405464)
(0 0 0.00401449)
(0 0 0.00397393)
(0 0 0.00393298)
(0 0 0.00389166)
(0 0 0.00384998)
(0 0 0.00380795)
(0 0 0.0037656)
(0 0 0.00372293)
(0 0 0.00367996)
(0 0 0.00363671)
(0 0 0.00359319)
(0 0 0.00354941)
(0 0 0.00350538)
(0 0 0.00346112)
(0 0 0.00341665)
(0 0 0.00337196)
(0 0 0.00332708)
(0 0 0.00328202)
(0 0 0.00323678)
(0 0 0.00319138)
(0 0 0.00314583)
(0 0 0.00310013)
(0 0 0.0030543)
(0 0 0.00300834)
(0 0 0.00296227)
(0 0 0.0029161)
(0 0 0.00286982)
(0 0 0.00282346)
(0 0 0.00277701)
(0 0 0.00273048)
(0 0 0.00268389)
(0 0 0.00263723)
(0 0 0.00259052)
(0 0 0.00254376)
(0 0 0.00249695)
(0 0 0.00245011)
(0 0 0.00240323)
(0 0 0.00235632)
(0 0 0.00230939)
(0 0 0.00226244)
(0 0 0.00221547)
(0 0 0.00216849)
(0 0 0.00212151)
(0 0 0.00207452)
(0 0 0.00202752)
(0 0 0.00198053)
(0 0 0.00193355)
(0 0 0.00188657)
(0 0 0.0018396)
(0 0 0.00179264)
(0 0 0.00174569)
(0 0 0.00169876)
(0 0 0.00165185)
(0 0 0.00160496)
(0 0 0.00155808)
(0 0 0.00151123)
(0 0 0.0014644)
(0 0 0.00141759)
(0 0 0.0013708)
(0 0 0.00132404)
(0 0 0.0012773)
(0 0 0.00123059)
(0 0 0.0011839)
(0 0 0.00113724)
(0 0 0.0010906)
(0 0 0.00104398)
(0 0 0.00099739)
(0 0 0.000950822)
(0 0 0.000904277)
(0 0 0.000857755)
(0 0 0.000811255)
(0 0 0.000764776)
(0 0 0.000718317)
(0 0 0.000671878)
(0 0 0.000625457)
(0 0 0.000579054)
(0 0 0.000532667)
(0 0 0.000486295)
(0 0 0.000439938)
(0 0 0.000393593)
(0 0 0.00034726)
(0 0 0.000300937)
(0 0 0.000254624)
(0 0 0.000208318)
(0 0 0.000162019)
(0 0 0.000115724)
(0 0 6.94331e-05)
(0 0 2.31441e-05)
(0 0 4.54702e-05)
(0 0 0.000136412)
(0 0 0.000227359)
(0 0 0.000318313)
(0 0 0.000409277)
(0 0 0.000500255)
(0 0 0.000591249)
(0 0 0.000682262)
(0 0 0.000773297)
(0 0 0.000864355)
(0 0 0.000955439)
(0 0 0.00104655)
(0 0 0.0011377)
(0 0 0.00122887)
(0 0 0.00132008)
(0 0 0.00141132)
(0 0 0.0015026)
(0 0 0.00159391)
(0 0 0.00168527)
(0 0 0.00177665)
(0 0 0.00186808)
(0 0 0.00195954)
(0 0 0.00205103)
(0 0 0.00214256)
(0 0 0.00223412)
(0 0 0.0023257)
(0 0 0.00241731)
(0 0 0.00250895)
(0 0 0.0026006)
(0 0 0.00269227)
(0 0 0.00278395)
(0 0 0.00287563)
(0 0 0.00296731)
(0 0 0.00305898)
(0 0 0.00315064)
(0 0 0.00324227)
(0 0 0.00333387)
(0 0 0.00342542)
(0 0 0.00351693)
(0 0 0.00360837)
(0 0 0.00369974)
(0 0 0.00379103)
(0 0 0.00388221)
(0 0 0.00397329)
(0 0 0.00406423)
(0 0 0.00415504)
(0 0 0.00424569)
(0 0 0.00433616)
(0 0 0.00442645)
(0 0 0.00451652)
(0 0 0.00460636)
(0 0 0.00469596)
(0 0 0.00478528)
(0 0 0.00487431)
(0 0 0.00496303)
(0 0 0.00505141)
(0 0 0.00513942)
(0 0 0.00522705)
(0 0 0.00531427)
(0 0 0.00540105)
(0 0 0.00548735)
(0 0 0.00557317)
(0 0 0.00565846)
(0 0 0.00574319)
(0 0 0.00582734)
(0 0 0.00591087)
(0 0 0.00599376)
(0 0 0.00607596)
(0 0 0.00615745)
(0 0 0.00623819)
(0 0 0.00631816)
(0 0 0.0063973)
(0 0 0.00647559)
(0 0 0.006553)
(0 0 0.00662949)
(0 0 0.00670501)
(0 0 0.00677954)
(0 0 0.00685303)
(0 0 0.00692546)
(0 0 0.00699678)
(0 0 0.00706696)
(0 0 0.00713595)
(0 0 0.00720373)
(0 0 0.00727025)
(0 0 0.00733548)
(0 0 0.00739938)
(0 0 0.00746192)
(0 0 0.00752305)
(0 0 0.00758275)
(0 0 0.00764099)
(0 0 0.00769771)
(0 0 0.0077529)
(0 0 0.00780652)
(0 0 0.00785854)
(0 0 0.00790892)
(0 0 0.00795764)
(0 0 0.00800466)
(0 0 0.00804997)
(0 0 0.00809353)
(0 0 0.00813531)
(0 0 0.00817529)
(0 0 0.00821345)
(0 0 0.00824977)
(0 0 0.00828422)
(0 0 0.00831678)
(0 0 0.00834745)
(0 0 0.00837619)
(0 0 0.008403)
(0 0 0.00842786)
(0 0 0.00845076)
(0 0 0.0084717)
(0 0 0.00849065)
(0 0 0.00850762)
(0 0 0.0085226)
(0 0 0.00853558)
(0 0 0.00854656)
(0 0 0.00855555)
(0 0 0.00856254)
(0 0 0.00856754)
(0 0 0.00857055)
(0 0 0.00857157)
(0 0 0.00857062)
(0 0 0.0085677)
(0 0 0.00856282)
(0 0 0.00855599)
(0 0 0.00854724)
(0 0 0.00853656)
(0 0 0.00852399)
(0 0 0.00850953)
(0 0 0.0084932)
(0 0 0.00847503)
(0 0 0.00845504)
(0 0 0.00843324)
(0 0 0.00840966)
(0 0 0.00838433)
(0 0 0.00835727)
(0 0 0.0083285)
(0 0 0.00829806)
(0 0 0.00826597)
(0 0 0.00823226)
(0 0 0.00819696)
(0 0 0.00816009)
(0 0 0.0081217)
(0 0 0.0080818)
(0 0 0.00804044)
(0 0 0.00799763)
(0 0 0.00795343)
(0 0 0.00790785)
(0 0 0.00786092)
(0 0 0.0078127)
(0 0 0.00776319)
(0 0 0.00771245)
(0 0 0.00766049)
(0 0 0.00760736)
(0 0 0.00755309)
(0 0 0.00749771)
(0 0 0.00744125)
(0 0 0.00738374)
(0 0 0.00732522)
(0 0 0.00726573)
(0 0 0.00720528)
(0 0 0.00714392)
(0 0 0.00708167)
(0 0 0.00701856)
(0 0 0.00695464)
(0 0 0.00688991)
(0 0 0.00682442)
(0 0 0.0067582)
(0 0 0.00669126)
(0 0 0.00662365)
(0 0 0.00655539)
(0 0 0.0064865)
(0 0 0.00641701)
(0 0 0.00634695)
(0 0 0.00627635)
(0 0 0.00620522)
(0 0 0.00613359)
(0 0 0.00606149)
(0 0 0.00598893)
(0 0 0.00591595)
(0 0 0.00584256)
(0 0 0.00576878)
(0 0 0.00569464)
(0 0 0.00562016)
(0 0 0.00554534)
(0 0 0.00547022)
(0 0 0.00539481)
(0 0 0.00531913)
(0 0 0.0052432)
(0 0 0.00516703)
(0 0 0.00509063)
(0 0 0.00501403)
(0 0 0.00493724)
(0 0 0.00486027)
(0 0 0.00478314)
(0 0 0.00470585)
(0 0 0.00462843)
(0 0 0.00455088)
(0 0 0.00447322)
(0 0 0.00439545)
(0 0 0.00431759)
(0 0 0.00423965)
(0 0 0.00416163)
(0 0 0.00408355)
(0 0 0.00400541)
(0 0 0.00392723)
(0 0 0.003849)
(0 0 0.00377075)
(0 0 0.00369246)
(0 0 0.00361416)
(0 0 0.00353585)
(0 0 0.00345753)
(0 0 0.0033792)
(0 0 0.00330088)
(0 0 0.00322257)
(0 0 0.00314427)
(0 0 0.00306598)
(0 0 0.00298772)
(0 0 0.00290947)
(0 0 0.00283126)
(0 0 0.00275307)
(0 0 0.00267491)
(0 0 0.00259678)
(0 0 0.00251869)
(0 0 0.00244064)
(0 0 0.00236262)
(0 0 0.00228465)
(0 0 0.00220671)
(0 0 0.00212881)
(0 0 0.00205096)
(0 0 0.00197314)
(0 0 0.00189537)
(0 0 0.00181763)
(0 0 0.00173994)
(0 0 0.00166229)
(0 0 0.00158468)
(0 0 0.0015071)
(0 0 0.00142957)
(0 0 0.00135207)
(0 0 0.0012746)
(0 0 0.00119717)
(0 0 0.00111978)
(0 0 0.00104241)
(0 0 0.000965071)
(0 0 0.000887761)
(0 0 0.000810476)
(0 0 0.000733215)
(0 0 0.000655975)
(0 0 0.000578755)
(0 0 0.000501552)
(0 0 0.000424365)
(0 0 0.00034719)
(0 0 0.000270026)
(0 0 0.00019287)
(0 0 0.000115719)
(0 0 3.85727e-05)
(0 0 6.36562e-05)
(0 0 0.000190971)
(0 0 0.000318292)
(0 0 0.000445623)
(0 0 0.000572969)
(0 0 0.000700335)
(0 0 0.000827723)
(0 0 0.000955137)
(0 0 0.00108258)
(0 0 0.00121006)
(0 0 0.00133758)
(0 0 0.00146513)
(0 0 0.00159273)
(0 0 0.00172037)
(0 0 0.00184806)
(0 0 0.0019758)
(0 0 0.00210359)
(0 0 0.00223143)
(0 0 0.00235932)
(0 0 0.00248726)
(0 0 0.00261526)
(0 0 0.0027433)
(0 0 0.0028714)
(0 0 0.00299954)
(0 0 0.00312772)
(0 0 0.00325595)
(0 0 0.00338421)
(0 0 0.0035125)
(0 0 0.00364082)
(0 0 0.00376917)
(0 0 0.00389752)
(0 0 0.00402589)
(0 0 0.00415425)
(0 0 0.0042826)
(0 0 0.00441092)
(0 0 0.00453922)
(0 0 0.00466747)
(0 0 0.00479566)
(0 0 0.00492379)
(0 0 0.00505182)
(0 0 0.00517976)
(0 0 0.00530757)
(0 0 0.00543525)
(0 0 0.00556278)
(0 0 0.00569013)
(0 0 0.00581728)
(0 0 0.00594421)
(0 0 0.0060709)
(0 0 0.00619732)
(0 0 0.00632345)
(0 0 0.00644926)
(0 0 0.00657472)
(0 0 0.0066998)
(0 0 0.00682448)
(0 0 0.00694871)
(0 0 0.00707248)
(0 0 0.00719574)
(0 0 0.00731845)
(0 0 0.00744059)
(0 0 0.00756212)
(0 0 0.00768299)
(0 0 0.00780317)
(0 0 0.00792261)
(0 0 0.00804128)
(0 0 0.00815914)
(0 0 0.00827613)
(0 0 0.00839221)
(0 0 0.00850734)
(0 0 0.00862148)
(0 0 0.00873457)
(0 0 0.00884656)
(0 0 0.00895741)
(0 0 0.00906707)
(0 0 0.00917549)
(0 0 0.00928262)
(0 0 0.00938841)
(0 0 0.0094928)
(0 0 0.00959575)
(0 0 0.00969719)
(0 0 0.00979709)
(0 0 0.00989539)
(0 0 0.00999204)
(0 0 0.010087)
(0 0 0.0101802)
(0 0 0.0102715)
(0 0 0.010361)
(0 0 0.0104486)
(0 0 0.0105343)
(0 0 0.0106179)
(0 0 0.0106995)
(0 0 0.010779)
(0 0 0.0108563)
(0 0 0.0109314)
(0 0 0.0110042)
(0 0 0.0110748)
(0 0 0.0111431)
(0 0 0.0112089)
(0 0 0.0112724)
(0 0 0.0113334)
(0 0 0.0113919)
(0 0 0.011448)
(0 0 0.0115014)
(0 0 0.0115523)
(0 0 0.0116005)
(0 0 0.0116462)
(0 0 0.0116891)
(0 0 0.0117294)
(0 0 0.0117669)
(0 0 0.0118017)
(0 0 0.0118338)
(0 0 0.0118631)
(0 0 0.0118897)
(0 0 0.0119135)
(0 0 0.0119344)
(0 0 0.0119526)
(0 0 0.011968)
(0 0 0.0119806)
(0 0 0.0119904)
(0 0 0.0119973)
(0 0 0.0120015)
(0 0 0.012003)
(0 0 0.0120016)
(0 0 0.0119975)
(0 0 0.0119907)
(0 0 0.0119811)
(0 0 0.0119688)
(0 0 0.0119539)
(0 0 0.0119362)
(0 0 0.011916)
(0 0 0.0118931)
(0 0 0.0118676)
(0 0 0.0118396)
(0 0 0.011809)
(0 0 0.011776)
(0 0 0.0117405)
(0 0 0.0117026)
(0 0 0.0116623)
(0 0 0.0116196)
(0 0 0.0115746)
(0 0 0.0115274)
(0 0 0.0114779)
(0 0 0.0114263)
(0 0 0.0113725)
(0 0 0.0113166)
(0 0 0.0112586)
(0 0 0.0111987)
(0 0 0.0111367)
(0 0 0.0110729)
(0 0 0.0110071)
(0 0 0.0109396)
(0 0 0.0108702)
(0 0 0.0107991)
(0 0 0.0107263)
(0 0 0.0106519)
(0 0 0.0105759)
(0 0 0.0104983)
(0 0 0.0104192)
(0 0 0.0103387)
(0 0 0.0102567)
(0 0 0.0101733)
(0 0 0.0100887)
(0 0 0.0100027)
(0 0 0.00991553)
(0 0 0.00982715)
(0 0 0.0097376)
(0 0 0.00964695)
(0 0 0.00955522)
(0 0 0.00946247)
(0 0 0.00936872)
(0 0 0.00927403)
(0 0 0.00917842)
(0 0 0.00908194)
(0 0 0.00898462)
(0 0 0.0088865)
(0 0 0.00878762)
(0 0 0.008688)
(0 0 0.00858769)
(0 0 0.00848671)
(0 0 0.00838511)
(0 0 0.0082829)
(0 0 0.00818013)
(0 0 0.00807681)
(0 0 0.00797298)
(0 0 0.00786868)
(0 0 0.00776391)
(0 0 0.00765872)
(0 0 0.00755312)
(0 0 0.00744715)
(0 0 0.00734081)
(0 0 0.00723415)
(0 0 0.00712718)
(0 0 0.00701992)
(0 0 0.00691239)
(0 0 0.00680461)
(0 0 0.00669661)
(0 0 0.00658839)
(0 0 0.00647998)
(0 0 0.0063714)
(0 0 0.00626265)
(0 0 0.00615376)
(0 0 0.00604475)
(0 0 0.00593561)
(0 0 0.00582637)
(0 0 0.00571705)
(0 0 0.00560765)
(0 0 0.00549818)
(0 0 0.00538865)
(0 0 0.00527908)
(0 0 0.00516948)
(0 0 0.00505985)
(0 0 0.0049502)
(0 0 0.00484054)
(0 0 0.00473088)
(0 0 0.00462122)
(0 0 0.00451158)
(0 0 0.00440195)
(0 0 0.00429235)
(0 0 0.00418277)
(0 0 0.00407323)
(0 0 0.00396372)
(0 0 0.00385425)
(0 0 0.00374483)
(0 0 0.00363545)
(0 0 0.00352612)
(0 0 0.00341684)
(0 0 0.00330762)
(0 0 0.00319845)
(0 0 0.00308934)
(0 0 0.00298028)
(0 0 0.00287128)
(0 0 0.00276234)
(0 0 0.00265346)
(0 0 0.00254463)
(0 0 0.00243586)
(0 0 0.00232715)
(0 0 0.00221849)
(0 0 0.00210989)
(0 0 0.00200134)
(0 0 0.00189285)
(0 0 0.0017844)
(0 0 0.001676)
(0 0 0.00156764)
(0 0 0.00145933)
(0 0 0.00135106)
(0 0 0.00124283)
(0 0 0.00113463)
(0 0 0.00102647)
(0 0 0.000918338)
(0 0 0.000810233)
(0 0 0.000702152)
(0 0 0.000594092)
(0 0 0.000486051)
(0 0 0.000378024)
(0 0 0.000270009)
(0 0 0.000162002)
(0 0 5.40002e-05)
(0 0 8.184e-05)
(0 0 0.000245523)
(0 0 0.000409214)
(0 0 0.000572919)
(0 0 0.000736643)
(0 0 0.000900391)
(0 0 0.00106417)
(0 0 0.00122798)
(0 0 0.00139183)
(0 0 0.00155573)
(0 0 0.00171967)
(0 0 0.00188367)
(0 0 0.00204772)
(0 0 0.00221183)
(0 0 0.002376)
(0 0 0.00254023)
(0 0 0.00270453)
(0 0 0.00286889)
(0 0 0.00303332)
(0 0 0.00319782)
(0 0 0.00336239)
(0 0 0.00352702)
(0 0 0.00369172)
(0 0 0.00385647)
(0 0 0.00402129)
(0 0 0.00418615)
(0 0 0.00435107)
(0 0 0.00451603)
(0 0 0.00468103)
(0 0 0.00484605)
(0 0 0.00501109)
(0 0 0.00517614)
(0 0 0.00534119)
(0 0 0.00550623)
(0 0 0.00567124)
(0 0 0.00583621)
(0 0 0.00600113)
(0 0 0.00616598)
(0 0 0.00633073)
(0 0 0.00649538)
(0 0 0.00665989)
(0 0 0.00682426)
(0 0 0.00698845)
(0 0 0.00715244)
(0 0 0.00731621)
(0 0 0.00747973)
(0 0 0.00764297)
(0 0 0.0078059)
(0 0 0.00796849)
(0 0 0.0081307)
(0 0 0.0082925)
(0 0 0.00845386)
(0 0 0.00861473)
(0 0 0.00877508)
(0 0 0.00893487)
(0 0 0.00909406)
(0 0 0.00925259)
(0 0 0.00941043)
(0 0 0.00956753)
(0 0 0.00972385)
(0 0 0.00987932)
(0 0 0.0100339)
(0 0 0.0101875)
(0 0 0.0103402)
(0 0 0.0104918)
(0 0 0.0106423)
(0 0 0.0107916)
(0 0 0.0109397)
(0 0 0.0110865)
(0 0 0.011232)
(0 0 0.0113761)
(0 0 0.0115187)
(0 0 0.0116598)
(0 0 0.0117993)
(0 0 0.0119371)
(0 0 0.0120732)
(0 0 0.0122075)
(0 0 0.01234)
(0 0 0.0124705)
(0 0 0.012599)
(0 0 0.0127255)
(0 0 0.0128498)
(0 0 0.012972)
(0 0 0.0130919)
(0 0 0.0132094)
(0 0 0.0133246)
(0 0 0.0134373)
(0 0 0.0135475)
(0 0 0.0136551)
(0 0 0.0137601)
(0 0 0.0138623)
(0 0 0.0139618)
(0 0 0.0140585)
(0 0 0.0141522)
(0 0 0.014243)
(0 0 0.0143309)
(0 0 0.0144156)
(0 0 0.0144973)
(0 0 0.0145758)
(0 0 0.0146511)
(0 0 0.0147232)
(0 0 0.014792)
(0 0 0.0148574)
(0 0 0.0149195)
(0 0 0.0149782)
(0 0 0.0150335)
(0 0 0.0150853)
(0 0 0.0151336)
(0 0 0.0151784)
(0 0 0.0152197)
(0 0 0.0152574)
(0 0 0.0152915)
(0 0 0.0153221)
(0 0 0.0153491)
(0 0 0.0153724)
(0 0 0.0153922)
(0 0 0.0154084)
(0 0 0.015421)
(0 0 0.0154299)
(0 0 0.0154353)
(0 0 0.0154371)
(0 0 0.0154354)
(0 0 0.0154301)
(0 0 0.0154212)
(0 0 0.0154089)
(0 0 0.0153931)
(0 0 0.0153738)
(0 0 0.0153511)
(0 0 0.015325)
(0 0 0.0152955)
(0 0 0.0152627)
(0 0 0.0152266)
(0 0 0.0151873)
(0 0 0.0151448)
(0 0 0.0150991)
(0 0 0.0150502)
(0 0 0.0149984)
(0 0 0.0149434)
(0 0 0.0148856)
(0 0 0.0148248)
(0 0 0.0147611)
(0 0 0.0146946)
(0 0 0.0146254)
(0 0 0.0145534)
(0 0 0.0144788)
(0 0 0.0144016)
(0 0 0.0143219)
(0 0 0.0142398)
(0 0 0.0141552)
(0 0 0.0140682)
(0 0 0.013979)
(0 0 0.0138875)
(0 0 0.0137938)
(0 0 0.0136981)
(0 0 0.0136002)
(0 0 0.0135004)
(0 0 0.0133986)
(0 0 0.013295)
(0 0 0.0131895)
(0 0 0.0130823)
(0 0 0.0129734)
(0 0 0.0128628)
(0 0 0.0127506)
(0 0 0.0126369)
(0 0 0.0125217)
(0 0 0.0124051)
(0 0 0.0122871)
(0 0 0.0121677)
(0 0 0.0120471)
(0 0 0.0119253)
(0 0 0.0118023)
(0 0 0.0116782)
(0 0 0.011553)
(0 0 0.0114268)
(0 0 0.0112996)
(0 0 0.0111715)
(0 0 0.0110425)
(0 0 0.0109126)
(0 0 0.0107819)
(0 0 0.0106504)
(0 0 0.0105182)
(0 0 0.0103853)
(0 0 0.0102518)
(0 0 0.0101177)
(0 0 0.00998291)
(0 0 0.00984762)
(0 0 0.00971181)
(0 0 0.00957551)
(0 0 0.00943876)
(0 0 0.00930159)
(0 0 0.00916401)
(0 0 0.00902607)
(0 0 0.00888778)
(0 0 0.00874918)
(0 0 0.00861029)
(0 0 0.00847112)
(0 0 0.00833171)
(0 0 0.00819207)
(0 0 0.00805223)
(0 0 0.00791221)
(0 0 0.00777202)
(0 0 0.00763168)
(0 0 0.00749121)
(0 0 0.00735063)
(0 0 0.00720994)
(0 0 0.00706918)
(0 0 0.00692834)
(0 0 0.00678745)
(0 0 0.00664652)
(0 0 0.00650555)
(0 0 0.00636456)
(0 0 0.00622356)
(0 0 0.00608255)
(0 0 0.00594156)
(0 0 0.00580057)
(0 0 0.00565962)
(0 0 0.00551869)
(0 0 0.00537779)
(0 0 0.00523694)
(0 0 0.00509614)
(0 0 0.00495539)
(0 0 0.0048147)
(0 0 0.00467407)
(0 0 0.0045335)
(0 0 0.00439299)
(0 0 0.00425256)
(0 0 0.0041122)
(0 0 0.00397191)
(0 0 0.00383169)
(0 0 0.00369155)
(0 0 0.00355148)
(0 0 0.00341149)
(0 0 0.00327157)
(0 0 0.00313173)
(0 0 0.00299196)
(0 0 0.00285226)
(0 0 0.00271263)
(0 0 0.00257307)
(0 0 0.00243357)
(0 0 0.00229414)
(0 0 0.00215478)
(0 0 0.00201547)
(0 0 0.00187621)
(0 0 0.00173701)
(0 0 0.00159786)
(0 0 0.00145876)
(0 0 0.0013197)
(0 0 0.00118067)
(0 0 0.00104169)
(0 0 0.000902731)
(0 0 0.000763802)
(0 0 0.000624897)
(0 0 0.000486011)
(0 0 0.00034714)
(0 0 0.00020828)
(0 0 6.9426e-05)
(0 0 0.000100021)
(0 0 0.000300067)
(0 0 0.000500122)
(0 0 0.000700195)
(0 0 0.000900292)
(0 0 0.00110042)
(0 0 0.00130058)
(0 0 0.00150079)
(0 0 0.00170104)
(0 0 0.00190135)
(0 0 0.00210172)
(0 0 0.00230215)
(0 0 0.00250265)
(0 0 0.00270322)
(0 0 0.00290387)
(0 0 0.00310459)
(0 0 0.0033054)
(0 0 0.00350629)
(0 0 0.00370726)
(0 0 0.00390832)
(0 0 0.00410945)
(0 0 0.00431067)
(0 0 0.00451197)
(0 0 0.00471335)
(0 0 0.0049148)
(0 0 0.00511631)
(0 0 0.00531789)
(0 0 0.00551952)
(0 0 0.0057212)
(0 0 0.00592291)
(0 0 0.00612465)
(0 0 0.0063264)
(0 0 0.00652815)
(0 0 0.00672989)
(0 0 0.0069316)
(0 0 0.00713327)
(0 0 0.00733486)
(0 0 0.00753638)
(0 0 0.00773778)
(0 0 0.00793906)
(0 0 0.00814018)
(0 0 0.00834112)
(0 0 0.00854185)
(0 0 0.00874233)
(0 0 0.00894255)
(0 0 0.00914247)
(0 0 0.00934204)
(0 0 0.00954124)
(0 0 0.00974003)
(0 0 0.00993836)
(0 0 0.0101362)
(0 0 0.0103335)
(0 0 0.0105302)
(0 0 0.0107263)
(0 0 0.0109216)
(0 0 0.0111163)
(0 0 0.0113101)
(0 0 0.0115032)
(0 0 0.0116953)
(0 0 0.0118864)
(0 0 0.0120765)
(0 0 0.0122656)
(0 0 0.0124535)
(0 0 0.0126402)
(0 0 0.0128256)
(0 0 0.0130096)
(0 0 0.0131922)
(0 0 0.0133734)
(0 0 0.013553)
(0 0 0.0137309)
(0 0 0.0139071)
(0 0 0.0140816)
(0 0 0.0142541)
(0 0 0.0144247)
(0 0 0.0145933)
(0 0 0.0147598)
(0 0 0.0149241)
(0 0 0.0150861)
(0 0 0.0152458)
(0 0 0.015403)
(0 0 0.0155577)
(0 0 0.0157098)
(0 0 0.0158592)
(0 0 0.0160059)
(0 0 0.0161497)
(0 0 0.0162906)
(0 0 0.0164285)
(0 0 0.0165634)
(0 0 0.016695)
(0 0 0.0168234)
(0 0 0.0169485)
(0 0 0.0170702)
(0 0 0.0171885)
(0 0 0.0173032)
(0 0 0.0174143)
(0 0 0.0175217)
(0 0 0.0176254)
(0 0 0.0177253)
(0 0 0.0178214)
(0 0 0.0179135)
(0 0 0.0180017)
(0 0 0.0180858)
(0 0 0.0181659)
(0 0 0.0182419)
(0 0 0.0183137)
(0 0 0.0183813)
(0 0 0.0184447)
(0 0 0.0185038)
(0 0 0.0185586)
(0 0 0.018609)
(0 0 0.0186552)
(0 0 0.0186969)
(0 0 0.0187343)
(0 0 0.0187673)
(0 0 0.0187959)
(0 0 0.01882)
(0 0 0.0188398)
(0 0 0.0188552)
(0 0 0.0188661)
(0 0 0.0188727)
(0 0 0.0188749)
(0 0 0.0188727)
(0 0 0.0188662)
(0 0 0.0188553)
(0 0 0.0188402)
(0 0 0.0188208)
(0 0 0.0187972)
(0 0 0.0187694)
(0 0 0.0187374)
(0 0 0.0187013)
(0 0 0.0186611)
(0 0 0.018617)
(0 0 0.0185688)
(0 0 0.0185167)
(0 0 0.0184608)
(0 0 0.018401)
(0 0 0.0183375)
(0 0 0.0182703)
(0 0 0.0181994)
(0 0 0.018125)
(0 0 0.0180471)
(0 0 0.0179657)
(0 0 0.0178809)
(0 0 0.0177929)
(0 0 0.0177016)
(0 0 0.0176072)
(0 0 0.0175096)
(0 0 0.0174091)
(0 0 0.0173056)
(0 0 0.0171992)
(0 0 0.01709)
(0 0 0.016978)
(0 0 0.0168634)
(0 0 0.0167463)
(0 0 0.0166266)
(0 0 0.0165044)
(0 0 0.0163799)
(0 0 0.0162531)
(0 0 0.0161241)
(0 0 0.015993)
(0 0 0.0158597)
(0 0 0.0157244)
(0 0 0.0155872)
(0 0 0.0154481)
(0 0 0.0153072)
(0 0 0.0151645)
(0 0 0.0150202)
(0 0 0.0148743)
(0 0 0.0147268)
(0 0 0.0145778)
(0 0 0.0144274)
(0 0 0.0142756)
(0 0 0.0141225)
(0 0 0.0139681)
(0 0 0.0138126)
(0 0 0.0136559)
(0 0 0.0134981)
(0 0 0.0133392)
(0 0 0.0131794)
(0 0 0.0130187)
(0 0 0.012857)
(0 0 0.0126945)
(0 0 0.0125313)
(0 0 0.0123672)
(0 0 0.0122025)
(0 0 0.012037)
(0 0 0.011871)
(0 0 0.0117043)
(0 0 0.0115371)
(0 0 0.0113694)
(0 0 0.0112012)
(0 0 0.0110326)
(0 0 0.0108635)
(0 0 0.010694)
(0 0 0.0105242)
(0 0 0.0103541)
(0 0 0.0101837)
(0 0 0.010013)
(0 0 0.009842)
(0 0 0.00967082)
(0 0 0.00949943)
(0 0 0.00932787)
(0 0 0.00915616)
(0 0 0.0089843)
(0 0 0.00881233)
(0 0 0.00864025)
(0 0 0.0084681)
(0 0 0.00829587)
(0 0 0.00812359)
(0 0 0.00795127)
(0 0 0.00777893)
(0 0 0.00760658)
(0 0 0.00743422)
(0 0 0.00726187)
(0 0 0.00708955)
(0 0 0.00691725)
(0 0 0.00674499)
(0 0 0.00657278)
(0 0 0.00640061)
(0 0 0.00622851)
(0 0 0.00605648)
(0 0 0.00588451)
(0 0 0.00571262)
(0 0 0.00554081)
(0 0 0.00536908)
(0 0 0.00519743)
(0 0 0.00502587)
(0 0 0.00485441)
(0 0 0.00468303)
(0 0 0.00451174)
(0 0 0.00434055)
(0 0 0.00416945)
(0 0 0.00399844)
(0 0 0.00382752)
(0 0 0.00365669)
(0 0 0.00348595)
(0 0 0.0033153)
(0 0 0.00314473)
(0 0 0.00297424)
(0 0 0.00280383)
(0 0 0.0026335)
(0 0 0.00246323)
(0 0 0.00229304)
(0 0 0.00212292)
(0 0 0.00195285)
(0 0 0.00178284)
(0 0 0.00161288)
(0 0 0.00144297)
(0 0 0.00127311)
(0 0 0.00110328)
(0 0 0.000933489)
(0 0 0.000763725)
(0 0 0.000593984)
(0 0 0.000424261)
(0 0 0.000254551)
(0 0 8.48496e-05)
(0 0 0.000118199)
(0 0 0.0003546)
(0 0 0.000591014)
(0 0 0.000827448)
(0 0 0.00106391)
(0 0 0.00130041)
(0 0 0.00153695)
(0 0 0.00177354)
(0 0 0.00201019)
(0 0 0.00224691)
(0 0 0.0024837)
(0 0 0.00272056)
(0 0 0.0029575)
(0 0 0.00319454)
(0 0 0.00343166)
(0 0 0.00366887)
(0 0 0.00390619)
(0 0 0.0041436)
(0 0 0.00438111)
(0 0 0.00461872)
(0 0 0.00485644)
(0 0 0.00509425)
(0 0 0.00533216)
(0 0 0.00557016)
(0 0 0.00580824)
(0 0 0.00604641)
(0 0 0.00628466)
(0 0 0.00652297)
(0 0 0.00676133)
(0 0 0.00699975)
(0 0 0.00723819)
(0 0 0.00747666)
(0 0 0.00771513)
(0 0 0.00795358)
(0 0 0.00819201)
(0 0 0.00843038)
(0 0 0.00866868)
(0 0 0.00890689)
(0 0 0.00914497)
(0 0 0.0093829)
(0 0 0.00962065)
(0 0 0.00985818)
(0 0 0.0100955)
(0 0 0.0103325)
(0 0 0.0105692)
(0 0 0.0108055)
(0 0 0.0110415)
(0 0 0.011277)
(0 0 0.011512)
(0 0 0.0117465)
(0 0 0.0119804)
(0 0 0.0122137)
(0 0 0.0124463)
(0 0 0.0126781)
(0 0 0.0129091)
(0 0 0.0131393)
(0 0 0.0133685)
(0 0 0.0135968)
(0 0 0.013824)
(0 0 0.01405)
(0 0 0.0142748)
(0 0 0.0144984)
(0 0 0.0147206)
(0 0 0.0149414)
(0 0 0.0151607)
(0 0 0.0153784)
(0 0 0.0155944)
(0 0 0.0158086)
(0 0 0.016021)
(0 0 0.0162315)
(0 0 0.0164399)
(0 0 0.0166463)
(0 0 0.0168504)
(0 0 0.0170522)
(0 0 0.0172516)
(0 0 0.0174486)
(0 0 0.0176429)
(0 0 0.0178346)
(0 0 0.0180235)
(0 0 0.0182095)
(0 0 0.0183925)
(0 0 0.0185725)
(0 0 0.0187493)
(0 0 0.0189228)
(0 0 0.019093)
(0 0 0.0192597)
(0 0 0.0194228)
(0 0 0.0195823)
(0 0 0.0197381)
(0 0 0.01989)
(0 0 0.0200381)
(0 0 0.0201821)
(0 0 0.020322)
(0 0 0.0204577)
(0 0 0.0205892)
(0 0 0.0207163)
(0 0 0.020839)
(0 0 0.0209572)
(0 0 0.0210709)
(0 0 0.0211799)
(0 0 0.0212842)
(0 0 0.0213838)
(0 0 0.0214785)
(0 0 0.0215684)
(0 0 0.0216534)
(0 0 0.0217333)
(0 0 0.0218083)
(0 0 0.0218782)
(0 0 0.021943)
(0 0 0.0220028)
(0 0 0.0220573)
(0 0 0.0221067)
(0 0 0.0221509)
(0 0 0.0221899)
(0 0 0.0222237)
(0 0 0.0222523)
(0 0 0.0222756)
(0 0 0.0222938)
(0 0 0.0223067)
(0 0 0.0223144)
(0 0 0.022317)
(0 0 0.0223143)
(0 0 0.0223066)
(0 0 0.0222937)
(0 0 0.0222758)
(0 0 0.0222528)
(0 0 0.0222248)
(0 0 0.0221918)
(0 0 0.0221539)
(0 0 0.0221112)
(0 0 0.0220636)
(0 0 0.0220113)
(0 0 0.0219542)
(0 0 0.0218925)
(0 0 0.0218263)
(0 0 0.0217555)
(0 0 0.0216803)
(0 0 0.0216007)
(0 0 0.0215168)
(0 0 0.0214287)
(0 0 0.0213365)
(0 0 0.0212402)
(0 0 0.0211398)
(0 0 0.0210356)
(0 0 0.0209276)
(0 0 0.0208158)
(0 0 0.0207003)
(0 0 0.0205813)
(0 0 0.0204588)
(0 0 0.0203329)
(0 0 0.0202037)
(0 0 0.0200712)
(0 0 0.0199356)
(0 0 0.019797)
(0 0 0.0196554)
(0 0 0.0195109)
(0 0 0.0193636)
(0 0 0.0192135)
(0 0 0.0190609)
(0 0 0.0189057)
(0 0 0.018748)
(0 0 0.018588)
(0 0 0.0184257)
(0 0 0.0182611)
(0 0 0.0180945)
(0 0 0.0179257)
(0 0 0.017755)
(0 0 0.0175824)
(0 0 0.0174079)
(0 0 0.0172317)
(0 0 0.0170538)
(0 0 0.0168742)
(0 0 0.0166932)
(0 0 0.0165106)
(0 0 0.0163266)
(0 0 0.0161413)
(0 0 0.0159547)
(0 0 0.0157669)
(0 0 0.0155779)
(0 0 0.0153878)
(0 0 0.0151967)
(0 0 0.0150045)
(0 0 0.0148115)
(0 0 0.0146175)
(0 0 0.0144227)
(0 0 0.0142271)
(0 0 0.0140307)
(0 0 0.0138337)
(0 0 0.013636)
(0 0 0.0134377)
(0 0 0.0132389)
(0 0 0.0130395)
(0 0 0.0128396)
(0 0 0.0126393)
(0 0 0.0124385)
(0 0 0.0122374)
(0 0 0.0120359)
(0 0 0.0118341)
(0 0 0.011632)
(0 0 0.0114296)
(0 0 0.011227)
(0 0 0.0110242)
(0 0 0.0108212)
(0 0 0.0106181)
(0 0 0.0104148)
(0 0 0.0102114)