/*--------------------------------*- C++ -*----------------------------------*\
| =========                 |                                                 |
| \\      /  F ield         | OpenFOAM: The Open Source CFD Toolbox           |
|  \\    /   O peration     | Version:  v2012                                 |
|   \\  /    A nd           | Website:  www.openfoam.com                      |
|    \\/     M anipulation  |                                                 |
\*---------------------------------------------------------------------------*/
FoamFile
{
    version     2.0;
    format      ascii;
    class       surfaceScalarField;
    location    "13.5";
    object      phi;
}
// * * * * * * * * * * * * * * * * * * * * * * * * * * * * * * * * * * * * * //

dimensions      [0 3 -1 0 0 0 0];
oriented        oriented;


internalField   nonuniform List<scalar> 
130560
(
3.50268e-06
-3.50268e-06
7.00555e-06
-3.50287e-06
1.05088e-05
-3.50325e-06
1.40126e-05
-3.50381e-06
1.75172e-05
-3.50455e-06
2.10226e-05
-3.50547e-06
2.45292e-05
-3.50657e-06
2.8037e-05
-3.50785e-06
3.15463e-05
-3.50929e-06
3.50572e-05
-3.5109e-06
3.85699e-05
-3.51267e-06
4.20845e-05
-3.5146e-06
4.56012e-05
-3.51667e-06
4.91201e-05
-3.51889e-06
5.26413e-05
-3.52123e-06
5.6165e-05
-3.5237e-06
5.96913e-05
-3.52628e-06
6.32202e-05
-3.52897e-06
6.6752e-05
-3.53175e-06
7.02866e-05
-3.53461e-06
7.38241e-05
-3.53755e-06
7.73647e-05
-3.54054e-06
8.09083e-05
-3.54357e-06
8.44549e-05
-3.54664e-06
8.80046e-05
-3.54972e-06
9.15574e-05
-3.5528e-06
9.51133e-05
-3.55586e-06
9.86722e-05
-3.5589e-06
0.000102234
-3.56187e-06
0.000105799
-3.56478e-06
0.000109366
-3.5676e-06
0.000112937
-3.57031e-06
0.00011651
-3.57289e-06
0.000120085
-3.57532e-06
0.000123663
-3.57757e-06
0.000127242
-3.57963e-06
0.000130824
-3.58146e-06
0.000134407
-3.58305e-06
0.000137991
-3.58436e-06
0.000141576
-3.58537e-06
0.000145162
-3.58606e-06
0.000148749
-3.58639e-06
0.000152335
-3.58634e-06
0.000155921
-3.58588e-06
0.000159506
-3.58497e-06
0.00016309
-3.5836e-06
0.000166671
-3.58171e-06
0.000170251
-3.57929e-06
0.000173827
-3.5763e-06
0.0001774
-3.57271e-06
0.000180968
-3.56848e-06
0.000184532
-3.56358e-06
0.00018809
-3.55797e-06
0.000191641
-3.55162e-06
0.000195186
-3.54449e-06
0.000198722
-3.53655e-06
0.00020225
-3.52776e-06
0.000205768
-3.51809e-06
0.000209276
-3.50749e-06
0.000212772
-3.49593e-06
0.000216255
-3.48338e-06
0.000219725
-3.46979e-06
0.00022318
-3.45514e-06
0.000226619
-3.43938e-06
0.000230042
-3.42249e-06
0.000233446
-3.40441e-06
0.000236831
-3.38513e-06
0.000240196
-3.3646e-06
0.000243539
-3.3428e-06
0.000246858
-3.31969e-06
0.000250154
-3.29523e-06
0.000253423
-3.26941e-06
0.000256665
-3.24218e-06
0.000259879
-3.21353e-06
0.000263062
-3.18342e-06
0.000266214
-3.15183e-06
0.000269333
-3.11873e-06
0.000272417
-3.08412e-06
0.000275465
-3.04796e-06
0.000278475
-3.01023e-06
0.000281446
-2.97093e-06
0.000284376
-2.93004e-06
0.000287264
-2.88755e-06
0.000290107
-2.84344e-06
0.000292905
-2.79772e-06
0.000295655
-2.75038e-06
0.000298357
-2.70142e-06
0.000301007
-2.65083e-06
0.000303606
-2.59864e-06
0.000306151
-2.54483e-06
0.00030864
-2.48943e-06
0.000311073
-2.43244e-06
0.000313447
-2.37389e-06
0.00031576
-2.31378e-06
0.000318013
-2.25215e-06
0.000320202
-2.18903e-06
0.000322326
-2.12443e-06
0.000324384
-2.05839e-06
0.000326375
-1.99094e-06
0.000328297
-1.92213e-06
0.000330149
-1.85199e-06
0.00033193
-1.78056e-06
0.000333638
-1.7079e-06
0.000335272
-1.63405e-06
0.000336831
-1.55906e-06
0.000338314
-1.48299e-06
0.00033972
-1.4059e-06
0.000341048
-1.32783e-06
0.000342297
-1.24886e-06
0.000343466
-1.16905e-06
0.000344554
-1.08846e-06
0.000345561
-1.00715e-06
0.000346486
-9.25203e-07
0.000347329
-8.42681e-07
0.000348089
-7.59655e-07
0.000348765
-6.76197e-07
0.000349357
-5.9238e-07
0.000349866
-5.08276e-07
0.00035029
-4.2396e-07
0.000350629
-3.39506e-07
0.000350884
-2.54987e-07
0.000351055
-1.70478e-07
0.000351141
-8.6051e-08
0.000351142
-1.78036e-09
0.00035106
8.22618e-08
0.000350894
1.66004e-07
0.000350645
2.49376e-07
0.000350312
3.32308e-07
0.000349898
4.14732e-07
0.000349401
4.96582e-07
0.000348823
5.77793e-07
0.000348165
6.58302e-07
0.000347427
7.38047e-07
0.00034661
8.16971e-07
0.000345715
8.95016e-07
0.000344743
9.72127e-07
0.000343695
1.04825e-06
0.000342571
1.12334e-06
0.000341374
1.19735e-06
0.000340104
1.27023e-06
0.000338762
1.34194e-06
0.000337349
1.41244e-06
0.000335868
1.4817e-06
0.000334318
1.54967e-06
0.000332702
1.61634e-06
0.00033102
1.68166e-06
0.000329274
1.74562e-06
0.000327466
1.80819e-06
0.000325597
1.86936e-06
0.000323668
1.92909e-06
0.00032168
1.98739e-06
0.000319636
2.04422e-06
0.000317536
2.0996e-06
0.000315383
2.1535e-06
0.000313177
2.20592e-06
0.00031092
2.25687e-06
0.000308614
2.30633e-06
0.00030626
2.35431e-06
0.000303859
2.40082e-06
0.000301413
2.44585e-06
0.000298923
2.48943e-06
0.000296392
2.53155e-06
0.00029382
2.57222e-06
0.000291208
2.61147e-06
0.000288559
2.6493e-06
0.000285873
2.68573e-06
0.000283152
2.72079e-06
0.000280398
2.75447e-06
0.000277611
2.78682e-06
0.000274793
2.81784e-06
0.000271946
2.84756e-06
0.00026907
2.876e-06
0.000266166
2.90319e-06
0.000263237
2.92915e-06
0.000260283
2.95391e-06
0.000257306
2.97749e-06
0.000254306
2.99992e-06
0.000251285
3.02122e-06
0.000248243
3.04143e-06
0.000245183
3.06056e-06
0.000242104
3.07866e-06
0.000239008
3.09575e-06
0.000235897
3.11185e-06
0.00023277
3.12699e-06
0.000229628
3.14121e-06
0.000226474
3.15453e-06
0.000223307
3.16699e-06
0.000220128
3.1786e-06
0.000216939
3.1894e-06
0.000213739
3.19941e-06
0.000210531
3.20867e-06
0.000207314
3.2172e-06
0.000204089
3.22503e-06
0.000200856
3.23219e-06
0.000197618
3.2387e-06
0.000194373
3.2446e-06
0.000191123
3.2499e-06
0.000187869
3.25463e-06
0.00018461
3.25882e-06
0.000181347
3.26249e-06
0.000178082
3.26567e-06
0.000174813
3.26839e-06
0.000171542
3.27066e-06
0.00016827
3.2725e-06
0.000164996
3.27395e-06
0.000161721
3.27502e-06
0.000158445
3.27574e-06
0.000155169
3.27612e-06
0.000151893
3.27619e-06
0.000148617
3.27597e-06
0.000145341
3.27548e-06
0.000142067
3.27473e-06
0.000138793
3.27374e-06
0.00013552
3.27254e-06
0.000132249
3.27114e-06
0.00012898
3.26956e-06
0.000125712
3.26781e-06
0.000122446
3.26591e-06
0.000119182
3.26387e-06
0.00011592
3.26172e-06
0.000112661
3.25946e-06
0.000109404
3.25711e-06
0.000106149
3.25469e-06
0.000102897
3.2522e-06
9.96474e-05
3.24966e-06
9.64003e-05
3.24708e-06
9.31558e-05
3.24447e-06
8.99139e-05
3.24185e-06
8.66747e-05
3.23922e-06
8.34381e-05
3.2366e-06
8.02041e-05
3.234e-06
7.69727e-05
3.23142e-06
7.37438e-05
3.22887e-06
7.05175e-05
3.22636e-06
6.72936e-05
3.22391e-06
6.4072e-05
3.22152e-06
6.08529e-05
3.21919e-06
5.76359e-05
3.21694e-06
5.44212e-05
3.21476e-06
5.12085e-05
3.21268e-06
4.79978e-05
3.21068e-06
4.4789e-05
3.20879e-06
4.1582e-05
3.20699e-06
3.83767e-05
3.20531e-06
3.5173e-05
3.20374e-06
3.19707e-05
3.20228e-06
2.87698e-05
3.20095e-06
2.557e-05
3.19973e-06
2.23714e-05
3.19865e-06
1.91737e-05
3.1977e-06
1.59768e-05
3.19688e-06
1.27806e-05
3.19619e-06
9.58498e-06
3.19563e-06
6.38976e-06
3.19522e-06
3.19481e-06
3.19495e-06
3.19481e-06
3.50251e-06
-7.00519e-06
7.0052e-06
-7.00556e-06
1.05083e-05
-7.00631e-06
1.40119e-05
-7.00743e-06
1.75163e-05
-7.00892e-06
2.10216e-05
-7.01077e-06
2.4528e-05
-7.01297e-06
2.80356e-05
-7.01553e-06
3.15448e-05
-7.01842e-06
3.50555e-05
-7.02165e-06
3.85681e-05
-7.0252e-06
4.20825e-05
-7.02906e-06
4.5599e-05
-7.03321e-06
4.91178e-05
-7.03764e-06
5.26389e-05
-7.04234e-06
5.61625e-05
-7.04729e-06
5.96887e-05
-7.05246e-06
6.32176e-05
-7.05785e-06
6.67492e-05
-7.06342e-06
7.02838e-05
-7.06916e-06
7.38213e-05
-7.07504e-06
7.73618e-05
-7.08104e-06
8.09053e-05
-7.08712e-06
8.4452e-05
-7.09327e-06
8.80017e-05
-7.09944e-06
9.15545e-05
-7.10562e-06
9.51104e-05
-7.11177e-06
9.86694e-05
-7.11785e-06
0.000102231
-7.12382e-06
0.000105796
-7.12966e-06
0.000109364
-7.13532e-06
0.000112934
-7.14076e-06
0.000116507
-7.14594e-06
0.000120083
-7.15082e-06
0.000123661
-7.15535e-06
0.000127241
-7.15948e-06
0.000130822
-7.16317e-06
0.000134406
-7.16637e-06
0.00013799
-7.16902e-06
0.000141576
-7.17107e-06
0.000145162
-7.17247e-06
0.000148749
-7.17317e-06
0.000152336
-7.1731e-06
0.000155922
-7.1722e-06
0.000159508
-7.17042e-06
0.000163092
-7.1677e-06
0.000166674
-7.16396e-06
0.000170254
-7.15916e-06
0.000173831
-7.15321e-06
0.000177404
-7.14606e-06
0.000180973
-7.13763e-06
0.000184538
-7.12786e-06
0.000188096
-7.11668e-06
0.000191649
-7.10402e-06
0.000195194
-7.0898e-06
0.000198731
-7.07395e-06
0.00020226
-7.05641e-06
0.000205779
-7.0371e-06
0.000209287
-7.01594e-06
0.000212784
-6.99286e-06
0.000216269
-6.96779e-06
0.00021974
-6.94066e-06
0.000223196
-6.91139e-06
0.000226636
-6.87991e-06
0.00023006
-6.84615e-06
0.000233466
-6.81003e-06
0.000236852
-6.7715e-06
0.000240218
-6.73048e-06
0.000243562
-6.68691e-06
0.000246883
-6.64071e-06
0.00025018
-6.59183e-06
0.00025345
-6.54021e-06
0.000256694
-6.48579e-06
0.000259909
-6.4285e-06
0.000263094
-6.36831e-06
0.000266247
-6.30515e-06
0.000269368
-6.23899e-06
0.000272453
-6.16977e-06
0.000275503
-6.09747e-06
0.000278515
-6.02204e-06
0.000281487
-5.94345e-06
0.000284419
-5.86168e-06
0.000287308
-5.7767e-06
0.000290153
-5.6885e-06
0.000292952
-5.59706e-06
0.000295704
-5.50238e-06
0.000298407
-5.40445e-06
0.00030106
-5.30328e-06
0.00030366
-5.19887e-06
0.000306206
-5.09125e-06
0.000308697
-4.98043e-06
0.000311131
-4.86644e-06
0.000313507
-4.74931e-06
0.000315822
-4.62909e-06
0.000318076
-4.5058e-06
0.000320266
-4.37952e-06
0.000322392
-4.25028e-06
0.000324452
-4.11817e-06
0.000326444
-3.98324e-06
0.000328368
-3.84557e-06
0.000330221
-3.70525e-06
0.000332003
-3.56235e-06
0.000333712
-3.41698e-06
0.000335347
-3.26923e-06
0.000336907
-3.1192e-06
0.000338391
-2.967e-06
0.000339798
-2.81275e-06
0.000341127
-2.65656e-06
0.000342376
-2.49856e-06
0.000343546
-2.33887e-06
0.000344635
-2.17762e-06
0.000345643
-2.01494e-06
0.000346569
-1.85097e-06
0.000347412
-1.68586e-06
0.000348172
-1.51973e-06
0.000348849
-1.35275e-06
0.000349441
-1.18504e-06
0.00034995
-1.01676e-06
0.000350374
-8.48052e-07
0.000350714
-6.7907e-07
0.000350968
-5.09958e-07
0.000351139
-3.40866e-07
0.000351225
-1.71939e-07
0.000351226
-3.32579e-09
0.000351144
1.6483e-07
0.000350977
3.32385e-07
0.000350728
4.99198e-07
0.000350395
6.65129e-07
0.000349979
8.30044e-07
0.000349482
9.93809e-07
0.000348904
1.15629e-06
0.000348245
1.31737e-06
0.000347506
1.47692e-06
0.000346688
1.63483e-06
0.000345792
1.79097e-06
0.000344819
1.94525e-06
0.000343769
2.09755e-06
0.000342645
2.24777e-06
0.000341447
2.39583e-06
0.000340175
2.54164e-06
0.000338832
2.6851e-06
0.000337418
2.82614e-06
0.000335935
2.96468e-06
0.000334384
3.10066e-06
0.000332767
3.23402e-06
0.000331084
3.3647e-06
0.000329337
3.49264e-06
0.000327527
3.6178e-06
0.000325656
3.74014e-06
0.000323726
3.85963e-06
0.000321737
3.97623e-06
0.000319691
4.08992e-06
0.00031759
4.20067e-06
0.000315435
4.30848e-06
0.000313228
4.41333e-06
0.000310969
4.51522e-06
0.000308662
4.61414e-06
0.000306306
4.7101e-06
0.000303903
4.80311e-06
0.000301456
4.89317e-06
0.000298965
4.98031e-06
0.000296432
5.06454e-06
0.000293859
5.14588e-06
0.000291246
5.22436e-06
0.000288595
5.3e-06
0.000285908
5.37285e-06
0.000283186
5.44294e-06
0.00028043
5.51029e-06
0.000277642
5.57496e-06
0.000274823
5.63698e-06
0.000271974
5.6964e-06
0.000269097
5.75326e-06
0.000266192
5.80761e-06
0.000263262
5.85951e-06
0.000260307
5.909e-06
0.000257328
5.95613e-06
0.000254327
6.00095e-06
0.000251305
6.04353e-06
0.000248262
6.08392e-06
0.000245201
6.12217e-06
0.000242121
6.15833e-06
0.000239024
6.19247e-06
0.000235911
6.22465e-06
0.000232783
6.25491e-06
0.000229641
6.28332e-06
0.000226486
6.30993e-06
0.000223318
6.33481e-06
0.000220139
6.358e-06
0.000216949
6.37957e-06
0.000213748
6.39958e-06
0.000210539
6.41807e-06
0.000207321
6.4351e-06
0.000204095
6.45074e-06
0.000200863
6.46503e-06
0.000197623
6.47803e-06
0.000194378
6.48979e-06
0.000191128
6.50036e-06
0.000187872
6.5098e-06
0.000184613
6.51815e-06
0.00018135
6.52547e-06
0.000178084
6.53181e-06
0.000174815
6.53722e-06
0.000171544
6.54173e-06
0.000168271
6.5454e-06
0.000164997
6.54827e-06
0.000161721
6.5504e-06
0.000158445
6.55181e-06
0.000155169
6.55256e-06
0.000151892
6.55268e-06
0.000148616
6.55221e-06
0.000145341
6.5512e-06
0.000142066
6.54969e-06
0.000138792
6.5477e-06
0.000135519
6.54528e-06
0.000132248
6.54246e-06
0.000128978
6.53927e-06
0.00012571
6.53576e-06
0.000122444
6.53194e-06
0.00011918
6.52786e-06
0.000115918
6.52354e-06
0.000112658
6.51901e-06
0.000109401
6.5143e-06
0.000106147
6.50943e-06
0.000102894
6.50444e-06
9.96446e-05
6.49935e-06
9.63975e-05
6.49418e-06
9.3153e-05
6.48896e-06
8.99112e-05
6.4837e-06
8.6672e-05
6.47844e-06
8.34354e-05
6.47319e-06
8.02014e-05
6.46796e-06
7.697e-05
6.46279e-06
7.37412e-05
6.45769e-06
7.05149e-05
6.45267e-06
6.72911e-05
6.44776e-06
6.40696e-05
6.44296e-06
6.08505e-05
6.4383e-06
5.76336e-05
6.43379e-06
5.4419e-05
6.42943e-06
5.12064e-05
6.42525e-06
4.79958e-05
6.42126e-06
4.47871e-05
6.41746e-06
4.15803e-05
6.41387e-06
3.83751e-05
6.4105e-06
3.51715e-05
6.40735e-06
3.19693e-05
6.40443e-06
2.87685e-05
6.40176e-06
2.55689e-05
6.39934e-06
2.23704e-05
6.39717e-06
1.91728e-05
6.39526e-06
1.59761e-05
6.39361e-06
1.278e-05
6.39223e-06
9.58455e-06
6.39112e-06
6.38947e-06
6.3903e-06
3.19467e-06
6.38975e-06
6.38948e-06
3.50213e-06
-1.05073e-05
7.00444e-06
-1.05079e-05
1.05071e-05
-1.0509e-05
1.40104e-05
-1.05107e-05
1.75144e-05
-1.05129e-05
2.10193e-05
-1.05157e-05
2.45254e-05
-1.0519e-05
2.80327e-05
-1.05229e-05
3.15415e-05
-1.05272e-05
3.5052e-05
-1.05321e-05
3.85642e-05
-1.05374e-05
4.20783e-05
-1.05432e-05
4.55946e-05
-1.05495e-05
4.91131e-05
-1.05561e-05
5.26339e-05
-1.05632e-05
5.61573e-05
-1.05706e-05
5.96833e-05
-1.05784e-05
6.3212e-05
-1.05865e-05
6.67435e-05
-1.05949e-05
7.02779e-05
-1.06036e-05
7.38152e-05
-1.06124e-05
7.73556e-05
-1.06214e-05
8.08991e-05
-1.06306e-05
8.44457e-05
-1.06399e-05
8.79954e-05
-1.06492e-05
9.15483e-05
-1.06585e-05
9.51043e-05
-1.06677e-05
9.86633e-05
-1.06769e-05
0.000102225
-1.06859e-05
0.00010579
-1.06947e-05
0.000109358
-1.07033e-05
0.000112929
-1.07115e-05
0.000116502
-1.07193e-05
0.000120078
-1.07267e-05
0.000123656
-1.07335e-05
0.000127237
-1.07398e-05
0.000130819
-1.07454e-05
0.000134403
-1.07502e-05
0.000137988
-1.07543e-05
0.000141574
-1.07574e-05
0.000145162
-1.07596e-05
0.000148749
-1.07607e-05
0.000152337
-1.07607e-05
0.000155924
-1.07594e-05
0.00015951
-1.07568e-05
0.000163095
-1.07528e-05
0.000166679
-1.07473e-05
0.00017026
-1.07402e-05
0.000173838
-1.07313e-05
0.000177412
-1.07207e-05
0.000180983
-1.07081e-05
0.000184549
-1.06936e-05
0.000188109
-1.06769e-05
0.000191663
-1.0658e-05
0.00019521
-1.06367e-05
0.000198749
-1.06131e-05
0.000202279
-1.05868e-05
0.0002058
-1.05579e-05
0.00020931
-1.05263e-05
0.000212809
-1.04918e-05
0.000216296
-1.04543e-05
0.000219769
-1.04137e-05
0.000223227
-1.03698e-05
0.00022667
-1.03227e-05
0.000230096
-1.02722e-05
0.000233504
-1.02181e-05
0.000236893
-1.01604e-05
0.000240261
-1.00989e-05
0.000243608
-1.00336e-05
0.000246932
-9.96442e-06
0.000250231
-9.89118e-06
0.000253505
-9.81382e-06
0.000256751
-9.73225e-06
0.000259969
-9.64639e-06
0.000263157
-9.55616e-06
0.000266313
-9.46149e-06
0.000269437
-9.3623e-06
0.000272525
-9.25852e-06
0.000275578
-9.15011e-06
0.000278593
-9.037e-06
0.000281569
-8.91915e-06
0.000284504
-8.79652e-06
0.000287396
-8.66908e-06
0.000290244
-8.53679e-06
0.000293047
-8.39964e-06
0.000295802
-8.25762e-06
0.000298508
-8.11072e-06
0.000301164
-7.95896e-06
0.000303768
-7.80233e-06
0.000306317
-7.64087e-06
0.000308811
-7.47461e-06
0.000311248
-7.30358e-06
0.000313627
-7.12784e-06
0.000315945
-6.94745e-06
0.000318202
-6.76246e-06
0.000320395
-6.57296e-06
0.000322524
-6.37903e-06
0.000324587
-6.18077e-06
0.000326582
-5.97828e-06
0.000328508
-5.77168e-06
0.000330364
-5.56109e-06
0.000332148
-5.34663e-06
0.00033386
-5.12845e-06
0.000335497
-4.90669e-06
0.000337059
-4.68151e-06
0.000338545
-4.45307e-06
0.000339954
-4.22155e-06
0.000341285
-3.98711e-06
0.000342536
-3.74995e-06
0.000343707
-3.51025e-06
0.000344798
-3.26821e-06
0.000345807
-3.02402e-06
0.000346734
-2.7779e-06
0.000347578
-2.53005e-06
0.000348339
-2.28068e-06
0.000349016
-2.03002e-06
0.00034961
-1.77827e-06
0.000350119
-1.52567e-06
0.000350543
-1.27242e-06
0.000350883
-1.01877e-06
0.000351138
-7.64913e-07
0.000351308
-5.1109e-07
0.000351393
-2.57518e-07
0.000351395
-4.41616e-09
0.000351311
2.47997e-07
0.000351144
4.99505e-07
0.000350894
7.49898e-07
0.00035056
9.98966e-07
0.000350143
1.2465e-06
0.000349645
1.49231e-06
0.000349065
1.7362e-06
0.000348404
1.97797e-06
0.000347664
2.21744e-06
0.000346844
2.45444e-06
0.000345946
2.68879e-06
0.000344971
2.92034e-06
0.00034392
3.14891e-06
0.000342793
3.37437e-06
0.000341593
3.59657e-06
0.000340319
3.81538e-06
0.000338973
4.03067e-06
0.000337557
4.24232e-06
0.000336071
4.45022e-06
0.000334518
4.65428e-06
0.000332897
4.85438e-06
0.000331212
5.05046e-06
0.000329462
5.24243e-06
0.00032765
5.43023e-06
0.000325776
5.61379e-06
0.000323842
5.79305e-06
0.000321851
5.96799e-06
0.000319802
6.13854e-06
0.000317698
6.30469e-06
0.00031554
6.46642e-06
0.00031333
6.6237e-06
0.000311068
6.77653e-06
0.000308758
6.92491e-06
0.000306399
7.06885e-06
0.000303994
7.20834e-06
0.000301543
7.34342e-06
0.00029905
7.4741e-06
0.000296514
7.60041e-06
0.000293937
7.72239e-06
0.000291322
7.84007e-06
0.000288668
7.95351e-06
0.000285978
8.06274e-06
0.000283253
8.16781e-06
0.000280495
8.2688e-06
0.000277704
8.36574e-06
0.000274882
8.45872e-06
0.000272031
8.54779e-06
0.000269151
8.63302e-06
0.000266244
8.71449e-06
0.000263311
8.79227e-06
0.000260354
8.86644e-06
0.000257373
8.93707e-06
0.00025437
9.00424e-06
0.000251345
9.06804e-06
0.000248301
9.12855e-06
0.000245237
9.18585e-06
0.000242155
9.24003e-06
0.000239057
9.29117e-06
0.000235942
9.33936e-06
0.000232812
9.38468e-06
0.000229668
9.42723e-06
0.000226511
9.46707e-06
0.000223341
9.50432e-06
0.00022016
9.53904e-06
0.000216969
9.57132e-06
0.000213767
9.60125e-06
0.000210556
9.62892e-06
0.000207337
9.65441e-06
0.00020411
9.67779e-06
0.000200876
9.69916e-06
0.000197635
9.71859e-06
0.000194389
9.73616e-06
0.000191137
9.75196e-06
0.000187881
9.76605e-06
0.000184621
9.77852e-06
0.000181357
9.78944e-06
0.000178089
9.79889e-06
0.00017482
9.80693e-06
0.000171548
9.81365e-06
0.000168274
9.8191e-06
0.000164999
9.82335e-06
0.000161723
9.82648e-06
0.000158446
9.82855e-06
0.000155169
9.82962e-06
0.000151892
9.82975e-06
0.000148615
9.829e-06
0.000145339
9.82744e-06
0.000142064
9.82512e-06
0.000138789
9.82209e-06
0.000135516
9.81842e-06
0.000132244
9.81414e-06
0.000128974
9.80933e-06
0.000125706
9.80401e-06
0.00012244
9.79825e-06
0.000119176
9.79209e-06
0.000115914
9.78557e-06
0.000112654
9.77874e-06
0.000109397
9.77164e-06
0.000106142
9.76431e-06
0.000102889
9.75679e-06
9.96395e-05
9.74912e-06
9.63923e-05
9.74134e-06
9.31478e-05
9.73348e-06
8.9906e-05
9.72557e-06
8.66668e-05
9.71764e-06
8.34302e-05
9.70974e-06
8.01963e-05
9.70188e-06
7.6965e-05
9.6941e-06
7.37362e-05
9.68643e-06
7.051e-05
9.67888e-06
6.72863e-05
9.67149e-06
6.4065e-05
9.66428e-06
6.0846e-05
9.65727e-06
5.76293e-05
9.65048e-06
5.44148e-05
9.64393e-06
5.12024e-05
9.63765e-06
4.79921e-05
9.63164e-06
4.47836e-05
9.62593e-06
4.15769e-05
9.62053e-06
3.8372e-05
9.61546e-06
3.51686e-05
9.61073e-06
3.19667e-05
9.60635e-06
2.87661e-05
9.60233e-06
2.55667e-05
9.59869e-06
2.23685e-05
9.59543e-06
1.91712e-05
9.59255e-06
1.59747e-05
9.59008e-06
1.27789e-05
9.588e-06
9.58372e-06
9.58634e-06
6.38892e-06
9.5851e-06
3.19439e-06
9.58428e-06
9.58387e-06
3.50156e-06
-1.40089e-05
7.00331e-06
-1.40096e-05
1.05054e-05
-1.40111e-05
1.40081e-05
-1.40134e-05
1.75116e-05
-1.40164e-05
2.1016e-05
-1.40201e-05
2.45215e-05
-1.40245e-05
2.80283e-05
-1.40297e-05
3.15366e-05
-1.40355e-05
3.50466e-05
-1.4042e-05
3.85583e-05
-1.40492e-05
4.2072e-05
-1.40569e-05
4.55879e-05
-1.40653e-05
4.91059e-05
-1.40742e-05
5.26264e-05
-1.40837e-05
5.61494e-05
-1.40937e-05
5.96751e-05
-1.41041e-05
6.32035e-05
-1.41149e-05
6.67348e-05
-1.41262e-05
7.02689e-05
-1.41378e-05
7.38061e-05
-1.41496e-05
7.73464e-05
-1.41617e-05
8.08898e-05
-1.4174e-05
8.44363e-05
-1.41864e-05
8.79861e-05
-1.41989e-05
9.15389e-05
-1.42114e-05
9.5095e-05
-1.42238e-05
9.86542e-05
-1.42361e-05
0.000102217
-1.42482e-05
0.000105782
-1.426e-05
0.00010935
-1.42715e-05
0.000112921
-1.42826e-05
0.000116495
-1.42931e-05
0.000120071
-1.4303e-05
0.00012365
-1.43123e-05
0.000127231
-1.43207e-05
0.000130814
-1.43283e-05
0.000134399
-1.43349e-05
0.000137985
-1.43404e-05
0.000141572
-1.43447e-05
0.00014516
-1.43478e-05
0.000148749
-1.43494e-05
0.000152338
-1.43495e-05
0.000155926
-1.43479e-05
0.000159514
-1.43446e-05
0.000163101
-1.43394e-05
0.000166686
-1.43322e-05
0.000170268
-1.43229e-05
0.000173848
-1.43112e-05
0.000177425
-1.42972e-05
0.000180997
-1.42806e-05
0.000184565
-1.42614e-05
0.000188128
-1.42393e-05
0.000191684
-1.42143e-05
0.000195233
-1.41861e-05
0.000198775
-1.41547e-05
0.000202308
-1.41199e-05
0.000205832
-1.40816e-05
0.000209345
-1.40395e-05
0.000212847
-1.39937e-05
0.000216336
-1.39438e-05
0.000219813
-1.38899e-05
0.000223274
-1.38316e-05
0.000226721
-1.37689e-05
0.00023015
-1.37017e-05
0.000233562
-1.36298e-05
0.000236954
-1.3553e-05
0.000240327
-1.34712e-05
0.000243677
-1.33843e-05
0.000247005
-1.32922e-05
0.000250309
-1.31946e-05
0.000253586
-1.30916e-05
0.000256837
-1.2983e-05
0.000260059
-1.28687e-05
0.000263252
-1.27485e-05
0.000266413
-1.26223e-05
0.00026954
-1.24902e-05
0.000272634
-1.23519e-05
0.000275691
-1.22074e-05
0.000278711
-1.20567e-05
0.000281691
-1.18996e-05
0.000284631
-1.17362e-05
0.000287528
-1.15663e-05
0.000290381
-1.13899e-05
0.000293189
-1.12071e-05
0.000295949
-1.10177e-05
0.00029866
-1.08219e-05
0.000301321
-1.06195e-05
0.000303929
-1.04106e-05
0.000306483
-1.01953e-05
0.000308982
-9.97356e-06
0.000311424
-9.74545e-06
0.000313807
-9.51103e-06
0.00031613
-9.2704e-06
0.000318392
-9.02363e-06
0.000320589
-8.77083e-06
0.000322722
-8.51211e-06
0.000324789
-8.2476e-06
0.000326788
-7.97745e-06
0.000328719
-7.70179e-06
0.000330578
-7.42079e-06
0.000332366
-7.13463e-06
0.000334081
-6.84349e-06
0.000335722
-6.54757e-06
0.000337288
-6.24708e-06
0.000338777
-5.94224e-06
0.000340189
-5.63326e-06
0.000341522
-5.3204e-06
0.000342776
-5.00388e-06
0.00034395
-4.68398e-06
0.000345042
-4.36094e-06
0.000346053
-4.03504e-06
0.000346982
-3.70655e-06
0.000347828
-3.37576e-06
0.00034859
-3.04293e-06
0.000349268
-2.70837e-06
0.000349862
-2.37237e-06
0.000350372
-2.03522e-06
0.000350797
-1.69722e-06
0.000351137
-1.35866e-06
0.000351392
-1.01984e-06
0.000351562
-6.81067e-07
0.000351647
-3.42629e-07
0.000351647
-4.82173e-09
0.000351563
3.32063e-07
0.000351395
6.67738e-07
0.000351143
1.00192e-06
0.000350807
1.33433e-06
0.000350389
1.66469e-06
0.000349889
1.99274e-06
0.000349307
2.31821e-06
0.000348644
2.64086e-06
0.000347901
2.96043e-06
0.000347079
3.2767e-06
0.000346178
3.58942e-06
0.0003452
3.89839e-06
0.000344145
4.20339e-06
0.000343016
4.50423e-06
0.000341812
4.8007e-06
0.000340534
5.09264e-06
0.000339185
5.37988e-06
0.000337765
5.66225e-06
0.000336276
5.93961e-06
0.000334718
6.21183e-06
0.000333094
6.47878e-06
0.000331404
6.74033e-06
0.00032965
6.9964e-06
0.000327833
7.24689e-06
0.000325955
7.49172e-06
0.000324018
7.73081e-06
0.000322021
7.96411e-06
0.000319968
8.19157e-06
0.00031786
8.41314e-06
0.000315698
8.6288e-06
0.000313483
8.83852e-06
0.000311217
9.0423e-06
0.000308902
9.24013e-06
0.000306539
9.43203e-06
0.000304129
9.61799e-06
0.000301674
9.79806e-06
0.000299176
9.97226e-06
0.000296636
1.01406e-05
0.000294055
1.03032e-05
0.000291435
1.046e-05
0.000288777
1.06112e-05
0.000286083
1.07568e-05
0.000283354
1.08968e-05
0.000280592
1.10313e-05
0.000277797
1.11605e-05
0.000274972
1.12844e-05
0.000272116
1.1403e-05
0.000269233
1.15166e-05
0.000266322
1.16251e-05
0.000263386
1.17287e-05
0.000260425
1.18274e-05
0.00025744
1.19215e-05
0.000254434
1.20109e-05
0.000251406
1.20958e-05
0.000248358
1.21764e-05
0.000245291
1.22527e-05
0.000242207
1.23248e-05
0.000239105
1.23928e-05
0.000235987
1.24569e-05
0.000232855
1.25172e-05
0.000229708
1.25738e-05
0.000226548
1.26268e-05
0.000223376
1.26763e-05
0.000220193
1.27225e-05
0.000216999
1.27654e-05
0.000213795
1.28052e-05
0.000210582
1.2842e-05
0.00020736
1.28758e-05
0.000204131
1.29069e-05
0.000200895
1.29352e-05
0.000197653
1.2961e-05
0.000194405
1.29843e-05
0.000191151
1.30053e-05
0.000187894
1.30239e-05
0.000184632
1.30404e-05
0.000181366
1.30549e-05
0.000178098
1.30674e-05
0.000174827
1.3078e-05
0.000171553
1.30868e-05
0.000168279
1.3094e-05
0.000165002
1.30996e-05
0.000161725
1.31036e-05
0.000158447
1.31063e-05
0.000155169
1.31076e-05
0.000151892
1.31077e-05
0.000148614
1.31066e-05
0.000145337
1.31044e-05
0.000142061
1.31013e-05
0.000138786
1.30971e-05
0.000135512
1.30922e-05
0.00013224
1.30864e-05
0.000128969
1.30799e-05
0.000125701
1.30727e-05
0.000122434
1.3065e-05
0.000119169
1.30567e-05
0.000115907
1.30479e-05
0.000112647
1.30387e-05
0.000109389
1.30292e-05
0.000106134
1.30194e-05
0.000102882
1.30093e-05
9.96318e-05
1.2999e-05
9.63846e-05
1.29886e-05
9.314e-05
1.2978e-05
8.98981e-05
1.29674e-05
8.66589e-05
1.29568e-05
8.34224e-05
1.29462e-05
8.01886e-05
1.29357e-05
7.69574e-05
1.29253e-05
7.37288e-05
1.2915e-05
7.05027e-05
1.29049e-05
6.72792e-05
1.2895e-05
6.4058e-05
1.28854e-05
6.08393e-05
1.2876e-05
5.76228e-05
1.28669e-05
5.44086e-05
1.28582e-05
5.11965e-05
1.28498e-05
4.79864e-05
1.28417e-05
4.47782e-05
1.28341e-05
4.15719e-05
1.28269e-05
3.83673e-05
1.28201e-05
3.51642e-05
1.28138e-05
3.19627e-05
1.28079e-05
2.87625e-05
1.28025e-05
2.55635e-05
1.27977e-05
2.23656e-05
1.27933e-05
1.91687e-05
1.27895e-05
1.59727e-05
1.27861e-05
1.27773e-05
1.27834e-05
9.58248e-06
1.27811e-05
6.38809e-06
1.27795e-05
3.19397e-06
1.27784e-05
1.27778e-05
3.5008e-06
-1.75097e-05
7.0018e-06
-1.75106e-05
1.05032e-05
-1.75125e-05
1.40051e-05
-1.75153e-05
1.75079e-05
-1.75191e-05
2.10115e-05
-1.75238e-05
2.45163e-05
-1.75294e-05
2.80225e-05
-1.75358e-05
3.15301e-05
-1.75431e-05
3.50394e-05
-1.75513e-05
3.85505e-05
-1.75603e-05
4.20636e-05
-1.757e-05
4.55789e-05
-1.75806e-05
4.90964e-05
-1.75918e-05
5.26164e-05
-1.76037e-05
5.61389e-05
-1.76162e-05
5.96642e-05
-1.76293e-05
6.31922e-05
-1.7643e-05
6.67231e-05
-1.76571e-05
7.0257e-05
-1.76716e-05
7.3794e-05
-1.76866e-05
7.7334e-05
-1.77018e-05
8.08773e-05
-1.77173e-05
8.44238e-05
-1.77329e-05
8.79735e-05
-1.77486e-05
9.15264e-05
-1.77643e-05
9.50826e-05
-1.778e-05
9.8642e-05
-1.77955e-05
0.000102205
-1.78108e-05
0.00010577
-1.78257e-05
0.000109339
-1.78402e-05
0.000112911
-1.78542e-05
0.000116485
-1.78675e-05
0.000120062
-1.78801e-05
0.000123642
-1.78918e-05
0.000127223
-1.79026e-05
0.000130807
-1.79122e-05
0.000134393
-1.79207e-05
0.00013798
-1.79278e-05
0.000141569
-1.79334e-05
0.000145159
-1.79374e-05
0.000148749
-1.79396e-05
0.000152339
-1.79399e-05
0.00015593
-1.79382e-05
0.000159519
-1.79343e-05
0.000163108
-1.79281e-05
0.000166695
-1.79193e-05
0.00017028
-1.79079e-05
0.000173862
-1.78936e-05
0.000177441
-1.78763e-05
0.000181017
-1.78558e-05
0.000184587
-1.7832e-05
0.000188153
-1.78047e-05
0.000191712
-1.77736e-05
0.000195265
-1.77387e-05
0.00019881
-1.76998e-05
0.000202346
-1.76565e-05
0.000205874
-1.76089e-05
0.000209391
-1.75566e-05
0.000212897
-1.74996e-05
0.00021639
-1.74375e-05
0.000219871
-1.73703e-05
0.000223337
-1.72978e-05
0.000226788
-1.72197e-05
0.000230222
-1.71359e-05
0.000233638
-1.70463e-05
0.000237036
-1.69505e-05
0.000240413
-1.68486e-05
0.000243769
-1.67402e-05
0.000247102
-1.66253e-05
0.000250411
-1.65036e-05
0.000253695
-1.63751e-05
0.000256951
-1.62395e-05
0.000260179
-1.60968e-05
0.000263378
-1.59467e-05
0.000266545
-1.57892e-05
0.000269679
-1.56242e-05
0.000272778
-1.54515e-05
0.000275842
-1.52711e-05
0.000278868
-1.50828e-05
0.000281855
-1.48865e-05
0.000284801
-1.46823e-05
0.000287705
-1.447e-05
0.000290564
-1.42496e-05
0.000293378
-1.40211e-05
0.000296145
-1.37844e-05
0.000298862
-1.35395e-05
0.00030153
-1.32865e-05
0.000304144
-1.30254e-05
0.000306705
-1.27562e-05
0.00030921
-1.24789e-05
0.000311659
-1.21936e-05
0.000314048
-1.19005e-05
0.000316377
-1.15995e-05
0.000318644
-1.12908e-05
0.000320848
-1.09746e-05
0.000322987
-1.0651e-05
0.00032506
-1.03201e-05
0.000327064
-9.98211e-06
0.000329
-9.63723e-06
0.000330864
-9.28566e-06
0.000332657
-8.92761e-06
0.000334377
-8.56332e-06
0.000336023
-8.19304e-06
0.000337593
-7.81702e-06
0.000339086
-7.43553e-06
0.000340502
-7.04887e-06
0.000341839
-6.65733e-06
0.000343096
-6.26121e-06
0.000344273
-5.86084e-06
0.000345368
-5.45655e-06
0.000346382
-5.04866e-06
0.000347313
-4.63752e-06
0.000348161
-4.22349e-06
0.000348925
-3.80692e-06
0.000349604
-3.38818e-06
0.0003502
-2.96762e-06
0.00035071
-2.54563e-06
0.000351135
-2.12257e-06
0.000351476
-1.69881e-06
0.000351731
-1.27474e-06
0.0003519
-8.50712e-07
0.000351985
-4.27114e-07
0.000351984
-4.30888e-09
0.000351899
4.17337e-07
0.000351729
8.37462e-07
0.000351475
1.25571e-06
0.000351138
1.67173e-06
0.000350717
2.08519e-06
0.000350214
2.49573e-06
0.00034963
2.90305e-06
0.000348964
3.30682e-06
0.000348217
3.70673e-06
0.000347392
4.10249e-06
0.000346487
4.49381e-06
0.000345505
4.88041e-06
0.000344447
5.26204e-06
0.000343312
5.63843e-06
0.000342104
6.00937e-06
0.000340822
6.37461e-06
0.000339468
6.73395e-06
0.000338043
7.08719e-06
0.000336548
7.43415e-06
0.000334985
7.77465e-06
0.000333356
8.10855e-06
0.00033166
8.43569e-06
0.000329901
8.75595e-06
0.000328078
9.06922e-06
0.000326195
9.37538e-06
0.000324251
9.67436e-06
0.000322249
9.96608e-06
0.00032019
1.02505e-05
0.000318076
1.05275e-05
0.000315908
1.07971e-05
0.000313687
1.10593e-05
0.000311415
1.1314e-05
0.000309094
1.15613e-05
0.000306725
1.18011e-05
0.000304309
1.20335e-05
0.000301849
1.22586e-05
0.000299345
1.24762e-05
0.000296799
1.26866e-05
0.000294212
1.28897e-05
0.000291587
1.30857e-05
0.000288923
1.32745e-05
0.000286224
1.34563e-05
0.000283489
1.36312e-05
0.000280721
1.37993e-05
0.000277921
1.39606e-05
0.00027509
1.41152e-05
0.00027223
1.42634e-05
0.000269341
1.44051e-05
0.000266426
1.45406e-05
0.000263485
1.46699e-05
0.000260519
1.47931e-05
0.00025753
1.49105e-05