/*--------------------------------*- C++ -*----------------------------------*\
| =========                 |                                                 |
| \\      /  F ield         | OpenFOAM: The Open Source CFD Toolbox           |
|  \\    /   O peration     | Version:  v2012                                 |
|   \\  /    A nd           | Website:  www.openfoam.com                      |
|    \\/     M anipulation  |                                                 |
\*---------------------------------------------------------------------------*/
FoamFile
{
    version     2.0;
    format      ascii;
    class       volVectorField;
    location    "8.5";
    object      Psi;
}
// * * * * * * * * * * * * * * * * * * * * * * * * * * * * * * * * * * * * * //

dimensions      [0 2 -1 0 0 0 0];


internalField   nonuniform List<vector> 
65536
(
(0 0 9.25824e-06)
(0 0 2.77747e-05)
(0 0 4.62913e-05)
(0 0 6.48079e-05)
(0 0 8.33246e-05)
(0 0 0.000101841)
(0 0 0.000120358)
(0 0 0.000138875)
(0 0 0.000157392)
(0 0 0.000175909)
(0 0 0.000194425)
(0 0 0.000212941)
(0 0 0.000231457)
(0 0 0.000249971)
(0 0 0.000268485)
(0 0 0.000286997)
(0 0 0.000305507)
(0 0 0.000324015)
(0 0 0.000342519)
(0 0 0.00036102)
(0 0 0.000379517)
(0 0 0.000398009)
(0 0 0.000416496)
(0 0 0.000434975)
(0 0 0.000453447)
(0 0 0.00047191)
(0 0 0.000490363)
(0 0 0.000508805)
(0 0 0.000527235)
(0 0 0.00054565)
(0 0 0.00056405)
(0 0 0.000582432)
(0 0 0.000600795)
(0 0 0.000619137)
(0 0 0.000637455)
(0 0 0.000655749)
(0 0 0.000674015)
(0 0 0.00069225)
(0 0 0.000710454)
(0 0 0.000728622)
(0 0 0.000746751)
(0 0 0.00076484)
(0 0 0.000782885)
(0 0 0.000800883)
(0 0 0.000818829)
(0 0 0.000836722)
(0 0 0.000854557)
(0 0 0.00087233)
(0 0 0.000890038)
(0 0 0.000907677)
(0 0 0.000925241)
(0 0 0.000942728)
(0 0 0.000960132)
(0 0 0.00097745)
(0 0 0.000994675)
(0 0 0.0010118)
(0 0 0.00102883)
(0 0 0.00104575)
(0 0 0.00106256)
(0 0 0.00107925)
(0 0 0.00109582)
(0 0 0.00111226)
(0 0 0.00112857)
(0 0 0.00114473)
(0 0 0.00116076)
(0 0 0.00117663)
(0 0 0.00119234)
(0 0 0.00120789)
(0 0 0.00122326)
(0 0 0.00123847)
(0 0 0.00125349)
(0 0 0.00126832)
(0 0 0.00128296)
(0 0 0.00129739)
(0 0 0.00131162)
(0 0 0.00132564)
(0 0 0.00133943)
(0 0 0.001353)
(0 0 0.00136633)
(0 0 0.00137943)
(0 0 0.00139228)
(0 0 0.00140487)
(0 0 0.00141721)
(0 0 0.00142929)
(0 0 0.00144109)
(0 0 0.00145262)
(0 0 0.00146387)
(0 0 0.00147483)
(0 0 0.0014855)
(0 0 0.00149586)
(0 0 0.00150593)
(0 0 0.00151569)
(0 0 0.00152513)
(0 0 0.00153425)
(0 0 0.00154306)
(0 0 0.00155153)
(0 0 0.00155968)
(0 0 0.00156748)
(0 0 0.00157495)
(0 0 0.00158208)
(0 0 0.00158886)
(0 0 0.0015953)
(0 0 0.00160138)
(0 0 0.00160711)
(0 0 0.00161248)
(0 0 0.00161749)
(0 0 0.00162214)
(0 0 0.00162643)
(0 0 0.00163036)
(0 0 0.00163393)
(0 0 0.00163713)
(0 0 0.00163996)
(0 0 0.00164243)
(0 0 0.00164454)
(0 0 0.00164628)
(0 0 0.00164765)
(0 0 0.00164867)
(0 0 0.00164932)
(0 0 0.00164961)
(0 0 0.00164954)
(0 0 0.00164911)
(0 0 0.00164833)
(0 0 0.0016472)
(0 0 0.00164571)
(0 0 0.00164388)
(0 0 0.0016417)
(0 0 0.00163918)
(0 0 0.00163632)
(0 0 0.00163313)
(0 0 0.00162961)
(0 0 0.00162576)
(0 0 0.00162159)
(0 0 0.00161709)
(0 0 0.00161229)
(0 0 0.00160717)
(0 0 0.00160175)
(0 0 0.00159603)
(0 0 0.00159001)
(0 0 0.0015837)
(0 0 0.00157711)
(0 0 0.00157024)
(0 0 0.00156309)
(0 0 0.00155566)
(0 0 0.00154798)
(0 0 0.00154004)
(0 0 0.00153184)
(0 0 0.00152339)
(0 0 0.0015147)
(0 0 0.00150577)
(0 0 0.00149661)
(0 0 0.00148723)
(0 0 0.00147762)
(0 0 0.0014678)
(0 0 0.00145777)
(0 0 0.00144753)
(0 0 0.00143709)
(0 0 0.00142646)
(0 0 0.00141564)
(0 0 0.00140464)
(0 0 0.00139347)
(0 0 0.00138211)
(0 0 0.0013706)
(0 0 0.00135892)
(0 0 0.00134708)
(0 0 0.00133509)
(0 0 0.00132295)
(0 0 0.00131068)
(0 0 0.00129826)
(0 0 0.00128571)
(0 0 0.00127303)
(0 0 0.00126023)
(0 0 0.00124731)
(0 0 0.00123428)
(0 0 0.00122113)
(0 0 0.00120788)
(0 0 0.00119453)
(0 0 0.00118108)
(0 0 0.00116753)
(0 0 0.0011539)
(0 0 0.00114017)
(0 0 0.00112637)
(0 0 0.00111248)
(0 0 0.00109852)
(0 0 0.00108448)
(0 0 0.00107038)
(0 0 0.00105621)
(0 0 0.00104198)
(0 0 0.00102768)
(0 0 0.00101333)
(0 0 0.000998928)
(0 0 0.000984471)
(0 0 0.000969965)
(0 0 0.000955413)
(0 0 0.000940817)
(0 0 0.000926179)
(0 0 0.000911502)
(0 0 0.000896787)
(0 0 0.000882038)
(0 0 0.000867256)
(0 0 0.000852443)
(0 0 0.000837602)
(0 0 0.000822733)
(0 0 0.000807839)
(0 0 0.000792921)
(0 0 0.000777981)
(0 0 0.000763021)
(0 0 0.000748042)
(0 0 0.000733045)
(0 0 0.000718033)
(0 0 0.000703005)
(0 0 0.000687964)
(0 0 0.00067291)
(0 0 0.000657844)
(0 0 0.000642769)
(0 0 0.000627684)
(0 0 0.000612591)
(0 0 0.00059749)
(0 0 0.000582382)
(0 0 0.000567269)
(0 0 0.00055215)
(0 0 0.000537027)
(0 0 0.0005219)
(0 0 0.00050677)
(0 0 0.000491638)
(0 0 0.000476503)
(0 0 0.000461366)
(0 0 0.000446229)
(0 0 0.00043109)
(0 0 0.000415951)
(0 0 0.000400812)
(0 0 0.000385673)
(0 0 0.000370534)
(0 0 0.000355396)
(0 0 0.000340259)
(0 0 0.000325122)
(0 0 0.000309987)
(0 0 0.000294853)
(0 0 0.000279721)
(0 0 0.00026459)
(0 0 0.00024946)
(0 0 0.000234332)
(0 0 0.000219205)
(0 0 0.00020408)
(0 0 0.000188956)
(0 0 0.000173834)
(0 0 0.000158713)
(0 0 0.000143593)
(0 0 0.000128475)
(0 0 0.000113357)
(0 0 9.8241e-05)
(0 0 8.31255e-05)
(0 0 6.80107e-05)
(0 0 5.28966e-05)
(0 0 3.77829e-05)
(0 0 2.26696e-05)
(0 0 7.55651e-06)
(0 0 2.77747e-05)
(0 0 8.33241e-05)
(0 0 0.000138874)
(0 0 0.000194424)
(0 0 0.000249974)
(0 0 0.000305524)
(0 0 0.000361075)
(0 0 0.000416625)
(0 0 0.000472176)
(0 0 0.000527727)
(0 0 0.000583276)
(0 0 0.000638825)
(0 0 0.000694371)
(0 0 0.000749915)
(0 0 0.000805456)
(0 0 0.000860992)
(0 0 0.000916523)
(0 0 0.000972046)
(0 0 0.00102756)
(0 0 0.00108307)
(0 0 0.00113856)
(0 0 0.00119403)
(0 0 0.00124949)
(0 0 0.00130493)
(0 0 0.00136035)
(0 0 0.00141574)
(0 0 0.0014711)
(0 0 0.00152643)
(0 0 0.00158172)
(0 0 0.00163697)
(0 0 0.00169217)
(0 0 0.00174731)
(0 0 0.00180241)
(0 0 0.00185743)
(0 0 0.00191239)
(0 0 0.00196727)
(0 0 0.00202207)
(0 0 0.00207678)
(0 0 0.0021314)
(0 0 0.0021859)
(0 0 0.00224029)
(0 0 0.00229456)
(0 0 0.0023487)
(0 0 0.0024027)
(0 0 0.00245654)
(0 0 0.00251022)
(0 0 0.00256373)
(0 0 0.00261705)
(0 0 0.00267018)
(0 0 0.0027231)
(0 0 0.0027758)
(0 0 0.00282827)
(0 0 0.00288048)
(0 0 0.00293244)
(0 0 0.00298412)
(0 0 0.00303551)
(0 0 0.0030866)
(0 0 0.00313737)
(0 0 0.0031878)
(0 0 0.00323788)
(0 0 0.00328759)
(0 0 0.00333691)
(0 0 0.00338584)
(0 0 0.00343435)
(0 0 0.00348242)
(0 0 0.00353003)
(0 0 0.00357717)
(0 0 0.00362383)
(0 0 0.00366997)
(0 0 0.00371558)
(0 0 0.00376065)
(0 0 0.00380515)
(0 0 0.00384907)
(0 0 0.00389239)
(0 0 0.00393508)
(0 0 0.00397713)
(0 0 0.00401851)
(0 0 0.00405922)
(0 0 0.00409923)
(0 0 0.00413852)
(0 0 0.00417707)
(0 0 0.00421487)
(0 0 0.0042519)
(0 0 0.00428813)
(0 0 0.00432355)
(0 0 0.00435814)
(0 0 0.00439189)
(0 0 0.00442477)
(0 0 0.00445678)
(0 0 0.00448789)
(0 0 0.00451809)
(0 0 0.00454737)
(0 0 0.0045757)
(0 0 0.00460308)
(0 0 0.00462949)
(0 0 0.00465492)
(0 0 0.00467936)
(0 0 0.00470279)
(0 0 0.0047252)
(0 0 0.00474659)
(0 0 0.00476694)
(0 0 0.00478624)
(0 0 0.00480448)
(0 0 0.00482167)
(0 0 0.00483778)
(0 0 0.00485283)
(0 0 0.00486679)
(0 0 0.00487966)
(0 0 0.00489145)
(0 0 0.00490214)
(0 0 0.00491174)
(0 0 0.00492025)
(0 0 0.00492766)
(0 0 0.00493397)
(0 0 0.00493919)
(0 0 0.00494332)
(0 0 0.00494636)
(0 0 0.00494831)
(0 0 0.00494918)
(0 0 0.00494897)
(0 0 0.00494769)
(0 0 0.00494534)
(0 0 0.00494193)
(0 0 0.00493747)
(0 0 0.00493197)
(0 0 0.00492544)
(0 0 0.00491788)
(0 0 0.0049093)
(0 0 0.00489972)
(0 0 0.00488915)
(0 0 0.0048776)
(0 0 0.00486507)
(0 0 0.00485159)
(0 0 0.00483717)
(0 0 0.00482182)
(0 0 0.00480555)
(0 0 0.00478838)
(0 0 0.00477032)
(0 0 0.00475139)
(0 0 0.0047316)
(0 0 0.00471098)
(0 0 0.00468952)
(0 0 0.00466725)
(0 0 0.00464419)
(0 0 0.00462036)
(0 0 0.00459575)
(0 0 0.00457041)
(0 0 0.00454433)
(0 0 0.00451755)
(0 0 0.00449006)
(0 0 0.0044619)
(0 0 0.00443307)
(0 0 0.0044036)
(0 0 0.0043735)
(0 0 0.00434278)
(0 0 0.00431147)
(0 0 0.00427957)
(0 0 0.00424711)
(0 0 0.0042141)
(0 0 0.00418056)
(0 0 0.00414651)
(0 0 0.00411195)
(0 0 0.0040769)
(0 0 0.00404139)
(0 0 0.00400541)
(0 0 0.003969)
(0 0 0.00393216)
(0 0 0.00389491)
(0 0 0.00385726)
(0 0 0.00381922)
(0 0 0.00378082)
(0 0 0.00374205)
(0 0 0.00370295)
(0 0 0.00366351)
(0 0 0.00362375)
(0 0 0.00358368)
(0 0 0.00354333)
(0 0 0.00350268)
(0 0 0.00346177)
(0 0 0.0034206)
(0 0 0.00337918)
(0 0 0.00333752)
(0 0 0.00329563)
(0 0 0.00325352)
(0 0 0.00321121)
(0 0 0.00316869)
(0 0 0.00312599)
(0 0 0.00308311)
(0 0 0.00304005)
(0 0 0.00299683)
(0 0 0.00295346)
(0 0 0.00290994)
(0 0 0.00286628)
(0 0 0.00282249)
(0 0 0.00277857)
(0 0 0.00273454)
(0 0 0.00269039)
(0 0 0.00264614)
(0 0 0.0026018)
(0 0 0.00255736)
(0 0 0.00251283)
(0 0 0.00246822)
(0 0 0.00242354)
(0 0 0.00237878)
(0 0 0.00233396)
(0 0 0.00228908)
(0 0 0.00224414)
(0 0 0.00219915)
(0 0 0.00215411)
(0 0 0.00210903)
(0 0 0.0020639)
(0 0 0.00201874)
(0 0 0.00197354)
(0 0 0.00192831)
(0 0 0.00188306)
(0 0 0.00183778)
(0 0 0.00179247)
(0 0 0.00174715)
(0 0 0.00170181)
(0 0 0.00165645)
(0 0 0.00161108)
(0 0 0.0015657)
(0 0 0.00152031)
(0 0 0.00147491)
(0 0 0.00142951)
(0 0 0.0013841)
(0 0 0.00133869)
(0 0 0.00129327)
(0 0 0.00124785)
(0 0 0.00120243)
(0 0 0.00115702)
(0 0 0.0011116)
(0 0 0.00106619)
(0 0 0.00102077)
(0 0 0.000975365)
(0 0 0.00092996)
(0 0 0.000884558)
(0 0 0.000839161)
(0 0 0.000793767)
(0 0 0.000748378)
(0 0 0.000702994)
(0 0 0.000657614)
(0 0 0.000612238)
(0 0 0.000566867)
(0 0 0.0005215)
(0 0 0.000476137)
(0 0 0.000430778)
(0 0 0.000385423)
(0 0 0.000340071)
(0 0 0.000294722)
(0 0 0.000249376)
(0 0 0.000204031)
(0 0 0.000158689)
(0 0 0.000113348)
(0 0 6.80086e-05)
(0 0 2.26695e-05)
(0 0 4.62911e-05)
(0 0 0.000138873)
(0 0 0.000231456)
(0 0 0.000324039)
(0 0 0.000416622)
(0 0 0.000509206)
(0 0 0.000601791)
(0 0 0.000694376)
(0 0 0.000786961)
(0 0 0.000879545)
(0 0 0.000972128)
(0 0 0.00106471)
(0 0 0.00115729)
(0 0 0.00124986)
(0 0 0.00134243)
(0 0 0.00143499)
(0 0 0.00152755)
(0 0 0.00162009)
(0 0 0.00171261)
(0 0 0.00180512)
(0 0 0.00189761)
(0 0 0.00199008)
(0 0 0.00208251)
(0 0 0.00217491)
(0 0 0.00226728)
(0 0 0.0023596)
(0 0 0.00245187)
(0 0 0.00254409)
(0 0 0.00263624)
(0 0 0.00272833)
(0 0 0.00282033)
(0 0 0.00291225)
(0 0 0.00300408)
(0 0 0.0030958)
(0 0 0.0031874)
(0 0 0.00327888)
(0 0 0.00337022)
(0 0 0.00346141)
(0 0 0.00355244)
(0 0 0.0036433)
(0 0 0.00373396)
(0 0 0.00382442)
(0 0 0.00391466)
(0 0 0.00400466)
(0 0 0.00409442)
(0 0 0.0041839)
(0 0 0.00427309)
(0 0 0.00436198)
(0 0 0.00445054)
(0 0 0.00453875)
(0 0 0.00462659)
(0 0 0.00471405)
(0 0 0.00480109)
(0 0 0.0048877)
(0 0 0.00497386)
(0 0 0.00505952)
(0 0 0.00514469)
(0 0 0.00522932)
(0 0 0.00531338)
(0 0 0.00539687)
(0 0 0.00547974)
(0 0 0.00556197)
(0 0 0.00564353)
(0 0 0.00572439)
(0 0 0.00580453)
(0 0 0.00588391)
(0 0 0.0059625)
(0 0 0.00604027)
(0 0 0.0061172)
(0 0 0.00619325)
(0 0 0.00626838)
(0 0 0.00634257)
(0 0 0.00641579)
(0 0 0.006488)
(0 0 0.00655917)
(0 0 0.00662928)
(0 0 0.00669828)
(0 0 0.00676615)
(0 0 0.00683285)
(0 0 0.00689835)
(0 0 0.00696263)
(0 0 0.00702565)
(0 0 0.00708737)
(0 0 0.00714778)
(0 0 0.00720683)
(0 0 0.00726451)
(0 0 0.00732077)
(0 0 0.0073756)
(0 0 0.00742896)
(0 0 0.00748083)
(0 0 0.00753118)
(0 0 0.00757999)
(0 0 0.00762723)
(0 0 0.00767288)
(0 0 0.00771691)
(0 0 0.00775931)
(0 0 0.00780005)
(0 0 0.00783911)
(0 0 0.00787648)
(0 0 0.00791213)
(0 0 0.00794605)
(0 0 0.00797823)
(0 0 0.00800865)
(0 0 0.0080373)
(0 0 0.00806417)
(0 0 0.00808924)
(0 0 0.00811251)
(0 0 0.00813398)
(0 0 0.00815362)
(0 0 0.00817145)
(0 0 0.00818745)
(0 0 0.00820163)
(0 0 0.00821398)
(0 0 0.0082245)
(0 0 0.0082332)
(0 0 0.00824008)
(0 0 0.00824514)
(0 0 0.00824838)
(0 0 0.00824983)
(0 0 0.00824947)
(0 0 0.00824733)
(0 0 0.00824341)
(0 0 0.00823772)
(0 0 0.00823028)
(0 0 0.0082211)
(0 0 0.0082102)
(0 0 0.00819759)
(0 0 0.00818328)
(0 0 0.00816731)
(0 0 0.00814967)
(0 0 0.0081304)
(0 0 0.00810952)
(0 0 0.00808704)
(0 0 0.00806298)
(0 0 0.00803738)
(0 0 0.00801025)
(0 0 0.00798162)
(0 0 0.00795151)
(0 0 0.00791994)
(0 0 0.00788694)
(0 0 0.00785254)
(0 0 0.00781677)
(0 0 0.00777964)
(0 0 0.00774119)
(0 0 0.00770144)
(0 0 0.00766042)
(0 0 0.00761816)
(0 0 0.00757468)
(0 0 0.00753001)
(0 0 0.00748419)
(0 0 0.00743723)
(0 0 0.00738917)
(0 0 0.00734003)
(0 0 0.00728984)
(0 0 0.00723863)
(0 0 0.00718642)
(0 0 0.00713325)
(0 0 0.00707913)
(0 0 0.0070241)
(0 0 0.00696818)
(0 0 0.0069114)
(0 0 0.00685378)
(0 0 0.00679536)
(0 0 0.00673615)
(0 0 0.00667618)
(0 0 0.00661547)
(0 0 0.00655406)
(0 0 0.00649195)
(0 0 0.00642919)
(0 0 0.00636578)
(0 0 0.00630176)
(0 0 0.00623714)
(0 0 0.00617194)
(0 0 0.0061062)
(0 0 0.00603992)
(0 0 0.00597313)
(0 0 0.00590586)
(0 0 0.00583811)
(0 0 0.00576991)
(0 0 0.00570127)
(0 0 0.00563222)
(0 0 0.00556278)
(0 0 0.00549295)
(0 0 0.00542276)
(0 0 0.00535223)
(0 0 0.00528136)
(0 0 0.00521018)
(0 0 0.0051387)
(0 0 0.00506693)
(0 0 0.00499489)
(0 0 0.00492259)
(0 0 0.00485005)
(0 0 0.00477728)
(0 0 0.00470429)
(0 0 0.00463108)
(0 0 0.00455769)
(0 0 0.00448411)
(0 0 0.00441035)
(0 0 0.00433643)
(0 0 0.00426236)
(0 0 0.00418814)
(0 0 0.00411379)
(0 0 0.00403931)
(0 0 0.00396471)
(0 0 0.00389001)
(0 0 0.0038152)
(0 0 0.00374029)
(0 0 0.0036653)
(0 0 0.00359023)
(0 0 0.00351509)
(0 0 0.00343988)
(0 0 0.0033646)
(0 0 0.00328927)
(0 0 0.00321389)
(0 0 0.00313846)
(0 0 0.00306299)
(0 0 0.00298748)
(0 0 0.00291194)
(0 0 0.00283637)
(0 0 0.00276077)
(0 0 0.00268515)
(0 0 0.00260952)
(0 0 0.00253386)
(0 0 0.0024582)
(0 0 0.00238252)
(0 0 0.00230684)
(0 0 0.00223115)
(0 0 0.00215545)
(0 0 0.00207975)
(0 0 0.00200406)
(0 0 0.00192836)
(0 0 0.00185267)
(0 0 0.00177697)
(0 0 0.00170129)
(0 0 0.0016256)
(0 0 0.00154993)
(0 0 0.00147426)
(0 0 0.0013986)
(0 0 0.00132294)
(0 0 0.00124729)
(0 0 0.00117165)
(0 0 0.00109602)
(0 0 0.00102039)
(0 0 0.000944774)
(0 0 0.000869162)
(0 0 0.000793558)
(0 0 0.00071796)
(0 0 0.000642368)
(0 0 0.000566782)
(0 0 0.0004912)
(0 0 0.000415623)
(0 0 0.00034005)
(0 0 0.00026448)
(0 0 0.000188913)
(0 0 0.000113347)
(0 0 3.77822e-05)
(0 0 6.48074e-05)
(0 0 0.000194422)
(0 0 0.000324038)
(0 0 0.000453654)
(0 0 0.000583271)
(0 0 0.000712888)
(0 0 0.000842507)
(0 0 0.000972126)
(0 0 0.00110175)
(0 0 0.00123136)
(0 0 0.00136098)
(0 0 0.0014906)
(0 0 0.00162021)
(0 0 0.00174982)
(0 0 0.00187942)
(0 0 0.002009)
(0 0 0.00213858)
(0 0 0.00226814)
(0 0 0.00239768)
(0 0 0.0025272)
(0 0 0.00265669)
(0 0 0.00278615)
(0 0 0.00291556)
(0 0 0.00304493)
(0 0 0.00317425)
(0 0 0.00330351)
(0 0 0.0034327)
(0 0 0.00356181)
(0 0 0.00369084)
(0 0 0.00381977)
(0 0 0.00394859)
(0 0 0.00407729)
(0 0 0.00420586)
(0 0 0.00433428)
(0 0 0.00446254)
(0 0 0.00459063)
(0 0 0.00471852)
(0 0 0.00484621)
(0 0 0.00497367)
(0 0 0.00510088)
(0 0 0.00522783)
(0 0 0.0053545)
(0 0 0.00548085)
(0 0 0.00560688)
(0 0 0.00573256)
(0 0 0.00585786)
(0 0 0.00598276)
(0 0 0.00610722)
(0 0 0.00623124)
(0 0 0.00635476)
(0 0 0.00647778)
(0 0 0.00660025)
(0 0 0.00672214)
(0 0 0.00684343)
(0 0 0.00696407)
(0 0 0.00708405)
(0 0 0.00720331)
(0 0 0.00732182)
(0 0 0.00743956)
(0 0 0.00755648)
(0 0 0.00767253)
(0 0 0.0077877)
(0 0 0.00790192)
(0 0 0.00801517)
(0 0 0.0081274)
(0 0 0.00823858)
(0 0 0.00834865)
(0 0 0.00845757)
(0 0 0.00856531)
(0 0 0.00867182)
(0 0 0.00877705)
(0 0 0.00888097)
(0 0 0.00898351)
(0 0 0.00908466)
(0 0 0.00918434)
(0 0 0.00928253)
(0 0 0.00937918)
(0 0 0.00947424)
(0 0 0.00956767)
(0 0 0.00965942)
(0 0 0.00974945)
(0 0 0.00983771)
(0 0 0.00992417)
(0 0 0.0100088)
(0 0 0.0100915)
(0 0 0.0101723)
(0 0 0.0102511)
(0 0 0.0103279)
(0 0 0.0104026)
(0 0 0.0104753)
(0 0 0.0105458)
(0 0 0.0106142)
(0 0 0.0106804)
(0 0 0.0107443)
(0 0 0.010806)
(0 0 0.0108654)
(0 0 0.0109224)
(0 0 0.0109771)
(0 0 0.0110295)
(0 0 0.0110794)
(0 0 0.0111269)
(0 0 0.011172)
(0 0 0.0112146)
(0 0 0.0112547)
(0 0 0.0112923)
(0 0 0.0113275)
(0 0 0.0113601)
(0 0 0.0113901)
(0 0 0.0114176)
(0 0 0.0114426)
(0 0 0.011465)
(0 0 0.0114848)
(0 0 0.0115021)
(0 0 0.0115169)
(0 0 0.011529)
(0 0 0.0115387)
(0 0 0.0115457)
(0 0 0.0115503)
(0 0 0.0115523)
(0 0 0.0115518)
(0 0 0.0115487)
(0 0 0.0115432)
(0 0 0.0115353)
(0 0 0.0115248)
(0 0 0.011512)
(0 0 0.0114967)
(0 0 0.011479)
(0 0 0.0114589)
(0 0 0.0114365)
(0 0 0.0114118)
(0 0 0.0113848)
(0 0 0.0113556)
(0 0 0.0113241)
(0 0 0.0112903)
(0 0 0.0112545)
(0 0 0.0112165)
(0 0 0.0111763)
(0 0 0.0111341)
(0 0 0.0110899)
(0 0 0.0110437)
(0 0 0.0109955)
(0 0 0.0109454)
(0 0 0.0108933)
(0 0 0.0108395)
(0 0 0.0107838)
(0 0 0.0107263)
(0 0 0.0106671)
(0 0 0.0106062)
(0 0 0.0105436)
(0 0 0.0104795)
(0 0 0.0104137)
(0 0 0.0103463)
(0 0 0.0102775)
(0 0 0.0102072)
(0 0 0.0101355)
(0 0 0.0100623)
(0 0 0.00998786)
(0 0 0.00991206)
(0 0 0.00983498)
(0 0 0.00975666)
(0 0 0.00967713)
(0 0 0.00959643)
(0 0 0.0095146)
(0 0 0.00943167)
(0 0 0.00934768)
(0 0 0.00926266)
(0 0 0.00917664)
(0 0 0.00908966)
(0 0 0.00900176)
(0 0 0.00891296)
(0 0 0.00882329)
(0 0 0.00873279)
(0 0 0.00864149)
(0 0 0.00854942)
(0 0 0.00845661)
(0 0 0.00836308)
(0 0 0.00826886)
(0 0 0.00817398)
(0 0 0.00807848)
(0 0 0.00798236)
(0 0 0.00788567)
(0 0 0.00778842)
(0 0 0.00769064)
(0 0 0.00759236)
(0 0 0.00749358)
(0 0 0.00739435)
(0 0 0.00729467)
(0 0 0.00719458)
(0 0 0.00709408)
(0 0 0.00699321)
(0 0 0.00689198)
(0 0 0.0067904)
(0 0 0.0066885)
(0 0 0.00658629)
(0 0 0.00648379)
(0 0 0.00638102)
(0 0 0.00627799)
(0 0 0.00617472)
(0 0 0.00607122)
(0 0 0.0059675)
(0 0 0.00586359)
(0 0 0.00575948)
(0 0 0.0056552)
(0 0 0.00555075)
(0 0 0.00544615)
(0 0 0.00534141)
(0 0 0.00523654)
(0 0 0.00513154)
(0 0 0.00502643)
(0 0 0.00492122)
(0 0 0.00481591)
(0 0 0.00471052)
(0 0 0.00460505)
(0 0 0.00449951)
(0 0 0.0043939)
(0 0 0.00428823)
(0 0 0.00418252)
(0 0 0.00407675)
(0 0 0.00397095)
(0 0 0.00386511)
(0 0 0.00375924)
(0 0 0.00365334)
(0 0 0.00354743)
(0 0 0.00344149)
(0 0 0.00333554)
(0 0 0.00322958)
(0 0 0.00312361)
(0 0 0.00301763)
(0 0 0.00291166)
(0 0 0.00280568)
(0 0 0.0026997)
(0 0 0.00259373)
(0 0 0.00248776)
(0 0 0.00238179)
(0 0 0.00227584)
(0 0 0.00216989)
(0 0 0.00206395)
(0 0 0.00195802)
(0 0 0.00185211)
(0 0 0.0017462)
(0 0 0.0016403)
(0 0 0.00153441)
(0 0 0.00142854)
(0 0 0.00132267)
(0 0 0.00121682)
(0 0 0.00111097)
(0 0 0.00100514)
(0 0 0.000899308)
(0 0 0.000793487)
(0 0 0.000687674)
(0 0 0.000581867)
(0 0 0.000476066)
(0 0 0.000370269)
(0 0 0.000264475)
(0 0 0.000158684)
(0 0 5.28946e-05)
(0 0 8.33236e-05)
(0 0 0.000249971)
(0 0 0.000416619)
(0 0 0.000583268)
(0 0 0.000749918)
(0 0 0.00091657)
(0 0 0.00108322)
(0 0 0.00124988)
(0 0 0.00141653)
(0 0 0.00158319)
(0 0 0.00174984)
(0 0 0.00191649)
(0 0 0.00208314)
(0 0 0.00224978)
(0 0 0.00241641)
(0 0 0.00258303)
(0 0 0.00274963)
(0 0 0.00291622)
(0 0 0.00308278)
(0 0 0.00324931)
(0 0 0.0034158)
(0 0 0.00358226)
(0 0 0.00374866)
(0 0 0.003915)
(0 0 0.00408128)
(0 0 0.00424749)
(0 0 0.0044136)
(0 0 0.00457962)
(0 0 0.00474553)
(0 0 0.00491132)
(0 0 0.00507696)
(0 0 0.00524246)
(0 0 0.00540778)
(0 0 0.00557292)
(0 0 0.00573785)
(0 0 0.00590256)
(0 0 0.00606703)
(0 0 0.00623123)
(0 0 0.00639514)
(0 0 0.00655873)
(0 0 0.00672199)
(0 0 0.00688488)
(0 0 0.00704738)
(0 0 0.00720946)
(0 0 0.00737108)
(0 0 0.00753223)
(0 0 0.00769285)
(0 0 0.00785293)
(0 0 0.00801242)
(0 0 0.00817129)
(0 0 0.00832951)
(0 0 0.00848702)
(0 0 0.0086438)
(0 0 0.00879979)
(0 0 0.00895497)
(0 0 0.00910928)
(0 0 0.00926267)
(0 0 0.00941512)
(0 0 0.00956655)
(0 0 0.00971694)
(0 0 0.00986623)
(0 0 0.0100144)
(0 0 0.0101613)
(0 0 0.010307)
(0 0 0.0104513)
(0 0 0.0105943)
(0 0 0.0107359)
(0 0 0.0108761)
(0 0 0.0110147)
(0 0 0.0111517)
(0 0 0.011287)
(0 0 0.0114207)
(0 0 0.0115527)
(0 0 0.0116828)
(0 0 0.011811)
(0 0 0.0119373)
(0 0 0.0120617)
(0 0 0.012184)
(0 0 0.0123042)
(0 0 0.0124222)
(0 0 0.012538)
(0 0 0.0126516)
(0 0 0.0127628)
(0 0 0.0128717)
(0 0 0.0129781)
(0 0 0.013082)
(0 0 0.0131834)
(0 0 0.0132822)
(0 0 0.0133784)
(0 0 0.0134719)
(0 0 0.0135626)
(0 0 0.0136506)
(0 0 0.0137357)
(0 0 0.013818)
(0 0 0.0138973)
(0 0 0.0139737)
(0 0 0.0140471)
(0 0 0.0141175)
(0 0 0.0141849)
(0 0 0.0142491)
(0 0 0.0143102)
(0 0 0.0143682)
(0 0 0.014423)
(0 0 0.0144746)
(0 0 0.014523)
(0 0 0.0145682)
(0 0 0.0146101)
(0 0 0.0146488)
(0 0 0.0146842)
(0 0 0.0147163)
(0 0 0.0147451)
(0 0 0.0147706)
(0 0 0.0147928)
(0 0 0.0148118)
(0 0 0.0148274)
(0 0 0.0148398)
(0 0 0.0148489)
(0 0 0.0148547)
(0 0 0.0148572)
(0 0 0.0148566)
(0 0 0.0148527)
(0 0 0.0148456)
(0 0 0.0148353)
(0 0 0.0148218)
(0 0 0.0148052)
(0 0 0.0147855)
(0 0 0.0147628)
(0 0 0.0147369)
(0 0 0.0147081)
(0 0 0.0146763)
(0 0 0.0146415)
(0 0 0.0146038)
(0 0 0.0145633)
(0 0 0.0145199)
(0 0 0.0144737)
(0 0 0.0144248)
(0 0 0.0143731)
(0 0 0.0143188)
(0 0 0.0142619)
(0 0 0.0142024)
(0 0 0.0141404)
(0 0 0.0140759)
(0 0 0.0140089)
(0 0 0.0139396)
(0 0 0.0138679)
(0 0 0.013794)
(0 0 0.0137178)
(0 0 0.0136394)
(0 0 0.0135589)
(0 0 0.0134763)
(0 0 0.0133917)
(0 0 0.013305)
(0 0 0.0132165)
(0 0 0.013126)
(0 0 0.0130337)
(0 0 0.0129396)
(0 0 0.0128438)
(0 0 0.0127463)
(0 0 0.0126471)
(0 0 0.0125463)
(0 0 0.012444)
(0 0 0.0123402)
(0 0 0.0122349)
(0 0 0.0121283)
(0 0 0.0120202)
(0 0 0.0119108)
(0 0 0.0118002)
(0 0 0.0116883)
(0 0 0.0115752)
(0 0 0.011461)
(0 0 0.0113457)
(0 0 0.0112293)
(0 0 0.0111118)
(0 0 0.0109934)
(0 0 0.010874)
(0 0 0.0107537)
(0 0 0.0106325)
(0 0 0.0105105)
(0 0 0.0103877)
(0 0 0.010264)
(0 0 0.0101397)
(0 0 0.0100146)
(0 0 0.00988884)
(0 0 0.00976243)
(0 0 0.0096354)
(0 0 0.00950778)
(0 0 0.00937959)
(0 0 0.00925086)
(0 0 0.00912162)
(0 0 0.00899189)
(0 0 0.0088617)
(0 0 0.00873107)
(0 0 0.00860003)
(0 0 0.00846859)
(0 0 0.00833678)
(0 0 0.00820462)
(0 0 0.00807212)
(0 0 0.00793932)
(0 0 0.00780622)
(0 0 0.00767285)
(0 0 0.00753922)
(0 0 0.00740535)
(0 0 0.00727125)
(0 0 0.00713694)
(0 0 0.00700244)
(0 0 0.00686775)
(0 0 0.0067329)
(0 0 0.00659789)
(0 0 0.00646273)
(0 0 0.00632745)
(0 0 0.00619204)
(0 0 0.00605652)
(0 0 0.0059209)
(0 0 0.00578519)
(0 0 0.0056494)
(0 0 0.00551353)
(0 0 0.0053776)
(0 0 0.00524161)
(0 0 0.00510557)
(0 0 0.00496948)
(0 0 0.00483336)
(0 0 0.0046972)
(0 0 0.00456101)
(0 0 0.0044248)
(0 0 0.00428857)
(0 0 0.00415233)
(0 0 0.00401608)
(0 0 0.00387982)
(0 0 0.00374356)
(0 0 0.0036073)
(0 0 0.00347104)
(0 0 0.00333478)
(0 0 0.00319854)
(0 0 0.0030623)
(0 0 0.00292606)
(0 0 0.00278985)
(0 0 0.00265364)
(0 0 0.00251744)
(0 0 0.00238126)
(0 0 0.00224509)
(0 0 0.00210894)
(0 0 0.0019728)
(0 0 0.00183668)
(0 0 0.00170056)
(0 0 0.00156446)
(0 0 0.00142838)
(0 0 0.0012923)
(0 0 0.00115624)
(0 0 0.00102019)
(0 0 0.000884142)
(0 0 0.000748106)
(0 0 0.000612077)
(0 0 0.000476054)
(0 0 0.000340035)
(0 0 0.00020402)
(0 0 6.80064e-05)
(0 0 0.00010184)
(0 0 0.000305519)
(0 0 0.000509199)
(0 0 0.000712881)
(0 0 0.000916564)
(0 0 0.00112025)
(0 0 0.00132394)
(0 0 0.00152763)
(0 0 0.00173132)
(0 0 0.00193501)
(0 0 0.0021387)
(0 0 0.00234239)
(0 0 0.00254607)
(0 0 0.00274975)
(0 0 0.00295341)
(0 0 0.00315707)
(0 0 0.0033607)
(0 0 0.00356432)
(0 0 0.0037679)
(0 0 0.00397145)
(0 0 0.00417496)
(0 0 0.00437842)
(0 0 0.00458181)
(0 0 0.00478514)
(0 0 0.00498839)
(0 0 0.00519155)
(0 0 0.00539461)
(0 0 0.00559754)
(0 0 0.00580035)
(0 0 0.006003)
(0 0 0.00620549)
(0 0 0.0064078)
(0 0 0.0066099)
(0 0 0.00681177)
(0 0 0.00701339)
(0 0 0.00721475)
(0 0 0.0074158)
(0 0 0.00761654)
(0 0 0.00781692)
(0 0 0.00801692)
(0 0 0.00821651)
(0 0 0.00841566)
(0 0 0.00861433)
(0 0 0.00881248)
(0 0 0.00901009)
(0 0 0.00920711)
(0 0 0.0094035)
(0 0 0.00959922)
(0 0 0.00979423)
(0 0 0.00998848)
(0 0 0.0101819)
(0 0 0.0103745)
(0 0 0.0105662)
(0 0 0.010757)
(0 0 0.0109467)
(0 0 0.0111354)
(0 0 0.011323)
(0 0 0.0115094)
(0 0 0.0116946)
(0 0 0.0118785)
(0 0 0.0120611)
(0 0 0.0122422)
(0 0 0.0124219)
(0 0 0.0126001)
(0 0 0.0127766)
(0 0 0.0129515)
(0 0 0.0131247)
(0 0 0.0132961)
(0 0 0.0134656)
(0 0 0.0136332)
(0 0 0.0137987)
(0 0 0.0139622)
(0 0 0.0141236)
(0 0 0.0142827)
(0 0 0.0144396)
(0 0 0.0145941)
(0 0 0.0147462)
(0 0 0.0148958)
(0 0 0.0150428)
(0 0 0.0151872)
(0 0 0.0153289)
(0 0 0.0154678)
(0 0 0.0156039)
(0 0 0.015737)
(0 0 0.0158672)
(0 0 0.0159943)
(0 0 0.0161184)
(0 0 0.0162392)
(0 0 0.0163569)
(0 0 0.0164712)
(0 0 0.0165822)
(0 0 0.0166898)
(0 0 0.0167939)
(0 0 0.0168946)
(0 0 0.0169916)
(0 0 0.0170851)
(0 0 0.0171749)
(0 0 0.017261)
(0 0 0.0173433)
(0 0 0.0174219)
(0 0 0.0174967)
(0 0 0.0175676)
(0 0 0.0176346)
(0 0 0.0176978)
(0 0 0.017757)
(0 0 0.0178122)
(0 0 0.0178635)
(0 0 0.0179107)
(0 0 0.017954)
(0 0 0.0179933)
(0 0 0.0180285)
(0 0 0.0180597)
(0 0 0.0180868)
(0 0 0.01811)
(0 0 0.0181291)
(0 0 0.0181442)
(0 0 0.0181553)
(0 0 0.0181623)
(0 0 0.0181654)
(0 0 0.0181646)
(0 0 0.0181598)
(0 0 0.0181511)
(0 0 0.0181384)
(0 0 0.0181219)
(0 0 0.0181016)
(0 0 0.0180775)
(0 0 0.0180496)
(0 0 0.018018)
(0 0 0.0179827)
(0 0 0.0179437)
(0 0 0.0179011)
(0 0 0.017855)
(0 0 0.0178053)
(0 0 0.0177522)
(0 0 0.0176957)
(0 0 0.0176358)
(0 0 0.0175726)
(0 0 0.0175061)
(0 0 0.0174365)
(0 0 0.0173636)
(0 0 0.0172877)
(0 0 0.0172088)
(0 0 0.0171269)
(0 0 0.017042)
(0 0 0.0169544)
(0 0 0.0168639)
(0 0 0.0167707)
(0 0 0.0166748)
(0 0 0.0165763)
(0 0 0.0164752)
(0 0 0.0163716)
(0 0 0.0162657)
(0 0 0.0161573)
(0 0 0.0160467)
(0 0 0.0159337)
(0 0 0.0158187)
(0 0 0.0157014)
(0 0 0.0155821)
(0 0 0.0154608)
(0 0 0.0153376)
(0 0 0.0152124)
(0 0 0.0150855)
(0 0 0.0149567)
(0 0 0.0148262)
(0 0 0.0146941)
(0 0 0.0145603)
(0 0 0.014425)
(0 0 0.0142881)
(0 0 0.0141499)
(0 0 0.0140102)
(0 0 0.0138691)
(0 0 0.0137268)
(0 0 0.0135831)
(0 0 0.0134383)
(0 0 0.0132923)
(0 0 0.0131452)
(0 0 0.012997)
(0 0 0.0128478)
(0 0 0.0126976)
(0 0 0.0125465)
(0 0 0.0123944)
(0 0 0.0122415)
(0 0 0.0120877)
(0 0 0.0119331)
(0 0 0.0117778)
(0 0 0.0116218)
(0 0 0.011465)
(0 0 0.0113077)
(0 0 0.0111496)
(0 0 0.010991)
(0 0 0.0108319)
(0 0 0.0106722)
(0 0 0.0105119)
(0 0 0.0103513)
(0 0 0.0101901)
(0 0 0.0100285)
(0 0 0.00986657)
(0 0 0.00970421)
(0 0 0.0095415)
(0 0 0.00937846)
(0 0 0.0092151)
(0 0 0.00905144)
(0 0 0.00888752)
(0 0 0.00872333)
(0 0 0.00855891)
(0 0 0.00839427)
(0 0 0.00822942)
(0 0 0.00806438)
(0 0 0.00789917)
(0 0 0.0077338)
(0 0 0.00756828)
(0 0 0.00740262)
(0 0 0.00723685)
(0 0 0.00707096)
(0 0 0.00690498)
(0 0 0.0067389)
(0 0 0.00657275)
(0 0 0.00640652)
(0 0 0.00624023)
(0 0 0.00607389)
(0 0 0.0059075)
(0 0 0.00574108)
(0 0 0.00557462)
(0 0 0.00540813)
(0 0 0.00524162)
(0 0 0.00507509)
(0 0 0.00490856)
(0 0 0.00474201)
(0 0 0.00457547)
(0 0 0.00440892)
(0 0 0.00424237)
(0 0 0.00407584)
(0 0 0.00390931)
(0 0 0.00374279)
(0 0 0.00357628)
(0 0 0.00340979)
(0 0 0.00324331)
(0 0 0.00307685)
(0 0 0.0029104)
(0 0 0.00274398)
(0 0 0.00257757)
(0 0 0.00241117)
(0 0 0.0022448)
(0 0 0.00207844)
(0 0 0.0019121)
(0 0 0.00174577)
(0 0 0.00157946)
(0 0 0.00141316)
(0 0 0.00124688)
(0 0 0.0010806)
(0 0 0.000914338)
(0 0 0.000748083)
(0 0 0.000581835)
(0 0 0.000415592)
(0 0 0.000249354)
(0 0 8.31176e-05)
(0 0 0.000120355)
(0 0 0.000361066)
(0 0 0.000601778)
(0 0 0.000842492)
(0 0 0.00108321)
(0 0 0.00132393)
(0 0 0.00156465)
(0 0 0.00180537)
(0 0 0.0020461)
(0 0 0.00228683)
(0 0 0.00252756)
(0 0 0.00276829)
(0 0 0.00300901)
(0 0 0.00324973)
(0 0 0.00349043)
(0 0 0.00373112)
(0 0 0.0039718)
(0 0 0.00421244)
(0 0 0.00445306)
(0 0 0.00469363)
(0 0 0.00493416)
(0 0 0.00517463)
(0 0 0.00541504)
(0 0 0.00565536)
(0 0 0.0058956)
(0 0 0.00613572)
(0 0 0.00637573)
(0 0 0.0066156)
(0 0 0.00685532)
(0 0 0.00709486)
(0 0 0.00733421)
(0 0 0.00757334)
(0 0 0.00781223)
(0 0 0.00805086)
(0 0 0.0082892)
(0 0 0.00852723)
(0 0 0.0087649)
(0 0 0.0090022)
(0 0 0.00923908)
(0 0 0.00947552)
(0 0 0.00971148)
(0 0 0.00994691)
(0 0 0.0101818)
(0 0 0.0104161)
(0 0 0.0106497)
(0 0 0.0108826)
(0 0 0.0111148)
(0 0 0.0113462)
(0 0 0.0115768)
(0 0 0.0118065)
(0 0 0.0120352)
(0 0 0.0122629)
(0 0 0.0124896)
(0 0 0.0127152)
(0 0 0.0129395)
(0 0 0.0131627)
(0 0 0.0133845)
(0 0 0.0136049)
(0 0 0.0138239)
(0 0 0.0140414)
(0 0 0.0142573)
(0 0 0.0144716)
(0 0 0.0146841)
(0 0 0.0148948)
(0 0 0.0151036)
(0 0 0.0153104)
(0 0 0.0155153)
(0 0 0.015718)
(0 0 0.0159184)
(0 0 0.0161167)
(0 0 0.0163125)
(0 0 0.0165059)
(0 0 0.0166968)
(0 0 0.016885)
(0 0 0.0170706)
(0 0 0.0172533)
(0 0 0.0174332)
(0 0 0.0176102)
(0 0 0.0177841)
(0 0 0.0179549)
(0 0 0.0181225)
(0 0 0.0182868)
(0 0 0.0184478)
(0 0 0.0186053)
(0 0 0.0187593)
(0 0 0.0189097)
(0 0 0.0190565)
(0 0 0.0191994)
(0 0 0.0193386)
(0 0 0.0194739)
(0 0 0.0196052)
(0 0 0.0197325)
(0 0 0.0198557)
(0 0 0.0199747)
(0 0 0.0200895)
(0 0 0.0202001)
(0 0 0.0203063)
(0 0 0.0204082)
(0 0 0.0205056)
(0 0 0.0205986)
(0 0 0.020687)
(0 0 0.0207709)
(0 0 0.0208502)
(0 0 0.0209248)
(0 0 0.0209948)
(0 0 0.0210602)
(0 0 0.0211208)
(0 0 0.0211767)
(0 0 0.0212279)
(0 0 0.0212743)
(0 0 0.0213159)
(0 0 0.0213528)
(0 0 0.0213849)
(0 0 0.0214122)
(0 0 0.0214348)
(0 0 0.0214526)
(0 0 0.0214657)
(0 0 0.021474)
(0 0 0.0214776)
(0 0 0.0214766)
(0 0 0.0214708)
(0 0 0.0214604)
(0 0 0.0214455)
(0 0 0.0214259)
(0 0 0.0214018)
(0 0 0.0213732)
(0 0 0.0213402)
(0 0 0.0213027)
(0 0 0.0212609)
(0 0 0.0212147)
(0 0 0.0211643)
(0 0 0.0211097)
(0 0 0.0210509)
(0 0 0.020988)
(0 0 0.020921)
(0 0 0.0208501)
(0 0 0.0207753)
(0 0 0.0206966)
(0 0 0.0206142)
(0 0 0.020528)
(0 0 0.0204381)
(0 0 0.0203447)
(0 0 0.0202477)
(0 0 0.0201473)
(0 0 0.0200436)
(0 0 0.0199365)
(0 0 0.0198262)
(0 0 0.0197127)
(0 0 0.0195962)
(0 0 0.0194766)
(0 0 0.0193541)
(0 0 0.0192287)
(0 0 0.0191005)
(0 0 0.0189695)
(0 0 0.018836)
(0 0 0.0186998)
(0 0 0.0185611)
(0 0 0.01842)
(0 0 0.0182765)
(0 0 0.0181307)
(0 0 0.0179827)
(0 0 0.0178325)
(0 0 0.0176802)
(0 0 0.0175258)
(0 0 0.0173695)
(0 0 0.0172113)
(0 0 0.0170513)
(0 0 0.0168894)
(0 0 0.0167259)
(0 0 0.0165607)
(0 0 0.0163939)
(0 0 0.0162255)
(0 0 0.0160557)
(0 0 0.0158844)
(0 0 0.0157118)
(0 0 0.0155378)
(0 0 0.0153626)
(0 0 0.0151861)
(0 0 0.0150085)
(0 0 0.0148298)
(0 0 0.01465)
(0 0 0.0144692)
(0 0 0.0142873)
(0 0 0.0141046)
(0 0 0.013921)
(0 0 0.0137365)
(0 0 0.0135512)
(0 0 0.0133651)
(0 0 0.0131783)
(0 0 0.0129907)
(0 0 0.0128026)
(0 0 0.0126138)
(0 0 0.0124244)
(0 0 0.0122344)
(0 0 0.0120439)
(0 0 0.0118529)
(0 0 0.0116614)
(0 0 0.0114695)
(0 0 0.0112771)
(0 0 0.0110844)
(0 0 0.0108913)
(0 0 0.0106978)
(0 0 0.010504)
(0 0 0.01031)
(0 0 0.0101156)
(0 0 0.00992099)