/*--------------------------------*- C++ -*----------------------------------*\
| =========                 |                                                 |
| \\      /  F ield         | OpenFOAM: The Open Source CFD Toolbox           |
|  \\    /   O peration     | Version:  v2012                                 |
|   \\  /    A nd           | Website:  www.openfoam.com                      |
|    \\/     M anipulation  |                                                 |
\*---------------------------------------------------------------------------*/
FoamFile
{
    version     2.0;
    format      ascii;
    class       volScalarField;
    location    "8.5";
    object      W;
}
// * * * * * * * * * * * * * * * * * * * * * * * * * * * * * * * * * * * * * //

dimensions      [0 0 -1 0 0 0 0];


internalField   nonuniform List<scalar> 
65536
(
2.38051e-19
7.21756e-19
1.22855e-18
1.77467e-18
2.37755e-18
3.05623e-18
3.83196e-18
4.7287e-18
5.77383e-18
6.99876e-18
8.43982e-18
1.01391e-17
1.21454e-17
1.45154e-17
1.73153e-17
2.06218e-17
2.4524e-17
2.91255e-17
3.45466e-17
4.09264e-17
4.84264e-17
5.72328e-17
6.75611e-17
7.96594e-17
9.38135e-17
1.10352e-16
1.29652e-16
1.52147e-16
1.78329e-16
2.08766e-16
2.44102e-16
2.8507e-16
3.32506e-16
3.87357e-16
4.50697e-16
5.23741e-16
6.07859e-16
7.04598e-16
8.15696e-16
9.43108e-16
1.08902e-15
1.2559e-15
1.44646e-15
1.66377e-15
1.91123e-15
2.1926e-15
2.51206e-15
2.87425e-15
3.28426e-15
3.74773e-15
4.27082e-15
4.86034e-15
5.5237e-15
6.269e-15
7.10509e-15
8.04156e-15
9.08884e-15
1.02582e-14
1.15618e-14
1.30127e-14
1.4625e-14
1.64138e-14
1.83951e-14
2.05861e-14
2.30049e-14
2.56708e-14
2.86041e-14
3.18262e-14
3.53595e-14
3.92273e-14
4.3454e-14
4.80649e-14
5.30859e-14
5.85438e-14
6.44661e-14
7.08804e-14
7.78149e-14
8.5298e-14
9.33579e-14
1.02023e-13
1.1132e-13
1.21276e-13
1.31916e-13
1.43267e-13
1.55349e-13
1.68184e-13
1.8179e-13
1.96183e-13
2.11376e-13
2.27378e-13
2.44194e-13
2.61825e-13
2.80268e-13
2.99515e-13
3.1955e-13
3.40354e-13
3.61901e-13
3.84159e-13
4.07087e-13
4.3064e-13
4.54764e-13
4.79399e-13
5.04475e-13
5.29916e-13
5.5564e-13
5.81556e-13
6.07567e-13
6.33566e-13
6.59445e-13
6.85085e-13
7.10365e-13
7.35158e-13
7.59333e-13
7.82755e-13
8.0529e-13
8.26801e-13
8.47149e-13
8.66201e-13
8.83822e-13
8.99885e-13
9.14264e-13
9.26843e-13
9.37513e-13
9.46173e-13
9.52735e-13
9.57122e-13
9.59269e-13
9.59127e-13
9.56661e-13
9.51854e-13
9.44704e-13
9.35228e-13
9.23459e-13
9.0945e-13
8.93269e-13
8.75005e-13
8.54761e-13
8.32657e-13
8.08831e-13
7.8343e-13
7.56618e-13
7.28568e-13
6.99462e-13
6.69492e-13
6.38851e-13
6.0774e-13
5.76357e-13
5.44903e-13
5.13573e-13
4.82559e-13
4.52045e-13
4.22206e-13
3.93207e-13
3.65201e-13
3.38329e-13
3.12715e-13
2.8847e-13
2.6569e-13
2.44454e-13
2.24823e-13
2.06844e-13
1.90549e-13
1.7595e-13
1.63048e-13
1.51827e-13
1.42258e-13
1.34297e-13
1.2789e-13
1.22969e-13
1.19456e-13
1.17263e-13
1.16292e-13
1.16437e-13
1.17584e-13
1.19613e-13
1.22398e-13
1.25808e-13
1.2971e-13
1.33967e-13
1.38443e-13
1.43002e-13
1.47511e-13
1.51841e-13
1.55869e-13
1.59481e-13
1.6257e-13
1.65044e-13
1.66822e-13
1.67837e-13
1.68039e-13
1.67396e-13
1.65889e-13
1.63521e-13
1.60309e-13
1.56287e-13
1.51504e-13
1.46025e-13
1.39925e-13
1.33288e-13
1.26208e-13
1.18782e-13
1.11109e-13
1.03291e-13
9.54245e-14
8.76021e-14
7.99101e-14
7.24264e-14
6.52193e-14
5.83468e-14
5.18555e-14
4.57814e-14
4.01492e-14
3.49734e-14
3.02587e-14
2.60013e-14
2.21897e-14
1.88062e-14
1.58279e-14
1.32282e-14
1.09778e-14
9.04592e-15
7.40102e-15
6.01197e-15
4.84856e-15
3.88207e-15
3.0857e-15
2.43483e-15
1.9072e-15
1.48293e-15
1.14453e-15
8.76807e-16
6.66714e-16
5.03178e-16
3.7691e-16
2.80206e-16
2.06743e-16
1.51386e-16
1.1001e-16
7.93342e-17
5.67758e-17
4.0321e-17
2.84155e-17
1.98714e-17
1.37893e-17
9.49481e-18
6.4871e-18
4.39761e-18
2.95764e-18
1.97307e-18
1.30492e-18
8.54458e-19
5.5205e-19
3.48777e-19
2.10202e-19
1.11704e-19
3.49411e-20
8.15451e-19
2.47236e-18
4.20826e-18
6.07875e-18
8.14339e-18
1.04674e-17
1.31233e-17
1.61932e-17
1.97706e-17
2.39629e-17
2.88943e-17
3.47084e-17
4.15721e-17
4.96795e-17
5.92558e-17
7.05631e-17
8.39059e-17
9.96378e-17
1.18169e-16
1.39974e-16
1.65604e-16
1.95694e-16
2.30978e-16
2.72302e-16
3.2064e-16
3.77112e-16
4.43001e-16
5.19779e-16
6.0913e-16
7.12977e-16
8.33513e-16
9.73232e-16
1.13497e-15
1.32195e-15
1.53782e-15
1.78669e-15
2.07322e-15
2.40264e-15
2.78086e-15
3.2145e-15
3.71095e-15
4.27852e-15
4.92647e-15
5.6651e-15
6.5059e-15
7.46157e-15
8.54623e-15
9.77546e-15
1.11664e-14
1.27381e-14
1.45112e-14
1.65085e-14
1.8755e-14
2.12777e-14
2.41063e-14
2.7273e-14
3.08124e-14
3.47622e-14
3.91629e-14
4.40582e-14
4.94947e-14
5.55225e-14
6.21948e-14
6.95683e-14
7.77031e-14
8.66627e-14
9.6514e-14
1.07327e-13
1.19176e-13
1.32136e-13
1.46288e-13
1.61713e-13
1.78497e-13
1.96725e-13
2.16487e-13
2.37872e-13
2.6097e-13
2.85872e-13
3.12667e-13
3.41445e-13
3.72292e-13
4.05293e-13
4.40526e-13
4.78068e-13
5.17988e-13
5.60348e-13
6.05202e-13
6.52597e-13
7.02566e-13
7.55133e-13
8.10307e-13
8.68085e-13
9.28446e-13
9.91353e-13
1.05675e-12
1.12457e-12
1.19471e-12
1.26707e-12
1.34149e-12
1.41783e-12
1.49591e-12
1.57551e-12
1.6564e-12
1.73835e-12
1.82106e-12
1.90424e-12
1.98756e-12
2.0707e-12
2.15328e-12
2.23493e-12
2.31525e-12
2.39383e-12
2.47026e-12
2.5441e-12
2.61493e-12
2.6823e-12
2.74579e-12
2.80498e-12
2.85943e-12
2.90876e-12
2.95257e-12
2.99051e-12
3.02224e-12
3.04745e-12
3.06589e-12
3.07731e-12
3.08154e-12
3.07844e-12
3.06791e-12
3.04992e-12
3.02448e-12
2.99167e-12
2.9516e-12
2.90447e-12
2.85051e-12
2.79002e-12
2.72334e-12
2.65087e-12
2.57305e-12
2.49036e-12
2.40335e-12
2.31255e-12
2.21856e-12
2.12198e-12
2.02344e-12
1.92356e-12
1.82299e-12
1.72233e-12
1.62223e-12
1.52326e-12
1.42601e-12
1.33103e-12
1.23882e-12
1.14987e-12
1.0646e-12
9.83395e-13
9.066e-13
8.345e-13
7.67332e-13
7.05285e-13
6.48491e-13
5.97038e-13
5.50959e-13
5.10244e-13
4.74835e-13
4.44631e-13
4.1949e-13
3.99231e-13
3.83637e-13
3.72458e-13
3.65411e-13
3.62187e-13
3.62451e-13
3.65842e-13
3.71984e-13
3.80481e-13
3.90923e-13
4.02894e-13
4.15967e-13
4.29719e-13
4.43727e-13
4.57577e-13
4.70869e-13
4.83222e-13
4.94282e-13
5.03723e-13
5.11255e-13
5.16631e-13
5.19648e-13
5.20151e-13
5.18037e-13
5.13259e-13
5.05819e-13
4.95774e-13
4.83233e-13
4.6835e-13
4.51321e-13
4.32381e-13
4.11794e-13
3.89846e-13
3.6684e-13
3.43084e-13
3.18887e-13
2.9455e-13
2.70359e-13
2.4658e-13
2.23452e-13
2.01186e-13
1.79959e-13
1.59915e-13
1.41163e-13
1.23779e-13
1.07808e-13
9.32626e-14
8.01304e-14
6.83755e-14
5.79426e-14
4.87608e-14
4.07474e-14
3.38119e-14
2.78586e-14
2.27905e-14
1.85113e-14
1.49277e-14
1.1951e-14
9.49855e-15
7.4944e-15
5.86987e-15
4.56371e-15
3.52203e-15
2.69799e-15
2.05138e-15
1.54811e-15
1.15955e-15
8.61996e-16
6.35966e-16
4.65657e-16
3.38369e-16
2.44006e-16
1.74616e-16
1.24004e-16
8.73863e-17
6.11084e-17
4.24034e-17
2.91966e-17
1.99474e-17
1.3522e-17
9.09411e-18
6.06668e-18
4.01223e-18
2.62716e-18
1.69734e-18
1.07235e-18
6.46285e-19
3.43445e-19
1.07432e-19
1.73563e-18
5.26212e-18
8.95643e-18
1.29366e-17
1.73291e-17
2.22724e-17
2.79206e-17
3.44476e-17
4.20519e-17
5.09614e-17
6.14391e-17
7.37897e-17
8.83668e-17
1.05581e-16
1.2591e-16
1.49908e-16
1.7822e-16
2.11592e-16
2.50894e-16
2.97128e-16
3.51458e-16
4.15225e-16
4.89979e-16
5.77506e-16
6.79859e-16
7.99398e-16
9.38829e-16
1.10125e-15
1.29021e-15
1.50974e-15
1.76447e-15
2.05962e-15
2.40117e-15
2.79585e-15
3.25131e-15
3.77619e-15
4.38021e-15
5.07434e-15
5.8709e-15
6.7837e-15
7.8282e-15
9.02167e-15
1.03834e-14
1.19348e-14
1.36996e-14
1.57044e-14
1.79783e-14
2.05535e-14
2.34655e-14
2.67533e-14
3.04598e-14
3.46317e-14
3.93203e-14
4.45811e-14
5.04747e-14
5.70666e-14
6.44277e-14
7.26346e-14
8.17695e-14
9.19206e-14
1.03182e-13
1.15655e-13
1.29447e-13
1.4467e-13
1.61445e-13
1.79899e-13
2.00164e-13
2.22379e-13
2.46689e-13
2.73245e-13
3.02202e-13
3.33719e-13
3.67961e-13
4.05096e-13
4.45292e-13
4.88721e-13
5.35553e-13
5.85959e-13
6.40107e-13
6.9816e-13
7.60277e-13
8.26609e-13
8.97298e-13
9.72477e-13
1.05226e-12
1.13676e-12
1.22605e-12
1.3202e-12
1.41926e-12
1.52324e-12
1.63214e-12
1.74593e-12
1.86452e-12
1.98783e-12
2.11572e-12
2.24802e-12
2.3845e-12
2.52492e-12
2.66899e-12
2.81636e-12
2.96665e-12
3.11944e-12
3.27427e-12
3.43061e-12
3.58792e-12
3.7456e-12
3.90302e-12
4.05951e-12
4.21436e-12
4.36685e-12
4.51622e-12
4.66169e-12
4.80247e-12
4.93775e-12
5.06673e-12
5.1886e-12
5.30256e-12
5.40785e-12
5.5037e-12
5.5894e-12
5.66426e-12
5.72765e-12
5.77899e-12
5.81777e-12
5.84354e-12
5.85593e-12
5.85467e-12
5.83955e-12
5.81047e-12
5.76743e-12
5.71053e-12
5.63996e-12
5.55602e-12
5.45912e-12
5.34977e-12
5.22857e-12
5.09621e-12
4.95349e-12
4.80126e-12
4.64048e-12
4.47214e-12
4.29731e-12
4.11709e-12
3.93263e-12
3.74507e-12
3.5556e-12
3.36537e-12
3.17555e-12
2.98724e-12
2.80154e-12
2.6195e-12
2.44208e-12
2.2702e-12
2.10471e-12
1.94635e-12
1.79581e-12
1.65366e-12
1.52041e-12
1.39643e-12
1.28204e-12
1.17745e-12
1.08278e-12
9.98055e-13
9.23222e-13
8.58146e-13
8.02615e-13
7.56343e-13
7.18976e-13
6.90099e-13
6.69238e-13
6.55864e-13
6.49403e-13
6.49233e-13
6.54698e-13
6.65106e-13
6.79739e-13
6.97857e-13
7.18704e-13
7.41519e-13
7.65536e-13
7.90003e-13
8.1418e-13
8.37357e-13
8.58857e-13
8.7805e-13
8.94363e-13
9.07286e-13
9.16384e-13
9.213e-13
9.21769e-13
9.17613e-13
9.08751e-13
8.95195e-13
8.77053e-13
8.54519e-13
8.2787e-13
7.9746e-13
7.63704e-13
7.27071e-13
6.8807e-13
6.47235e-13
6.05112e-13
5.62245e-13
5.19165e-13
4.76374e-13
4.34339e-13
3.93481e-13
3.54167e-13
3.16707e-13
2.81352e-13
2.48293e-13
2.17659e-13
1.89525e-13
1.63913e-13
1.40798e-13
1.20115e-13
1.01764e-13
8.56193e-14
7.15332e-14
5.93453e-14
4.88865e-14
3.99852e-14
3.24714e-14
2.61805e-14
2.09562e-14
1.6653e-14
1.31372e-14
1.02879e-14
7.99744e-15
6.17112e-15
4.72663e-15
3.59337e-15
2.71145e-15
2.03068e-15
1.50941e-15
1.1135e-15
8.15224e-16
5.92327e-16
4.27102e-16
3.05619e-16
2.17018e-16
1.52923e-16
1.06931e-16
7.41951e-17
5.10838e-17
3.48991e-17
2.36565e-17
1.59093e-17
1.06127e-17
7.01858e-18
4.59557e-18
2.96903e-18
1.87575e-18
1.13047e-18
6.00748e-19
1.8792e-19
3.36982e-18
1.02164e-17
1.73881e-17
2.51134e-17
3.36373e-17
4.32276e-17
5.41826e-17
6.68389e-17
8.15802e-17
9.8847e-17
1.19148e-16
1.43071e-16
1.713e-16
2.04626e-16
2.43972e-16
2.90407e-16
3.45174e-16
4.09713e-16
4.85695e-16
5.75055e-16
6.80028e-16
8.03198e-16
9.47544e-16
1.1165e-15
1.314e-15
1.54458e-15
1.81343e-15
2.1265e-15
2.49056e-15
2.91336e-15
3.40373e-15
3.97167e-15
4.62856e-15
5.38729e-15
6.26242e-15
7.2704e-15
8.42974e-15
9.76129e-15
1.12884e-14
1.30373e-14
1.50373e-14
1.7321e-14
1.99249e-14
2.28894e-14
2.62593e-14
3.00844e-14
3.44194e-14
3.93248e-14
4.48671e-14
5.11192e-14
5.81609e-14
6.60793e-14
7.49695e-14
8.49346e-14
9.60864e-14
1.08546e-13
1.22444e-13
1.37921e-13
1.55126e-13
1.74222e-13
1.9538e-13
2.18782e-13
2.44623e-13
2.73106e-13
3.04447e-13
3.38873e-13
3.76619e-13
4.17931e-13
4.63065e-13
5.12285e-13
5.65862e-13
6.24074e-13
6.87202e-13
7.55534e-13
8.29357e-13
9.08958e-13
9.94624e-13
1.08663e-12
1.18526e-12
1.29078e-12
1.40342e-12
1.52343e-12
1.65103e-12
1.7864e-12
1.92971e-12
2.0811e-12
2.24066e-12
2.40847e-12
2.58454e-12
2.76886e-12
2.96134e-12
3.16187e-12
3.37026e-12
3.58627e-12
3.8096e-12
4.03988e-12
4.27667e-12
4.51947e-12
4.76769e-12
5.02071e-12
5.27778e-12
5.53813e-12
5.8009e-12
6.06515e-12
6.32989e-12
6.59407e-12
6.85657e-12
7.11622e-12
7.37182e-12
7.62212e-12
7.86582e-12
8.10162e-12
8.32821e-12
8.54424e-12
8.74841e-12
8.93941e-12
9.11596e-12
9.27684e-12
9.42087e-12
9.54693e-12
9.65399e-12
9.7411e-12
9.80743e-12
9.85224e-12
9.87493e-12
9.87503e-12
9.85222e-12
9.80632e-12
9.7373e-12
9.64532e-12
9.53068e-12
9.39385e-12
9.23547e-12
9.05635e-12
8.85744e-12
8.63985e-12
8.40484e-12
8.1538e-12
7.88824e-12
7.60977e-12
7.32011e-12
7.02103e-12
6.71438e-12
6.40204e-12
6.08591e-12
5.76788e-12
5.44985e-12
5.13364e-12
4.82105e-12
4.5138e-12
4.21351e-12
3.9217e-12
3.63977e-12
3.36902e-12
3.11057e-12
2.86543e-12
2.63446e-12
2.41836e-12
2.21768e-12
2.03281e-12
1.86403e-12
1.71143e-12
1.57499e-12
1.45455e-12
1.34982e-12
1.26042e-12
1.18581e-12
1.1254e-12
1.07848e-12
1.04424e-12
1.02182e-12
1.01029e-12
1.00863e-12
1.0158e-12
1.03069e-12
1.05216e-12
1.07904e-12
1.11015e-12
1.14429e-12
1.18029e-12
1.21696e-12
1.25317e-12
1.28782e-12
1.31988e-12
1.34838e-12
1.37245e-12
1.39131e-12
1.40431e-12
1.41091e-12
1.41072e-12
1.40348e-12
1.38907e-12
1.36753e-12
1.33903e-12
1.30388e-12
1.26251e-12
1.21547e-12
1.16339e-12
1.10701e-12
1.04709e-12
9.8446e-13
9.19941e-13
8.54365e-13
7.88536e-13
7.23215e-13
6.59108e-13
5.96848e-13
5.36989e-13
4.79996e-13
4.26243e-13
3.76013e-13
3.29497e-13
2.86802e-13
2.47956e-13
2.12916e-13
1.81578e-13
1.53787e-13
1.29347e-13
1.08034e-13
8.96006e-14
7.37886e-14
6.03364e-14
4.89852e-14
3.94847e-14
3.15978e-14
2.51034e-14
1.97989e-14
1.55014e-14
1.20477e-14
9.29454e-15
7.11756e-15
5.41004e-15
4.08154e-15
3.05625e-15
2.27136e-15
1.67534e-15
1.22639e-15
8.90952e-16
6.42348e-16
4.59586e-16
3.26314e-16
2.29915e-16
1.60752e-16
1.1153e-16
7.67828e-17
5.24523e-17
3.55527e-17
2.39083e-17
1.59479e-17
1.05465e-17
6.9053e-18
4.46113e-18
2.81836e-18
1.69854e-18
9.02623e-19
2.82351e-19
6.35331e-18
1.92612e-17
3.27803e-17
4.73404e-17
6.34021e-17
8.14689e-17
1.02101e-16
1.25931e-16
1.53679e-16
1.86173e-16
2.24365e-16
2.6936e-16
3.22438e-16
3.85085e-16
4.59027e-16
5.46268e-16
6.49132e-16
7.70315e-16
9.12944e-16
1.08063e-15
1.27756e-15
1.50855e-15
1.77916e-15
2.09579e-15
2.46579e-15
2.8976e-15
3.40089e-15
3.98671e-15
4.66768e-15
5.45818e-15
6.37457e-15
7.43545e-15
8.6619e-15
1.00777e-14
1.171e-14
1.35889e-14
1.57488e-14
1.8228e-14
2.10697e-14
2.43219e-14
2.80385e-14
3.22795e-14
3.71115e-14
4.26086e-14
4.88526e-14
5.59342e-14
6.39532e-14
7.30194e-14
8.32533e-14
9.4787e-14
1.07765e-13
1.22343e-13
1.38694e-13
1.57001e-13
1.77466e-13
2.00304e-13
2.25747e-13
2.54045e-13
2.85464e-13
3.20288e-13
3.58819e-13
4.01376e-13
4.48298e-13
4.99939e-13
5.56673e-13
6.18889e-13
6.86992e-13
7.61401e-13
8.42549e-13
9.30882e-13
1.02685e-12
1.13092e-12
1.24356e-12
1.36523e-12
1.4964e-12
1.63753e-12
1.78907e-12
1.95147e-12
2.12513e-12
2.31047e-12
2.50785e-12
2.71761e-12
2.94003e-12
3.17538e-12
3.42385e-12
3.68559e-12
3.96067e-12
4.2491e-12
4.55082e-12
4.86568e-12
5.19344e-12
5.53378e-12
5.88627e-12
6.25038e-12
6.62549e-12
7.01085e-12
7.40562e-12
7.80882e-12
8.21938e-12
8.63612e-12
9.05772e-12
9.48279e-12
9.90979e-12
1.03371e-11
1.07631e-11
1.11859e-11
1.16036e-11
1.20143e-11
1.2416e-11
1.28067e-11
1.31842e-11
1.35466e-11
1.38916e-11
1.42173e-11
1.45215e-11
1.48023e-11
1.50577e-11
1.5286e-11
1.54854e-11
1.56543e-11
1.57913e-11
1.5895e-11
1.59644e-11
1.59985e-11
1.59967e-11
1.59584e-11
1.58834e-11
1.57718e-11
1.56236e-11
1.54396e-11
1.52203e-11
1.49669e-11
1.46805e-11
1.43628e-11
1.40153e-11
1.36401e-11
1.32394e-11
1.28154e-11
1.23707e-11
1.1908e-11
1.14299e-11
1.09395e-11
1.04396e-11
9.93306e-12
9.42297e-12
8.91223e-12
8.40371e-12
7.90021e-12
7.40441e-12
6.91886e-12
6.44597e-12
5.98795e-12
5.54683e-12
5.12445e-12
4.72239e-12
4.34205e-12
3.98457e-12
3.65087e-12
3.34163e-12
3.05732e-12
2.79816e-12
2.5642e-12
2.35524e-12
2.17091e-12
2.01067e-12
1.87379e-12
1.7594e-12
1.66648e-12
1.59389e-12
1.54036e-12
1.50452e-12
1.48491e-12
1.47999e-12
1.48814e-12
1.5077e-12
1.53694e-12
1.57414e-12
1.61753e-12
1.66534e-12
1.71583e-12
1.76728e-12
1.81804e-12
1.86651e-12
1.91119e-12
1.95071e-12
1.98379e-12
2.00935e-12
2.02645e-12
2.03434e-12
2.03247e-12
2.02048e-12
1.99824e-12
1.96581e-12
1.92346e-12
1.87165e-12
1.81103e-12
1.74238e-12
1.66663e-12
1.58484e-12
1.49812e-12
1.40765e-12
1.3146e-12
1.22018e-12
1.12552e-12
1.03171e-12
9.39744e-13
8.50523e-13
7.64826e-13
6.83306e-13
6.06487e-13
5.3476e-13
4.68387e-13
4.07511e-13
3.5216e-13
3.02265e-13
2.57668e-13
2.18143e-13
1.83405e-13
1.53126e-13
1.26952e-13
1.04511e-13
8.54288e-14
6.93339e-14
5.5869e-14
4.46956e-14
3.54986e-14
2.79896e-14
2.19081e-14
1.70225e-14
1.31292e-14
1.00516e-14
7.63847e-15
5.76148e-15
4.31329e-15
3.20493e-15
2.36349e-15
1.72983e-15
1.25648e-15
9.05738e-16
6.4794e-16
4.59985e-16
3.24056e-16
2.26546e-16
1.57161e-16
1.08187e-16
7.38988e-17
5.00854e-17
3.36788e-17
2.24639e-17
1.48547e-17
9.72571e-18
6.28303e-18
3.96926e-18
2.39211e-18
1.27118e-18
3.9764e-19
1.1806e-17
3.5791e-17
6.09091e-17
8.79569e-17
1.17788e-16
1.51334e-16
1.89635e-16
2.33861e-16
2.85344e-16
3.45616e-16
4.1644e-16
4.99858e-16
5.98236e-16
7.1432e-16
8.51296e-16
1.01286e-15
1.20331e-15
1.42762e-15
1.69155e-15
2.00175e-15
2.36593e-15
2.79297e-15
3.2931e-15
3.87808e-15
4.56144e-15
5.35867e-15
6.2875e-15
7.36822e-15
8.62397e-15
1.00811e-14
1.17695e-14
1.37232e-14
1.59808e-14
1.85857e-14
2.15872e-14
2.50405e-14
2.90079e-14
3.35592e-14
3.87726e-14
4.47356e-14
5.15455e-14
5.93108e-14
6.8152e-14
7.82025e-14
8.961e-14
1.02537e-13
1.17163e-13
1.33685e-13
1.52317e-13
1.73297e-13
1.96879e-13
2.23345e-13
2.52995e-13
2.86158e-13
3.23187e-13
3.64461e-13
4.10388e-13
4.61404e-13
5.17972e-13
5.80585e-13
6.49767e-13
7.26068e-13
8.10069e-13
9.02376e-13
1.00362e-12
1.11447e-12
1.2356e-12
1.36772e-12
1.51154e-12
1.66779e-12
1.83724e-12
2.02062e-12
2.21869e-12
2.43219e-12
2.66187e-12
2.90844e-12
3.17259e-12
3.455e-12
3.75627e-12
4.07699e-12
4.41767e-12
4.77875e-12
5.16061e-12
5.56354e-12
5.98771e-12
6.43321e-12
6.90002e-12
7.38796e-12
7.89676e-12
8.42596e-12
8.975e-12
9.54312e-12
1.01294e-11
1.07328e-11
1.13521e-11
1.19858e-11
1.26323e-11
1.32898e-11
1.39565e-11
1.46301e-11
1.53084e-11
1.59889e-11
1.6669e-11
1.73459e-11
1.80169e-11
1.86788e-11
1.93286e-11
1.99632e-11
2.05793e-11
2.11736e-11
2.17429e-11
2.2284e-11
2.27935e-11
2.32685e-11
2.37057e-11
2.41022e-11
2.44553e-11
2.47624e-11
2.5021e-11
2.52289e-11
2.53842e-11
2.54854e-11
2.5531e-11
2.55202e-11
2.54521e-11
2.53265e-11
2.51435e-11
2.49036e-11
2.46076e-11
2.42567e-11
2.38525e-11
2.33971e-11
2.28928e-11
2.23423e-11
2.17487e-11
2.11152e-11
2.04456e-11
1.97436e-11
1.90134e-11
1.82592e-11
1.74854e-11
1.66965e-11
1.5897e-11
1.50915e-11
1.42843e-11
1.348e-11
1.26829e-11
1.18969e-11
1.11262e-11
1.03743e-11
9.64463e-12
8.94042e-12
8.26445e-12
7.61921e-12
7.00687e-12
6.42923e-12
5.88775e-12
5.38353e-12
4.91734e-12
4.48961e-12
4.10045e-12
3.74965e-12
3.43672e-12
3.16091e-12
2.92119e-12
2.71633e-12
2.54485e-12
2.40513e-12
2.29533e-12
2.21349e-12
2.1575e-12
2.12513e-12
2.11406e-12
2.12189e-12
2.14615e-12
2.18433e-12
2.23388e-12
2.29226e-12
2.35692e-12
2.42536e-12
2.49513e-12
2.5639e-12
2.6294e-12
2.68953e-12
2.74236e-12
2.78613e-12
2.81934e-12
2.84069e-12
2.84916e-12
2.84401e-12
2.82479e-12
2.79133e-12
2.74375e-12
2.68247e-12
2.60814e-12
2.5217e-12
2.42426e-12
2.31715e-12
2.20183e-12
2.07987e-12
1.9529e-12
1.82257e-12
1.69054e-12
1.55837e-12
1.42758e-12
1.29952e-12
1.17543e-12
1.05637e-12
9.43231e-13
8.3672e-13
7.3736e-13
6.45498e-13
5.61311e-13
4.84825e-13
4.15929e-13
3.54394e-13
2.99893e-13
2.52023e-13
2.10325e-13
1.743e-13
1.43431e-13
1.17196e-13
9.508e-14
7.65869e-14
6.12483e-14
4.86287e-14
3.83296e-14
2.9992e-14
2.32966e-14
1.79631e-14
1.37486e-14
1.04451e-14
7.87646e-15
5.89523e-15
4.37937e-15
3.22888e-15
2.36272e-15
1.71585e-15
1.23666e-15
8.84519e-16
6.27838e-16
4.42242e-16
3.09127e-16
2.14423e-16
1.47588e-16
1.00802e-16
6.83128e-17
4.59318e-17
3.06344e-17
2.02565e-17
1.32617e-17
8.567e-18
5.41198e-18
3.26151e-18
1.73317e-18
5.42152e-19
2.17063e-17
6.5803e-17
1.11978e-16
1.61693e-16
2.16512e-16
2.78146e-16
3.48498e-16
4.29713e-16
5.24234e-16
6.34862e-16
7.64829e-16
9.17868e-16
1.09831e-15
1.31118e-15
1.56229e-15
1.85842e-15
2.20739e-15
2.61829e-15
3.10164e-15
3.66959e-15
4.33617e-15
5.11758e-15
6.03245e-15
7.10221e-15
8.35144e-15
9.80835e-15
1.15052e-14
1.34787e-14
1.5771e-14
1.84298e-14
2.15094e-14
2.50714e-14
2.91854e-14
3.39301e-14
3.93944e-14
4.56781e-14
5.28933e-14
6.11659e-14
7.06364e-14
8.14617e-14
9.38168e-14
1.07896e-13
1.23915e-13
1.42111e-13
1.62749e-13
1.86118e-13
2.12537e-13
2.42354e-13
2.75951e-13
3.13746e-13
3.5619e-13
4.03774e-13
4.57031e-13
5.16534e-13
5.82899e-13
6.56788e-13
7.38908e-13
8.30014e-13
9.30906e-13
1.04243e-12
1.16549e-12
1.30102e-12
1.45e-12
1.61346e-12
1.79248e-12
1.98815e-12
2.20161e-12
2.43403e-12
2.68658e-12
2.96047e-12
3.2569e-12
3.57708e-12
3.9222e-12
4.29344e-12
4.69194e-12
5.11879e-12
5.57503e-12
6.06165e-12
6.57952e-12
7.12943e-12
7.71206e-12
8.32794e-12
8.97749e-12
9.66094e-12
1.03783e-11
1.11296e-11
1.19143e-11
1.2732e-11
1.35819e-11
1.44629e-11
1.53737e-11
1.63128e-11
1.72784e-11
1.82684e-11
1.92805e-11
2.03118e-11
2.13596e-11
2.24206e-11
2.34914e-11
2.45682e-11
2.5647e-11
2.67237e-11
2.77939e-11
2.88529e-11
2.9896e-11
3.09184e-11
3.19149e-11
3.28807e-11
3.38105e-11
3.46993e-11
3.5542e-11
3.63337e-11
3.70694e-11
3.77446e-11
3.83547e-11
3.88954e-11
3.9363e-11
3.97537e-11
4.00644e-11
4.02921e-11
4.04347e-11
4.04901e-11
4.0457e-11
4.03345e-11
4.01224e-11
3.98209e-11
3.9431e-11
3.8954e-11
3.8392e-11
3.77475e-11
3.70239e-11
3.62247e-11
3.53543e-11
3.44173e-11
3.3419e-11
3.23649e-11
3.12611e-11
3.01137e-11
2.89292e-11
2.77145e-11
2.64763e-11
2.52214e-11
2.3957e-11
2.26896e-11
2.14262e-11
2.01731e-11
1.89367e-11
1.77229e-11
1.65374e-11
1.53854e-11
1.42716e-11
1.32005e-11
1.21757e-11
1.12006e-11
1.02781e-11
9.41039e-12
8.59917e-12
7.8457e-12
7.15069e-12
6.51438e-12
5.93654e-12
5.4165e-12
4.95321e-12
4.54521e-12
4.19072e-12
3.88764e-12
3.63359e-12
3.42595e-12
3.26187e-12
3.13831e-12
3.05206e-12
2.9998e-12
2.97807e-12
2.98332e-12
3.01195e-12
3.06031e-12
3.12474e-12
3.2016e-12
3.28727e-12
3.37822e-12
3.47101e-12
3.56235e-12
3.64912e-12
3.72839e-12
3.79751e-12
3.85408e-12
3.89603e-12
3.92162e-12
3.92949e-12
3.91867e-12
3.88857e-12
3.83901e-12
3.77022e-12
3.68279e-12
3.5777e-12
3.45622e-12
3.31996e-12
3.17073e-12
3.01057e-12
2.84162e-12
2.66614e-12
2.48639e-12
2.3046e-12
2.12294e-12
1.94342e-12
1.7679e-12
1.59803e-12
1.43525e-12
1.28073e-12
1.13542e-12
9.99994e-13
8.74905e-13
7.6037e-13
6.564e-13
5.62822e-13
4.79306e-13
4.05391e-13
3.40515e-13
2.8404e-13
2.35281e-13
1.93527e-13
1.5806e-13
1.28179e-13
1.03207e-13
8.2505e-14
6.54811e-14
5.15943e-14
4.03574e-14
3.13376e-14
2.41555e-14
1.84826e-14
1.40375e-14
1.05825e-14
7.91847e-15
5.88089e-15
4.33491e-15
3.17133e-15
2.3026e-15
1.65921e-15
1.18653e-15
8.42058e-16
5.93041e-16
4.14474e-16
2.87456e-16
1.97832e-16
1.35103e-16
9.15492e-17
6.15497e-17
4.10477e-17
2.71402e-17
1.77674e-17
1.14772e-17
7.25018e-18
4.36919e-18
2.32175e-18
7.26265e-19
3.95264e-17
1.19822e-16
2.03895e-16
2.94399e-16
3.94178e-16
5.0634e-16
6.34338e-16
7.82068e-16
9.53963e-16
1.15511e-15
1.39136e-15
1.66949e-15
1.99735e-15
2.38405e-15
2.84012e-15
3.37781e-15
4.01132e-15
4.75708e-15
5.63411e-15
6.66438e-15
7.87327e-15
9.29001e-15
1.09483e-14
1.28867e-14
1.51496e-14
1.77879e-14
2.08597e-14
2.44312e-14
2.8578e-14
3.3386e-14
3.89528e-14
4.5389e-14
5.28194e-14
6.13853e-14
7.12455e-14
8.25788e-14
9.55856e-14
1.10491e-13
1.27544e-13
1.47027e-13
1.69248e-13
1.94555e-13
2.23329e-13
2.55993e-13
2.93012e-13
3.34899e-13
3.82214e-13
4.35574e-13
4.95648e-13
5.63167e-13
6.38922e-13
7.23772e-13
8.18642e-13
9.24528e-13
1.0425e-12
1.1737e-12
1.31935e-12
1.48074e-12
1.65925e-12
1.85631e-12
2.07346e-12
2.31229e-12
2.57445e-12
2.86166e-12
3.17572e-12
3.51845e-12
3.89173e-12
4.29746e-12
4.73756e-12
5.21398e-12
5.72865e-12
6.28348e-12
6.88032e-12
7.52101e-12
8.20727e-12
8.94076e-12
9.72297e-12
1.05553e-11
1.1439e-11
1.2375e-11
1.33641e-11
1.4407e-11
1.55038e-11
1.66547e-11
1.78592e-11
1.91168e-11
2.04265e-11
2.17868e-11
2.3196e-11
2.46518e-11
2.61517e-11
2.76926e-11
2.9271e-11
3.0883e-11
3.25242e-11
3.41898e-11
3.58745e-11
3.75728e-11
3.92786e-11
4.09854e-11
4.26865e-11
4.43749e-11
4.60432e-11
4.7684e-11
4.92894e-11
5.08515e-11
5.23625e-11
5.38144e-11
5.51991e-11
5.6509e-11
5.77362e-11
5.88734e-11
5.99134e-11
6.08493e-11
6.16748e-11
6.2384e-11
6.29715e-11
6.34326e-11
6.37631e-11
6.39596e-11
6.40196e-11
6.39412e-11
6.37233e-11
6.33658e-11
6.28693e-11
6.22356e-11
6.14671e-11
6.05671e-11
5.95398e-11
5.83905e-11
5.71249e-11
5.57497e-11
5.42723e-11
5.27008e-11
5.10438e-11
4.93104e-11
4.75105e-11
4.56538e-11
4.37506e-11
4.18115e-11
3.98469e-11
3.78672e-11
3.5883e-11
3.39044e-11
3.19413e-11
3.00032e-11
2.80992e-11
2.62378e-11
2.44269e-11
2.26739e-11
2.09852e-11
1.93667e-11
1.78235e-11
1.63599e-11
1.49793e-11
1.36844e-11
1.24771e-11
1.13586e-11
1.03293e-11
9.38898e-12
8.5367e-12
7.77094e-12
7.08963e-12
6.49018e-12
5.96955e-12
5.52427e-12
5.15053e-12
4.84419e-12
4.60085e-12
4.41588e-12
4.28445e-12
4.20158e-12
4.16218e-12
4.16107e-12
4.19301e-12
4.25275e-12
4.33507e-12
4.43477e-12
4.54676e-12
4.66608e-12
4.78795e-12
4.90778e-12
5.02127e-12
5.1244e-12
5.21355e-12
5.28546e-12
5.33733e-12
5.36685e-12
5.37221e-12
5.35214e-12
5.30591e-12
5.23335e-12
5.13482e-12
5.01121e-12
4.86389e-12
4.69466e-12
4.50573e-12
4.29962e-12
4.07909e-12
3.84709e-12
3.60669e-12
3.36094e-12
3.11287e-12
2.86539e-12
2.6212e-12
2.38279e-12
2.15236e-12
1.93182e-12
1.72271e-12
1.52627e-12
1.34339e-12
1.17463e-12
1.02026e-12
8.80243e-13
7.5433e-13
6.42046e-13
5.42747e-13
4.55654e-13
3.79893e-13
3.14528e-13
2.58588e-13
2.11103e-13
1.71119e-13
1.37723e-13
1.10052e-13
8.73097e-14
6.87675e-14
5.37707e-14
4.17385e-14
3.21618e-14
2.46006e-14
1.86784e-14
1.4077e-14
1.05303e-14
7.81859e-15
5.76177e-15
4.21419e-15
3.0591e-15
2.20385e-15
1.5757e-15
1.11804e-15
7.87274e-16
5.50135e-16
3.81487e-16
2.62512e-16
1.79252e-16
1.21452e-16
8.16463e-17
5.44456e-17
3.59962e-17
2.35636e-17
1.52206e-17
9.61456e-18
5.7939e-18
3.07879e-18
9.63066e-19
7.13067e-17
2.16159e-16
3.67811e-16
5.31043e-16
7.10975e-16
9.132e-16
1.14393e-15
1.41019e-15
1.71993e-15
2.0823e-15
2.50784e-15
3.00873e-15
3.59905e-15
4.29515e-15
5.11599e-15
6.08354e-15
7.22326e-15
8.56464e-15
1.01418e-14
1.19941e-14
1.4167e-14
1.67129e-14
1.9692e-14
2.31735e-14
2.72368e-14
3.19727e-14
3.74849e-14
4.3892e-14
5.13286e-14
5.99481e-14
6.99243e-14
8.14539e-14
9.47595e-14
1.10092e-13
1.27733e-13
1.48001e-13
1.71251e-13
1.9788e-13
2.28332e-13
2.63102e-13
3.02739e-13
3.47851e-13
3.99112e-13
4.57264e-13
5.23126e-13
5.97595e-13
6.81654e-13
7.76377e-13
8.82933e-13
1.00259e-12
1.13673e-12
1.28684e-12
1.45451e-12
1.64147e-12
1.84956e-12
2.08073e-12
2.33707e-12
2.62079e-12
2.93423e-12
3.27982e-12
3.66014e-12
4.07786e-12
4.53576e-12
5.03671e-12
5.58365e-12
6.1796e-12
6.82763e-12
7.53084e-12
8.29232e-12
9.11518e-12
1.00025e-11
1.09572e-11
1.19822e-11
1.30803e-11
1.4254e-11
1.55058e-11
1.68378e-11
1.82518e-11
1.97495e-11
2.1332e-11
2.30002e-11
2.47543e-11
2.65943e-11
2.85195e-11
3.05287e-11
3.26202e-11
3.47916e-11
3.70397e-11
3.9361e-11
4.1751e-11
4.42047e-11
4.67163e-11
4.92792e-11
5.18864e-11
5.45299e-11
5.72012e-11
5.98913e-11
6.25902e-11
6.52877e-11
6.79729e-11
7.06346e-11
7.32611e-11
7.58403e-11
7.836e-11
8.08079e-11
8.31713e-11
8.54378e-11
8.75951e-11
8.96309e-11
9.15334e-11
9.32911e-11
9.48931e-11
9.63289e-11
9.7589e-11
9.86645e-11
9.95473e-11
1.00231e-10
1.00708e-10
1.00975e-10
1.01029e-10
1.00865e-10
1.00484e-10
9.9886e-11
9.90718e-11
9.80446e-11
9.68086e-11
9.53694e-11
9.3734e-11
9.19103e-11
8.99078e-11
8.7737e-11
8.54095e-11
8.29377e-11
8.03352e-11
7.7616e-11
7.4795e-11
7.18875e-11
6.89092e-11
6.58761e-11
6.28041e-11
5.97094e-11
5.66076e-11
5.35144e-11
5.04446e-11
4.74127e-11
4.44326e-11
4.1517e-11
3.86781e-11
3.59268e-11
3.32731e-11
3.07259e-11
2.82929e-11
2.59805e-11
2.37942e-11
2.17379e-11
1.98148e-11
1.80266e-11
1.6374e-11
1.48568e-11
1.34737e-11
1.22225e-11
1.11002e-11
1.01029e-11
9.22636e-12
8.46536e-12
7.81434e-12
7.26727e-12
6.81771e-12
6.4589e-12
6.18384e-12
5.98529e-12
5.85589e-12
5.78814e-12
5.77452e-12
5.80746e-12
5.87945e-12
5.98303e-12
6.11087e-12
6.25581e-12
6.41094e-12
6.56958e-12
6.72542e-12
6.87253e-12
7.00545e-12
7.11922e-12
7.20946e-12
7.27242e-12
7.305e-12
7.30484e-12
7.27029e-12
7.20045e-12
7.09519e-12
6.95509e-12
6.78142e-12
6.57612e-12
6.34172e-12
6.08123e-12
5.79811e-12
5.49614e-12
5.17932e-12
4.85178e-12
4.51766e-12
4.18101e-12
3.84571e-12
3.51539e-12
3.19335e-12
2.88252e-12
2.58538e-12
2.30398e-12
2.03992e-12
1.79435e-12
1.56796e-12
1.36106e-12
1.17359e-12
1.00513e-12
8.55036e-13
7.22402e-13
6.0616e-13
5.05115e-13
4.17995e-13
3.43487e-13
2.80281e-13
2.27091e-13
1.82691e-13
1.45924e-13
1.15722e-13
9.11097e-14
7.12137e-14
5.52581e-14
4.25647e-14
3.25469e-14
2.47039e-14
1.86124e-14
1.39191e-14
1.03318e-14
7.61185e-15
5.56597e-15
4.03942e-15
2.90947e-15
2.07977e-15
1.47542e-15
1.03874e-15
7.25736e-16
5.0318e-16
3.46204e-16
2.3637e-16
1.60135e-16
1.0764e-16
7.17731e-17
4.74486e-17
3.10586e-17
2.00609e-17
1.26716e-17
7.63591e-18
4.05754e-18
1.26922e-18
1.27453e-16
3.86352e-16
6.57386e-16
9.49085e-16
1.27058e-15
1.63185e-15
2.04399e-15
2.51948e-15
3.07254e-15
3.71948e-15
4.47905e-15
5.37295e-15
6.42628e-15
7.66816e-15
9.1323e-15
1.08578e-14
1.289e-14
1.52814e-14
1.80924e-14
2.13933e-14
2.52646e-14
2.97995e-14
3.51049e-14
4.13035e-14
4.85361e-14
5.69637e-14
6.67703e-14
7.81653e-14
9.13876e-14
1.06708e-13
1.24434e-13
1.44913e-13
1.68538e-13
1.95751e-13
2.27051e-13
2.62994e-13
3.04207e-13
3.51389e-13
4.05319e-13
4.66863e-13
5.36985e-13
6.16748e-13
7.0733e-13
8.10027e-13
9.26264e-13
1.0576e-12
1.20575e-12
1.37257e-12
1.56009e-12
1.7705e-12
2.00618e-12
2.26967e-12
2.56374e-12
2.89133e-12
3.25557e-12
3.65981e-12
4.10758e-12
4.60264e-12
5.1489e-12
5.7505e-12
6.41172e-12
7.13704e-12
7.93105e-12
8.7985e-12
9.74423e-12
1.07732e-11
1.18903e-11
1.31006e-11
1.4409e-11
1.58204e-11
1.73397e-11
1.89713e-11
2.07198e-11
2.25892e-11
2.45833e-11
2.67056e-11
2.89588e-11
3.13456e-11
3.38676e-11
3.6526e-11
3.93212e-11
4.2253e-11
4.532e-11
4.85203e-11
5.18507e-11
5.53072e-11
5.88847e-11
6.25771e-11
6.6377e-11
7.02761e-11
7.42649e-11
7.83328e-11
8.24681e-11
8.66579e-11
9.08884e-11
9.51448e-11
9.94113e-11
1.03671e-10
1.07908e-10
1.12102e-10
1.16236e-10
1.2029e-10
1.24245e-10
1.28081e-10
1.31779e-10
1.35319e-10
1.38682e-10
1.41849e-10
1.44801e-10
1.47521e-10
1.49992e-10
1.52198e-10
1.54125e-10
1.55759e-10
1.57088e-10
1.58102e-10
1.58793e-10
1.59153e-10
1.59177e-10
1.58863e-10
1.58209e-10
1.57217e-10
1.55889e-10
1.54231e-10
1.52249e-10
1.49953e-10
1.47354e-10
1.44465e-10
1.41301e-10
1.37879e-10
1.34216e-10
1.30332e-10
1.26248e-10
1.21986e-10
1.17569e-10
1.1302e-10
1.08364e-10
1.03624e-10
9.88256e-11
9.39928e-11
8.91497e-11
8.43197e-11
7.95259e-11
7.47899e-11
7.01327e-11
6.55739e-11
6.11317e-11