/*--------------------------------*- C++ -*----------------------------------*\
| =========                 |                                                 |
| \\      /  F ield         | OpenFOAM: The Open Source CFD Toolbox           |
|  \\    /   O peration     | Version:  v2012                                 |
|   \\  /    A nd           | Website:  www.openfoam.com                      |
|    \\/     M anipulation  |                                                 |
\*---------------------------------------------------------------------------*/
FoamFile
{
    version     2.0;
    format      ascii;
    class       volScalarField;
    location    "16.4";
    object      Psi_z;
}
// * * * * * * * * * * * * * * * * * * * * * * * * * * * * * * * * * * * * * //

dimensions      [0 2 -1 0 0 0 0];


internalField   nonuniform List<scalar> 
65536
(
8.32196e-06
2.49665e-05
4.16124e-05
5.82606e-05
7.4912e-05
9.15675e-05
0.000108228
0.000124894
0.000141568
0.000158248
0.000174938
0.000191636
0.000208345
0.000225064
0.000241795
0.000258539
0.000275295
0.000292065
0.000308849
0.000325648
0.000342462
0.000359292
0.000376138
0.000393001
0.000409881
0.000426778
0.000443693
0.000460625
0.000477574
0.000494542
0.000511527
0.00052853
0.00054555
0.000562587
0.000579641
0.000596711
0.000613797
0.000630898
0.000648013
0.000665142
0.000682284
0.000699437
0.0007166
0.000733773
0.000750953
0.00076814
0.000785331
0.000802525
0.000819719
0.000836913
0.000854103
0.000871288
0.000888464
0.00090563
0.000922782
0.000939918
0.000957034
0.000974127
0.000991194
0.00100823
0.00102523
0.0010422
0.00105912
0.001076
0.00109283
0.0011096
0.00112631
0.00114296
0.00115954
0.00117604
0.00119246
0.00120879
0.00122504
0.00124118
0.00125722
0.00127314
0.00128895
0.00130463
0.00132019
0.0013356
0.00135087
0.00136598
0.00138094
0.00139573
0.00141034
0.00142476
0.001439
0.00145304
0.00146687
0.00148049
0.00149388
0.00150704
0.00151996
0.00153263
0.00154505
0.0015572
0.00156909
0.00158069
0.001592
0.00160301
0.00161372
0.00162412
0.0016342
0.00164395
0.00165337
0.00166245
0.00167117
0.00167954
0.00168755
0.00169519
0.00170246
0.00170934
0.00171584
0.00172195
0.00172766
0.00173297
0.00173788
0.00174237
0.00174645
0.00175012
0.00175336
0.00175619
0.00175859
0.00176056
0.00176211
0.00176323
0.00176391
0.00176417
0.001764
0.0017634
0.00176237
0.00176092
0.00175904
0.00175674
0.00175401
0.00175087
0.00174731
0.00174334
0.00173897
0.00173418
0.001729
0.00172343
0.00171747
0.00171112
0.00170439
0.00169729
0.00168982
0.00168199
0.00167381
0.00166528
0.0016564
0.0016472
0.00163766
0.00162781
0.00161765
0.00160718
0.00159641
0.00158535
0.00157401
0.0015624
0.00155052
0.00153838
0.00152599
0.00151336
0.00150049
0.0014874
0.00147408
0.00146056
0.00144683
0.0014329
0.00141878
0.00140448
0.00139
0.00137536
0.00136055
0.0013456
0.00133049
0.00131524
0.00129987
0.00128436
0.00126873
0.00125299
0.00123714
0.00122118
0.00120513
0.00118898
0.00117275
0.00115644
0.00114005
0.00112359
0.00110707
0.00109048
0.00107383
0.00105713
0.00104038
0.00102359
0.00100676
0.000989883
0.000972976
0.000956039
0.000939074
0.000922084
0.000905073
0.000888043
0.000870997
0.000853937
0.000836866
0.000819786
0.000802699
0.000785607
0.000768512
0.000751416
0.000734321
0.000717227
0.000700136
0.000683051
0.000665971
0.000648898
0.000631833
0.000614777
0.00059773
0.000580694
0.000563669
0.000546656
0.000529655
0.000512666
0.00049569
0.000478728
0.000461778
0.000444842
0.000427919
0.00041101
0.000394114
0.000377231
0.000360362
0.000343505
0.00032666
0.000309828
0.000293008
0.000276199
0.000259401
0.000242614
0.000225837
0.000209069
0.000192309
0.000175558
0.000158815
0.000142079
0.000125349
0.000108624
9.19044e-05
7.51888e-05
5.84766e-05
4.17671e-05
2.50595e-05
8.35305e-06
2.49657e-05
7.48984e-05
0.000124835
0.000174779
0.000224733
0.000274698
0.000324679
0.000374678
0.000424697
0.000474738
0.000524805
0.0005749
0.000625026
0.000675183
0.000725376
0.000775605
0.000825873
0.000876183
0.000926534
0.000976931
0.00102737
0.00107786
0.0011284
0.00117899
0.00122963
0.00128032
0.00133106
0.00138186
0.00143271
0.00148361
0.00153457
0.00158558
0.00163664
0.00168775
0.00173891
0.00179012
0.00184138
0.00189268
0.00194403
0.00199542
0.00204684
0.00209831
0.0021498
0.00220132
0.00225286
0.00230442
0.00235599
0.00240758
0.00245916
0.00251075
0.00256232
0.00261388
0.00266541
0.00271691
0.00276837
0.00281978
0.00287113
0.00292241
0.00297362
0.00302473
0.00307575
0.00312665
0.00317742
0.00322806
0.00327855
0.00332887
0.00337901
0.00342896
0.0034787
0.00352821
0.00357747
0.00362648
0.00367521
0.00372365
0.00377176
0.00381955
0.00386698
0.00391404
0.0039607
0.00400695
0.00405276
0.00409812
0.00414299
0.00418736
0.0042312
0.00427449
0.00431721
0.00435933
0.00440083
0.00444169
0.00448187
0.00452136
0.00456013
0.00459816
0.00463542
0.00467189
0.00470754
0.00474235
0.00477629
0.00480935
0.00484149
0.00487269
0.00490294
0.0049322
0.00496046
0.00498769
0.00501388
0.005039
0.00506303
0.00508596
0.00510776
0.00512842
0.00514792
0.00516625
0.00518339
0.00519932
0.00521404
0.00522753
0.00523978
0.00525078
0.00526052
0.00526899
0.00527619
0.00528211
0.00528675
0.00529011
0.00529217
0.00529295
0.00529243
0.00529063
0.00528755
0.00528318
0.00527754
0.00527063
0.00526245
0.00525302
0.00524235
0.00523044
0.0052173
0.00520295
0.00518741
0.00517068
0.00515278
0.00513373
0.00511354
0.00509223
0.00506982
0.00504632
0.00502177
0.00499617
0.00496954
0.00494192
0.00491331
0.00488374
0.00485324
0.00482182
0.00478951
0.00475633
0.00472231
0.00468746
0.00465182
0.00461539
0.00457822
0.00454031
0.0045017
0.00446241
0.00442246
0.00438187
0.00434067
0.00429888
0.00425651
0.0042136
0.00417017
0.00412623
0.00408181
0.00403693
0.00399161
0.00394586
0.00389972
0.00385319
0.0038063
0.00375907
0.00371151
0.00366364
0.00361547
0.00356703
0.00351834
0.00346939
0.00342022
0.00337084
0.00332126
0.00327149
0.00322154
0.00317144
0.00312119
0.00307081
0.0030203
0.00296968
0.00291896
0.00286814
0.00281724
0.00276627
0.00271523
0.00266414
0.002613
0.00256182
0.0025106
0.00245936
0.0024081
0.00235682
0.00230553
0.00225424
0.00220296
0.00215167
0.0021004
0.00204914
0.0019979
0.00194668
0.00189549
0.00184432
0.00179318
0.00174207
0.00169099
0.00163995
0.00158895
0.00153798
0.00148706
0.00143617
0.00138532
0.00133451
0.00128374
0.00123301
0.00118233
0.00113168
0.00108107
0.0010305
0.000979967
0.000929472
0.000879011
0.000828585
0.000778192
0.000727831
0.000677499
0.000627196
0.000576919
0.000526667
0.000476438
0.000426229
0.00037604
0.000325867
0.000275709
0.000225563
0.000175427
0.000125299
7.51774e-05
2.50587e-05
4.16079e-05
0.000124826
0.000208051
0.000291288
0.000374541
0.000457814
0.000541112
0.000624441
0.000707802
0.000791203
0.000874645
0.000958134
0.00104167
0.00112527
0.00120892
0.00129263
0.00137641
0.00146026
0.00154418
0.00162817
0.00171224
0.00179638
0.00188061
0.00196493
0.00204932
0.00213381
0.00221838
0.00230304
0.00238779
0.00247263
0.00255756
0.00264257
0.00272767
0.00281286
0.00289813
0.00298349
0.00306892
0.00315443
0.00324001
0.00332566
0.00341137
0.00349714
0.00358297
0.00366884
0.00375474
0.00384069
0.00392665
0.00401263
0.00409861
0.00418459
0.00427056
0.00435649
0.00444239
0.00452823
0.004614
0.0046997
0.00478529
0.00487078
0.00495613
0.00504133
0.00512637
0.00521122
0.00529586
0.00538027
0.00546443
0.00554832
0.0056319
0.00571517
0.00579808
0.00588062
0.00596275
0.00604445
0.00612568
0.00620643
0.00628665
0.00636631
0.00644539
0.00652384
0.00660164
0.00667874
0.00675512
0.00683073
0.00690554
0.00697952
0.00705261
0.00712479
0.00719601
0.00726624
0.00733544
0.00740356
0.00747056
0.0075364
0.00760105
0.00766446
0.00772659
0.00778739
0.00784684
0.00790488
0.00796148
0.00801659
0.00807019
0.00812222
0.00817266
0.00822145
0.00826857
0.00831399
0.00835765
0.00839954
0.00843962
0.00847785
0.0085142
0.00854866
0.00858118
0.00861174
0.00864032
0.00866689
0.00869143
0.00871392
0.00873435
0.00875269
0.00876893
0.00878307
0.00879507
0.00880495
0.00881268
0.00881828
0.00882172
0.00882301
0.00882215
0.00881915
0.00881401
0.00880672
0.00879731
0.00878578
0.00877215
0.00875642
0.00873862
0.00871875
0.00869685
0.00867292
0.008647
0.0086191
0.00858925
0.00855747
0.00852381
0.00848827
0.0084509
0.00841172
0.00837077
0.00832808
0.00828368
0.00823762
0.00818991
0.00814061
0.00808975
0.00803736
0.00798349
0.00792816
0.00787143
0.00781333
0.00775389
0.00769316
0.00763117
0.00756797
0.0075036
0.00743809
0.00737147
0.0073038
0.0072351
0.00716542
0.00709479
0.00702325
0.00695084
0.00687759
0.00680353
0.00672871
0.00665315
0.00657689
0.00649996
0.00642239
0.00634422
0.00626547
0.00618619
0.00610638
0.00602609
0.00594534
0.00586416
0.00578258
0.00570061
0.00561829
0.00553563
0.00545267
0.00536942
0.0052859
0.00520214
0.00511815
0.00503396
0.00494958
0.00486503
0.00478032
0.00469548
0.00461052
0.00452545
0.00444029
0.00435505
0.00426973
0.00418437
0.00409896
0.00401351
0.00392804
0.00384256
0.00375707
0.00367159
0.00358611
0.00350065
0.00341522
0.00332981
0.00324444
0.00315911
0.00307383
0.00298859
0.00290341
0.00281828
0.00273321
0.00264821
0.00256326
0.00247838
0.00239357
0.00230882
0.00222414
0.00213952
0.00205498
0.0019705
0.00188609
0.00180174
0.00171746
0.00163324
0.00154908
0.00146498
0.00138094
0.00129695
0.00121302
0.00112913
0.0010453
0.000961504
0.000877753
0.000794039
0.000710361
0.000626714
0.000543095
0.0004595
0.000375926
0.00029237
0.000208826
0.000125292
4.17633e-05
5.82479e-05
0.000174747
0.000291256
0.00040778
0.000524328
0.000640904
0.000757516
0.000874169
0.00099087
0.00110762
0.00122444
0.00134132
0.00145827
0.00157529
0.0016924
0.00180959
0.00192688
0.00204426
0.00216174
0.00227933
0.00239702
0.00251482
0.00263274
0.00275078
0.00286893
0.00298721
0.00310561
0.00322413
0.00334278
0.00346155
0.00358045
0.00369948
0.00381862
0.00393789
0.00405727
0.00417677
0.00429638
0.0044161
0.00453592
0.00465583
0.00477584
0.00489592
0.00501609
0.00513631
0.0052566
0.00537693
0.00549729
0.00561767
0.00573806
0.00585845
0.00597882
0.00609914
0.00621941
0.00633961
0.00645972
0.00657971
0.00669957
0.00681927
0.00693879
0.0070581
0.00717718
0.007296
0.00741452
0.00753273
0.00765059
0.00776806
0.00788512
0.00800172
0.00811784
0.00823343
0.00834845
0.00846287
0.00857665
0.00868973
0.00880208
0.00891366
0.00902441
0.00913429
0.00924326
0.00935125
0.00945823
0.00956414
0.00966893
0.00977255
0.00987494
0.00997604
0.0100758
0.0101742
0.0102711
0.0103665
0.0104604
0.0105526
0.0106432
0.010732
0.0108191
0.0109043
0.0109875
0.0110688
0.0111481
0.0112254
0.0113004
0.0113733
0.011444
0.0115124
0.0115784
0.011642
0.0117032
0.0117619
0.011818
0.0118716
0.0119226
0.0119708
0.0120164
0.0120592
0.0120993
0.0121365
0.0121709
0.0122024
0.012231
0.0122567
0.0122795
0.0122993
0.0123161
0.0123299
0.0123408
0.0123486
0.0123534
0.0123552
0.012354
0.0123498
0.0123426
0.0123324
0.0123192
0.012303
0.0122839
0.0122619
0.0122369
0.0122091
0.0121784
0.0121449
0.0121086
0.0120695
0.0120276
0.0119831
0.0119359
0.0118862
0.0118338
0.0117789
0.0117215
0.0116617
0.0115995
0.011535
0.0114681
0.011399
0.0113278
0.0112544
0.0111789
0.0111014
0.0110219
0.0109405
0.0108573
0.0107722
0.0106853
0.0105968
0.0105066
0.0104149
0.0103215
0.0102268
0.0101305
0.0100329
0.00993399
0.00983378
0.00973235
0.00962975
0.00952602
0.00942122
0.00931539
0.00920858
0.00910083
0.00899219
0.00888271
0.00877243
0.00866138
0.00854962
0.00843717
0.00832409
0.0082104
0.00809614
0.00798135
0.00786607
0.00775032
0.00763414
0.00751755
0.0074006
0.00728331
0.0071657
0.00704781
0.00692965
0.00681126
0.00669265
0.00657385
0.00645488
0.00633576
0.00621652
0.00609716
0.00597771
0.00585818
0.00573859
0.00561895
0.00549928
0.00537959
0.0052599
0.00514021
0.00502053
0.00490088
0.00478126
0.00466169
0.00454216
0.0044227
0.00430329
0.00418396
0.0040647
0.00394551
0.00382642
0.0037074
0.00358848
0.00346964
0.0033509
0.00323225
0.0031137
0.00299524
0.00287688
0.00275861
0.00264043
0.00252235
0.00240435
0.00228645
0.00216863
0.00205089
0.00193324
0.00181566
0.00169815
0.00158072
0.00146335
0.00134605
0.0012288
0.00111161
0.000994461
0.000877361
0.000760299
0.000643271
0.000526273
0.000409299
0.000292343
0.000175401
5.8466e-05
7.48845e-05
0.000224658
0.000374444
0.00052425
0.000674086
0.000823959
0.000973878
0.00112385
0.00127388
0.00142399
0.00157416
0.00172443
0.00187478
0.00202524
0.00217579
0.00232646
0.00247725
0.00262816
0.0027792
0.00293038
0.00308169
0.00323315
0.00338475
0.00353651
0.00368842
0.00384049
0.00399271
0.0041451
0.00429765
0.00445036
0.00460323
0.00475626
0.00490945
0.00506279
0.00521629
0.00536994
0.00552373
0.00567766
0.00583173
0.00598591
0.00614022
0.00629463
0.00644914
0.00660373
0.0067584
0.00691313
0.0070679
0.00722271
0.00737752
0.00753233
0.00768711
0.00784185
0.00799651
0.00815109
0.00830555
0.00845986
0.008614
0.00876794
0.00892165
0.0090751
0.00922825
0.00938106
0.00953351
0.00968554
0.00983713
0.00998822
0.0101388
0.0102888
0.0104381
0.0105868
0.0107348
0.0108819
0.0110283
0.0111738
0.0113183
0.0114618
0.0116043
0.0117457
0.0118858
0.0120248
0.0121624
0.0122987
0.0124335
0.0125668
0.0126985
0.0128286
0.012957
0.0130836
0.0132083
0.0133311
0.0134519
0.0135706
0.0136871
0.0138014
0.0139134
0.014023
0.0141302
0.0142348
0.0143369
0.0144363
0.0145329
0.0146267
0.0147177
0.0148056
0.0148906
0.0149725
0.0150512
0.0151268
0.0151991
0.015268
0.0153336
0.0153957
0.0154543
0.0155095
0.015561
0.0156089
0.0156532
0.0156937
0.0157306
0.0157637
0.015793
0.0158184
0.0158401
0.0158579
0.0158718
0.0158819
0.0158881
0.0158904
0.0158889
0.0158835
0.0158742
0.015861
0.0158441
0.0158233
0.0157987
0.0157703
0.0157382
0.0157023
0.0156628
0.0156197
0.0155729
0.0155226
0.0154687
0.0154114
0.0153507
0.0152866
0.0152192
0.0151485
0.0150747
0.0149977
0.0149177
0.0148346
0.0147486
0.0146597
0.014568
0.0144735
0.0143764
0.0142766
0.0141743
0.0140696
0.0139624
0.013853
0.0137412
0.0136273
0.0135113
0.0133932
0.0132731
0.0131511
0.0130273
0.0129017
0.0127745
0.0126455
0.012515
0.012383
0.0122496
0.0121148
0.0119786
0.0118412
0.0117026
0.0115628
0.011422
0.0112801
0.0111373
0.0109935
0.0108489
0.0107034
0.0105572
0.0104102
0.0102626
0.0101143
0.00996544
0.00981601
0.00966607
0.00951565
0.00936479
0.00921354
0.00906192
0.00890996
0.0087577
0.00860516
0.00845239
0.00829939
0.00814621
0.00799286
0.00783937
0.00768576
0.00753205
0.00737827
0.00722442
0.00707054
0.00691664
0.00676272
0.00660881
0.00645493
0.00630108
0.00614727
0.00599352
0.00583983
0.00568622
0.00553269
0.00537925
0.00522591
0.00507266
0.00491953
0.00476651
0.0046136
0.00446081
0.00430814
0.00415559
0.00400317
0.00385086
0.00369868
0.00354662
0.00339468
0.00324286
0.00309116
0.00293957
0.00278809
0.00263672
0.00248546
0.00233429
0.00218322
0.00203224
0.00188135
0.00173053
0.00157979
0.00142912
0.00127852
0.00112797
0.000977469
0.000827014
0.000676596
0.000526209
0.000375847
0.000225501
7.51659e-05
9.1517e-05
0.000274556
0.000457611
0.000640691
0.000823807
0.00100697
0.00119019
0.00137347
0.00155683
0.00174027
0.00192381
0.00210745
0.0022912
0.00247507
0.00265908
0.00284321
0.0030275
0.00321193
0.00339653
0.00358129
0.00376622
0.00395132
0.00413661
0.00432208
0.00450775
0.0046936
0.00487965
0.0050659
0.00525235
0.00543899
0.00562584
0.00581288
0.00600011
0.00618754
0.00637516
0.00656296
0.00675094
0.00693909
0.00712741
0.00731588
0.00750449
0.00769324
0.00788211
0.00807108
0.00826015
0.00844929
0.00863849
0.00882773
0.00901698
0.00920623
0.00939545
0.00958462
0.0097737
0.00996268
0.0101515
0.0103402
0.0105286
0.0107168
0.0109048
0.0110924
0.0112796
0.0114665
0.0116529
0.0118388
0.0120242
0.0122089
0.012393
0.0125764
0.0127591
0.0129409
0.0131218
0.0133018
0.0134808
0.0136587
0.0138355
0.0140111
0.0141853
0.0143582
0.0145297
0.0146996
0.014868
0.0150346
0.0151996
0.0153626
0.0155238
0.0156829
0.01584
0.0159948
0.0161474
0.0162976
0.0164454
0.0165906
0.0167332
0.0168731
0.0170101
0.0171442
0.0172754
0.0174034
0.0175283
0.0176499
0.0177682
0.017883
0.0179942
0.0181019
0.0182059
0.0183061
0.0184025
0.0184949
0.0185834
0.0186678
0.018748
0.0188241
0.0188958
0.0189633
0.0190264
0.019085
0.0191392
0.0191888
0.0192339
0.0192744
0.0193102
0.0193414
0.0193679
0.0193897
0.0194068
0.0194191
0.0194267
0.0194296
0.0194276
0.019421
0.0194096
0.0193935
0.0193727
0.0193473
0.0193172
0.0192824
0.0192431
0.0191992
0.0191509
0.019098
0.0190408
0.0189792
0.0189133
0.0188431
0.0187688
0.0186904
0.0186079
0.0185214
0.018431
0.0183368
0.0182388
0.0181372
0.0180319
0.0179231
0.0178109
0.0176953
0.0175764
0.0174544
0.0173292
0.017201
0.0170699
0.016936
0.0167993
0.0166599
0.0165179
0.0163735
0.0162266
0.0160774
0.0159259
0.0157723
0.0156166
0.0154589
0.0152992
0.0151378
0.0149745
0.0148096
0.0146431
0.014475
0.0143055
0.0141346
0.0139623
0.0137888
0.0136141
0.0134383
0.0132614
0.0130836
0.0129047
0.012725
0.0125445
0.0123632
0.0121811
0.0119984
0.0118151
0.0116311
0.0114467
0.0112617
0.0110764
0.0108906
0.0107044
0.0105179
0.0103311
0.0101441
0.00995682
0.00976934
0.00958169
0.00939391
0.009206
0.009018
0.00882994
0.00864182
0.00845369
0.00826554
0.0080774
0.00788929
0.00770123
0.00751322
0.00732528
0.00713742
0.00694966
0.00676199
0.00657444
0.00638701
0.00619971
0.00601254
0.0058255
0.00563861
0.00545186
0.00526526
0.00507881
0.00489251
0.00470636
0.00452036
0.00433452
0.00414882
0.00396326
0.00377785
0.00359259
0.00340745
0.00322245
0.00303758
0.00285283
0.0026682
0.00248368
0.00229926
0.00211495
0.00193072
0.00174658
0.00156252
0.00137853
0.00119459
0.00101072
0.000826888
0.000643096
0.000459333
0.000275592
9.18624e-05
0.000108144
0.000324439
0.000540752
0.000757095
0.000973481
0.00118992
0.00140643
0.00162301
0.00183969
0.00205646
0.00227335
0.00249035
0.0027075
0.00292478
0.00314222
0.00335982
0.00357759
0.00379555
0.00401369
0.00423202
0.00445057
0.00466932
0.00488828
0.00510747
0.00532688
0.00554652
0.0057664
0.00598651
0.00620685
0.00642743
0.00664825
0.0068693
0.00709059
0.0073121
0.00753385
0.00775581
0.00797798
0.00820036
0.00842293
0.0086457
0.00886863
0.00909172
0.00931496
0.00953833
0.00976181
0.00998539
0.010209
0.0104327
0.0106564
0.0108802
0.0111038
0.0113275
0.011551
0.0117744
0.0119977
0.0122207
0.0124435
0.012666
0.0128882
0.01311
0.0133314
0.0135524
0.0137728
0.0139926
0.0142118
0.0144303
0.014648
0.0148649
0.0150809
0.0152959
0.0155099
0.0157227
0.0159344
0.0161449
0.0163539
0.0165616
0.0167677
0.0169722
0.017175
0.017376
0.0175752
0.0177724
0.0179675
0.0181604
0.0183511
0.0185393
0.0187251
0.0189084
0.0190889
0.0192666
0.0194415
0.0196133
0.019782
0.0199475
0.0201097
0.0202685
0.0204236
0.0205752
0.020723
0.0208669
0.0210068
0.0211427
0.0212745
0.0214019
0.021525
0.0216436
0.0217577
0.0218671
0.0219718
0.0220717
0.0221667
0.0222567
0.0223416
0.0224215
0.0224962
0.0225656
0.0226297
0.0226885
0.0227419
0.0227898
0.0228322
0.0228691
0.0229005
0.0229263
0.0229465
0.0229611
0.02297
0.0229734
0.0229711
0.0229633
0.0229498
0.0229307
0.0229061
0.0228759
0.0228403
0.0227991
0.0227526
0.0227006
0.0226434
0.0225808
0.022513
0.0224401
0.0223621
0.022279
0.022191
0.0220982
0.0220005
0.0218982
0.0217912
0.0216796
0.0215637
0.0214433
0.0213187
0.02119
0.0210571
0.0209203
0.0207797
0.0206352
0.0204871
0.0203354
0.0201803
0.0200218
0.01986
0.0196951
0.0195271
0.0193562
0.0191824
0.0190058
0.0188266
0.0186449
0.0184607
0.0182741
0.0180853
0.0178943
0.0177012
0.0175061
0.0173091
0.0171103
0.0169098
0.0167076
0.0165039
0.0162987
0.0160921
0.0158842
0.015675
0.0154646
0.0152531
0.0150406
0.0148271
0.0146127
0.0143975
0.0141814
0.0139646
0.0137472
0.0135291
0.0133104
0.0130912
0.0128716
0.0126515
0.012431
0.0122102
0.011989
0.0117676
0.011546
0.0113242
0.0111022
0.01088
0.0106578
0.0104355
0.0102131
0.00999074
0.00976835
0.00954596
0.00932362
0.00910132
0.0088791
0.00865696
0.00843492
0.00821299
0.00799119
0.00776952
0.00754799
0.00732662
0.00710541
0.00688435
0.00666347
0.00644276
0.00622223
0.00600188
0.00578171
0.00556171
0.0053419
0.00512226
0.00490281
0.00468352
0.00446441
0.00424546
0.00402668
0.00380805
0.00358958
0.00337125
0.00315306
0.00293501
0.00271708
0.00249927
0.00228156
0.00206396
0.00184645
0.00162902
0.00141167
0.00119438
0.000977142
0.000759953
0.000542799
0.000325669
0.000108555
0.000124765
0.000374303
0.000623863
0.000873457
0.0011231
0.00137281
0.00162259
0.00187246
0.00212244
0.00237254
0.00262276
0.00287313
0.00312365
0.00337434
0.0036252
0.00387625
0.00412751
0.00437897
0.00463065
0.00488256
0.0051347
0.00538709
0.00563973
0.00589263
0.00614578
0.00639921
0.0066529
0.00690687
0.00716111
0.00741563
0.00767043
0.00792549
0.00818083
0.00843644
0.00869231
0.00894844
0.00920481
0.00946143
0.00971827
0.00997534
0.0102326
0.0104901
0.0107477
0.0110055
0.0112634
0.0115214
0.0117795
0.0120377
0.0122959
0.0125541
0.0128123
0.0130704
0.0133284
0.0135863
0.013844
0.0141015
0.0143587
0.0146155
0.014872
0.0151281
0.0153837
0.0156388
0.0158932
0.016147
0.0164001
0.0166524
0.0169037
0.0171542
0.0174036
0.0176519
0.017899
0.0181448
0.0183893
0.0186323
0.0188738
0.0191136
0.0193517
0.0195879
0.0198221
0.0200544
0.0202844
0.0205122
0.0207376
0.0209604
0.0211807
0.0213982
0.0216129
0.0218246
0.0220332
0.0222385
0.0224406
0.0226391
0.0228341
0.0230254
0.0232128
0.0233962
0.0235756
0.0237507
0.0239215
0.0240878
0.0242496
0.0244067
0.0245589
0.0247062
0.0248485
0.0249856
0.0251175
0.025244
0.025365
0.0254805
0.0255903
0.0256943
0.0257926
0.0258849
0.0259712
0.0260515
0.0261256
0.0261935
0.0262552
0.0263106
0.0263597
0.0264024
0.0264386
0.0264684
0.0264918
0.0265086
0.026519
0.0265229
0.0265202
0.0265111
0.0264955
0.0264735
0.026445
0.0264101
0.0263688
0.0263213
0.0262674
0.0262074
0.0261411
0.0260688
0.0259904
0.0259061
0.0258159
0.0257199
0.0256182
0.0255108
0.0253979
0.0252795
0.0251559
0.0250269
0.0248929
0.0247538
0.0246098
0.0244609
0.0243074
0.0241493
0.0239867
0.0238198
0.0236486
0.0234733
0.023294
0.0231108
0.0229239
0.0227333
0.0225392
0.0223417
0.0221409
0.021937
0.0217299
0.02152
0.0213071
0.0210916
0.0208735
0.0206528
0.0204298
0.0202045
0.019977
0.0197473
0.0195158
0.0192823
0.019047
0.01881
0.0185714
0.0183313
0.0180897
0.0178468
0.0176026
0.0173572
0.0171107
0.0168631
0.0166146
0.0163651
0.0161149
0.0158638
0.015612
0.0153596
0.0151065
0.014853
0.0145989
0.0143444
0.0140895
0.0138342
0.0135787
0.0133228
0.0130668
0.0128106
0.0125542
0.0122977
0.0120411
0.0117845
0.0115278
0.0112711
0.0110145
0.0107579
0.0105013
0.0102449
0.00998854
0.00973231
0.00947621
0.00922025
0.00896445
0.00870883
0.00845338
0.00819811
0.00794304
0.00768816
0.00743349
0.00717903
0.00692477
0.00667072
0.00641688
0.00616325
0.00590983
0.00565662
0.00540361
0.0051508
0.00489818
0.00464575
0.0043935
0.00414143
0.00388954
0.0036378
0.00338622
0.00313478
0.00288348
0.0026323
0.00238125
0.0021303
0.00187944
0.00162867
0.00137798
0.00112735
0.000876775
0.000626239
0.000375732
0.000125242
0.00014138
0.000424147
0.000706938
0.00098977
0.00127266
0.00155562
0.00183866
0.00212181
0.00240508
0.00268848
0.00297203
0.00325574
0.00353963
0.00382371
0.00410799
0.00439249
0.00467721
0.00496217
0.00524738
0.00553286
0.0058186
0.00610462
0.00639092
0.00667752
0.00696442
0.00725162
0.00753914
0.00782696
0.0081151
0.00840355
0.00869233
0.00898141
0.00927081
0.00956051
0.00985051
0.0101408
0.0104314
0.0107223
0.0110134
0.0113048
0.0115964
0.0118882
0.0121803
0.0124725
0.0127648
0.0130574
0.01335
0.0136426
0.0139354
0.0142281
0.0145208
0.0148135
0.015106
0.0153984
0.0156906
0.0159825
0.0162741
0.0165654
0.0168563
0.0171467
0.0174365
0.0177258
0.0180144
0.0183022
0.0185892
0.0188753
0.0191605
0.0194445
0.0197274
0.0200091
0.0202894
0.0205683
0.0208456
0.0211213
0.0213953
0.0216674
0.0219375
0.0222055
0.0224713
0.0227348
0.0229959
0.0232544
0.0235101
0.0237631
0.0240131
0.0242599
0.0245036
0.0247439
0.0249807
0.0252138
0.0254431
0.0256685
0.0258899
0.026107
0.0263198
0.0265281
0.0267317
0.0269306
0.0271245
0.0273134
0.0274971
0.0276754
0.0278483
0.0280156
0.0281772
0.0283329
0.0284827
0.0286263
0.0287638
0.0288949
0.0290196
0.0291378
0.0292494
0.0293542
0.0294523
0.0295435
0.0296277
0.0297048
0.0297749
0.0298378
0.0298936
0.029942
0.0299832
0.030017
0.0300436
0.0300627
0.0300745
0.0300788
0.0300758
0.0300655
0.0300477
0.0300226
0.0299903
0.0299506
0.0299038
0.0298497
0.0297885
0.0297203
0.029645
0.0295628
0.0294738
0.029378
0.0292755
0.0291665
0.0290509
0.0289289
0.0288007
0.0286663
0.0285258
0.0283794
0.0282271
0.0280691
0.0279056
0.0277366
0.0275622
0.0273827
0.0271981
0.0270085
0.0268142
0.0266152
0.0264116
0.0262037
0.0259915
0.0257751
0.0255548
0.0253306
0.0251027
0.0248712
0.0246362
0.0243979
0.0241563
0.0239117
0.0236642
0.0234138
0.0231607
0.022905
0.0226469
0.0223864
0.0221236
0.0218587
0.0215918
0.0213229
0.0210522
0.0207798
0.0205058
0.0202303
0.0199533
0.0196749
0.0193953
0.0191145
0.0188326
0.0185497
0.0182659
0.0179812
0.0176956
0.0174094
0.0171224
0.0168349
0.0165468
0.0162582
0.0159692
0.0156797
0.01539
0.0150999
0.0148096
0.0145191
0.0142285
0.0139377
0.0136468
0.0133558
0.0130649
0.0127739
0.012483
0.0121921
0.0119013
0.0116106
0.01132
0.0110296
0.0107393
0.0104492
0.0101592
0.00986948
0.00957995
0.00929062
0.00900152
0.00871265
0.00842401
0.00813561
0.00784745
0.00755953
0.00727185
0.0069844
0.0066972
0.00641023
0.0061235
0.00583699
0.0055507
0.00526464
0.00497878
0.00469312
0.00440766
0.00412238
0.00383728
0.00355234
0.00326756
0.00298293
0.00269843
0.00241405
0.00212978
0.00184561
0.00156152
0.00127751
0.000993556
0.00070965
0.000425777
0.000141923
0.000157986
0.000473966
0.000789973
0.00110603
0.00142214
0.00173834
0.00205463
0.00237104
0.00268759
0.00300428
0.00332114
0.00363819
0.00395543
0.00427288
0.00459057
0.00490849
0.00522667
0.00554512
0.00586386
0.00618288
0.00650221
0.00682185
0.00714182
0.00746211
0.00778275
0.00810373
0.00842505
0.00874673
0.00906877
0.00939116
0.00971391
0.010037
0.0103605
0.0106843
0.0110084
0.0113329
0.0116577
0.0119828
0.0123083
0.012634
0.01296
0.0132862
0.0136126
0.0139393
0.0142662
0.0145932
0.0149203
0.0152475
0.0155748
0.0159021
0.0162294
0.0165566
0.0168837
0.0172106
0.0175374
0.0178638
0.0181899
0.0185157
0.018841
0.0191658
0.0194899
0.0198135
0.0201362
0.0204582
0.0207792
0.0210993
0.0214182
0.021736
0.0220525
0.0223676
0.0226813
0.0229933
0.0233036
0.0236121
0.0239186
0.0242231
0.0245254
0.0248253
0.0251228
0.0254177
0.0257099
0.0259992
0.0262855
0.0265687
0.0268485
0.0271249
0.0273977
0.0276667
0.0279318
0.0281928
0.0284496
0.028702
0.0289499
0.029193
0.0294313
0.0296646
0.0298926
0.0301153
0.0303326
0.0305441
0.0307499
0.0309496
0.0311433
0.0313307
0.0315117
0.0316862
0.0318539
0.0320149
0.0321689
0.0323158
0.0324555
0.0325879
0.0327129
0.0328304
0.0329403
0.0330424
0.0331368
0.0332232
0.0333017
0.0333722
0.0334347
0.033489
0.0335351
0.033573
0.0336027
0.0336241
0.0336373
0.0336422
0.0336388
0.0336271
0.0336072
0.0335791
0.0335428
0.0334984
0.0334458
0.0333852
0.0333167
0.0332402
0.0331558
0.0330637
0.0329639
0.0328566
0.0327417
0.0326195
0.03249
0.0323534
0.0322097
0.0320591
0.0319017
0.0317376
0.0315671
0.0313901
0.0312069
0.0310175
0.0308223
0.0306212
0.0304144
0.0302021
0.0299844
0.0297616
0.0295336
0.0293007
0.0290631
0.0288209
0.0285742
0.0283232
0.028068
0.0278088
0.0275458
0.027279
0.0270086
0.0267348
0.0264577
0.0261775
0.0258942
0.0256081
0.0253192
0.0250276
0.0247336
0.0244372
0.0241385
0.0238376
0.0235348
0.02323
0.0229234
0.0226152
0.0223053
0.0219939
0.0216811
0.021367
0.0210517
0.0207353
0.0204178
0.0200993
0.01978
0.0194598
0.0191389
0.0188173
0.0184952
0.0181724
0.0178492
0.0175256
0.0172016
0.0168773
0.0165527
0.0162279
0.0159029
0.0155777
0.0152525
0.0149272
0.0146019
0.0142767
0.0139514
0.0136262
0.0133011
0.0129762
0.0126513
0.0123267
0.0120022
0.0116779
0.0113538
0.0110299
0.0107063
0.0103829
0.0100598
0.00973691
0.0094143
0.00909196
0.00876989
0.00844809
0.00812657
0.00780531
0.00748433
0.00716361
0.00684316
0.00652296
0.00620302
0.00588331
0.00556385
0.00524461
0.00492559
0.00460678
0.00428817
0.00396975
0.0036515
0.00333342
0.00301548
0.00269769
0.00238002
0.00206245
0.00174499
0.00142761
0.00111029
0.000793027
0.000475802
0.000158598
0.000174582
0.000523757
0.000872963
0.00122222
0.00157154
0.00192096
0.00227049
0.00262014
0.00296994
0.00331991
0.00367007
0.00402043
0.00437101
0.00472182
0.0050729
0.00542424
0.00577587
0.00612779
0.00648003
0.0068326
0.00718551
0.00753877
0.00789238
0.00824637
0.00860073
0.00895548
0.00931062
0.00966615
0.0100221
0.0103784
0.0107351
0.0110923
0.0114498
0.0118077
0.012166
0.0125247
0.0128837
0.0132431
0.0136028
0.0139629
0.0143233
0.0146839
0.0150448
0.015406
0.0157673
0.0161289
0.0164906
0.0168524
0.0172142
0.0175761
0.017938
0.0182998
0.0186616
0.0190231
0.0193844
0.0197455
0.0201061
0.0204664
0.0208262
0.0211854
0.021544
0.0219019
0.0222589
0.0226151
0.0229702
0.0233243
0.0236772
0.0240288
0.024379
0.0247277
0.0250747
0.02542
0.0257634
0.0261048
0.026444
0.026781
0.0271156
0.0274476
0.0277769
0.0281034
0.0284268
0.0287471
0.0290641
0.0293776
0.0296874
0.0299935
0.0302955
0.0305934
0.030887
0.0311761
0.0314605
0.03174
0.0320146
0.0322839
0.0325478
0.0328062
0.0330589
0.0333056
0.0335463
0.0337807
0.0340086
0.03423
0.0344446
0.0346522
0.0348528
0.0350461
0.035232
0.0354104
0.035581
0.0357439
0.0358987
0.0360455
0.036184
0.0363142
0.036436
0.0365492
0.0366537
0.0367496
0.0368366
0.0369147
0.0369839
0.0370441
0.0370952
0.0371372
0.0371701
0.0371938
0.0372084
0.0372138
0.03721
0.0371971
0.037175
0.0371438
0.0371035
0.0370543
0.036996
0.0369288
0.0368527
0.0367679
0.0366744
0.0365723
0.0364617
0.0363427
0.0362153
0.0360799
0.0359363
0.0357848
0.0356256
0.0354587
0.0352842
0.0351024
0.0349134
0.0347173
0.0345143
0.0343045
0.0340881
0.0338653
0.0336362
0.033401
0.0331599
0.032913
0.0326605
0.0324026
0.0321394
0.0318711
0.0315979
0.0313199
0.0310373
0.0307503
0.0304591
0.0301637
0.0298643
0.0295612
0.0292544
0.0289442
0.0286306
0.0283139
0.0279941
0.0276714
0.0273459
0.0270179
0.0266873
0.0263544
0.0260193
0.025682
0.0253428
0.0250017
0.0246588
0.0243143
0.0239682
0.0236207
0.0232719
0.0229219
0.0225707
0.0222184
0.0218651
0.021511
0.0211561
0.0208004
0.0204441
0.0200871
0.0197297
0.0193718
0.0190135
0.0186549
0.0182959