/*--------------------------------*- C++ -*----------------------------------*\
| =========                 |                                                 |
| \\      /  F ield         | OpenFOAM: The Open Source CFD Toolbox           |
|  \\    /   O peration     | Version:  v2012                                 |
|   \\  /    A nd           | Website:  www.openfoam.com                      |
|    \\/     M anipulation  |                                                 |
\*---------------------------------------------------------------------------*/
FoamFile
{
    version     2.0;
    format      ascii;
    class       volVectorField;
    location    "16.4";
    object      U;
}
// * * * * * * * * * * * * * * * * * * * * * * * * * * * * * * * * * * * * * //

dimensions      [0 1 -1 0 0 0 0];


internalField   nonuniform List<vector> 
65536
(
(0.000679192 -0.000679208 0)
(0.00203762 -0.000679248 0)
(0.00339615 -0.000679325 0)
(0.00475488 -0.000679438 0)
(0.00611387 -0.000679588 0)
(0.0074732 -0.000679775 0)
(0.00883294 -0.000679998 0)
(0.0101932 -0.000680258 0)
(0.0115539 -0.000680553 0)
(0.0129153 -0.000680883 0)
(0.0142774 -0.000681246 0)
(0.0156403 -0.000681643 0)
(0.017004 -0.000682072 0)
(0.0183686 -0.000682531 0)
(0.0197341 -0.00068302 0)
(0.0211006 -0.000683538 0)
(0.0224682 -0.000684083 0)
(0.0238369 -0.000684654 0)
(0.0252068 -0.000685248 0)
(0.0265779 -0.000685865 0)
(0.0279503 -0.000686503 0)
(0.0293239 -0.00068716 0)
(0.0306989 -0.000687833 0)
(0.0320752 -0.00068852 0)
(0.033453 -0.000689221 0)
(0.0348321 -0.000689931 0)
(0.0362127 -0.000690648 0)
(0.0375947 -0.000691371 0)
(0.0389782 -0.000692096 0)
(0.0403631 -0.00069282 0)
(0.0417495 -0.000693541 0)
(0.0431373 -0.000694255 0)
(0.0445265 -0.000694959 0)
(0.0459171 -0.00069565 0)
(0.0473091 -0.000696324 0)
(0.0487024 -0.000696977 0)
(0.050097 -0.000697606 0)
(0.0514929 -0.000698207 0)
(0.0528899 -0.000698775 0)
(0.054288 -0.000699307 0)
(0.0556872 -0.000699798 0)
(0.0570873 -0.000700243 0)
(0.0584882 -0.000700638 0)
(0.0598899 -0.000700979 0)
(0.0612922 -0.000701259 0)
(0.062695 -0.000701474 0)
(0.0640982 -0.000701618 0)
(0.0655015 -0.000701687 0)
(0.066905 -0.000701674 0)
(0.0683083 -0.000701574 0)
(0.0697114 -0.000701381 0)
(0.071114 -0.000701089 0)
(0.0725158 -0.000700692 0)
(0.0739168 -0.000700183 0)
(0.0753167 -0.000699556 0)
(0.0767152 -0.000698805 0)
(0.078112 -0.000697923 0)
(0.079507 -0.000696903 0)
(0.0808998 -0.000695738 0)
(0.0822901 -0.000694422 0)
(0.0836777 -0.000692947 0)
(0.0850621 -0.000691306 0)
(0.0864431 -0.000689493 0)
(0.0878202 -0.000687499 0)
(0.0891932 -0.000685318 0)
(0.0905617 -0.000682943 0)
(0.0919252 -0.000680365 0)
(0.0932834 -0.000677578 0)
(0.0946357 -0.000674575 0)
(0.0959819 -0.000671348 0)
(0.0973214 -0.000667889 0)
(0.0986537 -0.000664193 0)
(0.0999784 -0.000660251 0)
(0.101295 -0.000656058 0)
(0.102603 -0.000651605 0)
(0.103902 -0.000646887 0)
(0.105191 -0.000641897 0)
(0.106469 -0.000636628 0)
(0.107737 -0.000631075 0)
(0.108994 -0.000625232 0)
(0.110239 -0.000619092 0)
(0.111471 -0.000612652 0)
(0.11269 -0.000605905 0)
(0.113895 -0.000598848 0)
(0.115085 -0.000591475 0)
(0.116261 -0.000583783 0)
(0.117421 -0.000575768 0)
(0.118564 -0.000567428 0)
(0.119691 -0.000558759 0)
(0.1208 -0.000549759 0)
(0.12189 -0.000540427 0)
(0.122962 -0.000530762 0)
(0.124014 -0.000520762 0)
(0.125045 -0.000510429 0)
(0.126056 -0.000499761 0)
(0.127044 -0.000488761 0)
(0.128011 -0.000477429 0)
(0.128954 -0.000465769 0)
(0.129874 -0.000453783 0)
(0.13077 -0.000441474 0)
(0.131641 -0.000428847 0)
(0.132486 -0.000415906 0)
(0.133304 -0.000402658 0)
(0.134097 -0.000389107 0)
(0.134861 -0.000375262 0)
(0.135598 -0.000361128 0)
(0.136306 -0.000346715 0)
(0.136985 -0.00033203 0)
(0.137634 -0.000317084 0)
(0.138254 -0.000301885 0)
(0.138842 -0.000286445 0)
(0.1394 -0.000270775 0)
(0.139925 -0.000254885 0)
(0.140419 -0.000238789 0)
(0.140881 -0.000222498 0)
(0.14131 -0.000206026 0)
(0.141705 -0.000189387 0)
(0.142067 -0.000172593 0)
(0.142396 -0.00015566 0)
(0.14269 -0.000138602 0)
(0.14295 -0.000121434 0)
(0.143176 -0.000104171 0)
(0.143367 -8.68282e-05 0)
(0.143523 -6.94217e-05 0)
(0.143645 -5.19669e-05 0)
(0.143731 -3.44797e-05 0)
(0.143783 -1.69758e-05 0)
(0.143799 5.28794e-07 0)
(0.14378 1.80183e-05 0)
(0.143727 3.54771e-05 0)
(0.143638 5.28893e-05 0)
(0.143515 7.02397e-05 0)
(0.143357 8.75129e-05 0)
(0.143165 0.000104694 0)
(0.142938 0.000121768 0)
(0.142678 0.00013872 0)
(0.142383 0.000155537 0)
(0.142056 0.000172205 0)
(0.141694 0.00018871 0)
(0.141301 0.00020504 0)
(0.140874 0.000221182 0)
(0.140416 0.000237124 0)
(0.139925 0.000252855 0)
(0.139404 0.000268364 0)
(0.138852 0.000283641 0)
(0.138269 0.000298675 0)
(0.137657 0.000313458 0)
(0.137015 0.000327982 0)
(0.136345 0.000342238 0)
(0.135646 0.000356218 0)
(0.134919 0.000369917 0)
(0.134166 0.000383327 0)
(0.133386 0.000396444 0)
(0.13258 0.000409262 0)
(0.131748 0.000421777 0)
(0.130892 0.000433986 0)
(0.130012 0.000445884 0)
(0.129109 0.000457471 0)
(0.128182 0.000468742 0)
(0.127233 0.000479698 0)
(0.126263 0.000490337 0)
(0.125272 0.000500658 0)
(0.12426 0.000510662 0)
(0.123229 0.00052035 0)
(0.122178 0.000529721 0)
(0.121109 0.000538779 0)
(0.120023 0.000547524 0)
(0.118919 0.00055596 0)
(0.117799 0.000564088 0)
(0.116662 0.000571912 0)
(0.115511 0.000579435 0)
(0.114344 0.000586661 0)
(0.113164 0.000593595 0)
(0.11197 0.000600239 0)
(0.110762 0.0006066 0)
(0.109543 0.000612682 0)
(0.108311 0.000618489 0)
(0.107069 0.000624028 0)
(0.105815 0.000629304 0)
(0.104551 0.000634322 0)
(0.103278 0.000639088 0)
(0.101995 0.000643608 0)
(0.100703 0.000647889 0)
(0.0994028 0.000651935 0)
(0.0980949 0.000655754 0)
(0.0967796 0.000659352 0)
(0.0954573 0.000662735 0)
(0.0941285 0.000665909 0)
(0.0927935 0.000668882 0)
(0.0914527 0.000671658 0)
(0.0901066 0.000674245 0)
(0.0887556 0.00067665 0)
(0.0873999 0.000678878 0)
(0.0860399 0.000680936 0)
(0.084676 0.00068283 0)
(0.0833084 0.000684566 0)
(0.0819376 0.000686151 0)
(0.0805637 0.000687591 0)
(0.079187 0.000688892 0)
(0.077808 0.00069006 0)
(0.0764267 0.000691101 0)
(0.0750434 0.000692021 0)
(0.0736585 0.000692824 0)
(0.072272 0.000693519 0)
(0.0708843 0.000694108 0)
(0.0694955 0.000694599 0)
(0.0681058 0.000694996 0)
(0.0667154 0.000695305 0)
(0.0653245 0.000695531 0)
(0.0639332 0.000695679 0)
(0.0625417 0.000695753 0)
(0.0611502 0.000695758 0)
(0.0597586 0.0006957 0)
(0.0583673 0.000695582 0)
(0.0569763 0.00069541 0)
(0.0555856 0.000695186 0)
(0.0541955 0.000694916 0)
(0.0528059 0.000694604 0)
(0.051417 0.000694253 0)
(0.0500289 0.000693867 0)
(0.0486415 0.000693451 0)
(0.047255 0.000693006 0)
(0.0458695 0.000692538 0)
(0.0444849 0.000692049 0)
(0.0431013 0.000691543 0)
(0.0417187 0.000691022 0)
(0.0403372 0.00069049 0)
(0.0389567 0.000689949 0)
(0.0375774 0.000689403 0)
(0.0361991 0.000688853 0)
(0.034822 0.000688303 0)
(0.0334459 0.000687755 0)
(0.0320709 0.000687211 0)
(0.0306971 0.000686674 0)
(0.0293243 0.000686145 0)
(0.0279525 0.000685627 0)
(0.0265818 0.000685121 0)
(0.025212 0.000684629 0)
(0.0238433 0.000684154 0)
(0.0224754 0.000683696 0)
(0.0211085 0.000683258 0)
(0.0197424 0.00068284 0)
(0.0183772 0.000682444 0)
(0.0170127 0.000682071 0)
(0.0156489 0.000681722 0)
(0.0142858 0.000681399 0)
(0.0129234 0.000681102 0)
(0.0115614 0.000680833 0)
(0.0102001 0.000680591 0)
(0.00883912 0.000680379 0)
(0.00747857 0.000680195 0)
(0.00611837 0.000680041 0)
(0.00475844 0.000679917 0)
(0.00339873 0.000679825 0)
(0.00203918 0.000679763 0)
(0.000679716 0.000679732 0)
(0.000679157 -0.0020376 0)
(0.00203751 -0.00203771 0)
(0.00339597 -0.00203794 0)
(0.00475463 -0.00203828 0)
(0.00611355 -0.00203873 0)
(0.0074728 -0.00203929 0)
(0.00883247 -0.00203996 0)
(0.0101926 -0.00204074 0)
(0.0115533 -0.00204163 0)
(0.0129147 -0.00204262 0)
(0.0142767 -0.00204371 0)
(0.0156395 -0.0020449 0)
(0.0170031 -0.00204619 0)
(0.0183676 -0.00204757 0)
(0.0197331 -0.00204904 0)
(0.0210996 -0.00205059 0)
(0.0224671 -0.00205223 0)
(0.0238358 -0.00205394 0)
(0.0252056 -0.00205573 0)
(0.0265767 -0.00205758 0)
(0.027949 -0.0020595 0)
(0.0293226 -0.00206147 0)
(0.0306976 -0.00206349 0)
(0.0320739 -0.00206555 0)
(0.0334516 -0.00206766 0)
(0.0348307 -0.00206979 0)
(0.0362113 -0.00207194 0)
(0.0375933 -0.00207412 0)
(0.0389768 -0.00207629 0)
(0.0403617 -0.00207847 0)
(0.0417481 -0.00208063 0)
(0.0431359 -0.00208278 0)
(0.0445252 -0.00208489 0)
(0.0459158 -0.00208697 0)
(0.0473079 -0.002089 0)
(0.0487012 -0.00209096 0)
(0.0500959 -0.00209285 0)
(0.0514918 -0.00209466 0)
(0.0528889 -0.00209637 0)
(0.0542871 -0.00209797 0)
(0.0556863 -0.00209944 0)
(0.0570865 -0.00210078 0)
(0.0584876 -0.00210197 0)
(0.0598894 -0.002103 0)
(0.0612918 -0.00210384 0)
(0.0626947 -0.00210449 0)
(0.064098 -0.00210493 0)
(0.0655016 -0.00210514 0)
(0.0669052 -0.00210511 0)
(0.0683087 -0.00210482 0)
(0.069712 -0.00210424 0)
(0.0711147 -0.00210337 0)
(0.0725168 -0.00210219 0)
(0.0739181 -0.00210067 0)
(0.0753182 -0.00209879 0)
(0.0767169 -0.00209655 0)
(0.0781141 -0.00209391 0)
(0.0795093 -0.00209085 0)
(0.0809024 -0.00208737 0)
(0.082293 -0.00208343 0)
(0.0836809 -0.00207901 0)
(0.0850656 -0.00207409 0)
(0.086447 -0.00206866 0)
(0.0878245 -0.00206269 0)
(0.0891979 -0.00205615 0)
(0.0905668 -0.00204903 0)
(0.0919307 -0.0020413 0)
(0.0932893 -0.00203295 0)
(0.0946421 -0.00202395 0)
(0.0959887 -0.00201427 0)
(0.0973286 -0.00200391 0)
(0.0986614 -0.00199282 0)
(0.0999866 -0.00198101 0)
(0.101304 -0.00196843 0)
(0.102612 -0.00195508 0)
(0.103911 -0.00194093 0)
(0.105201 -0.00192597 0)
(0.10648 -0.00191017 0)
(0.107749 -0.00189351 0)
(0.109006 -0.00187599 0)
(0.110251 -0.00185758 0)
(0.111484 -0.00183826 0)
(0.112704 -0.00181802 0)
(0.113909 -0.00179686 0)
(0.1151 -0.00177474 0)
(0.116277 -0.00175167 0)
(0.117437 -0.00172763 0)
(0.118581 -0.00170261 0)
(0.119709 -0.0016766 0)
(0.120818 -0.00164961 0)
(0.121909 -0.00162161 0)
(0.122981 -0.00159262 0)
(0.124034 -0.00156262 0)
(0.125066 -0.00153162 0)
(0.126077 -0.00149961 0)
(0.127067 -0.00146661 0)
(0.128034 -0.00143261 0)
(0.128978 -0.00139763 0)
(0.129899 -0.00136167 0)
(0.130795 -0.00132474 0)
(0.131666 -0.00128685 0)
(0.132512 -0.00124802 0)
(0.133331 -0.00120827 0)
(0.134124 -0.00116761 0)
(0.134889 -0.00112607 0)
(0.135627 -0.00108366 0)
(0.136335 -0.00104041 0)
(0.137015 -0.000996347 0)
(0.137665 -0.000951498 0)
(0.138284 -0.000905893 0)
(0.138873 -0.000859562 0)
(0.139431 -0.000812538 0)
(0.139958 -0.000764858 0)
(0.140452 -0.000716556 0)
(0.140914 -0.000667671 0)
(0.141343 -0.000618241 0)
(0.141739 -0.000568308 0)
(0.142101 -0.000517914 0)
(0.14243 -0.0004671 0)
(0.142724 -0.00041591 0)
(0.142985 -0.000364391 0)
(0.14321 -0.000312586 0)
(0.143402 -0.000260543 0)
(0.143558 -0.000208308 0)
(0.14368 -0.000155928 0)
(0.143766 -0.00010345 0)
(0.143818 -5.09227e-05 0)
(0.143834 1.60696e-06 0)
(0.143815 5.40913e-05 0)
(0.143762 0.000106483 0)
(0.143673 0.000158735 0)
(0.14355 0.000210802 0)
(0.143392 0.000262636 0)
(0.143199 0.000314194 0)
(0.142973 0.00036543 0)
(0.142712 0.000416302 0)
(0.142417 0.000466766 0)
(0.142089 0.000516783 0)
(0.141727 0.000566311 0)
(0.141333 0.000615313 0)
(0.140906 0.00066375 0)
(0.140447 0.000711588 0)
(0.139957 0.000758792 0)
(0.139435 0.000805329 0)
(0.138882 0.000851169 0)
(0.138299 0.000896281 0)
(0.137686 0.00094064 0)
(0.137044 0.000984218 0)
(0.136373 0.00102699 0)
(0.135673 0.00106894 0)
(0.134946 0.00111004 0)
(0.134192 0.00115028 0)
(0.133412 0.00118963 0)
(0.132605 0.00122809 0)
(0.131773 0.00126564 0)
(0.130916 0.00130227 0)
(0.130036 0.00133797 0)
(0.129131 0.00137273 0)
(0.128204 0.00140655 0)
(0.127255 0.00143941 0)
(0.126284 0.00147133 0)
(0.125292 0.00150229 0)
(0.12428 0.00153231 0)
(0.123248 0.00156137 0)
(0.122197 0.00158948 0)
(0.121127 0.00161665 0)
(0.12004 0.00164289 0)
(0.118935 0.00166819 0)
(0.117815 0.00169257 0)
(0.116678 0.00171604 0)
(0.115525 0.0017386 0)
(0.114358 0.00176028 0)
(0.113177 0.00178107 0)
(0.111983 0.001801 0)
(0.110775 0.00182008 0)
(0.109555 0.00183832 0)
(0.108323 0.00185574 0)
(0.107079 0.00187235 0)
(0.105825 0.00188817 0)
(0.104561 0.00190322 0)
(0.103287 0.00191751 0)
(0.102003 0.00193107 0)
(0.100711 0.0019439 0)
(0.0994106 0.00195603 0)
(0.0981023 0.00196748 0)
(0.0967865 0.00197827 0)
(0.0954638 0.00198841 0)
(0.0941345 0.00199793 0)
(0.0927991 0.00200684 0)
(0.091458 0.00201516 0)
(0.0901116 0.00202292 0)
(0.0887601 0.00203013 0)
(0.0874041 0.0020368 0)
(0.0860438 0.00204297 0)
(0.0846795 0.00204865 0)
(0.0833117 0.00205385 0)
(0.0819405 0.0020586 0)
(0.0805663 0.00206291 0)
(0.0791894 0.00206681 0)
(0.0778101 0.00207031 0)
(0.0764286 0.00207342 0)
(0.0750451 0.00207618 0)
(0.0736599 0.00207858 0)
(0.0722732 0.00208066 0)
(0.0708853 0.00208242 0)
(0.0694963 0.00208389 0)
(0.0681064 0.00208508 0)
(0.0667159 0.002086 0)
(0.0653248 0.00208667 0)
(0.0639334 0.00208711 0)
(0.0625417 0.00208732 0)
(0.06115 0.00208734 0)
(0.0597584 0.00208716 0)
(0.0583669 0.0020868 0)
(0.0569758 0.00208628 0)
(0.0555851 0.0020856 0)
(0.0541948 0.00208479 0)
(0.0528052 0.00208385 0)
(0.0514162 0.00208279 0)
(0.050028 0.00208163 0)
(0.0486406 0.00208038 0)
(0.0472541 0.00207904 0)
(0.0458685 0.00207763 0)
(0.0444838 0.00207616 0)
(0.0431002 0.00207464 0)
(0.0417176 0.00207307 0)
(0.040336 0.00207147 0)
(0.0389556 0.00206985 0)
(0.0375762 0.00206821 0)
(0.036198 0.00206656 0)
(0.0348208 0.0020649 0)
(0.0334448 0.00206326 0)
(0.0320698 0.00206162 0)
(0.030696 0.00206001 0)
(0.0293232 0.00205842 0)
(0.0279514 0.00205686 0)
(0.0265807 0.00205534 0)
(0.025211 0.00205387 0)
(0.0238423 0.00205244 0)
(0.0224745 0.00205107 0)
(0.0211076 0.00204975 0)
(0.0197416 0.00204849 0)
(0.0183764 0.0020473 0)
(0.0170119 0.00204618 0)
(0.0156482 0.00204514 0)
(0.0142852 0.00204417 0)
(0.0129228 0.00204328 0)
(0.0115609 0.00204247 0)
(0.0101996 0.00204174 0)
(0.00883871 0.0020411 0)
(0.00747823 0.00204055 0)
(0.00611809 0.00204009 0)
(0.00475822 0.00203972 0)
(0.00339858 0.00203944 0)
(0.00203909 0.00203926 0)
(0.000679685 0.00203916 0)
(0.00067908 -0.00339587 0)
(0.00203728 -0.00339607 0)
(0.00339559 -0.00339644 0)
(0.0047541 -0.00339701 0)
(0.00611286 -0.00339776 0)
(0.00747197 -0.0033987 0)
(0.0088315 -0.00339982 0)
(0.0101915 -0.00340112 0)
(0.0115521 -0.0034026 0)
(0.0129133 -0.00340425 0)
(0.0142752 -0.00340608 0)
(0.0156378 -0.00340806 0)
(0.0170013 -0.00341021 0)
(0.0183657 -0.00341252 0)
(0.0197311 -0.00341497 0)
(0.0210974 -0.00341756 0)
(0.0224649 -0.0034203 0)
(0.0238335 -0.00342316 0)
(0.0252032 -0.00342614 0)
(0.0265742 -0.00342923 0)
(0.0279464 -0.00343243 0)
(0.0293199 -0.00343572 0)
(0.0306948 -0.0034391 0)
(0.0320711 -0.00344255 0)
(0.0334488 -0.00344606 0)
(0.0348278 -0.00344962 0)
(0.0362084 -0.00345323 0)
(0.0375904 -0.00345685 0)
(0.0389738 -0.00346049 0)
(0.0403588 -0.00346413 0)
(0.0417452 -0.00346775 0)
(0.043133 -0.00347133 0)
(0.0445223 -0.00347487 0)
(0.045913 -0.00347834 0)
(0.0473052 -0.00348173 0)
(0.0486986 -0.00348501 0)
(0.0500934 -0.00348818 0)
(0.0514894 -0.0034912 0)
(0.0528866 -0.00349407 0)
(0.054285 -0.00349675 0)
(0.0556844 -0.00349922 0)
(0.0570848 -0.00350147 0)
(0.058486 -0.00350347 0)
(0.0598881 -0.0035052 0)
(0.0612907 -0.00350663 0)
(0.0626939 -0.00350773 0)
(0.0640975 -0.00350848 0)
(0.0655014 -0.00350885 0)
(0.0669054 -0.00350881 0)
(0.0683092 -0.00350834 0)
(0.0697129 -0.0035074 0)
(0.071116 -0.00350597 0)
(0.0725186 -0.00350402 0)
(0.0739203 -0.00350151 0)
(0.0753209 -0.00349841 0)
(0.0767201 -0.00349468 0)
(0.0781178 -0.00349031 0)
(0.0795136 -0.00348524 0)
(0.0809073 -0.00347945 0)
(0.0822985 -0.0034729 0)
(0.083687 -0.00346557 0)
(0.0850725 -0.0034574 0)
(0.0864545 -0.00344837 0)
(0.0878328 -0.00343843 0)
(0.0892069 -0.00342757 0)
(0.0905766 -0.00341572 0)
(0.0919413 -0.00340287 0)
(0.0933008 -0.00338897 0)
(0.0946545 -0.00337399 0)
(0.096002 -0.00335789 0)
(0.0973429 -0.00334064 0)
(0.0986766 -0.00332219 0)
(0.100003 -0.00330252 0)
(0.101321 -0.00328158 0)
(0.10263 -0.00325935 0)
(0.103931 -0.00323579 0)
(0.105221 -0.00321087 0)
(0.106502 -0.00318456 0)
(0.107772 -0.00315682 0)
(0.10903 -0.00312764 0)
(0.110276 -0.00309696 0)
(0.11151 -0.00306479 0)
(0.112731 -0.00303108 0)
(0.113938 -0.00299581 0)
(0.115131 -0.00295896 0)
(0.116308 -0.00292052 0)
(0.11747 -0.00288046 0)
(0.118615 -0.00283878 0)
(0.119744 -0.00279544 0)
(0.120855 -0.00275045 0)
(0.121947 -0.0027038 0)
(0.123021 -0.00265547 0)
(0.124075 -0.00260548 0)
(0.125108 -0.00255381 0)
(0.126121 -0.00250046 0)
(0.127111 -0.00244545 0)
(0.12808 -0.00238878 0)
(0.129025 -0.00233047 0)
(0.129947 -0.00227052 0)
(0.130845 -0.00220895 0)
(0.131717 -0.00214579 0)
(0.132564 -0.00208106 0)
(0.133385 -0.00201479 0)
(0.134179 -0.001947 0)
(0.134945 -0.00187774 0)
(0.135684 -0.00180703 0)
(0.136393 -0.00173492 0)
(0.137074 -0.00166145 0)
(0.137725 -0.00158667 0)
(0.138346 -0.00151063 0)
(0.138936 -0.00143337 0)
(0.139494 -0.00135496 0)
(0.140022 -0.00127545 0)
(0.140517 -0.00119491 0)
(0.140979 -0.00111339 0)
(0.141409 -0.00103096 0)
(0.141805 -0.000947693 0)
(0.142168 -0.000863654 0)
(0.142498 -0.000778915 0)
(0.142793 -0.00069355 0)
(0.143053 -0.000607633 0)
(0.14328 -0.000521241 0)
(0.143471 -0.000434451 0)
(0.143628 -0.000347339 0)
(0.14375 -0.000259986 0)
(0.143836 -0.000172471 0)
(0.143888 -8.48724e-05 0)
(0.143904 2.72977e-06 0)
(0.143885 9.02562e-05 0)
(0.143832 0.000177628 0)
(0.143743 0.000264767 0)
(0.143619 0.000351595 0)
(0.143461 0.000438036 0)
(0.143268 0.000524014 0)
(0.143041 0.000609456 0)
(0.142779 0.00069429 0)
(0.142484 0.000778443 0)
(0.142155 0.000861848 0)
(0.141793 0.000944438 0)
(0.141398 0.00102615 0)
(0.14097 0.00110692 0)
(0.140511 0.00118669 0)
(0.140019 0.00126539 0)
(0.139496 0.00134299 0)
(0.138943 0.00141942 0)
(0.138359 0.00149464 0)
(0.137745 0.0015686 0)
(0.137101 0.00164126 0)
(0.136429 0.00171257 0)
(0.135729 0.00178251 0)
(0.135001 0.00185103 0)
(0.134245 0.00191811 0)
(0.133464 0.00198372 0)
(0.132656 0.00204783 0)
(0.131823 0.00211043 0)
(0.130965 0.00217149 0)
(0.130083 0.00223099 0)
(0.129177 0.00228893 0)
(0.128249 0.0023453 0)
(0.127298 0.00240008 0)
(0.126326 0.00245328 0)
(0.125333 0.00250488 0)
(0.124319 0.0025549 0)
(0.123286 0.00260333 0)
(0.122233 0.00265018 0)
(0.121163 0.00269546 0)
(0.120074 0.00273918 0)
(0.118969 0.00278134 0)
(0.117846 0.00282197 0)
(0.116708 0.00286107 0)
(0.115555 0.00289867 0)
(0.114387 0.00293478 0)
(0.113204 0.00296942 0)
(0.112009 0.00300262 0)
(0.1108 0.0030344 0)
(0.109579 0.00306478 0)
(0.108345 0.00309379 0)
(0.107101 0.00312146 0)
(0.105846 0.00314781 0)
(0.104581 0.00317287 0)
(0.103305 0.00319667 0)
(0.102021 0.00321924 0)
(0.100728 0.00324061 0)
(0.0994264 0.00326081 0)
(0.0981171 0.00327988 0)
(0.0968005 0.00329784 0)
(0.0954769 0.00331472 0)
(0.0941468 0.00333056 0)
(0.0928106 0.00334539 0)
(0.0914688 0.00335924 0)
(0.0901215 0.00337214 0)
(0.0887694 0.00338413 0)
(0.0874127 0.00339524 0)
(0.0860517 0.0034055 0)
(0.0846868 0.00341493 0)
(0.0833183 0.00342359 0)
(0.0819466 0.00343148 0)
(0.0805718 0.00343865 0)
(0.0791944 0.00344512 0)
(0.0778145 0.00345093 0)
(0.0764325 0.00345611 0)
(0.0750485 0.00346068 0)
(0.0736629 0.00346467 0)
(0.0722758 0.00346811 0)
(0.0708875 0.00347103 0)
(0.0694981 0.00347346 0)
(0.0681079 0.00347542 0)
(0.066717 0.00347694 0)
(0.0653256 0.00347804 0)
(0.0639338 0.00347876 0)
(0.0625419 0.0034791 0)
(0.0611499 0.00347911 0)
(0.059758 0.00347879 0)
(0.0583664 0.00347818 0)
(0.056975 0.0034773 0)
(0.0555841 0.00347616 0)
(0.0541937 0.00347479 0)
(0.0528039 0.00347321 0)
(0.0514147 0.00347143 0)
(0.0500264 0.00346949 0)
(0.0486389 0.00346738 0)
(0.0472522 0.00346515 0)
(0.0458665 0.00346279 0)
(0.0444818 0.00346033 0)
(0.0430981 0.00345778 0)
(0.0417155 0.00345516 0)
(0.0403339 0.00345249 0)
(0.0389534 0.00344977 0)
(0.037574 0.00344702 0)
(0.0361958 0.00344426 0)
(0.0348186 0.0034415 0)
(0.0334426 0.00343875 0)
(0.0320677 0.00343602 0)
(0.0306938 0.00343332 0)
(0.0293211 0.00343066 0)
(0.0279494 0.00342806 0)
(0.0265787 0.00342553 0)
(0.0252091 0.00342306 0)
(0.0238404 0.00342067 0)
(0.0224727 0.00341838 0)
(0.0211059 0.00341618 0)
(0.01974 0.00341408 0)
(0.0183748 0.00341209 0)
(0.0170105 0.00341022 0)
(0.0156469 0.00340848 0)
(0.014284 0.00340686 0)
(0.0129216 0.00340537 0)
(0.0115599 0.00340402 0)
(0.0101987 0.00340281 0)
(0.00883792 0.00340174 0)
(0.00747755 0.00340082 0)
(0.00611753 0.00340005 0)
(0.00475779 0.00339943 0)
(0.00339827 0.00339896 0)
(0.0020389 0.00339866 0)
(0.000679622 0.0033985 0)
(0.000678965 -0.00475396 0)
(0.00203693 -0.00475423 0)
(0.00339502 -0.00475476 0)
(0.0047533 -0.00475555 0)
(0.00611184 -0.00475661 0)
(0.00747072 -0.00475793 0)
(0.00883003 -0.0047595 0)
(0.0101898 -0.00476132 0)
(0.0115502 -0.0047634 0)
(0.0129112 -0.00476572 0)
(0.0142729 -0.00476828 0)
(0.0156353 -0.00477107 0)
(0.0169986 -0.00477408 0)
(0.0183628 -0.00477731 0)
(0.019728 -0.00478076 0)
(0.0210942 -0.0047844 0)
(0.0224615 -0.00478823 0)
(0.0238299 -0.00479225 0)
(0.0251995 -0.00479644 0)
(0.0265703 -0.00480078 0)
(0.0279425 -0.00480527 0)
(0.0293159 -0.00480989 0)
(0.0306907 -0.00481464 0)
(0.0320669 -0.00481948 0)
(0.0334445 -0.00482441 0)
(0.0348235 -0.00482942 0)
(0.036204 -0.00483448 0)
(0.037586 -0.00483958 0)
(0.0389694 -0.00484469 0)
(0.0403544 -0.0048498 0)
(0.0417408 -0.00485489 0)
(0.0431287 -0.00485993 0)
(0.0445181 -0.00486491 0)
(0.0459089 -0.00486979 0)
(0.0473011 -0.00487456 0)
(0.0486947 -0.00487919 0)
(0.0500896 -0.00488365 0)
(0.0514858 -0.00488791 0)
(0.0528832 -0.00489195 0)
(0.0542818 -0.00489573 0)
(0.0556815 -0.00489923 0)
(0.0570821 -0.00490241 0)
(0.0584837 -0.00490525 0)
(0.0598861 -0.0049077 0)
(0.0612891 -0.00490973 0)
(0.0626927 -0.00491131 0)
(0.0640968 -0.0049124 0)
(0.0655011 -0.00491295 0)
(0.0669056 -0.00491294 0)
(0.06831 -0.00491233 0)
(0.0697142 -0.00491106 0)
(0.071118 -0.0049091 0)
(0.0725212 -0.00490641 0)
(0.0739235 -0.00490293 0)
(0.0753248 -0.00489864 0)
(0.0767249 -0.00489347 0)
(0.0781233 -0.00488739 0)
(0.07952 -0.00488035 0)
(0.0809146 -0.00487229 0)
(0.0823067 -0.00486318 0)
(0.0836962 -0.00485295 0)
(0.0850827 -0.00484157 0)
(0.0864658 -0.00482897 0)
(0.0878451 -0.00481512 0)
(0.0892204 -0.00479996 0)
(0.0905913 -0.00478343 0)
(0.0919573 -0.00476549 0)
(0.093318 -0.00474608 0)
(0.094673 -0.00472516 0)
(0.0960219 -0.00470267 0)
(0.0973642 -0.00467856 0)
(0.0986994 -0.00465278 0)
(0.100027 -0.00462529 0)
(0.101347 -0.00459603 0)
(0.102658 -0.00456495 0)
(0.10396 -0.00453202 0)
(0.105252 -0.00449717 0)
(0.106534 -0.00446038 0)
(0.107806 -0.00442159 0)
(0.109066 -0.00438076 0)
(0.110314 -0.00433786 0)
(0.11155 -0.00429285 0)
(0.112772 -0.00424569 0)
(0.113981 -0.00419634 0)
(0.115176 -0.00414479 0)
(0.116355 -0.00409099 0)
(0.117519 -0.00403493 0)
(0.118666 -0.00397659 0)
(0.119797 -0.00391594 0)
(0.12091 -0.00385296 0)
(0.122004 -0.00378766 0)
(0.12308 -0.00372001 0)
(0.124136 -0.00365001 0)
(0.125171 -0.00357767 0)
(0.126186 -0.00350298 0)
(0.127178 -0.00342595 0)
(0.128149 -0.0033466 0)
(0.129096 -0.00326494 0)
(0.13002 -0.00318099 0)
(0.13092 -0.00309477 0)
(0.131794 -0.00300631 0)
(0.132643 -0.00291565 0)
(0.133465 -0.00282283 0)
(0.134261 -0.00272788 0)
(0.135029 -0.00263085 0)
(0.135769 -0.00253181 0)
(0.136481 -0.00243079 0)
(0.137163 -0.00232787 0)
(0.137815 -0.00222311 0)
(0.138438 -0.00211657 0)
(0.139029 -0.00200834 0)
(0.139589 -0.00189848 0)
(0.140118 -0.00178708 0)
(0.140614 -0.00167423 0)
(0.141078 -0.00156002 0)
(0.141508 -0.00144452 0)
(0.141906 -0.00132785 0)
(0.14227 -0.0012101 0)
(0.1426 -0.00109136 0)
(0.142896 -0.000971743 0)
(0.143157 -0.000851353 0)
(0.143384 -0.000730296 0)
(0.143576 -0.00060868 0)
(0.143733 -0.000486614 0)
(0.143855 -0.000364209 0)
(0.143941 -0.000241577 0)
(0.143993 -0.000118827 0)
(0.144009 3.92667e-06 0)
(0.14399 0.000126574 0)
(0.143936 0.000249004 0)
(0.143847 0.000371107 0)
(0.143723 0.000492774 0)
(0.143564 0.000613897 0)
(0.143371 0.00073437 0)
(0.143143 0.00085409 0)
(0.142881 0.000972956 0)
(0.142585 0.00109087 0)
(0.142255 0.00120773 0)
(0.141892 0.00132344 0)
(0.141496 0.00143793 0)
(0.141067 0.00155109 0)
(0.140606 0.00166284 0)
(0.140113 0.00177311 0)
(0.139589 0.00188182 0)
(0.139034 0.00198889 0)
(0.138448 0.00209426 0)
(0.137833 0.00219786 0)
(0.137188 0.00229964 0)
(0.136514 0.00239953 0)
(0.135812 0.00249749 0)
(0.135082 0.00259347 0)
(0.134325 0.00268742 0)
(0.133542 0.0027793 0)
(0.132732 0.00286909 0)
(0.131897 0.00295675 0)
(0.131037 0.00304225 0)
(0.130153 0.00312558 0)
(0.129246 0.00320671 0)
(0.128315 0.00328563 0)
(0.127363 0.00336234 0)
(0.126389 0.00343681 0)
(0.125394 0.00350906 0)
(0.124378 0.00357908 0)
(0.123343 0.00364688 0)
(0.122289 0.00371246 0)
(0.121216 0.00377584 0)
(0.120126 0.00383702 0)
(0.119018 0.00389603 0)
(0.117894 0.00395288 0)
(0.116754 0.0040076 0)
(0.115599 0.00406021 0)
(0.114429 0.00411074 0)
(0.113245 0.00415921 0)
(0.112048 0.00420566 0)
(0.110837 0.00425011 0)
(0.109614 0.00429261 0)
(0.108379 0.00433319 0)
(0.107134 0.00437189 0)
(0.105877 0.00440874 0)
(0.10461 0.00444378 0)
(0.103333 0.00447706 0)
(0.102047 0.00450862 0)
(0.100753 0.0045385 0)
(0.09945 0.00456673 0)
(0.0981393 0.00459338 0)
(0.0968214 0.00461847 0)
(0.0954966 0.00464207 0)
(0.0941652 0.0046642 0)
(0.0928279 0.00468491 0)
(0.0914848 0.00470426 0)
(0.0901365 0.00472228 0)
(0.0887833 0.00473902 0)
(0.0874255 0.00475453 0)
(0.0860635 0.00476884 0)
(0.0846977 0.00478201 0)
(0.0833283 0.00479408 0)
(0.0819556 0.00480509 0)
(0.08058 0.00481508 0)
(0.0792018 0.00482411 0)
(0.0778211 0.0048322 0)
(0.0764384 0.0048394 0)
(0.0750537 0.00484576 0)
(0.0736674 0.00485131 0)
(0.0722797 0.00485609 0)
(0.0708907 0.00486014 0)
(0.0695008 0.0048635 0)
(0.06811 0.00486621 0)
(0.0667186 0.0048683 0)
(0.0653267 0.00486981 0)
(0.0639345 0.00487077 0)
(0.0625421 0.00487122 0)
(0.0611498 0.0048712 0)
(0.0597575 0.00487073 0)
(0.0583655 0.00486984 0)
(0.0569738 0.00486857 0)
(0.0555826 0.00486695 0)
(0.0541919 0.004865 0)
(0.0528019 0.00486276 0)
(0.0514125 0.00486025 0)
(0.050024 0.0048575 0)
(0.0486363 0.00485453 0)
(0.0472495 0.00485137 0)
(0.0458637 0.00484805 0)
(0.0444788 0.00484458 0)
(0.043095 0.00484099 0)
(0.0417123 0.0048373 0)
(0.0403307 0.00483354 0)
(0.0389502 0.00482972 0)
(0.0375707 0.00482585 0)
(0.0361925 0.00482197 0)
(0.0348153 0.00481809 0)
(0.0334393 0.00481422 0)
(0.0320644 0.00481038 0)
(0.0306906 0.00480659 0)
(0.0293179 0.00480286 0)
(0.0279463 0.0047992 0)
(0.0265758 0.00479563 0)
(0.0252062 0.00479217 0)
(0.0238376 0.00478882 0)
(0.02247 0.00478559 0)
(0.0211033 0.0047825 0)
(0.0197375 0.00477956 0)
(0.0183725 0.00477677 0)
(0.0170083 0.00477414 0)
(0.0156449 0.00477169 0)
(0.0142821 0.00476941 0)
(0.0129199 0.00476732 0)
(0.0115584 0.00476543 0)
(0.0101973 0.00476373 0)
(0.00883673 0.00476223 0)
(0.00747654 0.00476094 0)
(0.0061167 0.00475985 0)
(0.00475714 0.00475898 0)
(0.0033978 0.00475833 0)
(0.00203862 0.0047579 0)
(0.000679529 0.00475768 0)
(0.000678812 -0.00611177 0)
(0.00203648 -0.00611212 0)
(0.00339425 -0.00611281 0)
(0.00475223 -0.00611383 0)
(0.00611047 -0.00611519 0)
(0.00746906 -0.00611689 0)
(0.00882807 -0.00611892 0)
(0.0101876 -0.00612127 0)
(0.0115476 -0.00612395 0)
(0.0129084 -0.00612694 0)
(0.0142698 -0.00613024 0)
(0.015632 -0.00613384 0)
(0.016995 -0.00613773 0)
(0.018359 -0.0061419 0)
(0.0197239 -0.00614634 0)
(0.0210899 -0.00615104 0)
(0.022457 -0.00615599 0)
(0.0238252 -0.00616117 0)
(0.0251946 -0.00616657 0)
(0.0265652 -0.00617218 0)
(0.0279372 -0.00617798 0)
(0.0293105 -0.00618394 0)
(0.0306851 -0.00619007 0)
(0.0320612 -0.00619632 0)
(0.0334387 -0.00620269 0)
(0.0348177 -0.00620916 0)
(0.0361981 -0.0062157 0)
(0.0375801 -0.00622228 0)
(0.0389635 -0.00622889 0)
(0.0403485 -0.0062355 0)
(0.0417349 -0.00624208 0)
(0.0431229 -0.0062486 0)
(0.0445123 -0.00625504 0)
(0.0459033 -0.00626136 0)
(0.0472956 -0.00626753 0)
(0.0486894 -0.00627353 0)
(0.0500845 -0.00627931 0)
(0.051481 -0.00628484 0)
(0.0528787 -0.00629008 0)
(0.0542776 -0.006295 0)
(0.0556776 -0.00629955 0)
(0.0570786 -0.0063037 0)
(0.0584806 -0.0063074 0)
(0.0598834 -0.00631061 0)
(0.0612869 -0.00631329 0)
(0.0626911 -0.00631538 0)
(0.0640957 -0.00631684 0)
(0.0655007 -0.00631763 0)
(0.0669058 -0.00631769 0)
(0.0683109 -0.00631696 0)
(0.0697159 -0.0063154 0)
(0.0711205 -0.00631296 0)
(0.0725246 -0.00630957 0)
(0.0739278 -0.00630518 0)
(0.0753301 -0.00629974 0)
(0.0767312 -0.00629318 0)
(0.0781307 -0.00628544 0)
(0.0795285 -0.00627647 0)
(0.0809242 -0.00626619 0)
(0.0823177 -0.00625456 0)
(0.0837084 -0.0062415 0)
(0.0850962 -0.00622695 0)
(0.0864807 -0.00621084 0)
(0.0878616 -0.00619312 0)
(0.0892384 -0.00617371 0)
(0.0906108 -0.00615254 0)
(0.0919785 -0.00612957 0)
(0.0933409 -0.0061047 0)
(0.0946977 -0.00607789 0)
(0.0960484 -0.00604906 0)
(0.0973925 -0.00601815 0)
(0.0987297 -0.00598509 0)
(0.100059 -0.00594983 0)
(0.101381 -0.00591229 0)
(0.102694 -0.00587242 0)
(0.103998 -0.00583015 0)
(0.105293 -0.00578542 0)
(0.106577 -0.00573819 0)
(0.107851 -0.00568839 0)
(0.109114 -0.00563597 0)
(0.110364 -0.00558087 0)
(0.111602 -0.00552306 0)
(0.112827 -0.00546248 0)
(0.114039 -0.00539909 0)
(0.115236 -0.00533285 0)
(0.116418 -0.00526373 0)
(0.117584 -0.00519169 0)
(0.118734 -0.00511671 0)
(0.119867 -0.00503875 0)
(0.120983 -0.00495781 0)
(0.12208 -0.00487386 0)
(0.123158 -0.00478689 0)
(0.124217 -0.0046969 0)
(0.125255 -0.00460388 0)
(0.126272 -0.00450784 0)
(0.127268 -0.00440879 0)
(0.128241 -0.00430673 0)
(0.129191 -0.00420171 0)
(0.130117 -0.00409372 0)
(0.131019 -0.00398282 0)
(0.131896 -0.00386903 0)
(0.132748 -0.0037524 0)
(0.133573 -0.00363298 0)
(0.134371 -0.00351083 0)
(0.135141 -0.00338599 0)
(0.135884 -0.00325855 0)
(0.136597 -0.00312857 0)
(0.137282 -0.00299613 0)
(0.137936 -0.00286132 0)
(0.13856 -0.00272422 0)
(0.139154 -0.00258493 0)
(0.139716 -0.00244354 0)
(0.140246 -0.00230017 0)
(0.140744 -0.00215493 0)
(0.141209 -0.00200792 0)
(0.141641 -0.00185927 0)
(0.14204 -0.00170909 0)
(0.142405 -0.00155752 0)
(0.142736 -0.00140468 0)
(0.143033 -0.00125071 0)
(0.143295 -0.00109574 0)
(0.143522 -0.000939912 0)
(0.143715 -0.000783361 0)
(0.143872 -0.00062623 0)
(0.143995 -0.000468662 0)
(0.144082 -0.0003108 0)
(0.144133 -0.000152789 0)
(0.14415 5.22843e-06 0)
(0.144131 0.000163108 0)