/*--------------------------------*- C++ -*----------------------------------*\
| =========                 |                                                 |
| \\      /  F ield         | OpenFOAM: The Open Source CFD Toolbox           |
|  \\    /   O peration     | Version:  v2012                                 |
|   \\  /    A nd           | Website:  www.openfoam.com                      |
|    \\/     M anipulation  |                                                 |
\*---------------------------------------------------------------------------*/
FoamFile
{
    version     2.0;
    format      ascii;
    class       volScalarField;
    location    "16.4";
    object      W;
}
// * * * * * * * * * * * * * * * * * * * * * * * * * * * * * * * * * * * * * //

dimensions      [0 0 -1 0 0 0 0];


internalField   nonuniform List<scalar> 
65536
(
1.02561e-15
3.08856e-15
5.18707e-15
7.34564e-15
9.58955e-15
1.19449e-14
1.44391e-14
1.71007e-14
1.99603e-14
2.30503e-14
2.64056e-14
3.00636e-14
3.40649e-14
3.84535e-14
4.3277e-14
4.85874e-14
5.44414e-14
6.09007e-14
6.80329e-14
7.59116e-14
8.46173e-14
9.42379e-14
1.04869e-13
1.16617e-13
1.29594e-13
1.43927e-13
1.5975e-13
1.77213e-13
1.96475e-13
2.17713e-13
2.41117e-13
2.66892e-13
2.95263e-13
3.26473e-13
3.60783e-13
3.98476e-13
4.39859e-13
4.85259e-13
5.35031e-13
5.89556e-13
6.49242e-13
7.14526e-13
7.85876e-13
8.63791e-13
9.48804e-13
1.04148e-12
1.14242e-12
1.25227e-12
1.3717e-12
1.50141e-12
1.64217e-12
1.79476e-12
1.96001e-12
2.13877e-12
2.33196e-12
2.54051e-12
2.7654e-12
3.00762e-12
3.26821e-12
3.54824e-12
3.84878e-12
4.17095e-12
4.51586e-12
4.88464e-12
5.27843e-12
5.69833e-12
6.14548e-12
6.62097e-12
7.12585e-12
7.66116e-12
8.22786e-12
8.82687e-12
9.45903e-12
1.01251e-11
1.08257e-11
1.15614e-11
1.23326e-11
1.31396e-11
1.39825e-11
1.48612e-11
1.57755e-11
1.6725e-11
1.7709e-11
1.87267e-11
1.97769e-11
2.08584e-11
2.19695e-11
2.31085e-11
2.42731e-11
2.54611e-11
2.66698e-11
2.78963e-11
2.91375e-11
3.039e-11
3.16502e-11
3.29141e-11
3.41778e-11
3.54371e-11
3.66874e-11
3.79243e-11
3.91431e-11
4.03391e-11
4.15074e-11
4.26434e-11
4.37422e-11
4.47991e-11
4.58095e-11
4.67689e-11
4.76731e-11
4.85179e-11
4.92994e-11
5.00142e-11
5.06589e-11
5.12306e-11
5.17268e-11
5.21454e-11
5.24846e-11
5.2743e-11
5.29198e-11
5.30145e-11
5.30271e-11
5.29581e-11
5.28083e-11
5.2579e-11
5.22719e-11
5.1889e-11
5.14328e-11
5.0906e-11
5.03117e-11
4.96532e-11
4.89342e-11
4.81582e-11
4.73293e-11
4.64515e-11
4.5529e-11
4.4566e-11
4.35666e-11
4.25352e-11
4.14757e-11
4.03924e-11
3.92892e-11
3.81699e-11
3.70383e-11
3.5898e-11
3.47522e-11
3.36042e-11
3.2457e-11
3.13132e-11
3.01756e-11
2.90464e-11
2.79278e-11
2.68217e-11
2.57298e-11
2.46538e-11
2.35951e-11
2.25548e-11
2.1534e-11
2.05336e-11
1.95544e-11
1.85972e-11
1.76624e-11
1.67507e-11
1.58624e-11
1.49978e-11
1.41574e-11
1.33414e-11
1.255e-11
1.17835e-11
1.10421e-11
1.0326e-11
9.63536e-12
8.97048e-12
8.33149e-12
7.71857e-12
7.13188e-12
6.57159e-12
6.0378e-12
5.53062e-12
5.05007e-12
4.59617e-12
4.16886e-12
3.768e-12
3.39339e-12
3.04474e-12
2.72168e-12
2.42373e-12
2.15033e-12
1.90081e-12
1.67442e-12
1.4703e-12
1.28752e-12
1.12504e-12
9.81771e-13
8.56553e-13
7.48168e-13
6.55359e-13
5.76834e-13
5.11285e-13
4.57395e-13
4.13851e-13
3.79357e-13
3.52648e-13
3.32494e-13
3.17721e-13
3.07215e-13
2.99936e-13
2.94928e-13
2.91325e-13
2.88365e-13
2.85391e-13
2.8186e-13
2.77344e-13
2.71529e-13
2.64215e-13
2.55308e-13
2.44814e-13
2.32823e-13
2.19502e-13
2.05075e-13
1.8981e-13
1.73997e-13
1.57939e-13
1.41932e-13
1.26254e-13
1.11152e-13
9.68361e-14
8.3475e-14
7.11908e-14
6.00612e-14
5.01213e-14
4.13684e-14
3.3767e-14
2.72556e-14
2.17531e-14
1.71653e-14
1.3391e-14
1.03269e-14
7.8721e-15
5.93116e-15
4.41656e-15
3.25008e-15
2.36338e-15
1.69815e-15
1.20555e-15
8.45529e-16
5.85836e-16
4.00947e-16
2.71025e-16
1.80908e-16
1.19191e-16
7.74287e-17
4.94548e-17
3.08149e-17
1.83073e-17
9.61147e-18
2.9854e-18
3.52773e-15
1.06237e-14
1.78425e-14
2.52688e-14
3.29899e-14
4.10959e-14
4.96813e-14
5.88452e-14
6.8693e-14
7.9337e-14
9.08975e-14
1.03504e-13
1.17298e-13
1.3243e-13
1.49067e-13
1.67388e-13
1.87589e-13
2.09884e-13
2.34508e-13
2.61716e-13
2.91788e-13
3.25028e-13
3.6177e-13
4.02377e-13
4.47248e-13
4.96815e-13
5.51551e-13
6.1197e-13
6.78632e-13
7.52147e-13
8.33176e-13
9.22437e-13
1.02071e-12
1.12883e-12
1.24773e-12
1.37837e-12
1.52182e-12
1.67924e-12
1.85184e-12
2.04096e-12
2.24801e-12
2.47453e-12
2.72213e-12
2.99255e-12
3.28764e-12
3.60938e-12
3.95986e-12
4.3413e-12
4.75604e-12
5.20655e-12
5.69545e-12
6.22546e-12
6.79947e-12
7.42046e-12
8.09156e-12
8.81602e-12
9.59719e-12
1.04386e-11
1.13437e-11
1.23162e-11
1.33599e-11
1.44786e-11
1.5676e-11
1.69561e-11
1.83227e-11
1.97796e-11
2.13307e-11
2.29795e-11
2.47297e-11
2.65848e-11
2.85479e-11
3.0622e-11
3.28099e-11
3.5114e-11
3.75363e-11
4.00785e-11
4.27416e-11
4.55264e-11
4.8433e-11
5.14607e-11
5.46086e-11
5.78746e-11
6.12561e-11
6.47498e-11
6.83514e-11
7.20559e-11
7.58572e-11
7.97486e-11
8.37222e-11
8.77694e-11
9.18807e-11
9.60455e-11
1.00253e-10
1.0449e-10
1.08744e-10
1.13002e-10
1.17249e-10
1.2147e-10
1.2565e-10
1.29773e-10
1.33822e-10
1.37782e-10
1.41636e-10
1.45367e-10
1.48959e-10
1.52397e-10
1.55665e-10
1.58747e-10
1.6163e-10
1.643e-10
1.66746e-10
1.68954e-10
1.70916e-10
1.72622e-10
1.74065e-10
1.75237e-10
1.76136e-10
1.76757e-10
1.77098e-10
1.7716e-10
1.76943e-10
1.76451e-10
1.75688e-10
1.7466e-10
1.73373e-10
1.71836e-10
1.70058e-10
1.6805e-10
1.65824e-10
1.63391e-10
1.60765e-10
1.57959e-10
1.54988e-10
1.51865e-10
1.48605e-10
1.45224e-10
1.41734e-10
1.38152e-10
1.34491e-10
1.30764e-10
1.26986e-10
1.23169e-10
1.19325e-10
1.15466e-10
1.11603e-10
1.07747e-10
1.03906e-10
1.0009e-10
9.63064e-11
9.25628e-11
8.88658e-11
8.52211e-11
8.1634e-11
7.81092e-11
7.46505e-11
7.12613e-11
6.79447e-11
6.47029e-11
6.15381e-11
5.84518e-11
5.54454e-11
5.252e-11
4.96764e-11
4.69151e-11
4.42368e-11
4.16418e-11
3.91304e-11
3.67028e-11
3.43592e-11
3.21e-11
2.99251e-11
2.78349e-11
2.58294e-11
2.39089e-11
2.20734e-11
2.03231e-11
1.8658e-11
1.70779e-11
1.55829e-11
1.41724e-11
1.28462e-11
1.16034e-11
1.04433e-11
9.36461e-12
8.36605e-12
7.44596e-12
6.6024e-12
5.83314e-12
5.13571e-12
4.50733e-12
3.94499e-12
3.44543e-12
3.00518e-12
2.62059e-12
2.28784e-12
2.00303e-12
1.76213e-12
1.56108e-12
1.39582e-12
1.26228e-12
1.15649e-12
1.07455e-12
1.01268e-12
9.67283e-13
9.34948e-13
9.12493e-13
8.96993e-13
8.85808e-13
8.76609e-13
8.67396e-13
8.56513e-13
8.42653e-13
8.24866e-13
8.02538e-13
7.75387e-13
7.43426e-13
7.06934e-13
6.66416e-13
6.22553e-13
5.76154e-13
5.28106e-13
4.79324e-13
4.30708e-13
3.83097e-13
3.37244e-13
2.93787e-13
2.53232e-13
2.1595e-13
1.82177e-13
1.52017e-13
1.25461e-13
1.02401e-13
8.26499e-14
6.59602e-14
5.20461e-14
4.06e-14
3.13084e-14
2.38649e-14
1.79799e-14
1.33879e-14
9.85152e-15
7.16351e-15
5.14695e-15
3.65378e-15
2.56255e-15
1.77544e-15
1.21507e-15
8.2132e-16
5.48212e-16
3.61179e-16
2.34624e-16
1.49855e-16
9.33715e-17
5.5472e-17
2.91231e-17
9.04601e-18
7.54797e-15
2.27312e-14
3.81793e-14
5.40746e-14
7.06049e-14
8.79648e-14
1.06358e-13
1.25998e-13
1.47112e-13
1.69943e-13
1.94751e-13
2.21816e-13
2.51442e-13
2.83959e-13
3.19723e-13
3.59125e-13
4.0259e-13
4.50583e-13
5.03611e-13
5.62229e-13
6.27043e-13
6.98717e-13
7.77974e-13
8.65606e-13
9.62478e-13
1.06953e-12
1.1878e-12
1.31839e-12
1.46254e-12
1.62157e-12
1.79692e-12
1.99015e-12
2.20297e-12
2.43722e-12
2.69488e-12
2.9781e-12
3.28921e-12
3.6307e-12
4.00527e-12
4.41581e-12
4.86541e-12
5.35741e-12
5.89536e-12
6.48304e-12
7.12451e-12
7.82406e-12
8.58625e-12
9.41593e-12
1.03182e-11
1.12985e-11
1.23624e-11
1.35159e-11
1.47653e-11
1.6117e-11
1.75779e-11
1.91549e-11
2.08553e-11
2.26867e-11
2.46567e-11
2.67732e-11
2.90442e-11
3.14778e-11
3.40821e-11
3.68655e-11
3.9836e-11
4.30018e-11
4.63706e-11
4.99502e-11
5.3748e-11
5.7771e-11
6.20255e-11
6.65177e-11
7.12526e-11
7.6235e-11
8.14683e-11
8.69552e-11
9.26973e-11
9.86951e-11
1.04947e-10
1.11452e-10
1.18206e-10
1.25202e-10
1.32434e-10
1.39894e-10
1.4757e-10
1.55449e-10
1.63518e-10
1.7176e-10
1.80156e-10
1.88686e-10
1.97327e-10
2.06056e-10
2.14845e-10
2.23669e-10
2.32496e-10
2.41296e-10
2.50037e-10
2.58687e-10
2.6721e-10
2.75572e-10
2.83738e-10
2.91673e-10
2.99342e-10
3.0671e-10
3.13742e-10
3.20406e-10
3.2667e-10
3.32505e-10
3.37881e-10
3.42772e-10
3.47155e-10
3.51008e-10
3.54314e-10
3.57057e-10
3.59223e-10
3.60805e-10
3.61797e-10
3.62196e-10
3.62004e-10
3.61224e-10
3.59864e-10
3.57935e-10
3.55452e-10
3.52429e-10
3.48888e-10
3.4485e-10
3.40339e-10
3.35381e-10
3.30003e-10
3.24236e-10
3.18109e-10
3.11653e-10
3.04901e-10
2.97884e-10
2.90634e-10
2.83184e-10
2.75563e-10
2.67804e-10
2.59935e-10
2.51985e-10
2.43981e-10
2.35949e-10
2.27915e-10
2.19899e-10
2.11924e-10
2.0401e-10
1.96173e-10
1.88431e-10
1.80797e-10
1.73284e-10
1.65905e-10
1.58667e-10
1.5158e-10
1.44651e-10
1.37886e-10
1.31288e-10
1.24863e-10
1.18611e-10
1.12536e-10
1.06638e-10
1.00918e-10
9.53761e-11
9.00116e-11
8.4824e-11
7.98123e-11
7.49755e-11
7.03124e-11
6.58215e-11
6.15018e-11
5.73518e-11
5.33704e-11
4.95563e-11
4.59084e-11
4.24255e-11
3.91066e-11
3.59506e-11
3.29561e-11
3.01221e-11
2.7447e-11
2.49292e-11
2.25671e-11
2.03583e-11
1.83006e-11
1.63911e-11
1.46266e-11
1.30036e-11
1.15181e-11
1.01654e-11
8.94089e-12
7.83909e-12
6.85432e-12
5.98052e-12
5.21129e-12
4.53997e-12
3.95966e-12
3.46331e-12
3.04375e-12
2.69377e-12
2.40616e-12
2.17379e-12
1.98965e-12
1.84693e-12
1.73905e-12
1.65975e-12
1.60309e-12
1.56357e-12
1.53613e-12
1.51622e-12
1.49981e-12
1.48347e-12
1.46435e-12
1.4402e-12
1.40939e-12
1.37088e-12
1.32417e-12
1.26929e-12
1.20672e-12
1.13732e-12
1.06225e-12
9.82887e-13
9.00752e-13
8.17402e-13
7.34368e-13
6.53082e-13
5.74822e-13
5.00672e-13
4.31493e-13
3.67914e-13
3.1033e-13
2.58919e-13
2.13661e-13
1.74368e-13
1.40718e-13
1.1229e-13
8.85926e-14
6.91017e-14
5.32818e-14
4.06101e-14
3.0593e-14
2.27776e-14
1.67595e-14
1.21856e-14
8.75463e-15
6.21439e-15
4.35811e-15
3.01927e-15
2.0662e-15
1.39656e-15
9.32117e-16
6.14078e-16
3.9889e-16
2.54762e-16
1.58731e-16
9.42997e-17
4.9507e-17
1.53775e-17
1.46972e-14
4.42633e-14
7.43496e-14
1.05315e-13
1.37527e-13
1.71369e-13
2.0724e-13
2.45562e-13
2.86782e-13
3.31377e-13
3.7986e-13
4.32784e-13
4.90749e-13
5.54403e-13
6.24454e-13
7.01673e-13
7.86903e-13
8.81061e-13
9.85154e-13
1.10028e-12
1.22764e-12
1.36856e-12
1.52447e-12
1.69694e-12
1.88769e-12
2.0986e-12
2.33171e-12
2.58925e-12
2.87366e-12
3.18758e-12
3.53388e-12
3.91569e-12
4.33639e-12
4.79965e-12
5.30944e-12
5.87007e-12
6.48615e-12
7.16269e-12
7.90505e-12
8.71902e-12
9.6108e-12
1.0587e-11
1.16548e-11
1.28217e-11
1.40957e-11
1.54856e-11
1.70003e-11
1.86496e-11
2.04437e-11
2.23932e-11
2.45095e-11
2.68044e-11
2.92904e-11
3.19803e-11
3.48876e-11
3.80262e-11
4.14105e-11
4.50553e-11
4.89757e-11
5.31872e-11
5.77054e-11
6.25463e-11
6.77256e-11
7.32594e-11
7.91632e-11
8.54526e-11
9.21425e-11
9.92474e-11
1.06781e-10
1.14756e-10
1.23185e-10
1.32077e-10
1.41442e-10
1.51287e-10
1.61617e-10
1.72437e-10
1.83745e-10
1.95543e-10
2.07823e-10
2.20581e-10
2.33804e-10
2.4748e-10
2.6159e-10
2.76115e-10
2.91028e-10
3.06302e-10
3.21905e-10
3.37799e-10
3.53944e-10
3.70296e-10
3.86808e-10
4.03428e-10
4.201e-10
4.36766e-10
4.53367e-10
4.69837e-10
4.86113e-10
5.02125e-10
5.17806e-10
5.33086e-10
5.47896e-10
5.62167e-10
5.75831e-10
5.88821e-10
6.01072e-10
6.12524e-10
6.23117e-10
6.32798e-10
6.41516e-10
6.49227e-10
6.55891e-10
6.61474e-10
6.65949e-10
6.69294e-10
6.71495e-10
6.72545e-10
6.72442e-10
6.71192e-10
6.68808e-10
6.65309e-10
6.60721e-10
6.55076e-10
6.4841e-10
6.40766e-10
6.32191e-10
6.22737e-10
6.12459e-10
6.01415e-10
5.89666e-10
5.77275e-10
5.64305e-10
5.50821e-10
5.36889e-10
5.22573e-10
5.07935e-10
4.93039e-10
4.77945e-10
4.6271e-10
4.47391e-10
4.3204e-10
4.16706e-10
4.01436e-10
3.86273e-10
3.71256e-10
3.56421e-10
3.41799e-10
3.2742e-10
3.13309e-10
2.99487e-10
2.85973e-10
2.72783e-10
2.59929e-10
2.47422e-10
2.35268e-10
2.23473e-10
2.12041e-10
2.00972e-10
1.90266e-10
1.79923e-10
1.69939e-10
1.6031e-10
1.51033e-10
1.42102e-10
1.33511e-10
1.25255e-10
1.17328e-10
1.09724e-10
1.02437e-10
9.54606e-11
8.87899e-11
8.2419e-11
7.63426e-11
7.05558e-11
6.50534e-11
5.98309e-11
5.48835e-11
5.02069e-11
4.57963e-11
4.16473e-11
3.77551e-11
3.41146e-11
3.07208e-11
2.7568e-11
2.46502e-11
2.19609e-11
1.94933e-11
1.72398e-11
1.51925e-11
1.33429e-11
1.16818e-11
1.01999e-11
8.88716e-12
7.7333e-12
6.7277e-12
5.85952e-12
5.11775e-12
4.49131e-12
3.96911e-12
3.54015e-12
3.19362e-12
2.91894e-12
2.70586e-12
2.54455e-12
2.42564e-12
2.34035e-12
2.28049e-12
2.23861e-12
2.20798e-12
2.18269e-12
2.15768e-12
2.12879e-12
2.09272e-12
2.0471e-12
1.99039e-12
1.92188e-12
1.8416e-12
1.75025e-12
1.64908e-12
1.53978e-12
1.42434e-12
1.30496e-12
1.18389e-12
1.06336e-12
9.45427e-13
8.31938e-13
7.24455e-13
6.24218e-13
5.32128e-13
4.48751e-13
3.74334e-13
3.08842e-13
2.51999e-13
2.03332e-13
1.62226e-13
1.27969e-13
9.97995e-14
7.69401e-14
5.86334e-14
4.41644e-14
3.28776e-14
2.41879e-14
1.75846e-14
1.26321e-14
8.96578e-15
6.28699e-15
4.35517e-15
2.98014e-15
2.01412e-15
1.3442e-15
8.85491e-16
5.75156e-16
3.67316e-16
2.28848e-16
1.35949e-16
7.13708e-17
2.21685e-17
2.76615e-14
8.33108e-14
1.39949e-13
1.98256e-13
2.58934e-13
3.22709e-13
3.90342e-13
4.62634e-13
5.40437e-13
6.24661e-13
7.16285e-13
8.16363e-13
9.2604e-13
1.04656e-12
1.17927e-12
1.32565e-12
1.48731e-12
1.66602e-12
1.8637e-12
2.08246e-12
2.32462e-12
2.5927e-12
2.88946e-12
3.21795e-12
3.58145e-12
3.98359e-12
4.42832e-12
4.91992e-12
5.4631e-12
6.06296e-12
6.72505e-12
7.45541e-12
8.26058e-12
9.14766e-12
1.01243e-11
1.11989e-11
1.23804e-11
1.36784e-11
1.51033e-11
1.66665e-11
1.83797e-11
2.0256e-11
2.23091e-11
2.45536e-11
2.70052e-11
2.96806e-11
3.25973e-11
3.57741e-11
3.92307e-11
4.29879e-11
4.70675e-11
5.14925e-11
5.62866e-11
6.14749e-11
6.70832e-11
7.31383e-11
7.96677e-11
8.66999e-11
9.42638e-11
1.02389e-10
1.11105e-10
1.20442e-10
1.3043e-10
1.41098e-10
1.52477e-10
1.64595e-10
1.77479e-10
1.91156e-10
2.05651e-10
2.20986e-10
2.37182e-10
2.54256e-10
2.72224e-10
2.91095e-10
3.10877e-10
3.31572e-10
3.53179e-10
3.7569e-10
3.99091e-10
4.23363e-10
4.48481e-10
4.74412e-10
5.01117e-10
5.28548e-10
5.56653e-10
5.85369e-10
6.14626e-10
6.44348e-10
6.7445e-10
7.04841e-10
7.35421e-10
7.66085e-10
7.96721e-10
8.27212e-10
8.57436e-10
8.87266e-10
9.16574e-10
9.45227e-10
9.73091e-10
1.00003e-09
1.02592e-09
1.05063e-09
1.07402e-09
1.09598e-09
1.11639e-09
1.13513e-09
1.15211e-09
1.16723e-09
1.18041e-09
1.19158e-09
1.20067e-09
1.20764e-09
1.21245e-09
1.21508e-09
1.21552e-09
1.21378e-09
1.20987e-09
1.20382e-09
1.19568e-09
1.18551e-09
1.17337e-09
1.15935e-09
1.14353e-09
1.12601e-09
1.10689e-09
1.0863e-09
1.06434e-09
1.04115e-09
1.01684e-09
9.91547e-10
9.65396e-10
9.38515e-10
9.11032e-10
8.83068e-10
8.54746e-10
8.2618e-10
7.97482e-10
7.68757e-10
7.40103e-10
7.11613e-10
6.83372e-10
6.55458e-10
6.27942e-10
6.00887e-10
5.7435e-10
5.48378e-10
5.23014e-10
4.98293e-10
4.74244e-10
4.5089e-10
4.28248e-10
4.0633e-10
3.85144e-10
3.64692e-10
3.44973e-10
3.25984e-10
3.07718e-10
2.90163e-10
2.7331e-10
2.57145e-10
2.41652e-10
2.26815e-10
2.12619e-10
1.99046e-10
1.8608e-10
1.73702e-10
1.61896e-10
1.50646e-10
1.39935e-10
1.29749e-10
1.20071e-10
1.10888e-10
1.02185e-10
9.39511e-11
8.61722e-11
7.88367e-11
7.19329e-11
6.54495e-11
5.93753e-11
5.36994e-11
4.84107e-11
4.34981e-11
3.895e-11
3.47548e-11
3.09004e-11
2.73742e-11
2.41632e-11
2.12538e-11
1.86319e-11
1.62831e-11
1.41922e-11
1.23439e-11
1.07223e-11
9.31166e-12
8.09566e-12
7.05812e-12
6.18288e-12
5.45393e-12
4.85547e-12
4.37209e-12
3.9888e-12
3.69117e-12
3.46542e-12
3.2985e-12
3.17817e-12
3.09314e-12
3.03309e-12
2.98879e-12
2.95212e-12
2.91618e-12
2.87525e-12
2.82489e-12
2.76182e-12
2.68397e-12
2.59039e-12
2.4811e-12
2.35705e-12
2.21993e-12
2.072e-12
1.91596e-12
1.75476e-12
1.59143e-12
1.42894e-12
1.27006e-12
1.11726e-12
9.72628e-13
8.37814e-13
7.14016e-13
6.01979e-13
5.02024e-13
4.1409e-13
3.37794e-13
2.72495e-13
2.17359e-13
1.71424e-13
1.33661e-13
1.03026e-13
7.84975e-14
5.91159e-14
4.40006e-14
3.23657e-14
2.35263e-14
1.68978e-14
1.19917e-14
8.40776e-15
5.82356e-15
3.98446e-15
2.69259e-15
1.79682e-15
1.18354e-15
7.68685e-16
4.90873e-16
3.05806e-16
1.81657e-16
9.53631e-17
2.96203e-17
5.10224e-14
1.53675e-13
2.5817e-13
3.65777e-13
4.778e-13
5.95596e-13
7.20582e-13
8.54256e-13
9.98208e-13
1.15414e-12
1.32388e-12
1.5094e-12
1.71286e-12
1.93657e-12
2.18307e-12
2.45515e-12
2.75582e-12
3.0884e-12
3.45652e-12
3.86417e-12
4.31568e-12
4.81584e-12
5.36985e-12
5.98344e-12
6.66286e-12
7.41494e-12
8.24714e-12
9.16762e-12
1.01852e-11
1.13097e-11
1.25515e-11
1.39221e-11
1.5434e-11
1.71005e-11
1.89364e-11
2.09574e-11
2.31805e-11
2.56242e-11
2.83082e-11
3.12539e-11
3.44841e-11
3.80232e-11
4.18976e-11
4.61351e-11
5.07655e-11
5.58205e-11
6.13336e-11
6.73405e-11
7.38787e-11
8.09876e-11
8.87089e-11
9.70859e-11
1.06164e-10
1.15991e-10
1.26615e-10
1.38087e-10
1.50459e-10
1.63785e-10
1.7812e-10
1.93517e-10
2.10034e-10
2.27727e-10
2.46651e-10
2.66861e-10
2.88411e-10
3.11355e-10
3.35742e-10
3.61619e-10
3.89031e-10
4.18017e-10
4.48612e-10
4.80845e-10
5.14739e-10
5.50309e-10
5.87562e-10
6.26497e-10
6.67102e-10
7.09354e-10
7.53221e-10
7.98656e-10
8.45603e-10
8.93988e-10
9.43726e-10
9.94718e-10
1.04685e-09
1.09999e-09
1.154e-09
1.20872e-09
1.26398e-09
1.31959e-09
1.37536e-09
1.43107e-09
1.4865e-09
1.54142e-09
1.59559e-09
1.64878e-09
1.70072e-09
1.75116e-09
1.79986e-09
1.84655e-09
1.891e-09
1.93296e-09
1.9722e-09
2.0085e-09
2.04164e-09
2.07145e-09
2.09773e-09
2.12035e-09
2.13915e-09
2.15404e-09
2.16493e-09
2.17175e-09
2.17446e-09
2.17307e-09
2.16759e-09
2.15805e-09
2.14454e-09
2.12714e-09
2.10598e-09
2.08119e-09
2.05294e-09
2.02141e-09
1.98679e-09
1.9493e-09
1.90917e-09
1.86662e-09
1.8219e-09
1.77526e-09
1.72694e-09
1.6772e-09
1.62628e-09
1.57444e-09
1.52189e-09
1.46889e-09
1.41563e-09
1.36234e-09
1.30922e-09
1.25643e-09
1.20416e-09
1.15256e-09
1.10177e-09
1.05192e-09
1.00312e-09
9.55453e-10
9.09018e-10
8.63877e-10
8.20086e-10
7.77689e-10
7.36717e-10
6.97191e-10
6.59122e-10
6.22512e-10
5.87355e-10
5.53639e-10
5.21345e-10
4.90447e-10
4.60917e-10
4.32723e-10
4.05829e-10
3.80197e-10
3.55788e-10
3.32562e-10
3.10478e-10
2.89495e-10
2.69573e-10
2.50672e-10
2.32753e-10
2.15779e-10
1.99713e-10
1.8452e-10
1.70168e-10
1.56624e-10
1.43859e-10
1.31844e-10
1.20551e-10
1.09955e-10
1.00031e-10
9.07544e-11
8.21027e-11
7.40535e-11
6.65848e-11
5.96752e-11
5.33032e-11
4.74475e-11
4.20865e-11
3.71987e-11
3.27621e-11
2.87547e-11
2.51537e-11
2.19366e-11
1.90801e-11
1.65611e-11
1.43561e-11
1.24417e-11
1.07944e-11
9.39117e-12
8.20901e-12
7.22544e-12
6.41849e-12
5.76686e-12
5.24999e-12
4.8482e-12
4.5428e-12
4.31621e-12
4.152e-12
4.03507e-12
3.9517e-12
3.88963e-12
3.83814e-12
3.78812e-12
3.73207e-12
3.66412e-12
3.58002e-12
3.47705e-12
3.35395e-12
3.21078e-12
3.04874e-12
2.87001e-12
2.67755e-12
2.47483e-12
2.26566e-12
2.05395e-12
1.84351e-12
1.63792e-12
1.44034e-12
1.25344e-12
1.07933e-12
9.19545e-13
7.75011e-13
6.46126e-13
5.32793e-13
4.34502e-13
3.50411e-13
2.79435e-13
2.20325e-13
1.71748e-13
1.32351e-13
1.00819e-13
7.59096e-14
5.64887e-14
4.15435e-14
3.01918e-14
2.16815e-14
1.5384e-14
1.07844e-14
7.46862e-15
5.10928e-15
3.45226e-15
2.30348e-15
1.51711e-15
9.85225e-16
6.29095e-16
3.91885e-16
2.32775e-16
1.22192e-16
3.79527e-17
9.25559e-14
2.78783e-13
4.68388e-13
6.63697e-13
8.67104e-13
1.0811e-12
1.30828e-12
1.55139e-12
1.81337e-12
2.09734e-12
2.40666e-12
2.74499e-12
3.11626e-12
3.52479e-12
3.97525e-12
4.47276e-12
5.02294e-12
5.63192e-12
6.30643e-12
7.05383e-12
7.8822e-12
8.80039e-12
9.81812e-12
1.0946e-11
1.21956e-11
1.35798e-11
1.51123e-11
1.68085e-11
1.86848e-11
2.07593e-11
2.30517e-11
2.55833e-11
2.83775e-11
3.14593e-11
3.48562e-11
3.85976e-11
4.27156e-11
4.72445e-11
5.22216e-11
5.76866e-11
6.36826e-11
7.02553e-11
7.7454e-11
8.53312e-11
9.39426e-11
1.03348e-10
1.1361e-10
1.24795e-10
1.36975e-10
1.50222e-10
1.64615e-10
1.80236e-10
1.97169e-10
2.15503e-10
2.3533e-10
2.56744e-10
2.79842e-10
3.04724e-10
3.31491e-10
3.60247e-10
3.91094e-10
4.24135e-10
4.59475e-10
4.97213e-10
5.37449e-10
5.80277e-10
6.25787e-10
6.74065e-10
7.25188e-10
7.79223e-10
8.3623e-10
8.96256e-10
9.59335e-10
1.02549e-09
1.09471e-09
1.167e-09
1.24232e-09
1.3206e-09
1.40179e-09
1.48577e-09
1.57242e-09
1.66158e-09
1.75309e-09
1.84674e-09
1.94229e-09
2.03948e-09
2.13803e-09
2.23761e-09
2.3379e-09
2.43852e-09
2.53908e-09
2.63918e-09
2.73838e-09
2.83624e-09
2.93231e-09
3.0261e-09
3.11716e-09
3.205e-09
3.28916e-09
3.36916e-09
3.44455e-09
3.5149e-09
3.57979e-09
3.63882e-09
3.69164e-09
3.73791e-09
3.77734e-09
3.80968e-09
3.83473e-09
3.85232e-09
3.86235e-09
3.86475e-09
3.85951e-09
3.84668e-09
3.82634e-09
3.79864e-09
3.76377e-09
3.72196e-09
3.67349e-09
3.61868e-09
3.55788e-09
3.49149e-09
3.41991e-09
3.34358e-09
3.26296e-09
3.17852e-09
3.09073e-09
3.00008e-09
2.90704e-09
2.81209e-09
2.71569e-09
2.61829e-09
2.52033e-09
2.42222e-09
2.32436e-09
2.2271e-09
2.13079e-09
2.03575e-09
1.94224e-09
1.85053e-09
1.76084e-09
1.67337e-09
1.58827e-09
1.50569e-09
1.42575e-09
1.34852e-09
1.27407e-09
1.20245e-09
1.13366e-09
1.06772e-09
1.00461e-09
9.443e-10
8.8675e-10
8.31906e-10
7.79706e-10
7.3008e-10
6.8295e-10
6.38237e-10
5.95855e-10
5.55717e-10
5.17736e-10
4.81821e-10
4.47887e-10
4.15845e-10
3.85611e-10
3.57102e-10
3.30239e-10
3.04945e-10
2.81147e-10
2.58775e-10
2.37762e-10
2.18045e-10
1.99565e-10
1.82265e-10
1.66092e-10
1.50995e-10
1.36927e-10
1.23841e-10
1.11695e-10
1.00448e-10
9.00575e-11
8.04865e-11
7.16968e-11
6.36514e-11
5.63139e-11
4.96486e-11
4.36197e-11
3.8192e-11
3.33304e-11
2.89999e-11
2.51658e-11
2.17934e-11
1.88486e-11
1.62976e-11
1.4107e-11
1.22442e-11
1.06772e-11
9.37499e-12
8.30744e-12
7.44562e-12
6.76182e-12
6.2297e-12
5.82437e-12
5.52254e-12
5.30263e-12
5.14482e-12
5.03122e-12
4.9459e-12
4.87498e-12
4.8067e-12
4.7314e-12
4.64156e-12
4.53173e-12
4.39842e-12
4.24004e-12
4.05663e-12
3.84973e-12
3.62211e-12
3.37747e-12
3.12022e-12
2.85513e-12
2.58714e-12
2.32104e-12
2.06131e-12
1.8119e-12
1.57615e-12
1.35669e-12
1.15541e-12
9.73444e-13
8.11273e-13
6.68745e-13
5.45194e-13
4.39543e-13
3.50406e-13
2.76203e-13
2.15245e-13
1.65826e-13
1.26285e-13
9.50607e-14
7.07234e-14
5.20004e-14
3.77833e-14
2.71275e-14
1.92445e-14
1.34883e-14
9.33954e-15
6.38815e-15
4.31573e-15
2.87922e-15
1.89605e-15
1.23117e-15
7.86054e-16
4.89615e-16
2.90804e-16
1.52646e-16
4.74103e-17
1.65282e-13
4.97859e-13
8.36536e-13
1.18551e-12
1.54911e-12
1.93182e-12
2.33835e-12
2.77368e-12
3.24309e-12
3.75226e-12
4.30729e-12
4.91478e-12
5.58192e-12
6.31652e-12
7.1271e-12
8.02299e-12
9.01441e-12
1.01125e-11
1.13297e-11
1.26792e-11
1.4176e-11
1.58362e-11
1.76775e-11
1.97195e-11
2.19834e-11
2.44926e-11
2.72726e-11
3.03513e-11
3.37591e-11
3.75293e-11
4.1698e-11
4.63046e-11
5.1392e-11
5.70066e-11
6.31988e-11
7.00231e-11
7.75385e-11
8.58086e-11
9.49022e-11
1.04893e-10
1.1586e-10
1.27889e-10
1.4107e-10
1.555e-10
1.71283e-10
1.8853e-10
2.07356e-10
2.27885e-10
2.50248e-10
2.74583e-10
3.01032e-10
3.29747e-10
3.60885e-10
3.94611e-10
4.31092e-10
4.70504e-10
5.13026e-10
5.58842e-10
6.08137e-10
6.61102e-10
7.17924e-10
7.78794e-10
8.43898e-10
9.1342e-10
9.87538e-10
1.06642e-09
1.15024e-09
1.23913e-09
1.33323e-09
1.43267e-09
1.53753e-09
1.6479e-09
1.76381e-09
1.88531e-09
2.01236e-09
2.14494e-09
2.28295e-09
2.42628e-09
2.57475e-09
2.72817e-09
2.88626e-09
3.04872e-09
3.21519e-09
3.38527e-09
3.5585e-09
3.73435e-09
3.91227e-09
4.09164e-09
4.2718e-09
4.45204e-09
4.63161e-09
4.80974e-09
4.9856e-09
5.15835e-09
5.32713e-09
5.49105e-09
5.64925e-09
5.80083e-09
5.94493e-09
6.0807e-09
6.20732e-09
6.32401e-09
6.43002e-09
6.52468e-09
6.60736e-09
6.6775e-09
6.73465e-09
6.77839e-09
6.80843e-09
6.82456e-09
6.82665e-09
6.81469e-09
6.78875e-09
6.749e-09
6.69572e-09
6.62927e-09
6.55008e-09
6.45871e-09
6.35574e-09
6.24186e-09
6.1178e-09
5.98436e-09
5.84236e-09
5.69267e-09
5.53619e-09
5.37381e-09
5.20646e-09
5.03504e-09
4.86044e-09
4.68355e-09
4.5052e-09
4.32623e-09
4.14739e-09
3.96941e-09
3.79299e-09
3.61873e-09
3.44722e-09
3.27897e-09
3.11443e-09
2.954e-09
2.79803e-09
2.6468e-09
2.50055e-09
2.35947e-09
2.22367e-09
2.09327e-09
1.9683e-09
1.84878e-09
1.73467e-09
1.62594e-09
1.5225e-09
1.42423e-09
1.33103e-09
1.24275e-09
1.15923e-09
1.08031e-09
1.00581e-09
9.35569e-10
8.69395e-10
8.07108e-10
7.48528e-10
6.93475e-10
6.41774e-10
5.93254e-10
5.4775e-10
5.051e-10
4.65154e-10
4.27765e-10
3.92794e-10
3.6011e-10
3.29589e-10
3.01112e-10
2.74571e-10
2.49861e-10
2.26884e-10
2.05549e-10
1.8577e-10
1.67465e-10
1.50557e-10
1.34973e-10
1.20644e-10
1.07503e-10
9.54864e-11
8.45329e-11
7.4583e-11
6.5579e-11
5.74647e-11
5.0185e-11
4.36862e-11
3.79156e-11
3.28215e-11
2.83535e-11
2.44621e-11
2.1099e-11
1.82174e-11
1.57715e-11
1.37174e-11
1.20125e-11
1.0616e-11
9.48913e-12
8.5948e-12
7.8981e-12
7.3663e-12
6.96889e-12
6.67779e-12
6.46733e-12
6.31444e-12
6.19867e-12
6.10229e-12
6.01029e-12
5.91041e-12
5.79312e-12
5.65151e-12
5.48122e-12
5.2802e-12
5.04851e-12
4.78806e-12
4.5023e-12
4.19584e-12
3.87414e-12
3.54314e-12
3.20895e-12
2.87748e-12
2.55426e-12
2.24418e-12
1.95132e-12
1.6789e-12
1.42921e-12
1.20365e-12
1.00273e-12
8.26258e-13
6.73363e-13
5.42684e-13
4.32485e-13
3.4079e-13
2.65495e-13
2.04478e-13
1.55676e-13
1.17152e-13
8.71364e-14
6.40524e-14
4.65292e-14
3.33994e-14
2.36887e-14
1.65998e-14
1.14919e-14
7.85892e-15
5.30848e-15
3.54098e-15
2.33151e-15
1.51373e-15
9.66347e-16
6.01855e-16
3.57439e-16
1.87612e-16
5.82687e-17
2.90649e-13
8.75528e-13
1.47126e-12
2.08531e-12
2.72536e-12
3.39942e-12
4.11587e-12
4.88356e-12
5.71194e-12
6.61112e-12
7.59202e-12
8.66645e-12
9.84724e-12
1.11484e-11
1.25852e-11
1.41744e-11
1.59343e-11
1.7885e-11
2.00486e-11
2.24493e-11
2.51138e-11
2.80711e-11
3.13535e-11
3.49959e-11
3.90369e-11
4.35187e-11
4.84875e-11
5.39938e-11
6.00927e-11
6.68444e-11
7.43147e-11
8.2575e-11
9.17031e-11
1.01783e-10
1.12908e-10
1.25175e-10
1.38693e-10
1.53577e-10
1.69953e-10
1.87956e-10
2.07728e-10
2.29427e-10
2.53218e-10
2.79278e-10
3.07796e-10
3.38973e-10
3.73024e-10
4.10173e-10
4.50659e-10
4.94733e-10
5.42659e-10
5.94712e-10
6.5118e-10
7.12361e-10
7.78565e-10
8.5011e-10
9.27324e-10
1.01054e-09
1.1001e-09
1.19634e-09
1.29961e-09
1.41026e-09
1.52861e-09
1.655e-09
1.78975e-09
1.93316e-09
2.08553e-09
2.2471e-09
2.41812e-09
2.59879e-09
2.78927e-09
2.98967e-09
3.20008e-09
3.4205e-09
3.65089e-09
3.89114e-09
4.14106e-09
4.4004e-09
4.66882e-09
4.94589e-09
5.2311e-09
5.52383e-09
5.8234e-09
6.12901e-09
6.43975e-09
6.75464e-09
7.0726e-09
7.39246e-09
7.71296e-09
8.03275e-09
8.35043e-09
8.66453e-09
8.97351e-09
9.2758e-09
9.5698e-09
9.85389e-09
1.01265e-08
1.03859e-08
1.06306e-08
1.08591e-08
1.10699e-08
1.12616e-08
1.14329e-08
1.15827e-08
1.17099e-08
1.18135e-08
1.18929e-08
1.19475e-08
1.19767e-08
1.19804e-08
1.19585e-08
1.19111e-08
1.18385e-08
1.17412e-08
1.16198e-08
1.14752e-08
1.13084e-08
1.11204e-08
1.09125e-08
1.06861e-08
1.04426e-08
1.01836e-08
9.91082e-09
9.62579e-09
9.33026e-09
9.02592e-09
8.71449e-09
8.39763e-09
8.07698e-09
7.75412e-09
7.43058e-09
7.10779e-09
6.78709e-09
6.46976e-09
6.15694e-09
5.84967e-09
5.5489e-09
5.25545e-09
4.97003e-09
4.69327e-09
4.42565e-09
4.16759e-09
3.91938e-09
3.68124e-09
3.4533e-09
3.23561e-09
3.02815e-09
2.83083e-09
2.64352e-09
2.46603e-09
2.29812e-09
2.13954e-09
1.98998e-09
1.84913e-09
1.71665e-09
1.5922e-09
1.47541e-09
1.36593e-09
1.2634e-09
1.16747e-09
1.07777e-09
9.93969e-10
9.15738e-10
8.42753e-10
7.74708e-10
7.11307e-10
6.52271e-10
5.97336e-10
5.4625e-10
4.98778e-10
4.54698e-10
4.13801e-10
3.75894e-10
3.40793e-10
3.0833e-10
2.78344e-10
2.50687e-10
2.25219e-10
2.0181e-10
1.80338e-10
1.60685e-10
1.42743e-10
1.26407e-10
1.1158e-10
9.81654e-11
8.60735e-11
7.52172e-11
6.55125e-11
5.68784e-11
4.92366e-11
4.25115e-11
3.66299e-11
3.15211e-11
2.71169e-11
2.33516e-11
2.01621e-11
1.7488e-11
1.52715e-11
1.34578e-11
1.19948e-11
1.08336e-11
9.9281e-12
9.23554e-12
8.71626e-12
8.33394e-12
8.05559e-12
7.85167e-12
7.69615e-12
7.5665e-12
7.44375e-12
7.31245e-12
7.16063e-12
6.97963e-12
6.76398e-12
6.5111e-12
6.22107e-12
5.89623e-12
5.54083e-12
5.16055e-12
4.76211e-12
4.3528e-12
3.94009e-12
3.53124e-12
3.13299e-12
2.75129e-12
2.39111e-12
2.05634e-12
1.74973e-12
1.47294e-12
1.22656e-12
1.01029e-12
8.23016e-13
6.63044e-13
5.28213e-13
4.16076e-13
3.24038e-13
2.49486e-13
1.89884e-13
1.42853e-13
1.06222e-13
7.80608e-14
5.66907e-14
4.06836e-14
2.88485e-14
2.02111e-14
1.39891e-14
9.56485e-15
6.45963e-15
4.30813e-15
2.8362e-15
1.84114e-15
1.17522e-15
7.31863e-16
4.34612e-16
2.28104e-16
7.08425e-17
5.03398e-13
1.51647e-12
2.54857e-12
3.61276e-12
4.72253e-12
5.89191e-12
7.1356e-12
8.46916e-12
9.90918e-12
1.14735e-11
1.31812e-11
1.50532e-11
1.71122e-11
1.93827e-11
2.18919e-11
2.46692e-11
2.77473e-11
3.11616e-11
3.49513e-11
3.91593e-11
4.3833e-11
4.90242e-11
5.47898e-11
6.11924e-11
6.83005e-11
7.61895e-11
8.49416e-11
9.4647e-11
1.05404e-10
1.17321e-10
1.30515e-10
1.45114e-10
1.61257e-10
1.79095e-10
1.98794e-10
2.20531e-10
2.44499e-10
2.70906e-10
2.99978e-10
3.31956e-10
3.671e-10
4.05691e-10
4.48026e-10
4.94426e-10
5.45232e-10
6.00806e-10
6.61534e-10
7.27822e-10
8.00102e-10
8.78826e-10
9.64471e-10
1.05753e-09
1.15853e-09
1.26801e-09
1.38652e-09
1.51464e-09
1.65296e-09
1.80208e-09
1.96261e-09
2.13517e-09
2.32038e-09
2.51885e-09
2.73118e-09
2.95797e-09
3.19978e-09
3.45716e-09
3.7306e-09
4.02057e-09
4.32747e-09
4.65164e-09
4.99335e-09
5.35279e-09
5.73006e-09
6.12514e-09
6.53792e-09
6.96816e-09
7.41546e-09
7.87932e-09
8.35905e-09
8.85384e-09
9.36269e-09
9.88442e-09
1.04177e-08
1.0961e-08
1.15127e-08
1.20708e-08
1.26334e-08
1.31982e-08
1.37629e-08
1.43251e-08
1.4882e-08
1.54309e-08
1.59691e-08
1.64936e-08
1.70016e-08
1.749e-08
1.7956e-08
1.83966e-08
1.88091e-08
1.91907e-08
1.95388e-08
1.98511e-08
2.01252e-08
2.03592e-08
2.05514e-08
2.07002e-08
2.08045e-08
2.08634e-08
2.08764e-08
2.08432e-08
2.07639e-08
2.06391e-08
2.04695e-08
2.02563e-08
2.00008e-08
1.97049e-08
1.93705e-08
1.89999e-08
1.85957e-08
1.81604e-08
1.76969e-08
1.72083e-08
1.66975e-08
1.61678e-08
1.56222e-08
1.50639e-08
1.4496e-08
1.39215e-08
1.33434e-08
1.27645e-08
1.21874e-08
1.16146e-08
1.10485e-08
1.04912e-08
9.94456e-09
9.41032e-09
8.89e-09
8.38489e-09
7.89608e-09
7.42446e-09
6.97074e-09
6.53543e-09
6.11888e-09
5.72128e-09
5.34267e-09
4.98296e-09
4.64195e-09