/*--------------------------------*- C++ -*----------------------------------*\
| =========                 |                                                 |
| \\      /  F ield         | OpenFOAM: The Open Source CFD Toolbox           |
|  \\    /   O peration     | Version:  v2012                                 |
|   \\  /    A nd           | Website:  www.openfoam.com                      |
|    \\/     M anipulation  |                                                 |
\*---------------------------------------------------------------------------*/
FoamFile
{
    version     2.0;
    format      ascii;
    class       volScalarField;
    location    "2.1";
    object      Psi_z;
}
// * * * * * * * * * * * * * * * * * * * * * * * * * * * * * * * * * * * * * //

dimensions      [0 2 -1 0 0 0 0];


internalField   nonuniform List<scalar> 
65536
(
8.65041e-06
2.59506e-05
4.32491e-05
6.05449e-05
7.78368e-05
9.51238e-05
0.000112405
0.000129678
0.000146944
0.000164199
0.000181444
0.000198677
0.000215897
0.000233102
0.000250291
0.000267464
0.000284617
0.000301751
0.000318864
0.000335953
0.000353019
0.000370058
0.00038707
0.000404052
0.000421003
0.000437922
0.000454806
0.000471654
0.000488463
0.000505232
0.000521959
0.000538641
0.000555276
0.000571862
0.000588397
0.000604879
0.000621305
0.000637672
0.000653978
0.00067022
0.000686396
0.000702504
0.000718539
0.0007345
0.000750383
0.000766186
0.000781905
0.000797537
0.00081308
0.00082853
0.000843884
0.000859138
0.000874289
0.000889334
0.000904269
0.000919091
0.000933797
0.000948382
0.000962843
0.000977177
0.00099138
0.00100545
0.00101938
0.00103316
0.00104681
0.0010603
0.00107364
0.00108682
0.00109984
0.0011127
0.00112538
0.0011379
0.00115024
0.0011624
0.00117438
0.00118617
0.00119777
0.00120918
0.00122039
0.0012314
0.00124221
0.00125281
0.0012632
0.00127338
0.00128334
0.00129308
0.00130259
0.00131189
0.00132095
0.00132978
0.00133838
0.00134675
0.00135487
0.00136275
0.0013704
0.00137779
0.00138494
0.00139184
0.00139849
0.00140488
0.00141103
0.00141691
0.00142254
0.00142791
0.00143302
0.00143788
0.00144247
0.00144679
0.00145086
0.00145466
0.0014582
0.00146147
0.00146448
0.00146723
0.00146971
0.00147192
0.00147387
0.00147556
0.00147698
0.00147814
0.00147904
0.00147968
0.00148005
0.00148016
0.00148001
0.00147961
0.00147894
0.00147802
0.00147685
0.00147542
0.00147373
0.0014718
0.00146961
0.00146718
0.0014645
0.00146157
0.0014584
0.00145499
0.00145134
0.00144745
0.00144332
0.00143896
0.00143437
0.00142954
0.00142449
0.00141921
0.00141371
0.00140798
0.00140204
0.00139587
0.0013895
0.0013829
0.0013761
0.00136909
0.00136187
0.00135445
0.00134682
0.001339
0.00133098
0.00132277
0.00131436
0.00130577
0.00129699
0.00128802
0.00127888
0.00126955
0.00126005
0.00125037
0.00124053
0.00123051
0.00122033
0.00120998
0.00119948
0.00118881
0.00117799
0.00116702
0.0011559
0.00114463
0.00113322
0.00112166
0.00110997
0.00109814
0.00108617
0.00107408
0.00106185
0.0010495
0.00103703
0.00102443
0.00101172
0.00099889
0.000985949
0.000972899
0.00095974
0.000946477
0.000933112
0.000919647
0.000906085
0.000892427
0.000878678
0.000864839
0.000850912
0.0008369
0.000822805
0.000808631
0.000794378
0.000780049
0.000765648
0.000751175
0.000736632
0.000722024
0.00070735
0.000692614
0.000677817
0.000662961
0.00064805
0.000633083
0.000618064
0.000602994
0.000587876
0.00057271
0.000557499
0.000542244
0.000526947
0.000511611
0.000496235
0.000480823
0.000465375
0.000449894
0.00043438
0.000418835
0.000403261
0.000387659
0.00037203
0.000356376
0.000340697
0.000324996
0.000309274
0.000293531
0.000277769
0.000261989
0.000246192
0.00023038
0.000214554
0.000198713
0.000182861
0.000166997
0.000151123
0.00013524
0.000119349
0.00010345
8.75452e-05
7.1635e-05
5.57205e-05
3.98028e-05
2.38826e-05
7.96102e-06
2.59516e-05
7.78531e-05
0.00012975
0.000181638
0.000233515
0.000285377
0.00033722
0.000389042
0.000440839
0.000492607
0.000544343
0.000596043
0.000647704
0.00069932
0.00075089
0.000802408
0.00085387
0.000905273
0.000956612
0.00100788
0.00105908
0.0011102
0.00116124
0.00121218
0.00126304
0.0013138
0.00136445
0.001415
0.00146543
0.00151574
0.00156592
0.00161597
0.00166587
0.00171563
0.00176524
0.00181469
0.00186397
0.00191307
0.00196199
0.00201072
0.00205925
0.00210758
0.00215569
0.00220357
0.00225123
0.00229864
0.0023458
0.0023927
0.00243933
0.00248568
0.00253175
0.00257751
0.00262297
0.00266811
0.00271292
0.00275739
0.00280151
0.00284526
0.00288865
0.00293166
0.00297427
0.00301648
0.00305827
0.00309963
0.00314056
0.00318104
0.00322106
0.00326061
0.00329968
0.00333825
0.00337632
0.00341387
0.00345089
0.00348738
0.00352332
0.0035587
0.00359351
0.00362774
0.00366137
0.00369441
0.00372684
0.00375864
0.00378981
0.00382034
0.00385023
0.00387945
0.003908
0.00393588
0.00396308
0.00398958
0.00401538
0.00404047
0.00406485
0.0040885
0.00411143
0.00413362
0.00415506
0.00417576
0.00419571
0.0042149
0.00423333
0.00425099
0.00426788
0.00428399
0.00429933
0.00431389
0.00432766
0.00434064
0.00435284
0.00436425
0.00437486
0.00438468
0.00439371
0.00440194
0.00440939
0.00441603
0.00442189
0.00442695
0.00443121
0.00443469
0.00443738
0.00443929
0.00444041
0.00444074
0.0044403
0.00443908
0.00443709
0.00443432
0.00443079
0.0044265
0.00442145
0.00441564
0.00440909
0.00440179
0.00439374
0.00438496
0.00437545
0.00436522
0.00435426
0.00434259
0.0043302
0.00431712
0.00430334
0.00428886
0.0042737
0.00425786
0.00424135
0.00422417
0.00420633
0.00418784
0.0041687
0.00414892
0.00412851
0.00410747
0.00408581
0.00406355
0.00404067
0.0040172
0.00399314
0.0039685
0.00394328
0.0039175
0.00389115
0.00386425
0.00383681
0.00380883
0.00378032
0.00375129
0.00372175
0.0036917
0.00366115
0.00363011
0.00359859
0.0035666
0.00353414
0.00350122
0.00346785
0.00343404
0.0033998
0.00336513
0.00333004
0.00329455
0.00325865
0.00322236
0.00318568
0.00314862
0.0031112
0.00307341
0.00303527
0.00299678
0.00295796
0.00291881
0.00287933
0.00283954
0.00279944
0.00275904
0.00271835
0.00267738
0.00263613
0.00259461
0.00255282
0.00251079
0.0024685
0.00242597
0.00238321
0.00234022
0.00229702
0.0022536
0.00220997
0.00216614
0.00212211
0.0020779
0.00203351
0.00198894
0.00194421
0.0018993
0.00185425
0.00180903
0.00176368
0.00171818
0.00167254
0.00162678
0.00158088
0.00153487
0.00148875
0.00144251
0.00139616
0.00134972
0.00130317
0.00125654
0.00120981
0.001163
0.00111612
0.00106915
0.00102212
0.000975012
0.000927842
0.000880613
0.000833326
0.000785985
0.000738594
0.000691156
0.000643675
0.000596154
0.000548595
0.000501003
0.00045338
0.000405729
0.000358054
0.000310357
0.000262641
0.00021491
0.000167165
0.000119411
7.16493e-05
2.38836e-05
4.32545e-05
0.000129761
0.000216259
0.000302743
0.000389208
0.000475648
0.000562058
0.000648432
0.000734764
0.000821048
0.000907278
0.000993449
0.00107955
0.00116559
0.00125154
0.00133741
0.00142318
0.00150886
0.00159443
0.00167988
0.00176522
0.00185042
0.00193549
0.00202041
0.00210518
0.00218978
0.00227421
0.00235846
0.00244251
0.00252637
0.00261001
0.00269343
0.00277662
0.00285956
0.00294225
0.00302467
0.00310681
0.00318866
0.0032702
0.00335142
0.00343232
0.00351287
0.00359306
0.00367288
0.00375231
0.00383134
0.00390995
0.00398813
0.00406586
0.00414312
0.00421991
0.00429619
0.00437197
0.00444721
0.0045219
0.00459603
0.00466957
0.00474252
0.00481484
0.00488653
0.00495756
0.00502792
0.00509759
0.00516654
0.00523477
0.00530225
0.00536896
0.00543489
0.00550001
0.00556431
0.00562777
0.00569037
0.00575209
0.00581291
0.00587282
0.0059318
0.00598982
0.00604688
0.00610296
0.00615803
0.00621208
0.0062651
0.00631706
0.00636796
0.00641777
0.00646649
0.00651409
0.00656056
0.0066059
0.00665007
0.00669308
0.00673491
0.00677555
0.00681498
0.00685319
0.00689018
0.00692594
0.00696044
0.0069937
0.00702568
0.0070564
0.00708584
0.00711399
0.00714085
0.00716642
0.00719068
0.00721364
0.00723528
0.00725561
0.00727462
0.00729231
0.00730868
0.00732373
0.00733746
0.00734986
0.00736093
0.00737069
0.00737912
0.00738624
0.00739203
0.00739651
0.00739968
0.00740155
0.0074021
0.00740136
0.00739933
0.007396
0.00739139
0.0073855
0.00737835
0.00736992
0.00736024
0.00734931
0.00733713
0.00732372
0.00730908
0.00729323
0.00727616
0.00725789
0.00723843
0.00721779
0.00719597
0.007173
0.00714886
0.00712359
0.00709718
0.00706966
0.00704102
0.00701128
0.00698045
0.00694854
0.00691557
0.00688154
0.00684647
0.00681037
0.00677325
0.00673512
0.00669599
0.00665589
0.00661481
0.00657277
0.00652978
0.00648587
0.00644103
0.00639528
0.00634864
0.00630112
0.00625272
0.00620348
0.00615338
0.00610246
0.00605072
0.00599818
0.00594485
0.00589074
0.00583587
0.00578025
0.00572389
0.00566681
0.00560902
0.00555053
0.00549136
0.00543152
0.00537102
0.00530989
0.00524812
0.00518573
0.00512275
0.00505917
0.00499502
0.0049303
0.00486504
0.00479923
0.0047329
0.00466607
0.00459873
0.0045309
0.0044626
0.00439384
0.00432464
0.00425499
0.00418492
0.00411443
0.00404355
0.00397227
0.00390062
0.0038286
0.00375622
0.0036835
0.00361045
0.00353707
0.00346338
0.00338938
0.00331509
0.00324053
0.00316568
0.00309058
0.00301522
0.00293962
0.00286378
0.00278772
0.00271143
0.00263494
0.00255825
0.00248137
0.0024043
0.00232705
0.00224964
0.00217206
0.00209433
0.00201645
0.00193843
0.00186028
0.001782
0.0017036
0.00162509
0.00154647
0.00146775
0.00138894
0.00131003
0.00123104
0.00115198
0.00107284
0.000993631
0.000914363
0.000835039
0.000755664
0.000676243
0.00059678
0.000517282
0.000437753
0.000358197
0.00027862
0.000199026
0.00011942
3.98075e-05
6.05601e-05
0.000181676
0.000302781
0.000423867
0.000544926
0.00066595
0.000786932
0.000907863
0.00102874
0.00114954
0.00127027
0.00139092
0.00151148
0.00163193
0.00175228
0.0018725
0.0019926
0.00211255
0.00223236
0.00235201
0.00247149
0.00259079
0.00270989
0.00282879
0.00294748
0.00306593
0.00318415
0.00330211
0.0034198
0.00353721
0.00365433
0.00377113
0.00388761
0.00400374
0.00411952
0.00423493
0.00434994
0.00446455
0.00457872
0.00469246
0.00480573
0.00491852
0.00503081
0.00514257
0.0052538
0.00536446
0.00547454
0.00558401
0.00569285
0.00580105
0.00590857
0.00601539
0.0061215
0.00622686
0.00633146
0.00643526
0.00653825
0.00664039
0.00674167
0.00684206
0.00694153
0.00704006
0.00713762
0.00723418
0.00732973
0.00742422
0.00751764
0.00760997
0.00770116
0.00779121
0.00788008
0.00796774
0.00805418
0.00813936
0.00822325
0.00830585
0.00838711
0.00846702
0.00854554
0.00862267
0.00869836
0.00877261
0.00884538
0.00891666
0.00898642
0.00905464
0.00912131
0.00918639
0.00924987
0.00931174
0.00937197
0.00943055
0.00948745
0.00954267
0.00959619
0.00964799
0.00969806
0.00974638
0.00979294
0.00983774
0.00988075
0.00992198
0.0099614
0.00999901
0.0100348
0.0100688
0.0101009
0.0101312
0.0101597
0.0101863
0.0102111
0.010234
0.0102551
0.0102743
0.0102917
0.0103072
0.0103208
0.0103326
0.0103426
0.0103507
0.010357
0.0103614
0.010364
0.0103648
0.0103637
0.0103609
0.0103562
0.0103497
0.0103415
0.0103315
0.0103197
0.0103061
0.0102908
0.0102737
0.0102549
0.0102344
0.0102122
0.0101883
0.0101627
0.0101355
0.0101065
0.010076
0.0100438
0.01001
0.00997461
0.00993763
0.00989907
0.00985896
0.00981731
0.00977414
0.00972945
0.00968328
0.00963562
0.00958651
0.00953595
0.00948396
0.00943056
0.00937577
0.0093196
0.00926207
0.0092032
0.009143
0.0090815
0.00901871
0.00895465
0.00888933
0.00882278
0.00875501
0.00868605
0.0086159
0.00854459
0.00847214
0.00839856
0.00832388
0.00824811
0.00817127
0.00809338
0.00801446
0.00793453
0.0078536
0.0077717
0.00768884
0.00760505
0.00752033
0.00743472
0.00734823
0.00726087
0.00717267
0.00708365
0.00699381
0.00690319
0.0068118
0.00671966
0.00662678
0.00653319
0.0064389
0.00634393
0.00624829
0.00615201
0.0060551
0.00595758
0.00585946
0.00576077
0.00566151
0.00556171
0.00546138
0.00536054
0.00525919
0.00515737
0.00505508
0.00495233
0.00484915
0.00474554
0.00464153
0.00453712
0.00443233
0.00432717
0.00422165
0.00411579
0.00400961
0.00390311
0.0037963
0.0036892
0.00358182
0.00347417
0.00336626
0.00325811
0.00314972
0.0030411
0.00293226
0.00282322
0.00271399
0.00260457
0.00249497
0.0023852
0.00227528
0.0021652
0.00205499
0.00194464
0.00183416
0.00172357
0.00161287
0.00150207
0.00139117
0.00128019
0.00116913
0.00105799
0.000946797
0.000835543
0.000724239
0.000612891
0.000501506
0.000390091
0.000278653
0.000167198
5.57339e-05
7.78696e-05
0.000233604
0.000389323
0.000545018
0.000700679
0.000856295
0.00101186
0.00116735
0.00132278
0.00147811
0.00163335
0.00178849
0.0019435
0.00209839
0.00225313
0.00240772
0.00256215
0.0027164
0.00287045
0.00302431
0.00317794
0.00333134
0.0034845
0.00363739
0.00379
0.00394233
0.00409434
0.00424603
0.00439737
0.00454835
0.00469895
0.00484916
0.00499894
0.00514829
0.00529717
0.00544558
0.00559348
0.00574086
0.0058877
0.00603396
0.00617963
0.00632467
0.00646908
0.00661281
0.00675585
0.00689816
0.00703973
0.00718052
0.0073205
0.00745964
0.00759792
0.00773531
0.00787177
0.00800728
0.0081418
0.00827531
0.00840776
0.00853914
0.0086694
0.00879851
0.00892645
0.00905317
0.00917865
0.00930284
0.00942573
0.00954727
0.00966743
0.00978618
0.00990347
0.0100193
0.0101336
0.0102463
0.0103575
0.0104671
0.010575
0.0106812
0.0107858
0.0108885
0.0109895
0.0110887
0.0111861
0.0112816
0.0113752
0.0114669
0.0115566
0.0116444
0.0117301
0.0118138
0.0118955
0.011975
0.0120525
0.0121279
0.012201
0.0122721
0.0123409
0.0124075
0.0124719
0.0125341
0.012594
0.0126516
0.0127069
0.0127599
0.0128106
0.012859
0.012905
0.0129487
0.0129901
0.013029
0.0130656
0.0130999
0.0131317
0.0131612
0.0131883
0.013213
0.0132353
0.0132552
0.0132728
0.013288
0.0133008
0.0133112
0.0133192
0.0133249
0.0133283
0.0133292
0.0133279
0.0133242
0.0133182
0.0133099
0.0132993
0.0132863
0.0132711
0.0132537
0.013234
0.013212
0.0131879
0.0131615
0.0131329
0.0131021
0.0130692
0.0130341
0.0129969
0.0129576
0.0129162
0.0128728
0.0128272
0.0127796
0.01273
0.0126785
0.0126249
0.0125693
0.0125119
0.0124525
0.0123912
0.012328
0.012263
0.0121961
0.0121274
0.0120569
0.0119847
0.0119107
0.011835
0.0117575
0.0116784
0.0115977
0.0115153
0.0114313
0.0113457
0.0112585
0.0111698
0.0110796
0.0109879
0.0108947
0.0108
0.010704
0.0106065
0.0105077
0.0104075
0.010306
0.0102032
0.0100992
0.00999382
0.00988726
0.00977949
0.00967054
0.00956044
0.0094492
0.00933685
0.00922342
0.00910893
0.0089934
0.00887685
0.00875932
0.00864082
0.00852138
0.00840101
0.00827975
0.00815761
0.00803462
0.0079108
0.00778618
0.00766076
0.00753459
0.00740767
0.00728002
0.00715168
0.00702266
0.00689297
0.00676265
0.0066317
0.00650016
0.00636803
0.00623535
0.00610211
0.00596836
0.00583409
0.00569933
0.00556411
0.00542842
0.0052923
0.00515575
0.0050188
0.00488146
0.00474374
0.00460566
0.00446723
0.00432847
0.0041894
0.00405002
0.00391035
0.00377041
0.0036302
0.00348973
0.00334903
0.00320811
0.00306696
0.00292561
0.00278407
0.00264235
0.00250046
0.00235841
0.0022162
0.00207386
0.00193139
0.00178879
0.00164609
0.00150329
0.00136039
0.00121741
0.00107436
0.000931239
0.000788065
0.000644844
0.000501585
0.000358296
0.000214986
7.16635e-05
9.51839e-05
0.000285546
0.00047589
0.000666204
0.000856476
0.00104669
0.00123685
0.00142692
0.0016169
0.00180678
0.00199654
0.00218617
0.00237566
0.00256499
0.00275414
0.00294311
0.00313188
0.00332043
0.00350875
0.00369682
0.00388462
0.00407214
0.00425936
0.00444626
0.00463283
0.00481903
0.00500486
0.00519029
0.0053753
0.00555987
0.00574398
0.0059276
0.00611071
0.00629329
0.0064753
0.00665673
0.00683755
0.00701773
0.00719724
0.00737605
0.00755414
0.00773147
0.00790802
0.00808375
0.00825863
0.00843262
0.0086057
0.00877783
0.00894898
0.00911911
0.00928818
0.00945616
0.00962301
0.00978869
0.00995317
0.0101164
0.0102784
0.010439
0.0105983
0.0107561
0.0109126
0.0110675
0.011221
0.0113728
0.0115231
0.0116717
0.0118186
0.0119638
0.0121073
0.0122489
0.0123887
0.0125265
0.0126625
0.0127965
0.0129284
0.0130583
0.0131861
0.0133118
0.0134353
0.0135566
0.0136757
0.0137925
0.0139069
0.0140191
0.0141288
0.0142361
0.0143409
0.0144433
0.0145431
0.0146405
0.0147352
0.0148273
0.0149168
0.0150037
0.0150878
0.0151693
0.015248
0.015324
0.0153973
0.0154677
0.0155353
0.0156002
0.0156622
0.0157213
0.0157776
0.015831
0.0158815
0.0159292
0.0159739
0.0160158
0.0160547
0.0160908
0.0161239
0.0161541
0.0161813
0.0162057
0.0162272
0.0162457
0.0162613
0.016274
0.0162839
0.0162908
0.0162949
0.0162961
0.0162944
0.0162899
0.0162825
0.0162723
0.0162593
0.0162435
0.0162249
0.0162035
0.0161794
0.0161526
0.016123
0.0160907
0.0160557
0.0160181
0.0159779
0.015935
0.0158895
0.0158414
0.0157907
0.0157376
0.0156819
0.0156237
0.015563
0.0154999
0.0154344
0.0153665
0.0152962
0.0152235
0.0151486
0.0150713
0.0149918
0.01491
0.014826
0.0147398
0.0146515
0.014561
0.0144684
0.0143737
0.014277
0.0141783
0.0140775
0.0139748
0.0138701
0.0137635
0.0136551
0.0135447
0.0134326
0.0133187
0.013203
0.0130855
0.0129663
0.0128455
0.012723
0.0125989
0.0124732
0.012346
0.0122172
0.0120869
0.0119551
0.0118219
0.0116873
0.0115513
0.0114139
0.0112752
0.0111352
0.010994
0.0108515
0.0107078
0.0105629
0.0104169
0.0102697
0.0101215
0.00997215
0.00982179
0.00967041
0.00951804
0.00936471
0.00921045
0.00905528
0.00889923
0.00874233
0.00858459
0.00842605
0.00826672
0.00810664
0.00794582
0.0077843
0.00762209
0.00745921
0.00729569
0.00713155
0.00696682
0.0068015
0.00663563
0.00646923
0.0063023
0.00613489
0.00596699
0.00579864
0.00562984
0.00546063
0.005291
0.005121
0.00495062
0.00477988
0.00460881
0.00443742
0.00426572
0.00409373
0.00392146
0.00374892
0.00357614
0.00340313
0.00322989
0.00305644
0.0028828
0.00270898
0.00253498
0.00236083
0.00218653
0.00201209
0.00183754
0.00166287
0.00148809
0.00131323
0.00113829
0.000963287
0.000788222
0.00061311
0.000437961
0.000262787
8.75974e-05
0.000112504
0.000337506
0.000562486
0.000787431
0.00101233
0.00123716
0.00146191
0.00168658
0.00191113
0.00213556
0.00235986
0.002584
0.00280797
0.00303176
0.00325534
0.0034787
0.00370183
0.0039247
0.0041473
0.0043696
0.00459159
0.00481325
0.00503455
0.00525548
0.00547601
0.00569612
0.00591578
0.00613498
0.00635368
0.00657186
0.0067895
0.00700656
0.00722302
0.00743885
0.00765402
0.0078685
0.00808226
0.00829526
0.00850748
0.00871887
0.00892941
0.00913906
0.00934778
0.00955553
0.00976229
0.009968
0.0101726
0.0103761
0.0105785
0.0107796
0.0109795
0.0111781
0.0113754
0.0115713
0.0117658
0.0119588
0.0121503
0.0123402
0.0125285
0.0127152
0.0129002
0.0130834
0.0132648
0.0134444
0.0136221
0.0137978
0.0139716
0.0141433
0.0143129
0.0144803
0.0146456
0.0148087
0.0149694
0.0151279
0.0152839
0.0154375
0.0155887
0.0157373
0.0158833
0.0160268
0.0161676
0.0163057
0.016441
0.0165736
0.0167034
0.0168303
0.0169542
0.0170753
0.0171934
0.0173084
0.0174205
0.0175294
0.0176352
0.0177379
0.0178375
0.0179338
0.0180269
0.0181168
0.0182033
0.0182866
0.0183666
0.0184433
0.0185166
0.0185865
0.018653
0.0187162
0.0187759
0.0188323
0.0188852
0.0189346
0.0189806
0.0190232
0.0190624
0.0190981
0.0191303
0.0191591
0.0191844
0.0192063
0.0192248
0.0192398
0.0192514
0.0192596
0.0192644
0.0192658
0.0192638
0.0192584
0.0192496
0.0192376
0.0192222
0.0192034
0.0191814
0.0191561
0.0191276
0.0190958
0.0190608
0.0190226
0.0189813
0.0189368
0.0188891
0.0188384
0.0187846
0.0187277
0.0186678
0.0186049
0.018539
0.0184702
0.0183984
0.0183238
0.0182463
0.018166
0.0180829
0.0179969
0.0179083
0.0178169
0.0177229
0.0176262
0.0175268
0.0174249
0.0173205
0.0172135
0.017104
0.016992
0.0168776
0.0167608
0.0166417
0.0165202
0.0163965
0.0162704
0.0161422
0.0160117
0.0158791
0.0157444
0.0156076
0.0154687
0.0153278
0.015185
0.0150401
0.0148934
0.0147448
0.0145943
0.014442
0.014288
0.0141322
0.0139747
0.0138155
0.0136547
0.0134923
0.0133283
0.0131628
0.0129958
0.0128274
0.0126575
0.0124862
0.0123135
0.0121395
0.0119643
0.0117877
0.01161
0.011431
0.0112509
0.0110696
0.0108872
0.0107038
0.0105193
0.0103338
0.0101473
0.0099599
0.00977155
0.00958231
0.0093922
0.00920125
0.00900949
0.00881695
0.00862364
0.00842961
0.00823487
0.00803945
0.00784338
0.00764667
0.00744935
0.00725145
0.00705298
0.00685397
0.00665445
0.00645442
0.00625392
0.00605296
0.00585157
0.00564975
0.00544754
0.00524495
0.00504199
0.00483869
0.00463507
0.00443113
0.00422691
0.0040224
0.00381763
0.00361262
0.00340738
0.00320192
0.00299626
0.00279042
0.0025844
0.00237822
0.0021719
0.00196544
0.00175887
0.00155219
0.00134542
0.00113857
0.000931645
0.00072467
0.000517652
0.000310603
0.000103536
0.000129832
0.000389487
0.000649118
0.000908709
0.00116824
0.0014277
0.00168708
0.00194634
0.00220548
0.00246449
0.00272333
0.002982
0.00324047
0.00349873
0.00375676
0.00401453
0.00427203
0.00452924
0.00478614
0.0050427
0.00529889
0.00555471
0.00581012
0.00606509
0.00631961
0.00657365
0.00682717
0.00708016
0.00733258
0.0075844
0.00783559
0.00808612
0.00833596
0.00858508
0.00883343
0.00908099
0.00932772
0.00957359
0.00981854
0.0100626
0.0103056
0.0105476
0.0107885
0.0110283
0.011267
0.0115045
0.0117407
0.0119756
0.0122092
0.0124414
0.0126722
0.0129014
0.0131292
0.0133553
0.0135799
0.0138027
0.0140238
0.014243
0.0144605
0.014676
0.0148895
0.0151011
0.0153106
0.0155179
0.015723
0.0159259
0.0161265
0.0163248
0.0165206
0.016714
0.0169048
0.0170931
0.0172787
0.0174616
0.0176418
0.0178192
0.0179937
0.0181653
0.018334
0.0184996
0.0186622
0.0188216
0.0189779
0.019131
0.0192808
0.0194273
0.0195705
0.0197103
0.0198466
0.0199795
0.0201088
0.0202346
0.0203568
0.0204754
0.0205903
0.0207015
0.020809
0.0209127
0.0210127
0.0211089
0.0212012
0.0212897
0.0213743
0.021455
0.0215319
0.0216048
0.0216737
0.0217387
0.0217998
0.0218569
0.02191
0.0219592
0.0220043
0.0220455
0.0220827
0.0221159
0.0221451
0.0221704
0.0221917
0.022209
0.0222224
0.0222318
0.0222373
0.0222388
0.0222365
0.0222302
0.0222201
0.0222062
0.0221883
0.0221667
0.0221412
0.022112
0.022079
0.0220423
0.0220019
0.0219577
0.0219099
0.0218585
0.0218035
0.0217449
0.0216827
0.021617
0.0215478
0.0214752
0.0213991
0.0213196
0.0212368
0.0211506
0.0210611
0.0209683
0.0208723
0.0207731
0.0206707
0.0205652
0.0204566
0.0203449
0.0202303
0.0201126
0.0199919
0.0198684
0.019742
0.0196127
0.0194806
0.0193458
0.0192082
0.019068
0.0189251
0.0187796
0.0186315
0.0184809
0.0183278
0.0181723
0.0180143
0.017854
0.0176913
0.0175264
0.0173592
0.0171897
0.0170182
0.0168445
0.0166687
0.0164908
0.016311
0.0161291
0.0159454
0.0157597
0.0155723
0.015383
0.0151919
0.0149991
0.0148046
0.0146085
0.0144108
0.0142115
0.0140107
0.0138083
0.0136045
0.0133993
0.0131927
0.0129848
0.0127756
0.0125651
0.0123533
0.0121404
0.0119263
0.011711
0.0114947
0.0112773
0.0110588
0.0108394
0.010619
0.0103977
0.0101754
0.00995233
0.00972838
0.00950361
0.00927806
0.00905175
0.00882472
0.00859698
0.00836857
0.00813951
0.00790983
0.00767955
0.0074487
0.00721729
0.00698536
0.00675293
0.00652002
0.00628665
0.00605284
0.00581861
0.00558399
0.00534899
0.00511364
0.00487795
0.00464194
0.00440563
0.00416903
0.00393217
0.00369507
0.00345773
0.00322018
0.00298243
0.00274449
0.00250639
0.00226814
0.00202975
0.00179124
0.00155262
0.00131391
0.00107512
0.000836273
0.000597373
0.000358438
0.000119482
0.000147167
0.000441492
0.00073579
0.00103004
0.00132423
0.00161834
0.00191234
0.00220623
0.00249998
0.00279357
0.00308698
0.00338019
0.00367318
0.00396594
0.00425843
0.00455063
0.00484253
0.0051341
0.00542532
0.00571615
0.00600658
0.00629658
0.00658612
0.00687517
0.0071637
0.00745169
0.0077391
0.00802591
0.00831207
0.00859756
0.00888234
0.00916638
0.00944963
0.00973206
0.0100136
0.0102943
0.0105741
0.0108528
0.0111306
0.0114072
0.0116828
0.0119572
0.0122303
0.0125023
0.0127729
0.0130422
0.01331
0.0135764
0.0138413
0.0141046
0.0143663
0.0146263
0.0148846
0.015141
0.0153956
0.0156483
0.015899
0.0161477
0.0163943
0.0166387
0.0168809
0.0171208
0.0173584
0.0175936
0.0178262
0.0180563
0.0182839
0.0185087
0.0187308
0.0189502
0.0191666
0.0193801
0.0195907
0.0197981
0.0200025
0.0202037
0.0204017
0.0205963
0.0207876
0.0209755
0.0211599
0.0213407
0.021518
0.0216917
0.0218616
0.0220278
0.0221902
0.0223487
0.0225033
0.022654
0.0228007
0.0229434
0.023082
0.0232165
0.0233468
0.0234729
0.0235949
0.0237125
0.0238259
0.023935
0.0240397
0.02414
0.024236
0.0243275
0.0244146
0.0244973
0.0245755
0.0246492
0.0247184
0.0247831
0.0248434
0.0248991
0.0249503
0.0249969
0.0250391
0.0250767
0.0251098
0.0251384
0.0251625
0.0251821
0.0251973
0.0252079
0.0252141
0.0252158
0.0252131
0.025206
0.0251945
0.0251786
0.0251583
0.0251337
0.0251048
0.0250716
0.0250342
0.0249925
0.0249466
0.0248965
0.0248423
0.0247839
0.0247214
0.0246549
0.0245844
0.0245098
0.0244313
0.0243489
0.0242626
0.0241724
0.0240784
0.0239806
0.0238791
0.0237739
0.023665
0.0235524
0.0234363
0.0233166
0.0231934
0.0230667
0.0229366
0.0228032
0.0226663
0.0225262
0.0223828
0.0222362
0.0220864
0.0219335
0.0217774
0.0216184
0.0214563
0.0212913
0.0211233
0.0209525
0.0207789
0.0206025
0.0204234
0.0202415
0.0200571
0.01987
0.0196804
0.0194883
0.0192937
0.0190967
0.0188973
0.0186956
0.0184917
0.0182855
0.0180771
0.0178666
0.017654
0.0174394
0.0172227
0.0170041
0.0167836
0.0165612
0.016337
0.016111
0.0158833
0.0156538
0.0154228
0.0151901
0.0149558
0.0147201
0.0144828
0.0142441
0.0140041
0.0137626
0.0135198
0.0132758
0.0130305
0.012784
0.0125364
0.0122876
0.0120377
0.0117868
0.0115348
0.0112819
0.011028
0.0107731
0.0105174
0.0102609
0.0100035
0.00974529
0.00948634
0.00922667
0.00896628
0.00870523
0.00844352
0.00818119
0.00791827
0.00765478
0.00739074
0.00712619
0.00686114
0.00659563
0.00632966
0.00606327
0.00579648
0.00552931
0.00526177
0.0049939
0.00472571
0.00445721
0.00418844
0.00391941
0.00365014
0.00338064
0.00311093
0.00284104
0.00257097
0.00230075
0.0020304
0.00175992
0.00148934
0.00121867
0.000947926
0.000677129
0.000406293
0.000135434
0.000164512
0.000493525
0.000822508
0.00115144
0.0014803
0.00180907
0.00213773
0.00246626
0.00279463
0.00312283
0.00345083
0.0037786
0.00410614
0.00443341
0.00476038
0.00508705
0.00541337
0.00573932
0.00606488
0.00639001
0.0067147
0.00703891
0.0073626
0.00768576
0.00800834
0.00833031
0.00865164
0.0089723
0.00929224
0.00961144
0.00992984
0.0102474
0.0105641
0.0108799
0.0111947
0.0115086
0.0118214
0.0121331
0.0124436
0.012753
0.0130611
0.013368
0.0136734
0.0139775
0.0142802
0.0145813
0.0148808
0.0151787
0.015475
0.0157694
0.0160621
0.0163529
0.0166417
0.0169286
0.0172133
0.017496
0.0177764
0.0180545
0.0183303
0.0186037
0.0188746
0.019143
0.0194087
0.0196717
0.019932
0.0201894
0.0204439
0.0206954
0.0209439
0.0211892
0.0214313
0.0216702
0.0219057
0.0221378
0.0223664
0.0225915
0.0228129
0.0230307
0.0232447
0.0234548
0.0236611
0.0238634
0.0240618
0.024256
0.0244461
0.024632
0.0248137
0.024991
0.025164
0.0253326
0.0254967
0.0256563
0.0258113
0.0259617
0.0261075
0.0262486
0.026385
0.0265166
0.0266434
0.0267654
0.0268825
0.0269947
0.027102
0.0272044
0.0273018
0.0273943
0.0274817
0.0275641
0.0276415
0.0277139
0.0277812
0.0278435
0.0279007
0.0279529
0.028
0.028042
0.028079
0.028111
0.0281379
0.0281598
0.0281766
0.0281885
0.0281953
0.0281972
0.0281942
0.0281861
0.0281732
0.0281554
0.0281327
0.0281051
0.0280727
0.0280355
0.0279936
0.0279469
0.0278955
0.0278394
0.0277787
0.0277134
0.0276435
0.027569
0.02749
0.0274066
0.0273188
0.0272265
0.0271299
0.027029
0.0269238
0.0268144
0.0267008
0.0265831
0.0264612
0.0263353
0.0262054
0.0260715
0.0259337
0.025792
0.0256464
0.0254971
0.025344
0.0251873
0.0250269
0.0248628
0.0246953
0.0245242
0.0243497
0.0241718
0.0239905
0.0238059
0.0236181
0.023427
0.0232328
0.0230355
0.0228351
0.0226317
0.0224254
0.0222162
0.0220041
0.0217892
0.0215716
0.0213513
0.0211283
0.0209028
0.0206747
0.0204441
0.020211
0.0199756
0.0197378
0.0194978
0.0192555
0.019011
0.0187644
0.0185157
0.0182649
0.0180122
0.0177576
0.017501
0.0172426
0.0169824
0.0167205
0.0164568
0.0161915
0.0159246
0.0156562
0.0153862
0.0151147
0.0148418
0.0145676
0.0142919
0.014015
0.0137368
0.0134575
0.0131769
0.0128952
0.0126123
0.0123285
0.0120435
0.0117576
0.0114708
0.011183
0.0108944
0.0106048
0.0103145
0.0100234
0.00973155
0.00943896
0.00914568
0.00885174
0.00855717
0.00826199
0.00796623
0.00766992
0.00737309
0.00707576
0.00677795
0.0064797
0.00618102
0.00588195
0.00558249
0.00528268
0.00498254
0.00468208
0.00438133
0.00408032
0.00377905
0.00347756
0.00317585
0.00287396
0.00257189
0.00226967
0.00196732
0.00166485
0.00136228
0.00105963
0.000756925
0.000454173
0.000151394
0.000181866
0.000545588
0.000909276
0.00127291
0.00163646
0.00199992
0.00236325
0.00272644
0.00308946
0.00345229
0.00381489
0.00417726
0.00453936
0.00490117
0.00526266
0.0056238
0.00598457
0.00634493
0.00670486
0.00706433
0.0074233
0.00778175
0.00813963
0.00849692
0.00885358
0.00920957
0.00956486
0.00991941
0.0102732
0.0106261
0.0109782
0.0113293
0.0116795
0.0120287
0.0123769
0.0127239
0.0130698
0.0134145
0.0137579
0.0141
0.0144408
0.0147801
0.0151179
0.0154542
0.0157889
0.016122
0.0164533
0.0167828
0.0171104
0.0174361
0.0177598
0.0180814
0.0184009
0.0187182
0.0190332
0.0193458
0.019656
0.0199636
0.0202687
0.0205712
0.0208708
0.0211677
0.0214616
0.0217526
0.0220405
0.0223253
0.0226069
0.0228851
0.02316
0.0234314
0.0236993
0.0239636
0.0242241
0.0244809
0.0247339
0.0249829
0.0252279
0.0254688
0.0257055
0.0259381
0.0261663
0.0263902
0.0266096
0.0268245
0.0270348
0.0272405
0.0274415
0.0276377
0.0278291
0.0280156
0.0281971
0.0283737
0.0285452
0.0287116
0.0288729
0.029029
0.0291799
0.0293255
0.0294657
0.0296007
0.0297302
0.0298544
0.029973
0.0300863
0.030194
0.0302962
0.0303929
0.0304841
0.0305697
0.0306497
0.0307241
0.030793
0.0308562
0.0309139
0.030966
0.0310124
0.0310533
0.0310886
0.0311183
0.0311424
0.031161
0.0311741
0.0311816
0.0311836
0.0311801
0.0311712
0.0311568
0.031137
0.0311118
0.0310813
0.0310454
0.0310042
0.0309577
0.030906
0.0308491
0.030787
0.0307197
0.0306474
0.03057
0.0304876
0.0304002
0.0303078
0.0302106
0.0301085
0.0300016
0.0298899
0.0297735
0.0296524
0.0295267
0.0293964
0.0292616
0.0291222
0.0289785
0.0288303
0.0286778
0.028521
0.02836
0.0281948
0.0280254
0.027852
0.0276745
0.0274931
0.0273077
0.0271184
0.0269254
0.0267285
0.026528
0.0263238
0.026116
0.0259046
0.0256898
0.0254715
0.0252499
0.0250249
0.0247967
0.0245652
0.0243307
0.024093
0.0238522
0.0236085
0.0233619
0.0231124
0.0228601
0.0226051
0.0223473
0.0220869
0.0218239
0.0215584
0.0212904
0.02102
0.0207473
0.0204722
0.0201949
0.0199154
0.0196337
0.01935
0.0190642
0.0187765
0.0184868
0.0181952
0.0179018
0.0176067
0.0173098