/*--------------------------------*- C++ -*----------------------------------*\
| =========                 |                                                 |
| \\      /  F ield         | OpenFOAM: The Open Source CFD Toolbox           |
|  \\    /   O peration     | Version:  v2012                                 |
|   \\  /    A nd           | Website:  www.openfoam.com                      |
|    \\/     M anipulation  |                                                 |
\*---------------------------------------------------------------------------*/
FoamFile
{
    version     2.0;
    format      ascii;
    class       volScalarField;
    location    "2.1";
    object      W;
}
// * * * * * * * * * * * * * * * * * * * * * * * * * * * * * * * * * * * * * //

dimensions      [0 0 -1 0 0 0 0];


internalField   nonuniform List<scalar> 
65536
(
8.89004e-22
2.72517e-21
4.74799e-21
7.11804e-21
1.00399e-20
1.37705e-20
1.86296e-20
2.50174e-20
3.34395e-20
4.45402e-20
5.91447e-20
7.83113e-20
1.03396e-19
1.36133e-19
1.78732e-19
2.34002e-19
3.05504e-19
3.97731e-19
5.16341e-19
6.68431e-19
8.62876e-19
1.11073e-18
1.42573e-18
1.82487e-18
2.32912e-18
2.96425e-18
3.76182e-18
4.76037e-18
6.00678e-18
7.55787e-18
9.48227e-18
1.18626e-17
1.47978e-17
1.84063e-17
2.28288e-17
2.82325e-17
3.48145e-17
4.28071e-17
5.24826e-17
6.41588e-17
7.82056e-17
9.50512e-17
1.1519e-16
1.3919e-16
1.67701e-16
2.01464e-16
2.41318e-16
2.88212e-16
3.43213e-16
4.07513e-16
4.82443e-16
5.69473e-16
6.70229e-16
7.86491e-16
9.20202e-16
1.07347e-15
1.24857e-15
1.44794e-15
1.67417e-15
1.93001e-15
2.21834e-15
2.54216e-15
2.90457e-15
3.30875e-15
3.75792e-15
4.25529e-15
4.80406e-15
5.40731e-15
6.06801e-15
6.78892e-15
7.57257e-15
8.42113e-15
9.33642e-15
1.03198e-14
1.1372e-14
1.24934e-14
1.36834e-14
1.49409e-14
1.6264e-14
1.76498e-14
1.90946e-14
2.0594e-14
2.21424e-14
2.37333e-14
2.53594e-14
2.70124e-14
2.86832e-14
3.03619e-14
3.20379e-14
3.36997e-14
3.53358e-14
3.69339e-14
3.84815e-14
3.99661e-14
4.13754e-14
4.26969e-14
4.3919e-14
4.50303e-14
4.60203e-14
4.68795e-14
4.75993e-14
4.81724e-14
4.85929e-14
4.88561e-14
4.89592e-14
4.89008e-14
4.8681e-14
4.8302e-14
4.77671e-14
4.70817e-14
4.62524e-14
4.52875e-14
4.41966e-14
4.29903e-14
4.16807e-14
4.02806e-14
3.88035e-14
3.72637e-14
3.56757e-14
3.40544e-14
3.24148e-14
3.07715e-14
2.91394e-14
2.75324e-14
2.59644e-14
2.44484e-14
2.29966e-14
2.16205e-14
2.03309e-14
1.91372e-14
1.80483e-14
1.70719e-14
1.62144e-14
1.54817e-14
1.48782e-14
1.44075e-14
1.40721e-14
1.38735e-14
1.38121e-14
1.38873e-14
1.40974e-14
1.44399e-14
1.4911e-14
1.55059e-14
1.62189e-14
1.70431e-14
1.79707e-14
1.89927e-14
2.00993e-14
2.12795e-14
2.25215e-14
2.38127e-14
2.51396e-14
2.6488e-14
2.78434e-14
2.91906e-14
3.05143e-14
3.1799e-14
3.30296e-14
3.41909e-14
3.52687e-14
3.62491e-14
3.71195e-14
3.78682e-14
3.84852e-14
3.89617e-14
3.92906e-14
3.94668e-14
3.94871e-14
3.935e-14
3.90563e-14
3.86085e-14
3.80112e-14
3.72707e-14
3.63951e-14
3.53941e-14
3.42785e-14
3.30606e-14
3.17532e-14
3.03702e-14
2.89257e-14
2.74339e-14
2.59093e-14
2.43657e-14
2.28167e-14
2.1275e-14
1.97526e-14
1.82605e-14
1.68084e-14
1.54049e-14
1.40575e-14
1.27722e-14
1.15539e-14
1.04061e-14
9.33129e-15
8.33076e-15
7.40477e-15
6.55265e-15
5.77294e-15
5.06345e-15
4.42142e-15
3.8436e-15
3.32638e-15
2.86588e-15
2.45806e-15
2.09881e-15
1.784e-15
1.50958e-15
1.2716e-15
1.06629e-15
8.90083e-16
7.39622e-16
6.11803e-16
5.03771e-16
4.12926e-16
3.36919e-16
2.73647e-16
2.21241e-16
1.78052e-16
1.42638e-16
1.13744e-16
9.02866e-17
7.13376e-17
5.61064e-17
4.39242e-17
3.42287e-17
2.65506e-17
2.04998e-17
1.5755e-17
1.20526e-17
9.17771e-18
6.9563e-18
5.24823e-18
3.94127e-18
2.94612e-18
2.19206e-18
1.62347e-18
1.19681e-18
8.78205e-19
6.41439e-19
4.66343e-19
3.37477e-19
2.43094e-19
1.74299e-19
1.24396e-19
8.83713e-20
6.24888e-20
4.3981e-20
3.08062e-20
2.14647e-20
1.48563e-20
1.01726e-20
6.81579e-21
4.34008e-21
2.41045e-21
7.73055e-22
2.89571e-21
8.87658e-21
1.54655e-20
2.31853e-20
3.2702e-20
4.48517e-20
6.06757e-20
8.14765e-20
1.08899e-19
1.45042e-19
1.92589e-19
2.54985e-19
3.36641e-19
4.432e-19
5.81852e-19
7.61736e-19
9.94429e-19
1.29455e-18
1.68051e-18
2.17537e-18
2.808e-18
3.61435e-18
4.63907e-18
5.93741e-18
7.57753e-18
9.64319e-18
1.2237e-17
1.54842e-17
1.9537e-17
2.45802e-17
3.08367e-17
3.85747e-17
4.81159e-17
5.98446e-17
7.42181e-17
9.17786e-17
1.13167e-16
1.39136e-16
1.70571e-16
2.08502e-16
2.54129e-16
3.08843e-16
3.74247e-16
4.52182e-16
5.44756e-16
6.54369e-16
7.83745e-16
9.35958e-16
1.11446e-15
1.32312e-15
1.56625e-15
1.8486e-15
2.17545e-15
2.55254e-15
2.98618e-15
3.48317e-15
4.05087e-15
4.69717e-15
5.43043e-15
6.25954e-15
7.19379e-15
8.24289e-15
9.41683e-15
1.07258e-14
1.21803e-14
1.37906e-14
1.55669e-14
1.75193e-14
1.96572e-14
2.19895e-14
2.45242e-14
2.72684e-14
3.02277e-14
3.34064e-14
3.6807e-14
4.04301e-14
4.42742e-14
4.83353e-14
5.2607e-14
5.70801e-14
6.17426e-14
6.65796e-14
7.15732e-14
7.67025e-14
8.19435e-14
8.72695e-14
9.26508e-14
9.80555e-14
1.03449e-13
1.08795e-13
1.14056e-13
1.19191e-13
1.24162e-13
1.28928e-13
1.33448e-13
1.37684e-13
1.41597e-13
1.45151e-13
1.48313e-13
1.51051e-13
1.53339e-13
1.55154e-13
1.56476e-13
1.57291e-13
1.57591e-13
1.5737e-13
1.5663e-13
1.55377e-13
1.53624e-13
1.51388e-13
1.4869e-13
1.45556e-13
1.4202e-13
1.38114e-13
1.33877e-13
1.29352e-13
1.24582e-13
1.19611e-13
1.14489e-13
1.09262e-13
1.03978e-13
9.86845e-14
9.34289e-14
8.82564e-14
8.32108e-14
7.83337e-14
7.36646e-14
6.924e-14
6.50937e-14
6.12566e-14
5.77561e-14
5.46168e-14
5.18595e-14
4.95022e-14
4.7559e-14
4.60411e-14
4.49562e-14
4.43087e-14
4.40996e-14
4.43269e-14
4.49851e-14
4.60653e-14
4.75555e-14
4.94404e-14
5.17011e-14
5.43158e-14
5.72591e-14
6.05024e-14
6.4014e-14
6.77591e-14
7.16998e-14
7.57959e-14
8.00043e-14
8.42801e-14
8.85765e-14
9.28456e-14
9.70387e-14
1.01107e-13
1.05001e-13
1.08675e-13
1.12081e-13
1.15178e-13
1.17924e-13
1.20283e-13
1.22223e-13
1.23716e-13
1.24741e-13
1.25281e-13
1.25326e-13
1.24872e-13
1.23921e-13
1.22482e-13
1.20569e-13
1.18203e-13
1.1541e-13
1.1222e-13
1.08667e-13
1.04792e-13
1.00634e-13
9.62381e-14
9.16485e-14
8.69107e-14
8.20701e-14
7.71709e-14
7.22558e-14
6.73654e-14
6.25374e-14
5.78064e-14
5.32033e-14
4.87554e-14
4.44859e-14
4.04141e-14
3.65551e-14
3.29202e-14
2.9517e-14
2.63494e-14
2.34183e-14
2.07214e-14
1.8254e-14
1.60091e-14
1.39779e-14
1.21501e-14
1.05142e-14
9.05789e-15
7.76832e-15
6.63243e-15
5.63717e-15
4.76968e-15
4.01746e-15
3.36858e-15
2.81172e-15
2.33627e-15
1.9324e-15
1.59107e-15
1.30408e-15
1.06397e-15
8.64114e-16
6.9859e-16
5.62189e-16
4.50349e-16
3.59104e-16
2.85032e-16
2.252e-16
1.77111e-16
1.38649e-16
1.08041e-16
8.38019e-17
6.47016e-17
4.97244e-17
3.80379e-17
2.89638e-17
2.19527e-17
1.65619e-17
1.24372e-17
9.2966e-18
6.91698e-18
5.1227e-18
3.77634e-18
2.77098e-18
2.02388e-18
1.47139e-18
1.06478e-18
7.66981e-19
5.49921e-19
3.92471e-19
2.78809e-19
1.97149e-19
1.38756e-19
9.71906e-20
6.77188e-20
4.68698e-20
3.20932e-20
2.1503e-20
1.36925e-20
7.60483e-21
2.43901e-21
5.64992e-21
1.73196e-20
3.01758e-20
4.52379e-20
6.38041e-20
8.75041e-20
1.18367e-19
1.58931e-19
2.12404e-19
2.8287e-19
3.75562e-19
4.97188e-19
6.56341e-19
8.64007e-19
1.13419e-18
1.48467e-18
1.938e-18
2.52263e-18
3.27437e-18
4.23812e-18
5.47002e-18
7.04002e-18
9.03494e-18
1.15622e-17
1.47544e-17
1.87744e-17
2.38214e-17
3.0139e-17
3.8023e-17
4.78322e-17
5.99994e-17
7.50458e-17
9.35958e-17
1.16395e-16
1.44332e-16
1.78457e-16
2.20015e-16
2.70465e-16
3.31523e-16
4.05186e-16
4.93782e-16
6.00001e-16
7.2695e-16
8.78195e-16
1.05781e-15
1.27046e-15
1.52138e-15
1.81654e-15
2.16261e-15
2.56707e-15
3.03821e-15
3.58526e-15
4.21836e-15
4.94862e-15
5.78817e-15
6.75016e-15
7.84873e-15
9.09905e-15
1.05173e-14
1.21204e-14
1.39263e-14
1.59536e-14
1.82216e-14
2.07497e-14
2.35578e-14
2.66658e-14
3.00932e-14
3.38589e-14
3.7981e-14
4.24764e-14
4.73601e-14
5.26454e-14
5.83429e-14
6.44603e-14
7.10021e-14
7.7969e-14
8.53575e-14
9.31597e-14
1.01362e-13
1.09948e-13
1.18892e-13
1.28167e-13
1.37736e-13
1.4756e-13
1.57592e-13
1.67779e-13
1.78066e-13
1.88391e-13
1.98686e-13
2.08882e-13
2.18907e-13
2.28684e-13
2.38137e-13
2.47189e-13
2.55764e-13
2.63786e-13
2.71183e-13
2.77888e-13
2.83835e-13
2.88968e-13
2.93235e-13
2.96593e-13
2.99006e-13
3.00448e-13
3.00903e-13
3.00365e-13
2.98835e-13
2.96329e-13
2.9287e-13
2.88492e-13
2.83237e-13
2.77158e-13
2.70314e-13
2.62774e-13
2.54611e-13
2.45904e-13
2.36738e-13
2.272e-13
2.1738e-13
2.07369e-13
1.97258e-13
1.87137e-13
1.77096e-13
1.6722e-13
1.57592e-13
1.48291e-13
1.3939e-13
1.30959e-13
1.23061e-13
1.15753e-13
1.09087e-13
1.03107e-13
9.7854e-14
9.33589e-14
8.96484e-14
8.67423e-14
8.46542e-14
8.33914e-14
8.29551e-14
8.334e-14
8.45351e-14
8.6523e-14
8.92799e-14
9.27762e-14
9.6976e-14
1.01837e-13
1.07312e-13
1.13345e-13
1.19877e-13
1.26843e-13
1.34171e-13
1.41785e-13
1.49604e-13
1.57545e-13
1.6552e-13
1.73439e-13
1.81211e-13
1.88746e-13
1.95952e-13
2.02742e-13
2.09031e-13
2.14738e-13
2.19789e-13
2.24116e-13
2.27661e-13
2.30372e-13
2.32211e-13
2.33146e-13
2.33161e-13
2.32249e-13
2.30414e-13
2.27673e-13
2.24054e-13
2.19596e-13
2.14348e-13
2.08366e-13
2.01716e-13
1.94471e-13
1.86706e-13
1.78504e-13
1.69948e-13
1.61123e-13
1.52111e-13
1.42996e-13
1.33857e-13
1.24768e-13
1.15799e-13
1.07015e-13
9.84713e-14
9.02192e-14
8.23011e-14
7.47523e-14
6.76006e-14
6.08664e-14
5.45634e-14
4.86986e-14
4.32731e-14
3.82826e-14
3.3718e-14
2.95661e-14
2.58105e-14
2.24316e-14
1.94082e-14
1.67173e-14
1.4335e-14
1.22371e-14
1.03993e-14
8.79768e-15
7.4092e-15
6.21166e-15
5.18412e-15
4.30696e-15
3.56198e-15
2.93248e-15
2.40324e-15
1.96054e-15
1.5921e-15
1.287e-15
1.03561e-15
8.29506e-16
6.61379e-16
5.24912e-16
4.14692e-16
3.26111e-16
2.55273e-16
1.98904e-16
1.54269e-16
1.191e-16
9.15245e-17
7.00098e-17
5.33057e-17
4.04e-17
3.04776e-17
2.28862e-17
1.71063e-17
1.27271e-17
9.42532e-18
6.94789e-18
5.09801e-18
3.7234e-18
2.70688e-18
1.95881e-18
1.41093e-18
1.01161e-18
7.21961e-19
5.12869e-19
3.62651e-19
2.55237e-19
1.78777e-19
1.24565e-19
8.62143e-20
5.90338e-20
3.95542e-20
2.51874e-20
1.39894e-20
4.48675e-21
9.86507e-21
3.02412e-20
5.26891e-20
7.89874e-20
1.114e-19
1.52768e-19
2.06631e-19
2.77414e-19
3.70708e-19
4.93635e-19
6.55312e-19
8.67429e-19
1.14496e-18
1.50703e-18
1.97804e-18
2.58897e-18
3.37905e-18
4.39782e-18
5.7076e-18
7.38655e-18
9.53234e-18
1.22666e-17
1.57404e-17
2.01406e-17
2.56975e-17
3.26942e-17
4.14772e-17
5.24694e-17
6.61848e-17
8.32463e-17
1.04406e-16
1.30567e-16
1.62815e-16
2.02442e-16
2.50989e-16
3.10279e-16
3.82466e-16
4.70084e-16
5.761e-16
7.03977e-16
8.57741e-16
1.04205e-15
1.26228e-15
1.52459e-15
1.83605e-15
2.20466e-15
2.63954e-15
3.15093e-15
3.75038e-15
4.45075e-15
5.26639e-15
6.21315e-15
7.30851e-15
8.57159e-15
1.00232e-14
1.16861e-14
1.35843e-14
1.57441e-14
1.8193e-14
2.09602e-14
2.40764e-14
2.75732e-14
3.14835e-14
3.58407e-14
4.06786e-14
4.60307e-14
5.19304e-14
5.84095e-14
6.54987e-14
7.32261e-14
8.16171e-14
9.06934e-14
1.00473e-13
1.10967e-13
1.22183e-13
1.34122e-13
1.46776e-13
1.6013e-13
1.74161e-13
1.88837e-13
2.04116e-13
2.19948e-13
2.36272e-13
2.53017e-13
2.70102e-13
2.87439e-13
3.04929e-13
3.22466e-13
3.39936e-13
3.57219e-13
3.7419e-13
3.90722e-13
4.06682e-13
4.21942e-13
4.3637e-13
4.4984e-13
4.6223e-13
4.73426e-13
4.83319e-13
4.91814e-13
4.98826e-13
5.04283e-13
5.08126e-13
5.10316e-13
5.10825e-13
5.09646e-13
5.06786e-13
5.02272e-13
4.96147e-13
4.8847e-13
4.79317e-13
4.68778e-13
4.56956e-13
4.43969e-13
4.29943e-13
4.15014e-13
3.99326e-13
3.83026e-13
3.66268e-13
3.49206e-13
3.31993e-13
3.14783e-13
2.97724e-13
2.8096e-13
2.64631e-13
2.48868e-13
2.33793e-13
2.19521e-13
2.06157e-13
1.93796e-13
1.82522e-13
1.72409e-13
1.63519e-13
1.55906e-13
1.49611e-13
1.44665e-13
1.41088e-13
1.38891e-13
1.38073e-13
1.38623e-13
1.40521e-13
1.43736e-13
1.48225e-13
1.5394e-13
1.60816e-13
1.68784e-13
1.77762e-13
1.87658e-13
1.98371e-13
2.09793e-13
2.21804e-13
2.34278e-13
2.47081e-13
2.60073e-13
2.73112e-13
2.86047e-13
2.9873e-13
3.11011e-13
3.22742e-13
3.33778e-13
3.43981e-13
3.5322e-13
3.61373e-13
3.68332e-13
3.74e-13
3.78297e-13
3.81158e-13
3.82538e-13
3.82407e-13
3.80758e-13
3.776e-13
3.72962e-13
3.66892e-13
3.59454e-13
3.5073e-13
3.40815e-13
3.29816e-13
3.17854e-13
3.05053e-13
2.91549e-13
2.77478e-13
2.62977e-13
2.48185e-13
2.33235e-13
2.18256e-13
2.03371e-13
1.88692e-13
1.74323e-13
1.60357e-13
1.46875e-13
1.33945e-13
1.21624e-13
1.09956e-13
9.89752e-14
8.87016e-14
7.91462e-14
7.03102e-14
6.21857e-14
5.47574e-14
4.80031e-14
4.18955e-14
3.64025e-14
3.14889e-14
2.71171e-14
2.32478e-14
1.98413e-14
1.68581e-14
1.42589e-14
1.20062e-14
1.00638e-14
8.39754e-15
6.97545e-15
5.76792e-15
4.74779e-15
3.89032e-15
3.17321e-15
2.5765e-15
2.08245e-15
1.67546e-15
1.34184e-15
1.06974e-15
8.48912e-16
6.70581e-16
5.27283e-16
4.12704e-16
3.21539e-16
2.49361e-16
1.92496e-16
1.47915e-16
1.13135e-16
8.61349e-17
6.52764e-17
4.9241e-17
3.69736e-17
2.76344e-17
2.0559e-17
1.52246e-17
1.12223e-17
8.23403e-18
6.01361e-18
4.37171e-18
3.16345e-18
2.27858e-18
1.63366e-18
1.16588e-18
8.28212e-19
5.85624e-19
4.12165e-19
2.88694e-19
2.01151e-19
1.39223e-19
9.53319e-20
6.38764e-20
4.06768e-20
2.25932e-20
7.24641e-21
1.66201e-20
5.09487e-20
8.87676e-20
1.3307e-19
1.87666e-19
2.57337e-19
3.48035e-19
4.67205e-19
6.24251e-19
8.3115e-19
1.10323e-18
1.46015e-18
1.92707e-18
2.53614e-18
3.32834e-18
4.35573e-18
5.6842e-18
7.39695e-18
9.59862e-18
1.24204e-17
1.60262e-17
2.06202e-17
2.64558e-17
3.38463e-17
4.31781e-17
5.49257e-17
6.967e-17
8.81196e-17
1.11136e-16
1.39761e-16
1.75256e-16
2.19133e-16
2.73206e-16
3.3964e-16
4.21009e-16
5.20365e-16
6.41307e-16
7.88067e-16
9.65602e-16
1.1797e-15
1.43707e-15
1.74549e-15
2.11392e-15
2.55264e-15
3.07341e-15
3.68958e-15
4.41631e-15
5.27066e-15
6.2718e-15
7.44115e-15
8.8025e-15
1.03822e-14
1.22092e-14
1.43153e-14
1.67349e-14
1.95054e-14
2.26671e-14
2.6263e-14
3.03387e-14
3.49422e-14
4.01241e-14
4.59366e-14
5.24335e-14
5.96697e-14
6.77003e-14
7.65804e-14
8.63641e-14
9.71035e-14
1.08848e-13
1.21643e-13
1.35529e-13
1.50541e-13
1.66705e-13
1.84042e-13
2.0256e-13
2.22257e-13
2.4312e-13
2.65123e-13
2.88226e-13
3.12372e-13
3.37492e-13
3.635e-13
3.90292e-13
4.17752e-13
4.45745e-13
4.74122e-13
5.02721e-13
5.31364e-13
5.59864e-13
5.88025e-13
6.15639e-13
6.42498e-13
6.68386e-13
6.93091e-13
7.164e-13
7.38107e-13
7.58016e-13
7.7594e-13
7.91707e-13
8.05163e-13
8.16173e-13
8.24623e-13
8.30423e-13
8.33511e-13
8.33849e-13
8.31428e-13
8.26267e-13
8.18414e-13
8.07943e-13
7.94956e-13
7.79582e-13
7.6197e-13
7.42295e-13
7.20749e-13
6.97542e-13
6.72898e-13
6.47052e-13
6.20248e-13
5.92733e-13
5.64759e-13
5.36576e-13
5.0843e-13
4.80563e-13
4.53207e-13
4.26585e-13
4.00906e-13
3.76368e-13
3.53152e-13
3.31425e-13
3.11336e-13
2.93016e-13
2.76583e-13
2.62132e-13
2.49744e-13
2.39483e-13
2.31393e-13
2.25504e-13
2.21827e-13
2.20357e-13
2.21074e-13
2.23941e-13
2.28904e-13
2.35894e-13
2.44825e-13
2.55597e-13
2.68093e-13
2.8218e-13
2.9771e-13
3.14523e-13
3.3244e-13
3.51274e-13
3.70822e-13
3.90871e-13
4.11201e-13
4.31582e-13
4.51782e-13
4.71564e-13
4.90693e-13
5.08936e-13
5.26068e-13
5.41871e-13
5.56142e-13
5.68693e-13
5.79355e-13
5.87979e-13
5.94442e-13
5.98647e-13
6.00524e-13
6.00033e-13
5.97163e-13
5.91933e-13
5.84392e-13
5.74618e-13
5.62715e-13
5.48812e-13
5.33062e-13
5.15634e-13
4.96717e-13
4.76511e-13
4.55226e-13
4.33075e-13
4.10276e-13
3.87043e-13
3.63585e-13
3.40102e-13
3.16785e-13
2.9381e-13
2.71335e-13
2.49506e-13
2.28446e-13
2.08262e-13
1.8904e-13
1.70848e-13
1.53734e-13
1.37732e-13
1.22856e-13
1.09106e-13
9.64694e-14
8.49205e-14
7.44241e-14
6.49364e-14
5.6407e-14
4.87801e-14
4.19965e-14
3.59949e-14
3.0713e-14
2.60888e-14
2.20614e-14
1.85718e-14
1.55637e-14
1.2984e-14
1.0783e-14
8.91457e-15
7.33649e-15
6.01038e-15
4.90159e-15
3.97917e-15
3.21563e-15
2.58675e-15
2.07136e-15
1.65108e-15
1.31006e-15
1.03472e-15
8.13502e-16
6.36649e-16
4.95957e-16
3.84584e-16
2.96851e-16
2.28079e-16
1.74434e-16
1.32793e-16
1.00628e-16
7.59024e-17
5.69888e-17
4.25912e-17
3.16844e-17
2.3462e-17
1.72934e-17
1.2688e-17
9.26611e-18
6.73594e-18
4.87411e-18
3.51065e-18
2.51696e-18
1.79623e-18
1.27598e-18
9.02232e-19
6.34993e-19
4.44772e-19
3.09903e-19
2.14496e-19
1.46879e-19
9.84193e-20
6.26771e-20
3.48147e-20
1.11667e-20
2.76082e-20
8.46329e-20
1.47454e-19
2.21042e-19
3.11714e-19
4.27404e-19
5.77985e-19
7.75807e-19
1.03646e-18
1.37981e-18
1.83127e-18
2.42341e-18
3.19794e-18
4.20814e-18
5.52188e-18
7.22539e-18
9.42781e-18
1.22669e-17
1.59158e-17
2.05917e-17
2.6566e-17
3.41762e-17
4.38416e-17
5.60804e-17
7.15313e-17
9.09787e-17
1.15382e-16
1.45913e-16
1.83994e-16
2.31347e-16
2.9005e-16
3.62603e-16
4.51996e-16
5.61802e-16
6.96264e-16
8.60412e-16
1.06018e-15
1.30253e-15
1.59563e-15
1.94901e-15
2.3737e-15
2.88251e-15
3.49015e-15
4.21352e-15
5.07192e-15
6.0873e-15
7.28449e-15
8.6915e-15
1.03397e-14
1.22643e-14
1.45041e-14
1.71023e-14
2.01061e-14
2.35675e-14
2.75429e-14
3.2093e-14
3.72836e-14
4.31845e-14
4.987e-14
5.74183e-14
6.59111e-14
7.54332e-14
8.60716e-14
9.79149e-14
1.11052e-13
1.25572e-13
1.41561e-13
1.59102e-13
1.78275e-13
1.99151e-13
2.21794e-13
2.46258e-13
2.72585e-13
3.00802e-13
3.30923e-13
3.6294e-13
3.96829e-13
4.32544e-13
4.70015e-13
5.09148e-13
5.49827e-13
5.91907e-13
6.35219e-13
6.79568e-13
7.24735e-13
7.70474e-13
8.1652e-13
8.62584e-13
9.08361e-13
9.53531e-13
9.97761e-13
1.04071e-12
1.08204e-12
1.12139e-12
1.15844e-12
1.19285e-12
1.2243e-12
1.25251e-12
1.2772e-12
1.29813e-12
1.31508e-12
1.32788e-12
1.3364e-12
1.34053e-12
1.34024e-12
1.33551e-12
1.32638e-12
1.31293e-12
1.2953e-12
1.27366e-12
1.24822e-12
1.21922e-12
1.18696e-12
1.15175e-12
1.11392e-12
1.07385e-12
1.03192e-12
9.88503e-13
9.44013e-13
8.98849e-13
8.5341e-13
8.0809e-13
7.6327e-13
7.19319e-13
6.7659e-13
6.35412e-13
5.96095e-13
5.58923e-13
5.24153e-13
4.92018e-13
4.62722e-13
4.3644e-13
4.13321e-13
3.93485e-13
3.77024e-13
3.64003e-13
3.54461e-13
3.48409e-13
3.45833e-13
3.46695e-13
3.50927e-13
3.58442e-13
3.69124e-13
3.82833e-13
3.99405e-13
4.18654e-13
4.40367e-13
4.6431e-13
4.90225e-13
5.17836e-13
5.46842e-13
5.76929e-13
6.07765e-13
6.39003e-13
6.70289e-13
7.0126e-13
7.31551e-13
7.60798e-13
7.88642e-13
8.14737e-13
8.38751e-13
8.60371e-13
8.79311e-13
8.95315e-13
9.08158e-13
9.17656e-13
9.23664e-13
9.26079e-13
9.24845e-13
9.19952e-13
9.11436e-13
8.99375e-13
8.83896e-13
8.65163e-13
8.4338e-13
8.18784e-13
7.91641e-13
7.62243e-13
7.30899e-13
6.97933e-13
6.63675e-13
6.28458e-13
5.92611e-13
5.56455e-13
5.20296e-13
4.84423e-13
4.49105e-13
4.14585e-13
3.8108e-13
3.48779e-13
3.17842e-13
2.88397e-13
2.60548e-13
2.34365e-13
2.09896e-13
1.87161e-13
1.66158e-13
1.46865e-13
1.29241e-13
1.13231e-13
9.87654e-14
8.57667e-14
7.41482e-14
6.38186e-14
5.46833e-14
4.66465e-14
3.96129e-14
3.34891e-14
2.81849e-14
2.36141e-14
1.96955e-14
1.63531e-14
1.35166e-14
1.11215e-14
9.10935e-15
7.42742e-15
6.02853e-15
4.87086e-15
3.91759e-15
3.13652e-15
2.49972e-15
1.98311e-15
1.56608e-15
1.23109e-15
9.6333e-16
7.50352e-16
5.81782e-16
4.49013e-16
3.44953e-16
2.63793e-16
2.00801e-16
1.52149e-16
1.14755e-16
8.61539e-17
6.43836e-17
4.78931e-17
3.54625e-17
2.61374e-17
1.91758e-17
1.40036e-17
1.01795e-17
7.36565e-18
5.30509e-18
3.80342e-18
2.71427e-18
1.92811e-18
1.36334e-18
9.59524e-19
6.7209e-19
4.68297e-19
3.24135e-19
2.21964e-19
1.48739e-19
9.47286e-20
5.26215e-20
1.68789e-20
4.55214e-20
1.39546e-19
2.43126e-19
3.64448e-19
5.1392e-19
7.04601e-19
9.52751e-19
1.2787e-18
1.70812e-18
2.27369e-18
3.01724e-18
3.99236e-18
5.26765e-18
6.93074e-18
9.09325e-18
1.18969e-17
1.55212e-17
2.01925e-17
2.61953e-17
3.38865e-17
4.37116e-17
5.62253e-17
7.21157e-17
9.22334e-17
1.17627e-16
1.49583e-16
1.89676e-16
2.39826e-16
3.02366e-16
3.80119e-16
4.76489e-16
5.95571e-16
7.42265e-16
9.22416e-16
1.14297e-15
1.41216e-15
1.73968e-15
2.13694e-15
2.61727e-15
3.19622e-15
3.89184e-15
4.72501e-15
5.71976e-15
6.90365e-15
8.30812e-15
9.96895e-15
1.19266e-14
1.42266e-14
1.69201e-14
2.00641e-14
2.37219e-14
2.79635e-14
3.28657e-14
3.85126e-14
4.49954e-14
5.24128e-14
6.08708e-14
7.04824e-14
8.13675e-14
9.36521e-14
1.07468e-13
1.22951e-13
1.40241e-13
1.59481e-13
1.80812e-13
2.04376e-13
2.3031e-13
2.58748e-13
2.89813e-13
3.23619e-13
3.60265e-13
3.99835e-13
4.42391e-13
4.87975e-13
5.366e-13
5.88252e-13
6.42886e-13
7.00419e-13
7.60736e-13
8.2368e-13
8.89056e-13
9.56625e-13
1.02611e-12
1.09719e-12
1.16951e-12
1.24267e-12
1.31624e-12
1.38975e-12
1.46272e-12
1.53461e-12
1.6049e-12
1.67304e-12
1.73849e-12
1.80069e-12
1.8591e-12
1.9132e-12
1.96249e-12
2.00651e-12
2.04483e-12
2.07707e-12
2.1029e-12
2.12206e-12
2.13434e-12
2.1396e-12
2.13778e-12
2.12887e-12
2.11296e-12
2.0902e-12
2.06079e-12
2.02504e-12
1.98328e-12
1.93593e-12
1.88345e-12
1.82636e-12
1.76519e-12
1.70055e-12
1.63303e-12
1.56326e-12
1.49188e-12
1.41952e-12
1.34683e-12
1.27441e-12
1.20288e-12
1.13282e-12
1.06477e-12
9.99245e-13
9.36734e-13
8.77675e-13
8.22467e-13
7.71463e-13
7.24976e-13
6.83273e-13
6.46575e-13
6.1506e-13
5.88861e-13
5.68071e-13
5.52737e-13
5.42868e-13
5.3843e-13
5.39351e-13
5.4552e-13
5.56786e-13
5.72961e-13
5.93819e-13
6.19097e-13
6.48496e-13
6.8168e-13
7.18279e-13
7.5789e-13
8.00076e-13
8.44374e-13
8.90291e-13
9.37313e-13
9.84905e-13
1.03252e-12
1.0796e-12
1.12558e-12
1.1699e-12
1.21203e-12
1.25143e-12
1.28759e-12
1.32004e-12
1.34835e-12
1.37214e-12
1.39106e-12
1.40485e-12
1.41329e-12
1.41623e-12
1.4136e-12
1.40539e-12
1.39166e-12
1.37254e-12
1.34823e-12
1.319e-12
1.28515e-12
1.24706e-12
1.20513e-12
1.15982e-12
1.1116e-12
1.06097e-12
1.00843e-12
9.54484e-13
8.99637e-13
8.44375e-13
7.89163e-13
7.34438e-13
6.80605e-13
6.2803e-13
5.77041e-13
5.27918e-13
4.80901e-13
4.36182e-13
3.93912e-13
3.54196e-13
3.171e-13
2.82652e-13
2.50846e-13
2.21643e-13
1.94981e-13
1.70771e-13
1.48908e-13
1.29269e-13
1.11724e-13
9.61311e-14
8.23467e-14
7.02246e-14
5.96195e-14
5.03895e-14
4.23977e-14
3.55132e-14
2.96129e-14
2.45817e-14
2.03133e-14
1.67102e-14
1.36841e-14
1.11552e-14
9.05246e-15
7.31273e-15
5.8805e-15
4.70726e-15
3.75094e-15
2.97528e-15
2.34925e-15
1.84647e-15
1.44467e-15
1.12513e-15
8.72254e-16
6.73118e-16
5.17065e-16
3.9537e-16
3.0093e-16
2.27998e-16
1.71948e-16
1.29082e-16
9.64575e-17
7.17474e-17
5.31223e-17
3.91514e-17
2.87222e-17
2.09744e-17
1.52461e-17
1.10314e-17
7.94517e-18
5.69608e-18
4.06491e-18
2.88752e-18
2.04173e-18
1.43698e-18
1.00653e-18
7.01339e-19
4.8545e-19
3.32444e-19
2.22785e-19
1.41897e-19
7.88291e-20
2.52865e-20
7.46514e-20
2.28844e-19
3.98703e-19
5.97643e-19
8.42709e-19
1.15529e-18
1.56202e-18
2.09618e-18
2.7998e-18
3.72639e-18
4.94439e-18
6.54151e-18
8.62998e-18
1.13532e-17
1.48936e-17
1.94831e-17
2.54151e-17
3.30595e-17
4.28815e-17
5.54642e-17
7.15353e-17
9.2001e-17
1.17985e-16
1.50876e-16
1.92385e-16
2.44613e-16
3.10129e-16
3.92063e-16
4.9422e-16
6.21203e-16
7.78562e-16
9.72966e-16
1.2124e-15
1.50638e-15
1.86621e-15
2.3053e-15
2.83941e-15
3.48709e-15
4.27002e-15
5.21347e-15
6.34677e-15
7.70381e-15
9.32359e-15
1.12508e-14
1.35365e-14
1.62386e-14
1.94226e-14
2.31624e-14
2.75406e-14
3.26495e-14
3.85913e-14
4.5479e-14
5.34367e-14
6.25999e-14
7.31158e-14
8.51431e-14
9.88524e-14
1.14425e-13
1.32054e-13
1.51942e-13
1.74298e-13
1.99341e-13
2.27294e-13
2.58384e-13
2.92837e-13
3.30877e-13
3.72723e-13
4.18584e-13
4.68654e-13
5.23111e-13
5.8211e-13
6.45777e-13
7.14208e-13
7.8746e-13
8.65549e-13
9.48444e-13
1.03606e-12
1.12826e-12
1.22485e-12
1.32557e-12
1.43009e-12
1.53802e-12
1.64892e-12
1.76226e-12
1.87746e-12
1.99388e-12
2.11082e-12
2.22753e-12
2.34321e-12
2.45705e-12
2.56818e-12
2.67574e-12
2.77884e-12
2.87663e-12
2.96823e-12
3.05284e-12
3.12966e-12
3.19797e-12
3.2571e-12
3.30646e-12
3.34556e-12
3.37397e-12
3.39141e-12
3.39766e-12
3.39264e-12
3.37638e-12
3.34902e-12
3.31082e-12
3.26215e-12
3.20348e-12
3.13538e-12
3.05852e-12
2.97366e-12
2.88161e-12
2.78325e-12
2.67953e-12
2.57141e-12
2.45988e-12
2.34597e-12
2.23066e-12
2.11497e-12
1.99987e-12
1.88631e-12
1.77519e-12
1.66736e-12
1.56364e-12
1.46477e-12
1.37141e-12
1.28419e-12
1.20365e-12
1.13026e-12
1.06443e-12
1.00647e-12
9.56655e-13
9.15175e-13
8.82154e-13
8.57651e-13
8.41661e-13
8.34117e-13
8.34889e-13
8.43788e-13
8.60566e-13
8.84917e-13
9.16477e-13
9.54827e-13
9.99493e-13
1.04994e-12
1.1056e-12
1.16583e-12
1.22996e-12
1.29727e-12
1.36699e-12
1.43833e-12
1.51047e-12
1.58256e-12
1.65376e-12
1.72321e-12
1.79005e-12
1.85345e-12
1.91262e-12
1.96679e-12
2.01524e-12
2.05733e-12
2.09248e-12
2.12019e-12
2.14005e-12
2.15176e-12
2.15509e-12
2.14996e-12
2.13636e-12
2.1144e-12
2.08428e-12
2.04634e-12
2.00096e-12
1.94865e-12
1.88997e-12
1.82554e-12
1.75607e-12
1.68227e-12
1.60489e-12
1.52471e-12
1.44249e-12
1.35899e-12
1.27495e-12
1.19106e-12
1.10799e-12
1.02635e-12
9.46672e-13
8.69457e-13
7.95122e-13
7.24021e-13
6.56441e-13
5.926e-13
5.32653e-13
4.76693e-13
4.24755e-13
3.76826e-13
3.32844e-13
2.92706e-13
2.56278e-13
2.23396e-13
1.93873e-13
1.67508e-13
1.44087e-13
1.23391e-13
1.05197e-13
8.9286e-14
7.54432e-14
6.34614e-14
5.31433e-14
4.43031e-14
3.67674e-14
3.03761e-14
2.49827e-14
2.04541e-14
1.66707e-14
1.35257e-14
1.09242e-14
8.78304e-15
7.02949e-15
5.60045e-15
4.44162e-15
3.50653e-15
2.75568e-15
2.15572e-15
1.67869e-15
1.30124e-15
1.00405e-15
7.71191e-16
5.89624e-16
4.48741e-16
3.39955e-16
2.56361e-16
1.92437e-16
1.43789e-16
1.06947e-16
7.91798e-17
5.83529e-17
4.28068e-17
3.12584e-17
2.27207e-17
1.64392e-17
1.18398e-17
8.48806e-18
6.05728e-18
4.30279e-18
3.04244e-18
2.14129e-18
1.49988e-18
1.04512e-18
7.23426e-19
4.95434e-19
3.32032e-19
2.11495e-19
1.17502e-19
3.76939e-20
1.2183e-19
3.7347e-19
6.50672e-19
9.75306e-19
1.37516e-18
1.8851e-18
2.54851e-18
3.41965e-18
4.56699e-18
6.0777e-18
8.06327e-18
1.06665e-17
1.40702e-17
1.85076e-17
2.42761e-17
3.17527e-17
4.14148e-17
5.38644e-17
6.98581e-17
9.0344e-17
1.16505e-16
1.49815e-16
1.921e-16
2.45616e-16
3.13143e-16
3.98093e-16
5.04636e-16
6.37857e-16
8.03929e-16
1.01032e-15
1.26603e-15
1.58188e-15
1.97081e-15
2.44825e-15
3.03251e-15
3.7453e-15
4.61215e-15
5.66308e-15
6.93318e-15
8.4633e-15
1.03009e-14
1.25007e-14
1.51257e-14
1.82481e-14
2.19502e-14
2.63256e-14
3.14798e-14
3.75319e-14
4.4615e-14
5.28774e-14
6.24839e-14
7.3616e-14
8.6473e-14
1.01272e-13
1.1825e-13
1.37661e-13
1.59778e-13
1.84892e-13
2.1331e-13
2.45355e-13
2.81363e-13
3.21681e-13
3.66663e-13
4.1667e-13
4.7206e-13
5.33187e-13
6.00395e-13
6.74013e-13
7.54346e-13
8.41669e-13
9.3622e-13
1.03819e-12
1.14773e-12
1.26491e-12
1.38975e-12
1.52218e-12
1.66206e-12
1.80916e-12
1.96313e-12
2.12357e-12
2.28993e-12
2.46158e-12
2.63779e-12
2.81771e-12
3.00041e-12
3.18484e-12
3.3699e-12
3.55437e-12
3.737e-12
3.91646e-12
4.0914e-12
4.26043e-12
4.42216e-12
4.57522e-12
4.71827e-12
4.85e-12
4.96919e-12
5.07471e-12
5.16553e-12
5.24072e-12
5.29954e-12
5.34135e-12
5.36571e-12
5.37233e-12
5.36111e-12
5.33212e-12
5.28563e-12
5.22207e-12
5.14206e-12
5.04637e-12
4.93595e-12
4.81188e-12
4.67535e-12
4.52768e-12
4.37029e-12
4.20467e-12
4.03235e-12
3.85491e-12
3.67393e-12
3.49102e-12
3.30773e-12
3.12559e-12
2.94608e-12
2.77061e-12
2.60051e-12
2.43702e-12
2.28129e-12
2.13436e-12
1.99715e-12
1.87051e-12
1.75513e-12
1.65163e-12
1.56048e-12
1.48207e-12
1.41668e-12
1.36446e-12
1.32549e-12
1.29973e-12
1.28705e-12
1.28722e-12
1.29993e-12
1.32478e-12
1.36127e-12
1.40881e-12
1.46674e-12
1.53432e-12
1.61072e-12
1.69502e-12
1.78624e-12
1.88334e-12
1.9852e-12
2.09065e-12
2.19847e-12
2.30739e-12
2.41613e-12
2.52339e-12
2.62787e-12
2.72827e-12
2.82334e-12
2.91186e-12
2.99268e-12
3.06474e-12
3.12706e-12
3.17878e-12
3.21916e-12
3.24761e-12
3.26366e-12
3.26702e-12
3.25756e-12
3.2353e-12
3.20042e-12
3.15326e-12
3.09431e-12
3.02421e-12
2.94371e-12
2.85369e-12
2.75511e-12
2.64901e-12
2.5365e-12
2.41872e-12
2.29684e-12
2.17201e-12
2.04538e-12
1.91806e-12
1.79109e-12
1.66547e-12
1.5421e-12
1.4218e-12
1.30531e-12
1.19324e-12
1.08612e-12
9.84361e-13
8.88296e-13
7.98142e-13
7.14032e-13
6.36011e-13
5.64049e-13
4.98045e-13
4.37841e-13
3.83226e-13
3.3395e-13
2.89728e-13
2.50252e-13
2.15198e-13
1.84235e-13
1.57026e-13
1.3324e-13
1.12553e-13
9.46531e-14
7.9244e-14
6.60461e-14
5.47993e-14
4.52634e-14
3.72185e-14
3.04656e-14
2.48254e-14
2.01379e-14
1.62616e-14
1.3072e-14
1.04603e-14
8.33245e-15
6.60728e-15
5.21546e-15
4.09808e-15
3.20543e-15
2.49578e-15
1.93438e-15
1.49241e-15
1.14617e-15
8.76227e-16
6.66799e-16
5.05105e-16
3.8087e-16
2.85877e-16
2.13593e-16
1.58855e-16
1.17604e-16
8.66656e-17
6.35737e-17
4.64209e-17
3.37407e-17
2.44118e-17
1.75814e-17
1.2604e-17
8.99443e-18
6.38914e-18
4.51766e-18
3.17958e-18
2.22718e-18
1.55193e-18
1.07426e-18
7.35735e-19
4.93106e-19
3.14119e-19
1.74531e-19
5.59911e-20
1.97895e-19
6.06645e-19
1.0569e-18
1.58417e-18
2.23352e-18
3.06151e-18
4.13854e-18
5.5526e-18
7.41473e-18
9.86626e-18
1.30879e-17
1.73113e-17
2.28324e-17
3.00296e-17
3.93841e-17
5.15071e-17
6.71716e-17
8.73523e-17
1.13274e-16
1.46472e-16
1.88861e-16
2.42823e-16
3.11314e-16
3.97984e-16
5.07326e-16
6.44856e-16
8.17317e-16
1.03292e-15
1.30164e-15
1.63554e-15
2.04916e-15
2.55995e-15
3.18879e-15
3.96059e-15
4.90488e-15
6.05664e-15
7.45704e-15
9.15444e-15
1.12053e-14
1.36755e-14
1.66414e-14
2.01909e-14
2.44255e-14
2.94611e-14
3.54301e-14
4.24825e-14
5.0788e-14
6.05374e-14
7.19441e-14
8.52461e-14
1.00707e-13
1.18617e-13
1.39296e-13
1.6309e-13
1.90377e-13
2.21563e-13
2.57084e-13
2.97401e-13
3.43005e-13
3.94409e-13
4.52146e-13
5.16765e-13
5.88829e-13
6.68905e-13
7.5756e-13
8.5535e-13
9.62816e-13
1.08047e-12
1.20879e-12
1.3482e-12
1.49906e-12
1.66168e-12
1.83625e-12
2.02289e-12
2.2216e-12
2.43226e-12
2.65462e-12
2.88828e-12
3.1327e-12
3.38717e-12
3.65083e-12
3.92266e-12
4.20146e-12
4.48587e-12
4.77439e-12
5.06537e-12
5.357e-12
5.64738e-12
5.9345e-12
6.21626e-12
6.4905e-12
6.75505e-12
7.00772e-12
7.24633e-12
7.46879e-12
7.67306e-12
7.85723e-12
8.01954e-12
8.1584e-12
8.2724e-12
8.36039e-12
8.42143e-12
8.45484e-12
8.46025e-12
8.43753e-12
8.38685e-12
8.30869e-12
8.20377e-12
8.07311e-12
7.91799e-12
7.73992e-12
7.54064e-12
7.32208e-12
7.08634e-12
6.83566e-12
6.5724e-12
6.29898e-12
6.0179e-12
5.73165e-12
5.44272e-12
5.15355e-12
4.86654e-12
4.58397e-12
4.30803e-12
4.04078e-12
3.78413e-12
3.53983e-12
3.30948e-12
3.0945e-12
2.89614e-12
2.71547e-12
2.55339e-12
2.41061e-12
2.28768e-12
2.18499e-12
2.10276e-12
2.04104e-12
1.99975e-12
1.97864e-12
1.97734e-12
1.99532e-12
2.03192e-12
2.08634e-12
2.15767e-12
2.24485e-12
2.34671e-12