/*--------------------------------*- C++ -*----------------------------------*\
| =========                 |                                                 |
| \\      /  F ield         | OpenFOAM: The Open Source CFD Toolbox           |
|  \\    /   O peration     | Version:  v2012                                 |
|   \\  /    A nd           | Website:  www.openfoam.com                      |
|    \\/     M anipulation  |                                                 |
\*---------------------------------------------------------------------------*/
FoamFile
{
    version     2.0;
    format      ascii;
    class       surfaceScalarField;
    location    "0.5";
    object      phi;
}
// * * * * * * * * * * * * * * * * * * * * * * * * * * * * * * * * * * * * * //

dimensions      [0 3 -1 0 0 0 0];
oriented        oriented;


internalField   nonuniform List<scalar> 
130560
(
3.34092e-06
-3.34092e-06
6.68162e-06
-3.34069e-06
1.00219e-05
-3.34024e-06
1.33614e-05
-3.33957e-06
1.67001e-05
-3.33866e-06
2.00376e-05
-3.33753e-06
2.33738e-05
-3.33617e-06
2.67084e-05
-3.33457e-06
3.00411e-05
-3.33274e-06
3.33718e-05
-3.33067e-06
3.67001e-05
-3.32835e-06
4.00259e-05
-3.32579e-06
4.33489e-05
-3.32297e-06
4.66688e-05
-3.3199e-06
4.99853e-05
-3.31657e-06
5.32983e-05
-3.31297e-06
5.66074e-05
-3.30911e-06
5.99124e-05
-3.30496e-06
6.32129e-05
-3.30053e-06
6.65087e-05
-3.2958e-06
6.97995e-05
-3.29078e-06
7.30849e-05
-3.28545e-06
7.63648e-05
-3.27981e-06
7.96386e-05
-3.27385e-06
8.29062e-05
-3.26756e-06
8.61671e-05
-3.26093e-06
8.94211e-05
-3.25396e-06
9.26677e-05
-3.24663e-06
9.59066e-05
-3.23894e-06
9.91375e-05
-3.23088e-06
0.00010236
-3.22243e-06
0.000105574
-3.2136e-06
0.000108778
-3.20436e-06
0.000111973
-3.19471e-06
0.000115157
-3.18465e-06
0.000118331
-3.17415e-06
0.000121495
-3.16322e-06
0.000124646
-3.15184e-06
0.000127786
-3.14e-06
0.000130914
-3.12769e-06
0.000134029
-3.1149e-06
0.000137131
-3.10163e-06
0.000140219
-3.08786e-06
0.000143292
-3.07358e-06
0.000146351
-3.05879e-06
0.000149394
-3.04348e-06
0.000152422
-3.02763e-06
0.000155433
-3.01124e-06
0.000158428
-2.9943e-06
0.000161404
-2.97681e-06
0.000164363
-2.95875e-06
0.000167303
-2.94012e-06
0.000170224
-2.9209e-06
0.000173125
-2.9011e-06
0.000176006
-2.88071e-06
0.000178866
-2.85972e-06
0.000181704
-2.83812e-06
0.00018452
-2.81592e-06
0.000187313
-2.7931e-06
0.000190082
-2.76966e-06
0.000192828
-2.7456e-06
0.000195549
-2.72092e-06
0.000198245
-2.6956e-06
0.000200914
-2.66966e-06
0.000203557
-2.64309e-06
0.000206173
-2.61588e-06
0.000208761
-2.58804e-06
0.000211321
-2.55957e-06
0.000213851
-2.53046e-06
0.000216352
-2.50073e-06
0.000218822
-2.47036e-06
0.000221262
-2.43937e-06
0.00022367
-2.40776e-06
0.000226045
-2.37553e-06
0.000228388
-2.34268e-06
0.000230697
-2.30922e-06
0.000232972
-2.27516e-06
0.000235213
-2.24049e-06
0.000237418
-2.20524e-06
0.000239587
-2.1694e-06
0.00024172
-2.13298e-06
0.000243816
-2.09599e-06
0.000245875
-2.05845e-06
0.000247895
-2.02035e-06
0.000249877
-1.98171e-06
0.000251819
-1.94254e-06
0.000253722
-1.90285e-06
0.000255585
-1.86264e-06
0.000257407
-1.82194e-06
0.000259187
-1.78076e-06
0.000260927
-1.73909e-06
0.000262624
-1.69697e-06
0.000264278
-1.6544e-06
0.000265889
-1.61139e-06
0.000267457
-1.56795e-06
0.000268981
-1.52411e-06
0.000270461
-1.47987e-06
0.000271896
-1.43525e-06
0.000273287
-1.39026e-06
0.000274632
-1.34491e-06
0.000275931
-1.29923e-06
0.000277184
-1.25322e-06
0.000278391
-1.2069e-06
0.000279551
-1.16028e-06
0.000280665
-1.11338e-06
0.000281731
-1.06621e-06
0.00028275
-1.01879e-06
0.000283721
-9.71122e-07
0.000284644
-9.23233e-07
0.000285519
-8.75132e-07
0.000286346
-8.26833e-07
0.000287124
-7.78352e-07
0.000287854
-7.297e-07
0.000288535
-6.80892e-07
0.000289167
-6.31942e-07
0.00028975
-5.82863e-07
0.000290283
-5.33668e-07
0.000290768
-4.8437e-07
0.000291203
-4.34983e-07
0.000291588
-3.85519e-07
0.000291924
-3.35991e-07
0.000292211
-2.86412e-07
0.000292447
-2.36793e-07
0.000292635
-1.87148e-07
0.000292772
-1.37489e-07
0.00029286
-8.78272e-08
0.000292898
-3.81751e-08
0.000292887
1.14554e-08
0.000292826
6.10526e-08
0.000292715
1.10605e-07
0.000292555
1.601e-07
0.000292345
2.09528e-07
0.000292086
2.58875e-07
0.000291778
3.08131e-07
0.000291421
3.57285e-07
0.000291015
4.06324e-07
0.000290559
4.55238e-07
0.000290055
5.04015e-07
0.000289503
5.52644e-07
0.000288902
6.01113e-07
0.000288252
6.49411e-07
0.000287555
6.97527e-07
0.000286809
7.45448e-07
0.000286016
7.93164e-07
0.000285175
8.40663e-07
0.000284288
8.87933e-07
0.000283353
9.34964e-07
0.000282371
9.81742e-07
0.000281343
1.02826e-06
0.000280268
1.0745e-06
0.000279148
1.12045e-06
0.000277982
1.16611e-06
0.00027677
1.21145e-06
0.000275514
1.25648e-06
0.000274212
1.30117e-06
0.000272867
1.34551e-06
0.000271477
1.3895e-06
0.000270044
1.43313e-06
0.000268568
1.47637e-06
0.000267049
1.51922e-06
0.000265487
1.56167e-06
0.000263883
1.60371e-06
0.000262238
1.64533e-06
0.000260551
1.68651e-06
0.000258824
1.72725e-06
0.000257057
1.76753e-06
0.000255249
1.80734e-06
0.000253403
1.84668e-06
0.000251517
1.88554e-06
0.000249593
1.9239e-06
0.000247631
1.96176e-06
0.000245632
1.9991e-06
0.000243596
2.03593e-06
0.000241524
2.07223e-06
0.000239416
2.10799e-06
0.000237273
2.14321e-06
0.000235095
2.17787e-06
0.000232883
2.21199e-06
0.000230638
2.24553e-06
0.000228359
2.27851e-06
0.000226048
2.31092e-06
0.000223705
2.34275e-06
0.000221331
2.374e-06
0.000218927
2.40466e-06
0.000216492
2.43473e-06
0.000214028
2.46421e-06
0.000211535
2.4931e-06
0.000209013
2.52139e-06
0.000206464
2.54909e-06
0.000203888
2.57618e-06
0.000201285
2.60268e-06
0.000198657
2.62858e-06
0.000196003
2.65389e-06
0.000193324
2.6786e-06
0.000190622
2.70271e-06
0.000187895
2.72624e-06
0.000185146
2.74918e-06
0.000182375
2.77153e-06
0.000179581
2.7933e-06
0.000176767
2.81449e-06
0.000173932
2.8351e-06
0.000171077
2.85515e-06
0.000168202
2.87464e-06
0.000165308
2.89356e-06
0.000162397
2.91194e-06
0.000159467
2.92977e-06
0.00015652
2.94705e-06
0.000153556
2.96381e-06
0.000150576
2.98004e-06
0.00014758
2.99576e-06
0.000144569
3.01096e-06
0.000141543
3.02566e-06
0.000138504
3.03987e-06
0.00013545
3.05359e-06
0.000132383
3.06683e-06
0.000129304
3.0796e-06
0.000126212
3.09191e-06
0.000123108
3.10377e-06
0.000119993
3.11519e-06
0.000116867
3.12617e-06
0.00011373
3.13672e-06
0.000110583
3.14686e-06
0.000107426
3.15659e-06
0.00010426
3.16592e-06
0.000101086
3.17487e-06
9.79022e-05
3.18342e-06
9.47105e-05
3.19161e-06
9.15111e-05
3.19943e-06
8.83042e-05
3.2069e-06
8.50902e-05
3.21402e-06
8.18694e-05
3.22079e-06
7.86422e-05
3.22724e-06
7.54088e-05
3.23336e-06
7.21696e-05
3.23917e-06
6.8925e-05
3.24467e-06
6.56751e-05
3.24986e-06
6.24203e-05
3.25476e-06
5.9161e-05
3.25937e-06
5.58973e-05
3.2637e-06
5.26295e-05
3.26776e-06
4.9358e-05
3.27154e-06
4.60829e-05
3.27506e-06
4.28046e-05
3.27832e-06
3.95233e-05
3.28133e-06
3.62392e-05
3.28409e-06
3.29526e-05
3.2866e-06
2.96637e-05
3.28887e-06
2.63728e-05
3.2909e-06
2.30801e-05
3.2927e-06
1.97858e-05
3.29427e-06
1.64902e-05
3.29561e-06
1.31935e-05
3.29672e-06
9.89591e-06
3.29761e-06
6.59764e-06
3.29827e-06
3.29893e-06
3.29871e-06
3.29893e-06
3.34114e-06
-6.68206e-06
6.68205e-06
-6.68161e-06
1.00225e-05
-6.68071e-06
1.33623e-05
-6.67936e-06
1.67012e-05
-6.67755e-06
2.0039e-05
-6.67529e-06
2.33753e-05
-6.67256e-06
2.67102e-05
-6.66937e-06
3.00431e-05
-6.66571e-06
3.3374e-05
-6.66157e-06
3.67026e-05
-6.65694e-06
4.00287e-05
-6.65182e-06
4.33519e-05
-6.6462e-06
4.6672e-05
-6.64006e-06
4.99889e-05
-6.63341e-06
5.33021e-05
-6.62622e-06
5.66115e-05
-6.61848e-06
5.99167e-05
-6.6102e-06
6.32175e-05
-6.60134e-06
6.65136e-05
-6.5919e-06
6.98047e-05
-6.58186e-06
7.30905e-05
-6.57121e-06
7.63706e-05
-6.55994e-06
7.96448e-05
-6.54803e-06
8.29127e-05
-6.53545e-06
8.6174e-05
-6.52221e-06
8.94283e-05
-6.50827e-06
9.26753e-05
-6.49362e-06
9.59146e-05
-6.47825e-06
9.91458e-05
-6.46213e-06
0.000102369
-6.44525e-06
0.000105583
-6.42759e-06
0.000108787
-6.40913e-06
0.000111983
-6.38984e-06
0.000115168
-6.36972e-06
0.000118342
-6.34874e-06
0.000121506
-6.32688e-06
0.000124658
-6.30413e-06
0.000127799
-6.28046e-06
0.000130927
-6.25585e-06
0.000134042
-6.23029e-06
0.000137144
-6.20375e-06
0.000140233
-6.17622e-06
0.000143307
-6.14768e-06
0.000146366
-6.11811e-06
0.00014941
-6.08749e-06
0.000152438
-6.0558e-06
0.00015545
-6.02303e-06
0.000158445
-5.98917e-06
0.000161422
-5.95418e-06
0.000164382
-5.91807e-06
0.000167322
-5.88081e-06
0.000170244
-5.84239e-06
0.000173145
-5.8028e-06
0.000176027
-5.76202e-06
0.000178887
-5.72004e-06
0.000181726
-5.67686e-06
0.000184542
-5.63245e-06
0.000187336
-5.58682e-06
0.000190106
-5.53995e-06
0.000192853
-5.49183e-06
0.000195574
-5.44246e-06
0.00019827
-5.39184e-06
0.000200941
-5.33995e-06
0.000203584
-5.28681e-06
0.000206201
-5.23239e-06
0.00020879
-5.17671e-06
0.00021135
-5.11977e-06
0.000213881
-5.06156e-06
0.000216382
-5.00209e-06
0.000218853
-4.94136e-06
0.000221293
-4.87937e-06
0.000223702
-4.81614e-06
0.000226078
-4.75167e-06
0.000228421
-4.68597e-06
0.000230731
-4.61905e-06
0.000233007
-4.55091e-06
0.000235248
-4.48158e-06
0.000237454
-4.41106e-06
0.000239623
-4.33938e-06
0.000241757
-4.26653e-06
0.000243854
-4.19255e-06
0.000245913
-4.11745e-06
0.000247933
-4.04124e-06
0.000249916
-3.96395e-06
0.000251859
-3.8856e-06
0.000253762
-3.8062e-06
0.000255625
-3.72579e-06
0.000257448
-3.64437e-06
0.000259229
-3.56199e-06
0.000260969
-3.47865e-06
0.000262666
-3.39439e-06
0.000264321
-3.30923e-06
0.000265933
-3.2232e-06
0.000267501
-3.13632e-06
0.000269025
-3.04862e-06
0.000270506
-2.96012e-06
0.000271941
-2.87087e-06
0.000273332
-2.78087e-06
0.000274677
-2.69017e-06
0.000275977
-2.59879e-06
0.00027723
-2.50675e-06
0.000278438
-2.4141e-06
0.000279598
-2.32085e-06
0.000280712
-2.22703e-06
0.000281778
-2.13268e-06
0.000282797
-2.03781e-06
0.000283769
-1.94247e-06
0.000284692
-1.84668e-06
0.000285567
-1.75047e-06
0.000286394
-1.65385e-06
0.000287173
-1.55688e-06
0.000287903
-1.45956e-06
0.000288584
-1.36193e-06
0.000289216
-1.26402e-06
0.000289799
-1.16585e-06
0.000290333
-1.06744e-06
0.000290817
-9.68835e-07
0.000291252
-8.70047e-07
0.000291638
-7.71107e-07
0.000291974
-6.72038e-07
0.00029226
-5.72867e-07
0.000292497
-4.73618e-07
0.000292684
-3.74316e-07
0.000292822
-2.74985e-07
0.00029291
-1.75649e-07
0.000292948
-7.63333e-08
0.000292936
2.29396e-08
0.000292875
1.22146e-07
0.000292764
2.21262e-07
0.000292604
3.20264e-07
0.000292395
4.1913e-07
0.000292136
5.17837e-07
0.000291828
6.16361e-07
0.00029147
7.14679e-07
0.000291064
8.1277e-07
0.000290608
9.10609e-07
0.000290104
1.00817e-06
0.000289551
1.10544e-06
0.00028895
1.20239e-06
0.0002883
1.299e-06
0.000287603
1.39524e-06
0.000286857
1.4911e-06
0.000286064
1.58654e-06
0.000285223
1.68155e-06
0.000284335
1.7761e-06
0.000283399
1.87018e-06
0.000282417
1.96374e-06
0.000281389
2.05679e-06
0.000280314
2.14928e-06
0.000279193
2.2412e-06
0.000278027
2.33252e-06
0.000276815
2.42322e-06
0.000275558
2.51328e-06
0.000274257
2.60268e-06
0.000272911
2.69138e-06
0.000271521
2.77937e-06
0.000270088
2.86663e-06
0.000268611
2.95313e-06
0.000267091
3.03884e-06
0.000265529
3.12376e-06
0.000263925
3.20785e-06
0.000262279
3.29109e-06
0.000260592
3.37346e-06
0.000258865
3.45494e-06
0.000257097
3.53552e-06
0.000255289
3.61516e-06
0.000253442
3.69385e-06
0.000251556
3.77157e-06
0.000249631
3.8483e-06
0.000247669
3.92402e-06
0.000245669
3.99873e-06
0.000243633
4.07239e-06
0.00024156
4.14499e-06
0.000239452
4.21652e-06
0.000237308
4.28696e-06
0.000235129
4.3563e-06
0.000232917
4.42453e-06
0.000230671
4.49164e-06
0.000228392
4.5576e-06
0.00022608
4.62242e-06
0.000223737
4.68608e-06
0.000221362
4.74858e-06
0.000218957
4.80991e-06
0.000216522
4.87006e-06
0.000214057
4.92902e-06
0.000211563
4.9868e-06
0.000209041
5.04338e-06
0.000206492
5.09877e-06
0.000203915
5.15296e-06
0.000201311
5.20596e-06
0.000198682
5.25776e-06
0.000196028
5.30837e-06
0.000193349
5.35779e-06
0.000190645
5.40602e-06
0.000187918
5.45307e-06
0.000185169
5.49894e-06
0.000182397
5.54364e-06
0.000179603
5.58717e-06
0.000176788
5.62955e-06
0.000173952
5.67078e-06
0.000171096
5.71087e-06
0.000168221
5.74983e-06
0.000165327
5.78768e-06
0.000162415
5.82442e-06
0.000159484
5.86007e-06
0.000156537
5.89464e-06
0.000153572
5.92815e-06
0.000150592
5.96061e-06
0.000147595
5.99203e-06
0.000144584
6.02242e-06
0.000141558
6.05182e-06
0.000138517
6.08022e-06
0.000135463
6.10765e-06
0.000132396
6.13413e-06
0.000129316
6.15966e-06
0.000126224
6.18428e-06
0.000123119
6.20799e-06
0.000120004
6.23081e-06
0.000116877
6.25276e-06
0.00011374
6.27387e-06
0.000110593
6.29414e-06
0.000107436
6.31359e-06
0.00010427
6.33224e-06
0.000101094
6.35012e-06
9.79105e-05
6.36723e-06
9.47185e-05
6.38359e-06
9.15187e-05
6.39922e-06
8.83114e-05
6.41415e-06
8.50971e-05
6.42837e-06
8.18759e-05
6.44192e-06
7.86484e-05
6.45481e-06
7.54147e-05
6.46704e-06
7.21752e-05
6.47865e-06
6.89302e-05
6.48964e-06
6.56801e-05
6.50002e-06
6.2425e-05
6.50981e-06
5.91654e-05
6.51903e-06
5.59014e-05
6.52768e-06
5.26334e-05
6.53579e-06
4.93615e-05
6.54335e-06
4.60862e-05
6.55038e-06
4.28076e-05
6.5569e-06
3.95261e-05
6.56291e-06
3.62417e-05
6.56842e-06
3.29549e-05
6.57344e-06
2.96658e-05
6.57798e-06
2.63746e-05
6.58204e-06
2.30817e-05
6.58564e-06
1.97872e-05
6.58877e-06
1.64914e-05
6.59144e-06
1.31944e-05
6.59367e-06
9.89658e-06
6.59544e-06
6.59808e-06
6.59676e-06
3.29915e-06
6.59764e-06
6.59808e-06
3.34159e-06
-1.00237e-05
6.68296e-06
-1.0023e-05
1.00239e-05
-1.00216e-05
1.33641e-05
-1.00196e-05
1.67035e-05
-1.00169e-05
2.00417e-05
-1.00135e-05
2.33786e-05
-1.00094e-05
2.67138e-05
-1.00047e-05
3.00473e-05
-9.99916e-06
3.33787e-05
-9.99296e-06
3.67078e-05
-9.98603e-06
4.00343e-05
-9.97836e-06
4.3358e-05
-9.96994e-06
4.66787e-05
-9.96075e-06
4.99961e-05
-9.95078e-06
5.33099e-05
-9.94001e-06
5.66198e-05
-9.92842e-06
5.99256e-05
-9.916e-06
6.3227e-05
-9.90273e-06
6.65237e-05
-9.88859e-06
6.98154e-05
-9.87356e-06
7.31018e-05
-9.8576e-06
7.63826e-05
-9.84071e-06
7.96574e-05
-9.82286e-06
8.2926e-05
-9.80402e-06
8.61879e-05
-9.78418e-06
8.9443e-05
-9.76329e-06
9.26907e-05
-9.74134e-06
9.59307e-05
-9.71831e-06
9.91628e-05
-9.69415e-06
0.000102386
-9.66885e-06
0.000105601
-9.64238e-06
0.000108807
-9.61471e-06
0.000112003
-9.58581e-06
0.000115189
-9.55565e-06
0.000118364
-9.52421e-06
0.000121529
-9.49145e-06
0.000124682
-9.45734e-06
0.000127823
-9.42185e-06
0.000130952
-9.38497e-06
0.000134069
-9.34665e-06
0.000137172
-9.30686e-06
0.000140261
-9.26559e-06
0.000143336
-9.2228e-06
0.000146397
-9.17847e-06
0.000149442
-9.13256e-06
0.000152471
-9.08505e-06
0.000155484
-9.03592e-06
0.00015848
-8.98514e-06
0.000161458
-8.93269e-06
0.000164419
-8.87854e-06
0.000167361
-8.82267e-06
0.000170283
-8.76505e-06
0.000173186
-8.70568e-06
0.000176069
-8.64453e-06
0.00017893
-8.58158e-06
0.00018177
-8.51681e-06
0.000184588
-8.45021e-06
0.000187383
-8.38177e-06
0.000190155
-8.31147e-06
0.000192902
-8.23931e-06
0.000195625
-8.16526e-06
0.000198322
-8.08933e-06
0.000200994
-8.01151e-06
0.000203639
-7.93179e-06
0.000206257
-7.85017e-06
0.000208847
-7.76665e-06
0.000211408
-7.68123e-06
0.00021394
-7.59392e-06
0.000216443
-7.5047e-06
0.000218915
-7.4136e-06
0.000221357
-7.32062e-06
0.000223766
-7.22576e-06
0.000226144
-7.12904e-06
0.000228488
-7.03048e-06
0.000230799
-6.93008e-06
0.000233076
-6.82787e-06
0.000235318
-6.72385e-06
0.000237525
-6.61806e-06
0.000239696
-6.51051e-06
0.000241831
-6.40122e-06
0.000243929
-6.29023e-06
0.000245989
-6.17755e-06
0.000248011
-6.06322e-06
0.000249994
-5.94726e-06
0.000251938
-5.8297e-06
0.000253843
-5.71058e-06
0.000255707
-5.58993e-06
0.00025753
-5.46778e-06
0.000259312
-5.34417e-06
0.000261053
-5.21913e-06
0.000262751
-5.09271e-06
0.000264407
-4.96494e-06
0.00026602
-4.83585e-06
0.000267589
-4.7055e-06
0.000269114
-4.57392e-06
0.000270595
-4.44114e-06
0.000272031
-4.30722e-06
0.000273423
-4.1722e-06
0.000274769
-4.03611e-06
0.000276069
-3.899e-06
0.000277323
-3.76091e-06
0.000278531
-3.62189e-06
0.000279692
-3.48198e-06
0.000280806
-3.34122e-06
0.000281873
-3.19965e-06
0.000282893
-3.05732e-06
0.000283864
-2.91427e-06
0.000284788
-2.77055e-06
0.000285664
-2.62619e-06
0.000286491
-2.48124e-06
0.00028727
-2.33574e-06
0.000288
-2.18973e-06
0.000288682
-2.04325e-06
0.000289314
-1.89635e-06
0.000289897
-1.74906e-06
0.000290431
-1.60142e-06
0.000290916
-1.45348e-06
0.000291351
-1.30526e-06
0.000291737
-1.15682e-06
0.000292073
-1.00819e-06
0.00029236
-8.59398e-07
0.000292596
-7.10493e-07
0.000292784
-5.6151e-07
0.000292921
-4.12483e-07
0.000293009
-2.6345e-07
0.000293047
-1.14446e-07
0.000293035
3.44925e-08
0.000292974
1.83331e-07
0.000292863
3.32034e-07
0.000292703
4.80567e-07
0.000292493
6.28895e-07
0.000292234
7.76983e-07
0.000291926
9.24798e-07
0.000291568
1.0723e-06
0.000291162
1.21947e-06
0.000290706
1.36626e-06
0.000290201
1.51263e-06
0.000289648
1.65856e-06
0.000289047
1.80402e-06
0.000288397
1.94896e-06
0.000287699
2.09335e-06
0.000286953
2.23716e-06
0.000286159
2.38035e-06
0.000285317
2.5229e-06
0.000284429
2.66475e-06
0.000283493
2.80589e-06
0.00028251
2.94627e-06
0.000281481
3.08587e-06
0.000280406
3.22463e-06
0.000279285
3.36254e-06
0.000278118
3.49956e-06
0.000276905
3.63564e-06
0.000275648
3.77076e-06
0.000274346
3.90488e-06
0.000272999
4.03796e-06
0.000271608
4.16998e-06
0.000270174
4.30089e-06
0.000268697
4.43067e-06
0.000267176
4.55927e-06
0.000265613
4.68667e-06
0.000264008
4.81283e-06
0.000262362
4.93772e-06
0.000260674
5.0613e-06
0.000258945
5.18355e-06
0.000257176
5.30444e-06
0.000255367
5.42392e-06
0.000253519
5.54198e-06
0.000251632
5.65859e-06
0.000249707
5.77371e-06
0.000247744
5.88732e-06
0.000245743
5.99939e-06
0.000243705
6.1099e-06
0.000241632
6.21882e-06
0.000239522
6.32614e-06
0.000237377
6.43182e-06
0.000235198
6.53585e-06
0.000232984
6.63821e-06
0.000230737
6.73887e-06
0.000228456
6.83784e-06
0.000226144
6.93508e-06
0.000223799
7.03058e-06
0.000221424
7.12434e-06
0.000219017
7.21634e-06
0.000216581
7.30656e-06
0.000214115
7.39502e-06
0.00021162
7.48168e-06
0.000209097
7.56656e-06
0.000206546
7.64965e-06
0.000203968
7.73094e-06
0.000201363
7.81044e-06
0.000198733
7.88814e-06
0.000196077
7.96405e-06
0.000193397
8.03817e-06
0.000190692
8.11051e-06
0.000187964
8.18108e-06
0.000185213
8.24987e-06
0.00018244
8.31691e-06
0.000179645
8.3822e-06
0.000176829
8.44575e-06
0.000173992
8.50759e-06
0.000171135
8.56771e-06
0.000168259
8.62614e-06
0.000165364
8.6829e-06
0.00016245
8.738e-06
0.000159519
8.79146e-06
0.00015657
8.8433e-06
0.000153605
8.89354e-06
0.000150623
8.9422e-06
0.000147626
8.98931e-06
0.000144613
9.03489e-06
0.000141586
9.07896e-06
0.000138545
9.12155e-06
0.00013549
9.16267e-06
0.000132422
9.20236e-06
0.000129341
9.24065e-06
0.000126247
9.27755e-06
0.000123142
9.31309e-06
0.000120026
9.3473e-06
0.000116898
9.38021e-06
0.00011376
9.41184e-06
0.000110612
9.44222e-06
0.000107454
9.47138e-06
0.000104287
9.49934e-06
0.000101111
9.52613e-06
9.79268e-05
9.55177e-06
9.47341e-05
9.5763e-06
9.15336e-05
9.59973e-06
8.83256e-05
9.62209e-06
8.51106e-05
9.64341e-06
8.18888e-05
9.66371e-06
7.86606e-05
9.68302e-06
7.54263e-05
9.70136e-06
7.21862e-05
9.71875e-06
6.89406e-05
9.73521e-06
6.56898e-05
9.75077e-06
6.24342e-05
9.76544e-06
5.9174e-05
9.77925e-06
5.59095e-05
9.79222e-06
5.26409e-05
9.80435e-06
4.93686e-05
9.81569e-06
4.60927e-05
9.82622e-06
4.28136e-05
9.83599e-06
3.95316e-05
9.84499e-06
3.62467e-05
9.85324e-06
3.29594e-05
9.86076e-06
2.96698e-05
9.86756e-06
2.63782e-05
9.87365e-06
2.30848e-05
9.87903e-06
1.97899e-05
9.88372e-06
1.64936e-05
9.88773e-06
1.31962e-05
9.89106e-06
9.8979e-06
9.89372e-06
6.59897e-06
9.8957e-06
3.29959e-06
9.89702e-06
9.89767e-06
3.34227e-06
-1.33659e-05
6.68431e-06
-1.3365e-05
1.00259e-05
-1.33632e-05
1.33668e-05
-1.33605e-05
1.67069e-05
-1.33569e-05
2.00458e-05
-1.33524e-05
2.33834e-05
-1.3347e-05
2.67194e-05
-1.33406e-05
3.00535e-05
-1.33333e-05
3.33856e-05
-1.33251e-05
3.67155e-05
-1.33159e-05
4.00428e-05
-1.33057e-05
4.33673e-05
-1.32944e-05
4.66887e-05
-1.32822e-05
5.00069e-05
-1.32689e-05
5.33215e-05
-1.32546e-05
5.66323e-05
-1.32392e-05
5.9939e-05
-1.32227e-05
6.32412e-05
-1.3205e-05
6.65388e-05
-1.31862e-05
6.98314e-05
-1.31662e-05
7.31188e-05
-1.31449e-05
7.64005e-05
-1.31225e-05
7.96763e-05
-1.30987e-05
8.29459e-05
-1.30736e-05
8.62089e-05
-1.30472e-05
8.9465e-05
-1.30194e-05
9.27138e-05
-1.29902e-05
9.5955e-05
-1.29595e-05
9.91882e-05
-1.29273e-05
0.000102413
-1.28936e-05
0.000105629
-1.28584e-05
0.000108836
-1.28215e-05
0.000112033
-1.2783e-05
0.00011522
-1.27429e-05
0.000118397
-1.2701e-05
0.000121563
-1.26574e-05
0.000124717
-1.26119e-05
0.00012786
-1.25647e-05
0.000130991
-1.25155e-05
0.000134109
-1.24645e-05
0.000137213
-1.24115e-05
0.000140304
-1.23565e-05
0.000143381
-1.22995e-05
0.000146443
-1.22404e-05
0.000149489
-1.21792e-05
0.00015252
-1.21159e-05
0.000155535
-1.20505e-05
0.000158533
-1.19828e-05
0.000161513
-1.19129e-05
0.000164475
-1.18407e-05
0.000167419
-1.17663e-05
0.000170343
-1.16895e-05
0.000173248
-1.16103e-05
0.000176132
-1.15288e-05
0.000178995
-1.14449e-05
0.000181837
-1.13586e-05
0.000184657
-1.12698e-05
0.000187453
-1.11786e-05
0.000190227
-1.10849e-05
0.000192976
-1.09887e-05
0.000195701
-1.089e-05
0.0001984
-1.07887e-05
0.000201074
-1.0685e-05
0.000203721
-1.05787e-05
0.00020634
-1.04699e-05
0.000208932
-1.03585e-05
0.000211496
-1.02446e-05
0.00021403
-1.01282e-05
0.000216534
-1.00092e-05
0.000219008
-9.88772e-06
0.000221452
-9.76373e-06
0.000223863
-9.63724e-06
0.000226242
-9.50826e-06
0.000228589
-9.37682e-06
0.000230901
-9.24293e-06
0.00023318
-9.10662e-06
0.000235424
-8.9679e-06
0.000237633
-8.82681e-06
0.000239806
-8.68337e-06
0.000241942
-8.53762e-06
0.000244042
-8.38959e-06
0.000246103
-8.23931e-06
0.000248127
-8.08682e-06
0.000250112
-7.93216e-06
0.000252057
-7.77537e-06
0.000253963
-7.61649e-06
0.000255829
-7.45556e-06
0.000257654
-7.29264e-06
0.000259438
-7.12777e-06
0.000261179
-6.961e-06
0.000262879
-6.79238e-06
0.000264536
-6.62195e-06
0.00026615
-6.44978e-06
0.00026772
-6.27591e-06
0.000269247
-6.1004e-06
0.000270729
-5.92331e-06
0.000272167
-5.74468e-06
0.000273559
-5.56458e-06
0.000274906
-5.38306e-06
0.000276207
-5.20018e-06
0.000277462
-5.016e-06
0.000278671
-4.83057e-06
0.000279833
-4.64395e-06
0.000280948
-4.45621e-06
0.000282015
-4.26738e-06
0.000283036
-4.07755e-06
0.000284008
-3.88675e-06
0.000284933
-3.69505e-06
0.000285809
-3.50251e-06
0.000286637
-3.30918e-06
0.000287416
-3.11511e-06
0.000288147
-2.92037e-06
0.000288829
-2.725e-06
0.000289461
-2.52906e-06
0.000290045
-2.33261e-06
0.000290579
-2.1357e-06
0.000291064
-1.93838e-06
0.0002915
-1.7407e-06
0.000291885
-1.54272e-06
0.000292222
-1.34448e-06
0.000292508
-1.14604e-06
0.000292745
-9.47445e-07
0.000292933
-7.48743e-07
0.00029307
-5.49985e-07
0.000293158
-3.51218e-07
0.000293196
-1.52491e-07
0.000293184
4.61489e-08
0.000293123
2.44655e-07
0.000293012
4.4298e-07
0.000292851
6.41077e-07
0.000292641
8.38902e-07
0.000292382
1.03641e-06
0.000292073
1.23355e-06
0.000291715
1.43027e-06
0.000291308
1.62655e-06
0.000290852
1.82232e-06
0.000290347
2.01754e-06
0.000289794
2.21217e-06
0.000289192
2.40616e-06
0.000288541
2.59946e-06
0.000287842
2.79204e-06
0.000287096
2.98384e-06
0.000286301
3.17482e-06
0.000285459
3.36493e-06
0.00028457
3.55413e-06
0.000283633
3.74237e-06
0.00028265
3.9296e-06
0.00028162
4.11577e-06
0.000280544
4.30085e-06
0.000279422
4.48478e-06
0.000278254
4.66752e-06
0.00027704
4.84902e-06
0.000275782
5.02924e-06
0.000274479
5.20812e-06
0.000273131
5.38562e-06
0.000271739
5.56169e-06
0.000270304
5.73629e-06
0.000268825
5.90938e-06
0.000267303
6.0809e-06
0.000265739
6.25082e-06
0.000264133
6.41908e-06
0.000262485
6.58565e-06
0.000260796
6.75048e-06
0.000259066
6.91353e-06
0.000257296
7.07476e-06
0.000255485
7.23412e-06
0.000253636
7.39158e-06
0.000251747
7.54709e-06
0.00024982
7.70063e-06
0.000247856
7.85215e-06
0.000245853
8.00162e-06
0.000243814
8.149e-06
0.000241739
8.29427e-06
0.000239628
8.43739e-06
0.000237481
8.57833e-06
0.0002353
8.71706e-06
0.000233084
8.85357e-06
0.000230836
8.98782e-06
0.000228554
9.11979e-06
0.000226239
9.24947e-06
0.000223893
9.37683e-06
0.000221515
9.50186e-06
0.000219107
9.62453e-06
0.000216669
9.74485e-06
0.000214201
9.8628e-06
0.000211704
9.97836e-06
0.00020918
1.00915e-05
0.000206627
1.02023e-05
0.000204047
1.03107e-05
0.000201441
1.04167e-05
0.000198809
1.05203e-05
0.000196151
1.06215e-05
0.000193469
1.07203e-05
0.000190763
1.08168e-05
0.000188033
1.09108e-05
0.00018528
1.10026e-05
0.000182505
1.10919e-05
0.000179709
1.1179e-05
0.000176891
1.12637e-05
0.000174052
1.13461e-05
0.000171194
1.14262e-05
0.000168316
1.15041e-05
0.000165419
1.15798e-05
0.000162503
1.16532e-05
0.00015957
1.17245e-05
0.00015662
1.17935e-05
0.000153653
1.18605e-05
0.00015067
1.19254e-05
0.000147671
1.19881e-05
0.000144657
1.20489e-05
0.000141629
1.21076e-05
0.000138586
1.21643e-05
0.000135529
1.22191e-05
0.00013246
1.2272e-05
0.000129377
1.2323e-05
0.000126283
1.23722e-05
0.000123176
1.24195e-05
0.000120059
1.24651e-05
0.00011693
1.25089e-05
0.000113791
1.25511e-05
0.000110641
1.25915e-05
0.000107482
1.26304e-05
0.000104314
1.26676e-05
0.000101137
1.27033e-05
9.79512e-05
1.27374e-05
9.47574e-05
1.27701e-05
9.15559e-05
1.28013e-05
8.83469e-05
1.28311e-05
8.51308e-05
1.28595e-05
8.1908e-05
1.28865e-05
7.86789e-05
1.29122e-05
7.54436e-05
1.29366e-05
7.22026e-05
1.29598e-05
6.89561e-05
1.29817e-05
6.57045e-05
1.30024e-05
6.2448e-05
1.30219e-05
5.91869e-05
1.30403e-05
5.59216e-05
1.30576e-05
5.26522e-05
1.30737e-05
4.93791e-05
1.30888e-05
4.61025e-05
1.31028e-05
4.28226e-05
1.31158e-05
3.95398e-05
1.31278e-05
3.62542e-05
1.31388e-05
3.29662e-05
1.31488e-05
2.96759e-05
1.31579e-05
2.63836e-05
1.3166e-05
2.30895e-05
1.31731e-05
1.97939e-05
1.31794e-05
1.64969e-05
1.31847e-05
1.31988e-05
1.31891e-05
9.89989e-06
1.31927e-05
6.60029e-06
1.31953e-05
3.30025e-06
1.31971e-05
1.31979e-05
3.34317e-06
-1.67091e-05
6.68611e-06
-1.6708e-05
1.00286e-05
-1.67057e-05
1.33705e-05
-1.67024e-05
1.67114e-05
-1.66979e-05
2.00513e-05
-1.66923e-05
2.33898e-05
-1.66855e-05
2.67267e-05
-1.66776e-05
3.00618e-05
-1.66685e-05
3.33949e-05
-1.66582e-05
3.67257e-05
-1.66467e-05
4.0054e-05
-1.6634e-05
4.33796e-05
-1.662e-05
4.67021e-05
-1.66047e-05
5.00213e-05
-1.65882e-05
5.3337e-05
-1.65703e-05
5.66489e-05
-1.65511e-05
5.99567e-05
-1.65305e-05
6.32601e-05
-1.65084e-05
6.65589e-05
-1.6485e-05
6.98527e-05
-1.646e-05
7.31413e-05
-1.64335e-05
7.64243e-05
-1.64055e-05
7.97015e-05
-1.63758e-05
8.29724e-05
-1.63445e-05
8.62368e-05
-1.63116e-05
8.94943e-05
-1.62769e-05
9.27446e-05
-1.62404e-05
9.59872e-05
-1.62021e-05
9.92219e-05
-1.6162e-05
0.000102448
-1.612e-05
0.000105666
-1.6076e-05
0.000108874
-1.603e-05
0.000112073
-1.5982e-05
0.000115262
-1.59318e-05
0.000118441
-1.58795e-05
0.000121608
-1.58251e-05
0.000124765
-1.57683e-05
0.00012791
-1.57093e-05
0.000131042
-1.5648e-05
0.000134162
-1.55842e-05
0.000137268
-1.55181e-05
0.000140361
-1.54494e-05
0.00014344
-1.53782e-05
0.000146504
-1.53044e-05
0.000149553
-1.5228e-05
0.000152586
-1.5149e-05
0.000155603
-1.50672e-05
0.000158603
-1.49827e-05
0.000161585
-1.48954e-05
0.00016455
-1.48052e-05
0.000167495
-1.47122e-05
0.000170422
-1.46163e-05
0.000173329
-1.45174e-05
0.000176216
-1.44155e-05
0.000179082
-1.43107e-05
0.000181926
-1.42028e-05
0.000184748
-1.40919e-05
0.000187547
-1.39779e-05
0.000190323
-1.38608e-05
0.000193075
-1.37405e-05
0.000195802
-1.36172e-05
0.000198504
-1.34906e-05
0.00020118
-1.33609e-05
0.00020383
-1.32281e-05
0.000206452
-1.30921e-05
0.000209046
-1.29529e-05
0.000211612
-1.28105e-05
0.000214149
-1.26649e-05
0.000216656
-1.25162e-05
0.000219133
-1.23644e-05
0.000221578
-1.22093e-05
0.000223992
-1.20512e-05
0.000226374
-1.189e-05
0.000228723
-1.17256e-05
0.000231038
-1.15582e-05
0.000233319
-1.13878e-05
0.000235565
-1.12143e-05
0.000237777
-1.10379e-05
0.000239952
-1.08586e-05
0.00024209
-1.06763e-05
0.000244192
-1.04912e-05
0.000246256
-1.03033e-05
0.000248282
-1.01126e-05
0.000250269
-9.91919e-06
0.000252216
-9.72312e-06
0.000254124
-9.52443e-06
0.000255992
-9.3232e-06
0.000257819
-9.11946e-06
0.000259604
-8.91328e-06
0.000261348
-8.70472e-06
0.00026305
-8.49384e-06
0.000264708
-8.28071e-06
0.000266324
-8.0654e-06
0.000267896
-7.84796e-06
0.000269424
-7.62847e-06
0.000270908
-7.407e-06
0.000272347
-7.18361e-06
0.00027374
-6.95838e-06
0.000275089
-6.73137e-06
0.000276391
-6.50267e-06
0.000277648
-6.27233e-06
0.000278857
-6.04044e-06
0.000280021
-5.80706e-06
0.000281137
-5.57226e-06
0.000282205
-5.33613e-06
0.000283227
-5.09873e-06
0.0002842
-4.86012e-06
0.000285125
-4.62039e-06
0.000286002
-4.37961e-06
0.000286831
-4.13784e-06
0.000287611
-3.89515e-06
0.000288342
-3.65162e-06
0.000289025
-3.40731e-06
0.000289658
-3.16229e-06
0.000290242
-2.91663e-06
0.000290777
-2.67039e-06
0.000291262
-2.42364e-06
0.000291698
-2.17645e-06
0.000292084
-1.92888e-06
0.00029242
-1.68098e-06
0.000292707
-1.43284e-06
0.000292944
-1.1845e-06
0.000293131
-9.3603e-07
0.000293269
-6.87492e-07
0.000293357
-4.38944e-07
0.000293395
-1.90446e-07
0.000293383
5.79425e-08
0.000293321
3.06162e-07
0.00029321
5.54156e-07
0.000293049
8.01865e-07
0.000292839
1.04923e-06
0.000292579
1.2962e-06
0.00029227
1.54271e-06
0.000291912
1.7887e-06
0.000291504
2.03413e-06
0.000291047
2.27893e-06
0.000290542
2.52304e-06
0.000289988
2.76641e-06
0.000289385
3.00899e-06
0.000288734
3.2507e-06
0.000288034
3.49151e-06
0.000287287
3.73135e-06
0.000286491
3.97016e-06
0.000285648
4.20788e-06
0.000284758
4.44447e-06
0.000283821
4.67985e-06
0.000282836
4.91398e-06
0.000281805
5.14678e-06
0.000280728
5.37822e-06
0.000279604
5.60822e-06
0.000278435
5.83673e-06
0.00027722
6.06369e-06
0.000275961
6.28905e-06
0.000274656
6.51273e-06
0.000273307
6.7347e-06
0.000271914
6.95488e-06
0.000270477
7.17322e-06
0.000268997
7.38966e-06
0.000267473
7.60415e-06
0.000265907
7.81663e-06
0.0002643
8.02704e-06
0.00026265
8.23533e-06
0.000260959
8.44144e-06
0.000259227
8.64533e-06
0.000257455
8.84694e-06
0.000255643
9.04622e-06
0.000253791
9.24311e-06
0.000251901
9.43758e-06
0.000249972
9.62957e-06
0.000248005
9.81903e-06
0.000246001
1.00059e-05
0.000243959
1.01902e-05
0.000241882
1.03719e-05
0.000239768
1.05508e-05