/*--------------------------------*- C++ -*----------------------------------*\
| =========                 |                                                 |
| \\      /  F ield         | OpenFOAM: The Open Source CFD Toolbox           |
|  \\    /   O peration     | Version:  v2012                                 |
|   \\  /    A nd           | Website:  www.openfoam.com                      |
|    \\/     M anipulation  |                                                 |
\*---------------------------------------------------------------------------*/
FoamFile
{
    version     2.0;
    format      ascii;
    class       volScalarField;
    location    "0.5";
    object      Psi_z;
}
// * * * * * * * * * * * * * * * * * * * * * * * * * * * * * * * * * * * * * //

dimensions      [0 2 -1 0 0 0 0];


internalField   nonuniform List<scalar> 
65536
(
8.37023e-06
2.511e-05
4.18482e-05
5.85834e-05
7.53148e-05
9.2041e-05
0.000108761
0.000125474
0.000142178
0.000158872
0.000175555
0.000192226
0.000208883
0.000225526
0.000242153
0.000258762
0.000275353
0.000291924
0.000308473
0.000324999
0.000341501
0.000357976
0.000374425
0.000390844
0.000407232
0.000423588
0.00043991
0.000456196
0.000472445
0.000488654
0.000504821
0.000520945
0.000537024
0.000553055
0.000569037
0.000584967
0.000600843
0.000616663
0.000632425
0.000648126
0.000663765
0.000679337
0.000694842
0.000710276
0.000725637
0.000740923
0.00075613
0.000771256
0.000786298
0.000801253
0.000816119
0.000830893
0.000845571
0.000860152
0.000874631
0.000889006
0.000903274
0.000917431
0.000931475
0.000945403
0.000959211
0.000972896
0.000986456
0.000999886
0.00101318
0.00102635
0.00103937
0.00105225
0.00106499
0.00107758
0.00109002
0.0011023
0.00111442
0.00112639
0.00113819
0.00114982
0.00116128
0.00117257
0.00118369
0.00119462
0.00120537
0.00121594
0.00122632
0.00123651
0.0012465
0.0012563
0.0012659
0.0012753
0.0012845
0.00129349
0.00130227
0.00131084
0.00131919
0.00132733
0.00133526
0.00134296
0.00135044
0.0013577
0.00136473
0.00137154
0.00137811
0.00138446
0.00139057
0.00139645
0.00140209
0.0014075
0.00141267
0.0014176
0.00142229
0.00142674
0.00143095
0.00143491
0.00143863
0.0014421
0.00144533
0.00144832
0.00145105
0.00145354
0.00145579
0.00145778
0.00145953
0.00146102
0.00146227
0.00146327
0.00146403
0.00146453
0.00146478
0.00146479
0.00146455
0.00146406
0.00146332
0.00146233
0.0014611
0.00145962
0.0014579
0.00145593
0.00145372
0.00145126
0.00144856
0.00144561
0.00144243
0.001439
0.00143534
0.00143144
0.0014273
0.00142292
0.00141831
0.00141347
0.00140839
0.00140308
0.00139754
0.00139178
0.00138579
0.00137957
0.00137313
0.00136647
0.00135959
0.0013525
0.00134518
0.00133766
0.00132992
0.00132197
0.00131381
0.00130545
0.00129689
0.00128812
0.00127916
0.00126999
0.00126064
0.00125109
0.00124136
0.00123144
0.00122133
0.00121104
0.00120058
0.00118993
0.00117912
0.00116813
0.00115698
0.00114566
0.00113418
0.00112254
0.00111075
0.0010988
0.0010867
0.00107445
0.00106206
0.00104953
0.00103685
0.00102405
0.00101111
0.000998036
0.000984839
0.000971518
0.000958076
0.000944515
0.00093084
0.000917053
0.000903156
0.000889153
0.000875046
0.000860839
0.000846533
0.000832132
0.000817639
0.000803056
0.000788386
0.000773632
0.000758796
0.000743881
0.000728889
0.000713823
0.000698685
0.000683478
0.000668204
0.000652866
0.000637465
0.000622005
0.000606486
0.000590913
0.000575285
0.000559607
0.000543879
0.000528104
0.000512283
0.000496419
0.000480513
0.000464568
0.000448585
0.000432565
0.000416511
0.000400425
0.000384307
0.000368159
0.000351983
0.000335781
0.000319553
0.000303302
0.000287029
0.000270735
0.000254422
0.00023809
0.000221741
0.000205377
0.000188999
0.000172607
0.000156204
0.00013979
0.000123366
0.000106934
9.04949e-05
7.40495e-05
5.75992e-05
4.1145e-05
2.46881e-05
8.22955e-06
2.51111e-05
7.53315e-05
0.000125547
0.000175754
0.000225949
0.000276129
0.00032629
0.000376428
0.000426541
0.000476625
0.000526676
0.00057669
0.000626664
0.000676593
0.000726475
0.000776304
0.000826078
0.000875791
0.000925439
0.000975019
0.00102453
0.00107395
0.0011233
0.00117256
0.00122173
0.0012708
0.00131976
0.00136862
0.00141737
0.001466
0.0015145
0.00156288
0.00161112
0.00165921
0.00170716
0.00175495
0.00180258
0.00185004
0.00189733
0.00194444
0.00199136
0.00203808
0.00208459
0.0021309
0.00217698
0.00222284
0.00226847
0.00231385
0.00235898
0.00240384
0.00244845
0.00249277
0.00253681
0.00258055
0.00262399
0.00266712
0.00270993
0.0027524
0.00279454
0.00283632
0.00287775
0.00291881
0.00295949
0.00299979
0.00303968
0.00307917
0.00311825
0.0031569
0.00319511
0.00323288
0.0032702
0.00330705
0.00334343
0.00337932
0.00341472
0.00344963
0.00348402
0.00351789
0.00355123
0.00358404
0.0036163
0.003648
0.00367914
0.00370971
0.0037397
0.0037691
0.00379791
0.00382611
0.0038537
0.00388067
0.00390701
0.00393272
0.00395779
0.00398222
0.00400599
0.0040291
0.00405155
0.00407332
0.00409442
0.00411484
0.00413457
0.0041536
0.00417194
0.00418958
0.00420652
0.00422274
0.00423825
0.00425304
0.00426711
0.00428046
0.00429308
0.00430497
0.00431613
0.00432656
0.00433625
0.0043452
0.00435341
0.00436088
0.00436761
0.00437359
0.00437883
0.00438332
0.00438707
0.00439007
0.00439233
0.00439384
0.0043946
0.00439462
0.00439389
0.00439242
0.00439021
0.00438725
0.00438355
0.00437912
0.00437394
0.00436804
0.00436139
0.00435402
0.00434591
0.00433708
0.00432753
0.00431725
0.00430626
0.00429455
0.00428213
0.004269
0.00425517
0.00424063
0.0042254
0.00420948
0.00419286
0.00417557
0.00415759
0.00413894
0.00411963
0.00409964
0.004079
0.00405771
0.00403577
0.00401319
0.00398997
0.00396612
0.00394165
0.00391656
0.00389086
0.00386456
0.00383767
0.00381018
0.00378211
0.00375347
0.00372426
0.00369449
0.00366417
0.00363331
0.00360191
0.00356998
0.00353753
0.00350457
0.00347111
0.00343715
0.00340271
0.00336779
0.0033324
0.00329655
0.00326025
0.0032235
0.00318633
0.00314872
0.0031107
0.00307228
0.00303345
0.00299424
0.00295464
0.00291468
0.00287435
0.00283367
0.00279264
0.00275127
0.00270958
0.00266757
0.00262524
0.00258262
0.0025397
0.00249649
0.00245301
0.00240926
0.00236525
0.00232098
0.00227647
0.00223172
0.00218674
0.00214154
0.00209613
0.0020505
0.00200468
0.00195866
0.00191246
0.00186607
0.00181952
0.00177279
0.00172591
0.00167887
0.00163169
0.00158436
0.00153689
0.0014893
0.00144158
0.00139374
0.00134579
0.00129773
0.00124957
0.00120131
0.00115295
0.00110451
0.00105598
0.00100737
0.000958686
0.000909931
0.00086111
0.000812227
0.000763284
0.000714288
0.000665241
0.000616147
0.000567011
0.000517835
0.000468623
0.00041938
0.000370107
0.00032081
0.000271491
0.000222154
0.000172802
0.000123438
7.4066e-05
2.46892e-05
4.18536e-05
0.000125558
0.000209254
0.000292936
0.000376598
0.000460235
0.00054384
0.000627409
0.000710935
0.000794411
0.000877833
0.000961194
0.00104449
0.00112771
0.00121085
0.0012939
0.00137686
0.00145972
0.00154247
0.00162511
0.00170763
0.00179002
0.00187226
0.00195437
0.00203632
0.00211811
0.00219973
0.00228117
0.00236242
0.00244347
0.00252432
0.00260495
0.00268535
0.00276552
0.00284544
0.0029251
0.00300449
0.0030836
0.00316242
0.00324094
0.00331914
0.00339702
0.00347455
0.00355174
0.00362856
0.003705
0.00378105
0.00385669
0.00393191
0.00400671
0.00408105
0.00415493
0.00422834
0.00430126
0.00437367
0.00444556
0.00451691
0.00458771
0.00465795
0.0047276
0.00479666
0.0048651
0.00493292
0.00500008
0.00506659
0.00513242
0.00519755
0.00526198
0.00532568
0.00538864
0.00545084
0.00551227
0.00557291
0.00563275
0.00569176
0.00574994
0.00580727
0.00586374
0.00591932
0.005974
0.00602778
0.00608063
0.00613254
0.0061835
0.00623349
0.0062825
0.00633052
0.00637753
0.00642352
0.00646847
0.00651239
0.00655525
0.00659704
0.00663776
0.00667738
0.00671591
0.00675332
0.00678962
0.00682479
0.00685883
0.00689171
0.00692345
0.00695402
0.00698342
0.00701165
0.00703869
0.00706454
0.0070892
0.00711266
0.00713491
0.00715594
0.00717577
0.00719437
0.00721175
0.0072279
0.00724282
0.00725651
0.00726896
0.00728017
0.00729014
0.00729888
0.00730637
0.00731261
0.00731762
0.00732137
0.00732389
0.00732516
0.00732519
0.00732398
0.00732153
0.00731784
0.00731291
0.00730674
0.00729935
0.00729072
0.00728087
0.0072698
0.00725751
0.007244
0.00722928
0.00721335
0.00719622
0.00717789
0.00715837
0.00713767
0.00711578
0.00709272
0.00706849
0.0070431
0.00701656
0.00698887
0.00696004
0.00693007
0.00689898
0.00686678
0.00683347
0.00679907
0.00676357
0.00672699
0.00668935
0.00665065
0.00661089
0.0065701
0.00652828
0.00648545
0.0064416
0.00639677
0.00635095
0.00630416
0.00625642
0.00620773
0.0061581
0.00610756
0.00605611
0.00600377
0.00595054
0.00589646
0.00584151
0.00578573
0.00572913
0.00567171
0.0056135
0.00555451
0.00549475
0.00543424
0.00537299
0.00531102
0.00524833
0.00518496
0.00512091
0.00505619
0.00499082
0.00492482
0.0048582
0.00479098
0.00472316
0.00465477
0.00458582
0.00451632
0.00444629
0.00437574
0.00430469
0.00423315
0.00416113
0.00408865
0.00401572
0.00394236
0.00386858
0.00379438
0.00371979
0.00364482
0.00356948
0.00349378
0.00341773
0.00334135
0.00326465
0.00318763
0.00311032
0.00303272
0.00295484
0.00287669
0.00279829
0.00271964
0.00264075
0.00256164
0.00248231
0.00240277
0.00232303
0.00224311
0.002163
0.00208273
0.00200228
0.00192168
0.00184094
0.00176005
0.00167903
0.00159789
0.00151663
0.00143525
0.00135378
0.0012722
0.00119054
0.00110879
0.00102696
0.000945062
0.000863098
0.000781075
0.000698998
0.000616874
0.000534708
0.000452506
0.000370273
0.000288016
0.000205739
0.000123449
4.11505e-05
5.8599e-05
0.000175793
0.000292975
0.000410138
0.000527273
0.000644373
0.000761428
0.000878433
0.000995377
0.00111225
0.00122905
0.00134577
0.00146239
0.0015789
0.00169531
0.00181159
0.00192775
0.00204376
0.00215963
0.00227533
0.00239086
0.00250621
0.00262137
0.00273633
0.00285107
0.00296559
0.00307987
0.0031939
0.00330766
0.00342115
0.00353435
0.00364724
0.00375982
0.00387207
0.00398397
0.00409551
0.00420668
0.00431745
0.00442782
0.00453776
0.00464726
0.0047563
0.00486487
0.00497295
0.00508051
0.00518754
0.00529403
0.00539995
0.00550529
0.00561001
0.00571412
0.00581757
0.00592036
0.00602247
0.00612386
0.00622453
0.00632445
0.00642359
0.00652195
0.00661948
0.00671618
0.00681203
0.00690699
0.00700104
0.00709417
0.00718636
0.00727757
0.00736779
0.00745699
0.00754516
0.00763226
0.00771828
0.0078032
0.00788699
0.00796964
0.00805111
0.00813139
0.00821046
0.0082883
0.00836488
0.00844019
0.0085142
0.00858689
0.00865825
0.00872826
0.00879689
0.00886413
0.00892996
0.00899437
0.00905733
0.00911882
0.00917884
0.00923737
0.00929438
0.00934987
0.00940382
0.00945622
0.00950705
0.0095563
0.00960396
0.00965002
0.00969445
0.00973726
0.00977844
0.00981796
0.00985583
0.00989203
0.00992656
0.00995941
0.00999056
0.01002
0.0100478
0.0100738
0.0100982
0.0101208
0.0101417
0.0101608
0.0101783
0.010194
0.0102079
0.0102202
0.0102307
0.0102394
0.0102464
0.0102517
0.0102552
0.010257
0.010257
0.0102553
0.0102519
0.0102467
0.0102398
0.0102312
0.0102208
0.0102087
0.0101949
0.0101794
0.0101622
0.0101433
0.0101227
0.0101004
0.0100764
0.0100507
0.0100234
0.00999439
0.00996374
0.00993145
0.00989752
0.00986196
0.00982479
0.00978601
0.00974563
0.00970367
0.00966014
0.00961504
0.0095684
0.00952022
0.00947051
0.00941929
0.00936657
0.00931237
0.0092567
0.00919958
0.00914102
0.00908103
0.00901964
0.00895685
0.00889269
0.00882717
0.00876031
0.00869212
0.00862263
0.00855185
0.0084798
0.00840651
0.00833197
0.00825623
0.00817929
0.00810118
0.00802191
0.00794151
0.00786
0.00777739
0.0076937
0.00760897
0.0075232
0.00743641
0.00734864
0.00725989
0.0071702
0.00707957
0.00698804
0.00689562
0.00680233
0.00670819
0.00661323
0.00651746
0.00642091
0.00632359
0.00622553
0.00612674
0.00602725
0.00592707
0.00582623
0.00572474
0.00562262
0.00551989
0.00541658
0.00531269
0.00520825
0.00510327
0.00499777
0.00489177
0.00478529
0.00467834
0.00457094
0.0044631
0.00435485
0.00424619
0.00413714
0.00402772
0.00391794
0.00380782
0.00369737
0.0035866
0.00347552
0.00336416
0.00325251
0.00314061
0.00302845
0.00291604
0.00280341
0.00269057
0.00257751
0.00246426
0.00235082
0.00223721
0.00212343
0.0020095
0.00189542
0.00178121
0.00166687
0.00155241
0.00143784
0.00132318
0.00120842
0.00109358
0.000978664
0.000863682
0.000748641
0.00063355
0.000518417
0.000403249
0.000288054
0.00017284
5.76146e-05
7.53484e-05
0.00022604
0.000376717
0.000527368
0.000677984
0.000828554
0.000979069
0.00112952
0.00127989
0.00143017
0.00158036
0.00173043
0.00188039
0.00203021
0.00217989
0.00232942
0.00247877
0.00262795
0.00277694
0.00292572
0.00307428
0.00322261
0.00337069
0.00351851
0.00366605
0.00381331
0.00396026
0.00410689
0.00425318
0.00439912
0.00454468
0.00468986
0.00483463
0.00497897
0.00512287
0.00526631
0.00540926
0.00555171
0.00569364
0.00583502
0.00597583
0.00611606
0.00625568
0.00639467
0.00653299
0.00667064
0.00680759
0.0069438
0.00707927
0.00721395
0.00734783
0.00748088
0.00761308
0.00774439
0.00787479
0.00800426
0.00813276
0.00826027
0.00838676
0.0085122
0.00863657
0.00875983
0.00888196
0.00900293
0.00912271
0.00924127
0.00935858
0.00947461
0.00958934
0.00970273
0.00981476
0.0099254
0.0100346
0.0101424
0.0102487
0.0103535
0.0104567
0.0105584
0.0106585
0.010757
0.0108539
0.0109491
0.0110426
0.0111344
0.0112244
0.0113127
0.0113992
0.0114838
0.0115667
0.0116476
0.0117267
0.0118039
0.0118792
0.0119525
0.0120239
0.0120933
0.0121607
0.0122261
0.0122894
0.0123507
0.0124099
0.0124671
0.0125221
0.0125751
0.0126259
0.0126746
0.0127212
0.0127656
0.0128078
0.0128479
0.0128858
0.0129215
0.012955
0.0129863
0.0130154
0.0130423
0.0130669
0.0130893
0.0131095
0.0131275
0.0131432
0.0131567
0.0131679
0.0131769
0.0131837
0.0131882
0.0131905
0.0131906
0.0131884
0.013184
0.0131773
0.0131684
0.0131573
0.013144
0.0131285
0.0131107
0.0130908
0.0130686
0.0130443
0.0130178
0.0129891
0.0129582
0.0129252
0.0128901
0.0128528
0.0128133
0.0127718
0.0127282
0.0126824
0.0126346
0.0125847
0.0125328
0.0124788
0.0124229
0.0123649
0.0123049
0.0122429
0.012179
0.0121131
0.0120453
0.0119756
0.011904
0.0118305
0.0117552
0.011678
0.0115991
0.0115183
0.0114358
0.0113515
0.0112655
0.0111778
0.0110884
0.0109974
0.0109047
0.0108105
0.0107146
0.0106172
0.0105182
0.0104178
0.0103158
0.0102124
0.0101076
0.0100013
0.00989371
0.00978473
0.00967441
0.0095628
0.00944991
0.00933578
0.00922042
0.00910386
0.00898614
0.00886728
0.0087473
0.00862623
0.0085041
0.00838094
0.00825677
0.00813161
0.00800549
0.00787845
0.0077505
0.00762166
0.00749197
0.00736145
0.00723013
0.00709802
0.00696515
0.00683155
0.00669723
0.00656223
0.00642656
0.00629025
0.00615332
0.00601578
0.00587767
0.00573899
0.00559978
0.00546005
0.00531982
0.00517911
0.00503795
0.00489633
0.0047543
0.00461186
0.00446902
0.00432582
0.00418226
0.00403836
0.00389413
0.00374959
0.00360476
0.00345965
0.00331428
0.00316865
0.00302278
0.00287669
0.00273039
0.00258389
0.0024372
0.00229034
0.00214332
0.00199614
0.00184883
0.00170139
0.00155383
0.00140616
0.0012584
0.00111055
0.000962625
0.000814638
0.000666596
0.000518509
0.000370388
0.000222243
7.40825e-05
9.21028e-05
0.000276302
0.000460483
0.000644633
0.00082874
0.00101279
0.00119678
0.00138068
0.00156449
0.00174819
0.00193177
0.00211522
0.00229852
0.00248166
0.00266463
0.00284741
0.00302998
0.00321234
0.00339445
0.00357632
0.00375793
0.00393924
0.00412026
0.00430096
0.00448133
0.00466134
0.00484098
0.00502022
0.00519906
0.00537746
0.00555541
0.00573288
0.00590986
0.00608631
0.00626223
0.00643758
0.00661234
0.00678649
0.00696
0.00713285
0.007305
0.00747643
0.00764712
0.00781704
0.00798616
0.00815444
0.00832187
0.00848841
0.00865402
0.00881869
0.00898238
0.00914505
0.00930667
0.00946722
0.00962666
0.00978495
0.00994206
0.010098
0.0102526
0.010406
0.0105581
0.0107088
0.0108581
0.011006
0.0111525
0.0112974
0.0114409
0.0115827
0.011723
0.0118617
0.0119987
0.0121339
0.0122675
0.0123993
0.0125292
0.0126574
0.0127836
0.012908
0.0130304
0.0131508
0.0132693
0.0133857
0.0135
0.0136122
0.0137223
0.0138303
0.013936
0.0140395
0.0141408
0.0142398
0.0143366
0.0144309
0.014523
0.0146126
0.0146999
0.0147848
0.0148672
0.0149471
0.0150246
0.0150995
0.0151719
0.0152418
0.0153091
0.0153739
0.015436
0.0154956
0.0155525
0.0156068
0.0156585
0.0157075
0.0157538
0.0157974
0.0158384
0.0158767
0.0159122
0.0159451
0.0159752
0.0160026
0.0160273
0.0160492
0.0160685
0.0160849
0.0160987
0.0161097
0.016118
0.0161235
0.0161263
0.0161263
0.0161237
0.0161183
0.0161101
0.0160993
0.0160857
0.0160694
0.0160504
0.0160287
0.0160043
0.0159772
0.0159475
0.015915
0.01588
0.0158422
0.0158019
0.0157589
0.0157133
0.0156651
0.0156143
0.0155609
0.015505
0.0154465
0.0153855
0.015322
0.015256
0.0151876
0.0151167
0.0150433
0.0149675
0.0148893
0.0148088
0.0147259
0.0146407
0.0145531
0.0144633
0.0143712
0.0142768
0.0141803
0.0140815
0.0139806
0.0138776
0.0137724
0.0136652
0.0135559
0.0134446
0.0133313
0.013216
0.0130988
0.0129797
0.0128587
0.0127359
0.0126112
0.0124848
0.0123566
0.0122267
0.0120951
0.0119618
0.0118269
0.0116905
0.0115524
0.0114129
0.0112718
0.0111293
0.0109854
0.0108401
0.0106934
0.0105453
0.010396
0.0102454
0.0100936
0.00994058
0.00978639
0.00963106
0.00947462
0.00931711
0.00915855
0.00899897
0.00883841
0.0086769
0.00851446
0.00835112
0.00818691
0.00802186
0.007856
0.00768935
0.00752194
0.0073538
0.00718495
0.00701542
0.00684523
0.00667441
0.00650298
0.00633097
0.00615839
0.00598527
0.00581164
0.00563751
0.0054629
0.00528784
0.00511234
0.00493643
0.00476012
0.00458343
0.00440639
0.004229
0.00405129
0.00387328
0.00369497
0.00351639
0.00333755
0.00315847
0.00297916
0.00279964
0.00261992
0.00244001
0.00225994
0.00207971
0.00189934
0.00171883
0.00153821
0.00135749
0.00117667
0.000995779
0.000814819
0.000633804
0.000452747
0.00027166
9.05553e-05
0.000108863
0.000326583
0.00054428
0.000761942
0.000979553
0.0011971
0.00141456
0.00163193
0.00184919
0.00206633
0.00228332
0.00250016
0.00271682
0.00293329
0.00314956
0.0033656
0.00358141
0.00379695
0.00401222
0.0042272
0.00444186
0.00465618
0.00487016
0.00508375
0.00529696
0.00550974
0.00572208
0.00593397
0.00614536
0.00635625
0.0065666
0.0067764
0.00698561
0.0071942
0.00740216
0.00760945
0.00781605
0.00802192
0.00822703
0.00843137
0.00863488
0.00883755
0.00903934
0.00924022
0.00944015
0.00963911
0.00983705
0.0100339
0.0102297
0.0104244
0.0106179
0.0108103
0.0110013
0.0111912
0.0113797
0.0115668
0.0117526
0.0119369
0.0121198
0.0123011
0.0124809
0.0126591
0.0128357
0.0130105
0.0131837
0.0133551
0.0135247
0.0136925
0.0138583
0.0140223
0.0141843
0.0143442
0.0145021
0.0146579
0.0148116
0.0149631
0.0151124
0.0152595
0.0154042
0.0155466
0.0156867
0.0158243
0.0159595
0.0160922
0.0162224
0.01635
0.0164751
0.0165975
0.0167173
0.0168343
0.0169487
0.0170603
0.0171691
0.0172752
0.0173784
0.0174787
0.0175761
0.0176706
0.0177622
0.0178508
0.0179365
0.0180191
0.0180987
0.0181753
0.0182488
0.0183192
0.0183865
0.0184507
0.0185117
0.0185697
0.0186244
0.018676
0.0187245
0.0187697
0.0188117
0.0188506
0.0188862
0.0189186
0.0189478
0.0189737
0.0189965
0.019016
0.0190322
0.0190452
0.019055
0.0190615
0.0190648
0.0190649
0.0190617
0.0190553
0.0190457
0.0190328
0.0190168
0.0189975
0.018975
0.0189494
0.0189205
0.0188885
0.0188533
0.018815
0.0187735
0.0187289
0.0186811
0.0186303
0.0185764
0.0185194
0.0184593
0.0183962
0.0183301
0.018261
0.0181888
0.0181138
0.0180357
0.0179548
0.0178709
0.0177842
0.0176946
0.0176021
0.0175069
0.0174088
0.017308
0.0172045
0.0170983
0.0169894
0.0168778
0.0167637
0.0166469
0.0165276
0.0164058
0.0162814
0.0161546
0.0160254
0.0158938
0.0157598
0.0156235
0.0154849
0.0153441
0.015201
0.0150558
0.0149084
0.0147589
0.0146073
0.0144537
0.0142981
0.0141405
0.013981
0.0138197
0.0136565
0.0134915
0.0133247
0.0131562
0.012986
0.0128142
0.0126407
0.0124657
0.0122892
0.0121111
0.0119316
0.0117507
0.0115684
0.0113848
0.0111998
0.0110136
0.0108261
0.0106375
0.0104477
0.0102567
0.0100647
0.00987156
0.00967743
0.0094823
0.00928622
0.00908921
0.0088913
0.00869253
0.00849292
0.0082925
0.00809131
0.00788938
0.00768673
0.00748338
0.00727937
0.00707473
0.00686947
0.00666363
0.00645723
0.00625029
0.00604284
0.0058349
0.00562649
0.00541764
0.00520836
0.00499868
0.00478862
0.0045782
0.00436743
0.00415634
0.00394495
0.00373328
0.00352133
0.00330913
0.0030967
0.00288406
0.00267121
0.00245818
0.00224498
0.00203162
0.00181813
0.00160452
0.0013908
0.00117699
0.000963096
0.00074914
0.000535135
0.000321095
0.000107034
0.000125631
0.000376885
0.000628114
0.000879301
0.00113043
0.00138148
0.00163245
0.0018833
0.00213402
0.00238461
0.00263503
0.00288526
0.0031353
0.00338513
0.00363471
0.00388404
0.00413309
0.00438185
0.00463029
0.00487839
0.00512612
0.00537348
0.00562042
0.00586694
0.006113
0.00635858
0.00660366
0.0068482
0.00709218
0.00733558
0.00757837
0.0078205
0.00806197
0.00830273
0.00854276
0.00878201
0.00902047
0.00925809
0.00949485
0.0097307
0.00996561
0.0101996
0.0104325
0.0106643
0.0108951
0.0111248
0.0113533
0.0115805
0.0118066
0.0120313
0.0122547
0.0124767
0.0126973
0.0129164
0.013134
0.0133501
0.0135645
0.0137773
0.0139884
0.0141978
0.0144053
0.0146111
0.0148149
0.0150168
0.0152167
0.0154146
0.0156104
0.0158041
0.0159956
0.0161849
0.0163719
0.0165566
0.0167389
0.0169188
0.0170962
0.0172711
0.0174435
0.0176133
0.0177804
0.0179448
0.0181065
0.0182654
0.0184215
0.0185747
0.018725
0.0188724
0.0190167
0.0191581
0.0192964
0.0194315
0.0195636
0.0196925
0.0198181
0.0199405
0.0200597
0.0201755
0.020288
0.0203971
0.0205028
0.0206052
0.020704
0.0207994
0.0208913
0.0209797
0.0210645
0.0211458
0.0212235
0.0212977
0.0213682
0.021435
0.0214983
0.0215578
0.0216137
0.021666
0.0217145
0.0217593
0.0218004
0.0218378
0.0218715
0.0219015
0.0219277
0.0219502
0.0219689
0.021984
0.0219952
0.0220028
0.0220066
0.0220066
0.022003
0.0219956
0.0219844
0.0219696
0.021951
0.0219288
0.0219028
0.0218732
0.0218399
0.0218029
0.0217623
0.021718
0.0216701
0.0216186
0.0215635
0.0215048
0.0214425
0.0213767
0.0213074
0.0212345
0.0211582
0.0210784
0.0209951
0.0209084
0.0208183
0.0207248
0.020628
0.0205279
0.0204244
0.0203177
0.0202077
0.0200945
0.0199782
0.0198586
0.019736
0.0196103
0.0194815
0.0193497
0.0192149
0.0190771
0.0189364
0.0187929
0.0186465
0.0184973
0.0183453
0.0181907
0.0180333
0.0178733
0.0177107
0.0175455
0.0173778
0.0172076
0.017035
0.01686
0.0166827
0.0165031
0.0163211
0.016137
0.0159507
0.0157623
0.0155718
0.0153793
0.0151848
0.0149883
0.0147899
0.0145897
0.0143877
0.0141839
0.0139783
0.0137711
0.0135622
0.0133518
0.0131398
0.0129263
0.0127113
0.0124949
0.0122771
0.012058
0.0118376
0.0116159
0.011393
0.0111689
0.0109437
0.0107174
0.01049
0.0102615
0.0100321
0.00980169
0.00957036
0.00933814
0.00910506
0.00887116
0.00863646
0.00840099
0.00816479
0.00792789
0.00769031
0.00745209
0.00721325
0.00697382
0.00673383
0.0064933
0.00625226
0.00601073
0.00576874
0.0055263
0.00528346
0.00504022
0.0047966
0.00455264
0.00430835
0.00406375
0.00381886
0.0035737
0.0033283
0.00308266
0.00283681
0.00259077
0.00234455
0.00209818
0.00185166
0.00160502
0.00135827
0.00111144
0.000864526
0.000617559
0.000370552
0.00012352
0.000142407
0.000427212
0.000711989
0.00099672
0.00128138
0.00156596
0.00185044
0.00213479
0.002419
0.00270305
0.00298691
0.00327057
0.00355401
0.0038372
0.00412012
0.00440276
0.00468508
0.00496707
0.00524869
0.00552994
0.00581078
0.00609118
0.00637113
0.00665058
0.00692953
0.00720793
0.00748576
0.00776299
0.00803959
0.00831553
0.00859077
0.00886529
0.00913904
0.009412
0.00968412
0.00995538
0.0102257
0.0104951
0.0107636
0.011031
0.0112973
0.0115626
0.0118267
0.0120896
0.0123512
0.0126116
0.0128707
0.0131284
0.0133847
0.0136395
0.0138928
0.0141446
0.0143947
0.0146432
0.01489
0.0151349
0.0153781
0.0156194
0.0158588
0.0160962
0.0163316
0.0165649
0.0167961
0.017025
0.0172518
0.0174762
0.0176982
0.0179179
0.0181351
0.0183497
0.0185618
0.0187713
0.018978
0.019182
0.0193833
0.0195817
0.0197772
0.0199697
0.0201592
0.0203457
0.0205291
0.0207093
0.0208863
0.0210601
0.0212306
0.0213977
0.0215615
0.0217218
0.0218786
0.0220319
0.0221817
0.0223278
0.0224703
0.0226091
0.0227443
0.0228756
0.0230032
0.023127
0.0232469
0.0233629
0.023475
0.0235832
0.0236874
0.0237877
0.0238839
0.0239761
0.0240642
0.0241483
0.0242282
0.024304
0.0243757
0.0244433
0.0245067
0.0245659
0.0246209
0.0246718
0.0247184
0.0247608
0.024799
0.0248329
0.0248627
0.0248882
0.0249094
0.0249264
0.0249392
0.0249478
0.0249521
0.0249521
0.0249479
0.0249395
0.0249269
0.0249101
0.024889
0.0248638
0.0248344
0.0248007
0.024763
0.024721
0.0246749
0.0246247
0.0245704
0.0245119
0.0244494
0.0243829
0.0243122
0.0242376
0.024159
0.0240763
0.0239897
0.0238992
0.0238048
0.0237065
0.0236043
0.0234983
0.0233885
0.0232749
0.0231576
0.0230365
0.0229118
0.0227834
0.0226514
0.0225159
0.0223768
0.0222342
0.0220881
0.0219386
0.0217857
0.0216295
0.02147
0.0213072
0.0211412
0.0209719
0.0207996
0.0206242
0.0204457
0.0202642
0.0200798
0.0198925
0.0197023
0.0195093
0.0193136
0.0191151
0.018914
0.0187103
0.018504
0.0182952
0.0180839
0.0178703
0.0176542
0.0174359
0.0172153
0.0169925
0.0167675
0.0165405
0.0163114
0.0160802
0.0158472
0.0156122
0.0153754
0.0151367
0.0148963
0.0146542
0.0144105
0.0141651
0.0139182
0.0136697
0.0134198
0.0131684
0.0129157
0.0126616
0.0124062
0.0121496
0.0118917
0.0116327
0.0113726
0.0111114
0.0108491
0.0105858
0.0103216
0.0100564
0.0097903
0.00952334
0.00925556
0.00898698
0.00871764
0.00844757
0.00817681
0.00790537
0.0076333
0.00736062
0.00708737
0.00681356
0.00653923
0.00626441
0.00598911
0.00571337
0.00543721
0.00516065
0.00488373
0.00460645
0.00432885
0.00405095
0.00377277
0.00349432
0.00321564
0.00293674
0.00265764
0.00237836
0.00209892
0.00181935
0.00153965
0.00125985
0.000979969
0.000700024
0.000420032
0.000140014
0.000159193
0.000477568
0.000795912
0.0011142
0.00143242
0.00175055
0.00206856
0.00238643
0.00270414
0.00302167
0.003339
0.0036561
0.00397296
0.00428954
0.00460582
0.00492178
0.0052374
0.00555264
0.00586748
0.0061819
0.00649586
0.00680934
0.00712231
0.00743474
0.0077466
0.00805785
0.00836847
0.00867842
0.00898766
0.00929617
0.00960391
0.00991083
0.0102169
0.0105221
0.0108264
0.0111297
0.0114319
0.0117332
0.0120333
0.0123323
0.0126301
0.0129267
0.013222
0.013516
0.0138086
0.0140998
0.0143895
0.0146777
0.0149643
0.0152493
0.0155325
0.0158141
0.0160938
0.0163717
0.0166476
0.0169216
0.0171936
0.0174635
0.0177312
0.0179967
0.01826
0.0185209
0.0187794
0.0190355
0.0192891
0.0195401
0.0197885
0.0200341
0.0202771
0.0205172
0.0207544
0.0209886
0.0212199
0.0214481
0.0216732
0.0218951
0.0221138
0.0223291
0.0225411
0.0227497
0.0229548
0.0231564
0.0233544
0.0235488
0.0237395
0.0239265
0.0241096
0.0242889
0.0244643
0.0246358
0.0248033
0.0249668
0.0251262
0.0252815
0.0254326
0.0255796
0.0257223
0.0258607
0.0259948
0.0261246
0.02625
0.026371
0.0264876
0.0265997
0.0267073
0.0268104
0.026909
0.027003
0.0270924
0.0271772
0.0272574
0.0273329
0.0274038
0.02747
0.0275316
0.0275884
0.0276405
0.027688
0.0277307
0.0277687
0.0278019
0.0278304
0.0278542
0.0278732
0.0278875
0.027897
0.0279018
0.0279018
0.0278972
0.0278878
0.0278736
0.0278548
0.0278312
0.027803
0.02777
0.0277324
0.0276902
0.0276432
0.0275917
0.0275355
0.0274747
0.0274094
0.0273395
0.027265
0.027186
0.0271025
0.0270145
0.0269221
0.0268253
0.026724
0.0266184
0.0265084
0.0263941
0.0262755
0.0261527
0.0260256
0.0258944
0.025759
0.0256195
0.0254759
0.0253283
0.0251767
0.0250211
0.0248616
0.0246982
0.024531
0.02436
0.0241852
0.0240068
0.0238247
0.023639
0.0234497
0.023257
0.0230608
0.0228611
0.0226582
0.0224519
0.0222424
0.0220296
0.0218138
0.0215948
0.0213729
0.0211479
0.0209201
0.0206893
0.0204558
0.0202195
0.0199805
0.0197389
0.0194947
0.019248
0.0189988
0.0187472
0.0184933
0.0182371
0.0179786
0.0177179
0.0174551
0.0171903
0.0169234
0.0166546
0.0163838
0.0161112
0.0158368
0.0155607
0.0152828
0.0150033
0.0147223
0.0144396
0.0141555
0.01387
0.013583
0.0132947
0.0130051
0.0127142
0.0124221
0.0121289
0.0118345
0.011539
0.0112425
0.010945
0.0106465
0.0103471
0.0100468
0.0097457
0.00944375
0.00914103
0.00883756
0.00853338
0.00822853
0.00792303
0.00761692
0.00731022
0.00700298
0.00669521
0.00638694
0.00607821
0.00576904
0.00545946
0.00514949
0.00483915
0.00452848
0.0042175
0.00390623
0.00359469
0.00328291
0.0029709
0.0026587
0.00234633
0.00203379
0.00172113
0.00140835
0.00109548
0.000782534
0.000469541
0.000156517
0.000175989
0.000527955
0.000879887
0.00123176
0.00158356
0.00193525
0.00228681
0.00263822
0.00298946
0.0033405
0.00369132
0.00404189
0.00439218
0.00474218
0.00509184
0.00544116
0.00579009
0.00613861
0.0064867
0.00683431
0.00718143
0.00752802
0.00787404
0.00821947
0.00856427
0.00890841
0.00925185
0.00959455
0.00993647
0.0102776
0.0106179
0.0109572
0.0112957
0.0116331
0.0119696
0.0123049
0.0126392
0.0129723
0.0133042
0.0136348
0.0139642
0.0142922
0.0146187
0.0149438
0.0152674
0.0155895
0.0159099
0.0162286
0.0165455
0.0168607
0.017174
0.0174854
0.0177947
0.0181021
0.0184073
0.0187104
0.0190112
0.0193097
0.0196058
0.0198995
0.0201907
0.0204793
0.0207653
0.0210485
0.021329
0.0216067
0.0218814
0.0221532
0.0224219
0.0226875
0.0229499
0.023209
0.0234649
0.0237173
0.0239663
0.0242118
0.0244537
0.0246919
0.0249265
0.0251572
0.0253841
0.0256071
0.0258262
0.0260412
0.0262522
0.026459
0.0266616
0.02686
0.027054
0.0272437
0.027429
0.0276099
0.0277862
0.027958
0.0281252
0.0282877
0.0284456
0.0285987
0.0287471
0.0288906
0.0290294
0.0291632
0.0292922
0.0294162
0.0295352
0.0296492
0.0297583
0.0298622
0.0299611
0.0300549
0.0301436
0.0302272
0.0303056
0.0303788
0.0304469
0.0305098
0.0305674
0.0306199
0.0306671
0.0307091
0.0307458
0.0307774
0.0308036
0.0308247
0.0308404
0.030851
0.0308562
0.0308563
0.0308511
0.0308407
0.030825
0.0308042
0.0307781
0.0307469
0.0307104
0.0306688
0.030622
0.0305701
0.0305131
0.0304509
0.0303837
0.0303114
0.030234
0.0301516
0.0300642
0.0299719
0.0298745
0.0297723
0.0296652
0.0295531
0.0294363
0.0293146
0.0291882
0.029057
0.0289211
0.0287806
0.0286354
0.0284856
0.0283313
0.0281725
0.0280092
0.0278414
0.0276693
0.0274929
0.0273121
0.0271271
0.026938
0.0267447
0.0265473
0.0263458
0.0261404
0.025931
0.0257178
0.0255007
0.0252799
0.0250554
0.0248272
0.0245954
0.0243601
0.0241213
0.0238791
0.0236336
0.0233848
0.0231327
0.0228775
0.0226192
0.0223578
0.0220935
0.0218262
0.0215561
0.0212832
0.0210076
0.0207293
0.0204484
0.020165
0.0198791
0.0195908
0.0193001
0.0190072