/*--------------------------------*- C++ -*----------------------------------*\
| =========                 |                                                 |
| \\      /  F ield         | OpenFOAM: The Open Source CFD Toolbox           |
|  \\    /   O peration     | Version:  v2012                                 |
|   \\  /    A nd           | Website:  www.openfoam.com                      |
|    \\/     M anipulation  |                                                 |
\*---------------------------------------------------------------------------*/
FoamFile
{
    version     2.0;
    format      ascii;
    class       volScalarField;
    location    "14.8";
    object      Psi_z;
}
// * * * * * * * * * * * * * * * * * * * * * * * * * * * * * * * * * * * * * //

dimensions      [0 2 -1 0 0 0 0];


internalField   nonuniform List<scalar> 
65536
(
8.54591e-06
2.56383e-05
4.27323e-05
5.98286e-05
7.69284e-05
9.40325e-05
0.000111142
0.000128258
0.000145381
0.000162511
0.000179651
0.000196801
0.000213961
0.000231133
0.000248317
0.000265513
0.000282723
0.000299948
0.000317187
0.000334442
0.000351712
0.000368999
0.000386303
0.000403624
0.000420962
0.000438317
0.00045569
0.000473081
0.00049049
0.000507916
0.00052536
0.000542821
0.000560298
0.000577792
0.000595302
0.000612827
0.000630366
0.000647919
0.000665485
0.000683061
0.000700649
0.000718245
0.000735848
0.000753457
0.00077107
0.000788686
0.000806301
0.000823915
0.000841524
0.000859126
0.000876719
0.000894299
0.000911864
0.000929411
0.000946936
0.000964435
0.000981906
0.000999344
0.00101675
0.00103411
0.00105142
0.00106869
0.0010859
0.00110305
0.00112014
0.00113715
0.00115409
0.00117095
0.00118773
0.00120441
0.00122099
0.00123746
0.00125383
0.00127007
0.00128619
0.00130218
0.00131803
0.00133373
0.00134927
0.00136466
0.00137987
0.00139491
0.00140976
0.00142442
0.00143888
0.00145312
0.00146715
0.00148096
0.00149453
0.00150786
0.00152094
0.00153376
0.00154631
0.00155858
0.00157058
0.00158228
0.00159368
0.00160478
0.00161556
0.00162602
0.00163615
0.00164594
0.00165539
0.00166449
0.00167323
0.0016816
0.0016896
0.00169723
0.00170448
0.00171133
0.0017178
0.00172386
0.00172953
0.00173479
0.00173963
0.00174407
0.00174808
0.00175168
0.00175486
0.00175761
0.00175993
0.00176183
0.0017633
0.00176434
0.00176496
0.00176514
0.0017649
0.00176423
0.00176313
0.00176161
0.00175967
0.00175731
0.00175454
0.00175135
0.00174775
0.00174375
0.00173934
0.00173454
0.00172934
0.00172376
0.00171779
0.00171145
0.00170474
0.00169766
0.00169022
0.00168244
0.0016743
0.00166583
0.00165702
0.00164789
0.00163844
0.00162868
0.00161862
0.00160826
0.00159761
0.00158668
0.00157548
0.00156401
0.00155228
0.00154031
0.00152809
0.00151564
0.00150296
0.00149006
0.00147694
0.00146362
0.00145011
0.0014364
0.00142252
0.00140845
0.00139422
0.00137983
0.00136528
0.00135058
0.00133574
0.00132077
0.00130567
0.00129044
0.0012751
0.00125965
0.00124409
0.00122843
0.00121269
0.00119685
0.00118093
0.00116493
0.00114885
0.00113271
0.00111651
0.00110024
0.00108392
0.00106755
0.00105114
0.00103467
0.00101817
0.00100164
0.000985067
0.000968468
0.000951842
0.000935194
0.000918524
0.000901837
0.000885135
0.00086842
0.000851694
0.00083496
0.000818219
0.000801475
0.000784728
0.00076798
0.000751233
0.000734488
0.000717747
0.000701011
0.000684281
0.000667559
0.000650845
0.00063414
0.000617445
0.000600761
0.000584088
0.000567428
0.00055078
0.000534144
0.000517522
0.000500914
0.000484319
0.000467739
0.000451172
0.000434619
0.00041808
0.000401556
0.000385044
0.000368547
0.000352063
0.000335591
0.000319133
0.000302687
0.000286253
0.00026983
0.000253418
0.000237017
0.000220626
0.000204244
0.000187871
0.000171506
0.000155149
0.000138799
0.000122455
0.000106116
8.97823e-05
7.34526e-05
5.71263e-05
4.08027e-05
2.44808e-05
8.16016e-06
2.56375e-05
7.6914e-05
0.000128195
0.000179483
0.000230782
0.000282093
0.000333421
0.000384767
0.000436135
0.000487527
0.000538946
0.000590394
0.000641874
0.000693388
0.000744939
0.000796528
0.000848159
0.000899832
0.000951549
0.00100331
0.00105512
0.00110698
0.0011589
0.00121086
0.00126287
0.00131494
0.00136706
0.00141923
0.00147146
0.00152373
0.00157607
0.00162845
0.00168088
0.00173337
0.0017859
0.00183847
0.00189109
0.00194375
0.00199645
0.00204918
0.00210194
0.00215473
0.00220754
0.00226037
0.00231321
0.00236606
0.00241891
0.00247175
0.00252458
0.00257739
0.00263017
0.00268292
0.00273562
0.00278826
0.00284084
0.00289334
0.00294576
0.00299808
0.00305028
0.00310237
0.00315432
0.00320612
0.00325776
0.00330922
0.00336048
0.00341154
0.00346237
0.00351295
0.00356328
0.00361333
0.00366308
0.00371251
0.00376161
0.00381035
0.00385872
0.00390668
0.00395423
0.00400134
0.00404799
0.00409415
0.0041398
0.00418492
0.00422948
0.00427346
0.00431684
0.00435959
0.00440169
0.00444312
0.00448383
0.00452383
0.00456307
0.00460154
0.0046392
0.00467604
0.00471203
0.00474715
0.00478136
0.00481466
0.00484701
0.0048784
0.00490879
0.00493818
0.00496653
0.00499382
0.00502005
0.00504517
0.00506919
0.00509208
0.00511382
0.00513439
0.00515379
0.005172
0.00518899
0.00520477
0.00521932
0.00523262
0.00524467
0.00525547
0.005265
0.00527325
0.00528023
0.00528592
0.00529033
0.00529346
0.0052953
0.00529585
0.00529512
0.00529311
0.00528982
0.00528526
0.00527944
0.00527236
0.00526403
0.00525446
0.00524366
0.00523164
0.00521842
0.005204
0.00518841
0.00517166
0.00515376
0.00513472
0.00511458
0.00509334
0.00507102
0.00504765
0.00502324
0.00499781
0.00497138
0.00494398
0.00491562
0.00488634
0.00485614
0.00482505
0.0047931
0.00476031
0.00472669
0.00469228
0.0046571
0.00462116
0.0045845
0.00454713
0.00450908
0.00447037
0.00443103
0.00439107
0.00435051
0.00430939
0.00426772
0.00422552
0.00418282
0.00413963
0.00409598
0.00405188
0.00400736
0.00396243
0.00391712
0.00387143
0.0038254
0.00377904
0.00373237
0.00368539
0.00363814
0.00359062
0.00354285
0.00349485
0.00344663
0.0033982
0.00334958
0.00330078
0.00325182
0.0032027
0.00315344
0.00310406
0.00305455
0.00300494
0.00295522
0.00290542
0.00285554
0.0028056
0.00275559
0.00270552
0.00265541
0.00260526
0.00255508
0.00250488
0.00245466
0.00240442
0.00235418
0.00230393
0.00225369
0.00220346
0.00215323
0.00210302
0.00205283
0.00200266
0.00195252
0.00190241
0.00185232
0.00180227
0.00175225
0.00170227
0.00165232
0.00160242
0.00155255
0.00150273
0.00145294
0.0014032
0.0013535
0.00130384
0.00125422
0.00120465
0.00115512
0.00110562
0.00105617
0.00100676
0.000957384
0.000908046
0.000858744
0.000809477
0.000760242
0.00071104
0.000661867
0.000612722
0.000563604
0.00051451
0.000465439
0.000416389
0.000367358
0.000318343
0.000269342
0.000220354
0.000171376
0.000122406
7.34414e-05
2.44801e-05
4.27275e-05
0.000128185
0.00021365
0.000299127
0.000384622
0.000470138
0.000555681
0.000641255
0.000726865
0.000812515
0.00089821
0.000983955
0.00106975
0.00115561
0.00124152
0.0013275
0.00141355
0.00149967
0.00158586
0.00167214
0.00175849
0.00184492
0.00193144
0.00201804
0.00210473
0.0021915
0.00227837
0.00236532
0.00245237
0.0025395
0.00262672
0.00271403
0.00280142
0.00288889
0.00297644
0.00306407
0.00315177
0.00323954
0.00332737
0.00341527
0.00350321
0.0035912
0.00367922
0.00376727
0.00385535
0.00394344
0.00403153
0.00411961
0.00420766
0.00429569
0.00438366
0.00447158
0.00455942
0.00464717
0.00473481
0.00482233
0.0049097
0.00499692
0.00508394
0.00517077
0.00525737
0.00534372
0.0054298
0.00551558
0.00560104
0.00568615
0.00577088
0.00585521
0.00593911
0.00602254
0.00610548
0.00618789
0.00626974
0.006351
0.00643164
0.00651161
0.00659088
0.00666942
0.00674719
0.00682415
0.00690026
0.00697548
0.00704978
0.00712311
0.00719544
0.00726672
0.00733691
0.00740597
0.00747387
0.00754055
0.00760598
0.00767012
0.00773292
0.00779435
0.00785436
0.00791291
0.00796996
0.00802549
0.00807943
0.00813176
0.00818245
0.00823144
0.00827872
0.00832423
0.00836796
0.00840986
0.00844991
0.00848807
0.00852432
0.00855863
0.00859098
0.00862133
0.00864968
0.00867598
0.00870024
0.00872242
0.00874252
0.00876052
0.00877641
0.00879017
0.0088018
0.0088113
0.00881865
0.00882386
0.00882692
0.00882784
0.00882662
0.00882327
0.00881778
0.00881018
0.00880046
0.00878865
0.00877475
0.00875879
0.00874078
0.00872074
0.00869869
0.00867465
0.00864864
0.0086207
0.00859085
0.00855911
0.00852551
0.00849009
0.00845288
0.0084139
0.00837319
0.00833078
0.00828672
0.00824102
0.00819374
0.0081449
0.00809455
0.00804271
0.00798943
0.00793475
0.0078787
0.00782133
0.00776266
0.00770274
0.00764161
0.00757931
0.00751587
0.00745133
0.00738573
0.0073191
0.00725149
0.00718293
0.00711345
0.0070431
0.0069719
0.0068999
0.00682712
0.0067536
0.00667938
0.00660448
0.00652893
0.00645278
0.00637604
0.00629875
0.00622094
0.00614263
0.00606386
0.00598464
0.00590501
0.00582499
0.0057446
0.00566387
0.00558283
0.00550148
0.00541986
0.00533799
0.00525588
0.00517356
0.00509104
0.00500833
0.00492547
0.00484246
0.00475932
0.00467606
0.0045927
0.00450925
0.00442573
0.00434214
0.0042585
0.00417482
0.00409111
0.00400738
0.00392363
0.00383989
0.00375614
0.00367241
0.0035887
0.00350502
0.00342136
0.00333775
0.00325417
0.00317064
0.00308716
0.00300374
0.00292037
0.00283707
0.00275383
0.00267065
0.00258754
0.0025045
0.00242152
0.00233862
0.00225578
0.00217302
0.00209033
0.0020077
0.00192515
0.00184266
0.00176024
0.00167789
0.0015956
0.00151337
0.0014312
0.00134909
0.00126704
0.00118503
0.00110308
0.00102117
0.000939312
0.000857492
0.000775709
0.000693961
0.000612244
0.000530555
0.00044889
0.000367246
0.000285618
0.000204004
0.000122398
4.07989e-05
5.98152e-05
0.000179449
0.000299093
0.000418754
0.00053844
0.000658156
0.000777909
0.000897706
0.00101755
0.00113746
0.00125743
0.00137746
0.00149757
0.00161776
0.00173804
0.00185841
0.00197887
0.00209943
0.0022201
0.00234088
0.00246177
0.00258277
0.00270389
0.00282513
0.00294649
0.00306798
0.00318959
0.00331133
0.00343319
0.00355518
0.00367729
0.00379952
0.00392187
0.00404433
0.00416691
0.0042896
0.00441239
0.00453527
0.00465824
0.0047813
0.00490443
0.00502762
0.00515087
0.00527416
0.00539747
0.00552081
0.00564415
0.00576748
0.00589077
0.00601403
0.00613722
0.00626032
0.00638332
0.00650619
0.00662891
0.00675146
0.00687381
0.00699594
0.00711781
0.00723939
0.00736066
0.00748158
0.00760213
0.00772226
0.00784194
0.00796113
0.0080798
0.0081979
0.0083154
0.00843225
0.00854841
0.00866383
0.00877847
0.00889228
0.00900522
0.00911723
0.00922826
0.00933827
0.00944719
0.00955499
0.0096616
0.00976697
0.00987104
0.00997376
0.0100751
0.0101749
0.0102733
0.01037
0.0104651
0.0105585
0.0106502
0.01074
0.010828
0.0109141
0.0109981
0.0110802
0.0111601
0.0112379
0.0113135
0.0113868
0.0114578
0.0115264
0.0115927
0.0116564
0.0117177
0.0117764
0.0118325
0.011886
0.0119368
0.0119848
0.0120302
0.0120727
0.0121124
0.0121493
0.0121832
0.0122143
0.0122425
0.0122677
0.0122899
0.0123092
0.0123255
0.0123388
0.0123491
0.0123564
0.0123607
0.012362
0.0123603
0.0123556
0.0123479
0.0123372
0.0123236
0.012307
0.0122875
0.0122652
0.0122399
0.0122118
0.0121809
0.0121473
0.0121108
0.0120717
0.0120298
0.0119854
0.0119383
0.0118886
0.0118365
0.0117819
0.0117248
0.0116654
0.0116037
0.0115397
0.0114734
0.011405
0.0113344
0.0112618
0.0111872
0.0111106
0.011032
0.0109517
0.0108695
0.0107855
0.0106999
0.0106126
0.0105238
0.0104333
0.0103414
0.0102481
0.0101534
0.0100574
0.00996006
0.00986152
0.00976179
0.00966094
0.00955901
0.00945603
0.00935207
0.00924717
0.00914136
0.0090347
0.00892723
0.00881899
0.00871001
0.00860034
0.00849002
0.00837908
0.00826756
0.0081555
0.00804292
0.00792987
0.00781637
0.00770246
0.00758817
0.00747352
0.00735854
0.00724326
0.0071277
0.0070119
0.00689586
0.00677963
0.00666321
0.00654663
0.00642991
0.00631306
0.00619611
0.00607907
0.00596196
0.00584479
0.00572758
0.00561035
0.00549309
0.00537583
0.00525858
0.00514135
0.00502415
0.00490698
0.00478986
0.00467279
0.00455577
0.00443883
0.00432195
0.00420516
0.00408844
0.00397181
0.00385527
0.00373882
0.00362246
0.0035062
0.00339003
0.00327397
0.003158
0.00304213
0.00292636
0.00281069
0.00269511
0.00257963
0.00246425
0.00234896
0.00223375
0.00211863
0.0020036
0.00188865
0.00177378
0.00165898
0.00154425
0.00142958
0.00131498
0.00120044
0.00108594
0.000971502
0.000857103
0.000742743
0.000628417
0.00051412
0.000399847
0.000285592
0.00017135
5.71158e-05
7.68992e-05
0.000230702
0.000384519
0.000538357
0.000692227
0.000846136
0.00100009
0.00115411
0.00130819
0.00146234
0.00161657
0.00177089
0.00192531
0.00207983
0.00223447
0.00238922
0.00254409
0.00269909
0.00285423
0.00300951
0.00316493
0.0033205
0.00347622
0.0036321
0.00378814
0.00394433
0.00410069
0.00425721
0.00441389
0.00457073
0.00472773
0.00488489
0.0050422
0.00519966
0.00535727
0.00551502
0.0056729
0.00583091
0.00598903
0.00614726
0.00630558
0.00646399
0.00662247
0.006781
0.00693958
0.00709818
0.00725678
0.00741537
0.00757393
0.00773243
0.00789085
0.00804916
0.00820734
0.00836536
0.00852319
0.00868079
0.00883815
0.00899521
0.00915195
0.00930833
0.0094643
0.00961983
0.00977487
0.00992939
0.0100833
0.0102366
0.0103893
0.0105412
0.0106923
0.0108426
0.0109921
0.0111405
0.011288
0.0114344
0.0115797
0.0117238
0.0118667
0.0120082
0.0121483
0.012287
0.0124242
0.0125597
0.0126937
0.0128258
0.0129562
0.0130847
0.0132112
0.0133357
0.013458
0.0135782
0.0136962
0.0138118
0.013925
0.0140358
0.014144
0.0142495
0.0143524
0.0144525
0.0145498
0.0146441
0.0147355
0.0148238
0.0149091
0.0149911
0.01507
0.0151455
0.0152178
0.0152866
0.0153519
0.0154138
0.0154721
0.0155269
0.015578
0.0156254
0.0156691
0.0157091
0.0157454
0.0157778
0.0158065
0.0158313
0.0158522
0.0158693
0.0158826
0.015892
0.0158975
0.0158991
0.0158969
0.0158908
0.0158809
0.0158672
0.0158496
0.0158283
0.0158032
0.0157744
0.0157419
0.0157058
0.015666
0.0156226
0.0155757
0.0155253
0.0154714
0.0154142
0.0153536
0.0152897
0.0152226
0.0151523
0.0150789
0.0150024
0.0149229
0.0148405
0.0147553
0.0146672
0.0145764
0.0144829
0.0143869
0.0142883
0.0141872
0.0140838
0.0139781
0.01387
0.0137598
0.0136475
0.0135332
0.0134168
0.0132986
0.0131785
0.0130567
0.0129331
0.0128079
0.0126811
0.0125528
0.0124231
0.0122919
0.0121595
0.0120257
0.0118908
0.0117547
0.0116174
0.0114792
0.01134
0.0111998
0.0110587
0.0109168
0.0107741
0.0106307
0.0104865
0.0103417
0.0101963
0.0100503
0.00990383
0.00975683
0.00960937
0.0094615
0.00931323
0.00916462
0.00901569
0.00886646
0.00871698
0.00856726
0.00841734
0.00826723
0.00811697
0.00796658
0.00781607
0.00766548
0.00751481
0.00736409
0.00721333
0.00706256
0.00691178
0.00676101
0.00661026
0.00645956
0.0063089
0.0061583
0.00600777
0.00585731
0.00570694
0.00555667
0.00540649
0.00525642
0.00510646
0.00495662
0.00480689
0.00465728
0.0045078
0.00435845
0.00420922
0.00406012
0.00391114
0.0037623
0.00361358
0.00346498
0.00331651
0.00316816
0.00301993
0.00287182
0.00272382
0.00257592
0.00242813
0.00228044
0.00213285
0.00198535
0.00183793
0.00169059
0.00154333
0.00139613
0.001249
0.00110192
0.000954898
0.000807916
0.000660971
0.000514057
0.000367167
0.000220293
7.343e-05
9.39789e-05
0.000281942
0.000469922
0.000657929
0.000845974
0.00103407
0.00122222
0.00141044
0.00159874
0.00178714
0.00197563
0.00216423
0.00235295
0.00254179
0.00273078
0.0029199
0.00310918
0.00329862
0.00348822
0.00367799
0.00386794
0.00405808
0.0042484
0.00443891
0.00462962
0.00482052
0.00501162
0.00520292
0.00539442
0.00558612
0.00577802
0.00597011
0.00616238
0.00635485
0.00654749
0.00674031
0.00693329
0.00712643
0.00731971
0.00751312
0.00770665
0.00790029
0.00809401
0.00828781
0.00848166
0.00867554
0.00886943
0.00906331
0.00925714
0.00945091
0.00964458
0.00983813
0.0100315
0.0102247
0.0104177
0.0106104
0.0108028
0.0109948
0.0111865
0.0113777
0.0115684
0.0117586
0.0119481
0.0121371
0.0123253
0.0125128
0.0126995
0.0128853
0.0130701
0.0132539
0.0134367
0.0136183
0.0137986
0.0139777
0.0141554
0.0143317
0.0145064
0.0146795
0.0148509
0.0150206
0.0151884
0.0153542
0.015518
0.0156797
0.0158392
0.0159963
0.0161511
0.0163034
0.0164532
0.0166002
0.0167445
0.016886
0.0170245
0.01716
0.0172924
0.0174216
0.0175474
0.0176699
0.0177889
0.0179044
0.0180162
0.0181243
0.0182286
0.0183291
0.0184256
0.018518
0.0186064
0.0186906
0.0187706
0.0188463
0.0189177
0.0189847
0.0190472
0.0191052
0.0191588
0.0192077
0.019252
0.0192917
0.0193268
0.0193571
0.0193828
0.0194037
0.0194199
0.0194314
0.0194381
0.0194401
0.0194374
0.0194299
0.0194178
0.019401
0.0193795
0.0193534
0.0193227
0.0192874
0.0192476
0.0192033
0.0191546
0.0191015
0.0190441
0.0189824
0.0189165
0.0188464
0.0187722
0.018694
0.0186119
0.0185258
0.018436
0.0183424
0.0182451
0.0181443
0.0180399
0.0179321
0.017821
0.0177067
0.0175891
0.0174685
0.0173448
0.0172183
0.0170889
0.0169567
0.0168219
0.0166845
0.0165446
0.0164023
0.0162576
0.0161107
0.0159616
0.0158105
0.0156573
0.0155022
0.0153453
0.0151866
0.0150262
0.0148642
0.0147006
0.0145355
0.014369
0.0142012
0.0140322
0.0138619
0.0136904
0.0135179
0.0133444
0.0131699
0.0129945
0.0128182
0.0126411
0.0124633
0.0122848
0.0121057
0.0119259
0.0117456
0.0115648
0.0113836
0.0112019
0.0110198
0.0108373
0.0106546
0.0104715
0.0102882
0.0101047
0.00992102
0.00973716
0.00955317
0.00936907
0.00918488
0.00900063
0.00881634
0.00863202
0.00844771
0.00826341
0.00807914
0.00789492
0.00771076
0.00752667
0.00734267
0.00715877
0.00697497
0.00679129
0.00660773
0.0064243
0.006241
0.00605785
0.00587484
0.00569199
0.00550928
0.00532673
0.00514434
0.00496211
0.00478003
0.00459811
0.00441634
0.00423473
0.00405327
0.00387196
0.0036908
0.00350977
0.00332889
0.00314814
0.00296751
0.00278701
0.00260663
0.00242636
0.00224619
0.00206613
0.00188615
0.00170626
0.00152644
0.00134669
0.00116701
0.000987378
0.000807792
0.000628244
0.000448725
0.000269227
8.97409e-05
0.000111053
0.000333166
0.000555298
0.000777462
0.000999672
0.00122194
0.00144428
0.0016667
0.00188921
0.00211183
0.00233457
0.00255744
0.00278046
0.00300362
0.00322694
0.00345043
0.00367411
0.00389797
0.00412203
0.0043463
0.00457077
0.00479547
0.00502038
0.00524553
0.0054709
0.00569651
0.00592236
0.00614844
0.00637476
0.00660132
0.00682811
0.00705513
0.00728238
0.00750985
0.00773754
0.00796543
0.00819352
0.0084218
0.00865025
0.00887886
0.00910761
0.00933649
0.00956548
0.00979456
0.0100237
0.0102529
0.0104821
0.0107113
0.0109404
0.0111695
0.0113984
0.0116273
0.0118559
0.0120843
0.0123124
0.0125403
0.0127677
0.0129948
0.0132214
0.0134475
0.013673
0.0138979
0.0141221
0.0143455
0.0145681
0.0147898
0.0150106
0.0152303
0.0154489
0.0156663
0.0158824
0.0160972
0.0163106
0.0165224
0.0167326
0.016941
0.0171477
0.0173525
0.0175553
0.017756
0.0179545
0.0181507
0.0183445
0.0185358
0.0187244
0.0189104
0.0190936
0.0192738
0.0194509
0.019625
0.0197957
0.0199631
0.0201271
0.0202874
0.0204441
0.0205969
0.0207459
0.0208908
0.0210317
0.0211683
0.0213007
0.0214286
0.0215521
0.021671
0.0217852
0.0218946
0.0219992
0.0220989
0.0221935
0.0222831
0.0223676
0.0224469
0.0225209
0.0225896
0.022653
0.0227109
0.0227634
0.0228103
0.0228518
0.0228877
0.0229181
0.0229428
0.022962
0.0229755
0.0229835
0.0229858
0.0229826
0.0229737
0.0229593
0.0229394
0.022914
0.022883
0.0228466
0.0228049
0.0227577
0.0227053
0.0226476
0.0225848
0.0225168
0.0224437
0.0223656
0.0222827
0.0221949
0.0221023
0.022005
0.0219032
0.0217968
0.021686
0.0215709
0.0214515
0.021328
0.0212004
0.0210689
0.0209336
0.0207945
0.0206517
0.0205054
0.0203556
0.0202025
0.0200461
0.0198865
0.0197239
0.0195584
0.01939
0.0192189
0.0190451
0.0188687
0.0186899
0.0185087
0.0183252
0.0181396
0.0179518
0.0177621
0.0175704
0.0173769
0.0171817
0.0169848
0.0167863
0.0165863
0.0163849
0.0161822
0.0159781
0.0157729
0.0155665
0.0153591
0.0151507
0.0149413
0.014731
0.01452
0.0143082
0.0140956
0.0138824
0.0136687
0.0134543
0.0132395
0.0130242
0.0128085
0.0125924
0.012376
0.0121593
0.0119424
0.0117252
0.0115079
0.0112904
0.0110727
0.010855
0.0106372
0.0104194
0.0102015
0.00998363
0.00976578
0.00954797
0.00933023
0.00911255
0.00889496
0.00867748
0.00846012
0.00824288
0.00802578
0.00780883
0.00759203
0.0073754
0.00715894
0.00694265
0.00672654
0.00651061
0.00629487
0.00607931
0.00586394
0.00564876
0.00543376
0.00521895
0.00500433
0.00478988
0.00457561
0.00436152
0.00414759
0.00393383
0.00372023
0.00350677
0.00329347
0.0030803
0.00286727
0.00265436
0.00244157
0.00222889
0.0020163
0.00180381
0.0015914
0.00137907
0.00116679
0.000954575
0.000742401
0.000530262
0.000318147
0.000106048
0.000128121
0.00038437
0.000640642
0.000896951
0.00115331
0.00140974
0.00166625
0.00192286
0.00217957
0.00243641
0.00269339
0.00295052
0.00320781
0.00346528
0.00372293
0.00398079
0.00423885
0.00449713
0.00475564
0.00501439
0.00527339
0.00553263
0.00579214
0.00605191
0.00631195
0.00657226
0.00683285
0.00709372
0.00735486
0.00761627
0.00787796
0.00813993
0.00840215
0.00866464
0.00892738
0.00919036
0.00945357
0.009717
0.00998063
0.0102445
0.0105084
0.0107726
0.0110369
0.0113012
0.0115657
0.0118302
0.0120948
0.0123593
0.0126238
0.0128882
0.0131525
0.0134166
0.0136805
0.0139441
0.0142075
0.0144705
0.0147331
0.0149952
0.0152569
0.0155179
0.0157782
0.0160379
0.0162967
0.0165547
0.0168118
0.0170678
0.0173227
0.0175764
0.0178289
0.0180799
0.0183295
0.0185776
0.018824
0.0190686
0.0193114
0.0195522
0.0197909
0.0200275
0.0202617
0.0204936
0.0207229
0.0209496
0.0211734
0.0213945
0.0216124
0.0218273
0.0220389
0.0222471
0.0224519
0.022653
0.0228503
0.0230437
0.0232332
0.0234185
0.0235995
0.0237762
0.0239483
0.0241159
0.0242786
0.0244366
0.0245896
0.0247374
0.0248801
0.0250175
0.0251495
0.025276
0.0253969
0.0255121
0.0256215
0.0257251
0.0258228
0.0259144
0.026
0.0260794
0.0261526
0.0262195
0.0262802
0.0263345
0.0263824
0.0264239
0.0264589
0.0264875
0.0265097
0.0265253
0.0265345
0.0265372
0.0265334
0.0265231
0.0265064
0.0264834
0.0264539
0.0264181
0.026376
0.0263277
0.0262732
0.0262125
0.0261458
0.0260731
0.0259945
0.02591
0.0258197
0.0257238
0.0256223
0.0255152
0.0254028
0.025285
0.025162
0.0250339
0.0249009
0.0247629
0.0246201
0.0244727
0.0243207
0.0241642
0.0240034
0.0238384
0.0236693
0.0234962
0.0233193
0.0231386
0.0229542
0.0227664
0.0225751
0.0223805
0.0221828
0.021982
0.0217782
0.0215716
0.0213623
0.0211504
0.0209359
0.020719
0.0204999
0.0202785
0.020055
0.0198295
0.0196021
0.0193729
0.0191419
0.0189093
0.0186752
0.0184396
0.0182026
0.0179643
0.0177248
0.0174841
0.0172423
0.0169996
0.0167559
0.0165113
0.0162659
0.0160198
0.015773
0.0155256
0.0152776
0.0150291
0.0147801
0.0145306
0.0142808
0.0140307
0.0137803
0.0135296
0.0132788
0.0130277
0.0127765
0.0125252
0.0122738
0.0120224
0.011771
0.0115195
0.0112681
0.0110168
0.0107655
0.0105143
0.0102632
0.0100122
0.00976134
0.00951065
0.00926013
0.00900978
0.00875961
0.00850963
0.00825985
0.00801028
0.00776091
0.00751175
0.00726281
0.00701409
0.00676559
0.0065173
0.00626924
0.00602138
0.00577374
0.00552631
0.00527909
0.00503207
0.00478525
0.00453861
0.00429216
0.00404589
0.00379979
0.00355384
0.00330806
0.00306241
0.00281691
0.00257153
0.00232626
0.0020811
0.00183604
0.00159106
0.00134616
0.00110131
0.000856524
0.000611775
0.000367053
0.000122349
0.000145181
0.000435551
0.000725947
0.00101639
0.00130688
0.00159746
0.00188813
0.00217891
0.00246981
0.00276085
0.00305206
0.00334343
0.00363499
0.00392675
0.00421873
0.00451093
0.00480337
0.00509606
0.00538901
0.00568224
0.00597574
0.00626954
0.00656363
0.00685802
0.00715272
0.00744774
0.00774307
0.00803871
0.00833468
0.00863096
0.00892755
0.00922445
0.00952166
0.00981917
0.010117
0.010415
0.0107134
0.011012
0.0113108
0.0116099
0.0119091
0.0122086
0.0125081
0.0128078
0.0131077
0.0134075
0.0137074
0.0140073
0.0143072
0.014607
0.0149066
0.0152061
0.0155053
0.0158043
0.0161029
0.0164012
0.016699
0.0169962
0.0172929
0.0175889
0.0178842
0.0181787
0.0184723
0.0187649
0.0190564
0.0193468
0.019636
0.0199238
0.0202102
0.020495
0.0207782
0.0210596
0.0213392
0.0216168
0.0218922
0.0221655
0.0224364
0.0227048
0.0229706
0.0232337
0.023494
0.0237512
0.0240053
0.0242561
0.0245036
0.0247475
0.0249877
0.025224
0.0254564
0.0256847
0.0259087
0.0261283
0.0263434
0.0265538
0.0267593
0.0269599
0.0271554
0.0273456
0.0275305
0.0277098
0.0278835
0.0280514
0.0282135
0.0283695
0.0285194
0.028663
0.0288003
0.0289311
0.0290554
0.029173
0.0292839
0.029388
0.0294851
0.0295753
0.0296584
0.0297345
0.0298033
0.029865
0.0299194
0.0299665
0.0300063
0.0300387
0.0300638
0.0300816
0.0300919
0.030095
0.0300906
0.0300789
0.03006
0.0300337
0.0300002
0.0299595
0.0299117
0.0298567
0.0297948
0.0297259
0.02965
0.0295674
0.0294781
0.0293821
0.0292795
0.0291705
0.0290552
0.0289336
0.0288058
0.0286721
0.0285324
0.0283869
0.0282358
0.0280791
0.0279169
0.0277495
0.0275769
0.0273992
0.0272167
0.0270293
0.0268373
0.0266408
0.0264399
0.0262347
0.0260254
0.0258122
0.025595
0.0253742
0.0251497
0.0249218
0.0246906
0.0244561
0.0242186
0.023978
0.0237347
0.0234886
0.0232399
0.0229887
0.0227351
0.0224792
0.0222212
0.0219612
0.0216991
0.0214353
0.0211697
0.0209024
0.0206336
0.0203633
0.0200916
0.0198186
0.0195444
0.019269
0.0189927
0.0187153
0.018437
0.0181579
0.017878
0.0175974
0.0173162
0.0170344
0.016752
0.0164692
0.016186
0.0159024
0.0156185
0.0153342
0.0150498
0.0147652
0.0144804
0.0141955
0.0139105
0.0136255
0.0133404
0.0130554
0.0127704
0.0124855
0.0122006
0.0119158
0.0116312
0.0113467
0.0110624
0.0107783
0.0104943
0.0102105
0.00992699
0.00964366
0.00936056
0.0090777
0.00879507
0.00851268
0.00823055
0.00794866
0.00766702
0.00738563
0.00710449
0.0068236
0.00654295
0.00626254
0.00598237
0.00570243
0.00542271
0.00514321
0.00486392
0.00458483
0.00430594
0.00402723
0.0037487
0.00347033
0.00319212
0.00291405
0.00263611
0.0023583
0.00208059
0.00180298
0.00152546
0.001248
0.000970607
0.000693258
0.000415942
0.000138645
0.000162232
0.000486707
0.00081121
0.00113576
0.00146038
0.00178509
0.0021099
0.00243483
0.0027599
0.00308514
0.00341055
0.00373615
0.00406197
0.00438801
0.00471429
0.00504083
0.00536764
0.00569473
0.00602211
0.0063498
0.00667781
0.00700614
0.00733481
0.00766383
0.00799318
0.0083229
0.00865296
0.00898339
0.00931418
0.00964532
0.00997682
0.0103087
0.0106409
0.0109734
0.0113063
0.0116395
0.011973
0.0123067
0.0126408
0.0129751
0.0133096
0.0136444
0.0139793
0.0143144
0.0146495
0.0149848
0.0153201
0.0156554
0.0159907
0.0163259
0.016661
0.0169958
0.0173305
0.0176648
0.0179987
0.0183323
0.0186653
0.0189978
0.0193296
0.0196607
0.019991
0.0203204
0.0206488
0.0209761
0.0213023
0.0216272
0.0219507
0.0222727
0.0225931
0.0229118
0.0232286
0.0235435
0.0238564
0.024167
0.0244753
0.0247811
0.0250842
0.0253847
0.0256822
0.0259767
0.026268
0.026556
0.0268404
0.0271212
0.0273983
0.0276713
0.0279402
0.0282049
0.0284651
0.0287207
0.0289716
0.0292175
0.0294583
0.0296939
0.0299241
0.0301488
0.0303677
0.0305807
0.0307878
0.0309886
0.0311832
0.0313713
0.0315528
0.0317276
0.0318955
0.0320564
0.0322102
0.0323567
0.0324959
0.0326277
0.0327519
0.0328685
0.0329773
0.0330783
0.0331714
0.0332566
0.0333337
0.0334027
0.0334637
0.0335164
0.033561
0.0335973
0.0336254
0.0336452
0.0336568
0.0336601
0.0336552
0.0336421
0.0336207
0.0335913
0.0335537
0.033508
0.0334544
0.0333928
0.0333233
0.033246
0.0331611
0.0330684
0.0329683
0.0328607
0.0327458
0.0326236
0.0324943
0.0323581
0.0322149
0.032065
0.0319085
0.0317456
0.0315762
0.0314007
0.031219
0.0310315
0.0308381
0.0306391
0.0304347
0.0302248
0.0300098
0.0297897
0.0295647
0.029335
0.0291006
0.0288618
0.0286187
0.0283715
0.0281202
0.027865
0.0276062
0.0273437
0.0270778
0.0268085
0.0265361
0.0262607
0.0259824
0.0257012
0.0254174
0.0251311
0.0248424
0.0245514
0.0242582
0.023963
0.0236658
0.0233668
0.023066
0.0227636
0.0224597
0.0221543
0.0218476
0.0215396
0.0212304
0.0209202
0.0206089
0.0202968
0.0199837
0.0196699
0.0193554
0.0190402
0.0187245
0.0184082
0.0180915
0.0177744
0.0174569
0.0171391
0.0168211
0.0165028
0.0161844
0.0158659
0.0155473
0.0152286
0.0149099
0.0145912
0.0142726
0.0139541
0.0136356
0.0133173
0.0129991
0.0126811
0.0123633
0.0120457
0.0117283
0.0114111
0.0110942
0.0107775
0.010461
0.0101449
0.00982898
0.00951337
0.00919803
0.00888297
0.0085682
0.00825371
0.0079395
0.00762557
0.00731192
0.00699854
0.00668542
0.00637256
0.00605996
0.0057476
0.00543548
0.00512359
0.00481191
0.00450045
0.00418918
0.00387809
0.00356719
0.00325644
0.00294584
0.00263538
0.00232505
0.00201482
0.00170468
0.00139463
0.00108464
0.000774709
0.000464811
0.000154934
0.000179274
0.000537833
0.000896425
0.00125507
0.00161379
0.00197261
0.00233154
0.00269061
0.00304984
0.00340924
0.00376885
0.00412867
0.00448872
0.00484902
0.0052096
0.00557046
0.00593162
0.00629309
0.0066549
0.00701705
0.00737955
0.00774242
0.00810566
0.00846928
0.00883329
0.0091977
0.0095625
0.00992771
0.0102933
0.0106593
0.0110257
0.0113926
0.0117597
0.0121273
0.0124953
0.0128636
0.0132322
0.0136012
0.0139705
0.0143401
0.0147099
0.01508
0.0154503
0.0158207
0.0161913
0.016562
0.0169328
0.0173036
0.0176743
0.018045
0.0184155
0.0187858
0.0191559
0.0195256
0.019895
0.0202639
0.0206322
0.021
0.021367
0.0217333
0.0220986
0.022463
0.0228264
0.0231885
0.0235494
0.0239088
0.0242668
0.0246231
0.0249777
0.0253303
0.025681
0.0260295
0.0263758
0.0267195
0.0270608
0.0273993
0.0277349
0.0280675
0.0283969
0.0287229
0.0290454
0.0293642
0.0296792
0.0299901
0.0302969
0.0305993
0.0308971
0.0311902
0.0314784
0.0317615
0.0320393
0.0323117
0.0325785
0.0328395
0.0330945
0.0333433
0.0335859
0.0338219
0.0340513
0.0342738
0.0344894
0.0346978
0.0348989
0.0350925
0.0352786
0.0354568
0.0356273
0.0357897
0.0359439
0.0360899
0.0362275
0.0363567
0.0364773
0.0365892
0.0366924
0.0367867
0.0368721
0.0369486
0.0370161
0.0370745
0.0371239
0.0371641
0.0371951
0.0372171
0.0372298
0.0372335
0.037228
0.0372134
0.0371897
0.037157
0.0371152
0.0370646
0.0370051
0.0369367
0.0368597
0.036774
0.0366797
0.036577
0.0364659
0.0363466
0.0362192
0.0360838
0.0359405
0.0357894
0.0356308
0.0354647
0.0352912
0.0351106
0.0349229
0.0347283
0.0345271
0.0343192
0.034105
0.0338845
0.033658
0.0334255
0.0331873
0.0329435
0.0326943
0.0324399
0.0321803
0.0319158
0.0316466
0.0313728
0.0310945
0.030812
0.0305253
0.0302347
0.0299403
0.0296422
0.0293407
0.0290358
0.0287276
0.0284165
0.0281023
0.0277855
0.0274659
0.0271438
0.0268194
0.0264927
0.0261638
0.0258329
0.0255001
0.0251655
0.0248292
0.0244914
0.024152
0.0238113
0.0234693
0.0231261
0.0227818
0.0224365
0.0220902
0.0217431
0.0213952
0.0210467
0.0206975
0.0203477
0.0199974
0.0196467
0.0192956
0.0189442
0.0185925
0.0182406
0.0178885