/*--------------------------------*- C++ -*----------------------------------*\
| =========                 |                                                 |
| \\      /  F ield         | OpenFOAM: The Open Source CFD Toolbox           |
|  \\    /   O peration     | Version:  v2012                                 |
|   \\  /    A nd           | Website:  www.openfoam.com                      |
|    \\/     M anipulation  |                                                 |
\*---------------------------------------------------------------------------*/
FoamFile
{
    version     2.0;
    format      ascii;
    class       surfaceScalarField;
    location    "4.4";
    object      phi;
}
// * * * * * * * * * * * * * * * * * * * * * * * * * * * * * * * * * * * * * //

dimensions      [0 3 -1 0 0 0 0];
oriented        oriented;


internalField   nonuniform List<scalar> 
130560
(
3.59563e-06
-3.59563e-06
7.19107e-06
-3.59545e-06
1.07862e-05
-3.59509e-06
1.43807e-05
-3.59456e-06
1.79746e-05
-3.59385e-06
2.15675e-05
-3.59296e-06
2.51594e-05
-3.59188e-06
2.875e-05
-3.59061e-06
3.23392e-05
-3.58915e-06
3.59267e-05
-3.58748e-06
3.95123e-05
-3.58562e-06
4.30958e-05
-3.58354e-06
4.66771e-05
-3.58125e-06
5.02558e-05
-3.57873e-06
5.38318e-05
-3.57598e-06
5.74048e-05
-3.57299e-06
6.09745e-05
-3.56974e-06
6.45407e-05
-3.56624e-06
6.81032e-05
-3.56247e-06
7.16616e-05
-3.55841e-06
7.52157e-05
-3.55407e-06
7.87651e-05
-3.54942e-06
8.23096e-05
-3.54445e-06
8.58487e-05
-3.53916e-06
8.93822e-05
-3.53352e-06
9.29098e-05
-3.52753e-06
9.64309e-05
-3.52118e-06
9.99454e-05
-3.51443e-06
0.000103453
-3.50729e-06
0.000106952
-3.49974e-06
0.000110444
-3.49176e-06
0.000113928
-3.48333e-06
0.000117402
-3.47445e-06
0.000120867
-3.46509e-06
0.000124322
-3.45523e-06
0.000127767
-3.44487e-06
0.000131201
-3.43398e-06
0.000134624
-3.42255e-06
0.000138034
-3.41056e-06
0.000141432
-3.398e-06
0.000144817
-3.38484e-06
0.000148188
-3.37107e-06
0.000151545
-3.35667e-06
0.000154886
-3.34163e-06
0.000158212
-3.32592e-06
0.000161522
-3.30954e-06
0.000164814
-3.29247e-06
0.000168089
-3.27469e-06
0.000171345
-3.25618e-06
0.000174582
-3.23693e-06
0.000177799
-3.21692e-06
0.000180995
-3.19615e-06
0.00018417
-3.17458e-06
0.000187322
-3.15223e-06
0.000190451
-3.12906e-06
0.000193556
-3.10506e-06
0.000196636
-3.08024e-06
0.000199691
-3.05456e-06
0.000202719
-3.02803e-06
0.00020572
-3.00063e-06
0.000208692
-2.97236e-06
0.000211635
-2.94321e-06
0.000214548
-2.91317e-06
0.000217431
-2.88223e-06
0.000220281
-2.85039e-06
0.000223099
-2.81765e-06
0.000225883
-2.784e-06
0.000228632
-2.74944e-06
0.000231346
-2.71397e-06
0.000234024
-2.67759e-06
0.000236664
-2.6403e-06
0.000239266
-2.60211e-06
0.000241829
-2.56302e-06
0.000244352
-2.52303e-06
0.000246834
-2.48216e-06
0.000249275
-2.4404e-06
0.000251672
-2.39776e-06
0.000254027
-2.35427e-06
0.000256337
-2.30992e-06
0.000258601
-2.26473e-06
0.00026082
-2.21872e-06
0.000262992
-2.1719e-06
0.000265116
-2.12428e-06
0.000267192
-2.07589e-06
0.000269219
-2.02674e-06
0.000271196
-1.97685e-06
0.000273122
-1.92624e-06
0.000274997
-1.87493e-06
0.00027682
-1.82296e-06
0.00027859
-1.77033e-06
0.000280307
-1.71708e-06
0.00028197
-1.66323e-06
0.000283579
-1.6088e-06
0.000285133
-1.55384e-06
0.000286631
-1.49835e-06
0.000288074
-1.44238e-06
0.00028946
-1.38595e-06
0.000290789
-1.32909e-06
0.000292061
-1.27183e-06
0.000293275
-1.21421e-06
0.000294431
-1.15625e-06
0.000295529
-1.09799e-06
0.000296569
-1.03946e-06
0.000297549
-9.80686e-07
0.000298471
-9.21708e-07
0.000299334
-8.62555e-07
0.000300137
-8.03262e-07
0.000300881
-7.4386e-07
0.000301565
-6.84381e-07
0.00030219
-6.24857e-07
0.000302755
-5.65322e-07
0.000303261
-5.05806e-07
0.000303707
-4.4634e-07
0.000304094
-3.86956e-07
0.000304422
-3.27684e-07
0.000304691
-2.68554e-07
0.0003049
-2.09595e-07
0.000305051
-1.50837e-07
0.000305143
-9.23073e-08
0.000305177
-3.40335e-08
0.000305153
2.39576e-08
0.000305072
8.16399e-08
0.000304933
1.38988e-07
0.000304737
1.95978e-07
0.000304484
2.52586e-07
0.000304175
3.08789e-07
0.000303811
3.64565e-07
0.000303391
4.19894e-07
0.000302916
4.74755e-07
0.000302387
5.2913e-07
0.000301804
5.82999e-07
0.000301168
6.36346e-07
0.000300479
6.89155e-07
0.000299737
7.41409e-07
0.000298944
7.93095e-07
0.0002981
8.44199e-07
0.000297205
8.94708e-07
0.000296261
9.44611e-07
0.000295267
9.93896e-07
0.000294224
1.04255e-06
0.000293134
1.09057e-06
0.000291996
1.13795e-06
0.000290811
1.18467e-06
0.00028958
1.23074e-06
0.000288304
1.27614e-06
0.000286983
1.32087e-06
0.000285618
1.36492e-06
0.00028421
1.4083e-06
0.000282759
1.45099e-06
0.000281266
1.49301e-06
0.000279732
1.53433e-06
0.000278157
1.57497e-06
0.000276542
1.61492e-06
0.000274888
1.65419e-06
0.000273195
1.69277e-06
0.000271464
1.73066e-06
0.000269696
1.76787e-06
0.000267892
1.8044e-06
0.000266052
1.84024e-06
0.000264176
1.87542e-06
0.000262266
1.90991e-06
0.000260323
1.94374e-06
0.000258346
1.9769e-06
0.000256336
2.0094e-06
0.000254295
2.04124e-06
0.000252223
2.07243e-06
0.00025012
2.10297e-06
0.000247987
2.13287e-06
0.000245825
2.16214e-06
0.000243634
2.19077e-06
0.000241415
2.21877e-06
0.000239169
2.24616e-06
0.000236896
2.27294e-06
0.000234597
2.2991e-06
0.000232272
2.32467e-06
0.000229923
2.34965e-06
0.000227548
2.37404e-06
0.000225151
2.39785e-06
0.00022273
2.42109e-06
0.000220286
2.44376e-06
0.00021782
2.46587e-06
0.000215332
2.48744e-06
0.000212824
2.50846e-06
0.000210295
2.52894e-06
0.000207746
2.5489e-06
0.000205178
2.56833e-06
0.000202591
2.58726e-06
0.000199985
2.60567e-06
0.000197361
2.62359e-06
0.00019472
2.64102e-06
0.000192062
2.65796e-06
0.000189388
2.67443e-06
0.000186697
2.69043e-06
0.000183992
2.70598e-06
0.00018127
2.72107e-06
0.000178535
2.73571e-06
0.000175785
2.74992e-06
0.000173021
2.76371e-06
0.000170244
2.77707e-06
0.000167454
2.79002e-06
0.000164651
2.80256e-06
0.000161837
2.81471e-06
0.00015901
2.82646e-06
0.000156172
2.83784e-06
0.000153324
2.84884e-06
0.000150464
2.85947e-06
0.000147594
2.86975e-06
0.000144715
2.87967e-06
0.000141825
2.88925e-06
0.000138927
2.8985e-06
0.00013602
2.90742e-06
0.000133104
2.91601e-06
0.000130179
2.92429e-06
0.000127247
2.93227e-06
0.000124307
2.93994e-06
0.00012136
2.94733e-06
0.000118405
2.95443e-06
0.000115444
2.96125e-06
0.000112476
2.9678e-06
0.000109502
2.97409e-06
0.000106522
2.98012e-06
0.000103536
2.98589e-06
0.000100545
2.99143e-06
9.7548e-05
2.99672e-06
9.45462e-05
3.00179e-06
9.15396e-05
3.00663e-06
8.85283e-05
3.01125e-06
8.55127e-05
3.01565e-06
8.24928e-05
3.01985e-06
7.9469e-05
3.02385e-06
7.64413e-05
3.02765e-06
7.34101e-05
3.03125e-06
7.03754e-05
3.03468e-06
6.73375e-05
3.03792e-06
6.42965e-05
3.04098e-06
6.12526e-05
3.04387e-06
5.8206e-05
3.0466e-06
5.51569e-05
3.04916e-06
5.21053e-05
3.05156e-06
4.90515e-05
3.0538e-06
4.59956e-05
3.0559e-06
4.29378e-05
3.05784e-06
3.98781e-05
3.05965e-06
3.68168e-05
3.06131e-06
3.3754e-05
3.06283e-06
3.06898e-05
3.06421e-06
2.76243e-05
3.06546e-06
2.45577e-05
3.06658e-06
2.14902e-05
3.06757e-06
1.84217e-05
3.06843e-06
1.53526e-05
3.06917e-06
1.22828e-05
3.06978e-06
9.2125e-06
3.07027e-06
6.14187e-06
3.07063e-06
3.07099e-06
3.07087e-06
3.07099e-06
3.59579e-06
-7.19142e-06
7.19141e-06
-7.19107e-06
1.07867e-05
-7.19036e-06
1.43814e-05
-7.1893e-06
1.79754e-05
-7.18788e-06
2.15686e-05
-7.1861e-06
2.51606e-05
-7.18394e-06
2.87514e-05
-7.18141e-06
3.23408e-05
-7.17849e-06
3.59285e-05
-7.17517e-06
3.95143e-05
-7.17144e-06
4.3098e-05
-7.1673e-06
4.66795e-05
-7.16272e-06
5.02585e-05
-7.15769e-06
5.38347e-05
-7.15219e-06
5.74079e-05
-7.14622e-06
6.09779e-05
-7.13974e-06
6.45444e-05
-7.13274e-06
6.81072e-05
-7.12521e-06
7.16659e-05
-7.11711e-06
7.52202e-05
-7.10843e-06
7.877e-05
-7.09915e-06
8.23147e-05
-7.08923e-06
8.58542e-05
-7.07866e-06
8.93881e-05
-7.0674e-06
9.2916e-05
-7.05543e-06
9.64376e-05
-7.04273e-06
9.99524e-05
-7.02926e-06
0.00010346
-7.015e-06
0.00010696
-6.99991e-06
0.000110452
-6.98396e-06
0.000113936
-6.96712e-06
0.000117411
-6.94937e-06
0.000120877
-6.93066e-06
0.000124332
-6.91097e-06
0.000127778
-6.89027e-06
0.000131212
-6.86851e-06
0.000134636
-6.84566e-06
0.000138047
-6.8217e-06
0.000141445
-6.79658e-06
0.000144831
-6.77028e-06
0.000148202
-6.74275e-06
0.00015156
-6.71398e-06
0.000154902
-6.68391e-06
0.000158229
-6.65252e-06
0.000161539
-6.61978e-06
0.000164832
-6.58564e-06
0.000168107
-6.55009e-06
0.000171364
-6.51309e-06
0.000174602
-6.47461e-06
0.00017782
-6.43461e-06
0.000181017
-6.39307e-06
0.000184192
-6.34996e-06
0.000187345
-6.30526e-06
0.000190475
-6.25893e-06
0.000193581
-6.21096e-06
0.000196662
-6.16132e-06
0.000199717
-6.10998e-06
0.000202746
-6.05693e-06
0.000205748
-6.00214e-06
0.000208721
-5.94561e-06
0.000211665
-5.88731e-06
0.000214579
-5.82723e-06
0.000217462
-5.76536e-06
0.000220313
-5.70168e-06
0.000223132
-5.6362e-06
0.000225917
-5.5689e-06
0.000228667
-5.49978e-06
0.000231382
-5.42885e-06
0.000234061
-5.35609e-06
0.000236702
-5.28151e-06
0.000239305
-5.20513e-06
0.000241869
-5.12694e-06
0.000244393
-5.04696e-06
0.000246876
-4.96519e-06
0.000249317
-4.88167e-06
0.000251716
-4.79639e-06
0.000254071
-4.70939e-06
0.000256382
-4.62068e-06
0.000258647
-4.53029e-06
0.000260867
-4.43826e-06
0.000263039
-4.34459e-06
0.000265164
-4.24934e-06
0.000267241
-4.15254e-06
0.000269269
-4.05421e-06
0.000271246
-3.95441e-06
0.000273173
-3.85317e-06
0.000275049
-3.75054e-06
0.000276872
-3.64656e-06
0.000278643
-3.54128e-06
0.000280361
-3.43475e-06
0.000282025
-3.32703e-06
0.000283634
-3.21815e-06
0.000285188
-3.10819e-06
0.000286687
-2.99719e-06
0.00028813
-2.88522e-06
0.000289516
-2.77233e-06
0.000290846
-2.65858e-06
0.000292118
-2.54403e-06
0.000293333
-2.42876e-06
0.000294489
-2.31281e-06
0.000295587
-2.19625e-06
0.000296627
-2.07916e-06
0.000297608
-1.96158e-06
0.00029853
-1.84359e-06
0.000299393
-1.72525e-06
0.000300196
-1.60664e-06
0.00030094
-1.4878e-06
0.000301624
-1.36881e-06
0.000302249
-1.24973e-06
0.000302815
-1.13063e-06
0.00030332
-1.01156e-06
0.000303767
-8.92601e-07
0.000304153
-7.73802e-07
0.000304481
-6.55228e-07
0.000304749
-5.36939e-07
0.000304959
-4.18993e-07
0.000305109
-3.01449e-07
0.000305201
-1.84362e-07
0.000305235
-6.77873e-08
0.000305211
4.82208e-08
0.000305129
1.63611e-07
0.00030499
2.78331e-07
0.000304793
3.92335e-07
0.00030454
5.05573e-07
0.000304231
6.18001e-07
0.000303866
7.29575e-07
0.000303446
8.40252e-07
0.00030297
9.49994e-07
0.000302441
1.05876e-06
0.000301857
1.16652e-06
0.00030122
1.27323e-06
0.000300531
1.37886e-06
0.000299789
1.48338e-06
0.000298995
1.58677e-06
0.00029815
1.68899e-06
0.000297255
1.79002e-06
0.00029631
1.88983e-06
0.000295315
1.98841e-06
0.000294272
2.08574e-06
0.000293181
2.18179e-06
0.000292042
2.27655e-06
0.000290857
2.37e-06
0.000289625
2.46214e-06
0.000288349
2.55294e-06
0.000287027
2.64241e-06
0.000285662
2.73052e-06
0.000284253
2.81727e-06
0.000282801
2.90267e-06
0.000281307
2.98669e-06
0.000279772
3.06935e-06
0.000278197
3.15062e-06
0.000276581
3.23053e-06
0.000274926
3.30906e-06
0.000273233
3.38622e-06
0.000271501
3.462e-06
0.000269733
3.53642e-06
0.000267928
3.60947e-06
0.000266087
3.68116e-06
0.000264211
3.7515e-06
0.0002623
3.82049e-06
0.000260356
3.88814e-06
0.000258378
3.95446e-06
0.000256368
4.01945e-06
0.000254326
4.08313e-06
0.000252253
4.14551e-06
0.000250149
4.20659e-06
0.000248016
4.26638e-06
0.000245853
4.3249e-06
0.000243662
4.38216e-06
0.000241442
4.43816e-06
0.000239196
4.49293e-06
0.000236922
4.54647e-06
0.000234622
4.59881e-06
0.000232297
4.64994e-06
0.000229947
4.69988e-06
0.000227572
4.74865e-06
0.000225174
4.79627e-06
0.000222752
4.84274e-06
0.000220308
4.88807e-06
0.000217842
4.9323e-06
0.000215354
4.97542e-06
0.000212845
5.01745e-06
0.000210315
5.05841e-06
0.000207766
5.09832e-06
0.000205197
5.13718e-06
0.000202609
5.17502e-06
0.000200003
5.21184e-06
0.000197379
5.24767e-06
0.000194737
5.28252e-06
0.000192079
5.3164e-06
0.000189404
5.34933e-06
0.000186713
5.38132e-06
0.000184007
5.4124e-06
0.000181285
5.44258e-06
0.000178549
5.47186e-06
0.000175799
5.50027e-06
0.000173035
5.52783e-06
0.000170257
5.55455e-06
0.000167467
5.58043e-06
0.000164664
5.60551e-06
0.000161849
5.6298e-06
0.000159022
5.65331e-06
0.000156184
5.67605e-06
0.000153334
5.69804e-06
0.000150474
5.7193e-06
0.000147604
5.73985e-06
0.000144724
5.75969e-06
0.000141835
5.77884e-06
0.000138936
5.79733e-06
0.000136028
5.81515e-06
0.000133112
5.83234e-06
0.000130187
5.84889e-06
0.000127255
5.86484e-06
0.000124314
5.88018e-06
0.000121367
5.89494e-06
0.000118412
5.90914e-06
0.000115451
5.92277e-06
0.000112483
5.93587e-06
0.000109508
5.94843e-06
0.000106528
5.96048e-06
0.000103542
5.97203e-06
0.00010055
5.98309e-06
9.75531e-05
5.99368e-06
9.45511e-05
6.0038e-06
9.15442e-05
6.01348e-06
8.85328e-05
6.02271e-06
8.55169e-05
6.03152e-06
8.24969e-05
6.03991e-06
7.94728e-05
6.04789e-06
7.6445e-05
6.05549e-06
7.34135e-05
6.0627e-06
7.03787e-05
6.06954e-06
6.73406e-05
6.07601e-06
6.42994e-05
6.08213e-06
6.12554e-05
6.08791e-06
5.82086e-05
6.09336e-06
5.51593e-05
6.09847e-06
5.21076e-05
6.10327e-06
4.90536e-05
6.10776e-06
4.59976e-05
6.11195e-06
4.29396e-05
6.11584e-06
3.98798e-05
6.11944e-06
3.68184e-05
6.12275e-06
3.37554e-05
6.12579e-06
3.0691e-05
6.12856e-06
2.76254e-05
6.13106e-06
2.45587e-05
6.13329e-06
2.1491e-05
6.13527e-06
1.84225e-05
6.137e-06
1.53532e-05
6.13847e-06
1.22833e-05
6.13969e-06
9.21287e-06
6.14066e-06
6.14211e-06
6.14139e-06
3.07112e-06
6.14187e-06
6.14211e-06
3.59615e-06
-1.07876e-05
7.19212e-06
-1.0787e-05
1.07877e-05
-1.0786e-05
1.43828e-05
-1.07844e-05
1.79772e-05
-1.07823e-05
2.15708e-05
-1.07796e-05
2.51632e-05
-1.07764e-05
2.87544e-05
-1.07726e-05
3.23441e-05
-1.07682e-05
3.59322e-05
-1.07633e-05
3.95185e-05
-1.07577e-05
4.31027e-05
-1.07515e-05
4.66846e-05
-1.07446e-05
5.0264e-05
-1.07371e-05
5.38407e-05
-1.07289e-05
5.74144e-05
-1.072e-05
6.0985e-05
-1.07103e-05
6.4552e-05
-1.06998e-05
6.81153e-05
-1.06885e-05
7.16746e-05
-1.06764e-05
7.52296e-05
-1.06634e-05
7.87799e-05
-1.06495e-05
8.23254e-05
-1.06347e-05
8.58656e-05
-1.06188e-05
8.94001e-05
-1.0602e-05
9.29288e-05
-1.05841e-05
9.64511e-05
-1.05651e-05
9.99667e-05
-1.05449e-05
0.000103475
-1.05235e-05
0.000106976
-1.05009e-05
0.000110469
-1.0477e-05
0.000113954
-1.04518e-05
0.00011743
-1.04252e-05
0.000120897
-1.03972e-05
0.000124353
-1.03677e-05
0.0001278
-1.03367e-05
0.000131235
-1.03041e-05
0.00013466
-1.02699e-05
0.000138072
-1.0234e-05
0.000141472
-1.01964e-05
0.000144858
-1.01569e-05
0.000148231
-1.01157e-05
0.00015159
-1.00726e-05
0.000154933
-1.00275e-05
0.000158261
-9.98047e-06
0.000161573
-9.9314e-06
0.000164868
-9.88024e-06
0.000168144
-9.82695e-06
0.000171403
-9.77149e-06
0.000174642
-9.7138e-06
0.000177861
-9.65384e-06
0.00018106
-9.59157e-06
0.000184237
-9.52694e-06
0.000187391
-9.45992e-06
0.000190523
-9.39046e-06
0.000193631
-9.31853e-06
0.000196713
-9.24409e-06
0.00019977
-9.16711e-06
0.000202801
-9.08756e-06
0.000205804
-9.0054e-06
0.000208779
-8.92062e-06
0.000211725
-8.83318e-06
0.000214641
-8.74308e-06
0.000217526
-8.65028e-06
0.000220379
-8.55478e-06
0.000223199
-8.45657e-06
0.000225986
-8.35563e-06
0.000228738
-8.25195e-06
0.000231455
-8.14554e-06
0.000234135
-8.0364e-06
0.000236778
-7.92453e-06
0.000239383
-7.80995e-06
0.000241949
-7.69265e-06
0.000244475
-7.57266e-06
0.000246959
-7.45e-06
0.000249402
-7.32468e-06
0.000251803
-7.19675e-06
0.00025416
-7.06621e-06
0.000256472
-6.93312e-06
0.000258739
-6.79751e-06
0.00026096
-6.65941e-06
0.000263135
-6.51888e-06
0.000265261
-6.37596e-06
0.00026734
-6.2307e-06
0.000269368
-6.08317e-06
0.000271347
-5.93341e-06
0.000273276
-5.7815e-06
0.000275153
-5.6275e-06
0.000276978
-5.47147e-06
0.00027875
-5.31349e-06
0.000280469
-5.15363e-06
0.000282134
-4.99197e-06
0.000283744
-4.82859e-06
0.000285299
-4.66358e-06
0.000286799
-4.49701e-06
0.000288243
-4.32897e-06
0.00028963
-4.15956e-06
0.000290961
-3.98886e-06
0.000292234
-3.81697e-06
0.000293449
-3.64397e-06
0.000294606
-3.46997e-06
0.000295705
-3.29506e-06
0.000296745
-3.11933e-06
0.000297726
-2.94289e-06
0.000298648
-2.76582e-06
0.000299511
-2.58824e-06
0.000300315
-2.41023e-06
0.000301059
-2.23189e-06
0.000301744
-2.05332e-06
0.000302368
-1.87463e-06
0.000302934
-1.69589e-06
0.000303439
-1.51722e-06
0.000303886
-1.3387e-06
0.000304272
-1.16042e-06
0.000304599
-9.82487e-07
0.000304867
-8.04979e-07
0.000305076
-6.27989e-07
0.000305227
-4.51601e-07
0.000305318
-2.75902e-07
0.000305351
-1.00974e-07
0.000305326
7.31037e-08
0.000305244
2.46251e-07
0.000305104
4.18394e-07
0.000304907
5.89458e-07
0.000304653
7.59372e-07
0.000304343
9.28069e-07
0.000303977
1.09548e-06
0.000303556
1.26155e-06
0.000303079
1.42621e-06
0.000302549
1.5894e-06
0.000301964
1.75108e-06
0.000301326
1.91119e-06
0.000300635
2.06968e-06
0.000299892
2.2265e-06
0.000299097
2.38161e-06
0.000298251
2.53497e-06
0.000297355
2.68655e-06
0.000296408
2.8363e-06
0.000295413
2.98419e-06
0.000294368
3.1302e-06
0.000293276
3.2743e-06
0.000292136
3.41645e-06
0.000290949
3.55665e-06
0.000289716
3.69487e-06
0.000288438
3.83109e-06
0.000287115
3.96529e-06
0.000285748
4.09747e-06
0.000284338
4.22762e-06
0.000282885
4.35571e-06
0.00028139
4.48175e-06
0.000279854
4.60573e-06
0.000278277
4.72766e-06
0.00027666
4.84751e-06
0.000275003
4.96531e-06
0.000273308
5.08104e-06
0.000271576
5.19471e-06
0.000269806
5.30633e-06
0.000267999
5.4159e-06
0.000266157
5.52344e-06
0.00026428
5.62894e-06
0.000262368
5.73241e-06
0.000260422
5.83388e-06
0.000258443
5.93335e-06
0.000256432
6.03083e-06
0.000254389
6.12633e-06
0.000252314
6.21988e-06
0.000250209
6.31148e-06
0.000248075
6.40116e-06
0.00024591
6.48893e-06
0.000243718
6.5748e-06
0.000241497
6.65879e-06
0.000239249
6.74093e-06
0.000236974
6.82123e-06
0.000234674
6.89971e-06
0.000232347
6.97639e-06
0.000229996
7.05129e-06
0.00022762
7.12443e-06
0.00022522
7.19583e-06
0.000222798
7.26552e-06
0.000220352
7.33351e-06
0.000217885
7.39982e-06
0.000215396
7.46448e-06
0.000212886
7.52752e-06
0.000210355
7.58894e-06
0.000207805
7.64878e-06
0.000205235
7.70705e-06
0.000202646
7.76379e-06
0.000200039
7.81901e-06
0.000197414
7.87273e-06
0.000194771
7.92498e-06
0.000192112
7.97578e-06
0.000189436
8.02516e-06
0.000186744
8.07314e-06
0.000184037
8.11973e-06
0.000181314
8.16497e-06
0.000178577
8.20888e-06
0.000175826
8.25148e-06
0.000173061
8.2928e-06
0.000170283
8.33285e-06
0.000167492
8.37167e-06
0.000164688
8.40927e-06
0.000161872
8.44567e-06
0.000159044
8.48091e-06
0.000156205
8.51501e-06
0.000153356
8.54798e-06
0.000150495
8.57985e-06
0.000147624
8.61065e-06
0.000144744
8.64039e-06
0.000141853
8.66911e-06
0.000138954
8.69681e-06
0.000136045
8.72353e-06
0.000133128
8.74929e-06
0.000130203
8.7741e-06
0.00012727
8.798e-06
0.000124329
8.821e-06
0.000121381
8.84313e-06
0.000118426
8.8644e-06
0.000115464
8.88483e-06
0.000112495
8.90446e-06
0.00010952
8.92329e-06
0.000106539
8.94135e-06
0.000103553
8.95866e-06
0.000100561
8.97524e-06
9.75632e-05
8.9911e-06
9.45607e-05
9.00627e-06
9.15535e-05
9.02076e-06
8.85416e-05
9.0346e-06
8.55253e-05
9.04779e-06
8.25048e-05
9.06037e-06
7.94804e-05
9.07233e-06
7.64522e-05
9.08371e-06
7.34204e-05
9.09451e-06
7.03851e-05
9.10476e-06
6.73467e-05
9.11446e-06
6.43052e-05
9.12363e-06
6.12608e-05
9.13229e-06
5.82137e-05
9.14044e-06
5.51641e-05
9.14811e-06
5.21121e-05
9.1553e-06
4.90578e-05
9.16202e-06
4.60015e-05
9.16829e-06
4.29432e-05
9.17412e-06
3.98831e-05
9.17951e-06
3.68214e-05
9.18448e-06
3.37581e-05
9.18903e-06
3.06935e-05
9.19317e-06
2.76277e-05
9.19692e-06
2.45607e-05
9.20027e-06
2.14927e-05
9.20323e-06
1.84239e-05
9.20581e-06
1.53544e-05
9.20801e-06
1.22842e-05
9.20984e-06
9.2136e-06
9.2113e-06
6.1426e-06
9.21239e-06
3.07136e-06
9.21311e-06
9.21347e-06
3.59668e-06
-1.43842e-05
7.19319e-06
-1.43835e-05
1.07893e-05
-1.43821e-05
1.4385e-05
-1.438e-05
1.79799e-05
-1.43772e-05
2.1574e-05
-1.43737e-05
2.5167e-05
-1.43694e-05
2.87588e-05
-1.43644e-05
3.23491e-05
-1.43586e-05
3.59378e-05
-1.4352e-05
3.95247e-05
-1.43446e-05
4.31096e-05
-1.43363e-05
4.66922e-05
-1.43272e-05
5.02723e-05
-1.43172e-05
5.38497e-05
-1.43063e-05
5.74242e-05
-1.42944e-05
6.09955e-05
-1.42816e-05
6.45634e-05
-1.42677e-05
6.81275e-05
-1.42527e-05
7.16877e-05
-1.42366e-05
7.52436e-05
-1.42193e-05
7.87949e-05
-1.42008e-05
8.23413e-05
-1.41811e-05
8.58825e-05
-1.416e-05
8.94181e-05
-1.41376e-05
9.29479e-05
-1.41138e-05
9.64714e-05
-1.40885e-05
9.99882e-05
-1.40617e-05
0.000103498
-1.40333e-05
0.000107
-1.40032e-05
0.000110495
-1.39715e-05
0.000113981
-1.39379e-05
0.000117458
-1.39026e-05
0.000120926
-1.38653e-05
0.000124384
-1.3826e-05
0.000127832
-1.37847e-05
0.00013127
-1.37414e-05
0.000134696
-1.36958e-05
0.00013811
-1.3648e-05
0.000141511
-1.35979e-05
0.0001449
-1.35454e-05
0.000148275
-1.34905e-05
0.000151635
-1.34331e-05
0.000154981
-1.33731e-05
0.000158311
-1.33105e-05
0.000161624
-1.32451e-05
0.000164921
-1.3177e-05
0.0001682
-1.3106e-05
0.000171461
-1.30321e-05
0.000174702
-1.29553e-05
0.000177924
-1.28754e-05
0.000181125
-1.27924e-05
0.000184304
-1.27063e-05
0.000187461
-1.2617e-05
0.000190595
-1.25245e-05
0.000193705
-1.24286e-05
0.00019679
-1.23294e-05
0.00019985
-1.22268e-05
0.000202883
-1.21208e-05
0.000205889
-1.20113e-05
0.000208867
-1.18983e-05
0.000211816
-1.17817e-05
0.000214734
-1.16616e-05
0.000217622
-1.15379e-05
0.000220478
-1.14106e-05
0.000223301
-1.12797e-05
0.00022609
-1.11451e-05
0.000228845
-1.10069e-05
0.000231564
-1.0865e-05
0.000234247
-1.07194e-05
0.000236893
-1.05703e-05
0.000239501
-1.04175e-05
0.000242069
-1.02611e-05
0.000244597
-1.0101e-05
0.000247085
-9.93745e-06
0.000249531
-9.77033e-06
0.000251934
-9.5997e-06
0.000254293
-9.4256e-06
0.000256608
-9.24808e-06
0.000258878
-9.0672e-06
0.000261101
-8.883e-06
0.000263278
-8.69555e-06
0.000265407
-8.50491e-06
0.000267487
-8.31115e-06
0.000269518
-8.11435e-06
0.0002715
-7.91457e-06
0.00027343
-7.71192e-06
0.000275309
-7.50647e-06
0.000277136
-7.29832e-06
0.00027891
-7.08757e-06
0.000280631
-6.8743e-06
0.000282297
-6.65863e-06
0.000283909
-6.44067e-06
0.000285466
-6.22052e-06
0.000286968
-5.99829e-06
0.000288413
-5.7741e-06
0.000289801
-5.54808e-06
0.000291133
-5.32034e-06
0.000292407
-5.091e-06
0.000293623
-4.86019e-06
0.000294781
-4.62804e-06
0.000295881
-4.39468e-06
0.000296922
-4.16022e-06
0.000297903
-3.92481e-06
0.000298826
-3.68857e-06
0.00029969
-3.45164e-06
0.000300494
-3.21414e-06
0.000301238
-2.97621e-06
0.000301922
-2.73797e-06
0.000302547
-2.49956e-06
0.000303113
-2.2611e-06
0.000303618
-2.02272e-06
0.000304064
-1.78454e-06
0.00030445
-1.5467e-06
0.000304777
-1.30932e-06
0.000305045
-1.0725e-06
0.000305253
-8.36379e-07
0.000305402
-6.01064e-07
0.000305493
-3.6667e-07
0.000305526
-1.33306e-07
0.0003055
9.89182e-08
0.000305416
3.299e-07
0.000305275
5.59537e-07
0.000305077
7.87733e-07
0.000304822
1.01439e-06
0.00030451
1.23942e-06
0.000304143
1.46274e-06
0.00030372
1.68425e-06
0.000303243
1.90389e-06
0.00030271
2.12157e-06
0.000302124
2.33722e-06
0.000301485
2.55077e-06
0.000300792
2.76216e-06
0.000300047
2.97132e-06
0.000299251
3.1782e-06
0.000298403
3.38274e-06
0.000297505
3.5849e-06
0.000296556
3.78462e-06
0.000295559
3.98186e-06
0.000294512
4.17658e-06
0.000293418
4.36875e-06
0.000292276
4.55832e-06
0.000291087
4.74529e-06
0.000289853
4.9296e-06
0.000288573
5.11125e-06
0.000287248
5.29021e-06
0.000285879
5.46647e-06
0.000284466
5.64001e-06
0.000283011
5.81081e-06
0.000281514
5.97887e-06
0.000279976
6.14419e-06
0.000278396
6.30675e-06
0.000276777
6.46656e-06
0.000275119
6.62362e-06
0.000273422
6.77792e-06
0.000271687
6.92948e-06
0.000269915
7.0783e-06
0.000268107
7.22438e-06
0.000266263
7.36774e-06
0.000264383
7.5084e-06
0.000262469
7.64635e-06
0.000260522
7.78162e-06
0.000258541
7.91422e-06
0.000256527
8.04417e-06
0.000254482
8.17149e-06
0.000252406
8.2962e-06
0.000250299
8.41831e-06
0.000248162
8.53786e-06
0.000245996
8.65485e-06
0.000243802
8.76932e-06
0.000241579
8.88128e-06
0.00023933
8.99077e-06
0.000237053
9.0978e-06
0.00023475
9.20241e-06
0.000232422
9.30462e-06
0.000230069
9.40446e-06
0.000227691
9.50194e-06
0.00022529
9.59711e-06
0.000222866
9.68999e-06
0.000220418
9.78061e-06
0.000217949
9.869e-06
0.000215459
9.95518e-06
0.000212947
1.00392e-05
0.000210415
1.01211e-05
0.000207863
1.02008e-05
0.000205291
1.02785e-05
0.000202701
1.03541e-05
0.000200092
1.04277e-05
0.000197466
1.04993e-05
0.000194822
1.05689e-05
0.000192161
1.06366e-05
0.000189484
1.07024e-05
0.000186791
1.07663e-05
0.000184082
1.08284e-05
0.000181358
1.08887e-05
0.00017862
1.09472e-05
0.000175867
1.1004e-05
0.000173101
1.1059e-05
0.000170322
1.11124e-05
0.000167529
1.11641e-05
0.000164724
1.12142e-05
0.000161907
1.12627e-05
0.000159079
1.13097e-05
0.000156238
1.13551e-05
0.000153387
1.1399e-05
0.000150526
1.14415e-05
0.000147654
1.14825e-05
0.000144772
1.15221e-05
0.000141881
1.15604e-05
0.00013898
1.15973e-05
0.000136071
1.16329e-05
0.000133153
1.16672e-05
0.000130227
1.17002e-05
0.000127293
1.17321e-05
0.000124351
1.17627e-05
0.000121402
1.17922e-05
0.000118446
1.18205e-05
0.000115483
1.18477e-05
0.000112514
1.18738e-05
0.000109538
1.18989e-05
0.000106557
1.1923e-05
0.000103569
1.1946e-05
0.000100576
1.19681e-05
9.75784e-05
1.19892e-05
9.45752e-05
1.20094e-05
9.15673e-05
1.20287e-05
8.85547e-05
1.20471e-05
8.55378e-05
1.20647e-05
8.25168e-05
1.20814e-05
7.94917e-05
1.20974e-05
7.6463e-05
1.21125e-05
7.34306e-05
1.21269e-05
7.03948e-05
1.21405e-05
6.73558e-05
1.21534e-05
6.43138e-05
1.21656e-05
6.1269e-05
1.21772e-05
5.82214e-05
1.2188e-05
5.51713e-05
1.21982e-05
5.21188e-05
1.22078e-05
4.90641e-05
1.22167e-05
4.60073e-05
1.22251e-05
4.29486e-05
1.22328e-05
3.98881e-05
1.224e-05
3.68259e-05
1.22466e-05
3.37623e-05
1.22527e-05
3.06973e-05
1.22582e-05
2.7631e-05
1.22632e-05
2.45637e-05
1.22676e-05
2.14953e-05
1.22716e-05
1.84261e-05
1.2275e-05
1.53562e-05
1.22779e-05
1.22857e-05
1.22804e-05
9.21469e-06
1.22823e-05
6.14333e-06
1.22838e-05
3.07172e-06
1.22847e-05
1.22852e-05
3.59738e-06
-1.79816e-05
7.1946e-06
-1.79808e-05
1.07915e-05
-1.7979e-05
1.43878e-05
-1.79764e-05
1.79835e-05
-1.79729e-05
2.15783e-05
-1.79685e-05
2.51721e-05
-1.79632e-05
2.87646e-05
-1.79569e-05
3.23558e-05
-1.79497e-05
3.59453e-05
-1.79415e-05
3.9533e-05
-1.79323e-05
4.31187e-05
-1.7922e-05
4.67022e-05
-1.79107e-05
5.02833e-05
-1.78983e-05
5.38616e-05
-1.78847e-05
5.74371e-05
-1.78699e-05
6.10095e-05
-1.78539e-05
6.45784e-05
-1.78366e-05
6.81437e-05
-1.78179e-05
7.1705e-05
-1.77979e-05
7.52621e-05
-1.77764e-05
7.88147e-05
-1.77534e-05
8.23624e-05
-1.77288e-05
8.5905e-05
-1.77026e-05
8.94421e-05
-1.76747e-05
9.29733e-05
-1.7645e-05
9.64983e-05
-1.76135e-05
0.000100017
-1.75801e-05
0.000103528
-1.75447e-05
0.000107032
-1.75073e-05
0.000110528
-1.74677e-05
0.000114016
-1.74259e-05
0.000117496
-1.73818e-05
0.000120966
-1.73353e-05
0.000124426
-1.72863e-05
0.000127876
-1.72349e-05
0.000131315
-1.71808e-05
0.000134744
-1.7124e-05
0.00013816
-1.70643e-05
0.000141564
-1.70018e-05
0.000144955
-1.69364e-05
0.000148332
-1.68679e-05
0.000151695
-1.67962e-05
0.000155043
-1.67213e-05
0.000158376
-1.66432e-05
0.000161693
-1.65616e-05
0.000164992
-1.64765e-05
0.000168274
-1.63879e-05
0.000171538
-1.62957e-05
0.000174782
-1.61998e-05
0.000178007
-1.61e-05
0.000181211
-1.59964e-05
0.000184393
-1.58889e-05
0.000187554
-1.57774e-05
0.000190691
-1.56618e-05
0.000193805
-1.5542e-05
0.000196893
-1.54181e-05
0.000199956
-1.529e-05
0.000202993
-1.51575e-05
0.000206003
-1.50207e-05
0.000208984
-1.48795e-05
0.000211936
-1.47339e-05
0.000214858
-1.45838e-05
0.000217749
-1.44292e-05
0.000220609
-1.42701e-05
0.000223435
-1.41064e-05
0.000226229
-1.39382e-05
0.000228987
-1.37654e-05
0.00023171
-1.35881e-05
0.000234397
-1.34061e-05
0.000237046
-1.32197e-05
0.000239657
-1.30286e-05
0.000242229
-1.28331e-05
0.000244761
-1.2633e-05
0.000247252
-1.24284e-05
0.000249701
-1.22195e-05
0.000252108
-1.20061e-05
0.000254471
-1.17884e-05
0.000256789
-1.15664e-05
0.000259062
-1.13402e-05
0.000261289
-1.11098e-05
0.000263469
-1.08754e-05
0.000265601
-1.0637e-05
0.000267684
-1.03946e-05
0.000269718
-1.01485e-05
0.000271702
-9.89862e-06
0.000273636
-9.64514e-06
0.000275517
-9.38816e-06
0.000277347
-9.12779e-06
0.000279123
-8.86415e-06
0.000280846
-8.59738e-06
0.000282515
-8.32759e-06
0.00028413
-8.05493e-06
0.000285689
-7.77953e-06
0.000287192
-7.50153e-06
0.000288639
-7.22107e-06
0.000290029
-6.93832e-06
0.000291362
-6.65341e-06
0.000292638
-6.36651e-06
0.000293855
-6.07776e-06
0.000295015
-5.78733e-06
0.000296115
-5.49538e-06
0.000297157
-5.20207e-06
0.00029814
-4.90756e-06
0.000299063
-4.61202e-06
0.000299927
-4.31561e-06
0.000300732
-4.01849e-06
0.000301476
-3.72083e-06
0.000302161
-3.42279e-06
0.000302786
-3.12453e-06
0.000303351
-2.82622e-06
0.000303856
-2.52801e-06
0.000304302
-2.23006e-06
0.000304688
-1.93253e-06
0.000305014
-1.63557e-06
0.000305281
-1.33933e-06
0.000305488
-1.04396e-06
0.000305637
-7.49603e-07
0.000305727
-4.56404e-07
0.000305758
-1.64498e-07
0.000305731
1.25978e-07
0.000305646
4.14895e-07
0.000305503
7.02125e-07
0.000305303
9.87547e-07
0.000305047
1.27104e-06
0.000304734
1.55249e-06
0.000304365
1.8318e-06
0.00030394
2.10884e-06
0.00030346
2.38353e-06
0.000302926
2.65577e-06
0.000302338
2.92546e-06
0.000301696
3.19252e-06
0.000301002
3.45687e-06
0.000300254
3.71844e-06
0.000299456
3.97714e-06
0.000298605
4.23291e-06
0.000297705
4.48569e-06
0.000296754
4.73542e-06
0.000295754
4.98204e-06
0.000294705
5.22551e-06
0.000293608
5.46578e-06
0.000292463
5.70281e-06
0.000291272
5.93657e-06
0.000290034
6.16701e-06
0.000288752
6.39411e-06
0.000287424
6.61784e-06
0.000286052
6.83819e-06
0.000284637
7.05513e-06
0.000283179
7.26865e-06
0.000281679
7.47875e-06
0.000280138
7.6854e-06
0.000278556
7.88861e-06
0.000276935
8.08837e-06
0.000275273
8.28468e-06
0.000273574
8.47755e-06
0.000271836
8.66699e-06
0.000270062
8.853e-06
0.00026825
9.03558e-06
0.000266403
9.21477e-06
0.000264521
9.39056e-06
0.000262605
9.56297e-06
0.000260654
9.73203e-06
0.000258671
9.89775e-06
0.000256655
1.00602e-05
0.000254607
1.02193e-05
0.000252528
1.03751e-05
0.000250419
1.05277e-05
0.000248279
1.06771e-05
0.000246111
1.08233e-05
0.000243914
1.09663e-05
0.000241689
1.11062e-05
0.000239437
1.12431e-05
0.000237158
1.13768e-05
0.000234853
1.15075e-05
0.000232522
1.16352e-05
0.000230166
1.176e-05
0.000227787
1.18818e-05