/*--------------------------------*- C++ -*----------------------------------*\
| =========                 |                                                 |
| \\      /  F ield         | OpenFOAM: The Open Source CFD Toolbox           |
|  \\    /   O peration     | Version:  v2012                                 |
|   \\  /    A nd           | Website:  www.openfoam.com                      |
|    \\/     M anipulation  |                                                 |
\*---------------------------------------------------------------------------*/
FoamFile
{
    version     2.0;
    format      ascii;
    class       volScalarField;
    location    "4.4";
    object      Psi_z;
}
// * * * * * * * * * * * * * * * * * * * * * * * * * * * * * * * * * * * * * //

dimensions      [0 2 -1 0 0 0 0];


internalField   nonuniform List<scalar> 
65536
(
9.00233e-06
2.70065e-05
4.50093e-05
6.301e-05
8.10076e-05
9.90013e-05
0.00011699
0.000134973
0.000152949
0.000170918
0.000188878
0.000206828
0.000224768
0.000242695
0.00026061
0.00027851
0.000296395
0.000314264
0.000332114
0.000349945
0.000367756
0.000385544
0.000403308
0.000421047
0.000438759
0.000456443
0.000474095
0.000491715
0.000509301
0.00052685
0.000544361
0.000561831
0.000579258
0.00059664
0.000613974
0.000631258
0.000648489
0.000665665
0.000682782
0.000699838
0.00071683
0.000733755
0.00075061
0.000767392
0.000784097
0.000800721
0.000817263
0.000833717
0.000850081
0.000866351
0.000882523
0.000898593
0.000914557
0.000930411
0.000946152
0.000961774
0.000977275
0.000992649
0.00100789
0.001023
0.00103797
0.0010528
0.00106748
0.001082
0.00109637
0.00111057
0.00112461
0.00113848
0.00115218
0.00116569
0.00117902
0.00119216
0.0012051
0.00121785
0.00123039
0.00124273
0.00125486
0.00126676
0.00127845
0.00128992
0.00130115
0.00131216
0.00132292
0.00133344
0.00134372
0.00135375
0.00136353
0.00137305
0.00138232
0.00139132
0.00140005
0.00140851
0.00141671
0.00142462
0.00143226
0.00143962
0.0014467
0.00145349
0.00146
0.00146622
0.00147214
0.00147778
0.00148312
0.00148817
0.00149292
0.00149737
0.00150153
0.00150538
0.00150894
0.0015122
0.00151516
0.00151782
0.00152019
0.00152225
0.00152401
0.00152548
0.00152665
0.00152753
0.00152811
0.0015284
0.00152839
0.0015281
0.00152751
0.00152664
0.00152548
0.00152404
0.00152232
0.00152032
0.00151804
0.00151549
0.00151267
0.00150958
0.00150622
0.0015026
0.00149872
0.00149458
0.00149018
0.00148553
0.00148064
0.0014755
0.00147012
0.00146449
0.00145864
0.00145255
0.00144623
0.00143969
0.00143292
0.00142593
0.00141873
0.00141132
0.0014037
0.00139588
0.00138785
0.00137962
0.00137121
0.0013626
0.0013538
0.00134482
0.00133566
0.00132632
0.00131681
0.00130712
0.00129727
0.00128726
0.00127709
0.00126676
0.00125627
0.00124564
0.00123486
0.00122393
0.00121287
0.00120166
0.00119033
0.00117886
0.00116726
0.00115554
0.00114369
0.00113173
0.00111964
0.00110745
0.00109514
0.00108273
0.00107021
0.00105759
0.00104486
0.00103204
0.00101913
0.00100612
0.000993027
0.000979843
0.000966575
0.000953224
0.000939793
0.000926284
0.0009127
0.000899042
0.000885313
0.000871516
0.000857651
0.000843722
0.000829731
0.000815678
0.000801567
0.000787399
0.000773176
0.0007589
0.000744572
0.000730195
0.000715771
0.0007013
0.000686784
0.000672226
0.000657626
0.000642986
0.000628308
0.000613594
0.000598843
0.000584059
0.000569242
0.000554394
0.000539516
0.000524608
0.000509673
0.000494712
0.000479726
0.000464715
0.000449681
0.000434625
0.000419548
0.000404452
0.000389336
0.000374202
0.000359051
0.000343884
0.000328702
0.000313505
0.000298294
0.000283071
0.000267835
0.000252588
0.000237331
0.000222064
0.000206788
0.000191503
0.00017621
0.000160911
0.000145605
0.000130294
0.000114977
9.96556e-05
8.43305e-05
6.90021e-05
5.3671e-05
3.83379e-05
2.30033e-05
7.66788e-06
2.70073e-05
8.10205e-05
0.00013503
0.000189033
0.000243026
0.000297008
0.000350975
0.000404925
0.000458855
0.000512762
0.000566642
0.000620494
0.000674314
0.000728097
0.000781842
0.000835545
0.000889201
0.000942808
0.00099636
0.00104986
0.00110329
0.00115665
0.00120995
0.00126317
0.0013163
0.00136936
0.00142232
0.00147518
0.00152794
0.00158059
0.00163312
0.00168553
0.00173782
0.00178997
0.00184197
0.00189382
0.00194552
0.00199705
0.0020484
0.00209957
0.00215055
0.00220133
0.0022519
0.00230225
0.00235237
0.00240224
0.00245187
0.00250124
0.00255033
0.00259915
0.00264767
0.00269588
0.00274378
0.00279134
0.00283857
0.00288544
0.00293195
0.00297807
0.00302381
0.00306914
0.00311405
0.00315854
0.00320257
0.00324615
0.00328926
0.00333188
0.00337401
0.00341562
0.0034567
0.00349724
0.00353723
0.00357666
0.0036155
0.00365374
0.00369138
0.0037284
0.00376478
0.00380051
0.00383558
0.00386998
0.00390369
0.0039367
0.003969
0.00400057
0.00403141
0.00406151
0.00409084
0.00411941
0.0041472
0.00417421
0.00420041
0.00422581
0.00425039
0.00427414
0.00429707
0.00431915
0.00434038
0.00436077
0.00438029
0.00439894
0.00441672
0.00443363
0.00444965
0.00446479
0.00447905
0.00449241
0.00450487
0.00451645
0.00452712
0.0045369
0.00454578
0.00455377
0.00456085
0.00456704
0.00457234
0.00457674
0.00458025
0.00458288
0.00458462
0.00458548
0.00458546
0.00458457
0.00458281
0.0045802
0.00457672
0.0045724
0.00456724
0.00456123
0.0045544
0.00454674
0.00453827
0.004529
0.00451892
0.00450805
0.0044964
0.00448398
0.00447079
0.00445685
0.00444216
0.00442674
0.00441059
0.00439372
0.00437614
0.00435787
0.00433891
0.00431928
0.00429897
0.00427801
0.00425641
0.00423417
0.00421131
0.00418783
0.00416374
0.00413907
0.00411381
0.00408798
0.00406158
0.00403463
0.00400715
0.00397913
0.00395059
0.00392153
0.00389198
0.00386194
0.00383142
0.00380042
0.00376897
0.00373706
0.00370472
0.00367194
0.00363874
0.00360513
0.00357111
0.0035367
0.0035019
0.00346673
0.00343119
0.00339529
0.00335905
0.00332246
0.00328554
0.00324829
0.00321073
0.00317286
0.00313469
0.00309623
0.00305748
0.00301846
0.00297917
0.00293962
0.00289981
0.00285975
0.00281946
0.00277893
0.00273817
0.0026972
0.00265601
0.00261462
0.00257302
0.00253123
0.00248925
0.00244709
0.00240476
0.00236225
0.00231958
0.00227675
0.00223377
0.00219064
0.00214736
0.00210394
0.0020604
0.00201672
0.00197292
0.001929
0.00188496
0.00184082
0.00179657
0.00175221
0.00170776
0.00166321
0.00161858
0.00157385
0.00152905
0.00148416
0.0014392
0.00139417
0.00134907
0.0013039
0.00125867
0.00121338
0.00116803
0.00112262
0.00107717
0.00103167
0.00098612
0.000940529
0.000894896
0.000849225
0.000803518
0.000757776
0.000712004
0.000666201
0.000620372
0.000574517
0.000528639
0.00048274
0.000436822
0.000390886
0.000344935
0.000298971
0.000252995
0.000207009
0.000161015
0.000115015
6.90109e-05
2.30039e-05
4.50135e-05
0.000135038
0.000225057
0.000315064
0.000405057
0.000495029
0.000584978
0.000674898
0.000764784
0.000854632
0.000944436
0.00103419
0.0011239
0.00121354
0.00130312
0.00139263
0.00148206
0.00157141
0.00166066
0.00174983
0.00183889
0.00192783
0.00201666
0.00210537
0.00219394
0.00228236
0.00237063
0.00245874
0.00254668
0.00263444
0.002722
0.00280937
0.00289651
0.00298343
0.00307012
0.00315655
0.00324272
0.00332861
0.00341421
0.0034995
0.00358448
0.00366912
0.00375341
0.00383733
0.00392087
0.00400402
0.00408674
0.00416903
0.00425087
0.00433224
0.00441311
0.00449348
0.00457332
0.00465262
0.00473134
0.00480947
0.004887
0.00496389
0.00504013
0.0051157
0.00519057
0.00526472
0.00533813
0.00541078
0.00548264
0.00555369
0.00562391
0.00569328
0.00576177
0.00582936
0.00589602
0.00596174
0.00602649
0.00609025
0.00615299
0.0062147
0.00627535
0.00633492
0.00639338
0.00645072
0.00650692
0.00656195
0.00661579
0.00666843
0.00671985
0.00677002
0.00681893
0.00686655
0.00691288
0.0069579
0.00700158
0.00704392
0.00708489
0.0071245
0.00716271
0.00719952
0.00723492
0.0072689
0.00730144
0.00733253
0.00736218
0.00739036
0.00741707
0.00744231
0.00746606
0.00748834
0.00750912
0.00752841
0.0075462
0.0075625
0.0075773
0.00759061
0.00760241
0.00761273
0.00762155
0.00762889
0.00763474
0.00763911
0.007642
0.00764343
0.0076434
0.00764191
0.00763898
0.00763461
0.00762882
0.00762161
0.00761299
0.00760298
0.00759158
0.00757881
0.00756469
0.00754921
0.00753241
0.00751429
0.00749486
0.00747415
0.00745216
0.00742891
0.00740442
0.0073787
0.00735177
0.00732365
0.00729434
0.00726388
0.00723227
0.00719953
0.00716568
0.00713074
0.00709472
0.00705765
0.00701953
0.00698038
0.00694023
0.00689909
0.00685698
0.00681392
0.00676991
0.00672499
0.00667917
0.00663246
0.00658488
0.00653645
0.00648718
0.0064371
0.00638622
0.00633455
0.00628212
0.00622893
0.00617501
0.00612037
0.00606502
0.00600899
0.00595229
0.00589493
0.00583692
0.00577829
0.00571905
0.00565921
0.00559879
0.0055378
0.00547626
0.00541417
0.00535156
0.00528843
0.00522481
0.0051607
0.00509611
0.00503107
0.00496557
0.00489964
0.00483329
0.00476652
0.00469935
0.0046318
0.00456387
0.00449557
0.00442691
0.00435792
0.00428858
0.00421893
0.00414896
0.00407869
0.00400812
0.00393727
0.00386615
0.00379476
0.00372311
0.00365122
0.00357909
0.00350672
0.00343414
0.00336134
0.00328833
0.00321513
0.00314173
0.00306815
0.00299439
0.00292046
0.00284637
0.00277212
0.00269772
0.00262318
0.0025485
0.00247369
0.00239875
0.00232369
0.00224852
0.00217323
0.00209784
0.00202236
0.00194677
0.0018711
0.00179534
0.0017195
0.00164358
0.00156759
0.00149154
0.00141542
0.00133923
0.001263
0.00118671
0.00111037
0.00103398
0.000957554
0.000881088
0.000804588
0.000728055
0.000651494
0.000574907
0.000498298
0.000421669
0.000345024
0.000268366
0.000191697
0.000115021
3.83409e-05
6.3022e-05
0.000189063
0.000315095
0.000441111
0.000567107
0.000693075
0.000819009
0.000944904
0.00107075
0.00119655
0.00132228
0.00144794
0.00157354
0.00169905
0.00182446
0.00194978
0.002075
0.00220009
0.00232507
0.0024499
0.0025746
0.00269913
0.00282351
0.0029477
0.00307171
0.00319552
0.00331911
0.00344248
0.00356561
0.00368848
0.00381109
0.00393341
0.00405544
0.00417714
0.00429851
0.00441954
0.00454019
0.00466046
0.00478032
0.00489975
0.00501874
0.00513726
0.00525529
0.0053728
0.00548978
0.00560621
0.00572205
0.00583728
0.00595188
0.00606582
0.00617907
0.00629162
0.00640342
0.00651446
0.0066247
0.00673412
0.00684268
0.00695036
0.00705713
0.00716295
0.0072678
0.00737164
0.00747445
0.00757619
0.00767683
0.00777633
0.00787467
0.00797182
0.00806774
0.00816239
0.00825576
0.00834779
0.00843848
0.00852777
0.00861564
0.00870206
0.008787
0.00887043
0.00895231
0.00903262
0.00911132
0.00918839
0.0092638
0.00933752
0.00940953
0.00947979
0.00954829
0.00961499
0.00967987
0.00974292
0.0098041
0.00986339
0.00992078
0.00997624
0.0100298
0.0100813
0.0101309
0.0101785
0.010224
0.0102676
0.0103091
0.0103486
0.010386
0.0104213
0.0104546
0.0104858
0.0105149
0.0105419
0.0105668
0.0105896
0.0106103
0.0106289
0.0106455
0.0106599
0.0106723
0.0106825
0.0106907
0.0106968
0.0107009
0.0107029
0.0107028
0.0107007
0.0106966
0.0106905
0.0106823
0.0106722
0.0106601
0.0106461
0.0106301
0.0106122
0.0105924
0.0105708
0.0105472
0.0105218
0.0104946
0.0104656
0.0104348
0.0104022
0.0103679
0.0103319
0.0102942
0.0102548
0.0102137
0.010171
0.0101268
0.0100809
0.0100335
0.00998455
0.0099341
0.00988216
0.00982877
0.00977395
0.00971771
0.00966009
0.00960111
0.0095408
0.00947917
0.00941625
0.00935207
0.00928665
0.00922002
0.00915219
0.0090832
0.00901306
0.00894181
0.00886945
0.00879602
0.00872153
0.00864602
0.0085695
0.008492
0.00841353
0.00833412
0.0082538
0.00817257
0.00809047
0.00800751
0.00792371
0.0078391
0.0077537
0.00766752
0.00758058
0.0074929
0.00740451
0.00731542
0.00722564
0.0071352
0.00704412
0.00695241
0.00686009
0.00676718
0.00667369
0.00657964
0.00648505
0.00638992
0.00629429
0.00619816
0.00610155
0.00600447
0.00590694
0.00580897
0.00571057
0.00561177
0.00551256
0.00541298
0.00531302
0.0052127
0.00511204
0.00501104
0.00490972
0.00480809
0.00470616
0.00460394
0.00450144
0.00439868
0.00429565
0.00419238
0.00408887
0.00398514
0.00388118
0.00377702
0.00367265
0.00356809
0.00346334
0.00335842
0.00325333
0.00314808
0.00304267
0.00293712
0.00283143
0.00272561
0.00261966
0.00251359
0.00240741
0.00230112
0.00219473
0.00208824
0.00198167
0.00187501
0.00176827
0.00166146
0.00155458
0.00144763
0.00134063
0.00123357
0.00112647
0.00101932
0.000912127
0.000804901
0.000697644
0.000590359
0.000483052
0.000375726
0.000268386
0.000161036
5.36793e-05
8.10335e-05
0.000243096
0.000405148
0.00056718
0.000729185
0.000891155
0.00105308
0.00121496
0.00137677
0.00153852
0.00170019
0.00186177
0.00202326
0.00218464
0.00234591
0.00250705
0.00266805
0.00282891
0.0029896
0.00315012
0.00331046
0.0034706
0.00363053
0.00379023
0.00394969
0.00410889
0.00426782
0.00442646
0.00458479
0.0047428
0.00490046
0.00505776
0.00521467
0.00537118
0.00552727
0.0056829
0.00583806
0.00599272
0.00614686
0.00630045
0.00645347
0.00660589
0.00675768
0.00690881
0.00705926
0.00720898
0.00735796
0.00750616
0.00765355
0.00780009
0.00794575
0.00809049
0.00823429
0.0083771
0.00851889
0.00865962
0.00879925
0.00893775
0.00907507
0.00921118
0.00934604
0.00947961
0.00961184
0.0097427
0.00987215
0.0100001
0.0101266
0.0102516
0.010375
0.0104967
0.0106168
0.0107352
0.0108519
0.0109667
0.0110797
0.0111909
0.0113002
0.0114075
0.0115128
0.0116161
0.0117174
0.0118165
0.0119135
0.0120083
0.012101
0.0121913
0.0122794
0.0123652
0.0124487
0.0125298
0.0126085
0.0126848
0.0127586
0.0128299
0.0128988
0.0129651
0.0130288
0.01309
0.0131487
0.0132047
0.0132581
0.0133088
0.0133569
0.0134024
0.0134452
0.0134853
0.0135227
0.0135574
0.0135895
0.0136188
0.0136454
0.0136694
0.0136906
0.0137092
0.013725
0.0137382
0.0137487
0.0137566
0.0137618
0.0137643
0.0137642
0.0137615
0.0137562
0.0137483
0.0137378
0.0137248
0.0137092
0.0136912
0.0136706
0.0136476
0.0136221
0.0135942
0.0135639
0.0135312
0.0134962
0.0134588
0.0134192
0.0133773
0.0133331
0.0132868
0.0132382
0.0131875
0.0131347
0.0130798
0.0130228
0.0129638
0.0129028
0.0128399
0.012775
0.0127081
0.0126395
0.0125689
0.0124966
0.0124225
0.0123466
0.012269
0.0121897
0.0121088
0.0120262
0.0119421
0.0118564
0.0117691
0.0116804
0.0115901
0.0114985
0.0114054
0.011311
0.0112152
0.011118
0.0110196
0.0109199
0.010819
0.0107169
0.0106136
0.0105091
0.0104035
0.0102968
0.010189
0.0100802
0.00997037
0.00985953
0.00974772
0.00963496
0.00952128
0.0094067
0.00929125
0.00917494
0.0090578
0.00893986
0.00882114
0.00870165
0.00858142
0.00846047
0.00833882
0.0082165
0.00809351
0.00796989
0.00784565
0.00772081
0.00759539
0.0074694
0.00734287
0.00721581
0.00708824
0.00696018
0.00683164
0.00670264
0.0065732
0.00644332
0.00631303
0.00618235
0.00605127
0.00591983
0.00578803
0.00565588
0.00552341
0.00539062
0.00525752
0.00512412
0.00499045
0.00485651
0.00472231
0.00458786
0.00445317
0.00431826
0.00418313
0.00404779
0.00391226
0.00377654
0.00364064
0.00350457
0.00336834
0.00323195
0.00309542
0.00295875
0.00282195
0.00268503
0.002548
0.00241086
0.00227361
0.00213628
0.00199885
0.00186134
0.00172376
0.00158611
0.00144839
0.00131062
0.0011728
0.00103493
0.000897017
0.000759073
0.000621099
0.000483102
0.000345086
0.000207057
6.90197e-05
9.90488e-05
0.000297142
0.000495221
0.000693276
0.000891298
0.00108928
0.00128721
0.00148507
0.00168286
0.00188057
0.00207819
0.0022757
0.00247309
0.00267036
0.00286748
0.00306445
0.00326126
0.00345788
0.00365431
0.00385053
0.00404653
0.00424228
0.00443778
0.004633
0.00482792
0.00502254
0.00521682
0.00541075
0.0056043
0.00579746
0.0059902
0.00618249
0.00637432
0.00656565
0.00675647
0.00694673
0.00713642
0.0073255
0.00751395
0.00770173
0.0078888
0.00807515
0.00826073
0.00844551
0.00862945
0.00881251
0.00899466
0.00917586
0.00935606
0.00953524
0.00971334
0.00989032
0.0100661
0.0102408
0.0104141
0.0105862
0.010757
0.0109263
0.0110942
0.0112607
0.0114256
0.0115889
0.0117506
0.0119106
0.0120689
0.0122254
0.0123801
0.0125329
0.0126838
0.0128327
0.0129796
0.0131244
0.013267
0.0134075
0.0135457
0.0136817
0.0138153
0.0139465
0.0140753
0.0142017
0.0143255
0.0144467
0.0145654
0.0146813
0.0147946
0.0149052
0.0150129
0.0151178
0.0152199
0.0153191
0.0154153
0.0155086
0.0155989
0.0156861
0.0157703
0.0158514
0.0159294
0.0160042
0.0160759
0.0161444
0.0162097
0.0162717
0.0163305
0.0163861
0.0164384
0.0164875
0.0165332
0.0165757
0.0166148
0.0166507
0.0166833
0.0167125
0.0167385
0.0167611
0.0167805
0.0167966
0.0168095
0.016819
0.0168253
0.0168284
0.0168283
0.0168249
0.0168184
0.0168087
0.0167959
0.0167799
0.0167609
0.0167387
0.0167136
0.0166854
0.0166542
0.01662
0.0165829
0.0165429
0.0165
0.0164543
0.0164058
0.0163546
0.0163005
0.0162438
0.0161844
0.0161224
0.0160578
0.0159906
0.0159209
0.0158488
0.0157741
0.0156971
0.0156177
0.015536
0.015452
0.0153657
0.0152772
0.0151866
0.0150938
0.0149989
0.0149019
0.0148029
0.014702
0.014599
0.0144942
0.0143875
0.014279
0.0141687
0.0140566
0.0139428
0.0138273
0.0137101
0.0135914
0.013471
0.0133491
0.0132257
0.0131008
0.0129745
0.0128467
0.0127176
0.0125872
0.0124554
0.0123223
0.012188
0.0120525
0.0119158
0.0117779
0.011639
0.0114989
0.0113577
0.0112155
0.0110723
0.0109281
0.0107829
0.0106369
0.0104899
0.010342
0.0101933
0.0100437
0.00989337
0.00974224
0.00959035
0.00943773
0.0092844
0.00913038
0.00897569
0.00882036
0.00866441
0.00850786
0.00835072
0.00819302
0.00803478
0.00787602
0.00771675
0.00755699
0.00739676
0.00723608
0.00707496
0.00691342
0.00675148
0.00658915
0.00642645
0.00626339
0.00609999
0.00593626
0.00577221
0.00560786
0.00544323
0.00527831
0.00511313
0.0049477
0.00478203
0.00461613
0.00445001
0.00428369
0.00411717
0.00395046
0.00378357
0.00361652
0.0034493
0.00328194
0.00311444
0.00294681
0.00277905
0.00261118
0.0024432
0.00227513
0.00210696
0.0019387
0.00177037
0.00160197
0.00143351
0.00126499
0.00109642
0.000927815
0.00075917
0.000590495
0.000421798
0.000253085
8.43628e-05
0.000117069
0.000351201
0.000585317
0.000819405
0.00105345
0.00128745
0.00152139
0.00175526
0.00198904
0.00222272
0.00245629
0.00268974
0.00292305
0.00315621
0.00338921
0.00362202
0.00385464
0.00408705
0.00431923
0.00455117
0.00478283
0.00501422
0.0052453
0.00547606
0.00570647
0.00593652
0.00616617
0.00639541
0.00662421
0.00685254
0.00708038
0.0073077
0.00753446
0.00776065
0.00798622
0.00821114
0.00843539
0.00865892
0.0088817
0.0091037
0.00932487
0.00954518
0.00976458
0.00998304
0.0102005
0.0104169
0.0106323
0.0108465
0.0110596
0.0112715
0.011482
0.0116913
0.0118992
0.0121057
0.0123107
0.0125142
0.0127161
0.0129163
0.0131149
0.0133117
0.0135067
0.0136998
0.0138911
0.0140803
0.0142675
0.0144526
0.0146355
0.0148162
0.0149947
0.0151707
0.0153444
0.0155157
0.0156844
0.0158505
0.016014
0.0161748
0.0163328
0.016488
0.0166403
0.0167898
0.0169362
0.0170796
0.0172199
0.0173571
0.017491
0.0176218
0.0177492
0.0178733
0.017994
0.0181113
0.0182251
0.0183354
0.0184422
0.0185454
0.0186449
0.0187408
0.0188331
0.0189215
0.0190063
0.0190873
0.0191645
0.0192379
0.0193074
0.0193731
0.019435
0.0194929
0.019547
0.0195972
0.0196435
0.0196859
0.0197244
0.0197589
0.0197896
0.0198164
0.0198393
0.0198583
0.0198734
0.0198847
0.0198921
0.0198957
0.0198955
0.0198915
0.0198838
0.0198723
0.0198571
0.0198381
0.0198156
0.0197893
0.0197595
0.0197261
0.0196892
0.0196488
0.0196048
0.0195575
0.0195068
0.0194527
0.0193953
0.0193346
0.0192707
0.0192035
0.0191333
0.0190599
0.0189834
0.018904
0.0188215
0.0187361
0.0186478
0.0185567
0.0184628
0.0183661
0.0182668
0.0181647
0.01806
0.0179528
0.0178431
0.0177308
0.0176161
0.0174991
0.0173796
0.0172579
0.017134
0.0170078
0.0168794
0.016749
0.0166164
0.0164818
0.0163452
0.0162067
0.0160662
0.0159239
0.0157798
0.0156339
0.0154862
0.0153368
0.0151858
0.0150331
0.0148789
0.014723
0.0145657
0.0144069
0.0142467
0.0140851
0.0139221
0.0137577
0.0135921
0.0134252
0.0132571
0.0130878
0.0129173
0.0127457
0.012573
0.0123992
0.0122244
0.0120486
0.0118718
0.011694
0.0115153
0.0113358
0.0111554
0.0109741
0.010792
0.0106092
0.0104255
0.0102412
0.0100561
0.00987037
0.00968395
0.00949689
0.00930922
0.00912094
0.0089321
0.00874269
0.00855276
0.00836231
0.00817136
0.00797994
0.00778806
0.00759574
0.007403
0.00720986
0.00701633
0.00682242
0.00662816
0.00643356
0.00623863
0.00604339
0.00584786
0.00565204
0.00545595
0.0052596
0.00506301
0.00486618
0.00466914
0.00447189
0.00427444
0.0040768
0.00387899
0.00368102
0.00348288
0.00328461
0.0030862
0.00288766
0.002689
0.00249024
0.00229138
0.00209242
0.00189339
0.00169428
0.00149511
0.00129587
0.00109659
0.000897269
0.000697911
0.000498527
0.000299124
9.97091e-05
0.000135094
0.000405277
0.000675441
0.000945573
0.00121566
0.00148569
0.00175565
0.00202553
0.00229531
0.00256497
0.00283452
0.00310392
0.00337316
0.00364223
0.00391111
0.00417979
0.00444824
0.00471645
0.0049844
0.00525206
0.00551943
0.00578646
0.00605315
0.00631947
0.00658539
0.00685089
0.00711594
0.00738052
0.00764459
0.00790812
0.00817109
0.00843345
0.00869519
0.00895625
0.00921661
0.00947623
0.00973507
0.00999309
0.0102503
0.0105065
0.0107618
0.0110161
0.0112694
0.0115216
0.0117726
0.0120225
0.0122711
0.0125184
0.0127644
0.013009
0.0132521
0.0134937
0.0137337
0.0139721
0.0142088
0.0144437
0.0146768
0.014908
0.0151373
0.0153645
0.0155897
0.0158127
0.0160335
0.016252
0.0164682
0.0166819
0.0168931
0.0171018
0.0173078
0.0175112
0.0177118
0.0179095
0.0181043
0.0182961
0.0184849
0.0186706
0.0188531
0.0190324
0.0192083
0.0193808
0.0195499
0.0197155
0.0198776
0.020036
0.0201907
0.0203417
0.0204888
0.0206322
0.0207716
0.020907
0.0210385
0.0211658
0.0212891
0.0214083
0.0215232
0.021634
0.0217404
0.0218426
0.0219405
0.022034
0.0221231
0.0222079
0.0222882
0.022364
0.0224354
0.0225023
0.0225647
0.0226227
0.0226761
0.022725
0.0227694
0.0228093
0.0228447
0.0228755
0.0229019
0.0229238
0.0229413
0.0229542
0.0229628
0.0229669
0.0229666
0.0229619
0.0229529
0.0229396
0.0229219
0.0229
0.0228739
0.0228436
0.0228091
0.0227704
0.0227277
0.022681
0.0226302
0.0225755
0.0225168
0.0224543
0.022388
0.0223178
0.022244
0.0221664
0.0220852
0.0220004
0.0219121
0.0218203
0.021725
0.0216264
0.0215244
0.0214192
0.0213107
0.021199
0.0210842
0.0209663
0.0208454
0.0207216
0.0205948
0.0204652
0.0203327
0.0201975
0.0200596
0.0199191
0.0197759
0.0196302
0.019482
0.0193313
0.0191783
0.0190229
0.0188651
0.0187052
0.018543
0.0183787
0.0182123
0.0180438
0.0178733
0.0177008
0.0175264
0.0173502
0.0171721
0.0169922
0.0168106
0.0166273
0.0164423
0.0162557
0.0160675
0.0158778
0.0156866
0.0154939
0.0152999
0.0151044
0.0149076
0.0147095
0.0145102
0.0143096
0.0141078
0.0139048
0.0137007
0.0134956
0.0132893
0.0130821
0.0128738
0.0126646
0.0124544
0.0122434
0.0120315
0.0118187
0.0116051
0.0113907
0.0111755
0.0109596
0.010743
0.0105257
0.0103078
0.0100892
0.00986995
0.00965015
0.00942978
0.00920886
0.00898741
0.00876546
0.00854302
0.00832011
0.00809676
0.00787298
0.0076488
0.00742422
0.00719926
0.00697395
0.00674829
0.00652231
0.00629602
0.00606943
0.00584256
0.00561542
0.00538803
0.0051604
0.00493255
0.00470448
0.00447621
0.00424775
0.00401911
0.0037903
0.00356134
0.00333223
0.00310299
0.00287362
0.00264414
0.00241456
0.00218488
0.00195512
0.00172528
0.00149537
0.00126541
0.0010354
0.000805354
0.000575274
0.000345173
0.000115059
0.000153126
0.000459372
0.000765596
0.00107179
0.00137792
0.001684
0.00199
0.0022959
0.00260169
0.00290736
0.00321288
0.00351825
0.00382344
0.00412844
0.00443323
0.00473778
0.00504208
0.00534611
0.00564985
0.00595327
0.00625634
0.00655906
0.00686138
0.00716328
0.00746473
0.00776571
0.00806619
0.00836613
0.0086655
0.00896427
0.00926239
0.00955984
0.00985658
0.0101526
0.0104478
0.0107421
0.0110356
0.0113281
0.0116197
0.0119103
0.0121997
0.0124881
0.0127753
0.0130612
0.0133459
0.0136292
0.0139112
0.0141916
0.0144706
0.0147479
0.0150236
0.0152976
0.0155698
0.0158402
0.0161086
0.016375
0.0166394
0.0169016
0.0171617
0.0174194
0.0176748
0.0179278
0.0181782
0.0184261
0.0186712
0.0189137
0.0191533
0.01939
0.0196237
0.0198544
0.0200819
0.0203062
0.0205272
0.0207448
0.020959
0.0211697
0.0213767
0.02158
0.0217796
0.0219754
0.0221672
0.0223551
0.0225389
0.0227186
0.0228941
0.0230654
0.0232323
0.0233949
0.0235531
0.0237067
0.0238558
0.0240003
0.0241402
0.0242753
0.0244057
0.0245313
0.0246521
0.024768
0.024879
0.0249851
0.0250862
0.0251823
0.0252733
0.0253593
0.0254403
0.0255162
0.0255869
0.0256526
0.0257132
0.0257686
0.0258189
0.0258641
0.0259042
0.0259392
0.0259691
0.0259938
0.0260136
0.0260282
0.0260378
0.0260424
0.026042
0.0260367
0.0260264
0.0260111
0.0259911
0.0259661
0.0259364
0.0259019
0.0258627
0.0258189
0.0257703
0.0257172
0.0256596
0.0255974
0.0255308
0.0254598
0.0253845
0.0253048
0.025221
0.0251329
0.0250408
0.0249445
0.0248443
0.02474
0.0246319
0.02452
0.0244043
0.0242848
0.0241617
0.024035
0.0239047
0.023771
0.0236338
0.0234933
0.0233495
0.0232024
0.0230521
0.0228987
0.0227423
0.0225828
0.0224204
0.0222551
0.022087
0.0219161
0.0217425
0.0215662
0.0213873
0.0212059
0.0210219
0.0208356
0.0206468
0.0204557
0.0202623
0.0200667
0.019869
0.0196691
0.0194671
0.0192631
0.0190571
0.0188492
0.0186395
0.0184279
0.0182145
0.0179994
0.0177825
0.0175641
0.017344
0.0171224
0.0168992
0.0166746
0.0164486
0.0162211
0.0159923
0.0157622
0.0155308
0.0152982
0.0150644
0.0148294
0.0145933
0.014356
0.0141178
0.0138785
0.0136382
0.013397
0.0131548
0.0129117
0.0126678
0.0124231
0.0121775
0.0119312
0.0116841
0.0114362
0.0111877
0.0109386
0.0106887
0.0104383
0.0101873
0.00993566
0.0096835
0.00943082
0.00917763
0.00892396
0.00866982
0.00841525
0.00816025
0.00790484
0.00764905
0.00739289
0.00713638
0.00687954
0.00662238
0.00636491
0.00610717
0.00584915
0.00559087
0.00533236
0.00507361
0.00481465
0.00455549
0.00429614
0.00403662
0.00377693
0.0035171
0.00325712
0.00299701
0.00273679
0.00247646
0.00221603
0.00195552
0.00169493
0.00143428
0.00117358
0.000912827
0.000652044
0.000391236
0.000130414
0.000171165
0.000513488
0.000855787
0.00119805
0.00154025
0.00188239
0.00222444
0.00256638
0.0029082
0.00324988
0.00359141
0.00393276
0.00427392
0.00461487
0.00495558
0.00529603
0.0056362
0.00597607
0.00631562
0.00665481
0.00699363
0.00733204
0.00767002
0.00800753
0.00834455
0.00868104
0.00901698
0.00935231
0.00968702
0.0100211
0.0103544
0.010687
0.0110187
0.0113497
0.0116797
0.0120089
0.012337
0.0126641
0.0129902
0.0133151
0.0136388
0.0139613
0.0142824
0.0146022
0.0149205
0.0152374
0.0155527
0.0158664
0.0161783
0.0164885
0.0167969
0.0171033
0.0174078
0.0177102
0.0180104
0.0183084
0.0186042
0.0188975
0.0191884
0.0194767
0.0197624
0.0200454
0.0203255
0.0206028
0.0208771
0.0211483
0.0214164
0.0216812
0.0219427
0.0222007
0.0224553
0.0227062
0.0229535
0.023197
0.0234366
0.0236723
0.0239039
0.0241315
0.0243548
0.0245738
0.0247884
0.0249986
0.0252043
0.0254054
0.0256018
0.0257934
0.0259802
0.0261621
0.0263391
0.026511
0.0266778
0.0268395
0.0269959
0.0271472
0.027293
0.0274336
0.0275687
0.0276984
0.0278225
0.0279412
0.0280542
0.0281617
0.0282636
0.0283598
0.0284503
0.0285351
0.0286143
0.0286877
0.0287554
0.0288174
0.0288736
0.0289241
0.0289689
0.0290079
0.0290413
0.0290689
0.0290909
0.0291072
0.0291179
0.0291229
0.0291224
0.0291163
0.0291047
0.0290876
0.029065
0.0290371
0.0290037
0.028965
0.0289211
0.0288719
0.0288175
0.028758
0.0286934
0.0286238
0.0285492
0.0284696
0.0283853
0.0282961
0.0282022
0.0281036
0.0280004
0.0278926
0.0277804
0.0276637
0.0275427
0.0274174
0.0272878
0.0271541
0.0270163
0.0268745
0.0267287
0.026579
0.0264255
0.0262683
0.0261073
0.0259428
0.0257746
0.025603
0.0254279
0.0252495
0.0250678
0.0248829
0.0246948
0.0245036
0.0243093
0.0241121
0.023912
0.023709
0.0235033
0.0232948
0.0230837
0.0228699
0.0226536
0.0224348
0.0222136
0.02199
0.0217641
0.021536
0.0213056
0.0210731
0.0208385
0.0206018
0.0203632
0.0201226
0.0198801
0.0196358
0.0193897
0.0191419
0.0188923
0.0186412
0.0183884
0.018134
0.0178782
0.0176209
0.0173621
0.017102
0.0168406
0.0165778
0.0163138
0.0160486
0.0157821
0.0155146
0.0152459
0.0149762
0.0147054
0.0144337
0.014161
0.0138873
0.0136128
0.0133373
0.0130611
0.012784
0.0125062
0.0122276
0.0119483
0.0116683
0.0113877
0.0111064
0.0108245
0.010542
0.010259
0.00997539
0.0096913
0.0094067
0.00912164
0.00883612
0.00855018
0.00826383
0.00797708
0.00768996
0.0074025
0.00711469
0.00682657
0.00653814
0.00624944
0.00596046
0.00567123
0.00538176
0.00509207
0.00480217
0.00451207
0.00422179
0.00393134
0.00364074
0.00335
0.00305912
0.00276813
0.00247703
0.00218583
0.00189455
0.0016032
0.00131179
0.00102033
0.000728837
0.000437313
0.000145773
0.000189212
0.000567628
0.000946018
0.00132437
0.00170265
0.00208086
0.00245898
0.00283698
0.00321485
0.00359257
0.00397012
0.00434747
0.00472462
0.00510153
0.00547818
0.00585455
0.00623062
0.00660636
0.00698174
0.00735674
0.00773132
0.00810546
0.00847913
0.00885228
0.0092249
0.00959694
0.00996836
0.0103391
0.0107092
0.0110785
0.0114471
0.0118149
0.0121817
0.0125477
0.0129126
0.0132766
0.0136395
0.0140012
0.0143618
0.0147211
0.0150791
0.0154357
0.0157909
0.0161446
0.0164967
0.0168471
0.0171959
0.0175428
0.0178879
0.018231
0.0185721
0.018911
0.0192478
0.0195823
0.0199145
0.0202442
0.0205713
0.0208958
0.0212176
0.0215366
0.0218527
0.0221658
0.0224757
0.0227825
0.023086
0.0233861
0.0236827
0.0239757
0.0242651
0.0245506
0.0248323
0.02511
0.0253836
0.025653
0.0259182
0.026179
0.0264353
0.0266871
0.0269342
0.0271766
0.0274141
0.0276467
0.0278744
0.0280969
0.0283142
0.0285263
0.028733
0.0289343
0.0291301
0.0293203
0.0295049
0.0296838
0.029857
0.0300243
0.0301857
0.0303412
0.0304907
0.0306342
0.0307715
0.0309028
0.0310279
0.0311468
0.0312594
0.0313658
0.031466
0.0315598
0.0316473
0.0317285
0.0318033
0.0318718
0.031934
0.0319898
0.0320393
0.0320824
0.0321192
0.0321497
0.0321739
0.0321919
0.0322036
0.0322091
0.0322084
0.0322015
0.0321886
0.0321695
0.0321444
0.0321134
0.0320764
0.0320334
0.0319847
0.0319301
0.0318698
0.0318039
0.0317323
0.0316551
0.0315724
0.0314843
0.0313909
0.0312921
0.031188
0.0310788
0.0309645
0.0308452
0.0307209
0.0305917
0.0304577
0.030319
0.0301756
0.0300275
0.029875
0.029718
0.0295566
0.0293909
0.029221
0.029047
0.0288688
0.0286867
0.0285006
0.0283107
0.028117
0.0279195
0.0277184
0.0275138
0.0273057
0.0270941
0.0268792
0.026661
0.0264396
0.026215
0.0259874
0.0257567
0.0255231
0.0252867
0.0250474
0.0248054
0.0245607
0.0243133
0.0240634
0.0238111
0.0235563
0.0232991
0.0230396
0.0227778
0.0225139
0.0222478
0.0219796
0.0217094
0.0214372
0.0211631
0.0208871
0.0206093
0.0203297
0.0200485
0.0197655
0.019481
0.0191948
0.0189072
0.018618
0.0183275
0.0180355
0.0177422
0.0174476