/*--------------------------------*- C++ -*----------------------------------*\
| =========                 |                                                 |
| \\      /  F ield         | OpenFOAM: The Open Source CFD Toolbox           |
|  \\    /   O peration     | Version:  v2012                                 |
|   \\  /    A nd           | Website:  www.openfoam.com                      |
|    \\/     M anipulation  |                                                 |
\*---------------------------------------------------------------------------*/
FoamFile
{
    version     2.0;
    format      ascii;
    class       volVectorField;
    location    "14.3";
    object      Psi;
}
// * * * * * * * * * * * * * * * * * * * * * * * * * * * * * * * * * * * * * //

dimensions      [0 2 -1 0 0 0 0];


internalField   nonuniform List<vector> 
65536
(
(0 0 8.62067e-06)
(0 0 2.58626e-05)
(0 0 4.3106e-05)
(0 0 6.03519e-05)
(0 0 7.76011e-05)
(0 0 9.48547e-05)
(0 0 0.000112114)
(0 0 0.000129379)
(0 0 0.000146651)
(0 0 0.000163931)
(0 0 0.00018122)
(0 0 0.000198519)
(0 0 0.000215828)
(0 0 0.000233149)
(0 0 0.000250481)
(0 0 0.000267827)
(0 0 0.000285186)
(0 0 0.000302558)
(0 0 0.000319946)
(0 0 0.000337348)
(0 0 0.000354767)
(0 0 0.000372201)
(0 0 0.000389651)
(0 0 0.000407118)
(0 0 0.000424603)
(0 0 0.000442104)
(0 0 0.000459622)
(0 0 0.000477157)
(0 0 0.00049471)
(0 0 0.000512279)
(0 0 0.000529865)
(0 0 0.000547468)
(0 0 0.000565086)
(0 0 0.000582719)
(0 0 0.000600368)
(0 0 0.00061803)
(0 0 0.000635705)
(0 0 0.000653393)
(0 0 0.000671091)
(0 0 0.0006888)
(0 0 0.000706517)
(0 0 0.000724241)
(0 0 0.00074197)
(0 0 0.000759704)
(0 0 0.000777439)
(0 0 0.000795173)
(0 0 0.000812906)
(0 0 0.000830634)
(0 0 0.000848354)
(0 0 0.000866065)
(0 0 0.000883763)
(0 0 0.000901446)
(0 0 0.00091911)
(0 0 0.000936752)
(0 0 0.000954368)
(0 0 0.000971955)
(0 0 0.00098951)
(0 0 0.00100703)
(0 0 0.0010245)
(0 0 0.00104193)
(0 0 0.00105931)
(0 0 0.00107664)
(0 0 0.0010939)
(0 0 0.0011111)
(0 0 0.00112823)
(0 0 0.00114529)
(0 0 0.00116226)
(0 0 0.00117915)
(0 0 0.00119594)
(0 0 0.00121263)
(0 0 0.00122922)
(0 0 0.00124569)
(0 0 0.00126205)
(0 0 0.00127828)
(0 0 0.00129438)
(0 0 0.00131033)
(0 0 0.00132614)
(0 0 0.0013418)
(0 0 0.00135729)
(0 0 0.00137261)
(0 0 0.00138776)
(0 0 0.00140271)
(0 0 0.00141748)
(0 0 0.00143204)
(0 0 0.0014464)
(0 0 0.00146053)
(0 0 0.00147444)
(0 0 0.00148812)
(0 0 0.00150155)
(0 0 0.00151474)
(0 0 0.00152766)
(0 0 0.00154032)
(0 0 0.0015527)
(0 0 0.0015648)
(0 0 0.00157661)
(0 0 0.00158812)
(0 0 0.00159932)
(0 0 0.0016102)
(0 0 0.00162077)
(0 0 0.001631)
(0 0 0.0016409)
(0 0 0.00165046)
(0 0 0.00165966)
(0 0 0.00166851)
(0 0 0.00167699)
(0 0 0.0016851)
(0 0 0.00169284)
(0 0 0.00170019)
(0 0 0.00170716)
(0 0 0.00171374)
(0 0 0.00171992)
(0 0 0.0017257)
(0 0 0.00173107)
(0 0 0.00173604)
(0 0 0.00174059)
(0 0 0.00174472)
(0 0 0.00174844)
(0 0 0.00175174)
(0 0 0.00175461)
(0 0 0.00175706)
(0 0 0.00175909)
(0 0 0.00176068)
(0 0 0.00176186)
(0 0 0.0017626)
(0 0 0.00176292)
(0 0 0.00176281)
(0 0 0.00176227)
(0 0 0.00176132)
(0 0 0.00175994)
(0 0 0.00175814)
(0 0 0.00175592)
(0 0 0.00175329)
(0 0 0.00175024)
(0 0 0.00174679)
(0 0 0.00174294)
(0 0 0.00173868)
(0 0 0.00173403)
(0 0 0.00172899)
(0 0 0.00172356)
(0 0 0.00171775)
(0 0 0.00171157)
(0 0 0.00170501)
(0 0 0.0016981)
(0 0 0.00169082)
(0 0 0.0016832)
(0 0 0.00167522)
(0 0 0.00166691)
(0 0 0.00165827)
(0 0 0.00164931)
(0 0 0.00164003)
(0 0 0.00163044)
(0 0 0.00162054)
(0 0 0.00161035)
(0 0 0.00159987)
(0 0 0.00158912)
(0 0 0.00157808)
(0 0 0.00156679)
(0 0 0.00155523)
(0 0 0.00154343)
(0 0 0.00153138)
(0 0 0.0015191)
(0 0 0.00150659)
(0 0 0.00149386)
(0 0 0.00148092)
(0 0 0.00146777)
(0 0 0.00145443)
(0 0 0.00144089)
(0 0 0.00142717)
(0 0 0.00141328)
(0 0 0.00139921)
(0 0 0.00138499)
(0 0 0.00137061)
(0 0 0.00135608)
(0 0 0.0013414)
(0 0 0.00132659)
(0 0 0.00131165)
(0 0 0.00129659)
(0 0 0.00128141)
(0 0 0.00126612)
(0 0 0.00125072)
(0 0 0.00123522)
(0 0 0.00121963)
(0 0 0.00120395)
(0 0 0.00118818)
(0 0 0.00117233)
(0 0 0.00115641)
(0 0 0.00114042)
(0 0 0.00112437)
(0 0 0.00110825)
(0 0 0.00109208)
(0 0 0.00107586)
(0 0 0.00105958)
(0 0 0.00104326)
(0 0 0.00102691)
(0 0 0.00101051)
(0 0 0.00099408)
(0 0 0.00097762)
(0 0 0.000961132)
(0 0 0.000944619)
(0 0 0.000928085)
(0 0 0.000911532)
(0 0 0.000894962)
(0 0 0.000878378)
(0 0 0.000861783)
(0 0 0.000845178)
(0 0 0.000828566)
(0 0 0.000811949)
(0 0 0.000795328)
(0 0 0.000778706)
(0 0 0.000762083)
(0 0 0.000745462)
(0 0 0.000728844)
(0 0 0.00071223)
(0 0 0.000695622)
(0 0 0.00067902)
(0 0 0.000662425)
(0 0 0.000645839)
(0 0 0.000629263)
(0 0 0.000612697)
(0 0 0.000596142)
(0 0 0.000579598)
(0 0 0.000563066)
(0 0 0.000546547)
(0 0 0.00053004)
(0 0 0.000513547)
(0 0 0.000497068)
(0 0 0.000480602)
(0 0 0.000464149)
(0 0 0.000447711)
(0 0 0.000431286)
(0 0 0.000414876)
(0 0 0.000398479)
(0 0 0.000382095)
(0 0 0.000365725)
(0 0 0.000349368)
(0 0 0.000333024)
(0 0 0.000316692)
(0 0 0.000300373)
(0 0 0.000284065)
(0 0 0.000267769)
(0 0 0.000251483)
(0 0 0.000235208)
(0 0 0.000218942)
(0 0 0.000202686)
(0 0 0.000186438)
(0 0 0.000170199)
(0 0 0.000153966)
(0 0 0.000137741)
(0 0 0.000121522)
(0 0 0.000105308)
(0 0 8.90984e-05)
(0 0 7.28932e-05)
(0 0 5.66913e-05)
(0 0 4.0492e-05)
(0 0 2.42944e-05)
(0 0 8.09803e-06)
(0 0 2.58618e-05)
(0 0 7.75868e-05)
(0 0 0.000129316)
(0 0 0.000181053)
(0 0 0.0002328)
(0 0 0.00028456)
(0 0 0.000336336)
(0 0 0.00038813)
(0 0 0.000439946)
(0 0 0.000491786)
(0 0 0.000543652)
(0 0 0.000595548)
(0 0 0.000647475)
(0 0 0.000699436)
(0 0 0.000751434)
(0 0 0.000803469)
(0 0 0.000855545)
(0 0 0.000907663)
(0 0 0.000959825)
(0 0 0.00101203)
(0 0 0.00106429)
(0 0 0.00111659)
(0 0 0.00116894)
(0 0 0.00122134)
(0 0 0.00127379)
(0 0 0.0013263)
(0 0 0.00137885)
(0 0 0.00143146)
(0 0 0.00148412)
(0 0 0.00153682)
(0 0 0.00158958)
(0 0 0.00164239)
(0 0 0.00169525)
(0 0 0.00174815)
(0 0 0.00180109)
(0 0 0.00185408)
(0 0 0.00190711)
(0 0 0.00196017)
(0 0 0.00201327)
(0 0 0.0020664)
(0 0 0.00211955)
(0 0 0.00217272)
(0 0 0.00222591)
(0 0 0.00227911)
(0 0 0.00233232)
(0 0 0.00238553)
(0 0 0.00243873)
(0 0 0.00249191)
(0 0 0.00254508)
(0 0 0.00259821)
(0 0 0.00265131)
(0 0 0.00270436)
(0 0 0.00275736)
(0 0 0.00281029)
(0 0 0.00286314)
(0 0 0.0029159)
(0 0 0.00296857)
(0 0 0.00302113)
(0 0 0.00307356)
(0 0 0.00312585)
(0 0 0.003178)
(0 0 0.00322998)
(0 0 0.00328178)
(0 0 0.00333339)
(0 0 0.00338478)
(0 0 0.00343595)
(0 0 0.00348688)
(0 0 0.00353754)
(0 0 0.00358792)
(0 0 0.00363801)
(0 0 0.00368778)
(0 0 0.00373721)
(0 0 0.00378628)
(0 0 0.00383498)
(0 0 0.00388327)
(0 0 0.00393115)
(0 0 0.00397859)
(0 0 0.00402556)
(0 0 0.00407204)
(0 0 0.00411802)
(0 0 0.00416346)
(0 0 0.00420834)
(0 0 0.00425264)
(0 0 0.00429634)
(0 0 0.00433941)
(0 0 0.00438183)
(0 0 0.00442357)
(0 0 0.00446461)
(0 0 0.00450491)
(0 0 0.00454447)
(0 0 0.00458325)
(0 0 0.00462123)
(0 0 0.00465839)
(0 0 0.00469469)
(0 0 0.00473012)
(0 0 0.00476465)
(0 0 0.00479827)
(0 0 0.00483094)
(0 0 0.00486264)
(0 0 0.00489335)
(0 0 0.00492305)
(0 0 0.00495172)
(0 0 0.00497934)
(0 0 0.00500589)
(0 0 0.00503134)
(0 0 0.00505568)
(0 0 0.0050789)
(0 0 0.00510097)
(0 0 0.00512188)
(0 0 0.00514162)
(0 0 0.00516016)
(0 0 0.0051775)
(0 0 0.00519362)
(0 0 0.00520852)
(0 0 0.00522218)
(0 0 0.00523459)
(0 0 0.00524574)
(0 0 0.00525564)
(0 0 0.00526426)
(0 0 0.00527161)
(0 0 0.00527768)
(0 0 0.00528248)
(0 0 0.00528599)
(0 0 0.00528822)
(0 0 0.00528917)
(0 0 0.00528885)
(0 0 0.00528724)
(0 0 0.00528437)
(0 0 0.00528022)
(0 0 0.00527482)
(0 0 0.00526817)
(0 0 0.00526027)
(0 0 0.00525114)
(0 0 0.00524078)
(0 0 0.00522921)
(0 0 0.00521644)
(0 0 0.00520248)
(0 0 0.00518735)
(0 0 0.00517106)
(0 0 0.00515363)
(0 0 0.00513507)
(0 0 0.0051154)
(0 0 0.00509464)
(0 0 0.00507281)
(0 0 0.00504993)
(0 0 0.00502601)
(0 0 0.00500107)
(0 0 0.00497514)
(0 0 0.00494824)
(0 0 0.00492039)
(0 0 0.00489161)
(0 0 0.00486191)
(0 0 0.00483134)
(0 0 0.0047999)
(0 0 0.00476761)
(0 0 0.00473451)
(0 0 0.00470061)
(0 0 0.00466594)
(0 0 0.00463052)
(0 0 0.00459438)
(0 0 0.00455752)
(0 0 0.00451999)
(0 0 0.00448179)
(0 0 0.00444296)
(0 0 0.00440351)
(0 0 0.00436347)
(0 0 0.00432285)
(0 0 0.00428169)
(0 0 0.00424)
(0 0 0.0041978)
(0 0 0.00415511)
(0 0 0.00411196)
(0 0 0.00406836)
(0 0 0.00402433)
(0 0 0.0039799)
(0 0 0.00393508)
(0 0 0.00388988)
(0 0 0.00384434)
(0 0 0.00379845)
(0 0 0.00375226)
(0 0 0.00370576)
(0 0 0.00365897)
(0 0 0.00361192)
(0 0 0.00356462)
(0 0 0.00351707)
(0 0 0.00346931)
(0 0 0.00342133)
(0 0 0.00337316)
(0 0 0.00332481)
(0 0 0.00327629)
(0 0 0.00322761)
(0 0 0.00317879)
(0 0 0.00312983)
(0 0 0.00308075)
(0 0 0.00303156)
(0 0 0.00298227)
(0 0 0.00293288)
(0 0 0.00288341)
(0 0 0.00283387)
(0 0 0.00278427)
(0 0 0.00273461)
(0 0 0.00268489)
(0 0 0.00263514)
(0 0 0.00258535)
(0 0 0.00253554)
(0 0 0.0024857)
(0 0 0.00243585)
(0 0 0.00238598)
(0 0 0.00233611)
(0 0 0.00228624)
(0 0 0.00223638)
(0 0 0.00218652)
(0 0 0.00213668)
(0 0 0.00208685)
(0 0 0.00203705)
(0 0 0.00198726)
(0 0 0.0019375)
(0 0 0.00188777)
(0 0 0.00183808)
(0 0 0.00178841)
(0 0 0.00173878)
(0 0 0.00168918)
(0 0 0.00163962)
(0 0 0.0015901)
(0 0 0.00154062)
(0 0 0.00149119)
(0 0 0.00144179)
(0 0 0.00139243)
(0 0 0.00134312)
(0 0 0.00129384)
(0 0 0.00124461)
(0 0 0.00119542)
(0 0 0.00114627)
(0 0 0.00109716)
(0 0 0.00104809)
(0 0 0.000999057)
(0 0 0.000950063)
(0 0 0.000901105)
(0 0 0.000852182)
(0 0 0.000803293)
(0 0 0.000754437)
(0 0 0.000705612)
(0 0 0.000656816)
(0 0 0.000608048)
(0 0 0.000559305)
(0 0 0.000510587)
(0 0 0.000461891)
(0 0 0.000413216)
(0 0 0.000364559)
(0 0 0.000315918)
(0 0 0.000267291)
(0 0 0.000218676)
(0 0 0.000170071)
(0 0 0.000121474)
(0 0 7.28822e-05)
(0 0 2.42937e-05)
(0 0 4.31013e-05)
(0 0 0.000129307)
(0 0 0.000215519)
(0 0 0.000301744)
(0 0 0.000387986)
(0 0 0.000474249)
(0 0 0.000560539)
(0 0 0.00064686)
(0 0 0.000733217)
(0 0 0.000819614)
(0 0 0.000906055)
(0 0 0.000992545)
(0 0 0.00107909)
(0 0 0.00116569)
(0 0 0.00125235)
(0 0 0.00133907)
(0 0 0.00142586)
(0 0 0.00151272)
(0 0 0.00159966)
(0 0 0.00168667)
(0 0 0.00177376)
(0 0 0.00186093)
(0 0 0.00194818)
(0 0 0.00203551)
(0 0 0.00212293)
(0 0 0.00221044)
(0 0 0.00229803)
(0 0 0.00238571)
(0 0 0.00247347)
(0 0 0.00256132)
(0 0 0.00264925)
(0 0 0.00273727)
(0 0 0.00282536)
(0 0 0.00291353)
(0 0 0.00300178)
(0 0 0.00309009)
(0 0 0.00317847)
(0 0 0.00326692)
(0 0 0.00335542)
(0 0 0.00344397)
(0 0 0.00353256)
(0 0 0.00362119)
(0 0 0.00370984)
(0 0 0.00379852)
(0 0 0.0038872)
(0 0 0.00397589)
(0 0 0.00406456)
(0 0 0.00415321)
(0 0 0.00424183)
(0 0 0.0043304)
(0 0 0.00441891)
(0 0 0.00450733)
(0 0 0.00459567)
(0 0 0.0046839)
(0 0 0.004772)
(0 0 0.00485995)
(0 0 0.00494774)
(0 0 0.00503535)
(0 0 0.00512275)
(0 0 0.00520993)
(0 0 0.00529685)
(0 0 0.0053835)
(0 0 0.00546985)
(0 0 0.00555588)
(0 0 0.00564156)
(0 0 0.00572686)
(0 0 0.00581175)
(0 0 0.00589621)
(0 0 0.00598021)
(0 0 0.0060637)
(0 0 0.00614667)
(0 0 0.00622908)
(0 0 0.00631089)
(0 0 0.00639207)
(0 0 0.00647259)
(0 0 0.00655241)
(0 0 0.00663149)
(0 0 0.0067098)
(0 0 0.0067873)
(0 0 0.00686395)
(0 0 0.00693971)
(0 0 0.00701455)
(0 0 0.00708841)
(0 0 0.00716127)
(0 0 0.00723308)
(0 0 0.0073038)
(0 0 0.0073734)
(0 0 0.00744182)
(0 0 0.00750903)
(0 0 0.00757498)
(0 0 0.00763965)
(0 0 0.00770297)
(0 0 0.00776492)
(0 0 0.00782546)
(0 0 0.00788453)
(0 0 0.00794212)
(0 0 0.00799816)
(0 0 0.00805263)
(0 0 0.00810549)
(0 0 0.00815671)
(0 0 0.00820623)
(0 0 0.00825404)
(0 0 0.00830009)
(0 0 0.00834436)
(0 0 0.0083868)
(0 0 0.00842739)
(0 0 0.00846611)
(0 0 0.00850291)
(0 0 0.00853778)
(0 0 0.00857068)
(0 0 0.0086016)
(0 0 0.00863052)
(0 0 0.0086574)
(0 0 0.00868224)
(0 0 0.00870501)
(0 0 0.00872571)
(0 0 0.00874431)
(0 0 0.0087608)
(0 0 0.00877518)
(0 0 0.00878744)
(0 0 0.00879756)
(0 0 0.00880556)
(0 0 0.00881141)
(0 0 0.00881513)
(0 0 0.00881671)
(0 0 0.00881616)
(0 0 0.00881348)
(0 0 0.00880868)
(0 0 0.00880177)
(0 0 0.00879276)
(0 0 0.00878166)
(0 0 0.00876849)
(0 0 0.00875325)
(0 0 0.00873598)
(0 0 0.00871668)
(0 0 0.00869538)
(0 0 0.0086721)
(0 0 0.00864687)
(0 0 0.0086197)
(0 0 0.00859063)
(0 0 0.00855968)
(0 0 0.00852688)
(0 0 0.00849226)
(0 0 0.00845586)
(0 0 0.00841769)
(0 0 0.0083778)
(0 0 0.00833622)
(0 0 0.00829299)
(0 0 0.00824813)
(0 0 0.00820168)
(0 0 0.00815368)
(0 0 0.00810417)
(0 0 0.00805319)
(0 0 0.00800076)
(0 0 0.00794693)
(0 0 0.00789174)
(0 0 0.00783522)
(0 0 0.00777741)
(0 0 0.00771835)
(0 0 0.00765807)
(0 0 0.00759663)
(0 0 0.00753404)
(0 0 0.00747036)
(0 0 0.00740561)
(0 0 0.00733984)
(0 0 0.00727308)
(0 0 0.00720537)
(0 0 0.00713674)
(0 0 0.00706723)
(0 0 0.00699687)
(0 0 0.00692571)
(0 0 0.00685376)
(0 0 0.00678108)
(0 0 0.00670768)
(0 0 0.0066336)
(0 0 0.00655887)
(0 0 0.00648353)
(0 0 0.0064076)
(0 0 0.00633111)
(0 0 0.00625409)
(0 0 0.00617657)
(0 0 0.00609858)
(0 0 0.00602015)
(0 0 0.00594129)
(0 0 0.00586203)
(0 0 0.00578241)
(0 0 0.00570244)
(0 0 0.00562214)
(0 0 0.00554154)
(0 0 0.00546065)
(0 0 0.00537951)
(0 0 0.00529812)
(0 0 0.00521652)
(0 0 0.00513471)
(0 0 0.00505271)
(0 0 0.00497054)
(0 0 0.00488823)
(0 0 0.00480577)
(0 0 0.00472319)
(0 0 0.00464051)
(0 0 0.00455773)
(0 0 0.00447487)
(0 0 0.00439194)
(0 0 0.00430895)
(0 0 0.00422592)
(0 0 0.00414285)
(0 0 0.00405975)
(0 0 0.00397664)
(0 0 0.00389352)
(0 0 0.0038104)
(0 0 0.00372729)
(0 0 0.00364419)
(0 0 0.00356111)
(0 0 0.00347807)
(0 0 0.00339505)
(0 0 0.00331207)
(0 0 0.00322914)
(0 0 0.00314626)
(0 0 0.00306342)
(0 0 0.00298064)
(0 0 0.00289792)
(0 0 0.00281526)
(0 0 0.00273266)
(0 0 0.00265013)
(0 0 0.00256766)
(0 0 0.00248526)
(0 0 0.00240293)
(0 0 0.00232067)
(0 0 0.00223848)
(0 0 0.00215636)
(0 0 0.0020743)
(0 0 0.00199232)
(0 0 0.0019104)
(0 0 0.00182856)
(0 0 0.00174677)
(0 0 0.00166505)
(0 0 0.0015834)
(0 0 0.0015018)
(0 0 0.00142027)
(0 0 0.00133879)
(0 0 0.00125736)
(0 0 0.00117599)
(0 0 0.00109466)
(0 0 0.00101338)
(0 0 0.000932148)
(0 0 0.000850954)
(0 0 0.000769796)
(0 0 0.000688673)
(0 0 0.000607579)
(0 0 0.000526513)
(0 0 0.000445471)
(0 0 0.000364449)
(0 0 0.000283443)
(0 0 0.00020245)
(0 0 0.000121466)
(0 0 4.04882e-05)
(0 0 6.03385e-05)
(0 0 0.000181019)
(0 0 0.00030171)
(0 0 0.000422417)
(0 0 0.000543149)
(0 0 0.000663911)
(0 0 0.000784711)
(0 0 0.000905554)
(0 0 0.00102645)
(0 0 0.0011474)
(0 0 0.00126841)
(0 0 0.00138949)
(0 0 0.00151064)
(0 0 0.00163188)
(0 0 0.0017532)
(0 0 0.00187461)
(0 0 0.00199611)
(0 0 0.00211771)
(0 0 0.00223942)
(0 0 0.00236123)
(0 0 0.00248315)
(0 0 0.00260518)
(0 0 0.00272733)
(0 0 0.0028496)
(0 0 0.00297199)
(0 0 0.00309449)
(0 0 0.00321712)
(0 0 0.00333987)
(0 0 0.00346274)
(0 0 0.00358573)
(0 0 0.00370884)
(0 0 0.00383206)
(0 0 0.0039554)
(0 0 0.00407884)
(0 0 0.00420239)
(0 0 0.00432604)
(0 0 0.00444978)
(0 0 0.00457361)
(0 0 0.00469751)
(0 0 0.00482149)
(0 0 0.00494553)
(0 0 0.00506962)
(0 0 0.00519375)
(0 0 0.00531791)
(0 0 0.00544208)
(0 0 0.00556626)
(0 0 0.00569042)
(0 0 0.00581455)
(0 0 0.00593863)
(0 0 0.00606265)
(0 0 0.00618657)
(0 0 0.0063104)
(0 0 0.00643409)
(0 0 0.00655763)
(0 0 0.006681)
(0 0 0.00680416)
(0 0 0.0069271)
(0 0 0.00704978)
(0 0 0.00717217)
(0 0 0.00729425)
(0 0 0.00741597)
(0 0 0.00753732)
(0 0 0.00765825)
(0 0 0.00777873)
(0 0 0.00789871)
(0 0 0.00801817)
(0 0 0.00813707)
(0 0 0.00825535)
(0 0 0.00837298)
(0 0 0.00848992)
(0 0 0.00860612)
(0 0 0.00872154)
(0 0 0.00883612)
(0 0 0.00894983)
(0 0 0.00906261)
(0 0 0.00917441)
(0 0 0.00928517)
(0 0 0.00939486)
(0 0 0.00950341)
(0 0 0.00961078)
(0 0 0.0097169)
(0 0 0.00982172)
(0 0 0.00992519)
(0 0 0.0100272)
(0 0 0.0101278)
(0 0 0.0102269)
(0 0 0.0103244)
(0 0 0.0104202)
(0 0 0.0105144)
(0 0 0.0106068)
(0 0 0.0106974)
(0 0 0.0107861)
(0 0 0.0108729)
(0 0 0.0109577)
(0 0 0.0110404)
(0 0 0.0111211)
(0 0 0.0111996)
(0 0 0.0112759)
(0 0 0.01135)
(0 0 0.0114217)
(0 0 0.0114911)
(0 0 0.0115581)
(0 0 0.0116226)
(0 0 0.0116846)
(0 0 0.0117441)
(0 0 0.011801)
(0 0 0.0118552)
(0 0 0.0119068)
(0 0 0.0119556)
(0 0 0.0120017)
(0 0 0.0120451)
(0 0 0.0120856)
(0 0 0.0121232)
(0 0 0.012158)
(0 0 0.0121899)
(0 0 0.0122189)
(0 0 0.012245)
(0 0 0.0122681)
(0 0 0.0122882)
(0 0 0.0123054)
(0 0 0.0123196)
(0 0 0.0123308)
(0 0 0.012339)
(0 0 0.0123442)
(0 0 0.0123464)
(0 0 0.0123456)
(0 0 0.0123418)
(0 0 0.0123351)
(0 0 0.0123254)
(0 0 0.0123128)
(0 0 0.0122972)
(0 0 0.0122788)
(0 0 0.0122574)
(0 0 0.0122332)
(0 0 0.0122062)
(0 0 0.0121763)
(0 0 0.0121437)
(0 0 0.0121083)
(0 0 0.0120703)
(0 0 0.0120295)
(0 0 0.0119861)
(0 0 0.0119402)
(0 0 0.0118917)
(0 0 0.0118407)
(0 0 0.0117872)
(0 0 0.0117313)
(0 0 0.011673)
(0 0 0.0116125)
(0 0 0.0115496)
(0 0 0.0114845)
(0 0 0.0114173)
(0 0 0.0113479)
(0 0 0.0112765)
(0 0 0.011203)
(0 0 0.0111276)
(0 0 0.0110503)
(0 0 0.0109711)
(0 0 0.0108901)
(0 0 0.0108074)
(0 0 0.0107229)
(0 0 0.0106369)
(0 0 0.0105492)
(0 0 0.01046)
(0 0 0.0103693)
(0 0 0.0102772)
(0 0 0.0101836)
(0 0 0.0100888)
(0 0 0.00999267)
(0 0 0.00989531)
(0 0 0.00979676)
(0 0 0.00969708)
(0 0 0.00959631)
(0 0 0.0094945)
(0 0 0.0093917)
(0 0 0.00928794)
(0 0 0.00918328)
(0 0 0.00907776)
(0 0 0.00897142)
(0 0 0.00886429)
(0 0 0.00875643)
(0 0 0.00864787)
(0 0 0.00853864)
(0 0 0.0084288)
(0 0 0.00831836)
(0 0 0.00820737)
(0 0 0.00809586)
(0 0 0.00798387)
(0 0 0.00787142)
(0 0 0.00775855)
(0 0 0.00764528)
(0 0 0.00753165)
(0 0 0.00741769)
(0 0 0.00730341)
(0 0 0.00718885)
(0 0 0.00707403)
(0 0 0.00695898)
(0 0 0.00684371)
(0 0 0.00672825)
(0 0 0.00661262)
(0 0 0.00649685)
(0 0 0.00638094)
(0 0 0.00626491)
(0 0 0.0061488)
(0 0 0.0060326)
(0 0 0.00591634)
(0 0 0.00580002)
(0 0 0.00568368)
(0 0 0.00556731)
(0 0 0.00545093)
(0 0 0.00533455)
(0 0 0.00521818)
(0 0 0.00510184)
(0 0 0.00498552)
(0 0 0.00486925)
(0 0 0.00475302)
(0 0 0.00463684)
(0 0 0.00452073)
(0 0 0.00440469)
(0 0 0.00428871)
(0 0 0.00417282)
(0 0 0.00405701)
(0 0 0.00394128)
(0 0 0.00382564)
(0 0 0.00371009)
(0 0 0.00359463)
(0 0 0.00347927)
(0 0 0.00336401)
(0 0 0.00324884)
(0 0 0.00313377)
(0 0 0.0030188)
(0 0 0.00290393)
(0 0 0.00278915)
(0 0 0.00267447)
(0 0 0.00255989)
(0 0 0.00244539)
(0 0 0.00233099)
(0 0 0.00221667)
(0 0 0.00210244)
(0 0 0.00198829)
(0 0 0.00187422)
(0 0 0.00176023)
(0 0 0.00164631)
(0 0 0.00153246)
(0 0 0.00141868)
(0 0 0.00130495)
(0 0 0.00119128)
(0 0 0.00107767)
(0 0 0.000964099)
(0 0 0.000850573)
(0 0 0.000737086)
(0 0 0.000623631)
(0 0 0.000510205)
(0 0 0.000396802)
(0 0 0.000283417)
(0 0 0.000170045)
(0 0 5.66809e-05)
(0 0 7.75721e-05)
(0 0 0.000232721)
(0 0 0.000387883)
(0 0 0.000543067)
(0 0 0.000698282)
(0 0 0.000853536)
(0 0 0.00100884)
(0 0 0.0011642)
(0 0 0.00131962)
(0 0 0.00147512)
(0 0 0.00163069)
(0 0 0.00178636)
(0 0 0.00194212)
(0 0 0.00209798)
(0 0 0.00225396)
(0 0 0.00241004)
(0 0 0.00256625)
(0 0 0.00272259)
(0 0 0.00287906)
(0 0 0.00303567)
(0 0 0.00319242)
(0 0 0.00334932)
(0 0 0.00350637)
(0 0 0.00366357)
(0 0 0.00382092)
(0 0 0.00397843)
(0 0 0.00413609)
(0 0 0.00429391)
(0 0 0.00445189)
(0 0 0.00461002)
(0 0 0.00476831)
(0 0 0.00492674)
(0 0 0.00508532)
(0 0 0.00524404)
(0 0 0.0054029)
(0 0 0.00556189)
(0 0 0.00572099)
(0 0 0.00588021)
(0 0 0.00603954)
(0 0 0.00619895)
(0 0 0.00635845)
(0 0 0.00651801)
(0 0 0.00667763)
(0 0 0.00683729)
(0 0 0.00699696)
(0 0 0.00715664)
(0 0 0.0073163)
(0 0 0.00747593)
(0 0 0.00763549)
(0 0 0.00779498)
(0 0 0.00795435)
(0 0 0.00811359)
(0 0 0.00827266)
(0 0 0.00843154)
(0 0 0.0085902)
(0 0 0.0087486)
(0 0 0.00890671)
(0 0 0.00906449)
(0 0 0.0092219)
(0 0 0.00937891)
(0 0 0.00953548)
(0 0 0.00969155)
(0 0 0.00984709)
(0 0 0.0100021)
(0 0 0.0101564)
(0 0 0.0103101)
(0 0 0.010463)
(0 0 0.0106151)
(0 0 0.0107665)
(0 0 0.0109169)
(0 0 0.0110664)
(0 0 0.0112148)
(0 0 0.0113622)
(0 0 0.0115085)
(0 0 0.0116536)
(0 0 0.0117974)
(0 0 0.0119399)
(0 0 0.0120811)
(0 0 0.0122207)
(0 0 0.0123588)
(0 0 0.0124954)
(0 0 0.0126302)
(0 0 0.0127634)
(0 0 0.0128947)
(0 0 0.0130241)
(0 0 0.0131516)
(0 0 0.013277)
(0 0 0.0134004)
(0 0 0.0135215)
(0 0 0.0136404)
(0 0 0.013757)
(0 0 0.0138711)
(0 0 0.0139828)
(0 0 0.0140919)
(0 0 0.0141984)
(0 0 0.0143023)
(0 0 0.0144033)
(0 0 0.0145015)
(0 0 0.0145968)
(0 0 0.0146891)
(0 0 0.0147784)
(0 0 0.0148646)
(0 0 0.0149477)
(0 0 0.0150275)
(0 0 0.015104)
(0 0 0.0151772)
(0 0 0.015247)
(0 0 0.0153134)
(0 0 0.0153762)
(0 0 0.0154356)
(0 0 0.0154913)
(0 0 0.0155435)
(0 0 0.0155919)
(0 0 0.0156367)
(0 0 0.0156778)
(0 0 0.0157151)
(0 0 0.0157486)
(0 0 0.0157783)
(0 0 0.0158042)
(0 0 0.0158263)
(0 0 0.0158446)
(0 0 0.015859)
(0 0 0.0158695)
(0 0 0.0158762)
(0 0 0.015879)
(0 0 0.015878)
(0 0 0.0158732)
(0 0 0.0158645)
(0 0 0.015852)
(0 0 0.0158357)
(0 0 0.0158157)
(0 0 0.0157919)
(0 0 0.0157644)
(0 0 0.0157333)
(0 0 0.0156984)
(0 0 0.01566)
(0 0 0.015618)
(0 0 0.0155725)
(0 0 0.0155235)
(0 0 0.015471)
(0 0 0.0154152)
(0 0 0.015356)
(0 0 0.0152936)
(0 0 0.0152279)
(0 0 0.0151591)
(0 0 0.0150872)
(0 0 0.0150122)
(0 0 0.0149342)
(0 0 0.0148533)
(0 0 0.0147695)
(0 0 0.014683)
(0 0 0.0145937)
(0 0 0.0145018)
(0 0 0.0144073)
(0 0 0.0143102)
(0 0 0.0142107)
(0 0 0.0141088)
(0 0 0.0140046)
(0 0 0.0138981)
(0 0 0.0137895)
(0 0 0.0136787)
(0 0 0.0135659)
(0 0 0.0134511)
(0 0 0.0133344)
(0 0 0.0132159)
(0 0 0.0130955)
(0 0 0.0129735)
(0 0 0.0128498)
(0 0 0.0127246)
(0 0 0.0125978)
(0 0 0.0124695)
(0 0 0.0123399)
(0 0 0.0122089)
(0 0 0.0120767)
(0 0 0.0119432)
(0 0 0.0118086)
(0 0 0.0116728)
(0 0 0.011536)
(0 0 0.0113982)
(0 0 0.0112595)
(0 0 0.0111198)
(0 0 0.0109793)
(0 0 0.010838)
(0 0 0.010696)
(0 0 0.0105532)
(0 0 0.0104098)
(0 0 0.0102658)
(0 0 0.0101211)
(0 0 0.00997595)
(0 0 0.00983028)
(0 0 0.00968413)
(0 0 0.00953756)
(0 0 0.00939059)
(0 0 0.00924325)
(0 0 0.00909559)
(0 0 0.00894762)
(0 0 0.00879939)
(0 0 0.0086509)
(0 0 0.0085022)
(0 0 0.00835331)
(0 0 0.00820426)
(0 0 0.00805506)
(0 0 0.00790573)
(0 0 0.00775631)
(0 0 0.00760681)
(0 0 0.00745724)
(0 0 0.00730763)
(0 0 0.00715799)
(0 0 0.00700834)
(0 0 0.00685869)
(0 0 0.00670906)
(0 0 0.00655945)
(0 0 0.00640989)
(0 0 0.00626038)
(0 0 0.00611093)
(0 0 0.00596155)
(0 0 0.00581226)
(0 0 0.00566305)
(0 0 0.00551393)
(0 0 0.00536491)
(0 0 0.00521601)
(0 0 0.00506721)
(0 0 0.00491852)
(0 0 0.00476996)
(0 0 0.00462151)
(0 0 0.00447319)
(0 0 0.00432499)
(0 0 0.00417692)
(0 0 0.00402897)
(0 0 0.00388115)
(0 0 0.00373346)
(0 0 0.00358589)
(0 0 0.00343845)
(0 0 0.00329112)
(0 0 0.00314392)
(0 0 0.00299683)
(0 0 0.00284986)
(0 0 0.002703)
(0 0 0.00255624)
(0 0 0.00240959)
(0 0 0.00226303)
(0 0 0.00211657)
(0 0 0.0019702)
(0 0 0.00182391)
(0 0 0.0016777)
(0 0 0.00153156)
(0 0 0.00138549)
(0 0 0.00123948)
(0 0 0.00109353)
(0 0 0.000947625)
(0 0 0.000801763)
(0 0 0.000655938)
(0 0 0.000510143)
(0 0 0.000364372)
(0 0 0.000218616)
(0 0 7.28711e-05)
(0 0 9.48014e-05)
(0 0 0.00028441)
(0 0 0.000474034)
(0 0 0.000663686)
(0 0 0.000853375)
(0 0 0.00104311)
(0 0 0.00123291)
(0 0 0.00142278)
(0 0 0.00161272)
(0 0 0.00180276)
(0 0 0.00199289)
(0 0 0.00218313)
(0 0 0.00237349)
(0 0 0.00256398)
(0 0 0.0027546)
(0 0 0.00294536)
(0 0 0.00313627)
(0 0 0.00332734)
(0 0 0.00351858)
(0 0 0.00370998)
(0 0 0.00390155)
(0 0 0.00409331)
(0 0 0.00428525)
(0 0 0.00447738)
(0 0 0.00466969)
(0 0 0.0048622)
(0 0 0.0050549)
(0 0 0.0052478)
(0 0 0.00544088)
(0 0 0.00563416)
(0 0 0.00582762)
(0 0 0.00602127)
(0 0 0.0062151)
(0 0 0.00640911)
(0 0 0.00660328)
(0 0 0.00679761)
(0 0 0.00699209)
(0 0 0.00718672)
(0 0 0.00738147)
(0 0 0.00757633)
(0 0 0.0077713)
(0 0 0.00796635)
(0 0 0.00816147)
(0 0 0.00835664)
(0 0 0.00855184)
(0 0 0.00874704)
(0 0 0.00894223)
(0 0 0.00913737)
(0 0 0.00933244)
(0 0 0.00952741)
(0 0 0.00972226)
(0 0 0.00991694)
(0 0 0.0101114)
(0 0 0.0103057)
(0 0 0.0104997)
(0 0 0.0106933)
(0 0 0.0108866)
(0 0 0.0110796)
(0 0 0.011272)
(0 0 0.011464)
(0 0 0.0116555)
(0 0 0.0118463)
(0 0 0.0120365)
(0 0 0.012226)
(0 0 0.0124147)
(0 0 0.0126027)
(0 0 0.0127897)
(0 0 0.0129758)
(0 0 0.0131608)
(0 0 0.0133448)
(0 0 0.0135276)
(0 0 0.0137092)
(0 0 0.0138895)
(0 0 0.0140684)
(0 0 0.0142458)
(0 0 0.0144218)
(0 0 0.0145961)
(0 0 0.0147687)
(0 0 0.0149395)
(0 0 0.0151085)
(0 0 0.0152755)
(0 0 0.0154405)
(0 0 0.0156034)
(0 0 0.015764)
(0 0 0.0159224)
(0 0 0.0160783)
(0 0 0.0162318)
(0 0 0.0163827)
(0 0 0.0165309)
(0 0 0.0166764)
(0 0 0.016819)
(0 0 0.0169586)
(0 0 0.0170953)
(0 0 0.0172288)
(0 0 0.0173591)
(0 0 0.0174862)
(0 0 0.0176098)
(0 0 0.01773)
(0 0 0.0178466)
(0 0 0.0179596)
(0 0 0.0180689)
(0 0 0.0181743)
(0 0 0.0182759)
(0 0 0.0183736)
(0 0 0.0184673)
(0 0 0.0185568)
(0 0 0.0186422)
(0 0 0.0187234)
(0 0 0.0188004)
(0 0 0.018873)
(0 0 0.0189412)
(0 0 0.019005)
(0 0 0.0190643)
(0 0 0.0191191)
(0 0 0.0191693)
(0 0 0.019215)
(0 0 0.019256)
(0 0 0.0192924)
(0 0 0.0193241)
(0 0 0.0193511)
(0 0 0.0193734)
(0 0 0.019391)
(0 0 0.0194039)
(0 0 0.0194121)
(0 0 0.0194155)
(0 0 0.0194143)
(0 0 0.0194083)
(0 0 0.0193977)
(0 0 0.0193824)
(0 0 0.0193625)
(0 0 0.0193379)
(0 0 0.0193088)
(0 0 0.0192751)
(0 0 0.019237)
(0 0 0.0191943)
(0 0 0.0191473)
(0 0 0.0190959)
(0 0 0.0190401)
(0 0 0.0189801)
(0 0 0.0189159)
(0 0 0.0188476)
(0 0 0.0187752)
(0 0 0.0186987)
(0 0 0.0186184)
(0 0 0.0185341)
(0 0 0.0184461)
(0 0 0.0183543)
(0 0 0.0182589)
(0 0 0.0181599)
(0 0 0.0180574)
(0 0 0.0179514)
(0 0 0.0178422)
(0 0 0.0177297)
(0 0 0.017614)
(0 0 0.0174953)
(0 0 0.0173735)
(0 0 0.0172488)
(0 0 0.0171213)
(0 0 0.016991)
(0 0 0.0168581)
(0 0 0.0167226)
(0 0 0.0165846)
(0 0 0.0164441)
(0 0 0.0163014)
(0 0 0.0161564)
(0 0 0.0160092)
(0 0 0.0158599)
(0 0 0.0157086)
(0 0 0.0155554)
(0 0 0.0154003)
(0 0 0.0152434)
(0 0 0.0150848)
(0 0 0.0149246)
(0 0 0.0147629)
(0 0 0.0145996)
(0 0 0.0144349)
(0 0 0.0142689)
(0 0 0.0141016)
(0 0 0.0139331)
(0 0 0.0137634)
(0 0 0.0135926)
(0 0 0.0134208)
(0 0 0.013248)
(0 0 0.0130743)
(0 0 0.0128997)
(0 0 0.0127244)
(0 0 0.0125482)
(0 0 0.0123714)
(0 0 0.0121939)
(0 0 0.0120157)
(0 0 0.011837)
(0 0 0.0116578)
(0 0 0.0114781)
(0 0 0.011298)
(0 0 0.0111175)
(0 0 0.0109365)
(0 0 0.0107553)
(0 0 0.0105738)
(0 0 0.010392)
(0 0 0.01021)
(0 0 0.0100277)
(0 0 0.00984532)
(0 0 0.00966277)
(0 0 0.0094801)
(0 0 0.00929734)
(0 0 0.0091145)
(0 0 0.00893161)
(0 0 0.00874868)
(0 0 0.00856575)
(0 0 0.00838281)
(0 0 0.0081999)
(0 0 0.00801703)
(0 0 0.00783421)
(0 0 0.00765145)
(0 0 0.00746878)
(0 0 0.00728619)
(0 0 0.0071037)
(0 0 0.00692131)
(0 0 0.00673905)
(0 0 0.00655691)
(0 0 0.0063749)
(0 0 0.00619302)
(0 0 0.00601129)
(0 0 0.0058297)
(0 0 0.00564826)
(0 0 0.00546698)
(0 0 0.00528585)
(0 0 0.00510487)
(0 0 0.00492405)
(0 0 0.00474338)
(0 0 0.00456287)
(0 0 0.00438251)
(0 0 0.0042023)
(0 0 0.00402224)
(0 0 0.00384233)
(0 0 0.00366257)
(0 0 0.00348294)
(0 0 0.00330345)
(0 0 0.00312409)
(0 0 0.00294485)
(0 0 0.00276574)
(0 0 0.00258674)
(0 0 0.00240785)
(0 0 0.00222906)
(0 0 0.00205037)
(0 0 0.00187177)
(0 0 0.00169325)
(0 0 0.00151481)
(0 0 0.00133644)
(0 0 0.00115812)
(0 0 0.000979859)
(0 0 0.000801642)
(0 0 0.000623461)
(0 0 0.000445309)
(0 0 0.000267178)
(0 0 8.90578e-05)
(0 0 0.000112025)
(0 0 0.000336082)
(0 0 0.000560158)
(0 0 0.000784266)
(0 0 0.00100842)
(0 0 0.00123263)
(0 0 0.00145691)
(0 0 0.00168127)
(0 0 0.00190573)
(0 0 0.0021303)
(0 0 0.00235498)
(0 0 0.00257979)
(0 0 0.00280474)
(0 0 0.00302984)
(0 0 0.0032551)
(0 0 0.00348053)
(0 0 0.00370613)
(0 0 0.00393193)
(0 0 0.00415792)
(0 0 0.00438411)
(0 0 0.0046105)
(0 0 0.00483712)
(0 0 0.00506395)
(0 0 0.005291)
(0 0 0.00551828)
(0 0 0.00574578)
(0 0 0.00597352)
(0 0 0.00620149)
(0 0 0.00642968)
(0 0 0.00665811)
(0 0 0.00688676)
(0 0 0.00711563)
(0 0 0.00734471)
(0 0 0.00757401)
(0 0 0.0078035)
(0 0 0.00803319)
(0 0 0.00826305)
(0 0 0.00849309)
(0 0 0.00872328)
(0 0 0.00895361)
(0 0 0.00918407)
(0 0 0.00941462)
(0 0 0.00964526)
(0 0 0.00987597)
(0 0 0.0101067)
(0 0 0.0103375)
(0 0 0.0105682)
(0 0 0.0107989)
(0 0 0.0110295)
(0 0 0.01126)
(0 0 0.0114903)
(0 0 0.0117205)
(0 0 0.0119504)
(0 0 0.0121801)
(0 0 0.0124094)
(0 0 0.0126384)
(0 0 0.012867)
(0 0 0.0130951)
(0 0 0.0133227)
(0 0 0.0135497)
(0 0 0.0137761)
(0 0 0.0140017)
(0 0 0.0142266)
(0 0 0.0144507)
(0 0 0.0146739)
(0 0 0.0148961)
(0 0 0.0151173)
(0 0 0.0153374)
(0 0 0.0155563)
(0 0 0.0157738)
(0 0 0.0159901)
(0 0 0.0162048)
(0 0 0.0164181)
(0 0 0.0166297)
(0 0 0.0168396)
(0 0 0.0170477)
(0 0 0.0172539)
(0 0 0.0174581)
(0 0 0.0176602)
(0 0 0.0178601)
(0 0 0.0180577)
(0 0 0.0182529)
(0 0 0.0184456)
(0 0 0.0186356)
(0 0 0.018823)
(0 0 0.0190075)
(0 0 0.0191891)
(0 0 0.0193676)
(0 0 0.019543)
(0 0 0.0197151)
(0 0 0.0198839)
(0 0 0.0200492)
(0 0 0.0202109)
(0 0 0.0203689)
(0 0 0.0205231)
(0 0 0.0206735)
(0 0 0.0208198)
(0 0 0.020962)
(0 0 0.0211)
(0 0 0.0212337)
(0 0 0.0213631)
(0 0 0.0214879)
(0 0 0.0216082)
(0 0 0.0217237)
(0 0 0.0218346)
(0 0 0.0219406)
(0 0 0.0220417)
(0 0 0.0221378)
(0 0 0.0222288)
(0 0 0.0223148)
(0 0 0.0223955)
(0 0 0.022471)
(0 0 0.0225412)
(0 0 0.0226061)
(0 0 0.0226655)
(0 0 0.0227195)
(0 0 0.0227681)
(0 0 0.0228111)
(0 0 0.0228486)
(0 0 0.0228806)
(0 0 0.022907)
(0 0 0.0229278)
(0 0 0.0229431)
(0 0 0.0229527)
(0 0 0.0229568)
(0 0 0.0229552)
(0 0 0.0229482)
(0 0 0.0229356)
(0 0 0.0229174)
(0 0 0.0228938)
(0 0 0.0228647)
(0 0 0.0228302)
(0 0 0.0227903)
(0 0 0.0227451)
(0 0 0.0226946)
(0 0 0.0226389)
(0 0 0.022578)
(0 0 0.022512)
(0 0 0.022441)
(0 0 0.022365)
(0 0 0.0222841)
(0 0 0.0221983)
(0 0 0.0221078)
(0 0 0.0220127)
(0 0 0.0219129)
(0 0 0.0218087)
(0 0 0.0217001)
(0 0 0.0215871)
(0 0 0.0214699)
(0 0 0.0213486)
(0 0 0.0212232)
(0 0 0.0210939)
(0 0 0.0209608)
(0 0 0.0208239)
(0 0 0.0206833)
(0 0 0.0205392)
(0 0 0.0203917)
(0 0 0.0202408)
(0 0 0.0200866)
(0 0 0.0199293)
(0 0 0.019769)
(0 0 0.0196057)
(0 0 0.0194395)
(0 0 0.0192706)
(0 0 0.019099)
(0 0 0.0189249)
(0 0 0.0187483)
(0 0 0.0185693)
(0 0 0.018388)
(0 0 0.0182045)
(0 0 0.018019)
(0 0 0.0178314)
(0 0 0.0176419)
(0 0 0.0174506)
(0 0 0.0172575)
(0 0 0.0170627)
(0 0 0.0168663)
(0 0 0.0166684)
(0 0 0.0164691)
(0 0 0.0162684)
(0 0 0.0160665)
(0 0 0.0158633)
(0 0 0.0156589)
(0 0 0.0154535)
(0 0 0.0152471)
(0 0 0.0150397)
(0 0 0.0148314)
(0 0 0.0146223)
(0 0 0.0144124)
(0 0 0.0142018)
(0 0 0.0139905)
(0 0 0.0137786)
(0 0 0.0135661)
(0 0 0.0133531)
(0 0 0.0131397)
(0 0 0.0129258)
(0 0 0.0127115)
(0 0 0.0124969)
(0 0 0.012282)
(0 0 0.0120668)
(0 0 0.0118514)
(0 0 0.0116357)
(0 0 0.0114199)
(0 0 0.011204)
(0 0 0.0109879)
(0 0 0.0107718)
(0 0 0.0105556)