/*--------------------------------*- C++ -*----------------------------------*\
| =========                 |                                                 |
| \\      /  F ield         | OpenFOAM: The Open Source CFD Toolbox           |
|  \\    /   O peration     | Version:  v2012                                 |
|   \\  /    A nd           | Website:  www.openfoam.com                      |
|    \\/     M anipulation  |                                                 |
\*---------------------------------------------------------------------------*/
FoamFile
{
    version     2.0;
    format      ascii;
    class       volVectorField;
    location    "14.3";
    object      U;
}
// * * * * * * * * * * * * * * * * * * * * * * * * * * * * * * * * * * * * * //

dimensions      [0 1 -1 0 0 0 0];


internalField   nonuniform List<vector> 
65536
(
(0.000703699 -0.000703716 0)
(0.00211114 -0.000703759 0)
(0.0035187 -0.000703838 0)
(0.00492646 -0.000703957 0)
(0.0063345 -0.000704114 0)
(0.00774288 -0.000704309 0)
(0.0091517 -0.000704543 0)
(0.010561 -0.000704813 0)
(0.0119709 -0.000705121 0)
(0.0133815 -0.000705463 0)
(0.0147927 -0.000705841 0)
(0.0162048 -0.000706251 0)
(0.0176177 -0.000706694 0)
(0.0190316 -0.000707168 0)
(0.0204464 -0.000707671 0)
(0.0218622 -0.000708202 0)
(0.0232792 -0.000708758 0)
(0.0246972 -0.000709339 0)
(0.0261165 -0.000709942 0)
(0.027537 -0.000710565 0)
(0.0289587 -0.000711205 0)
(0.0303818 -0.000711861 0)
(0.0318062 -0.00071253 0)
(0.0332319 -0.000713209 0)
(0.034659 -0.000713895 0)
(0.0360875 -0.000714586 0)
(0.0375174 -0.000715277 0)
(0.0389486 -0.000715967 0)
(0.0403812 -0.000716652 0)
(0.0418152 -0.000717328 0)
(0.0432506 -0.000717991 0)
(0.0446872 -0.000718638 0)
(0.0461251 -0.000719264 0)
(0.0475643 -0.000719866 0)
(0.0490046 -0.000720439 0)
(0.0504461 -0.000720979 0)
(0.0518886 -0.000721481 0)
(0.0533321 -0.00072194 0)
(0.0547764 -0.000722351 0)
(0.0562215 -0.00072271 0)
(0.0576673 -0.00072301 0)
(0.0591136 -0.000723248 0)
(0.0605604 -0.000723416 0)
(0.0620074 -0.000723509 0)
(0.0634545 -0.000723521 0)
(0.0649015 -0.000723447 0)
(0.0663484 -0.00072328 0)
(0.0677948 -0.000723014 0)
(0.0692405 -0.000722642 0)
(0.0706855 -0.000722158 0)
(0.0721293 -0.000721555 0)
(0.0735718 -0.000720827 0)
(0.0750127 -0.000719965 0)
(0.0764518 -0.000718964 0)
(0.0778887 -0.000717815 0)
(0.0793232 -0.000716513 0)
(0.0807549 -0.000715049 0)
(0.0821836 -0.000713416 0)
(0.0836088 -0.000711607 0)
(0.0850302 -0.000709614 0)
(0.0864474 -0.000707429 0)
(0.0878601 -0.000705047 0)
(0.0892678 -0.000702457 0)
(0.0906701 -0.000699654 0)
(0.0920667 -0.00069663 0)
(0.0934569 -0.000693377 0)
(0.0948404 -0.000689888 0)
(0.0962167 -0.000686157 0)
(0.0975853 -0.000682174 0)
(0.0989456 -0.000677935 0)
(0.100297 -0.000673432 0)
(0.10164 -0.000668658 0)
(0.102972 -0.000663606 0)
(0.104294 -0.000658271 0)
(0.105606 -0.000652647 0)
(0.106905 -0.000646728 0)
(0.108193 -0.000640508 0)
(0.109468 -0.000633983 0)
(0.110729 -0.000627147 0)
(0.111976 -0.000619997 0)
(0.113209 -0.000612527 0)
(0.114427 -0.000604735 0)
(0.115629 -0.000596618 0)
(0.116814 -0.000588172 0)
(0.117982 -0.000579395 0)
(0.119132 -0.000570286 0)
(0.120263 -0.000560843 0)
(0.121375 -0.000551067 0)
(0.122468 -0.000540955 0)
(0.123539 -0.00053051 0)
(0.12459 -0.000519731 0)
(0.125619 -0.000508621 0)
(0.126625 -0.000497182 0)
(0.127608 -0.000485416 0)
(0.128567 -0.000473327 0)
(0.129501 -0.00046092 0)
(0.130411 -0.000448198 0)
(0.131294 -0.000435167 0)
(0.132152 -0.000421834 0)
(0.132982 -0.000408204 0)
(0.133785 -0.000394285 0)
(0.13456 -0.000380086 0)
(0.135305 -0.000365613 0)
(0.136022 -0.000350877 0)
(0.136709 -0.000335888 0)
(0.137366 -0.000320654 0)
(0.137992 -0.000305188 0)
(0.138587 -0.0002895 0)
(0.13915 -0.000273603 0)
(0.139682 -0.000257508 0)
(0.14018 -0.000241229 0)
(0.140647 -0.000224778 0)
(0.14108 -0.000208169 0)
(0.141479 -0.000191416 0)
(0.141846 -0.000174534 0)
(0.142178 -0.000157536 0)
(0.142476 -0.000140438 0)
(0.14274 -0.000123254 0)
(0.142969 -0.000106 0)
(0.143164 -8.86907e-05 0)
(0.143324 -7.13417e-05 0)
(0.143449 -5.39685e-05 0)
(0.14354 -3.65863e-05 0)
(0.143595 -1.92107e-05 0)
(0.143616 -1.85699e-06 0)
(0.143603 1.54597e-05 0)
(0.143554 3.27242e-05 0)
(0.143472 4.99218e-05 0)
(0.143355 6.70376e-05 0)
(0.143203 8.40574e-05 0)
(0.143018 0.000100967 0)
(0.142799 0.000117752 0)
(0.142547 0.000134401 0)
(0.142262 0.000150898 0)
(0.141943 0.000167233 0)
(0.141593 0.000183392 0)
(0.14121 0.000199364 0)
(0.140795 0.000215138 0)
(0.140349 0.000230703 0)
(0.139872 0.000246049 0)
(0.139364 0.000261165 0)
(0.138827 0.000276044 0)
(0.13826 0.000290675 0)
(0.137664 0.000305052 0)
(0.13704 0.000319166 0)
(0.136387 0.000333012 0)
(0.135707 0.000346582 0)
(0.135 0.00035987 0)
(0.134267 0.000372872 0)
(0.133509 0.000385583 0)
(0.132725 0.000397999 0)
(0.131916 0.000410116 0)
(0.131084 0.000421932 0)
(0.130228 0.000433444 0)
(0.12935 0.00044465 0)
(0.128449 0.000455549 0)
(0.127527 0.000466139 0)
(0.126585 0.000476422 0)
(0.125621 0.000486396 0)
(0.124639 0.000496062 0)
(0.123637 0.000505422 0)
(0.122617 0.000514476 0)
(0.121579 0.000523227 0)
(0.120523 0.000531676 0)
(0.119452 0.000539827 0)
(0.118364 0.000547682 0)
(0.117261 0.000555243 0)
(0.116143 0.000562516 0)
(0.11501 0.000569504 0)
(0.113864 0.00057621 0)
(0.112705 0.000582639 0)
(0.111533 0.000588796 0)
(0.11035 0.000594685 0)
(0.109154 0.000600311 0)
(0.107948 0.000605681 0)
(0.106732 0.000610797 0)
(0.105505 0.000615667 0)
(0.104269 0.000620296 0)
(0.103023 0.00062469 0)
(0.10177 0.000628853 0)
(0.100508 0.000632793 0)
(0.0992382 0.000636514 0)
(0.0979615 0.000640024 0)
(0.0966779 0.000643328 0)
(0.095388 0.000646432 0)
(0.094092 0.000649341 0)
(0.0927904 0.000652063 0)
(0.0914836 0.000654604 0)
(0.0901718 0.000656968 0)
(0.0888555 0.000659163 0)
(0.087535 0.000661194 0)
(0.0862106 0.000663067 0)
(0.0848826 0.000664788 0)
(0.0835513 0.000666364 0)
(0.082217 0.000667799 0)
(0.08088 0.000669099 0)
(0.0795405 0.000670271 0)
(0.0781988 0.000671319 0)
(0.0768551 0.000672249 0)
(0.0755097 0.000673067 0)
(0.0741627 0.000673778 0)
(0.0728145 0.000674386 0)
(0.0714651 0.000674898 0)
(0.0701148 0.000675318 0)
(0.0687637 0.000675651 0)
(0.0674121 0.000675901 0)
(0.06606 0.000676075 0)
(0.0647077 0.000676175 0)
(0.0633553 0.000676207 0)
(0.0620028 0.000676175 0)
(0.0606505 0.000676083 0)
(0.0592985 0.000675936 0)
(0.0579467 0.000675737 0)
(0.0565955 0.000675491 0)
(0.0552447 0.0006752 0)
(0.0538946 0.00067487 0)
(0.0525452 0.000674503 0)
(0.0511966 0.000674103 0)
(0.0498488 0.000673674 0)
(0.0485019 0.000673218 0)
(0.0471559 0.000672739 0)
(0.0458109 0.00067224 0)
(0.0444669 0.000671724 0)
(0.043124 0.000671193 0)
(0.0417821 0.000670652 0)
(0.0404414 0.000670101 0)
(0.0391017 0.000669544 0)
(0.0377632 0.000668983 0)
(0.0364258 0.000668421 0)
(0.0350895 0.00066786 0)
(0.0337544 0.000667301 0)
(0.0324203 0.000666748 0)
(0.0310874 0.000666202 0)
(0.0297555 0.000665665 0)
(0.0284247 0.000665138 0)
(0.027095 0.000664624 0)
(0.0257663 0.000664125 0)
(0.0244385 0.00066364 0)
(0.0231117 0.000663173 0)
(0.0217859 0.000662725 0)
(0.0204609 0.000662296 0)
(0.0191367 0.000661889 0)
(0.0178133 0.000661503 0)
(0.0164907 0.000661141 0)
(0.0151688 0.000660803 0)
(0.0138475 0.00066049 0)
(0.0125269 0.000660202 0)
(0.0112068 0.000659942 0)
(0.00988713 0.000659709 0)
(0.00856795 0.000659503 0)
(0.00724915 0.000659327 0)
(0.00593068 0.000659178 0)
(0.00461247 0.000659059 0)
(0.00329448 0.00065897 0)
(0.00197663 0.000658911 0)
(0.000658866 0.000658881 0)
(0.000703663 -0.00211112 0)
(0.00211103 -0.00211124 0)
(0.00351851 -0.00211148 0)
(0.0049262 -0.00211184 0)
(0.00633416 -0.00211231 0)
(0.00774247 -0.0021129 0)
(0.00915121 -0.0021136 0)
(0.0105605 -0.00211441 0)
(0.0119703 -0.00211533 0)
(0.0133808 -0.00211636 0)
(0.014792 -0.00211749 0)
(0.016204 -0.00211873 0)
(0.0176168 -0.00212006 0)
(0.0190306 -0.00212148 0)
(0.0204454 -0.00212299 0)
(0.0218612 -0.00212458 0)
(0.0232781 -0.00212626 0)
(0.0246961 -0.002128 0)
(0.0261153 -0.00212981 0)
(0.0275358 -0.00213168 0)
(0.0289575 -0.00213361 0)
(0.0303805 -0.00213558 0)
(0.0318049 -0.00213758 0)
(0.0332306 -0.00213962 0)
(0.0346577 -0.00214169 0)
(0.0360862 -0.00214376 0)
(0.037516 -0.00214584 0)
(0.0389473 -0.00214791 0)
(0.0403799 -0.00214997 0)
(0.041814 -0.002152 0)
(0.0432493 -0.00215399 0)
(0.044686 -0.00215594 0)
(0.046124 -0.00215782 0)
(0.0475632 -0.00215963 0)
(0.0490036 -0.00216135 0)
(0.0504451 -0.00216298 0)
(0.0518877 -0.00216449 0)
(0.0533313 -0.00216587 0)
(0.0547757 -0.00216711 0)
(0.0562209 -0.00216819 0)
(0.0576669 -0.0021691 0)
(0.0591133 -0.00216981 0)
(0.0605602 -0.00217032 0)
(0.0620074 -0.00217061 0)
(0.0634546 -0.00217065 0)
(0.0649019 -0.00217044 0)
(0.0663489 -0.00216994 0)
(0.0677955 -0.00216915 0)
(0.0692415 -0.00216804 0)
(0.0706866 -0.0021666 0)
(0.0721307 -0.00216479 0)
(0.0735735 -0.00216261 0)
(0.0750147 -0.00216004 0)
(0.076454 -0.00215704 0)
(0.0778913 -0.0021536 0)
(0.0793261 -0.0021497 0)
(0.0807581 -0.00214532 0)
(0.0821871 -0.00214042 0)
(0.0836127 -0.002135 0)
(0.0850345 -0.00212903 0)
(0.0864521 -0.00212249 0)
(0.0878652 -0.00211534 0)
(0.0892733 -0.00210758 0)
(0.0906761 -0.00209918 0)
(0.092073 -0.00209012 0)
(0.0934637 -0.00208037 0)
(0.0948477 -0.00206991 0)
(0.0962245 -0.00205872 0)
(0.0975936 -0.00204678 0)
(0.0989545 -0.00203407 0)
(0.100307 -0.00202056 0)
(0.10165 -0.00200625 0)
(0.102983 -0.0019911 0)
(0.104305 -0.0019751 0)
(0.105617 -0.00195823 0)
(0.106917 -0.00194048 0)
(0.108206 -0.00192183 0)
(0.109481 -0.00190226 0)
(0.110743 -0.00188175 0)
(0.111991 -0.0018603 0)
(0.113225 -0.0018379 0)
(0.114443 -0.00181453 0)
(0.115645 -0.00179018 0)
(0.116831 -0.00176484 0)
(0.118 -0.00173851 0)
(0.11915 -0.00171119 0)
(0.120282 -0.00168286 0)
(0.121395 -0.00165353 0)
(0.122488 -0.00162319 0)
(0.123561 -0.00159186 0)
(0.124612 -0.00155952 0)
(0.125641 -0.00152619 0)
(0.126648 -0.00149187 0)
(0.127632 -0.00145657 0)
(0.128591 -0.0014203 0)
(0.129527 -0.00138307 0)
(0.130437 -0.0013449 0)
(0.131321 -0.0013058 0)
(0.132179 -0.00126579 0)
(0.13301 -0.0012249 0)
(0.133813 -0.00118313 0)
(0.134588 -0.00114052 0)
(0.135335 -0.0010971 0)
(0.136052 -0.00105288 0)
(0.136739 -0.0010079 0)
(0.137397 -0.000962189 0)
(0.138023 -0.000915779 0)
(0.138619 -0.000868705 0)
(0.139182 -0.000821 0)
(0.139714 -0.000772703 0)
(0.140213 -0.000723852 0)
(0.14068 -0.000674486 0)
(0.141113 -0.000624645 0)
(0.141513 -0.000574373 0)
(0.141879 -0.000523711 0)
(0.142212 -0.000472702 0)
(0.14251 -0.000421393 0)
(0.142774 -0.000369826 0)
(0.143003 -0.000318049 0)
(0.143198 -0.000266106 0)
(0.143358 -0.000214043 0)
(0.143484 -0.000161908 0)
(0.143574 -0.000109746 0)
(0.14363 -5.76043e-05 0)
(0.143651 -5.52785e-06 0)
(0.143637 4.64372e-05 0)
(0.143589 9.82457e-05 0)
(0.143506 0.000149853 0)
(0.143389 0.000201215 0)
(0.143237 0.000252288 0)
(0.143052 0.00030303 0)
(0.142833 0.000353401 0)
(0.14258 0.000403358 0)
(0.142295 0.000452864 0)
(0.141976 0.000501879 0)
(0.141625 0.000550369 0)
(0.141241 0.000598297 0)
(0.140826 0.000645629 0)
(0.14038 0.000692334 0)
(0.139902 0.00073838 0)
(0.139394 0.000783739 0)
(0.138856 0.000828382 0)
(0.138289 0.000872285 0)
(0.137692 0.000915423 0)
(0.137067 0.000957773 0)
(0.136414 0.000999315 0)
(0.135734 0.00104003 0)
(0.135027 0.0010799 0)
(0.134293 0.00111891 0)
(0.133534 0.00115705 0)
(0.132749 0.0011943 0)
(0.13194 0.00123065 0)
(0.131107 0.0012661 0)
(0.130251 0.00130064 0)
(0.129372 0.00133426 0)
(0.128471 0.00136696 0)
(0.127548 0.00139873 0)
(0.126605 0.00142958 0)
(0.125641 0.0014595 0)
(0.124658 0.0014885 0)
(0.123655 0.00151657 0)
(0.122634 0.00154373 0)
(0.121596 0.00156998 0)
(0.12054 0.00159533 0)
(0.119468 0.00161978 0)
(0.118379 0.00164334 0)
(0.117275 0.00166602 0)
(0.116157 0.00168784 0)
(0.115024 0.00170879 0)
(0.113877 0.00172891 0)
(0.112718 0.00174819 0)
(0.111545 0.00176666 0)
(0.110361 0.00178432 0)
(0.109165 0.00180119 0)
(0.107959 0.00181729 0)
(0.106741 0.00183264 0)
(0.105514 0.00184724 0)
(0.104278 0.00186112 0)
(0.103032 0.0018743 0)
(0.101778 0.00188678 0)
(0.100515 0.0018986 0)
(0.0992453 0.00190975 0)
(0.0979682 0.00192028 0)
(0.0966842 0.00193018 0)
(0.0953939 0.00193949 0)
(0.0940975 0.00194821 0)
(0.0927956 0.00195637 0)
(0.0914884 0.00196399 0)
(0.0901763 0.00197107 0)
(0.0888596 0.00197765 0)
(0.0875388 0.00198374 0)
(0.0862141 0.00198935 0)
(0.0848858 0.00199451 0)
(0.0835542 0.00199923 0)
(0.0822196 0.00200353 0)
(0.0808823 0.00200742 0)
(0.0795426 0.00201093 0)
(0.0782006 0.00201407 0)
(0.0768567 0.00201686 0)
(0.0755111 0.00201931 0)
(0.0741639 0.00202143 0)
(0.0728155 0.00202325 0)
(0.0714659 0.00202478 0)
(0.0701154 0.00202604 0)
(0.0687642 0.00202703 0)
(0.0674124 0.00202778 0)
(0.0660602 0.00202829 0)
(0.0647078 0.00202859 0)
(0.0633552 0.00202868 0)
(0.0620026 0.00202858 0)
(0.0606502 0.0020283 0)
(0.059298 0.00202786 0)
(0.0579462 0.00202726 0)
(0.0565948 0.00202651 0)
(0.055244 0.00202564 0)
(0.0538938 0.00202464 0)
(0.0525444 0.00202354 0)
(0.0511957 0.00202233 0)
(0.0498478 0.00202104 0)
(0.0485009 0.00201967 0)
(0.0471548 0.00201823 0)
(0.0458098 0.00201673 0)
(0.0444658 0.00201518 0)
(0.0431228 0.00201359 0)
(0.041781 0.00201196 0)
(0.0404402 0.0020103 0)
(0.0391005 0.00200863 0)
(0.037762 0.00200695 0)
(0.0364246 0.00200526 0)
(0.0350883 0.00200357 0)
(0.0337532 0.00200189 0)
(0.0324192 0.00200023 0)
(0.0310863 0.00199859 0)
(0.0297544 0.00199698 0)
(0.0284237 0.0019954 0)
(0.0270939 0.00199385 0)
(0.0257652 0.00199235 0)
(0.0244375 0.0019909 0)
(0.0231108 0.0019895 0)
(0.0217849 0.00198815 0)
(0.02046 0.00198686 0)
(0.0191359 0.00198564 0)
(0.0178126 0.00198448 0)
(0.01649 0.00198339 0)
(0.0151681 0.00198238 0)
(0.0138469 0.00198144 0)
(0.0125263 0.00198058 0)
(0.0112062 0.00197979 0)
(0.00988668 0.00197909 0)
(0.00856755 0.00197848 0)
(0.00724882 0.00197795 0)
(0.0059304 0.0019775 0)
(0.00461226 0.00197714 0)
(0.00329432 0.00197688 0)
(0.00197654 0.0019767 0)
(0.000658835 0.00197661 0)
(0.000703583 -0.00351841 0)
(0.00211079 -0.00351861 0)
(0.00351811 -0.00351901 0)
(0.00492564 -0.0035196 0)
(0.00633344 -0.00352039 0)
(0.0077416 -0.00352137 0)
(0.00915019 -0.00352254 0)
(0.0105593 -0.0035239 0)
(0.011969 -0.00352544 0)
(0.0133793 -0.00352715 0)
(0.0147904 -0.00352905 0)
(0.0162023 -0.00353111 0)
(0.017615 -0.00353333 0)
(0.0190286 -0.0035357 0)
(0.0204433 -0.00353823 0)
(0.021859 -0.00354089 0)
(0.0232758 -0.00354368 0)
(0.0246937 -0.00354659 0)
(0.0261128 -0.00354962 0)
(0.0275332 -0.00355274 0)
(0.0289549 -0.00355596 0)
(0.0303778 -0.00355925 0)
(0.0318022 -0.00356261 0)
(0.0332278 -0.00356602 0)
(0.0346549 -0.00356946 0)
(0.0360834 -0.00357293 0)
(0.0375132 -0.00357641 0)
(0.0389445 -0.00357987 0)
(0.0403772 -0.00358331 0)
(0.0418112 -0.00358671 0)
(0.0432467 -0.00359004 0)
(0.0446834 -0.0035933 0)
(0.0461215 -0.00359645 0)
(0.0475608 -0.00359948 0)
(0.0490013 -0.00360237 0)
(0.050443 -0.00360509 0)
(0.0518857 -0.00360762 0)
(0.0533295 -0.00360994 0)
(0.0547741 -0.00361203 0)
(0.0562196 -0.00361384 0)
(0.0576657 -0.00361537 0)
(0.0591124 -0.00361659 0)
(0.0605596 -0.00361746 0)
(0.0620071 -0.00361795 0)
(0.0634547 -0.00361804 0)
(0.0649023 -0.0036177 0)
(0.0663497 -0.0036169 0)
(0.0677967 -0.0036156 0)
(0.0692431 -0.00361378 0)
(0.0706887 -0.00361139 0)
(0.0721333 -0.00360841 0)
(0.0735766 -0.0036048 0)
(0.0750183 -0.00360053 0)
(0.0764583 -0.00359555 0)
(0.0778961 -0.00358985 0)
(0.0793315 -0.00358337 0)
(0.0807643 -0.00357609 0)
(0.0821939 -0.00356796 0)
(0.0836202 -0.00355895 0)
(0.0850427 -0.00354902 0)
(0.0864612 -0.00353814 0)
(0.087875 -0.00352626 0)
(0.089284 -0.00351335 0)
(0.0906877 -0.00349937 0)
(0.0920855 -0.00348429 0)
(0.0934771 -0.00346806 0)
(0.0948621 -0.00345065 0)
(0.0962399 -0.00343203 0)
(0.09761 -0.00341215 0)
(0.0989719 -0.00339099 0)
(0.100325 -0.00336851 0)
(0.101669 -0.00334467 0)
(0.103003 -0.00331944 0)
(0.104327 -0.0032928 0)
(0.10564 -0.00326471 0)
(0.106942 -0.00323514 0)
(0.108231 -0.00320406 0)
(0.109508 -0.00317146 0)
(0.110771 -0.0031373 0)
(0.11202 -0.00310157 0)
(0.113255 -0.00306424 0)
(0.114475 -0.0030253 0)
(0.115678 -0.00298472 0)
(0.116865 -0.0029425 0)
(0.118035 -0.00289863 0)
(0.119187 -0.00285309 0)
(0.120321 -0.00280588 0)
(0.121435 -0.002757 0)
(0.122529 -0.00270644 0)
(0.123603 -0.0026542 0)
(0.124656 -0.0026003 0)
(0.125686 -0.00254474 0)
(0.126694 -0.00248753 0)
(0.127679 -0.00242869 0)
(0.12864 -0.00236822 0)
(0.129577 -0.00230616 0)
(0.130488 -0.00224252 0)
(0.131374 -0.00217734 0)
(0.132233 -0.00211064 0)
(0.133065 -0.00204246 0)
(0.133869 -0.00197282 0)
(0.134646 -0.00190178 0)
(0.135393 -0.00182937 0)
(0.136111 -0.00175565 0)
(0.1368 -0.00168065 0)
(0.137458 -0.00160442 0)
(0.138086 -0.00152704 0)
(0.138682 -0.00144854 0)
(0.139246 -0.00136899 0)
(0.139779 -0.00128845 0)
(0.140279 -0.00120699 0)
(0.140746 -0.00112467 0)
(0.14118 -0.00104155 0)
(0.14158 -0.000957719 0)
(0.141947 -0.000873234 0)
(0.14228 -0.000788171 0)
(0.142579 -0.000702605 0)
(0.142843 -0.00061661 0)
(0.143073 -0.000530263 0)
(0.143268 -0.00044364 0)
(0.143428 -0.000356818 0)
(0.143553 -0.000269875 0)
(0.143644 -0.000182887 0)
(0.1437 -9.59328e-05 0)
(0.14372 -9.088e-06 0)
(0.143707 7.75707e-05 0)
(0.143658 0.000163968 0)
(0.143575 0.000250029 0)
(0.143457 0.00033568 0)
(0.143305 0.000420849 0)
(0.143119 0.000505466 0)
(0.1429 0.000589461 0)
(0.142647 0.000672767 0)
(0.14236 0.000755318 0)
(0.142041 0.000837052 0)
(0.141689 0.000917907 0)
(0.141305 0.000997824 0)
(0.140889 0.00107675 0)
(0.140442 0.00115462 0)
(0.139963 0.0012314 0)
(0.139454 0.00130703 0)
(0.138916 0.00138146 0)
(0.138347 0.00145466 0)
(0.13775 0.00152658 0)
(0.137123 0.00159719 0)
(0.136469 0.00166645 0)
(0.135788 0.00173432 0)
(0.135079 0.00180079 0)
(0.134345 0.00186582 0)
(0.133584 0.0019294 0)
(0.132798 0.0019915 0)
(0.131988 0.0020521 0)
(0.131154 0.00211119 0)
(0.130296 0.00216875 0)
(0.129416 0.00222479 0)
(0.128514 0.00227929 0)
(0.12759 0.00233225 0)
(0.126645 0.00238366 0)
(0.12568 0.00243352 0)
(0.124696 0.00248185 0)
(0.123692 0.00252864 0)
(0.12267 0.0025739 0)
(0.12163 0.00261765 0)
(0.120573 0.00265988 0)
(0.1195 0.00270062 0)
(0.11841 0.00273987 0)
(0.117305 0.00277767 0)
(0.116185 0.00281401 0)
(0.115051 0.00284893 0)
(0.113904 0.00288244 0)
(0.112743 0.00291456 0)
(0.11157 0.00294532 0)
(0.110384 0.00297474 0)
(0.109187 0.00300285 0)
(0.10798 0.00302966 0)
(0.106761 0.00305522 0)
(0.105533 0.00307954 0)
(0.104296 0.00310266 0)
(0.103049 0.0031246 0)
(0.101794 0.00314539 0)
(0.100531 0.00316505 0)
(0.0992598 0.00318363 0)
(0.0979818 0.00320115 0)
(0.0966971 0.00321764 0)
(0.0954059 0.00323313 0)
(0.0941088 0.00324764 0)
(0.0928061 0.00326122 0)
(0.0914982 0.00327389 0)
(0.0901854 0.00328569 0)
(0.0888681 0.00329663 0)
(0.0875466 0.00330676 0)
(0.0862213 0.00331609 0)
(0.0848924 0.00332467 0)
(0.0835602 0.00333252 0)
(0.0822251 0.00333966 0)
(0.0808873 0.00334614 0)
(0.0795471 0.00335197 0)
(0.0782046 0.00335718 0)
(0.0768602 0.0033618 0)
(0.0755142 0.00336587 0)
(0.0741666 0.00336939 0)
(0.0728177 0.00337241 0)
(0.0714678 0.00337494 0)
(0.070117 0.00337702 0)
(0.0687654 0.00337866 0)
(0.0674133 0.00337989 0)
(0.0660608 0.00338073 0)
(0.064708 0.00338121 0)
(0.0633552 0.00338135 0)
(0.0620024 0.00338117 0)
(0.0606497 0.00338069 0)
(0.0592973 0.00337993 0)
(0.0579453 0.00337892 0)
(0.0565938 0.00337766 0)
(0.0552428 0.00337619 0)
(0.0538925 0.00337452 0)
(0.0525429 0.00337267 0)
(0.051194 0.00337066 0)
(0.0498461 0.00336849 0)
(0.048499 0.0033662 0)
(0.0471529 0.00336379 0)
(0.0458078 0.00336128 0)
(0.0444637 0.00335868 0)
(0.0431207 0.00335602 0)
(0.0417788 0.00335329 0)
(0.040438 0.00335053 0)
(0.0390983 0.00334773 0)
(0.0377598 0.00334491 0)
(0.0364224 0.00334209 0)
(0.0350861 0.00333927 0)
(0.033751 0.00333647 0)
(0.032417 0.0033337 0)
(0.0310841 0.00333096 0)
(0.0297523 0.00332826 0)
(0.0284216 0.00332562 0)
(0.0270919 0.00332304 0)
(0.0257633 0.00332053 0)
(0.0244356 0.00331811 0)
(0.023109 0.00331576 0)
(0.0217832 0.00331352 0)
(0.0204583 0.00331137 0)
(0.0191343 0.00330932 0)
(0.0178111 0.00330739 0)
(0.0164886 0.00330557 0)
(0.0151668 0.00330388 0)
(0.0138457 0.00330231 0)
(0.0125252 0.00330087 0)
(0.0112053 0.00329956 0)
(0.0098858 0.00329839 0)
(0.00856679 0.00329737 0)
(0.00724817 0.00329648 0)
(0.00592987 0.00329574 0)
(0.00461184 0.00329514 0)
(0.00329402 0.00329469 0)
(0.00197636 0.0032944 0)
(0.000658775 0.00329425 0)
(0.000703462 -0.0049255 0)
(0.00211043 -0.00492578 0)
(0.00351751 -0.00492633 0)
(0.0049248 -0.00492717 0)
(0.00633237 -0.00492827 0)
(0.0077403 -0.00492965 0)
(0.00914866 -0.00493129 0)
(0.0105575 -0.0049332 0)
(0.011967 -0.00493536 0)
(0.0133771 -0.00493777 0)
(0.014788 -0.00494043 0)
(0.0161997 -0.00494332 0)
(0.0176122 -0.00494644 0)
(0.0190257 -0.00494978 0)
(0.0204401 -0.00495332 0)
(0.0218557 -0.00495706 0)
(0.0232723 -0.00496098 0)
(0.0246901 -0.00496508 0)
(0.0261091 -0.00496933 0)
(0.0275294 -0.00497372 0)
(0.0289509 -0.00497823 0)
(0.0303738 -0.00498286 0)
(0.031798 -0.00498758 0)
(0.0332237 -0.00499237 0)
(0.0346507 -0.00499721 0)
(0.0360791 -0.00500209 0)
(0.037509 -0.00500698 0)
(0.0389403 -0.00501186 0)
(0.040373 -0.0050167 0)
(0.0418071 -0.00502148 0)
(0.0432426 -0.00502618 0)
(0.0446795 -0.00503076 0)
(0.0461177 -0.0050352 0)
(0.0475572 -0.00503948 0)
(0.0489979 -0.00504355 0)
(0.0504398 -0.00504739 0)
(0.0518828 -0.00505097 0)
(0.0533268 -0.00505425 0)
(0.0547717 -0.0050572 0)
(0.0562175 -0.00505979 0)
(0.057664 -0.00506197 0)
(0.0591111 -0.0050637 0)
(0.0605587 -0.00506496 0)
(0.0620066 -0.0050657 0)
(0.0634548 -0.00506587 0)
(0.0649029 -0.00506544 0)
(0.0663509 -0.00506436 0)
(0.0677985 -0.00506258 0)
(0.0692456 -0.00506007 0)
(0.0706919 -0.00505678 0)
(0.0721372 -0.00505265 0)
(0.0735812 -0.00504765 0)
(0.0750238 -0.00504171 0)
(0.0764646 -0.0050348 0)
(0.0779033 -0.00502687 0)
(0.0793397 -0.00501785 0)
(0.0807734 -0.00500771 0)
(0.0822041 -0.00499638 0)
(0.0836315 -0.00498382 0)
(0.0850551 -0.00496997 0)
(0.0864747 -0.00495479 0)
(0.0878898 -0.00493821 0)
(0.0893001 -0.00492019 0)
(0.090705 -0.00490067 0)
(0.0921042 -0.00487961 0)
(0.0934972 -0.00485694 0)
(0.0948836 -0.00483262 0)
(0.0962629 -0.0048066 0)
(0.0976345 -0.00477882 0)
(0.098998 -0.00474924 0)
(0.100353 -0.00471781 0)
(0.101698 -0.00468448 0)
(0.103034 -0.00464921 0)
(0.10436 -0.00461195 0)
(0.105675 -0.00457266 0)
(0.106978 -0.0045313 0)
(0.108269 -0.00448783 0)
(0.109548 -0.00444222 0)
(0.110813 -0.00439443 0)
(0.112064 -0.00434443 0)
(0.113301 -0.0042922 0)
(0.114522 -0.0042377 0)
(0.115728 -0.00418091 0)
(0.116917 -0.00412182 0)
(0.118089 -0.00406041 0)
(0.119243 -0.00399667 0)
(0.120378 -0.00393058 0)
(0.121495 -0.00386214 0)
(0.122591 -0.00379135 0)
(0.123667 -0.00371822 0)
(0.124721 -0.00364275 0)
(0.125754 -0.00356495 0)
(0.126764 -0.00348483 0)
(0.127751 -0.00340243 0)
(0.128714 -0.00331775 0)
(0.129652 -0.00323083 0)
(0.130565 -0.0031417 0)
(0.131453 -0.0030504 0)
(0.132314 -0.00295697 0)
(0.133148 -0.00286146 0)
(0.133954 -0.00276392 0)
(0.134732 -0.00266441 0)
(0.135481 -0.00256297 0)
(0.136201 -0.00245968 0)
(0.136891 -0.00235461 0)
(0.13755 -0.00224783 0)
(0.138179 -0.00213941 0)
(0.138777 -0.00202943 0)
(0.139342 -0.00191797 0)
(0.139876 -0.00180513 0)
(0.140377 -0.00169099 0)
(0.140845 -0.00157564 0)
(0.14128 -0.00145919 0)
(0.141682 -0.00134172 0)
(0.142049 -0.00122334 0)
(0.142383 -0.00110415 0)
(0.142682 -0.000984247 0)
(0.142946 -0.000863749 0)
(0.143177 -0.000742756 0)
(0.143372 -0.000621376 0)
(0.143532 -0.000499717 0)
(0.143658 -0.000377888 0)
(0.143748 -0.000255997 0)
(0.143804 -0.000134153 0)
(0.143825 -1.24637e-05 0)
(0.14381 0.000108964 0)
(0.143761 0.000230025 0)
(0.143678 0.000350613 0)
(0.14356 0.000470625 0)
(0.143407 0.000589961 0)
(0.143221 0.000708521 0)
(0.143 0.000826208 0)
(0.142746 0.000942928 0)
(0.142459 0.00105859 0)
(0.142139 0.0011731 0)
(0.141786 0.00128638 0)
(0.1414 0.00139834 0)
(0.140983 0.00150891 0)
(0.140535 0.00161801 0)
(0.140055 0.00172556 0)
(0.139545 0.00183151 0)
(0.139004 0.00193578 0)
(0.138434 0.00203831 0)
(0.137835 0.00213905 0)
(0.137207 0.00223795 0)
(0.136552 0.00233495 0)
(0.135868 0.00243002 0)
(0.135158 0.00252312 0)
(0.134422 0.00261419 0)
(0.13366 0.00270323 0)
(0.132872 0.00279019 0)
(0.13206 0.00287505 0)
(0.131224 0.00295779 0)
(0.130365 0.0030384 0)
(0.129483 0.00311686 0)
(0.128578 0.00319316 0)
(0.127653 0.0032673 0)
(0.126706 0.00333928 0)
(0.125739 0.00340909 0)
(0.124753 0.00347674 0)
(0.123747 0.00354224 0)
(0.122724 0.00360559 0)
(0.121682 0.00366682 0)
(0.120623 0.00372593 0)
(0.119548 0.00378294 0)
(0.118456 0.00383788 0)
(0.11735 0.00389076 0)
(0.116228 0.00394161 0)
(0.115092 0.00399047 0)
(0.113943 0.00403735 0)
(0.112781 0.00408229 0)
(0.111606 0.00412532 0)
(0.110419 0.00416648 0)
(0.10922 0.00420579 0)
(0.108011 0.0042433 0)
(0.106791 0.00427904 0)
(0.105562 0.00431305 0)
(0.104323 0.00434537 0)
(0.103075 0.00437604 0)
(0.101818 0.00440511 0)
(0.100554 0.0044326 0)
(0.0992815 0.00445857 0)
(0.0980023 0.00448305 0)
(0.0967163 0.00450609 0)
(0.095424 0.00452773 0)
(0.0941257 0.00454802 0)
(0.0928219 0.00456699 0)
(0.0915129 0.00458468 0)
(0.0901991 0.00460115 0)
(0.0888808 0.00461643 0)
(0.0875584 0.00463056 0)
(0.0862321 0.00464359 0)
(0.0849023 0.00465556 0)
(0.0835693 0.0046665 0)
(0.0822333 0.00467647 0)
(0.0808947 0.00468549 0)
(0.0795537 0.00469362 0)
(0.0782106 0.00470088 0)
(0.0768655 0.00470731 0)
(0.0755188 0.00471296 0)
(0.0741706 0.00471786 0)
(0.0728211 0.00472205 0)
(0.0714706 0.00472556 0)
(0.0701192 0.00472843 0)
(0.0687672 0.0047307 0)
(0.0674146 0.00473239 0)
(0.0660616 0.00473354 0)
(0.0647085 0.00473417 0)
(0.0633552 0.00473434 0)
(0.062002 0.00473405 0)
(0.060649 0.00473335 0)
(0.0592963 0.00473226 0)
(0.057944 0.00473082 0)
(0.0565922 0.00472904 0)
(0.0552409 0.00472695 0)
(0.0538904 0.00472459 0)
(0.0525406 0.00472197 0)
(0.0511916 0.00471912 0)
(0.0498434 0.00471607 0)
(0.0484962 0.00471284 0)
(0.04715 0.00470944 0)
(0.0458048 0.00470591 0)
(0.0444606 0.00470225 0)
(0.0431175 0.0046985 0)
(0.0417755 0.00469467 0)
(0.0404347 0.00469078 0)
(0.039095 0.00468685 0)
(0.0377564 0.00468289 0)
(0.036419 0.00467892 0)
(0.0350828 0.00467496 0)
(0.0337477 0.00467103 0)
(0.0324137 0.00466713 0)
(0.0310809 0.00466328 0)
(0.0297491 0.00465949 0)
(0.0284185 0.00465578 0)
(0.0270889 0.00465216 0)
(0.0257603 0.00464864 0)
(0.0244328 0.00464523 0)
(0.0231062 0.00464194 0)
(0.0217806 0.00463878 0)
(0.0204558 0.00463577 0)
(0.0191319 0.0046329 0)
(0.0178088 0.00463018 0)
(0.0164865 0.00462763 0)
(0.0151649 0.00462525 0)
(0.0138439 0.00462305 0)
(0.0125236 0.00462103 0)
(0.0112038 0.0046192 0)
(0.00988449 0.00461756 0)
(0.00856565 0.00461611 0)
(0.00724719 0.00461487 0)
(0.00592907 0.00461382 0)
(0.00461122 0.00461299 0)
(0.00329358 0.00461236 0)
(0.00197609 0.00461195 0)
(0.000658686 0.00461174 0)
(0.000703302 -0.0063323 0)
(0.00210995 -0.00633266 0)
(0.00351671 -0.00633338 0)
(0.00492368 -0.00633446 0)
(0.00633094 -0.00633588 0)
(0.00773856 -0.00633766 0)
(0.00914661 -0.00633978 0)
(0.0105552 -0.00634224 0)
(0.0119644 -0.00634503 0)
(0.0133742 -0.00634815 0)
(0.0147848 -0.00635158 0)
(0.0161962 -0.00635531 0)
(0.0176085 -0.00635934 0)
(0.0190217 -0.00636364 0)
(0.0204359 -0.00636822 0)
(0.0218512 -0.00637305 0)
(0.0232677 -0.00637811 0)
(0.0246853 -0.0063834 0)
(0.0261041 -0.00638889 0)
(0.0275242 -0.00639456 0)
(0.0289456 -0.0064004 0)
(0.0303684 -0.00640638 0)
(0.0317926 -0.00641248 0)
(0.0332181 -0.00641867 0)
(0.0346451 -0.00642493 0)
(0.0360735 -0.00643124 0)
(0.0375034 -0.00643756 0)
(0.0389347 -0.00644387 0)
(0.0403674 -0.00645014 0)
(0.0418016 -0.00645633 0)
(0.0432373 -0.00646242 0)
(0.0446743 -0.00646836 0)
(0.0461126 -0.00647412 0)
(0.0475523 -0.00647967 0)
(0.0489933 -0.00648496 0)
(0.0504354 -0.00648996 0)
(0.0518787 -0.00649461 0)
(0.0533231 -0.00649889 0)
(0.0547684 -0.00650275 0)
(0.0562147 -0.00650613 0)
(0.0576617 -0.006509 0)
(0.0591093 -0.0065113 0)
(0.0605575 -0.00651299 0)
(0.062006 -0.006514 0)
(0.0634548 -0.0065143 0)
(0.0649036 -0.00651381 0)
(0.0663524 -0.0065125 0)
(0.0678008 -0.0065103 0)
(0.0692488 -0.00650715 0)
(0.070696 -0.006503 0)
(0.0721423 -0.00649777 0)
(0.0735874 -0.00649142 0)
(0.075031 -0.00648388 0)
(0.076473 -0.00647508 0)
(0.0779129 -0.00646496 0)
(0.0793505 -0.00645346 0)
(0.0807856 -0.0064405 0)
(0.0822176 -0.00642603 0)
(0.0836465 -0.00640997 0)
(0.0850716 -0.00639226 0)
(0.0864927 -0.00637283 0)
(0.0879095 -0.00635161 0)
(0.0893214 -0.00632853 0)
(0.0907281 -0.00630352 0)
(0.0921291 -0.00627653 0)
(0.093524 -0.00624747 0)
(0.0949123 -0.00621629 0)
(0.0962935 -0.00618292 0)
(0.0976672 -0.00614729 0)
(0.0990328 -0.00610934 0)
(0.10039 -0.00606901 0)
(0.101738 -0.00602623 0)
(0.103076 -0.00598096 0)
(0.104404 -0.00593312 0)
(0.105721 -0.00588268 0)
(0.107026 -0.00582957 0)
(0.10832 -0.00577375 0)
(0.109601 -0.00571516 0)
(0.110869 -0.00565377 0)
(0.112122 -0.00558954 0)
(0.113362 -0.00552242 0)
(0.114586 -0.00545239 0)
(0.115794 -0.00537941 0)
(0.116986 -0.00530347 0)
(0.11816 -0.00522453 0)
(0.119317 -0.00514259 0)
(0.120455 -0.00505762 0)
(0.121574 -0.00496964 0)
(0.122673 -0.00487862 0)
(0.123752 -0.00478458 0)
(0.124809 -0.00468753 0)
(0.125844 -0.00458747 0)
(0.126857 -0.00448443 0)
(0.127846 -0.00437844 0)
(0.128812 -0.00426952 0)
(0.129753 -0.00415771 0)
(0.130669 -0.00404305 0)
(0.131558 -0.00392559 0)
(0.132422 -0.00380539 0)
(0.133258 -0.00368251 0)
(0.134066 -0.003557 0)
(0.134847 -0.00342895 0)
(0.135598 -0.00329842 0)
(0.13632 -0.00316551 0)
(0.137012 -0.00303029 0)
(0.137673 -0.00289287 0)
(0.138304 -0.00275333 0)
(0.138903 -0.00261179 0)
(0.139471 -0.00246834 0)
(0.140006 -0.00232311 0)
(0.140508 -0.0021762 0)
(0.140978 -0.00202773 0)
(0.141414 -0.00187783 0)
(0.141816 -0.00172663 0)
(0.142185 -0.00157425 0)
(0.142519 -0.00142083 0)
(0.142819 -0.00126649 0)
(0.143085 -0.00111138 0)
(0.143315 -0.000955637 0)
(0.143511 -0.000799391 0)
(0.143672 -0.000642787 0)
(0.143797 -0.000485964 0)
(0.143888 -0.000329062 0)
(0.143943 -0.000172221 0)
(0.143964 -1.55796e-05 0)
(0.143949 0.000140724 0)
(0.1439 0.000296552 0)
(0.143816 0.00045177 0)
(0.143697 0.000606246 0)
(0.143543 0.000759848 0)
(0.143356 0.000912448 0)