/*--------------------------------*- C++ -*----------------------------------*\
| =========                 |                                                 |
| \\      /  F ield         | OpenFOAM: The Open Source CFD Toolbox           |
|  \\    /   O peration     | Version:  v2012                                 |
|   \\  /    A nd           | Website:  www.openfoam.com                      |
|    \\/     M anipulation  |                                                 |
\*---------------------------------------------------------------------------*/
FoamFile
{
    version     2.0;
    format      ascii;
    class       surfaceScalarField;
    location    "9.9";
    object      phi;
}
// * * * * * * * * * * * * * * * * * * * * * * * * * * * * * * * * * * * * * //

dimensions      [0 3 -1 0 0 0 0];
oriented        oriented;


internalField   nonuniform List<scalar> 
130560
(
3.67855e-06
-3.67855e-06
7.35716e-06
-3.67862e-06
1.10359e-05
-3.67876e-06
1.47149e-05
-3.67898e-06
1.83942e-05
-3.67926e-06
2.20738e-05
-3.6796e-06
2.57538e-05
-3.68001e-06
2.94342e-05
-3.68047e-06
3.31152e-05
-3.68098e-06
3.67968e-05
-3.68154e-06
4.04789e-05
-3.68214e-06
4.41617e-05
-3.68276e-06
4.78451e-05
-3.68341e-06
5.15291e-05
-3.68406e-06
5.52138e-05
-3.68472e-06
5.88992e-05
-3.68537e-06
6.25852e-05
-3.686e-06
6.62718e-05
-3.68659e-06
6.9959e-05
-3.68714e-06
7.36466e-05
-3.68763e-06
7.73346e-05
-3.68804e-06
8.1023e-05
-3.68837e-06
8.47116e-05
-3.68858e-06
8.84003e-05
-3.68867e-06
9.20889e-05
-3.68862e-06
9.57773e-05
-3.68841e-06
9.94653e-05
-3.68801e-06
0.000103153
-3.68742e-06
0.000106839
-3.6866e-06
0.000110525
-3.68554e-06
0.000114209
-3.68422e-06
0.000117892
-3.6826e-06
0.000121572
-3.68068e-06
0.000125251
-3.67842e-06
0.000128927
-3.67579e-06
0.000132599
-3.67278e-06
0.000136269
-3.66935e-06
0.000139934
-3.66549e-06
0.000143595
-3.66115e-06
0.000147252
-3.65632e-06
0.000150903
-3.65097e-06
0.000154548
-3.64506e-06
0.000158186
-3.63856e-06
0.000161818
-3.63146e-06
0.000165441
-3.62371e-06
0.000169057
-3.61529e-06
0.000172663
-3.60616e-06
0.000176259
-3.5963e-06
0.000179845
-3.58567e-06
0.000183419
-3.57425e-06
0.000186981
-3.562e-06
0.00019053
-3.54889e-06
0.000194065
-3.53489e-06
0.000197585
-3.51996e-06
0.000201089
-3.50409e-06
0.000204576
-3.48724e-06
0.000208046
-3.46937e-06
0.000211496
-3.45046e-06
0.000214926
-3.43049e-06
0.000218336
-3.40941e-06
0.000221723
-3.38722e-06
0.000225087
-3.36387e-06
0.000228426
-3.33934e-06
0.00023174
-3.31361e-06
0.000235027
-3.28666e-06
0.000238285
-3.25846e-06
0.000241514
-3.22899e-06
0.000244712
-3.19823e-06
0.000247878
-3.16616e-06
0.000251011
-3.13277e-06
0.000254109
-3.09805e-06
0.000257171
-3.06196e-06
0.000260196
-3.02452e-06
0.000263181
-2.9857e-06
0.000266127
-2.9455e-06
0.000269031
-2.90391e-06
0.000271892
-2.86093e-06
0.000274708
-2.81655e-06
0.000277479
-2.77078e-06
0.000280203
-2.72362e-06
0.000282878
-2.67507e-06
0.000285503
-2.62515e-06
0.000288077
-2.57385e-06
0.000290598
-2.5212e-06
0.000293065
-2.46721e-06
0.000295477
-2.41188e-06
0.000297832
-2.35526e-06
0.00030013
-2.29735e-06
0.000302368
-2.23817e-06
0.000304546
-2.17777e-06
0.000306662
-2.11615e-06
0.000308715
-2.05337e-06
0.000310705
-1.98944e-06
0.000312629
-1.92441e-06
0.000314487
-1.85831e-06
0.000316278
-1.79119e-06
0.000318002
-1.72308e-06
0.000319656
-1.65402e-06
0.00032124
-1.58408e-06
0.000322753
-1.51329e-06
0.000324195
-1.4417e-06
0.000325564
-1.36936e-06
0.00032686
-1.29633e-06
0.000328083
-1.22266e-06
0.000329231
-1.14841e-06
0.000330305
-1.07362e-06
0.000331303
-9.98363e-07
0.000332226
-9.22691e-07
0.000333073
-8.46662e-07
0.000333843
-7.70336e-07
0.000334537
-6.93772e-07
0.000335154
-6.1703e-07
0.000335694
-5.40169e-07
0.000336157
-4.63249e-07
0.000336544
-3.86329e-07
0.000336853
-3.09468e-07
0.000337086
-2.32726e-07
0.000337242
-1.5616e-07
0.000337322
-7.98283e-08
0.000337326
-3.78656e-09
0.000337254
7.19093e-08
0.000337106
1.47205e-07
0.000336884
2.22047e-07
0.000336588
2.96382e-07
0.000336218
3.70162e-07
0.000335775
4.43336e-07
0.000335259
5.15856e-07
0.000334671
5.87677e-07
0.000334012
6.58755e-07
0.000333283
7.29046e-07
0.000332485
7.98511e-07
0.000331618
8.6711e-07
0.000330683
9.34807e-07
0.000329681
1.00157e-06
0.000328614
1.06736e-06
0.000327482
1.13214e-06
0.000326286
1.1959e-06
0.000325027
1.25861e-06
0.000323707
1.32023e-06
0.000322326
1.38074e-06
0.000320886
1.44014e-06
0.000319388
1.49839e-06
0.000317832
1.55548e-06
0.000316221
1.61139e-06
0.000314555
1.66612e-06
0.000312835
1.71965e-06
0.000311063
1.77197e-06
0.00030924
1.82308e-06
0.000307367
1.87297e-06
0.000305445
1.92164e-06
0.000303476
1.96908e-06
0.000301461
2.0153e-06
0.000299401
2.0603e-06
0.000297297
2.10407e-06
0.00029515
2.14663e-06
0.000292962
2.18797e-06
0.000290734
2.22812e-06
0.000288467
2.26707e-06
0.000286162
2.30483e-06
0.000283821
2.34142e-06
0.000281444
2.37684e-06
0.000279033
2.41111e-06
0.000276588
2.44425e-06
0.000274112
2.47626e-06
0.000271605
2.50717e-06
0.000269068
2.53699e-06
0.000266502
2.56573e-06
0.000263909
2.59342e-06
0.000261289
2.62007e-06
0.000258643
2.6457e-06
0.000255973
2.67033e-06
0.000253279
2.69398e-06
0.000250562
2.71667e-06
0.000247824
2.73842e-06
0.000245064
2.75925e-06
0.000242285
2.77918e-06
0.000239487
2.79824e-06
0.000236671
2.81644e-06
0.000233837
2.83381e-06
0.000230986
2.85036e-06
0.00022812
2.86612e-06
0.000225239
2.88111e-06
0.000222344
2.89536e-06
0.000219435
2.90887e-06
0.000216513
2.92168e-06
0.000213579
2.93381e-06
0.000210634
2.94528e-06
0.000207678
2.9561e-06
0.000204712
2.9663e-06
0.000201736
2.9759e-06
0.000198751
2.98492e-06
0.000195758
2.99338e-06
0.000192756
3.00131e-06
0.000189748
3.00871e-06
0.000186732
3.01561e-06
0.00018371
3.02203e-06
0.000180682
3.02799e-06
0.000177648
3.0335e-06
0.00017461
3.03859e-06
0.000171567
3.04327e-06
0.000168519
3.04756e-06
0.000165468
3.05147e-06
0.000162413
3.05503e-06
0.000159354
3.05825e-06
0.000156293
3.06115e-06
0.000153229
3.06374e-06
0.000150163
3.06604e-06
0.000147095
3.06806e-06
0.000144025
3.06982e-06
0.000140954
3.07133e-06
0.000137882
3.0726e-06
0.000134808
3.07366e-06
0.000131733
3.07451e-06
0.000128658
3.07517e-06
0.000125583
3.07564e-06
0.000122507
3.07595e-06
0.000119431
3.0761e-06
0.000116354
3.0761e-06
0.000113278
3.07597e-06
0.000110203
3.07572e-06
0.000107127
3.07535e-06
0.000104053
3.07488e-06
0.000100978
3.07432e-06
9.79045e-05
3.07368e-06
9.48315e-05
3.07296e-06
9.17594e-05
3.07218e-06
8.8688e-05
3.07134e-06
8.56176e-05
3.07046e-06
8.2548e-05
3.06953e-06
7.94795e-05
3.06857e-06
7.64119e-05
3.06759e-06
7.33453e-05
3.06658e-06
7.02797e-05
3.06557e-06
6.72152e-05
3.06455e-06
6.41516e-05
3.06353e-06
6.10891e-05
3.06252e-06
5.80276e-05
3.06153e-06
5.4967e-05
3.06055e-06
5.19075e-05
3.05959e-06
4.88488e-05
3.05866e-06
4.5791e-05
3.05776e-06
4.27341e-05
3.0569e-06
3.9678e-05
3.05608e-06
3.66227e-05
3.05531e-06
3.35682e-05
3.05458e-06
3.05143e-05
3.0539e-06
2.7461e-05
3.05327e-06
2.44083e-05
3.0527e-06
2.13561e-05
3.05218e-06
1.83044e-05
3.05173e-06
1.5253e-05
3.05134e-06
1.2202e-05
3.05101e-06
9.1513e-06
3.05074e-06
6.10076e-06
3.05054e-06
3.05035e-06
3.05041e-06
3.05035e-06
3.67847e-06
-7.35702e-06
7.35702e-06
-7.35717e-06
1.10357e-05
-7.35745e-06
1.47146e-05
-7.35788e-06
1.83938e-05
-7.35845e-06
2.20734e-05
-7.35914e-06
2.57533e-05
-7.35996e-06
2.94337e-05
-7.36089e-06
3.31147e-05
-7.36192e-06
3.67962e-05
-7.36305e-06
4.04783e-05
-7.36424e-06
4.4161e-05
-7.3655e-06
4.78444e-05
-7.3668e-06
5.15285e-05
-7.36812e-06
5.52132e-05
-7.36945e-06
5.88986e-05
-7.37076e-06
6.25846e-05
-7.37203e-06
6.62713e-05
-7.37324e-06
6.99585e-05
-7.37435e-06
7.36462e-05
-7.37534e-06
7.73343e-05
-7.37618e-06
8.10228e-05
-7.37684e-06
8.47115e-05
-7.37729e-06
8.84003e-05
-7.37748e-06
9.20891e-05
-7.3774e-06
9.57777e-05
-7.37699e-06
9.94659e-05
-7.37622e-06
0.000103154
-7.37506e-06
0.00010684
-7.37345e-06
0.000110526
-7.37135e-06
0.000114211
-7.36872e-06
0.000117894
-7.36552e-06
0.000121575
-7.36169e-06
0.000125253
-7.35719e-06
0.00012893
-7.35197e-06
0.000132603
-7.34597e-06
0.000136273
-7.33915e-06
0.000139939
-7.33144e-06
0.0001436
-7.3228e-06
0.000147257
-7.31317e-06
0.000150909
-7.30249e-06
0.000154554
-7.2907e-06
0.000158193
-7.27774e-06
0.000161825
-7.26356e-06
0.00016545
-7.24809e-06
0.000169066
-7.23128e-06
0.000172673
-7.21306e-06
0.00017627
-7.19337e-06
0.000179856
-7.17214e-06
0.000183431
-7.14933e-06
0.000186994
-7.12485e-06
0.000190544
-7.09866e-06
0.00019408
-7.07069e-06
0.000197601
-7.04088e-06
0.000201106
-7.00916e-06
0.000204594
-6.97548e-06
0.000208064
-6.93978e-06
0.000211516
-6.90199e-06
0.000214948
-6.86207e-06
0.000218358
-6.81995e-06
0.000221746
-6.77558e-06
0.000225111
-6.72891e-06
0.000228452
-6.67988e-06
0.000231767
-6.62845e-06
0.000235055
-6.57456e-06
0.000238314
-6.51818e-06
0.000241545
-6.45926e-06
0.000244744
-6.39776e-06
0.000247912
-6.33365e-06
0.000251046
-6.26688e-06
0.000254145
-6.19744e-06
0.000257209
-6.12529e-06
0.000260234
-6.05041e-06
0.000263222
-5.97278e-06
0.000266168
-5.89238e-06
0.000269074
-5.80921e-06
0.000271936
-5.72324e-06
0.000274754
-5.63449e-06
0.000277526
-5.54295e-06
0.000280251
-5.44862e-06
0.000282928
-5.35152e-06
0.000285554
-5.25166e-06
0.000288129
-5.14906e-06
0.000290652
-5.04374e-06
0.00029312
-4.93573e-06
0.000295534
-4.82507e-06
0.00029789
-4.7118e-06
0.000300189
-4.59595e-06
0.000302428
-4.47758e-06
0.000304607
-4.35674e-06
0.000306724
-4.23348e-06
0.000308779
-4.10787e-06
0.000310769
-3.97998e-06
0.000312695
-3.84988e-06
0.000314554
-3.71765e-06
0.000316346
-3.58335e-06
0.00031807
-3.44709e-06
0.000319725
-3.30894e-06
0.00032131
-3.169e-06
0.000322824
-3.02737e-06
0.000324267
-2.88414e-06
0.000325637
-2.73942e-06
0.000326934
-2.5933e-06
0.000328157
-2.44591e-06
0.000329306
-2.29734e-06
0.00033038
-2.14771e-06
0.000331379
-1.99714e-06
0.000332302
-1.84574e-06
0.000333149
-1.69362e-06
0.000333919
-1.54091e-06
0.000334613
-1.38772e-06
0.000335231
-1.23418e-06
0.000335771
-1.08039e-06
0.000336234
-9.26495e-07
0.00033662
-7.72596e-07
0.00033693
-6.18816e-07
0.000337162
-4.65274e-07
0.000337318
-3.12085e-07
0.000337398
-1.59365e-07
0.000337401
-7.22544e-09
0.000337329
1.44221e-07
0.000337181
2.94865e-07
0.000336959
4.44601e-07
0.000336662
5.93323e-07
0.000336291
7.40931e-07
0.000335847
8.87326e-07
0.00033533
1.03241e-06
0.000334742
1.1761e-06
0.000334082
1.3183e-06
0.000333353
1.45892e-06
0.000332553
1.59789e-06
0.000331685
1.73512e-06
0.000330749
1.87055e-06
0.000329747
2.0041e-06
0.000328678
2.13571e-06
0.000327545
2.26532e-06
0.000326348
2.39286e-06
0.000325089
2.51829e-06
0.000323767
2.64156e-06
0.000322385
2.76261e-06
0.000320944
2.88142e-06
0.000319445
2.99793e-06
0.000317888
3.11213e-06
0.000316275
3.22397e-06
0.000314608
3.33344e-06
0.000312887
3.44051e-06
0.000311114
3.54516e-06
0.00030929
3.64738e-06
0.000307416
3.74717e-06
0.000305493
3.8445e-06
0.000303522
3.93939e-06
0.000301506
4.03183e-06
0.000299444
4.12181e-06
0.000297339
4.20935e-06
0.000295191
4.29446e-06
0.000293002
4.37715e-06
0.000290773
4.45743e-06
0.000288504
4.53532e-06
0.000286198
4.61083e-06
0.000283856
4.68399e-06
0.000281478
4.75483e-06
0.000279066
4.82336e-06
0.00027662
4.88962e-06
0.000274143
4.95363e-06
0.000271635
5.01543e-06
0.000269097
5.07505e-06
0.00026653
5.13252e-06
0.000263935
5.18787e-06
0.000261314
5.24115e-06
0.000258668
5.2924e-06
0.000255996
5.34164e-06
0.000253301
5.38892e-06
0.000250584
5.43428e-06
0.000247844
5.47776e-06
0.000245084
5.5194e-06
0.000242304
5.55924e-06
0.000239505
5.59733e-06
0.000236688
5.63371e-06
0.000233853
5.66842e-06
0.000231002
5.70151e-06
0.000228135
5.73301e-06
0.000225253
5.76297e-06
0.000222357
5.79144e-06
0.000219448
5.81845e-06
0.000216525
5.84405e-06
0.000213591
5.86828e-06
0.000210645
5.89119e-06
0.000207688
5.91282e-06
0.000204721
5.9332e-06
0.000201745
5.95238e-06
0.000198759
5.9704e-06
0.000195765
5.9873e-06
0.000192764
6.00313e-06
0.000189754
6.01791e-06
0.000186738
6.0317e-06
0.000183716
6.04452e-06
0.000180687
6.05641e-06
0.000177653
6.06742e-06
0.000174614
6.07758e-06
0.000171571
6.08692e-06
0.000168523
6.09548e-06
0.000165471
6.1033e-06
0.000162416
6.1104e-06
0.000159357
6.11683e-06
0.000156296
6.12261e-06
0.000153232
6.12777e-06
0.000150165
6.13235e-06
0.000147097
6.13637e-06
0.000144027
6.13988e-06
0.000140955
6.14288e-06
0.000137883
6.14542e-06
0.000134809
6.14752e-06
0.000131734
6.14921e-06
0.000128659
6.15051e-06
0.000125583
6.15145e-06
0.000122507
6.15205e-06
0.00011943
6.15234e-06
0.000116354
6.15233e-06
0.000113278
6.15206e-06
0.000110202
6.15155e-06
0.000107127
6.1508e-06
0.000104052
6.14986e-06
0.000100977
6.14873e-06
9.79037e-05
6.14743e-06
9.48307e-05
6.14599e-06
9.17585e-05
6.14441e-06
8.86871e-05
6.14273e-06
8.56166e-05
6.14095e-06
8.2547e-05
6.13909e-06
7.94784e-05
6.13716e-06
7.64108e-05
6.13519e-06
7.33442e-05
6.13318e-06
7.02787e-05
6.13114e-06
6.72141e-05
6.1291e-06
6.41506e-05
6.12706e-06
6.10881e-05
6.12503e-06
5.80266e-05
6.12303e-06
5.4966e-05
6.12107e-06
5.19065e-05
6.11915e-06
4.88479e-05
6.11729e-06
4.57901e-05
6.11549e-06
4.27333e-05
6.11377e-06
3.96772e-05
6.11212e-06
3.6622e-05
6.11056e-06
3.35675e-05
6.1091e-06
3.05136e-05
6.10774e-06
2.74604e-05
6.10648e-06
2.44078e-05
6.10533e-06
2.13556e-05
6.1043e-06
1.8304e-05
6.10339e-06
1.52527e-05
6.10261e-06
1.22018e-05
6.10195e-06
9.1511e-06
6.10142e-06
6.10062e-06
6.10102e-06
3.05028e-06
6.10075e-06
6.10062e-06
3.67833e-06
-1.10353e-05
7.35673e-06
-1.10356e-05
1.10353e-05
-1.1036e-05
1.47141e-05
-1.10367e-05
1.83931e-05
-1.10375e-05
2.20725e-05
-1.10386e-05
2.57524e-05
-1.10398e-05
2.94327e-05
-1.10412e-05
3.31136e-05
-1.10428e-05
3.6795e-05
-1.10445e-05
4.0477e-05
-1.10463e-05
4.41597e-05
-1.10482e-05
4.78431e-05
-1.10502e-05
5.15272e-05
-1.10522e-05
5.52119e-05
-1.10542e-05
5.88973e-05
-1.10562e-05
6.25834e-05
-1.10581e-05
6.62702e-05
-1.106e-05
6.99575e-05
-1.10617e-05
7.36454e-05
-1.10632e-05
7.73337e-05
-1.10645e-05
8.10224e-05
-1.10655e-05
8.47113e-05
-1.10662e-05
8.84004e-05
-1.10666e-05
9.20895e-05
-1.10665e-05
9.57785e-05
-1.10659e-05
9.94671e-05
-1.10648e-05
0.000103155
-1.10631e-05
0.000106842
-1.10608e-05
0.000110529
-1.10577e-05
0.000114214
-1.10538e-05
0.000117897
-1.10491e-05
0.000121579
-1.10434e-05
0.000125259
-1.10367e-05
0.000128936
-1.10289e-05
0.00013261
-1.102e-05
0.00013628
-1.10098e-05
0.000139947
-1.09983e-05
0.00014361
-1.09854e-05
0.000147268
-1.09711e-05
0.00015092
-1.09551e-05
0.000154567
-1.09375e-05
0.000158208
-1.09181e-05
0.000161841
-1.08969e-05
0.000165467
-1.08738e-05
0.000169084
-1.08487e-05
0.000172692
-1.08214e-05
0.000176291
-1.0792e-05
0.000179879
-1.07602e-05
0.000183456
-1.07261e-05
0.00018702
-1.06894e-05
0.000190572
-1.06502e-05
0.00019411
-1.06083e-05
0.000197632
-1.05637e-05
0.000201139
-1.05162e-05
0.00020463
-1.04658e-05
0.000208102
-1.04123e-05
0.000211556
-1.03557e-05
0.00021499
-1.02959e-05
0.000218402
-1.02327e-05
0.000221793
-1.01663e-05
0.000225161
-1.00963e-05
0.000228503
-1.00228e-05
0.000231821
-9.94573e-06
0.000235111
-9.86496e-06
0.000238373
-9.78044e-06
0.000241606
-9.69211e-06
0.000244808
-9.59991e-06
0.000247979
-9.50378e-06
0.000251115
-9.40368e-06
0.000254217
-9.29955e-06
0.000257284
-9.19135e-06
0.000260312
-9.07905e-06
0.000263302
-8.96263e-06
0.000266252
-8.84204e-06
0.00026916
-8.71729e-06
0.000272025
-8.58835e-06
0.000274846
-8.45522e-06
0.000277621
-8.3179e-06
0.000280348
-8.1764e-06
0.000283028
-8.03073e-06
0.000285657
-7.88091e-06
0.000288235
-7.72698e-06
0.00029076
-7.56897e-06
0.000293231
-7.40692e-06
0.000295647
-7.24088e-06
0.000298006
-7.07091e-06
0.000300307
-6.89708e-06
0.000302549
-6.71946e-06
0.00030473
-6.53812e-06
0.00030685
-6.35316e-06
0.000308907
-6.16466e-06
0.0003109
-5.97274e-06
0.000312827
-5.77749e-06
0.000314689
-5.57904e-06
0.000316483
-5.37749e-06
0.000318209
-5.17299e-06
0.000319865
-4.96565e-06
0.000321452
-4.75562e-06
0.000322968
-4.54305e-06
0.000324412
-4.32808e-06
0.000325783
-4.11086e-06
0.000327081
-3.89156e-06
0.000328306
-3.67033e-06
0.000329456
-3.44733e-06
0.000330531
-3.22275e-06
0.00033153
-2.99675e-06
0.000332454
-2.76949e-06
0.000333302
-2.54117e-06
0.000334073
-2.31196e-06
0.000334767
-2.08203e-06
0.000335384
-1.85156e-06
0.000335925
-1.62074e-06
0.000336388
-1.38974e-06
0.000336774
-1.15874e-06
0.000337083
-9.27928e-07
0.000337316
-6.9747e-07
0.000337471
-4.67542e-07
0.00033755
-2.3832e-07
0.000337553
-9.97217e-09
0.00033748
2.17334e-07
0.000337331
4.43434e-07
0.000337107
6.68167e-07
0.000336809
8.91377e-07
0.000336437
1.11291e-06
0.000335992
1.33262e-06
0.000335474
1.55037e-06
0.000334884
1.76601e-06
0.000334223
1.97941e-06
0.000333492
2.19045e-06
0.00033269
2.399e-06
0.000331821
2.60494e-06
0.000330883
2.80817e-06
0.000329879
3.00858e-06
0.000328808
3.20608e-06
0.000327673
3.40056e-06
0.000326474
3.59194e-06
0.000325212
3.78015e-06
0.000323888
3.9651e-06
0.000322504
4.14673e-06
0.000321061
4.32499e-06
0.000319559
4.4998e-06
0.000318
4.67113e-06
0.000316385
4.83892e-06
0.000314715
5.00315e-06
0.000312992
5.16378e-06
0.000311216
5.32078e-06
0.00030939
5.47413e-06
0.000307513
5.62381e-06
0.000305588
5.76982e-06
0.000303615
5.91215e-06
0.000301596
6.0508e-06
0.000299532
6.18577e-06
0.000297424
6.31707e-06
0.000295274
6.44472e-06
0.000293082
6.56874e-06
0.000290851
6.68913e-06
0.00028858
6.80594e-06
0.000286272
6.91918e-06
0.000283927
7.0289e-06
0.000281547
7.13512e-06
0.000279132
7.23788e-06
0.000276684
7.33724e-06
0.000274205
7.43322e-06
0.000271694
7.52587e-06
0.000269154
7.61526e-06
0.000266585
7.70142e-06
0.000263989
7.78441e-06
0.000261366
7.86428e-06
0.000258717
7.94109e-06
0.000256044
8.01491e-06
0.000253347
8.08578e-06
0.000250627
8.15377e-06
0.000247886
8.21894e-06
0.000245124
8.28135e-06
0.000242342
8.34106e-06
0.000239542
8.39814e-06
0.000236723
8.45266e-06
0.000233886
8.50467e-06
0.000231034
8.55424e-06
0.000228165
8.60144e-06
0.000225282
8.64633e-06
0.000222384
8.68897e-06
0.000219473
8.72944e-06
0.00021655
8.76779e-06
0.000213614
8.80408e-06
0.000210667
8.83839e-06
0.000207709
8.87078e-06
0.000204741
8.9013e-06
0.000201763
8.93002e-06
0.000198776
8.957e-06
0.000195781
8.98231e-06
0.000192778
9.00599e-06
0.000189768
9.02812e-06
0.000186751
9.04875e-06
0.000183728
9.06793e-06
0.000180698
9.08573e-06
0.000177664
9.1022e-06
0.000174624
9.11739e-06
0.000171579
9.13136e-06
0.000168531
9.14416e-06
0.000165478
9.15584e-06
0.000162422
9.16645e-06
0.000159363
9.17605e-06
0.000156301
9.18468e-06
0.000153236
9.19238e-06
0.000150169
9.19921e-06
0.000147101
9.20522e-06
0.00014403
9.21043e-06
0.000140958
9.21491e-06
0.000137885
9.21868e-06
0.00013481
9.2218e-06
0.000131735
9.2243e-06
0.00012866
9.22622e-06
0.000125583
9.22759e-06
0.000122507
9.22846e-06
0.00011943
9.22887e-06
0.000116354
9.22883e-06
0.000113278
9.2284e-06
0.000110202
9.2276e-06
0.000107126
9.22646e-06
0.000104051
9.22502e-06
0.000100976
9.2233e-06
9.79023e-05
9.22133e-06
9.48292e-05
9.21914e-06
9.17568e-05
9.21676e-06
8.86853e-05
9.21421e-06
8.56148e-05
9.21152e-06
8.25451e-05
9.20871e-06
7.94765e-05
9.20581e-06
7.64088e-05
9.20283e-06
7.33422e-05
9.19979e-06
7.02766e-05
9.19673e-06
6.72121e-05
9.19365e-06
6.41486e-05
9.19057e-06
6.10861e-05
9.18752e-06
5.80246e-05
9.18451e-06
5.49641e-05
9.18155e-06
5.19046e-05
9.17866e-06
4.88461e-05
9.17585e-06
4.57884e-05
9.17315e-06
4.27316e-05
9.17055e-06
3.96757e-05
9.16807e-06
3.66205e-05
9.16573e-06
3.35661e-05
9.16352e-06
3.05124e-05
9.16147e-06
2.74593e-05
9.15958e-06
2.44067e-05
9.15786e-06
2.13547e-05
9.15631e-06
1.83032e-05
9.15494e-06
1.52521e-05
9.15375e-06
1.22012e-05
9.15276e-06
9.1507e-06
9.15196e-06
6.10035e-06
9.15136e-06
3.05014e-06
9.15097e-06
9.15077e-06
3.67811e-06
-1.47135e-05
7.35629e-06
-1.47138e-05
1.10346e-05
-1.47143e-05
1.47132e-05
-1.47152e-05
1.83921e-05
-1.47164e-05
2.20713e-05
-1.47178e-05
2.5751e-05
-1.47195e-05
2.94311e-05
-1.47214e-05
3.31119e-05
-1.47235e-05
3.67932e-05
-1.47258e-05
4.04751e-05
-1.47282e-05
4.41577e-05
-1.47308e-05
4.78411e-05
-1.47335e-05
5.15251e-05
-1.47362e-05
5.52099e-05
-1.4739e-05
5.88954e-05
-1.47417e-05
6.25816e-05
-1.47443e-05
6.62685e-05
-1.47468e-05
6.9956e-05
-1.47492e-05
7.3644e-05
-1.47513e-05
7.73326e-05
-1.47531e-05
8.10216e-05
-1.47545e-05
8.4711e-05
-1.47556e-05
8.84005e-05
-1.47561e-05
9.20901e-05
-1.47561e-05
9.57796e-05
-1.47554e-05
9.94688e-05
-1.4754e-05
0.000103158
-1.47519e-05
0.000106846
-1.47488e-05
0.000110533
-1.47448e-05
0.000114219
-1.47398e-05
0.000117903
-1.47335e-05
0.000121586
-1.47261e-05
0.000125266
-1.47173e-05
0.000128945
-1.4707e-05
0.00013262
-1.46953e-05
0.000136292
-1.46818e-05
0.00013996
-1.46666e-05
0.000143624
-1.46496e-05
0.000147284
-1.46305e-05
0.000150938
-1.46094e-05
0.000154587
-1.45861e-05
0.000158229
-1.45604e-05
0.000161864
-1.45323e-05
0.000165492
-1.45016e-05
0.000169111
-1.44682e-05
0.000172722
-1.4432e-05
0.000176323
-1.43929e-05
0.000179913
-1.43507e-05
0.000183492
-1.43053e-05
0.00018706
-1.42566e-05
0.000190614
-1.42045e-05
0.000194154
-1.41488e-05
0.00019768
-1.40894e-05
0.00020119
-1.40262e-05
0.000204683
-1.39591e-05
0.000208159
-1.38879e-05
0.000211616
-1.38125e-05
0.000215053
-1.37329e-05
0.000218469
-1.36489e-05
0.000221863
-1.35604e-05
0.000225234
-1.34672e-05
0.000228581
-1.33694e-05
0.000231902
-1.32667e-05
0.000235196
-1.31591e-05
0.000238462
-1.30465e-05
0.000241699
-1.29288e-05
0.000244905
-1.2806e-05
0.000248079
-1.26779e-05
0.00025122
-1.25445e-05
0.000254326
-1.24057e-05
0.000257396
-1.22615e-05
0.000260429
-1.21118e-05
0.000263423
-1.19566e-05
0.000266377
-1.17959e-05
0.000269289
-1.16296e-05
0.000272158
-1.14577e-05
0.000274983
-1.12801e-05
0.000277762
-1.1097e-05
0.000280494
-1.09083e-05
0.000283177
-1.07141e-05
0.000285811
-1.05143e-05
0.000288393
-1.0309e-05
0.000290922
-1.00982e-05
0.000293397
-9.88209e-06
0.000295817
-9.66062e-06
0.00029818
-9.43389e-06
0.000300485
-9.202e-06
0.000302731
-8.96505e-06
0.000304916
-8.72313e-06
0.000307039
-8.47637e-06
0.000309099
-8.22489e-06
0.000311095
-7.96882e-06
0.000313026
-7.70832e-06
0.00031489
-7.44352e-06
0.000316687
-7.1746e-06
0.000318416
-6.90172e-06
0.000320076
-6.62505e-06
0.000321665
-6.34479e-06
0.000323183
-6.06113e-06
0.000324629
-5.77426e-06
0.000326003
-5.4844e-06
0.000327303
-5.19174e-06
0.000328529
-4.89651e-06
0.00032968
-4.59892e-06
0.000330757
-4.29921e-06
0.000331758
-3.9976e-06
0.000332683
-3.69433e-06
0.000333531
-3.38962e-06
0.000334303
-3.08372e-06
0.000334998
-2.77687e-06
0.000335615
-2.4693e-06
0.000336156
-2.16126e-06
0.000336619
-1.85299e-06
0.000337005
-1.54471e-06
0.000337314
-1.23668e-06
0.000337546
-9.29134e-07
0.0003377
-6.22296e-07
0.000337778
-3.16402e-07
0.00033778
-1.1678e-08
0.000337706
2.91651e-07
0.000337556
5.93367e-07
0.000337331
8.93255e-07
0.000337031
1.19111e-06
0.000336657
1.48672e-06
0.00033621
1.77989e-06
0.00033569
2.07043e-06
0.000335098
2.35816e-06
0.000334434
2.64289e-06
0.0003337
2.92447e-06
0.000332897
3.20271e-06
0.000332024
3.47748e-06
0.000331084
3.74861e-06
0.000330076
4.01598e-06
0.000329003
4.27945e-06
0.000327865
4.53889e-06
0.000326662
4.79419e-06
0.000325397
5.04525e-06
0.00032407
5.29196e-06
0.000322683
5.53424e-06
0.000321236
5.77199e-06
0.00031973
6.00516e-06
0.000318168
6.23366e-06
0.000316549
6.45745e-06
0.000314876
6.67647e-06
0.000313149
6.89068e-06
0.00031137
7.10004e-06
0.000309539
7.30453e-06
0.000307659
7.50413e-06
0.00030573
7.69882e-06
0.000303754
7.88859e-06
0.000301731
8.07345e-06
0.000299663
8.2534e-06
0.000297552
8.42845e-06
0.000295398
8.59862e-06
0.000293203
8.76394e-06
0.000290968
8.92443e-06
0.000288693
9.08013e-06
0.000286382
9.23107e-06
0.000284033
9.3773e-06
0.000281649
9.51887e-06
0.000279232
9.65582e-06
0.000276781
9.78822e-06
0.000274298
9.91612e-06
0.000271784
1.00396e-05
0.00026924
1.01587e-05
0.000266668
1.02735e-05
0.000264069
1.03841e-05
0.000261443
1.04905e-05
0.000258791
1.05928e-05
0.000256115
1.06911e-05
0.000253415
1.07855e-05
0.000250693
1.08761e-05
0.000247949
1.09629e-05
0.000245184
1.1046e-05
0.0002424
1.11255e-05
0.000239596
1.12015e-05
0.000236775
1.12741e-05
0.000233936
1.13434e-05
0.000231081
1.14093e-05
0.00022821
1.14722e-05
0.000225325
1.15319e-05
0.000222425
1.15887e-05
0.000219512
1.16425e-05
0.000216586
1.16936e-05
0.000213648
1.17419e-05
0.000210699
1.17875e-05
0.000207739
1.18306e-05
0.000204769
1.18712e-05
0.00020179
1.19094e-05
0.000198802
1.19453e-05
0.000195805
1.19789e-05
0.000192801
1.20104e-05
0.000189789
1.20398e-05
0.00018677
1.20672e-05
0.000183746
1.20927e-05
0.000180715
1.21164e-05
0.000177679
1.21383e-05
0.000174638
1.21584e-05
0.000171592
1.2177e-05
0.000168542
1.2194e-05
0.000165489
1.22094e-05
0.000162432
1.22235e-05
0.000159372
1.22362e-05
0.000156309
1.22477e-05
0.000153243
1.22579e-05
0.000150175
1.22669e-05
0.000147106
1.22748e-05
0.000144035
1.22817e-05
0.000140962
1.22876e-05
0.000137888
1.22926e-05
0.000134813
1.22967e-05
0.000131737
1.23e-05
0.000128661
1.23025e-05
0.000125584
1.23042e-05
0.000122508
1.23054e-05
0.000119431
1.23058e-05
0.000116354
1.23057e-05
0.000113277
1.23051e-05
0.000110201
1.2304e-05
0.000107125
1.23024e-05
0.000104049
1.23005e-05
0.000100974
1.22981e-05
9.79002e-05
1.22955e-05
9.48268e-05
1.22925e-05
9.17543e-05
1.22893e-05
8.86827e-05
1.22858e-05
8.5612e-05
1.22822e-05
8.25423e-05
1.22784e-05
7.94735e-05
1.22745e-05
7.64059e-05
1.22705e-05
7.33392e-05
1.22664e-05
7.02736e-05
1.22623e-05
6.72091e-05
1.22582e-05
6.41456e-05
1.22541e-05
6.10831e-05
1.225e-05
5.80217e-05
1.22459e-05
5.49613e-05
1.2242e-05
5.19019e-05
1.22381e-05
4.88434e-05
1.22343e-05
4.57858e-05
1.22307e-05
4.27292e-05
1.22272e-05
3.96734e-05
1.22239e-05
3.66183e-05
1.22207e-05
3.35641e-05
1.22178e-05
3.05105e-05
1.2215e-05
2.74576e-05
1.22125e-05
2.44052e-05
1.22102e-05
2.13534e-05
1.22081e-05
1.8302e-05
1.22063e-05
1.52511e-05
1.22047e-05
1.22004e-05
1.22034e-05
9.1501e-06
1.22023e-05
6.09995e-06
1.22015e-05
3.04994e-06
1.2201e-05
1.22007e-05
3.67781e-06
-1.83913e-05
7.3557e-06
-1.83916e-05
1.10338e-05
-1.83924e-05
1.4712e-05
-1.83935e-05
1.83906e-05
-1.8395e-05
2.20696e-05
-1.83968e-05
2.57491e-05
-1.83989e-05
2.9429e-05
-1.84013e-05
3.31096e-05
-1.8404e-05
3.67907e-05
-1.84069e-05
4.04725e-05
-1.84101e-05
4.41551e-05
-1.84134e-05
4.78384e-05
-1.84168e-05
5.15224e-05
-1.84203e-05
5.52072e-05
-1.84238e-05
5.88928e-05
-1.84273e-05
6.25791e-05
-1.84307e-05
6.62661e-05
-1.84339e-05
6.99539e-05
-1.84369e-05
7.36422e-05
-1.84397e-05
7.73312e-05
-1.8442e-05
8.10206e-05
-1.8444e-05
8.47104e-05
-1.84454e-05
8.84005e-05
-1.84462e-05
9.20907e-05
-1.84463e-05
9.57809e-05
-1.84456e-05
9.94709e-05
-1.84441e-05
0.000103161
-1.84415e-05
0.00010685
-1.84379e-05
0.000110538
-1.8433e-05
0.000114225
-1.84268e-05
0.000117911
-1.84193e-05
0.000121595
-1.84101e-05
0.000125277
-1.83993e-05
0.000128956
-1.83867e-05
0.000132633
-1.83722e-05
0.000136307
-1.83556e-05
0.000139977
-1.83368e-05
0.000143643
-1.83157e-05
0.000147305
-1.82921e-05
0.000150961
-1.82659e-05
0.000154612
-1.82369e-05
0.000158257
-1.82051e-05
0.000161895
-1.81702e-05
0.000165525
-1.8132e-05
0.000169148
-1.80905e-05
0.000172761
-1.80455e-05
0.000176365
-1.79968e-05
0.000179959
-1.79443e-05
0.000183541
-1.78878e-05
0.000187112
-1.78272e-05
0.00019067
-1.77622e-05
0.000194214
-1.76929e-05
0.000197743
-1.76189e-05
0.000201257
-1.75401e-05
0.000204754
-1.74564e-05
0.000208234
-1.73677e-05
0.000211695
-1.72737e-05
0.000215137
-1.71744e-05
0.000218558
-1.70696e-05
0.000221956
-1.69591e-05
0.000225332
-1.68429e-05
0.000228683
-1.67208e-05
0.000232009
-1.65926e-05
0.000235308
-1.64583e-05
0.00023858
-1.63177e-05
0.000241821
-1.61707e-05
0.000245033
-1.60173e-05
0.000248212
-1.58573e-05
0.000251358
-1.56907e-05
0.00025447
-1.55173e-05
0.000257546
-1.53372e-05
0.000260584
-1.51501e-05
0.000263584
-1.49562e-05
0.000266543
-1.47553e-05
0.000269461
-1.45474e-05
0.000272336
-1.43326e-05
0.000275166
-1.41107e-05
0.000277951
-1.38818e-05
0.000280688
-1.36459e-05
0.000283377
-1.3403e-05
0.000286016
-1.31532e-05
0.000288604
-1.28965e-05
0.000291138
-1.26329e-05
0.000293619
-1.23626e-05
0.000296044
-1.20856e-05
0.000298412
-1.1802e-05
0.000300722
-1.1512e-05
0.000302973
-1.12156e-05
0.000305162
-1.0913e-05
0.00030729
-1.06043e-05
0.000309355
-1.02897e-05
0.000311356
-9.96935e-06
0.000313291
-9.64343e-06
0.000315159
-9.31213e-06
0.00031696
-8.97566e-06
0.000318693
-8.63423e-06
0.000320356
-8.28805e-06
0.000321949
-7.93737e-06
0.00032347
-7.58242e-06
0.000324919
-7.22345e-06
0.000326295
-6.86072e-06
0.000327598
-6.49449e-06
0.000328827
-6.12504e-06
0.00032998
-5.75264e-06
0.000331059
-5.37757e-06
0.000332061
-5.00012e-06
0.000332988
-4.62059e-06
0.000333837
-4.23926e-06
0.00033461
-3.85644e-06
0.000335305
-3.47243e-06
0.000335924
-3.08752e-06
0.000336464
-2.70202e-06
0.000336928
-2.31623e-06
0.000337313
-1.93044e-06
0.000337622
-1.54496e-06
0.000337853
-1.16009e-06
0.000338006
-7.76108e-07
0.000338083
-3.93314e-07
0.000338084
-1.19907e-08
0.000338008
3.67582e-07
0.000337856
7.45128e-07
0.000337629
1.12038e-06
0.000337327
1.49308e-06
0.000336951
1.86296e-06
0.000336501
2.22978e-06
0.000335978
2.5933e-06
0.000335383
2.9533e-06
0.000334716
3.30954e-06
0.000333979
3.66181e-06
0.000333172
4.00991e-06
0.000332295
4.35364e-06
0.000331351
4.69282e-06
0.00033034
5.02728e-06
0.000329262
5.35684e-06
0.00032812
5.68136e-06
0.000326913
6.00069e-06
0.000325644
6.3147e-06
0.000324313
6.62326e-06
0.000322921
6.92626e-06
0.000321469
7.22359e-06
0.000319959
7.51517e-06
0.000318392
7.80091e-06
0.000316769
8.08074e-06
0.00031509
8.3546e-06
0.000313359
8.62242e-06
0.000311575
8.88418e-06
0.000309739
9.13983e-06
0.000307854
9.38936e-06
0.00030592
9.63273e-06
0.000303939
9.86995e-06
0.000301911
1.0101e-05
0.000299839
1.03259e-05
0.000297722
1.05447e-05
0.000295564
1.07574e-05
0.000293364
1.0964e-05
0.000291124
1.11645e-05
0.000288845
1.13591e-05
0.000286528
1.15477e-05
0.000284175
1.17304e-05
0.000281787
1.19072e-05
0.000279364
1.20783e-05
0.000276909
1.22437e-05
0.000274421
1.24035e-05
0.000271903
1.25577e-05
0.000269355
1.27064e-05
0.000266779
1.28498e-05
0.000264175
1.29879e-05
0.000261545
1.31207e-05
0.000258889
1.32485e-05
0.000256209
1.33713e-05
0.000253506
1.34891e-05
0.00025078
1.36022e-05
0.000248032
1.37105e-05
0.000245264
1.38142e-05
0.000242476
1.39135e-05