/*--------------------------------*- C++ -*----------------------------------*\
| =========                 |                                                 |
| \\      /  F ield         | OpenFOAM: The Open Source CFD Toolbox           |
|  \\    /   O peration     | Version:  v2012                                 |
|   \\  /    A nd           | Website:  www.openfoam.com                      |
|    \\/     M anipulation  |                                                 |
\*---------------------------------------------------------------------------*/
FoamFile
{
    version     2.0;
    format      ascii;
    class       volVectorField;
    location    "14.9";
    object      Psi;
}
// * * * * * * * * * * * * * * * * * * * * * * * * * * * * * * * * * * * * * //

dimensions      [0 2 -1 0 0 0 0];


internalField   nonuniform List<vector> 
65536
(
(0 0 8.53114e-06)
(0 0 2.5594e-05)
(0 0 4.26584e-05)
(0 0 5.97252e-05)
(0 0 7.67954e-05)
(0 0 9.387e-05)
(0 0 0.00011095)
(0 0 0.000128036)
(0 0 0.000145129)
(0 0 0.000162231)
(0 0 0.000179341)
(0 0 0.000196461)
(0 0 0.000213592)
(0 0 0.000230734)
(0 0 0.000247888)
(0 0 0.000265055)
(0 0 0.000282236)
(0 0 0.000299431)
(0 0 0.000316641)
(0 0 0.000333866)
(0 0 0.000351107)
(0 0 0.000368364)
(0 0 0.000385639)
(0 0 0.00040293)
(0 0 0.000420239)
(0 0 0.000437565)
(0 0 0.000454909)
(0 0 0.000472271)
(0 0 0.000489651)
(0 0 0.000507048)
(0 0 0.000524463)
(0 0 0.000541895)
(0 0 0.000559344)
(0 0 0.00057681)
(0 0 0.000594291)
(0 0 0.000611788)
(0 0 0.0006293)
(0 0 0.000646825)
(0 0 0.000664363)
(0 0 0.000681913)
(0 0 0.000699474)
(0 0 0.000717043)
(0 0 0.00073462)
(0 0 0.000752204)
(0 0 0.000769792)
(0 0 0.000787382)
(0 0 0.000804973)
(0 0 0.000822562)
(0 0 0.000840148)
(0 0 0.000857727)
(0 0 0.000875297)
(0 0 0.000892855)
(0 0 0.000910399)
(0 0 0.000927925)
(0 0 0.00094543)
(0 0 0.000962911)
(0 0 0.000980363)
(0 0 0.000997783)
(0 0 0.00101517)
(0 0 0.00103251)
(0 0 0.00104981)
(0 0 0.00106706)
(0 0 0.00108426)
(0 0 0.0011014)
(0 0 0.00111848)
(0 0 0.00113548)
(0 0 0.00115241)
(0 0 0.00116927)
(0 0 0.00118603)
(0 0 0.00120271)
(0 0 0.00121929)
(0 0 0.00123576)
(0 0 0.00125212)
(0 0 0.00126837)
(0 0 0.00128449)
(0 0 0.00130048)
(0 0 0.00131633)
(0 0 0.00133204)
(0 0 0.00134759)
(0 0 0.00136299)
(0 0 0.00137821)
(0 0 0.00139326)
(0 0 0.00140813)
(0 0 0.0014228)
(0 0 0.00143727)
(0 0 0.00145154)
(0 0 0.00146559)
(0 0 0.00147942)
(0 0 0.00149301)
(0 0 0.00150637)
(0 0 0.00151947)
(0 0 0.00153232)
(0 0 0.00154491)
(0 0 0.00155722)
(0 0 0.00156924)
(0 0 0.00158098)
(0 0 0.00159242)
(0 0 0.00160356)
(0 0 0.00161438)
(0 0 0.00162488)
(0 0 0.00163506)
(0 0 0.00164489)
(0 0 0.00165439)
(0 0 0.00166353)
(0 0 0.00167232)
(0 0 0.00168074)
(0 0 0.0016888)
(0 0 0.00169648)
(0 0 0.00170378)
(0 0 0.00171069)
(0 0 0.00171721)
(0 0 0.00172333)
(0 0 0.00172905)
(0 0 0.00173437)
(0 0 0.00173927)
(0 0 0.00174377)
(0 0 0.00174784)
(0 0 0.0017515)
(0 0 0.00175473)
(0 0 0.00175754)
(0 0 0.00175993)
(0 0 0.00176189)
(0 0 0.00176342)
(0 0 0.00176452)
(0 0 0.00176519)
(0 0 0.00176543)
(0 0 0.00176525)
(0 0 0.00176464)
(0 0 0.0017636)
(0 0 0.00176214)
(0 0 0.00176025)
(0 0 0.00175795)
(0 0 0.00175523)
(0 0 0.00175209)
(0 0 0.00174855)
(0 0 0.0017446)
(0 0 0.00174024)
(0 0 0.00173549)
(0 0 0.00173034)
(0 0 0.0017248)
(0 0 0.00171888)
(0 0 0.00171259)
(0 0 0.00170592)
(0 0 0.00169888)
(0 0 0.00169148)
(0 0 0.00168373)
(0 0 0.00167563)
(0 0 0.0016672)
(0 0 0.00165842)
(0 0 0.00164932)
(0 0 0.00163991)
(0 0 0.00163018)
(0 0 0.00162014)
(0 0 0.00160981)
(0 0 0.00159918)
(0 0 0.00158828)
(0 0 0.0015771)
(0 0 0.00156565)
(0 0 0.00155394)
(0 0 0.00154198)
(0 0 0.00152978)
(0 0 0.00151734)
(0 0 0.00150467)
(0 0 0.00149178)
(0 0 0.00147868)
(0 0 0.00146537)
(0 0 0.00145186)
(0 0 0.00143816)
(0 0 0.00142428)
(0 0 0.00141022)
(0 0 0.00139599)
(0 0 0.00138159)
(0 0 0.00136704)
(0 0 0.00135234)
(0 0 0.0013375)
(0 0 0.00132252)
(0 0 0.00130741)
(0 0 0.00129218)
(0 0 0.00127683)
(0 0 0.00126137)
(0 0 0.00124581)
(0 0 0.00123014)
(0 0 0.00121438)
(0 0 0.00119853)
(0 0 0.00118259)
(0 0 0.00116658)
(0 0 0.00115049)
(0 0 0.00113434)
(0 0 0.00111812)
(0 0 0.00110183)
(0 0 0.0010855)
(0 0 0.00106911)
(0 0 0.00105267)
(0 0 0.00103619)
(0 0 0.00101967)
(0 0 0.00100311)
(0 0 0.000986525)
(0 0 0.000969905)
(0 0 0.000953258)
(0 0 0.000936588)
(0 0 0.000919897)
(0 0 0.000903188)
(0 0 0.000886463)
(0 0 0.000869725)
(0 0 0.000852976)
(0 0 0.000836218)
(0 0 0.000819455)
(0 0 0.000802686)
(0 0 0.000785915)
(0 0 0.000769143)
(0 0 0.000752372)
(0 0 0.000735602)
(0 0 0.000718837)
(0 0 0.000702076)
(0 0 0.000685322)
(0 0 0.000668574)
(0 0 0.000651835)
(0 0 0.000635105)
(0 0 0.000618385)
(0 0 0.000601676)
(0 0 0.000584978)
(0 0 0.000568292)
(0 0 0.000551619)
(0 0 0.000534959)
(0 0 0.000518311)
(0 0 0.000501678)
(0 0 0.000485058)
(0 0 0.000468452)
(0 0 0.000451859)
(0 0 0.000435281)
(0 0 0.000418717)
(0 0 0.000402167)
(0 0 0.000385631)
(0 0 0.000369108)
(0 0 0.000352599)
(0 0 0.000336102)
(0 0 0.000319619)
(0 0 0.000303147)
(0 0 0.000286688)
(0 0 0.00027024)
(0 0 0.000253804)
(0 0 0.000237377)
(0 0 0.000220961)
(0 0 0.000204555)
(0 0 0.000188157)
(0 0 0.000171767)
(0 0 0.000155385)
(0 0 0.00013901)
(0 0 0.000122641)
(0 0 0.000106277)
(0 0 8.99187e-05)
(0 0 7.35642e-05)
(0 0 5.72131e-05)
(0 0 4.08646e-05)
(0 0 2.4518e-05)
(0 0 8.17255e-06)
(0 0 2.55932e-05)
(0 0 7.6781e-05)
(0 0 0.000127973)
(0 0 0.000179173)
(0 0 0.000230383)
(0 0 0.000281606)
(0 0 0.000332845)
(0 0 0.000384102)
(0 0 0.000435381)
(0 0 0.000486685)
(0 0 0.000538015)
(0 0 0.000589374)
(0 0 0.000640766)
(0 0 0.000692191)
(0 0 0.000743653)
(0 0 0.000795154)
(0 0 0.000846696)
(0 0 0.00089828)
(0 0 0.000949909)
(0 0 0.00100158)
(0 0 0.00105331)
(0 0 0.00110508)
(0 0 0.0011569)
(0 0 0.00120878)
(0 0 0.0012607)
(0 0 0.00131268)
(0 0 0.00136471)
(0 0 0.0014168)
(0 0 0.00146894)
(0 0 0.00152113)
(0 0 0.00157338)
(0 0 0.00162567)
(0 0 0.00167802)
(0 0 0.00173042)
(0 0 0.00178286)
(0 0 0.00183536)
(0 0 0.00188789)
(0 0 0.00194047)
(0 0 0.00199308)
(0 0 0.00204573)
(0 0 0.00209842)
(0 0 0.00215113)
(0 0 0.00220386)
(0 0 0.00225661)
(0 0 0.00230938)
(0 0 0.00236215)
(0 0 0.00241493)
(0 0 0.0024677)
(0 0 0.00252046)
(0 0 0.0025732)
(0 0 0.00262591)
(0 0 0.00267859)
(0 0 0.00273122)
(0 0 0.0027838)
(0 0 0.00283632)
(0 0 0.00288877)
(0 0 0.00294113)
(0 0 0.00299339)
(0 0 0.00304555)
(0 0 0.00309759)
(0 0 0.00314949)
(0 0 0.00320125)
(0 0 0.00325285)
(0 0 0.00330427)
(0 0 0.0033555)
(0 0 0.00340653)
(0 0 0.00345733)
(0 0 0.00350789)
(0 0 0.0035582)
(0 0 0.00360823)
(0 0 0.00365797)
(0 0 0.0037074)
(0 0 0.00375649)
(0 0 0.00380523)
(0 0 0.00385361)
(0 0 0.00390158)
(0 0 0.00394915)
(0 0 0.00399627)
(0 0 0.00404294)
(0 0 0.00408913)
(0 0 0.00413481)
(0 0 0.00417997)
(0 0 0.00422457)
(0 0 0.0042686)
(0 0 0.00431204)
(0 0 0.00435485)
(0 0 0.00439701)
(0 0 0.0044385)
(0 0 0.00447929)
(0 0 0.00451936)
(0 0 0.00455868)
(0 0 0.00459724)
(0 0 0.004635)
(0 0 0.00467193)
(0 0 0.00470803)
(0 0 0.00474325)
(0 0 0.00477758)
(0 0 0.004811)
(0 0 0.00484347)
(0 0 0.00487498)
(0 0 0.00490551)
(0 0 0.00493503)
(0 0 0.00496351)
(0 0 0.00499095)
(0 0 0.00501732)
(0 0 0.0050426)
(0 0 0.00506677)
(0 0 0.00508982)
(0 0 0.00511172)
(0 0 0.00513246)
(0 0 0.00515202)
(0 0 0.00517039)
(0 0 0.00518756)
(0 0 0.00520351)
(0 0 0.00521823)
(0 0 0.00523171)
(0 0 0.00524394)
(0 0 0.00525492)
(0 0 0.00526462)
(0 0 0.00527306)
(0 0 0.00528021)
(0 0 0.00528609)
(0 0 0.00529068)
(0 0 0.00529398)
(0 0 0.005296)
(0 0 0.00529673)
(0 0 0.00529618)
(0 0 0.00529434)
(0 0 0.00529122)
(0 0 0.00528684)
(0 0 0.00528118)
(0 0 0.00527427)
(0 0 0.0052661)
(0 0 0.00525669)
(0 0 0.00524605)
(0 0 0.00523419)
(0 0 0.00522112)
(0 0 0.00520685)
(0 0 0.0051914)
(0 0 0.00517479)
(0 0 0.00515703)
(0 0 0.00513813)
(0 0 0.00511811)
(0 0 0.00509699)
(0 0 0.0050748)
(0 0 0.00505154)
(0 0 0.00502724)
(0 0 0.00500192)
(0 0 0.00497559)
(0 0 0.00494829)
(0 0 0.00492003)
(0 0 0.00489083)
(0 0 0.00486071)
(0 0 0.0048297)
(0 0 0.00479783)
(0 0 0.0047651)
(0 0 0.00473155)
(0 0 0.0046972)
(0 0 0.00466207)
(0 0 0.00462619)
(0 0 0.00458957)
(0 0 0.00455225)
(0 0 0.00451423)
(0 0 0.00447556)
(0 0 0.00443624)
(0 0 0.0043963)
(0 0 0.00435577)
(0 0 0.00431466)
(0 0 0.004273)
(0 0 0.00423081)
(0 0 0.00418811)
(0 0 0.00414492)
(0 0 0.00410127)
(0 0 0.00405716)
(0 0 0.00401263)
(0 0 0.00396769)
(0 0 0.00392236)
(0 0 0.00387666)
(0 0 0.0038306)
(0 0 0.00378422)
(0 0 0.00373751)
(0 0 0.00369051)
(0 0 0.00364322)
(0 0 0.00359566)
(0 0 0.00354785)
(0 0 0.00349981)
(0 0 0.00345154)
(0 0 0.00340307)
(0 0 0.0033544)
(0 0 0.00330555)
(0 0 0.00325654)
(0 0 0.00320737)
(0 0 0.00315805)
(0 0 0.00310861)
(0 0 0.00305905)
(0 0 0.00300937)
(0 0 0.0029596)
(0 0 0.00290974)
(0 0 0.00285979)
(0 0 0.00280978)
(0 0 0.0027597)
(0 0 0.00270957)
(0 0 0.0026594)
(0 0 0.00260918)
(0 0 0.00255893)
(0 0 0.00250866)
(0 0 0.00245836)
(0 0 0.00240806)
(0 0 0.00235774)
(0 0 0.00230742)
(0 0 0.00225711)
(0 0 0.0022068)
(0 0 0.0021565)
(0 0 0.00210622)
(0 0 0.00205595)
(0 0 0.00200571)
(0 0 0.00195549)
(0 0 0.0019053)
(0 0 0.00185514)
(0 0 0.00180501)
(0 0 0.00175492)
(0 0 0.00170486)
(0 0 0.00165484)
(0 0 0.00160486)
(0 0 0.00155492)
(0 0 0.00150502)
(0 0 0.00145516)
(0 0 0.00140534)
(0 0 0.00135556)
(0 0 0.00130583)
(0 0 0.00125614)
(0 0 0.00120649)
(0 0 0.00115688)
(0 0 0.00110731)
(0 0 0.00105778)
(0 0 0.00100829)
(0 0 0.000958841)
(0 0 0.000909428)
(0 0 0.000860051)
(0 0 0.000810708)
(0 0 0.000761399)
(0 0 0.000712121)
(0 0 0.000662873)
(0 0 0.000613653)
(0 0 0.00056446)
(0 0 0.000515292)
(0 0 0.000466147)
(0 0 0.000417022)
(0 0 0.000367916)
(0 0 0.000318826)
(0 0 0.000269751)
(0 0 0.000220689)
(0 0 0.000171636)
(0 0 0.000122592)
(0 0 7.35529e-05)
(0 0 2.45172e-05)
(0 0 4.26537e-05)
(0 0 0.000127964)
(0 0 0.000213281)
(0 0 0.00029861)
(0 0 0.000383957)
(0 0 0.000469325)
(0 0 0.00055472)
(0 0 0.000640147)
(0 0 0.000725609)
(0 0 0.000811112)
(0 0 0.000896659)
(0 0 0.000982255)
(0 0 0.00106791)
(0 0 0.00115361)
(0 0 0.00123938)
(0 0 0.00132521)
(0 0 0.00141111)
(0 0 0.00149709)
(0 0 0.00158313)
(0 0 0.00166926)
(0 0 0.00175546)
(0 0 0.00184174)
(0 0 0.00192811)
(0 0 0.00201457)
(0 0 0.00210111)
(0 0 0.00218774)
(0 0 0.00227446)
(0 0 0.00236127)
(0 0 0.00244817)
(0 0 0.00253516)
(0 0 0.00262224)
(0 0 0.0027094)
(0 0 0.00279665)
(0 0 0.00288398)
(0 0 0.00297139)
(0 0 0.00305888)
(0 0 0.00314644)
(0 0 0.00323407)
(0 0 0.00332177)
(0 0 0.00340952)
(0 0 0.00349733)
(0 0 0.00358519)
(0 0 0.00367308)
(0 0 0.00376101)
(0 0 0.00384895)
(0 0 0.00393692)
(0 0 0.00402488)
(0 0 0.00411284)
(0 0 0.00420078)
(0 0 0.00428869)
(0 0 0.00437655)
(0 0 0.00446436)
(0 0 0.0045521)
(0 0 0.00463974)
(0 0 0.00472728)
(0 0 0.0048147)
(0 0 0.00490198)
(0 0 0.00498911)
(0 0 0.00507605)
(0 0 0.00516279)
(0 0 0.00524932)
(0 0 0.0053356)
(0 0 0.00542161)
(0 0 0.00550733)
(0 0 0.00559273)
(0 0 0.00567779)
(0 0 0.00576249)
(0 0 0.00584678)
(0 0 0.00593064)
(0 0 0.00601405)
(0 0 0.00609697)
(0 0 0.00617937)
(0 0 0.00626121)
(0 0 0.00634247)
(0 0 0.00642311)
(0 0 0.0065031)
(0 0 0.0065824)
(0 0 0.00666097)
(0 0 0.00673877)
(0 0 0.00681578)
(0 0 0.00689194)
(0 0 0.00696723)
(0 0 0.0070416)
(0 0 0.00711501)
(0 0 0.00718742)
(0 0 0.0072588)
(0 0 0.00732909)
(0 0 0.00739827)
(0 0 0.00746628)
(0 0 0.0075331)
(0 0 0.00759867)
(0 0 0.00766295)
(0 0 0.00772591)
(0 0 0.0077875)
(0 0 0.00784768)
(0 0 0.00790641)
(0 0 0.00796365)
(0 0 0.00801937)
(0 0 0.00807352)
(0 0 0.00812606)
(0 0 0.00817696)
(0 0 0.00822619)
(0 0 0.00827369)
(0 0 0.00831945)
(0 0 0.00836342)
(0 0 0.00840557)
(0 0 0.00844588)
(0 0 0.0084843)
(0 0 0.00852082)
(0 0 0.0085554)
(0 0 0.00858803)
(0 0 0.00861866)
(0 0 0.00864729)
(0 0 0.00867389)
(0 0 0.00869843)
(0 0 0.00872091)
(0 0 0.0087413)
(0 0 0.0087596)
(0 0 0.00877578)
(0 0 0.00878985)
(0 0 0.00880178)
(0 0 0.00881157)
(0 0 0.00881923)
(0 0 0.00882473)
(0 0 0.0088281)
(0 0 0.00882931)
(0 0 0.00882838)
(0 0 0.00882532)
(0 0 0.00882012)
(0 0 0.0088128)
(0 0 0.00880337)
(0 0 0.00879183)
(0 0 0.00877821)
(0 0 0.00876252)
(0 0 0.00874477)
(0 0 0.00872499)
(0 0 0.00870319)
(0 0 0.0086794)
(0 0 0.00865363)
(0 0 0.00862593)
(0 0 0.0085963)
(0 0 0.00856478)
(0 0 0.0085314)
(0 0 0.00849619)
(0 0 0.00845918)
(0 0 0.00842039)
(0 0 0.00837987)
(0 0 0.00833764)
(0 0 0.00829374)
(0 0 0.00824821)
(0 0 0.00820109)
(0 0 0.00815239)
(0 0 0.00810218)
(0 0 0.00805047)
(0 0 0.00799732)
(0 0 0.00794275)
(0 0 0.00788681)
(0 0 0.00782953)
(0 0 0.00777096)
(0 0 0.00771113)
(0 0 0.00765007)
(0 0 0.00758784)
(0 0 0.00752446)
(0 0 0.00745997)
(0 0 0.00739442)
(0 0 0.00732783)
(0 0 0.00726025)
(0 0 0.00719172)
(0 0 0.00712226)
(0 0 0.00705192)
(0 0 0.00698073)
(0 0 0.00690873)
(0 0 0.00683594)
(0 0 0.00676241)
(0 0 0.00668817)
(0 0 0.00661325)
(0 0 0.00653767)
(0 0 0.00646149)
(0 0 0.00638471)
(0 0 0.00630738)
(0 0 0.00622952)
(0 0 0.00615116)
(0 0 0.00607232)
(0 0 0.00599305)
(0 0 0.00591335)
(0 0 0.00583326)
(0 0 0.0057528)
(0 0 0.00567199)
(0 0 0.00559087)
(0 0 0.00550944)
(0 0 0.00542773)
(0 0 0.00534577)
(0 0 0.00526357)
(0 0 0.00518115)
(0 0 0.00509853)
(0 0 0.00501573)
(0 0 0.00493276)
(0 0 0.00484965)
(0 0 0.0047664)
(0 0 0.00468303)
(0 0 0.00459957)
(0 0 0.00451601)
(0 0 0.00443237)
(0 0 0.00434867)
(0 0 0.00426491)
(0 0 0.00418111)
(0 0 0.00409729)
(0 0 0.00401343)
(0 0 0.00392957)
(0 0 0.0038457)
(0 0 0.00376184)
(0 0 0.00367799)
(0 0 0.00359415)
(0 0 0.00351034)
(0 0 0.00342656)
(0 0 0.00334282)
(0 0 0.00325912)
(0 0 0.00317547)
(0 0 0.00309187)
(0 0 0.00300832)
(0 0 0.00292482)
(0 0 0.00284139)
(0 0 0.00275802)
(0 0 0.00267472)
(0 0 0.00259148)
(0 0 0.00250831)
(0 0 0.00242521)
(0 0 0.00234218)
(0 0 0.00225922)
(0 0 0.00217633)
(0 0 0.00209351)
(0 0 0.00201076)
(0 0 0.00192808)
(0 0 0.00184547)
(0 0 0.00176292)
(0 0 0.00168044)
(0 0 0.00159803)
(0 0 0.00151567)
(0 0 0.00143338)
(0 0 0.00135114)
(0 0 0.00126896)
(0 0 0.00118683)
(0 0 0.00110476)
(0 0 0.00102273)
(0 0 0.00094074)
(0 0 0.000858795)
(0 0 0.000776888)
(0 0 0.000695015)
(0 0 0.000613174)
(0 0 0.000531361)
(0 0 0.000449572)
(0 0 0.000367803)
(0 0 0.000286052)
(0 0 0.000204313)
(0 0 0.000122584)
(0 0 4.08608e-05)
(0 0 5.97117e-05)
(0 0 0.000179139)
(0 0 0.000298576)
(0 0 0.000418031)
(0 0 0.000537509)
(0 0 0.000657018)
(0 0 0.000776565)
(0 0 0.000896155)
(0 0 0.0010158)
(0 0 0.00113549)
(0 0 0.00125525)
(0 0 0.00137508)
(0 0 0.00149499)
(0 0 0.00161497)
(0 0 0.00173504)
(0 0 0.0018552)
(0 0 0.00197546)
(0 0 0.00209581)
(0 0 0.00221628)
(0 0 0.00233685)
(0 0 0.00245753)
(0 0 0.00257832)
(0 0 0.00269924)
(0 0 0.00282027)
(0 0 0.00294143)
(0 0 0.00306272)
(0 0 0.00318412)
(0 0 0.00330566)
(0 0 0.00342731)
(0 0 0.0035491)
(0 0 0.00367101)
(0 0 0.00379304)
(0 0 0.00391519)
(0 0 0.00403746)
(0 0 0.00415984)
(0 0 0.00428233)
(0 0 0.00440492)
(0 0 0.00452761)
(0 0 0.00465039)
(0 0 0.00477326)
(0 0 0.0048962)
(0 0 0.00501921)
(0 0 0.00514227)
(0 0 0.00526538)
(0 0 0.00538852)
(0 0 0.00551168)
(0 0 0.00563485)
(0 0 0.005758)
(0 0 0.00588114)
(0 0 0.00600423)
(0 0 0.00612726)
(0 0 0.00625021)
(0 0 0.00637306)
(0 0 0.00649578)
(0 0 0.00661837)
(0 0 0.00674078)
(0 0 0.006863)
(0 0 0.006985)
(0 0 0.00710675)
(0 0 0.00722822)
(0 0 0.00734938)
(0 0 0.00747021)
(0 0 0.00759066)
(0 0 0.00771071)
(0 0 0.00783031)
(0 0 0.00794943)
(0 0 0.00806804)
(0 0 0.00818609)
(0 0 0.00830354)
(0 0 0.00842035)
(0 0 0.00853648)
(0 0 0.00865188)
(0 0 0.00876652)
(0 0 0.00888033)
(0 0 0.00899327)
(0 0 0.00910531)
(0 0 0.00921637)
(0 0 0.00932642)
(0 0 0.0094354)
(0 0 0.00954326)
(0 0 0.00964995)
(0 0 0.0097554)
(0 0 0.00985957)
(0 0 0.00996241)
(0 0 0.0100638)
(0 0 0.0101638)
(0 0 0.0102623)
(0 0 0.0103592)
(0 0 0.0104545)
(0 0 0.0105481)
(0 0 0.0106399)
(0 0 0.01073)
(0 0 0.0108182)
(0 0 0.0109045)
(0 0 0.0109888)
(0 0 0.0110711)
(0 0 0.0111513)
(0 0 0.0112293)
(0 0 0.0113052)
(0 0 0.0113788)
(0 0 0.0114501)
(0 0 0.0115191)
(0 0 0.0115856)
(0 0 0.0116497)
(0 0 0.0117113)
(0 0 0.0117704)
(0 0 0.0118269)
(0 0 0.0118807)
(0 0 0.0119319)
(0 0 0.0119803)
(0 0 0.012026)
(0 0 0.0120689)
(0 0 0.012109)
(0 0 0.0121463)
(0 0 0.0121807)
(0 0 0.0122122)
(0 0 0.0122408)
(0 0 0.0122664)
(0 0 0.0122891)
(0 0 0.0123088)
(0 0 0.0123255)
(0 0 0.0123392)
(0 0 0.0123499)
(0 0 0.0123576)
(0 0 0.0123623)
(0 0 0.012364)
(0 0 0.0123627)
(0 0 0.0123584)
(0 0 0.0123511)
(0 0 0.0123409)
(0 0 0.0123277)
(0 0 0.0123115)
(0 0 0.0122924)
(0 0 0.0122704)
(0 0 0.0122455)
(0 0 0.0122178)
(0 0 0.0121873)
(0 0 0.0121539)
(0 0 0.0121178)
(0 0 0.012079)
(0 0 0.0120375)
(0 0 0.0119933)
(0 0 0.0119465)
(0 0 0.0118972)
(0 0 0.0118453)
(0 0 0.011791)
(0 0 0.0117342)
(0 0 0.011675)
(0 0 0.0116135)
(0 0 0.0115497)
(0 0 0.0114837)
(0 0 0.0114155)
(0 0 0.0113451)
(0 0 0.0112727)
(0 0 0.0111982)
(0 0 0.0111218)
(0 0 0.0110434)
(0 0 0.0109632)
(0 0 0.0108811)
(0 0 0.0107973)
(0 0 0.0107118)
(0 0 0.0106246)
(0 0 0.0105358)
(0 0 0.0104455)
(0 0 0.0103536)
(0 0 0.0102604)
(0 0 0.0101657)
(0 0 0.0100697)
(0 0 0.0099724)
(0 0 0.00987388)
(0 0 0.00977416)
(0 0 0.00967331)
(0 0 0.00957137)
(0 0 0.00946838)
(0 0 0.00936439)
(0 0 0.00925945)
(0 0 0.00915361)
(0 0 0.0090469)
(0 0 0.00893937)
(0 0 0.00883107)
(0 0 0.00872202)
(0 0 0.00861228)
(0 0 0.00850188)
(0 0 0.00839085)
(0 0 0.00827924)
(0 0 0.00816708)
(0 0 0.0080544)
(0 0 0.00794124)
(0 0 0.00782763)
(0 0 0.00771361)
(0 0 0.00759919)
(0 0 0.00748441)
(0 0 0.0073693)
(0 0 0.00725389)
(0 0 0.0071382)
(0 0 0.00702225)
(0 0 0.00690608)
(0 0 0.0067897)
(0 0 0.00667313)
(0 0 0.0065564)
(0 0 0.00643952)
(0 0 0.00632252)
(0 0 0.00620541)
(0 0 0.00608821)
(0 0 0.00597094)
(0 0 0.00585361)
(0 0 0.00573623)
(0 0 0.00561883)
(0 0 0.00550141)
(0 0 0.00538398)
(0 0 0.00526656)
(0 0 0.00514915)
(0 0 0.00503178)
(0 0 0.00491444)
(0 0 0.00479714)
(0 0 0.00467989)
(0 0 0.00456271)
(0 0 0.00444559)
(0 0 0.00432854)
(0 0 0.00421156)
(0 0 0.00409467)
(0 0 0.00397786)
(0 0 0.00386114)
(0 0 0.00374451)
(0 0 0.00362798)
(0 0 0.00351154)
(0 0 0.0033952)
(0 0 0.00327896)
(0 0 0.00316281)
(0 0 0.00304677)
(0 0 0.00293082)
(0 0 0.00281497)
(0 0 0.00269922)
(0 0 0.00258356)
(0 0 0.002468)
(0 0 0.00235253)
(0 0 0.00223715)
(0 0 0.00212186)
(0 0 0.00200665)
(0 0 0.00189152)
(0 0 0.00177647)
(0 0 0.0016615)
(0 0 0.00154659)
(0 0 0.00143175)
(0 0 0.00131698)
(0 0 0.00120226)
(0 0 0.00108759)
(0 0 0.000972978)
(0 0 0.000858405)
(0 0 0.000743871)
(0 0 0.000629372)
(0 0 0.000514901)
(0 0 0.000400454)
(0 0 0.000286025)
(0 0 0.00017161)
(0 0 5.72025e-05)
(0 0 7.67663e-05)
(0 0 0.000230303)
(0 0 0.000383854)
(0 0 0.000537427)
(0 0 0.00069103)
(0 0 0.000844673)
(0 0 0.000998365)
(0 0 0.00115211)
(0 0 0.00130593)
(0 0 0.00145981)
(0 0 0.00161378)
(0 0 0.00176784)
(0 0 0.00192199)
(0 0 0.00207624)
(0 0 0.00223061)
(0 0 0.00238509)
(0 0 0.0025397)
(0 0 0.00269444)
(0 0 0.00284931)
(0 0 0.00300432)
(0 0 0.00315948)
(0 0 0.00331478)
(0 0 0.00347024)
(0 0 0.00362586)
(0 0 0.00378163)
(0 0 0.00393756)
(0 0 0.00409366)
(0 0 0.00424991)
(0 0 0.00440633)
(0 0 0.00456291)
(0 0 0.00471966)
(0 0 0.00487656)
(0 0 0.00503361)
(0 0 0.00519082)
(0 0 0.00534817)
(0 0 0.00550567)
(0 0 0.0056633)
(0 0 0.00582105)
(0 0 0.00597893)
(0 0 0.00613691)
(0 0 0.006295)
(0 0 0.00645317)
(0 0 0.00661141)
(0 0 0.00676971)
(0 0 0.00692806)
(0 0 0.00708643)
(0 0 0.00724482)
(0 0 0.00740319)
(0 0 0.00756153)
(0 0 0.00771982)
(0 0 0.00787804)
(0 0 0.00803615)
(0 0 0.00819414)
(0 0 0.00835197)
(0 0 0.00850962)
(0 0 0.00866705)
(0 0 0.00882423)
(0 0 0.00898114)
(0 0 0.00913772)
(0 0 0.00929395)
(0 0 0.00944979)
(0 0 0.00960519)
(0 0 0.00976012)
(0 0 0.00991452)
(0 0 0.0100684)
(0 0 0.0102216)
(0 0 0.0103741)
(0 0 0.010526)
(0 0 0.0106771)
(0 0 0.0108273)
(0 0 0.0109767)
(0 0 0.0111252)
(0 0 0.0112726)
(0 0 0.0114191)
(0 0 0.0115644)
(0 0 0.0117085)
(0 0 0.0118514)
(0 0 0.0119929)
(0 0 0.0121332)
(0 0 0.0122719)
(0 0 0.0124092)
(0 0 0.0125449)
(0 0 0.0126789)
(0 0 0.0128112)
(0 0 0.0129417)
(0 0 0.0130704)
(0 0 0.0131971)
(0 0 0.0133218)
(0 0 0.0134444)
(0 0 0.0135648)
(0 0 0.013683)
(0 0 0.0137989)
(0 0 0.0139124)
(0 0 0.0140234)
(0 0 0.0141319)
(0 0 0.0142378)
(0 0 0.014341)
(0 0 0.0144414)
(0 0 0.0145391)
(0 0 0.0146338)
(0 0 0.0147256)
(0 0 0.0148143)
(0 0 0.0149)
(0 0 0.0149825)
(0 0 0.0150618)
(0 0 0.0151378)
(0 0 0.0152105)
(0 0 0.0152798)
(0 0 0.0153456)
(0 0 0.015408)
(0 0 0.0154668)
(0 0 0.015522)
(0 0 0.0155736)
(0 0 0.0156216)
(0 0 0.0156659)
(0 0 0.0157064)
(0 0 0.0157432)
(0 0 0.0157761)
(0 0 0.0158053)
(0 0 0.0158307)
(0 0 0.0158522)
(0 0 0.0158698)
(0 0 0.0158836)
(0 0 0.0158935)
(0 0 0.0158996)
(0 0 0.0159018)
(0 0 0.0159001)
(0 0 0.0158945)
(0 0 0.0158851)
(0 0 0.0158719)
(0 0 0.0158549)
(0 0 0.0158341)
(0 0 0.0158095)
(0 0 0.0157812)
(0 0 0.0157491)
(0 0 0.0157134)
(0 0 0.0156741)
(0 0 0.0156312)
(0 0 0.0155847)
(0 0 0.0155347)
(0 0 0.0154813)
(0 0 0.0154244)
(0 0 0.0153642)
(0 0 0.0153007)
(0 0 0.015234)
(0 0 0.015164)
(0 0 0.0150909)
(0 0 0.0150148)
(0 0 0.0149356)
(0 0 0.0148535)
(0 0 0.0147685)
(0 0 0.0146807)
(0 0 0.0145902)
(0 0 0.0144969)
(0 0 0.0144011)
(0 0 0.0143027)
(0 0 0.0142019)
(0 0 0.0140986)
(0 0 0.013993)
(0 0 0.0138852)
(0 0 0.0137751)
(0 0 0.0136629)
(0 0 0.0135487)
(0 0 0.0134324)
(0 0 0.0133143)
(0 0 0.0131943)
(0 0 0.0130725)
(0 0 0.012949)
(0 0 0.0128238)
(0 0 0.012697)
(0 0 0.0125687)
(0 0 0.012439)
(0 0 0.0123078)
(0 0 0.0121753)
(0 0 0.0120416)
(0 0 0.0119066)
(0 0 0.0117704)
(0 0 0.0116331)
(0 0 0.0114948)
(0 0 0.0113555)
(0 0 0.0112152)
(0 0 0.0110741)
(0 0 0.0109321)
(0 0 0.0107892)
(0 0 0.0106457)
(0 0 0.0105014)
(0 0 0.0103565)
(0 0 0.0102109)
(0 0 0.0100648)
(0 0 0.00991816)
(0 0 0.009771)
(0 0 0.00962339)
(0 0 0.00947534)
(0 0 0.00932691)
(0 0 0.00917812)
(0 0 0.00902901)
(0 0 0.0088796)
(0 0 0.00872993)
(0 0 0.00858002)
(0 0 0.0084299)
(0 0 0.0082796)
(0 0 0.00812914)
(0 0 0.00797854)
(0 0 0.00782783)
(0 0 0.00767702)
(0 0 0.00752614)
(0 0 0.00737521)
(0 0 0.00722424)
(0 0 0.00707325)
(0 0 0.00692225)
(0 0 0.00677126)
(0 0 0.0066203)
(0 0 0.00646937)
(0 0 0.00631849)
(0 0 0.00616766)
(0 0 0.00601691)
(0 0 0.00586623)
(0 0 0.00571563)
(0 0 0.00556513)
(0 0 0.00541473)
(0 0 0.00526443)
(0 0 0.00511424)
(0 0 0.00496417)
(0 0 0.00481422)
(0 0 0.00466438)
(0 0 0.00451467)
(0 0 0.00436509)
(0 0 0.00421563)
(0 0 0.0040663)
(0 0 0.0039171)
(0 0 0.00376803)
(0 0 0.00361908)
(0 0 0.00347026)
(0 0 0.00332156)
(0 0 0.00317299)
(0 0 0.00302453)
(0 0 0.00287619)
(0 0 0.00272796)
(0 0 0.00257984)
(0 0 0.00243183)
(0 0 0.00228391)
(0 0 0.00213609)
(0 0 0.00198836)
(0 0 0.00184072)
(0 0 0.00169316)
(0 0 0.00154567)
(0 0 0.00139825)
(0 0 0.0012509)
(0 0 0.0011036)
(0 0 0.000956348)
(0 0 0.000809143)
(0 0 0.000661975)
(0 0 0.000514838)
(0 0 0.000367724)
(0 0 0.000220628)
(0 0 7.35415e-05)
(0 0 9.38164e-05)
(0 0 0.000281455)
(0 0 0.00046911)
(0 0 0.000656791)
(0 0 0.000844511)
(0 0 0.00103228)
(0 0 0.00122011)
(0 0 0.001408)
(0 0 0.00159598)
(0 0 0.00178405)
(0 0 0.00197221)
(0 0 0.00216049)
(0 0 0.00234888)
(0 0 0.00253741)
(0 0 0.00272606)
(0 0 0.00291486)
(0 0 0.00310382)
(0 0 0.00329293)
(0 0 0.0034822)
(0 0 0.00367165)
(0 0 0.00386128)
(0 0 0.00405109)
(0 0 0.00424109)
(0 0 0.00443128)
(0 0 0.00462166)
(0 0 0.00481224)
(0 0 0.00500302)
(0 0 0.00519401)
(0 0 0.00538519)
(0 0 0.00557657)
(0 0 0.00576814)
(0 0 0.00595992)
(0 0 0.00615188)
(0 0 0.00634403)
(0 0 0.00653637)
(0 0 0.00672887)
(0 0 0.00692155)
(0 0 0.00711438)
(0 0 0.00730736)
(0 0 0.00750047)
(0 0 0.00769371)
(0 0 0.00788705)
(0 0 0.00808049)
(0 0 0.008274)
(0 0 0.00846757)
(0 0 0.00866117)
(0 0 0.00885479)
(0 0 0.0090484)
(0 0 0.00924198)
(0 0 0.00943549)
(0 0 0.00962892)
(0 0 0.00982222)
(0 0 0.0100154)
(0 0 0.0102083)
(0 0 0.0104011)
(0 0 0.0105936)
(0 0 0.0107857)
(0 0 0.0109776)
(0 0 0.0111691)
(0 0 0.0113601)
(0 0 0.0115506)
(0 0 0.0117407)
(0 0 0.0119301)
(0 0 0.0121189)
(0 0 0.012307)
(0 0 0.0124944)
(0 0 0.012681)
(0 0 0.0128667)
(0 0 0.0130514)
(0 0 0.0132352)
(0 0 0.0134179)
(0 0 0.0135995)
(0 0 0.0137798)
(0 0 0.0139589)
(0 0 0.0141366)
(0 0 0.0143129)
(0 0 0.0144877)
(0 0 0.0146608)
(0 0 0.0148323)
(0 0 0.0150021)
(0 0 0.01517)
(0 0 0.015336)
(0 0 0.0154999)
(0 0 0.0156618)
(0 0 0.0158215)
(0 0 0.0159788)
(0 0 0.0161339)
(0 0 0.0162864)
(0 0 0.0164364)
(0 0 0.0165838)
(0 0 0.0167284)
(0 0 0.0168702)
(0 0 0.017009)
(0 0 0.0171449)
(0 0 0.0172776)
(0 0 0.0174072)
(0 0 0.0175335)
(0 0 0.0176564)
(0 0 0.0177759)
(0 0 0.0178918)
(0 0 0.0180041)
(0 0 0.0181127)
(0 0 0.0182175)
(0 0 0.0183185)
(0 0 0.0184155)
(0 0 0.0185085)
(0 0 0.0185975)
(0 0 0.0186823)
(0 0 0.0187628)
(0 0 0.0188392)
(0 0 0.0189111)
(0 0 0.0189787)
(0 0 0.0190419)
(0 0 0.0191006)
(0 0 0.0191548)
(0 0 0.0192044)
(0 0 0.0192493)
(0 0 0.0192897)
(0 0 0.0193254)
(0 0 0.0193564)
(0 0 0.0193827)
(0 0 0.0194043)
(0 0 0.0194212)
(0 0 0.0194333)
(0 0 0.0194407)
(0 0 0.0194434)
(0 0 0.0194413)
(0 0 0.0194345)
(0 0 0.019423)
(0 0 0.0194068)
(0 0 0.0193859)
(0 0 0.0193604)
(0 0 0.0193303)
(0 0 0.0192956)
(0 0 0.0192564)
(0 0 0.0192127)
(0 0 0.0191646)
(0 0 0.019112)
(0 0 0.0190551)
(0 0 0.0189939)
(0 0 0.0189285)
(0 0 0.0188589)
(0 0 0.0187852)
(0 0 0.0187075)
(0 0 0.0186258)
(0 0 0.0185402)
(0 0 0.0184507)
(0 0 0.0183575)
(0 0 0.0182606)
(0 0 0.0181601)
(0 0 0.0180561)
(0 0 0.0179487)
(0 0 0.0178379)
(0 0 0.0177238)
(0 0 0.0176065)
(0 0 0.0174862)
(0 0 0.0173627)
(0 0 0.0172364)
(0 0 0.0171072)
(0 0 0.0169752)
(0 0 0.0168406)
(0 0 0.0167033)
(0 0 0.0165635)
(0 0 0.0164213)
(0 0 0.0162768)
(0 0 0.01613)
(0 0 0.015981)
(0 0 0.0158299)
(0 0 0.0156768)
(0 0 0.0155217)
(0 0 0.0153648)
(0 0 0.0152061)
(0 0 0.0150456)
(0 0 0.0148836)
(0 0 0.01472)
(0 0 0.0145549)
(0 0 0.0143883)
(0 0 0.0142204)
(0 0 0.0140513)
(0 0 0.0138809)
(0 0 0.0137093)
(0 0 0.0135367)
(0 0 0.013363)
(0 0 0.0131884)
(0 0 0.0130128)
(0 0 0.0128364)
(0 0 0.0126592)
(0 0 0.0124812)
(0 0 0.0123025)
(0 0 0.0121232)
(0 0 0.0119433)
(0 0 0.0117628)
(0 0 0.0115818)
(0 0 0.0114003)
(0 0 0.0112184)
(0 0 0.0110361)
(0 0 0.0108534)
(0 0 0.0106704)
(0 0 0.0104871)
(0 0 0.0103036)
(0 0 0.0101198)
(0 0 0.0099359)
(0 0 0.00975179)
(0 0 0.00956754)
(0 0 0.00938318)
(0 0 0.00919874)
(0 0 0.00901423)
(0 0 0.00882967)
(0 0 0.00864509)
(0 0 0.00846051)
(0 0 0.00827595)
(0 0 0.00809141)
(0 0 0.00790692)
(0 0 0.00772248)
(0 0 0.00753812)
(0 0 0.00735385)
(0 0 0.00716967)
(0 0 0.00698559)
(0 0 0.00680163)
(0 0 0.00661779)
(0 0 0.00643409)
(0 0 0.00625051)
(0 0 0.00606708)
(0 0 0.0058838)
(0 0 0.00570066)
(0 0 0.00551768)
(0 0 0.00533485)
(0 0 0.00515218)
(0 0 0.00496967)
(0 0 0.00478731)
(0 0 0.00460511)
(0 0 0.00442307)
(0 0 0.00424118)
(0 0 0.00405944)
(0 0 0.00387786)
(0 0 0.00369641)
(0 0 0.00351512)
(0 0 0.00333395)
(0 0 0.00315293)
(0 0 0.00297203)
(0 0 0.00279125)
(0 0 0.00261059)
(0 0 0.00243005)
(0 0 0.00224961)
(0 0 0.00206927)
(0 0 0.00188901)
(0 0 0.00170885)
(0 0 0.00152876)
(0 0 0.00134874)
(0 0 0.00116878)
(0 0 0.000988877)
(0 0 0.000809019)
(0 0 0.000629198)
(0 0 0.000449406)
(0 0 0.000269635)
(0 0 8.98771e-05)
(0 0 0.000110861)
(0 0 0.00033259)
(0 0 0.000554338)
(0 0 0.000776118)
(0 0 0.000997944)
(0 0 0.00121983)
(0 0 0.00144178)
(0 0 0.00166382)
(0 0 0.00188595)
(0 0 0.00210819)
(0 0 0.00233054)
(0 0 0.00255303)
(0 0 0.00277565)
(0 0 0.00299843)
(0 0 0.00322137)
(0 0 0.00344448)
(0 0 0.00366777)
(0 0 0.00389125)
(0 0 0.00411493)
(0 0 0.00433881)
(0 0 0.0045629)
(0 0 0.00478721)
(0 0 0.00501174)
(0 0 0.00523651)
(0 0 0.0054615)
(0 0 0.00568673)
(0 0 0.00591219)
(0 0 0.0061379)
(0 0 0.00636384)
(0 0 0.00659002)
(0 0 0.00681644)
(0 0 0.00704309)
(0 0 0.00726996)
(0 0 0.00749707)
(0 0 0.00772438)
(0 0 0.00795191)
(0 0 0.00817964)
(0 0 0.00840756)
(0 0 0.00863565)
(0 0 0.00886391)
(0 0 0.00909231)
(0 0 0.00932085)
(0 0 0.00954949)
(0 0 0.00977823)
(0 0 0.010007)
(0 0 0.0102359)
(0 0 0.0104648)
(0 0 0.0106936)
(0 0 0.0109225)
(0 0 0.0111512)
(0 0 0.0113799)
(0 0 0.0116084)
(0 0 0.0118368)
(0 0 0.0120649)
(0 0 0.0122928)
(0 0 0.0125204)
(0 0 0.0127476)
(0 0 0.0129744)
(0 0 0.0132008)
(0 0 0.0134267)
(0 0 0.013652)
(0 0 0.0138767)
(0 0 0.0141007)
(0 0 0.014324)
(0 0 0.0145464)
(0 0 0.014768)
(0 0 0.0149886)
(0 0 0.0152083)
(0 0 0.0154268)
(0 0 0.0156441)
(0 0 0.0158602)
(0 0 0.0160749)
(0 0 0.0162883)
(0 0 0.0165001)
(0 0 0.0167103)
(0 0 0.0169188)
(0 0 0.0171255)
(0 0 0.0173304)
(0 0 0.0175333)
(0 0 0.0177341)
(0 0 0.0179327)
(0 0 0.0181291)
(0 0 0.0183231)
(0 0 0.0185146)
(0 0 0.0187035)
(0 0 0.0188897)
(0 0 0.0190731)
(0 0 0.0192536)
(0 0 0.0194311)
(0 0 0.0196054)
(0 0 0.0197766)
(0 0 0.0199444)
(0 0 0.0201087)
(0 0 0.0202695)
(0 0 0.0204266)
(0 0 0.0205799)
(0 0 0.0207293)
(0 0 0.0208748)
(0 0 0.0210162)
(0 0 0.0211534)
(0 0 0.0212863)
(0 0 0.0214149)
(0 0 0.0215389)
(0 0 0.0216584)
(0 0 0.0217733)
(0 0 0.0218833)
(0 0 0.0219886)
(0 0 0.022089)
(0 0 0.0221844)
(0 0 0.0222747)
(0 0 0.0223599)
(0 0 0.0224399)
(0 0 0.0225147)
(0 0 0.0225841)
(0 0 0.0226482)
(0 0 0.0227069)
(0 0 0.0227602)
(0 0 0.0228079)
(0 0 0.0228502)
(0 0 0.0228869)
(0 0 0.022918)
(0 0 0.0229436)
(0 0 0.0229635)
(0 0 0.0229778)
(0 0 0.0229866)
(0 0 0.0229897)
(0 0 0.0229872)
(0 0 0.0229791)
(0 0 0.0229655)
(0 0 0.0229463)
(0 0 0.0229216)
(0 0 0.0228914)
(0 0 0.0228557)
(0 0 0.0228146)
(0 0 0.0227682)
(0 0 0.0227164)
(0 0 0.0226594)
(0 0 0.0225972)
(0 0 0.0225298)
(0 0 0.0224574)
(0 0 0.0223799)
(0 0 0.0222975)
(0 0 0.0222103)
(0 0 0.0221182)
(0 0 0.0220215)
(0 0 0.0219201)
(0 0 0.0218143)
(0 0 0.0217039)
(0 0 0.0215893)
(0 0 0.0214703)
(0 0 0.0213472)
(0 0 0.02122)
(0 0 0.0210889)
(0 0 0.0209539)
(0 0 0.0208151)
(0 0 0.0206726)
(0 0 0.0205266)
(0 0 0.020377)
(0 0 0.0202242)
(0 0 0.020068)
(0 0 0.0199086)
(0 0 0.0197462)
(0 0 0.0195809)
(0 0 0.0194126)
(0 0 0.0192416)
(0 0 0.0190679)
(0 0 0.0188916)
(0 0 0.0187128)
(0 0 0.0185317)
(0 0 0.0183482)
(0 0 0.0181626)
(0 0 0.0179749)
(0 0 0.0177851)
(0 0 0.0175934)
(0 0 0.0173999)
(0 0 0.0172046)
(0 0 0.0170076)
(0 0 0.016809)
(0 0 0.0166089)
(0 0 0.0164074)
(0 0 0.0162045)
(0 0 0.0160004)
(0 0 0.015795)
(0 0 0.0155885)
(0 0 0.0153808)
(0 0 0.0151722)
(0 0 0.0149627)
(0 0 0.0147522)
(0 0 0.0145409)
(0 0 0.0143289)
(0 0 0.0141161)
(0 0 0.0139027)
(0 0 0.0136887)
(0 0 0.0134741)
(0 0 0.013259)
(0 0 0.0130435)
(0 0 0.0128275)
(0 0 0.0126112)
(0 0 0.0123945)
(0 0 0.0121775)
(0 0 0.0119603)
(0 0 0.0117428)
(0 0 0.0115252)
(0 0 0.0113074)
(0 0 0.0110894)
(0 0 0.0108714)