/*--------------------------------*- C++ -*----------------------------------*\
| =========                 |                                                 |
| \\      /  F ield         | OpenFOAM: The Open Source CFD Toolbox           |
|  \\    /   O peration     | Version:  v2012                                 |
|   \\  /    A nd           | Website:  www.openfoam.com                      |
|    \\/     M anipulation  |                                                 |
\*---------------------------------------------------------------------------*/
FoamFile
{
    version     2.0;
    format      ascii;
    class       volVectorField;
    location    "14.9";
    object      U;
}
// * * * * * * * * * * * * * * * * * * * * * * * * * * * * * * * * * * * * * //

dimensions      [0 1 -1 0 0 0 0];


internalField   nonuniform List<vector> 
65536
(
(0.000696379 -0.000696396 0)
(0.00208918 -0.000696439 0)
(0.0034821 -0.000696519 0)
(0.00487522 -0.000696638 0)
(0.00626862 -0.000696796 0)
(0.00766237 -0.000696993 0)
(0.00905656 -0.000697229 0)
(0.0104513 -0.000697502 0)
(0.0118465 -0.000697812 0)
(0.0132425 -0.000698158 0)
(0.0146391 -0.000698539 0)
(0.0160366 -0.000698955 0)
(0.0174349 -0.000699403 0)
(0.0188342 -0.000699883 0)
(0.0202344 -0.000700393 0)
(0.0216357 -0.000700932 0)
(0.0230381 -0.000701499 0)
(0.0244417 -0.00070209 0)
(0.0258465 -0.000702705 0)
(0.0272525 -0.000703342 0)
(0.0286598 -0.000703998 0)
(0.0300685 -0.000704672 0)
(0.0314785 -0.00070536 0)
(0.0328899 -0.00070606 0)
(0.0343028 -0.00070677 0)
(0.035717 -0.000707487 0)
(0.0371327 -0.000708208 0)
(0.0385498 -0.00070893 0)
(0.0399684 -0.000709649 0)
(0.0413884 -0.000710363 0)
(0.0428099 -0.000711068 0)
(0.0442327 -0.000711761 0)
(0.045657 -0.000712436 0)
(0.0470825 -0.000713092 0)
(0.0485093 -0.000713722 0)
(0.0499374 -0.000714324 0)
(0.0513667 -0.000714893 0)
(0.052797 -0.000715424 0)
(0.0542284 -0.000715913 0)
(0.0556607 -0.000716355 0)
(0.0570939 -0.000716744 0)
(0.0585278 -0.000717075 0)
(0.0599623 -0.000717344 0)
(0.0613972 -0.000717544 0)
(0.0628325 -0.000717671 0)
(0.064268 -0.000717717 0)
(0.0657035 -0.000717678 0)
(0.0671388 -0.000717547 0)
(0.0685738 -0.000717318 0)
(0.0700082 -0.000716984 0)
(0.0714418 -0.000716539 0)
(0.0728745 -0.000715977 0)
(0.0743059 -0.00071529 0)
(0.0757357 -0.000714472 0)
(0.0771639 -0.000713516 0)
(0.07859 -0.000712414 0)
(0.0800137 -0.000711159 0)
(0.0814348 -0.000709745 0)
(0.0828528 -0.000708163 0)
(0.0842676 -0.000706407 0)
(0.0856786 -0.000704469 0)
(0.0870857 -0.000702342 0)
(0.0884882 -0.000700017 0)
(0.0898859 -0.000697488 0)
(0.0912784 -0.000694747 0)
(0.0926651 -0.000691786 0)
(0.0940457 -0.000688598 0)
(0.0954198 -0.000685177 0)
(0.0967867 -0.000681514 0)
(0.0981461 -0.000677602 0)
(0.0994973 -0.000673434 0)
(0.10084 -0.000669004 0)
(0.102174 -0.000664304 0)
(0.103498 -0.000659329 0)
(0.104811 -0.000654071 0)
(0.106114 -0.000648525 0)
(0.107406 -0.000642685 0)
(0.108685 -0.000636545 0)
(0.109952 -0.0006301 0)
(0.111206 -0.000623345 0)
(0.112446 -0.000616276 0)
(0.113671 -0.000608887 0)
(0.114882 -0.000601177 0)
(0.116076 -0.00059314 0)
(0.117255 -0.000584774 0)
(0.118416 -0.000576077 0)
(0.119559 -0.000567047 0)
(0.120684 -0.000557682 0)
(0.12179 -0.000547981 0)
(0.122877 -0.000537944 0)
(0.123942 -0.000527572 0)
(0.124987 -0.000516864 0)
(0.12601 -0.000505822 0)
(0.127011 -0.000494448 0)
(0.127988 -0.000482745 0)
(0.128942 -0.000470716 0)
(0.129871 -0.000458364 0)
(0.130776 -0.000445695 0)
(0.131655 -0.000432713 0)
(0.132507 -0.000419424 0)
(0.133333 -0.000405835 0)
(0.134131 -0.000391953 0)
(0.134901 -0.000377784 0)
(0.135642 -0.000363338 0)
(0.136354 -0.000348624 0)
(0.137037 -0.000333651 0)
(0.137689 -0.000318429 0)
(0.138311 -0.000302968 0)
(0.138901 -0.000287281 0)
(0.13946 -0.000271378 0)
(0.139987 -0.000255273 0)
(0.140481 -0.000238977 0)
(0.140943 -0.000222504 0)
(0.141371 -0.000205868 0)
(0.141767 -0.000189081 0)
(0.142128 -0.00017216 0)
(0.142455 -0.000155117 0)
(0.142748 -0.000137969 0)
(0.143007 -0.00012073 0)
(0.143231 -0.000103415 0)
(0.143421 -8.60403e-05 0)
(0.143576 -6.86207e-05 0)
(0.143695 -5.11722e-05 0)
(0.14378 -3.37102e-05 0)
(0.14383 -1.62504e-05 0)
(0.143845 1.1916e-06 0)
(0.143826 1.86004e-05 0)
(0.143771 3.59606e-05 0)
(0.143682 5.32571e-05 0)
(0.143558 7.04749e-05 0)
(0.1434 8.75995e-05 0)
(0.143207 0.000104616 0)
(0.142981 0.000121511 0)
(0.142721 0.00013827 0)
(0.142428 0.000154881 0)
(0.142101 0.000171329 0)
(0.141742 0.000187603 0)
(0.141351 0.000203691 0)
(0.140927 0.000219581 0)
(0.140472 0.000235261 0)
(0.139986 0.000250722 0)
(0.139469 0.000265954 0)
(0.138922 0.000280946 0)
(0.138345 0.000295691 0)
(0.137739 0.000310179 0)
(0.137104 0.000324403 0)
(0.136441 0.000338356 0)
(0.13575 0.000352032 0)
(0.135033 0.000365423 0)
(0.134288 0.000378526 0)
(0.133518 0.000391335 0)
(0.132723 0.000403846 0)
(0.131903 0.000416055 0)
(0.131058 0.00042796 0)
(0.13019 0.000439557 0)
(0.1293 0.000450844 0)
(0.128387 0.000461821 0)
(0.127452 0.000472487 0)
(0.126496 0.00048284 0)
(0.12552 0.000492881 0)
(0.124525 0.00050261 0)
(0.12351 0.000512028 0)
(0.122476 0.000521137 0)
(0.121425 0.000529939 0)
(0.120356 0.000538436 0)
(0.119271 0.000546629 0)
(0.118169 0.000554523 0)
(0.117052 0.00056212 0)
(0.115921 0.000569424 0)
(0.114774 0.000576439 0)
(0.113615 0.000583169 0)
(0.112441 0.000589618 0)
(0.111256 0.000595792 0)
(0.110058 0.000601694 0)
(0.108849 0.00060733 0)
(0.107628 0.000612705 0)
(0.106398 0.000617825 0)
(0.105157 0.000622695 0)
(0.103907 0.000627321 0)
(0.102647 0.000631709 0)
(0.10138 0.000635864 0)
(0.100104 0.000639792 0)
(0.0988202 0.0006435 0)
(0.0975295 0.000646994 0)
(0.096232 0.000650279 0)
(0.0949281 0.000653362 0)
(0.0936183 0.00065625 0)
(0.0923029 0.000658948 0)
(0.0909824 0.000661462 0)
(0.0896569 0.000663799 0)
(0.088327 0.000665965 0)
(0.0869929 0.000667966 0)
(0.085655 0.000669808 0)
(0.0843135 0.000671497 0)
(0.0829688 0.000673039 0)
(0.0816212 0.00067444 0)
(0.0802709 0.000675706 0)
(0.0789183 0.000676842 0)
(0.0775635 0.000677855 0)
(0.0762067 0.000678749 0)
(0.0748483 0.000679531 0)
(0.0734885 0.000680205 0)
(0.0721274 0.000680777 0)
(0.0707653 0.000681253 0)
(0.0694023 0.000681637 0)
(0.0680387 0.000681934 0)
(0.0666745 0.00068215 0)
(0.06531 0.000682288 0)
(0.0639453 0.000682355 0)
(0.0625805 0.000682353 0)
(0.0612158 0.000682288 0)
(0.0598513 0.000682165 0)
(0.0584871 0.000681986 0)
(0.0571233 0.000681757 0)
(0.05576 0.000681482 0)
(0.0543973 0.000681164 0)
(0.0530353 0.000680807 0)
(0.0516741 0.000680414 0)
(0.0503137 0.00067999 0)
(0.0489541 0.000679537 0)
(0.0475955 0.00067906 0)
(0.0462378 0.000678561 0)
(0.0448812 0.000678043 0)
(0.0435257 0.000677509 0)
(0.0421712 0.000676963 0)
(0.0408178 0.000676407 0)
(0.0394655 0.000675844 0)
(0.0381144 0.000675275 0)
(0.0367644 0.000674705 0)
(0.0354156 0.000674135 0)
(0.0340679 0.000673567 0)
(0.0327214 0.000673004 0)
(0.0313759 0.000672448 0)
(0.0300316 0.0006719 0)
(0.0286883 0.000671363 0)
(0.0273461 0.000670838 0)
(0.026005 0.000670328 0)
(0.0246649 0.000669833 0)
(0.0233257 0.000669355 0)
(0.0219875 0.000668896 0)
(0.0206501 0.000668458 0)
(0.0193137 0.00066804 0)
(0.017978 0.000667646 0)
(0.0166431 0.000667274 0)
(0.0153089 0.000666928 0)
(0.0139754 0.000666607 0)
(0.0126425 0.000666313 0)
(0.0113102 0.000666045 0)
(0.00997838 0.000665806 0)
(0.00864701 0.000665596 0)
(0.00731603 0.000665414 0)
(0.00598538 0.000665262 0)
(0.00465501 0.00066514 0)
(0.00332486 0.000665049 0)
(0.00199485 0.000664988 0)
(0.000664941 0.000664957 0)
(0.000696343 -0.00208916 0)
(0.00208907 -0.00208928 0)
(0.00348191 -0.00208952 0)
(0.00487495 -0.00208988 0)
(0.00626828 -0.00209036 0)
(0.00766196 -0.00209095 0)
(0.00905607 -0.00209165 0)
(0.0104507 -0.00209247 0)
(0.0118459 -0.0020934 0)
(0.0132418 -0.00209444 0)
(0.0146384 -0.00209559 0)
(0.0160358 -0.00209684 0)
(0.017434 -0.00209818 0)
(0.0188332 -0.00209962 0)
(0.0202334 -0.00210116 0)
(0.0216347 -0.00210278 0)
(0.023037 -0.00210448 0)
(0.0244405 -0.00210625 0)
(0.0258453 -0.0021081 0)
(0.0272513 -0.00211001 0)
(0.0286586 -0.00211198 0)
(0.0300672 -0.002114 0)
(0.0314772 -0.00211607 0)
(0.0328886 -0.00211818 0)
(0.0343014 -0.00212031 0)
(0.0357156 -0.00212246 0)
(0.0371313 -0.00212463 0)
(0.0385485 -0.0021268 0)
(0.0399671 -0.00212896 0)
(0.0413871 -0.0021311 0)
(0.0428086 -0.00213322 0)
(0.0442314 -0.0021353 0)
(0.0456557 -0.00213733 0)
(0.0470813 -0.0021393 0)
(0.0485082 -0.0021412 0)
(0.0499363 -0.00214301 0)
(0.0513657 -0.00214472 0)
(0.0527961 -0.00214632 0)
(0.0542276 -0.00214779 0)
(0.05566 -0.00214912 0)
(0.0570933 -0.00215029 0)
(0.0585273 -0.00215129 0)
(0.0599619 -0.0021521 0)
(0.061397 -0.00215271 0)
(0.0628324 -0.00215309 0)
(0.0642681 -0.00215324 0)
(0.0657037 -0.00215313 0)
(0.0671393 -0.00215274 0)
(0.0685744 -0.00215206 0)
(0.0700091 -0.00215107 0)
(0.0714429 -0.00214974 0)
(0.0728758 -0.00214806 0)
(0.0743075 -0.002146 0)
(0.0757376 -0.00214356 0)
(0.077166 -0.00214069 0)
(0.0785924 -0.00213739 0)
(0.0800165 -0.00213364 0)
(0.0814378 -0.0021294 0)
(0.0828563 -0.00212467 0)
(0.0842714 -0.0021194 0)
(0.0856828 -0.0021136 0)
(0.0870902 -0.00210722 0)
(0.0884932 -0.00210025 0)
(0.0898913 -0.00209267 0)
(0.0912842 -0.00208446 0)
(0.0926714 -0.00207558 0)
(0.0940524 -0.00206603 0)
(0.0954269 -0.00205577 0)
(0.0967944 -0.00204479 0)
(0.0981542 -0.00203306 0)
(0.099506 -0.00202056 0)
(0.100849 -0.00200728 0)
(0.102183 -0.00199319 0)
(0.103508 -0.00197827 0)
(0.104822 -0.0019625 0)
(0.106126 -0.00194587 0)
(0.107418 -0.00192835 0)
(0.108698 -0.00190994 0)
(0.109965 -0.00189061 0)
(0.11122 -0.00187035 0)
(0.11246 -0.00184914 0)
(0.113686 -0.00182698 0)
(0.114897 -0.00180385 0)
(0.116093 -0.00177974 0)
(0.117272 -0.00175465 0)
(0.118434 -0.00172856 0)
(0.119578 -0.00170147 0)
(0.120703 -0.00167338 0)
(0.12181 -0.00164428 0)
(0.122897 -0.00161416 0)
(0.123964 -0.00158305 0)
(0.125009 -0.00155092 0)
(0.126033 -0.00151779 0)
(0.127034 -0.00148367 0)
(0.128012 -0.00144856 0)
(0.128966 -0.00141246 0)
(0.129897 -0.00137541 0)
(0.130802 -0.00133739 0)
(0.131681 -0.00129844 0)
(0.132534 -0.00125857 0)
(0.13336 -0.00121779 0)
(0.134159 -0.00117614 0)
(0.134929 -0.00113362 0)
(0.135671 -0.00109028 0)
(0.136384 -0.00104613 0)
(0.137067 -0.0010012 0)
(0.13772 -0.000955518 0)
(0.138342 -0.000909126 0)
(0.138933 -0.000862052 0)
(0.139492 -0.000814332 0)
(0.140019 -0.000766003 0)
(0.140514 -0.000717102 0)
(0.140976 -0.00066767 0)
(0.141405 -0.000617746 0)
(0.1418 -0.000567373 0)
(0.142162 -0.000516594 0)
(0.14249 -0.000465452 0)
(0.142783 -0.000413992 0)
(0.143042 -0.000362259 0)
(0.143266 -0.0003103 0)
(0.143456 -0.000258159 0)
(0.143611 -0.000205885 0)
(0.14373 -0.000153524 0)
(0.143815 -0.000101122 0)
(0.143865 -4.87274e-05 0)
(0.14388 3.61403e-06 0)
(0.14386 5.58556e-05 0)
(0.143806 0.000107951 0)
(0.143716 0.000159856 0)
(0.143592 0.000211524 0)
(0.143434 0.000262912 0)
(0.143241 0.000313976 0)
(0.143015 0.000364675 0)
(0.142754 0.000414966 0)
(0.142461 0.00046481 0)
(0.142134 0.000514168 0)
(0.141775 0.000563002 0)
(0.141383 0.000611277 0)
(0.140959 0.000658957 0)
(0.140503 0.000706009 0)
(0.140017 0.000752402 0)
(0.139499 0.000798105 0)
(0.138952 0.000843091 0)
(0.138374 0.000887333 0)
(0.137768 0.000930805 0)
(0.137132 0.000973485 0)
(0.136469 0.00101535 0)
(0.135777 0.00105638 0)
(0.135059 0.00109656 0)
(0.134314 0.00113588 0)
(0.133544 0.00117431 0)
(0.132747 0.00121184 0)
(0.131927 0.00124847 0)
(0.131082 0.00128419 0)
(0.130213 0.00131898 0)
(0.129322 0.00135285 0)
(0.128408 0.00138578 0)
(0.127473 0.00141778 0)
(0.126517 0.00144883 0)
(0.12554 0.00147896 0)
(0.124544 0.00150814 0)
(0.123528 0.0015364 0)
(0.122494 0.00156372 0)
(0.121442 0.00159013 0)
(0.120373 0.00161561 0)
(0.119287 0.00164019 0)
(0.118185 0.00166387 0)
(0.117067 0.00168665 0)
(0.115935 0.00170856 0)
(0.114788 0.0017296 0)
(0.113628 0.00174979 0)
(0.112454 0.00176913 0)
(0.111268 0.00178765 0)
(0.110069 0.00180535 0)
(0.10886 0.00182225 0)
(0.107639 0.00183837 0)
(0.106408 0.00185373 0)
(0.105166 0.00186833 0)
(0.103916 0.0018822 0)
(0.102656 0.00189536 0)
(0.101388 0.00190782 0)
(0.100111 0.0019196 0)
(0.0988272 0.00193071 0)
(0.0975361 0.00194119 0)
(0.0962382 0.00195104 0)
(0.094934 0.00196028 0)
(0.0936238 0.00196894 0)
(0.092308 0.00197703 0)
(0.0909871 0.00198456 0)
(0.0896613 0.00199157 0)
(0.088331 0.00199806 0)
(0.0869966 0.00200406 0)
(0.0856584 0.00200958 0)
(0.0843166 0.00201464 0)
(0.0829717 0.00201926 0)
(0.0816238 0.00202345 0)
(0.0802732 0.00202725 0)
(0.0789203 0.00203065 0)
(0.0775653 0.00203368 0)
(0.0762083 0.00203636 0)
(0.0748497 0.0020387 0)
(0.0734896 0.00204071 0)
(0.0721284 0.00204243 0)
(0.0707661 0.00204385 0)
(0.0694029 0.00204499 0)
(0.0680391 0.00204588 0)
(0.0666748 0.00204652 0)
(0.0653101 0.00204693 0)
(0.0639453 0.00204713 0)
(0.0625804 0.00204712 0)
(0.0612155 0.00204692 0)
(0.0598509 0.00204655 0)
(0.0584866 0.00204601 0)
(0.0571227 0.00204532 0)
(0.0557594 0.00204449 0)
(0.0543966 0.00204353 0)
(0.0530345 0.00204245 0)
(0.0516732 0.00204127 0)
(0.0503127 0.00203999 0)
(0.0489531 0.00203863 0)
(0.0475944 0.0020372 0)
(0.0462368 0.0020357 0)
(0.0448801 0.00203414 0)
(0.0435245 0.00203254 0)
(0.04217 0.0020309 0)
(0.0408166 0.00202922 0)
(0.0394644 0.00202753 0)
(0.0381132 0.00202582 0)
(0.0367633 0.00202411 0)
(0.0354144 0.0020224 0)
(0.0340667 0.00202069 0)
(0.0327202 0.002019 0)
(0.0313748 0.00201733 0)
(0.0300304 0.00201568 0)
(0.0286872 0.00201407 0)
(0.0273451 0.0020125 0)
(0.0260039 0.00201096 0)
(0.0246638 0.00200948 0)
(0.0233247 0.00200804 0)
(0.0219865 0.00200666 0)
(0.0206492 0.00200535 0)
(0.0193128 0.00200409 0)
(0.0179772 0.00200291 0)
(0.0166424 0.00200179 0)
(0.0153082 0.00200075 0)
(0.0139748 0.00199979 0)
(0.0126419 0.00199891 0)
(0.0113097 0.0019981 0)
(0.00997791 0.00199739 0)
(0.0086466 0.00199675 0)
(0.00731568 0.00199621 0)
(0.0059851 0.00199575 0)
(0.00465479 0.00199539 0)
(0.0033247 0.00199511 0)
(0.00199476 0.00199493 0)
(0.00066491 0.00199484 0)
(0.000696261 -0.00348181 0)
(0.00208882 -0.00348201 0)
(0.00348151 -0.00348241 0)
(0.00487439 -0.003483 0)
(0.00626756 -0.0034838 0)
(0.00766108 -0.00348479 0)
(0.00905504 -0.00348597 0)
(0.0104495 -0.00348733 0)
(0.0118446 -0.00348889 0)
(0.0132403 -0.00349062 0)
(0.0146368 -0.00349254 0)
(0.016034 -0.00349462 0)
(0.0174322 -0.00349687 0)
(0.0188312 -0.00349927 0)
(0.0202313 -0.00350183 0)
(0.0216324 -0.00350454 0)
(0.0230347 -0.00350738 0)
(0.0244381 -0.00351034 0)
(0.0258427 -0.00351343 0)
(0.0272487 -0.00351662 0)
(0.0286559 -0.00351991 0)
(0.0300644 -0.00352329 0)
(0.0314744 -0.00352675 0)
(0.0328857 -0.00353026 0)
(0.0342985 -0.00353382 0)
(0.0357127 -0.00353742 0)
(0.0371284 -0.00354104 0)
(0.0385455 -0.00354467 0)
(0.0399641 -0.00354828 0)
(0.0413842 -0.00355187 0)
(0.0428057 -0.00355541 0)
(0.0442287 -0.00355889 0)
(0.045653 -0.00356229 0)
(0.0470787 -0.00356559 0)
(0.0485057 -0.00356876 0)
(0.0499339 -0.00357179 0)
(0.0513634 -0.00357466 0)
(0.052794 -0.00357734 0)
(0.0542257 -0.00357981 0)
(0.0556583 -0.00358204 0)
(0.0570918 -0.00358401 0)
(0.058526 -0.0035857 0)
(0.0599609 -0.00358707 0)
(0.0613963 -0.0035881 0)
(0.062832 -0.00358876 0)
(0.064268 -0.00358902 0)
(0.065704 -0.00358885 0)
(0.0671399 -0.00358823 0)
(0.0685755 -0.00358712 0)
(0.0700105 -0.00358548 0)
(0.0714449 -0.00358329 0)
(0.0728782 -0.00358051 0)
(0.0743104 -0.00357711 0)
(0.0757411 -0.00357305 0)
(0.0771701 -0.00356831 0)
(0.0785971 -0.00356283 0)
(0.0800217 -0.0035566 0)
(0.0814438 -0.00354956 0)
(0.0828629 -0.00354169 0)
(0.0842787 -0.00353295 0)
(0.0856909 -0.00352329 0)
(0.087099 -0.00351269 0)
(0.0885028 -0.00350111 0)
(0.0899018 -0.0034885 0)
(0.0912955 -0.00347483 0)
(0.0926836 -0.00346006 0)
(0.0940656 -0.00344416 0)
(0.095441 -0.00342709 0)
(0.0968094 -0.00340881 0)
(0.0981703 -0.00338928 0)
(0.0995232 -0.00336848 0)
(0.100867 -0.00334636 0)
(0.102203 -0.0033229 0)
(0.103528 -0.00329805 0)
(0.104844 -0.00327179 0)
(0.106148 -0.00324409 0)
(0.107442 -0.00321492 0)
(0.108723 -0.00318424 0)
(0.109992 -0.00315204 0)
(0.111247 -0.00311829 0)
(0.112489 -0.00308297 0)
(0.113717 -0.00304604 0)
(0.114929 -0.00300751 0)
(0.116126 -0.00296734 0)
(0.117306 -0.00292552 0)
(0.118469 -0.00288205 0)
(0.119614 -0.0028369 0)
(0.120741 -0.00279008 0)
(0.12185 -0.00274158 0)
(0.122938 -0.00269139 0)
(0.124006 -0.00263953 0)
(0.125052 -0.00258598 0)
(0.126077 -0.00253076 0)
(0.12708 -0.00247388 0)
(0.12806 -0.00241535 0)
(0.129015 -0.00235518 0)
(0.129947 -0.0022934 0)
(0.130853 -0.00223003 0)
(0.131733 -0.00216509 0)
(0.132588 -0.00209862 0)
(0.133415 -0.00203063 0)
(0.134215 -0.00196118 0)
(0.134987 -0.0018903 0)
(0.13573 -0.00181802 0)
(0.136443 -0.00174441 0)
(0.137127 -0.00166949 0)
(0.137781 -0.00159332 0)
(0.138404 -0.00151597 0)
(0.138996 -0.00143747 0)
(0.139556 -0.0013579 0)
(0.140084 -0.0012773 0)
(0.14058 -0.00119576 0)
(0.141042 -0.00111333 0)
(0.141472 -0.00103007 0)
(0.141868 -0.000946072 0)
(0.14223 -0.000861391 0)
(0.142558 -0.000776105 0)
(0.142852 -0.000690288 0)
(0.143111 -0.000604016 0)
(0.143336 -0.000517365 0)
(0.143525 -0.000430413 0)
(0.14368 -0.000343237 0)
(0.1438 -0.000255916 0)
(0.143885 -0.000168528 0)
(0.143935 -8.11517e-05 0)
(0.14395 6.13564e-06 0)
(0.14393 9.32561e-05 0)
(0.143875 0.000180133 0)
(0.143785 0.00026669 0)
(0.143661 0.000352853 0)
(0.143502 0.000438547 0)
(0.143309 0.000523701 0)
(0.143082 0.000608245 0)
(0.142821 0.000692108 0)
(0.142527 0.000775225 0)
(0.1422 0.00085753 0)
(0.141839 0.00093896 0)
(0.141447 0.00101946 0)
(0.141022 0.00109896 0)
(0.140566 0.00117742 0)
(0.140078 0.00125477 0)
(0.13956 0.00133097 0)
(0.139011 0.00140598 0)
(0.138433 0.00147974 0)
(0.137825 0.00155222 0)
(0.137189 0.00162338 0)
(0.136524 0.00169318 0)
(0.135832 0.00176158 0)
(0.135112 0.00182857 0)
(0.134366 0.00189411 0)
(0.133594 0.00195817 0)
(0.132797 0.00202075 0)
(0.131975 0.00208181 0)
(0.131129 0.00214134 0)
(0.130259 0.00219934 0)
(0.129366 0.00225578 0)
(0.128452 0.00231067 0)
(0.127515 0.002364 0)
(0.126558 0.00241577 0)
(0.12558 0.00246597 0)
(0.124582 0.00251461 0)
(0.123565 0.00256169 0)
(0.12253 0.00260723 0)
(0.121477 0.00265123 0)
(0.120406 0.0026937 0)
(0.119319 0.00273465 0)
(0.118216 0.0027741 0)
(0.117097 0.00281207 0)
(0.115963 0.00284857 0)
(0.114816 0.00288362 0)
(0.113654 0.00291725 0)
(0.112479 0.00294947 0)
(0.111292 0.00298032 0)
(0.110093 0.0030098 0)
(0.108882 0.00303796 0)
(0.10766 0.00306481 0)
(0.106428 0.00309038 0)
(0.105185 0.0031147 0)
(0.103934 0.0031378 0)
(0.102673 0.00315971 0)
(0.101404 0.00318045 0)
(0.100126 0.00320006 0)
(0.0988417 0.00321857 0)
(0.0975497 0.00323601 0)
(0.096251 0.00325241 0)
(0.094946 0.00326779 0)
(0.093635 0.0032822 0)
(0.0923185 0.00329566 0)
(0.0909968 0.0033082 0)
(0.0896703 0.00331985 0)
(0.0883394 0.00333065 0)
(0.0870043 0.00334062 0)
(0.0856655 0.0033498 0)
(0.0843231 0.00335822 0)
(0.0829776 0.0033659 0)
(0.0816291 0.00337287 0)
(0.0802781 0.00337917 0)
(0.0789246 0.00338483 0)
(0.0775691 0.00338986 0)
(0.0762117 0.0033943 0)
(0.0748526 0.00339819 0)
(0.0734922 0.00340153 0)
(0.0721305 0.00340437 0)
(0.0707678 0.00340672 0)
(0.0694043 0.00340861 0)
(0.0680401 0.00341007 0)
(0.0666755 0.00341113 0)
(0.0653105 0.0034118 0)
(0.0639454 0.00341211 0)
(0.0625802 0.00341208 0)
(0.0612152 0.00341173 0)
(0.0598503 0.00341109 0)
(0.0584858 0.00341018 0)
(0.0571217 0.00340901 0)
(0.0557582 0.00340762 0)
(0.0543953 0.00340601 0)
(0.053033 0.0034042 0)
(0.0516716 0.00340222 0)
(0.050311 0.00340008 0)
(0.0489513 0.0033978 0)
(0.0475925 0.0033954 0)
(0.0462347 0.00339289 0)
(0.044878 0.00339029 0)
(0.0435224 0.0033876 0)
(0.0421678 0.00338486 0)
(0.0408144 0.00338206 0)
(0.0394621 0.00337923 0)
(0.038111 0.00337638 0)
(0.036761 0.00337352 0)
(0.0354122 0.00337065 0)
(0.0340645 0.0033678 0)
(0.032718 0.00336498 0)
(0.0313726 0.00336219 0)
(0.0300283 0.00335944 0)
(0.0286851 0.00335674 0)
(0.027343 0.00335411 0)
(0.0260019 0.00335155 0)
(0.0246619 0.00334907 0)
(0.0233228 0.00334667 0)
(0.0219847 0.00334437 0)
(0.0206475 0.00334217 0)
(0.0193112 0.00334008 0)
(0.0179757 0.0033381 0)
(0.0166409 0.00333624 0)
(0.0153069 0.0033345 0)
(0.0139736 0.00333289 0)
(0.0126408 0.00333142 0)
(0.0113087 0.00333008 0)
(0.00997701 0.00332888 0)
(0.00864582 0.00332782 0)
(0.00731502 0.00332691 0)
(0.00598455 0.00332615 0)
(0.00465437 0.00332554 0)
(0.0033244 0.00332508 0)
(0.00199458 0.00332478 0)
(0.000664849 0.00332463 0)
(0.00069614 -0.00487425 0)
(0.00208846 -0.00487453 0)
(0.0034809 -0.00487509 0)
(0.00487355 -0.00487593 0)
(0.00626648 -0.00487704 0)
(0.00765977 -0.00487843 0)
(0.00905349 -0.00488009 0)
(0.0104477 -0.00488201 0)
(0.0118426 -0.00488419 0)
(0.0132381 -0.00488663 0)
(0.0146343 -0.00488931 0)
(0.0160314 -0.00489223 0)
(0.0174293 -0.00489539 0)
(0.0188282 -0.00489877 0)
(0.0202281 -0.00490236 0)
(0.0216291 -0.00490616 0)
(0.0230312 -0.00491015 0)
(0.0244344 -0.00491432 0)
(0.0258389 -0.00491865 0)
(0.0272447 -0.00492314 0)
(0.0286518 -0.00492776 0)
(0.0300603 -0.0049325 0)
(0.0314701 -0.00493736 0)
(0.0328814 -0.0049423 0)
(0.0342941 -0.0049473 0)
(0.0357083 -0.00495236 0)
(0.037124 -0.00495745 0)
(0.0385411 -0.00496255 0)
(0.0399598 -0.00496763 0)
(0.0413799 -0.00497268 0)
(0.0428014 -0.00497767 0)
(0.0442245 -0.00498256 0)
(0.0456489 -0.00498735 0)
(0.0470747 -0.00499199 0)
(0.0485019 -0.00499647 0)
(0.0499303 -0.00500074 0)
(0.05136 -0.00500479 0)
(0.0527908 -0.00500857 0)
(0.0542228 -0.00501206 0)
(0.0556557 -0.00501522 0)
(0.0570895 -0.00501802 0)
(0.0585241 -0.00502041 0)
(0.0599594 -0.00502237 0)
(0.0613952 -0.00502385 0)
(0.0628314 -0.00502482 0)
(0.0642678 -0.00502523 0)
(0.0657044 -0.00502504 0)
(0.0671409 -0.00502421 0)
(0.068577 -0.00502269 0)
(0.0700127 -0.00502045 0)
(0.0714477 -0.00501743 0)
(0.0728818 -0.00501358 0)
(0.0743148 -0.00500887 0)
(0.0757463 -0.00500324 0)
(0.0771761 -0.00499665 0)
(0.078604 -0.00498903 0)
(0.0800296 -0.00498035 0)
(0.0814526 -0.00497056 0)
(0.0828727 -0.00495959 0)
(0.0842896 -0.0049474 0)
(0.0857029 -0.00493394 0)
(0.0871122 -0.00491915 0)
(0.0885172 -0.00490298 0)
(0.0899174 -0.00488538 0)
(0.0913125 -0.0048663 0)
(0.0927019 -0.00484568 0)
(0.0940853 -0.00482347 0)
(0.0954621 -0.00479962 0)
(0.096832 -0.00477407 0)
(0.0981944 -0.00474679 0)
(0.0995488 -0.00471771 0)
(0.100895 -0.00468679 0)
(0.102232 -0.00465399 0)
(0.103559 -0.00461925 0)
(0.104876 -0.00458253 0)
(0.106182 -0.00454379 0)
(0.107477 -0.00450299 0)
(0.108761 -0.00446008 0)
(0.110031 -0.00441503 0)
(0.111289 -0.00436781 0)
(0.112532 -0.00431839 0)
(0.113762 -0.00426672 0)
(0.114976 -0.00421279 0)
(0.116175 -0.00415658 0)
(0.117357 -0.00409805 0)
(0.118522 -0.0040372 0)
(0.11967 -0.00397401 0)
(0.120799 -0.00390847 0)
(0.121909 -0.00384057 0)
(0.122999 -0.00377031 0)
(0.124069 -0.00369769 0)
(0.125118 -0.00362271 0)
(0.126145 -0.00354539 0)
(0.127149 -0.00346574 0)
(0.128131 -0.00338377 0)
(0.129088 -0.00329951 0)
(0.130022 -0.00321299 0)
(0.13093 -0.00312423 0)
(0.131812 -0.00303328 0)
(0.132668 -0.00294017 0)
(0.133497 -0.00284495 0)
(0.134299 -0.00274766 0)
(0.135072 -0.00264836 0)
(0.135817 -0.00254712 0)
(0.136533 -0.00244398 0)
(0.137218 -0.00233903 0)
(0.137873 -0.00223232 0)
(0.138498 -0.00212395 0)
(0.139091 -0.00201397 0)
(0.139652 -0.00190248 0)
(0.140182 -0.00178956 0)
(0.140678 -0.00167531 0)
(0.141142 -0.00155981 0)
(0.141572 -0.00144315 0)
(0.141969 -0.00132545 0)
(0.142332 -0.0012068 0)
(0.142661 -0.00108729 0)
(0.142955 -0.000967042 0)
(0.143215 -0.000846153 0)
(0.14344 -0.000724734 0)
(0.14363 -0.000602892 0)
(0.143785 -0.000480736 0)
(0.143905 -0.000358377 0)
(0.14399 -0.000235925 0)
(0.14404 -0.000113488 0)
(0.144055 8.8224e-06 0)
(0.144034 0.000130899 0)
(0.143979 0.000252632 0)
(0.143889 0.000373917 0)
(0.143764 0.000494648 0)
(0.143605 0.000614721 0)
(0.143411 0.000734036 0)
(0.143183 0.000852493 0)
(0.142922 0.000969995 0)
(0.142626 0.00108645 0)
(0.142298 0.00120176 0)
(0.141937 0.00131585 0)
(0.141543 0.00142863 0)
(0.141117 0.00154001 0)
(0.140659 0.00164992 0)
(0.14017 0.00175829 0)
(0.139651 0.00186504 0)
(0.139101 0.00197011 0)
(0.138521 0.00207344 0)
(0.137911 0.00217496 0)
(0.137273 0.00227463 0)
(0.136607 0.0023724 0)
(0.135913 0.00246821 0)
(0.135192 0.00256202 0)
(0.134444 0.00265381 0)
(0.13367 0.00274353 0)
(0.132871 0.00283116 0)
(0.132047 0.00291667 0)
(0.131199 0.00300003 0)
(0.130328 0.00308124 0)
(0.129433 0.00316027 0)
(0.128517 0.00323713 0)
(0.127578 0.00331179 0)
(0.126619 0.00338426 0)
(0.125639 0.00345454 0)
(0.12464 0.00352263 0)
(0.123621 0.00358854 0)
(0.122584 0.00365228 0)
(0.121529 0.00371386 0)
(0.120456 0.0037733 0)
(0.119367 0.00383061 0)
(0.118262 0.00388582 0)
(0.117142 0.00393895 0)
(0.116006 0.00399002 0)
(0.114857 0.00403907 0)
(0.113694 0.00408612 0)
(0.112517 0.0041312 0)
(0.111328 0.00417434 0)
(0.110127 0.00421559 0)
(0.108915 0.00425496 0)
(0.107691 0.00429252 0)
(0.106458 0.00432828 0)
(0.105214 0.00436229 0)
(0.103961 0.00439459 0)
(0.102699 0.00442522 0)
(0.101428 0.00445422 0)
(0.100149 0.00448163 0)
(0.0988633 0.0045075 0)
(0.09757 0.00453187 0)
(0.0962701 0.00455478 0)
(0.0949639 0.00457628 0)
(0.0936518 0.0045964 0)
(0.0923341 0.0046152 0)
(0.0910114 0.00463272 0)
(0.0896839 0.00464899 0)
(0.0883519 0.00466406 0)
(0.0870159 0.00467798 0)
(0.0856761 0.00469079 0)
(0.0843328 0.00470253 0)
(0.0829864 0.00471324 0)
(0.0816371 0.00472297 0)
(0.0802853 0.00473175 0)
(0.0789311 0.00473962 0)
(0.0775748 0.00474663 0)
(0.0762167 0.00475281 0)
(0.074857 0.00475821 0)
(0.0734959 0.00476286 0)
(0.0721336 0.00476679 0)
(0.0707704 0.00477005 0)
(0.0694063 0.00477266 0)
(0.0680417 0.00477468 0)
(0.0666766 0.00477612 0)
(0.0653112 0.00477702 0)
(0.0639456 0.00477742 0)
(0.0625801 0.00477735 0)
(0.0612146 0.00477684 0)
(0.0598494 0.00477591 0)
(0.0584846 0.0047746 0)
(0.0571202 0.00477295 0)
(0.0557564 0.00477096 0)
(0.0543932 0.00476868 0)
(0.0530308 0.00476613 0)
(0.0516691 0.00476333 0)
(0.0503083 0.00476031 0)
(0.0489485 0.0047571 0)
(0.0475896 0.00475371 0)
(0.0462317 0.00475018 0)
(0.0448749 0.00474651 0)
(0.0435191 0.00474273 0)
(0.0421645 0.00473887 0)
(0.040811 0.00473494 0)
(0.0394587 0.00473096 0)
(0.0381076 0.00472695 0)
(0.0367576 0.00472292 0)
(0.0354087 0.0047189 0)
(0.0340611 0.00471489 0)
(0.0327146 0.00471092 0)
(0.0313693 0.004707 0)
(0.030025 0.00470314 0)
(0.0286819 0.00469935 0)
(0.0273399 0.00469566 0)
(0.0259989 0.00469206 0)
(0.024659 0.00468858 0)
(0.02332 0.00468521 0)
(0.021982 0.00468198 0)
(0.020645 0.00467889 0)
(0.0193088 0.00467595 0)
(0.0179734 0.00467317 0)
(0.0166388 0.00467056 0)
(0.0153049 0.00466812 0)
(0.0139717 0.00466587 0)
(0.0126391 0.00466379 0)
(0.0113071 0.00466191 0)
(0.00997567 0.00466023 0)
(0.00864464 0.00465875 0)
(0.00731402 0.00465747 0)
(0.00598373 0.0046564 0)
(0.00465373 0.00465554 0)
(0.00332394 0.0046549 0)
(0.0019943 0.00465448 0)
(0.000664757 0.00465426 0)
(0.000695978 -0.00626641 0)
(0.00208798 -0.00626677 0)
(0.0034801 -0.0062675 0)
(0.00487242 -0.00626858 0)
(0.00626503 -0.00627001 0)
(0.00765801 -0.0062718 0)
(0.00905143 -0.00627394 0)
(0.0104454 -0.00627642 0)
(0.0118399 -0.00627923 0)
(0.0132351 -0.00628238 0)
(0.0146311 -0.00628584 0)
(0.0160279 -0.00628962 0)
(0.0174256 -0.00629369 0)
(0.0188242 -0.00629805 0)
(0.0202238 -0.00630269 0)
(0.0216246 -0.00630759 0)
(0.0230265 -0.00631274 0)
(0.0244295 -0.00631812 0)
(0.0258338 -0.00632371 0)
(0.0272395 -0.00632951 0)
(0.0286464 -0.00633548 0)
(0.0300547 -0.00634161 0)
(0.0314645 -0.00634788 0)
(0.0328757 -0.00635426 0)
(0.0342883 -0.00636073 0)
(0.0357025 -0.00636727 0)
(0.0371181 -0.00637385 0)
(0.0385352 -0.00638044 0)
(0.0399539 -0.00638702 0)
(0.0413741 -0.00639355 0)
(0.0427957 -0.0064 0)
(0.0442188 -0.00640635 0)
(0.0456434 -0.00641255 0)
(0.0470694 -0.00641857 0)
(0.0484968 -0.00642437 0)
(0.0499255 -0.00642992 0)
(0.0513554 -0.00643518 0)
(0.0527866 -0.0064401 0)
(0.0542189 -0.00644464 0)
(0.0556522 -0.00644877 0)
(0.0570864 -0.00645242 0)
(0.0585215 -0.00645557 0)
(0.0599573 -0.00645815 0)
(0.0613937 -0.00646012 0)
(0.0628305 -0.00646143 0)
(0.0642676 -0.00646203 0)
(0.0657049 -0.00646186 0)
(0.0671421 -0.00646087 0)
(0.0685791 -0.006459 0)
(0.0700156 -0.00645619 0)
(0.0714516 -0.00645239 0)
(0.0728866 -0.00644753 0)
(0.0743206 -0.00644155 0)
(0.0757531 -0.0064344 0)
(0.0771841 -0.006426 0)
(0.0786132 -0.0064163 0)
(0.08004 -0.00640523 0)
(0.0814644 -0.00639272 0)
(0.0828858 -0.00637871 0)
(0.0843042 -0.00636313 0)
(0.0857189 -0.00634591 0)
(0.0871298 -0.00632698 0)
(0.0885364 -0.00630629 0)
(0.0899383 -0.00628375 0)
(0.091335 -0.0062593 0)
(0.0927262 -0.00623288 0)
(0.0941115 -0.00620441 0)
(0.0954903 -0.00617384 0)
(0.0968621 -0.00614108 0)
(0.0982265 -0.00610609 0)
(0.099583 -0.00606878 0)
(0.100931 -0.00602911 0)
(0.10227 -0.00598702 0)
(0.1036 -0.00594243 0)
(0.104919 -0.00589529 0)
(0.106228 -0.00584555 0)
(0.107525 -0.00579316 0)
(0.108811 -0.00573806 0)
(0.110084 -0.0056802 0)
(0.111344 -0.00561954 0)
(0.11259 -0.00555604 0)
(0.113822 -0.00548966 0)
(0.115039 -0.00542037 0)
(0.11624 -0.00534813 0)
(0.117425 -0.00527291 0)
(0.118593 -0.0051947 0)
(0.119743 -0.00511347 0)
(0.120875 -0.00502921 0)
(0.121988 -0.00494192 0)
(0.123081 -0.00485158 0)
(0.124153 -0.0047582 0)
(0.125205 -0.00466179 0)
(0.126234 -0.00456236 0)
(0.127242 -0.00445991 0)
(0.128226 -0.00435449 0)
(0.129186 -0.00424611 0)
(0.130122 -0.00413482 0)
(0.131033 -0.00402064 0)
(0.131917 -0.00390363 0)
(0.132776 -0.00378384 0)
(0.133608 -0.00366132 0)
(0.134411 -0.00353615 0)
(0.135187 -0.00340838 0)
(0.135934 -0.0032781 0)
(0.136651 -0.00314539 0)
(0.137339 -0.00301032 0)
(0.137996 -0.002873 0)
(0.138623 -0.00273352 0)
(0.139218 -0.00259198 0)
(0.139781 -0.00244849 0)
(0.140311 -0.00230316 0)
(0.14081 -0.0021561 0)
(0.141275 -0.00200744 0)
(0.141706 -0.00185729 0)
(0.142104 -0.00170578 0)
(0.142468 -0.00155305 0)
(0.142798 -0.00139922 0)
(0.143093 -0.00124444 0)
(0.143353 -0.00108882 0)
(0.143579 -0.000932527 0)
(0.14377 -0.000775686 0)
(0.143925 -0.000618441 0)
(0.144045 -0.000460934 0)
(0.14413 -0.000303307 0)
(0.14418 -0.000145701 0)
(0.144195 1.17419e-05 0)
(0.144174 0.000168882 0)
(0.144118 0.000325579 0)
(0.144027 0.000481697 0)
(0.143902 0.000637099 0)
(0.143742 0.000791653 0)