/*--------------------------------*- C++ -*----------------------------------*\
| =========                 |                                                 |
| \\      /  F ield         | OpenFOAM: The Open Source CFD Toolbox           |
|  \\    /   O peration     | Version:  v2012                                 |
|   \\  /    A nd           | Website:  www.openfoam.com                      |
|    \\/     M anipulation  |                                                 |
\*---------------------------------------------------------------------------*/
FoamFile
{
    version     2.0;
    format      ascii;
    class       volVectorField;
    location    "5.1";
    object      Psi;
}
// * * * * * * * * * * * * * * * * * * * * * * * * * * * * * * * * * * * * * //

dimensions      [0 2 -1 0 0 0 0];


internalField   nonuniform List<vector> 
65536
(
(0 0 9.08766e-06)
(0 0 2.72625e-05)
(0 0 4.54362e-05)
(0 0 6.36081e-05)
(0 0 8.17772e-05)
(0 0 9.9943e-05)
(0 0 0.000118104)
(0 0 0.000136261)
(0 0 0.000154411)
(0 0 0.000172555)
(0 0 0.000190691)
(0 0 0.000208819)
(0 0 0.000226937)
(0 0 0.000245045)
(0 0 0.000263141)
(0 0 0.000281225)
(0 0 0.000299294)
(0 0 0.000317349)
(0 0 0.000335388)
(0 0 0.000353409)
(0 0 0.000371412)
(0 0 0.000389394)
(0 0 0.000407354)
(0 0 0.000425292)
(0 0 0.000443205)
(0 0 0.000461091)
(0 0 0.000478949)
(0 0 0.000496777)
(0 0 0.000514573)
(0 0 0.000532335)
(0 0 0.000550061)
(0 0 0.000567749)
(0 0 0.000585396)
(0 0 0.000603001)
(0 0 0.00062056)
(0 0 0.000638072)
(0 0 0.000655533)
(0 0 0.000672942)
(0 0 0.000690294)
(0 0 0.000707588)
(0 0 0.000724821)
(0 0 0.000741989)
(0 0 0.000759088)
(0 0 0.000776117)
(0 0 0.000793071)
(0 0 0.000809948)
(0 0 0.000826743)
(0 0 0.000843453)
(0 0 0.000860074)
(0 0 0.000876602)
(0 0 0.000893034)
(0 0 0.000909365)
(0 0 0.000925592)
(0 0 0.000941711)
(0 0 0.000957716)
(0 0 0.000973604)
(0 0 0.000989371)
(0 0 0.00100501)
(0 0 0.00102052)
(0 0 0.0010359)
(0 0 0.00105113)
(0 0 0.00106622)
(0 0 0.00108117)
(0 0 0.00109596)
(0 0 0.00111059)
(0 0 0.00112505)
(0 0 0.00113935)
(0 0 0.00115348)
(0 0 0.00116743)
(0 0 0.00118119)
(0 0 0.00119477)
(0 0 0.00120816)
(0 0 0.00122135)
(0 0 0.00123433)
(0 0 0.00124711)
(0 0 0.00125968)
(0 0 0.00127203)
(0 0 0.00128416)
(0 0 0.00129607)
(0 0 0.00130774)
(0 0 0.00131918)
(0 0 0.00133038)
(0 0 0.00134134)
(0 0 0.00135205)
(0 0 0.0013625)
(0 0 0.0013727)
(0 0 0.00138265)
(0 0 0.00139232)
(0 0 0.00140173)
(0 0 0.00141087)
(0 0 0.00141973)
(0 0 0.00142832)
(0 0 0.00143662)
(0 0 0.00144464)
(0 0 0.00145238)
(0 0 0.00145982)
(0 0 0.00146697)
(0 0 0.00147383)
(0 0 0.00148038)
(0 0 0.00148664)
(0 0 0.0014926)
(0 0 0.00149826)
(0 0 0.00150361)
(0 0 0.00150865)
(0 0 0.00151339)
(0 0 0.00151782)
(0 0 0.00152194)
(0 0 0.00152575)
(0 0 0.00152925)
(0 0 0.00153244)
(0 0 0.00153532)
(0 0 0.00153789)
(0 0 0.00154015)
(0 0 0.0015421)
(0 0 0.00154375)
(0 0 0.00154508)
(0 0 0.0015461)
(0 0 0.00154682)
(0 0 0.00154724)
(0 0 0.00154734)
(0 0 0.00154715)
(0 0 0.00154666)
(0 0 0.00154587)
(0 0 0.00154478)
(0 0 0.0015434)
(0 0 0.00154172)
(0 0 0.00153976)
(0 0 0.0015375)
(0 0 0.00153497)
(0 0 0.00153215)
(0 0 0.00152905)
(0 0 0.00152567)
(0 0 0.00152203)
(0 0 0.00151811)
(0 0 0.00151392)
(0 0 0.00150947)
(0 0 0.00150476)
(0 0 0.0014998)
(0 0 0.00149458)
(0 0 0.00148911)
(0 0 0.00148339)
(0 0 0.00147743)
(0 0 0.00147123)
(0 0 0.0014648)
(0 0 0.00145813)
(0 0 0.00145124)
(0 0 0.00144412)
(0 0 0.00143679)
(0 0 0.00142923)
(0 0 0.00142146)
(0 0 0.00141349)
(0 0 0.00140531)
(0 0 0.00139693)
(0 0 0.00138835)
(0 0 0.00137958)
(0 0 0.00137061)
(0 0 0.00136147)
(0 0 0.00135214)
(0 0 0.00134263)
(0 0 0.00133295)
(0 0 0.00132309)
(0 0 0.00131307)
(0 0 0.00130289)
(0 0 0.00129254)
(0 0 0.00128205)
(0 0 0.00127139)
(0 0 0.00126059)
(0 0 0.00124964)
(0 0 0.00123856)
(0 0 0.00122733)
(0 0 0.00121596)
(0 0 0.00120447)
(0 0 0.00119284)
(0 0 0.0011811)
(0 0 0.00116922)
(0 0 0.00115723)
(0 0 0.00114513)
(0 0 0.00113291)
(0 0 0.00112058)
(0 0 0.00110814)
(0 0 0.0010956)
(0 0 0.00108296)
(0 0 0.00107022)
(0 0 0.00105738)
(0 0 0.00104446)
(0 0 0.00103144)
(0 0 0.00101833)
(0 0 0.00100514)
(0 0 0.00099187)
(0 0 0.000978517)
(0 0 0.000965087)
(0 0 0.000951581)
(0 0 0.000938003)
(0 0 0.000924355)
(0 0 0.000910639)
(0 0 0.000896856)
(0 0 0.00088301)
(0 0 0.000869102)
(0 0 0.000855134)
(0 0 0.000841109)
(0 0 0.000827028)
(0 0 0.000812894)
(0 0 0.000798707)
(0 0 0.000784471)
(0 0 0.000770186)
(0 0 0.000755855)
(0 0 0.000741479)
(0 0 0.000727059)
(0 0 0.000712599)
(0 0 0.000698098)
(0 0 0.000683559)
(0 0 0.000668983)
(0 0 0.000654371)
(0 0 0.000639726)
(0 0 0.000625048)
(0 0 0.000610338)
(0 0 0.000595599)
(0 0 0.00058083)
(0 0 0.000566034)
(0 0 0.000551212)
(0 0 0.000536364)
(0 0 0.000521493)
(0 0 0.000506598)
(0 0 0.000491681)
(0 0 0.000476744)
(0 0 0.000461786)
(0 0 0.000446809)
(0 0 0.000431815)
(0 0 0.000416803)
(0 0 0.000401775)
(0 0 0.000386731)
(0 0 0.000371672)
(0 0 0.0003566)
(0 0 0.000341515)
(0 0 0.000326417)
(0 0 0.000311308)
(0 0 0.000296187)
(0 0 0.000281057)
(0 0 0.000265916)
(0 0 0.000250767)
(0 0 0.000235609)
(0 0 0.000220444)
(0 0 0.000205271)
(0 0 0.000190092)
(0 0 0.000174906)
(0 0 0.000159715)
(0 0 0.000144519)
(0 0 0.000129319)
(0 0 0.000114114)
(0 0 9.89058e-05)
(0 0 8.36946e-05)
(0 0 6.84809e-05)
(0 0 5.32651e-05)
(0 0 3.80476e-05)
(0 0 2.2829e-05)
(0 0 7.60975e-06)
(0 0 2.72632e-05)
(0 0 8.17884e-05)
(0 0 0.00013631)
(0 0 0.000190826)
(0 0 0.000245335)
(0 0 0.000299832)
(0 0 0.000354318)
(0 0 0.000408788)
(0 0 0.00046324)
(0 0 0.000517673)
(0 0 0.000572082)
(0 0 0.000626466)
(0 0 0.000680821)
(0 0 0.000735145)
(0 0 0.000789434)
(0 0 0.000843686)
(0 0 0.000897896)
(0 0 0.000952062)
(0 0 0.00100618)
(0 0 0.00106024)
(0 0 0.00111425)
(0 0 0.0011682)
(0 0 0.00122208)
(0 0 0.0012759)
(0 0 0.00132964)
(0 0 0.0013833)
(0 0 0.00143687)
(0 0 0.00149036)
(0 0 0.00154375)
(0 0 0.00159704)
(0 0 0.00165022)
(0 0 0.00170328)
(0 0 0.00175623)
(0 0 0.00180904)
(0 0 0.00186172)
(0 0 0.00191426)
(0 0 0.00196665)
(0 0 0.00201888)
(0 0 0.00207094)
(0 0 0.00212282)
(0 0 0.00217452)
(0 0 0.00222603)
(0 0 0.00227733)
(0 0 0.00232842)
(0 0 0.00237929)
(0 0 0.00242992)
(0 0 0.00248031)
(0 0 0.00253044)
(0 0 0.00258031)
(0 0 0.0026299)
(0 0 0.0026792)
(0 0 0.0027282)
(0 0 0.00277688)
(0 0 0.00282524)
(0 0 0.00287326)
(0 0 0.00292093)
(0 0 0.00296823)
(0 0 0.00301516)
(0 0 0.0030617)
(0 0 0.00310783)
(0 0 0.00315354)
(0 0 0.00319882)
(0 0 0.00324365)
(0 0 0.00328802)
(0 0 0.00333192)
(0 0 0.00337532)
(0 0 0.00341823)
(0 0 0.00346061)
(0 0 0.00350246)
(0 0 0.00354376)
(0 0 0.0035845)
(0 0 0.00362466)
(0 0 0.00366423)
(0 0 0.0037032)
(0 0 0.00374154)
(0 0 0.00377925)
(0 0 0.00381631)
(0 0 0.0038527)
(0 0 0.00388842)
(0 0 0.00392345)
(0 0 0.00395777)
(0 0 0.00399138)
(0 0 0.00402426)
(0 0 0.00405639)
(0 0 0.00408776)
(0 0 0.00411837)
(0 0 0.0041482)
(0 0 0.00417723)
(0 0 0.00420546)
(0 0 0.00423288)
(0 0 0.00425947)
(0 0 0.00428523)
(0 0 0.00431015)
(0 0 0.00433421)
(0 0 0.00435741)
(0 0 0.00437975)
(0 0 0.0044012)
(0 0 0.00442177)
(0 0 0.00444145)
(0 0 0.00446022)
(0 0 0.0044781)
(0 0 0.00449507)
(0 0 0.00451112)
(0 0 0.00452626)
(0 0 0.00454047)
(0 0 0.00455376)
(0 0 0.00456612)
(0 0 0.00457756)
(0 0 0.00458806)
(0 0 0.00459764)
(0 0 0.00460628)
(0 0 0.00461399)
(0 0 0.00462077)
(0 0 0.00462662)
(0 0 0.00463154)
(0 0 0.00463554)
(0 0 0.00463861)
(0 0 0.00464077)
(0 0 0.004642)
(0 0 0.00464233)
(0 0 0.00464175)
(0 0 0.00464027)
(0 0 0.0046379)
(0 0 0.00463463)
(0 0 0.00463048)
(0 0 0.00462545)
(0 0 0.00461955)
(0 0 0.00461279)
(0 0 0.00460518)
(0 0 0.00459672)
(0 0 0.00458742)
(0 0 0.00457729)
(0 0 0.00456635)
(0 0 0.00455459)
(0 0 0.00454203)
(0 0 0.00452868)
(0 0 0.00451454)
(0 0 0.00449964)
(0 0 0.00448398)
(0 0 0.00446756)
(0 0 0.00445041)
(0 0 0.00443253)
(0 0 0.00441393)
(0 0 0.00439463)
(0 0 0.00437463)
(0 0 0.00435394)
(0 0 0.00433259)
(0 0 0.00431057)
(0 0 0.0042879)
(0 0 0.0042646)
(0 0 0.00424067)
(0 0 0.00421613)
(0 0 0.00419098)
(0 0 0.00416524)
(0 0 0.00413892)
(0 0 0.00411203)
(0 0 0.00408458)
(0 0 0.00405659)
(0 0 0.00402806)
(0 0 0.00399901)
(0 0 0.00396944)
(0 0 0.00393938)
(0 0 0.00390882)
(0 0 0.00387779)
(0 0 0.00384629)
(0 0 0.00381433)
(0 0 0.00378192)
(0 0 0.00374907)
(0 0 0.0037158)
(0 0 0.00368212)
(0 0 0.00364802)
(0 0 0.00361353)
(0 0 0.00357866)
(0 0 0.00354341)
(0 0 0.00350779)
(0 0 0.00347182)
(0 0 0.00343549)
(0 0 0.00339883)
(0 0 0.00336184)
(0 0 0.00332453)
(0 0 0.0032869)
(0 0 0.00324898)
(0 0 0.00321076)
(0 0 0.00317225)
(0 0 0.00313346)
(0 0 0.0030944)
(0 0 0.00305508)
(0 0 0.00301551)
(0 0 0.00297569)
(0 0 0.00293563)
(0 0 0.00289533)
(0 0 0.00285482)
(0 0 0.00281408)
(0 0 0.00277313)
(0 0 0.00273198)
(0 0 0.00269063)
(0 0 0.00264909)
(0 0 0.00260737)
(0 0 0.00256546)
(0 0 0.00252338)
(0 0 0.00248114)
(0 0 0.00243873)
(0 0 0.00239617)
(0 0 0.00235346)
(0 0 0.0023106)
(0 0 0.00226761)
(0 0 0.00222448)
(0 0 0.00218122)
(0 0 0.00213784)
(0 0 0.00209433)
(0 0 0.00205071)
(0 0 0.00200698)
(0 0 0.00196315)
(0 0 0.00191921)
(0 0 0.00187518)
(0 0 0.00183105)
(0 0 0.00178683)
(0 0 0.00174252)
(0 0 0.00169813)
(0 0 0.00165366)
(0 0 0.00160912)
(0 0 0.0015645)
(0 0 0.00151982)
(0 0 0.00147507)
(0 0 0.00143025)
(0 0 0.00138538)
(0 0 0.00134045)
(0 0 0.00129546)
(0 0 0.00125043)
(0 0 0.00120534)
(0 0 0.00116021)
(0 0 0.00111503)
(0 0 0.00106981)
(0 0 0.00102456)
(0 0 0.000979264)
(0 0 0.000933935)
(0 0 0.000888573)
(0 0 0.00084318)
(0 0 0.000797759)
(0 0 0.00075231)
(0 0 0.000706836)
(0 0 0.000661339)
(0 0 0.00061582)
(0 0 0.000570282)
(0 0 0.000524725)
(0 0 0.000479151)
(0 0 0.000433562)
(0 0 0.00038796)
(0 0 0.000342345)
(0 0 0.000296721)
(0 0 0.000251087)
(0 0 0.000205445)
(0 0 0.000159797)
(0 0 0.000114144)
(0 0 6.84878e-05)
(0 0 2.28295e-05)
(0 0 4.54399e-05)
(0 0 0.000136318)
(0 0 0.00022719)
(0 0 0.000318053)
(0 0 0.000408902)
(0 0 0.000499735)
(0 0 0.000590546)
(0 0 0.000681332)
(0 0 0.000772089)
(0 0 0.000862813)
(0 0 0.000953498)
(0 0 0.00104414)
(0 0 0.00113474)
(0 0 0.00122528)
(0 0 0.00131577)
(0 0 0.00140619)
(0 0 0.00149654)
(0 0 0.00158682)
(0 0 0.00167702)
(0 0 0.00176714)
(0 0 0.00185715)
(0 0 0.00194707)
(0 0 0.00203688)
(0 0 0.00212658)
(0 0 0.00221615)
(0 0 0.00230559)
(0 0 0.00239489)
(0 0 0.00248404)
(0 0 0.00257303)
(0 0 0.00266185)
(0 0 0.00275049)
(0 0 0.00283894)
(0 0 0.00292719)
(0 0 0.00301522)
(0 0 0.00310303)
(0 0 0.0031906)
(0 0 0.00327792)
(0 0 0.00336498)
(0 0 0.00345176)
(0 0 0.00353824)
(0 0 0.00362442)
(0 0 0.00371028)
(0 0 0.00379579)
(0 0 0.00388095)
(0 0 0.00396574)
(0 0 0.00405014)
(0 0 0.00413413)
(0 0 0.0042177)
(0 0 0.00430082)
(0 0 0.00438348)
(0 0 0.00446566)
(0 0 0.00454734)
(0 0 0.0046285)
(0 0 0.00470911)
(0 0 0.00478916)
(0 0 0.00486862)
(0 0 0.00494748)
(0 0 0.0050257)
(0 0 0.00510328)
(0 0 0.00518018)
(0 0 0.00525638)
(0 0 0.00533186)
(0 0 0.00540659)
(0 0 0.00548056)
(0 0 0.00555374)
(0 0 0.0056261)
(0 0 0.00569762)
(0 0 0.00576827)
(0 0 0.00583804)
(0 0 0.00590689)
(0 0 0.00597481)
(0 0 0.00604176)
(0 0 0.00610773)
(0 0 0.00617268)
(0 0 0.00623661)
(0 0 0.00629947)
(0 0 0.00636125)
(0 0 0.00642193)
(0 0 0.00648147)
(0 0 0.00653987)
(0 0 0.00659709)
(0 0 0.00665311)
(0 0 0.00670792)
(0 0 0.00676148)
(0 0 0.00681379)
(0 0 0.00686481)
(0 0 0.00691454)
(0 0 0.00696294)
(0 0 0.00701001)
(0 0 0.00705572)
(0 0 0.00710005)
(0 0 0.00714299)
(0 0 0.00718453)
(0 0 0.00722464)
(0 0 0.00726332)
(0 0 0.00730055)
(0 0 0.00733631)
(0 0 0.0073706)
(0 0 0.00740341)
(0 0 0.00743471)
(0 0 0.00746451)
(0 0 0.00749279)
(0 0 0.00751955)
(0 0 0.00754478)
(0 0 0.00756848)
(0 0 0.00759063)
(0 0 0.00761124)
(0 0 0.0076303)
(0 0 0.0076478)
(0 0 0.00766376)
(0 0 0.00767816)
(0 0 0.00769101)
(0 0 0.00770231)
(0 0 0.00771206)
(0 0 0.00772026)
(0 0 0.00772692)
(0 0 0.00773204)
(0 0 0.00773562)
(0 0 0.00773769)
(0 0 0.00773823)
(0 0 0.00773726)
(0 0 0.00773478)
(0 0 0.00773082)
(0 0 0.00772536)
(0 0 0.00771844)
(0 0 0.00771005)
(0 0 0.00770021)
(0 0 0.00768894)
(0 0 0.00767624)
(0 0 0.00766213)
(0 0 0.00764662)
(0 0 0.00762973)
(0 0 0.00761148)
(0 0 0.00759187)
(0 0 0.00757092)
(0 0 0.00754866)
(0 0 0.0075251)
(0 0 0.00750025)
(0 0 0.00747413)
(0 0 0.00744676)
(0 0 0.00741816)
(0 0 0.00738835)
(0 0 0.00735734)
(0 0 0.00732515)
(0 0 0.0072918)
(0 0 0.00725732)
(0 0 0.00722171)
(0 0 0.00718501)
(0 0 0.00714722)
(0 0 0.00710836)
(0 0 0.00706847)
(0 0 0.00702755)
(0 0 0.00698562)
(0 0 0.0069427)
(0 0 0.00689882)
(0 0 0.006854)
(0 0 0.00680824)
(0 0 0.00676157)
(0 0 0.00671401)
(0 0 0.00666558)
(0 0 0.0066163)
(0 0 0.00656618)
(0 0 0.00651524)
(0 0 0.0064635)
(0 0 0.00641099)
(0 0 0.00635771)
(0 0 0.00630368)
(0 0 0.00624893)
(0 0 0.00619347)
(0 0 0.00613731)
(0 0 0.00608048)
(0 0 0.00602299)
(0 0 0.00596485)
(0 0 0.00590609)
(0 0 0.00584671)
(0 0 0.00578675)
(0 0 0.0057262)
(0 0 0.00566509)
(0 0 0.00560342)
(0 0 0.00554123)
(0 0 0.00547851)
(0 0 0.00541529)
(0 0 0.00535158)
(0 0 0.00528739)
(0 0 0.00522273)
(0 0 0.00515763)
(0 0 0.00509209)
(0 0 0.00502612)
(0 0 0.00495975)
(0 0 0.00489297)
(0 0 0.00482581)
(0 0 0.00475827)
(0 0 0.00469037)
(0 0 0.00462212)
(0 0 0.00455352)
(0 0 0.0044846)
(0 0 0.00441536)
(0 0 0.00434581)
(0 0 0.00427596)
(0 0 0.00420582)
(0 0 0.00413541)
(0 0 0.00406473)
(0 0 0.00399379)
(0 0 0.0039226)
(0 0 0.00385116)
(0 0 0.0037795)
(0 0 0.00370761)
(0 0 0.00363551)
(0 0 0.00356319)
(0 0 0.00349068)
(0 0 0.00341798)
(0 0 0.00334509)
(0 0 0.00327203)
(0 0 0.00319879)
(0 0 0.0031254)
(0 0 0.00305184)
(0 0 0.00297814)
(0 0 0.00290429)
(0 0 0.0028303)
(0 0 0.00275619)
(0 0 0.00268194)
(0 0 0.00260758)
(0 0 0.0025331)
(0 0 0.00245851)
(0 0 0.00238382)
(0 0 0.00230903)
(0 0 0.00223414)
(0 0 0.00215916)
(0 0 0.0020841)
(0 0 0.00200895)
(0 0 0.00193373)
(0 0 0.00185843)
(0 0 0.00178307)
(0 0 0.00170764)
(0 0 0.00163214)
(0 0 0.00155659)
(0 0 0.00148099)
(0 0 0.00140533)
(0 0 0.00132963)
(0 0 0.00125388)
(0 0 0.00117809)
(0 0 0.00110226)
(0 0 0.00102639)
(0 0 0.00095049)
(0 0 0.00087456)
(0 0 0.000798602)
(0 0 0.000722619)
(0 0 0.000646613)
(0 0 0.000570588)
(0 0 0.000494544)
(0 0 0.000418486)
(0 0 0.000342415)
(0 0 0.000266333)
(0 0 0.000190244)
(0 0 0.000114149)
(0 0 3.80499e-05)
(0 0 6.36185e-05)
(0 0 0.000190853)
(0 0 0.000318079)
(0 0 0.000445293)
(0 0 0.000572487)
(0 0 0.000699658)
(0 0 0.0008268)
(0 0 0.000953907)
(0 0 0.00108097)
(0 0 0.00120799)
(0 0 0.00133496)
(0 0 0.00146186)
(0 0 0.0015887)
(0 0 0.00171547)
(0 0 0.00184216)
(0 0 0.00196876)
(0 0 0.00209526)
(0 0 0.00222167)
(0 0 0.00234795)
(0 0 0.00247412)
(0 0 0.00260016)
(0 0 0.00272605)
(0 0 0.0028518)
(0 0 0.00297739)
(0 0 0.0031028)
(0 0 0.00322803)
(0 0 0.00335306)
(0 0 0.00347788)
(0 0 0.00360248)
(0 0 0.00372684)
(0 0 0.00385095)
(0 0 0.0039748)
(0 0 0.00409836)
(0 0 0.00422163)
(0 0 0.00434458)
(0 0 0.0044672)
(0 0 0.00458947)
(0 0 0.00471136)
(0 0 0.00483287)
(0 0 0.00495397)
(0 0 0.00507464)
(0 0 0.00519486)
(0 0 0.0053146)
(0 0 0.00543385)
(0 0 0.00555258)
(0 0 0.00567076)
(0 0 0.00578838)
(0 0 0.0059054)
(0 0 0.0060218)
(0 0 0.00613755)
(0 0 0.00625263)
(0 0 0.00636701)
(0 0 0.00648066)
(0 0 0.00659354)
(0 0 0.00670564)
(0 0 0.00681692)
(0 0 0.00692735)
(0 0 0.0070369)
(0 0 0.00714553)
(0 0 0.00725322)
(0 0 0.00735994)
(0 0 0.00746565)
(0 0 0.00757031)
(0 0 0.0076739)
(0 0 0.00777638)
(0 0 0.00787772)
(0 0 0.00797788)
(0 0 0.00807683)
(0 0 0.00817454)
(0 0 0.00827096)
(0 0 0.00836608)
(0 0 0.00845985)
(0 0 0.00855223)
(0 0 0.00864321)
(0 0 0.00873273)
(0 0 0.00882077)
(0 0 0.0089073)
(0 0 0.00899228)
(0 0 0.00907567)
(0 0 0.00915746)
(0 0 0.0092376)
(0 0 0.00931606)
(0 0 0.00939282)
(0 0 0.00946784)
(0 0 0.0095411)
(0 0 0.00961256)
(0 0 0.0096822)
(0 0 0.00974999)
(0 0 0.00981591)
(0 0 0.00987993)
(0 0 0.00994202)
(0 0 0.0100022)
(0 0 0.0100603)
(0 0 0.0101165)
(0 0 0.0101707)
(0 0 0.0102228)
(0 0 0.0102729)
(0 0 0.0103209)
(0 0 0.0103669)
(0 0 0.0104107)
(0 0 0.0104524)
(0 0 0.010492)
(0 0 0.0105295)
(0 0 0.0105648)
(0 0 0.010598)
(0 0 0.010629)
(0 0 0.0106579)
(0 0 0.0106846)
(0 0 0.0107091)
(0 0 0.0107314)
(0 0 0.0107516)
(0 0 0.0107696)
(0 0 0.0107854)
(0 0 0.010799)
(0 0 0.0108105)
(0 0 0.0108198)
(0 0 0.010827)
(0 0 0.010832)
(0 0 0.0108349)
(0 0 0.0108356)
(0 0 0.0108343)
(0 0 0.0108308)
(0 0 0.0108252)
(0 0 0.0108176)
(0 0 0.0108079)
(0 0 0.0107961)
(0 0 0.0107823)
(0 0 0.0107665)
(0 0 0.0107487)
(0 0 0.0107289)
(0 0 0.0107072)
(0 0 0.0106835)
(0 0 0.010658)
(0 0 0.0106305)
(0 0 0.0106011)
(0 0 0.01057)
(0 0 0.0105369)
(0 0 0.0105021)
(0 0 0.0104655)
(0 0 0.0104272)
(0 0 0.0103871)
(0 0 0.0103454)
(0 0 0.0103019)
(0 0 0.0102568)
(0 0 0.0102101)
(0 0 0.0101618)
(0 0 0.0101119)
(0 0 0.0100605)
(0 0 0.0100076)
(0 0 0.00995317)
(0 0 0.00989729)
(0 0 0.00983997)
(0 0 0.00978125)
(0 0 0.00972114)
(0 0 0.00965968)
(0 0 0.0095969)
(0 0 0.00953281)
(0 0 0.00946745)
(0 0 0.00940084)
(0 0 0.00933301)
(0 0 0.00926398)
(0 0 0.00919379)
(0 0 0.00912245)
(0 0 0.00905)
(0 0 0.00897645)
(0 0 0.00890183)
(0 0 0.00882617)
(0 0 0.0087495)
(0 0 0.00867182)
(0 0 0.00859318)
(0 0 0.00851359)
(0 0 0.00843308)
(0 0 0.00835167)
(0 0 0.00826938)
(0 0 0.00818623)
(0 0 0.00810226)
(0 0 0.00801747)
(0 0 0.00793189)
(0 0 0.00784554)
(0 0 0.00775845)
(0 0 0.00767062)
(0 0 0.00758209)
(0 0 0.00749288)
(0 0 0.00740299)
(0 0 0.00731246)
(0 0 0.00722129)
(0 0 0.00712952)
(0 0 0.00703715)
(0 0 0.0069442)
(0 0 0.0068507)
(0 0 0.00675666)
(0 0 0.00666209)
(0 0 0.00656701)
(0 0 0.00647144)
(0 0 0.00637539)
(0 0 0.00627889)
(0 0 0.00618193)
(0 0 0.00608455)
(0 0 0.00598675)
(0 0 0.00588854)
(0 0 0.00578995)
(0 0 0.00569098)
(0 0 0.00559165)
(0 0 0.00549197)
(0 0 0.00539195)
(0 0 0.00529161)
(0 0 0.00519096)
(0 0 0.00509)
(0 0 0.00498875)
(0 0 0.00488723)
(0 0 0.00478543)
(0 0 0.00468338)
(0 0 0.00458108)
(0 0 0.00447854)
(0 0 0.00437578)
(0 0 0.00427279)
(0 0 0.0041696)
(0 0 0.0040662)
(0 0 0.00396261)
(0 0 0.00385884)
(0 0 0.00375489)
(0 0 0.00365077)
(0 0 0.0035465)
(0 0 0.00344206)
(0 0 0.00333749)
(0 0 0.00323277)
(0 0 0.00312792)
(0 0 0.00302295)
(0 0 0.00291785)
(0 0 0.00281264)
(0 0 0.00270732)
(0 0 0.0026019)
(0 0 0.00249639)
(0 0 0.00239078)
(0 0 0.00228508)
(0 0 0.00217931)
(0 0 0.00207346)
(0 0 0.00196753)
(0 0 0.00186154)
(0 0 0.00175549)
(0 0 0.00164938)
(0 0 0.00154321)
(0 0 0.00143699)
(0 0 0.00133073)
(0 0 0.00122442)
(0 0 0.00111808)
(0 0 0.0010117)
(0 0 0.000905287)
(0 0 0.000798847)
(0 0 0.000692383)
(0 0 0.000585898)
(0 0 0.000479396)
(0 0 0.000372878)
(0 0 0.00026635)
(0 0 0.000159813)
(0 0 5.32715e-05)
(0 0 8.17997e-05)
(0 0 0.000245396)
(0 0 0.000408982)
(0 0 0.000572551)
(0 0 0.000736096)
(0 0 0.000899612)
(0 0 0.00106309)
(0 0 0.00122652)
(0 0 0.0013899)
(0 0 0.00155322)
(0 0 0.00171648)
(0 0 0.00187965)
(0 0 0.00204275)
(0 0 0.00220575)
(0 0 0.00236864)
(0 0 0.00253143)
(0 0 0.00269409)
(0 0 0.00285662)
(0 0 0.00301901)
(0 0 0.00318124)
(0 0 0.0033433)
(0 0 0.00350519)
(0 0 0.00366688)
(0 0 0.00382836)
(0 0 0.00398963)
(0 0 0.00415066)
(0 0 0.00431143)
(0 0 0.00447194)
(0 0 0.00463216)
(0 0 0.00479208)
(0 0 0.00495168)
(0 0 0.00511094)
(0 0 0.00526984)
(0 0 0.00542835)
(0 0 0.00558646)
(0 0 0.00574414)
(0 0 0.00590138)
(0 0 0.00605814)
(0 0 0.0062144)
(0 0 0.00637013)
(0 0 0.00652532)
(0 0 0.00667992)
(0 0 0.00683392)
(0 0 0.00698728)
(0 0 0.00713997)
(0 0 0.00729196)
(0 0 0.00744322)
(0 0 0.00759372)
(0 0 0.00774343)
(0 0 0.0078923)
(0 0 0.00804031)
(0 0 0.00818741)
(0 0 0.00833358)
(0 0 0.00847877)
(0 0 0.00862295)
(0 0 0.00876607)
(0 0 0.0089081)
(0 0 0.00904901)
(0 0 0.00918873)
(0 0 0.00932725)
(0 0 0.00946451)
(0 0 0.00960048)
(0 0 0.0097351)
(0 0 0.00986834)
(0 0 0.0100002)
(0 0 0.0101305)
(0 0 0.0102593)
(0 0 0.0103866)
(0 0 0.0105123)
(0 0 0.0106364)
(0 0 0.0107587)
(0 0 0.0108793)
(0 0 0.0109982)
(0 0 0.0111152)
(0 0 0.0112303)
(0 0 0.0113436)
(0 0 0.0114549)
(0 0 0.0115642)
(0 0 0.0116715)
(0 0 0.0117767)
(0 0 0.0118798)
(0 0 0.0119807)
(0 0 0.0120795)
(0 0 0.012176)
(0 0 0.0122702)
(0 0 0.0123621)
(0 0 0.0124517)
(0 0 0.0125389)
(0 0 0.0126237)
(0 0 0.0127061)
(0 0 0.0127859)
(0 0 0.0128633)
(0 0 0.0129381)
(0 0 0.0130104)
(0 0 0.0130801)
(0 0 0.0131471)
(0 0 0.0132116)
(0 0 0.0132733)
(0 0 0.0133324)
(0 0 0.0133888)
(0 0 0.0134425)
(0 0 0.0134934)
(0 0 0.0135416)
(0 0 0.0135871)
(0 0 0.0136297)
(0 0 0.0136696)
(0 0 0.0137067)
(0 0 0.0137411)
(0 0 0.0137726)
(0 0 0.0138013)
(0 0 0.0138272)
(0 0 0.0138503)
(0 0 0.0138707)
(0 0 0.0138882)
(0 0 0.0139029)
(0 0 0.0139149)
(0 0 0.0139241)
(0 0 0.0139305)
(0 0 0.0139342)
(0 0 0.0139352)
(0 0 0.0139334)
(0 0 0.0139289)
(0 0 0.0139217)
(0 0 0.0139118)
(0 0 0.0138993)
(0 0 0.0138842)
(0 0 0.0138664)
(0 0 0.0138461)
(0 0 0.0138232)
(0 0 0.0137977)
(0 0 0.0137697)
(0 0 0.0137393)
(0 0 0.0137063)
(0 0 0.013671)
(0 0 0.0136332)
(0 0 0.0135931)
(0 0 0.0135506)
(0 0 0.0135058)
(0 0 0.0134587)
(0 0 0.0134093)
(0 0 0.0133578)
(0 0 0.013304)
(0 0 0.0132482)
(0 0 0.0131901)
(0 0 0.01313)
(0 0 0.0130679)
(0 0 0.0130037)
(0 0 0.0129376)
(0 0 0.0128695)
(0 0 0.0127994)
(0 0 0.0127275)
(0 0 0.0126538)
(0 0 0.0125783)
(0 0 0.0125009)
(0 0 0.0124219)
(0 0 0.0123411)
(0 0 0.0122587)
(0 0 0.0121746)
(0 0 0.0120889)
(0 0 0.0120016)
(0 0 0.0119128)
(0 0 0.0118225)
(0 0 0.0117308)
(0 0 0.0116376)
(0 0 0.011543)
(0 0 0.011447)
(0 0 0.0113497)
(0 0 0.0112511)
(0 0 0.0111512)
(0 0 0.01105)
(0 0 0.0109476)
(0 0 0.0108441)
(0 0 0.0107394)
(0 0 0.0106335)
(0 0 0.0105266)
(0 0 0.0104186)
(0 0 0.0103095)
(0 0 0.0101995)
(0 0 0.0100884)
(0 0 0.00997639)
(0 0 0.00986344)
(0 0 0.00974959)
(0 0 0.00963484)
(0 0 0.00951925)
(0 0 0.00940281)
(0 0 0.00928557)
(0 0 0.00916754)
(0 0 0.00904875)
(0 0 0.00892922)
(0 0 0.00880897)
(0 0 0.00868803)
(0 0 0.00856641)
(0 0 0.00844414)
(0 0 0.00832124)
(0 0 0.00819773)
(0 0 0.00807362)
(0 0 0.00794894)
(0 0 0.00782371)
(0 0 0.00769794)
(0 0 0.00757165)
(0 0 0.00744487)
(0 0 0.0073176)
(0 0 0.00718987)
(0 0 0.00706168)
(0 0 0.00693307)
(0 0 0.00680404)
(0 0 0.0066746)
(0 0 0.00654478)
(0 0 0.00641459)
(0 0 0.00628404)
(0 0 0.00615314)
(0 0 0.00602191)
(0 0 0.00589037)
(0 0 0.00575852)
(0 0 0.00562637)
(0 0 0.00549395)
(0 0 0.00536125)
(0 0 0.0052283)
(0 0 0.0050951)
(0 0 0.00496167)
(0 0 0.004828)
(0 0 0.00469413)
(0 0 0.00456004)
(0 0 0.00442576)
(0 0 0.00429129)
(0 0 0.00415665)
(0 0 0.00402183)
(0 0 0.00388685)
(0 0 0.00375172)
(0 0 0.00361644)
(0 0 0.00348102)
(0 0 0.00334547)
(0 0 0.0032098)
(0 0 0.00307401)
(0 0 0.00293811)
(0 0 0.0028021)
(0 0 0.002666)
(0 0 0.0025298)
(0 0 0.00239352)
(0 0 0.00225716)
(0 0 0.00212072)
(0 0 0.00198421)
(0 0 0.00184764)
(0 0 0.00171101)
(0 0 0.00157432)
(0 0 0.00143759)
(0 0 0.00130081)
(0 0 0.00116399)
(0 0 0.00102713)
(0 0 0.000890244)
(0 0 0.000753329)
(0 0 0.000616391)
(0 0 0.000479434)
(0 0 0.000342463)
(0 0 0.000205482)
(0 0 6.84947e-05)
(0 0 9.99843e-05)
(0 0 0.000299949)
(0 0 0.000499901)
(0 0 0.000699833)
(0 0 0.000899736)
(0 0 0.0010996)
(0 0 0.00129942)
(0 0 0.00149919)
(0 0 0.00169889)
(0 0 0.00189852)
(0 0 0.00209807)
(0 0 0.00229753)
(0 0 0.00249688)
(0 0 0.00269612)
(0 0 0.00289524)
(0 0 0.00309422)
(0 0 0.00329305)
(0 0 0.00349172)
(0 0 0.00369022)
(0 0 0.00388852)
(0 0 0.00408663)
(0 0 0.00428451)
(0 0 0.00448216)
(0 0 0.00467957)
(0 0 0.0048767)
(0 0 0.00507354)
(0 0 0.00527008)
(0 0 0.00546629)
(0 0 0.00566216)
(0 0 0.00585765)
(0 0 0.00605276)
(0 0 0.00624744)
(0 0 0.00644169)
(0 0 0.00663548)
(0 0 0.00682877)
(0 0 0.00702154)
(0 0 0.00721376)
(0 0 0.00740541)
(0 0 0.00759645)
(0 0 0.00778685)
(0 0 0.00797657)
(0 0 0.00816559)
(0 0 0.00835387)
(0 0 0.00854137)
(0 0 0.00872806)
(0 0 0.00891389)
(0 0 0.00909883)
(0 0 0.00928285)
(0 0 0.00946589)
(0 0 0.00964791)
(0 0 0.00982888)
(0 0 0.0100088)
(0 0 0.0101875)
(0 0 0.010365)
(0 0 0.0105413)
(0 0 0.0107163)
(0 0 0.01089)
(0 0 0.0110623)
(0 0 0.0112332)
(0 0 0.0114025)
(0 0 0.0115704)
(0 0 0.0117366)
(0 0 0.0119013)
(0 0 0.0120642)
(0 0 0.0122254)
(0 0 0.0123848)
(0 0 0.0125424)
(0 0 0.012698)
(0 0 0.0128517)
(0 0 0.0130034)
(0 0 0.0131531)
(0 0 0.0133006)
(0 0 0.0134459)
(0 0 0.013589)
(0 0 0.0137299)
(0 0 0.0138684)
(0 0 0.0140045)
(0 0 0.0141382)
(0 0 0.0142694)
(0 0 0.0143981)
(0 0 0.0145241)
(0 0 0.0146476)
(0 0 0.0147683)
(0 0 0.0148864)
(0 0 0.0150016)
(0 0 0.0151141)
(0 0 0.0152236)
(0 0 0.0153303)
(0 0 0.015434)
(0 0 0.0155347)
(0 0 0.0156324)
(0 0 0.015727)
(0 0 0.0158185)
(0 0 0.0159069)
(0 0 0.0159921)
(0 0 0.0160741)
(0 0 0.0161529)
(0 0 0.0162284)
(0 0 0.0163007)
(0 0 0.0163696)
(0 0 0.0164353)
(0 0 0.0164976)
(0 0 0.0165565)
(0 0 0.0166121)
(0 0 0.0166642)
(0 0 0.016713)
(0 0 0.0167584)
(0 0 0.0168003)
(0 0 0.0168388)
(0 0 0.016874)
(0 0 0.0169056)
(0 0 0.0169339)
(0 0 0.0169587)
(0 0 0.0169801)
(0 0 0.0169982)
(0 0 0.0170128)
(0 0 0.017024)
(0 0 0.0170318)
(0 0 0.0170363)
(0 0 0.0170374)
(0 0 0.0170352)
(0 0 0.0170297)
(0 0 0.0170209)
(0 0 0.0170088)
(0 0 0.0169934)
(0 0 0.0169749)
(0 0 0.0169531)
(0 0 0.0169282)
(0 0 0.0169002)
(0 0 0.016869)
(0 0 0.0168347)
(0 0 0.0167975)
(0 0 0.0167571)
(0 0 0.0167139)
(0 0 0.0166677)
(0 0 0.0166185)
(0 0 0.0165665)
(0 0 0.0165117)
(0 0 0.0164541)
(0 0 0.0163937)
(0 0 0.0163306)
(0 0 0.0162649)
(0 0 0.0161965)
(0 0 0.0161255)
(0 0 0.016052)
(0 0 0.015976)
(0 0 0.0158975)
(0 0 0.0158165)
(0 0 0.0157332)
(0 0 0.0156476)
(0 0 0.0155597)
(0 0 0.0154695)
(0 0 0.015377)
(0 0 0.0152825)
(0 0 0.0151858)
(0 0 0.015087)
(0 0 0.0149861)
(0 0 0.0148833)
(0 0 0.0147785)
(0 0 0.0146718)
(0 0 0.0145632)
(0 0 0.0144528)
(0 0 0.0143406)
(0 0 0.0142266)
(0 0 0.0141109)
(0 0 0.0139935)
(0 0 0.0138745)
(0 0 0.0137539)
(0 0 0.0136317)
(0 0 0.013508)
(0 0 0.0133829)
(0 0 0.0132562)
(0 0 0.0131282)
(0 0 0.0129988)
(0 0 0.012868)
(0 0 0.0127359)
(0 0 0.0126026)
(0 0 0.012468)
(0 0 0.0123322)
(0 0 0.0121953)
(0 0 0.0120572)
(0 0 0.011918)
(0 0 0.0117777)
(0 0 0.0116363)
(0 0 0.011494)
(0 0 0.0113506)
(0 0 0.0112063)
(0 0 0.0110611)
(0 0 0.010915)
(0 0 0.0107679)
(0 0 0.0106201)
(0 0 0.0104714)
(0 0 0.0103219)
(0 0 0.0101717)
(0 0 0.0100207)
(0 0 0.00986893)
(0 0 0.0097165)
(0 0 0.0095634)
(0 0 0.00940965)
(0 0 0.00925526)
(0 0 0.00910027)
(0 0 0.00894468)
(0 0 0.00878853)
(0 0 0.00863183)
(0 0 0.0084746)
(0 0 0.00831686)
(0 0 0.00815864)
(0 0 0.00799994)
(0 0 0.00784078)
(0 0 0.00768119)
(0 0 0.00752118)
(0 0 0.00736076)
(0 0 0.00719996)
(0 0 0.00703878)
(0 0 0.00687725)
(0 0 0.00671537)
(0 0 0.00655317)
(0 0 0.00639065)
(0 0 0.00622783)
(0 0 0.00606472)
(0 0 0.00590133)
(0 0 0.00573769)
(0 0 0.00557379)
(0 0 0.00540965)
(0 0 0.00524528)
(0 0 0.00508069)
(0 0 0.0049159)
(0 0 0.00475091)
(0 0 0.00458573)
(0 0 0.00442037)
(0 0 0.00425485)
(0 0 0.00408916)
(0 0 0.00392332)
(0 0 0.00375734)
(0 0 0.00359123)
(0 0 0.00342499)
(0 0 0.00325863)
(0 0 0.00309215)
(0 0 0.00292558)
(0 0 0.0027589)
(0 0 0.00259213)
(0 0 0.00242528)
(0 0 0.00225835)
(0 0 0.00209134)
(0 0 0.00192427)
(0 0 0.00175714)
(0 0 0.00158996)
(0 0 0.00142273)
(0 0 0.00125545)
(0 0 0.00108813)
(0 0 0.000920782)
(0 0 0.000753404)
(0 0 0.000586005)
(0 0 0.000418587)
(0 0 0.000251157)
(0 0 8.37199e-05)
(0 0 0.000118173)
(0 0 0.000354514)
(0 0 0.000590841)
(0 0 0.000827144)
(0 0 0.00106341)
(0 0 0.00129964)
(0 0 0.00153581)
(0 0 0.00177192)
(0 0 0.00200796)
(0 0 0.00224391)
(0 0 0.00247976)
(0 0 0.00271551)
(0 0 0.00295113)
(0 0 0.00318662)
(0 0 0.00342197)
(0 0 0.00365716)
(0 0 0.00389217)
(0 0 0.00412699)
(0 0 0.00436161)
(0 0 0.00459601)
(0 0 0.00483017)
(0 0 0.00506408)
(0 0 0.0052977)
(0 0 0.00553104)
(0 0 0.00576405)
(0 0 0.00599673)
(0 0 0.00622905)
(0 0 0.00646099)
(0 0 0.00669252)
(0 0 0.00692361)
(0 0 0.00715424)
(0 0 0.00738439)
(0 0 0.00761402)
(0 0 0.0078431)
(0 0 0.0080716)
(0 0 0.00829949)
(0 0 0.00852673)
(0 0 0.00875329)
(0 0 0.00897914)
(0 0 0.00920424)
(0 0 0.00942854)
(0 0 0.009652)
(0 0 0.0098746)
(0 0 0.0100963)
(0 0 0.010317)
(0 0 0.0105367)
(0 0 0.0107554)
(0 0 0.0109729)
(0 0 0.0111894)
(0 0 0.0114046)
(0 0 0.0116186)
(0 0 0.0118312)
(0 0 0.0120426)
(0 0 0.0122525)
(0 0 0.012461)
(0 0 0.0126679)
(0 0 0.0128733)
(0 0 0.013077)
(0 0 0.0132791)
(0 0 0.0134794)
(0 0 0.0136778)
(0 0 0.0138745)
(0 0 0.0140691)
(0 0 0.0142618)
(0 0 0.0144525)
(0 0 0.014641)
(0 0 0.0148273)
(0 0 0.0150114)
(0 0 0.0151932)
(0 0 0.0153726)
(0 0 0.0155495)
(0 0 0.015724)
(0 0 0.0158959)
(0 0 0.0160651)
(0 0 0.0162317)
(0 0 0.0163955)
(0 0 0.0165565)
(0 0 0.0167146)
(0 0 0.0168698)
(0 0 0.017022)
(0 0 0.0171711)
(0 0 0.0173171)
(0 0 0.01746)
(0 0 0.0175996)
(0 0 0.0177359)
(0 0 0.0178688)
(0 0 0.0179984)
(0 0 0.0181246)
(0 0 0.0182472)
(0 0 0.0183663)
(0 0 0.0184819)
(0 0 0.0185938)
(0 0 0.018702)
(0 0 0.0188065)
(0 0 0.0189073)
(0 0 0.0190043)
(0 0 0.0190975)
(0 0 0.0191868)
(0 0 0.0192722)
(0 0 0.0193538)
(0 0 0.0194314)
(0 0 0.0195051)
(0 0 0.0195747)
(0 0 0.0196404)
(0 0 0.0197021)
(0 0 0.0197598)
(0 0 0.0198134)
(0 0 0.019863)
(0 0 0.0199085)
(0 0 0.01995)
(0 0 0.0199875)
(0 0 0.0200209)
(0 0 0.0200502)
(0 0 0.0200755)
(0 0 0.0200968)
(0 0 0.020114)
(0 0 0.0201272)
(0 0 0.0201365)
(0 0 0.0201417)
(0 0 0.020143)
(0 0 0.0201404)
(0 0 0.0201338)
(0 0 0.0201233)
(0 0 0.020109)
(0 0 0.0200908)
(0 0 0.0200688)
(0 0 0.020043)
(0 0 0.0200135)
(0 0 0.0199803)
(0 0 0.0199434)
(0 0 0.0199028)
(0 0 0.0198587)
(0 0 0.0198109)
(0 0 0.0197597)
(0 0 0.019705)
(0 0 0.0196469)
(0 0 0.0195853)
(0 0 0.0195204)
(0 0 0.0194523)
(0 0 0.0193808)
(0 0 0.0193062)
(0 0 0.0192284)
(0 0 0.0191475)
(0 0 0.0190635)
(0 0 0.0189765)
(0 0 0.0188865)
(0 0 0.0187936)
(0 0 0.0186979)
(0 0 0.0185994)
(0 0 0.018498)
(0 0 0.018394)
(0 0 0.0182873)
(0 0 0.018178)
(0 0 0.0180661)
(0 0 0.0179517)
(0 0 0.0178349)
(0 0 0.0177156)
(0 0 0.017594)
(0 0 0.01747)
(0 0 0.0173438)
(0 0 0.0172154)
(0 0 0.0170848)
(0 0 0.0169521)
(0 0 0.0168173)
(0 0 0.0166805)
(0 0 0.0165417)
(0 0 0.0164009)
(0 0 0.0162583)
(0 0 0.0161138)
(0 0 0.0159676)
(0 0 0.0158195)
(0 0 0.0156698)
(0 0 0.0155184)
(0 0 0.0153654)
(0 0 0.0152107)
(0 0 0.0150546)
(0 0 0.0148969)
(0 0 0.0147378)
(0 0 0.0145772)
(0 0 0.0144153)
(0 0 0.014252)
(0 0 0.0140874)
(0 0 0.0139215)
(0 0 0.0137544)
(0 0 0.0135861)
(0 0 0.0134167)
(0 0 0.013246)
(0 0 0.0130743)
(0 0 0.0129016)
(0 0 0.0127278)
(0 0 0.0125529)
(0 0 0.0123772)
(0 0 0.0122004)
(0 0 0.0120228)
(0 0 0.0118443)
(0 0 0.0116649)
(0 0 0.0114847)
(0 0 0.0113037)
(0 0 0.011122)
(0 0 0.0109395)
(0 0 0.0107563)
(0 0 0.0105723)
(0 0 0.0103877)
(0 0 0.0102025)