/*--------------------------------*- C++ -*----------------------------------*\
| =========                 |                                                 |
| \\      /  F ield         | OpenFOAM: The Open Source CFD Toolbox           |
|  \\    /   O peration     | Version:  v2012                                 |
|   \\  /    A nd           | Website:  www.openfoam.com                      |
|    \\/     M anipulation  |                                                 |
\*---------------------------------------------------------------------------*/
FoamFile
{
    version     2.0;
    format      ascii;
    class       volVectorField;
    location    "1.6";
    object      Psi;
}
// * * * * * * * * * * * * * * * * * * * * * * * * * * * * * * * * * * * * * //

dimensions      [0 2 -1 0 0 0 0];


internalField   nonuniform List<vector> 
65536
(
(0 0 8.56455e-06)
(0 0 2.5693e-05)
(0 0 4.28198e-05)
(0 0 5.99437e-05)
(0 0 7.70638e-05)
(0 0 9.41787e-05)
(0 0 0.000111288)
(0 0 0.000128389)
(0 0 0.000145482)
(0 0 0.000162565)
(0 0 0.000179637)
(0 0 0.000196697)
(0 0 0.000213744)
(0 0 0.000230776)
(0 0 0.000247792)
(0 0 0.00026479)
(0 0 0.00028177)
(0 0 0.000298729)
(0 0 0.000315667)
(0 0 0.000332582)
(0 0 0.000349473)
(0 0 0.000366337)
(0 0 0.000383173)
(0 0 0.00039998)
(0 0 0.000416756)
(0 0 0.000433498)
(0 0 0.000450206)
(0 0 0.000466878)
(0 0 0.000483511)
(0 0 0.000500104)
(0 0 0.000516654)
(0 0 0.000533159)
(0 0 0.000549619)
(0 0 0.000566029)
(0 0 0.000582388)
(0 0 0.000598694)
(0 0 0.000614944)
(0 0 0.000631136)
(0 0 0.000647268)
(0 0 0.000663336)
(0 0 0.000679339)
(0 0 0.000695274)
(0 0 0.000711137)
(0 0 0.000726927)
(0 0 0.00074264)
(0 0 0.000758273)
(0 0 0.000773825)
(0 0 0.000789291)
(0 0 0.000804668)
(0 0 0.000819954)
(0 0 0.000835146)
(0 0 0.00085024)
(0 0 0.000865232)
(0 0 0.000880121)
(0 0 0.000894902)
(0 0 0.000909572)
(0 0 0.000924129)
(0 0 0.000938567)
(0 0 0.000952884)
(0 0 0.000967077)
(0 0 0.000981142)
(0 0 0.000995076)
(0 0 0.00100887)
(0 0 0.00102253)
(0 0 0.00103605)
(0 0 0.00104942)
(0 0 0.00106265)
(0 0 0.00107572)
(0 0 0.00108863)
(0 0 0.00110139)
(0 0 0.00111398)
(0 0 0.0011264)
(0 0 0.00113865)
(0 0 0.00115073)
(0 0 0.00116263)
(0 0 0.00117436)
(0 0 0.00118589)
(0 0 0.00119724)
(0 0 0.0012084)
(0 0 0.00121936)
(0 0 0.00123013)
(0 0 0.0012407)
(0 0 0.00125106)
(0 0 0.00126122)
(0 0 0.00127117)
(0 0 0.0012809)
(0 0 0.00129042)
(0 0 0.00129972)
(0 0 0.0013088)
(0 0 0.00131766)
(0 0 0.00132629)
(0 0 0.00133469)
(0 0 0.00134286)
(0 0 0.0013508)
(0 0 0.00135851)
(0 0 0.00136597)
(0 0 0.0013732)
(0 0 0.00138019)
(0 0 0.00138693)
(0 0 0.00139343)
(0 0 0.00139968)
(0 0 0.00140569)
(0 0 0.00141145)
(0 0 0.00141695)
(0 0 0.00142221)
(0 0 0.00142721)
(0 0 0.00143195)
(0 0 0.00143645)
(0 0 0.00144069)
(0 0 0.00144467)
(0 0 0.00144839)
(0 0 0.00145186)
(0 0 0.00145507)
(0 0 0.00145802)
(0 0 0.00146072)
(0 0 0.00146315)
(0 0 0.00146533)
(0 0 0.00146725)
(0 0 0.00146891)
(0 0 0.00147032)
(0 0 0.00147146)
(0 0 0.00147235)
(0 0 0.00147298)
(0 0 0.00147336)
(0 0 0.00147348)
(0 0 0.00147334)
(0 0 0.00147295)
(0 0 0.00147231)
(0 0 0.00147142)
(0 0 0.00147027)
(0 0 0.00146887)
(0 0 0.00146722)
(0 0 0.00146533)
(0 0 0.00146319)
(0 0 0.0014608)
(0 0 0.00145817)
(0 0 0.00145529)
(0 0 0.00145218)
(0 0 0.00144882)
(0 0 0.00144522)
(0 0 0.00144139)
(0 0 0.00143732)
(0 0 0.00143302)
(0 0 0.00142849)
(0 0 0.00142372)
(0 0 0.00141873)
(0 0 0.00141351)
(0 0 0.00140806)
(0 0 0.00140239)
(0 0 0.00139651)
(0 0 0.0013904)
(0 0 0.00138407)
(0 0 0.00137753)
(0 0 0.00137078)
(0 0 0.00136381)
(0 0 0.00135664)
(0 0 0.00134926)
(0 0 0.00134168)
(0 0 0.00133389)
(0 0 0.00132591)
(0 0 0.00131773)
(0 0 0.00130935)
(0 0 0.00130078)
(0 0 0.00129202)
(0 0 0.00128307)
(0 0 0.00127394)
(0 0 0.00126462)
(0 0 0.00125512)
(0 0 0.00124545)
(0 0 0.0012356)
(0 0 0.00122558)
(0 0 0.00121538)
(0 0 0.00120502)
(0 0 0.0011945)
(0 0 0.00118381)
(0 0 0.00117296)
(0 0 0.00116196)
(0 0 0.0011508)
(0 0 0.00113949)
(0 0 0.00112803)
(0 0 0.00111642)
(0 0 0.00110467)
(0 0 0.00109278)
(0 0 0.00108075)
(0 0 0.00106859)
(0 0 0.00105629)
(0 0 0.00104386)
(0 0 0.00103131)
(0 0 0.00101863)
(0 0 0.00100583)
(0 0 0.000992912)
(0 0 0.000979877)
(0 0 0.000966728)
(0 0 0.000953468)
(0 0 0.000940099)
(0 0 0.000926625)
(0 0 0.000913048)
(0 0 0.000899371)
(0 0 0.000885596)
(0 0 0.000871725)
(0 0 0.000857762)
(0 0 0.000843708)
(0 0 0.000829567)
(0 0 0.000815341)
(0 0 0.000801032)
(0 0 0.000786643)
(0 0 0.000772175)
(0 0 0.000757632)
(0 0 0.000743016)
(0 0 0.000728328)
(0 0 0.000713572)
(0 0 0.00069875)
(0 0 0.000683863)
(0 0 0.000668914)
(0 0 0.000653905)
(0 0 0.000638838)
(0 0 0.000623715)
(0 0 0.000608538)
(0 0 0.000593309)
(0 0 0.00057803)
(0 0 0.000562703)
(0 0 0.000547329)
(0 0 0.000531911)
(0 0 0.000516451)
(0 0 0.000500949)
(0 0 0.000485408)
(0 0 0.00046983)
(0 0 0.000454215)
(0 0 0.000438567)
(0 0 0.000422885)
(0 0 0.000407172)
(0 0 0.00039143)
(0 0 0.000375659)
(0 0 0.000359861)
(0 0 0.000344037)
(0 0 0.00032819)
(0 0 0.000312319)
(0 0 0.000296428)
(0 0 0.000280515)
(0 0 0.000264584)
(0 0 0.000248635)
(0 0 0.00023267)
(0 0 0.000216689)
(0 0 0.000200694)
(0 0 0.000184686)
(0 0 0.000168666)
(0 0 0.000152635)
(0 0 0.000136594)
(0 0 0.000120544)
(0 0 0.000104487)
(0 0 8.84233e-05)
(0 0 7.23539e-05)
(0 0 5.628e-05)
(0 0 4.02025e-05)
(0 0 2.41225e-05)
(0 0 8.041e-06)
(0 0 2.5694e-05)
(0 0 7.70803e-05)
(0 0 0.000128462)
(0 0 0.000179835)
(0 0 0.000231196)
(0 0 0.000282542)
(0 0 0.000333869)
(0 0 0.000385174)
(0 0 0.000436454)
(0 0 0.000487705)
(0 0 0.000538922)
(0 0 0.000590104)
(0 0 0.000641245)
(0 0 0.000692342)
(0 0 0.00074339)
(0 0 0.000794387)
(0 0 0.000845328)
(0 0 0.000896208)
(0 0 0.000947023)
(0 0 0.000997769)
(0 0 0.00104844)
(0 0 0.00109904)
(0 0 0.00114955)
(0 0 0.00119997)
(0 0 0.0012503)
(0 0 0.00130053)
(0 0 0.00135065)
(0 0 0.00140067)
(0 0 0.00145057)
(0 0 0.00150035)
(0 0 0.00155)
(0 0 0.00159952)
(0 0 0.0016489)
(0 0 0.00169813)
(0 0 0.00174721)
(0 0 0.00179613)
(0 0 0.00184489)
(0 0 0.00189347)
(0 0 0.00194186)
(0 0 0.00199007)
(0 0 0.00203808)
(0 0 0.00208589)
(0 0 0.00213348)
(0 0 0.00218085)
(0 0 0.00222799)
(0 0 0.0022749)
(0 0 0.00232156)
(0 0 0.00236796)
(0 0 0.00241409)
(0 0 0.00245995)
(0 0 0.00250553)
(0 0 0.00255082)
(0 0 0.0025958)
(0 0 0.00264047)
(0 0 0.00268481)
(0 0 0.00272883)
(0 0 0.0027725)
(0 0 0.00281582)
(0 0 0.00285877)
(0 0 0.00290136)
(0 0 0.00294355)
(0 0 0.00298536)
(0 0 0.00302676)
(0 0 0.00306774)
(0 0 0.0031083)
(0 0 0.00314842)
(0 0 0.00318809)
(0 0 0.0032273)
(0 0 0.00326605)
(0 0 0.00330431)
(0 0 0.00334209)
(0 0 0.00337936)
(0 0 0.00341613)
(0 0 0.00345237)
(0 0 0.00348808)
(0 0 0.00352325)
(0 0 0.00355786)
(0 0 0.00359191)
(0 0 0.00362539)
(0 0 0.00365829)
(0 0 0.00369059)
(0 0 0.0037223)
(0 0 0.00375339)
(0 0 0.00378386)
(0 0 0.00381371)
(0 0 0.00384291)
(0 0 0.00387147)
(0 0 0.00389938)
(0 0 0.00392662)
(0 0 0.0039532)
(0 0 0.00397909)
(0 0 0.0040043)
(0 0 0.00402882)
(0 0 0.00405264)
(0 0 0.00407576)
(0 0 0.00409816)
(0 0 0.00411984)
(0 0 0.0041408)
(0 0 0.00416104)
(0 0 0.00418054)
(0 0 0.0041993)
(0 0 0.00421731)
(0 0 0.00423458)
(0 0 0.0042511)
(0 0 0.00426687)
(0 0 0.00428187)
(0 0 0.00429612)
(0 0 0.0043096)
(0 0 0.00432231)
(0 0 0.00433426)
(0 0 0.00434543)
(0 0 0.00435584)
(0 0 0.00436547)
(0 0 0.00437433)
(0 0 0.00438241)
(0 0 0.00438972)
(0 0 0.00439625)
(0 0 0.00440201)
(0 0 0.00440699)
(0 0 0.0044112)
(0 0 0.00441464)
(0 0 0.0044173)
(0 0 0.0044192)
(0 0 0.00442033)
(0 0 0.00442068)
(0 0 0.00442028)
(0 0 0.00441911)
(0 0 0.00441718)
(0 0 0.0044145)
(0 0 0.00441106)
(0 0 0.00440686)
(0 0 0.00440192)
(0 0 0.00439624)
(0 0 0.00438981)
(0 0 0.00438265)
(0 0 0.00437475)
(0 0 0.00436612)
(0 0 0.00435677)
(0 0 0.0043467)
(0 0 0.00433591)
(0 0 0.00432441)
(0 0 0.0043122)
(0 0 0.00429929)
(0 0 0.00428569)
(0 0 0.00427139)
(0 0 0.00425641)
(0 0 0.00424075)
(0 0 0.00422441)
(0 0 0.00420741)
(0 0 0.00418974)
(0 0 0.00417141)
(0 0 0.00415243)
(0 0 0.00413281)
(0 0 0.00411255)
(0 0 0.00409165)
(0 0 0.00407013)
(0 0 0.004048)
(0 0 0.00402524)
(0 0 0.00400189)
(0 0 0.00397793)
(0 0 0.00395338)
(0 0 0.00392824)
(0 0 0.00390253)
(0 0 0.00387625)
(0 0 0.0038494)
(0 0 0.003822)
(0 0 0.00379405)
(0 0 0.00376555)
(0 0 0.00373653)
(0 0 0.00370697)
(0 0 0.0036769)
(0 0 0.00364632)
(0 0 0.00361523)
(0 0 0.00358365)
(0 0 0.00355159)
(0 0 0.00351904)
(0 0 0.00348602)
(0 0 0.00345254)
(0 0 0.00341861)
(0 0 0.00338422)
(0 0 0.0033494)
(0 0 0.00331415)
(0 0 0.00327848)
(0 0 0.00324239)
(0 0 0.00320589)
(0 0 0.003169)
(0 0 0.00313172)
(0 0 0.00309406)
(0 0 0.00305602)
(0 0 0.00301762)
(0 0 0.00297886)
(0 0 0.00293975)
(0 0 0.0029003)
(0 0 0.00286051)
(0 0 0.00282041)
(0 0 0.00277998)
(0 0 0.00273925)
(0 0 0.00269821)
(0 0 0.00265689)
(0 0 0.00261527)
(0 0 0.00257338)
(0 0 0.00253122)
(0 0 0.00248879)
(0 0 0.00244611)
(0 0 0.00240318)
(0 0 0.00236001)
(0 0 0.0023166)
(0 0 0.00227297)
(0 0 0.00222912)
(0 0 0.00218506)
(0 0 0.00214079)
(0 0 0.00209632)
(0 0 0.00205165)
(0 0 0.0020068)
(0 0 0.00196178)
(0 0 0.00191657)
(0 0 0.0018712)
(0 0 0.00182567)
(0 0 0.00177998)
(0 0 0.00173414)
(0 0 0.00168816)
(0 0 0.00164203)
(0 0 0.00159578)
(0 0 0.0015494)
(0 0 0.00150289)
(0 0 0.00145626)
(0 0 0.00140953)
(0 0 0.00136268)
(0 0 0.00131573)
(0 0 0.00126869)
(0 0 0.00122155)
(0 0 0.00117432)
(0 0 0.001127)
(0 0 0.00107961)
(0 0 0.00103214)
(0 0 0.000984594)
(0 0 0.000936981)
(0 0 0.000889304)
(0 0 0.000841567)
(0 0 0.000793772)
(0 0 0.000745924)
(0 0 0.000698026)
(0 0 0.000650082)
(0 0 0.000602096)
(0 0 0.00055407)
(0 0 0.000506009)
(0 0 0.000457914)
(0 0 0.000409791)
(0 0 0.000361641)
(0 0 0.000313468)
(0 0 0.000265276)
(0 0 0.000217067)
(0 0 0.000168844)
(0 0 0.00012061)
(0 0 7.2369e-05)
(0 0 2.41235e-05)
(0 0 4.28252e-05)
(0 0 0.000128473)
(0 0 0.000214112)
(0 0 0.000299737)
(0 0 0.000385343)
(0 0 0.000470923)
(0 0 0.000556473)
(0 0 0.000641985)
(0 0 0.000727456)
(0 0 0.000812877)
(0 0 0.000898244)
(0 0 0.000983551)
(0 0 0.00106879)
(0 0 0.00115396)
(0 0 0.00123904)
(0 0 0.00132404)
(0 0 0.00140895)
(0 0 0.00149375)
(0 0 0.00157845)
(0 0 0.00166303)
(0 0 0.00174749)
(0 0 0.00183182)
(0 0 0.00191601)
(0 0 0.00200005)
(0 0 0.00208394)
(0 0 0.00216766)
(0 0 0.00225121)
(0 0 0.00233458)
(0 0 0.00241775)
(0 0 0.00250072)
(0 0 0.00258349)
(0 0 0.00266602)
(0 0 0.00274833)
(0 0 0.00283039)
(0 0 0.0029122)
(0 0 0.00299374)
(0 0 0.003075)
(0 0 0.00315598)
(0 0 0.00323665)
(0 0 0.003317)
(0 0 0.00339703)
(0 0 0.00347672)
(0 0 0.00355605)
(0 0 0.00363501)
(0 0 0.00371359)
(0 0 0.00379177)
(0 0 0.00386954)
(0 0 0.00394689)
(0 0 0.00402379)
(0 0 0.00410024)
(0 0 0.00417621)
(0 0 0.00425169)
(0 0 0.00432667)
(0 0 0.00440113)
(0 0 0.00447506)
(0 0 0.00454842)
(0 0 0.00462122)
(0 0 0.00469343)
(0 0 0.00476504)
(0 0 0.00483602)
(0 0 0.00490636)
(0 0 0.00497605)
(0 0 0.00504506)
(0 0 0.00511337)
(0 0 0.00518098)
(0 0 0.00524786)
(0 0 0.00531399)
(0 0 0.00537936)
(0 0 0.00544395)
(0 0 0.00550773)
(0 0 0.00557071)
(0 0 0.00563284)
(0 0 0.00569412)
(0 0 0.00575454)
(0 0 0.00581407)
(0 0 0.00587269)
(0 0 0.00593039)
(0 0 0.00598715)
(0 0 0.00604296)
(0 0 0.0060978)
(0 0 0.00615165)
(0 0 0.0062045)
(0 0 0.00625634)
(0 0 0.00630713)
(0 0 0.00635688)
(0 0 0.00640557)
(0 0 0.00645318)
(0 0 0.0064997)
(0 0 0.00654512)
(0 0 0.00658941)
(0 0 0.00663258)
(0 0 0.00667461)
(0 0 0.00671548)
(0 0 0.00675519)
(0 0 0.00679372)
(0 0 0.00683106)
(0 0 0.00686721)
(0 0 0.00690215)
(0 0 0.00693588)
(0 0 0.00696838)
(0 0 0.00699965)
(0 0 0.00702969)
(0 0 0.00705847)
(0 0 0.00708601)
(0 0 0.00711228)
(0 0 0.0071373)
(0 0 0.00716104)
(0 0 0.00718351)
(0 0 0.0072047)
(0 0 0.00722462)
(0 0 0.00724324)
(0 0 0.00726059)
(0 0 0.00727664)
(0 0 0.0072914)
(0 0 0.00730488)
(0 0 0.00731706)
(0 0 0.00732794)
(0 0 0.00733754)
(0 0 0.00734585)
(0 0 0.00735286)
(0 0 0.00735859)
(0 0 0.00736303)
(0 0 0.00736619)
(0 0 0.00736806)
(0 0 0.00736866)
(0 0 0.00736798)
(0 0 0.00736603)
(0 0 0.00736281)
(0 0 0.00735833)
(0 0 0.00735259)
(0 0 0.0073456)
(0 0 0.00733736)
(0 0 0.00732789)
(0 0 0.00731717)
(0 0 0.00730523)
(0 0 0.00729206)
(0 0 0.00727768)
(0 0 0.00726208)
(0 0 0.00724529)
(0 0 0.00722731)
(0 0 0.00720813)
(0 0 0.00718778)
(0 0 0.00716626)
(0 0 0.00714358)
(0 0 0.00711975)
(0 0 0.00709478)
(0 0 0.00706867)
(0 0 0.00704143)
(0 0 0.00701308)
(0 0 0.00698363)
(0 0 0.00695307)
(0 0 0.00692144)
(0 0 0.00688873)
(0 0 0.00685495)
(0 0 0.00682012)
(0 0 0.00678425)
(0 0 0.00674734)
(0 0 0.00670941)
(0 0 0.00667047)
(0 0 0.00663054)
(0 0 0.00658962)
(0 0 0.00654772)
(0 0 0.00650485)
(0 0 0.00646104)
(0 0 0.00641629)
(0 0 0.00637061)
(0 0 0.00632401)
(0 0 0.00627652)
(0 0 0.00622813)
(0 0 0.00617887)
(0 0 0.00612874)
(0 0 0.00607776)
(0 0 0.00602594)
(0 0 0.0059733)
(0 0 0.00591984)
(0 0 0.00586559)
(0 0 0.00581055)
(0 0 0.00575474)
(0 0 0.00569818)
(0 0 0.00564086)
(0 0 0.00558282)
(0 0 0.00552406)
(0 0 0.00546459)
(0 0 0.00540443)
(0 0 0.0053436)
(0 0 0.0052821)
(0 0 0.00521996)
(0 0 0.00515717)
(0 0 0.00509377)
(0 0 0.00502976)
(0 0 0.00496515)
(0 0 0.00489996)
(0 0 0.0048342)
(0 0 0.00476789)
(0 0 0.00470103)
(0 0 0.00463365)
(0 0 0.00456575)
(0 0 0.00449735)
(0 0 0.00442846)
(0 0 0.0043591)
(0 0 0.00428927)
(0 0 0.00421899)
(0 0 0.00414827)
(0 0 0.00407712)
(0 0 0.00400557)
(0 0 0.00393361)
(0 0 0.00386126)
(0 0 0.00378853)
(0 0 0.00371544)
(0 0 0.00364199)
(0 0 0.0035682)
(0 0 0.00349408)
(0 0 0.00341963)
(0 0 0.00334488)
(0 0 0.00326982)
(0 0 0.00319447)
(0 0 0.00311885)
(0 0 0.00304295)
(0 0 0.0029668)
(0 0 0.00289039)
(0 0 0.00281375)
(0 0 0.00273687)
(0 0 0.00265977)
(0 0 0.00258246)
(0 0 0.00250495)
(0 0 0.00242723)
(0 0 0.00234933)
(0 0 0.00227125)
(0 0 0.002193)
(0 0 0.00211459)
(0 0 0.00203601)
(0 0 0.00195729)
(0 0 0.00187843)
(0 0 0.00179943)
(0 0 0.00172031)
(0 0 0.00164107)
(0 0 0.00156171)
(0 0 0.00148224)
(0 0 0.00140267)
(0 0 0.00132301)
(0 0 0.00124326)
(0 0 0.00116343)
(0 0 0.00108352)
(0 0 0.00100354)
(0 0 0.000923491)
(0 0 0.000843384)
(0 0 0.000763223)
(0 0 0.000683014)
(0 0 0.000602761)
(0 0 0.000522469)
(0 0 0.000442145)
(0 0 0.000361793)
(0 0 0.000281418)
(0 0 0.000201025)
(0 0 0.00012062)
(0 0 4.02075e-05)
(0 0 5.99592e-05)
(0 0 0.000179874)
(0 0 0.000299776)
(0 0 0.00041966)
(0 0 0.000539515)
(0 0 0.000659336)
(0 0 0.000779113)
(0 0 0.00089884)
(0 0 0.00101851)
(0 0 0.0011381)
(0 0 0.00125763)
(0 0 0.00137706)
(0 0 0.00149641)
(0 0 0.00161565)
(0 0 0.00173478)
(0 0 0.00185379)
(0 0 0.00197267)
(0 0 0.0020914)
(0 0 0.00220999)
(0 0 0.00232841)
(0 0 0.00244667)
(0 0 0.00256474)
(0 0 0.00268262)
(0 0 0.00280029)
(0 0 0.00291774)
(0 0 0.00303497)
(0 0 0.00315195)
(0 0 0.00326868)
(0 0 0.00338513)
(0 0 0.00350131)
(0 0 0.00361719)
(0 0 0.00373276)
(0 0 0.003848)
(0 0 0.00396291)
(0 0 0.00407745)
(0 0 0.00419163)
(0 0 0.00430541)
(0 0 0.00441879)
(0 0 0.00453175)
(0 0 0.00464426)
(0 0 0.00475632)
(0 0 0.0048679)
(0 0 0.00497898)
(0 0 0.00508955)
(0 0 0.00519958)
(0 0 0.00530906)
(0 0 0.00541796)
(0 0 0.00552626)
(0 0 0.00563395)
(0 0 0.00574099)
(0 0 0.00584738)
(0 0 0.00595308)
(0 0 0.00605807)
(0 0 0.00616234)
(0 0 0.00626586)
(0 0 0.00636859)
(0 0 0.00647053)
(0 0 0.00657165)
(0 0 0.00667192)
(0 0 0.00677132)
(0 0 0.00686983)
(0 0 0.00696741)
(0 0 0.00706405)
(0 0 0.00715972)
(0 0 0.00725439)
(0 0 0.00734805)
(0 0 0.00744066)
(0 0 0.0075322)
(0 0 0.00762265)
(0 0 0.00771197)
(0 0 0.00780016)
(0 0 0.00788717)
(0 0 0.00797299)
(0 0 0.0080576)
(0 0 0.00814096)
(0 0 0.00822305)
(0 0 0.00830386)
(0 0 0.00838335)
(0 0 0.00846151)
(0 0 0.00853831)
(0 0 0.00861372)
(0 0 0.00868773)
(0 0 0.00876032)
(0 0 0.00883146)
(0 0 0.00890113)
(0 0 0.00896931)
(0 0 0.00903598)
(0 0 0.00910113)
(0 0 0.00916473)
(0 0 0.00922676)
(0 0 0.00928721)
(0 0 0.00934607)
(0 0 0.0094033)
(0 0 0.00945891)
(0 0 0.00951287)
(0 0 0.00956516)
(0 0 0.00961578)
(0 0 0.00966471)
(0 0 0.00971194)
(0 0 0.00975746)
(0 0 0.00980125)
(0 0 0.0098433)
(0 0 0.00988362)
(0 0 0.00992217)
(0 0 0.00995897)
(0 0 0.00999399)
(0 0 0.0100272)
(0 0 0.0100587)
(0 0 0.0100884)
(0 0 0.0101163)
(0 0 0.0101423)
(0 0 0.0101666)
(0 0 0.0101891)
(0 0 0.0102098)
(0 0 0.0102286)
(0 0 0.0102457)
(0 0 0.0102609)
(0 0 0.0102744)
(0 0 0.010286)
(0 0 0.0102958)
(0 0 0.0103038)
(0 0 0.01031)
(0 0 0.0103145)
(0 0 0.0103171)
(0 0 0.0103179)
(0 0 0.010317)
(0 0 0.0103142)
(0 0 0.0103097)
(0 0 0.0103034)
(0 0 0.0102954)
(0 0 0.0102856)
(0 0 0.010274)
(0 0 0.0102608)
(0 0 0.0102458)
(0 0 0.010229)
(0 0 0.0102106)
(0 0 0.0101904)
(0 0 0.0101686)
(0 0 0.0101451)
(0 0 0.0101199)
(0 0 0.010093)
(0 0 0.0100645)
(0 0 0.0100344)
(0 0 0.0100026)
(0 0 0.00996925)
(0 0 0.00993427)
(0 0 0.00989771)
(0 0 0.00985956)
(0 0 0.00981986)
(0 0 0.00977861)
(0 0 0.00973582)
(0 0 0.00969152)
(0 0 0.00964571)
(0 0 0.00959841)
(0 0 0.00954963)
(0 0 0.00949939)
(0 0 0.00944771)
(0 0 0.00939459)
(0 0 0.00934006)
(0 0 0.00928414)
(0 0 0.00922683)
(0 0 0.00916815)
(0 0 0.00910813)
(0 0 0.00904677)
(0 0 0.0089841)
(0 0 0.00892013)
(0 0 0.00885488)
(0 0 0.00878837)
(0 0 0.00872061)
(0 0 0.00865162)
(0 0 0.00858142)
(0 0 0.00851004)
(0 0 0.00843747)
(0 0 0.00836376)
(0 0 0.0082889)
(0 0 0.00821293)
(0 0 0.00813586)
(0 0 0.0080577)
(0 0 0.00797849)
(0 0 0.00789823)
(0 0 0.00781695)
(0 0 0.00773466)
(0 0 0.00765139)
(0 0 0.00756715)
(0 0 0.00748197)
(0 0 0.00739585)
(0 0 0.00730883)
(0 0 0.00722092)
(0 0 0.00713213)
(0 0 0.00704249)
(0 0 0.00695202)
(0 0 0.00686074)
(0 0 0.00676866)
(0 0 0.0066758)
(0 0 0.00658218)
(0 0 0.00648783)
(0 0 0.00639275)
(0 0 0.00629697)
(0 0 0.00620051)
(0 0 0.00610338)
(0 0 0.0060056)
(0 0 0.00590719)
(0 0 0.00580817)
(0 0 0.00570855)
(0 0 0.00560836)
(0 0 0.0055076)
(0 0 0.00540629)
(0 0 0.00530446)
(0 0 0.00520211)
(0 0 0.00509927)
(0 0 0.00499595)
(0 0 0.00489216)
(0 0 0.00478792)
(0 0 0.00468325)
(0 0 0.00457815)
(0 0 0.00447265)
(0 0 0.00436676)
(0 0 0.0042605)
(0 0 0.00415387)
(0 0 0.00404689)
(0 0 0.00393957)
(0 0 0.00383193)
(0 0 0.00372398)
(0 0 0.00361573)
(0 0 0.0035072)
(0 0 0.00339839)
(0 0 0.00328932)
(0 0 0.00317999)
(0 0 0.00307043)
(0 0 0.00296064)
(0 0 0.00285063)
(0 0 0.00274041)
(0 0 0.00262999)
(0 0 0.00251939)
(0 0 0.0024086)
(0 0 0.00229765)
(0 0 0.00218654)
(0 0 0.00207528)
(0 0 0.00196388)
(0 0 0.00185234)
(0 0 0.00174068)
(0 0 0.00162891)
(0 0 0.00151703)
(0 0 0.00140504)
(0 0 0.00129297)
(0 0 0.00118081)
(0 0 0.00106858)
(0 0 0.00095628)
(0 0 0.000843919)
(0 0 0.000731503)
(0 0 0.000619042)
(0 0 0.000506542)
(0 0 0.00039401)
(0 0 0.000281453)
(0 0 0.000168879)
(0 0 5.62941e-05)
(0 0 7.70971e-05)
(0 0 0.000231286)
(0 0 0.00038546)
(0 0 0.000539609)
(0 0 0.000693723)
(0 0 0.000847792)
(0 0 0.00100181)
(0 0 0.00115575)
(0 0 0.00130962)
(0 0 0.00146341)
(0 0 0.0016171)
(0 0 0.00177067)
(0 0 0.00192413)
(0 0 0.00207746)
(0 0 0.00223064)
(0 0 0.00238367)
(0 0 0.00253653)
(0 0 0.00268921)
(0 0 0.00284169)
(0 0 0.00299397)
(0 0 0.00314603)
(0 0 0.00329786)
(0 0 0.00344943)
(0 0 0.00360074)
(0 0 0.00375178)
(0 0 0.00390252)
(0 0 0.00405295)
(0 0 0.00420305)
(0 0 0.0043528)
(0 0 0.0045022)
(0 0 0.00465121)
(0 0 0.00479982)
(0 0 0.00494802)
(0 0 0.00509578)
(0 0 0.00524308)
(0 0 0.00538991)
(0 0 0.00553623)
(0 0 0.00568203)
(0 0 0.00582729)
(0 0 0.00597199)
(0 0 0.00611609)
(0 0 0.00625958)
(0 0 0.00640243)
(0 0 0.00654463)
(0 0 0.00668613)
(0 0 0.00682692)
(0 0 0.00696697)
(0 0 0.00710625)
(0 0 0.00724474)
(0 0 0.00738241)
(0 0 0.00751923)
(0 0 0.00765517)
(0 0 0.0077902)
(0 0 0.0079243)
(0 0 0.00805743)
(0 0 0.00818956)
(0 0 0.00832067)
(0 0 0.00845072)
(0 0 0.00857968)
(0 0 0.00870752)
(0 0 0.00883421)
(0 0 0.00895972)
(0 0 0.00908401)
(0 0 0.00920706)
(0 0 0.00932882)
(0 0 0.00944928)
(0 0 0.00956839)
(0 0 0.00968613)
(0 0 0.00980246)
(0 0 0.00991736)
(0 0 0.0100308)
(0 0 0.0101427)
(0 0 0.0102531)
(0 0 0.0103619)
(0 0 0.0104691)
(0 0 0.0105747)
(0 0 0.0106786)
(0 0 0.0107809)
(0 0 0.0108814)
(0 0 0.0109802)
(0 0 0.0110772)
(0 0 0.0111724)
(0 0 0.0112657)
(0 0 0.0113572)
(0 0 0.0114469)
(0 0 0.0115346)
(0 0 0.0116203)
(0 0 0.0117041)
(0 0 0.0117859)
(0 0 0.0118657)
(0 0 0.0119434)
(0 0 0.0120191)
(0 0 0.0120928)
(0 0 0.0121643)
(0 0 0.0122337)
(0 0 0.0123009)
(0 0 0.012366)
(0 0 0.012429)
(0 0 0.0124897)
(0 0 0.0125483)
(0 0 0.0126046)
(0 0 0.0126587)
(0 0 0.0127105)
(0 0 0.0127601)
(0 0 0.0128074)
(0 0 0.0128525)
(0 0 0.0128952)
(0 0 0.0129357)
(0 0 0.0129738)
(0 0 0.0130097)
(0 0 0.0130432)
(0 0 0.0130745)
(0 0 0.0131034)
(0 0 0.01313)
(0 0 0.0131542)
(0 0 0.0131761)
(0 0 0.0131957)
(0 0 0.013213)
(0 0 0.0132279)
(0 0 0.0132406)
(0 0 0.0132509)
(0 0 0.0132589)
(0 0 0.0132645)
(0 0 0.0132679)
(0 0 0.0132689)
(0 0 0.0132677)
(0 0 0.0132642)
(0 0 0.0132584)
(0 0 0.0132503)
(0 0 0.0132399)
(0 0 0.0132273)
(0 0 0.0132125)
(0 0 0.0131954)
(0 0 0.0131761)
(0 0 0.0131545)
(0 0 0.0131308)
(0 0 0.0131049)
(0 0 0.0130768)
(0 0 0.0130465)
(0 0 0.0130141)
(0 0 0.0129796)
(0 0 0.0129429)
(0 0 0.0129042)
(0 0 0.0128633)
(0 0 0.0128204)
(0 0 0.0127754)
(0 0 0.0127283)
(0 0 0.0126793)
(0 0 0.0126282)
(0 0 0.0125751)
(0 0 0.0125201)
(0 0 0.0124631)
(0 0 0.0124042)
(0 0 0.0123433)
(0 0 0.0122806)
(0 0 0.012216)
(0 0 0.0121495)
(0 0 0.0120812)
(0 0 0.012011)
(0 0 0.0119391)
(0 0 0.0118654)
(0 0 0.0117899)
(0 0 0.0117127)
(0 0 0.0116338)
(0 0 0.0115532)
(0 0 0.0114709)
(0 0 0.011387)
(0 0 0.0113015)
(0 0 0.0112143)
(0 0 0.0111256)
(0 0 0.0110353)
(0 0 0.0109435)
(0 0 0.0108502)
(0 0 0.0107553)
(0 0 0.0106591)
(0 0 0.0105614)
(0 0 0.0104622)
(0 0 0.0103617)
(0 0 0.0102598)
(0 0 0.0101566)
(0 0 0.0100521)
(0 0 0.00994626)
(0 0 0.00983916)
(0 0 0.00973082)
(0 0 0.00962126)
(0 0 0.00951051)
(0 0 0.00939859)
(0 0 0.00928553)
(0 0 0.00917134)
(0 0 0.00905606)
(0 0 0.00893971)
(0 0 0.00882231)
(0 0 0.00870389)
(0 0 0.00858447)
(0 0 0.00846407)
(0 0 0.00834273)
(0 0 0.00822046)
(0 0 0.00809728)
(0 0 0.00797323)
(0 0 0.00784832)
(0 0 0.00772257)
(0 0 0.00759602)
(0 0 0.00746867)
(0 0 0.00734056)
(0 0 0.00721171)
(0 0 0.00708213)
(0 0 0.00695185)
(0 0 0.0068209)
(0 0 0.00668928)
(0 0 0.00655703)
(0 0 0.00642416)
(0 0 0.00629069)
(0 0 0.00615664)
(0 0 0.00602203)
(0 0 0.00588689)
(0 0 0.00575122)
(0 0 0.00561506)
(0 0 0.00547841)
(0 0 0.00534129)
(0 0 0.00520372)
(0 0 0.00506572)
(0 0 0.0049273)
(0 0 0.00478849)
(0 0 0.00464929)
(0 0 0.00450973)
(0 0 0.00436981)
(0 0 0.00422955)
(0 0 0.00408898)
(0 0 0.00394809)
(0 0 0.00380691)
(0 0 0.00366545)
(0 0 0.00352372)
(0 0 0.00338174)
(0 0 0.00323952)
(0 0 0.00309707)
(0 0 0.0029544)
(0 0 0.00281152)
(0 0 0.00266846)
(0 0 0.00252521)
(0 0 0.00238179)
(0 0 0.00223822)
(0 0 0.00209449)
(0 0 0.00195063)
(0 0 0.00180664)
(0 0 0.00166253)
(0 0 0.00151832)
(0 0 0.00137401)
(0 0 0.00122961)
(0 0 0.00108513)
(0 0 0.000940584)
(0 0 0.000795978)
(0 0 0.000651323)
(0 0 0.000506626)
(0 0 0.000361898)
(0 0 0.000217148)
(0 0 7.23841e-05)
(0 0 9.424e-05)
(0 0 0.000282714)
(0 0 0.000471169)
(0 0 0.000659594)
(0 0 0.000847977)
(0 0 0.0010363)
(0 0 0.00122456)
(0 0 0.00141274)
(0 0 0.00160083)
(0 0 0.00178881)
(0 0 0.00197667)
(0 0 0.0021644)
(0 0 0.00235199)
(0 0 0.00253941)
(0 0 0.00272666)
(0 0 0.00291371)
(0 0 0.00310057)
(0 0 0.0032872)
(0 0 0.0034736)
(0 0 0.00365975)
(0 0 0.00384563)
(0 0 0.00403122)
(0 0 0.00421651)
(0 0 0.00440148)
(0 0 0.00458611)
(0 0 0.00477038)
(0 0 0.00495427)
(0 0 0.00513776)
(0 0 0.00532083)
(0 0 0.00550346)
(0 0 0.00568563)
(0 0 0.00586731)
(0 0 0.00604848)
(0 0 0.00622911)
(0 0 0.00640919)
(0 0 0.00658868)
(0 0 0.00676757)
(0 0 0.00694582)
(0 0 0.0071234)
(0 0 0.0073003)
(0 0 0.00747647)
(0 0 0.0076519)
(0 0 0.00782655)
(0 0 0.00800039)
(0 0 0.00817339)
(0 0 0.00834552)
(0 0 0.00851675)
(0 0 0.00868704)
(0 0 0.00885636)
(0 0 0.00902468)
(0 0 0.00919196)
(0 0 0.00935817)
(0 0 0.00952327)
(0 0 0.00968723)
(0 0 0.00985001)
(0 0 0.0100116)
(0 0 0.0101719)
(0 0 0.0103309)
(0 0 0.0104886)
(0 0 0.0106449)
(0 0 0.0107998)
(0 0 0.0109532)
(0 0 0.0111052)
(0 0 0.0112557)
(0 0 0.0114046)
(0 0 0.0115519)
(0 0 0.0116975)
(0 0 0.0118415)
(0 0 0.0119837)
(0 0 0.0121242)
(0 0 0.0122629)
(0 0 0.0123998)
(0 0 0.0125347)
(0 0 0.0126678)
(0 0 0.0127989)
(0 0 0.012928)
(0 0 0.0130551)
(0 0 0.0131801)
(0 0 0.0133031)
(0 0 0.0134239)
(0 0 0.0135425)
(0 0 0.0136589)
(0 0 0.013773)
(0 0 0.0138849)
(0 0 0.0139945)
(0 0 0.0141017)
(0 0 0.0142066)
(0 0 0.0143091)
(0 0 0.0144091)
(0 0 0.0145067)
(0 0 0.0146017)
(0 0 0.0146943)
(0 0 0.0147843)
(0 0 0.0148718)
(0 0 0.0149566)
(0 0 0.0150389)
(0 0 0.0151185)
(0 0 0.0151954)
(0 0 0.0152697)
(0 0 0.0153413)
(0 0 0.0154101)
(0 0 0.0154763)
(0 0 0.0155397)
(0 0 0.0156003)
(0 0 0.0156582)
(0 0 0.0157132)
(0 0 0.0157655)
(0 0 0.015815)
(0 0 0.0158616)
(0 0 0.0159055)
(0 0 0.0159465)
(0 0 0.0159846)
(0 0 0.01602)
(0 0 0.0160525)
(0 0 0.0160821)
(0 0 0.0161089)
(0 0 0.0161329)
(0 0 0.016154)
(0 0 0.0161722)
(0 0 0.0161876)
(0 0 0.0162002)
(0 0 0.01621)
(0 0 0.0162169)
(0 0 0.016221)
(0 0 0.0162223)
(0 0 0.0162207)
(0 0 0.0162164)
(0 0 0.0162093)
(0 0 0.0161994)
(0 0 0.0161867)
(0 0 0.0161713)
(0 0 0.0161531)
(0 0 0.0161322)
(0 0 0.0161086)
(0 0 0.0160823)
(0 0 0.0160532)
(0 0 0.0160215)
(0 0 0.0159872)
(0 0 0.0159502)
(0 0 0.0159105)
(0 0 0.0158683)
(0 0 0.0158234)
(0 0 0.015776)
(0 0 0.015726)
(0 0 0.0156735)
(0 0 0.0156185)
(0 0 0.015561)
(0 0 0.015501)
(0 0 0.0154385)
(0 0 0.0153736)
(0 0 0.0153063)
(0 0 0.0152366)
(0 0 0.0151646)
(0 0 0.0150902)
(0 0 0.0150134)
(0 0 0.0149344)
(0 0 0.0148531)
(0 0 0.0147696)
(0 0 0.0146838)
(0 0 0.0145959)
(0 0 0.0145057)
(0 0 0.0144135)
(0 0 0.0143191)
(0 0 0.0142226)
(0 0 0.014124)
(0 0 0.0140234)
(0 0 0.0139208)
(0 0 0.0138162)
(0 0 0.0137096)
(0 0 0.0136011)
(0 0 0.0134907)
(0 0 0.0133784)
(0 0 0.0132643)
(0 0 0.0131484)
(0 0 0.0130307)
(0 0 0.0129112)
(0 0 0.01279)
(0 0 0.0126671)
(0 0 0.0125425)
(0 0 0.0124163)
(0 0 0.0122885)
(0 0 0.0121591)
(0 0 0.0120282)
(0 0 0.0118957)
(0 0 0.0117618)
(0 0 0.0116263)
(0 0 0.0114895)
(0 0 0.0113513)
(0 0 0.0112116)
(0 0 0.0110707)
(0 0 0.0109284)
(0 0 0.0107849)
(0 0 0.0106401)
(0 0 0.0104941)
(0 0 0.0103469)
(0 0 0.0101986)
(0 0 0.0100491)
(0 0 0.00989847)
(0 0 0.0097468)
(0 0 0.00959408)
(0 0 0.00944035)
(0 0 0.00928562)
(0 0 0.00912994)
(0 0 0.00897331)
(0 0 0.00881578)
(0 0 0.00865736)
(0 0 0.00849809)
(0 0 0.00833799)
(0 0 0.00817708)
(0 0 0.0080154)
(0 0 0.00785296)
(0 0 0.00768979)
(0 0 0.00752592)
(0 0 0.00736136)
(0 0 0.00719615)
(0 0 0.0070303)
(0 0 0.00686383)
(0 0 0.00669678)
(0 0 0.00652915)
(0 0 0.00636098)
(0 0 0.00619228)
(0 0 0.00602307)
(0 0 0.00585338)
(0 0 0.00568321)
(0 0 0.0055126)
(0 0 0.00534156)
(0 0 0.00517011)
(0 0 0.00499826)
(0 0 0.00482604)
(0 0 0.00465346)
(0 0 0.00448054)
(0 0 0.00430729)
(0 0 0.00413373)
(0 0 0.00395988)
(0 0 0.00378574)
(0 0 0.00361135)
(0 0 0.0034367)
(0 0 0.00326182)
(0 0 0.00308672)
(0 0 0.00291141)
(0 0 0.0027359)
(0 0 0.00256022)
(0 0 0.00238436)
(0 0 0.00220836)
(0 0 0.0020322)
(0 0 0.00185592)
(0 0 0.00167952)
(0 0 0.00150301)
(0 0 0.00132641)
(0 0 0.00114972)
(0 0 0.000972964)
(0 0 0.000796144)
(0 0 0.000619274)
(0 0 0.000442366)
(0 0 0.000265431)
(0 0 8.84787e-05)
(0 0 0.000111389)
(0 0 0.00033416)
(0 0 0.000556909)
(0 0 0.000779622)
(0 0 0.00100229)
(0 0 0.00122488)
(0 0 0.0014474)
(0 0 0.00166983)
(0 0 0.00189214)
(0 0 0.00211433)
(0 0 0.00233638)
(0 0 0.00255828)
(0 0 0.00278)
(0 0 0.00300153)
(0 0 0.00322286)
(0 0 0.00344397)
(0 0 0.00366483)
(0 0 0.00388544)
(0 0 0.00410577)
(0 0 0.0043258)
(0 0 0.00454551)
(0 0 0.00476489)
(0 0 0.00498391)
(0 0 0.00520256)
(0 0 0.0054208)
(0 0 0.00563862)
(0 0 0.00585599)
(0 0 0.0060729)
(0 0 0.0062893)
(0 0 0.00650519)
(0 0 0.00672053)
(0 0 0.0069353)
(0 0 0.00714946)
(0 0 0.007363)
(0 0 0.00757588)
(0 0 0.00778807)
(0 0 0.00799954)
(0 0 0.00821026)
(0 0 0.0084202)
(0 0 0.00862933)
(0 0 0.00883761)
(0 0 0.009045)
(0 0 0.00925148)
(0 0 0.009457)
(0 0 0.00966153)
(0 0 0.00986503)
(0 0 0.0100675)
(0 0 0.0102688)
(0 0 0.010469)
(0 0 0.010668)
(0 0 0.0108658)
(0 0 0.0110623)
(0 0 0.0112575)
(0 0 0.0114513)
(0 0 0.0116438)
(0 0 0.0118348)
(0 0 0.0120244)
(0 0 0.0122124)
(0 0 0.0123988)
(0 0 0.0125836)
(0 0 0.0127668)
(0 0 0.0129483)
(0 0 0.013128)
(0 0 0.0133059)
(0 0 0.0134819)
(0 0 0.0136561)
(0 0 0.0138283)
(0 0 0.0139985)
(0 0 0.0141667)
(0 0 0.0143329)
(0 0 0.0144969)
(0 0 0.0146587)
(0 0 0.0148183)
(0 0 0.0149757)
(0 0 0.0151307)
(0 0 0.0152834)
(0 0 0.0154337)
(0 0 0.0155815)
(0 0 0.0157269)
(0 0 0.0158697)
(0 0 0.01601)
(0 0 0.0161476)
(0 0 0.0162826)
(0 0 0.0164149)
(0 0 0.0165445)
(0 0 0.0166713)
(0 0 0.0167953)
(0 0 0.0169165)
(0 0 0.0170348)
(0 0 0.0171501)
(0 0 0.0172625)
(0 0 0.017372)
(0 0 0.0174784)
(0 0 0.0175819)
(0 0 0.0176822)
(0 0 0.0177794)
(0 0 0.0178736)
(0 0 0.0179646)
(0 0 0.0180524)
(0 0 0.018137)
(0 0 0.0182184)
(0 0 0.0182966)
(0 0 0.0183716)
(0 0 0.0184433)
(0 0 0.0185117)
(0 0 0.0185768)
(0 0 0.0186386)
(0 0 0.0186971)
(0 0 0.0187522)
(0 0 0.018804)
(0 0 0.0188525)
(0 0 0.0188976)
(0 0 0.0189394)
(0 0 0.0189778)
(0 0 0.0190128)
(0 0 0.0190445)
(0 0 0.0190728)
(0 0 0.0190978)
(0 0 0.0191193)
(0 0 0.0191376)
(0 0 0.0191524)
(0 0 0.0191639)
(0 0 0.0191721)
(0 0 0.0191769)
(0 0 0.0191784)
(0 0 0.0191766)
(0 0 0.0191715)
(0 0 0.019163)
(0 0 0.0191513)
(0 0 0.0191363)
(0 0 0.019118)
(0 0 0.0190965)
(0 0 0.0190718)
(0 0 0.0190438)
(0 0 0.0190127)
(0 0 0.0189783)
(0 0 0.0189408)
(0 0 0.0189002)
(0 0 0.0188564)
(0 0 0.0188095)
(0 0 0.0187595)
(0 0 0.0187065)
(0 0 0.0186504)
(0 0 0.0185913)
(0 0 0.0185292)
(0 0 0.0184641)
(0 0 0.0183961)
(0 0 0.0183251)
(0 0 0.0182513)
(0 0 0.0181745)
(0 0 0.0180949)
(0 0 0.0180125)
(0 0 0.0179273)
(0 0 0.0178393)
(0 0 0.0177486)
(0 0 0.0176551)
(0 0 0.017559)
(0 0 0.0174602)
(0 0 0.0173588)
(0 0 0.0172548)
(0 0 0.0171482)
(0 0 0.0170391)
(0 0 0.0169275)
(0 0 0.0168134)
(0 0 0.0166968)
(0 0 0.0165778)
(0 0 0.0164565)
(0 0 0.0163328)
(0 0 0.0162068)
(0 0 0.0160785)
(0 0 0.015948)
(0 0 0.0158152)
(0 0 0.0156803)
(0 0 0.0155432)
(0 0 0.0154041)
(0 0 0.0152628)
(0 0 0.0151195)
(0 0 0.0149742)
(0 0 0.0148269)
(0 0 0.0146776)
(0 0 0.0145265)
(0 0 0.0143735)
(0 0 0.0142187)
(0 0 0.0140621)
(0 0 0.0139037)
(0 0 0.0137436)
(0 0 0.0135818)
(0 0 0.0134184)
(0 0 0.0132533)
(0 0 0.0130866)
(0 0 0.0129185)
(0 0 0.0127487)
(0 0 0.0125776)
(0 0 0.0124049)
(0 0 0.0122309)
(0 0 0.0120555)
(0 0 0.0118788)
(0 0 0.0117007)
(0 0 0.0115214)
(0 0 0.0113409)
(0 0 0.0111591)
(0 0 0.0109762)