/*--------------------------------*- C++ -*----------------------------------*\
| =========                 |                                                 |
| \\      /  F ield         | OpenFOAM: The Open Source CFD Toolbox           |
|  \\    /   O peration     | Version:  v2012                                 |
|   \\  /    A nd           | Website:  www.openfoam.com                      |
|    \\/     M anipulation  |                                                 |
\*---------------------------------------------------------------------------*/
FoamFile
{
    version     2.0;
    format      ascii;
    class       volScalarField;
    location    "4.6";
    object      Psi_z;
}
// * * * * * * * * * * * * * * * * * * * * * * * * * * * * * * * * * * * * * //

dimensions      [0 2 -1 0 0 0 0];


internalField   nonuniform List<scalar> 
65536
(
9.02804e-06
2.70836e-05
4.51379e-05
6.31901e-05
8.12394e-05
9.92848e-05
0.000117326
0.000135361
0.000153389
0.000171411
0.000189424
0.000207427
0.00022542
0.000243401
0.00026137
0.000279326
0.000297266
0.00031519
0.000333096
0.000350984
0.000368852
0.000386697
0.00040452
0.000422318
0.000440089
0.000457832
0.000475545
0.000493227
0.000510875
0.000528486
0.00054606
0.000563594
0.000581086
0.000598533
0.000615933
0.000633283
0.000650581
0.000667824
0.00068501
0.000702135
0.000719197
0.000736192
0.000753117
0.00076997
0.000786747
0.000803444
0.000820058
0.000836586
0.000853024
0.000869367
0.000885613
0.000901758
0.000917797
0.000933726
0.000949542
0.00096524
0.000980816
0.000996265
0.00101158
0.00102677
0.00104181
0.00105671
0.00107146
0.00108606
0.0011005
0.00111478
0.0011289
0.00114284
0.0011566
0.00117018
0.00118358
0.00119679
0.0012098
0.00122261
0.00123522
0.00124762
0.00125981
0.00127178
0.00128353
0.00129505
0.00130634
0.00131739
0.00132821
0.00133878
0.00134911
0.00135918
0.001369
0.00137857
0.00138787
0.0013969
0.00140567
0.00141416
0.00142238
0.00143033
0.00143799
0.00144537
0.00145246
0.00145927
0.00146578
0.00147201
0.00147794
0.00148358
0.00148891
0.00149396
0.0014987
0.00150314
0.00150728
0.00151112
0.00151466
0.00151789
0.00152083
0.00152346
0.00152578
0.00152781
0.00152954
0.00153096
0.00153209
0.00153291
0.00153344
0.00153367
0.00153361
0.00153325
0.0015326
0.00153167
0.00153044
0.00152893
0.00152713
0.00152506
0.0015227
0.00152007
0.00151717
0.00151399
0.00151055
0.00150684
0.00150286
0.00149863
0.00149414
0.0014894
0.00148441
0.00147918
0.00147369
0.00146797
0.00146202
0.00145583
0.00144941
0.00144276
0.00143589
0.0014288
0.0014215
0.00141399
0.00140626
0.00139833
0.0013902
0.00138188
0.00137336
0.00136464
0.00135575
0.00134666
0.0013374
0.00132797
0.00131836
0.00130858
0.00129863
0.00128852
0.00127826
0.00126783
0.00125726
0.00124654
0.00123567
0.00122466
0.00121351
0.00120222
0.0011908
0.00117925
0.00116758
0.00115578
0.00114386
0.00113183
0.00111968
0.00110741
0.00109504
0.00108256
0.00106998
0.0010573
0.00104452
0.00103165
0.00101868
0.00100563
0.000992481
0.000979251
0.000965939
0.000952546
0.000939076
0.00092553
0.00091191
0.00089822
0.00088446
0.000870634
0.000856743
0.00084279
0.000828775
0.000814702
0.000800573
0.000786388
0.000772151
0.000757862
0.000743524
0.000729138
0.000714706
0.00070023
0.000685711
0.000671151
0.000656551
0.000641913
0.000627238
0.000612528
0.000597784
0.000583008
0.000568201
0.000553363
0.000538497
0.000523603
0.000508683
0.000493738
0.000478769
0.000463777
0.000448762
0.000433727
0.000418673
0.000403599
0.000388507
0.000373398
0.000358273
0.000343133
0.000327978
0.000312809
0.000297628
0.000282434
0.000267229
0.000252014
0.000236788
0.000221553
0.00020631
0.000191059
0.0001758
0.000160535
0.000145264
0.000129987
0.000114706
9.942e-05
8.41307e-05
6.88384e-05
5.35435e-05
3.82468e-05
2.29486e-05
7.64963e-06
2.70844e-05
8.12518e-05
0.000135415
0.000189573
0.000243721
0.000297859
0.000351982
0.000406088
0.000460175
0.000514239
0.000568279
0.00062229
0.00067627
0.000730216
0.000784123
0.00083799
0.000891812
0.000945585
0.000999306
0.00105297
0.00110657
0.00116011
0.00121358
0.00126698
0.00132029
0.00137352
0.00142667
0.00147971
0.00153266
0.00158549
0.00163822
0.00169082
0.0017433
0.00179564
0.00184784
0.0018999
0.00195179
0.00200353
0.00205509
0.00210646
0.00215765
0.00220864
0.00225942
0.00230998
0.00236032
0.00241041
0.00246026
0.00250984
0.00255916
0.00260819
0.00265694
0.00270537
0.00275349
0.00280129
0.00284874
0.00289584
0.00294257
0.00298892
0.00303488
0.00308044
0.00312558
0.00317028
0.00321454
0.00325834
0.00330167
0.00334451
0.00338685
0.00342868
0.00346998
0.00351073
0.00355093
0.00359055
0.00362959
0.00366804
0.00370587
0.00374307
0.00377964
0.00381555
0.0038508
0.00388536
0.00391924
0.00395241
0.00398486
0.00401659
0.00404757
0.0040778
0.00410726
0.00413595
0.00416386
0.00419097
0.00421727
0.00424276
0.00426742
0.00429125
0.00431424
0.00433638
0.00435767
0.00437809
0.00439764
0.00441631
0.00443411
0.00445102
0.00446704
0.00448216
0.00449639
0.00450972
0.00452214
0.00453366
0.00454427
0.00455398
0.00456278
0.00457067
0.00457765
0.00458373
0.0045889
0.00459318
0.00459655
0.00459903
0.00460061
0.00460131
0.00460112
0.00460004
0.0045981
0.00459528
0.00459161
0.00458707
0.00458168
0.00457545
0.00456838
0.00456049
0.00455177
0.00454224
0.0045319
0.00452077
0.00450885
0.00449615
0.00448268
0.00446846
0.00445348
0.00443777
0.00442132
0.00440415
0.00438628
0.0043677
0.00434844
0.0043285
0.00430789
0.00428662
0.00426471
0.00424216
0.00421899
0.0041952
0.00417081
0.00414582
0.00412026
0.00409412
0.00406742
0.00404017
0.00401239
0.00398407
0.00395524
0.00392589
0.00389605
0.00386573
0.00383493
0.00380366
0.00377193
0.00373976
0.00370715
0.00367411
0.00364066
0.0036068
0.00357254
0.00353789
0.00350286
0.00346747
0.00343171
0.0033956
0.00335914
0.00332235
0.00328523
0.0032478
0.00321005
0.00317201
0.00313367
0.00309504
0.00305614
0.00301696
0.00297753
0.00293784
0.0028979
0.00285772
0.0028173
0.00277666
0.0027358
0.00269473
0.00265345
0.00261197
0.00257029
0.00252843
0.00248639
0.00244416
0.00240177
0.00235922
0.0023165
0.00227364
0.00223062
0.00218746
0.00214416
0.00210073
0.00205717
0.00201349
0.00196969
0.00192578
0.00188175
0.00183762
0.00179339
0.00174906
0.00170463
0.00166012
0.00161552
0.00157084
0.00152608
0.00148124
0.00143633
0.00139135
0.00134631
0.0013012
0.00125604
0.00121082
0.00116554
0.00112021
0.00107484
0.00102941
0.000983948
0.000938441
0.000892896
0.000847314
0.000801699
0.000756051
0.000710374
0.000664669
0.000618938
0.000573183
0.000527407
0.000481611
0.000435797
0.000389966
0.000344121
0.000298264
0.000252395
0.000206518
0.000160633
0.000114742
6.88467e-05
2.29492e-05
4.5142e-05
0.000135424
0.000225699
0.000315964
0.000406215
0.000496446
0.000586654
0.000676835
0.000766983
0.000857093
0.000947162
0.00103718
0.00112715
0.00121707
0.00130692
0.0013967
0.00148641
0.00157603
0.00166557
0.00175502
0.00184436
0.0019336
0.00202272
0.00211172
0.00220058
0.00228931
0.00237788
0.0024663
0.00255455
0.00264262
0.0027305
0.00281818
0.00290565
0.00299289
0.0030799
0.00316667
0.00325317
0.0033394
0.00342534
0.00351098
0.00359631
0.0036813
0.00376594
0.00385022
0.00393412
0.00401763
0.00410072
0.00418337
0.00426558
0.00434732
0.00442857
0.00450931
0.00458952
0.00466919
0.00474829
0.0048268
0.0049047
0.00498197
0.00505859
0.00513453
0.00520977
0.0052843
0.00535808
0.0054311
0.00550333
0.00557474
0.00564533
0.00571505
0.00578389
0.00585183
0.00591884
0.0059849
0.00604999
0.00611408
0.00617714
0.00623917
0.00630012
0.00635999
0.00641875
0.00647638
0.00653285
0.00658814
0.00664225
0.00669513
0.00674678
0.00679718
0.0068463
0.00689413
0.00694065
0.00698584
0.00702969
0.00707218
0.00711329
0.00715302
0.00719134
0.00722825
0.00726373
0.00729777
0.00733037
0.0073615
0.00739116
0.00741935
0.00744605
0.00747127
0.00749498
0.00751719
0.0075379
0.0075571
0.00757479
0.00759097
0.00760563
0.00761878
0.00763042
0.00764055
0.00764918
0.00765629
0.00766191
0.00766604
0.00766867
0.00766982
0.0076695
0.00766771
0.00766446
0.00765977
0.00765363
0.00764606
0.00763707
0.00762668
0.00761489
0.00760172
0.00758718
0.00757129
0.00755405
0.00753549
0.00751561
0.00749444
0.00747198
0.00744826
0.00742329
0.00739709
0.00736967
0.00734105
0.00731124
0.00728027
0.00724816
0.00721491
0.00718055
0.00714509
0.00710856
0.00707096
0.00703233
0.00699267
0.006952
0.00691035
0.00686773
0.00682415
0.00677965
0.00673422
0.0066879
0.00664069
0.00659262
0.00654371
0.00649397
0.00644341
0.00639206
0.00633993
0.00628705
0.00623341
0.00617906
0.00612398
0.00606822
0.00601177
0.00595466
0.00589691
0.00583852
0.00577951
0.0057199
0.00565971
0.00559894
0.00553761
0.00547574
0.00541334
0.00535042
0.005287
0.00522309
0.00515871
0.00509386
0.00502857
0.00496283
0.00489667
0.0048301
0.00476312
0.00469576
0.00462802
0.00455991
0.00449145
0.00442264
0.0043535
0.00428403
0.00421425
0.00414417
0.0040738
0.00400314
0.00393221
0.00386101
0.00378956
0.00371786
0.00364592
0.00357375
0.00350136
0.00342876
0.00335595
0.00328295
0.00320975
0.00313637
0.00306281
0.00298909
0.0029152
0.00284115
0.00276696
0.00269262
0.00261815
0.00254354
0.00246881
0.00239396
0.00231899
0.00224392
0.00216874
0.00209346
0.00201809
0.00194262
0.00186707
0.00179144
0.00171574
0.00163996
0.00156411
0.0014882
0.00141223
0.0013362
0.00126012
0.00118399
0.00110781
0.00103159
0.00095533
0.000879034
0.000802705
0.000726346
0.00064996
0.00057355
0.000497119
0.000420669
0.000344205
0.000267728
0.000191241
0.000114747
3.82495e-05
6.32017e-05
0.000189602
0.000315994
0.000442371
0.000568728
0.000695058
0.000821355
0.000947614
0.00107383
0.00119999
0.00132609
0.00145213
0.0015781
0.00170398
0.00182978
0.00195548
0.00208108
0.00220657
0.00233193
0.00245717
0.00258226
0.0027072
0.00283198
0.00295659
0.00308101
0.00320524
0.00332926
0.00345305
0.00357662
0.00369993
0.00382298
0.00394574
0.00406822
0.00419038
0.00431221
0.0044337
0.00455483
0.00467557
0.00479591
0.00491582
0.0050353
0.00515431
0.00527283
0.00539085
0.00550833
0.00562526
0.00574161
0.00585735
0.00597247
0.00608693
0.0062007
0.00631377
0.0064261
0.00653766
0.00664843
0.00675837
0.00686747
0.00697567
0.00708297
0.00718932
0.00729469
0.00739906
0.00750239
0.00760464
0.00770579
0.00780581
0.00790466
0.00800231
0.00809872
0.00819387
0.00828771
0.00838023
0.00847138
0.00856114
0.00864946
0.00873633
0.0088217
0.00890554
0.00898784
0.00906854
0.00914763
0.00922508
0.00930085
0.00937492
0.00944725
0.00951783
0.00958663
0.00965361
0.00971876
0.00978206
0.00984347
0.00990297
0.00996055
0.0100162
0.0100699
0.0101216
0.0101712
0.0102189
0.0102646
0.0103082
0.0103497
0.0103892
0.0104266
0.0104619
0.0104951
0.0105262
0.0105552
0.0105821
0.0106068
0.0106295
0.01065
0.0106684
0.0106847
0.0106989
0.010711
0.0107209
0.0107288
0.0107345
0.0107382
0.0107398
0.0107394
0.0107368
0.0107323
0.0107257
0.0107171
0.0107065
0.0106939
0.0106793
0.0106628
0.0106443
0.010624
0.0106017
0.0105775
0.0105515
0.0105237
0.010494
0.0104625
0.0104293
0.0103943
0.0103576
0.0103192
0.0102791
0.0102374
0.010194
0.010149
0.0101024
0.0100543
0.0100046
0.00995346
0.00990081
0.00984669
0.00979115
0.00973419
0.00967585
0.00961615
0.00955513
0.00949279
0.00942917
0.00936429
0.00929818
0.00923086
0.00916235
0.00909269
0.00902189
0.00894997
0.00887697
0.00880291
0.0087278
0.00865167
0.00857455
0.00849646
0.00841741
0.00833744
0.00825656
0.00817479
0.00809216
0.00800869
0.00792439
0.0078393
0.00775342
0.00766678
0.0075794
0.0074913
0.00740249
0.007313
0.00722284
0.00713204
0.0070406
0.00694856
0.00685592
0.0067627
0.00666892
0.00657459
0.00647974
0.00638437
0.00628851
0.00619216
0.00609535
0.00599808
0.00590038
0.00580225
0.00570371
0.00560478
0.00550546
0.00540577
0.00530573
0.00520534
0.00510461
0.00500357
0.00490221
0.00480055
0.00469861
0.00459639
0.00449391
0.00439116
0.00428817
0.00418495
0.0040815
0.00397783
0.00387395
0.00376986
0.00366559
0.00356114
0.0034565
0.0033517
0.00324674
0.00314163
0.00303637
0.00293098
0.00282545
0.00271979
0.00261402
0.00250813
0.00240213
0.00229604
0.00218985
0.00208357
0.0019772
0.00187075
0.00176424
0.00165765
0.00155099
0.00144428
0.00133751
0.00123069
0.00112383
0.00101692
0.000909977
0.000802999
0.000695991
0.000588958
0.000481904
0.000374832
0.000267747
0.000160652
5.35513e-05
8.12643e-05
0.000243789
0.000406303
0.000568798
0.000731267
0.000893702
0.0010561
0.00121844
0.00138072
0.00154294
0.00170509
0.00186715
0.00202912
0.00219099
0.00235274
0.00251437
0.00267587
0.00283723
0.00299843
0.00315946
0.00332031
0.00348097
0.00364142
0.00380165
0.00396164
0.00412138
0.00428086
0.00444005
0.00459893
0.0047575
0.00491573
0.00507361
0.0052311
0.0053882
0.00554487
0.0057011
0.00585686
0.00601214
0.00616689
0.00632111
0.00647475
0.0066278
0.00678023
0.006932
0.00708309
0.00723347
0.00738311
0.00753197
0.00768002
0.00782722
0.00797355
0.00811897
0.00826344
0.00840693
0.0085494
0.0086908
0.00883112
0.00897029
0.0091083
0.00924508
0.00938062
0.00951486
0.00964776
0.00977929
0.0099094
0.010038
0.0101652
0.0102908
0.0104148
0.0105372
0.0106579
0.0107769
0.0108942
0.0110096
0.0111232
0.011235
0.0113448
0.0114527
0.0115585
0.0116623
0.0117641
0.0118637
0.0119612
0.0120564
0.0121495
0.0122403
0.0123288
0.0124149
0.0124987
0.0125802
0.0126592
0.0127357
0.0128098
0.0128813
0.0129504
0.0130169
0.0130808
0.0131421
0.0132008
0.0132569
0.0133103
0.0133611
0.0134092
0.0134546
0.0134973
0.0135373
0.0135746
0.0136091
0.013641
0.0136701
0.0136965
0.0137202
0.0137411
0.0137593
0.0137748
0.0137876
0.0137977
0.0138051
0.0138098
0.0138119
0.0138113
0.013808
0.0138021
0.0137936
0.0137825
0.0137689
0.0137526
0.0137339
0.0137126
0.0136889
0.0136626
0.013634
0.0136029
0.0135694
0.0135336
0.0134954
0.0134549
0.0134121
0.0133671
0.0133199
0.0132704
0.0132189
0.0131651
0.0131093
0.0130514
0.0129915
0.0129296
0.0128657
0.0127999
0.0127321
0.0126625
0.012591
0.0125178
0.0124427
0.0123659
0.0122874
0.0122072
0.0121254
0.0120419
0.0119569
0.0118703
0.0117822
0.0116925
0.0116015
0.011509
0.0114151
0.0113198
0.0112232
0.0111253
0.0110261
0.0109256
0.010824
0.0107211
0.0106171
0.0105119
0.0104057
0.0102983
0.0101899
0.0100804
0.00996999
0.00985856
0.00974618
0.00963287
0.00951866
0.00940357
0.00928762
0.00917084
0.00905326
0.00893488
0.00881574
0.00869586
0.00857525
0.00845395
0.00833197
0.00820933
0.00808605
0.00796215
0.00783765
0.00771257
0.00758693
0.00746074
0.00733403
0.0072068
0.00707909
0.00695089
0.00682224
0.00669315
0.00656362
0.00643369
0.00630335
0.00617264
0.00604155
0.0059101
0.00577832
0.0056462
0.00551377
0.00538104
0.00524801
0.00511471
0.00498113
0.0048473
0.00471322
0.0045789
0.00444436
0.00430961
0.00417465
0.00403949
0.00390415
0.00376862
0.00363293
0.00349708
0.00336107
0.00322492
0.00308863
0.00295221
0.00281567
0.00267902
0.00254225
0.00240538
0.00226842
0.00213137
0.00199424
0.00185703
0.00171975
0.0015824
0.00144499
0.00130754
0.00117003
0.00103248
0.00089489
0.000757269
0.000619621
0.00048195
0.000344263
0.000206562
6.8855e-05
9.93307e-05
0.000297988
0.000496631
0.000695251
0.00089384
0.00109239
0.00129089
0.00148932
0.00168769
0.00188598
0.00208417
0.00228226
0.00248025
0.0026781
0.00287582
0.0030734
0.00327081
0.00346804
0.00366509
0.00386193
0.00405855
0.00425494
0.00445107
0.00464694
0.00484252
0.00503779
0.00523274
0.00542734
0.00562158
0.00581542
0.00600885
0.00620185
0.00639439
0.00658644
0.00677797
0.00696897
0.00715939
0.00734922
0.00753842
0.00772696
0.0079148
0.00810192
0.00828828
0.00847384
0.00865857
0.00884243
0.00902538
0.00920739
0.00938841
0.0095684
0.00974731
0.00992512
0.0101018
0.0102772
0.0104514
0.0106243
0.0107959
0.0109661
0.0111348
0.0113021
0.0114678
0.011632
0.0117945
0.0119554
0.0121145
0.0122718
0.0124273
0.0125809
0.0127325
0.0128822
0.0130298
0.0131754
0.0133188
0.01346
0.0135989
0.0137356
0.0138699
0.0140018
0.0141312
0.0142582
0.0143826
0.0145045
0.0146237
0.0147402
0.014854
0.014965
0.0150732
0.0151786
0.0152811
0.0153807
0.0154773
0.0155709
0.0156615
0.015749
0.0158334
0.0159147
0.0159929
0.0160679
0.0161397
0.0162082
0.0162736
0.0163356
0.0163945
0.01645
0.0165022
0.0165511
0.0165967
0.0166389
0.0166779
0.0167135
0.0167457
0.0167746
0.0168002
0.0168225
0.0168414
0.0168571
0.0168694
0.0168784
0.0168841
0.0168866
0.0168858
0.0168818
0.0168746
0.0168642
0.0168506
0.0168338
0.016814
0.016791
0.0167649
0.0167358
0.0167037
0.0166686
0.0166306
0.0165896
0.0165458
0.016499
0.0164495
0.0163972
0.0163421
0.0162843
0.0162238
0.0161607
0.016095
0.0160267
0.0159559
0.0158826
0.0158068
0.0157287
0.0156482
0.0155653
0.0154801
0.0153927
0.0153031
0.0152113
0.0151174
0.0150214
0.0149233
0.0148232
0.0147211
0.0146171
0.0145112
0.0144035
0.0142939
0.0141825
0.0140694
0.0139546
0.0138381
0.0137199
0.0136002
0.0134789
0.0133561
0.0132317
0.013106
0.0129788
0.0128502
0.0127202
0.012589
0.0124564
0.0123226
0.0121875
0.0120513
0.0119139
0.0117754
0.0116357
0.011495
0.0113532
0.0112105
0.0110667
0.010922
0.0107763
0.0106297
0.0104823
0.010334
0.0101849
0.0100349
0.00988421
0.00973274
0.00958054
0.00942762
0.00927402
0.00911976
0.00896485
0.00880932
0.00865319
0.00849647
0.0083392
0.00818139
0.00802305
0.00786421
0.00770488
0.00754509
0.00738484
0.00722416
0.00706306
0.00690156
0.00673968
0.00657742
0.00641481
0.00625185
0.00608857
0.00592498
0.00576108
0.0055969
0.00543244
0.00526772
0.00510275
0.00493754
0.0047721
0.00460644
0.00444058
0.00427452
0.00410827
0.00394185
0.00377526
0.00360851
0.00344161
0.00327457
0.0031074
0.00294011
0.0027727
0.00260518
0.00243756
0.00226984
0.00210204
0.00193417
0.00176621
0.0015982
0.00143012
0.00126199
0.00109382
0.000925607
0.00075736
0.000589086
0.000420791
0.00025248
8.41611e-05
0.000117402
0.0003522
0.000586982
0.000821737
0.00105646
0.00129113
0.00152574
0.00176028
0.00199473
0.0022291
0.00246335
0.00269749
0.0029315
0.00316536
0.00339906
0.00363258
0.00386592
0.00409905
0.00433195
0.00456462
0.00479703
0.00502916
0.005261
0.00549252
0.00572371
0.00595453
0.00618497
0.006415
0.00664461
0.00687375
0.00710241
0.00733056
0.00755816
0.00778519
0.00801162
0.0082374
0.00846252
0.00868694
0.00891061
0.00913351
0.00935558
0.0095768
0.00979713
0.0100165
0.0102349
0.0104523
0.0106686
0.0108838
0.0110978
0.0113106
0.0115222
0.0117324
0.0119413
0.0121488
0.0123547
0.0125592
0.0127621
0.0129633
0.0131629
0.0133607
0.0135567
0.0137508
0.013943
0.0141332
0.0143213
0.0145074
0.0146912
0.0148729
0.0150523
0.0152293
0.0154039
0.015576
0.0157456
0.0159125
0.0160769
0.0162385
0.0163973
0.0165533
0.0167064
0.0168566
0.0170038
0.0171479
0.0172888
0.0174266
0.0175612
0.0176926
0.0178206
0.0179452
0.0180664
0.0181842
0.0182984
0.0184091
0.0185163
0.0186198
0.0187196
0.0188158
0.0189082
0.0189969
0.0190818
0.0191628
0.0192401
0.0193135
0.019383
0.0194487
0.0195104
0.0195682
0.0196221
0.0196721
0.0197181
0.0197602
0.0197983
0.0198325
0.0198627
0.019889
0.0199113
0.0199298
0.0199443
0.019955
0.0199617
0.0199646
0.0199636
0.0199588
0.0199502
0.0199379
0.0199218
0.0199019
0.0198784
0.0198512
0.0198203
0.0197859
0.0197478
0.0197063
0.0196613
0.0196128
0.0195608
0.0195056
0.0194469
0.019385
0.0193198
0.0192514
0.0191799
0.0191052
0.0190274
0.0189466
0.0188629
0.0187761
0.0186865
0.0185941
0.0184988
0.0184008
0.0183
0.0181966
0.0180906
0.0179821
0.017871
0.0177574
0.0176414
0.017523
0.0174023
0.0172793
0.017154
0.0170266
0.016897
0.0167653
0.0166315
0.0164957
0.0163579
0.0162182
0.0160766
0.0159332
0.015788
0.015641
0.0154922
0.0153418
0.0151898
0.0150361
0.0148809
0.0147242
0.0145659
0.0144063
0.0142452
0.0140827
0.0139189
0.0137538
0.0135875
0.0134199
0.0132511
0.0130811
0.01291
0.0127378
0.0125645
0.0123902
0.0122149
0.0120386
0.0118613
0.0116831
0.0115041
0.0113241
0.0111434
0.0109618
0.0107794
0.0105963
0.0104124
0.0102279
0.0100426
0.0098567
0.00967015
0.00948298
0.00929521
0.00910688
0.00891799
0.00872856
0.00853863
0.0083482
0.0081573
0.00796595
0.00777416
0.00758194
0.00738933
0.00719633
0.00700296
0.00680923
0.00661517
0.00642078
0.00622608
0.00603109
0.00583581
0.00564027
0.00544446
0.00524842
0.00505214
0.00485565
0.00465894
0.00446204
0.00426496
0.00406769
0.00387026
0.00367268
0.00347495
0.00327708
0.00307908
0.00288097
0.00268275
0.00248442
0.002286
0.0020875
0.00188892
0.00169027
0.00149156
0.00129279
0.00109398
0.000895126
0.000696242
0.000497334
0.000298407
9.94702e-05
0.000135478
0.000406427
0.000677359
0.00094826
0.00121912
0.00148992
0.00176066
0.00203131
0.00230187
0.00257233
0.00284266
0.00311285
0.00338289
0.00365277
0.00392246
0.00419196
0.00446123
0.00473027
0.00499906
0.00526757
0.00553579
0.00580369
0.00607125
0.00633844
0.00660525
0.00687165
0.00713761
0.0074031
0.0076681
0.00793257
0.00819648
0.0084598
0.00872251
0.00898455
0.0092459
0.00950651
0.00976636
0.0100254
0.0102836
0.0105409
0.0107972
0.0110526
0.0113069
0.0115602
0.0118123
0.0120632
0.012313
0.0125614
0.0128085
0.0130542
0.0132984
0.0135411
0.0137823
0.0140218
0.0142596
0.0144957
0.0147299
0.0149622
0.0151927
0.015421
0.0156473
0.0158715
0.0160934
0.016313
0.0165303
0.0167451
0.0169575
0.0171672
0.0173743
0.0175787
0.0177803
0.0179791
0.0181749
0.0183678
0.0185576
0.0187442
0.0189276
0.0191078
0.0192846
0.019458
0.019628
0.0197944
0.0199572
0.0201163
0.0202718
0.0204234
0.0205713
0.0207152
0.0208552
0.0209912
0.0211231
0.021251
0.0213747
0.0214942
0.0216095
0.0217205
0.0218272
0.0219296
0.0220277
0.0221213
0.0222105
0.0222952
0.0223755
0.0224513
0.0225225
0.0225893
0.0226515
0.0227092
0.0227623
0.0228108
0.0228548
0.0228942
0.0229291
0.0229594
0.0229852
0.0230064
0.0230232
0.0230354
0.0230431
0.0230464
0.0230453
0.0230397
0.0230297
0.0230153
0.0229967
0.0229737
0.0229464
0.022915
0.0228793
0.0228394
0.0227955
0.0227474
0.0226954
0.0226393
0.0225793
0.0225154
0.0224476
0.0223761
0.0223007
0.0222217
0.022139
0.0220527
0.0219629
0.0218695
0.0217728
0.0216726
0.021569
0.0214622
0.0213522
0.0212389
0.0211226
0.0210032
0.0208807
0.0207553
0.020627
0.0204958
0.0203619
0.0202251
0.0200857
0.0199437
0.019799
0.0196518
0.0195022
0.0193501
0.0191956
0.0190388
0.0188797
0.0187184
0.0185549
0.0183893
0.0182216
0.0180519
0.0178802
0.0177065
0.017531
0.0173536
0.0171744
0.0169934
0.0168108
0.0166264
0.0164405
0.0162529
0.0160638
0.0158732
0.0156812
0.0154877
0.0152928
0.0150966
0.0148991
0.0147003
0.0145003
0.0142991
0.0140967
0.0138932
0.0136886
0.0134829
0.0132762
0.0130686
0.0128599
0.0126503
0.0124398
0.0122285
0.0120163
0.0118032
0.0115894
0.0113748
0.0111595
0.0109435
0.0107268
0.0105094
0.0102914
0.0100728
0.00985359
0.00963382
0.0094135
0.00919266
0.00897131
0.00874948
0.00852719
0.00830445
0.00808129
0.00785772
0.00763376
0.00740943
0.00718474
0.00695971
0.00673435
0.00650869
0.00628273
0.00605649
0.00582999
0.00560323
0.00537624
0.00514901
0.00492158
0.00469394
0.00446611
0.0042381
0.00400992
0.00378159
0.00355311
0.00332449
0.00309575
0.00286689
0.00263793
0.00240886
0.00217971
0.00195048
0.00172117
0.00149181
0.00126239
0.00103292
0.000803424
0.000573894
0.000344345
0.000114783
0.00015356
0.000460674
0.000767767
0.00107483
0.00138184
0.00168879
0.00199566
0.00230244
0.00260912
0.00291568
0.0032221
0.00352836
0.00383446
0.00414037
0.00444607
0.00475155
0.00505679
0.00536176
0.00566644
0.00597082
0.00627486
0.00657855
0.00688185
0.00718475
0.00748722
0.00778921
0.00809072
0.0083917
0.00869212
0.00899194
0.00929114
0.00958968
0.00988751
0.0101846
0.0104809
0.0107764
0.011071
0.0113647
0.0116574
0.0119492
0.0122398
0.0125294
0.0128178
0.013105
0.0133909
0.0136754
0.0139586
0.0142403
0.0145205
0.0147991
0.0150761
0.0153514
0.0156248
0.0158965
0.0161662
0.0164339
0.0166996
0.0169631
0.0172245
0.0174835
0.0177402
0.0179944
0.0182461
0.0184952
0.0187417
0.0189854
0.0192262
0.0194642
0.0196991
0.019931
0.0201597
0.0203852
0.0206073
0.0208261
0.0210414
0.0212531
0.0214612
0.0216656
0.0218662
0.0220629
0.0222557
0.0224445
0.0226292
0.0228098
0.0229861
0.0231581
0.0233258
0.0234891
0.0236479
0.0238022
0.0239519
0.0240969
0.0242373
0.0243728
0.0245036
0.0246296
0.0247506
0.0248668
0.024978
0.0250842
0.0251853
0.0252814
0.0253725
0.0254584
0.0255392
0.0256149
0.0256854
0.0257508
0.025811
0.025866
0.0259159
0.0259605
0.026
0.0260344
0.0260636
0.0260876
0.0261065
0.0261203
0.026129
0.0261327
0.0261313
0.0261249
0.0261135
0.0260972
0.0260759
0.0260497
0.0260188
0.025983
0.0259424
0.0258971
0.0258472
0.0257926
0.0257335
0.0256698
0.0256017
0.0255291
0.0254521
0.0253709
0.0252854
0.0251957
0.0251018
0.0250038
0.0249019
0.0247959
0.0246861
0.0245724
0.0244549
0.0243336
0.0242088
0.0240803
0.0239482
0.0238127
0.0236738
0.0235315
0.0233859
0.0232371
0.0230851
0.02293
0.0227718
0.0226107
0.0224466
0.0222796
0.0221098
0.0219373
0.0217621
0.0215842
0.0214038
0.0212208
0.0210354
0.0208475
0.0206573
0.0204648
0.0202701
0.0200731
0.019874
0.0196728
0.0194696
0.0192644
0.0190573
0.0188482
0.0186373
0.0184246
0.0182102
0.0179941
0.0177763
0.0175569
0.0173359
0.0171135
0.0168895
0.0166641
0.0164373
0.0162092
0.0159797
0.0157489
0.015517
0.0152838
0.0150494
0.014814
0.0145774
0.0143398
0.0141011
0.0138615
0.0136209
0.0133794
0.013137
0.0128937
0.0126496
0.0124047
0.012159
0.0119126
0.0116655
0.0114176
0.0111691
0.01092
0.0106702
0.0104199
0.010169
0.00991749
0.0096655
0.00941301
0.00916003
0.0089066
0.00865273
0.00839843
0.00814374
0.00788865
0.00763321
0.00737741
0.00712128
0.00686483
0.00660809
0.00635106
0.00609376
0.0058362
0.0055784
0.00532037
0.00506213
0.00480369
0.00454506
0.00428625
0.00402727
0.00376814
0.00350887
0.00324947
0.00298995
0.00273031
0.00247058
0.00221075
0.00195085
0.00169088
0.00143084
0.00117076
0.000910634
0.000650476
0.000390294
0.0001301
0.000171649
0.00051494
0.000858209
0.00120144
0.00154462
0.00188773
0.00223075
0.00257368
0.00291649
0.00325916
0.00360169
0.00394404
0.00428621
0.00462817
0.00496991
0.00531139
0.00565261
0.00599353
0.00633413
0.0066744
0.00701429
0.00735379
0.00769287
0.0080315
0.00836964
0.00870727
0.00904435
0.00938085
0.00971673
0.0100519
0.0103865
0.0107203
0.0110533
0.0113854
0.0117168
0.0120472
0.0123766
0.012705
0.0130323
0.0133585
0.0136836
0.0140074
0.0143299
0.014651
0.0149708
0.015289
0.0156057
0.0159207
0.0162341
0.0165457
0.0168555
0.0171634
0.0174693
0.0177731
0.0180748
0.0183743
0.0186714
0.0189662
0.0192585
0.0195483
0.0198354
0.0201199
0.0204014
0.0206801
0.0209558
0.0212285
0.0214979
0.0217641
0.022027
0.0222864
0.0225423
0.0227946
0.0230431
0.0232879
0.0235288
0.0237656
0.0239985
0.0242272
0.0244516
0.0246717
0.0248875
0.0250987
0.0253054
0.0255074
0.0257047
0.0258972
0.0260848
0.0262675
0.0264452
0.0266178
0.0267853
0.0269476
0.0271046
0.0272563
0.0274026
0.0275435
0.027679
0.0278089
0.0279333
0.0280521
0.0281652
0.0282727
0.0283745
0.0284706
0.028561
0.0286457
0.0287245
0.0287976
0.0288649
0.0289264
0.0289821
0.029032
0.0290761
0.0291145
0.0291471
0.0291739
0.029195
0.0292103
0.02922
0.029224
0.0292224
0.0292151
0.0292023
0.0291839
0.02916
0.0291306
0.0290959
0.0290557
0.0290103
0.0289595
0.0289035
0.0288424
0.0287761
0.0287048
0.0286284
0.0285472
0.028461
0.02837
0.0282742
0.0281737
0.0280686
0.027959
0.0278448
0.0277262
0.0276032
0.0274759
0.0273444
0.0272087
0.0270689
0.0269251
0.0267773
0.0266257
0.0264702
0.026311
0.026148
0.0259815
0.0258114
0.0256379
0.0254609
0.0252806
0.025097
0.0249102
0.0247202
0.0245272
0.0243312
0.0241322
0.0239304
0.0237257
0.0235182
0.0233081
0.0230953
0.02288
0.0226622
0.0224419
0.0222192
0.0219942
0.0217669
0.0215373
0.0213056
0.0210718
0.020836
0.0205981
0.0203583
0.0201166
0.019873
0.0196277
0.0193806
0.0191318
0.0188813
0.0186293
0.0183757
0.0181205
0.0178639
0.0176059
0.0173465
0.0170858
0.0168237
0.0165604
0.0162959
0.0160302
0.0157634
0.0154955
0.0152265
0.0149564
0.0146854
0.0144134
0.0141405
0.0138667
0.013592
0.0133165
0.0130402
0.0127631
0.0124853
0.0122068
0.0119275
0.0116477
0.0113671
0.011086
0.0108043
0.010522
0.0102392
0.00995592
0.00967211
0.00938784
0.00910312
0.00881797
0.00853241
0.00824646
0.00796014
0.00767347
0.00738647
0.00709915
0.00681153
0.00652363
0.00623545
0.00594703
0.00565836
0.00536947
0.00508037
0.00479107
0.00450159
0.00421194
0.00392212
0.00363217
0.00334208
0.00305186
0.00276154
0.00247111
0.0021806
0.00189001
0.00159935
0.00130864
0.00101788
0.00072708
0.000436258
0.000145421
0.000189746
0.00056923
0.000948689
0.00132811
0.00170747
0.00208675
0.00246595
0.00284503
0.00322399
0.0036028
0.00398145
0.00435992
0.00473817
0.00511621
0.00549399
0.0058715
0.00624872
0.00662562
0.00700217
0.00737834
0.00775412
0.00812946
0.00850434
0.00887873
0.00925259
0.00962588
0.00999857
0.0103706
0.010742
0.0111127
0.0114825
0.0118516
0.0122198
0.0125872
0.0129535
0.0133189
0.0136832
0.0140463
0.0144083
0.0147691
0.0151286
0.0154867
0.0158433
0.0161985
0.0165521
0.0169041
0.0172544
0.0176029
0.0179495
0.0182942
0.0186368
0.0189774
0.0193158
0.0196519
0.0199856
0.0203169
0.0206457
0.0209718
0.0212952
0.0216158
0.0219335
0.0222481
0.0225597
0.022868
0.0231731
0.0234747
0.0237729
0.0240674
0.0243583
0.0246454
0.0249285
0.0252077
0.0254827
0.0257536
0.0260201
0.0262823
0.0265399
0.026793
0.0270414
0.027285
0.0275237
0.0277575
0.0279862
0.0282098
0.0284281
0.0286412
0.0288488
0.029051
0.0292476
0.0294386
0.0296239
0.0298035
0.0299773
0.0301451
0.030307
0.0304629
0.0306128
0.0307566
0.0308942
0.0310256
0.0311508
0.0312697
0.0313823
0.0314886
0.0315886
0.0316822
0.0317694
0.0318502
0.0319246
0.0319926
0.0320541
0.0321093
0.032158
0.0322004
0.0322364
0.0322659
0.0322892
0.0323061
0.0323167
0.032321
0.032319
0.0323109
0.0322966
0.0322761
0.0322496
0.032217
0.0321784
0.0321338
0.0320834
0.0320271
0.0319651
0.0318973
0.0318238
0.0317448
0.0316602
0.0315701
0.0314746
0.0313738
0.0312677
0.0311565
0.0310401
0.0309186
0.0307922
0.0306608
0.0305247
0.0303837
0.0302381
0.0300879
0.0299331
0.0297739
0.0296104
0.0294425
0.0292704
0.0290941
0.0289138
0.0287295
0.0285412
0.0283492
0.0281533
0.0279538
0.0277506
0.0275439
0.0273337
0.0271201
0.0269032
0.0266831
0.0264597
0.0262333
0.0260038
0.0257713
0.0255359
0.0252977
0.0250567
0.024813
0.0245667
0.0243177
0.0240663
0.0238124
0.0235561
0.0232975
0.0230366
0.0227735
0.0225083
0.022241
0.0219716
0.0217002
0.0214269
0.0211518
0.0208748
0.020596
0.0203155
0.0200334
0.0197496
0.0194643
0.0191774
0.0188891
0.0185993
0.0183082
0.0180157
0.0177219
0.0174268