/*--------------------------------*- C++ -*----------------------------------*\
| =========                 |                                                 |
| \\      /  F ield         | OpenFOAM: The Open Source CFD Toolbox           |
|  \\    /   O peration     | Version:  v2012                                 |
|   \\  /    A nd           | Website:  www.openfoam.com                      |
|    \\/     M anipulation  |                                                 |
\*---------------------------------------------------------------------------*/
FoamFile
{
    version     2.0;
    format      ascii;
    class       surfaceScalarField;
    location    "12";
    object      phi;
}
// * * * * * * * * * * * * * * * * * * * * * * * * * * * * * * * * * * * * * //

dimensions      [0 3 -1 0 0 0 0];
oriented        oriented;


internalField   nonuniform List<scalar> 
130560
(
3.58863e-06
-3.58863e-06
7.17742e-06
-3.58879e-06
1.07665e-05
-3.5891e-06
1.43561e-05
-3.58956e-06
1.79462e-05
-3.59017e-06
2.15372e-05
-3.59094e-06
2.5129e-05
-3.59184e-06
2.87219e-05
-3.59289e-06
3.2316e-05
-3.59408e-06
3.59114e-05
-3.59539e-06
3.95082e-05
-3.59683e-06
4.31066e-05
-3.59838e-06
4.67066e-05
-3.60005e-06
5.03085e-05
-3.60182e-06
5.39121e-05
-3.60368e-06
5.75178e-05
-3.60562e-06
6.11254e-05
-3.60763e-06
6.47351e-05
-3.6097e-06
6.83469e-05
-3.61183e-06
7.19609e-05
-3.61398e-06
7.55771e-05
-3.61616e-06
7.91954e-05
-3.61835e-06
8.28159e-05
-3.62053e-06
8.64386e-05
-3.62269e-06
9.00634e-05
-3.6248e-06
9.36903e-05
-3.62686e-06
9.73191e-05
-3.62885e-06
0.00010095
-3.63074e-06
0.000104582
-3.63252e-06
0.000108217
-3.63416e-06
0.000111852
-3.63564e-06
0.000115489
-3.63695e-06
0.000119127
-3.63805e-06
0.000122766
-3.63894e-06
0.000126406
-3.63957e-06
0.000130046
-3.63993e-06
0.000133686
-3.63998e-06
0.000137325
-3.63971e-06
0.000140964
-3.63909e-06
0.000144602
-3.63808e-06
0.000148239
-3.63666e-06
0.000151874
-3.6348e-06
0.000155506
-3.63247e-06
0.000159136
-3.62964e-06
0.000162762
-3.62627e-06
0.000166385
-3.62233e-06
0.000170002
-3.6178e-06
0.000173615
-3.61264e-06
0.000177222
-3.60681e-06
0.000180822
-3.60029e-06
0.000184415
-3.59303e-06
0.000188
-3.585e-06
0.000191576
-3.57617e-06
0.000195143
-3.56651e-06
0.000198699
-3.55597e-06
0.000202243
-3.54453e-06
0.000205776
-3.53215e-06
0.000209294
-3.51878e-06
0.000212799
-3.50441e-06
0.000216288
-3.48899e-06
0.00021976
-3.47249e-06
0.000223215
-3.45487e-06
0.000226651
-3.4361e-06
0.000230067
-3.41616e-06
0.000233462
-3.395e-06
0.000236835
-3.3726e-06
0.000240184
-3.34892e-06
0.000243508
-3.32395e-06
0.000246805
-3.29764e-06
0.000250075
-3.26997e-06
0.000253316
-3.24091e-06
0.000256527
-3.21045e-06
0.000259705
-3.17856e-06
0.000262851
-3.14522e-06
0.000265961
-3.1104e-06
0.000269035
-3.0741e-06
0.000272071
-3.03629e-06
0.000275068
-2.99696e-06
0.000278024
-2.95611e-06
0.000280938
-2.91371e-06
0.000283808
-2.86978e-06
0.000286632
-2.82429e-06
0.000289409
-2.77725e-06
0.000292138
-2.72866e-06
0.000294817
-2.67853e-06
0.000297444
-2.62685e-06
0.000300017
-2.57365e-06
0.000302536
-2.51892e-06
0.000304999
-2.46268e-06
0.000307404
-2.40496e-06
0.000309749
-2.34577e-06
0.000312035
-2.28513e-06
0.000314258
-2.22306e-06
0.000316417
-2.15961e-06
0.000318512
-2.0948e-06
0.000320541
-2.02866e-06
0.000322502
-1.96123e-06
0.000324395
-1.89255e-06
0.000326217
-1.82266e-06
0.000327969
-1.7516e-06
0.000329648
-1.67944e-06
0.000331254
-1.6062e-06
0.000332786
-1.53195e-06
0.000334243
-1.45674e-06
0.000335624
-1.38063e-06
0.000336927
-1.30367e-06
0.000338153
-1.22592e-06
0.000339301
-1.14745e-06
0.000340369
-1.06831e-06
0.000341358
-9.88581e-07
0.000342266
-9.08317e-07
0.000343094
-8.27588e-07
0.00034384
-7.46461e-07
0.000344505
-6.65005e-07
0.000345088
-5.83287e-07
0.00034559
-5.01377e-07
0.000346009
-4.19343e-07
0.000346346
-3.37256e-07
0.000346601
-2.55184e-07
0.000346775
-1.73196e-07
0.000346866
-9.13589e-08
0.000346876
-9.74143e-09
0.000346804
7.15903e-08
0.000346652
1.52571e-07
0.000346418
2.33135e-07
0.000346105
3.13221e-07
0.000345712
3.92766e-07
0.000345241
4.7171e-07
0.000344691
5.49994e-07
0.000344063
6.27562e-07
0.000343359
7.0436e-07
0.000342579
7.80333e-07
0.000341723
8.55433e-07
0.000340793
9.29609e-07
0.000339791
1.00282e-06
0.000338716
1.07501e-06
0.00033757
1.14615e-06
0.000336353
1.21619e-06
0.000335068
1.2851e-06
0.000333715
1.35285e-06
0.000332296
1.4194e-06
0.000330811
1.48472e-06
0.000329262
1.54879e-06
0.000327651
1.61158e-06
0.000325978
1.67307e-06
0.000324245
1.73323e-06
0.000322453
1.79206e-06
0.000320603
1.84954e-06
0.000318697
1.90566e-06
0.000316737
1.9604e-06
0.000314723
2.01376e-06
0.000312657
2.06572e-06
0.000310541
2.1163e-06
0.000308376
2.16548e-06
0.000306162
2.21327e-06
0.000303903
2.25967e-06
0.000301598
2.30469e-06
0.00029925
2.34832e-06
0.000296859
2.39058e-06
0.000294428
2.43147e-06
0.000291957
2.47102e-06
0.000289447
2.50922e-06
0.000286901
2.5461e-06
0.00028432
2.58166e-06
0.000281704
2.61593e-06
0.000279055
2.64892e-06
0.000276374
2.68065e-06
0.000273663
2.71114e-06
0.000270923
2.74041e-06
0.000268154
2.76849e-06
0.000265359
2.79538e-06
0.000262538
2.82112e-06
0.000259692
2.84573e-06
0.000256823
2.86924e-06
0.000253931
2.89166e-06
0.000251018
2.91302e-06
0.000248085
2.93335e-06
0.000245132
2.95267e-06
0.000242161
2.97101e-06
0.000239173
2.98839e-06
0.000236168
3.00484e-06
0.000233147
3.02039e-06
0.000230112
3.03505e-06
0.000227063
3.04887e-06
0.000224002
3.06186e-06
0.000220927
3.07405e-06
0.000217842
3.08546e-06
0.000214746
3.09613e-06
0.00021164
3.10608e-06
0.000208525
3.11532e-06
0.000205401
3.1239e-06
0.000202269
3.13182e-06
0.00019913
3.13912e-06
0.000195984
3.14583e-06
0.000192832
3.15196e-06
0.000189674
3.15754e-06
0.000186512
3.16259e-06
0.000183345
3.16713e-06
0.000180173
3.17119e-06
0.000176999
3.1748e-06
0.000173821
3.17796e-06
0.00017064
3.18071e-06
0.000167457
3.18305e-06
0.000164272
3.18503e-06
0.000161085
3.18664e-06
0.000157897
3.18792e-06
0.000154708
3.18888e-06
0.000151519
3.18954e-06
0.000148329
3.18992e-06
0.000145139
3.19004e-06
0.000141949
3.18991e-06
0.000138759
3.18955e-06
0.00013557
3.18898e-06
0.000132382
3.18821e-06
0.000129195
3.18726e-06
0.000126009
3.18614e-06
0.000122824
3.18487e-06
0.000119641
3.18346e-06
0.000116459
3.18193e-06
0.000113278
3.18028e-06
0.0001101
3.17854e-06
0.000106923
3.17671e-06
0.000103748
3.1748e-06
0.000100575
3.17284e-06
9.74046e-05
3.17082e-06
9.42359e-05
3.16876e-06
9.10692e-05
3.16667e-06
8.79046e-05
3.16456e-06
8.47422e-05
3.16244e-06
8.15819e-05
3.16031e-06
7.84237e-05
3.15819e-06
7.52676e-05
3.15609e-06
7.21136e-05
3.15401e-06
6.89616e-05
3.15196e-06
6.58117e-05
3.14995e-06
6.26637e-05
3.14799e-06
5.95176e-05
3.14607e-06
5.63734e-05
3.14422e-06
5.3231e-05
3.14243e-06
5.00903e-05
3.14071e-06
4.69512e-05
3.13906e-06
4.38137e-05
3.13749e-06
4.06777e-05
3.13601e-06
3.75431e-05
3.13461e-06
3.44098e-05
3.13331e-06
3.12777e-05
3.1321e-06
2.81467e-05
3.13099e-06
2.50167e-05
3.12999e-06
2.18876e-05
3.12909e-06
1.87593e-05
3.12829e-06
1.56317e-05
3.12761e-06
1.25047e-05
3.12704e-06
9.37812e-06
3.12658e-06
6.25189e-06
3.12623e-06
3.12589e-06
3.126e-06
3.12589e-06
3.58848e-06
-7.17711e-06
7.17711e-06
-7.17742e-06
1.07661e-05
-7.17804e-06
1.43555e-05
-7.17897e-06
1.79455e-05
-7.1802e-06
2.15363e-05
-7.18173e-06
2.5128e-05
-7.18355e-06
2.87208e-05
-7.18565e-06
3.23147e-05
-7.18802e-06
3.591e-05
-7.19066e-06
3.95067e-05
-7.19354e-06
4.3105e-05
-7.19666e-06
4.67049e-05
-7.2e-06
5.03066e-05
-7.20354e-06
5.39102e-05
-7.20727e-06
5.75158e-05
-7.21116e-06
6.11233e-05
-7.2152e-06
6.4733e-05
-7.21936e-06
6.83448e-05
-7.22362e-06
7.19588e-05
-7.22795e-06
7.55749e-05
-7.23232e-06
7.91933e-05
-7.23671e-06
8.28138e-05
-7.24108e-06
8.64366e-05
-7.24542e-06
9.00614e-05
-7.24967e-06
9.36884e-05
-7.25381e-06
9.73173e-05
-7.25779e-06
0.000100948
-7.26159e-06
0.000104581
-7.26517e-06
0.000108215
-7.26847e-06
0.000111851
-7.27146e-06
0.000115488
-7.2741e-06
0.000119126
-7.27634e-06
0.000122766
-7.27812e-06
0.000126405
-7.27941e-06
0.000130046
-7.28015e-06
0.000133686
-7.28029e-06
0.000137326
-7.27978e-06
0.000140965
-7.27856e-06
0.000144604
-7.27657e-06
0.000148241
-7.27376e-06
0.000151876
-7.27007e-06
0.000155509
-7.26544e-06
0.000159139
-7.2598e-06
0.000162766
-7.2531e-06
0.000166389
-7.24527e-06
0.000170008
-7.23624e-06
0.000173621
-7.22594e-06
0.000177229
-7.21432e-06
0.00018083
-7.20131e-06
0.000184423
-7.18682e-06
0.000188009
-7.17081e-06
0.000191586
-7.15319e-06
0.000195154
-7.13389e-06
0.00019871
-7.11285e-06
0.000202256
-7.09e-06
0.000205789
-7.06527e-06
0.000209309
-7.03858e-06
0.000212814
-7.00986e-06
0.000216304
-6.97905e-06
0.000219778
-6.94608e-06
0.000223234
-6.91088e-06
0.000226671
-6.87339e-06
0.000230089
-6.83353e-06
0.000233485
-6.79125e-06
0.000236859
-6.74647e-06
0.000240209
-6.69915e-06
0.000243534
-6.64922e-06
0.000246833
-6.59663e-06
0.000250105
-6.54132e-06
0.000253347
-6.48323e-06
0.000256559
-6.42233e-06
0.000259739
-6.35857e-06
0.000262885
-6.2919e-06
0.000265997
-6.22229e-06
0.000269073
-6.1497e-06
0.000272111
-6.07409e-06
0.000275109
-5.99545e-06
0.000278067
-5.91375e-06
0.000280982
-5.82897e-06
0.000283853
-5.7411e-06
0.000286679
-5.65013e-06
0.000289458
-5.55605e-06
0.000292188
-5.45887e-06
0.000294868
-5.3586e-06
0.000297497
-5.25524e-06
0.000300072
-5.14881e-06
0.000302592
-5.03934e-06
0.000305056
-4.92685e-06
0.000307463
-4.81138e-06
0.00030981
-4.69297e-06
0.000312097
-4.57167e-06
0.000314321
-4.44752e-06
0.000316482
-4.32058e-06
0.000318578
-4.19092e-06
0.000320608
-4.0586e-06
0.000322571
-3.9237e-06
0.000324464
-3.7863e-06
0.000326288
-3.64647e-06
0.000328041
-3.50432e-06
0.000329721
-3.35993e-06
0.000331329
-3.21341e-06
0.000332862
-3.06486e-06
0.000334319
-2.91438e-06
0.000335701
-2.7621e-06
0.000337005
-2.60811e-06
0.000338232
-2.45256e-06
0.00033938
-2.29555e-06
0.000340449
-2.13722e-06
0.000341438
-1.97769e-06
0.000342347
-1.8171e-06
0.000343175
-1.65557e-06
0.000343921
-1.49325e-06
0.000344587
-1.33027e-06
0.00034517
-1.16676e-06
0.000345672
-1.00287e-06
0.000346091
-8.38738e-07
0.000346428
-6.74495e-07
0.000346683
-5.10282e-07
0.000346856
-3.46237e-07
0.000346948
-1.82496e-07
0.000346957
-1.91946e-08
0.000346885
1.43534e-07
0.000346732
3.0556e-07
0.000346498
4.66752e-07
0.000346185
6.26985e-07
0.000345791
7.86134e-07
0.000345319
9.44081e-07
0.000344768
1.10071e-06
0.00034414
1.2559e-06
0.000343435
1.40955e-06
0.000342654
1.56154e-06
0.000341797
1.71179e-06
0.000340867
1.86019e-06
0.000339863
2.00665e-06
0.000338787
2.15107e-06
0.000337639
2.29339e-06
0.000336422
2.43351e-06
0.000335136
2.57137e-06
0.000333782
2.7069e-06
0.000332361
2.84002e-06
0.000330875
2.97069e-06
0.000329325
3.09885e-06
0.000327712
3.22446e-06
0.000326038
3.34745e-06
0.000324303
3.46781e-06
0.00032251
3.58548e-06
0.000320659
3.70045e-06
0.000318752
3.81269e-06
0.00031679
3.92218e-06
0.000314775
4.0289e-06
0.000312708
4.13284e-06
0.00031059
4.234e-06
0.000308423
4.33236e-06
0.000306209
4.42794e-06
0.000303948
4.52073e-06
0.000301642
4.61075e-06
0.000299292
4.69801e-06
0.0002969
4.78252e-06
0.000294467
4.8643e-06
0.000291995
4.94338e-06
0.000289484
5.01977e-06
0.000286937
5.0935e-06
0.000284354
5.16462e-06
0.000281737
5.23314e-06
0.000279086
5.2991e-06
0.000276405
5.36255e-06
0.000273692
5.42351e-06
0.000270951
5.48203e-06
0.000268181
5.53815e-06
0.000265384
5.59192e-06
0.000262562
5.64338e-06
0.000259715
5.69258e-06
0.000256845
5.73956e-06
0.000253952
5.78437e-06
0.000251038
5.82707e-06
0.000248104
5.8677e-06
0.00024515
5.90632e-06
0.000242178
5.94297e-06
0.000239189
5.9777e-06
0.000236183
6.01058e-06
0.000233162
6.04165e-06
0.000230126
6.07096e-06
0.000227076
6.09856e-06
0.000224014
6.12452e-06
0.000220939
6.14887e-06
0.000217853
6.17168e-06
0.000214756
6.19299e-06
0.000211649
6.21285e-06
0.000208533
6.23131e-06
0.000205408
6.24844e-06
0.000202276
6.26426e-06
0.000199136
6.27885e-06
0.00019599
6.29223e-06
0.000192837
6.30447e-06
0.000189679
6.3156e-06
0.000186516
6.32568e-06
0.000183349
6.33475e-06
0.000180177
6.34285e-06
0.000177002
6.35003e-06
0.000173823
6.35634e-06
0.000170642
6.36181e-06
0.000167459
6.36648e-06
0.000164273
6.37041e-06
0.000161086
6.37362e-06
0.000157898
6.37616e-06
0.000154709
6.37806e-06
0.000151519
6.37937e-06
0.000148329
6.38011e-06
0.000145139
6.38033e-06
0.000141949
6.38005e-06
0.000138759
6.37932e-06
0.00013557
6.37816e-06
0.000132381
6.3766e-06
0.000129194
6.37468e-06
0.000126008
6.37243e-06
0.000122823
6.36988e-06
0.000119639
6.36705e-06
0.000116457
6.36396e-06
0.000113277
6.36066e-06
0.000110098
6.35716e-06
0.000106921
6.35349e-06
0.000103746
6.34967e-06
0.000100573
6.34573e-06
9.74025e-05
6.34168e-06
9.42337e-05
6.33755e-06
9.1067e-05
6.33336e-06
8.79024e-05
6.32912e-06
8.474e-05
6.32487e-06
8.15797e-05
6.32061e-06
7.84215e-05
6.31637e-06
7.52655e-05
6.31216e-06
7.21115e-05
6.30799e-06
6.89596e-05
6.30389e-06
6.58097e-05
6.29986e-06
6.26617e-05
6.29592e-06
5.95157e-05
6.29209e-06
5.63716e-05
6.28837e-06
5.32292e-05
6.28478e-06
5.00886e-05
6.28133e-06
4.69496e-05
6.27803e-06
4.38122e-05
6.27489e-06
4.06763e-05
6.27192e-06
3.75418e-05
6.26912e-06
3.44086e-05
6.26651e-06
3.12766e-05
6.2641e-06
2.81457e-05
6.26188e-06
2.50158e-05
6.25986e-06
2.18868e-05
6.25806e-06
1.87586e-05
6.25647e-06
1.56311e-05
6.2551e-06
1.25042e-05
6.25396e-06
9.37777e-06
6.25303e-06
6.25165e-06
6.25234e-06
3.12577e-06
6.25189e-06
6.25166e-06
3.58817e-06
-1.07653e-05
7.17649e-06
-1.07657e-05
1.07651e-05
-1.07667e-05
1.43542e-05
-1.07681e-05
1.7944e-05
-1.07699e-05
2.15345e-05
-1.07722e-05
2.51259e-05
-1.0775e-05
2.87184e-05
-1.07781e-05
3.23121e-05
-1.07817e-05
3.59071e-05
-1.07857e-05
3.95035e-05
-1.079e-05
4.31016e-05
-1.07947e-05
4.67014e-05
-1.07997e-05
5.03029e-05
-1.08051e-05
5.39063e-05
-1.08107e-05
5.75117e-05
-1.08166e-05
6.11192e-05
-1.08226e-05
6.47287e-05
-1.08289e-05
6.83404e-05
-1.08353e-05
7.19544e-05
-1.08419e-05
7.55705e-05
-1.08485e-05
7.91889e-05
-1.08551e-05
8.28095e-05
-1.08617e-05
8.64323e-05
-1.08682e-05
9.00573e-05
-1.08746e-05
9.36843e-05
-1.08809e-05
9.73135e-05
-1.08869e-05
0.000100945
-1.08927e-05
0.000104577
-1.08981e-05
0.000108212
-1.09031e-05
0.000111848
-1.09076e-05
0.000115486
-1.09117e-05
0.000119125
-1.09151e-05
0.000122764
-1.09178e-05
0.000126405
-1.09198e-05
0.000130045
-1.0921e-05
0.000133686
-1.09213e-05
0.000137327
-1.09206e-05
0.000140967
-1.09188e-05
0.000144607
-1.09159e-05
0.000148245
-1.09117e-05
0.000151881
-1.09063e-05
0.000155515
-1.08994e-05
0.000159146
-1.0891e-05
0.000162774
-1.08811e-05
0.000166398
-1.08694e-05
0.000170018
-1.08559e-05
0.000173633
-1.08406e-05
0.000177242
-1.08232e-05
0.000180844
-1.08038e-05
0.000184439
-1.07822e-05
0.000188027
-1.07582e-05
0.000191605
-1.07319e-05
0.000195175
-1.0703e-05
0.000198733
-1.06715e-05
0.000202281
-1.06374e-05
0.000205816
-1.06003e-05
0.000209337
-1.05604e-05
0.000212845
-1.05174e-05
0.000216337
-1.04713e-05
0.000219813
-1.04219e-05
0.000223271
-1.03692e-05
0.000226711
-1.0313e-05
0.000230131
-1.02533e-05
0.00023353
-1.019e-05
0.000236906
-1.01229e-05
0.000240259
-1.0052e-05
0.000243587
-9.97716e-06
0.000246888
-9.89834e-06
0.000250163
-9.81544e-06
0.000253408
-9.72837e-06
0.000256622
-9.63708e-06
0.000259805
-9.54149e-06
0.000262955
-9.44153e-06
0.00026607
-9.33716e-06
0.000269149
-9.22831e-06
0.000272189
-9.11493e-06
0.000275191
-8.997e-06
0.000278152
-8.87447e-06
0.00028107
-8.74732e-06
0.000283944
-8.61553e-06
0.000286773
-8.47907e-06
0.000289555
-8.33796e-06
0.000292289
-8.19218e-06
0.000294972
-8.04175e-06
0.000297603
-7.88669e-06
0.000300181
-7.72702e-06
0.000302705
-7.56278e-06
0.000305172
-7.39401e-06
0.000307581
-7.22075e-06
0.000309931
-7.04308e-06
0.000312221
-6.86106e-06
0.000314448
-6.67476e-06
0.000316612
-6.48428e-06
0.000318711
-6.2897e-06
0.000320743
-6.09113e-06
0.000322708
-5.88868e-06
0.000324604
-5.68247e-06
0.00032643
-5.47262e-06
0.000328185
-5.25927e-06
0.000329868
-5.04257e-06
0.000331477
-4.82266e-06
0.000333012
-4.59969e-06
0.000334472
-4.37384e-06
0.000335855
-4.14526e-06
0.000337161
-3.91414e-06
0.000338389
-3.68065e-06
0.000339538
-3.44498e-06
0.000340608
-3.20732e-06
0.000341599
-2.96787e-06
0.000342508
-2.72681e-06
0.000343337
-2.48435e-06
0.000344084
-2.2407e-06
0.00034475
-1.99605e-06
0.000345334
-1.75063e-06
0.000345836
-1.50462e-06
0.000346255
-1.25824e-06
0.000346593
-1.0117e-06
0.000346847
-7.65213e-07
0.00034702
-5.18975e-07
0.000347111
-2.73195e-07
0.00034712
-2.80763e-08
0.000347047
2.16181e-07
0.000346893
4.5938e-07
0.000346659
7.01327e-07
0.000346344
9.4183e-07
0.000345949
1.18071e-06
0.000345476
1.41777e-06
0.000344924
1.65285e-06
0.000344294
1.88578e-06
0.000343587
2.11638e-06
0.000342804
2.3445e-06
0.000341946
2.57e-06
0.000341013
2.79271e-06
0.000340007
3.01251e-06
0.000338929
3.22925e-06
0.00033778
3.44282e-06
0.00033656
3.6531e-06
0.000335271
3.85997e-06
0.000333915
4.06334e-06
0.000332492
4.26311e-06
0.000331003
4.45918e-06
0.000329451
4.65148e-06
0.000327835
4.83994e-06
0.000326158
5.02448e-06
0.000324421
5.20506e-06
0.000322625
5.38161e-06
0.000320771
5.55409e-06
0.000318862
5.72248e-06
0.000316897
5.88673e-06
0.000314879
6.04682e-06
0.000312809
6.20274e-06
0.000310689
6.35448e-06
0.000308519
6.50203e-06
0.000306302
6.64539e-06
0.000304038
6.78457e-06
0.000301729
6.91958e-06
0.000299376
7.05045e-06
0.000296982
7.17719e-06
0.000294546
7.29983e-06
0.000292071
7.41842e-06
0.000289558
7.53297e-06
0.000287008
7.64354e-06
0.000284422
7.75017e-06
0.000281803
7.8529e-06
0.00027915
7.9518e-06
0.000276466
8.04692e-06
0.000273751
8.13831e-06
0.000271007
8.22604e-06
0.000268235
8.31017e-06
0.000265436
8.39077e-06
0.000262611
8.4679e-06
0.000259762
8.54163e-06
0.00025689
8.61204e-06
0.000253995
8.67921e-06
0.000251079
8.74319e-06
0.000248142
8.80407e-06
0.000245187
8.86193e-06
0.000242213
8.91684e-06
0.000239222
8.96888e-06
0.000236214
9.01813e-06
0.000233191
9.06467e-06
0.000230154
9.10857e-06
0.000227102
9.14991e-06
0.000224038
9.18878e-06
0.000220962
9.22524e-06
0.000217874
9.25939e-06
0.000214776
9.29129e-06
0.000211667
9.32102e-06
0.00020855
9.34865e-06
0.000205424
9.37428e-06
0.000202291
9.39795e-06
0.00019915
9.41977e-06
0.000196002
9.43978e-06
0.000192849
9.45808e-06
0.000189689
9.47472e-06
0.000186525
9.48978e-06
0.000183357
9.50332e-06
0.000180184
9.51542e-06
0.000177008
9.52614e-06
0.000173829
9.53555e-06
0.000170647
9.5437e-06
0.000167463
9.55067e-06
0.000164277
9.5565e-06
0.000161089
9.56127e-06
0.0001579
9.56503e-06
0.00015471
9.56784e-06
0.00015152
9.56975e-06
0.000148329
9.57082e-06
0.000145138
9.5711e-06
0.000141948
9.57065e-06
0.000138758
9.56951e-06
0.000135568
9.56773e-06
0.000132379
9.56536e-06
0.000129192
9.56244e-06
0.000126005
9.55903e-06
0.00012282
9.55516e-06
0.000119636
9.55088e-06
0.000116454
9.54623e-06
0.000113273
9.54124e-06
0.000110094
9.53596e-06
0.000106917
9.53042e-06
0.000103742
9.52466e-06
0.000100569
9.51872e-06
9.73984e-05
9.51262e-06
9.42295e-05
9.5064e-06
9.10628e-05
9.50009e-06
8.78982e-05
9.49371e-06
8.47358e-05
9.48731e-06
8.15755e-05
9.4809e-06
7.84173e-05
9.47452e-06
7.52613e-05
9.46818e-06
7.21074e-05
9.46191e-06
6.89556e-05
9.45574e-06
6.58057e-05
9.44968e-06
6.26579e-05
9.44375e-06
5.9512e-05
9.43799e-06
5.6368e-05
9.4324e-06
5.32258e-05
9.427e-06
5.00853e-05
9.42181e-06
4.69465e-05
9.41685e-06
4.38092e-05
9.41213e-06
4.06735e-05
9.40766e-06
3.75392e-05
9.40346e-06
3.44062e-05
9.39953e-06
3.12744e-05
9.3959e-06
2.81437e-05
9.39256e-06
2.5014e-05
9.38953e-06
2.18852e-05
9.38682e-06
1.87573e-05
9.38443e-06
1.563e-05
9.38238e-06
1.25033e-05
9.38065e-06
9.37708e-06
9.37927e-06
6.25119e-06
9.37823e-06
3.12554e-06
9.37754e-06
9.3772e-06
3.5877e-06
-1.4353e-05
7.17555e-06
-1.43536e-05
1.07637e-05
-1.43549e-05
1.43524e-05
-1.43567e-05
1.79417e-05
-1.43592e-05
2.15317e-05
-1.43623e-05
2.51227e-05
-1.4366e-05
2.87148e-05
-1.43702e-05
3.23081e-05
-1.4375e-05
3.59027e-05
-1.43803e-05
3.94988e-05
-1.43861e-05
4.30966e-05
-1.43924e-05
4.6696e-05
-1.43992e-05
5.02973e-05
-1.44063e-05
5.39004e-05
-1.44139e-05
5.75056e-05
-1.44217e-05
6.11129e-05
-1.44299e-05
6.47223e-05
-1.44383e-05
6.83339e-05
-1.44469e-05
7.19477e-05
-1.44557e-05
7.55639e-05
-1.44646e-05
7.91822e-05
-1.44735e-05
8.28029e-05
-1.44824e-05
8.64258e-05
-1.44911e-05
9.0051e-05
-1.44998e-05
9.36783e-05
-1.45082e-05
9.73077e-05
-1.45163e-05
0.000100939
-1.45241e-05
0.000104572
-1.45314e-05
0.000108208
-1.45382e-05
0.000111844
-1.45443e-05
0.000115482
-1.45498e-05
0.000119122
-1.45545e-05
0.000122762
-1.45582e-05
0.000126403
-1.4561e-05
0.000130045
-1.45627e-05
0.000133687
-1.45632e-05
0.000137329
-1.45624e-05
0.00014097
-1.45602e-05
0.000144611
-1.45564e-05
0.00014825
-1.45511e-05
0.000151888
-1.45439e-05
0.000155523
-1.45349e-05
0.000159156
-1.45239e-05
0.000162786
-1.45107e-05
0.000166412
-1.44953e-05
0.000170033
-1.44775e-05
0.00017365
-1.44572e-05
0.000177261
-1.44342e-05
0.000180866
-1.44085e-05
0.000184463
-1.43798e-05
0.000188053
-1.4348e-05
0.000191634
-1.43131e-05
0.000195206
-1.42748e-05
0.000198767
-1.4233e-05
0.000202318
-1.41875e-05
0.000205856
-1.41384e-05
0.00020938
-1.40853e-05
0.000212891
-1.40281e-05
0.000216387
-1.39668e-05
0.000219866
-1.39011e-05
0.000223328
-1.3831e-05
0.000226771
-1.37562e-05
0.000230194
-1.36768e-05
0.000233597
-1.35924e-05
0.000236977
-1.35031e-05
0.000240334
-1.34087e-05
0.000243666
-1.33091e-05
0.000246971
-1.32041e-05
0.00025025
-1.30937e-05
0.000253499
-1.29777e-05
0.000256718
-1.28561e-05
0.000259905
-1.27288e-05
0.000263059
-1.25956e-05
0.000266179
-1.24565e-05
0.000269262
-1.23114e-05
0.000272307
-1.21603e-05
0.000275313
-1.20031e-05
0.000278279
-1.18398e-05
0.000281202
-1.16703e-05
0.000284081
-1.14946e-05
0.000286914
-1.13127e-05
0.000289701
-1.11245e-05
0.000292439
-1.09301e-05
0.000295127
-1.07295e-05
0.000297763
-1.05228e-05
0.000300346
-1.03098e-05
0.000302874
-1.00907e-05
0.000305345
-9.86564e-06
0.000307759
-9.63454e-06
0.000310114
-9.39754e-06
0.000312407
-9.15472e-06
0.000314639
-8.9062e-06
0.000316806
-8.65207e-06
0.000318909
-8.39247e-06
0.000320946
-8.12754e-06
0.000322914
-7.85742e-06
0.000324814
-7.58228e-06
0.000326644
-7.30227e-06
0.000328402
-7.01759e-06
0.000330088
-6.72842e-06
0.0003317
-6.43496e-06
0.000333238
-6.13742e-06
0.0003347
-5.83601e-06
0.000336086
-5.53097e-06
0.000337394
-5.22253e-06
0.000338625
-4.91093e-06
0.000339776
-4.59641e-06
0.000340848
-4.27923e-06
0.00034184
-3.95964e-06
0.000342751
-3.63792e-06
0.000343581
-3.31433e-06
0.000344329
-2.98914e-06
0.000344996
-2.66263e-06
0.00034558
-2.33507e-06
0.000346082
-2.00673e-06
0.000346502
-1.67791e-06
0.000346839
-1.34887e-06
0.000347094
-1.01989e-06
0.000347266
-6.91257e-07
0.000347356
-3.63235e-07
0.000347364
-3.60984e-08
0.00034729
2.89885e-07
0.000347135
6.14452e-07
0.000346899
9.37343e-07
0.000346583
1.2583e-06
0.000346187
1.57709e-06
0.000345711
1.89345e-06
0.000345157
2.20715e-06
0.000344524
2.51797e-06
0.000343815
2.82569e-06
0.000343029
3.1301e-06
0.000342168
3.43098e-06
0.000341233
3.72815e-06
0.000340224
4.02141e-06
0.000339143
4.3106e-06
0.00033799
4.59555e-06
0.000336767
4.87609e-06
0.000335475
5.15208e-06
0.000334115
5.42339e-06
0.000332688
5.68988e-06
0.000331196
5.95144e-06
0.000329639
6.20795e-06
0.00032802
6.45933e-06
0.000326339
6.70548e-06
0.000324598
6.94633e-06
0.000322798
7.1818e-06
0.00032094
7.41184e-06
0.000319026
7.6364e-06
0.000317057
7.85543e-06
0.000315035
8.06892e-06
0.000312961
8.27683e-06
0.000310836
8.47915e-06
0.000308662
8.67588e-06
0.000306441
8.86702e-06
0.000304173
9.05257e-06
0.00030186
9.23256e-06
0.000299503
9.40701e-06
0.000297105
9.57596e-06
0.000294665
9.73943e-06
0.000292186
9.89748e-06
0.000289669
1.00502e-05
0.000287115
1.01975e-05
0.000284525
1.03396e-05
0.000281902
1.04765e-05
0.000279245
1.06083e-05
0.000276557
1.0735e-05
0.000273839
1.08568e-05
0.000271091
1.09737e-05
0.000268315
1.10857e-05
0.000265513
1.11931e-05
0.000262685
1.12958e-05
0.000259833
1.1394e-05
0.000256957
1.14878e-05
0.000254059
1.15772e-05
0.00025114
1.16624e-05
0.0002482
1.17435e-05
0.000245242
1.18205e-05
0.000242265
1.18936e-05
0.000239271
1.19629e-05
0.000236261
1.20284e-05
0.000233235
1.20903e-05
0.000230195
1.21487e-05
0.000227141
1.22037e-05
0.000224075
1.22554e-05
0.000220996
1.23039e-05
0.000217906
1.23493e-05
0.000214805
1.23918e-05
0.000211695
1.24313e-05
0.000208576
1.2468e-05
0.000205448
1.25021e-05
0.000202313
1.25335e-05
0.00019917
1.25625e-05
0.000196021
1.25891e-05
0.000192865
1.26133e-05
0.000189705
1.26354e-05
0.000186539
1.26554e-05
0.000183369
1.26734e-05
0.000180195
1.26894e-05
0.000177018
1.27036e-05
0.000173837
1.2716e-05
0.000170654
1.27268e-05
0.000167469
1.2736e-05
0.000164282
1.27437e-05
0.000161093
1.27499e-05
0.000157903
1.27549e-05
0.000154712
1.27585e-05
0.000151521
1.2761e-05
0.00014833
1.27623e-05
0.000145138
1.27626e-05
0.000141947
1.27619e-05
0.000138756
1.27603e-05
0.000135566
1.27579e-05
0.000132377
1.27547e-05
0.000129188
1.27507e-05
0.000126001
1.27461e-05
0.000122816
1.27409e-05
0.000119631
1.27351e-05
0.000116449
1.27288e-05
0.000113268
1.27221e-05
0.000110089
1.2715e-05
0.000106912
1.27076e-05
0.000103736
1.26998e-05
0.000100563
1.26919e-05
9.73922e-05
1.26837e-05
9.42233e-05
1.26753e-05
9.10565e-05
1.26669e-05
8.78919e-05
1.26583e-05
8.47294e-05
1.26498e-05
8.15692e-05
1.26412e-05
7.84111e-05
1.26326e-05
7.52551e-05
1.26241e-05
7.21013e-05
1.26157e-05
6.89495e-05
1.26075e-05
6.57999e-05
1.25994e-05
6.26522e-05
1.25914e-05
5.95065e-05
1.25837e-05
5.63626e-05
1.25762e-05
5.32206e-05
1.2569e-05
5.00804e-05
1.25621e-05
4.69418e-05
1.25554e-05
4.38048e-05
1.25491e-05
4.06693e-05
1.25431e-05
3.75353e-05
1.25375e-05
3.44025e-05
1.25323e-05
3.1271e-05
1.25274e-05
2.81407e-05
1.25229e-05
2.50113e-05
1.25189e-05
2.18829e-05
1.25153e-05
1.87552e-05
1.25121e-05
1.56283e-05
1.25093e-05
1.25019e-05
1.2507e-05
9.37604e-06
1.25052e-05
6.2505e-06
1.25038e-05
3.12519e-06
1.25028e-05
1.25024e-05
3.58707e-06
-1.794e-05
7.1743e-06
-1.79408e-05
1.07618e-05
-1.79424e-05
1.43499e-05
-1.79448e-05
1.79386e-05
-1.79479e-05
2.1528e-05
-1.79518e-05
2.51185e-05
-1.79564e-05
2.871e-05
-1.79617e-05
3.23027e-05
-1.79678e-05
3.58969e-05
-1.79745e-05
3.94925e-05
-1.79818e-05
4.30898e-05
-1.79897e-05
4.66888e-05
-1.79982e-05
5.02897e-05
-1.80072e-05
5.38925e-05
-1.80167e-05
5.74974e-05
-1.80266e-05
6.11044e-05
-1.80369e-05
6.47136e-05
-1.80475e-05
6.83251e-05
-1.80584e-05
7.19389e-05
-1.80695e-05
7.55549e-05
-1.80806e-05
7.91733e-05
-1.80919e-05
8.27941e-05
-1.81031e-05
8.64172e-05
-1.81142e-05
9.00425e-05
-1.81252e-05
9.36701e-05
-1.81358e-05
9.72999e-05
-1.81461e-05
0.000100932
-1.8156e-05
0.000104566
-1.81653e-05
0.000108201
-1.81739e-05
0.000111839
-1.81818e-05
0.000115478
-1.81888e-05
0.000119118
-1.81948e-05
0.000122759
-1.81997e-05
0.000126402
-1.82033e-05
0.000130045
-1.82056e-05
0.000133688
-1.82064e-05
0.000137331
-1.82056e-05
0.000140974
-1.82031e-05
0.000144616
-1.81986e-05
0.000148257
-1.81921e-05
0.000151897
-1.81834e-05
0.000155534
-1.81724e-05
0.000159169
-1.81588e-05
0.000162801
-1.81426e-05
0.000166429
-1.81236e-05
0.000170054
-1.81016e-05
0.000173673
-1.80765e-05
0.000177287
-1.8048e-05
0.000180894
-1.80161e-05
0.000184495
-1.79805e-05
0.000188088
-1.7941e-05
0.000191673
-1.78976e-05
0.000195248
-1.785e-05
0.000198813
-1.7798e-05
0.000202367
-1.77415e-05
0.000205909
-1.76803e-05
0.000209438
-1.76142e-05
0.000212952
-1.7543e-05
0.000216452
-1.74666e-05
0.000219936
-1.73847e-05
0.000223402
-1.72973e-05
0.00022685
-1.72042e-05
0.000230278
-1.71051e-05
0.000233686
-1.69999e-05
0.000237071
-1.68885e-05
0.000240433
-1.67707e-05
0.000243771
-1.66464e-05
0.000247082
-1.65154e-05
0.000250366
-1.63775e-05
0.000253621
-1.62328e-05
0.000256845
-1.60809e-05
0.000260039
-1.59219e-05
0.000263199
-1.57555e-05
0.000266324
-1.55818e-05
0.000269413
-1.54006e-05
0.000272465
-1.52118e-05
0.000275477
-1.50154e-05
0.000278448
-1.48113e-05
0.000281378
-1.45995e-05
0.000284263
-1.43799e-05
0.000287103
-1.41525e-05
0.000289895
-1.39173e-05
0.00029264
-1.36743e-05
0.000295334
-1.34235e-05
0.000297976
-1.3165e-05
0.000300565
-1.28987e-05
0.000303099
-1.26248e-05
0.000305576
-1.23433e-05
0.000307996
-1.20542e-05
0.000310356
-1.17578e-05
0.000312656
-1.14541e-05
0.000314893
-1.11432e-05
0.000317066
-1.08253e-05
0.000319174
-1.05006e-05
0.000321216
-1.01691e-05
0.00032319
-9.8312e-06
0.000325094
-9.48694e-06
0.000326929
-9.1366e-06
0.000328691
-8.78039e-06
0.000330381
-8.41855e-06
0.000331998
-8.05134e-06
0.000333539
-7.67901e-06
0.000335005
-7.30183e-06
0.000336394
-6.92009e-06
0.000337706
-6.53409e-06
0.000338939
-6.14412e-06
0.000340093
-5.7505e-06
0.000341168
-5.35354e-06
0.000342161
-4.95356e-06
0.000343074
-4.55091e-06
0.000343906
-4.14591e-06
0.000344656
-3.73891e-06
0.000345323
-3.33025e-06
0.000345909
-2.92028e-06
0.000346411
-2.50934e-06
0.000346831
-2.09779e-06
0.000347168
-1.68597e-06
0.000347423
-1.27424e-06
0.000347594
-8.62927e-07
0.000347683
-4.52392e-07
0.00034769
-4.29691e-08
0.000347615
3.65005e-07
0.000347458
7.71199e-07
0.00034722
1.17529e-06
0.000346902
1.57695e-06
0.000346503
1.97588e-06
0.000346025
2.37178e-06
0.000345467
2.76433e-06
0.000344832
3.15327e-06
0.00034412
3.53832e-06
0.00034333
3.91921e-06
0.000342466
4.29567e-06
0.000341526
4.66748e-06
0.000340513
5.0344e-06
0.000339428
5.3962e-06
0.000338271
5.75267e-06
0.000337043
6.10363e-06
0.000335746
6.44888e-06
0.000334382
6.78825e-06
0.00033295
7.12158e-06
0.000331453
7.44873e-06
0.000329891
7.76956e-06
0.000328266
8.08395e-06
0.00032658
8.39178e-06
0.000324833
8.69297e-06
0.000323028
8.98742e-06
0.000321165
9.27506e-06
0.000319245
9.55584e-06
0.000317271
9.82969e-06
0.000315243
1.00966e-05
0.000313163
1.03565e-05
0.000311033
1.06094e-05
0.000308854
1.08553e-05
0.000306627
1.10942e-05
0.000304353
1.13261e-05
0.000302034
1.15511e-05
0.000299672
1.17691e-05
0.000297268
1.19802e-05
0.000294823
1.21845e-05
0.000292339
1.23819e-05
0.000289816
1.25727e-05
0.000287257
1.27567e-05
0.000284662
1.29342e-05
0.000282034
1.31052e-05
0.000279372
1.32698e-05
0.000276679
1.34281e-05
0.000273956
1.35801e-05
0.000271203
1.37261e-05
0.000268423
1.3866e-05
0.000265616
1.4e-05
0.000262784
1.41283e-05
0.000259927
1.42508e-05
0.000257047
1.43679e-05
0.000254144
1.44795e-05
0.000251221