/*--------------------------------*- C++ -*----------------------------------*\
| =========                 |                                                 |
| \\      /  F ield         | OpenFOAM: The Open Source CFD Toolbox           |
|  \\    /   O peration     | Version:  v2012                                 |
|   \\  /    A nd           | Website:  www.openfoam.com                      |
|    \\/     M anipulation  |                                                 |
\*---------------------------------------------------------------------------*/
FoamFile
{
    version     2.0;
    format      ascii;
    class       volScalarField;
    location    "12";
    object      Psi_z;
}
// * * * * * * * * * * * * * * * * * * * * * * * * * * * * * * * * * * * * * //

dimensions      [0 2 -1 0 0 0 0];


internalField   nonuniform List<scalar> 
65536
(
8.95809e-06
2.68747e-05
4.47925e-05
6.27123e-05
8.06348e-05
9.85608e-05
0.000116491
0.000134426
0.000152367
0.000170315
0.000188269
0.000206231
0.000224201
0.00024218
0.000260168
0.000278166
0.000296175
0.000314193
0.000332222
0.000350263
0.000368314
0.000386377
0.000404451
0.000422536
0.000440633
0.00045874
0.000476858
0.000494986
0.000513123
0.00053127
0.000549425
0.000567587
0.000585756
0.000603931
0.00062211
0.000640293
0.000658477
0.000676661
0.000694844
0.000713023
0.000731197
0.000749364
0.000767521
0.000785666
0.000803797
0.00082191
0.000840003
0.000858073
0.000876117
0.00089413
0.00091211
0.000930054
0.000947956
0.000965813
0.000983621
0.00100138
0.00101907
0.0010367
0.00105427
0.00107176
0.00108917
0.0011065
0.00112374
0.00114089
0.00115793
0.00117487
0.00119169
0.00120839
0.00122497
0.00124141
0.00125771
0.00127386
0.00128986
0.0013057
0.00132137
0.00133686
0.00135217
0.00136729
0.00138221
0.00139692
0.00141142
0.0014257
0.00143974
0.00145355
0.00146711
0.00148042
0.00149347
0.00150625
0.00151875
0.00153097
0.0015429
0.00155453
0.00156586
0.00157687
0.00158756
0.00159792
0.00160796
0.00161765
0.00162699
0.00163599
0.00164463
0.0016529
0.0016608
0.00166834
0.00167549
0.00168226
0.00168864
0.00169464
0.00170023
0.00170544
0.00171024
0.00171463
0.00171863
0.00172221
0.00172539
0.00172816
0.00173051
0.00173246
0.00173399
0.00173512
0.00173583
0.00173613
0.00173602
0.00173551
0.00173459
0.00173327
0.00173155
0.00172943
0.00172691
0.00172401
0.00172071
0.00171704
0.00171298
0.00170855
0.00170375
0.00169858
0.00169305
0.00168717
0.00168094
0.00167437
0.00166745
0.00166021
0.00165264
0.00164476
0.00163656
0.00162805
0.00161925
0.00161015
0.00160077
0.0015911
0.00158117
0.00157097
0.00156052
0.00154981
0.00153886
0.00152767
0.00151625
0.00150461
0.00149275
0.00148069
0.00146842
0.00145596
0.0014433
0.00143047
0.00141746
0.00140428
0.00139093
0.00137744
0.00136379
0.00134999
0.00133606
0.001322
0.0013078
0.00129349
0.00127906
0.00126453
0.00124988
0.00123514
0.00122031
0.00120538
0.00119037
0.00117528
0.00116011
0.00114487
0.00112956
0.00111419
0.00109876
0.00108328
0.00106774
0.00105216
0.00103653
0.00102086
0.00100515
0.000989409
0.000973634
0.000957829
0.000941998
0.000926142
0.000910266
0.00089437
0.000878457
0.00086253
0.00084659
0.00083064
0.00081468
0.000798714
0.000782742
0.000766766
0.000750788
0.000734809
0.00071883
0.000702853
0.000686878
0.000670906
0.000654939
0.000638978
0.000623023
0.000607074
0.000591134
0.000575201
0.000559277
0.000543362
0.000527457
0.000511562
0.000495677
0.000479802
0.000463938
0.000448085
0.000432243
0.000416411
0.00040059
0.00038478
0.000368981
0.000353192
0.000337413
0.000321645
0.000305886
0.000290137
0.000274398
0.000258667
0.000242945
0.000227231
0.000211524
0.000195825
0.000180133
0.000164448
0.000148768
0.000133093
0.000117424
0.000101758
8.60969e-05
7.04385e-05
5.47828e-05
3.91291e-05
2.34769e-05
7.82553e-06
2.6874e-05
8.06231e-05
0.000134376
0.000188134
0.000241901
0.000295679
0.000349469
0.000403274
0.000457096
0.000510937
0.0005648
0.000618685
0.000672595
0.000726532
0.000780496
0.00083449
0.000888514
0.000942569
0.000996657
0.00105078
0.00110493
0.00115912
0.00121334
0.0012676
0.00132189
0.00137621
0.00143056
0.00148495
0.00153936
0.0015938
0.00164827
0.00170276
0.00175727
0.00181179
0.00186633
0.00192088
0.00197543
0.00202999
0.00208454
0.00213908
0.0021936
0.0022481
0.00230258
0.00235701
0.00241141
0.00246575
0.00252003
0.00257425
0.00262838
0.00268243
0.00273637
0.0027902
0.00284391
0.00289749
0.00295092
0.00300419
0.00305728
0.00311018
0.00316288
0.00321536
0.00326761
0.0033196
0.00337133
0.00342276
0.0034739
0.00352471
0.00357519
0.0036253
0.00367503
0.00372436
0.00377327
0.00382174
0.00386975
0.00391727
0.00396429
0.00401078
0.00405671
0.00410207
0.00414684
0.00419098
0.00423448
0.00427732
0.00431946
0.0043609
0.00440159
0.00444153
0.00448068
0.00451903
0.00455655
0.00459321
0.00462901
0.0046639
0.00469788
0.00473092
0.00476301
0.00479411
0.00482421
0.00485329
0.00488133
0.00490832
0.00493424
0.00495906
0.00498278
0.00500538
0.00502685
0.00504716
0.00506632
0.0050843
0.0051011
0.00511671
0.00513111
0.00514431
0.00515629
0.00516705
0.00517658
0.00518488
0.00519195
0.00519779
0.00520239
0.00520576
0.00520789
0.0052088
0.00520848
0.00520693
0.00520417
0.00520021
0.00519504
0.00518867
0.00518112
0.0051724
0.00516252
0.00515148
0.00513931
0.00512601
0.0051116
0.00509609
0.00507951
0.00506186
0.00504316
0.00502343
0.00500269
0.00498096
0.00495824
0.00493458
0.00490997
0.00488445
0.00485803
0.00483073
0.00480257
0.00477358
0.00474378
0.00471317
0.0046818
0.00464967
0.00461681
0.00458324
0.00454898
0.00451405
0.00447847
0.00444226
0.00440545
0.00436805
0.00433009
0.00429158
0.00425254
0.00421299
0.00417296
0.00413245
0.0040915
0.00405011
0.00400831
0.00396611
0.00392353
0.00388059
0.0038373
0.00379368
0.00374975
0.00370552
0.003661
0.00361622
0.00357118
0.0035259
0.00348039
0.00343467
0.00338875
0.00334264
0.00329635
0.00324989
0.00320328
0.00315652
0.00310963
0.00306262
0.00301549
0.00296826
0.00292093
0.00287351
0.00282601
0.00277845
0.00273081
0.00268312
0.00263538
0.0025876
0.00253978
0.00249193
0.00244405
0.00239614
0.00234823
0.0023003
0.00225236
0.00220442
0.00215649
0.00210855
0.00206063
0.00201271
0.00196481
0.00191693
0.00186906
0.00182121
0.00177339
0.00172559
0.00167782
0.00163008
0.00158236
0.00153467
0.00148702
0.0014394
0.0013918
0.00134424
0.00129672
0.00124922
0.00120176
0.00115433
0.00110693
0.00105956
0.00101223
0.000964924
0.000917648
0.000870402
0.000823183
0.000775991
0.000728825
0.000681683
0.000634565
0.000587469
0.000540393
0.000493336
0.000446298
0.000399275
0.000352267
0.000305271
0.000258287
0.000211313
0.000164346
0.000117386
7.04297e-05
2.34763e-05
4.47886e-05
0.000134368
0.000223953
0.000313548
0.000403157
0.000492783
0.000582431
0.000672104
0.000761806
0.000851539
0.000941308
0.00103111
0.00112096
0.00121086
0.00130079
0.00139078
0.00148082
0.00157091
0.00166106
0.00175126
0.00184152
0.00193183
0.0020222
0.00211263
0.00220311
0.00229365
0.00238424
0.00247488
0.00256557
0.00265631
0.00274709
0.00283791
0.00292876
0.00301964
0.00311054
0.00320146
0.00329238
0.00338331
0.00347424
0.00356514
0.00365603
0.00374687
0.00383767
0.00392841
0.00401907
0.00410965
0.00420013
0.0042905
0.00438073
0.00447082
0.00456074
0.00465048
0.00474001
0.00482931
0.00491838
0.00500717
0.00509567
0.00518386
0.00527171
0.0053592
0.00544629
0.00553297
0.00561919
0.00570495
0.00579019
0.0058749
0.00595904
0.00604259
0.0061255
0.00620774
0.00628928
0.00637009
0.00645012
0.00652935
0.00660774
0.00668524
0.00676182
0.00683745
0.00691208
0.00698568
0.00705821
0.00712963
0.0071999
0.00726898
0.00733683
0.00740342
0.0074687
0.00753264
0.00759519
0.00765633
0.00771601
0.00777419
0.00783085
0.00788594
0.00793943
0.00799129
0.00804148
0.00808997
0.00813673
0.00818173
0.00822494
0.00826634
0.00830588
0.00834357
0.00837935
0.00841323
0.00844517
0.00847515
0.00850316
0.00852918
0.0085532
0.0085752
0.00859517
0.00861311
0.008629
0.00864284
0.00865462
0.00866435
0.00867202
0.00867763
0.00868118
0.00868269
0.00868215
0.00867957
0.00867497
0.00866834
0.00865972
0.0086491
0.00863651
0.00862196
0.00860547
0.00858707
0.00856676
0.00854458
0.00852055
0.00849469
0.00846703
0.00843759
0.00840641
0.00837351
0.00833892
0.00830268
0.0082648
0.00822534
0.0081843
0.00814174
0.00809769
0.00805217
0.00800522
0.00795688
0.00790717
0.00785615
0.00780383
0.00775026
0.00769547
0.0076395
0.00758237
0.00752413
0.00746481
0.00740445
0.00734307
0.00728072
0.00721742
0.00715321
0.00708813
0.00702219
0.00695545
0.00688792
0.00681964
0.00675064
0.00668095
0.0066106
0.00653962
0.00646803
0.00639587
0.00632315
0.00624992
0.00617618
0.00610197
0.00602732
0.00595224
0.00587676
0.0058009
0.00572468
0.00564812
0.00557126
0.00549409
0.00541665
0.00533895
0.00526102
0.00518286
0.00510449
0.00502593
0.0049472
0.00486831
0.00478927
0.0047101
0.00463081
0.00455142
0.00447193
0.00439235
0.00431271
0.004233
0.00415324
0.00407343
0.00399359
0.00391373
0.00383384
0.00375394
0.00367404
0.00359414
0.00351425
0.00343437
0.0033545
0.00327467
0.00319485
0.00311507
0.00303533
0.00295562
0.00287596
0.00279634
0.00271676
0.00263723
0.00255776
0.00247833
0.00239896
0.00231964
0.00224037
0.00216116
0.002082
0.0020029
0.00192385
0.00184485
0.00176591
0.00168701
0.00160817
0.00152938
0.00145064
0.00137194
0.00129329
0.00121468
0.00113611
0.00105758
0.000979091
0.000900633
0.000822208
0.000743811
0.000665442
0.000587096
0.000508773
0.000430468
0.000352179
0.000273903
0.000195638
0.00011738
3.91262e-05
6.27013e-05
0.000188107
0.00031352
0.000438948
0.000564395
0.000689867
0.000815369
0.000940906
0.00106648
0.00119211
0.00131778
0.0014435
0.00156929
0.00169513
0.00182104
0.00194702
0.00207308
0.0021992
0.00232541
0.00245169
0.00257804
0.00270448
0.002831
0.0029576
0.00308428
0.00321103
0.00333786
0.00346477
0.00359174
0.00371877
0.00384587
0.00397302
0.00410022
0.00422746
0.00435473
0.00448203
0.00460934
0.00473665
0.00486395
0.00499124
0.00511849
0.00524568
0.00537282
0.00549987
0.00562682
0.00575366
0.00588035
0.00600688
0.00613324
0.00625938
0.00638529
0.00651095
0.00663632
0.00676138
0.0068861
0.00701044
0.00713438
0.00725788
0.00738091
0.00750342
0.00762539
0.00774678
0.00786754
0.00798763
0.00810702
0.00822566
0.0083435
0.00846051
0.00857663
0.00869182
0.00880602
0.0089192
0.0090313
0.00914227
0.00925206
0.00936062
0.00946789
0.00957382
0.00967836
0.00978146
0.00988305
0.00998309
0.0100815
0.0101783
0.0102733
0.0103666
0.0104581
0.0105476
0.0106353
0.0107209
0.0108045
0.010886
0.0109654
0.0110426
0.0111175
0.0111901
0.0112605
0.0113284
0.0113939
0.0114569
0.0115175
0.0115755
0.0116309
0.0116836
0.0117338
0.0117812
0.011826
0.011868
0.0119072
0.0119437
0.0119773
0.0120081
0.0120361
0.0120612
0.0120835
0.0121029
0.0121194
0.012133
0.0121437
0.0121516
0.0121565
0.0121586
0.0121579
0.0121542
0.0121478
0.0121385
0.0121264
0.0121115
0.0120939
0.0120735
0.0120504
0.0120246
0.0119961
0.011965
0.0119313
0.0118951
0.0118563
0.0118151
0.0117714
0.0117253
0.0116768
0.011626
0.011573
0.0115177
0.0114602
0.0114005
0.0113388
0.011275
0.0112093
0.0111415
0.0110719
0.0110004
0.0109271
0.0108521
0.0107753
0.0106969
0.0106169
0.0105353
0.0104522
0.0103676
0.0102817
0.0101943
0.0101057
0.0100157
0.00992456
0.00983221
0.00973872
0.00964414
0.00954851
0.00945187
0.00935426
0.00925573
0.00915631
0.00905605
0.00895498
0.00885315
0.00875058
0.00864732
0.00854339
0.00843884
0.00833369
0.00822799
0.00812175
0.00801502
0.00790782
0.00780017
0.00769212
0.00758367
0.00747487
0.00736573
0.00725629
0.00714655
0.00703655
0.0069263
0.00681584
0.00670517
0.00659431
0.00648329
0.00637212
0.00626082
0.0061494
0.00603788
0.00592627
0.00581459
0.00570285
0.00559107
0.00547924
0.00536739
0.00525553
0.00514365
0.00503178
0.00491993
0.00480809
0.00469627
0.00458449
0.00447275
0.00436106
0.00424941
0.00413781
0.00402628
0.00391481
0.0038034
0.00369206
0.00358079
0.00346959
0.00335846
0.00324741
0.00313644
0.00302554
0.00291472
0.00280398
0.00269331
0.00258272
0.0024722
0.00236175
0.00225137
0.00214107
0.00203083
0.00192066
0.00181055
0.0017005
0.0015905
0.00148057
0.00137068
0.00126084
0.00115105
0.0010413
0.000931584
0.000821905
0.000712256
0.000602633
0.000493032
0.000383451
0.000273883
0.000164326
5.47746e-05
8.06111e-05
0.000241837
0.000403074
0.000564329
0.000725608
0.00088692
0.00104827
0.00120967
0.00137112
0.00153262
0.00169419
0.00185583
0.00201755
0.00217934
0.00234122
0.00250319
0.00266526
0.00282742
0.00298967
0.00315203
0.00331449
0.00347706
0.00363972
0.0038025
0.00396537
0.00412834
0.00429142
0.00445458
0.00461784
0.00478118
0.0049446
0.00510809
0.00527164
0.00543525
0.0055989
0.00576258
0.00592628
0.00608999
0.00625369
0.00641736
0.006581
0.00674456
0.00690805
0.00707143
0.00723469
0.0073978
0.00756073
0.00772345
0.00788594
0.00804817
0.00821011
0.00837171
0.00853295
0.0086938
0.0088542
0.00901413
0.00917353
0.00933238
0.00949061
0.0096482
0.00980508
0.00996121
0.0101165
0.010271
0.0104246
0.0105772
0.0107288
0.0108793
0.0110287
0.0111769
0.0113238
0.0114694
0.0116136
0.0117564
0.0118976
0.0120373
0.0121753
0.0123116
0.0124461
0.0125787
0.0127094
0.0128382
0.0129648
0.0130893
0.0132116
0.0133316
0.0134493
0.0135645
0.0136773
0.0137875
0.0138951
0.014
0.0141021
0.0142014
0.0142978
0.0143913
0.0144818
0.0145692
0.0146535
0.0147346
0.0148125
0.0148871
0.0149584
0.0150264
0.0150909
0.0151519
0.0152095
0.0152636
0.015314
0.0153609
0.0154042
0.0154439
0.0154799
0.0155122
0.0155408
0.0155657
0.015587
0.0156045
0.0156183
0.0156284
0.0156347
0.0156374
0.0156364
0.0156317
0.0156234
0.0156114
0.0155959
0.0155767
0.0155539
0.0155277
0.0154979
0.0154647
0.0154281
0.015388
0.0153447
0.015298
0.0152481
0.015195
0.0151388
0.0150794
0.015017
0.0149517
0.0148834
0.0148122
0.0147382
0.0146614
0.014582
0.0144999
0.0144153
0.0143281
0.0142385
0.0141465
0.0140522
0.0139556
0.0138568
0.0137559
0.013653
0.013548
0.0134411
0.0133323
0.0132216
0.0131093
0.0129952
0.0128795
0.0127622
0.0126434
0.0125231
0.0124014
0.0122784
0.0121541
0.0120285
0.0119017
0.0117739
0.0116449
0.0115149
0.0113839
0.0112519
0.0111191
0.0109854
0.010851
0.0107157
0.0105798
0.0104431
0.0103058
0.010168
0.0100295
0.00989053
0.00975106
0.00961113
0.00947077
0.00933001
0.00918888
0.00904741
0.00890563
0.00876357
0.00862125
0.00847869
0.00833591
0.00819295
0.00804982
0.00790655
0.00776314
0.00761962
0.00747601
0.00733233
0.00718858
0.00704479
0.00690096
0.00675712
0.00661327
0.00646942
0.00632559
0.00618178
0.00603801
0.00589428
0.00575061
0.00560699
0.00546343
0.00531995
0.00517654
0.00503321
0.00488997
0.00474681
0.00460375
0.00446077
0.0043179
0.00417512
0.00403244
0.00388985
0.00374737
0.00360499
0.0034627
0.00332051
0.00317841
0.00303641
0.0028945
0.00275269
0.00261095
0.00246931
0.00232774
0.00218625
0.00204484
0.0019035
0.00176222
0.00162101
0.00147985
0.00133875
0.00119769
0.00105668
0.000915712
0.000774775
0.000633867
0.000492983
0.000352118
0.000211265
7.04209e-05
9.85174e-05
0.000295557
0.000492609
0.000689684
0.00088679
0.00108393
0.00128113
0.00147838
0.00167569
0.00187307
0.00207054
0.00226809
0.00246573
0.00266347
0.00286132
0.00305927
0.00325734
0.00345553
0.00365384
0.00385227
0.00405084
0.00424953
0.00444834
0.00464729
0.00484636
0.00504556
0.00524487
0.00544431
0.00564385
0.0058435
0.00604325
0.00624309
0.00644301
0.00664299
0.00684304
0.00704312
0.00724323
0.00744334
0.00764345
0.00784354
0.00804357
0.00824352
0.00844339
0.00864312
0.00884271
0.00904211
0.0092413
0.00944025
0.00963891
0.00983726
0.0100352
0.0102328
0.01043
0.0106266
0.0108228
0.0110183
0.0112132
0.0114075
0.011601
0.0117937
0.0119855
0.0121765
0.0123664
0.0125553
0.0127431
0.0129298
0.0131152
0.0132993
0.013482
0.0136632
0.0138429
0.014021
0.0141974
0.014372
0.0145448
0.0147156
0.0148844
0.0150511
0.0152157
0.0153779
0.0155378
0.0156953
0.0158502
0.0160026
0.0161522
0.016299
0.016443
0.016584
0.0167219
0.0168567
0.0169884
0.0171167
0.0172417
0.0173632
0.0174811
0.0175955
0.0177062
0.0178132
0.0179163
0.0180156
0.0181109
0.0182022
0.0182894
0.0183725
0.0184514
0.0185261
0.0185966
0.0186627
0.0187245
0.0187818
0.0188348
0.0188833
0.0189273
0.0189668
0.0190019
0.0190323
0.0190583
0.0190797
0.0190966
0.0191089
0.0191167
0.0191199
0.0191187
0.0191129
0.0191027
0.019088
0.0190689
0.0190454
0.0190176
0.0189854
0.0189489
0.0189083
0.0188634
0.0188144
0.0187613
0.0187042
0.0186431
0.0185781
0.0185092
0.0184366
0.0183602
0.0182802
0.0181966
0.0181095
0.0180189
0.017925
0.0178278
0.0177273
0.0176238
0.0175171
0.0174074
0.0172949
0.0171795
0.0170613
0.0169405
0.016817
0.016691
0.0165626
0.0164318
0.0162987
0.0161634
0.0160259
0.0158863
0.0157448
0.0156013
0.015456
0.0153089
0.01516
0.0150096
0.0148575
0.0147039
0.0145489
0.0143925
0.0142347
0.0140757
0.0139155
0.0137542
0.0135918
0.0134283
0.0132638
0.0130985
0.0129322
0.0127651
0.0125972
0.0124287
0.0122594
0.0120894
0.0119189
0.0117478
0.0115762
0.0114041
0.0112315
0.0110586
0.0108852
0.0107116
0.0105376
0.0103633
0.0101887
0.010014
0.00983898
0.00966382
0.00948851
0.00931306
0.00913751
0.00896186
0.00878614
0.00861036
0.00843455
0.00825872
0.00808287
0.00790704
0.00773123
0.00755545
0.00737971
0.00720402
0.0070284
0.00685286
0.00667739
0.00650201
0.00632672
0.00615153
0.00597645
0.00580148
0.00562661
0.00545187
0.00527724
0.00510273
0.00492834
0.00475407
0.00457992
0.0044059
0.00423199
0.0040582
0.00388454
0.00371098
0.00353755
0.00336422
0.003191
0.00301788
0.00284486
0.00267194
0.00249911
0.00232636
0.0021537
0.00198111
0.0018086
0.00163615
0.00146376
0.00129142
0.00111913
0.000946889
0.000774678
0.000602497
0.000430339
0.000258197
8.60646e-05
0.000116419
0.000349263
0.000582123
0.000815009
0.00104793
0.0012809
0.00151393
0.00174702
0.00198019
0.00221345
0.0024468
0.00268025
0.00291381
0.00314749
0.0033813
0.00361523
0.00384931
0.00408352
0.00431788
0.00455239
0.00478705
0.00502187
0.00525683
0.00549195
0.00572722
0.00596265
0.00619821
0.00643392
0.00666976
0.00690573
0.00714182
0.00737802
0.00761431
0.00785068
0.00808713
0.00832363
0.00856016
0.00879671
0.00903325
0.00926976
0.00950621
0.00974258
0.00997884
0.010215
0.0104509
0.0106866
0.0109221
0.0111573
0.0113922
0.0116267
0.0118608
0.0120944
0.0123275
0.01256
0.0127919
0.0130232
0.0132536
0.0134833
0.0137121
0.01394
0.0141669
0.0143927
0.0146173
0.0148407
0.0150629
0.0152836
0.0155029
0.0157206
0.0159367
0.016151
0.0163636
0.0165742
0.0167829
0.0169895
0.0171938
0.0173959
0.0175957
0.0177929
0.0179875
0.0181795
0.0183687
0.018555
0.0187383
0.0189185
0.0190955
0.0192693
0.0194396
0.0196064
0.0197697
0.0199292
0.0200849
0.0202368
0.0203846
0.0205284
0.020668
0.0208034
0.0209344
0.0210609
0.021183
0.0213004
0.0214132
0.0215213
0.0216245
0.0217228
0.0218162
0.0219046
0.021988
0.0220662
0.0221393
0.0222072
0.0222698
0.0223272
0.0223793
0.022426
0.0224674
0.0225035
0.0225342
0.0225595
0.0225794
0.0225939
0.0226031
0.0226069
0.0226054
0.0225986
0.0225864
0.022569
0.0225464
0.0225185
0.0224855
0.0224474
0.0224042
0.022356
0.0223029
0.0222448
0.022182
0.0221143
0.022042
0.021965
0.0218835
0.0217975
0.0217071
0.0216124
0.0215134
0.0214103
0.0213031
0.0211919
0.0210768
0.0209579
0.0208353
0.0207091
0.0205793
0.0204461
0.0203095
0.0201697
0.0200267
0.0198806
0.0197316
0.0195796
0.0194248
0.0192674
0.0191072
0.0189446
0.0187795
0.0186121
0.0184423
0.0182704
0.0180964
0.0179203
0.0177423
0.0175624
0.0173808
0.0171974
0.0170124
0.0168259
0.0166378
0.0164484
0.0162575
0.0160654
0.0158721
0.0156776
0.0154821
0.0152855
0.0150879
0.0148894
0.01469
0.0144899
0.0142889
0.0140873
0.013885
0.0136821
0.0134786
0.0132746
0.0130701
0.0128652
0.0126599
0.0124542
0.0122481
0.0120418
0.0118352
0.0116283
0.0114213
0.011214
0.0110066
0.0107991
0.0105915
0.0103838
0.010176
0.00996816
0.00976032
0.00955248
0.00934464
0.00913683
0.00892907
0.00872135
0.0085137
0.00830613
0.00809865
0.00789126
0.00768398
0.0074768
0.00726975
0.00706283
0.00685603
0.00664937
0.00644284
0.00623646
0.00603021
0.00582411
0.00561816
0.00541235
0.00520668
0.00500116
0.00479578
0.00459055
0.00438544
0.00418048
0.00397564
0.00377093
0.00356635
0.00336188
0.00315753
0.00295329
0.00274914
0.0025451
0.00234115
0.00213728
0.00193349
0.00172977
0.00152611
0.00132252
0.00111897
0.000915461
0.000711989
0.000508544
0.000305119
0.000101705
0.000134316
0.000402953
0.000671609
0.000940296
0.00120903
0.00147781
0.00174666
0.00201559
0.00228461
0.00255372
0.00282295
0.0030923
0.00336177
0.00363139
0.00390115
0.00417106
0.00444113
0.00471137
0.00498178
0.00525236
0.00552311
0.00579405
0.00606517
0.00633647
0.00660794
0.00687959
0.00715141
0.0074234
0.00769554
0.00796784
0.00824028
0.00851284
0.00878552
0.00905831
0.00933117
0.0096041
0.00987708
0.0101501
0.0104231
0.010696
0.0109689
0.0112418
0.0115144
0.011787
0.0120593
0.0123314
0.0126032
0.0128747
0.0131459
0.0134166
0.0136868
0.0139565
0.0142256
0.014494
0.0147618
0.0150287
0.0152948
0.01556
0.0158242
0.0160873
0.0163493
0.01661
0.0168694
0.0171274
0.0173839
0.0176389
0.0178921
0.0181435
0.0183931
0.0186407
0.0188862
0.0191295
0.0193705
0.0196091
0.0198452
0.0200787
0.0203094
0.0205372
0.0207621
0.0209838
0.0212024
0.0214176
0.0216294
0.0218376
0.0220422
0.0222429
0.0224397
0.0226325
0.0228211
0.0230054
0.0231854
0.0233609
0.0235317
0.0236979
0.0238592
0.0240156
0.024167
0.0243132
0.0244543
0.02459
0.0247203
0.0248452
0.0249645
0.0250781
0.025186
0.0252882
0.0253845
0.0254749
0.0255593
0.0256377
0.0257101
0.0257764
0.0258365
0.0258905
0.0259384
0.02598
0.0260154
0.0260446
0.0260676
0.0260844
0.0260949
0.0260993
0.0260975
0.0260895
0.0260754
0.0260552
0.026029
0.0259968
0.0259586
0.0259144
0.0258645
0.0258087
0.0257473
0.0256801
0.0256074
0.0255292
0.0254455
0.0253565
0.0252622
0.0251628
0.0250583
0.0249488
0.0248343
0.0247151
0.0245912
0.0244627
0.0243297
0.0241922
0.0240505
0.0239046
0.0237547
0.0236007
0.0234429
0.0232813
0.023116
0.0229472
0.022775
0.0225994
0.0224206
0.0222386
0.0220537
0.0218658
0.021675
0.0214816
0.0212855
0.0210869
0.0208859
0.0206825
0.0204769
0.0202692
0.0200594
0.0198476
0.019634
0.0194185
0.0192013
0.0189825
0.0187622
0.0185403
0.0183171
0.0180925
0.0178667
0.0176397
0.0174116
0.0171824
0.0169522
0.0167211
0.0164892
0.0162564
0.0160228
0.0157886
0.0155537
0.0153182
0.0150821
0.0148456
0.0146086
0.0143711
0.0141333
0.0138951
0.0136566
0.0134179
0.0131789
0.0129397
0.0127003
0.0124608
0.0122212
0.0119814
0.0117416
0.0115018
0.0112619
0.0110221
0.0107822
0.0105424
0.0103026
0.0100629
0.0098233
0.00958377
0.00934434
0.00910502
0.00886583
0.00862677
0.00838785
0.00814907
0.00791045
0.00767198
0.00743367
0.00719553
0.00695756
0.00671975
0.00648211
0.00624463
0.00600733
0.0057702
0.00553322
0.00529642
0.00505977
0.00482328
0.00458694
0.00435075
0.0041147
0.00387879
0.00364301
0.00340736
0.00317183
0.00293641
0.0027011
0.00246588
0.00223076
0.00199572
0.00176075
0.00152585
0.001291
0.00105621
0.000821453
0.00058673
0.000352029
0.000117342
0.000152206
0.000456625
0.000761066
0.00106554
0.00137007
0.00167465
0.00197932
0.00228407
0.00258892
0.00289389
0.00319899
0.00350422
0.0038096
0.00411514
0.00442084
0.00472673
0.00503279
0.00533904
0.00564549
0.00595214
0.006259
0.00656606
0.00687333
0.0071808
0.00748848
0.00779636
0.00810444
0.00841272
0.00872118
0.00902981
0.00933861
0.00964755
0.00995664
0.0102658
0.0105751
0.0108845
0.011194
0.0115034
0.0118129
0.0121224
0.0124318
0.012741
0.0130502
0.0133592
0.013668
0.0139765
0.0142847
0.0145925
0.0148999
0.0152069
0.0155133
0.0158191
0.0161243
0.0164288
0.0167324
0.0170352
0.017337
0.0176377
0.0179374
0.0182358
0.018533
0.0188287
0.019123
0.0194156
0.0197066
0.0199958
0.0202831
0.0205684
0.0208515
0.0211325
0.021411
0.0216871
0.0219606
0.0222313
0.0224992
0.0227641
0.0230259
0.0232845
0.0235397
0.0237914
0.0240395
0.0242837
0.0245241
0.0247605
0.0249926
0.0252205
0.0254439
0.0256627
0.0258768
0.0260861
0.0262904
0.0264895
0.0266835
0.0268721
0.0270553
0.0272328
0.0274047
0.0275707
0.0277309
0.027885
0.0280329
0.0281746
0.0283101
0.0284391
0.0285616
0.0286775
0.0287869
0.0288895
0.0289853
0.0290743
0.0291565
0.0292317
0.0293
0.0293612
0.0294155
0.0294627
0.0295029
0.029536
0.029562
0.029581
0.0295929
0.0295978
0.0295957
0.0295866
0.0295705
0.0295475
0.0295177
0.029481
0.0294375
0.0293874
0.0293306
0.0292672
0.0291973
0.029121
0.0290384
0.0289495
0.0288544
0.0287533
0.0286462
0.0285332
0.0284144
0.02829
0.0281601
0.0280247
0.0278839
0.027738
0.0275869
0.0274309
0.0272699
0.0271043
0.026934
0.0267592
0.02658
0.0263965
0.0262089
0.0260173
0.0258218
0.0256225
0.0254195
0.025213
0.025003
0.0247897
0.0245733
0.0243537
0.0241312
0.0239059
0.0236777
0.023447
0.0232137
0.022978
0.0227399
0.0224997
0.0222573
0.0220128
0.0217665
0.0215183
0.0212683
0.0210166
0.0207634
0.0205087
0.0202526
0.0199951
0.0197364
0.0194764
0.0192154
0.0189533
0.0186902
0.0184262
0.0181614
0.0178957
0.0176294
0.0173623
0.0170947
0.0168264
0.0165577
0.0162884
0.0160188
0.0157487
0.0154783
0.0152076
0.0149367
0.0146655
0.0143941
0.0141226
0.0138509
0.0135792
0.0133073
0.0130355
0.0127636
0.0124916
0.0122198
0.0119479
0.0116761
0.0114044
0.0111328
0.0108613
0.0105899
0.0103187
0.0100476
0.0097766
0.0095058
0.00923517
0.00896471
0.00869444
0.00842435
0.00815444
0.00788473
0.00761521
0.00734589
0.00707675
0.00680781
0.00653906
0.0062705
0.00600213
0.00573394
0.00546593
0.00519809
0.00493042
0.00466292
0.00439557
0.00412837
0.00386132
0.00359441
0.00332762
0.00306095
0.0027944
0.00252795
0.00226159
0.00199532
0.00172912
0.00146299
0.00119692
0.000930886
0.000664893
0.000398926
0.000132974
0.000170089
0.000510276
0.000850486
0.00119074
0.00153104
0.00187142
0.00221188
0.00255245
0.00289313
0.00323394
0.00357489
0.00391599
0.00425727
0.00459872
0.00494037
0.00528221
0.00562426
0.00596652
0.00630901
0.00665173
0.00699467
0.00733786
0.00768127
0.00802493
0.00836882
0.00871294
0.00905728
0.00940185
0.00974663
0.0100916
0.0104368
0.0107821
0.0111276
0.0114733
0.011819
0.0121649
0.0125108
0.0128568
0.0132028
0.0135488
0.0138947
0.0142405
0.0145861
0.0149316
0.0152769
0.0156218
0.0159665
0.0163107
0.0166545
0.0169978
0.0173405
0.0176825
0.0180238
0.0183643
0.0187039
0.0190425
0.0193801
0.0197165
0.0200517
0.0203856
0.020718
0.0210489
0.0213781
0.0217055
0.0220311
0.0223547
0.0226761
0.0229954
0.0233122
0.0236266
0.0239383
0.0242473
0.0245533
0.0248563
0.0251562
0.0254527
0.0257457
0.0260352
0.0263208
0.0266026
0.0268803
0.0271538
0.0274229
0.0276875
0.0279474
0.0282025
0.0284526
0.0286976
0.0289373
0.0291717
0.0294004
0.0296235
0.0298407
0.0300519
0.030257
0.0304558
0.0306482
0.0308342
0.0310135
0.031186
0.0313517
0.0315104
0.0316621
0.0318065
0.0319437
0.0320736
0.032196
0.0323109
0.0324182
0.0325178
0.0326098
0.032694
0.0327704
0.032839
0.0328997
0.0329525
0.0329974
0.0330344
0.0330635
0.0330847
0.033098
0.0331034
0.0331009
0.0330906
0.0330725
0.0330467
0.0330131
0.032972
0.0329232
0.0328669
0.0328032
0.0327321
0.0326538
0.0325682
0.0324756
0.0323759
0.0322693
0.032156
0.032036
0.0319094
0.0317763
0.0316369
0.0314913
0.0313396
0.0311819
0.0310184
0.0308491
0.0306743
0.0304941
0.0303085
0.0301178
0.029922
0.0297213
0.0295159
0.0293058
0.0290913
0.0288723
0.0286492
0.0284219
0.0281907
0.0279557
0.0277169
0.0274746
0.0272289
0.0269798
0.0267276
0.0264722
0.026214
0.0259529
0.0256891
0.0254227
0.0251539
0.0248826
0.0246091
0.0243335
0.0240557
0.0237761
0.0234945
0.0232112
0.0229263
0.0226398
0.0223517
0.0220623
0.0217715
0.0214796
0.0211864
0.0208922
0.0205969
0.0203007
0.0200036
0.0197057
0.0194071
0.0191077
0.0188078
0.0185072
0.0182062
0.0179046
0.0176027
0.0173004
0.0169977
0.0166947
0.0163915
0.0160881
0.0157846
0.0154808
0.015177
0.0148731
0.0145691
0.0142652
0.0139612
0.0136573
0.0133534
0.0130496
0.0127458
0.0124422
0.0121387
0.0118354
0.0115322
0.0112291
0.0109263
0.0106236
0.0103211
0.0100188
0.00971671
0.00941483
0.00911317
0.00881172
0.00851049
0.00820947
0.00790868
0.0076081
0.00730774
0.00700759
0.00670766
0.00640793
0.0061084
0.00580907
0.00550993
0.00521097
0.0049122
0.00461359
0.00431514
0.00401685
0.0037187
0.00342069
0.00312281
0.00282504
0.00252738
0.00222981
0.00193233
0.00163492
0.00133758
0.00104028
0.000743031
0.000445807
0.0001486
0.000187965
0.000563903
0.000939867
0.00131588
0.00169195
0.0020681
0.00244435
0.00282071
0.0031972
0.00357383
0.00395063
0.0043276
0.00470476
0.00508212
0.00545969
0.00583748
0.00621551
0.00659378
0.0069723
0.00735108
0.00773012
0.00810942
0.00848899
0.00886882
0.00924892
0.00962928
0.0100099
0.0103908
0.0107719
0.0111532
0.0115348
0.0119165
0.0122985
0.0126806
0.0130628
0.0134452
0.0138277
0.0142102
0.0145927
0.0149752
0.0153577
0.01574
0.0161222
0.0165043
0.0168861
0.0172675
0.0176487
0.0180294
0.0184096
0.0187892
0.0191682
0.0195465
0.0199241
0.0203007
0.0206764
0.021051
0.0214244
0.0217966
0.0221674
0.0225368
0.0229046
0.0232707
0.023635
0.0239973
0.0243576
0.0247157
0.0250714
0.0254247
0.0257754
0.0261233
0.0264683
0.0268103
0.0271491
0.0274846
0.0278165
0.0281447
0.0284692
0.0287896
0.0291059
0.0294179
0.0297253
0.0300281
0.0303261
0.0306191
0.030907
0.0311895
0.0314665
0.0317378
0.0320033
0.0322628
0.0325162
0.0327632
0.0330038
0.0332377
0.0334649
0.0336851
0.0338983
0.0341042
0.0343029
0.034494
0.0346775
0.0348533
0.0350213
0.0351813
0.0353332
0.035477
0.0356126
0.0357398
0.0358587
0.035969
0.0360708
0.0361641
0.0362487
0.0363246
0.0363917
0.0364502
0.0364999
0.0365408
0.0365729
0.0365963
0.0366109
0.0366168
0.0366139
0.0366024
0.0365823
0.0365535
0.0365163
0.0364705
0.0364164
0.0363539
0.0362832
0.0362043
0.0361174
0.0360225
0.0359198
0.0358092
0.0356911
0.0355654
0.0354323
0.035292
0.0351445
0.03499
0.0348285
0.0346604
0.0344857
0.0343045
0.0341169
0.0339232
0.0337235
0.033518
0.0333067
0.0330898
0.0328675
0.0326399
0.0324072
0.0321696
0.0319271
0.03168
0.0314283
0.0311723
0.030912
0.0306477
0.0303794
0.0301073
0.0298316
0.0295523
0.0292697
0.0289838
0.0286948
0.0284028
0.028108
0.0278104
0.0275102
0.0272076
0.0269025
0.0265952
0.0262857
0.0259742
0.0256607
0.0253454
0.0250284
0.0247098
0.0243896
0.0240679
0.0237449
0.0234206
0.0230951
0.0227685
0.0224409
0.0221123
0.0217828
0.0214525
0.0211215
0.0207897
0.0204573
0.0201244
0.0197909
0.019457
0.0191227
0.018788
0.018453
0.0181178
0.0177823
0.0174466
0.0171108
0.0167749
0.0164389