/*--------------------------------*- C++ -*----------------------------------*\
| =========                 |                                                 |
| \\      /  F ield         | OpenFOAM: The Open Source CFD Toolbox           |
|  \\    /   O peration     | Version:  v2012                                 |
|   \\  /    A nd           | Website:  www.openfoam.com                      |
|    \\/     M anipulation  |                                                 |
\*---------------------------------------------------------------------------*/
FoamFile
{
    version     2.0;
    format      ascii;
    class       volVectorField;
    location    "12";
    object      U;
}
// * * * * * * * * * * * * * * * * * * * * * * * * * * * * * * * * * * * * * //

dimensions      [0 1 -1 0 0 0 0];


internalField   nonuniform List<vector> 
65536
(
(0.000731062 -0.000731076 0)
(0.00219322 -0.000731109 0)
(0.00365547 -0.000731172 0)
(0.00511788 -0.000731266 0)
(0.0065805 -0.000731391 0)
(0.00804341 -0.000731546 0)
(0.00950666 -0.000731731 0)
(0.0109703 -0.000731944 0)
(0.0124344 -0.000732185 0)
(0.013899 -0.000732453 0)
(0.0153642 -0.000732745 0)
(0.01683 -0.000733062 0)
(0.0182964 -0.000733401 0)
(0.0197636 -0.00073376 0)
(0.0212315 -0.000734138 0)
(0.0227001 -0.000734533 0)
(0.0241696 -0.000734943 0)
(0.0256399 -0.000735365 0)
(0.027111 -0.000735796 0)
(0.028583 -0.000736235 0)
(0.030056 -0.000736679 0)
(0.0315298 -0.000737123 0)
(0.0330045 -0.000737567 0)
(0.03448 -0.000738005 0)
(0.0359565 -0.000738436 0)
(0.0374338 -0.000738855 0)
(0.0389119 -0.000739258 0)
(0.0403908 -0.000739642 0)
(0.0418705 -0.000740003 0)
(0.0433509 -0.000740336 0)
(0.0448319 -0.000740638 0)
(0.0463135 -0.000740903 0)
(0.0477955 -0.000741127 0)
(0.049278 -0.000741305 0)
(0.0507608 -0.000741433 0)
(0.0522438 -0.000741504 0)
(0.0537269 -0.000741514 0)
(0.0552099 -0.000741458 0)
(0.0566928 -0.000741329 0)
(0.0581753 -0.000741123 0)
(0.0596574 -0.000740832 0)
(0.0611388 -0.000740452 0)
(0.0626193 -0.000739975 0)
(0.0640988 -0.000739396 0)
(0.065577 -0.000738708 0)
(0.0670537 -0.000737905 0)
(0.0685287 -0.000736981 0)
(0.0700018 -0.000735927 0)
(0.0714726 -0.000734738 0)
(0.0729408 -0.000733407 0)
(0.0744063 -0.000731927 0)
(0.0758687 -0.00073029 0)
(0.0773277 -0.00072849 0)
(0.0787828 -0.000726519 0)
(0.0802339 -0.000724371 0)
(0.0816805 -0.000722038 0)
(0.0831223 -0.000719513 0)
(0.0845588 -0.000716789 0)
(0.0859896 -0.000713859 0)
(0.0874144 -0.000710716 0)
(0.0888327 -0.000707352 0)
(0.090244 -0.000703762 0)
(0.091648 -0.000699938 0)
(0.093044 -0.000695873 0)
(0.0944317 -0.000691561 0)
(0.0958105 -0.000686996 0)
(0.09718 -0.000682171 0)
(0.0985395 -0.000677081 0)
(0.0998886 -0.00067172 0)
(0.101227 -0.000666082 0)
(0.102553 -0.000660162 0)
(0.103868 -0.000653956 0)
(0.105169 -0.000647458 0)
(0.106458 -0.000640664 0)
(0.107732 -0.00063357 0)
(0.108992 -0.000626174 0)
(0.110237 -0.000618471 0)
(0.111466 -0.000610459 0)
(0.112679 -0.000602135 0)
(0.113875 -0.000593499 0)
(0.115054 -0.000584548 0)
(0.116214 -0.000575281 0)
(0.117355 -0.000565699 0)
(0.118477 -0.000555801 0)
(0.119579 -0.000545588 0)
(0.12066 -0.000535061 0)
(0.121719 -0.000524222 0)
(0.122757 -0.000513074 0)
(0.123772 -0.000501618 0)
(0.124764 -0.00048986 0)
(0.125732 -0.000477802 0)
(0.126675 -0.00046545 0)
(0.127594 -0.000452809 0)
(0.128487 -0.000439884 0)
(0.129353 -0.000426682 0)
(0.130194 -0.00041321 0)
(0.131007 -0.000399475 0)
(0.131792 -0.000385485 0)
(0.132549 -0.00037125 0)
(0.133277 -0.000356778 0)
(0.133976 -0.000342078 0)
(0.134645 -0.000327161 0)
(0.135285 -0.000312038 0)
(0.135894 -0.000296719 0)
(0.136472 -0.000281216 0)
(0.137019 -0.000265541 0)
(0.137534 -0.000249706 0)
(0.138018 -0.000233723 0)
(0.138469 -0.000217605 0)
(0.138888 -0.000201366 0)
(0.139275 -0.000185018 0)
(0.139629 -0.000168575 0)
(0.139949 -0.000152052 0)
(0.140237 -0.000135461 0)
(0.140491 -0.000118817 0)
(0.140712 -0.000102134 0)
(0.1409 -8.54258e-05 0)
(0.141054 -6.87066e-05 0)
(0.141175 -5.19905e-05 0)
(0.141262 -3.52914e-05 0)
(0.141316 -1.86232e-05 0)
(0.141336 -1.99962e-06 0)
(0.141324 1.45658e-05 0)
(0.141278 3.10597e-05 0)
(0.141199 4.7469e-05 0)
(0.141088 6.37808e-05 0)
(0.140944 7.99824e-05 0)
(0.140768 9.60618e-05 0)
(0.14056 0.000112007 0)
(0.14032 0.000127806 0)
(0.140048 0.000143449 0)
(0.139746 0.000158923 0)
(0.139412 0.00017422 0)
(0.139049 0.000189329 0)
(0.138655 0.00020424 0)
(0.138231 0.000218945 0)
(0.137779 0.000233435 0)
(0.137298 0.000247702 0)
(0.136788 0.000261739 0)
(0.13625 0.000275539 0)
(0.135685 0.000289095 0)
(0.135094 0.0003024 0)
(0.134476 0.000315451 0)
(0.133832 0.000328241 0)
(0.133162 0.000340767 0)
(0.132468 0.000353023 0)
(0.13175 0.000365007 0)
(0.131008 0.000376716 0)
(0.130243 0.000388147 0)
(0.129455 0.000399298 0)
(0.128645 0.000410168 0)
(0.127814 0.000420755 0)
(0.126962 0.000431058 0)
(0.12609 0.000441078 0)
(0.125197 0.000450813 0)
(0.124286 0.000460266 0)
(0.123356 0.000469436 0)
(0.122408 0.000478325 0)
(0.121443 0.000486935 0)
(0.12046 0.000495267 0)
(0.119461 0.000503323 0)
(0.118446 0.000511106 0)
(0.117416 0.00051862 0)
(0.116372 0.000525866 0)
(0.115313 0.000532848 0)
(0.11424 0.00053957 0)
(0.113154 0.000546035 0)
(0.112056 0.000552248 0)
(0.110945 0.000558212 0)
(0.109823 0.000563932 0)
(0.108689 0.000569412 0)
(0.107545 0.000574657 0)
(0.10639 0.000579672 0)
(0.105226 0.000584461 0)
(0.104052 0.00058903 0)
(0.102869 0.000593383 0)
(0.101678 0.000597525 0)
(0.100479 0.000601463 0)
(0.0992723 0.0006052 0)
(0.0980582 0.000608742 0)
(0.0968372 0.000612095 0)
(0.0956096 0.000615263 0)
(0.0943759 0.000618253 0)
(0.0931364 0.000621069 0)
(0.0918915 0.000623716 0)
(0.0906414 0.000626201 0)
(0.0893865 0.000628528 0)
(0.0881271 0.000630702 0)
(0.0868636 0.000632729 0)
(0.0855961 0.000634614 0)
(0.084325 0.000636362 0)
(0.0830505 0.000637978 0)
(0.0817729 0.000639467 0)
(0.0804925 0.000640834 0)
(0.0792095 0.000642084 0)
(0.0779241 0.000643222 0)
(0.0766365 0.000644252 0)
(0.075347 0.000645179 0)
(0.0740557 0.000646007 0)
(0.0727628 0.000646742 0)
(0.0714686 0.000647388 0)
(0.0701732 0.000647948 0)
(0.0688767 0.000648428 0)
(0.0675794 0.000648831 0)
(0.0662814 0.000649161 0)
(0.0649827 0.000649422 0)
(0.0636836 0.000649619 0)
(0.0623842 0.000649755 0)
(0.0610845 0.000649833 0)
(0.0597848 0.000649858 0)
(0.0584851 0.000649832 0)
(0.0571854 0.00064976 0)
(0.055886 0.000649644 0)
(0.0545868 0.000649488 0)
(0.053288 0.000649295 0)
(0.0519896 0.000649068 0)
(0.0506917 0.00064881 0)
(0.0493943 0.000648524 0)
(0.0480976 0.000648212 0)
(0.0468015 0.000647877 0)
(0.045506 0.000647523 0)
(0.0442113 0.000647151 0)
(0.0429174 0.000646763 0)
(0.0416243 0.000646363 0)
(0.040332 0.000645952 0)
(0.0390405 0.000645533 0)
(0.0377498 0.000645108 0)
(0.03646 0.000644678 0)
(0.0351711 0.000644247 0)
(0.033883 0.000643814 0)
(0.0325959 0.000643383 0)
(0.0313095 0.000642955 0)
(0.030024 0.000642532 0)
(0.0287394 0.000642115 0)
(0.0274556 0.000641706 0)
(0.0261726 0.000641306 0)
(0.0248904 0.000640917 0)
(0.0236089 0.000640539 0)
(0.0223282 0.000640174 0)
(0.0210483 0.000639824 0)
(0.019769 0.000639488 0)
(0.0184903 0.000639169 0)
(0.0172123 0.000638867 0)
(0.0159349 0.000638583 0)
(0.014658 0.000638317 0)
(0.0133816 0.000638072 0)
(0.0121057 0.000637846 0)
(0.0108303 0.000637641 0)
(0.00955519 0.000637458 0)
(0.00828046 0.000637297 0)
(0.00700603 0.000637157 0)
(0.00573185 0.000637041 0)
(0.00445789 0.000636947 0)
(0.00318409 0.000636877 0)
(0.00191041 0.00063683 0)
(0.000636795 0.000636806 0)
(0.000731031 -0.0021932 0)
(0.00219312 -0.0021933 0)
(0.00365531 -0.00219349 0)
(0.00511766 -0.00219377 0)
(0.00658023 -0.00219415 0)
(0.00804308 -0.00219461 0)
(0.00950627 -0.00219517 0)
(0.0109699 -0.00219581 0)
(0.0124339 -0.00219653 0)
(0.0138985 -0.00219733 0)
(0.0153636 -0.00219821 0)
(0.0168293 -0.00219917 0)
(0.0182957 -0.00220018 0)
(0.0197628 -0.00220126 0)
(0.0212307 -0.0022024 0)
(0.0226993 -0.00220359 0)
(0.0241688 -0.00220482 0)
(0.025639 -0.00220609 0)
(0.0271102 -0.00220738 0)
(0.0285822 -0.0022087 0)
(0.0300551 -0.00221004 0)
(0.0315289 -0.00221137 0)
(0.0330036 -0.00221271 0)
(0.0344792 -0.00221403 0)
(0.0359557 -0.00221532 0)
(0.037433 -0.00221658 0)
(0.0389112 -0.00221779 0)
(0.0403901 -0.00221895 0)
(0.0418698 -0.00222004 0)
(0.0433503 -0.00222104 0)
(0.0448313 -0.00222195 0)
(0.046313 -0.00222275 0)
(0.0477952 -0.00222343 0)
(0.0492777 -0.00222397 0)
(0.0507606 -0.00222435 0)
(0.0522438 -0.00222457 0)
(0.053727 -0.00222461 0)
(0.0552101 -0.00222445 0)
(0.0566932 -0.00222407 0)
(0.0581759 -0.00222345 0)
(0.0596581 -0.00222259 0)
(0.0611396 -0.00222145 0)
(0.0626204 -0.00222003 0)
(0.0641 -0.0022183 0)
(0.0655785 -0.00221624 0)
(0.0670555 -0.00221384 0)
(0.0685307 -0.00221107 0)
(0.070004 -0.00220792 0)
(0.0714751 -0.00220436 0)
(0.0729437 -0.00220037 0)
(0.0744095 -0.00219594 0)
(0.0758722 -0.00219103 0)
(0.0773314 -0.00218564 0)
(0.078787 -0.00217973 0)
(0.0802384 -0.0021733 0)
(0.0816854 -0.00216631 0)
(0.0831275 -0.00215874 0)
(0.0845644 -0.00215057 0)
(0.0859957 -0.00214179 0)
(0.0874209 -0.00213237 0)
(0.0888397 -0.00212228 0)
(0.0902515 -0.00211152 0)
(0.0916559 -0.00210005 0)
(0.0930524 -0.00208786 0)
(0.0944406 -0.00207494 0)
(0.0958199 -0.00206125 0)
(0.0971899 -0.00204678 0)
(0.0985499 -0.00203151 0)
(0.0998996 -0.00201544 0)
(0.101238 -0.00199853 0)
(0.102565 -0.00198077 0)
(0.10388 -0.00196216 0)
(0.105183 -0.00194267 0)
(0.106472 -0.00192229 0)
(0.107747 -0.00190101 0)
(0.109007 -0.00187883 0)
(0.110253 -0.00185572 0)
(0.111483 -0.00183169 0)
(0.112696 -0.00180672 0)
(0.113893 -0.00178081 0)
(0.115072 -0.00175396 0)
(0.116233 -0.00172616 0)
(0.117375 -0.00169741 0)
(0.118497 -0.00166772 0)
(0.119599 -0.00163707 0)
(0.120681 -0.00160549 0)
(0.121741 -0.00157297 0)
(0.122779 -0.00153953 0)
(0.123795 -0.00150516 0)
(0.124787 -0.00146988 0)
(0.125756 -0.0014337 0)
(0.1267 -0.00139664 0)
(0.127619 -0.00135871 0)
(0.128513 -0.00131993 0)
(0.12938 -0.00128031 0)
(0.130221 -0.00123989 0)
(0.131034 -0.00119868 0)
(0.13182 -0.0011567 0)
(0.132577 -0.00111398 0)
(0.133306 -0.00107056 0)
(0.134006 -0.00102645 0)
(0.134676 -0.000981688 0)
(0.135315 -0.000936308 0)
(0.135925 -0.00089034 0)
(0.136503 -0.000843819 0)
(0.13705 -0.000796781 0)
(0.137566 -0.000749262 0)
(0.13805 -0.0007013 0)
(0.138502 -0.000652934 0)
(0.138921 -0.000604202 0)
(0.139308 -0.000555146 0)
(0.139661 -0.000505804 0)
(0.139982 -0.00045622 0)
(0.14027 -0.000406434 0)
(0.140524 -0.000356488 0)
(0.140745 -0.000306424 0)
(0.140933 -0.000256286 0)
(0.141087 -0.000206114 0)
(0.141208 -0.000155952 0)
(0.141295 -0.000105841 0)
(0.141349 -5.58227e-05 0)
(0.141369 -5.93841e-06 0)
(0.141357 4.37712e-05 0)
(0.141311 9.3266e-05 0)
(0.141232 0.000142507 0)
(0.14112 0.000191454 0)
(0.140976 0.000240072 0)
(0.1408 0.000288322 0)
(0.140591 0.000336169 0)
(0.140351 0.000383578 0)
(0.140079 0.000430515 0)
(0.139776 0.00047695 0)
(0.139443 0.000522849 0)
(0.139079 0.000568185 0)
(0.138684 0.000612928 0)
(0.138261 0.000657051 0)
(0.137808 0.000700529 0)
(0.137326 0.000743339 0)
(0.136816 0.000785456 0)
(0.136278 0.000826862 0)
(0.135712 0.000867535 0)
(0.13512 0.000907458 0)
(0.134501 0.000946614 0)
(0.133857 0.00098499 0)
(0.133187 0.00102257 0)
(0.132492 0.00105934 0)
(0.131774 0.0010953 0)
(0.131031 0.00113043 0)
(0.130265 0.00116472 0)
(0.129477 0.00119818 0)
(0.128667 0.00123079 0)
(0.127835 0.00126255 0)
(0.126982 0.00129346 0)
(0.126109 0.00132352 0)
(0.125217 0.00135272 0)
(0.124305 0.00138108 0)
(0.123374 0.00140859 0)
(0.122426 0.00143526 0)
(0.121459 0.00146108 0)
(0.120476 0.00148608 0)
(0.119477 0.00151024 0)
(0.118462 0.00153359 0)
(0.117431 0.00155613 0)
(0.116386 0.00157786 0)
(0.115326 0.0015988 0)
(0.114253 0.00161897 0)
(0.113167 0.00163836 0)
(0.112068 0.00165699 0)
(0.110957 0.00167488 0)
(0.109834 0.00169203 0)
(0.1087 0.00170847 0)
(0.107555 0.0017242 0)
(0.1064 0.00173924 0)
(0.105235 0.0017536 0)
(0.104061 0.0017673 0)
(0.102878 0.00178036 0)
(0.101686 0.00179278 0)
(0.100487 0.00180459 0)
(0.0992795 0.00181579 0)
(0.098065 0.00182642 0)
(0.0968436 0.00183647 0)
(0.0956157 0.00184597 0)
(0.0943817 0.00185493 0)
(0.0931418 0.00186337 0)
(0.0918965 0.00187131 0)
(0.0906461 0.00187876 0)
(0.089391 0.00188574 0)
(0.0881313 0.00189225 0)
(0.0868674 0.00189833 0)
(0.0855997 0.00190398 0)
(0.0843283 0.00190922 0)
(0.0830535 0.00191406 0)
(0.0817757 0.00191852 0)
(0.0804951 0.00192262 0)
(0.0792118 0.00192636 0)
(0.0779262 0.00192977 0)
(0.0766384 0.00193286 0)
(0.0753487 0.00193563 0)
(0.0740572 0.00193811 0)
(0.0727642 0.00194031 0)
(0.0714698 0.00194225 0)
(0.0701742 0.00194392 0)
(0.0688776 0.00194536 0)
(0.0675801 0.00194656 0)
(0.0662819 0.00194755 0)
(0.0649831 0.00194833 0)
(0.0636839 0.00194892 0)
(0.0623843 0.00194932 0)
(0.0610846 0.00194955 0)
(0.0597847 0.00194962 0)
(0.0584849 0.00194954 0)
(0.0571852 0.00194932 0)
(0.0558857 0.00194897 0)
(0.0545864 0.0019485 0)
(0.0532875 0.00194792 0)
(0.0519891 0.00194723 0)
(0.0506911 0.00194646 0)
(0.0493937 0.00194559 0)
(0.0480969 0.00194466 0)
(0.0468007 0.00194365 0)
(0.0455053 0.00194258 0)
(0.0442106 0.00194146 0)
(0.0429166 0.0019403 0)
(0.0416234 0.0019391 0)
(0.0403311 0.00193786 0)
(0.0390396 0.0019366 0)
(0.0377489 0.00193533 0)
(0.0364591 0.00193404 0)
(0.0351702 0.00193274 0)
(0.0338822 0.00193144 0)
(0.032595 0.00193014 0)
(0.0313086 0.00192886 0)
(0.0300232 0.00192759 0)
(0.0287386 0.00192634 0)
(0.0274548 0.00192511 0)
(0.0261718 0.00192391 0)
(0.0248896 0.00192274 0)
(0.0236082 0.0019216 0)
(0.0223275 0.00192051 0)
(0.0210476 0.00191945 0)
(0.0197683 0.00191845 0)
(0.0184897 0.00191749 0)
(0.0172117 0.00191658 0)
(0.0159343 0.00191573 0)
(0.0146575 0.00191493 0)
(0.0133811 0.00191419 0)
(0.0121053 0.00191352 0)
(0.0108299 0.0019129 0)
(0.00955484 0.00191235 0)
(0.00828015 0.00191187 0)
(0.00700577 0.00191145 0)
(0.00573164 0.0019111 0)
(0.00445772 0.00191082 0)
(0.00318397 0.0019106 0)
(0.00191034 0.00191047 0)
(0.000636771 0.0019104 0)
(0.000730967 -0.00365523 0)
(0.00219293 -0.00365539 0)
(0.003655 -0.00365571 0)
(0.00511722 -0.00365618 0)
(0.00657966 -0.00365681 0)
(0.00804239 -0.00365759 0)
(0.00950547 -0.00365852 0)
(0.0109689 -0.00365959 0)
(0.0124329 -0.0036608 0)
(0.0138973 -0.00366214 0)
(0.0153624 -0.00366361 0)
(0.016828 -0.0036652 0)
(0.0182943 -0.0036669 0)
(0.0197614 -0.00366871 0)
(0.0212291 -0.00367061 0)
(0.0226977 -0.0036726 0)
(0.0241671 -0.00367466 0)
(0.0256373 -0.00367678 0)
(0.0271084 -0.00367895 0)
(0.0285804 -0.00368116 0)
(0.0300533 -0.00368339 0)
(0.0315271 -0.00368563 0)
(0.0330018 -0.00368786 0)
(0.0344774 -0.00369007 0)
(0.0359539 -0.00369224 0)
(0.0374313 -0.00369435 0)
(0.0389096 -0.00369639 0)
(0.0403886 -0.00369833 0)
(0.0418684 -0.00370015 0)
(0.043349 -0.00370184 0)
(0.0448302 -0.00370337 0)
(0.046312 -0.00370472 0)
(0.0477943 -0.00370586 0)
(0.0492771 -0.00370678 0)
(0.0507602 -0.00370744 0)
(0.0522436 -0.00370783 0)
(0.053727 -0.00370791 0)
(0.0552105 -0.00370765 0)
(0.0566938 -0.00370704 0)
(0.0581768 -0.00370603 0)
(0.0596594 -0.00370461 0)
(0.0611413 -0.00370274 0)
(0.0626224 -0.00370039 0)
(0.0641025 -0.00369752 0)
(0.0655814 -0.00369412 0)
(0.0670589 -0.00369014 0)
(0.0685346 -0.00368555 0)
(0.0700085 -0.00368031 0)
(0.0714801 -0.0036744 0)
(0.0729493 -0.00366778 0)
(0.0744157 -0.00366041 0)
(0.075879 -0.00365227 0)
(0.077339 -0.0036433 0)
(0.0787952 -0.00363348 0)
(0.0802473 -0.00362278 0)
(0.0816951 -0.00361115 0)
(0.083138 -0.00359856 0)
(0.0845757 -0.00358498 0)
(0.0860078 -0.00357036 0)
(0.0874339 -0.00355468 0)
(0.0888535 -0.0035379 0)
(0.0902663 -0.00351998 0)
(0.0916716 -0.00350089 0)
(0.0930691 -0.0034806 0)
(0.0944583 -0.00345907 0)
(0.0958387 -0.00343627 0)
(0.0972097 -0.00341218 0)
(0.0985708 -0.00338676 0)
(0.0999215 -0.00335998 0)
(0.101261 -0.00333182 0)
(0.10259 -0.00330224 0)
(0.103906 -0.00327123 0)
(0.105209 -0.00323876 0)
(0.106499 -0.00320481 0)
(0.107776 -0.00316936 0)
(0.109038 -0.0031324 0)
(0.110284 -0.0030939 0)
(0.111515 -0.00305385 0)
(0.11273 -0.00301224 0)
(0.113928 -0.00296906 0)
(0.115108 -0.00292431 0)
(0.11627 -0.00287798 0)
(0.117414 -0.00283007 0)
(0.118537 -0.00278058 0)
(0.119641 -0.0027295 0)
(0.120724 -0.00267686 0)
(0.121785 -0.00262265 0)
(0.122825 -0.0025669 0)
(0.123841 -0.0025096 0)
(0.124835 -0.00245079 0)
(0.125805 -0.00239048 0)
(0.12675 -0.00232869 0)
(0.12767 -0.00226546 0)
(0.128565 -0.0022008 0)
(0.129433 -0.00213476 0)
(0.130275 -0.00206736 0)
(0.13109 -0.00199864 0)
(0.131876 -0.00192865 0)
(0.132635 -0.00185743 0)
(0.133365 -0.00178502 0)
(0.134065 -0.00171147 0)
(0.134736 -0.00163684 0)
(0.135376 -0.00156116 0)
(0.135986 -0.00148451 0)
(0.136566 -0.00140694 0)
(0.137113 -0.0013285 0)
(0.13763 -0.00124926 0)
(0.138114 -0.00116928 0)
(0.138566 -0.00108863 0)
(0.138986 -0.00100736 0)
(0.139373 -0.000925558 0)
(0.139728 -0.000843277 0)
(0.140049 -0.00076059 0)
(0.140337 -0.000677566 0)
(0.140591 -0.000594276 0)
(0.140812 -0.00051079 0)
(0.141 -0.000427179 0)
(0.141154 -0.000343513 0)
(0.141275 -0.000259863 0)
(0.141362 -0.000176298 0)
(0.141416 -9.28885e-05 0)
(0.141436 -9.70275e-06 0)
(0.141423 7.31912e-05 0)
(0.141377 0.000155726 0)
(0.141297 0.000237837 0)
(0.141185 0.000319459 0)
(0.141041 0.000400528 0)
(0.140864 0.000480984 0)
(0.140655 0.000560768 0)
(0.140414 0.00063982 0)
(0.140142 0.000718086 0)
(0.139838 0.00079551 0)
(0.139504 0.000872043 0)
(0.139139 0.000947633 0)
(0.138744 0.00102223 0)
(0.138319 0.0010958 0)
(0.137865 0.00116829 0)
(0.137382 0.00123967 0)
(0.136871 0.00130989 0)
(0.136332 0.00137892 0)
(0.135766 0.00144673 0)
(0.135173 0.00151328 0)
(0.134553 0.00157856 0)
(0.133908 0.00164253 0)
(0.133237 0.00170518 0)
(0.132541 0.00176648 0)
(0.131821 0.00182642 0)
(0.131077 0.00188497 0)
(0.130311 0.00194214 0)
(0.129521 0.0019979 0)
(0.12871 0.00205226 0)
(0.127877 0.00210519 0)
(0.127023 0.00215671 0)
(0.126149 0.00220681 0)
(0.125255 0.00225549 0)
(0.124342 0.00230274 0)
(0.12341 0.00234859 0)
(0.122461 0.00239303 0)
(0.121493 0.00243606 0)
(0.120509 0.00247771 0)
(0.119509 0.00251798 0)
(0.118492 0.00255688 0)
(0.117461 0.00259443 0)
(0.116414 0.00263065 0)
(0.115354 0.00266554 0)
(0.11428 0.00269913 0)
(0.113192 0.00273144 0)
(0.112092 0.00276248 0)
(0.11098 0.00279228 0)
(0.109856 0.00282086 0)
(0.108721 0.00284824 0)
(0.107575 0.00287444 0)
(0.10642 0.00289949 0)
(0.105254 0.00292341 0)
(0.104079 0.00294623 0)
(0.102895 0.00296797 0)
(0.101703 0.00298865 0)
(0.100502 0.00300831 0)
(0.0992941 0.00302697 0)
(0.0980788 0.00304466 0)
(0.0968567 0.00306139 0)
(0.095628 0.00307721 0)
(0.0943933 0.00309213 0)
(0.0931528 0.00310618 0)
(0.0919068 0.0031194 0)
(0.0906558 0.00313179 0)
(0.0894 0.0031434 0)
(0.0881397 0.00315425 0)
(0.0868752 0.00316435 0)
(0.0856069 0.00317375 0)
(0.084335 0.00318247 0)
(0.0830598 0.00319052 0)
(0.0817815 0.00319794 0)
(0.0805003 0.00320475 0)
(0.0792166 0.00321098 0)
(0.0779305 0.00321664 0)
(0.0766423 0.00322177 0)
(0.0753522 0.00322638 0)
(0.0740603 0.0032305 0)
(0.0727669 0.00323416 0)
(0.0714722 0.00323736 0)
(0.0701763 0.00324014 0)
(0.0688794 0.00324252 0)
(0.0675816 0.00324451 0)
(0.0662831 0.00324614 0)
(0.064984 0.00324743 0)
(0.0636846 0.0032484 0)
(0.0623848 0.00324906 0)
(0.0610848 0.00324943 0)
(0.0597847 0.00324954 0)
(0.0584847 0.00324939 0)
(0.0571848 0.00324901 0)
(0.0558851 0.00324842 0)
(0.0545857 0.00324762 0)
(0.0532867 0.00324664 0)
(0.0519881 0.00324549 0)
(0.05069 0.00324419 0)
(0.0493925 0.00324274 0)
(0.0480956 0.00324117 0)
(0.0467994 0.00323948 0)
(0.0455038 0.0032377 0)
(0.044209 0.00323582 0)
(0.042915 0.00323388 0)
(0.0416218 0.00323186 0)
(0.0403294 0.0032298 0)
(0.0390379 0.00322769 0)
(0.0377472 0.00322556 0)
(0.0364574 0.0032234 0)
(0.0351685 0.00322123 0)
(0.0338804 0.00321906 0)
(0.0325933 0.0032169 0)
(0.0313069 0.00321475 0)
(0.0300215 0.00321263 0)
(0.0287369 0.00321053 0)
(0.0274531 0.00320848 0)
(0.0261702 0.00320647 0)
(0.0248881 0.00320452 0)
(0.0236067 0.00320263 0)
(0.0223261 0.0032008 0)
(0.0210462 0.00319904 0)
(0.019767 0.00319736 0)
(0.0184884 0.00319575 0)
(0.0172105 0.00319424 0)
(0.0159332 0.00319281 0)
(0.0146565 0.00319148 0)
(0.0133802 0.00319025 0)
(0.0121044 0.00318912 0)
(0.0108291 0.0031881 0)
(0.00955415 0.00318718 0)
(0.00827955 0.00318637 0)
(0.00700526 0.00318567 0)
(0.00573122 0.00318508 0)
(0.00445739 0.00318461 0)
(0.00318374 0.00318426 0)
(0.00191019 0.00318403 0)
(0.000636724 0.00318391 0)
(0.000730871 -0.0051171 0)
(0.00219265 -0.00511733 0)
(0.00365452 -0.00511777 0)
(0.00511655 -0.00511844 0)
(0.00657881 -0.00511932 0)
(0.00804136 -0.00512042 0)
(0.00950426 -0.00512172 0)
(0.0109676 -0.00512323 0)
(0.0124313 -0.00512493 0)
(0.0138956 -0.00512682 0)
(0.0153605 -0.00512889 0)
(0.016826 -0.00513112 0)
(0.0182922 -0.00513352 0)
(0.0197591 -0.00513606 0)
(0.0212268 -0.00513874 0)
(0.0226952 -0.00514153 0)
(0.0241645 -0.00514443 0)
(0.0256347 -0.00514742 0)
(0.0271058 -0.00515048 0)
(0.0285777 -0.00515359 0)
(0.0300506 -0.00515673 0)
(0.0315244 -0.00515989 0)
(0.0329991 -0.00516304 0)
(0.0344748 -0.00516615 0)
(0.0359513 -0.00516922 0)
(0.0374288 -0.0051722 0)
(0.0389071 -0.00517508 0)
(0.0403863 -0.00517782 0)
(0.0418663 -0.00518041 0)
(0.043347 -0.0051828 0)
(0.0448284 -0.00518497 0)
(0.0463105 -0.00518689 0)
(0.0477931 -0.00518853 0)
(0.0492761 -0.00518985 0)
(0.0507595 -0.00519081 0)
(0.0522432 -0.00519139 0)
(0.0537271 -0.00519154 0)
(0.055211 -0.00519122 0)
(0.0566947 -0.0051904 0)
(0.0581782 -0.00518903 0)
(0.0596613 -0.00518708 0)
(0.0611438 -0.00518451 0)
(0.0626255 -0.00518126 0)
(0.0641063 -0.00517729 0)
(0.0655858 -0.00517257 0)
(0.067064 -0.00516704 0)
(0.0685405 -0.00516066 0)
(0.0700151 -0.00515338 0)
(0.0714876 -0.00514516 0)
(0.0729576 -0.00513594 0)
(0.0744249 -0.00512567 0)
(0.0758892 -0.00511432 0)
(0.0773502 -0.00510181 0)
(0.0788074 -0.00508812 0)
(0.0802607 -0.00507318 0)
(0.0817096 -0.00505695 0)
(0.0831536 -0.00503938 0)
(0.0845926 -0.00502041 0)
(0.086026 -0.005 0)
(0.0874533 -0.00497809 0)
(0.0888743 -0.00495464 0)
(0.0902884 -0.00492961 0)
(0.0916952 -0.00490293 0)
(0.0930942 -0.00487457 0)
(0.0944849 -0.00484447 0)
(0.0958668 -0.0048126 0)
(0.0972394 -0.00477891 0)
(0.0986021 -0.00474336 0)
(0.0999545 -0.00470591 0)
(0.101296 -0.00466652 0)
(0.102626 -0.00462515 0)
(0.103944 -0.00458177 0)
(0.105249 -0.00453634 0)
(0.106541 -0.00448884 0)
(0.107819 -0.00443923 0)
(0.109083 -0.0043875 0)
(0.110331 -0.00433362 0)
(0.111564 -0.00427757 0)
(0.112781 -0.00421933 0)
(0.113981 -0.00415889 0)
(0.115163 -0.00409625 0)
(0.116327 -0.00403139 0)
(0.117472 -0.00396431 0)
(0.118598 -0.00389501 0)
(0.119703 -0.00382351 0)
(0.120788 -0.00374979 0)
(0.121851 -0.00367389 0)
(0.122892 -0.00359581 0)
(0.123911 -0.00351557 0)
(0.124907 -0.00343321 0)
(0.125878 -0.00334874 0)
(0.126825 -0.0032622 0)
(0.127747 -0.00317363 0)
(0.128643 -0.00308306 0)
(0.129514 -0.00299055 0)
(0.130357 -0.00289614 0)
(0.131173 -0.00279989 0)
(0.131961 -0.00270184 0)
(0.132721 -0.00260206 0)
(0.133452 -0.00250062 0)
(0.134154 -0.00239758 0)
(0.134826 -0.00229302 0)
(0.135468 -0.002187 0)
(0.136079 -0.00207961 0)
(0.136659 -0.00197092 0)
(0.137208 -0.00186103 0)
(0.137725 -0.00175 0)
(0.138211 -0.00163794 0)
(0.138664 -0.00152493 0)
(0.139084 -0.00141107 0)
(0.139472 -0.00129645 0)
(0.139827 -0.00118116 0)
(0.140148 -0.0010653 0)
(0.140436 -0.000948966 0)
(0.140691 -0.000832261 0)
(0.140913 -0.000715283 0)
(0.141101 -0.000598128 0)
(0.141255 -0.000480897 0)
(0.141375 -0.000363689 0)
(0.141462 -0.000246601 0)
(0.141516 -0.000129731 0)
(0.141536 -1.31759e-05 0)
(0.141522 0.000102969 0)
(0.141476 0.00021861 0)
(0.141396 0.000333656 0)
(0.141283 0.000448014 0)
(0.141138 0.000561597 0)
(0.14096 0.00067432 0)
(0.14075 0.000786097 0)
(0.140509 0.000896849 0)
(0.140235 0.0010065 0)
(0.139931 0.00111496 0)
(0.139595 0.00122218 0)
(0.139229 0.00132807 0)
(0.138833 0.00143258 0)
(0.138407 0.00153563 0)
(0.137952 0.00163717 0)
(0.137467 0.00173715 0)
(0.136955 0.0018355 0)
(0.136415 0.00193219 0)
(0.135847 0.00202717 0)
(0.135252 0.00212038 0)
(0.134631 0.00221181 0)
(0.133984 0.0023014 0)
(0.133311 0.00238914 0)
(0.132614 0.00247498 0)
(0.131892 0.00255891 0)
(0.131147 0.00264091 0)
(0.130378 0.00272096 0)
(0.129587 0.00279904 0)
(0.128774 0.00287514 0)
(0.12794 0.00294926 0)
(0.127084 0.00302138 0)
(0.126208 0.00309152 0)
(0.125313 0.00315966 0)
(0.124398 0.00322582 0)
(0.123464 0.00328999 0)
(0.122513 0.0033522 0)
(0.121544 0.00341244 0)
(0.120558 0.00347073 0)
(0.119556 0.00352709 0)
(0.118538 0.00358153 0)
(0.117505 0.00363408 0)
(0.116457 0.00368476 0)
(0.115395 0.00373358 0)
(0.114319 0.00378058 0)
(0.11323 0.00382578 0)
(0.112129 0.00386921 0)
(0.111015 0.0039109 0)
(0.10989 0.00395088 0)
(0.108753 0.00398918 0)
(0.107606 0.00402583 0)
(0.106449 0.00406086 0)
(0.105282 0.00409432 0)
(0.104106 0.00412623 0)
(0.10292 0.00415663 0)
(0.101727 0.00418555 0)
(0.100525 0.00421304 0)
(0.0993159 0.00423913 0)
(0.0980995 0.00426385 0)
(0.0968762 0.00428724 0)
(0.0956465 0.00430935 0)
(0.0944107 0.0043302 0)
(0.0931691 0.00434984 0)
(0.0919222 0.00436829 0)
(0.0906702 0.00438561 0)
(0.0894135 0.00440183 0)
(0.0881523 0.00441697 0)
(0.086887 0.00443109 0)
(0.0856178 0.00444421 0)
(0.0843451 0.00445638 0)
(0.0830691 0.00446762 0)
(0.08179 0.00447797 0)
(0.0805082 0.00448747 0)
(0.0792237 0.00449616 0)
(0.077937 0.00450405 0)
(0.0766482 0.0045112 0)
(0.0753574 0.00451762 0)
(0.074065 0.00452336 0)
(0.0727711 0.00452844 0)
(0.0714758 0.0045329 0)
(0.0701794 0.00453676 0)
(0.068882 0.00454006 0)
(0.0675838 0.00454283 0)
(0.0662849 0.00454508 0)
(0.0649854 0.00454686 0)
(0.0636856 0.00454818 0)
(0.0623854 0.00454908 0)
(0.0610851 0.00454958 0)
(0.0597847 0.0045497 0)
(0.0584844 0.00454948 0)
(0.0571842 0.00454892 0)
(0.0558843 0.00454807 0)
(0.0545847 0.00454693 0)
(0.0532854 0.00454554 0)
(0.0519866 0.00454391 0)
(0.0506884 0.00454206 0)
(0.0493907 0.00454002 0)
(0.0480937 0.0045378 0)
(0.0467973 0.00453542 0)
(0.0455016 0.0045329 0)
(0.0442068 0.00453026 0)
(0.0429127 0.00452752 0)
(0.0416194 0.00452468 0)
(0.040327 0.00452178 0)
(0.0390354 0.00451882 0)
(0.0377447 0.00451581 0)
(0.0364548 0.00451278 0)
(0.0351659 0.00450973 0)
(0.0338778 0.00450667 0)
(0.0325907 0.00450363 0)
(0.0313044 0.00450062 0)
(0.030019 0.00449763 0)
(0.0287344 0.00449469 0)
(0.0274507 0.00449181 0)
(0.0261678 0.00448899 0)
(0.0248858 0.00448625 0)
(0.0236045 0.00448358 0)
(0.0223239 0.00448102 0)
(0.0210441 0.00447855 0)
(0.019765 0.00447618 0)
(0.0184866 0.00447394 0)
(0.0172088 0.00447181 0)
(0.0159316 0.00446981 0)
(0.0146549 0.00446794 0)
(0.0133788 0.00446621 0)
(0.0121031 0.00446462 0)
(0.0108279 0.00446318 0)
(0.00955311 0.00446189 0)
(0.00827865 0.00446076 0)
(0.00700449 0.00445978 0)
(0.00573059 0.00445896 0)
(0.0044569 0.0044583 0)
(0.00318338 0.00445781 0)
(0.00190998 0.00445748 0)
(0.000636653 0.00445731 0)
(0.000730743 -0.00657875 0)
(0.00219226 -0.00657904 0)
(0.00365388 -0.00657962 0)
(0.00511566 -0.00658048 0)
(0.00657768 -0.00658162 0)
(0.00803998 -0.00658303 0)
(0.00950264 -0.00658472 0)
(0.0109657 -0.00658667 0)
(0.0124293 -0.00658887 0)
(0.0138934 -0.00659132 0)
(0.015358 -0.00659399 0)
(0.0168234 -0.00659689 0)
(0.0182894 -0.00659999 0)
(0.0197561 -0.00660328 0)
(0.0212236 -0.00660675 0)
(0.022692 -0.00661036 0)
(0.0241612 -0.00661412 0)
(0.0256312 -0.00661799 0)
(0.0271022 -0.00662195 0)
(0.0285741 -0.00662598 0)
(0.0300469 -0.00663006 0)
(0.0315207 -0.00663416 0)
(0.0329955 -0.00663824 0)
(0.0344712 -0.00664229 0)
(0.0359478 -0.00664627 0)
(0.0374254 -0.00665015 0)
(0.0389039 -0.0066539 0)
(0.0403832 -0.00665748 0)
(0.0418634 -0.00666085 0)
(0.0433443 -0.00666398 0)
(0.044826 -0.00666683 0)
(0.0463084 -0.00666935 0)
(0.0477913 -0.00667151 0)
(0.0492748 -0.00667327 0)
(0.0507586 -0.00667457 0)
(0.0522428 -0.00667537 0)
(0.0537271 -0.00667563 0)
(0.0552116 -0.00667529 0)
(0.0566959 -0.0066743 0)
(0.0581801 -0.00667262 0)
(0.0596638 -0.00667018 0)
(0.0611471 -0.00666694 0)
(0.0626296 -0.00666284 0)
(0.0641112 -0.00665782 0)
(0.0655916 -0.00665183 0)
(0.0670707 -0.0066448 0)
(0.0685482 -0.00663668 0)
(0.0700239 -0.0066274 0)
(0.0714975 -0.00661691 0)
(0.0729687 -0.00660514 0)
(0.0744372 -0.00659203 0)
(0.0759028 -0.00657751 0)
(0.0773651 -0.00656152 0)
(0.0788237 -0.006544 0)
(0.0802784 -0.00652488 0)
(0.0817288 -0.0065041 0)
(0.0831745 -0.00648159 0)
(0.084615 -0.00645729 0)
(0.0860501 -0.00643113 0)
(0.0874792 -0.00640305 0)
(0.088902 -0.00637298 0)
(0.0903179 -0.00634087 0)
(0.0917266 -0.00630665 0)
(0.0931276 -0.00627027 0)
(0.0945202 -0.00623165 0)
(0.0959042 -0.00619075 0)
(0.0972789 -0.00614751 0)
(0.0986438 -0.00610187 0)
(0.0999983 -0.00605378 0)
(0.101342 -0.0060032 0)
(0.102674 -0.00595007 0)
(0.103994 -0.00589435 0)
(0.105302 -0.00583599 0)
(0.106596 -0.00577497 0)
(0.107877 -0.00571123 0)
(0.109143 -0.00564476 0)
(0.110394 -0.00557552 0)
(0.11163 -0.00550348 0)
(0.112849 -0.00542862 0)
(0.114051 -0.00535093 0)
(0.115236 -0.0052704 0)
(0.116402 -0.00518701 0)
(0.11755 -0.00510077 0)
(0.118678 -0.00501167 0)
(0.119786 -0.00491971 0)
(0.120873 -0.00482492 0)
(0.121939 -0.0047273 0)
(0.122983 -0.00462687 0)
(0.124004 -0.00452367 0)
(0.125002 -0.00441773 0)
(0.125976 -0.00430907 0)
(0.126925 -0.00419774 0)
(0.12785 -0.00408379 0)
(0.128748 -0.00396728 0)
(0.129621 -0.00384825 0)
(0.130466 -0.00372677 0)
(0.131284 -0.00360292 0)
(0.132074 -0.00347676 0)
(0.132836 -0.00334836 0)
(0.133569 -0.00321782 0)
(0.134273 -0.00308522 0)
(0.134946 -0.00295066 0)
(0.13559 -0.00281422 0)
(0.136203 -0.002676 0)
(0.136784 -0.00253612 0)
(0.137335 -0.00239468 0)
(0.137853 -0.00225178 0)
(0.138339 -0.00210755 0)
(0.138793 -0.00196209 0)
(0.139215 -0.00181554 0)
(0.139603 -0.001668 0)
(0.139959 -0.00151961 0)
(0.140281 -0.00137048 0)
(0.14057 -0.00122074 0)
(0.140825 -0.00107052 0)
(0.141047 -0.000919951 0)
(0.141235 -0.000769154 0)
(0.141389 -0.00061826 0)
(0.141509 -0.000467395 0)
(0.141596 -0.000316686 0)
(0.141649 -0.00016626 0)
(0.141669 -1.62397e-05 0)
(0.141655 0.000133251 0)
(0.141608 0.00028209 0)
(0.141527 0.00043016 0)
(0.141414 0.000577344 0)
(0.141267 0.000723527 0)
(0.141089 0.000868599 0)
(0.140878 0.00101245 0)
(0.140635 0.00115498 0)