/*--------------------------------*- C++ -*----------------------------------*\
| =========                 |                                                 |
| \\      /  F ield         | OpenFOAM: The Open Source CFD Toolbox           |
|  \\    /   O peration     | Version:  v2012                                 |
|   \\  /    A nd           | Website:  www.openfoam.com                      |
|    \\/     M anipulation  |                                                 |
\*---------------------------------------------------------------------------*/
FoamFile
{
    version     2.0;
    format      ascii;
    class       volScalarField;
    location    "12";
    object      W;
}
// * * * * * * * * * * * * * * * * * * * * * * * * * * * * * * * * * * * * * //

dimensions      [0 0 -1 0 0 0 0];


internalField   nonuniform List<scalar> 
65536
(
9.78076e-18
2.95285e-17
4.98405e-17
7.11082e-17
9.37404e-17
1.18169e-16
1.44857e-16
1.74305e-16
2.07057e-16
2.43716e-16
2.84946e-16
3.31484e-16
3.84152e-16
4.43871e-16
5.11667e-16
5.88693e-16
6.76239e-16
7.75752e-16
8.88853e-16
1.01736e-15
1.1633e-15
1.32896e-15
1.51688e-15
1.7299e-15
1.97121e-15
2.24432e-15
2.5532e-15
2.90223e-15
3.29627e-15
3.74073e-15
4.24161e-15
4.80555e-15
5.43987e-15
6.15268e-15
6.95289e-15
7.85034e-15
8.85581e-15
9.98118e-15
1.12394e-14
1.26447e-14
1.42126e-14
1.59601e-14
1.79055e-14
2.00689e-14
2.2472e-14
2.51384e-14
2.80935e-14
3.13648e-14
3.49818e-14
3.89762e-14
4.33823e-14
4.82365e-14
5.35776e-14
5.94474e-14
6.58899e-14
7.2952e-14
8.06834e-14
8.91362e-14
9.83658e-14
1.0843e-13
1.19389e-13
1.31307e-13
1.4425e-13
1.58286e-13
1.73485e-13
1.89922e-13
2.0767e-13
2.26808e-13
2.47413e-13
2.69564e-13
2.93343e-13
3.18831e-13
3.46107e-13
3.75253e-13
4.06348e-13
4.3947e-13
4.74696e-13
5.12098e-13
5.51746e-13
5.93707e-13
6.38042e-13
6.84807e-13
7.34052e-13
7.85819e-13
8.40145e-13
8.97055e-13
9.56568e-13
1.01869e-12
1.08343e-12
1.15075e-12
1.22065e-12
1.29308e-12
1.368e-12
1.44533e-12
1.525e-12
1.60691e-12
1.69097e-12
1.77705e-12
1.86502e-12
1.95472e-12
2.04599e-12
2.13865e-12
2.2325e-12
2.32735e-12
2.42295e-12
2.51909e-12
2.61551e-12
2.71195e-12
2.80815e-12
2.90382e-12
2.99868e-12
3.09242e-12
3.18474e-12
3.27532e-12
3.36386e-12
3.45004e-12
3.53352e-12
3.61398e-12
3.69111e-12
3.76459e-12
3.83409e-12
3.89929e-12
3.95991e-12
4.01563e-12
4.06617e-12
4.11125e-12
4.15061e-12
4.184e-12
4.21119e-12
4.23195e-12
4.24611e-12
4.25348e-12
4.25393e-12
4.24732e-12
4.23357e-12
4.2126e-12
4.18438e-12
4.14892e-12
4.10623e-12
4.05639e-12
3.9995e-12
3.93569e-12
3.86515e-12
3.78809e-12
3.70475e-12
3.61544e-12
3.52048e-12
3.42023e-12
3.3151e-12
3.20551e-12
3.09195e-12
2.97488e-12
2.85485e-12
2.73239e-12
2.60805e-12
2.48241e-12
2.35606e-12
2.22957e-12
2.10354e-12
1.97853e-12
1.85512e-12
1.73386e-12
1.61526e-12
1.49982e-12
1.38802e-12
1.28027e-12
1.17695e-12
1.07842e-12
9.84965e-13
8.96826e-13
8.14198e-13
7.37224e-13
6.65994e-13
6.00548e-13
5.40876e-13
4.86921e-13
4.38581e-13
3.95711e-13
3.58128e-13
3.25611e-13
2.97909e-13
2.7474e-13
2.55799e-13
2.40757e-13
2.29269e-13
2.20976e-13
2.15507e-13
2.12485e-13
2.11529e-13
2.12259e-13
2.143e-13
2.17286e-13
2.20862e-13
2.24692e-13
2.2846e-13
2.31877e-13
2.34683e-13
2.36651e-13
2.3759e-13
2.37352e-13
2.35826e-13
2.32946e-13
2.28687e-13
2.23065e-13
2.16134e-13
2.07986e-13
1.98741e-13
1.88546e-13
1.77569e-13
1.6599e-13
1.53997e-13
1.41781e-13
1.29524e-13
1.17402e-13
1.05573e-13
9.41774e-14
8.33342e-14
7.31391e-14
6.36639e-14
5.4957e-14
4.70446e-14
3.99321e-14
3.36074e-14
2.80425e-14
2.31977e-14
1.90234e-14
1.54641e-14
1.24603e-14
9.95121e-15
7.87665e-15
6.17878e-15
4.80327e-15
3.70017e-15
2.82447e-15
2.13628e-15
1.60092e-15
1.18862e-15
8.74316e-16
6.37118e-16
4.59918e-16
3.28875e-16
2.32945e-16
1.6343e-16
1.13565e-16
7.81583e-17
5.32726e-17
3.59588e-17
2.40347e-17
1.59046e-17
1.04151e-17
6.74162e-18
4.30051e-18
2.6814e-18
1.59613e-18
8.39857e-19
2.61253e-19
3.39573e-17
1.02518e-16
1.73039e-16
2.4688e-16
3.25459e-16
4.10278e-16
5.02943e-16
6.0519e-16
7.18916e-16
8.46208e-16
9.89372e-16
1.15097e-15
1.33387e-15
1.54124e-15
1.77667e-15
2.04416e-15
2.34818e-15
2.69376e-15
3.08652e-15
3.53279e-15
4.03961e-15
4.6149e-15
5.26749e-15
6.00724e-15
6.84519e-15
7.7936e-15
8.86616e-15
1.00781e-14
1.14462e-14
1.29894e-14
1.47284e-14
1.66862e-14
1.88881e-14
2.13623e-14
2.41397e-14
2.72542e-14
3.07433e-14
3.46479e-14
3.90129e-14
4.38875e-14
4.93252e-14
5.53846e-14
6.21291e-14
6.96279e-14
7.79558e-14
8.7194e-14
9.74298e-14
1.08758e-13
1.21279e-13
1.35104e-13
1.50348e-13
1.67136e-13
1.85602e-13
2.05888e-13
2.28143e-13
2.52529e-13
2.79214e-13
3.08375e-13
3.40199e-13
3.74883e-13
4.1263e-13
4.53655e-13
4.9818e-13
5.46433e-13
5.98653e-13
6.55083e-13
7.15971e-13
7.81574e-13
8.5215e-13
9.27961e-13
1.00927e-12
1.09634e-12
1.18943e-12
1.28881e-12
1.39472e-12
1.50742e-12
1.62714e-12
1.75412e-12
1.88856e-12
2.03067e-12
2.18063e-12
2.33861e-12
2.50473e-12
2.67912e-12
2.86186e-12
3.05302e-12
3.25261e-12
3.46062e-12
3.67702e-12
3.90172e-12
4.13459e-12
4.37547e-12
4.62415e-12
4.88037e-12
5.14383e-12
5.41419e-12
5.69104e-12
5.97396e-12
6.26244e-12
6.55596e-12
6.85392e-12
7.15571e-12
7.46064e-12
7.76801e-12
8.07705e-12
8.38698e-12
8.69695e-12
9.00611e-12
9.31356e-12
9.61837e-12
9.91959e-12
1.02163e-11
1.05074e-11
1.0792e-11
1.1069e-11
1.13375e-11
1.15964e-11
1.18446e-11
1.20813e-11
1.23054e-11
1.25159e-11
1.27119e-11
1.28925e-11
1.30567e-11
1.32037e-11
1.33327e-11
1.34429e-11
1.35336e-11
1.36042e-11
1.36539e-11
1.36824e-11
1.36891e-11
1.36737e-11
1.36358e-11
1.35753e-11
1.34919e-11
1.33858e-11
1.32569e-11
1.31055e-11
1.29319e-11
1.27363e-11
1.25194e-11
1.22818e-11
1.20241e-11
1.17474e-11
1.14524e-11
1.11404e-11
1.08125e-11
1.047e-11
1.01143e-11
9.74686e-12
9.36929e-12
8.98321e-12
8.59034e-12
8.19241e-12
7.79123e-12
7.38859e-12
6.98633e-12
6.58624e-12
6.1901e-12
5.79965e-12
5.41656e-12
5.04245e-12
4.67881e-12
4.32706e-12
3.98848e-12
3.66422e-12
3.35531e-12
3.0626e-12
2.78682e-12
2.52852e-12
2.2881e-12
2.0658e-12
1.8617e-12
1.67573e-12
1.50769e-12
1.35721e-12
1.22383e-12
1.10693e-12
1.00582e-12
9.19695e-13
8.47657e-13
7.88742e-13
7.41923e-13
7.06117e-13
6.80201e-13
6.63022e-13
6.53408e-13
6.50178e-13
6.52157e-13
6.58184e-13
6.67128e-13
6.77898e-13
6.89457e-13
7.00835e-13
7.11143e-13
7.19582e-13
7.25457e-13
7.28187e-13
7.27313e-13
7.225e-13
7.13546e-13
7.00376e-13
6.83041e-13
6.61711e-13
6.36662e-13
6.08268e-13
5.76979e-13
5.43307e-13
5.07807e-13
4.71054e-13
4.33627e-13
3.9609e-13
3.58974e-13
3.22766e-13
2.87892e-13
2.54716e-13
2.23529e-13
1.9455e-13
1.67925e-13
1.43733e-13
1.21991e-13
1.02659e-13
8.56526e-14
7.08482e-14
5.80946e-14
4.72211e-14
3.80457e-14
3.03822e-14
2.40465e-14
1.88618e-14
1.46618e-14
1.12939e-14
8.62047e-15
6.51969e-15
4.88553e-15
3.62714e-15
2.66787e-15
1.944e-15
1.40325e-15
1.00338e-15
7.10675e-16
4.98575e-16
3.4644e-16
2.38421e-16
1.62502e-16
1.09685e-16
7.33111e-17
4.85112e-17
3.17667e-17
2.0562e-17
1.31164e-17
8.17805e-18
4.86801e-18
2.56147e-18
7.96806e-19
7.38882e-17
2.23072e-16
3.76524e-16
5.37203e-16
7.082e-16
8.92781e-16
1.09444e-15
1.31697e-15
1.56448e-15
1.84153e-15
2.15314e-15
2.5049e-15
2.90301e-15
3.35443e-15
3.86694e-15
4.44925e-15
5.11111e-15
5.86346e-15
6.71856e-15
7.69014e-15
8.79357e-15
1.00461e-14
1.14668e-14
1.30774e-14
1.49016e-14
1.69663e-14
1.93012e-14
2.19394e-14
2.49174e-14
2.82763e-14
3.20609e-14
3.63213e-14
4.11125e-14
4.64955e-14
5.25372e-14
5.93113e-14
6.68987e-14
7.53881e-14
8.48765e-14
9.54701e-14
1.07285e-13
1.20446e-13
1.35091e-13
1.51369e-13
1.6944e-13
1.89479e-13
2.11672e-13
2.36223e-13
2.63348e-13
2.93281e-13
3.26269e-13
3.62578e-13
4.02492e-13
4.46311e-13
4.94354e-13
5.46956e-13
6.04473e-13
6.67276e-13
7.35758e-13
8.10326e-13
8.91405e-13
9.79436e-13
1.07488e-12
1.1782e-12
1.28989e-12
1.41043e-12
1.54034e-12
1.68012e-12
1.83029e-12
1.99138e-12
2.16388e-12
2.34832e-12
2.5452e-12
2.75501e-12
2.97824e-12
3.21533e-12
3.46672e-12
3.73281e-12
4.01398e-12
4.31055e-12
4.62282e-12
4.95102e-12
5.29535e-12
5.65593e-12
6.03282e-12
6.42604e-12
6.83551e-12
7.26107e-12
7.70251e-12
8.15952e-12
8.6317e-12
9.11857e-12
9.61955e-12
1.0134e-11
1.06611e-11
1.12001e-11
1.17501e-11
1.23099e-11
1.28784e-11
1.34545e-11
1.40369e-11
1.46242e-11
1.5215e-11
1.58076e-11
1.64007e-11
1.69924e-11
1.75811e-11
1.8165e-11
1.87424e-11
1.93114e-11
1.98702e-11
2.04168e-11
2.09495e-11
2.14663e-11
2.19653e-11
2.24447e-11
2.29026e-11
2.33372e-11
2.37467e-11
2.41294e-11
2.44836e-11
2.48077e-11
2.51001e-11
2.53594e-11
2.55841e-11
2.5773e-11
2.5925e-11
2.60388e-11
2.61137e-11
2.61486e-11
2.6143e-11
2.60963e-11
2.60081e-11
2.5878e-11
2.57061e-11
2.54923e-11
2.5237e-11
2.49405e-11
2.46035e-11
2.42267e-11
2.38112e-11
2.33581e-11
2.28689e-11
2.2345e-11
2.17883e-11
2.12007e-11
2.05844e-11
1.99417e-11
1.9275e-11
1.8587e-11
1.78805e-11
1.71584e-11
1.64237e-11
1.56796e-11
1.49291e-11
1.41756e-11
1.34222e-11
1.26722e-11
1.19288e-11
1.1195e-11
1.0474e-11
9.76852e-12
9.08146e-12
8.41533e-12
7.77253e-12
7.1552e-12
6.56528e-12
6.00441e-12
5.47401e-12
4.9752e-12
4.50881e-12
4.0754e-12
3.67527e-12
3.30841e-12
2.97459e-12
2.67328e-12
2.40376e-12
2.16506e-12
1.95603e-12
1.77531e-12
1.62141e-12
1.49267e-12
1.38731e-12
1.30348e-12
1.2392e-12
1.19245e-12
1.16117e-12
1.14327e-12
1.13664e-12
1.1392e-12
1.1489e-12
1.16375e-12
1.18183e-12
1.20132e-12
1.22053e-12
1.23789e-12
1.25202e-12
1.26171e-12
1.26595e-12
1.26394e-12
1.25512e-12
1.23912e-12
1.21583e-12
1.18535e-12
1.14796e-12
1.10416e-12
1.0546e-12
1.00006e-12
9.41428e-13
8.7967e-13
8.15783e-13
7.5077e-13
6.85605e-13
6.21207e-13
5.58415e-13
4.97965e-13
4.40481e-13
3.86465e-13
3.3629e-13
2.90208e-13
2.4835e-13
2.10742e-13
1.77313e-13
1.47912e-13
1.22325e-13
1.00288e-13
8.15043e-14
6.56571e-14
5.24239e-14
4.14858e-14
3.25364e-14
2.52881e-14
1.94767e-14
1.48645e-14
1.12407e-14
8.42229e-15
6.25225e-15
4.59825e-15
3.35028e-15
2.41814e-15
1.72892e-15
1.22446e-15
8.58953e-16
5.96809e-16
4.10698e-16
2.79905e-16
1.88918e-16
1.26262e-16
8.35457e-17
5.4706e-17
3.54088e-17
2.25863e-17
1.40822e-17
8.38227e-18
4.41057e-18
1.37202e-18
1.47108e-16
4.44129e-16
7.49657e-16
1.06959e-15
1.41007e-15
1.77763e-15
2.17922e-15
2.62239e-15
3.11537e-15
3.6672e-15
4.28792e-15
4.98864e-15
5.78176e-15
6.68114e-15
7.70229e-15
8.86255e-15
1.01814e-14
1.16806e-14
1.33847e-14
1.53209e-14
1.752e-14
2.00161e-14
2.28477e-14
2.60575e-14
2.96932e-14
3.38081e-14
3.84613e-14
4.37186e-14
4.96531e-14
5.63458e-14
6.38864e-14
7.23741e-14
8.19185e-14
9.26401e-14
1.04672e-13
1.1816e-13
1.33265e-13
1.50162e-13
1.69042e-13
1.90117e-13
2.13614e-13
2.39781e-13
2.68888e-13
3.01228e-13
3.37117e-13
3.76896e-13
4.20933e-13
4.69623e-13
5.23388e-13
5.82683e-13
6.47992e-13
7.19829e-13
7.98742e-13
8.85311e-13
9.80147e-13
1.0839e-12
1.19724e-12
1.32088e-12
1.45557e-12
1.60207e-12
1.76119e-12
1.93375e-12
2.12061e-12
2.32263e-12
2.5407e-12
2.77574e-12
3.02866e-12
3.30037e-12
3.5918e-12
3.90386e-12
4.23745e-12
4.59345e-12
4.97272e-12
5.37608e-12
5.8043e-12
6.25811e-12
6.73818e-12
7.24511e-12
7.77941e-12
8.34152e-12
8.93177e-12
9.5504e-12
1.01975e-11
1.08732e-11
1.15771e-11
1.23092e-11
1.30689e-11
1.38558e-11
1.4669e-11
1.55077e-11
1.63709e-11
1.72574e-11
1.81657e-11
1.90944e-11
2.00417e-11
2.10058e-11
2.19847e-11
2.29762e-11
2.3978e-11
2.49876e-11
2.60024e-11
2.70198e-11
2.80369e-11
2.90508e-11
3.00586e-11
3.10572e-11
3.20434e-11
3.30142e-11
3.39662e-11
3.48964e-11
3.58015e-11
3.66784e-11
3.75238e-11
3.83348e-11
3.91081e-11
3.9841e-11
4.05304e-11
4.11736e-11
4.1768e-11
4.2311e-11
4.28001e-11
4.32332e-11
4.36082e-11
4.3923e-11
4.41761e-11
4.43657e-11
4.44906e-11
4.45496e-11
4.45418e-11
4.44664e-11
4.4323e-11
4.41114e-11
4.38315e-11
4.34835e-11
4.30681e-11
4.25859e-11
4.2038e-11
4.14258e-11
4.07508e-11
4.00149e-11
3.92203e-11
3.83693e-11
3.74647e-11
3.65094e-11
3.55068e-11
3.44602e-11
3.33735e-11
3.22507e-11
3.10958e-11
2.99134e-11
2.8708e-11
2.74843e-11
2.62472e-11
2.50015e-11
2.37523e-11
2.25045e-11
2.12632e-11
2.00332e-11
1.88194e-11
1.76264e-11
1.64588e-11
1.53208e-11
1.42163e-11
1.31493e-11
1.21229e-11
1.11403e-11
1.0204e-11
9.31633e-12
8.47912e-12
7.69373e-12
6.96113e-12
6.28187e-12
5.65606e-12
5.08342e-12
4.56327e-12
4.09456e-12
3.67589e-12
3.30558e-12
2.9816e-12
2.70172e-12
2.46345e-12
2.26411e-12
2.10086e-12
1.97071e-12
1.87057e-12
1.79729e-12
1.74765e-12
1.71842e-12
1.70636e-12
1.70828e-12
1.72107e-12
1.74168e-12
1.76723e-12
1.79496e-12
1.82232e-12
1.84699e-12
1.86688e-12
1.88019e-12
1.88542e-12
1.8814e-12
1.86728e-12
1.84254e-12
1.80703e-12
1.76088e-12
1.70456e-12
1.63879e-12
1.56455e-12
1.48301e-12
1.3955e-12
1.30343e-12
1.2083e-12
1.11159e-12
1.01473e-12
9.19096e-13
8.25907e-13
7.36253e-13
6.51051e-13
5.71032e-13
4.96743e-13
4.28546e-13
3.6663e-13
3.11024e-13
2.61617e-13
2.18181e-13
1.80393e-13
1.47859e-13
1.20137e-13
9.6756e-14
7.72379e-14
6.11096e-14
4.79172e-14
3.72352e-14
2.8673e-14
2.18791e-14
1.65425e-14
1.23927e-14
9.19821e-15
6.76388e-15
4.92745e-15
3.55602e-15
2.54216e-15
1.8002e-15
1.2627e-15
8.77241e-16
6.0362e-16
4.11351e-16
2.77613e-16
1.85526e-16
1.22751e-16
8.03729e-17
5.2019e-17
3.31799e-17
2.06862e-17
1.23129e-17
6.47865e-18
2.01534e-18
2.8424e-16
8.58147e-16
1.44851e-15
2.06673e-15
2.72473e-15
3.43509e-15
4.2113e-15
5.06795e-15
6.02097e-15
7.08788e-15
8.28808e-15
9.6431e-15
1.11769e-14
1.29164e-14
1.48916e-14
1.71361e-14
1.96875e-14
2.25881e-14
2.58851e-14
2.96317e-14
3.3887e-14
3.87175e-14
4.41972e-14
5.04091e-14
5.74455e-14
6.54091e-14
7.44146e-14
8.45892e-14
9.6074e-14
1.09026e-13
1.23617e-13
1.40041e-13
1.58507e-13
1.79248e-13
2.02522e-13
2.28608e-13
2.57816e-13
2.90484e-13
3.26979e-13
3.67705e-13
4.13099e-13
4.63637e-13
5.19836e-13
5.82254e-13
6.51495e-13
7.28208e-13
8.13093e-13
9.069e-13
1.01043e-12
1.12455e-12
1.25015e-12
1.38823e-12
1.5398e-12
1.70594e-12
1.88781e-12
2.0866e-12
2.30357e-12
2.54004e-12
2.79736e-12
3.07695e-12
3.38027e-12
3.70882e-12
4.06413e-12
4.44776e-12
4.8613e-12
5.30635e-12
5.78449e-12
6.29733e-12
6.84644e-12
7.43336e-12
8.05959e-12
8.72657e-12
9.43568e-12
1.01882e-11
1.09853e-11
1.1828e-11
1.27173e-11
1.36539e-11
1.46385e-11
1.56714e-11
1.67528e-11
1.78829e-11
1.90612e-11
2.02873e-11
2.15606e-11
2.28799e-11
2.4244e-11
2.56513e-11
2.71e-11
2.85879e-11
3.01125e-11
3.16711e-11
3.32606e-11
3.48778e-11
3.6519e-11
3.81804e-11
3.98579e-11
4.15471e-11
4.32435e-11
4.49424e-11
4.66387e-11
4.83275e-11
5.00035e-11
5.16615e-11
5.3296e-11
5.49017e-11
5.64731e-11
5.80049e-11
5.94916e-11
6.0928e-11
6.23088e-11
6.36291e-11
6.48838e-11
6.60682e-11
6.71777e-11
6.82081e-11
6.91551e-11
7.00151e-11
7.07843e-11
7.14596e-11
7.20378e-11
7.25165e-11
7.28932e-11
7.31659e-11
7.33329e-11
7.3393e-11
7.33452e-11
7.31889e-11
7.29239e-11
7.25502e-11
7.20685e-11
7.14795e-11
7.07846e-11
6.99854e-11
6.90839e-11
6.80825e-11
6.6984e-11
6.57915e-11
6.45086e-11
6.31391e-11
6.16874e-11
6.0158e-11
5.85559e-11
5.68864e-11
5.51551e-11
5.33679e-11
5.15311e-11
4.96512e-11
4.77347e-11
4.57887e-11
4.38202e-11
4.18364e-11
3.98446e-11
3.78521e-11
3.58663e-11
3.38944e-11
3.19436e-11
3.00208e-11
2.81329e-11
2.62863e-11
2.44872e-11
2.27413e-11
2.10542e-11
1.94305e-11
1.78747e-11
1.63906e-11
1.49814e-11
1.36499e-11
1.23979e-11
1.12269e-11
1.01377e-11
9.1305e-12
8.20488e-12
7.35989e-12
6.594e-12
5.90522e-12
5.29108e-12
4.74867e-12
4.27473e-12
3.86566e-12
3.51757e-12
3.22632e-12
2.98757e-12
2.79684e-12
2.64952e-12
2.54093e-12
2.46635e-12
2.42105e-12
2.40037e-12
2.3997e-12
2.41456e-12
2.44062e-12
2.47377e-12
2.51011e-12
2.54606e-12
2.57833e-12
2.60401e-12
2.62059e-12
2.626e-12
2.6186e-12
2.59722e-12
2.56119e-12
2.51028e-12
2.44471e-12
2.36515e-12
2.27262e-12
2.16848e-12
2.05438e-12
1.93215e-12
1.80378e-12
1.67132e-12
1.53681e-12
1.40226e-12
1.26953e-12
1.14032e-12
1.0161e-12
8.98145e-13
7.87442e-13
6.84734e-13
5.90507e-13
5.05007e-13
4.28262e-13
3.60109e-13
3.00221e-13
2.48145e-13
2.03329e-13
1.65157e-13
1.32977e-13
1.06123e-13
8.39404e-14
6.58024e-14
5.11207e-14
3.93562e-14
3.00242e-14
2.26959e-14
1.6999e-14
1.26147e-14
9.27441e-15
6.75516e-15
4.87421e-15
3.48396e-15
2.46675e-15
1.72998e-15
1.20172e-15
8.26791e-16
5.63371e-16
3.80168e-16
2.54038e-16
1.68067e-16
1.10035e-16
7.12117e-17
4.5419e-17
2.83153e-17
1.68532e-17
8.86739e-18
2.75838e-18
5.40054e-16
1.63049e-15
2.75224e-15
3.92701e-15
5.17747e-15
6.52759e-15
8.00303e-15
9.63158e-15
1.14436e-14
1.34724e-14
1.57549e-14
1.83322e-14
2.125e-14
2.45594e-14
2.83177e-14
3.25888e-14
3.74445e-14
4.29653e-14
4.92414e-14
5.63737e-14
6.44754e-14
7.36727e-14
8.4107e-14
9.59361e-14
1.09336e-13
1.24502e-13
1.41653e-13
1.61031e-13
1.82905e-13
2.07571e-13
2.35361e-13
2.66638e-13
3.01803e-13
3.41299e-13
3.85612e-13
4.35275e-13
4.90874e-13
5.53047e-13
6.22494e-13
6.99975e-13
7.86318e-13
8.8242e-13
9.89257e-13
1.10788e-12
1.23942e-12
1.3851e-12
1.54623e-12
1.72422e-12
1.92056e-12
2.13685e-12
2.37479e-12
2.63619e-12
2.92293e-12
3.23703e-12
3.58059e-12
3.95582e-12
4.365e-12
4.81054e-12
5.29489e-12
5.82062e-12
6.39033e-12
7.0067e-12
7.67246e-12
8.39035e-12
9.16313e-12
9.99358e-12
1.08844e-11
1.18384e-11
1.28581e-11
1.3946e-11
1.51047e-11
1.63363e-11
1.7643e-11
1.90267e-11
2.04891e-11
2.20315e-11
2.36552e-11
2.53608e-11
2.71489e-11
2.90194e-11
3.09721e-11
3.30062e-11
3.51203e-11
3.73129e-11
3.95816e-11
4.19238e-11
4.43362e-11
4.68151e-11
4.93561e-11
5.19544e-11
5.46047e-11
5.73011e-11
6.00374e-11
6.28066e-11
6.56016e-11
6.84147e-11
7.12379e-11
7.40629e-11
7.6881e-11
7.96833e-11
8.24607e-11
8.52041e-11
8.7904e-11
9.05513e-11
9.31365e-11
9.56504e-11
9.80839e-11
1.00428e-10
1.02674e-10
1.04814e-10
1.06839e-10
1.08742e-10
1.10515e-10
1.12152e-10
1.13646e-10
1.14991e-10
1.16183e-10
1.17216e-10
1.18086e-10
1.18789e-10
1.19324e-10
1.19686e-10
1.19875e-10
1.19889e-10
1.19727e-10
1.19391e-10
1.1888e-10
1.18196e-10
1.1734e-10
1.16315e-10
1.15124e-10
1.1377e-10
1.12258e-10
1.10592e-10
1.08777e-10
1.06819e-10
1.04723e-10
1.02497e-10
1.00148e-10
9.7682e-11
9.5108e-11
9.24339e-11
8.96685e-11
8.68208e-11
8.39001e-11
8.0916e-11
7.78785e-11
7.47977e-11
7.16839e-11
6.85476e-11
6.53994e-11
6.22498e-11
5.91094e-11
5.59887e-11
5.2898e-11
4.98475e-11
4.6847e-11
4.3906e-11
4.10335e-11
3.82381e-11
3.55279e-11
3.29101e-11
3.03916e-11
2.79782e-11
2.56752e-11
2.3487e-11
2.14171e-11
1.94681e-11
1.7642e-11
1.59396e-11
1.4361e-11
1.29055e-11
1.15717e-11
1.03572e-11
9.25903e-12
8.2736e-12
7.39668e-12
6.62352e-12
5.9489e-12
5.36722e-12
4.87252e-12
4.45857e-12
4.11894e-12
3.84702e-12
3.63612e-12
3.47948e-12
3.37037e-12
3.30209e-12
3.26805e-12
3.2618e-12
3.27711e-12
3.30798e-12
3.34875e-12
3.39407e-12
3.43903e-12
3.47919e-12
3.5106e-12
3.52986e-12
3.5342e-12
3.52142e-12
3.49001e-12
3.43905e-12
3.36828e-12
3.27804e-12
3.16922e-12
3.04325e-12
2.90196e-12
2.74757e-12
2.58255e-12
2.40956e-12
2.23134e-12
2.05064e-12
1.8701e-12
1.6922e-12
1.51919e-12
1.35303e-12
1.19539e-12
1.04756e-12
9.10511e-13
7.84869e-13
6.70941e-13
5.68745e-13
4.78043e-13
3.98388e-13
3.2916e-13
2.69615e-13
2.18923e-13
1.76206e-13
1.40577e-13
1.11158e-13
8.71122e-14
6.76563e-14
5.2072e-14
3.97142e-14
3.00132e-14
2.2474e-14
1.66737e-14
1.2256e-14
8.92495e-15
6.43855e-15
4.60125e-15
3.25725e-15
2.28399e-15
1.58631e-15
1.09123e-15
7.4346e-16
5.01631e-16
3.35164e-16
2.21715e-16
1.45145e-16
9.39265e-17
5.99022e-17
3.73422e-17
2.2225e-17
1.16934e-17
3.63741e-18
1.01222e-15
3.05605e-15
5.15869e-15
7.36091e-15
9.70528e-15
1.22368e-14
1.50038e-14
1.80583e-14
2.14575e-14
2.5264e-14
2.95473e-14
3.43845e-14
3.98616e-14
4.60749e-14
5.31317e-14
6.11528e-14
7.0273e-14
8.06439e-14
9.24351e-14
1.05837e-13
1.21061e-13
1.38347e-13
1.57959e-13
1.80195e-13
2.05386e-13
2.339e-13
2.66147e-13
3.02583e-13
3.43714e-13
3.90098e-13
4.42356e-13
5.01171e-13
5.67296e-13
6.41563e-13
7.24883e-13
8.18257e-13
9.2278e-13
1.03965e-12
1.17018e-12
1.31578e-12
1.478e-12
1.65853e-12
1.85916e-12
2.08187e-12
2.32876e-12
2.6021e-12
2.90432e-12
3.23802e-12
3.60596e-12
4.0111e-12
4.45656e-12
4.94565e-12
5.48185e-12
6.06881e-12
6.71037e-12
7.41054e-12
8.17345e-12
9.00342e-12
9.90488e-12
1.08824e-11
1.19406e-11
1.30842e-11
1.43179e-11
1.56466e-11
1.70751e-11
1.8608e-11
2.025e-11
2.20056e-11
2.38791e-11
2.58746e-11
2.7996e-11
3.02467e-11
3.26298e-11
3.51481e-11
3.78036e-11
4.05981e-11
4.35326e-11
4.66074e-11
4.98223e-11
5.3176e-11
5.66668e-11
6.02918e-11
6.40475e-11
6.79293e-11
7.19319e-11
7.60488e-11
8.02726e-11
8.45951e-11
8.90072e-11
9.34985e-11
9.80583e-11
1.02675e-10
1.07335e-10
1.12025e-10
1.16732e-10
1.21441e-10
1.26137e-10
1.30803e-10
1.35425e-10
1.39986e-10
1.44469e-10
1.48859e-10
1.5314e-10
1.57294e-10
1.61307e-10
1.65163e-10
1.68848e-10
1.72346e-10
1.75645e-10
1.78732e-10
1.81594e-10
1.8422e-10
1.86601e-10
1.88727e-10
1.9059e-10
1.92183e-10
1.935e-10
1.94535e-10
1.95287e-10
1.95751e-10
1.95927e-10
1.95813e-10
1.95411e-10
1.94722e-10
1.93749e-10
1.92497e-10
1.90968e-10
1.8917e-10
1.87108e-10
1.84789e-10
1.82223e-10
1.79417e-10
1.76382e-10
1.73127e-10
1.69663e-10
1.66001e-10
1.62155e-10
1.58135e-10
1.53955e-10
1.49629e-10
1.4517e-10
1.40592e-10
1.3591e-10
1.31139e-10
1.26293e-10
1.21388e-10
1.16439e-10
1.11461e-10
1.0647e-10
1.01481e-10
9.65102e-11
9.15717e-11
8.66806e-11
8.18515e-11
7.70984e-11
7.2435e-11
6.78743e-11
6.34286e-11
5.91095e-11
5.49278e-11
5.08934e-11
4.70152e-11
4.33009e-11
3.97573e-11
3.63901e-11
3.32036e-11
3.02011e-11
2.73847e-11
2.47552e-11
2.23122e-11
2.00543e-11
1.7979e-11
1.60826e-11
1.43606e-11
1.28075e-11
1.14172e-11
1.01825e-11
9.09595e-12
8.14931e-12
7.334e-12
6.64105e-12
6.06121e-12
5.58506e-12
5.20302e-12
4.90548e-12
4.68287e-12
4.52566e-12
4.42451e-12
4.37026e-12
4.35403e-12
4.36726e-12
4.40179e-12
4.44992e-12
4.50447e-12
4.55883e-12
4.60706e-12
4.64391e-12
4.66489e-12
4.66634e-12
4.64539e-12
4.60006e-12
4.5292e-12
4.43251e-12
4.31046e-12
4.1643e-12
3.99589e-12
3.80771e-12
3.60267e-12
3.38404e-12
3.15532e-12
2.92011e-12
2.68198e-12
2.4444e-12
2.21058e-12
1.98345e-12
1.76555e-12
1.55901e-12
1.3655e-12
1.18626e-12
1.02207e-12
8.73292e-13
7.39933e-13
6.21653e-13
5.17845e-13
4.2768e-13
3.50171e-13
2.84221e-13
2.28677e-13
1.82371e-13
1.44155e-13
1.12934e-13
8.76822e-14
6.74641e-14
5.14381e-14
3.88621e-14
2.90922e-14
2.15782e-14
1.58571e-14
1.15446e-14
8.32653e-15
5.94922e-15
4.21065e-15
2.95197e-15
2.04989e-15
1.4099e-15
9.60422e-16
6.4793e-16
4.32859e-16
2.86308e-16
1.87411e-16
1.21266e-16
7.7332e-17
4.82044e-17
2.86883e-17
1.50934e-17
4.69498e-18
1.87305e-15
5.65512e-15
9.54629e-15
1.36222e-14
1.79617e-14
2.26485e-14
2.77721e-14
3.34292e-14
3.97258e-14
4.67784e-14
5.47159e-14
6.36817e-14
7.38355e-14
8.5356e-14
9.84433e-14
1.13321e-13
1.30241e-13
1.49484e-13
1.71366e-13
1.96241e-13
2.24503e-13
2.56596e-13
2.93014e-13
3.34309e-13
3.81097e-13
4.34064e-13
4.93971e-13
5.61667e-13
6.3809e-13
7.24281e-13
8.2139e-13
9.30689e-13
1.05358e-12
1.1916e-12
1.34644e-12
1.51996e-12
1.71419e-12
1.93135e-12
2.17386e-12
2.44435e-12
2.74568e-12
3.08095e-12
3.4535e-12
3.86695e-12
4.32517e-12
4.83234e-12
5.39292e-12
6.01167e-12
6.69366e-12
7.44427e-12
8.26922e-12
9.17449e-12
1.01664e-11
1.12516e-11
1.2437e-11
1.37298e-11
1.51374e-11
1.66676e-11
1.83281e-11
2.0127e-11
2.20726e-11
2.4173e-11
2.64366e-11
2.88716e-11
3.14861e-11
3.42882e-11
3.72855e-11
4.04855e-11
4.38951e-11
4.75208e-11
5.13686e-11
5.54436e-11
5.97501e-11
6.42916e-11
6.90706e-11
7.40884e-11
7.93451e-11
8.48397e-11
9.05696e-11
9.65308e-11
1.02718e-10
1.09123e-10
1.15739e-10
1.22554e-10
1.29556e-10
1.36732e-10
1.44065e-10
1.5154e-10
1.59136e-10
1.66834e-10
1.74612e-10
1.82447e-10
1.90315e-10
1.98189e-10
2.06043e-10
2.13851e-10
2.21584e-10
2.29214e-10
2.36713e-10
2.44051e-10
2.51201e-10
2.58134e-10
2.64823e-10
2.71241e-10
2.77362e-10
2.83161e-10
2.88616e-10
2.93703e-10
2.98403e-10
3.02696e-10
3.06567e-10
3.09999e-10
3.1298e-10
3.155e-10
3.17548e-10
3.19118e-10
3.20206e-10
3.20809e-10
3.20926e-10
3.20558e-10
3.1971e-10
3.18385e-10
3.16592e-10
3.14338e-10
3.11634e-10
3.08492e-10
3.04925e-10
3.00947e-10
2.96574e-10
2.91824e-10
2.86713e-10
2.81261e-10
2.75486e-10
2.6941e-10
2.63053e-10
2.56437e-10
2.49583e-10
2.42514e-10
2.35252e-10
2.27821e-10
2.20243e-10
2.12542e-10
2.04741e-10
1.96863e-10
1.88932e-10
1.8097e-10
1.73001e-10
1.65047e-10
1.57132e-10
1.49275e-10
1.415e-10
1.33827e-10
1.26276e-10
1.18866e-10
1.11617e-10
1.04545e-10
9.7667e-11
9.09986e-11
8.45538e-11
7.83453e-11
7.23844e-11
6.66812e-11
6.12438e-11
5.60791e-11
5.1192e-11
4.65861e-11
4.22632e-11
3.82234e-11
3.44653e-11
3.0986e-11
2.7781e-11
2.48444e-11
2.2169e-11
1.97465e-11
1.75674e-11
1.56212e-11
1.38968e-11
1.23821e-11
1.10646e-11
9.93117e-12
8.96858e-12
8.16319e-12
7.50129e-12
6.96915e-12
6.5531e-12
6.23961e-12
6.01541e-12
5.86751e-12
5.78333e-12
5.7507e-12
5.758e-12
5.79422e-12
5.849e-12
5.91274e-12
5.97667e-12
6.03291e-12
6.07457e-12
6.09577e-12
6.09171e-12
6.05871e-12
5.9942e-12
5.89676e-12
5.76603e-12
5.60272e-12
5.40846e-12
5.18576e-12
4.93785e-12
4.66855e-12
4.38213e-12
4.08313e-12
3.77621e-12
3.466e-12
3.15694e-12
2.85319e-12
2.55848e-12
2.27607e-12
2.00865e-12
1.75835e-12
1.52671e-12
1.3147e-12
1.12276e-12
9.50832e-13
7.98455e-13
6.64813e-13
5.48811e-13
4.49152e-13
3.64407e-13
2.93074e-13
2.33636e-13
1.84607e-13
1.44572e-13
1.12207e-13
8.63046e-14
6.57818e-14
4.96837e-14
3.71823e-14
2.7571e-14
2.02555e-14
1.47431e-14
1.06309e-14
7.59391e-15
5.37354e-15
3.76648e-15
2.61501e-15
1.79826e-15
1.22478e-15
8.26147e-16
5.51842e-16
3.64962e-16
2.38869e-16
1.54547e-16
9.85469e-17
6.14241e-17
3.65538e-17
1.92308e-17
5.98185e-18
3.42266e-15
1.03339e-14
1.74451e-14
2.48948e-14
3.28277e-14
4.1397e-14
5.07668e-14
6.11148e-14
7.26351e-14
8.55416e-14
1.00071e-13
1.16486e-13
1.35081e-13
1.56183e-13
1.8016e-13
2.07423e-13
2.38435e-13
2.73712e-13
3.13835e-13
3.59453e-13
4.11294e-13
4.70172e-13
5.36996e-13
6.12781e-13
6.98661e-13
7.95895e-13
9.05886e-13
1.03019e-12
1.17054e-12
1.32884e-12
1.50722e-12
1.708e-12
1.93375e-12
2.18732e-12
2.4718e-12
2.7906e-12
3.14746e-12
3.54643e-12
3.99196e-12
4.48886e-12
5.04236e-12
5.65813e-12
6.34229e-12
7.10141e-12
7.94259e-12
8.87341e-12
9.90199e-12
1.1037e-11
1.22876e-11
1.36635e-11
1.51751e-11
1.68332e-11
1.86491e-11
2.06347e-11
2.28024e-11
2.51651e-11
2.77359e-11
3.05284e-11
3.35566e-11
3.68346e-11
4.03765e-11
4.41968e-11
4.83097e-11
5.27292e-11
5.74692e-11
6.25429e-11
6.79632e-11
7.37421e-11
7.98907e-11
8.64189e-11
9.33356e-11
1.00648e-10
1.08362e-10
1.16481e-10
1.25008e-10
1.33941e-10
1.43279e-10
1.53016e-10
1.63145e-10
1.73654e-10
1.84531e-10
1.95759e-10
2.0732e-10
2.1919e-10
2.31344e-10
2.43754e-10
2.56388e-10
2.69213e-10
2.82191e-10
2.95283e-10
3.08447e-10
3.21639e-10
3.34813e-10
3.47923e-10
3.60919e-10
3.73752e-10
3.86371e-10
3.98727e-10
4.1077e-10
4.22449e-10
4.33716e-10
4.44524e-10
4.54827e-10
4.64581e-10
4.73746e-10
4.82281e-10
4.90152e-10
4.97326e-10
5.03774e-10
5.09469e-10
5.14391e-10
5.1852e-10
5.21842e-10
5.24347e-10
5.26029e-10
5.26884e-10
5.26914e-10
5.26123e-10
5.2452e-10
5.22116e-10
5.18927e-10
5.1497e-10
5.10265e-10
5.04837e-10
4.98711e-10
4.91915e-10
4.84479e-10
4.76434e-10
4.67813e-10
4.58651e-10
4.48983e-10
4.38845e-10
4.28274e-10
4.17308e-10
4.05984e-10
3.94341e-10
3.82416e-10
3.70248e-10
3.57875e-10
3.45334e-10
3.32663e-10
3.19899e-10
3.07077e-10
2.94234e-10
2.81404e-10
2.68622e-10
2.55921e-10
2.43333e-10
2.3089e-10
2.18622e-10
2.06559e-10
1.94727e-10
1.83153e-10
1.71863e-10
1.60878e-10
1.50222e-10
1.39913e-10
1.2997e-10
1.20409e-10
1.11243e-10
1.02484e-10
9.41422e-11
8.62244e-11
7.87359e-11
7.16795e-11
6.50557e-11
5.88631e-11
5.30976e-11
4.77536e-11
4.2823e-11
3.82962e-11
3.41616e-11
3.0406e-11
2.70151e-11
2.3973e-11
2.12627e-11
1.88665e-11
1.67658e-11
1.49416e-11
1.33744e-11
1.20443e-11
1.09317e-11
1.00167e-11
9.27967e-12
8.70136e-12
8.2628e-12
7.94552e-12
7.7316e-12
7.60378e-12
7.54556e-12
7.5412e-12
7.5759e-12
7.63583e-12
7.70824e-12
7.78152e-12
7.84532e-12
7.8906e-12
7.90971e-12
7.89645e-12
7.84606e-12
7.75531e-12
7.62238e-12
7.44692e-12
7.22989e-12
6.9735e-12
6.68102e-12
6.35668e-12
6.00546e-12
5.63286e-12
5.24474e-12
4.8471e-12
4.44587e-12
4.04674e-12
3.65499e-12
3.27539e-12
2.91204e-12
2.56836e-12
2.247e-12
1.94988e-12
1.67818e-12
1.4324e-12
1.21243e-12
1.01761e-12
8.46873e-13
6.98772e-13
5.7162e-13
4.63562e-13
3.72659e-13
2.96957e-13
2.34547e-13
1.83611e-13
1.42453e-13
1.0953e-13
8.34561e-14
6.30121e-14
4.71423e-14
3.49461e-14
2.56665e-14
1.86765e-14
1.34637e-14
9.61517e-15
6.80227e-15
4.7669e-15
3.30892e-15
2.27503e-15
1.54923e-15
1.04483e-15
6.97817e-16
4.61441e-16
3.0198e-16
1.95359e-16
1.24559e-16
7.76315e-17
4.61961e-17
2.43026e-17
7.5593e-18
6.17678e-15
1.86497e-14
3.14846e-14
4.49324e-14
5.92552e-14
7.47304e-14
9.16553e-14
1.10352e-13
1.31172e-13
1.54504e-13
1.80776e-13
2.10467e-13
2.44108e-13
2.82295e-13
3.25696e-13
3.75058e-13
4.3122e-13
4.95121e-13
5.67817e-13
6.50487e-13
7.44456e-13
8.51201e-13
9.72378e-13
1.10983e-12
1.26563e-12
1.44205e-12
1.64165e-12
1.86727e-12
2.12205e-12
2.40946e-12
2.73335e-12
3.09797e-12
3.50799e-12
3.96856e-12
4.48533e-12
5.06448e-12
5.71278e-12
6.43761e-12
7.24702e-12
8.14975e-12
9.15528e-12
1.02738e-11
1.15165e-11
1.28952e-11
1.44228e-11
1.61128e-11
1.79799e-11
2.00398e-11
2.23088e-11
2.48046e-11
2.75454e-11
3.05508e-11
3.38408e-11
3.74368e-11
4.13606e-11
4.5635e-11
5.02831e-11
5.5329e-11
6.07968e-11
6.67112e-11
7.30969e-11
7.99784e-11
8.73801e-11
9.53259e-11
1.03839e-10
1.12941e-10
1.22653e-10
1.32994e-10
1.43982e-10
1.55632e-10
1.67956e-10
1.80964e-10
1.94663e-10
2.09055e-10
2.2414e-10
2.39913e-10
2.56363e-10
2.73478e-10
2.91239e-10
3.0962e-10
3.28592e-10
3.48122e-10
3.68168e-10
3.88685e-10
4.09622e-10
4.30923e-10
4.52527e-10
4.74368e-10
4.96374e-10
5.18473e-10
5.40585e-10
5.62628e-10
5.8452e-10
6.06174e-10
6.27501e-10
6.48415e-10
6.68827e-10
6.88648e-10
7.07794e-10
7.26178e-10
7.43721e-10
7.60343e-10
7.75971e-10
7.90534e-10
8.0397e-10
8.16218e-10
8.27227e-10
8.36951e-10
8.45349e-10
8.52391e-10
8.58049e-10
8.62308e-10
8.65155e-10
8.66587e-10
8.66607e-10
8.65226e-10
8.6246e-10
8.58332e-10
8.52871e-10
8.46112e-10
8.38093e-10
8.2886e-10
8.1846e-10
8.06945e-10
7.94372e-10
7.80798e-10
7.66284e-10
7.50893e-10
7.34688e-10
7.17734e-10
7.00098e-10
6.81846e-10
6.63044e-10
6.43758e-10
6.24053e-10
6.03995e-10
5.83647e-10
5.63072e-10
5.4233e-10
5.21483e-10
5.00588e-10
4.79701e-10
4.58878e-10
4.38172e-10
4.17633e-10
3.9731e-10
3.77249e-10
3.57497e-10
3.38095e-10