/*--------------------------------*- C++ -*----------------------------------*\
| =========                 |                                                 |
| \\      /  F ield         | OpenFOAM: The Open Source CFD Toolbox           |
|  \\    /   O peration     | Version:  v2012                                 |
|   \\  /    A nd           | Website:  www.openfoam.com                      |
|    \\/     M anipulation  |                                                 |
\*---------------------------------------------------------------------------*/
FoamFile
{
    version     2.0;
    format      ascii;
    class       volScalarField;
    location    "15.9";
    object      Psi_z;
}
// * * * * * * * * * * * * * * * * * * * * * * * * * * * * * * * * * * * * * //

dimensions      [0 2 -1 0 0 0 0];


internalField   nonuniform List<scalar> 
65536
(
8.38859e-06
2.51664e-05
4.19456e-05
5.87272e-05
7.5512e-05
9.23012e-05
0.000109095
0.000125896
0.000142703
0.000159518
0.000176342
0.000193176
0.000210019
0.000226874
0.000243741
0.000260621
0.000277513
0.00029442
0.000311342
0.000328278
0.00034523
0.000362199
0.000379184
0.000396186
0.000413205
0.000430242
0.000447297
0.00046437
0.000481461
0.00049857
0.000515696
0.000532841
0.000550003
0.000567182
0.000584379
0.000601591
0.000618819
0.000636063
0.00065332
0.000670591
0.000687874
0.000705169
0.000722473
0.000739786
0.000757106
0.000774432
0.000791761
0.000809093
0.000826424
0.000843752
0.000861076
0.000878393
0.0008957
0.000912995
0.000930274
0.000947535
0.000964774
0.000981987
0.000999172
0.00101632
0.00103344
0.00105051
0.00106754
0.00108452
0.00110145
0.00111832
0.00113512
0.00115185
0.00116851
0.00118509
0.00120158
0.00121798
0.00123428
0.00125048
0.00126657
0.00128254
0.00129838
0.0013141
0.00132967
0.0013451
0.00136038
0.0013755
0.00139045
0.00140522
0.00141982
0.00143422
0.00144842
0.00146241
0.00147619
0.00148975
0.00150307
0.00151615
0.00152899
0.00154157
0.00155388
0.00156592
0.00157768
0.00158915
0.00160033
0.0016112
0.00162176
0.00163199
0.0016419
0.00165147
0.0016607
0.00166959
0.00167811
0.00168627
0.00169407
0.00170148
0.00170852
0.00171517
0.00172143
0.00172729
0.00173274
0.0017378
0.00174244
0.00174667
0.00175048
0.00175387
0.00175684
0.00175939
0.0017615
0.00176319
0.00176446
0.00176529
0.00176569
0.00176566
0.0017652
0.00176432
0.001763
0.00176126
0.0017591
0.00175652
0.00175352
0.0017501
0.00174627
0.00174203
0.00173739
0.00173235
0.00172692
0.00172109
0.00171488
0.00170829
0.00170133
0.001694
0.00168631
0.00167826
0.00166987
0.00166113
0.00165206
0.00164266
0.00163295
0.00162292
0.00161258
0.00160195
0.00159103
0.00157982
0.00156834
0.0015566
0.00154459
0.00153234
0.00151983
0.0015071
0.00149413
0.00148095
0.00146755
0.00145395
0.00144015
0.00142615
0.00141198
0.00139763
0.00138311
0.00136843
0.0013536
0.00133861
0.00132349
0.00130823
0.00129284
0.00127733
0.00126171
0.00124597
0.00123014
0.0012142
0.00119817
0.00118205
0.00116586
0.00114958
0.00113323
0.00111682
0.00110034
0.0010838
0.00106721
0.00105057
0.00103389
0.00101716
0.00100039
0.000983591
0.000966759
0.000949899
0.000933013
0.000916105
0.000899178
0.000882235
0.000865277
0.000848307
0.000831329
0.000814343
0.000797351
0.000780357
0.000763361
0.000746365
0.00072937
0.000712379
0.000695393
0.000678412
0.000661438
0.000644472
0.000627515
0.000610567
0.00059363
0.000576704
0.00055979
0.000542888
0.000525999
0.000509123
0.00049226
0.000475411
0.000458575
0.000441753
0.000424945
0.00040815
0.00039137
0.000374602
0.000357848
0.000341107
0.000324379
0.000307663
0.000290959
0.000274267
0.000257586
0.000240915
0.000224254
0.000207603
0.000190961
0.000174327
0.000157701
0.000141082
0.000124469
0.000107862
9.12592e-05
7.46609e-05
5.8066e-05
4.14738e-05
2.48835e-05
8.29439e-06
2.51655e-05
7.5498e-05
0.000125835
0.000176179
0.000226533
0.000276899
0.000327281
0.000377682
0.000428103
0.000478548
0.000529019
0.000579518
0.000630049
0.000680613
0.000731213
0.000781851
0.000832529
0.000883249
0.000934012
0.000984822
0.00103568
0.00108658
0.00113754
0.00118854
0.0012396
0.00129071
0.00134188
0.0013931
0.00144437
0.0014957
0.00154708
0.00159851
0.00165
0.00170153
0.00175312
0.00180476
0.00185645
0.00190818
0.00195995
0.00201177
0.00206362
0.0021155
0.00216742
0.00221936
0.00227132
0.0023233
0.00237529
0.00242728
0.00247928
0.00253127
0.00258324
0.0026352
0.00268712
0.00273901
0.00279085
0.00284263
0.00289435
0.002946
0.00299755
0.00304901
0.00310036
0.00315159
0.00320268
0.00325363
0.00330441
0.00335502
0.00340543
0.00345563
0.00350561
0.00355536
0.00360484
0.00365404
0.00370296
0.00375156
0.00379982
0.00384774
0.00389528
0.00394243
0.00398917
0.00403547
0.00408131
0.00412667
0.00417153
0.00421586
0.00425964
0.00430285
0.00434546
0.00438745
0.0044288
0.00446947
0.00450945
0.00454871
0.00458722
0.00462497
0.00466192
0.00469805
0.00473334
0.00476776
0.0048013
0.00483391
0.00486559
0.00489631
0.00492604
0.00495477
0.00498247
0.00500912
0.0050347
0.00505919
0.00508258
0.00510483
0.00512595
0.0051459
0.00516468
0.00518226
0.00519864
0.0052138
0.00522774
0.00524043
0.00525186
0.00526204
0.00527095
0.00527859
0.00528494
0.00529001
0.0052938
0.00529629
0.0052975
0.00529741
0.00529604
0.00529338
0.00528943
0.00528421
0.00527773
0.00526997
0.00526096
0.00525071
0.00523922
0.0052265
0.00521257
0.00519745
0.00518113
0.00516365
0.00514502
0.00512524
0.00510435
0.00508235
0.00505927
0.00503513
0.00500994
0.00498373
0.00495651
0.00492831
0.00489915
0.00486906
0.00483805
0.00480614
0.00477337
0.00473974
0.0047053
0.00467005
0.00463403
0.00459725
0.00455974
0.00452152
0.00448262
0.00444305
0.00440285
0.00436203
0.00432062
0.00427864
0.00423611
0.00419305
0.00414949
0.00410544
0.00406093
0.00401597
0.00397059
0.00392481
0.00387864
0.00383211
0.00378523
0.00373802
0.0036905
0.00364269
0.00359459
0.00354624
0.00349764
0.00344881
0.00339976
0.00335051
0.00330107
0.00325146
0.00320168
0.00315176
0.0031017
0.00305151
0.00300121
0.0029508
0.0029003
0.00284972
0.00279906
0.00274833
0.00269755
0.00264671
0.00259584
0.00254493
0.00249399
0.00244303
0.00239205
0.00234107
0.00229008
0.00223909
0.0021881
0.00213713
0.00208617
0.00203522
0.0019843
0.0019334
0.00188253
0.00183169
0.00178088
0.0017301
0.00167935
0.00162865
0.00157798
0.00152735
0.00147676
0.00142622
0.00137571
0.00132524
0.00127482
0.00122444
0.00117409
0.00112379
0.00107353
0.00102331
0.000973123
0.000922976
0.000872865
0.000822788
0.000772745
0.000722734
0.000672753
0.0006228
0.000572874
0.000522973
0.000473095
0.000423239
0.000373401
0.000323579
0.000273773
0.000223979
0.000174195
0.000124419
7.46494e-05
2.48828e-05
4.1941e-05
0.000125825
0.000209717
0.00029362
0.00037754
0.000461482
0.000545449
0.000629446
0.000713479
0.000797551
0.000881666
0.00096583
0.00105004
0.00113432
0.00121865
0.00130304
0.0013875
0.00147203
0.00155664
0.00164132
0.00172608
0.00181092
0.00189584
0.00198085
0.00206595
0.00215113
0.0022364
0.00232177
0.00240722
0.00249277
0.0025784
0.00266412
0.00274994
0.00283584
0.00292182
0.00300789
0.00309403
0.00318025
0.00326654
0.0033529
0.00343932
0.0035258
0.00361233
0.00369891
0.00378551
0.00387215
0.00395881
0.00404547
0.00413214
0.0042188
0.00430543
0.00439203
0.00447858
0.00456506
0.00465147
0.00473779
0.00482401
0.00491009
0.00499603
0.00508181
0.00516741
0.0052528
0.00533797
0.0054229
0.00550755
0.00559191
0.00567595
0.00575964
0.00584296
0.00592588
0.00600837
0.0060904
0.00617194
0.00625296
0.00633343
0.00641331
0.00649258
0.00657118
0.0066491
0.00672629
0.00680272
0.00687835
0.00695313
0.00702705
0.00710004
0.00717209
0.00724313
0.00731314
0.00738208
0.00744989
0.00751655
0.00758201
0.00764623
0.00770916
0.00777078
0.00783102
0.00788987
0.00794727
0.00800318
0.00805756
0.00811039
0.00816161
0.00821119
0.00825909
0.00830528
0.00834972
0.00839238
0.00843322
0.00847221
0.00850933
0.00854454
0.00857781
0.00860912
0.00863845
0.00866576
0.00869104
0.00871427
0.00873543
0.00875451
0.00877148
0.00878633
0.00879907
0.00880966
0.00881812
0.00882443
0.00882859
0.00883059
0.00883045
0.00882815
0.00882372
0.00881714
0.00880844
0.00879761
0.00878468
0.00876966
0.00875255
0.00873339
0.00871218
0.00868895
0.00866373
0.00863652
0.00860737
0.00857629
0.00854331
0.00850847
0.00847179
0.0084333
0.00839304
0.00835104
0.00830732
0.00826194
0.00821492
0.0081663
0.00811611
0.0080644
0.0080112
0.00795655
0.00790049
0.00784305
0.00778428
0.00772421
0.00766289
0.00760035
0.00753663
0.00747176
0.0074058
0.00733877
0.00727072
0.00720167
0.00713168
0.00706077
0.00698898
0.00691635
0.00684292
0.00676871
0.00669376
0.0066181
0.00654178
0.00646481
0.00638724
0.00630909
0.00623038
0.00615116
0.00607145
0.00599128
0.00591067
0.00582965
0.00574825
0.00566649
0.00558439
0.00550197
0.00541927
0.0053363
0.00525308
0.00516963
0.00508598
0.00500213
0.00491811
0.00483393
0.00474961
0.00466517
0.00458061
0.00449597
0.00441124
0.00432643
0.00424158
0.00415667
0.00407173
0.00398676
0.00390178
0.00381679
0.00373181
0.00364683
0.00356187
0.00347693
0.00339202
0.00330714
0.00322231
0.00313752
0.00305278
0.00296809
0.00288346
0.00279888
0.00271437
0.00262992
0.00254554
0.00246123
0.00237698
0.0022928
0.00220869
0.00212465
0.00204068
0.00195678
0.00187294
0.00178917
0.00170547
0.00162183
0.00153825
0.00145474
0.00137128
0.00128787
0.00120452
0.00112122
0.00103797
0.000954762
0.000871596
0.000788469
0.000705376
0.000622315
0.000539283
0.000456274
0.000373287
0.000290316
0.000207359
0.000124412
4.147e-05
5.87141e-05
0.000176146
0.000293587
0.000411045
0.000528527
0.000646038
0.000763586
0.000881176
0.000998815
0.00111651
0.00123427
0.00135209
0.00146998
0.00158796
0.00170602
0.00182416
0.0019424
0.00206074
0.00217918
0.00229773
0.00241639
0.00253517
0.00265406
0.00277307
0.0028922
0.00301146
0.00313084
0.00325035
0.00336998
0.00348975
0.00360964
0.00372965
0.00384979
0.00397005
0.00409043
0.00421093
0.00433154
0.00445225
0.00457307
0.00469398
0.00481497
0.00493605
0.0050572
0.00517842
0.00529968
0.00542098
0.00554232
0.00566366
0.00578501
0.00590634
0.00602765
0.0061489
0.00627009
0.0063912
0.00651219
0.00663306
0.00675378
0.00687433
0.00699467
0.00711479
0.00723466
0.00735424
0.00747351
0.00759243
0.00771098
0.00782912
0.00794681
0.00806402
0.0081807
0.00829683
0.00841236
0.00852725
0.00864145
0.00875492
0.00886762
0.00897951
0.00909052
0.00920062
0.00930975
0.00941787
0.00952492
0.00963086
0.00973562
0.00983915
0.0099414
0.0100423
0.0101418
0.0102399
0.0103365
0.0104315
0.0105249
0.0106166
0.0107065
0.0107947
0.010881
0.0109654
0.0110478
0.0111283
0.0112066
0.0112828
0.0113568
0.0114285
0.011498
0.0115651
0.0116298
0.0116921
0.0117519
0.0118091
0.0118637
0.0119157
0.0119651
0.0120117
0.0120556
0.0120966
0.0121349
0.0121703
0.0122029
0.0122325
0.0122592
0.012283
0.0123038
0.0123217
0.0123365
0.0123484
0.0123572
0.012363
0.0123658
0.0123656
0.0123624
0.0123562
0.012347
0.0123348
0.0123196
0.0123015
0.0122804
0.0122565
0.0122296
0.0121999
0.0121673
0.012132
0.0120939
0.012053
0.0120095
0.0119633
0.0119144
0.011863
0.0118091
0.0117527
0.0116938
0.0116326
0.011569
0.0115031
0.011435
0.0113647
0.0112922
0.0112177
0.0111412
0.0110626
0.0109821
0.0108998
0.0108157
0.0107298
0.0106421
0.0105529
0.010462
0.0103696
0.0102757
0.0101804
0.0100837
0.00998563
0.00988631
0.00978576
0.00968403
0.00958116
0.00947722
0.00937225
0.00926629
0.00915939
0.00905159
0.00894294
0.00883349
0.00872327
0.00861232
0.00850068
0.0083884
0.00827551
0.00816205
0.00804805
0.00793355
0.00781858
0.00770317
0.00758736
0.00747117
0.00735463
0.00723778
0.00712063
0.00700322
0.00688557
0.0067677
0.00664963
0.00653139
0.006413
0.00629447
0.00617583
0.00605709
0.00593827
0.00581939
0.00570046
0.00558149
0.00546251
0.00534351
0.00522452
0.00510554
0.00498658
0.00486766
0.00474878
0.00462994
0.00451117
0.00439246
0.00427381
0.00415525
0.00403676
0.00391835
0.00380003
0.0036818
0.00356367
0.00344562
0.00332768
0.00320982
0.00309207
0.00297442
0.00285686
0.00273939
0.00262203
0.00250475
0.00238757
0.00227048
0.00215347
0.00203655
0.00191971
0.00180295
0.00168626
0.00156964
0.0014531
0.00133661
0.00122018
0.00110381
0.000987483
0.000871202
0.000754961
0.000638755
0.000522577
0.000406424
0.00029029
0.000174169
5.80553e-05
7.54837e-05
0.000226456
0.00037744
0.000528447
0.000679483
0.000830558
0.000981679
0.00113286
0.0012841
0.00143541
0.0015868
0.00173827
0.00188984
0.00204152
0.0021933
0.00234519
0.00249721
0.00264935
0.00280163
0.00295404
0.00310659
0.0032593
0.00341215
0.00356516
0.00371833
0.00387166
0.00402515
0.0041788
0.00433262
0.0044866
0.00464074
0.00479505
0.00494952
0.00510415
0.00525893
0.00541386
0.00556893
0.00572415
0.00587949
0.00603496
0.00619054
0.00634623
0.00650201
0.00665787
0.0068138
0.00696979
0.00712581
0.00728185
0.00743789
0.00759392
0.00774991
0.00790584
0.00806169
0.00821743
0.00837304
0.00852848
0.00868373
0.00883876
0.00899354
0.00914802
0.00930218
0.00945599
0.00960939
0.00976235
0.00991482
0.0100668
0.0102182
0.0103689
0.010519
0.0106684
0.010817
0.0109648
0.0111117
0.0112577
0.0114026
0.0115466
0.0116894
0.011831
0.0119714
0.0121105
0.0122482
0.0123845
0.0125193
0.0126525
0.0127841
0.0129139
0.013042
0.0131682
0.0132924
0.0134147
0.0135348
0.0136528
0.0137686
0.013882
0.0139931
0.0141017
0.0142078
0.0143113
0.0144121
0.0145102
0.0146054
0.0146978
0.0147872
0.0148736
0.0149568
0.015037
0.0151139
0.0151876
0.0152579
0.0153248
0.0153883
0.0154483
0.0155048
0.0155576
0.0156069
0.0156525
0.0156944
0.0157325
0.0157669
0.0157975
0.0158243
0.0158473
0.0158664
0.0158816
0.015893
0.0159005
0.0159041
0.0159038
0.0158997
0.0158917
0.0158798
0.0158641
0.0158446
0.0158212
0.0157941
0.0157633
0.0157287
0.0156904
0.0156485
0.015603
0.0155539
0.0155013
0.0154453
0.0153858
0.015323
0.0152568
0.0151874
0.0151148
0.015039
0.0149602
0.0148784
0.0147936
0.0147059
0.0146154
0.0145222
0.0144263
0.0143277
0.0142267
0.0141231
0.0140172
0.0139089
0.0137983
0.0136856
0.0135707
0.0134538
0.0133349
0.0132141
0.0130914
0.012967
0.0128409
0.0127131
0.0125837
0.0124528
0.0123205
0.0121868
0.0120517
0.0119154
0.0117779
0.0116392
0.0114995
0.0113587
0.0112169
0.0110742
0.0109306
0.0107861
0.0106409
0.010495
0.0103484
0.0102011
0.0100532
0.00990478
0.00975582
0.00960639
0.00945651
0.00930622
0.00915556
0.00900456
0.00885325
0.00870166
0.00854982
0.00839776
0.00824551
0.00809309
0.00794052
0.00778783
0.00763503
0.00748216
0.00732922
0.00717625
0.00702324
0.00687023
0.00671722
0.00656422
0.00641126
0.00625835
0.00610549
0.00595269
0.00579997
0.00564733
0.00549478
0.00534232
0.00518997
0.00503773
0.0048856
0.00473359
0.0045817
0.00442992
0.00427828
0.00412675
0.00397536
0.00382408
0.00367294
0.00352191
0.00337102
0.00322024
0.00306958
0.00291903
0.0027686
0.00261828
0.00246806
0.00231795
0.00216793
0.002018
0.00186816
0.0017184
0.00156871
0.0014191
0.00126954
0.00112005
0.000970606
0.000821206
0.000671844
0.000522513
0.000373207
0.000223917
7.46379e-05
9.22491e-05
0.000276753
0.000461272
0.000645818
0.000830401
0.00101503
0.00119972
0.00138447
0.00156931
0.00175423
0.00193924
0.00212436
0.0023096
0.00249497
0.00268046
0.0028661
0.00305188
0.00323782
0.00342393
0.0036102
0.00379665
0.00398328
0.00417009
0.0043571
0.0045443
0.00473169
0.00491929
0.00510708
0.00529508
0.00548328
0.00567169
0.00586029
0.00604909
0.00623809
0.00642727
0.00661664
0.00680619
0.00699591
0.00718579
0.00737583
0.00756601
0.00775631
0.00794674
0.00813726
0.00832787
0.00851855
0.00870928
0.00890003
0.00909079
0.00928154
0.00947224
0.00966287
0.0098534
0.0100438
0.010234
0.0104241
0.0106139
0.0108034
0.0109927
0.0111816
0.0113701
0.0115581
0.0117457
0.0119327
0.0121192
0.012305
0.0124901
0.0126745
0.012858
0.0130407
0.0132224
0.0134032
0.0135828
0.0137614
0.0139387
0.0141147
0.0142894
0.0144627
0.0146344
0.0148045
0.014973
0.0151397
0.0153046
0.0154676
0.0156285
0.0157873
0.015944
0.0160984
0.0162504
0.0164
0.016547
0.0166913
0.016833
0.0169718
0.0171077
0.0172406
0.0173704
0.0174971
0.0176204
0.0177404
0.017857
0.01797
0.0180794
0.0181851
0.018287
0.0183851
0.0184792
0.0185693
0.0186554
0.0187373
0.018815
0.0188885
0.0189576
0.0190223
0.0190826
0.0191384
0.0191896
0.0192363
0.0192784
0.0193159
0.0193487
0.0193767
0.0194001
0.0194188
0.0194327
0.0194418
0.0194462
0.0194459
0.0194408
0.019431
0.0194165
0.0193972
0.0193733
0.0193447
0.0193115
0.0192738
0.0192314
0.0191846
0.0191333
0.0190776
0.0190175
0.0189532
0.0188845
0.0188117
0.0187348
0.0186538
0.0185689
0.01848
0.0183873
0.0182908
0.0181907
0.0180869
0.0179796
0.0178689
0.0177548
0.0176374
0.0175168
0.0173932
0.0172665
0.0171368
0.0170043
0.0168691
0.0167311
0.0165906
0.0164476
0.0163021
0.0161543
0.0160043
0.0158521
0.0156977
0.0155414
0.0153832
0.0152231
0.0150612
0.0148977
0.0147325
0.0145657
0.0143976
0.0142279
0.014057
0.0138848
0.0137114
0.0135369
0.0133613
0.0131847
0.0130071
0.0128286
0.0126493
0.0124692
0.0122884
0.0121069
0.0119248
0.011742
0.0115588
0.011375
0.0111908
0.0110062
0.0108212
0.0106359
0.0104502
0.0102643
0.0100782
0.00989185
0.00970533
0.00951867
0.00933188
0.00914499
0.00895803
0.00877102
0.00858399
0.00839694
0.0082099
0.00802288
0.0078359
0.00764898
0.00746213
0.00727536
0.00708868
0.00690211
0.00671565
0.0065293
0.00634308
0.006157
0.00597106
0.00578526
0.0055996
0.0054141
0.00522875
0.00504356
0.00485851
0.00467363
0.00448889
0.00430431
0.00411989
0.00393561
0.00375147
0.00356748
0.00338363
0.00319991
0.00301632
0.00283285
0.00264951
0.00246627
0.00228314
0.00210011
0.00191718
0.00173432
0.00155155
0.00136885
0.00118621
0.00100362
0.00082108
0.000638578
0.000456106
0.000273655
9.1217e-05
0.000109009
0.000327034
0.000545077
0.000763152
0.000981271
0.00119945
0.00141769
0.00163601
0.00185443
0.00207295
0.00229158
0.00251034
0.00272924
0.00294828
0.00316748
0.00338685
0.0036064
0.00382613
0.00404606
0.00426618
0.00448652
0.00470707
0.00492784
0.00514884
0.00537007
0.00559153
0.00581323
0.00603517
0.00625735
0.00647977
0.00670243
0.00692533
0.00714847
0.00737183
0.00759543
0.00781924
0.00804327
0.00826751
0.00849194
0.00871655
0.00894134
0.00916628
0.00939136
0.00961656
0.00984187
0.0100673
0.0102927
0.0105182
0.0107437
0.0109692
0.0111946
0.01142
0.0116452
0.0118703
0.0120952
0.0123199
0.0125443
0.0127684
0.0129922
0.0132155
0.0134384
0.0136608
0.0138826
0.0141037
0.0143242
0.0145439
0.0147628
0.0149808
0.0151979
0.015414
0.0156289
0.0158426
0.0160551
0.0162663
0.016476
0.0166843
0.0168909
0.0170958
0.017299
0.0175002
0.0176995
0.0178967
0.0180918
0.0182846
0.018475
0.0186629
0.0188483
0.0190309
0.0192108
0.0193878
0.0195617
0.0197326
0.0199002
0.0200645
0.0202253
0.0203826
0.0205362
0.0206861
0.0208321
0.0209741
0.021112
0.0212458
0.0213753
0.0215004
0.021621
0.0217371
0.0218485
0.0219552
0.0220571
0.022154
0.022246
0.0223329
0.0224147
0.0224913
0.0225627
0.0226288
0.0226894
0.0227447
0.0227945
0.0228389
0.0228777
0.0229109
0.0229386
0.0229606
0.0229771
0.0229879
0.0229931
0.0229927
0.0229867
0.0229751
0.0229578
0.022935
0.0229067
0.0228729
0.0228336
0.0227888
0.0227387
0.0226832
0.0226225
0.0225565
0.0224854
0.0224092
0.022328
0.0222418
0.0221507
0.0220549
0.0219543
0.0218491
0.0217393
0.0216252
0.0215066
0.0213838
0.0212568
0.0211257
0.0209907
0.0208518
0.0207091
0.0205627
0.0204128
0.0202594
0.0201026
0.0199425
0.0197793
0.019613
0.0194438
0.0192717
0.0190968
0.0189193
0.0187392
0.0185566
0.0183717
0.0181845
0.0179951
0.0178036
0.0176102
0.0174148
0.0172176
0.0170186
0.016818
0.0166158
0.0164122
0.0162071
0.0160007
0.015793
0.0155841
0.0153741
0.0151631
0.0149511
0.0147381
0.0145243
0.0143097
0.0140943
0.0138783
0.0136616
0.0134443
0.0132265
0.0130082
0.0127895
0.0125704
0.0123509
0.0121311
0.0119111
0.0116908
0.0114703
0.0112496
0.0110288
0.0108079
0.0105869
0.0103658
0.0101447
0.00992364
0.00970255
0.0094815
0.00926049
0.00903955
0.0088187
0.00859794
0.0083773
0.00815678
0.00793639
0.00771615
0.00749606
0.00727613
0.00705637
0.00683678
0.00661736
0.00639813
0.00617907
0.0059602
0.00574152
0.00552302
0.0053047
0.00508656
0.00486861
0.00465083
0.00443322
0.00421579
0.00399852
0.00378141
0.00356445
0.00334764
0.00313097
0.00291443
0.00269802
0.00248173
0.00226555
0.00204947
0.00183349
0.00161758
0.00140175
0.00118599
0.000970278
0.000754614
0.000538985
0.000323381
0.000107792
0.000125763
0.000377296
0.000628851
0.000880442
0.00113208
0.00138379
0.00163558
0.00188746
0.00213944
0.00239155
0.00264379
0.00289618
0.00314872
0.00340144
0.00365434
0.00390743
0.00416073
0.00441425
0.00466799
0.00492196
0.00517617
0.00543064
0.00568536
0.00594035
0.0061956
0.00645113
0.00670693
0.00696301
0.00721937
0.00747601
0.00773293
0.00799013
0.00824761
0.00850535
0.00876336
0.00902163
0.00928015
0.00953891
0.0097979
0.0100571
0.0103165
0.0105761
0.0108359
0.0110958
0.0113558
0.0116159
0.0118761
0.0121364
0.0123966
0.0126569
0.0129171
0.0131772
0.0134372
0.013697
0.0139567
0.014216
0.0144751
0.0147338
0.0149921
0.0152499
0.0155072
0.015764
0.01602
0.0162754
0.0165299
0.0167836
0.0170364
0.0172882
0.0175388
0.0177883
0.0180365
0.0182834
0.0185288
0.0187727
0.0190149
0.0192554
0.019494
0.0197307
0.0199654
0.0201979
0.0204281
0.0206559
0.0208813
0.021104
0.021324
0.0215411
0.0217553
0.0219663
0.0221741
0.0223786
0.0225796
0.022777
0.0229707
0.0231606
0.0233464
0.0235282
0.0237057
0.0238789
0.0240477
0.0242118
0.0243713
0.0245259
0.0246755
0.0248201
0.0249596
0.0250938
0.0252226
0.0253459
0.0254636
0.0255757
0.0256821
0.0257825
0.0258771
0.0259657
0.0260482
0.0261245
0.0261947
0.0262586
0.0263161
0.0263674
0.0264122
0.0264507
0.0264826
0.0265081
0.0265271
0.0265396
0.0265457
0.0265452
0.0265382
0.0265247
0.0265048
0.0264784
0.0264456
0.0264065
0.026361
0.0263093
0.0262513
0.0261872
0.0261169
0.0260407
0.0259584
0.0258703
0.0257764
0.0256767
0.0255714
0.0254606
0.0253443
0.0252227
0.0250958
0.0249638
0.0248268
0.0246848
0.024538
0.0243865
0.0242305
0.0240699
0.023905
0.0237358
0.0235625
0.0233853
0.0232041
0.0230191
0.0228305
0.0226384
0.0224428
0.022244
0.022042
0.0218369
0.0216288
0.0214179
0.0212043
0.020988
0.0207692
0.0205481
0.0203246
0.0200989
0.0198711
0.0196413
0.0194096
0.0191762
0.0189409
0.0187041
0.0184657
0.0182259
0.0179847
0.0177422
0.0174985
0.0172537
0.0170078
0.016761
0.0165132
0.0162645
0.0160151
0.0157649
0.0155141
0.0152627
0.0150107
0.0147582
0.0145053
0.0142519
0.0139982
0.0137442
0.0134899
0.0132354
0.0129807
0.0127259
0.0124709
0.0122158
0.0119607
0.0117055
0.0114503
0.0111952
0.0109401
0.010685
0.01043
0.0101752
0.00992042
0.00966579
0.00941132
0.009157
0.00890285
0.00864888
0.0083951
0.00814151
0.00788813
0.00763495
0.00738197
0.00712921
0.00687667
0.00662434
0.00637222
0.00612032
0.00586863
0.00561715
0.00536588
0.00511481
0.00486393
0.00461325
0.00436275
0.00411243
0.00386229
0.0036123
0.00336247
0.00311279
0.00286325
0.00261383
0.00236453
0.00211534
0.00186624
0.00161723
0.0013683
0.00111943
0.000870614
0.000621838
0.000373091
0.000124362
0.000142509
0.000427536
0.000712588
0.000997682
0.00128283
0.00156806
0.00185337
0.0021388
0.00242434
0.00271002
0.00299585
0.00328185
0.00356804
0.00385441
0.004141
0.00442781
0.00471485
0.00500214
0.00528968
0.00557749
0.00586558
0.00615395
0.00644262
0.00673159
0.00702086
0.00731044
0.00760035
0.00789057
0.00818111
0.00847197
0.00876315
0.00905466
0.00934647
0.0096386
0.00993104
0.0102238
0.0105168
0.0108101
0.0111036
0.0113975
0.0116915
0.0119858
0.0122802
0.0125748
0.0128696
0.0131645
0.0134595
0.0137545
0.0140496
0.0143446
0.0146396
0.0149346
0.0152294
0.015524
0.0158183
0.0161124
0.0164062
0.0166996
0.0169925
0.0172848
0.0175767
0.0178678
0.0181582
0.0184478
0.0187366
0.0190243
0.019311
0.0195966
0.0198809
0.0201639
0.0204455
0.0207256
0.021004
0.0212806
0.0215555
0.0218283
0.0220991
0.0223677
0.022634
0.0228978
0.0231591
0.0234176
0.0236734
0.0239261
0.0241758
0.0244223
0.0246653
0.0249049
0.0251408
0.0253729
0.0256011
0.0258252
0.0260451
0.0262606
0.0264717
0.026678
0.0268796
0.0270763
0.0272679
0.0274543
0.0276353
0.0278109
0.0279808
0.0281451
0.0283034
0.0284558
0.0286021
0.0287422
0.0288759
0.0290032
0.029124
0.0292381
0.0293455
0.0294461
0.0295397
0.0296265
0.0297061
0.0297787
0.0298441
0.0299023
0.0299532
0.0299969
0.0300332
0.0300621
0.0300837
0.0300979
0.0301047
0.0301041
0.0300961
0.0300808
0.0300581
0.0300281
0.0299909
0.0299464
0.0298947
0.0298359
0.0297701
0.0296972
0.0296174
0.0295307
0.0294373
0.0293372
0.0292305
0.0291173
0.0289977
0.0288718
0.0287397
0.0286016
0.0284575
0.0283075
0.0281519
0.0279907
0.027824
0.0276519
0.0274747
0.0272924
0.0271051
0.0269131
0.0267163
0.026515
0.0263094
0.0260994
0.0258853
0.0256672
0.0254452
0.0252195
0.0249902
0.0247574
0.0245212
0.0242819
0.0240394
0.023794
0.0235458
0.0232948
0.0230412
0.0227851
0.0225267
0.0222659
0.0220031
0.0217382
0.0214713
0.0212027
0.0209322
0.0206602
0.0203866
0.0201115
0.0198351
0.0195574
0.0192786
0.0189986
0.0187175
0.0184355
0.0181527
0.017869
0.0175845
0.0172994
0.0170137
0.0167274
0.0164405
0.0161533
0.0158656
0.0155776
0.0152893
0.0150008
0.014712
0.014423
0.014134
0.0138448
0.0135556
0.0132663
0.012977
0.0126878
0.0123986
0.0121094
0.0118204
0.0115315
0.0112428
0.0109541
0.0106657
0.0103774
0.0100894
0.00980152
0.00951387
0.00922646
0.00893927
0.00865232
0.00836561
0.00807914
0.00779292
0.00750695
0.00722122
0.00693574
0.0066505
0.00636549
0.00608073
0.0057962
0.00551189
0.0052278
0.00494392
0.00466025
0.00437677
0.00409348
0.00381036
0.00352742
0.00324463
0.00296199
0.00267948
0.00239709
0.00211482
0.00183264
0.00155055
0.00126853
0.000986573
0.000704662
0.000422784
0.000140926
0.000159247
0.000477752
0.000796284
0.00111486
0.00143351
0.00175223
0.00207106
0.00239001
0.0027091
0.00302834
0.00334775
0.00366735
0.00398715
0.00430718
0.00462744
0.00494795
0.00526872
0.00558977
0.00591111
0.00623274
0.0065547
0.00687697
0.00719957
0.00752252
0.00784581
0.00816945
0.00849344
0.0088178
0.00914252
0.00946761
0.00979305
0.0101189
0.010445
0.0107715
0.0110984
0.0114256
0.0117531
0.012081
0.0124091
0.0127376
0.0130663
0.0133952
0.0137244
0.0140537
0.0143833
0.014713
0.0150428
0.0153726
0.0157025
0.0160324
0.0163623
0.016692
0.0170217
0.0173511
0.0176803
0.0180092
0.0183377
0.0186658
0.0189933
0.0193204
0.0196467
0.0199724
0.0202972
0.0206212
0.0209441
0.021266
0.0215868
0.0219062
0.0222243
0.022541
0.022856
0.0231694
0.0234809
0.0237905
0.024098
0.0244034
0.0247064
0.025007
0.025305
0.0256003
0.0258927
0.0261822
0.0264684
0.0267514
0.0270309
0.0273068
0.0275789
0.0278471
0.0281113
0.0283712
0.0286267
0.0288776
0.0291239
0.0293652
0.0296015
0.0298327
0.0300584
0.0302787
0.0304933
0.0307021
0.0309048
0.0311015
0.0312919
0.0314759
0.0316533
0.031824
0.0319878
0.0321447
0.0322946
0.0324372
0.0325725
0.0327003
0.0328207
0.0329333
0.0330383
0.0331355
0.0332247
0.033306
0.0333793
0.0334445
0.0335015
0.0335504
0.033591
0.0336235
0.0336476
0.0336635
0.0336711
0.0336704
0.0336614
0.0336442
0.0336188
0.0335852
0.0335434
0.0334935
0.0334356
0.0333697
0.0332958
0.0332142
0.0331247
0.0330276
0.0329229
0.0328107
0.0326911
0.0325642
0.0324302
0.0322891
0.0321412
0.0319864
0.0318249
0.031657
0.0314826
0.031302
0.0311153
0.0309226
0.030724
0.0305198
0.0303101
0.030095
0.0298747
0.0296492
0.0294189
0.0291838
0.0289441
0.0286999
0.0284513
0.0281986
0.0279419
0.0276813
0.0274169
0.027149
0.0268776
0.0266029
0.026325
0.0260441
0.0257603
0.0254737
0.0251845
0.0248927
0.0245986
0.0243022
0.0240036
0.023703
0.0234004
0.023096
0.0227899
0.0224822
0.022173
0.0218624
0.0215504
0.0212372
0.0209228
0.0206074
0.020291
0.0199737
0.0196556
0.0193368
0.0190172
0.018697
0.0183763
0.018055
0.0177334
0.0174113
0.017089
0.0167663
0.0164434
0.0161204
0.0157972
0.0154738
0.0151505
0.0148271
0.0145037
0.0141803
0.013857
0.0135338
0.0132107
0.0128877
0.0125649
0.0122423
0.0119199
0.0115977
0.0112757
0.0109539
0.0106324
0.0103112
0.00999018
0.00966945
0.009349
0.00902882
0.00870893
0.00838931
0.00806997
0.00775091
0.00743212
0.0071136
0.00679535
0.00647736
0.00615962
0.00584213
0.00552488
0.00520786
0.00489107
0.00457448
0.00425809
0.00394189
0.00362587
0.00331001
0.0029943
0.00267874
0.00236329
0.00204796
0.00173272
0.00141757
0.00110249
0.000787452
0.000472456
0.000157483
0.000175976
0.000527939
0.000879933
0.00123198
0.0015841
0.00193631
0.00228863
0.00264109
0.0029937
0.00334648
0.00369946
0.00405264
0.00440605
0.00475971
0.00511362
0.00546782
0.00582231
0.00617711
0.00653223
0.00688769
0.00724349
0.00759965
0.00795619
0.0083131
0.0086704
0.00902809
0.00938618
0.00974467
0.0101036
0.0104629
0.0108226
0.0111827
0.0115432
0.0119041
0.0122654
0.0126271
0.0129892
0.0133516
0.0137143
0.0140774
0.0144408
0.0148044
0.0151683
0.0155325
0.0158968
0.0162613
0.016626
0.0169907
0.0173555
0.0177203
0.018085
0.0184497
0.0188142
0.0191785
0.0195425
0.0199063
0.0202696
0.0206325
0.0209948
0.0213565
0.0217175
0.0220777
0.0224371
0.0227955
0.0231528
0.0235089
0.0238638
0.0242172
0.0245692
0.0249196
0.0252682
0.025615
0.0259597
0.0263024
0.0266428
0.0269807
0.0273162
0.0276489
0.0279788
0.0283057
0.0286294
0.0289498
0.0292668
0.0295801
0.0298895
0.0301951
0.0304964
0.0307934
0.0310859
0.0313738
0.0316568
0.0319347
0.0322075
0.0324748
0.0327366
0.0329927
0.0332428
0.0334868
0.0337245
0.0339558
0.0341805
0.0343984
0.0346094
0.0348132
0.0350098
0.035199
0.0353805
0.0355544
0.0357205
0.0358785
0.0360284
0.0361701
0.0363035
0.0364284
0.0365447
0.0366523
0.0367513
0.0368414
0.0369225
0.0369948
0.037058
0.0371121
0.0371572
0.0371931
0.0372198
0.0372374
0.0372458
0.037245
0.037235
0.0372159
0.0371877
0.0371504
0.037104
0.0370487
0.0369844
0.0369113
0.0368295
0.0367389
0.0366397
0.036532
0.0364159
0.0362915
0.036159
0.0360183
0.0358698
0.0357134
0.0355494
0.0353779
0.0351989
0.0350128
0.0348196
0.0346194
0.0344125
0.034199
0.033979
0.0337528
0.0335204
0.0332821
0.0330381
0.0327884
0.0325332
0.0322728
0.0320073
0.0317368
0.0314616
0.0311818
0.0308975
0.0306089
0.0303162
0.0300195
0.029719
0.0294149
0.0291073
0.0287963
0.0284822
0.0281649
0.0278448
0.0275219
0.0271963
0.0268683
0.0265379
0.0262052
0.0258704
0.0255336
0.0251949
0.0248544
0.0245123
0.0241686
0.0238235
0.023477
0.0231292
0.0227803
0.0224303
0.0220794
0.0217275
0.0213748
0.0210213
0.0206672
0.0203125
0.0199572
0.0196015
0.0192454
0.0188889
0.0185321
0.0181751
0.0178178