/*--------------------------------*- C++ -*----------------------------------*\
| =========                 |                                                 |
| \\      /  F ield         | OpenFOAM: The Open Source CFD Toolbox           |
|  \\    /   O peration     | Version:  v2012                                 |
|   \\  /    A nd           | Website:  www.openfoam.com                      |
|    \\/     M anipulation  |                                                 |
\*---------------------------------------------------------------------------*/
FoamFile
{
    version     2.0;
    format      ascii;
    class       volScalarField;
    location    "11.5";
    object      W;
}
// * * * * * * * * * * * * * * * * * * * * * * * * * * * * * * * * * * * * * //

dimensions      [0 0 -1 0 0 0 0];


internalField   nonuniform List<scalar> 
65536
(
5.67582e-18
1.71433e-17
2.8962e-17
4.13756e-17
5.46396e-17
6.90249e-17
8.48229e-17
1.0235e-16
1.21954e-16
1.44018e-16
1.6897e-16
1.97287e-16
2.29501e-16
2.66214e-16
3.08099e-16
3.55913e-16
4.10512e-16
4.72855e-16
5.44025e-16
6.25239e-16
7.17864e-16
8.23438e-16
9.43688e-16
1.08055e-15
1.23619e-15
1.41304e-15
1.6138e-15
1.84152e-15
2.09956e-15
2.39169e-15
2.7221e-15
3.09544e-15
3.51686e-15
3.99207e-15
4.5274e-15
5.12983e-15
5.80705e-15
6.56755e-15
7.42064e-15
8.37656e-15
9.44653e-15
1.06428e-14
1.19788e-14
1.34692e-14
1.51298e-14
1.6978e-14
1.90325e-14
2.13136e-14
2.38434e-14
2.66453e-14
2.97451e-14
3.31699e-14
3.69492e-14
4.11143e-14
4.56987e-14
5.07382e-14
5.62705e-14
6.23359e-14
6.89769e-14
7.62382e-14
8.41669e-14
9.28124e-14
1.02227e-13
1.12463e-13
1.23578e-13
1.3563e-13
1.48678e-13
1.62785e-13
1.78014e-13
1.94429e-13
2.12097e-13
2.31084e-13
2.51458e-13
2.73285e-13
2.96634e-13
3.21572e-13
3.48163e-13
3.76473e-13
4.06563e-13
4.38494e-13
4.72321e-13
5.081e-13
5.45877e-13
5.85698e-13
6.27601e-13
6.71618e-13
7.17775e-13
7.66091e-13
8.16576e-13
8.69232e-13
9.24051e-13
9.81016e-13
1.0401e-12
1.10127e-12
1.16446e-12
1.22962e-12
1.29668e-12
1.36555e-12
1.43614e-12
1.50832e-12
1.58197e-12
1.65696e-12
1.73314e-12
1.81034e-12
1.88838e-12
1.96708e-12
2.04624e-12
2.12563e-12
2.20504e-12
2.28424e-12
2.36296e-12
2.44097e-12
2.518e-12
2.59377e-12
2.66801e-12
2.74044e-12
2.81077e-12
2.87872e-12
2.94398e-12
3.00627e-12
3.0653e-12
3.12078e-12
3.17242e-12
3.21997e-12
3.26313e-12
3.30166e-12
3.33531e-12
3.36385e-12
3.38705e-12
3.40472e-12
3.41668e-12
3.42276e-12
3.42283e-12
3.41678e-12
3.40453e-12
3.38602e-12
3.36122e-12
3.33014e-12
3.29282e-12
3.24934e-12
3.1998e-12
3.14436e-12
3.08318e-12
3.0165e-12
2.94456e-12
2.86765e-12
2.7861e-12
2.70025e-12
2.61051e-12
2.51727e-12
2.421e-12
2.32213e-12
2.22116e-12
2.11859e-12
2.01492e-12
1.91067e-12
1.80635e-12
1.70247e-12
1.59954e-12
1.49804e-12
1.39846e-12
1.30123e-12
1.20679e-12
1.11552e-12
1.02779e-12
9.43898e-13
8.6414e-13
7.88748e-13
7.17915e-13
6.5179e-13
5.90476e-13
5.34032e-13
4.82477e-13
4.35783e-13
3.93885e-13
3.5668e-13
3.24031e-13
2.95766e-13
2.71684e-13
2.51559e-13
2.3514e-13
2.22156e-13
2.12318e-13
2.05324e-13
2.00859e-13
1.986e-13
1.98219e-13
1.99386e-13
2.01773e-13
2.05057e-13
2.08922e-13
2.13065e-13
2.17201e-13
2.21063e-13
2.24407e-13
2.27019e-13
2.28714e-13
2.29339e-13
2.28778e-13
2.26953e-13
2.23821e-13
2.19379e-13
2.13656e-13
2.06719e-13
1.98662e-13
1.89607e-13
1.79698e-13
1.69093e-13
1.57963e-13
1.46484e-13
1.3483e-13
1.2317e-13
1.11664e-13
1.00454e-13
8.9669e-14
7.94147e-14
6.9777e-14
6.08199e-14
5.25863e-14
4.50987e-14
3.83612e-14
3.23615e-14
2.70738e-14
2.24608e-14
1.84771e-14
1.50713e-14
1.21885e-14
9.77256e-15
7.76792e-15
6.12092e-15
4.78103e-15
3.70168e-15
2.84071e-15
2.16067e-15
1.62877e-15
1.21681e-15
9.00871e-16
6.60931e-16
4.80493e-16
3.46129e-16
2.47055e-16
1.74716e-16
1.22418e-16
8.49784e-17
5.84399e-17
3.98134e-17
2.68684e-17
1.79601e-17
1.18891e-17
7.79045e-18
5.04718e-18
3.22315e-18
2.01212e-18
1.19918e-18
6.31619e-19
1.96589e-19
1.96906e-17
5.94733e-17
1.00474e-16
1.4354e-16
1.89555e-16
2.3946e-16
2.94266e-16
3.55069e-16
4.23076e-16
4.99617e-16
5.86176e-16
6.84403e-16
7.96153e-16
9.23504e-16
1.06879e-15
1.23465e-15
1.42403e-15
1.64027e-15
1.88713e-15
2.16881e-15
2.49006e-15
2.85621e-15
3.27324e-15
3.74786e-15
4.28758e-15
4.9008e-15
5.59692e-15
6.38644e-15
7.28104e-15
8.29374e-15
9.43903e-15
1.0733e-14
1.21934e-14
1.38402e-14
1.56949e-14
1.77819e-14
2.01277e-14
2.27615e-14
2.57155e-14
2.90249e-14
3.27285e-14
3.68684e-14
4.14909e-14
4.66462e-14
5.2389e-14
5.87788e-14
6.58798e-14
7.37617e-14
8.24998e-14
9.2175e-14
1.02874e-13
1.14692e-13
1.27727e-13
1.42086e-13
1.57885e-13
1.75243e-13
1.9429e-13
2.15161e-13
2.38001e-13
2.6296e-13
2.90196e-13
3.19878e-13
3.52176e-13
3.87273e-13
4.25355e-13
4.66616e-13
5.11255e-13
5.59477e-13
6.11491e-13
6.67509e-13
7.27748e-13
7.92426e-13
8.61759e-13
9.35968e-13
1.01527e-12
1.09987e-12
1.18999e-12
1.28582e-12
1.38755e-12
1.49538e-12
1.60948e-12
1.72999e-12
1.85707e-12
1.99084e-12
2.13141e-12
2.27886e-12
2.43324e-12
2.5946e-12
2.76293e-12
2.93822e-12
3.12041e-12
3.30941e-12
3.5051e-12
3.70731e-12
3.91586e-12
4.13049e-12
4.35094e-12
4.57689e-12
4.80799e-12
5.04382e-12
5.28396e-12
5.52791e-12
5.77516e-12
6.02515e-12
6.27726e-12
6.53087e-12
6.78529e-12
7.03981e-12
7.29368e-12
7.54614e-12
7.79637e-12
8.04354e-12
8.28682e-12
8.52531e-12
8.75815e-12
8.98442e-12
9.20323e-12
9.41365e-12
9.61479e-12
9.80572e-12
9.98557e-12
1.01534e-11
1.03085e-11
1.04498e-11
1.05767e-11
1.06883e-11
1.0784e-11
1.08629e-11
1.09246e-11
1.09684e-11
1.09938e-11
1.10004e-11
1.09878e-11
1.09557e-11
1.0904e-11
1.08325e-11
1.07412e-11
1.06302e-11
1.04997e-11
1.035e-11
1.01815e-11
9.99472e-12
9.7903e-12
9.56896e-12
9.33155e-12
9.07903e-12
8.81245e-12
8.53296e-12
8.24181e-12
7.94032e-12
7.6299e-12
7.31201e-12
6.98816e-12
6.65993e-12
6.3289e-12
5.99667e-12
5.66484e-12
5.335e-12
5.00871e-12
4.68747e-12
4.37274e-12
4.06589e-12
3.76821e-12
3.48089e-12
3.205e-12
2.94151e-12
2.69125e-12
2.45492e-12
2.23309e-12
2.02618e-12
1.83447e-12
1.65813e-12
1.49716e-12
1.35146e-12
1.2208e-12
1.10483e-12
1.00309e-12
9.15036e-13
8.40019e-13
7.77319e-13
7.26143e-13
6.85638e-13
6.54896e-13
6.32971e-13
6.1888e-13
6.11619e-13
6.10169e-13
6.13507e-13
6.20616e-13
6.30495e-13
6.42173e-13
6.54716e-13
6.67242e-13
6.78931e-13
6.89036e-13
6.96896e-13
7.01944e-13
7.03715e-13
7.01855e-13
6.96121e-13
6.86387e-13
6.72641e-13
6.54981e-13
6.33607e-13
6.08812e-13
5.8097e-13
5.50521e-13
5.17954e-13
4.83792e-13
4.4857e-13
4.12826e-13
3.77075e-13
3.41803e-13
3.07452e-13
2.74409e-13
2.42999e-13
2.13484e-13
1.86059e-13
1.60853e-13
1.37935e-13
1.17316e-13
9.89581e-14
8.27807e-14
6.86698e-14
5.64853e-14
4.60695e-14
3.72543e-14
2.98676e-14
2.37391e-14
1.87044e-14
1.46089e-14
1.131e-14
8.6789e-15
6.60081e-15
4.97557e-15
3.71691e-15
2.75167e-15
2.01868e-15
1.4675e-15
1.05708e-15
7.54473e-16
5.33539e-16
3.73818e-16
2.59483e-16
1.78441e-16
1.21563e-16
8.20354e-17
5.48349e-17
3.62982e-17
2.37843e-17
1.54088e-17
9.83995e-18
6.14271e-18
3.66089e-18
1.92822e-18
6.00163e-19
4.27952e-17
1.29259e-16
2.1837e-16
3.11968e-16
4.11978e-16
5.2044e-16
6.39551e-16
7.71697e-16
9.19496e-16
1.08584e-15
1.27396e-15
1.48743e-15
1.73028e-15
2.00704e-15
2.32276e-15
2.68318e-15
3.09472e-15
3.5646e-15
4.10099e-15
4.71302e-15
5.41101e-15
6.20651e-15
7.1125e-15
8.14352e-15
9.31588e-15
1.06478e-14
1.21596e-14
1.38741e-14
1.58166e-14
1.80152e-14
2.05013e-14
2.33097e-14
2.6479e-14
3.00517e-14
3.40751e-14
3.86013e-14
4.36874e-14
4.93966e-14
5.57982e-14
6.29679e-14
7.09889e-14
7.9952e-14
8.99561e-14
1.01109e-13
1.13528e-13
1.27339e-13
1.42681e-13
1.59701e-13
1.78561e-13
1.99431e-13
2.22496e-13
2.47955e-13
2.76019e-13
3.06913e-13
3.40877e-13
3.78166e-13
4.19048e-13
4.63807e-13
5.12743e-13
5.66169e-13
6.24413e-13
6.87817e-13
7.56738e-13
8.31545e-13
9.12617e-13
1.00035e-12
1.09514e-12
1.1974e-12
1.30754e-12
1.42599e-12
1.55317e-12
1.68951e-12
1.83542e-12
1.99132e-12
2.15762e-12
2.33473e-12
2.52301e-12
2.72283e-12
2.93454e-12
3.15846e-12
3.39487e-12
3.64403e-12
3.90614e-12
4.1814e-12
4.46993e-12
4.7718e-12
5.08705e-12
5.41565e-12
5.75751e-12
6.11246e-12
6.4803e-12
6.86073e-12
7.25339e-12
7.65783e-12
8.07356e-12
8.49997e-12
8.93641e-12
9.38212e-12
9.83628e-12
1.0298e-11
1.07663e-11
1.12401e-11
1.17182e-11
1.21996e-11
1.26829e-11
1.31669e-11
1.365e-11
1.41309e-11
1.46081e-11
1.508e-11
1.55452e-11
1.60019e-11
1.64485e-11
1.68835e-11
1.7305e-11
1.77115e-11
1.81013e-11
1.84728e-11
1.88242e-11
1.91541e-11
1.94607e-11
1.97427e-11
1.99985e-11
2.02267e-11
2.04259e-11
2.0595e-11
2.07327e-11
2.0838e-11
2.091e-11
2.09477e-11
2.09504e-11
2.09177e-11
2.0849e-11
2.0744e-11
2.06027e-11
2.04251e-11
2.02114e-11
1.9962e-11
1.96775e-11
1.93586e-11
1.90064e-11
1.86219e-11
1.82065e-11
1.77617e-11
1.72892e-11
1.6791e-11
1.62691e-11
1.57256e-11
1.5163e-11
1.45837e-11
1.39904e-11
1.33858e-11
1.27726e-11
1.21536e-11
1.15319e-11
1.09101e-11
1.02913e-11
9.67808e-12
9.07334e-12
8.47968e-12
7.89961e-12
7.33552e-12
6.78961e-12
6.26391e-12
5.76023e-12
5.28018e-12
4.82511e-12
4.39617e-12
3.99423e-12
3.61993e-12
3.27368e-12
2.95561e-12
2.66565e-12
2.40351e-12
2.16866e-12
1.96039e-12
1.77781e-12
1.61985e-12
1.48531e-12
1.37283e-12
1.28095e-12
1.20811e-12
1.15266e-12
1.11287e-12
1.087e-12
1.07323e-12
1.06975e-12
1.07474e-12
1.0864e-12
1.10295e-12
1.12268e-12
1.14396e-12
1.16522e-12
1.18505e-12
1.20212e-12
1.2153e-12
1.22358e-12
1.22618e-12
1.22246e-12
1.21202e-12
1.19464e-12
1.1703e-12
1.13919e-12
1.10165e-12
1.0582e-12
1.00949e-12
9.56294e-13
8.99458e-13
8.39892e-13
7.78529e-13
7.16297e-13
6.54094e-13
5.92758e-13
5.33054e-13
4.75649e-13
4.21106e-13
3.69873e-13
3.22287e-13
2.78566e-13
2.38827e-13
2.03086e-13
1.71273e-13
1.43247e-13
1.18807e-13
9.77095e-14
7.96785e-14
6.44219e-14
5.16403e-14
4.1038e-14
3.23297e-14
2.52473e-14
1.95436e-14
1.49951e-14
1.14032e-14
8.59453e-15
6.41967e-15
4.75204e-15
3.48584e-15
2.53381e-15
1.82501e-15
1.30246e-15
9.20981e-16
6.45225e-16
4.47846e-16
3.07954e-16
2.09781e-16
1.4156e-16
9.46182e-17
6.263e-17
4.10363e-17
2.65846e-17
1.69762e-17
1.05973e-17
6.31561e-18
3.32646e-18
1.03537e-18
8.51057e-17
2.57054e-16
4.3427e-16
6.20408e-16
8.19298e-16
1.035e-15
1.27188e-15
1.53468e-15
1.82862e-15
2.15944e-15
2.53355e-15
2.9581e-15
3.44108e-15
3.99148e-15
4.61939e-15
5.33616e-15
6.15458e-15
7.08903e-15
8.1557e-15
9.37277e-15
1.07607e-14
1.23425e-14
1.41439e-14
1.61937e-14
1.85244e-14
2.11721e-14
2.41772e-14
2.75847e-14
3.14448e-14
3.58134e-14
4.07525e-14
4.6331e-14
5.26251e-14
5.97191e-14
6.77062e-14
7.66891e-14
8.67808e-14
9.81055e-14
1.10799e-13
1.25012e-13
1.40906e-13
1.58661e-13
1.78469e-13
2.00541e-13
2.25108e-13
2.52415e-13
2.82731e-13
3.16345e-13
3.53567e-13
3.9473e-13
4.40193e-13
4.90335e-13
5.45565e-13
6.06315e-13
6.73043e-13
7.46234e-13
8.26401e-13
9.14082e-13
1.00984e-12
1.11427e-12
1.22798e-12
1.35161e-12
1.48582e-12
1.63129e-12
1.78872e-12
1.95883e-12
2.14234e-12
2.33998e-12
2.5525e-12
2.78065e-12
3.02516e-12
3.28676e-12
3.56618e-12
3.86411e-12
4.18123e-12
4.51818e-12
4.87557e-12
5.25395e-12
5.65383e-12
6.07567e-12
6.51984e-12
6.98665e-12
7.47633e-12
7.98902e-12
8.52476e-12
9.08349e-12
9.66505e-12
1.02692e-11
1.08954e-11
1.15433e-11
1.22122e-11
1.29013e-11
1.36097e-11
1.43363e-11
1.50799e-11
1.58394e-11
1.66131e-11
1.73995e-11
1.81969e-11
1.90034e-11
1.98171e-11
2.0636e-11
2.14577e-11
2.22801e-11
2.31008e-11
2.39172e-11
2.47269e-11
2.55273e-11
2.63157e-11
2.70894e-11
2.78457e-11
2.85818e-11
2.9295e-11
2.99826e-11
3.06418e-11
3.127e-11
3.18645e-11
3.24227e-11
3.29422e-11
3.34205e-11
3.38553e-11
3.42443e-11
3.45856e-11
3.48771e-11
3.5117e-11
3.53038e-11
3.5436e-11
3.55122e-11
3.55315e-11
3.54929e-11
3.53958e-11
3.52398e-11
3.50248e-11
3.47508e-11
3.44181e-11
3.40274e-11
3.35794e-11
3.30755e-11
3.2517e-11
3.19055e-11
3.12432e-11
3.05323e-11
2.97753e-11
2.8975e-11
2.81345e-11
2.72571e-11
2.63464e-11
2.54061e-11
2.44402e-11
2.34527e-11
2.2448e-11
2.14303e-11
2.04042e-11
1.9374e-11
1.83443e-11
1.73196e-11
1.63042e-11
1.53024e-11
1.43183e-11
1.3356e-11
1.24191e-11
1.15111e-11
1.06353e-11
9.79449e-12
8.99129e-12
8.22789e-12
7.50615e-12
6.82754e-12
6.19316e-12
5.60373e-12
5.05959e-12
4.56072e-12
4.10675e-12
3.69698e-12
3.3304e-12
3.0057e-12
2.72133e-12
2.47546e-12
2.2661e-12
2.09101e-12
1.94784e-12
1.83409e-12
1.74713e-12
1.68427e-12
1.64275e-12
1.61976e-12
1.61251e-12
1.61818e-12
1.63401e-12
1.65732e-12
1.68548e-12
1.71603e-12
1.74661e-12
1.77506e-12
1.79944e-12
1.81801e-12
1.8293e-12
1.83212e-12
1.82555e-12
1.80899e-12
1.78213e-12
1.74495e-12
1.69773e-12
1.64101e-12
1.57557e-12
1.50238e-12
1.42259e-12
1.33747e-12
1.24839e-12
1.15672e-12
1.06384e-12
9.71091e-13
8.79707e-13
7.90818e-13
7.0541e-13
6.24309e-13
5.48176e-13
4.77498e-13
4.12595e-13
3.53631e-13
3.00622e-13
2.53459e-13
2.11927e-13
1.75724e-13
1.44482e-13
1.17791e-13
9.52142e-14
7.63061e-14
6.06263e-14
4.77513e-14
3.7283e-14
2.88546e-14
2.21349e-14
1.68299e-14
1.26824e-14
9.47154e-15
7.01005e-15
5.14143e-15
3.73672e-15
2.69107e-15
1.9203e-15
1.3577e-15
9.5108e-16
6.6007e-16
4.53843e-16
3.09134e-16
2.08587e-16
1.39408e-16
9.22711e-17
6.04541e-17
3.91619e-17
2.50066e-17
1.56097e-17
9.3025e-18
4.89957e-18
1.525e-18
1.64297e-16
4.96246e-16
8.38367e-16
1.19772e-15
1.5817e-15
1.99814e-15
2.45549e-15
2.9629e-15
3.53044e-15
4.16923e-15
4.89162e-15
5.71141e-15
6.64407e-15
7.70693e-15
8.9195e-15
1.03037e-14
1.18842e-14
1.36888e-14
1.57487e-14
1.80991e-14
2.07794e-14
2.38339e-14
2.73125e-14
3.12706e-14
3.57709e-14
4.08828e-14
4.66844e-14
5.32623e-14
6.07132e-14
6.91447e-14
7.8676e-14
8.94395e-14
1.01582e-13
1.15265e-13
1.30667e-13
1.47986e-13
1.67437e-13
1.89259e-13
2.13712e-13
2.41082e-13
2.7168e-13
3.05845e-13
3.43947e-13
3.86386e-13
4.33596e-13
4.86048e-13
5.44247e-13
6.08739e-13
6.80109e-13
7.58984e-13
8.46034e-13
9.41974e-13
1.04756e-12
1.16361e-12
1.29096e-12
1.43051e-12
1.58321e-12
1.75005e-12
1.93205e-12
2.1303e-12
2.3459e-12
2.58002e-12
2.83382e-12
3.10853e-12
3.40538e-12
3.72562e-12
4.07053e-12
4.44138e-12
4.83943e-12
5.26594e-12
5.72214e-12
6.20925e-12
6.72843e-12
7.28077e-12
7.86734e-12
8.48909e-12
9.1469e-12
9.84154e-12
1.05737e-11
1.13438e-11
1.21524e-11
1.29996e-11
1.38856e-11
1.48101e-11
1.57729e-11
1.67736e-11
1.78113e-11
1.88852e-11
1.99941e-11
2.11367e-11
2.23113e-11
2.35161e-11
2.4749e-11
2.60077e-11
2.72897e-11
2.85923e-11
2.99123e-11
3.12468e-11
3.25921e-11
3.39449e-11
3.53013e-11
3.66574e-11
3.80093e-11
3.93526e-11
4.06832e-11
4.19967e-11
4.32887e-11
4.45547e-11
4.57902e-11
4.69907e-11
4.81519e-11
4.92691e-11
5.03382e-11
5.13549e-11
5.2315e-11
5.32144e-11
5.40494e-11
5.48163e-11
5.55114e-11
5.61317e-11
5.66739e-11
5.71352e-11
5.75132e-11
5.78055e-11
5.801e-11
5.81252e-11
5.81496e-11
5.80822e-11
5.79223e-11
5.76694e-11
5.73237e-11
5.68854e-11
5.63553e-11
5.57345e-11
5.50246e-11
5.42274e-11
5.33451e-11
5.23806e-11
5.13368e-11
5.02173e-11
4.90258e-11
4.77665e-11
4.64441e-11
4.50634e-11
4.36296e-11
4.21483e-11
4.06253e-11
3.90665e-11
3.74782e-11
3.58669e-11
3.42391e-11
3.26013e-11
3.09603e-11
2.93227e-11
2.76951e-11
2.6084e-11
2.44956e-11
2.29361e-11
2.14113e-11
1.99266e-11
1.84872e-11
1.70978e-11
1.57627e-11
1.44856e-11
1.32698e-11
1.21181e-11
1.10326e-11
1.00151e-11
9.0665e-12
8.18747e-12
7.378e-12
6.63759e-12
5.96527e-12
5.35958e-12
4.81866e-12
4.34026e-12
3.92175e-12
3.56021e-12
3.25243e-12
2.99498e-12
2.78421e-12
2.61631e-12
2.48737e-12
2.39334e-12
2.33016e-12
2.29371e-12
2.2799e-12
2.28465e-12
2.304e-12
2.33407e-12
2.37113e-12
2.41165e-12
2.45231e-12
2.49007e-12
2.52217e-12
2.54619e-12
2.56008e-12
2.56217e-12
2.55122e-12
2.52638e-12
2.48726e-12
2.43385e-12
2.36655e-12
2.28613e-12
2.1937e-12
2.09062e-12
1.97852e-12
1.85916e-12
1.73443e-12
1.60626e-12
1.47657e-12
1.3472e-12
1.21986e-12
1.09611e-12
9.773e-13
8.64573e-13
7.58828e-13
6.60725e-13
5.70697e-13
4.88954e-13
4.15508e-13
3.50198e-13
2.92715e-13
2.4263e-13
1.99429e-13
1.62537e-13
1.31345e-13
1.05231e-13
8.35847e-14
6.58166e-14
5.13747e-14
3.97509e-14
3.04865e-14
2.31746e-14
1.74598e-14
1.30367e-14
9.64683e-15
7.07402e-15
5.14039e-15
3.70133e-15
2.64078e-15
1.86683e-15
1.30754e-15
9.07344e-16
6.23785e-16
4.24841e-16
2.8663e-16
1.9155e-16
1.26772e-16
8.30518e-17
5.3797e-17
3.43497e-17
2.14408e-17
1.2777e-17
6.72943e-18
2.09453e-18
3.12014e-16
9.42416e-16
1.59215e-15
2.27463e-15
3.00392e-15
3.79491e-15
4.66363e-15
5.62751e-15
6.70567e-15
7.91924e-15
9.29174e-15
1.08494e-14
1.26216e-14
1.46413e-14
1.69456e-14
1.95761e-14
2.25799e-14
2.60096e-14
2.99247e-14
3.43919e-14
3.94863e-14
4.52921e-14
5.19036e-14
5.94269e-14
6.79801e-14
7.76957e-14
8.87215e-14
1.01222e-13
1.15381e-13
1.31401e-13
1.49509e-13
1.69957e-13
1.9302e-13
2.19005e-13
2.48251e-13
2.81129e-13
3.18048e-13
3.59456e-13
4.05845e-13
4.57752e-13
5.15762e-13
5.80513e-13
6.52697e-13
7.33065e-13
8.2243e-13
9.21669e-13
1.03173e-12
1.15361e-12
1.28842e-12
1.43731e-12
1.60153e-12
1.78238e-12
1.98127e-12
2.19967e-12
2.43915e-12
2.70134e-12
2.98795e-12
3.30077e-12
3.64167e-12
4.01256e-12
4.41544e-12
4.85236e-12
5.32539e-12
5.83667e-12
6.38834e-12
6.98258e-12
7.62155e-12
8.3074e-12
9.04225e-12
9.82818e-12
1.06672e-11
1.15612e-11
1.25121e-11
1.35215e-11
1.45909e-11
1.57217e-11
1.69151e-11
1.8172e-11
1.94931e-11
2.08789e-11
2.23294e-11
2.38446e-11
2.54239e-11
2.70665e-11
2.87712e-11
3.05364e-11
3.236e-11
3.42399e-11
3.61731e-11
3.81564e-11
4.01864e-11
4.22589e-11
4.43696e-11
4.65138e-11
4.86861e-11
5.08812e-11
5.30932e-11
5.5316e-11
5.7543e-11
5.97677e-11
6.1983e-11
6.4182e-11
6.63572e-11
6.85015e-11
7.06074e-11
7.26673e-11
7.46739e-11
7.66197e-11
7.84975e-11
8.03e-11
8.20201e-11
8.36512e-11
8.51866e-11
8.66201e-11
8.79456e-11
8.91575e-11
9.02505e-11
9.12198e-11
9.20608e-11
9.27697e-11
9.33427e-11
9.37769e-11
9.40697e-11
9.42189e-11
9.42231e-11
9.40811e-11
9.37926e-11
9.33575e-11
9.27766e-11
9.20508e-11
9.11821e-11
9.01725e-11
8.9025e-11
8.77429e-11
8.63302e-11
8.47912e-11
8.3131e-11
8.13551e-11
7.94694e-11
7.74805e-11
7.53954e-11
7.32214e-11
7.09663e-11
6.86385e-11
6.62464e-11
6.37989e-11
6.13052e-11
5.87746e-11
5.62168e-11
5.36413e-11
5.10579e-11
4.84764e-11
4.59063e-11
4.33572e-11
4.08384e-11
3.83589e-11
3.59274e-11
3.35522e-11
3.1241e-11
2.90012e-11
2.68393e-11
2.47615e-11
2.27729e-11
2.08781e-11
1.90811e-11
1.73848e-11
1.57916e-11
1.43029e-11
1.29193e-11
1.1641e-11
1.0467e-11
9.39594e-12
8.42567e-12
7.55346e-12
6.77601e-12
6.08954e-12
5.48981e-12
4.9722e-12
4.53175e-12
4.16321e-12
3.86114e-12
3.61988e-12
3.43367e-12
3.29668e-12
3.20301e-12
3.14681e-12
3.12224e-12
3.1236e-12
3.14529e-12
3.18193e-12
3.22835e-12
3.27968e-12
3.33135e-12
3.3792e-12
3.41947e-12
3.4489e-12
3.46471e-12
3.46466e-12
3.44709e-12
3.4109e-12
3.35557e-12
3.28113e-12
3.18816e-12
3.07772e-12
2.95132e-12
2.81082e-12
2.65842e-12
2.49651e-12
2.32763e-12
2.15437e-12
1.9793e-12
1.80488e-12
1.6334e-12
1.46693e-12
1.30727e-12
1.15591e-12
1.01404e-12
8.82534e-13
7.61937e-13
6.52515e-13
5.54265e-13
4.66952e-13
3.90147e-13
3.23266e-13
2.65609e-13
2.16396e-13
1.74807e-13
1.40005e-13
1.11169e-13
8.751e-14
6.82874e-14
5.28218e-14
4.04999e-14
3.07782e-14
2.31825e-14
1.73055e-14
1.28027e-14
9.38614e-15
6.8191e-15
4.90911e-15
3.50184e-15
2.4751e-15
1.7333e-15
1.2026e-15
8.26654e-16
5.62935e-16
3.79753e-16
2.53754e-16
1.67923e-16
1.10001e-16
7.12477e-17
4.54889e-17
2.83922e-17
1.69188e-17
8.91054e-18
2.77336e-18
5.84776e-16
1.76629e-15
2.98408e-15
4.26331e-15
5.63035e-15
7.11318e-15
8.74187e-15
1.05491e-14
1.25708e-14
1.48467e-14
1.74208e-14
2.03424e-14
2.36667e-14
2.74557e-14
3.17788e-14
3.67144e-14
4.23507e-14
4.87867e-14
5.61339e-14
6.45177e-14
7.4079e-14
8.49758e-14
9.73855e-14
1.11507e-13
1.27561e-13
1.45798e-13
1.66493e-13
1.89956e-13
2.1653e-13
2.46597e-13
2.80581e-13
3.18951e-13
3.62225e-13
4.10977e-13
4.65839e-13
5.27504e-13
5.96737e-13
6.74373e-13
7.61328e-13
8.58602e-13
9.67282e-13
1.08856e-12
1.2237e-12
1.37412e-12
1.54131e-12
1.7269e-12
1.93262e-12
2.16034e-12
2.41206e-12
2.68992e-12
2.99618e-12
3.33325e-12
3.70368e-12
4.11014e-12
4.55546e-12
5.0426e-12
5.57463e-12
6.15475e-12
6.7863e-12
7.47267e-12
8.2174e-12
9.02405e-12
9.89628e-12
1.08378e-11
1.18522e-11
1.29433e-11
1.41147e-11
1.537e-11
1.67127e-11
1.81461e-11
1.96734e-11
2.12977e-11
2.30216e-11
2.48477e-11
2.67779e-11
2.88142e-11
3.09578e-11
3.32096e-11
3.55701e-11
3.80391e-11
4.06158e-11
4.32991e-11
4.60869e-11
4.89767e-11
5.19652e-11
5.50484e-11
5.82217e-11
6.14796e-11
6.4816e-11
6.82242e-11
7.16965e-11
7.52248e-11
7.88002e-11
8.24132e-11
8.60539e-11
8.97115e-11
9.33751e-11
9.70331e-11
1.00674e-10
1.04285e-10
1.07854e-10
1.11368e-10
1.14816e-10
1.18183e-10
1.21459e-10
1.24629e-10
1.27682e-10
1.30607e-10
1.33391e-10
1.36023e-10
1.38493e-10
1.40791e-10
1.42907e-10
1.44832e-10
1.46559e-10
1.4808e-10
1.49387e-10
1.50477e-10
1.51343e-10
1.51981e-10
1.52389e-10
1.52564e-10
1.52504e-10
1.52209e-10
1.5168e-10
1.50917e-10
1.49922e-10
1.48699e-10
1.47251e-10
1.45583e-10
1.43701e-10
1.41609e-10
1.39316e-10
1.36829e-10
1.34156e-10
1.31307e-10
1.28292e-10
1.2512e-10
1.21803e-10
1.18352e-10
1.14779e-10
1.11098e-10
1.0732e-10
1.03459e-10
9.95288e-11
9.55434e-11
9.15168e-11
8.74631e-11
8.33965e-11
7.93313e-11
7.52814e-11
7.12609e-11
6.72833e-11
6.33618e-11
5.95092e-11
5.57376e-11
5.20586e-11
4.84831e-11
4.5021e-11
4.16815e-11
3.84729e-11
3.54022e-11
3.24759e-11
2.96988e-11
2.70751e-11
2.46076e-11
2.22982e-11
2.01476e-11
1.81554e-11
1.63202e-11
1.46397e-11
1.31107e-11
1.17291e-11
1.04899e-11
9.3876e-12
8.41602e-12
7.56842e-12
6.83762e-12
6.21607e-12
5.6959e-12
5.26904e-12
4.92723e-12
4.66215e-12
4.4654e-12
4.32865e-12
4.24362e-12
4.20217e-12
4.19636e-12
4.21847e-12
4.26112e-12
4.31725e-12
4.38023e-12
4.44392e-12
4.50272e-12
4.55159e-12
4.58618e-12
4.60282e-12
4.59857e-12
4.57123e-12
4.51941e-12
4.44245e-12
4.34044e-12
4.21419e-12
4.06515e-12
3.89533e-12
3.70725e-12
3.50381e-12
3.28818e-12
3.06373e-12
2.83385e-12
2.60194e-12
2.3712e-12
2.14464e-12
1.92495e-12
1.71447e-12
1.51513e-12
1.32847e-12
1.15558e-12
9.97173e-13
8.53552e-13
7.24688e-13
6.10248e-13
5.09647e-13
4.22099e-13
3.46669e-13
2.82323e-13
2.27975e-13
1.82519e-13
1.44875e-13
1.14002e-13
8.89308e-14
6.87677e-14
5.27098e-14
4.00453e-14
3.0154e-14
2.25037e-14
1.6644e-14
1.21994e-14
8.86088e-15
6.37759e-15
4.54842e-15
3.21419e-15
2.25047e-15
1.56116e-15
1.07295e-15
7.30551e-16
4.92759e-16
3.29225e-16
2.17842e-16
1.42687e-16
9.24101e-17
5.89958e-17
3.68202e-17
2.19399e-17
1.15546e-17
3.59626e-18
1.08252e-15
3.26973e-15
5.52418e-15
7.89256e-15
1.04237e-14
1.31696e-14
1.61859e-14
1.95333e-14
2.32784e-14
2.74948e-14
3.22644e-14
3.76786e-14
4.38397e-14
5.08628e-14
5.88769e-14
6.80275e-14
7.84781e-14
9.04127e-14
1.04038e-13
1.19588e-13
1.37322e-13
1.57535e-13
1.80556e-13
2.06753e-13
2.36539e-13
2.70374e-13
3.08772e-13
3.52305e-13
4.01612e-13
4.57398e-13
5.2045e-13
5.91636e-13
6.71918e-13
7.62354e-13
8.64114e-13
9.78482e-13
1.10687e-12
1.25081e-12
1.41201e-12
1.5923e-12
1.79368e-12
2.01834e-12
2.26863e-12
2.54712e-12
2.85655e-12
3.1999e-12
3.58034e-12
4.00128e-12
4.46637e-12
4.97947e-12
5.54471e-12
6.16644e-12
6.84925e-12
7.59797e-12
8.41765e-12
9.3136e-12
1.02913e-11
1.13564e-11
1.25148e-11
1.37726e-11
1.51357e-11
1.66106e-11
1.82035e-11
1.99207e-11
2.17685e-11
2.3753e-11
2.58805e-11
2.81568e-11
3.05876e-11
3.31782e-11
3.59335e-11
3.88581e-11
4.19559e-11
4.52303e-11
4.8684e-11
5.2319e-11
5.61364e-11
6.01364e-11
6.43182e-11
6.86801e-11
7.32193e-11
7.79317e-11
8.28122e-11
8.78543e-11
9.30505e-11
9.83918e-11
1.03868e-10
1.09468e-10
1.15179e-10
1.20986e-10
1.26876e-10
1.32831e-10
1.38836e-10
1.44871e-10
1.50917e-10
1.56955e-10
1.62965e-10
1.68926e-10
1.74815e-10
1.80613e-10
1.86297e-10
1.91845e-10
1.97236e-10
2.02449e-10
2.07463e-10
2.12257e-10
2.16814e-10
2.21113e-10
2.25137e-10
2.2887e-10
2.32296e-10
2.354e-10
2.38171e-10
2.40597e-10
2.42667e-10
2.44373e-10
2.45708e-10
2.46666e-10
2.47244e-10
2.47439e-10
2.47251e-10
2.46679e-10
2.45726e-10
2.44396e-10
2.42694e-10
2.40626e-10
2.382e-10
2.35426e-10
2.32312e-10
2.28871e-10
2.25115e-10
2.21058e-10
2.16715e-10
2.121e-10
2.07231e-10
2.02124e-10
1.96798e-10
1.9127e-10
1.8556e-10
1.79688e-10
1.73673e-10
1.67536e-10
1.61299e-10
1.54981e-10
1.48604e-10
1.42189e-10
1.35758e-10
1.2933e-10
1.22928e-10
1.16571e-10
1.10278e-10
1.0407e-10
9.79653e-11
9.19812e-11
8.61347e-11
8.04419e-11
7.49175e-11
6.95752e-11
6.44273e-11
5.94848e-11
5.47572e-11
5.02525e-11
4.59773e-11
4.19365e-11
3.81337e-11
3.45706e-11
3.12476e-11
2.81636e-11
2.53162e-11
2.27013e-11
2.03139e-11
1.81477e-11
1.61952e-11
1.44482e-11
1.28975e-11
1.15332e-11
1.03447e-11
9.32114e-12
8.45108e-12
7.72287e-12
7.12464e-12
6.64445e-12
6.27032e-12
5.99036e-12
5.79279e-12
5.66606e-12
5.59887e-12
5.58028e-12
5.59974e-12
5.64717e-12
5.71305e-12
5.78847e-12
5.86519e-12
5.93574e-12
5.99348e-12
6.03265e-12
6.04843e-12
6.03701e-12
5.99555e-12
5.92225e-12
5.81634e-12
5.67799e-12
5.50831e-12
5.30925e-12
5.08351e-12
4.83439e-12
4.56571e-12
4.28164e-12
3.98656e-12
3.68492e-12
3.38109e-12
3.07925e-12
2.78327e-12
2.49662e-12
2.22228e-12
1.96275e-12
1.71996e-12
1.4953e-12
1.28962e-12
1.1033e-12
9.36258e-13
7.88019e-13
6.57797e-13
5.44547e-13
4.47035e-13
3.63903e-13
2.93726e-13
2.35066e-13
1.86511e-13
1.46711e-13
1.14405e-13
8.84353e-14
6.77623e-14
5.14647e-14
3.8741e-14
2.89037e-14
2.13715e-14
1.56603e-14
1.13719e-14
8.18293e-15
5.83466e-15
4.12226e-15
2.8857e-15
2.00145e-15
1.37532e-15
9.36278e-16
6.3143e-16
4.21818e-16
2.79075e-16
1.82775e-16
1.18362e-16
7.55574e-17
4.71533e-17
2.80956e-17
1.47959e-17
4.60501e-18
1.97974e-15
5.97986e-15
1.01032e-14
1.44353e-14
1.90657e-14
2.40894e-14
2.96089e-14
3.57351e-14
4.25903e-14
5.03095e-14
5.90427e-14
6.89578e-14
8.02425e-14
9.31079e-14
1.07791e-13
1.24558e-13
1.43711e-13
1.65585e-13
1.90563e-13
2.1907e-13
2.51587e-13
2.88653e-13
3.30871e-13
3.78919e-13
4.33553e-13
4.95618e-13
5.66058e-13
6.45924e-13
7.36383e-13
8.38735e-13
9.54417e-13
1.08502e-12
1.23231e-12
1.39823e-12
1.58491e-12
1.79471e-12
2.0302e-12
2.2942e-12
2.5898e-12
2.92036e-12
3.28954e-12
3.7013e-12
4.15994e-12
4.6701e-12
5.23679e-12
5.86538e-12
6.56165e-12
7.33174e-12
8.18223e-12
9.1201e-12
1.01527e-11
1.1288e-11
1.2534e-11
1.38995e-11
1.53933e-11
1.7025e-11
1.88042e-11
2.07409e-11
2.28454e-11
2.51281e-11
2.75999e-11
3.02713e-11
3.31532e-11
3.62563e-11
3.95913e-11
4.31684e-11
4.69978e-11
5.10889e-11
5.54509e-11
6.00919e-11
6.50197e-11
7.02406e-11
7.57602e-11
8.15827e-11
8.77111e-11
9.41468e-11
1.0089e-10
1.07938e-10
1.15287e-10
1.22932e-10
1.30866e-10
1.39077e-10
1.47555e-10
1.56285e-10
1.65251e-10
1.74434e-10
1.83812e-10
1.93364e-10
2.03064e-10
2.12885e-10
2.22798e-10
2.32773e-10
2.42776e-10
2.52774e-10
2.62733e-10
2.72617e-10
2.82388e-10
2.9201e-10
3.01446e-10
3.10657e-10
3.19608e-10
3.28261e-10
3.36582e-10
3.44534e-10
3.52085e-10
3.59202e-10
3.65857e-10
3.72021e-10
3.77667e-10
3.82772e-10
3.87316e-10
3.91278e-10
3.94643e-10
3.97399e-10
3.99533e-10
4.0104e-10
4.01912e-10
4.02149e-10
4.01751e-10
4.00721e-10
3.99065e-10
3.96791e-10
3.9391e-10
3.90434e-10
3.8638e-10
3.81765e-10
3.76606e-10
3.70927e-10
3.64749e-10
3.58096e-10
3.50994e-10
3.43469e-10
3.35551e-10
3.27266e-10
3.18647e-10
3.09721e-10
3.00522e-10
2.91081e-10
2.81429e-10
2.71598e-10
2.61622e-10
2.51533e-10
2.41362e-10
2.31143e-10
2.20906e-10
2.10684e-10
2.00507e-10
1.90405e-10
1.80408e-10
1.70544e-10
1.60839e-10
1.51321e-10
1.42014e-10
1.32941e-10
1.24124e-10
1.15583e-10
1.07336e-10
9.93992e-11
9.17868e-11
8.45112e-11
7.75824e-11
7.10083e-11
6.47946e-11
5.8945e-11
5.34607e-11
4.8341e-11
4.35833e-11
3.91828e-11
3.5133e-11
3.14255e-11
2.80505e-11
2.49966e-11
2.22512e-11
1.98005e-11
1.76298e-11
1.57236e-11
1.40657e-11
1.26394e-11
1.14278e-11
1.04138e-11
9.57995e-12
8.90914e-12
8.38429e-12
7.98857e-12
7.70548e-12
7.51895e-12
7.4134e-12
7.37381e-12
7.38582e-12
7.43579e-12
7.5109e-12
7.59923e-12
7.68981e-12
7.77276e-12
7.83931e-12
7.88192e-12
7.89432e-12
7.87154e-12
7.80997e-12
7.70734e-12
7.56269e-12
7.37636e-12
7.14985e-12
6.88577e-12
6.58767e-12
6.25991e-12
5.90747e-12
5.53577e-12
5.1505e-12
4.75739e-12
4.3621e-12
3.96999e-12
3.58601e-12
3.21461e-12
2.85958e-12
2.52408e-12
2.21054e-12
1.92068e-12
1.65556e-12
1.41559e-12
1.20063e-12
1.01001e-12
8.4268e-13
6.97261e-13
5.72133e-13
4.65526e-13
3.75587e-13
3.00451e-13
2.38292e-13
1.87369e-13
1.46054e-13
1.12859e-13
8.64464e-14
6.56331e-14
4.93907e-14
3.68378e-14
2.72301e-14
1.99478e-14
1.44814e-14
1.04179e-14
7.4265e-15
5.24575e-15
3.67141e-15
2.54591e-15
1.74913e-15
1.19056e-15
8.02797e-16
5.36222e-16
3.5472e-16
2.32291e-16
1.50412e-16
9.60088e-17
5.99122e-17
3.56958e-17
1.87977e-17
5.85039e-18
3.57727e-15
1.08054e-14
1.82567e-14
2.60861e-14
3.44557e-14
4.3538e-14
5.3518e-14
6.45975e-14
7.69976e-14
9.09633e-14
1.06767e-13
1.24712e-13
1.45141e-13
1.68435e-13
1.95025e-13
2.25395e-13
2.6009e-13
2.99723e-13
3.44985e-13
3.96652e-13
4.55595e-13
5.22792e-13
5.99341e-13
6.86471e-13
7.85556e-13
8.9813e-13
1.02591e-12
1.1708e-12
1.33492e-12
1.52062e-12
1.73053e-12
1.96752e-12
2.2348e-12
2.53588e-12
2.87464e-12
3.25533e-12
3.68262e-12
4.16162e-12
4.69791e-12
5.29756e-12
5.96717e-12
6.7139e-12
7.54551e-12
8.47034e-12
9.49741e-12
1.06364e-11
1.18976e-11
1.3292e-11
1.48315e-11
1.65285e-11
1.83962e-11
2.04484e-11
2.26998e-11
2.51655e-11
2.78616e-11
3.08044e-11
3.4011e-11
3.74989e-11
4.12859e-11
4.53902e-11
4.98302e-11
5.46242e-11
5.97906e-11
6.53475e-11
7.13125e-11
7.77028e-11
8.45347e-11
9.18235e-11
9.95833e-11
1.07827e-10
1.16565e-10
1.25808e-10
1.35561e-10
1.4583e-10
1.56616e-10
1.67919e-10
1.79735e-10
1.92056e-10
2.04872e-10
2.18169e-10
2.3193e-10
2.46131e-10
2.60748e-10
2.75751e-10
2.91106e-10
3.06777e-10
3.22722e-10
3.38896e-10
3.55252e-10
3.71738e-10
3.88299e-10
4.04878e-10
4.21417e-10
4.37854e-10
4.54126e-10
4.70169e-10
4.8592e-10
5.01312e-10
5.16283e-10
5.30768e-10
5.44705e-10
5.58035e-10
5.70699e-10
5.82641e-10
5.93809e-10
6.04155e-10
6.13633e-10
6.22202e-10
6.29827e-10
6.36475e-10
6.42119e-10
6.46737e-10
6.50311e-10
6.52831e-10
6.54289e-10
6.54683e-10
6.54015e-10
6.52294e-10
6.49532e-10
6.45745e-10
6.40955e-10
6.35186e-10
6.28467e-10
6.20831e-10
6.12311e-10
6.02946e-10
5.92778e-10
5.81848e-10
5.70203e-10
5.57888e-10
5.44952e-10
5.31445e-10
5.17417e-10
5.02919e-10
4.88003e-10
4.72721e-10
4.57125e-10
4.41268e-10
4.252e-10
4.08974e-10
3.9264e-10
3.76248e-10
3.59848e-10
3.43486e-10
3.2721e-10
3.11065e-10