/*--------------------------------*- C++ -*----------------------------------*\
| =========                 |                                                 |
| \\      /  F ield         | OpenFOAM: The Open Source CFD Toolbox           |
|  \\    /   O peration     | Version:  v2012                                 |
|   \\  /    A nd           | Website:  www.openfoam.com                      |
|    \\/     M anipulation  |                                                 |
\*---------------------------------------------------------------------------*/
FoamFile
{
    version     2.0;
    format      ascii;
    class       volVectorField;
    location    "10.5";
    object      Psi;
}
// * * * * * * * * * * * * * * * * * * * * * * * * * * * * * * * * * * * * * //

dimensions      [0 2 -1 0 0 0 0];


internalField   nonuniform List<vector> 
65536
(
(0 0 9.13602e-06)
(0 0 2.74084e-05)
(0 0 4.56815e-05)
(0 0 6.39559e-05)
(0 0 8.22321e-05)
(0 0 0.000100511)
(0 0 0.000118792)
(0 0 0.000137076)
(0 0 0.000155364)
(0 0 0.000173657)
(0 0 0.000191953)
(0 0 0.000210254)
(0 0 0.000228561)
(0 0 0.000246872)
(0 0 0.000265189)
(0 0 0.000283512)
(0 0 0.000301841)
(0 0 0.000320175)
(0 0 0.000338515)
(0 0 0.00035686)
(0 0 0.000375211)
(0 0 0.000393568)
(0 0 0.000411929)
(0 0 0.000430294)
(0 0 0.000448664)
(0 0 0.000467037)
(0 0 0.000485413)
(0 0 0.000503791)
(0 0 0.00052217)
(0 0 0.00054055)
(0 0 0.000558928)
(0 0 0.000577304)
(0 0 0.000595677)
(0 0 0.000614045)
(0 0 0.000632406)
(0 0 0.000650759)
(0 0 0.000669103)
(0 0 0.000687434)
(0 0 0.000705751)
(0 0 0.000724053)
(0 0 0.000742335)
(0 0 0.000760596)
(0 0 0.000778834)
(0 0 0.000797045)
(0 0 0.000815226)
(0 0 0.000833374)
(0 0 0.000851487)
(0 0 0.00086956)
(0 0 0.000887589)
(0 0 0.000905572)
(0 0 0.000923504)
(0 0 0.000941381)
(0 0 0.000959199)
(0 0 0.000976954)
(0 0 0.00099464)
(0 0 0.00101225)
(0 0 0.00102979)
(0 0 0.00104724)
(0 0 0.0010646)
(0 0 0.00108188)
(0 0 0.00109905)
(0 0 0.00111611)
(0 0 0.00113307)
(0 0 0.00114991)
(0 0 0.00116663)
(0 0 0.00118321)
(0 0 0.00119967)
(0 0 0.00121598)
(0 0 0.00123214)
(0 0 0.00124815)
(0 0 0.001264)
(0 0 0.00127967)
(0 0 0.00129517)
(0 0 0.00131049)
(0 0 0.00132562)
(0 0 0.00134056)
(0 0 0.00135528)
(0 0 0.0013698)
(0 0 0.0013841)
(0 0 0.00139817)
(0 0 0.00141201)
(0 0 0.00142561)
(0 0 0.00143896)
(0 0 0.00145206)
(0 0 0.00146489)
(0 0 0.00147746)
(0 0 0.00148975)
(0 0 0.00150176)
(0 0 0.00151347)
(0 0 0.0015249)
(0 0 0.00153601)
(0 0 0.00154682)
(0 0 0.00155732)
(0 0 0.00156749)
(0 0 0.00157733)
(0 0 0.00158684)
(0 0 0.00159601)
(0 0 0.00160484)
(0 0 0.00161332)
(0 0 0.00162144)
(0 0 0.00162921)
(0 0 0.00163661)
(0 0 0.00164364)
(0 0 0.00165031)
(0 0 0.0016566)
(0 0 0.00166251)
(0 0 0.00166804)
(0 0 0.00167318)
(0 0 0.00167794)
(0 0 0.00168231)
(0 0 0.00168629)
(0 0 0.00168988)
(0 0 0.00169308)
(0 0 0.00169589)
(0 0 0.0016983)
(0 0 0.00170031)
(0 0 0.00170193)
(0 0 0.00170316)
(0 0 0.001704)
(0 0 0.00170444)
(0 0 0.00170449)
(0 0 0.00170416)
(0 0 0.00170343)
(0 0 0.00170233)
(0 0 0.00170084)
(0 0 0.00169897)
(0 0 0.00169672)
(0 0 0.0016941)
(0 0 0.00169111)
(0 0 0.00168776)
(0 0 0.00168404)
(0 0 0.00167997)
(0 0 0.00167554)
(0 0 0.00167077)
(0 0 0.00166565)
(0 0 0.00166019)
(0 0 0.0016544)
(0 0 0.00164828)
(0 0 0.00164184)
(0 0 0.00163508)
(0 0 0.00162801)
(0 0 0.00162063)
(0 0 0.00161296)
(0 0 0.00160499)
(0 0 0.00159673)
(0 0 0.0015882)
(0 0 0.00157939)
(0 0 0.00157031)
(0 0 0.00156096)
(0 0 0.00155136)
(0 0 0.00154152)
(0 0 0.00153143)
(0 0 0.0015211)
(0 0 0.00151054)
(0 0 0.00149976)
(0 0 0.00148877)
(0 0 0.00147756)
(0 0 0.00146614)
(0 0 0.00145453)
(0 0 0.00144273)
(0 0 0.00143074)
(0 0 0.00141857)
(0 0 0.00140623)
(0 0 0.00139372)
(0 0 0.00138104)
(0 0 0.00136822)
(0 0 0.00135524)
(0 0 0.00134211)
(0 0 0.00132885)
(0 0 0.00131545)
(0 0 0.00130193)
(0 0 0.00128828)
(0 0 0.00127452)
(0 0 0.00126064)
(0 0 0.00124665)
(0 0 0.00123256)
(0 0 0.00121837)
(0 0 0.00120409)
(0 0 0.00118971)
(0 0 0.00117526)
(0 0 0.00116072)
(0 0 0.0011461)
(0 0 0.00113141)
(0 0 0.00111666)
(0 0 0.00110183)
(0 0 0.00108695)
(0 0 0.00107201)
(0 0 0.00105701)
(0 0 0.00104196)
(0 0 0.00102686)
(0 0 0.00101172)
(0 0 0.00099654)
(0 0 0.000981317)
(0 0 0.000966059)
(0 0 0.000950766)
(0 0 0.000935443)
(0 0 0.00092009)
(0 0 0.000904712)
(0 0 0.000889309)
(0 0 0.000873884)
(0 0 0.000858439)
(0 0 0.000842977)
(0 0 0.000827499)
(0 0 0.000812006)
(0 0 0.000796501)
(0 0 0.000780984)
(0 0 0.000765459)
(0 0 0.000749925)
(0 0 0.000734385)
(0 0 0.00071884)
(0 0 0.00070329)
(0 0 0.000687738)
(0 0 0.000672184)
(0 0 0.000656629)
(0 0 0.000641073)
(0 0 0.000625519)
(0 0 0.000609967)
(0 0 0.000594416)
(0 0 0.000578869)
(0 0 0.000563326)
(0 0 0.000547787)
(0 0 0.000532253)
(0 0 0.000516724)
(0 0 0.0005012)
(0 0 0.000485682)
(0 0 0.000470171)
(0 0 0.000454666)
(0 0 0.000439168)
(0 0 0.000423677)
(0 0 0.000408192)
(0 0 0.000392715)
(0 0 0.000377245)
(0 0 0.000361782)
(0 0 0.000346326)
(0 0 0.000330877)
(0 0 0.000315434)
(0 0 0.000299999)
(0 0 0.00028457)
(0 0 0.000269148)
(0 0 0.000253732)
(0 0 0.000238322)
(0 0 0.000222918)
(0 0 0.000207519)
(0 0 0.000192125)
(0 0 0.000176737)
(0 0 0.000161352)
(0 0 0.000145972)
(0 0 0.000130596)
(0 0 0.000115224)
(0 0 9.98542e-05)
(0 0 8.44874e-05)
(0 0 6.91229e-05)
(0 0 5.37603e-05)
(0 0 3.83992e-05)
(0 0 2.30391e-05)
(0 0 7.67962e-06)
(0 0 2.74079e-05)
(0 0 8.22244e-05)
(0 0 0.000137043)
(0 0 0.000191866)
(0 0 0.000246694)
(0 0 0.000301529)
(0 0 0.000356373)
(0 0 0.000411226)
(0 0 0.000466089)
(0 0 0.000520966)
(0 0 0.000575855)
(0 0 0.000630758)
(0 0 0.000685677)
(0 0 0.000740612)
(0 0 0.000795563)
(0 0 0.000850531)
(0 0 0.000905516)
(0 0 0.000960519)
(0 0 0.00101554)
(0 0 0.00107058)
(0 0 0.00112563)
(0 0 0.0011807)
(0 0 0.00123578)
(0 0 0.00129088)
(0 0 0.00134599)
(0 0 0.00140111)
(0 0 0.00145624)
(0 0 0.00151137)
(0 0 0.00156651)
(0 0 0.00162165)
(0 0 0.00167679)
(0 0 0.00173192)
(0 0 0.00178704)
(0 0 0.00184214)
(0 0 0.00189723)
(0 0 0.00195229)
(0 0 0.00200732)
(0 0 0.00206232)
(0 0 0.00211727)
(0 0 0.00217218)
(0 0 0.00222703)
(0 0 0.00228181)
(0 0 0.00233653)
(0 0 0.00239116)
(0 0 0.00244571)
(0 0 0.00250016)
(0 0 0.0025545)
(0 0 0.00260872)
(0 0 0.00266282)
(0 0 0.00271677)
(0 0 0.00277057)
(0 0 0.0028242)
(0 0 0.00287766)
(0 0 0.00293093)
(0 0 0.00298399)
(0 0 0.00303684)
(0 0 0.00308945)
(0 0 0.00314181)
(0 0 0.00319391)
(0 0 0.00324572)
(0 0 0.00329724)
(0 0 0.00334845)
(0 0 0.00339933)
(0 0 0.00344985)
(0 0 0.00350001)
(0 0 0.00354978)
(0 0 0.00359914)
(0 0 0.00364808)
(0 0 0.00369658)
(0 0 0.00374461)
(0 0 0.00379215)
(0 0 0.00383919)
(0 0 0.00388571)
(0 0 0.00393167)
(0 0 0.00397706)
(0 0 0.00402187)
(0 0 0.00406606)
(0 0 0.00410962)
(0 0 0.00415252)
(0 0 0.00419475)
(0 0 0.00423627)
(0 0 0.00427708)
(0 0 0.00431714)
(0 0 0.00435644)
(0 0 0.00439495)
(0 0 0.00443265)
(0 0 0.00446953)
(0 0 0.00450556)
(0 0 0.00454072)
(0 0 0.00457499)
(0 0 0.00460835)
(0 0 0.00464078)
(0 0 0.00467227)
(0 0 0.00470279)
(0 0 0.00473233)
(0 0 0.00476086)
(0 0 0.00478838)
(0 0 0.00481487)
(0 0 0.00484031)
(0 0 0.00486469)
(0 0 0.00488798)
(0 0 0.00491019)
(0 0 0.0049313)
(0 0 0.00495129)
(0 0 0.00497016)
(0 0 0.0049879)
(0 0 0.00500449)
(0 0 0.00501993)
(0 0 0.00503421)
(0 0 0.00504732)
(0 0 0.00505927)
(0 0 0.00507004)
(0 0 0.00507963)
(0 0 0.00508805)
(0 0 0.00509528)
(0 0 0.00510133)
(0 0 0.00510619)
(0 0 0.00510987)
(0 0 0.00511238)
(0 0 0.00511371)
(0 0 0.00511387)
(0 0 0.00511286)
(0 0 0.00511069)
(0 0 0.00510736)
(0 0 0.00510289)
(0 0 0.00509728)
(0 0 0.00509054)
(0 0 0.00508268)
(0 0 0.00507371)
(0 0 0.00506364)
(0 0 0.00505249)
(0 0 0.00504026)
(0 0 0.00502698)
(0 0 0.00501265)
(0 0 0.00499728)
(0 0 0.0049809)
(0 0 0.00496353)
(0 0 0.00494516)
(0 0 0.00492583)
(0 0 0.00490555)
(0 0 0.00488433)
(0 0 0.0048622)
(0 0 0.00483917)
(0 0 0.00481525)
(0 0 0.00479048)
(0 0 0.00476486)
(0 0 0.00473842)
(0 0 0.00471117)
(0 0 0.00468314)
(0 0 0.00465434)
(0 0 0.00462479)
(0 0 0.00459451)
(0 0 0.00456353)
(0 0 0.00453185)
(0 0 0.0044995)
(0 0 0.0044665)
(0 0 0.00443287)
(0 0 0.00439863)
(0 0 0.00436378)
(0 0 0.00432837)
(0 0 0.00429239)
(0 0 0.00425588)
(0 0 0.00421885)
(0 0 0.00418131)
(0 0 0.00414329)
(0 0 0.00410479)
(0 0 0.00406585)
(0 0 0.00402648)
(0 0 0.00398668)
(0 0 0.00394649)
(0 0 0.00390591)
(0 0 0.00386496)
(0 0 0.00382366)
(0 0 0.00378201)
(0 0 0.00374005)
(0 0 0.00369777)
(0 0 0.0036552)
(0 0 0.00361235)
(0 0 0.00356922)
(0 0 0.00352585)
(0 0 0.00348223)
(0 0 0.00343837)
(0 0 0.0033943)
(0 0 0.00335003)
(0 0 0.00330556)
(0 0 0.0032609)
(0 0 0.00321607)
(0 0 0.00317107)
(0 0 0.00312593)
(0 0 0.00308064)
(0 0 0.00303521)
(0 0 0.00298966)
(0 0 0.00294399)
(0 0 0.00289821)
(0 0 0.00285233)
(0 0 0.00280635)
(0 0 0.00276029)
(0 0 0.00271416)
(0 0 0.00266795)
(0 0 0.00262167)
(0 0 0.00257533)
(0 0 0.00252894)
(0 0 0.00248251)
(0 0 0.00243603)
(0 0 0.00238951)
(0 0 0.00234296)
(0 0 0.00229638)
(0 0 0.00224978)
(0 0 0.00220316)
(0 0 0.00215652)
(0 0 0.00210987)
(0 0 0.00206321)
(0 0 0.00201655)
(0 0 0.00196988)
(0 0 0.00192322)
(0 0 0.00187655)
(0 0 0.0018299)
(0 0 0.00178324)
(0 0 0.0017366)
(0 0 0.00168997)
(0 0 0.00164335)
(0 0 0.00159675)
(0 0 0.00155016)
(0 0 0.00150359)
(0 0 0.00145704)
(0 0 0.00141051)
(0 0 0.00136399)
(0 0 0.0013175)
(0 0 0.00127102)
(0 0 0.00122457)
(0 0 0.00117814)
(0 0 0.00113173)
(0 0 0.00108534)
(0 0 0.00103897)
(0 0 0.000992622)
(0 0 0.000946295)
(0 0 0.000899989)
(0 0 0.000853703)
(0 0 0.000807437)
(0 0 0.000761189)
(0 0 0.000714959)
(0 0 0.000668747)
(0 0 0.000622551)
(0 0 0.00057637)
(0 0 0.000530205)
(0 0 0.000484052)
(0 0 0.000437913)
(0 0 0.000391785)
(0 0 0.000345668)
(0 0 0.00029956)
(0 0 0.00025346)
(0 0 0.000207367)
(0 0 0.000161279)
(0 0 0.000115196)
(0 0 6.91165e-05)
(0 0 2.30386e-05)
(0 0 4.56789e-05)
(0 0 0.000137038)
(0 0 0.000228401)
(0 0 0.000319771)
(0 0 0.000411149)
(0 0 0.00050254)
(0 0 0.000593944)
(0 0 0.000685364)
(0 0 0.000776802)
(0 0 0.000868261)
(0 0 0.000959742)
(0 0 0.00105125)
(0 0 0.00114278)
(0 0 0.00123433)
(0 0 0.00132592)
(0 0 0.00141753)
(0 0 0.00150917)
(0 0 0.00160085)
(0 0 0.00169255)
(0 0 0.00178427)
(0 0 0.00187603)
(0 0 0.00196781)
(0 0 0.00205962)
(0 0 0.00215145)
(0 0 0.0022433)
(0 0 0.00233517)
(0 0 0.00242706)
(0 0 0.00251895)
(0 0 0.00261085)
(0 0 0.00270275)
(0 0 0.00279465)
(0 0 0.00288654)
(0 0 0.00297841)
(0 0 0.00307026)
(0 0 0.00316207)
(0 0 0.00325385)
(0 0 0.00334557)
(0 0 0.00343724)
(0 0 0.00352884)
(0 0 0.00362036)
(0 0 0.00371178)
(0 0 0.0038031)
(0 0 0.0038943)
(0 0 0.00398537)
(0 0 0.00407629)
(0 0 0.00416705)
(0 0 0.00425763)
(0 0 0.00434801)
(0 0 0.00443818)
(0 0 0.00452812)
(0 0 0.0046178)
(0 0 0.0047072)
(0 0 0.00479632)
(0 0 0.00488511)
(0 0 0.00497356)
(0 0 0.00506165)
(0 0 0.00514936)
(0 0 0.00523664)
(0 0 0.00532349)
(0 0 0.00540987)
(0 0 0.00549576)
(0 0 0.00558112)
(0 0 0.00566593)
(0 0 0.00575016)
(0 0 0.00583378)
(0 0 0.00591675)
(0 0 0.00599904)
(0 0 0.00608063)
(0 0 0.00616148)
(0 0 0.00624155)
(0 0 0.00632082)
(0 0 0.00639924)
(0 0 0.00647678)
(0 0 0.00655342)
(0 0 0.0066291)
(0 0 0.0067038)
(0 0 0.00677747)
(0 0 0.00685009)
(0 0 0.00692162)
(0 0 0.00699202)
(0 0 0.00706126)
(0 0 0.00712929)
(0 0 0.00719608)
(0 0 0.0072616)
(0 0 0.00732581)
(0 0 0.00738867)
(0 0 0.00745016)
(0 0 0.00751023)
(0 0 0.00756885)
(0 0 0.00762599)
(0 0 0.00768161)
(0 0 0.00773569)
(0 0 0.00778818)
(0 0 0.00783907)
(0 0 0.00788832)
(0 0 0.0079359)
(0 0 0.00798179)
(0 0 0.00802595)
(0 0 0.00806836)
(0 0 0.00810901)
(0 0 0.00814785)
(0 0 0.00818488)
(0 0 0.00822007)
(0 0 0.00825341)
(0 0 0.00828487)
(0 0 0.00831443)
(0 0 0.00834209)
(0 0 0.00836783)
(0 0 0.00839164)
(0 0 0.00841351)
(0 0 0.00843342)
(0 0 0.00845138)
(0 0 0.00846737)
(0 0 0.00848139)
(0 0 0.00849344)
(0 0 0.00850352)
(0 0 0.00851163)
(0 0 0.00851777)
(0 0 0.00852194)
(0 0 0.00852415)
(0 0 0.00852441)
(0 0 0.00852272)
(0 0 0.00851909)
(0 0 0.00851354)
(0 0 0.00850608)
(0 0 0.00849672)
(0 0 0.00848547)
(0 0 0.00847236)
(0 0 0.0084574)
(0 0 0.00844061)
(0 0 0.008422)
(0 0 0.00840161)
(0 0 0.00837945)
(0 0 0.00835555)
(0 0 0.00832993)
(0 0 0.00830262)
(0 0 0.00827364)
(0 0 0.00824301)
(0 0 0.00821077)
(0 0 0.00817695)
(0 0 0.00814157)
(0 0 0.00810466)
(0 0 0.00806625)
(0 0 0.00802638)
(0 0 0.00798507)
(0 0 0.00794235)
(0 0 0.00789826)
(0 0 0.00785283)
(0 0 0.00780608)
(0 0 0.00775806)
(0 0 0.00770879)
(0 0 0.00765831)
(0 0 0.00760664)
(0 0 0.00755383)
(0 0 0.00749989)
(0 0 0.00744487)
(0 0 0.0073888)
(0 0 0.0073317)
(0 0 0.00727361)
(0 0 0.00721457)
(0 0 0.00715459)
(0 0 0.00709371)
(0 0 0.00703197)
(0 0 0.00696939)
(0 0 0.006906)
(0 0 0.00684182)
(0 0 0.0067769)
(0 0 0.00671126)
(0 0 0.00664492)
(0 0 0.00657791)
(0 0 0.00651026)
(0 0 0.00644199)
(0 0 0.00637313)
(0 0 0.00630372)
(0 0 0.00623376)
(0 0 0.00616328)
(0 0 0.00609231)
(0 0 0.00602087)
(0 0 0.00594899)
(0 0 0.00587668)
(0 0 0.00580396)
(0 0 0.00573087)
(0 0 0.0056574)
(0 0 0.0055836)
(0 0 0.00550946)
(0 0 0.00543503)
(0 0 0.0053603)
(0 0 0.0052853)
(0 0 0.00521004)
(0 0 0.00513454)
(0 0 0.00505882)
(0 0 0.00498289)
(0 0 0.00490676)
(0 0 0.00483046)
(0 0 0.00475398)
(0 0 0.00467735)
(0 0 0.00460058)
(0 0 0.00452367)
(0 0 0.00444665)
(0 0 0.00436951)
(0 0 0.00429228)
(0 0 0.00421496)
(0 0 0.00413756)
(0 0 0.00406009)
(0 0 0.00398255)
(0 0 0.00390496)
(0 0 0.00382733)
(0 0 0.00374965)
(0 0 0.00367195)
(0 0 0.00359422)
(0 0 0.00351646)
(0 0 0.0034387)
(0 0 0.00336092)
(0 0 0.00328314)
(0 0 0.00320536)
(0 0 0.00312758)
(0 0 0.00304982)
(0 0 0.00297206)
(0 0 0.00289432)
(0 0 0.00281661)
(0 0 0.00273891)
(0 0 0.00266123)
(0 0 0.00258359)
(0 0 0.00250597)
(0 0 0.00242838)
(0 0 0.00235082)
(0 0 0.00227329)
(0 0 0.0021958)
(0 0 0.00211835)
(0 0 0.00204092)
(0 0 0.00196354)
(0 0 0.00188619)
(0 0 0.00180887)
(0 0 0.00173159)
(0 0 0.00165435)
(0 0 0.00157714)
(0 0 0.00149996)
(0 0 0.00142282)
(0 0 0.00134571)
(0 0 0.00126863)
(0 0 0.00119158)
(0 0 0.00111456)
(0 0 0.00103757)
(0 0 0.000960601)
(0 0 0.000883659)
(0 0 0.00080674)
(0 0 0.000729842)
(0 0 0.000652964)
(0 0 0.000576103)
(0 0 0.000499257)
(0 0 0.000422425)
(0 0 0.000345605)
(0 0 0.000268794)
(0 0 0.00019199)
(0 0 0.000115192)
(0 0 3.8397e-05)
(0 0 6.39487e-05)
(0 0 0.000191848)
(0 0 0.000319753)
(0 0 0.000447666)
(0 0 0.000575593)
(0 0 0.000703536)
(0 0 0.000831498)
(0 0 0.000959484)
(0 0 0.00108749)
(0 0 0.00121553)
(0 0 0.00134361)
(0 0 0.00147171)
(0 0 0.00159985)
(0 0 0.00172803)
(0 0 0.00185625)
(0 0 0.00198451)
(0 0 0.0021128)
(0 0 0.00224114)
(0 0 0.00236952)
(0 0 0.00249795)
(0 0 0.00262641)
(0 0 0.0027549)
(0 0 0.00288344)
(0 0 0.00301201)
(0 0 0.0031406)
(0 0 0.00326922)
(0 0 0.00339787)
(0 0 0.00352652)
(0 0 0.00365519)
(0 0 0.00378386)
(0 0 0.00391253)
(0 0 0.00404118)
(0 0 0.00416981)
(0 0 0.0042984)
(0 0 0.00442696)
(0 0 0.00455546)
(0 0 0.00468389)
(0 0 0.00481224)
(0 0 0.00494049)
(0 0 0.00506863)
(0 0 0.00519664)
(0 0 0.00532451)
(0 0 0.00545221)
(0 0 0.00557973)
(0 0 0.00570704)
(0 0 0.00583413)
(0 0 0.00596096)
(0 0 0.00608752)
(0 0 0.00621378)
(0 0 0.00633972)
(0 0 0.0064653)
(0 0 0.0065905)
(0 0 0.00671529)
(0 0 0.00683963)
(0 0 0.0069635)
(0 0 0.00708686)
(0 0 0.00720968)
(0 0 0.00733192)
(0 0 0.00745354)
(0 0 0.00757451)
(0 0 0.00769479)
(0 0 0.00781434)
(0 0 0.00793312)
(0 0 0.00805108)
(0 0 0.00816819)
(0 0 0.00828439)
(0 0 0.00839965)
(0 0 0.00851392)
(0 0 0.00862716)
(0 0 0.00873931)
(0 0 0.00885033)
(0 0 0.00896017)
(0 0 0.00906878)
(0 0 0.00917611)
(0 0 0.00928212)
(0 0 0.00938674)
(0 0 0.00948994)
(0 0 0.00959166)
(0 0 0.00969185)
(0 0 0.00979046)
(0 0 0.00988744)
(0 0 0.00998274)
(0 0 0.0100763)
(0 0 0.0101681)
(0 0 0.010258)
(0 0 0.0103461)
(0 0 0.0104322)
(0 0 0.0105163)
(0 0 0.0105985)
(0 0 0.0106785)
(0 0 0.0107564)
(0 0 0.0108322)
(0 0 0.0109057)
(0 0 0.010977)
(0 0 0.011046)
(0 0 0.0111126)
(0 0 0.0111769)
(0 0 0.0112388)
(0 0 0.0112982)
(0 0 0.0113551)
(0 0 0.0114095)
(0 0 0.0114614)
(0 0 0.0115107)
(0 0 0.0115574)
(0 0 0.0116015)
(0 0 0.0116429)
(0 0 0.0116816)
(0 0 0.0117177)
(0 0 0.011751)
(0 0 0.0117816)
(0 0 0.0118095)
(0 0 0.0118347)
(0 0 0.0118571)
(0 0 0.0118767)
(0 0 0.0118936)
(0 0 0.0119077)
(0 0 0.011919)
(0 0 0.0119276)
(0 0 0.0119335)
(0 0 0.0119365)
(0 0 0.0119369)
(0 0 0.0119345)
(0 0 0.0119294)
(0 0 0.0119216)
(0 0 0.0119112)
(0 0 0.011898)
(0 0 0.0118823)
(0 0 0.0118639)
(0 0 0.0118429)
(0 0 0.0118194)
(0 0 0.0117933)
(0 0 0.0117647)
(0 0 0.0117337)
(0 0 0.0117002)
(0 0 0.0116643)
(0 0 0.011626)
(0 0 0.0115854)
(0 0 0.0115425)
(0 0 0.0114973)
(0 0 0.0114499)
(0 0 0.0114003)
(0 0 0.0113486)
(0 0 0.0112948)
(0 0 0.0112389)
(0 0 0.0111811)
(0 0 0.0111212)
(0 0 0.0110594)
(0 0 0.0109958)
(0 0 0.0109303)
(0 0 0.010863)
(0 0 0.010794)
(0 0 0.0107233)
(0 0 0.0106509)
(0 0 0.0105769)
(0 0 0.0105014)
(0 0 0.0104243)
(0 0 0.0103458)
(0 0 0.0102658)
(0 0 0.0101844)
(0 0 0.0101017)
(0 0 0.0100177)
(0 0 0.00993242)
(0 0 0.00984593)
(0 0 0.00975828)
(0 0 0.00966949)
(0 0 0.00957961)
(0 0 0.00948868)
(0 0 0.00939673)
(0 0 0.00930382)
(0 0 0.00920997)
(0 0 0.00911522)
(0 0 0.00901961)
(0 0 0.00892318)
(0 0 0.00882596)
(0 0 0.00872798)
(0 0 0.00862928)
(0 0 0.00852989)
(0 0 0.00842985)
(0 0 0.00832918)
(0 0 0.00822792)
(0 0 0.00812609)
(0 0 0.00802372)
(0 0 0.00792085)
(0 0 0.00781749)
(0 0 0.00771368)
(0 0 0.00760944)
(0 0 0.0075048)
(0 0 0.00739977)
(0 0 0.00729439)
(0 0 0.00718867)
(0 0 0.00708264)
(0 0 0.00697632)
(0 0 0.00686972)
(0 0 0.00676287)
(0 0 0.00665579)
(0 0 0.00654849)
(0 0 0.00644099)
(0 0 0.00633331)
(0 0 0.00622546)
(0 0 0.00611746)
(0 0 0.00600932)
(0 0 0.00590106)
(0 0 0.00579268)
(0 0 0.00568421)
(0 0 0.00557565)
(0 0 0.00546702)
(0 0 0.00535832)
(0 0 0.00524956)
(0 0 0.00514076)
(0 0 0.00503193)
(0 0 0.00492307)
(0 0 0.00481419)
(0 0 0.00470529)
(0 0 0.00459639)
(0 0 0.0044875)
(0 0 0.0043786)
(0 0 0.00426973)
(0 0 0.00416087)
(0 0 0.00405203)
(0 0 0.00394322)
(0 0 0.00383444)
(0 0 0.00372569)
(0 0 0.00361698)
(0 0 0.00350831)
(0 0 0.00339969)
(0 0 0.0032911)
(0 0 0.00318257)
(0 0 0.00307408)
(0 0 0.00296564)
(0 0 0.00285724)
(0 0 0.0027489)
(0 0 0.00264061)
(0 0 0.00253237)
(0 0 0.00242418)
(0 0 0.00231604)
(0 0 0.00220794)
(0 0 0.0020999)
(0 0 0.0019919)
(0 0 0.00188395)
(0 0 0.00177604)
(0 0 0.00166817)
(0 0 0.00156034)
(0 0 0.00145256)
(0 0 0.00134481)
(0 0 0.00123709)
(0 0 0.00112941)
(0 0 0.00102175)
(0 0 0.000914125)
(0 0 0.000806522)
(0 0 0.000698941)
(0 0 0.000591379)
(0 0 0.000483833)
(0 0 0.000376301)
(0 0 0.000268779)
(0 0 0.000161264)
(0 0 5.37543e-05)
(0 0 8.22165e-05)
(0 0 0.000246652)
(0 0 0.000411095)
(0 0 0.000575549)
(0 0 0.00074002)
(0 0 0.000904513)
(0 0 0.00106903)
(0 0 0.00123358)
(0 0 0.00139816)
(0 0 0.00156278)
(0 0 0.00172744)
(0 0 0.00189214)
(0 0 0.00205689)
(0 0 0.00222169)
(0 0 0.00238654)
(0 0 0.00255144)
(0 0 0.00271639)
(0 0 0.0028814)
(0 0 0.00304646)
(0 0 0.00321158)
(0 0 0.00337674)
(0 0 0.00354196)
(0 0 0.00370722)
(0 0 0.00387253)
(0 0 0.00403787)
(0 0 0.00420325)
(0 0 0.00436866)
(0 0 0.00453409)
(0 0 0.00469953)
(0 0 0.00486497)
(0 0 0.00503042)
(0 0 0.00519584)
(0 0 0.00536124)
(0 0 0.0055266)
(0 0 0.0056919)
(0 0 0.00585713)
(0 0 0.00602228)
(0 0 0.00618733)
(0 0 0.00635225)
(0 0 0.00651703)
(0 0 0.00668165)
(0 0 0.00684608)
(0 0 0.0070103)
(0 0 0.00717429)
(0 0 0.00733801)
(0 0 0.00750145)
(0 0 0.00766456)
(0 0 0.00782733)
(0 0 0.00798971)
(0 0 0.00815167)
(0 0 0.00831318)
(0 0 0.00847421)
(0 0 0.0086347)
(0 0 0.00879463)
(0 0 0.00895394)
(0 0 0.00911261)
(0 0 0.00927058)
(0 0 0.00942781)
(0 0 0.00958424)
(0 0 0.00973985)
(0 0 0.00989456)
(0 0 0.0100483)
(0 0 0.0102011)
(0 0 0.0103529)
(0 0 0.0105035)
(0 0 0.010653)
(0 0 0.0108013)
(0 0 0.0109483)
(0 0 0.0110939)
(0 0 0.0112382)
(0 0 0.011381)
(0 0 0.0115223)
(0 0 0.011662)
(0 0 0.0118001)
(0 0 0.0119365)
(0 0 0.0120711)
(0 0 0.0122039)
(0 0 0.0123348)
(0 0 0.0124637)
(0 0 0.0125905)
(0 0 0.0127153)
(0 0 0.0128379)
(0 0 0.0129583)
(0 0 0.0130764)
(0 0 0.0131921)
(0 0 0.0133054)
(0 0 0.0134162)
(0 0 0.0135245)
(0 0 0.0136302)
(0 0 0.0137331)
(0 0 0.0138334)
(0 0 0.0139309)
(0 0 0.0140255)
(0 0 0.0141172)
(0 0 0.014206)
(0 0 0.0142917)
(0 0 0.0143745)
(0 0 0.0144541)
(0 0 0.0145305)
(0 0 0.0146038)
(0 0 0.0146738)
(0 0 0.0147405)
(0 0 0.0148039)
(0 0 0.014864)
(0 0 0.0149207)
(0 0 0.014974)
(0 0 0.0150238)
(0 0 0.0150702)
(0 0 0.0151131)
(0 0 0.0151525)
(0 0 0.0151884)
(0 0 0.0152207)
(0 0 0.0152495)
(0 0 0.0152748)
(0 0 0.0152965)
(0 0 0.0153146)
(0 0 0.0153292)
(0 0 0.0153402)
(0 0 0.0153477)
(0 0 0.0153517)
(0 0 0.0153521)
(0 0 0.015349)
(0 0 0.0153425)
(0 0 0.0153324)
(0 0 0.0153189)
(0 0 0.015302)
(0 0 0.0152817)
(0 0 0.015258)
(0 0 0.015231)
(0 0 0.0152007)
(0 0 0.0151671)
(0 0 0.0151303)
(0 0 0.0150903)
(0 0 0.0150472)
(0 0 0.015001)
(0 0 0.0149517)
(0 0 0.0148994)
(0 0 0.0148442)
(0 0 0.0147861)
(0 0 0.0147251)
(0 0 0.0146612)
(0 0 0.0145947)
(0 0 0.0145254)
(0 0 0.0144535)
(0 0 0.014379)
(0 0 0.014302)
(0 0 0.0142225)
(0 0 0.0141406)
(0 0 0.0140563)
(0 0 0.0139698)
(0 0 0.0138809)
(0 0 0.0137899)
(0 0 0.0136968)
(0 0 0.0136016)
(0 0 0.0135044)
(0 0 0.0134052)
(0 0 0.0133041)
(0 0 0.0132012)
(0 0 0.0130965)
(0 0 0.0129901)
(0 0 0.012882)
(0 0 0.0127723)
(0 0 0.0126611)
(0 0 0.0125483)
(0 0 0.0124341)
(0 0 0.0123184)
(0 0 0.0122015)
(0 0 0.0120832)
(0 0 0.0119637)
(0 0 0.0118429)
(0 0 0.011721)
(0 0 0.0115981)
(0 0 0.011474)
(0 0 0.011349)
(0 0 0.0112229)
(0 0 0.011096)
(0 0 0.0109681)
(0 0 0.0108395)
(0 0 0.01071)
(0 0 0.0105797)
(0 0 0.0104487)
(0 0 0.0103171)
(0 0 0.0101848)
(0 0 0.0100518)
(0 0 0.00991833)
(0 0 0.00978426)
(0 0 0.00964968)
(0 0 0.00951461)
(0 0 0.00937908)
(0 0 0.00924312)
(0 0 0.00910676)
(0 0 0.00897002)
(0 0 0.00883294)
(0 0 0.00869553)
(0 0 0.00855782)
(0 0 0.00841983)
(0 0 0.00828159)
(0 0 0.00814312)
(0 0 0.00800443)
(0 0 0.00786554)
(0 0 0.00772648)
(0 0 0.00758726)
(0 0 0.0074479)
(0 0 0.00730842)
(0 0 0.00716882)
(0 0 0.00702913)
(0 0 0.00688936)
(0 0 0.00674952)
(0 0 0.00660962)
(0 0 0.00646967)
(0 0 0.00632969)
(0 0 0.00618969)
(0 0 0.00604967)
(0 0 0.00590965)
(0 0 0.00576963)
(0 0 0.00562961)
(0 0 0.00548962)
(0 0 0.00534965)
(0 0 0.00520971)
(0 0 0.0050698)
(0 0 0.00492993)
(0 0 0.00479011)
(0 0 0.00465034)
(0 0 0.00451062)
(0 0 0.00437095)
(0 0 0.00423134)
(0 0 0.00409179)
(0 0 0.0039523)
(0 0 0.00381288)
(0 0 0.00367352)
(0 0 0.00353422)
(0 0 0.00339499)
(0 0 0.00325582)
(0 0 0.00311672)
(0 0 0.00297768)
(0 0 0.0028387)
(0 0 0.00269979)
(0 0 0.00256094)
(0 0 0.00242214)
(0 0 0.0022834)
(0 0 0.00214472)
(0 0 0.00200609)
(0 0 0.00186751)
(0 0 0.00172898)
(0 0 0.00159049)
(0 0 0.00145204)
(0 0 0.00131363)
(0 0 0.00117526)
(0 0 0.00103692)
(0 0 0.000898606)
(0 0 0.000760317)
(0 0 0.000622049)
(0 0 0.000483798)
(0 0 0.00034556)
(0 0 0.000207332)
(0 0 6.91102e-05)
(0 0 0.000100482)
(0 0 0.000301449)
(0 0 0.000502425)
(0 0 0.000703416)
(0 0 0.000904427)
(0 0 0.00110546)
(0 0 0.00130653)
(0 0 0.00150764)
(0 0 0.00170878)
(0 0 0.00190998)
(0 0 0.00211122)
(0 0 0.00231252)
(0 0 0.00251388)
(0 0 0.00271529)
(0 0 0.00291677)
(0 0 0.00311832)
(0 0 0.00331993)
(0 0 0.0035216)
(0 0 0.00372335)
(0 0 0.00392516)
(0 0 0.00412703)
(0 0 0.00432897)
(0 0 0.00453096)
(0 0 0.00473301)
(0 0 0.00493511)
(0 0 0.00513725)
(0 0 0.00533943)
(0 0 0.00554164)
(0 0 0.00574386)
(0 0 0.00594609)
(0 0 0.00614832)
(0 0 0.00635053)
(0 0 0.00655271)
(0 0 0.00675484)
(0 0 0.00695691)
(0 0 0.00715889)
(0 0 0.00736078)
(0 0 0.00756254)
(0 0 0.00776415)
(0 0 0.00796559)
(0 0 0.00816684)
(0 0 0.00836786)
(0 0 0.00856863)
(0 0 0.00876911)
(0 0 0.00896928)
(0 0 0.00916909)
(0 0 0.00936852)
(0 0 0.00956752)
(0 0 0.00976605)
(0 0 0.00996408)
(0 0 0.0101616)
(0 0 0.0103584)
(0 0 0.0105547)
(0 0 0.0107502)
(0 0 0.010945)
(0 0 0.0111391)
(0 0 0.0113322)
(0 0 0.0115245)
(0 0 0.0117158)
(0 0 0.0119061)
(0 0 0.0120953)
(0 0 0.0122833)
(0 0 0.0124702)
(0 0 0.0126557)
(0 0 0.01284)
(0 0 0.0130228)
(0 0 0.0132041)
(0 0 0.0133839)
(0 0 0.0135621)
(0 0 0.0137385)
(0 0 0.0139132)
(0 0 0.0140861)
(0 0 0.014257)
(0 0 0.0144259)
(0 0 0.0145927)
(0 0 0.0147573)
(0 0 0.0149197)
(0 0 0.0150798)
(0 0 0.0152375)
(0 0 0.0153927)
(0 0 0.0155453)
(0 0 0.0156953)
(0 0 0.0158426)
(0 0 0.0159871)
(0 0 0.0161286)
(0 0 0.0162672)
(0 0 0.0164028)
(0 0 0.0165353)
(0 0 0.0166645)
(0 0 0.0167905)
(0 0 0.0169132)
(0 0 0.0170324)
(0 0 0.0171482)
(0 0 0.0172604)
(0 0 0.017369)
(0 0 0.0174739)
(0 0 0.0175751)
(0 0 0.0176725)
(0 0 0.017766)
(0 0 0.0178556)
(0 0 0.0179413)
(0 0 0.0180229)
(0 0 0.0181005)
(0 0 0.018174)
(0 0 0.0182434)
(0 0 0.0183085)
(0 0 0.0183695)
(0 0 0.0184263)
(0 0 0.0184787)
(0 0 0.0185269)
(0 0 0.0185708)
(0 0 0.0186103)
(0 0 0.0186456)
(0 0 0.0186764)
(0 0 0.0187029)
(0 0 0.0187251)
(0 0 0.0187429)
(0 0 0.0187564)
(0 0 0.0187655)
(0 0 0.0187703)
(0 0 0.0187708)
(0 0 0.018767)
(0 0 0.018759)
(0 0 0.0187466)
(0 0 0.0187301)
(0 0 0.0187094)
(0 0 0.0186845)
(0 0 0.0186555)
(0 0 0.0186224)
(0 0 0.0185853)
(0 0 0.0185442)
(0 0 0.0184991)
(0 0 0.0184502)
(0 0 0.0183974)
(0 0 0.0183408)
(0 0 0.0182805)
(0 0 0.0182165)
(0 0 0.0181488)
(0 0 0.0180777)
(0 0 0.018003)
(0 0 0.0179249)
(0 0 0.0178434)
(0 0 0.0177587)
(0 0 0.0176707)
(0 0 0.0175795)
(0 0 0.0174853)
(0 0 0.017388)
(0 0 0.0172878)
(0 0 0.0171846)
(0 0 0.0170787)
(0 0 0.01697)
(0 0 0.0168587)
(0 0 0.0167447)
(0 0 0.0166283)
(0 0 0.0165093)
(0 0 0.016388)
(0 0 0.0162644)
(0 0 0.0161385)
(0 0 0.0160104)
(0 0 0.0158802)
(0 0 0.015748)
(0 0 0.0156138)
(0 0 0.0154777)
(0 0 0.0153398)
(0 0 0.0152001)
(0 0 0.0150586)
(0 0 0.0149156)
(0 0 0.0147709)
(0 0 0.0146247)
(0 0 0.014477)
(0 0 0.014328)
(0 0 0.0141776)
(0 0 0.0140259)
(0 0 0.0138729)
(0 0 0.0137188)
(0 0 0.0135636)
(0 0 0.0134072)
(0 0 0.0132499)
(0 0 0.0130915)
(0 0 0.0129323)
(0 0 0.0127721)
(0 0 0.0126111)
(0 0 0.0124493)
(0 0 0.0122868)
(0 0 0.0121235)
(0 0 0.0119596)
(0 0 0.0117951)
(0 0 0.0116299)
(0 0 0.0114642)
(0 0 0.011298)
(0 0 0.0111312)
(0 0 0.0109641)
(0 0 0.0107965)
(0 0 0.0106285)
(0 0 0.0104601)
(0 0 0.0102914)
(0 0 0.0101224)
(0 0 0.00995314)
(0 0 0.00978359)
(0 0 0.0096138)
(0 0 0.0094438)
(0 0 0.00927361)
(0 0 0.00910325)
(0 0 0.00893274)
(0 0 0.00876209)
(0 0 0.00859133)
(0 0 0.00842047)
(0 0 0.00824953)
(0 0 0.00807852)
(0 0 0.00790745)
(0 0 0.00773635)
(0 0 0.00756521)
(0 0 0.00739406)
(0 0 0.0072229)
(0 0 0.00705175)
(0 0 0.00688061)
(0 0 0.00670949)
(0 0 0.0065384)
(0 0 0.00636735)
(0 0 0.00619634)
(0 0 0.00602539)
(0 0 0.00585449)
(0 0 0.00568364)
(0 0 0.00551287)
(0 0 0.00534216)
(0 0 0.00517152)
(0 0 0.00500095)
(0 0 0.00483047)
(0 0 0.00466005)
(0 0 0.00448972)
(0 0 0.00431947)
(0 0 0.0041493)
(0 0 0.0039792)
(0 0 0.00380919)
(0 0 0.00363926)
(0 0 0.0034694)
(0 0 0.00329962)
(0 0 0.00312991)
(0 0 0.00296028)
(0 0 0.00279072)
(0 0 0.00262122)
(0 0 0.00245179)
(0 0 0.00228242)
(0 0 0.00211311)
(0 0 0.00194385)
(0 0 0.00177464)
(0 0 0.00160548)
(0 0 0.00143637)
(0 0 0.00126729)
(0 0 0.00109825)
(0 0 0.000929234)
(0 0 0.000760247)
(0 0 0.000591281)
(0 0 0.000422332)
(0 0 0.000253395)
(0 0 8.44641e-05)
(0 0 0.000118745)
(0 0 0.000356237)
(0 0 0.00059374)
(0 0 0.000831261)
(0 0 0.00106881)
(0 0 0.00130638)
(0 0 0.001544)
(0 0 0.00178166)
(0 0 0.00201936)
(0 0 0.00225713)
(0 0 0.00249495)
(0 0 0.00273284)
(0 0 0.0029708)
(0 0 0.00320883)
(0 0 0.00344694)
(0 0 0.00368513)
(0 0 0.00392339)
(0 0 0.00416174)
(0 0 0.00440017)
(0 0 0.00463867)
(0 0 0.00487726)
(0 0 0.00511592)
(0 0 0.00535465)
(0 0 0.00559345)
(0 0 0.00583231)
(0 0 0.00607122)
(0 0 0.00631018)
(0 0 0.00654917)
(0 0 0.00678818)
(0 0 0.00702721)
(0 0 0.00726624)
(0 0 0.00750525)
(0 0 0.00774423)
(0 0 0.00798315)
(0 0 0.008222)
(0 0 0.00846076)
(0 0 0.0086994)
(0 0 0.0089379)
(0 0 0.00917623)
(0 0 0.00941436)
(0 0 0.00965226)
(0 0 0.0098899)
(0 0 0.0101272)
(0 0 0.0103643)
(0 0 0.0106009)
(0 0 0.0108371)
(0 0 0.0110729)
(0 0 0.0113082)
(0 0 0.0115429)
(0 0 0.011777)
(0 0 0.0120105)
(0 0 0.0122433)
(0 0 0.0124754)
(0 0 0.0127066)
(0 0 0.0129369)
(0 0 0.0131663)
(0 0 0.0133948)
(0 0 0.0136221)
(0 0 0.0138483)
(0 0 0.0140734)
(0 0 0.0142971)
(0 0 0.0145195)
(0 0 0.0147405)
(0 0 0.01496)
(0 0 0.0151779)
(0 0 0.0153941)
(0 0 0.0156086)
(0 0 0.0158212)
(0 0 0.0160319)
(0 0 0.0162406)
(0 0 0.0164473)
(0 0 0.0166517)
(0 0 0.0168539)
(0 0 0.0170537)
(0 0 0.017251)
(0 0 0.0174458)
(0 0 0.0176379)
(0 0 0.0178273)
(0 0 0.0180138)
(0 0 0.0181974)
(0 0 0.018378)
(0 0 0.0185555)
(0 0 0.0187297)
(0 0 0.0189006)
(0 0 0.0190681)
(0 0 0.0192321)
(0 0 0.0193925)
(0 0 0.0195492)
(0 0 0.0197022)
(0 0 0.0198512)
(0 0 0.0199964)
(0 0 0.0201374)
(0 0 0.0202744)
(0 0 0.0204072)
(0 0 0.0205357)
(0 0 0.0206598)
(0 0 0.0207795)
(0 0 0.0208948)
(0 0 0.0210054)
(0 0 0.0211115)
(0 0 0.0212128)
(0 0 0.0213094)
(0 0 0.0214012)
(0 0 0.0214881)
(0 0 0.0215702)
(0 0 0.0216473)
(0 0 0.0217194)
(0 0 0.0217865)
(0 0 0.0218486)
(0 0 0.0219056)
(0 0 0.0219575)
(0 0 0.0220043)
(0 0 0.0220459)
(0 0 0.0220824)
(0 0 0.0221138)
(0 0 0.02214)
(0 0 0.022161)
(0 0 0.0221769)
(0 0 0.0221877)
(0 0 0.0221933)
(0 0 0.0221939)
(0 0 0.0221893)
(0 0 0.0221797)
(0 0 0.0221651)
(0 0 0.0221455)
(0 0 0.0221209)
(0 0 0.0220914)
(0 0 0.022057)
(0 0 0.0220178)
(0 0 0.0219739)
(0 0 0.0219252)
(0 0 0.0218718)
(0 0 0.0218138)
(0 0 0.0217513)
(0 0 0.0216843)
(0 0 0.0216129)
(0 0 0.0215371)
(0 0 0.021457)
(0 0 0.0213728)
(0 0 0.0212844)
(0 0 0.0211919)
(0 0 0.0210955)
(0 0 0.0209952)
(0 0 0.020891)
(0 0 0.0207831)
(0 0 0.0206716)
(0 0 0.0205564)
(0 0 0.0204378)
(0 0 0.0203158)
(0 0 0.0201904)
(0 0 0.0200618)
(0 0 0.0199301)
(0 0 0.0197952)
(0 0 0.0196574)
(0 0 0.0195167)
(0 0 0.0193731)
(0 0 0.0192268)
(0 0 0.0190779)
(0 0 0.0189264)
(0 0 0.0187724)
(0 0 0.018616)
(0 0 0.0184572)
(0 0 0.0182962)
(0 0 0.018133)
(0 0 0.0179678)
(0 0 0.0178005)
(0 0 0.0176312)
(0 0 0.0174601)
(0 0 0.0172872)
(0 0 0.0171126)
(0 0 0.0169363)
(0 0 0.0167584)
(0 0 0.016579)
(0 0 0.0163981)
(0 0 0.0162158)
(0 0 0.0160322)
(0 0 0.0158473)
(0 0 0.0156612)
(0 0 0.015474)
(0 0 0.0152857)
(0 0 0.0150963)
(0 0 0.0149059)
(0 0 0.0147146)
(0 0 0.0145224)
(0 0 0.0143294)
(0 0 0.0141356)
(0 0 0.013941)
(0 0 0.0137458)
(0 0 0.0135498)
(0 0 0.0133533)
(0 0 0.0131562)
(0 0 0.0129586)
(0 0 0.0127604)
(0 0 0.0125618)
(0 0 0.0123628)
(0 0 0.0121633)
(0 0 0.0119635)
(0 0 0.0117634)
(0 0 0.011563)
(0 0 0.0113623)
(0 0 0.0111613)
(0 0 0.0109601)
(0 0 0.0107588)
(0 0 0.0105572)
(0 0 0.0103555)