/*--------------------------------*- C++ -*----------------------------------*\
| =========                 |                                                 |
| \\      /  F ield         | OpenFOAM: The Open Source CFD Toolbox           |
|  \\    /   O peration     | Version:  v2012                                 |
|   \\  /    A nd           | Website:  www.openfoam.com                      |
|    \\/     M anipulation  |                                                 |
\*---------------------------------------------------------------------------*/
FoamFile
{
    version     2.0;
    format      ascii;
    class       volScalarField;
    location    "5.2";
    object      Psi_z;
}
// * * * * * * * * * * * * * * * * * * * * * * * * * * * * * * * * * * * * * //

dimensions      [0 2 -1 0 0 0 0];


internalField   nonuniform List<scalar> 
65536
(
9.09873e-06
2.72957e-05
4.54916e-05
6.36857e-05
8.18771e-05
0.000100065
0.000118249
0.000136428
0.000154602
0.000172768
0.000190927
0.000209078
0.00022722
0.000245351
0.000263471
0.000281579
0.000299673
0.000317752
0.000335816
0.000353862
0.00037189
0.000389899
0.000407885
0.000425849
0.000443789
0.000461703
0.000479588
0.000497444
0.000515269
0.00053306
0.000550815
0.000568532
0.00058621
0.000603845
0.000621435
0.000638978
0.000656472
0.000673912
0.000691298
0.000708625
0.000725891
0.000743092
0.000760227
0.00077729
0.000794279
0.000811191
0.000828022
0.000844768
0.000861426
0.000877991
0.00089446
0.000910829
0.000927093
0.00094325
0.000959293
0.00097522
0.000991025
0.0010067
0.00102225
0.00103767
0.00105294
0.00106807
0.00108305
0.00109788
0.00111255
0.00112706
0.00114139
0.00115556
0.00116955
0.00118335
0.00119696
0.00121039
0.00122361
0.00123664
0.00124945
0.00126205
0.00127444
0.0012866
0.00129854
0.00131025
0.00132172
0.00133295
0.00134394
0.00135468
0.00136516
0.00137539
0.00138536
0.00139506
0.0014045
0.00141366
0.00142254
0.00143115
0.00143947
0.00144751
0.00145526
0.00146272
0.00146988
0.00147675
0.00148332
0.00148959
0.00149556
0.00150122
0.00150657
0.00151162
0.00151636
0.00152079
0.00152491
0.00152872
0.00153222
0.0015354
0.00153827
0.00154083
0.00154308
0.00154502
0.00154665
0.00154797
0.00154897
0.00154967
0.00155007
0.00155016
0.00154994
0.00154942
0.0015486
0.00154749
0.00154608
0.00154437
0.00154238
0.00154009
0.00153752
0.00153466
0.00153153
0.00152812
0.00152443
0.00152047
0.00151625
0.00151175
0.001507
0.00150199
0.00149673
0.00149121
0.00148545
0.00147945
0.0014732
0.00146672
0.00146001
0.00145307
0.0014459
0.00143851
0.00143091
0.0014231
0.00141507
0.00140684
0.00139841
0.00138978
0.00138096
0.00137195
0.00136275
0.00135337
0.00134382
0.00133408
0.00132418
0.00131411
0.00130388
0.00129349
0.00128295
0.00127225
0.0012614
0.00125041
0.00123928
0.001228
0.0012166
0.00120506
0.0011934
0.00118161
0.00116969
0.00115766
0.00114552
0.00113326
0.0011209
0.00110842
0.00109585
0.00108317
0.0010704
0.00105753
0.00104458
0.00103153
0.00101839
0.00100517
0.000991875
0.000978496
0.000965041
0.000951512
0.000937911
0.000924241
0.000910503
0.000896701
0.000882836
0.00086891
0.000854925
0.000840884
0.000826788
0.00081264
0.00079844
0.000784191
0.000769895
0.000755554
0.000741168
0.00072674
0.000712272
0.000697765
0.00068322
0.000668639
0.000654023
0.000639374
0.000624693
0.000609982
0.000595241
0.000580472
0.000565676
0.000550855
0.000536009
0.00052114
0.000506248
0.000491335
0.000476402
0.000461449
0.000446478
0.000431489
0.000416484
0.000401463
0.000386427
0.000371377
0.000356313
0.000341237
0.000326148
0.000311049
0.000295938
0.000280818
0.000265689
0.000250551
0.000235405
0.000220251
0.00020509
0.000189923
0.000174751
0.000159572
0.000144389
0.000129202
0.000114011
9.8816e-05
8.36184e-05
6.84184e-05
5.32164e-05
3.80128e-05
2.28081e-05
7.60278e-06
2.72964e-05
8.18881e-05
0.000136476
0.000191059
0.000245634
0.000300199
0.000354752
0.00040929
0.00046381
0.000518311
0.00057279
0.000627243
0.000681669
0.000736063
0.000790424
0.000844748
0.000899031
0.000953271
0.00100746
0.0010616
0.00111569
0.00116972
0.00122368
0.00127757
0.00133139
0.00138513
0.00143879
0.00149236
0.00154584
0.00159921
0.00165248
0.00170563
0.00175867
0.00181158
0.00186435
0.00191698
0.00196946
0.00202179
0.00207395
0.00212593
0.00217773
0.00222934
0.00228075
0.00233194
0.00238291
0.00243365
0.00248415
0.00253439
0.00258436
0.00263406
0.00268348
0.00273259
0.00278138
0.00282986
0.00287799
0.00292578
0.0029732
0.00302024
0.00306689
0.00311314
0.00315897
0.00320436
0.00324931
0.0032938
0.00333781
0.00338133
0.00342435
0.00346685
0.00350881
0.00355023
0.00359108
0.00363135
0.00367103
0.00371011
0.00374856
0.00378637
0.00382354
0.00386003
0.00389585
0.00393098
0.0039654
0.0039991
0.00403206
0.00406428
0.00409574
0.00412643
0.00415634
0.00418545
0.00421375
0.00424124
0.0042679
0.00429372
0.0043187
0.00434281
0.00436607
0.00438844
0.00440994
0.00443055
0.00445026
0.00446906
0.00448696
0.00450395
0.00452002
0.00453517
0.00454939
0.00456268
0.00457504
0.00458646
0.00459695
0.00460651
0.00461513
0.00462281
0.00462956
0.00463537
0.00464025
0.0046442
0.00464722
0.00464932
0.0046505
0.00465076
0.00465012
0.00464856
0.00464611
0.00464276
0.00463852
0.0046334
0.00462741
0.00462055
0.00461283
0.00460427
0.00459486
0.00458462
0.00457356
0.00456168
0.004549
0.00453552
0.00452126
0.00450623
0.00449043
0.00447389
0.0044566
0.00443858
0.00441984
0.00440039
0.00438025
0.00435942
0.00433792
0.00431576
0.00429295
0.00426949
0.00424542
0.00422072
0.00419542
0.00416954
0.00414307
0.00411603
0.00408843
0.00406029
0.00403162
0.00400242
0.00397271
0.00394251
0.00391181
0.00388063
0.00384899
0.00381689
0.00378435
0.00375137
0.00371796
0.00368415
0.00364992
0.00361531
0.00358031
0.00354494
0.0035092
0.00347311
0.00343667
0.0033999
0.0033628
0.00332538
0.00328765
0.00324962
0.0032113
0.0031727
0.00313382
0.00309467
0.00305526
0.00301561
0.0029757
0.00293557
0.0028952
0.00285461
0.0028138
0.00277279
0.00273158
0.00269017
0.00264857
0.00260679
0.00256483
0.00252271
0.00248042
0.00243797
0.00239537
0.00235262
0.00230973
0.00226671
0.00222355
0.00218026
0.00213686
0.00209333
0.0020497
0.00200595
0.0019621
0.00191815
0.00187411
0.00182997
0.00178575
0.00174144
0.00169706
0.00165259
0.00160805
0.00156344
0.00151877
0.00147403
0.00142923
0.00138437
0.00133945
0.00129449
0.00124947
0.0012044
0.0011593
0.00111414
0.00106895
0.00102372
0.000978456
0.000933157
0.000887826
0.000842465
0.000797076
0.000751661
0.000706222
0.00066076
0.000615278
0.000569776
0.000524257
0.000478722
0.000433172
0.00038761
0.000342035
0.000296451
0.000250858
0.000205257
0.000159651
0.000114039
6.8425e-05
2.28086e-05
4.54952e-05
0.000136484
0.000227467
0.000318441
0.000409402
0.000500346
0.000591269
0.000682168
0.000773039
0.000863877
0.000954677
0.00104544
0.00113615
0.00122681
0.00131741
0.00140796
0.00149843
0.00158884
0.00167916
0.0017694
0.00185955
0.0019496
0.00203954
0.00212937
0.00221907
0.00230865
0.00239809
0.00248737
0.00257651
0.00266547
0.00275426
0.00284286
0.00293126
0.00301944
0.00310741
0.00319514
0.00328262
0.00336983
0.00345677
0.00354342
0.00362977
0.00371579
0.00380148
0.00388681
0.00397178
0.00405635
0.00414053
0.00422427
0.00430758
0.00439043
0.00447279
0.00455466
0.004636
0.0047168
0.00479704
0.0048767
0.00495574
0.00503416
0.00511193
0.00518903
0.00526542
0.0053411
0.00541603
0.00549019
0.00556356
0.00563612
0.00570783
0.00577867
0.00584863
0.00591767
0.00598578
0.00605291
0.00611907
0.0061842
0.0062483
0.00631134
0.0063733
0.00643414
0.00649386
0.00655242
0.0066098
0.00666598
0.00672093
0.00677465
0.00682709
0.00687826
0.00692811
0.00697664
0.00702383
0.00706965
0.0071141
0.00715714
0.00719878
0.00723898
0.00727775
0.00731505
0.00735088
0.00738524
0.0074181
0.00744945
0.00747929
0.0075076
0.00753439
0.00755964
0.00758334
0.0076055
0.0076261
0.00764514
0.00766263
0.00767856
0.00769292
0.00770572
0.00771697
0.00772665
0.00773478
0.00774136
0.0077464
0.00774989
0.00775185
0.00775229
0.0077512
0.0077486
0.0077445
0.00773891
0.00773184
0.00772331
0.00771331
0.00770187
0.007689
0.00767471
0.00765902
0.00764195
0.0076235
0.00760369
0.00758254
0.00756007
0.0075363
0.00751123
0.00748489
0.0074573
0.00742847
0.00739843
0.00736718
0.00733476
0.00730118
0.00726645
0.0072306
0.00719365
0.00715562
0.00711652
0.00707638
0.00703521
0.00699303
0.00694987
0.00690574
0.00686067
0.00681466
0.00676775
0.00671995
0.00667127
0.00662175
0.00657139
0.00652021
0.00646824
0.00641549
0.00636198
0.00630773
0.00625275
0.00619707
0.00614069
0.00608365
0.00602594
0.0059676
0.00590863
0.00584906
0.0057889
0.00572816
0.00566686
0.00560501
0.00554264
0.00547975
0.00541636
0.00535248
0.00528813
0.00522332
0.00515807
0.00509239
0.00502628
0.00495977
0.00489286
0.00482558
0.00475792
0.0046899
0.00462154
0.00455284
0.00448382
0.00441448
0.00434484
0.00427491
0.00420469
0.00413421
0.00406345
0.00399245
0.00392119
0.0038497
0.00377799
0.00370605
0.00363391
0.00356156
0.00348901
0.00341628
0.00334337
0.00327028
0.00319703
0.00312362
0.00305006
0.00297635
0.0029025
0.00282851
0.0027544
0.00268016
0.00260581
0.00253135
0.00245678
0.00238211
0.00230734
0.00223248
0.00215753
0.0020825
0.00200739
0.00193221
0.00185695
0.00178163
0.00170624
0.0016308
0.0015553
0.00147974
0.00140414
0.00132849
0.0012528
0.00117706
0.00110129
0.00102548
0.000949647
0.00087378
0.000797886
0.000721968
0.000646029
0.00057007
0.000494095
0.000418104
0.000342102
0.00026609
0.00019007
0.000114044
3.8015e-05
6.36959e-05
0.000191085
0.000318466
0.000445835
0.000573186
0.000700513
0.000827812
0.000955076
0.0010823
0.00120948
0.00133661
0.00146368
0.00159068
0.00171761
0.00184447
0.00197124
0.00209791
0.00222448
0.00235095
0.00247729
0.00260351
0.00272958
0.00285551
0.00298128
0.00310688
0.0032323
0.00335753
0.00348255
0.00360734
0.00373191
0.00385623
0.00398028
0.00410405
0.00422753
0.0043507
0.00447354
0.00459603
0.00471815
0.00483989
0.00496122
0.00508213
0.00520258
0.00532257
0.00544206
0.00556103
0.00567946
0.00579733
0.0059146
0.00603126
0.00614727
0.00626261
0.00637725
0.00649116
0.00660431
0.00671668
0.00682823
0.00693892
0.00704874
0.00715765
0.00726561
0.0073726
0.00747858
0.00758352
0.00768738
0.00779013
0.00789174
0.00799217
0.00809139
0.00818937
0.00828606
0.00838144
0.00847547
0.00856811
0.00865934
0.00874911
0.0088374
0.00892417
0.00900939
0.00909302
0.00917503
0.0092554
0.00933408
0.00941105
0.00948628
0.00955973
0.00963139
0.00970121
0.00976918
0.00983527
0.00989945
0.00996169
0.010022
0.0100803
0.0101366
0.0101909
0.0102431
0.0102933
0.0103414
0.0103874
0.0104313
0.0104731
0.0105128
0.0105503
0.0105857
0.0106188
0.0106499
0.0106787
0.0107054
0.0107299
0.0107522
0.0107723
0.0107902
0.0108059
0.0108195
0.0108309
0.0108401
0.0108471
0.010852
0.0108547
0.0108553
0.0108538
0.0108501
0.0108444
0.0108366
0.0108266
0.0108147
0.0108007
0.0107846
0.0107666
0.0107466
0.0107246
0.0107006
0.0106748
0.010647
0.0106174
0.0105859
0.0105526
0.0105175
0.0104806
0.010442
0.0104016
0.0103595
0.0103157
0.0102703
0.0102232
0.0101746
0.0101244
0.0100726
0.0100194
0.00996459
0.00990836
0.0098507
0.00979163
0.00973117
0.00966937
0.00960623
0.0095418
0.0094761
0.00940915
0.00934098
0.00927161
0.00920108
0.00912941
0.00905663
0.00898275
0.00890781
0.00883183
0.00875484
0.00867686
0.00859791
0.00851802
0.00843721
0.00835551
0.00827294
0.00818951
0.00810526
0.0080202
0.00793436
0.00784776
0.00776042
0.00767235
0.00758358
0.00749414
0.00740403
0.00731328
0.00722191
0.00712993
0.00703736
0.00694423
0.00685054
0.00675632
0.00666159
0.00656635
0.00647063
0.00637443
0.00627779
0.0061807
0.00608319
0.00598527
0.00588696
0.00578826
0.00568919
0.00558977
0.00549
0.00538991
0.00528949
0.00518877
0.00508775
0.00498645
0.00488488
0.00478304
0.00468096
0.00457863
0.00447607
0.00437328
0.00427028
0.00416708
0.00406368
0.0039601
0.00385633
0.00375239
0.0036483
0.00354404
0.00343963
0.00333509
0.0032304
0.00312559
0.00302066
0.00291561
0.00281045
0.00270519
0.00259983
0.00249437
0.00238882
0.0022832
0.00217749
0.00207171
0.00196586
0.00185994
0.00175397
0.00164794
0.00154186
0.00143572
0.00132955
0.00122333
0.00111707
0.00101079
0.000904468
0.000798122
0.000691753
0.000585363
0.000478957
0.000372536
0.000266105
0.000159666
5.32225e-05
8.18991e-05
0.000245694
0.000409479
0.000573248
0.000736993
0.000900709
0.00106439
0.00122802
0.00139161
0.00155513
0.00171859
0.00188198
0.00204528
0.00220849
0.00237161
0.00253461
0.00269749
0.00286024
0.00302285
0.00318531
0.0033476
0.00350972
0.00367165
0.00383337
0.00399488
0.00415615
0.00431718
0.00447794
0.00463842
0.0047986
0.00495846
0.00511798
0.00527715
0.00543594
0.00559433
0.00575229
0.00590981
0.00606686
0.00622342
0.00637945
0.00653494
0.00668984
0.00684415
0.00699782
0.00715083
0.00730314
0.00745473
0.00760555
0.00775559
0.00790479
0.00805313
0.00820057
0.00834708
0.00849261
0.00863713
0.0087806
0.00892298
0.00906423
0.00920431
0.00934318
0.00948079
0.00961711
0.00975208
0.00988568
0.0100178
0.0101485
0.0102777
0.0104054
0.0105314
0.0106558
0.0107784
0.0108994
0.0110186
0.0111359
0.0112514
0.011365
0.0114766
0.0115862
0.0116938
0.0117993
0.0119027
0.0120039
0.0121029
0.0121997
0.0122942
0.0123864
0.0124762
0.0125636
0.0126486
0.0127312
0.0128112
0.0128888
0.0129638
0.0130362
0.0131061
0.0131733
0.0132378
0.0132997
0.0133589
0.0134154
0.0134691
0.0135201
0.0135684
0.0136138
0.0136565
0.0136964
0.0137335
0.0137678
0.0137993
0.013828
0.0138538
0.0138769
0.0138971
0.0139145
0.0139291
0.013941
0.01395
0.0139563
0.0139598
0.0139605
0.0139585
0.0139538
0.0139464
0.0139363
0.0139235
0.0139081
0.01389
0.0138694
0.0138462
0.0138204
0.0137921
0.0137613
0.013728
0.0136923
0.0136541
0.0136136
0.0135708
0.0135256
0.0134781
0.0134283
0.0133764
0.0133222
0.0132659
0.0132074
0.0131469
0.0130843
0.0130197
0.0129531
0.0128846
0.0128141
0.0127418
0.0126676
0.0125916
0.0125138
0.0124343
0.0123531
0.0122702
0.0121857
0.0120996
0.0120119
0.0119226
0.0118319
0.0117397
0.0116461
0.0115511
0.0114547
0.011357
0.0112579
0.0111576
0.0110561
0.0109533
0.0108494
0.0107443
0.0106381
0.0105308
0.0104224
0.010313
0.0102026
0.0100912
0.00997891
0.00986565
0.00975149
0.00963645
0.00952057
0.00940386
0.00928634
0.00916806
0.00904901
0.00892924
0.00880876
0.00868759
0.00856576
0.00844328
0.00832018
0.00819648
0.00807219
0.00794734
0.00782195
0.00769603
0.0075696
0.00744268
0.00731528
0.00718743
0.00705914
0.00693043
0.0068013
0.00667178
0.00654188
0.00641162
0.00628101
0.00615006
0.00601879
0.0058872
0.00575532
0.00562316
0.00549071
0.00535801
0.00522506
0.00509186
0.00495843
0.00482479
0.00469093
0.00455688
0.00442263
0.0042882
0.0041536
0.00401883
0.00388391
0.00374883
0.00361362
0.00347827
0.00334279
0.0032072
0.00307149
0.00293567
0.00279976
0.00266374
0.00252764
0.00239146
0.0022552
0.00211887
0.00198247
0.00184601
0.00170949
0.00157292
0.0014363
0.00129963
0.00116293
0.0010262
0.000889431
0.000752639
0.000615826
0.000478994
0.000342148
0.000205293
6.84316e-05
0.000100106
0.000300313
0.000500508
0.000700683
0.000900831
0.00110094
0.00130101
0.00150102
0.00170098
0.00190086
0.00210066
0.00230037
0.00249998
0.00269948
0.00289886
0.0030981
0.0032972
0.00349614
0.00369491
0.00389349
0.00409188
0.00429005
0.00448799
0.00468568
0.00488311
0.00508025
0.00527709
0.00547361
0.00566979
0.0058656
0.00606103
0.00625604
0.00645062
0.00664474
0.00683837
0.00703149
0.00722407
0.00741607
0.00760746
0.00779823
0.00798832
0.00817771
0.00836637
0.00855425
0.00874132
0.00892755
0.00911289
0.0092973
0.00948074
0.00966317
0.00984455
0.0100248
0.010204
0.0103819
0.0105586
0.0107341
0.0109082
0.0110809
0.0112522
0.011422
0.0115903
0.011757
0.011922
0.0120854
0.012247
0.0124069
0.0125648
0.0127209
0.012875
0.0130272
0.0131772
0.0133251
0.0134709
0.0136144
0.0137556
0.0138945
0.014031
0.0141651
0.0142967
0.0144257
0.0145521
0.0146759
0.014797
0.0149154
0.0150309
0.0151437
0.0152535
0.0153605
0.0154644
0.0155654
0.0156633
0.0157582
0.0158499
0.0159385
0.0160239
0.0161061
0.016185
0.0162607
0.0163331
0.0164021
0.0164679
0.0165302
0.0165892
0.0166448
0.016697
0.0167458
0.0167911
0.0168331
0.0168715
0.0169066
0.0169382
0.0169663
0.016991
0.0170123
0.0170302
0.0170446
0.0170557
0.0170633
0.0170675
0.0170684
0.0170659
0.0170601
0.017051
0.0170387
0.017023
0.0170041
0.016982
0.0169567
0.0169283
0.0168967
0.0168621
0.0168244
0.0167836
0.0167399
0.0166933
0.0166437
0.0165912
0.0165359
0.0164778
0.0164169
0.0163534
0.0162871
0.0162182
0.0161467
0.0160726
0.0159961
0.015917
0.0158356
0.0157517
0.0156655
0.0155771
0.0154863
0.0153934
0.0152982
0.015201
0.0151016
0.0150003
0.0148969
0.0147916
0.0146843
0.0145752
0.0144642
0.0143515
0.014237
0.0141208
0.0140029
0.0138834
0.0137623
0.0136396
0.0135154
0.0133898
0.0132627
0.0131342
0.0130043
0.0128731
0.0127406
0.0126069
0.0124719
0.0123357
0.0121983
0.0120599
0.0119203
0.0117796
0.0116379
0.0114952
0.0113516
0.0112069
0.0110614
0.010915
0.0107677
0.0106195
0.0104706
0.0103208
0.0101703
0.0100191
0.00986716
0.00971453
0.00956123
0.00940729
0.00925273
0.00909757
0.00894183
0.00878554
0.0086287
0.00847135
0.0083135
0.00815517
0.00799638
0.00783714
0.00767748
0.0075174
0.00735693
0.00719608
0.00703487
0.0068733
0.00671141
0.00654919
0.00638667
0.00622385
0.00606076
0.00589739
0.00573377
0.00556991
0.00540581
0.00524149
0.00507696
0.00491222
0.0047473
0.0045822
0.00441692
0.00425148
0.00408588
0.00392014
0.00375426
0.00358825
0.00342212
0.00325587
0.00308951
0.00292306
0.0027565
0.00258986
0.00242314
0.00225635
0.00208948
0.00192255
0.00175556
0.00158852
0.00142143
0.0012543
0.00108714
0.000919937
0.000752712
0.000585465
0.000418201
0.000250926
8.36427e-05
0.000118316
0.000354944
0.000591557
0.000828147
0.0010647
0.00130122
0.00153768
0.00177408
0.00201041
0.00224666
0.00248281
0.00271886
0.00295478
0.00319058
0.00342624
0.00366174
0.00389707
0.00413221
0.00436715
0.00460188
0.00483637
0.00507061
0.00530457
0.00553825
0.00577162
0.00600465
0.00623733
0.00646963
0.00670153
0.006933
0.00716401
0.00739454
0.00762456
0.00785404
0.00808294
0.00831124
0.00853889
0.00876588
0.00899215
0.00921767
0.00944241
0.00966632
0.00988936
0.0101115
0.0103327
0.0105528
0.010772
0.01099
0.0112069
0.0114226
0.0116371
0.0118502
0.0120621
0.0122725
0.0124814
0.0126889
0.0128948
0.013099
0.0133016
0.0135024
0.0137014
0.0138985
0.0140937
0.0142869
0.014478
0.014667
0.0148539
0.0150385
0.0152207
0.0154006
0.0155781
0.015753
0.0159254
0.0160951
0.0162622
0.0164264
0.0165879
0.0167465
0.0169021
0.0170547
0.0172042
0.0173506
0.0174939
0.0176338
0.0177705
0.0179039
0.0180338
0.0181603
0.0182832
0.0184027
0.0185185
0.0186307
0.0187391
0.0188439
0.0189449
0.0190421
0.0191355
0.019225
0.0193106
0.0193922
0.0194699
0.0195437
0.0196134
0.0196792
0.0197409
0.0197986
0.0198522
0.0199017
0.0199472
0.0199886
0.020026
0.0200592
0.0200884
0.0201136
0.0201347
0.0201517
0.0201647
0.0201737
0.0201787
0.0201797
0.0201767
0.0201698
0.020159
0.0201443
0.0201257
0.0201033
0.0200772
0.0200472
0.0200135
0.0199762
0.0199351
0.0198905
0.0198423
0.0197905
0.0197353
0.0196766
0.0196145
0.0195491
0.0194803
0.0194083
0.019333
0.0192546
0.0191731
0.0190885
0.0190009
0.0189103
0.0188168
0.0187204
0.0186212
0.0185193
0.0184146
0.0183072
0.0181973
0.0180848
0.0179697
0.0178522
0.0177323
0.01761
0.0174855
0.0173586
0.0172295
0.0170983
0.016965
0.0168296
0.0166921
0.0165527
0.0164114
0.0162682
0.0161231
0.0159763
0.0158277
0.0156774
0.0155255
0.0153719
0.0152168
0.0150601
0.0149019
0.0147423
0.0145813
0.0144189
0.0142552
0.0140901
0.0139238
0.0137563
0.0135876
0.0134177
0.0132467
0.0130747
0.0129015
0.0127274
0.0125523
0.0123762
0.0121992
0.0120212
0.0118425
0.0116628
0.0114824
0.0113012
0.0111192
0.0109365
0.010753
0.0105689
0.0103842
0.0101988
0.0100128
0.00982619
0.00963903
0.00945132
0.00926309
0.00907435
0.00888514
0.00869545
0.00850532
0.00831476
0.00812379
0.00793242
0.00774068
0.00754858
0.00735613
0.00716335
0.00697025
0.00677685
0.00658317
0.00638921
0.00619499
0.00600052
0.00580581
0.00561088
0.00541573
0.00522038
0.00502484
0.00482911
0.00463322
0.00443716
0.00424095
0.00404459
0.0038481
0.00365148
0.00345474
0.0032579
0.00306094
0.00286389
0.00266676
0.00246954
0.00227224
0.00207488
0.00187746
0.00167997
0.00148245
0.00128487
0.00108726
0.000889621
0.000691953
0.000494267
0.000296566
9.88561e-05
0.000136531
0.000409588
0.000682629
0.000955644
0.00122862
0.00150155
0.00177442
0.00204722
0.00231994
0.00259256
0.00286507
0.00313746
0.00340972
0.00368183
0.00395378
0.00422555
0.00449712
0.00476848
0.00503961
0.0053105
0.00558111
0.00585144
0.00612145
0.00639114
0.00666046
0.00692941
0.00719795
0.00746605
0.0077337
0.00800085
0.00826748
0.00853355
0.00879904
0.00906391
0.00932811
0.00959162
0.0098544
0.0101164
0.0103776
0.0106379
0.0108973
0.0111558
0.0114133
0.0116697
0.011925
0.0121792
0.0124322
0.0126839
0.0129343
0.0131833
0.0134309
0.013677
0.0139215
0.0141645
0.0144057
0.0146453
0.014883
0.0151188
0.0153527
0.0155845
0.0158143
0.0160419
0.0162673
0.0164904
0.0167111
0.0169294
0.0171451
0.0173583
0.0175688
0.0177765
0.0179815
0.0181835
0.0183826
0.0185786
0.0187715
0.0189612
0.0191477
0.0193308
0.0195105
0.0196868
0.0198595
0.0200285
0.020194
0.0203556
0.0205135
0.0206675
0.0208175
0.0209636
0.0211056
0.0212435
0.0213773
0.0215068
0.0216321
0.0217531
0.0218697
0.021982
0.0220898
0.0221931
0.022292
0.0223863
0.022476
0.0225612
0.0226417
0.0227176
0.0227888
0.0228554
0.0229173
0.0229745
0.023027
0.0230748
0.0231179
0.0231562
0.0231899
0.0232189
0.0232432
0.0232628
0.0232778
0.0232881
0.0232938
0.0232949
0.0232914
0.0232834
0.0232708
0.0232538
0.0232323
0.0232064
0.0231761
0.0231414
0.0231025
0.0230593
0.0230118
0.0229602
0.0229044
0.0228446
0.0227808
0.0227129
0.0226412
0.0225655
0.0224861
0.0224028
0.0223159
0.0222253
0.0221311
0.0220333
0.0219321
0.0218274
0.0217194
0.0216081
0.0214935
0.0213757
0.0212548
0.0211308
0.0210038
0.0208738
0.0207409
0.0206052
0.0204667
0.0203255
0.0201816
0.0200351
0.0198861
0.0197345
0.0195806
0.0194242
0.0192655
0.0191045
0.0189413
0.0187759
0.0186085
0.0184389
0.0182673
0.0180938
0.0179184
0.0177411
0.017562
0.0173811
0.0171985
0.0170142
0.0168283
0.0166408
0.0164518
0.0162612
0.0160693
0.0158759
0.0156811
0.015485
0.0152876
0.015089
0.0148892
0.0146881
0.014486
0.0142827
0.0140784
0.013873
0.0136666
0.0134593
0.013251
0.0130418
0.0128318
0.0126209
0.0124092
0.0121967
0.0119835
0.0117695
0.0115548
0.0113394
0.0111234
0.0109068
0.0106895
0.0104717
0.0102533
0.0100344
0.00981499
0.00959506
0.00937467
0.00915382
0.00893253
0.00871083
0.00848873
0.00826625
0.00804341
0.00782022
0.00759671
0.00737287
0.00714873
0.00692431
0.00669962
0.00647467
0.00624947
0.00602404
0.00579838
0.00557252
0.00534646
0.00512021
0.00489379
0.0046672
0.00444046
0.00421357
0.00398654
0.00375939
0.00353212
0.00330473
0.00307725
0.00284967
0.002622
0.00239426
0.00216644
0.00193857
0.00171063
0.00148265
0.00125462
0.00102655
0.000798462
0.000570346
0.000342214
0.000114072
0.000154752
0.000464249
0.000773728
0.00108318
0.00139259
0.00170194
0.00201123
0.00232044
0.00262955
0.00293856
0.00324745
0.00355621
0.00386481
0.00417325
0.0044815
0.00478955
0.00509739
0.00540499
0.00571232
0.00601938
0.00632614
0.00663258
0.00693867
0.00724438
0.00754969
0.00785457
0.008159
0.00846294
0.00876636
0.00906922
0.0093715
0.00967315
0.00997414
0.0102744
0.010574
0.0108727
0.0111707
0.0114677
0.0117639
0.0120591
0.0123532
0.0126463
0.0129382
0.013229
0.0135185
0.0138067
0.0140936
0.014379
0.014663
0.0149454
0.0152262
0.0155053
0.0157827
0.0160582
0.0163318
0.0166034
0.016873
0.0171405
0.0174058
0.0176688
0.0179294
0.0181876
0.0184433
0.0186963
0.0189467
0.0191943
0.019439
0.0196808
0.0199196
0.0201553
0.0203877
0.0206169
0.0208428
0.0210651
0.021284
0.0214992
0.0217108
0.0219185
0.0221224
0.0223224
0.0225183
0.0227101
0.0228978
0.0230812
0.0232603
0.023435
0.0236053
0.023771
0.0239321
0.0240886
0.0242403
0.0243873
0.0245294
0.0246667
0.024799
0.0249263
0.0250486
0.0251658
0.0252779
0.0253849
0.0254867
0.0255832
0.0256746
0.0257607
0.0258414
0.0259169
0.0259871
0.0260519
0.0261114
0.0261656
0.0262144
0.0262579
0.0262961
0.0263289
0.0263564
0.0263786
0.0263955
0.0264071
0.0264135
0.0264147
0.0264107
0.0264015
0.0263872
0.0263678
0.0263433
0.0263138
0.0262794
0.02624
0.0261957
0.0261466
0.0260927
0.026034
0.0259707
0.0259028
0.0258302
0.0257532
0.0256717
0.0255858
0.0254956
0.0254011
0.0253024
0.0251995
0.0250926
0.0249816
0.0248667
0.024748
0.0246253
0.024499
0.0243689
0.0242353
0.024098
0.0239573
0.0238132
0.0236657
0.023515
0.023361
0.0232039
0.0230436
0.0228804
0.0227142
0.0225451
0.0223732
0.0221985
0.0220211
0.0218411
0.0216585
0.0214734
0.0212858
0.0210958
0.0209035
0.0207089
0.0205121
0.0203131
0.020112
0.0199089
0.0197038
0.0194967
0.0192877
0.0190768
0.0188642
0.0186499
0.0184338
0.0182161
0.0179968
0.0177759
0.0175536
0.0173298
0.0171045
0.0168779
0.01665
0.0164208
0.0161903
0.0159586
0.0157258
0.0154918
0.0152567
0.0150206
0.0147834
0.0145453
0.0143062
0.0140661
0.0138252
0.0135835
0.0133409
0.0130975
0.0128533
0.0126085
0.0123629
0.0121166
0.0118696
0.0116221
0.0113739
0.0111251
0.0108758
0.010626
0.0103756
0.0101248
0.00987348
0.00962172
0.00936952
0.00911692
0.00886393
0.00861056
0.00835683
0.00810277
0.00784838
0.00759369
0.0073387
0.00708344
0.00682791
0.00657214
0.00631612
0.00605989
0.00580345
0.0055468
0.00528997
0.00503297
0.0047758
0.00451847
0.004261
0.0040034
0.00374567
0.00348783
0.00322989
0.00297184
0.00271371
0.0024555
0.00219721
0.00193887
0.00168046
0.00142201
0.00116352
0.000904992
0.000646441
0.000387872
0.000129292
0.000172978
0.000518927
0.000864857
0.00121075
0.00155661
0.0019024
0.00224812
0.00259375
0.00293928
0.00328469
0.00362997
0.0039751
0.00432006
0.00466484
0.00500942
0.00535378
0.0056979
0.00604175
0.00638532
0.00672858
0.0070715
0.00741407
0.00775625
0.00809802
0.00843935
0.0087802
0.00912054
0.00946035
0.00979957
0.0101382
0.0104761
0.0108134
0.01115
0.0114857
0.0118206
0.0121547
0.0124878
0.01282
0.0131512
0.0134812
0.0138101
0.0141379
0.0144644
0.0147895
0.0151133
0.0154356
0.0157565
0.0160757
0.0163933
0.0167092
0.0170232
0.0173354
0.0176456
0.0179538
0.0182598
0.0185637
0.0188653
0.0191645
0.0194612
0.0197554
0.020047
0.0203358
0.0206218
0.0209049
0.021185
0.021462
0.0217358
0.0220064
0.0222735
0.0225372
0.0227973
0.0230537
0.0233064
0.0235552
0.0238001
0.0240409
0.0242776
0.0245101
0.0247383
0.024962
0.0251812
0.0253959
0.0256059
0.0258111
0.0260115
0.026207
0.0263975
0.0265829
0.0267632
0.0269383
0.0271081
0.0272725
0.0274316
0.0275851
0.0277332
0.0278756
0.0280125
0.0281436
0.028269
0.0283887
0.0285026
0.0286106
0.0287127
0.028809
0.0288994
0.0289838
0.0290622
0.0291347
0.0292013
0.0292618
0.0293164
0.029365
0.0294076
0.0294442
0.0294749
0.0294997
0.0295185
0.0295314
0.0295385
0.0295397
0.0295351
0.0295247
0.0295086
0.0294868
0.0294593
0.0294262
0.0293876
0.0293434
0.0292937
0.0292387
0.0291783
0.0291125
0.0290416
0.0289655
0.0288842
0.0287979
0.0287066
0.0286104
0.0285094
0.0284036
0.028293
0.0281779
0.0280581
0.0279339
0.0278053
0.0276723
0.027535
0.0273936
0.027248
0.0270984
0.0269448
0.0267873
0.026626
0.026461
0.0262923
0.0261199
0.0259441
0.0257648
0.0255821
0.0253962
0.025207
0.0250146
0.0248192
0.0246207
0.0244193
0.024215
0.0240079
0.0237981
0.0235855
0.0233704
0.0231527
0.0229326
0.02271
0.0224851
0.0222578
0.0220284
0.0217968
0.021563
0.0213272
0.0210894
0.0208496
0.020608
0.0203645
0.0201193
0.0198723
0.0196236
0.0193733
0.0191215
0.0188681
0.0186132
0.0183568
0.0180991
0.01784
0.0175797
0.017318
0.0170552
0.0167911
0.016526
0.0162597
0.0159923
0.015724
0.0154546
0.0151843
0.0149131
0.014641
0.014368
0.0140942
0.0138196
0.0135443
0.0132682
0.0129914
0.012714
0.0124359
0.0121572
0.0118778
0.011598
0.0113175
0.0110366
0.0107551
0.0104732
0.0101908
0.009908
0.00962477
0.00934113
0.00905713
0.00877276
0.00848805
0.00820301
0.00791767
0.00763204
0.00734613
0.00705995
0.00677353
0.00648687
0.0062
0.00591291
0.00562564
0.00533817
0.00505054
0.00476275
0.00447481
0.00418673
0.00389853
0.0036102
0.00332177
0.00303324
0.00274462
0.00245593
0.00216716
0.00187833
0.00158944
0.00130051
0.00101155
0.000722555
0.000433541
0.000144515
0.000191211
0.000573626
0.000956019
0.00133838
0.00172068
0.00210293
0.00248509
0.00286716
0.00324912
0.00363095
0.00401263
0.00439416
0.0047755
0.00515664
0.00553757
0.00591825
0.00629867
0.0066788
0.00705862
0.0074381
0.00781722
0.00819595
0.00857426
0.00895211
0.00932948
0.00970633
0.0100826
0.0104583
0.0108334
0.0112078
0.0115815
0.0119544
0.0123265
0.0126978
0.0130682
0.0134376
0.013806
0.0141733
0.0145395
0.0149045
0.0152683
0.0156307
0.0159918
0.0163514
0.0167096
0.0170661
0.0174209
0.017774
0.0181253
0.0184747
0.0188221
0.0191674
0.0195106
0.0198515
0.0201901
0.0205262
0.0208599
0.0211909
0.0215192
0.0218447
0.0221672
0.0224868
0.0228033
0.0231165
0.0234265
0.023733
0.0240359
0.0243353
0.0246309
0.0249227
0.0252105
0.0254943
0.0257739
0.0260493
0.0263203
0.0265868
0.0268487
0.027106
0.0273585
0.0276061
0.0278488
0.0280863
0.0283187
0.0285459
0.0287677
0.028984
0.0291948
0.0294001
0.0295996
0.0297933
0.0299812
0.0301632
0.0303392
0.0305092
0.030673
0.0308306
0.030982
0.0311271
0.0312659
0.0313983
0.0315243
0.0316438
0.0317568
0.0318633
0.0319632
0.0320566
0.0321433
0.0322235
0.0322971
0.032364
0.0324243
0.032478
0.032525
0.0325655
0.0325994
0.0326266
0.0326474
0.0326616
0.0326693
0.0326705
0.0326653
0.0326537
0.0326358
0.0326115
0.032581
0.0325442
0.0325013
0.0324523
0.0323972
0.0323361
0.0322692
0.0321963
0.0321177
0.0320333
0.0319432
0.0318476
0.0317465
0.0316399
0.031528
0.0314108
0.0312883
0.0311608
0.0310282
0.0308906
0.0307481
0.0306009
0.0304489
0.0302923
0.0301311
0.0299655
0.0297955
0.0296211
0.0294426
0.0292599
0.0290731
0.0288824
0.0286878
0.0284893
0.0282872
0.0280814
0.027872
0.0276591
0.0274429
0.0272232
0.0270004
0.0267743
0.0265452
0.026313
0.0260779
0.0258399
0.025599
0.0253555
0.0251092
0.0248604
0.024609
0.0243552
0.024099
0.0238404
0.0235796
0.0233165
0.0230513
0.0227841
0.0225148
0.0222435
0.0219703
0.0216953
0.0214185
0.0211399
0.0208597
0.0205778
0.0202943
0.0200093
0.0197228
0.0194348
0.0191455
0.0188548
0.0185628
0.0182696
0.0179752
0.0176795
0.0173828
0.0170849
0.0167861