/*--------------------------------*- C++ -*----------------------------------*\
| =========                 |                                                 |
| \\      /  F ield         | OpenFOAM: The Open Source CFD Toolbox           |
|  \\    /   O peration     | Version:  v2012                                 |
|   \\  /    A nd           | Website:  www.openfoam.com                      |
|    \\/     M anipulation  |                                                 |
\*---------------------------------------------------------------------------*/
FoamFile
{
    version     2.0;
    format      ascii;
    class       volVectorField;
    location    "5.2";
    object      U;
}
// * * * * * * * * * * * * * * * * * * * * * * * * * * * * * * * * * * * * * //

dimensions      [0 1 -1 0 0 0 0];


internalField   nonuniform List<vector> 
65536
(
(0.000740533 -0.00074052 0)
(0.00222157 -0.000740487 0)
(0.00370251 -0.000740425 0)
(0.0051833 -0.000740333 0)
(0.00666387 -0.000740208 0)
(0.00814416 -0.000740052 0)
(0.00962411 -0.000739863 0)
(0.0111036 -0.000739641 0)
(0.0125827 -0.000739383 0)
(0.0140612 -0.000739091 0)
(0.0155391 -0.000738761 0)
(0.0170163 -0.000738393 0)
(0.0184927 -0.000737985 0)
(0.0199683 -0.000737536 0)
(0.0214429 -0.000737045 0)
(0.0229165 -0.000736508 0)
(0.024389 -0.000735924 0)
(0.0258602 -0.000735291 0)
(0.0273302 -0.000734607 0)
(0.0287987 -0.00073387 0)
(0.0302657 -0.000733076 0)
(0.0317311 -0.000732224 0)
(0.0331947 -0.000731311 0)
(0.0346564 -0.000730333 0)
(0.0361161 -0.000729289 0)
(0.0375736 -0.000728175 0)
(0.0390288 -0.000726987 0)
(0.0404816 -0.000725724 0)
(0.0419318 -0.000724381 0)
(0.0433792 -0.000722955 0)
(0.0448237 -0.000721444 0)
(0.0462651 -0.000719842 0)
(0.0477032 -0.000718148 0)
(0.0491378 -0.000716356 0)
(0.0505687 -0.000714464 0)
(0.0519957 -0.000712468 0)
(0.0534187 -0.000710364 0)
(0.0548373 -0.000708149 0)
(0.0562514 -0.000705818 0)
(0.0576607 -0.000703368 0)
(0.059065 -0.000700794 0)
(0.060464 -0.000698094 0)
(0.0618575 -0.000695262 0)
(0.0632452 -0.000692296 0)
(0.0646268 -0.000689192 0)
(0.0660021 -0.000685945 0)
(0.0673707 -0.000682553 0)
(0.0687324 -0.000679011 0)
(0.0700869 -0.000675315 0)
(0.0714338 -0.000671463 0)
(0.0727729 -0.000667451 0)
(0.0741038 -0.000663275 0)
(0.0754262 -0.000658931 0)
(0.0767397 -0.000654418 0)
(0.078044 -0.000649732 0)
(0.0793388 -0.000644869 0)
(0.0806237 -0.000639828 0)
(0.0818983 -0.000634605 0)
(0.0831623 -0.000629197 0)
(0.0844153 -0.000623604 0)
(0.0856569 -0.000617822 0)
(0.0868867 -0.000611849 0)
(0.0881045 -0.000605684 0)
(0.0893097 -0.000599326 0)
(0.090502 -0.000592772 0)
(0.0916809 -0.000586022 0)
(0.0928462 -0.000579075 0)
(0.0939974 -0.00057193 0)
(0.0951342 -0.000564586 0)
(0.096256 -0.000557045 0)
(0.0973625 -0.000549305 0)
(0.0984534 -0.000541367 0)
(0.0995282 -0.000533233 0)
(0.100587 -0.000524901 0)
(0.101628 -0.000516375 0)
(0.102652 -0.000507655 0)
(0.103659 -0.000498743 0)
(0.104647 -0.000489641 0)
(0.105618 -0.000480352 0)
(0.106569 -0.000470878 0)
(0.107501 -0.000461221 0)
(0.108414 -0.000451386 0)
(0.109307 -0.000441375 0)
(0.11018 -0.000431192 0)
(0.111032 -0.000420842 0)
(0.111863 -0.000410328 0)
(0.112673 -0.000399654 0)
(0.113462 -0.000388827 0)
(0.114229 -0.00037785 0)
(0.114974 -0.000366728 0)
(0.115696 -0.000355469 0)
(0.116396 -0.000344076 0)
(0.117072 -0.000332556 0)
(0.117726 -0.000320914 0)
(0.118356 -0.000309158 0)
(0.118963 -0.000297294 0)
(0.119545 -0.000285327 0)
(0.120104 -0.000273266 0)
(0.120639 -0.000261116 0)
(0.121149 -0.000248885 0)
(0.121634 -0.000236579 0)
(0.122095 -0.000224207 0)
(0.122531 -0.000211774 0)
(0.122942 -0.000199289 0)
(0.123328 -0.000186759 0)
(0.123689 -0.00017419 0)
(0.124025 -0.000161592 0)
(0.124336 -0.00014897 0)
(0.124621 -0.000136332 0)
(0.124881 -0.000123686 0)
(0.125116 -0.000111038 0)
(0.125325 -9.83966e-05 0)
(0.125509 -8.57683e-05 0)
(0.125668 -7.31602e-05 0)
(0.125802 -6.05793e-05 0)
(0.12591 -4.80325e-05 0)
(0.125994 -3.55264e-05 0)
(0.126052 -2.30678e-05 0)
(0.126086 -1.06629e-05 0)
(0.126095 1.68173e-06 0)
(0.126079 1.39601e-05 0)
(0.126039 2.61662e-05 0)
(0.125975 3.82943e-05 0)
(0.125886 5.03386e-05 0)
(0.125773 6.22939e-05 0)
(0.125637 7.41549e-05 0)
(0.125476 8.59166e-05 0)
(0.125293 9.75742e-05 0)
(0.125086 0.000109123 0)
(0.124856 0.000120559 0)
(0.124604 0.000131877 0)
(0.124329 0.000143075 0)
(0.124031 0.000154147 0)
(0.123712 0.000165091 0)
(0.123371 0.000175903 0)
(0.123008 0.000186581 0)
(0.122624 0.000197121 0)
(0.12222 0.000207521 0)
(0.121794 0.000217778 0)
(0.121348 0.00022789 0)
(0.120882 0.000237855 0)
(0.120397 0.000247671 0)
(0.119892 0.000257338 0)
(0.119367 0.000266852 0)
(0.118824 0.000276214 0)
(0.118262 0.000285422 0)
(0.117682 0.000294475 0)
(0.117084 0.000303372 0)
(0.116469 0.000312114 0)
(0.115836 0.000320699 0)
(0.115186 0.000329128 0)
(0.114519 0.0003374 0)
(0.113836 0.000345515 0)
(0.113137 0.000353475 0)
(0.112422 0.000361279 0)
(0.111691 0.000368927 0)
(0.110946 0.000376421 0)
(0.110186 0.00038376 0)
(0.109411 0.000390947 0)
(0.108622 0.000397981 0)
(0.107819 0.000404864 0)
(0.107002 0.000411597 0)
(0.106172 0.000418182 0)
(0.105329 0.000424618 0)
(0.104474 0.000430909 0)
(0.103605 0.000437055 0)
(0.102725 0.000443057 0)
(0.101833 0.000448918 0)
(0.100929 0.000454639 0)
(0.100014 0.000460221 0)
(0.0990883 0.000465667 0)
(0.0981516 0.000470977 0)
(0.0972043 0.000476154 0)
(0.0962468 0.0004812 0)
(0.0952794 0.000486117 0)
(0.0943022 0.000490905 0)
(0.0933156 0.000495568 0)
(0.0923198 0.000500107 0)
(0.0913151 0.000504524 0)
(0.0903016 0.00050882 0)
(0.0892797 0.000512999 0)
(0.0882495 0.000517062 0)
(0.0872113 0.00052101 0)
(0.0861653 0.000524846 0)
(0.0851118 0.000528572 0)
(0.084051 0.00053219 0)
(0.082983 0.000535701 0)
(0.081908 0.000539108 0)
(0.0808264 0.000542413 0)
(0.0797383 0.000545618 0)
(0.0786439 0.000548724 0)
(0.0775433 0.000551733 0)
(0.0764368 0.000554649 0)
(0.0753246 0.000557471 0)
(0.0742069 0.000560204 0)
(0.0730837 0.000562847 0)
(0.0719554 0.000565404 0)
(0.070822 0.000567876 0)
(0.0696838 0.000570265 0)
(0.0685409 0.000572573 0)
(0.0673934 0.000574802 0)
(0.0662416 0.000576953 0)
(0.0650855 0.000579029 0)
(0.0639254 0.000581031 0)
(0.0627614 0.000582961 0)
(0.0615935 0.00058482 0)
(0.060422 0.000586612 0)
(0.059247 0.000588336 0)
(0.0580686 0.000589996 0)
(0.0568869 0.000591592 0)
(0.0557022 0.000593127 0)
(0.0545144 0.000594602 0)
(0.0533237 0.000596018 0)
(0.0521302 0.000597378 0)
(0.0509341 0.000598682 0)
(0.0497355 0.000599933 0)
(0.0485343 0.000601132 0)
(0.0473309 0.00060228 0)
(0.0461252 0.000603379 0)
(0.0449173 0.00060443 0)
(0.0437074 0.000605436 0)
(0.0424955 0.000606396 0)
(0.0412818 0.000607313 0)
(0.0400662 0.000608187 0)
(0.038849 0.000609021 0)
(0.0376301 0.000609815 0)
(0.0364097 0.000610571 0)
(0.0351878 0.00061129 0)
(0.0339645 0.000611972 0)
(0.0327399 0.00061262 0)
(0.031514 0.000613235 0)
(0.0302869 0.000613816 0)
(0.0290587 0.000614366 0)
(0.0278294 0.000614885 0)
(0.0265991 0.000615375 0)
(0.0253679 0.000615836 0)
(0.0241357 0.000616269 0)
(0.0229028 0.000616675 0)
(0.021669 0.000617055 0)
(0.0204345 0.00061741 0)
(0.0191993 0.00061774 0)
(0.0179635 0.000618045 0)
(0.0167271 0.000618328 0)
(0.0154902 0.000618588 0)
(0.0142528 0.000618825 0)
(0.0130149 0.000619041 0)
(0.0117766 0.000619236 0)
(0.0105379 0.00061941 0)
(0.00929892 0.000619564 0)
(0.00805963 0.000619697 0)
(0.00682011 0.000619811 0)
(0.00558037 0.000619906 0)
(0.00434046 0.000619981 0)
(0.00310042 0.000620038 0)
(0.00186029 0.000620075 0)
(0.000620103 0.000620094 0)
(0.000740562 -0.00222158 0)
(0.00222166 -0.00222149 0)
(0.00370266 -0.0022213 0)
(0.00518351 -0.00222103 0)
(0.00666414 -0.00222065 0)
(0.00814449 -0.00222019 0)
(0.0096245 -0.00221962 0)
(0.0111041 -0.00221895 0)
(0.0125832 -0.00221818 0)
(0.0140618 -0.0022173 0)
(0.0155398 -0.00221632 0)
(0.017017 -0.00221521 0)
(0.0184935 -0.00221399 0)
(0.0199692 -0.00221265 0)
(0.0214439 -0.00221117 0)
(0.0229176 -0.00220957 0)
(0.0243901 -0.00220782 0)
(0.0258615 -0.00220592 0)
(0.0273316 -0.00220387 0)
(0.0288002 -0.00220166 0)
(0.0302673 -0.00219928 0)
(0.0317328 -0.00219673 0)
(0.0331965 -0.00219399 0)
(0.0346583 -0.00219106 0)
(0.0361182 -0.00218793 0)
(0.0375758 -0.00218459 0)
(0.0390312 -0.00218103 0)
(0.0404842 -0.00217725 0)
(0.0419345 -0.00217322 0)
(0.0433821 -0.00216895 0)
(0.0448268 -0.00216442 0)
(0.0462683 -0.00215962 0)
(0.0477066 -0.00215454 0)
(0.0491414 -0.00214917 0)
(0.0505725 -0.00214349 0)
(0.0519998 -0.00213751 0)
(0.0534229 -0.0021312 0)
(0.0548418 -0.00212456 0)
(0.0562561 -0.00211757 0)
(0.0576656 -0.00211022 0)
(0.0590702 -0.00210251 0)
(0.0604694 -0.00209441 0)
(0.0618632 -0.00208592 0)
(0.0632512 -0.00207702 0)
(0.0646331 -0.00206772 0)
(0.0660086 -0.00205798 0)
(0.0673776 -0.00204781 0)
(0.0687396 -0.00203718 0)
(0.0700944 -0.0020261 0)
(0.0714416 -0.00201455 0)
(0.072781 -0.00200251 0)
(0.0741122 -0.00198999 0)
(0.0754349 -0.00197696 0)
(0.0767488 -0.00196343 0)
(0.0780535 -0.00194937 0)
(0.0793486 -0.00193478 0)
(0.0806338 -0.00191966 0)
(0.0819088 -0.001904 0)
(0.0831732 -0.00188778 0)
(0.0844265 -0.001871 0)
(0.0856685 -0.00185365 0)
(0.0868988 -0.00183574 0)
(0.0881169 -0.00181724 0)
(0.0893225 -0.00179817 0)
(0.0905152 -0.00177851 0)
(0.0916945 -0.00175826 0)
(0.0928602 -0.00173742 0)
(0.0940118 -0.00171599 0)
(0.0951489 -0.00169396 0)
(0.0962712 -0.00167133 0)
(0.0973781 -0.00164811 0)
(0.0984694 -0.0016243 0)
(0.0995446 -0.00159989 0)
(0.100603 -0.0015749 0)
(0.101645 -0.00154932 0)
(0.10267 -0.00152316 0)
(0.103677 -0.00149642 0)
(0.104666 -0.00146911 0)
(0.105636 -0.00144124 0)
(0.106588 -0.00141281 0)
(0.107521 -0.00138384 0)
(0.108434 -0.00135433 0)
(0.109327 -0.0013243 0)
(0.1102 -0.00129374 0)
(0.111053 -0.00126269 0)
(0.111884 -0.00123114 0)
(0.112695 -0.00119912 0)
(0.113484 -0.00116663 0)
(0.114251 -0.00113369 0)
(0.114996 -0.00110032 0)
(0.115718 -0.00106654 0)
(0.116418 -0.00103235 0)
(0.117095 -0.000997788 0)
(0.117749 -0.000962858 0)
(0.11838 -0.000927584 0)
(0.118986 -0.000891984 0)
(0.119569 -0.000856078 0)
(0.120128 -0.000819887 0)
(0.120663 -0.00078343 0)
(0.121173 -0.00074673 0)
(0.121659 -0.000709806 0)
(0.12212 -0.000672681 0)
(0.122556 -0.000635376 0)
(0.122967 -0.000597914 0)
(0.123353 -0.000560316 0)
(0.123714 -0.000522603 0)
(0.12405 -0.0004848 0)
(0.124361 -0.000446926 0)
(0.124646 -0.000409006 0)
(0.124906 -0.00037106 0)
(0.125141 -0.00033311 0)
(0.12535 -0.000295179 0)
(0.125534 -0.000257287 0)
(0.125693 -0.000219455 0)
(0.125827 -0.000181706 0)
(0.125935 -0.000144059 0)
(0.126019 -0.000106534 0)
(0.126077 -6.91517e-05 0)
(0.126111 -3.1931e-05 0)
(0.12612 5.10914e-06 0)
(0.126104 4.19502e-05 0)
(0.126063 7.85742e-05 0)
(0.125999 0.000114964 0)
(0.12591 0.000151102 0)
(0.125797 0.000186974 0)
(0.12566 0.000222561 0)
(0.1255 0.000257851 0)
(0.125316 0.000292829 0)
(0.125109 0.00032748 0)
(0.124879 0.000361791 0)
(0.124626 0.000395751 0)
(0.124351 0.000429346 0)
(0.124053 0.000462567 0)
(0.123734 0.000495402 0)
(0.123392 0.000527842 0)
(0.123029 0.000559878 0)
(0.122645 0.0005915 0)
(0.12224 0.000622701 0)
(0.121814 0.000653474 0)
(0.121368 0.000683813 0)
(0.120902 0.00071371 0)
(0.120416 0.000743161 0)
(0.119911 0.000772162 0)
(0.119386 0.000800707 0)
(0.118843 0.000828793 0)
(0.11828 0.000856417 0)
(0.1177 0.000883576 0)
(0.117102 0.000910269 0)
(0.116486 0.000936494 0)
(0.115853 0.00096225 0)
(0.115202 0.000987536 0)
(0.114535 0.00101235 0)
(0.113852 0.0010367 0)
(0.113152 0.00106058 0)
(0.112437 0.00108399 0)
(0.111707 0.00110693 0)
(0.110961 0.00112941 0)
(0.1102 0.00115143 0)
(0.109425 0.00117299 0)
(0.108636 0.00119409 0)
(0.107832 0.00121474 0)
(0.107015 0.00123494 0)
(0.106185 0.00125469 0)
(0.105342 0.001274 0)
(0.104486 0.00129287 0)
(0.103618 0.0013113 0)
(0.102737 0.00132931 0)
(0.101845 0.00134689 0)
(0.100941 0.00136405 0)
(0.100025 0.0013808 0)
(0.0990991 0.00139713 0)
(0.098162 0.00141306 0)
(0.0972145 0.00142859 0)
(0.0962568 0.00144373 0)
(0.0952891 0.00145848 0)
(0.0943117 0.00147284 0)
(0.0933248 0.00148683 0)
(0.0923288 0.00150044 0)
(0.0913238 0.00151369 0)
(0.0903101 0.00152658 0)
(0.0892879 0.00153911 0)
(0.0882575 0.0015513 0)
(0.0872191 0.00156314 0)
(0.0861729 0.00157465 0)
(0.0851192 0.00158582 0)
(0.0840581 0.00159667 0)
(0.0829899 0.00160721 0)
(0.0819148 0.00161742 0)
(0.0808329 0.00162734 0)
(0.0797446 0.00163695 0)
(0.07865 0.00164627 0)
(0.0775492 0.00165529 0)
(0.0764426 0.00166404 0)
(0.0753302 0.0016725 0)
(0.0742122 0.0016807 0)
(0.0730889 0.00168863 0)
(0.0719604 0.0016963 0)
(0.0708269 0.00170371 0)
(0.0696885 0.00171087 0)
(0.0685454 0.0017178 0)
(0.0673978 0.00172448 0)
(0.0662458 0.00173093 0)
(0.0650896 0.00173716 0)
(0.0639294 0.00174316 0)
(0.0627652 0.00174895 0)
(0.0615972 0.00175453 0)
(0.0604255 0.0017599 0)
(0.0592504 0.00176507 0)
(0.0580719 0.00177005 0)
(0.0568901 0.00177484 0)
(0.0557052 0.00177944 0)
(0.0545173 0.00178386 0)
(0.0533265 0.00178811 0)
(0.0521329 0.00179219 0)
(0.0509367 0.0017961 0)
(0.0497379 0.00179985 0)
(0.0485367 0.00180345 0)
(0.0473331 0.00180689 0)
(0.0461273 0.00181019 0)
(0.0449194 0.00181334 0)
(0.0437094 0.00181635 0)
(0.0424974 0.00181923 0)
(0.0412836 0.00182198 0)
(0.040068 0.0018246 0)
(0.0388506 0.0018271 0)
(0.0376317 0.00182948 0)
(0.0364112 0.00183175 0)
(0.0351892 0.00183391 0)
(0.0339658 0.00183595 0)
(0.0327411 0.0018379 0)
(0.0315152 0.00183974 0)
(0.030288 0.00184148 0)
(0.0290598 0.00184313 0)
(0.0278304 0.00184469 0)
(0.0266001 0.00184615 0)
(0.0253688 0.00184754 0)
(0.0241366 0.00184884 0)
(0.0229036 0.00185005 0)
(0.0216697 0.00185119 0)
(0.0204352 0.00185225 0)
(0.0192 0.00185324 0)
(0.0179641 0.00185416 0)
(0.0167277 0.00185501 0)
(0.0154907 0.00185579 0)
(0.0142532 0.0018565 0)
(0.0130153 0.00185715 0)
(0.0117769 0.00185773 0)
(0.0105382 0.00185825 0)
(0.00929921 0.00185871 0)
(0.00805988 0.00185911 0)
(0.00682032 0.00185945 0)
(0.00558054 0.00185974 0)
(0.00434059 0.00185996 0)
(0.00310052 0.00186013 0)
(0.00186035 0.00186024 0)
(0.000620122 0.0018603 0)
(0.000740624 -0.00370274 0)
(0.00222184 -0.00370258 0)
(0.00370297 -0.00370228 0)
(0.00518394 -0.00370181 0)
(0.0066647 -0.0037012 0)
(0.00814519 -0.00370042 0)
(0.00962533 -0.00369948 0)
(0.0111051 -0.00369837 0)
(0.0125843 -0.00369709 0)
(0.0140631 -0.00369563 0)
(0.0155412 -0.00369399 0)
(0.0170186 -0.00369216 0)
(0.0184953 -0.00369013 0)
(0.0199711 -0.00368789 0)
(0.021446 -0.00368544 0)
(0.0229198 -0.00368277 0)
(0.0243926 -0.00367986 0)
(0.0258642 -0.00367671 0)
(0.0273344 -0.0036733 0)
(0.0288033 -0.00366962 0)
(0.0302706 -0.00366567 0)
(0.0317363 -0.00366142 0)
(0.0332003 -0.00365687 0)
(0.0346624 -0.00365199 0)
(0.0361225 -0.00364679 0)
(0.0375805 -0.00364123 0)
(0.0390361 -0.00363531 0)
(0.0404894 -0.00362901 0)
(0.0419401 -0.00362231 0)
(0.043388 -0.0036152 0)
(0.044833 -0.00360766 0)
(0.0462749 -0.00359967 0)
(0.0477136 -0.00359122 0)
(0.0491488 -0.00358228 0)
(0.0505803 -0.00357284 0)
(0.052008 -0.00356288 0)
(0.0534316 -0.00355237 0)
(0.0548509 -0.00354132 0)
(0.0562657 -0.00352968 0)
(0.0576757 -0.00351745 0)
(0.0590807 -0.0035046 0)
(0.0604805 -0.00349112 0)
(0.0618748 -0.00347698 0)
(0.0632633 -0.00346217 0)
(0.0646458 -0.00344667 0)
(0.0660219 -0.00343045 0)
(0.0673915 -0.00341351 0)
(0.0687541 -0.00339581 0)
(0.0701095 -0.00337736 0)
(0.0714574 -0.00335811 0)
(0.0727974 -0.00333807 0)
(0.0741293 -0.0033172 0)
(0.0754527 -0.0032955 0)
(0.0767672 -0.00327295 0)
(0.0780726 -0.00324954 0)
(0.0793685 -0.00322524 0)
(0.0806544 -0.00320004 0)
(0.0819301 -0.00317394 0)
(0.0831952 -0.00314692 0)
(0.0844493 -0.00311896 0)
(0.0856921 -0.00309006 0)
(0.0869231 -0.0030602 0)
(0.088142 -0.00302939 0)
(0.0893484 -0.0029976 0)
(0.0905418 -0.00296484 0)
(0.091722 -0.00293109 0)
(0.0928885 -0.00289636 0)
(0.0940409 -0.00286064 0)
(0.0951788 -0.00282392 0)
(0.0963018 -0.00278621 0)
(0.0974095 -0.00274751 0)
(0.0985016 -0.00270782 0)
(0.0995776 -0.00266714 0)
(0.100637 -0.00262548 0)
(0.10168 -0.00258284 0)
(0.102705 -0.00253923 0)
(0.103713 -0.00249466 0)
(0.104703 -0.00244914 0)
(0.105674 -0.00240268 0)
(0.106626 -0.0023553 0)
(0.10756 -0.002307 0)
(0.108474 -0.00225781 0)
(0.109368 -0.00220773 0)
(0.110241 -0.0021568 0)
(0.111094 -0.00210503 0)
(0.111927 -0.00205243 0)
(0.112738 -0.00199904 0)
(0.113527 -0.00194488 0)
(0.114295 -0.00188997 0)
(0.115041 -0.00183434 0)
(0.115764 -0.00177801 0)
(0.116464 -0.00172101 0)
(0.117142 -0.00166338 0)
(0.117796 -0.00160515 0)
(0.118427 -0.00154633 0)
(0.119034 -0.00148698 0)
(0.119617 -0.00142711 0)
(0.120177 -0.00136677 0)
(0.120712 -0.00130599 0)
(0.121222 -0.0012448 0)
(0.121708 -0.00118323 0)
(0.122169 -0.00112134 0)
(0.122606 -0.00105914 0)
(0.123017 -0.000996674 0)
(0.123404 -0.000933986 0)
(0.123765 -0.000871108 0)
(0.124101 -0.000808077 0)
(0.124411 -0.00074493 0)
(0.124697 -0.000681705 0)
(0.124957 -0.000618437 0)
(0.125192 -0.000555164 0)
(0.125401 -0.000491921 0)
(0.125585 -0.000428744 0)
(0.125744 -0.000365669 0)
(0.125877 -0.00030273 0)
(0.125986 -0.000239962 0)
(0.126069 -0.000177399 0)
(0.126127 -0.000115074 0)
(0.12616 -5.30181e-05 0)
(0.126169 8.73585e-06 0)
(0.126153 7.01575e-05 0)
(0.126112 0.000131217 0)
(0.126047 0.000191885 0)
(0.125958 0.000252134 0)
(0.125845 0.000311936 0)
(0.125707 0.000371266 0)
(0.125547 0.000430099 0)
(0.125362 0.00048841 0)
(0.125155 0.000546176 0)
(0.124925 0.000603375 0)
(0.124671 0.000659988 0)
(0.124395 0.000715993 0)
(0.124097 0.000771373 0)
(0.123777 0.000826109 0)
(0.123435 0.000880186 0)
(0.123072 0.000933588 0)
(0.122687 0.0009863 0)
(0.122282 0.00103831 0)
(0.121855 0.00108961 0)
(0.121409 0.00114018 0)
(0.120942 0.00119001 0)
(0.120455 0.0012391 0)
(0.119949 0.00128744 0)
(0.119424 0.00133502 0)
(0.11888 0.00138183 0)
(0.118317 0.00142788 0)
(0.117736 0.00147314 0)
(0.117137 0.00151763 0)
(0.116521 0.00156134 0)
(0.115887 0.00160427 0)
(0.115236 0.00164641 0)
(0.114568 0.00168778 0)
(0.113884 0.00172835 0)
(0.113184 0.00176815 0)
(0.112468 0.00180716 0)
(0.111737 0.0018454 0)
(0.11099 0.00188287 0)
(0.110229 0.00191956 0)
(0.109453 0.00195549 0)
(0.108663 0.00199066 0)
(0.10786 0.00202507 0)
(0.107042 0.00205872 0)
(0.106211 0.00209164 0)
(0.105367 0.00212382 0)
(0.104511 0.00215526 0)
(0.103642 0.00218598 0)
(0.102761 0.00221599 0)
(0.101868 0.00224529 0)
(0.100963 0.00227388 0)
(0.100047 0.00230178 0)
(0.0991206 0.002329 0)
(0.098183 0.00235555 0)
(0.097235 0.00238142 0)
(0.0962767 0.00240664 0)
(0.0953085 0.00243122 0)
(0.0943306 0.00245515 0)
(0.0933432 0.00247845 0)
(0.0923467 0.00250114 0)
(0.0913412 0.00252321 0)
(0.090327 0.00254469 0)
(0.0893044 0.00256557 0)
(0.0882735 0.00258587 0)
(0.0872347 0.00260561 0)
(0.086188 0.00262478 0)
(0.0851339 0.0026434 0)
(0.0840723 0.00266148 0)
(0.0830037 0.00267902 0)
(0.0819282 0.00269605 0)
(0.080846 0.00271256 0)
(0.0797572 0.00272858 0)
(0.0786622 0.0027441 0)
(0.0775611 0.00275914 0)
(0.076454 0.0027737 0)
(0.0753413 0.00278781 0)
(0.074223 0.00280146 0)
(0.0730993 0.00281467 0)
(0.0719705 0.00282744 0)
(0.0708366 0.00283979 0)
(0.0696979 0.00285173 0)
(0.0685545 0.00286326 0)
(0.0674066 0.00287439 0)
(0.0662543 0.00288514 0)
(0.0650978 0.00289551 0)
(0.0639372 0.00290551 0)
(0.0627727 0.00291515 0)
(0.0616045 0.00292444 0)
(0.0604326 0.00293339 0)
(0.0592571 0.00294201 0)
(0.0580784 0.0029503 0)
(0.0568963 0.00295827 0)
(0.0557112 0.00296594 0)
(0.054523 0.0029733 0)
(0.053332 0.00298037 0)
(0.0521382 0.00298717 0)
(0.0509418 0.00299368 0)
(0.0497428 0.00299993 0)
(0.0485414 0.00300591 0)
(0.0473376 0.00301165 0)
(0.0461316 0.00301713 0)
(0.0449235 0.00302238 0)
(0.0437133 0.0030274 0)
(0.0425012 0.0030322 0)
(0.0412872 0.00303677 0)
(0.0400714 0.00304114 0)
(0.0388539 0.0030453 0)
(0.0376348 0.00304927 0)
(0.0364141 0.00305304 0)
(0.035192 0.00305663 0)
(0.0339685 0.00306004 0)
(0.0327437 0.00306327 0)
(0.0315176 0.00306634 0)
(0.0302903 0.00306924 0)
(0.0290619 0.00307198 0)
(0.0278324 0.00307458 0)
(0.026602 0.00307702 0)
(0.0253706 0.00307932 0)
(0.0241383 0.00308148 0)
(0.0229051 0.00308351 0)
(0.0216712 0.0030854 0)
(0.0204366 0.00308717 0)
(0.0192013 0.00308882 0)
(0.0179653 0.00309035 0)
(0.0167288 0.00309176 0)
(0.0154917 0.00309305 0)
(0.0142541 0.00309424 0)
(0.0130161 0.00309531 0)
(0.0117777 0.00309629 0)
(0.0105389 0.00309715 0)
(0.00929978 0.00309792 0)
(0.00806038 0.00309859 0)
(0.00682073 0.00309916 0)
(0.00558088 0.00309963 0)
(0.00434086 0.0031 0)
(0.00310071 0.00310028 0)
(0.00186046 0.00310047 0)
(0.000620159 0.00310056 0)
(0.000740716 -0.00518405 0)
(0.00222212 -0.00518383 0)
(0.00370343 -0.0051834 0)
(0.00518459 -0.00518276 0)
(0.00666554 -0.0051819 0)
(0.00814622 -0.00518082 0)
(0.00962657 -0.0051795 0)
(0.0111065 -0.00517796 0)
(0.012586 -0.00517617 0)
(0.0140649 -0.00517414 0)
(0.0155433 -0.00517185 0)
(0.0170209 -0.0051693 0)
(0.0184978 -0.00516647 0)
(0.0199739 -0.00516335 0)
(0.021449 -0.00515993 0)
(0.0229232 -0.0051562 0)
(0.0243962 -0.00515214 0)
(0.0258681 -0.00514775 0)
(0.0273387 -0.00514299 0)
(0.0288079 -0.00513786 0)
(0.0302756 -0.00513235 0)
(0.0317416 -0.00512642 0)
(0.033206 -0.00512006 0)
(0.0346685 -0.00511326 0)
(0.036129 -0.00510599 0)
(0.0375874 -0.00509824 0)
(0.0390435 -0.00508997 0)
(0.0404972 -0.00508117 0)
(0.0419484 -0.00507182 0)
(0.0433968 -0.00506189 0)
(0.0448423 -0.00505135 0)
(0.0462848 -0.00504019 0)
(0.047724 -0.00502838 0)
(0.0491598 -0.00501589 0)
(0.050592 -0.0050027 0)
(0.0520203 -0.00498878 0)
(0.0534445 -0.00497411 0)
(0.0548645 -0.00495865 0)
(0.05628 -0.00494239 0)
(0.0576908 -0.00492529 0)
(0.0590966 -0.00490733 0)
(0.0604971 -0.00488848 0)
(0.0618922 -0.00486871 0)
(0.0632815 -0.00484801 0)
(0.0646649 -0.00482633 0)
(0.0660419 -0.00480365 0)
(0.0674123 -0.00477996 0)
(0.0687758 -0.00475521 0)
(0.0701322 -0.0047294 0)
(0.071481 -0.00470248 0)
(0.072822 -0.00467444 0)
(0.0741549 -0.00464525 0)
(0.0754793 -0.0046149 0)
(0.0767949 -0.00458335 0)
(0.0781013 -0.00455058 0)
(0.0793982 -0.00451658 0)
(0.0806852 -0.00448133 0)
(0.0819621 -0.0044448 0)
(0.0832283 -0.00440699 0)
(0.0844835 -0.00436786 0)
(0.0857274 -0.00432742 0)
(0.0869596 -0.00428563 0)
(0.0881796 -0.0042425 0)
(0.0893872 -0.00419801 0)
(0.0905818 -0.00415215 0)
(0.0917632 -0.00410491 0)
(0.0929308 -0.00405629 0)
(0.0940844 -0.00400628 0)
(0.0952235 -0.00395488 0)
(0.0963477 -0.00390209 0)
(0.0974566 -0.0038479 0)
(0.0985499 -0.00379233 0)
(0.099627 -0.00373537 0)
(0.100688 -0.00367704 0)
(0.101732 -0.00361734 0)
(0.102758 -0.00355627 0)
(0.103767 -0.00349386 0)
(0.104758 -0.00343011 0)
(0.10573 -0.00336505 0)
(0.106684 -0.00329869 0)
(0.107618 -0.00323105 0)
(0.108533 -0.00316216 0)
(0.109428 -0.00309203 0)
(0.110303 -0.0030207 0)
(0.111157 -0.00294818 0)
(0.11199 -0.00287452 0)
(0.112802 -0.00279974 0)
(0.113593 -0.00272388 0)
(0.114362 -0.00264697 0)
(0.115108 -0.00256904 0)
(0.115832 -0.00249014 0)
(0.116533 -0.00241031 0)
(0.117211 -0.00232959 0)
(0.117866 -0.00224801 0)
(0.118498 -0.00216563 0)
(0.119106 -0.00208249 0)
(0.11969 -0.00199863 0)
(0.120249 -0.0019141 0)
(0.120785 -0.00182895 0)
(0.121296 -0.00174324 0)
(0.121782 -0.001657 0)
(0.122244 -0.00157029 0)
(0.122681 -0.00148316 0)
(0.123092 -0.00139566 0)
(0.123479 -0.00130785 0)
(0.12384 -0.00121976 0)
(0.124176 -0.00113147 0)
(0.124487 -0.00104301 0)
(0.124773 -0.000954446 0)
(0.125033 -0.00086582 0)
(0.125268 -0.000777186 0)
(0.125477 -0.000688596 0)
(0.125661 -0.000600099 0)
(0.125819 -0.000511745 0)
(0.125953 -0.000423583 0)
(0.126061 -0.000335661 0)
(0.126144 -0.000248026 0)
(0.126202 -0.000160725 0)
(0.126235 -7.3803e-05 0)
(0.126243 1.26956e-05 0)
(0.126226 9.87278e-05 0)
(0.126185 0.000184252 0)
(0.12612 0.000269226 0)
(0.12603 0.000353613 0)
(0.125916 0.000437373 0)
(0.125778 0.00052047 0)
(0.125617 0.000602869 0)
(0.125432 0.000684536 0)
(0.125224 0.000765439 0)
(0.124993 0.000845548 0)
(0.124739 0.000924833 0)
(0.124462 0.00100327 0)
(0.124163 0.00108082 0)
(0.123843 0.00115748 0)
(0.1235 0.00123321 0)
(0.123136 0.00130799 0)
(0.12275 0.0013818 0)
(0.122344 0.00145464 0)
(0.121916 0.00152647 0)
(0.121469 0.00159728 0)
(0.121001 0.00166706 0)
(0.120514 0.0017358 0)
(0.120007 0.00180348 0)
(0.119481 0.0018701 0)
(0.118935 0.00193565 0)
(0.118372 0.00200011 0)
(0.11779 0.00206349 0)
(0.11719 0.00212578 0)
(0.116573 0.00218698 0)
(0.115938 0.00224708 0)
(0.115286 0.00230608 0)
(0.114617 0.00236398 0)
(0.113932 0.00242079 0)
(0.113231 0.0024765 0)
(0.112515 0.00253112 0)
(0.111782 0.00258465 0)
(0.111035 0.00263709 0)
(0.110273 0.00268846 0)
(0.109496 0.00273875 0)
(0.108705 0.00278798 0)
(0.1079 0.00283614 0)
(0.107082 0.00288326 0)
(0.10625 0.00292933 0)
(0.105406 0.00297437 0)
(0.104548 0.00301838 0)
(0.103678 0.00306138 0)
(0.102796 0.00310338 0)
(0.101903 0.00314438 0)
(0.100997 0.0031844 0)
(0.100081 0.00322346 0)
(0.0991529 0.00326155 0)
(0.0982145 0.0032987 0)
(0.0972656 0.00333491 0)
(0.0963066 0.00337021 0)
(0.0953376 0.0034046 0)
(0.0943589 0.00343809 0)
(0.0933708 0.0034707 0)
(0.0923735 0.00350245 0)
(0.0913673 0.00353334 0)
(0.0903525 0.00356339 0)
(0.0893291 0.00359261 0)
(0.0882976 0.00362102 0)
(0.087258 0.00364863 0)
(0.0862107 0.00367546 0)
(0.0851559 0.00370151 0)
(0.0840937 0.00372681 0)
(0.0830245 0.00375136 0)
(0.0819483 0.00377518 0)
(0.0808655 0.00379829 0)
(0.0797761 0.0038207 0)
(0.0786805 0.00384241 0)
(0.0775788 0.00386345 0)
(0.0764712 0.00388383 0)
(0.0753579 0.00390356 0)
(0.0742391 0.00392266 0)
(0.0731149 0.00394114 0)
(0.0719855 0.00395901 0)
(0.0708512 0.00397629 0)
(0.069712 0.00399299 0)
(0.0685681 0.00400912 0)
(0.0674197 0.00402469 0)
(0.0662669 0.00403973 0)
(0.06511 0.00405423 0)
(0.063949 0.00406822 0)
(0.0627841 0.00408171 0)
(0.0616154 0.0040947 0)
(0.0604431 0.00410721 0)
(0.0592673 0.00411926 0)
(0.0580881 0.00413086 0)
(0.0569057 0.00414201 0)
(0.0557202 0.00415273 0)
(0.0545317 0.00416303 0)
(0.0533403 0.00417292 0)
(0.0521462 0.00418242 0)
(0.0509494 0.00419153 0)
(0.0497501 0.00420026 0)
(0.0485484 0.00420863 0)
(0.0473443 0.00421665 0)
(0.0461381 0.00422432 0)
(0.0449296 0.00423166 0)
(0.0437192 0.00423868 0)
(0.0425068 0.00424538 0)
(0.0412925 0.00425178 0)
(0.0400765 0.00425788 0)
(0.0388587 0.0042637 0)
(0.0376394 0.00426924 0)
(0.0364185 0.00427452 0)
(0.0351962 0.00427953 0)
(0.0339725 0.0042843 0)
(0.0327474 0.00428882 0)
(0.0315211 0.0042931 0)
(0.0302937 0.00429716 0)
(0.0290651 0.00430099 0)
(0.0278354 0.00430461 0)
(0.0266048 0.00430803 0)
(0.0253732 0.00431124 0)
(0.0241408 0.00431426 0)
(0.0229075 0.0043171 0)
(0.0216734 0.00431974 0)
(0.0204386 0.00432222 0)
(0.0192032 0.00432452 0)
(0.0179671 0.00432665 0)
(0.0167304 0.00432862 0)
(0.0154932 0.00433043 0)
(0.0142555 0.00433208 0)
(0.0130173 0.00433359 0)
(0.0117788 0.00433494 0)
(0.0105399 0.00433616 0)
(0.00930064 0.00433723 0)
(0.00806112 0.00433816 0)
(0.00682136 0.00433895 0)
(0.00558139 0.00433961 0)
(0.00434125 0.00434014 0)
(0.00310099 0.00434053 0)
(0.00186063 0.00434079 0)
(0.000620215 0.00434092 0)
(0.000740838 -0.00666557 0)
(0.00222248 -0.0066653 0)
(0.00370404 -0.00666475 0)
(0.00518545 -0.00666393 0)
(0.00666666 -0.00666283 0)
(0.0081476 -0.00666144 0)
(0.0096282 -0.00665976 0)
(0.0111084 -0.00665779 0)
(0.0125882 -0.00665551 0)
(0.0140674 -0.00665291 0)
(0.015546 -0.00664998 0)
(0.017024 -0.00664672 0)
(0.0185012 -0.0066431 0)
(0.0199776 -0.00663911 0)
(0.0214531 -0.00663474 0)
(0.0229276 -0.00662996 0)
(0.0244011 -0.00662477 0)
(0.0258733 -0.00661915 0)
(0.0273443 -0.00661306 0)
(0.028814 -0.0066065 0)
(0.0302821 -0.00659943 0)
(0.0317487 -0.00659184 0)
(0.0332135 -0.00658371 0)
(0.0346765 -0.006575 0)
(0.0361376 -0.00656569 0)
(0.0375965 -0.00655575 0)
(0.0390533 -0.00654516 0)
(0.0405076 -0.00653389 0)
(0.0419594 -0.0065219 0)
(0.0434085 -0.00650917 0)
(0.0448548 -0.00649567 0)
(0.046298 -0.00648137 0)
(0.0477379 -0.00646622 0)
(0.0491745 -0.00645021 0)
(0.0506075 -0.00643329 0)
(0.0520366 -0.00641544 0)
(0.0534618 -0.00639662 0)
(0.0548827 -0.0063768 0)
(0.0562991 -0.00635593 0)
(0.0577108 -0.00633399 0)
(0.0591176 -0.00631095 0)
(0.0605192 -0.00628676 0)
(0.0619154 -0.00626139 0)
(0.0633058 -0.00623481 0)
(0.0646902 -0.00620699 0)
(0.0660684 -0.00617788 0)
(0.06744 -0.00614746 0)
(0.0688048 -0.00611569 0)
(0.0701623 -0.00608254 0)
(0.0715124 -0.00604797 0)
(0.0728548 -0.00601196 0)
(0.074189 -0.00597448 0)
(0.0755147 -0.00593548 0)
(0.0768317 -0.00589496 0)
(0.0781395 -0.00585287 0)
(0.0794378 -0.00580919 0)
(0.0807263 -0.0057639 0)
(0.0820046 -0.00571696 0)
(0.0832723 -0.00566837 0)
(0.084529 -0.00561809 0)
(0.0857745 -0.00556611 0)
(0.0870082 -0.00551241 0)
(0.0882298 -0.00545697 0)
(0.0894389 -0.00539979 0)
(0.0906351 -0.00534084 0)
(0.091818 -0.00528011 0)
(0.0929873 -0.00521761 0)
(0.0941424 -0.00515332 0)
(0.0952831 -0.00508723 0)
(0.0964089 -0.00501935 0)
(0.0975195 -0.00494969 0)
(0.0986143 -0.00487823 0)
(0.099693 -0.00480499 0)
(0.100755 -0.00472997 0)
(0.101801 -0.00465319 0)
(0.102829 -0.00457466 0)
(0.103839 -0.00449439 0)
(0.104832 -0.0044124 0)
(0.105805 -0.00432872 0)
(0.106761 -0.00424337 0)
(0.107696 -0.00415636 0)
(0.108613 -0.00406774 0)
(0.109509 -0.00397753 0)
(0.110385 -0.00388577 0)
(0.111241 -0.00379249 0)
(0.112075 -0.00369773 0)
(0.112889 -0.00360153 0)
(0.11368 -0.00350393 0)
(0.11445 -0.00340498 0)
(0.115198 -0.00330472 0)
(0.115923 -0.00320321 0)
(0.116625 -0.0031005 0)
(0.117304 -0.00299664 0)
(0.11796 -0.00289168 0)
(0.118593 -0.00278568 0)
(0.119201 -0.00267871 0)
(0.119786 -0.00257081 0)
(0.120347 -0.00246205 0)
(0.120883 -0.00235249 0)
(0.121394 -0.0022422 0)
(0.121881 -0.00213123 0)
(0.122343 -0.00201966 0)
(0.122781 -0.00190755 0)
(0.123193 -0.00179496 0)
(0.12358 -0.00168197 0)
(0.123941 -0.00156863 0)
(0.124278 -0.00145502 0)
(0.124589 -0.00134121 0)
(0.124874 -0.00122724 0)
(0.125134 -0.00111321 0)
(0.125369 -0.000999165 0)
(0.125578 -0.000885178 0)
(0.125762 -0.000771311 0)
(0.12592 -0.000657629 0)
(0.126054 -0.000544195 0)
(0.126161 -0.000431071 0)
(0.126244 -0.000318318 0)
(0.126301 -0.000205996 0)
(0.126334 -9.41638e-05 0)
(0.126342 1.71226e-05 0)
(0.126325 0.000127807 0)
(0.126283 0.000237836 0)
(0.126217 0.000347157 0)
(0.126126 0.000455719 0)
(0.126012 0.000563473 0)
(0.125873 0.000670372 0)
(0.125711 0.000776371 0)