/*--------------------------------*- C++ -*----------------------------------*\
| =========                 |                                                 |
| \\      /  F ield         | OpenFOAM: The Open Source CFD Toolbox           |
|  \\    /   O peration     | Version:  v2012                                 |
|   \\  /    A nd           | Website:  www.openfoam.com                      |
|    \\/     M anipulation  |                                                 |
\*---------------------------------------------------------------------------*/
FoamFile
{
    version     2.0;
    format      ascii;
    class       surfaceScalarField;
    location    "3";
    object      phi;
}
// * * * * * * * * * * * * * * * * * * * * * * * * * * * * * * * * * * * * * //

dimensions      [0 3 -1 0 0 0 0];
oriented        oriented;


internalField   nonuniform List<scalar> 
130560
(
3.51293e-06
-3.51293e-06
7.02565e-06
-3.51272e-06
1.05379e-05
-3.5123e-06
1.40496e-05
-3.51167e-06
1.75605e-05
-3.51083e-06
2.10702e-05
-3.50978e-06
2.45787e-05
-3.50851e-06
2.80858e-05
-3.50703e-06
3.15911e-05
-3.50532e-06
3.50945e-05
-3.50338e-06
3.85957e-05
-3.50121e-06
4.20945e-05
-3.4988e-06
4.55906e-05
-3.49614e-06
4.90838e-05
-3.49324e-06
5.25739e-05
-3.49008e-06
5.60606e-05
-3.48665e-06
5.95435e-05
-3.48295e-06
6.30225e-05
-3.47897e-06
6.64972e-05
-3.4747e-06
6.99673e-05
-3.47014e-06
7.34326e-05
-3.46526e-06
7.68927e-05
-3.46007e-06
8.03472e-05
-3.45454e-06
8.37959e-05
-3.44868e-06
8.72384e-05
-3.44247e-06
9.06743e-05
-3.43589e-06
9.41032e-05
-3.42894e-06
9.75248e-05
-3.4216e-06
0.000100939
-3.41387e-06
0.000104344
-3.40572e-06
0.000107742
-3.39715e-06
0.00011113
-3.38814e-06
0.000114508
-3.37868e-06
0.000117877
-3.36875e-06
0.000121235
-3.35835e-06
0.000124583
-3.34745e-06
0.000127919
-3.33605e-06
0.000131243
-3.32412e-06
0.000134555
-3.31166e-06
0.000137853
-3.29866e-06
0.000141138
-3.28509e-06
0.000144409
-3.27094e-06
0.000147666
-3.2562e-06
0.000150906
-3.24086e-06
0.000154131
-3.2249e-06
0.00015734
-3.20831e-06
0.000160531
-3.19108e-06
0.000163704
-3.17319e-06
0.000166859
-3.15463e-06
0.000169994
-3.13539e-06
0.000173109
-3.11545e-06
0.000176204
-3.09481e-06
0.000179278
-3.07345e-06
0.000182329
-3.05137e-06
0.000185358
-3.02855e-06
0.000188363
-3.00498e-06
0.000191343
-2.98066e-06
0.000194299
-2.95558e-06
0.000197229
-2.92972e-06
0.000200132
-2.90309e-06
0.000203007
-2.87567e-06
0.000205855
-2.84747e-06
0.000208673
-2.81847e-06
0.000211462
-2.78867e-06
0.00021422
-2.75808e-06
0.000216947
-2.72668e-06
0.000219641
-2.69447e-06
0.000222303
-2.66147e-06
0.00022493
-2.62766e-06
0.000227523
-2.59304e-06
0.000230081
-2.55763e-06
0.000232602
-2.52143e-06
0.000235087
-2.48443e-06
0.000237533
-2.44665e-06
0.000239942
-2.40808e-06
0.00024231
-2.36875e-06
0.000244639
-2.32865e-06
0.000246927
-2.2878e-06
0.000249173
-2.24621e-06
0.000251377
-2.20388e-06
0.000253538
-2.16084e-06
0.000255655
-2.11709e-06
0.000257727
-2.07264e-06
0.000259755
-2.02752e-06
0.000261737
-1.98174e-06
0.000263672
-1.93532e-06
0.00026556
-1.88827e-06
0.000267401
-1.84062e-06
0.000269193
-1.79238e-06
0.000270937
-1.74357e-06
0.000272631
-1.69422e-06
0.000274275
-1.64434e-06
0.000275869
-1.59396e-06
0.000277412
-1.5431e-06
0.000278904
-1.49178e-06
0.000280344
-1.44003e-06
0.000281732
-1.38787e-06
0.000283067
-1.33533e-06
0.00028435
-1.28243e-06
0.000285579
-1.2292e-06
0.000286755
-1.17566e-06
0.000287877
-1.12184e-06
0.000288944
-1.06777e-06
0.000289958
-1.01346e-06
0.000290917
-9.58956e-07
0.000291821
-9.0427e-07
0.000292671
-8.49434e-07
0.000293465
-7.94473e-07
0.000294204
-7.39412e-07
0.000294889
-6.84278e-07
0.000295518
-6.29096e-07
0.000296092
-5.73891e-07
0.00029661
-5.18689e-07
0.000297074
-4.63512e-07
0.000297482
-4.08387e-07
0.000297836
-3.53336e-07
0.000298134
-2.98382e-07
0.000298378
-2.43549e-07
0.000298566
-1.88859e-07
0.000298701
-1.34333e-07
0.000298781
-7.99929e-08
0.000298807
-2.58591e-08
0.000298779
2.80485e-08
0.000298697
8.17104e-08
0.000298562
1.35108e-07
0.000298373
1.88223e-07
0.000298132
2.41038e-07
0.000297839
2.93536e-07
0.000297493
3.45701e-07
0.000297096
3.97517e-07
0.000296647
4.4897e-07
0.000296147
5.00045e-07
0.000295596
5.5073e-07
0.000294995
6.0101e-07
0.000294344
6.50874e-07
0.000293644
7.0031e-07
0.000292894
7.49307e-07
0.000292097
7.97855e-07
0.000291251
8.45944e-07
0.000290357
8.93564e-07
0.000289416
9.40707e-07
0.000288429
9.87365e-07
0.000287395
1.03353e-06
0.000286316
1.0792e-06
0.000285192
1.12435e-06
0.000284023
1.169e-06
0.00028281
1.21313e-06
0.000281553
1.25673e-06
0.000280253
1.29981e-06
0.000278911
1.34235e-06
0.000277527
1.38436e-06
0.000276101
1.42583e-06
0.000274634
1.46675e-06
0.000273127
1.50713e-06
0.00027158
1.54696e-06
0.000269994
1.58624e-06
0.000268369
1.62496e-06
0.000266706
1.66313e-06
0.000265005
1.70075e-06
0.000263267
1.7378e-06
0.000261493
1.7743e-06
0.000259682
1.81024e-06
0.000257837
1.84562e-06
0.000255956
1.88044e-06
0.000254042
1.9147e-06
0.000252093
1.9484e-06
0.000250112
1.98154e-06
0.000248098
2.01412e-06
0.000246051
2.04614e-06
0.000243974
2.07761e-06
0.000241865
2.10852e-06
0.000239726
2.13887e-06
0.000237558
2.16867e-06
0.00023536
2.19792e-06
0.000233133
2.22662e-06
0.000230878
2.25477e-06
0.000228596
2.28238e-06
0.000226287
2.30943e-06
0.000223951
2.33595e-06
0.000221589
2.36193e-06
0.000219201
2.38737e-06
0.000216789
2.41228e-06
0.000214352
2.43666e-06
0.000211892
2.46051e-06
0.000209408
2.48383e-06
0.000206901
2.50664e-06
0.000204373
2.52892e-06
0.000201822
2.5507e-06
0.00019925
2.57197e-06
0.000196657
2.59273e-06
0.000194044
2.61299e-06
0.000191411
2.63275e-06
0.000188759
2.65202e-06
0.000186089
2.67081e-06
0.000183399
2.68912e-06
0.000180693
2.70694e-06
0.000177968
2.7243e-06
0.000175227
2.74119e-06
0.000172469
2.75762e-06
0.000169696
2.7736e-06
0.000166907
2.78913e-06
0.000164102
2.80421e-06
0.000161284
2.81886e-06
0.000158451
2.83307e-06
0.000155604
2.84686e-06
0.000152743
2.86024e-06
0.00014987
2.8732e-06
0.000146984
2.88576e-06
0.000144087
2.89792e-06
0.000141177
2.90968e-06
0.000138256
2.92107e-06
0.000135324
2.93207e-06
0.000132381
2.9427e-06
0.000129428
2.95297e-06
0.000126465
2.96288e-06
0.000123493
2.97243e-06
0.000120511
2.98165e-06
0.000117521
2.99053e-06
0.000114522
2.99907e-06
0.000111514
3.0073e-06
0.000108499
3.0152e-06
0.000105476
3.0228e-06
0.000102446
3.03009e-06
9.9409e-05
3.03709e-06
9.63652e-05
3.0438e-06
9.3315e-05
3.05022e-06
9.02587e-05
3.05637e-06
8.71964e-05
3.06225e-06
8.41285e-05
3.06786e-06
8.10553e-05
3.07321e-06
7.7977e-05
3.07831e-06
7.48939e-05
3.08317e-06
7.18061e-05
3.08778e-06
6.87139e-05
3.09215e-06
6.56176e-05
3.0963e-06
6.25174e-05
3.10022e-06
5.94135e-05
3.10392e-06
5.63061e-05
3.1074e-06
5.31954e-05
3.11068e-06
5.00817e-05
3.11374e-06
4.69651e-05
3.11661e-06
4.38458e-05
3.11927e-06
4.07241e-05
3.12174e-06
3.76e-05
3.12402e-06
3.44739e-05
3.12611e-06
3.13459e-05
3.12802e-06
2.82162e-05
3.12974e-06
2.50849e-05
3.13128e-06
2.19522e-05
3.13265e-06
1.88184e-05
3.13384e-06
1.56835e-05
3.13485e-06
1.25478e-05
3.1357e-06
9.41147e-06
3.13638e-06
6.27459e-06
3.13688e-06
3.13738e-06
3.13721e-06
3.13738e-06
3.51313e-06
-7.02606e-06
7.02605e-06
-7.02564e-06
1.05386e-05
-7.0248e-06
1.40504e-05
-7.02355e-06
1.75615e-05
-7.02188e-06
2.10715e-05
-7.01978e-06
2.45802e-05
-7.01725e-06
2.80874e-05
-7.01427e-06
3.1593e-05
-7.01086e-06
3.50966e-05
-7.00698e-06
3.8598e-05
-7.00264e-06
4.20971e-05
-6.99783e-06
4.55935e-05
-6.99253e-06
4.90869e-05
-6.98673e-06
5.25773e-05
-6.98041e-06
5.60642e-05
-6.97357e-06
5.95474e-05
-6.96618e-06
6.30267e-05
-6.95823e-06
6.65017e-05
-6.9497e-06
6.99721e-05
-6.94058e-06
7.34377e-05
-6.93084e-06
7.68981e-05
-6.92046e-06
8.0353e-05
-6.90942e-06
8.3802e-05
-6.89771e-06
8.72448e-05
-6.88529e-06
9.06811e-05
-6.87215e-06
9.41104e-05
-6.85826e-06
9.75324e-05
-6.8436e-06
0.000100947
-6.82815e-06
0.000104353
-6.81186e-06
0.00010775
-6.79473e-06
0.000111139
-6.77673e-06
0.000114518
-6.75782e-06
0.000117887
-6.73798e-06
0.000121246
-6.71718e-06
0.000124594
-6.6954e-06
0.000127931
-6.67261e-06
0.000131255
-6.64877e-06
0.000134568
-6.62387e-06
0.000137867
-6.59787e-06
0.000141152
-6.57075e-06
0.000144424
-6.54247e-06
0.000147681
-6.51301e-06
0.000150922
-6.48234e-06
0.000154148
-6.45044e-06
0.000157357
-6.41727e-06
0.000160548
-6.38282e-06
0.000163722
-6.34705e-06
0.000166878
-6.30994e-06
0.000170014
-6.27147e-06
0.00017313
-6.23161e-06
0.000176225
-6.19034e-06
0.0001793
-6.14763e-06
0.000182352
-6.10348e-06
0.000185381
-6.05784e-06
0.000188387
-6.01072e-06
0.000191368
-5.96209e-06
0.000194324
-5.91192e-06
0.000197255
-5.86022e-06
0.000200159
-5.80696e-06
0.000203035
-5.75214e-06
0.000205884
-5.69573e-06
0.000208703
-5.63774e-06
0.000211492
-5.57815e-06
0.000214251
-5.51695e-06
0.000216979
-5.45416e-06
0.000219674
-5.38975e-06
0.000222336
-5.32374e-06
0.000224965
-5.25611e-06
0.000227559
-5.18689e-06
0.000230117
-5.11606e-06
0.000232639
-5.04365e-06
0.000235124
-4.96964e-06
0.000237572
-4.89407e-06
0.000239981
-4.81694e-06
0.00024235
-4.73826e-06
0.00024468
-4.65806e-06
0.000246968
-4.57635e-06
0.000249215
-4.49315e-06
0.00025142
-4.40848e-06
0.000253581
-4.32238e-06
0.000255699
-4.23486e-06
0.000257772
-4.14596e-06
0.0002598
-4.05571e-06
0.000261783
-3.96413e-06
0.000263719
-3.87127e-06
0.000265608
-3.77716e-06
0.000267449
-3.68183e-06
0.000269242
-3.58533e-06
0.000270986
-3.48769e-06
0.000272681
-3.38896e-06
0.000274326
-3.28918e-06
0.00027592
-3.18839e-06
0.000277464
-3.08665e-06
0.000278956
-2.98399e-06
0.000280396
-2.88047e-06
0.000281784
-2.77613e-06
0.00028312
-2.67103e-06
0.000284403
-2.5652e-06
0.000285632
-2.45872e-06
0.000286808
-2.35161e-06
0.000287931
-2.24395e-06
0.000288999
-2.13577e-06
0.000290012
-2.02713e-06
0.000290971
-1.91809e-06
0.000291876
-1.80869e-06
0.000292725
-1.699e-06
0.00029352
-1.58905e-06
0.000294259
-1.4789e-06
0.000294944
-1.36861e-06
0.000295573
-1.25822e-06
0.000296147
-1.14778e-06
0.000296665
-1.03735e-06
0.000297129
-9.26978e-07
0.000297537
-8.16703e-07
0.00029789
-7.06577e-07
0.000298189
-5.96648e-07
0.000298432
-4.86959e-07
0.000298621
-3.77557e-07
0.000298755
-2.68484e-07
0.000298835
-1.59783e-07
0.00029886
-5.14959e-08
0.000298832
5.63386e-08
0.00029875
1.63681e-07
0.000298615
2.70494e-07
0.000298426
3.76741e-07
0.000298185
4.82388e-07
0.000297891
5.874e-07
0.000297545
6.91746e-07
0.000297147
7.95393e-07
0.000296698
8.98313e-07
0.000296197
1.00048e-06
0.000295646
1.10186e-06
0.000295045
1.20243e-06
0.000294393
1.30217e-06
0.000293693
1.40105e-06
0.000292943
1.49906e-06
0.000292145
1.59616e-06
0.000291298
1.69235e-06
0.000290404
1.7876e-06
0.000289463
1.88189e-06
0.000288475
1.97522e-06
0.000287441
2.06756e-06
0.000286361
2.15889e-06
0.000285237
2.24922e-06
0.000284067
2.33852e-06
0.000282853
2.42678e-06
0.000281596
2.51399e-06
0.000280296
2.60015e-06
0.000278953
2.68524e-06
0.000277568
2.76926e-06
0.000276142
2.8522e-06
0.000274674
2.93405e-06
0.000273167
3.01481e-06
0.000271619
3.09447e-06
0.000270032
3.17303e-06
0.000268407
3.25048e-06
0.000266743
3.32682e-06
0.000265042
3.40205e-06
0.000263303
3.47616e-06
0.000261529
3.54916e-06
0.000259718
3.62104e-06
0.000257872
3.6918e-06
0.000255991
3.76144e-06
0.000254075
3.82995e-06
0.000252126
3.89735e-06
0.000250144
3.96363e-06
0.00024813
4.0288e-06
0.000246083
4.09284e-06
0.000244005
4.15577e-06
0.000241896
4.21759e-06
0.000239756
4.2783e-06
0.000237587
4.3379e-06
0.000235389
4.39639e-06
0.000233161
4.45379e-06
0.000230906
4.51009e-06
0.000228623
4.56529e-06
0.000226313
4.61941e-06
0.000223977
4.67244e-06
0.000221614
4.7244e-06
0.000219226
4.77528e-06
0.000216814
4.82509e-06
0.000214376
4.87384e-06
0.000211915
4.92154e-06
0.000209431
4.96818e-06
0.000206924
5.01379e-06
0.000204394
5.05836e-06
0.000201843
5.10191e-06
0.000199271
5.14444e-06
0.000196678
5.18595e-06
0.000194064
5.22647e-06
0.000191431
5.26599e-06
0.000188778
5.30453e-06
0.000186107
5.3421e-06
0.000183417
5.37871e-06
0.00018071
5.41436e-06
0.000177985
5.44907e-06
0.000175244
5.48284e-06
0.000172486
5.5157e-06
0.000169711
5.54764e-06
0.000166922
5.57869e-06
0.000164117
5.60886e-06
0.000161298
5.63814e-06
0.000158464
5.66657e-06
0.000155617
5.69415e-06
0.000152757
5.72089e-06
0.000149883
5.74681e-06
0.000146997
5.77192e-06
0.000144098
5.79623e-06
0.000141188
5.81975e-06
0.000138267
5.84251e-06
0.000135334
5.86451e-06
0.000132391
5.88577e-06
0.000129438
5.90629e-06
0.000126475
5.9261e-06
0.000123502
5.94522e-06
0.00012052
5.96364e-06
0.000117529
5.98138e-06
0.00011453
5.99847e-06
0.000111522
6.01491e-06
0.000108507
6.03072e-06
0.000105484
6.04591e-06
0.000102453
6.06049e-06
9.94158e-05
6.07448e-06
9.63718e-05
6.08788e-06
9.33212e-05
6.10073e-06
9.02646e-05
6.11301e-06
8.72021e-05
6.12476e-06
8.4134e-05
6.13598e-06
8.10605e-05
6.14668e-06
7.79819e-05
6.15687e-06
7.48985e-05
6.16657e-06
7.18105e-05
6.17579e-06
6.87181e-05
6.18454e-06
6.56216e-05
6.19283e-06
6.25212e-05
6.20066e-06
5.9417e-05
6.20806e-06
5.63094e-05
6.21502e-06
5.31985e-05
6.22156e-06
5.00846e-05
6.22769e-06
4.69678e-05
6.23341e-06
4.38483e-05
6.23874e-06
4.07264e-05
6.24368e-06
3.76022e-05
6.24823e-06
3.44759e-05
6.25241e-06
3.13477e-05
6.25622e-06
2.82177e-05
6.25966e-06
2.50863e-05
6.26274e-06
2.19535e-05
6.26547e-06
1.88194e-05
6.26785e-06
1.56844e-05
6.26989e-06
1.25485e-05
6.27158e-06
9.41198e-06
6.27292e-06
6.27493e-06
6.27393e-06
3.13755e-06
6.2746e-06
6.27493e-06
3.51355e-06
-1.05396e-05
7.02689e-06
-1.0539e-05
1.05398e-05
-1.05377e-05
1.40521e-05
-1.05359e-05
1.75636e-05
-1.05334e-05
2.1074e-05
-1.05302e-05
2.45832e-05
-1.05264e-05
2.80909e-05
-1.0522e-05
3.15969e-05
-1.05169e-05
3.5101e-05
-1.05111e-05
3.86029e-05
-1.05046e-05
4.21024e-05
-1.04974e-05
4.55993e-05
-1.04894e-05
4.90933e-05
-1.04807e-05
5.25842e-05
-1.04713e-05
5.60716e-05
-1.0461e-05
5.95554e-05
-1.045e-05
6.30353e-05
-1.04381e-05
6.65109e-05
-1.04253e-05
6.99819e-05
-1.04116e-05
7.34481e-05
-1.0397e-05
7.69092e-05
-1.03815e-05
8.03647e-05
-1.0365e-05
8.38145e-05
-1.03474e-05
8.7258e-05
-1.03288e-05
9.0695e-05
-1.03092e-05
9.41251e-05
-1.02884e-05
9.75479e-05
-1.02664e-05
0.000100963
-1.02432e-05
0.00010437
-1.02189e-05
0.000107768
-1.01932e-05
0.000111158
-1.01662e-05
0.000114538
-1.01379e-05
0.000117908
-1.01082e-05
0.000121268
-1.0077e-05
0.000124617
-1.00444e-05
0.000127955
-1.00102e-05
0.00013128
-9.9745e-06
0.000134594
-9.93718e-06
0.000137894
-9.89821e-06
0.000141181
-9.85756e-06
0.000144454
-9.81518e-06
0.000147712
-9.77102e-06
0.000150954
-9.72505e-06
0.000154181
-9.67723e-06
0.000157391
-9.62752e-06
0.000160584
-9.57587e-06
0.00016376
-9.52225e-06
0.000166916
-9.46661e-06
0.000170054
-9.40894e-06
0.000173171
-9.34917e-06
0.000176268
-9.2873e-06
0.000179344
-9.22327e-06
0.000182397
-9.15706e-06
0.000185428
-9.08863e-06
0.000188435
-9.01797e-06
0.000191418
-8.94504e-06
0.000194376
-8.86981e-06
0.000197308
-8.79228e-06
0.000200214
-8.7124e-06
0.000203092
-8.63018e-06
0.000205942
-8.54558e-06
0.000208763
-8.4586e-06
0.000211554
-8.36922e-06
0.000214314
-8.27744e-06
0.000217043
-8.18324e-06
0.00021974
-8.08664e-06
0.000222404
-7.98761e-06
0.000225034
-7.88618e-06
0.000227629
-7.78233e-06
0.000230189
-7.67608e-06
0.000232713
-7.56745e-06
0.0002352
-7.45643e-06
0.000237649
-7.34306e-06
0.000240059
-7.22734e-06
0.000242431
-7.1093e-06
0.000244761
-6.98897e-06
0.000247051
-6.86638e-06
0.0002493
-6.74155e-06
0.000251506
-6.61452e-06
0.000253669
-6.48533e-06
0.000255788
-6.35402e-06
0.000257863
-6.22063e-06
0.000259892
-6.08521e-06
0.000261876
-5.94781e-06
0.000263813
-5.80847e-06
0.000265703
-5.66725e-06
0.000267546
-5.52421e-06
0.00026934
-5.37941e-06
0.000271085
-5.2329e-06
0.000272781
-5.08475e-06
0.000274426
-4.93502e-06
0.000276022
-4.78379e-06
0.000277566
-4.63111e-06
0.000279059
-4.47707e-06
0.000280501
-4.32172e-06
0.00028189
-4.16516e-06
0.000283226
-4.00743e-06
0.00028451
-3.84864e-06
0.00028574
-3.68884e-06
0.000286916
-3.52812e-06
0.000288039
-3.36656e-06
0.000289107
-3.20423e-06
0.000290121
-3.04121e-06
0.000291081
-2.87758e-06
0.000291986
-2.71342e-06
0.000292835
-2.54881e-06
0.00029363
-2.38382e-06
0.00029437
-2.21854e-06
0.000295054
-2.05303e-06
0.000295683
-1.88739e-06
0.000296257
-1.72167e-06
0.000296776
-1.55596e-06
0.000297239
-1.39034e-06
0.000297647
-1.22487e-06
0.000298
-1.05962e-06
0.000298298
-8.9467e-07
0.000298542
-7.30082e-07
0.00029873
-5.65924e-07
0.000298864
-4.02262e-07
0.000298943
-2.39159e-07
0.000298968
-7.66777e-08
0.000298939
8.51225e-08
0.000298857
2.46183e-07
0.000298721
4.06448e-07
0.000298532
5.65863e-07
0.00029829
7.24375e-07
0.000297995
8.81933e-07
0.000297649
1.03849e-06
0.00029725
1.194e-06
0.0002968
1.34841e-06
0.000296299
1.5017e-06
0.000295747
1.6538e-06
0.000295145
1.80469e-06
0.000294492
1.95433e-06
0.000293791
2.10268e-06
0.00029304
2.24971e-06
0.000292241
2.3954e-06
0.000291393
2.5397e-06
0.000290499
2.68259e-06
0.000289556
2.82406e-06
0.000288567
2.96406e-06
0.000287532
3.10258e-06
0.000286452
3.23961e-06
0.000285326
3.37511e-06
0.000284155
3.50907e-06
0.000282941
3.64147e-06
0.000281682
3.77231e-06
0.000280381
3.90156e-06
0.000279037
4.0292e-06
0.000277651
4.15524e-06
0.000276223
4.27966e-06
0.000274755
4.40244e-06
0.000273246
4.52359e-06
0.000271698
4.64308e-06
0.00027011
4.76092e-06
0.000268483
4.87711e-06
0.000266818
4.99162e-06
0.000265116
5.10447e-06
0.000263376
5.21564e-06
0.000261601
5.32514e-06
0.000259789
5.43296e-06
0.000257941
5.53909e-06
0.000256059
5.64355e-06
0.000254143
5.74633e-06
0.000252193
5.84743e-06
0.00025021
5.94685e-06
0.000248194
6.04459e-06
0.000246146
6.14066e-06
0.000244067
6.23505e-06
0.000241956
6.32777e-06
0.000239816
6.41883e-06
0.000237646
6.50823e-06
0.000235446
6.59597e-06
0.000233218
6.68206e-06
0.000230961
6.7665e-06
0.000228677
6.8493e-06
0.000226366
6.93047e-06
0.000224029
7.01001e-06
0.000221665
7.08793e-06
0.000219276
7.16425e-06
0.000216862
7.23896e-06
0.000214424
7.31208e-06
0.000211962
7.38361e-06
0.000209477
7.45358e-06
0.000206968
7.52198e-06
0.000204438
7.58883e-06
0.000201886
7.65413e-06
0.000199312
7.71792e-06
0.000196718
7.78018e-06
0.000194104
7.84094e-06
0.000191469
7.90022e-06
0.000188816
7.95802e-06
0.000186144
8.01436e-06
0.000183453
8.06925e-06
0.000180745
8.12272e-06
0.000178019
8.17476e-06
0.000175276
8.22542e-06
0.000172517
8.27468e-06
0.000169742
8.32259e-06
0.000166952
8.36915e-06
0.000164147
8.41438e-06
0.000161326
8.45829e-06
0.000158492
8.50092e-06
0.000155644
8.54227e-06
0.000152782
8.58236e-06
0.000149908
8.62123e-06
0.000147021
8.65887e-06
0.000144122
8.69532e-06
0.000141211
8.73059e-06
0.000138289
8.76471e-06
0.000135356
8.79769e-06
0.000132412
8.82956e-06
0.000129458
8.86033e-06
0.000126494
8.89003e-06
0.00012352
8.91868e-06
0.000120538
8.9463e-06
0.000117546
8.9729e-06
0.000114546
8.99852e-06
0.000111538
9.02316e-06
0.000108522
9.04685e-06
0.000105498
9.06962e-06
0.000102467
9.09147e-06
9.94292e-05
9.11244e-06
9.63846e-05
9.13254e-06
9.33335e-05
9.15178e-06
9.02763e-05
9.1702e-06
8.72133e-05
9.1878e-06
8.41447e-05
9.20461e-06
8.10707e-05
9.22065e-06
7.79916e-05
9.23593e-06
7.49077e-05
9.25046e-06
7.18192e-05
9.26428e-06
6.87264e-05
9.27739e-06
6.56294e-05
9.2898e-06
6.25285e-05
9.30154e-06
5.9424e-05
9.31262e-06
5.63159e-05
9.32306e-06
5.32046e-05
9.33286e-06
5.00903e-05
9.34204e-06
4.69731e-05
9.35062e-06
4.38532e-05
9.3586e-06
4.07309e-05
9.36599e-06
3.76063e-05
9.37282e-06
3.44797e-05
9.37908e-06
3.13511e-05
9.38478e-06
2.82208e-05
9.38994e-06
2.5089e-05
9.39456e-06
2.19558e-05
9.39865e-06
1.88215e-05
9.40221e-06
1.56861e-05
9.40526e-06
1.25499e-05
9.40779e-06
9.41299e-06
9.40981e-06
6.2756e-06
9.41132e-06
3.13789e-06
9.41232e-06
9.41281e-06
3.51417e-06
-1.40538e-05
7.02814e-06
-1.40529e-05
1.05417e-05
-1.40513e-05
1.40546e-05
-1.40488e-05
1.75668e-05
-1.40455e-05
2.10778e-05
-1.40413e-05
2.45877e-05
-1.40362e-05
2.8096e-05
-1.40303e-05
3.16027e-05
-1.40235e-05
3.51075e-05
-1.40158e-05
3.86101e-05
-1.40072e-05
4.21104e-05
-1.39976e-05
4.5608e-05
-1.39871e-05
4.91028e-05
-1.39755e-05
5.25945e-05
-1.39629e-05
5.60827e-05
-1.39493e-05
5.95674e-05
-1.39346e-05
6.30481e-05
-1.39188e-05
6.65246e-05
-1.39018e-05
6.99966e-05
-1.38836e-05
7.34637e-05
-1.38642e-05
7.69258e-05
-1.38435e-05
8.03824e-05
-1.38216e-05
8.38332e-05
-1.37982e-05
8.72778e-05
-1.37735e-05
9.07159e-05
-1.37473e-05
9.41472e-05
-1.37196e-05
9.75712e-05
-1.36904e-05
0.000100988
-1.36596e-05
0.000104396
-1.36271e-05
0.000107796
-1.3593e-05
0.000111186
-1.35571e-05
0.000114568
-1.35194e-05
0.00011794
-1.34798e-05
0.000121301
-1.34383e-05
0.000124651
-1.33949e-05
0.00012799
-1.33494e-05
0.000131318
-1.33018e-05
0.000134633
-1.32521e-05
0.000137935
-1.32002e-05
0.000141223
-1.31461e-05
0.000144498
-1.30897e-05
0.000147758
-1.30309e-05
0.000151002
-1.29696e-05
0.000154231
-1.29059e-05
0.000157443
-1.28397e-05
0.000160638
-1.27709e-05
0.000163815
-1.26995e-05
0.000166974
-1.26253e-05
0.000170114
-1.25485e-05
0.000173233
-1.24689e-05
0.000176332
-1.23864e-05
0.00017941
-1.23011e-05
0.000182466
-1.22128e-05
0.000185499
-1.21217e-05
0.000188509
-1.20275e-05
0.000191494
-1.19303e-05
0.000194454
-1.183e-05
0.000197388
-1.17267e-05
0.000200296
-1.16202e-05
0.000203177
-1.15106e-05
0.000206029
-1.13978e-05
0.000208852
-1.12819e-05
0.000211646
-1.11627e-05
0.000214408
-1.10403e-05
0.00021714
-1.09147e-05
0.000219839
-1.07859e-05
0.000222506
-1.06539e-05
0.000225138
-1.05186e-05
0.000227736
-1.03802e-05
0.000230298
-1.02385e-05
0.000232824
-1.00936e-05
0.000235314
-9.94558e-06
0.000237765
-9.79438e-06
0.000240178
-9.64006e-06
0.000242551
-9.48264e-06
0.000244884
-9.32215e-06
0.000247176
-9.15864e-06
0.000249427
-8.99215e-06
0.000251635
-8.82272e-06
0.0002538
-8.65041e-06
0.000255922
-8.47526e-06
0.000257998
-8.29734e-06
0.00026003
-8.1167e-06
0.000262015
-7.93342e-06
0.000263954
-7.74755e-06
0.000265846
-7.55917e-06
0.000267691
-7.36836e-06
0.000269486
-7.17519e-06
0.000271233
-6.97975e-06
0.000272931
-6.78212e-06
0.000274578
-6.58238e-06
0.000276175
-6.38063e-06
0.000277721
-6.17695e-06
0.000279215
-5.97144e-06
0.000280657
-5.7642e-06
0.000282048
-5.55533e-06
0.000283385
-5.34492e-06
0.000284669
-5.13307e-06
0.000285901
-4.91989e-06
0.000287078
-4.70548e-06
0.000288201
-4.48994e-06
0.00028927
-4.27337e-06
0.000290285
-4.05589e-06
0.000291245
-3.8376e-06
0.00029215
-3.6186e-06
0.000293
-3.39899e-06
0.000293796
-3.17889e-06
0.000294535
-2.95839e-06
0.00029522
-2.7376e-06
0.000295849
-2.51662e-06
0.000296423
-2.29555e-06
0.000296942
-2.07449e-06
0.000297405
-1.85355e-06
0.000297813
-1.63281e-06
0.000298165
-1.41237e-06
0.000298463
-1.19233e-06
0.000298706
-9.72771e-07
0.000298894
-7.53793e-07
0.000299027
-5.35478e-07
0.000299106
-3.17911e-07
0.00029913
-1.01176e-07
0.000299101
1.14649e-07
0.000299017
3.29484e-07
0.000298881
5.43255e-07
0.000298691
7.55889e-07
0.000298448
9.67317e-07
0.000298152
1.17747e-06
0.000297804
1.38629e-06
0.000297405
1.5937e-06
0.000296953
1.79965e-06
0.000296451
2.00409e-06
0.000295898
2.20696e-06
0.000295294
2.4082e-06
0.000294641
2.60777e-06
0.000293938
2.80563e-06
0.000293186
3.00172e-06
0.000292385
3.19601e-06
0.000291536
3.38846e-06
0.00029064
3.57902e-06
0.000289696
3.76768e-06
0.000288706
3.95438e-06
0.00028767
4.13912e-06
0.000286587
4.32184e-06
0.00028546
4.50254e-06
0.000284288
4.68118e-06
0.000283071
4.85775e-06
0.000281812
5.03221e-06
0.000280509
5.20456e-06
0.000279163
5.37478e-06
0.000277775
5.54285e-06
0.000276346
5.70875e-06
0.000274876
5.87248e-06
0.000273366
6.03401e-06
0.000271816
6.19335e-06
0.000270226
6.35048e-06
0.000268598
6.5054e-06
0.000266931
6.65809e-06
0.000265227
6.80856e-06
0.000263486
6.9568e-06
0.000261708
7.1028e-06
0.000259895
7.24656e-06
0.000258046
7.38808e-06
0.000256162
7.52735e-06
0.000254244
7.66439e-06
0.000252292
7.79919e-06
0.000250307
7.93174e-06
0.00024829
8.06206e-06
0.00024624
8.19015e-06
0.000244159
8.316e-06
0.000242047
8.43963e-06
0.000239905
8.56103e-06
0.000237733
8.68022e-06
0.000235532
8.7972e-06
0.000233302
8.91197e-06
0.000231044
9.02455e-06
0.000228758
9.13494e-06
0.000226446
9.24316e-06
0.000224107
9.3492e-06
0.000221741
9.45309e-06
0.000219351
9.55482e-06
0.000216935
9.65442e-06
0.000214496
9.7519e-06
0.000212032
9.84727e-06
0.000209545
9.94053e-06
0.000207035
1.00317e-05
0.000204503
1.01208e-05
0.000201949
1.02079e-05
0.000199374
1.02929e-05
0.000196779
1.03759e-05
0.000194163
1.04569e-05
0.000191527
1.05359e-05
0.000188872
1.0613e-05
0.000186198
1.06881e-05
0.000183506
1.07612e-05
0.000180797
1.08325e-05
0.00017807
1.09019e-05
0.000175326
1.09694e-05
0.000172565
1.1035e-05
0.000169789
1.10989e-05
0.000166997
1.11609e-05
0.00016419
1.12212e-05
0.000161369
1.12797e-05
0.000158533
1.13365e-05
0.000155684
1.13916e-05
0.000152821
1.14451e-05
0.000149946
1.14969e-05
0.000147057
1.1547e-05
0.000144157
1.15956e-05
0.000141245
1.16426e-05
0.000138322
1.1688e-05
0.000135388
1.1732e-05
0.000132443
1.17744e-05
0.000129488
1.18154e-05
0.000126523
1.1855e-05
0.000123548
1.18932e-05
0.000120564
1.193e-05
0.000117572
1.19654e-05
0.000114571
1.19995e-05
0.000111562
1.20324e-05
0.000108545
1.20639e-05
0.00010552
1.20942e-05
0.000102488
1.21233e-05
9.94493e-05
1.21513e-05
9.64038e-05
1.2178e-05
9.33519e-05
1.22037e-05
9.02939e-05
1.22282e-05
8.72301e-05
1.22516e-05
8.41606e-05
1.2274e-05
8.10859e-05
1.22954e-05
7.80061e-05
1.23157e-05
7.49215e-05
1.23351e-05
7.18323e-05
1.23535e-05
6.87388e-05
1.23709e-05
6.56411e-05
1.23875e-05
6.25396e-05
1.24031e-05
5.94344e-05
1.24178e-05
5.63257e-05
1.24317e-05
5.32138e-05
1.24448e-05
5.00988e-05
1.2457e-05
4.6981e-05
1.24684e-05
4.38606e-05
1.2479e-05
4.07377e-05
1.24889e-05
3.76126e-05
1.2498e-05
3.44854e-05
1.25063e-05
3.13562e-05
1.25139e-05
2.82254e-05
1.25208e-05
2.50931e-05
1.25269e-05
2.19594e-05
1.25323e-05
1.88245e-05
1.25371e-05
1.56886e-05
1.25411e-05
1.25519e-05
1.25445e-05
9.4145e-06
1.25472e-05
6.27661e-06
1.25492e-05
3.13839e-06
1.25505e-05
1.25512e-05
3.515e-06
-1.75688e-05
7.02981e-06
-1.75677e-05
1.05442e-05
-1.75657e-05
1.4058e-05
-1.75626e-05
1.7571e-05
-1.75584e-05
2.10829e-05
-1.75532e-05
2.45936e-05
-1.7547e-05
2.81029e-05
-1.75396e-05
3.16105e-05
-1.75311e-05
3.51162e-05
-1.75215e-05
3.86197e-05
-1.75108e-05
4.2121e-05
-1.74988e-05
4.56196e-05
-1.74857e-05
4.91154e-05
-1.74713e-05
5.26082e-05
-1.74557e-05
5.60975e-05
-1.74387e-05
5.95833e-05
-1.74204e-05
6.30652e-05
-1.74006e-05
6.65428e-05
-1.73795e-05
7.00161e-05
-1.73568e-05
7.34845e-05
-1.73327e-05
7.69479e-05
-1.73069e-05
8.04058e-05
-1.72795e-05
8.3858e-05
-1.72504e-05
8.73041e-05
-1.72196e-05
9.07437e-05
-1.71869e-05
9.41765e-05
-1.71524e-05
9.76021e-05
-1.7116e-05
0.00010102
-1.70776e-05
0.00010443
-1.70371e-05
0.000107832
-1.69945e-05
0.000111224
-1.69497e-05
0.000114608
-1.69027e-05
0.000117981
-1.68533e-05
0.000121344
-1.68016e-05
0.000124697
-1.67474e-05
0.000128038
-1.66906e-05
0.000131368
-1.66313e-05
0.000134685
-1.65693e-05
0.000137989
-1.65045e-05
0.00014128
-1.6437e-05
0.000144557
-1.63665e-05
0.000147819
-1.62931e-05
0.000151066
-1.62167e-05
0.000154297
-1.61371e-05
0.000157512
-1.60545e-05
0.00016071
-1.59686e-05
0.00016389
-1.58794e-05
0.000167051
-1.57868e-05
0.000170193
-1.56908e-05
0.000173316
-1.55914e-05
0.000176418
-1.54884e-05
0.000179499
-1.53818e-05
0.000182557
-1.52716e-05
0.000185593
-1.51577e-05
0.000188606
-1.504e-05
0.000191594
-1.49186e-05
0.000194558
-1.47933e-05
0.000197495
-1.46642e-05
0.000200406
-1.45311e-05
0.00020329
-1.43942e-05
0.000206145
-1.42532e-05
0.000208971
-1.41083e-05
0.000211768
-1.39594e-05
0.000214534
-1.38064e-05
0.000217269
-1.36495e-05
0.000219972
-1.34885e-05
0.000222641
-1.33234e-05
0.000225277
-1.31543e-05
0.000227878
-1.29812e-05
0.000230443
-1.28041e-05
0.000232973
-1.2623e-05
0.000235465
-1.24379e-05
0.000237919
-1.22488e-05
0.000240335
-1.20559e-05
0.000242712
-1.1859e-05
0.000245048
-1.16584e-05
0.000247343
-1.14539e-05
0.000249597
-1.12457e-05
0.000251808
-1.10338e-05
0.000253976
-1.08183e-05
0.0002561
-1.05993e-05
0.000258179
-1.03768e-05
0.000260213
-1.01508e-05
0.000262201
-9.9216e-06
0.000264143
-9.68914e-06
0.000266037
-9.45352e-06
0.000267884
-9.21486e-06
0.000269682
-8.97325e-06
0.000271431
-8.72879e-06
0.00027313
-8.48159e-06
0.00027478
-8.23175e-06
0.000276379
-7.97938e-06
0.000277926
-7.72461e-06
0.000279422
-7.46755e-06
0.000280866
-7.20832e-06
0.000282258
-6.94704e-06
0.000283597
-6.68383e-06
0.000284883
-6.41883e-06
0.000286115
-6.15216e-06
0.000287294
-5.88395e-06
0.000288418
-5.61433e-06
0.000289488
-5.34343e-06
0.000290504
-5.07139e-06
0.000291464
-4.79832e-06
0.00029237
-4.52437e-06
0.000293221
-4.24967e-06
0.000294016
-3.97435e-06
0.000294756
-3.69853e-06
0.000295441
-3.42235e-06
0.00029607
-3.14593e-06
0.000296644
-2.86941e-06
0.000297163
-2.59291e-06
0.000297626
-2.31654e-06
0.000298033
-2.04044e-06
0.000298386
-1.76472e-06
0.000298683
-1.48949e-06
0.000298925
-1.21488e-06
0.000299112
-9.40995e-07
0.000299245
-6.67942e-07
0.000299323
-3.95829e-07
0.000299346
-1.2476e-07
0.000299316
1.45166e-07
0.000299231
4.13851e-07
0.000299093
6.81201e-07
0.000298902
9.47126e-07
0.000298658
1.21154e-06
0.000298361
1.47435e-06
0.000298012
1.73548e-06
0.000297611
1.99486e-06
0.000297158
2.25241e-06
0.000296654
2.50806e-06
0.000296099
2.76174e-06
0.000295494
3.01339e-06
0.000294839
3.26294e-06
0.000294134
3.51034e-06
0.00029338
3.75553e-06
0.000292578
3.99847e-06
0.000291727
4.2391e-06
0.000290829
4.47737e-06
0.000289883
4.71325e-06
0.000288891
4.94669e-06
0.000287852
5.17766e-06
0.000286768
5.40611e-06
0.000285639
5.63203e-06
0.000284464
5.85537e-06
0.000283246
6.07612e-06
0.000281984
6.29424e-06
0.000280679
6.50971e-06
0.000279331
6.72251e-06
0.000277941
6.93262e-06
0.00027651
7.14002e-06
0.000275038
7.3447e-06
0.000273525
7.54664e-06
0.000271973
7.74583e-06
0.000270381
7.94226e-06
0.00026875
8.13592e-06
0.000267082
8.3268e-06
0.000265375
8.51489e-06
0.000263632
8.70019e-06
0.000261852
8.88269e-06
0.000260036
9.0624e-06
0.000258185
9.2393e-06
0.000256299
9.4134e-06
0.000254379
9.58469e-06
0.000252425
9.75319e-06
0.000250438
9.91888e-06
0.000248418
1.00818e-05
0.000246366
1.02419e-05
0.000244283
1.03992e-05
0.000242169
1.05537e-05
0.000240024
1.07054e-05
0.00023785
1.08544e-05
0.000235647
1.10006e-05
0.000233415
1.11441e-05
0.000231154
1.12848e-05