/*--------------------------------*- C++ -*----------------------------------*\
| =========                 |                                                 |
| \\      /  F ield         | OpenFOAM: The Open Source CFD Toolbox           |
|  \\    /   O peration     | Version:  v2012                                 |
|   \\  /    A nd           | Website:  www.openfoam.com                      |
|    \\/     M anipulation  |                                                 |
\*---------------------------------------------------------------------------*/
FoamFile
{
    version     2.0;
    format      ascii;
    class       volVectorField;
    location    "3";
    object      Psi;
}
// * * * * * * * * * * * * * * * * * * * * * * * * * * * * * * * * * * * * * //

dimensions      [0 2 -1 0 0 0 0];


internalField   nonuniform List<vector> 
65536
(
(0 0 8.79828e-06)
(0 0 2.63942e-05)
(0 0 4.39886e-05)
(0 0 6.15804e-05)
(0 0 7.91686e-05)
(0 0 9.67521e-05)
(0 0 0.00011433)
(0 0 0.000131901)
(0 0 0.000149464)
(0 0 0.000167018)
(0 0 0.000184561)
(0 0 0.000202094)
(0 0 0.000219614)
(0 0 0.00023712)
(0 0 0.00025461)
(0 0 0.000272085)
(0 0 0.000289542)
(0 0 0.00030698)
(0 0 0.000324397)
(0 0 0.000341792)
(0 0 0.000359164)
(0 0 0.000376511)
(0 0 0.000393831)
(0 0 0.000411123)
(0 0 0.000428385)
(0 0 0.000445615)
(0 0 0.000462811)
(0 0 0.000479972)
(0 0 0.000497095)
(0 0 0.000514179)
(0 0 0.000531221)
(0 0 0.000548219)
(0 0 0.000565171)
(0 0 0.000582074)
(0 0 0.000598927)
(0 0 0.000615727)
(0 0 0.000632471)
(0 0 0.000649157)
(0 0 0.000665782)
(0 0 0.000682344)
(0 0 0.000698839)
(0 0 0.000715265)
(0 0 0.000731618)
(0 0 0.000747897)
(0 0 0.000764097)
(0 0 0.000780216)
(0 0 0.00079625)
(0 0 0.000812196)
(0 0 0.000828051)
(0 0 0.000843811)
(0 0 0.000859474)
(0 0 0.000875035)
(0 0 0.00089049)
(0 0 0.000905837)
(0 0 0.000921071)
(0 0 0.000936189)
(0 0 0.000951187)
(0 0 0.000966061)
(0 0 0.000980808)
(0 0 0.000995423)
(0 0 0.0010099)
(0 0 0.00102424)
(0 0 0.00103844)
(0 0 0.00105249)
(0 0 0.00106638)
(0 0 0.00108013)
(0 0 0.00109371)
(0 0 0.00110713)
(0 0 0.00112038)
(0 0 0.00113346)
(0 0 0.00114636)
(0 0 0.00115908)
(0 0 0.00117162)
(0 0 0.00118397)
(0 0 0.00119613)
(0 0 0.0012081)
(0 0 0.00121986)
(0 0 0.00123142)
(0 0 0.00124277)
(0 0 0.00125392)
(0 0 0.00126485)
(0 0 0.00127556)
(0 0 0.00128604)
(0 0 0.00129631)
(0 0 0.00130634)
(0 0 0.00131615)
(0 0 0.00132571)
(0 0 0.00133504)
(0 0 0.00134413)
(0 0 0.00135298)
(0 0 0.00136157)
(0 0 0.00136992)
(0 0 0.00137802)
(0 0 0.00138586)
(0 0 0.00139344)
(0 0 0.00140077)
(0 0 0.00140783)
(0 0 0.00141463)
(0 0 0.00142117)
(0 0 0.00142744)
(0 0 0.00143344)
(0 0 0.00143917)
(0 0 0.00144463)
(0 0 0.00144981)
(0 0 0.00145473)
(0 0 0.00145936)
(0 0 0.00146373)
(0 0 0.00146781)
(0 0 0.00147162)
(0 0 0.00147516)
(0 0 0.00147841)
(0 0 0.00148139)
(0 0 0.00148409)
(0 0 0.00148651)
(0 0 0.00148866)
(0 0 0.00149053)
(0 0 0.00149212)
(0 0 0.00149344)
(0 0 0.00149448)
(0 0 0.00149525)
(0 0 0.00149574)
(0 0 0.00149596)
(0 0 0.00149591)
(0 0 0.00149559)
(0 0 0.00149501)
(0 0 0.00149415)
(0 0 0.00149303)
(0 0 0.00149164)
(0 0 0.00148999)
(0 0 0.00148809)
(0 0 0.00148592)
(0 0 0.00148349)
(0 0 0.00148081)
(0 0 0.00147788)
(0 0 0.0014747)
(0 0 0.00147126)
(0 0 0.00146758)
(0 0 0.00146366)
(0 0 0.0014595)
(0 0 0.00145509)
(0 0 0.00145045)
(0 0 0.00144557)
(0 0 0.00144047)
(0 0 0.00143513)
(0 0 0.00142956)
(0 0 0.00142377)
(0 0 0.00141776)
(0 0 0.00141153)
(0 0 0.00140508)
(0 0 0.00139842)
(0 0 0.00139155)
(0 0 0.00138447)
(0 0 0.00137719)
(0 0 0.0013697)
(0 0 0.00136201)
(0 0 0.00135413)
(0 0 0.00134605)
(0 0 0.00133778)
(0 0 0.00132932)
(0 0 0.00132067)
(0 0 0.00131184)
(0 0 0.00130283)
(0 0 0.00129365)
(0 0 0.00128429)
(0 0 0.00127476)
(0 0 0.00126506)
(0 0 0.00125519)
(0 0 0.00124516)
(0 0 0.00123497)
(0 0 0.00122462)
(0 0 0.00121412)
(0 0 0.00120346)
(0 0 0.00119266)
(0 0 0.00118171)
(0 0 0.00117061)
(0 0 0.00115938)
(0 0 0.001148)
(0 0 0.0011365)
(0 0 0.00112485)
(0 0 0.00111308)
(0 0 0.00110119)
(0 0 0.00108916)
(0 0 0.00107702)
(0 0 0.00106475)
(0 0 0.00105237)
(0 0 0.00103988)
(0 0 0.00102727)
(0 0 0.00101456)
(0 0 0.00100173)
(0 0 0.000988808)
(0 0 0.000975781)
(0 0 0.000962656)
(0 0 0.000949434)
(0 0 0.000936118)
(0 0 0.000922711)
(0 0 0.000909214)
(0 0 0.000895631)
(0 0 0.000881963)
(0 0 0.000868213)
(0 0 0.000854383)
(0 0 0.000840475)
(0 0 0.000826492)
(0 0 0.000812436)
(0 0 0.000798308)
(0 0 0.000784112)
(0 0 0.000769849)
(0 0 0.00075552)
(0 0 0.000741129)
(0 0 0.000726677)
(0 0 0.000712166)
(0 0 0.000697598)
(0 0 0.000682975)
(0 0 0.000668299)
(0 0 0.000653571)
(0 0 0.000638794)
(0 0 0.000623969)
(0 0 0.000609097)
(0 0 0.000594182)
(0 0 0.000579223)
(0 0 0.000564223)
(0 0 0.000549183)
(0 0 0.000534105)
(0 0 0.000518991)
(0 0 0.000503841)
(0 0 0.000488658)
(0 0 0.000473442)
(0 0 0.000458196)
(0 0 0.00044292)
(0 0 0.000427615)
(0 0 0.000412284)
(0 0 0.000396927)
(0 0 0.000381546)
(0 0 0.000366141)
(0 0 0.000350715)
(0 0 0.000335267)
(0 0 0.0003198)
(0 0 0.000304314)
(0 0 0.00028881)
(0 0 0.000273289)
(0 0 0.000257753)
(0 0 0.000242203)
(0 0 0.000226639)
(0 0 0.000211062)
(0 0 0.000195474)
(0 0 0.000179875)
(0 0 0.000164266)
(0 0 0.000148648)
(0 0 0.000133022)
(0 0 0.000117389)
(0 0 0.00010175)
(0 0 8.61051e-05)
(0 0 7.04558e-05)
(0 0 5.48028e-05)
(0 0 3.91469e-05)
(0 0 2.3489e-05)
(0 0 7.82979e-06)
(0 0 2.63952e-05)
(0 0 7.9184e-05)
(0 0 0.000131968)
(0 0 0.000184744)
(0 0 0.00023751)
(0 0 0.000290261)
(0 0 0.000342996)
(0 0 0.000395709)
(0 0 0.000448399)
(0 0 0.000501062)
(0 0 0.000553694)
(0 0 0.000606292)
(0 0 0.000658853)
(0 0 0.000711372)
(0 0 0.000763846)
(0 0 0.000816271)
(0 0 0.000868643)
(0 0 0.000920958)
(0 0 0.000973211)
(0 0 0.0010254)
(0 0 0.00107752)
(0 0 0.00112956)
(0 0 0.00118152)
(0 0 0.0012334)
(0 0 0.00128518)
(0 0 0.00133688)
(0 0 0.00138847)
(0 0 0.00143995)
(0 0 0.00149132)
(0 0 0.00154257)
(0 0 0.0015937)
(0 0 0.0016447)
(0 0 0.00169556)
(0 0 0.00174627)
(0 0 0.00179683)
(0 0 0.00184723)
(0 0 0.00189747)
(0 0 0.00194753)
(0 0 0.00199741)
(0 0 0.00204709)
(0 0 0.00209658)
(0 0 0.00214586)
(0 0 0.00219493)
(0 0 0.00224376)
(0 0 0.00229237)
(0 0 0.00234073)
(0 0 0.00238883)
(0 0 0.00243667)
(0 0 0.00248424)
(0 0 0.00253153)
(0 0 0.00257852)
(0 0 0.0026252)
(0 0 0.00267157)
(0 0 0.00271762)
(0 0 0.00276332)
(0 0 0.00280868)
(0 0 0.00285368)
(0 0 0.00289831)
(0 0 0.00294255)
(0 0 0.0029864)
(0 0 0.00302984)
(0 0 0.00307286)
(0 0 0.00311546)
(0 0 0.00315761)
(0 0 0.0031993)
(0 0 0.00324053)
(0 0 0.00328128)
(0 0 0.00332154)
(0 0 0.0033613)
(0 0 0.00340054)
(0 0 0.00343925)
(0 0 0.00347742)
(0 0 0.00351504)
(0 0 0.0035521)
(0 0 0.00358859)
(0 0 0.00362448)
(0 0 0.00365978)
(0 0 0.00369447)
(0 0 0.00372853)
(0 0 0.00376196)
(0 0 0.00379475)
(0 0 0.00382688)
(0 0 0.00385835)
(0 0 0.00388915)
(0 0 0.00391925)
(0 0 0.00394867)
(0 0 0.00397737)
(0 0 0.00400537)
(0 0 0.00403263)
(0 0 0.00405917)
(0 0 0.00408497)
(0 0 0.00411001)
(0 0 0.00413431)
(0 0 0.00415783)
(0 0 0.00418059)
(0 0 0.00420257)
(0 0 0.00422376)
(0 0 0.00424416)
(0 0 0.00426377)
(0 0 0.00428258)
(0 0 0.00430058)
(0 0 0.00431777)
(0 0 0.00433415)
(0 0 0.00434971)
(0 0 0.00436445)
(0 0 0.00437836)
(0 0 0.00439145)
(0 0 0.00440371)
(0 0 0.00441514)
(0 0 0.00442574)
(0 0 0.00443551)
(0 0 0.00444444)
(0 0 0.00445254)
(0 0 0.00445981)
(0 0 0.00446625)
(0 0 0.00447186)
(0 0 0.00447664)
(0 0 0.00448059)
(0 0 0.00448371)
(0 0 0.00448601)
(0 0 0.00448749)
(0 0 0.00448816)
(0 0 0.00448801)
(0 0 0.00448705)
(0 0 0.00448528)
(0 0 0.00448271)
(0 0 0.00447935)
(0 0 0.00447519)
(0 0 0.00447024)
(0 0 0.00446451)
(0 0 0.00445801)
(0 0 0.00445073)
(0 0 0.00444269)
(0 0 0.00443389)
(0 0 0.00442434)
(0 0 0.00441404)
(0 0 0.004403)
(0 0 0.00439123)
(0 0 0.00437873)
(0 0 0.00436551)
(0 0 0.00435158)
(0 0 0.00433695)
(0 0 0.00432162)
(0 0 0.00430561)
(0 0 0.00428891)
(0 0 0.00427154)
(0 0 0.0042535)
(0 0 0.00423481)
(0 0 0.00421547)
(0 0 0.00419548)
(0 0 0.00417486)
(0 0 0.00415362)
(0 0 0.00413176)
(0 0 0.0041093)
(0 0 0.00408623)
(0 0 0.00406257)
(0 0 0.00403833)
(0 0 0.00401352)
(0 0 0.00398814)
(0 0 0.0039622)
(0 0 0.00393571)
(0 0 0.00390868)
(0 0 0.00388112)
(0 0 0.00385304)
(0 0 0.00382444)
(0 0 0.00379533)
(0 0 0.00376573)
(0 0 0.00373564)
(0 0 0.00370506)
(0 0 0.00367401)
(0 0 0.0036425)
(0 0 0.00361054)
(0 0 0.00357812)
(0 0 0.00354527)
(0 0 0.00351198)
(0 0 0.00347827)
(0 0 0.00344415)
(0 0 0.00340962)
(0 0 0.0033747)
(0 0 0.00333938)
(0 0 0.00330368)
(0 0 0.00326761)
(0 0 0.00323117)
(0 0 0.00319438)
(0 0 0.00315723)
(0 0 0.00311974)
(0 0 0.00308192)
(0 0 0.00304377)
(0 0 0.00300531)
(0 0 0.00296653)
(0 0 0.00292745)
(0 0 0.00288807)
(0 0 0.0028484)
(0 0 0.00280845)
(0 0 0.00276822)
(0 0 0.00272773)
(0 0 0.00268698)
(0 0 0.00264597)
(0 0 0.00260472)
(0 0 0.00256323)
(0 0 0.0025215)
(0 0 0.00247955)
(0 0 0.00243738)
(0 0 0.002395)
(0 0 0.0023524)
(0 0 0.00230961)
(0 0 0.00226663)
(0 0 0.00222345)
(0 0 0.00218009)
(0 0 0.00213656)
(0 0 0.00209285)
(0 0 0.00204898)
(0 0 0.00200495)
(0 0 0.00196077)
(0 0 0.00191643)
(0 0 0.00187195)
(0 0 0.00182734)
(0 0 0.00178259)
(0 0 0.00173771)
(0 0 0.00169271)
(0 0 0.00164759)
(0 0 0.00160235)
(0 0 0.00155701)
(0 0 0.00151156)
(0 0 0.00146601)
(0 0 0.00142036)
(0 0 0.00137462)
(0 0 0.00132879)
(0 0 0.00128287)
(0 0 0.00123688)
(0 0 0.00119081)
(0 0 0.00114466)
(0 0 0.00109845)
(0 0 0.00105217)
(0 0 0.00100582)
(0 0 0.000959419)
(0 0 0.000912959)
(0 0 0.000866447)
(0 0 0.000819885)
(0 0 0.000773276)
(0 0 0.000726623)
(0 0 0.00067993)
(0 0 0.000633199)
(0 0 0.000586432)
(0 0 0.000539634)
(0 0 0.000492806)
(0 0 0.000445952)
(0 0 0.000399074)
(0 0 0.000352174)
(0 0 0.000305255)
(0 0 0.00025832)
(0 0 0.000211371)
(0 0 0.000164411)
(0 0 0.000117443)
(0 0 7.04682e-05)
(0 0 2.34898e-05)
(0 0 4.39937e-05)
(0 0 0.000131978)
(0 0 0.000219955)
(0 0 0.000307919)
(0 0 0.000395865)
(0 0 0.000483788)
(0 0 0.000571682)
(0 0 0.000659542)
(0 0 0.000747362)
(0 0 0.000835137)
(0 0 0.000922861)
(0 0 0.00101053)
(0 0 0.00109813)
(0 0 0.00118567)
(0 0 0.00127313)
(0 0 0.00136051)
(0 0 0.0014478)
(0 0 0.001535)
(0 0 0.00162209)
(0 0 0.00170908)
(0 0 0.00179594)
(0 0 0.00188268)
(0 0 0.00196929)
(0 0 0.00205576)
(0 0 0.00214208)
(0 0 0.00222824)
(0 0 0.00231423)
(0 0 0.00240004)
(0 0 0.00248567)
(0 0 0.0025711)
(0 0 0.00265632)
(0 0 0.00274132)
(0 0 0.00282609)
(0 0 0.00291062)
(0 0 0.0029949)
(0 0 0.00307891)
(0 0 0.00316264)
(0 0 0.00324608)
(0 0 0.00332922)
(0 0 0.00341204)
(0 0 0.00349453)
(0 0 0.00357668)
(0 0 0.00365846)
(0 0 0.00373987)
(0 0 0.00382088)
(0 0 0.00390149)
(0 0 0.00398168)
(0 0 0.00406143)
(0 0 0.00414072)
(0 0 0.00421954)
(0 0 0.00429787)
(0 0 0.00437569)
(0 0 0.00445299)
(0 0 0.00452974)
(0 0 0.00460593)
(0 0 0.00468154)
(0 0 0.00475655)
(0 0 0.00483094)
(0 0 0.00490469)
(0 0 0.00497778)
(0 0 0.0050502)
(0 0 0.00512192)
(0 0 0.00519292)
(0 0 0.00526318)
(0 0 0.00533269)
(0 0 0.00540142)
(0 0 0.00546935)
(0 0 0.00553646)
(0 0 0.00560273)
(0 0 0.00566815)
(0 0 0.00573268)
(0 0 0.00579632)
(0 0 0.00585903)
(0 0 0.00592081)
(0 0 0.00598163)
(0 0 0.00604147)
(0 0 0.00610031)
(0 0 0.00615813)
(0 0 0.00621492)
(0 0 0.00627065)
(0 0 0.00632531)
(0 0 0.00637888)
(0 0 0.00643134)
(0 0 0.00648267)
(0 0 0.00653286)
(0 0 0.00658189)
(0 0 0.00662975)
(0 0 0.00667641)
(0 0 0.00672187)
(0 0 0.00676611)
(0 0 0.00680911)
(0 0 0.00685086)
(0 0 0.00689136)
(0 0 0.00693058)
(0 0 0.00696851)
(0 0 0.00700515)
(0 0 0.00704048)
(0 0 0.00707449)
(0 0 0.00710718)
(0 0 0.00713853)
(0 0 0.00716853)
(0 0 0.00719719)
(0 0 0.00722449)
(0 0 0.00725043)
(0 0 0.007275)
(0 0 0.00729819)
(0 0 0.00732001)
(0 0 0.00734044)
(0 0 0.00735949)
(0 0 0.00737716)
(0 0 0.00739344)
(0 0 0.00740833)
(0 0 0.00742183)
(0 0 0.00743395)
(0 0 0.00744467)
(0 0 0.00745402)
(0 0 0.00746198)
(0 0 0.00746856)
(0 0 0.00747376)
(0 0 0.0074776)
(0 0 0.00748006)
(0 0 0.00748117)
(0 0 0.00748091)
(0 0 0.00747931)
(0 0 0.00747636)
(0 0 0.00747207)
(0 0 0.00746646)
(0 0 0.00745952)
(0 0 0.00745127)
(0 0 0.00744172)
(0 0 0.00743087)
(0 0 0.00741874)
(0 0 0.00740533)
(0 0 0.00739065)
(0 0 0.00737472)
(0 0 0.00735755)
(0 0 0.00733914)
(0 0 0.00731952)
(0 0 0.00729868)
(0 0 0.00727664)
(0 0 0.00725342)
(0 0 0.00722903)
(0 0 0.00720347)
(0 0 0.00717677)
(0 0 0.00714893)
(0 0 0.00711997)
(0 0 0.0070899)
(0 0 0.00705874)
(0 0 0.00702649)
(0 0 0.00699317)
(0 0 0.0069588)
(0 0 0.00692339)
(0 0 0.00688695)
(0 0 0.0068495)
(0 0 0.00681104)
(0 0 0.00677161)
(0 0 0.00673119)
(0 0 0.00668983)
(0 0 0.00664752)
(0 0 0.00660428)
(0 0 0.00656012)
(0 0 0.00651506)
(0 0 0.00646912)
(0 0 0.0064223)
(0 0 0.00637463)
(0 0 0.00632611)
(0 0 0.00627676)
(0 0 0.0062266)
(0 0 0.00617563)
(0 0 0.00612387)
(0 0 0.00607134)
(0 0 0.00601806)
(0 0 0.00596402)
(0 0 0.00590926)
(0 0 0.00585377)
(0 0 0.00579758)
(0 0 0.0057407)
(0 0 0.00568315)
(0 0 0.00562493)
(0 0 0.00556606)
(0 0 0.00550655)
(0 0 0.00544642)
(0 0 0.00538569)
(0 0 0.00532435)
(0 0 0.00526243)
(0 0 0.00519995)
(0 0 0.0051369)
(0 0 0.00507331)
(0 0 0.00500919)
(0 0 0.00494455)
(0 0 0.00487941)
(0 0 0.00481377)
(0 0 0.00474764)
(0 0 0.00468105)
(0 0 0.004614)
(0 0 0.00454651)
(0 0 0.00447858)
(0 0 0.00441023)
(0 0 0.00434147)
(0 0 0.00427231)
(0 0 0.00420276)
(0 0 0.00413283)
(0 0 0.00406254)
(0 0 0.00399189)
(0 0 0.0039209)
(0 0 0.00384957)
(0 0 0.00377792)
(0 0 0.00370595)
(0 0 0.00363368)
(0 0 0.00356112)
(0 0 0.00348827)
(0 0 0.00341515)
(0 0 0.00334176)
(0 0 0.00326811)
(0 0 0.00319421)
(0 0 0.00312008)
(0 0 0.00304571)
(0 0 0.00297113)
(0 0 0.00289632)
(0 0 0.00282132)
(0 0 0.00274611)
(0 0 0.00267071)
(0 0 0.00259513)
(0 0 0.00251938)
(0 0 0.00244345)
(0 0 0.00236737)
(0 0 0.00229113)
(0 0 0.00221474)
(0 0 0.00213822)
(0 0 0.00206155)
(0 0 0.00198476)
(0 0 0.00190785)
(0 0 0.00183082)
(0 0 0.00175368)
(0 0 0.00167644)
(0 0 0.00159909)
(0 0 0.00152166)
(0 0 0.00144413)
(0 0 0.00136653)
(0 0 0.00128884)
(0 0 0.00121108)
(0 0 0.00113326)
(0 0 0.00105537)
(0 0 0.000977423)
(0 0 0.000899423)
(0 0 0.000821374)
(0 0 0.00074328)
(0 0 0.000665147)
(0 0 0.000586977)
(0 0 0.000508776)
(0 0 0.000430549)
(0 0 0.000352298)
(0 0 0.000274029)
(0 0 0.000195745)
(0 0 0.000117451)
(0 0 3.91511e-05)
(0 0 6.15947e-05)
(0 0 0.000184781)
(0 0 0.000307956)
(0 0 0.000431113)
(0 0 0.000554244)
(0 0 0.000677343)
(0 0 0.000800403)
(0 0 0.000923414)
(0 0 0.00104637)
(0 0 0.00116926)
(0 0 0.00129209)
(0 0 0.00141483)
(0 0 0.00153748)
(0 0 0.00166004)
(0 0 0.0017825)
(0 0 0.00190484)
(0 0 0.00202706)
(0 0 0.00214914)
(0 0 0.00227108)
(0 0 0.00239287)
(0 0 0.00251449)
(0 0 0.00263594)
(0 0 0.00275721)
(0 0 0.00287828)
(0 0 0.00299913)
(0 0 0.00311977)
(0 0 0.00324017)
(0 0 0.00336032)
(0 0 0.00348021)
(0 0 0.00359983)
(0 0 0.00371915)
(0 0 0.00383817)
(0 0 0.00395686)
(0 0 0.00407522)
(0 0 0.00419323)
(0 0 0.00431086)
(0 0 0.00442811)
(0 0 0.00454494)
(0 0 0.00466136)
(0 0 0.00477733)
(0 0 0.00489283)
(0 0 0.00500785)
(0 0 0.00512237)
(0 0 0.00523636)
(0 0 0.00534981)
(0 0 0.00546268)
(0 0 0.00557497)
(0 0 0.00568664)
(0 0 0.00579767)
(0 0 0.00590804)
(0 0 0.00601773)
(0 0 0.0061267)
(0 0 0.00623494)
(0 0 0.00634242)
(0 0 0.00644911)
(0 0 0.00655499)
(0 0 0.00666003)
(0 0 0.0067642)
(0 0 0.00686748)
(0 0 0.00696984)
(0 0 0.00707125)
(0 0 0.00717169)
(0 0 0.00727112)
(0 0 0.00736952)
(0 0 0.00746685)
(0 0 0.0075631)
(0 0 0.00765823)
(0 0 0.00775222)
(0 0 0.00784503)
(0 0 0.00793664)
(0 0 0.00802701)
(0 0 0.00811613)
(0 0 0.00820396)
(0 0 0.00829048)
(0 0 0.00837565)
(0 0 0.00845945)
(0 0 0.00854186)
(0 0 0.00862284)
(0 0 0.00870236)
(0 0 0.00878042)
(0 0 0.00885696)
(0 0 0.00893198)
(0 0 0.00900545)
(0 0 0.00907734)
(0 0 0.00914763)
(0 0 0.0092163)
(0 0 0.00928332)
(0 0 0.00934867)
(0 0 0.00941233)
(0 0 0.00947428)
(0 0 0.0095345)
(0 0 0.00959298)
(0 0 0.00964968)
(0 0 0.00970461)
(0 0 0.00975773)
(0 0 0.00980904)
(0 0 0.00985851)
(0 0 0.00990614)
(0 0 0.00995192)
(0 0 0.00999582)
(0 0 0.0100378)
(0 0 0.010078)
(0 0 0.0101162)
(0 0 0.0101525)
(0 0 0.0101869)
(0 0 0.0102194)
(0 0 0.0102499)
(0 0 0.0102786)
(0 0 0.0103052)
(0 0 0.01033)
(0 0 0.0103528)
(0 0 0.0103736)
(0 0 0.0103925)
(0 0 0.0104095)
(0 0 0.0104245)
(0 0 0.0104376)
(0 0 0.0104487)
(0 0 0.0104579)
(0 0 0.0104652)
(0 0 0.0104706)
(0 0 0.010474)
(0 0 0.0104755)
(0 0 0.0104752)
(0 0 0.0104729)
(0 0 0.0104688)
(0 0 0.0104628)
(0 0 0.0104549)
(0 0 0.0104452)
(0 0 0.0104336)
(0 0 0.0104202)
(0 0 0.010405)
(0 0 0.010388)
(0 0 0.0103692)
(0 0 0.0103487)
(0 0 0.0103264)
(0 0 0.0103023)
(0 0 0.0102765)
(0 0 0.010249)
(0 0 0.0102198)
(0 0 0.010189)
(0 0 0.0101564)
(0 0 0.0101223)
(0 0 0.0100865)
(0 0 0.0100491)
(0 0 0.0100101)
(0 0 0.00996951)
(0 0 0.0099274)
(0 0 0.00988375)
(0 0 0.00983858)
(0 0 0.00979192)
(0 0 0.00974378)
(0 0 0.00969418)
(0 0 0.00964315)
(0 0 0.0095907)
(0 0 0.00953684)
(0 0 0.00948161)
(0 0 0.00942501)
(0 0 0.00936708)
(0 0 0.00930782)
(0 0 0.00924727)
(0 0 0.00918543)
(0 0 0.00912233)
(0 0 0.00905799)
(0 0 0.00899243)
(0 0 0.00892566)
(0 0 0.00885772)
(0 0 0.00878861)
(0 0 0.00871836)
(0 0 0.00864698)
(0 0 0.00857451)
(0 0 0.00850095)
(0 0 0.00842632)
(0 0 0.00835066)
(0 0 0.00827396)
(0 0 0.00819627)
(0 0 0.00811758)
(0 0 0.00803793)
(0 0 0.00795733)
(0 0 0.00787581)
(0 0 0.00779337)
(0 0 0.00771004)
(0 0 0.00762585)
(0 0 0.00754079)
(0 0 0.00745491)
(0 0 0.00736821)
(0 0 0.0072807)
(0 0 0.00719242)
(0 0 0.00710338)
(0 0 0.00701359)
(0 0 0.00692308)
(0 0 0.00683186)
(0 0 0.00673995)
(0 0 0.00664736)
(0 0 0.00655411)
(0 0 0.00646023)
(0 0 0.00636572)
(0 0 0.0062706)
(0 0 0.0061749)
(0 0 0.00607861)
(0 0 0.00598177)
(0 0 0.00588439)
(0 0 0.00578648)
(0 0 0.00568805)
(0 0 0.00558913)
(0 0 0.00548973)
(0 0 0.00538985)
(0 0 0.00528953)
(0 0 0.00518876)
(0 0 0.00508757)
(0 0 0.00498597)
(0 0 0.00488397)
(0 0 0.00478158)
(0 0 0.00467882)
(0 0 0.0045757)
(0 0 0.00447223)
(0 0 0.00436843)
(0 0 0.00426431)
(0 0 0.00415988)
(0 0 0.00405514)
(0 0 0.00395012)
(0 0 0.00384482)
(0 0 0.00373925)
(0 0 0.00363343)
(0 0 0.00352736)
(0 0 0.00342106)
(0 0 0.00331453)
(0 0 0.00320779)
(0 0 0.00310084)
(0 0 0.00299369)
(0 0 0.00288635)
(0 0 0.00277884)
(0 0 0.00267115)
(0 0 0.0025633)
(0 0 0.0024553)
(0 0 0.00234715)
(0 0 0.00223886)
(0 0 0.00213044)
(0 0 0.0020219)
(0 0 0.00191325)
(0 0 0.00180448)
(0 0 0.00169561)
(0 0 0.00158665)
(0 0 0.0014776)
(0 0 0.00136847)
(0 0 0.00125926)
(0 0 0.00114999)
(0 0 0.00104065)
(0 0 0.000931255)
(0 0 0.000821812)
(0 0 0.000712325)
(0 0 0.0006028)
(0 0 0.000493243)
(0 0 0.000383661)
(0 0 0.000274058)
(0 0 0.00016444)
(0 0 5.48144e-05)
(0 0 7.91994e-05)
(0 0 0.000237594)
(0 0 0.000395974)
(0 0 0.000554331)
(0 0 0.000712656)
(0 0 0.000870939)
(0 0 0.00102917)
(0 0 0.00118734)
(0 0 0.00134544)
(0 0 0.00150346)
(0 0 0.00166139)
(0 0 0.00181922)
(0 0 0.00197693)
(0 0 0.00213452)
(0 0 0.00229198)
(0 0 0.00244929)
(0 0 0.00260644)
(0 0 0.00276343)
(0 0 0.00292023)
(0 0 0.00307683)
(0 0 0.00323322)
(0 0 0.00338939)
(0 0 0.00354532)
(0 0 0.003701)
(0 0 0.00385641)
(0 0 0.00401154)
(0 0 0.00416636)
(0 0 0.00432086)
(0 0 0.00447503)
(0 0 0.00462885)
(0 0 0.00478229)
(0 0 0.00493534)
(0 0 0.00508798)
(0 0 0.00524018)
(0 0 0.00539193)
(0 0 0.0055432)
(0 0 0.00569398)
(0 0 0.00584423)
(0 0 0.00599394)
(0 0 0.00614307)
(0 0 0.00629162)
(0 0 0.00643954)
(0 0 0.00658681)
(0 0 0.00673341)
(0 0 0.0068793)
(0 0 0.00702447)
(0 0 0.00716887)
(0 0 0.00731249)
(0 0 0.00745528)
(0 0 0.00759723)
(0 0 0.0077383)
(0 0 0.00787845)
(0 0 0.00801766)
(0 0 0.00815589)
(0 0 0.00829311)
(0 0 0.00842929)
(0 0 0.00856438)
(0 0 0.00869837)
(0 0 0.0088312)
(0 0 0.00896286)
(0 0 0.00909329)
(0 0 0.00922247)
(0 0 0.00935035)
(0 0 0.00947691)
(0 0 0.00960211)
(0 0 0.00972591)
(0 0 0.00984827)
(0 0 0.00996915)
(0 0 0.0100885)
(0 0 0.0102064)
(0 0 0.0103226)
(0 0 0.0104372)
(0 0 0.0105502)
(0 0 0.0106615)
(0 0 0.010771)
(0 0 0.0108788)
(0 0 0.0109848)
(0 0 0.011089)
(0 0 0.0111913)
(0 0 0.0112917)
(0 0 0.0113901)
(0 0 0.0114866)
(0 0 0.0115811)
(0 0 0.0116736)
(0 0 0.011764)
(0 0 0.0118523)
(0 0 0.0119386)
(0 0 0.0120226)
(0 0 0.0121045)
(0 0 0.0121842)
(0 0 0.0122616)
(0 0 0.0123369)
(0 0 0.0124098)
(0 0 0.0124804)
(0 0 0.0125488)
(0 0 0.0126148)
(0 0 0.0126784)
(0 0 0.0127397)
(0 0 0.0127985)
(0 0 0.012855)
(0 0 0.012909)
(0 0 0.0129607)
(0 0 0.0130098)
(0 0 0.0130565)
(0 0 0.0131008)
(0 0 0.0131425)
(0 0 0.0131818)
(0 0 0.0132186)
(0 0 0.0132529)
(0 0 0.0132847)
(0 0 0.013314)
(0 0 0.0133408)
(0 0 0.0133651)
(0 0 0.0133869)
(0 0 0.0134062)
(0 0 0.013423)
(0 0 0.0134374)
(0 0 0.0134492)
(0 0 0.0134585)
(0 0 0.0134654)
(0 0 0.0134698)
(0 0 0.0134718)
(0 0 0.0134713)
(0 0 0.0134684)
(0 0 0.0134631)
(0 0 0.0134553)
(0 0 0.0134452)
(0 0 0.0134327)
(0 0 0.0134178)
(0 0 0.0134005)
(0 0 0.013381)
(0 0 0.0133591)
(0 0 0.0133349)
(0 0 0.0133084)
(0 0 0.0132797)
(0 0 0.0132488)
(0 0 0.0132156)
(0 0 0.0131802)
(0 0 0.0131427)
(0 0 0.0131029)
(0 0 0.0130611)
(0 0 0.0130171)
(0 0 0.0129711)
(0 0 0.012923)
(0 0 0.0128728)
(0 0 0.0128206)
(0 0 0.0127664)
(0 0 0.0127103)
(0 0 0.0126522)
(0 0 0.0125921)
(0 0 0.0125302)
(0 0 0.0124664)
(0 0 0.0124008)
(0 0 0.0123333)
(0 0 0.012264)
(0 0 0.012193)
(0 0 0.0121202)
(0 0 0.0120457)
(0 0 0.0119694)
(0 0 0.0118915)
(0 0 0.011812)
(0 0 0.0117308)
(0 0 0.0116481)
(0 0 0.0115638)
(0 0 0.0114779)
(0 0 0.0113905)
(0 0 0.0113016)
(0 0 0.0112112)
(0 0 0.0111194)
(0 0 0.0110262)
(0 0 0.0109316)
(0 0 0.0108356)
(0 0 0.0107383)
(0 0 0.0106397)
(0 0 0.0105397)
(0 0 0.0104385)
(0 0 0.0103361)
(0 0 0.0102324)
(0 0 0.0101276)
(0 0 0.0100216)
(0 0 0.00991441)
(0 0 0.00980612)
(0 0 0.00969674)
(0 0 0.00958628)
(0 0 0.00947477)
(0 0 0.00936224)
(0 0 0.00924871)
(0 0 0.00913419)
(0 0 0.00901872)
(0 0 0.00890232)
(0 0 0.008785)
(0 0 0.0086668)
(0 0 0.00854773)
(0 0 0.00842781)
(0 0 0.00830708)
(0 0 0.00818554)
(0 0 0.00806322)
(0 0 0.00794014)
(0 0 0.00781632)
(0 0 0.00769178)
(0 0 0.00756655)
(0 0 0.00744063)
(0 0 0.00731406)
(0 0 0.00718685)
(0 0 0.00705902)
(0 0 0.00693059)
(0 0 0.00680157)
(0 0 0.00667199)
(0 0 0.00654187)
(0 0 0.00641121)
(0 0 0.00628004)
(0 0 0.00614838)
(0 0 0.00601624)
(0 0 0.00588364)
(0 0 0.00575059)
(0 0 0.00561711)
(0 0 0.00548322)
(0 0 0.00534892)
(0 0 0.00521425)
(0 0 0.0050792)
(0 0 0.0049438)
(0 0 0.00480805)
(0 0 0.00467197)
(0 0 0.00453559)
(0 0 0.00439889)
(0 0 0.00426191)
(0 0 0.00412465)
(0 0 0.00398713)
(0 0 0.00384935)
(0 0 0.00371133)
(0 0 0.00357308)
(0 0 0.00343462)
(0 0 0.00329594)
(0 0 0.00315706)
(0 0 0.003018)
(0 0 0.00287876)
(0 0 0.00273935)
(0 0 0.00259979)
(0 0 0.00246007)
(0 0 0.00232022)
(0 0 0.00218024)
(0 0 0.00204013)
(0 0 0.00189991)
(0 0 0.00175959)
(0 0 0.00161917)
(0 0 0.00147866)
(0 0 0.00133807)
(0 0 0.00119741)
(0 0 0.00105669)
(0 0 0.000915911)
(0 0 0.000775083)
(0 0 0.000634215)
(0 0 0.000493312)
(0 0 0.000352384)
(0 0 0.000211438)
(0 0 7.04805e-05)
(0 0 9.68087e-05)
(0 0 0.000290421)
(0 0 0.000484016)
(0 0 0.000677583)
(0 0 0.00087111)
(0 0 0.00106459)
(0 0 0.001258)
(0 0 0.00145134)
(0 0 0.00164459)
(0 0 0.00183775)
(0 0 0.0020308)
(0 0 0.00222372)
(0 0 0.0024165)
(0 0 0.00260914)
(0 0 0.00280161)
(0 0 0.0029939)
(0 0 0.003186)
(0 0 0.0033779)
(0 0 0.00356957)
(0 0 0.003761)
(0 0 0.00395217)
(0 0 0.00414308)
(0 0 0.00433369)
(0 0 0.004524)
(0 0 0.00471397)
(0 0 0.0049036)
(0 0 0.00509287)
(0 0 0.00528174)
(0 0 0.00547021)
(0 0 0.00565824)
(0 0 0.00584582)
(0 0 0.00603293)
(0 0 0.00621952)
(0 0 0.0064056)
(0 0 0.00659111)
(0 0 0.00677605)
(0 0 0.00696037)
(0 0 0.00714407)
(0 0 0.00732709)
(0 0 0.00750942)
(0 0 0.00769102)
(0 0 0.00787187)
(0 0 0.00805192)
(0 0 0.00823115)
(0 0 0.00840953)
(0 0 0.00858701)
(0 0 0.00876356)
(0 0 0.00893916)
(0 0 0.00911375)
(0 0 0.0092873)
(0 0 0.00945978)
(0 0 0.00963115)
(0 0 0.00980136)
(0 0 0.00997038)
(0 0 0.0101382)
(0 0 0.0103047)
(0 0 0.0104699)
(0 0 0.0106337)
(0 0 0.0107961)
(0 0 0.0109571)
(0 0 0.0111166)
(0 0 0.0112745)
(0 0 0.0114309)
(0 0 0.0115857)
(0 0 0.0117388)
(0 0 0.0118901)
(0 0 0.0120398)
(0 0 0.0121876)
(0 0 0.0123336)
(0 0 0.0124777)
(0 0 0.0126198)
(0 0 0.01276)
(0 0 0.0128981)
(0 0 0.0130342)
(0 0 0.0131682)
(0 0 0.0133)
(0 0 0.0134296)
(0 0 0.013557)
(0 0 0.0136821)
(0 0 0.0138049)
(0 0 0.0139253)
(0 0 0.0140433)
(0 0 0.0141589)
(0 0 0.0142719)
(0 0 0.0143825)
(0 0 0.0144905)
(0 0 0.0145959)
(0 0 0.0146987)
(0 0 0.0147989)
(0 0 0.0148963)
(0 0 0.014991)
(0 0 0.015083)
(0 0 0.0151722)
(0 0 0.0152586)
(0 0 0.0153421)
(0 0 0.0154228)
(0 0 0.0155007)
(0 0 0.0155756)
(0 0 0.0156475)
(0 0 0.0157166)
(0 0 0.0157827)
(0 0 0.0158458)
(0 0 0.0159059)
(0 0 0.015963)
(0 0 0.0160171)
(0 0 0.0160682)
(0 0 0.0161162)
(0 0 0.0161612)
(0 0 0.0162031)
(0 0 0.016242)
(0 0 0.0162778)
(0 0 0.0163105)
(0 0 0.0163403)
(0 0 0.0163669)
(0 0 0.0163905)
(0 0 0.016411)
(0 0 0.0164285)
(0 0 0.016443)
(0 0 0.0164544)
(0 0 0.0164628)
(0 0 0.0164681)
(0 0 0.0164705)
(0 0 0.0164699)
(0 0 0.0164663)
(0 0 0.0164598)
(0 0 0.0164503)
(0 0 0.0164378)
(0 0 0.0164225)
(0 0 0.0164043)
(0 0 0.0163832)
(0 0 0.0163592)
(0 0 0.0163325)
(0 0 0.0163029)
(0 0 0.0162705)
(0 0 0.0162353)
(0 0 0.0161975)
(0 0 0.0161569)
(0 0 0.0161136)
(0 0 0.0160676)
(0 0 0.0160191)
(0 0 0.0159679)
(0 0 0.0159141)
(0 0 0.0158577)
(0 0 0.0157989)
(0 0 0.0157375)
(0 0 0.0156737)
(0 0 0.0156074)
(0 0 0.0155387)
(0 0 0.0154677)
(0 0 0.0153943)
(0 0 0.0153185)
(0 0 0.0152405)
(0 0 0.0151602)
(0 0 0.0150777)
(0 0 0.014993)
(0 0 0.0149061)
(0 0 0.0148171)
(0 0 0.0147259)
(0 0 0.0146327)
(0 0 0.0145375)
(0 0 0.0144402)
(0 0 0.0143409)
(0 0 0.0142397)
(0 0 0.0141366)
(0 0 0.0140316)
(0 0 0.0139247)
(0 0 0.0138161)
(0 0 0.0137056)
(0 0 0.0135933)
(0 0 0.0134793)
(0 0 0.0133636)
(0 0 0.0132463)
(0 0 0.0131273)
(0 0 0.0130067)
(0 0 0.0128845)
(0 0 0.0127608)
(0 0 0.0126355)
(0 0 0.0125088)
(0 0 0.0123806)
(0 0 0.0122509)
(0 0 0.0121199)
(0 0 0.0119875)
(0 0 0.0118538)
(0 0 0.0117187)
(0 0 0.0115824)
(0 0 0.0114448)
(0 0 0.011306)
(0 0 0.011166)
(0 0 0.0110248)
(0 0 0.0108825)
(0 0 0.010739)
(0 0 0.0105945)
(0 0 0.0104489)
(0 0 0.0103023)
(0 0 0.0101547)
(0 0 0.0100061)
(0 0 0.00985659)
(0 0 0.00970612)
(0 0 0.00955474)
(0 0 0.00940249)
(0 0 0.00924938)
(0 0 0.00909545)
(0 0 0.00894071)
(0 0 0.00878519)
(0 0 0.00862892)
(0 0 0.00847191)
(0 0 0.00831418)
(0 0 0.00815577)
(0 0 0.00799669)
(0 0 0.00783697)
(0 0 0.00767662)
(0 0 0.00751566)
(0 0 0.00735412)
(0 0 0.00719202)
(0 0 0.00702937)
(0 0 0.0068662)
(0 0 0.00670252)
(0 0 0.00653836)
(0 0 0.00637372)
(0 0 0.00620864)
(0 0 0.00604311)
(0 0 0.00587717)
(0 0 0.00571083)
(0 0 0.00554411)
(0 0 0.00537701)
(0 0 0.00520957)
(0 0 0.00504178)
(0 0 0.00487367)
(0 0 0.00470526)
(0 0 0.00453654)
(0 0 0.00436755)
(0 0 0.00419829)
(0 0 0.00402877)
(0 0 0.00385902)
(0 0 0.00368903)
(0 0 0.00351883)
(0 0 0.00334842)
(0 0 0.00317782)
(0 0 0.00300704)
(0 0 0.00283609)
(0 0 0.00266498)
(0 0 0.00249372)
(0 0 0.00232233)
(0 0 0.0021508)
(0 0 0.00197916)
(0 0 0.00180741)
(0 0 0.00163557)
(0 0 0.00146364)
(0 0 0.00129162)
(0 0 0.00111955)
(0 0 0.000947407)
(0 0 0.000775219)
(0 0 0.00060299)
(0 0 0.00043073)
(0 0 0.000258447)
(0 0 8.61504e-05)
(0 0 0.000114424)
(0 0 0.000343264)
(0 0 0.000572085)
(0 0 0.000800873)
(0 0 0.00102961)
(0 0 0.0012583)
(0 0 0.00148691)
(0 0 0.00171543)
(0 0 0.00194385)
(0 0 0.00217215)
(0 0 0.00240033)
(0 0 0.00262835)
(0 0 0.00285622)
(0 0 0.00308391)
(0 0 0.00331141)
(0 0 0.0035387)
(0 0 0.00376577)
(0 0 0.00399259)
(0 0 0.00421915)
(0 0 0.00444542)
(0 0 0.0046714)
(0 0 0.00489706)
(0 0 0.00512237)
(0 0 0.00534732)
(0 0 0.00557189)
(0 0 0.00579604)
(0 0 0.00601977)
(0 0 0.00624303)
(0 0 0.00646582)
(0 0 0.0066881)
(0 0 0.00690984)
(0 0 0.00713102)
(0 0 0.0073516)
(0 0 0.00757156)
(0 0 0.00779087)
(0 0 0.0080095)
(0 0 0.00822741)
(0 0 0.00844457)
(0 0 0.00866094)
(0 0 0.00887649)
(0 0 0.00909119)
(0 0 0.00930499)
(0 0 0.00951786)
(0 0 0.00972976)
(0 0 0.00994065)
(0 0 0.0101505)
(0 0 0.0103592)
(0 0 0.0105668)
(0 0 0.0107733)
(0 0 0.0109785)
(0 0 0.0111824)
(0 0 0.011385)
(0 0 0.0115863)
(0 0 0.0117861)
(0 0 0.0119845)
(0 0 0.0121814)
(0 0 0.0123767)
(0 0 0.0125704)
(0 0 0.0127625)
(0 0 0.0129528)
(0 0 0.0131414)
(0 0 0.0133282)
(0 0 0.0135131)
(0 0 0.0136961)
(0 0 0.0138771)
(0 0 0.0140561)
(0 0 0.0142331)
(0 0 0.0144079)
(0 0 0.0145805)
(0 0 0.0147509)
(0 0 0.014919)
(0 0 0.0150848)
(0 0 0.0152482)
(0 0 0.0154091)
(0 0 0.0155675)
(0 0 0.0157234)
(0 0 0.0158767)
(0 0 0.0160273)
(0 0 0.0161753)
(0 0 0.0163205)
(0 0 0.0164629)
(0 0 0.0166024)
(0 0 0.0167391)
(0 0 0.0168728)
(0 0 0.0170036)
(0 0 0.0171313)
(0 0 0.017256)
(0 0 0.0173775)
(0 0 0.0174959)
(0 0 0.0176112)
(0 0 0.0177232)
(0 0 0.0178319)
(0 0 0.0179374)
(0 0 0.0180396)
(0 0 0.0181384)
(0 0 0.0182338)
(0 0 0.0183258)
(0 0 0.0184144)
(0 0 0.0184995)
(0 0 0.0185812)
(0 0 0.0186593)
(0 0 0.0187339)
(0 0 0.018805)
(0 0 0.0188725)
(0 0 0.0189364)
(0 0 0.0189968)
(0 0 0.0190536)
(0 0 0.0191068)
(0 0 0.0191563)
(0 0 0.0192023)
(0 0 0.0192446)
(0 0 0.0192833)
(0 0 0.0193184)
(0 0 0.0193499)
(0 0 0.0193778)
(0 0 0.019402)
(0 0 0.0194227)
(0 0 0.0194397)
(0 0 0.0194532)
(0 0 0.0194631)
(0 0 0.0194694)
(0 0 0.0194722)
(0 0 0.0194715)
(0 0 0.0194672)
(0 0 0.0194594)
(0 0 0.0194481)
(0 0 0.0194334)
(0 0 0.0194153)
(0 0 0.0193937)
(0 0 0.0193687)
(0 0 0.0193403)
(0 0 0.0193086)
(0 0 0.0192736)
(0 0 0.0192353)
(0 0 0.0191937)
(0 0 0.0191489)
(0 0 0.0191008)
(0 0 0.0190496)
(0 0 0.0189953)
(0 0 0.0189378)
(0 0 0.0188772)
(0 0 0.0188136)
(0 0 0.0187469)
(0 0 0.0186773)
(0 0 0.0186047)
(0 0 0.0185292)
(0 0 0.0184508)
(0 0 0.0183696)
(0 0 0.0182855)
(0 0 0.0181987)
(0 0 0.0181091)
(0 0 0.0180168)
(0 0 0.0179219)
(0 0 0.0178243)
(0 0 0.0177241)
(0 0 0.0176213)
(0 0 0.017516)
(0 0 0.0174083)
(0 0 0.017298)
(0 0 0.0171854)
(0 0 0.0170704)
(0 0 0.016953)
(0 0 0.0168333)
(0 0 0.0167114)
(0 0 0.0165872)
(0 0 0.0164608)
(0 0 0.0163323)
(0 0 0.0162017)
(0 0 0.0160689)
(0 0 0.0159341)
(0 0 0.0157973)
(0 0 0.0156586)
(0 0 0.0155179)
(0 0 0.0153753)
(0 0 0.0152308)
(0 0 0.0150845)
(0 0 0.0149364)
(0 0 0.0147865)
(0 0 0.0146349)
(0 0 0.0144817)
(0 0 0.0143267)
(0 0 0.0141702)
(0 0 0.0140121)
(0 0 0.0138524)
(0 0 0.0136912)
(0 0 0.0135285)
(0 0 0.0133644)
(0 0 0.0131989)
(0 0 0.013032)
(0 0 0.0128637)
(0 0 0.0126942)
(0 0 0.0125233)
(0 0 0.0123512)
(0 0 0.0121779)
(0 0 0.0120034)
(0 0 0.0118277)
(0 0 0.0116509)
(0 0 0.011473)
(0 0 0.011294)
(0 0 0.011114)
(0 0 0.010933)