/*--------------------------------*- C++ -*----------------------------------*\
| =========                 |                                                 |
| \\      /  F ield         | OpenFOAM: The Open Source CFD Toolbox           |
|  \\    /   O peration     | Version:  v2012                                 |
|   \\  /    A nd           | Website:  www.openfoam.com                      |
|    \\/     M anipulation  |                                                 |
\*---------------------------------------------------------------------------*/
FoamFile
{
    version     2.0;
    format      ascii;
    class       volVectorField;
    location    "3";
    object      U;
}
// * * * * * * * * * * * * * * * * * * * * * * * * * * * * * * * * * * * * * //

dimensions      [0 1 -1 0 0 0 0];


internalField   nonuniform List<vector> 
65536
(
(0.000715659 -0.00071564 0)
(0.00214693 -0.000715595 0)
(0.00357808 -0.00071551 0)
(0.00500901 -0.000715382 0)
(0.00643965 -0.000715211 0)
(0.0078699 -0.000714997 0)
(0.00929967 -0.000714739 0)
(0.0107289 -0.000714435 0)
(0.0121575 -0.000714087 0)
(0.0135853 -0.000713691 0)
(0.0150123 -0.000713249 0)
(0.0164383 -0.000712757 0)
(0.0178633 -0.000712216 0)
(0.0192872 -0.000711624 0)
(0.0207099 -0.00071098 0)
(0.0221312 -0.000710282 0)
(0.0235511 -0.000709528 0)
(0.0249694 -0.000708717 0)
(0.026386 -0.000707847 0)
(0.0278008 -0.000706916 0)
(0.0292137 -0.000705922 0)
(0.0306246 -0.000704863 0)
(0.0320332 -0.000703738 0)
(0.0334396 -0.000702543 0)
(0.0348435 -0.000701276 0)
(0.0362447 -0.000699936 0)
(0.0376433 -0.000698519 0)
(0.0390389 -0.000697024 0)
(0.0404315 -0.000695448 0)
(0.0418208 -0.000693787 0)
(0.0432067 -0.00069204 0)
(0.044589 -0.000690204 0)
(0.0459676 -0.000688276 0)
(0.0473422 -0.000686253 0)
(0.0487127 -0.000684133 0)
(0.0500788 -0.000681912 0)
(0.0514404 -0.000679588 0)
(0.0527973 -0.000677158 0)
(0.0541492 -0.000674619 0)
(0.0554959 -0.000671969 0)
(0.0568372 -0.000669204 0)
(0.0581728 -0.000666321 0)
(0.0595026 -0.000663318 0)
(0.0608262 -0.000660192 0)
(0.0621435 -0.000656941 0)
(0.0634541 -0.00065356 0)
(0.0647578 -0.000650049 0)
(0.0660544 -0.000646404 0)
(0.0673436 -0.000642622 0)
(0.068625 -0.000638701 0)
(0.0698985 -0.000634639 0)
(0.0711637 -0.000630434 0)
(0.0724204 -0.000626082 0)
(0.0736682 -0.000621583 0)
(0.0749069 -0.000616934 0)
(0.0761361 -0.000612132 0)
(0.0773556 -0.000607177 0)
(0.078565 -0.000602067 0)
(0.079764 -0.000596799 0)
(0.0809523 -0.000591373 0)
(0.0821296 -0.000585788 0)
(0.0832956 -0.000580041 0)
(0.08445 -0.000574134 0)
(0.0855923 -0.000568063 0)
(0.0867224 -0.00056183 0)
(0.0878398 -0.000555433 0)
(0.0889443 -0.000548873 0)
(0.0900355 -0.000542149 0)
(0.091113 -0.000535261 0)
(0.0921767 -0.00052821 0)
(0.093226 -0.000520996 0)
(0.0942608 -0.000513621 0)
(0.0952807 -0.000506084 0)
(0.0962853 -0.000498387 0)
(0.0972744 -0.000490531 0)
(0.0982476 -0.000482519 0)
(0.0992046 -0.000474351 0)
(0.100145 -0.000466029 0)
(0.101069 -0.000457556 0)
(0.101976 -0.000448934 0)
(0.102865 -0.000440166 0)
(0.103736 -0.000431254 0)
(0.10459 -0.000422201 0)
(0.105425 -0.00041301 0)
(0.106242 -0.000403685 0)
(0.10704 -0.000394228 0)
(0.107819 -0.000384645 0)
(0.108579 -0.000374938 0)
(0.109319 -0.000365111 0)
(0.110039 -0.000355169 0)
(0.11074 -0.000345116 0)
(0.11142 -0.000334956 0)
(0.11208 -0.000324693 0)
(0.112719 -0.000314333 0)
(0.113337 -0.00030388 0)
(0.113934 -0.000293339 0)
(0.114511 -0.000282715 0)
(0.115065 -0.000272013 0)
(0.115599 -0.000261238 0)
(0.11611 -0.000250395 0)
(0.1166 -0.000239489 0)
(0.117068 -0.000228527 0)
(0.117515 -0.000217512 0)
(0.117939 -0.00020645 0)
(0.11834 -0.000195347 0)
(0.11872 -0.000184208 0)
(0.119077 -0.000173038 0)
(0.119412 -0.000161843 0)
(0.119725 -0.000150627 0)
(0.120015 -0.000139397 0)
(0.120282 -0.000128157 0)
(0.120527 -0.000116912 0)
(0.12075 -0.000105667 0)
(0.12095 -9.44277e-05 0)
(0.121128 -8.31988e-05 0)
(0.121283 -7.19851e-05 0)
(0.121416 -6.07912e-05 0)
(0.121526 -4.96218e-05 0)
(0.121614 -3.84815e-05 0)
(0.12168 -2.73747e-05 0)
(0.121723 -1.63056e-05 0)
(0.121745 -5.27859e-06 0)
(0.121745 5.70239e-06 0)
(0.121722 1.66334e-05 0)
(0.121678 2.75105e-05 0)
(0.121612 3.83301e-05 0)
(0.121525 4.90886e-05 0)
(0.121416 5.97826e-05 0)
(0.121285 7.04087e-05 0)
(0.121134 8.09639e-05 0)
(0.120961 9.14452e-05 0)
(0.120768 0.000101849 0)
(0.120554 0.000112174 0)
(0.120319 0.000122417 0)
(0.120064 0.000132574 0)
(0.119789 0.000142645 0)
(0.119494 0.000152626 0)
(0.119178 0.000162515 0)
(0.118843 0.000172311 0)
(0.118489 0.000182012 0)
(0.118115 0.000191615 0)
(0.117722 0.00020112 0)
(0.117311 0.000210525 0)
(0.11688 0.000219827 0)
(0.116431 0.000229026 0)
(0.115964 0.000238121 0)
(0.115479 0.000247111 0)
(0.114975 0.000255994 0)
(0.114455 0.000264769 0)
(0.113916 0.000273436 0)
(0.113361 0.000281993 0)
(0.112788 0.000290441 0)
(0.112199 0.000298778 0)
(0.111593 0.000307003 0)
(0.110971 0.000315117 0)
(0.110332 0.000323119 0)
(0.109678 0.000331007 0)
(0.109008 0.000338783 0)
(0.108323 0.000346446 0)
(0.107622 0.000353995 0)
(0.106907 0.00036143 0)
(0.106177 0.000368751 0)
(0.105432 0.000375959 0)
(0.104673 0.000383052 0)
(0.103899 0.000390031 0)
(0.103112 0.000396897 0)
(0.102312 0.000403648 0)
(0.101498 0.000410286 0)
(0.10067 0.000416809 0)
(0.0998303 0.000423219 0)
(0.0989775 0.000429516 0)
(0.0981121 0.0004357 0)
(0.0972346 0.000441771 0)
(0.0963449 0.00044773 0)
(0.0954435 0.000453576 0)
(0.0945305 0.000459311 0)
(0.0936062 0.000464934 0)
(0.0926707 0.000470447 0)
(0.0917243 0.000475849 0)
(0.0907672 0.000481142 0)
(0.0897996 0.000486325 0)
(0.0888218 0.000491399 0)
(0.0878339 0.000496365 0)
(0.0868362 0.000501224 0)
(0.0858289 0.000505976 0)
(0.0848122 0.000510622 0)
(0.0837863 0.000515163 0)
(0.0827514 0.000519599 0)
(0.0817078 0.000523931 0)
(0.0806556 0.000528161 0)
(0.0795951 0.000532288 0)
(0.0785264 0.000536315 0)
(0.0774497 0.000540241 0)
(0.0763653 0.000544069 0)
(0.0752733 0.000547798 0)
(0.074174 0.00055143 0)
(0.0730675 0.000554966 0)
(0.071954 0.000558408 0)
(0.0708338 0.000561755 0)
(0.0697069 0.00056501 0)
(0.0685737 0.000568173 0)
(0.0674342 0.000571247 0)
(0.0662886 0.000574231 0)
(0.0651371 0.000577127 0)
(0.06398 0.000579937 0)
(0.0628173 0.000582662 0)
(0.0616493 0.000585303 0)
(0.060476 0.000587861 0)
(0.0592977 0.000590339 0)
(0.0581146 0.000592736 0)
(0.0569267 0.000595055 0)
(0.0557343 0.000597297 0)
(0.0545374 0.000599463 0)
(0.0533364 0.000601555 0)
(0.0521312 0.000603574 0)
(0.050922 0.000605522 0)
(0.049709 0.000607399 0)
(0.0484923 0.000609208 0)
(0.0472721 0.000610949 0)
(0.0460485 0.000612625 0)
(0.0448215 0.000614236 0)
(0.0435914 0.000615784 0)
(0.0423583 0.00061727 0)
(0.0411223 0.000618696 0)
(0.0398835 0.000620063 0)
(0.038642 0.000621372 0)
(0.0373979 0.000622624 0)
(0.0361514 0.000623822 0)
(0.0349026 0.000624965 0)
(0.0336515 0.000626056 0)
(0.0323983 0.000627095 0)
(0.0311431 0.000628084 0)
(0.0298859 0.000629024 0)
(0.0286269 0.000629916 0)
(0.0273662 0.000630761 0)
(0.0261038 0.00063156 0)
(0.0248399 0.000632314 0)
(0.0235745 0.000633024 0)
(0.0223078 0.000633691 0)
(0.0210397 0.000634315 0)
(0.0197705 0.000634899 0)
(0.0185001 0.000635442 0)
(0.0172287 0.000635945 0)
(0.0159563 0.00063641 0)
(0.014683 0.000636836 0)
(0.0134089 0.000637224 0)
(0.0121341 0.000637575 0)
(0.0108586 0.00063789 0)
(0.00958246 0.000638168 0)
(0.00830584 0.000638411 0)
(0.00702878 0.000638618 0)
(0.00575133 0.00063879 0)
(0.00447358 0.000638928 0)
(0.00319558 0.00063903 0)
(0.00191742 0.000639099 0)
(0.00063915 0.000639133 0)
(0.000715699 -0.00214695 0)
(0.00214705 -0.00214682 0)
(0.00357828 -0.00214657 0)
(0.0050093 -0.00214619 0)
(0.00644002 -0.00214567 0)
(0.00787036 -0.00214503 0)
(0.00930022 -0.00214426 0)
(0.0107295 -0.00214335 0)
(0.0121582 -0.0021423 0)
(0.0135861 -0.00214112 0)
(0.0150132 -0.00213979 0)
(0.0164393 -0.00213832 0)
(0.0178644 -0.0021367 0)
(0.0192884 -0.00213492 0)
(0.0207112 -0.00213299 0)
(0.0221326 -0.0021309 0)
(0.0235526 -0.00212864 0)
(0.024971 -0.00212621 0)
(0.0263878 -0.0021236 0)
(0.0278027 -0.00212081 0)
(0.0292157 -0.00211783 0)
(0.0306267 -0.00211465 0)
(0.0320355 -0.00211128 0)
(0.033442 -0.0021077 0)
(0.034846 -0.0021039 0)
(0.0362475 -0.00209988 0)
(0.0376461 -0.00209563 0)
(0.0390419 -0.00209115 0)
(0.0404346 -0.00208642 0)
(0.0418241 -0.00208144 0)
(0.0432102 -0.00207621 0)
(0.0445927 -0.0020707 0)
(0.0459715 -0.00206492 0)
(0.0473463 -0.00205885 0)
(0.048717 -0.00205249 0)
(0.0500833 -0.00204584 0)
(0.0514451 -0.00203887 0)
(0.0528022 -0.00203158 0)
(0.0541543 -0.00202397 0)
(0.0555012 -0.00201602 0)
(0.0568427 -0.00200773 0)
(0.0581786 -0.00199908 0)
(0.0595086 -0.00199007 0)
(0.0608325 -0.0019807 0)
(0.06215 -0.00197095 0)
(0.0634609 -0.00196081 0)
(0.0647649 -0.00195028 0)
(0.0660618 -0.00193934 0)
(0.0673512 -0.001928 0)
(0.0686329 -0.00191624 0)
(0.0699067 -0.00190406 0)
(0.0711722 -0.00189145 0)
(0.0724292 -0.00187839 0)
(0.0736773 -0.0018649 0)
(0.0749162 -0.00185095 0)
(0.0761458 -0.00183655 0)
(0.0773655 -0.00182169 0)
(0.0785753 -0.00180636 0)
(0.0797746 -0.00179055 0)
(0.0809632 -0.00177428 0)
(0.0821409 -0.00175752 0)
(0.0833072 -0.00174028 0)
(0.0844618 -0.00172256 0)
(0.0856045 -0.00170435 0)
(0.0867349 -0.00168565 0)
(0.0878527 -0.00166646 0)
(0.0889575 -0.00164678 0)
(0.090049 -0.00162661 0)
(0.0911269 -0.00160595 0)
(0.0921908 -0.00158479 0)
(0.0932405 -0.00156315 0)
(0.0942756 -0.00154102 0)
(0.0952958 -0.00151841 0)
(0.0963008 -0.00149532 0)
(0.0972902 -0.00147175 0)
(0.0982637 -0.00144771 0)
(0.099221 -0.00142321 0)
(0.100162 -0.00139824 0)
(0.101086 -0.00137282 0)
(0.101993 -0.00134695 0)
(0.102882 -0.00132064 0)
(0.103754 -0.0012939 0)
(0.104608 -0.00126674 0)
(0.105444 -0.00123916 0)
(0.106261 -0.00121119 0)
(0.107059 -0.00118281 0)
(0.107838 -0.00115406 0)
(0.108598 -0.00112493 0)
(0.109339 -0.00109545 0)
(0.110059 -0.00106562 0)
(0.11076 -0.00103546 0)
(0.11144 -0.00100497 0)
(0.1121 -0.000974179 0)
(0.11274 -0.000943094 0)
(0.113358 -0.00091173 0)
(0.113956 -0.000880103 0)
(0.114532 -0.000848225 0)
(0.115087 -0.000816114 0)
(0.11562 -0.000783783 0)
(0.116132 -0.00075125 0)
(0.116622 -0.000718528 0)
(0.11709 -0.000685634 0)
(0.117537 -0.000652584 0)
(0.117961 -0.000619394 0)
(0.118363 -0.00058608 0)
(0.118742 -0.000552658 0)
(0.1191 -0.000519143 0)
(0.119434 -0.000485552 0)
(0.119747 -0.0004519 0)
(0.120037 -0.000418203 0)
(0.120305 -0.000384477 0)
(0.12055 -0.000350737 0)
(0.120772 -0.000316999 0)
(0.120972 -0.000283276 0)
(0.12115 -0.000249585 0)
(0.121305 -0.000215939 0)
(0.121438 -0.000182352 0)
(0.121548 -0.00014884 0)
(0.121636 -0.000115415 0)
(0.121702 -8.20897e-05 0)
(0.121745 -4.88785e-05 0)
(0.121767 -1.57933e-05 0)
(0.121766 1.71536e-05 0)
(0.121744 4.99502e-05 0)
(0.1217 8.25853e-05 0)
(0.121634 0.000115048 0)
(0.121546 0.000147327 0)
(0.121437 0.000179412 0)
(0.121306 0.000211293 0)
(0.121155 0.000242962 0)
(0.120982 0.000274409 0)
(0.120789 0.000305624 0)
(0.120574 0.000336601 0)
(0.12034 0.000367331 0)
(0.120084 0.000397806 0)
(0.119809 0.000428019 0)
(0.119513 0.000457965 0)
(0.119198 0.000487635 0)
(0.118863 0.000517026 0)
(0.118508 0.000546129 0)
(0.118134 0.000574941 0)
(0.117741 0.000603457 0)
(0.117329 0.000631672 0)
(0.116899 0.000659581 0)
(0.11645 0.00068718 0)
(0.115982 0.000714466 0)
(0.115497 0.000741435 0)
(0.114993 0.000768085 0)
(0.114472 0.000794412 0)
(0.113934 0.000820413 0)
(0.113378 0.000846086 0)
(0.112805 0.00087143 0)
(0.112215 0.000896441 0)
(0.111609 0.000921118 0)
(0.110987 0.00094546 0)
(0.110348 0.000969465 0)
(0.109694 0.000993132 0)
(0.109024 0.00101646 0)
(0.108338 0.00103945 0)
(0.107637 0.0010621 0)
(0.106922 0.0010844 0)
(0.106191 0.00110637 0)
(0.105446 0.00112799 0)
(0.104687 0.00114927 0)
(0.103913 0.00117021 0)
(0.103126 0.0011908 0)
(0.102325 0.00121106 0)
(0.101511 0.00123097 0)
(0.100683 0.00125054 0)
(0.099843 0.00126977 0)
(0.09899 0.00128866 0)
(0.0981244 0.00130721 0)
(0.0972466 0.00132542 0)
(0.0963568 0.0013433 0)
(0.0954551 0.00136084 0)
(0.0945419 0.00137804 0)
(0.0936173 0.00139491 0)
(0.0926816 0.00141145 0)
(0.091735 0.00142766 0)
(0.0907777 0.00144353 0)
(0.0898099 0.00145908 0)
(0.0888318 0.0014743 0)
(0.0878438 0.0014892 0)
(0.0868458 0.00150378 0)
(0.0858383 0.00151803 0)
(0.0848214 0.00153197 0)
(0.0837953 0.00154559 0)
(0.0827602 0.0015589 0)
(0.0817164 0.0015719 0)
(0.080664 0.00158458 0)
(0.0796033 0.00159697 0)
(0.0785344 0.00160904 0)
(0.0774575 0.00162082 0)
(0.0763729 0.0016323 0)
(0.0752807 0.00164349 0)
(0.0741812 0.00165439 0)
(0.0730745 0.00166499 0)
(0.0719609 0.00167532 0)
(0.0708404 0.00168536 0)
(0.0697134 0.00169512 0)
(0.0685799 0.00170461 0)
(0.0674403 0.00171383 0)
(0.0662945 0.00172278 0)
(0.0651429 0.00173147 0)
(0.0639856 0.0017399 0)
(0.0628227 0.00174807 0)
(0.0616545 0.00175599 0)
(0.0604811 0.00176367 0)
(0.0593026 0.0017711 0)
(0.0581193 0.00177829 0)
(0.0569313 0.00178524 0)
(0.0557387 0.00179197 0)
(0.0545417 0.00179846 0)
(0.0533405 0.00180474 0)
(0.0521352 0.00181079 0)
(0.0509258 0.00181664 0)
(0.0497127 0.00182227 0)
(0.0484959 0.00182769 0)
(0.0472755 0.00183292 0)
(0.0460518 0.00183794 0)
(0.0448247 0.00184277 0)
(0.0435945 0.00184742 0)
(0.0423613 0.00185187 0)
(0.0411251 0.00185615 0)
(0.0398862 0.00186025 0)
(0.0386446 0.00186417 0)
(0.0374004 0.00186793 0)
(0.0361538 0.00187152 0)
(0.0349049 0.00187495 0)
(0.0336537 0.00187822 0)
(0.0324004 0.00188134 0)
(0.031145 0.0018843 0)
(0.0298878 0.00188712 0)
(0.0286287 0.0018898 0)
(0.0273679 0.00189233 0)
(0.0261054 0.00189473 0)
(0.0248414 0.00189699 0)
(0.0235759 0.00189912 0)
(0.0223091 0.00190112 0)
(0.021041 0.00190299 0)
(0.0197716 0.00190474 0)
(0.0185012 0.00190637 0)
(0.0172297 0.00190788 0)
(0.0159572 0.00190927 0)
(0.0146838 0.00191055 0)
(0.0134096 0.00191171 0)
(0.0121347 0.00191277 0)
(0.0108592 0.00191371 0)
(0.00958298 0.00191454 0)
(0.0083063 0.00191527 0)
(0.00702916 0.00191589 0)
(0.00575164 0.00191641 0)
(0.00447382 0.00191682 0)
(0.00319575 0.00191713 0)
(0.00191752 0.00191733 0)
(0.000639185 0.00191743 0)
(0.000715784 -0.00357839 0)
(0.00214731 -0.00357818 0)
(0.00357871 -0.00357776 0)
(0.0050099 -0.00357712 0)
(0.00644079 -0.00357627 0)
(0.00787131 -0.0035752 0)
(0.00930135 -0.00357391 0)
(0.0107308 -0.0035724 0)
(0.0121597 -0.00357066 0)
(0.0135878 -0.00356869 0)
(0.0150151 -0.00356648 0)
(0.0164414 -0.00356403 0)
(0.0178667 -0.00356133 0)
(0.0192909 -0.00355838 0)
(0.0207139 -0.00355516 0)
(0.0221355 -0.00355168 0)
(0.0235557 -0.00354792 0)
(0.0249744 -0.00354387 0)
(0.0263914 -0.00353953 0)
(0.0278066 -0.00353489 0)
(0.0292198 -0.00352993 0)
(0.0306311 -0.00352464 0)
(0.0320402 -0.00351903 0)
(0.0334469 -0.00351306 0)
(0.0348512 -0.00350674 0)
(0.036253 -0.00350005 0)
(0.037652 -0.00349298 0)
(0.0390481 -0.00348552 0)
(0.0404411 -0.00347765 0)
(0.041831 -0.00346936 0)
(0.0432174 -0.00346064 0)
(0.0446003 -0.00345147 0)
(0.0459794 -0.00344185 0)
(0.0473546 -0.00343175 0)
(0.0487257 -0.00342116 0)
(0.0500924 -0.00341007 0)
(0.0514547 -0.00339846 0)
(0.0528122 -0.00338633 0)
(0.0541647 -0.00337365 0)
(0.0555121 -0.00336041 0)
(0.0568541 -0.0033466 0)
(0.0581904 -0.0033322 0)
(0.0595209 -0.0033172 0)
(0.0608453 -0.00330159 0)
(0.0621633 -0.00328534 0)
(0.0634747 -0.00326845 0)
(0.0647792 -0.00325091 0)
(0.0660766 -0.0032327 0)
(0.0673666 -0.0032138 0)
(0.0686489 -0.00319421 0)
(0.0699233 -0.00317391 0)
(0.0711894 -0.00315289 0)
(0.0724469 -0.00313115 0)
(0.0736956 -0.00310866 0)
(0.0749352 -0.00308542 0)
(0.0761653 -0.00306143 0)
(0.0773857 -0.00303666 0)
(0.078596 -0.00301111 0)
(0.079796 -0.00298478 0)
(0.0809853 -0.00295766 0)
(0.0821636 -0.00292974 0)
(0.0833305 -0.00290101 0)
(0.0844858 -0.00287148 0)
(0.0856292 -0.00284113 0)
(0.0867602 -0.00280997 0)
(0.0878786 -0.00277798 0)
(0.0889841 -0.00274518 0)
(0.0900762 -0.00271156 0)
(0.0911548 -0.00267712 0)
(0.0922194 -0.00264186 0)
(0.0932698 -0.00260579 0)
(0.0943055 -0.00256891 0)
(0.0953263 -0.00253122 0)
(0.0963319 -0.00249273 0)
(0.097322 -0.00245344 0)
(0.0982961 -0.00241337 0)
(0.099254 -0.00237252 0)
(0.100195 -0.0023309 0)
(0.10112 -0.00228853 0)
(0.102028 -0.0022454 0)
(0.102918 -0.00220155 0)
(0.10379 -0.00215697 0)
(0.104645 -0.00211169 0)
(0.105481 -0.00206572 0)
(0.106298 -0.00201908 0)
(0.107097 -0.00197178 0)
(0.107877 -0.00192384 0)
(0.108637 -0.00187529 0)
(0.109378 -0.00182614 0)
(0.110099 -0.0017764 0)
(0.1108 -0.00172612 0)
(0.111481 -0.00167529 0)
(0.112142 -0.00162396 0)
(0.112781 -0.00157213 0)
(0.1134 -0.00151984 0)
(0.113998 -0.00146712 0)
(0.114575 -0.00141397 0)
(0.11513 -0.00136043 0)
(0.115664 -0.00130653 0)
(0.116176 -0.00125229 0)
(0.116666 -0.00119774 0)
(0.117134 -0.0011429 0)
(0.117581 -0.0010878 0)
(0.118005 -0.00103246 0)
(0.118407 -0.000976921 0)
(0.118787 -0.000921199 0)
(0.119144 -0.000865324 0)
(0.119479 -0.000809321 0)
(0.119792 -0.000753217 0)
(0.120082 -0.000697039 0)
(0.12035 -0.000640812 0)
(0.120595 -0.000584562 0)
(0.120817 -0.000528314 0)
(0.121017 -0.000472093 0)
(0.121195 -0.000415925 0)
(0.12135 -0.000359832 0)
(0.121483 -0.00030384 0)
(0.121593 -0.00024797 0)
(0.121681 -0.000192247 0)
(0.121746 -0.000136691 0)
(0.12179 -8.13248e-05 0)
(0.121811 -2.61693e-05 0)
(0.12181 2.87553e-05 0)
(0.121788 8.34292e-05 0)
(0.121743 0.000137833 0)
(0.121677 0.000191949 0)
(0.121589 0.000245759 0)
(0.12148 0.000299245 0)
(0.121349 0.000352392 0)
(0.121197 0.000405183 0)
(0.121024 0.000457603 0)
(0.12083 0.000509638 0)
(0.120616 0.000561275 0)
(0.12038 0.000612499 0)
(0.120125 0.000663299 0)
(0.119849 0.000713663 0)
(0.119553 0.000763579 0)
(0.119237 0.000813037 0)
(0.118902 0.000862026 0)
(0.118547 0.000910539 0)
(0.118173 0.000958564 0)
(0.117779 0.0010061 0)
(0.117367 0.00105312 0)
(0.116936 0.00109964 0)
(0.116486 0.00114565 0)
(0.116018 0.00119113 0)
(0.115532 0.00123608 0)
(0.115028 0.0012805 0)
(0.114507 0.00132438 0)
(0.113968 0.00136772 0)
(0.113412 0.00141051 0)
(0.112839 0.00145275 0)
(0.112249 0.00149444 0)
(0.111642 0.00153557 0)
(0.111019 0.00157614 0)
(0.11038 0.00161615 0)
(0.109725 0.0016556 0)
(0.109055 0.00169448 0)
(0.108369 0.00173279 0)
(0.107667 0.00177054 0)
(0.106951 0.00180771 0)
(0.10622 0.00184432 0)
(0.105475 0.00188036 0)
(0.104715 0.00191583 0)
(0.103941 0.00195072 0)
(0.103153 0.00198505 0)
(0.102352 0.0020188 0)
(0.101537 0.00205199 0)
(0.100709 0.00208461 0)
(0.0998685 0.00211666 0)
(0.0990149 0.00214814 0)
(0.0981489 0.00217906 0)
(0.0972707 0.00220941 0)
(0.0963804 0.00223921 0)
(0.0954783 0.00226844 0)
(0.0945646 0.00229711 0)
(0.0936396 0.00232522 0)
(0.0927034 0.00235278 0)
(0.0917564 0.00237979 0)
(0.0907986 0.00240625 0)
(0.0898304 0.00243216 0)
(0.0888519 0.00245753 0)
(0.0878634 0.00248236 0)
(0.0868651 0.00250665 0)
(0.0858571 0.00253041 0)
(0.0848398 0.00255363 0)
(0.0838133 0.00257633 0)
(0.0827778 0.00259851 0)
(0.0817335 0.00262017 0)
(0.0806807 0.00264131 0)
(0.0796196 0.00266195 0)
(0.0785502 0.00268207 0)
(0.077473 0.0027017 0)
(0.076388 0.00272083 0)
(0.0752954 0.00273947 0)
(0.0741955 0.00275763 0)
(0.0730885 0.00277531 0)
(0.0719744 0.00279251 0)
(0.0708536 0.00280924 0)
(0.0697262 0.00282551 0)
(0.0685924 0.00284132 0)
(0.0674523 0.00285668 0)
(0.0663063 0.00287159 0)
(0.0651543 0.00288607 0)
(0.0639966 0.00290011 0)
(0.0628334 0.00291373 0)
(0.0616649 0.00292693 0)
(0.0604911 0.00293971 0)
(0.0593124 0.00295209 0)
(0.0581287 0.00296407 0)
(0.0569404 0.00297566 0)
(0.0557475 0.00298686 0)
(0.0545502 0.00299769 0)
(0.0533487 0.00300814 0)
(0.0521431 0.00301823 0)
(0.0509335 0.00302796 0)
(0.0497201 0.00303734 0)
(0.048503 0.00304638 0)
(0.0472824 0.00305508 0)
(0.0460583 0.00306345 0)
(0.044831 0.0030715 0)
(0.0436006 0.00307923 0)
(0.0423671 0.00308666 0)
(0.0411307 0.00309378 0)
(0.0398915 0.00310061 0)
(0.0386497 0.00310715 0)
(0.0374053 0.0031134 0)
(0.0361585 0.00311938 0)
(0.0349093 0.00312509 0)
(0.0336579 0.00313054 0)
(0.0324044 0.00313573 0)
(0.0311489 0.00314067 0)
(0.0298914 0.00314537 0)
(0.0286322 0.00314982 0)
(0.0273712 0.00315404 0)
(0.0261085 0.00315803 0)
(0.0248443 0.00316179 0)
(0.0235787 0.00316534 0)
(0.0223117 0.00316867 0)
(0.0210434 0.00317179 0)
(0.0197739 0.0031747 0)
(0.0185032 0.00317741 0)
(0.0172316 0.00317993 0)
(0.015959 0.00318225 0)
(0.0146854 0.00318437 0)
(0.0134111 0.00318631 0)
(0.0121361 0.00318806 0)
(0.0108603 0.00318963 0)
(0.00958402 0.00319102 0)
(0.00830719 0.00319224 0)
(0.00702992 0.00319327 0)
(0.00575226 0.00319413 0)
(0.0044743 0.00319482 0)
(0.0031961 0.00319533 0)
(0.00191773 0.00319567 0)
(0.000639253 0.00319584 0)
(0.000715912 -0.00501005 0)
(0.00214769 -0.00500975 0)
(0.00357935 -0.00500916 0)
(0.0050108 -0.00500827 0)
(0.00644195 -0.00500708 0)
(0.00787273 -0.00500559 0)
(0.00930304 -0.00500379 0)
(0.0107328 -0.00500167 0)
(0.0121619 -0.00499925 0)
(0.0135903 -0.00499649 0)
(0.0150179 -0.00499341 0)
(0.0164445 -0.00498999 0)
(0.0178701 -0.00498622 0)
(0.0192946 -0.00498209 0)
(0.0207179 -0.0049776 0)
(0.0221399 -0.00497274 0)
(0.0235604 -0.00496749 0)
(0.0249794 -0.00496183 0)
(0.0263968 -0.00495577 0)
(0.0278123 -0.00494928 0)
(0.029226 -0.00494235 0)
(0.0306376 -0.00493497 0)
(0.0320471 -0.00492712 0)
(0.0334543 -0.00491879 0)
(0.0348591 -0.00490996 0)
(0.0362613 -0.00490061 0)
(0.0376607 -0.00489073 0)
(0.0390573 -0.0048803 0)
(0.0404508 -0.0048693 0)
(0.0418412 -0.00485771 0)
(0.0432282 -0.00484552 0)
(0.0446116 -0.00483271 0)
(0.0459913 -0.00481925 0)
(0.047367 -0.00480513 0)
(0.0487387 -0.00479032 0)
(0.0501061 -0.00477482 0)
(0.0514689 -0.00475859 0)
(0.0528271 -0.00474162 0)
(0.0541803 -0.00472389 0)
(0.0555283 -0.00470538 0)
(0.056871 -0.00468606 0)
(0.0582081 -0.00466592 0)
(0.0595393 -0.00464494 0)
(0.0608644 -0.0046231 0)
(0.0621832 -0.00460038 0)
(0.0634954 -0.00457675 0)
(0.0648008 -0.00455221 0)
(0.066099 -0.00452673 0)
(0.0673898 -0.00450029 0)
(0.0686729 -0.00447288 0)
(0.0699481 -0.00444448 0)
(0.0712151 -0.00441507 0)
(0.0724735 -0.00438465 0)
(0.0737231 -0.00435318 0)
(0.0749636 -0.00432066 0)
(0.0761946 -0.00428708 0)
(0.077416 -0.00425241 0)
(0.0786272 -0.00421666 0)
(0.0798281 -0.00417981 0)
(0.0810184 -0.00414184 0)
(0.0821976 -0.00410276 0)
(0.0833656 -0.00406255 0)
(0.0845218 -0.00402121 0)
(0.0856662 -0.00397872 0)
(0.0867982 -0.0039351 0)
(0.0879176 -0.00389032 0)
(0.089024 -0.0038444 0)
(0.0901172 -0.00379733 0)
(0.0911967 -0.00374911 0)
(0.0922623 -0.00369975 0)
(0.0933136 -0.00364924 0)
(0.0943503 -0.0035976 0)
(0.0953721 -0.00354483 0)
(0.0963787 -0.00349093 0)
(0.0973696 -0.00343592 0)
(0.0983447 -0.00337981 0)
(0.0993036 -0.00332261 0)
(0.100246 -0.00326432 0)
(0.101172 -0.00320498 0)
(0.10208 -0.00314459 0)
(0.102971 -0.00308318 0)
(0.103844 -0.00302075 0)
(0.104699 -0.00295734 0)
(0.105536 -0.00289295 0)
(0.106355 -0.00282763 0)
(0.107154 -0.00276139 0)
(0.107935 -0.00269425 0)
(0.108696 -0.00262624 0)
(0.109438 -0.0025574 0)
(0.110159 -0.00248775 0)
(0.110861 -0.00241731 0)
(0.111543 -0.00234613 0)
(0.112204 -0.00227422 0)
(0.112844 -0.00220164 0)
(0.113463 -0.0021284 0)
(0.114062 -0.00205454 0)
(0.114639 -0.0019801 0)
(0.115194 -0.00190512 0)
(0.115729 -0.00182962 0)
(0.116241 -0.00175365 0)
(0.116732 -0.00167723 0)
(0.1172 -0.00160042 0)
(0.117647 -0.00152324 0)
(0.118072 -0.00144574 0)
(0.118474 -0.00136794 0)
(0.118854 -0.00128989 0)
(0.119212 -0.00121163 0)
(0.119547 -0.00113319 0)
(0.119859 -0.00105461 0)
(0.12015 -0.000975922 0)
(0.120417 -0.000897168 0)
(0.120662 -0.000818383 0)
(0.120885 -0.000739601 0)
(0.121085 -0.000660857 0)
(0.121262 -0.000582188 0)
(0.121417 -0.000503625 0)
(0.12155 -0.000425203 0)
(0.12166 -0.000346954 0)
(0.121748 -0.00026891 0)
(0.121813 -0.000191102 0)
(0.121856 -0.00011356 0)
(0.121877 -3.63133e-05 0)
(0.121876 4.06088e-05 0)
(0.121853 0.000117179 0)
(0.121808 0.00019337 0)
(0.121742 0.000269157 0)
(0.121653 0.000344515 0)
(0.121544 0.000419419 0)
(0.121413 0.000493846 0)
(0.12126 0.000567775 0)
(0.121087 0.000641184 0)
(0.120892 0.000714053 0)
(0.120677 0.000786362 0)
(0.120442 0.000858094 0)
(0.120186 0.00092923 0)
(0.119909 0.000999755 0)
(0.119613 0.00106965 0)
(0.119296 0.00113891 0)
(0.11896 0.00120751 0)
(0.118605 0.00127544 0)
(0.11823 0.00134268 0)
(0.117836 0.00140924 0)
(0.117423 0.00147509 0)
(0.116991 0.00154022 0)
(0.116541 0.00160464 0)
(0.116073 0.00166832 0)
(0.115586 0.00173126 0)
(0.115081 0.00179345 0)
(0.114559 0.00185489 0)
(0.11402 0.00191557 0)
(0.113463 0.00197549 0)
(0.112889 0.00203463 0)
(0.112298 0.00209299 0)
(0.111691 0.00215058 0)
(0.111067 0.00220738 0)
(0.110428 0.0022634 0)
(0.109772 0.00231863 0)
(0.109101 0.00237306 0)
(0.108414 0.0024267 0)
(0.107712 0.00247955 0)
(0.106995 0.0025316 0)
(0.106264 0.00258285 0)
(0.105518 0.0026333 0)
(0.104757 0.00268296 0)
(0.103982 0.00273181 0)
(0.103194 0.00277987 0)
(0.102392 0.00282712 0)
(0.101577 0.00287358 0)
(0.100748 0.00291925 0)
(0.0999066 0.00296412 0)
(0.0990524 0.00300819 0)
(0.0981857 0.00305147 0)
(0.0973067 0.00309397 0)
(0.0964158 0.00313567 0)
(0.095513 0.00317659 0)
(0.0945987 0.00321673 0)
(0.093673 0.00325609 0)
(0.0927362 0.00329467 0)
(0.0917884 0.00333248 0)
(0.09083 0.00336952 0)
(0.0898611 0.00340579 0)
(0.088882 0.0034413 0)
(0.0878928 0.00347606 0)
(0.0868939 0.00351006 0)
(0.0858853 0.00354331 0)
(0.0848673 0.00357582 0)
(0.0838402 0.0036076 0)
(0.082804 0.00363864 0)
(0.0817592 0.00366896 0)
(0.0807058 0.00369855 0)
(0.079644 0.00372743 0)
(0.0785741 0.0037556 0)
(0.0774962 0.00378308 0)
(0.0764106 0.00380985 0)
(0.0753175 0.00383594 0)
(0.074217 0.00386135 0)
(0.0731094 0.00388609 0)
(0.0719948 0.00391017 0)
(0.0708734 0.00393358 0)
(0.0697454 0.00395635 0)
(0.0686111 0.00397848 0)
(0.0674705 0.00399997 0)
(0.0663239 0.00402084 0)
(0.0651714 0.0040411 0)
(0.0640132 0.00406075 0)
(0.0628495 0.00407981 0)
(0.0616804 0.00409828 0)
(0.0605062 0.00411617 0)
(0.059327 0.00413349 0)
(0.0581429 0.00415025 0)
(0.0569541 0.00416647 0)
(0.0557607 0.00418214 0)
(0.054563 0.00419728 0)
(0.053361 0.00421191 0)
(0.0521549 0.00422602 0)
(0.0509449 0.00423964 0)
(0.0497311 0.00425276 0)
(0.0485136 0.0042654 0)
(0.0472926 0.00427757 0)
(0.0460682 0.00428928 0)
(0.0448405 0.00430054 0)
(0.0436096 0.00431136 0)
(0.0423758 0.00432174 0)
(0.041139 0.0043317 0)
(0.0398995 0.00434125 0)
(0.0386573 0.0043504 0)
(0.0374126 0.00435915 0)
(0.0361655 0.00436751 0)
(0.034916 0.0043755 0)
(0.0336643 0.00438312 0)
(0.0324105 0.00439038 0)
(0.0311546 0.00439728 0)
(0.0298969 0.00440385 0)
(0.0286373 0.00441007 0)
(0.0273761 0.00441597 0)
(0.0261132 0.00442155 0)
(0.0248487 0.00442682 0)
(0.0235828 0.00443177 0)
(0.0223155 0.00443643 0)
(0.021047 0.00444079 0)
(0.0197772 0.00444487 0)
(0.0185064 0.00444866 0)
(0.0172345 0.00445217 0)
(0.0159616 0.00445541 0)
(0.0146879 0.00445839 0)
(0.0134133 0.0044611 0)
(0.012138 0.00446355 0)
(0.0108621 0.00446574 0)
(0.00958558 0.00446768 0)
(0.00830854 0.00446938 0)
(0.00703105 0.00447082 0)
(0.00575319 0.00447203 0)
(0.00447502 0.00447299 0)
(0.00319661 0.0044737 0)
(0.00191803 0.00447418 0)
(0.000639355 0.00447441 0)
(0.000716081 -0.006442 0)
(0.0021482 -0.00644162 0)
(0.0035802 -0.00644086 0)
(0.00501199 -0.00643972 0)
(0.00644349 -0.0064382 0)
(0.00787461 -0.00643628 0)
(0.00930528 -0.00643398 0)
(0.0107354 -0.00643127 0)
(0.0121649 -0.00642816 0)
(0.0135936 -0.00642463 0)
(0.0150216 -0.00642068 0)
(0.0164486 -0.00641629 0)
(0.0178746 -0.00641147 0)
(0.0192996 -0.00640618 0)
(0.0207233 -0.00640043 0)
(0.0221457 -0.00639419 0)
(0.0235667 -0.00638745 0)
(0.0249861 -0.00638021 0)
(0.026404 -0.00637243 0)
(0.02782 -0.00636411 0)
(0.0292342 -0.00635523 0)
(0.0306464 -0.00634577 0)
(0.0320564 -0.0063357 0)
(0.0334641 -0.00632502 0)
(0.0348695 -0.00631369 0)
(0.0362723 -0.0063017 0)
(0.0376724 -0.00628903 0)
(0.0390696 -0.00627564 0)
(0.0404638 -0.00626153 0)
(0.0418548 -0.00624667 0)
(0.0432425 -0.00623103 0)
(0.0446266 -0.00621458 0)
(0.0460071 -0.00619731 0)
(0.0473836 -0.00617919 0)
(0.0487561 -0.00616019 0)
(0.0501242 -0.00614029 0)
(0.0514879 -0.00611946 0)
(0.0528469 -0.00609768 0)
(0.054201 -0.00607492 0)
(0.05555 -0.00605115 0)
(0.0568936 -0.00602635 0)
(0.0582316 -0.00600049 0)
(0.0595638 -0.00597355 0)
(0.0608899 -0.0059455 0)
(0.0622098 -0.00591632 0)
(0.063523 -0.00588597 0)
(0.0648294 -0.00585445 0)
(0.0661287 -0.00582172 0)
(0.0674206 -0.00578776 0)
(0.0687049 -0.00575255 0)
(0.0699812 -0.00571606 0)
(0.0712493 -0.00567828 0)
(0.0725089 -0.00563918 0)
(0.0737597 -0.00559875 0)
(0.0750014 -0.00555696 0)
(0.0762337 -0.0055138 0)
(0.0774563 -0.00546926 0)
(0.0786688 -0.00542331 0)
(0.079871 -0.00537594 0)
(0.0810625 -0.00532715 0)
(0.082243 -0.00527691 0)
(0.0834122 -0.00522522 0)
(0.0845698 -0.00517208 0)
(0.0857154 -0.00511746 0)
(0.0868488 -0.00506138 0)
(0.0879695 -0.00500381 0)
(0.0890772 -0.00494477 0)
(0.0901717 -0.00488425 0)
(0.0912525 -0.00482225 0)
(0.0923194 -0.00475878 0)
(0.0933721 -0.00469383 0)
(0.0944101 -0.00462742 0)
(0.0954332 -0.00455956 0)
(0.096441 -0.00449025 0)
(0.0974332 -0.0044195 0)
(0.0984096 -0.00434734 0)
(0.0993697 -0.00427377 0)
(0.100313 -0.00419881 0)
(0.10124 -0.00412248 0)
(0.10215 -0.00404481 0)
(0.103042 -0.00396581 0)
(0.103916 -0.00388552 0)
(0.104773 -0.00380395 0)
(0.105611 -0.00372113 0)
(0.10643 -0.0036371 0)
(0.107231 -0.00355188 0)
(0.108012 -0.00346552 0)
(0.108774 -0.00337804 0)
(0.109517 -0.00328947 0)
(0.11024 -0.00319987 0)
(0.110942 -0.00310925 0)
(0.111624 -0.00301768 0)
(0.112286 -0.00292518 0)
(0.112927 -0.00283179 0)
(0.113547 -0.00273757 0)
(0.114146 -0.00264255 0)
(0.114724 -0.00254679 0)
(0.11528 -0.00245031 0)
(0.115815 -0.00235318 0)
(0.116328 -0.00225544 0)
(0.116819 -0.00215713 0)
(0.117289 -0.00205831 0)
(0.117736 -0.00195901 0)
(0.11816 -0.0018593 0)
(0.118563 -0.00175921 0)
(0.118943 -0.0016588 0)
(0.119301 -0.00155812 0)
(0.119637 -0.0014572 0)
(0.119949 -0.0013561 0)
(0.12024 -0.00125487 0)
(0.120507 -0.00115356 0)
(0.120752 -0.0010522 0)
(0.120975 -0.000950848 0)
(0.121175 -0.000849547 0)
(0.121352 -0.000748342 0)
(0.121507 -0.000647276 0)
(0.121639 -0.000546392 0)
(0.121749 -0.000445731 0)
(0.121837 -0.000345336 0)
(0.121902 -0.000245245 0)
(0.121945 -0.000145498 0)
(0.121965 -4.6132e-05 0)
(0.121964 5.28153e-05 0)
(0.12194 0.000151309 0)
(0.121895 0.000249313 0)