/*--------------------------------*- C++ -*----------------------------------*\
| =========                 |                                                 |
| \\      /  F ield         | OpenFOAM: The Open Source CFD Toolbox           |
|  \\    /   O peration     | Version:  v2012                                 |
|   \\  /    A nd           | Website:  www.openfoam.com                      |
|    \\/     M anipulation  |                                                 |
\*---------------------------------------------------------------------------*/
FoamFile
{
    version     2.0;
    format      ascii;
    class       volScalarField;
    location    "3";
    object      W;
}
// * * * * * * * * * * * * * * * * * * * * * * * * * * * * * * * * * * * * * //

dimensions      [0 0 -1 0 0 0 0];


internalField   nonuniform List<scalar> 
65536
(
1.73155e-21
5.31013e-21
9.24728e-21
1.38212e-20
1.93659e-20
2.62907e-20
3.51019e-20
4.64295e-20
6.10609e-20
7.99847e-20
1.04446e-19
1.36014e-19
1.76668e-19
2.289e-19
2.95843e-19
3.8142e-19
4.90542e-19
6.29328e-19
8.05386e-19
1.02815e-18
1.30927e-18
1.66311e-18
2.10733e-18
2.66354e-18
3.35815e-18
4.22331e-18
5.29804e-18
6.62958e-18
8.27491e-18
1.03025e-17
1.27946e-17
1.58493e-17
1.95836e-17
2.41364e-17
2.96719e-17
3.63841e-17
4.4501e-17
5.42895e-17
6.60617e-17
8.01806e-17
9.70672e-17
1.17208e-16
1.41164e-16
1.69577e-16
2.03182e-16
2.42818e-16
2.89432e-16
3.441e-16
4.08029e-16
4.82574e-16
5.69248e-16
6.69735e-16
7.85896e-16
9.19784e-16
1.07365e-15
1.24996e-15
1.45138e-15
1.6808e-15
1.94133e-15
2.2363e-15
2.56923e-15
2.94386e-15
3.36411e-15
3.83407e-15
4.35795e-15
4.94011e-15
5.58494e-15
6.2969e-15
7.0804e-15
7.93978e-15
8.87924e-15
9.90279e-15
1.10141e-14
1.22166e-14
1.3513e-14
1.49059e-14
1.63968e-14
1.79869e-14
1.96762e-14
2.14641e-14
2.33489e-14
2.53279e-14
2.73972e-14
2.95517e-14
3.17852e-14
3.40902e-14
3.64577e-14
3.88779e-14
4.13393e-14
4.38294e-14
4.63346e-14
4.88403e-14
5.13309e-14
5.37899e-14
5.62004e-14
5.85449e-14
6.08057e-14
6.2965e-14
6.50052e-14
6.6909e-14
6.86599e-14
7.02422e-14
7.16411e-14
7.28435e-14
7.38374e-14
7.46129e-14
7.51618e-14
7.54779e-14
7.55573e-14
7.53983e-14
7.50016e-14
7.437e-14
7.35089e-14
7.24258e-14
7.11306e-14
6.96351e-14
6.79531e-14
6.61002e-14
6.40937e-14
6.1952e-14
5.96948e-14
5.73427e-14
5.49169e-14
5.24391e-14
4.99309e-14
4.74142e-14
4.49102e-14
4.24398e-14
4.00231e-14
3.76794e-14
3.54267e-14
3.32821e-14
3.12614e-14
2.93787e-14
2.7647e-14
2.60776e-14
2.46803e-14
2.34635e-14
2.24339e-14
2.15965e-14
2.09549e-14
2.05112e-14
2.02659e-14
2.02177e-14
2.03642e-14
2.07012e-14
2.12229e-14
2.19223e-14
2.27905e-14
2.38174e-14
2.49913e-14
2.6299e-14
2.77261e-14
2.92565e-14
3.08731e-14
3.25576e-14
3.42907e-14
3.6052e-14
3.78206e-14
3.9575e-14
4.12936e-14
4.29546e-14
4.45367e-14
4.6019e-14
4.73815e-14
4.86054e-14
4.96735e-14
5.05702e-14
5.12821e-14
5.17979e-14
5.2109e-14
5.22091e-14
5.20952e-14
5.17665e-14
5.12256e-14
5.04774e-14
4.953e-14
4.83935e-14
4.70807e-14
4.56062e-14
4.39866e-14
4.22398e-14
4.03848e-14
3.84413e-14
3.64297e-14
3.43699e-14
3.22818e-14
3.01847e-14
2.80966e-14
2.60347e-14
2.40144e-14
2.20499e-14
2.01533e-14
1.83351e-14
1.66039e-14
1.49664e-14
1.34277e-14
1.19908e-14
1.06576e-14
9.42804e-15
8.30098e-15
7.27404e-15
6.34388e-15
5.5063e-15
4.75647e-15
4.08906e-15
3.4984e-15
2.97864e-15
2.52385e-15
2.12814e-15
1.78575e-15
1.49116e-15
1.2391e-15
1.02461e-15
8.43095e-16
6.90334e-16
5.62472e-16
4.56034e-16
3.67914e-16
2.95354e-16
2.3593e-16
1.87528e-16
1.48316e-16
1.1672e-16
9.13975e-17
7.12123e-17
5.52083e-17
4.25873e-17
3.26873e-17
2.49633e-17
1.8969e-17
1.4342e-17
1.07892e-17
8.07584e-18
6.01454e-18
4.45689e-18
3.28607e-18
2.41066e-18
1.75958e-18
1.27789e-18
9.23409e-19
6.63908e-19
4.74936e-19
3.38047e-19
2.39405e-19
1.68694e-19
1.18269e-19
8.24924e-20
5.72317e-20
3.94704e-20
2.7014e-20
1.82685e-20
1.20741e-20
7.58144e-21
4.15984e-21
1.32447e-21
5.69026e-21
1.74501e-20
3.03879e-20
4.54176e-20
6.36359e-20
8.63868e-20
1.15333e-19
1.52544e-19
2.00603e-19
2.62756e-19
3.43089e-19
4.46756e-19
5.8025e-19
7.5175e-19
9.71531e-19
1.25247e-18
1.61068e-18
2.06623e-18
2.64406e-18
3.37512e-18
4.29762e-18
5.45867e-18
6.91613e-18
8.74087e-18
1.10194e-17
1.38572e-17
1.7382e-17
2.17487e-17
2.71438e-17
3.37919e-17
4.19619e-17
5.19754e-17
6.42152e-17
7.91358e-17
9.72753e-17
1.19268e-16
1.4586e-16
1.77924e-16
2.16481e-16
2.62719e-16
3.18012e-16
3.83953e-16
4.62371e-16
5.55367e-16
6.65342e-16
7.95029e-16
9.47528e-16
1.12634e-15
1.33542e-15
1.57917e-15
1.86254e-15
2.191e-15
2.57062e-15
3.0081e-15
3.51076e-15
4.08662e-15
4.74436e-15
5.49339e-15
6.3438e-15
7.3064e-15
8.39265e-15
9.61467e-15
1.09852e-14
1.25174e-14
1.4225e-14
1.61221e-14
1.82229e-14
2.05417e-14
2.30928e-14
2.58902e-14
2.89475e-14
3.22773e-14
3.58916e-14
3.9801e-14
4.40148e-14
4.85403e-14
5.33828e-14
5.85454e-14
6.40284e-14
6.98292e-14
7.59421e-14
8.23578e-14
8.90635e-14
9.60425e-14
1.03274e-13
1.10734e-13
1.18392e-13
1.26217e-13
1.34171e-13
1.42213e-13
1.503e-13
1.58383e-13
1.66412e-13
1.74333e-13
1.82093e-13
1.89634e-13
1.96898e-13
2.0383e-13
2.10371e-13
2.16467e-13
2.22064e-13
2.27112e-13
2.31564e-13
2.35378e-13
2.38516e-13
2.40946e-13
2.42642e-13
2.43586e-13
2.43766e-13
2.43176e-13
2.4182e-13
2.39707e-13
2.36857e-13
2.33292e-13
2.29047e-13
2.2416e-13
2.18675e-13
2.12645e-13
2.06123e-13
1.99172e-13
1.91853e-13
1.84234e-13
1.76384e-13
1.68371e-13
1.60266e-13
1.52139e-13
1.44058e-13
1.36089e-13
1.28298e-13
1.20745e-13
1.13489e-13
1.06583e-13
1.00078e-13
9.40194e-14
8.84472e-14
8.33977e-14
7.89017e-14
7.49852e-14
7.1669e-14
6.89691e-14
6.68963e-14
6.54564e-14
6.46504e-14
6.44742e-14
6.4919e-14
6.59711e-14
6.76117e-14
6.98176e-14
7.25605e-14
7.58075e-14
7.9521e-14
8.36588e-14
8.81744e-14
9.30168e-14
9.81314e-14
1.0346e-13
1.0894e-13
1.14507e-13
1.20096e-13
1.25637e-13
1.31062e-13
1.36303e-13
1.41291e-13
1.4596e-13
1.50248e-13
1.54096e-13
1.57448e-13
1.60256e-13
1.62477e-13
1.64077e-13
1.65028e-13
1.65312e-13
1.64918e-13
1.63845e-13
1.62101e-13
1.59702e-13
1.56675e-13
1.53051e-13
1.48871e-13
1.44183e-13
1.39037e-13
1.33492e-13
1.27607e-13
1.21446e-13
1.15071e-13
1.08547e-13
1.01935e-13
9.5298e-14
8.86917e-14
8.21701e-14
7.57823e-14
6.95724e-14
6.35789e-14
5.78347e-14
5.23666e-14
4.71958e-14
4.23378e-14
3.78025e-14
3.3595e-14
2.97154e-14
2.616e-14
2.29209e-14
1.99876e-14
1.73467e-14
1.49828e-14
1.28791e-14
1.10176e-14
9.37974e-15
7.94681e-15
6.7002e-15
5.62173e-15
4.69391e-15
3.90011e-15
3.22472e-15
2.65324e-15
2.17232e-15
1.76984e-15
1.43482e-15
1.15749e-15
9.29144e-16
7.42157e-16
5.89863e-16
4.66495e-16
3.67095e-16
2.87439e-16
2.23946e-16
1.73608e-16
1.33914e-16
1.02779e-16
7.84893e-17
5.96398e-17
4.50903e-17
3.39195e-17
2.53883e-17
1.89075e-17
1.40104e-17
1.03296e-17
7.57762e-18
5.5309e-18
4.01674e-18
2.90245e-18
2.08676e-18
1.49277e-18
1.0625e-18
7.52457e-19
5.30207e-19
3.71718e-19
2.59272e-19
1.79877e-19
1.24054e-19
8.49044e-20
5.74179e-20
3.7949e-20
2.38289e-20
1.30748e-20
4.16309e-21
1.12706e-20
3.45626e-20
6.01865e-20
8.99509e-20
1.26025e-19
1.71069e-19
2.2837e-19
3.02019e-19
3.97127e-19
5.2011e-19
6.79045e-19
8.84115e-19
1.14815e-18
1.48732e-18
1.92191e-18
2.47736e-18
3.18547e-18
4.08586e-18
5.2278e-18
6.67233e-18
8.49487e-18
1.07883e-17
1.36668e-17
1.72701e-17
2.17689e-17
2.73707e-17
3.43277e-17
4.29446e-17
5.35892e-17
6.67033e-17
8.28166e-17
1.02562e-16
1.26692e-16
1.56102e-16
1.91849e-16
2.35179e-16
2.8756e-16
3.50706e-16
4.26622e-16
5.17637e-16
6.26453e-16
7.56189e-16
9.10434e-16
1.09331e-15
1.30951e-15
1.56439e-15
1.86403e-15
2.21526e-15
2.62581e-15
3.10431e-15
3.66039e-15
4.30476e-15
5.04926e-15
5.90693e-15
6.89204e-15
8.02019e-15
9.30829e-15
1.07746e-14
1.24387e-14
1.43217e-14
1.64456e-14
1.8834e-14
2.15114e-14
2.45035e-14
2.78366e-14
3.15377e-14
3.56343e-14
4.01539e-14
4.51238e-14
5.05707e-14
5.65203e-14
6.29969e-14
7.00229e-14
7.76184e-14
8.58002e-14
9.4582e-14
1.03973e-13
1.13979e-13
1.24598e-13
1.35826e-13
1.47649e-13
1.60049e-13
1.72999e-13
1.86467e-13
2.00412e-13
2.14783e-13
2.29526e-13
2.44574e-13
2.59856e-13
2.75293e-13
2.90798e-13
3.06279e-13
3.21637e-13
3.3677e-13
3.51573e-13
3.65936e-13
3.7975e-13
3.92904e-13
4.05291e-13
4.16805e-13
4.27345e-13
4.36816e-13
4.45129e-13
4.52204e-13
4.57972e-13
4.62374e-13
4.65363e-13
4.66905e-13
4.66979e-13
4.6558e-13
4.62714e-13
4.58404e-13
4.52688e-13
4.45614e-13
4.37249e-13
4.27667e-13
4.16957e-13
4.05219e-13
3.92559e-13
3.79095e-13
3.64949e-13
3.50249e-13
3.35125e-13
3.1971e-13
3.04139e-13
2.88543e-13
2.73052e-13
2.57793e-13
2.42888e-13
2.2845e-13
2.14591e-13
2.0141e-13
1.89e-13
1.77447e-13
1.66825e-13
1.57201e-13
1.48631e-13
1.41161e-13
1.3483e-13
1.29666e-13
1.25686e-13
1.229e-13
1.21308e-13
1.209e-13
1.21657e-13
1.23553e-13
1.2655e-13
1.30603e-13
1.35657e-13
1.41651e-13
1.48511e-13
1.56158e-13
1.64505e-13
1.73454e-13
1.82904e-13
1.92744e-13
2.0286e-13
2.13131e-13
2.23432e-13
2.33638e-13
2.43621e-13
2.53253e-13
2.62409e-13
2.70968e-13
2.78812e-13
2.85834e-13
2.91933e-13
2.9702e-13
3.01017e-13
3.03862e-13
3.05505e-13
3.05912e-13
3.05067e-13
3.02969e-13
2.99634e-13
2.95093e-13
2.89395e-13
2.82601e-13
2.74787e-13
2.66041e-13
2.5646e-13
2.46149e-13
2.35221e-13
2.2379e-13
2.11976e-13
1.99895e-13
1.87662e-13
1.7539e-13
1.63183e-13
1.51139e-13
1.3935e-13
1.27895e-13
1.16845e-13
1.0626e-13
9.61879e-14
8.66676e-14
7.7727e-14
6.93836e-14
6.16461e-14
5.45144e-14
4.79806e-14
4.20303e-14
3.66434e-14
3.1795e-14
2.74565e-14
2.35966e-14
2.0182e-14
1.71785e-14
1.45515e-14
1.22666e-14
1.02903e-14
8.59054e-15
7.1366e-15
5.8998e-15
4.8535e-15
3.97318e-15
3.23657e-15
2.62356e-15
2.11617e-15
1.69849e-15
1.35651e-15
1.07802e-15
8.52457e-16
6.70746e-16
5.25146e-16
4.09106e-16
3.1712e-16
2.44591e-16
1.87708e-16
1.43335e-16
1.08905e-16
8.2331e-17
6.193e-17
4.63509e-17
3.45171e-17
2.55758e-17
1.88556e-17
1.38315e-17
1.00952e-17
7.33124e-18
5.29731e-18
3.80847e-18
2.72434e-18
1.93905e-18
1.3732e-18
9.67588e-19
6.7835e-19
4.73143e-19
3.28257e-19
2.26386e-19
1.54943e-19
1.04784e-19
6.92555e-20
4.34878e-20
2.38621e-20
7.59801e-21
2.00343e-20
6.14367e-20
1.06981e-19
1.59879e-19
2.2398e-19
3.04005e-19
4.05788e-19
5.36585e-19
7.05463e-19
9.23798e-19
1.20591e-18
1.56985e-18
2.03837e-18
2.64009e-18
3.41096e-18
4.39605e-18
5.65165e-18
7.24791e-18
9.27202e-18
1.1832e-17
1.50612e-17
1.91241e-17
2.42223e-17
3.06029e-17
3.85674e-17
4.84827e-17
6.07939e-17
7.60392e-17
9.48674e-17
1.18058e-16
1.46546e-16
1.81446e-16
2.24087e-16
2.76043e-16
3.39177e-16
4.15684e-16
5.08145e-16
6.19577e-16
7.53503e-16
9.14017e-16
1.10587e-15
1.33452e-15
1.60629e-15
1.92839e-15
2.30905e-15
2.75767e-15
3.28485e-15
3.9026e-15
4.62439e-15
5.4653e-15
6.44216e-15
7.57365e-15
8.8804e-15
1.03851e-14
1.21126e-14
1.40901e-14
1.63468e-14
1.89145e-14
2.18272e-14
2.51211e-14
2.88347e-14
3.30083e-14
3.76845e-14
4.29072e-14
4.87218e-14
5.51745e-14
6.23124e-14
7.01822e-14
7.88305e-14
8.83025e-14
9.86416e-14
1.09889e-13
1.22081e-13
1.35251e-13
1.49428e-13
1.64632e-13
1.80878e-13
1.98173e-13
2.16512e-13
2.35885e-13
2.56267e-13
2.77622e-13
2.99905e-13
3.23054e-13
3.46996e-13
3.71646e-13
3.96901e-13
4.2265e-13
4.48767e-13
4.75112e-13
5.01536e-13
5.27879e-13
5.53973e-13
5.79639e-13
6.04698e-13
6.28962e-13
6.52244e-13
6.74358e-13
6.9512e-13
7.14352e-13
7.31884e-13
7.47556e-13
7.61222e-13
7.72749e-13
7.82023e-13
7.88949e-13
7.93452e-13
7.95479e-13
7.95002e-13
7.92015e-13
7.86538e-13
7.78614e-13
7.68312e-13
7.55723e-13
7.40961e-13
7.24162e-13
7.05478e-13
6.85082e-13
6.63162e-13
6.39915e-13
6.15554e-13
5.90294e-13
5.64361e-13
5.37978e-13
5.11371e-13
4.84764e-13
4.58375e-13
4.32414e-13
4.07085e-13
3.8258e-13
3.59079e-13
3.36748e-13
3.1574e-13
2.96194e-13
2.78231e-13
2.61958e-13
2.47465e-13
2.34827e-13
2.241e-13
2.15329e-13
2.08537e-13
2.03738e-13
2.00925e-13
2.00078e-13
2.01164e-13
2.04132e-13
2.08917e-13
2.15442e-13
2.23613e-13
2.33323e-13
2.4445e-13
2.56861e-13
2.70409e-13
2.84933e-13
3.00263e-13
3.16218e-13
3.32607e-13
3.49233e-13
3.65893e-13
3.82379e-13
3.98482e-13
4.13997e-13
4.28718e-13
4.42449e-13
4.55002e-13
4.66201e-13
4.75887e-13
4.83916e-13
4.90165e-13
4.94534e-13
4.96946e-13
4.9735e-13
4.95721e-13
4.92062e-13
4.86401e-13
4.78793e-13
4.69318e-13
4.58079e-13
4.45202e-13
4.3083e-13
4.15122e-13
3.98251e-13
3.80399e-13
3.61755e-13
3.42508e-13
3.22849e-13
3.02965e-13
2.83035e-13
2.63229e-13
2.43705e-13
2.24608e-13
2.06066e-13
1.88191e-13
1.71079e-13
1.54807e-13
1.39435e-13
1.25008e-13
1.11552e-13
9.90788e-14
8.75882e-14
7.7066e-14
6.74879e-14
5.88205e-14
5.10228e-14
4.4048e-14
3.78451e-14
3.23599e-14
2.75369e-14
2.33198e-14
1.96532e-14
1.6483e-14
1.37571e-14
1.14261e-14
9.44388e-15
7.76741e-15
6.35729e-15
5.17766e-15
4.1962e-15
3.38406e-15
2.71565e-15
2.1685e-15
1.72304e-15
1.36231e-15
1.07176e-15
8.38991e-16
6.53514e-16
5.06509e-16
3.90618e-16
2.99741e-16
2.2886e-16
1.73868e-16
1.3143e-16
9.88537e-17
7.398e-17
5.50881e-17
4.08151e-17
3.00888e-17
2.20703e-17
1.61076e-17
1.16969e-17
8.45143e-18
6.07587e-18
4.34616e-18
3.09329e-18
2.19056e-18
1.5435e-18
1.08209e-18
7.54747e-19
5.23627e-19
3.61127e-19
2.47165e-19
1.67154e-19
1.10481e-19
6.93771e-20
3.80689e-20
1.21219e-20
3.43835e-20
1.05438e-19
1.83594e-19
2.74356e-19
3.84324e-19
5.21581e-19
6.96123e-19
9.20374e-19
1.20986e-18
1.58405e-18
2.06745e-18
2.69095e-18
3.49346e-18
4.52393e-18
5.84383e-18
7.53018e-18
9.67919e-18
1.24107e-17
1.58737e-17
2.02524e-17
2.57748e-17
3.27213e-17
4.1436e-17
5.23403e-17
6.59484e-17
8.28855e-17
1.0391e-16
1.29939e-16
1.62077e-16
2.01651e-16
2.50251e-16
3.09775e-16
3.82479e-16
4.7104e-16
5.78624e-16
7.08958e-16
8.66418e-16
1.05613e-15
1.28406e-15
1.55714e-15
1.88343e-15
2.27217e-15
2.73404e-15
3.28124e-15
3.92769e-15
4.68924e-15
5.58379e-15
6.63157e-15
7.8553e-15
9.28036e-15
1.09351e-14
1.28508e-14
1.50622e-14
1.76074e-14
2.05279e-14
2.38693e-14
2.76806e-14
3.20146e-14
3.69282e-14
4.24817e-14
4.8739e-14
5.57674e-14
6.3637e-14
7.24208e-14
8.21936e-14
9.30316e-14
1.05012e-13
1.18212e-13
1.32706e-13
1.4857e-13
1.65872e-13
1.84679e-13
2.05049e-13
2.27036e-13
2.50681e-13
2.76019e-13
3.03067e-13
3.31834e-13
3.6231e-13
3.9447e-13
4.28271e-13
4.63649e-13
5.0052e-13
5.38782e-13
5.78308e-13
6.18949e-13
6.60536e-13
7.02877e-13
7.4576e-13
7.88953e-13
8.32205e-13
8.75251e-13
9.1781e-13
9.59589e-13
1.00029e-12
1.0396e-12
1.07723e-12
1.11286e-12
1.14619e-12
1.17694e-12
1.20483e-12
1.22961e-12
1.25104e-12
1.26892e-12
1.28307e-12
1.29333e-12
1.2996e-12
1.3018e-12
1.2999e-12
1.29389e-12
1.28383e-12
1.26978e-12
1.25188e-12
1.23029e-12
1.20519e-12
1.17682e-12
1.14544e-12
1.11134e-12
1.07482e-12
1.03622e-12
9.95873e-13
9.5415e-13
9.11409e-13
8.68017e-13
8.24341e-13
7.8074e-13
7.37565e-13
6.95156e-13
6.53835e-13
6.13908e-13
5.7566e-13
5.39355e-13
5.0523e-13
4.73501e-13
4.44357e-13
4.17961e-13
3.94449e-13
3.73932e-13
3.56495e-13
3.42197e-13
3.31071e-13
3.23126e-13
3.18348e-13
3.16696e-13
3.18107e-13
3.22496e-13
3.29754e-13
3.3975e-13
3.5233e-13
3.6732e-13
3.84524e-13
4.03725e-13
4.24688e-13
4.47159e-13
4.70866e-13
4.95523e-13
5.2083e-13
5.46477e-13
5.72144e-13
5.97508e-13
6.22245e-13
6.46033e-13
6.68557e-13
6.89511e-13
7.08608e-13
7.25578e-13
7.40176e-13
7.52185e-13
7.61418e-13
7.67726e-13
7.70995e-13
7.71152e-13
7.68163e-13
7.62039e-13
7.52828e-13
7.40622e-13
7.25549e-13
7.07774e-13
6.87493e-13
6.64932e-13
6.40341e-13
6.13988e-13
5.86156e-13
5.57136e-13
5.27224e-13
4.96713e-13
4.65889e-13
4.3503e-13
4.04394e-13
3.74223e-13
3.44739e-13
3.16136e-13
2.88585e-13
2.6223e-13
2.37187e-13
2.13546e-13
1.91371e-13
1.70703e-13
1.51557e-13
1.33929e-13
1.17795e-13
1.03118e-13
8.98422e-14
7.79049e-14
6.72326e-14
5.77458e-14
4.93604e-14
4.19904e-14
3.55491e-14
2.99509e-14
2.51124e-14
2.09536e-14
1.73986e-14
1.43765e-14
1.18215e-14
9.67301e-15
7.87629e-15
6.38186e-15
5.14559e-15
4.12839e-15
3.29595e-15
2.61838e-15
2.06982e-15
1.62809e-15
1.27429e-15
9.92423e-16
7.69066e-16
5.93015e-16
4.5499e-16
3.47352e-16
2.63856e-16
1.99431e-16
1.49985e-16
1.12234e-16
8.3566e-17
6.19095e-17
4.5636e-17
3.34719e-17
2.44273e-17
1.77375e-17
1.28153e-17
9.21275e-18
6.58977e-18
4.69e-18
3.32121e-18
2.34013e-18
1.64057e-18
1.14427e-18
7.93868e-19
5.47506e-19
3.74734e-19
2.53434e-19
1.67514e-19
1.05195e-19
5.77252e-20
1.83814e-20
5.81636e-20
1.78356e-19
3.10551e-19
4.64048e-19
6.49991e-19
8.82031e-19
1.17704e-18
1.55599e-18
2.04507e-18
2.67714e-18
3.49353e-18
4.54632e-18
5.9011e-18
7.64039e-18
9.86776e-18
1.2713e-17
1.6338e-17
2.09447e-17
2.67837e-17
3.41654e-17
4.34728e-17
5.51777e-17
6.98588e-17
8.82244e-17
1.11138e-16
1.3965e-16
1.75035e-16
2.1883e-16
2.7289e-16
3.39441e-16
4.21147e-16
5.2119e-16
6.43349e-16
7.92109e-16
9.72765e-16
1.19155e-15
1.4558e-15
1.77405e-15
2.15629e-15
2.6141e-15
3.16089e-15
3.81212e-15
4.58555e-15
5.50151e-15
6.58319e-15
7.8569e-15
9.35246e-15
1.11034e-14
1.31475e-14
1.55268e-14
1.82882e-14
2.14836e-14
2.51704e-14
2.94115e-14
3.42755e-14
3.98374e-14
4.61779e-14
5.3384e-14
6.15489e-14
7.07716e-14
8.11567e-14
9.28141e-14
1.05858e-13
1.20408e-13
1.36585e-13
1.54513e-13
1.74315e-13
1.96117e-13
2.2004e-13
2.46201e-13
2.74712e-13
3.05676e-13
3.39186e-13
3.75323e-13
4.14152e-13
4.55719e-13
5.00052e-13
5.47155e-13
5.97005e-13
6.49554e-13
7.04723e-13
7.62402e-13
8.22445e-13
8.84677e-13
9.48882e-13
1.01481e-12
1.08218e-12
1.15068e-12
1.21994e-12
1.28959e-12
1.35922e-12
1.42839e-12
1.49663e-12
1.56349e-12
1.62847e-12
1.69107e-12
1.7508e-12
1.80718e-12
1.85973e-12
1.90798e-12
1.95151e-12
1.98991e-12
2.02282e-12
2.04992e-12
2.07093e-12
2.08563e-12
2.09386e-12
2.09551e-12
2.09054e-12
2.07899e-12
2.06092e-12
2.0365e-12
2.00593e-12
1.9695e-12
1.92753e-12
1.8804e-12
1.82854e-12
1.77243e-12
1.71257e-12
1.6495e-12
1.58377e-12
1.51597e-12
1.44668e-12
1.37649e-12
1.30597e-12
1.23571e-12
1.16624e-12
1.09811e-12
1.03183e-12
9.67869e-13
9.0667e-13
8.48639e-13
7.94146e-13
7.43515e-13
6.97034e-13
6.54945e-13
6.17452e-13
5.84714e-13
5.5685e-13
5.3394e-13
5.16022e-13
5.03097e-13
4.95127e-13
4.92038e-13
4.93719e-13
5.00025e-13
5.10775e-13
5.25754e-13
5.44715e-13
5.67377e-13
5.9343e-13
6.22531e-13
6.54309e-13
6.88368e-13
7.24283e-13
7.61611e-13
7.99887e-13
8.38634e-13
8.77361e-13
9.15574e-13
9.52777e-13
9.8848e-13
1.0222e-12
1.05349e-12
1.0819e-12
1.10704e-12
1.12853e-12
1.14605e-12
1.15933e-12
1.16815e-12
1.17234e-12
1.1718e-12
1.1665e-12
1.15646e-12
1.14175e-12
1.12253e-12
1.099e-12
1.07142e-12
1.04009e-12
1.00536e-12
9.67604e-13
9.27243e-13
8.84703e-13
8.40428e-13
7.94864e-13
7.48454e-13
7.0163e-13
6.54808e-13
6.08377e-13
5.627e-13
5.18104e-13
4.74882e-13
4.33286e-13
3.93529e-13
3.5578e-13
3.20173e-13
2.86798e-13
2.55711e-13
2.26933e-13
2.00454e-13
1.76234e-13
1.54213e-13
1.34307e-13
1.16418e-13
1.00432e-13
8.62296e-14
7.36821e-14
6.26592e-14
5.30298e-14
4.46643e-14
3.74372e-14
3.12278e-14
2.59221e-14
2.14134e-14
1.76029e-14
1.43999e-14
1.17222e-14
9.49572e-15
7.65442e-15
6.13987e-15
4.90078e-15
3.89248e-15
3.07637e-15
2.41937e-15
1.89327e-15
1.47423e-15
1.14225e-15
8.80632e-16
6.75564e-16
5.15672e-16
3.91665e-16
2.95997e-16
2.22582e-16
1.66542e-16
1.23989e-16
9.18485e-17
6.76997e-17
4.96508e-17
3.6232e-17
2.63076e-17
1.90063e-17
1.36627e-17
9.77238e-18
6.95487e-18
4.92495e-18
3.47006e-18
2.43268e-18
1.69675e-18
1.17717e-18
8.11867e-19
5.55684e-19
3.75822e-19
2.4842e-19
1.56009e-19
8.56124e-20
2.72622e-20
9.76057e-20
2.99298e-19
5.21111e-19
7.78631e-19
1.09053e-18
1.47967e-18
1.97431e-18
2.60956e-18
3.42926e-18
4.4884e-18
5.85615e-18
7.6196e-18
9.88847e-18
1.28007e-17
1.65294e-17
2.12914e-17
2.73575e-17
3.50646e-17
4.48313e-17
5.71757e-17
7.27371e-17
9.23025e-17
1.16837e-16
1.47522e-16
1.85797e-16
2.33411e-16
2.92487e-16
3.65586e-16
4.55794e-16
5.66816e-16
7.03083e-16
8.69881e-16
1.0735e-15
1.32137e-15
1.62231e-15
1.98664e-15
2.42653e-15
2.95615e-15
3.59204e-15
4.35338e-15
5.26236e-15
6.34456e-15
7.62934e-15
9.15029e-15
1.09457e-14
1.30589e-14
1.55392e-14
1.84418e-14
2.18287e-14
2.57693e-14
3.03405e-14
3.56277e-14
4.17248e-14
4.87349e-14
5.67706e-14
6.5954e-14
7.64172e-14
8.83021e-14
1.0176e-13
1.16953e-13
1.3405e-13
1.53229e-13
1.74676e-13
1.98581e-13
2.25142e-13
2.54557e-13
2.87024e-13
3.22742e-13
3.61905e-13
4.04697e-13
4.51295e-13
5.01861e-13
5.56538e-13
6.15448e-13
6.78688e-13
7.46324e-13
8.18391e-13
8.94883e-13
9.75754e-13
1.06091e-12
1.15022e-12
1.24347e-12
1.34044e-12
1.44082e-12
1.54425e-12
1.65031e-12
1.75854e-12
1.8684e-12
1.97933e-12
2.0907e-12
2.20183e-12
2.31202e-12
2.42052e-12
2.52657e-12
2.62939e-12
2.72819e-12
2.82217e-12
2.91057e-12
2.99263e-12
3.06762e-12
3.13486e-12
3.19374e-12
3.24369e-12
3.2842e-12
3.31488e-12
3.33539e-12
3.34551e-12
3.34509e-12
3.33409e-12
3.3126e-12
3.28076e-12
3.23886e-12
3.18727e-12
3.12643e-12
3.05692e-12
2.97935e-12
2.89443e-12
2.80293e-12
2.70567e-12
2.60352e-12
2.49738e-12
2.38816e-12
2.2768e-12
2.16422e-12
2.05134e-12
1.93906e-12
1.82826e-12
1.71975e-12
1.61434e-12
1.51274e-12
1.41566e-12
1.3237e-12
1.23742e-12
1.15732e-12
1.08383e-12
1.01729e-12
9.58019e-13
9.06231e-13
8.62091e-13
8.25702e-13
7.97102e-13
7.76269e-13
7.63126e-13
7.57536e-13
7.59309e-13
7.68201e-13
7.83916e-13
8.06106e-13
8.34376e-13
8.68281e-13
9.07329e-13
9.50986e-13
9.98673e-13
1.04978e-12
1.10364e-12
1.15958e-12
1.21689e-12
1.27484e-12
1.33268e-12
1.38966e-12
1.44503e-12
1.49806e-12
1.54802e-12
1.59423e-12
1.63603e-12
1.67284e-12
1.70409e-12
1.72933e-12
1.74814e-12
1.76022e-12
1.76533e-12
1.76333e-12
1.75417e-12
1.73791e-12
1.71468e-12
1.68473e-12
1.64836e-12
1.60597e-12
1.55803e-12
1.50507e-12
1.44767e-12
1.38645e-12
1.32206e-12
1.25516e-12
1.18643e-12
1.11652e-12
1.04608e-12
9.75739e-13
9.06062e-13
8.37589e-13
7.70805e-13
7.06139e-13
6.43963e-13
5.84584e-13
5.28253e-13
4.75158e-13
4.2543e-13
3.79143e-13
3.36324e-13
2.96951e-13
2.60961e-13
2.28258e-13
1.98714e-13
1.72177e-13
1.48478e-13
1.27433e-13
1.0885e-13
9.25328e-14
7.82853e-14
6.59136e-14
5.523e-14
4.60549e-14
3.82184e-14
3.15616e-14
2.59378e-14
2.12123e-14
1.72632e-14
1.39807e-14
1.12669e-14
9.03543e-15
7.21033e-15
5.7256e-15
4.52422e-15
3.55729e-15
2.78321e-15
2.16681e-15
1.67857e-15
1.29391e-15
9.92451e-16
7.57448e-16
5.7522e-16
4.34662e-16
3.26815e-16
2.44504e-16
1.82013e-16
1.34819e-16
9.93633e-17
7.28672e-17
5.317e-17
3.86037e-17
2.78882e-17
2.00465e-17
1.43379e-17
1.02037e-17
7.22538e-18
5.09082e-18
3.56887e-18
2.48921e-18
1.72697e-18
1.19106e-18
8.15243e-19
5.51386e-19
3.64483e-19
2.28908e-19
1.25623e-19
4.00041e-20
1.62817e-19
4.99251e-19
8.69216e-19
1.29867e-18
1.81873e-18
2.46744e-18
3.29185e-18
4.35039e-18
5.71602e-18
7.48021e-18
9.758e-18
1.26942e-17
1.64713e-17
2.13184e-17
2.75233e-17
3.54461e-17
4.55364e-17
5.83539e-17
7.45931e-17
9.5114e-17
1.20977e-16
1.53488e-16
1.94246e-16
2.45209e-16
3.08763e-16
3.87806e-16
4.85851e-16
6.07139e-16
7.56776e-16
9.40887e-16
1.1668e-15
1.44326e-15
1.78063e-15
2.19123e-15
2.68956e-15
3.29269e-15
4.02065e-15
4.89683e-15
5.94844e-15
7.2071e-15
8.70929e-15
1.04971e-14
1.26188e-14
1.51294e-14
1.8092e-14
2.15776e-14
2.56669e-14
3.04503e-14
3.60295e-14
4.25176e-14
5.00406e-14
5.87377e-14
6.8762e-14
8.02816e-14
9.34795e-14
1.08554e-13
1.25721e-13
1.45208e-13
1.67263e-13
1.92144e-13
2.20127e-13
2.51499e-13
2.86556e-13
3.25608e-13
3.68966e-13
4.16949e-13
4.69874e-13
5.28055e-13
5.91797e-13
6.61393e-13
7.37117e-13
8.19219e-13
9.07921e-13
1.00341e-12
1.10582e-12
1.21524e-12
1.33173e-12
1.45524e-12
1.58569e-12
1.7229e-12
1.86664e-12
2.01658e-12
2.17229e-12
2.33328e-12
2.49894e-12
2.6686e-12
2.84148e-12
3.01671e-12
3.19336e-12
3.37041e-12
3.54677e-12
3.72131e-12
3.89282e-12
4.06008e-12
4.22184e-12
4.37685e-12
4.52384e-12
4.66161e-12
4.78895e-12
4.90475e-12
5.00793e-12
5.09755e-12
5.17272e-12
5.2327e-12
5.27688e-12
5.30479e-12
5.31608e-12
5.31059e-12
5.28832e-12
5.24941e-12
5.19418e-12
5.1231e-12
5.03681e-12
4.93606e-12
4.82179e-12
4.69502e-12
4.55689e-12
4.40866e-12
4.25165e-12
4.08723e-12
3.91684e-12
3.74195e-12
3.56402e-12
3.38451e-12
3.20487e-12
3.0265e-12
2.85075e-12
2.67891e-12
2.5122e-12
2.35175e-12
2.19859e-12
2.05367e-12
1.91783e-12
1.79181e-12
1.67624e-12
1.57165e-12
1.47846e-12
1.39699e-12
1.32746e-12
1.26999e-12
1.22461e-12
1.19125e-12
1.16977e-12
1.1599e-12
1.16135e-12
1.1737e-12
1.19647e-12
1.2291e-12
1.27097e-12
1.32137e-12
1.37953e-12
1.44463e-12
1.51576e-12
1.59198e-12
1.67228e-12
1.75562e-12
1.84092e-12
1.92707e-12
2.01294e-12
2.0974e-12
2.17933e-12
2.25761e-12
2.33118e-12
2.39901e-12
2.46013e-12
2.51366e-12
2.5588e-12
2.59485e-12
2.62125e-12
2.63753e-12
2.64337e-12
2.63858e-12
2.62311e-12
2.59706e-12
2.56067e-12
2.5143e-12
2.45843e-12
2.39369e-12
2.32078e-12
2.2405e-12
2.15373e-12
2.0614e-12
1.96449e-12
1.86399e-12
1.7609e-12
1.6562e-12
1.55084e-12
1.44575e-12
1.34178e-12
1.23972e-12
1.14027e-12
1.04407e-12
9.51652e-13
8.63472e-13
7.79886e-13
7.01162e-13
6.27486e-13
5.58959e-13
4.95608e-13
4.37395e-13
3.84218e-13
3.35927e-13
2.92326e-13
2.53187e-13
2.18252e-13
1.87245e-13
1.59881e-13
1.35865e-13
1.14905e-13
9.67134e-14
8.10109e-14
6.75312e-14
5.60229e-14
4.62511e-14
3.79987e-14
3.10672e-14
2.52766e-14
2.0465e-14
1.64884e-14
1.32196e-14
1.05469e-14
8.37322e-15
6.61489e-15
5.20008e-15
4.06773e-15
3.16626e-15
2.4524e-15
1.89009e-15
1.4495e-15
1.10611e-15
8.39882e-16
6.34569e-16
4.77064e-16
3.56872e-16
2.65633e-16
1.96737e-16
1.44986e-16
1.06315e-16
7.75709e-17
5.63163e-17
4.06818e-17
2.92413e-17
2.09134e-17
1.48828e-17
1.05384e-17
7.42496e-18
5.20514e-18
3.63044e-18
2.51875e-18
1.73716e-18
1.18906e-18
8.04238e-19
5.31649e-19
3.3391e-19
1.83255e-19
5.83586e-20
2.70143e-19
8.28332e-19
1.4421e-18
2.15446e-18
3.01694e-18
4.09258e-18
5.45927e-18
7.21373e-18
9.47672e-18
1.23996e-17
1.61727e-17
2.10356e-17
2.72898e-17
3.53143e-17
4.55847e-17
5.86961e-17
7.53911e-17
9.6594e-17
1.23452e-16
1.57384e-16
2.0014e-16
2.53874e-16
3.21224e-16
4.05419e-16
5.10389e-16
6.40912e-16
8.02771e-16
1.00295e-15
1.24986e-15
1.55357e-15
1.92613e-15
2.38192e-15
2.938e-15
3.61455e-15
4.43542e-15
5.42862e-15
6.62701e-15
8.06891e-15
9.79896e-15
1.18689e-14
1.43385e-14
1.72766e-14
2.0762e-14
2.48849e-14
2.9748e-14
3.54674e-14
4.21744e-14
5.00167e-14
5.91596e-14
6.97872e-14
8.21043e-14
9.63368e-14
1.12733e-13
1.31566e-13
1.53132e-13
1.77751e-13
2.05771e-13
2.37562e-13
2.7352e-13
3.14063e-13
3.59632e-13
4.10687e-13
4.67705e-13
5.31176e-13
6.01601e-13
6.79483e-13
7.65324e-13
8.59621e-13
9.62854e-13
1.07548e-12
1.19792e-12
1.33058e-12
1.47377e-12
1.62778e-12
1.79281e-12
1.96898e-12
2.15634e-12
2.3548e-12
2.5642e-12
2.78424e-12
3.01448e-12
3.25438e-12
3.50322e-12
3.76018e-12
4.02427e-12
4.29437e-12
4.5692e-12
4.84738e-12
5.12736e-12
5.40751e-12
5.68608e-12
5.96123e-12
6.23106e-12
6.49362e-12
6.7469e-12
6.98893e-12
7.21774e-12
7.43138e-12
7.62802e-12
7.80589e-12
7.96335e-12
8.09892e-12
8.21128e-12
8.2993e-12
8.36207e-12
8.3989e-12
8.40934e-12
8.3932e-12
8.35052e-12
8.28163e-12
8.1871e-12
8.06774e-12
7.92461e-12
7.759e-12
7.5724e-12
7.36651e-12
7.14317e-12
6.90438e-12
6.65226e-12
6.38902e-12
6.11692e-12
5.83827e-12
5.55539e-12
5.27056e-12
4.98604e-12
4.70401e-12
4.42657e-12
4.15569e-12
3.89326e-12
3.64099e-12
3.40047e-12
3.17311e-12
2.96019e-12
2.76281e-12
2.58188e-12
2.41818e-12
2.27232e-12
2.14472e-12
2.03569e-12
1.94535e-12
1.87369e-12
1.82057e-12
1.7857e-12
1.76866e-12
1.76891e-12
1.78579e-12
1.81853e-12
1.86625e-12
1.92793e-12
2.00249e-12
2.08873e-12
2.18536e-12
2.291e-12
2.40418e-12
2.52339e-12
2.64703e-12
2.77346e-12
2.901e-12
3.02796e-12
3.15263e-12
3.27333e-12
3.38841e-12
3.49627e-12
3.59539e-12
3.68436e-12
3.76185e-12
3.82672e-12
3.87794e-12
3.91469e-12
3.93631e-12
3.94235e-12
3.93256e-12
3.90692e-12
3.86559e-12
3.80894e-12
3.73755e-12
3.65219e-12
3.55377e-12
3.44339e-12
3.32224e-12
3.19164e-12
3.053e-12
2.90775e-12
2.75739e-12
2.60339e-12
2.44721e-12
2.29027e-12
2.1339e-12
1.97937e-12
1.82784e-12
1.68033e-12
1.53778e-12
1.40096e-12
1.27051e-12
1.14697e-12
1.0307e-12
9.21966e-13
8.20903e-13
7.27539e-13
6.41802e-13
5.63533e-13
4.92498e-13
4.284e-13
3.70894e-13
3.19592e-13
2.74085e-13
2.33943e-13
1.98731e-13
1.68014e-13
1.41366e-13
1.18375e-13
9.86462e-14
8.18101e-14
6.75201e-14
5.54567e-14
4.53279e-14
3.68692e-14
2.98431e-14
2.40382e-14
1.9268e-14
1.53688e-14
1.21987e-14
9.63497e-15
7.57268e-15
5.92253e-15
4.60916e-15
3.56935e-15
2.75048e-15
2.109e-15
1.60913e-15
1.22166e-15
9.22898e-16
6.93743e-16
5.18901e-16
3.86197e-16
2.86003e-16
2.10751e-16
1.54528e-16
1.1274e-16
8.18435e-17
5.91187e-17
4.24914e-17
3.03886e-17
2.1625e-17
1.53121e-17
1.07881e-17
7.56269e-18
5.27474e-18
3.65955e-18
2.52399e-18
1.72766e-18
1.16857e-18
7.72527e-19
4.8522e-19
2.66308e-19
8.48099e-20
4.459e-19
1.36722e-18
2.38018e-18
3.55571e-18
4.9787e-18
6.75302e-18
9.00698e-18
1.18999e-17
1.56306e-17
2.04482e-17
2.6666e-17
3.46782e-17
4.49809e-17
5.81974e-17
7.51098e-17
9.66961e-17
1.24177e-16
1.59071e-16
2.03263e-16
2.59083e-16
3.29405e-16
4.17762e-16
5.28487e-16
6.66871e-16
8.39363e-16
1.05379e-15
1.31964e-15
1.64835e-15
2.05368e-15
2.55214e-15
3.16344e-15
3.91109e-15
4.82298e-15
5.93213e-15
7.27747e-15
8.90477e-15
1.08676e-14
1.32286e-14
1.60605e-14
1.94475e-14
2.34872e-14
2.82914e-14
3.39886e-14
4.07253e-14
4.86683e-14
5.80062e-14
6.89522e-14
8.17457e-14
9.66544e-14
1.13977e-13
1.34043e-13
1.5722e-13
1.83908e-13
2.14545e-13
2.49611e-13
2.89622e-13
3.35135e-13
3.86744e-13
4.45086e-13
5.10829e-13
5.84678e-13
6.67367e-13
7.59656e-13
8.62323e-13
9.76163e-13
1.10197e-12
1.24054e-12
1.39265e-12
1.55905e-12
1.74045e-12
1.93751e-12
2.15083e-12
2.38091e-12
2.62816e-12
2.89286e-12
3.17519e-12
3.47516e-12
3.79261e-12
4.12721e-12
4.47844e-12
4.84558e-12
5.22767e-12
5.62357e-12
6.03189e-12
6.45101e-12
6.87909e-12
7.31408e-12
7.75371e-12
8.19552e-12
8.63687e-12
9.07496e-12
9.50685e-12
9.92951e-12
1.03398e-11
1.07347e-11
1.1111e-11
1.14655e-11
1.17954e-11
1.20976e-11
1.23695e-11
1.26086e-11
1.28125e-11
1.29794e-11
1.31074e-11
1.31953e-11
1.3242e-11
1.3247e-11
1.32101e-11
1.31315e-11
1.30117e-11
1.28518e-11
1.26532e-11
1.24177e-11
1.21473e-11
1.18445e-11
1.15121e-11
1.1153e-11
1.07703e-11
1.03676e-11
9.9482e-12
9.51576e-12
9.07391e-12
8.62624e-12
8.17635e-12
7.72773e-12
7.28375e-12
6.84766e-12
6.4225e-12
6.01112e-12
5.61616e-12
5.24e-12
4.88478e-12
4.5524e-12
4.24448e-12
3.96238e-12
3.7072e-12
3.4798e-12
3.28078e-12
3.1105e-12
2.96908e-12
2.85643e-12
2.77226e-12
2.71604e-12
2.68708e-12
2.68448e-12
2.70717e-12
2.75392e-12
2.82331e-12
2.91378e-12