/*--------------------------------*- C++ -*----------------------------------*\
| =========                 |                                                 |
| \\      /  F ield         | OpenFOAM: The Open Source CFD Toolbox           |
|  \\    /   O peration     | Version:  v2012                                 |
|   \\  /    A nd           | Website:  www.openfoam.com                      |
|    \\/     M anipulation  |                                                 |
\*---------------------------------------------------------------------------*/
FoamFile
{
    version     2.0;
    format      ascii;
    class       surfaceScalarField;
    location    "7";
    object      phi;
}
// * * * * * * * * * * * * * * * * * * * * * * * * * * * * * * * * * * * * * //

dimensions      [0 3 -1 0 0 0 0];
oriented        oriented;


internalField   nonuniform List<scalar> 
130560
(
3.6941e-06
-3.6941e-06
7.38812e-06
-3.69402e-06
1.1082e-05
-3.69387e-06
1.47756e-05
-3.69364e-06
1.8469e-05
-3.69334e-06
2.21619e-05
-3.69295e-06
2.58544e-05
-3.69247e-06
2.95463e-05
-3.69191e-06
3.32375e-05
-3.69125e-06
3.6928e-05
-3.69048e-06
4.06176e-05
-3.68961e-06
4.43063e-05
-3.68862e-06
4.79938e-05
-3.68751e-06
5.168e-05
-3.68627e-06
5.53649e-05
-3.68488e-06
5.90483e-05
-3.68334e-06
6.27299e-05
-3.68163e-06
6.64096e-05
-3.67975e-06
7.00873e-05
-3.67768e-06
7.37627e-05
-3.67541e-06
7.74357e-05
-3.67292e-06
8.11059e-05
-3.67021e-06
8.47731e-05
-3.66725e-06
8.84371e-05
-3.66402e-06
9.20977e-05
-3.66052e-06
9.57544e-05
-3.65673e-06
9.9407e-05
-3.65262e-06
0.000103055
-3.64819e-06
0.000106699
-3.6434e-06
0.000110337
-3.63825e-06
0.00011397
-3.63271e-06
0.000117596
-3.62676e-06
0.000121217
-3.62038e-06
0.00012483
-3.61356e-06
0.000128437
-3.60626e-06
0.000132035
-3.59847e-06
0.000135625
-3.59016e-06
0.000139206
-3.58132e-06
0.000142778
-3.57192e-06
0.00014634
-3.56193e-06
0.000149892
-3.55134e-06
0.000153432
-3.54011e-06
0.00015696
-3.52824e-06
0.000160476
-3.51568e-06
0.000163978
-3.50243e-06
0.000167467
-3.48845e-06
0.00017094
-3.47373e-06
0.000174399
-3.45824e-06
0.00017784
-3.44195e-06
0.000181265
-3.42485e-06
0.000184672
-3.40691e-06
0.00018806
-3.3881e-06
0.000191429
-3.36842e-06
0.000194777
-3.34783e-06
0.000198103
-3.32632e-06
0.000201407
-3.30387e-06
0.000204687
-3.28045e-06
0.000207943
-3.25605e-06
0.000211174
-3.23065e-06
0.000214378
-3.20424e-06
0.000217555
-3.17679e-06
0.000220703
-3.1483e-06
0.000223822
-3.11874e-06
0.00022691
-3.08811e-06
0.000229966
-3.0564e-06
0.00023299
-3.02359e-06
0.00023598
-2.98967e-06
0.000238934
-2.95464e-06
0.000241853
-2.9185e-06
0.000244734
-2.88123e-06
0.000247577
-2.84283e-06
0.00025038
-2.8033e-06
0.000253143
-2.76264e-06
0.000255864
-2.72086e-06
0.000258542
-2.67795e-06
0.000261176
-2.63392e-06
0.000263764
-2.58877e-06
0.000266307
-2.54252e-06
0.000268802
-2.49518e-06
0.000271249
-2.44674e-06
0.000273646
-2.39724e-06
0.000275993
-2.34668e-06
0.000278288
-2.29508e-06
0.00028053
-2.24246e-06
0.000282719
-2.18884e-06
0.000284853
-2.13424e-06
0.000286932
-2.07869e-06
0.000288954
-2.0222e-06
0.000290919
-1.96482e-06
0.000292826
-1.90656e-06
0.000294673
-1.84745e-06
0.000296461
-1.78754e-06
0.000298187
-1.72684e-06
0.000299853
-1.6654e-06
0.000301456
-1.60325e-06
0.000302997
-1.54043e-06
0.000304474
-1.47697e-06
0.000305886
-1.41292e-06
0.000307235
-1.34831e-06
0.000308518
-1.28318e-06
0.000309736
-1.21759e-06
0.000310887
-1.15156e-06
0.000311972
-1.08514e-06
0.000312991
-1.01838e-06
0.000313942
-9.51323e-07
0.000314826
-8.84008e-07
0.000315642
-8.16481e-07
0.000316391
-7.48789e-07
0.000317072
-6.80975e-07
0.000317685
-6.13085e-07
0.00031823
-5.45163e-07
0.000318708
-4.77254e-07
0.000319117
-4.09401e-07
0.000319459
-3.41649e-07
0.000319733
-2.7404e-07
0.000319939
-2.06618e-07
0.000320079
-1.39424e-07
0.000320151
-7.24997e-08
0.000320157
-5.88529e-09
0.000320097
6.03796e-08
0.000319971
1.26256e-07
0.000319779
1.91707e-07
0.000319522
2.56696e-07
0.000319201
3.21187e-07
0.000318816
3.85146e-07
0.000318367
4.4854e-07
0.000317856
5.11338e-07
0.000317282
5.73508e-07
0.000316647
6.35022e-07
0.000315952
6.95853e-07
0.000315196
7.55973e-07
0.00031438
8.15358e-07
0.000313506
8.73983e-07
0.000312574
9.31828e-07
0.000311586
9.88872e-07
0.00031054
1.04509e-06
0.00030944
1.10048e-06
0.000308285
1.155e-06
0.000307076
1.20866e-06
0.000305815
1.26144e-06
0.000304502
1.31331e-06
0.000303137
1.36428e-06
0.000301723
1.41434e-06
0.000300259
1.46346e-06
0.000298748
1.51166e-06
0.000297189
1.55892e-06
0.000295584
1.60523e-06
0.000293933
1.6506e-06
0.000292238
1.69502e-06
0.0002905
1.7385e-06
0.000288719
1.78102e-06
0.000286896
1.8226e-06
0.000285033
1.86323e-06
0.00028313
1.90291e-06
0.000281188
1.94166e-06
0.000279209
1.97947e-06
0.000277192
2.01636e-06
0.00027514
2.05232e-06
0.000273053
2.08737e-06
0.000270931
2.12151e-06
0.000268776
2.15475e-06
0.000266589
2.1871e-06
0.000264371
2.21857e-06
0.000262122
2.24917e-06
0.000259843
2.27891e-06
0.000257535
2.30781e-06
0.000255199
2.33586e-06
0.000252836
2.3631e-06
0.000250446
2.38952e-06
0.000248031
2.41514e-06
0.000245591
2.43998e-06
0.000243127
2.46404e-06
0.00024064
2.48735e-06
0.00023813
2.50991e-06
0.000235598
2.53174e-06
0.000233045
2.55285e-06
0.000230472
2.57326e-06
0.000227879
2.59298e-06
0.000225267
2.61202e-06
0.000222637
2.63041e-06
0.000219989
2.64815e-06
0.000217323
2.66526e-06
0.000214642
2.68175e-06
0.000211944
2.69764e-06
0.000209231
2.71294e-06
0.000206503
2.72767e-06
0.000203761
2.74184e-06
0.000201006
2.75547e-06
0.000198237
2.76856e-06
0.000195456
2.78114e-06
0.000192663
2.79322e-06
0.000189858
2.8048e-06
0.000187042
2.81591e-06
0.000184216
2.82656e-06
0.000181379
2.83676e-06
0.000178532
2.84653e-06
0.000175677
2.85587e-06
0.000172812
2.86481e-06
0.000169938
2.87334e-06
0.000167057
2.8815e-06
0.000164168
2.88928e-06
0.000161271
2.8967e-06
0.000158367
2.90377e-06
0.000155457
2.91051e-06
0.00015254
2.91692e-06
0.000149617
2.92302e-06
0.000146688
2.92881e-06
0.000143754
2.93431e-06
0.000140814
2.93953e-06
0.00013787
2.94449e-06
0.00013492
2.94918e-06
0.000131967
2.95362e-06
0.000129009
2.95782e-06
0.000126047
2.96179e-06
0.000123082
2.96553e-06
0.000120113
2.96907e-06
0.00011714
2.9724e-06
0.000114165
2.97553e-06
0.000111186
2.97848e-06
0.000108205
2.98126e-06
0.000105221
2.98386e-06
0.000102235
2.9863e-06
9.92462e-05
2.98858e-06
9.62555e-05
2.99072e-06
9.32628e-05
2.99272e-06
9.02682e-05
2.99458e-06
8.72719e-05
2.99632e-06
8.42739e-05
2.99794e-06
8.12745e-05
2.99944e-06
7.82736e-05
3.00084e-06
7.52715e-05
3.00213e-06
7.22682e-05
3.00333e-06
6.92637e-05
3.00444e-06
6.62583e-05
3.00547e-06
6.32519e-05
3.00641e-06
6.02446e-05
3.00728e-06
5.72365e-05
3.00808e-06
5.42277e-05
3.00881e-06
5.12182e-05
3.00947e-06
4.82081e-05
3.01008e-06
4.51975e-05
3.01064e-06
4.21864e-05
3.01114e-06
3.91748e-05
3.0116e-06
3.61628e-05
3.012e-06
3.31504e-05
3.01237e-06
3.01377e-05
3.0127e-06
2.71247e-05
3.01299e-06
2.41115e-05
3.01324e-06
2.1098e-05
3.01347e-06
1.80843e-05
3.01366e-06
1.50705e-05
3.01382e-06
1.20566e-05
3.01395e-06
9.04252e-06
3.01405e-06
6.02839e-06
3.01413e-06
3.01421e-06
3.01418e-06
3.01421e-06
3.69417e-06
-7.38826e-06
7.38826e-06
-7.38811e-06
1.10822e-05
-7.38781e-06
1.47759e-05
-7.38736e-06
1.84693e-05
-7.38675e-06
2.21624e-05
-7.38598e-06
2.58549e-05
-7.38503e-06
2.95469e-05
-7.38391e-06
3.32383e-05
-7.38259e-06
3.69289e-05
-7.38107e-06
4.06186e-05
-7.37934e-06
4.43073e-05
-7.37737e-06
4.7995e-05
-7.37516e-06
5.16814e-05
-7.37268e-06
5.53664e-05
-7.36991e-06
5.90499e-05
-7.36684e-06
6.27317e-05
-7.36344e-06
6.64117e-05
-7.35969e-06
7.00895e-05
-7.35557e-06
7.37652e-05
-7.35104e-06
7.74383e-05
-7.34608e-06
8.11088e-05
-7.34066e-06
8.47763e-05
-7.33475e-06
8.84406e-05
-7.32832e-06
9.21014e-05
-7.32134e-06
9.57584e-05
-7.31376e-06
9.94114e-05
-7.30557e-06
0.00010306
-7.29672e-06
0.000106704
-7.28717e-06
0.000110342
-7.27688e-06
0.000113975
-7.26582e-06
0.000117603
-7.25394e-06
0.000121223
-7.24121e-06
0.000124837
-7.22758e-06
0.000128444
-7.21301e-06
0.000132043
-7.19745e-06
0.000135634
-7.18086e-06
0.000139216
-7.1632e-06
0.000142788
-7.14441e-06
0.000146351
-7.12446e-06
0.000149903
-7.1033e-06
0.000153444
-7.08088e-06
0.000156972
-7.05715e-06
0.000160489
-7.03207e-06
0.000163992
-7.00558e-06
0.000167481
-6.97765e-06
0.000170956
-6.94823e-06
0.000174415
-6.91726e-06
0.000177857
-6.88471e-06
0.000181283
-6.85053e-06
0.000184691
-6.81467e-06
0.00018808
-6.77709e-06
0.000191449
-6.73774e-06
0.000194798
-6.69659e-06
0.000198125
-6.65358e-06
0.00020143
-6.60869e-06
0.000204711
-6.56188e-06
0.000207969
-6.5131e-06
0.0002112
-6.46232e-06
0.000214405
-6.4095e-06
0.000217583
-6.35462e-06
0.000220733
-6.29765e-06
0.000223852
-6.23855e-06
0.000226942
-6.17731e-06
0.000229999
-6.11389e-06
0.000233024
-6.04828e-06
0.000236015
-5.98045e-06
0.00023897
-5.91041e-06
0.00024189
-5.83812e-06
0.000244772
-5.76358e-06
0.000247616
-5.68678e-06
0.000250421
-5.60773e-06
0.000253184
-5.52641e-06
0.000255906
-5.44284e-06
0.000258586
-5.35702e-06
0.000261221
-5.26895e-06
0.00026381
-5.17865e-06
0.000266354
-5.08614e-06
0.00026885
-4.99143e-06
0.000271298
-4.89456e-06
0.000273696
-4.79553e-06
0.000276044
-4.6944e-06
0.00027834
-4.59118e-06
0.000280584
-4.48592e-06
0.000282774
-4.37866e-06
0.000284909
-4.26943e-06
0.000286988
-4.1583e-06
0.000289011
-4.04531e-06
0.000290977
-3.93051e-06
0.000292885
-3.81396e-06
0.000294733
-3.69572e-06
0.000296521
-3.57585e-06
0.000298249
-3.45443e-06
0.000299915
-3.33151e-06
0.000301519
-3.20717e-06
0.00030306
-3.08149e-06
0.000304537
-2.95453e-06
0.000305951
-2.82639e-06
0.0003073
-2.69713e-06
0.000308583
-2.56684e-06
0.000309801
-2.4356e-06
0.000310953
-2.3035e-06
0.000312039
-2.17063e-06
0.000313057
-2.03706e-06
0.000314009
-1.9029e-06
0.000314893
-1.76823e-06
0.00031571
-1.63313e-06
0.000316459
-1.4977e-06
0.00031714
-1.36203e-06
0.000317753
-1.2262e-06
0.000318298
-1.09031e-06
0.000318775
-9.54451e-07
0.000319185
-8.18702e-07
0.000319526
-6.83154e-07
0.0003198
-5.47895e-07
0.000320006
-4.13008e-07
0.000320146
-2.78579e-07
0.000320218
-1.4469e-07
0.000320223
-1.14217e-08
0.000320162
1.21147e-07
0.000320036
2.52937e-07
0.000319844
3.83876e-07
0.000319586
5.13888e-07
0.000319265
6.42904e-07
0.000318879
7.70856e-07
0.00031843
8.97676e-07
0.000317918
1.0233e-06
0.000317344
1.14767e-06
0.000316708
1.27073e-06
0.000316011
1.39241e-06
0.000315255
1.51268e-06
0.000314439
1.63147e-06
0.000313564
1.74875e-06
0.000312631
1.86446e-06
0.000311642
1.97856e-06
0.000310596
2.09102e-06
0.000309494
2.20181e-06
0.000308338
2.31088e-06
0.000307129
2.41821e-06
0.000305867
2.52377e-06
0.000304552
2.62753e-06
0.000303187
2.72948e-06
0.000301772
2.8296e-06
0.000300307
2.92786e-06
0.000298795
3.02426e-06
0.000297235
3.11878e-06
0.000295629
3.21141e-06
0.000293977
3.30215e-06
0.000292281
3.391e-06
0.000290542
3.47794e-06
0.00028876
3.56299e-06
0.000286936
3.64614e-06
0.000285072
3.72739e-06
0.000283168
3.80676e-06
0.000281226
3.88425e-06
0.000279245
3.95988e-06
0.000277228
4.03364e-06
0.000275175
4.10555e-06
0.000273087
4.17564e-06
0.000270964
4.24391e-06
0.000268809
4.31038e-06
0.000266621
4.37507e-06
0.000264401
4.438e-06
0.000262151
4.4992e-06
0.000259871
4.55867e-06
0.000257563
4.61644e-06
0.000255226
4.67255e-06
0.000252862
4.727e-06
0.000250472
4.77983e-06
0.000248056
4.83106e-06
0.000245615
4.88073e-06
0.00024315
4.92884e-06
0.000240662
4.97544e-06
0.000238152
5.02054e-06
0.000235619
5.06419e-06
0.000233066
5.1064e-06
0.000230492
5.1472e-06
0.000227898
5.18662e-06
0.000225285
5.2247e-06
0.000222654
5.26146e-06
0.000220006
5.29692e-06
0.00021734
5.33112e-06
0.000214657
5.36409e-06
0.000211959
5.39586e-06
0.000209246
5.42645e-06
0.000206517
5.4559e-06
0.000203775
5.48422e-06
0.000201019
5.51146e-06
0.00019825
5.53764e-06
0.000195468
5.56278e-06
0.000192675
5.58692e-06
0.000189869
5.61008e-06
0.000187053
5.63229e-06
0.000184226
5.65357e-06
0.000181389
5.67396e-06
0.000178542
5.69348e-06
0.000175685
5.71215e-06
0.00017282
5.73001e-06
0.000169947
5.74707e-06
0.000167065
5.76336e-06
0.000164175
5.77891e-06
0.000161278
5.79374e-06
0.000158374
5.80788e-06
0.000155463
5.82134e-06
0.000152546
5.83415e-06
0.000149623
5.84633e-06
0.000146693
5.85791e-06
0.000143759
5.86891e-06
0.000140819
5.87934e-06
0.000137874
5.88923e-06
0.000134925
5.8986e-06
0.000131971
5.90747e-06
0.000129013
5.91586e-06
0.000126051
5.92379e-06
0.000123085
5.93128e-06
0.000120116
5.93834e-06
0.000117143
5.94499e-06
0.000114168
5.95125e-06
0.000111189
5.95715e-06
0.000108208
5.96268e-06
0.000105224
5.96788e-06
0.000102237
5.97275e-06
9.92483e-05
5.97731e-06
9.62575e-05
5.98158e-06
9.32646e-05
5.98557e-06
9.02699e-05
5.98929e-06
8.72735e-05
5.99276e-06
8.42754e-05
5.99599e-06
8.12759e-05
5.99899e-06
7.82749e-05
6.00178e-06
7.52727e-05
6.00436e-06
7.22693e-05
6.00676e-06
6.92648e-05
6.00897e-06
6.62592e-05
6.01101e-06
6.32527e-05
6.0129e-06
6.02454e-05
6.01463e-06
5.72372e-05
6.01622e-06
5.42284e-05
6.01767e-06
5.12188e-05
6.01901e-06
4.82087e-05
6.02022e-06
4.5198e-05
6.02133e-06
4.21868e-05
6.02233e-06
3.91752e-05
6.02324e-06
3.61631e-05
6.02405e-06
3.31507e-05
6.02478e-06
3.0138e-05
6.02544e-06
2.7125e-05
6.02601e-06
2.41117e-05
6.02652e-06
2.10982e-05
6.02696e-06
1.80845e-05
6.02734e-06
1.50706e-05
6.02766e-06
1.20567e-05
6.02792e-06
9.04259e-06
6.02813e-06
6.02844e-06
6.02828e-06
3.01423e-06
6.02839e-06
6.02844e-06
3.69432e-06
-1.10826e-05
7.38856e-06
-1.10824e-05
1.10827e-05
-1.10819e-05
1.47765e-05
-1.10812e-05
1.84701e-05
-1.10803e-05
2.21633e-05
-1.10792e-05
2.58561e-05
-1.10778e-05
2.95483e-05
-1.10761e-05
3.32398e-05
-1.10741e-05
3.69306e-05
-1.10719e-05
4.06206e-05
-1.10693e-05
4.43096e-05
-1.10664e-05
4.79975e-05
-1.10631e-05
5.16842e-05
-1.10594e-05
5.53695e-05
-1.10552e-05
5.90533e-05
-1.10507e-05
6.27355e-05
-1.10456e-05
6.64158e-05
-1.104e-05
7.00941e-05
-1.10339e-05
7.37702e-05
-1.10271e-05
7.74438e-05
-1.10197e-05
8.11147e-05
-1.10116e-05
8.47827e-05
-1.10028e-05
8.84476e-05
-1.09932e-05
9.2109e-05
-1.09827e-05
9.57667e-05
-1.09714e-05
9.94203e-05
-1.09592e-05
0.00010307
-1.09459e-05
0.000106714
-1.09317e-05
0.000110353
-1.09163e-05
0.000113987
-1.08997e-05
0.000117615
-1.0882e-05
0.000121237
-1.08629e-05
0.000124852
-1.08425e-05
0.00012846
-1.08207e-05
0.00013206
-1.07975e-05
0.000135652
-1.07726e-05
0.000139235
-1.07462e-05
0.000142808
-1.07181e-05
0.000146372
-1.06882e-05
0.000149925
-1.06565e-05
0.000153467
-1.0623e-05
0.000156998
-1.05874e-05
0.000160515
-1.05499e-05
0.00016402
-1.05102e-05
0.000167511
-1.04683e-05
0.000170987
-1.04243e-05
0.000174447
-1.03779e-05
0.000177892
-1.03291e-05
0.000181319
-1.02779e-05
0.000184729
-1.02242e-05
0.000188119
-1.01678e-05
0.00019149
-1.01089e-05
0.000194841
-1.00472e-05
0.00019817
-9.98274e-06
0.000201477
-9.91545e-06
0.00020476
-9.84527e-06
0.000208019
-9.77214e-06
0.000211253
-9.69602e-06
0.00021446
-9.61684e-06
0.00021764
-9.53456e-06
0.000220792
-9.44913e-06
0.000223914
-9.36052e-06
0.000227005
-9.26868e-06
0.000230065
-9.17357e-06
0.000233092
-9.07518e-06
0.000236085
-8.97347e-06
0.000239043
-8.86841e-06
0.000241965
-8.75999e-06
0.000244849
-8.64819e-06
0.000247695
-8.533e-06
0.000250502
-8.41442e-06
0.000253268
-8.29244e-06
0.000255992
-8.16708e-06
0.000258674
-8.03833e-06
0.000261311
-7.90621e-06
0.000263903
-7.77074e-06
0.000266449
-7.63195e-06
0.000268947
-7.48986e-06
0.000271397
-7.34451e-06
0.000273798
-7.19594e-06
0.000276147
-7.0442e-06
0.000278446
-6.88932e-06
0.000280691
-6.73138e-06
0.000282883
-6.57043e-06
0.00028502
-6.40654e-06
0.000287101
-6.23978e-06
0.000289126
-6.07022e-06
0.000291094
-5.89795e-06
0.000293003
-5.72305e-06
0.000294853
-5.54561e-06
0.000296643
-5.36573e-06
0.000298372
-5.1835e-06
0.000300039
-4.99904e-06
0.000301645
-4.81244e-06
0.000303187
-4.62382e-06
0.000304666
-4.43329e-06
0.00030608
-4.24097e-06
0.00030743
-4.04698e-06
0.000308715
-3.85144e-06
0.000309934
-3.65448e-06
0.000311086
-3.45622e-06
0.000312172
-3.2568e-06
0.000313192
-3.05635e-06
0.000314144
-2.85499e-06
0.000315028
-2.65287e-06
0.000315845
-2.45011e-06
0.000316595
-2.24685e-06
0.000317276
-2.04323e-06
0.000317889
-1.83938e-06
0.000318434
-1.63544e-06
0.000318911
-1.43153e-06
0.00031932
-1.2278e-06
0.000319661
-1.02437e-06
0.000319935
-8.21376e-07
0.000320141
-6.18941e-07
0.00032028
-4.17194e-07
0.000320351
-2.16259e-07
0.000320356
-1.62577e-08
0.000320294
1.82691e-07
0.000320167
3.80472e-07
0.000319974
5.7697e-07
0.000319716
7.72078e-07
0.000319393
9.65688e-07
0.000319006
1.1577e-06
0.000318556
1.34801e-06
0.000318042
1.53652e-06
0.000317467
1.72315e-06
0.00031683
1.9078e-06
0.000316132
2.0904e-06
0.000315374
2.27086e-06
0.000314556
2.44911e-06
0.00031368
2.62507e-06
0.000312745
2.79869e-06
0.000311754
2.9699e-06
0.000310707
3.13864e-06
0.000309603
3.30485e-06
0.000308446
3.46849e-06
0.000307235
3.62952e-06
0.00030597
3.78789e-06
0.000304654
3.94357e-06
0.000303287
4.09651e-06
0.00030187
4.24671e-06
0.000300404
4.39412e-06
0.00029889
4.53873e-06
0.000297328
4.68052e-06
0.00029572
4.81948e-06
0.000294066
4.9556e-06
0.000292368
5.08887e-06
0.000290627
5.21929e-06
0.000288843
5.34685e-06
0.000287018
5.47157e-06
0.000285152
5.59345e-06
0.000283246
5.71249e-06
0.000281301
5.82872e-06
0.000279319
5.94214e-06
0.0002773
6.05276e-06
0.000275245
6.16062e-06
0.000273155
6.26573e-06
0.000271031
6.36811e-06
0.000268873
6.4678e-06
0.000266684
6.56481e-06
0.000264462
6.65918e-06
0.000262211
6.75094e-06
0.000259929
6.84012e-06
0.000257619
6.92676e-06
0.000255281
7.01088e-06
0.000252915
7.09253e-06
0.000250523
7.17175e-06
0.000248106
7.24856e-06
0.000245663
7.32302e-06
0.000243197
7.39516e-06
0.000240707
7.46502e-06
0.000238195
7.53264e-06
0.000235661
7.59807e-06
0.000233106
7.66135e-06
0.000230531
7.72252e-06
0.000227936
7.78162e-06
0.000225322
7.8387e-06
0.00022269
7.8938e-06
0.00022004
7.94696e-06
0.000217373
7.99823e-06
0.000214689
8.04765e-06
0.00021199
8.09526e-06
0.000209275
8.14111e-06
0.000206546
8.18524e-06
0.000203802
8.2277e-06
0.000201045
8.26852e-06
0.000198275
8.30775e-06
0.000195492
8.34543e-06
0.000192698
8.3816e-06
0.000189892
8.4163e-06
0.000187074
8.44959e-06
0.000184246
8.48148e-06
0.000181408
8.51203e-06
0.00017856
8.54128e-06
0.000175703
8.56926e-06
0.000172837
8.59601e-06
0.000169963
8.62157e-06
0.00016708
8.64598e-06
0.00016419
8.66927e-06
0.000161292
8.69148e-06
0.000158387
8.71266e-06
0.000155476
8.73282e-06
0.000152558
8.75201e-06
0.000149634
8.77025e-06
0.000146704
8.78759e-06
0.000143769
8.80406e-06
0.000140829
8.81968e-06
0.000137884
8.8345e-06
0.000134934
8.84853e-06
0.000131979
8.86181e-06
0.000129021
8.87437e-06
0.000126058
8.88624e-06
0.000123092
8.89745e-06
0.000120123
8.90802e-06
0.00011715
8.91797e-06
0.000114174
8.92735e-06
0.000111194
8.93616e-06
0.000108213
8.94445e-06
0.000105228
8.95222e-06
0.000102242
8.95951e-06
9.92526e-05
8.96633e-06
9.62615e-05
8.97272e-06
9.32684e-05
8.97868e-06
9.02734e-05
8.98425e-06
8.72767e-05
8.98944e-06
8.42784e-05
8.99426e-06
8.12787e-05
8.99875e-06
7.82775e-05
9.00292e-06
7.52751e-05
9.00679e-06
7.22715e-05
9.01036e-06
6.92668e-05
9.01367e-06
6.62611e-05
9.01672e-06
6.32545e-05
9.01953e-06
6.0247e-05
9.02212e-06
5.72387e-05
9.02449e-06
5.42297e-05
9.02667e-06
5.122e-05
9.02866e-06
4.82098e-05
9.03047e-06
4.5199e-05
9.03212e-06
4.21877e-05
9.03361e-06
3.9176e-05
9.03497e-06
3.61639e-05
9.03618e-06
3.31514e-05
9.03727e-06
3.01386e-05
9.03825e-06
2.71255e-05
9.03911e-06
2.41121e-05
9.03987e-06
2.10986e-05
9.04052e-06
1.80848e-05
9.04109e-06
1.50709e-05
9.04156e-06
1.20569e-05
9.04195e-06
9.04275e-06
9.04226e-06
6.02854e-06
9.04249e-06
3.01428e-06
9.04265e-06
9.04272e-06
3.69454e-06
-1.47771e-05
7.38901e-06
-1.47768e-05
1.10833e-05
-1.47762e-05
1.47775e-05
-1.47754e-05
1.84713e-05
-1.47742e-05
2.21647e-05
-1.47726e-05
2.58578e-05
-1.47708e-05
2.95502e-05
-1.47686e-05
3.32421e-05
-1.4766e-05
3.69332e-05
-1.4763e-05
4.06235e-05
-1.47596e-05
4.43129e-05
-1.47557e-05
4.80012e-05
-1.47514e-05
5.16883e-05
-1.47465e-05
5.53741e-05
-1.4741e-05
5.90585e-05
-1.4735e-05
6.27411e-05
-1.47283e-05
6.6422e-05
-1.47209e-05
7.01009e-05
-1.47127e-05
7.37776e-05
-1.47038e-05
7.74519e-05
-1.4694e-05
8.11236e-05
-1.46833e-05
8.47924e-05
-1.46716e-05
8.84581e-05
-1.46589e-05
9.21204e-05
-1.4645e-05
9.5779e-05
-1.463e-05
9.94336e-05
-1.46138e-05
0.000103084
-1.45962e-05
0.000106729
-1.45773e-05
0.00011037
-1.45569e-05
0.000114005
-1.45349e-05
0.000117635
-1.45113e-05
0.000121258
-1.4486e-05
0.000124874
-1.44589e-05
0.000128483
-1.443e-05
0.000132085
-1.4399e-05
0.000135678
-1.4366e-05
0.000139263
-1.43309e-05
0.000142838
-1.42935e-05
0.000146404
-1.42538e-05
0.000149959
-1.42116e-05
0.000153503
-1.4167e-05
0.000157035
-1.41197e-05
0.000160555
-1.40697e-05
0.000164062
-1.4017e-05
0.000167555
-1.39613e-05
0.000171033
-1.39026e-05
0.000174496
-1.38409e-05
0.000177943
-1.3776e-05
0.000181373
-1.37078e-05
0.000184785
-1.36362e-05
0.000188178
-1.35612e-05
0.000191552
-1.34827e-05
0.000194906
-1.34006e-05
0.000198238
-1.33147e-05
0.000201547
-1.32251e-05
0.000204834
-1.31316e-05
0.000208096
-1.30342e-05
0.000211332
-1.29328e-05
0.000214543
-1.28273e-05
0.000217726
-1.27176e-05
0.000220881
-1.26038e-05
0.000224006
-1.24857e-05
0.0002271
-1.23633e-05
0.000230163
-1.22366e-05
0.000233194
-1.21054e-05
0.00023619
-1.19698e-05
0.000239151
-1.18298e-05
0.000242077
-1.16852e-05
0.000244965
-1.15362e-05
0.000247814
-1.13826e-05
0.000250624
-1.12245e-05
0.000253394
-1.10619e-05
0.000256121
-1.08947e-05
0.000258806
-1.0723e-05
0.000261447
-1.05468e-05
0.000264042
-1.03662e-05
0.000266591
-1.01811e-05
0.000269093
-9.99156e-06
0.000271546
-9.79769e-06
0.00027395
-9.59953e-06
0.000276303
-9.39712e-06
0.000278604
-9.19054e-06
0.000280852
-8.97986e-06
0.000283047
-8.76515e-06
0.000285187
-8.54652e-06
0.000287271
-8.32405e-06
0.000289299
-8.09785e-06
0.000291269
-7.86802e-06
0.000293181
-7.63468e-06
0.000295033
-7.39794e-06
0.000296825
-7.15795e-06
0.000298556
-6.91482e-06
0.000300226
-6.6687e-06
0.000301833
-6.41973e-06
0.000303378
-6.16806e-06
0.000304858
-5.91384e-06
0.000306274
-5.65723e-06
0.000307626
-5.39838e-06
0.000308912
-5.13746e-06
0.000310132
-4.87465e-06
0.000311286
-4.61011e-06
0.000312373
-4.34401e-06
0.000313393
-4.07653e-06
0.000314346
-3.80785e-06
0.000315231
-3.53814e-06
0.000316049
-3.26759e-06
0.000316798
-2.99637e-06
0.00031748
-2.72467e-06
0.000318093
-2.45266e-06
0.000318638
-2.18053e-06
0.000319115
-1.90845e-06
0.000319524
-1.6366e-06
0.000319865
-1.36516e-06
0.000320138
-1.09429e-06
0.000320343
-8.24185e-07
0.000320481
-5.54996e-07
0.000320551
-2.86894e-07
0.000320555
-2.00406e-08
0.000320492
2.45405e-07
0.000320364
5.09288e-07
0.000320169
7.71457e-07
0.000319909
1.03177e-06
0.000319585
1.29007e-06
0.000319196
1.54624e-06
0.000318744
1.80013e-06
0.000318229
2.05163e-06
0.000317652
2.3006e-06
0.000317013
2.54694e-06
0.000316313
2.79052e-06
0.000315552
3.03125e-06
0.000314732
3.26903e-06
0.000313854
3.50375e-06
0.000312917
3.73534e-06
0.000311923
3.9637e-06
0.000310873
4.18877e-06
0.000309767
4.41047e-06
0.000308607
4.62873e-06
0.000307393
4.8435e-06
0.000306126
5.05471e-06
0.000304808
5.26233e-06
0.000303438
5.46631e-06
0.000302018
5.6666e-06
0.000300549
5.86318e-06
0.000299031
6.05602e-06
0.000297467
6.2451e-06
0.000295856
6.43039e-06
0.0002942
6.6119e-06
0.000292499
6.78959e-06
0.000290755
6.96348e-06
0.000288968
7.13357e-06
0.00028714
7.29985e-06
0.000285271
7.46234e-06
0.000283362
7.62105e-06
0.000281415
7.77599e-06
0.00027943
7.92719e-06
0.000277408
8.07466e-06
0.00027535
8.21844e-06
0.000273257
8.35855e-06
0.000271131
8.49502e-06
0.00026897
8.62789e-06
0.000266778
8.75719e-06
0.000264554
8.88297e-06
0.0002623
9.00527e-06
0.000260016
9.12412e-06
0.000257703
9.23958e-06
0.000255362
9.35169e-06
0.000252994
9.4605e-06
0.0002506
9.56606e-06
0.00024818
9.66842e-06
0.000245736
9.76764e-06
0.000243267
9.86376e-06
0.000240775
9.95684e-06
0.000238261
1.00469e-05
0.000235725
1.01341e-05
0.000233168
1.02184e-05
0.00023059
1.02999e-05
0.000227993
1.03786e-05
0.000225377
1.04547e-05
0.000222743
1.05281e-05
0.000220091
1.05989e-05
0.000217422
1.06672e-05
0.000214737
1.0733e-05
0.000212036
1.07964e-05
0.000209319
1.08575e-05
0.000206588
1.09163e-05
0.000203843
1.09728e-05
0.000201085
1.10272e-05
0.000198313
1.10794e-05
0.000195529
1.11296e-05
0.000192733
1.11777e-05
0.000189925
1.1224e-05
0.000187106
1.12683e-05
0.000184277
1.13107e-05
0.000181438
1.13514e-05
0.000178589
1.13903e-05
0.00017573
1.14276e-05
0.000172863
1.14632e-05
0.000169987
1.14972e-05
0.000167104
1.15297e-05
0.000164212
1.15607e-05
0.000161313
1.15903e-05
0.000158408
1.16184e-05
0.000155495
1.16453e-05
0.000152576
1.16708e-05
0.000149652
1.16951e-05
0.000146721
1.17182e-05
0.000143785
1.17401e-05
0.000140844
1.17608e-05
0.000137898
1.17805e-05
0.000134947
1.17992e-05
0.000131992
1.18169e-05
0.000129033
1.18336e-05
0.00012607
1.18494e-05
0.000123103
1.18643e-05
0.000120133
1.18783e-05
0.000117159
1.18915e-05
0.000114182
1.1904e-05
0.000111203
1.19157e-05
0.000108221
1.19267e-05
0.000105236
1.19371e-05
0.000102248
1.19467e-05
9.9259e-05
1.19558e-05
9.62675e-05
1.19643e-05
9.32739e-05
1.19722e-05
9.02786e-05
1.19796e-05
8.72816e-05
1.19865e-05
8.42829e-05
1.19929e-05
8.12829e-05
1.19988e-05
7.82814e-05
1.20044e-05
7.52787e-05
1.20095e-05
7.22748e-05
1.20142e-05
6.92699e-05
1.20186e-05
6.62639e-05
1.20227e-05
6.32571e-05
1.20264e-05
6.02494e-05
1.20298e-05
5.72409e-05
1.2033e-05
5.42317e-05
1.20358e-05
5.12219e-05
1.20385e-05
4.82115e-05
1.20409e-05
4.52005e-05
1.20431e-05
4.21891e-05
1.2045e-05
3.91772e-05
1.20468e-05
3.6165e-05
1.20484e-05
3.31524e-05
1.20499e-05
3.01394e-05
1.20512e-05
2.71262e-05
1.20523e-05
2.41128e-05
1.20533e-05
2.10991e-05
1.20542e-05
1.80853e-05
1.20549e-05
1.50713e-05
1.20556e-05
1.20572e-05
1.20561e-05
9.04298e-06
1.20565e-05
6.02869e-06
1.20568e-05
3.01436e-06
1.2057e-05
1.20571e-05
3.69483e-06
-1.8472e-05
7.3896e-06
-1.84716e-05
1.10842e-05
-1.84709e-05
1.47787e-05
-1.84698e-05
1.84728e-05
-1.84683e-05
2.21666e-05
-1.84664e-05
2.586e-05
-1.84642e-05
2.95528e-05
-1.84614e-05
3.32451e-05
-1.84583e-05
3.69367e-05
-1.84546e-05
4.06274e-05
-1.84504e-05
4.43173e-05
-1.84456e-05
4.80061e-05
-1.84402e-05
5.16938e-05
-1.84342e-05
5.53802e-05
-1.84275e-05
5.90652e-05
-1.842e-05
6.27486e-05
-1.84117e-05
6.64302e-05
-1.84025e-05
7.01099e-05
-1.83924e-05
7.37875e-05
-1.83814e-05
7.74627e-05
-1.83692e-05
8.11353e-05
-1.83559e-05
8.48052e-05
-1.83414e-05
8.8472e-05
-1.83256e-05
9.21354e-05
-1.83085e-05
9.57953e-05
-1.82899e-05
9.94512e-05
-1.82697e-05
0.000103103
-1.82479e-05
0.00010675
-1.82244e-05
0.000110392
-1.8199e-05
0.000114029
-1.81717e-05
0.00011766
-1.81424e-05
0.000121285
-1.81109e-05
0.000124903
-1.80772e-05
0.000128514
-1.80411e-05
0.000132118
-1.80026e-05
0.000135713
-1.79616e-05
0.0001393
-1.79178e-05
0.000142878
-1.78712e-05
0.000146446
-1.78218e-05
0.000150004
-1.77693e-05
0.00015355
-1.77136e-05
0.000157085
-1.76547e-05
0.000160608
-1.75924e-05
0.000164118
-1.75266e-05
0.000167614
-1.74572e-05
0.000171095
-1.73841e-05
0.000174561
-1.73071e-05
0.000178011
-1.72261e-05
0.000181445
-1.7141e-05
0.00018486
-1.70517e-05
0.000188257
-1.69582e-05
0.000191635
-1.68602e-05
0.000194992
-1.67577e-05
0.000198327
-1.66505e-05
0.000201641
-1.65386e-05
0.000204931
-1.64219e-05
0.000208197
-1.63003e-05
0.000211438
-1.61736e-05
0.000214653
-1.60419e-05
0.00021784
-1.59049e-05
0.000220999
-1.57627e-05
0.000224128
-1.56152e-05
0.000227227
-1.54623e-05
0.000230295
-1.53039e-05
0.000233329
-1.51401e-05
0.00023633
-1.49706e-05
0.000239296
-1.47956e-05
0.000242226
-1.4615e-05
0.000245118
-1.44287e-05
0.000247973
-1.42368e-05
0.000250787
-1.40391e-05
0.000253561
-1.38358e-05
0.000256293
-1.36268e-05
0.000258982
-1.34122e-05
0.000261628
-1.31919e-05
0.000264227
-1.2966e-05
0.000266781
-1.27346e-05
0.000269287
-1.24976e-05
0.000271744
-1.22552e-05
0.000274152
-1.20074e-05
0.000276509
-1.17542e-05
0.000278815
-1.14959e-05
0.000281067
-1.12324e-05
0.000283266
-1.09638e-05
0.00028541
-1.06903e-05
0.000287498
-1.04121e-05
0.000289529
-1.01291e-05
0.000291502
-9.8416e-06
0.000293417
-9.5497e-06
0.000295273
-9.25354e-06
0.000297068
-8.9533e-06
0.000298803
-8.64914e-06
0.000300475
-8.34122e-06
0.000302085
-8.02973e-06
0.000303632
-7.71485e-06
0.000305115
-7.39678e-06
0.000306533
-7.07571e-06
0.000307887
-6.75185e-06
0.000309175
-6.42539e-06
0.000310397
-6.09655e-06
0.000311552
-5.76555e-06
0.000312641
-5.4326e-06
0.000313662
-5.09792e-06
0.000314616
-4.76173e-06
0.000315502
-4.42426e-06
0.00031632
-4.08573e-06
0.00031707
-3.74637e-06
0.000317752
-3.4064e-06
0.000318365
-3.06606e-06
0.000318911
-2.72556e-06
0.000319387
-2.38513e-06
0.000319796
-2.04499e-06
0.000320136
-1.70536e-06
0.000320408
-1.36646e-06
0.000320612
-1.02851e-06
0.000320749
-6.91712e-07
0.000320818
-3.5628e-07
0.000320821
-2.24151e-08
0.000320756
3.09683e-07
0.000320626
6.39819e-07
0.00032043
9.67805e-07
0.000320168
1.29346e-06
0.000319841
1.6166e-06
0.000319451
1.93705e-06
0.000318996
2.25466e-06
0.000318478
2.56926e-06
0.000317898
2.88069e-06
0.000317256
3.18882e-06
0.000316553
3.4935e-06
0.00031579
3.7946e-06
0.000314967
4.09199e-06
0.000314085
4.38557e-06
0.000313145
4.67521e-06
0.000312148
4.96081e-06
0.000311095
5.24228e-06
0.000309986
5.51952e-06
0.000308822
5.79246e-06
0.000307605
6.06102e-06
0.000306334
6.32513e-06
0.000305012
6.58474e-06
0.000303638
6.83978e-06
0.000302215
7.09021e-06
0.000300742
7.33599e-06
0.000299221
7.57708e-06
0.000297652
7.81346e-06
0.000296038
8.04511e-06
0.000294378
8.272e-06
0.000292673
8.49413e-06
0.000290925
8.71149e-06
0.000289135
8.92409e-06
0.000287302
9.13193e-06
0.00028543
9.33501e-06
0.000283517
9.53337e-06
0.000281566
9.72701e-06
0.000279578
9.91596e-06
0.000277552
1.01003e-05
0.000275491
1.02799e-05
0.000273394
1.0455e-05
0.000271264
1.06255e-05
0.0002691
1.07915e-05
0.000266904
1.09531e-05
0.000264677
1.11103e-05
0.000262419
1.1263e-05
0.000260132
1.14115e-05
0.000257815
1.15558e-05
0.000255471
1.16958e-05
0.0002531
1.18317e-05
0.000250703
1.19636e-05
0.00024828
1.20914e-05
0.000245832
1.22153e-05
0.00024336
1.23354e-05
0.000240865
1.24516e-05
0.000238348
1.25642e-05
0.000235809
1.2673e-05
0.000233249
1.27783e-05
0.000230669
1.28801e-05
0.00022807