/*--------------------------------*- C++ -*----------------------------------*\
| =========                 |                                                 |
| \\      /  F ield         | OpenFOAM: The Open Source CFD Toolbox           |
|  \\    /   O peration     | Version:  v2012                                 |
|   \\  /    A nd           | Website:  www.openfoam.com                      |
|    \\/     M anipulation  |                                                 |
\*---------------------------------------------------------------------------*/
FoamFile
{
    version     2.0;
    format      ascii;
    class       volScalarField;
    location    "7";
    object      Psi_z;
}
// * * * * * * * * * * * * * * * * * * * * * * * * * * * * * * * * * * * * * //

dimensions      [0 2 -1 0 0 0 0];


internalField   nonuniform List<scalar> 
65536
(
9.23989e-06
2.77195e-05
4.61985e-05
6.46767e-05
8.31536e-05
0.000101629
0.000120102
0.000138573
0.000157041
0.000175505
0.000193966
0.000212422
0.000230874
0.00024932
0.000267759
0.000286192
0.000304616
0.000323032
0.000341439
0.000359835
0.00037822
0.000396593
0.000414951
0.000433295
0.000451622
0.000469932
0.000488222
0.000506492
0.000524739
0.000542962
0.000561159
0.000579328
0.000597466
0.000615573
0.000633644
0.000651679
0.000669674
0.000687627
0.000705535
0.000723396
0.000741205
0.000758961
0.00077666
0.000794298
0.000811873
0.00082938
0.000846817
0.000864178
0.000881461
0.000898661
0.000915774
0.000932796
0.000949722
0.000966549
0.000983271
0.000999883
0.00101638
0.00103276
0.00104902
0.00106514
0.00108114
0.00109699
0.0011127
0.00112826
0.00114366
0.0011589
0.00117398
0.00118888
0.00120361
0.00121815
0.0012325
0.00124666
0.00126062
0.00127437
0.00128791
0.00130124
0.00131434
0.00132721
0.00133985
0.00135225
0.0013644
0.0013763
0.00138795
0.00139933
0.00141045
0.0014213
0.00143187
0.00144216
0.00145217
0.00146189
0.00147131
0.00148043
0.00148925
0.00149777
0.00150597
0.00151386
0.00152144
0.00152869
0.00153562
0.00154223
0.00154851
0.00155445
0.00156007
0.00156535
0.00157029
0.0015749
0.00157917
0.0015831
0.00158668
0.00158993
0.00159284
0.0015954
0.00159763
0.00159951
0.00160105
0.00160226
0.00160312
0.00160365
0.00160385
0.00160371
0.00160323
0.00160243
0.0016013
0.00159985
0.00159807
0.00159597
0.00159355
0.00159083
0.00158779
0.00158444
0.00158079
0.00157684
0.00157259
0.00156805
0.00156322
0.00155811
0.00155272
0.00154705
0.00154111
0.0015349
0.00152843
0.0015217
0.00151472
0.00150749
0.00150001
0.0014923
0.00148435
0.00147617
0.00146776
0.00145914
0.0014503
0.00144125
0.00143199
0.00142254
0.00141288
0.00140303
0.001393
0.00138279
0.00137239
0.00136183
0.00135109
0.00134019
0.00132914
0.00131792
0.00130656
0.00129505
0.00128339
0.0012716
0.00125968
0.00124762
0.00123544
0.00122314
0.00121072
0.00119819
0.00118554
0.00117279
0.00115993
0.00114698
0.00113393
0.00112078
0.00110755
0.00109423
0.00108082
0.00106734
0.00105378
0.00104014
0.00102643
0.00101266
0.000998815
0.000984909
0.000970942
0.000956916
0.000942835
0.0009287
0.000914514
0.000900278
0.000885996
0.000871668
0.000857298
0.000842887
0.000828436
0.000813949
0.000799426
0.000784869
0.00077028
0.000755661
0.000741012
0.000726336
0.000711634
0.000696908
0.000682158
0.000667386
0.000652592
0.00063778
0.000622948
0.000608099
0.000593234
0.000578353
0.000563457
0.000548548
0.000533626
0.000518692
0.000503747
0.000488791
0.000473825
0.000458851
0.000443868
0.000428876
0.000413878
0.000398873
0.000383862
0.000368844
0.000353822
0.000338794
0.000323762
0.000308726
0.000293686
0.000278643
0.000263596
0.000248547
0.000233495
0.00021844
0.000203383
0.000188325
0.000173265
0.000158203
0.00014314
0.000128075
0.00011301
9.79438e-05
8.28768e-05
6.78091e-05
5.27409e-05
3.76724e-05
2.26035e-05
7.53453e-06
2.77198e-05
8.31588e-05
0.000138596
0.000194031
0.000249462
0.000304888
0.000360308
0.000415721
0.000471125
0.00052652
0.000581902
0.000637272
0.000692626
0.000747964
0.000803283
0.000858582
0.000913857
0.000969106
0.00102433
0.00107952
0.00113467
0.00118979
0.00124487
0.0012999
0.00135488
0.00140981
0.00146469
0.0015195
0.00157424
0.00162891
0.0016835
0.00173801
0.00179243
0.00184675
0.00190097
0.00195508
0.00200906
0.00206292
0.00211665
0.00217024
0.00222367
0.00227694
0.00233004
0.00238296
0.00243568
0.00248821
0.00254052
0.00259261
0.00264446
0.00269607
0.00274741
0.00279848
0.00284926
0.00289975
0.00294992
0.00299976
0.00304926
0.0030984
0.00314718
0.00319556
0.00324354
0.00329111
0.00333824
0.00338492
0.00343114
0.00347687
0.0035221
0.00356682
0.003611
0.00365463
0.0036977
0.00374018
0.00378207
0.00382333
0.00386396
0.00390393
0.00394324
0.00398186
0.00401978
0.00405698
0.00409344
0.00412915
0.0041641
0.00419826
0.00423162
0.00426417
0.00429589
0.00432677
0.0043568
0.00438595
0.00441422
0.00444159
0.00446806
0.00449361
0.00451822
0.0045419
0.00456463
0.00458639
0.00460719
0.00462701
0.00464584
0.00466369
0.00468053
0.00469637
0.00471121
0.00472503
0.00473784
0.00474962
0.00476039
0.00477013
0.00477885
0.00478654
0.00479322
0.00479887
0.00480349
0.00480711
0.0048097
0.00481129
0.00481187
0.00481144
0.00481002
0.00480762
0.00480422
0.00479985
0.00479452
0.00478822
0.00478097
0.00477278
0.00476366
0.00475361
0.00474266
0.0047308
0.00471806
0.00470443
0.00468994
0.0046746
0.00465842
0.00464141
0.00462358
0.00460495
0.00458554
0.00456535
0.0045444
0.0045227
0.00450027
0.00447712
0.00445327
0.00442873
0.00440351
0.00437763
0.00435111
0.00432395
0.00429618
0.0042678
0.00423883
0.00420929
0.00417918
0.00414853
0.00411735
0.00408565
0.00405344
0.00402074
0.00398756
0.00395391
0.00391982
0.00388528
0.00385032
0.00381494
0.00377916
0.003743
0.00370645
0.00366954
0.00363227
0.00359467
0.00355673
0.00351847
0.0034799
0.00344103
0.00340187
0.00336244
0.00332273
0.00328276
0.00324255
0.00320209
0.00316141
0.00312049
0.00307937
0.00303804
0.00299651
0.00295479
0.00291288
0.0028708
0.00282856
0.00278615
0.00274359
0.00270088
0.00265803
0.00261505
0.00257193
0.0025287
0.00248535
0.00244188
0.00239831
0.00235464
0.00231087
0.00226701
0.00222306
0.00217903
0.00213493
0.00209075
0.00204649
0.00200218
0.0019578
0.00191336
0.00186886
0.00182431
0.00177972
0.00173507
0.00169039
0.00164566
0.00160089
0.00155609
0.00151125
0.00146638
0.00142148
0.00137656
0.00133161
0.00128664
0.00124164
0.00119662
0.00115159
0.00110654
0.00106147
0.00101639
0.000971291
0.000926182
0.000881062
0.000835931
0.000790791
0.000745642
0.000700486
0.000655322
0.000610152
0.000564976
0.000519795
0.00047461
0.00042942
0.000384227
0.000339031
0.000293832
0.000248631
0.000203428
0.000158223
0.000113017
6.78108e-05
2.26036e-05
4.62002e-05
0.0001386
0.000230997
0.000323389
0.000415775
0.000508154
0.000600522
0.000692878
0.00078522
0.000877545
0.000969852
0.00106214
0.0011544
0.00124663
0.00133883
0.00143099
0.00152312
0.00161521
0.00170725
0.00179923
0.00189116
0.00198303
0.00207483
0.00216655
0.0022582
0.00234975
0.00244121
0.00253257
0.00262381
0.00271494
0.00280593
0.00289679
0.00298749
0.00307803
0.0031684
0.00325859
0.00334858
0.00343836
0.00352791
0.00361723
0.00370629
0.00379509
0.0038836
0.00397181
0.0040597
0.00414725
0.00423445
0.00432128
0.00440771
0.00449373
0.00457932
0.00466445
0.00474911
0.00483326
0.00491689
0.00499998
0.0050825
0.00516442
0.00524572
0.00532638
0.00540637
0.00548566
0.00556423
0.00564205
0.0057191
0.00579533
0.00587074
0.00594529
0.00601895
0.00609169
0.00616348
0.00623431
0.00630413
0.00637292
0.00644065
0.0065073
0.00657283
0.00663722
0.00670043
0.00676245
0.00682324
0.00688278
0.00694103
0.00699799
0.00705361
0.00710787
0.00716076
0.00721224
0.00726229
0.00731089
0.00735802
0.00740366
0.00744779
0.00749038
0.00753142
0.00757089
0.00760877
0.00764506
0.00767973
0.00771277
0.00774417
0.00777392
0.007802
0.00782841
0.00785314
0.00787618
0.00789752
0.00791717
0.00793511
0.00795135
0.00796588
0.00797871
0.00798983
0.00799924
0.00800695
0.00801297
0.00801729
0.00801993
0.00802089
0.00802018
0.00801781
0.00801378
0.00800812
0.00800083
0.00799193
0.00798142
0.00796933
0.00795567
0.00794046
0.0079237
0.00790543
0.00788566
0.0078644
0.00784168
0.00781752
0.00779193
0.00776495
0.00773658
0.00770686
0.00767579
0.00764342
0.00760976
0.00757482
0.00753864
0.00750125
0.00746265
0.00742288
0.00738196
0.00733992
0.00729677
0.00725255
0.00720727
0.00716096
0.00711365
0.00706535
0.0070161
0.00696591
0.00691481
0.00686282
0.00680997
0.00675627
0.00670176
0.00664645
0.00659036
0.00653351
0.00647594
0.00641766
0.00635868
0.00629904
0.00623874
0.00617782
0.00611629
0.00605417
0.00599148
0.00592824
0.00586446
0.00580016
0.00573537
0.0056701
0.00560436
0.00553817
0.00547155
0.00540452
0.00533708
0.00526926
0.00520106
0.00513251
0.00506361
0.00499439
0.00492484
0.004855
0.00478486
0.00471444
0.00464375
0.00457281
0.00450162
0.0044302
0.00435855
0.00428669
0.00421463
0.00414237
0.00406992
0.0039973
0.0039245
0.00385155
0.00377845
0.0037052
0.00363181
0.00355829
0.00348465
0.0034109
0.00333703
0.00326306
0.00318899
0.00311483
0.00304058
0.00296625
0.00289184
0.00281735
0.0027428
0.00266819
0.00259352
0.00251879
0.002444
0.00236917
0.0022943
0.00221938
0.00214442
0.00206942
0.0019944
0.00191934
0.00184425
0.00176913
0.00169399
0.00161883
0.00154365
0.00146845
0.00139323
0.00131799
0.00124275
0.00116748
0.00109221
0.00101693
0.000941633
0.000866331
0.000791021
0.000715705
0.000640382
0.000565055
0.000489723
0.000414387
0.000339048
0.000263707
0.000188363
0.000113018
3.76729e-05
6.46815e-05
0.000194043
0.000323401
0.000452754
0.000582097
0.000711429
0.000840748
0.00097005
0.00109933
0.00122859
0.00135782
0.00148703
0.00161619
0.00174532
0.00187441
0.00200345
0.00213243
0.00226136
0.00239022
0.00251901
0.00264771
0.00277634
0.00290486
0.00303329
0.0031616
0.00328979
0.00341784
0.00354575
0.00367351
0.0038011
0.0039285
0.00405571
0.00418271
0.00430949
0.00443602
0.0045623
0.0046883
0.00481401
0.00493941
0.00506447
0.00518918
0.00531352
0.00543746
0.00556097
0.00568405
0.00580665
0.00592876
0.00605034
0.00617138
0.00629183
0.00641169
0.0065309
0.00664945
0.0067673
0.00688442
0.00700077
0.00711633
0.00723105
0.00734492
0.00745787
0.0075699
0.00768094
0.00779098
0.00789996
0.00800786
0.00811463
0.00822024
0.00832465
0.00842781
0.00852969
0.00863024
0.00872943
0.00882722
0.00892357
0.00901844
0.00911178
0.00920356
0.00929374
0.00938228
0.00946915
0.00955429
0.00963768
0.00971928
0.00979905
0.00987695
0.00995296
0.010027
0.0100991
0.0101692
0.0102373
0.0103033
0.0103672
0.010429
0.0104887
0.0105462
0.0106015
0.0106545
0.0107053
0.0107539
0.0108002
0.0108442
0.0108858
0.0109251
0.0109621
0.0109968
0.011029
0.0110589
0.0110864
0.0111115
0.0111343
0.0111546
0.0111726
0.0111881
0.0112013
0.0112121
0.0112205
0.0112266
0.0112303
0.0112316
0.0112306
0.0112272
0.0112216
0.0112136
0.0112034
0.0111909
0.0111762
0.0111593
0.0111401
0.0111188
0.0110953
0.0110697
0.011042
0.0110122
0.0109804
0.0109465
0.0109107
0.0108729
0.0108331
0.0107915
0.010748
0.0107026
0.0106554
0.0106065
0.0105558
0.0105034
0.0104494
0.0103936
0.0103363
0.0102774
0.010217
0.010155
0.0100916
0.0100268
0.00996049
0.00989284
0.00982385
0.00975355
0.00968198
0.00960917
0.00953514
0.00945993
0.00938358
0.00930611
0.00922756
0.00914795
0.00906731
0.00898568
0.00890309
0.00881956
0.00873512
0.00864981
0.00856364
0.00847664
0.00838885
0.00830028
0.00821096
0.00812093
0.00803019
0.00793879
0.00784673
0.00775405
0.00766076
0.00756689
0.00747245
0.00737748
0.00728199
0.00718599
0.00708952
0.00699259
0.00689521
0.00679741
0.00669919
0.00660059
0.00650162
0.00640228
0.0063026
0.0062026
0.00610228
0.00600166
0.00590075
0.00579957
0.00569813
0.00559645
0.00549453
0.00539239
0.00529003
0.00518747
0.00508472
0.00498178
0.00487868
0.00477541
0.00467199
0.00456842
0.00446472
0.00436088
0.00425692
0.00415285
0.00404867
0.00394439
0.00384001
0.00373555
0.003631
0.00352637
0.00342167
0.0033169
0.00321207
0.00310718
0.00300224
0.00289724
0.0027922
0.00268711
0.00258198
0.00247682
0.00237162
0.00226639
0.00216114
0.00205585
0.00195054
0.00184521
0.00173986
0.00163449
0.00152911
0.00142371
0.0013183
0.00121287
0.00110744
0.00100199
0.000896542
0.000791083
0.000685617
0.000580146
0.000474671
0.000369192
0.00026371
0.000158227
5.27425e-05
8.3164e-05
0.00024949
0.000415812
0.000582127
0.00074843
0.000914719
0.00108099
0.00124724
0.00141347
0.00157966
0.00174582
0.00191195
0.00207803
0.00224406
0.00241004
0.00257595
0.0027418
0.00290757
0.00307326
0.00323886
0.00340435
0.00356974
0.003735
0.00390014
0.00406512
0.00422996
0.00439462
0.00455909
0.00472337
0.00488744
0.00505127
0.00521485
0.00537816
0.00554119
0.0057039
0.00586629
0.00602833
0.00618998
0.00635124
0.00651207
0.00667245
0.00683235
0.00699174
0.00715059
0.00730887
0.00746654
0.00762358
0.00777995
0.00793562
0.00809054
0.00824469
0.00839802
0.00855049
0.00870207
0.0088527
0.00900236
0.00915099
0.00929856
0.00944501
0.00959031
0.0097344
0.00987723
0.0100188
0.010159
0.0102978
0.0104351
0.0105709
0.0107053
0.010838
0.010969
0.0110984
0.011226
0.0113518
0.0114757
0.0115977
0.0117178
0.0118359
0.0119519
0.0120658
0.0121776
0.0122871
0.0123944
0.0124994
0.012602
0.0127022
0.0128
0.0128953
0.012988
0.0130782
0.0131658
0.0132507
0.013333
0.0134125
0.0134892
0.0135631
0.0136343
0.0137025
0.0137679
0.0138304
0.0138899
0.0139465
0.014
0.0140506
0.0140982
0.0141427
0.0141842
0.0142227
0.0142581
0.0142904
0.0143196
0.0143458
0.0143688
0.0143889
0.0144058
0.0144197
0.0144305
0.0144382
0.0144429
0.0144446
0.0144433
0.014439
0.0144317
0.0144215
0.0144083
0.0143922
0.0143732
0.0143514
0.0143267
0.0142993
0.0142691
0.0142361
0.0142004
0.0141621
0.0141211
0.0140775
0.0140314
0.0139827
0.0139316
0.013878
0.013822
0.0137636
0.0137029
0.0136399
0.0135747
0.0135073
0.0134377
0.013366
0.0132923
0.0132165
0.0131387
0.013059
0.0129774
0.012894
0.0128087
0.0127217
0.0126329
0.0125425
0.0124504
0.0123567
0.0122615
0.0121647
0.0120665
0.0119669
0.0118658
0.0117634
0.0116597
0.0115547
0.0114484
0.011341
0.0112324
0.0111226
0.0110118
0.0108999
0.010787
0.0106731
0.0105582
0.0104424
0.0103257
0.0102081
0.0100897
0.00997053
0.00985055
0.00972982
0.00960837
0.00948622
0.00936341
0.00923996
0.00911589
0.00899123
0.008866
0.00874022
0.00861392
0.00848712
0.00835984
0.00823209
0.00810391
0.0079753
0.0078463
0.00771691
0.00758715
0.00745704
0.0073266
0.00719584
0.00706478
0.00693343
0.00680181
0.00666993
0.00653781
0.00640545
0.00627287
0.00614008
0.00600709
0.00587392
0.00574057
0.00560706
0.00547339
0.00533957
0.00520561
0.00507152
0.00493732
0.00480299
0.00466856
0.00453403
0.00439941
0.0042647
0.00412991
0.00399504
0.00386011
0.0037251
0.00359004
0.00345493
0.00331976
0.00318454
0.00304928
0.00291398
0.00277865
0.00264328
0.00250788
0.00237245
0.002237
0.00210152
0.00196602
0.00183051
0.00169498
0.00155943
0.00142387
0.00128829
0.00115271
0.00101712
0.000881517
0.00074591
0.000610297
0.00047468
0.00033906
0.000203437
6.78124e-05
0.000101648
0.000304942
0.000508231
0.000711511
0.000914777
0.00111803
0.00132126
0.00152446
0.00172763
0.00193077
0.00213387
0.00233692
0.00253991
0.00274285
0.00294573
0.00314853
0.00335124
0.00355387
0.0037564
0.00395881
0.00416111
0.00436326
0.00456528
0.00476713
0.00496881
0.0051703
0.00537158
0.00557264
0.00577345
0.00597401
0.00617428
0.00637425
0.0065739
0.00677319
0.00697211
0.00717063
0.00736872
0.00756636
0.0077635
0.00796013
0.0081562
0.00835169
0.00854656
0.00874077
0.00893429
0.00912707
0.00931908
0.00951027
0.00970061
0.00989003
0.0100785
0.010266
0.0104524
0.0106378
0.010822
0.011005
0.0111867
0.0113672
0.0115463
0.0117239
0.0119001
0.0120748
0.0122479
0.0124194
0.0125891
0.0127571
0.0129232
0.0130875
0.0132498
0.01341
0.0135682
0.0137243
0.0138782
0.0140298
0.014179
0.0143259
0.0144703
0.0146122
0.0147515
0.0148882
0.0150222
0.0151534
0.0152818
0.0154073
0.0155299
0.0156495
0.015766
0.0158795
0.0159898
0.0160969
0.0162008
0.0163014
0.0163986
0.0164925
0.0165829
0.0166699
0.0167534
0.0168334
0.0169098
0.0169826
0.0170517
0.0171173
0.0171791
0.0172373
0.0172918
0.0173425
0.0173895
0.0174328
0.0174723
0.017508
0.01754
0.0175682
0.0175926
0.0176133
0.0176303
0.0176434
0.0176529
0.0176586
0.0176607
0.017659
0.0176537
0.0176448
0.0176322
0.0176161
0.0175963
0.0175731
0.0175464
0.0175162
0.0174825
0.0174455
0.0174052
0.0173615
0.0173146
0.0172644
0.0172111
0.0171546
0.017095
0.0170324
0.0169669
0.0168983
0.0168269
0.0167526
0.0166756
0.0165958
0.0165133
0.0164282
0.0163405
0.0162502
0.0161575
0.0160624
0.0159649
0.0158651
0.015763
0.0156587
0.0155522
0.0154437
0.015333
0.0152204
0.0151058
0.0149894
0.014871
0.0147509
0.014629
0.0145054
0.0143802
0.0142533
0.0141249
0.013995
0.0138636
0.0137308
0.0135966
0.013461
0.0133242
0.0131861
0.0130468
0.0129064
0.0127648
0.0126221
0.0124783
0.0123335
0.0121878
0.0120411
0.0118935
0.011745
0.0115956
0.0114455
0.0112945
0.0111429
0.0109904
0.0108373
0.0106836
0.0105292
0.0103741
0.0102185
0.0100623
0.00990564
0.00974842
0.0095907
0.00943252
0.0092739
0.00911484
0.00895538
0.00879553
0.00863532
0.00847475
0.00831386
0.00815264
0.00799113
0.00782933
0.00766727
0.00750495
0.00734239
0.0071796
0.0070166
0.00685339
0.00669
0.00652642
0.00636268
0.00619878
0.00603473
0.00587054
0.00570623
0.00554179
0.00537724
0.00521258
0.00504782
0.00488297
0.00471804
0.00455303
0.00438795
0.00422279
0.00405758
0.00389231
0.00372698
0.00356161
0.00339619
0.00323074
0.00306524
0.00289971
0.00273416
0.00256857
0.00240296
0.00223732
0.00207167
0.00190599
0.00174031
0.0015746
0.00140889
0.00124316
0.00107742
0.000911679
0.000745928
0.000580171
0.000414411
0.000248648
8.28828e-05
0.000120134
0.0003604
0.000600659
0.000840908
0.00108114
0.00132136
0.00156155
0.00180171
0.00204183
0.00228191
0.00252195
0.00276194
0.00300186
0.00324171
0.00348149
0.00372118
0.00396078
0.00420027
0.00443965
0.00467889
0.00491799
0.00515694
0.00539571
0.0056343
0.00587268
0.00611084
0.00634876
0.00658642
0.00682379
0.00706086
0.0072976
0.00753399
0.00776999
0.00800558
0.00824073
0.00847541
0.00870958
0.00894322
0.00917628
0.00940874
0.00964054
0.00987166
0.010102
0.0103317
0.0105605
0.0107884
0.0110154
0.0112415
0.0114665
0.0116905
0.0119133
0.012135
0.0123555
0.0125746
0.0127924
0.0130088
0.0132238
0.0134372
0.0136489
0.0138591
0.0140674
0.014274
0.0144787
0.0146815
0.0148822
0.0150809
0.0152774
0.0154716
0.0156636
0.0158531
0.0160403
0.0162248
0.0164068
0.0165861
0.0167627
0.0169364
0.0171072
0.0172751
0.0174398
0.0176015
0.01776
0.0179152
0.0180671
0.0182156
0.0183606
0.018502
0.0186399
0.0187741
0.0189046
0.0190313
0.0191542
0.0192732
0.0193882
0.0194992
0.0196062
0.0197091
0.0198078
0.0199024
0.0199928
0.0200789
0.0201607
0.0202382
0.0203113
0.0203801
0.0204445
0.0205045
0.0205601
0.0206112
0.0206579
0.0207002
0.020738
0.0207713
0.0208002
0.0208246
0.0208446
0.0208602
0.0208713
0.020878
0.0208804
0.0208784
0.0208721
0.0208615
0.0208465
0.0208274
0.020804
0.0207765
0.0207448
0.020709
0.0206692
0.0206254
0.0205776
0.0205259
0.0204703
0.0204109
0.0203478
0.0202809
0.0202104
0.0201363
0.0200587
0.0199776
0.0198931
0.0198052
0.019714
0.0196195
0.0195219
0.0194212
0.0193174
0.0192107
0.019101
0.0189884
0.0188731
0.018755
0.0186342
0.0185108
0.0183849
0.0182565
0.0181256
0.0179924
0.0178568
0.0177191
0.0175791
0.017437
0.0172929
0.0171467
0.0169986
0.0168485
0.0166967
0.016543
0.0163876
0.0162305
0.0160718
0.0159116
0.0157498
0.0155865
0.0154217
0.0152556
0.0150882
0.0149195
0.0147495
0.0145783
0.014406
0.0142325
0.014058
0.0138824
0.0137059
0.0135283
0.0133499
0.0131705
0.0129904
0.0128093
0.0126275
0.012445
0.0122617
0.0120778
0.0118931
0.0117079
0.011522
0.0113356
0.0111486
0.0109611
0.010773
0.0105846
0.0103956
0.0102062
0.0100164
0.00982622
0.00963565
0.00944474
0.00925349
0.00906192
0.00887005
0.00867791
0.00848549
0.00829282
0.00809992
0.00790679
0.00771345
0.00751991
0.00732618
0.00713229
0.00693823
0.00674401
0.00654966
0.00635517
0.00616055
0.00596583
0.00577099
0.00557605
0.00538103
0.00518591
0.00499072
0.00479546
0.00460013
0.00440473
0.00420928
0.00401378
0.00381823
0.00362264
0.00342701
0.00323134
0.00303564
0.00283991
0.00264416
0.00244838
0.00225258
0.00205676
0.00186092
0.00166507
0.00146921
0.00127334
0.00107745
0.000881564
0.000685667
0.000489766
0.000293861
9.79538e-05
0.000138622
0.000415863
0.000693098
0.00097032
0.00124753
0.00152471
0.00180186
0.00207899
0.00235607
0.00263311
0.00291009
0.00318702
0.00346387
0.00374065
0.00401734
0.00429394
0.00457042
0.00484679
0.00512302
0.00539911
0.00567503
0.00595078
0.00622633
0.00650167
0.00677678
0.00705163
0.00732621
0.00760049
0.00787444
0.00814805
0.00842128
0.0086941
0.00896649
0.0092384
0.00950981
0.00978068
0.010051
0.0103207
0.0105897
0.010858
0.0111256
0.0113924
0.0116583
0.0119234
0.0121875
0.0124506
0.0127127
0.0129737
0.0132335
0.013492
0.0137493
0.0140053
0.0142598
0.0145128
0.0147643
0.0150142
0.0152623
0.0155087
0.0157533
0.0159959
0.0162365
0.0164751
0.0167115
0.0169456
0.0171774
0.0174068
0.0176337
0.0178581
0.0180798
0.0182987
0.0185148
0.018728
0.0189382
0.0191453
0.0193492
0.0195498
0.0197471
0.019941
0.0201313
0.020318
0.0205011
0.0206804
0.0208558
0.0210273
0.0211948
0.0213582
0.0215175
0.0216725
0.0218232
0.0219696
0.0221115
0.0222489
0.0223817
0.02251
0.0226335
0.0227524
0.0228664
0.0229756
0.02308
0.0231794
0.0232739
0.0233634
0.0234479
0.0235273
0.0236017
0.023671
0.0237351
0.0237942
0.0238481
0.0238968
0.0239404
0.0239789
0.0240122
0.0240403
0.0240634
0.0240813
0.0240941
0.0241018
0.0241045
0.0241021
0.0240948
0.0240824
0.0240651
0.0240429
0.0240159
0.023984
0.0239473
0.0239059
0.0238599
0.0238092
0.0237539
0.0236941
0.0236298
0.0235612
0.0234882
0.0234109
0.0233294
0.0232437
0.023154
0.0230603
0.0229626
0.022861
0.0227556
0.0226465
0.0225337
0.0224173
0.0222974
0.0221741
0.0220473
0.0219173
0.021784
0.0216476
0.0215081
0.0213655
0.02122
0.0210717
0.0209205
0.0207667
0.0206101
0.020451
0.0202893
0.0201252
0.0199587
0.0197899
0.0196188
0.0194456
0.0192702
0.0190928
0.0189133
0.018732
0.0185487
0.0183636
0.0181768
0.0179882
0.0177981
0.0176063
0.017413
0.0172181
0.0170219
0.0168243
0.0166253
0.0164251
0.0162236
0.0160209
0.0158171
0.0156121
0.0154061
0.0151991
0.0149911
0.0147821
0.0145723
0.0143616
0.01415
0.0139377
0.0137246
0.0135107
0.0132962
0.013081
0.0128652
0.0126487
0.0124317
0.0122142
0.0119961
0.0117775
0.0115585
0.0113389
0.011119
0.0108987
0.010678
0.0104569
0.0102354
0.0100137
0.00979163
0.00956929
0.00934666
0.00912379
0.00890067
0.00867732
0.00845376
0.00823
0.00800606
0.00778194
0.00755766
0.00733322
0.00710865
0.00688394
0.00665911
0.00643416
0.00620911
0.00598396
0.00575873
0.0055334
0.00530801
0.00508254
0.00485701
0.00463142
0.00440577
0.00418008
0.00395434
0.00372856
0.00350274
0.0032769
0.00305102
0.00282511
0.00259918
0.00237323
0.00214726
0.00192127
0.00169527
0.00146926
0.00124324
0.00101721
0.000791167
0.000565123
0.000339076
0.000113025
0.000157112
0.000471334
0.000785548
0.00109975
0.00141393
0.00172809
0.00204222
0.00235631
0.00267036
0.00298436
0.0032983
0.00361217
0.00392597
0.00423968
0.00455329
0.0048668
0.00518019
0.00549344
0.00580655
0.00611949
0.00643225
0.00674482
0.00705717
0.00736928
0.00768113
0.0079927
0.00830396
0.00861488
0.00892544
0.00923562
0.00954536
0.00985466
0.0101635
0.0104717
0.0107794
0.0110865
0.011393
0.0116987
0.0120038
0.012308
0.0126114
0.0129139
0.0132154
0.013516
0.0138155
0.0141139
0.0144111
0.014707
0.0150016
0.0152949
0.0155867
0.0158769
0.0161656
0.0164526
0.0167378
0.0170212
0.0173027
0.0175822
0.0178595
0.0181348
0.0184077
0.0186783
0.0189464
0.019212
0.019475
0.0197353
0.0199927
0.0202472
0.0204987
0.0207471
0.0209923
0.0212342
0.0214726
0.0217076
0.0219389
0.0221666
0.0223904
0.0226104
0.0228264
0.0230383
0.023246
0.0234494
0.0236484
0.023843
0.0240331
0.0242185
0.0243992
0.0245751
0.0247462
0.0249122
0.0250733
0.0252292
0.0253799
0.0255254
0.0256656
0.0258005
0.0259299
0.0260538
0.0261722
0.026285
0.0263922
0.0264937
0.0265895
0.0266796
0.026764
0.0268425
0.0269153
0.0269822
0.0270433
0.0270986
0.027148
0.0271916
0.0272293
0.0272612
0.0272873
0.0273075
0.027322
0.0273307
0.0273336
0.0273309
0.0273224
0.0273083
0.0272886
0.0272633
0.0272325
0.0271963
0.0271546
0.0271075
0.0270552
0.0269975
0.0269347
0.0268668
0.0267938
0.0267158
0.0266329
0.0265451
0.0264525
0.0263553
0.0262534
0.0261469
0.026036
0.0259206
0.025801
0.0256771
0.0255491
0.0254169
0.0252808
0.0251408
0.024997
0.0248494
0.0246981
0.0245433
0.0243849
0.0242232
0.0240581
0.0238897
0.0237182
0.0235436
0.023366
0.0231854
0.023002
0.0228158
0.0226269
0.0224354
0.0222413
0.0220448
0.0218458
0.0216445
0.021441
0.0212352
0.0210274
0.0208174
0.0206055
0.0203917
0.020176
0.0199584
0.0197392
0.0195183
0.0192957
0.0190716
0.0188459
0.0186188
0.0183903
0.0181605
0.0179294
0.017697
0.0174634
0.0172286
0.0169928
0.0167558
0.0165179
0.016279
0.0160391
0.0157983
0.0155567
0.0153143
0.0150711
0.0148271
0.0145824
0.014337
0.014091
0.0138443
0.0135971
0.0133493
0.013101
0.0128521
0.0126028
0.012353
0.0121028
0.0118522
0.0116012
0.0113498
0.0110981
0.010846
0.0105937
0.010341
0.0100881
0.00983495
0.00958154
0.00932791
0.00907407
0.00882003
0.00856581
0.00831142
0.00805687
0.00780217
0.00754734
0.00729237
0.00703729
0.0067821
0.00652681
0.00627143
0.00601596
0.00576041
0.00550479
0.00524911
0.00499336
0.00473756
0.00448171
0.00422582
0.00396988
0.00371391
0.0034579
0.00320187
0.0029458
0.00268972
0.00243361
0.00217749
0.00192135
0.0016652
0.00140903
0.00115286
0.000896673
0.000640485
0.000384293
0.000128098
0.000175605
0.000526813
0.000878012
0.0012292
0.00158036
0.0019315
0.00228261
0.00263368
0.0029847
0.00333566
0.00368656
0.0040374
0.00438814
0.0047388
0.00508935
0.00543978
0.00579009
0.00614024
0.00649024
0.00684005
0.00718967
0.00753908
0.00788824
0.00823714
0.00858576
0.00893407
0.00928204
0.00962964
0.00997684
0.0103236
0.0106699
0.0110157
0.011361
0.0117056
0.0120497
0.012393
0.0127357
0.0130776
0.0134186
0.0137588
0.0140981
0.0144364
0.0147736
0.0151097
0.0154446
0.0157783
0.0161107
0.0164417
0.0167712
0.0170992
0.0174256
0.0177502
0.0180731
0.0183941
0.0187132
0.0190302
0.0193451
0.0196577
0.019968
0.0202759
0.0205812
0.020884
0.021184
0.0214811
0.0217754
0.0220665
0.0223546
0.0226394
0.0229208
0.0231987
0.0234731
0.0237437
0.0240106
0.0242735
0.0245324
0.0247872
0.0250377
0.0252838
0.0255255
0.0257627
0.0259951
0.0262228
0.0264455
0.0266633
0.026876
0.0270836
0.0272858
0.0274827
0.0276741
0.0278599
0.0280401
0.0282146
0.0283834
0.0285462
0.0287031
0.028854
0.0289988
0.0291374
0.0292699
0.0293961
0.0295161
0.0296297
0.0297369
0.0298377
0.029932
0.0300199
0.0301013
0.0301761
0.0302444
0.0303062
0.0303615
0.0304102
0.0304523
0.0304879
0.030517
0.0305396
0.0305557
0.0305653
0.0305685
0.0305653
0.0305557
0.0305398
0.0305177
0.0304893
0.0304547
0.030414
0.0303672
0.0303144
0.0302557
0.0301911
0.0301207
0.0300445
0.0299627
0.0298753
0.0297824
0.0296841
0.0295804
0.0294714
0.0293573
0.029238
0.0291138
0.0289846
0.0288506
0.0287119
0.0285685
0.0284206
0.0282682
0.0281114
0.0279504
0.0277851
0.0276158
0.0274424
0.0272652
0.0270841
0.0268994
0.0267109
0.026519
0.0263236
0.0261248
0.0259227
0.0257175
0.0255091
0.0252977
0.0250834
0.0248663
0.0246464
0.0244238
0.0241986
0.0239708
0.0237407
0.0235081
0.0232733
0.0230362
0.022797
0.0225557
0.0223124
0.0220671
0.02182
0.0215711
0.0213204
0.021068
0.020814
0.0205585
0.0203014
0.0200429
0.019783
0.0195218
0.0192592
0.0189955
0.0187305
0.0184645
0.0181973
0.0179291
0.0176599
0.0173897
0.0171186
0.0168467
0.0165739
0.0163003
0.0160259
0.0157508
0.0154751
0.0151986
0.0149216
0.014644
0.0143658
0.014087
0.0138078
0.013528
0.0132479
0.0129672
0.0126862
0.0124048
0.0121231
0.011841
0.0115585
0.0112758
0.0109928
0.0107095
0.010426
0.0101423
0.00985831
0.00957414
0.00928978
0.00900524
0.00872054
0.00843569
0.0081507
0.00786558
0.00758034
0.00729499
0.00700954
0.00672399
0.00643835
0.00615264
0.00586686
0.005581
0.00529509
0.00500913
0.00472311
0.00443705
0.00415095
0.00386482
0.00357865
0.00329245
0.00300623
0.00271998
0.00243372
0.00214744
0.00186114
0.00157483
0.00128851
0.00100218
0.000715851
0.000429512
0.000143171
0.000194101
0.0005823
0.00097049
0.00135867
0.00174682
0.00213495
0.00252304
0.00291109
0.00329909
0.00368703
0.00407491
0.0044627
0.00485042
0.00523803
0.00562552
0.0060129
0.00640013
0.00678721
0.00717411
0.00756082
0.00794731
0.00833357
0.00871958
0.0091053
0.00949071
0.00987578
0.0102605
0.0106448
0.0110287
0.0114121
0.011795
0.0121773
0.012559
0.0129402
0.0133206
0.0137003
0.0140792
0.0144572
0.0148344
0.0152106
0.0155858
0.0159599
0.0163329
0.0167046
0.017075
0.0174441
0.0178117
0.0181778
0.0185423
0.0189051
0.0192661
0.0196253
0.0199825
0.0203376
0.0206906
0.0210413
0.0213896
0.0217355
0.0220789
0.0224195
0.0227574
0.0230924
0.0234243
0.0237531
0.0240787
0.024401
0.0247197
0.0250349
0.0253463
0.0256539
0.0259575
0.0262571
0.0265524
0.0268434
0.02713
0.027412
0.0276893
0.0279617
0.0282293
0.0284917
0.028749
0.029001
0.0292476
0.0294887
0.0297242
0.0299539
0.0301777
0.0303957
0.0306075
0.0308133
0.0310128
0.0312059
0.0313927
0.0315729
0.0317466
0.0319135
0.0320738
0.0322273
0.0323739
0.0325136
0.0326463
0.032772
0.0328907
0.0330022
0.0331066
0.0332038
0.0332938
0.0333766
0.0334521
0.0335204
0.0335815
0.0336353
0.0336818
0.0337211
0.0337532
0.0337781
0.0337958
0.0338063
0.0338098
0.0338061
0.0337954
0.0337776
0.033753
0.0337214
0.033683
0.0336378
0.0335859
0.0335273
0.0334621
0.0333905
0.0333124
0.033228
0.0331373
0.0330404
0.0329374
0.0328284
0.0327135
0.0325927
0.0324663
0.0323341
0.0321965
0.0320534
0.031905
0.0317513
0.0315925
0.0314287
0.0312599
0.0310863
0.0309079
0.030725
0.0305375
0.0303455
0.0301493
0.0299489
0.0297443
0.0295357
0.0293232
0.0291069
0.0288868
0.0286632
0.028436
0.0282054
0.0279715
0.0277343
0.027494
0.0272506
0.0270043
0.0267551
0.0265031
0.0262484
0.0259911
0.0257313
0.025469
0.0252043
0.0249374
0.0246682
0.0243969
0.0241235
0.0238482
0.0235709
0.0232917
0.0230108
0.0227281
0.0224438
0.0221578
0.0218704
0.0215815
0.0212911
0.0209994
0.0207064
0.0204121
0.0201167
0.0198201
0.0195224
0.0192236
0.0189238
0.0186231
0.0183214
0.0180189
0.0177155
0.0174114
0.0171065
0.0168008
0.0164945
0.0161875
0.0158799