/*--------------------------------*- C++ -*----------------------------------*\
| =========                 |                                                 |
| \\      /  F ield         | OpenFOAM: The Open Source CFD Toolbox           |
|  \\    /   O peration     | Version:  v2012                                 |
|   \\  /    A nd           | Website:  www.openfoam.com                      |
|    \\/     M anipulation  |                                                 |
\*---------------------------------------------------------------------------*/
FoamFile
{
    version     2.0;
    format      ascii;
    class       volVectorField;
    location    "7";
    object      U;
}
// * * * * * * * * * * * * * * * * * * * * * * * * * * * * * * * * * * * * * //

dimensions      [0 1 -1 0 0 0 0];


internalField   nonuniform List<vector> 
65536
(
(0.000752559 -0.000752552 0)
(0.00225766 -0.000752536 0)
(0.00376272 -0.000752505 0)
(0.0052677 -0.000752459 0)
(0.00677257 -0.000752396 0)
(0.0082773 -0.000752317 0)
(0.00978185 -0.00075222 0)
(0.0112862 -0.000752105 0)
(0.0127903 -0.00075197 0)
(0.0142941 -0.000751814 0)
(0.0157976 -0.000751636 0)
(0.0173007 -0.000751435 0)
(0.0188033 -0.000751208 0)
(0.0203055 -0.000750954 0)
(0.0218072 -0.00075067 0)
(0.0233082 -0.000750356 0)
(0.0248086 -0.000750008 0)
(0.0263083 -0.000749624 0)
(0.0278072 -0.000749202 0)
(0.0293051 -0.000748738 0)
(0.0308021 -0.000748231 0)
(0.0322981 -0.000747677 0)
(0.0337929 -0.000747072 0)
(0.0352864 -0.000746415 0)
(0.0367786 -0.000745701 0)
(0.0382693 -0.000744927 0)
(0.0397584 -0.00074409 0)
(0.0412457 -0.000743185 0)
(0.0427312 -0.000742209 0)
(0.0442146 -0.000741159 0)
(0.0456959 -0.000740029 0)
(0.0471748 -0.000738816 0)
(0.0486513 -0.000737516 0)
(0.050125 -0.000736124 0)
(0.0515958 -0.000734637 0)
(0.0530636 -0.000733048 0)
(0.0545281 -0.000731355 0)
(0.0559892 -0.000729553 0)
(0.0574465 -0.000727636 0)
(0.0588998 -0.0007256 0)
(0.060349 -0.000723441 0)
(0.0617937 -0.000721153 0)
(0.0632337 -0.000718733 0)
(0.0646688 -0.000716174 0)
(0.0660986 -0.000713473 0)
(0.0675228 -0.000710625 0)
(0.0689412 -0.000707624 0)
(0.0703535 -0.000704466 0)
(0.0717592 -0.000701147 0)
(0.0731582 -0.000697662 0)
(0.0745501 -0.000694006 0)
(0.0759344 -0.000690174 0)
(0.0773109 -0.000686163 0)
(0.0786792 -0.000681968 0)
(0.080039 -0.000677585 0)
(0.0813898 -0.00067301 0)
(0.0827312 -0.000668238 0)
(0.0840629 -0.000663267 0)
(0.0853845 -0.000658092 0)
(0.0866955 -0.00065271 0)
(0.0879955 -0.000647118 0)
(0.0892842 -0.000641312 0)
(0.090561 -0.000635291 0)
(0.0918256 -0.00062905 0)
(0.0930774 -0.000622589 0)
(0.0943161 -0.000615905 0)
(0.0955413 -0.000608995 0)
(0.0967523 -0.000601859 0)
(0.0979489 -0.000594495 0)
(0.0991305 -0.000586902 0)
(0.100297 -0.000579079 0)
(0.101447 -0.000571027 0)
(0.102581 -0.000562744 0)
(0.103698 -0.000554232 0)
(0.104798 -0.000545491 0)
(0.10588 -0.000536521 0)
(0.106945 -0.000527325 0)
(0.10799 -0.000517903 0)
(0.109016 -0.000508258 0)
(0.110023 -0.000498392 0)
(0.11101 -0.000488308 0)
(0.111977 -0.000478009 0)
(0.112922 -0.000467498 0)
(0.113847 -0.00045678 0)
(0.11475 -0.000445857 0)
(0.115631 -0.000434736 0)
(0.116489 -0.00042342 0)
(0.117324 -0.000411914 0)
(0.118137 -0.000400225 0)
(0.118925 -0.000388358 0)
(0.11969 -0.000376319 0)
(0.120431 -0.000364115 0)
(0.121147 -0.000351752 0)
(0.121838 -0.000339237 0)
(0.122504 -0.000326578 0)
(0.123145 -0.000313781 0)
(0.123759 -0.000300856 0)
(0.124348 -0.000287809 0)
(0.124911 -0.000274649 0)
(0.125447 -0.000261384 0)
(0.125956 -0.000248023 0)
(0.126439 -0.000234574 0)
(0.126895 -0.000221046 0)
(0.127323 -0.000207448 0)
(0.127724 -0.000193789 0)
(0.128098 -0.000180078 0)
(0.128445 -0.000166324 0)
(0.128764 -0.000152536 0)
(0.129055 -0.000138723 0)
(0.129319 -0.000124895 0)
(0.129555 -0.00011106 0)
(0.129763 -9.72282e-05 0)
(0.129944 -8.34076e-05 0)
(0.130096 -6.96074e-05 0)
(0.130222 -5.58364e-05 0)
(0.13032 -4.21034e-05 0)
(0.13039 -2.84168e-05 0)
(0.130433 -1.47851e-05 0)
(0.130449 -1.21657e-06 0)
(0.130438 1.22808e-05 0)
(0.1304 2.56992e-05 0)
(0.130335 3.90309e-05 0)
(0.130244 5.22685e-05 0)
(0.130126 6.54048e-05 0)
(0.129982 7.84328e-05 0)
(0.129812 9.13457e-05 0)
(0.129617 0.000104137 0)
(0.129396 0.000116801 0)
(0.129149 0.000129331 0)
(0.128878 0.000141722 0)
(0.128582 0.000153968 0)
(0.128262 0.000166065 0)
(0.127918 0.000178007 0)
(0.12755 0.00018979 0)
(0.127159 0.00020141 0)
(0.126744 0.000212862 0)
(0.126307 0.000224144 0)
(0.125847 0.000235252 0)
(0.125366 0.000246182 0)
(0.124862 0.000256932 0)
(0.124338 0.0002675 0)
(0.123792 0.000277883 0)
(0.123226 0.00028808 0)
(0.12264 0.000298087 0)
(0.122034 0.000307906 0)
(0.121408 0.000317533 0)
(0.120763 0.000326968 0)
(0.1201 0.00033621 0)
(0.119418 0.00034526 0)
(0.118719 0.000354116 0)
(0.118002 0.000362779 0)
(0.117267 0.000371249 0)
(0.116516 0.000379526 0)
(0.115749 0.000387611 0)
(0.114966 0.000395505 0)
(0.114167 0.000403209 0)
(0.113353 0.000410723 0)
(0.112524 0.000418049 0)
(0.11168 0.00042519 0)
(0.110823 0.000432145 0)
(0.109952 0.000438917 0)
(0.109067 0.000445508 0)
(0.108169 0.000451919 0)
(0.107259 0.000458154 0)
(0.106337 0.000464213 0)
(0.105402 0.0004701 0)
(0.104456 0.000475817 0)
(0.103499 0.000481365 0)
(0.10253 0.000486749 0)
(0.101552 0.000491969 0)
(0.100562 0.000497029 0)
(0.0995633 0.000501933 0)
(0.0985545 0.000506681 0)
(0.0975364 0.000511278 0)
(0.0965093 0.000515725 0)
(0.0954734 0.000520027 0)
(0.094429 0.000524185 0)
(0.0933765 0.000528203 0)
(0.0923161 0.000532084 0)
(0.091248 0.00053583 0)
(0.0901726 0.000539444 0)
(0.0890901 0.000542931 0)
(0.0880008 0.000546291 0)
(0.0869048 0.000549529 0)
(0.0858026 0.000552647 0)
(0.0846941 0.000555649 0)
(0.0835799 0.000558536 0)
(0.0824599 0.000561313 0)
(0.0813345 0.000563981 0)
(0.0802039 0.000566544 0)
(0.0790682 0.000569005 0)
(0.0779277 0.000571366 0)
(0.0767827 0.00057363 0)
(0.0756331 0.0005758 0)
(0.0744794 0.000577879 0)
(0.0733215 0.000579869 0)
(0.0721598 0.000581773 0)
(0.0709944 0.000583594 0)
(0.0698254 0.000585334 0)
(0.0686529 0.000586995 0)
(0.0674773 0.000588581 0)
(0.0662986 0.000590093 0)
(0.0651169 0.000591535 0)
(0.0639323 0.000592907 0)
(0.0627452 0.000594214 0)
(0.0615554 0.000595457 0)
(0.0603633 0.000596638 0)
(0.0591688 0.000597759 0)
(0.0579722 0.000598824 0)
(0.0567735 0.000599833 0)
(0.0555728 0.000600789 0)
(0.0543703 0.000601694 0)
(0.053166 0.00060255 0)
(0.05196 0.000603359 0)
(0.0507525 0.000604123 0)
(0.0495435 0.000604843 0)
(0.0483331 0.000605522 0)
(0.0471214 0.000606162 0)
(0.0459084 0.000606763 0)
(0.0446943 0.000607328 0)
(0.043479 0.000607858 0)
(0.0422628 0.000608356 0)
(0.0410456 0.000608822 0)
(0.0398275 0.000609257 0)
(0.0386085 0.000609665 0)
(0.0373888 0.000610045 0)
(0.0361683 0.000610399 0)
(0.0349472 0.000610729 0)
(0.0337254 0.000611036 0)
(0.032503 0.000611321 0)
(0.0312801 0.000611585 0)
(0.0300567 0.00061183 0)
(0.0288328 0.000612056 0)
(0.0276084 0.000612265 0)
(0.0263837 0.000612457 0)
(0.0251586 0.000612634 0)
(0.0239331 0.000612797 0)
(0.0227074 0.000612946 0)
(0.0214813 0.000613082 0)
(0.020255 0.000613206 0)
(0.0190285 0.00061332 0)
(0.0178017 0.000613422 0)
(0.0165748 0.000613515 0)
(0.0153477 0.000613599 0)
(0.0141204 0.000613673 0)
(0.012893 0.00061374 0)
(0.0116654 0.0006138 0)
(0.0104378 0.000613852 0)
(0.00921001 0.000613897 0)
(0.00798218 0.000613936 0)
(0.00675427 0.000613968 0)
(0.0055263 0.000613995 0)
(0.00429828 0.000614016 0)
(0.00307023 0.000614032 0)
(0.00184215 0.000614043 0)
(0.00061405 0.000614048 0)
(0.000752573 -0.00225767 0)
(0.0022577 -0.00225762 0)
(0.00376279 -0.00225753 0)
(0.0052678 -0.00225739 0)
(0.0067727 -0.0022572 0)
(0.00827747 -0.00225697 0)
(0.00978205 -0.00225668 0)
(0.0112864 -0.00225633 0)
(0.0127906 -0.00225593 0)
(0.0142944 -0.00225546 0)
(0.0157979 -0.00225493 0)
(0.0173011 -0.00225433 0)
(0.0188038 -0.00225365 0)
(0.020306 -0.00225289 0)
(0.0218077 -0.00225204 0)
(0.0233089 -0.0022511 0)
(0.0248093 -0.00225006 0)
(0.0263091 -0.00224891 0)
(0.027808 -0.00224764 0)
(0.0293061 -0.00224626 0)
(0.0308032 -0.00224474 0)
(0.0322992 -0.00224308 0)
(0.0337941 -0.00224127 0)
(0.0352878 -0.0022393 0)
(0.0367801 -0.00223716 0)
(0.0382709 -0.00223484 0)
(0.0397601 -0.00223233 0)
(0.0412476 -0.00222962 0)
(0.0427332 -0.0022267 0)
(0.0442168 -0.00222355 0)
(0.0456982 -0.00222017 0)
(0.0471773 -0.00221653 0)
(0.0486539 -0.00221264 0)
(0.0501278 -0.00220847 0)
(0.0515989 -0.00220401 0)
(0.0530669 -0.00219925 0)
(0.0545316 -0.00219417 0)
(0.0559928 -0.00218877 0)
(0.0574504 -0.00218302 0)
(0.058904 -0.00217692 0)
(0.0603534 -0.00217045 0)
(0.0617984 -0.00216359 0)
(0.0632387 -0.00215633 0)
(0.064674 -0.00214866 0)
(0.0661041 -0.00214056 0)
(0.0675286 -0.00213202 0)
(0.0689473 -0.00212303 0)
(0.0703599 -0.00211356 0)
(0.071766 -0.00210361 0)
(0.0731653 -0.00209315 0)
(0.0745575 -0.00208219 0)
(0.0759422 -0.0020707 0)
(0.0773191 -0.00205867 0)
(0.0786878 -0.00204609 0)
(0.0800479 -0.00203295 0)
(0.0813991 -0.00201922 0)
(0.0827409 -0.00200491 0)
(0.084073 -0.00199 0)
(0.085395 -0.00197448 0)
(0.0867064 -0.00195834 0)
(0.0880069 -0.00194156 0)
(0.0892959 -0.00192415 0)
(0.0905732 -0.00190609 0)
(0.0918382 -0.00188737 0)
(0.0930905 -0.00186799 0)
(0.0943297 -0.00184794 0)
(0.0955552 -0.00182721 0)
(0.0967668 -0.0018058 0)
(0.0979638 -0.00178371 0)
(0.0991459 -0.00176093 0)
(0.100313 -0.00173747 0)
(0.101463 -0.00171331 0)
(0.102598 -0.00168846 0)
(0.103715 -0.00166292 0)
(0.104816 -0.0016367 0)
(0.105899 -0.00160979 0)
(0.106963 -0.0015822 0)
(0.108009 -0.00155393 0)
(0.109036 -0.00152499 0)
(0.110043 -0.00149539 0)
(0.11103 -0.00146514 0)
(0.111997 -0.00143424 0)
(0.112944 -0.0014027 0)
(0.113868 -0.00137054 0)
(0.114772 -0.00133777 0)
(0.115653 -0.0013044 0)
(0.116512 -0.00127045 0)
(0.117348 -0.00123593 0)
(0.11816 -0.00120085 0)
(0.118949 -0.00116524 0)
(0.119714 -0.00112912 0)
(0.120455 -0.0010925 0)
(0.121172 -0.00105541 0)
(0.121863 -0.00101785 0)
(0.122529 -0.000979869 0)
(0.12317 -0.000941472 0)
(0.123785 -0.000902687 0)
(0.124374 -0.000863539 0)
(0.124937 -0.00082405 0)
(0.125473 -0.000784247 0)
(0.125983 -0.000744155 0)
(0.126466 -0.0007038 0)
(0.126922 -0.000663207 0)
(0.12735 -0.000622405 0)
(0.127752 -0.000581419 0)
(0.128126 -0.000540276 0)
(0.128472 -0.000499005 0)
(0.128791 -0.000457632 0)
(0.129083 -0.000416185 0)
(0.129346 -0.000374692 0)
(0.129582 -0.000333179 0)
(0.12979 -0.000291673 0)
(0.129971 -0.000250203 0)
(0.130124 -0.000208793 0)
(0.130249 -0.000167472 0)
(0.130347 -0.000126264 0)
(0.130418 -8.51961e-05 0)
(0.130461 -4.42929e-05 0)
(0.130476 -3.5792e-06 0)
(0.130465 3.69208e-05 0)
(0.130427 7.71836e-05 0)
(0.130362 0.000117186 0)
(0.13027 0.000156906 0)
(0.130152 0.000196322 0)
(0.130008 0.000235412 0)
(0.129838 0.000274158 0)
(0.129642 0.000312538 0)
(0.129421 0.000350535 0)
(0.129174 0.000388132 0)
(0.128903 0.00042531 0)
(0.128607 0.000462054 0)
(0.128286 0.000498348 0)
(0.127942 0.000534179 0)
(0.127573 0.000569532 0)
(0.127182 0.000604395 0)
(0.126767 0.000638756 0)
(0.126329 0.000672605 0)
(0.125869 0.000705931 0)
(0.125387 0.000738725 0)
(0.124884 0.000770978 0)
(0.124359 0.000802684 0)
(0.123813 0.000833835 0)
(0.123246 0.000864425 0)
(0.12266 0.00089445 0)
(0.122053 0.000923906 0)
(0.121427 0.000952788 0)
(0.120782 0.000981094 0)
(0.120118 0.00100882 0)
(0.119436 0.00103597 0)
(0.118736 0.00106254 0)
(0.118019 0.00108853 0)
(0.117284 0.00111394 0)
(0.116533 0.00113877 0)
(0.115765 0.00116302 0)
(0.114981 0.0011867 0)
(0.114182 0.00120981 0)
(0.113368 0.00123235 0)
(0.112538 0.00125433 0)
(0.111694 0.00127575 0)
(0.110837 0.00129661 0)
(0.109965 0.00131693 0)
(0.10908 0.0013367 0)
(0.108182 0.00135593 0)
(0.107271 0.00137463 0)
(0.106349 0.00139281 0)
(0.105414 0.00141047 0)
(0.104467 0.00142762 0)
(0.10351 0.00144426 0)
(0.102541 0.00146041 0)
(0.101562 0.00147606 0)
(0.100572 0.00149124 0)
(0.0995729 0.00150595 0)
(0.0985638 0.00152019 0)
(0.0975454 0.00153398 0)
(0.096518 0.00154732 0)
(0.0954818 0.00156022 0)
(0.0944372 0.00157269 0)
(0.0933844 0.00158474 0)
(0.0923237 0.00159638 0)
(0.0912554 0.00160762 0)
(0.0901797 0.00161846 0)
(0.0890969 0.00162891 0)
(0.0880073 0.00163899 0)
(0.0869112 0.0016487 0)
(0.0858086 0.00165806 0)
(0.0847 0.00166706 0)
(0.0835855 0.00167572 0)
(0.0824653 0.00168404 0)
(0.0813397 0.00169205 0)
(0.0802089 0.00169973 0)
(0.079073 0.00170711 0)
(0.0779323 0.00171419 0)
(0.0767871 0.00172098 0)
(0.0756374 0.00172749 0)
(0.0744834 0.00173372 0)
(0.0733254 0.00173969 0)
(0.0721635 0.0017454 0)
(0.0709979 0.00175086 0)
(0.0698287 0.00175608 0)
(0.0686562 0.00176106 0)
(0.0674804 0.00176581 0)
(0.0663015 0.00177035 0)
(0.0651196 0.00177467 0)
(0.063935 0.00177879 0)
(0.0627477 0.0017827 0)
(0.0615578 0.00178643 0)
(0.0603656 0.00178997 0)
(0.059171 0.00179333 0)
(0.0579742 0.00179652 0)
(0.0567754 0.00179955 0)
(0.0555746 0.00180242 0)
(0.054372 0.00180513 0)
(0.0531676 0.0018077 0)
(0.0519616 0.00181012 0)
(0.050754 0.00181241 0)
(0.0495449 0.00181457 0)
(0.0483344 0.00181661 0)
(0.0471226 0.00181852 0)
(0.0459096 0.00182032 0)
(0.0446954 0.00182202 0)
(0.0434801 0.00182361 0)
(0.0422638 0.0018251 0)
(0.0410465 0.00182649 0)
(0.0398283 0.0018278 0)
(0.0386093 0.00182902 0)
(0.0373895 0.00183016 0)
(0.036169 0.00183122 0)
(0.0349478 0.00183221 0)
(0.033726 0.00183313 0)
(0.0325036 0.00183398 0)
(0.0312806 0.00183477 0)
(0.0300571 0.00183551 0)
(0.0288332 0.00183618 0)
(0.0276088 0.00183681 0)
(0.026384 0.00183739 0)
(0.0251589 0.00183792 0)
(0.0239334 0.0018384 0)
(0.0227077 0.00183885 0)
(0.0214816 0.00183926 0)
(0.0202553 0.00183963 0)
(0.0190287 0.00183997 0)
(0.0178019 0.00184028 0)
(0.016575 0.00184055 0)
(0.0153478 0.0018408 0)
(0.0141205 0.00184103 0)
(0.0128931 0.00184123 0)
(0.0116655 0.00184141 0)
(0.0104379 0.00184156 0)
(0.0092101 0.0018417 0)
(0.00798225 0.00184181 0)
(0.00675432 0.00184191 0)
(0.00552634 0.00184199 0)
(0.00429832 0.00184205 0)
(0.00307025 0.0018421 0)
(0.00184216 0.00184213 0)
(0.000614056 0.00184215 0)
(0.000752604 -0.00376283 0)
(0.0022578 -0.00376275 0)
(0.00376294 -0.0037626 0)
(0.00526802 -0.00376237 0)
(0.00677299 -0.00376206 0)
(0.00827782 -0.00376167 0)
(0.00978248 -0.00376119 0)
(0.0112869 -0.00376062 0)
(0.0127911 -0.00375995 0)
(0.0142951 -0.00375918 0)
(0.0157987 -0.0037583 0)
(0.0173019 -0.0037573 0)
(0.0188048 -0.00375617 0)
(0.0203071 -0.00375491 0)
(0.0218089 -0.0037535 0)
(0.0233102 -0.00375194 0)
(0.0248108 -0.00375021 0)
(0.0263107 -0.00374831 0)
(0.0278098 -0.00374621 0)
(0.029308 -0.00374391 0)
(0.0308053 -0.00374138 0)
(0.0323016 -0.00373863 0)
(0.0337967 -0.00373562 0)
(0.0352905 -0.00373235 0)
(0.0367831 -0.0037288 0)
(0.0382741 -0.00372495 0)
(0.0397636 -0.00372078 0)
(0.0412513 -0.00371628 0)
(0.0427372 -0.00371142 0)
(0.0442211 -0.00370618 0)
(0.0457029 -0.00370056 0)
(0.0471823 -0.00369451 0)
(0.0486593 -0.00368803 0)
(0.0501336 -0.0036811 0)
(0.051605 -0.00367368 0)
(0.0530734 -0.00366576 0)
(0.0545386 -0.00365732 0)
(0.0560003 -0.00364833 0)
(0.0574583 -0.00363877 0)
(0.0589124 -0.00362861 0)
(0.0603623 -0.00361784 0)
(0.0618078 -0.00360643 0)
(0.0632486 -0.00359435 0)
(0.0646845 -0.00358158 0)
(0.0661152 -0.0035681 0)
(0.0675403 -0.00355388 0)
(0.0689596 -0.0035389 0)
(0.0703729 -0.00352314 0)
(0.0717796 -0.00350656 0)
(0.0731796 -0.00348916 0)
(0.0745725 -0.0034709 0)
(0.0759579 -0.00345177 0)
(0.0773355 -0.00343173 0)
(0.0787049 -0.00341078 0)
(0.0800658 -0.00338888 0)
(0.0814178 -0.00336603 0)
(0.0827604 -0.00334219 0)
(0.0840933 -0.00331735 0)
(0.0854161 -0.00329149 0)
(0.0867284 -0.0032646 0)
(0.0880297 -0.00323665 0)
(0.0893196 -0.00320764 0)
(0.0905977 -0.00317754 0)
(0.0918636 -0.00314635 0)
(0.0931168 -0.00311406 0)
(0.0943569 -0.00308064 0)
(0.0955834 -0.0030461 0)
(0.0967958 -0.00301043 0)
(0.0979938 -0.00297361 0)
(0.0991768 -0.00293565 0)
(0.100344 -0.00289654 0)
(0.101496 -0.00285628 0)
(0.102631 -0.00281487 0)
(0.10375 -0.0027723 0)
(0.104851 -0.00272859 0)
(0.105935 -0.00268374 0)
(0.107 -0.00263775 0)
(0.108047 -0.00259063 0)
(0.109075 -0.00254239 0)
(0.110083 -0.00249305 0)
(0.111071 -0.00244261 0)
(0.112039 -0.0023911 0)
(0.112986 -0.00233853 0)
(0.113912 -0.00228492 0)
(0.114816 -0.00223028 0)
(0.115698 -0.00217465 0)
(0.116557 -0.00211804 0)
(0.117394 -0.00206049 0)
(0.118207 -0.00200201 0)
(0.118997 -0.00194265 0)
(0.119763 -0.00188242 0)
(0.120505 -0.00182137 0)
(0.121222 -0.00175951 0)
(0.121914 -0.0016969 0)
(0.12258 -0.00163357 0)
(0.123222 -0.00156955 0)
(0.123837 -0.00150488 0)
(0.124427 -0.00143961 0)
(0.12499 -0.00137377 0)
(0.125527 -0.0013074 0)
(0.126037 -0.00124055 0)
(0.12652 -0.00117326 0)
(0.126976 -0.00110558 0)
(0.127405 -0.00103754 0)
(0.127807 -0.000969204 0)
(0.128181 -0.000900604 0)
(0.128527 -0.000831788 0)
(0.128847 -0.000762803 0)
(0.129138 -0.000693694 0)
(0.129402 -0.000624508 0)
(0.129638 -0.000555289 0)
(0.129846 -0.000486084 0)
(0.130026 -0.000416936 0)
(0.130179 -0.000347891 0)
(0.130304 -0.000278993 0)
(0.130402 -0.000210285 0)
(0.130472 -0.000141811 0)
(0.130515 -7.36111e-05 0)
(0.130531 -5.72805e-06 0)
(0.130519 6.17982e-05 0)
(0.13048 0.000128928 0)
(0.130415 0.000195624 0)
(0.130323 0.000261848 0)
(0.130205 0.000327564 0)
(0.13006 0.000392737 0)
(0.129889 0.000457334 0)
(0.129693 0.000521323 0)
(0.129471 0.000584671 0)
(0.129224 0.00064735 0)
(0.128952 0.000709332 0)
(0.128655 0.000770588 0)
(0.128334 0.000831095 0)
(0.127989 0.000890828 0)
(0.12762 0.000949764 0)
(0.127228 0.00100788 0)
(0.126812 0.00106516 0)
(0.126374 0.00112159 0)
(0.125913 0.00117714 0)
(0.125431 0.00123181 0)
(0.124926 0.00128557 0)
(0.124401 0.00133842 0)
(0.123854 0.00139035 0)
(0.123287 0.00144134 0)
(0.122699 0.00149138 0)
(0.122092 0.00154048 0)
(0.121465 0.00158862 0)
(0.120819 0.0016358 0)
(0.120155 0.00168201 0)
(0.119472 0.00172726 0)
(0.118771 0.00177154 0)
(0.118053 0.00181486 0)
(0.117318 0.0018572 0)
(0.116565 0.00189859 0)
(0.115797 0.00193901 0)
(0.115013 0.00197847 0)
(0.114213 0.00201698 0)
(0.113397 0.00205455 0)
(0.112567 0.00209117 0)
(0.111723 0.00212687 0)
(0.110864 0.00216163 0)
(0.109992 0.00219549 0)
(0.109106 0.00222843 0)
(0.108207 0.00226048 0)
(0.107296 0.00229164 0)
(0.106372 0.00232193 0)
(0.105437 0.00235135 0)
(0.10449 0.00237992 0)
(0.103531 0.00240765 0)
(0.102562 0.00243455 0)
(0.101582 0.00246064 0)
(0.100592 0.00248593 0)
(0.0995922 0.00251043 0)
(0.0985825 0.00253416 0)
(0.0975635 0.00255713 0)
(0.0965355 0.00257935 0)
(0.0954987 0.00260084 0)
(0.0944535 0.00262162 0)
(0.0934002 0.0026417 0)
(0.0923389 0.00266109 0)
(0.0912701 0.0026798 0)
(0.0901939 0.00269786 0)
(0.0891106 0.00271528 0)
(0.0880206 0.00273206 0)
(0.0869239 0.00274824 0)
(0.0858209 0.00276382 0)
(0.0847118 0.00277881 0)
(0.0835968 0.00279323 0)
(0.0824762 0.0028071 0)
(0.0813502 0.00282043 0)
(0.0802189 0.00283323 0)
(0.0790827 0.00284552 0)
(0.0779416 0.00285731 0)
(0.0767959 0.00286862 0)
(0.0756459 0.00287946 0)
(0.0744916 0.00288984 0)
(0.0733332 0.00289977 0)
(0.072171 0.00290928 0)
(0.071005 0.00291837 0)
(0.0698355 0.00292706 0)
(0.0686627 0.00293535 0)
(0.0674866 0.00294327 0)
(0.0663074 0.00295082 0)
(0.0651253 0.00295801 0)
(0.0639404 0.00296487 0)
(0.0627528 0.00297139 0)
(0.0615627 0.00297759 0)
(0.0603702 0.00298348 0)
(0.0591754 0.00298908 0)
(0.0579784 0.00299439 0)
(0.0567794 0.00299943 0)
(0.0555784 0.0030042 0)
(0.0543755 0.00300871 0)
(0.053171 0.00301298 0)
(0.0519647 0.00301702 0)
(0.0507569 0.00302083 0)
(0.0495477 0.00302442 0)
(0.048337 0.00302781 0)
(0.0471251 0.003031 0)
(0.0459119 0.00303399 0)
(0.0446975 0.00303681 0)
(0.0434821 0.00303946 0)
(0.0422657 0.00304193 0)
(0.0410483 0.00304426 0)
(0.03983 0.00304643 0)
(0.0386109 0.00304846 0)
(0.037391 0.00305035 0)
(0.0361704 0.00305212 0)
(0.0349491 0.00305376 0)
(0.0337272 0.00305529 0)
(0.0325047 0.00305671 0)
(0.0312816 0.00305802 0)
(0.0300581 0.00305924 0)
(0.0288341 0.00306037 0)
(0.0276096 0.0030614 0)
(0.0263848 0.00306236 0)
(0.0251596 0.00306324 0)
(0.0239341 0.00306405 0)
(0.0227082 0.00306479 0)
(0.0214821 0.00306547 0)
(0.0202557 0.00306609 0)
(0.0190291 0.00306665 0)
(0.0178023 0.00306716 0)
(0.0165753 0.00306762 0)
(0.0153481 0.00306804 0)
(0.0141208 0.00306841 0)
(0.0128933 0.00306874 0)
(0.0116658 0.00306903 0)
(0.0104381 0.00306929 0)
(0.00921026 0.00306952 0)
(0.00798239 0.00306971 0)
(0.00675444 0.00306987 0)
(0.00552644 0.00307 0)
(0.00429839 0.00307011 0)
(0.0030703 0.00307019 0)
(0.00184219 0.00307024 0)
(0.000614066 0.00307027 0)
(0.000752649 -0.00526807 0)
(0.00225793 -0.00526796 0)
(0.00376317 -0.00526775 0)
(0.00526834 -0.00526743 0)
(0.00677341 -0.005267 0)
(0.00827834 -0.00526646 0)
(0.00978311 -0.00526579 0)
(0.0112877 -0.005265 0)
(0.012792 -0.00526407 0)
(0.0142961 -0.005263 0)
(0.0157998 -0.00526178 0)
(0.0173032 -0.00526039 0)
(0.0188062 -0.00525883 0)
(0.0203087 -0.00525708 0)
(0.0218107 -0.00525512 0)
(0.0233122 -0.00525295 0)
(0.024813 -0.00525055 0)
(0.0263131 -0.0052479 0)
(0.0278124 -0.00524498 0)
(0.0293109 -0.00524178 0)
(0.0308085 -0.00523827 0)
(0.032305 -0.00523443 0)
(0.0338004 -0.00523024 0)
(0.0352946 -0.00522569 0)
(0.0367875 -0.00522074 0)
(0.0382789 -0.00521537 0)
(0.0397688 -0.00520956 0)
(0.041257 -0.00520328 0)
(0.0427433 -0.00519651 0)
(0.0442277 -0.00518921 0)
(0.0457099 -0.00518136 0)
(0.0471899 -0.00517293 0)
(0.0486674 -0.00516389 0)
(0.0501422 -0.00515421 0)
(0.0516143 -0.00514386 0)
(0.0530833 -0.0051328 0)
(0.0545491 -0.00512101 0)
(0.0560114 -0.00510846 0)
(0.0574701 -0.00509511 0)
(0.0589249 -0.00508093 0)
(0.0603756 -0.00506588 0)
(0.0618219 -0.00504993 0)
(0.0632636 -0.00503305 0)
(0.0647003 -0.00501521 0)
(0.0661318 -0.00499637 0)
(0.0675579 -0.0049765 0)
(0.0689781 -0.00495556 0)
(0.0703923 -0.00493352 0)
(0.0718 -0.00491035 0)
(0.073201 -0.00488602 0)
(0.0745949 -0.00486049 0)
(0.0759814 -0.00483373 0)
(0.0773601 -0.00480571 0)
(0.0787307 -0.00477641 0)
(0.0800927 -0.00474578 0)
(0.0814458 -0.00471381 0)
(0.0827897 -0.00468046 0)
(0.0841238 -0.00464571 0)
(0.0854478 -0.00460954 0)
(0.0867613 -0.00457191 0)
(0.0880639 -0.00453281 0)
(0.0893551 -0.00449221 0)
(0.0906346 -0.00445009 0)
(0.0919018 -0.00440644 0)
(0.0931563 -0.00436124 0)
(0.0943977 -0.00431448 0)
(0.0956256 -0.00426613 0)
(0.0968394 -0.0042162 0)
(0.0980387 -0.00416466 0)
(0.0992231 -0.00411152 0)
(0.100392 -0.00405677 0)
(0.101545 -0.00400041 0)
(0.102682 -0.00394242 0)
(0.103802 -0.00388283 0)
(0.104905 -0.00382163 0)
(0.10599 -0.00375882 0)
(0.107056 -0.00369442 0)
(0.108104 -0.00362844 0)
(0.109134 -0.0035609 0)
(0.110143 -0.0034918 0)
(0.111133 -0.00342117 0)
(0.112102 -0.00334903 0)
(0.11305 -0.0032754 0)
(0.113977 -0.00320031 0)
(0.114882 -0.00312379 0)
(0.115765 -0.00304587 0)
(0.116626 -0.00296659 0)
(0.117464 -0.00288597 0)
(0.118278 -0.00280407 0)
(0.119069 -0.00272091 0)
(0.119836 -0.00263655 0)
(0.120578 -0.00255102 0)
(0.121296 -0.00246438 0)
(0.121989 -0.00237668 0)
(0.122657 -0.00228796 0)
(0.123299 -0.00219828 0)
(0.123915 -0.00210769 0)
(0.124505 -0.00201625 0)
(0.125069 -0.00192401 0)
(0.125607 -0.00183104 0)
(0.126117 -0.00173739 0)
(0.126601 -0.00164312 0)
(0.127058 -0.0015483 0)
(0.127487 -0.00145299 0)
(0.127889 -0.00135725 0)
(0.128263 -0.00126115 0)
(0.12861 -0.00116474 0)
(0.12893 -0.0010681 0)
(0.129221 -0.000971281 0)
(0.129485 -0.000874356 0)
(0.129721 -0.000777387 0)
(0.129929 -0.000680436 0)
(0.130109 -0.000583567 0)
(0.130262 -0.000486842 0)
(0.130387 -0.000390324 0)
(0.130484 -0.000294073 0)
(0.130554 -0.00019815 0)
(0.130597 -0.000102613 0)
(0.130612 -7.51989e-06 0)
(0.1306 8.7072e-05 0)
(0.130561 0.000181108 0)
(0.130495 0.000274534 0)
(0.130402 0.000367298 0)
(0.130283 0.000459349 0)
(0.130138 0.000550639 0)
(0.129967 0.00064112 0)
(0.12977 0.000730747 0)
(0.129547 0.000819477 0)
(0.129299 0.000907267 0)
(0.129026 0.000994079 0)
(0.128729 0.00107987 0)
(0.128406 0.00116462 0)
(0.12806 0.00124827 0)
(0.12769 0.00133081 0)
(0.127297 0.00141221 0)
(0.126881 0.00149243 0)
(0.126441 0.00157145 0)
(0.12598 0.00164924 0)
(0.125496 0.00172579 0)
(0.12499 0.00180108 0)
(0.124464 0.00187509 0)
(0.123916 0.00194779 0)
(0.123347 0.00201919 0)
(0.122759 0.00208927 0)
(0.12215 0.00215801 0)
(0.121522 0.00222541 0)
(0.120875 0.00229147 0)
(0.12021 0.00235617 0)
(0.119526 0.00241952 0)
(0.118824 0.00248151 0)
(0.118104 0.00254215 0)
(0.117368 0.00260144 0)
(0.116615 0.00265937 0)
(0.115845 0.00271595 0)
(0.115059 0.00277119 0)
(0.114258 0.0028251 0)
(0.113442 0.00287769 0)
(0.112611 0.00292895 0)
(0.111765 0.00297891 0)
(0.110905 0.00302757 0)
(0.110032 0.00307495 0)
(0.109145 0.00312106 0)
(0.108245 0.00316591 0)
(0.107333 0.00320952 0)
(0.106408 0.00325191 0)
(0.105472 0.00329308 0)
(0.104524 0.00333306 0)
(0.103564 0.00337187 0)
(0.102594 0.00340951 0)
(0.101613 0.00344602 0)
(0.100622 0.0034814 0)
(0.0996212 0.00351569 0)
(0.0986106 0.00354889 0)
(0.0975907 0.00358102 0)
(0.0965618 0.00361212 0)
(0.0955241 0.00364219 0)
(0.0944781 0.00367125 0)
(0.0934239 0.00369934 0)
(0.0923618 0.00372646 0)
(0.0912922 0.00375264 0)
(0.0902152 0.0037779 0)
(0.0891312 0.00380227 0)
(0.0880404 0.00382575 0)
(0.086943 0.00384837 0)
(0.0858392 0.00387016 0)
(0.0847295 0.00389113 0)
(0.0836138 0.0039113 0)
(0.0824925 0.0039307 0)
(0.0813659 0.00394933 0)
(0.080234 0.00396724 0)
(0.0790971 0.00398442 0)
(0.0779555 0.00400091 0)
(0.0768092 0.00401672 0)
(0.0756586 0.00403188 0)
(0.0745038 0.00404639 0)
(0.0733449 0.00406029 0)
(0.0721821 0.00407358 0)
(0.0710157 0.00408629 0)
(0.0698457 0.00409843 0)
(0.0686724 0.00411002 0)
(0.0674959 0.00412109 0)
(0.0663163 0.00413164 0)
(0.0651337 0.0041417 0)
(0.0639484 0.00415127 0)
(0.0627604 0.00416039 0)
(0.0615699 0.00416906 0)
(0.0603771 0.00417729 0)
(0.0591819 0.00418511 0)
(0.0579846 0.00419253 0)
(0.0567852 0.00419957 0)
(0.0555839 0.00420623 0)
(0.0543808 0.00421254 0)
(0.0531759 0.00421851 0)
(0.0519694 0.00422414 0)
(0.0507614 0.00422946 0)
(0.0495519 0.00423448 0)
(0.048341 0.00423921 0)
(0.0471288 0.00424366 0)
(0.0459154 0.00424785 0)
(0.0447008 0.00425178 0)
(0.0434852 0.00425547 0)
(0.0422686 0.00425893 0)
(0.041051 0.00426217 0)
(0.0398325 0.0042652 0)
(0.0386132 0.00426803 0)
(0.0373932 0.00427067 0)
(0.0361724 0.00427313 0)
(0.034951 0.00427543 0)
(0.0337289 0.00427756 0)
(0.0325063 0.00427953 0)
(0.0312831 0.00428137 0)
(0.0300595 0.00428306 0)
(0.0288354 0.00428463 0)
(0.0276108 0.00428608 0)
(0.0263859 0.00428741 0)
(0.0251606 0.00428864 0)
(0.023935 0.00428977 0)
(0.0227091 0.0042908 0)
(0.0214829 0.00429174 0)
(0.0202564 0.0042926 0)
(0.0190298 0.00429338 0)
(0.0178029 0.00429409 0)
(0.0165758 0.00429473 0)
(0.0153486 0.00429531 0)
(0.0141212 0.00429583 0)
(0.0128937 0.00429629 0)
(0.0116661 0.0042967 0)
(0.0104383 0.00429705 0)
(0.00921052 0.00429737 0)
(0.0079826 0.00429763 0)
(0.00675462 0.00429786 0)
(0.00552658 0.00429804 0)
(0.0042985 0.00429819 0)
(0.00307038 0.0042983 0)
(0.00184224 0.00429837 0)
(0.000614081 0.00429841 0)
(0.000752709 -0.00677341 0)
(0.00225811 -0.00677328 0)
(0.00376348 -0.00677301 0)
(0.00526877 -0.00677261 0)
(0.00677397 -0.00677206 0)
(0.00827904 -0.00677137 0)
(0.00978395 -0.00677053 0)
(0.0112887 -0.00676952 0)
(0.0127932 -0.00676834 0)
(0.0142974 -0.00676698 0)
(0.0158013 -0.00676543 0)
(0.0173049 -0.00676366 0)
(0.0188081 -0.00676168 0)
(0.0203108 -0.00675945 0)
(0.0218131 -0.00675696 0)
(0.0233148 -0.0067542 0)
(0.0248159 -0.00675114 0)
(0.0263163 -0.00674776 0)
(0.0278159 -0.00674404 0)
(0.0293148 -0.00673995 0)
(0.0308127 -0.00673548 0)
(0.0323096 -0.00673058 0)
(0.0338054 -0.00672524 0)
(0.0353001 -0.00671942 0)
(0.0367934 -0.0067131 0)
(0.0382853 -0.00670624 0)
(0.0397757 -0.00669882 0)
(0.0412644 -0.00669079 0)
(0.0427514 -0.00668212 0)
(0.0442363 -0.00667279 0)
(0.0457192 -0.00666274 0)
(0.0471999 -0.00665196 0)
(0.0486781 -0.00664038 0)
(0.0501537 -0.00662799 0)
(0.0516265 -0.00661473 0)
(0.0530963 -0.00660058 0)
(0.054563 -0.00658548 0)
(0.0560262 -0.00656939 0)
(0.0574859 -0.00655228 0)
(0.0589416 -0.0065341 0)
(0.0603933 -0.00651481 0)
(0.0618407 -0.00649437 0)
(0.0632834 -0.00647273 0)
(0.0647213 -0.00644984 0)
(0.066154 -0.00642568 0)
(0.0675812 -0.00640018 0)
(0.0690027 -0.00637332 0)
(0.0704181 -0.00634504 0)
(0.0718272 -0.00631531 0)
(0.0732295 -0.00628408 0)
(0.0746248 -0.00625131 0)
(0.0760128 -0.00621696 0)
(0.0773929 -0.00618099 0)
(0.078765 -0.00614336 0)
(0.0801285 -0.00610403 0)
(0.0814832 -0.00606297 0)
(0.0828286 -0.00602014 0)
(0.0841644 -0.00597551 0)
(0.08549 -0.00592903 0)
(0.0868052 -0.00588069 0)
(0.0881095 -0.00583046 0)
(0.0894024 -0.00577829 0)
(0.0906836 -0.00572418 0)
(0.0919526 -0.00566809 0)
(0.0932089 -0.00561 0)
(0.0944521 -0.00554989 0)
(0.0956818 -0.00548775 0)
(0.0968974 -0.00542357 0)
(0.0980986 -0.00535732 0)
(0.0992848 -0.00528901 0)
(0.100456 -0.00521862 0)
(0.101611 -0.00514615 0)
(0.102749 -0.0050716 0)
(0.103871 -0.00499497 0)
(0.104976 -0.00491627 0)
(0.106062 -0.0048355 0)
(0.107131 -0.00475268 0)
(0.108181 -0.00466783 0)
(0.109212 -0.00458095 0)
(0.110223 -0.00449208 0)
(0.111214 -0.00440123 0)
(0.112185 -0.00430844 0)
(0.113135 -0.00421373 0)
(0.114064 -0.00411714 0)
(0.114971 -0.0040187 0)
(0.115855 -0.00391846 0)
(0.116717 -0.00381646 0)
(0.117557 -0.00371275 0)
(0.118373 -0.00360737 0)
(0.119165 -0.00350038 0)
(0.119933 -0.00339184 0)
(0.120677 -0.0032818 0)
(0.121396 -0.00317032 0)
(0.12209 -0.00305747 0)
(0.122759 -0.00294331 0)
(0.123402 -0.00282791 0)
(0.124019 -0.00271134 0)
(0.124611 -0.00259368 0)
(0.125175 -0.00247499 0)
(0.125714 -0.00235535 0)
(0.126225 -0.00223484 0)
(0.126709 -0.00211353 0)
(0.127166 -0.00199152 0)
(0.127596 -0.00186887 0)
(0.127999 -0.00174566 0)
(0.128374 -0.00162199 0)
(0.128721 -0.00149793 0)
(0.12904 -0.00137356 0)
(0.129332 -0.00124898 0)
(0.129596 -0.00112425 0)
(0.129832 -0.000999465 0)
(0.13004 -0.000874706 0)
(0.13022 -0.000750053 0)
(0.130373 -0.000625587 0)
(0.130497 -0.000501387 0)
(0.130594 -0.000377533 0)
(0.130664 -0.000254102 0)
(0.130706 -0.00013117 0)
(0.13072 -8.81064e-06 0)
(0.130708 0.000112902 0)
(0.130668 0.000233897 0)
(0.130601 0.000354106 0)
(0.130508 0.000473461 0)
(0.130388 0.000591896 0)
(0.130242 0.00070935 0)
(0.13007 0.00082576 0)
(0.129872 0.00094107 0)
(0.129648 0.00105522 0)