/*--------------------------------*- C++ -*----------------------------------*\
| =========                 |                                                 |
| \\      /  F ield         | OpenFOAM: The Open Source CFD Toolbox           |
|  \\    /   O peration     | Version:  v2012                                 |
|   \\  /    A nd           | Website:  www.openfoam.com                      |
|    \\/     M anipulation  |                                                 |
\*---------------------------------------------------------------------------*/
FoamFile
{
    version     2.0;
    format      ascii;
    class       volScalarField;
    location    "7";
    object      W;
}
// * * * * * * * * * * * * * * * * * * * * * * * * * * * * * * * * * * * * * //

dimensions      [0 0 -1 0 0 0 0];


internalField   nonuniform List<scalar> 
65536
(
5.45275e-20
1.65772e-19
2.83678e-19
4.12988e-19
5.58879e-19
7.2714e-19
9.24377e-19
1.15824e-18
1.43766e-18
1.77315e-18
2.17713e-18
2.6643e-18
3.25207e-18
3.96112e-18
4.81593e-18
5.84554e-18
7.08429e-18
8.57282e-18
1.03591e-17
1.24997e-17
1.50612e-17
1.8122e-17
2.17738e-17
2.61243e-17
3.12994e-17
3.74459e-17
4.47351e-17
5.3366e-17
6.35699e-17
7.56146e-17
8.98099e-17
1.06513e-16
1.26137e-16
1.49156e-16
1.76112e-16
2.07629e-16
2.4442e-16
2.87297e-16
3.37185e-16
3.95136e-16
4.6234e-16
5.40146e-16
6.30077e-16
7.33848e-16
8.53386e-16
9.90854e-16
1.14867e-15
1.32954e-15
1.53647e-15
1.7728e-15
2.04224e-15
2.34889e-15
2.69728e-15
3.09238e-15
3.53965e-15
4.04508e-15
4.61518e-15
5.25707e-15
5.97847e-15
6.78771e-15
7.69381e-15
8.70646e-15
9.83607e-15
1.10937e-14
1.24913e-14
1.40414e-14
1.57572e-14
1.76528e-14
1.97428e-14
2.20427e-14
2.45683e-14
2.73362e-14
3.03634e-14
3.36673e-14
3.72656e-14
4.11764e-14
4.54175e-14
5.00068e-14
5.49622e-14
6.03007e-14
6.60391e-14
7.2193e-14
7.87774e-14
8.58055e-14
9.32893e-14
1.01239e-13
1.09662e-13
1.18564e-13
1.27948e-13
1.37814e-13
1.48158e-13
1.58973e-13
1.7025e-13
1.81972e-13
1.9412e-13
2.06672e-13
2.19598e-13
2.32866e-13
2.46438e-13
2.6027e-13
2.74314e-13
2.88519e-13
3.02826e-13
3.17172e-13
3.31493e-13
3.45717e-13
3.59771e-13
3.73577e-13
3.87055e-13
4.00125e-13
4.12704e-13
4.24707e-13
4.36053e-13
4.46659e-13
4.56445e-13
4.65334e-13
4.73253e-13
4.80133e-13
4.85911e-13
4.90531e-13
4.93944e-13
4.96108e-13
4.96992e-13
4.96571e-13
4.94835e-13
4.9178e-13
4.87414e-13
4.81757e-13
4.74838e-13
4.66699e-13
4.5739e-13
4.46974e-13
4.3552e-13
4.23109e-13
4.0983e-13
3.95776e-13
3.81049e-13
3.65756e-13
3.50006e-13
3.33912e-13
3.17588e-13
3.01149e-13
2.84708e-13
2.68375e-13
2.52259e-13
2.36462e-13
2.21082e-13
2.06211e-13
1.91933e-13
1.78324e-13
1.65453e-13
1.53381e-13
1.42158e-13
1.31826e-13
1.22419e-13
1.1396e-13
1.06465e-13
9.99404e-14
9.43837e-14
8.97847e-14
8.61251e-14
8.3379e-14
8.15132e-14
8.04876e-14
8.02555e-14
8.07639e-14
8.19541e-14
8.37619e-14
8.61183e-14
8.89496e-14
9.21783e-14
9.57237e-14
9.95025e-14
1.0343e-13
1.07419e-13
1.11385e-13
1.15243e-13
1.1891e-13
1.22308e-13
1.25361e-13
1.28002e-13
1.3017e-13
1.3181e-13
1.32879e-13
1.33342e-13
1.33176e-13
1.32367e-13
1.30914e-13
1.28827e-13
1.26126e-13
1.22842e-13
1.19016e-13
1.14697e-13
1.0994e-13
1.04808e-13
9.93676e-14
9.3687e-14
8.78368e-14
8.1887e-14
7.59053e-14
6.99565e-14
6.41005e-14
5.83919e-14
5.28788e-14
4.76025e-14
4.25969e-14
3.78885e-14
3.34965e-14
2.94333e-14
2.57044e-14
2.23093e-14
1.92425e-14
1.64936e-14
1.40487e-14
1.18905e-14
1e-14
8.35643e-15
6.93817e-15
5.72348e-15
4.69087e-15
3.81954e-15
3.08974e-15
2.48297e-15
1.98221e-15
1.57198e-15
1.23836e-15
9.69047e-16
7.53229e-16
5.81547e-16
4.45973e-16
3.39695e-16
2.56991e-16
1.93102e-16
1.44108e-16
1.0681e-16
7.8624e-17
5.74789e-17
4.17317e-17
3.009e-17
2.15462e-17
1.53217e-17
1.08199e-17
7.58786e-18
5.2843e-18
3.65446e-18
2.50967e-18
1.7114e-18
1.15873e-18
7.78784e-19
5.19276e-19
3.43002e-19
2.23624e-19
1.4255e-19
8.66096e-20
4.63148e-20
1.45375e-20
1.84896e-19
5.62099e-19
9.61868e-19
1.40026e-18
1.89481e-18
2.46512e-18
3.13354e-18
3.92596e-18
4.87262e-18
6.0091e-18
7.37737e-18
9.02717e-18
1.10174e-17
1.34179e-17
1.63115e-17
1.97963e-17
2.39884e-17
2.9025e-17
3.50681e-17
4.23088e-17
5.0972e-17
6.13217e-17
7.36681e-17
8.83742e-17
1.05864e-16
1.26634e-16
1.5126e-16
1.80414e-16
2.14874e-16
2.55542e-16
3.03461e-16
3.59835e-16
4.2605e-16
5.037e-16
5.94614e-16
7.00884e-16
8.24903e-16
9.69399e-16
1.13748e-15
1.33266e-15
1.55895e-15
1.82086e-15
2.12348e-15
2.47257e-15
2.87457e-15
3.3367e-15
3.86706e-15
4.47467e-15
5.16955e-15
5.96288e-15
6.867e-15
7.89556e-15
9.06361e-15
1.03877e-14
1.1886e-14
1.35783e-14
1.54862e-14
1.76334e-14
2.00453e-14
2.27495e-14
2.57758e-14
2.91562e-14
3.29249e-14
3.71185e-14
4.17759e-14
4.69384e-14
5.26494e-14
5.89547e-14
6.59025e-14
7.35427e-14
8.19272e-14
9.11098e-14
1.01146e-13
1.12091e-13
1.24003e-13
1.36939e-13
1.50957e-13
1.66115e-13
1.82468e-13
2.00072e-13
2.18978e-13
2.39236e-13
2.60892e-13
2.83988e-13
3.08558e-13
3.34633e-13
3.62236e-13
3.9138e-13
4.22073e-13
4.54308e-13
4.88072e-13
5.23338e-13
5.60067e-13
5.98206e-13
6.37688e-13
6.78434e-13
7.20346e-13
7.63313e-13
8.07209e-13
8.51889e-13
8.97195e-13
9.42954e-13
9.88976e-13
1.03506e-12
1.08098e-12
1.12652e-12
1.17143e-12
1.21547e-12
1.25837e-12
1.29989e-12
1.33974e-12
1.37767e-12
1.41341e-12
1.4467e-12
1.47729e-12
1.50493e-12
1.5294e-12
1.55048e-12
1.56798e-12
1.58172e-12
1.59156e-12
1.59737e-12
1.59905e-12
1.59654e-12
1.58982e-12
1.57888e-12
1.56376e-12
1.54452e-12
1.52128e-12
1.49417e-12
1.46337e-12
1.42907e-12
1.39151e-12
1.35096e-12
1.30769e-12
1.26202e-12
1.21428e-12
1.16479e-12
1.11393e-12
1.06204e-12
1.00949e-12
9.56648e-13
9.03868e-13
8.51502e-13
7.99888e-13
7.49353e-13
7.00201e-13
6.52719e-13
6.07169e-13
5.63792e-13
5.22797e-13
4.8437e-13
4.48668e-13
4.15819e-13
3.85921e-13
3.59045e-13
3.35235e-13
3.14504e-13
2.96842e-13
2.82211e-13
2.70549e-13
2.61771e-13
2.55768e-13
2.52411e-13
2.5155e-13
2.53014e-13
2.56619e-13
2.62159e-13
2.69416e-13
2.78159e-13
2.88142e-13
2.99113e-13
3.10809e-13
3.22965e-13
3.35312e-13
3.47581e-13
3.59508e-13
3.70837e-13
3.81321e-13
3.9073e-13
3.98852e-13
4.05496e-13
4.10496e-13
4.13718e-13
4.15054e-13
4.14432e-13
4.11814e-13
4.07197e-13
4.00612e-13
3.92124e-13
3.8183e-13
3.69856e-13
3.56357e-13
3.41506e-13
3.25498e-13
3.08539e-13
2.90843e-13
2.72629e-13
2.54114e-13
2.35508e-13
2.17012e-13
1.98812e-13
1.81075e-13
1.63951e-13
1.47568e-13
1.3203e-13
1.17418e-13
1.03791e-13
9.11879e-14
7.96238e-14
6.90975e-14
5.95908e-14
5.10713e-14
4.34951e-14
3.6809e-14
3.09529e-14
2.58625e-14
2.14707e-14
1.77098e-14
1.45132e-14
1.18162e-14
9.5575e-15
7.67987e-15
6.13046e-15
4.86129e-15
3.82928e-15
2.99626e-15
2.32878e-15
1.79785e-15
1.37863e-15
1.05002e-15
7.94328e-16
5.96819e-16
4.45367e-16
3.30081e-16
2.42963e-16
1.77612e-16
1.28947e-16
9.29713e-17
6.65703e-17
4.7337e-17
3.34275e-17
2.34416e-17
1.63246e-17
1.12893e-17
7.75268e-18
5.28662e-18
3.57935e-18
2.40564e-18
1.60401e-18
1.0595e-18
6.90752e-19
4.40321e-19
2.67528e-19
1.43063e-19
4.49063e-20
3.86785e-19
1.17583e-18
2.01199e-18
2.92879e-18
3.9628e-18
5.15492e-18
6.5518e-18
8.20741e-18
1.01848e-17
1.2558e-17
1.54147e-17
1.88582e-17
2.30113e-17
2.80194e-17
3.40547e-17
4.13212e-17
5.00604e-17
6.05573e-17
7.31488e-17
8.82314e-17
1.06272e-16
1.27819e-16
1.53515e-16
1.84113e-16
2.20493e-16
2.6368e-16
3.14869e-16
3.75449e-16
4.47031e-16
5.31477e-16
6.30945e-16
7.47918e-16
8.85256e-16
1.04625e-15
1.23466e-15
1.4548e-15
1.71159e-15
2.01065e-15
2.35834e-15
2.76192e-15
3.22956e-15
3.77054e-15
4.39529e-15
5.11555e-15
5.94449e-15
6.89688e-15
7.9892e-15
9.23982e-15
1.06692e-14
1.22999e-14
1.41571e-14
1.62684e-14
1.86643e-14
2.13782e-14
2.44466e-14
2.79097e-14
3.18109e-14
3.61975e-14
4.11206e-14
4.66354e-14
5.28015e-14
5.96824e-14
6.73462e-14
7.58656e-14
8.53175e-14
9.57833e-14
1.07349e-13
1.20104e-13
1.34142e-13
1.49562e-13
1.66464e-13
1.84952e-13
2.05133e-13
2.27114e-13
2.51006e-13
2.76918e-13
3.04959e-13
3.35236e-13
3.67855e-13
4.02916e-13
4.40516e-13
4.80744e-13
5.23681e-13
5.69399e-13
6.17957e-13
6.69404e-13
7.23773e-13
7.81079e-13
8.41322e-13
9.0448e-13
9.7051e-13
1.03935e-12
1.1109e-12
1.18505e-12
1.26166e-12
1.34055e-12
1.42152e-12
1.50435e-12
1.58878e-12
1.67451e-12
1.76123e-12
1.84858e-12
1.93621e-12
2.0237e-12
2.11064e-12
2.19657e-12
2.28104e-12
2.36357e-12
2.44367e-12
2.52084e-12
2.59458e-12
2.66439e-12
2.72978e-12
2.79027e-12
2.84538e-12
2.89468e-12
2.93776e-12
2.97422e-12
3.00373e-12
3.02598e-12
3.04071e-12
3.04773e-12
3.04689e-12
3.0381e-12
3.02133e-12
2.99661e-12
2.96405e-12
2.92382e-12
2.87613e-12
2.82128e-12
2.75963e-12
2.69157e-12
2.61758e-12
2.53816e-12
2.45387e-12
2.3653e-12
2.27308e-12
2.17786e-12
2.0803e-12
1.98108e-12
1.88088e-12
1.78038e-12
1.68024e-12
1.58111e-12
1.48361e-12
1.38834e-12
1.29585e-12
1.20665e-12
1.12122e-12
1.03999e-12
9.63322e-13
8.91549e-13
8.24939e-13
7.63708e-13
7.08022e-13
6.57991e-13
6.13675e-13
5.75087e-13
5.42186e-13
5.14889e-13
4.93067e-13
4.76549e-13
4.65123e-13
4.58541e-13
4.56518e-13
4.58736e-13
4.64845e-13
4.74468e-13
4.87201e-13
5.02617e-13
5.2027e-13
5.39696e-13
5.60421e-13
5.81961e-13
6.0383e-13
6.25545e-13
6.46631e-13
6.66628e-13
6.85095e-13
7.0162e-13
7.15826e-13
7.27373e-13
7.35972e-13
7.4138e-13
7.43414e-13
7.41949e-13
7.3692e-13
7.28326e-13
7.16227e-13
7.00745e-13
6.82057e-13
6.60392e-13
6.36027e-13
6.09277e-13
5.80488e-13
5.50031e-13
5.1829e-13
4.85653e-13
4.52508e-13
4.19229e-13
3.86171e-13
3.53664e-13
3.22007e-13
2.91463e-13
2.62256e-13
2.3457e-13
2.08548e-13
1.84292e-13
1.61868e-13
1.41302e-13
1.22589e-13
1.05695e-13
9.05618e-14
7.71085e-14
6.52398e-14
5.4848e-14
4.58177e-14
3.80291e-14
3.13613e-14
2.56953e-14
2.09162e-14
1.69149e-14
1.35894e-14
1.08459e-14
8.59905e-15
6.77246e-15
5.29836e-15
4.11743e-15
3.17827e-15
2.43683e-15
1.85576e-15
1.40369e-15
1.05454e-15
7.86847e-16
5.83106e-16
4.29166e-16
3.13702e-16
2.27729e-16
1.6418e-16
1.17549e-16
8.35817e-17
5.90184e-17
4.13852e-17
2.8819e-17
1.99289e-17
1.36851e-17
9.33167e-18
6.3179e-18
4.24609e-18
2.83111e-18
1.87001e-18
1.21916e-18
7.7715e-19
4.72176e-19
2.52501e-19
7.92592e-20
7.3555e-19
2.23601e-18
3.82584e-18
5.56863e-18
7.53372e-18
9.79865e-18
1.24518e-17
1.55954e-17
1.93489e-17
2.38524e-17
2.92716e-17
3.58023e-17
4.36764e-17
5.31685e-17
6.46042e-17
7.83687e-17
9.49175e-17
1.14789e-16
1.38617e-16
1.67151e-16
2.01268e-16
2.42003e-16
2.90565e-16
3.48369e-16
4.17069e-16
4.98594e-16
5.95186e-16
7.0945e-16
8.44407e-16
1.00355e-15
1.19092e-15
1.41115e-15
1.66961e-15
1.97243e-15
2.32664e-15
2.74028e-15
3.22253e-15
3.78382e-15
4.43603e-15
5.19259e-15
6.06872e-15
7.08159e-15
8.25051e-15
9.5972e-15
1.1146e-14
1.29242e-14
1.4962e-14
1.72934e-14
1.99558e-14
2.29908e-14
2.64442e-14
3.03667e-14
3.48139e-14
3.98466e-14
4.55313e-14
5.19407e-14
5.91535e-14
6.72551e-14
7.63377e-14
8.65007e-14
9.78505e-14
1.10501e-13
1.24574e-13
1.40199e-13
1.57511e-13
1.76655e-13
1.97782e-13
2.2105e-13
2.46622e-13
2.74669e-13
3.05366e-13
3.38892e-13
3.7543e-13
4.15164e-13
4.5828e-13
5.04961e-13
5.55391e-13
6.09746e-13
6.68198e-13
7.30911e-13
7.98037e-13
8.69713e-13
9.46065e-13
1.02719e-12
1.11319e-12
1.2041e-12
1.29997e-12
1.40079e-12
1.50653e-12
1.61713e-12
1.73248e-12
1.85244e-12
1.97682e-12
2.10538e-12
2.23784e-12
2.37387e-12
2.5131e-12
2.6551e-12
2.7994e-12
2.94546e-12
3.09272e-12
3.24056e-12
3.38831e-12
3.53528e-12
3.68074e-12
3.82391e-12
3.964e-12
4.10019e-12
4.23166e-12
4.35757e-12
4.4771e-12
4.5894e-12
4.69369e-12
4.78916e-12
4.87509e-12
4.95076e-12
5.01552e-12
5.06878e-12
5.11002e-12
5.13879e-12
5.15473e-12
5.15758e-12
5.14714e-12
5.12336e-12
5.08624e-12
5.03594e-12
4.97267e-12
4.8968e-12
4.80875e-12
4.7091e-12
4.59846e-12
4.47759e-12
4.3473e-12
4.20849e-12
4.0621e-12
3.90916e-12
3.75072e-12
3.58788e-12
3.42175e-12
3.25345e-12
3.0841e-12
2.91482e-12
2.74667e-12
2.5807e-12
2.41792e-12
2.25926e-12
2.10561e-12
1.95777e-12
1.81649e-12
1.6824e-12
1.55609e-12
1.43803e-12
1.32862e-12
1.22818e-12
1.13693e-12
1.055e-12
9.82462e-13
9.19282e-13
8.65366e-13
8.20542e-13
7.84571e-13
7.57148e-13
7.37906e-13
7.26422e-13
7.22216e-13
7.24763e-13
7.33487e-13
7.47772e-13
7.66965e-13
7.90379e-13
8.17299e-13
8.46986e-13
8.78688e-13
9.11642e-13
9.45082e-13
9.78251e-13
1.01041e-12
1.04083e-12
1.06884e-12
1.09381e-12
1.11514e-12
1.13231e-12
1.1449e-12
1.15252e-12
1.15491e-12
1.15187e-12
1.14332e-12
1.12927e-12
1.10983e-12
1.08518e-12
1.05561e-12
1.02148e-12
9.83228e-13
9.41347e-13
8.96375e-13
8.48887e-13
7.99478e-13
7.4875e-13
6.97298e-13
6.45698e-13
5.94495e-13
5.44197e-13
4.95257e-13
4.48078e-13
4.03e-13
3.60302e-13
3.20199e-13
2.82843e-13
2.48329e-13
2.16694e-13
1.87927e-13
1.6197e-13
1.3873e-13
1.18081e-13
9.98723e-14
8.3937e-14
7.00955e-14
5.81622e-14
4.79503e-14
3.92761e-14
3.19624e-14
2.58411e-14
2.07554e-14
1.65611e-14
1.31272e-14
1.03364e-14
8.08483e-15
6.28153e-15
4.84779e-15
3.71617e-15
2.82952e-15
2.13987e-15
1.60734e-15
1.19914e-15
8.88509e-16
6.53853e-16
4.77878e-16
3.46868e-16
2.50045e-16
1.79008e-16
1.27268e-16
8.98583e-17
6.30058e-17
4.38715e-17
3.0336e-17
2.08305e-17
1.42032e-17
9.61572e-18
6.46223e-18
4.30861e-18
2.84588e-18
1.85535e-18
1.18268e-18
7.18563e-19
3.8426e-19
1.20619e-19
1.35715e-18
4.12546e-18
7.05823e-18
1.02724e-17
1.38956e-17
1.80704e-17
2.29592e-17
2.87499e-17
3.56617e-17
4.39521e-17
5.3925e-17
6.59395e-17
8.04209e-17
9.78726e-17
1.18891e-16
1.44181e-16
1.74577e-16
2.11064e-16
2.54801e-16
3.07157e-16
3.69736e-16
4.44424e-16
5.3343e-16
6.39334e-16
7.65151e-16
9.14393e-16
1.09114e-15
1.30014e-15
1.54687e-15
1.83768e-15
2.17989e-15
2.58195e-15
3.05354e-15
3.60577e-15
4.25137e-15
5.00486e-15
5.88281e-15
6.90405e-15
8.08995e-15
9.4647e-15
1.10557e-14
1.28936e-14
1.50132e-14
1.74534e-14
2.02577e-14
2.34747e-14
2.71585e-14
3.13693e-14
3.61738e-14
4.16457e-14
4.78664e-14
5.49252e-14
6.29202e-14
7.19587e-14
8.21575e-14
9.36439e-14
1.06556e-13
1.21042e-13
1.37263e-13
1.55391e-13
1.75611e-13
1.9812e-13
2.23126e-13
2.5085e-13
2.81527e-13
3.154e-13
3.52727e-13
3.93772e-13
4.38813e-13
4.88134e-13
5.42025e-13
6.00784e-13
6.64709e-13
7.34103e-13
8.09265e-13
8.90492e-13
9.78071e-13
1.07228e-12
1.17339e-12
1.28165e-12
1.39727e-12
1.52047e-12
1.65142e-12
1.79024e-12
1.93704e-12
2.09186e-12
2.25473e-12
2.42558e-12
2.60431e-12
2.79075e-12
2.98468e-12
3.18578e-12
3.39369e-12
3.60796e-12
3.82806e-12
4.05338e-12
4.28324e-12
4.51688e-12
4.75346e-12
4.99206e-12
5.23169e-12
5.4713e-12
5.70977e-12
5.94591e-12
6.1785e-12
6.40626e-12
6.6279e-12
6.84209e-12
7.04749e-12
7.24277e-12
7.42659e-12
7.59768e-12
7.75476e-12
7.89665e-12
8.0222e-12
8.13036e-12
8.22017e-12
8.29079e-12
8.34148e-12
8.37164e-12
8.38082e-12
8.36871e-12
8.33515e-12
8.28016e-12
8.20391e-12
8.10674e-12
7.98918e-12
7.85189e-12
7.6957e-12
7.52161e-12
7.33075e-12
7.12439e-12
6.90391e-12
6.6708e-12
6.42665e-12
6.17313e-12
5.91194e-12
5.64485e-12
5.37362e-12
5.10003e-12
4.82584e-12
4.55277e-12
4.2825e-12
4.01661e-12
3.75664e-12
3.504e-12
3.26e-12
3.02585e-12
2.80262e-12
2.59125e-12
2.39255e-12
2.20719e-12
2.03571e-12
1.87851e-12
1.73586e-12
1.6079e-12
1.49465e-12
1.39599e-12
1.31172e-12
1.2415e-12
1.18491e-12
1.14143e-12
1.11045e-12
1.09129e-12
1.08316e-12
1.08525e-12
1.09664e-12
1.11638e-12
1.14346e-12
1.17684e-12
1.21542e-12
1.25809e-12
1.30371e-12
1.35114e-12
1.39925e-12
1.4469e-12
1.493e-12
1.53651e-12
1.5764e-12
1.61176e-12
1.64175e-12
1.6656e-12
1.68269e-12
1.69249e-12
1.69462e-12
1.68882e-12
1.67498e-12
1.65313e-12
1.62345e-12
1.58622e-12
1.54188e-12
1.49098e-12
1.43415e-12
1.37213e-12
1.3057e-12
1.23572e-12
1.16306e-12
1.08858e-12
1.01315e-12
9.37615e-13
8.62758e-13
7.8931e-13
7.17925e-13
6.49179e-13
5.83559e-13
5.21458e-13
4.63182e-13
4.08943e-13
3.58868e-13
3.13005e-13
2.71327e-13
2.33747e-13
2.00122e-13
1.70263e-13
1.43949e-13
1.20933e-13
1.00952e-13
8.37344e-14
6.90078e-14
5.65046e-14
4.59673e-14
3.71518e-14
2.98308e-14
2.37953e-14
1.8856e-14
1.48431e-14
1.16067e-14
9.01559e-15
6.9561e-15
5.3311e-15
4.05823e-15
3.06845e-15
2.30437e-15
1.71882e-15
1.27334e-15
9.36892e-16
6.84631e-16
4.96867e-16
3.58124e-16
2.56348e-16
1.82233e-16
1.28652e-16
9.01978e-17
6.27998e-17
4.34209e-17
2.98132e-17
2.03268e-17
1.37607e-17
9.24746e-18
6.16542e-18
4.07221e-18
2.65479e-18
1.69226e-18
1.02817e-18
5.49824e-19
1.7259e-19
2.46919e-18
7.50558e-18
1.28404e-17
1.86858e-17
2.52732e-17
3.28612e-17
4.17441e-17
5.22623e-17
6.48129e-17
7.98621e-17
9.79596e-17
1.19755e-16
1.46018e-16
1.77657e-16
2.1575e-16
2.61571e-16
3.16625e-16
3.82688e-16
4.61852e-16
5.56581e-16
6.69769e-16
8.04808e-16
9.65673e-16
1.15701e-15
1.38422e-15
1.65363e-15
1.97255e-15
2.3495e-15
2.7943e-15
3.31833e-15
3.93469e-15
4.65845e-15
5.50695e-15
6.50001e-15
7.66033e-15
9.01379e-15
1.05899e-14
1.24221e-14
1.45483e-14
1.70116e-14
1.98603e-14
2.3149e-14
2.69389e-14
3.12987e-14
3.63052e-14
4.20438e-14
4.86098e-14
5.61086e-14
6.46573e-14
7.43846e-14
8.54325e-14
9.79567e-14
1.12128e-13
1.28132e-13
1.46171e-13
1.66465e-13
1.89252e-13
2.14787e-13
2.43346e-13
2.75223e-13
3.10732e-13
3.50209e-13
3.94005e-13
4.42496e-13
4.96072e-13
5.55144e-13
6.20138e-13
6.91497e-13
7.69676e-13
8.55141e-13
9.48369e-13
1.04984e-12
1.16003e-12
1.27944e-12
1.40852e-12
1.54775e-12
1.69757e-12
1.8584e-12
2.03065e-12
2.21468e-12
2.41081e-12
2.61931e-12
2.8404e-12
3.07424e-12
3.32091e-12
3.58043e-12
3.8527e-12
4.13758e-12
4.43479e-12
4.74395e-12
5.0646e-12
5.39613e-12
5.73784e-12
6.08888e-12
6.44829e-12
6.81499e-12
7.18777e-12
7.5653e-12
7.94611e-12
8.32866e-12
8.71126e-12
9.09214e-12
9.46943e-12
9.84119e-12
1.02054e-11
1.056e-11
1.0903e-11
1.12321e-11
1.15453e-11
1.18406e-11
1.21158e-11
1.23689e-11
1.25982e-11
1.28017e-11
1.29778e-11
1.3125e-11
1.32419e-11
1.33275e-11
1.33806e-11
1.34006e-11
1.3387e-11
1.33394e-11
1.32579e-11
1.31428e-11
1.29944e-11
1.28137e-11
1.26015e-11
1.23592e-11
1.20883e-11
1.17904e-11
1.14677e-11
1.11221e-11
1.07559e-11
1.03717e-11
9.97203e-12
9.55948e-12
9.1368e-12
8.70675e-12
8.2721e-12
7.8356e-12
7.39994e-12
6.96774e-12
6.54151e-12
6.12365e-12
5.71641e-12
5.32187e-12
4.94194e-12
4.57834e-12
4.23259e-12
3.906e-12
3.59967e-12
3.3145e-12
3.05116e-12
2.81013e-12
2.5917e-12
2.39594e-12
2.22276e-12
2.07188e-12
1.94286e-12
1.83513e-12
1.74793e-12
1.68042e-12
1.63158e-12
1.60034e-12
1.58547e-12
1.58569e-12
1.59961e-12
1.62578e-12
1.66268e-12
1.70873e-12
1.76232e-12
1.82179e-12
1.8855e-12
1.95175e-12
2.01891e-12
2.08534e-12
2.14946e-12
2.20976e-12
2.26481e-12
2.3133e-12
2.35403e-12
2.38595e-12
2.40816e-12
2.41996e-12
2.42081e-12
2.41039e-12
2.38856e-12
2.3554e-12
2.31116e-12
2.2563e-12
2.19146e-12
2.11744e-12
2.03515e-12
1.94565e-12
1.85008e-12
1.74965e-12
1.64557e-12
1.53911e-12
1.43148e-12
1.32387e-12
1.21737e-12
1.11302e-12
1.01172e-12
9.14275e-13
8.21363e-13
7.33526e-13
6.51176e-13
5.74601e-13
5.03967e-13
4.39326e-13
3.80632e-13
3.27748e-13
2.80462e-13
2.38503e-13
2.01549e-13
1.69248e-13
1.41222e-13
1.17087e-13
9.64554e-14
7.8948e-14
6.42008e-14
5.18694e-14
4.16334e-14
3.31986e-14
2.62987e-14
2.06954e-14
1.61781e-14
1.25627e-14
9.69024e-15
7.42454e-15
5.65041e-15
4.27126e-15
3.20693e-15
2.39152e-15
1.77133e-15
1.30305e-15
9.52023e-16
6.90807e-16
4.9783e-16
3.56299e-16
2.53251e-16
1.78767e-16
1.25319e-16
8.72436e-17
6.03162e-17
4.14103e-17
2.82318e-17
1.9111e-17
1.28423e-17
8.56178e-18
5.65481e-18
3.68646e-18
2.34985e-18
1.42769e-18
7.63475e-19
2.39656e-19
4.44946e-18
1.35246e-17
2.31359e-17
3.3665e-17
4.55274e-17
5.91875e-17
7.51739e-17
9.40975e-17
1.1667e-16
1.43729e-16
1.76258e-16
2.15423e-16
2.626e-16
3.19418e-16
3.87806e-16
4.70041e-16
5.68815e-16
6.87302e-16
8.29241e-16
9.99029e-16
1.20183e-15
1.4437e-15
1.73172e-15
2.07415e-15
2.48066e-15
2.96245e-15
3.53256e-15
4.20609e-15
5.00052e-15
5.93603e-15
7.03584e-15
8.32668e-15
9.83921e-15
1.16085e-14
1.36747e-14
1.60835e-14
1.88868e-14
2.21438e-14
2.59211e-14
3.02943e-14
3.53484e-14
4.11792e-14
4.78938e-14
5.56125e-14
6.44692e-14
7.46132e-14
8.62102e-14
9.94438e-14
1.14517e-13
1.31653e-13
1.51097e-13
1.73118e-13
1.9801e-13
2.26093e-13
2.57714e-13
2.93249e-13
3.33103e-13
3.77712e-13
4.27544e-13
4.83097e-13
5.44902e-13
6.13521e-13
6.89547e-13
7.73604e-13
8.66343e-13
9.68445e-13
1.08061e-12
1.20357e-12
1.33807e-12
1.48486e-12
1.6447e-12
1.81838e-12
2.00666e-12
2.21028e-12
2.43e-12
2.66653e-12
2.92055e-12
3.19268e-12
3.48352e-12
3.79357e-12
4.12326e-12
4.47296e-12
4.84291e-12
5.23325e-12
5.64399e-12
6.07501e-12
6.52605e-12
6.99669e-12
7.48633e-12
7.99423e-12
8.51944e-12
9.06083e-12
9.61707e-12
1.01866e-11
1.07678e-11
1.13587e-11
1.19573e-11
1.25611e-11
1.31677e-11
1.37746e-11
1.43789e-11
1.49776e-11
1.55677e-11
1.61461e-11
1.67095e-11
1.72547e-11
1.77782e-11
1.82769e-11
1.87473e-11
1.91864e-11
1.9591e-11
1.9958e-11
2.02848e-11
2.05686e-11
2.08071e-11
2.09982e-11
2.11399e-11
2.12309e-11
2.12698e-11
2.12559e-11
2.11887e-11
2.10682e-11
2.08947e-11
2.06689e-11
2.03919e-11
2.00654e-11
1.96912e-11
1.92716e-11
1.88093e-11
1.83072e-11
1.77686e-11
1.71971e-11
1.65963e-11
1.59703e-11
1.53232e-11
1.46591e-11
1.39823e-11
1.32971e-11
1.26077e-11
1.19184e-11
1.12332e-11
1.05561e-11
9.89069e-12
9.24061e-12
8.60911e-12
7.9992e-12
7.4136e-12
6.85473e-12
6.32467e-12
5.82522e-12
5.35781e-12
4.92359e-12
4.52337e-12
4.15765e-12
3.82665e-12
3.53031e-12
3.26828e-12
3.03998e-12
2.84458e-12
2.68106e-12
2.54817e-12
2.4445e-12
2.36847e-12
2.31834e-12
2.29225e-12
2.2882e-12
2.3041e-12
2.33777e-12
2.38693e-12
2.44926e-12
2.52238e-12
2.60389e-12
2.69137e-12
2.78241e-12
2.87463e-12
2.96571e-12
3.05341e-12
3.13558e-12
3.21021e-12
3.27548e-12
3.32969e-12
3.37142e-12
3.39943e-12
3.41275e-12
3.41069e-12
3.39282e-12
3.35899e-12
3.30935e-12
3.24431e-12
3.16454e-12
3.07096e-12
2.96473e-12
2.84716e-12
2.71974e-12
2.58409e-12
2.4419e-12
2.29489e-12
2.14481e-12
1.99336e-12
1.84218e-12
1.69279e-12
1.54662e-12
1.40491e-12
1.26876e-12
1.13909e-12
1.01663e-12
9.01941e-13
7.954e-13
6.97215e-13
6.07441e-13
5.25993e-13
4.52668e-13
3.87155e-13
3.29065e-13
2.77941e-13
2.33284e-13
1.94564e-13
1.61239e-13
1.32769e-13
1.08624e-13
8.82971e-14
7.13091e-14
5.72148e-14
4.56064e-14
3.61148e-14
2.84103e-14
2.22017e-14
1.72348e-14
1.329e-14
1.01797e-14
7.7451e-15
5.85315e-15
4.39355e-15
3.27564e-15
2.42563e-15
1.784e-15
1.30316e-15
9.45421e-16
6.81199e-16
4.87459e-16
3.46426e-16
2.44504e-16
1.71381e-16
1.19297e-16
8.24683e-17
5.66137e-17
3.85938e-17
2.61236e-17
1.75537e-17
1.17023e-17
7.72876e-18
5.03838e-18
3.21156e-18
1.95122e-18
1.04344e-18
3.27537e-19
7.95096e-18
2.41669e-17
4.13387e-17
6.01461e-17
8.13298e-17
1.05717e-16
1.34249e-16
1.68012e-16
2.08276e-16
2.56525e-16
3.14514e-16
3.8431e-16
4.68361e-16
5.6956e-16
6.91329e-16
8.37711e-16
1.01348e-15
1.22426e-15
1.47668e-15
1.77854e-15
2.13896e-15
2.56867e-15
3.08018e-15
3.68813e-15
4.40954e-15
5.26424e-15
6.27521e-15
7.4691e-15
8.87668e-15
1.05335e-14
1.24804e-14
1.47644e-14
1.74394e-14
2.05669e-14
2.42173e-14
2.84706e-14
3.34179e-14
3.91624e-14
4.58206e-14
5.35245e-14
6.24222e-14
7.26802e-14
8.44852e-14
9.80456e-14
1.13594e-13
1.31388e-13
1.51716e-13
1.74893e-13
2.01269e-13
2.31228e-13
2.65193e-13
3.03623e-13
3.47021e-13
3.95933e-13
4.5095e-13
5.12712e-13
5.81904e-13
6.59264e-13
7.4558e-13
8.41689e-13
9.4848e-13
1.06689e-12
1.19791e-12
1.34258e-12
1.50196e-12
1.67718e-12
1.86938e-12
2.07975e-12
2.3095e-12
2.55984e-12
2.83199e-12
3.12718e-12
3.44661e-12
3.79146e-12
4.16287e-12
4.56192e-12
4.98963e-12
5.44691e-12
5.93459e-12
6.45338e-12
7.00383e-12
7.58634e-12
8.20114e-12
8.84827e-12
9.52753e-12
1.02385e-11
1.09806e-11
1.17528e-11
1.2554e-11
1.33826e-11
1.42369e-11
1.51149e-11
1.6014e-11
1.69317e-11
1.78649e-11
1.88102e-11
1.97642e-11
2.07228e-11
2.1682e-11
2.26374e-11
2.35842e-11
2.45179e-11
2.54333e-11
2.63254e-11
2.7189e-11
2.8019e-11
2.88102e-11
2.95573e-11
3.02554e-11
3.08997e-11
3.14853e-11
3.2008e-11
3.24636e-11
3.28484e-11
3.31589e-11
3.33924e-11
3.35463e-11
3.36189e-11
3.36087e-11
3.35151e-11
3.33379e-11
3.30775e-11
3.2735e-11
3.23122e-11
3.18114e-11
3.12355e-11
3.05879e-11
2.98727e-11
2.90945e-11
2.82583e-11
2.73694e-11
2.64336e-11
2.5457e-11
2.4446e-11
2.34068e-11
2.23463e-11
2.12709e-11
2.01873e-11
1.91018e-11
1.8021e-11
1.69507e-11
1.5897e-11
1.48652e-11
1.38606e-11
1.28877e-11
1.1951e-11
1.10542e-11
1.02007e-11
9.39324e-12
8.63427e-12
7.92561e-12
7.26862e-12
6.66421e-12
6.11282e-12
5.61444e-12
5.16869e-12
4.77478e-12
4.43156e-12
4.13756e-12
3.89104e-12
3.68993e-12
3.53196e-12
3.41463e-12
3.33522e-12
3.29088e-12
3.27857e-12
3.29513e-12
3.33731e-12
3.40174e-12
3.485e-12
3.58363e-12
3.69414e-12
3.81303e-12
3.93687e-12
4.06225e-12
4.18589e-12
4.30461e-12
4.41542e-12
4.51551e-12
4.60231e-12
4.67353e-12
4.72718e-12
4.7616e-12
4.77549e-12
4.76793e-12
4.73837e-12
4.68669e-12
4.61312e-12
4.51832e-12
4.40327e-12
4.26929e-12
4.11803e-12
3.95135e-12
3.77137e-12
3.58033e-12
3.38059e-12
3.17456e-12
2.96465e-12
2.75322e-12
2.54251e-12
2.33463e-12
2.1315e-12
1.93485e-12
1.74614e-12
1.56664e-12
1.3973e-12
1.23888e-12
1.09185e-12
9.56492e-13
8.32839e-13
7.20752e-13
6.19927e-13
5.29917e-13
4.50166e-13
3.80031e-13
3.1881e-13
2.65764e-13
2.2014e-13
1.81186e-13
1.48171e-13
1.20391e-13
9.7188e-14
7.79475e-14
6.21086e-14
4.91642e-14
3.8662e-14
3.02026e-14
2.34381e-14
1.80678e-14
1.38351e-14
1.05232e-14
7.95044e-15
5.96628e-15
4.44711e-15
3.29234e-15
2.4209e-15
1.76803e-15
1.28243e-15
9.23855e-16
6.60988e-16
4.69676e-16
3.31446e-16
2.3229e-16
1.61677e-16
1.11753e-16
7.67099e-17
5.22891e-17
3.53912e-17
2.37796e-17
1.58521e-17
1.04691e-17
6.82463e-18
4.35008e-18
2.64292e-18
1.41333e-18
4.43646e-19
1.40942e-17
4.28379e-17
7.32719e-17
1.06598e-16
1.44126e-16
1.87317e-16
2.37835e-16
2.97599e-16
3.68848e-16
4.54205e-16
5.56763e-16
6.80171e-16
8.28741e-16
1.00757e-15
1.2227e-15
1.48123e-15
1.79158e-15
2.16363e-15
2.60906e-15
3.14154e-15
3.77715e-15
4.5347e-15
5.43617e-15
6.50721e-15
7.77771e-15
9.28237e-15
1.10615e-14
1.31617e-14
1.56368e-14
1.85489e-14
2.19694e-14
2.59804e-14
3.06758e-14
3.61629e-14
4.25641e-14
5.00188e-14
5.86851e-14
6.87422e-14
8.03925e-14
9.38643e-14
1.09414e-13
1.2733e-13
1.47934e-13
1.71585e-13
1.98684e-13
2.29675e-13
2.6505e-13
3.05353e-13
3.51181e-13
4.0319e-13
4.62101e-13
5.28697e-13
6.03832e-13
6.88431e-13
7.83494e-13
8.90099e-13
1.0094e-12
1.14264e-12
1.29114e-12
1.45629e-12
1.63957e-12
1.84254e-12
2.06683e-12
2.31415e-12
2.58625e-12
2.88497e-12
3.21217e-12
3.56976e-12
3.95967e-12
4.38385e-12
4.84425e-12
5.34276e-12
5.88129e-12
6.46162e-12
7.0855e-12
7.75454e-12
8.47022e-12
9.23387e-12
1.00466e-11
1.09093e-11
1.18227e-11
1.27871e-11
1.38026e-11
1.4869e-11
1.59855e-11
1.71513e-11
1.83648e-11
1.96243e-11
2.09273e-11
2.22711e-11
2.36524e-11
2.50676e-11
2.65122e-11
2.79817e-11
2.94708e-11
3.09739e-11
3.24849e-11
3.39972e-11
3.5504e-11
3.69981e-11
3.84718e-11
3.99175e-11
4.13272e-11
4.26927e-11
4.40061e-11
4.5259e-11
4.64436e-11
4.75518e-11
4.85761e-11
4.95092e-11
5.03441e-11
5.10744e-11
5.16942e-11
5.21983e-11
5.2582e-11
5.28417e-11
5.29742e-11
5.29776e-11
5.28504e-11
5.25924e-11
5.22043e-11
5.16876e-11
5.10449e-11
5.02797e-11
4.93965e-11
4.84004e-11
4.72978e-11
4.60954e-11
4.4801e-11
4.34227e-11
4.19696e-11
4.04508e-11
3.88761e-11
3.72554e-11
3.55988e-11
3.39166e-11
3.22189e-11
3.05157e-11
2.88168e-11
2.71318e-11
2.54695e-11
2.38387e-11
2.22473e-11
2.07027e-11
1.92117e-11
1.77802e-11
1.64136e-11
1.51164e-11
1.38924e-11
1.27445e-11
1.16752e-11
1.06858e-11
9.77726e-12
8.94976e-12
8.20284e-12
7.53547e-12
6.94605e-12
6.43251e-12
5.99231e-12
5.62251e-12
5.31979e-12
5.08051e-12
4.90075e-12
4.77634e-12
4.70288e-12
4.6758e-12
4.69037e-12
4.74174e-12
4.82497e-12
4.93505e-12
5.06695e-12
5.21561e-12
5.37606e-12
5.54334e-12
5.71266e-12
5.87936e-12
6.03898e-12
6.18735e-12
6.32055e-12
6.43504e-12
6.52768e-12
6.59573e-12
6.63696e-12
6.64964e-12
6.63256e-12
6.58506e-12
6.50703e-12
6.3989e-12
6.26163e-12
6.09667e-12
5.90591e-12
5.69168e-12
5.45662e-12
5.20368e-12
4.93599e-12
4.65682e-12
4.36952e-12
4.0774e-12
3.7837e-12
3.49149e-12
3.20365e-12
2.9228e-12
2.65126e-12
2.39102e-12
2.14376e-12
1.91078e-12
1.69304e-12
1.49117e-12
1.3055e-12
1.13604e-12
9.82568e-13
8.44633e-13
7.21594e-13
6.12662e-13
5.16937e-13
4.33439e-13
3.6114e-13
2.98998e-13
2.45975e-13
2.01062e-13
1.63294e-13
1.31766e-13
1.05637e-13
8.41381e-14
6.65771e-14
5.2336e-14
4.08703e-14
3.17057e-14
2.44332e-14
1.87035e-14
1.4222e-14
1.07419e-14
8.05893e-15
6.00538e-15
4.44491e-15
3.26767e-15
2.38592e-15
1.73027e-15
1.24624e-15
8.91492e-16
6.33362e-16
4.46891e-16
3.13156e-16
2.17934e-16
1.50621e-16
1.0338e-16
7.04628e-17
4.76884e-17
3.20402e-17
2.13577e-17
1.41046e-17
9.19428e-18
5.86041e-18
3.5605e-18
1.904e-18
5.97671e-19
2.47864e-17
7.53334e-17
1.28846e-16
1.87434e-16
2.53393e-16
3.29286e-16
4.1803e-16
5.2299e-16
6.48085e-16
7.97914e-16
9.77887e-16
1.19439e-15
1.45498e-15
1.76856e-15
2.14568e-15
2.59877e-15
3.14253e-15
3.79423e-15
4.57423e-15
5.50641e-15
6.61879e-15
7.94417e-15
9.52085e-15
1.13935e-14
1.36142e-14
1.62432e-14
1.93507e-14
2.30176e-14
2.73374e-14
3.2418e-14
3.83831e-14
4.5375e-14
5.35561e-14
6.31124e-14
7.42554e-14
8.72259e-14
1.02297e-13
1.19777e-13
1.40015e-13
1.63404e-13
1.90385e-13
2.21452e-13
2.57157e-13
2.98117e-13
3.45015e-13
3.98611e-13
4.59743e-13
5.29338e-13
6.08412e-13
6.98078e-13
7.99557e-13
9.14173e-13
1.04337e-12
1.1887e-12
1.35185e-12
1.53463e-12
1.73896e-12
1.96692e-12
2.2207e-12
2.50262e-12
2.81512e-12
3.16077e-12
3.54225e-12
3.96234e-12
4.42393e-12
4.92995e-12
5.48344e-12
6.08744e-12
6.74505e-12
7.45934e-12
8.23336e-12
9.07009e-12
9.97243e-12
1.09431e-11
1.19848e-11
1.30997e-11
1.42902e-11
1.55578e-11
1.69043e-11
1.83305e-11
1.98373e-11
2.14247e-11
2.30924e-11
2.48395e-11
2.66643e-11
2.85648e-11
3.0538e-11
3.25804e-11
3.46876e-11
3.68545e-11
3.90753e-11
4.13433e-11
4.36513e-11
4.59909e-11
4.83536e-11
5.07295e-11
5.31087e-11
5.54803e-11
5.7833e-11
6.0155e-11
6.24341e-11
6.46579e-11
6.68138e-11
6.8889e-11
7.08708e-11
7.27466e-11
7.45041e-11
7.61312e-11
7.76167e-11
7.89496e-11
8.01198e-11
8.11181e-11
8.19363e-11
8.25671e-11
8.30046e-11
8.32439e-11
8.32817e-11
8.31159e-11
8.27458e-11
8.21723e-11
8.13978e-11
8.0426e-11
7.92622e-11
7.79132e-11
7.63868e-11
7.46925e-11
7.28409e-11
7.08436e-11
6.87132e-11
6.64634e-11
6.41083e-11
6.16629e-11
5.91424e-11
5.65625e-11
5.39388e-11
5.12869e-11
4.86225e-11
4.59606e-11
4.3316e-11
4.07026e-11
3.81338e-11
3.56221e-11
3.31792e-11
3.08154e-11
2.85404e-11
2.63625e-11
2.4289e-11