/*--------------------------------*- C++ -*----------------------------------*\
| =========                 |                                                 |
| \\      /  F ield         | OpenFOAM: The Open Source CFD Toolbox           |
|  \\    /   O peration     | Version:  v2012                                 |
|   \\  /    A nd           | Website:  www.openfoam.com                      |
|    \\/     M anipulation  |                                                 |
\*---------------------------------------------------------------------------*/
FoamFile
{
    version     2.0;
    format      ascii;
    class       surfaceScalarField;
    location    "15";
    object      phi;
}
// * * * * * * * * * * * * * * * * * * * * * * * * * * * * * * * * * * * * * //

dimensions      [0 3 -1 0 0 0 0];
oriented        oriented;


internalField   nonuniform List<scalar> 
130560
(
3.41248e-06
-3.41248e-06
6.82517e-06
-3.41269e-06
1.02382e-05
-3.41308e-06
1.36519e-05
-3.41366e-06
1.70663e-05
-3.41444e-06
2.04818e-05
-3.41541e-06
2.38983e-05
-3.41656e-06
2.73162e-05
-3.4179e-06
3.07356e-05
-3.41943e-06
3.41568e-05
-3.42113e-06
3.75798e-05
-3.423e-06
4.10048e-05
-3.42504e-06
4.44321e-05
-3.42724e-06
4.78617e-05
-3.4296e-06
5.12938e-05
-3.43211e-06
5.47285e-05
-3.43476e-06
5.81661e-05
-3.43754e-06
6.16065e-05
-3.44045e-06
6.505e-05
-3.44348e-06
6.84966e-05
-3.44661e-06
7.19465e-05
-3.44984e-06
7.53996e-05
-3.45316e-06
7.88562e-05
-3.45655e-06
8.23162e-05
-3.46e-06
8.57797e-05
-3.4635e-06
8.92467e-05
-3.46703e-06
9.27173e-05
-3.47059e-06
9.61914e-05
-3.47416e-06
9.96692e-05
-3.47771e-06
0.00010315
-3.48124e-06
0.000106635
-3.48473e-06
0.000110123
-3.48816e-06
0.000113615
-3.49151e-06
0.00011711
-3.49476e-06
0.000120607
-3.4979e-06
0.000124108
-3.5009e-06
0.000127612
-3.50374e-06
0.000131119
-3.5064e-06
0.000134627
-3.50886e-06
0.000138138
-3.51108e-06
0.000141652
-3.51306e-06
0.000145166
-3.51476e-06
0.000148682
-3.51615e-06
0.0001522
-3.51721e-06
0.000155718
-3.51792e-06
0.000159236
-3.51824e-06
0.000162754
-3.51814e-06
0.000166272
-3.5176e-06
0.000169788
-3.51659e-06
0.000173303
-3.51506e-06
0.000176816
-3.513e-06
0.000180327
-3.51037e-06
0.000183834
-3.50713e-06
0.000187337
-3.50326e-06
0.000190836
-3.49872e-06
0.000194329
-3.49346e-06
0.000197817
-3.48747e-06
0.000201297
-3.4807e-06
0.00020477
-3.47311e-06
0.000208235
-3.46468e-06
0.00021169
-3.45536e-06
0.000215136
-3.44512e-06
0.000218569
-3.43392e-06
0.000221991
-3.42172e-06
0.0002254
-3.40849e-06
0.000228794
-3.39419e-06
0.000232173
-3.37879e-06
0.000235535
-3.36224e-06
0.000238879
-3.34451e-06
0.000242205
-3.32557e-06
0.00024551
-3.30539e-06
0.000248794
-3.28392e-06
0.000252055
-3.26113e-06
0.000255292
-3.237e-06
0.000258504
-3.21149e-06
0.000261689
-3.18457e-06
0.000264845
-3.15621e-06
0.000267971
-3.12638e-06
0.000271066
-3.09507e-06
0.000274128
-3.06223e-06
0.000277156
-3.02786e-06
0.000280148
-2.99192e-06
0.000283103
-2.95441e-06
0.000286018
-2.91529e-06
0.000288892
-2.87457e-06
0.000291725
-2.83222e-06
0.000294513
-2.78823e-06
0.000297255
-2.7426e-06
0.000299951
-2.69532e-06
0.000302597
-2.64639e-06
0.000305193
-2.59581e-06
0.000307737
-2.54359e-06
0.000310226
-2.48972e-06
0.000312661
-2.43421e-06
0.000315038
-2.37709e-06
0.000317356
-2.31836e-06
0.000319614
-2.25804e-06
0.00032181
-2.19615e-06
0.000323943
-2.13273e-06
0.000326011
-2.06778e-06
0.000328012
-2.00136e-06
0.000329946
-1.93348e-06
0.00033181
-1.86419e-06
0.000333603
-1.79353e-06
0.000335325
-1.72154e-06
0.000336973
-1.64826e-06
0.000338547
-1.57375e-06
0.000340045
-1.49806e-06
0.000341466
-1.42123e-06
0.000342809
-1.34334e-06
0.000344074
-1.26444e-06
0.000345258
-1.18459e-06
0.000346362
-1.10385e-06
0.000347385
-1.02229e-06
0.000348325
-9.39982e-07
0.000349182
-8.56993e-07
0.000349955
-7.73394e-07
0.000350644
-6.89258e-07
0.000351249
-6.0466e-07
0.000351769
-5.19673e-07
0.000352203
-4.34374e-07
0.000352552
-3.4884e-07
0.000352815
-2.63146e-07
0.000352992
-1.7737e-07
0.000353084
-9.15882e-08
0.00035309
-5.87772e-09
0.00035301
7.96854e-08
0.000352845
1.65026e-07
0.000352595
2.50068e-07
0.00035226
3.34739e-07
0.000351841
4.18966e-07
0.000351339
5.02677e-07
0.000350753
5.85803e-07
0.000350084
6.68277e-07
0.000349334
7.50031e-07
0.000348503
8.31002e-07
0.000347592
9.11127e-07
0.000346602
9.90348e-07
0.000345533
1.06861e-06
0.000344388
1.14585e-06
0.000343166
1.22202e-06
0.000341868
1.29707e-06
0.000340497
1.37095e-06
0.000339054
1.44362e-06
0.000337539
1.51504e-06
0.000335954
1.58517e-06
0.0003343
1.65397e-06
0.000332578
1.72142e-06
0.000330791
1.78747e-06
0.000328939
1.8521e-06
0.000327023
1.9153e-06
0.000325046
1.97703e-06
0.000323009
2.03728e-06
0.000320913
2.09604e-06
0.00031876
2.15328e-06
0.000316551
2.20901e-06
0.000314288
2.2632e-06
0.000311972
2.31587e-06
0.000309605
2.367e-06
0.000307188
2.41659e-06
0.000304723
2.46465e-06
0.000302212
2.51118e-06
0.000299656
2.55619e-06
0.000297056
2.59968e-06
0.000294415
2.64167e-06
0.000291733
2.68217e-06
0.000289011
2.72119e-06
0.000286253
2.75875e-06
0.000283458
2.79486e-06
0.000280628
2.82955e-06
0.000277765
2.86283e-06
0.000274871
2.89473e-06
0.000271945
2.92527e-06
0.000268991
2.95447e-06
0.000266009
2.98235e-06
0.000263
3.00895e-06
0.000259965
3.03429e-06
0.000256907
3.0584e-06
0.000253826
3.0813e-06
0.000250723
3.10302e-06
0.000247599
3.12359e-06
0.000244456
3.14305e-06
0.000241295
3.16141e-06
0.000238116
3.17872e-06
0.000234921
3.195e-06
0.000231711
3.21028e-06
0.000228486
3.22459e-06
0.000225248
3.23796e-06
0.000221998
3.25043e-06
0.000218736
3.26202e-06
0.000215463
3.27277e-06
0.00021218
3.2827e-06
0.000208888
3.29184e-06
0.000205588
3.30022e-06
0.00020228
3.30788e-06
0.000198965
3.31485e-06
0.000195644
3.32114e-06
0.000192317
3.32679e-06
0.000188986
3.33183e-06
0.000185649
3.33629e-06
0.000182309
3.34019e-06
0.000178965
3.34355e-06
0.000175619
3.34641e-06
0.00017227
3.3488e-06
0.00016892
3.35073e-06
0.000165567
3.35223e-06
0.000162214
3.35332e-06
0.00015886
3.35404e-06
0.000155506
3.35439e-06
0.000152151
3.35441e-06
0.000148797
3.35412e-06
0.000145443
3.35354e-06
0.000142091
3.35268e-06
0.000138739
3.35157e-06
0.000135389
3.35024e-06
0.00013204
3.34869e-06
0.000128693
3.34694e-06
0.000125348
3.34503e-06
0.000122005
3.34295e-06
0.000118665
3.34073e-06
0.000115326
3.33839e-06
0.00011199
3.33595e-06
0.000108657
3.33341e-06
0.000105326
3.33079e-06
0.000101998
3.3281e-06
9.86727e-05
3.32537e-06
9.53501e-05
3.3226e-06
9.20302e-05
3.31981e-06
8.87132e-05
3.317e-06
8.5399e-05
3.3142e-06
8.20876e-05
3.31141e-06
7.8779e-05
3.30864e-06
7.54731e-05
3.3059e-06
7.21699e-05
3.3032e-06
6.88693e-05
3.30056e-06
6.55714e-05
3.29798e-06
6.22759e-05
3.29546e-06
5.89829e-05
3.29303e-06
5.56922e-05
3.29068e-06
5.24038e-05
3.28842e-06
4.91175e-05
3.28626e-06
4.58333e-05
3.2842e-06
4.25511e-05
3.28226e-06
3.92706e-05
3.28043e-06
3.59919e-05
3.27872e-06
3.27148e-05
3.27714e-06
2.94391e-05
3.27569e-06
2.61647e-05
3.27438e-06
2.28915e-05
3.2732e-06
1.96193e-05
3.27216e-06
1.63481e-05
3.27127e-06
1.30776e-05
3.27052e-06
9.80765e-06
3.26991e-06
6.53818e-06
3.26946e-06
3.26902e-06
3.26917e-06
3.26902e-06
3.4123e-06
-6.82479e-06
6.8248e-06
-6.82518e-06
1.02377e-05
-6.82597e-06
1.36512e-05
-6.82714e-06
1.70654e-05
-6.82869e-06
2.04806e-05
-6.83063e-06
2.3897e-05
-6.83295e-06
2.73148e-05
-6.83563e-06
3.0734e-05
-6.83868e-06
3.4155e-05
-6.84209e-06
3.75778e-05
-6.84584e-06
4.10027e-05
-6.84992e-06
4.44298e-05
-6.85434e-06
4.78592e-05
-6.85906e-06
5.12912e-05
-6.86409e-06
5.47259e-05
-6.86939e-06
5.81633e-05
-6.87497e-06
6.16036e-05
-6.8808e-06
6.5047e-05
-6.88686e-06
6.84935e-05
-6.89314e-06
7.19433e-05
-6.8996e-06
7.53964e-05
-6.90625e-06
7.88529e-05
-6.91304e-06
8.23128e-05
-6.91995e-06
8.57763e-05
-6.92696e-06
8.92433e-05
-6.93405e-06
9.27139e-05
-6.94118e-06
9.61881e-05
-6.94832e-06
9.96658e-05
-6.95545e-06
0.000103147
-6.96253e-06
0.000106632
-6.96952e-06
0.00011012
-6.9764e-06
0.000113612
-6.98312e-06
0.000117107
-6.98965e-06
0.000120605
-6.99594e-06
0.000124106
-7.00196e-06
0.00012761
-7.00767e-06
0.000131116
-7.01301e-06
0.000134625
-7.01794e-06
0.000138137
-7.02242e-06
0.00014165
-7.0264e-06
0.000145165
-7.02982e-06
0.000148682
-7.03263e-06
0.000152199
-7.03479e-06
0.000155717
-7.03623e-06
0.000159236
-7.0369e-06
0.000162755
-7.03673e-06
0.000166273
-7.03568e-06
0.00016979
-7.03368e-06
0.000173305
-7.03067e-06
0.000176819
-7.02658e-06
0.00018033
-7.02135e-06
0.000183838
-7.01491e-06
0.000187342
-7.00719e-06
0.000190841
-6.99814e-06
0.000194335
-6.98767e-06
0.000197824
-6.97572e-06
0.000201305
-6.96221e-06
0.000204779
-6.94708e-06
0.000208245
-6.93025e-06
0.000211701
-6.91165e-06
0.000215147
-6.8912e-06
0.000218582
-6.86883e-06
0.000222005
-6.84448e-06
0.000225414
-6.81805e-06
0.00022881
-6.78949e-06
0.000232189
-6.75871e-06
0.000235553
-6.72565e-06
0.000238899
-6.69024e-06
0.000242225
-6.65239e-06
0.000245532
-6.61205e-06
0.000248817
-6.56915e-06
0.00025208
-6.52361e-06
0.000255318
-6.47538e-06
0.000258531
-6.42439e-06
0.000261717
-6.37057e-06
0.000264875
-6.31388e-06
0.000268003
-6.25426e-06
0.000271099
-6.19165e-06
0.000274163
-6.126e-06
0.000277192
-6.05727e-06
0.000280186
-5.98542e-06
0.000283142
-5.91041e-06
0.000286059
-5.83219e-06
0.000288935
-5.75075e-06
0.000291769
-5.66606e-06
0.000294559
-5.5781e-06
0.000297303
-5.48684e-06
0.0003
-5.39229e-06
0.000302648
-5.29443e-06
0.000305245
-5.19327e-06
0.000307791
-5.08881e-06
0.000310282
-4.98106e-06
0.000312718
-4.87004e-06
0.000315097
-4.75578e-06
0.000317416
-4.6383e-06
0.000319676
-4.51764e-06
0.000321874
-4.39384e-06
0.000324008
-4.26696e-06
0.000326077
-4.13704e-06
0.00032808
-4.00416e-06
0.000330015
-3.86837e-06
0.00033188
-3.72975e-06
0.000333675
-3.58838e-06
0.000335398
-3.44435e-06
0.000337048
-3.29775e-06
0.000338623
-3.14867e-06
0.000340122
-2.99723e-06
0.000341544
-2.84353e-06
0.000342888
-2.68769e-06
0.000344154
-2.52982e-06
0.000345339
-2.37005e-06
0.000346444
-2.20851e-06
0.000347467
-2.04532e-06
0.000348408
-1.88064e-06
0.000349265
-1.71459e-06
0.000350039
-1.54732e-06
0.000350729
-1.37897e-06
0.000351334
-1.2097e-06
0.000351854
-1.03965e-06
0.000352288
-8.68978e-07
0.000352637
-6.97832e-07
0.000352901
-5.26368e-07
0.000353078
-3.54739e-07
0.00035317
-1.83099e-07
0.000353175
-1.16015e-08
0.000353095
1.596e-07
0.00035293
3.30355e-07
0.00035268
5.00514e-07
0.000352344
6.69928e-07
0.000351925
8.38453e-07
0.000351422
1.00595e-06
0.000350835
1.17227e-06
0.000350166
1.33728e-06
0.000349415
1.50085e-06
0.000348583
1.66286e-06
0.000347671
1.82317e-06
0.00034668
1.98166e-06
0.00034561
2.13823e-06
0.000344464
2.29277e-06
0.00034324
2.44516e-06
0.000341942
2.5953e-06
0.00034057
2.74312e-06
0.000339125
2.8885e-06
0.000337609
3.03138e-06
0.000336022
3.17168e-06
0.000334367
3.30931e-06
0.000332644
3.44423e-06
0.000330855
3.57636e-06
0.000329002
3.70565e-06
0.000327085
3.83206e-06
0.000325106
3.95555e-06
0.000323068
4.07606e-06
0.00032097
4.19359e-06
0.000318815
4.30809e-06
0.000316605
4.41955e-06
0.00031434
4.52795e-06
0.000312023
4.63328e-06
0.000309654
4.73554e-06
0.000307236
4.83472e-06
0.00030477
4.93084e-06
0.000302257
5.02389e-06
0.000299699
5.1139e-06
0.000297098
5.20088e-06
0.000294455
5.28484e-06
0.000291771
5.36582e-06
0.000289049
5.44385e-06
0.000286288
5.51895e-06
0.000283492
5.59115e-06
0.000280661
5.66051e-06
0.000277797
5.72705e-06
0.000274901
5.79083e-06
0.000271974
5.85188e-06
0.000269019
5.91025e-06
0.000266035
5.966e-06
0.000263025
6.01917e-06
0.000259989
6.06982e-06
0.00025693
6.118e-06
0.000253847
6.16377e-06
0.000250743
6.20718e-06
0.000247618
6.2483e-06
0.000244474
6.28718e-06
0.000241312
6.32388e-06
0.000238132
6.35847e-06
0.000234936
6.39099e-06
0.000231725
6.42152e-06
0.000228499
6.45011e-06
0.00022526
6.47683e-06
0.000222009
6.50174e-06
0.000218746
6.52489e-06
0.000215472
6.54635e-06
0.000212189
6.56618e-06
0.000208896
6.58443e-06
0.000205595
6.60118e-06
0.000202287
6.61647e-06
0.000198971
6.63036e-06
0.00019565
6.64292e-06
0.000192322
6.6542e-06
0.00018899
6.66425e-06
0.000185653
6.67313e-06
0.000182312
6.6809e-06
0.000178968
6.68761e-06
0.000175621
6.69331e-06
0.000172272
6.69805e-06
0.000168921
6.70188e-06
0.000165568
6.70486e-06
0.000162214
6.70702e-06
0.00015886
6.70843e-06
0.000155505
6.70912e-06
0.000152151
6.70914e-06
0.000148796
6.70853e-06
0.000145442
6.70734e-06
0.00014209
6.70561e-06
0.000138738
6.70337e-06
0.000135387
6.70068e-06
0.000132038
6.69756e-06
0.000128691
6.69406e-06
0.000125346
6.6902e-06
0.000122003
6.68604e-06
0.000118662
6.68159e-06
0.000115324
6.67689e-06
0.000111988
6.67198e-06
0.000108654
6.66688e-06
0.000105323
6.66163e-06
0.000101995
6.65625e-06
9.86697e-05
6.65077e-06
9.53471e-05
6.64522e-06
9.20273e-05
6.63962e-06
8.87103e-05
6.634e-06
8.53961e-05
6.62838e-06
8.20847e-05
6.62279e-06
7.87761e-05
6.61724e-06
7.54703e-05
6.61175e-06
7.21671e-05
6.60635e-06
6.88666e-05
6.60106e-06
6.55687e-05
6.59588e-06
6.22734e-05
6.59085e-06
5.89804e-05
6.58597e-06
5.56898e-05
6.58126e-06
5.24015e-05
6.57673e-06
4.91154e-05
6.5724e-06
4.58313e-05
6.56829e-06
4.25492e-05
6.56439e-06
3.92689e-05
6.56073e-06
3.59903e-05
6.55731e-06
3.27133e-05
6.55415e-06
2.94377e-05
6.55124e-06
2.61635e-05
6.54861e-06
2.28904e-05
6.54625e-06
1.96184e-05
6.54417e-06
1.63473e-05
6.54238e-06
1.30769e-05
6.54088e-06
9.80718e-06
6.53967e-06
6.53787e-06
6.53877e-06
3.26886e-06
6.53818e-06
6.53788e-06
3.41191e-06
-1.02367e-05
6.82401e-06
-1.02373e-05
1.02365e-05
-1.02385e-05
1.36496e-05
-1.02402e-05
1.70635e-05
-1.02426e-05
2.04783e-05
-1.02455e-05
2.38943e-05
-1.0249e-05
2.73117e-05
-1.0253e-05
3.07306e-05
-1.02576e-05
3.41512e-05
-1.02627e-05
3.75737e-05
-1.02683e-05
4.09982e-05
-1.02745e-05
4.4425e-05
-1.02811e-05
4.78542e-05
-1.02882e-05
5.12859e-05
-1.02958e-05
5.47202e-05
-1.03038e-05
5.81574e-05
-1.03121e-05
6.15975e-05
-1.03209e-05
6.50407e-05
-1.033e-05
6.8487e-05
-1.03395e-05
7.19366e-05
-1.03492e-05
7.53895e-05
-1.03592e-05
7.88459e-05
-1.03694e-05
8.23057e-05
-1.03798e-05
8.57691e-05
-1.03904e-05
8.92361e-05
-1.0401e-05
9.27067e-05
-1.04118e-05
9.61809e-05
-1.04225e-05
9.96586e-05
-1.04332e-05
0.00010314
-1.04439e-05
0.000106625
-1.04544e-05
0.000110113
-1.04648e-05
0.000113605
-1.04749e-05
0.0001171
-1.04848e-05
0.000120599
-1.04943e-05
0.0001241
-1.05033e-05
0.000127604
-1.0512e-05
0.000131111
-1.052e-05
0.000134621
-1.05275e-05
0.000138133
-1.05343e-05
0.000141647
-1.05403e-05
0.000145162
-1.05455e-05
0.000148679
-1.05498e-05
0.000152198
-1.05531e-05
0.000155717
-1.05553e-05
0.000159236
-1.05564e-05
0.000162756
-1.05562e-05
0.000166275
-1.05547e-05
0.000169793
-1.05518e-05
0.000173309
-1.05473e-05
0.000176824
-1.05413e-05
0.000180336
-1.05335e-05
0.000183845
-1.0524e-05
0.000187351
-1.05125e-05
0.000190852
-1.0499e-05
0.000194347
-1.04834e-05
0.000197837
-1.04655e-05
0.00020132
-1.04453e-05
0.000204796
-1.04227e-05
0.000208263
-1.03976e-05
0.000211721
-1.03698e-05
0.000215169
-1.03392e-05
0.000218606
-1.03057e-05
0.000222031
-1.02693e-05
0.000225443
-1.02298e-05
0.00022884
-1.0187e-05
0.000232222
-1.01409e-05
0.000235588
-1.00914e-05
0.000238936
-1.00384e-05
0.000242266
-9.98171e-06
0.000245575
-9.92129e-06
0.000248863
-9.85701e-06
0.000252128
-9.78879e-06
0.000255369
-9.71652e-06
0.000258585
-9.6401e-06
0.000261774
-9.55946e-06
0.000264934
-9.47449e-06
0.000268065
-9.38512e-06
0.000271165
-9.29127e-06
0.000274232
-9.19285e-06
0.000277264
-9.08981e-06
0.000280261
-8.98208e-06
0.00028322
-8.8696e-06
0.00028614
-8.75232e-06
0.00028902
-8.6302e-06
0.000291857
-8.50319e-06
0.00029465
-8.37126e-06
0.000297397
-8.23439e-06
0.000300098
-8.09257e-06
0.000302749
-7.94578e-06
0.00030535
-7.79403e-06
0.000307898
-7.63732e-06
0.000310393
-7.47567e-06
0.000312832
-7.30912e-06
0.000315214
-7.13768e-06
0.000317537
-6.96142e-06
0.0003198
-6.78038e-06
0.000322001
-6.59462e-06
0.000324138
-6.40423e-06
0.00032621
-6.20928e-06
0.000328216
-6.00986e-06
0.000330154
-5.80609e-06
0.000332022
-5.59806e-06
0.000333819
-5.3859e-06
0.000335545
-5.16973e-06
0.000337197
-4.94971e-06
0.000338774
-4.72597e-06
0.000340275
-4.49867e-06
0.0003417
-4.26798e-06
0.000343046
-4.03407e-06
0.000344314
-3.79711e-06
0.000345501
-3.55729e-06
0.000346607
-3.31481e-06
0.000347632
-3.06987e-06
0.000348574
-2.82266e-06
0.000349432
-2.57341e-06
0.000350207
-2.32232e-06
0.000350898
-2.06962e-06
0.000351504
-1.81552e-06
0.000352025
-1.56026e-06
0.00035246
-1.30406e-06
0.000352809
-1.04715e-06
0.000353072
-7.89757e-07
0.00035325
-5.32121e-07
0.000353341
-2.74469e-07
0.000353346
-1.70328e-08
0.000353266
2.39959e-07
0.0003531
4.96279e-07
0.000352849
7.51701e-07
0.000352513
1.006e-06
0.000352092
1.25897e-06
0.000351588
1.51038e-06
0.000351
1.76003e-06
0.00035033
2.00772e-06
0.000349577
2.25324e-06
0.000348744
2.4964e-06
0.00034783
2.73701e-06
0.000346837
2.97491e-06
0.000345765
3.2099e-06
0.000344616
3.44183e-06
0.000343391
3.67054e-06
0.00034209
3.89588e-06
0.000340715
4.11771e-06
0.000339268
4.33589e-06
0.000337749
4.5503e-06
0.00033616
4.76083e-06
0.000334502
4.96737e-06
0.000332776
5.16982e-06
0.000330985
5.36808e-06
0.000329128
5.56209e-06
0.000327209
5.75175e-06
0.000325227
5.93702e-06
0.000323185
6.11784e-06
0.000321085
6.29416e-06
0.000318927
6.46593e-06
0.000316713
6.63314e-06
0.000314445
6.79575e-06
0.000312125
6.95376e-06
0.000309753
7.10715e-06
0.000307332
7.25592e-06
0.000304863
7.40008e-06
0.000302347
7.53965e-06
0.000299786
7.67464e-06
0.000297182
7.80508e-06
0.000294536
7.93099e-06
0.000291849
8.05243e-06
0.000289124
8.16943e-06
0.000286361
8.28203e-06
0.000283562
8.3903e-06
0.000280728
8.49428e-06
0.000277861
8.59404e-06
0.000274962
8.68964e-06
0.000272033
8.78116e-06
0.000269074
8.86866e-06
0.000266088
8.95221e-06
0.000263075
9.0319e-06
0.000260037
9.10781e-06
0.000256975
9.18001e-06
0.000253891
9.2486e-06
0.000250784
9.31365e-06
0.000247657
9.37525e-06
0.000244511
9.43349e-06
0.000241346
9.48847e-06
0.000238164
9.54027e-06
0.000234966
9.58898e-06
0.000231753
9.6347e-06
0.000228526
9.67751e-06
0.000225285
9.71752e-06
0.000222032
9.7548e-06
0.000218768
9.78945e-06
0.000215492
9.82156e-06
0.000212207
9.85123e-06
0.000208913
9.87854e-06
0.000205611
9.90358e-06
0.000202301
9.92644e-06
0.000198984
9.94721e-06
0.000195661
9.96598e-06
0.000192332
9.98282e-06
0.000188999
9.99783e-06
0.000185661
1.00111e-05
0.000182319
1.00227e-05
0.000178974
1.00327e-05
0.000175626
1.00412e-05
0.000172276
1.00482e-05
0.000168924
1.00539e-05
0.00016557
1.00583e-05
0.000162216
1.00615e-05
0.000158861
1.00635e-05
0.000155505
1.00645e-05
0.00015215
1.00645e-05
0.000148795
1.00635e-05
0.000145441
1.00617e-05
0.000142087
1.0059e-05
0.000138735
1.00556e-05
0.000135384
1.00515e-05
0.000132035
1.00468e-05
0.000128687
1.00415e-05
0.000125342
1.00357e-05
0.000121999
1.00294e-05
0.000118658
1.00227e-05
0.000115319
1.00156e-05
0.000111983
1.00082e-05
0.000108649
1.00005e-05
0.000105318
9.99261e-06
0.00010199
9.9845e-06
9.86642e-05
9.97625e-06
9.53416e-05
9.96789e-06
9.20217e-05
9.95947e-06
8.87047e-05
9.95101e-06
8.53906e-05
9.94255e-06
8.20792e-05
9.93413e-06
7.87707e-05
9.92577e-06
7.54649e-05
9.91752e-06
7.21619e-05
9.9094e-06
6.88615e-05
9.90143e-06
6.55637e-05
9.89365e-06
6.22685e-05
9.88608e-06
5.89757e-05
9.87874e-06
5.56853e-05
9.87165e-06
5.23972e-05
9.86485e-06
4.91113e-05
9.85834e-06
4.58274e-05
9.85215e-06
4.25455e-05
9.8463e-06
3.92655e-05
9.84079e-06
3.59871e-05
9.83565e-06
3.27104e-05
9.83089e-06
2.94351e-05
9.82653e-06
2.61611e-05
9.82257e-06
2.28884e-05
9.81902e-06
1.96166e-05
9.8159e-06
1.63458e-05
9.8132e-06
1.30757e-05
9.81095e-06
9.80628e-06
9.80914e-06
6.53727e-06
9.80778e-06
3.26856e-06
9.80689e-06
9.80644e-06
3.41131e-06
-1.3648e-05
6.82282e-06
-1.36488e-05
1.02347e-05
-1.36504e-05
1.36472e-05
-1.36527e-05
1.70605e-05
-1.36559e-05
2.04748e-05
-1.36598e-05
2.38902e-05
-1.36644e-05
2.73071e-05
-1.36698e-05
3.07254e-05
-1.36759e-05
3.41455e-05
-1.36828e-05
3.75675e-05
-1.36903e-05
4.09916e-05
-1.36985e-05
4.44179e-05
-1.37074e-05
4.78466e-05
-1.37169e-05
5.12778e-05
-1.3727e-05
5.47118e-05
-1.37377e-05
5.81486e-05
-1.37489e-05
6.15883e-05
-1.37607e-05
6.50312e-05
-1.37729e-05
6.84772e-05
-1.37855e-05
7.19265e-05
-1.37985e-05
7.53792e-05
-1.38119e-05
7.88354e-05
-1.38256e-05
8.22951e-05
-1.38395e-05
8.57584e-05
-1.38536e-05
8.92253e-05
-1.38679e-05
9.26958e-05
-1.38823e-05
9.617e-05
-1.38967e-05
9.96479e-05
-1.39111e-05
0.000103129
-1.39254e-05
0.000106614
-1.39395e-05
0.000110103
-1.39534e-05
0.000113595
-1.3967e-05
0.000117091
-1.39802e-05
0.000120589
-1.3993e-05
0.000124091
-1.40052e-05
0.000127596
-1.40168e-05
0.000131104
-1.40276e-05
0.000134614
-1.40377e-05
0.000138126
-1.40469e-05
0.000141641
-1.4055e-05
0.000145158
-1.40621e-05
0.000148676
-1.40679e-05
0.000152195
-1.40724e-05
0.000155715
-1.40755e-05
0.000159236
-1.40771e-05
0.000162757
-1.4077e-05
0.000166277
-1.40752e-05
0.000169797
-1.40714e-05
0.000173315
-1.40656e-05
0.000176832
-1.40577e-05
0.000180346
-1.40475e-05
0.000183857
-1.40349e-05
0.000187364
-1.40198e-05
0.000190867
-1.40019e-05
0.000194365
-1.39813e-05
0.000197857
-1.39576e-05
0.000201343
-1.39309e-05
0.000204821
-1.3901e-05
0.000208291
-1.38676e-05
0.000211752
-1.38307e-05
0.000215203
-1.37901e-05
0.000218642
-1.37456e-05
0.00022207
-1.36972e-05
0.000225485
-1.36447e-05
0.000228886
-1.35878e-05
0.000232272
-1.35266e-05
0.000235641
-1.34607e-05
0.000238993
-1.33902e-05
0.000242326
-1.33148e-05
0.000245639
-1.32344e-05
0.000248931
-1.31488e-05
0.0002522
-1.3058e-05
0.000255445
-1.29618e-05
0.000258665
-1.28601e-05
0.000261859
-1.27527e-05
0.000265024
-1.26395e-05
0.000268159
-1.25205e-05
0.000271263
-1.23954e-05
0.000274335
-1.22643e-05
0.000277372
-1.2127e-05
0.000280373
-1.19835e-05
0.000283337
-1.18336e-05
0.000286262
-1.16773e-05
0.000289147
-1.15145e-05
0.000291989
-1.13452e-05
0.000294787
-1.11694e-05
0.000297539
-1.09869e-05
0.000300244
-1.07978e-05
0.000302901
-1.06021e-05
0.000305506
-1.03997e-05
0.00030806
-1.01908e-05
0.000310559
-9.9752e-06
0.000313003
-9.75307e-06
0.00031539
-9.52442e-06
0.000317718
-9.28932e-06
0.000319985
-9.04783e-06
0.000322191
-8.80005e-06
0.000324333
-8.54606e-06
0.000326409
-8.28598e-06
0.00032842
-8.01994e-06
0.000330361
-7.74806e-06
0.000332234
-7.4705e-06
0.000334035
-7.18742e-06
0.000335765
-6.89899e-06
0.00033742
-6.60539e-06
0.000339001
-6.30683e-06
0.000340506
-6.00351e-06
0.000341934
-5.69566e-06
0.000343283
-5.38349e-06
0.000344553
-5.06725e-06
0.000345743
-4.7472e-06
0.000346852
-4.42358e-06
0.000347879
-4.09667e-06
0.000348823
-3.76674e-06
0.000349684
-3.43407e-06
0.00035046
-3.09894e-06
0.000351152
-2.76166e-06
0.000351759
-2.42251e-06
0.000352281
-2.08181e-06
0.000352717
-1.73985e-06
0.000353066
-1.39694e-06
0.00035333
-1.0534e-06
0.000353507
-7.09523e-07
0.000353599
-3.65629e-07
0.000353604
-2.20237e-08
0.000353523
3.20986e-07
0.000353356
6.63095e-07
0.000353103
1.004e-06
0.000352766
1.34341e-06
0.000352344
1.68103e-06
0.000351838
2.01658e-06
0.000351248
2.34976e-06
0.000350575
2.68032e-06
0.000349821
3.00798e-06
0.000348985
3.33248e-06
0.000348068
3.65358e-06
0.000347072
3.97104e-06
0.000345997
4.28462e-06
0.000344845
4.59411e-06
0.000343616
4.89929e-06
0.000342312
5.19996e-06
0.000340934
5.49594e-06
0.000339483
5.78704e-06
0.00033796
6.07311e-06
0.000336367
6.35398e-06
0.000334705
6.62952e-06
0.000332975
6.89959e-06
0.000331179
7.16407e-06
0.000329318
7.42285e-06
0.000327394
7.67584e-06
0.000325408
7.92295e-06
0.000323362
8.16412e-06
0.000321257
8.39927e-06
0.000319094
8.62835e-06
0.000316876
8.85133e-06
0.000314604
9.06817e-06
0.000312279
9.27885e-06
0.000309902
9.48337e-06
0.000307476
9.68173e-06
0.000305003
9.87392e-06
0.000302482
1.006e-05
0.000299917
1.02399e-05
0.000297308
1.04138e-05
0.000294658
1.05816e-05
0.000291967
1.07435e-05
0.000289237
1.08994e-05
0.000286469
1.10495e-05
0.000283666
1.11937e-05
0.000280828
1.13323e-05
0.000277957
1.14652e-05
0.000275054
1.15926e-05
0.00027212
1.17145e-05
0.000269158
1.1831e-05
0.000266168
1.19423e-05
0.000263152
1.20484e-05
0.00026011
1.21495e-05
0.000257044
1.22456e-05
0.000253956
1.2337e-05
0.000250846
1.24236e-05
0.000247716
1.25056e-05
0.000244566
1.25831e-05
0.000241398
1.26562e-05
0.000238213
1.27252e-05
0.000235012
1.279e-05
0.000231796
1.28508e-05
0.000228566
1.29077e-05
0.000225323
1.29609e-05
0.000222067
1.30105e-05
0.0002188
1.30565e-05
0.000215522
1.30992e-05
0.000212235
1.31386e-05
0.000208938
1.31749e-05
0.000205634
1.32082e-05
0.000202322
1.32385e-05
0.000199003
1.32661e-05
0.000195678
1.3291e-05
0.000192347
1.33133e-05
0.000189012
1.33332e-05
0.000185672
1.33507e-05
0.000182329
1.3366e-05
0.000178983
1.33793e-05
0.000175633
1.33904e-05
0.000172282
1.33997e-05
0.000168928
1.34072e-05
0.000165574
1.3413e-05
0.000162218
1.34171e-05
0.000158862
1.34197e-05
0.000155506
1.34209e-05
0.000152149
1.34208e-05
0.000148793
1.34194e-05
0.000145438
1.34168e-05
0.000142084
1.34132e-05
0.000138731
1.34086e-05
0.00013538
1.34031e-05
0.00013203
1.33967e-05
0.000128682
1.33895e-05
0.000125336
1.33817e-05
0.000121992
1.33732e-05
0.000118651
1.33642e-05
0.000115312
1.33546e-05
0.000111975
1.33447e-05
0.000108641
1.33344e-05
0.00010531
1.33238e-05
0.000101982
1.33129e-05
9.8656e-05
1.33018e-05
9.53332e-05
1.32906e-05
9.20134e-05
1.32793e-05
8.86964e-05
1.3268e-05
8.53822e-05
1.32567e-05
8.2071e-05
1.32454e-05
7.87625e-05
1.32342e-05
7.54569e-05
1.32232e-05
7.2154e-05
1.32123e-05
6.88538e-05
1.32016e-05
6.55562e-05
1.31912e-05
6.22612e-05
1.31811e-05
5.89687e-05
1.31713e-05
5.56786e-05
1.31618e-05
5.23908e-05
1.31527e-05
4.91051e-05
1.3144e-05
4.58216e-05
1.31357e-05
4.25401e-05
1.31279e-05
3.92604e-05
1.31205e-05
3.59824e-05
1.31136e-05
3.2706e-05
1.31072e-05
2.94312e-05
1.31014e-05
2.61576e-05
1.30961e-05
2.28853e-05
1.30914e-05
1.9614e-05
1.30872e-05
1.63436e-05
1.30836e-05
1.30739e-05
1.30806e-05
9.80493e-06
1.30782e-05
6.53636e-06
1.30763e-05
3.26811e-06
1.30751e-05
1.30745e-05
3.41052e-06
-1.70585e-05
6.82124e-06
-1.70595e-05
1.02324e-05
-1.70615e-05
1.36441e-05
-1.70644e-05
1.70566e-05
-1.70684e-05
2.04701e-05
-1.70733e-05
2.38848e-05
-1.70791e-05
2.73009e-05
-1.70859e-05
3.07185e-05
-1.70936e-05
3.41379e-05
-1.71022e-05
3.75592e-05
-1.71116e-05
4.09826e-05
-1.7122e-05
4.44083e-05
-1.71331e-05
4.78364e-05
-1.7145e-05
5.12671e-05
-1.71577e-05
5.47005e-05
-1.71711e-05
5.81368e-05
-1.71852e-05
6.1576e-05
-1.71999e-05
6.50184e-05
-1.72153e-05
6.84641e-05
-1.72311e-05
7.1913e-05
-1.72475e-05
7.53654e-05
-1.72643e-05
7.88214e-05
-1.72815e-05
8.22808e-05
-1.7299e-05
8.5744e-05
-1.73168e-05
8.92108e-05
-1.73347e-05
9.26813e-05
-1.73528e-05
9.61555e-05
-1.73709e-05
9.96335e-05
-1.7389e-05
0.000103115
-1.7407e-05
0.0001066
-1.74248e-05
0.000110089
-1.74423e-05
0.000113582
-1.74595e-05
0.000117078
-1.74761e-05
0.000120577
-1.74922e-05
0.000124079
-1.75077e-05
0.000127585
-1.75223e-05
0.000131093
-1.75361e-05
0.000134605
-1.75488e-05
0.000138118
-1.75604e-05
0.000141634
-1.75708e-05
0.000145152
-1.75798e-05
0.000148671
-1.75873e-05
0.000152192
-1.75932e-05
0.000155714
-1.75973e-05
0.000159236
-1.75995e-05
0.000162759
-1.75996e-05
0.000166281
-1.75975e-05
0.000169803
-1.75931e-05
0.000173323
-1.75861e-05
0.000176842
-1.75764e-05
0.000180358
-1.75639e-05
0.000183872
-1.75484e-05
0.000187382
-1.75297e-05
0.000190887
-1.75077e-05
0.000194388
-1.74821e-05
0.000197884
-1.74529e-05
0.000201372
-1.74198e-05
0.000204854
-1.73826e-05
0.000208328
-1.73411e-05
0.000211792
-1.72953e-05
0.000215247
-1.72448e-05
0.000218691
-1.71895e-05
0.000222123
-1.71293e-05
0.000225542
-1.70639e-05
0.000228947
-1.69931e-05
0.000232337
-1.69168e-05
0.000235711
-1.68348e-05
0.000239068
-1.67468e-05
0.000242406
-1.66528e-05
0.000245724
-1.65526e-05
0.000249022
-1.64459e-05
0.000252296
-1.63326e-05
0.000255547
-1.62126e-05
0.000258773
-1.60857e-05
0.000261972
-1.59516e-05
0.000265142
-1.58104e-05
0.000268284
-1.56618e-05
0.000271394
-1.55057e-05
0.000274472
-1.5342e-05
0.000277515
-1.51706e-05
0.000280523
-1.49913e-05
0.000283493
-1.4804e-05
0.000286425
-1.46088e-05
0.000289316
-1.44054e-05
0.000292164
-1.41938e-05
0.000294969
-1.39741e-05
0.000297728
-1.3746e-05
0.00030044
-1.35097e-05
0.000303103
-1.3265e-05
0.000305715
-1.30121e-05
0.000308275
-1.27508e-05
0.000310781
-1.24813e-05
0.000313232
-1.22035e-05
0.000315625
-1.19176e-05
0.000317959
-1.16236e-05
0.000320233
-1.13216e-05
0.000322445
-1.10117e-05
0.000324593
-1.0694e-05
0.000326675
-1.03687e-05
0.000328691
-1.00358e-05
0.000330639
-9.69572e-06
0.000332517
-9.34847e-06
0.000334324
-8.99429e-06
0.000336058
-8.63341e-06
0.000337719
-8.26605e-06
0.000339305
-7.89246e-06
0.000340814
-7.5129e-06
0.000342246
-7.12764e-06
0.000343599
-6.73699e-06
0.000344873
-6.34123e-06
0.000346067
-5.94067e-06
0.000347179
-5.53565e-06
0.000348209
-5.1265e-06
0.000349156
-4.71356e-06
0.000350019
-4.29718e-06
0.000350797
-3.87773e-06
0.000351491
-3.45557e-06
0.0003521
-3.03107e-06
0.000352623
-2.60462e-06
0.000353059
-2.17659e-06
0.00035341
-1.74738e-06
0.000353674
-1.31737e-06
0.000353851
-8.86949e-07
0.000353942
-4.56504e-07
0.000353947
-2.6423e-08
0.000353865
4.02909e-07
0.000353697
8.31109e-07
0.000353443
1.2578e-06
0.000353104
1.68261e-06
0.00035268
2.10517e-06
0.000352171
2.52513e-06
0.000351579
2.94212e-06
0.000350903
3.35582e-06
0.000350145
3.76587e-06
0.000349306
4.17197e-06
0.000348386
4.5738e-06
0.000347386
4.97105e-06
0.000346307
5.36344e-06
0.00034515
5.75069e-06
0.000343917
6.13254e-06
0.000342608
6.50873e-06
0.000341225
6.87904e-06
0.000339769
7.24323e-06
0.000338241
7.6011e-06
0.000336642
7.95246e-06
0.000334975
8.29713e-06
0.000333239
8.63494e-06
0.000331438
8.96574e-06
0.000329571
9.2894e-06
0.000327641
9.6058e-06
0.000325649
9.91483e-06
0.000323597
1.02164e-05
0.000321486
1.05104e-05
0.000319317
1.07969e-05
0.000317093
1.10756e-05
0.000314814
1.13467e-05
0.000312483
1.16101e-05
0.000310101
1.18658e-05
0.000307669
1.21137e-05
0.000305189
1.23539e-05
0.000302662
1.25864e-05
0.000300091
1.28113e-05
0.000297476
1.30285e-05
0.00029482
1.32382e-05
0.000292123
1.34404e-05
0.000289387
1.36352e-05
0.000286614
1.38227e-05
0.000283805
1.40029e-05
0.000280961
1.41759e-05
0.000278084
1.43419e-05
0.000275176
1.45009e-05
0.000272237
1.46531e-05
0.00026927
1.47986e-05
0.000266274
1.49375e-05
0.000263253
1.507e-05