/*--------------------------------*- C++ -*----------------------------------*\
| =========                 |                                                 |
| \\      /  F ield         | OpenFOAM: The Open Source CFD Toolbox           |
|  \\    /   O peration     | Version:  v2012                                 |
|   \\  /    A nd           | Website:  www.openfoam.com                      |
|    \\/     M anipulation  |                                                 |
\*---------------------------------------------------------------------------*/
FoamFile
{
    version     2.0;
    format      ascii;
    class       volScalarField;
    location    "15";
    object      Psi_z;
}
// * * * * * * * * * * * * * * * * * * * * * * * * * * * * * * * * * * * * * //

dimensions      [0 2 -1 0 0 0 0];


internalField   nonuniform List<scalar> 
65536
(
8.51644e-06
2.55499e-05
4.25849e-05
5.96223e-05
7.66632e-05
9.37083e-05
0.000110759
0.000127816
0.000144879
0.000161951
0.000179032
0.000196123
0.000213224
0.000230337
0.000247461
0.000264599
0.000281751
0.000298916
0.000316096
0.000333292
0.000350504
0.000367732
0.000384977
0.000402239
0.000419518
0.000436816
0.00045413
0.000471463
0.000488814
0.000506182
0.000523568
0.000540972
0.000558392
0.00057583
0.000593283
0.000610752
0.000628236
0.000645733
0.000663244
0.000680766
0.0006983
0.000715842
0.000733393
0.000750951
0.000768513
0.000786078
0.000803644
0.000821209
0.00083877
0.000856326
0.000873873
0.000891409
0.000908931
0.000926436
0.00094392
0.000961381
0.000978814
0.000996216
0.00101358
0.00103091
0.0010482
0.00106543
0.00108262
0.00109974
0.00111681
0.0011338
0.00115072
0.00116757
0.00118433
0.001201
0.00121757
0.00123404
0.0012504
0.00126664
0.00128277
0.00129876
0.00131461
0.00133033
0.00134589
0.00136129
0.00137652
0.00139158
0.00140646
0.00142115
0.00143564
0.00144993
0.001464
0.00147785
0.00149147
0.00150485
0.00151798
0.00153085
0.00154347
0.00155581
0.00156787
0.00157964
0.00159112
0.0016023
0.00161316
0.0016237
0.00163392
0.0016438
0.00165334
0.00166253
0.00167136
0.00167984
0.00168794
0.00169567
0.00170303
0.00170999
0.00171656
0.00172274
0.00172852
0.00173389
0.00173886
0.00174341
0.00174754
0.00175126
0.00175455
0.00175742
0.00175987
0.00176188
0.00176347
0.00176464
0.00176537
0.00176567
0.00176554
0.00176499
0.00176401
0.00176261
0.00176078
0.00175853
0.00175586
0.00175278
0.00174929
0.00174539
0.00174108
0.00173638
0.00173128
0.00172579
0.00171992
0.00171367
0.00170704
0.00170005
0.00169269
0.00168498
0.00167692
0.00166852
0.00165978
0.00165072
0.00164133
0.00163163
0.00162162
0.00161131
0.00160072
0.00158983
0.00157868
0.00156725
0.00155556
0.00154362
0.00153143
0.00151901
0.00150635
0.00149348
0.00148038
0.00146708
0.00145358
0.00143989
0.00142601
0.00141195
0.00139772
0.00138333
0.00136878
0.00135408
0.00133923
0.00132425
0.00130914
0.0012939
0.00127854
0.00126307
0.0012475
0.00123182
0.00121605
0.00120019
0.00118424
0.00116822
0.00115211
0.00113594
0.00111971
0.00110341
0.00108706
0.00107065
0.0010542
0.0010377
0.00102116
0.00100458
0.000987972
0.000971331
0.000954664
0.000937973
0.00092126
0.000904529
0.000887782
0.000871021
0.00085425
0.000837469
0.000820682
0.00080389
0.000787096
0.0007703
0.000753504
0.000736711
0.000719921
0.000703136
0.000686357
0.000669585
0.000652821
0.000636066
0.000619322
0.000602587
0.000585865
0.000569154
0.000552455
0.00053577
0.000519097
0.000502438
0.000485793
0.000469162
0.000452545
0.000435942
0.000419352
0.000402777
0.000386216
0.000369668
0.000353133
0.000336612
0.000320103
0.000303607
0.000287123
0.00027065
0.000254188
0.000237737
0.000221296
0.000204864
0.000188442
0.000172027
0.00015562
0.00013922
0.000122826
0.000106438
9.00547e-05
7.36755e-05
5.72997e-05
4.09265e-05
2.45551e-05
8.18492e-06
2.55491e-05
7.66488e-05
0.000127753
0.000178864
0.000229986
0.000281121
0.000332271
0.000383441
0.000434632
0.000485847
0.000537088
0.00058836
0.000639663
0.000691
0.000742374
0.000793786
0.00084524
0.000896736
0.000948277
0.000999864
0.0010515
0.00110318
0.00115492
0.0012067
0.00125854
0.00131043
0.00136238
0.00141438
0.00146643
0.00151853
0.00157069
0.0016229
0.00167516
0.00172748
0.00177984
0.00183225
0.0018847
0.00193719
0.00198972
0.00204229
0.00209489
0.00214752
0.00220018
0.00225285
0.00230554
0.00235824
0.00241094
0.00246364
0.00251632
0.00256899
0.00262164
0.00267425
0.00272682
0.00277933
0.00283179
0.00288418
0.00293648
0.00298869
0.0030408
0.00309278
0.00314464
0.00319635
0.00324791
0.00329929
0.00335049
0.00340148
0.00345226
0.0035028
0.00355308
0.00360309
0.00365282
0.00370223
0.00375132
0.00380006
0.00384844
0.00389642
0.00394399
0.00399114
0.00403782
0.00408404
0.00412975
0.00417494
0.00421958
0.00426366
0.00430714
0.00435
0.00439222
0.00443378
0.00447464
0.00451479
0.00455419
0.00459283
0.00463068
0.00466771
0.0047039
0.00473923
0.00477367
0.0048072
0.00483979
0.00487143
0.00490208
0.00493173
0.00496036
0.00498794
0.00501445
0.00503988
0.0050642
0.0050874
0.00510946
0.00513036
0.00515009
0.00516863
0.00518597
0.00520209
0.00521698
0.00523064
0.00524304
0.00525419
0.00526408
0.00527269
0.00528003
0.00528608
0.00529085
0.00529433
0.00529653
0.00529744
0.00529706
0.0052954
0.00529246
0.00528824
0.00528275
0.00527601
0.005268
0.00525876
0.00524827
0.00523657
0.00522365
0.00520954
0.00519424
0.00517776
0.00516014
0.00514137
0.00512149
0.0051005
0.00507843
0.00505529
0.0050311
0.00500589
0.00497967
0.00495246
0.00492429
0.00489519
0.00486516
0.00483423
0.00480243
0.00476978
0.00473629
0.00470201
0.00466693
0.0046311
0.00459453
0.00455725
0.00451928
0.00448064
0.00444135
0.00440144
0.00436093
0.00431984
0.0042782
0.00423602
0.00419332
0.00415014
0.00410648
0.00406237
0.00401783
0.00397288
0.00392753
0.00388181
0.00383574
0.00378932
0.00374259
0.00369556
0.00364824
0.00360064
0.0035528
0.00350471
0.00345641
0.00340789
0.00335917
0.00331028
0.00326121
0.00321199
0.00316263
0.00311313
0.0030635
0.00301377
0.00296394
0.00291402
0.00286401
0.00281393
0.00276379
0.0027136
0.00266335
0.00261307
0.00256275
0.00251241
0.00246205
0.00241167
0.00236128
0.00231089
0.00226051
0.00221013
0.00215975
0.0021094
0.00205906
0.00200874
0.00195845
0.00190819
0.00185795
0.00180775
0.00175758
0.00170744
0.00165735
0.00160729
0.00155727
0.0015073
0.00145736
0.00140747
0.00135762
0.00130781
0.00125804
0.00120832
0.00115863
0.00110899
0.00105938
0.00100982
0.000960295
0.000910807
0.000861354
0.000811937
0.000762552
0.0007132
0.000663877
0.000614583
0.000565315
0.000516072
0.000466852
0.000417653
0.000368473
0.000319309
0.00027016
0.000221023
0.000171896
0.000122777
7.36642e-05
2.45543e-05
4.25802e-05
0.000127743
0.000212913
0.000298096
0.000383295
0.000468517
0.000553765
0.000639044
0.000724359
0.000809715
0.000895115
0.000980564
0.00106607
0.00115163
0.00123725
0.00132293
0.00140869
0.00149451
0.00158041
0.00166639
0.00175244
0.00183858
0.00192481
0.00201111
0.00209751
0.002184
0.00227057
0.00235723
0.00244399
0.00253083
0.00261776
0.00270478
0.00279189
0.00287908
0.00296635
0.00305369
0.00314112
0.00322861
0.00331617
0.00340379
0.00349146
0.00357918
0.00366694
0.00375474
0.00384256
0.00393039
0.00401824
0.00410607
0.00419389
0.00428168
0.00436943
0.00445713
0.00454475
0.00463229
0.00471973
0.00480705
0.00489424
0.00498127
0.00506812
0.00515478
0.00524123
0.00532743
0.00541338
0.00549903
0.00558438
0.00566938
0.00575403
0.00583828
0.0059221
0.00600548
0.00608837
0.00617076
0.00625259
0.00633385
0.00641449
0.00649449
0.0065738
0.0066524
0.00673024
0.00680728
0.0068835
0.00695884
0.00703327
0.00710676
0.00717926
0.00725072
0.00732112
0.0073904
0.00745853
0.00752547
0.00759117
0.0076556
0.0077187
0.00778045
0.0078408
0.00789971
0.00795713
0.00801304
0.00806739
0.00812014
0.00817125
0.00822069
0.00826843
0.00831442
0.00835863
0.00840103
0.00844159
0.00848028
0.00851706
0.00855191
0.00858481
0.00861572
0.00864463
0.00867151
0.00869635
0.00871912
0.0087398
0.00875839
0.00877488
0.00878924
0.00880147
0.00881156
0.00881951
0.00882532
0.00882898
0.00883049
0.00882986
0.00882708
0.00882218
0.00881514
0.00880599
0.00879473
0.00878139
0.00876597
0.00874848
0.00872896
0.00870742
0.00868388
0.00865836
0.00863089
0.0086015
0.0085702
0.00853704
0.00850204
0.00846523
0.00842664
0.00838631
0.00834426
0.00830054
0.00825517
0.0082082
0.00815966
0.00810959
0.00805802
0.00800499
0.00795055
0.00789472
0.00783754
0.00777907
0.00771932
0.00765835
0.00759619
0.00753287
0.00746844
0.00740294
0.0073364
0.00726886
0.00720035
0.00713092
0.00706059
0.00698942
0.00691742
0.00684463
0.00677109
0.00669684
0.00662189
0.0065463
0.00647008
0.00639327
0.00631589
0.00623799
0.00615958
0.00608069
0.00600135
0.0059216
0.00584144
0.00576091
0.00568003
0.00559883
0.00551732
0.00543553
0.00535348
0.00527119
0.00518868
0.00510596
0.00502306
0.00494
0.00485678
0.00477343
0.00468996
0.00460638
0.00452271
0.00443897
0.00435515
0.00427128
0.00418737
0.00410343
0.00401946
0.00393547
0.00385149
0.0037675
0.00368353
0.00359957
0.00351564
0.00343174
0.00334788
0.00326405
0.00318027
0.00309655
0.00301287
0.00292926
0.0028457
0.0027622
0.00267878
0.00259541
0.00251212
0.00242889
0.00234573
0.00226265
0.00217963
0.00209669
0.00201381
0.00193101
0.00184827
0.0017656
0.00168299
0.00160045
0.00151797
0.00143555
0.00135319
0.00127088
0.00118863
0.00110643
0.00102427
0.000942164
0.000860095
0.000778064
0.000696067
0.000614102
0.000532165
0.000450252
0.00036836
0.000286485
0.000204622
0.00012277
4.09226e-05
5.96089e-05
0.00017883
0.000298062
0.00041731
0.000536583
0.000655886
0.000775227
0.000894611
0.00101405
0.00113354
0.00125309
0.00137272
0.00149241
0.00161219
0.00173206
0.00185201
0.00197206
0.00209221
0.00221247
0.00233283
0.00245331
0.0025739
0.00269461
0.00281544
0.00293639
0.00305747
0.00317867
0.0033
0.00342146
0.00354304
0.00366474
0.00378657
0.00390852
0.00403059
0.00415277
0.00427507
0.00439746
0.00451996
0.00464255
0.00476523
0.00488798
0.0050108
0.00513367
0.0052566
0.00537956
0.00550254
0.00562554
0.00574852
0.00587149
0.00599441
0.00611728
0.00624007
0.00636277
0.00648535
0.00660779
0.00673006
0.00685215
0.00697402
0.00709565
0.007217
0.00733805
0.00745877
0.00757913
0.00769908
0.0078186
0.00793765
0.00805619
0.00817418
0.00829158
0.00840835
0.00852444
0.00863982
0.00875444
0.00886824
0.0089812
0.00909324
0.00920433
0.00931442
0.00942344
0.00953136
0.00963811
0.00974365
0.00984791
0.00995085
0.0100524
0.0101525
0.0102511
0.0103482
0.0104436
0.0105374
0.0106294
0.0107197
0.0108081
0.0108946
0.0109791
0.0110617
0.0111421
0.0112204
0.0112966
0.0113705
0.0114421
0.0115114
0.0115782
0.0116427
0.0117046
0.011764
0.0118208
0.011875
0.0119266
0.0119754
0.0120215
0.0120648
0.0121053
0.012143
0.0121778
0.0122097
0.0122387
0.0122647
0.0122878
0.0123079
0.012325
0.0123392
0.0123503
0.0123585
0.0123636
0.0123657
0.0123648
0.0123609
0.012354
0.0123442
0.0123313
0.0123156
0.0122969
0.0122752
0.0122507
0.0122234
0.0121932
0.0121602
0.0121244
0.0120859
0.0120448
0.0120009
0.0119544
0.0119054
0.0118538
0.0117997
0.0117432
0.0116843
0.0116231
0.0115595
0.0114937
0.0114257
0.0113555
0.0112833
0.011209
0.0111327
0.0110545
0.0109744
0.0108925
0.0108088
0.0107234
0.0106363
0.0105476
0.0104573
0.0103656
0.0102724
0.0101777
0.0100818
0.00998453
0.00988603
0.00978633
0.00968548
0.00958354
0.00948054
0.00937653
0.00927157
0.00916569
0.00905894
0.00895136
0.008843
0.00873389
0.00862408
0.0085136
0.00840249
0.00829079
0.00817854
0.00806576
0.0079525
0.00783878
0.00772464
0.00761011
0.00749521
0.00737997
0.00726443
0.00714861
0.00703253
0.00691621
0.00679969
0.00668297
0.00656609
0.00644906
0.00633191
0.00621465
0.00609729
0.00597986
0.00586237
0.00574483
0.00562726
0.00550967
0.00539208
0.00527449
0.00515692
0.00503937
0.00492186
0.00480439
0.00468697
0.00456961
0.00445232
0.00433509
0.00421794
0.00410088
0.00398389
0.003867
0.00375019
0.00363348
0.00351687
0.00340035
0.00328393
0.00316761
0.00305139
0.00293527
0.00281924
0.00270331
0.00258748
0.00247174
0.0023561
0.00224054
0.00212507
0.00200969
0.00189439
0.00177916
0.00166401
0.00154894
0.00143392
0.00131897
0.00120408
0.00108924
0.000974451
0.000859704
0.000744997
0.000630324
0.00051568
0.00040106
0.000286458
0.00017187
5.7289e-05
7.6634e-05
0.000229907
0.000383193
0.000536501
0.00068984
0.000843218
0.000996645
0.00115013
0.00130368
0.0014573
0.001611
0.00176479
0.00191868
0.00207267
0.00222677
0.00238099
0.00253533
0.0026898
0.00284441
0.00299916
0.00315405
0.00330909
0.00346429
0.00361964
0.00377514
0.00393081
0.00408665
0.00424264
0.0043988
0.00455512
0.0047116
0.00486824
0.00502504
0.00518199
0.00533909
0.00549633
0.00565371
0.00581122
0.00596885
0.00612658
0.00628442
0.00644235
0.00660036
0.00675842
0.00691654
0.00707468
0.00723284
0.00739099
0.00754912
0.0077072
0.0078652
0.00802312
0.00818091
0.00833855
0.00849601
0.00865326
0.00881027
0.00896701
0.00912344
0.00927952
0.00943521
0.00959048
0.00974528
0.00989956
0.0100533
0.0102064
0.0103589
0.0105107
0.0106617
0.0108119
0.0109612
0.0111096
0.0112571
0.0114035
0.0115488
0.0116929
0.0118359
0.0119775
0.0121178
0.0122566
0.0123939
0.0125297
0.0126639
0.0127963
0.012927
0.0130558
0.0131827
0.0133076
0.0134304
0.013551
0.0136695
0.0137856
0.0138994
0.0140107
0.0141195
0.0142257
0.0143292
0.01443
0.014528
0.0146231
0.0147153
0.0148044
0.0148905
0.0149734
0.0150531
0.0151296
0.0152027
0.0152725
0.0153388
0.0154017
0.015461
0.0155167
0.0155688
0.0156173
0.0156621
0.0157032
0.0157405
0.015774
0.0158037
0.0158296
0.0158516
0.0158698
0.0158841
0.0158946
0.0159012
0.0159039
0.0159027
0.0158977
0.0158888
0.0158761
0.0158596
0.0158393
0.0158152
0.0157874
0.0157558
0.0157206
0.0156818
0.0156393
0.0155932
0.0155437
0.0154907
0.0154342
0.0153744
0.0153113
0.0152449
0.0151753
0.0151025
0.0150267
0.0149479
0.0148661
0.0147814
0.0146938
0.0146035
0.0145106
0.014415
0.0143168
0.0142161
0.0141131
0.0140076
0.0138999
0.01379
0.013678
0.0135638
0.0134477
0.0133297
0.0132097
0.013088
0.0129645
0.0128394
0.0127127
0.0125844
0.0124547
0.0123235
0.012191
0.0120572
0.0119222
0.011786
0.0116486
0.0115102
0.0113708
0.0112305
0.0110892
0.0109471
0.0108042
0.0106605
0.0105162
0.0103711
0.0102254
0.0100792
0.00993236
0.00978505
0.00963728
0.00948907
0.00934047
0.00919151
0.00904222
0.00889263
0.00874278
0.00859268
0.00844237
0.00829188
0.00814122
0.00799042
0.0078395
0.00768849
0.00753741
0.00738626
0.00723508
0.00708388
0.00693267
0.00678146
0.00663028
0.00647913
0.00632803
0.00617698
0.00602601
0.0058751
0.00572429
0.00557356
0.00542293
0.00527241
0.005122
0.0049717
0.00482152
0.00467146
0.00452152
0.00437171
0.00422203
0.00407247
0.00392305
0.00377375
0.00362457
0.00347552
0.0033266
0.0031778
0.00302912
0.00288055
0.0027321
0.00258375
0.00243551
0.00228737
0.00213933
0.00199138
0.00184351
0.00169572
0.00154801
0.00140037
0.00125279
0.00110527
0.000957796
0.000810367
0.000662977
0.000515617
0.000368281
0.000220962
7.36528e-05
9.36548e-05
0.00028097
0.000468301
0.00065566
0.000843056
0.0010305
0.00121801
0.00140558
0.00159323
0.00178098
0.00196882
0.00215677
0.00234484
0.00253304
0.00272137
0.00290985
0.00309848
0.00328726
0.00347622
0.00366534
0.00385465
0.00404413
0.00423381
0.00442368
0.00461374
0.004804
0.00499446
0.00518512
0.00537598
0.00556704
0.0057583
0.00594976
0.00614141
0.00633324
0.00652526
0.00671746
0.00690983
0.00710235
0.00729503
0.00748784
0.00768078
0.00787383
0.00806697
0.0082602
0.00845348
0.00864681
0.00884015
0.00903349
0.0092268
0.00942005
0.00961322
0.00980628
0.00999919
0.0101919
0.0103844
0.0105767
0.0107687
0.0109603
0.0111516
0.0113424
0.0115328
0.0117226
0.0119119
0.0121006
0.0122886
0.0124758
0.0126623
0.0128479
0.0130326
0.0132163
0.0133989
0.0135805
0.0137608
0.0139398
0.0141176
0.0142939
0.0144687
0.0146419
0.0148135
0.0149833
0.0151513
0.0153174
0.0154815
0.0156436
0.0158034
0.015961
0.0161162
0.016269
0.0164193
0.0165669
0.0167118
0.0168539
0.0169931
0.0171293
0.0172624
0.0173924
0.0175191
0.0176424
0.0177623
0.0178787
0.0179915
0.0181006
0.0182059
0.0183074
0.0184049
0.0184985
0.018588
0.0186734
0.0187545
0.0188314
0.018904
0.0189722
0.019036
0.0190953
0.0191501
0.0192004
0.019246
0.019287
0.0193234
0.0193551
0.0193821
0.0194043
0.0194218
0.0194346
0.0194427
0.019446
0.0194445
0.0194384
0.0194275
0.0194119
0.0193917
0.0193668
0.0193373
0.0193033
0.0192646
0.0192215
0.0191739
0.0191219
0.0190656
0.0190049
0.01894
0.0188709
0.0187977
0.0187204
0.0186392
0.018554
0.0184649
0.0183721
0.0182756
0.0181755
0.0180719
0.0179648
0.0178543
0.0177405
0.0176235
0.0175034
0.0173802
0.0172541
0.0171251
0.0169933
0.0168588
0.0167217
0.0165821
0.01644
0.0162956
0.0161489
0.016
0.0158489
0.0156959
0.0155408
0.0153839
0.0152252
0.0150648
0.0149027
0.0147391
0.0145739
0.0144073
0.0142394
0.0140701
0.0138997
0.013728
0.0135553
0.0133815
0.0132067
0.013031
0.0128545
0.0126771
0.0124989
0.0123201
0.0121406
0.0119605
0.0117798
0.0115986
0.0114169
0.0112347
0.0110522
0.0108693
0.0106861
0.0105026
0.0103188
0.0101349
0.00995067
0.00976631
0.00958182
0.00939721
0.00921251
0.00902774
0.00884293
0.00865809
0.00847325
0.00828841
0.00810361
0.00791885
0.00773415
0.00754952
0.00736497
0.00718052
0.00699617
0.00681193
0.00662782
0.00644384
0.00625999
0.00607628
0.00589272
0.00570931
0.00552605
0.00534295
0.00516
0.00497721
0.00479458
0.0046121
0.00442978
0.00424761
0.0040656
0.00388374
0.00370202
0.00352044
0.00333901
0.0031577
0.00297653
0.00279548
0.00261455
0.00243373
0.00225301
0.0020724
0.00189187
0.00171144
0.00153107
0.00135078
0.00117055
0.000990373
0.000810243
0.00063015
0.000450086
0.000270043
9.00131e-05
0.00011067
0.000332017
0.000553383
0.000774781
0.000996224
0.00121773
0.0014393
0.00166095
0.0018827
0.00210455
0.00232653
0.00254863
0.00277087
0.00299327
0.00321582
0.00343855
0.00366146
0.00388456
0.00410785
0.00433135
0.00455506
0.00477899
0.00500314
0.00522752
0.00545213
0.00567698
0.00590206
0.00612739
0.00635295
0.00657876
0.0068048
0.00703107
0.00725758
0.00748431
0.00771126
0.00793842
0.00816578
0.00839334
0.00862107
0.00884897
0.00907702
0.00930521
0.00953351
0.00976191
0.00999039
0.0102189
0.0104475
0.010676
0.0109045
0.011133
0.0113614
0.0115896
0.0118176
0.0120455
0.0122731
0.0125004
0.0127274
0.012954
0.0131801
0.0134058
0.0136309
0.0138554
0.0140792
0.0143023
0.0145246
0.0147461
0.0149666
0.0151861
0.0154045
0.0156217
0.0158378
0.0160524
0.0162657
0.0164775
0.0166878
0.0168963
0.0171031
0.017308
0.017511
0.0177119
0.0179106
0.0181072
0.0183013
0.018493
0.0186821
0.0188686
0.0190522
0.019233
0.0194108
0.0195855
0.019757
0.0199251
0.0200898
0.020251
0.0204085
0.0205623
0.0207123
0.0208582
0.0210001
0.0211379
0.0212714
0.0214005
0.0215251
0.0216452
0.0217607
0.0218715
0.0219774
0.0220784
0.0221745
0.0222655
0.0223514
0.0224322
0.0225077
0.0225779
0.0226428
0.0227022
0.0227562
0.0228048
0.0228478
0.0228853
0.0229172
0.0229435
0.0229643
0.0229794
0.0229889
0.0229928
0.0229911
0.0229838
0.0229709
0.0229524
0.0229285
0.022899
0.022864
0.0228237
0.0227779
0.0227269
0.0226705
0.0226089
0.0225422
0.0224704
0.0223935
0.0223117
0.022225
0.0221336
0.0220374
0.0219365
0.0218311
0.0217213
0.021607
0.0214885
0.0213658
0.0212391
0.0211083
0.0209736
0.0208352
0.020693
0.0205472
0.020398
0.0202453
0.0200894
0.0199303
0.0197681
0.0196028
0.0194347
0.0192638
0.0190903
0.0189141
0.0187354
0.0185543
0.0183709
0.0181853
0.0179975
0.0178078
0.0176161
0.0174225
0.0172271
0.0170301
0.0168314
0.0166313
0.0164296
0.0162266
0.0160223
0.0158168
0.0156101
0.0154024
0.0151936
0.0149838
0.0147732
0.0145617
0.0143494
0.0141364
0.0139228
0.0137085
0.0134937
0.0132784
0.0130626
0.0128463
0.0126297
0.0124128
0.0121955
0.011978
0.0117603
0.0115423
0.0113242
0.011106
0.0108877
0.0106693
0.0104508
0.0102323
0.0100138
0.00979534
0.0095769
0.00935851
0.00914019
0.00892196
0.00870384
0.00848582
0.00826794
0.00805018
0.00783258
0.00761513
0.00739784
0.00718072
0.00696378
0.00674701
0.00653043
0.00631403
0.00609781
0.00588179
0.00566595
0.0054503
0.00523483
0.00501955
0.00480445
0.00458953
0.00437478
0.0041602
0.00394579
0.00373153
0.00351743
0.00330347
0.00308966
0.00287598
0.00266242
0.00244898
0.00223565
0.00202242
0.00180929
0.00159623
0.00138325
0.00117033
0.000957471
0.000744653
0.000531871
0.000319112
0.000106369
0.000127679
0.000383044
0.000638432
0.000893857
0.00114933
0.00140488
0.0016605
0.00191623
0.00217206
0.00242801
0.00268411
0.00294035
0.00319676
0.00345334
0.00371011
0.00396707
0.00422425
0.00448165
0.00473927
0.00499714
0.00525525
0.00551361
0.00577224
0.00603113
0.00629029
0.00654972
0.00680943
0.00706942
0.00732969
0.00759024
0.00785106
0.00811216
0.00837353
0.00863516
0.00889704
0.00915918
0.00942155
0.00968414
0.00994695
0.0102099
0.0104731
0.0107365
0.011
0.0112635
0.0115272
0.011791
0.0120548
0.0123186
0.0125823
0.012846
0.0131096
0.0133731
0.0136363
0.0138993
0.0141621
0.0144245
0.0146865
0.0149481
0.0152092
0.0154697
0.0157296
0.0159888
0.0162472
0.0165048
0.0167615
0.0170172
0.0172718
0.0175253
0.0177775
0.0180284
0.0182779
0.0185258
0.0187722
0.0190168
0.0192596
0.0195005
0.0197393
0.019976
0.0202105
0.0204426
0.0206722
0.0208992
0.0211235
0.021345
0.0215635
0.0217789
0.0219911
0.0222
0.0224054
0.0226073
0.0228054
0.0229997
0.0231901
0.0233764
0.0235584
0.0237361
0.0239094
0.0240781
0.0242421
0.0244013
0.0245556
0.0247048
0.0248489
0.0249878
0.0251212
0.0252492
0.0253717
0.0254885
0.0255995
0.0257047
0.025804
0.0258974
0.0259846
0.0260658
0.0261408
0.0262095
0.0262719
0.026328
0.0263777
0.0264211
0.0264579
0.0264884
0.0265123
0.0265297
0.0265407
0.0265452
0.0265432
0.0265347
0.0265198
0.0264984
0.0264707
0.0264366
0.0263962
0.0263495
0.0262966
0.0262375
0.0261723
0.0261011
0.0260239
0.0259409
0.025852
0.0257574
0.0256572
0.0255514
0.0254402
0.0253236
0.0252018
0.0250748
0.0249427
0.0248057
0.0246639
0.0245174
0.0243662
0.0242106
0.0240505
0.0238862
0.0237178
0.0235453
0.0233689
0.0231887
0.0230048
0.0228174
0.0226265
0.0224322
0.0222348
0.0220342
0.0218307
0.0216242
0.021415
0.0212032
0.0209888
0.0207719
0.0205527
0.0203312
0.0201076
0.019882
0.0196544
0.019425
0.0191938
0.018961
0.0187266
0.0184906
0.0182533
0.0180146
0.0177747
0.0175336
0.0172914
0.0170482
0.016804
0.016559
0.0163131
0.0160664
0.0158191
0.0155711
0.0153225
0.0150734
0.0148238
0.0145737
0.0143233
0.0140725
0.0138214
0.0135701
0.0133185
0.0130668
0.0128149
0.0125629
0.0123108
0.0120587
0.0118065
0.0115544
0.0113022
0.0110501
0.0107981
0.0105462
0.0102943
0.0100426
0.00979101
0.00953957
0.00928829
0.00903719
0.00878626
0.00853553
0.00828499
0.00803466
0.00778453
0.00753462
0.00728492
0.00703544
0.00678618
0.00653714
0.00628831
0.0060397
0.00579131
0.00554312
0.00529515
0.00504737
0.00479979
0.00455241
0.0043052
0.00405818
0.00381133
0.00356464
0.0033181
0.00307171
0.00282546
0.00257933
0.00233332
0.00208742
0.00184161
0.00159589
0.00135024
0.00110465
0.000859122
0.00061363
0.000368167
0.00012272
0.00014468
0.000434049
0.000723443
0.00101288
0.00130238
0.00159195
0.00188162
0.00217139
0.00246129
0.00275133
0.00304153
0.0033319
0.00362246
0.00391322
0.00420419
0.00449539
0.00478682
0.00507851
0.00537046
0.00566268
0.00595519
0.00624798
0.00654107
0.00683446
0.00712817
0.00742219
0.00771652
0.00801117
0.00830615
0.00860144
0.00889705
0.00919297
0.00948921
0.00978574
0.0100826
0.0103797
0.0106771
0.0109747
0.0112726
0.0115707
0.0118691
0.0121676
0.0124663
0.0127651
0.013064
0.013363
0.0136621
0.0139611
0.0142602
0.0145592
0.014858
0.0151567
0.0154552
0.0157535
0.0160514
0.0163489
0.0166461
0.0169427
0.0172388
0.0175342
0.017829
0.018123
0.0184161
0.0187082
0.0189994
0.0192894
0.0195783
0.0198658
0.0201519
0.0204365
0.0207196
0.0210009
0.0212803
0.0215579
0.0218334
0.0221067
0.0223777
0.0226463
0.0229124
0.0231758
0.0234364
0.023694
0.0239486
0.0241999
0.0244479
0.0246924
0.0249333
0.0251704
0.0254036
0.0256328
0.0258577
0.0260783
0.0262944
0.0265059
0.0267126
0.0269144
0.0271112
0.0273027
0.0274889
0.0276697
0.0278449
0.0280144
0.028178
0.0283356
0.0284872
0.0286325
0.0287716
0.0289042
0.0290303
0.0291498
0.0292626
0.0293686
0.0294677
0.0295599
0.029645
0.029723
0.0297939
0.0298576
0.0299141
0.0299633
0.0300051
0.0300397
0.0300668
0.0300866
0.030099
0.0301041
0.0301018
0.0300921
0.0300751
0.0300508
0.0300193
0.0299805
0.0299346
0.0298815
0.0298214
0.0297542
0.0296802
0.0295992
0.0295116
0.0294172
0.0293162
0.0292088
0.0290949
0.0289747
0.0288484
0.0287159
0.0285776
0.0284333
0.0282833
0.0281278
0.0279667
0.0278003
0.0276286
0.0274519
0.0272702
0.0270836
0.0268923
0.0266965
0.0264962
0.0262917
0.0260829
0.0258701
0.0256534
0.0254329
0.0252088
0.0249812
0.0247501
0.0245159
0.0242784
0.024038
0.0237947
0.0235486
0.0232998
0.0230486
0.0227949
0.0225389
0.0222807
0.0220204
0.0217581
0.0214939
0.021228
0.0209603
0.0206911
0.0204204
0.0201483
0.0198748
0.0196001
0.0193242
0.0190473
0.0187694
0.0184905
0.0182108
0.0179303
0.017649
0.0173671
0.0170846
0.0168016
0.0165181
0.0162341
0.0159498
0.0156651
0.0153801
0.0150949
0.0148095
0.014524
0.0142383
0.0139525
0.0136666
0.0133808
0.0130949
0.0128091
0.0125233
0.0122376
0.011952
0.0116665
0.0113812
0.011096
0.010811
0.0105262
0.0102416
0.0099572
0.00967302
0.00938906
0.00910533
0.00882184
0.0085386
0.0082556
0.00797285
0.00769036
0.00740811
0.00712611
0.00684436
0.00656286
0.00628159
0.00600056
0.00571977
0.00543919
0.00515884
0.0048787
0.00459876
0.00431902
0.00403946
0.00376008
0.00348087
0.00320181
0.00292289
0.00264411
0.00236545
0.0020869
0.00180845
0.00153008
0.00125179
0.00097355
0.00069536
0.000417203
0.000139066
0.000161673
0.000485028
0.000808412
0.00113184
0.00145534
0.00177893
0.00210262
0.00242643
0.00275039
0.0030745
0.00339879
0.00372327
0.00404796
0.00437288
0.00469804
0.00502346
0.00534914
0.00567511
0.00600138
0.00632795
0.00665483
0.00698205
0.0073096
0.00763749
0.00796573
0.00829433
0.00862329
0.0089526
0.00928228
0.00961232
0.00994272
0.0102735
0.0106046
0.010936
0.0112678
0.0115999
0.0119324
0.0122651
0.0125981
0.0129313
0.0132648
0.0135985
0.0139325
0.0142665
0.0146007
0.014935
0.0152694
0.0156037
0.0159381
0.0162724
0.0166066
0.0169406
0.0172744
0.0176079
0.017941
0.0182738
0.0186061
0.0189379
0.019269
0.0195995
0.0199292
0.020258
0.0205859
0.0209127
0.0212384
0.0215628
0.021886
0.0222077
0.0225278
0.0228462
0.0231629
0.0234777
0.0237904
0.024101
0.0244093
0.0247152
0.0250185
0.0253192
0.025617
0.0259118
0.0262035
0.0264919
0.0267768
0.0270582
0.0273359
0.0276096
0.0278793
0.0281448
0.0284059
0.0286625
0.0289144
0.0291614
0.0294034
0.0296402
0.0298717
0.0300977
0.0303181
0.0305326
0.0307412
0.0309437
0.0311399
0.0313297
0.031513
0.0316896
0.0318594
0.0320222
0.032178
0.0323265
0.0324678
0.0326017
0.032728
0.0328467
0.0329578
0.033061
0.0331563
0.0332438
0.0333232
0.0333945
0.0334577
0.0335128
0.0335597
0.0335983
0.0336287
0.0336509
0.0336647
0.0336704
0.0336677
0.0336568
0.0336378
0.0336105
0.0335751
0.0335316
0.0334801
0.0334206
0.0333531
0.0332779
0.0331949
0.0331041
0.0330059
0.0329001
0.0327869
0.0326665
0.0325389
0.0324042
0.0322627
0.0321143
0.0319592
0.0317976
0.0316296
0.0314553
0.0312748
0.0310884
0.0308961
0.0306982
0.0304946
0.0302857
0.0300715
0.0298522
0.0296279
0.0293988
0.029165
0.0289268
0.0286841
0.0284373
0.0281864
0.0279315
0.0276729
0.0274106
0.0271448
0.0268757
0.0266034
0.0263279
0.0260495
0.0257683
0.0254844
0.0251979
0.024909
0.0246177
0.0243242
0.0240286
0.0237311
0.0234316
0.0231304
0.0228276
0.0225231
0.0222172
0.0219099
0.0216013
0.0212916
0.0209807
0.0206688
0.0203559
0.0200422
0.0197276
0.0194124
0.0190964
0.0187799
0.0184629
0.0181453
0.0178274
0.017509
0.0171904
0.0168715
0.0165524
0.0162331
0.0159137
0.0155942
0.0152746
0.014955
0.0146354
0.0143159
0.0139964
0.013677
0.0133578
0.0130386
0.0127197
0.0124009
0.0120823
0.011764
0.0114458
0.0111279
0.0108103
0.0104929
0.0101758
0.00985891
0.00954233
0.00922603
0.00891002
0.00859428
0.00827883
0.00796366
0.00764877
0.00733416
0.00701982
0.00670575
0.00639194
0.00607838
0.00576507
0.00545199
0.00513915
0.00482653
0.00451411
0.0042019
0.00388987
0.00357801
0.00326632
0.00295478
0.00264338
0.0023321
0.00202093
0.00170985
0.00139886
0.00108793
0.000777058
0.00046622
0.000155404
0.000178656
0.000535978
0.000893332
0.00125074
0.00160822
0.0019658
0.0023235
0.00268133
0.00303932
0.00339749
0.00375585
0.00411443
0.00447324
0.00483231
0.00519164
0.00555126
0.00591118
0.00627142
0.00663198
0.00699289
0.00735415
0.00771578
0.00807778
0.00844017
0.00880294
0.00916612
0.00952969
0.00989367
0.0102581
0.0106228
0.010988
0.0113536
0.0117196
0.012086
0.0124527
0.0128199
0.0131873
0.0135551
0.0139233
0.0142917
0.0146604
0.0150293
0.0153985
0.0157678
0.0161373
0.0165069
0.0168766
0.0172464
0.0176161
0.0179857
0.0183553
0.0187247
0.0190938
0.0194626
0.0198311
0.0201992
0.0205667
0.0209337
0.0213
0.0216655
0.0220302
0.0223939
0.0227567
0.0231183
0.0234786
0.0238376
0.0241951
0.0245511
0.0249053
0.0252577
0.0256082
0.0259566
0.0263027
0.0266464
0.0269877
0.0273263
0.027662
0.0279948
0.0283245
0.0286509
0.0289738
0.0292931
0.0296087
0.0299202
0.0302277
0.0305308
0.0308295
0.0311235
0.0314127
0.0316969
0.0319759
0.0322495
0.0325175
0.0327799
0.0330363
0.0332867
0.0335308
0.0337685
0.0339996
0.0342239
0.0344413
0.0346516
0.0348547
0.0350503
0.0352385
0.0354189
0.0355915
0.0357561
0.0359127
0.036061
0.036201
0.0363326
0.0364556
0.03657
0.0366756
0.0367725
0.0368604
0.0369395
0.0370095
0.0370705
0.0371224
0.0371652
0.0371989
0.0372234
0.0372387
0.0372449
0.0372419
0.0372298
0.0372086
0.0371783
0.037139
0.0370908
0.0370336
0.0369676
0.0368928
0.0368093
0.0367172
0.0366166
0.0365077
0.0363904
0.0362649
0.0361314
0.0359899
0.0358407
0.0356837
0.0355193
0.0353474
0.0351683
0.0349821
0.0347889
0.034589
0.0343824
0.0341694
0.03395
0.0337245
0.033493
0.0332557
0.0330128
0.0327643
0.0325106
0.0322517
0.0319878
0.0317191
0.0314457
0.0311678
0.0308856
0.0305993
0.0303089
0.0300146
0.0297167
0.0294151
0.0291102
0.028802
0.0284908
0.0281765
0.0278594
0.0275396
0.0272172
0.0268924
0.0265653
0.0262361
0.0259047
0.0255714
0.0252363
0.0248994
0.024561
0.024221
0.0238796
0.0235369
0.023193
0.022848
0.0225019
0.0221549
0.021807
0.0214583
0.0211089
0.0207588
0.0204081
0.020057
0.0197053
0.0193533
0.019001
0.0186483
0.0182955
0.0179424
0.0175892
0.0172359
0.0168826