/*--------------------------------*- C++ -*----------------------------------*\
| =========                 |                                                 |
| \\      /  F ield         | OpenFOAM: The Open Source CFD Toolbox           |
|  \\    /   O peration     | Version:  v2012                                 |
|   \\  /    A nd           | Website:  www.openfoam.com                      |
|    \\/     M anipulation  |                                                 |
\*---------------------------------------------------------------------------*/
FoamFile
{
    version     2.0;
    format      ascii;
    class       volVectorField;
    location    "15";
    object      U;
}
// * * * * * * * * * * * * * * * * * * * * * * * * * * * * * * * * * * * * * //

dimensions      [0 1 -1 0 0 0 0];


internalField   nonuniform List<vector> 
65536
(
(0.000695175 -0.000695192 0)
(0.00208557 -0.000695235 0)
(0.00347608 -0.000695315 0)
(0.00486679 -0.000695434 0)
(0.00625778 -0.000695592 0)
(0.00764913 -0.000695789 0)
(0.00904091 -0.000696024 0)
(0.0104332 -0.000696297 0)
(0.0118261 -0.000696607 0)
(0.0132196 -0.000696954 0)
(0.0146139 -0.000697335 0)
(0.0160089 -0.00069775 0)
(0.0174048 -0.000698199 0)
(0.0188017 -0.000698679 0)
(0.0201995 -0.00069919 0)
(0.0215984 -0.000699729 0)
(0.0229984 -0.000700296 0)
(0.0243996 -0.000700888 0)
(0.0258019 -0.000701504 0)
(0.0272056 -0.000702142 0)
(0.0286105 -0.000702799 0)
(0.0300168 -0.000703474 0)
(0.0314244 -0.000704164 0)
(0.0328334 -0.000704866 0)
(0.0342438 -0.000705579 0)
(0.0356557 -0.000706298 0)
(0.037069 -0.000707022 0)
(0.0384838 -0.000707748 0)
(0.0399 -0.000708471 0)
(0.0413177 -0.000709189 0)
(0.0427368 -0.000709899 0)
(0.0441573 -0.000710597 0)
(0.0455792 -0.000711279 0)
(0.0470025 -0.000711941 0)
(0.048427 -0.000712579 0)
(0.0498528 -0.000713189 0)
(0.0512798 -0.000713766 0)
(0.0527079 -0.000714307 0)
(0.0541371 -0.000714806 0)
(0.0555672 -0.000715258 0)
(0.0569982 -0.000715659 0)
(0.0584299 -0.000716004 0)
(0.0598622 -0.000716287 0)
(0.0612951 -0.000716502 0)
(0.0627283 -0.000716644 0)
(0.0641618 -0.000716708 0)
(0.0655952 -0.000716687 0)
(0.0670286 -0.000716575 0)
(0.0684616 -0.000716367 0)
(0.0698942 -0.000716055 0)
(0.071326 -0.000715634 0)
(0.0727568 -0.000715096 0)
(0.0741865 -0.000714435 0)
(0.0756147 -0.000713644 0)
(0.0770412 -0.000712716 0)
(0.0784657 -0.000711644 0)
(0.0798879 -0.000710422 0)
(0.0813075 -0.000709041 0)
(0.0827242 -0.000707494 0)
(0.0841377 -0.000705774 0)
(0.0855475 -0.000703874 0)
(0.0869534 -0.000701785 0)
(0.0883549 -0.000699502 0)
(0.0897516 -0.000697015 0)
(0.0911431 -0.000694318 0)
(0.0925291 -0.000691403 0)
(0.093909 -0.000688263 0)
(0.0952824 -0.00068489 0)
(0.0966488 -0.000681277 0)
(0.0980077 -0.000677417 0)
(0.0993587 -0.000673303 0)
(0.100701 -0.000668928 0)
(0.102035 -0.000664285 0)
(0.103359 -0.000659367 0)
(0.104672 -0.000654168 0)
(0.105976 -0.000648683 0)
(0.107267 -0.000642904 0)
(0.108547 -0.000636827 0)
(0.109815 -0.000630445 0)
(0.11107 -0.000623755 0)
(0.11231 -0.000616751 0)
(0.113537 -0.00060943 0)
(0.114748 -0.000601786 0)
(0.115944 -0.000593817 0)
(0.117124 -0.00058552 0)
(0.118287 -0.000576892 0)
(0.119432 -0.000567931 0)
(0.120559 -0.000558635 0)
(0.121667 -0.000549004 0)
(0.122755 -0.000539036 0)
(0.123823 -0.000528732 0)
(0.12487 -0.000518092 0)
(0.125896 -0.000507119 0)
(0.126899 -0.000495812 0)
(0.12788 -0.000484176 0)
(0.128836 -0.000472212 0)
(0.129769 -0.000459925 0)
(0.130676 -0.000447319 0)
(0.131558 -0.0004344 0)
(0.132414 -0.000421171 0)
(0.133243 -0.000407641 0)
(0.134045 -0.000393815 0)
(0.134819 -0.000379701 0)
(0.135564 -0.000365308 0)
(0.13628 -0.000350644 0)
(0.136967 -0.000335719 0)
(0.137623 -0.000320543 0)
(0.138249 -0.000305126 0)
(0.138844 -0.000289479 0)
(0.139407 -0.000273614 0)
(0.139939 -0.000257543 0)
(0.140438 -0.000241278 0)
(0.140904 -0.000224834 0)
(0.141337 -0.000208223 0)
(0.141737 -0.000191458 0)
(0.142103 -0.000174556 0)
(0.142435 -0.000157529 0)
(0.142733 -0.000140392 0)
(0.142997 -0.000123162 0)
(0.143226 -0.000105853 0)
(0.143421 -8.84796e-05 0)
(0.14358 -7.10585e-05 0)
(0.143705 -5.3605e-05 0)
(0.143795 -3.61347e-05 0)
(0.143849 -1.86633e-05 0)
(0.143869 -1.2064e-06 0)
(0.143854 1.62205e-05 0)
(0.143804 3.36021e-05 0)
(0.14372 5.0923e-05 0)
(0.143601 6.81684e-05 0)
(0.143447 8.53233e-05 0)
(0.143259 0.000102373 0)
(0.143037 0.000119304 0)
(0.142782 0.000136102 0)
(0.142493 0.000152754 0)
(0.142171 0.000169246 0)
(0.141816 0.000185566 0)
(0.141428 0.000201702 0)
(0.141009 0.000217641 0)
(0.140557 0.000233374 0)
(0.140075 0.000248889 0)
(0.139562 0.000264176 0)
(0.139018 0.000279225 0)
(0.138444 0.000294027 0)
(0.137842 0.000308575 0)
(0.13721 0.00032286 0)
(0.13655 0.000336874 0)
(0.135862 0.000350612 0)
(0.135147 0.000364067 0)
(0.134405 0.000377233 0)
(0.133638 0.000390106 0)
(0.132845 0.000402681 0)
(0.132027 0.000414954 0)
(0.131185 0.000426923 0)
(0.130319 0.000438585 0)
(0.12943 0.000449937 0)
(0.128519 0.000460977 0)
(0.127586 0.000471706 0)
(0.126632 0.000482122 0)
(0.125657 0.000492225 0)
(0.124662 0.000502016 0)
(0.123649 0.000511496 0)
(0.122616 0.000520665 0)
(0.121566 0.000529526 0)
(0.120498 0.000538081 0)
(0.119413 0.000546332 0)
(0.118312 0.000554282 0)
(0.117196 0.000561934 0)
(0.116064 0.000569292 0)
(0.114918 0.000576359 0)
(0.113758 0.000583141 0)
(0.112585 0.00058964 0)
(0.111399 0.000595862 0)
(0.110202 0.000601812 0)
(0.108992 0.000607494 0)
(0.107771 0.000612914 0)
(0.10654 0.000618078 0)
(0.105299 0.00062299 0)
(0.104048 0.000627656 0)
(0.102788 0.000632083 0)
(0.101519 0.000636276 0)
(0.100243 0.000640241 0)
(0.0989581 0.000643984 0)
(0.0976664 0.000647511 0)
(0.0963678 0.000650829 0)
(0.0950629 0.000653943 0)
(0.0937519 0.00065686 0)
(0.0924352 0.000659586 0)
(0.0911133 0.000662128 0)
(0.0897865 0.000664491 0)
(0.0884552 0.000666681 0)
(0.0871197 0.000668705 0)
(0.0857802 0.00067057 0)
(0.0844372 0.00067228 0)
(0.083091 0.000673842 0)
(0.0817417 0.000675261 0)
(0.0803898 0.000676545 0)
(0.0790354 0.000677698 0)
(0.0776789 0.000678726 0)
(0.0763204 0.000679635 0)
(0.0749602 0.000680431 0)
(0.0735986 0.000681118 0)
(0.0722356 0.000681702 0)
(0.0708717 0.000682189 0)
(0.0695068 0.000682583 0)
(0.0681412 0.00068289 0)
(0.0667752 0.000683115 0)
(0.0654087 0.000683261 0)
(0.064042 0.000683335 0)
(0.0626753 0.00068334 0)
(0.0613086 0.000683282 0)
(0.0599421 0.000683164 0)
(0.0585759 0.00068299 0)
(0.0572101 0.000682766 0)
(0.0558448 0.000682494 0)
(0.0544801 0.00068218 0)
(0.053116 0.000681826 0)
(0.0517528 0.000681436 0)
(0.0503903 0.000681014 0)
(0.0490287 0.000680563 0)
(0.047668 0.000680088 0)
(0.0463083 0.00067959 0)
(0.0449496 0.000679073 0)
(0.043592 0.00067854 0)
(0.0422355 0.000677994 0)
(0.04088 0.000677438 0)
(0.0395257 0.000676875 0)
(0.0381725 0.000676306 0)
(0.0368205 0.000675736 0)
(0.0354696 0.000675165 0)
(0.0341198 0.000674597 0)
(0.0327712 0.000674033 0)
(0.0314237 0.000673476 0)
(0.0300773 0.000672927 0)
(0.028732 0.000672389 0)
(0.0273878 0.000671863 0)
(0.0260446 0.000671352 0)
(0.0247024 0.000670856 0)
(0.0233612 0.000670377 0)
(0.0220209 0.000669917 0)
(0.0206815 0.000669477 0)
(0.019343 0.000669059 0)
(0.0180053 0.000668663 0)
(0.0166684 0.000668291 0)
(0.0153322 0.000667943 0)
(0.0139967 0.000667622 0)
(0.0126617 0.000667326 0)
(0.0113274 0.000667058 0)
(0.00999353 0.000666819 0)
(0.00866014 0.000666607 0)
(0.00732714 0.000666425 0)
(0.00599447 0.000666273 0)
(0.00466208 0.00066615 0)
(0.00332991 0.000666059 0)
(0.00199788 0.000665997 0)
(0.000665951 0.000665966 0)
(0.000695139 -0.00208555 0)
(0.00208546 -0.00208567 0)
(0.00347589 -0.00208591 0)
(0.00486653 -0.00208627 0)
(0.00625744 -0.00208674 0)
(0.00764871 -0.00208733 0)
(0.00904042 -0.00208804 0)
(0.0104326 -0.00208886 0)
(0.0118254 -0.00208979 0)
(0.0132189 -0.00209083 0)
(0.0146131 -0.00209198 0)
(0.0160081 -0.00209322 0)
(0.0174039 -0.00209457 0)
(0.0188007 -0.00209601 0)
(0.0201985 -0.00209755 0)
(0.0215973 -0.00209917 0)
(0.0229973 -0.00210087 0)
(0.0243984 -0.00210265 0)
(0.0258007 -0.0021045 0)
(0.0272043 -0.00210641 0)
(0.0286092 -0.00210839 0)
(0.0300154 -0.00211041 0)
(0.031423 -0.00211248 0)
(0.032832 -0.00211459 0)
(0.0342425 -0.00211673 0)
(0.0356543 -0.00211889 0)
(0.0370677 -0.00212107 0)
(0.0384824 -0.00212325 0)
(0.0398987 -0.00212542 0)
(0.0413163 -0.00212758 0)
(0.0427355 -0.00212971 0)
(0.044156 -0.00213181 0)
(0.0455779 -0.00213386 0)
(0.0470012 -0.00213585 0)
(0.0484258 -0.00213777 0)
(0.0498517 -0.0021396 0)
(0.0512788 -0.00214134 0)
(0.0527069 -0.00214297 0)
(0.0541362 -0.00214447 0)
(0.0555664 -0.00214583 0)
(0.0569975 -0.00214704 0)
(0.0584293 -0.00214808 0)
(0.0598618 -0.00214893 0)
(0.0612948 -0.00214958 0)
(0.0627282 -0.00215001 0)
(0.0641618 -0.00215021 0)
(0.0655955 -0.00215015 0)
(0.067029 -0.00214983 0)
(0.0684623 -0.00214921 0)
(0.069895 -0.00214828 0)
(0.071327 -0.00214702 0)
(0.0727581 -0.00214541 0)
(0.074188 -0.00214344 0)
(0.0756165 -0.00214107 0)
(0.0770433 -0.00213829 0)
(0.0784681 -0.00213509 0)
(0.0798906 -0.00213142 0)
(0.0813106 -0.00212729 0)
(0.0827276 -0.00212265 0)
(0.0841414 -0.0021175 0)
(0.0855516 -0.00211181 0)
(0.0869578 -0.00210555 0)
(0.0883597 -0.00209871 0)
(0.0897569 -0.00209125 0)
(0.0911488 -0.00208317 0)
(0.0925352 -0.00207443 0)
(0.0939156 -0.00206502 0)
(0.0952894 -0.00205491 0)
(0.0966563 -0.00204408 0)
(0.0980158 -0.0020325 0)
(0.0993673 -0.00202017 0)
(0.10071 -0.00200705 0)
(0.102044 -0.00199313 0)
(0.103369 -0.00197838 0)
(0.104683 -0.00196279 0)
(0.105987 -0.00194634 0)
(0.107279 -0.00192901 0)
(0.10856 -0.00191078 0)
(0.109828 -0.00189164 0)
(0.111083 -0.00187158 0)
(0.112325 -0.00185057 0)
(0.113552 -0.00182861 0)
(0.114764 -0.00180568 0)
(0.115961 -0.00178178 0)
(0.117141 -0.00175689 0)
(0.118304 -0.00173101 0)
(0.11945 -0.00170412 0)
(0.120578 -0.00167624 0)
(0.121686 -0.00164734 0)
(0.122775 -0.00161744 0)
(0.123844 -0.00158653 0)
(0.124892 -0.00155461 0)
(0.125918 -0.00152168 0)
(0.126922 -0.00148776 0)
(0.127903 -0.00145285 0)
(0.128861 -0.00141696 0)
(0.129794 -0.00138009 0)
(0.130702 -0.00134227 0)
(0.131584 -0.0013035 0)
(0.132441 -0.00126381 0)
(0.133271 -0.00122321 0)
(0.134073 -0.00118173 0)
(0.134847 -0.00113938 0)
(0.135593 -0.00109619 0)
(0.13631 -0.00105219 0)
(0.136997 -0.0010074 0)
(0.137654 -0.000961863 0)
(0.13828 -0.0009156 0)
(0.138876 -0.000868648 0)
(0.139439 -0.00082104 0)
(0.139971 -0.000772815 0)
(0.140471 -0.000724009 0)
(0.140937 -0.000674662 0)
(0.141371 -0.000624814 0)
(0.141771 -0.000574508 0)
(0.142137 -0.000523785 0)
(0.14247 -0.000472689 0)
(0.142768 -0.000421266 0)
(0.143032 -0.000369559 0)
(0.143261 -0.000317615 0)
(0.143455 -0.000265481 0)
(0.143615 -0.000213202 0)
(0.14374 -0.000160826 0)
(0.14383 -0.000108399 0)
(0.143884 -5.59695e-05 0)
(0.143904 -3.5832e-06 0)
(0.143889 4.8713e-05 0)
(0.143839 0.000100873 0)
(0.143754 0.000152851 0)
(0.143635 0.000204601 0)
(0.143481 0.000256081 0)
(0.143293 0.000307245 0)
(0.143071 0.000358051 0)
(0.142815 0.000408459 0)
(0.142526 0.000458426 0)
(0.142203 0.000507915 0)
(0.141848 0.000556887 0)
(0.14146 0.000605306 0)
(0.14104 0.000653137 0)
(0.140589 0.000700345 0)
(0.140106 0.000746899 0)
(0.139592 0.000792769 0)
(0.139048 0.000837926 0)
(0.138474 0.000882342 0)
(0.13787 0.000925993 0)
(0.137238 0.000968854 0)
(0.136578 0.0010109 0)
(0.135889 0.00105212 0)
(0.135174 0.00109249 0)
(0.134431 0.001132 0)
(0.133663 0.00117062 0)
(0.13287 0.00120835 0)
(0.132051 0.00124517 0)
(0.131208 0.00128108 0)
(0.130342 0.00131607 0)
(0.129452 0.00135012 0)
(0.12854 0.00138325 0)
(0.127607 0.00141543 0)
(0.126652 0.00144668 0)
(0.125677 0.00147699 0)
(0.124682 0.00150636 0)
(0.123667 0.0015348 0)
(0.122634 0.00156231 0)
(0.121583 0.00158889 0)
(0.120514 0.00161455 0)
(0.119429 0.0016393 0)
(0.118328 0.00166314 0)
(0.11721 0.0016861 0)
(0.116078 0.00170817 0)
(0.114932 0.00172937 0)
(0.113771 0.00174971 0)
(0.112598 0.0017692 0)
(0.111412 0.00178786 0)
(0.110213 0.0018057 0)
(0.109003 0.00182275 0)
(0.107782 0.001839 0)
(0.10655 0.00185449 0)
(0.105308 0.00186922 0)
(0.104057 0.00188321 0)
(0.102796 0.00189648 0)
(0.101527 0.00190906 0)
(0.10025 0.00192094 0)
(0.0989652 0.00193217 0)
(0.0976731 0.00194274 0)
(0.0963742 0.00195269 0)
(0.0950688 0.00196203 0)
(0.0937574 0.00197077 0)
(0.0924404 0.00197894 0)
(0.0911181 0.00198656 0)
(0.089791 0.00199364 0)
(0.0884593 0.00200021 0)
(0.0871234 0.00200628 0)
(0.0857837 0.00201186 0)
(0.0844404 0.00201699 0)
(0.0830938 0.00202167 0)
(0.0817443 0.00202592 0)
(0.0803921 0.00202976 0)
(0.0790375 0.00203322 0)
(0.0776807 0.0020363 0)
(0.076322 0.00203902 0)
(0.0749616 0.0020414 0)
(0.0735997 0.00204345 0)
(0.0722366 0.0020452 0)
(0.0708724 0.00204666 0)
(0.0695074 0.00204783 0)
(0.0681417 0.00204875 0)
(0.0667754 0.00204942 0)
(0.0654088 0.00204985 0)
(0.064042 0.00205007 0)
(0.0626752 0.00205008 0)
(0.0613083 0.0020499 0)
(0.0599417 0.00204954 0)
(0.0585754 0.00204902 0)
(0.0572095 0.00204834 0)
(0.0558441 0.00204752 0)
(0.0544793 0.00204658 0)
(0.0531152 0.00204551 0)
(0.0517519 0.00204434 0)
(0.0503893 0.00204307 0)
(0.0490277 0.00204171 0)
(0.047667 0.00204028 0)
(0.0463072 0.00203878 0)
(0.0449485 0.00203723 0)
(0.0435909 0.00203563 0)
(0.0422343 0.00203399 0)
(0.0408788 0.00203232 0)
(0.0395245 0.00203062 0)
(0.0381713 0.00202892 0)
(0.0368193 0.0020272 0)
(0.0354684 0.00202549 0)
(0.0341186 0.00202378 0)
(0.03277 0.00202209 0)
(0.0314225 0.00202041 0)
(0.0300762 0.00201877 0)
(0.0287309 0.00201715 0)
(0.0273867 0.00201557 0)
(0.0260435 0.00201403 0)
(0.0247014 0.00201255 0)
(0.0233602 0.00201111 0)
(0.02202 0.00200973 0)
(0.0206806 0.00200841 0)
(0.0193422 0.00200715 0)
(0.0180045 0.00200596 0)
(0.0166677 0.00200484 0)
(0.0153315 0.0020038 0)
(0.013996 0.00200283 0)
(0.0126612 0.00200195 0)
(0.0113269 0.00200114 0)
(0.00999307 0.00200042 0)
(0.00865973 0.00199979 0)
(0.00732679 0.00199924 0)
(0.00599419 0.00199878 0)
(0.00466186 0.00199842 0)
(0.00332975 0.00199814 0)
(0.00199779 0.00199796 0)
(0.00066592 0.00199787 0)
(0.000695058 -0.00347579 0)
(0.00208521 -0.00347599 0)
(0.00347549 -0.00347639 0)
(0.00486597 -0.00347698 0)
(0.00625672 -0.00347778 0)
(0.00764784 -0.00347876 0)
(0.00903939 -0.00347994 0)
(0.0104315 -0.00348131 0)
(0.0118241 -0.00348287 0)
(0.0132174 -0.0034846 0)
(0.0146115 -0.00348651 0)
(0.0160063 -0.0034886 0)
(0.0174021 -0.00349085 0)
(0.0187987 -0.00349325 0)
(0.0201964 -0.00349581 0)
(0.0215951 -0.00349852 0)
(0.0229949 -0.00350136 0)
(0.024396 -0.00350433 0)
(0.0257982 -0.00350742 0)
(0.0272017 -0.00351062 0)
(0.0286065 -0.00351392 0)
(0.0300127 -0.0035173 0)
(0.0314202 -0.00352077 0)
(0.0328292 -0.00352429 0)
(0.0342396 -0.00352787 0)
(0.0356514 -0.00353148 0)
(0.0370647 -0.00353511 0)
(0.0384795 -0.00353876 0)
(0.0398957 -0.00354239 0)
(0.0413134 -0.003546 0)
(0.0427326 -0.00354956 0)
(0.0441532 -0.00355307 0)
(0.0455752 -0.0035565 0)
(0.0469986 -0.00355983 0)
(0.0484233 -0.00356304 0)
(0.0498493 -0.00356611 0)
(0.0512765 -0.00356902 0)
(0.0527048 -0.00357175 0)
(0.0541342 -0.00357427 0)
(0.0555646 -0.00357655 0)
(0.0569959 -0.00357859 0)
(0.058428 -0.00358033 0)
(0.0598608 -0.00358178 0)
(0.061294 -0.00358288 0)
(0.0627277 -0.00358362 0)
(0.0641617 -0.00358397 0)
(0.0655957 -0.00358389 0)
(0.0670296 -0.00358337 0)
(0.0684632 -0.00358235 0)
(0.0698964 -0.00358083 0)
(0.0713289 -0.00357875 0)
(0.0727604 -0.0035761 0)
(0.0741909 -0.00357283 0)
(0.0756199 -0.00356891 0)
(0.0770472 -0.0035643 0)
(0.0784726 -0.00355898 0)
(0.0798958 -0.0035529 0)
(0.0813164 -0.00354603 0)
(0.0827341 -0.00353833 0)
(0.0841486 -0.00352977 0)
(0.0855595 -0.00352031 0)
(0.0869665 -0.0035099 0)
(0.0883692 -0.00349852 0)
(0.0897672 -0.00348613 0)
(0.09116 -0.00347268 0)
(0.0925473 -0.00345814 0)
(0.0939285 -0.00344248 0)
(0.0953033 -0.00342565 0)
(0.0966712 -0.00340762 0)
(0.0980317 -0.00338835 0)
(0.0993842 -0.00336782 0)
(0.100728 -0.00334597 0)
(0.102063 -0.00332279 0)
(0.103389 -0.00329823 0)
(0.104704 -0.00327227 0)
(0.106009 -0.00324487 0)
(0.107303 -0.00321601 0)
(0.108585 -0.00318565 0)
(0.109854 -0.00315377 0)
(0.111111 -0.00312034 0)
(0.112353 -0.00308534 0)
(0.113582 -0.00304875 0)
(0.114795 -0.00301055 0)
(0.115993 -0.00297072 0)
(0.117175 -0.00292925 0)
(0.11834 -0.00288612 0)
(0.119487 -0.00284132 0)
(0.120616 -0.00279485 0)
(0.121726 -0.00274669 0)
(0.122816 -0.00269685 0)
(0.123886 -0.00264533 0)
(0.124935 -0.00259213 0)
(0.125963 -0.00253725 0)
(0.126968 -0.0024807 0)
(0.12795 -0.00242251 0)
(0.128909 -0.00236267 0)
(0.129843 -0.00230121 0)
(0.130753 -0.00223816 0)
(0.131637 -0.00217353 0)
(0.132494 -0.00210736 0)
(0.133325 -0.00203967 0)
(0.134129 -0.0019705 0)
(0.134904 -0.00189989 0)
(0.135651 -0.00182788 0)
(0.136369 -0.00175452 0)
(0.137057 -0.00167984 0)
(0.137715 -0.00160391 0)
(0.138343 -0.00152677 0)
(0.138939 -0.00144847 0)
(0.139503 -0.00136909 0)
(0.140036 -0.00128867 0)
(0.140536 -0.00120728 0)
(0.141003 -0.00112499 0)
(0.141438 -0.00104187 0)
(0.141838 -0.000957974 0)
(0.142205 -0.000873387 0)
(0.142538 -0.000788179 0)
(0.142837 -0.000702422 0)
(0.143101 -0.000616194 0)
(0.14333 -0.000529569 0)
(0.143525 -0.000442627 0)
(0.143685 -0.000355443 0)
(0.14381 -0.000268097 0)
(0.143899 -0.000180668 0)
(0.143954 -9.32327e-05 0)
(0.143974 -5.87056e-06 0)
(0.143959 8.1341e-05 0)
(0.143908 0.000168325 0)
(0.143823 0.000255005 0)
(0.143704 0.000341305 0)
(0.14355 0.000427152 0)
(0.143361 0.000512473 0)
(0.143139 0.000597197 0)
(0.142882 0.000681254 0)
(0.142592 0.000764577 0)
(0.142269 0.000847101 0)
(0.141913 0.000928762 0)
(0.141524 0.0010095 0)
(0.141104 0.00108925 0)
(0.140651 0.00116797 0)
(0.140167 0.00124559 0)
(0.139653 0.00132208 0)
(0.139107 0.00139737 0)
(0.138532 0.00147142 0)
(0.137928 0.0015442 0)
(0.137295 0.00161566 0)
(0.136633 0.00168577 0)
(0.135944 0.00175448 0)
(0.135227 0.00182179 0)
(0.134484 0.00188764 0)
(0.133714 0.00195203 0)
(0.132919 0.00201492 0)
(0.1321 0.0020763 0)
(0.131256 0.00213616 0)
(0.130388 0.00219448 0)
(0.129497 0.00225125 0)
(0.128584 0.00230645 0)
(0.127649 0.0023601 0)
(0.126693 0.00241218 0)
(0.125717 0.00246269 0)
(0.12472 0.00251164 0)
(0.123704 0.00255904 0)
(0.12267 0.00260487 0)
(0.121618 0.00264917 0)
(0.120548 0.00269193 0)
(0.119462 0.00273317 0)
(0.118359 0.0027729 0)
(0.117241 0.00281114 0)
(0.116107 0.00284791 0)
(0.11496 0.00288323 0)
(0.113798 0.00291712 0)
(0.112623 0.00294959 0)
(0.111436 0.00298068 0)
(0.110236 0.0030104 0)
(0.109025 0.00303878 0)
(0.107803 0.00306586 0)
(0.10657 0.00309165 0)
(0.105327 0.00311618 0)
(0.104075 0.00313948 0)
(0.102814 0.00316158 0)
(0.101544 0.00318252 0)
(0.100266 0.00320231 0)
(0.0989798 0.003221 0)
(0.0976868 0.0032386 0)
(0.096387 0.00325516 0)
(0.0950809 0.0032707 0)
(0.0937687 0.00328525 0)
(0.0924509 0.00329885 0)
(0.091128 0.00331153 0)
(0.0898001 0.00332331 0)
(0.0884678 0.00333424 0)
(0.0871312 0.00334433 0)
(0.0857909 0.00335362 0)
(0.084447 0.00336214 0)
(0.0830998 0.00336992 0)
(0.0817497 0.00337699 0)
(0.080397 0.00338337 0)
(0.0790419 0.00338911 0)
(0.0776846 0.00339422 0)
(0.0763254 0.00339874 0)
(0.0749646 0.00340269 0)
(0.0736023 0.0034061 0)
(0.0722388 0.00340899 0)
(0.0708742 0.0034114 0)
(0.0695088 0.00341335 0)
(0.0681428 0.00341486 0)
(0.0667762 0.00341596 0)
(0.0654093 0.00341667 0)
(0.0640422 0.00341701 0)
(0.0626751 0.00341702 0)
(0.061308 0.0034167 0)
(0.0599412 0.00341609 0)
(0.0585746 0.0034152 0)
(0.0572085 0.00341406 0)
(0.055843 0.00341268 0)
(0.054478 0.00341109 0)
(0.0531137 0.0034093 0)
(0.0517503 0.00340733 0)
(0.0503876 0.00340521 0)
(0.0490258 0.00340294 0)
(0.047665 0.00340054 0)
(0.0463052 0.00339804 0)
(0.0449464 0.00339544 0)
(0.0435887 0.00339276 0)
(0.0422321 0.00339001 0)
(0.0408766 0.00338722 0)
(0.0395223 0.00338439 0)
(0.0381691 0.00338154 0)
(0.036817 0.00337867 0)
(0.0354661 0.00337581 0)
(0.0341164 0.00337295 0)
(0.0327678 0.00337012 0)
(0.0314203 0.00336733 0)
(0.030074 0.00336457 0)
(0.0287288 0.00336187 0)
(0.0273846 0.00335924 0)
(0.0260415 0.00335667 0)
(0.0246994 0.00335418 0)
(0.0233583 0.00335178 0)
(0.0220182 0.00334948 0)
(0.0206789 0.00334727 0)
(0.0193406 0.00334517 0)
(0.018003 0.00334319 0)
(0.0166662 0.00334132 0)
(0.0153302 0.00333958 0)
(0.0139948 0.00333797 0)
(0.01266 0.00333649 0)
(0.0113258 0.00333514 0)
(0.00999217 0.00333394 0)
(0.00865895 0.00333288 0)
(0.00732613 0.00333197 0)
(0.00599364 0.0033312 0)
(0.00466143 0.00333059 0)
(0.00332944 0.00333013 0)
(0.0019976 0.00332983 0)
(0.000665858 0.00332968 0)
(0.000694936 -0.00486582 0)
(0.00208485 -0.0048661 0)
(0.00347489 -0.00486666 0)
(0.00486512 -0.0048675 0)
(0.00625564 -0.00486861 0)
(0.00764652 -0.00487 0)
(0.00903784 -0.00487166 0)
(0.0104297 -0.00487358 0)
(0.0118221 -0.00487576 0)
(0.0132152 -0.0048782 0)
(0.014609 -0.00488088 0)
(0.0160037 -0.0048838 0)
(0.0173992 -0.00488696 0)
(0.0187957 -0.00489034 0)
(0.0201932 -0.00489394 0)
(0.0215917 -0.00489774 0)
(0.0229914 -0.00490173 0)
(0.0243923 -0.0049059 0)
(0.0257944 -0.00491024 0)
(0.0271978 -0.00491473 0)
(0.0286025 -0.00491936 0)
(0.0300085 -0.00492412 0)
(0.031416 -0.00492898 0)
(0.0328249 -0.00493393 0)
(0.0342352 -0.00493896 0)
(0.035647 -0.00494404 0)
(0.0370603 -0.00494915 0)
(0.0384751 -0.00495427 0)
(0.0398913 -0.00495938 0)
(0.0413091 -0.00496446 0)
(0.0427283 -0.00496947 0)
(0.044149 -0.00497441 0)
(0.0455711 -0.00497924 0)
(0.0469946 -0.00498393 0)
(0.0484194 -0.00498845 0)
(0.0498456 -0.00499278 0)
(0.051273 -0.00499689 0)
(0.0527016 -0.00500074 0)
(0.0541313 -0.0050043 0)
(0.055562 -0.00500754 0)
(0.0569936 -0.00501042 0)
(0.058426 -0.0050129 0)
(0.0598592 -0.00501496 0)
(0.0612929 -0.00501654 0)
(0.062727 -0.00501762 0)
(0.0641614 -0.00501815 0)
(0.0655959 -0.00501808 0)
(0.0670304 -0.00501739 0)
(0.0684647 -0.00501602 0)
(0.0698985 -0.00501393 0)
(0.0713316 -0.00501107 0)
(0.0727639 -0.0050074 0)
(0.0741951 -0.00500286 0)
(0.0756249 -0.00499743 0)
(0.0770531 -0.00499103 0)
(0.0784793 -0.00498363 0)
(0.0799034 -0.00497517 0)
(0.081325 -0.0049656 0)
(0.0827437 -0.00495488 0)
(0.0841593 -0.00494294 0)
(0.0855713 -0.00492975 0)
(0.0869795 -0.00491523 0)
(0.0883834 -0.00489935 0)
(0.0897826 -0.00488205 0)
(0.0911767 -0.00486327 0)
(0.0925653 -0.00484297 0)
(0.0939479 -0.00482109 0)
(0.0953242 -0.00479759 0)
(0.0966935 -0.0047724 0)
(0.0980554 -0.00474548 0)
(0.0994095 -0.00471677 0)
(0.100755 -0.00468624 0)
(0.102092 -0.00465383 0)
(0.103419 -0.0046195 0)
(0.104736 -0.00458319 0)
(0.106043 -0.00454487 0)
(0.107338 -0.0045045 0)
(0.108622 -0.00446204 0)
(0.109893 -0.00441744 0)
(0.111152 -0.00437067 0)
(0.112396 -0.00432171 0)
(0.113627 -0.00427051 0)
(0.114842 -0.00421705 0)
(0.116042 -0.00416131 0)
(0.117226 -0.00410327 0)
(0.118392 -0.0040429 0)
(0.119541 -0.00398019 0)
(0.120672 -0.00391514 0)
(0.121784 -0.00384773 0)
(0.122877 -0.00377795 0)
(0.123949 -0.00370581 0)
(0.125 -0.00363132 0)
(0.12603 -0.00355448 0)
(0.127037 -0.0034753 0)
(0.128021 -0.0033938 0)
(0.128982 -0.00331001 0)
(0.129918 -0.00322394 0)
(0.130829 -0.00313562 0)
(0.131715 -0.00304511 0)
(0.132575 -0.00295242 0)
(0.133408 -0.00285761 0)
(0.134213 -0.00276072 0)
(0.13499 -0.00266181 0)
(0.135739 -0.00256094 0)
(0.136458 -0.00245816 0)
(0.137148 -0.00235354 0)
(0.137807 -0.00224716 0)
(0.138436 -0.00213908 0)
(0.139033 -0.00202939 0)
(0.139599 -0.00191817 0)
(0.140133 -0.00180549 0)
(0.140634 -0.00169146 0)
(0.141103 -0.00157616 0)
(0.141538 -0.00145969 0)
(0.141939 -0.00134214 0)
(0.142307 -0.00122361 0)
(0.142641 -0.00110422 0)
(0.14294 -0.000984053 0)
(0.143205 -0.000863226 0)
(0.143435 -0.000741844 0)
(0.14363 -0.000620015 0)
(0.14379 -0.000497848 0)
(0.143915 -0.000375455 0)
(0.144005 -0.000252943 0)
(0.144059 -0.000130425 0)
(0.144079 -8.00902e-06 0)
(0.144063 0.000114195 0)
(0.144013 0.000236079 0)
(0.143927 0.000357536 0)
(0.143807 0.000478461 0)
(0.143652 0.000598748 0)
(0.143463 0.000718297 0)
(0.14324 0.000837008 0)
(0.142983 0.000954782 0)
(0.142692 0.00107153 0)
(0.142368 0.00118715 0)
(0.142011 0.00130156 0)
(0.141621 0.00141467 0)
(0.141199 0.00152641 0)
(0.140745 0.00163668 0)
(0.14026 0.00174543 0)
(0.139744 0.00185257 0)
(0.139197 0.00195804 0)
(0.138621 0.00206178 0)
(0.138015 0.00216372 0)
(0.13738 0.00226382 0)
(0.136716 0.00236201 0)
(0.136025 0.00245826 0)
(0.135307 0.00255252 0)
(0.134562 0.00264475 0)
(0.133791 0.00273492 0)
(0.132994 0.002823 0)
(0.132172 0.00290896 0)
(0.131326 0.00299278 0)
(0.130457 0.00307444 0)
(0.129564 0.00315392 0)
(0.128649 0.00323122 0)
(0.127713 0.00330633 0)
(0.126755 0.00337924 0)
(0.125776 0.00344996 0)
(0.124778 0.00351849 0)
(0.12376 0.00358482 0)
(0.122724 0.00364898 0)
(0.12167 0.00371098 0)
(0.120599 0.00377083 0)
(0.11951 0.00382854 0)
(0.118406 0.00388415 0)
(0.117286 0.00393766 0)
(0.116151 0.00398911 0)
(0.115001 0.00403853 0)
(0.113838 0.00408594 0)
(0.112662 0.00413137 0)
(0.111472 0.00417486 0)
(0.110271 0.00421643 0)
(0.109059 0.00425614 0)
(0.107835 0.004294 0)
(0.1066 0.00433006 0)
(0.105356 0.00436437 0)
(0.104102 0.00439695 0)
(0.102839 0.00442786 0)
(0.101568 0.00445712 0)
(0.100289 0.00448479 0)
(0.0990016 0.00451091 0)
(0.0977074 0.00453551 0)
(0.0964063 0.00455865 0)
(0.095099 0.00458036 0)
(0.0937856 0.00460069 0)
(0.0924668 0.00461969 0)
(0.0911427 0.00463739 0)
(0.0898138 0.00465385 0)
(0.0884804 0.00466909 0)
(0.0871429 0.00468318 0)
(0.0858016 0.00469614 0)
(0.0844568 0.00470803 0)
(0.0831088 0.00471888 0)
(0.0817579 0.00472873 0)
(0.0804043 0.00473764 0)
(0.0790484 0.00474563 0)
(0.0776904 0.00475275 0)
(0.0763305 0.00475903 0)
(0.074969 0.00476452 0)
(0.0736061 0.00476926 0)
(0.072242 0.00477328 0)
(0.0708769 0.00477661 0)
(0.0695109 0.0047793 0)
(0.0681444 0.00478138 0)
(0.0667773 0.00478288 0)
(0.06541 0.00478384 0)
(0.0640424 0.00478429 0)
(0.0626749 0.00478427 0)
(0.0613075 0.0047838 0)
(0.0599403 0.00478291 0)
(0.0585735 0.00478164 0)
(0.0572071 0.00478001 0)
(0.0558412 0.00477806 0)
(0.054476 0.0047758 0)
(0.0531115 0.00477327 0)
(0.0517478 0.00477049 0)
(0.050385 0.00476749 0)
(0.0490231 0.00476429 0)
(0.0476621 0.00476091 0)
(0.0463022 0.00475738 0)
(0.0449433 0.00475372 0)
(0.0435855 0.00474995 0)
(0.0422288 0.00474609 0)
(0.0408733 0.00474216 0)
(0.0395189 0.00473818 0)
(0.0381656 0.00473417 0)
(0.0368136 0.00473014 0)
(0.0354627 0.00472611 0)
(0.034113 0.0047221 0)
(0.0327644 0.00471813 0)
(0.031417 0.0047142 0)
(0.0300708 0.00471033 0)
(0.0287256 0.00470654 0)
(0.0273815 0.00470283 0)
(0.0260385 0.00469923 0)
(0.0246965 0.00469574 0)
(0.0233555 0.00469236 0)
(0.0220155 0.00468913 0)
(0.0206764 0.00468603 0)
(0.0193381 0.00468308 0)
(0.0180007 0.0046803 0)
(0.0166641 0.00467768 0)
(0.0153282 0.00467523 0)
(0.0139929 0.00467297 0)
(0.0126583 0.00467089 0)
(0.0113243 0.004669 0)
(0.00999082 0.00466732 0)
(0.00865777 0.00466583 0)
(0.00732512 0.00466455 0)
(0.00599282 0.00466348 0)
(0.00466079 0.00466261 0)
(0.00332898 0.00466197 0)
(0.00199733 0.00466154 0)
(0.000665766 0.00466133 0)
(0.000694775 -0.00625557 0)
(0.00208437 -0.00625594 0)
(0.00347408 -0.00625666 0)
(0.004864 -0.00625774 0)
(0.0062542 -0.00625918 0)
(0.00764477 -0.00626097 0)
(0.00903578 -0.0062631 0)
(0.0104273 -0.00626558 0)
(0.0118194 -0.0062684 0)
(0.0132123 -0.00627154 0)
(0.0146058 -0.006275 0)
(0.0160002 -0.00627878 0)
(0.0173955 -0.00628285 0)
(0.0187917 -0.00628721 0)
(0.0201889 -0.00629185 0)
(0.0215872 -0.00629676 0)
(0.0229867 -0.00630191 0)
(0.0243874 -0.00630729 0)
(0.0257893 -0.0063129 0)
(0.0271925 -0.0063187 0)
(0.028597 -0.00632468 0)
(0.030003 -0.00633082 0)
(0.0314103 -0.00633711 0)
(0.0328191 -0.00634351 0)
(0.0342294 -0.00635 0)
(0.0356411 -0.00635656 0)
(0.0370544 -0.00636317 0)
(0.0384691 -0.00636979 0)
(0.0398854 -0.0063764 0)
(0.0413032 -0.00638297 0)
(0.0427225 -0.00638947 0)
(0.0441433 -0.00639586 0)
(0.0455656 -0.00640211 0)
(0.0469892 -0.00640819 0)
(0.0484143 -0.00641406 0)
(0.0498407 -0.00641968 0)
(0.0512684 -0.00642501 0)
(0.0526973 -0.00643002 0)
(0.0541273 -0.00643465 0)
(0.0555584 -0.00643887 0)
(0.0569904 -0.00644264 0)
(0.0584233 -0.0064459 0)
(0.059857 -0.0064486 0)
(0.0612912 -0.00645071 0)
(0.062726 -0.00645216 0)
(0.064161 -0.00645291 0)
(0.0655962 -0.00645291 0)
(0.0670315 -0.00645209 0)
(0.0684665 -0.0064504 0)
(0.0699012 -0.00644779 0)
(0.0713352 -0.00644419 0)
(0.0727685 -0.00643955 0)
(0.0742006 -0.00643381 0)
(0.0756315 -0.0064269 0)
(0.0770608 -0.00641876 0)
(0.0784883 -0.00640933 0)
(0.0799136 -0.00639855 0)
(0.0813365 -0.00638633 0)
(0.0827565 -0.00637263 0)
(0.0841735 -0.00635738 0)
(0.085587 -0.0063405 0)
(0.0869967 -0.00632193 0)
(0.0884022 -0.0063016 0)
(0.0898031 -0.00627945 0)
(0.0911989 -0.0062554 0)
(0.0925893 -0.00622939 0)
(0.0939737 -0.00620134 0)
(0.0953519 -0.00617121 0)
(0.0967231 -0.00613891 0)
(0.0980871 -0.00610438 0)
(0.0994432 -0.00606756 0)
(0.100791 -0.00602839 0)
(0.10213 -0.0059868 0)
(0.103459 -0.00594273 0)
(0.104779 -0.00589613 0)
(0.106088 -0.00584693 0)
(0.107386 -0.00579509 0)
(0.108672 -0.00574056 0)
(0.109946 -0.00568328 0)
(0.111206 -0.00562321 0)
(0.112453 -0.0055603 0)
(0.113686 -0.00549452 0)
(0.114904 -0.00542584 0)
(0.116107 -0.00535421 0)
(0.117293 -0.00527961 0)
(0.118463 -0.00520202 0)
(0.119614 -0.00512142 0)
(0.120748 -0.00503779 0)
(0.121863 -0.00495112 0)
(0.122958 -0.00486141 0)
(0.124033 -0.00476866 0)
(0.125087 -0.00467287 0)
(0.126119 -0.00457405 0)
(0.127129 -0.00447222 0)
(0.128116 -0.0043674 0)
(0.129079 -0.00425962 0)
(0.130018 -0.0041489 0)
(0.130932 -0.0040353 0)
(0.13182 -0.00391885 0)
(0.132682 -0.00379961 0)
(0.133517 -0.00367762 0)
(0.134325 -0.00355297 0)
(0.135104 -0.0034257 0)
(0.135855 -0.0032959 0)
(0.136577 -0.00316364 0)
(0.137268 -0.00302901 0)
(0.13793 -0.00289211 0)
(0.13856 -0.00275302 0)
(0.13916 -0.00261185 0)
(0.139727 -0.0024687 0)
(0.140263 -0.00232368 0)
(0.140765 -0.00217691 0)
(0.141235 -0.0020285 0)
(0.141672 -0.00187858 0)
(0.142074 -0.00172728 0)
(0.142443 -0.00157471 0)
(0.142778 -0.00142103 0)
(0.143078 -0.00126635 0)
(0.143343 -0.00111082 0)
(0.143574 -0.000954567 0)
(0.143769 -0.000797742 0)
(0.14393 -0.000640483 0)
(0.144055 -0.000482931 0)
(0.144145 -0.000325228 0)
(0.144199 -0.000167516 0)
(0.144219 -9.93748e-06 0)
(0.144203 0.000147368 0)
(0.144152 0.000304259 0)
(0.144066 0.000460599 0)
(0.143945 0.000616252 0)