/*--------------------------------*- C++ -*----------------------------------*\
| =========                 |                                                 |
| \\      /  F ield         | OpenFOAM: The Open Source CFD Toolbox           |
|  \\    /   O peration     | Version:  v2012                                 |
|   \\  /    A nd           | Website:  www.openfoam.com                      |
|    \\/     M anipulation  |                                                 |
\*---------------------------------------------------------------------------*/
FoamFile
{
    version     2.0;
    format      ascii;
    class       volScalarField;
    location    "15";
    object      W;
}
// * * * * * * * * * * * * * * * * * * * * * * * * * * * * * * * * * * * * * //

dimensions      [0 0 -1 0 0 0 0];


internalField   nonuniform List<scalar> 
65536
(
2.45954e-16
7.41101e-16
1.24607e-15
1.76762e-15
2.31278e-15
2.88882e-15
3.5034e-15
4.16461e-15
4.88109e-15
5.66215e-15
6.5178e-15
7.45895e-15
8.49743e-15
9.6462e-15
1.09194e-14
1.23326e-14
1.39028e-14
1.56488e-14
1.7591e-14
1.97521e-14
2.21569e-14
2.48327e-14
2.78095e-14
3.11201e-14
3.48006e-14
3.88906e-14
4.34333e-14
4.84762e-14
5.4071e-14
6.02744e-14
6.7148e-14
7.47592e-14
8.31811e-14
9.24935e-14
1.02783e-13
1.14142e-13
1.26674e-13
1.40488e-13
1.55702e-13
1.72444e-13
1.90853e-13
2.11074e-13
2.33268e-13
2.57605e-13
2.84265e-13
3.13443e-13
3.45346e-13
3.80193e-13
4.18217e-13
4.59665e-13
5.04798e-13
5.53888e-13
6.07227e-13
6.65115e-13
7.27869e-13
7.9582e-13
8.69309e-13
9.48693e-13
1.03434e-12
1.12662e-12
1.22593e-12
1.33267e-12
1.44722e-12
1.57001e-12
1.70144e-12
1.84192e-12
1.99186e-12
2.15166e-12
2.32173e-12
2.50243e-12
2.69414e-12
2.89722e-12
3.11198e-12
3.33874e-12
3.57776e-12
3.82928e-12
4.09349e-12
4.37054e-12
4.66054e-12
4.96352e-12
5.27949e-12
5.60836e-12
5.95e-12
6.30419e-12
6.67065e-12
7.04901e-12
7.43884e-12
7.8396e-12
8.2507e-12
8.67142e-12
9.10101e-12
9.53858e-12
9.98321e-12
1.04339e-11
1.08894e-11
1.13488e-11
1.18106e-11
1.22736e-11
1.27364e-11
1.31976e-11
1.36558e-11
1.41095e-11
1.45571e-11
1.49971e-11
1.5428e-11
1.58482e-11
1.62563e-11
1.66508e-11
1.70302e-11
1.73931e-11
1.77382e-11
1.80642e-11
1.83699e-11
1.86542e-11
1.89161e-11
1.91547e-11
1.93691e-11
1.95587e-11
1.97228e-11
1.9861e-11
1.99729e-11
2.00582e-11
2.01169e-11
2.01488e-11
2.01542e-11
2.01332e-11
2.0086e-11
2.00132e-11
1.99152e-11
1.97925e-11
1.96459e-11
1.9476e-11
1.92837e-11
1.90697e-11
1.88349e-11
1.85804e-11
1.83069e-11
1.80156e-11
1.77074e-11
1.73833e-11
1.70443e-11
1.66915e-11
1.63258e-11
1.59483e-11
1.556e-11
1.51619e-11
1.47548e-11
1.43398e-11
1.39178e-11
1.34898e-11
1.30566e-11
1.26192e-11
1.21784e-11
1.17351e-11
1.12901e-11
1.08444e-11
1.03987e-11
9.95402e-12
9.51108e-12
9.07077e-12
8.63395e-12
8.20145e-12
7.77413e-12
7.35284e-12
6.93843e-12
6.53173e-12
6.13359e-12
5.74481e-12
5.36619e-12
4.9985e-12
4.64249e-12
4.29885e-12
3.96823e-12
3.65125e-12
3.34843e-12
3.06024e-12
2.78709e-12
2.52927e-12
2.28703e-12
2.06049e-12
1.8497e-12
1.6546e-12
1.47505e-12
1.31079e-12
1.16151e-12
1.02677e-12
9.06072e-13
7.98839e-13
7.04422e-13
6.22114e-13
5.51154e-13
4.90738e-13
4.4003e-13
3.98164e-13
3.64263e-13
3.37438e-13
3.16804e-13
3.01484e-13
2.90621e-13
2.83385e-13
2.78981e-13
2.76658e-13
2.75717e-13
2.75518e-13
2.75488e-13
2.75128e-13
2.74016e-13
2.71813e-13
2.68263e-13
2.63195e-13
2.5652e-13
2.48228e-13
2.38379e-13
2.27097e-13
2.14559e-13
2.00986e-13
1.86625e-13
1.71743e-13
1.5661e-13
1.41491e-13
1.26634e-13
1.12261e-13
9.85634e-14
8.56973e-14
7.37801e-14
6.28913e-14
5.30741e-14
4.43382e-14
3.66641e-14
3.00079e-14
2.43068e-14
1.94843e-14
1.54553e-14
1.21302e-14
9.41956e-15
7.23658e-15
5.4998e-15
4.13468e-15
3.07461e-15
2.26133e-15
1.64488e-15
1.18324e-15
8.41691e-16
5.92035e-16
4.11746e-16
2.83119e-16
1.92456e-16
1.29321e-16
8.58818e-17
5.63428e-17
3.64768e-17
2.32381e-17
1.44531e-17
8.57689e-18
4.50015e-18
1.39743e-18
8.50767e-16
2.56353e-15
4.31036e-15
6.11478e-15
8.00107e-15
9.9945e-15
1.21216e-14
1.44106e-14
1.68913e-14
1.95961e-14
2.25599e-14
2.58203e-14
2.94188e-14
3.34001e-14
3.78136e-14
4.27133e-14
4.81584e-14
5.4214e-14
6.09517e-14
6.84501e-14
7.67956e-14
8.60833e-14
9.64174e-14
1.07912e-13
1.20694e-13
1.349e-13
1.50681e-13
1.68202e-13
1.87645e-13
2.09205e-13
2.33099e-13
2.5956e-13
2.88844e-13
3.21228e-13
3.57015e-13
3.96529e-13
4.40126e-13
4.88187e-13
5.41126e-13
5.99388e-13
6.63452e-13
7.33834e-13
8.11084e-13
8.95796e-13
9.88601e-13
1.09017e-12
1.20123e-12
1.32254e-12
1.45491e-12
1.59919e-12
1.75629e-12
1.92716e-12
2.1128e-12
2.31426e-12
2.53262e-12
2.76903e-12
3.02467e-12
3.30077e-12
3.59858e-12
3.91941e-12
4.26457e-12
4.63543e-12
5.03335e-12
5.45971e-12
5.91592e-12
6.40334e-12
6.92336e-12
7.47732e-12
8.06655e-12
8.69231e-12
9.35582e-12
1.00582e-11
1.08005e-11
1.15838e-11
1.24087e-11
1.32761e-11
1.41865e-11
1.51403e-11
1.61377e-11
1.71787e-11
1.82632e-11
1.93906e-11
2.05605e-11
2.17718e-11
2.30234e-11
2.43138e-11
2.56414e-11
2.70041e-11
2.83996e-11
2.98254e-11
3.12785e-11
3.27558e-11
3.42538e-11
3.5769e-11
3.72971e-11
3.88342e-11
4.03757e-11
4.1917e-11
4.34533e-11
4.49797e-11
4.64911e-11
4.79824e-11
4.94484e-11
5.08838e-11
5.22835e-11
5.36423e-11
5.49552e-11
5.62172e-11
5.74236e-11
5.85699e-11
5.96518e-11
6.06651e-11
6.16061e-11
6.24715e-11
6.3258e-11
6.39631e-11
6.45842e-11
6.51196e-11
6.55675e-11
6.5927e-11
6.61971e-11
6.63777e-11
6.64686e-11
6.64705e-11
6.6384e-11
6.62104e-11
6.59512e-11
6.56081e-11
6.51833e-11
6.46792e-11
6.40983e-11
6.34434e-11
6.27176e-11
6.1924e-11
6.10658e-11
6.01464e-11
5.91693e-11
5.8138e-11
5.70559e-11
5.59267e-11
5.47537e-11
5.35406e-11
5.22907e-11
5.10074e-11
4.9694e-11
4.83538e-11
4.699e-11
4.56057e-11
4.42039e-11
4.27876e-11
4.13596e-11
3.99227e-11
3.84797e-11
3.70334e-11
3.55863e-11
3.41411e-11
3.27004e-11
3.12666e-11
2.98425e-11
2.84304e-11
2.7033e-11
2.56526e-11
2.42919e-11
2.29533e-11
2.16393e-11
2.03523e-11
1.90947e-11
1.78689e-11
1.66772e-11
1.55219e-11
1.4405e-11
1.33285e-11
1.22943e-11
1.1304e-11
1.03593e-11
9.46126e-12
8.61109e-12
7.80955e-12
7.0572e-12
6.35432e-12
5.70092e-12
5.09668e-12
4.54106e-12
4.03318e-12
3.57191e-12
3.15588e-12
2.78343e-12
2.45272e-12
2.16169e-12
1.90809e-12
1.68955e-12
1.50353e-12
1.34743e-12
1.21857e-12
1.11421e-12
1.03161e-12
9.68027e-13
9.20772e-13
8.872e-13
8.6476e-13
8.51011e-13
8.43652e-13
8.4054e-13
8.39718e-13
8.39436e-13
8.38167e-13
8.34623e-13
8.2777e-13
8.16828e-13
8.01277e-13
7.80846e-13
7.55502e-13
7.25432e-13
6.91013e-13
6.52787e-13
6.1142e-13
5.6767e-13
5.22347e-13
4.76272e-13
4.30251e-13
3.85036e-13
3.41302e-13
2.99632e-13
2.60496e-13
2.24252e-13
1.91141e-13
1.61292e-13
1.34733e-13
1.11405e-13
9.11735e-14
7.38468e-14
5.91918e-14
4.69488e-14
3.6846e-14
2.86106e-14
2.19789e-14
1.67031e-14
1.25565e-14
9.33678e-15
6.86673e-15
4.99459e-15
3.5927e-15
2.55555e-15
1.79748e-15
1.25006e-15
8.59518e-16
5.84257e-16
3.92582e-16
2.60705e-16
1.71031e-16
1.10725e-16
7.05374e-17
4.38707e-17
2.60338e-17
1.36594e-17
4.24173e-18
1.83829e-15
5.53928e-15
9.31428e-15
1.32144e-14
1.72922e-14
2.16028e-14
2.62038e-14
3.11562e-14
3.65254e-14
4.23815e-14
4.88004e-14
5.58643e-14
6.36631e-14
7.22948e-14
8.18666e-14
9.24964e-14
1.04313e-13
1.1746e-13
1.32091e-13
1.4838e-13
1.66515e-13
1.86703e-13
2.09173e-13
2.34175e-13
2.61983e-13
2.929e-13
3.27254e-13
3.65408e-13
4.07757e-13
4.54731e-13
5.06803e-13
5.64485e-13
6.28337e-13
6.98966e-13
7.77031e-13
8.63249e-13
9.58393e-13
1.0633e-12
1.17888e-12
1.3061e-12
1.44601e-12
1.59973e-12
1.76848e-12
1.95355e-12
2.15632e-12
2.37826e-12
2.62093e-12
2.88601e-12
3.17525e-12
3.49051e-12
3.83376e-12
4.20707e-12
4.61259e-12
5.0526e-12
5.52946e-12
6.04562e-12
6.60362e-12
7.2061e-12
7.85576e-12
8.55536e-12
9.30772e-12
1.01157e-11
1.09822e-11
1.19102e-11
1.29025e-11
1.3962e-11
1.50916e-11
1.6294e-11
1.75718e-11
1.89277e-11
2.03639e-11
2.18828e-11
2.34863e-11
2.51761e-11
2.69537e-11
2.88203e-11
3.07766e-11
3.2823e-11
3.49596e-11
3.71859e-11
3.95008e-11
4.1903e-11
4.43905e-11
4.69605e-11
4.961e-11
5.23353e-11
5.51318e-11
5.79947e-11
6.09182e-11
6.38961e-11
6.69215e-11
6.99869e-11
7.30844e-11
7.62053e-11
7.93406e-11
8.24806e-11
8.56156e-11
8.8735e-11
9.18284e-11
9.48849e-11
9.78936e-11
1.00843e-10
1.03723e-10
1.06522e-10
1.09229e-10
1.11834e-10
1.14326e-10
1.16696e-10
1.18935e-10
1.21032e-10
1.22982e-10
1.24775e-10
1.26405e-10
1.27866e-10
1.29154e-10
1.30263e-10
1.31191e-10
1.31935e-10
1.32493e-10
1.32864e-10
1.3305e-10
1.3305e-10
1.32867e-10
1.32504e-10
1.31963e-10
1.3125e-10
1.30368e-10
1.29323e-10
1.28121e-10
1.26769e-10
1.25272e-10
1.23639e-10
1.21876e-10
1.19991e-10
1.17992e-10
1.15887e-10
1.13682e-10
1.11387e-10
1.09008e-10
1.06555e-10
1.04032e-10
1.0145e-10
9.88132e-11
9.613e-11
9.34067e-11
9.06498e-11
8.78655e-11
8.50597e-11
8.22381e-11
7.94062e-11
7.65693e-11
7.37325e-11
7.09006e-11
6.80783e-11
6.52702e-11
6.24808e-11
5.97143e-11
5.69749e-11
5.42669e-11
5.15943e-11
4.89611e-11
4.63713e-11
4.38289e-11
4.13376e-11
3.89014e-11
3.6524e-11
3.42091e-11
3.19603e-11
2.97811e-11
2.76748e-11
2.56445e-11
2.36932e-11
2.18236e-11
2.00381e-11
1.83386e-11
1.67271e-11
1.52047e-11
1.37724e-11
1.24307e-11
1.11796e-11
1.00186e-11
8.94686e-12
7.96287e-12
7.06477e-12
6.25026e-12
5.51656e-12
4.86054e-12
4.27867e-12
3.76712e-12
3.32176e-12
2.93824e-12
2.61199e-12
2.33833e-12
2.11244e-12
1.92949e-12
1.7846e-12
1.67295e-12
1.58979e-12
1.5305e-12
1.49061e-12
1.46587e-12
1.45228e-12
1.44611e-12
1.44398e-12
1.44285e-12
1.44009e-12
1.43348e-12
1.42123e-12
1.402e-12
1.37491e-12
1.33948e-12
1.29566e-12
1.24378e-12
1.18448e-12
1.11869e-12
1.04757e-12
9.72401e-13
8.94575e-13
8.15503e-13
7.36559e-13
6.59028e-13
5.84067e-13
5.12666e-13
4.4563e-13
3.83564e-13
3.26877e-13
2.75788e-13
2.30342e-13
1.90432e-13
1.55828e-13
1.26197e-13
1.0114e-13
8.02106e-14
6.29427e-14
4.8869e-14
3.75374e-14
2.85239e-14
2.14407e-14
1.59413e-14
1.17229e-14
8.52608e-15
6.13245e-15
4.36178e-15
3.06768e-15
2.13327e-15
1.46671e-15
9.96933e-16
6.69834e-16
4.44799e-16
2.91789e-16
1.88894e-16
1.2033e-16
7.4837e-17
4.44087e-17
2.33e-17
7.23549e-18
3.62417e-15
1.0921e-14
1.83646e-14
2.60564e-14
3.41009e-14
4.26072e-14
5.16897e-14
6.14698e-14
7.20772e-14
8.36514e-14
9.63433e-14
1.10317e-13
1.25751e-13
1.4284e-13
1.61799e-13
1.82862e-13
2.06287e-13
2.32358e-13
2.61387e-13
2.93717e-13
3.29725e-13
3.69827e-13
4.14477e-13
4.64178e-13
5.19479e-13
5.80984e-13
6.49353e-13
7.25311e-13
8.09649e-13
9.03233e-13
1.00701e-12
1.122e-12
1.24933e-12
1.39022e-12
1.54599e-12
1.71808e-12
1.90803e-12
2.11754e-12
2.3484e-12
2.60258e-12
2.88217e-12
3.18943e-12
3.52677e-12
3.8968e-12
4.30225e-12
4.74609e-12
5.23144e-12
5.76162e-12
6.34013e-12
6.9707e-12
7.65722e-12
8.4038e-12
9.21473e-12
1.00945e-11
1.10478e-11
1.20794e-11
1.31943e-11
1.43978e-11
1.5695e-11
1.70914e-11
1.85925e-11
2.02037e-11
2.19307e-11
2.37789e-11
2.5754e-11
2.78613e-11
3.01061e-11
3.24935e-11
3.50284e-11
3.77152e-11
4.05582e-11
4.35612e-11
4.67274e-11
5.00595e-11
5.35596e-11
5.72291e-11
6.10686e-11
6.50779e-11
6.92558e-11
7.36003e-11
7.81081e-11
8.27753e-11
8.75962e-11
9.25646e-11
9.76726e-11
1.02911e-10
1.08271e-10
1.13739e-10
1.19304e-10
1.24951e-10
1.30666e-10
1.36433e-10
1.42234e-10
1.48051e-10
1.53865e-10
1.59657e-10
1.65406e-10
1.7109e-10
1.7669e-10
1.82182e-10
1.87546e-10
1.9276e-10
1.97803e-10
2.02654e-10
2.07293e-10
2.117e-10
2.15857e-10
2.19746e-10
2.23352e-10
2.26659e-10
2.29655e-10
2.32327e-10
2.34665e-10
2.36661e-10
2.38309e-10
2.39604e-10
2.40542e-10
2.41124e-10
2.41349e-10
2.41221e-10
2.40744e-10
2.39923e-10
2.38766e-10
2.37283e-10
2.35483e-10
2.33377e-10
2.30979e-10
2.28302e-10
2.2536e-10
2.22168e-10
2.18742e-10
2.15097e-10
2.11249e-10
2.07215e-10
2.03011e-10
1.98653e-10
1.94156e-10
1.89537e-10
1.8481e-10
1.7999e-10
1.75092e-10
1.70129e-10
1.65113e-10
1.60058e-10
1.54976e-10
1.49876e-10
1.44771e-10
1.39669e-10
1.3458e-10
1.29512e-10
1.24475e-10
1.19476e-10
1.14521e-10
1.09617e-10
1.04772e-10
9.99914e-11
9.52805e-11
9.06452e-11
8.60908e-11
8.16226e-11
7.72455e-11
7.29644e-11
6.87842e-11
6.47094e-11
6.07446e-11
5.68942e-11
5.31625e-11
4.95536e-11
4.60715e-11
4.27197e-11
3.95018e-11
3.64209e-11
3.34797e-11
3.06806e-11
2.80254e-11
2.55155e-11
2.31517e-11
2.09343e-11
1.88629e-11
1.69364e-11
1.51532e-11
1.35108e-11
1.20063e-11
1.06361e-11
9.39581e-12
8.28067e-12
7.28527e-12
6.40378e-12
5.6299e-12
4.95699e-12
4.37813e-12
3.88613e-12
3.47367e-12
3.13331e-12
2.85758e-12
2.63906e-12
2.47041e-12
2.34443e-12
2.25417e-12
2.19291e-12
2.15431e-12
2.13239e-12
2.12161e-12
2.11695e-12
2.11393e-12
2.10866e-12
2.09786e-12
2.07892e-12
2.04986e-12
2.00939e-12
1.95682e-12
1.89208e-12
1.81565e-12
1.72848e-12
1.63193e-12
1.52768e-12
1.41761e-12
1.30376e-12
1.18817e-12
1.07284e-12
9.59651e-13
8.50268e-13
7.46132e-13
6.48405e-13
5.57962e-13
4.7539e-13
4.00998e-13
3.34846e-13
2.76772e-13
2.26432e-13
1.8334e-13
1.46909e-13
1.16487e-13
9.13937e-14
7.09465e-14
5.44869e-14
4.13971e-14
3.11126e-14
2.31292e-14
1.70065e-14
1.23672e-14
8.89415e-15
6.32535e-15
4.4482e-15
3.09297e-15
2.12633e-15
1.44516e-15
9.70912e-16
6.44677e-16
4.2288e-16
2.7374e-16
1.7437e-16
1.0844e-16
6.43464e-17
3.376e-17
1.04836e-17
6.91665e-15
2.08431e-14
3.50518e-14
4.97374e-14
6.51011e-14
8.13524e-14
9.87114e-14
1.17412e-13
1.37703e-13
1.59855e-13
1.84158e-13
2.10927e-13
2.40508e-13
2.73278e-13
3.09651e-13
3.5008e-13
3.95064e-13
4.45153e-13
5.00949e-13
5.63119e-13
6.32392e-13
7.09575e-13
7.95551e-13
8.91293e-13
9.97868e-13
1.11645e-12
1.24832e-12
1.39489e-12
1.55769e-12
1.73841e-12
1.93889e-12
2.16112e-12
2.40729e-12
2.67977e-12
2.98113e-12
3.31417e-12
3.6819e-12
4.0876e-12
4.5348e-12
5.02728e-12
5.56915e-12
6.16478e-12
6.81888e-12
7.53647e-12
8.32292e-12
9.18395e-12
1.01256e-11
1.11543e-11
1.2277e-11
1.35006e-11
1.48329e-11
1.62816e-11
1.78552e-11
1.95621e-11
2.14114e-11
2.34123e-11
2.55744e-11
2.79075e-11
3.04215e-11
3.31268e-11
3.60336e-11
3.91523e-11
4.24932e-11
4.60667e-11
4.98828e-11
5.39515e-11
5.82823e-11
6.28842e-11
6.77657e-11
7.29346e-11
7.8398e-11
8.41618e-11
9.02312e-11
9.66098e-11
1.033e-10
1.10303e-10
1.17618e-10
1.25242e-10
1.33172e-10
1.414e-10
1.4992e-10
1.58719e-10
1.67785e-10
1.77104e-10
1.86657e-10
1.96424e-10
2.06383e-10
2.1651e-10
2.26778e-10
2.37156e-10
2.47614e-10
2.58119e-10
2.68634e-10
2.79124e-10
2.8955e-10
2.99872e-10
3.1005e-10
3.20044e-10
3.29811e-10
3.39311e-10
3.48503e-10
3.57347e-10
3.65803e-10
3.73833e-10
3.81402e-10
3.88476e-10
3.95022e-10
4.01012e-10
4.06419e-10
4.1122e-10
4.15396e-10
4.1893e-10
4.21808e-10
4.24023e-10
4.25567e-10
4.26441e-10
4.26644e-10
4.26184e-10
4.25068e-10
4.2331e-10
4.20924e-10
4.1793e-10
4.14347e-10
4.10201e-10
4.05515e-10
4.00319e-10
3.94642e-10
3.88513e-10
3.81965e-10
3.75029e-10
3.67739e-10
3.60128e-10
3.52228e-10
3.44071e-10
3.35691e-10
3.27117e-10
3.1838e-10
3.0951e-10
3.00533e-10
2.91478e-10
2.82368e-10
2.73229e-10
2.64082e-10
2.54948e-10
2.45846e-10
2.36795e-10
2.27811e-10
2.18909e-10
2.10102e-10
2.01403e-10
1.92825e-10
1.84376e-10
1.76066e-10
1.67905e-10
1.59898e-10
1.52055e-10
1.4438e-10
1.3688e-10
1.29561e-10
1.22426e-10
1.15482e-10
1.08732e-10
1.02181e-10
9.58332e-11
8.96916e-11
8.37601e-11
7.80423e-11
7.25413e-11
6.72601e-11
6.22012e-11
5.7367e-11
5.27594e-11
4.83796e-11
4.42287e-11
4.0307e-11
3.6614e-11
3.31487e-11
2.99093e-11
2.68933e-11
2.40973e-11
2.1517e-11
1.91474e-11
1.69827e-11
1.50162e-11
1.32406e-11
1.16477e-11
1.02288e-11
8.97473e-12
7.87569e-12
6.92153e-12
6.10179e-12
5.4058e-12
4.82276e-12
4.3418e-12
3.95211e-12
3.643e-12
3.40398e-12
3.22485e-12
3.09574e-12
3.00724e-12
2.95045e-12
2.91703e-12
2.89929e-12
2.89027e-12
2.88377e-12
2.87444e-12
2.85779e-12
2.83022e-12
2.78905e-12
2.73249e-12
2.65964e-12
2.5704e-12
2.46541e-12
2.34599e-12
2.21399e-12
2.07169e-12
1.92166e-12
1.76664e-12
1.6094e-12
1.45266e-12
1.29893e-12
1.15049e-12
1.00925e-12
8.76776e-13
7.54245e-13
6.42432e-13
5.41744e-13
4.52246e-13
3.73709e-13
3.05658e-13
2.47426e-13
1.98213e-13
1.57131e-13
1.23254e-13
9.56582e-14
7.34503e-14
5.57937e-14
4.19246e-14
3.11612e-14
2.29084e-14
1.66564e-14
1.19769e-14
8.51649e-15
5.98825e-15
4.16328e-15
2.86178e-15
1.94478e-15
1.30644e-15
8.67378e-16
5.68909e-16
3.68238e-16
2.34546e-16
1.45855e-16
8.65432e-17
4.54041e-17
1.40992e-17
1.29499e-14
3.90254e-14
6.56335e-14
9.31413e-14
1.21928e-13
1.5239e-13
1.84942e-13
2.20026e-13
2.58115e-13
2.99716e-13
3.4538e-13
3.95705e-13
4.51346e-13
5.13018e-13
5.81504e-13
6.57668e-13
7.42455e-13
8.36911e-13
9.42183e-13
1.05954e-12
1.19036e-12
1.33619e-12
1.49872e-12
1.67979e-12
1.88144e-12
2.10591e-12
2.35565e-12
2.63334e-12
2.94193e-12
3.28463e-12
3.66495e-12
4.08672e-12
4.55411e-12
5.07166e-12
5.64428e-12
6.27733e-12
6.97658e-12
7.74828e-12
8.59919e-12
9.53658e-12
1.05683e-11
1.17026e-11
1.29487e-11
1.4316e-11
1.58148e-11
1.74561e-11
1.92515e-11
2.12131e-11
2.33539e-11
2.56877e-11
2.82287e-11
3.09921e-11
3.39933e-11
3.72489e-11
4.07757e-11
4.45912e-11
4.87133e-11
5.31605e-11
5.79516e-11
6.31054e-11
6.86412e-11
7.4578e-11
8.09351e-11
8.7731e-11
9.49843e-11
1.02712e-10
1.10933e-10
1.1966e-10
1.2891e-10
1.38696e-10
1.49028e-10
1.59917e-10
1.71368e-10
1.83388e-10
1.95977e-10
2.09134e-10
2.22855e-10
2.37131e-10
2.51952e-10
2.673e-10
2.83155e-10
2.99494e-10
3.16288e-10
3.33502e-10
3.511e-10
3.69038e-10
3.87269e-10
4.05742e-10
4.24401e-10
4.43186e-10
4.62034e-10
4.80876e-10
4.99644e-10
5.18264e-10
5.36661e-10
5.54758e-10
5.72478e-10
5.89743e-10
6.06475e-10
6.22596e-10
6.38032e-10
6.52708e-10
6.66556e-10
6.79507e-10
6.915e-10
7.02477e-10
7.12384e-10
7.21176e-10
7.28812e-10
7.35258e-10
7.40488e-10
7.44481e-10
7.47226e-10
7.48718e-10
7.48958e-10
7.47956e-10
7.45729e-10
7.42299e-10
7.37697e-10
7.31959e-10
7.25124e-10
7.17241e-10
7.08358e-10
6.98532e-10
6.8782e-10
6.76283e-10
6.63983e-10
6.50986e-10
6.37356e-10
6.23159e-10
6.0846e-10
5.93324e-10
5.77815e-10
5.61994e-10
5.45921e-10
5.29655e-10
5.13249e-10
4.96757e-10
4.80227e-10
4.63705e-10
4.47234e-10
4.30855e-10
4.14602e-10
3.98509e-10
3.82606e-10
3.6692e-10
3.51475e-10
3.36291e-10
3.21389e-10
3.06783e-10
2.92488e-10
2.78515e-10
2.64874e-10
2.51575e-10
2.38623e-10
2.26025e-10
2.13784e-10
2.01905e-10
1.90391e-10
1.79242e-10
1.68462e-10
1.58051e-10
1.4801e-10
1.3834e-10
1.2904e-10
1.20111e-10
1.11552e-10
1.03364e-10
9.55447e-11
8.80938e-11
8.10097e-11
7.42905e-11
6.79338e-11
6.19365e-11
5.62952e-11
5.10053e-11
4.60616e-11
4.14583e-11
3.71883e-11
3.32439e-11
2.96161e-11
2.62955e-11
2.32712e-11
2.05319e-11
1.80653e-11
1.58582e-11
1.3897e-11
1.21674e-11
1.06546e-11
9.3436e-12
8.21903e-12
7.2654e-12
6.46721e-12
5.80906e-12
5.27574e-12
4.8523e-12
4.52422e-12
4.27743e-12
4.09845e-12
3.97445e-12
3.89337e-12
3.84396e-12
3.81591e-12
3.7999e-12
3.78768e-12
3.77211e-12
3.74726e-12
3.70838e-12
3.65193e-12
3.57557e-12
3.47813e-12
3.35947e-12
3.22048e-12
3.06286e-12
2.88904e-12
2.70202e-12
2.50514e-12
2.30198e-12
2.09616e-12
1.8912e-12
1.69035e-12
1.49656e-12
1.31232e-12
1.13963e-12
9.80006e-13
8.34426e-13
7.03403e-13
5.87003e-13
4.84907e-13
3.96483e-13
3.20852e-13
2.56959e-13
2.03644e-13
1.59697e-13
1.2391e-13
9.51195e-14
7.22368e-14
5.4268e-14
4.0327e-14
2.96405e-14
2.1547e-14
1.54907e-14
1.10131e-14
7.74242e-15
5.382e-15
3.69897e-15
2.51336e-15
1.68818e-15
1.12069e-15
7.34977e-16
4.75682e-16
3.02955e-16
1.88381e-16
1.11769e-16
5.86363e-17
1.82078e-17
2.38641e-14
7.19187e-14
1.20963e-13
1.71678e-13
2.2477e-13
2.80974e-13
3.41062e-13
4.05856e-13
4.76236e-13
5.53148e-13
6.37619e-13
7.30766e-13
8.33807e-13
9.4808e-13
1.07505e-12
1.21633e-12
1.37369e-12
1.54909e-12
1.74467e-12
1.96282e-12
2.20613e-12
2.47749e-12
2.78006e-12
3.11733e-12
3.49311e-12
3.91162e-12
4.37747e-12
4.89571e-12
5.47188e-12
6.11204e-12
6.82279e-12
7.61135e-12
8.48559e-12
9.45405e-12
1.0526e-11
1.17116e-11
1.30217e-11
1.4468e-11
1.60635e-11
1.78216e-11
1.97573e-11
2.18863e-11
2.42257e-11
2.67934e-11
2.96089e-11
3.26927e-11
3.60667e-11
3.97539e-11
4.37787e-11
4.81668e-11
5.29451e-11
5.81419e-11
6.37864e-11
6.99093e-11
7.65422e-11
8.37176e-11
9.1469e-11
9.98305e-11
1.08837e-10
1.18523e-10
1.28924e-10
1.40075e-10
1.5201e-10
1.64764e-10
1.7837e-10
1.92858e-10
2.08259e-10
2.24599e-10
2.41905e-10
2.60196e-10
2.79491e-10
2.99805e-10
3.21146e-10
3.43518e-10
3.6692e-10
3.91344e-10
4.16776e-10
4.43194e-10
4.7057e-10
4.98867e-10
5.28041e-10
5.58038e-10
5.88796e-10
6.20246e-10
6.52307e-10
6.84893e-10
7.17907e-10
7.51244e-10
7.84794e-10
8.18436e-10
8.52045e-10
8.85488e-10
9.1863e-10
9.5133e-10
9.83443e-10
1.01482e-09
1.04533e-09
1.0748e-09
1.10311e-09
1.13011e-09
1.15566e-09
1.17964e-09
1.20191e-09
1.22237e-09
1.24091e-09
1.25743e-09
1.27186e-09
1.2841e-09
1.29412e-09
1.30187e-09
1.30731e-09
1.31042e-09
1.31121e-09
1.3097e-09
1.30589e-09
1.29984e-09
1.29159e-09
1.28122e-09
1.26879e-09
1.2544e-09
1.23813e-09
1.2201e-09
1.20042e-09
1.1792e-09
1.15656e-09
1.13263e-09
1.10754e-09
1.08142e-09
1.05439e-09
1.02658e-09
9.9812e-10
9.69126e-10
9.39719e-10
9.10011e-10
8.8011e-10
8.50118e-10
8.20132e-10
7.90241e-10
7.60529e-10
7.31071e-10
7.01936e-10
6.73187e-10
6.44881e-10
6.17066e-10
5.89786e-10
5.63079e-10
5.36975e-10
5.11502e-10
4.86682e-10
4.62531e-10
4.39062e-10
4.16286e-10
3.94209e-10
3.72834e-10
3.52163e-10
3.32193e-10
3.12923e-10
2.94347e-10
2.76461e-10
2.59258e-10
2.4273e-10
2.2687e-10
2.11669e-10
1.97118e-10
1.83211e-10
1.69936e-10
1.57285e-10
1.4525e-10
1.33821e-10
1.22988e-10
1.12742e-10
1.03073e-10
9.39703e-11
8.54231e-11
7.74199e-11
6.99486e-11
6.29962e-11
5.65489e-11
5.05922e-11
4.51105e-11
4.00872e-11
3.55051e-11
3.13458e-11
2.75903e-11
2.42185e-11
2.121e-11
1.85436e-11
1.61978e-11
1.41505e-11
1.23798e-11
1.08634e-11
9.57931e-12
8.50557e-12
7.62067e-12
6.90353e-12
6.33364e-12
5.89118e-12
5.5571e-12
5.31327e-12
5.14254e-12
5.02884e-12
4.95731e-12
4.91434e-12
4.88772e-12
4.86665e-12
4.84186e-12
4.80563e-12
4.75182e-12
4.67588e-12
4.57481e-12
4.44708e-12
4.29257e-12
4.1124e-12
3.90879e-12
3.68484e-12
3.44438e-12
3.19169e-12
2.93132e-12
2.66789e-12
2.40583e-12
2.14932e-12
1.90203e-12
1.66713e-12
1.44712e-12
1.2439e-12
1.05869e-12
8.92105e-13
7.44195e-13
6.14534e-13
5.02294e-13
4.0634e-13
3.25317e-13
2.57737e-13
2.02054e-13
1.56729e-13
1.20279e-13
9.13195e-14
6.85862e-14
5.09544e-14
3.74429e-14
2.72129e-14
1.95599e-14
1.39033e-14
9.77243e-15
6.79191e-15
4.66721e-15
3.17076e-15
2.12943e-15
1.41342e-15
9.26844e-16
5.99792e-16
3.81961e-16
2.37488e-16
1.40895e-16
7.39127e-17
2.29509e-17
4.33224e-14
1.30565e-13
2.19619e-13
3.11733e-13
4.08199e-13
5.10362e-13
6.19639e-13
7.37538e-13
8.65672e-13
1.00578e-12
1.15975e-12
1.32963e-12
1.51766e-12
1.72632e-12
1.95829e-12
2.21655e-12
2.50438e-12
2.82537e-12
3.18351e-12
3.58317e-12
4.02918e-12
4.52688e-12
5.08211e-12
5.70134e-12
6.39165e-12
7.16083e-12
8.01746e-12
8.97091e-12
1.00315e-11
1.12104e-11
1.25199e-11
1.39735e-11
1.55858e-11
1.73727e-11
1.93515e-11
2.15409e-11
2.39613e-11
2.66346e-11
2.95846e-11
3.28368e-11
3.64187e-11
4.03598e-11
4.46917e-11
4.94481e-11
5.46651e-11
6.03809e-11
6.66361e-11
7.34737e-11
8.09391e-11
8.90799e-11
9.79461e-11
1.0759e-10
1.18066e-10
1.29431e-10
1.41743e-10
1.55062e-10
1.6945e-10
1.84969e-10
2.01684e-10
2.19657e-10
2.38953e-10
2.59635e-10
2.81766e-10
3.05406e-10
3.30614e-10
3.57446e-10
3.85952e-10
4.1618e-10
4.48171e-10
4.8196e-10
5.17575e-10
5.55036e-10
5.94353e-10
6.35525e-10
6.78542e-10
7.2338e-10
7.70005e-10
8.18365e-10
8.68397e-10
9.20022e-10
9.73144e-10
1.02765e-09
1.08342e-09
1.14031e-09
1.19815e-09
1.25678e-09
1.31599e-09
1.37559e-09
1.43535e-09
1.49505e-09
1.55444e-09
1.61327e-09
1.67127e-09
1.72818e-09
1.78372e-09
1.83764e-09
1.88965e-09
1.93949e-09
1.98689e-09
2.0316e-09
2.07338e-09
2.11201e-09
2.14726e-09
2.17894e-09
2.20688e-09
2.23092e-09
2.25094e-09
2.26684e-09
2.27853e-09
2.28597e-09
2.28913e-09
2.28802e-09
2.28266e-09
2.27313e-09
2.2595e-09
2.24189e-09
2.22042e-09
2.19525e-09
2.16655e-09
2.13453e-09
2.09937e-09
2.0613e-09
2.02056e-09
1.97738e-09
1.93201e-09
1.88468e-09
1.83566e-09
1.78517e-09
1.73348e-09
1.68081e-09
1.6274e-09
1.57347e-09
1.51922e-09
1.46487e-09
1.41059e-09
1.35656e-09
1.30295e-09
1.2499e-09
1.19755e-09
1.14602e-09
1.09541e-09
1.04583e-09
9.97341e-10
9.50026e-10
9.03939e-10
8.59125e-10
8.15623e-10
7.73458e-10
7.32649e-10
6.93208e-10
6.55139e-10
6.18438e-10
5.831e-10
5.49111e-10
5.16457e-10
4.85118e-10
4.55073e-10
4.26297e-10
3.98767e-10
3.72454e-10
3.47333e-10
3.23376e-10
3.00555e-10
2.78842e-10
2.58211e-10
2.38633e-10
2.20082e-10
2.02533e-10
1.85958e-10
1.70332e-10
1.55629e-10
1.41825e-10
1.28894e-10
1.1681e-10
1.05548e-10
9.5082e-11
8.53854e-11
7.64312e-11
6.81919e-11
6.06393e-11
5.37444e-11
4.74776e-11
4.18086e-11
3.67067e-11
3.21403e-11
2.80778e-11
2.44872e-11
2.13361e-11
1.85926e-11
1.62245e-11
1.42002e-11
1.24885e-11
1.10588e-11
9.88123e-12
8.92689e-12
8.16786e-12
7.57737e-12
7.12991e-12
6.80129e-12
6.56882e-12
6.41137e-12
6.30944e-12
6.24534e-12
6.20319e-12
6.16907e-12
6.13104e-12
6.0792e-12
6.00571e-12
5.90478e-12
5.7726e-12
5.60726e-12
5.4086e-12
5.17808e-12
4.91849e-12
4.63378e-12
4.32877e-12
4.00884e-12
3.67972e-12
3.34717e-12
3.01678e-12
2.69372e-12
2.3826e-12
2.08732e-12
1.81101e-12
1.55598e-12
1.32371e-12
1.11494e-12
9.29698e-13
7.67408e-13
6.27003e-13
5.07035e-13
4.05786e-13
3.21378e-13
2.51861e-13
1.95301e-13
1.49834e-13
1.13725e-13
8.53895e-14
6.34208e-14
4.65917e-14
3.38537e-14
2.43274e-14
1.72883e-14
1.21492e-14
8.44212e-15
5.80011e-15
3.93975e-15
2.64545e-15
1.75568e-15
1.15112e-15
7.44837e-16
4.74277e-16
2.94858e-16
1.74918e-16
9.17561e-17
2.84908e-17
7.74991e-14
2.33576e-13
3.92923e-13
5.57794e-13
7.30518e-13
9.13526e-13
1.10938e-12
1.32081e-12
1.55072e-12
1.80227e-12
2.07888e-12
2.38426e-12
2.72249e-12
3.09804e-12
3.51581e-12
3.98121e-12
4.50018e-12
5.07931e-12
5.72582e-12
6.4477e-12
7.25378e-12
8.15375e-12
9.15834e-12
1.02793e-11
1.15297e-11
1.29236e-11
1.44769e-11
1.62067e-11
1.81317e-11
2.02728e-11
2.26523e-11
2.52949e-11
2.82274e-11
3.14792e-11
3.50818e-11
3.90698e-11
4.34806e-11
4.83546e-11
5.37353e-11
5.96698e-11
6.62087e-11
7.34062e-11
8.13204e-11
9.00135e-11
9.95517e-11
1.10005e-10
1.21449e-10
1.33962e-10
1.47628e-10
1.62533e-10
1.78771e-10
1.96436e-10
2.15629e-10
2.36453e-10
2.59015e-10
2.83424e-10
3.09793e-10
3.38236e-10
3.68867e-10
4.01804e-10
4.3716e-10
4.75051e-10
5.15587e-10
5.58876e-10
6.05022e-10
6.54122e-10
7.06263e-10
7.61527e-10
8.19982e-10
8.81685e-10
9.46676e-10
1.01498e-09
1.08661e-09
1.16155e-09
1.23976e-09
1.3212e-09
1.40577e-09
1.49337e-09
1.58387e-09
1.67709e-09
1.77286e-09
1.87094e-09
1.97107e-09
2.07299e-09
2.17637e-09
2.28087e-09
2.38611e-09
2.49172e-09
2.59725e-09
2.70227e-09
2.80632e-09
2.90892e-09
3.00959e-09
3.10782e-09
3.20311e-09
3.29496e-09
3.38289e-09
3.4664e-09
3.54502e-09
3.61832e-09
3.68585e-09
3.74723e-09
3.8021e-09
3.85014e-09
3.89105e-09
3.92462e-09
3.95064e-09
3.96898e-09
3.97956e-09
3.98232e-09
3.9773e-09
3.96456e-09
3.94422e-09
3.91645e-09
3.88145e-09
3.8395e-09
3.7909e-09
3.73597e-09
3.67509e-09
3.60866e-09
3.53709e-09
3.46084e-09
3.38036e-09
3.2961e-09
3.20855e-09
3.11816e-09
3.02542e-09
2.93076e-09
2.83465e-09
2.7375e-09
2.63974e-09
2.54175e-09
2.4439e-09
2.34654e-09
2.24998e-09
2.15452e-09
2.06042e-09
1.96792e-09
1.87722e-09
1.78852e-09
1.70197e-09
1.6177e-09
1.53583e-09
1.45644e-09
1.37959e-09
1.30534e-09
1.23371e-09
1.16472e-09
1.09837e-09
1.03465e-09
9.73525e-10
9.14968e-10
8.58936e-10
8.05381e-10
7.54247e-10
7.05477e-10
6.59009e-10
6.14778e-10
5.72718e-10
5.32764e-10
4.94847e-10
4.58903e-10
4.24864e-10
3.92668e-10
3.6225e-10
3.33549e-10
3.06506e-10
2.81061e-10
2.57159e-10
2.34744e-10
2.13763e-10
1.94162e-10
1.75891e-10
1.58899e-10
1.43136e-10
1.28554e-10
1.15102e-10
1.02733e-10
9.13987e-11
8.10497e-11
7.16379e-11
6.31146e-11
5.54314e-11
4.85398e-11
4.23912e-11
3.69374e-11
3.21306e-11
2.79234e-11
2.42689e-11
2.11214e-11
1.84359e-11
1.61686e-11
1.4277e-11
1.272e-11
1.14583e-11
1.04541e-11
9.67137e-12
9.07619e-12
8.63654e-12
8.32254e-12
8.10656e-12
7.96326e-12
7.86971e-12
7.80547e-12
7.75268e-12
7.69607e-12
7.62306e-12
7.52372e-12
7.39071e-12
7.21924e-12
7.00694e-12
6.75362e-12
6.46112e-12
6.13297e-12
5.77411e-12
5.39056e-12
4.98904e-12
4.57667e-12
4.16062e-12
3.7478e-12
3.34461e-12
2.95672e-12
2.58895e-12
2.2451e-12
1.92799e-12
1.63941e-12
1.38021e-12
1.15038e-12
9.49161e-13
7.7518e-13
6.26608e-13
5.01288e-13
3.96866e-13
3.10909e-13
2.41005e-13
1.84837e-13
1.40247e-13
1.05272e-13
7.81653e-14
5.74078e-14
4.17017e-14
2.99596e-14
2.12858e-14
1.4955e-14
1.03897e-14
7.13676e-15
4.84678e-15
3.25394e-15
2.15917e-15
1.41547e-15
9.15767e-16
5.8305e-16
3.62446e-16
2.14996e-16
1.12773e-16
3.50157e-17
1.36635e-13
4.11826e-13
6.92836e-13
9.83675e-13
1.28849e-12
1.61161e-12
1.9576e-12
2.33132e-12
2.73797e-12
3.18318e-12
3.67304e-12
4.21422e-12
4.814e-12
5.48038e-12
6.22215e-12
7.049e-12
7.97163e-12
9.00181e-12
1.01526e-11
1.14383e-11
1.28747e-11
1.44795e-11
1.62719e-11
1.82731e-11
2.05065e-11
2.29979e-11
2.57755e-11
2.88705e-11
3.23169e-11
3.6152e-11
4.04166e-11
4.51552e-11
5.04166e-11
5.62536e-11
6.2724e-11
6.98901e-11
7.78198e-11
8.65865e-11
9.62693e-11
1.06954e-10
1.18731e-10
1.31701e-10
1.45969e-10
1.61647e-10
1.78856e-10
1.97723e-10
2.18386e-10
2.40986e-10
2.65677e-10
2.92615e-10
3.21969e-10
3.53913e-10
3.88627e-10
4.26298e-10
4.6712e-10
5.11291e-10
5.59014e-10
6.10494e-10
6.65938e-10
7.25553e-10
7.89547e-10
8.58121e-10
9.31474e-10
1.0098e-09
1.09327e-09
1.18206e-09
1.27632e-09
1.37619e-09
1.48178e-09
1.59317e-09
1.71044e-09
1.8336e-09
1.96266e-09
2.09757e-09
2.23826e-09
2.38459e-09
2.53639e-09
2.69344e-09
2.85546e-09
3.02213e-09
3.19307e-09
3.36783e-09
3.54593e-09
3.72681e-09
3.90988e-09
4.09447e-09
4.27989e-09
4.46539e-09
4.65016e-09
4.83339e-09
5.0142e-09
5.19173e-09
5.36505e-09
5.53327e-09
5.69547e-09
5.85074e-09
5.9982e-09
6.13697e-09
6.26624e-09
6.38522e-09
6.49317e-09
6.58943e-09
6.67339e-09
6.74453e-09
6.80241e-09
6.84668e-09
6.87706e-09
6.89341e-09
6.89564e-09
6.88378e-09
6.85797e-09
6.81843e-09
6.76547e-09
6.69949e-09
6.62098e-09
6.53051e-09
6.42871e-09
6.31627e-09
6.19395e-09
6.06253e-09
5.92285e-09
5.77576e-09
5.62213e-09
5.46284e-09
5.29877e-09
5.1308e-09
4.95976e-09
4.7865e-09
4.6118e-09
4.43644e-09
4.26112e-09
4.08652e-09
3.91328e-09
3.74196e-09
3.5731e-09
3.40716e-09
3.24457e-09
3.08568e-09
2.93082e-09
2.78026e-09
2.6342e-09
2.49284e-09
2.35629e-09
2.22465e-09
2.09799e-09
1.97632e-09