/*--------------------------------*- C++ -*----------------------------------*\
| =========                 |                                                 |
| \\      /  F ield         | OpenFOAM: The Open Source CFD Toolbox           |
|  \\    /   O peration     | Version:  v2012                                 |
|   \\  /    A nd           | Website:  www.openfoam.com                      |
|    \\/     M anipulation  |                                                 |
\*---------------------------------------------------------------------------*/
FoamFile
{
    version     2.0;
    format      ascii;
    class       surfaceScalarField;
    location    "17";
    object      phi;
}
// * * * * * * * * * * * * * * * * * * * * * * * * * * * * * * * * * * * * * //

dimensions      [0 3 -1 0 0 0 0];
oriented        oriented;


internalField   nonuniform List<scalar> 
130560
(
3.30371e-06
-3.30371e-06
6.60761e-06
-3.3039e-06
9.91186e-06
-3.30425e-06
1.32166e-05
-3.30478e-06
1.65221e-05
-3.30548e-06
1.98285e-05
-3.30636e-06
2.31359e-05
-3.30741e-06
2.64445e-05
-3.30863e-06
2.97545e-05
-3.31001e-06
3.30661e-05
-3.31156e-06
3.63794e-05
-3.31326e-06
3.96945e-05
-3.31512e-06
4.30116e-05
-3.31714e-06
4.63309e-05
-3.31929e-06
4.96525e-05
-3.32159e-06
5.29765e-05
-3.32402e-06
5.63031e-05
-3.32658e-06
5.96324e-05
-3.32926e-06
6.29644e-05
-3.33206e-06
6.62994e-05
-3.33496e-06
6.96374e-05
-3.33796e-06
7.29784e-05
-3.34105e-06
7.63226e-05
-3.34422e-06
7.96701e-05
-3.34747e-06
8.30209e-05
-3.35077e-06
8.6375e-05
-3.35412e-06
8.97325e-05
-3.35751e-06
9.30934e-05
-3.36093e-06
9.64578e-05
-3.36436e-06
9.98256e-05
-3.36779e-06
0.000103197
-3.37121e-06
0.000106571
-3.3746e-06
0.000109949
-3.37795e-06
0.000113331
-3.38125e-06
0.000116715
-3.38447e-06
0.000120103
-3.38759e-06
0.000123493
-3.39062e-06
0.000126887
-3.39351e-06
0.000130283
-3.39626e-06
0.000133682
-3.39884e-06
0.000137083
-3.40124e-06
0.000140487
-3.40343e-06
0.000143892
-3.4054e-06
0.000147299
-3.40711e-06
0.000150708
-3.40856e-06
0.000154117
-3.4097e-06
0.000157528
-3.41052e-06
0.000160939
-3.411e-06
0.00016435
-3.4111e-06
0.000167761
-3.41081e-06
0.000171171
-3.41009e-06
0.00017458
-3.40891e-06
0.000177987
-3.40725e-06
0.000181392
-3.40508e-06
0.000184794
-3.40236e-06
0.000188194
-3.39907e-06
0.000191589
-3.39517e-06
0.000194979
-3.39064e-06
0.000198365
-3.38544e-06
0.000201744
-3.37954e-06
0.000205117
-3.37291e-06
0.000208483
-3.3655e-06
0.00021184
-3.35729e-06
0.000215188
-3.34825e-06
0.000218527
-3.33833e-06
0.000221854
-3.32751e-06
0.00022517
-3.31575e-06
0.000228473
-3.30301e-06
0.000231762
-3.28925e-06
0.000235037
-3.27446e-06
0.000238295
-3.25857e-06
0.000241537
-3.24158e-06
0.00024476
-3.22343e-06
0.000247964
-3.2041e-06
0.000251148
-3.18355e-06
0.00025431
-3.16174e-06
0.000257448
-3.13866e-06
0.000260562
-3.11425e-06
0.000263651
-3.08851e-06
0.000266712
-3.06138e-06
0.000269745
-3.03285e-06
0.000272748
-3.00289e-06
0.00027572
-2.97147e-06
0.000278658
-2.93857e-06
0.000281562
-2.90417e-06
0.000284431
-2.86823e-06
0.000287261
-2.83075e-06
0.000290053
-2.79171e-06
0.000292804
-2.75108e-06
0.000295513
-2.70886e-06
0.000298178
-2.66503e-06
0.000300798
-2.61959e-06
0.00030337
-2.57253e-06
0.000305894
-2.52385e-06
0.000308367
-2.47354e-06
0.000310789
-2.4216e-06
0.000313157
-2.36804e-06
0.00031547
-2.31286e-06
0.000317726
-2.25609e-06
0.000319924
-2.19772e-06
0.000322062
-2.13777e-06
0.000324138
-2.07627e-06
0.000326151
-2.01323e-06
0.0003281
-1.94869e-06
0.000329982
-1.88266e-06
0.000331798
-1.81519e-06
0.000333544
-1.7463e-06
0.00033522
-1.67604e-06
0.000336824
-1.60444e-06
0.000338356
-1.53155e-06
0.000339813
-1.45741e-06
0.000341195
-1.38209e-06
0.000342501
-1.30562e-06
0.000343729
-1.22806e-06
0.000344879
-1.14948e-06
0.000345949
-1.06993e-06
0.000346938
-9.89482e-07
0.000347846
-9.08192e-07
0.000348672
-8.26131e-07
0.000349416
-7.43368e-07
0.000350076
-6.59975e-07
0.000350652
-5.76023e-07
0.000351143
-4.91586e-07
0.00035155
-4.0674e-07
0.000351872
-3.21561e-07
0.000352108
-2.36125e-07
0.000352258
-1.5051e-07
0.000352323
-6.47934e-08
0.000352302
2.09471e-08
0.000352195
1.06634e-07
0.000352003
1.92188e-07
0.000351726
2.77535e-07
0.000351363
3.62597e-07
0.000350916
4.47298e-07
0.000350384
5.31565e-07
0.000349769
6.15325e-07
0.00034907
6.98506e-07
0.000348289
7.81037e-07
0.000347427
8.62852e-07
0.000346483
9.43884e-07
0.000345459
1.02407e-06
0.000344355
1.10335e-06
0.000343174
1.18165e-06
0.000341915
1.25894e-06
0.000340579
1.33514e-06
0.000339169
1.41021e-06
0.000337685
1.48411e-06
0.000336128
1.55678e-06
0.0003345
1.62818e-06
0.000332802
1.69827e-06
0.000331035
1.76702e-06
0.000329201
1.83438e-06
0.0003273
1.90034e-06
0.000325335
1.96486e-06
0.000323307
2.02791e-06
0.000321218
2.08948e-06
0.000319068
2.14954e-06
0.00031686
2.20809e-06
0.000314595
2.2651e-06
0.000312275
2.32056e-06
0.0003099
2.37447e-06
0.000307473
2.42682e-06
0.000304996
2.47762e-06
0.000302469
2.52685e-06
0.000299894
2.57452e-06
0.000297274
2.62065e-06
0.000294609
2.66522e-06
0.0002919
2.70826e-06
0.00028915
2.74977e-06
0.000286361
2.78977e-06
0.000283532
2.82827e-06
0.000280667
2.86529e-06
0.000277766
2.90085e-06
0.000274831
2.93497e-06
0.000271864
2.96766e-06
0.000268865
2.99896e-06
0.000265836
3.02888e-06
0.000262778
3.05745e-06
0.000259694
3.08469e-06
0.000256583
3.11064e-06
0.000253448
3.13533e-06
0.000250289
3.15877e-06
0.000247108
3.181e-06
0.000243906
3.20204e-06
0.000240684
3.22194e-06
0.000237443
3.24072e-06
0.000234185
3.25841e-06
0.00023091
3.27504e-06
0.000227619
3.29064e-06
0.000224314
3.30525e-06
0.000220995
3.3189e-06
0.000217663
3.33161e-06
0.00021432
3.34343e-06
0.000210966
3.35438e-06
0.000207601
3.36449e-06
0.000204227
3.3738e-06
0.000200845
3.38234e-06
0.000197455
3.39013e-06
0.000194058
3.39721e-06
0.000190654
3.4036e-06
0.000187245
3.40935e-06
0.00018383
3.41447e-06
0.000180411
3.419e-06
0.000176988
3.42296e-06
0.000173562
3.42638e-06
0.000170133
3.42929e-06
0.000166701
3.43172e-06
0.000163267
3.43369e-06
0.000159832
3.43523e-06
0.000156396
3.43637e-06
0.000152958
3.43712e-06
0.000149521
3.43751e-06
0.000146083
3.43758e-06
0.000142646
3.43733e-06
0.000139209
3.43679e-06
0.000135773
3.43599e-06
0.000132338
3.43494e-06
0.000128905
3.43366e-06
0.000125472
3.43219e-06
0.000122042
3.43052e-06
0.000118613
3.42869e-06
0.000115187
3.42671e-06
0.000111762
3.4246e-06
0.00010834
3.42238e-06
0.00010492
3.42006e-06
0.000101502
3.41766e-06
9.80867e-05
3.41519e-06
9.4674e-05
3.41267e-06
9.12639e-05
3.41011e-06
8.78564e-05
3.40752e-06
8.44514e-05
3.40493e-06
8.10491e-05
3.40234e-06
7.76493e-05
3.39976e-06
7.42521e-05
3.3972e-06
7.08574e-05
3.39468e-06
6.74652e-05
3.39221e-06
6.40754e-05
3.38979e-06
6.0688e-05
3.38744e-06
5.73029e-05
3.38516e-06
5.39199e-05
3.38296e-06
5.0539e-05
3.38085e-06
4.71602e-05
3.37884e-06
4.37833e-05
3.37693e-06
4.04081e-05
3.37514e-06
3.70347e-05
3.37345e-06
3.36628e-05
3.37189e-06
3.02923e-05
3.37046e-06
2.69232e-05
3.36916e-06
2.35552e-05
3.36799e-06
2.01882e-05
3.36696e-06
1.68221e-05
3.36607e-06
1.34568e-05
3.36533e-06
1.00921e-05
3.36473e-06
6.72781e-06
3.36428e-06
3.36383e-06
3.36398e-06
3.36383e-06
3.30355e-06
-6.60726e-06
6.60727e-06
-6.60762e-06
9.91135e-06
-6.60833e-06
1.3216e-05
-6.60939e-06
1.65213e-05
-6.6108e-06
1.98275e-05
-6.61256e-06
2.31347e-05
-6.61466e-06
2.64432e-05
-6.6171e-06
2.9753e-05
-6.61987e-06
3.30645e-05
-6.62296e-06
3.63776e-05
-6.62638e-06
3.96925e-05
-6.6301e-06
4.30095e-05
-6.63413e-06
4.63287e-05
-6.63845e-06
4.96502e-05
-6.64305e-06
5.29741e-05
-6.64792e-06
5.63005e-05
-6.65305e-06
5.96297e-05
-6.65842e-06
6.29616e-05
-6.66402e-06
6.62965e-05
-6.66983e-06
6.96344e-05
-6.67584e-06
7.29754e-05
-6.68203e-06
7.63195e-05
-6.68838e-06
7.96669e-05
-6.69488e-06
8.30176e-05
-6.70149e-06
8.63717e-05
-6.70821e-06
8.97292e-05
-6.715e-06
9.30901e-05
-6.72185e-06
9.64545e-05
-6.72872e-06
9.98223e-05
-6.7356e-06
0.000103194
-6.74246e-06
0.000106568
-6.74926e-06
0.000109946
-6.75597e-06
0.000113328
-6.76257e-06
0.000116712
-6.76903e-06
0.0001201
-6.7753e-06
0.000123491
-6.78136e-06
0.000126884
-6.78717e-06
0.000130281
-6.79268e-06
0.00013368
-6.79787e-06
0.000137081
-6.80269e-06
0.000140485
-6.8071e-06
0.00014389
-6.81105e-06
0.000147298
-6.8145e-06
0.000150707
-6.81741e-06
0.000154117
-6.81973e-06
0.000157528
-6.8214e-06
0.000160939
-6.82238e-06
0.00016435
-6.82261e-06
0.000167762
-6.82205e-06
0.000171172
-6.82063e-06
0.000174582
-6.81831e-06
0.000177989
-6.81501e-06
0.000181395
-6.8107e-06
0.000184798
-6.80529e-06
0.000188198
-6.79874e-06
0.000191593
-6.79099e-06
0.000194985
-6.78196e-06
0.000198371
-6.77159e-06
0.000201751
-6.75982e-06
0.000205125
-6.74658e-06
0.000208491
-6.7318e-06
0.000211849
-6.71542e-06
0.000215198
-6.69737e-06
0.000218538
-6.67757e-06
0.000221866
-6.65596e-06
0.000225183
-6.63247e-06
0.000228487
-6.60702e-06
0.000231777
-6.57956e-06
0.000235053
-6.54999e-06
0.000238312
-6.51827e-06
0.000241555
-6.48431e-06
0.00024478
-6.44804e-06
0.000247985
-6.40941e-06
0.00025117
-6.36834e-06
0.000254333
-6.32477e-06
0.000257473
-6.27863e-06
0.000260588
-6.22985e-06
0.000263678
-6.17839e-06
0.000266741
-6.12417e-06
0.000269775
-6.06714e-06
0.00027278
-6.00724e-06
0.000275753
-5.94443e-06
0.000278693
-5.87865e-06
0.000281598
-5.80986e-06
0.000284468
-5.73801e-06
0.000287301
-5.66306e-06
0.000290094
-5.58499e-06
0.000292847
-5.50375e-06
0.000295557
-5.41932e-06
0.000298224
-5.33168e-06
0.000300845
-5.24081e-06
0.000303419
-5.14669e-06
0.000305944
-5.04932e-06
0.00030842
-4.94869e-06
0.000310843
-4.84481e-06
0.000313212
-4.73769e-06
0.000315527
-4.62733e-06
0.000317785
-4.51376e-06
0.000319984
-4.39701e-06
0.000322123
-4.2771e-06
0.000324201
-4.15407e-06
0.000326216
-4.02797e-06
0.000328166
-3.89885e-06
0.00033005
-3.76677e-06
0.000331867
-3.63179e-06
0.000333614
-3.49397e-06
0.000335292
-3.3534e-06
0.000336897
-3.21016e-06
0.00033843
-3.06433e-06
0.000339889
-2.91602e-06
0.000341272
-2.76531e-06
0.000342579
-2.61232e-06
0.000343808
-2.45715e-06
0.000344958
-2.29993e-06
0.000346029
-2.14077e-06
0.000347019
-1.9798e-06
0.000347928
-1.81715e-06
0.000348755
-1.65296e-06
0.000349499
-1.48736e-06
0.00035016
-1.3205e-06
0.000350736
-1.15252e-06
0.000351228
-9.83576e-07
0.000351635
-8.13809e-07
0.000351957
-6.43373e-07
0.000352193
-4.72424e-07
0.000352344
-3.01116e-07
0.000352409
-1.29605e-07
0.000352388
4.19538e-08
0.000352281
2.13404e-07
0.000352089
3.84591e-07
0.000351811
5.5536e-07
0.000351448
7.25559e-07
0.000351
8.95036e-07
0.000350468
1.06364e-06
0.000349852
1.23123e-06
0.000349153
1.39767e-06
0.000348371
1.5628e-06
0.000347508
1.72649e-06
0.000346563
1.88862e-06
0.000345538
2.04905e-06
0.000344434
2.20766e-06
0.000343251
2.36434e-06
0.000341991
2.51896e-06
0.000340655
2.67142e-06
0.000339243
2.82161e-06
0.000337758
2.96945e-06
0.0003362
3.11483e-06
0.00033457
3.25767e-06
0.000332871
3.39789e-06
0.000331102
3.53541e-06
0.000329266
3.67018e-06
0.000327365
3.80212e-06
0.000325398
3.93118e-06
0.000323369
4.05731e-06
0.000321278
4.18047e-06
0.000319127
4.30061e-06
0.000316917
4.41771e-06
0.000314651
4.53174e-06
0.000312328
4.64268e-06
0.000309952
4.7505e-06
0.000307524
4.85521e-06
0.000305045
4.9568e-06
0.000302516
5.05526e-06
0.00029994
5.1506e-06
0.000297318
5.24284e-06
0.000294651
5.33198e-06
0.000291942
5.41805e-06
0.00028919
5.50106e-06
0.000286399
5.58104e-06
0.000283569
5.65803e-06
0.000280703
5.73205e-06
0.0002778
5.80315e-06
0.000274864
5.87136e-06
0.000271895
5.93672e-06
0.000268894
5.99929e-06
0.000265864
6.05911e-06
0.000262805
6.11622e-06
0.000259719
6.17069e-06
0.000256608
6.22256e-06
0.000253471
6.27189e-06
0.000250311
6.31875e-06
0.000247129
6.36318e-06
0.000243926
6.40524e-06
0.000240703
6.44501e-06
0.000237461
6.48253e-06
0.000234201
6.51787e-06
0.000230925
6.5511e-06
0.000227634
6.58228e-06
0.000224327
6.61147e-06
0.000221008
6.63873e-06
0.000217675
6.66413e-06
0.000214331
6.68773e-06
0.000210976
6.7096e-06
0.00020761
6.72979e-06
0.000204236
6.74838e-06
0.000200853
6.76542e-06
0.000197462
6.78097e-06
0.000194064
6.7951e-06
0.00019066
6.80786e-06
0.00018725
6.81932e-06
0.000183835
6.82953e-06
0.000180415
6.83856e-06
0.000176992
6.84645e-06
0.000173565
6.85327e-06
0.000170135
6.85906e-06
0.000166703
6.8639e-06
0.000163269
6.86781e-06
0.000159833
6.87087e-06
0.000156396
6.87311e-06
0.000152959
6.87459e-06
0.000149521
6.87536e-06
0.000146083
6.87546e-06
0.000142645
6.87494e-06
0.000139208
6.87384e-06
0.000135772
6.87222e-06
0.000132337
6.8701e-06
0.000128903
6.86753e-06
0.000125471
6.86456e-06
0.00012204
6.86121e-06
0.000118611
6.85753e-06
0.000115184
6.85356e-06
0.00011176
6.84932e-06
0.000108337
6.84486e-06
0.000104917
6.8402e-06
0.000101499
6.83538e-06
9.8084e-05
6.83042e-06
9.46713e-05
6.82537e-06
9.12612e-05
6.82024e-06
8.78537e-05
6.81506e-06
8.44487e-05
6.80986e-06
8.10464e-05
6.80466e-06
7.76467e-05
6.79949e-06
7.42495e-05
6.79437e-06
7.08549e-05
6.78932e-06
6.74627e-05
6.78436e-06
6.4073e-05
6.77951e-06
6.06857e-05
6.7748e-06
5.73006e-05
6.77023e-06
5.39177e-05
6.76583e-06
5.0537e-05
6.7616e-06
4.71582e-05
6.75757e-06
4.37814e-05
6.75375e-06
4.04064e-05
6.75015e-06
3.70331e-05
6.74678e-06
3.36613e-05
6.74366e-06
3.0291e-05
6.74079e-06
2.6922e-05
6.73818e-06
2.35541e-05
6.73584e-06
2.01873e-05
6.73377e-06
1.68214e-05
6.73199e-06
1.34562e-05
6.7305e-06
1.00916e-05
6.7293e-06
6.72751e-06
6.72841e-06
3.36368e-06
6.72781e-06
6.72751e-06
3.30319e-06
-9.91045e-06
6.60656e-06
-9.91099e-06
9.91028e-06
-9.91206e-06
1.32145e-05
-9.91365e-06
1.65195e-05
-9.91577e-06
1.98254e-05
-9.91841e-06
2.31323e-05
-9.92156e-06
2.64404e-05
-9.92523e-06
2.97499e-05
-9.92939e-06
3.3061e-05
-9.93404e-06
3.63738e-05
-9.93918e-06
3.96885e-05
-9.94478e-06
4.30052e-05
-9.95083e-06
4.63241e-05
-9.95732e-06
4.96452e-05
-9.96424e-06
5.29689e-05
-9.97156e-06
5.62951e-05
-9.97927e-06
5.9624e-05
-9.98734e-06
6.29558e-05
-9.99576e-06
6.62904e-05
-1.00045e-05
6.96281e-05
-1.00135e-05
7.29689e-05
-1.00228e-05
7.6313e-05
-1.00324e-05
7.96602e-05
-1.00422e-05
8.30109e-05
-1.00521e-05
8.63649e-05
-1.00622e-05
8.97223e-05
-1.00724e-05
9.30832e-05
-1.00827e-05
9.64476e-05
-1.00931e-05
9.98154e-05
-1.01034e-05
0.000103187
-1.01138e-05
0.000106561
-1.0124e-05
0.00010994
-1.01341e-05
0.000113321
-1.0144e-05
0.000116706
-1.01538e-05
0.000120094
-1.01632e-05
0.000123485
-1.01724e-05
0.000126879
-1.01811e-05
0.000130275
-1.01894e-05
0.000133675
-1.01973e-05
0.000137077
-1.02046e-05
0.000140481
-1.02112e-05
0.000143887
-1.02172e-05
0.000147295
-1.02224e-05
0.000150704
-1.02269e-05
0.000154115
-1.02304e-05
0.000157527
-1.0233e-05
0.000160939
-1.02345e-05
0.000164351
-1.02349e-05
0.000167763
-1.02341e-05
0.000171174
-1.02321e-05
0.000174585
-1.02287e-05
0.000177994
-1.02238e-05
0.0001814
-1.02174e-05
0.000184804
-1.02094e-05
0.000188205
-1.01996e-05
0.000191602
-1.01881e-05
0.000194995
-1.01746e-05
0.000198383
-1.01591e-05
0.000201764
-1.01416e-05
0.00020514
-1.01218e-05
0.000208507
-1.00997e-05
0.000211867
-1.00752e-05
0.000215218
-1.00482e-05
0.000218559
-1.00186e-05
0.00022189
-9.9863e-06
0.000225208
-9.95115e-06
0.000228514
-9.91307e-06
0.000231807
-9.87195e-06
0.000235084
-9.82769e-06
0.000238346
-9.78019e-06
0.000241591
-9.72934e-06
0.000244818
-9.67503e-06
0.000248026
-9.61717e-06
0.000251213
-9.55564e-06
0.000254379
-9.49036e-06
0.000257522
-9.42123e-06
0.00026064
-9.34815e-06
0.000263732
-9.27102e-06
0.000266798
-9.18976e-06
0.000269835
-9.10429e-06
0.000272842
-9.01451e-06
0.000275818
-8.92035e-06
0.000278761
-8.82174e-06
0.00028167
-8.71861e-06
0.000284543
-8.61088e-06
0.000287379
-8.49851e-06
0.000290175
-8.38144e-06
0.000292931
-8.25961e-06
0.000295645
-8.133e-06
0.000298314
-8.00156e-06
0.000300939
-7.86527e-06
0.000303516
-7.7241e-06
0.000306045
-7.57805e-06
0.000308523
-7.42711e-06
0.00031095
-7.27128e-06
0.000313323
-7.11057e-06
0.00031564
-6.94501e-06
0.000317901
-6.77462e-06
0.000320104
-6.59945e-06
0.000322246
-6.41954e-06
0.000324327
-6.23495e-06
0.000326345
-6.04574e-06
0.000328298
-5.85199e-06
0.000330185
-5.65378e-06
0.000332004
-5.45122e-06
0.000333755
-5.2444e-06
0.000335435
-5.03345e-06
0.000337043
-4.81847e-06
0.000338578
-4.59961e-06
0.000340039
-4.37701e-06
0.000341425
-4.15082e-06
0.000342734
-3.92119e-06
0.000343965
-3.68829e-06
0.000345117
-3.45231e-06
0.00034619
-3.21341e-06
0.000347182
-2.97179e-06
0.000348093
-2.72765e-06
0.000348921
-2.48119e-06
0.000349666
-2.23262e-06
0.000350328
-1.98215e-06
0.000350905
-1.73e-06
0.000351398
-1.47639e-06
0.000351806
-1.22155e-06
0.000352128
-9.65702e-07
0.000352365
-7.09085e-07
0.000352515
-4.51928e-07
0.00035258
-1.94467e-07
0.000352559
6.30661e-08
0.000352452
3.20436e-07
0.000352259
5.77409e-07
0.000351981
8.33753e-07
0.000351617
1.08924e-06
0.000351169
1.34364e-06
0.000350636
1.59674e-06
0.000350019
1.8483e-06
0.000349318
2.09812e-06
0.000348535
2.34599e-06
0.00034767
2.5917e-06
0.000346723
2.83505e-06
0.000345696
3.07585e-06
0.00034459
3.31392e-06
0.000343405
3.54907e-06
0.000342143
3.78114e-06
0.000340805
4.00995e-06
0.000339391
4.23537e-06
0.000337903
4.45723e-06
0.000336343
4.67541e-06
0.000334711
4.88977e-06
0.000333008
5.1002e-06
0.000331237
5.30657e-06
0.000329398
5.5088e-06
0.000327494
5.70678e-06
0.000325525
5.90044e-06
0.000323492
6.08969e-06
0.000321398
6.27447e-06
0.000319244
6.45473e-06
0.000317031
6.63041e-06
0.000314762
6.80148e-06
0.000312436
6.9679e-06
0.000310057
7.12965e-06
0.000307626
7.28672e-06
0.000305143
7.4391e-06
0.000302612
7.58679e-06
0.000300033
7.72979e-06
0.000297407
7.86813e-06
0.000294738
8.00182e-06
0.000292025
8.13089e-06
0.00028927
8.25537e-06
0.000286476
8.37531e-06
0.000283643
8.49075e-06
0.000280774
8.60174e-06
0.000277869
8.70833e-06
0.000274929
8.81059e-06
0.000271957
8.90858e-06
0.000268954
9.00237e-06
0.000265921
9.09203e-06
0.00026286
9.17764e-06
0.000259771
9.25927e-06
0.000256657
9.33701e-06
0.000253518
9.41094e-06
0.000250356
9.48115e-06
0.000247171
9.54772e-06
0.000243965
9.61074e-06
0.00024074
9.67031e-06
0.000237496
9.72652e-06
0.000234235
9.77946e-06
0.000230957
9.82922e-06
0.000227663
9.87591e-06
0.000224355
9.91961e-06
0.000221033
9.96042e-06
0.000217699
9.99844e-06
0.000214353
1.00338e-05
0.000210996
1.00665e-05
0.000207629
1.00967e-05
0.000204253
1.01245e-05
0.000200868
1.015e-05
0.000197476
1.01732e-05
0.000194077
1.01944e-05
0.000190671
1.02134e-05
0.00018726
1.02305e-05
0.000183844
1.02458e-05
0.000180423
1.02592e-05
0.000176998
1.0271e-05
0.00017357
1.02812e-05
0.00017014
1.02898e-05
0.000166707
1.0297e-05
0.000163272
1.03028e-05
0.000159835
1.03073e-05
0.000156398
1.03106e-05
0.00015296
1.03128e-05
0.000149521
1.03139e-05
0.000146083
1.0314e-05
0.000142644
1.03131e-05
0.000139207
1.03114e-05
0.00013577
1.03089e-05
0.000132334
1.03057e-05
0.0001289
1.03018e-05
0.000125467
1.02973e-05
0.000122036
1.02922e-05
0.000118607
1.02867e-05
0.00011518
1.02807e-05
0.000111755
1.02743e-05
0.000108333
1.02675e-05
0.000104912
1.02605e-05
0.000101494
1.02532e-05
9.8079e-05
1.02458e-05
9.46662e-05
1.02381e-05
9.12561e-05
1.02304e-05
8.78485e-05
1.02226e-05
8.44436e-05
1.02148e-05
8.10413e-05
1.0207e-05
7.76416e-05
1.01992e-05
7.42445e-05
1.01915e-05
7.085e-05
1.01839e-05
6.74579e-05
1.01764e-05
6.40683e-05
1.01691e-05
6.06811e-05
1.0162e-05
5.72962e-05
1.01551e-05
5.39135e-05
1.01485e-05
5.0533e-05
1.01422e-05
4.71544e-05
1.01361e-05
4.37778e-05
1.01304e-05
4.04031e-05
1.01249e-05
3.703e-05
1.01199e-05
3.36585e-05
1.01152e-05
3.02884e-05
1.01109e-05
2.69196e-05
1.01069e-05
2.35521e-05
1.01034e-05
2.01855e-05
1.01003e-05
1.68199e-05
1.00976e-05
1.3455e-05
1.00954e-05
1.00907e-05
1.00936e-05
6.72691e-06
1.00922e-05
3.36338e-06
1.00913e-05
1.00909e-05
3.30265e-06
-1.32131e-05
6.60548e-06
-1.32138e-05
9.90868e-06
-1.32152e-05
1.32124e-05
-1.32174e-05
1.65168e-05
-1.32202e-05
1.98222e-05
-1.32237e-05
2.31286e-05
-1.3228e-05
2.64362e-05
-1.32329e-05
2.97452e-05
-1.32384e-05
3.30558e-05
-1.32446e-05
3.63682e-05
-1.32515e-05
3.96824e-05
-1.3259e-05
4.29986e-05
-1.32671e-05
4.63171e-05
-1.32758e-05
4.96379e-05
-1.3285e-05
5.29611e-05
-1.32948e-05
5.6287e-05
-1.33051e-05
5.96155e-05
-1.33159e-05
6.29469e-05
-1.33272e-05
6.62813e-05
-1.33389e-05
6.96187e-05
-1.3351e-05
7.29593e-05
-1.33634e-05
7.63031e-05
-1.33762e-05
7.96502e-05
-1.33893e-05
8.30007e-05
-1.34026e-05
8.63546e-05
-1.34161e-05
8.97119e-05
-1.34298e-05
9.30727e-05
-1.34436e-05
9.64371e-05
-1.34574e-05
9.9805e-05
-1.34713e-05
0.000103176
-1.34851e-05
0.000106551
-1.34988e-05
0.000109929
-1.35124e-05
0.000113311
-1.35257e-05
0.000116696
-1.35388e-05
0.000120084
-1.35515e-05
0.000123476
-1.35637e-05
0.00012687
-1.35755e-05
0.000130267
-1.35867e-05
0.000133667
-1.35972e-05
0.00013707
-1.3607e-05
0.000140475
-1.3616e-05
0.000143882
-1.36241e-05
0.00014729
-1.36312e-05
0.000150701
-1.36372e-05
0.000154112
-1.3642e-05
0.000157525
-1.36456e-05
0.000160938
-1.36477e-05
0.000164352
-1.36484e-05
0.000167765
-1.36475e-05
0.000171178
-1.36449e-05
0.00017459
-1.36405e-05
0.000178
-1.36341e-05
0.000181408
-1.36257e-05
0.000184814
-1.36152e-05
0.000188217
-1.36023e-05
0.000191616
-1.35871e-05
0.00019501
-1.35693e-05
0.0001984
-1.35488e-05
0.000201784
-1.35255e-05
0.000205161
-1.34993e-05
0.000208532
-1.347e-05
0.000211894
-1.34375e-05
0.000215248
-1.34017e-05
0.000218591
-1.33624e-05
0.000221924
-1.33195e-05
0.000225246
-1.32728e-05
0.000228555
-1.32221e-05
0.000231851
-1.31675e-05
0.000235132
-1.31086e-05
0.000238397
-1.30455e-05
0.000241645
-1.29778e-05
0.000244876
-1.29056e-05
0.000248087
-1.28286e-05
0.000251278
-1.27467e-05
0.000254448
-1.26598e-05
0.000257594
-1.25678e-05
0.000260717
-1.24705e-05
0.000263814
-1.23678e-05
0.000266883
-1.22596e-05
0.000269925
-1.21457e-05
0.000272936
-1.20262e-05
0.000275917
-1.19007e-05
0.000278864
-1.17694e-05
0.000281778
-1.16319e-05
0.000284655
-1.14884e-05
0.000287495
-1.13387e-05
0.000290297
-1.11826e-05
0.000293057
-1.10203e-05
0.000295776
-1.08515e-05
0.000298451
-1.06763e-05
0.00030108
-1.04946e-05
0.000303662
-1.03064e-05
0.000306196
-1.01117e-05
0.000308679
-9.91041e-06
0.00031111
-9.70262e-06
0.000313488
-9.48831e-06
0.000315811
-9.26752e-06
0.000318076
-9.04028e-06
0.000320284
-8.80664e-06
0.000322431
-8.56667e-06
0.000324516
-8.32044e-06
0.000326538
-8.06804e-06
0.000328496
-7.80958e-06
0.000330387
-7.54516e-06
0.000332211
-7.27491e-06
0.000333966
-6.99898e-06
0.00033565
-6.71751e-06
0.000337262
-6.43067e-06
0.000338801
-6.13864e-06
0.000340266
-5.8416e-06
0.000341654
-5.53976e-06
0.000342967
-5.23333e-06
0.000344201
-4.92253e-06
0.000345356
-4.6076e-06
0.000346432
-4.28878e-06
0.000347426
-3.96632e-06
0.000348339
-3.64048e-06
0.000349169
-3.31155e-06
0.000349916
-2.97978e-06
0.00035058
-2.64548e-06
0.000351159
-2.30894e-06
0.000351653
-1.97044e-06
0.000352061
-1.63029e-06
0.000352385
-1.28881e-06
0.000352622
-9.46288e-07
0.000352773
-6.0305e-07
0.000352838
-2.59403e-07
0.000352817
8.43377e-08
0.000352709
4.2786e-07
0.000352516
7.7085e-07
0.000352236
1.113e-06
0.000351872
1.454e-06
0.000351422
1.79355e-06
0.000350887
2.13135e-06
0.000350268
2.46711e-06
0.000349566
2.80053e-06
0.000348781
3.13134e-06
0.000347913
3.45926e-06
0.000346964
3.78403e-06
0.000345935
4.10539e-06
0.000344825
4.42308e-06
0.000343638
4.73688e-06
0.000342372
5.04656e-06
0.00034103
5.35189e-06
0.000339613
5.65267e-06
0.000338121
5.94871e-06
0.000336557
6.23981e-06
0.000334921
6.52582e-06
0.000333215
6.80655e-06
0.000331439
7.08188e-06
0.000329596
7.35166e-06
0.000327687
7.61577e-06
0.000325714
7.87409e-06
0.000323677
8.12653e-06
0.000321578
8.37299e-06
0.00031942
8.61341e-06
0.000317202
8.84772e-06
0.000314928
9.07585e-06
0.000312598
9.29779e-06
0.000310214
9.51348e-06
0.000307778
9.72292e-06
0.000305291
9.92609e-06
0.000302755
1.0123e-05
0.000300171
1.03136e-05
0.000297541
1.04981e-05
0.000294867
1.06763e-05
0.000292149
1.08483e-05
0.00028939
1.10142e-05
0.000286592
1.11741e-05
0.000283755
1.13279e-05
0.00028088
1.14758e-05
0.000277971
1.16178e-05
0.000275027
1.17541e-05
0.000272051
1.18846e-05
0.000269044
1.20096e-05
0.000266007
1.2129e-05
0.000262942
1.2243e-05
0.000259849
1.23518e-05
0.000256731
1.24553e-05
0.000253588
1.25537e-05
0.000250422
1.26472e-05
0.000247234
1.27358e-05
0.000244025
1.28197e-05
0.000240797
1.2899e-05
0.000237549
1.29738e-05
0.000234284
1.30442e-05
0.000231003
1.31104e-05
0.000227707
1.31725e-05
0.000224396
1.32306e-05
0.000221071
1.32849e-05
0.000217734
1.33355e-05
0.000214386
1.33824e-05
0.000211026
1.34259e-05
0.000207657
1.3466e-05
0.000204278
1.35029e-05
0.000200892
1.35368e-05
0.000197497
1.35676e-05
0.000194096
1.35957e-05
0.000190688
1.36209e-05
0.000187275
1.36436e-05
0.000183857
1.36638e-05
0.000180435
1.36816e-05
0.000177009
1.36972e-05
0.000173579
1.37106e-05
0.000170147
1.3722e-05
0.000166713
1.37314e-05
0.000163276
1.37391e-05
0.000159839
1.3745e-05
0.0001564
1.37493e-05
0.000152961
1.3752e-05
0.000149521
1.37534e-05
0.000146082
1.37534e-05
0.000142643
1.37522e-05
0.000139204
1.37498e-05
0.000135767
1.37464e-05
0.000132331
1.3742e-05
0.000128896
1.37367e-05
0.000125462
1.37306e-05
0.000122031
1.37238e-05
0.000118601
1.37162e-05
0.000115174
1.37082e-05
0.000111749
1.36995e-05
0.000108326
1.36905e-05
0.000104905
1.3681e-05
0.000101487
1.36713e-05
9.80715e-05
1.36613e-05
9.46586e-05
1.3651e-05
9.12483e-05
1.36407e-05
8.78407e-05
1.36302e-05
8.44358e-05
1.36197e-05
8.10336e-05
1.36092e-05
7.7634e-05
1.35988e-05
7.4237e-05
1.35884e-05
7.08426e-05
1.35783e-05
6.74507e-05
1.35683e-05
6.40613e-05
1.35585e-05
6.06743e-05
1.3549e-05
5.72896e-05
1.35398e-05
5.39072e-05
1.35309e-05
5.05269e-05
1.35224e-05
4.71487e-05
1.35143e-05
4.37725e-05
1.35066e-05
4.0398e-05
1.34994e-05
3.70253e-05
1.34926e-05
3.36542e-05
1.34863e-05
3.02845e-05
1.34805e-05
2.69161e-05
1.34753e-05
2.3549e-05
1.34706e-05
2.01829e-05
1.34664e-05
1.68177e-05
1.34628e-05
1.34532e-05
1.34598e-05
1.00894e-05
1.34574e-05
6.726e-06
1.34556e-05
3.36293e-06
1.34544e-05
1.34538e-05
3.30193e-06
-1.6515e-05
6.60405e-06
-1.65159e-05
9.90653e-06
-1.65177e-05
1.32095e-05
-1.65204e-05
1.65133e-05
-1.6524e-05
1.98179e-05
-1.65284e-05
2.31236e-05
-1.65337e-05
2.64306e-05
-1.65398e-05
2.9739e-05
-1.65468e-05
3.30489e-05
-1.65546e-05
3.63606e-05
-1.65632e-05
3.96742e-05
-1.65726e-05
4.29899e-05
-1.65828e-05
4.63078e-05
-1.65936e-05
4.9628e-05
-1.66052e-05
5.29507e-05
-1.66175e-05
5.62761e-05
-1.66305e-05
5.96042e-05
-1.6644e-05
6.29352e-05
-1.66582e-05
6.62691e-05
-1.66728e-05
6.96062e-05
-1.6688e-05
7.29464e-05
-1.67036e-05
7.62899e-05
-1.67197e-05
7.96368e-05
-1.67361e-05
8.2987e-05
-1.67528e-05
8.63408e-05
-1.67698e-05
8.9698e-05
-1.6787e-05
9.30588e-05
-1.68044e-05
9.64231e-05
-1.68218e-05
9.9791e-05
-1.68392e-05
0.000103162
-1.68566e-05
0.000106537
-1.68739e-05
0.000109916
-1.68909e-05
0.000113298
-1.69077e-05
0.000116683
-1.69241e-05
0.000120072
-1.69401e-05
0.000123464
-1.69556e-05
0.000126859
-1.69704e-05
0.000130257
-1.69846e-05
0.000133657
-1.69979e-05
0.000137061
-1.70103e-05
0.000140466
-1.70217e-05
0.000143874
-1.7032e-05
0.000147284
-1.7041e-05
0.000150696
-1.70487e-05
0.000154108
-1.70549e-05
0.000157522
-1.70595e-05
0.000160937
-1.70624e-05
0.000164352
-1.70635e-05
0.000167767
-1.70626e-05
0.000171182
-1.70595e-05
0.000174596
-1.70542e-05
0.000178008
-1.70465e-05
0.000181419
-1.70362e-05
0.000184827
-1.70233e-05
0.000188232
-1.70074e-05
0.000191633
-1.69886e-05
0.000195031
-1.69666e-05
0.000198423
-1.69412e-05
0.00020181
-1.69124e-05
0.000205191
-1.68799e-05
0.000208564
-1.68435e-05
0.00021193
-1.68032e-05
0.000215287
-1.67587e-05
0.000218634
-1.67098e-05
0.000221971
-1.66564e-05
0.000225296
-1.65983e-05
0.00022861
-1.65353e-05
0.000231909
-1.64672e-05
0.000235195
-1.63939e-05
0.000238464
-1.63152e-05
0.000241717
-1.62309e-05
0.000244953
-1.61409e-05
0.000248169
-1.60449e-05
0.000251365
-1.59428e-05
0.00025454
-1.58344e-05
0.000257692
-1.57196e-05
0.000260819
-1.55982e-05
0.000263922
-1.54701e-05
0.000266997
-1.5335e-05
0.000270044
-1.51929e-05
0.000273062
-1.50437e-05
0.000276048
-1.48871e-05
0.000279002
-1.4723e-05
0.000281921
-1.45514e-05
0.000284805
-1.43721e-05
0.000287651
-1.41851e-05
0.000290459
-1.39902e-05
0.000293226
-1.37873e-05
0.000295951
-1.35765e-05
0.000298632
-1.33575e-05
0.000301268
-1.31305e-05
0.000303857
-1.28952e-05
0.000306397
-1.26518e-05
0.000308887
-1.24002e-05
0.000311325
-1.21405e-05
0.000313709
-1.18725e-05
0.000316038
-1.15965e-05
0.00031831
-1.13123e-05
0.000320523
-1.10202e-05
0.000322677
-1.07201e-05
0.000324768
-1.04121e-05
0.000326797
-1.00964e-05
0.00032876
-9.77312e-06
0.000330658
-9.44236e-06
0.000332487
-9.10429e-06
0.000334247
-8.75909e-06
0.000335936
-8.40695e-06
0.000337554
-8.04807e-06
0.000339098
-7.68268e-06
0.000340567
-7.311e-06
0.000341961
-6.93331e-06
0.000343277
-6.54985e-06
0.000344516
-6.16091e-06
0.000345675
-5.76679e-06
0.000346754
-5.36779e-06
0.000347752
-4.96422e-06
0.000348668
-4.55642e-06
0.000349501
-4.14473e-06
0.000350251
-3.72949e-06
0.000350916
-3.31107e-06
0.000351497
-2.88983e-06
0.000351993
-2.46614e-06
0.000352403
-2.04038e-06
0.000352727
-1.61295e-06
0.000352965
-1.18422e-06
0.000353117
-7.54583e-07
0.000353182
-3.24438e-07
0.00035316
1.05824e-07
0.000353052
5.35811e-07
0.000352858
9.65129e-07
0.000352577
1.39339e-06
0.000352211
1.82021e-06
0.00035176
2.24521e-06
0.000351223
2.66801e-06
0.000350602
3.08824e-06
0.000349897
3.50555e-06
0.000349109
3.91957e-06
0.000348238
4.32997e-06
0.000347285
4.73641e-06
0.000346252
5.13857e-06
0.000345139
5.53614e-06
0.000343947
5.92882e-06
0.000342677
6.31632e-06
0.000341331
6.69838e-06
0.000339909
7.07472e-06
0.000338413
7.44511e-06
0.000336843
7.80931e-06
0.000335202
8.16712e-06
0.00033349
8.51832e-06
0.000331709
8.86273e-06
0.000329861
9.20019e-06
0.000327946
9.53053e-06
0.000325966
9.85362e-06
0.000323924
1.01693e-05
0.000321819
1.04776e-05
0.000319654
1.07782e-05
0.000317431
1.10712e-05
0.00031515
1.13564e-05
0.000312814
1.16339e-05
0.000310424
1.19036e-05
0.000307981
1.21654e-05
0.000305488
1.24193e-05
0.000302946
1.26655e-05
0.000300356
1.29037e-05
0.000297719
1.31342e-05
0.000295039
1.33569e-05
0.000292315
1.35719e-05
0.00028955
1.37792e-05
0.000286746
1.39788e-05
0.000283903
1.4171e-05
0.000281023
1.43558e-05
0.000278107
1.45331e-05
0.000275158
1.47033e-05
0.000272176
1.48663e-05