/*--------------------------------*- C++ -*----------------------------------*\
| =========                 |                                                 |
| \\      /  F ield         | OpenFOAM: The Open Source CFD Toolbox           |
|  \\    /   O peration     | Version:  v2012                                 |
|   \\  /    A nd           | Website:  www.openfoam.com                      |
|    \\/     M anipulation  |                                                 |
\*---------------------------------------------------------------------------*/
FoamFile
{
    version     2.0;
    format      ascii;
    class       volVectorField;
    location    "17";
    object      Psi;
}
// * * * * * * * * * * * * * * * * * * * * * * * * * * * * * * * * * * * * * //

dimensions      [0 2 -1 0 0 0 0];


internalField   nonuniform List<vector> 
65536
(
(0 0 8.24718e-06)
(0 0 2.47421e-05)
(0 0 4.12383e-05)
(0 0 5.77368e-05)
(0 0 7.42383e-05)
(0 0 9.07437e-05)
(0 0 0.000107254)
(0 0 0.00012377)
(0 0 0.000140292)
(0 0 0.000156821)
(0 0 0.000173359)
(0 0 0.000189905)
(0 0 0.000206461)
(0 0 0.000223028)
(0 0 0.000239605)
(0 0 0.000256194)
(0 0 0.000272795)
(0 0 0.00028941)
(0 0 0.000306038)
(0 0 0.00032268)
(0 0 0.000339337)
(0 0 0.000356008)
(0 0 0.000372696)
(0 0 0.000389399)
(0 0 0.000406118)
(0 0 0.000422854)
(0 0 0.000439607)
(0 0 0.000456377)
(0 0 0.000473163)
(0 0 0.000489967)
(0 0 0.000506787)
(0 0 0.000523625)
(0 0 0.000540479)
(0 0 0.000557349)
(0 0 0.000574236)
(0 0 0.000591139)
(0 0 0.000608057)
(0 0 0.000624989)
(0 0 0.000641936)
(0 0 0.000658895)
(0 0 0.000675867)
(0 0 0.000692851)
(0 0 0.000709845)
(0 0 0.000726848)
(0 0 0.000743859)
(0 0 0.000760876)
(0 0 0.000777899)
(0 0 0.000794924)
(0 0 0.000811951)
(0 0 0.000828978)
(0 0 0.000846002)
(0 0 0.000863022)
(0 0 0.000880035)
(0 0 0.000897038)
(0 0 0.000914029)
(0 0 0.000931006)
(0 0 0.000947965)
(0 0 0.000964903)
(0 0 0.000981817)
(0 0 0.000998703)
(0 0 0.00101556)
(0 0 0.00103238)
(0 0 0.00104916)
(0 0 0.0010659)
(0 0 0.00108259)
(0 0 0.00109924)
(0 0 0.00111582)
(0 0 0.00113235)
(0 0 0.00114881)
(0 0 0.0011652)
(0 0 0.00118151)
(0 0 0.00119774)
(0 0 0.00121389)
(0 0 0.00122994)
(0 0 0.00124589)
(0 0 0.00126174)
(0 0 0.00127748)
(0 0 0.0012931)
(0 0 0.00130859)
(0 0 0.00132396)
(0 0 0.00133918)
(0 0 0.00135426)
(0 0 0.00136919)
(0 0 0.00138396)
(0 0 0.00139857)
(0 0 0.001413)
(0 0 0.00142724)
(0 0 0.0014413)
(0 0 0.00145516)
(0 0 0.00146881)
(0 0 0.00148225)
(0 0 0.00149547)
(0 0 0.00150846)
(0 0 0.00152121)
(0 0 0.00153372)
(0 0 0.00154597)
(0 0 0.00155796)
(0 0 0.00156968)
(0 0 0.00158112)
(0 0 0.00159227)
(0 0 0.00160313)
(0 0 0.00161369)
(0 0 0.00162394)
(0 0 0.00163388)
(0 0 0.00164348)
(0 0 0.00165276)
(0 0 0.00166169)
(0 0 0.00167028)
(0 0 0.00167852)
(0 0 0.0016864)
(0 0 0.00169391)
(0 0 0.00170105)
(0 0 0.00170781)
(0 0 0.00171419)
(0 0 0.00172017)
(0 0 0.00172577)
(0 0 0.00173096)
(0 0 0.00173575)
(0 0 0.00174014)
(0 0 0.00174411)
(0 0 0.00174767)
(0 0 0.00175081)
(0 0 0.00175353)
(0 0 0.00175583)
(0 0 0.00175771)
(0 0 0.00175915)
(0 0 0.00176018)
(0 0 0.00176077)
(0 0 0.00176093)
(0 0 0.00176067)
(0 0 0.00175998)
(0 0 0.00175886)
(0 0 0.00175731)
(0 0 0.00175534)
(0 0 0.00175295)
(0 0 0.00175014)
(0 0 0.00174691)
(0 0 0.00174327)
(0 0 0.00173921)
(0 0 0.00173475)
(0 0 0.00172988)
(0 0 0.00172461)
(0 0 0.00171895)
(0 0 0.0017129)
(0 0 0.00170646)
(0 0 0.00169965)
(0 0 0.00169246)
(0 0 0.0016849)
(0 0 0.00167699)
(0 0 0.00166871)
(0 0 0.00166009)
(0 0 0.00165113)
(0 0 0.00164184)
(0 0 0.00163221)
(0 0 0.00162227)
(0 0 0.00161201)
(0 0 0.00160145)
(0 0 0.00159059)
(0 0 0.00157944)
(0 0 0.00156801)
(0 0 0.0015563)
(0 0 0.00154433)
(0 0 0.00153209)
(0 0 0.00151961)
(0 0 0.00150688)
(0 0 0.00149391)
(0 0 0.00148072)
(0 0 0.00146731)
(0 0 0.00145368)
(0 0 0.00143985)
(0 0 0.00142582)
(0 0 0.0014116)
(0 0 0.0013972)
(0 0 0.00138263)
(0 0 0.00136788)
(0 0 0.00135297)
(0 0 0.00133791)
(0 0 0.00132271)
(0 0 0.00130736)
(0 0 0.00129187)
(0 0 0.00127626)
(0 0 0.00126053)
(0 0 0.00124468)
(0 0 0.00122873)
(0 0 0.00121267)
(0 0 0.00119651)
(0 0 0.00118026)
(0 0 0.00116393)
(0 0 0.00114751)
(0 0 0.00113101)
(0 0 0.00111445)
(0 0 0.00109782)
(0 0 0.00108112)
(0 0 0.00106437)
(0 0 0.00104757)
(0 0 0.00103071)
(0 0 0.00101381)
(0 0 0.00099687)
(0 0 0.000979891)
(0 0 0.000962877)
(0 0 0.000945833)
(0 0 0.000928761)
(0 0 0.000911664)
(0 0 0.000894546)
(0 0 0.000877408)
(0 0 0.000860255)
(0 0 0.000843087)
(0 0 0.000825908)
(0 0 0.00080872)
(0 0 0.000791525)
(0 0 0.000774324)
(0 0 0.000757121)
(0 0 0.000739916)
(0 0 0.000722711)
(0 0 0.000705508)
(0 0 0.000688308)
(0 0 0.000671112)
(0 0 0.000653922)
(0 0 0.000636738)
(0 0 0.000619563)
(0 0 0.000602395)
(0 0 0.000585237)
(0 0 0.000568089)
(0 0 0.000550952)
(0 0 0.000533825)
(0 0 0.000516711)
(0 0 0.000499608)
(0 0 0.000482518)
(0 0 0.000465441)
(0 0 0.000448376)
(0 0 0.000431324)
(0 0 0.000414284)
(0 0 0.000397258)
(0 0 0.000380244)
(0 0 0.000363243)
(0 0 0.000346255)
(0 0 0.000329278)
(0 0 0.000312314)
(0 0 0.000295361)
(0 0 0.000278419)
(0 0 0.000261488)
(0 0 0.000244567)
(0 0 0.000227655)
(0 0 0.000210753)
(0 0 0.00019386)
(0 0 0.000176975)
(0 0 0.000160097)
(0 0 0.000143226)
(0 0 0.000126361)
(0 0 0.000109502)
(0 0 9.26471e-05)
(0 0 7.57966e-05)
(0 0 5.89494e-05)
(0 0 4.21049e-05)
(0 0 2.52622e-05)
(0 0 8.42061e-06)
(0 0 2.47413e-05)
(0 0 7.42253e-05)
(0 0 0.000123713)
(0 0 0.000173208)
(0 0 0.000222712)
(0 0 0.000272227)
(0 0 0.000321757)
(0 0 0.000371304)
(0 0 0.00042087)
(0 0 0.000470457)
(0 0 0.000520069)
(0 0 0.000569708)
(0 0 0.000619375)
(0 0 0.000669073)
(0 0 0.000718805)
(0 0 0.000768572)
(0 0 0.000818375)
(0 0 0.000868218)
(0 0 0.000918102)
(0 0 0.000968027)
(0 0 0.001018)
(0 0 0.00106801)
(0 0 0.00111807)
(0 0 0.00116818)
(0 0 0.00121834)
(0 0 0.00126855)
(0 0 0.00131881)
(0 0 0.00136912)
(0 0 0.00141948)
(0 0 0.00146989)
(0 0 0.00152035)
(0 0 0.00157086)
(0 0 0.00162142)
(0 0 0.00167204)
(0 0 0.0017227)
(0 0 0.00177341)
(0 0 0.00182416)
(0 0 0.00187496)
(0 0 0.0019258)
(0 0 0.00197668)
(0 0 0.0020276)
(0 0 0.00207855)
(0 0 0.00212953)
(0 0 0.00218054)
(0 0 0.00223158)
(0 0 0.00228263)
(0 0 0.0023337)
(0 0 0.00238478)
(0 0 0.00243586)
(0 0 0.00248694)
(0 0 0.00253802)
(0 0 0.00258908)
(0 0 0.00264012)
(0 0 0.00269113)
(0 0 0.00274211)
(0 0 0.00279304)
(0 0 0.00284392)
(0 0 0.00289474)
(0 0 0.00294548)
(0 0 0.00299615)
(0 0 0.00304672)
(0 0 0.00309718)
(0 0 0.00314754)
(0 0 0.00319776)
(0 0 0.00324784)
(0 0 0.00329777)
(0 0 0.00334753)
(0 0 0.00339711)
(0 0 0.0034465)
(0 0 0.00349567)
(0 0 0.00354462)
(0 0 0.00359332)
(0 0 0.00364176)
(0 0 0.00368992)
(0 0 0.00373779)
(0 0 0.00378534)
(0 0 0.00383256)
(0 0 0.00387942)
(0 0 0.00392591)
(0 0 0.00397201)
(0 0 0.0040177)
(0 0 0.00406295)
(0 0 0.00410775)
(0 0 0.00415207)
(0 0 0.00419588)
(0 0 0.00423918)
(0 0 0.00428192)
(0 0 0.0043241)
(0 0 0.00436569)
(0 0 0.00440666)
(0 0 0.00444699)
(0 0 0.00448665)
(0 0 0.00452562)
(0 0 0.00456389)
(0 0 0.00460141)
(0 0 0.00463817)
(0 0 0.00467415)
(0 0 0.00470932)
(0 0 0.00474365)
(0 0 0.00477712)
(0 0 0.00480971)
(0 0 0.0048414)
(0 0 0.00487215)
(0 0 0.00490196)
(0 0 0.00493079)
(0 0 0.00495862)
(0 0 0.00498543)
(0 0 0.00501121)
(0 0 0.00503593)
(0 0 0.00505957)
(0 0 0.0050821)
(0 0 0.00510353)
(0 0 0.00512381)
(0 0 0.00514295)
(0 0 0.00516092)
(0 0 0.0051777)
(0 0 0.00519329)
(0 0 0.00520767)
(0 0 0.00522083)
(0 0 0.00523275)
(0 0 0.00524343)
(0 0 0.00525286)
(0 0 0.00526103)
(0 0 0.00526792)
(0 0 0.00527355)
(0 0 0.00527789)
(0 0 0.00528096)
(0 0 0.00528274)
(0 0 0.00528323)
(0 0 0.00528244)
(0 0 0.00528036)
(0 0 0.005277)
(0 0 0.00527237)
(0 0 0.00526646)
(0 0 0.00525928)
(0 0 0.00525084)
(0 0 0.00524115)
(0 0 0.00523021)
(0 0 0.00521804)
(0 0 0.00520464)
(0 0 0.00519003)
(0 0 0.00517423)
(0 0 0.00515724)
(0 0 0.00513908)
(0 0 0.00511977)
(0 0 0.00509931)
(0 0 0.00507774)
(0 0 0.00505507)
(0 0 0.00503131)
(0 0 0.00500649)
(0 0 0.00498062)
(0 0 0.00495373)
(0 0 0.00492583)
(0 0 0.00489696)
(0 0 0.00486712)
(0 0 0.00483634)
(0 0 0.00480465)
(0 0 0.00477206)
(0 0 0.0047386)
(0 0 0.00470429)
(0 0 0.00466916)
(0 0 0.00463323)
(0 0 0.00459652)
(0 0 0.00455906)
(0 0 0.00452087)
(0 0 0.00448196)
(0 0 0.00444238)
(0 0 0.00440213)
(0 0 0.00436125)
(0 0 0.00431975)
(0 0 0.00427765)
(0 0 0.00423499)
(0 0 0.00419178)
(0 0 0.00414804)
(0 0 0.0041038)
(0 0 0.00405907)
(0 0 0.00401388)
(0 0 0.00396825)
(0 0 0.0039222)
(0 0 0.00387575)
(0 0 0.00382891)
(0 0 0.00378171)
(0 0 0.00373416)
(0 0 0.00368629)
(0 0 0.0036381)
(0 0 0.00358962)
(0 0 0.00354087)
(0 0 0.00349186)
(0 0 0.0034426)
(0 0 0.00339311)
(0 0 0.00334341)
(0 0 0.00329351)
(0 0 0.00324342)
(0 0 0.00319316)
(0 0 0.00314274)
(0 0 0.00309218)
(0 0 0.00304147)
(0 0 0.00299064)
(0 0 0.0029397)
(0 0 0.00288866)
(0 0 0.00283752)
(0 0 0.0027863)
(0 0 0.00273501)
(0 0 0.00268365)
(0 0 0.00263224)
(0 0 0.00258077)
(0 0 0.00252927)
(0 0 0.00247773)
(0 0 0.00242616)
(0 0 0.00237458)
(0 0 0.00232297)
(0 0 0.00227136)
(0 0 0.00221974)
(0 0 0.00216813)
(0 0 0.00211652)
(0 0 0.00206492)
(0 0 0.00201333)
(0 0 0.00196176)
(0 0 0.0019102)
(0 0 0.00185868)
(0 0 0.00180717)
(0 0 0.0017557)
(0 0 0.00170425)
(0 0 0.00165284)
(0 0 0.00160146)
(0 0 0.00155012)
(0 0 0.00149881)
(0 0 0.00144754)
(0 0 0.00139631)
(0 0 0.00134511)
(0 0 0.00129396)
(0 0 0.00124284)
(0 0 0.00119176)
(0 0 0.00114072)
(0 0 0.00108972)
(0 0 0.00103875)
(0 0 0.000987822)
(0 0 0.000936928)
(0 0 0.000886069)
(0 0 0.000835244)
(0 0 0.000784451)
(0 0 0.000733689)
(0 0 0.000682956)
(0 0 0.00063225)
(0 0 0.000581571)
(0 0 0.000530916)
(0 0 0.000480283)
(0 0 0.000429671)
(0 0 0.000379077)
(0 0 0.0003285)
(0 0 0.000277937)
(0 0 0.000227386)
(0 0 0.000176846)
(0 0 0.000126313)
(0 0 7.57854e-05)
(0 0 2.52614e-05)
(0 0 4.12341e-05)
(0 0 0.000123705)
(0 0 0.000206182)
(0 0 0.00028867)
(0 0 0.000371173)
(0 0 0.000453696)
(0 0 0.000536243)
(0 0 0.000618818)
(0 0 0.000701425)
(0 0 0.000784069)
(0 0 0.000866753)
(0 0 0.000949481)
(0 0 0.00103226)
(0 0 0.00111509)
(0 0 0.00119797)
(0 0 0.00128091)
(0 0 0.00136392)
(0 0 0.00144699)
(0 0 0.00153012)
(0 0 0.00161333)
(0 0 0.00169661)
(0 0 0.00177997)
(0 0 0.0018634)
(0 0 0.00194692)
(0 0 0.00203052)
(0 0 0.00211419)
(0 0 0.00219796)
(0 0 0.0022818)
(0 0 0.00236574)
(0 0 0.00244976)
(0 0 0.00253386)
(0 0 0.00261805)
(0 0 0.00270232)
(0 0 0.00278667)
(0 0 0.00287111)
(0 0 0.00295563)
(0 0 0.00304022)
(0 0 0.00312488)
(0 0 0.00320962)
(0 0 0.00329442)
(0 0 0.00337929)
(0 0 0.00346421)
(0 0 0.00354919)
(0 0 0.00363421)
(0 0 0.00371927)
(0 0 0.00380437)
(0 0 0.00388949)
(0 0 0.00397462)
(0 0 0.00405977)
(0 0 0.00414491)
(0 0 0.00423005)
(0 0 0.00431516)
(0 0 0.00440023)
(0 0 0.00448526)
(0 0 0.00457023)
(0 0 0.00465513)
(0 0 0.00473994)
(0 0 0.00482464)
(0 0 0.00490923)
(0 0 0.00499368)
(0 0 0.00507798)
(0 0 0.0051621)
(0 0 0.00524604)
(0 0 0.00532976)
(0 0 0.00541324)
(0 0 0.00549647)
(0 0 0.00557943)
(0 0 0.00566208)
(0 0 0.0057444)
(0 0 0.00582637)
(0 0 0.00590797)
(0 0 0.00598915)
(0 0 0.00606991)
(0 0 0.0061502)
(0 0 0.00622999)
(0 0 0.00630927)
(0 0 0.00638799)
(0 0 0.00646612)
(0 0 0.00654363)
(0 0 0.00662048)
(0 0 0.00669665)
(0 0 0.0067721)
(0 0 0.00684678)
(0 0 0.00692067)
(0 0 0.00699372)
(0 0 0.0070659)
(0 0 0.00713717)
(0 0 0.0072075)
(0 0 0.00727683)
(0 0 0.00734514)
(0 0 0.00741238)
(0 0 0.00747851)
(0 0 0.0075435)
(0 0 0.0076073)
(0 0 0.00766986)
(0 0 0.00773116)
(0 0 0.00779115)
(0 0 0.00784979)
(0 0 0.00790703)
(0 0 0.00796285)
(0 0 0.00801719)
(0 0 0.00807003)
(0 0 0.00812131)
(0 0 0.00817101)
(0 0 0.00821909)
(0 0 0.0082655)
(0 0 0.00831021)
(0 0 0.0083532)
(0 0 0.00839441)
(0 0 0.00843383)
(0 0 0.00847142)
(0 0 0.00850714)
(0 0 0.00854097)
(0 0 0.00857288)
(0 0 0.00860285)
(0 0 0.00863084)
(0 0 0.00865684)
(0 0 0.00868081)
(0 0 0.00870276)
(0 0 0.00872264)
(0 0 0.00874045)
(0 0 0.00875617)
(0 0 0.00876979)
(0 0 0.00878129)
(0 0 0.00879067)
(0 0 0.00879791)
(0 0 0.00880302)
(0 0 0.00880599)
(0 0 0.00880681)
(0 0 0.00880549)
(0 0 0.00880203)
(0 0 0.00879643)
(0 0 0.0087887)
(0 0 0.00877884)
(0 0 0.00876687)
(0 0 0.00875279)
(0 0 0.00873663)
(0 0 0.00871838)
(0 0 0.00869808)
(0 0 0.00867575)
(0 0 0.00865139)
(0 0 0.00862503)
(0 0 0.0085967)
(0 0 0.00856641)
(0 0 0.00853421)
(0 0 0.0085001)
(0 0 0.00846413)
(0 0 0.00842632)
(0 0 0.0083867)
(0 0 0.00834531)
(0 0 0.00830217)
(0 0 0.00825733)
(0 0 0.00821081)
(0 0 0.00816266)
(0 0 0.0081129)
(0 0 0.00806158)
(0 0 0.00800873)
(0 0 0.0079544)
(0 0 0.00789861)
(0 0 0.00784141)
(0 0 0.00778283)
(0 0 0.00772292)
(0 0 0.00766171)
(0 0 0.00759925)
(0 0 0.00753556)
(0 0 0.0074707)
(0 0 0.0074047)
(0 0 0.00733759)
(0 0 0.00726943)
(0 0 0.00720023)
(0 0 0.00713005)
(0 0 0.00705892)
(0 0 0.00698688)
(0 0 0.00691396)
(0 0 0.0068402)
(0 0 0.00676563)
(0 0 0.0066903)
(0 0 0.00661422)
(0 0 0.00653745)
(0 0 0.00646)
(0 0 0.00638192)
(0 0 0.00630323)
(0 0 0.00622396)
(0 0 0.00614415)
(0 0 0.00606383)
(0 0 0.00598301)
(0 0 0.00590174)
(0 0 0.00582003)
(0 0 0.00573792)
(0 0 0.00565542)
(0 0 0.00557257)
(0 0 0.00548939)
(0 0 0.0054059)
(0 0 0.00532212)
(0 0 0.00523807)
(0 0 0.00515378)
(0 0 0.00506926)
(0 0 0.00498453)
(0 0 0.00489962)
(0 0 0.00481453)
(0 0 0.0047293)
(0 0 0.00464392)
(0 0 0.00455842)
(0 0 0.00447282)
(0 0 0.00438712)
(0 0 0.00430134)
(0 0 0.00421549)
(0 0 0.00412958)
(0 0 0.00404363)
(0 0 0.00395764)
(0 0 0.00387163)
(0 0 0.00378561)
(0 0 0.00369957)
(0 0 0.00361354)
(0 0 0.00352752)
(0 0 0.00344151)
(0 0 0.00335553)
(0 0 0.00326957)
(0 0 0.00318365)
(0 0 0.00309776)
(0 0 0.00301192)
(0 0 0.00292613)
(0 0 0.00284039)
(0 0 0.0027547)
(0 0 0.00266906)
(0 0 0.00258349)
(0 0 0.00249798)
(0 0 0.00241252)
(0 0 0.00232713)
(0 0 0.00224181)
(0 0 0.00215655)
(0 0 0.00207135)
(0 0 0.00198622)
(0 0 0.00190116)
(0 0 0.00181615)
(0 0 0.00173121)
(0 0 0.00164633)
(0 0 0.00156151)
(0 0 0.00147674)
(0 0 0.00139204)
(0 0 0.00130738)
(0 0 0.00122278)
(0 0 0.00113823)
(0 0 0.00105372)
(0 0 0.000969258)
(0 0 0.000884835)
(0 0 0.000800449)
(0 0 0.000716098)
(0 0 0.000631777)
(0 0 0.000547484)
(0 0 0.000463215)
(0 0 0.000378966)
(0 0 0.000294734)
(0 0 0.000210515)
(0 0 0.000126305)
(0 0 4.21011e-05)
(0 0 5.77247e-05)
(0 0 0.000173177)
(0 0 0.000288639)
(0 0 0.000404116)
(0 0 0.000519615)
(0 0 0.000635141)
(0 0 0.000750701)
(0 0 0.0008663)
(0 0 0.000981944)
(0 0 0.00109764)
(0 0 0.00121339)
(0 0 0.00132921)
(0 0 0.00144509)
(0 0 0.00156104)
(0 0 0.00167707)
(0 0 0.00179319)
(0 0 0.00190939)
(0 0 0.00202568)
(0 0 0.00214207)
(0 0 0.00225856)
(0 0 0.00237515)
(0 0 0.00249185)
(0 0 0.00260865)
(0 0 0.00272557)
(0 0 0.00284261)
(0 0 0.00295975)
(0 0 0.00307702)
(0 0 0.00319441)
(0 0 0.00331191)
(0 0 0.00342954)
(0 0 0.00354728)
(0 0 0.00366515)
(0 0 0.00378313)
(0 0 0.00390123)
(0 0 0.00401944)
(0 0 0.00413777)
(0 0 0.0042562)
(0 0 0.00437474)
(0 0 0.00449337)
(0 0 0.0046121)
(0 0 0.00473092)
(0 0 0.00484982)
(0 0 0.0049688)
(0 0 0.00508784)
(0 0 0.00520693)
(0 0 0.00532608)
(0 0 0.00544526)
(0 0 0.00556446)
(0 0 0.00568368)
(0 0 0.00580289)
(0 0 0.00592209)
(0 0 0.00604126)
(0 0 0.00616039)
(0 0 0.00627945)
(0 0 0.00639843)
(0 0 0.0065173)
(0 0 0.00663606)
(0 0 0.00675467)
(0 0 0.00687311)
(0 0 0.00699137)
(0 0 0.00710941)
(0 0 0.00722721)
(0 0 0.00734475)
(0 0 0.00746198)
(0 0 0.0075789)
(0 0 0.00769545)
(0 0 0.00781162)
(0 0 0.00792736)
(0 0 0.00804265)
(0 0 0.00815745)
(0 0 0.00827172)
(0 0 0.00838542)
(0 0 0.00849852)
(0 0 0.00861096)
(0 0 0.00872272)
(0 0 0.00883375)
(0 0 0.008944)
(0 0 0.00905343)
(0 0 0.00916199)
(0 0 0.00926964)
(0 0 0.00937633)
(0 0 0.009482)
(0 0 0.00958661)
(0 0 0.0096901)
(0 0 0.00979243)
(0 0 0.00989354)
(0 0 0.00999337)
(0 0 0.0100919)
(0 0 0.010189)
(0 0 0.0102847)
(0 0 0.0103789)
(0 0 0.0104715)
(0 0 0.0105626)
(0 0 0.0106519)
(0 0 0.0107396)
(0 0 0.0108255)
(0 0 0.0109095)
(0 0 0.0109916)
(0 0 0.0110719)
(0 0 0.01115)
(0 0 0.0112262)
(0 0 0.0113002)
(0 0 0.0113721)
(0 0 0.0114417)
(0 0 0.011509)
(0 0 0.0115741)
(0 0 0.0116367)
(0 0 0.0116969)
(0 0 0.0117547)
(0 0 0.0118099)
(0 0 0.0118626)
(0 0 0.0119126)
(0 0 0.01196)
(0 0 0.0120048)
(0 0 0.0120467)
(0 0 0.012086)
(0 0 0.0121224)
(0 0 0.012156)
(0 0 0.0121867)
(0 0 0.0122146)
(0 0 0.0122396)
(0 0 0.0122616)
(0 0 0.0122807)
(0 0 0.0122968)
(0 0 0.0123099)
(0 0 0.0123201)
(0 0 0.0123272)
(0 0 0.0123314)
(0 0 0.0123325)
(0 0 0.0123307)
(0 0 0.0123258)
(0 0 0.012318)
(0 0 0.0123071)
(0 0 0.0122933)
(0 0 0.0122766)
(0 0 0.0122568)
(0 0 0.0122342)
(0 0 0.0122086)
(0 0 0.0121802)
(0 0 0.0121489)
(0 0 0.0121147)
(0 0 0.0120778)
(0 0 0.0120381)
(0 0 0.0119957)
(0 0 0.0119505)
(0 0 0.0119028)
(0 0 0.0118524)
(0 0 0.0117994)
(0 0 0.0117439)
(0 0 0.0116859)
(0 0 0.0116254)
(0 0 0.0115626)
(0 0 0.0114974)
(0 0 0.01143)
(0 0 0.0113603)
(0 0 0.0112884)
(0 0 0.0112143)
(0 0 0.0111382)
(0 0 0.01106)
(0 0 0.0109799)
(0 0 0.0108978)
(0 0 0.0108139)
(0 0 0.0107282)
(0 0 0.0106407)
(0 0 0.0105514)
(0 0 0.0104606)
(0 0 0.0103681)
(0 0 0.0102741)
(0 0 0.0101786)
(0 0 0.0100817)
(0 0 0.00998341)
(0 0 0.00988377)
(0 0 0.00978286)
(0 0 0.00968072)
(0 0 0.00957741)
(0 0 0.00947297)
(0 0 0.00936745)
(0 0 0.0092609)
(0 0 0.00915337)
(0 0 0.0090449)
(0 0 0.00893554)
(0 0 0.00882533)
(0 0 0.00871431)
(0 0 0.00860254)
(0 0 0.00849004)
(0 0 0.00837686)
(0 0 0.00826304)
(0 0 0.00814862)
(0 0 0.00803362)
(0 0 0.0079181)
(0 0 0.00780207)
(0 0 0.00768558)
(0 0 0.00756866)
(0 0 0.00745133)
(0 0 0.00733364)
(0 0 0.0072156)
(0 0 0.00709725)
(0 0 0.00697861)
(0 0 0.00685971)
(0 0 0.00674056)
(0 0 0.00662121)
(0 0 0.00650166)
(0 0 0.00638194)
(0 0 0.00626208)
(0 0 0.00614208)
(0 0 0.00602197)
(0 0 0.00590176)
(0 0 0.00578148)
(0 0 0.00566113)
(0 0 0.00554074)
(0 0 0.00542031)
(0 0 0.00529986)
(0 0 0.0051794)
(0 0 0.00505895)
(0 0 0.0049385)
(0 0 0.00481809)
(0 0 0.0046977)
(0 0 0.00457735)
(0 0 0.00445705)
(0 0 0.00433681)
(0 0 0.00421663)
(0 0 0.00409651)
(0 0 0.00397647)
(0 0 0.0038565)
(0 0 0.00373661)
(0 0 0.0036168)
(0 0 0.00349708)
(0 0 0.00337744)
(0 0 0.0032579)
(0 0 0.00313844)
(0 0 0.00301908)
(0 0 0.00289981)
(0 0 0.00278062)
(0 0 0.00266153)
(0 0 0.00254253)
(0 0 0.00242361)
(0 0 0.00230478)
(0 0 0.00218603)
(0 0 0.00206736)
(0 0 0.00194878)
(0 0 0.00183027)
(0 0 0.00171183)
(0 0 0.00159346)
(0 0 0.00147515)
(0 0 0.0013569)
(0 0 0.00123872)
(0 0 0.00112058)
(0 0 0.00100249)
(0 0 0.000884449)
(0 0 0.000766444)
(0 0 0.000648472)
(0 0 0.000530529)
(0 0 0.000412609)
(0 0 0.000294708)
(0 0 0.000176819)
(0 0 5.89389e-05)
(0 0 7.42121e-05)
(0 0 0.00022264)
(0 0 0.000371081)
(0 0 0.000519541)
(0 0 0.000668028)
(0 0 0.000816552)
(0 0 0.000965118)
(0 0 0.00111374)
(0 0 0.00126241)
(0 0 0.00141115)
(0 0 0.00155997)
(0 0 0.00170886)
(0 0 0.00185785)
(0 0 0.00200692)
(0 0 0.0021561)
(0 0 0.00230538)
(0 0 0.00245477)
(0 0 0.00260429)
(0 0 0.00275392)
(0 0 0.00290369)
(0 0 0.00305358)
(0 0 0.00320362)
(0 0 0.00335379)
(0 0 0.00350411)
(0 0 0.00365458)
(0 0 0.0038052)
(0 0 0.00395596)
(0 0 0.00410689)
(0 0 0.00425797)
(0 0 0.0044092)
(0 0 0.00456059)
(0 0 0.00471213)
(0 0 0.00486382)
(0 0 0.00501567)
(0 0 0.00516766)
(0 0 0.0053198)
(0 0 0.00547208)
(0 0 0.00562449)
(0 0 0.00577703)
(0 0 0.0059297)
(0 0 0.00608247)
(0 0 0.00623536)
(0 0 0.00638834)
(0 0 0.00654141)
(0 0 0.00669455)
(0 0 0.00684775)
(0 0 0.007001)
(0 0 0.00715428)
(0 0 0.00730759)
(0 0 0.00746089)
(0 0 0.00761417)
(0 0 0.00776742)
(0 0 0.00792061)
(0 0 0.00807371)
(0 0 0.00822672)
(0 0 0.00837959)
(0 0 0.00853232)
(0 0 0.00868485)
(0 0 0.00883718)
(0 0 0.00898927)
(0 0 0.00914108)
(0 0 0.00929259)
(0 0 0.00944375)
(0 0 0.00959454)
(0 0 0.0097449)
(0 0 0.00989482)
(0 0 0.0100442)
(0 0 0.0101931)
(0 0 0.0103414)
(0 0 0.0104891)
(0 0 0.010636)
(0 0 0.0107823)
(0 0 0.0109278)
(0 0 0.0110724)
(0 0 0.0112162)
(0 0 0.011359)
(0 0 0.0115008)
(0 0 0.0116416)
(0 0 0.0117813)
(0 0 0.0119198)
(0 0 0.012057)
(0 0 0.012193)
(0 0 0.0123275)
(0 0 0.0124607)
(0 0 0.0125924)
(0 0 0.0127224)
(0 0 0.0128509)
(0 0 0.0129776)
(0 0 0.0131026)
(0 0 0.0132257)
(0 0 0.0133469)
(0 0 0.0134661)
(0 0 0.0135833)
(0 0 0.0136983)
(0 0 0.0138111)
(0 0 0.0139216)
(0 0 0.0140297)
(0 0 0.0141355)
(0 0 0.0142387)
(0 0 0.0143393)
(0 0 0.0144373)
(0 0 0.0145326)
(0 0 0.014625)
(0 0 0.0147146)
(0 0 0.0148013)
(0 0 0.014885)
(0 0 0.0149657)
(0 0 0.0150432)
(0 0 0.0151175)
(0 0 0.0151886)
(0 0 0.0152564)
(0 0 0.0153208)
(0 0 0.0153818)
(0 0 0.0154394)
(0 0 0.0154934)
(0 0 0.0155439)
(0 0 0.0155908)
(0 0 0.015634)
(0 0 0.0156736)
(0 0 0.0157095)
(0 0 0.0157416)
(0 0 0.0157699)
(0 0 0.0157945)
(0 0 0.0158152)
(0 0 0.0158322)
(0 0 0.0158452)
(0 0 0.0158544)
(0 0 0.0158598)
(0 0 0.0158613)
(0 0 0.0158589)
(0 0 0.0158526)
(0 0 0.0158425)
(0 0 0.0158286)
(0 0 0.0158108)
(0 0 0.0157892)
(0 0 0.0157638)
(0 0 0.0157346)
(0 0 0.0157017)
(0 0 0.0156651)
(0 0 0.0156248)
(0 0 0.0155809)
(0 0 0.0155333)
(0 0 0.0154822)
(0 0 0.0154276)
(0 0 0.0153695)
(0 0 0.015308)
(0 0 0.0152432)
(0 0 0.015175)
(0 0 0.0151035)
(0 0 0.0150289)
(0 0 0.0149511)
(0 0 0.0148702)
(0 0 0.0147863)
(0 0 0.0146995)
(0 0 0.0146098)
(0 0 0.0145173)
(0 0 0.014422)
(0 0 0.014324)
(0 0 0.0142234)
(0 0 0.0141203)
(0 0 0.0140147)
(0 0 0.0139067)
(0 0 0.0137964)
(0 0 0.0136838)
(0 0 0.013569)
(0 0 0.0134521)
(0 0 0.0133331)
(0 0 0.0132121)
(0 0 0.0130893)
(0 0 0.0129646)
(0 0 0.0128381)
(0 0 0.0127099)
(0 0 0.0125801)
(0 0 0.0124487)
(0 0 0.0123157)
(0 0 0.0121814)
(0 0 0.0120456)
(0 0 0.0119086)
(0 0 0.0117702)
(0 0 0.0116307)
(0 0 0.01149)
(0 0 0.0113482)
(0 0 0.0112054)
(0 0 0.0110616)
(0 0 0.0109169)
(0 0 0.0107714)
(0 0 0.010625)
(0 0 0.0104778)
(0 0 0.0103299)
(0 0 0.0101813)
(0 0 0.010032)
(0 0 0.0098822)
(0 0 0.00973182)
(0 0 0.00958093)
(0 0 0.00942956)
(0 0 0.00927774)
(0 0 0.00912553)
(0 0 0.00897295)
(0 0 0.00882003)
(0 0 0.00866681)
(0 0 0.00851331)
(0 0 0.00835957)
(0 0 0.00820562)
(0 0 0.00805147)
(0 0 0.00789715)
(0 0 0.00774269)
(0 0 0.00758811)
(0 0 0.00743344)
(0 0 0.00727868)
(0 0 0.00712386)
(0 0 0.006969)
(0 0 0.00681412)
(0 0 0.00665923)
(0 0 0.00650434)
(0 0 0.00634947)
(0 0 0.00619463)
(0 0 0.00603983)
(0 0 0.00588509)
(0 0 0.00573041)
(0 0 0.0055758)
(0 0 0.00542127)
(0 0 0.00526682)
(0 0 0.00511247)
(0 0 0.00495822)
(0 0 0.00480407)
(0 0 0.00465003)
(0 0 0.0044961)
(0 0 0.00434228)
(0 0 0.00418857)
(0 0 0.00403499)
(0 0 0.00388152)
(0 0 0.00372817)
(0 0 0.00357493)
(0 0 0.00342182)
(0 0 0.00326881)
(0 0 0.00311592)
(0 0 0.00296314)
(0 0 0.00281047)
(0 0 0.00265791)
(0 0 0.00250544)
(0 0 0.00235308)
(0 0 0.0022008)
(0 0 0.00204862)
(0 0 0.00189652)
(0 0 0.00174449)
(0 0 0.00159255)
(0 0 0.00144067)
(0 0 0.00128885)
(0 0 0.00113708)
(0 0 0.00098537)
(0 0 0.000833701)
(0 0 0.000682068)
(0 0 0.000530466)
(0 0 0.000378887)
(0 0 0.000227326)
(0 0 7.57741e-05)
(0 0 9.06956e-05)
(0 0 0.000272092)
(0 0 0.000453502)
(0 0 0.000634937)
(0 0 0.000816407)
(0 0 0.000997919)
(0 0 0.00117948)
(0 0 0.00136111)
(0 0 0.00154281)
(0 0 0.00172459)
(0 0 0.00190646)
(0 0 0.00208843)
(0 0 0.00227051)
(0 0 0.0024527)
(0 0 0.00263501)
(0 0 0.00281746)
(0 0 0.00300004)
(0 0 0.00318276)
(0 0 0.00336564)
(0 0 0.00354868)
(0 0 0.00373188)
(0 0 0.00391524)
(0 0 0.00409878)
(0 0 0.0042825)
(0 0 0.0044664)
(0 0 0.00465048)
(0 0 0.00483475)
(0 0 0.00501921)
(0 0 0.00520386)
(0 0 0.0053887)
(0 0 0.00557373)
(0 0 0.00575896)
(0 0 0.00594436)
(0 0 0.00612996)
(0 0 0.00631574)
(0 0 0.00650169)
(0 0 0.00668782)
(0 0 0.00687411)
(0 0 0.00706057)
(0 0 0.00724717)
(0 0 0.00743392)
(0 0 0.0076208)
(0 0 0.00780779)
(0 0 0.0079949)
(0 0 0.0081821)
(0 0 0.00836937)
(0 0 0.00855671)
(0 0 0.00874409)
(0 0 0.00893149)
(0 0 0.0091189)
(0 0 0.00930628)
(0 0 0.00949363)
(0 0 0.0096809)
(0 0 0.00986808)
(0 0 0.0100551)
(0 0 0.010242)
(0 0 0.0104288)
(0 0 0.0106153)
(0 0 0.0108015)
(0 0 0.0109874)
(0 0 0.0111731)
(0 0 0.0113583)
(0 0 0.0115431)
(0 0 0.0117275)
(0 0 0.0119114)
(0 0 0.0120947)
(0 0 0.0122774)
(0 0 0.0124594)
(0 0 0.0126408)
(0 0 0.0128213)
(0 0 0.0130011)
(0 0 0.0131799)
(0 0 0.0133579)
(0 0 0.0135348)
(0 0 0.0137106)
(0 0 0.0138853)
(0 0 0.0140587)
(0 0 0.0142309)
(0 0 0.0144017)
(0 0 0.0145711)
(0 0 0.014739)
(0 0 0.0149053)
(0 0 0.0150699)
(0 0 0.0152328)
(0 0 0.0153938)
(0 0 0.015553)
(0 0 0.0157101)
(0 0 0.0158652)
(0 0 0.0160181)
(0 0 0.0161687)
(0 0 0.016317)
(0 0 0.0164628)
(0 0 0.0166062)
(0 0 0.0167469)
(0 0 0.0168849)
(0 0 0.0170201)
(0 0 0.0171524)
(0 0 0.0172818)
(0 0 0.0174081)
(0 0 0.0175312)
(0 0 0.0176511)
(0 0 0.0177677)
(0 0 0.0178809)
(0 0 0.0179905)
(0 0 0.0180966)
(0 0 0.018199)
(0 0 0.0182977)
(0 0 0.0183926)
(0 0 0.0184835)
(0 0 0.0185705)
(0 0 0.0186535)
(0 0 0.0187324)
(0 0 0.018807)
(0 0 0.0188775)
(0 0 0.0189436)
(0 0 0.0190054)
(0 0 0.0190628)
(0 0 0.0191157)
(0 0 0.0191642)
(0 0 0.0192081)
(0 0 0.0192474)
(0 0 0.0192821)
(0 0 0.0193121)
(0 0 0.0193375)
(0 0 0.0193582)
(0 0 0.0193742)
(0 0 0.0193855)
(0 0 0.019392)
(0 0 0.0193939)
(0 0 0.0193909)
(0 0 0.0193833)
(0 0 0.0193709)
(0 0 0.0193538)
(0 0 0.0193321)
(0 0 0.0193056)
(0 0 0.0192745)
(0 0 0.0192388)
(0 0 0.0191986)
(0 0 0.0191537)
(0 0 0.0191044)
(0 0 0.0190506)
(0 0 0.0189925)
(0 0 0.0189299)
(0 0 0.0188631)
(0 0 0.018792)
(0 0 0.0187167)
(0 0 0.0186373)
(0 0 0.0185538)
(0 0 0.0184664)
(0 0 0.018375)
(0 0 0.0182798)
(0 0 0.0181809)
(0 0 0.0180782)
(0 0 0.017972)
(0 0 0.0178622)
(0 0 0.0177489)
(0 0 0.0176323)
(0 0 0.0175125)
(0 0 0.0173894)
(0 0 0.0172632)
(0 0 0.017134)
(0 0 0.0170018)
(0 0 0.0168668)
(0 0 0.0167291)
(0 0 0.0165886)
(0 0 0.0164456)
(0 0 0.0163)
(0 0 0.0161521)
(0 0 0.0160018)
(0 0 0.0158492)
(0 0 0.0156945)
(0 0 0.0155377)
(0 0 0.0153789)
(0 0 0.0152181)
(0 0 0.0150555)
(0 0 0.0148912)
(0 0 0.0147251)
(0 0 0.0145575)
(0 0 0.0143883)
(0 0 0.0142176)
(0 0 0.0140456)
(0 0 0.0138722)
(0 0 0.0136975)
(0 0 0.0135217)
(0 0 0.0133447)
(0 0 0.0131667)
(0 0 0.0129876)
(0 0 0.0128077)
(0 0 0.0126268)
(0 0 0.0124451)
(0 0 0.0122626)
(0 0 0.0120794)
(0 0 0.0118955)
(0 0 0.011711)
(0 0 0.0115259)
(0 0 0.0113403)
(0 0 0.0111542)
(0 0 0.0109676)
(0 0 0.0107807)
(0 0 0.0105933)
(0 0 0.0104057)
(0 0 0.0102177)
(0 0 0.0100295)
(0 0 0.00984102)
(0 0 0.00965237)
(0 0 0.00946354)
(0 0 0.00927457)
(0 0 0.00908547)
(0 0 0.00889629)
(0 0 0.00870703)
(0 0 0.00851773)
(0 0 0.00832839)
(0 0 0.00813905)
(0 0 0.00794971)
(0 0 0.0077604)
(0 0 0.00757113)
(0 0 0.00738191)
(0 0 0.00719276)
(0 0 0.00700369)
(0 0 0.0068147)
(0 0 0.00662582)
(0 0 0.00643704)
(0 0 0.00624838)
(0 0 0.00605984)
(0 0 0.00587143)
(0 0 0.00568314)
(0 0 0.005495)
(0 0 0.005307)
(0 0 0.00511913)
(0 0 0.00493142)
(0 0 0.00474384)
(0 0 0.00455641)
(0 0 0.00436913)
(0 0 0.00418199)
(0 0 0.00399499)
(0 0 0.00380813)
(0 0 0.0036214)
(0 0 0.00343481)
(0 0 0.00324835)
(0 0 0.00306201)
(0 0 0.00287579)
(0 0 0.00268969)
(0 0 0.0025037)
(0 0 0.00231781)
(0 0 0.00213201)
(0 0 0.00194631)
(0 0 0.00176069)
(0 0 0.00157514)
(0 0 0.00138967)
(0 0 0.00120425)
(0 0 0.00101889)
(0 0 0.000833577)
(0 0 0.000648299)
(0 0 0.00046305)
(0 0 0.000277822)
(0 0 9.26059e-05)
(0 0 0.000107174)
(0 0 0.000321528)
(0 0 0.0005359)
(0 0 0.0007503)
(0 0 0.000964741)
(0 0 0.00117923)
(0 0 0.00139379)
(0 0 0.00160842)
(0 0 0.00182313)
(0 0 0.00203794)
(0 0 0.00225286)
(0 0 0.00246789)
(0 0 0.00268306)
(0 0 0.00289835)
(0 0 0.0031138)
(0 0 0.00332939)
(0 0 0.00354516)
(0 0 0.00376109)
(0 0 0.0039772)
(0 0 0.0041935)
(0 0 0.00441)
(0 0 0.00462669)
(0 0 0.0048436)
(0 0 0.00506071)
(0 0 0.00527804)
(0 0 0.00549558)
(0 0 0.00571335)
(0 0 0.00593135)
(0 0 0.00614957)
(0 0 0.00636802)
(0 0 0.00658669)
(0 0 0.00680559)
(0 0 0.00702472)
(0 0 0.00724407)
(0 0 0.00746363)
(0 0 0.00768341)
(0 0 0.00790339)
(0 0 0.00812357)
(0 0 0.00834395)
(0 0 0.0085645)
(0 0 0.00878523)
(0 0 0.00900611)
(0 0 0.00922714)
(0 0 0.0094483)
(0 0 0.00966957)
(0 0 0.00989093)
(0 0 0.0101124)
(0 0 0.0103339)
(0 0 0.0105554)
(0 0 0.0107769)
(0 0 0.0109984)
(0 0 0.0112199)
(0 0 0.0114413)
(0 0 0.0116626)
(0 0 0.0118837)
(0 0 0.0121047)
(0 0 0.0123254)
(0 0 0.0125459)
(0 0 0.0127661)
(0 0 0.0129859)
(0 0 0.0132054)
(0 0 0.0134244)
(0 0 0.013643)
(0 0 0.013861)
(0 0 0.0140784)
(0 0 0.0142951)
(0 0 0.0145112)
(0 0 0.0147265)
(0 0 0.0149409)
(0 0 0.0151544)
(0 0 0.015367)
(0 0 0.0155785)
(0 0 0.0157889)
(0 0 0.0159982)
(0 0 0.0162061)
(0 0 0.0164127)
(0 0 0.0166179)
(0 0 0.0168215)
(0 0 0.0170236)
(0 0 0.017224)
(0 0 0.0174226)
(0 0 0.0176193)
(0 0 0.017814)
(0 0 0.0180067)
(0 0 0.0181972)
(0 0 0.0183855)
(0 0 0.0185714)
(0 0 0.0187549)
(0 0 0.0189358)
(0 0 0.019114)
(0 0 0.0192895)
(0 0 0.019462)
(0 0 0.0196316)
(0 0 0.0197981)
(0 0 0.0199614)
(0 0 0.0201215)
(0 0 0.0202781)
(0 0 0.0204311)
(0 0 0.0205806)
(0 0 0.0207263)
(0 0 0.0208683)
(0 0 0.0210062)
(0 0 0.0211402)
(0 0 0.02127)
(0 0 0.0213955)
(0 0 0.0215168)
(0 0 0.0216336)
(0 0 0.0217459)
(0 0 0.0218536)
(0 0 0.0219565)
(0 0 0.0220547)
(0 0 0.0221481)
(0 0 0.0222365)
(0 0 0.0223199)
(0 0 0.0223982)
(0 0 0.0224713)
(0 0 0.0225393)
(0 0 0.0226019)
(0 0 0.0226593)
(0 0 0.0227112)
(0 0 0.0227578)
(0 0 0.0227989)
(0 0 0.0228345)
(0 0 0.0228645)
(0 0 0.022889)
(0 0 0.022908)
(0 0 0.0229213)
(0 0 0.022929)
(0 0 0.0229312)
(0 0 0.0229277)
(0 0 0.0229187)
(0 0 0.022904)
(0 0 0.0228838)
(0 0 0.022858)
(0 0 0.0228267)
(0 0 0.0227899)
(0 0 0.0227476)
(0 0 0.0226999)
(0 0 0.0226469)
(0 0 0.0225885)
(0 0 0.0225248)
(0 0 0.0224559)
(0 0 0.0223819)
(0 0 0.0223027)
(0 0 0.0222186)
(0 0 0.0221294)
(0 0 0.0220354)
(0 0 0.0219366)
(0 0 0.0218331)
(0 0 0.021725)
(0 0 0.0216123)
(0 0 0.0214952)
(0 0 0.0213737)
(0 0 0.0212479)
(0 0 0.021118)
(0 0 0.020984)
(0 0 0.020846)
(0 0 0.0207041)
(0 0 0.0205584)
(0 0 0.0204091)
(0 0 0.0202562)
(0 0 0.0200998)
(0 0 0.0199401)
(0 0 0.019777)
(0 0 0.0196109)
(0 0 0.0194416)
(0 0 0.0192694)
(0 0 0.0190943)
(0 0 0.0189165)
(0 0 0.018736)
(0 0 0.018553)
(0 0 0.0183674)
(0 0 0.0181796)
(0 0 0.0179894)
(0 0 0.0177971)
(0 0 0.0176027)
(0 0 0.0174063)
(0 0 0.0172079)
(0 0 0.0170078)
(0 0 0.016806)
(0 0 0.0166024)
(0 0 0.0163974)
(0 0 0.0161908)
(0 0 0.0159828)
(0 0 0.0157735)
(0 0 0.015563)
(0 0 0.0153513)
(0 0 0.0151384)
(0 0 0.0149245)
(0 0 0.0147097)
(0 0 0.0144939)
(0 0 0.0142772)
(0 0 0.0140598)
(0 0 0.0138416)
(0 0 0.0136228)
(0 0 0.0134033)
(0 0 0.0131833)
(0 0 0.0129627)
(0 0 0.0127417)
(0 0 0.0125202)
(0 0 0.0122983)
(0 0 0.0120761)
(0 0 0.0118536)
(0 0 0.0116308)
(0 0 0.0114078)
(0 0 0.0111845)
(0 0 0.0109611)