/*--------------------------------*- C++ -*----------------------------------*\
| =========                 |                                                 |
| \\      /  F ield         | OpenFOAM: The Open Source CFD Toolbox           |
|  \\    /   O peration     | Version:  v2012                                 |
|   \\  /    A nd           | Website:  www.openfoam.com                      |
|    \\/     M anipulation  |                                                 |
\*---------------------------------------------------------------------------*/
FoamFile
{
    version     2.0;
    format      ascii;
    class       volVectorField;
    location    "17";
    object      U;
}
// * * * * * * * * * * * * * * * * * * * * * * * * * * * * * * * * * * * * * //

dimensions      [0 1 -1 0 0 0 0];


internalField   nonuniform List<vector> 
65536
(
(0.000673017 -0.000673033 0)
(0.00201909 -0.000673072 0)
(0.00336527 -0.000673144 0)
(0.00471164 -0.000673252 0)
(0.00605825 -0.000673395 0)
(0.00740519 -0.000673574 0)
(0.00875252 -0.000673788 0)
(0.0101003 -0.000674035 0)
(0.0114486 -0.000674317 0)
(0.0127975 -0.000674632 0)
(0.0141471 -0.000674979 0)
(0.0154974 -0.000675358 0)
(0.0168485 -0.000675767 0)
(0.0182005 -0.000676207 0)
(0.0195533 -0.000676674 0)
(0.0209072 -0.000677169 0)
(0.022262 -0.000677691 0)
(0.0236179 -0.000678237 0)
(0.0249749 -0.000678806 0)
(0.0263331 -0.000679397 0)
(0.0276925 -0.000680007 0)
(0.0290531 -0.000680637 0)
(0.030415 -0.000681282 0)
(0.0317782 -0.000681942 0)
(0.0331428 -0.000682614 0)
(0.0345087 -0.000683297 0)
(0.035876 -0.000683987 0)
(0.0372446 -0.000684682 0)
(0.0386147 -0.000685381 0)
(0.0399862 -0.000686079 0)
(0.041359 -0.000686775 0)
(0.0427333 -0.000687466 0)
(0.0441089 -0.000688147 0)
(0.0454859 -0.000688817 0)
(0.0468642 -0.000689472 0)
(0.0482438 -0.000690109 0)
(0.0496247 -0.000690723 0)
(0.0510067 -0.000691312 0)
(0.0523899 -0.000691871 0)
(0.0537742 -0.000692396 0)
(0.0551596 -0.000692884 0)
(0.0565458 -0.000693329 0)
(0.0579329 -0.000693729 0)
(0.0593208 -0.000694077 0)
(0.0607093 -0.000694369 0)
(0.0620983 -0.000694601 0)
(0.0634878 -0.000694768 0)
(0.0648775 -0.000694864 0)
(0.0662673 -0.000694883 0)
(0.0676571 -0.000694822 0)
(0.0690467 -0.000694673 0)
(0.0704359 -0.000694432 0)
(0.0718245 -0.000694092 0)
(0.0732124 -0.000693648 0)
(0.0745992 -0.000693093 0)
(0.0759848 -0.000692421 0)
(0.077369 -0.000691626 0)
(0.0787515 -0.000690702 0)
(0.080132 -0.000689641 0)
(0.0815102 -0.000688437 0)
(0.0828859 -0.000687083 0)
(0.0842587 -0.000685573 0)
(0.0856283 -0.000683899 0)
(0.0869944 -0.000682055 0)
(0.0883567 -0.000680033 0)
(0.0897148 -0.000677827 0)
(0.0910682 -0.000675428 0)
(0.0924167 -0.000672831 0)
(0.0937598 -0.000670028 0)
(0.095097 -0.000667011 0)
(0.096428 -0.000663775 0)
(0.0977523 -0.00066031 0)
(0.0990695 -0.000656611 0)
(0.100379 -0.000652671 0)
(0.10168 -0.000648483 0)
(0.102973 -0.00064404 0)
(0.104257 -0.000639335 0)
(0.105531 -0.000634362 0)
(0.106795 -0.000629115 0)
(0.108048 -0.000623588 0)
(0.109289 -0.000617775 0)
(0.110519 -0.00061167 0)
(0.111736 -0.000605269 0)
(0.11294 -0.000598565 0)
(0.114131 -0.000591555 0)
(0.115307 -0.000584233 0)
(0.116468 -0.000576597 0)
(0.117614 -0.000568642 0)
(0.118743 -0.000560365 0)
(0.119855 -0.000551763 0)
(0.12095 -0.000542835 0)
(0.122027 -0.000533578 0)
(0.123085 -0.00052399 0)
(0.124123 -0.000514072 0)
(0.125142 -0.000503823 0)
(0.126139 -0.000493242 0)
(0.127115 -0.000482331 0)
(0.128069 -0.000471092 0)
(0.128999 -0.000459526 0)
(0.129907 -0.000447636 0)
(0.13079 -0.000435425 0)
(0.131649 -0.000422897 0)
(0.132482 -0.000410057 0)
(0.13329 -0.000396909 0)
(0.13407 -0.00038346 0)
(0.134824 -0.000369716 0)
(0.135549 -0.000355685 0)
(0.136247 -0.000341373 0)
(0.136915 -0.000326789 0)
(0.137554 -0.000311942 0)
(0.138163 -0.000296842 0)
(0.138742 -0.000281499 0)
(0.139289 -0.000265924 0)
(0.139806 -0.000250128 0)
(0.14029 -0.000234123 0)
(0.140742 -0.00021792 0)
(0.141162 -0.000201534 0)
(0.141549 -0.000184977 0)
(0.141902 -0.000168264 0)
(0.142222 -0.000151407 0)
(0.142508 -0.000134422 0)
(0.14276 -0.000117323 0)
(0.142977 -0.000100126 0)
(0.14316 -8.28448e-05 0)
(0.143309 -6.54961e-05 0)
(0.143422 -4.80952e-05 0)
(0.143501 -3.06578e-05 0)
(0.143545 -1.31997e-05 0)
(0.143554 4.26325e-06 0)
(0.143528 2.17152e-05 0)
(0.143467 3.91404e-05 0)
(0.143371 5.65232e-05 0)
(0.143241 7.3848e-05 0)
(0.143076 9.10994e-05 0)
(0.142876 0.000108262 0)
(0.142643 0.000125322 0)
(0.142375 0.000142264 0)
(0.142073 0.000159074 0)
(0.141738 0.000175738 0)
(0.14137 0.000192242 0)
(0.140969 0.000208574 0)
(0.140536 0.000224721 0)
(0.14007 0.000240671 0)
(0.139573 0.000256412 0)
(0.139044 0.000271934 0)
(0.138485 0.000287225 0)
(0.137895 0.000302276 0)
(0.137276 0.000317078 0)
(0.136627 0.000331622 0)
(0.135949 0.000345899 0)
(0.135243 0.000359902 0)
(0.134509 0.000373624 0)
(0.133748 0.00038706 0)
(0.13296 0.000400202 0)
(0.132147 0.000413046 0)
(0.131308 0.000425588 0)
(0.130444 0.000437823 0)
(0.129556 0.000449749 0)
(0.128645 0.000461362 0)
(0.12771 0.000472661 0)
(0.126754 0.000483643 0)
(0.125776 0.000494308 0)
(0.124776 0.000504656 0)
(0.123757 0.000514685 0)
(0.122717 0.000524398 0)
(0.121659 0.000533794 0)
(0.120582 0.000542875 0)
(0.119487 0.000551644 0)
(0.118375 0.000560101 0)
(0.117246 0.00056825 0)
(0.116102 0.000576095 0)
(0.114941 0.000583638 0)
(0.113767 0.000590883 0)
(0.112578 0.000597834 0)
(0.111375 0.000604495 0)
(0.110159 0.000610872 0)
(0.108931 0.000616969 0)
(0.107691 0.00062279 0)
(0.10644 0.000628342 0)
(0.105178 0.00063363 0)
(0.103905 0.00063866 0)
(0.102623 0.000643437 0)
(0.101331 0.000647967 0)
(0.100031 0.000652256 0)
(0.0987218 0.000656311 0)
(0.0974051 0.000660138 0)
(0.096081 0.000663743 0)
(0.0947499 0.000667133 0)
(0.0934123 0.000670313 0)
(0.0920685 0.000673291 0)
(0.0907189 0.000676073 0)
(0.089364 0.000678665 0)
(0.0880041 0.000681074 0)
(0.0866395 0.000683306 0)
(0.0852707 0.000685368 0)
(0.0838979 0.000687266 0)
(0.0825215 0.000689006 0)
(0.0811417 0.000690595 0)
(0.0797589 0.000692039 0)
(0.0783734 0.000693343 0)
(0.0769854 0.000694515 0)
(0.0755952 0.00069556 0)
(0.0742031 0.000696483 0)
(0.0728092 0.000697292 0)
(0.0714138 0.00069799 0)
(0.0700171 0.000698585 0)
(0.0686194 0.000699081 0)
(0.0672207 0.000699484 0)
(0.0658213 0.000699799 0)
(0.0644214 0.000700032 0)
(0.0630211 0.000700186 0)
(0.0616206 0.000700268 0)
(0.06022 0.000700282 0)
(0.0588194 0.000700232 0)
(0.057419 0.000700124 0)
(0.0560189 0.000699962 0)
(0.0546191 0.000699749 0)
(0.0532198 0.000699491 0)
(0.0518211 0.00069919 0)
(0.050423 0.000698852 0)
(0.0490257 0.000698481 0)
(0.0476291 0.000698078 0)
(0.0462333 0.000697649 0)
(0.0448385 0.000697197 0)
(0.0434445 0.000696725 0)
(0.0420516 0.000696237 0)
(0.0406596 0.000695734 0)
(0.0392686 0.000695221 0)
(0.0378787 0.000694701 0)
(0.0364898 0.000694175 0)
(0.035102 0.000693647 0)
(0.0337152 0.00069312 0)
(0.0323295 0.000692595 0)
(0.0309449 0.000692075 0)
(0.0295612 0.000691562 0)
(0.0281786 0.000691059 0)
(0.026797 0.000690567 0)
(0.0254164 0.000690088 0)
(0.0240367 0.000689624 0)
(0.0226579 0.000689176 0)
(0.02128 0.000688747 0)
(0.0199029 0.000688338 0)
(0.0185267 0.00068795 0)
(0.0171512 0.000687584 0)
(0.0157764 0.000687241 0)
(0.0144022 0.000686924 0)
(0.0130287 0.000686632 0)
(0.0116557 0.000686367 0)
(0.0102833 0.000686129 0)
(0.00891123 0.00068592 0)
(0.00753961 0.000685739 0)
(0.00616831 0.000685587 0)
(0.00479729 0.000685465 0)
(0.00342649 0.000685374 0)
(0.00205583 0.000685313 0)
(0.000685267 0.000685282 0)
(0.000672985 -0.00201908 0)
(0.00201899 -0.00201918 0)
(0.0033651 -0.0020194 0)
(0.0047114 -0.00201973 0)
(0.00605794 -0.00202016 0)
(0.00740481 -0.00202069 0)
(0.00875207 -0.00202133 0)
(0.0100998 -0.00202208 0)
(0.0114481 -0.00202292 0)
(0.0127969 -0.00202387 0)
(0.0141464 -0.00202491 0)
(0.0154967 -0.00202605 0)
(0.0168477 -0.00202728 0)
(0.0181996 -0.0020286 0)
(0.0195524 -0.00203 0)
(0.0209062 -0.00203149 0)
(0.022261 -0.00203305 0)
(0.0236168 -0.00203469 0)
(0.0249738 -0.0020364 0)
(0.0263319 -0.00203817 0)
(0.0276913 -0.00204001 0)
(0.0290519 -0.0020419 0)
(0.0304138 -0.00204384 0)
(0.031777 -0.00204582 0)
(0.0331415 -0.00204784 0)
(0.0345074 -0.00204989 0)
(0.0358746 -0.00205196 0)
(0.0372433 -0.00205405 0)
(0.0386134 -0.00205615 0)
(0.0399848 -0.00205824 0)
(0.0413577 -0.00206034 0)
(0.042732 -0.00206241 0)
(0.0441076 -0.00206446 0)
(0.0454846 -0.00206647 0)
(0.046863 -0.00206844 0)
(0.0482426 -0.00207035 0)
(0.0496235 -0.0020722 0)
(0.0510056 -0.00207397 0)
(0.0523889 -0.00207565 0)
(0.0537733 -0.00207723 0)
(0.0551587 -0.0020787 0)
(0.0565451 -0.00208004 0)
(0.0579323 -0.00208124 0)
(0.0593202 -0.00208229 0)
(0.0607089 -0.00208317 0)
(0.062098 -0.00208387 0)
(0.0634876 -0.00208438 0)
(0.0648774 -0.00208467 0)
(0.0662674 -0.00208473 0)
(0.0676574 -0.00208456 0)
(0.0690472 -0.00208412 0)
(0.0704366 -0.0020834 0)
(0.0718254 -0.00208238 0)
(0.0732135 -0.00208106 0)
(0.0746005 -0.0020794 0)
(0.0759864 -0.00207739 0)
(0.0773708 -0.00207501 0)
(0.0787536 -0.00207224 0)
(0.0801343 -0.00206907 0)
(0.0815129 -0.00206546 0)
(0.0828888 -0.00206141 0)
(0.084262 -0.00205688 0)
(0.0856319 -0.00205187 0)
(0.0869984 -0.00204634 0)
(0.0883611 -0.00204029 0)
(0.0897195 -0.00203367 0)
(0.0910733 -0.00202648 0)
(0.0924222 -0.0020187 0)
(0.0937657 -0.0020103 0)
(0.0951034 -0.00200125 0)
(0.0964348 -0.00199155 0)
(0.0977596 -0.00198116 0)
(0.0990772 -0.00197008 0)
(0.100387 -0.00195826 0)
(0.101689 -0.0019457 0)
(0.102982 -0.00193238 0)
(0.104267 -0.00191827 0)
(0.105541 -0.00190336 0)
(0.106805 -0.00188763 0)
(0.108059 -0.00187105 0)
(0.109301 -0.00185362 0)
(0.110532 -0.00183531 0)
(0.111749 -0.00181611 0)
(0.112954 -0.001796 0)
(0.114145 -0.00177497 0)
(0.115322 -0.00175301 0)
(0.116484 -0.00173011 0)
(0.11763 -0.00170624 0)
(0.11876 -0.00168142 0)
(0.119873 -0.00165561 0)
(0.120969 -0.00162883 0)
(0.122046 -0.00160106 0)
(0.123104 -0.0015723 0)
(0.124144 -0.00154254 0)
(0.125162 -0.0015118 0)
(0.12616 -0.00148005 0)
(0.127137 -0.00144732 0)
(0.128091 -0.0014136 0)
(0.129023 -0.0013789 0)
(0.129931 -0.00134322 0)
(0.130815 -0.00130659 0)
(0.131674 -0.001269 0)
(0.132508 -0.00123047 0)
(0.133316 -0.00119103 0)
(0.134097 -0.00115067 0)
(0.134852 -0.00110943 0)
(0.135578 -0.00106733 0)
(0.136276 -0.00102439 0)
(0.136945 -0.000980625 0)
(0.137584 -0.000936075 0)
(0.138194 -0.000890765 0)
(0.138773 -0.000844726 0)
(0.139321 -0.000797989 0)
(0.139837 -0.000750588 0)
(0.140322 -0.00070256 0)
(0.140775 -0.00065394 0)
(0.141195 -0.000604768 0)
(0.141582 -0.000555084 0)
(0.141936 -0.000504929 0)
(0.142256 -0.000454344 0)
(0.142542 -0.000403374 0)
(0.142794 -0.000352063 0)
(0.143012 -0.000300455 0)
(0.143195 -0.000248597 0)
(0.143343 -0.000196535 0)
(0.143457 -0.000144317 0)
(0.143536 -9.19889e-05 0)
(0.14358 -3.95987e-05 0)
(0.143589 1.2806e-05 0)
(0.143563 6.51776e-05 0)
(0.143502 0.000117469 0)
(0.143406 0.000169633 0)
(0.143275 0.000221622 0)
(0.14311 0.000273392 0)
(0.14291 0.000324896 0)
(0.142677 0.00037609 0)
(0.142409 0.000426929 0)
(0.142107 0.000477373 0)
(0.141772 0.000527378 0)
(0.141403 0.000576904 0)
(0.141002 0.000625912 0)
(0.140568 0.000674365 0)
(0.140102 0.000722227 0)
(0.139604 0.000769461 0)
(0.139075 0.000816036 0)
(0.138515 0.00086192 0)
(0.137925 0.000907083 0)
(0.137305 0.000951497 0)
(0.136655 0.000995136 0)
(0.135977 0.00103797 0)
(0.13527 0.00107999 0)
(0.134536 0.00112116 0)
(0.133774 0.00116148 0)
(0.132986 0.00120091 0)
(0.132172 0.00123944 0)
(0.131333 0.00127707 0)
(0.130468 0.00131378 0)
(0.12958 0.00134956 0)
(0.128668 0.0013844 0)
(0.127733 0.0014183 0)
(0.126775 0.00145125 0)
(0.125797 0.00148325 0)
(0.124797 0.00151429 0)
(0.123776 0.00154438 0)
(0.122736 0.00157351 0)
(0.121677 0.0016017 0)
(0.1206 0.00162894 0)
(0.119504 0.00165524 0)
(0.118391 0.00168061 0)
(0.117262 0.00170506 0)
(0.116117 0.00172859 0)
(0.114956 0.00175121 0)
(0.113781 0.00177294 0)
(0.112591 0.00179379 0)
(0.111388 0.00181377 0)
(0.110172 0.0018329 0)
(0.108943 0.00185118 0)
(0.107703 0.00186864 0)
(0.106451 0.00188529 0)
(0.105188 0.00190115 0)
(0.103915 0.00191623 0)
(0.102632 0.00193056 0)
(0.10134 0.00194414 0)
(0.100039 0.001957 0)
(0.0987296 0.00196916 0)
(0.0974125 0.00198064 0)
(0.096088 0.00199145 0)
(0.0947564 0.00200161 0)
(0.0934184 0.00201114 0)
(0.0920742 0.00202007 0)
(0.0907242 0.00202841 0)
(0.0893689 0.00203618 0)
(0.0880087 0.0020434 0)
(0.0866438 0.00205009 0)
(0.0852746 0.00205627 0)
(0.0839015 0.00206196 0)
(0.0825247 0.00206717 0)
(0.0811447 0.00207193 0)
(0.0797616 0.00207625 0)
(0.0783758 0.00208016 0)
(0.0769876 0.00208367 0)
(0.0755971 0.0020868 0)
(0.0742047 0.00208956 0)
(0.0728106 0.00209198 0)
(0.071415 0.00209407 0)
(0.0700182 0.00209585 0)
(0.0686202 0.00209734 0)
(0.0672214 0.00209854 0)
(0.0658218 0.00209948 0)
(0.0644218 0.00210017 0)
(0.0630213 0.00210063 0)
(0.0616207 0.00210087 0)
(0.0602199 0.00210091 0)
(0.0588192 0.00210075 0)
(0.0574187 0.00210042 0)
(0.0560184 0.00209993 0)
(0.0546186 0.00209929 0)
(0.0532192 0.00209851 0)
(0.0518204 0.00209761 0)
(0.0504223 0.00209659 0)
(0.0490249 0.00209547 0)
(0.0476282 0.00209426 0)
(0.0462324 0.00209297 0)
(0.0448375 0.00209161 0)
(0.0434435 0.00209019 0)
(0.0420505 0.00208872 0)
(0.0406585 0.00208721 0)
(0.0392675 0.00208567 0)
(0.0378776 0.0020841 0)
(0.0364887 0.00208253 0)
(0.0351009 0.00208094 0)
(0.0337141 0.00207935 0)
(0.0323284 0.00207778 0)
(0.0309438 0.00207621 0)
(0.0295602 0.00207467 0)
(0.0281776 0.00207316 0)
(0.026796 0.00207168 0)
(0.0254154 0.00207024 0)
(0.0240357 0.00206885 0)
(0.022657 0.00206751 0)
(0.0212791 0.00206622 0)
(0.0199021 0.00206499 0)
(0.0185259 0.00206382 0)
(0.0171504 0.00206272 0)
(0.0157757 0.0020617 0)
(0.0144016 0.00206074 0)
(0.0130281 0.00205987 0)
(0.0116552 0.00205907 0)
(0.0102828 0.00205836 0)
(0.00891083 0.00205773 0)
(0.00753927 0.00205718 0)
(0.00616803 0.00205673 0)
(0.00479707 0.00205636 0)
(0.00342633 0.00205609 0)
(0.00205574 0.00205591 0)
(0.000685236 0.00205582 0)
(0.000672911 -0.00336501 0)
(0.00201877 -0.00336519 0)
(0.00336474 -0.00336555 0)
(0.00471089 -0.00336609 0)
(0.00605729 -0.00336681 0)
(0.00740402 -0.00336771 0)
(0.00875114 -0.00336878 0)
(0.0100987 -0.00337002 0)
(0.0114468 -0.00337143 0)
(0.0127956 -0.00337301 0)
(0.014145 -0.00337475 0)
(0.0154951 -0.00337665 0)
(0.016846 -0.0033787 0)
(0.0181978 -0.0033809 0)
(0.0195505 -0.00338324 0)
(0.0209041 -0.00338573 0)
(0.0222588 -0.00338834 0)
(0.0236146 -0.00339108 0)
(0.0249715 -0.00339393 0)
(0.0263295 -0.00339689 0)
(0.0276888 -0.00339996 0)
(0.0290493 -0.00340311 0)
(0.0304111 -0.00340635 0)
(0.0317743 -0.00340966 0)
(0.0331387 -0.00341303 0)
(0.0345046 -0.00341645 0)
(0.0358718 -0.00341992 0)
(0.0372405 -0.00342341 0)
(0.0386105 -0.00342691 0)
(0.039982 -0.00343042 0)
(0.0413549 -0.00343391 0)
(0.0427292 -0.00343738 0)
(0.0441049 -0.0034408 0)
(0.0454819 -0.00344417 0)
(0.0468603 -0.00344746 0)
(0.0482401 -0.00345066 0)
(0.0496211 -0.00345375 0)
(0.0510033 -0.00345671 0)
(0.0523867 -0.00345953 0)
(0.0537712 -0.00346218 0)
(0.0551568 -0.00346463 0)
(0.0565433 -0.00346689 0)
(0.0579307 -0.0034689 0)
(0.0593189 -0.00347067 0)
(0.0607077 -0.00347216 0)
(0.0620972 -0.00347334 0)
(0.063487 -0.0034742 0)
(0.0648772 -0.0034747 0)
(0.0662674 -0.00347483 0)
(0.0676577 -0.00347455 0)
(0.0690479 -0.00347384 0)
(0.0704376 -0.00347266 0)
(0.0718269 -0.00347099 0)
(0.0732154 -0.0034688 0)
(0.0746029 -0.00346605 0)
(0.0759893 -0.00346273 0)
(0.0773742 -0.00345878 0)
(0.0787575 -0.00345419 0)
(0.0801388 -0.00344892 0)
(0.0815179 -0.00344294 0)
(0.0828945 -0.0034362 0)
(0.0842683 -0.00342868 0)
(0.0856389 -0.00342035 0)
(0.0870061 -0.00341116 0)
(0.0883694 -0.00340109 0)
(0.0897286 -0.00339009 0)
(0.0910832 -0.00337814 0)
(0.0924329 -0.00336519 0)
(0.0937772 -0.00335121 0)
(0.0951158 -0.00333616 0)
(0.0964481 -0.00332001 0)
(0.0977738 -0.00330272 0)
(0.0990924 -0.00328426 0)
(0.100403 -0.0032646 0)
(0.101706 -0.00324369 0)
(0.103001 -0.00322151 0)
(0.104286 -0.00319801 0)
(0.105562 -0.00317318 0)
(0.106827 -0.00314698 0)
(0.108082 -0.00311937 0)
(0.109325 -0.00309033 0)
(0.110556 -0.00305983 0)
(0.111776 -0.00302785 0)
(0.112981 -0.00299435 0)
(0.114174 -0.00295932 0)
(0.115352 -0.00292274 0)
(0.116515 -0.00288457 0)
(0.117662 -0.00284481 0)
(0.118794 -0.00280344 0)
(0.119908 -0.00276045 0)
(0.121005 -0.00271581 0)
(0.122084 -0.00266953 0)
(0.123143 -0.0026216 0)
(0.124184 -0.00257201 0)
(0.125204 -0.00252076 0)
(0.126203 -0.00246786 0)
(0.127181 -0.0024133 0)
(0.128137 -0.00235709 0)
(0.12907 -0.00229924 0)
(0.129979 -0.00223978 0)
(0.130865 -0.0021787 0)
(0.131725 -0.00211604 0)
(0.13256 -0.00205181 0)
(0.133369 -0.00198605 0)
(0.134152 -0.00191877 0)
(0.134907 -0.00185001 0)
(0.135634 -0.00177982 0)
(0.136333 -0.00170821 0)
(0.137003 -0.00163525 0)
(0.137644 -0.00156097 0)
(0.138255 -0.00148542 0)
(0.138835 -0.00140865 0)
(0.139384 -0.00133072 0)
(0.139901 -0.00125168 0)
(0.140387 -0.00117159 0)
(0.14084 -0.00109051 0)
(0.141261 -0.00100852 0)
(0.141649 -0.000925663 0)
(0.142003 -0.000842023 0)
(0.142323 -0.000757668 0)
(0.14261 -0.000672668 0)
(0.142863 -0.000587099 0)
(0.143081 -0.000501035 0)
(0.143264 -0.000414554 0)
(0.143413 -0.000327732 0)
(0.143527 -0.000240649 0)
(0.143606 -0.000153383 0)
(0.14365 -6.60129e-05 0)
(0.143659 2.13811e-05 0)
(0.143632 0.00010872 0)
(0.143571 0.000195924 0)
(0.143475 0.000282916 0)
(0.143345 0.000369616 0)
(0.143179 0.000455949 0)
(0.142979 0.000541839 0)
(0.142745 0.00062721 0)
(0.142476 0.000711991 0)
(0.142174 0.000796109 0)
(0.141838 0.000879496 0)
(0.141469 0.000962083 0)
(0.141067 0.00104381 0)
(0.140632 0.0011246 0)
(0.140165 0.00120441 0)
(0.139667 0.00128317 0)
(0.139137 0.00136083 0)
(0.138576 0.00143734 0)
(0.137985 0.00151264 0)
(0.137364 0.00158669 0)
(0.136713 0.00165945 0)
(0.136034 0.00173087 0)
(0.135326 0.00180092 0)
(0.13459 0.00186957 0)
(0.133828 0.00193677 0)
(0.133038 0.00200251 0)
(0.132223 0.00206675 0)
(0.131382 0.00212948 0)
(0.130517 0.00219067 0)
(0.129627 0.00225031 0)
(0.128714 0.00230839 0)
(0.127777 0.00236489 0)
(0.126819 0.00241981 0)
(0.125839 0.00247314 0)
(0.124837 0.00252487 0)
(0.123816 0.00257502 0)
(0.122775 0.00262358 0)
(0.121714 0.00267055 0)
(0.120635 0.00271595 0)
(0.119539 0.00275978 0)
(0.118425 0.00280205 0)
(0.117294 0.00284278 0)
(0.116148 0.00288199 0)
(0.114986 0.00291968 0)
(0.113809 0.00295589 0)
(0.112618 0.00299062 0)
(0.111414 0.0030239 0)
(0.110197 0.00305576 0)
(0.108967 0.00308622 0)
(0.107725 0.0031153 0)
(0.106472 0.00314304 0)
(0.105209 0.00316945 0)
(0.103934 0.00319457 0)
(0.102651 0.00321842 0)
(0.101357 0.00324104 0)
(0.100056 0.00326246 0)
(0.0987454 0.0032827 0)
(0.0974274 0.0033018 0)
(0.096102 0.0033198 0)
(0.0947696 0.00333671 0)
(0.0934307 0.00335258 0)
(0.0920857 0.00336744 0)
(0.090735 0.00338131 0)
(0.0893789 0.00339424 0)
(0.0880179 0.00340625 0)
(0.0866524 0.00341738 0)
(0.0852825 0.00342766 0)
(0.0839087 0.00343712 0)
(0.0825314 0.00344579 0)
(0.0811508 0.0034537 0)
(0.0797671 0.00346089 0)
(0.0783808 0.00346738 0)
(0.076992 0.00347321 0)
(0.0756011 0.0034784 0)
(0.0742082 0.00348299 0)
(0.0728137 0.00348701 0)
(0.0714176 0.00349047 0)
(0.0700203 0.00349342 0)
(0.068622 0.00349587 0)
(0.0672228 0.00349786 0)
(0.0658229 0.00349941 0)
(0.0644225 0.00350054 0)
(0.0630218 0.00350129 0)
(0.0616208 0.00350168 0)
(0.0602198 0.00350172 0)
(0.0588189 0.00350145 0)
(0.0574182 0.00350089 0)
(0.0560177 0.00350005 0)
(0.0546177 0.00349897 0)
(0.0532181 0.00349766 0)
(0.0518192 0.00349614 0)
(0.0504209 0.00349443 0)
(0.0490233 0.00349255 0)
(0.0476266 0.00349052 0)
(0.0462307 0.00348836 0)
(0.0448357 0.00348608 0)
(0.0434416 0.0034837 0)
(0.0420485 0.00348125 0)
(0.0406565 0.00347872 0)
(0.0392655 0.00347614 0)
(0.0378755 0.00347352 0)
(0.0364866 0.00347088 0)
(0.0350988 0.00346823 0)
(0.033712 0.00346558 0)
(0.0323263 0.00346294 0)
(0.0309417 0.00346033 0)
(0.0295581 0.00345776 0)
(0.0281756 0.00345523 0)
(0.0267941 0.00345276 0)
(0.0254135 0.00345036 0)
(0.0240339 0.00344803 0)
(0.0226552 0.00344578 0)
(0.0212775 0.00344363 0)
(0.0199005 0.00344158 0)
(0.0185244 0.00343963 0)
(0.017149 0.00343779 0)
(0.0157744 0.00343608 0)
(0.0144004 0.00343448 0)
(0.013027 0.00343302 0)
(0.0116542 0.00343169 0)
(0.0102819 0.0034305 0)
(0.00891005 0.00342945 0)
(0.0075386 0.00342854 0)
(0.00616749 0.00342778 0)
(0.00479665 0.00342717 0)
(0.00342602 0.00342671 0)
(0.00205555 0.00342641 0)
(0.000685174 0.00342626 0)
(0.000672801 -0.00471076 0)
(0.00201844 -0.00471101 0)
(0.00336419 -0.00471152 0)
(0.00471012 -0.00471228 0)
(0.00605631 -0.00471329 0)
(0.00740283 -0.00471454 0)
(0.00874974 -0.00471604 0)
(0.0100971 -0.00471779 0)
(0.011445 -0.00471977 0)
(0.0127936 -0.00472198 0)
(0.0141428 -0.00472442 0)
(0.0154927 -0.00472709 0)
(0.0168434 -0.00472997 0)
(0.018195 -0.00473306 0)
(0.0195475 -0.00473635 0)
(0.020901 -0.00473983 0)
(0.0222556 -0.0047435 0)
(0.0236112 -0.00474734 0)
(0.0249679 -0.00475135 0)
(0.0263259 -0.00475551 0)
(0.027685 -0.00475981 0)
(0.0290454 -0.00476424 0)
(0.0304072 -0.00476878 0)
(0.0317702 -0.00477343 0)
(0.0331346 -0.00477817 0)
(0.0345004 -0.00478298 0)
(0.0358676 -0.00478784 0)
(0.0372362 -0.00479275 0)
(0.0386063 -0.00479767 0)
(0.0399777 -0.0048026 0)
(0.0413507 -0.00480751 0)
(0.042725 -0.00481239 0)
(0.0441007 -0.0048172 0)
(0.0454779 -0.00482194 0)
(0.0468564 -0.00482657 0)
(0.0482362 -0.00483108 0)
(0.0496174 -0.00483543 0)
(0.0509998 -0.0048396 0)
(0.0523833 -0.00484357 0)
(0.0537681 -0.00484731 0)
(0.0551539 -0.00485078 0)
(0.0565407 -0.00485396 0)
(0.0579284 -0.00485682 0)
(0.0593168 -0.00485932 0)
(0.060706 -0.00486144 0)
(0.0620958 -0.00486313 0)
(0.0634861 -0.00486437 0)
(0.0648767 -0.00486512 0)
(0.0662674 -0.00486533 0)
(0.0676582 -0.00486498 0)
(0.0690489 -0.00486402 0)
(0.0704393 -0.00486241 0)
(0.0718291 -0.00486011 0)
(0.0732182 -0.00485709 0)
(0.0746065 -0.00485329 0)
(0.0759935 -0.00484868 0)
(0.0773792 -0.0048432 0)
(0.0787633 -0.00483682 0)
(0.0801454 -0.00482949 0)
(0.0815254 -0.00482116 0)
(0.0829029 -0.00481178 0)
(0.0842777 -0.0048013 0)
(0.0856493 -0.00478968 0)
(0.0870175 -0.00477687 0)
(0.088382 -0.00476282 0)
(0.0897423 -0.00474747 0)
(0.0910981 -0.00473079 0)
(0.092449 -0.00471271 0)
(0.0937945 -0.00469318 0)
(0.0951344 -0.00467217 0)
(0.0964681 -0.00464961 0)
(0.0977952 -0.00462545 0)
(0.0991152 -0.00459966 0)
(0.100428 -0.00457217 0)
(0.101732 -0.00454295 0)
(0.103028 -0.00451194 0)
(0.104315 -0.0044791 0)
(0.105592 -0.00444437 0)
(0.106859 -0.00440773 0)
(0.108115 -0.00436912 0)
(0.109361 -0.00432851 0)
(0.110594 -0.00428585 0)
(0.111815 -0.00424111 0)
(0.113023 -0.00419425 0)
(0.114217 -0.00414523 0)
(0.115397 -0.00409404 0)
(0.116561 -0.00404064 0)
(0.117711 -0.003985 0)
(0.118844 -0.0039271 0)
(0.11996 -0.00386692 0)
(0.121059 -0.00380444 0)
(0.12214 -0.00373966 0)
(0.123202 -0.00367256 0)
(0.124244 -0.00360314 0)
(0.125266 -0.00353139 0)
(0.126268 -0.00345731 0)
(0.127248 -0.00338092 0)
(0.128205 -0.00330221 0)
(0.12914 -0.00322122 0)
(0.130052 -0.00313794 0)
(0.130939 -0.00305241 0)
(0.131801 -0.00296465 0)
(0.132638 -0.00287469 0)
(0.133449 -0.00278258 0)
(0.134233 -0.00268835 0)
(0.13499 -0.00259204 0)
(0.13572 -0.00249371 0)
(0.13642 -0.00239341 0)
(0.137092 -0.00229119 0)
(0.137734 -0.00218713 0)
(0.138346 -0.00208129 0)
(0.138927 -0.00197374 0)
(0.139478 -0.00186456 0)
(0.139997 -0.00175382 0)
(0.140484 -0.0016416 0)
(0.140938 -0.00152801 0)
(0.14136 -0.00141312 0)
(0.141748 -0.00129703 0)
(0.142104 -0.00117984 0)
(0.142425 -0.00106164 0)
(0.142712 -0.000942534 0)
(0.142966 -0.000822631 0)
(0.143184 -0.000702035 0)
(0.143368 -0.000580852 0)
(0.143517 -0.000459193 0)
(0.143631 -0.000337165 0)
(0.143711 -0.000214882 0)
(0.143755 -9.24527e-05 0)
(0.143764 3.00098e-05 0)
(0.143737 0.000152395 0)
(0.143676 0.000274591 0)
(0.14358 0.000396488 0)
(0.143448 0.000517976 0)
(0.143282 0.000638949 0)
(0.143082 0.000759298 0)
(0.142847 0.000878921 0)
(0.142578 0.000997713 0)
(0.142274 0.00111558 0)
(0.141938 0.00123241 0)
(0.141567 0.00134812 0)
(0.141164 0.00146262 0)
(0.140729 0.00157582 0)
(0.14026 0.00168763 0)
(0.139761 0.00179798 0)
(0.139229 0.00190678 0)
(0.138667 0.00201395 0)
(0.138074 0.00211944 0)
(0.137452 0.00222318 0)
(0.1368 0.0023251 0)
(0.136119 0.00242514 0)
(0.135409 0.00252326 0)
(0.134672 0.00261941 0)
(0.133907 0.00271353 0)
(0.133116 0.0028056 0)
(0.132299 0.00289557 0)
(0.131457 0.00298342 0)
(0.130589 0.00306911 0)
(0.129698 0.00315263 0)
(0.128782 0.00323395 0)
(0.127844 0.00331306 0)
(0.126884 0.00338995 0)
(0.125902 0.00346462 0)
(0.124899 0.00353705 0)
(0.123875 0.00360725 0)
(0.122832 0.00367522 0)
(0.12177 0.00374098 0)
(0.120689 0.00380452 0)
(0.11959 0.00386587 0)
(0.118474 0.00392503 0)
(0.117342 0.00398203 0)
(0.116194 0.0040369 0)
(0.11503 0.00408964 0)
(0.113852 0.0041403 0)
(0.112659 0.0041889 0)
(0.111453 0.00423546 0)
(0.110234 0.00428003 0)
(0.109003 0.00432264 0)
(0.107759 0.00436331 0)
(0.106505 0.0044021 0)
(0.105239 0.00443904 0)
(0.103964 0.00447416 0)
(0.102678 0.00450751 0)
(0.101384 0.00453914 0)
(0.100081 0.00456908 0)
(0.098769 0.00459738 0)
(0.0974496 0.00462408 0)
(0.0961229 0.00464922 0)
(0.0947893 0.00467286 0)
(0.0934492 0.00469503 0)
(0.092103 0.00471579 0)
(0.0907511 0.00473517 0)
(0.0893939 0.00475322 0)
(0.0880318 0.00476999 0)
(0.0866652 0.00478553 0)
(0.0852944 0.00479987 0)
(0.0839196 0.00481307 0)
(0.0825414 0.00482516 0)
(0.0811598 0.0048362 0)
(0.0797753 0.00484622 0)
(0.0783882 0.00485526 0)
(0.0769987 0.00486338 0)
(0.075607 0.00487061 0)
(0.0742134 0.004877 0)
(0.0728182 0.00488257 0)
(0.0714215 0.00488739 0)
(0.0700236 0.00489147 0)
(0.0686247 0.00489487 0)
(0.0672249 0.00489762 0)
(0.0658246 0.00489975 0)
(0.0644237 0.0049013 0)
(0.0630225 0.00490232 0)
(0.0616211 0.00490282 0)
(0.0602197 0.00490285 0)
(0.0588184 0.00490244 0)
(0.0574173 0.00490162 0)
(0.0560166 0.00490042 0)
(0.0546162 0.00489888 0)
(0.0532164 0.00489701 0)
(0.0518172 0.00489486 0)
(0.0504187 0.00489244 0)
(0.049021 0.00488978 0)
(0.0476241 0.00488692 0)
(0.046228 0.00488386 0)
(0.0448329 0.00488065 0)
(0.0434387 0.0048773 0)
(0.0420456 0.00487384 0)
(0.0406534 0.00487028 0)
(0.0392624 0.00486665 0)
(0.0378724 0.00486297 0)
(0.0364835 0.00485925 0)
(0.0350956 0.00485552 0)
(0.0337089 0.00485179 0)
(0.0323232 0.00484809 0)
(0.0309386 0.00484442 0)
(0.0295551 0.0048408 0)
(0.0281726 0.00483725 0)
(0.0267911 0.00483377 0)
(0.0254107 0.0048304 0)
(0.0240312 0.00482712 0)
(0.0226526 0.00482397 0)
(0.0212749 0.00482095 0)
(0.0198981 0.00481806 0)
(0.0185221 0.00481532 0)
(0.0171469 0.00481275 0)
(0.0157724 0.00481033 0)
(0.0143985 0.0048081 0)
(0.0130253 0.00480604 0)
(0.0116527 0.00480417 0)
(0.0102806 0.0048025 0)
(0.00890888 0.00480102 0)
(0.0075376 0.00479975 0)
(0.00616667 0.00479868 0)
(0.00479601 0.00479782 0)
(0.00342556 0.00479718 0)
(0.00205528 0.00479676 0)
(0.000685082 0.00479654 0)
(0.000672655 -0.00605625 0)
(0.002018 -0.00605658 0)
(0.00336346 -0.00605723 0)
(0.0047091 -0.00605821 0)
(0.006055 -0.00605951 0)
(0.00740123 -0.00606113 0)
(0.00874787 -0.00606307 0)
(0.010095 -0.00606532 0)
(0.0114426 -0.00606787 0)
(0.0127909 -0.00607073 0)
(0.0141398 -0.00607388 0)
(0.0154895 -0.00607731 0)
(0.01684 -0.00608103 0)
(0.0181913 -0.00608501 0)
(0.0195436 -0.00608926 0)
(0.0208969 -0.00609375 0)
(0.0222512 -0.00609848 0)
(0.0236066 -0.00610344 0)
(0.0249632 -0.00610861 0)
(0.026321 -0.00611398 0)
(0.02768 -0.00611953 0)
(0.0290403 -0.00612525 0)
(0.0304018 -0.00613112 0)
(0.0317648 -0.00613712 0)
(0.0331291 -0.00614324 0)
(0.0344948 -0.00614945 0)
(0.035862 -0.00615573 0)
(0.0372305 -0.00616207 0)
(0.0386006 -0.00616843 0)
(0.039972 -0.0061748 0)
(0.041345 -0.00618115 0)
(0.0427194 -0.00618746 0)
(0.0440952 -0.00619369 0)
(0.0454724 -0.00619981 0)
(0.0468511 -0.00620581 0)
(0.0482311 -0.00621165 0)
(0.0496124 -0.00621729 0)
(0.050995 -0.0062227 0)
(0.0523788 -0.00622785 0)
(0.0537639 -0.0062327 0)
(0.05515 -0.00623722 0)
(0.0565371 -0.00624136 0)
(0.0579252 -0.00624509 0)
(0.0593141 -0.00624837 0)
(0.0607038 -0.00625115 0)
(0.0620941 -0.00625338 0)
(0.0634848 -0.00625504 0)
(0.064876 -0.00625606 0)
(0.0662674 -0.0062564 0)
(0.0676589 -0.00625601 0)
(0.0690503 -0.00625484 0)
(0.0704414 -0.00625285 0)
(0.071832 -0.00624997 0)
(0.073222 -0.00624615 0)
(0.0746111 -0.00624135 0)
(0.0759992 -0.00623549 0)
(0.0773859 -0.00622853 0)
(0.078771 -0.0062204 0)
(0.0801542 -0.00621106 0)
(0.0815354 -0.00620042 0)
(0.0829141 -0.00618845 0)
(0.0842901 -0.00617506 0)
(0.0856631 -0.00616021 0)
(0.0870327 -0.00614382 0)
(0.0883986 -0.00612584 0)
(0.0897604 -0.0061062 0)
(0.0911178 -0.00608483 0)
(0.0924703 -0.00606167 0)
(0.0938176 -0.00603665 0)
(0.0951592 -0.00600972 0)
(0.0964946 -0.0059808 0)
(0.0978236 -0.00594983 0)
(0.0991455 -0.00591675 0)
(0.10046 -0.00588149 0)
(0.101766 -0.005844 0)
(0.103064 -0.00580421 0)
(0.104353 -0.00576206 0)
(0.105633 -0.00571749 0)
(0.106902 -0.00567045 0)
(0.108161 -0.00562088 0)
(0.109408 -0.00556873 0)
(0.110644 -0.00551395 0)
(0.111867 -0.00545648 0)
(0.113077 -0.00539629 0)
(0.114274 -0.00533333 0)
(0.115456 -0.00526755 0)
(0.116624 -0.00519894 0)
(0.117776 -0.00512744 0)
(0.118911 -0.00505303 0)
(0.12003 -0.00497568 0)
(0.121132 -0.00489538 0)
(0.122215 -0.00481211 0)
(0.12328 -0.00472585 0)
(0.124325 -0.00463659 0)
(0.12535 -0.00454434 0)
(0.126354 -0.00444909 0)
(0.127336 -0.00435085 0)
(0.128297 -0.00424964 0)
(0.129234 -0.00414546 0)
(0.130148 -0.00403836 0)
(0.131038 -0.00392834 0)
(0.131903 -0.00381545 0)
(0.132742 -0.00369974 0)
(0.133556 -0.00358123 0)
(0.134342 -0.00346 0)
(0.135102 -0.00333609 0)
(0.135833 -0.00320957 0)
(0.136536 -0.00308051 0)
(0.13721 -0.00294899 0)
(0.137854 -0.00281508 0)
(0.138468 -0.00267888 0)
(0.139051 -0.00254047 0)
(0.139603 -0.00239995 0)
(0.140124 -0.00225743 0)
(0.140613 -0.00211301 0)
(0.141069 -0.0019668 0)
(0.141492 -0.00181893 0)
(0.141882 -0.0016695 0)
(0.142238 -0.00151866 0)
(0.142561 -0.00136651 0)
(0.142849 -0.0012132 0)
(0.143103 -0.00105886 0)
(0.143322 -0.000903622 0)
(0.143507 -0.00074763 0)
(0.143657 -0.000591022 0)
(0.143771 -0.00043394 0)
(0.143851 -0.000276527 0)
(0.143895 -0.000118928 0)
(0.143904 3.87147e-05 0)