/*--------------------------------*- C++ -*----------------------------------*\
| =========                 |                                                 |
| \\      /  F ield         | OpenFOAM: The Open Source CFD Toolbox           |
|  \\    /   O peration     | Version:  v2012                                 |
|   \\  /    A nd           | Website:  www.openfoam.com                      |
|    \\/     M anipulation  |                                                 |
\*---------------------------------------------------------------------------*/
FoamFile
{
    version     2.0;
    format      ascii;
    class       volScalarField;
    location    "17";
    object      W;
}
// * * * * * * * * * * * * * * * * * * * * * * * * * * * * * * * * * * * * * //

dimensions      [0 0 -1 0 0 0 0];


internalField   nonuniform List<scalar> 
65536
(
1.84823e-15
5.5647e-15
9.34181e-15
1.32214e-14
1.72463e-14
2.14612e-14
2.59123e-14
3.06482e-14
3.57203e-14
4.11834e-14
4.7096e-14
5.35208e-14
6.05257e-14
6.81837e-14
7.65744e-14
8.57837e-14
9.59053e-14
1.07041e-13
1.19303e-13
1.3281e-13
1.47696e-13
1.64104e-13
1.82191e-13
2.02127e-13
2.24098e-13
2.48308e-13
2.74976e-13
3.04342e-13
3.36665e-13
3.72229e-13
4.1134e-13
4.5433e-13
5.01558e-13
5.53413e-13
6.10314e-13
6.72715e-13
7.41104e-13
8.16005e-13
8.97983e-13
9.87645e-13
1.08564e-12
1.19266e-12
1.30946e-12
1.43682e-12
1.57559e-12
1.72666e-12
1.891e-12
2.06961e-12
2.26355e-12
2.47396e-12
2.70203e-12
2.94899e-12
3.21616e-12
3.5049e-12
3.81664e-12
4.15286e-12
4.51509e-12
4.90492e-12
5.32399e-12
5.77397e-12
6.25658e-12
6.77356e-12
7.32669e-12
7.91774e-12
8.54852e-12
9.22079e-12
9.93633e-12
1.06969e-11
1.15041e-11
1.23596e-11
1.3265e-11
1.42218e-11
1.52311e-11
1.62943e-11
1.74124e-11
1.85863e-11
1.98165e-11
2.11036e-11
2.24478e-11
2.38489e-11
2.53066e-11
2.68201e-11
2.83886e-11
3.00104e-11
3.1684e-11
3.34072e-11
3.51773e-11
3.69915e-11
3.88463e-11
4.07378e-11
4.26618e-11
4.46136e-11
4.65881e-11
4.85796e-11
5.05824e-11
5.25899e-11
5.45957e-11
5.65927e-11
5.85736e-11
6.0531e-11
6.24571e-11
6.43441e-11
6.6184e-11
6.7969e-11
6.96909e-11
7.13422e-11
7.29149e-11
7.44017e-11
7.57953e-11
7.7089e-11
7.82763e-11
7.93513e-11
8.03085e-11
8.11432e-11
8.18511e-11
8.24288e-11
8.28733e-11
8.31827e-11
8.33557e-11
8.33915e-11
8.32906e-11
8.30539e-11
8.26832e-11
8.21809e-11
8.15503e-11
8.07952e-11
7.99203e-11
7.89305e-11
7.78316e-11
7.66297e-11
7.53314e-11
7.39434e-11
7.2473e-11
7.09275e-11
6.93146e-11
6.76417e-11
6.59166e-11
6.41468e-11
6.23397e-11
6.05027e-11
5.86429e-11
5.67671e-11
5.48818e-11
5.29934e-11
5.11075e-11
4.92297e-11
4.73651e-11
4.55182e-11
4.36934e-11
4.18945e-11
4.01249e-11
3.83875e-11
3.6685e-11
3.50196e-11
3.33932e-11
3.18073e-11
3.02631e-11
2.87616e-11
2.73034e-11
2.5889e-11
2.45186e-11
2.31922e-11
2.19097e-11
2.06709e-11
1.94754e-11
1.83228e-11
1.72126e-11
1.61442e-11
1.51171e-11
1.41307e-11
1.31843e-11
1.22775e-11
1.14097e-11
1.05803e-11
9.78876e-12
9.03467e-12
8.3175e-12
7.6368e-12
6.9921e-12
6.38293e-12
5.80883e-12
5.2693e-12
4.76379e-12
4.29175e-12
3.85253e-12
3.44544e-12
3.06972e-12
2.72452e-12
2.40892e-12
2.1219e-12
1.86236e-12
1.62911e-12
1.4209e-12
1.23639e-12
1.07418e-12
9.32794e-13
8.10746e-13
7.06492e-13
6.18478e-13
5.45137e-13
4.8491e-13
4.36257e-13
3.9767e-13
3.67686e-13
3.449e-13
3.27977e-13
3.15666e-13
3.06808e-13
3.00351e-13
2.95355e-13
2.91002e-13
2.86602e-13
2.81597e-13
2.7556e-13
2.68195e-13
2.59328e-13
2.48902e-13
2.36962e-13
2.23643e-13
2.09149e-13
1.93741e-13
1.77712e-13
1.61374e-13
1.45035e-13
1.2899e-13
1.13503e-13
9.88026e-14
8.50703e-14
7.24409e-14
6.10009e-14
5.07912e-14
4.18117e-14
3.40268e-14
2.73728e-14
2.17647e-14
1.71034e-14
1.32823e-14
1.01927e-14
7.72846e-15
5.78964e-15
4.28479e-15
3.13252e-15
2.2621e-15
1.61342e-15
1.13649e-15
7.90559e-16
5.43013e-16
3.68249e-16
2.46512e-16
1.62822e-16
1.05998e-16
6.78216e-17
4.23176e-17
2.51668e-17
1.32216e-17
4.10807e-18
6.33874e-15
1.90851e-14
3.20405e-14
4.53489e-14
5.91584e-14
7.36221e-14
8.88996e-14
1.05159e-13
1.22576e-13
1.41341e-13
1.61656e-13
1.83737e-13
2.07817e-13
2.34151e-13
2.63012e-13
2.94697e-13
3.29531e-13
3.67866e-13
4.10087e-13
4.56611e-13
5.07897e-13
5.64441e-13
6.26786e-13
6.95525e-13
7.71301e-13
8.54816e-13
9.46836e-13
1.04819e-12
1.15978e-12
1.28259e-12
1.41768e-12
1.5662e-12
1.7294e-12
1.90863e-12
2.10535e-12
2.32113e-12
2.55767e-12
2.81679e-12
3.10046e-12
3.41077e-12
3.75e-12
4.12055e-12
4.525e-12
4.96612e-12
5.44684e-12
5.97027e-12
6.53974e-12
7.15874e-12
7.831e-12
8.56042e-12
9.35112e-12
1.02074e-11
1.11339e-11
1.21352e-11
1.32163e-11
1.43824e-11
1.56387e-11
1.69908e-11
1.84443e-11
2.00049e-11
2.16786e-11
2.34714e-11
2.53894e-11
2.74386e-11
2.96253e-11
3.19554e-11
3.4435e-11
3.707e-11
3.98661e-11
4.28286e-11
4.59629e-11
4.92737e-11
5.27654e-11
5.64418e-11
6.03062e-11
6.43614e-11
6.86091e-11
7.30506e-11
7.76859e-11
8.25145e-11
8.75343e-11
9.27426e-11
9.81351e-11
1.03706e-10
1.0945e-10
1.15357e-10
1.21419e-10
1.27624e-10
1.3396e-10
1.40413e-10
1.46968e-10
1.53607e-10
1.60312e-10
1.67063e-10
1.73839e-10
1.80617e-10
1.87375e-10
1.94087e-10
2.00728e-10
2.07271e-10
2.13691e-10
2.1996e-10
2.2605e-10
2.31934e-10
2.37586e-10
2.42978e-10
2.48084e-10
2.5288e-10
2.57342e-10
2.61447e-10
2.65175e-10
2.68506e-10
2.71423e-10
2.73911e-10
2.75957e-10
2.77551e-10
2.78686e-10
2.79356e-10
2.79559e-10
2.79295e-10
2.78567e-10
2.7738e-10
2.75743e-10
2.73666e-10
2.71162e-10
2.68246e-10
2.64937e-10
2.61252e-10
2.57213e-10
2.52843e-10
2.48164e-10
2.43202e-10
2.37982e-10
2.3253e-10
2.26872e-10
2.21035e-10
2.15044e-10
2.08926e-10
2.02706e-10
1.96409e-10
1.90059e-10
1.83677e-10
1.77286e-10
1.70906e-10
1.64556e-10
1.58254e-10
1.52015e-10
1.45855e-10
1.39786e-10
1.33821e-10
1.2797e-10
1.22242e-10
1.16644e-10
1.11182e-10
1.05863e-10
1.0069e-10
9.56653e-11
9.07919e-11
8.60709e-11
8.15025e-11
7.70868e-11
7.28228e-11
6.87095e-11
6.4745e-11
6.09276e-11
5.72549e-11
5.37247e-11
5.03344e-11
4.70815e-11
4.39635e-11
4.09778e-11
3.8122e-11
3.53938e-11
3.27907e-11
3.03107e-11
2.79517e-11
2.57115e-11
2.35884e-11
2.15804e-11
1.96855e-11
1.79021e-11
1.6228e-11
1.46614e-11
1.32e-11
1.18417e-11
1.05841e-11
9.4244e-12
8.35989e-12
7.38747e-12
6.5038e-12
5.70534e-12
4.98828e-12
4.3486e-12
3.78206e-12
3.28426e-12
2.85061e-12
2.47642e-12
2.15692e-12
1.88728e-12
1.66264e-12
1.4782e-12
1.32922e-12
1.21106e-12
1.11921e-12
1.04939e-12
9.97496e-13
9.59703e-13
9.32473e-13
9.1259e-13
8.97188e-13
8.83774e-13
8.70247e-13
8.54906e-13
8.36453e-13
8.13984e-13
7.86974e-13
7.55245e-13
7.18937e-13
6.78455e-13
6.34424e-13
5.87631e-13
5.38966e-13
4.89371e-13
4.39786e-13
3.91101e-13
3.44118e-13
2.99527e-13
2.57878e-13
2.19578e-13
1.84889e-13
1.53935e-13
1.26712e-13
1.03114e-13
8.29446e-14
6.59473e-14
5.18208e-14
4.02413e-14
3.08792e-14
2.34126e-14
1.75384e-14
1.29792e-14
9.48847e-15
6.85166e-15
4.88669e-15
3.44207e-15
2.39427e-15
1.64451e-15
1.11521e-15
7.46518e-16
4.93063e-16
3.2098e-16
2.05371e-16
1.2814e-16
7.62056e-17
4.00349e-17
1.24395e-17
1.34938e-14
4.06293e-14
6.82134e-14
9.6555e-14
1.25972e-13
1.56792e-13
1.89358e-13
2.24031e-13
2.61191e-13
3.01244e-13
3.44625e-13
3.91799e-13
4.43271e-13
4.99586e-13
5.61335e-13
6.2916e-13
7.0376e-13
7.85897e-13
8.764e-13
9.76176e-13
1.08621e-12
1.20759e-12
1.34147e-12
1.48916e-12
1.65203e-12
1.83162e-12
2.02958e-12
2.24772e-12
2.48799e-12
2.75253e-12
3.04364e-12
3.36384e-12
3.71582e-12
4.10254e-12
4.52716e-12
4.9931e-12
5.50406e-12
6.06401e-12
6.67722e-12
7.34829e-12
8.08212e-12
8.88399e-12
9.75952e-12
1.07147e-11
1.1756e-11
1.28901e-11
1.41242e-11
1.54661e-11
1.69238e-11
1.85057e-11
2.02209e-11
2.20788e-11
2.40891e-11
2.62622e-11
2.86088e-11
3.114e-11
3.38672e-11
3.68024e-11
3.99577e-11
4.33455e-11
4.69786e-11
5.08698e-11
5.50321e-11
5.94785e-11
6.42221e-11
6.92756e-11
7.46518e-11
8.03628e-11
8.64206e-11
9.28363e-11
9.96205e-11
1.06783e-10
1.14332e-10
1.22275e-10
1.30618e-10
1.39366e-10
1.48521e-10
1.58084e-10
1.68055e-10
1.7843e-10
1.89203e-10
2.00366e-10
2.11907e-10
2.23813e-10
2.36068e-10
2.4865e-10
2.61538e-10
2.74704e-10
2.88119e-10
3.01751e-10
3.15563e-10
3.29516e-10
3.43567e-10
3.57673e-10
3.71784e-10
3.85851e-10
3.9982e-10
4.13638e-10
4.27247e-10
4.40592e-10
4.53612e-10
4.66251e-10
4.78449e-10
4.90147e-10
5.0129e-10
5.11822e-10
5.21688e-10
5.30839e-10
5.39226e-10
5.46805e-10
5.53536e-10
5.59382e-10
5.64312e-10
5.68299e-10
5.71324e-10
5.73369e-10
5.74427e-10
5.74492e-10
5.73567e-10
5.7166e-10
5.68785e-10
5.6496e-10
5.60211e-10
5.54567e-10
5.48063e-10
5.40739e-10
5.32636e-10
5.23802e-10
5.14286e-10
5.04141e-10
4.93421e-10
4.82182e-10
4.70481e-10
4.58374e-10
4.4592e-10
4.33175e-10
4.20194e-10
4.07033e-10
3.93744e-10
3.80378e-10
3.66983e-10
3.53603e-10
3.40283e-10
3.27062e-10
3.13975e-10
3.01057e-10
2.88338e-10
2.75843e-10
2.63597e-10
2.5162e-10
2.39929e-10
2.28539e-10
2.17462e-10
2.06706e-10
1.96278e-10
1.86182e-10
1.76422e-10
1.66996e-10
1.57906e-10
1.49147e-10
1.40718e-10
1.32612e-10
1.24824e-10
1.17349e-10
1.1018e-10
1.03309e-10
9.67302e-11
9.04357e-11
8.44184e-11
7.86711e-11
7.31868e-11
6.79589e-11
6.29807e-11
5.8246e-11
5.3749e-11
4.9484e-11
4.54455e-11
4.16285e-11
3.80279e-11
3.4639e-11
3.14569e-11
2.8477e-11
2.56945e-11
2.31045e-11
2.07019e-11
1.84816e-11
1.64381e-11
1.45654e-11
1.28575e-11
1.13078e-11
9.90963e-12
8.65565e-12
7.53839e-12
6.55004e-12
5.68253e-12
4.92755e-12
4.27667e-12
3.72134e-12
3.25296e-12
2.86296e-12
2.54286e-12
2.28433e-12
2.07926e-12
1.91981e-12
1.79848e-12
1.70819e-12
1.64229e-12
1.59469e-12
1.55983e-12
1.53276e-12
1.50921e-12
1.48556e-12
1.45889e-12
1.42698e-12
1.38827e-12
1.34187e-12
1.28747e-12
1.22531e-12
1.15608e-12
1.08084e-12
1.00093e-12
9.17876e-13
8.33271e-13
7.48716e-13
6.65725e-13
5.85663e-13
5.09695e-13
4.38759e-13
3.73544e-13
3.1449e-13
2.61803e-13
2.15478e-13
1.75327e-13
1.41017e-13
1.12107e-13
8.80829e-14
6.83937e-14
5.24768e-14
3.97842e-14
2.97996e-14
2.20513e-14
1.61193e-14
1.16389e-14
8.30039e-15
5.84619e-15
4.06629e-15
2.79277e-15
1.89377e-15
1.26762e-15
8.37203e-16
5.44988e-16
3.48682e-16
2.17551e-16
1.29375e-16
6.79666e-17
2.11183e-17
2.61085e-14
7.86147e-14
1.31997e-13
1.8686e-13
2.43823e-13
3.03528e-13
3.66646e-13
4.33879e-13
5.05976e-13
5.8373e-13
6.67992e-13
7.59679e-13
8.59779e-13
9.69363e-13
1.08959e-12
1.22173e-12
1.36715e-12
1.52736e-12
1.704e-12
1.89884e-12
2.11384e-12
2.35112e-12
2.61302e-12
2.90206e-12
3.22102e-12
3.57289e-12
3.96098e-12
4.38885e-12
4.86038e-12
5.37981e-12
5.95172e-12
6.58108e-12
7.27329e-12
8.03418e-12
8.87006e-12
9.78773e-12
1.07946e-11
1.18984e-11
1.31079e-11
1.4432e-11
1.58806e-11
1.74642e-11
1.9194e-11
2.10819e-11
2.31407e-11
2.53839e-11
2.78259e-11
3.04819e-11
3.3368e-11
3.6501e-11
3.98989e-11
4.35803e-11
4.75647e-11
5.18726e-11
5.65251e-11
6.15442e-11
6.69527e-11
7.2774e-11
7.9032e-11
8.57513e-11
9.29567e-11
1.00673e-10
1.08927e-10
1.17742e-10
1.27145e-10
1.37159e-10
1.47809e-10
1.59119e-10
1.7111e-10
1.83804e-10
1.97219e-10
2.11373e-10
2.26282e-10
2.41956e-10
2.58407e-10
2.75639e-10
2.93657e-10
3.12457e-10
3.32035e-10
3.5238e-10
3.73477e-10
3.95304e-10
4.17835e-10
4.41037e-10
4.64873e-10
4.89297e-10
5.14259e-10
5.397e-10
5.65557e-10
5.91759e-10
6.18229e-10
6.44884e-10
6.71637e-10
6.98391e-10
7.25049e-10
7.51507e-10
7.77657e-10
8.03389e-10
8.28588e-10
8.53142e-10
8.76933e-10
8.99847e-10
9.2177e-10
9.4259e-10
9.62198e-10
9.80489e-10
9.97365e-10
1.01273e-09
1.02651e-09
1.03861e-09
1.04897e-09
1.05753e-09
1.06424e-09
1.06907e-09
1.07198e-09
1.07297e-09
1.07202e-09
1.06916e-09
1.06439e-09
1.05776e-09
1.0493e-09
1.03907e-09
1.02713e-09
1.01356e-09
9.9844e-10
9.8186e-10
9.63916e-10
9.4471e-10
9.24351e-10
9.02949e-10
8.80617e-10
8.5747e-10
8.33624e-10
8.09192e-10
7.84287e-10
7.59021e-10
7.335e-10
7.07826e-10
6.821e-10
6.56412e-10
6.30851e-10
6.05497e-10
5.80425e-10
5.55703e-10
5.31393e-10
5.07548e-10
4.84217e-10
4.6144e-10
4.39254e-10
4.17686e-10
3.96759e-10
3.76491e-10
3.56895e-10
3.37978e-10
3.19744e-10
3.02192e-10
2.85318e-10
2.69116e-10
2.53576e-10
2.38686e-10
2.24433e-10
2.10801e-10
1.97774e-10
1.85336e-10
1.73468e-10
1.62153e-10
1.51373e-10
1.4111e-10
1.31346e-10
1.22064e-10
1.13249e-10
1.04883e-10
9.69527e-11
8.94424e-11
8.23387e-11
7.56287e-11
6.93e-11
6.33409e-11
5.77402e-11
5.24871e-11
4.75713e-11
4.29826e-11
3.87111e-11
3.47468e-11
3.10799e-11
2.77002e-11
2.45975e-11
2.17611e-11
1.91802e-11
1.68436e-11
1.47396e-11
1.28562e-11
1.11812e-11
9.70192e-12
8.40548e-12
7.2788e-12
6.30869e-12
5.48189e-12
4.78519e-12
4.20551e-12
3.72997e-12
3.34598e-12
3.04135e-12
2.80436e-12
2.62382e-12
2.48922e-12
2.39071e-12
2.31928e-12
2.26675e-12
2.22585e-12
2.19031e-12
2.15482e-12
2.11512e-12
2.06796e-12
2.01107e-12
1.94315e-12
1.86375e-12
1.7732e-12
1.67251e-12
1.56321e-12
1.44724e-12
1.3268e-12
1.2042e-12
1.08174e-12
9.61613e-13
8.45774e-13
7.35906e-13
6.33354e-13
5.39105e-13
4.53788e-13
3.77693e-13
3.10805e-13
2.52846e-13
2.03332e-13
1.6162e-13
1.26966e-13
9.85704e-14
7.56198e-14
5.73217e-14
4.29301e-14
3.17636e-14
2.32161e-14
1.67613e-14
1.19522e-14
8.41738e-15
5.85411e-15
4.02029e-15
2.72593e-15
1.82449e-15
1.2049e-15
7.84292e-16
5.01758e-16
3.13041e-16
1.86154e-16
9.77927e-17
3.03854e-17
4.87936e-14
1.46927e-13
2.46717e-13
3.49302e-13
4.55854e-13
5.67585e-13
6.85764e-13
8.11722e-13
9.46873e-13
1.09272e-12
1.25088e-12
1.42309e-12
1.61122e-12
1.81732e-12
2.04359e-12
2.29244e-12
2.56648e-12
2.86858e-12
3.20187e-12
3.56974e-12
3.97593e-12
4.42451e-12
4.91992e-12
5.46702e-12
6.07109e-12
6.73793e-12
7.47382e-12
8.28563e-12
9.18082e-12
1.01675e-11
1.12545e-11
1.24514e-11
1.37686e-11
1.52172e-11
1.68095e-11
1.85586e-11
2.04786e-11
2.25848e-11
2.48936e-11
2.74226e-11
3.01908e-11
3.32183e-11
3.65269e-11
4.01396e-11
4.4081e-11
4.83772e-11
5.30561e-11
5.81469e-11
6.36807e-11
6.96902e-11
7.62098e-11
8.32754e-11
9.09247e-11
9.9197e-11
1.08133e-10
1.17775e-10
1.28167e-10
1.39353e-10
1.5138e-10
1.64293e-10
1.78141e-10
1.92972e-10
2.08833e-10
2.25771e-10
2.43835e-10
2.63071e-10
2.83522e-10
3.05233e-10
3.28243e-10
3.5259e-10
3.78309e-10
4.05428e-10
4.33974e-10
4.63966e-10
4.95418e-10
5.28335e-10
5.62718e-10
5.98558e-10
6.35836e-10
6.74525e-10
7.14587e-10
7.55974e-10
7.98626e-10
8.42473e-10
8.87429e-10
9.334e-10
9.80277e-10
1.02794e-09
1.07625e-09
1.12507e-09
1.17424e-09
1.22359e-09
1.27293e-09
1.32209e-09
1.37086e-09
1.41903e-09
1.4664e-09
1.51275e-09
1.55785e-09
1.60148e-09
1.64343e-09
1.68348e-09
1.72141e-09
1.757e-09
1.79008e-09
1.82043e-09
1.84789e-09
1.8723e-09
1.89351e-09
1.91139e-09
1.92582e-09
1.93673e-09
1.94405e-09
1.94773e-09
1.94774e-09
1.9441e-09
1.93682e-09
1.92596e-09
1.91158e-09
1.89378e-09
1.87268e-09
1.84839e-09
1.82109e-09
1.79093e-09
1.75809e-09
1.72278e-09
1.68519e-09
1.64554e-09
1.60406e-09
1.56096e-09
1.51646e-09
1.47081e-09
1.42421e-09
1.37688e-09
1.32905e-09
1.28091e-09
1.23266e-09
1.18449e-09
1.13657e-09
1.08906e-09
1.04211e-09
9.9587e-10
9.50449e-10
9.05959e-10
8.62498e-10
8.20146e-10
7.78974e-10
7.39039e-10
7.00385e-10
6.63047e-10
6.27048e-10
5.924e-10
5.5911e-10
5.27174e-10
4.96581e-10
4.67314e-10
4.39351e-10
4.12665e-10
3.87226e-10
3.62998e-10
3.39947e-10
3.18032e-10
2.97215e-10
2.77455e-10
2.58712e-10
2.40945e-10
2.24114e-10
2.08181e-10
1.93108e-10
1.78857e-10
1.65395e-10
1.52687e-10
1.40701e-10
1.29408e-10
1.18779e-10
1.08787e-10
9.9407e-11
9.0614e-11
8.23859e-11
7.4701e-11
6.75386e-11
6.08789e-11
5.47029e-11
4.89917e-11
4.3727e-11
3.88906e-11
3.44645e-11
3.04304e-11
2.67701e-11
2.3465e-11
2.04966e-11
1.78458e-11
1.54935e-11
1.34204e-11
1.1607e-11
1.00339e-11
8.68144e-12
7.53041e-12
6.56165e-12
5.75634e-12
5.09613e-12
4.5632e-12
4.14035e-12
3.81117e-12
3.56008e-12
3.37243e-12
3.23466e-12
3.1343e-12
3.06014e-12
3.00221e-12
2.95194e-12
2.90209e-12
2.84687e-12
2.78184e-12
2.70395e-12
2.61141e-12
2.50361e-12
2.381e-12
2.24492e-12
2.09744e-12
1.94116e-12
1.77901e-12
1.6141e-12
1.4495e-12
1.28814e-12
1.13263e-12
9.85223e-13
8.47696e-13
7.21361e-13
6.07046e-13
5.05128e-13
4.15573e-13
3.38e-13
2.71751e-13
2.15958e-13
1.69619e-13
1.31658e-13
1.00985e-13
7.65352e-14
5.731e-14
4.23963e-14
3.09827e-14
2.23652e-14
1.5946e-14
1.12286e-14
7.80826e-15
5.36168e-15
3.63504e-15
2.43272e-15
1.60642e-15
1.04556e-15
6.68855e-16
4.17263e-16
2.48118e-16
1.30339e-16
4.04972e-17
8.93321e-14
2.69008e-13
4.51751e-13
6.39668e-13
8.3493e-13
1.03978e-12
1.25658e-12
1.48778e-12
1.73602e-12
2.00409e-12
2.29498e-12
2.61194e-12
2.95846e-12
3.33833e-12
3.75567e-12
4.21497e-12
4.72113e-12
5.2795e-12
5.89591e-12
6.57676e-12
7.32903e-12
8.16034e-12
9.07904e-12
1.00942e-11
1.12159e-11
1.24549e-11
1.3823e-11
1.53333e-11
1.69997e-11
1.88375e-11
2.08635e-11
2.30956e-11
2.55535e-11
2.82584e-11
3.12332e-11
3.45028e-11
3.8094e-11
4.20356e-11
4.63588e-11
5.1097e-11
5.62859e-11
6.1964e-11
6.81723e-11
7.49546e-11
8.23575e-11
9.04308e-11
9.92269e-11
1.08802e-10
1.19214e-10
1.30525e-10
1.42801e-10
1.5611e-10
1.70524e-10
1.86115e-10
2.02962e-10
2.21145e-10
2.40746e-10
2.61849e-10
2.8454e-10
3.08908e-10
3.35042e-10
3.6303e-10
3.92962e-10
4.24928e-10
4.59013e-10
4.95304e-10
5.33881e-10
5.74824e-10
6.18204e-10
6.64089e-10
7.12537e-10
7.636e-10
8.17319e-10
8.73722e-10
9.32828e-10
9.94641e-10
1.05915e-09
1.12632e-09
1.19612e-09
1.26847e-09
1.3433e-09
1.42049e-09
1.49991e-09
1.58143e-09
1.66486e-09
1.75e-09
1.83663e-09
1.92451e-09
2.01336e-09
2.10289e-09
2.1928e-09
2.28273e-09
2.37234e-09
2.46125e-09
2.54908e-09
2.63543e-09
2.71988e-09
2.80203e-09
2.88145e-09
2.95772e-09
3.03043e-09
3.09918e-09
3.16356e-09
3.2232e-09
3.27774e-09
3.32685e-09
3.37021e-09
3.40756e-09
3.43865e-09
3.46328e-09
3.48129e-09
3.49254e-09
3.49697e-09
3.49454e-09
3.48526e-09
3.46919e-09
3.44643e-09
3.41712e-09
3.38146e-09
3.33967e-09
3.29202e-09
3.23881e-09
3.18037e-09
3.11705e-09
3.04926e-09
2.97737e-09
2.90182e-09
2.82303e-09
2.74143e-09
2.65746e-09
2.57155e-09
2.48414e-09
2.39564e-09
2.30645e-09
2.21697e-09
2.12757e-09
2.03858e-09
1.95034e-09
1.86315e-09
1.77729e-09
1.69299e-09
1.61049e-09
1.52997e-09
1.4516e-09
1.37553e-09
1.30186e-09
1.23069e-09
1.16209e-09
1.09611e-09
1.03277e-09
9.72077e-10
9.14028e-10
8.586e-10
8.05756e-10
7.55449e-10
7.07622e-10
6.62211e-10
6.19143e-10
5.78341e-10
5.39724e-10
5.03208e-10
4.68708e-10
4.36138e-10
4.05411e-10
3.76443e-10
3.4915e-10
3.23451e-10
2.99268e-10
2.76524e-10
2.55147e-10
2.35068e-10
2.16221e-10
1.98546e-10
1.81982e-10
1.66475e-10
1.51973e-10
1.38429e-10
1.25795e-10
1.1403e-10
1.03093e-10
9.29458e-11
8.35518e-11
7.48765e-11
6.68866e-11
5.955e-11
5.28354e-11
4.67122e-11
4.11503e-11
3.61201e-11
3.15921e-11
2.7537e-11
2.39258e-11
2.07295e-11
1.79194e-11
1.54667e-11
1.33433e-11
1.15212e-11
9.973e-12
8.67171e-12
7.59118e-12
6.70603e-12
5.9918e-12
5.42506e-12
4.98354e-12
4.64625e-12
4.39357e-12
4.20736e-12
4.07106e-12
3.96981e-12
3.89045e-12
3.82169e-12
3.75403e-12
3.67987e-12
3.59343e-12
3.4907e-12
3.36934e-12
3.22857e-12
3.06896e-12
2.89222e-12
2.70102e-12
2.49871e-12
2.28906e-12
2.07605e-12
1.86364e-12
1.65557e-12
1.4552e-12
1.26538e-12
1.08839e-12
9.25889e-13
7.78924e-13
6.47957e-13
5.32928e-13
4.33331e-13
3.48304e-13
2.76723e-13
2.17292e-13
1.68623e-13
1.29308e-13
9.79804e-14
7.33532e-14
5.42539e-14
3.96408e-14
2.861e-14
2.0395e-14
1.43591e-14
9.9837e-15
6.85451e-15
4.64652e-15
3.10926e-15
2.05294e-15
1.33604e-15
8.54596e-16
5.33093e-16
3.16973e-16
1.66501e-16
5.17319e-17
1.60798e-13
4.84238e-13
8.13261e-13
1.15171e-12
1.50353e-12
1.87282e-12
2.26387e-12
2.68117e-12
3.12951e-12
3.61401e-12
4.14016e-12
4.71386e-12
5.34153e-12
6.03011e-12
6.78717e-12
7.62095e-12
8.54045e-12
9.55552e-12
1.06769e-11
1.19164e-11
1.32868e-11
1.48022e-11
1.64781e-11
1.83313e-11
2.03802e-11
2.26449e-11
2.51473e-11
2.79115e-11
3.09634e-11
3.43315e-11
3.80467e-11
4.21425e-11
4.66555e-11
5.1625e-11
5.70938e-11
6.31082e-11
6.97182e-11
7.69775e-11
8.49441e-11
9.36804e-11
1.03253e-10
1.13734e-10
1.252e-10
1.37733e-10
1.5142e-10
1.66353e-10
1.82631e-10
2.00359e-10
2.19645e-10
2.40607e-10
2.63366e-10
2.88049e-10
3.1479e-10
3.43727e-10
3.75005e-10
4.08773e-10
4.45183e-10
4.84393e-10
5.26563e-10
5.71857e-10
6.2044e-10
6.72476e-10
7.2813e-10
7.87565e-10
8.50942e-10
9.18414e-10
9.90131e-10
1.06623e-09
1.14685e-09
1.23209e-09
1.32207e-09
1.41687e-09
1.51655e-09
1.62116e-09
1.73072e-09
1.84521e-09
1.96461e-09
2.08883e-09
2.21778e-09
2.35132e-09
2.48926e-09
2.63138e-09
2.77742e-09
2.92706e-09
3.07996e-09
3.23572e-09
3.39389e-09
3.55398e-09
3.71546e-09
3.87776e-09
4.04026e-09
4.2023e-09
4.36321e-09
4.52226e-09
4.67871e-09
4.8318e-09
4.98075e-09
5.12479e-09
5.26311e-09
5.39496e-09
5.51956e-09
5.63617e-09
5.74407e-09
5.84259e-09
5.9311e-09
6.009e-09
6.07579e-09
6.131e-09
6.17425e-09
6.20522e-09
6.22368e-09
6.22948e-09
6.22257e-09
6.20297e-09
6.17078e-09
6.12621e-09
6.06954e-09
6.00112e-09
5.92141e-09
5.83092e-09
5.73022e-09
5.61995e-09
5.5008e-09
5.37351e-09
5.23885e-09
5.09762e-09
4.95064e-09
4.79874e-09
4.64274e-09
4.48348e-09
4.32177e-09
4.1584e-09
3.99413e-09
3.8297e-09
3.6658e-09
3.50307e-09
3.34213e-09
3.18352e-09
3.02775e-09
2.87527e-09
2.72648e-09
2.58171e-09
2.44127e-09
2.30539e-09
2.17426e-09
2.04804e-09
1.92683e-09
1.81068e-09
1.69962e-09
1.59364e-09
1.49271e-09
1.39675e-09
1.30567e-09
1.21936e-09
1.13769e-09
1.06052e-09
9.87694e-10
9.19046e-10
8.54408e-10
7.93606e-10
7.36465e-10
6.82809e-10
6.32465e-10
5.85261e-10
5.41032e-10
4.99613e-10
4.60851e-10
4.24593e-10
3.90699e-10
3.5903e-10
3.29459e-10
3.01865e-10
2.76133e-10
2.52155e-10
2.29832e-10
2.09069e-10
1.8978e-10
1.71881e-10
1.55297e-10
1.39957e-10
1.25791e-10
1.12739e-10
1.00739e-10
8.97349e-11
7.96727e-11
7.05005e-11
6.21683e-11
5.46278e-11
4.7832e-11
4.17352e-11
3.62926e-11
3.14602e-11
2.71952e-11
2.34553e-11
2.01992e-11
1.73866e-11
1.4978e-11
1.29351e-11
1.12207e-11
9.79894e-12
8.63529e-12
7.69677e-12
6.95203e-12
6.37143e-12
5.92722e-12
5.59357e-12
5.34676e-12
5.16521e-12
5.02961e-12
4.92299e-12
4.83076e-12
4.74074e-12
4.64317e-12
4.53066e-12
4.39809e-12
4.24249e-12
4.06283e-12
3.85981e-12
3.6356e-12
3.39355e-12
3.13785e-12
2.87323e-12
2.6047e-12
2.3372e-12
2.0754e-12
1.82348e-12
1.585e-12
1.36279e-12
1.1589e-12
9.7461e-13
8.10466e-13
6.66369e-13
5.41663e-13
4.35247e-13
3.45698e-13
2.71377e-13
2.10537e-13
1.61409e-13
1.22273e-13
9.15184e-14
6.76741e-14
4.94357e-14
3.5672e-14
2.54243e-14
1.78967e-14
1.24412e-14
8.54038e-15
5.78846e-15
3.87285e-15
2.55677e-15
1.66373e-15
1.06409e-15
6.63713e-16
3.94608e-16
2.0727e-16
6.43971e-17
2.84853e-13
8.57865e-13
1.44089e-12
2.04081e-12
2.66471e-12
3.31993e-12
4.01417e-12
4.75551e-12
5.55256e-12
6.41453e-12
7.35128e-12
8.37348e-12
9.49268e-12
1.07214e-11
1.20734e-11
1.35635e-11
1.5208e-11
1.70248e-11
1.90333e-11
2.12549e-11
2.3713e-11
2.64331e-11
2.94433e-11
3.27743e-11
3.64596e-11
4.05359e-11
4.50431e-11
5.00251e-11
5.55294e-11
6.1608e-11
6.83175e-11
7.57193e-11
8.38801e-11
9.28723e-11
1.02774e-10
1.13671e-10
1.25655e-10
1.38823e-10
1.53284e-10
1.69151e-10
1.86548e-10
2.05606e-10
2.26468e-10
2.49283e-10
2.74212e-10
3.01427e-10
3.31108e-10
3.63448e-10
3.9865e-10
4.36927e-10
4.78505e-10
5.23617e-10
5.72511e-10
6.25442e-10
6.82676e-10
7.44486e-10
8.11155e-10
8.82972e-10
9.60233e-10
1.04324e-09
1.13228e-09
1.22768e-09
1.32972e-09
1.4387e-09
1.55492e-09
1.67865e-09
1.81016e-09
1.9497e-09
2.09749e-09
2.25375e-09
2.41865e-09
2.59233e-09
2.7749e-09
2.96641e-09
3.16688e-09
3.37627e-09
3.59448e-09
3.82136e-09
4.05668e-09
4.30014e-09
4.55138e-09
4.80995e-09
5.07532e-09
5.34687e-09
5.62391e-09
5.90567e-09
6.19127e-09
6.47977e-09
6.77013e-09
7.06126e-09
7.35197e-09
7.64102e-09
7.9271e-09
8.20887e-09
8.48491e-09
8.75381e-09
9.01411e-09
9.26437e-09
9.50314e-09
9.72899e-09
9.94054e-09
1.01364e-08
1.03154e-08
1.04763e-08
1.06179e-08
1.07393e-08
1.08397e-08
1.09182e-08
1.09742e-08
1.10074e-08
1.10174e-08
1.1004e-08
1.09674e-08
1.09076e-08
1.08251e-08
1.07204e-08
1.05941e-08
1.04471e-08
1.02802e-08
1.00947e-08
9.89165e-09
9.6724e-09
9.43832e-09
9.19088e-09
8.93156e-09
8.66192e-09
8.38352e-09
8.09792e-09
7.80667e-09
7.51132e-09
7.21333e-09
6.91414e-09
6.61513e-09
6.31757e-09
6.02269e-09
5.73159e-09
5.4453e-09
5.16474e-09
4.89073e-09
4.62398e-09
4.36513e-09
4.11466e-09
3.87302e-09
3.64052e-09
3.4174e-09
3.20382e-09
2.99985e-09
2.80551e-09
2.62073e-09
2.4454e-09
2.27936e-09
2.12241e-09
1.9743e-09
1.83477e-09
1.7035e-09
1.58018e-09
1.46449e-09
1.35609e-09
1.25462e-09
1.15974e-09
1.0711e-09
9.88374e-10
9.11216e-10
8.39305e-10
7.72328e-10
7.09986e-10
6.51989e-10
5.98065e-10
5.47954e-10
5.0141e-10
4.58204e-10
4.1812e-10
3.80954e-10
3.4652e-10
3.1464e-10
2.85152e-10
2.57904e-10
2.32755e-10
2.09573e-10
1.88237e-10
1.68633e-10
1.50654e-10
1.34202e-10
1.19184e-10
1.0551e-10
9.30974e-11
8.1867e-11
7.1743e-11
6.26525e-11
5.45257e-11
4.72952e-11
4.08959e-11
3.52648e-11
3.03409e-11
2.60653e-11
2.23809e-11
1.92327e-11
1.65676e-11
1.43348e-11
1.24857e-11
1.09738e-11
9.75503e-12
8.78794e-12
8.03351e-12
7.45543e-12
7.02013e-12
6.6969e-12
6.45798e-12
6.27862e-12
6.13715e-12
6.01499e-12
5.89672e-12
5.77e-12
5.62548e-12
5.45673e-12
5.25998e-12
5.03393e-12
4.77944e-12
4.49919e-12
4.19731e-12
3.87897e-12
3.55004e-12
3.21667e-12
2.88494e-12
2.56061e-12
2.24879e-12
1.95385e-12
1.67923e-12
1.42742e-12
1.19996e-12
9.97491e-13
8.19845e-13
6.66183e-13
5.35124e-13
4.24888e-13
3.33439e-13
2.58608e-13
1.98205e-13
1.50107e-13
1.12322e-13
8.30364e-14
6.06432e-14
4.37493e-14
3.11745e-14
2.19399e-14
1.5249e-14
1.04659e-14
7.09235e-15
4.7445e-15
3.13176e-15
2.03762e-15
1.30307e-15
8.12686e-16
4.83138e-16
2.53756e-16
7.88375e-17
4.968e-13
1.49624e-12
2.51336e-12
3.56031e-12
4.6496e-12
5.79422e-12
7.00774e-12
8.3045e-12
9.69972e-12
1.12097e-11
1.2852e-11
1.46455e-11
1.66107e-11
1.877e-11
2.11477e-11
2.37703e-11
2.6667e-11
2.98694e-11
3.34125e-11
3.73345e-11
4.1677e-11
4.64861e-11
5.18118e-11
5.77093e-11
6.42387e-11
7.14658e-11
7.94627e-11
8.8308e-11
9.80875e-11
1.08895e-10
1.20832e-10
1.3401e-10
1.48548e-10
1.64579e-10
1.82243e-10
2.01695e-10
2.231e-10
2.46638e-10
2.72501e-10
3.00898e-10
3.32052e-10
3.66202e-10
4.03605e-10
4.44536e-10
4.89285e-10
5.38164e-10
5.91503e-10
6.49652e-10
7.1298e-10
7.81876e-10
8.56749e-10
9.38027e-10
1.02616e-09
1.12161e-09
1.22486e-09
1.33642e-09
1.45678e-09
1.58649e-09
1.72608e-09
1.87608e-09
2.03705e-09
2.20953e-09
2.39407e-09
2.5912e-09
2.80145e-09
3.0253e-09
3.26325e-09
3.51572e-09
3.78313e-09
4.06583e-09
4.36412e-09
4.67823e-09
5.00833e-09
5.35451e-09
5.71675e-09
6.09494e-09
6.48887e-09
6.8982e-09
7.32248e-09
7.76111e-09
8.21337e-09
8.67837e-09
9.15508e-09
9.64234e-09
1.01388e-08
1.06429e-08
1.11532e-08
1.16676e-08
1.21844e-08
1.27014e-08
1.32164e-08
1.3727e-08
1.42309e-08
1.47255e-08
1.52083e-08
1.56765e-08
1.61275e-08
1.65588e-08
1.69676e-08
1.73513e-08
1.77075e-08
1.80339e-08
1.83281e-08
1.8588e-08
1.88118e-08
1.89978e-08
1.91445e-08
1.92508e-08
1.93158e-08
1.93387e-08
1.93194e-08
1.92577e-08
1.9154e-08
1.90088e-08
1.8823e-08
1.85979e-08
1.83349e-08
1.80357e-08
1.77023e-08
1.73369e-08
1.69419e-08
1.65198e-08
1.60733e-08
1.56052e-08
1.51183e-08
1.46156e-08
1.41e-08
1.35743e-08
1.30414e-08
1.25041e-08
1.1965e-08
1.14267e-08
1.08916e-08
1.03618e-08
9.83957e-09
9.32665e-09
8.82479e-09
8.33547e-09
7.86001e-09
7.39952e-09
6.95491e-09
6.52694e-09
6.11615e-09
5.72296e-09
5.34758e-09
4.99013e-09
4.65057e-09
4.32873e-09
4.02438e-09
3.73714e-09
3.46661e-09
3.21227e-09
2.97358e-09
2.74995e-09
2.54074e-09
2.34532e-09
2.16301e-09
1.99315e-09
1.83507e-09
1.68811e-09
1.55161e-09
1.42494e-09
1.3075e-09
1.19867e-09
1.09791e-09
1.00467e-09
9.18432e-10
8.38719e-10
7.65073e-10
6.97067e-10
6.34301e-10
5.76403e-10
5.23026e-10
4.73848e-10
4.28571e-10
3.8692e-10
3.48639e-10
3.13493e-10
2.81265e-10
2.51753e-10
2.24771e-10
2.00146e-10
1.77717e-10
1.57335e-10
1.3886e-10
1.22161e-10
1.07114e-10
9.36027e-11
8.15171e-11
7.07519e-11
6.12071e-11
5.27873e-11
4.54014e-11
3.89619e-11
3.33855e-11
2.85923e-11
2.4506e-11
2.10539e-11
1.81669e-11
1.57795e-11
1.38295e-11
1.22586e-11
1.10123e-11
1.00394e-11
9.2929e-12
8.72939e-12
8.30946e-12
7.99763e-12
7.76241e-12
7.57635e-12
7.41603e-12
7.26202e-12
7.09885e-12
6.91484e-12
6.70192e-12
6.45541e-12
6.17365e-12
5.85768e-12
5.51075e-12
5.13792e-12
4.74553e-12
4.34072e-12
3.93101e-12
3.52381e-12
3.1261e-12
2.7441e-12
2.38309e-12
2.04722e-12
1.73948e-12
1.46168e-12
1.21455e-12
9.97859e-13
8.10527e-13
6.50833e-13
5.1658e-13
4.05259e-13
3.14208e-13
2.40744e-13
1.82269e-13
1.36349e-13
1.00772e-13
7.35768e-14
5.30668e-14
3.78051e-14
2.66006e-14
1.84845e-14
1.26841e-14
8.59395e-15
5.74804e-15
3.79359e-15
2.46787e-15
1.57801e-15
9.84054e-16
5.84963e-16
3.07217e-16
9.54436e-17
8.53189e-13
2.56972e-12
4.31701e-12
6.11619e-12
7.98901e-12
9.95808e-12
1.20471e-11
1.42809e-11
1.66862e-11
1.92914e-11
2.21271e-11
2.52264e-11
2.86253e-11
3.23628e-11
3.64816e-11
4.10284e-11
4.60542e-11
5.1615e-11
5.77719e-11
6.45924e-11
7.21501e-11
8.05259e-11
8.98086e-11
1.00095e-10
1.11493e-10
1.24117e-10
1.38096e-10
1.53569e-10
1.70689e-10
1.89621e-10
2.10547e-10
2.33664e-10
2.59187e-10
2.87348e-10
3.18401e-10
3.52618e-10
3.90297e-10
4.31758e-10
4.77345e-10
5.27431e-10
5.82416e-10
6.42727e-10
7.08825e-10
7.81201e-10
8.60378e-10
9.46915e-10
1.0414e-09
1.14447e-09
1.25678e-09
1.37904e-09
1.51197e-09
1.65635e-09
1.81298e-09
1.9827e-09
2.16638e-09
2.36491e-09
2.57923e-09
2.81027e-09
3.05899e-09
3.32638e-09
3.61341e-09
3.92106e-09
4.2503e-09
4.6021e-09
4.97737e-09
5.37701e-09
5.80186e-09
6.2527e-09
6.73023e-09
7.23508e-09
7.76774e-09
8.32862e-09
8.91798e-09
9.53591e-09
1.01823e-08
1.0857e-08
1.15596e-08
1.22892e-08
1.30451e-08
1.38261e-08
1.46308e-08
1.54575e-08
1.63043e-08
1.71689e-08
1.80489e-08
1.89413e-08
1.98432e-08
2.07512e-08
2.16617e-08
2.25707e-08
2.34743e-08
2.4368e-08
2.52475e-08
2.6108e-08
2.6945e-08
2.77535e-08
2.85288e-08
2.92661e-08
2.99606e-08
3.06079e-08
3.12033e-08
3.17428e-08
3.22225e-08
3.26387e-08
3.29882e-08
3.32682e-08
3.34764e-08
3.36109e-08
3.36703e-08
3.36539e-08
3.35614e-08
3.33932e-08
3.31502e-08
3.28338e-08
3.24459e-08
3.19893e-08
3.14668e-08
3.0882e-08
3.02388e-08
2.95414e-08
2.87945e-08
2.8003e-08
2.71718e-08
2.63063e-08
2.54117e-08
2.44934e-08
2.35568e-08
2.26069e-08
2.1649e-08
2.06879e-08
1.97284e-08
1.87748e-08
1.78314e-08
1.69019e-08
1.59898e-08
1.50982e-08
1.42299e-08
1.33872e-08
1.25723e-08
1.17867e-08
1.10319e-08
1.03087e-08
9.61796e-09
8.95996e-09
8.33487e-09
7.74256e-09
7.18269e-09
6.65472e-09
6.15795e-09