/*--------------------------------*- C++ -*----------------------------------*\
| =========                 |                                                 |
| \\      /  F ield         | OpenFOAM: The Open Source CFD Toolbox           |
|  \\    /   O peration     | Version:  v2012                                 |
|   \\  /    A nd           | Website:  www.openfoam.com                      |
|    \\/     M anipulation  |                                                 |
\*---------------------------------------------------------------------------*/
FoamFile
{
    version     2.0;
    format      ascii;
    class       surfaceScalarField;
    location    "11";
    object      phi;
}
// * * * * * * * * * * * * * * * * * * * * * * * * * * * * * * * * * * * * * //

dimensions      [0 3 -1 0 0 0 0];
oriented        oriented;


internalField   nonuniform List<scalar> 
130560
(
3.63774e-06
-3.63774e-06
7.27559e-06
-3.63786e-06
1.09137e-05
-3.6381e-06
1.45522e-05
-3.63846e-06
1.81911e-05
-3.63893e-06
2.18306e-05
-3.63952e-06
2.54708e-05
-3.64022e-06
2.91118e-05
-3.64102e-06
3.27538e-05
-3.64192e-06
3.63967e-05
-3.64292e-06
4.00407e-05
-3.644e-06
4.36859e-05
-3.64517e-06
4.73323e-05
-3.6464e-06
5.098e-05
-3.6477e-06
5.4629e-05
-3.64905e-06
5.82795e-05
-3.65045e-06
6.19313e-05
-3.65188e-06
6.55847e-05
-3.65332e-06
6.92394e-05
-3.65477e-06
7.28957e-05
-3.65622e-06
7.65533e-05
-3.65764e-06
8.02123e-05
-3.65903e-06
8.38727e-05
-3.66037e-06
8.75343e-05
-3.66163e-06
9.11971e-05
-3.66281e-06
9.4861e-05
-3.66389e-06
9.85259e-05
-3.66484e-06
0.000102192
-3.66565e-06
0.000105858
-3.66629e-06
0.000109525
-3.66675e-06
0.000113192
-3.66701e-06
0.000116859
-3.66703e-06
0.000120525
-3.66679e-06
0.000124192
-3.66628e-06
0.000127857
-3.66547e-06
0.000131521
-3.66433e-06
0.000135184
-3.66283e-06
0.000138845
-3.66094e-06
0.000142504
-3.65865e-06
0.00014616
-3.65592e-06
0.000149813
-3.65271e-06
0.000153462
-3.64901e-06
0.000157106
-3.64478e-06
0.000160746
-3.64e-06
0.000164381
-3.63462e-06
0.00016801
-3.62862e-06
0.000171632
-3.62196e-06
0.000175246
-3.61462e-06
0.000178853
-3.60655e-06
0.00018245
-3.59774e-06
0.000186039
-3.58814e-06
0.000189616
-3.57772e-06
0.000193183
-3.56644e-06
0.000196737
-3.55428e-06
0.000200278
-3.5412e-06
0.000203805
-3.52717e-06
0.000207318
-3.51215e-06
0.000210814
-3.49612e-06
0.000214293
-3.47903e-06
0.000217754
-3.46086e-06
0.000221195
-3.44157e-06
0.000224616
-3.42114e-06
0.000228016
-3.39954e-06
0.000231393
-3.37673e-06
0.000234745
-3.35269e-06
0.000238073
-3.32738e-06
0.000241373
-3.30079e-06
0.000244646
-3.27289e-06
0.00024789
-3.24366e-06
0.000251103
-3.21307e-06
0.000254284
-3.1811e-06
0.000257432
-3.14773e-06
0.000260545
-3.11295e-06
0.000263621
-3.07673e-06
0.000266661
-3.03908e-06
0.000269661
-2.99996e-06
0.00027262
-2.95939e-06
0.000275537
-2.91733e-06
0.000278411
-2.8738e-06
0.00028124
-2.82879e-06
0.000284022
-2.78229e-06
0.000286756
-2.73431e-06
0.000289441
-2.68485e-06
0.000292075
-2.63392e-06
0.000294657
-2.58153e-06
0.000297184
-2.52769e-06
0.000299657
-2.47242e-06
0.000302073
-2.41572e-06
0.00030443
-2.35763e-06
0.000306728
-2.29816e-06
0.000308966
-2.23734e-06
0.000311141
-2.1752e-06
0.000313253
-2.11176e-06
0.0003153
-2.04707e-06
0.000317281
-1.98114e-06
0.000319195
-1.91403e-06
0.000321041
-1.84578e-06
0.000322817
-1.77642e-06
0.000324523
-1.706e-06
0.000326158
-1.63458e-06
0.00032772
-1.56219e-06
0.000329209
-1.48888e-06
0.000330623
-1.41473e-06
0.000331963
-1.33977e-06
0.000333227
-1.26406e-06
0.000334415
-1.18766e-06
0.000335526
-1.11064e-06
0.000336559
-1.03305e-06
0.000337514
-9.54956e-07
0.00033839
-8.76418e-07
0.000339188
-7.975e-07
0.000339906
-7.18266e-07
0.000340545
-6.38781e-07
0.000341104
-5.59111e-07
0.000341583
-4.79319e-07
0.000341983
-3.99471e-07
0.000342302
-3.19632e-07
0.000342542
-2.39865e-07
0.000342702
-1.60235e-07
0.000342783
-8.08057e-08
0.000342785
-1.63872e-09
0.000342707
7.7204e-08
0.000342552
1.55662e-07
0.000342318
2.33676e-07
0.000342007
3.11188e-07
0.000341619
3.88142e-07
0.000341154
4.64482e-07
0.000340614
5.40155e-07
0.000339999
6.15109e-07
0.00033931
6.89295e-07
0.000338547
7.62665e-07
0.000337712
8.35173e-07
0.000336805
9.06776e-07
0.000335828
9.7743e-07
0.000334781
1.0471e-06
0.000333665
1.11574e-06
0.000332482
1.18332e-06
0.000331232
1.24982e-06
0.000329917
1.31518e-06
0.000328537
1.3794e-06
0.000327095
1.44244e-06
0.00032559
1.50428e-06
0.000324026
1.5649e-06
0.000322401
1.62427e-06
0.000320719
1.68239e-06
0.00031898
1.73924e-06
0.000317185
1.79479e-06
0.000315336
1.84906e-06
0.000313434
1.90201e-06
0.00031148
1.95366e-06
0.000309476
2.00399e-06
0.000307423
2.053e-06
0.000305322
2.10069e-06
0.000303175
2.14707e-06
0.000300983
2.19213e-06
0.000298747
2.23588e-06
0.000296469
2.27833e-06
0.00029415
2.31948e-06
0.00029179
2.35934e-06
0.000289392
2.39793e-06
0.000286957
2.43525e-06
0.000284486
2.47132e-06
0.00028198
2.50615e-06
0.00027944
2.53976e-06
0.000276868
2.57216e-06
0.000274264
2.60337e-06
0.000271631
2.63342e-06
0.000268969
2.66231e-06
0.000266278
2.69006e-06
0.000263562
2.71671e-06
0.000260819
2.74226e-06
0.000258053
2.76674e-06
0.000255263
2.79018e-06
0.00025245
2.81259e-06
0.000249616
2.834e-06
0.000246762
2.85442e-06
0.000243888
2.87389e-06
0.000240995
2.89243e-06
0.000238085
2.91006e-06
0.000235158
2.92681e-06
0.000232216
2.94269e-06
0.000229258
2.95774e-06
0.000226286
2.97197e-06
0.000223301
2.98541e-06
0.000220302
2.99809e-06
0.000217292
3.01003e-06
0.000214271
3.02125e-06
0.000211239
3.03178e-06
0.000208198
3.04164e-06
0.000205147
3.05085e-06
0.000202087
3.05943e-06
0.00019902
3.06742e-06
0.000195945
3.07482e-06
0.000192864
3.08167e-06
0.000189776
3.08798e-06
0.000186682
3.09378e-06
0.000183583
3.09908e-06
0.000180479
3.10391e-06
0.000177371
3.10829e-06
0.000174258
3.11224e-06
0.000171143
3.11578e-06
0.000168024
3.11893e-06
0.000164902
3.1217e-06
0.000161778
3.12412e-06
0.000158652
3.1262e-06
0.000155524
3.12796e-06
0.000152394
3.12942e-06
0.000149264
3.13059e-06
0.000146132
3.1315e-06
0.000143
3.13215e-06
0.000139867
3.13257e-06
0.000136735
3.13276e-06
0.000133602
3.13275e-06
0.000130469
3.13255e-06
0.000127337
3.13216e-06
0.000124206
3.13162e-06
0.000121075
3.13092e-06
0.000117945
3.13009e-06
0.000114815
3.12912e-06
0.000111687
3.12805e-06
0.000108561
3.12687e-06
0.000105435
3.1256e-06
0.000102311
3.12425e-06
9.91878e-05
3.12284e-06
9.60664e-05
3.12136e-06
9.29466e-05
3.11983e-06
8.98283e-05
3.11827e-06
8.67117e-05
3.11667e-06
8.35966e-05
3.11505e-06
8.04832e-05
3.11342e-06
7.73714e-05
3.11178e-06
7.42613e-05
3.11014e-06
7.11528e-05
3.10851e-06
6.80459e-05
3.1069e-06
6.49406e-05
3.10532e-06
6.18368e-05
3.10376e-06
5.87346e-05
3.10223e-06
5.56338e-05
3.10075e-06
5.25345e-05
3.09932e-06
4.94366e-05
3.09794e-06
4.63399e-05
3.09661e-06
4.32446e-05
3.09534e-06
4.01505e-05
3.09415e-06
3.70574e-05
3.09302e-06
3.39655e-05
3.09196e-06
3.08745e-05
3.09098e-06
2.77844e-05
3.09008e-06
2.46952e-05
3.08926e-06
2.16066e-05
3.08852e-06
1.85188e-05
3.08788e-06
1.54314e-05
3.08732e-06
1.23446e-05
3.08685e-06
9.25812e-06
3.08648e-06
6.17192e-06
3.08619e-06
3.08591e-06
3.08601e-06
3.08591e-06
3.63762e-06
-7.27536e-06
7.27536e-06
-7.2756e-06
1.09133e-05
-7.27608e-06
1.45517e-05
-7.2768e-06
1.81905e-05
-7.27775e-06
2.18299e-05
-7.27893e-06
2.547e-05
-7.28033e-06
2.9111e-05
-7.28194e-06
3.27528e-05
-7.28376e-06
3.63956e-05
-7.28576e-06
4.00396e-05
-7.28793e-06
4.36846e-05
-7.29027e-06
4.7331e-05
-7.29275e-06
5.09786e-05
-7.29535e-06
5.46277e-05
-7.29807e-06
5.82781e-05
-7.30087e-06
6.19299e-05
-7.30373e-06
6.55832e-05
-7.30664e-06
6.9238e-05
-7.30955e-06
7.28943e-05
-7.31246e-06
7.6552e-05
-7.31532e-06
8.0211e-05
-7.31811e-06
8.38715e-05
-7.3208e-06
8.75332e-05
-7.32335e-06
9.11961e-05
-7.32573e-06
9.48601e-05
-7.3279e-06
9.85251e-05
-7.32983e-06
0.000102191
-7.33146e-06
0.000105857
-7.33277e-06
0.000109524
-7.33372e-06
0.000113192
-7.33424e-06
0.000116859
-7.33431e-06
0.000120526
-7.33387e-06
0.000124193
-7.33287e-06
0.000127858
-7.33127e-06
0.000131523
-7.32901e-06
0.000135186
-7.32603e-06
0.000138848
-7.3223e-06
0.000142507
-7.31774e-06
0.000146163
-7.3123e-06
0.000149816
-7.30593e-06
0.000153466
-7.29855e-06
0.000157111
-7.29013e-06
0.000160752
-7.28058e-06
0.000164387
-7.26986e-06
0.000168016
-7.25788e-06
0.000171639
-7.2446e-06
0.000175254
-7.22995e-06
0.000178862
-7.21386e-06
0.00018246
-7.19626e-06
0.000186049
-7.17709e-06
0.000189628
-7.15628e-06
0.000193195
-7.13377e-06
0.00019675
-7.10948e-06
0.000200292
-7.08336e-06
0.00020382
-7.05533e-06
0.000207334
-7.02532e-06
0.000210831
-6.99328e-06
0.000214311
-6.95914e-06
0.000217773
-6.92283e-06
0.000221216
-6.88429e-06
0.000224638
-6.84346e-06
0.000228039
-6.80028e-06
0.000231417
-6.75469e-06
0.000234771
-6.70663e-06
0.000238099
-6.65605e-06
0.000241401
-6.6029e-06
0.000244676
-6.54712e-06
0.000247921
-6.48867e-06
0.000251135
-6.42751e-06
0.000254317
-6.36359e-06
0.000257467
-6.29687e-06
0.000260581
-6.22732e-06
0.000263659
-6.15491e-06
0.0002667
-6.07961e-06
0.000269701
-6.00139e-06
0.000272662
-5.92024e-06
0.000275581
-5.83614e-06
0.000278456
-5.74908e-06
0.000281286
-5.65905e-06
0.00028407
-5.56605e-06
0.000286806
-5.47009e-06
0.000289492
-5.37117e-06
0.000292128
-5.2693e-06
0.000294711
-5.16451e-06
0.00029724
-5.05682e-06
0.000299714
-4.94625e-06
0.000302131
-4.83284e-06
0.00030449
-4.71664e-06
0.000306789
-4.59767e-06
0.000309028
-4.47601e-06
0.000311204
-4.35169e-06
0.000313317
-4.22478e-06
0.000315366
-4.09535e-06
0.000317348
-3.96347e-06
0.000319263
-3.82921e-06
0.00032111
-3.69266e-06
0.000322887
-3.5539e-06
0.000324594
-3.41302e-06
0.00032623
-3.27011e-06
0.000327793
-3.12528e-06
0.000329283
-2.97862e-06
0.000330698
-2.83025e-06
0.000332039
-2.68027e-06
0.000333304
-2.5288e-06
0.000334492
-2.37595e-06
0.000335603
-2.22185e-06
0.000336637
-2.06661e-06
0.000337592
-1.91035e-06
0.000338469
-1.75321e-06
0.000339267
-1.59531e-06
0.000339985
-1.43678e-06
0.000340624
-1.27775e-06
0.000341183
-1.11834e-06
0.000341663
-9.58692e-07
0.000342062
-7.98931e-07
0.000342382
-6.39188e-07
0.000342622
-4.79591e-07
0.000342782
-3.20268e-07
0.000342862
-1.61346e-07
0.000342863
-2.95102e-09
0.000342786
1.54795e-07
0.00034263
3.1177e-07
0.000342396
4.67856e-07
0.000342084
6.22937e-07
0.000341695
7.76899e-07
0.00034123
9.29632e-07
0.000340689
1.08103e-06
0.000340073
1.23099e-06
0.000339383
1.37941e-06
0.000338619
1.52619e-06
0.000337783
1.67125e-06
0.000336876
1.8145e-06
0.000335897
1.95585e-06
0.000334849
2.09522e-06
0.000333732
2.23254e-06
0.000332548
2.36774e-06
0.000331297
2.50076e-06
0.000329981
2.63152e-06
0.0003286
2.75998e-06
0.000327156
2.88609e-06
0.000325651
3.00979e-06
0.000324085
3.13104e-06
0.000322459
3.24981e-06
0.000320776
3.36606e-06
0.000319035
3.47976e-06
0.000317239
3.59088e-06
0.000315389
3.69942e-06
0.000313485
3.80534e-06
0.00031153
3.90863e-06
0.000309525
4.00929e-06
0.000307471
4.10732e-06
0.000305369
4.20271e-06
0.00030322
4.29545e-06
0.000301027
4.38557e-06
0.00029879
4.47307e-06
0.00029651
4.55795e-06
0.000294189
4.64025e-06
0.000291829
4.71996e-06
0.000289429
4.79712e-06
0.000286993
4.87175e-06
0.00028452
4.94388e-06
0.000282013
5.01352e-06
0.000279472
5.08073e-06
0.000276899
5.14551e-06
0.000274294
5.20792e-06
0.00027166
5.26798e-06
0.000268996
5.32574e-06
0.000266305
5.38124e-06
0.000263587
5.4345e-06
0.000260844
5.48559e-06
0.000258076
5.53453e-06
0.000255285
5.58138e-06
0.000252471
5.62618e-06
0.000249636
5.66897e-06
0.000246781
5.7098e-06
0.000243906
5.74872e-06
0.000241013
5.78577e-06
0.000238102
5.82101e-06
0.000235174
5.85447e-06
0.000232231
5.88622e-06
0.000229272
5.91628e-06
0.000226299
5.94473e-06
0.000223313
5.97159e-06
0.000220314
5.99693e-06
0.000217304
6.02078e-06
0.000214282
6.0432e-06
0.000211249
6.06423e-06
0.000208207
6.08392e-06
0.000205155
6.10232e-06
0.000202095
6.11947e-06
0.000199027
6.13541e-06
0.000195952
6.1502e-06
0.00019287
6.16387e-06
0.000189781
6.17647e-06
0.000186687
6.18804e-06
0.000183587
6.19863e-06
0.000180483
6.20828e-06
0.000177374
6.21702e-06
0.000174262
6.2249e-06
0.000171146
6.23196e-06
0.000168026
6.23823e-06
0.000164904
6.24375e-06
0.00016178
6.24857e-06
0.000158653
6.25271e-06
0.000155525
6.25622e-06
0.000152395
6.25912e-06
0.000149264
6.26145e-06
0.000146133
6.26324e-06
0.000143
6.26453e-06
0.000139867
6.26535e-06
0.000136735
6.26573e-06
0.000133602
6.26569e-06
0.000130469
6.26527e-06
0.000127337
6.26449e-06
0.000124205
6.26339e-06
0.000121074
6.26198e-06
0.000117943
6.26029e-06
0.000114814
6.25836e-06
0.000111686
6.2562e-06
0.000108559
6.25383e-06
0.000105433
6.25128e-06
0.000102309
6.24858e-06
9.91863e-05
6.24573e-06
9.60648e-05
6.24277e-06
9.2945e-05
6.2397e-06
8.98267e-05
6.23656e-06
8.671e-05
6.23336e-06
8.35949e-05
6.23011e-06
8.04815e-05
6.22684e-06
7.73697e-05
6.22355e-06
7.42596e-05
6.22027e-06
7.11511e-05
6.21701e-06
6.80442e-05
6.21378e-06
6.49389e-05
6.2106e-06
6.18352e-05
6.20748e-06
5.8733e-05
6.20443e-06
5.56323e-05
6.20146e-06
5.25331e-05
6.19858e-06
4.94352e-05
6.19581e-06
4.63386e-05
6.19316e-06
4.32434e-05
6.19062e-06
4.01493e-05
6.18822e-06
3.70564e-05
6.18596e-06
3.39645e-05
6.18384e-06
3.08736e-05
6.18187e-06
2.77836e-05
6.18007e-06
2.46944e-05
6.17843e-06
2.1606e-05
6.17696e-06
1.85182e-05
6.17566e-06
1.5431e-05
6.17455e-06
1.23442e-05
6.17361e-06
9.25783e-06
6.17286e-06
6.17173e-06
6.17229e-06
3.08582e-06
6.17192e-06
6.17173e-06
3.63738e-06
-1.09127e-05
7.27488e-06
-1.09131e-05
1.09126e-05
-1.09138e-05
1.45507e-05
-1.09149e-05
1.81893e-05
-1.09163e-05
2.18285e-05
-1.09181e-05
2.54684e-05
-1.09202e-05
2.91091e-05
-1.09227e-05
3.27508e-05
-1.09254e-05
3.63934e-05
-1.09284e-05
4.00372e-05
-1.09317e-05
4.36822e-05
-1.09352e-05
4.73284e-05
-1.0939e-05
5.09759e-05
-1.09429e-05
5.46248e-05
-1.0947e-05
5.82752e-05
-1.09512e-05
6.1927e-05
-1.09555e-05
6.55803e-05
-1.09599e-05
6.92351e-05
-1.09643e-05
7.28914e-05
-1.09687e-05
7.65491e-05
-1.09731e-05
8.02083e-05
-1.09773e-05
8.38689e-05
-1.09814e-05
8.75308e-05
-1.09852e-05
9.11939e-05
-1.09889e-05
9.48582e-05
-1.09922e-05
9.85235e-05
-1.09951e-05
0.00010219
-1.09976e-05
0.000105856
-1.09996e-05
0.000109524
-1.10011e-05
0.000113192
-1.10019e-05
0.000116859
-1.10021e-05
0.000120527
-1.10015e-05
0.000124194
-1.10001e-05
0.000127861
-1.09977e-05
0.000131526
-1.09944e-05
0.00013519
-1.099e-05
0.000138852
-1.09845e-05
0.000142512
-1.09777e-05
0.000146169
-1.09696e-05
0.000149824
-1.09601e-05
0.000153474
-1.09492e-05
0.000157121
-1.09366e-05
0.000160762
-1.09223e-05
0.000164399
-1.09063e-05
0.00016803
-1.08885e-05
0.000171654
-1.08686e-05
0.00017527
-1.08467e-05
0.000178879
-1.08227e-05
0.000182479
-1.07964e-05
0.00018607
-1.07677e-05
0.00018965
-1.07366e-05
0.000193219
-1.07029e-05
0.000196776
-1.06665e-05
0.00020032
-1.06274e-05
0.00020385
-1.05855e-05
0.000207366
-1.05405e-05
0.000210865
-1.04926e-05
0.000214347
-1.04414e-05
0.000217811
-1.0387e-05
0.000221256
-1.03293e-05
0.000224681
-1.02681e-05
0.000228084
-1.02034e-05
0.000231465
-1.01351e-05
0.000234821
-1.00631e-05
0.000238152
-9.98729e-06
0.000241457
-9.90763e-06
0.000244734
-9.82402e-06
0.000247982
-9.73641e-06
0.000251199
-9.64471e-06
0.000254384
-9.54888e-06
0.000257536
-9.44885e-06
0.000260653
-9.34456e-06
0.000263734
-9.23598e-06
0.000266778
-9.12306e-06
0.000269782
-9.00576e-06
0.000272746
-8.88405e-06
0.000275668
-8.75791e-06
0.000278546
-8.62733e-06
0.000281379
-8.49229e-06
0.000284166
-8.35279e-06
0.000286905
-8.20883e-06
0.000289594
-8.06043e-06
0.000292232
-7.90761e-06
0.000294818
-7.7504e-06
0.00029735
-7.58882e-06
0.000299827
-7.42293e-06
0.000302247
-7.25277e-06
0.000304609
-7.0784e-06
0.000306911
-6.89989e-06
0.000309152
-6.71732e-06
0.000311331
-6.53077e-06
0.000313447
-6.34033e-06
0.000315498
-6.14609e-06
0.000317482
-5.94818e-06
0.0003194
-5.74669e-06
0.000321249
-5.54175e-06
0.000323028
-5.3335e-06
0.000324737
-5.12206e-06
0.000326375
-4.90757e-06
0.00032794
-4.6902e-06
0.000329431
-4.47008e-06
0.000330848
-4.24738e-06
0.00033219
-4.02228e-06
0.000333457
-3.79492e-06
0.000334646
-3.5655e-06
0.000335758
-3.33419e-06
0.000336793
-3.10118e-06
0.000337749
-2.86664e-06
0.000338627
-2.63077e-06
0.000339425
-2.39376e-06
0.000340144
-2.1558e-06
0.000340784
-1.91709e-06
0.000341343
-1.67781e-06
0.000341823
-1.43818e-06
0.000342222
-1.19837e-06
0.000342541
-9.58599e-07
0.000342781
-7.19043e-07
0.000342941
-4.79901e-07
0.000343021
-2.41362e-07
0.000343021
-3.6148e-09
0.000342943
2.33156e-07
0.000342786
4.68767e-07
0.000342551
7.03041e-07
0.000342238
9.35804e-07
0.000341848
1.16688e-06
0.000341381
1.39612e-06
0.000340839
1.62334e-06
0.000340222
1.84841e-06
0.00033953
2.07116e-06
0.000338765
2.29145e-06
0.000337927
2.50915e-06
0.000337017
2.72412e-06
0.000336037
2.93624e-06
0.000334987
3.1454e-06
0.000333868
3.35147e-06
0.000332681
3.55435e-06
0.000331428
3.75394e-06
0.000330109
3.95016e-06
0.000328726
4.14292e-06
0.00032728
4.33213e-06
0.000325772
4.51774e-06
0.000324204
4.69967e-06
0.000322576
4.87786e-06
0.000320889
5.05227e-06
0.000319146
5.22285e-06
0.000317348
5.38957e-06
0.000315495
5.55239e-06
0.000313589
5.71128e-06
0.000311631
5.86624e-06
0.000309623
6.01724e-06
0.000307566
6.16428e-06
0.000305461
6.30735e-06
0.00030331
6.44647e-06
0.000301114
6.58164e-06
0.000298875
6.71286e-06
0.000296592
6.84017e-06
0.000294269
6.96359e-06
0.000291906
7.08314e-06
0.000289504
7.19885e-06
0.000287065
7.31076e-06
0.00028459
7.41891e-06
0.00028208
7.52335e-06
0.000279537
7.62411e-06
0.000276961
7.72124e-06
0.000274354
7.81481e-06
0.000271717
7.90486e-06
0.000269052
7.99145e-06
0.000266358
8.07464e-06
0.000263638
8.15449e-06
0.000260893
8.23106e-06
0.000258123
8.30442e-06
0.00025533
8.37464e-06
0.000252514
8.44177e-06
0.000249677
8.5059e-06
0.00024682
8.56709e-06
0.000243943
8.62541e-06
0.000241048
8.68093e-06
0.000238135
8.73372e-06
0.000235206
8.78386e-06
0.000232261
8.83142e-06
0.000229301
8.87646e-06
0.000226326
8.91906e-06
0.000223339
8.9593e-06
0.000220338
8.99725e-06
0.000217326
9.03297e-06
0.000214303
9.06654e-06
0.000211269
9.09803e-06
0.000208225
9.1275e-06
0.000205173
9.15504e-06
0.000202111
9.1807e-06
0.000199042
9.20456e-06
0.000195966
9.22669e-06
0.000192882
9.24714e-06
0.000189793
9.26599e-06
0.000186698
9.2833e-06
0.000183597
9.29913e-06
0.000180492
9.31354e-06
0.000177382
9.32661e-06
0.000174269
9.33838e-06
0.000171152
9.34891e-06
0.000168032
9.35827e-06
0.000164909
9.36652e-06
0.000161784
9.37369e-06
0.000158657
9.37986e-06
0.000155528
9.38508e-06
0.000152398
9.38939e-06
0.000149266
9.39284e-06
0.000146134
9.3955e-06
0.000143001
9.39739e-06
0.000139868
9.39858e-06
0.000136735
9.39911e-06
0.000133601
9.39901e-06
0.000130468
9.39835e-06
0.000127335
9.39715e-06
0.000124203
9.39546e-06
0.000121072
9.39331e-06
0.000117942
9.39076e-06
0.000114812
9.38782e-06
0.000111684
9.38455e-06
0.000108557
9.38097e-06
0.000105431
9.37712e-06
0.000102306
9.37304e-06
9.91833e-05
9.36874e-06
9.60618e-05
9.36427e-06
9.29419e-05
9.35966e-06
8.98235e-05
9.35492e-06
8.67068e-05
9.35009e-06
8.35917e-05
9.3452e-06
8.04783e-05
9.34027e-06
7.73665e-05
9.33532e-06
7.42564e-05
9.33039e-06
7.11479e-05
9.32547e-06
6.80411e-05
9.32061e-06
6.49358e-05
9.31583e-06
6.18322e-05
9.31113e-06
5.87301e-05
9.30653e-06
5.56295e-05
9.30207e-06
5.25303e-05
9.29774e-06
4.94326e-05
9.29358e-06
4.63361e-05
9.28958e-06
4.3241e-05
9.28577e-06
4.0147e-05
9.28215e-06
3.70543e-05
9.27875e-06
3.39625e-05
9.27557e-06
3.08718e-05
9.27261e-06
2.7782e-05
9.2699e-06
2.4693e-05
9.26743e-06
2.16047e-05
9.26522e-06
1.85171e-05
9.26327e-06
1.543e-05
9.26159e-06
1.23435e-05
9.26018e-06
9.25726e-06
9.25905e-06
6.17135e-06
9.2582e-06
3.08563e-06
9.25764e-06
9.25736e-06
3.63701e-06
-1.45497e-05
7.27415e-06
-1.45502e-05
1.09115e-05
-1.45512e-05
1.45493e-05
-1.45527e-05
1.81875e-05
-1.45546e-05
2.18264e-05
-1.4557e-05
2.5466e-05
-1.45598e-05
2.91064e-05
-1.45631e-05
3.27478e-05
-1.45668e-05
3.63902e-05
-1.45708e-05
4.00337e-05
-1.45752e-05
4.36784e-05
-1.458e-05
4.73244e-05
-1.4585e-05
5.09718e-05
-1.45903e-05
5.46206e-05
-1.45958e-05
5.82709e-05
-1.46015e-05
6.19226e-05
-1.46073e-05
6.55759e-05
-1.46132e-05
6.92307e-05
-1.46192e-05
7.2887e-05
-1.46251e-05
7.65449e-05
-1.46309e-05
8.02042e-05
-1.46366e-05
8.3865e-05
-1.46421e-05
8.75272e-05
-1.46474e-05
9.11906e-05
-1.46523e-05
9.48552e-05
-1.46568e-05
9.85209e-05
-1.46608e-05
0.000102188
-1.46642e-05
0.000105855
-1.4667e-05
0.000109523
-1.46691e-05
0.000113191
-1.46703e-05
0.00011686
-1.46706e-05
0.000120528
-1.467e-05
0.000124196
-1.46682e-05
0.000127864
-1.46652e-05
0.00013153
-1.46609e-05
0.000135195
-1.46551e-05
0.000138859
-1.46479e-05
0.00014252
-1.4639e-05
0.000146179
-1.46283e-05
0.000149835
-1.46158e-05
0.000153487
-1.46013e-05
0.000157135
-1.45847e-05
0.000160778
-1.45659e-05
0.000164417
-1.45447e-05
0.000168049
-1.4521e-05
0.000171675
-1.44947e-05
0.000175294
-1.44657e-05
0.000178905
-1.44337e-05
0.000182508
-1.43988e-05
0.000186101
-1.43607e-05
0.000189684
-1.43194e-05
0.000193256
-1.42746e-05
0.000196815
-1.42263e-05
0.000200362
-1.41743e-05
0.000203895
-1.41185e-05
0.000207414
-1.40588e-05
0.000210916
-1.3995e-05
0.000214402
-1.39269e-05
0.000217869
-1.38546e-05
0.000221318
-1.37777e-05
0.000224746
-1.36963e-05
0.000228153
-1.36102e-05
0.000231537
-1.35192e-05
0.000234897
-1.34233e-05
0.000238232
-1.33224e-05
0.000241541
-1.32163e-05
0.000244822
-1.31049e-05
0.000248073
-1.29882e-05
0.000251295
-1.28661e-05
0.000254484
-1.27384e-05
0.00025764
-1.26051e-05
0.000260762
-1.24661e-05
0.000263847
-1.23214e-05
0.000266895
-1.21709e-05
0.000269904
-1.20145e-05
0.000272872
-1.18523e-05
0.000275799
-1.16841e-05
0.000278681
-1.151e-05
0.000281519
-1.133e-05
0.00028431
-1.1144e-05
0.000287053
-1.0952e-05
0.000289747
-1.07541e-05
0.00029239
-1.05503e-05
0.00029498
-1.03406e-05
0.000297516
-1.01251e-05
0.000299997
-9.90387e-06
0.000302421
-9.6769e-06
0.000304787
-9.4443e-06
0.000307094
-9.20618e-06
0.000309339
-8.96262e-06
0.000311522
-8.71374e-06
0.000313641
-8.45966e-06
0.000315696
-8.20052e-06
0.000317684
-7.93645e-06
0.000319605
-7.66761e-06
0.000321457
-7.39417e-06
0.00032324
-7.11628e-06
0.000324952
-6.83414e-06
0.000326592
-6.54793e-06
0.00032816
-6.25785e-06
0.000329654
-5.96412e-06
0.000331074
-5.66693e-06
0.000332418
-5.36652e-06
0.000333686
-5.06312e-06
0.000334878
-4.75694e-06
0.000335992
-4.44824e-06
0.000337028
-4.13727e-06
0.000337985
-3.82426e-06
0.000338864
-3.50947e-06
0.000339663
-3.19315e-06
0.000340383
-2.87557e-06
0.000341023
-2.55698e-06
0.000341583
-2.23765e-06
0.000342063
-1.91783e-06
0.000342462
-1.59779e-06
0.000342781
-1.27779e-06
0.00034302
-9.58084e-07
0.000343179
-6.38932e-07
0.000343258
-3.20587e-07
0.000343258
-3.30313e-09
0.000343179
3.12674e-07
0.00034302
6.271e-07
0.000342784
9.39737e-07
0.000342469
1.25035e-06
0.000342077
1.55872e-06
0.000341609
1.86461e-06
0.000341064
2.16782e-06
0.000340445
2.46813e-06
0.00033975
2.76536e-06
0.000338982
3.0593e-06
0.000338142
3.34977e-06
0.000337229
3.63659e-06
0.000336246
3.91961e-06
0.000335193
4.19865e-06
0.000334071
4.47357e-06
0.000332881
4.74424e-06
0.000331624
5.01051e-06
0.000330302
5.27227e-06
0.000328916
5.5294e-06
0.000327466
5.78179e-06
0.000325954
6.02937e-06
0.000324382
6.27203e-06
0.00032275
6.5097e-06
0.00032106
6.74231e-06
0.000319313
6.96981e-06
0.000317511
7.19215e-06
0.000315654
7.40928e-06
0.000313744
7.62117e-06
0.000311782
7.8278e-06
0.00030977
8.02915e-06
0.000307709
8.2252e-06
0.000305601
8.41596e-06
0.000303446
8.60144e-06
0.000301246
8.78164e-06
0.000299002
8.95658e-06
0.000296716
9.12629e-06
0.000294389
9.2908e-06
0.000292022
9.45015e-06
0.000289616
9.60438e-06
0.000287173
9.75353e-06
0.000284695
9.89767e-06
0.000282181
1.00368e-05
0.000279634
1.01711e-05
0.000277055
1.03005e-05
0.000274444
1.04252e-05
0.000271804
1.05452e-05
0.000269135
1.06606e-05
0.000266438
1.07714e-05
0.000263715
1.08777e-05
0.000260966
1.09797e-05
0.000258193
1.10775e-05
0.000255397
1.1171e-05
0.000252578
1.12604e-05
0.000249739
1.13458e-05
0.000246878
1.14273e-05
0.000243999
1.15049e-05
0.000241101
1.15788e-05
0.000238186
1.16491e-05
0.000235254
1.17158e-05
0.000232306
1.17791e-05
0.000229343
1.18391e-05
0.000226367
1.18958e-05
0.000223377
1.19493e-05
0.000220374
1.19998e-05
0.00021736
1.20473e-05
0.000214334
1.2092e-05
0.000211298
1.21338e-05
0.000208253
1.2173e-05
0.000205198
1.22096e-05
0.000202135
1.22437e-05
0.000199064
1.22755e-05
0.000195986
1.23049e-05
0.000192901
1.2332e-05
0.00018981
1.2357e-05
0.000186714
1.238e-05
0.000183612
1.2401e-05
0.000180505
1.24202e-05
0.000177394
1.24375e-05
0.000174279
1.24531e-05
0.000171161
1.24671e-05
0.00016804
1.24794e-05
0.000164916
1.24903e-05
0.00016179
1.24998e-05
0.000158662
1.2508e-05
0.000155532
1.25148e-05
0.000152401
1.25205e-05
0.000149269
1.2525e-05
0.000146136
1.25285e-05
0.000143002
1.2531e-05
0.000139869
1.25325e-05
0.000136735
1.25331e-05
0.000133601
1.25329e-05
0.000130467
1.2532e-05
0.000127334
1.25303e-05
0.000124201
1.2528e-05
0.00012107
1.25251e-05
0.000117939
1.25216e-05
0.000114809
1.25176e-05
0.00011168
1.25132e-05
0.000108553
1.25084e-05
0.000105427
1.25032e-05
0.000102302
1.24977e-05
9.91789e-05
1.24919e-05
9.60573e-05
1.24859e-05
9.29372e-05
1.24797e-05
8.98187e-05
1.24734e-05
8.67019e-05
1.24669e-05
8.35868e-05
1.24603e-05
8.04734e-05
1.24537e-05
7.73616e-05
1.24471e-05
7.42515e-05
1.24405e-05
7.11431e-05
1.24339e-05
6.80363e-05
1.24274e-05
6.49312e-05
1.2421e-05
6.18276e-05
1.24147e-05
5.87257e-05
1.24085e-05
5.56252e-05
1.24025e-05
5.25262e-05
1.23967e-05
4.94286e-05
1.23912e-05
4.63323e-05
1.23858e-05
4.32374e-05
1.23807e-05
4.01437e-05
1.23759e-05
3.70511e-05
1.23713e-05
3.39596e-05
1.23671e-05
3.08691e-05
1.23631e-05
2.77795e-05
1.23595e-05
2.46908e-05
1.23562e-05
2.16028e-05
1.23532e-05
1.85154e-05
1.23506e-05
1.54286e-05
1.23484e-05
1.23423e-05
1.23465e-05
9.25642e-06
1.2345e-05
6.17079e-06
1.23438e-05
3.08535e-06
1.23431e-05
1.23427e-05
3.63652e-06
-1.81863e-05
7.27317e-06
-1.81869e-05
1.09101e-05
-1.81881e-05
1.45474e-05
-1.819e-05
1.81851e-05
-1.81924e-05
2.18236e-05
-1.81954e-05
2.54627e-05
-1.8199e-05
2.91027e-05
-1.82031e-05
3.27437e-05
-1.82077e-05
3.63857e-05
-1.82128e-05
4.00289e-05
-1.82184e-05
4.36734e-05
-1.82244e-05
4.73191e-05
-1.82308e-05
5.09663e-05
-1.82374e-05
5.46149e-05
-1.82444e-05
5.8265e-05
-1.82516e-05
6.19167e-05
-1.8259e-05
6.55699e-05
-1.82665e-05
6.92248e-05
-1.8274e-05
7.28812e-05
-1.82815e-05
7.65392e-05
-1.82889e-05
8.01987e-05
-1.82962e-05
8.38598e-05
-1.83032e-05
8.75223e-05
-1.83099e-05
9.11861e-05
-1.83161e-05
9.48512e-05
-1.83219e-05
9.85175e-05
-1.83271e-05
0.000102185
-1.83315e-05
0.000105853
-1.83352e-05
0.000109522
-1.83379e-05
0.000113191
-1.83396e-05
0.000116861
-1.83402e-05
0.00012053
-1.83395e-05
0.000124199
-1.83375e-05
0.000127868
-1.83339e-05
0.000131536
-1.83287e-05
0.000135203
-1.83218e-05
0.000138868
-1.83129e-05
0.000142531
-1.8302e-05
0.000146191
-1.82889e-05
0.000149849
-1.82735e-05
0.000153503
-1.82556e-05
0.000157154
-1.82351e-05
0.0001608
-1.82118e-05
0.00016444
-1.81855e-05
0.000168076
-1.81562e-05
0.000171704
-1.81235e-05
0.000175326
-1.80875e-05
0.00017894
-1.80478e-05
0.000182546
-1.80044e-05
0.000186142
-1.79571e-05
0.000189729
-1.79056e-05
0.000193304
-1.78499e-05
0.000196867
-1.77898e-05
0.000200418
-1.77251e-05
0.000203955
-1.76556e-05
0.000207477
-1.75811e-05
0.000210984
-1.75016e-05
0.000214474
-1.74168e-05
0.000217946
-1.73266e-05
0.000221399
-1.72308e-05
0.000224832
-1.71292e-05
0.000228244
-1.70218e-05
0.000231633
-1.69083e-05
0.000234998
-1.67887e-05
0.000238338
-1.66627e-05
0.000241652
-1.65302e-05
0.000244938
-1.63912e-05
0.000248196
-1.62455e-05
0.000251422
-1.60929e-05
0.000254618
-1.59335e-05
0.00025778
-1.5767e-05
0.000260907
-1.55934e-05
0.000263998
-1.54126e-05
0.000267052
-1.52246e-05
0.000270066
-1.50292e-05
0.00027304
-1.48264e-05
0.000275973
-1.46163e-05
0.000278861
-1.43987e-05
0.000281705
-1.41736e-05
0.000284502
-1.39411e-05
0.000287251
-1.37011e-05
0.000289951
-1.34537e-05
0.000292599
-1.31989e-05
0.000295196
-1.29367e-05
0.000297738
-1.26672e-05
0.000300224
-1.23905e-05
0.000302654
-1.21067e-05
0.000305025
-1.18157e-05
0.000307337
-1.15179e-05
0.000309588
-1.12132e-05
0.000311776
-1.09019e-05
0.0003139
-1.05841e-05
0.00031596
-1.02599e-05
0.000317953
-9.9295e-06
0.000319878
-9.59315e-06
0.000321735
-9.25102e-06
0.000323522
-8.90332e-06
0.000325238
-8.55029e-06
0.000326883
-8.19216e-06
0.000328454
-7.82918e-06
0.000329951
-7.46161e-06
0.000331374
-7.08971e-06
0.000332721
-6.71377e-06
0.000333992
-6.33407e-06
0.000335186
-5.95091e-06
0.000336303
-5.56458e-06
0.000337341
-5.17539e-06
0.0003383
-4.78366e-06
0.00033918
-4.38969e-06
0.000339981
-3.99382e-06
0.000340702
-3.59635e-06
0.000341343
-3.19763e-06
0.000341903
-2.79798e-06
0.000342383
-2.39771e-06
0.000342782
-1.99718e-06
0.000343101
-1.59669e-06
0.000343339
-1.19657e-06
0.000343498
-7.97155e-07
0.000343576
-3.98754e-07
0.000343574
-1.68542e-09
0.000343493
3.93741e-07
0.000343333
7.87221e-07
0.000343094
1.17845e-06
0.000342778
1.56715e-06
0.000342383
1.95302e-06
0.000341912
2.33579e-06
0.000341365
2.71518e-06
0.000340742
3.09095e-06
0.000340044
3.46284e-06
0.000339273
3.83061e-06
0.000338429
4.19403e-06
0.000337513
4.55288e-06
0.000336525
4.90694e-06
0.000335468
5.25603e-06
0.000334341
5.59994e-06
0.000333147
5.93852e-06
0.000331886
6.27159e-06
0.000330559
6.599e-06
0.000329168
6.9206e-06
0.000327714
7.23628e-06
0.000326197
7.5459e-06
0.00032462
7.84937e-06
0.000322983
8.14659e-06
0.000321288
8.43747e-06
0.000319536
8.72194e-06
0.000317728
8.99994e-06
0.000315866
9.27142e-06
0.000313951
9.53633e-06
0.000311984
9.79464e-06
0.000309967
1.00463e-05
0.0003079
1.02914e-05
0.000305786
1.05299e-05
0.000303626
1.07617e-05
0.000301421
1.09869e-05
0.000299172
1.12055e-05
0.000296881
1.14176e-05
0.000294548
1.16232e-05
0.000292176
1.18223e-05
0.000289766
1.2015e-05
0.000287318
1.22013e-05
0.000284834
1.23814e-05
0.000282316
1.25552e-05
0.000279764
1.27229e-05
0.00027718
1.28846e-05
0.000274565
1.30403e-05
0.00027192
1.31901e-05
0.000269246
1.33342e-05
0.000266545
1.34726e-05
0.000263817
1.36054e-05
0.000261064
1.37327e-05
0.000258287
1.38547e-05
0.000255487
1.39714e-05
0.000252664
1.4083e-05
0.00024982
1.41896e-05
0.000246956
1.42912e-05
0.000244073