/*--------------------------------*- C++ -*----------------------------------*\
| =========                 |                                                 |
| \\      /  F ield         | OpenFOAM: The Open Source CFD Toolbox           |
|  \\    /   O peration     | Version:  v2012                                 |
|   \\  /    A nd           | Website:  www.openfoam.com                      |
|    \\/     M anipulation  |                                                 |
\*---------------------------------------------------------------------------*/
FoamFile
{
    version     2.0;
    format      ascii;
    class       volVectorField;
    location    "11";
    object      Psi;
}
// * * * * * * * * * * * * * * * * * * * * * * * * * * * * * * * * * * * * * //

dimensions      [0 2 -1 0 0 0 0];


internalField   nonuniform List<vector> 
65536
(
(0 0 9.08316e-06)
(0 0 2.72498e-05)
(0 0 4.54174e-05)
(0 0 6.35866e-05)
(0 0 8.17579e-05)
(0 0 9.9932e-05)
(0 0 0.000118109)
(0 0 0.000136291)
(0 0 0.000154476)
(0 0 0.000172667)
(0 0 0.000190863)
(0 0 0.000209065)
(0 0 0.000227273)
(0 0 0.000245487)
(0 0 0.000263709)
(0 0 0.000281937)
(0 0 0.000300173)
(0 0 0.000318417)
(0 0 0.000336668)
(0 0 0.000354927)
(0 0 0.000373193)
(0 0 0.000391467)
(0 0 0.000409748)
(0 0 0.000428036)
(0 0 0.000446331)
(0 0 0.000464632)
(0 0 0.000482938)
(0 0 0.00050125)
(0 0 0.000519566)
(0 0 0.000537885)
(0 0 0.000556206)
(0 0 0.000574529)
(0 0 0.000592852)
(0 0 0.000611174)
(0 0 0.000629493)
(0 0 0.000647809)
(0 0 0.000666118)
(0 0 0.00068442)
(0 0 0.000702712)
(0 0 0.000720993)
(0 0 0.00073926)
(0 0 0.00075751)
(0 0 0.000775742)
(0 0 0.000793952)
(0 0 0.000812138)
(0 0 0.000830296)
(0 0 0.000848424)
(0 0 0.000866517)
(0 0 0.000884574)
(0 0 0.000902589)
(0 0 0.00092056)
(0 0 0.000938482)
(0 0 0.00095635)
(0 0 0.000974162)
(0 0 0.000991912)
(0 0 0.00100959)
(0 0 0.00102721)
(0 0 0.00104474)
(0 0 0.0010622)
(0 0 0.00107956)
(0 0 0.00109684)
(0 0 0.00111402)
(0 0 0.00113109)
(0 0 0.00114805)
(0 0 0.0011649)
(0 0 0.00118163)
(0 0 0.00119822)
(0 0 0.00121469)
(0 0 0.00123101)
(0 0 0.00124718)
(0 0 0.0012632)
(0 0 0.00127906)
(0 0 0.00129474)
(0 0 0.00131026)
(0 0 0.00132558)
(0 0 0.00134072)
(0 0 0.00135566)
(0 0 0.00137039)
(0 0 0.00138492)
(0 0 0.00139922)
(0 0 0.00141329)
(0 0 0.00142713)
(0 0 0.00144073)
(0 0 0.00145407)
(0 0 0.00146716)
(0 0 0.00147998)
(0 0 0.00149254)
(0 0 0.00150481)
(0 0 0.0015168)
(0 0 0.00152849)
(0 0 0.00153988)
(0 0 0.00155097)
(0 0 0.00156174)
(0 0 0.0015722)
(0 0 0.00158233)
(0 0 0.00159212)
(0 0 0.00160158)
(0 0 0.00161069)
(0 0 0.00161945)
(0 0 0.00162786)
(0 0 0.00163591)
(0 0 0.0016436)
(0 0 0.00165092)
(0 0 0.00165786)
(0 0 0.00166442)
(0 0 0.00167061)
(0 0 0.00167641)
(0 0 0.00168183)
(0 0 0.00168685)
(0 0 0.00169148)
(0 0 0.00169572)
(0 0 0.00169956)
(0 0 0.00170301)
(0 0 0.00170605)
(0 0 0.00170869)
(0 0 0.00171094)
(0 0 0.00171278)
(0 0 0.00171423)
(0 0 0.00171527)
(0 0 0.00171592)
(0 0 0.00171616)
(0 0 0.00171601)
(0 0 0.00171547)
(0 0 0.00171453)
(0 0 0.00171321)
(0 0 0.00171149)
(0 0 0.00170939)
(0 0 0.00170691)
(0 0 0.00170405)
(0 0 0.00170081)
(0 0 0.00169721)
(0 0 0.00169324)
(0 0 0.0016889)
(0 0 0.00168421)
(0 0 0.00167917)
(0 0 0.00167378)
(0 0 0.00166804)
(0 0 0.00166197)
(0 0 0.00165557)
(0 0 0.00164884)
(0 0 0.0016418)
(0 0 0.00163443)
(0 0 0.00162677)
(0 0 0.00161879)
(0 0 0.00161053)
(0 0 0.00160197)
(0 0 0.00159313)
(0 0 0.00158402)
(0 0 0.00157464)
(0 0 0.00156499)
(0 0 0.00155509)
(0 0 0.00154493)
(0 0 0.00153454)
(0 0 0.0015239)
(0 0 0.00151304)
(0 0 0.00150196)
(0 0 0.00149065)
(0 0 0.00147914)
(0 0 0.00146743)
(0 0 0.00145551)
(0 0 0.00144341)
(0 0 0.00143112)
(0 0 0.00141865)
(0 0 0.00140601)
(0 0 0.00139321)
(0 0 0.00138024)
(0 0 0.00136712)
(0 0 0.00135386)
(0 0 0.00134045)
(0 0 0.0013269)
(0 0 0.00131323)
(0 0 0.00129942)
(0 0 0.0012855)
(0 0 0.00127146)
(0 0 0.00125732)
(0 0 0.00124306)
(0 0 0.00122871)
(0 0 0.00121426)
(0 0 0.00119973)
(0 0 0.0011851)
(0 0 0.00117039)
(0 0 0.00115561)
(0 0 0.00114075)
(0 0 0.00112583)
(0 0 0.00111083)
(0 0 0.00109578)
(0 0 0.00108067)
(0 0 0.0010655)
(0 0 0.00105029)
(0 0 0.00103502)
(0 0 0.00101971)
(0 0 0.00100436)
(0 0 0.000988973)
(0 0 0.000973549)
(0 0 0.000958092)
(0 0 0.000942605)
(0 0 0.000927091)
(0 0 0.000911551)
(0 0 0.000895989)
(0 0 0.000880406)
(0 0 0.000864804)
(0 0 0.000849187)
(0 0 0.000833554)
(0 0 0.000817909)
(0 0 0.000802253)
(0 0 0.000786587)
(0 0 0.000770914)
(0 0 0.000755235)
(0 0 0.000739551)
(0 0 0.000723863)
(0 0 0.000708173)
(0 0 0.000692481)
(0 0 0.00067679)
(0 0 0.000661099)
(0 0 0.00064541)
(0 0 0.000629724)
(0 0 0.000614041)
(0 0 0.000598362)
(0 0 0.000582688)
(0 0 0.00056702)
(0 0 0.000551358)
(0 0 0.000535701)
(0 0 0.000520052)
(0 0 0.00050441)
(0 0 0.000488776)
(0 0 0.000473149)
(0 0 0.000457531)
(0 0 0.00044192)
(0 0 0.000426318)
(0 0 0.000410725)
(0 0 0.00039514)
(0 0 0.000379563)
(0 0 0.000363995)
(0 0 0.000348435)
(0 0 0.000332883)
(0 0 0.000317339)
(0 0 0.000301803)
(0 0 0.000286275)
(0 0 0.000270755)
(0 0 0.000255242)
(0 0 0.000239735)
(0 0 0.000224236)
(0 0 0.000208742)
(0 0 0.000193255)
(0 0 0.000177773)
(0 0 0.000162297)
(0 0 0.000146825)
(0 0 0.000131358)
(0 0 0.000115894)
(0 0 0.000100434)
(0 0 8.49777e-05)
(0 0 6.95236e-05)
(0 0 5.40717e-05)
(0 0 3.86214e-05)
(0 0 2.31724e-05)
(0 0 7.72404e-06)
(0 0 2.72492e-05)
(0 0 8.17487e-05)
(0 0 0.000136251)
(0 0 0.000190758)
(0 0 0.000245271)
(0 0 0.000299793)
(0 0 0.000354324)
(0 0 0.000408868)
(0 0 0.000463424)
(0 0 0.000517996)
(0 0 0.000572583)
(0 0 0.000627188)
(0 0 0.000681812)
(0 0 0.000736455)
(0 0 0.00079112)
(0 0 0.000845806)
(0 0 0.000900514)
(0 0 0.000955244)
(0 0 0.00101)
(0 0 0.00106477)
(0 0 0.00111957)
(0 0 0.0011744)
(0 0 0.00122924)
(0 0 0.0012841)
(0 0 0.00133899)
(0 0 0.00139389)
(0 0 0.00144881)
(0 0 0.00150375)
(0 0 0.00155869)
(0 0 0.00161365)
(0 0 0.00166862)
(0 0 0.00172359)
(0 0 0.00177856)
(0 0 0.00183353)
(0 0 0.00188849)
(0 0 0.00194343)
(0 0 0.00199836)
(0 0 0.00205327)
(0 0 0.00210815)
(0 0 0.00216299)
(0 0 0.0022178)
(0 0 0.00227255)
(0 0 0.00232725)
(0 0 0.00238188)
(0 0 0.00243644)
(0 0 0.00249092)
(0 0 0.00254531)
(0 0 0.00259959)
(0 0 0.00265376)
(0 0 0.00270781)
(0 0 0.00276173)
(0 0 0.0028155)
(0 0 0.00286911)
(0 0 0.00292255)
(0 0 0.0029758)
(0 0 0.00302886)
(0 0 0.0030817)
(0 0 0.00313431)
(0 0 0.00318668)
(0 0 0.00323878)
(0 0 0.00329061)
(0 0 0.00334215)
(0 0 0.00339338)
(0 0 0.00344427)
(0 0 0.00349482)
(0 0 0.00354501)
(0 0 0.00359481)
(0 0 0.0036442)
(0 0 0.00369318)
(0 0 0.0037417)
(0 0 0.00378976)
(0 0 0.00383734)
(0 0 0.00388441)
(0 0 0.00393095)
(0 0 0.00397694)
(0 0 0.00402236)
(0 0 0.00406719)
(0 0 0.0041114)
(0 0 0.00415497)
(0 0 0.00419788)
(0 0 0.00424011)
(0 0 0.00428163)
(0 0 0.00432243)
(0 0 0.00436247)
(0 0 0.00440174)
(0 0 0.00444022)
(0 0 0.00447789)
(0 0 0.00451471)
(0 0 0.00455068)
(0 0 0.00458577)
(0 0 0.00461996)
(0 0 0.00465323)
(0 0 0.00468555)
(0 0 0.00471692)
(0 0 0.00474731)
(0 0 0.0047767)
(0 0 0.00480508)
(0 0 0.00483242)
(0 0 0.00485872)
(0 0 0.00488395)
(0 0 0.0049081)
(0 0 0.00493116)
(0 0 0.00495312)
(0 0 0.00497395)
(0 0 0.00499365)
(0 0 0.00501221)
(0 0 0.00502962)
(0 0 0.00504587)
(0 0 0.00506094)
(0 0 0.00507484)
(0 0 0.00508755)
(0 0 0.00509908)
(0 0 0.00510941)
(0 0 0.00511855)
(0 0 0.00512648)
(0 0 0.00513322)
(0 0 0.00513875)
(0 0 0.00514308)
(0 0 0.00514621)
(0 0 0.00514815)
(0 0 0.00514889)
(0 0 0.00514844)
(0 0 0.0051468)
(0 0 0.00514399)
(0 0 0.00514)
(0 0 0.00513486)
(0 0 0.00512855)
(0 0 0.0051211)
(0 0 0.00511252)
(0 0 0.00510281)
(0 0 0.00509199)
(0 0 0.00508007)
(0 0 0.00506707)
(0 0 0.00505299)
(0 0 0.00503785)
(0 0 0.00502167)
(0 0 0.00500447)
(0 0 0.00498625)
(0 0 0.00496704)
(0 0 0.00494685)
(0 0 0.0049257)
(0 0 0.00490361)
(0 0 0.00488059)
(0 0 0.00485667)
(0 0 0.00483187)
(0 0 0.0048062)
(0 0 0.00477967)
(0 0 0.00475233)
(0 0 0.00472417)
(0 0 0.00469522)
(0 0 0.0046655)
(0 0 0.00463504)
(0 0 0.00460384)
(0 0 0.00457194)
(0 0 0.00453935)
(0 0 0.00450608)
(0 0 0.00447217)
(0 0 0.00443762)
(0 0 0.00440247)
(0 0 0.00436672)
(0 0 0.0043304)
(0 0 0.00429353)
(0 0 0.00425612)
(0 0 0.0042182)
(0 0 0.00417978)
(0 0 0.00414088)
(0 0 0.00410152)
(0 0 0.00406171)
(0 0 0.00402148)
(0 0 0.00398084)
(0 0 0.0039398)
(0 0 0.00389839)
(0 0 0.00385662)
(0 0 0.0038145)
(0 0 0.00377205)
(0 0 0.00372929)
(0 0 0.00368623)
(0 0 0.00364288)
(0 0 0.00359926)
(0 0 0.00355538)
(0 0 0.00351126)
(0 0 0.0034669)
(0 0 0.00342232)
(0 0 0.00337754)
(0 0 0.00333256)
(0 0 0.00328739)
(0 0 0.00324206)
(0 0 0.00319656)
(0 0 0.0031509)
(0 0 0.0031051)
(0 0 0.00305917)
(0 0 0.00301312)
(0 0 0.00296695)
(0 0 0.00292068)
(0 0 0.0028743)
(0 0 0.00282784)
(0 0 0.0027813)
(0 0 0.00273467)
(0 0 0.00268798)
(0 0 0.00264123)
(0 0 0.00259443)
(0 0 0.00254757)
(0 0 0.00250067)
(0 0 0.00245374)
(0 0 0.00240677)
(0 0 0.00235977)
(0 0 0.00231275)
(0 0 0.00226571)
(0 0 0.00221865)
(0 0 0.00217159)
(0 0 0.00212452)
(0 0 0.00207744)
(0 0 0.00203037)
(0 0 0.00198329)
(0 0 0.00193622)
(0 0 0.00188917)
(0 0 0.00184212)
(0 0 0.00179508)
(0 0 0.00174806)
(0 0 0.00170105)
(0 0 0.00165406)
(0 0 0.0016071)
(0 0 0.00156015)
(0 0 0.00151322)
(0 0 0.00146632)
(0 0 0.00141944)
(0 0 0.00137258)
(0 0 0.00132575)
(0 0 0.00127895)
(0 0 0.00123216)
(0 0 0.00118541)
(0 0 0.00113868)
(0 0 0.00109197)
(0 0 0.00104529)
(0 0 0.000998639)
(0 0 0.000952009)
(0 0 0.000905402)
(0 0 0.000858818)
(0 0 0.000812257)
(0 0 0.000765717)
(0 0 0.000719199)
(0 0 0.0006727)
(0 0 0.00062622)
(0 0 0.000579759)
(0 0 0.000533314)
(0 0 0.000486885)
(0 0 0.00044047)
(0 0 0.000394068)
(0 0 0.000347679)
(0 0 0.0003013)
(0 0 0.00025493)
(0 0 0.000208568)
(0 0 0.000162213)
(0 0 0.000115863)
(0 0 6.95164e-05)
(0 0 2.31719e-05)
(0 0 4.54144e-05)
(0 0 0.000136245)
(0 0 0.00022708)
(0 0 0.000317923)
(0 0 0.000408776)
(0 0 0.000499644)
(0 0 0.000590528)
(0 0 0.000681431)
(0 0 0.000772357)
(0 0 0.000863308)
(0 0 0.000954286)
(0 0 0.00104529)
(0 0 0.00113633)
(0 0 0.0012274)
(0 0 0.00131851)
(0 0 0.00140965)
(0 0 0.00150083)
(0 0 0.00159205)
(0 0 0.0016833)
(0 0 0.0017746)
(0 0 0.00186593)
(0 0 0.0019573)
(0 0 0.00204871)
(0 0 0.00214015)
(0 0 0.00223163)
(0 0 0.00232313)
(0 0 0.00241467)
(0 0 0.00250623)
(0 0 0.00259781)
(0 0 0.00268941)
(0 0 0.00278103)
(0 0 0.00287265)
(0 0 0.00296427)
(0 0 0.00305588)
(0 0 0.00314749)
(0 0 0.00323907)
(0 0 0.00333063)
(0 0 0.00342215)
(0 0 0.00351362)
(0 0 0.00360504)
(0 0 0.00369638)
(0 0 0.00378765)
(0 0 0.00387882)
(0 0 0.00396988)
(0 0 0.00406083)
(0 0 0.00415163)
(0 0 0.00424229)
(0 0 0.00433278)
(0 0 0.00442308)
(0 0 0.00451317)
(0 0 0.00460305)
(0 0 0.00469267)
(0 0 0.00478204)
(0 0 0.00487112)
(0 0 0.00495989)
(0 0 0.00504833)
(0 0 0.00513642)
(0 0 0.00522412)
(0 0 0.00531142)
(0 0 0.00539828)
(0 0 0.00548468)
(0 0 0.0055706)
(0 0 0.00565599)
(0 0 0.00574084)
(0 0 0.00582511)
(0 0 0.00590878)
(0 0 0.0059918)
(0 0 0.00607415)
(0 0 0.00615579)
(0 0 0.00623669)
(0 0 0.00631681)
(0 0 0.00639613)
(0 0 0.0064746)
(0 0 0.0065522)
(0 0 0.00662887)
(0 0 0.0067046)
(0 0 0.00677933)
(0 0 0.00685304)
(0 0 0.00692568)
(0 0 0.00699722)
(0 0 0.00706763)
(0 0 0.00713686)
(0 0 0.00720488)
(0 0 0.00727164)
(0 0 0.00733712)
(0 0 0.00740128)
(0 0 0.00746408)
(0 0 0.00752548)
(0 0 0.00758545)
(0 0 0.00764395)
(0 0 0.00770095)
(0 0 0.00775642)
(0 0 0.00781032)
(0 0 0.00786262)
(0 0 0.00791329)
(0 0 0.00796229)
(0 0 0.00800961)
(0 0 0.0080552)
(0 0 0.00809904)
(0 0 0.00814112)
(0 0 0.00818139)
(0 0 0.00821984)
(0 0 0.00825644)
(0 0 0.00829117)
(0 0 0.00832402)
(0 0 0.00835497)
(0 0 0.00838399)
(0 0 0.00841108)
(0 0 0.00843621)
(0 0 0.00845938)
(0 0 0.00848058)
(0 0 0.00849979)
(0 0 0.00851702)
(0 0 0.00853224)
(0 0 0.00854547)
(0 0 0.00855669)
(0 0 0.00856591)
(0 0 0.00857313)
(0 0 0.00857835)
(0 0 0.00858157)
(0 0 0.0085828)
(0 0 0.00858204)
(0 0 0.00857931)
(0 0 0.00857461)
(0 0 0.00856796)
(0 0 0.00855937)
(0 0 0.00854886)
(0 0 0.00853643)
(0 0 0.00852211)
(0 0 0.00850592)
(0 0 0.00848787)
(0 0 0.00846799)
(0 0 0.0084463)
(0 0 0.00842282)
(0 0 0.00839758)
(0 0 0.00837059)
(0 0 0.0083419)
(0 0 0.00831152)
(0 0 0.00827948)
(0 0 0.00824581)
(0 0 0.00821054)
(0 0 0.00817371)
(0 0 0.00813533)
(0 0 0.00809544)
(0 0 0.00805408)
(0 0 0.00801127)
(0 0 0.00796704)
(0 0 0.00792144)
(0 0 0.00787449)
(0 0 0.00782622)
(0 0 0.00777667)
(0 0 0.00772587)
(0 0 0.00767386)
(0 0 0.00762067)
(0 0 0.00756632)
(0 0 0.00751086)
(0 0 0.00745431)
(0 0 0.00739672)
(0 0 0.0073381)
(0 0 0.0072785)
(0 0 0.00721795)
(0 0 0.00715648)
(0 0 0.00709411)
(0 0 0.00703089)
(0 0 0.00696683)
(0 0 0.00690198)
(0 0 0.00683636)
(0 0 0.00676999)
(0 0 0.00670292)
(0 0 0.00663517)
(0 0 0.00656676)
(0 0 0.00649772)
(0 0 0.00642808)
(0 0 0.00635787)
(0 0 0.0062871)
(0 0 0.00621582)
(0 0 0.00614403)
(0 0 0.00607177)
(0 0 0.00599905)
(0 0 0.00592591)
(0 0 0.00585235)
(0 0 0.00577841)
(0 0 0.0057041)
(0 0 0.00562945)
(0 0 0.00555447)
(0 0 0.00547918)
(0 0 0.00540361)
(0 0 0.00532776)
(0 0 0.00525166)
(0 0 0.00517532)
(0 0 0.00509876)
(0 0 0.005022)
(0 0 0.00494504)
(0 0 0.0048679)
(0 0 0.00479061)
(0 0 0.00471316)
(0 0 0.00463557)
(0 0 0.00455787)
(0 0 0.00448004)
(0 0 0.00440212)
(0 0 0.0043241)
(0 0 0.004246)
(0 0 0.00416783)
(0 0 0.00408959)
(0 0 0.00401131)
(0 0 0.00393297)
(0 0 0.0038546)
(0 0 0.00377619)
(0 0 0.00369777)
(0 0 0.00361932)
(0 0 0.00354086)
(0 0 0.0034624)
(0 0 0.00338394)
(0 0 0.00330548)
(0 0 0.00322703)
(0 0 0.0031486)
(0 0 0.00307018)
(0 0 0.00299178)
(0 0 0.00291341)
(0 0 0.00283507)
(0 0 0.00275675)
(0 0 0.00267847)
(0 0 0.00260022)
(0 0 0.00252201)
(0 0 0.00244384)
(0 0 0.0023657)
(0 0 0.00228761)
(0 0 0.00220956)
(0 0 0.00213155)
(0 0 0.00205358)
(0 0 0.00197565)
(0 0 0.00189777)
(0 0 0.00181993)
(0 0 0.00174213)
(0 0 0.00166437)
(0 0 0.00158665)
(0 0 0.00150898)
(0 0 0.00143134)
(0 0 0.00135374)
(0 0 0.00127617)
(0 0 0.00119864)
(0 0 0.00112115)
(0 0 0.00104368)
(0 0 0.000966246)
(0 0 0.000888839)
(0 0 0.000811458)
(0 0 0.000734102)
(0 0 0.000656767)
(0 0 0.000579453)
(0 0 0.000502156)
(0 0 0.000424875)
(0 0 0.000347607)
(0 0 0.00027035)
(0 0 0.000193101)
(0 0 0.000115858)
(0 0 3.8619e-05)
(0 0 6.35779e-05)
(0 0 0.000190736)
(0 0 0.000317901)
(0 0 0.000445076)
(0 0 0.000572267)
(0 0 0.000699478)
(0 0 0.000826712)
(0 0 0.000953973)
(0 0 0.00108127)
(0 0 0.00120859)
(0 0 0.00133596)
(0 0 0.00146337)
(0 0 0.00159082)
(0 0 0.00171832)
(0 0 0.00184586)
(0 0 0.00197346)
(0 0 0.00210111)
(0 0 0.00222881)
(0 0 0.00235657)
(0 0 0.00248438)
(0 0 0.00261225)
(0 0 0.00274017)
(0 0 0.00286814)
(0 0 0.00299616)
(0 0 0.00312423)
(0 0 0.00325235)
(0 0 0.0033805)
(0 0 0.00350869)
(0 0 0.00363691)
(0 0 0.00376516)
(0 0 0.00389343)
(0 0 0.0040217)
(0 0 0.00414998)
(0 0 0.00427826)
(0 0 0.00440651)
(0 0 0.00453474)
(0 0 0.00466294)
(0 0 0.00479108)
(0 0 0.00491915)
(0 0 0.00504715)
(0 0 0.00517505)
(0 0 0.00530284)
(0 0 0.0054305)
(0 0 0.00555801)
(0 0 0.00568535)
(0 0 0.0058125)
(0 0 0.00593944)
(0 0 0.00606615)
(0 0 0.00619259)
(0 0 0.00631875)
(0 0 0.0064446)
(0 0 0.00657012)
(0 0 0.00669526)
(0 0 0.00682)
(0 0 0.00694431)
(0 0 0.00706816)
(0 0 0.00719151)
(0 0 0.00731434)
(0 0 0.00743659)
(0 0 0.00755824)
(0 0 0.00767924)
(0 0 0.00779956)
(0 0 0.00791916)
(0 0 0.00803799)
(0 0 0.00815601)
(0 0 0.00827318)
(0 0 0.00838946)
(0 0 0.00850479)
(0 0 0.00861914)
(0 0 0.00873245)
(0 0 0.00884467)
(0 0 0.00895577)
(0 0 0.00906568)
(0 0 0.00917436)
(0 0 0.00928176)
(0 0 0.00938782)
(0 0 0.0094925)
(0 0 0.00959574)
(0 0 0.0096975)
(0 0 0.00979771)
(0 0 0.00989633)
(0 0 0.0099933)
(0 0 0.0100886)
(0 0 0.0101821)
(0 0 0.0102738)
(0 0 0.0103637)
(0 0 0.0104517)
(0 0 0.0105377)
(0 0 0.0106217)
(0 0 0.0107036)
(0 0 0.0107835)
(0 0 0.0108612)
(0 0 0.0109367)
(0 0 0.01101)
(0 0 0.0110809)
(0 0 0.0111496)
(0 0 0.0112159)
(0 0 0.0112797)
(0 0 0.0113411)
(0 0 0.0114001)
(0 0 0.0114565)
(0 0 0.0115104)
(0 0 0.0115616)
(0 0 0.0116103)
(0 0 0.0116563)
(0 0 0.0116996)
(0 0 0.0117403)
(0 0 0.0117782)
(0 0 0.0118134)
(0 0 0.0118459)
(0 0 0.0118756)
(0 0 0.0119025)
(0 0 0.0119266)
(0 0 0.0119479)
(0 0 0.0119665)
(0 0 0.0119822)
(0 0 0.0119951)
(0 0 0.0120052)
(0 0 0.0120125)
(0 0 0.012017)
(0 0 0.0120187)
(0 0 0.0120176)
(0 0 0.0120138)
(0 0 0.0120072)
(0 0 0.0119979)
(0 0 0.0119858)
(0 0 0.0119711)
(0 0 0.0119537)
(0 0 0.0119336)
(0 0 0.0119109)
(0 0 0.0118856)
(0 0 0.0118577)
(0 0 0.0118273)
(0 0 0.0117944)
(0 0 0.011759)
(0 0 0.0117212)
(0 0 0.011681)
(0 0 0.0116384)
(0 0 0.0115936)
(0 0 0.0115464)
(0 0 0.011497)
(0 0 0.0114453)
(0 0 0.0113916)
(0 0 0.0113357)
(0 0 0.0112777)
(0 0 0.0112178)
(0 0 0.0111558)
(0 0 0.0110919)
(0 0 0.0110261)
(0 0 0.0109585)
(0 0 0.0108891)
(0 0 0.0108179)
(0 0 0.0107451)
(0 0 0.0106705)
(0 0 0.0105944)
(0 0 0.0105167)
(0 0 0.0104375)
(0 0 0.0103568)
(0 0 0.0102747)
(0 0 0.0101912)
(0 0 0.0101064)
(0 0 0.0100203)
(0 0 0.00993296)
(0 0 0.0098444)
(0 0 0.00975468)
(0 0 0.00966385)
(0 0 0.00957194)
(0 0 0.00947899)
(0 0 0.00938505)
(0 0 0.00929015)
(0 0 0.00919434)
(0 0 0.00909765)
(0 0 0.00900012)
(0 0 0.00890178)
(0 0 0.00880268)
(0 0 0.00870284)
(0 0 0.00860231)
(0 0 0.00850111)
(0 0 0.00839928)
(0 0 0.00829684)
(0 0 0.00819383)
(0 0 0.00809029)
(0 0 0.00798623)
(0 0 0.00788169)
(0 0 0.00777669)
(0 0 0.00767126)
(0 0 0.00756543)
(0 0 0.00745922)
(0 0 0.00735266)
(0 0 0.00724576)
(0 0 0.00713855)
(0 0 0.00703106)
(0 0 0.0069233)
(0 0 0.00681529)
(0 0 0.00670706)
(0 0 0.00659862)
(0 0 0.00648998)
(0 0 0.00638117)
(0 0 0.0062722)
(0 0 0.00616309)
(0 0 0.00605385)
(0 0 0.0059445)
(0 0 0.00583505)
(0 0 0.00572551)
(0 0 0.00561589)
(0 0 0.00550621)
(0 0 0.00539648)
(0 0 0.00528671)
(0 0 0.0051769)
(0 0 0.00506707)
(0 0 0.00495722)
(0 0 0.00484736)
(0 0 0.00473751)
(0 0 0.00462766)
(0 0 0.00451783)
(0 0 0.00440801)
(0 0 0.00429822)
(0 0 0.00418846)
(0 0 0.00407874)
(0 0 0.00396905)
(0 0 0.00385941)
(0 0 0.00374981)
(0 0 0.00364026)
(0 0 0.00353076)
(0 0 0.00342132)
(0 0 0.00331193)
(0 0 0.0032026)
(0 0 0.00309332)
(0 0 0.00298411)
(0 0 0.00287495)
(0 0 0.00276586)
(0 0 0.00265682)
(0 0 0.00254784)
(0 0 0.00243892)
(0 0 0.00233006)
(0 0 0.00222126)
(0 0 0.00211251)
(0 0 0.00200382)
(0 0 0.00189518)
(0 0 0.00178659)
(0 0 0.00167805)
(0 0 0.00156956)
(0 0 0.00146111)
(0 0 0.0013527)
(0 0 0.00124434)
(0 0 0.00113601)
(0 0 0.00102771)
(0 0 0.000919446)
(0 0 0.000811209)
(0 0 0.000702997)
(0 0 0.000594806)
(0 0 0.000486634)
(0 0 0.000378478)
(0 0 0.000270333)
(0 0 0.000162196)
(0 0 5.40649e-05)
(0 0 8.17393e-05)
(0 0 0.000245221)
(0 0 0.000408711)
(0 0 0.000572215)
(0 0 0.000735739)
(0 0 0.000899288)
(0 0 0.00106287)
(0 0 0.00122648)
(0 0 0.00139014)
(0 0 0.00155384)
(0 0 0.00171759)
(0 0 0.00188139)
(0 0 0.00204526)
(0 0 0.00220918)
(0 0 0.00237316)
(0 0 0.00253722)
(0 0 0.00270134)
(0 0 0.00286553)
(0 0 0.00302979)
(0 0 0.00319412)
(0 0 0.00335852)
(0 0 0.00352299)
(0 0 0.00368753)
(0 0 0.00385213)
(0 0 0.00401679)
(0 0 0.00418152)
(0 0 0.0043463)
(0 0 0.00451112)
(0 0 0.00467599)
(0 0 0.00484089)
(0 0 0.00500581)
(0 0 0.00517076)
(0 0 0.0053357)
(0 0 0.00550064)
(0 0 0.00566556)
(0 0 0.00583045)
(0 0 0.00599529)
(0 0 0.00616007)
(0 0 0.00632476)
(0 0 0.00648935)
(0 0 0.00665383)
(0 0 0.00681816)
(0 0 0.00698232)
(0 0 0.0071463)
(0 0 0.00731006)
(0 0 0.00747358)
(0 0 0.00763683)
(0 0 0.00779978)
(0 0 0.00796239)
(0 0 0.00812465)
(0 0 0.0082865)
(0 0 0.00844792)
(0 0 0.00860887)
(0 0 0.00876931)
(0 0 0.0089292)
(0 0 0.00908849)
(0 0 0.00924715)
(0 0 0.00940512)
(0 0 0.00956237)
(0 0 0.00971884)
(0 0 0.00987448)
(0 0 0.0100292)
(0 0 0.0101831)
(0 0 0.0103359)
(0 0 0.0104878)
(0 0 0.0106385)
(0 0 0.0107881)
(0 0 0.0109364)
(0 0 0.0110835)
(0 0 0.0112293)
(0 0 0.0113737)
(0 0 0.0115166)
(0 0 0.011658)
(0 0 0.0117978)
(0 0 0.011936)
(0 0 0.0120724)
(0 0 0.0122071)
(0 0 0.0123399)
(0 0 0.0124709)
(0 0 0.0125998)
(0 0 0.0127267)
(0 0 0.0128514)
(0 0 0.012974)
(0 0 0.0130944)
(0 0 0.0132124)
(0 0 0.013328)
(0 0 0.0134412)
(0 0 0.0135519)
(0 0 0.01366)
(0 0 0.0137654)
(0 0 0.0138682)
(0 0 0.0139681)
(0 0 0.0140653)
(0 0 0.0141596)
(0 0 0.0142509)
(0 0 0.0143392)
(0 0 0.0144245)
(0 0 0.0145067)
(0 0 0.0145857)
(0 0 0.0146616)
(0 0 0.0147342)
(0 0 0.0148035)
(0 0 0.0148694)
(0 0 0.014932)
(0 0 0.0149912)
(0 0 0.015047)
(0 0 0.0150993)
(0 0 0.0151481)
(0 0 0.0151934)
(0 0 0.0152352)
(0 0 0.0152734)
(0 0 0.015308)
(0 0 0.015339)
(0 0 0.0153664)
(0 0 0.0153903)
(0 0 0.0154105)
(0 0 0.0154271)
(0 0 0.01544)
(0 0 0.0154494)
(0 0 0.0154552)
(0 0 0.0154574)
(0 0 0.015456)
(0 0 0.015451)
(0 0 0.0154425)
(0 0 0.0154305)
(0 0 0.015415)
(0 0 0.015396)
(0 0 0.0153735)
(0 0 0.0153477)
(0 0 0.0153185)
(0 0 0.0152859)
(0 0 0.01525)
(0 0 0.0152109)
(0 0 0.0151685)
(0 0 0.0151229)
(0 0 0.0150743)
(0 0 0.0150225)
(0 0 0.0149677)
(0 0 0.0149099)
(0 0 0.0148492)
(0 0 0.0147856)
(0 0 0.0147191)
(0 0 0.0146499)
(0 0 0.014578)
(0 0 0.0145034)
(0 0 0.0144262)
(0 0 0.0143465)
(0 0 0.0142643)
(0 0 0.0141796)
(0 0 0.0140926)
(0 0 0.0140033)
(0 0 0.0139117)
(0 0 0.0138179)
(0 0 0.013722)
(0 0 0.0136241)
(0 0 0.0135241)
(0 0 0.0134222)
(0 0 0.0133184)
(0 0 0.0132127)
(0 0 0.0131053)
(0 0 0.0129962)
(0 0 0.0128854)
(0 0 0.012773)
(0 0 0.0126591)
(0 0 0.0125437)
(0 0 0.0124268)
(0 0 0.0123086)
(0 0 0.012189)
(0 0 0.0120681)
(0 0 0.0119461)
(0 0 0.0118228)
(0 0 0.0116984)
(0 0 0.011573)
(0 0 0.0114465)
(0 0 0.011319)
(0 0 0.0111906)
(0 0 0.0110613)
(0 0 0.0109311)
(0 0 0.0108001)
(0 0 0.0106683)
(0 0 0.0105359)
(0 0 0.0104027)
(0 0 0.0102688)
(0 0 0.0101344)
(0 0 0.00999934)
(0 0 0.00986375)
(0 0 0.00972764)
(0 0 0.00959104)
(0 0 0.00945399)
(0 0 0.00931651)
(0 0 0.00917864)
(0 0 0.0090404)
(0 0 0.00890181)
(0 0 0.00876291)
(0 0 0.00862372)
(0 0 0.00848427)
(0 0 0.00834456)
(0 0 0.00820464)
(0 0 0.00806451)
(0 0 0.0079242)
(0 0 0.00778372)
(0 0 0.0076431)
(0 0 0.00750236)
(0 0 0.0073615)
(0 0 0.00722055)
(0 0 0.00707951)
(0 0 0.00693841)
(0 0 0.00679725)
(0 0 0.00665605)
(0 0 0.00651483)
(0 0 0.00637358)
(0 0 0.00623233)
(0 0 0.00609107)
(0 0 0.00594983)
(0 0 0.0058086)
(0 0 0.0056674)
(0 0 0.00552624)
(0 0 0.00538511)
(0 0 0.00524403)
(0 0 0.00510299)
(0 0 0.00496202)
(0 0 0.0048211)
(0 0 0.00468025)
(0 0 0.00453946)
(0 0 0.00439874)
(0 0 0.0042581)
(0 0 0.00411753)
(0 0 0.00397703)
(0 0 0.00383661)
(0 0 0.00369627)
(0 0 0.003556)
(0 0 0.00341581)
(0 0 0.0032757)
(0 0 0.00313566)
(0 0 0.0029957)
(0 0 0.00285581)
(0 0 0.002716)
(0 0 0.00257625)
(0 0 0.00243657)
(0 0 0.00229696)
(0 0 0.00215742)
(0 0 0.00201793)
(0 0 0.0018785)
(0 0 0.00173912)
(0 0 0.0015998)
(0 0 0.00146052)
(0 0 0.00132129)
(0 0 0.0011821)
(0 0 0.00104294)
(0 0 0.000903816)
(0 0 0.00076472)
(0 0 0.000625647)
(0 0 0.000486594)
(0 0 0.000347556)
(0 0 0.000208529)
(0 0 6.95091e-05)
(0 0 9.98978e-05)
(0 0 0.000299697)
(0 0 0.000499507)
(0 0 0.000699334)
(0 0 0.000899185)
(0 0 0.00109907)
(0 0 0.00129899)
(0 0 0.00149895)
(0 0 0.00169897)
(0 0 0.00189904)
(0 0 0.00209917)
(0 0 0.00229937)
(0 0 0.00249963)
(0 0 0.00269998)
(0 0 0.0029004)
(0 0 0.0031009)
(0 0 0.00330149)
(0 0 0.00350217)
(0 0 0.00370293)
(0 0 0.00390378)
(0 0 0.00410471)
(0 0 0.00430574)
(0 0 0.00450684)
(0 0 0.00470803)
(0 0 0.0049093)
(0 0 0.00511064)
(0 0 0.00531204)
(0 0 0.00551351)
(0 0 0.00571503)
(0 0 0.00591659)
(0 0 0.00611819)
(0 0 0.0063198)
(0 0 0.00652143)
(0 0 0.00672305)
(0 0 0.00692465)
(0 0 0.00712621)
(0 0 0.00732771)
(0 0 0.00752914)
(0 0 0.00773047)
(0 0 0.00793168)
(0 0 0.00813275)
(0 0 0.00833364)
(0 0 0.00853434)
(0 0 0.0087348)
(0 0 0.00893501)
(0 0 0.00913493)
(0 0 0.00933451)
(0 0 0.00953374)
(0 0 0.00973256)
(0 0 0.00993094)
(0 0 0.0101288)
(0 0 0.0103262)
(0 0 0.010523)
(0 0 0.0107192)
(0 0 0.0109147)
(0 0 0.0111095)
(0 0 0.0113035)
(0 0 0.0114966)
(0 0 0.0116889)
(0 0 0.0118803)
(0 0 0.0120706)
(0 0 0.0122599)
(0 0 0.012448)
(0 0 0.0126349)
(0 0 0.0128206)
(0 0 0.0130049)
(0 0 0.0131879)
(0 0 0.0133693)
(0 0 0.0135492)
(0 0 0.0137275)
(0 0 0.0139041)
(0 0 0.0140789)
(0 0 0.0142519)
(0 0 0.0144229)
(0 0 0.0145919)
(0 0 0.0147588)
(0 0 0.0149236)
(0 0 0.015086)
(0 0 0.0152462)
(0 0 0.0154039)
(0 0 0.0155591)
(0 0 0.0157118)
(0 0 0.0158617)
(0 0 0.0160089)
(0 0 0.0161533)
(0 0 0.0162948)
(0 0 0.0164333)
(0 0 0.0165687)
(0 0 0.0167009)
(0 0 0.0168299)
(0 0 0.0169556)
(0 0 0.0170779)
(0 0 0.0171968)
(0 0 0.0173121)
(0 0 0.0174239)
(0 0 0.0175319)
(0 0 0.0176363)
(0 0 0.0177368)
(0 0 0.0178335)
(0 0 0.0179263)
(0 0 0.0180151)
(0 0 0.0180999)
(0 0 0.0181806)
(0 0 0.0182572)
(0 0 0.0183296)
(0 0 0.0183979)
(0 0 0.0184618)
(0 0 0.0185216)
(0 0 0.018577)
(0 0 0.018628)
(0 0 0.0186747)
(0 0 0.0187171)
(0 0 0.018755)
(0 0 0.0187886)
(0 0 0.0188177)
(0 0 0.0188424)
(0 0 0.0188627)
(0 0 0.0188785)
(0 0 0.01889)
(0 0 0.018897)
(0 0 0.0188996)
(0 0 0.0188979)
(0 0 0.0188918)
(0 0 0.0188814)
(0 0 0.0188666)
(0 0 0.0188476)
(0 0 0.0188243)
(0 0 0.0187968)
(0 0 0.0187652)
(0 0 0.0187294)
(0 0 0.0186895)
(0 0 0.0186455)
(0 0 0.0185976)
(0 0 0.0185457)
(0 0 0.01849)
(0 0 0.0184304)
(0 0 0.018367)
(0 0 0.0182999)
(0 0 0.0182292)
(0 0 0.0181549)
(0 0 0.018077)
(0 0 0.0179957)
(0 0 0.017911)
(0 0 0.017823)
(0 0 0.0177317)
(0 0 0.0176372)
(0 0 0.0175397)
(0 0 0.017439)
(0 0 0.0173355)
(0 0 0.017229)
(0 0 0.0171197)
(0 0 0.0170076)
(0 0 0.0168929)
(0 0 0.0167756)
(0 0 0.0166557)
(0 0 0.0165334)
(0 0 0.0164087)
(0 0 0.0162817)
(0 0 0.0161525)
(0 0 0.0160211)
(0 0 0.0158876)
(0 0 0.0157521)
(0 0 0.0156146)
(0 0 0.0154752)
(0 0 0.0153341)
(0 0 0.0151911)
(0 0 0.0150465)
(0 0 0.0149002)
(0 0 0.0147524)
(0 0 0.0146031)
(0 0 0.0144524)
(0 0 0.0143003)
(0 0 0.0141468)
(0 0 0.0139921)
(0 0 0.0138362)
(0 0 0.0136792)
(0 0 0.0135211)
(0 0 0.0133619)
(0 0 0.0132017)
(0 0 0.0130406)
(0 0 0.0128786)
(0 0 0.0127157)
(0 0 0.0125521)
(0 0 0.0123877)
(0 0 0.0122225)
(0 0 0.0120567)
(0 0 0.0118903)
(0 0 0.0117233)
(0 0 0.0115557)
(0 0 0.0113877)
(0 0 0.0112191)
(0 0 0.0110501)
(0 0 0.0108806)
(0 0 0.0107108)
(0 0 0.0105407)
(0 0 0.0103702)
(0 0 0.0101994)
(0 0 0.0100283)
(0 0 0.009857)
(0 0 0.00968547)
(0 0 0.00951374)
(0 0 0.00934184)
(0 0 0.00916978)
(0 0 0.00899759)
(0 0 0.00882528)
(0 0 0.00865288)
(0 0 0.00848039)
(0 0 0.00830784)
(0 0 0.00813524)
(0 0 0.00796261)
(0 0 0.00778995)
(0 0 0.00761729)
(0 0 0.00744463)
(0 0 0.00727198)
(0 0 0.00709935)
(0 0 0.00692676)
(0 0 0.00675421)
(0 0 0.00658171)
(0 0 0.00640926)
(0 0 0.00623688)
(0 0 0.00606457)
(0 0 0.00589233)
(0 0 0.00572017)
(0 0 0.00554809)
(0 0 0.0053761)
(0 0 0.00520419)
(0 0 0.00503238)
(0 0 0.00486066)
(0 0 0.00468903)
(0 0 0.0045175)
(0 0 0.00434606)
(0 0 0.00417472)
(0 0 0.00400348)
(0 0 0.00383232)
(0 0 0.00366126)
(0 0 0.00349029)
(0 0 0.00331941)
(0 0 0.00314861)
(0 0 0.0029779)
(0 0 0.00280727)
(0 0 0.00263672)
(0 0 0.00246624)
(0 0 0.00229583)
(0 0 0.00212549)
(0 0 0.00195522)
(0 0 0.001785)
(0 0 0.00161483)
(0 0 0.00144471)
(0 0 0.00127464)
(0 0 0.00110461)
(0 0 0.000934609)
(0 0 0.00076464)
(0 0 0.000594695)
(0 0 0.000424769)
(0 0 0.000254856)
(0 0 8.49511e-05)
(0 0 0.000118053)
(0 0 0.000354162)
(0 0 0.000590285)
(0 0 0.000826428)
(0 0 0.0010626)
(0 0 0.00129881)
(0 0 0.00153506)
(0 0 0.00177137)
(0 0 0.00200774)
(0 0 0.00224417)
(0 0 0.00248068)
(0 0 0.00271727)
(0 0 0.00295394)
(0 0 0.0031907)
(0 0 0.00342755)
(0 0 0.00366451)
(0 0 0.00390156)
(0 0 0.00413872)
(0 0 0.00437598)
(0 0 0.00461335)
(0 0 0.00485082)
(0 0 0.0050884)
(0 0 0.00532608)
(0 0 0.00556386)
(0 0 0.00580173)
(0 0 0.00603969)
(0 0 0.00627773)
(0 0 0.00651585)
(0 0 0.00675403)
(0 0 0.00699226)
(0 0 0.00723054)
(0 0 0.00746884)
(0 0 0.00770716)
(0 0 0.00794548)
(0 0 0.00818377)
(0 0 0.00842202)
(0 0 0.00866021)
(0 0 0.00889831)
(0 0 0.0091363)
(0 0 0.00937415)
(0 0 0.00961184)
(0 0 0.00984932)
(0 0 0.0100866)
(0 0 0.0103236)
(0 0 0.0105603)
(0 0 0.0107966)
(0 0 0.0110326)
(0 0 0.0112681)
(0 0 0.0115032)
(0 0 0.0117377)
(0 0 0.0119717)
(0 0 0.0122051)
(0 0 0.0124377)
(0 0 0.0126697)
(0 0 0.0129009)
(0 0 0.0131312)
(0 0 0.0133606)
(0 0 0.013589)
(0 0 0.0138164)
(0 0 0.0140427)
(0 0 0.0142678)
(0 0 0.0144916)
(0 0 0.0147141)
(0 0 0.0149352)
(0 0 0.0151548)
(0 0 0.0153728)
(0 0 0.0155892)
(0 0 0.0158038)
(0 0 0.0160166)
(0 0 0.0162275)
(0 0 0.0164363)
(0 0 0.0166431)
(0 0 0.0168477)
(0 0 0.01705)
(0 0 0.0172499)
(0 0 0.0174474)
(0 0 0.0176423)
(0 0 0.0178345)
(0 0 0.0180239)
(0 0 0.0182105)
(0 0 0.0183942)
(0 0 0.0185748)
(0 0 0.0187522)
(0 0 0.0189264)
(0 0 0.0190972)
(0 0 0.0192646)
(0 0 0.0194284)
(0 0 0.0195886)
(0 0 0.0197451)
(0 0 0.0198977)
(0 0 0.0200464)
(0 0 0.0201912)
(0 0 0.0203318)
(0 0 0.0204683)
(0 0 0.0206005)
(0 0 0.0207284)
(0 0 0.0208518)
(0 0 0.0209708)
(0 0 0.0210852)
(0 0 0.021195)
(0 0 0.0213001)
(0 0 0.0214004)
(0 0 0.0214959)
(0 0 0.0215865)
(0 0 0.0216722)
(0 0 0.0217529)
(0 0 0.0218286)
(0 0 0.0218993)
(0 0 0.0219648)
(0 0 0.0220252)
(0 0 0.0220805)
(0 0 0.0221306)
(0 0 0.0221754)
(0 0 0.0222151)
(0 0 0.0222495)
(0 0 0.0222787)
(0 0 0.0223027)
(0 0 0.0223214)
(0 0 0.0223349)
(0 0 0.0223432)
(0 0 0.0223463)
(0 0 0.0223442)
(0 0 0.0223369)
(0 0 0.0223245)
(0 0 0.022307)
(0 0 0.0222845)
(0 0 0.0222569)
(0 0 0.0222243)
(0 0 0.0221868)
(0 0 0.0221444)
(0 0 0.0220971)
(0 0 0.0220451)
(0 0 0.0219883)
(0 0 0.0219269)
(0 0 0.0218609)
(0 0 0.0217903)
(0 0 0.0217153)
(0 0 0.0216358)
(0 0 0.0215521)
(0 0 0.0214641)
(0 0 0.0213719)
(0 0 0.0212757)
(0 0 0.0211754)
(0 0 0.0210712)
(0 0 0.0209632)
(0 0 0.0208514)
(0 0 0.0207359)
(0 0 0.0206168)
(0 0 0.0204942)
(0 0 0.0203682)
(0 0 0.0202388)
(0 0 0.0201063)
(0 0 0.0199705)
(0 0 0.0198317)
(0 0 0.0196899)
(0 0 0.0195451)
(0 0 0.0193976)
(0 0 0.0192474)
(0 0 0.0190945)
(0 0 0.018939)
(0 0 0.0187811)
(0 0 0.0186207)
(0 0 0.0184581)
(0 0 0.0182932)
(0 0 0.0181262)
(0 0 0.0179571)
(0 0 0.0177861)
(0 0 0.0176131)
(0 0 0.0174382)
(0 0 0.0172617)
(0 0 0.0170834)
(0 0 0.0169034)
(0 0 0.016722)
(0 0 0.016539)
(0 0 0.0163546)
(0 0 0.0161689)
(0 0 0.0159819)
(0 0 0.0157937)
(0 0 0.0156042)
(0 0 0.0154137)
(0 0 0.0152221)
(0 0 0.0150296)
(0 0 0.0148361)
(0 0 0.0146417)
(0 0 0.0144464)
(0 0 0.0142504)
(0 0 0.0140536)
(0 0 0.0138561)
(0 0 0.013658)
(0 0 0.0134593)
(0 0 0.01326)
(0 0 0.0130602)
(0 0 0.0128599)
(0 0 0.0126591)
(0 0 0.0124579)
(0 0 0.0122564)
(0 0 0.0120544)
(0 0 0.0118522)
(0 0 0.0116497)
(0 0 0.0114469)
(0 0 0.0112439)
(0 0 0.0110407)
(0 0 0.0108373)
(0 0 0.0106338)
(0 0 0.0104301)
(0 0 0.0102263)
(0 0 0.0100224)