/*--------------------------------*- C++ -*----------------------------------*\
| =========                 |                                                 |
| \\      /  F ield         | OpenFOAM: The Open Source CFD Toolbox           |
|  \\    /   O peration     | Version:  v2012                                 |
|   \\  /    A nd           | Website:  www.openfoam.com                      |
|    \\/     M anipulation  |                                                 |
\*---------------------------------------------------------------------------*/
FoamFile
{
    version     2.0;
    format      ascii;
    class       volVectorField;
    location    "11";
    object      U;
}
// * * * * * * * * * * * * * * * * * * * * * * * * * * * * * * * * * * * * * //

dimensions      [0 1 -1 0 0 0 0];


internalField   nonuniform List<vector> 
65536
(
(0.000741067 -0.000741079 0)
(0.00222323 -0.000741104 0)
(0.00370546 -0.000741153 0)
(0.00518782 -0.000741226 0)
(0.00667034 -0.000741323 0)
(0.00815309 -0.000741442 0)
(0.00963609 -0.000741584 0)
(0.0111194 -0.000741747 0)
(0.0126031 -0.000741931 0)
(0.0140871 -0.000742134 0)
(0.0155716 -0.000742354 0)
(0.0170565 -0.000742591 0)
(0.0185419 -0.000742842 0)
(0.0200279 -0.000743106 0)
(0.0215143 -0.000743381 0)
(0.0230014 -0.000743665 0)
(0.024489 -0.000743955 0)
(0.0259772 -0.000744248 0)
(0.027466 -0.000744544 0)
(0.0289554 -0.000744837 0)
(0.0304453 -0.000745127 0)
(0.0319359 -0.000745409 0)
(0.033427 -0.00074568 0)
(0.0349186 -0.000745937 0)
(0.0364108 -0.000746177 0)
(0.0379034 -0.000746395 0)
(0.0393964 -0.000746588 0)
(0.0408897 -0.000746751 0)
(0.0423834 -0.000746882 0)
(0.0438773 -0.000746974 0)
(0.0453713 -0.000747024 0)
(0.0468654 -0.000747028 0)
(0.0483595 -0.000746979 0)
(0.0498534 -0.000746874 0)
(0.0513471 -0.000746706 0)
(0.0528403 -0.000746472 0)
(0.054333 -0.000746165 0)
(0.0558251 -0.00074578 0)
(0.0573162 -0.000745312 0)
(0.0588064 -0.000744753 0)
(0.0602953 -0.000744099 0)
(0.0617829 -0.000743344 0)
(0.0632688 -0.000742481 0)
(0.0647529 -0.000741504 0)
(0.066235 -0.000740406 0)
(0.0677147 -0.000739182 0)
(0.0691918 -0.000737825 0)
(0.0706661 -0.000736327 0)
(0.0721373 -0.000734683 0)
(0.073605 -0.000732885 0)
(0.075069 -0.000730928 0)
(0.0765289 -0.000728803 0)
(0.0779844 -0.000726505 0)
(0.0794351 -0.000724026 0)
(0.0808807 -0.00072136 0)
(0.0823207 -0.0007185 0)
(0.0837548 -0.000715438 0)
(0.0851827 -0.00071217 0)
(0.0866037 -0.000708687 0)
(0.0880176 -0.000704984 0)
(0.0894239 -0.000701054 0)
(0.0908221 -0.00069689 0)
(0.0922117 -0.000692487 0)
(0.0935923 -0.000687839 0)
(0.0949633 -0.00068294 0)
(0.0963243 -0.000677784 0)
(0.0976747 -0.000672366 0)
(0.099014 -0.000666681 0)
(0.100342 -0.000660724 0)
(0.101657 -0.000654491 0)
(0.10296 -0.000647977 0)
(0.104249 -0.000641179 0)
(0.105525 -0.000634092 0)
(0.106786 -0.000626714 0)
(0.108032 -0.000619042 0)
(0.109262 -0.000611074 0)
(0.110477 -0.000602807 0)
(0.111674 -0.000594239 0)
(0.112854 -0.000585371 0)
(0.114016 -0.0005762 0)
(0.115159 -0.000566728 0)
(0.116283 -0.000556954 0)
(0.117387 -0.000546879 0)
(0.118471 -0.000536505 0)
(0.119533 -0.000525832 0)
(0.120574 -0.000514865 0)
(0.121593 -0.000503605 0)
(0.122589 -0.000492057 0)
(0.123562 -0.000480223 0)
(0.12451 -0.00046811 0)
(0.125434 -0.000455721 0)
(0.126333 -0.000443063 0)
(0.127207 -0.000430141 0)
(0.128054 -0.000416963 0)
(0.128875 -0.000403535 0)
(0.129669 -0.000389866 0)
(0.130435 -0.000375964 0)
(0.131173 -0.000361836 0)
(0.131882 -0.000347493 0)
(0.132563 -0.000332945 0)
(0.133214 -0.0003182 0)
(0.133836 -0.00030327 0)
(0.134428 -0.000288165 0)
(0.134989 -0.000272897 0)
(0.135519 -0.000257477 0)
(0.136019 -0.000241918 0)
(0.136487 -0.00022623 0)
(0.136924 -0.000210426 0)
(0.137329 -0.00019452 0)
(0.137702 -0.000178524 0)
(0.138043 -0.00016245 0)
(0.138352 -0.000146312 0)
(0.138628 -0.000130123 0)
(0.138872 -0.000113896 0)
(0.139084 -9.76438e-05 0)
(0.139263 -8.13806e-05 0)
(0.139409 -6.51191e-05 0)
(0.139523 -4.88724e-05 0)
(0.139605 -3.26536e-05 0)
(0.139654 -1.64755e-05 0)
(0.139671 -3.50839e-07 0)
(0.139655 1.57078e-05 0)
(0.139608 3.16881e-05 0)
(0.139528 4.75781e-05 0)
(0.139417 6.33659e-05 0)
(0.139275 7.90399e-05 0)
(0.139101 9.4589e-05 0)
(0.138896 0.000110002 0)
(0.138661 0.000125269 0)
(0.138395 0.00014038 0)
(0.138099 0.000155325 0)
(0.137774 0.000170094 0)
(0.137419 0.000184678 0)
(0.137035 0.00019907 0)
(0.136622 0.000213261 0)
(0.136182 0.000227243 0)
(0.135713 0.000241009 0)
(0.135217 0.000254553 0)
(0.134695 0.000267868 0)
(0.134146 0.000280949 0)
(0.133571 0.000293791 0)
(0.13297 0.000306387 0)
(0.132345 0.000318735 0)
(0.131695 0.00033083 0)
(0.131021 0.000342669 0)
(0.130324 0.000354248 0)
(0.129604 0.000365566 0)
(0.128862 0.00037662 0)
(0.128097 0.000387408 0)
(0.127312 0.000397929 0)
(0.126505 0.000408182 0)
(0.125679 0.000418167 0)
(0.124832 0.000427883 0)
(0.123967 0.00043733 0)
(0.123083 0.000446511 0)
(0.12218 0.000455424 0)
(0.121261 0.000464071 0)
(0.120324 0.000472455 0)
(0.119371 0.000480576 0)
(0.118401 0.000488438 0)
(0.117417 0.000496041 0)
(0.116417 0.00050339 0)
(0.115403 0.000510487 0)
(0.114375 0.000517334 0)
(0.113333 0.000523936 0)
(0.112279 0.000530296 0)
(0.111212 0.000536417 0)
(0.110133 0.000542303 0)
(0.109042 0.000547958 0)
(0.107941 0.000553388 0)
(0.106829 0.000558594 0)
(0.105706 0.000563583 0)
(0.104574 0.000568358 0)
(0.103433 0.000572925 0)
(0.102282 0.000577287 0)
(0.101123 0.00058145 0)
(0.0999562 0.000585418 0)
(0.0987814 0.000589195 0)
(0.0975992 0.000592788 0)
(0.09641 0.000596201 0)
(0.0952142 0.000599438 0)
(0.0940121 0.000602504 0)
(0.0928041 0.000605405 0)
(0.0915903 0.000608145 0)
(0.0903713 0.000610729 0)
(0.0891473 0.000613163 0)
(0.0879185 0.00061545 0)
(0.0866853 0.000617596 0)
(0.085448 0.000619605 0)
(0.0842068 0.000621482 0)
(0.082962 0.000623232 0)
(0.0817137 0.00062486 0)
(0.0804624 0.000626369 0)
(0.0792082 0.000627765 0)
(0.0779512 0.000629052 0)
(0.0766918 0.000630234 0)
(0.0754302 0.000631316 0)
(0.0741665 0.000632302 0)
(0.0729009 0.000633195 0)
(0.0716336 0.000634001 0)
(0.0703648 0.000634722 0)
(0.0690946 0.000635364 0)
(0.0678233 0.00063593 0)
(0.0665509 0.000636423 0)
(0.0652775 0.000636848 0)
(0.0640034 0.000637207 0)
(0.0627286 0.000637506 0)
(0.0614533 0.000637746 0)
(0.0601776 0.000637931 0)
(0.0589016 0.000638065 0)
(0.0576253 0.00063815 0)
(0.0563489 0.000638191 0)
(0.0550725 0.000638189 0)
(0.0537961 0.000638149 0)
(0.0525199 0.000638071 0)
(0.0512438 0.000637961 0)
(0.049968 0.000637819 0)
(0.0486925 0.00063765 0)
(0.0474174 0.000637455 0)
(0.0461427 0.000637236 0)
(0.0448684 0.000636997 0)
(0.0435947 0.000636739 0)
(0.0423214 0.000636465 0)
(0.0410488 0.000636177 0)
(0.0397767 0.000635876 0)
(0.0385053 0.000635566 0)
(0.0372344 0.000635247 0)
(0.0359643 0.000634922 0)
(0.0346948 0.000634593 0)
(0.0334259 0.000634261 0)
(0.0321577 0.000633927 0)
(0.0308902 0.000633594 0)
(0.0296233 0.000633263 0)
(0.0283572 0.000632935 0)
(0.0270916 0.000632612 0)
(0.0258267 0.000632295 0)
(0.0245624 0.000631985 0)
(0.0232988 0.000631683 0)
(0.0220357 0.000631391 0)
(0.0207732 0.00063111 0)
(0.0195113 0.00063084 0)
(0.0182499 0.000630582 0)
(0.016989 0.000630338 0)
(0.0157286 0.000630108 0)
(0.0144686 0.000629893 0)
(0.013209 0.000629693 0)
(0.0119498 0.00062951 0)
(0.010691 0.000629343 0)
(0.00943246 0.000629194 0)
(0.00817422 0.000629062 0)
(0.00691623 0.000628949 0)
(0.00565844 0.000628854 0)
(0.00440083 0.000628777 0)
(0.00314336 0.00062872 0)
(0.00188598 0.000628681 0)
(0.000628652 0.000628662 0)
(0.000741044 -0.00222322 0)
(0.00222316 -0.00222329 0)
(0.00370534 -0.00222344 0)
(0.00518765 -0.00222366 0)
(0.00667013 -0.00222395 0)
(0.00815283 -0.00222431 0)
(0.00963579 -0.00222473 0)
(0.0111191 -0.00222522 0)
(0.0126027 -0.00222578 0)
(0.0140867 -0.00222638 0)
(0.0155711 -0.00222705 0)
(0.017056 -0.00222776 0)
(0.0185414 -0.00222852 0)
(0.0200273 -0.00222931 0)
(0.0215138 -0.00223014 0)
(0.0230008 -0.00223099 0)
(0.0244884 -0.00223186 0)
(0.0259766 -0.00223275 0)
(0.0274654 -0.00223363 0)
(0.0289548 -0.00223452 0)
(0.0304448 -0.00223539 0)
(0.0319354 -0.00223624 0)
(0.0334265 -0.00223705 0)
(0.0349181 -0.00223783 0)
(0.0364103 -0.00223855 0)
(0.037903 -0.00223921 0)
(0.039396 -0.00223979 0)
(0.0408895 -0.00224029 0)
(0.0423832 -0.00224068 0)
(0.0438772 -0.00224097 0)
(0.0453713 -0.00224112 0)
(0.0468655 -0.00224114 0)
(0.0483597 -0.00224099 0)
(0.0498537 -0.00224068 0)
(0.0513475 -0.00224019 0)
(0.0528409 -0.00223949 0)
(0.0543337 -0.00223857 0)
(0.0558259 -0.00223742 0)
(0.0573173 -0.00223602 0)
(0.0588076 -0.00223435 0)
(0.0602968 -0.0022324 0)
(0.0617845 -0.00223014 0)
(0.0632707 -0.00222756 0)
(0.064755 -0.00222463 0)
(0.0662373 -0.00222135 0)
(0.0677173 -0.00221768 0)
(0.0691947 -0.00221361 0)
(0.0706693 -0.00220913 0)
(0.0721407 -0.0022042 0)
(0.0736088 -0.00219882 0)
(0.0750731 -0.00219295 0)
(0.0765333 -0.00218658 0)
(0.0779891 -0.00217969 0)
(0.0794402 -0.00217226 0)
(0.0808862 -0.00216427 0)
(0.0823266 -0.0021557 0)
(0.0837612 -0.00214652 0)
(0.0851894 -0.00213672 0)
(0.0866109 -0.00212628 0)
(0.0880253 -0.00211518 0)
(0.089432 -0.00210339 0)
(0.0908307 -0.00209091 0)
(0.0922208 -0.00207771 0)
(0.0936018 -0.00206377 0)
(0.0949734 -0.00204907 0)
(0.0963349 -0.00203361 0)
(0.0976858 -0.00201736 0)
(0.0990257 -0.00200031 0)
(0.100354 -0.00198245 0)
(0.10167 -0.00196375 0)
(0.102973 -0.00194421 0)
(0.104263 -0.00192382 0)
(0.105539 -0.00190257 0)
(0.106801 -0.00188043 0)
(0.108048 -0.00185742 0)
(0.109279 -0.00183352 0)
(0.110494 -0.00180872 0)
(0.111691 -0.00178302 0)
(0.112872 -0.00175641 0)
(0.114034 -0.0017289 0)
(0.115178 -0.00170048 0)
(0.116303 -0.00167116 0)
(0.117408 -0.00164093 0)
(0.118492 -0.00160981 0)
(0.119555 -0.00157779 0)
(0.120597 -0.00154488 0)
(0.121616 -0.0015111 0)
(0.122613 -0.00147645 0)
(0.123586 -0.00144095 0)
(0.124535 -0.0014046 0)
(0.125459 -0.00136743 0)
(0.126359 -0.00132945 0)
(0.127233 -0.00129068 0)
(0.128081 -0.00125114 0)
(0.128902 -0.00121085 0)
(0.129696 -0.00116983 0)
(0.130463 -0.00112811 0)
(0.131201 -0.00108572 0)
(0.131911 -0.00104268 0)
(0.132592 -0.000999027 0)
(0.133244 -0.000954783 0)
(0.133866 -0.000909982 0)
(0.134458 -0.000864657 0)
(0.135019 -0.000818841 0)
(0.13555 -0.00077257 0)
(0.13605 -0.000725878 0)
(0.136519 -0.000678803 0)
(0.136956 -0.00063138 0)
(0.137361 -0.000583648 0)
(0.137734 -0.000535646 0)
(0.138075 -0.000487411 0)
(0.138384 -0.000438984 0)
(0.138661 -0.000390403 0)
(0.138905 -0.000341709 0)
(0.139116 -0.000292941 0)
(0.139295 -0.000244138 0)
(0.139442 -0.00019534 0)
(0.139556 -0.000146587 0)
(0.139637 -9.79179e-05 0)
(0.139686 -4.93709e-05 0)
(0.139703 -9.84513e-07 0)
(0.139687 4.72037e-05 0)
(0.13964 9.51568e-05 0)
(0.13956 0.000142838 0)
(0.139449 0.000190213 0)
(0.139306 0.000237246 0)
(0.139132 0.000283905 0)
(0.138927 0.000330155 0)
(0.138691 0.000375967 0)
(0.138425 0.000421308 0)
(0.138129 0.000466151 0)
(0.137803 0.000510467 0)
(0.137448 0.000554229 0)
(0.137063 0.000597412 0)
(0.13665 0.000639991 0)
(0.136209 0.000681945 0)
(0.13574 0.000723251 0)
(0.135244 0.000763889 0)
(0.134721 0.000803841 0)
(0.134171 0.000843089 0)
(0.133596 0.000881617 0)
(0.132995 0.000919412 0)
(0.132369 0.000956459 0)
(0.131719 0.000992748 0)
(0.131045 0.00102827 0)
(0.130347 0.00106301 0)
(0.129626 0.00109696 0)
(0.128883 0.00113013 0)
(0.128118 0.00116249 0)
(0.127332 0.00119405 0)
(0.126525 0.00122481 0)
(0.125698 0.00125477 0)
(0.124851 0.00128392 0)
(0.123985 0.00131226 0)
(0.123101 0.0013398 0)
(0.122198 0.00136654 0)
(0.121278 0.00139248 0)
(0.12034 0.00141763 0)
(0.119387 0.00144199 0)
(0.118417 0.00146557 0)
(0.117432 0.00148838 0)
(0.116431 0.00151042 0)
(0.115417 0.00153171 0)
(0.114388 0.00155225 0)
(0.113346 0.00157205 0)
(0.112291 0.00159112 0)
(0.111224 0.00160948 0)
(0.110144 0.00162714 0)
(0.109053 0.0016441 0)
(0.107951 0.00166038 0)
(0.106839 0.001676 0)
(0.105716 0.00169096 0)
(0.104583 0.00170528 0)
(0.103441 0.00171898 0)
(0.102291 0.00173206 0)
(0.101131 0.00174454 0)
(0.0999639 0.00175644 0)
(0.0987887 0.00176777 0)
(0.0976061 0.00177854 0)
(0.0964166 0.00178878 0)
(0.0952205 0.00179848 0)
(0.094018 0.00180768 0)
(0.0928096 0.00181637 0)
(0.0915956 0.00182459 0)
(0.0903763 0.00183234 0)
(0.0891519 0.00183963 0)
(0.0879229 0.00184649 0)
(0.0866894 0.00185292 0)
(0.0854518 0.00185895 0)
(0.0842104 0.00186457 0)
(0.0829653 0.00186982 0)
(0.0817168 0.0018747 0)
(0.0804652 0.00187922 0)
(0.0792108 0.0018834 0)
(0.0779536 0.00188726 0)
(0.076694 0.0018908 0)
(0.0754322 0.00189404 0)
(0.0741683 0.00189699 0)
(0.0729025 0.00189967 0)
(0.0716351 0.00190208 0)
(0.0703661 0.00190425 0)
(0.0690958 0.00190617 0)
(0.0678243 0.00190786 0)
(0.0665517 0.00190934 0)
(0.0652783 0.00191061 0)
(0.064004 0.00191168 0)
(0.0627291 0.00191257 0)
(0.0614537 0.00191329 0)
(0.0601779 0.00191384 0)
(0.0589017 0.00191424 0)
(0.0576254 0.00191449 0)
(0.0563489 0.00191461 0)
(0.0550724 0.0019146 0)
(0.053796 0.00191448 0)
(0.0525196 0.00191425 0)
(0.0512435 0.00191391 0)
(0.0499676 0.00191348 0)
(0.0486921 0.00191297 0)
(0.0474169 0.00191238 0)
(0.0461422 0.00191173 0)
(0.0448679 0.00191101 0)
(0.0435941 0.00191023 0)
(0.0423208 0.00190941 0)
(0.0410482 0.00190854 0)
(0.0397761 0.00190764 0)
(0.0385046 0.0019067 0)
(0.0372338 0.00190575 0)
(0.0359636 0.00190477 0)
(0.0346941 0.00190378 0)
(0.0334252 0.00190278 0)
(0.032157 0.00190178 0)
(0.0308895 0.00190078 0)
(0.0296227 0.00189978 0)
(0.0283565 0.0018988 0)
(0.0270909 0.00189783 0)
(0.0258261 0.00189687 0)
(0.0245618 0.00189594 0)
(0.0232982 0.00189504 0)
(0.0220351 0.00189416 0)
(0.0207727 0.00189332 0)
(0.0195108 0.0018925 0)
(0.0182494 0.00189173 0)
(0.0169885 0.001891 0)
(0.0157281 0.00189031 0)
(0.0144681 0.00188966 0)
(0.0132086 0.00188906 0)
(0.0119495 0.00188851 0)
(0.0106907 0.00188801 0)
(0.00943217 0.00188756 0)
(0.00817397 0.00188717 0)
(0.00691601 0.00188683 0)
(0.00565827 0.00188654 0)
(0.0044007 0.00188631 0)
(0.00314326 0.00188614 0)
(0.00188592 0.00188602 0)
(0.000628633 0.00188597 0)
(0.000740994 -0.00370528 0)
(0.00222301 -0.0037054 0)
(0.0037051 -0.00370565 0)
(0.00518731 -0.00370602 0)
(0.00666969 -0.0037065 0)
(0.0081523 -0.0037071 0)
(0.00963517 -0.00370782 0)
(0.0111184 -0.00370864 0)
(0.0126019 -0.00370956 0)
(0.0140858 -0.00371058 0)
(0.0155702 -0.00371169 0)
(0.017055 -0.00371288 0)
(0.0185404 -0.00371415 0)
(0.0200262 -0.00371548 0)
(0.0215127 -0.00371687 0)
(0.0229997 -0.00371829 0)
(0.0244872 -0.00371976 0)
(0.0259754 -0.00372124 0)
(0.0274642 -0.00372273 0)
(0.0289536 -0.00372421 0)
(0.0304436 -0.00372567 0)
(0.0319342 -0.0037271 0)
(0.0334254 -0.00372847 0)
(0.0349171 -0.00372977 0)
(0.0364094 -0.00373099 0)
(0.0379021 -0.0037321 0)
(0.0393953 -0.00373309 0)
(0.0408888 -0.00373393 0)
(0.0423827 -0.0037346 0)
(0.0438769 -0.00373508 0)
(0.0453712 -0.00373536 0)
(0.0468656 -0.0037354 0)
(0.04836 -0.00373518 0)
(0.0498542 -0.00373468 0)
(0.0513483 -0.00373387 0)
(0.0528419 -0.00373272 0)
(0.0543351 -0.00373122 0)
(0.0558276 -0.00372932 0)
(0.0573193 -0.00372701 0)
(0.05881 -0.00372424 0)
(0.0602996 -0.003721 0)
(0.0617877 -0.00371726 0)
(0.0632743 -0.00371297 0)
(0.0647591 -0.00370812 0)
(0.0662419 -0.00370267 0)
(0.0677224 -0.00369658 0)
(0.0692004 -0.00368982 0)
(0.0706755 -0.00368237 0)
(0.0721476 -0.00367418 0)
(0.0736162 -0.00366523 0)
(0.0750812 -0.00365547 0)
(0.0765421 -0.00364488 0)
(0.0779987 -0.00363342 0)
(0.0794505 -0.00362106 0)
(0.0808972 -0.00360777 0)
(0.0823385 -0.0035935 0)
(0.0837738 -0.00357823 0)
(0.0852029 -0.00356192 0)
(0.0866253 -0.00354454 0)
(0.0880405 -0.00352605 0)
(0.0894482 -0.00350643 0)
(0.0908478 -0.00348564 0)
(0.0922388 -0.00346366 0)
(0.0936209 -0.00344045 0)
(0.0949935 -0.00341598 0)
(0.096356 -0.00339023 0)
(0.097708 -0.00336316 0)
(0.0990489 -0.00333476 0)
(0.100378 -0.003305 0)
(0.101695 -0.00327385 0)
(0.103 -0.0032413 0)
(0.104291 -0.00320733 0)
(0.105568 -0.00317191 0)
(0.106831 -0.00313504 0)
(0.108079 -0.00309669 0)
(0.109311 -0.00305686 0)
(0.110527 -0.00301553 0)
(0.111726 -0.0029727 0)
(0.112908 -0.00292836 0)
(0.114072 -0.00288251 0)
(0.115217 -0.00283514 0)
(0.116343 -0.00278627 0)
(0.117449 -0.00273589 0)
(0.118534 -0.00268401 0)
(0.119598 -0.00263063 0)
(0.120641 -0.00257578 0)
(0.121662 -0.00251947 0)
(0.122659 -0.0024617 0)
(0.123634 -0.00240251 0)
(0.124584 -0.00234192 0)
(0.12551 -0.00227995 0)
(0.12641 -0.00221663 0)
(0.127285 -0.00215198 0)
(0.128134 -0.00208606 0)
(0.128956 -0.00201888 0)
(0.129751 -0.00195049 0)
(0.130519 -0.00188094 0)
(0.131258 -0.00181025 0)
(0.131969 -0.00173849 0)
(0.132651 -0.0016657 0)
(0.133303 -0.00159192 0)
(0.133926 -0.00151722 0)
(0.134519 -0.00144164 0)
(0.135081 -0.00136524 0)
(0.135612 -0.00128808 0)
(0.136113 -0.00121022 0)
(0.136582 -0.00113172 0)
(0.137019 -0.00105264 0)
(0.137425 -0.000973047 0)
(0.137798 -0.000893 0)
(0.13814 -0.000812566 0)
(0.138449 -0.00073181 0)
(0.138726 -0.000650798 0)
(0.13897 -0.000569597 0)
(0.139182 -0.000488272 0)
(0.139361 -0.00040689 0)
(0.139507 -0.000325517 0)
(0.139621 -0.000244219 0)
(0.139702 -0.00016306 0)
(0.139751 -8.2106e-05 0)
(0.139767 -1.4202e-06 0)
(0.139751 7.89346e-05 0)
(0.139704 0.000158897 0)
(0.139624 0.000238405 0)
(0.139512 0.000317402 0)
(0.139369 0.000395828 0)
(0.139194 0.000473628 0)
(0.138988 0.000550747 0)
(0.138752 0.000627133 0)
(0.138485 0.000702735 0)
(0.138188 0.000777504 0)
(0.137862 0.000851394 0)
(0.137506 0.000924359 0)
(0.137121 0.000996357 0)
(0.136707 0.00106735 0)
(0.136265 0.00113729 0)
(0.135795 0.00120616 0)
(0.135298 0.00127391 0)
(0.134774 0.00134052 0)
(0.134223 0.00140595 0)
(0.133647 0.00147018 0)
(0.133045 0.00153318 0)
(0.132418 0.00159494 0)
(0.131767 0.00165543 0)
(0.131091 0.00171464 0)
(0.130393 0.00177255 0)
(0.129671 0.00182915 0)
(0.128927 0.00188443 0)
(0.128161 0.00193838 0)
(0.127374 0.00199098 0)
(0.126566 0.00204225 0)
(0.125738 0.00209218 0)
(0.12489 0.00214076 0)
(0.124023 0.00218799 0)
(0.123137 0.00223389 0)
(0.122233 0.00227845 0)
(0.121312 0.00232168 0)
(0.120373 0.00236359 0)
(0.119419 0.00240418 0)
(0.118448 0.00244348 0)
(0.117461 0.00248148 0)
(0.11646 0.00251821 0)
(0.115445 0.00255368 0)
(0.114415 0.0025879 0)
(0.113372 0.00262089 0)
(0.112316 0.00265267 0)
(0.111248 0.00268326 0)
(0.110167 0.00271267 0)
(0.109076 0.00274092 0)
(0.107973 0.00276805 0)
(0.106859 0.00279406 0)
(0.105735 0.00281898 0)
(0.104602 0.00284284 0)
(0.103459 0.00286564 0)
(0.102308 0.00288743 0)
(0.101148 0.00290822 0)
(0.0999794 0.00292804 0)
(0.0988034 0.0029469 0)
(0.0976202 0.00296484 0)
(0.0964299 0.00298188 0)
(0.0952331 0.00299804 0)
(0.09403 0.00301335 0)
(0.0928209 0.00302783 0)
(0.0916063 0.0030415 0)
(0.0903863 0.0030544 0)
(0.0891614 0.00306654 0)
(0.0879318 0.00307795 0)
(0.0866978 0.00308866 0)
(0.0854596 0.00309868 0)
(0.0842176 0.00310804 0)
(0.082972 0.00311677 0)
(0.0817231 0.00312489 0)
(0.0804711 0.00313241 0)
(0.0792162 0.00313937 0)
(0.0779586 0.00314578 0)
(0.0766986 0.00315167 0)
(0.0754364 0.00315706 0)
(0.0741721 0.00316196 0)
(0.072906 0.00316641 0)
(0.0716382 0.00317042 0)
(0.0703689 0.00317401 0)
(0.0690982 0.0031772 0)
(0.0678264 0.00318001 0)
(0.0665536 0.00318246 0)
(0.0652798 0.00318456 0)
(0.0640053 0.00318634 0)
(0.0627302 0.00318781 0)
(0.0614546 0.003189 0)
(0.0601785 0.00318991 0)
(0.0589022 0.00319056 0)
(0.0576256 0.00319097 0)
(0.056349 0.00319116 0)
(0.0550723 0.00319114 0)
(0.0537957 0.00319092 0)
(0.0525193 0.00319052 0)
(0.051243 0.00318995 0)
(0.049967 0.00318923 0)
(0.0486914 0.00318837 0)
(0.0474161 0.00318739 0)
(0.0461413 0.00318628 0)
(0.0448669 0.00318507 0)
(0.043593 0.00318377 0)
(0.0423197 0.00318239 0)
(0.041047 0.00318094 0)
(0.0397749 0.00317943 0)
(0.0385034 0.00317787 0)
(0.0372325 0.00317626 0)
(0.0359623 0.00317463 0)
(0.0346927 0.00317297 0)
(0.0334239 0.0031713 0)
(0.0321557 0.00316963 0)
(0.0308882 0.00316796 0)
(0.0296213 0.00316629 0)
(0.0283552 0.00316465 0)
(0.0270897 0.00316302 0)
(0.0258248 0.00316143 0)
(0.0245606 0.00315988 0)
(0.023297 0.00315836 0)
(0.022034 0.0031569 0)
(0.0207716 0.00315549 0)
(0.0195097 0.00315413 0)
(0.0182484 0.00315284 0)
(0.0169875 0.00315162 0)
(0.0157272 0.00315046 0)
(0.0144673 0.00314938 0)
(0.0132078 0.00314838 0)
(0.0119488 0.00314746 0)
(0.01069 0.00314663 0)
(0.00943161 0.00314588 0)
(0.00817348 0.00314522 0)
(0.0069156 0.00314465 0)
(0.00565793 0.00314417 0)
(0.00440043 0.00314379 0)
(0.00314307 0.0031435 0)
(0.0018858 0.00314331 0)
(0.000628594 0.00314321 0)
(0.000740919 -0.00518722 0)
(0.00222278 -0.00518739 0)
(0.00370472 -0.00518774 0)
(0.00518679 -0.00518825 0)
(0.00666904 -0.00518894 0)
(0.0081515 -0.00518979 0)
(0.00963425 -0.00519079 0)
(0.0111173 -0.00519195 0)
(0.0126007 -0.00519325 0)
(0.0140845 -0.00519469 0)
(0.0155688 -0.00519625 0)
(0.0170536 -0.00519794 0)
(0.0185388 -0.00519972 0)
(0.0200246 -0.0052016 0)
(0.021511 -0.00520355 0)
(0.0229979 -0.00520557 0)
(0.0244855 -0.00520763 0)
(0.0259736 -0.00520972 0)
(0.0274624 -0.00521183 0)
(0.0289518 -0.00521392 0)
(0.0304419 -0.00521599 0)
(0.0319325 -0.00521801 0)
(0.0334238 -0.00521996 0)
(0.0349156 -0.00522181 0)
(0.036408 -0.00522354 0)
(0.0379008 -0.00522512 0)
(0.0393942 -0.00522652 0)
(0.0408879 -0.00522773 0)
(0.042382 -0.0052287 0)
(0.0438764 -0.00522941 0)
(0.045371 -0.00522983 0)
(0.0468656 -0.00522992 0)
(0.0483604 -0.00522965 0)
(0.049855 -0.00522898 0)
(0.0513494 -0.00522788 0)
(0.0528435 -0.00522632 0)
(0.0543371 -0.00522425 0)
(0.0558301 -0.00522163 0)
(0.0573223 -0.00521843 0)
(0.0588136 -0.00521461 0)
(0.0603037 -0.00521012 0)
(0.0617925 -0.00520491 0)
(0.0632798 -0.00519896 0)
(0.0647653 -0.00519221 0)
(0.0662488 -0.00518462 0)
(0.0677301 -0.00517614 0)
(0.0692089 -0.00516673 0)
(0.0706849 -0.00515634 0)
(0.0721578 -0.00514493 0)
(0.0736274 -0.00513244 0)
(0.0750934 -0.00511883 0)
(0.0765553 -0.00510405 0)
(0.0780129 -0.00508806 0)
(0.0794659 -0.0050708 0)
(0.0809137 -0.00505223 0)
(0.0823561 -0.00503231 0)
(0.0837927 -0.00501097 0)
(0.0852231 -0.00498818 0)
(0.0866468 -0.0049639 0)
(0.0880634 -0.00493806 0)
(0.0894724 -0.00491064 0)
(0.0908734 -0.00488158 0)
(0.0922659 -0.00485084 0)
(0.0936495 -0.00481839 0)
(0.0950236 -0.00478417 0)
(0.0963877 -0.00474815 0)
(0.0977413 -0.0047103 0)
(0.0990838 -0.00467057 0)
(0.100415 -0.00462894 0)
(0.101734 -0.00458536 0)
(0.10304 -0.00453982 0)
(0.104333 -0.00449228 0)
(0.105612 -0.00444272 0)
(0.106876 -0.00439112 0)
(0.108126 -0.00433745 0)
(0.10936 -0.00428169 0)
(0.110578 -0.00422385 0)
(0.111779 -0.00416389 0)
(0.112962 -0.00410182 0)
(0.114128 -0.00403763 0)
(0.115275 -0.00397132 0)
(0.116402 -0.00390289 0)
(0.11751 -0.00383234 0)
(0.118597 -0.0037597 0)
(0.119663 -0.00368496 0)
(0.120708 -0.00360815 0)
(0.12173 -0.00352928 0)
(0.12273 -0.00344838 0)
(0.123706 -0.00336548 0)
(0.124657 -0.00328062 0)
(0.125585 -0.00319382 0)
(0.126487 -0.00310512 0)
(0.127364 -0.00301458 0)
(0.128214 -0.00292223 0)
(0.129038 -0.00282813 0)
(0.129834 -0.00273233 0)
(0.130603 -0.00263489 0)
(0.131344 -0.00253587 0)
(0.132056 -0.00243533 0)
(0.132739 -0.00233335 0)
(0.133393 -0.00222999 0)
(0.134016 -0.00212533 0)
(0.13461 -0.00201944 0)
(0.135173 -0.0019124 0)
(0.135705 -0.0018043 0)
(0.136207 -0.00169521 0)
(0.136676 -0.00158522 0)
(0.137114 -0.00147442 0)
(0.137521 -0.0013629 0)
(0.137895 -0.00125074 0)
(0.138237 -0.00113804 0)
(0.138546 -0.00102489 0)
(0.138823 -0.000911383 0)
(0.139068 -0.000797609 0)
(0.139279 -0.000683661 0)
(0.139458 -0.000569634 0)
(0.139605 -0.00045562 0)
(0.139718 -0.000341711 0)
(0.1398 -0.000227998 0)
(0.139848 -0.000114573 0)
(0.139864 -1.52541e-06 0)
(0.139848 0.000111058 0)
(0.139799 0.000223089 0)
(0.139719 0.000334484 0)
(0.139606 0.00044516 0)
(0.139462 0.000555035 0)
(0.139287 0.000664031 0)
(0.139081 0.000772072 0)
(0.138843 0.000879083 0)
(0.138576 0.000984994 0)
(0.138278 0.00108974 0)
(0.13795 0.00119324 0)
(0.137593 0.00129546 0)
(0.137206 0.00139631 0)
(0.136791 0.00149575 0)
(0.136348 0.00159373 0)
(0.135877 0.00169018 0)
(0.135379 0.00178508 0)
(0.134853 0.00187837 0)
(0.134301 0.00197001 0)
(0.133723 0.00205996 0)
(0.13312 0.0021482 0)
(0.132492 0.00223469 0)
(0.131839 0.0023194 0)
(0.131162 0.00240232 0)
(0.130461 0.00248341 0)
(0.129738 0.00256266 0)
(0.128993 0.00264006 0)
(0.128225 0.0027156 0)
(0.127436 0.00278926 0)
(0.126627 0.00286104 0)
(0.125797 0.00293093 0)
(0.124947 0.00299894 0)
(0.124079 0.00306506 0)
(0.123191 0.00312931 0)
(0.122286 0.00319169 0)
(0.121363 0.0032522 0)
(0.120423 0.00331086 0)
(0.119467 0.00336768 0)
(0.118494 0.00342267 0)
(0.117506 0.00347586 0)
(0.116504 0.00352726 0)
(0.115486 0.00357689 0)
(0.114455 0.00362478 0)
(0.113411 0.00367094 0)
(0.112354 0.00371541 0)
(0.111284 0.0037582 0)
(0.110202 0.00379935 0)
(0.109109 0.00383888 0)
(0.108005 0.00387682 0)
(0.10689 0.00391321 0)
(0.105765 0.00394807 0)
(0.10463 0.00398143 0)
(0.103486 0.00401333 0)
(0.102333 0.0040438 0)
(0.101172 0.00407287 0)
(0.100003 0.00410058 0)
(0.0988256 0.00412696 0)
(0.0976412 0.00415204 0)
(0.0964499 0.00417586 0)
(0.095252 0.00419845 0)
(0.0940479 0.00421984 0)
(0.0928378 0.00424008 0)
(0.0916222 0.00425919 0)
(0.0904014 0.00427722 0)
(0.0891756 0.00429418 0)
(0.0879451 0.00431012 0)
(0.0867102 0.00432508 0)
(0.0854713 0.00433908 0)
(0.0842285 0.00435215 0)
(0.0829822 0.00436434 0)
(0.0817325 0.00437567 0)
(0.0804798 0.00438617 0)
(0.0792242 0.00439588 0)
(0.077966 0.00440483 0)
(0.0767054 0.00441304 0)
(0.0754425 0.00442055 0)
(0.0741777 0.00442739 0)
(0.072911 0.00443359 0)
(0.0716427 0.00443917 0)
(0.0703729 0.00444417 0)
(0.0691018 0.00444861 0)
(0.0678296 0.00445252 0)
(0.0665563 0.00445592 0)
(0.0652822 0.00445884 0)
(0.0640073 0.00446131 0)
(0.0627318 0.00446335 0)
(0.0614558 0.00446498 0)
(0.0601795 0.00446623 0)
(0.0589028 0.00446712 0)
(0.057626 0.00446768 0)
(0.0563491 0.00446792 0)
(0.0550722 0.00446787 0)
(0.0537954 0.00446754 0)
(0.0525187 0.00446696 0)
(0.0512423 0.00446615 0)
(0.0499661 0.00446513 0)
(0.0486903 0.0044639 0)
(0.0474149 0.0044625 0)
(0.0461399 0.00446094 0)
(0.0448654 0.00445923 0)
(0.0435914 0.0044574 0)
(0.042318 0.00445545 0)
(0.0410452 0.0044534 0)
(0.039773 0.00445127 0)
(0.0385015 0.00444907 0)
(0.0372306 0.00444681 0)
(0.0359603 0.00444451 0)
(0.0346908 0.00444218 0)
(0.0334219 0.00443983 0)
(0.0321537 0.00443748 0)
(0.0308862 0.00443513 0)
(0.0296194 0.00443279 0)
(0.0283532 0.00443047 0)
(0.0270878 0.00442819 0)
(0.0258229 0.00442596 0)
(0.0245588 0.00442377 0)
(0.0232952 0.00442164 0)
(0.0220323 0.00441958 0)
(0.0207699 0.0044176 0)
(0.0195081 0.0044157 0)
(0.0182469 0.00441388 0)
(0.0169861 0.00441216 0)
(0.0157259 0.00441054 0)
(0.0144661 0.00440903 0)
(0.0132067 0.00440762 0)
(0.0119477 0.00440633 0)
(0.0106891 0.00440516 0)
(0.00943076 0.0044041 0)
(0.00817274 0.00440318 0)
(0.00691497 0.00440238 0)
(0.00565741 0.00440171 0)
(0.00440003 0.00440117 0)
(0.00314278 0.00440076 0)
(0.00188563 0.0044005 0)
(0.000628537 0.00440036 0)
(0.000740819 -0.00666898 0)
(0.00222248 -0.00666921 0)
(0.00370423 -0.00666966 0)
(0.0051861 -0.00667033 0)
(0.00666815 -0.00667121 0)
(0.00815044 -0.00667231 0)
(0.009633 -0.00667362 0)
(0.0111159 -0.00667512 0)
(0.0125991 -0.00667681 0)
(0.0140828 -0.00667867 0)
(0.0155669 -0.0066807 0)
(0.0170516 -0.00668288 0)
(0.0185367 -0.0066852 0)
(0.0200224 -0.00668763 0)
(0.0215087 -0.00669017 0)
(0.0229956 -0.00669279 0)
(0.0244831 -0.00669547 0)
(0.0259712 -0.0066982 0)
(0.02746 -0.00670093 0)
(0.0289494 -0.00670367 0)
(0.0304395 -0.00670636 0)
(0.0319302 -0.006709 0)
(0.0334216 -0.00671154 0)
(0.0349135 -0.00671396 0)
(0.036406 -0.00671623 0)
(0.0378991 -0.00671831 0)
(0.0393926 -0.00672017 0)
(0.0408866 -0.00672177 0)
(0.042381 -0.00672307 0)
(0.0438757 -0.00672404 0)
(0.0453706 -0.00672463 0)
(0.0468657 -0.0067248 0)
(0.0483608 -0.00672451 0)
(0.0498559 -0.00672372 0)
(0.0513509 -0.00672237 0)
(0.0528455 -0.00672042 0)
(0.0543397 -0.00671783 0)
(0.0558334 -0.00671453 0)
(0.0573263 -0.00671049 0)
(0.0588183 -0.00670564 0)
(0.0603092 -0.00669994 0)
(0.0617988 -0.00669332 0)
(0.063287 -0.00668575 0)
(0.0647734 -0.00667714 0)
(0.0662579 -0.00666746 0)
(0.0677402 -0.00665664 0)
(0.0692201 -0.00664462 0)
(0.0706973 -0.00663134 0)
(0.0721714 -0.00661674 0)
(0.0736423 -0.00660077 0)
(0.0751095 -0.00658335 0)
(0.0765728 -0.00656444 0)
(0.0780319 -0.00654396 0)
(0.0794863 -0.00652185 0)
(0.0809357 -0.00649806 0)
(0.0823797 -0.00647252 0)
(0.0838179 -0.00644517 0)
(0.0852499 -0.00641595 0)
(0.0866754 -0.0063848 0)
(0.0880937 -0.00635166 0)
(0.0895046 -0.00631648 0)
(0.0909075 -0.00627919 0)
(0.092302 -0.00623974 0)
(0.0936876 -0.00619808 0)
(0.0950637 -0.00615416 0)
(0.0964298 -0.00610792 0)
(0.0977856 -0.00605931 0)
(0.0991303 -0.00600829 0)
(0.100463 -0.00595481 0)
(0.101785 -0.00589884 0)
(0.103093 -0.00584034 0)
(0.104388 -0.00577926 0)
(0.10567 -0.00571557 0)
(0.106936 -0.00564926 0)
(0.108188 -0.00558028 0)
(0.109425 -0.00550863 0)
(0.110645 -0.00543427 0)
(0.111848 -0.0053572 0)
(0.113034 -0.0052774 0)
(0.114202 -0.00519487 0)
(0.115352 -0.00510961 0)
(0.116482 -0.00502162 0)
(0.117592 -0.00493091 0)
(0.118681 -0.00483748 0)
(0.11975 -0.00474136 0)
(0.120797 -0.00464256 0)
(0.121822 -0.00454112 0)
(0.122823 -0.00443706 0)
(0.123801 -0.00433043 0)
(0.124756 -0.00422125 0)
(0.125685 -0.00410958 0)
(0.12659 -0.00399547 0)
(0.127468 -0.00387898 0)
(0.128321 -0.00376016 0)
(0.129146 -0.00363908 0)
(0.129945 -0.00351581 0)
(0.130715 -0.00339042 0)
(0.131458 -0.003263 0)
(0.132172 -0.00313362 0)
(0.132856 -0.00300238 0)
(0.133512 -0.00286937 0)
(0.134137 -0.00273467 0)
(0.134732 -0.00259839 0)
(0.135296 -0.00246063 0)
(0.13583 -0.0023215 0)
(0.136332 -0.0021811 0)
(0.136803 -0.00203953 0)
(0.137242 -0.00189693 0)
(0.137648 -0.00175339 0)
(0.138023 -0.00160903 0)
(0.138366 -0.00146397 0)
(0.138676 -0.00131833 0)
(0.138953 -0.00117223 0)
(0.139198 -0.00102579 0)
(0.13941 -0.000879131 0)
(0.139589 -0.000732365 0)
(0.139735 -0.000585618 0)
(0.139849 -0.000439007 0)
(0.139929 -0.00029265 0)
(0.139978 -0.000146665 0)
(0.139993 -1.16623e-06 0)
(0.139976 0.000143732 0)
(0.139927 0.000287918 0)
(0.139846 0.000431282 0)
(0.139733 0.000573718 0)
(0.139588 0.000715121 0)
(0.139411 0.000855389 0)
(0.139204 0.000994425 0)
(0.138965 0.00113213 0)