/*--------------------------------*- C++ -*----------------------------------*\
| =========                 |                                                 |
| \\      /  F ield         | OpenFOAM: The Open Source CFD Toolbox           |
|  \\    /   O peration     | Version:  v2012                                 |
|   \\  /    A nd           | Website:  www.openfoam.com                      |
|    \\/     M anipulation  |                                                 |
\*---------------------------------------------------------------------------*/
FoamFile
{
    version     2.0;
    format      ascii;
    class       volScalarField;
    location    "11";
    object      W;
}
// * * * * * * * * * * * * * * * * * * * * * * * * * * * * * * * * * * * * * //

dimensions      [0 0 -1 0 0 0 0];


internalField   nonuniform List<scalar> 
65536
(
3.30065e-18
9.97432e-18
1.68674e-17
2.41324e-17
3.19297e-17
4.04299e-17
4.98176e-17
6.02942e-17
7.20821e-17
8.54284e-17
1.0061e-16
1.17936e-16
1.37757e-16
1.60466e-16
1.8651e-16
2.16391e-16
2.50679e-16
2.90019e-16
3.35139e-16
3.86862e-16
4.46117e-16
5.13954e-16
5.91554e-16
6.80249e-16
7.81537e-16
8.971e-16
1.02883e-15
1.17884e-15
1.3495e-15
1.54346e-15
1.76368e-15
2.01346e-15
2.29647e-15
2.6168e-15
2.97897e-15
3.38802e-15
3.84951e-15
4.36959e-15
4.95504e-15
5.61334e-15
6.3527e-15
7.18216e-15
8.11161e-15
9.15189e-15
1.03148e-14
1.16133e-14
1.30614e-14
1.46744e-14
1.64688e-14
1.84625e-14
2.06749e-14
2.31268e-14
2.58407e-14
2.88407e-14
3.21527e-14
3.58041e-14
3.98244e-14
4.4245e-14
4.9099e-14
5.44217e-14
6.02503e-14
6.66239e-14
7.35835e-14
8.11725e-14
8.94356e-14
9.84199e-14
1.08174e-13
1.18748e-13
1.30195e-13
1.42567e-13
1.55918e-13
1.70306e-13
1.85786e-13
2.02415e-13
2.20251e-13
2.3935e-13
2.59771e-13
2.81569e-13
3.04799e-13
3.29516e-13
3.5577e-13
3.8361e-13
4.13084e-13
4.44233e-13
4.77096e-13
5.11708e-13
5.48096e-13
5.86285e-13
6.26292e-13
6.68126e-13
7.1179e-13
7.57279e-13
8.04579e-13
8.53667e-13
9.04512e-13
9.5707e-13
1.01129e-12
1.06711e-12
1.12445e-12
1.18322e-12
1.24334e-12
1.30469e-12
1.36714e-12
1.43057e-12
1.49482e-12
1.55975e-12
1.62518e-12
1.69093e-12
1.75681e-12
1.82262e-12
1.88814e-12
1.95316e-12
2.01744e-12
2.08074e-12
2.14282e-12
2.20343e-12
2.26231e-12
2.3192e-12
2.37384e-12
2.42597e-12
2.47532e-12
2.52164e-12
2.56466e-12
2.60415e-12
2.63984e-12
2.67152e-12
2.69895e-12
2.72193e-12
2.74027e-12
2.75379e-12
2.76232e-12
2.76574e-12
2.76393e-12
2.7568e-12
2.7443e-12
2.72637e-12
2.70303e-12
2.6743e-12
2.64024e-12
2.60093e-12
2.55652e-12
2.50714e-12
2.453e-12
2.39432e-12
2.33135e-12
2.2644e-12
2.19376e-12
2.11979e-12
2.04285e-12
1.96334e-12
1.88167e-12
1.79826e-12
1.71355e-12
1.62799e-12
1.54202e-12
1.4561e-12
1.37066e-12
1.28613e-12
1.20295e-12
1.1215e-12
1.04217e-12
9.65312e-13
8.91249e-13
8.20275e-13
7.52649e-13
6.88593e-13
6.28294e-13
5.71899e-13
5.19518e-13
4.71221e-13
4.27042e-13
3.86978e-13
3.5099e-13
3.19009e-13
2.90932e-13
2.66626e-13
2.45935e-13
2.28676e-13
2.14645e-13
2.0362e-13
1.9536e-13
1.89612e-13
1.8611e-13
1.8458e-13
1.84741e-13
1.86307e-13
1.88995e-13
1.92519e-13
1.96602e-13
2.00975e-13
2.05379e-13
2.09572e-13
2.1333e-13
2.16451e-13
2.18758e-13
2.20102e-13
2.20365e-13
2.1946e-13
2.17332e-13
2.13961e-13
2.09358e-13
2.03567e-13
1.96659e-13
1.88733e-13
1.79908e-13
1.70323e-13
1.60128e-13
1.49482e-13
1.38548e-13
1.27485e-13
1.16449e-13
1.05582e-13
9.50145e-14
8.48603e-14
7.52148e-14
6.61539e-14
5.77341e-14
4.99927e-14
4.29487e-14
3.66046e-14
3.09484e-14
2.59557e-14
2.15921e-14
1.78155e-14
1.45788e-14
1.18315e-14
9.52216e-15
7.59945e-15
6.01396e-15
4.71899e-15
3.67137e-15
2.8319e-15
2.16561e-15
1.64178e-15
1.23386e-15
9.19204e-16
6.78795e-16
4.96853e-16
3.60466e-16
2.59198e-16
1.8472e-16
1.30465e-16
9.13192e-17
6.33431e-17
4.35402e-17
2.96565e-17
2.00154e-17
1.33839e-17
8.8653e-18
5.81427e-18
3.77118e-18
2.41152e-18
1.50762e-18
8.99767e-19
4.74456e-19
1.47768e-19
1.14371e-17
3.45619e-17
5.84467e-17
8.36201e-17
1.10637e-16
1.40089e-16
1.72614e-16
2.08911e-16
2.4975e-16
2.95986e-16
3.48576e-16
4.08595e-16
4.77251e-16
5.55911e-16
6.46115e-16
7.49606e-16
8.68356e-16
1.00459e-15
1.16084e-15
1.33994e-15
1.54512e-15
1.77999e-15
2.04864e-15
2.35569e-15
2.7063e-15
3.1063e-15
3.5622e-15
4.08133e-15
4.67186e-15
5.34294e-15
6.1048e-15
6.9688e-15
7.94761e-15
9.05533e-15
1.03076e-14
1.17216e-14
1.33167e-14
1.5114e-14
1.71367e-14
1.94107e-14
2.19641e-14
2.48279e-14
2.80362e-14
3.16261e-14
3.56381e-14
4.01165e-14
4.51093e-14
5.06686e-14
5.6851e-14
6.37177e-14
7.13346e-14
7.97728e-14
8.91086e-14
9.94239e-14
1.10806e-13
1.23349e-13
1.37153e-13
1.52322e-13
1.68969e-13
1.87213e-13
2.07178e-13
2.28997e-13
2.52806e-13
2.78749e-13
3.06978e-13
3.37647e-13
3.70918e-13
4.06957e-13
4.45937e-13
4.88031e-13
5.33419e-13
5.82283e-13
6.34806e-13
6.91173e-13
7.51568e-13
8.16175e-13
8.85175e-13
9.58746e-13
1.03706e-12
1.12029e-12
1.20858e-12
1.3021e-12
1.40097e-12
1.50532e-12
1.61526e-12
1.73089e-12
1.85228e-12
1.97949e-12
2.11256e-12
2.25148e-12
2.39626e-12
2.54683e-12
2.70315e-12
2.86509e-12
3.03254e-12
3.20533e-12
3.38324e-12
3.56606e-12
3.75351e-12
3.94527e-12
4.14102e-12
4.34035e-12
4.54285e-12
4.74807e-12
4.9555e-12
5.16462e-12
5.37486e-12
5.58561e-12
5.79624e-12
6.00609e-12
6.21446e-12
6.42063e-12
6.62385e-12
6.82335e-12
7.01835e-12
7.20805e-12
7.39164e-12
7.56829e-12
7.73718e-12
7.8975e-12
8.04843e-12
8.18916e-12
8.31891e-12
8.43691e-12
8.54243e-12
8.63477e-12
8.71326e-12
8.77728e-12
8.82627e-12
8.85971e-12
8.87716e-12
8.87823e-12
8.86263e-12
8.83013e-12
8.78059e-12
8.71396e-12
8.63028e-12
8.5297e-12
8.41245e-12
8.27887e-12
8.12941e-12
7.96461e-12
7.78513e-12
7.5917e-12
7.38519e-12
7.16652e-12
6.93672e-12
6.69691e-12
6.44827e-12
6.19203e-12
5.9295e-12
5.66203e-12
5.39099e-12
5.11777e-12
4.84379e-12
4.57042e-12
4.29905e-12
4.03102e-12
3.76762e-12
3.51008e-12
3.25956e-12
3.01715e-12
2.78383e-12
2.56049e-12
2.3479e-12
2.14673e-12
1.95754e-12
1.78074e-12
1.61666e-12
1.46549e-12
1.32729e-12
1.20205e-12
1.08961e-12
9.89725e-13
9.02064e-13
8.26195e-13
7.61609e-13
7.07725e-13
6.63895e-13
6.29415e-13
6.0353e-13
5.85445e-13
5.74329e-13
5.69325e-13
5.69559e-13
5.74146e-13
5.822e-13
5.92845e-13
6.0522e-13
6.18491e-13
6.31864e-13
6.44591e-13
6.55984e-13
6.65421e-13
6.7236e-13
6.76344e-13
6.77009e-13
6.7409e-13
6.67422e-13
6.56943e-13
6.42692e-13
6.24802e-13
6.03495e-13
5.79073e-13
5.51906e-13
5.22417e-13
4.9107e-13
4.58353e-13
4.24763e-13
3.90791e-13
3.5691e-13
3.23559e-13
2.91137e-13
2.5999e-13
2.3041e-13
2.02629e-13
1.76818e-13
1.53092e-13
1.31506e-13
1.12069e-13
9.47425e-14
7.94503e-14
6.60868e-14
5.45228e-14
4.46131e-14
3.6203e-14
2.91341e-14
2.32495e-14
1.83975e-14
1.44349e-14
1.12295e-14
8.66128e-15
6.62301e-15
5.02069e-15
3.773e-15
2.81066e-15
2.07545e-15
1.51907e-15
1.10203e-15
7.92392e-16
5.64681e-16
3.98811e-16
2.79137e-16
1.93615e-16
1.33081e-16
9.06425e-17
6.11735e-17
4.09044e-17
2.70939e-17
1.7769e-17
1.15249e-17
7.36961e-18
4.60723e-18
2.74964e-18
1.44991e-18
4.51579e-19
2.48108e-17
7.49758e-17
1.26789e-16
1.81396e-16
2.39999e-16
3.03882e-16
3.74427e-16
4.53148e-16
5.41713e-16
6.41978e-16
7.56015e-16
8.86153e-16
1.03501e-15
1.20555e-15
1.4011e-15
1.62544e-15
1.88283e-15
2.17812e-15
2.51674e-15
2.90486e-15
3.34943e-15
3.85831e-15
4.44032e-15
5.10543e-15
5.86481e-15
6.73103e-15
7.71818e-15
8.84205e-15
1.01203e-14
1.15727e-14
1.32211e-14
1.50902e-14
1.72073e-14
1.96025e-14
2.23096e-14
2.53657e-14
2.88119e-14
3.26938e-14
3.70612e-14
4.19694e-14
4.74786e-14
5.36553e-14
6.0572e-14
6.83078e-14
7.69492e-14
8.65902e-14
9.73329e-14
1.09288e-13
1.22575e-13
1.37324e-13
1.53674e-13
1.71774e-13
1.91784e-13
2.13878e-13
2.38238e-13
2.65059e-13
2.9455e-13
3.26929e-13
3.6243e-13
4.01296e-13
4.43786e-13
4.90169e-13
5.40727e-13
5.95753e-13
6.55551e-13
7.20436e-13
7.90733e-13
8.66774e-13
9.48901e-13
1.03746e-12
1.1328e-12
1.23528e-12
1.34525e-12
1.46307e-12
1.58908e-12
1.72363e-12
1.86707e-12
2.01971e-12
2.18186e-12
2.35382e-12
2.53587e-12
2.72825e-12
2.9312e-12
3.14489e-12
3.36949e-12
3.60513e-12
3.85188e-12
4.10978e-12
4.37882e-12
4.65894e-12
4.95003e-12
5.25191e-12
5.56435e-12
5.88706e-12
6.21968e-12
6.56179e-12
6.91291e-12
7.27247e-12
7.63984e-12
8.01434e-12
8.39518e-12
8.78154e-12
9.17252e-12
9.56714e-12
9.96436e-12
1.03631e-11
1.07622e-11
1.11604e-11
1.15565e-11
1.19491e-11
1.23369e-11
1.27186e-11
1.30925e-11
1.34574e-11
1.38117e-11
1.4154e-11
1.44826e-11
1.47963e-11
1.50933e-11
1.53723e-11
1.56319e-11
1.58706e-11
1.60871e-11
1.628e-11
1.64481e-11
1.65903e-11
1.67055e-11
1.67927e-11
1.6851e-11
1.68796e-11
1.68779e-11
1.68454e-11
1.67817e-11
1.66866e-11
1.656e-11
1.64021e-11
1.62131e-11
1.59934e-11
1.57437e-11
1.54648e-11
1.51576e-11
1.48234e-11
1.44634e-11
1.40792e-11
1.36725e-11
1.3245e-11
1.27988e-11
1.23359e-11
1.18586e-11
1.13692e-11
1.08701e-11
1.03639e-11
9.85284e-12
9.33965e-12
8.82679e-12
8.31677e-12
7.81202e-12
7.31492e-12
6.82774e-12
6.35262e-12
5.89159e-12
5.4465e-12
5.01903e-12
4.61069e-12
4.22276e-12
3.85635e-12
3.51235e-12
3.19141e-12
2.894e-12
2.62037e-12
2.37055e-12
2.1444e-12
1.94157e-12
1.76155e-12
1.60365e-12
1.46705e-12
1.35076e-12
1.25371e-12
1.17469e-12
1.11239e-12
1.06545e-12
1.03241e-12
1.01178e-12
1.00201e-12
1.00154e-12
1.00878e-12
1.02217e-12
1.04014e-12
1.06117e-12
1.0838e-12
1.10663e-12
1.12834e-12
1.14772e-12
1.16369e-12
1.1753e-12
1.18177e-12
1.18245e-12
1.17688e-12
1.1648e-12
1.14608e-12
1.12082e-12
1.08924e-12
1.05174e-12
1.00884e-12
9.61206e-13
9.09564e-13
8.54727e-13
7.97545e-13
7.38885e-13
6.79601e-13
6.20512e-13
5.62381e-13
5.05897e-13
4.51661e-13
4.00177e-13
3.51843e-13
3.06956e-13
2.65708e-13
2.28195e-13
1.94427e-13
1.64333e-13
1.37782e-13
1.14585e-13
9.45177e-14
7.73251e-14
6.27377e-14
5.04795e-14
4.02771e-14
3.18667e-14
2.49994e-14
1.94454e-14
1.49961e-14
1.14656e-14
8.69059e-15
6.53012e-15
4.86401e-15
3.5913e-15
2.6283e-15
1.90655e-15
1.37074e-15
9.76743e-16
6.89778e-16
4.82755e-16
3.34825e-16
2.30126e-16
1.56731e-16
1.0577e-16
7.07211e-17
4.68414e-17
3.07188e-17
1.99234e-17
1.27396e-17
7.96418e-18
4.75301e-18
2.50629e-18
7.80596e-19
4.92421e-17
1.48804e-16
2.51635e-16
3.60008e-16
4.76309e-16
6.03079e-16
7.43065e-16
8.99265e-16
1.07499e-15
1.27392e-15
1.50016e-15
1.75832e-15
2.05361e-15
2.39188e-15
2.77973e-15
3.22467e-15
3.73513e-15
4.32067e-15
4.9921e-15
5.76161e-15
6.64297e-15
7.65169e-15
8.80527e-15
1.01234e-14
1.16281e-14
1.33443e-14
1.52998e-14
1.75257e-14
2.0057e-14
2.29324e-14
2.61954e-14
2.98943e-14
3.40827e-14
3.88204e-14
4.41732e-14
5.02143e-14
5.70245e-14
6.46926e-14
7.33168e-14
8.30047e-14
9.38744e-14
1.06055e-13
1.19689e-13
1.34929e-13
1.51944e-13
1.70916e-13
1.92043e-13
2.1554e-13
2.41636e-13
2.70582e-13
3.02644e-13
3.3811e-13
3.77288e-13
4.20504e-13
4.68108e-13
5.20471e-13
5.77985e-13
6.41064e-13
7.10146e-13
7.85687e-13
8.68167e-13
9.58088e-13
1.05597e-12
1.16235e-12
1.27778e-12
1.40285e-12
1.53812e-12
1.68421e-12
1.84171e-12
2.01124e-12
2.19342e-12
2.38885e-12
2.59814e-12
2.8219e-12
3.06071e-12
3.31513e-12
3.58571e-12
3.87296e-12
4.17735e-12
4.49933e-12
4.83929e-12
5.19756e-12
5.57441e-12
5.97008e-12
6.38468e-12
6.8183e-12
7.27092e-12
7.74242e-12
8.23262e-12
8.7412e-12
9.26779e-12
9.81186e-12
1.03728e-11
1.09499e-11
1.15423e-11
1.2149e-11
1.2769e-11
1.34011e-11
1.4044e-11
1.46962e-11
1.53562e-11
1.60223e-11
1.66929e-11
1.73661e-11
1.80398e-11
1.87122e-11
1.9381e-11
2.00441e-11
2.06992e-11
2.13441e-11
2.19763e-11
2.25935e-11
2.31932e-11
2.3773e-11
2.43306e-11
2.48634e-11
2.53691e-11
2.58453e-11
2.62896e-11
2.67e-11
2.70741e-11
2.74098e-11
2.77054e-11
2.79588e-11
2.81683e-11
2.83324e-11
2.84497e-11
2.85189e-11
2.8539e-11
2.85091e-11
2.84287e-11
2.82973e-11
2.81147e-11
2.7881e-11
2.75966e-11
2.72621e-11
2.68783e-11
2.64463e-11
2.59676e-11
2.54438e-11
2.48768e-11
2.4269e-11
2.36226e-11
2.29406e-11
2.22257e-11
2.14811e-11
2.07103e-11
1.99166e-11
1.91039e-11
1.82758e-11
1.74363e-11
1.65893e-11
1.57389e-11
1.48889e-11
1.40433e-11
1.3206e-11
1.23808e-11
1.15711e-11
1.07804e-11
1.0012e-11
9.26881e-12
8.55352e-12
7.86858e-12
7.21609e-12
6.59788e-12
6.01541e-12
5.46984e-12
4.96198e-12
4.49233e-12
4.06105e-12
3.668e-12
3.31274e-12
2.99457e-12
2.7125e-12
2.46531e-12
2.25158e-12
2.06966e-12
1.91775e-12
1.79389e-12
1.69599e-12
1.62184e-12
1.56916e-12
1.53558e-12
1.5187e-12
1.51608e-12
1.52528e-12
1.54388e-12
1.56948e-12
1.59978e-12
1.63253e-12
1.66561e-12
1.69703e-12
1.72499e-12
1.74784e-12
1.76417e-12
1.7728e-12
1.77279e-12
1.76346e-12
1.7444e-12
1.71547e-12
1.67679e-12
1.62874e-12
1.5719e-12
1.50708e-12
1.43526e-12
1.35754e-12
1.27514e-12
1.18933e-12
1.1014e-12
1.01263e-12
9.24222e-13
8.37321e-13
7.52945e-13
6.71983e-13
5.95177e-13
5.23115e-13
4.56228e-13
3.94795e-13
3.38953e-13
2.88708e-13
2.43951e-13
2.04478e-13
1.70007e-13
1.40196e-13
1.14666e-13
9.30112e-14
7.48202e-14
5.96847e-14
4.72113e-14
3.70295e-14
2.8797e-14
2.22036e-14
1.69731e-14
1.28628e-14
9.66353e-15
7.19679e-15
5.31286e-15
3.88766e-15
2.81969e-15
2.02699e-15
1.44419e-15
1.01977e-15
7.13629e-16
4.94902e-16
3.40116e-16
2.31622e-16
1.56297e-16
1.04497e-16
6.92082e-17
4.53845e-17
2.94336e-17
1.88199e-17
1.17649e-17
7.02107e-18
3.70218e-18
1.15306e-18
9.4893e-17
2.86755e-16
4.84915e-16
6.9375e-16
9.17857e-16
1.16213e-15
1.43186e-15
1.73283e-15
2.0714e-15
2.45466e-15
2.89053e-15
3.38789e-15
3.95674e-15
4.60835e-15
5.35547e-15
6.21248e-15
7.19566e-15
8.32339e-15
9.61644e-15
1.10983e-14
1.27954e-14
1.47375e-14
1.69584e-14
1.94957e-14
2.23919e-14
2.56947e-14
2.94575e-14
3.374e-14
3.86091e-14
4.41392e-14
5.04134e-14
5.75242e-14
6.55742e-14
7.46774e-14
8.49597e-14
9.65607e-14
1.09634e-13
1.2435e-13
1.40894e-13
1.59471e-13
1.80305e-13
2.03642e-13
2.29748e-13
2.58917e-13
2.91464e-13
3.27733e-13
3.68096e-13
4.12956e-13
4.62745e-13
5.17929e-13
5.79007e-13
6.46513e-13
7.21017e-13
8.03127e-13
8.93485e-13
9.92774e-13
1.10171e-12
1.22106e-12
1.35161e-12
1.49418e-12
1.64966e-12
1.81892e-12
2.00291e-12
2.20258e-12
2.4189e-12
2.65289e-12
2.90556e-12
3.17793e-12
3.47106e-12
3.78596e-12
4.12368e-12
4.48522e-12
4.87157e-12
5.2837e-12
5.72253e-12
6.18892e-12
6.68368e-12
7.20756e-12
7.76123e-12
8.34524e-12
8.96008e-12
9.6061e-12
1.02835e-11
1.09925e-11
1.17329e-11
1.25047e-11
1.33074e-11
1.41405e-11
1.50034e-11
1.58951e-11
1.68147e-11
1.77608e-11
1.87321e-11
1.97268e-11
2.07432e-11
2.17792e-11
2.28325e-11
2.39009e-11
2.49818e-11
2.60722e-11
2.71694e-11
2.82702e-11
2.93714e-11
3.04696e-11
3.15613e-11
3.2643e-11
3.3711e-11
3.47615e-11
3.57907e-11
3.67947e-11
3.77697e-11
3.87118e-11
3.96171e-11
4.04819e-11
4.13023e-11
4.20748e-11
4.27956e-11
4.34615e-11
4.4069e-11
4.4615e-11
4.50966e-11
4.5511e-11
4.58555e-11
4.6128e-11
4.63263e-11
4.64486e-11
4.64936e-11
4.64599e-11
4.63468e-11
4.61536e-11
4.58803e-11
4.55269e-11
4.50941e-11
4.45827e-11
4.39942e-11
4.33301e-11
4.25926e-11
4.17841e-11
4.09075e-11
3.99661e-11
3.89634e-11
3.79034e-11
3.67904e-11
3.5629e-11
3.44242e-11
3.31811e-11
3.1905e-11
3.06016e-11
2.92767e-11
2.79361e-11
2.65857e-11
2.52316e-11
2.38796e-11
2.25357e-11
2.12056e-11
1.98949e-11
1.86089e-11
1.73528e-11
1.61312e-11
1.49488e-11
1.38095e-11
1.27169e-11
1.16742e-11
1.06842e-11
9.7491e-12
8.87066e-12
8.05017e-12
7.28839e-12
6.58566e-12
5.94181e-12
5.35627e-12
4.82804e-12
4.35573e-12
3.9376e-12
3.57158e-12
3.25531e-12
2.98616e-12
2.7613e-12
2.57767e-12
2.43207e-12
2.32118e-12
2.24154e-12
2.18964e-12
2.16194e-12
2.15484e-12
2.16481e-12
2.1883e-12
2.2219e-12
2.26224e-12
2.30615e-12
2.3506e-12
2.39277e-12
2.43009e-12
2.46027e-12
2.48131e-12
2.49158e-12
2.48975e-12
2.47492e-12
2.44651e-12
2.40436e-12
2.34865e-12
2.27993e-12
2.19904e-12
2.10712e-12
2.00555e-12
1.8959e-12
1.77985e-12
1.6592e-12
1.53574e-12
1.41125e-12
1.28741e-12
1.16581e-12
1.04785e-12
9.34756e-13
8.27554e-13
7.27048e-13
6.33823e-13
5.48257e-13
4.70526e-13
4.00626e-13
3.38395e-13
2.8354e-13
2.3566e-13
1.94273e-13
1.58844e-13
1.28807e-13
1.03584e-13
8.26061e-14
6.53243e-14
5.12225e-14
3.98244e-14
3.06987e-14
2.34614e-14
1.7776e-14
1.33518e-14
9.94154e-15
7.33768e-15
5.36831e-15
3.89292e-15
2.79804e-15
1.99323e-15
1.40726e-15
9.84654e-16
6.82771e-16
4.69171e-16
3.19474e-16
2.15558e-16
1.44105e-16
9.54322e-17
6.25767e-17
4.05808e-17
2.5946e-17
1.62188e-17
9.67878e-18
5.10347e-18
1.58949e-18
1.79957e-16
5.4381e-16
9.19604e-16
1.31564e-15
1.74064e-15
2.20388e-15
2.71539e-15
3.28613e-15
3.92819e-15
4.65499e-15
5.48154e-15
6.42469e-15
7.50338e-15
8.73901e-15
1.01557e-14
1.17808e-14
1.3645e-14
1.57832e-14
1.82348e-14
2.10443e-14
2.42616e-14
2.79433e-14
3.21531e-14
3.69623e-14
4.24513e-14
4.87103e-14
5.58401e-14
6.39536e-14
7.31771e-14
8.36511e-14
9.55325e-14
1.08995e-13
1.24233e-13
1.41461e-13
1.60915e-13
1.82858e-13
2.07579e-13
2.35396e-13
2.66658e-13
3.01749e-13
3.41089e-13
3.85134e-13
4.34385e-13
4.89385e-13
5.50722e-13
6.19037e-13
6.95018e-13
7.79409e-13
8.73009e-13
9.76678e-13
1.09133e-12
1.21795e-12
1.35758e-12
1.51132e-12
1.68035e-12
1.8659e-12
2.06926e-12
2.29181e-12
2.53497e-12
2.80021e-12
3.08907e-12
3.40313e-12
3.74403e-12
4.11344e-12
4.51305e-12
4.94459e-12
5.4098e-12
5.91041e-12
6.44817e-12
7.02479e-12
7.64194e-12
8.30124e-12
9.00428e-12
9.75252e-12
1.05474e-11
1.13901e-11
1.22818e-11
1.32235e-11
1.4216e-11
1.52599e-11
1.63557e-11
1.75035e-11
1.87033e-11
1.99548e-11
2.12574e-11
2.26103e-11
2.40122e-11
2.54617e-11
2.6957e-11
2.84959e-11
3.00761e-11
3.16948e-11
3.33488e-11
3.50347e-11
3.67487e-11
3.84868e-11
4.02446e-11
4.20175e-11
4.38006e-11
4.55886e-11
4.73762e-11
4.91577e-11
5.09274e-11
5.26794e-11
5.44075e-11
5.61057e-11
5.77677e-11
5.93873e-11
6.09581e-11
6.24741e-11
6.39291e-11
6.5317e-11
6.66319e-11
6.78682e-11
6.90202e-11
7.00828e-11
7.10508e-11
7.19195e-11
7.26845e-11
7.33417e-11
7.38874e-11
7.43183e-11
7.46316e-11
7.48248e-11
7.48958e-11
7.48432e-11
7.46661e-11
7.43638e-11
7.39364e-11
7.33845e-11
7.27092e-11
7.19121e-11
7.09954e-11
6.99619e-11
6.88148e-11
6.7558e-11
6.6196e-11
6.47335e-11
6.31761e-11
6.15297e-11
5.98005e-11
5.79955e-11
5.61219e-11
5.41872e-11
5.21994e-11
5.01668e-11
4.80976e-11
4.60007e-11
4.38846e-11
4.17582e-11
3.96303e-11
3.75097e-11
3.54048e-11
3.33241e-11
3.12757e-11
2.92674e-11
2.73065e-11
2.54e-11
2.35542e-11
2.17749e-11
2.00675e-11
1.84365e-11
1.68857e-11
1.54185e-11
1.40373e-11
1.2744e-11
1.15396e-11
1.04247e-11
9.3989e-12
8.46145e-12
7.61088e-12
6.84516e-12
6.16178e-12
5.55774e-12
5.02962e-12
4.57365e-12
4.18571e-12
3.86143e-12
3.5962e-12
3.38523e-12
3.22358e-12
3.10623e-12
3.02806e-12
2.98396e-12
2.96883e-12
2.97762e-12
3.00536e-12
3.04722e-12
3.09855e-12
3.15491e-12
3.21212e-12
3.26632e-12
3.31398e-12
3.35198e-12
3.37762e-12
3.38866e-12
3.38337e-12
3.3605e-12
3.31934e-12
3.25969e-12
3.18182e-12
3.08651e-12
2.97493e-12
2.84864e-12
2.70954e-12
2.55974e-12
2.40156e-12
2.23739e-12
2.06967e-12
1.90079e-12
1.73302e-12
1.56846e-12
1.409e-12
1.25627e-12
1.11163e-12
9.76144e-13
8.50571e-13
7.35401e-13
6.30851e-13
5.36898e-13
4.53307e-13
3.79668e-13
3.15429e-13
2.59932e-13
2.1245e-13
1.72214e-13
1.38443e-13
1.10368e-13
8.72504e-14
6.8394e-14
5.3159e-14
4.0966e-14
3.12996e-14
2.37085e-14
1.78033e-14
1.32529e-14
9.7795e-15
7.15323e-15
5.18621e-15
3.72687e-15
2.65442e-15
1.87374e-15
1.31084e-15
9.08818e-16
6.24415e-16
4.2513e-16
2.86813e-16
1.9172e-16
1.26952e-16
8.32379e-17
5.39754e-17
3.45079e-17
2.15697e-17
1.28714e-17
6.78672e-18
2.11371e-18
3.36952e-16
1.01823e-15
1.72187e-15
2.46343e-15
3.25923e-15
4.12665e-15
5.08449e-15
6.15327e-15
7.35561e-15
8.71669e-15
1.02646e-14
1.20309e-14
1.40511e-14
1.63653e-14
1.90185e-14
2.20621e-14
2.55535e-14
2.95582e-14
3.41497e-14
3.94113e-14
4.54367e-14
5.23316e-14
6.0215e-14
6.92206e-14
7.94986e-14
9.12174e-14
1.04566e-13
1.19754e-13
1.37019e-13
1.56621e-13
1.78855e-13
2.04044e-13
2.32549e-13
2.6477e-13
3.01148e-13
3.4217e-13
3.88373e-13
4.40348e-13
4.98743e-13
5.64267e-13
6.37698e-13
7.19881e-13
8.11739e-13
9.14273e-13
1.02857e-12
1.1558e-12
1.29723e-12
1.45422e-12
1.62823e-12
1.82083e-12
2.0337e-12
2.26859e-12
2.52742e-12
2.81217e-12
3.12494e-12
3.46797e-12
3.84356e-12
4.25415e-12
4.70226e-12
5.1905e-12
5.72156e-12
6.29822e-12
6.92331e-12
7.5997e-12
8.33032e-12
9.11808e-12
9.96592e-12
1.08767e-11
1.18534e-11
1.28986e-11
1.40152e-11
1.52056e-11
1.64722e-11
1.78174e-11
1.9243e-11
2.07508e-11
2.23422e-11
2.40186e-11
2.57805e-11
2.76285e-11
2.95626e-11
3.15823e-11
3.36867e-11
3.58746e-11
3.81439e-11
4.04922e-11
4.29167e-11
4.54137e-11
4.79792e-11
5.06085e-11
5.32964e-11
5.60372e-11
5.88245e-11
6.16514e-11
6.45106e-11
6.73943e-11
7.02943e-11
7.32017e-11
7.61075e-11
7.90024e-11
8.18767e-11
8.47205e-11
8.75236e-11
9.0276e-11
9.29673e-11
9.55872e-11
9.81256e-11
1.00572e-10
1.02917e-10
1.05151e-10
1.07264e-10
1.09248e-10
1.11093e-10
1.12791e-10
1.14334e-10
1.15716e-10
1.1693e-10
1.17969e-10
1.18829e-10
1.19503e-10
1.1999e-10
1.20285e-10
1.20385e-10
1.20289e-10
1.19997e-10
1.19507e-10
1.18821e-10
1.1794e-10
1.16866e-10
1.15602e-10
1.14153e-10
1.12523e-10
1.10717e-10
1.08742e-10
1.06604e-10
1.04312e-10
1.01873e-10
9.9298e-11
9.65951e-11
9.37752e-11
9.08492e-11
8.78282e-11
8.47243e-11
8.15495e-11
7.83163e-11
7.50374e-11
7.17257e-11
6.83942e-11
6.50558e-11
6.17234e-11
5.84098e-11
5.51273e-11
5.1888e-11
4.87035e-11
4.55851e-11
4.25431e-11
3.95874e-11
3.6727e-11
3.39701e-11
3.13241e-11
2.87954e-11
2.63894e-11
2.41105e-11
2.19622e-11
1.99469e-11
1.8066e-11
1.63201e-11
1.47087e-11
1.32303e-11
1.18828e-11
1.06632e-11
9.56764e-12
8.59183e-12
7.73076e-12
6.97891e-12
6.33034e-12
5.77873e-12
5.31742e-12
4.93953e-12
4.638e-12
4.40562e-12
4.23512e-12
4.1192e-12
4.0506e-12
4.02212e-12
4.02668e-12
4.05739e-12
4.10759e-12
4.17087e-12
4.24117e-12
4.31281e-12
4.38056e-12
4.43968e-12
4.48597e-12
4.51584e-12
4.52633e-12
4.51515e-12
4.4807e-12
4.42205e-12
4.33898e-12
4.23192e-12
4.10193e-12
3.95063e-12
3.78011e-12
3.59291e-12
3.39187e-12
3.18007e-12
2.96069e-12
2.73695e-12
2.51201e-12
2.28886e-12
2.07026e-12
1.85869e-12
1.65626e-12
1.46475e-12
1.28552e-12
1.11955e-12
9.67461e-13
8.29505e-13
7.05623e-13
5.95482e-13
4.98519e-13
4.13987e-13
3.41004e-13
2.78596e-13
2.25742e-13
1.81404e-13
1.44564e-13
1.14242e-13
8.95215e-14
6.95571e-14
5.35858e-14
4.09291e-14
3.09935e-14
2.32673e-14
1.73157e-14
1.27743e-14
9.3415e-15
6.7712e-15
4.86481e-15
3.4642e-15
2.4449e-15
1.71011e-15
1.18543e-15
8.1434e-16
5.54361e-16
3.7395e-16
2.49936e-16
1.65484e-16
1.08491e-16
7.0345e-17
4.49701e-17
2.81076e-17
1.67721e-17
8.84314e-18
2.75414e-18
6.23434e-16
1.88396e-15
3.18589e-15
4.55801e-15
6.03056e-15
7.63572e-15
9.4083e-15
1.13863e-14
1.36116e-14
1.61308e-14
1.8996e-14
2.22657e-14
2.60055e-14
3.02896e-14
3.52018e-14
4.08367e-14
4.73012e-14
5.47161e-14
6.32178e-14
7.29603e-14
8.41172e-14
9.68842e-14
1.11481e-13
1.28156e-13
1.47187e-13
1.68884e-13
1.93597e-13
2.21716e-13
2.53675e-13
2.8996e-13
3.31111e-13
3.77726e-13
4.3047e-13
4.90081e-13
5.5737e-13
6.33235e-13
7.18664e-13
8.14742e-13
9.22659e-13
1.04372e-12
1.17934e-12
1.33108e-12
1.50062e-12
1.68978e-12
1.90055e-12
2.13507e-12
2.39563e-12
2.6847e-12
3.00494e-12
3.35916e-12
3.7504e-12
4.18183e-12
4.65686e-12
5.17905e-12
5.75218e-12
6.38017e-12
7.06714e-12
7.81738e-12
8.63532e-12
9.52553e-12
1.04927e-11
1.15416e-11
1.26772e-11
1.39043e-11
1.52279e-11
1.66529e-11
1.81842e-11
1.98265e-11
2.15845e-11
2.34627e-11
2.54651e-11
2.75958e-11
2.98584e-11
3.22559e-11
3.47911e-11
3.74663e-11
4.0283e-11
4.32423e-11
4.63444e-11
4.9589e-11
5.29748e-11
5.64998e-11
6.01611e-11
6.3955e-11
6.78766e-11
7.19202e-11
7.60793e-11
8.03461e-11
8.4712e-11
8.91675e-11
9.3702e-11
9.8304e-11
1.02961e-10
1.07661e-10
1.12389e-10
1.1713e-10
1.2187e-10
1.26592e-10
1.3128e-10
1.35919e-10
1.4049e-10
1.44977e-10
1.49362e-10
1.53629e-10
1.5776e-10
1.61739e-10
1.6555e-10
1.69176e-10
1.72602e-10
1.75813e-10
1.78796e-10
1.81538e-10
1.84025e-10
1.86247e-10
1.88194e-10
1.89856e-10
1.91226e-10
1.92296e-10
1.93061e-10
1.93517e-10
1.93661e-10
1.9349e-10
1.93004e-10
1.92205e-10
1.91093e-10
1.89673e-10
1.87949e-10
1.85927e-10
1.83613e-10
1.81016e-10
1.78146e-10
1.75013e-10
1.71628e-10
1.68003e-10
1.64153e-10
1.60092e-10
1.55835e-10
1.51397e-10
1.46797e-10
1.4205e-10
1.37175e-10
1.32191e-10
1.27116e-10
1.21968e-10
1.16768e-10
1.11535e-10
1.06287e-10
1.01044e-10
9.58247e-11
9.06475e-11
8.55303e-11
8.04905e-11
7.55447e-11
7.07085e-11
6.59969e-11
6.14235e-11
5.70009e-11
5.27407e-11
4.86527e-11
4.47459e-11
4.10276e-11
3.75036e-11
3.41786e-11
3.10555e-11
2.81361e-11
2.54206e-11
2.2908e-11
2.05959e-11
1.84809e-11
1.65583e-11
1.48224e-11
1.32667e-11
1.18839e-11
1.06657e-11
9.6036e-12
8.68824e-12
7.91e-12
7.25895e-12
6.72488e-12
6.29745e-12
5.96625e-12
5.72084e-12
5.55086e-12
5.44608e-12
5.39643e-12
5.39209e-12
5.42357e-12
5.48171e-12
5.5578e-12
5.64364e-12
5.73156e-12
5.81455e-12
5.88629e-12
5.94121e-12
5.97458e-12
5.9825e-12
5.962e-12
5.91101e-12
5.82839e-12
5.7139e-12
5.56818e-12
5.39267e-12
5.18955e-12
4.96165e-12
4.71231e-12
4.4453e-12
4.16466e-12
3.87458e-12
3.57929e-12
3.28288e-12
2.98927e-12
2.70203e-12
2.42435e-12
2.15899e-12
1.90821e-12
1.67374e-12
1.45683e-12
1.25822e-12
1.07823e-12
9.16724e-13
7.73242e-13
6.47017e-13
5.3705e-13
4.42168e-13
3.61086e-13
2.92457e-13
2.34918e-13
1.87135e-13
1.47827e-13
1.15796e-13
8.99401e-14
6.92648e-14
5.28874e-14
4.00363e-14
3.00468e-14
2.23547e-14
1.64872e-14
1.20535e-14
8.73487e-15
6.27417e-15
4.46681e-15
3.15185e-15
2.20417e-15
1.52764e-15
1.04925e-15
7.14163e-16
4.81678e-16
3.21897e-16
2.13105e-16
1.39697e-16
9.05705e-17
5.78954e-17
3.6184e-17
2.15902e-17
1.13832e-17
3.54516e-18
1.14009e-15
3.44526e-15
5.82624e-15
8.33572e-15
1.1029e-14
1.39651e-14
1.72077e-14
2.08264e-14
2.48979e-14
2.95076e-14
3.47509e-14
4.07348e-14
4.75797e-14
5.54215e-14
6.44136e-14
7.47294e-14
8.65647e-14
1.00141e-13
1.15708e-13
1.33548e-13
1.53978e-13
1.77358e-13
2.0409e-13
2.34628e-13
2.6948e-13
3.09216e-13
3.54475e-13
4.05969e-13
4.64494e-13
5.30937e-13
6.06285e-13
6.91632e-13
7.88193e-13
8.9731e-13
1.02047e-12
1.1593e-12
1.31561e-12
1.49137e-12
1.68874e-12
1.9101e-12
2.15801e-12
2.43531e-12
2.74504e-12
3.0905e-12
3.47527e-12
3.90322e-12
4.37848e-12
4.9055e-12
5.48903e-12
6.13414e-12
6.84621e-12
7.63097e-12
8.49443e-12
9.44294e-12
1.04832e-11
1.1622e-11
1.28668e-11
1.42249e-11
1.57042e-11
1.73125e-11
1.9058e-11
2.09488e-11
2.29933e-11
2.51999e-11
2.75767e-11
3.0132e-11
3.28738e-11
3.58099e-11
3.89476e-11
4.22939e-11
4.58553e-11
4.96377e-11
5.36461e-11
5.78849e-11
6.23574e-11
6.70659e-11
7.20119e-11
7.71952e-11
8.26145e-11
8.82673e-11
9.41494e-11
1.00255e-10
1.06577e-10
1.13107e-10
1.19833e-10
1.26744e-10
1.33825e-10
1.41062e-10
1.48436e-10
1.5593e-10
1.63522e-10
1.7119e-10
1.78912e-10
1.86663e-10
1.94417e-10
2.02148e-10
2.09828e-10
2.1743e-10
2.24925e-10
2.32284e-10
2.39478e-10
2.46478e-10
2.53256e-10
2.59784e-10
2.66035e-10
2.71981e-10
2.77597e-10
2.8286e-10
2.87745e-10
2.92232e-10
2.963e-10
2.99931e-10
3.0311e-10
3.05821e-10
3.08053e-10
3.09795e-10
3.11039e-10
3.11779e-10
3.12012e-10
3.11735e-10
3.1095e-10
3.09658e-10
3.07866e-10
3.05579e-10
3.02806e-10
2.99559e-10
2.9585e-10
2.91693e-10
2.87105e-10
2.82104e-10
2.76708e-10
2.70939e-10
2.64818e-10
2.5837e-10
2.51617e-10
2.44587e-10
2.37304e-10
2.29797e-10
2.22093e-10
2.14221e-10
2.06208e-10
1.98085e-10
1.89879e-10
1.81621e-10
1.73338e-10
1.6506e-10
1.56815e-10
1.48629e-10
1.40531e-10
1.32546e-10
1.24697e-10
1.1701e-10
1.09506e-10
1.02206e-10
9.51292e-11
8.82926e-11
8.1712e-11
7.54011e-11
6.93717e-11
6.36333e-11
5.81937e-11
5.30586e-11
4.82314e-11
4.37138e-11
3.95055e-11
3.56041e-11
3.20056e-11
2.87044e-11
2.56932e-11
2.29633e-11
2.05048e-11
1.83065e-11
1.63564e-11
1.46417e-11
1.31487e-11
1.18633e-11
1.07709e-11
9.85688e-12
9.10613e-12
8.50365e-12
8.03445e-12
7.68367e-12
7.43667e-12
7.2791e-12
7.19695e-12
7.17667e-12
7.20521e-12
7.27011e-12
7.35956e-12
7.46248e-12
7.56862e-12
7.66862e-12
7.75409e-12
7.8177e-12
7.85321e-12
7.85556e-12
7.82091e-12
7.74661e-12
7.63125e-12
7.47461e-12
7.27759e-12
7.04217e-12
6.77127e-12
6.46863e-12
6.13867e-12
5.78634e-12
5.41693e-12
5.0359e-12
4.64873e-12
4.26075e-12
3.87701e-12
3.50211e-12
3.14015e-12
2.79466e-12
2.4685e-12
2.16387e-12
1.88233e-12
1.62478e-12
1.39157e-12
1.18249e-12
9.96888e-13
8.33728e-13
6.91685e-13
5.6921e-13
4.64616e-13
3.76141e-13
3.02007e-13
2.40477e-13
1.89888e-13
1.48685e-13
1.15442e-13
8.88727e-14
6.78357e-14
5.13354e-14
3.85145e-14
2.8646e-14
2.11211e-14
1.54371e-14
1.1184e-14
8.03139e-15
5.71653e-15
4.03281e-15
2.81967e-15
1.95386e-15
1.34176e-15
9.13111e-16
6.15771e-16
4.11453e-16
2.72361e-16
1.78522e-16
1.15731e-16
7.39727e-17
4.6229e-17
2.75825e-17
1.4542e-17
4.52887e-18
2.06087e-15
6.22784e-15
1.0532e-14
1.50689e-14
1.99385e-14
2.52476e-14
3.11117e-14
3.76566e-14
4.50215e-14
5.3361e-14
6.28478e-14
7.36759e-14
8.60636e-14
1.00257e-13
1.16534e-13
1.35209e-13
1.56638e-13
1.8122e-13
2.0941e-13
2.41718e-13
2.78721e-13
3.21069e-13
3.69491e-13
4.2481e-13
4.87947e-13
5.59935e-13
6.41929e-13
7.35221e-13
8.41252e-13
9.61627e-13
1.09813e-12
1.25274e-12
1.42766e-12
1.62531e-12
1.84837e-12
2.0998e-12
2.38283e-12
2.70104e-12
3.05833e-12
3.45894e-12
3.90754e-12
4.40917e-12
4.96932e-12
5.59391e-12
6.28935e-12
7.06254e-12
7.92088e-12
8.8723e-12
9.92526e-12
1.10888e-11
1.23724e-11
1.37862e-11
1.53408e-11
1.70474e-11
1.89178e-11
2.0964e-11
2.31986e-11
2.56348e-11
2.82858e-11
3.11653e-11
3.42872e-11
3.76655e-11
4.13142e-11
4.52473e-11
4.94787e-11
5.40217e-11
5.88895e-11
6.40944e-11
6.96481e-11
7.55614e-11
8.18439e-11
8.85041e-11
9.55489e-11
1.02984e-10
1.10812e-10
1.19035e-10
1.27654e-10
1.36663e-10
1.4606e-10
1.55835e-10
1.65978e-10
1.76476e-10
1.87313e-10
1.98469e-10
2.09923e-10
2.2165e-10
2.33621e-10
2.45807e-10
2.58174e-10
2.70686e-10
2.83304e-10
2.95988e-10
3.08696e-10
3.21382e-10
3.34001e-10
3.46506e-10
3.58848e-10
3.70979e-10
3.8285e-10
3.94411e-10
4.05615e-10
4.16414e-10
4.26761e-10
4.36611e-10
4.4592e-10
4.54649e-10
4.62757e-10
4.70209e-10
4.76972e-10
4.83014e-10
4.88311e-10
4.92837e-10
4.96574e-10
4.99504e-10
5.01616e-10
5.02902e-10
5.03355e-10
5.02975e-10
5.01765e-10
4.99731e-10
4.96882e-10
4.93232e-10
4.88797e-10
4.83597e-10
4.77654e-10
4.70994e-10
4.63646e-10
4.55638e-10
4.47006e-10
4.37783e-10
4.28005e-10
4.17713e-10
4.06945e-10
3.95744e-10
3.84151e-10
3.72209e-10
3.59963e-10
3.47458e-10
3.34737e-10
3.21846e-10
3.0883e-10
2.95733e-10
2.82599e-10
2.69472e-10
2.56394e-10
2.43406e-10
2.3055e-10