/*--------------------------------*- C++ -*----------------------------------*\
| =========                 |                                                 |
| \\      /  F ield         | OpenFOAM: The Open Source CFD Toolbox           |
|  \\    /   O peration     | Version:  v2012                                 |
|   \\  /    A nd           | Website:  www.openfoam.com                      |
|    \\/     M anipulation  |                                                 |
\*---------------------------------------------------------------------------*/
FoamFile
{
    version     2.0;
    format      ascii;
    class       surfaceScalarField;
    location    "10";
    object      phi;
}
// * * * * * * * * * * * * * * * * * * * * * * * * * * * * * * * * * * * * * //

dimensions      [0 3 -1 0 0 0 0];
oriented        oriented;


internalField   nonuniform List<scalar> 
130560
(
3.67553e-06
-3.67553e-06
7.35113e-06
-3.6756e-06
1.10269e-05
-3.67576e-06
1.47029e-05
-3.67598e-06
1.83792e-05
-3.67628e-06
2.20558e-05
-3.67665e-06
2.57329e-05
-3.67709e-06
2.94105e-05
-3.67758e-06
3.30886e-05
-3.67814e-06
3.67674e-05
-3.67874e-06
4.04467e-05
-3.67938e-06
4.41268e-05
-3.68006e-06
4.78075e-05
-3.68076e-06
5.1489e-05
-3.68148e-06
5.51712e-05
-3.6822e-06
5.88542e-05
-3.68293e-06
6.25378e-05
-3.68363e-06
6.62221e-05
-3.68431e-06
6.9907e-05
-3.68495e-06
7.35926e-05
-3.68553e-06
7.72786e-05
-3.68604e-06
8.09651e-05
-3.68646e-06
8.46519e-05
-3.68679e-06
8.83389e-05
-3.68699e-06
9.20259e-05
-3.68706e-06
9.57129e-05
-3.68697e-06
9.93996e-05
-3.6867e-06
0.000103086
-3.68624e-06
0.000106771
-3.68556e-06
0.000110456
-3.68465e-06
0.000114139
-3.68347e-06
0.000117822
-3.68202e-06
0.000121502
-3.68025e-06
0.00012518
-3.67815e-06
0.000128856
-3.6757e-06
0.000132528
-3.67286e-06
0.000136198
-3.66962e-06
0.000139864
-3.66594e-06
0.000143526
-3.66179e-06
0.000147183
-3.65715e-06
0.000150835
-3.652e-06
0.000154481
-3.64629e-06
0.000158121
-3.64001e-06
0.000161754
-3.63312e-06
0.00016538
-3.62558e-06
0.000168997
-3.61738e-06
0.000172606
-3.60848e-06
0.000176205
-3.59885e-06
0.000179793
-3.58845e-06
0.00018337
-3.57726e-06
0.000186936
-3.56525e-06
0.000190488
-3.55238e-06
0.000194027
-3.53862e-06
0.000197551
-3.52395e-06
0.000201059
-3.50832e-06
0.000204551
-3.49171e-06
0.000208025
-3.4741e-06
0.00021148
-3.45544e-06
0.000214916
-3.43572e-06
0.000218331
-3.4149e-06
0.000221724
-3.39295e-06
0.000225094
-3.36985e-06
0.000228439
-3.34557e-06
0.000231759
-3.32009e-06
0.000235053
-3.29339e-06
0.000238318
-3.26543e-06
0.000241554
-3.2362e-06
0.00024476
-3.20568e-06
0.000247934
-3.17385e-06
0.000251074
-3.14069e-06
0.000254181
-3.10618e-06
0.000257251
-3.07032e-06
0.000260284
-3.03309e-06
0.000263279
-2.99448e-06
0.000266233
-2.95448e-06
0.000269146
-2.91308e-06
0.000272016
-2.87028e-06
0.000274842
-2.82608e-06
0.000277623
-2.78048e-06
0.000280356
-2.73348e-06
0.000283042
-2.68508e-06
0.000285677
-2.63529e-06
0.000288261
-2.58413e-06
0.000290793
-2.53159e-06
0.00029327
-2.4777e-06
0.000295693
-2.42247e-06
0.000298059
-2.36593e-06
0.000300367
-2.30808e-06
0.000302616
-2.24896e-06
0.000304804
-2.1886e-06
0.000306931
-2.12701e-06
0.000308996
-2.06424e-06
0.000310996
-2.00032e-06
0.000312931
-1.93527e-06
0.0003148
-1.86914e-06
0.000316602
-1.80198e-06
0.000318336
-1.73381e-06
0.000320001
-1.66469e-06
0.000321595
-1.59465e-06
0.000323119
-1.52376e-06
0.000324571
-1.45206e-06
0.000325951
-1.37959e-06
0.000327257
-1.30642e-06
0.00032849
-1.23259e-06
0.000329648
-1.15817e-06
0.000330731
-1.0832e-06
0.000331739
-1.00774e-06
0.000332671
-9.31859e-07
0.000333526
-8.55609e-07
0.000334305
-7.79049e-07
0.000335008
-7.02239e-07
0.000335633
-6.2524e-07
0.000336181
-5.48112e-07
0.000336652
-4.70915e-07
0.000337046
-3.93709e-07
0.000337362
-3.16553e-07
0.000337602
-2.39507e-07
0.000337764
-1.6263e-07
0.00033785
-8.59791e-08
0.00033786
-9.61221e-09
0.000337794
6.64146e-08
0.000337651
1.42046e-07
0.000337434
2.17229e-07
0.000337142
2.91909e-07
0.000336776
3.66037e-07
0.000336337
4.39561e-07
0.000335824
5.12433e-07
0.00033524
5.84608e-07
0.000334584
6.5604e-07
0.000333857
7.26686e-07
0.00033306
7.96504e-07
0.000332195
8.65456e-07
0.000331261
9.33504e-07
0.000330261
1.00061e-06
0.000329194
1.06675e-06
0.000328062
1.13188e-06
0.000326866
1.19597e-06
0.000325607
1.25901e-06
0.000324286
1.32096e-06
0.000322905
1.3818e-06
0.000321463
1.44151e-06
0.000319963
1.50007e-06
0.000318405
1.55746e-06
0.000316792
1.61368e-06
0.000315123
1.66869e-06
0.000313401
1.72251e-06
0.000311625
1.77511e-06
0.000309799
1.82648e-06
0.000307922
1.87663e-06
0.000305997
1.92555e-06
0.000304024
1.97323e-06
0.000302004
2.01968e-06
0.000299939
2.0649e-06
0.00029783
2.10888e-06
0.000295678
2.15164e-06
0.000293485
2.19318e-06
0.000291252
2.23351e-06
0.000288979
2.27264e-06
0.000286669
2.31057e-06
0.000284321
2.34731e-06
0.000281938
2.38288e-06
0.000279521
2.41729e-06
0.000277071
2.45056e-06
0.000274588
2.48269e-06
0.000272074
2.51371e-06
0.000269531
2.54363e-06
0.000266958
2.57247e-06
0.000264358
2.60024e-06
0.000261731
2.62697e-06
0.000259078
2.65266e-06
0.000256401
2.67736e-06
0.0002537
2.70106e-06
0.000250976
2.72379e-06
0.00024823
2.74558e-06
0.000245464
2.76644e-06
0.000242678
2.78639e-06
0.000239872
2.80547e-06
0.000237048
2.82367e-06
0.000234207
2.84104e-06
0.00023135
2.85759e-06
0.000228476
2.87334e-06
0.000225588
2.88832e-06
0.000222686
2.90254e-06
0.00021977
2.91603e-06
0.000216841
2.92881e-06
0.0002139
2.9409e-06
0.000210948
2.95232e-06
0.000207984
2.9631e-06
0.000205011
2.97325e-06
0.000202028
2.9828e-06
0.000199037
2.99177e-06
0.000196036
3.00017e-06
0.000193028
3.00802e-06
0.000190013
3.01536e-06
0.000186991
3.02219e-06
0.000183962
3.02854e-06
0.000180928
3.03442e-06
0.000177888
3.03986e-06
0.000174843
3.04487e-06
0.000171794
3.04947e-06
0.00016874
3.05367e-06
0.000165683
3.05751e-06
0.000162622
3.06098e-06
0.000159557
3.06412e-06
0.000156491
3.06693e-06
0.000153421
3.06943e-06
0.000150349
3.07164e-06
0.000147276
3.07357e-06
0.000144201
3.07524e-06
0.000141124
3.07666e-06
0.000138046
3.07785e-06
0.000134967
3.07882e-06
0.000131888
3.07958e-06
0.000128808
3.08015e-06
0.000125727
3.08053e-06
0.000122646
3.08075e-06
0.000119565
3.08082e-06
0.000116485
3.08074e-06
0.000113404
3.08052e-06
0.000110324
3.08019e-06
0.000107244
3.07974e-06
0.000104165
3.07919e-06
0.000101087
3.07855e-06
9.80087e-05
3.07783e-06
9.49317e-05
3.07704e-06
9.18555e-05
3.07618e-06
8.87802e-05
3.07527e-06
8.57059e-05
3.07431e-06
8.26326e-05
3.07332e-06
7.95603e-05
3.07229e-06
7.64891e-05
3.07124e-06
7.34189e-05
3.07018e-06
7.03498e-05
3.06911e-06
6.72818e-05
3.06803e-06
6.42148e-05
3.06696e-06
6.11489e-05
3.06589e-06
5.80841e-05
3.06484e-06
5.50203e-05
3.06381e-06
5.19574e-05
3.06281e-06
4.88956e-05
3.06184e-06
4.58347e-05
3.0609e-06
4.27747e-05
3.06e-06
3.97156e-05
3.05914e-06
3.66572e-05
3.05833e-06
3.35997e-05
3.05756e-06
3.05428e-05
3.05686e-06
2.74866e-05
3.0562e-06
2.4431e-05
3.05561e-06
2.1376e-05
3.05507e-06
1.83214e-05
3.0546e-06
1.52672e-05
3.05419e-06
1.22133e-05
3.05385e-06
9.15975e-06
3.05357e-06
6.10638e-06
3.05336e-06
3.05316e-06
3.05323e-06
3.05316e-06
3.67545e-06
-7.35098e-06
7.35098e-06
-7.35113e-06
1.10267e-05
-7.35144e-06
1.47026e-05
-7.3519e-06
1.83788e-05
-7.3525e-06
2.20554e-05
-7.35324e-06
2.57324e-05
-7.35412e-06
2.94099e-05
-7.35511e-06
3.3088e-05
-7.35622e-06
3.67667e-05
-7.35743e-06
4.04461e-05
-7.35872e-06
4.41261e-05
-7.36009e-06
4.78068e-05
-7.3615e-06
5.14883e-05
-7.36295e-06
5.51705e-05
-7.36441e-06
5.88535e-05
-7.36587e-06
6.25371e-05
-7.3673e-06
6.62215e-05
-7.36866e-06
6.99065e-05
-7.36995e-06
7.35921e-05
-7.37113e-06
7.72782e-05
-7.37216e-06
8.09648e-05
-7.37303e-06
8.46517e-05
-7.37369e-06
8.83388e-05
-7.37412e-06
9.2026e-05
-7.37427e-06
9.57132e-05
-7.37411e-06
9.94001e-05
-7.3736e-06
0.000103087
-7.3727e-06
0.000106772
-7.37136e-06
0.000110457
-7.36956e-06
0.000114141
-7.36723e-06
0.000117823
-7.36434e-06
0.000121504
-7.36083e-06
0.000125182
-7.35666e-06
0.000128858
-7.35178e-06
0.000132532
-7.34613e-06
0.000136202
-7.33967e-06
0.000139868
-7.33233e-06
0.00014353
-7.32407e-06
0.000147188
-7.31483e-06
0.000150841
-7.30454e-06
0.000154488
-7.29316e-06
0.000158128
-7.28062e-06
0.000161762
-7.26687e-06
0.000165388
-7.25184e-06
0.000169006
-7.23546e-06
0.000172615
-7.21769e-06
0.000176215
-7.19846e-06
0.000179804
-7.1777e-06
0.000183382
-7.15535e-06
0.000186949
-7.13136e-06
0.000190502
-7.10565e-06
0.000194041
-7.07816e-06
0.000197566
-7.04884e-06
0.000201076
-7.01762e-06
0.000204568
-6.98444e-06
0.000208043
-6.94923e-06
0.0002115
-6.91195e-06
0.000214937
-6.87253e-06
0.000218353
-6.83091e-06
0.000221747
-6.78705e-06
0.000225118
-6.74088e-06
0.000228465
-6.69235e-06
0.000231786
-6.64141e-06
0.000235081
-6.58802e-06
0.000238347
-6.53213e-06
0.000241585
-6.47369e-06
0.000244792
-6.41267e-06
0.000247967
-6.34902e-06
0.000251109
-6.28272e-06
0.000254216
-6.21372e-06
0.000257288
-6.14201e-06
0.000260323
-6.06756e-06
0.000263319
-5.99034e-06
0.000266274
-5.91035e-06
0.000269189
-5.82756e-06
0.000272061
-5.74196e-06
0.000274888
-5.65357e-06
0.00027767
-5.56236e-06
0.000280405
-5.46835e-06
0.000283091
-5.37155e-06
0.000285728
-5.27196e-06
0.000288313
-5.16962e-06
0.000290846
-5.06453e-06
0.000293325
-4.95674e-06
0.000295749
-4.84626e-06
0.000298116
-4.73315e-06
0.000300426
-4.61744e-06
0.000302676
-4.49917e-06
0.000304866
-4.37841e-06
0.000306994
-4.25521e-06
0.000309059
-4.12964e-06
0.000311061
-4.00175e-06
0.000312997
-3.87162e-06
0.000314867
-3.73932e-06
0.00031667
-3.60495e-06
0.000318405
-3.46857e-06
0.000320071
-3.33028e-06
0.000321666
-3.19017e-06
0.000323191
-3.04833e-06
0.000324644
-2.90487e-06
0.000326024
-2.75989e-06
0.000327331
-2.61349e-06
0.000328564
-2.46578e-06
0.000329723
-2.31687e-06
0.000330806
-2.16688e-06
0.000331815
-2.01591e-06
0.000332747
-1.86409e-06
0.000333603
-1.71152e-06
0.000334382
-1.55834e-06
0.000335085
-1.40467e-06
0.00033571
-1.25061e-06
0.000336258
-1.09629e-06
0.000336729
-9.41837e-07
0.000337123
-7.87365e-07
0.000337439
-6.32994e-07
0.000337678
-4.78843e-07
0.000337841
-3.25031e-07
0.000337927
-1.71672e-07
0.000337936
-1.88825e-08
0.000337869
1.33226e-07
0.000337726
2.84543e-07
0.000337509
4.34961e-07
0.000337216
5.84373e-07
0.00033685
7.32678e-07
0.000336409
8.79774e-07
0.000335896
1.02557e-06
0.000335311
1.16996e-06
0.000334654
1.31287e-06
0.000333927
1.4542e-06
0.000333129
1.59388e-06
0.000332263
1.73182e-06
0.000331328
1.86795e-06
0.000330327
2.0022e-06
0.000329259
2.1345e-06
0.000328126
2.26479e-06
0.000326929
2.39301e-06
0.000325669
2.51911e-06
0.000324347
2.64303e-06
0.000322964
2.76473e-06
0.000321521
2.88417e-06
0.00032002
3.00131e-06
0.000318461
3.11611e-06
0.000316847
3.22855e-06
0.000315177
3.3386e-06
0.000313453
3.44623e-06
0.000311677
3.55143e-06
0.000309849
3.65419e-06
0.000307971
3.75449e-06
0.000306044
3.85232e-06
0.00030407
3.94769e-06
0.000302049
4.04059e-06
0.000299983
4.13102e-06
0.000297873
4.21899e-06
0.00029572
4.30451e-06
0.000293525
4.38758e-06
0.000291291
4.46823e-06
0.000289017
4.54647e-06
0.000286705
4.62232e-06
0.000284357
4.69579e-06
0.000281973
4.76692e-06
0.000279554
4.83573e-06
0.000277103
4.90225e-06
0.000274619
4.9665e-06
0.000272104
5.02852e-06
0.000269559
5.08834e-06
0.000266986
5.146e-06
0.000264384
5.20153e-06
0.000261756
5.25496e-06
0.000259103
5.30634e-06
0.000256424
5.3557e-06
0.000253722
5.40308e-06
0.000250998
5.44853e-06
0.000248251
5.49208e-06
0.000245484
5.53378e-06
0.000242696
5.57367e-06
0.00023989
5.61179e-06
0.000237066
5.64819e-06
0.000234224
5.6829e-06
0.000231365
5.71598e-06
0.000228491
5.74746e-06
0.000225602
5.77739e-06
0.000222699
5.80581e-06
0.000219782
5.83277e-06
0.000216853
5.85831e-06
0.000213911
5.88247e-06
0.000210958
5.90529e-06
0.000207994
5.92683e-06
0.000205021
5.94711e-06
0.000202037
5.96618e-06
0.000199045
5.98409e-06
0.000196044
6.00087e-06
0.000193036
6.01657e-06
0.00019002
6.03122e-06
0.000186997
6.04486e-06
0.000183968
6.05754e-06
0.000180933
6.06929e-06
0.000177893
6.08014e-06
0.000174848
6.09014e-06
0.000171798
6.09932e-06
0.000168744
6.10772e-06
0.000165686
6.11537e-06
0.000162625
6.1223e-06
0.00015956
6.12855e-06
0.000156493
6.13416e-06
0.000153423
6.13914e-06
0.000150351
6.14355e-06
0.000147277
6.1474e-06
0.000144202
6.15072e-06
0.000141125
6.15355e-06
0.000138047
6.15591e-06
0.000134968
6.15783e-06
0.000131888
6.15934e-06
0.000128808
6.16047e-06
0.000125727
6.16123e-06
0.000122646
6.16166e-06
0.000119565
6.16178e-06
0.000116484
6.1616e-06
0.000113404
6.16116e-06
0.000110324
6.16048e-06
0.000107244
6.15958e-06
0.000104164
6.15847e-06
0.000101086
6.15718e-06
9.80079e-05
6.15573e-06
9.49308e-05
6.15414e-06
9.18545e-05
6.15242e-06
8.87792e-05
6.15059e-06
8.57049e-05
6.14866e-06
8.26315e-05
6.14667e-06
7.95592e-05
6.14461e-06
7.6488e-05
6.1425e-06
7.34178e-05
6.14037e-06
7.03487e-05
6.13821e-06
6.72806e-05
6.13605e-06
6.42137e-05
6.1339e-06
6.11478e-05
6.13177e-06
5.8083e-05
6.12966e-06
5.50192e-05
6.1276e-06
5.19564e-05
6.12559e-06
4.88946e-05
6.12364e-06
4.58338e-05
6.12175e-06
4.27738e-05
6.11995e-06
3.97147e-05
6.11823e-06
3.66565e-05
6.1166e-06
3.3599e-05
6.11507e-06
3.05422e-05
6.11365e-06
2.7486e-05
6.11234e-06
2.44305e-05
6.11115e-06
2.13755e-05
6.11008e-06
1.83209e-05
6.10913e-06
1.52668e-05
6.10831e-06
1.2213e-05
6.10762e-06
9.15954e-06
6.10707e-06
6.10624e-06
6.10666e-06
3.05309e-06
6.10638e-06
6.10624e-06
3.6753e-06
-1.10263e-05
7.35067e-06
-1.10265e-05
1.10262e-05
-1.1027e-05
1.4702e-05
-1.10277e-05
1.8378e-05
-1.10286e-05
2.20545e-05
-1.10297e-05
2.57314e-05
-1.1031e-05
2.94088e-05
-1.10325e-05
3.30868e-05
-1.10342e-05
3.67654e-05
-1.1036e-05
4.04447e-05
-1.1038e-05
4.41247e-05
-1.10401e-05
4.78054e-05
-1.10422e-05
5.14868e-05
-1.10444e-05
5.51691e-05
-1.10466e-05
5.8852e-05
-1.10488e-05
6.25358e-05
-1.1051e-05
6.62202e-05
-1.10531e-05
6.99053e-05
-1.10551e-05
7.3591e-05
-1.10569e-05
7.72773e-05
-1.10585e-05
8.09641e-05
-1.10598e-05
8.46513e-05
-1.10608e-05
8.83387e-05
-1.10615e-05
9.20262e-05
-1.10618e-05
9.57137e-05
-1.10616e-05
9.9401e-05
-1.10609e-05
0.000103088
-1.10596e-05
0.000106774
-1.10576e-05
0.00011046
-1.1055e-05
0.000114144
-1.10516e-05
0.000117827
-1.10473e-05
0.000121508
-1.10421e-05
0.000125187
-1.10359e-05
0.000128864
-1.10286e-05
0.000132538
-1.10202e-05
0.000136209
-1.10106e-05
0.000139876
-1.09997e-05
0.00014354
-1.09873e-05
0.000147198
-1.09735e-05
0.000150852
-1.09582e-05
0.0001545
-1.09412e-05
0.000158142
-1.09225e-05
0.000161777
-1.09019e-05
0.000165405
-1.08794e-05
0.000169024
-1.08549e-05
0.000172635
-1.08284e-05
0.000176236
-1.07996e-05
0.000179827
-1.07685e-05
0.000183406
-1.07351e-05
0.000186974
-1.06992e-05
0.000190529
-1.06607e-05
0.000194071
-1.06195e-05
0.000197597
-1.05756e-05
0.000201109
-1.05289e-05
0.000204603
-1.04792e-05
0.000208081
-1.04264e-05
0.000211539
-1.03706e-05
0.000214978
-1.03115e-05
0.000218397
-1.02492e-05
0.000221793
-1.01835e-05
0.000225166
-1.01143e-05
0.000228516
-1.00415e-05
0.000231839
-9.96519e-06
0.000235136
-9.88516e-06
0.000238406
-9.80137e-06
0.000241646
-9.71377e-06
0.000244855
-9.62228e-06
0.000248033
-9.52685e-06
0.000251178
-9.42744e-06
0.000254288
-9.32398e-06
0.000257363
-9.21645e-06
0.0002604
-9.10479e-06
0.000263399
-8.98899e-06
0.000266357
-8.86901e-06
0.000269275
-8.74484e-06
0.000272149
-8.61646e-06
0.000274979
-8.48386e-06
0.000277764
-8.34704e-06
0.000280502
-8.20602e-06
0.000283191
-8.0608e-06
0.00028583
-7.9114e-06
0.000288419
-7.75785e-06
0.000290954
-7.60019e-06
0.000293436
-7.43845e-06
0.000295862
-7.27269e-06
0.000298232
-7.10297e-06
0.000300544
-6.92934e-06
0.000302797
-6.75188e-06
0.000304989
-6.57067e-06
0.00030712
-6.38579e-06
0.000309187
-6.19734e-06
0.000311191
-6.00542e-06
0.00031313
-5.81013e-06
0.000315002
-5.61159e-06
0.000316807
-5.40992e-06
0.000318543
-5.20524e-06
0.000320211
-4.99769e-06
0.000321808
-4.78741e-06
0.000323334
-4.57453e-06
0.000324789
-4.35921e-06
0.00032617
-4.14161e-06
0.000327479
-3.92187e-06
0.000328713
-3.70017e-06
0.000329873
-3.47666e-06
0.000330958
-3.25153e-06
0.000331967
-3.02493e-06
0.0003329
-2.79705e-06
0.000333756
-2.56806e-06
0.000334536
-2.33814e-06
0.000335239
-2.10747e-06
0.000335864
-1.87623e-06
0.000336413
-1.64461e-06
0.000336884
-1.41278e-06
0.000337277
-1.18092e-06
0.000337593
-9.49215e-07
0.000337832
-7.17843e-07
0.000337994
-4.86979e-07
0.000338079
-2.56798e-07
0.000338088
-2.74724e-08
0.00033802
2.00829e-07
0.000337877
4.2794e-07
0.000337658
6.53698e-07
0.000337365
8.77945e-07
0.000336997
1.10053e-06
0.000336555
1.32129e-06
0.000336041
1.5401e-06
0.000335454
1.7568e-06
0.000334796
1.97127e-06
0.000334066
2.18337e-06
0.000333267
2.39298e-06
0.000332399
2.59999e-06
0.000331463
2.80427e-06
0.000330459
3.00573e-06
0.000329389
3.20426e-06
0.000328255
3.39977e-06
0.000327055
3.59217e-06
0.000325793
3.78138e-06
0.000324469
3.96732e-06
0.000323084
4.14993e-06
0.000321639
4.32913e-06
0.000320135
4.50488e-06
0.000318574
4.67712e-06
0.000316957
4.84581e-06
0.000315284
5.01091e-06
0.000313558
5.17238e-06
0.00031178
5.33021e-06
0.000309949
5.48435e-06
0.000308069
5.63481e-06
0.00030614
5.78157e-06
0.000304163
5.92462e-06
0.000302139
6.06397e-06
0.000300071
6.19961e-06
0.000297958
6.33155e-06
0.000295803
6.45981e-06
0.000293606
6.58441e-06
0.000291369
6.70536e-06
0.000289093
6.82269e-06
0.000286779
6.93644e-06
0.000284428
7.04662e-06
0.000282042
7.15328e-06
0.000279621
7.25646e-06
0.000277167
7.3562e-06
0.000274681
7.45254e-06
0.000272164
7.54553e-06
0.000269617
7.63522e-06
0.000267041
7.72166e-06
0.000264438
7.80491e-06
0.000261808
7.88501e-06
0.000259152
7.96202e-06
0.000256472
8.03602e-06
0.000253768
8.10704e-06
0.000251041
8.17516e-06
0.000248293
8.24044e-06
0.000245524
8.30294e-06
0.000242735
8.36272e-06
0.000239927
8.41985e-06
0.0002371
8.47439e-06
0.000234257
8.5264e-06
0.000231397
8.57596e-06
0.000228521
8.62313e-06
0.000225631
8.66797e-06
0.000222726
8.71055e-06
0.000219808
8.75093e-06
0.000216877
8.78919e-06
0.000213934
8.82537e-06
0.00021098
8.85956e-06
0.000208015
8.8918e-06
0.00020504
8.92217e-06
0.000202055
8.95073e-06
0.000199062
8.97755e-06
0.00019606
9.00267e-06
0.00019305
9.02616e-06
0.000190033
9.04809e-06
0.00018701
9.0685e-06
0.00018398
9.08747e-06
0.000180944
9.10504e-06
0.000177903
9.12128e-06
0.000174857
9.13623e-06
0.000171806
9.14996e-06
0.000168751
9.16251e-06
0.000165693
9.17394e-06
0.000162631
9.1843e-06
0.000159566
9.19364e-06
0.000156498
9.20201e-06
0.000153428
9.20945e-06
0.000150355
9.21602e-06
0.000147281
9.22175e-06
0.000144205
9.2267e-06
0.000141127
9.23091e-06
0.000138049
9.23442e-06
0.00013497
9.23727e-06
0.000131889
9.2395e-06
0.000128809
9.24115e-06
0.000125728
9.24227e-06
0.000122646
9.24288e-06
0.000119565
9.24302e-06
0.000116484
9.24274e-06
0.000113403
9.24205e-06
0.000110323
9.241e-06
0.000107243
9.23962e-06
0.000104163
9.23793e-06
0.000101084
9.23598e-06
9.80063e-05
9.23378e-06
9.49291e-05
9.23136e-06
9.18527e-05
9.22876e-06
8.87773e-05
9.22599e-06
8.57029e-05
9.22309e-06
8.26295e-05
9.22008e-06
7.95571e-05
9.21697e-06
7.64858e-05
9.21379e-06
7.34156e-05
9.21057e-06
7.03465e-05
9.20732e-06
6.72785e-05
9.20407e-06
6.42116e-05
9.20083e-06
6.11457e-05
9.19761e-06
5.8081e-05
9.19444e-06
5.50172e-05
9.19134e-06
5.19545e-05
9.18831e-06
4.88928e-05
9.18537e-06
4.5832e-05
9.18253e-06
4.27721e-05
9.17982e-06
3.97131e-05
9.17723e-06
3.66549e-05
9.17478e-06
3.35975e-05
9.17248e-06
3.05409e-05
9.17034e-06
2.74848e-05
9.16837e-06
2.44294e-05
9.16657e-06
2.13745e-05
9.16496e-06
1.83201e-05
9.16353e-06
1.52661e-05
9.1623e-06
1.22125e-05
9.16127e-06
9.15912e-06
9.16043e-06
6.10597e-06
9.15981e-06
3.05295e-06
9.1594e-06
9.15919e-06
3.67506e-06
-1.47013e-05
7.3502e-06
-1.47016e-05
1.10255e-05
-1.47023e-05
1.47011e-05
-1.47032e-05
1.83769e-05
-1.47044e-05
2.20532e-05
-1.4706e-05
2.57299e-05
-1.47077e-05
2.94071e-05
-1.47098e-05
3.3085e-05
-1.4712e-05
3.67635e-05
-1.47145e-05
4.04426e-05
-1.47172e-05
4.41225e-05
-1.472e-05
4.78032e-05
-1.47229e-05
5.14846e-05
-1.47258e-05
5.51668e-05
-1.47289e-05
5.88499e-05
-1.47319e-05
6.25337e-05
-1.47348e-05
6.62182e-05
-1.47377e-05
6.99035e-05
-1.47403e-05
7.35894e-05
-1.47428e-05
7.7276e-05
-1.4745e-05
8.09631e-05
-1.47469e-05
8.46506e-05
-1.47483e-05
8.83384e-05
-1.47493e-05
9.20264e-05
-1.47498e-05
9.57144e-05
-1.47496e-05
9.94023e-05
-1.47488e-05
0.00010309
-1.47471e-05
0.000106777
-1.47446e-05
0.000110463
-1.47412e-05
0.000114148
-1.47367e-05
0.000117832
-1.47311e-05
0.000121514
-1.47243e-05
0.000125195
-1.47162e-05
0.000128873
-1.47066e-05
0.000132548
-1.46955e-05
0.00013622
-1.46828e-05
0.000139889
-1.46684e-05
0.000143554
-1.46521e-05
0.000147214
-1.46338e-05
0.000150869
-1.46135e-05
0.000154519
-1.4591e-05
0.000158163
-1.45661e-05
0.000161799
-1.45388e-05
0.000165429
-1.4509e-05
0.000169051
-1.44765e-05
0.000172664
-1.44412e-05
0.000176267
-1.4403e-05
0.00017986
-1.43617e-05
0.000183442
-1.43173e-05
0.000187013
-1.42696e-05
0.00019057
-1.42184e-05
0.000194115
-1.41637e-05
0.000197644
-1.41053e-05
0.000201158
-1.40431e-05
0.000204656
-1.3977e-05
0.000208137
-1.39068e-05
0.000211598
-1.38325e-05
0.000215041
-1.37538e-05
0.000218462
-1.36708e-05
0.000221862
-1.35833e-05
0.000225239
-1.34912e-05
0.000228592
-1.33943e-05
0.000231919
-1.32927e-05
0.00023522
-1.31861e-05
0.000238493
-1.30744e-05
0.000241737
-1.29577e-05
0.000244951
-1.28358e-05
0.000248133
-1.27087e-05
0.000251281
-1.25762e-05
0.000254396
-1.24383e-05
0.000257474
-1.2295e-05
0.000260516
-1.21462e-05
0.000263519
-1.19918e-05
0.000266481
-1.18319e-05
0.000269403
-1.16663e-05
0.000272282
-1.14952e-05
0.000275116
-1.13184e-05
0.000277905
-1.11359e-05
0.000280647
-1.09479e-05
0.00028334
-1.07542e-05
0.000285984
-1.0555e-05
0.000288576
-1.03502e-05
0.000291116
-1.01399e-05
0.000293602
-9.92419e-06
0.000296032
-9.70309e-06
0.000298406
-9.47669e-06
0.000300722
-9.24508e-06
0.000302978
-9.00834e-06
0.000305174
-8.7666e-06
0.000307308
-8.51995e-06
0.000309379
-8.26853e-06
0.000311386
-8.01246e-06
0.000313328
-7.7519e-06
0.000315204
-7.48699e-06
0.000317012
-7.2179e-06
0.000318751
-6.94479e-06
0.000320421
-6.66784e-06
0.000322021
-6.38724e-06
0.00032355
-6.10317e-06
0.000325006
-5.81584e-06
0.00032639
-5.52546e-06
0.000327701
-5.23222e-06
0.000328937
-4.93636e-06
0.000330098
-4.63809e-06
0.000331184
-4.33764e-06
0.000332195
-4.03524e-06
0.000333129
-3.73112e-06
0.000333986
-3.42553e-06
0.000334767
-3.11869e-06
0.00033547
-2.81085e-06
0.000336096
-2.50225e-06
0.000336645
-2.19314e-06
0.000337116
-1.88375e-06
0.000337509
-1.57432e-06
0.000337825
-1.26511e-06
0.000338063
-9.56335e-07
0.000338225
-6.48245e-07
0.000338309
-3.4107e-07
0.000338316
-3.50391e-08
0.000338248
2.69621e-07
0.000338103
5.72688e-07
0.000337883
8.73945e-07
0.000337587
1.17318e-06
0.000337218
1.47019e-06
0.000336774
1.76477e-06
0.000336258
2.05673e-06
0.000335669
2.34588e-06
0.000335008
2.63203e-06
0.000334276
2.91503e-06
0.000333474
3.1947e-06
0.000332604
3.47088e-06
0.000331664
3.74343e-06
0.000330658
4.01219e-06
0.000329585
4.27705e-06
0.000328447
4.53786e-06
0.000327245
4.79452e-06
0.000325979
5.04692e-06
0.000324652
5.29495e-06
0.000323263
5.53852e-06
0.000321815
5.77755e-06
0.000320307
6.01196e-06
0.000318743
6.24169e-06
0.000317122
6.46667e-06
0.000315446
6.68685e-06
0.000313716
6.90219e-06
0.000311934
7.11265e-06
0.0003101
7.31821e-06
0.000308216
7.51884e-06
0.000306283
7.71453e-06
0.000304302
7.90526e-06
0.000302275
8.09105e-06
0.000300203
8.27189e-06
0.000298087
8.44779e-06
0.000295928
8.61878e-06
0.000293727
8.78488e-06
0.000291487
8.94611e-06
0.000289207
9.10251e-06
0.000286889
9.25411e-06
0.000284535
9.40097e-06
0.000282145
9.54313e-06
0.000279721
9.68064e-06
0.000277263
9.81356e-06
0.000274774
9.94194e-06
0.000272254
1.00658e-05
0.000269704
1.01854e-05
0.000267125
1.03005e-05
0.000264518
1.04114e-05
0.000261885
1.05181e-05
0.000259226
1.06207e-05
0.000256543
1.07193e-05
0.000253836
1.08139e-05
0.000251107
1.09046e-05
0.000248356
1.09916e-05
0.000245584
1.10748e-05
0.000242792
1.11544e-05
0.000239981
1.12305e-05
0.000237153
1.13031e-05
0.000234307
1.13724e-05
0.000231444
1.14383e-05
0.000228566
1.15011e-05
0.000225673
1.15608e-05
0.000222766
1.16175e-05
0.000219846
1.16712e-05
0.000216913
1.17221e-05
0.000213968
1.17703e-05
0.000211012
1.18158e-05
0.000208045
1.18587e-05
0.000205068
1.18991e-05
0.000202082
1.1937e-05
0.000199087
1.19727e-05
0.000196084
1.20061e-05
0.000193072
1.20373e-05
0.000190054
1.20665e-05
0.000187029
1.20936e-05
0.000183998
1.21188e-05
0.00018096
1.21421e-05
0.000177918
1.21637e-05
0.000174871
1.21836e-05
0.000171819
1.22018e-05
0.000168763
1.22184e-05
0.000165703
1.22336e-05
0.00016264
1.22473e-05
0.000159574
1.22597e-05
0.000156505
1.22708e-05
0.000153434
1.22806e-05
0.000150361
1.22893e-05
0.000147286
1.22969e-05
0.000144209
1.23034e-05
0.000141131
1.2309e-05
0.000138052
1.23136e-05
0.000134972
1.23173e-05
0.000131891
1.23202e-05
0.00012881
1.23224e-05
0.000125728
1.23238e-05
0.000122647
1.23246e-05
0.000119565
1.23247e-05
0.000116483
1.23243e-05
0.000113402
1.23233e-05
0.000110321
1.23219e-05
0.000107241
1.232e-05
0.000104161
1.23177e-05
0.000101082
1.2315e-05
9.8004e-05
1.2312e-05
9.49265e-05
1.23088e-05
9.185e-05
1.23053e-05
8.87745e-05
1.23015e-05
8.56999e-05
1.22976e-05
8.26264e-05
1.22936e-05
7.9554e-05
1.22894e-05
7.64827e-05
1.22851e-05
7.34124e-05
1.22808e-05
7.03433e-05
1.22764e-05
6.72753e-05
1.22721e-05
6.42084e-05
1.22677e-05
6.11426e-05
1.22634e-05
5.80779e-05
1.22592e-05
5.50142e-05
1.2255e-05
5.19516e-05
1.22509e-05
4.889e-05
1.2247e-05
4.58293e-05
1.22432e-05
4.27696e-05
1.22396e-05
3.97107e-05
1.22361e-05
3.66527e-05
1.22328e-05
3.35954e-05
1.22297e-05
3.05389e-05
1.22269e-05
2.7483e-05
1.22242e-05
2.44278e-05
1.22218e-05
2.13731e-05
1.22197e-05
1.83189e-05
1.22177e-05
1.52651e-05
1.22161e-05
1.22117e-05
1.22147e-05
9.1585e-06
1.22136e-05
6.10555e-06
1.22128e-05
3.05274e-06
1.22122e-05
1.22119e-05
3.67474e-06
-1.83761e-05
7.34957e-06
-1.83765e-05
1.10246e-05
-1.83773e-05
1.46998e-05
-1.83785e-05
1.83754e-05
-1.838e-05
2.20514e-05
-1.83819e-05
2.57279e-05
-1.83842e-05
2.94049e-05
-1.83868e-05
3.30825e-05
-1.83897e-05
3.67608e-05
-1.83928e-05
4.04398e-05
-1.83962e-05
4.41196e-05
-1.83997e-05
4.78002e-05
-1.84034e-05
5.14816e-05
-1.84072e-05
5.51638e-05
-1.84111e-05
5.88469e-05
-1.84149e-05
6.25308e-05
-1.84187e-05
6.62155e-05
-1.84224e-05
6.9901e-05
-1.84258e-05
7.35872e-05
-1.8429e-05
7.72741e-05
-1.84319e-05
8.09616e-05
-1.84343e-05
8.46496e-05
-1.84363e-05
8.83379e-05
-1.84377e-05
9.20265e-05
-1.84384e-05
9.57152e-05
-1.84383e-05
9.94039e-05
-1.84374e-05
0.000103092
-1.84355e-05
0.00010678
-1.84326e-05
0.000110467
-1.84284e-05
0.000114154
-1.8423e-05
0.000117839
-1.84162e-05
0.000121522
-1.84079e-05
0.000125204
-1.83979e-05
0.000128884
-1.83861e-05
0.000132561
-1.83725e-05
0.000136235
-1.83568e-05
0.000139905
-1.83389e-05
0.000143572
-1.83188e-05
0.000147234
-1.82962e-05
0.000150892
-1.8271e-05
0.000154544
-1.8243e-05
0.00015819
-1.82122e-05
0.000161829
-1.81783e-05
0.000165462
-1.81413e-05
0.000169086
-1.81009e-05
0.000172702
-1.8057e-05
0.000176308
-1.80095e-05
0.000179905
-1.79581e-05
0.00018349
-1.79028e-05
0.000187064
-1.78434e-05
0.000190625
-1.77797e-05
0.000194173
-1.77115e-05
0.000197706
-1.76387e-05
0.000201225
-1.75612e-05
0.000204726
-1.74788e-05
0.000208211
-1.73913e-05
0.000211677
-1.72986e-05
0.000215124
-1.72005e-05
0.00021855
-1.7097e-05
0.000221954
-1.69878e-05
0.000225336
-1.68728e-05
0.000228694
-1.6752e-05
0.000232026
-1.6625e-05
0.000235332
-1.6492e-05
0.00023861
-1.63526e-05
0.000241859
-1.62069e-05
0.000245078
-1.60546e-05
0.000248265
-1.58958e-05
0.000251419
-1.57304e-05
0.000254539
-1.55581e-05
0.000257623
-1.53791e-05
0.00026067
-1.51931e-05
0.000263679
-1.50002e-05
0.000266647
-1.48003e-05
0.000269574
-1.45934e-05
0.000272459
-1.43795e-05
0.000275299
-1.41585e-05
0.000278093
-1.39305e-05
0.000280841
-1.36954e-05
0.00028354
-1.34532e-05
0.000286189
-1.32041e-05
0.000288787
-1.2948e-05
0.000291332
-1.26851e-05
0.000293823
-1.24153e-05
0.000296259
-1.21388e-05
0.000298638
-1.18556e-05
0.000300958
-1.15659e-05
0.00030322
-1.12698e-05
0.000305421
-1.09674e-05
0.00030756
-1.06589e-05
0.000309636
-1.03444e-05
0.000311647
-1.0024e-05
0.000313593
-9.69802e-06
0.000315473
-9.36658e-06
0.000317285
-9.0299e-06
0.000319028
-8.68818e-06
0.000320702
-8.34165e-06
0.000322305
-7.99053e-06
0.000323837
-7.63508e-06
0.000325297
-7.27553e-06
0.000326684
-6.91215e-06
0.000327997
-6.54521e-06
0.000329235
-6.17496e-06
0.000330399
-5.8017e-06
0.000331487
-5.42571e-06
0.000332499
-5.04727e-06
0.000333434
-4.66668e-06
0.000334293
-4.28424e-06
0.000335075
-3.90024e-06
0.000335779
-3.51499e-06
0.000336405
-3.12879e-06
0.000336954
-2.74194e-06
0.000337425
-2.35475e-06
0.000337818
-1.96752e-06
0.000338134
-1.58055e-06
0.000338372
-1.19415e-06
0.000338532
-8.08598e-07
0.000338615
-4.24198e-07
0.000338621
-4.12361e-08
0.000338551
3.40004e-07
0.000338404
7.19244e-07
0.000338182
1.09621e-06
0.000337885
1.47064e-06
0.000337513
1.84228e-06
0.000337066
2.21087e-06
0.000336547
2.57617e-06
0.000335955
2.93794e-06
0.000335291
3.29596e-06
0.000334556
3.65002e-06
0.000333751
3.9999e-06
0.000332876
4.34541e-06
0.000331933
4.68636e-06
0.000330923
5.02256e-06
0.000329846
5.35387e-06
0.000328704
5.68011e-06
0.000327497
6.00114e-06
0.000326227
6.31682e-06
0.000324895
6.62703e-06
0.000323502
6.93165e-06
0.000322049
7.23058e-06
0.000320537
7.52373e-06
0.000318968
7.81099e-06
0.000317342
8.09232e-06
0.000315662
8.36763e-06
0.000313927
8.63687e-06
0.00031214
8.90001e-06
0.000310301
9.15699e-06
0.000308412
9.40781e-06
0.000306474
9.65243e-06
0.000304488
9.89086e-06
0.000302456
1.01231e-05
0.000300379
1.03491e-05
0.000298258
1.0569e-05
0.000296094
1.07826e-05
0.000293889
1.09902e-05
0.000291643
1.11917e-05
0.000289359
1.13871e-05
0.000287036
1.15765e-05
0.000284677
1.176e-05
0.000282283
1.19376e-05
0.000279854
1.21094e-05
0.000277392
1.22754e-05
0.000274898
1.24358e-05
0.000272373
1.25906e-05
0.000269819
1.27398e-05
0.000267236
1.28836e-05
0.000264625
1.30221e-05
0.000261988
1.31554e-05
0.000259325
1.32835e-05
0.000256638
1.34065e-05
0.000253927
1.35247e-05
0.000251194
1.36379e-05
0.000248439
1.37464e-05
0.000245663
1.38503e-05