/*--------------------------------*- C++ -*----------------------------------*\
| =========                 |                                                 |
| \\      /  F ield         | OpenFOAM: The Open Source CFD Toolbox           |
|  \\    /   O peration     | Version:  v2012                                 |
|   \\  /    A nd           | Website:  www.openfoam.com                      |
|    \\/     M anipulation  |                                                 |
\*---------------------------------------------------------------------------*/
FoamFile
{
    version     2.0;
    format      ascii;
    class       volScalarField;
    location    "10";
    object      Psi_z;
}
// * * * * * * * * * * * * * * * * * * * * * * * * * * * * * * * * * * * * * //

dimensions      [0 2 -1 0 0 0 0];


internalField   nonuniform List<scalar> 
65536
(
9.18088e-06
2.75429e-05
4.59055e-05
6.42691e-05
8.26341e-05
0.000101001
0.00011937
0.000137741
0.000156115
0.000174493
0.000192873
0.000211258
0.000229645
0.000248037
0.000266433
0.000284833
0.000303236
0.000321644
0.000340055
0.000358469
0.000376887
0.000395308
0.000413731
0.000432156
0.000450582
0.000469009
0.000487435
0.000505861
0.000524284
0.000542704
0.000561119
0.000579529
0.000597931
0.000616324
0.000634707
0.000653078
0.000671434
0.000689774
0.000708095
0.000726395
0.000744672
0.000762922
0.000781144
0.000799333
0.000817488
0.000835605
0.000853679
0.000871709
0.00088969
0.000907618
0.000925489
0.000943299
0.000961044
0.000978718
0.000996319
0.00101384
0.00103128
0.00104862
0.00106588
0.00108303
0.00110008
0.00111701
0.00113383
0.00115053
0.00116709
0.00118352
0.00119981
0.00121595
0.00123194
0.00124776
0.00126342
0.0012789
0.0012942
0.00130931
0.00132423
0.00133894
0.00135345
0.00136774
0.0013818
0.00139563
0.00140923
0.00142258
0.00143568
0.00144852
0.0014611
0.0014734
0.00148542
0.00149716
0.00150861
0.00151976
0.0015306
0.00154113
0.00155135
0.00156124
0.00157081
0.00158004
0.00158894
0.00159749
0.00160569
0.00161354
0.00162103
0.00162816
0.00163493
0.00164133
0.00164735
0.00165301
0.00165828
0.00166318
0.00166769
0.00167182
0.00167557
0.00167893
0.00168191
0.0016845
0.0016867
0.00168851
0.00168993
0.00169097
0.00169163
0.0016919
0.00169179
0.00169129
0.00169042
0.00168917
0.00168755
0.00168556
0.0016832
0.00168047
0.00167739
0.00167394
0.00167015
0.001666
0.00166151
0.00165669
0.00165152
0.00164603
0.00164021
0.00163407
0.00162762
0.00162086
0.0016138
0.00160644
0.00159879
0.00159085
0.00158263
0.00157414
0.00156538
0.00155636
0.00154709
0.00153757
0.0015278
0.0015178
0.00150756
0.00149711
0.00148643
0.00147555
0.00146445
0.00145316
0.00144168
0.00143
0.00141815
0.00140612
0.00139392
0.00138155
0.00136903
0.00135635
0.00134353
0.00133057
0.00131746
0.00130423
0.00129087
0.00127739
0.00126379
0.00125008
0.00123627
0.00122235
0.00120834
0.00119423
0.00118003
0.00116575
0.00115138
0.00113694
0.00112243
0.00110785
0.0010932
0.00107849
0.00106372
0.0010489
0.00103402
0.0010191
0.00100413
0.000989114
0.00097406
0.000958968
0.000943841
0.000928681
0.000913492
0.000898274
0.00088303
0.000867763
0.000852474
0.000837166
0.00082184
0.000806497
0.00079114
0.000775771
0.000760389
0.000744998
0.000729599
0.000714192
0.000698779
0.000683361
0.000667939
0.000652515
0.000637088
0.00062166
0.000606232
0.000590805
0.000575378
0.000559954
0.000544531
0.000529112
0.000513696
0.000498284
0.000482875
0.000467472
0.000452073
0.000436679
0.000421291
0.000405907
0.00039053
0.000375158
0.000359791
0.00034443
0.000329075
0.000313726
0.000298382
0.000283043
0.00026771
0.000252382
0.000237059
0.000221741
0.000206427
0.000191118
0.000175813
0.000160511
0.000145213
0.000129919
0.000114627
9.93382e-05
8.40515e-05
6.87667e-05
5.34836e-05
3.82016e-05
2.29206e-05
7.64015e-06
2.75425e-05
8.26281e-05
0.000137716
0.000192806
0.000247901
0.000303001
0.000358107
0.000413221
0.000468344
0.000523475
0.000578617
0.000633769
0.000688933
0.000744108
0.000799295
0.000854494
0.000909705
0.000964927
0.00102016
0.00107541
0.00113066
0.00118592
0.00124119
0.00129647
0.00135175
0.00140703
0.00146231
0.00151758
0.00157285
0.00162812
0.00168336
0.00173859
0.0017938
0.00184898
0.00190413
0.00195925
0.00201432
0.00206934
0.00212431
0.00217921
0.00223404
0.0022888
0.00234346
0.00239804
0.0024525
0.00250686
0.00256108
0.00261518
0.00266912
0.00272291
0.00277653
0.00282996
0.0028832
0.00293623
0.00298904
0.0030416
0.00309392
0.00314597
0.00319773
0.00324919
0.00330034
0.00335115
0.00340161
0.0034517
0.00350141
0.00355071
0.00359958
0.00364801
0.00369597
0.00374345
0.00379043
0.00383689
0.00388279
0.00392814
0.00397289
0.00401704
0.00406056
0.00410343
0.00414563
0.00418714
0.00422793
0.00426799
0.0043073
0.00434583
0.00438356
0.00442048
0.00445656
0.00449178
0.00452613
0.00455958
0.00459211
0.00462372
0.00465437
0.00468406
0.00471276
0.00474046
0.00476715
0.0047928
0.00481741
0.00484097
0.00486345
0.00488485
0.00490515
0.00492435
0.00494243
0.00495939
0.00497522
0.00498991
0.00500346
0.00501585
0.0050271
0.00503718
0.00504611
0.00505387
0.00506047
0.00506591
0.00507019
0.0050733
0.00507527
0.00507608
0.00507574
0.00507425
0.00507164
0.00506789
0.00506302
0.00505704
0.00504995
0.00504177
0.00503251
0.00502218
0.00501079
0.00499835
0.00498488
0.00497039
0.00495489
0.00493841
0.00492095
0.00490253
0.00488317
0.00486288
0.00484169
0.0048196
0.00479664
0.00477282
0.00474816
0.00472269
0.00469641
0.00466934
0.00464151
0.00461294
0.00458363
0.00455362
0.00452291
0.00449154
0.0044595
0.00442684
0.00439355
0.00435967
0.00432521
0.00429018
0.00425461
0.00421852
0.00418191
0.00414481
0.00410724
0.00406921
0.00403073
0.00399183
0.00395252
0.00391282
0.00387273
0.00383228
0.00379149
0.00375036
0.00370891
0.00366715
0.0036251
0.00358277
0.00354017
0.00349732
0.00345422
0.0034109
0.00336736
0.00332361
0.00327966
0.00323553
0.00319122
0.00314675
0.00310212
0.00305734
0.00301242
0.00296738
0.00292221
0.00287694
0.00283155
0.00278607
0.0027405
0.00269484
0.00264911
0.00260331
0.00255744
0.00251151
0.00246553
0.0024195
0.00237343
0.00232732
0.00228118
0.002235
0.0021888
0.00214258
0.00209634
0.00205009
0.00200382
0.00195754
0.00191126
0.00186498
0.00181869
0.00177241
0.00172613
0.00167986
0.00163359
0.00158733
0.00154108
0.00149484
0.00144862
0.00140241
0.00135621
0.00131003
0.00126387
0.00121772
0.00117158
0.00112547
0.00107937
0.00103328
0.000987219
0.000941171
0.000895139
0.000849124
0.000803124
0.00075714
0.000711172
0.000665217
0.000619276
0.000573349
0.000527434
0.00048153
0.000435637
0.000389753
0.000343879
0.000298012
0.000252152
0.000206298
0.000160449
0.000114604
6.87613e-05
2.29203e-05
4.59035e-05
0.000137711
0.000229522
0.000321339
0.000413162
0.000504994
0.000596837
0.000688693
0.000780562
0.000872448
0.00096435
0.00105627
0.00114821
0.00124017
0.00133215
0.00142414
0.00151616
0.0016082
0.00170026
0.00179233
0.00188442
0.00197653
0.00206865
0.00216077
0.00225291
0.00234505
0.00243718
0.00252931
0.00262144
0.00271354
0.00280562
0.00289768
0.0029897
0.00308167
0.0031736
0.00326546
0.00335725
0.00344896
0.00354058
0.00363209
0.00372349
0.00381476
0.00390588
0.00399684
0.00408763
0.00417823
0.00426862
0.00435879
0.00444871
0.00453837
0.00462775
0.00471682
0.00480557
0.00489396
0.00498199
0.00506962
0.00515683
0.00524359
0.00532988
0.00541567
0.00550094
0.00558564
0.00566976
0.00575327
0.00583613
0.00591832
0.00599979
0.00608053
0.00616049
0.00623965
0.00631797
0.00639541
0.00647195
0.00654754
0.00662216
0.00669577
0.00676832
0.0068398
0.00691015
0.00697936
0.00704737
0.00711416
0.00717969
0.00724393
0.00730684
0.00736839
0.00742855
0.00748727
0.00754454
0.00760031
0.00765456
0.00770725
0.00775836
0.00780786
0.00785571
0.0079019
0.00794639
0.00798917
0.0080302
0.00806947
0.00810695
0.00814262
0.00817647
0.00820848
0.00823863
0.00826691
0.0082933
0.00831779
0.00834037
0.00836104
0.00837978
0.00839659
0.00841147
0.00842441
0.00843541
0.00844447
0.0084516
0.00845679
0.00846006
0.0084614
0.00846083
0.00845835
0.00845398
0.00844772
0.0084396
0.00842962
0.0084178
0.00840416
0.00838871
0.00837147
0.00835247
0.00833173
0.00830926
0.00828509
0.00825925
0.00823176
0.00820265
0.00817193
0.00813965
0.00810582
0.00807047
0.00803364
0.00799535
0.00795563
0.00791452
0.00787204
0.00782822
0.00778309
0.00773668
0.00768904
0.00764018
0.00759013
0.00753893
0.00748662
0.00743321
0.00737875
0.00732326
0.00726676
0.00720931
0.00715091
0.00709161
0.00703143
0.0069704
0.00690855
0.00684591
0.0067825
0.00671836
0.00665351
0.00658797
0.00652178
0.00645496
0.00638753
0.00631952
0.00625095
0.00618185
0.00611224
0.00604214
0.00597157
0.00590056
0.00582913
0.00575729
0.00568508
0.00561249
0.00553956
0.00546631
0.00539274
0.00531888
0.00524475
0.00517036
0.00509572
0.00502085
0.00494577
0.00487048
0.00479501
0.00471936
0.00464355
0.00456759
0.00449149
0.00441526
0.00433892
0.00426246
0.00418591
0.00410927
0.00403255
0.00395576
0.0038789
0.00380199
0.00372503
0.00364803
0.00357099
0.00349392
0.00341682
0.00333971
0.00326258
0.00318544
0.0031083
0.00303115
0.00295401
0.00287688
0.00279975
0.00272264
0.00264554
0.00256846
0.00249139
0.00241435
0.00233733
0.00226034
0.00218337
0.00210642
0.00202951
0.00195262
0.00187576
0.00179893
0.00172212
0.00164535
0.0015686
0.00149188
0.00141519
0.00133852
0.00126188
0.00118527
0.00110868
0.00103211
0.000955568
0.000879043
0.000802538
0.00072605
0.000649579
0.000573122
0.000496679
0.000420247
0.000343825
0.000267411
0.000191004
0.0001146
3.81998e-05
6.42634e-05
0.000192792
0.000321324
0.000449864
0.000578414
0.000706977
0.000835555
0.00096415
0.00109277
0.0012214
0.00135006
0.00147875
0.00160746
0.00173621
0.00186498
0.00199377
0.0021226
0.00225145
0.00238033
0.00250924
0.00263817
0.00276712
0.00289609
0.00302507
0.00315407
0.00328307
0.00341206
0.00354106
0.00367003
0.00379899
0.00392792
0.0040568
0.00418564
0.00431442
0.00444312
0.00457174
0.00470027
0.00482868
0.00495696
0.00508509
0.00521307
0.00534086
0.00546845
0.00559582
0.00572295
0.00584981
0.00597639
0.00610265
0.00622857
0.00635412
0.00647927
0.00660401
0.00672828
0.00685207
0.00697534
0.00709806
0.00722019
0.00734169
0.00746254
0.00758268
0.00770209
0.00782072
0.00793853
0.00805548
0.00817153
0.00828664
0.00840075
0.00851383
0.00862582
0.00873669
0.00884638
0.00895485
0.00906205
0.00916793
0.00927244
0.00937554
0.00947717
0.00957728
0.00967583
0.00977276
0.00986803
0.00996159
0.0100534
0.0101434
0.0102315
0.0103177
0.010402
0.0104842
0.0105644
0.0106426
0.0107186
0.0107924
0.010864
0.0109333
0.0110003
0.011065
0.0111274
0.0111873
0.0112448
0.0112998
0.0113523
0.0114022
0.0114496
0.0114945
0.0115367
0.0115763
0.0116133
0.0116476
0.0116792
0.0117081
0.0117344
0.0117579
0.0117788
0.0117969
0.0118123
0.011825
0.0118349
0.0118422
0.0118468
0.0118486
0.0118478
0.0118443
0.0118382
0.0118294
0.011818
0.011804
0.0117875
0.0117683
0.0117467
0.0117225
0.0116959
0.0116668
0.0116353
0.0116015
0.0115653
0.0115267
0.0114859
0.0114429
0.0113977
0.0113503
0.0113007
0.0112491
0.0111955
0.0111398
0.0110822
0.0110227
0.0109613
0.0108981
0.0108331
0.0107664
0.0106979
0.0106278
0.0105561
0.0104828
0.010408
0.0103317
0.010254
0.0101748
0.0100943
0.0100125
0.00992948
0.00984519
0.00975971
0.00967308
0.00958534
0.00949653
0.0094067
0.00931587
0.00922408
0.00913137
0.00903779
0.00894335
0.0088481
0.00875208
0.0086553
0.00855782
0.00845965
0.00836083
0.00826138
0.00816135
0.00806075
0.00795962
0.00785797
0.00775585
0.00765326
0.00755025
0.00744682
0.00734301
0.00723884
0.00713433
0.00702949
0.00692436
0.00681894
0.00671326
0.00660734
0.00650118
0.00639482
0.00628827
0.00618154
0.00607464
0.00596759
0.0058604
0.0057531
0.00564568
0.00553816
0.00543055
0.00532286
0.0052151
0.00510729
0.00499942
0.00489152
0.00478358
0.00467561
0.00456762
0.00445963
0.00435162
0.00424361
0.00413561
0.00402762
0.00391964
0.00381167
0.00370373
0.00359581
0.00348792
0.00338006
0.00327223
0.00316444
0.00305668
0.00294896
0.00284127
0.00273363
0.00262602
0.00251846
0.00241093
0.00230345
0.002196
0.00208859
0.00198123
0.0018739
0.0017666
0.00165934
0.00155212
0.00144493
0.00133777
0.00123063
0.00112353
0.00101645
0.00090939
0.000802353
0.000695335
0.000588333
0.000481344
0.000374367
0.000267399
0.000160437
5.34785e-05
8.26219e-05
0.000247868
0.000413119
0.00057838
0.000743654
0.000908944
0.00107425
0.00123959
0.00140495
0.00157033
0.00173575
0.00190121
0.00206669
0.00223222
0.00239778
0.00256337
0.00272901
0.00289468
0.00306039
0.00322613
0.0033919
0.0035577
0.00372352
0.00388937
0.00405522
0.00422109
0.00438695
0.00455281
0.00471865
0.00488447
0.00505024
0.00521597
0.00538164
0.00554723
0.00571273
0.00587813
0.00604339
0.00620852
0.00637348
0.00653826
0.00670283
0.00686716
0.00703125
0.00719505
0.00735854
0.00752169
0.00768447
0.00784685
0.00800879
0.00817026
0.00833123
0.00849165
0.00865148
0.0088107
0.00896925
0.00912708
0.00928417
0.00944045
0.00959589
0.00975043
0.00990402
0.0100566
0.0102082
0.0103586
0.0105079
0.0106559
0.0108027
0.0109482
0.0110923
0.0112349
0.011376
0.0115156
0.0116535
0.0117897
0.0119241
0.0120568
0.0121875
0.0123163
0.0124431
0.0125678
0.0126904
0.0128108
0.0129289
0.0130447
0.013158
0.013269
0.0133774
0.0134832
0.0135864
0.013687
0.0137847
0.0138797
0.0139718
0.014061
0.0141473
0.0142305
0.0143107
0.0143878
0.0144618
0.0145325
0.0146001
0.0146644
0.0147254
0.0147831
0.0148374
0.0148884
0.0149359
0.01498
0.0150207
0.015058
0.0150917
0.015122
0.0151488
0.0151721
0.0151919
0.0152082
0.015221
0.0152303
0.0152362
0.0152386
0.0152375
0.015233
0.0152251
0.0152138
0.0151991
0.015181
0.0151597
0.0151351
0.0151072
0.0150761
0.0150418
0.0150043
0.0149638
0.0149202
0.0148736
0.014824
0.0147715
0.0147161
0.0146578
0.0145968
0.0145331
0.0144667
0.0143976
0.014326
0.0142519
0.0141753
0.0140963
0.0140149
0.0139313
0.0138454
0.0137573
0.0136671
0.0135748
0.0134805
0.0133842
0.0132861
0.0131861
0.0130842
0.0129807
0.0128755
0.0127686
0.0126601
0.0125502
0.0124387
0.0123258
0.0122116
0.012096
0.0119792
0.0118611
0.0117419
0.0116215
0.0115
0.0113775
0.011254
0.0111295
0.0110041
0.0108778
0.0107507
0.0106228
0.0104941
0.0103647
0.0102347
0.0101039
0.00997259
0.00984066
0.00970817
0.00957515
0.00944164
0.00930767
0.00917326
0.00903843
0.00890323
0.00876766
0.00863175
0.00849554
0.00835903
0.00822225
0.00808523
0.00794797
0.00781051
0.00767285
0.00753502
0.00739703
0.0072589
0.00712064
0.00698227
0.00684379
0.00670524
0.0065666
0.0064279
0.00628915
0.00615036
0.00601153
0.00587268
0.00573382
0.00559494
0.00545607
0.0053172
0.00517834
0.00503951
0.00490069
0.0047619
0.00462314
0.00448442
0.00434574
0.0042071
0.0040685
0.00392995
0.00379145
0.003653
0.0035146
0.00337625
0.00323795
0.0030997
0.00296151
0.00282336
0.00268527
0.00254723
0.00240923
0.00227129
0.00213338
0.00199553
0.00185771
0.00171994
0.0015822
0.00144449
0.00130682
0.00116918
0.00103157
0.000893974
0.000756404
0.000618852
0.000481314
0.000343788
0.000206269
6.87559e-05
0.000100978
0.000302938
0.000504904
0.000706882
0.000908876
0.00111089
0.00131293
0.001515
0.0017171
0.00191924
0.00212141
0.00232363
0.00252589
0.00272819
0.00293054
0.00313294
0.00333538
0.00353787
0.00374041
0.00394298
0.0041456
0.00434825
0.00455093
0.00475364
0.00495637
0.00515911
0.00536185
0.00556458
0.0057673
0.00596998
0.00617262
0.00637521
0.00657772
0.00678014
0.00698245
0.00718463
0.00738667
0.00758853
0.00779019
0.00799163
0.00819282
0.00839373
0.00859433
0.00879458
0.00899446
0.00919393
0.00939295
0.00959148
0.00978948
0.00998691
0.0101837
0.0103799
0.0105753
0.01077
0.0109639
0.0111569
0.011349
0.0115401
0.0117301
0.0119191
0.012107
0.0122936
0.0124789
0.0126629
0.0128454
0.0130265
0.0132061
0.013384
0.0135602
0.0137346
0.0139072
0.0140779
0.0142466
0.0144132
0.0145777
0.0147399
0.0148998
0.0150574
0.0152125
0.0153651
0.015515
0.0156622
0.0158067
0.0159483
0.016087
0.0162228
0.0163554
0.0164849
0.0166111
0.0167341
0.0168537
0.0169699
0.0170826
0.0171917
0.0172973
0.0173991
0.0174972
0.0175915
0.017682
0.0177686
0.0178512
0.0179298
0.0180045
0.018075
0.0181415
0.0182038
0.018262
0.0183159
0.0183657
0.0184112
0.0184525
0.0184895
0.0185223
0.0185508
0.018575
0.0185949
0.0186105
0.0186219
0.0186291
0.0186319
0.0186306
0.0186251
0.0186153
0.0186015
0.0185835
0.0185614
0.0185352
0.018505
0.0184709
0.0184328
0.0183908
0.018345
0.0182953
0.018242
0.0181849
0.0181242
0.0180599
0.0179921
0.0179208
0.0178461
0.0177681
0.0176868
0.0176024
0.0175147
0.017424
0.0173303
0.0172336
0.017134
0.0170317
0.0169266
0.0168188
0.0167084
0.0165955
0.0164802
0.0163624
0.0162423
0.0161199
0.0159954
0.0158687
0.01574
0.0156093
0.0154766
0.0153421
0.0152058
0.0150677
0.014928
0.0147866
0.0146437
0.0144993
0.0143535
0.0142062
0.0140577
0.0139078
0.0137568
0.0136046
0.0134512
0.0132968
0.0131414
0.012985
0.0128276
0.0126694
0.0125104
0.0123505
0.0121899
0.0120286
0.0118666
0.011704
0.0115407
0.0113769
0.0112126
0.0110478
0.0108825
0.0107167
0.0105506
0.010384
0.0102171
0.0100499
0.00988241
0.00971462
0.00954657
0.00937829
0.00920979
0.00904111
0.00887225
0.00870324
0.00853409
0.00836482
0.00819544
0.00802598
0.00785644
0.00768683
0.00751718
0.00734748
0.00717776
0.00700802
0.00683827
0.00666852
0.00649878
0.00632905
0.00615935
0.00598968
0.00582004
0.00565044
0.00548088
0.00531138
0.00514192
0.00497252
0.00480318
0.00463389
0.00446467
0.00429551
0.00412642
0.00395739
0.00378842
0.00361951
0.00345067
0.0032819
0.00311318
0.00294452
0.00277592
0.00260738
0.00243889
0.00227046
0.00210207
0.00193373
0.00176543
0.00159717
0.00142894
0.00126075
0.00109259
0.000924458
0.000756345
0.000588249
0.000420168
0.000252097
8.40317e-05
0.000119333
0.000358001
0.000596678
0.000835369
0.00107408
0.00131281
0.00155158
0.00179038
0.00202922
0.0022681
0.00250703
0.002746
0.00298503
0.00322412
0.00346326
0.00370246
0.00394171
0.00418102
0.00442038
0.0046598
0.00489926
0.00513877
0.00537832
0.0056179
0.0058575
0.00609712
0.00633675
0.00657637
0.00681597
0.00705554
0.00729506
0.00753451
0.00777389
0.00801315
0.0082523
0.00849129
0.00873011
0.00896873
0.00920712
0.00944525
0.00968309
0.0099206
0.0101577
0.0103945
0.0106308
0.0108666
0.0111019
0.0113366
0.0115707
0.0118042
0.0120369
0.0122688
0.0124999
0.0127301
0.0129593
0.0131876
0.0134147
0.0136407
0.0138655
0.014089
0.0143111
0.0145318
0.014751
0.0149686
0.0151845
0.0153987
0.015611
0.0158214
0.0160299
0.0162362
0.0164403
0.0166422
0.0168418
0.0170389
0.0172334
0.0174253
0.0176145
0.0178009
0.0179844
0.0181649
0.0183423
0.0185165
0.0186874
0.018855
0.0190191
0.0191796
0.0193365
0.0194897
0.0196391
0.0197846
0.0199261
0.0200636
0.0201969
0.0203261
0.0204509
0.0205714
0.0206875
0.0207991
0.0209061
0.0210085
0.0211063
0.0211993
0.0212876
0.0213711
0.0214497
0.0215234
0.0215922
0.0216561
0.0217149
0.0217688
0.0218176
0.0218614
0.0219001
0.0219337
0.0219623
0.0219859
0.0220044
0.0220178
0.0220262
0.0220295
0.0220279
0.0220213
0.0220098
0.0219933
0.0219719
0.0219458
0.0219148
0.021879
0.0218385
0.0217934
0.0217437
0.0216894
0.0216306
0.0215674
0.0214998
0.021428
0.0213518
0.0212716
0.0211872
0.0210988
0.0210064
0.0209102
0.0208102
0.0207065
0.0205991
0.0204882
0.0203738
0.0202559
0.0201348
0.0200104
0.0198829
0.0197523
0.0196187
0.0194822
0.0193429
0.0192008
0.019056
0.0189087
0.0187588
0.0186065
0.0184519
0.018295
0.0181358
0.0179746
0.0178113
0.017646
0.0174788
0.0173098
0.017139
0.0169665
0.0167923
0.0166166
0.0164394
0.0162608
0.0160808
0.0158994
0.0157168
0.015533
0.0153481
0.015162
0.0149749
0.0147869
0.0145979
0.014408
0.0142172
0.0140257
0.0138334
0.0136404
0.0134467
0.0132524
0.0130576
0.0128621
0.0126662
0.0124698
0.0122729
0.0120756
0.0118779
0.0116799
0.0114815
0.0112829
0.0110839
0.0108848
0.0106854
0.0104858
0.010286
0.010086
0.00988595
0.00968574
0.00948543
0.00928503
0.00908456
0.00888403
0.00868346
0.00848285
0.00828223
0.0080816
0.00788096
0.00768034
0.00747974
0.00727917
0.00707863
0.00687814
0.00667769
0.0064773
0.00627696
0.00607669
0.00587648
0.00567634
0.00547628
0.00527629
0.00507637
0.00487653
0.00467676
0.00447707
0.00427746
0.00407792
0.00387846
0.00367907
0.00347976
0.00328051
0.00308133
0.00288221
0.00268315
0.00248416
0.00228521
0.00208632
0.00188748
0.00168868
0.00148991
0.00129119
0.00109249
0.00089382
0.000695171
0.000496539
0.000297919
9.93054e-05
0.000137684
0.000413056
0.000688437
0.000963836
0.00123926
0.00151471
0.00179019
0.00206572
0.00234129
0.00261691
0.00289259
0.00316833
0.00344413
0.00371999
0.00399592
0.00427192
0.00454798
0.00482411
0.00510031
0.00537657
0.00565288
0.00592926
0.00620567
0.00648213
0.00675862
0.00703514
0.00731166
0.00758818
0.00786468
0.00814114
0.00841756
0.00869391
0.00897016
0.0092463
0.00952229
0.00979812
0.0100738
0.0103492
0.0106243
0.0108992
0.0111737
0.0114478
0.0117216
0.0119948
0.0122676
0.0125398
0.0128115
0.0130824
0.0133527
0.0136222
0.0138908
0.0141586
0.0144254
0.0146912
0.0149558
0.0152193
0.0154816
0.0157426
0.0160021
0.0162602
0.0165167
0.0167715
0.0170246
0.0172759
0.0175253
0.0177726
0.0180179
0.0182609
0.0185016
0.0187399
0.0189757
0.0192089
0.0194394
0.0196671
0.0198918
0.0201135
0.020332
0.0205474
0.0207593
0.0209678
0.0211727
0.021374
0.0215714
0.021765
0.0219546
0.0221401
0.0223214
0.0224984
0.022671
0.0228391
0.0230026
0.0231614
0.0233155
0.0234647
0.0236089
0.0237481
0.0238822
0.0240111
0.0241348
0.0242531
0.0243661
0.0244736
0.0245756
0.024672
0.0247628
0.024848
0.0249274
0.0250012
0.0250691
0.0251313
0.0251877
0.0252382
0.0252829
0.0253218
0.0253548
0.0253819
0.0254032
0.0254187
0.0254283
0.0254322
0.0254302
0.0254225
0.0254091
0.02539
0.0253653
0.0253349
0.0252991
0.0252577
0.0252108
0.0251586
0.0251011
0.0250383
0.0249703
0.0248972
0.0248191
0.024736
0.024648
0.0245551
0.0244576
0.0243554
0.0242486
0.0241374
0.0240218
0.0239019
0.0237778
0.0236496
0.0235173
0.0233812
0.0232412
0.0230975
0.0229501
0.0227992
0.0226448
0.0224871
0.0223261
0.022162
0.0219947
0.0218245
0.0216514
0.0214754
0.0212968
0.0211155
0.0209317
0.0207455
0.0205568
0.0203659
0.0201728
0.0199776
0.0197803
0.0195811
0.01938
0.0191771
0.0189725
0.0187662
0.0185583
0.0183489
0.0181381
0.0179258
0.0177123
0.0174975
0.0172815
0.0170643
0.0168461
0.0166269
0.0164067
0.0161855
0.0159635
0.0157407
0.0155172
0.0152929
0.0150679
0.0148423
0.0146161
0.0143894
0.0141621
0.0139344
0.0137062
0.0134777
0.0132487
0.0130194
0.0127898
0.01256
0.0123298
0.0120994
0.0118689
0.0116381
0.0114072
0.0111761
0.010945
0.0107137
0.0104824
0.0102509
0.0100195
0.00978797
0.00955645
0.00932492
0.0090934
0.00886189
0.0086304
0.00839895
0.00816754
0.00793619
0.00770489
0.00747365
0.00724249
0.00701139
0.00678038
0.00654944
0.00631859
0.00608783
0.00585715
0.00562656
0.00539606
0.00516565
0.00493533
0.0047051
0.00447495
0.0042449
0.00401492
0.00378502
0.00355521
0.00332546
0.00309579
0.00286619
0.00263665
0.00240717
0.00217774
0.00194837
0.00171904
0.00148975
0.0012605
0.00103127
0.000802076
0.000572898
0.000343733
0.000114577
0.000156032
0.000468101
0.00078018
0.00109228
0.00140441
0.00171656
0.00202876
0.00234101
0.00265331
0.00296567
0.0032781
0.00359059
0.00390315
0.00421579
0.00452851
0.00484131
0.00515418
0.00546714
0.00578017
0.00609328
0.00640645
0.00671969
0.00703299
0.00734633
0.00765972
0.00797314
0.00828657
0.0086
0.00891342
0.0092268
0.00954013
0.00985339
0.0101665
0.0104796
0.0107925
0.0111052
0.0114176
0.0117299
0.0120418
0.0123534
0.0126647
0.0129755
0.0132858
0.0135957
0.013905
0.0142137
0.0145217
0.0148289
0.0151354
0.015441
0.0157456
0.0160493
0.0163519
0.0166533
0.0169535
0.0172524
0.0175498
0.0178458
0.0181402
0.018433
0.0187239
0.019013
0.0193001
0.0195852
0.0198681
0.0201487
0.0204269
0.0207027
0.0209758
0.0212462
0.0215137
0.0217783
0.0220399
0.0222982
0.0225532
0.0228048
0.0230528
0.0232971
0.0235377
0.0237743
0.0240069
0.0242353
0.0244594
0.0246791
0.0248943
0.0251048
0.0253106
0.0255115
0.0257074
0.0258982
0.0260837
0.026264
0.0264389
0.0266082
0.0267719
0.0269299
0.0270822
0.0272285
0.0273688
0.0275032
0.0276313
0.0277533
0.0278691
0.0279785
0.0280816
0.0281782
0.0282684
0.028352
0.0284292
0.0284997
0.0285636
0.028621
0.0286716
0.0287157
0.0287531
0.0287838
0.0288079
0.0288254
0.0288363
0.0288405
0.0288383
0.0288294
0.0288141
0.0287924
0.0287642
0.0287297
0.0286889
0.0286418
0.0285885
0.0285292
0.0284638
0.0283924
0.0283152
0.0282321
0.0281433
0.0280489
0.0279489
0.0278434
0.0277326
0.0276165
0.0274953
0.027369
0.0272377
0.0271015
0.0269606
0.026815
0.0266649
0.0265103
0.0263513
0.0261882
0.0260209
0.0258495
0.0256743
0.0254953
0.0253125
0.0251262
0.0249364
0.0247432
0.0245467
0.024347
0.0241443
0.0239386
0.02373
0.0235187
0.0233046
0.023088
0.0228689
0.0226474
0.0224236
0.0221976
0.0219695
0.0217393
0.0215072
0.0212732
0.0210373
0.0207998
0.0205607
0.0203199
0.0200777
0.0198341
0.0195891
0.0193428
0.0190954
0.0188467
0.018597
0.0183462
0.0180945
0.0178418
0.0175883
0.017334
0.0170789
0.0168231
0.0165666
0.0163095
0.0160519
0.0157937
0.015535
0.0152758
0.0150163
0.0147563
0.014496
0.0142354
0.0139745
0.0137133
0.013452
0.0131904
0.0129286
0.0126667
0.0124046
0.0121425
0.0118802
0.0116179
0.0113555
0.0110931
0.0108307
0.0105682
0.0103058
0.0100434
0.00978103
0.00951869
0.00925641
0.00899418
0.00873202
0.00846994
0.00820794
0.00794602
0.00768419
0.00742245
0.00716082
0.00689928
0.00663784
0.0063765
0.00611527
0.00585414
0.00559311
0.00533219
0.00507136
0.00481063
0.00455
0.00428946
0.00402901
0.00376865
0.00350836
0.00324816
0.00298802
0.00272796
0.00246796
0.00220801
0.00194812
0.00168828
0.00142847
0.0011687
0.000908961
0.000649242
0.000389539
0.000129845
0.000174376
0.000523134
0.000871904
0.0012207
0.00156952
0.00191838
0.00226729
0.00261625
0.00296528
0.00331437
0.00366353
0.00401278
0.00436211
0.00471152
0.00506103
0.00541062
0.00576031
0.00611009
0.00645996
0.00680991
0.00715995
0.00751007
0.00786025
0.0082105
0.00856079
0.00891112
0.00926148
0.00961184
0.00996219
0.0103125
0.0106628
0.011013
0.0113631
0.011713
0.0120628
0.0124124
0.0127618
0.0131108
0.0134596
0.013808
0.014156
0.0145036
0.0148506
0.0151971
0.015543
0.0158882
0.0162326
0.0165762
0.016919
0.0172607
0.0176015
0.0179411
0.0182796
0.0186167
0.0189525
0.0192868
0.0196196
0.0199507
0.02028
0.0206075
0.020933
0.0212565
0.0215777
0.0218967
0.0222132
0.0225272
0.0228385
0.0231471
0.0234527
0.0237553
0.0240547
0.0243508
0.0246435
0.0249326
0.0252181
0.0254996
0.0257772
0.0260507
0.02632
0.0265848
0.0268452
0.0271009
0.0273517
0.0275977
0.0278386
0.0280743
0.0283046
0.0285295
0.0287488
0.0289624
0.0291702
0.029372
0.0295678
0.0297574
0.0299407
0.0301176
0.030288
0.0304518
0.0306089
0.0307593
0.0309028
0.0310394
0.0311689
0.0312914
0.0314068
0.0315149
0.0316158
0.0317095
0.0317957
0.0318747
0.0319462
0.0320103
0.032067
0.0321162
0.032158
0.0321924
0.0322193
0.0322387
0.0322508
0.0322555
0.0322528
0.0322429
0.0322256
0.0322011
0.0321695
0.0321307
0.0320849
0.0320321
0.0319724
0.0319058
0.0318324
0.0317524
0.0316658
0.0315727
0.0314732
0.0313673
0.0312553
0.0311371
0.0310129
0.0308829
0.030747
0.0306055
0.0304584
0.0303059
0.030148
0.029985
0.0298168
0.0296437
0.0294657
0.029283
0.0290956
0.0289038
0.0287076
0.0285071
0.0283025
0.0280939
0.0278814
0.0276652
0.0274452
0.0272217
0.0269948
0.0267646
0.0265311
0.0262946
0.0260551
0.0258126
0.0255675
0.0253196
0.0250692
0.0248163
0.024561
0.0243035
0.0240437
0.0237819
0.0235181
0.0232524
0.0229848
0.0227156
0.0224446
0.0221721
0.021898
0.0216226
0.0213458
0.0210677
0.0207884
0.0205079
0.0202264
0.0199438
0.0196603
0.0193759
0.0190906
0.0188046
0.0185178
0.0182303
0.0179422
0.0176535
0.0173642
0.0170744
0.0167842
0.0164936
0.0162025
0.0159111
0.0156194
0.0153275
0.0150352
0.0147428
0.0144501
0.0141573
0.0138644
0.0135713
0.0132781
0.0129849
0.0126916
0.0123983
0.0121049
0.0118116
0.0115182
0.0112249
0.0109316
0.0106384
0.0103452
0.0100521
0.00975909
0.00946615
0.0091733
0.00888056
0.00858791
0.00829537
0.00800294
0.00771063
0.00741843
0.00712635
0.00683438
0.00654253
0.0062508
0.00595918
0.00566767
0.00537628
0.00508499
0.00479381
0.00450273
0.00421175
0.00392086
0.00363005
0.00333933
0.00304869
0.00275812
0.00246761
0.00217716
0.00188676
0.00159641
0.0013061
0.00101582
0.000725571
0.000435336
0.000145111
0.000192716
0.000578154
0.000963606
0.00134908
0.0017346
0.00212015
0.00250576
0.00289143
0.00327717
0.00366299
0.00404889
0.00443489
0.00482097
0.00520716
0.00559345
0.00597984
0.00636634
0.00675295
0.00713966
0.00752647
0.00791338
0.00830038
0.00868746
0.00907461
0.00946182
0.00984909
0.0102364
0.0106237
0.011011
0.0113983
0.0117855
0.0121727
0.0125597
0.0129466
0.0133333
0.0137199
0.0141062
0.0144921
0.0148778
0.015263
0.0156479
0.0160322
0.016416
0.0167992
0.0171817
0.0175634
0.0179444
0.0183244
0.0187035
0.0190815
0.0194584
0.0198341
0.0202085
0.0205815
0.0209529
0.0213228
0.0216909
0.0220573
0.0224217
0.022784
0.0231442
0.0235021
0.0238576
0.0242105
0.0245608
0.0249083
0.0252529
0.0255944
0.0259326
0.0262676
0.026599
0.0269268
0.0272507
0.0275708
0.0278867
0.0281985
0.0285058
0.0288086
0.0291067
0.0293999
0.0296881
0.0299712
0.030249
0.0305213
0.0307881
0.031049
0.0313041
0.0315532
0.031796
0.0320325
0.0322626
0.0324861
0.0327029
0.0329128
0.0331158
0.0333117
0.0335004
0.0336818
0.0338558
0.0340223
0.0341812
0.0343324
0.0344758
0.0346115
0.0347392
0.0348589
0.0349706
0.0350742
0.0351697
0.035257
0.0353362
0.0354071
0.0354698
0.0355242
0.0355704
0.0356083
0.035638
0.0356595
0.0356727
0.0356778
0.0356747
0.0356636
0.0356443
0.0356171
0.0355819
0.0355388
0.0354879
0.0354293
0.035363
0.0352891
0.0352078
0.035119
0.035023
0.0349197
0.0348093
0.034692
0.0345678
0.0344368
0.0342991
0.034155
0.0340044
0.0338476
0.0336846
0.0335156
0.0333407
0.0331601
0.0329738
0.032782
0.0325848
0.0323824
0.0321749
0.0319624
0.0317451
0.0315231
0.0312966
0.0310656
0.0308303
0.0305908
0.0303473
0.0300999
0.0298486
0.0295938
0.0293353
0.0290735
0.0288084
0.02854
0.0282687
0.0279943
0.0277172
0.0274373
0.0271548
0.0268698
0.0265824
0.0262927
0.0260008
0.0257068
0.0254108
0.0251128
0.0248131
0.0245116
0.0242084
0.0239037
0.0235975
0.0232898
0.0229809
0.0226707
0.0223593
0.0220467
0.0217332
0.0214186
0.0211031
0.0207867
0.0204696
0.0201517
0.019833
0.0195138
0.0191939
0.0188735
0.0185526
0.0182312
0.0179094
0.0175872
0.0172647
0.0169418