/*--------------------------------*- C++ -*----------------------------------*\
| =========                 |                                                 |
| \\      /  F ield         | OpenFOAM: The Open Source CFD Toolbox           |
|  \\    /   O peration     | Version:  v2012                                 |
|   \\  /    A nd           | Website:  www.openfoam.com                      |
|    \\/     M anipulation  |                                                 |
\*---------------------------------------------------------------------------*/
FoamFile
{
    version     2.0;
    format      ascii;
    class       volVectorField;
    location    "10";
    object      U;
}
// * * * * * * * * * * * * * * * * * * * * * * * * * * * * * * * * * * * * * //

dimensions      [0 1 -1 0 0 0 0];


internalField   nonuniform List<vector> 
65536
(
(0.000748768 -0.000748775 0)
(0.00224632 -0.000748791 0)
(0.00374392 -0.000748823 0)
(0.0052416 -0.000748869 0)
(0.00673938 -0.00074893 0)
(0.0082373 -0.000749005 0)
(0.00973539 -0.000749093 0)
(0.0112337 -0.000749194 0)
(0.0127322 -0.000749306 0)
(0.0142309 -0.000749428 0)
(0.0157299 -0.000749558 0)
(0.0172291 -0.000749696 0)
(0.0187286 -0.000749839 0)
(0.0202285 -0.000749985 0)
(0.0217286 -0.000750132 0)
(0.023229 -0.000750279 0)
(0.0247297 -0.000750422 0)
(0.0262307 -0.000750559 0)
(0.0277319 -0.000750688 0)
(0.0292334 -0.000750806 0)
(0.0307352 -0.000750909 0)
(0.0322371 -0.000750995 0)
(0.0337392 -0.00075106 0)
(0.0352414 -0.0007511 0)
(0.0367436 -0.000751113 0)
(0.0382458 -0.000751093 0)
(0.039748 -0.000751038 0)
(0.04125 -0.000750944 0)
(0.0427518 -0.000750805 0)
(0.0442533 -0.000750617 0)
(0.0457544 -0.000750377 0)
(0.0472549 -0.000750078 0)
(0.0487547 -0.000749717 0)
(0.0502538 -0.000749289 0)
(0.051752 -0.000748788 0)
(0.053249 -0.000748209 0)
(0.0547449 -0.000747546 0)
(0.0562393 -0.000746795 0)
(0.0577322 -0.000745949 0)
(0.0592232 -0.000745003 0)
(0.0607123 -0.000743951 0)
(0.0621991 -0.000742787 0)
(0.0636835 -0.000741506 0)
(0.0651653 -0.0007401 0)
(0.0666441 -0.000738564 0)
(0.0681197 -0.000736892 0)
(0.0695918 -0.000735077 0)
(0.0710601 -0.000733113 0)
(0.0725244 -0.000730994 0)
(0.0739842 -0.000728713 0)
(0.0754394 -0.000726264 0)
(0.0768895 -0.00072364 0)
(0.0783341 -0.000720836 0)
(0.079773 -0.000717844 0)
(0.0812057 -0.000714659 0)
(0.0826318 -0.000711275 0)
(0.084051 -0.000707685 0)
(0.0854628 -0.000703883 0)
(0.0868668 -0.000699863 0)
(0.0882625 -0.00069562 0)
(0.0896495 -0.000691148 0)
(0.0910273 -0.000686441 0)
(0.0923955 -0.000681494 0)
(0.0937535 -0.000676302 0)
(0.0951009 -0.00067086 0)
(0.0964372 -0.000665164 0)
(0.0977618 -0.000659208 0)
(0.0990743 -0.000652989 0)
(0.100374 -0.000646504 0)
(0.101661 -0.000639748 0)
(0.102933 -0.000632718 0)
(0.104192 -0.000625412 0)
(0.105435 -0.000617827 0)
(0.106663 -0.00060996 0)
(0.107875 -0.000601811 0)
(0.109071 -0.000593377 0)
(0.110249 -0.000584658 0)
(0.11141 -0.000575654 0)
(0.112552 -0.000566364 0)
(0.113675 -0.000556789 0)
(0.114779 -0.00054693 0)
(0.115863 -0.000536788 0)
(0.116927 -0.000526365 0)
(0.117969 -0.000515663 0)
(0.11899 -0.000504686 0)
(0.119988 -0.000493436 0)
(0.120964 -0.000481917 0)
(0.121916 -0.000470134 0)
(0.122845 -0.000458092 0)
(0.123749 -0.000445796 0)
(0.124628 -0.000433252 0)
(0.125482 -0.000420466 0)
(0.12631 -0.000407445 0)
(0.127112 -0.000394196 0)
(0.127887 -0.000380726 0)
(0.128635 -0.000367045 0)
(0.129356 -0.00035316 0)
(0.130048 -0.000339081 0)
(0.130712 -0.000324817 0)
(0.131347 -0.000310378 0)
(0.131954 -0.000295773 0)
(0.132531 -0.000281013 0)
(0.133078 -0.000266109 0)
(0.133595 -0.000251072 0)
(0.134082 -0.000235913 0)
(0.134539 -0.000220643 0)
(0.134965 -0.000205274 0)
(0.13536 -0.000189819 0)
(0.135724 -0.000174288 0)
(0.136057 -0.000158694 0)
(0.136359 -0.00014305 0)
(0.13663 -0.000127367 0)
(0.136869 -0.000111657 0)
(0.137076 -9.5934e-05 0)
(0.137252 -8.02087e-05 0)
(0.137397 -6.44937e-05 0)
(0.13751 -4.8801e-05 0)
(0.137592 -3.31426e-05 0)
(0.137643 -1.75304e-05 0)
(0.137662 -1.9759e-06 0)
(0.137651 1.35094e-05 0)
(0.137608 2.89142e-05 0)
(0.137535 4.42276e-05 0)
(0.137431 5.94387e-05 0)
(0.137297 7.45373e-05 0)
(0.137133 8.95131e-05 0)
(0.136939 0.000104356 0)
(0.136715 0.000119057 0)
(0.136463 0.000133607 0)
(0.136181 0.000147997 0)
(0.13587 0.000162218 0)
(0.135532 0.000176263 0)
(0.135165 0.000190124 0)
(0.134771 0.000203793 0)
(0.13435 0.000217265 0)
(0.133902 0.000230531 0)
(0.133427 0.000243588 0)
(0.132927 0.000256428 0)
(0.132401 0.000269047 0)
(0.131851 0.00028144 0)
(0.131275 0.000293603 0)
(0.130676 0.000305532 0)
(0.130053 0.000317224 0)
(0.129407 0.000328675 0)
(0.128738 0.000339882 0)
(0.128047 0.000350844 0)
(0.127335 0.000361559 0)
(0.126601 0.000372025 0)
(0.125846 0.000382241 0)
(0.125072 0.000392206 0)
(0.124277 0.00040192 0)
(0.123464 0.000411383 0)
(0.122631 0.000420594 0)
(0.121781 0.000429556 0)
(0.120913 0.000438267 0)
(0.120028 0.00044673 0)
(0.119126 0.000454946 0)
(0.118208 0.000462917 0)
(0.117274 0.000470644 0)
(0.116325 0.000478131 0)
(0.115361 0.000485378 0)
(0.114383 0.000492389 0)
(0.113391 0.000499166 0)
(0.112386 0.000505714 0)
(0.111368 0.000512033 0)
(0.110338 0.000518129 0)
(0.109295 0.000524005 0)
(0.108242 0.000529664 0)
(0.107177 0.000535109 0)
(0.106101 0.000540345 0)
(0.105015 0.000545376 0)
(0.103919 0.000550206 0)
(0.102814 0.000554838 0)
(0.1017 0.000559278 0)
(0.100577 0.000563529 0)
(0.0994454 0.000567595 0)
(0.0983061 0.000571481 0)
(0.0971593 0.000575192 0)
(0.0960052 0.000578731 0)
(0.0948442 0.000582104 0)
(0.0936766 0.000585314 0)
(0.0925028 0.000588366 0)
(0.091323 0.000591264 0)
(0.0901376 0.000594013 0)
(0.0889468 0.000596618 0)
(0.0877509 0.000599082 0)
(0.0865503 0.00060141 0)
(0.0853452 0.000603607 0)
(0.0841358 0.000605676 0)
(0.0829224 0.000607622 0)
(0.0817052 0.000609449 0)
(0.0804844 0.000611162 0)
(0.0792604 0.000612763 0)
(0.0780333 0.000614259 0)
(0.0768033 0.000615651 0)
(0.0755706 0.000616946 0)
(0.0743354 0.000618145 0)
(0.0730979 0.000619253 0)
(0.0718583 0.000620275 0)
(0.0706167 0.000621213 0)
(0.0693734 0.00062207 0)
(0.0681284 0.000622852 0)
(0.0668819 0.000623561 0)
(0.0656341 0.0006242 0)
(0.064385 0.000624774 0)
(0.0631349 0.000625284 0)
(0.0618838 0.000625735 0)
(0.0606319 0.000626129 0)
(0.0593793 0.00062647 0)
(0.058126 0.000626761 0)
(0.0568722 0.000627003 0)
(0.0556179 0.000627201 0)
(0.0543633 0.000627357 0)
(0.0531085 0.000627473 0)
(0.0518534 0.000627553 0)
(0.0505982 0.000627598 0)
(0.049343 0.000627612 0)
(0.0480877 0.000627596 0)
(0.0468326 0.000627553 0)
(0.0455775 0.000627485 0)
(0.0443226 0.000627395 0)
(0.0430679 0.000627284 0)
(0.0418135 0.000627154 0)
(0.0405593 0.000627007 0)
(0.0393054 0.000626846 0)
(0.0380519 0.000626672 0)
(0.0367987 0.000626487 0)
(0.0355459 0.000626293 0)
(0.0342935 0.00062609 0)
(0.0330416 0.000625882 0)
(0.03179 0.000625668 0)
(0.0305389 0.000625452 0)
(0.0292882 0.000625233 0)
(0.028038 0.000625014 0)
(0.0267881 0.000624796 0)
(0.0255388 0.00062458 0)
(0.0242898 0.000624366 0)
(0.0230413 0.000624157 0)
(0.0217932 0.000623953 0)
(0.0205455 0.000623754 0)
(0.0192982 0.000623563 0)
(0.0180513 0.00062338 0)
(0.0168047 0.000623205 0)
(0.0155585 0.00062304 0)
(0.0143125 0.000622885 0)
(0.0130669 0.000622741 0)
(0.0118216 0.000622608 0)
(0.0105765 0.000622486 0)
(0.00933167 0.000622378 0)
(0.00808702 0.000622281 0)
(0.00684256 0.000622198 0)
(0.00559825 0.000622128 0)
(0.00435406 0.000622072 0)
(0.00310997 0.00062203 0)
(0.00186596 0.000622002 0)
(0.000621981 0.000621988 0)
(0.000748753 -0.00224631 0)
(0.00224627 -0.00224636 0)
(0.00374384 -0.00224645 0)
(0.00524149 -0.00224659 0)
(0.00673925 -0.00224678 0)
(0.00823714 -0.002247 0)
(0.0097352 -0.00224727 0)
(0.0112335 -0.00224757 0)
(0.0127319 -0.00224791 0)
(0.0142306 -0.00224828 0)
(0.0157296 -0.00224867 0)
(0.0172288 -0.00224908 0)
(0.0187283 -0.00224951 0)
(0.0202282 -0.00224995 0)
(0.0217283 -0.0022504 0)
(0.0232287 -0.00225084 0)
(0.0247294 -0.00225127 0)
(0.0262304 -0.00225169 0)
(0.0277317 -0.00225208 0)
(0.0292332 -0.00225243 0)
(0.030735 -0.00225275 0)
(0.032237 -0.00225301 0)
(0.0337391 -0.0022532 0)
(0.0352413 -0.00225333 0)
(0.0367436 -0.00225337 0)
(0.0382459 -0.00225332 0)
(0.0397482 -0.00225316 0)
(0.0412503 -0.00225287 0)
(0.0427522 -0.00225246 0)
(0.0442537 -0.0022519 0)
(0.0457549 -0.00225119 0)
(0.0472555 -0.0022503 0)
(0.0487555 -0.00224922 0)
(0.0502547 -0.00224794 0)
(0.051753 -0.00224644 0)
(0.0532503 -0.00224471 0)
(0.0547463 -0.00224273 0)
(0.0562409 -0.00224048 0)
(0.0577339 -0.00223795 0)
(0.0592252 -0.00223511 0)
(0.0607145 -0.00223196 0)
(0.0622016 -0.00222848 0)
(0.0636862 -0.00222464 0)
(0.0651682 -0.00222043 0)
(0.0666473 -0.00221583 0)
(0.0681231 -0.00221082 0)
(0.0695955 -0.00220538 0)
(0.0710642 -0.00219949 0)
(0.0725288 -0.00219314 0)
(0.073989 -0.0021863 0)
(0.0754445 -0.00217896 0)
(0.0768949 -0.0021711 0)
(0.0783399 -0.00216269 0)
(0.0797792 -0.00215372 0)
(0.0812123 -0.00214418 0)
(0.0826388 -0.00213403 0)
(0.0840584 -0.00212326 0)
(0.0854706 -0.00211186 0)
(0.086875 -0.00209981 0)
(0.0882712 -0.00208709 0)
(0.0896586 -0.00207368 0)
(0.0910369 -0.00205956 0)
(0.0924056 -0.00204472 0)
(0.0937641 -0.00202915 0)
(0.095112 -0.00201283 0)
(0.0964488 -0.00199575 0)
(0.097774 -0.00197789 0)
(0.099087 -0.00195923 0)
(0.100387 -0.00193978 0)
(0.101674 -0.00191951 0)
(0.102948 -0.00189843 0)
(0.104207 -0.00187651 0)
(0.105451 -0.00185376 0)
(0.106679 -0.00183016 0)
(0.107892 -0.00180571 0)
(0.109088 -0.00178041 0)
(0.110267 -0.00175426 0)
(0.111428 -0.00172725 0)
(0.112571 -0.00169938 0)
(0.113695 -0.00167065 0)
(0.114799 -0.00164107 0)
(0.115884 -0.00161064 0)
(0.116948 -0.00157937 0)
(0.117991 -0.00154726 0)
(0.119012 -0.00151433 0)
(0.120011 -0.00148057 0)
(0.120987 -0.00144601 0)
(0.12194 -0.00141066 0)
(0.122869 -0.00137453 0)
(0.123774 -0.00133763 0)
(0.124653 -0.0013 0)
(0.125508 -0.00126163 0)
(0.126336 -0.00122256 0)
(0.127139 -0.0011828 0)
(0.127914 -0.00114239 0)
(0.128663 -0.00110134 0)
(0.129383 -0.00105967 0)
(0.130076 -0.00101743 0)
(0.130741 -0.000974624 0)
(0.131376 -0.000931296 0)
(0.131983 -0.00088747 0)
(0.13256 -0.00084318 0)
(0.133108 -0.000798457 0)
(0.133625 -0.000753335 0)
(0.134113 -0.000707846 0)
(0.13457 -0.000662025 0)
(0.134996 -0.000615908 0)
(0.135391 -0.000569529 0)
(0.135755 -0.000522925 0)
(0.136089 -0.000476132 0)
(0.13639 -0.000429186 0)
(0.136661 -0.000382125 0)
(0.1369 -0.000334985 0)
(0.137108 -0.000287802 0)
(0.137284 -0.000240614 0)
(0.137428 -0.000193457 0)
(0.137542 -0.000146367 0)
(0.137623 -9.938e-05 0)
(0.137674 -5.25317e-05 0)
(0.137693 -5.85683e-06 0)
(0.137682 4.06101e-05 0)
(0.137639 8.68355e-05 0)
(0.137565 0.000132786 0)
(0.137461 0.00017843 0)
(0.137327 0.000223736 0)
(0.137163 0.000268673 0)
(0.136968 0.000313212 0)
(0.136745 0.000357324 0)
(0.136491 0.000400982 0)
(0.136209 0.00044416 0)
(0.135899 0.000486832 0)
(0.13556 0.000528974 0)
(0.135193 0.000570564 0)
(0.134798 0.000611579 0)
(0.134376 0.000651999 0)
(0.133928 0.000691805 0)
(0.133453 0.00073098 0)
(0.132953 0.000769506 0)
(0.132426 0.000807368 0)
(0.131875 0.000844552 0)
(0.1313 0.000881045 0)
(0.1307 0.000916835 0)
(0.130076 0.000951912 0)
(0.12943 0.000986268 0)
(0.12876 0.00101989 0)
(0.128069 0.00105278 0)
(0.127356 0.00108493 0)
(0.126621 0.00111633 0)
(0.125866 0.00114697 0)
(0.125091 0.00117687 0)
(0.124296 0.00120601 0)
(0.123482 0.0012344 0)
(0.122649 0.00126203 0)
(0.121799 0.00128892 0)
(0.12093 0.00131505 0)
(0.120044 0.00134044 0)
(0.119142 0.00136508 0)
(0.118223 0.00138899 0)
(0.117289 0.00141217 0)
(0.116339 0.00143463 0)
(0.115375 0.00145637 0)
(0.114397 0.0014774 0)
(0.113405 0.00149773 0)
(0.112399 0.00151737 0)
(0.111381 0.00153632 0)
(0.11035 0.00155461 0)
(0.109307 0.00157223 0)
(0.108253 0.0015892 0)
(0.107187 0.00160554 0)
(0.106111 0.00162124 0)
(0.105025 0.00163633 0)
(0.103929 0.00165081 0)
(0.102823 0.00166471 0)
(0.101708 0.00167802 0)
(0.100585 0.00169077 0)
(0.0994532 0.00170296 0)
(0.0983136 0.00171462 0)
(0.0971664 0.00172575 0)
(0.096012 0.00173636 0)
(0.0948507 0.00174647 0)
(0.0936828 0.0017561 0)
(0.0925086 0.00176525 0)
(0.0913286 0.00177394 0)
(0.0901428 0.00178218 0)
(0.0889518 0.00178999 0)
(0.0877557 0.00179738 0)
(0.0865548 0.00180436 0)
(0.0853494 0.00181095 0)
(0.0841397 0.00181715 0)
(0.0829261 0.00182298 0)
(0.0817086 0.00182846 0)
(0.0804877 0.00183359 0)
(0.0792634 0.0018384 0)
(0.0780361 0.00184288 0)
(0.0768059 0.00184705 0)
(0.075573 0.00185093 0)
(0.0743376 0.00185452 0)
(0.0731 0.00185785 0)
(0.0718602 0.00186091 0)
(0.0706185 0.00186372 0)
(0.069375 0.00186629 0)
(0.0681298 0.00186863 0)
(0.0668832 0.00187075 0)
(0.0656352 0.00187267 0)
(0.0643861 0.00187438 0)
(0.0631358 0.00187591 0)
(0.0618846 0.00187726 0)
(0.0606326 0.00187844 0)
(0.0593798 0.00187946 0)
(0.0581265 0.00188033 0)
(0.0568726 0.00188105 0)
(0.0556182 0.00188164 0)
(0.0543636 0.00188211 0)
(0.0531086 0.00188245 0)
(0.0518535 0.00188269 0)
(0.0505982 0.00188282 0)
(0.0493429 0.00188286 0)
(0.0480877 0.00188281 0)
(0.0468324 0.00188268 0)
(0.0455773 0.00188248 0)
(0.0443224 0.0018822 0)
(0.0430676 0.00188187 0)
(0.0418132 0.00188148 0)
(0.0405589 0.00188103 0)
(0.0393051 0.00188055 0)
(0.0380515 0.00188003 0)
(0.0367983 0.00187947 0)
(0.0355455 0.00187888 0)
(0.0342931 0.00187828 0)
(0.0330411 0.00187765 0)
(0.0317896 0.00187701 0)
(0.0305384 0.00187636 0)
(0.0292877 0.0018757 0)
(0.0280375 0.00187504 0)
(0.0267877 0.00187438 0)
(0.0255383 0.00187373 0)
(0.0242894 0.00187309 0)
(0.0230409 0.00187246 0)
(0.0217928 0.00187185 0)
(0.0205451 0.00187125 0)
(0.0192978 0.00187068 0)
(0.0180509 0.00187013 0)
(0.0168043 0.0018696 0)
(0.0155581 0.00186911 0)
(0.0143122 0.00186864 0)
(0.0130666 0.00186821 0)
(0.0118213 0.00186781 0)
(0.0105763 0.00186745 0)
(0.00933146 0.00186712 0)
(0.00808684 0.00186683 0)
(0.0068424 0.00186658 0)
(0.00559812 0.00186637 0)
(0.00435396 0.0018662 0)
(0.0031099 0.00186607 0)
(0.00186591 0.00186599 0)
(0.000621966 0.00186595 0)
(0.000748721 -0.0037438 0)
(0.00224618 -0.00374388 0)
(0.00374369 -0.00374404 0)
(0.00524127 -0.00374427 0)
(0.00673897 -0.00374458 0)
(0.00823681 -0.00374496 0)
(0.00973482 -0.00374541 0)
(0.011233 -0.00374592 0)
(0.0127314 -0.00374648 0)
(0.0142301 -0.0037471 0)
(0.015729 -0.00374776 0)
(0.0172283 -0.00374845 0)
(0.0187278 -0.00374918 0)
(0.0202276 -0.00374992 0)
(0.0217277 -0.00375067 0)
(0.0232281 -0.00375141 0)
(0.0247288 -0.00375214 0)
(0.0262299 -0.00375284 0)
(0.0277312 -0.0037535 0)
(0.0292328 -0.0037541 0)
(0.0307346 -0.00375463 0)
(0.0322366 -0.00375508 0)
(0.0337389 -0.00375542 0)
(0.0352412 -0.00375564 0)
(0.0367436 -0.00375572 0)
(0.0382461 -0.00375565 0)
(0.0397485 -0.00375539 0)
(0.0412507 -0.00375494 0)
(0.0427528 -0.00375427 0)
(0.0442546 -0.00375335 0)
(0.045756 -0.00375217 0)
(0.0472568 -0.0037507 0)
(0.0487571 -0.00374892 0)
(0.0502566 -0.00374681 0)
(0.0517552 -0.00374433 0)
(0.0532527 -0.00374146 0)
(0.0547491 -0.00373817 0)
(0.0562441 -0.00373444 0)
(0.0577375 -0.00373024 0)
(0.0592292 -0.00372554 0)
(0.0607189 -0.00372031 0)
(0.0622064 -0.00371452 0)
(0.0636916 -0.00370815 0)
(0.0651741 -0.00370115 0)
(0.0666537 -0.0036935 0)
(0.0681301 -0.00368517 0)
(0.0696031 -0.00367613 0)
(0.0710723 -0.00366634 0)
(0.0725376 -0.00365577 0)
(0.0739984 -0.0036444 0)
(0.0754546 -0.00363219 0)
(0.0769057 -0.0036191 0)
(0.0783515 -0.00360511 0)
(0.0797915 -0.00359019 0)
(0.0812254 -0.00357429 0)
(0.0826527 -0.0035574 0)
(0.0840732 -0.00353948 0)
(0.0854862 -0.0035205 0)
(0.0868915 -0.00350043 0)
(0.0882886 -0.00347924 0)
(0.089677 -0.00345691 0)
(0.0910562 -0.0034334 0)
(0.0924259 -0.00340869 0)
(0.0937854 -0.00338276 0)
(0.0951343 -0.00335557 0)
(0.0964721 -0.00332711 0)
(0.0977983 -0.00329735 0)
(0.0991124 -0.00326628 0)
(0.100414 -0.00323387 0)
(0.101702 -0.0032001 0)
(0.102976 -0.00316497 0)
(0.104236 -0.00312845 0)
(0.105482 -0.00309053 0)
(0.106711 -0.00305121 0)
(0.107925 -0.00301047 0)
(0.109122 -0.00296831 0)
(0.110302 -0.00292472 0)
(0.111465 -0.00287969 0)
(0.112609 -0.00283324 0)
(0.113734 -0.00278536 0)
(0.114839 -0.00273606 0)
(0.115925 -0.00268534 0)
(0.11699 -0.00263321 0)
(0.118034 -0.00257969 0)
(0.119057 -0.00252479 0)
(0.120057 -0.00246852 0)
(0.121034 -0.0024109 0)
(0.121988 -0.00235196 0)
(0.122918 -0.00229173 0)
(0.123823 -0.00223022 0)
(0.124704 -0.00216747 0)
(0.125559 -0.0021035 0)
(0.126389 -0.00203836 0)
(0.127192 -0.00197207 0)
(0.127969 -0.00190469 0)
(0.128718 -0.00183624 0)
(0.129439 -0.00176677 0)
(0.130133 -0.00169633 0)
(0.130798 -0.00162496 0)
(0.131435 -0.00155271 0)
(0.132042 -0.00147963 0)
(0.13262 -0.00140578 0)
(0.133168 -0.00133121 0)
(0.133686 -0.00125596 0)
(0.134174 -0.00118011 0)
(0.134631 -0.0011037 0)
(0.135058 -0.0010268 0)
(0.135453 -0.000949464 0)
(0.135818 -0.000871751 0)
(0.136151 -0.000793722 0)
(0.136453 -0.000715438 0)
(0.136724 -0.000636962 0)
(0.136963 -0.000558354 0)
(0.137171 -0.000479676 0)
(0.137347 -0.000400988 0)
(0.137491 -0.000322353 0)
(0.137604 -0.00024383 0)
(0.137686 -0.000165479 0)
(0.137736 -8.73596e-05 0)
(0.137755 -9.53004e-06 0)
(0.137743 6.79524e-05 0)
(0.1377 0.000145031 0)
(0.137627 0.000221652 0)
(0.137522 0.00029776 0)
(0.137387 0.000373303 0)
(0.137222 0.000448231 0)
(0.137028 0.000522495 0)
(0.136803 0.000596046 0)
(0.136549 0.000668838 0)
(0.136267 0.000740829 0)
(0.135955 0.000811976 0)
(0.135615 0.000882238 0)
(0.135248 0.000951578 0)
(0.134852 0.00101996 0)
(0.13443 0.00108735 0)
(0.133981 0.00115371 0)
(0.133505 0.00121902 0)
(0.133004 0.00128325 0)
(0.132477 0.00134637 0)
(0.131924 0.00140835 0)
(0.131348 0.00146919 0)
(0.130747 0.00152885 0)
(0.130123 0.00158732 0)
(0.129475 0.00164459 0)
(0.128805 0.00170064 0)
(0.128112 0.00175546 0)
(0.127398 0.00180904 0)
(0.126663 0.00186138 0)
(0.125907 0.00191246 0)
(0.125131 0.00196229 0)
(0.124335 0.00201086 0)
(0.12352 0.00205817 0)
(0.122686 0.00210422 0)
(0.121834 0.00214903 0)
(0.120964 0.00219258 0)
(0.120078 0.00223489 0)
(0.119174 0.00227596 0)
(0.118255 0.0023158 0)
(0.117319 0.00235443 0)
(0.116369 0.00239185 0)
(0.115404 0.00242807 0)
(0.114424 0.00246311 0)
(0.113431 0.00249698 0)
(0.112425 0.0025297 0)
(0.111405 0.00256129 0)
(0.110374 0.00259175 0)
(0.10933 0.00262111 0)
(0.108275 0.00264938 0)
(0.107209 0.00267659 0)
(0.106132 0.00270275 0)
(0.105045 0.00272789 0)
(0.103948 0.00275201 0)
(0.102841 0.00277515 0)
(0.101726 0.00279733 0)
(0.100602 0.00281856 0)
(0.0994692 0.00283887 0)
(0.0983288 0.00285828 0)
(0.097181 0.00287681 0)
(0.0960259 0.00289449 0)
(0.0948639 0.00291133 0)
(0.0936953 0.00292735 0)
(0.0925206 0.00294259 0)
(0.0913399 0.00295706 0)
(0.0901536 0.00297079 0)
(0.0889619 0.00298379 0)
(0.0877653 0.00299609 0)
(0.0865638 0.00300771 0)
(0.0853579 0.00301867 0)
(0.0841478 0.00302899 0)
(0.0829336 0.0030387 0)
(0.0817157 0.00304782 0)
(0.0804943 0.00305636 0)
(0.0792697 0.00306435 0)
(0.0780419 0.0030718 0)
(0.0768113 0.00307875 0)
(0.075578 0.0030852 0)
(0.0743423 0.00309118 0)
(0.0731043 0.0030967 0)
(0.0718641 0.00310179 0)
(0.0706221 0.00310646 0)
(0.0693783 0.00311073 0)
(0.0681328 0.00311462 0)
(0.0668859 0.00311815 0)
(0.0656377 0.00312133 0)
(0.0643882 0.00312418 0)
(0.0631378 0.00312672 0)
(0.0618863 0.00312895 0)
(0.0606341 0.00313091 0)
(0.0593811 0.0031326 0)
(0.0581276 0.00313404 0)
(0.0568735 0.00313524 0)
(0.055619 0.00313621 0)
(0.0543641 0.00313698 0)
(0.053109 0.00313755 0)
(0.0518537 0.00313793 0)
(0.0505984 0.00313815 0)
(0.0493429 0.0031382 0)
(0.0480875 0.00313811 0)
(0.0468322 0.00313789 0)
(0.045577 0.00313754 0)
(0.044322 0.00313707 0)
(0.0430672 0.00313651 0)
(0.0418126 0.00313585 0)
(0.0405583 0.00313511 0)
(0.0393044 0.00313429 0)
(0.0380508 0.00313341 0)
(0.0367976 0.00313248 0)
(0.0355447 0.0031315 0)
(0.0342923 0.00313048 0)
(0.0330403 0.00312943 0)
(0.0317887 0.00312835 0)
(0.0305376 0.00312727 0)
(0.0292869 0.00312617 0)
(0.0280366 0.00312506 0)
(0.0267868 0.00312397 0)
(0.0255375 0.00312288 0)
(0.0242886 0.00312181 0)
(0.0230401 0.00312075 0)
(0.021792 0.00311973 0)
(0.0205443 0.00311873 0)
(0.0192971 0.00311777 0)
(0.0180502 0.00311685 0)
(0.0168037 0.00311598 0)
(0.0155575 0.00311515 0)
(0.0143116 0.00311437 0)
(0.0130661 0.00311364 0)
(0.0118208 0.00311298 0)
(0.0105758 0.00311237 0)
(0.00933105 0.00311182 0)
(0.00808648 0.00311134 0)
(0.0068421 0.00311092 0)
(0.00559787 0.00311057 0)
(0.00435376 0.00311029 0)
(0.00310976 0.00311008 0)
(0.00186583 0.00310994 0)
(0.000621938 0.00310987 0)
(0.000748673 -0.00524121 0)
(0.00224604 -0.00524132 0)
(0.00374345 -0.00524155 0)
(0.00524094 -0.00524188 0)
(0.00673855 -0.00524231 0)
(0.00823631 -0.00524285 0)
(0.00973424 -0.00524348 0)
(0.0112324 -0.0052442 0)
(0.0127307 -0.005245 0)
(0.0142293 -0.00524588 0)
(0.0157282 -0.00524681 0)
(0.0172274 -0.0052478 0)
(0.0187269 -0.00524882 0)
(0.0202267 -0.00524988 0)
(0.0217268 -0.00525094 0)
(0.0232272 -0.005252 0)
(0.024728 -0.00525304 0)
(0.026229 -0.00525404 0)
(0.0277304 -0.00525498 0)
(0.0292321 -0.00525584 0)
(0.030734 -0.00525661 0)
(0.0322361 -0.00525726 0)
(0.0337385 -0.00525776 0)
(0.035241 -0.00525809 0)
(0.0367436 -0.00525823 0)
(0.0382462 -0.00525815 0)
(0.0397489 -0.00525783 0)
(0.0412514 -0.00525722 0)
(0.0427537 -0.00525631 0)
(0.0442558 -0.00525506 0)
(0.0457575 -0.00525344 0)
(0.0472588 -0.00525142 0)
(0.0487594 -0.00524897 0)
(0.0502593 -0.00524604 0)
(0.0517584 -0.0052426 0)
(0.0532564 -0.00523862 0)
(0.0547533 -0.00523406 0)
(0.0562488 -0.00522888 0)
(0.0577428 -0.00522304 0)
(0.0592351 -0.0052165 0)
(0.0607255 -0.00520922 0)
(0.0622137 -0.00520116 0)
(0.0636996 -0.00519227 0)
(0.0651828 -0.00518252 0)
(0.0666632 -0.00517185 0)
(0.0681405 -0.00516024 0)
(0.0696144 -0.00514762 0)
(0.0710845 -0.00513396 0)
(0.0725507 -0.00511922 0)
(0.0740125 -0.00510334 0)
(0.0754697 -0.00508628 0)
(0.076922 -0.00506801 0)
(0.0783688 -0.00504847 0)
(0.07981 -0.00502761 0)
(0.081245 -0.00500541 0)
(0.0826736 -0.0049818 0)
(0.0840953 -0.00495676 0)
(0.0855096 -0.00493022 0)
(0.0869163 -0.00490217 0)
(0.0883147 -0.00487255 0)
(0.0897045 -0.00484132 0)
(0.0910852 -0.00480844 0)
(0.0924562 -0.00477388 0)
(0.0938173 -0.00473761 0)
(0.0951677 -0.00469958 0)
(0.0965071 -0.00465977 0)
(0.0978348 -0.00461814 0)
(0.0991505 -0.00457466 0)
(0.100453 -0.00452931 0)
(0.101743 -0.00448206 0)
(0.103019 -0.0044329 0)
(0.104281 -0.00438179 0)
(0.105528 -0.00432872 0)
(0.106759 -0.00427368 0)
(0.107975 -0.00421665 0)
(0.109174 -0.00415763 0)
(0.110356 -0.0040966 0)
(0.11152 -0.00403357 0)
(0.112665 -0.00396854 0)
(0.113792 -0.0039015 0)
(0.1149 -0.00383247 0)
(0.115987 -0.00376145 0)
(0.117054 -0.00368845 0)
(0.118099 -0.0036135 0)
(0.119123 -0.00353661 0)
(0.120125 -0.00345781 0)
(0.121104 -0.00337712 0)
(0.122059 -0.00329457 0)
(0.122991 -0.0032102 0)
(0.123898 -0.00312405 0)
(0.12478 -0.00303615 0)
(0.125637 -0.00294655 0)
(0.126468 -0.0028553 0)
(0.127273 -0.00276245 0)
(0.12805 -0.00266805 0)
(0.128801 -0.00257216 0)
(0.129524 -0.00247484 0)
(0.130218 -0.00237616 0)
(0.130884 -0.00227617 0)
(0.131522 -0.00217495 0)
(0.13213 -0.00207257 0)
(0.132709 -0.0019691 0)
(0.133258 -0.00186462 0)
(0.133777 -0.00175921 0)
(0.134265 -0.00165293 0)
(0.134723 -0.00154588 0)
(0.13515 -0.00143813 0)
(0.135546 -0.00132978 0)
(0.135911 -0.00122089 0)
(0.136245 -0.00111157 0)
(0.136547 -0.00100188 0)
(0.136818 -0.000891932 0)
(0.137058 -0.000781794 0)
(0.137265 -0.000671559 0)
(0.137441 -0.000561312 0)
(0.137586 -0.000451137 0)
(0.137699 -0.000341121 0)
(0.13778 -0.000231347 0)
(0.13783 -0.000121898 0)
(0.137849 -1.28565e-05 0)
(0.137836 9.56977e-05 0)
(0.137793 0.000203685 0)
(0.137718 0.000311029 0)
(0.137613 0.000417654 0)
(0.137478 0.000523486 0)
(0.137312 0.000628454 0)
(0.137116 0.000732489 0)
(0.136891 0.000835524 0)
(0.136636 0.000937496 0)
(0.136353 0.00103834 0)
(0.13604 0.001138 0)
(0.135699 0.00123642 0)
(0.13533 0.00133355 0)
(0.134934 0.00142933 0)
(0.13451 0.00152372 0)
(0.13406 0.00161667 0)
(0.133583 0.00170814 0)
(0.13308 0.0017981 0)
(0.132552 0.0018865 0)
(0.131998 0.00197331 0)
(0.13142 0.0020585 0)
(0.130818 0.00214206 0)
(0.130192 0.00222394 0)
(0.129543 0.00230413 0)
(0.128871 0.00238262 0)
(0.128177 0.00245938 0)
(0.127462 0.0025344 0)
(0.126725 0.00260768 0)
(0.125967 0.0026792 0)
(0.12519 0.00274896 0)
(0.124392 0.00281696 0)
(0.123576 0.0028832 0)
(0.12274 0.00294767 0)
(0.121887 0.00301039 0)
(0.121016 0.00307135 0)
(0.120128 0.00313057 0)
(0.119223 0.00318806 0)
(0.118302 0.00324383 0)
(0.117365 0.00329789 0)
(0.116413 0.00335026 0)
(0.115447 0.00340095 0)
(0.114466 0.00344999 0)
(0.113471 0.00349739 0)
(0.112463 0.00354318 0)
(0.111443 0.00358737 0)
(0.11041 0.00362999 0)
(0.109365 0.00367107 0)
(0.108308 0.00371063 0)
(0.107241 0.00374869 0)
(0.106162 0.00378529 0)
(0.105074 0.00382045 0)
(0.103976 0.0038542 0)
(0.102868 0.00388657 0)
(0.101752 0.00391758 0)
(0.100627 0.00394728 0)
(0.099493 0.00397568 0)
(0.0983516 0.00400283 0)
(0.0972027 0.00402874 0)
(0.0960466 0.00405345 0)
(0.0948836 0.004077 0)
(0.0937141 0.0040994 0)
(0.0925384 0.0041207 0)
(0.0913568 0.00414093 0)
(0.0901696 0.00416011 0)
(0.0889772 0.00417829 0)
(0.0877797 0.00419547 0)
(0.0865774 0.00421171 0)
(0.0853707 0.00422703 0)
(0.0841598 0.00424145 0)
(0.0829449 0.00425501 0)
(0.0817264 0.00426775 0)
(0.0805043 0.00427968 0)
(0.0792789 0.00429083 0)
(0.0780506 0.00430124 0)
(0.0768194 0.00431094 0)
(0.0755855 0.00431994 0)
(0.0743492 0.00432828 0)
(0.0731107 0.00433599 0)
(0.07187 0.00434309 0)
(0.0706275 0.0043496 0)
(0.0693832 0.00435556 0)
(0.0681373 0.00436098 0)
(0.0668899 0.00436589 0)
(0.0656413 0.00437032 0)
(0.0643915 0.00437429 0)
(0.0631406 0.00437782 0)
(0.0618889 0.00438093 0)
(0.0606363 0.00438365 0)
(0.059383 0.00438599 0)
(0.0581292 0.00438798 0)
(0.0568748 0.00438964 0)
(0.05562 0.00439099 0)
(0.0543649 0.00439204 0)
(0.0531096 0.00439282 0)
(0.0518541 0.00439335 0)
(0.0505985 0.00439363 0)
(0.0493429 0.00439369 0)
(0.0480874 0.00439355 0)
(0.0468319 0.00439321 0)
(0.0455765 0.00439271 0)
(0.0443214 0.00439205 0)
(0.0430664 0.00439124 0)
(0.0418118 0.0043903 0)
(0.0405574 0.00438925 0)
(0.0393034 0.0043881 0)
(0.0380497 0.00438686 0)
(0.0367964 0.00438554 0)
(0.0355435 0.00438415 0)
(0.0342911 0.00438271 0)
(0.033039 0.00438123 0)
(0.0317874 0.00437972 0)
(0.0305363 0.00437818 0)
(0.0292856 0.00437664 0)
(0.0280353 0.00437509 0)
(0.0267855 0.00437354 0)
(0.0255362 0.00437201 0)
(0.0242873 0.0043705 0)
(0.0230388 0.00436902 0)
(0.0217908 0.00436758 0)
(0.0205432 0.00436618 0)
(0.019296 0.00436483 0)
(0.0180491 0.00436353 0)
(0.0168027 0.0043623 0)
(0.0155565 0.00436114 0)
(0.0143107 0.00436004 0)
(0.0130653 0.00435902 0)
(0.0118201 0.00435808 0)
(0.0105751 0.00435723 0)
(0.00933043 0.00435646 0)
(0.00808594 0.00435578 0)
(0.00684164 0.00435519 0)
(0.00559749 0.0043547 0)
(0.00435347 0.00435431 0)
(0.00310955 0.00435401 0)
(0.0018657 0.00435381 0)
(0.000621895 0.00435371 0)
(0.000748608 -0.00673851 0)
(0.00224584 -0.00673866 0)
(0.00374313 -0.00673895 0)
(0.0052405 -0.00673938 0)
(0.00673799 -0.00673994 0)
(0.00823563 -0.00674064 0)
(0.00973346 -0.00674147 0)
(0.0112315 -0.00674241 0)
(0.0127298 -0.00674345 0)
(0.0142283 -0.00674459 0)
(0.0157271 -0.00674581 0)
(0.0172262 -0.0067471 0)
(0.0187257 -0.00674845 0)
(0.0202254 -0.00674982 0)
(0.0217255 -0.00675122 0)
(0.023226 -0.0067526 0)
(0.0247268 -0.00675397 0)
(0.0262279 -0.00675529 0)
(0.0277294 -0.00675653 0)
(0.0292311 -0.00675768 0)
(0.0307332 -0.00675871 0)
(0.0322355 -0.00675958 0)
(0.033738 -0.00676027 0)
(0.0352407 -0.00676074 0)
(0.0367435 -0.00676097 0)
(0.0382464 -0.00676091 0)
(0.0397494 -0.00676054 0)
(0.0412522 -0.00675981 0)
(0.0427549 -0.00675869 0)
(0.0442574 -0.00675714 0)
(0.0457596 -0.00675512 0)
(0.0472613 -0.00675258 0)
(0.0487624 -0.00674948 0)
(0.0502629 -0.00674578 0)
(0.0517626 -0.00674142 0)
(0.0532613 -0.00673637 0)
(0.0547588 -0.00673058 0)
(0.0562551 -0.00672398 0)
(0.0577499 -0.00671654 0)
(0.059243 -0.0067082 0)
(0.0607342 -0.00669891 0)
(0.0622234 -0.00668862 0)
(0.0637102 -0.00667727 0)
(0.0651945 -0.0066648 0)
(0.0666759 -0.00665116 0)
(0.0681543 -0.0066363 0)
(0.0696293 -0.00662016 0)
(0.0711007 -0.00660267 0)
(0.0725682 -0.00658379 0)
(0.0740313 -0.00656345 0)
(0.0754899 -0.0065416 0)
(0.0769435 -0.00651818 0)
(0.0783919 -0.00649313 0)
(0.0798346 -0.0064664 0)
(0.0812712 -0.00643792 0)
(0.0827014 -0.00640765 0)
(0.0841247 -0.00637552 0)
(0.0855408 -0.00634148 0)
(0.0869492 -0.00630547 0)
(0.0883494 -0.00626745 0)
(0.0897411 -0.00622737 0)
(0.0911237 -0.00618517 0)
(0.0924967 -0.0061408 0)
(0.0938597 -0.00609422 0)
(0.0952122 -0.00604538 0)
(0.0965536 -0.00599424 0)
(0.0978835 -0.00594077 0)
(0.0992012 -0.00588492 0)
(0.100506 -0.00582665 0)
(0.101798 -0.00576595 0)
(0.103077 -0.00570276 0)
(0.104341 -0.00563708 0)
(0.10559 -0.00556888 0)
(0.106823 -0.00549813 0)
(0.108041 -0.00542483 0)
(0.109242 -0.00534895 0)
(0.110426 -0.0052705 0)
(0.111593 -0.00518946 0)
(0.112741 -0.00510584 0)
(0.11387 -0.00501964 0)
(0.11498 -0.00493086 0)
(0.116069 -0.00483953 0)
(0.117138 -0.00474565 0)
(0.118186 -0.00464925 0)
(0.119212 -0.00455035 0)
(0.120216 -0.00444898 0)
(0.121197 -0.00434519 0)
(0.122155 -0.004239 0)
(0.123088 -0.00413046 0)
(0.123998 -0.00401962 0)
(0.124882 -0.00390653 0)
(0.12574 -0.00379125 0)
(0.126573 -0.00367384 0)
(0.12738 -0.00355437 0)
(0.128159 -0.0034329 0)
(0.128911 -0.00330951 0)
(0.129636 -0.00318428 0)
(0.130332 -0.00305729 0)
(0.131 -0.00292862 0)
(0.131638 -0.00279836 0)
(0.132248 -0.0026666 0)
(0.132828 -0.00253344 0)
(0.133378 -0.00239898 0)
(0.133898 -0.0022633 0)
(0.134387 -0.00212653 0)
(0.134846 -0.00198875 0)
(0.135274 -0.00185008 0)
(0.135671 -0.00171062 0)
(0.136036 -0.00157048 0)
(0.13637 -0.00142977 0)
(0.136673 -0.0012886 0)
(0.136944 -0.00114709 0)
(0.137184 -0.00100533 0)
(0.137391 -0.000863455 0)
(0.137567 -0.000721562 0)
(0.137712 -0.000579764 0)
(0.137824 -0.000438171 0)
(0.137906 -0.00029689 0)
(0.137955 -0.00015603 0)
(0.137973 -1.56959e-05 0)
(0.13796 0.000124009 0)
(0.137916 0.000262983 0)
(0.137841 0.000401125 0)
(0.137735 0.00053834 0)
(0.137598 0.000674532 0)
(0.137432 0.000809609 0)
(0.137235 0.000943483 0)
(0.137008 0.00107607 0)
(0.136752 0.00120728 0)
(0.136467 0.00133704 0)