/*--------------------------------*- C++ -*----------------------------------*\
| =========                 |                                                 |
| \\      /  F ield         | OpenFOAM: The Open Source CFD Toolbox           |
|  \\    /   O peration     | Version:  v2012                                 |
|   \\  /    A nd           | Website:  www.openfoam.com                      |
|    \\/     M anipulation  |                                                 |
\*---------------------------------------------------------------------------*/
FoamFile
{
    version     2.0;
    format      ascii;
    class       volScalarField;
    location    "10";
    object      W;
}
// * * * * * * * * * * * * * * * * * * * * * * * * * * * * * * * * * * * * * //

dimensions      [0 0 -1 0 0 0 0];


internalField   nonuniform List<scalar> 
65536
(
1.12999e-18
3.41869e-18
5.79451e-18
8.31823e-18
1.10542e-17
1.40716e-17
1.74459e-17
2.12607e-17
2.56093e-17
3.05966e-17
3.63416e-17
4.29791e-17
5.06629e-17
5.95685e-17
6.98962e-17
8.18749e-17
9.57662e-17
1.11869e-16
1.30524e-16
1.52122e-16
1.77105e-16
2.05978e-16
2.39317e-16
2.77774e-16
3.22091e-16
3.73106e-16
4.31772e-16
4.99161e-16
5.76488e-16
6.6512e-16
7.66595e-16
8.82644e-16
1.01521e-15
1.16646e-15
1.33885e-15
1.53508e-15
1.75819e-15
2.01156e-15
2.29894e-15
2.62452e-15
2.9929e-15
3.40921e-15
3.87909e-15
4.40877e-15
5.00509e-15
5.67558e-15
6.4285e-15
7.27288e-15
8.21859e-15
9.27638e-15
1.0458e-14
1.1776e-14
1.32444e-14
1.48779e-14
1.66927e-14
1.8706e-14
2.09365e-14
2.3404e-14
2.613e-14
2.91371e-14
3.24496e-14
3.60931e-14
4.00949e-14
4.44836e-14
4.92896e-14
5.45445e-14
6.02816e-14
6.65356e-14
7.33426e-14
8.07399e-14
8.87663e-14
9.74613e-14
1.06866e-13
1.17021e-13
1.2797e-13
1.39755e-13
1.52419e-13
1.66004e-13
1.80554e-13
1.96111e-13
2.12715e-13
2.30407e-13
2.49225e-13
2.69205e-13
2.90381e-13
3.12784e-13
3.36442e-13
3.61378e-13
3.87612e-13
4.1516e-13
4.4403e-13
4.74226e-13
5.05747e-13
5.38582e-13
5.72716e-13
6.08125e-13
6.44775e-13
6.82628e-13
7.21632e-13
7.61729e-13
8.0285e-13
8.44918e-13
8.87843e-13
9.31527e-13
9.75862e-13
1.02073e-12
1.066e-12
1.11153e-12
1.15717e-12
1.20277e-12
1.24816e-12
1.29316e-12
1.3376e-12
1.38127e-12
1.42399e-12
1.46555e-12
1.50575e-12
1.54439e-12
1.58125e-12
1.61612e-12
1.6488e-12
1.67908e-12
1.70677e-12
1.73167e-12
1.75361e-12
1.77239e-12
1.78788e-12
1.79991e-12
1.80835e-12
1.8131e-12
1.81406e-12
1.81114e-12
1.80431e-12
1.79354e-12
1.77881e-12
1.76015e-12
1.73762e-12
1.71129e-12
1.68125e-12
1.64765e-12
1.61064e-12
1.57039e-12
1.52712e-12
1.48106e-12
1.43247e-12
1.3816e-12
1.32875e-12
1.27423e-12
1.21835e-12
1.16144e-12
1.10382e-12
1.04583e-12
9.87788e-13
9.30034e-13
8.72882e-13
8.16639e-13
7.61597e-13
7.08034e-13
6.56206e-13
6.06347e-13
5.58669e-13
5.13357e-13
4.70571e-13
4.30442e-13
3.93075e-13
3.58547e-13
3.26907e-13
2.98176e-13
2.72351e-13
2.49403e-13
2.29279e-13
2.11904e-13
1.97183e-13
1.85e-13
1.75223e-13
1.67704e-13
1.62279e-13
1.58773e-13
1.56999e-13
1.56763e-13
1.57861e-13
1.60084e-13
1.63221e-13
1.67059e-13
1.71384e-13
1.75988e-13
1.80666e-13
1.85224e-13
1.89476e-13
1.93254e-13
1.96401e-13
1.98783e-13
2.00286e-13
2.00818e-13
2.00312e-13
1.98727e-13
1.96048e-13
1.92283e-13
1.87469e-13
1.81662e-13
1.74941e-13
1.67404e-13
1.59163e-13
1.50342e-13
1.41071e-13
1.31488e-13
1.21726e-13
1.11918e-13
1.0219e-13
9.26558e-14
8.34193e-14
7.45695e-14
6.61803e-14
5.83101e-14
5.1001e-14
4.42802e-14
3.81602e-14
3.26406e-14
2.77095e-14
2.33453e-14
1.95186e-14
1.61939e-14
1.33319e-14
1.08904e-14
8.82657e-15
7.09763e-15
5.66226e-15
4.48129e-15
3.51831e-15
2.7401e-15
2.11681e-15
1.62205e-15
1.23281e-15
9.29317e-16
6.94785e-16
5.1516e-16
3.78812e-16
2.76237e-16
1.99758e-16
1.43243e-16
1.01855e-16
7.18147e-17
5.02063e-17
3.48019e-17
2.39187e-17
1.62983e-17
1.10104e-17
7.37352e-18
4.89413e-18
3.21806e-18
2.09362e-18
1.34335e-18
8.42817e-19
5.04699e-19
2.6685e-19
8.3236e-20
3.90165e-18
1.1804e-17
2.00069e-17
2.87201e-17
3.81655e-17
4.85817e-17
6.02291e-17
7.33958e-17
8.84036e-17
1.05614e-16
1.25438e-16
1.48339e-16
1.74848e-16
2.0557e-16
2.41194e-16
2.82509e-16
3.30416e-16
3.85945e-16
4.5027e-16
5.24731e-16
6.10856e-16
7.10381e-16
8.25286e-16
9.57815e-16
1.11052e-15
1.28628e-15
1.48837e-15
1.72048e-15
1.98677e-15
2.29195e-15
2.64129e-15
3.04073e-15
3.49693e-15
4.01736e-15
4.61036e-15
5.28524e-15
6.0524e-15
6.9234e-15
7.91109e-15
9.02974e-15
1.02951e-14
1.17247e-14
1.33378e-14
1.51556e-14
1.72014e-14
1.95009e-14
2.20821e-14
2.49759e-14
2.82156e-14
3.18377e-14
3.5882e-14
4.03916e-14
4.54129e-14
5.09964e-14
5.71962e-14
6.40708e-14
7.16827e-14
8.0099e-14
8.93912e-14
9.96355e-14
1.10913e-13
1.23309e-13
1.36915e-13
1.51827e-13
1.68144e-13
1.85972e-13
2.05421e-13
2.26605e-13
2.49644e-13
2.74659e-13
3.01777e-13
3.31129e-13
3.62846e-13
3.97063e-13
4.33916e-13
4.73544e-13
5.16083e-13
5.61669e-13
6.10439e-13
6.62524e-13
7.18053e-13
7.7715e-13
8.39932e-13
9.06509e-13
9.76982e-13
1.05144e-12
1.12997e-12
1.21263e-12
1.29947e-12
1.39053e-12
1.48583e-12
1.58536e-12
1.68909e-12
1.79699e-12
1.90898e-12
2.02496e-12
2.14482e-12
2.2684e-12
2.39553e-12
2.52599e-12
2.65955e-12
2.79593e-12
2.93483e-12
3.07591e-12
3.21882e-12
3.36314e-12
3.50846e-12
3.6543e-12
3.80018e-12
3.94558e-12
4.08996e-12
4.23274e-12
4.37334e-12
4.51114e-12
4.64553e-12
4.77585e-12
4.90146e-12
5.02171e-12
5.13593e-12
5.24348e-12
5.34372e-12
5.436e-12
5.51972e-12
5.59429e-12
5.65915e-12
5.71377e-12
5.75768e-12
5.79043e-12
5.81165e-12
5.821e-12
5.81822e-12
5.80311e-12
5.77554e-12
5.73547e-12
5.68291e-12
5.61799e-12
5.54088e-12
5.45187e-12
5.35131e-12
5.23965e-12
5.11741e-12
4.98519e-12
4.84368e-12
4.69362e-12
4.53584e-12
4.3712e-12
4.20062e-12
4.02508e-12
3.84557e-12
3.66313e-12
3.47878e-12
3.29358e-12
3.10855e-12
2.92472e-12
2.74307e-12
2.56456e-12
2.39009e-12
2.22052e-12
2.05663e-12
1.89915e-12
1.7487e-12
1.60586e-12
1.4711e-12
1.34483e-12
1.22733e-12
1.11884e-12
1.01949e-12
9.2932e-13
8.48312e-13
7.76356e-13
7.13271e-13
6.58809e-13
6.12658e-13
5.74447e-13
5.43754e-13
5.20105e-13
5.02985e-13
4.91842e-13
4.86089e-13
4.85115e-13
4.88285e-13
4.94949e-13
5.04447e-13
5.16115e-13
5.29295e-13
5.43337e-13
5.57611e-13
5.71514e-13
5.84476e-13
5.95972e-13
6.05528e-13
6.12725e-13
6.17214e-13
6.18715e-13
6.17022e-13
6.12011e-13
6.03635e-13
5.91926e-13
5.76992e-13
5.59013e-13
5.38234e-13
5.14953e-13
4.89517e-13
4.62307e-13
4.33728e-13
4.04197e-13
3.74131e-13
3.43934e-13
3.1399e-13
2.84655e-13
2.56242e-13
2.29027e-13
2.03234e-13
1.79042e-13
1.5658e-13
1.35929e-13
1.17128e-13
1.00175e-13
8.50319e-14
7.16318e-14
5.98837e-14
4.96786e-14
4.08946e-14
3.34025e-14
2.70699e-14
2.17656e-14
1.73624e-14
1.374e-14
1.07866e-14
8.40009e-15
6.48886e-15
4.97188e-15
3.77855e-15
2.84816e-15
2.12925e-15
1.57868e-15
1.16078e-15
8.46423e-16
6.1205e-16
4.38872e-16
3.12052e-16
2.20009e-16
1.53805e-16
1.06611e-16
7.32689e-17
4.99245e-17
3.37257e-17
2.25851e-17
1.49904e-17
9.85654e-18
6.4124e-18
4.11439e-18
2.58134e-18
1.54576e-18
8.17293e-19
2.54936e-19
8.41507e-18
2.54585e-17
4.31494e-17
6.19394e-17
8.23062e-17
1.04763e-16
1.29872e-16
1.58252e-16
1.90595e-16
2.27681e-16
2.70391e-16
3.19725e-16
3.76822e-16
4.42982e-16
5.1969e-16
6.08638e-16
7.11764e-16
8.31276e-16
9.69698e-16
1.1299e-15
1.31517e-15
1.52923e-15
1.77631e-15
2.06124e-15
2.38947e-15
2.76719e-15
3.20138e-15
3.69994e-15
4.2718e-15
4.92697e-15
5.67675e-15
6.53381e-15
7.51235e-15
8.62829e-15
9.89939e-15
1.13455e-14
1.29887e-14
1.48536e-14
1.69675e-14
1.93605e-14
2.20663e-14
2.51216e-14
2.85674e-14
3.24484e-14
3.68138e-14
4.17177e-14
4.72191e-14
5.33825e-14
6.02782e-14
6.79826e-14
7.65787e-14
8.61564e-14
9.68126e-14
1.08652e-13
1.21787e-13
1.36339e-13
1.52436e-13
1.70218e-13
1.8983e-13
2.11429e-13
2.35181e-13
2.61261e-13
2.89851e-13
3.21147e-13
3.55351e-13
3.92674e-13
4.33336e-13
4.77565e-13
5.25596e-13
5.77672e-13
6.34041e-13
6.94956e-13
7.60675e-13
8.31455e-13
9.07559e-13
9.89247e-13
1.07678e-12
1.17041e-12
1.27038e-12
1.37694e-12
1.49031e-12
1.61072e-12
1.73837e-12
1.87344e-12
2.0161e-12
2.16648e-12
2.3247e-12
2.49084e-12
2.66497e-12
2.8471e-12
3.0372e-12
3.23522e-12
3.44106e-12
3.65457e-12
3.87555e-12
4.10375e-12
4.33887e-12
4.58057e-12
4.82842e-12
5.08197e-12
5.34069e-12
5.60399e-12
5.87123e-12
6.14172e-12
6.41469e-12
6.68933e-12
6.96477e-12
7.2401e-12
7.51433e-12
7.78646e-12
8.05543e-12
8.32013e-12
8.57944e-12
8.83219e-12
9.07722e-12
9.31332e-12
9.5393e-12
9.75395e-12
9.95608e-12
1.01445e-11
1.03181e-11
1.04757e-11
1.06163e-11
1.07389e-11
1.08424e-11
1.09261e-11
1.09891e-11
1.10307e-11
1.10503e-11
1.10475e-11
1.10219e-11
1.09732e-11
1.09013e-11
1.08063e-11
1.06883e-11
1.05477e-11
1.03849e-11
1.02006e-11
9.99553e-12
9.77066e-12
9.52702e-12
9.26583e-12
8.98842e-12
8.69625e-12
8.39087e-12
8.07394e-12
7.74721e-12
7.41247e-12
7.07158e-12
6.72644e-12
6.37893e-12
6.03096e-12
5.68439e-12
5.34106e-12
5.00274e-12
4.67111e-12
4.34778e-12
4.03425e-12
3.73187e-12
3.4419e-12
3.16542e-12
2.9034e-12
2.65663e-12
2.42575e-12
2.21125e-12
2.01345e-12
1.83253e-12
1.66852e-12
1.5213e-12
1.39062e-12
1.27611e-12
1.17727e-12
1.0935e-12
1.02408e-12
9.68219e-13
9.2504e-13
8.93589e-13
8.72854e-13
8.61767e-13
8.59218e-13
8.64061e-13
8.75129e-13
8.91237e-13
9.11203e-13
9.33852e-13
9.58033e-13
9.82628e-13
1.00657e-12
1.02886e-12
1.04857e-12
1.06487e-12
1.07703e-12
1.08444e-12
1.0866e-12
1.08318e-12
1.07394e-12
1.05882e-12
1.03788e-12
1.01132e-12
9.79447e-13
9.42702e-13
9.01612e-13
8.56787e-13
8.08895e-13
7.58647e-13
7.06772e-13
6.53998e-13
6.01034e-13
5.48548e-13
4.97158e-13
4.47412e-13
3.99786e-13
3.5467e-13
3.12373e-13
2.73117e-13
2.3704e-13
2.04208e-13
1.74611e-13
1.48184e-13
1.24805e-13
1.04315e-13
8.65214e-14
7.12095e-14
5.81528e-14
4.71196e-14
3.78801e-14
3.0212e-14
2.3905e-14
1.87637e-14
1.46102e-14
1.12844e-14
8.64516e-15
6.56934e-15
4.95118e-15
3.701e-15
2.74371e-15
2.01721e-15
1.47076e-15
1.06341e-15
7.62455e-16
5.42084e-16
3.82162e-16
2.67143e-16
1.85159e-16
1.27244e-16
8.66976e-17
5.85641e-17
3.92169e-17
2.60283e-17
1.71136e-17
1.11333e-17
7.14326e-18
4.48154e-18
2.6836e-18
1.4189e-18
4.42595e-19
1.65929e-17
5.01988e-17
8.50791e-17
1.22123e-16
1.62271e-16
2.06534e-16
2.56015e-16
3.11934e-16
3.75652e-16
4.48702e-16
5.32816e-16
6.2996e-16
7.42373e-16
8.72608e-16
1.02358e-15
1.19861e-15
1.40151e-15
1.63661e-15
1.90885e-15
2.22388e-15
2.58811e-15
3.00886e-15
3.49442e-15
4.05422e-15
4.69893e-15
5.44066e-15
6.29307e-15
7.27159e-15
8.39361e-15
9.67872e-15
1.11489e-14
1.28289e-14
1.47463e-14
1.69321e-14
1.94208e-14
2.22509e-14
2.54654e-14
2.91118e-14
3.32429e-14
3.79173e-14
4.31996e-14
4.9161e-14
5.58801e-14
6.3443e-14
7.19444e-14
8.14878e-14
9.21862e-14
1.04163e-13
1.17552e-13
1.32499e-13
1.49161e-13
1.67709e-13
1.88326e-13
2.1121e-13
2.36572e-13
2.64638e-13
2.95652e-13
3.29869e-13
3.67564e-13
4.09026e-13
4.54561e-13
5.04489e-13
5.59148e-13
6.18891e-13
6.84086e-13
7.55113e-13
8.32369e-13
9.1626e-13
1.0072e-12
1.10563e-12
1.21197e-12
1.32666e-12
1.45015e-12
1.58288e-12
1.72529e-12
1.87782e-12
2.04089e-12
2.21491e-12
2.40028e-12
2.59737e-12
2.80655e-12
3.02812e-12
3.26239e-12
3.50959e-12
3.76993e-12
4.04359e-12
4.33065e-12
4.63117e-12
4.94513e-12
5.27246e-12
5.613e-12
5.96652e-12
6.33271e-12
6.71119e-12
7.10148e-12
7.50301e-12
7.91511e-12
8.33705e-12
8.76797e-12
9.20694e-12
9.65291e-12
1.01048e-11
1.05612e-11
1.10211e-11
1.14828e-11
1.1945e-11
1.24061e-11
1.28644e-11
1.33182e-11
1.37657e-11
1.42052e-11
1.46347e-11
1.50524e-11
1.54562e-11
1.58443e-11
1.62148e-11
1.65656e-11
1.68949e-11
1.72008e-11
1.74814e-11
1.77351e-11
1.79601e-11
1.81548e-11
1.83178e-11
1.84477e-11
1.85433e-11
1.86035e-11
1.86275e-11
1.86146e-11
1.85641e-11
1.84759e-11
1.83497e-11
1.81858e-11
1.79844e-11
1.77461e-11
1.74718e-11
1.71625e-11
1.68194e-11
1.64441e-11
1.60382e-11
1.56038e-11
1.51429e-11
1.4658e-11
1.41514e-11
1.36259e-11
1.30841e-11
1.25291e-11
1.19637e-11
1.1391e-11
1.08139e-11
1.02356e-11
9.65893e-12
9.08696e-12
8.52248e-12
7.96824e-12
7.42683e-12
6.90066e-12
6.39198e-12
5.90283e-12
5.43503e-12
4.99017e-12
4.56959e-12
4.1744e-12
3.80545e-12
3.46336e-12
3.14849e-12
2.86098e-12
2.60071e-12
2.3674e-12
2.1605e-12
1.97933e-12
1.82299e-12
1.69044e-12
1.58048e-12
1.4918e-12
1.42295e-12
1.37241e-12
1.33854e-12
1.31964e-12
1.31396e-12
1.3197e-12
1.33505e-12
1.35815e-12
1.38718e-12
1.42033e-12
1.45583e-12
1.49198e-12
1.52714e-12
1.5598e-12
1.58856e-12
1.61216e-12
1.6295e-12
1.63967e-12
1.64193e-12
1.63578e-12
1.6209e-12
1.59718e-12
1.56474e-12
1.52387e-12
1.47508e-12
1.41903e-12
1.3565e-12
1.28844e-12
1.21585e-12
1.1398e-12
1.06139e-12
9.81709e-13
9.01823e-13
8.22731e-13
7.45355e-13
6.70512e-13
5.98909e-13
5.31126e-13
4.67617e-13
4.08708e-13
3.54601e-13
3.05384e-13
2.61041e-13
2.21463e-13
1.86468e-13
1.55809e-13
1.29195e-13
1.06302e-13
8.67883e-14
7.03043e-14
5.65048e-14
4.50558e-14
3.5642e-14
2.79704e-14
2.17743e-14
1.68143e-14
1.28792e-14
9.78495e-15
7.37343e-15
5.51071e-15
4.08467e-15
3.00265e-15
2.18894e-15
1.58247e-15
1.13447e-15
8.06478e-16
5.68493e-16
3.97353e-16
2.75382e-16
1.8923e-16
1.28921e-16
8.70793e-17
5.83079e-17
3.86967e-17
2.54417e-17
1.65504e-17
1.06185e-17
6.66166e-18
3.98899e-18
2.10907e-18
6.5788e-19
3.17761e-17
9.61314e-17
1.62924e-16
2.33853e-16
3.10716e-16
3.95447e-16
4.90153e-16
5.97165e-16
7.19086e-16
8.58841e-16
1.01974e-15
1.20553e-15
1.42049e-15
1.6695e-15
1.95811e-15
2.29266e-15
2.6804e-15
3.1296e-15
3.64968e-15
4.25139e-15
4.94694e-15
5.75025e-15
6.67711e-15
7.74544e-15
8.97554e-15
1.03904e-14
1.20159e-14
1.38814e-14
1.60199e-14
1.84684e-14
2.12686e-14
2.44673e-14
2.81167e-14
3.22754e-14
3.70084e-14
4.23885e-14
4.84964e-14
5.54218e-14
6.32638e-14
7.21323e-14
8.21486e-14
9.34459e-14
1.06171e-13
1.20485e-13
1.36565e-13
1.54602e-13
1.74807e-13
1.97408e-13
2.22654e-13
2.50813e-13
2.82175e-13
3.17053e-13
3.55783e-13
3.98727e-13
4.4627e-13
4.98824e-13
5.56827e-13
6.20745e-13
6.91068e-13
7.68316e-13
8.53033e-13
9.45791e-13
1.04719e-12
1.15784e-12
1.2784e-12
1.40952e-12
1.55189e-12
1.70621e-12
1.87319e-12
2.05356e-12
2.24804e-12
2.45736e-12
2.68226e-12
2.92344e-12
3.18163e-12
3.4575e-12
3.75171e-12
4.06489e-12
4.39763e-12
4.75047e-12
5.12389e-12
5.51833e-12
5.93413e-12
6.37156e-12
6.83082e-12
7.312e-12
7.81509e-12
8.33997e-12
8.88642e-12
9.45407e-12
1.00424e-11
1.06509e-11
1.12787e-11
1.1925e-11
1.25886e-11
1.32684e-11
1.3963e-11
1.4671e-11
1.53906e-11
1.612e-11
1.68574e-11
1.76005e-11
1.83472e-11
1.90951e-11
1.98417e-11
2.05844e-11
2.13205e-11
2.20472e-11
2.27616e-11
2.34608e-11
2.41417e-11
2.48014e-11
2.54368e-11
2.60448e-11
2.66225e-11
2.71667e-11
2.76747e-11
2.81435e-11
2.85704e-11
2.89528e-11
2.92882e-11
2.95742e-11
2.98088e-11
2.99899e-11
3.0116e-11
3.01855e-11
3.01973e-11
3.01505e-11
3.00444e-11
2.98788e-11
2.96537e-11
2.93695e-11
2.90268e-11
2.86268e-11
2.81708e-11
2.76606e-11
2.70983e-11
2.64863e-11
2.58274e-11
2.51246e-11
2.43813e-11
2.36011e-11
2.27879e-11
2.19458e-11
2.1079e-11
2.01919e-11
1.92891e-11
1.83752e-11
1.74548e-11
1.65325e-11
1.56129e-11
1.47004e-11
1.37994e-11
1.29141e-11
1.20484e-11
1.12061e-11
1.03905e-11
9.60473e-12
8.85171e-12
8.13384e-12
7.45324e-12
6.81163e-12
6.21037e-12
5.65047e-12
5.13255e-12
4.65688e-12
4.2234e-12
3.8317e-12
3.48108e-12
3.17054e-12
2.89883e-12
2.66444e-12
2.46566e-12
2.30057e-12
2.16708e-12
2.06295e-12
1.98581e-12
1.93319e-12
1.90253e-12
1.89119e-12
1.89651e-12
1.91579e-12
1.94634e-12
1.98548e-12
2.03058e-12
2.07908e-12
2.12854e-12
2.17662e-12
2.22114e-12
2.26012e-12
2.29177e-12
2.31455e-12
2.32718e-12
2.32863e-12
2.3182e-12
2.29547e-12
2.26031e-12
2.2129e-12
2.15369e-12
2.08339e-12
2.00295e-12
1.91353e-12
1.81643e-12
1.71309e-12
1.60503e-12
1.49378e-12
1.3809e-12
1.26786e-12
1.15607e-12
1.04682e-12
9.41247e-13
8.40333e-13
7.44883e-13
6.5552e-13
5.72689e-13
4.96663e-13
4.27552e-13
3.65323e-13
3.09815e-13
2.60761e-13
2.17807e-13
1.8054e-13
1.48498e-13
1.21198e-13
9.81476e-14
7.88587e-14
6.28619e-14
4.97135e-14
3.90025e-14
3.03545e-14
2.34342e-14
1.79455e-14
1.36309e-14
1.02693e-14
7.67336e-15
5.68655e-15
4.17939e-15
3.04625e-15
2.20187e-15
1.57826e-15
1.1218e-15
7.90654e-16
5.52562e-16
3.82902e-16
2.63083e-16
1.79218e-16
1.21041e-16
8.10417e-17
5.37802e-17
3.53562e-17
2.29987e-17
1.4755e-17
9.25634e-18
5.54252e-18
2.93041e-18
9.14074e-19
5.9927e-17
1.81294e-16
3.0725e-16
4.40997e-16
5.85921e-16
7.45659e-16
9.24183e-16
1.12588e-15
1.35565e-15
1.61899e-15
1.92213e-15
2.27213e-15
2.67702e-15
3.14598e-15
3.68944e-15
4.31933e-15
5.04926e-15
5.89476e-15
6.87352e-15
8.0057e-15
9.31424e-15
1.08252e-14
1.25683e-14
1.45769e-14
1.68893e-14
1.95483e-14
2.26025e-14
2.61067e-14
3.01226e-14
3.47193e-14
3.99748e-14
4.59762e-14
5.28209e-14
6.06177e-14
6.94881e-14
7.9567e-14
9.10044e-14
1.03967e-13
1.18637e-13
1.3522e-13
1.53939e-13
1.7504e-13
1.98794e-13
2.25497e-13
2.55473e-13
2.89075e-13
3.26688e-13
3.6873e-13
4.15653e-13
4.67945e-13
5.26134e-13
5.90787e-13
6.62511e-13
7.41956e-13
8.29816e-13
9.26827e-13
1.03377e-12
1.15148e-12
1.28082e-12
1.4227e-12
1.5781e-12
1.74799e-12
1.93343e-12
2.13548e-12
2.35526e-12
2.5939e-12
2.85256e-12
3.13242e-12
3.43468e-12
3.76052e-12
4.11115e-12
4.48774e-12
4.89147e-12
5.32347e-12
5.78484e-12
6.27662e-12
6.79979e-12
7.35526e-12
7.94384e-12
8.56626e-12
9.22311e-12
9.91488e-12
1.06419e-11
1.14044e-11
1.22023e-11
1.30355e-11
1.39036e-11
1.48061e-11
1.57423e-11
1.67111e-11
1.77113e-11
1.87415e-11
1.98001e-11
2.0885e-11
2.19941e-11
2.3125e-11
2.42751e-11
2.54414e-11
2.66208e-11
2.781e-11
2.90054e-11
3.02032e-11
3.13995e-11
3.25902e-11
3.37708e-11
3.49371e-11
3.60844e-11
3.72081e-11
3.83036e-11
3.9366e-11
4.03906e-11
4.13726e-11
4.23074e-11
4.31902e-11
4.40166e-11
4.47821e-11
4.54825e-11
4.61137e-11
4.66719e-11
4.71535e-11
4.75553e-11
4.78742e-11
4.81077e-11
4.82536e-11
4.83098e-11
4.82751e-11
4.81485e-11
4.79294e-11
4.76177e-11
4.72139e-11
4.6719e-11
4.61344e-11
4.54621e-11
4.47045e-11
4.38647e-11
4.2946e-11
4.19525e-11
4.08885e-11
3.97589e-11
3.8569e-11
3.73244e-11
3.6031e-11
3.46951e-11
3.33232e-11
3.1922e-11
3.04983e-11
2.9059e-11
2.76111e-11
2.61616e-11
2.47171e-11
2.32845e-11
2.18701e-11
2.04802e-11
1.91206e-11
1.77969e-11
1.65142e-11
1.52771e-11
1.40898e-11
1.2956e-11
1.18789e-11
1.0861e-11
9.90431e-12
9.01047e-12
8.18039e-12
7.41453e-12
6.71282e-12
6.07473e-12
5.49926e-12
4.985e-12
4.53015e-12
4.13254e-12
3.78971e-12
3.49887e-12
3.25704e-12
3.06097e-12
2.90727e-12
2.79237e-12
2.71259e-12
2.66417e-12
2.64325e-12
2.64598e-12
2.66848e-12
2.70689e-12
2.75741e-12
2.81632e-12
2.88005e-12
2.94515e-12
3.00838e-12
3.06672e-12
3.11743e-12
3.15807e-12
3.18653e-12
3.20106e-12
3.2003e-12
3.18329e-12
3.14951e-12
3.0988e-12
3.03145e-12
2.9481e-12
2.84977e-12
2.73778e-12
2.61371e-12
2.47938e-12
2.33676e-12
2.18792e-12
2.03498e-12
1.88002e-12
1.72508e-12
1.57205e-12
1.42266e-12
1.27847e-12
1.14078e-12
1.01066e-12
8.88952e-13
7.76233e-13
6.72856e-13
5.78953e-13
4.94459e-13
4.19142e-13
3.52624e-13
2.94414e-13
2.4394e-13
2.00567e-13
1.63632e-13
1.32462e-13
1.06391e-13
8.47804e-14
6.70254e-14
5.25677e-14
4.08994e-14
3.15658e-14
2.41658e-14
1.83507e-14
1.38215e-14
1.03252e-14
7.64994e-15
5.62117e-15
4.09627e-15
2.96025e-15
2.12146e-15
1.50763e-15
1.06242e-15
7.42376e-16
5.14361e-16
3.53359e-16
2.40688e-16
1.62539e-16
1.08816e-16
7.22049e-17
4.74653e-17
3.08734e-17
1.9806e-17
1.24245e-17
7.43928e-18
3.93316e-18
1.22685e-18
1.11683e-16
3.37865e-16
5.72591e-16
8.21821e-16
1.09186e-15
1.38947e-15
1.72205e-15
2.09777e-15
2.52573e-15
3.01617e-15
3.58068e-15
4.23238e-15
4.98623e-15
5.85924e-15
6.87084e-15
8.04319e-15
9.40157e-15
1.09748e-14
1.27958e-14
1.49019e-14
1.73357e-14
2.01457e-14
2.33866e-14
2.71208e-14
3.14187e-14
3.636e-14
4.20345e-14
4.85435e-14
5.60011e-14
6.45353e-14
7.42898e-14
8.54254e-14
9.81217e-14
1.1258e-13
1.29022e-13
1.47698e-13
1.68882e-13
1.92881e-13
2.20031e-13
2.50705e-13
2.85312e-13
3.24302e-13
3.6817e-13
4.17455e-13
4.72746e-13
5.34685e-13
6.0397e-13
6.81355e-13
7.67658e-13
8.6376e-13
9.70607e-13
1.08922e-12
1.22068e-12
1.36615e-12
1.52686e-12
1.70412e-12
1.89931e-12
2.11389e-12
2.34939e-12
2.6074e-12
2.88959e-12
3.19769e-12
3.53348e-12
3.89881e-12
4.29556e-12
4.72564e-12
5.19101e-12
5.69363e-12
6.23546e-12
6.81846e-12
7.44454e-12
8.11561e-12
8.83348e-12
9.59991e-12
1.04165e-11
1.12849e-11
1.22064e-11
1.31823e-11
1.42137e-11
1.53013e-11
1.64458e-11
1.76475e-11
1.89067e-11
2.02231e-11
2.15962e-11
2.30251e-11
2.45088e-11
2.60456e-11
2.76338e-11
2.9271e-11
3.09545e-11
3.26812e-11
3.44478e-11
3.62503e-11
3.80845e-11
3.99457e-11
4.18289e-11
4.37288e-11
4.56396e-11
4.75553e-11
4.94696e-11
5.13757e-11
5.3267e-11
5.51362e-11
5.69762e-11
5.87796e-11
6.0539e-11
6.22468e-11
6.38955e-11
6.54776e-11
6.69857e-11
6.84126e-11
6.97512e-11
7.09945e-11
7.21361e-11
7.31696e-11
7.40891e-11
7.48892e-11
7.55647e-11
7.61112e-11
7.65246e-11
7.68016e-11
7.69393e-11
7.69354e-11
7.67886e-11
7.6498e-11
7.60634e-11
7.54855e-11
7.47656e-11
7.3906e-11
7.29094e-11
7.17794e-11
7.05205e-11
6.91376e-11
6.76366e-11
6.6024e-11
6.43068e-11
6.24926e-11
6.05899e-11
5.86073e-11
5.6554e-11
5.44396e-11
5.2274e-11
5.00674e-11
4.783e-11
4.55722e-11
4.33044e-11
4.10369e-11
3.87798e-11
3.6543e-11
3.4336e-11
3.2168e-11
3.00476e-11
2.79829e-11
2.59815e-11
2.40501e-11
2.21948e-11
2.04211e-11
1.87335e-11
1.71358e-11
1.5631e-11
1.42213e-11
1.29081e-11
1.16921e-11
1.05731e-11
9.55046e-12
8.62262e-12
7.78755e-12
7.04261e-12
6.38467e-12
5.81012e-12
5.31496e-12
4.89484e-12
4.5451e-12
4.26081e-12
4.03688e-12
3.868e-12
3.74878e-12
3.67374e-12
3.63734e-12
3.63405e-12
3.65836e-12
3.70484e-12
3.76816e-12
3.84317e-12
3.92487e-12
4.00855e-12
4.08974e-12
4.16436e-12
4.22866e-12
4.27935e-12
4.31361e-12
4.32909e-12
4.32401e-12
4.29713e-12
4.24775e-12
4.17576e-12
4.08156e-12
3.96609e-12
3.83073e-12
3.6773e-12
3.50797e-12
3.32519e-12
3.13163e-12
2.93007e-12
2.72335e-12
2.51426e-12
2.30552e-12
2.09963e-12
1.89892e-12
1.7054e-12
1.52081e-12
1.34656e-12
1.18373e-12
1.03306e-12
8.94999e-13
7.6969e-13
6.57026e-13
5.56671e-13
4.68102e-13
3.90649e-13
3.2353e-13
2.6589e-13
2.16835e-13
1.75459e-13
1.4087e-13
1.12213e-13
8.86807e-14
6.95275e-14
5.40765e-14
4.17222e-14
3.19313e-14
2.42404e-14
1.82524e-14
1.36315e-14
1.0097e-14
7.41745e-15
5.404e-15
3.90446e-15
2.79755e-15
1.98771e-15
1.40047e-15
9.7843e-16
6.77808e-16
4.65577e-16
3.17082e-16
2.14103e-16
1.43321e-16
9.50916e-17
6.25049e-17
4.06528e-17
2.60781e-17
1.63582e-17
9.79427e-18
5.17812e-18
1.61517e-18
2.05863e-16
6.22776e-16
1.05543e-15
1.51479e-15
2.01247e-15
2.56095e-15
3.17383e-15
3.86615e-15
4.65468e-15
5.55827e-15
6.59824e-15
7.79876e-15
9.18733e-15
1.07953e-14
1.26583e-14
1.48172e-14
1.73185e-14
2.02151e-14
2.35675e-14
2.74444e-14
3.19241e-14
3.70953e-14
4.3059e-14
4.99293e-14
5.78354e-14
6.69235e-14
7.73583e-14
8.93255e-14
1.03034e-13
1.18717e-13
1.36639e-13
1.57093e-13
1.80408e-13
2.06949e-13
2.37124e-13
2.71386e-13
3.10236e-13
3.54231e-13
4.03982e-13
4.60165e-13
5.23524e-13
5.94873e-13
6.75106e-13
7.65197e-13
8.66208e-13
9.79295e-13
1.10571e-12
1.24681e-12
1.40406e-12
1.57902e-12
1.7734e-12
1.98899e-12
2.22772e-12
2.49165e-12
2.78295e-12
3.10393e-12
3.45699e-12
3.84468e-12
4.26967e-12
4.73471e-12
5.24268e-12
5.79654e-12
6.39935e-12
7.05422e-12
7.76432e-12
8.53287e-12
9.3631e-12
1.02582e-11
1.12215e-11
1.22559e-11
1.33647e-11
1.45507e-11
1.58168e-11
1.71656e-11
1.85995e-11
2.01207e-11
2.1731e-11
2.3432e-11
2.52249e-11
2.71105e-11
2.90892e-11
3.11608e-11
3.33247e-11
3.55798e-11
3.79244e-11
4.03561e-11
4.28721e-11
4.54688e-11
4.8142e-11
5.08869e-11
5.3698e-11
5.65691e-11
5.94935e-11
6.24637e-11
6.54717e-11
6.85089e-11
7.1566e-11
7.46333e-11
7.77006e-11
8.07574e-11
8.37925e-11
8.67947e-11
8.97523e-11
9.26535e-11
9.54864e-11
9.82389e-11
1.00899e-10
1.03455e-10
1.05895e-10
1.08207e-10
1.10381e-10
1.12405e-10
1.14269e-10
1.15964e-10
1.17479e-10
1.18807e-10
1.1994e-10
1.2087e-10
1.21592e-10
1.221e-10
1.2239e-10
1.22458e-10
1.22303e-10
1.21923e-10
1.21319e-10
1.2049e-10
1.19439e-10
1.1817e-10
1.16686e-10
1.14993e-10
1.13099e-10
1.11009e-10
1.08733e-10
1.06281e-10
1.03663e-10
1.00891e-10
9.79762e-11
9.49325e-11
9.17734e-11
8.8513e-11
8.51662e-11
8.17479e-11
7.82737e-11
7.4759e-11
7.12194e-11
6.76703e-11
6.41272e-11
6.0605e-11
5.71182e-11
5.3681e-11
5.03067e-11
4.7008e-11
4.37967e-11
4.06838e-11
3.7679e-11
3.47913e-11
3.20284e-11
2.9397e-11
2.69024e-11
2.4549e-11
2.23398e-11
2.02769e-11
1.8361e-11
1.6592e-11
1.49687e-11
1.34887e-11
1.21491e-11
1.09459e-11
9.87458e-12
8.92973e-12
8.10554e-12
7.39564e-12
6.79326e-12
6.29127e-12
5.88226e-12
5.55861e-12
5.31254e-12
5.13619e-12
5.02164e-12
4.96097e-12
4.94633e-12
4.96996e-12
5.02426e-12
5.10184e-12
5.19554e-12
5.29853e-12
5.40436e-12
5.50697e-12
5.60081e-12
5.68087e-12
5.74275e-12
5.78267e-12
5.79756e-12
5.78509e-12
5.74364e-12
5.67238e-12
5.57119e-12
5.44071e-12
5.28222e-12
5.09764e-12
4.88943e-12
4.66053e-12
4.41422e-12
4.15407e-12
3.88378e-12
3.60712e-12
3.32779e-12
3.04936e-12
2.77515e-12
2.50818e-12
2.25111e-12
2.00618e-12
1.77522e-12
1.55961e-12
1.3603e-12
1.17783e-12
1.01236e-12
8.63706e-13
7.31399e-13
6.14717e-13
5.12751e-13
4.2445e-13
3.48669e-13
2.84214e-13
2.29881e-13
1.84487e-13
1.46897e-13
1.16046e-13
9.09483e-14
7.07115e-14
5.45379e-14
4.17257e-14
3.16656e-14
2.38362e-14
1.77965e-14
1.31785e-14
9.67862e-15
7.04964e-15
5.09226e-15
3.64781e-15
2.5913e-15
1.82538e-15
1.27506e-15
8.8315e-16
6.0653e-16
4.13019e-16
2.78847e-16
1.86638e-16
1.2382e-16
8.13807e-17
5.29253e-17
3.39484e-17
2.12939e-17
1.2749e-17
6.74007e-18
2.10234e-18
3.75406e-16
1.13567e-15
1.92462e-15
2.76226e-15
3.66975e-15
4.66983e-15
5.78729e-15
7.04954e-15
8.48714e-15
1.01345e-14
1.20303e-14
1.42187e-14
1.67499e-14
1.96807e-14
2.30764e-14
2.7011e-14
3.15694e-14
3.68479e-14
4.29566e-14
5.00204e-14
5.81818e-14
6.76022e-14
7.84651e-14
9.09779e-14
1.05376e-13
1.21924e-13
1.40921e-13
1.62704e-13
1.87652e-13
2.16191e-13
2.48795e-13
2.85997e-13
3.28392e-13
3.76642e-13
4.31483e-13
4.93732e-13
5.64296e-13
6.44175e-13
7.34473e-13
8.36407e-13
9.5131e-13
1.08065e-12
1.22602e-12
1.38917e-12
1.572e-12
1.77657e-12
2.00511e-12
2.26004e-12
2.54395e-12
2.85964e-12
3.21007e-12
3.59845e-12
4.02817e-12
4.50283e-12
5.02622e-12
5.60237e-12
6.23548e-12
6.92996e-12
7.69038e-12
8.5215e-12
9.42824e-12
1.04156e-11
1.14888e-11
1.26531e-11
1.39137e-11
1.5276e-11
1.67453e-11
1.83268e-11
2.00256e-11
2.18469e-11
2.37952e-11
2.58753e-11
2.80912e-11
3.04469e-11
3.29457e-11
3.55905e-11
3.83836e-11
4.13267e-11
4.44208e-11
4.76662e-11
5.10622e-11
5.46075e-11
5.82997e-11
6.21354e-11
6.61104e-11
7.02193e-11
7.44556e-11
7.88119e-11
8.32795e-11
8.78488e-11
9.25091e-11
9.72484e-11
1.02054e-10
1.06912e-10
1.11808e-10
1.16726e-10
1.21649e-10
1.26561e-10
1.31443e-10
1.36278e-10
1.41047e-10
1.4573e-10
1.50308e-10
1.54762e-10
1.59072e-10
1.6322e-10
1.67186e-10
1.70952e-10
1.745e-10
1.77812e-10
1.80873e-10
1.83666e-10
1.86176e-10
1.88392e-10
1.90298e-10
1.91886e-10
1.93146e-10
1.94068e-10
1.94647e-10
1.94877e-10
1.94756e-10
1.9428e-10
1.93451e-10
1.92269e-10
1.90738e-10
1.88864e-10
1.86652e-10
1.84111e-10
1.81252e-10
1.78086e-10
1.74626e-10
1.70886e-10
1.66884e-10
1.62635e-10
1.58159e-10
1.53476e-10
1.48605e-10
1.43569e-10
1.38389e-10
1.33088e-10
1.27689e-10
1.22216e-10
1.16692e-10
1.11141e-10
1.05585e-10
1.00047e-10
9.45507e-11
8.91162e-11
8.37646e-11
7.85154e-11
7.33871e-11
6.8397e-11
6.35607e-11
5.88928e-11
5.44057e-11
5.01108e-11
4.60173e-11
4.21331e-11
3.8464e-11
3.50145e-11
3.1787e-11
2.87828e-11
2.60011e-11
2.34399e-11
2.1096e-11
1.89644e-11
1.70395e-11
1.53142e-11
1.37808e-11
1.24304e-11
1.12538e-11
1.02411e-11
9.38169e-12
8.66487e-12
8.07956e-12
7.61448e-12
7.25826e-12
6.9995e-12
6.82683e-12
6.729e-12
6.6949e-12
6.71366e-12
6.77469e-12
6.86775e-12
6.98302e-12
7.11115e-12
7.24335e-12
7.37145e-12
7.48799e-12
7.58625e-12
7.66038e-12
7.70539e-12
7.71726e-12
7.69293e-12
7.63037e-12
7.52854e-12
7.38739e-12
7.20784e-12
6.99168e-12
6.74153e-12
6.46072e-12
6.15316e-12
5.82325e-12
5.47572e-12
5.11547e-12
4.74748e-12
4.3766e-12
4.00752e-12
3.64458e-12
3.2917e-12
2.95233e-12
2.62938e-12
2.32519e-12
2.0415e-12
1.77953e-12
1.53991e-12
1.32281e-12
1.12794e-12
9.54635e-13
8.01916e-13
6.68555e-13
5.53148e-13
4.5417e-13
3.70039e-13
2.99164e-13
2.39984e-13
1.91007e-13
1.5083e-13
1.18164e-13
9.18367e-14
7.08057e-14
5.41531e-14
4.10832e-14
3.09155e-14
2.3075e-14
1.70823e-14
1.25423e-14
9.13311e-15
6.59563e-15
4.72365e-15
3.35482e-15
2.36275e-15
1.65011e-15
1.14272e-15
7.84672e-16
5.34246e-16
3.60644e-16
2.41357e-16
1.60104e-16
1.05219e-16
6.84224e-17
4.38858e-17
2.75256e-17
1.64792e-17
8.71193e-18
2.71737e-18
6.7731e-16
2.04898e-15
3.4724e-15
4.98367e-15
6.62094e-15
8.42524e-15
1.04413e-14
1.27186e-14
1.53122e-14
1.82841e-14
2.17043e-14
2.56524e-14
3.02185e-14
3.55057e-14
4.16313e-14
4.87291e-14
5.69517e-14
6.6473e-14
7.74911e-14
9.02317e-14
1.04951e-13
1.2194e-13
1.41529e-13
1.64091e-13
1.9005e-13
2.19882e-13
2.54126e-13
2.93387e-13
3.38347e-13
3.89768e-13
4.48505e-13
5.15514e-13
5.9186e-13
6.78731e-13
7.77445e-13
8.89466e-13
1.01641e-12
1.16008e-12
1.32243e-12
1.50563e-12
1.71207e-12
1.94435e-12
2.20531e-12
2.49806e-12
2.82595e-12
3.19265e-12
3.6021e-12
4.05855e-12
4.56658e-12
5.13109e-12
5.75731e-12
6.45083e-12
7.21757e-12
8.06381e-12
8.99613e-12
1.00215e-11
1.11472e-11
1.23807e-11
1.37299e-11
1.5203e-11
1.68082e-11
1.85541e-11
2.04493e-11
2.25025e-11
2.47226e-11
2.71183e-11
2.96981e-11
3.24705e-11
3.54438e-11
3.86256e-11
4.20234e-11
4.5644e-11
4.94936e-11
5.35774e-11
5.79001e-11
6.24651e-11
6.72749e-11
7.23307e-11
7.76326e-11
8.31791e-11
8.89672e-11
9.49924e-11
1.01249e-10
1.07728e-10
1.14421e-10
1.21317e-10
1.28401e-10
1.35659e-10
1.43075e-10
1.50629e-10
1.58302e-10
1.66071e-10
1.73912e-10
1.81802e-10
1.89712e-10
1.97616e-10
2.05485e-10
2.13288e-10
2.20997e-10
2.28579e-10
2.36003e-10
2.43238e-10
2.50252e-10
2.57014e-10
2.63493e-10
2.69659e-10
2.75484e-10
2.80938e-10
2.85995e-10
2.9063e-10
2.94819e-10
2.9854e-10
3.01773e-10
3.04502e-10
3.0671e-10
3.08384e-10
3.09514e-10
3.10092e-10
3.10112e-10
3.09571e-10
3.08471e-10
3.06812e-10
3.04601e-10
3.01845e-10
2.98556e-10
2.94746e-10
2.90431e-10
2.85629e-10
2.80361e-10
2.74649e-10
2.68517e-10
2.61994e-10
2.55106e-10
2.47883e-10
2.40358e-10
2.32563e-10
2.24532e-10
2.16298e-10
2.07898e-10
1.99366e-10
1.90739e-10
1.82051e-10
1.73339e-10
1.64636e-10
1.55977e-10
1.47395e-10