/*--------------------------------*- C++ -*----------------------------------*\
| =========                 |                                                 |
| \\      /  F ield         | OpenFOAM: The Open Source CFD Toolbox           |
|  \\    /   O peration     | Version:  v2012                                 |
|   \\  /    A nd           | Website:  www.openfoam.com                      |
|    \\/     M anipulation  |                                                 |
\*---------------------------------------------------------------------------*/
FoamFile
{
    version     2.0;
    format      ascii;
    class       volScalarField;
    location    "12.5";
    object      Psi_z;
}
// * * * * * * * * * * * * * * * * * * * * * * * * * * * * * * * * * * * * * //

dimensions      [0 2 -1 0 0 0 0];


internalField   nonuniform List<scalar> 
65536
(
8.88835e-06
2.66655e-05
4.4444e-05
6.22246e-05
8.00081e-05
9.77955e-05
0.000115587
0.000133385
0.000151188
0.000168999
0.000186817
0.000204644
0.000222479
0.000240324
0.00025818
0.000276046
0.000293923
0.000311812
0.000329713
0.000347626
0.000365552
0.000383491
0.000401442
0.000419407
0.000437384
0.000455374
0.000473377
0.000491392
0.000509419
0.000527457
0.000545507
0.000563566
0.000581634
0.000599712
0.000617796
0.000635887
0.000653982
0.000672082
0.000690183
0.000708284
0.000726385
0.000744481
0.000762573
0.000780656
0.000798729
0.00081679
0.000834835
0.000852861
0.000870867
0.000888847
0.0009068
0.000924721
0.000942606
0.000960453
0.000978256
0.000996011
0.00101371
0.00103136
0.00104895
0.00106646
0.00108391
0.00110128
0.00111857
0.00113577
0.00115287
0.00116988
0.00118678
0.00120356
0.00122023
0.00123677
0.00125318
0.00126945
0.00128557
0.00130154
0.00131734
0.00133298
0.00134845
0.00136373
0.00137881
0.0013937
0.00140838
0.00142285
0.00143709
0.00145111
0.00146488
0.00147841
0.00149169
0.0015047
0.00151744
0.00152991
0.00154209
0.00155397
0.00156556
0.00157684
0.0015878
0.00159844
0.00160875
0.00161873
0.00162836
0.00163764
0.00164657
0.00165514
0.00166335
0.00167118
0.00167863
0.0016857
0.00169238
0.00169868
0.00170458
0.00171008
0.00171518
0.00171987
0.00172416
0.00172804
0.0017315
0.00173456
0.0017372
0.00173942
0.00174123
0.00174262
0.0017436
0.00174416
0.0017443
0.00174404
0.00174336
0.00174227
0.00174077
0.00173887
0.00173657
0.00173387
0.00173077
0.00172729
0.00172341
0.00171915
0.00171451
0.0017095
0.00170412
0.00169838
0.00169228
0.00168583
0.00167903
0.00167189
0.00166441
0.00165661
0.00164849
0.00164005
0.00163131
0.00162226
0.00161292
0.0016033
0.00159339
0.00158321
0.00157277
0.00156206
0.00155111
0.0015399
0.00152847
0.0015168
0.00150491
0.0014928
0.00148049
0.00146797
0.00145526
0.00144236
0.00142928
0.00141602
0.0014026
0.00138901
0.00137527
0.00136138
0.00134735
0.00133318
0.00131888
0.00130445
0.00128991
0.00127525
0.00126049
0.00124562
0.00123065
0.0012156
0.00120045
0.00118522
0.00116992
0.00115454
0.00113909
0.00112358
0.001108
0.00109237
0.00107669
0.00106096
0.00104518
0.00102936
0.0010135
0.000997608
0.000981681
0.000965725
0.000949743
0.000933736
0.000917708
0.000901661
0.000885597
0.000869519
0.000853429
0.000837329
0.00082122
0.000805105
0.000788985
0.000772862
0.000756737
0.000740612
0.000724488
0.000708367
0.000692248
0.000676135
0.000660026
0.000643925
0.00062783
0.000611743
0.000595665
0.000579596
0.000563537
0.000547488
0.00053145
0.000515423
0.000499406
0.000483402
0.000467409
0.000451427
0.000435458
0.0004195
0.000403554
0.000387619
0.000371697
0.000355785
0.000339885
0.000323996
0.000308117
0.000292249
0.000276391
0.000260542
0.000244703
0.000228872
0.00021305
0.000197236
0.000181429
0.000165629
0.000149835
0.000134047
0.000118265
0.000102487
8.67126e-05
7.0942e-05
5.51742e-05
3.94085e-05
2.36445e-05
7.8814e-06
2.66647e-05
7.99955e-05
0.00013333
0.000186671
0.000240021
0.000293382
0.000346757
0.000400149
0.000453559
0.00050699
0.000560444
0.000613922
0.000667428
0.000720963
0.000774529
0.000828127
0.000881758
0.000935425
0.000989127
0.00104287
0.00109664
0.00115046
0.00120431
0.00125821
0.00131214
0.00136611
0.00142012
0.00147417
0.00152825
0.00158236
0.00163651
0.00169069
0.0017449
0.00179913
0.00185338
0.00190766
0.00196195
0.00201624
0.00207055
0.00212486
0.00217916
0.00223345
0.00228773
0.00234198
0.0023962
0.00245039
0.00250452
0.00255861
0.00261263
0.00266657
0.00272043
0.0027742
0.00282786
0.0028814
0.00293482
0.00298809
0.0030412
0.00309415
0.00314691
0.00319947
0.00325181
0.00330393
0.0033558
0.0034074
0.00345872
0.00350974
0.00356044
0.00361081
0.00366081
0.00371044
0.00375968
0.00380849
0.00385686
0.00390478
0.0039522
0.00399913
0.00404552
0.00409137
0.00413664
0.00418131
0.00422536
0.00426877
0.00431151
0.00435356
0.0043949
0.00443549
0.00447532
0.00451437
0.0045526
0.00459
0.00462655
0.00466222
0.00469698
0.00473082
0.00476372
0.00479565
0.00482659
0.00485652
0.00488543
0.00491329
0.00494008
0.00496579
0.00499041
0.0050139
0.00503627
0.00505748
0.00507754
0.00509643
0.00511413
0.00513064
0.00514594
0.00516003
0.00517289
0.00518453
0.00519493
0.00520409
0.005212
0.00521868
0.0052241
0.00522827
0.0052312
0.00523288
0.00523332
0.00523252
0.00523048
0.00522721
0.00522273
0.00521702
0.00521011
0.005202
0.00519271
0.00518224
0.00517061
0.00515783
0.00514391
0.00512888
0.00511273
0.0050955
0.00507719
0.00505782
0.00503742
0.005016
0.00499357
0.00497016
0.00494578
0.00492047
0.00489423
0.00486708
0.00483906
0.00481017
0.00478044
0.00474989
0.00471855
0.00468643
0.00465356
0.00461995
0.00458563
0.00455062
0.00451494
0.00447861
0.00444166
0.0044041
0.00436596
0.00432725
0.004288
0.00424823
0.00420795
0.00416718
0.00412595
0.00408428
0.00404217
0.00399966
0.00395675
0.00391347
0.00386984
0.00382586
0.00378156
0.00373695
0.00369205
0.00364687
0.00360143
0.00355574
0.00350982
0.00346368
0.00341733
0.00337079
0.00332406
0.00327717
0.00323012
0.00318292
0.00313558
0.00308812
0.00304054
0.00299285
0.00294507
0.0028972
0.00284925
0.00280123
0.00275314
0.002705
0.0026568
0.00260857
0.0025603
0.00251199
0.00246366
0.00241532
0.00236696
0.00231859
0.00227021
0.00222183
0.00217346
0.00212509
0.00207674
0.0020284
0.00198007
0.00193176
0.00188348
0.00183522
0.00178698
0.00173878
0.0016906
0.00164245
0.00159434
0.00154625
0.00149821
0.00145019
0.00140221
0.00135427
0.00130636
0.00125849
0.00121065
0.00116285
0.00111508
0.00106734
0.00101964
0.000971976
0.00092434
0.000876736
0.000829162
0.000781617
0.000734099
0.000686608
0.000639142
0.0005917
0.00054428
0.00049688
0.0004495
0.000402137
0.000354789
0.000307456
0.000260134
0.000212823
0.00016552
0.000118224
7.09325e-05
2.36439e-05
4.44398e-05
0.000133322
0.00022221
0.000311109
0.000400022
0.000488955
0.000577911
0.000666894
0.000755908
0.000844957
0.000934045
0.00102317
0.00111235
0.00120157
0.00129085
0.00138017
0.00146956
0.001559
0.0016485
0.00173807
0.0018277
0.00191739
0.00200715
0.00209697
0.00218686
0.00227681
0.00236683
0.0024569
0.00254704
0.00263724
0.00272748
0.00281779
0.00290813
0.00299852
0.00308895
0.00317941
0.0032699
0.0033604
0.00345092
0.00354143
0.00363194
0.00372244
0.0038129
0.00390333
0.00399371
0.00408403
0.00417427
0.00426442
0.00435446
0.00444438
0.00453416
0.00462378
0.00471323
0.00480248
0.00489152
0.00498032
0.00506886
0.00515712
0.00524507
0.00533268
0.00541995
0.00550682
0.00559329
0.00567931
0.00576487
0.00584992
0.00593445
0.00601841
0.00610178
0.00618452
0.00626659
0.00634797
0.00642862
0.0065085
0.00658757
0.0066658
0.00674315
0.00681958
0.00689506
0.00696954
0.00704299
0.00711536
0.00718663
0.00725673
0.00732565
0.00739333
0.00745975
0.00752485
0.0075886
0.00765096
0.00771189
0.00777136
0.00782933
0.00788576
0.00794061
0.00799384
0.00804544
0.00809535
0.00814354
0.00819
0.00823467
0.00827755
0.00831858
0.00835776
0.00839505
0.00843043
0.00846388
0.00849537
0.00852488
0.0085524
0.00857791
0.0086014
0.00862285
0.00864225
0.00865959
0.00867486
0.00868806
0.00869918
0.00870822
0.00871518
0.00872005
0.00872285
0.00872358
0.00872224
0.00871883
0.00871338
0.00870589
0.00869638
0.00868485
0.00867132
0.00865582
0.00863836
0.00861896
0.00859765
0.00857444
0.00854936
0.00852243
0.00849369
0.00846316
0.00843086
0.00839684
0.00836111
0.00832371
0.00828467
0.00824402
0.0082018
0.00815805
0.00811278
0.00806605
0.00801788
0.00796831
0.00791738
0.00786511
0.00781156
0.00775674
0.0077007
0.00764348
0.00758511
0.00752562
0.00746505
0.00740344
0.00734082
0.00727723
0.00721269
0.00714725
0.00708094
0.00701378
0.00694582
0.00687708
0.0068076
0.00673741
0.00666653
0.00659501
0.00652285
0.00645011
0.00637679
0.00630294
0.00622858
0.00615372
0.00607841
0.00600266
0.0059265
0.00584995
0.00577303
0.00569577
0.00561818
0.0055403
0.00546212
0.00538369
0.00530501
0.00522611
0.00514699
0.00506768
0.0049882
0.00490855
0.00482875
0.00474883
0.00466878
0.00458863
0.00450838
0.00442805
0.00434765
0.00426719
0.00418668
0.00410613
0.00402554
0.00394494
0.00386431
0.00378368
0.00370305
0.00362243
0.00354181
0.00346122
0.00338064
0.0033001
0.00321958
0.00313911
0.00305867
0.00297828
0.00289793
0.00281763
0.00273738
0.00265719
0.00257705
0.00249697
0.00241695
0.00233698
0.00225707
0.00217723
0.00209744
0.00201771
0.00193804
0.00185842
0.00177887
0.00169937
0.00161992
0.00154053
0.00146119
0.0013819
0.00130266
0.00122347
0.00114432
0.00106521
0.000986142
0.00090711
0.000828113
0.000749147
0.00067021
0.0005913
0.000512413
0.000433545
0.000354695
0.00027586
0.000197035
0.000118218
3.94054e-05
6.22127e-05
0.000186641
0.000311079
0.000435531
0.000560004
0.000684505
0.000809037
0.000933608
0.00105822
0.00118289
0.0013076
0.00143238
0.00155722
0.00168213
0.00180711
0.00193216
0.0020573
0.00218252
0.00230782
0.00243321
0.00255869
0.00268426
0.00280992
0.00293567
0.00306151
0.00318745
0.00331347
0.00343958
0.00356578
0.00369205
0.00381841
0.00394483
0.00407133
0.00419788
0.00432449
0.00445114
0.00457783
0.00470455
0.00483128
0.00495801
0.00508474
0.00521145
0.00533812
0.00546474
0.00559129
0.00571775
0.0058441
0.00597033
0.00609642
0.00622233
0.00634804
0.00647354
0.0065988
0.00672378
0.00684846
0.00697281
0.0070968
0.00722039
0.00734356
0.00746626
0.00758846
0.00771013
0.00783122
0.00795169
0.00807151
0.00819064
0.00830901
0.00842661
0.00854337
0.00865925
0.0087742
0.00888819
0.00900114
0.00911302
0.00922378
0.00933335
0.0094417
0.00954876
0.00965448
0.00975881
0.00986169
0.00996307
0.0100629
0.0101611
0.0102576
0.0103524
0.0104455
0.0105367
0.010626
0.0107133
0.0107987
0.010882
0.0109632
0.0110423
0.0111191
0.0111937
0.011266
0.0113359
0.0114034
0.0114685
0.0115311
0.0115911
0.0116486
0.0117035
0.0117557
0.0118053
0.0118522
0.0118963
0.0119376
0.0119762
0.0120119
0.0120448
0.0120749
0.012102
0.0121263
0.0121477
0.0121662
0.0121818
0.0121944
0.0122042
0.012211
0.0122149
0.0122159
0.012214
0.0122092
0.0122016
0.0121911
0.0121777
0.0121616
0.0121426
0.0121209
0.0120964
0.0120692
0.0120394
0.0120068
0.0119717
0.011934
0.0118937
0.0118509
0.0118056
0.011758
0.0117079
0.0116555
0.0116008
0.0115438
0.0114847
0.0114234
0.01136
0.0112945
0.011227
0.0111575
0.0110862
0.011013
0.0109379
0.0108611
0.0107826
0.0107025
0.0106207
0.0105374
0.0104525
0.0103662
0.0102785
0.0101894
0.010099
0.0100074
0.00991449
0.00982043
0.00972524
0.00962896
0.00953164
0.00943333
0.00933406
0.00923388
0.00913283
0.00903094
0.00892827
0.00882484
0.00872069
0.00861586
0.00851039
0.00840431
0.00829765
0.00819044
0.00808273
0.00797453
0.00786588
0.00775681
0.00764734
0.00753751
0.00742733
0.00731684
0.00720606
0.007095
0.0069837
0.00687217
0.00676044
0.00664853
0.00653644
0.00642421
0.00631185
0.00619937
0.0060868
0.00597414
0.00586141
0.00574862
0.0056358
0.00552293
0.00541005
0.00529716
0.00518426
0.00507138
0.00495851
0.00484567
0.00473286
0.00462009
0.00450737
0.00439469
0.00428208
0.00416952
0.00405703
0.00394461
0.00383226
0.00371999
0.0036078
0.00349568
0.00338364
0.00327169
0.00315982
0.00304803
0.00293633
0.00282471
0.00271317
0.00260171
0.00249034
0.00237904
0.00226782
0.00215667
0.0020456
0.0019346
0.00182366
0.0017128
0.00160199
0.00149124
0.00138055
0.00126991
0.00115931
0.00104877
0.000938258
0.000827787
0.000717349
0.000606939
0.000496554
0.000386188
0.000275838
0.000165498
5.51653e-05
7.99826e-05
0.000239952
0.000399932
0.000559933
0.00071996
0.000880022
0.00104013
0.00120028
0.00136049
0.00152076
0.0016811
0.00184152
0.00200202
0.00216261
0.0023233
0.00248408
0.00264496
0.00280595
0.00296705
0.00312826
0.00328959
0.00345103
0.00361259
0.00377427
0.00393607
0.00409799
0.00426003
0.00442217
0.00458443
0.00474679
0.00490926
0.00507181
0.00523446
0.00539718
0.00555998
0.00572283
0.00588574
0.00604867
0.00621164
0.0063746
0.00653757
0.0067005
0.00686339
0.00702621
0.00718895
0.00735157
0.00751406
0.0076764
0.00783854
0.00800047
0.00816215
0.00832355
0.00848464
0.00864538
0.00880573
0.00896566
0.00912513
0.00928409
0.00944251
0.00960033
0.00975751
0.00991401
0.0100698
0.0102247
0.0103789
0.0105321
0.0106844
0.0108356
0.0109858
0.0111349
0.0112828
0.0114294
0.0115747
0.0117187
0.0118612
0.0120021
0.0121415
0.0122793
0.0124153
0.0125495
0.0126819
0.0128123
0.0129408
0.0130671
0.0131913
0.0133133
0.013433
0.0135504
0.0136653
0.0137777
0.0138876
0.0139948
0.0140993
0.014201
0.0142999
0.0143958
0.0144888
0.0145788
0.0146657
0.0147495
0.01483
0.0149073
0.0149813
0.0150519
0.0151191
0.0151829
0.0152432
0.0153
0.0153532
0.0154028
0.0154488
0.0154911
0.0155297
0.0155647
0.0155959
0.0156235
0.0156472
0.0156673
0.0156835
0.0156961
0.0157048
0.0157098
0.0157111
0.0157087
0.0157025
0.0156927
0.0156791
0.0156619
0.0156411
0.0156167
0.0155887
0.0155572
0.0155222
0.0154837
0.0154418
0.0153966
0.015348
0.0152962
0.0152411
0.0151828
0.0151215
0.015057
0.0149896
0.0149192
0.0148459
0.0147697
0.0146908
0.0146092
0.0145249
0.0144381
0.0143487
0.0142569
0.0141626
0.0140661
0.0139673
0.0138663
0.0137631
0.0136579
0.0135507
0.0134415
0.0133304
0.0132176
0.013103
0.0129867
0.0128687
0.0127492
0.0126282
0.0125057
0.0123819
0.0122567
0.0121302
0.0120025
0.0118736
0.0117436
0.0116126
0.0114805
0.0113474
0.0112135
0.0110786
0.010943
0.0108065
0.0106693
0.0105314
0.0103929
0.0102537
0.010114
0.00997372
0.00983293
0.00969167
0.00954997
0.00940787
0.00926539
0.00912257
0.00897943
0.00883601
0.00869232
0.00854839
0.00840425
0.00825993
0.00811543
0.0079708
0.00782603
0.00768116
0.0075362
0.00739117
0.00724608
0.00710095
0.0069558
0.00681063
0.00666547
0.00652032
0.00637519
0.00623009
0.00608504
0.00594004
0.0057951
0.00565022
0.00550542
0.0053607
0.00521607
0.00507152
0.00492707
0.00478271
0.00463846
0.00449431
0.00435026
0.00420632
0.00406249
0.00391876
0.00377514
0.00363163
0.00348822
0.00334492
0.00320173
0.00305863
0.00291564
0.00277274
0.00262994
0.00248722
0.0023446
0.00220206
0.0020596
0.00191721
0.0017749
0.00163265
0.00149047
0.00134834
0.00120627
0.00106424
0.000922258
0.00078031
0.000638392
0.000496501
0.000354629
0.000212772
7.0923e-05
9.77485e-05
0.00029325
0.000488767
0.000684307
0.00087988
0.0010755
0.00127116
0.00146689
0.00166269
0.00185857
0.00205453
0.00225058
0.00244674
0.002643
0.00283938
0.00303588
0.00323251
0.00342927
0.00362616
0.00382319
0.00402037
0.00421769
0.00441515
0.00461276
0.00481052
0.00500842
0.00520647
0.00540465
0.00560298
0.00580143
0.00600001
0.00619871
0.00639751
0.00659642
0.00679541
0.00699448
0.0071936
0.00739278
0.00759199
0.0077912
0.00799041
0.00818959
0.00838872
0.00858777
0.00878672
0.00898553
0.00918419
0.00938265
0.00958088
0.00977885
0.00997653
0.0101739
0.0103708
0.0105674
0.0107634
0.010959
0.011154
0.0113483
0.0115421
0.011735
0.0119273
0.0121186
0.0123091
0.0124986
0.0126871
0.0128745
0.0130607
0.0132457
0.0134294
0.0136118
0.0137926
0.013972
0.0141497
0.0143258
0.0145001
0.0146725
0.014843
0.0150115
0.0151779
0.0153421
0.015504
0.0156636
0.0158207
0.0159753
0.0161273
0.0162765
0.016423
0.0165665
0.0167071
0.0168447
0.0169791
0.0171102
0.0172381
0.0173625
0.0174835
0.017601
0.0177148
0.0178248
0.0179312
0.0180336
0.0181322
0.0182267
0.0183173
0.0184037
0.0184859
0.018564
0.0186377
0.0187072
0.0187723
0.018833
0.0188892
0.018941
0.0189883
0.0190311
0.0190693
0.019103
0.019132
0.0191565
0.0191764
0.0191917
0.0192024
0.0192085
0.0192101
0.0192071
0.0191995
0.0191874
0.0191708
0.0191497
0.0191242
0.0190943
0.0190601
0.0190215
0.0189786
0.0189315
0.0188802
0.0188248
0.0187654
0.0187019
0.0186345
0.0185632
0.018488
0.0184091
0.0183266
0.0182404
0.0181507
0.0180575
0.017961
0.0178611
0.017758
0.0176517
0.0175423
0.0174299
0.0173146
0.0171965
0.0170756
0.016952
0.0168258
0.0166971
0.0165659
0.0164323
0.0162965
0.0161584
0.0160182
0.0158759
0.0157316
0.0155855
0.0154374
0.0152876
0.0151361
0.014983
0.0148283
0.0146721
0.0145145
0.0143555
0.0141952
0.0140337
0.013871
0.0137072
0.0135423
0.0133763
0.0132095
0.0130417
0.0128731
0.0127037
0.0125335
0.0123627
0.0121911
0.012019
0.0118463
0.011673
0.0114993
0.0113251
0.0111505
0.0109755
0.0108001
0.0106244
0.0104485
0.0102723
0.0100958
0.00991917
0.00974234
0.00956537
0.00938827
0.00921106
0.00903376
0.0088564
0.008679
0.00850156
0.00832411
0.00814666
0.00796923
0.00779183
0.00761447
0.00743717
0.00725993
0.00708276
0.00690568
0.00672869
0.0065518
0.00637501
0.00619834
0.00602178
0.00584534
0.00566902
0.00549283
0.00531677
0.00514084
0.00496504
0.00478938
0.00461384
0.00443844
0.00426317
0.00408803
0.00391302
0.00373813
0.00356336
0.00338872
0.00321418
0.00303976
0.00286545
0.00269124
0.00251713
0.00234312
0.00216919
0.00199534
0.00182157
0.00164787
0.00147423
0.00130066
0.00112713
0.000953649
0.000780206
0.000606794
0.000433407
0.000260037
8.66779e-05
0.00011551
0.000346535
0.000577577
0.000808648
0.00103976
0.00127092
0.00150214
0.00173344
0.00196481
0.00219628
0.00242786
0.00265954
0.00289135
0.00312328
0.00335535
0.00358757
0.00381993
0.00405245
0.00428513
0.00451798
0.004751
0.00498419
0.00521756
0.0054511
0.00568482
0.00591871
0.00615277
0.006387
0.00662139
0.00685594
0.00709065
0.00732549
0.00756046
0.00779556
0.00803076
0.00826606
0.00850143
0.00873686
0.00897232
0.00920781
0.00944329
0.00967874
0.00991413
0.0101494
0.0103846
0.0106197
0.0108545
0.0110891
0.0113235
0.0115575
0.0117912
0.0120246
0.0122574
0.0124898
0.0127216
0.0129529
0.0131834
0.0134133
0.0136423
0.0138705
0.0140978
0.0143241
0.0145494
0.0147735
0.0149964
0.0152181
0.0154383
0.0156571
0.0158744
0.0160901
0.016304
0.0165161
0.0167264
0.0169346
0.0171408
0.0173448
0.0175465
0.0177458
0.0179427
0.0181369
0.0183285
0.0185173
0.0187032
0.0188861
0.0190659
0.0192425
0.0194158
0.0195857
0.019752
0.0199148
0.0200738
0.020229
0.0203803
0.0205276
0.0206707
0.0208097
0.0209444
0.0210747
0.0212005
0.0213217
0.0214383
0.0215503
0.0216574
0.0217596
0.021857
0.0219493
0.0220366
0.0221188
0.0221958
0.0222676
0.0223342
0.0223955
0.0224514
0.022502
0.0225472
0.022587
0.0226214
0.0226504
0.0226739
0.022692
0.0227046
0.0227118
0.0227136
0.02271
0.022701
0.0226866
0.022667
0.022642
0.0226118
0.0225763
0.0225357
0.02249
0.0224392
0.0223835
0.0223227
0.0222571
0.0221867
0.0221116
0.0220317
0.0219473
0.0218583
0.021765
0.0216672
0.0215652
0.021459
0.0213487
0.0212344
0.0211162
0.0209941
0.0208684
0.0207389
0.0206059
0.0204695
0.0203297
0.0201866
0.0200403
0.019891
0.0197387
0.0195835
0.0194254
0.0192647
0.0191013
0.0189355
0.0187671
0.0185965
0.0184235
0.0182484
0.0180712
0.017892
0.0177109
0.0175279
0.0173432
0.0171567
0.0169687
0.0167791
0.0165881
0.0163956
0.0162019
0.0160069
0.0158107
0.0156134
0.015415
0.0152156
0.0150153
0.014814
0.014612
0.0144092
0.0142056
0.0140014
0.0137966
0.0135911
0.0133852
0.0131787
0.0129718
0.0127645
0.0125568
0.0123488
0.0121405
0.0119319
0.0117231
0.011514
0.0113048
0.0110955
0.010886
0.0106764
0.0104668
0.0102571
0.0100473
0.00983759
0.00962784
0.00941812
0.00920843
0.0089988
0.00878923
0.00857974
0.00837035
0.00816105
0.00795186
0.00774279
0.00753385
0.00732504
0.00711637
0.00690784
0.00669946
0.00649123
0.00628315
0.00607523
0.00586747
0.00565986
0.00545242
0.00524513
0.00503799
0.00483101
0.00462418
0.0044175
0.00421097
0.00400457
0.00379832
0.0035922
0.0033862
0.00318033
0.00297458
0.00276893
0.00256339
0.00235795
0.0021526
0.00194733
0.00174214
0.00153702
0.00133196
0.00112695
0.000921987
0.000717063
0.000512167
0.000307292
0.000102429
0.000133265
0.000399802
0.000666359
0.000932949
0.00119959
0.00146628
0.00173305
0.0019999
0.00226685
0.0025339
0.00280108
0.00306838
0.00333582
0.00360342
0.00387117
0.0041391
0.00440719
0.00467547
0.00494394
0.00521261
0.00548147
0.00575053
0.0060198
0.00628927
0.00655894
0.00682882
0.0070989
0.00736918
0.00763965
0.00791031
0.00818114
0.00845214
0.0087233
0.0089946
0.00926602
0.00953756
0.00980919
0.0100809
0.0103526
0.0106244
0.0108962
0.0111679
0.0114396
0.0117112
0.0119827
0.012254
0.012525
0.0127959
0.0130664
0.0133366
0.0136064
0.0138757
0.0141445
0.0144128
0.0146804
0.0149474
0.0152136
0.015479
0.0157434
0.0160069
0.0162694
0.0165307
0.0167908
0.0170496
0.0173071
0.017563
0.0178174
0.0180701
0.018321
0.0185701
0.0188172
0.0190622
0.019305
0.0195456
0.0197837
0.0200194
0.0202524
0.0204826
0.02071
0.0209345
0.0211558
0.0213739
0.0215887
0.0218
0.0220078
0.0222118
0.022412
0.0226083
0.0228005
0.0229886
0.0231724
0.0233517
0.0235265
0.0236967
0.0238622
0.0240227
0.0241784
0.0243289
0.0244743
0.0246145
0.0247492
0.0248786
0.0250023
0.0251205
0.025233
0.0253397
0.0254406
0.0255356
0.0256246
0.0257075
0.0257845
0.0258552
0.0259199
0.0259783
0.0260305
0.0260765
0.0261162
0.0261497
0.0261768
0.0261976
0.0262122
0.0262205
0.0262225
0.0262183
0.0262078
0.0261912
0.0261684
0.0261395
0.0261045
0.0260635
0.0260165
0.0259636
0.0259049
0.0258404
0.0257701
0.0256943
0.0256128
0.0255259
0.0254336
0.025336
0.0252331
0.0251251
0.0250121
0.0248942
0.0247714
0.0246439
0.0245118
0.0243752
0.0242341
0.0240887
0.0239391
0.0237854
0.0236277
0.0234661
0.0233008
0.0231318
0.0229592
0.0227832
0.0226038
0.0224213
0.0222356
0.0220468
0.0218552
0.0216607
0.0214636
0.0212638
0.0210615
0.0208568
0.0206498
0.0204406
0.0202293
0.0200159
0.0198006
0.0195834
0.0193645
0.0191438
0.0189216
0.0186979
0.0184727
0.0182461
0.0180183
0.0177892
0.017559
0.0173277
0.0170954
0.0168621
0.0166279
0.0163929
0.0161572
0.0159207
0.0156835
0.0154458
0.0152075
0.0149686
0.0147293
0.0144896
0.0142494
0.014009
0.0137682
0.0135272
0.0132859
0.0130445
0.0128028
0.0125611
0.0123192
0.0120772
0.0118352
0.0115931
0.0113511
0.011109
0.010867
0.010625
0.0103831
0.0101412
0.00989947
0.00965783
0.00941631
0.00917491
0.00893366
0.00869255
0.0084516
0.00821081
0.00797019
0.00772974
0.00748947
0.00724938
0.00700947
0.00676974
0.00653019
0.00629083
0.00605165
0.00581266
0.00557384
0.0053352
0.00509673
0.00485843
0.0046203
0.00438232
0.0041445
0.00390683
0.0036693
0.00343191
0.00319464
0.0029575
0.00272047
0.00248354
0.00224672
0.00200998
0.00177332
0.00153673
0.00130021
0.00106373
0.000827302
0.000590906
0.000354534
0.000118176
0.000151014
0.00045305
0.000755108
0.0010572
0.00135935
0.00166157
0.00196387
0.00226626
0.00256877
0.0028714
0.00317416
0.00347708
0.00378015
0.0040834
0.00438683
0.00469045
0.00499427
0.00529831
0.00560256
0.00590703
0.00621173
0.00651666
0.00682182
0.00712723
0.00743286
0.00773873
0.00804484
0.00835117
0.00865772
0.00896449
0.00927147
0.00957864
0.00988599
0.0101935
0.0105012
0.010809
0.0111169
0.0114249
0.0117329
0.012041
0.0123491
0.0126572
0.0129652
0.0132731
0.0135809
0.0138885
0.0141958
0.0145029
0.0148096
0.015116
0.0154219
0.0157273
0.0160322
0.0163364
0.0166399
0.0169427
0.0172446
0.0175456
0.0178455
0.0181444
0.0184421
0.0187385
0.0190335
0.0193271
0.0196192
0.0199095
0.0201981
0.0204848
0.0207695
0.0210521
0.0213324
0.0216104
0.021886
0.0221589
0.0224292
0.0226966
0.022961
0.0232223
0.0234804
0.0237351
0.0239863
0.0242339
0.0244776
0.0247175
0.0249533
0.0251849
0.0254122
0.025635
0.0258532
0.0260667
0.0262753
0.0264789
0.0266774
0.0268706
0.0270584
0.0272408
0.0274174
0.0275884
0.0277534
0.0279125
0.0280656
0.0282124
0.0283529
0.0284871
0.0286148
0.028736
0.0288505
0.0289583
0.0290593
0.0291535
0.0292408
0.0293212
0.0293945
0.0294609
0.0295201
0.0295723
0.0296173
0.0296552
0.029686
0.0297096
0.0297261
0.0297355
0.0297377
0.0297328
0.0297209
0.0297019
0.029676
0.0296431
0.0296033
0.0295567
0.0295032
0.0294431
0.0293763
0.029303
0.0292232
0.0291369
0.0290444
0.0289456
0.0288407
0.0287298
0.028613
0.0284903
0.028362
0.028228
0.0280886
0.0279438
0.0277937
0.0276385
0.0274783
0.0273132
0.0271434
0.0269688
0.0267898
0.0266064
0.0264186
0.0262268
0.0260309
0.0258311
0.0256275
0.0254202
0.0252094
0.0249952
0.0247777
0.024557
0.0243333
0.0241066
0.023877
0.0236448
0.0234099
0.0231725
0.0229327
0.0226906
0.0224463
0.0221999
0.0219515
0.0217012
0.0214491
0.0211953
0.0209399
0.0206829
0.0204244
0.0201646
0.0199035
0.0196411
0.0193777
0.0191131
0.0188475
0.018581
0.0183137
0.0180455
0.0177766
0.0175069
0.0172367
0.0169659
0.0166945
0.0164227
0.0161504
0.0158778
0.0156048
0.0153315
0.015058
0.0147842
0.0145103
0.0142362
0.013962
0.0136877
0.0134133
0.0131389
0.0128645
0.0125901
0.0123158
0.0120415
0.0117672
0.0114931
0.0112191
0.0109452
0.0106714
0.0103978
0.0101244
0.0098511
0.009578
0.00930509
0.00903237
0.00875985
0.00848753
0.00821542
0.00794352
0.00767182
0.00740034
0.00712907
0.006858
0.00658714
0.00631649
0.00604604
0.00577579
0.00550573
0.00523586
0.00496617
0.00469666
0.00442731
0.00415813
0.00388911
0.00362023
0.00335149
0.00308288
0.00281439
0.00254601
0.00227774
0.00200955
0.00174144
0.00147341
0.00120543
0.000937508
0.000669621
0.000401762
0.000133919
0.000168755
0.000506274
0.000843819
0.00118141
0.00151905
0.00185678
0.00219459
0.00253252
0.00287057
0.00320876
0.0035471
0.00388561
0.00422431
0.0045632
0.00490229
0.00524161
0.00558115
0.00592092
0.00626095
0.00660122
0.00694176
0.00728256
0.00762362
0.00796495
0.00830655
0.00864841
0.00899055
0.00933294
0.00967558
0.0100185
0.0103616
0.0107049
0.0110485
0.0113923
0.0117362
0.0120803
0.0124245
0.0127688
0.0131132
0.0134576
0.0138021
0.0141465
0.0144909
0.0148352
0.0151793
0.0155232
0.0158669
0.0162103
0.0165533
0.0168959
0.017238
0.0175796
0.0179205
0.0182607
0.0186002
0.0189388
0.0192765
0.0196132
0.0199487
0.020283
0.0206161
0.0209477
0.0212777
0.0216062
0.0219329
0.0222578
0.0225807
0.0229015
0.02322
0.0235363
0.02385
0.0241611
0.0244695
0.024775
0.0250775
0.0253768
0.0256727
0.0259652
0.0262541
0.0265392
0.0268204
0.0270976
0.0273705
0.027639
0.027903
0.0281623
0.0284168
0.0286663
0.0289106
0.0291497
0.0293833
0.0296113
0.0298335
0.0300499
0.0302602
0.0304644
0.0306623
0.0308537
0.0310385
0.0312167
0.0313881
0.0315525
0.0317099
0.0318602
0.0320032
0.0321388
0.0322671
0.0323878
0.0325009
0.0326064
0.0327041
0.0327941
0.0328762
0.0329505
0.0330168
0.0330752
0.0331256
0.033168
0.0332023
0.0332287
0.0332471
0.0332575
0.0332599
0.0332544
0.033241
0.0332197
0.0331905
0.0331536
0.0331089
0.0330566
0.0329967
0.0329292
0.0328543
0.0327721
0.0326826
0.0325859
0.0324822
0.0323715
0.0322539
0.0321296
0.0319987
0.0318613
0.0317174
0.0315673
0.0314111
0.0312489
0.0310808
0.0309069
0.0307275
0.0305425
0.0303523
0.0301568
0.0299563
0.0297509
0.0295406
0.0293258
0.0291064
0.0288827
0.0286548
0.0284227
0.0281867
0.0279469
0.0277035
0.0274564
0.0272059
0.0269522
0.0266953
0.0264353
0.0261724
0.0259067
0.0256384
0.0253675
0.0250941
0.0248184
0.0245405
0.0242604
0.0239784
0.0236944
0.0234086
0.0231211
0.022832
0.0225413
0.0222492
0.0219557
0.021661
0.0213651
0.0210681
0.02077
0.0204709
0.020171
0.0198703
0.0195687
0.0192665
0.0189636
0.0186602
0.0183562
0.0180518
0.0177469
0.0174417
0.0171361
0.0168303
0.0165242
0.0162179
0.0159115
0.0156049
0.0152982
0.0149915
0.0146847
0.014378
0.0140712
0.0137645
0.0134579
0.0131513
0.0128449
0.0125386
0.0122324
0.0119264
0.0116206
0.0113149
0.0110095
0.0107042
0.0103992
0.0100944
0.00978976
0.00948539
0.00918126
0.00887736
0.0085737
0.00827028
0.00796709
0.00766414
0.00736143
0.00705894
0.00675669
0.00645465
0.00615284
0.00585124
0.00554984
0.00524864
0.00494764
0.00464681
0.00434617
0.00404568
0.00374536
0.00344517
0.00314513
0.00284521
0.0025454
0.0022457
0.00194608
0.00164655
0.00134709
0.00104768
0.000748309
0.000448973
0.000149656
0.000186488
0.000559473
0.000932487
0.00130555
0.00167868
0.00205189
0.00242521
0.00279865
0.00317223
0.00354596
0.00391987
0.00429397
0.00466827
0.00504279
0.00541754
0.00579253
0.00616778
0.0065433
0.00691909
0.00729516
0.00767152
0.00804818
0.00842514
0.0088024
0.00917997
0.00955783
0.00993599
0.0103144
0.0106932
0.0110722
0.0114515
0.0118311
0.0122108
0.0125908
0.0129711
0.0133514
0.013732
0.0141126
0.0144934
0.0148742
0.0152551
0.0156359
0.0160167
0.0163974
0.0167779
0.0171582
0.0175383
0.017918
0.0182973
0.0186762
0.0190546
0.0194324
0.0198095
0.0201858
0.0205613
0.0209359
0.0213095
0.0216819
0.0220531
0.022423
0.0227914
0.0231583
0.0235236
0.023887
0.0242485
0.024608
0.0249654
0.0253204
0.025673
0.0260229
0.0263702
0.0267146
0.0270559
0.0273941
0.0277289
0.0280603
0.0283879
0.0287118
0.0290316
0.0293473
0.0296587
0.0299655
0.0302677
0.0305651
0.0308575
0.0311446
0.0314265
0.0317028
0.0319734
0.0322381
0.0324968
0.0327494
0.0329955
0.0332352
0.0334682
0.0336943
0.0339135
0.0341255
0.0343303
0.0345277
0.0347175
0.0348997
0.035074
0.0352404
0.0353989
0.0355491
0.0356912
0.0358249
0.0359502
0.036067
0.0361753
0.0362749
0.0363658
0.036448
0.0365214
0.036586
0.0366418
0.0366887
0.0367267
0.0367559
0.0367761
0.0367876
0.0367902
0.0367839
0.036769
0.0367452
0.0367128
0.0366718
0.0366222
0.0365641
0.0364976
0.0364228
0.0363397
0.0362485
0.0361492
0.036042
0.035927
0.0358042
0.0356739
0.0355361
0.0353909
0.0352386
0.0350792
0.0349128
0.0347396
0.0345599
0.0343736
0.0341809
0.0339821
0.0337772
0.0335664
0.0333498
0.0331277
0.0329001
0.0326673
0.0324293
0.0321864
0.0319386
0.0316861
0.0314292
0.0311679
0.0309023
0.0306327
0.0303592
0.0300819
0.029801
0.0295165
0.0292288
0.0289378
0.0286437
0.0283466
0.0280468
0.0277442
0.0274391
0.0271315
0.0268216
0.0265095
0.0261953
0.025879
0.0255609
0.025241
0.0249194
0.0245963
0.0242716
0.0239456
0.0236182
0.0232896
0.0229599
0.0226291
0.0222974
0.0219647
0.0216312
0.021297
0.020962
0.0206264
0.0202903
0.0199536
0.0196165
0.0192789
0.018941
0.0186028
0.0182644
0.0179257
0.0175869
0.0172479
0.0169089
0.0165697
0.0162306
0.0158914
0.0155523