/*--------------------------------*- C++ -*----------------------------------*\
| =========                 |                                                 |
| \\      /  F ield         | OpenFOAM: The Open Source CFD Toolbox           |
|  \\    /   O peration     | Version:  v2012                                 |
|   \\  /    A nd           | Website:  www.openfoam.com                      |
|    \\/     M anipulation  |                                                 |
\*---------------------------------------------------------------------------*/
FoamFile
{
    version     2.0;
    format      ascii;
    class       volVectorField;
    location    "12.5";
    object      U;
}
// * * * * * * * * * * * * * * * * * * * * * * * * * * * * * * * * * * * * * //

dimensions      [0 1 -1 0 0 0 0];


internalField   nonuniform List<vector> 
65536
(
(0.000725442 -0.000725458 0)
(0.00217636 -0.000725493 0)
(0.00362738 -0.000725562 0)
(0.00507858 -0.000725664 0)
(0.00653001 -0.0007258 0)
(0.00798174 -0.000725969 0)
(0.00943385 -0.00072617 0)
(0.0108864 -0.000726403 0)
(0.0123394 -0.000726666 0)
(0.013793 -0.000726959 0)
(0.0152472 -0.00072728 0)
(0.0167021 -0.000727628 0)
(0.0181577 -0.000728002 0)
(0.0196141 -0.000728399 0)
(0.0210713 -0.000728818 0)
(0.0225294 -0.000729257 0)
(0.0239883 -0.000729714 0)
(0.0254482 -0.000730187 0)
(0.0269091 -0.000730674 0)
(0.0283709 -0.000731171 0)
(0.0298337 -0.000731677 0)
(0.0312976 -0.000732188 0)
(0.0327625 -0.000732701 0)
(0.0342284 -0.000733214 0)
(0.0356954 -0.000733723 0)
(0.0371633 -0.000734225 0)
(0.0386323 -0.000734715 0)
(0.0401022 -0.000735191 0)
(0.041573 -0.000735648 0)
(0.0430448 -0.000736083 0)
(0.0445174 -0.00073649 0)
(0.0459908 -0.000736867 0)
(0.0474649 -0.000737207 0)
(0.0489397 -0.000737507 0)
(0.050415 -0.000737761 0)
(0.0518908 -0.000737965 0)
(0.0533669 -0.000738113 0)
(0.0548433 -0.0007382 0)
(0.0563198 -0.000738221 0)
(0.0577962 -0.000738169 0)
(0.0592725 -0.000738039 0)
(0.0607485 -0.000737826 0)
(0.0622239 -0.000737522 0)
(0.0636987 -0.000737123 0)
(0.0651725 -0.00073662 0)
(0.0666453 -0.000736009 0)
(0.0681167 -0.000735282 0)
(0.0695865 -0.000734432 0)
(0.0710545 -0.000733454 0)
(0.0725205 -0.000732339 0)
(0.073984 -0.000731081 0)
(0.0754449 -0.000729673 0)
(0.0769029 -0.000728108 0)
(0.0783575 -0.000726378 0)
(0.0798086 -0.000724477 0)
(0.0812556 -0.000722397 0)
(0.0826983 -0.00072013 0)
(0.0841363 -0.00071767 0)
(0.0855692 -0.000715009 0)
(0.0869966 -0.000712141 0)
(0.088418 -0.000709057 0)
(0.089833 -0.00070575 0)
(0.0912412 -0.000702215 0)
(0.0926421 -0.000698443 0)
(0.0940352 -0.000694427 0)
(0.0954201 -0.000690163 0)
(0.0967961 -0.000685641 0)
(0.0981629 -0.000680858 0)
(0.0995198 -0.000675805 0)
(0.100866 -0.000670478 0)
(0.102202 -0.00066487 0)
(0.103526 -0.000658977 0)
(0.104838 -0.000652793 0)
(0.106138 -0.000646313 0)
(0.107424 -0.000639533 0)
(0.108696 -0.000632449 0)
(0.109954 -0.000625058 0)
(0.111197 -0.000617355 0)
(0.112424 -0.000609338 0)
(0.113634 -0.000601004 0)
(0.114828 -0.000592352 0)
(0.116004 -0.00058338 0)
(0.117162 -0.000574087 0)
(0.118301 -0.000564473 0)
(0.11942 -0.000554537 0)
(0.120519 -0.000544281 0)
(0.121597 -0.000533704 0)
(0.122654 -0.00052281 0)
(0.123689 -0.0005116 0)
(0.124701 -0.000500077 0)
(0.12569 -0.000488244 0)
(0.126654 -0.000476106 0)
(0.127594 -0.000463668 0)
(0.128509 -0.000450934 0)
(0.129398 -0.00043791 0)
(0.130261 -0.000424604 0)
(0.131097 -0.000411021 0)
(0.131905 -0.000397169 0)
(0.132686 -0.000383057 0)
(0.133438 -0.000368694 0)
(0.134161 -0.000354087 0)
(0.134855 -0.000339249 0)
(0.135518 -0.000324188 0)
(0.136151 -0.000308915 0)
(0.136754 -0.000293442 0)
(0.137325 -0.00027778 0)
(0.137865 -0.000261941 0)
(0.138373 -0.000245938 0)
(0.138849 -0.000229784 0)
(0.139293 -0.000213492 0)
(0.139703 -0.000197074 0)
(0.140081 -0.000180546 0)
(0.140426 -0.00016392 0)
(0.140737 -0.000147211 0)
(0.141015 -0.000130432 0)
(0.141259 -0.000113599 0)
(0.141469 -9.67259e-05 0)
(0.141646 -7.98266e-05 0)
(0.141788 -6.29159e-05 0)
(0.141897 -4.60082e-05 0)
(0.141972 -2.91179e-05 0)
(0.142014 -1.22591e-05 0)
(0.142021 4.55398e-06 0)
(0.141995 2.13075e-05 0)
(0.141936 3.79876e-05 0)
(0.141843 5.45809e-05 0)
(0.141718 7.10742e-05 0)
(0.141559 8.74545e-05 0)
(0.141368 0.000103709 0)
(0.141144 0.000119826 0)
(0.140888 0.000135794 0)
(0.140601 0.0001516 0)
(0.140282 0.000167234 0)
(0.139931 0.000182685 0)
(0.139551 0.000197943 0)
(0.139139 0.000212999 0)
(0.138698 0.000227843 0)
(0.138228 0.000242466 0)
(0.137728 0.00025686 0)
(0.1372 0.000271018 0)
(0.136644 0.000284933 0)
(0.13606 0.000298597 0)
(0.135449 0.000312005 0)
(0.134812 0.000325151 0)
(0.134148 0.00033803 0)
(0.13346 0.000350637 0)
(0.132746 0.000362969 0)
(0.132007 0.000375021 0)
(0.131245 0.000386791 0)
(0.13046 0.000398276 0)
(0.129652 0.000409475 0)
(0.128822 0.000420385 0)
(0.12797 0.000431006 0)
(0.127097 0.000441336 0)
(0.126204 0.000451376 0)
(0.125292 0.000461125 0)
(0.12436 0.000470585 0)
(0.123409 0.000479756 0)
(0.12244 0.00048864 0)
(0.121454 0.000497238 0)
(0.120451 0.000505552 0)
(0.119432 0.000513585 0)
(0.118396 0.000521339 0)
(0.117346 0.000528818 0)
(0.116281 0.000536024 0)
(0.115202 0.000542961 0)
(0.114109 0.000549633 0)
(0.113003 0.000556043 0)
(0.111884 0.000562197 0)
(0.110754 0.000568097 0)
(0.109612 0.000573749 0)
(0.108459 0.000579158 0)
(0.107295 0.000584327 0)
(0.106121 0.000589263 0)
(0.104938 0.00059397 0)
(0.103745 0.000598453 0)
(0.102544 0.000602717 0)
(0.101334 0.000606768 0)
(0.100116 0.000610612 0)
(0.0988912 0.000614253 0)
(0.0976591 0.000617697 0)
(0.0964202 0.000620949 0)
(0.0951751 0.000624016 0)
(0.093924 0.000626902 0)
(0.0926673 0.000629613 0)
(0.0914054 0.000632155 0)
(0.0901385 0.000634532 0)
(0.0888671 0.000636751 0)
(0.0875914 0.000638817 0)
(0.0863117 0.000640736 0)
(0.0850283 0.000642512 0)
(0.0837415 0.00064415 0)
(0.0824516 0.000645657 0)
(0.0811587 0.000647037 0)
(0.0798633 0.000648296 0)
(0.0785654 0.000649437 0)
(0.0772654 0.000650467 0)
(0.0759635 0.000651391 0)
(0.0746598 0.000652212 0)
(0.0733545 0.000652936 0)
(0.0720479 0.000653567 0)
(0.0707402 0.00065411 0)
(0.0694314 0.000654569 0)
(0.0681218 0.000654948 0)
(0.0668116 0.000655253 0)
(0.0655007 0.000655486 0)
(0.0641895 0.000655653 0)
(0.0628781 0.000655756 0)
(0.0615665 0.000655801 0)
(0.0602548 0.00065579 0)
(0.0589433 0.000655727 0)
(0.0576319 0.000655616 0)
(0.0563207 0.000655461 0)
(0.05501 0.000655264 0)
(0.0536997 0.000655029 0)
(0.0523898 0.00065476 0)
(0.0510806 0.000654459 0)
(0.049772 0.000654129 0)
(0.048464 0.000653773 0)
(0.0471569 0.000653395 0)
(0.0458504 0.000652996 0)
(0.0445449 0.00065258 0)
(0.0432401 0.000652148 0)
(0.0419363 0.000651705 0)
(0.0406333 0.00065125 0)
(0.0393312 0.000650788 0)
(0.0380301 0.000650321 0)
(0.03673 0.000649849 0)
(0.0354307 0.000649376 0)
(0.0341325 0.000648903 0)
(0.0328351 0.000648433 0)
(0.0315387 0.000647966 0)
(0.0302433 0.000647506 0)
(0.0289487 0.000647052 0)
(0.0276551 0.000646608 0)
(0.0263623 0.000646173 0)
(0.0250704 0.000645751 0)
(0.0237793 0.000645342 0)
(0.022489 0.000644947 0)
(0.0211995 0.000644567 0)
(0.0199108 0.000644205 0)
(0.0186227 0.00064386 0)
(0.0173354 0.000643533 0)
(0.0160486 0.000643226 0)
(0.0147625 0.00064294 0)
(0.0134769 0.000642675 0)
(0.0121918 0.000642432 0)
(0.0109072 0.000642211 0)
(0.009623 0.000642013 0)
(0.00833917 0.000641839 0)
(0.00705567 0.000641689 0)
(0.00577244 0.000641564 0)
(0.00448944 0.000641462 0)
(0.00320662 0.000641387 0)
(0.00192392 0.000641336 0)
(0.000641298 0.000641311 0)
(0.000725409 -0.00217634 0)
(0.00217626 -0.00217645 0)
(0.00362721 -0.00217665 0)
(0.00507834 -0.00217696 0)
(0.00652971 -0.00217737 0)
(0.00798138 -0.00217788 0)
(0.00943343 -0.00217848 0)
(0.0108859 -0.00217918 0)
(0.0123389 -0.00217997 0)
(0.0137924 -0.00218085 0)
(0.0152466 -0.00218182 0)
(0.0167014 -0.00218286 0)
(0.018157 -0.00218398 0)
(0.0196133 -0.00218518 0)
(0.0210705 -0.00218644 0)
(0.0225285 -0.00218776 0)
(0.0239874 -0.00218913 0)
(0.0254473 -0.00219055 0)
(0.0269081 -0.00219201 0)
(0.0283699 -0.00219351 0)
(0.0298327 -0.00219503 0)
(0.0312966 -0.00219656 0)
(0.0327615 -0.00219811 0)
(0.0342274 -0.00219965 0)
(0.0356944 -0.00220118 0)
(0.0371623 -0.00220269 0)
(0.0386313 -0.00220416 0)
(0.0401013 -0.00220559 0)
(0.0415722 -0.00220697 0)
(0.043044 -0.00220828 0)
(0.0445166 -0.0022095 0)
(0.0459901 -0.00221064 0)
(0.0474643 -0.00221166 0)
(0.0489391 -0.00221257 0)
(0.0504145 -0.00221333 0)
(0.0518904 -0.00221395 0)
(0.0533667 -0.0022144 0)
(0.0548432 -0.00221467 0)
(0.0563198 -0.00221473 0)
(0.0577964 -0.00221459 0)
(0.0592729 -0.0022142 0)
(0.060749 -0.00221357 0)
(0.0622246 -0.00221266 0)
(0.0636996 -0.00221147 0)
(0.0651736 -0.00220997 0)
(0.0666466 -0.00220814 0)
(0.0681183 -0.00220597 0)
(0.0695884 -0.00220343 0)
(0.0710566 -0.0022005 0)
(0.0725228 -0.00219716 0)
(0.0739867 -0.00219339 0)
(0.0754479 -0.00218918 0)
(0.0769062 -0.00218449 0)
(0.0783612 -0.00217931 0)
(0.0798126 -0.00217361 0)
(0.08126 -0.00216738 0)
(0.0827031 -0.00216058 0)
(0.0841415 -0.00215321 0)
(0.0855748 -0.00214524 0)
(0.0870025 -0.00213664 0)
(0.0884244 -0.00212739 0)
(0.0898399 -0.00211748 0)
(0.0912485 -0.00210688 0)
(0.0926499 -0.00209557 0)
(0.0940435 -0.00208353 0)
(0.0954289 -0.00207074 0)
(0.0968055 -0.00205719 0)
(0.0981727 -0.00204284 0)
(0.0995302 -0.00202769 0)
(0.100877 -0.00201171 0)
(0.102214 -0.00199489 0)
(0.103538 -0.00197722 0)
(0.104851 -0.00195867 0)
(0.106151 -0.00193924 0)
(0.107438 -0.0019189 0)
(0.108711 -0.00189765 0)
(0.109969 -0.00187548 0)
(0.111212 -0.00185238 0)
(0.11244 -0.00182833 0)
(0.113651 -0.00180333 0)
(0.114846 -0.00177737 0)
(0.116022 -0.00175046 0)
(0.117181 -0.00172258 0)
(0.11832 -0.00169374 0)
(0.11944 -0.00166393 0)
(0.12054 -0.00163316 0)
(0.121619 -0.00160143 0)
(0.122676 -0.00156874 0)
(0.123712 -0.00153511 0)
(0.124724 -0.00150054 0)
(0.125714 -0.00146504 0)
(0.126679 -0.00142862 0)
(0.127619 -0.0013913 0)
(0.128535 -0.00135309 0)
(0.129425 -0.00131401 0)
(0.130288 -0.00127408 0)
(0.131124 -0.00123333 0)
(0.131933 -0.00119177 0)
(0.132714 -0.00114942 0)
(0.133467 -0.00110632 0)
(0.13419 -0.00106249 0)
(0.134884 -0.00101797 0)
(0.135549 -0.000972772 0)
(0.136182 -0.000926942 0)
(0.136785 -0.000880511 0)
(0.137357 -0.000833513 0)
(0.137897 -0.000785985 0)
(0.138406 -0.000737964 0)
(0.138882 -0.000689489 0)
(0.139325 -0.000640598 0)
(0.139736 -0.000591332 0)
(0.140114 -0.000541732 0)
(0.140459 -0.00049184 0)
(0.14077 -0.000441698 0)
(0.141048 -0.000391349 0)
(0.141292 -0.000340835 0)
(0.141503 -0.000290201 0)
(0.141679 -0.000239489 0)
(0.141822 -0.000188742 0)
(0.141931 -0.000138005 0)
(0.142006 -8.73197e-05 0)
(0.142047 -3.67293e-05 0)
(0.142055 1.37239e-05 0)
(0.142029 6.39981e-05 0)
(0.141969 0.000114052 0)
(0.141876 0.000163845 0)
(0.14175 0.000213338 0)
(0.141591 0.000262491 0)
(0.1414 0.000311268 0)
(0.141176 0.000359631 0)
(0.14092 0.000407544 0)
(0.140632 0.000454973 0)
(0.140313 0.000501886 0)
(0.139962 0.00054825 0)
(0.139581 0.000594034 0)
(0.139169 0.00063921 0)
(0.138728 0.00068375 0)
(0.138257 0.000727628 0)
(0.137757 0.000770819 0)
(0.137228 0.000813301 0)
(0.136672 0.000855051 0)
(0.136087 0.000896049 0)
(0.135476 0.000936279 0)
(0.134838 0.000975721 0)
(0.134174 0.00101436 0)
(0.133484 0.00105219 0)
(0.13277 0.00108919 0)
(0.132031 0.00112535 0)
(0.131268 0.00116066 0)
(0.130483 0.00119512 0)
(0.129674 0.00122871 0)
(0.128843 0.00126145 0)
(0.127991 0.00129331 0)
(0.127118 0.0013243 0)
(0.126224 0.00135442 0)
(0.125311 0.00138367 0)
(0.124378 0.00141204 0)
(0.123427 0.00143956 0)
(0.122458 0.00146621 0)
(0.121471 0.001492 0)
(0.120467 0.00151694 0)
(0.119447 0.00154103 0)
(0.118412 0.00156429 0)
(0.117361 0.00158673 0)
(0.116295 0.00160834 0)
(0.115215 0.00162915 0)
(0.114122 0.00164916 0)
(0.113015 0.00166839 0)
(0.111896 0.00168684 0)
(0.110765 0.00170454 0)
(0.109623 0.00172149 0)
(0.108469 0.00173771 0)
(0.107305 0.00175322 0)
(0.106131 0.00176802 0)
(0.104947 0.00178213 0)
(0.103754 0.00179558 0)
(0.102552 0.00180836 0)
(0.101342 0.00182051 0)
(0.100124 0.00183204 0)
(0.0988982 0.00184295 0)
(0.0976657 0.00185328 0)
(0.0964265 0.00186303 0)
(0.095181 0.00187223 0)
(0.0939295 0.00188088 0)
(0.0926725 0.00188901 0)
(0.0914102 0.00189663 0)
(0.0901431 0.00190375 0)
(0.0888713 0.00191041 0)
(0.0875953 0.0019166 0)
(0.0863153 0.00192235 0)
(0.0850316 0.00192767 0)
(0.0837446 0.00193258 0)
(0.0824544 0.0019371 0)
(0.0811613 0.00194123 0)
(0.0798656 0.001945 0)
(0.0785676 0.00194842 0)
(0.0772673 0.00195151 0)
(0.0759652 0.00195427 0)
(0.0746613 0.00195673 0)
(0.0733558 0.0019589 0)
(0.0720491 0.00196079 0)
(0.0707411 0.00196241 0)
(0.0694322 0.00196378 0)
(0.0681225 0.00196492 0)
(0.066812 0.00196583 0)
(0.0655011 0.00196652 0)
(0.0641898 0.00196702 0)
(0.0628782 0.00196733 0)
(0.0615664 0.00196746 0)
(0.0602547 0.00196742 0)
(0.058943 0.00196723 0)
(0.0576316 0.00196689 0)
(0.0563203 0.00196642 0)
(0.0550095 0.00196583 0)
(0.0536991 0.00196512 0)
(0.0523892 0.00196431 0)
(0.0510799 0.0019634 0)
(0.0497712 0.00196241 0)
(0.0484633 0.00196134 0)
(0.047156 0.0019602 0)
(0.0458496 0.001959 0)
(0.044544 0.00195775 0)
(0.0432392 0.00195646 0)
(0.0419353 0.00195512 0)
(0.0406323 0.00195376 0)
(0.0393303 0.00195237 0)
(0.0380292 0.00195096 0)
(0.036729 0.00194955 0)
(0.0354298 0.00194813 0)
(0.0341315 0.00194671 0)
(0.0328342 0.00194529 0)
(0.0315378 0.00194389 0)
(0.0302423 0.00194251 0)
(0.0289478 0.00194115 0)
(0.0276542 0.00193981 0)
(0.0263614 0.00193851 0)
(0.0250695 0.00193724 0)
(0.0237785 0.00193601 0)
(0.0224882 0.00193482 0)
(0.0211988 0.00193368 0)
(0.0199101 0.00193259 0)
(0.0186221 0.00193156 0)
(0.0173347 0.00193058 0)
(0.016048 0.00192966 0)
(0.0147619 0.0019288 0)
(0.0134764 0.001928 0)
(0.0121913 0.00192727 0)
(0.0109068 0.00192661 0)
(0.00962262 0.00192601 0)
(0.00833884 0.00192549 0)
(0.00705539 0.00192504 0)
(0.00577221 0.00192466 0)
(0.00448926 0.00192436 0)
(0.00320649 0.00192413 0)
(0.00192384 0.00192398 0)
(0.000641273 0.00192391 0)
(0.000725339 -0.00362713 0)
(0.00217605 -0.0036273 0)
(0.00362687 -0.00362764 0)
(0.00507786 -0.00362816 0)
(0.00652909 -0.00362884 0)
(0.00798063 -0.00362969 0)
(0.00943255 -0.0036307 0)
(0.0108849 -0.00363187 0)
(0.0123378 -0.00363319 0)
(0.0137912 -0.00363466 0)
(0.0152452 -0.00363627 0)
(0.0167 -0.00363802 0)
(0.0181554 -0.00363989 0)
(0.0196117 -0.00364189 0)
(0.0210687 -0.00364399 0)
(0.0225267 -0.0036462 0)
(0.0239855 -0.0036485 0)
(0.0254453 -0.00365087 0)
(0.0269061 -0.00365332 0)
(0.0283679 -0.00365582 0)
(0.0298307 -0.00365836 0)
(0.0312945 -0.00366093 0)
(0.0327594 -0.00366351 0)
(0.0342253 -0.00366609 0)
(0.0356923 -0.00366866 0)
(0.0371603 -0.00367118 0)
(0.0386294 -0.00367365 0)
(0.0400994 -0.00367605 0)
(0.0415704 -0.00367836 0)
(0.0430423 -0.00368055 0)
(0.044515 -0.00368261 0)
(0.0459886 -0.00368451 0)
(0.047463 -0.00368624 0)
(0.048938 -0.00368776 0)
(0.0504136 -0.00368906 0)
(0.0518897 -0.0036901 0)
(0.0533662 -0.00369087 0)
(0.0548429 -0.00369133 0)
(0.0563199 -0.00369147 0)
(0.0577968 -0.00369124 0)
(0.0592735 -0.00369062 0)
(0.06075 -0.00368958 0)
(0.062226 -0.00368809 0)
(0.0637014 -0.00368613 0)
(0.0651758 -0.00368365 0)
(0.0666493 -0.00368062 0)
(0.0681214 -0.00367702 0)
(0.069592 -0.00367281 0)
(0.0710608 -0.00366795 0)
(0.0725276 -0.00366241 0)
(0.073992 -0.00365616 0)
(0.0754538 -0.00364915 0)
(0.0769127 -0.00364136 0)
(0.0783684 -0.00363275 0)
(0.0798205 -0.00362328 0)
(0.0812686 -0.00361291 0)
(0.0827125 -0.00360162 0)
(0.0841517 -0.00358935 0)
(0.0855858 -0.00357609 0)
(0.0870144 -0.00356178 0)
(0.0884371 -0.00354639 0)
(0.0898535 -0.0035299 0)
(0.0912631 -0.00351225 0)
(0.0926655 -0.00349343 0)
(0.09406 -0.00347338 0)
(0.0954464 -0.00345209 0)
(0.096824 -0.00342952 0)
(0.0981924 -0.00340563 0)
(0.099551 -0.0033804 0)
(0.100899 -0.00335379 0)
(0.102237 -0.00332578 0)
(0.103562 -0.00329634 0)
(0.104876 -0.00326544 0)
(0.106177 -0.00323306 0)
(0.107465 -0.00319918 0)
(0.108739 -0.00316378 0)
(0.109999 -0.00312684 0)
(0.111244 -0.00308834 0)
(0.112473 -0.00304827 0)
(0.113685 -0.00300661 0)
(0.114881 -0.00296336 0)
(0.116059 -0.0029185 0)
(0.117219 -0.00287204 0)
(0.118359 -0.00282397 0)
(0.119481 -0.00277429 0)
(0.120582 -0.002723 0)
(0.121662 -0.00267011 0)
(0.122721 -0.00261562 0)
(0.123757 -0.00255956 0)
(0.124771 -0.00250193 0)
(0.125762 -0.00244274 0)
(0.126728 -0.00238203 0)
(0.12767 -0.00231981 0)
(0.128587 -0.00225611 0)
(0.129477 -0.00219096 0)
(0.130342 -0.00212439 0)
(0.131179 -0.00205644 0)
(0.131989 -0.00198714 0)
(0.132771 -0.00191654 0)
(0.133525 -0.00184468 0)
(0.134249 -0.0017716 0)
(0.134944 -0.00169735 0)
(0.135609 -0.00162199 0)
(0.136244 -0.00154557 0)
(0.136848 -0.00146815 0)
(0.13742 -0.00138978 0)
(0.137961 -0.00131052 0)
(0.13847 -0.00123044 0)
(0.138947 -0.00114961 0)
(0.139391 -0.00106808 0)
(0.139802 -0.000985924 0)
(0.140181 -0.000903211 0)
(0.140526 -0.000820011 0)
(0.140837 -0.000736393 0)
(0.141115 -0.00065243 0)
(0.14136 -0.000568193 0)
(0.14157 -0.000483754 0)
(0.141747 -0.000399185 0)
(0.14189 -0.00031456 0)
(0.141999 -0.00022995 0)
(0.142074 -0.000145427 0)
(0.142115 -6.10625e-05 0)
(0.142122 2.30726e-05 0)
(0.142096 0.000106909 0)
(0.142036 0.000190377 0)
(0.141943 0.000273409 0)
(0.141816 0.00035594 0)
(0.141657 0.000437905 0)
(0.141465 0.00051924 0)
(0.14124 0.000599884 0)
(0.140983 0.000679778 0)
(0.140695 0.000758864 0)
(0.140375 0.000837087 0)
(0.140024 0.000914394 0)
(0.139642 0.000990733 0)
(0.139229 0.00106606 0)
(0.138787 0.00114032 0)
(0.138315 0.00121348 0)
(0.137814 0.00128549 0)
(0.137284 0.00135631 0)
(0.136727 0.00142592 0)
(0.136141 0.00149427 0)
(0.135529 0.00156134 0)
(0.13489 0.00162709 0)
(0.134225 0.00169151 0)
(0.133534 0.00175457 0)
(0.132819 0.00181624 0)
(0.132079 0.00187652 0)
(0.131315 0.00193538 0)
(0.130528 0.00199282 0)
(0.129718 0.00204882 0)
(0.128886 0.00210338 0)
(0.128033 0.00215648 0)
(0.127159 0.00220813 0)
(0.126264 0.00225833 0)
(0.125349 0.00230708 0)
(0.124416 0.00235437 0)
(0.123463 0.00240022 0)
(0.122493 0.00244463 0)
(0.121505 0.00248761 0)
(0.1205 0.00252917 0)
(0.119479 0.00256932 0)
(0.118442 0.00260808 0)
(0.11739 0.00264545 0)
(0.116323 0.00268147 0)
(0.115242 0.00271613 0)
(0.114148 0.00274947 0)
(0.113041 0.0027815 0)
(0.11192 0.00281225 0)
(0.110788 0.00284173 0)
(0.109645 0.00286997 0)
(0.10849 0.00289698 0)
(0.107325 0.00292281 0)
(0.10615 0.00294746 0)
(0.104965 0.00297097 0)
(0.103771 0.00299335 0)
(0.102568 0.00301465 0)
(0.101358 0.00303488 0)
(0.100139 0.00305407 0)
(0.0989124 0.00307225 0)
(0.0976791 0.00308944 0)
(0.0964392 0.00310567 0)
(0.0951929 0.00312098 0)
(0.0939407 0.00313538 0)
(0.092683 0.00314891 0)
(0.0914201 0.00316159 0)
(0.0901523 0.00317345 0)
(0.0888799 0.00318452 0)
(0.0876033 0.00319482 0)
(0.0863227 0.00320439 0)
(0.0850385 0.00321324 0)
(0.0837509 0.00322141 0)
(0.0824602 0.00322892 0)
(0.0811666 0.00323579 0)
(0.0798704 0.00324206 0)
(0.0785719 0.00324774 0)
(0.0772712 0.00325287 0)
(0.0759687 0.00325746 0)
(0.0746644 0.00326154 0)
(0.0733585 0.00326514 0)
(0.0720514 0.00326827 0)
(0.0707431 0.00327096 0)
(0.0694339 0.00327324 0)
(0.0681238 0.00327511 0)
(0.0668131 0.00327662 0)
(0.0655019 0.00327776 0)
(0.0641903 0.00327858 0)
(0.0628785 0.00327907 0)
(0.0615665 0.00327928 0)
(0.0602546 0.0032792 0)
(0.0589427 0.00327887 0)
(0.057631 0.0032783 0)
(0.0563197 0.00327751 0)
(0.0550087 0.00327651 0)
(0.0536981 0.00327532 0)
(0.0523881 0.00327395 0)
(0.0510787 0.00327243 0)
(0.0497699 0.00327077 0)
(0.0484618 0.00326898 0)
(0.0471545 0.00326707 0)
(0.045848 0.00326506 0)
(0.0445423 0.00326297 0)
(0.0432375 0.0032608 0)
(0.0419335 0.00325857 0)
(0.0406305 0.00325629 0)
(0.0393284 0.00325397 0)
(0.0380273 0.00325162 0)
(0.0367271 0.00324925 0)
(0.0354279 0.00324687 0)
(0.0341296 0.0032445 0)
(0.0328323 0.00324214 0)
(0.0315359 0.0032398 0)
(0.0302405 0.00323749 0)
(0.028946 0.00323521 0)
(0.0276524 0.00323298 0)
(0.0263597 0.0032308 0)
(0.0250679 0.00322869 0)
(0.0237769 0.00322663 0)
(0.0224867 0.00322465 0)
(0.0211973 0.00322275 0)
(0.0199087 0.00322093 0)
(0.0186207 0.0032192 0)
(0.0173335 0.00321756 0)
(0.0160468 0.00321603 0)
(0.0147608 0.00321459 0)
(0.0134754 0.00321326 0)
(0.0121904 0.00321204 0)
(0.0109059 0.00321093 0)
(0.00962188 0.00320994 0)
(0.00833819 0.00320907 0)
(0.00705484 0.00320832 0)
(0.00577176 0.00320769 0)
(0.00448891 0.00320718 0)
(0.00320624 0.00320681 0)
(0.00192369 0.00320655 0)
(0.000641222 0.00320643 0)
(0.000725235 -0.00507774 0)
(0.00217574 -0.00507798 0)
(0.00362635 -0.00507846 0)
(0.00507714 -0.00507918 0)
(0.00652817 -0.00508014 0)
(0.00797951 -0.00508133 0)
(0.00943123 -0.00508275 0)
(0.0108834 -0.0050844 0)
(0.0123361 -0.00508626 0)
(0.0137893 -0.00508832 0)
(0.0152432 -0.00509059 0)
(0.0166978 -0.00509305 0)
(0.0181531 -0.00509568 0)
(0.0196092 -0.00509849 0)
(0.0210661 -0.00510145 0)
(0.022524 -0.00510455 0)
(0.0239827 -0.00510778 0)
(0.0254424 -0.00511113 0)
(0.0269031 -0.00511457 0)
(0.0283648 -0.00511809 0)
(0.0298276 -0.00512167 0)
(0.0312914 -0.00512528 0)
(0.0327563 -0.00512892 0)
(0.0342222 -0.00513256 0)
(0.0356892 -0.00513617 0)
(0.0371573 -0.00513973 0)
(0.0386264 -0.00514322 0)
(0.0400965 -0.0051466 0)
(0.0415676 -0.00514986 0)
(0.0430397 -0.00515296 0)
(0.0445126 -0.00515587 0)
(0.0459864 -0.00515857 0)
(0.047461 -0.00516102 0)
(0.0489363 -0.00516319 0)
(0.0504122 -0.00516504 0)
(0.0518886 -0.00516654 0)
(0.0533654 -0.00516765 0)
(0.0548425 -0.00516833 0)
(0.0563199 -0.00516856 0)
(0.0577972 -0.00516828 0)
(0.0592745 -0.00516745 0)
(0.0607515 -0.00516604 0)
(0.062228 -0.005164 0)
(0.063704 -0.00516129 0)
(0.0651791 -0.00515787 0)
(0.0666532 -0.00515368 0)
(0.068126 -0.00514868 0)
(0.0695974 -0.00514283 0)
(0.071067 -0.00513608 0)
(0.0725346 -0.00512837 0)
(0.0739999 -0.00511967 0)
(0.0754627 -0.00510991 0)
(0.0769225 -0.00509906 0)
(0.0783792 -0.00508705 0)
(0.0798323 -0.00507384 0)
(0.0812816 -0.00505938 0)
(0.0827266 -0.00504362 0)
(0.0841669 -0.0050265 0)
(0.0856023 -0.00500798 0)
(0.0870322 -0.00498799 0)
(0.0884562 -0.00496651 0)
(0.089874 -0.00494346 0)
(0.091285 -0.00491881 0)
(0.0926887 -0.0048925 0)
(0.0940848 -0.00486449 0)
(0.0954727 -0.00483472 0)
(0.0968519 -0.00480316 0)
(0.0982218 -0.00476976 0)
(0.099582 -0.00473448 0)
(0.100932 -0.00469727 0)
(0.102271 -0.00465809 0)
(0.103599 -0.00461691 0)
(0.104914 -0.00457369 0)
(0.106217 -0.00452839 0)
(0.107507 -0.00448099 0)
(0.108783 -0.00443145 0)
(0.110044 -0.00437976 0)
(0.111291 -0.00432588 0)
(0.112522 -0.00426979 0)
(0.113736 -0.00421149 0)
(0.114934 -0.00415094 0)
(0.116114 -0.00408815 0)
(0.117275 -0.00402311 0)
(0.118418 -0.00395581 0)
(0.119541 -0.00388625 0)
(0.120644 -0.00381444 0)
(0.121726 -0.00374038 0)
(0.122787 -0.00366409 0)
(0.123825 -0.00358558 0)
(0.124841 -0.00350487 0)
(0.125833 -0.00342198 0)
(0.126802 -0.00333695 0)
(0.127745 -0.00324981 0)
(0.128664 -0.00316059 0)
(0.129556 -0.00306934 0)
(0.130423 -0.00297609 0)
(0.131262 -0.0028809 0)
(0.132073 -0.00278383 0)
(0.132857 -0.00268492 0)
(0.133612 -0.00258425 0)
(0.134338 -0.00248187 0)
(0.135034 -0.00237785 0)
(0.1357 -0.00227227 0)
(0.136336 -0.00216521 0)
(0.136941 -0.00205673 0)
(0.137515 -0.00194693 0)
(0.138057 -0.00183588 0)
(0.138567 -0.00172369 0)
(0.139044 -0.00161042 0)
(0.139489 -0.00149619 0)
(0.139901 -0.00138107 0)
(0.14028 -0.00126518 0)
(0.140626 -0.0011486 0)
(0.140938 -0.00103144 0)
(0.141216 -0.000913786 0)
(0.141461 -0.000795753 0)
(0.141672 -0.000677437 0)
(0.141849 -0.00055894 0)
(0.141991 -0.000440363 0)
(0.1421 -0.000321808 0)
(0.142175 -0.000203376 0)
(0.142216 -8.51671e-05 0)
(0.142223 3.27197e-05 0)
(0.142196 0.000150186 0)
(0.142136 0.000267136 0)
(0.142042 0.000383475 0)
(0.141915 0.000499109 0)
(0.141755 0.000613947 0)
(0.141562 0.000727902 0)
(0.141337 0.000840887 0)
(0.141079 0.000952819 0)
(0.140789 0.00106362 0)
(0.140468 0.0011732 0)
(0.140116 0.0012815 0)
(0.139733 0.00138845 0)
(0.139319 0.00149397 0)
(0.138875 0.00159799 0)
(0.138402 0.00170047 0)
(0.1379 0.00180134 0)
(0.137369 0.00190055 0)
(0.13681 0.00199804 0)
(0.136223 0.00209378 0)
(0.135609 0.00218771 0)
(0.134968 0.0022798 0)
(0.134301 0.00237002 0)
(0.133609 0.00245833 0)
(0.132892 0.0025447 0)
(0.13215 0.0026291 0)
(0.131385 0.00271153 0)
(0.130596 0.00279196 0)
(0.129785 0.00287037 0)
(0.128951 0.00294675 0)
(0.128096 0.00302111 0)
(0.12722 0.00309342 0)
(0.126323 0.0031637 0)
(0.125407 0.00323194 0)
(0.124471 0.00329814 0)
(0.123517 0.00336232 0)
(0.122545 0.00342448 0)
(0.121556 0.00348464 0)
(0.120549 0.00354281 0)
(0.119526 0.003599 0)
(0.118488 0.00365324 0)
(0.117434 0.00370554 0)
(0.116366 0.00375594 0)
(0.115283 0.00380444 0)
(0.114187 0.00385109 0)
(0.113078 0.00389591 0)
(0.111957 0.00393892 0)
(0.110823 0.00398016 0)
(0.109678 0.00401966 0)
(0.108522 0.00405745 0)
(0.107355 0.00409357 0)
(0.106179 0.00412805 0)
(0.104993 0.00416092 0)
(0.103797 0.00419223 0)
(0.102593 0.004222 0)
(0.101381 0.00425029 0)
(0.100161 0.00427711 0)
(0.0989337 0.00430252 0)
(0.0976992 0.00432656 0)
(0.0964581 0.00434925 0)
(0.0952107 0.00437063 0)
(0.0939575 0.00439076 0)
(0.0926988 0.00440966 0)
(0.0914348 0.00442738 0)
(0.0901661 0.00444394 0)
(0.0888927 0.0044594 0)
(0.0876152 0.00447379 0)
(0.0863338 0.00448714 0)
(0.0850487 0.0044995 0)
(0.0837603 0.0045109 0)
(0.0824688 0.00452137 0)
(0.0811745 0.00453096 0)
(0.0798776 0.0045397 0)
(0.0785784 0.00454762 0)
(0.0772771 0.00455476 0)
(0.0759739 0.00456116 0)
(0.074669 0.00456684 0)
(0.0733626 0.00457184 0)
(0.0720549 0.0045762 0)
(0.0707461 0.00457994 0)
(0.0694364 0.00458309 0)
(0.0681259 0.00458569 0)
(0.0668147 0.00458776 0)
(0.0655031 0.00458934 0)
(0.0641911 0.00459045 0)
(0.0628789 0.00459112 0)
(0.0615666 0.00459137 0)
(0.0602543 0.00459125 0)
(0.0589422 0.00459076 0)
(0.0576302 0.00458993 0)
(0.0563186 0.0045888 0)
(0.0550074 0.00458737 0)
(0.0536966 0.00458569 0)
(0.0523864 0.00458376 0)
(0.0510768 0.00458161 0)
(0.0497678 0.00457926 0)
(0.0484596 0.00457673 0)
(0.0471522 0.00457404 0)
(0.0458455 0.00457121 0)
(0.0445397 0.00456826 0)
(0.0432348 0.00456521 0)
(0.0419308 0.00456207 0)
(0.0406278 0.00455886 0)
(0.0393256 0.00455559 0)
(0.0380245 0.00455229 0)
(0.0367243 0.00454896 0)
(0.035425 0.00454562 0)
(0.0341268 0.00454229 0)
(0.0328295 0.00453897 0)
(0.0315331 0.00453568 0)
(0.0302378 0.00453243 0)
(0.0289433 0.00452923 0)
(0.0276498 0.0045261 0)
(0.0263571 0.00452304 0)
(0.0250654 0.00452007 0)
(0.0237745 0.00451719 0)
(0.0224844 0.0045144 0)
(0.0211951 0.00451173 0)
(0.0199065 0.00450918 0)
(0.0186187 0.00450675 0)
(0.0173316 0.00450445 0)
(0.0160451 0.00450229 0)
(0.0147592 0.00450028 0)
(0.0134738 0.00449841 0)
(0.012189 0.0044967 0)
(0.0109047 0.00449515 0)
(0.00962076 0.00449376 0)
(0.00833722 0.00449253 0)
(0.00705401 0.00449148 0)
(0.00577108 0.00449059 0)
(0.00448838 0.00448988 0)
(0.00320586 0.00448935 0)
(0.00192346 0.004489 0)
(0.000641146 0.00448882 0)
(0.000725096 -0.0065281 0)
(0.00217532 -0.00652841 0)
(0.00362566 -0.00652904 0)
(0.00507617 -0.00652997 0)
(0.00652693 -0.00653121 0)
(0.00797801 -0.00653275 0)
(0.00942947 -0.00653459 0)
(0.0108814 -0.00653671 0)
(0.0123338 -0.00653911 0)
(0.0137868 -0.00654179 0)
(0.0152405 -0.00654472 0)
(0.0166948 -0.00654789 0)
(0.01815 -0.0065513 0)
(0.0196059 -0.00655493 0)
(0.0210626 -0.00655876 0)
(0.0225203 -0.00656278 0)
(0.0239789 -0.00656696 0)
(0.0254385 -0.00657129 0)
(0.0268991 -0.00657574 0)
(0.0283607 -0.00658029 0)
(0.0298234 -0.00658493 0)
(0.0312872 -0.00658962 0)
(0.0327521 -0.00659433 0)
(0.034218 -0.00659905 0)
(0.0356851 -0.00660373 0)
(0.0371532 -0.00660835 0)
(0.0386224 -0.00661288 0)
(0.0400927 -0.00661728 0)
(0.0415639 -0.00662152 0)
(0.0430362 -0.00662555 0)
(0.0445094 -0.00662935 0)
(0.0459834 -0.00663288 0)
(0.0474583 -0.00663608 0)
(0.0489339 -0.00663892 0)
(0.0504102 -0.00664136 0)
(0.051887 -0.00664335 0)
(0.0533643 -0.00664485 0)
(0.054842 -0.0066458 0)
(0.0563198 -0.00664615 0)
(0.0577978 -0.00664586 0)
(0.0592757 -0.00664487 0)
(0.0607534 -0.00664313 0)
(0.0622307 -0.00664059 0)
(0.0637074 -0.00663718 0)
(0.0651834 -0.00663285 0)
(0.0666584 -0.00662755 0)
(0.0681321 -0.0066212 0)
(0.0696045 -0.00661376 0)
(0.0710752 -0.00660516 0)
(0.0725439 -0.00659534 0)
(0.0740104 -0.00658423 0)
(0.0754744 -0.00657177 0)
(0.0769355 -0.0065579 0)
(0.0783935 -0.00654255 0)
(0.0798481 -0.00652566 0)
(0.0812988 -0.00650716 0)
(0.0827453 -0.00648698 0)
(0.0841872 -0.00646505 0)
(0.0856242 -0.00644132 0)
(0.0870558 -0.00641572 0)
(0.0884816 -0.00638818 0)
(0.0899011 -0.00635863 0)
(0.091314 -0.00632702 0)
(0.0927197 -0.00629328 0)
(0.0941178 -0.00625734 0)
(0.0955077 -0.00621915 0)
(0.0968889 -0.00617865 0)
(0.098261 -0.00613578 0)
(0.0996234 -0.00609049 0)
(0.100976 -0.00604271 0)
(0.102317 -0.00599241 0)
(0.103647 -0.00593952 0)
(0.104965 -0.00588401 0)
(0.10627 -0.00582582 0)
(0.107562 -0.00576493 0)
(0.108841 -0.00570129 0)
(0.110105 -0.00563486 0)
(0.111354 -0.00556562 0)
(0.112587 -0.00549354 0)
(0.113804 -0.0054186 0)
(0.115004 -0.00534078 0)
(0.116187 -0.00526006 0)
(0.117351 -0.00517644 0)
(0.118496 -0.00508991 0)
(0.119622 -0.00500047 0)
(0.120728 -0.00490813 0)
(0.121812 -0.00481289 0)
(0.122875 -0.00471477 0)
(0.123916 -0.00461379 0)
(0.124935 -0.00450998 0)
(0.125929 -0.00440337 0)
(0.1269 -0.00429399 0)
(0.127846 -0.00418189 0)
(0.128767 -0.0040671 0)
(0.129662 -0.0039497 0)
(0.13053 -0.00382973 0)
(0.131372 -0.00370725 0)
(0.132185 -0.00358234 0)
(0.132971 -0.00345507 0)
(0.133728 -0.00332552 0)
(0.134456 -0.00319377 0)
(0.135154 -0.00305992 0)
(0.135822 -0.00292404 0)
(0.136459 -0.00278625 0)
(0.137066 -0.00264664 0)
(0.137641 -0.00250532 0)
(0.138184 -0.0023624 0)
(0.138696 -0.00221799 0)
(0.139174 -0.00207221 0)
(0.13962 -0.00192517 0)
(0.140033 -0.00177701 0)
(0.140413 -0.00162783 0)
(0.14076 -0.00147777 0)
(0.141072 -0.00132696 0)
(0.141351 -0.00117553 0)
(0.141596 -0.0010236 0)
(0.141807 -0.000871302 0)
(0.141984 -0.000718775 0)
(0.142127 -0.000566145 0)
(0.142236 -0.000413545 0)
(0.14231 -0.000261103 0)
(0.142351 -0.00010895 0)
(0.142358 4.27863e-05 0)
(0.14233 0.00019398 0)
(0.142269 0.000344507 0)
(0.142175 0.000494244 0)
(0.142047 0.000643072 0)
(0.141886 0.000790873 0)
(0.141692 0.000937534 0)