/*--------------------------------*- C++ -*----------------------------------*\
| =========                 |                                                 |
| \\      /  F ield         | OpenFOAM: The Open Source CFD Toolbox           |
|  \\    /   O peration     | Version:  v2012                                 |
|   \\  /    A nd           | Website:  www.openfoam.com                      |
|    \\/     M anipulation  |                                                 |
\*---------------------------------------------------------------------------*/
FoamFile
{
    version     2.0;
    format      ascii;
    class       volScalarField;
    location    "8.4";
    object      Psi_z;
}
// * * * * * * * * * * * * * * * * * * * * * * * * * * * * * * * * * * * * * //

dimensions      [0 2 -1 0 0 0 0];


internalField   nonuniform List<scalar> 
65536
(
9.26006e-06
2.77802e-05
4.63003e-05
6.48204e-05
8.33405e-05
0.000101861
0.000120381
0.000138901
0.00015742
0.00017594
0.000194458
0.000212977
0.000231494
0.00025001
0.000268524
0.000287037
0.000305547
0.000324055
0.000342559
0.000361059
0.000379554
0.000398044
0.000416528
0.000435004
0.000453473
0.000471931
0.000490379
0.000508816
0.000527238
0.000545647
0.000564038
0.000582412
0.000600765
0.000619097
0.000637405
0.000655686
0.000673939
0.000692161
0.00071035
0.000728502
0.000746616
0.000764687
0.000782714
0.000800692
0.000818619
0.00083649
0.000854303
0.000872053
0.000889737
0.00090735
0.000924888
0.000942348
0.000959724
0.000977012
0.000994207
0.0010113
0.0010283
0.00104519
0.00106196
0.00107862
0.00109515
0.00111155
0.00112782
0.00114395
0.00115993
0.00117576
0.00119143
0.00120694
0.00122227
0.00123743
0.00125241
0.00126719
0.00128179
0.00129618
0.00131036
0.00132432
0.00133807
0.00135159
0.00136487
0.00137792
0.00139072
0.00140327
0.00141556
0.00142758
0.00143934
0.00145082
0.00146202
0.00147293
0.00148355
0.00149387
0.00150389
0.0015136
0.00152299
0.00153207
0.00154083
0.00154926
0.00155736
0.00156512
0.00157255
0.00157964
0.00158638
0.00159277
0.00159882
0.00160451
0.00160984
0.00161482
0.00161944
0.0016237
0.0016276
0.00163113
0.0016343
0.00163711
0.00163956
0.00164164
0.00164336
0.00164472
0.00164571
0.00164635
0.00164662
0.00164654
0.0016461
0.00164531
0.00164417
0.00164268
0.00164084
0.00163866
0.00163614
0.00163328
0.00163009
0.00162658
0.00162273
0.00161857
0.00161408
0.00160929
0.00160418
0.00159878
0.00159307
0.00158707
0.00158078
0.0015742
0.00156735
0.00156022
0.00155283
0.00154517
0.00153725
0.00152908
0.00152066
0.001512
0.0015031
0.00149397
0.00148461
0.00147504
0.00146525
0.00145525
0.00144505
0.00143465
0.00142406
0.00141328
0.00140231
0.00139117
0.00137986
0.00136838
0.00135674
0.00134494
0.00133299
0.00132089
0.00130865
0.00129628
0.00128377
0.00127113
0.00125837
0.00124549
0.0012325
0.00121939
0.00120618
0.00119287
0.00117945
0.00116595
0.00115235
0.00113866
0.0011249
0.00111105
0.00109712
0.00108313
0.00106906
0.00105492
0.00104073
0.00102647
0.00101215
0.000997782
0.000983359
0.000968887
0.000954367
0.000939803
0.000925197
0.000910551
0.000895867
0.000881148
0.000866395
0.000851611
0.000836797
0.000821956
0.000807089
0.000792198
0.000777284
0.000762349
0.000747394
0.000732422
0.000717432
0.000702427
0.000687408
0.000672376
0.000657332
0.000642277
0.000627212
0.000612138
0.000597056
0.000581966
0.000566871
0.00055177
0.000536663
0.000521553
0.000506439
0.000491321
0.000476201
0.000461079
0.000445955
0.00043083
0.000415704
0.000400577
0.000385451
0.000370324
0.000355197
0.000340071
0.000324946
0.000309821
0.000294697
0.000279574
0.000264453
0.000249332
0.000234213
0.000219095
0.000203979
0.000188863
0.000173749
0.000158636
0.000143524
0.000128414
0.000113304
9.81947e-05
8.30864e-05
6.79789e-05
5.28719e-05
3.77653e-05
2.26591e-05
7.553e-06
2.77802e-05
8.33405e-05
0.000138901
0.000194461
0.000250022
0.000305582
0.000361142
0.000416702
0.000472261
0.000527819
0.000583376
0.00063893
0.000694482
0.000750031
0.000805575
0.000861113
0.000916645
0.000972168
0.00102768
0.00108318
0.00113867
0.00119414
0.00124959
0.00130502
0.00136043
0.0014158
0.00147115
0.00152646
0.00158173
0.00163696
0.00169213
0.00174725
0.00180232
0.00185731
0.00191224
0.00196709
0.00202185
0.00207652
0.00213109
0.00218555
0.00223989
0.00229411
0.00234819
0.00240213
0.00245591
0.00250953
0.00256297
0.00261622
0.00266928
0.00272212
0.00277474
0.00282713
0.00287926
0.00293113
0.00298272
0.00303401
0.003085
0.00313567
0.003186
0.00323597
0.00328558
0.00333479
0.0033836
0.00343199
0.00347994
0.00352743
0.00357445
0.00362098
0.00366699
0.00371247
0.00375741
0.00380178
0.00384556
0.00388873
0.00393128
0.00397319
0.00401443
0.004055
0.00409486
0.00413401
0.00417241
0.00421006
0.00424694
0.00428302
0.00431829
0.00435274
0.00438634
0.00441908
0.00445094
0.00448191
0.00451197
0.0045411
0.00456929
0.00459653
0.00462281
0.0046481
0.00467241
0.00469571
0.00471799
0.00473925
0.00475948
0.00477866
0.00479679
0.00481387
0.00482988
0.00484481
0.00485867
0.00487145
0.00488315
0.00489375
0.00490327
0.0049117
0.00491904
0.00492528
0.00493044
0.00493451
0.00493749
0.00493939
0.00494022
0.00493997
0.00493866
0.00493628
0.00493285
0.00492837
0.00492286
0.00491632
0.00490875
0.00490018
0.00489061
0.00488005
0.00486851
0.00485601
0.00484256
0.00482817
0.00481285
0.00479663
0.0047795
0.00476149
0.00474262
0.00472289
0.00470232
0.00468093
0.00465874
0.00463575
0.00461199
0.00458747
0.00456221
0.00453622
0.00450952
0.00448213
0.00445406
0.00442533
0.00439596
0.00436596
0.00433535
0.00430414
0.00427235
0.00424001
0.00420711
0.00417368
0.00413974
0.00410529
0.00407037
0.00403497
0.00399911
0.00396282
0.0039261
0.00388896
0.00385143
0.00381352
0.00377523
0.00373659
0.0036976
0.00365828
0.00361864
0.00357869
0.00353845
0.00349793
0.00345713
0.00341607
0.00337477
0.00333322
0.00329144
0.00324945
0.00320724
0.00316484
0.00312224
0.00307946
0.00303651
0.0029934
0.00295012
0.0029067
0.00286314
0.00281945
0.00277563
0.00273169
0.00268763
0.00264347
0.00259921
0.00255486
0.00251042
0.00246589
0.00242129
0.00237661
0.00233187
0.00228706
0.0022422
0.00219728
0.00215231
0.00210729
0.00206224
0.00201714
0.001972
0.00192684
0.00188164
0.00183642
0.00179117
0.0017459
0.00170062
0.00165531
0.00160999
0.00156466
0.00151932
0.00147396
0.0014286
0.00138324
0.00133787
0.00129249
0.00124711
0.00120173
0.00115635
0.00111097
0.00106559
0.00102021
0.000974835
0.000929461
0.00088409
0.000838721
0.000793357
0.000747996
0.000702638
0.000657285
0.000611935
0.000566589
0.000521246
0.000475907
0.000430572
0.000385239
0.00033991
0.000294583
0.000249258
0.000203936
0.000158615
0.000113296
6.7977e-05
2.26589e-05
4.63002e-05
0.000138901
0.000231501
0.000324102
0.000416703
0.000509303
0.000601904
0.000694504
0.000787103
0.0008797
0.000972295
0.00106489
0.00115747
0.00125006
0.00134263
0.0014352
0.00152775
0.00162029
0.00171281
0.00180532
0.0018978
0.00199025
0.00208268
0.00217506
0.00226741
0.00235971
0.00245196
0.00254414
0.00263627
0.00272831
0.00282028
0.00291216
0.00300393
0.0030956
0.00318715
0.00327857
0.00336985
0.00346097
0.00355193
0.00364271
0.00373329
0.00382366
0.00391381
0.00400372
0.00409337
0.00418274
0.00427182
0.00436059
0.00444903
0.00453712
0.00462483
0.00471215
0.00479906
0.00488552
0.00497152
0.00505703
0.00514203
0.00522649
0.00531039
0.0053937
0.00547639
0.00555843
0.0056398
0.00572047
0.00580041
0.00587958
0.00595797
0.00603553
0.00611224
0.00618807
0.00626298
0.00633694
0.00640993
0.00648191
0.00655285
0.00662272
0.00669148
0.00675911
0.00682557
0.00689083
0.00695486
0.00701763
0.00707911
0.00713927
0.00719808
0.00725551
0.00731152
0.00736611
0.00741923
0.00747086
0.00752097
0.00756954
0.00761655
0.00766196
0.00770577
0.00774794
0.00778846
0.0078273
0.00786446
0.0078999
0.00793362
0.0079656
0.00799583
0.00802429
0.00805098
0.00807588
0.00809899
0.00812029
0.00813978
0.00815747
0.00817333
0.00818738
0.00819961
0.00821001
0.00821861
0.00822538
0.00823035
0.00823352
0.00823489
0.00823447
0.00823227
0.0082283
0.00822258
0.00821511
0.00820591
0.00819499
0.00818238
0.00816808
0.00815211
0.0081345
0.00811526
0.00809441
0.00807198
0.00804798
0.00802243
0.00799537
0.00796682
0.00793679
0.00790531
0.00787241
0.00783812
0.00780245
0.00776544
0.00772711
0.00768749
0.00764661
0.00760448
0.00756115
0.00751664
0.00747097
0.00742417
0.00737627
0.00732729
0.00727728
0.00722624
0.00717421
0.00712121
0.00706728
0.00701244
0.00695671
0.00690012
0.0068427
0.00678446
0.00672545
0.00666568
0.00660517
0.00654395
0.00648205
0.00641948
0.00635627
0.00629245
0.00622803
0.00616303
0.00609749
0.00603141
0.00596482
0.00589774
0.00583018
0.00576217
0.00569373
0.00562487
0.00555562
0.00548598
0.00541597
0.00534562
0.00527494
0.00520393
0.00513263
0.00506103
0.00498917
0.00491704
0.00484466
0.00477205
0.00469922
0.00462618
0.00455294
0.00447951
0.0044059
0.00433213
0.0042582
0.00418412
0.00410991
0.00403556
0.0039611
0.00388652
0.00381184
0.00373706
0.00366219
0.00358723
0.0035122
0.0034371
0.00336194
0.00328671
0.00321143
0.0031361
0.00306073
0.00298531
0.00290986
0.00283438
0.00275887
0.00268334
0.00260778
0.00253221
0.00245662
0.00238101
0.0023054
0.00222978
0.00215415
0.00207852
0.00200289
0.00192725
0.00185162
0.00177598
0.00170035
0.00162472
0.0015491
0.00147348
0.00139787
0.00132226
0.00124666
0.00117106
0.00109547
0.00101989
0.00094431
0.00086874
0.000793175
0.000717616
0.000642062
0.000566514
0.000490969
0.000415429
0.000339891
0.000264357
0.000188825
0.000113294
3.77647e-05
6.48203e-05
0.000194461
0.000324102
0.000453743
0.000583384
0.000713025
0.000842666
0.000972307
0.00110195
0.00123158
0.00136122
0.00149085
0.00162047
0.00175009
0.0018797
0.00200929
0.00213887
0.00226843
0.00239797
0.00252748
0.00265696
0.0027864
0.0029158
0.00304515
0.00317444
0.00330367
0.00343282
0.00356189
0.00369087
0.00381975
0.00394852
0.00407716
0.00420566
0.00433401
0.0044622
0.0045902
0.004718
0.0048456
0.00497295
0.00510006
0.0052269
0.00535344
0.00547967
0.00560556
0.0057311
0.00585625
0.00598099
0.0061053
0.00622914
0.00635249
0.00647532
0.0065976
0.00671929
0.00684038
0.00696081
0.00708056
0.0071996
0.00731788
0.00743538
0.00755204
0.00766785
0.00778275
0.00789671
0.00800969
0.00812164
0.00823253
0.00834231
0.00845093
0.00855837
0.00866457
0.00876949
0.00887309
0.00897532
0.00907614
0.00917549
0.00927335
0.00936966
0.00946439
0.00955747
0.00964888
0.00973857
0.00982649
0.0099126
0.00999687
0.0100792
0.0101597
0.0102381
0.0103146
0.010389
0.0104613
0.0105315
0.0105995
0.0106654
0.010729
0.0107904
0.0108494
0.0109062
0.0109606
0.0110126
0.0110623
0.0111095
0.0111543
0.0111966
0.0112365
0.0112739
0.0113087
0.0113411
0.0113709
0.0113982
0.011423
0.0114452
0.0114649
0.011482
0.0114966
0.0115086
0.0115181
0.011525
0.0115294
0.0115313
0.0115307
0.0115277
0.0115221
0.0115141
0.0115036
0.0114907
0.0114754
0.0114577
0.0114376
0.0114153
0.0113906
0.0113636
0.0113344
0.011303
0.0112693
0.0112335
0.0111956
0.0111556
0.0111135
0.0110694
0.0110233
0.0109753
0.0109253
0.0108735
0.0108198
0.0107643
0.010707
0.010648
0.0105873
0.0105249
0.0104609
0.0103954
0.0103283
0.0102597
0.0101896
0.0101181
0.0100452
0.00997102
0.00989547
0.00981865
0.0097406
0.00966133
0.00958091
0.00949935
0.00941669
0.00933297
0.00924823
0.00916249
0.00907579
0.00898817
0.00889965
0.00881026
0.00872004
0.00862902
0.00853723
0.00844469
0.00835143
0.00825749
0.00816289
0.00806765
0.00797181
0.00787538
0.0077784
0.00768088
0.00758285
0.00748434
0.00738536
0.00728593
0.00718608
0.00708583
0.0069852
0.0068842
0.00678286
0.00668119
0.0065792
0.00647693
0.00637437
0.00627156
0.00616849
0.0060652
0.00596168
0.00585796
0.00575405
0.00564996
0.00554569
0.00544128
0.00533671
0.00523201
0.00512718
0.00502224
0.00491719
0.00481203
0.00470679
0.00460147
0.00449607
0.0043906
0.00428507
0.00417949
0.00407385
0.00396817
0.00386245
0.0037567
0.00365092
0.00354511
0.00343928
0.00333343
0.00322757
0.0031217
0.00301582
0.00290993
0.00280404
0.00269815
0.00259226
0.00248637
0.00238049
0.00227461
0.00216873
0.00206286
0.001957
0.00185115
0.00174531
0.00163947
0.00153365
0.00142783
0.00132203
0.00121623
0.00111044
0.00100466
0.000898881
0.000793113
0.000687351
0.000581595
0.000475844
0.000370097
0.000264353
0.000158611
5.28701e-05
8.33403e-05
0.000250021
0.000416702
0.000583383
0.000750065
0.000916747
0.00108343
0.00125011
0.00141679
0.00158347
0.00175014
0.00191681
0.00208348
0.00225013
0.00241677
0.0025834
0.00275001
0.00291659
0.00308315
0.00324967
0.00341615
0.00358259
0.00374897
0.00391529
0.00408153
0.0042477
0.00441377
0.00457974
0.00474559
0.00491131
0.00507688
0.0052423
0.00540754
0.00557259
0.00573742
0.00590203
0.00606638
0.00623045
0.00639423
0.00655769
0.0067208
0.00688353
0.00704587
0.00720777
0.00736922
0.00753017
0.0076906
0.00785046
0.00800974
0.00816838
0.00832636
0.00848363
0.00864015
0.00879588
0.00895078
0.00910481
0.00925792
0.00941006
0.00956119
0.00971126
0.00986021
0.010008
0.0101546
0.0102999
0.0104439
0.0105866
0.0107278
0.0108675
0.0110057
0.0111424
0.0112773
0.0114106
0.0115421
0.0116718
0.0117996
0.0119255
0.0120494
0.0121713
0.0122911
0.0124087
0.012524
0.0126372
0.012748
0.0128564
0.0129623
0.0130658
0.0131668
0.0132651
0.0133609
0.0134539
0.0135442
0.0136318
0.0137165
0.0137983
0.0138772
0.0139532
0.0140263
0.0140963
0.0141632
0.0142271
0.0142878
0.0143455
0.0143999
0.0144512
0.0144993
0.0145441
0.0145858
0.0146241
0.0146592
0.0146911
0.0147196
0.0147449
0.0147669
0.0147857
0.0148011
0.0148133
0.0148222
0.0148279
0.0148303
0.0148295
0.0148255
0.0148183
0.014808
0.0147945
0.0147778
0.0147581
0.0147354
0.0147095
0.0146807
0.0146489
0.0146142
0.0145766
0.0145361
0.0144928
0.0144468
0.014398
0.0143465
0.0142923
0.0142355
0.0141762
0.0141144
0.0140501
0.0139833
0.0139142
0.0138428
0.0137691
0.0136932
0.013615
0.0135348
0.0134525
0.0133681
0.0132818
0.0131935
0.0131034
0.0130114
0.0129176
0.0128221
0.0127249
0.0126261
0.0125257
0.0124237
0.0123203
0.0122153
0.012109
0.0120013
0.0118923
0.011782
0.0116705
0.0115578
0.0114439
0.0113289
0.0112129
0.0110958
0.0109777
0.0108587
0.0107387
0.0106179
0.0104962
0.0103737
0.0102505
0.0101265
0.0100017
0.0098763
0.00975022
0.00962352
0.00949622
0.00936835
0.00923994
0.00911102
0.0089816
0.00885171
0.00872138
0.00859063
0.00845948
0.00832796
0.00819607
0.00806386
0.00793132
0.00779849
0.00766538
0.007532
0.00739838
0.00726452
0.00713045
0.00699618
0.00686172
0.00672709
0.00659229
0.00645735
0.00632227
0.00618706
0.00605174
0.00591631
0.00578078
0.00564517
0.00550948
0.00537371
0.00523789
0.005102
0.00496607
0.0048301
0.00469408
0.00455804
0.00442196
0.00428587
0.00414976
0.00401363
0.00387749
0.00374135
0.0036052
0.00346905
0.0033329
0.00319676
0.00306062
0.00292448
0.00278836
0.00265224
0.00251613
0.00238004
0.00224395
0.00210788
0.00197182
0.00183577
0.00169973
0.00156371
0.00142769
0.00129169
0.00115569
0.00101971
0.000883728
0.000747757
0.000611793
0.000475834
0.000339878
0.000203926
6.79751e-05
0.00010186
0.000305581
0.000509302
0.000713024
0.000916746
0.00112047
0.00132419
0.00152792
0.00173164
0.00193536
0.00213908
0.00234279
0.00254649
0.00275019
0.00295387
0.00315753
0.00336117
0.00356478
0.00376836
0.0039719
0.00417539
0.00437883
0.0045822
0.0047855
0.00498871
0.00519182
0.00539482
0.00559769
0.00580043
0.00600301
0.00620541
0.00640762
0.00660961
0.00681138
0.00701288
0.0072141
0.00741502
0.00761561
0.00781583
0.00801566
0.00821507
0.00841403
0.0086125
0.00881044
0.00900783
0.00920461
0.00940076
0.00959623
0.00979097
0.00998494
0.0101781
0.0103704
0.0105618
0.0107522
0.0109416
0.01113
0.0113172
0.0115032
0.0116881
0.0118716
0.0120537
0.0122345
0.0124138
0.0125915
0.0127676
0.0129421
0.0131148
0.0132857
0.0134547
0.0136218
0.0137869
0.0139499
0.0141107
0.0142694
0.0144257
0.0145797
0.0147313
0.0148803
0.0150268
0.0151707
0.0153118
0.0154502
0.0155857
0.0157183
0.0158479
0.0159745
0.016098
0.0162183
0.0163354
0.0164492
0.0165597
0.0166668
0.0167704
0.0168705
0.0169671
0.01706
0.0171493
0.017235
0.0173169
0.017395
0.0174693
0.0175398
0.0176064
0.0176691
0.0177279
0.0177828
0.0178336
0.0178806
0.0179235
0.0179624
0.0179973
0.0180283
0.0180552
0.018078
0.0180969
0.0181118
0.0181227
0.0181296
0.0181325
0.0181315
0.0181266
0.0181177
0.018105
0.0180885
0.0180681
0.018044
0.0180161
0.0179844
0.0179492
0.0179102
0.0178677
0.0178217
0.0177721
0.0177191
0.0176627
0.017603
0.01754
0.0174737
0.0174042
0.0173316
0.0172559
0.0171772
0.0170956
0.017011
0.0169236
0.0168334
0.0167405
0.016645
0.0165468
0.0164461
0.0163429
0.0162372
0.0161293
0.016019
0.0159065
0.0157918
0.0156749
0.0155561
0.0154352
0.0153123
0.0151876
0.0150611
0.0149327
0.0148027
0.014671
0.0145376
0.0144027
0.0142663
0.0141285
0.0139892
0.0138486
0.0137067
0.0135635
0.0134192
0.0132736
0.0131269
0.0129792
0.0128304
0.0126806
0.0125299
0.0123782
0.0122257
0.0120724
0.0119182
0.0117633
0.0116077
0.0114513
0.0112943
0.0111367
0.0109785
0.0108197
0.0106603
0.0105005
0.0103401
0.0101793
0.0100181
0.00985647
0.00969445
0.00953206
0.00936933
0.00920628
0.00904293
0.0088793
0.00871541
0.00855127
0.0083869
0.00822232
0.00805755
0.0078926
0.00772747
0.0075622
0.00739678
0.00723124
0.00706558
0.00689981
0.00673395
0.006568
0.00640198
0.00623588
0.00606973
0.00590353
0.00573728
0.00557099
0.00540467
0.00523832
0.00507196
0.00490557
0.00473917
0.00457277
0.00440636
0.00423995
0.00407354
0.00390714
0.00374074
0.00357435
0.00340797
0.00324161
0.00307525
0.00290891
0.00274259
0.00257628
0.00240998
0.0022437
0.00207743
0.00191118
0.00174494
0.00157871
0.00141249
0.00124629
0.0010801
0.000913913
0.000747737
0.000581566
0.000415401
0.000249239
8.30795e-05
0.00012038
0.00036114
0.000601901
0.000842663
0.00108343
0.00132419
0.00156496
0.00180572
0.00204649
0.00228725
0.00252801
0.00276877
0.00300952
0.00325026
0.00349098
0.00373168
0.00397236
0.00421301
0.00445362
0.00469418
0.00493469
0.00517514
0.00541551
0.0056558
0.00589598
0.00613605
0.006376
0.00661579
0.00685543
0.00709488
0.00733413
0.00757315
0.00781192
0.00805042
0.00828862
0.00852649
0.008764
0.00900112
0.00923782
0.00947406
0.0097098
0.00994501
0.0101796
0.0104137
0.010647
0.0108797
0.0111116
0.0113427
0.011573
0.0118023
0.0120307
0.0122581
0.0124844
0.0127096
0.0129335
0.0131563
0.0133777
0.0135977
0.0138162
0.0140333
0.0142487
0.0144624
0.0146745
0.0148846
0.0150929
0.0152993
0.0155035
0.0157057
0.0159056
0.0161032
0.0162985
0.0164913
0.0166816
0.0168692
0.0170542
0.0172363
0.0174156
0.0175919
0.0177652
0.0179354
0.0181023
0.018266
0.0184263
0.0185832
0.0187366
0.0188863
0.0190324
0.0191747
0.0193133
0.0194479
0.0195786
0.0197053
0.0198278
0.0199463
0.0200605
0.0201705
0.0202761
0.0203774
0.0204743
0.0205667
0.0206546
0.020738
0.0208167
0.0208909
0.0209605
0.0210253
0.0210855
0.021141
0.0211918
0.0212378
0.0212791
0.0213156
0.0213474
0.0213744
0.0213967
0.0214143
0.0214271
0.0214352
0.0214387
0.0214374
0.0214315
0.021421
0.021406
0.0213863
0.0213622
0.0213335
0.0213005
0.021263
0.0212212
0.0211751
0.0211248
0.0210702
0.0210116
0.0209488
0.0208821
0.0208113
0.0207367
0.0206582
0.020576
0.0204901
0.0204005
0.0203074
0.0202107
0.0201107
0.0200072
0.0199005
0.0197906
0.0196775
0.0195613
0.0194421
0.01932
0.0191951
0.0190673
0.0189368
0.0188037
0.018668
0.0185298
0.0183892
0.0182462
0.0181009
0.0179533
0.0178036
0.0176518
0.017498
0.0173422
0.0171845
0.017025
0.0168637
0.0167006
0.0165359
0.0163697
0.0162018
0.0160325
0.0158618
0.0156896
0.0155162
0.0153415
0.0151655
0.0149884
0.0148102
0.0146309
0.0144506
0.0142692
0.014087
0.0139038
0.0137198
0.013535
0.0133493
0.013163
0.0129759
0.0127882
0.0125998
0.0124108
0.0122213
0.0120312
0.0118406
0.0116495
0.0114579
0.011266
0.0110736
0.0108809
0.0106878
0.0104943
0.0103006
0.0101066
0.0099123
0.00971776
0.00952299
0.00932801
0.00913284
0.00893748
0.00874196
0.00854629
0.00835048
0.00815455
0.00795851
0.00776237
0.00756614
0.00736983
0.00717345
0.00697701
0.00678051
0.00658398
0.0063874
0.0061908
0.00599417
0.00579753
0.00560086
0.0054042
0.00520752
0.00501085
0.00481418
0.00461751
0.00442086
0.00422421
0.00402758
0.00383096
0.00363436
0.00343777
0.00324121
0.00304466
0.00284812
0.00265161
0.00245511
0.00225863
0.00206217
0.00186572
0.00166929
0.00147287
0.00127646
0.00108006
0.000883674
0.000687294
0.00049092
0.00029455
9.81831e-05
0.0001389
0.000416699
0.0006945
0.000972302
0.00125011
0.00152791
0.00180572
0.00208353
0.00236134
0.00263915
0.00291696
0.00319476
0.00347256
0.00375034
0.00402811
0.00430586
0.00458358
0.00486127
0.00513892
0.00541652
0.00569406
0.00597152
0.00624891
0.00652619
0.00680337
0.00708042
0.00735732
0.00763406
0.00791061
0.00818696
0.00846307
0.00873893
0.00901451
0.00928977
0.00956469
0.00983924
0.0101134
0.0103871
0.0106603
0.0109329
0.0112051
0.0114766
0.0117474
0.0120176
0.012287
0.0125555
0.0128233
0.0130901
0.0133559
0.0136207
0.0138843
0.0141469
0.0144081
0.0146681
0.0149267
0.0151839
0.0154395
0.0156936
0.0159459
0.0161965
0.0164453
0.0166921
0.016937
0.0171797
0.0174203
0.0176585
0.0178944
0.0181279
0.0183588
0.0185871
0.0188126
0.0190353
0.019255
0.0194718
0.0196854
0.0198958
0.0201029
0.0203065
0.0205067
0.0207033
0.0208961
0.0210852
0.0212704
0.0214516
0.0216288
0.0218018
0.0219705
0.022135
0.022295
0.0224505
0.0226015
0.0227478
0.0228894
0.0230262
0.0231582
0.0232852
0.0234073
0.0235243
0.0236362
0.0237429
0.0238444
0.0239407
0.0240317
0.0241174
0.0241977
0.0242726
0.0243421
0.0244062
0.0244648
0.0245179
0.0245655
0.0246077
0.0246444
0.0246756
0.0247013
0.0247215
0.0247362
0.0247456
0.0247495
0.024748
0.0247411
0.0247289
0.0247114
0.0246887
0.0246607
0.0246276
0.0245893
0.0245459
0.0244976
0.0244443
0.024386
0.024323
0.0242551
0.0241826
0.0241053
0.0240236
0.0239373
0.0238466
0.0237515
0.0236522
0.0235487
0.023441
0.0233293
0.0232137
0.0230941
0.0229708
0.0228437
0.0227131
0.0225788
0.0224411
0.0223
0.0221557
0.0220081
0.0218573
0.0217035
0.0215468
0.0213871
0.0212247
0.0210595
0.0208916
0.0207212
0.0205483
0.020373
0.0201953
0.0200154
0.0198333
0.019649
0.0194627
0.0192744
0.0190843
0.0188922
0.0186984
0.0185029
0.0183058
0.018107
0.0179067
0.017705
0.0175019
0.0172974
0.0170916
0.0168846
0.0166764
0.0164671
0.0162566
0.0160452
0.0158327
0.0156194
0.0154051
0.01519
0.014974
0.0147573
0.0145398
0.0143217
0.0141029
0.0138835
0.0136635
0.0134429
0.0132219
0.0130003
0.0127783
0.0125558
0.0123329
0.0121097
0.0118861
0.0116622
0.0114379
0.0112134
0.0109886
0.0107636
0.0105384
0.0103129
0.0100873
0.00986148
0.00963551
0.00940941
0.00918317
0.00895683
0.00873038
0.00850384
0.00827722
0.00805054
0.0078238
0.007597
0.00737017
0.0071433
0.00691641
0.00668949
0.00646256
0.00623563
0.00600869
0.00578175
0.00555481
0.00532788
0.00510096
0.00487406
0.00464717
0.0044203
0.00419345
0.00396662
0.00373981
0.00351302
0.00328625
0.0030595
0.00283278
0.00260607
0.00237938
0.00215272
0.00192606
0.00169943
0.00147281
0.0012462
0.0010196
0.000793016
0.000566435
0.000339859
0.000113286
0.000157419
0.000472257
0.000787097
0.00110194
0.00141678
0.00173163
0.00204648
0.00236134
0.00267619
0.00299105
0.0033059
0.00362076
0.0039356
0.00425044
0.00456526
0.00488006
0.00519484
0.00550958
0.00582427
0.00613891
0.00645349
0.00676799
0.0070824
0.00739671
0.00771089
0.00802493
0.00833881
0.00865251
0.008966
0.00927927
0.00959227
0.009905
0.0102174
0.0105295
0.0108411
0.0111524
0.0114632
0.0117735
0.0120832
0.0123924
0.0127009
0.0130088
0.0133159
0.0136222
0.0139277
0.0142322
0.0145358
0.0148384
0.0151398
0.0154401
0.0157391
0.0160369
0.0163332
0.016628
0.0169213
0.017213
0.017503
0.0177911
0.0180774
0.0183616
0.0186438
0.0189238
0.0192016
0.019477
0.0197498
0.0200202
0.0202878
0.0205527
0.0208146
0.0210736
0.0213295
0.0215822
0.0218315
0.0220775
0.0223198
0.0225586
0.0227936
0.0230247
0.0232518
0.0234749
0.0236937
0.0239083
0.0241185
0.0243241
0.0245252
0.0247215
0.024913
0.0250996
0.0252812
0.0254577
0.0256291
0.0257951
0.0259558
0.0261111
0.0262608
0.026405
0.0265435
0.0266762
0.0268032
0.0269243
0.0270395
0.0271488
0.027252
0.0273492
0.0274403
0.0275253
0.0276041
0.0276768
0.0277433
0.0278035
0.0278575
0.0279053
0.0279469
0.0279822
0.0280113
0.0280341
0.0280508
0.0280613
0.0280657
0.0280639
0.028056
0.0280421
0.0280222
0.0279962
0.0279644
0.0279267
0.0278832
0.0278339
0.0277789
0.0277183
0.0276521
0.0275804
0.0275034
0.0274209
0.0273332
0.0272403
0.0271423
0.0270393
0.0269313
0.0268185
0.0267009
0.0265787
0.0264519
0.0263205
0.0261848
0.0260448
0.0259006
0.0257522
0.0255998
0.0254435
0.0252834
0.0251195
0.024952
0.0247809
0.0246063
0.0244284
0.0242472
0.0240629
0.0238754
0.023685
0.0234916
0.0232954
0.0230965
0.0228949
0.0226907
0.0224841
0.0222751
0.0220637
0.0218502
0.0216344
0.0214166
0.0211967
0.020975
0.0207513
0.0205259
0.0202987
0.0200699
0.0198395
0.0196076
0.0193743
0.0191395
0.0189034
0.018666
0.0184273
0.0181875
0.0179466
0.0177047
0.0174617
0.0172177
0.0169729
0.0167272
0.0164806
0.0162333
0.0159852
0.0157364
0.015487
0.0152369
0.0149863
0.0147351
0.0144834
0.0142312
0.0139785
0.0137254
0.0134719
0.0132181
0.0129639
0.0127094
0.0124545
0.0121995
0.0119441
0.0116886
0.0114328
0.0111768
0.0109207
0.0106644
0.010408
0.0101514
0.00989471
0.00963793
0.00938107
0.00912413
0.00886713
0.00861007
0.00835297
0.00809583
0.00783866
0.00758147
0.00732427
0.00706706
0.00680985
0.00655264
0.00629543
0.00603824
0.00578106
0.00552389
0.00526675
0.00500962
0.00475252
0.00449544
0.00423839
0.00398136
0.00372436
0.00346738
0.00321042
0.00295349
0.00269658
0.00243969
0.00218283
0.00192598
0.00166915
0.00141233
0.00115552
0.00089873
0.000641944
0.000385164
0.000128388
0.000175938
0.000527814
0.000879692
0.00123157
0.00158346
0.00193535
0.00228724
0.00263914
0.00299104
0.00334295
0.00369486
0.00404676
0.00439866
0.00475056
0.00510243
0.00545429
0.00580613
0.00615792
0.00650968
0.00686137
0.007213
0.00756455
0.007916
0.00826734
0.00861855
0.0089696
0.00932048
0.00967116
0.0100216
0.0103718
0.0107218
0.0110714
0.0114206
0.0117695
0.012118
0.012466
0.0128135
0.0131605
0.0135068
0.0138525
0.0141975
0.0145417
0.0148852
0.0152277
0.0155693
0.0159099
0.0162494
0.0165878
0.0169249
0.0172608
0.0175952
0.0179282
0.0182597
0.0185895
0.0189176
0.0192439
0.0195682
0.0198906
0.0202108
0.0205288
0.0208446
0.0211578
0.0214686
0.0217767
0.022082
0.0223845
0.022684
0.0229803
0.0232735
0.0235633
0.0238496
0.0241324
0.0244114
0.0246867
0.0249579
0.0252251
0.0254881
0.0257468
0.026001
0.0262507
0.0264956
0.0267358
0.026971
0.0272012
0.0274263
0.027646
0.0278604
0.0280693
0.0282726
0.0284701
0.0286619
0.0288478
0.0290277
0.0292014
0.029369
0.0295304
0.0296854
0.029834
0.0299761
0.0301117
0.0302406
0.0303628
0.0304784
0.0305871
0.0306891
0.0307842
0.0308723
0.0309536
0.0310279
0.0310953
0.0311557
0.0312091
0.0312556
0.031295
0.0313275
0.031353
0.0313716
0.0313833
0.031388
0.0313859
0.031377
0.0313613
0.0313389
0.0313098
0.031274
0.0312317
0.0311828
0.0311275
0.0310659
0.0309979
0.0309237
0.0308434
0.030757
0.0306646
0.0305663
0.0304622
0.0303524
0.0302369
0.030116
0.0299896
0.0298579
0.029721
0.0295789
0.0294318
0.0292798
0.029123
0.0289615
0.0287954
0.0286247
0.0284497
0.0282704
0.028087
0.0278994
0.0277079
0.0275125
0.0273133
0.0271105
0.0269042
0.0266944
0.0264812
0.0262648
0.0260452
0.0258226
0.025597
0.0253686
0.0251374
0.0249035
0.024667
0.024428
0.0241867
0.0239429
0.023697
0.0234489
0.0231987
0.0229465
0.0226924
0.0224365
0.0221787
0.0219193
0.0216583
0.0213957
0.0211316
0.0208661
0.0205992
0.020331
0.0200616
0.019791
0.0195193
0.0192465
0.0189726
0.0186979
0.0184221
0.0181456
0.0178682
0.01759
0.0173111
0.0170315
0.0167512
0.0164704
0.0161889
0.015907
0.0156245
0.0153415
0.0150581
0.0147743
0.0144901
0.0142056
0.0139207
0.0136356
0.0133501
0.0130644
0.0127785
0.0124923
0.012206
0.0119195
0.0116329
0.0113461
0.0110591
0.0107721
0.010485
0.0101978
0.00991051
0.00962318
0.0093358
0.00904839
0.00876094
0.00847347
0.00818599
0.0078985
0.00761101
0.00732352
0.00703605
0.00674858
0.00646113
0.00617371
0.0058863
0.00559892
0.00531157
0.00502424
0.00473694
0.00444968
0.00416244
0.00387523
0.00358804
0.00330089
0.00301376
0.00272665
0.00243957
0.00215251
0.00186547
0.00157844
0.00129143
0.00100444
0.000717448
0.000430466
0.000143488
0.000194456
0.000583369
0.000972284
0.0013612
0.00175013
0.00213906
0.00252799
0.00291694
0.00330589
0.00369485
0.00408381
0.00447277
0.00486173
0.00525068
0.00563963
0.00602855
0.00641745
0.00680632
0.00719514
0.0075839
0.0079726
0.00836121
0.00874971
0.0091381
0.00952636
0.00991445
0.0103023
0.01069
0.0110775
0.0114647
0.0118516
0.0122381
0.0126243
0.01301
0.0133953
0.0137801
0.0141644
0.014548
0.014931
0.0153133
0.0156948
0.0160755
0.0164553
0.0168341
0.017212
0.0175887
0.0179642
0.0183384
0.0187114
0.0190828
0.0194528
0.0198212
0.0201879
0.0205527
0.0209157
0.0212767
0.0216355
0.0219922
0.0223465
0.0226984
0.0230477
0.0233944
0.0237382
0.0240792
0.024417
0.0247518
0.0250832
0.0254112
0.0257357
0.0260564
0.0263734
0.0266863
0.0269952
0.0272998
0.0276001
0.0278959
0.028187
0.0284733
0.0287548
0.0290312
0.0293023
0.0295682
0.0298286
0.0300835
0.0303326
0.0305759
0.0308133
0.0310445
0.0312696
0.0314883
0.0317006
0.0319064
0.0321056
0.032298
0.0324835
0.0326621
0.0328338
0.0329982
0.0331556
0.0333056
0.0334483
0.0335836
0.0337115
0.0338319
0.0339447
0.0340499
0.0341475
0.0342374
0.0343196
0.0343941
0.0344609
0.0345199
0.0345713
0.0346148
0.0346507
0.0346788
0.0346993
0.0347121
0.0347172
0.0347148
0.0347048
0.0346873
0.0346623
0.0346299
0.0345902
0.0345431
0.0344889
0.0344276
0.0343591
0.0342837
0.0342015
0.0341123
0.0340165
0.0339141
0.0338051
0.0336897
0.033568
0.0334401
0.0333061
0.033166
0.0330201
0.0328684
0.032711
0.032548
0.0323796
0.0322059
0.032027
0.031843
0.0316541
0.0314602
0.0312617
0.0310585
0.0308508
0.0306388
0.0304224
0.0302019
0.0299774
0.029749
0.0295167
0.0292807
0.0290412
0.0287981
0.0285517
0.0283021
0.0280492
0.0277933
0.0275345
0.0272728
0.0270083
0.0267412
0.0264715
0.0261994
0.0259249
0.0256481
0.0253691
0.0250879
0.0248048
0.0245197
0.0242327
0.0239439
0.0236534
0.0233613
0.0230676
0.0227724
0.0224757
0.0221777
0.0218784
0.0215779
0.0212762
0.0209734
0.0206695
0.0203646
0.0200587
0.0197519
0.0194443
0.0191359
0.0188267
0.0185168
0.0182063
0.0178951
0.0175833
0.0172709
0.0169581
0.0166447
0.0163309