/*--------------------------------*- C++ -*----------------------------------*\
| =========                 |                                                 |
| \\      /  F ield         | OpenFOAM: The Open Source CFD Toolbox           |
|  \\    /   O peration     | Version:  v2012                                 |
|   \\  /    A nd           | Website:  www.openfoam.com                      |
|    \\/     M anipulation  |                                                 |
\*---------------------------------------------------------------------------*/
FoamFile
{
    version     2.0;
    format      ascii;
    class       volVectorField;
    location    "8.4";
    object      U;
}
// * * * * * * * * * * * * * * * * * * * * * * * * * * * * * * * * * * * * * //

dimensions      [0 1 -1 0 0 0 0];


internalField   nonuniform List<vector> 
65536
(
(0.00075469 -0.000754689 0)
(0.00226407 -0.000754688 0)
(0.00377344 -0.000754687 0)
(0.00528281 -0.000754683 0)
(0.00679218 -0.000754679 0)
(0.00830153 -0.000754671 0)
(0.00981087 -0.000754661 0)
(0.0113202 -0.000754646 0)
(0.0128295 -0.000754626 0)
(0.0143387 -0.0007546 0)
(0.0158479 -0.000754565 0)
(0.017357 -0.000754521 0)
(0.018866 -0.000754465 0)
(0.0203748 -0.000754397 0)
(0.0218836 -0.000754313 0)
(0.0233921 -0.000754211 0)
(0.0249004 -0.000754089 0)
(0.0264085 -0.000753945 0)
(0.0279162 -0.000753776 0)
(0.0294236 -0.000753579 0)
(0.0309306 -0.000753351 0)
(0.032437 -0.000753088 0)
(0.033943 -0.000752789 0)
(0.0354482 -0.000752448 0)
(0.0369528 -0.000752063 0)
(0.0384565 -0.00075163 0)
(0.0399594 -0.000751145 0)
(0.0414612 -0.000750604 0)
(0.0429618 -0.000750003 0)
(0.0444613 -0.000749338 0)
(0.0459593 -0.000748603 0)
(0.0474557 -0.000747796 0)
(0.0489505 -0.000746911 0)
(0.0504435 -0.000745943 0)
(0.0519344 -0.000744887 0)
(0.0534231 -0.00074374 0)
(0.0549094 -0.000742495 0)
(0.0563932 -0.000741147 0)
(0.0578741 -0.000739692 0)
(0.0593521 -0.000738123 0)
(0.0608267 -0.000736437 0)
(0.0622979 -0.000734626 0)
(0.0637654 -0.000732687 0)
(0.0652288 -0.000730612 0)
(0.066688 -0.000728398 0)
(0.0681425 -0.000726038 0)
(0.0695923 -0.000723526 0)
(0.0710368 -0.000720858 0)
(0.0724759 -0.000718027 0)
(0.0739091 -0.000715028 0)
(0.0753361 -0.000711856 0)
(0.0767567 -0.000708505 0)
(0.0781703 -0.00070497 0)
(0.0795767 -0.000701245 0)
(0.0809755 -0.000697326 0)
(0.0823662 -0.000693207 0)
(0.0837485 -0.000688884 0)
(0.085122 -0.000684351 0)
(0.0864862 -0.000679604 0)
(0.0878406 -0.000674638 0)
(0.0891849 -0.000669449 0)
(0.0905186 -0.000664033 0)
(0.0918413 -0.000658385 0)
(0.0931524 -0.000652503 0)
(0.0944515 -0.000646383 0)
(0.0957382 -0.000640022 0)
(0.0970119 -0.000633416 0)
(0.0982721 -0.000626563 0)
(0.0995184 -0.000619461 0)
(0.10075 -0.000612107 0)
(0.101967 -0.000604501 0)
(0.103168 -0.00059664 0)
(0.104354 -0.000588523 0)
(0.105523 -0.000580151 0)
(0.106675 -0.000571523 0)
(0.107809 -0.000562638 0)
(0.108926 -0.000553497 0)
(0.110023 -0.000544102 0)
(0.111102 -0.000534454 0)
(0.112161 -0.000524554 0)
(0.113201 -0.000514404 0)
(0.114219 -0.000504008 0)
(0.115217 -0.000493367 0)
(0.116193 -0.000482487 0)
(0.117147 -0.000471369 0)
(0.118079 -0.000460019 0)
(0.118987 -0.000448441 0)
(0.119873 -0.000436641 0)
(0.120734 -0.000424624 0)
(0.121571 -0.000412395 0)
(0.122384 -0.000399961 0)
(0.123171 -0.000387329 0)
(0.123933 -0.000374506 0)
(0.12467 -0.000361499 0)
(0.12538 -0.000348316 0)
(0.126063 -0.000334965 0)
(0.12672 -0.000321455 0)
(0.127349 -0.000307793 0)
(0.127951 -0.00029399 0)
(0.128525 -0.000280053 0)
(0.129071 -0.000265994 0)
(0.129589 -0.00025182 0)
(0.130079 -0.000237543 0)
(0.130539 -0.000223172 0)
(0.130971 -0.000208717 0)
(0.131374 -0.00019419 0)
(0.131748 -0.000179599 0)
(0.132093 -0.000164956 0)
(0.132408 -0.00015027 0)
(0.132694 -0.000135554 0)
(0.13295 -0.000120817 0)
(0.133177 -0.00010607 0)
(0.133375 -9.13229e-05 0)
(0.133543 -7.65869e-05 0)
(0.133681 -6.18721e-05 0)
(0.13379 -4.71888e-05 0)
(0.13387 -3.25472e-05 0)
(0.13392 -1.79572e-05 0)
(0.133941 -3.42862e-06 0)
(0.133934 1.10288e-05 0)
(0.133897 2.54058e-05 0)
(0.133832 3.9693e-05 0)
(0.133738 5.38815e-05 0)
(0.133616 6.79626e-05 0)
(0.133466 8.19278e-05 0)
(0.133289 9.57691e-05 0)
(0.133083 0.000109478 0)
(0.132851 0.000123048 0)
(0.132591 0.000136471 0)
(0.132305 0.000149741 0)
(0.131992 0.00016285 0)
(0.131653 0.000175793 0)
(0.131288 0.000188564 0)
(0.130899 0.000201156 0)
(0.130484 0.000213566 0)
(0.130044 0.000225787 0)
(0.12958 0.000237816 0)
(0.129093 0.000249647 0)
(0.128581 0.000261279 0)
(0.128047 0.000272706 0)
(0.12749 0.000283926 0)
(0.126911 0.000294936 0)
(0.12631 0.000305733 0)
(0.125688 0.000316316 0)
(0.125045 0.000326682 0)
(0.124381 0.000336831 0)
(0.123697 0.00034676 0)
(0.122994 0.000356469 0)
(0.122271 0.000365957 0)
(0.12153 0.000375225 0)
(0.12077 0.000384271 0)
(0.119993 0.000393097 0)
(0.119198 0.000401702 0)
(0.118386 0.000410088 0)
(0.117557 0.000418255 0)
(0.116712 0.000426204 0)
(0.115852 0.000433937 0)
(0.114976 0.000441456 0)
(0.114086 0.000448762 0)
(0.113181 0.000455857 0)
(0.112262 0.000462744 0)
(0.11133 0.000469424 0)
(0.110384 0.000475901 0)
(0.109426 0.000482176 0)
(0.108456 0.000488252 0)
(0.107473 0.000494132 0)
(0.106479 0.00049982 0)
(0.105474 0.000505318 0)
(0.104457 0.00051063 0)
(0.103431 0.000515758 0)
(0.102394 0.000520706 0)
(0.101348 0.000525477 0)
(0.100292 0.000530075 0)
(0.0992274 0.000534503 0)
(0.0981539 0.000538765 0)
(0.0970721 0.000542864 0)
(0.0959823 0.000546804 0)
(0.0948848 0.000550588 0)
(0.0937798 0.000554221 0)
(0.0926677 0.000557706 0)
(0.0915489 0.000561046 0)
(0.0904234 0.000564245 0)
(0.0892917 0.000567307 0)
(0.0881541 0.000570235 0)
(0.0870107 0.000573034 0)
(0.0858618 0.000575706 0)
(0.0847077 0.000578255 0)
(0.0835487 0.000580686 0)
(0.0823849 0.000583 0)
(0.0812166 0.000585203 0)
(0.0800439 0.000587297 0)
(0.0788673 0.000589286 0)
(0.0776867 0.000591173 0)
(0.0765025 0.000592961 0)
(0.0753148 0.000594655 0)
(0.0741238 0.000596256 0)
(0.0729297 0.000597769 0)
(0.0717326 0.000599197 0)
(0.0705328 0.000600542 0)
(0.0693304 0.000601808 0)
(0.0681255 0.000602998 0)
(0.0669183 0.000604114 0)
(0.065709 0.00060516 0)
(0.0644976 0.000606138 0)
(0.0632843 0.000607052 0)
(0.0620693 0.000607904 0)
(0.0608527 0.000608696 0)
(0.0596345 0.000609431 0)
(0.0584149 0.000610113 0)
(0.057194 0.000610742 0)
(0.0559719 0.000611323 0)
(0.0547487 0.000611857 0)
(0.0535244 0.000612346 0)
(0.0522992 0.000612793 0)
(0.0510732 0.0006132 0)
(0.0498464 0.000613569 0)
(0.0486189 0.000613902 0)
(0.0473908 0.000614202 0)
(0.0461621 0.00061447 0)
(0.0449328 0.000614708 0)
(0.0437032 0.000614918 0)
(0.0424732 0.000615102 0)
(0.0412428 0.000615261 0)
(0.0400121 0.000615398 0)
(0.0387812 0.000615514 0)
(0.03755 0.00061561 0)
(0.0363187 0.000615689 0)
(0.0350872 0.000615751 0)
(0.0338557 0.000615798 0)
(0.032624 0.000615832 0)
(0.0313923 0.000615853 0)
(0.0301606 0.000615863 0)
(0.0289289 0.000615863 0)
(0.0276972 0.000615855 0)
(0.0264655 0.000615839 0)
(0.0252338 0.000615817 0)
(0.0240022 0.000615789 0)
(0.0227706 0.000615757 0)
(0.0215392 0.000615721 0)
(0.0203077 0.000615683 0)
(0.0190764 0.000615643 0)
(0.0178452 0.000615601 0)
(0.016614 0.000615559 0)
(0.0153829 0.000615517 0)
(0.014152 0.000615476 0)
(0.012921 0.000615437 0)
(0.0116902 0.000615399 0)
(0.0104594 0.000615364 0)
(0.00922875 0.000615332 0)
(0.00799812 0.000615303 0)
(0.00676754 0.000615278 0)
(0.00553702 0.000615256 0)
(0.00430653 0.000615238 0)
(0.00307607 0.000615225 0)
(0.00184563 0.000615216 0)
(0.000615209 0.000615212 0)
(0.00075469 -0.00226407 0)
(0.00226407 -0.00226407 0)
(0.00377345 -0.00226406 0)
(0.00528282 -0.00226405 0)
(0.00679219 -0.00226404 0)
(0.00830155 -0.00226402 0)
(0.00981089 -0.00226399 0)
(0.0113202 -0.00226394 0)
(0.0128295 -0.00226388 0)
(0.0143387 -0.00226381 0)
(0.0158479 -0.0022637 0)
(0.0173571 -0.00226357 0)
(0.0188661 -0.00226341 0)
(0.020375 -0.0022632 0)
(0.0218837 -0.00226295 0)
(0.0233923 -0.00226265 0)
(0.0249007 -0.00226229 0)
(0.0264088 -0.00226186 0)
(0.0279166 -0.00226136 0)
(0.029424 -0.00226077 0)
(0.0309311 -0.00226009 0)
(0.0324376 -0.0022593 0)
(0.0339436 -0.00225841 0)
(0.035449 -0.00225739 0)
(0.0369536 -0.00225624 0)
(0.0384574 -0.00225494 0)
(0.0399604 -0.00225349 0)
(0.0414623 -0.00225187 0)
(0.0429631 -0.00225007 0)
(0.0444626 -0.00224808 0)
(0.0459608 -0.00224588 0)
(0.0474574 -0.00224346 0)
(0.0489524 -0.00224081 0)
(0.0504455 -0.00223791 0)
(0.0519366 -0.00223475 0)
(0.0534255 -0.00223132 0)
(0.054912 -0.00222758 0)
(0.056396 -0.00222355 0)
(0.0578771 -0.00221919 0)
(0.0593553 -0.00221449 0)
(0.0608302 -0.00220943 0)
(0.0623017 -0.00220401 0)
(0.0637694 -0.00219819 0)
(0.0652331 -0.00219198 0)
(0.0666925 -0.00218534 0)
(0.0681474 -0.00217826 0)
(0.0695974 -0.00217073 0)
(0.0710423 -0.00216273 0)
(0.0724817 -0.00215425 0)
(0.0739152 -0.00214526 0)
(0.0753426 -0.00213574 0)
(0.0767635 -0.0021257 0)
(0.0781776 -0.0021151 0)
(0.0795844 -0.00210393 0)
(0.0809835 -0.00209218 0)
(0.0823747 -0.00207982 0)
(0.0837574 -0.00206686 0)
(0.0851312 -0.00205326 0)
(0.0864958 -0.00203903 0)
(0.0878507 -0.00202413 0)
(0.0891955 -0.00200857 0)
(0.0905297 -0.00199233 0)
(0.0918528 -0.00197539 0)
(0.0931644 -0.00195775 0)
(0.094464 -0.00193939 0)
(0.0957511 -0.00192031 0)
(0.0970253 -0.00190049 0)
(0.098286 -0.00187994 0)
(0.0995328 -0.00185863 0)
(0.100765 -0.00183657 0)
(0.101982 -0.00181375 0)
(0.103184 -0.00179017 0)
(0.10437 -0.00176582 0)
(0.10554 -0.00174071 0)
(0.106692 -0.00171482 0)
(0.107827 -0.00168817 0)
(0.108944 -0.00166074 0)
(0.110042 -0.00163256 0)
(0.111122 -0.00160361 0)
(0.112181 -0.00157391 0)
(0.113221 -0.00154346 0)
(0.11424 -0.00151227 0)
(0.115238 -0.00148034 0)
(0.116215 -0.00144769 0)
(0.11717 -0.00141434 0)
(0.118102 -0.00138028 0)
(0.119011 -0.00134554 0)
(0.119896 -0.00131014 0)
(0.120758 -0.00127408 0)
(0.121596 -0.00123739 0)
(0.122409 -0.00120008 0)
(0.123197 -0.00116218 0)
(0.123959 -0.0011237 0)
(0.124696 -0.00108467 0)
(0.125406 -0.00104512 0)
(0.12609 -0.00100505 0)
(0.126747 -0.000964513 0)
(0.127376 -0.00092352 0)
(0.127979 -0.0008821 0)
(0.128553 -0.000840281 0)
(0.129099 -0.000798093 0)
(0.129618 -0.000755563 0)
(0.130107 -0.000712721 0)
(0.130568 -0.000669598 0)
(0.131 -0.000626224 0)
(0.131403 -0.00058263 0)
(0.131777 -0.000538847 0)
(0.132122 -0.000494907 0)
(0.132437 -0.000450841 0)
(0.132723 -0.000406682 0)
(0.13298 -0.00036246 0)
(0.133207 -0.000318208 0)
(0.133404 -0.000273957 0)
(0.133572 -0.000229738 0)
(0.13371 -0.000185584 0)
(0.133819 -0.000141524 0)
(0.133899 -9.75891e-05 0)
(0.133949 -5.38093e-05 0)
(0.13397 -1.02141e-05 0)
(0.133963 3.31677e-05 0)
(0.133926 7.63077e-05 0)
(0.13386 0.000119178 0)
(0.133767 0.000161752 0)
(0.133644 0.000204004 0)
(0.133494 0.000245908 0)
(0.133316 0.000287439 0)
(0.13311 0.000328575 0)
(0.132877 0.000369292 0)
(0.132617 0.000409568 0)
(0.132331 0.000449383 0)
(0.132018 0.000488718 0)
(0.131679 0.000527552 0)
(0.131314 0.000565869 0)
(0.130923 0.000603652 0)
(0.130508 0.000640885 0)
(0.130068 0.000677553 0)
(0.129604 0.000713643 0)
(0.129116 0.000749142 0)
(0.128604 0.00078404 0)
(0.12807 0.000818324 0)
(0.127513 0.000851987 0)
(0.126933 0.000885019 0)
(0.126332 0.000917413 0)
(0.125709 0.000949163 0)
(0.125065 0.000980264 0)
(0.124401 0.00101071 0)
(0.123717 0.0010405 0)
(0.123013 0.00106963 0)
(0.12229 0.00109809 0)
(0.121548 0.00112589 0)
(0.120788 0.00115303 0)
(0.12001 0.00117951 0)
(0.119215 0.00120532 0)
(0.118402 0.00123048 0)
(0.117573 0.00125498 0)
(0.116728 0.00127883 0)
(0.115867 0.00130203 0)
(0.114991 0.00132458 0)
(0.1141 0.0013465 0)
(0.113195 0.00136778 0)
(0.112276 0.00138844 0)
(0.111343 0.00140847 0)
(0.110397 0.0014279 0)
(0.109438 0.00144672 0)
(0.108467 0.00146495 0)
(0.107484 0.00148259 0)
(0.10649 0.00149965 0)
(0.105484 0.00151614 0)
(0.104468 0.00153207 0)
(0.103441 0.00154745 0)
(0.102404 0.00156229 0)
(0.101357 0.0015766 0)
(0.100301 0.00159039 0)
(0.099236 0.00160367 0)
(0.0981622 0.00161645 0)
(0.0970801 0.00162875 0)
(0.09599 0.00164056 0)
(0.0948921 0.00165191 0)
(0.0937869 0.00166281 0)
(0.0926745 0.00167326 0)
(0.0915553 0.00168328 0)
(0.0904296 0.00169287 0)
(0.0892977 0.00170205 0)
(0.0881597 0.00171083 0)
(0.0870161 0.00171923 0)
(0.085867 0.00172724 0)
(0.0847126 0.00173488 0)
(0.0835534 0.00174217 0)
(0.0823893 0.00174911 0)
(0.0812208 0.00175572 0)
(0.080048 0.00176199 0)
(0.0788711 0.00176796 0)
(0.0776903 0.00177361 0)
(0.0765059 0.00177898 0)
(0.075318 0.00178405 0)
(0.0741268 0.00178886 0)
(0.0729325 0.00179339 0)
(0.0717353 0.00179767 0)
(0.0705354 0.0018017 0)
(0.0693328 0.0018055 0)
(0.0681277 0.00180906 0)
(0.0669204 0.00181241 0)
(0.0657109 0.00181555 0)
(0.0644994 0.00181848 0)
(0.0632861 0.00182122 0)
(0.0620709 0.00182377 0)
(0.0608542 0.00182614 0)
(0.0596359 0.00182835 0)
(0.0584162 0.00183039 0)
(0.0571952 0.00183227 0)
(0.055973 0.00183401 0)
(0.0547496 0.00183561 0)
(0.0535253 0.00183708 0)
(0.0523001 0.00183842 0)
(0.0510739 0.00183963 0)
(0.0498471 0.00184074 0)
(0.0486195 0.00184174 0)
(0.0473913 0.00184263 0)
(0.0461625 0.00184344 0)
(0.0449333 0.00184415 0)
(0.0437036 0.00184478 0)
(0.0424735 0.00184533 0)
(0.041243 0.0018458 0)
(0.0400123 0.00184621 0)
(0.0387813 0.00184656 0)
(0.0375502 0.00184685 0)
(0.0363188 0.00184708 0)
(0.0350873 0.00184727 0)
(0.0338557 0.00184741 0)
(0.0326241 0.00184751 0)
(0.0313924 0.00184757 0)
(0.0301606 0.0018476 0)
(0.0289289 0.0018476 0)
(0.0276971 0.00184757 0)
(0.0264654 0.00184752 0)
(0.0252337 0.00184746 0)
(0.0240021 0.00184737 0)
(0.0227706 0.00184727 0)
(0.0215391 0.00184717 0)
(0.0203077 0.00184705 0)
(0.0190763 0.00184693 0)
(0.0178451 0.0018468 0)
(0.0166139 0.00184668 0)
(0.0153829 0.00184655 0)
(0.0141519 0.00184643 0)
(0.012921 0.00184631 0)
(0.0116901 0.00184619 0)
(0.0104594 0.00184609 0)
(0.00922869 0.00184599 0)
(0.00799806 0.0018459 0)
(0.00676749 0.00184583 0)
(0.00553697 0.00184576 0)
(0.00430649 0.00184571 0)
(0.00307605 0.00184567 0)
(0.00184562 0.00184564 0)
(0.000615205 0.00184563 0)
(0.000754692 -0.00377345 0)
(0.00226407 -0.00377345 0)
(0.00377346 -0.00377344 0)
(0.00528284 -0.00377343 0)
(0.00679221 -0.0037734 0)
(0.00830158 -0.00377337 0)
(0.00981094 -0.00377332 0)
(0.0113203 -0.00377326 0)
(0.0128296 -0.00377316 0)
(0.0143389 -0.00377304 0)
(0.0158481 -0.00377287 0)
(0.0173572 -0.00377266 0)
(0.0188663 -0.00377239 0)
(0.0203753 -0.00377206 0)
(0.0218841 -0.00377165 0)
(0.0233928 -0.00377115 0)
(0.0249012 -0.00377056 0)
(0.0264094 -0.00376985 0)
(0.0279173 -0.00376902 0)
(0.0294249 -0.00376805 0)
(0.030932 -0.00376692 0)
(0.0324387 -0.00376563 0)
(0.0339449 -0.00376415 0)
(0.0354504 -0.00376246 0)
(0.0369552 -0.00376056 0)
(0.0384593 -0.00375841 0)
(0.0399624 -0.003756 0)
(0.0414646 -0.00375332 0)
(0.0429656 -0.00375034 0)
(0.0444654 -0.00374703 0)
(0.0459639 -0.00374338 0)
(0.0474608 -0.00373937 0)
(0.0489561 -0.00373496 0)
(0.0504495 -0.00373015 0)
(0.051941 -0.0037249 0)
(0.0534303 -0.00371918 0)
(0.0549172 -0.00371298 0)
(0.0564016 -0.00370627 0)
(0.0578832 -0.00369902 0)
(0.0593618 -0.00369121 0)
(0.0608372 -0.0036828 0)
(0.0623091 -0.00367377 0)
(0.0637774 -0.0036641 0)
(0.0652416 -0.00365376 0)
(0.0667017 -0.00364271 0)
(0.0681571 -0.00363094 0)
(0.0696078 -0.00361841 0)
(0.0710533 -0.0036051 0)
(0.0724933 -0.00359097 0)
(0.0739276 -0.003576 0)
(0.0753557 -0.00356017 0)
(0.0767773 -0.00354344 0)
(0.0781921 -0.00352579 0)
(0.0795996 -0.0035072 0)
(0.0809996 -0.00348763 0)
(0.0823915 -0.00346706 0)
(0.0837751 -0.00344546 0)
(0.0851498 -0.00342282 0)
(0.0865153 -0.00339911 0)
(0.0878711 -0.0033743 0)
(0.0892167 -0.00334837 0)
(0.0905518 -0.00332131 0)
(0.0918758 -0.0032931 0)
(0.0931884 -0.0032637 0)
(0.094489 -0.00323312 0)
(0.0957771 -0.00320133 0)
(0.0970522 -0.00316831 0)
(0.0983139 -0.00313406 0)
(0.0995617 -0.00309856 0)
(0.100795 -0.0030618 0)
(0.102013 -0.00302377 0)
(0.103216 -0.00298447 0)
(0.104403 -0.00294389 0)
(0.105574 -0.00290203 0)
(0.106727 -0.00285889 0)
(0.107863 -0.00281446 0)
(0.108981 -0.00276876 0)
(0.11008 -0.00272177 0)
(0.111161 -0.00267352 0)
(0.112222 -0.00262401 0)
(0.113262 -0.00257325 0)
(0.114282 -0.00252125 0)
(0.115281 -0.00246804 0)
(0.116259 -0.00241361 0)
(0.117214 -0.002358 0)
(0.118147 -0.00230123 0)
(0.119058 -0.00224332 0)
(0.119944 -0.00218429 0)
(0.120807 -0.00212417 0)
(0.121645 -0.002063 0)
(0.122459 -0.00200079 0)
(0.123248 -0.0019376 0)
(0.124011 -0.00187345 0)
(0.124748 -0.00180837 0)
(0.125459 -0.00174242 0)
(0.126144 -0.00167562 0)
(0.126801 -0.00160803 0)
(0.127431 -0.00153967 0)
(0.128034 -0.00147061 0)
(0.128609 -0.00140088 0)
(0.129156 -0.00133053 0)
(0.129675 -0.00125962 0)
(0.130165 -0.00118818 0)
(0.130626 -0.00111628 0)
(0.131058 -0.00104395 0)
(0.131462 -0.000971259 0)
(0.131836 -0.000898253 0)
(0.132181 -0.000824984 0)
(0.132496 -0.000751506 0)
(0.132782 -0.000677871 0)
(0.133039 -0.000604133 0)
(0.133266 -0.000530345 0)
(0.133463 -0.000456558 0)
(0.133631 -0.000382826 0)
(0.133769 -0.000309201 0)
(0.133878 -0.000235734 0)
(0.133957 -0.000162476 0)
(0.134008 -8.94769e-05 0)
(0.134028 -1.67861e-05 0)
(0.13402 5.55483e-05 0)
(0.133983 0.000127479 0)
(0.133917 0.00019896 0)
(0.133823 0.000269946 0)
(0.133701 0.000340393 0)
(0.13355 0.00041026 0)
(0.133371 0.000479505 0)
(0.133165 0.00054809 0)
(0.132932 0.000615975 0)
(0.132671 0.000683126 0)
(0.132384 0.000749507 0)
(0.13207 0.000815085 0)
(0.13173 0.000879829 0)
(0.131364 0.000943709 0)
(0.130973 0.0010067 0)
(0.130557 0.00106877 0)
(0.130117 0.0011299 0)
(0.129652 0.00119006 0)
(0.129163 0.00124924 0)
(0.128651 0.00130741 0)
(0.128115 0.00136456 0)
(0.127557 0.00142068 0)
(0.126977 0.00147574 0)
(0.126375 0.00152974 0)
(0.125751 0.00158266 0)
(0.125107 0.0016345 0)
(0.124441 0.00168525 0)
(0.123756 0.0017349 0)
(0.123052 0.00178345 0)
(0.122328 0.00183089 0)
(0.121585 0.00187723 0)
(0.120824 0.00192246 0)
(0.120045 0.00196658 0)
(0.119249 0.00200961 0)
(0.118435 0.00205153 0)
(0.117605 0.00209236 0)
(0.116759 0.0021321 0)
(0.115898 0.00217076 0)
(0.115021 0.00220834 0)
(0.114129 0.00224486 0)
(0.113223 0.00228033 0)
(0.112303 0.00231475 0)
(0.111369 0.00234814 0)
(0.110423 0.00238051 0)
(0.109463 0.00241187 0)
(0.108491 0.00244223 0)
(0.107508 0.00247162 0)
(0.106512 0.00250005 0)
(0.105506 0.00252752 0)
(0.104489 0.00255406 0)
(0.103461 0.00257968 0)
(0.102423 0.00260441 0)
(0.101376 0.00262825 0)
(0.100319 0.00265122 0)
(0.0992534 0.00267334 0)
(0.098179 0.00269463 0)
(0.0970962 0.00271511 0)
(0.0960054 0.00273479 0)
(0.094907 0.0027537 0)
(0.0938011 0.00277184 0)
(0.0926882 0.00278925 0)
(0.0915684 0.00280593 0)
(0.0904422 0.00282191 0)
(0.0893097 0.0028372 0)
(0.0881712 0.00285182 0)
(0.087027 0.0028658 0)
(0.0858774 0.00287914 0)
(0.0847226 0.00289187 0)
(0.0835629 0.002904 0)
(0.0823984 0.00291556 0)
(0.0812294 0.00292655 0)
(0.0800562 0.00293701 0)
(0.0788789 0.00294693 0)
(0.0776977 0.00295635 0)
(0.0765129 0.00296528 0)
(0.0753246 0.00297373 0)
(0.0741331 0.00298172 0)
(0.0729384 0.00298927 0)
(0.0717409 0.00299639 0)
(0.0705406 0.0030031 0)
(0.0693377 0.00300942 0)
(0.0681324 0.00301535 0)
(0.0669248 0.00302092 0)
(0.065715 0.00302613 0)
(0.0645032 0.00303101 0)
(0.0632896 0.00303557 0)
(0.0620742 0.00303981 0)
(0.0608572 0.00304376 0)
(0.0596387 0.00304742 0)
(0.0584188 0.00305082 0)
(0.0571976 0.00305395 0)
(0.0559752 0.00305685 0)
(0.0547517 0.0030595 0)
(0.0535272 0.00306194 0)
(0.0523018 0.00306416 0)
(0.0510755 0.00306618 0)
(0.0498485 0.00306802 0)
(0.0486208 0.00306968 0)
(0.0473924 0.00307116 0)
(0.0461636 0.00307249 0)
(0.0449342 0.00307367 0)
(0.0437044 0.00307472 0)
(0.0424742 0.00307563 0)
(0.0412436 0.00307642 0)
(0.0400128 0.00307709 0)
(0.0387818 0.00307766 0)
(0.0375505 0.00307814 0)
(0.0363191 0.00307852 0)
(0.0350876 0.00307883 0)
(0.0338559 0.00307906 0)
(0.0326242 0.00307922 0)
(0.0313924 0.00307932 0)
(0.0301606 0.00307936 0)
(0.0289288 0.00307936 0)
(0.0276971 0.00307931 0)
(0.0264653 0.00307923 0)
(0.0252336 0.00307911 0)
(0.024002 0.00307897 0)
(0.0227704 0.0030788 0)
(0.0215389 0.00307862 0)
(0.0203075 0.00307842 0)
(0.0190762 0.00307822 0)
(0.0178449 0.003078 0)
(0.0166138 0.00307779 0)
(0.0153827 0.00307758 0)
(0.0141517 0.00307737 0)
(0.0129208 0.00307717 0)
(0.01169 0.00307698 0)
(0.0104592 0.00307681 0)
(0.00922856 0.00307664 0)
(0.00799795 0.0030765 0)
(0.0067674 0.00307637 0)
(0.0055369 0.00307626 0)
(0.00430643 0.00307617 0)
(0.003076 0.0030761 0)
(0.00184559 0.00307606 0)
(0.000615196 0.00307603 0)
(0.000754693 -0.00528283 0)
(0.00226408 -0.00528283 0)
(0.00377347 -0.00528282 0)
(0.00528286 -0.00528281 0)
(0.00679224 -0.00528278 0)
(0.00830163 -0.00528274 0)
(0.009811 -0.00528268 0)
(0.0113204 -0.00528259 0)
(0.0128297 -0.00528247 0)
(0.014339 -0.00528231 0)
(0.0158483 -0.00528209 0)
(0.0173575 -0.0052818 0)
(0.0188667 -0.00528144 0)
(0.0203757 -0.00528099 0)
(0.0218846 -0.00528043 0)
(0.0233934 -0.00527975 0)
(0.024902 -0.00527894 0)
(0.0264103 -0.00527797 0)
(0.0279184 -0.00527682 0)
(0.0294261 -0.00527548 0)
(0.0309335 -0.00527393 0)
(0.0324404 -0.00527214 0)
(0.0339468 -0.00527009 0)
(0.0354525 -0.00526776 0)
(0.0369577 -0.00526511 0)
(0.038462 -0.00526214 0)
(0.0399655 -0.0052588 0)
(0.041468 -0.00525507 0)
(0.0429694 -0.00525092 0)
(0.0444696 -0.00524632 0)
(0.0459685 -0.00524125 0)
(0.0474658 -0.00523566 0)
(0.0489616 -0.00522953 0)
(0.0504555 -0.00522282 0)
(0.0519475 -0.0052155 0)
(0.0534374 -0.00520754 0)
(0.0549249 -0.00519889 0)
(0.0564099 -0.00518953 0)
(0.0578922 -0.00517942 0)
(0.0593715 -0.00516852 0)
(0.0608477 -0.00515679 0)
(0.0623204 -0.00514419 0)
(0.0637894 -0.00513069 0)
(0.0652545 -0.00511624 0)
(0.0667153 -0.00510082 0)
(0.0681717 -0.00508438 0)
(0.0696233 -0.00506687 0)
(0.0710697 -0.00504827 0)
(0.0725108 -0.00502853 0)
(0.073946 -0.00500762 0)
(0.0753752 -0.00498549 0)
(0.0767979 -0.00496211 0)
(0.0782138 -0.00493744 0)
(0.0796225 -0.00491144 0)
(0.0810237 -0.00488407 0)
(0.0824168 -0.00485531 0)
(0.0838016 -0.00482512 0)
(0.0851776 -0.00479345 0)
(0.0865444 -0.00476028 0)
(0.0879015 -0.00472558 0)
(0.0892485 -0.00468932 0)
(0.090585 -0.00465146 0)
(0.0919104 -0.00461198 0)
(0.0932244 -0.00457086 0)
(0.0945264 -0.00452806 0)
(0.095816 -0.00448357 0)
(0.0970926 -0.00443736 0)
(0.0983558 -0.00438943 0)
(0.0996051 -0.00433974 0)
(0.10084 -0.00428829 0)
(0.10206 -0.00423506 0)
(0.103264 -0.00418005 0)
(0.104453 -0.00412324 0)
(0.105625 -0.00406464 0)
(0.10678 -0.00400424 0)
(0.107917 -0.00394204 0)
(0.109037 -0.00387804 0)
(0.110138 -0.00381226 0)
(0.11122 -0.0037447 0)
(0.112282 -0.00367537 0)
(0.113324 -0.00360428 0)
(0.114346 -0.00353147 0)
(0.115346 -0.00345694 0)
(0.116325 -0.00338072 0)
(0.117282 -0.00330283 0)
(0.118216 -0.00322332 0)
(0.119128 -0.0031422 0)
(0.120016 -0.00305952 0)
(0.12088 -0.00297532 0)
(0.12172 -0.00288963 0)
(0.122534 -0.0028025 0)
(0.123324 -0.00271398 0)
(0.124089 -0.00262411 0)
(0.124827 -0.00253296 0)
(0.125539 -0.00244056 0)
(0.126224 -0.00234699 0)
(0.126883 -0.00225229 0)
(0.127514 -0.00215654 0)
(0.128118 -0.00205978 0)
(0.128693 -0.0019621 0)
(0.129241 -0.00186354 0)
(0.12976 -0.00176419 0)
(0.130251 -0.00166411 0)
(0.130713 -0.00156337 0)
(0.131146 -0.00146205 0)
(0.131549 -0.0013602 0)
(0.131924 -0.00125792 0)
(0.132269 -0.00115527 0)
(0.132585 -0.00105233 0)
(0.132871 -0.000949165 0)
(0.133127 -0.000845858 0)
(0.133354 -0.00074248 0)
(0.133552 -0.000639105 0)
(0.133719 -0.000535808 0)
(0.133858 -0.000432661 0)
(0.133966 -0.000329736 0)
(0.134045 -0.000227104 0)
(0.134095 -0.000124837 0)
(0.134116 -2.30017e-05 0)
(0.134107 7.83325e-05 0)
(0.134069 0.0001791 0)
(0.134003 0.000279236 0)
(0.133908 0.000378677 0)
(0.133785 0.000477363 0)
(0.133633 0.000575234 0)
(0.133454 0.000672233 0)
(0.133247 0.000768304 0)
(0.133013 0.000863394 0)
(0.132751 0.000957454 0)
(0.132463 0.00105043 0)
(0.132148 0.00114229 0)
(0.131807 0.00123297 0)
(0.131441 0.00132244 0)
(0.131049 0.00141066 0)
(0.130631 0.00149759 0)
(0.13019 0.00158321 0)
(0.129724 0.00166746 0)
(0.129233 0.00175034 0)
(0.12872 0.00183181 0)
(0.128183 0.00191184 0)
(0.127624 0.00199042 0)
(0.127042 0.00206753 0)
(0.126439 0.00214314 0)
(0.125814 0.00221724 0)
(0.125168 0.00228983 0)
(0.124502 0.00236088 0)
(0.123815 0.0024304 0)
(0.123109 0.00249837 0)
(0.122384 0.00256479 0)
(0.12164 0.00262967 0)
(0.120878 0.00269299 0)
(0.120097 0.00275476 0)
(0.1193 0.00281499 0)
(0.118485 0.00287367 0)
(0.117654 0.00293083 0)
(0.116807 0.00298645 0)
(0.115944 0.00304056 0)
(0.115065 0.00309317 0)
(0.114172 0.00314428 0)
(0.113265 0.00319392 0)
(0.112344 0.00324209 0)
(0.111409 0.00328882 0)
(0.110461 0.00333412 0)
(0.1095 0.00337801 0)
(0.108527 0.0034205 0)
(0.107542 0.00346162 0)
(0.106546 0.00350139 0)
(0.105538 0.00353984 0)
(0.10452 0.00357697 0)
(0.103491 0.00361282 0)
(0.102452 0.00364741 0)
(0.101404 0.00368076 0)
(0.100346 0.00371289 0)
(0.0992795 0.00374384 0)
(0.0982041 0.00377363 0)
(0.0971203 0.00380227 0)
(0.0960286 0.0038298 0)
(0.0949292 0.00385624 0)
(0.0938225 0.00388162 0)
(0.0927087 0.00390596 0)
(0.0915881 0.00392929 0)
(0.090461 0.00395163 0)
(0.0893276 0.00397301 0)
(0.0881884 0.00399346 0)
(0.0870435 0.004013 0)
(0.0858931 0.00403165 0)
(0.0847376 0.00404945 0)
(0.0835771 0.00406641 0)
(0.0824119 0.00408257 0)
(0.0812423 0.00409794 0)
(0.0800684 0.00411255 0)
(0.0788905 0.00412642 0)
(0.0777087 0.00413958 0)
(0.0765233 0.00415206 0)
(0.0753345 0.00416386 0)
(0.0741424 0.00417503 0)
(0.0729473 0.00418558 0)
(0.0717492 0.00419553 0)
(0.0705484 0.0042049 0)
(0.0693451 0.00421372 0)
(0.0681393 0.004222 0)
(0.0669312 0.00422978 0)
(0.0657211 0.00423706 0)
(0.0645089 0.00424387 0)
(0.0632949 0.00425023 0)
(0.0620792 0.00425615 0)
(0.0608618 0.00426166 0)
(0.059643 0.00426677 0)
(0.0584227 0.00427151 0)
(0.0572012 0.00427588 0)
(0.0559785 0.00427991 0)
(0.0547548 0.00428361 0)
(0.05353 0.00428701 0)
(0.0523043 0.0042901 0)
(0.0510778 0.00429292 0)
(0.0498506 0.00429548 0)
(0.0486227 0.00429778 0)
(0.0473941 0.00429985 0)
(0.0461651 0.0043017 0)
(0.0449355 0.00430334 0)
(0.0437055 0.00430478 0)
(0.0424752 0.00430605 0)
(0.0412445 0.00430714 0)
(0.0400136 0.00430808 0)
(0.0387824 0.00430887 0)
(0.037551 0.00430952 0)
(0.0363195 0.00431005 0)
(0.0350879 0.00431046 0)
(0.0338562 0.00431077 0)
(0.0326244 0.00431099 0)
(0.0313925 0.00431112 0)
(0.0301607 0.00431117 0)
(0.0289288 0.00431116 0)
(0.027697 0.00431109 0)
(0.0264652 0.00431096 0)
(0.0252335 0.00431079 0)
(0.0240018 0.00431058 0)
(0.0227702 0.00431035 0)
(0.0215387 0.00431008 0)
(0.0203073 0.0043098 0)
(0.0190759 0.00430951 0)
(0.0178447 0.00430921 0)
(0.0166135 0.00430891 0)
(0.0153824 0.00430861 0)
(0.0141515 0.00430831 0)
(0.0129206 0.00430803 0)
(0.0116898 0.00430776 0)
(0.010459 0.00430751 0)
(0.00922838 0.00430728 0)
(0.00799779 0.00430707 0)
(0.00676726 0.00430689 0)
(0.00553678 0.00430673 0)
(0.00430634 0.0043066 0)
(0.00307593 0.00430651 0)
(0.00184555 0.00430645 0)
(0.000615182 0.00430642 0)
(0.000754695 -0.00679222 0)
(0.00226409 -0.00679222 0)
(0.00377348 -0.00679221 0)
(0.00528288 -0.0067922 0)
(0.00679228 -0.00679218 0)
(0.00830168 -0.00679213 0)
(0.00981108 -0.00679207 0)
(0.0113205 -0.00679197 0)
(0.0128299 -0.00679183 0)
(0.0143392 -0.00679163 0)
(0.0158486 -0.00679137 0)
(0.0173579 -0.00679102 0)
(0.0188671 -0.00679058 0)
(0.0203763 -0.00679002 0)
(0.0218853 -0.00678933 0)
(0.0233942 -0.00678849 0)
(0.024903 -0.00678747 0)
(0.0264115 -0.00678626 0)
(0.0279198 -0.00678482 0)
(0.0294278 -0.00678313 0)
(0.0309354 -0.00678117 0)
(0.0324426 -0.00677891 0)
(0.0339492 -0.00677632 0)
(0.0354554 -0.00677336 0)
(0.0369609 -0.00677001 0)
(0.0384656 -0.00676623 0)
(0.0399695 -0.00676198 0)
(0.0414725 -0.00675724 0)
(0.0429744 -0.00675195 0)
(0.0444751 -0.0067461 0)
(0.0459745 -0.00673962 0)
(0.0474725 -0.00673249 0)
(0.0489689 -0.00672467 0)
(0.0504635 -0.0067161 0)
(0.0519563 -0.00670675 0)
(0.0534469 -0.00669657 0)
(0.0549352 -0.00668552 0)
(0.056421 -0.00667355 0)
(0.0579042 -0.00666061 0)
(0.0593844 -0.00664666 0)
(0.0608615 -0.00663164 0)
(0.0623353 -0.00661551 0)
(0.0638053 -0.00659822 0)
(0.0652715 -0.00657971 0)
(0.0667335 -0.00655995 0)
(0.0681911 -0.00653887 0)
(0.0696439 -0.00651644 0)
(0.0710916 -0.00649259 0)
(0.072534 -0.00646727 0)
(0.0739706 -0.00644045 0)
(0.0754012 -0.00641206 0)
(0.0768254 -0.00638207 0)
(0.0782428 -0.00635041 0)
(0.079653 -0.00631704 0)
(0.0810558 -0.00628192 0)
(0.0824505 -0.006245 0)
(0.083837 -0.00620624 0)
(0.0852147 -0.00616558 0)
(0.0865832 -0.00612299 0)
(0.0879421 -0.00607843 0)
(0.0892909 -0.00603185 0)
(0.0906292 -0.00598323 0)
(0.0919565 -0.00593251 0)
(0.0932724 -0.00587968 0)
(0.0945763 -0.00582469 0)
(0.0958678 -0.00576753 0)
(0.0971464 -0.00570815 0)
(0.0984116 -0.00564655 0)
(0.0996629 -0.00558269 0)
(0.1009 -0.00551656 0)
(0.102122 -0.00544814 0)
(0.103328 -0.00537742 0)
(0.104519 -0.00530439 0)
(0.105693 -0.00522905 0)
(0.10685 -0.00515139 0)
(0.10799 -0.00507141 0)
(0.109111 -0.00498912 0)
(0.110214 -0.00490453 0)
(0.111298 -0.00481764 0)
(0.112362 -0.00472848 0)
(0.113406 -0.00463705 0)
(0.11443 -0.00454339 0)
(0.115432 -0.00444753 0)
(0.116413 -0.00434948 0)
(0.117372 -0.0042493 0)
(0.118308 -0.00414701 0)
(0.119221 -0.00404266 0)
(0.120111 -0.00393629 0)
(0.120977 -0.00382795 0)
(0.121818 -0.00371771 0)
(0.122635 -0.0036056 0)
(0.123426 -0.00349171 0)
(0.124192 -0.00337608 0)
(0.124932 -0.00325878 0)
(0.125645 -0.00313989 0)
(0.126332 -0.00301948 0)
(0.126992 -0.00289762 0)
(0.127624 -0.0027744 0)
(0.128229 -0.00264989 0)
(0.128806 -0.00252418 0)
(0.129354 -0.00239735 0)
(0.129874 -0.0022695 0)
(0.130366 -0.0021407 0)
(0.130828 -0.00201106 0)
(0.131262 -0.00188065 0)
(0.131666 -0.00174959 0)
(0.132041 -0.00161796 0)
(0.132387 -0.00148585 0)
(0.132703 -0.00135337 0)
(0.132989 -0.0012206 0)
(0.133246 -0.00108765 0)
(0.133473 -0.000954611 0)
(0.13367 -0.000821575 0)
(0.133838 -0.00068864 0)
(0.133975 -0.000555898 0)
(0.134084 -0.000423444 0)
(0.134163 -0.000291369 0)
(0.134212 -0.000159763 0)
(0.134232 -2.8717e-05 0)
(0.134223 0.000101683 0)
(0.134184 0.000231352 0)
(0.134117 0.000360206 0)
(0.134022 0.000488165 0)
(0.133897 0.000615148 0)
(0.133745 0.00074108 0)
(0.133565 0.000865887 0)
(0.133356 0.000989498 0)
(0.133121 0.00111184 0)
(0.132858 0.00123286 0)