/*--------------------------------*- C++ -*----------------------------------*\
| =========                 |                                                 |
| \\      /  F ield         | OpenFOAM: The Open Source CFD Toolbox           |
|  \\    /   O peration     | Version:  v2012                                 |
|   \\  /    A nd           | Website:  www.openfoam.com                      |
|    \\/     M anipulation  |                                                 |
\*---------------------------------------------------------------------------*/
FoamFile
{
    version     2.0;
    format      ascii;
    class       volScalarField;
    location    "8.4";
    object      W;
}
// * * * * * * * * * * * * * * * * * * * * * * * * * * * * * * * * * * * * * //

dimensions      [0 0 -1 0 0 0 0];


internalField   nonuniform List<scalar> 
65536
(
2.15166e-19
6.52475e-19
1.11098e-18
1.60559e-18
2.15234e-18
2.76876e-18
3.47444e-18
4.29151e-18
5.24528e-18
6.36488e-18
7.68397e-18
9.24163e-18
1.10833e-17
1.32618e-17
1.58388e-17
1.88859e-17
2.24864e-17
2.67372e-17
3.17511e-17
3.76586e-17
4.46111e-17
5.2784e-17
6.23797e-17
7.36321e-17
8.68106e-17
1.02225e-16
1.20233e-16
1.41242e-16
1.6572e-16
1.94204e-16
2.27304e-16
2.65718e-16
3.10238e-16
3.61766e-16
4.21322e-16
4.90064e-16
5.69299e-16
6.60502e-16
7.65332e-16
8.85657e-16
1.02357e-15
1.18142e-15
1.36183e-15
1.56772e-15
1.80235e-15
2.06933e-15
2.3727e-15
2.71689e-15
3.1068e-15
3.54786e-15
4.04601e-15
4.60779e-15
5.24036e-15
5.95154e-15
6.74985e-15
7.64457e-15
8.64576e-15
9.76432e-15
1.1012e-14
1.24015e-14
1.39464e-14
1.56613e-14
1.75618e-14
1.96645e-14
2.1987e-14
2.4548e-14
2.73672e-14
3.04654e-14
3.38642e-14
3.75865e-14
4.16558e-14
4.60967e-14
5.09345e-14
5.61951e-14
6.19052e-14
6.80917e-14
7.47822e-14
8.20039e-14
8.97845e-14
9.81511e-14
1.0713e-13
1.16748e-13
1.2703e-13
1.37998e-13
1.49676e-13
1.62084e-13
1.75238e-13
1.89155e-13
2.03845e-13
2.19319e-13
2.3558e-13
2.5263e-13
2.70463e-13
2.89072e-13
3.08442e-13
3.28552e-13
3.49377e-13
3.70885e-13
3.93035e-13
4.15782e-13
4.39072e-13
4.62846e-13
4.87036e-13
5.11567e-13
5.36356e-13
5.61315e-13
5.86348e-13
6.11351e-13
6.36216e-13
6.60829e-13
6.8507e-13
7.08815e-13
7.31936e-13
7.54303e-13
7.75784e-13
7.96246e-13
8.15557e-13
8.33586e-13
8.50204e-13
8.65288e-13
8.7872e-13
8.90388e-13
9.00188e-13
9.08026e-13
9.1382e-13
9.17498e-13
9.19002e-13
9.18288e-13
9.15328e-13
9.10108e-13
9.02634e-13
8.92925e-13
8.8102e-13
8.66974e-13
8.5086e-13
8.32769e-13
8.12805e-13
7.91089e-13
7.67758e-13
7.4296e-13
7.16856e-13
6.89616e-13
6.61419e-13
6.32451e-13
6.02901e-13
5.72963e-13
5.42828e-13
5.12689e-13
4.82734e-13
4.53144e-13
4.24094e-13
3.95751e-13
3.68269e-13
3.41792e-13
3.1645e-13
2.9236e-13
2.69623e-13
2.48325e-13
2.28537e-13
2.10314e-13
1.93695e-13
1.78705e-13
1.65352e-13
1.53631e-13
1.43523e-13
1.34994e-13
1.28e-13
1.22482e-13
1.18373e-13
1.15593e-13
1.14054e-13
1.13659e-13
1.14303e-13
1.15872e-13
1.1825e-13
1.21312e-13
1.2493e-13
1.28975e-13
1.33313e-13
1.37812e-13
1.42341e-13
1.46772e-13
1.50982e-13
1.54853e-13
1.58276e-13
1.61153e-13
1.63397e-13
1.64933e-13
1.65701e-13
1.65659e-13
1.64779e-13
1.63049e-13
1.60476e-13
1.57083e-13
1.52907e-13
1.48002e-13
1.42433e-13
1.36277e-13
1.29619e-13
1.22552e-13
1.15172e-13
1.07577e-13
9.98655e-14
9.21305e-14
8.44617e-14
7.69412e-14
6.96431e-14
6.26315e-14
5.59603e-14
4.96727e-14
4.3801e-14
3.8367e-14
3.33824e-14
2.88498e-14
2.47637e-14
2.11112e-14
1.78739e-14
1.50284e-14
1.25481e-14
1.0404e-14
8.56553e-15
7.00212e-15
5.68339e-15
4.58009e-15
3.66448e-15
2.91077e-15
2.29534e-15
1.79686e-15
1.39636e-15
1.07717e-15
8.24822e-16
6.26922e-16
4.72969e-16
3.54165e-16
2.63223e-16
1.94166e-16
1.4215e-16
1.03284e-16
7.44767e-17
5.32973e-17
3.78509e-17
2.66763e-17
1.86572e-17
1.29488e-17
8.91798e-18
6.09461e-18
4.13286e-18
2.7806e-18
1.85576e-18
1.22791e-18
8.04443e-19
5.20014e-19
3.28713e-19
1.98206e-19
1.05369e-19
3.29665e-20
7.36598e-19
2.23365e-18
3.80317e-18
5.49618e-18
7.36742e-18
9.47689e-18
1.18915e-17
1.46869e-17
1.79495e-17
2.17788e-17
2.62899e-17
3.16162e-17
3.79127e-17
4.53601e-17
5.41682e-17
6.45817e-17
7.6885e-17
9.14086e-17
1.08537e-16
1.28714e-16
1.52458e-16
1.80365e-16
2.13125e-16
2.51534e-16
2.96511e-16
3.4911e-16
4.10545e-16
4.82206e-16
5.65686e-16
6.62805e-16
7.7564e-16
9.0656e-16
1.05826e-15
1.23379e-15
1.43662e-15
1.67068e-15
1.94039e-15
2.25076e-15
2.6074e-15
3.01663e-15
3.48554e-15
4.02207e-15
4.63506e-15
5.3344e-15
6.13107e-15
7.03729e-15
8.06659e-15
9.23394e-15
1.05558e-14
1.20505e-14
1.37379e-14
1.564e-14
1.77808e-14
2.01864e-14
2.28854e-14
2.59089e-14
2.92903e-14
3.30661e-14
3.72753e-14
4.19603e-14
4.71662e-14
5.29414e-14
5.93375e-14
6.64095e-14
7.42155e-14
8.28172e-14
9.22794e-14
1.0267e-13
1.14061e-13
1.26526e-13
1.40143e-13
1.54991e-13
1.71153e-13
1.88713e-13
2.07756e-13
2.2837e-13
2.50643e-13
2.74662e-13
3.00516e-13
3.2829e-13
3.58068e-13
3.89932e-13
4.23959e-13
4.60223e-13
4.9879e-13
5.39721e-13
5.83068e-13
6.28875e-13
6.77173e-13
7.27985e-13
7.81319e-13
8.37169e-13
8.95515e-13
9.56319e-13
1.01953e-12
1.08506e-12
1.15284e-12
1.22273e-12
1.29461e-12
1.36832e-12
1.44368e-12
1.52049e-12
1.59851e-12
1.6775e-12
1.75719e-12
1.83729e-12
1.91747e-12
1.99741e-12
2.07675e-12
2.15511e-12
2.23212e-12
2.30737e-12
2.38046e-12
2.45096e-12
2.51846e-12
2.58254e-12
2.64277e-12
2.69876e-12
2.75008e-12
2.79637e-12
2.83725e-12
2.87238e-12
2.90143e-12
2.92414e-12
2.94024e-12
2.94953e-12
2.95184e-12
2.94704e-12
2.93507e-12
2.91591e-12
2.88957e-12
2.85616e-12
2.8158e-12
2.76869e-12
2.71508e-12
2.65528e-12
2.58962e-12
2.51851e-12
2.44239e-12
2.36174e-12
2.27709e-12
2.18897e-12
2.09797e-12
2.00467e-12
1.90967e-12
1.8136e-12
1.71705e-12
1.62063e-12
1.52493e-12
1.43053e-12
1.33796e-12
1.24775e-12
1.16037e-12
1.07628e-12
9.95864e-13
9.19489e-13
8.47463e-13
7.80048e-13
7.17454e-13
6.59847e-13
6.07338e-13
5.59994e-13
5.17834e-13
4.80832e-13
4.48918e-13
4.2198e-13
3.99869e-13
3.82399e-13
3.69348e-13
3.60464e-13
3.55467e-13
3.54046e-13
3.5587e-13
3.60586e-13
3.6782e-13
3.77186e-13
3.88283e-13
4.00704e-13
4.14036e-13
4.27867e-13
4.41788e-13
4.55403e-13
4.68327e-13
4.80198e-13
4.9068e-13
4.99466e-13
5.06289e-13
5.10919e-13
5.13175e-13
5.12922e-13
5.10077e-13
5.04607e-13
4.96535e-13
4.8593e-13
4.72913e-13
4.57647e-13
4.40338e-13
4.21223e-13
4.00567e-13
3.78656e-13
3.55789e-13
3.32269e-13
3.08395e-13
2.8446e-13
2.60739e-13
2.37484e-13
2.14924e-13
1.93256e-13
1.72646e-13
1.53225e-13
1.35094e-13
1.18317e-13
1.02932e-13
8.89447e-14
7.63373e-14
6.50702e-14
5.50854e-14
4.63107e-14
3.86633e-14
3.20532e-14
2.63865e-14
2.15681e-14
1.75045e-14
1.4105e-14
1.12843e-14
8.96256e-15
7.067e-15
5.53182e-15
4.29851e-15
3.31568e-15
2.53874e-15
1.92949e-15
1.45557e-15
1.08988e-15
8.09975e-16
5.97445e-16
4.37369e-16
3.1777e-16
2.2913e-16
1.63964e-16
1.1644e-16
8.20607e-17
5.73906e-17
3.983e-17
2.74306e-17
1.87458e-17
1.27115e-17
8.55219e-18
5.70757e-18
3.77651e-18
2.47408e-18
1.5993e-18
1.01095e-18
6.09576e-19
3.2406e-19
1.0139e-19
1.56615e-18
4.74908e-18
8.08579e-18
1.16845e-17
1.56614e-17
2.01436e-17
2.52731e-17
3.12101e-17
3.81379e-17
4.62673e-17
5.58417e-17
6.71438e-17
8.05018e-17
9.62976e-17
1.14975e-16
1.37052e-16
1.6313e-16
1.93906e-16
2.30191e-16
2.72927e-16
3.23203e-16
3.82278e-16
4.51607e-16
5.3287e-16
6.27999e-16
7.39217e-16
8.69076e-16
1.0205e-15
1.19684e-15
1.40192e-15
1.6401e-15
1.91635e-15
2.23632e-15
2.60641e-15
3.03389e-15
3.52695e-15
4.09488e-15
4.74809e-15
5.49833e-15
6.35878e-15
7.34419e-15
8.47106e-15
9.75781e-15
1.1225e-14
1.28953e-14
1.47941e-14
1.69494e-14
1.93921e-14
2.21563e-14
2.52795e-14
2.88028e-14
3.27712e-14
3.7234e-14
4.22449e-14
4.7862e-14
5.41486e-14
6.11732e-14
6.90096e-14
7.77373e-14
8.74414e-14
9.82133e-14
1.1015e-13
1.23356e-13
1.37941e-13
1.54021e-13
1.71718e-13
1.91162e-13
2.12487e-13
2.35834e-13
2.61349e-13
2.89182e-13
3.19489e-13
3.52429e-13
3.88166e-13
4.26863e-13
4.68687e-13
5.13803e-13
5.62378e-13
6.14575e-13
6.70552e-13
7.30464e-13
7.94457e-13
8.6267e-13
9.35229e-13
1.01225e-12
1.09383e-12
1.18006e-12
1.27099e-12
1.36667e-12
1.46711e-12
1.57231e-12
1.68223e-12
1.79679e-12
1.91591e-12
2.03945e-12
2.16722e-12
2.29903e-12
2.43461e-12
2.57369e-12
2.71592e-12
2.86093e-12
3.0083e-12
3.15757e-12
3.30824e-12
3.45976e-12
3.61155e-12
3.76299e-12
3.91342e-12
4.06216e-12
4.20849e-12
4.35166e-12
4.49093e-12
4.62552e-12
4.75465e-12
4.87753e-12
4.99338e-12
5.10144e-12
5.20096e-12
5.2912e-12
5.37149e-12
5.44116e-12
5.49962e-12
5.54633e-12
5.58079e-12
5.6026e-12
5.61142e-12
5.60701e-12
5.58918e-12
5.55788e-12
5.51312e-12
5.45503e-12
5.38383e-12
5.29984e-12
5.20348e-12
5.09526e-12
4.97582e-12
4.84583e-12
4.7061e-12
4.55747e-12
4.40089e-12
4.23735e-12
4.06788e-12
3.89356e-12
3.71551e-12
3.53485e-12
3.3527e-12
3.1702e-12
2.98844e-12
2.8085e-12
2.63141e-12
2.45817e-12
2.28969e-12
2.12684e-12
1.97039e-12
1.82106e-12
1.67946e-12
1.54613e-12
1.42151e-12
1.30595e-12
1.19972e-12
1.10298e-12
1.01583e-12
9.3826e-13
8.70199e-13
8.11489e-13
7.61899e-13
7.21133e-13
6.88828e-13
6.64564e-13
6.47864e-13
6.38202e-13
6.35006e-13
6.37665e-13
6.45529e-13
6.57919e-13
6.74132e-13
6.93445e-13
7.15121e-13
7.38419e-13
7.626e-13
7.86934e-13
8.10713e-13
8.33253e-13
8.53913e-13
8.72095e-13
8.8726e-13
8.98936e-13
9.06721e-13
9.10298e-13
9.09433e-13
9.03984e-13
8.93901e-13
8.79226e-13
8.6009e-13
8.36709e-13
8.09379e-13
7.78464e-13
7.44388e-13
7.07622e-13
6.68674e-13
6.2807e-13
5.86347e-13
5.44035e-13
5.01647e-13
4.59667e-13
4.1854e-13
3.78665e-13
3.40388e-13
3.03998e-13
2.69726e-13
2.37744e-13
2.08165e-13
1.8105e-13
1.56408e-13
1.34205e-13
1.1437e-13
9.67978e-14
8.13606e-14
6.79107e-14
5.62885e-14
4.63279e-14
3.78608e-14
3.07216e-14
2.47509e-14
1.97977e-14
1.57217e-14
1.23946e-14
9.7006e-15
7.53675e-15
5.81268e-15
4.45003e-15
3.38166e-15
2.55075e-15
1.90969e-15
1.41908e-15
1.04661e-15
7.66114e-16
5.56567e-16
4.01281e-16
2.8713e-16
2.03891e-16
1.43682e-16
1.0048e-16
6.97302e-17
4.80199e-17
3.28147e-17
2.22507e-17
1.49695e-17
9.99e-18
6.60985e-18
4.33016e-18
2.79906e-18
1.76932e-18
1.06685e-18
5.67152e-19
1.77449e-19
3.03701e-18
9.20894e-18
1.56784e-17
2.26546e-17
3.03622e-17
3.90471e-17
4.89834e-17
6.04811e-17
7.3894e-17
8.96288e-17
1.08156e-16
1.3002e-16
1.55854e-16
1.86395e-16
2.22499e-16
2.65161e-16
3.15539e-16
3.74978e-16
4.45038e-16
5.27527e-16
6.24539e-16
7.38494e-16
8.72186e-16
1.02884e-15
1.21215e-15
1.4264e-15
1.67645e-15
1.96793e-15
2.30722e-15
2.70164e-15
3.15953e-15
3.69037e-15
4.30492e-15
5.0154e-15
5.83562e-15
6.7812e-15
7.86974e-15
9.12105e-15
1.05574e-14
1.22037e-14
1.40879e-14
1.62412e-14
1.86982e-14
2.14978e-14
2.46828e-14
2.83006e-14
3.24038e-14
3.70504e-14
4.23039e-14
4.82345e-14
5.49187e-14
6.24404e-14
7.08906e-14
8.03689e-14
9.09828e-14
1.02849e-13
1.16093e-13
1.3085e-13
1.47266e-13
1.65496e-13
1.85706e-13
2.08073e-13
2.32783e-13
2.60034e-13
2.90036e-13
3.23007e-13
3.59175e-13
3.9878e-13
4.4207e-13
4.89299e-13
5.40732e-13
5.96637e-13
6.5729e-13
7.22969e-13
7.93952e-13
8.7052e-13
9.5295e-13
1.04152e-12
1.13648e-12
1.23811e-12
1.34663e-12
1.46229e-12
1.58529e-12
1.71581e-12
1.85401e-12
2.00004e-12
2.15398e-12
2.31589e-12
2.48581e-12
2.6637e-12
2.84948e-12
3.04304e-12
3.2442e-12
3.45271e-12
3.66828e-12
3.89055e-12
4.11908e-12
4.35337e-12
4.59287e-12
4.83692e-12
5.08484e-12
5.33583e-12
5.58906e-12
5.84362e-12
6.09853e-12
6.35275e-12
6.6052e-12
6.85474e-12
7.10017e-12
7.34028e-12
7.57382e-12
7.79951e-12
8.01606e-12
8.22219e-12
8.41662e-12
8.59808e-12
8.76534e-12
8.91723e-12
9.0526e-12
9.17039e-12
9.26961e-12
9.34937e-12
9.40888e-12
9.44746e-12
9.46456e-12
9.45974e-12
9.43274e-12
9.38343e-12
9.31181e-12
9.21808e-12
9.10258e-12
8.96582e-12
8.80844e-12
8.63129e-12
8.43533e-12
8.22167e-12
7.99159e-12
7.74645e-12
7.48775e-12
7.21709e-12
6.93614e-12
6.64665e-12
6.35042e-12
6.04927e-12
5.74504e-12
5.43956e-12
5.13464e-12
4.83205e-12
4.5335e-12
4.24062e-12
3.95493e-12
3.67789e-12
3.41081e-12
3.15488e-12
2.91116e-12
2.68057e-12
2.46389e-12
2.26175e-12
2.07463e-12
1.90287e-12
1.74667e-12
1.6061e-12
1.48108e-12
1.37143e-12
1.27683e-12
1.19685e-12
1.13097e-12
1.07857e-12
1.03893e-12
1.01127e-12
9.9471e-13
9.88329e-13
9.91134e-13
1.00209e-12
1.02011e-12
1.04408e-12
1.07287e-12
1.10531e-12
1.14025e-12
1.17654e-12
1.21306e-12
1.2487e-12
1.28241e-12
1.31321e-12
1.34019e-12
1.36253e-12
1.3795e-12
1.39052e-12
1.39508e-12
1.39286e-12
1.38365e-12
1.36738e-12
1.34413e-12
1.31411e-12
1.27765e-12
1.23523e-12
1.1874e-12
1.13482e-12
1.0782e-12
1.01834e-12
9.56026e-13
8.92082e-13
8.27315e-13
7.62501e-13
6.98375e-13
6.3561e-13
5.74807e-13
5.16487e-13
4.61083e-13
4.08939e-13
3.6031e-13
3.15363e-13
2.74184e-13
2.36781e-13
2.03099e-13
1.73023e-13
1.46392e-13
1.23007e-13
1.02641e-13
8.505e-14
6.99799e-14
5.71742e-14
4.63809e-14
3.73572e-14
2.98738e-14
2.37176e-14
1.86941e-14
1.46276e-14
1.13624e-14
8.76138e-15
6.70617e-15
5.09521e-15
3.84258e-15
2.87638e-15
2.13708e-15
1.57592e-15
1.1534e-15
8.3781e-16
6.03979e-16
4.32117e-16
3.06813e-16
2.16188e-16
1.51171e-16
1.04899e-16
7.22337e-17
4.93578e-17
3.3466e-17
2.25134e-17
1.50238e-17
9.94004e-18
6.51158e-18
4.20904e-18
2.66052e-18
1.6042e-18
8.52813e-19
2.66826e-19
5.71855e-18
1.73395e-17
2.95192e-17
4.26507e-17
5.71556e-17
7.34955e-17
9.2185e-17
1.13805e-16
1.3902e-16
1.68591e-16
2.034e-16
2.44467e-16
2.92979e-16
3.50313e-16
4.18071e-16
4.98114e-16
5.92608e-16
7.04064e-16
8.35395e-16
9.89979e-16
1.17172e-15
1.38513e-15
1.63542e-15
1.92859e-15
2.27153e-15
2.67219e-15
3.13963e-15
3.68428e-15
4.31801e-15
5.0544e-15
5.90889e-15
6.89903e-15
8.04477e-15
9.36868e-15
1.08963e-14
1.26564e-14
1.46814e-14
1.70078e-14
1.96766e-14
2.27335e-14
2.62298e-14
3.02227e-14
3.47756e-14
3.99592e-14
4.58517e-14
5.25397e-14
6.01186e-14
6.86936e-14
7.83799e-14
8.93043e-14
1.01605e-13
1.15432e-13
1.30951e-13
1.48338e-13
1.67786e-13
1.89504e-13
2.13715e-13
2.40658e-13
2.7059e-13
3.03786e-13
3.40537e-13
3.81151e-13
4.25955e-13
4.75293e-13
5.29524e-13
5.89025e-13
6.5419e-13
7.25423e-13
8.03146e-13
8.87789e-13
9.79792e-13
1.0796e-12
1.18768e-12
1.30447e-12
1.43042e-12
1.566e-12
1.71164e-12
1.86775e-12
2.03477e-12
2.21306e-12
2.403e-12
2.6049e-12
2.81907e-12
3.04573e-12
3.28509e-12
3.53729e-12
3.80239e-12
4.08042e-12
4.3713e-12
4.67489e-12
4.99096e-12
5.31919e-12
5.65916e-12
6.01035e-12
6.37215e-12
6.74384e-12
7.12456e-12
7.51339e-12
7.90927e-12
8.31103e-12
8.71739e-12
9.12698e-12
9.53831e-12
9.9498e-12
1.03598e-11
1.07665e-11
1.11681e-11
1.15627e-11
1.19483e-11
1.2323e-11
1.26847e-11
1.30314e-11
1.33611e-11
1.36717e-11
1.39612e-11
1.42278e-11
1.44696e-11
1.46847e-11
1.48717e-11
1.50289e-11
1.51549e-11
1.52486e-11
1.53088e-11
1.53348e-11
1.5326e-11
1.52818e-11
1.52022e-11
1.50871e-11
1.49369e-11
1.47522e-11
1.45336e-11
1.42823e-11
1.39996e-11
1.36869e-11
1.33461e-11
1.2979e-11
1.25879e-11
1.21749e-11
1.17427e-11
1.12939e-11
1.08311e-11
1.03571e-11
9.87475e-12
9.38697e-12
8.89658e-12
8.40643e-12
7.91925e-12
7.43774e-12
6.96445e-12
6.50181e-12
6.05208e-12
5.61735e-12
5.19952e-12
4.80029e-12
4.42115e-12
4.06334e-12
3.72791e-12
3.41568e-12
3.12723e-12
2.86294e-12
2.62297e-12
2.40727e-12
2.21563e-12
2.04761e-12
1.90263e-12
1.77995e-12
1.67867e-12
1.59777e-12
1.5361e-12
1.4924e-12
1.46531e-12
1.4534e-12
1.45514e-12
1.46896e-12
1.49321e-12
1.52622e-12
1.56629e-12
1.61172e-12
1.66078e-12
1.71179e-12
1.76309e-12
1.81309e-12
1.86027e-12
1.9032e-12
1.94057e-12
1.97121e-12
1.99409e-12
2.00835e-12
2.01334e-12
2.00856e-12
1.99375e-12
1.96883e-12
1.93394e-12
1.88939e-12
1.83569e-12
1.77352e-12
1.70371e-12
1.62719e-12
1.54503e-12
1.45833e-12
1.36826e-12
1.27598e-12
1.18265e-12
1.08937e-12
9.97202e-13
9.07086e-13
8.19879e-13
7.36312e-13
6.56996e-13
5.8241e-13
5.12908e-13
4.48717e-13
3.89947e-13
3.36605e-13
2.886e-13
2.45761e-13
2.0785e-13
1.74579e-13
1.45619e-13
1.20618e-13
9.92107e-14
8.10282e-14
6.571e-14
5.29088e-14
4.2297e-14
3.35709e-14
2.64528e-14
2.0693e-14
1.60695e-14
1.23879e-14
9.47972e-15
7.20084e-15
5.42936e-15
4.06332e-15
3.01835e-15
2.22537e-15
1.62844e-15
1.18267e-15
8.52458e-16
6.09801e-16
4.32914e-16
3.05003e-16
2.1325e-16
1.47961e-16
1.01876e-16
6.96066e-17
4.71915e-17
3.17447e-17
2.11828e-17
1.40142e-17
9.18014e-18
5.93377e-18
3.75064e-18
2.26146e-18
1.20221e-18
3.76145e-19
1.06134e-17
3.21806e-17
5.47821e-17
7.91456e-17
1.06051e-16
1.36354e-16
1.71004e-16
2.11078e-16
2.578e-16
3.12582e-16
3.77049e-16
4.53088e-16
5.42886e-16
6.48985e-16
7.7434e-16
9.22385e-16
1.09711e-15
1.30314e-15
1.54583e-15
1.83141e-15
2.16706e-15
2.56107e-15
3.02302e-15
3.56392e-15
4.19643e-15
4.93511e-15
5.79661e-15
6.79998e-15
7.96699e-15
9.32246e-15
1.08946e-14
1.27155e-14
1.48215e-14
1.72538e-14
2.00589e-14
2.32891e-14
2.70034e-14
3.12681e-14
3.61573e-14
4.1754e-14
4.8151e-14
5.54513e-14
6.37696e-14
7.32331e-14
8.39825e-14
9.61731e-14
1.09976e-13
1.25579e-13
1.43189e-13
1.63031e-13
1.8535e-13
2.10414e-13
2.38514e-13
2.69963e-13
3.05101e-13
3.44293e-13
3.8793e-13
4.36431e-13
4.90244e-13
5.49843e-13
6.15731e-13
6.88442e-13
7.68534e-13
8.56594e-13
9.53236e-13
1.0591e-12
1.17483e-12
1.30113e-12
1.43868e-12
1.58821e-12
1.75042e-12
1.92606e-12
2.11585e-12
2.32051e-12
2.54077e-12
2.77733e-12
3.03085e-12
3.30199e-12
3.59136e-12
3.89951e-12
4.22694e-12
4.5741e-12
4.94135e-12
5.32896e-12
5.73713e-12
6.16593e-12
6.61534e-12
7.0852e-12
7.57523e-12
8.08501e-12
8.61397e-12
9.16139e-12
9.72638e-12
1.03079e-11
1.09047e-11
1.15155e-11
1.21386e-11
1.27723e-11
1.34147e-11
1.40637e-11
1.47172e-11
1.53726e-11
1.60274e-11
1.6679e-11
1.73246e-11
1.79611e-11
1.85857e-11
1.91952e-11
1.97865e-11
2.03565e-11
2.09018e-11
2.14194e-11
2.19061e-11
2.23589e-11
2.27748e-11
2.3151e-11
2.34848e-11
2.37735e-11
2.40151e-11
2.42073e-11
2.43484e-11
2.44367e-11
2.44712e-11
2.44508e-11
2.4375e-11
2.42437e-11
2.40569e-11
2.38151e-11
2.35194e-11
2.31709e-11
2.27713e-11
2.23227e-11
2.18275e-11
2.12883e-11
2.07081e-11
2.00904e-11
1.94386e-11
1.87567e-11
1.80485e-11
1.73183e-11
1.65704e-11
1.58091e-11
1.50388e-11
1.42639e-11
1.34887e-11
1.27175e-11
1.19544e-11
1.12032e-11
1.04679e-11
9.75173e-12
9.05807e-12
8.38983e-12
7.74964e-12
7.13982e-12
6.56234e-12
6.01886e-12
5.51067e-12
5.03874e-12
4.60371e-12
4.20589e-12
3.84528e-12
3.52161e-12
3.23431e-12
2.98257e-12
2.76534e-12
2.58133e-12
2.42909e-12
2.30696e-12
2.21312e-12
2.14563e-12
2.1024e-12
2.08125e-12
2.0799e-12
2.09599e-12
2.12711e-12
2.1708e-12
2.2246e-12
2.286e-12
2.35257e-12
2.42188e-12
2.49157e-12
2.55939e-12
2.62317e-12
2.68094e-12
2.73084e-12
2.77125e-12
2.80076e-12
2.81819e-12
2.82263e-12
2.81346e-12
2.7903e-12
2.75311e-12
2.70208e-12
2.6377e-12
2.56071e-12
2.47207e-12
2.37295e-12
2.2647e-12
2.14879e-12
2.02677e-12
1.90026e-12
1.7709e-12
1.64028e-12
1.50993e-12
1.3813e-12
1.2557e-12
1.13429e-12
1.01808e-12
9.07887e-13
8.04368e-13
7.07992e-13
6.19056e-13
5.37699e-13
4.63912e-13
3.97556e-13
3.38383e-13
2.86053e-13
2.40156e-13
2.00232e-13
1.65785e-13
1.36305e-13
1.11281e-13
9.0209e-14
7.26084e-14
5.80251e-14
4.60384e-14
3.6265e-14
2.83597e-14
2.20166e-14
1.69676e-14
1.29807e-14
9.85757e-15
7.43064e-15
5.55974e-15
4.12899e-15
3.04357e-15
2.22671e-15
1.61686e-15
1.16521e-15
8.33383e-16
5.91548e-16
4.16706e-16
2.9131e-16
2.02098e-16
1.39135e-16
9.50539e-17
6.44382e-17
4.33428e-17
2.892e-17
1.91319e-17
1.25319e-17
8.09993e-18
5.11968e-18
3.08687e-18
1.64099e-18
5.13426e-19
1.9491e-17
5.90966e-17
1.00597e-16
1.45326e-16
1.94712e-16
2.5032e-16
3.13891e-16
3.87394e-16
4.73071e-16
5.73501e-16
6.91659e-16
8.3099e-16
9.95492e-16
1.18981e-15
1.41934e-15
1.69034e-15
2.01009e-15
2.38703e-15
2.83094e-15
3.35314e-15
3.96671e-15
4.68676e-15
5.53069e-15
6.51854e-15
7.67333e-15
9.02147e-15
1.05932e-14
1.24231e-14
1.45505e-14
1.70206e-14
1.98842e-14
2.31995e-14
2.70322e-14
3.14565e-14
3.65562e-14
4.24259e-14
4.91716e-14
5.69123e-14
6.57814e-14
7.59278e-14
8.75174e-14
1.00735e-13
1.15785e-13
1.32894e-13
1.52314e-13
1.7432e-13
1.99217e-13
2.27336e-13
2.59044e-13
2.94737e-13
3.34849e-13
3.7985e-13
4.30249e-13
4.86595e-13
5.49481e-13
6.1954e-13
6.97453e-13
7.83944e-13
8.79783e-13
9.85787e-13
1.10282e-12
1.23178e-12
1.37363e-12
1.52936e-12
1.69999e-12
1.88659e-12
2.09026e-12
2.31213e-12
2.55335e-12
2.81507e-12
3.09847e-12
3.40471e-12
3.73496e-12
4.09036e-12
4.47201e-12
4.881e-12
5.31833e-12
5.78495e-12
6.28173e-12
6.80945e-12
7.36876e-12
7.9602e-12
8.58417e-12
9.24091e-12
9.93049e-12
1.06528e-11
1.14075e-11
1.21941e-11
1.30118e-11
1.38597e-11
1.47364e-11
1.56406e-11
1.65703e-11
1.75236e-11
1.84983e-11
1.94916e-11
2.05008e-11
2.15227e-11
2.25539e-11
2.35909e-11
2.46297e-11
2.56663e-11
2.66964e-11
2.77154e-11
2.87188e-11
2.97018e-11
3.06595e-11
3.1587e-11
3.24793e-11
3.33315e-11
3.41386e-11
3.48959e-11
3.55986e-11
3.62421e-11
3.68222e-11
3.73347e-11
3.77759e-11
3.81423e-11
3.84308e-11
3.86387e-11
3.87638e-11
3.88044e-11
3.87591e-11
3.86274e-11
3.84088e-11
3.8104e-11
3.77137e-11
3.72396e-11
3.66837e-11
3.60487e-11
3.53378e-11
3.45547e-11
3.37036e-11
3.27893e-11
3.18169e-11
3.0792e-11
2.97203e-11
2.86081e-11
2.74617e-11
2.62877e-11
2.50927e-11
2.38835e-11
2.26666e-11
2.14489e-11
2.02366e-11
1.9036e-11
1.78532e-11
1.66939e-11
1.55634e-11
1.44666e-11
1.34081e-11
1.23918e-11
1.14214e-11
1.04999e-11
9.62986e-12
8.81331e-12
8.0518e-12
7.34633e-12
6.69748e-12
6.10532e-12
5.5695e-12
5.08927e-12
4.66346e-12
4.29058e-12
3.9688e-12
3.696e-12
3.4698e-12
3.28759e-12
3.14654e-12
3.04367e-12
2.97581e-12
2.93969e-12
2.93193e-12
2.94907e-12
2.98758e-12
3.04392e-12
3.11452e-12
3.19584e-12
3.28439e-12
3.37674e-12
3.4696e-12
3.55979e-12
3.64433e-12
3.72046e-12
3.78566e-12
3.83768e-12
3.87461e-12
3.89487e-12
3.89725e-12
3.88091e-12
3.84541e-12
3.79072e-12
3.71716e-12
3.62545e-12
3.51663e-12
3.39208e-12
3.25342e-12
3.10252e-12
2.94142e-12
2.77227e-12
2.59728e-12
2.41869e-12
2.23869e-12
2.05934e-12
1.88262e-12
1.71028e-12
1.54391e-12
1.38485e-12
1.23419e-12
1.0928e-12
9.61296e-13
8.40057e-13
7.29246e-13
6.28829e-13
5.38598e-13
4.58195e-13
3.87142e-13
3.24868e-13
2.70732e-13
2.24054e-13
1.84132e-13
1.50262e-13
1.21759e-13
9.79632e-14
7.82571e-14
6.20679e-14
4.88741e-14
3.82071e-14
2.96517e-14
2.28445e-14
1.74713e-14
1.3264e-14
9.99562e-15
7.47694e-15
5.55143e-15
4.09112e-15
2.99243e-15
2.17241e-15
1.56526e-15
1.1193e-15
7.94361e-16
5.59484e-16
3.91066e-16
2.71267e-16
1.86732e-16
1.27557e-16
8.64634e-17
5.81524e-17
3.87986e-17
2.56654e-17
1.68106e-17
1.0865e-17
6.86713e-18
4.14039e-18
2.20101e-18
6.88642e-19
3.54545e-17
1.07496e-16
1.82976e-16
2.64316e-16
3.54109e-16
4.55192e-16
5.70727e-16
7.0428e-16
8.59919e-16
1.04231e-15
1.25686e-15
1.50979e-15
1.80835e-15
2.16094e-15
2.57732e-15
3.06882e-15
3.64861e-15
4.33192e-15
5.13643e-15
6.08258e-15
7.19399e-15
8.4979e-15
1.00257e-14
1.18135e-14
1.39028e-14
1.63412e-14
1.91829e-14
2.24903e-14
2.63341e-14
3.07951e-14
3.5965e-14
4.19478e-14
4.88612e-14
5.68382e-14
6.60287e-14
7.66014e-14
8.87458e-14
1.02674e-13
1.18624e-13
1.3686e-13
1.57677e-13
1.81403e-13
2.08401e-13
2.39071e-13
2.73858e-13
3.13249e-13
3.57778e-13
4.0803e-13
4.64647e-13
5.28324e-13
5.99819e-13
6.7995e-13
7.69605e-13
8.69736e-13
9.81368e-13
1.1056e-12
1.24359e-12
1.39659e-12
1.56592e-12
1.75297e-12
1.9592e-12
2.18615e-12
2.43541e-12
2.70865e-12
3.00758e-12
3.33399e-12
3.68966e-12
4.07646e-12
4.49625e-12
4.9509e-12
5.44228e-12
5.97226e-12
6.54264e-12
7.1552e-12
7.81163e-12
8.51353e-12
9.26238e-12
1.00595e-11
1.09062e-11
1.18034e-11
1.27518e-11
1.37521e-11
1.48046e-11
1.59093e-11
1.70659e-11
1.82738e-11
1.95321e-11
2.08394e-11
2.2194e-11
2.35938e-11
2.50363e-11
2.65185e-11
2.80371e-11
2.95883e-11
3.11677e-11
3.27708e-11
3.43925e-11
3.60273e-11
3.76692e-11
3.93122e-11
4.09496e-11
4.25745e-11
4.41798e-11
4.57583e-11
4.73022e-11
4.8804e-11
5.0256e-11
5.16504e-11
5.29793e-11
5.42354e-11
5.54109e-11
5.64988e-11
5.7492e-11
5.8384e-11
5.91686e-11
5.98401e-11
6.03932e-11
6.08235e-11
6.11271e-11
6.13006e-11
6.13417e-11
6.12486e-11
6.10205e-11
6.06573e-11
6.01599e-11
5.95299e-11
5.877e-11
5.78835e-11
5.68747e-11
5.57487e-11
5.45115e-11
5.31696e-11
5.17303e-11
5.02017e-11
4.85922e-11
4.6911e-11
4.51674e-11
4.33711e-11
4.15324e-11
3.96612e-11
3.77678e-11
3.58624e-11
3.39551e-11
3.20557e-11
3.01737e-11
2.83182e-11
2.6498e-11
2.4721e-11
2.29949e-11
2.13265e-11
1.9722e-11
1.81868e-11
1.67256e-11
1.53424e-11
1.40402e-11
1.28215e-11
1.16879e-11
1.06403e-11
9.67888e-12
8.80329e-12
8.01242e-12
7.30464e-12
6.67778e-12
6.1292e-12
5.65582e-12
5.25419e-12
4.9205e-12
4.65066e-12
4.44033e-12
4.28495e-12
4.17979e-12
4.11998e-12
4.10054e-12
4.11641e-12
4.16249e-12
4.23368e-12
4.32488e-12
4.43108e-12
4.54735e-12
4.66889e-12
4.7911e-12
4.90959e-12
5.02024e-12
5.11925e-12
5.20318e-12
5.26901e-12
5.31413e-12
5.33645e-12
5.33436e-12
5.3068e-12
5.25323e-12
5.17366e-12
5.0686e-12
4.93909e-12
4.78661e-12
4.61308e-12
4.42076e-12
4.21222e-12
3.99024e-12
3.75777e-12
3.51783e-12
3.27344e-12
3.02755e-12
2.78297e-12
2.54232e-12
2.30798e-12
2.08204e-12
1.86629e-12
1.66217e-12
1.47081e-12
1.29302e-12
1.12926e-12
9.79719e-13
8.44327e-13
7.2277e-13
6.1454e-13
5.18968e-13
4.35265e-13
3.62553e-13
2.99899e-13
2.46347e-13
2.00943e-13
1.62754e-13
1.30892e-13
1.04519e-13
8.28647e-14
6.52254e-14
5.09711e-14
3.95437e-14
3.04554e-14
2.32847e-14
1.76719e-14
1.33136e-14
9.95606e-15
7.39015e-15
5.44479e-15
3.98163e-15
2.8899e-15
2.08178e-15
1.48837e-15
1.05609e-15
7.437e-16
5.19747e-16
3.60475e-16
2.48107e-16
1.69462e-16
1.14857e-16
7.72415e-17
5.15303e-17
3.40851e-17
2.23241e-17
1.44278e-17
9.11868e-18
5.49778e-18
2.92255e-18
9.1439e-19
6.38985e-17
1.93732e-16
3.29752e-16
4.7631e-16
6.38072e-16
8.20141e-16
1.0282e-15
1.26865e-15
1.54882e-15
1.87707e-15
2.26311e-15
2.71813e-15
3.25512e-15
3.88916e-15
4.63776e-15
5.52123e-15
6.56316e-15
7.79088e-15
9.23602e-15
1.09352e-14
1.29306e-14
1.52711e-14
1.80128e-14
2.12202e-14
2.49674e-14
2.93392e-14
3.44328e-14
4.03591e-14
4.72443e-14
5.52322e-14
6.4486e-14
7.51906e-14
8.75554e-14
1.01816e-13
1.18239e-13
1.37124e-13
1.58805e-13
1.83659e-13
2.12104e-13
2.44609e-13
2.81693e-13
3.23933e-13
3.71968e-13
4.26503e-13
4.88314e-13
5.58254e-13
6.37259e-13
7.2635e-13
8.26642e-13
9.39346e-13
1.06577e-12
1.20735e-12
1.36559e-12
1.54216e-12
1.7388e-12
1.95739e-12
2.19994e-12
2.46856e-12
2.76549e-12
3.09307e-12
3.45379e-12
3.85021e-12
4.285e-12
4.76094e-12
5.28086e-12
5.84767e-12
6.46434e-12
7.13386e-12
7.85925e-12
8.64349e-12
9.48956e-12
1.04003e-11
1.13787e-11
1.24272e-11
1.35486e-11
1.4745e-11
1.60186e-11
1.73713e-11
1.88046e-11
2.03197e-11
2.19174e-11
2.35982e-11
2.53618e-11
2.72078e-11
2.91351e-11
3.11419e-11
3.3226e-11
3.53846e-11
3.7614e-11
3.991e-11
4.22679e-11
4.46819e-11
4.71459e-11
4.96529e-11
5.21953e-11
5.47649e-11
5.73527e-11
5.99494e-11
6.25449e-11
6.51287e-11
6.76898e-11
7.02168e-11
7.26982e-11
7.51219e-11
7.74759e-11
7.97481e-11
8.19263e-11
8.39984e-11
8.59527e-11
8.77775e-11
8.94617e-11
9.09947e-11
9.23664e-11
9.35675e-11
9.45893e-11
9.54242e-11
9.60654e-11
9.65072e-11
9.6745e-11
9.67753e-11
9.65959e-11
9.62059e-11
9.56055e-11
9.47966e-11
9.37819e-11
9.25659e-11
9.11541e-11
8.95535e-11
8.77722e-11
8.58193e-11
8.37055e-11
8.1442e-11
7.90413e-11
7.65166e-11
7.38817e-11
7.11513e-11
6.83403e-11
6.5464e-11
6.25379e-11
5.95778e-11
5.6599e-11
5.3617e-11
5.06466e-11
4.77022e-11
4.47979e-11
4.19467e-11
3.9161e-11
3.64522e-11
3.38308e-11
3.1306e-11
2.88863e-11
2.65788e-11
2.43895e-11
2.23232e-11
2.03836e-11
1.85732e-11
1.68937e-11
1.53453e-11
1.39275e-11
1.26388e-11
1.14769e-11
1.04387e-11
9.52014e-12
8.71689e-12
8.02383e-12
7.43542e-12
6.94567e-12
6.54824e-12
6.2365e-12
6.00357e-12
5.84239e-12
5.74576e-12
5.70637e-12
5.71688e-12
5.76995e-12
5.85826e-12
5.97458e-12
6.11183e-12
6.26307e-12
6.42162e-12
6.58109e-12
6.73542e-12
6.87894e-12
7.00649e-12
7.11337e-12
7.1955e-12
7.24942e-12
7.27233e-12
7.26212e-12
7.21744e-12
7.13765e-12
7.02284e-12
6.87382e-12
6.69206e-12
6.47966e-12
6.23925e-12
5.97398e-12
5.68735e-12
5.38317e-12
5.06543e-12
4.73822e-12
4.4056e-12
4.07156e-12
3.73984e-12
3.41395e-12
3.09705e-12
2.79191e-12
2.50088e-12
2.22587e-12
1.96833e-12
1.72929e-12
1.50934e-12
1.30868e-12
1.12716e-12
9.64334e-13
8.19473e-13
6.91656e-13
5.79795e-13
4.82691e-13
3.99078e-13
3.27659e-13
2.67143e-13
2.16276e-13
1.7386e-13
1.38772e-13
1.09976e-13
8.65318e-14
6.75958e-14
5.24224e-14
4.03602e-14
3.08472e-14
2.34041e-14
1.76267e-14
1.31777e-14
9.77882e-15
7.20281e-15
5.26593e-15
3.82117e-15
2.75204e-15
1.96717e-15
1.39557e-15
9.82584e-16
6.86583e-16
4.76114e-16
3.27654e-16
2.23767e-16
1.51646e-16
1.01972e-16
6.80233e-17
4.49912e-17
2.94653e-17
1.90422e-17
1.20346e-17
7.25565e-18
3.85696e-18
1.20673e-18
1.1411e-16
3.45961e-16
5.88841e-16
8.50508e-16
1.13928e-15
1.46424e-15
1.83553e-15
2.26455e-15
2.76433e-15
3.34981e-15
4.03821e-15
4.84947e-15
5.80672e-15
6.93676e-15
8.27073e-15
9.84476e-15
1.17007e-14
1.38872e-14
1.64604e-14
1.94853e-14
2.30368e-14
2.72015e-14
3.20789e-14
3.77834e-14
4.44462e-14
5.22177e-14
6.12696e-14
7.1798e-14
8.40263e-14
9.82085e-14
1.14633e-13
1.33625e-13
1.55555e-13
1.80837e-13
2.09942e-13
2.43393e-13
2.81781e-13
3.25766e-13
3.76082e-13
4.33549e-13
4.99076e-13
5.73673e-13
6.58452e-13
7.54643e-13
8.63598e-13
9.86799e-13
1.12587e-12
1.28258e-12
1.45885e-12
1.65678e-12
1.87863e-12
2.12684e-12
2.40403e-12
2.713e-12
3.05678e-12
3.43854e-12
3.86168e-12
4.32978e-12
4.84662e-12
5.41615e-12
6.0425e-12
6.72994e-12
7.48293e-12
8.30603e-12
9.20389e-12
1.01813e-11
1.1243e-11
1.23939e-11
1.36387e-11
1.49822e-11
1.64291e-11
1.79838e-11
1.96506e-11
2.14336e-11
2.33364e-11
2.53624e-11
2.75145e-11
2.9795e-11
3.22059e-11
3.47482e-11
3.74225e-11
4.02286e-11
4.31653e-11
4.62308e-11
4.94222e-11
5.27356e-11
5.61662e-11
5.97082e-11
6.33545e-11
6.70973e-11
7.09273e-11
7.48343e-11
7.88071e-11
8.28332e-11
8.68995e-11
9.09915e-11
9.50939e-11
9.91908e-11
1.03265e-10
1.073e-10
1.11276e-10
1.15176e-10
1.18981e-10
1.22671e-10
1.26228e-10
1.29632e-10
1.32864e-10
1.35907e-10
1.38743e-10
1.41353e-10
1.43722e-10
1.45835e-10
1.47676e-10
1.49234e-10
1.50497e-10
1.51455e-10
1.52099e-10
1.52423e-10
1.52422e-10
1.52093e-10
1.51436e-10
1.50451e-10
1.49142e-10
1.47514e-10
1.45573e-10
1.4333e-10
1.40795e-10
1.37981e-10
1.34903e-10
1.31578e-10
1.28022e-10
1.24256e-10
1.203e-10
1.16175e-10
1.11903e-10
1.07509e-10
1.03014e-10
9.84439e-11
9.38212e-11
8.91701e-11
8.45137e-11
7.98748e-11
7.52754e-11
7.07366e-11
6.62784e-11
6.19196e-11
5.76774e-11