/*--------------------------------*- C++ -*----------------------------------*\
| =========                 |                                                 |
| \\      /  F ield         | OpenFOAM: The Open Source CFD Toolbox           |
|  \\    /   O peration     | Version:  v2012                                 |
|   \\  /    A nd           | Website:  www.openfoam.com                      |
|    \\/     M anipulation  |                                                 |
\*---------------------------------------------------------------------------*/
FoamFile
{
    version     2.0;
    format      ascii;
    class       volVectorField;
    location    "5.6";
    object      Psi;
}
// * * * * * * * * * * * * * * * * * * * * * * * * * * * * * * * * * * * * * //

dimensions      [0 2 -1 0 0 0 0];


internalField   nonuniform List<vector> 
65536
(
(0 0 9.13993e-06)
(0 0 2.74194e-05)
(0 0 4.56979e-05)
(0 0 6.39747e-05)
(0 0 8.22491e-05)
(0 0 0.000100521)
(0 0 0.000118788)
(0 0 0.000137052)
(0 0 0.00015531)
(0 0 0.000173562)
(0 0 0.000191807)
(0 0 0.000210045)
(0 0 0.000228274)
(0 0 0.000246494)
(0 0 0.000264704)
(0 0 0.000282902)
(0 0 0.000301088)
(0 0 0.000319261)
(0 0 0.000337418)
(0 0 0.00035556)
(0 0 0.000373685)
(0 0 0.000391792)
(0 0 0.000409878)
(0 0 0.000427944)
(0 0 0.000445986)
(0 0 0.000464004)
(0 0 0.000481995)
(0 0 0.000499959)
(0 0 0.000517893)
(0 0 0.000535795)
(0 0 0.000553663)
(0 0 0.000571495)
(0 0 0.000589289)
(0 0 0.000607042)
(0 0 0.000624753)
(0 0 0.000642418)
(0 0 0.000660035)
(0 0 0.000677602)
(0 0 0.000695115)
(0 0 0.000712571)
(0 0 0.000729968)
(0 0 0.000747303)
(0 0 0.000764572)
(0 0 0.000781772)
(0 0 0.0007989)
(0 0 0.000815952)
(0 0 0.000832924)
(0 0 0.000849814)
(0 0 0.000866616)
(0 0 0.000883328)
(0 0 0.000899945)
(0 0 0.000916463)
(0 0 0.000932878)
(0 0 0.000949186)
(0 0 0.000965382)
(0 0 0.000981462)
(0 0 0.000997422)
(0 0 0.00101326)
(0 0 0.00102896)
(0 0 0.00104453)
(0 0 0.00105997)
(0 0 0.00107525)
(0 0 0.00109039)
(0 0 0.00110538)
(0 0 0.00112021)
(0 0 0.00113487)
(0 0 0.00114936)
(0 0 0.00116368)
(0 0 0.00117783)
(0 0 0.00119179)
(0 0 0.00120556)
(0 0 0.00121913)
(0 0 0.00123251)
(0 0 0.00124568)
(0 0 0.00125864)
(0 0 0.00127139)
(0 0 0.00128392)
(0 0 0.00129623)
(0 0 0.00130831)
(0 0 0.00132015)
(0 0 0.00133176)
(0 0 0.00134312)
(0 0 0.00135424)
(0 0 0.0013651)
(0 0 0.00137571)
(0 0 0.00138605)
(0 0 0.00139613)
(0 0 0.00140594)
(0 0 0.00141548)
(0 0 0.00142474)
(0 0 0.00143372)
(0 0 0.00144242)
(0 0 0.00145083)
(0 0 0.00145895)
(0 0 0.00146678)
(0 0 0.00147431)
(0 0 0.00148154)
(0 0 0.00148846)
(0 0 0.00149509)
(0 0 0.0015014)
(0 0 0.00150741)
(0 0 0.00151311)
(0 0 0.0015185)
(0 0 0.00152357)
(0 0 0.00152832)
(0 0 0.00153277)
(0 0 0.00153689)
(0 0 0.0015407)
(0 0 0.00154419)
(0 0 0.00154736)
(0 0 0.00155021)
(0 0 0.00155274)
(0 0 0.00155496)
(0 0 0.00155686)
(0 0 0.00155844)
(0 0 0.0015597)
(0 0 0.00156065)
(0 0 0.00156128)
(0 0 0.00156161)
(0 0 0.00156162)
(0 0 0.00156132)
(0 0 0.00156071)
(0 0 0.0015598)
(0 0 0.00155858)
(0 0 0.00155706)
(0 0 0.00155524)
(0 0 0.00155313)
(0 0 0.00155072)
(0 0 0.00154802)
(0 0 0.00154503)
(0 0 0.00154176)
(0 0 0.0015382)
(0 0 0.00153437)
(0 0 0.00153026)
(0 0 0.00152588)
(0 0 0.00152123)
(0 0 0.00151632)
(0 0 0.00151114)
(0 0 0.00150571)
(0 0 0.00150002)
(0 0 0.00149408)
(0 0 0.0014879)
(0 0 0.00148147)
(0 0 0.00147481)
(0 0 0.00146791)
(0 0 0.00146078)
(0 0 0.00145343)
(0 0 0.00144585)
(0 0 0.00143805)
(0 0 0.00143005)
(0 0 0.00142183)
(0 0 0.0014134)
(0 0 0.00140478)
(0 0 0.00139595)
(0 0 0.00138694)
(0 0 0.00137773)
(0 0 0.00136834)
(0 0 0.00135877)
(0 0 0.00134902)
(0 0 0.00133909)
(0 0 0.001329)
(0 0 0.00131874)
(0 0 0.00130832)
(0 0 0.00129774)
(0 0 0.00128701)
(0 0 0.00127613)
(0 0 0.0012651)
(0 0 0.00125393)
(0 0 0.00124262)
(0 0 0.00123117)
(0 0 0.0012196)
(0 0 0.00120789)
(0 0 0.00119606)
(0 0 0.0011841)
(0 0 0.00117203)
(0 0 0.00115984)
(0 0 0.00114754)
(0 0 0.00113513)
(0 0 0.00112262)
(0 0 0.00111)
(0 0 0.00109729)
(0 0 0.00108447)
(0 0 0.00107157)
(0 0 0.00105857)
(0 0 0.00104548)
(0 0 0.00103231)
(0 0 0.00101906)
(0 0 0.00100572)
(0 0 0.000992313)
(0 0 0.000978827)
(0 0 0.000965268)
(0 0 0.000951638)
(0 0 0.000937941)
(0 0 0.000924179)
(0 0 0.000910353)
(0 0 0.000896466)
(0 0 0.00088252)
(0 0 0.000868517)
(0 0 0.00085446)
(0 0 0.000840349)
(0 0 0.000826188)
(0 0 0.000811977)
(0 0 0.00079772)
(0 0 0.000783417)
(0 0 0.00076907)
(0 0 0.000754681)
(0 0 0.000740252)
(0 0 0.000725785)
(0 0 0.00071128)
(0 0 0.000696739)
(0 0 0.000682164)
(0 0 0.000667557)
(0 0 0.000652918)
(0 0 0.000638249)
(0 0 0.000623551)
(0 0 0.000608826)
(0 0 0.000594074)
(0 0 0.000579297)
(0 0 0.000564496)
(0 0 0.000549673)
(0 0 0.000534827)
(0 0 0.000519961)
(0 0 0.000505075)
(0 0 0.00049017)
(0 0 0.000475247)
(0 0 0.000460308)
(0 0 0.000445352)
(0 0 0.00043038)
(0 0 0.000415395)
(0 0 0.000400395)
(0 0 0.000385383)
(0 0 0.000370358)
(0 0 0.000355322)
(0 0 0.000340275)
(0 0 0.000325217)
(0 0 0.00031015)
(0 0 0.000295074)
(0 0 0.000279989)
(0 0 0.000264897)
(0 0 0.000249797)
(0 0 0.00023469)
(0 0 0.000219577)
(0 0 0.000204459)
(0 0 0.000189334)
(0 0 0.000174205)
(0 0 0.000159071)
(0 0 0.000143934)
(0 0 0.000128792)
(0 0 0.000113648)
(0 0 9.85004e-05)
(0 0 8.33505e-05)
(0 0 6.81987e-05)
(0 0 5.30451e-05)
(0 0 3.78903e-05)
(0 0 2.27345e-05)
(0 0 7.57824e-06)
(0 0 2.742e-05)
(0 0 8.2259e-05)
(0 0 0.000137095)
(0 0 0.000191926)
(0 0 0.00024675)
(0 0 0.000301565)
(0 0 0.000356369)
(0 0 0.000411159)
(0 0 0.000465934)
(0 0 0.000520692)
(0 0 0.000575428)
(0 0 0.000630143)
(0 0 0.000684831)
(0 0 0.000739492)
(0 0 0.000794122)
(0 0 0.000848718)
(0 0 0.000903276)
(0 0 0.000957795)
(0 0 0.00101227)
(0 0 0.0010667)
(0 0 0.00112107)
(0 0 0.00117539)
(0 0 0.00122965)
(0 0 0.00128385)
(0 0 0.00133798)
(0 0 0.00139204)
(0 0 0.00144601)
(0 0 0.0014999)
(0 0 0.00155371)
(0 0 0.00160742)
(0 0 0.00166102)
(0 0 0.00171452)
(0 0 0.0017679)
(0 0 0.00182117)
(0 0 0.0018743)
(0 0 0.0019273)
(0 0 0.00198015)
(0 0 0.00203286)
(0 0 0.0020854)
(0 0 0.00213777)
(0 0 0.00218996)
(0 0 0.00224197)
(0 0 0.00229378)
(0 0 0.00234539)
(0 0 0.00239677)
(0 0 0.00244793)
(0 0 0.00249885)
(0 0 0.00254952)
(0 0 0.00259994)
(0 0 0.00265007)
(0 0 0.00269993)
(0 0 0.00274949)
(0 0 0.00279874)
(0 0 0.00284766)
(0 0 0.00289626)
(0 0 0.0029445)
(0 0 0.00299239)
(0 0 0.0030399)
(0 0 0.00308702)
(0 0 0.00313373)
(0 0 0.00318004)
(0 0 0.0032259)
(0 0 0.00327133)
(0 0 0.00331629)
(0 0 0.00336077)
(0 0 0.00340477)
(0 0 0.00344826)
(0 0 0.00349123)
(0 0 0.00353366)
(0 0 0.00357554)
(0 0 0.00361685)
(0 0 0.00365759)
(0 0 0.00369772)
(0 0 0.00373725)
(0 0 0.00377614)
(0 0 0.00381439)
(0 0 0.00385199)
(0 0 0.00388892)
(0 0 0.00392515)
(0 0 0.00396069)
(0 0 0.00399551)
(0 0 0.0040296)
(0 0 0.00406295)
(0 0 0.00409555)
(0 0 0.00412737)
(0 0 0.00415841)
(0 0 0.00418866)
(0 0 0.0042181)
(0 0 0.00424672)
(0 0 0.0042745)
(0 0 0.00430145)
(0 0 0.00432755)
(0 0 0.00435278)
(0 0 0.00437714)
(0 0 0.00440062)
(0 0 0.00442321)
(0 0 0.0044449)
(0 0 0.00446569)
(0 0 0.00448556)
(0 0 0.00450451)
(0 0 0.00452254)
(0 0 0.00453964)
(0 0 0.00455579)
(0 0 0.00457101)
(0 0 0.00458529)
(0 0 0.00459861)
(0 0 0.00461098)
(0 0 0.00462241)
(0 0 0.00463287)
(0 0 0.00464239)
(0 0 0.00465094)
(0 0 0.00465854)
(0 0 0.00466519)
(0 0 0.00467088)
(0 0 0.00467562)
(0 0 0.00467941)
(0 0 0.00468226)
(0 0 0.00468416)
(0 0 0.00468512)
(0 0 0.00468515)
(0 0 0.00468425)
(0 0 0.00468243)
(0 0 0.00467969)
(0 0 0.00467603)
(0 0 0.00467148)
(0 0 0.00466602)
(0 0 0.00465967)
(0 0 0.00465245)
(0 0 0.00464435)
(0 0 0.00463538)
(0 0 0.00462556)
(0 0 0.00461489)
(0 0 0.00460338)
(0 0 0.00459105)
(0 0 0.00457791)
(0 0 0.00456395)
(0 0 0.00454921)
(0 0 0.00453367)
(0 0 0.00451737)
(0 0 0.0045003)
(0 0 0.00448249)
(0 0 0.00446393)
(0 0 0.00444465)
(0 0 0.00442465)
(0 0 0.00440395)
(0 0 0.00438257)
(0 0 0.0043605)
(0 0 0.00433776)
(0 0 0.00431438)
(0 0 0.00429035)
(0 0 0.00426569)
(0 0 0.00424041)
(0 0 0.00421453)
(0 0 0.00418806)
(0 0 0.004161)
(0 0 0.00413338)
(0 0 0.0041052)
(0 0 0.00407648)
(0 0 0.00404722)
(0 0 0.00401745)
(0 0 0.00398717)
(0 0 0.00395639)
(0 0 0.00392512)
(0 0 0.00389339)
(0 0 0.00386119)
(0 0 0.00382854)
(0 0 0.00379545)
(0 0 0.00376193)
(0 0 0.00372799)
(0 0 0.00369365)
(0 0 0.00365891)
(0 0 0.00362379)
(0 0 0.00358829)
(0 0 0.00355242)
(0 0 0.0035162)
(0 0 0.00347964)
(0 0 0.00344273)
(0 0 0.00340551)
(0 0 0.00336796)
(0 0 0.00333011)
(0 0 0.00329196)
(0 0 0.00325351)
(0 0 0.00321479)
(0 0 0.0031758)
(0 0 0.00313654)
(0 0 0.00309702)
(0 0 0.00305726)
(0 0 0.00301725)
(0 0 0.00297701)
(0 0 0.00293655)
(0 0 0.00289587)
(0 0 0.00285498)
(0 0 0.00281389)
(0 0 0.0027726)
(0 0 0.00273112)
(0 0 0.00268946)
(0 0 0.00264762)
(0 0 0.00260561)
(0 0 0.00256343)
(0 0 0.0025211)
(0 0 0.00247861)
(0 0 0.00243598)
(0 0 0.0023932)
(0 0 0.00235029)
(0 0 0.00230725)
(0 0 0.00226408)
(0 0 0.0022208)
(0 0 0.00217739)
(0 0 0.00213388)
(0 0 0.00209025)
(0 0 0.00204653)
(0 0 0.0020027)
(0 0 0.00195878)
(0 0 0.00191478)
(0 0 0.00187068)
(0 0 0.0018265)
(0 0 0.00178225)
(0 0 0.00173792)
(0 0 0.00169351)
(0 0 0.00164904)
(0 0 0.0016045)
(0 0 0.0015599)
(0 0 0.00151524)
(0 0 0.00147053)
(0 0 0.00142576)
(0 0 0.00138094)
(0 0 0.00133607)
(0 0 0.00129116)
(0 0 0.0012462)
(0 0 0.0012012)
(0 0 0.00115616)
(0 0 0.00111109)
(0 0 0.00106598)
(0 0 0.00102083)
(0 0 0.000975662)
(0 0 0.00093046)
(0 0 0.000885231)
(0 0 0.000839976)
(0 0 0.000794698)
(0 0 0.000749398)
(0 0 0.000704078)
(0 0 0.000658738)
(0 0 0.000613381)
(0 0 0.000568008)
(0 0 0.00052262)
(0 0 0.000477218)
(0 0 0.000431805)
(0 0 0.00038638)
(0 0 0.000340946)
(0 0 0.000295504)
(0 0 0.000250054)
(0 0 0.000204598)
(0 0 0.000159137)
(0 0 0.000113672)
(0 0 6.82042e-05)
(0 0 2.27349e-05)
(0 0 4.57011e-05)
(0 0 0.000137102)
(0 0 0.000228497)
(0 0 0.000319884)
(0 0 0.00041126)
(0 0 0.000502621)
(0 0 0.000593963)
(0 0 0.000685283)
(0 0 0.000776577)
(0 0 0.000867842)
(0 0 0.000959072)
(0 0 0.00105027)
(0 0 0.00114142)
(0 0 0.00123252)
(0 0 0.00132357)
(0 0 0.00141457)
(0 0 0.00150551)
(0 0 0.00159637)
(0 0 0.00168717)
(0 0 0.00177788)
(0 0 0.00186852)
(0 0 0.00195905)
(0 0 0.00204949)
(0 0 0.00213983)
(0 0 0.00223005)
(0 0 0.00232015)
(0 0 0.00241011)
(0 0 0.00249994)
(0 0 0.00258962)
(0 0 0.00267914)
(0 0 0.00276849)
(0 0 0.00285766)
(0 0 0.00294664)
(0 0 0.00303542)
(0 0 0.00312399)
(0 0 0.00321233)
(0 0 0.00330042)
(0 0 0.00338827)
(0 0 0.00347585)
(0 0 0.00356315)
(0 0 0.00365015)
(0 0 0.00373684)
(0 0 0.0038232)
(0 0 0.00390922)
(0 0 0.00399487)
(0 0 0.00408015)
(0 0 0.00416503)
(0 0 0.0042495)
(0 0 0.00433353)
(0 0 0.00441711)
(0 0 0.00450021)
(0 0 0.00458282)
(0 0 0.00466492)
(0 0 0.00474648)
(0 0 0.00482748)
(0 0 0.00490791)
(0 0 0.00498773)
(0 0 0.00506693)
(0 0 0.00514548)
(0 0 0.00522335)
(0 0 0.00530054)
(0 0 0.005377)
(0 0 0.00545272)
(0 0 0.00552767)
(0 0 0.00560183)
(0 0 0.00567518)
(0 0 0.00574768)
(0 0 0.00581931)
(0 0 0.00589004)
(0 0 0.00595986)
(0 0 0.00602874)
(0 0 0.00609664)
(0 0 0.00616355)
(0 0 0.00622944)
(0 0 0.00629428)
(0 0 0.00635805)
(0 0 0.00642073)
(0 0 0.00648229)
(0 0 0.0065427)
(0 0 0.00660194)
(0 0 0.00666)
(0 0 0.00671683)
(0 0 0.00677243)
(0 0 0.00682677)
(0 0 0.00687982)
(0 0 0.00693157)
(0 0 0.00698199)
(0 0 0.00703107)
(0 0 0.00707878)
(0 0 0.00712511)
(0 0 0.00717003)
(0 0 0.00721354)
(0 0 0.0072556)
(0 0 0.00729621)
(0 0 0.00733536)
(0 0 0.00737302)
(0 0 0.00740918)
(0 0 0.00744383)
(0 0 0.00747696)
(0 0 0.00750855)
(0 0 0.0075386)
(0 0 0.0075671)
(0 0 0.00759403)
(0 0 0.0076194)
(0 0 0.00764319)
(0 0 0.00766541)
(0 0 0.00768603)
(0 0 0.00770507)
(0 0 0.00772252)
(0 0 0.00773837)
(0 0 0.00775263)
(0 0 0.0077653)
(0 0 0.00777637)
(0 0 0.00778586)
(0 0 0.00779376)
(0 0 0.00780007)
(0 0 0.00780481)
(0 0 0.00780798)
(0 0 0.00780958)
(0 0 0.00780962)
(0 0 0.00780812)
(0 0 0.00780507)
(0 0 0.00780049)
(0 0 0.00779439)
(0 0 0.00778679)
(0 0 0.00777769)
(0 0 0.0077671)
(0 0 0.00775505)
(0 0 0.00774153)
(0 0 0.00772658)
(0 0 0.0077102)
(0 0 0.00769241)
(0 0 0.00767323)
(0 0 0.00765266)
(0 0 0.00763074)
(0 0 0.00760747)
(0 0 0.00758288)
(0 0 0.00755698)
(0 0 0.00752979)
(0 0 0.00750134)
(0 0 0.00747163)
(0 0 0.00744069)
(0 0 0.00740854)
(0 0 0.0073752)
(0 0 0.00734069)
(0 0 0.00730503)
(0 0 0.00726824)
(0 0 0.00723033)
(0 0 0.00719134)
(0 0 0.00715128)
(0 0 0.00711016)
(0 0 0.00706802)
(0 0 0.00702487)
(0 0 0.00698074)
(0 0 0.00693563)
(0 0 0.00688958)
(0 0 0.0068426)
(0 0 0.00679472)
(0 0 0.00674595)
(0 0 0.00669631)
(0 0 0.00664583)
(0 0 0.00659452)
(0 0 0.0065424)
(0 0 0.00648949)
(0 0 0.00643581)
(0 0 0.00638138)
(0 0 0.00632622)
(0 0 0.00627035)
(0 0 0.00621378)
(0 0 0.00615653)
(0 0 0.00609862)
(0 0 0.00604006)
(0 0 0.00598089)
(0 0 0.0059211)
(0 0 0.00586072)
(0 0 0.00579977)
(0 0 0.00573825)
(0 0 0.0056762)
(0 0 0.00561361)
(0 0 0.00555051)
(0 0 0.00548692)
(0 0 0.00542284)
(0 0 0.00535829)
(0 0 0.00529329)
(0 0 0.00522785)
(0 0 0.00516198)
(0 0 0.00509569)
(0 0 0.00502901)
(0 0 0.00496194)
(0 0 0.0048945)
(0 0 0.00482669)
(0 0 0.00475853)
(0 0 0.00469003)
(0 0 0.00462121)
(0 0 0.00455207)
(0 0 0.00448262)
(0 0 0.00441288)
(0 0 0.00434286)
(0 0 0.00427256)
(0 0 0.004202)
(0 0 0.00413118)
(0 0 0.00406012)
(0 0 0.00398883)
(0 0 0.0039173)
(0 0 0.00384556)
(0 0 0.00377361)
(0 0 0.00370146)
(0 0 0.00362911)
(0 0 0.00355658)
(0 0 0.00348387)
(0 0 0.00341099)
(0 0 0.00333794)
(0 0 0.00326474)
(0 0 0.00319139)
(0 0 0.00311789)
(0 0 0.00304426)
(0 0 0.0029705)
(0 0 0.00289661)
(0 0 0.0028226)
(0 0 0.00274847)
(0 0 0.00267424)
(0 0 0.00259991)
(0 0 0.00252547)
(0 0 0.00245094)
(0 0 0.00237632)
(0 0 0.00230162)
(0 0 0.00222684)
(0 0 0.00215198)
(0 0 0.00207704)
(0 0 0.00200204)
(0 0 0.00192698)
(0 0 0.00185185)
(0 0 0.00177666)
(0 0 0.00170143)
(0 0 0.00162613)
(0 0 0.0015508)
(0 0 0.00147541)
(0 0 0.00139999)
(0 0 0.00132452)
(0 0 0.00124902)
(0 0 0.00117348)
(0 0 0.00109792)
(0 0 0.00102232)
(0 0 0.000946696)
(0 0 0.000871048)
(0 0 0.000795378)
(0 0 0.000719687)
(0 0 0.000643978)
(0 0 0.000568253)
(0 0 0.000492514)
(0 0 0.000416763)
(0 0 0.000341002)
(0 0 0.000265232)
(0 0 0.000189456)
(0 0 0.000113675)
(0 0 3.78921e-05)
(0 0 6.39838e-05)
(0 0 0.000191949)
(0 0 0.000319907)
(0 0 0.000447854)
(0 0 0.000575785)
(0 0 0.000703695)
(0 0 0.000831579)
(0 0 0.000959432)
(0 0 0.00108725)
(0 0 0.00121503)
(0 0 0.00134275)
(0 0 0.00147043)
(0 0 0.00159805)
(0 0 0.0017256)
(0 0 0.00185308)
(0 0 0.00198049)
(0 0 0.0021078)
(0 0 0.00223503)
(0 0 0.00236215)
(0 0 0.00248916)
(0 0 0.00261605)
(0 0 0.00274282)
(0 0 0.00286944)
(0 0 0.00299592)
(0 0 0.00312224)
(0 0 0.00324839)
(0 0 0.00337435)
(0 0 0.00350013)
(0 0 0.00362569)
(0 0 0.00375103)
(0 0 0.00387614)
(0 0 0.00400099)
(0 0 0.00412558)
(0 0 0.00424989)
(0 0 0.0043739)
(0 0 0.00449759)
(0 0 0.00462095)
(0 0 0.00474395)
(0 0 0.00486658)
(0 0 0.00498882)
(0 0 0.00511064)
(0 0 0.00523203)
(0 0 0.00535296)
(0 0 0.00547341)
(0 0 0.00559335)
(0 0 0.00571277)
(0 0 0.00583162)
(0 0 0.0059499)
(0 0 0.00606757)
(0 0 0.00618461)
(0 0 0.00630099)
(0 0 0.00641667)
(0 0 0.00653164)
(0 0 0.00664585)
(0 0 0.00675929)
(0 0 0.00687191)
(0 0 0.00698369)
(0 0 0.0070946)
(0 0 0.00720461)
(0 0 0.00731367)
(0 0 0.00742176)
(0 0 0.00752884)
(0 0 0.00763489)
(0 0 0.00773986)
(0 0 0.00784371)
(0 0 0.00794643)
(0 0 0.00804796)
(0 0 0.00814828)
(0 0 0.00824735)
(0 0 0.00834513)
(0 0 0.00844159)
(0 0 0.00853669)
(0 0 0.0086304)
(0 0 0.00872268)
(0 0 0.00881349)
(0 0 0.00890281)
(0 0 0.00899059)
(0 0 0.00907681)
(0 0 0.00916142)
(0 0 0.00924439)
(0 0 0.0093257)
(0 0 0.0094053)
(0 0 0.00948317)
(0 0 0.00955927)
(0 0 0.00963357)
(0 0 0.00970605)
(0 0 0.00977667)
(0 0 0.00984541)
(0 0 0.00991223)
(0 0 0.00997712)
(0 0 0.01004)
(0 0 0.010101)
(0 0 0.0101599)
(0 0 0.0102168)
(0 0 0.0102716)
(0 0 0.0103243)
(0 0 0.010375)
(0 0 0.0104235)
(0 0 0.0104699)
(0 0 0.0105141)
(0 0 0.0105562)
(0 0 0.0105961)
(0 0 0.0106338)
(0 0 0.0106694)
(0 0 0.0107027)
(0 0 0.0107338)
(0 0 0.0107627)
(0 0 0.0107893)
(0 0 0.0108138)
(0 0 0.010836)
(0 0 0.0108559)
(0 0 0.0108736)
(0 0 0.0108891)
(0 0 0.0109024)
(0 0 0.0109135)
(0 0 0.0109223)
(0 0 0.0109289)
(0 0 0.0109334)
(0 0 0.0109356)
(0 0 0.0109356)
(0 0 0.0109335)
(0 0 0.0109292)
(0 0 0.0109228)
(0 0 0.0109143)
(0 0 0.0109036)
(0 0 0.0108908)
(0 0 0.010876)
(0 0 0.0108591)
(0 0 0.0108402)
(0 0 0.0108192)
(0 0 0.0107963)
(0 0 0.0107713)
(0 0 0.0107444)
(0 0 0.0107156)
(0 0 0.0106849)
(0 0 0.0106523)
(0 0 0.0106179)
(0 0 0.0105816)
(0 0 0.0105435)
(0 0 0.0105036)
(0 0 0.010462)
(0 0 0.0104187)
(0 0 0.0103736)
(0 0 0.0103269)
(0 0 0.0102786)
(0 0 0.0102286)
(0 0 0.0101771)
(0 0 0.010124)
(0 0 0.0100694)
(0 0 0.0100133)
(0 0 0.00995567)
(0 0 0.00989664)
(0 0 0.00983621)
(0 0 0.00977439)
(0 0 0.00971121)
(0 0 0.00964671)
(0 0 0.00958092)
(0 0 0.00951385)
(0 0 0.00944554)
(0 0 0.00937602)
(0 0 0.00930532)
(0 0 0.00923346)
(0 0 0.00916046)
(0 0 0.00908636)
(0 0 0.00901119)
(0 0 0.00893496)
(0 0 0.00885771)
(0 0 0.00877946)
(0 0 0.00870024)
(0 0 0.00862006)
(0 0 0.00853896)
(0 0 0.00845697)
(0 0 0.00837409)
(0 0 0.00829037)
(0 0 0.00820582)
(0 0 0.00812046)
(0 0 0.00803432)
(0 0 0.00794741)
(0 0 0.00785977)
(0 0 0.00777141)
(0 0 0.00768236)
(0 0 0.00759263)
(0 0 0.00750224)
(0 0 0.00741122)
(0 0 0.00731958)
(0 0 0.00722735)
(0 0 0.00713453)
(0 0 0.00704116)
(0 0 0.00694724)
(0 0 0.0068528)
(0 0 0.00675786)
(0 0 0.00666242)
(0 0 0.00656651)
(0 0 0.00647014)
(0 0 0.00637333)
(0 0 0.00627609)
(0 0 0.00617844)
(0 0 0.00608039)
(0 0 0.00598196)
(0 0 0.00588316)
(0 0 0.005784)
(0 0 0.0056845)
(0 0 0.00558467)
(0 0 0.00548453)
(0 0 0.00538408)
(0 0 0.00528333)
(0 0 0.00518231)
(0 0 0.00508101)
(0 0 0.00497946)
(0 0 0.00487765)
(0 0 0.00477561)
(0 0 0.00467334)
(0 0 0.00457085)
(0 0 0.00446814)
(0 0 0.00436524)
(0 0 0.00426215)
(0 0 0.00415887)
(0 0 0.00405542)
(0 0 0.0039518)
(0 0 0.00384802)
(0 0 0.00374408)
(0 0 0.00364001)
(0 0 0.00353579)
(0 0 0.00343144)
(0 0 0.00332697)
(0 0 0.00322238)
(0 0 0.00311768)
(0 0 0.00301287)
(0 0 0.00290796)
(0 0 0.00280295)
(0 0 0.00269785)
(0 0 0.00259267)
(0 0 0.00248741)
(0 0 0.00238207)
(0 0 0.00227666)
(0 0 0.00217118)
(0 0 0.00206564)
(0 0 0.00196004)
(0 0 0.00185438)
(0 0 0.00174868)
(0 0 0.00164292)
(0 0 0.00153712)
(0 0 0.00143129)
(0 0 0.00132541)
(0 0 0.0012195)
(0 0 0.00111356)
(0 0 0.00100759)
(0 0 0.000901592)
(0 0 0.000795574)
(0 0 0.000689537)
(0 0 0.000583483)
(0 0 0.000477414)
(0 0 0.000371334)
(0 0 0.000265245)
(0 0 0.000159149)
(0 0 5.30502e-05)
(0 0 8.22688e-05)
(0 0 0.000246804)
(0 0 0.000411329)
(0 0 0.000575841)
(0 0 0.000740331)
(0 0 0.000904795)
(0 0 0.00106923)
(0 0 0.00123362)
(0 0 0.00139796)
(0 0 0.00156226)
(0 0 0.00172649)
(0 0 0.00189066)
(0 0 0.00205475)
(0 0 0.00221875)
(0 0 0.00238267)
(0 0 0.00254649)
(0 0 0.00271019)
(0 0 0.00287378)
(0 0 0.00303724)
(0 0 0.00320055)
(0 0 0.00336372)
(0 0 0.00352672)
(0 0 0.00368954)
(0 0 0.00385217)
(0 0 0.0040146)
(0 0 0.00417681)
(0 0 0.00433879)
(0 0 0.00450052)
(0 0 0.00466198)
(0 0 0.00482316)
(0 0 0.00498404)
(0 0 0.00514459)
(0 0 0.00530481)
(0 0 0.00546466)
(0 0 0.00562413)
(0 0 0.00578319)
(0 0 0.00594183)
(0 0 0.00610001)
(0 0 0.00625771)
(0 0 0.00641491)
(0 0 0.00657158)
(0 0 0.00672769)
(0 0 0.00688321)
(0 0 0.00703811)
(0 0 0.00719236)
(0 0 0.00734594)
(0 0 0.0074988)
(0 0 0.00765092)
(0 0 0.00780226)
(0 0 0.00795278)
(0 0 0.00810245)
(0 0 0.00825124)
(0 0 0.0083991)
(0 0 0.008546)
(0 0 0.0086919)
(0 0 0.00883676)
(0 0 0.00898054)
(0 0 0.00912319)
(0 0 0.00926468)
(0 0 0.00940496)
(0 0 0.00954399)
(0 0 0.00968173)
(0 0 0.00981813)
(0 0 0.00995315)
(0 0 0.0100867)
(0 0 0.0102189)
(0 0 0.0103495)
(0 0 0.0104785)
(0 0 0.0106059)
(0 0 0.0107317)
(0 0 0.0108558)
(0 0 0.0109781)
(0 0 0.0110987)
(0 0 0.0112174)
(0 0 0.0113342)
(0 0 0.0114491)
(0 0 0.011562)
(0 0 0.0116729)
(0 0 0.0117818)
(0 0 0.0118885)
(0 0 0.0119931)
(0 0 0.0120955)
(0 0 0.0121957)
(0 0 0.0122936)
(0 0 0.0123892)
(0 0 0.0124824)
(0 0 0.0125732)
(0 0 0.0126617)
(0 0 0.0127476)
(0 0 0.0128311)
(0 0 0.012912)
(0 0 0.0129904)
(0 0 0.0130662)
(0 0 0.0131394)
(0 0 0.0132099)
(0 0 0.0132777)
(0 0 0.0133429)
(0 0 0.0134053)
(0 0 0.013465)
(0 0 0.0135219)
(0 0 0.013576)
(0 0 0.0136273)
(0 0 0.0136759)
(0 0 0.0137215)
(0 0 0.0137644)
(0 0 0.0138044)
(0 0 0.0138415)
(0 0 0.0138758)
(0 0 0.0139072)
(0 0 0.0139358)
(0 0 0.0139614)
(0 0 0.0139842)
(0 0 0.0140042)
(0 0 0.0140212)
(0 0 0.0140354)
(0 0 0.0140468)
(0 0 0.0140553)
(0 0 0.0140609)
(0 0 0.0140638)
(0 0 0.0140638)
(0 0 0.0140611)
(0 0 0.0140556)
(0 0 0.0140473)
(0 0 0.0140363)
(0 0 0.0140225)
(0 0 0.0140061)
(0 0 0.013987)
(0 0 0.0139652)
(0 0 0.0139408)
(0 0 0.0139138)
(0 0 0.0138843)
(0 0 0.0138522)
(0 0 0.0138176)
(0 0 0.0137805)
(0 0 0.013741)
(0 0 0.013699)
(0 0 0.0136547)
(0 0 0.013608)
(0 0 0.013559)
(0 0 0.0135077)
(0 0 0.0134541)
(0 0 0.0133983)
(0 0 0.0133404)
(0 0 0.0132803)
(0 0 0.0132181)
(0 0 0.0131538)
(0 0 0.0130875)
(0 0 0.0130192)
(0 0 0.0129489)
(0 0 0.0128767)
(0 0 0.0128026)
(0 0 0.0127267)
(0 0 0.0126489)
(0 0 0.0125694)
(0 0 0.0124881)
(0 0 0.0124051)
(0 0 0.0123205)
(0 0 0.0122342)
(0 0 0.0121464)
(0 0 0.0120569)
(0 0 0.011966)
(0 0 0.0118735)
(0 0 0.0117796)
(0 0 0.0116843)
(0 0 0.0115876)
(0 0 0.0114896)
(0 0 0.0113902)
(0 0 0.0112895)
(0 0 0.0111876)
(0 0 0.0110845)
(0 0 0.0109802)
(0 0 0.0108747)
(0 0 0.0107682)
(0 0 0.0106605)
(0 0 0.0105517)
(0 0 0.0104419)
(0 0 0.0103311)
(0 0 0.0102194)
(0 0 0.0101067)
(0 0 0.00999301)
(0 0 0.00987848)
(0 0 0.00976308)
(0 0 0.00964683)
(0 0 0.00952977)
(0 0 0.00941191)
(0 0 0.00929329)
(0 0 0.00917393)
(0 0 0.00905385)
(0 0 0.00893307)
(0 0 0.00881162)
(0 0 0.00868951)
(0 0 0.00856678)
(0 0 0.00844344)
(0 0 0.00831951)
(0 0 0.00819501)
(0 0 0.00806996)
(0 0 0.00794439)
(0 0 0.0078183)
(0 0 0.00769172)
(0 0 0.00756467)
(0 0 0.00743716)
(0 0 0.00730921)
(0 0 0.00718084)
(0 0 0.00705206)
(0 0 0.00692289)
(0 0 0.00679334)
(0 0 0.00666343)
(0 0 0.00653318)
(0 0 0.00640259)
(0 0 0.00627168)
(0 0 0.00614046)
(0 0 0.00600895)
(0 0 0.00587716)
(0 0 0.0057451)
(0 0 0.00561278)
(0 0 0.00548022)
(0 0 0.00534742)
(0 0 0.00521439)
(0 0 0.00508115)
(0 0 0.00494771)
(0 0 0.00481407)
(0 0 0.00468024)
(0 0 0.00454624)
(0 0 0.00441207)
(0 0 0.00427774)
(0 0 0.00414325)
(0 0 0.00400863)
(0 0 0.00387386)
(0 0 0.00373897)
(0 0 0.00360395)
(0 0 0.00346881)
(0 0 0.00333357)
(0 0 0.00319822)
(0 0 0.00306278)
(0 0 0.00292724)
(0 0 0.00279162)
(0 0 0.00265592)
(0 0 0.00252014)
(0 0 0.00238429)
(0 0 0.00224838)
(0 0 0.0021124)
(0 0 0.00197637)
(0 0 0.00184029)
(0 0 0.00170416)
(0 0 0.00156798)
(0 0 0.00143176)
(0 0 0.00129551)
(0 0 0.00115923)
(0 0 0.00102291)
(0 0 0.000886576)
(0 0 0.000750216)
(0 0 0.000613838)
(0 0 0.000477445)
(0 0 0.00034104)
(0 0 0.000204627)
(0 0 6.82097e-05)
(0 0 0.000100557)
(0 0 0.000301667)
(0 0 0.000502766)
(0 0 0.000703848)
(0 0 0.000904904)
(0 0 0.00110593)
(0 0 0.00130691)
(0 0 0.00150785)
(0 0 0.00170873)
(0 0 0.00190955)
(0 0 0.00211029)
(0 0 0.00231096)
(0 0 0.00251153)
(0 0 0.002712)
(0 0 0.00291236)
(0 0 0.0031126)
(0 0 0.0033127)
(0 0 0.00351266)
(0 0 0.00371247)
(0 0 0.0039121)
(0 0 0.00411154)
(0 0 0.00431079)
(0 0 0.00450983)
(0 0 0.00470863)
(0 0 0.00490718)
(0 0 0.00510547)
(0 0 0.00530348)
(0 0 0.00550118)
(0 0 0.00569856)
(0 0 0.00589559)
(0 0 0.00609226)
(0 0 0.00628853)
(0 0 0.00648439)
(0 0 0.00667981)
(0 0 0.00687477)
(0 0 0.00706923)
(0 0 0.00726316)
(0 0 0.00745655)
(0 0 0.00764935)
(0 0 0.00784153)
(0 0 0.00803307)
(0 0 0.00822393)
(0 0 0.00841407)
(0 0 0.00860346)
(0 0 0.00879206)
(0 0 0.00897982)
(0 0 0.00916672)
(0 0 0.00935272)
(0 0 0.00953776)
(0 0 0.0097218)
(0 0 0.00990481)
(0 0 0.0100867)
(0 0 0.0102675)
(0 0 0.0104472)
(0 0 0.0106256)
(0 0 0.0108027)
(0 0 0.0109785)
(0 0 0.0111529)
(0 0 0.011326)
(0 0 0.0114975)
(0 0 0.0116675)
(0 0 0.011836)
(0 0 0.0120028)
(0 0 0.0121679)
(0 0 0.0123312)
(0 0 0.0124928)
(0 0 0.0126525)
(0 0 0.0128103)
(0 0 0.0129662)
(0 0 0.01312)
(0 0 0.0132718)
(0 0 0.0134214)
(0 0 0.0135688)
(0 0 0.013714)
(0 0 0.0138569)
(0 0 0.0139974)
(0 0 0.0141355)
(0 0 0.0142711)
(0 0 0.0144042)
(0 0 0.0145348)
(0 0 0.0146627)
(0 0 0.0147879)
(0 0 0.0149105)
(0 0 0.0150302)
(0 0 0.0151471)
(0 0 0.0152611)
(0 0 0.0153722)
(0 0 0.0154804)
(0 0 0.0155855)
(0 0 0.0156876)
(0 0 0.0157866)
(0 0 0.0158824)
(0 0 0.0159751)
(0 0 0.0160646)
(0 0 0.0161509)
(0 0 0.0162338)
(0 0 0.0163135)
(0 0 0.0163898)
(0 0 0.0164628)
(0 0 0.0165324)
(0 0 0.0165986)
(0 0 0.0166614)
(0 0 0.0167207)
(0 0 0.0167766)
(0 0 0.016829)
(0 0 0.0168779)
(0 0 0.0169233)
(0 0 0.0169652)
(0 0 0.0170036)
(0 0 0.0170385)
(0 0 0.0170698)
(0 0 0.0170977)
(0 0 0.017122)
(0 0 0.0171429)
(0 0 0.0171602)
(0 0 0.0171741)
(0 0 0.0171844)
(0 0 0.0171913)
(0 0 0.0171948)
(0 0 0.0171948)
(0 0 0.0171914)
(0 0 0.0171846)
(0 0 0.0171745)
(0 0 0.017161)
(0 0 0.0171441)
(0 0 0.017124)
(0 0 0.0171006)
(0 0 0.0170739)
(0 0 0.0170441)
(0 0 0.017011)
(0 0 0.0169749)
(0 0 0.0169356)
(0 0 0.0168932)
(0 0 0.0168478)
(0 0 0.0167995)
(0 0 0.0167481)
(0 0 0.0166938)
(0 0 0.0166367)
(0 0 0.0165767)
(0 0 0.016514)
(0 0 0.0164484)
(0 0 0.0163802)
(0 0 0.0163093)
(0 0 0.0162358)
(0 0 0.0161597)
(0 0 0.016081)
(0 0 0.0159999)
(0 0 0.0159163)
(0 0 0.0158304)
(0 0 0.015742)
(0 0 0.0156514)
(0 0 0.0155585)
(0 0 0.0154634)
(0 0 0.0153661)
(0 0 0.0152667)
(0 0 0.0151652)
(0 0 0.0150617)
(0 0 0.0149562)
(0 0 0.0148487)
(0 0 0.0147393)
(0 0 0.0146281)
(0 0 0.0145151)
(0 0 0.0144002)
(0 0 0.0142837)
(0 0 0.0141654)
(0 0 0.0140455)
(0 0 0.013924)
(0 0 0.0138009)
(0 0 0.0136763)
(0 0 0.0135502)
(0 0 0.0134226)
(0 0 0.0132937)
(0 0 0.0131633)
(0 0 0.0130316)
(0 0 0.0128987)
(0 0 0.0127644)
(0 0 0.0126289)
(0 0 0.0124923)
(0 0 0.0123545)
(0 0 0.0122155)
(0 0 0.0120755)
(0 0 0.0119344)
(0 0 0.0117922)
(0 0 0.0116491)
(0 0 0.011505)
(0 0 0.01136)
(0 0 0.011214)
(0 0 0.0110672)
(0 0 0.0109196)
(0 0 0.0107711)
(0 0 0.0106218)
(0 0 0.0104718)
(0 0 0.010321)
(0 0 0.0101694)
(0 0 0.0100172)
(0 0 0.00986437)
(0 0 0.00971085)
(0 0 0.0095567)
(0 0 0.00940196)
(0 0 0.00924664)
(0 0 0.00909076)
(0 0 0.00893434)
(0 0 0.00877741)
(0 0 0.00861998)
(0 0 0.00846208)
(0 0 0.00830371)
(0 0 0.00814491)
(0 0 0.00798568)
(0 0 0.00782604)
(0 0 0.00766601)
(0 0 0.00750561)
(0 0 0.00734485)
(0 0 0.00718375)
(0 0 0.00702232)
(0 0 0.00686057)
(0 0 0.00669853)
(0 0 0.00653619)
(0 0 0.00637359)
(0 0 0.00621072)
(0 0 0.0060476)
(0 0 0.00588424)
(0 0 0.00572066)
(0 0 0.00555686)
(0 0 0.00539286)
(0 0 0.00522866)
(0 0 0.00506427)
(0 0 0.00489971)
(0 0 0.00473498)
(0 0 0.0045701)
(0 0 0.00440506)
(0 0 0.00423989)
(0 0 0.00407458)
(0 0 0.00390914)
(0 0 0.00374358)
(0 0 0.00357792)
(0 0 0.00341215)
(0 0 0.00324628)
(0 0 0.00308032)
(0 0 0.00291427)
(0 0 0.00274814)
(0 0 0.00258194)
(0 0 0.00241567)
(0 0 0.00224934)
(0 0 0.00208295)
(0 0 0.0019165)
(0 0 0.00175001)
(0 0 0.00158347)
(0 0 0.00141689)
(0 0 0.00125028)
(0 0 0.00108364)
(0 0 0.000916968)
(0 0 0.000750277)
(0 0 0.000583567)
(0 0 0.000416844)
(0 0 0.00025011)
(0 0 8.33707e-05)
(0 0 0.000118848)
(0 0 0.000356541)
(0 0 0.000594221)
(0 0 0.00083188)
(0 0 0.00106951)
(0 0 0.0013071)
(0 0 0.00154465)
(0 0 0.00178214)
(0 0 0.00201956)
(0 0 0.00225691)
(0 0 0.00249418)
(0 0 0.00273135)
(0 0 0.00296841)
(0 0 0.00320536)
(0 0 0.00344217)
(0 0 0.00367884)
(0 0 0.00391536)
(0 0 0.00415171)
(0 0 0.00438787)
(0 0 0.00462383)
(0 0 0.00485957)
(0 0 0.00509509)
(0 0 0.00533034)
(0 0 0.00556533)
(0 0 0.00580003)
(0 0 0.00603442)
(0 0 0.00626847)
(0 0 0.00650217)
(0 0 0.00673548)
(0 0 0.00696839)
(0 0 0.00720087)
(0 0 0.00743289)
(0 0 0.00766442)
(0 0 0.00789544)
(0 0 0.0081259)
(0 0 0.00835578)
(0 0 0.00858505)
(0 0 0.00881367)
(0 0 0.0090416)
(0 0 0.00926881)
(0 0 0.00949525)
(0 0 0.00972089)
(0 0 0.00994569)
(0 0 0.0101696)
(0 0 0.0103926)
(0 0 0.0106146)
(0 0 0.0108356)
(0 0 0.0110555)
(0 0 0.0112742)
(0 0 0.0114919)
(0 0 0.0117083)
(0 0 0.0119234)
(0 0 0.0121371)
(0 0 0.0123495)
(0 0 0.0125605)
(0 0 0.01277)
(0 0 0.0129778)
(0 0 0.0131841)
(0 0 0.0133887)
(0 0 0.0135916)
(0 0 0.0137926)
(0 0 0.0139918)
(0 0 0.0141891)
(0 0 0.0143843)
(0 0 0.0145775)
(0 0 0.0147686)
(0 0 0.0149575)
(0 0 0.0151442)
(0 0 0.0153285)
(0 0 0.0155104)
(0 0 0.0156899)
(0 0 0.0158668)
(0 0 0.0160412)
(0 0 0.0162129)
(0 0 0.0163819)
(0 0 0.0165481)
(0 0 0.0167114)
(0 0 0.0168718)
(0 0 0.0170293)
(0 0 0.0171837)
(0 0 0.017335)
(0 0 0.0174831)
(0 0 0.017628)
(0 0 0.0177696)
(0 0 0.0179079)
(0 0 0.0180428)
(0 0 0.0181742)
(0 0 0.0183021)
(0 0 0.0184265)
(0 0 0.0185472)
(0 0 0.0186643)
(0 0 0.0187777)
(0 0 0.0188873)
(0 0 0.0189931)
(0 0 0.0190951)
(0 0 0.0191932)
(0 0 0.0192875)
(0 0 0.0193777)
(0 0 0.019464)
(0 0 0.0195464)
(0 0 0.0196246)
(0 0 0.0196989)
(0 0 0.019769)
(0 0 0.0198351)
(0 0 0.019897)
(0 0 0.0199548)
(0 0 0.0200085)
(0 0 0.020058)
(0 0 0.0201034)
(0 0 0.0201447)
(0 0 0.0201817)
(0 0 0.0202146)
(0 0 0.0202434)
(0 0 0.020268)
(0 0 0.0202885)
(0 0 0.0203048)
(0 0 0.0203171)
(0 0 0.0203252)
(0 0 0.0203292)
(0 0 0.0203292)
(0 0 0.0203252)
(0 0 0.0203171)
(0 0 0.020305)
(0 0 0.020289)
(0 0 0.020269)
(0 0 0.0202452)
(0 0 0.0202174)
(0 0 0.0201859)
(0 0 0.0201505)
(0 0 0.0201114)
(0 0 0.0200686)
(0 0 0.020022)
(0 0 0.0199719)
(0 0 0.0199182)
(0 0 0.0198609)
(0 0 0.0198001)
(0 0 0.0197359)
(0 0 0.0196683)
(0 0 0.0195973)
(0 0 0.019523)
(0 0 0.0194455)
(0 0 0.0193647)
(0 0 0.0192808)
(0 0 0.0191938)
(0 0 0.0191038)
(0 0 0.0190107)
(0 0 0.0189148)
(0 0 0.0188159)
(0 0 0.0187142)
(0 0 0.0186097)
(0 0 0.0185025)
(0 0 0.0183926)
(0 0 0.0182801)
(0 0 0.018165)
(0 0 0.0180474)
(0 0 0.0179274)
(0 0 0.0178049)
(0 0 0.0176801)
(0 0 0.017553)
(0 0 0.0174236)
(0 0 0.0172921)
(0 0 0.0171584)
(0 0 0.0170225)
(0 0 0.0168847)
(0 0 0.0167448)
(0 0 0.016603)
(0 0 0.0164593)
(0 0 0.0163138)
(0 0 0.0161664)
(0 0 0.0160173)
(0 0 0.0158664)
(0 0 0.0157139)
(0 0 0.0155598)
(0 0 0.0154041)
(0 0 0.0152469)
(0 0 0.0150881)
(0 0 0.0149279)
(0 0 0.0147663)
(0 0 0.0146034)
(0 0 0.0144391)
(0 0 0.0142735)
(0 0 0.0141067)
(0 0 0.0139386)
(0 0 0.0137694)
(0 0 0.0135991)
(0 0 0.0134276)
(0 0 0.013255)
(0 0 0.0130815)
(0 0 0.0129069)
(0 0 0.0127313)
(0 0 0.0125549)
(0 0 0.0123775)
(0 0 0.0121992)
(0 0 0.0120201)
(0 0 0.0118401)
(0 0 0.0116594)
(0 0 0.0114779)
(0 0 0.0112957)
(0 0 0.0111128)
(0 0 0.0109292)
(0 0 0.0107449)
(0 0 0.01056)
(0 0 0.0103745)