/*--------------------------------*- C++ -*----------------------------------*\
| =========                 |                                                 |
| \\      /  F ield         | OpenFOAM: The Open Source CFD Toolbox           |
|  \\    /   O peration     | Version:  v2012                                 |
|   \\  /    A nd           | Website:  www.openfoam.com                      |
|    \\/     M anipulation  |                                                 |
\*---------------------------------------------------------------------------*/
FoamFile
{
    version     2.0;
    format      ascii;
    class       volVectorField;
    location    "5.6";
    object      U;
}
// * * * * * * * * * * * * * * * * * * * * * * * * * * * * * * * * * * * * * //

dimensions      [0 1 -1 0 0 0 0];


internalField   nonuniform List<vector> 
65536
(
(0.000743992 -0.00074398 0)
(0.00223195 -0.00074395 0)
(0.00371982 -0.000743895 0)
(0.00520755 -0.000743811 0)
(0.00669509 -0.000743699 0)
(0.00818237 -0.000743558 0)
(0.00966934 -0.000743387 0)
(0.0111559 -0.000743185 0)
(0.0126421 -0.000742951 0)
(0.0141278 -0.000742685 0)
(0.0156129 -0.000742385 0)
(0.0170974 -0.000742049 0)
(0.0185811 -0.000741677 0)
(0.0200641 -0.000741265 0)
(0.0215462 -0.000740814 0)
(0.0230274 -0.00074032 0)
(0.0245075 -0.000739781 0)
(0.0259866 -0.000739196 0)
(0.0274644 -0.000738562 0)
(0.0289409 -0.000737877 0)
(0.0304159 -0.000737138 0)
(0.0318895 -0.000736343 0)
(0.0333613 -0.000735488 0)
(0.0348315 -0.000734571 0)
(0.0362997 -0.000733589 0)
(0.0377659 -0.000732539 0)
(0.0392299 -0.000731417 0)
(0.0406916 -0.00073022 0)
(0.0421509 -0.000728946 0)
(0.0436075 -0.000727589 0)
(0.0450613 -0.000726148 0)
(0.0465122 -0.000724618 0)
(0.0479599 -0.000722995 0)
(0.0494042 -0.000721276 0)
(0.0508451 -0.000719457 0)
(0.0522822 -0.000717535 0)
(0.0537153 -0.000715504 0)
(0.0551443 -0.000713361 0)
(0.0565689 -0.000711103 0)
(0.0579888 -0.000708725 0)
(0.0594039 -0.000706223 0)
(0.0608138 -0.000703593 0)
(0.0622184 -0.000700832 0)
(0.0636173 -0.000697934 0)
(0.0650103 -0.000694896 0)
(0.066397 -0.000691715 0)
(0.0677773 -0.000688385 0)
(0.0691507 -0.000684904 0)
(0.070517 -0.000681267 0)
(0.0718759 -0.000677471 0)
(0.0732271 -0.000673512 0)
(0.0745702 -0.000669386 0)
(0.0759048 -0.000665089 0)
(0.0772307 -0.000660619 0)
(0.0785475 -0.000655972 0)
(0.0798547 -0.000651145 0)
(0.0811522 -0.000646135 0)
(0.0824395 -0.000640938 0)
(0.0837162 -0.000635553 0)
(0.0849819 -0.000629977 0)
(0.0862363 -0.000624207 0)
(0.0874789 -0.000618241 0)
(0.0887094 -0.000612078 0)
(0.0899274 -0.000605715 0)
(0.0911325 -0.000599151 0)
(0.0923242 -0.000592385 0)
(0.0935022 -0.000585415 0)
(0.0946661 -0.000578241 0)
(0.0958154 -0.000570862 0)
(0.0969497 -0.000563278 0)
(0.0980687 -0.000555489 0)
(0.0991719 -0.000547496 0)
(0.100259 -0.000539297 0)
(0.101329 -0.000530896 0)
(0.102383 -0.000522292 0)
(0.103419 -0.000513487 0)
(0.104437 -0.000504482 0)
(0.105437 -0.000495281 0)
(0.106418 -0.000485884 0)
(0.10738 -0.000476295 0)
(0.108323 -0.000466516 0)
(0.109247 -0.000456551 0)
(0.11015 -0.000446403 0)
(0.111033 -0.000436075 0)
(0.111894 -0.000425573 0)
(0.112735 -0.0004149 0)
(0.113554 -0.000404061 0)
(0.114351 -0.00039306 0)
(0.115127 -0.000381903 0)
(0.115879 -0.000370595 0)
(0.116609 -0.000359142 0)
(0.117316 -0.00034755 0)
(0.117999 -0.000335825 0)
(0.118659 -0.000323973 0)
(0.119295 -0.000312 0)
(0.119907 -0.000299913 0)
(0.120495 -0.00028772 0)
(0.121058 -0.000275426 0)
(0.121597 -0.00026304 0)
(0.122111 -0.000250569 0)
(0.122599 -0.000238019 0)
(0.123063 -0.000225398 0)
(0.123501 -0.000212715 0)
(0.123914 -0.000199976 0)
(0.124301 -0.00018719 0)
(0.124662 -0.000174363 0)
(0.124998 -0.000161504 0)
(0.125309 -0.000148621 0)
(0.125593 -0.000135721 0)
(0.125851 -0.000122812 0)
(0.126084 -0.000109902 0)
(0.126291 -9.69983e-05 0)
(0.126472 -8.41081e-05 0)
(0.126627 -7.12393e-05 0)
(0.126757 -5.83991e-05 0)
(0.126861 -4.55947e-05 0)
(0.126939 -3.28334e-05 0)
(0.126992 -2.0122e-05 0)
(0.12702 -7.46746e-06 0)
(0.127022 5.12361e-06 0)
(0.126999 1.76447e-05 0)
(0.126951 3.00895e-05 0)
(0.126879 4.24518e-05 0)
(0.126782 5.47258e-05 0)
(0.12666 6.69056e-05 0)
(0.126514 7.89859e-05 0)
(0.126344 9.09611e-05 0)
(0.12615 0.000102826 0)
(0.125932 0.000114577 0)
(0.125691 0.000126207 0)
(0.125427 0.000137714 0)
(0.12514 0.000149093 0)
(0.124831 0.00016034 0)
(0.124499 0.000171451 0)
(0.124145 0.000182422 0)
(0.123769 0.000193252 0)
(0.123372 0.000203936 0)
(0.122953 0.000214471 0)
(0.122514 0.000224856 0)
(0.122054 0.000235088 0)
(0.121573 0.000245164 0)
(0.121073 0.000255084 0)
(0.120553 0.000264845 0)
(0.120013 0.000274446 0)
(0.119455 0.000283885 0)
(0.118878 0.000293162 0)
(0.118282 0.000302276 0)
(0.117668 0.000311226 0)
(0.117037 0.000320011 0)
(0.116388 0.000328632 0)
(0.115722 0.000337088 0)
(0.11504 0.000345379 0)
(0.114341 0.000353505 0)
(0.113625 0.000361467 0)
(0.112895 0.000369266 0)
(0.112148 0.000376901 0)
(0.111387 0.000384374 0)
(0.110611 0.000391686 0)
(0.10982 0.000398837 0)
(0.109015 0.000405828 0)
(0.108196 0.000412662 0)
(0.107364 0.000419338 0)
(0.106519 0.000425859 0)
(0.105661 0.000432226 0)
(0.10479 0.00043844 0)
(0.103907 0.000444504 0)
(0.103012 0.000450419 0)
(0.102105 0.000456186 0)
(0.101187 0.000461808 0)
(0.100258 0.000467286 0)
(0.0993176 0.000472622 0)
(0.098367 0.000477819 0)
(0.0974062 0.000482878 0)
(0.0964354 0.000487801 0)
(0.0954548 0.00049259 0)
(0.0944649 0.000497248 0)
(0.0934657 0.000501777 0)
(0.0924576 0.000506179 0)
(0.0914409 0.000510455 0)
(0.0904157 0.000514609 0)
(0.0893823 0.000518641 0)
(0.088341 0.000522556 0)
(0.087292 0.000526354 0)
(0.0862355 0.000530037 0)
(0.0851717 0.000533609 0)
(0.0841009 0.000537071 0)
(0.0830233 0.000540426 0)
(0.0819391 0.000543675 0)
(0.0808485 0.000546821 0)
(0.0797517 0.000549866 0)
(0.078649 0.000552812 0)
(0.0775404 0.000555662 0)
(0.0764262 0.000558417 0)
(0.0753066 0.00056108 0)
(0.0741818 0.000563652 0)
(0.0730519 0.000566136 0)
(0.0719172 0.000568534 0)
(0.0707777 0.000570848 0)
(0.0696337 0.00057308 0)
(0.0684853 0.000575232 0)
(0.0673327 0.000577305 0)
(0.066176 0.000579303 0)
(0.0650154 0.000581227 0)
(0.0638511 0.000583078 0)
(0.0626831 0.000584859 0)
(0.0615116 0.000586572 0)
(0.0603367 0.000588218 0)
(0.0591586 0.0005898 0)
(0.0579774 0.000591319 0)
(0.0567933 0.000592776 0)
(0.0556063 0.000594175 0)
(0.0544165 0.000595515 0)
(0.0532242 0.0005968 0)
(0.0520293 0.000598031 0)
(0.050832 0.000599209 0)
(0.0496324 0.000600335 0)
(0.0484306 0.000601413 0)
(0.0472267 0.000602443 0)
(0.0460208 0.000603426 0)
(0.0448129 0.000604364 0)
(0.0436033 0.00060526 0)
(0.0423919 0.000606113 0)
(0.0411788 0.000606925 0)
(0.0399641 0.000607699 0)
(0.0387479 0.000608434 0)
(0.0375303 0.000609133 0)
(0.0363114 0.000609797 0)
(0.0350911 0.000610426 0)
(0.0338696 0.000611023 0)
(0.032647 0.000611588 0)
(0.0314233 0.000612122 0)
(0.0301985 0.000612627 0)
(0.0289727 0.000613103 0)
(0.027746 0.000613552 0)
(0.0265185 0.000613974 0)
(0.0252901 0.00061437 0)
(0.024061 0.000614742 0)
(0.0228311 0.00061509 0)
(0.0216006 0.000615414 0)
(0.0203694 0.000615717 0)
(0.0191377 0.000615998 0)
(0.0179054 0.000616257 0)
(0.0166727 0.000616497 0)
(0.0154394 0.000616717 0)
(0.0142058 0.000616918 0)
(0.0129717 0.0006171 0)
(0.0117374 0.000617265 0)
(0.0105027 0.000617411 0)
(0.00926769 0.00061754 0)
(0.00803248 0.000617653 0)
(0.00679706 0.000617748 0)
(0.00556147 0.000617828 0)
(0.00432573 0.000617891 0)
(0.00308989 0.000617938 0)
(0.00185396 0.00061797 0)
(0.000617993 0.000617985 0)
(0.000744018 -0.00223196 0)
(0.00223203 -0.00223188 0)
(0.00371995 -0.00223171 0)
(0.00520774 -0.00223146 0)
(0.00669533 -0.00223112 0)
(0.00818267 -0.0022307 0)
(0.0096697 -0.00223019 0)
(0.0111564 -0.00222958 0)
(0.0126426 -0.00222888 0)
(0.0141283 -0.00222809 0)
(0.0156135 -0.00222719 0)
(0.017098 -0.00222618 0)
(0.0185819 -0.00222506 0)
(0.0200649 -0.00222383 0)
(0.0215471 -0.00222248 0)
(0.0230284 -0.002221 0)
(0.0245086 -0.00221939 0)
(0.0259877 -0.00221763 0)
(0.0274656 -0.00221574 0)
(0.0289422 -0.00221368 0)
(0.0304174 -0.00221147 0)
(0.0318911 -0.00220908 0)
(0.0333631 -0.00220652 0)
(0.0348333 -0.00220378 0)
(0.0363017 -0.00220083 0)
(0.037768 -0.00219768 0)
(0.0392322 -0.00219432 0)
(0.0406941 -0.00219074 0)
(0.0421535 -0.00218692 0)
(0.0436102 -0.00218285 0)
(0.0450642 -0.00217853 0)
(0.0465153 -0.00217394 0)
(0.0479632 -0.00216908 0)
(0.0494077 -0.00216393 0)
(0.0508488 -0.00215847 0)
(0.0522861 -0.00215271 0)
(0.0537194 -0.00214662 0)
(0.0551486 -0.0021402 0)
(0.0565735 -0.00213343 0)
(0.0579936 -0.0021263 0)
(0.059409 -0.00211879 0)
(0.0608192 -0.00211091 0)
(0.062224 -0.00210263 0)
(0.0636232 -0.00209394 0)
(0.0650164 -0.00208483 0)
(0.0664035 -0.00207529 0)
(0.067784 -0.00206531 0)
(0.0691578 -0.00205487 0)
(0.0705244 -0.00204396 0)
(0.0718836 -0.00203257 0)
(0.0732351 -0.0020207 0)
(0.0745785 -0.00200832 0)
(0.0759135 -0.00199544 0)
(0.0772397 -0.00198203 0)
(0.0785568 -0.00196809 0)
(0.0798645 -0.00195362 0)
(0.0811623 -0.00193859 0)
(0.08245 -0.001923 0)
(0.083727 -0.00190685 0)
(0.0849931 -0.00189012 0)
(0.0862479 -0.00187281 0)
(0.0874909 -0.00185492 0)
(0.0887219 -0.00183643 0)
(0.0899402 -0.00181734 0)
(0.0911457 -0.00179765 0)
(0.0923379 -0.00177736 0)
(0.0935163 -0.00175645 0)
(0.0946805 -0.00173493 0)
(0.0958303 -0.00171279 0)
(0.096965 -0.00169004 0)
(0.0980844 -0.00166667 0)
(0.099188 -0.00164269 0)
(0.100275 -0.00161809 0)
(0.101346 -0.00159289 0)
(0.1024 -0.00156707 0)
(0.103436 -0.00154066 0)
(0.104455 -0.00151364 0)
(0.105455 -0.00148604 0)
(0.106437 -0.00145784 0)
(0.1074 -0.00142907 0)
(0.108343 -0.00139973 0)
(0.109267 -0.00136983 0)
(0.11017 -0.00133939 0)
(0.111053 -0.0013084 0)
(0.111915 -0.00127689 0)
(0.112756 -0.00124487 0)
(0.113576 -0.00121234 0)
(0.114373 -0.00117934 0)
(0.115149 -0.00114586 0)
(0.115902 -0.00111193 0)
(0.116632 -0.00107757 0)
(0.117339 -0.00104278 0)
(0.118023 -0.0010076 0)
(0.118683 -0.000972038 0)
(0.119319 -0.000936113 0)
(0.119932 -0.000899847 0)
(0.12052 -0.00086326 0)
(0.121083 -0.000826372 0)
(0.121622 -0.000789207 0)
(0.122136 -0.000751784 0)
(0.122624 -0.000714127 0)
(0.123088 -0.000676259 0)
(0.123526 -0.000638201 0)
(0.123939 -0.000599977 0)
(0.124326 -0.00056161 0)
(0.124688 -0.000523123 0)
(0.125024 -0.000484539 0)
(0.125334 -0.000445882 0)
(0.125619 -0.000407174 0)
(0.125877 -0.00036844 0)
(0.12611 -0.000329702 0)
(0.126317 -0.000290982 0)
(0.126498 -0.000252305 0)
(0.126653 -0.000213691 0)
(0.126783 -0.000175163 0)
(0.126886 -0.000136743 0)
(0.126965 -9.8452e-05 0)
(0.127018 -6.03112e-05 0)
(0.127045 -2.23409e-05 0)
(0.127047 1.54388e-05 0)
(0.127024 5.30083e-05 0)
(0.126976 9.03487e-05 0)
(0.126903 0.000127442 0)
(0.126806 0.000164269 0)
(0.126684 0.000200814 0)
(0.126538 0.00023706 0)
(0.126368 0.000272991 0)
(0.126173 0.000308591 0)
(0.125956 0.000343847 0)
(0.125715 0.000378744 0)
(0.12545 0.000413269 0)
(0.125163 0.000447409 0)
(0.124853 0.000481152 0)
(0.124521 0.000514489 0)
(0.124167 0.000547407 0)
(0.123791 0.000579898 0)
(0.123393 0.000611952 0)
(0.122974 0.000643561 0)
(0.122534 0.000674718 0)
(0.122074 0.000705416 0)
(0.121593 0.000735647 0)
(0.121093 0.000765408 0)
(0.120572 0.000794692 0)
(0.120032 0.000823495 0)
(0.119474 0.000851814 0)
(0.118896 0.000879646 0)
(0.1183 0.000906988 0)
(0.117686 0.000933838 0)
(0.117054 0.000960194 0)
(0.116405 0.000986057 0)
(0.115739 0.00101142 0)
(0.115056 0.0010363 0)
(0.114357 0.00106068 0)
(0.113641 0.00108456 0)
(0.11291 0.00110796 0)
(0.112163 0.00113086 0)
(0.111402 0.00115328 0)
(0.110625 0.00117521 0)
(0.109834 0.00119667 0)
(0.109029 0.00121764 0)
(0.10821 0.00123814 0)
(0.107377 0.00125817 0)
(0.106532 0.00127773 0)
(0.105673 0.00129683 0)
(0.104802 0.00131547 0)
(0.103919 0.00133366 0)
(0.103023 0.0013514 0)
(0.102116 0.0013687 0)
(0.101198 0.00138556 0)
(0.100268 0.001402 0)
(0.0993281 0.001418 0)
(0.0983772 0.00143359 0)
(0.0974161 0.00144877 0)
(0.096445 0.00146353 0)
(0.0954643 0.0014779 0)
(0.094474 0.00149187 0)
(0.0934746 0.00150546 0)
(0.0924663 0.00151866 0)
(0.0914493 0.00153149 0)
(0.0904239 0.00154394 0)
(0.0893903 0.00155604 0)
(0.0883487 0.00156778 0)
(0.0872995 0.00157917 0)
(0.0862427 0.00159022 0)
(0.0851787 0.00160093 0)
(0.0841077 0.00161132 0)
(0.0830299 0.00162138 0)
(0.0819455 0.00163113 0)
(0.0808547 0.00164056 0)
(0.0797577 0.0016497 0)
(0.0786548 0.00165853 0)
(0.077546 0.00166708 0)
(0.0764316 0.00167534 0)
(0.0753119 0.00168333 0)
(0.0741869 0.00169104 0)
(0.0730568 0.00169849 0)
(0.0719219 0.00170568 0)
(0.0707823 0.00171262 0)
(0.0696381 0.00171932 0)
(0.0684896 0.00172577 0)
(0.0673368 0.00173199 0)
(0.06618 0.00173798 0)
(0.0650192 0.00174375 0)
(0.0638547 0.0017493 0)
(0.0626865 0.00175465 0)
(0.0615149 0.00175978 0)
(0.0603399 0.00176472 0)
(0.0591617 0.00176946 0)
(0.0579804 0.00177402 0)
(0.0567961 0.00177839 0)
(0.055609 0.00178258 0)
(0.0544192 0.0017866 0)
(0.0532267 0.00179045 0)
(0.0520317 0.00179414 0)
(0.0508343 0.00179768 0)
(0.0496346 0.00180106 0)
(0.0484327 0.00180429 0)
(0.0472287 0.00180737 0)
(0.0460227 0.00181032 0)
(0.0448148 0.00181314 0)
(0.043605 0.00181582 0)
(0.0423935 0.00181838 0)
(0.0411804 0.00182082 0)
(0.0399656 0.00182313 0)
(0.0387494 0.00182534 0)
(0.0375317 0.00182744 0)
(0.0363127 0.00182942 0)
(0.0350924 0.00183131 0)
(0.0338708 0.0018331 0)
(0.0326481 0.00183479 0)
(0.0314243 0.0018364 0)
(0.0301995 0.00183791 0)
(0.0289737 0.00183934 0)
(0.0277469 0.00184068 0)
(0.0265193 0.00184195 0)
(0.0252909 0.00184314 0)
(0.0240617 0.00184425 0)
(0.0228318 0.00184529 0)
(0.0216012 0.00184627 0)
(0.02037 0.00184717 0)
(0.0191383 0.00184801 0)
(0.0179059 0.00184879 0)
(0.0166731 0.00184951 0)
(0.0154399 0.00185017 0)
(0.0142062 0.00185077 0)
(0.0129721 0.00185132 0)
(0.0117377 0.00185181 0)
(0.0105029 0.00185225 0)
(0.00926793 0.00185264 0)
(0.00803269 0.00185298 0)
(0.00679724 0.00185326 0)
(0.00556161 0.0018535 0)
(0.00432584 0.00185369 0)
(0.00308997 0.00185383 0)
(0.00185401 0.00185393 0)
(0.000618009 0.00185397 0)
(0.000744073 -0.00372002 0)
(0.00223219 -0.00371988 0)
(0.00372023 -0.00371961 0)
(0.00520813 -0.00371919 0)
(0.00669584 -0.00371863 0)
(0.0081833 -0.00371793 0)
(0.00967045 -0.00371708 0)
(0.0111572 -0.00371608 0)
(0.0126436 -0.00371491 0)
(0.0141295 -0.00371359 0)
(0.0156148 -0.0037121 0)
(0.0170995 -0.00371042 0)
(0.0185834 -0.00370857 0)
(0.0200667 -0.00370652 0)
(0.021549 -0.00370427 0)
(0.0230305 -0.00370181 0)
(0.0245109 -0.00369913 0)
(0.0259902 -0.00369622 0)
(0.0274683 -0.00369306 0)
(0.0289451 -0.00368965 0)
(0.0304205 -0.00368597 0)
(0.0318944 -0.003682 0)
(0.0333666 -0.00367774 0)
(0.0348371 -0.00367318 0)
(0.0363058 -0.00366828 0)
(0.0377724 -0.00366304 0)
(0.0392368 -0.00365745 0)
(0.040699 -0.00365149 0)
(0.0421587 -0.00364513 0)
(0.0436158 -0.00363837 0)
(0.0450702 -0.00363118 0)
(0.0465216 -0.00362355 0)
(0.0479699 -0.00361545 0)
(0.0494148 -0.00360688 0)
(0.0508563 -0.0035978 0)
(0.052294 -0.00358821 0)
(0.0537278 -0.00357807 0)
(0.0551575 -0.00356738 0)
(0.0565827 -0.00355611 0)
(0.0580034 -0.00354424 0)
(0.0594192 -0.00353175 0)
(0.06083 -0.00351862 0)
(0.0622353 -0.00350483 0)
(0.0636351 -0.00349036 0)
(0.0650289 -0.0034752 0)
(0.0664165 -0.00345931 0)
(0.0677977 -0.00344268 0)
(0.069172 -0.00342529 0)
(0.0705393 -0.00340713 0)
(0.0718992 -0.00338817 0)
(0.0732513 -0.00336839 0)
(0.0745954 -0.00334777 0)
(0.0759311 -0.00332631 0)
(0.077258 -0.00330398 0)
(0.0785758 -0.00328076 0)
(0.0798842 -0.00325664 0)
(0.0811828 -0.0032316 0)
(0.0824712 -0.00320563 0)
(0.083749 -0.00317872 0)
(0.0850159 -0.00315085 0)
(0.0862714 -0.00312201 0)
(0.0875152 -0.00309219 0)
(0.0887469 -0.00306138 0)
(0.0899661 -0.00302958 0)
(0.0911724 -0.00299676 0)
(0.0923654 -0.00296294 0)
(0.0935446 -0.00292809 0)
(0.0947097 -0.00289222 0)
(0.0958602 -0.00285533 0)
(0.0969958 -0.00281741 0)
(0.098116 -0.00277847 0)
(0.0992204 -0.0027385 0)
(0.100309 -0.0026975 0)
(0.10138 -0.00265549 0)
(0.102435 -0.00261246 0)
(0.103472 -0.00256843 0)
(0.104491 -0.0025234 0)
(0.105493 -0.00247738 0)
(0.106475 -0.00243038 0)
(0.107439 -0.00238242 0)
(0.108383 -0.00233351 0)
(0.109307 -0.00228367 0)
(0.110211 -0.00223291 0)
(0.111095 -0.00218125 0)
(0.111958 -0.00212872 0)
(0.1128 -0.00207533 0)
(0.11362 -0.00202111 0)
(0.114418 -0.00196608 0)
(0.115194 -0.00191027 0)
(0.115947 -0.0018537 0)
(0.116678 -0.00179641 0)
(0.117386 -0.00173842 0)
(0.11807 -0.00167976 0)
(0.118731 -0.00162047 0)
(0.119368 -0.00156057 0)
(0.11998 -0.0015001 0)
(0.120569 -0.0014391 0)
(0.121132 -0.0013776 0)
(0.121672 -0.00131563 0)
(0.122186 -0.00125323 0)
(0.122675 -0.00119045 0)
(0.123139 -0.00112731 0)
(0.123577 -0.00106385 0)
(0.12399 -0.00100012 0)
(0.124378 -0.00093615 0)
(0.12474 -0.000871979 0)
(0.125076 -0.000807646 0)
(0.125386 -0.000743192 0)
(0.12567 -0.000678654 0)
(0.125929 -0.000614071 0)
(0.126162 -0.000549482 0)
(0.126368 -0.000484925 0)
(0.126549 -0.000420437 0)
(0.126705 -0.000356056 0)
(0.126834 -0.000291819 0)
(0.126938 -0.000227762 0)
(0.127016 -0.00016392 0)
(0.127068 -0.000100329 0)
(0.127096 -3.70235e-05 0)
(0.127097 2.59643e-05 0)
(0.127074 8.86012e-05 0)
(0.127026 0.000150856 0)
(0.126953 0.000212697 0)
(0.126855 0.000274095 0)
(0.126733 0.000335022 0)
(0.126586 0.00039545 0)
(0.126415 0.000455351 0)
(0.126221 0.000514702 0)
(0.126003 0.000573477 0)
(0.125761 0.000631652 0)
(0.125496 0.000689208 0)
(0.125208 0.000746121 0)
(0.124898 0.000802373 0)
(0.124565 0.000857945 0)
(0.12421 0.00091282 0)
(0.123834 0.000966981 0)
(0.123435 0.00102041 0)
(0.123016 0.0010731 0)
(0.122576 0.00112504 0)
(0.122115 0.00117621 0)
(0.121633 0.0012266 0)
(0.121132 0.00127621 0)
(0.120611 0.00132502 0)
(0.12007 0.00137303 0)
(0.119511 0.00142023 0)
(0.118933 0.00146662 0)
(0.118336 0.00151219 0)
(0.117722 0.00155694 0)
(0.117089 0.00160087 0)
(0.116439 0.00164398 0)
(0.115773 0.00168626 0)
(0.115089 0.00172771 0)
(0.114389 0.00176834 0)
(0.113673 0.00180815 0)
(0.112941 0.00184714 0)
(0.112194 0.00188531 0)
(0.111431 0.00192267 0)
(0.110654 0.00195923 0)
(0.109862 0.00199497 0)
(0.109057 0.00202993 0)
(0.108237 0.00206409 0)
(0.107404 0.00209746 0)
(0.106558 0.00213006 0)
(0.105698 0.00216189 0)
(0.104827 0.00219295 0)
(0.103943 0.00222326 0)
(0.103047 0.00225282 0)
(0.102139 0.00228165 0)
(0.10122 0.00230975 0)
(0.10029 0.00233713 0)
(0.0993492 0.0023638 0)
(0.0983977 0.00238978 0)
(0.0974361 0.00241506 0)
(0.0964645 0.00243967 0)
(0.0954832 0.0024636 0)
(0.0944924 0.00248688 0)
(0.0934925 0.00250952 0)
(0.0924837 0.00253151 0)
(0.0914662 0.00255289 0)
(0.0904402 0.00257364 0)
(0.0894062 0.00259379 0)
(0.0883641 0.00261336 0)
(0.0873144 0.00263233 0)
(0.0862572 0.00265074 0)
(0.0851928 0.00266859 0)
(0.0841214 0.00268589 0)
(0.0830431 0.00270265 0)
(0.0819583 0.00271889 0)
(0.0808671 0.00273461 0)
(0.0797697 0.00274982 0)
(0.0786664 0.00276454 0)
(0.0775572 0.00277878 0)
(0.0764425 0.00279254 0)
(0.0753223 0.00280585 0)
(0.074197 0.0028187 0)
(0.0730666 0.00283111 0)
(0.0719313 0.00284309 0)
(0.0707914 0.00285465 0)
(0.0696469 0.0028658 0)
(0.068498 0.00287655 0)
(0.0673449 0.0028869 0)
(0.0661878 0.00289688 0)
(0.0650268 0.00290649 0)
(0.063862 0.00291574 0)
(0.0626935 0.00292464 0)
(0.0615216 0.00293319 0)
(0.0603464 0.00294141 0)
(0.0591679 0.00294931 0)
(0.0579864 0.0029569 0)
(0.0568018 0.00296418 0)
(0.0556145 0.00297116 0)
(0.0544244 0.00297786 0)
(0.0532317 0.00298427 0)
(0.0520365 0.00299042 0)
(0.0508389 0.0029963 0)
(0.049639 0.00300192 0)
(0.0484369 0.0030073 0)
(0.0472327 0.00301244 0)
(0.0460265 0.00301735 0)
(0.0448184 0.00302204 0)
(0.0436085 0.00302651 0)
(0.0423969 0.00303077 0)
(0.0411835 0.00303482 0)
(0.0399686 0.00303868 0)
(0.0387523 0.00304235 0)
(0.0375344 0.00304584 0)
(0.0363153 0.00304916 0)
(0.0350948 0.0030523 0)
(0.0338731 0.00305527 0)
(0.0326503 0.00305809 0)
(0.0314264 0.00306076 0)
(0.0302014 0.00306328 0)
(0.0289755 0.00306565 0)
(0.0277487 0.00306789 0)
(0.0265209 0.00307 0)
(0.0252924 0.00307198 0)
(0.0240631 0.00307383 0)
(0.0228331 0.00307556 0)
(0.0216025 0.00307718 0)
(0.0203712 0.00307869 0)
(0.0191393 0.00308009 0)
(0.0179069 0.00308139 0)
(0.016674 0.00308259 0)
(0.0154407 0.00308368 0)
(0.0142069 0.00308468 0)
(0.0129728 0.00308559 0)
(0.0117383 0.00308641 0)
(0.0105035 0.00308714 0)
(0.00926842 0.00308779 0)
(0.0080331 0.00308835 0)
(0.00679759 0.00308883 0)
(0.0055619 0.00308922 0)
(0.00432607 0.00308954 0)
(0.00309012 0.00308977 0)
(0.00185411 0.00308993 0)
(0.00061804 0.00309001 0)
(0.000744157 -0.00520823 0)
(0.00223244 -0.00520803 0)
(0.00372065 -0.00520765 0)
(0.00520872 -0.00520707 0)
(0.0066966 -0.00520629 0)
(0.00818424 -0.00520531 0)
(0.00967157 -0.00520413 0)
(0.0111585 -0.00520273 0)
(0.0126451 -0.00520111 0)
(0.0141312 -0.00519926 0)
(0.0156167 -0.00519718 0)
(0.0171016 -0.00519485 0)
(0.0185858 -0.00519227 0)
(0.0200693 -0.00518941 0)
(0.0215519 -0.00518628 0)
(0.0230336 -0.00518285 0)
(0.0245142 -0.00517911 0)
(0.0259938 -0.00517505 0)
(0.0274723 -0.00517065 0)
(0.0289494 -0.00516589 0)
(0.0304251 -0.00516075 0)
(0.0318993 -0.00515522 0)
(0.0333719 -0.00514928 0)
(0.0348428 -0.0051429 0)
(0.0363119 -0.00513607 0)
(0.0377789 -0.00512876 0)
(0.0392438 -0.00512096 0)
(0.0407064 -0.00511263 0)
(0.0421666 -0.00510375 0)
(0.0436242 -0.00509431 0)
(0.0450791 -0.00508427 0)
(0.046531 -0.00507361 0)
(0.0479799 -0.00506231 0)
(0.0494254 -0.00505033 0)
(0.0508675 -0.00503765 0)
(0.0523059 -0.00502424 0)
(0.0537403 -0.00501008 0)
(0.0551707 -0.00499514 0)
(0.0565967 -0.00497939 0)
(0.0580181 -0.0049628 0)
(0.0594347 -0.00494534 0)
(0.0608462 -0.00492699 0)
(0.0622523 -0.00490772 0)
(0.0636529 -0.00488749 0)
(0.0650476 -0.00486628 0)
(0.0664361 -0.00484407 0)
(0.0678181 -0.00482082 0)
(0.0691934 -0.0047965 0)
(0.0705616 -0.0047711 0)
(0.0719225 -0.00474457 0)
(0.0732756 -0.00471691 0)
(0.0746207 -0.00468808 0)
(0.0759574 -0.00465805 0)
(0.0772854 -0.00462681 0)
(0.0786043 -0.00459432 0)
(0.0799138 -0.00456057 0)
(0.0812134 -0.00452554 0)
(0.082503 -0.00448921 0)
(0.0837819 -0.00445155 0)
(0.08505 -0.00441255 0)
(0.0863067 -0.00437219 0)
(0.0875517 -0.00433045 0)
(0.0887846 -0.00428734 0)
(0.090005 -0.00424282 0)
(0.0912125 -0.00419689 0)
(0.0924067 -0.00414954 0)
(0.0935871 -0.00410076 0)
(0.0947534 -0.00405055 0)
(0.0959052 -0.0039989 0)
(0.097042 -0.00394582 0)
(0.0981634 -0.00389129 0)
(0.0992691 -0.00383533 0)
(0.100359 -0.00377793 0)
(0.101431 -0.0037191 0)
(0.102487 -0.00365886 0)
(0.103526 -0.0035972 0)
(0.104546 -0.00353414 0)
(0.105548 -0.00346969 0)
(0.106532 -0.00340388 0)
(0.107497 -0.00333672 0)
(0.108442 -0.00326822 0)
(0.109368 -0.00319842 0)
(0.110273 -0.00312733 0)
(0.111158 -0.00305498 0)
(0.112022 -0.0029814 0)
(0.112864 -0.00290663 0)
(0.113685 -0.00283068 0)
(0.114484 -0.00275361 0)
(0.115261 -0.00267543 0)
(0.116016 -0.0025962 0)
(0.116747 -0.00251595 0)
(0.117456 -0.00243472 0)
(0.118141 -0.00235255 0)
(0.118802 -0.0022695 0)
(0.11944 -0.00218559 0)
(0.120053 -0.00210089 0)
(0.120642 -0.00201544 0)
(0.121207 -0.00192929 0)
(0.121746 -0.00184248 0)
(0.122261 -0.00175508 0)
(0.12275 -0.00166712 0)
(0.123215 -0.00157867 0)
(0.123654 -0.00148978 0)
(0.124067 -0.0014005 0)
(0.124455 -0.00131089 0)
(0.124817 -0.001221 0)
(0.125153 -0.00113088 0)
(0.125463 -0.00104059 0)
(0.125748 -0.000950178 0)
(0.126007 -0.000859709 0)
(0.126239 -0.000769231 0)
(0.126446 -0.000678797 0)
(0.126627 -0.000588462 0)
(0.126782 -0.000498277 0)
(0.126911 -0.000408294 0)
(0.127015 -0.000318565 0)
(0.127092 -0.000229137 0)
(0.127145 -0.000140062 0)
(0.127171 -5.13872e-05 0)
(0.127173 3.68412e-05 0)
(0.127149 0.000124577 0)
(0.1271 0.000211777 0)
(0.127027 0.000298396 0)
(0.126928 0.000384394 0)
(0.126806 0.00046973 0)
(0.126658 0.000554366 0)
(0.126487 0.000638264 0)
(0.126292 0.000721389 0)
(0.126073 0.000803706 0)
(0.12583 0.000885183 0)
(0.125565 0.000965789 0)
(0.125276 0.0010455 0)
(0.124965 0.00112427 0)
(0.124632 0.0012021 0)
(0.124276 0.00127895 0)
(0.123898 0.00135479 0)
(0.123499 0.00142962 0)
(0.123079 0.0015034 0)
(0.122638 0.00157613 0)
(0.122176 0.00164778 0)
(0.121693 0.00171834 0)
(0.121191 0.0017878 0)
(0.120669 0.00185615 0)
(0.120128 0.00192337 0)
(0.119567 0.00198946 0)
(0.118988 0.00205441 0)
(0.11839 0.00211822 0)
(0.117775 0.00218087 0)
(0.117141 0.00224238 0)
(0.116491 0.00230272 0)
(0.115823 0.00236191 0)
(0.115138 0.00241995 0)
(0.114437 0.00247683 0)
(0.11372 0.00253256 0)
(0.112987 0.00258714 0)
(0.112239 0.00264058 0)
(0.111476 0.00269287 0)
(0.110697 0.00274404 0)
(0.109905 0.00279408 0)
(0.109098 0.00284301 0)
(0.108278 0.00289082 0)
(0.107443 0.00293754 0)
(0.106596 0.00298316 0)
(0.105736 0.00302771 0)
(0.104864 0.00307119 0)
(0.103979 0.00311361 0)
(0.103082 0.00315499 0)
(0.102173 0.00319533 0)
(0.101253 0.00323466 0)
(0.100323 0.00327298 0)
(0.0993808 0.0033103 0)
(0.0984285 0.00334665 0)
(0.0974661 0.00338204 0)
(0.0964936 0.00341647 0)
(0.0955115 0.00344997 0)
(0.09452 0.00348254 0)
(0.0935193 0.00351422 0)
(0.0925097 0.003545 0)
(0.0914914 0.0035749 0)
(0.0904648 0.00360394 0)
(0.08943 0.00363214 0)
(0.0883873 0.00365951 0)
(0.0873369 0.00368607 0)
(0.086279 0.00371182 0)
(0.0852139 0.00373679 0)
(0.0841418 0.003761 0)
(0.0830629 0.00378445 0)
(0.0819775 0.00380717 0)
(0.0808857 0.00382916 0)
(0.0797877 0.00385044 0)
(0.0786837 0.00387104 0)
(0.077574 0.00389095 0)
(0.0764587 0.00391021 0)
(0.075338 0.00392882 0)
(0.0742121 0.0039468 0)
(0.0730812 0.00396415 0)
(0.0719454 0.00398091 0)
(0.070805 0.00399708 0)
(0.06966 0.00401268 0)
(0.0685107 0.00402771 0)
(0.0673571 0.0040422 0)
(0.0661995 0.00405616 0)
(0.0650381 0.00406959 0)
(0.0638728 0.00408253 0)
(0.062704 0.00409497 0)
(0.0615317 0.00410693 0)
(0.060356 0.00411843 0)
(0.0591772 0.00412948 0)
(0.0579953 0.00414009 0)
(0.0568104 0.00415026 0)
(0.0556227 0.00416003 0)
(0.0544323 0.00416939 0)
(0.0532392 0.00417836 0)
(0.0520437 0.00418695 0)
(0.0508458 0.00419517 0)
(0.0496456 0.00420304 0)
(0.0484432 0.00421056 0)
(0.0472387 0.00421775 0)
(0.0460323 0.00422461 0)
(0.0448239 0.00423116 0)
(0.0436137 0.0042374 0)
(0.0424018 0.00424336 0)
(0.0411883 0.00424903 0)
(0.0399732 0.00425442 0)
(0.0387565 0.00425955 0)
(0.0375385 0.00426443 0)
(0.0363191 0.00426906 0)
(0.0350985 0.00427345 0)
(0.0338766 0.00427761 0)
(0.0326536 0.00428154 0)
(0.0314295 0.00428527 0)
(0.0302044 0.00428879 0)
(0.0289783 0.00429211 0)
(0.0277513 0.00429523 0)
(0.0265234 0.00429818 0)
(0.0252947 0.00430094 0)
(0.0240653 0.00430353 0)
(0.0228352 0.00430595 0)
(0.0216044 0.00430821 0)
(0.0203729 0.00431032 0)
(0.0191409 0.00431228 0)
(0.0179084 0.00431409 0)
(0.0166754 0.00431576 0)
(0.0154419 0.00431729 0)
(0.0142081 0.00431869 0)
(0.0129738 0.00431996 0)
(0.0117392 0.0043211 0)
(0.0105043 0.00432212 0)
(0.00926914 0.00432302 0)
(0.00803373 0.0043238 0)
(0.00679811 0.00432447 0)
(0.00556232 0.00432502 0)
(0.00432639 0.00432546 0)
(0.00309036 0.00432579 0)
(0.00185425 0.00432601 0)
(0.000618087 0.00432612 0)
(0.000744267 -0.00669662 0)
(0.00223277 -0.00669638 0)
(0.0037212 -0.00669588 0)
(0.0052095 -0.00669514 0)
(0.00669761 -0.00669415 0)
(0.00818548 -0.0066929 0)
(0.00967305 -0.00669139 0)
(0.0111603 -0.0066896 0)
(0.0126471 -0.00668753 0)
(0.0141334 -0.00668518 0)
(0.0156192 -0.00668251 0)
(0.0171044 -0.00667954 0)
(0.0185889 -0.00667624 0)
(0.0200727 -0.00667259 0)
(0.0215556 -0.00666858 0)
(0.0230377 -0.0066642 0)
(0.0245187 -0.00665942 0)
(0.0259987 -0.00665422 0)
(0.0274775 -0.00664859 0)
(0.028955 -0.0066425 0)
(0.0304312 -0.00663593 0)
(0.0319059 -0.00662885 0)
(0.033379 -0.00662125 0)
(0.0348504 -0.00661308 0)
(0.03632 -0.00660434 0)
(0.0377875 -0.00659498 0)
(0.039253 -0.00658498 0)
(0.0407163 -0.00657432 0)
(0.0421771 -0.00656295 0)
(0.0436354 -0.00655085 0)
(0.045091 -0.00653799 0)
(0.0465436 -0.00652432 0)
(0.0479932 -0.00650983 0)
(0.0494395 -0.00649448 0)
(0.0508824 -0.00647823 0)
(0.0523216 -0.00646104 0)
(0.053757 -0.00644288 0)
(0.0551882 -0.00642372 0)
(0.0566152 -0.00640351 0)
(0.0580375 -0.00638223 0)
(0.0594551 -0.00635984 0)
(0.0608677 -0.00633629 0)
(0.0622749 -0.00631156 0)
(0.0636766 -0.0062856 0)
(0.0650724 -0.00625838 0)
(0.0664621 -0.00622986 0)
(0.0678453 -0.00620002 0)
(0.0692218 -0.0061688 0)
(0.0705913 -0.00613618 0)
(0.0719535 -0.00610213 0)
(0.0733079 -0.0060666 0)
(0.0746543 -0.00602957 0)
(0.0759924 -0.00599101 0)
(0.0773218 -0.00595088 0)
(0.0786422 -0.00590915 0)
(0.0799531 -0.0058658 0)
(0.0812543 -0.00582079 0)
(0.0825453 -0.00577411 0)
(0.0838258 -0.00572572 0)
(0.0850954 -0.0056756 0)
(0.0863536 -0.00562374 0)
(0.0876002 -0.00557011 0)
(0.0888347 -0.00551469 0)
(0.0900567 -0.00545747 0)
(0.0912659 -0.00539843 0)
(0.0924617 -0.00533756 0)
(0.0936437 -0.00527486 0)
(0.0948117 -0.00521031 0)
(0.0959651 -0.00514391 0)
(0.0971036 -0.00507566 0)
(0.0982267 -0.00500555 0)
(0.099334 -0.00493359 0)
(0.100425 -0.00485979 0)
(0.1015 -0.00478414 0)
(0.102557 -0.00470666 0)
(0.103597 -0.00462736 0)
(0.104619 -0.00454627 0)
(0.105623 -0.00446338 0)
(0.106608 -0.00437873 0)
(0.107574 -0.00429235 0)
(0.108521 -0.00420424 0)
(0.109448 -0.00411445 0)
(0.110355 -0.00402301 0)
(0.111241 -0.00392994 0)
(0.112106 -0.00383529 0)
(0.11295 -0.00373909 0)
(0.113773 -0.00364139 0)
(0.114573 -0.00354223 0)
(0.115352 -0.00344166 0)
(0.116107 -0.00333972 0)
(0.11684 -0.00323647 0)
(0.117549 -0.00313196 0)
(0.118236 -0.00302624 0)
(0.118898 -0.00291937 0)
(0.119536 -0.00281142 0)
(0.120151 -0.00270243 0)
(0.12074 -0.00259248 0)
(0.121306 -0.00248163 0)
(0.121846 -0.00236993 0)
(0.122361 -0.00225746 0)
(0.122851 -0.00214429 0)
(0.123316 -0.00203048 0)
(0.123756 -0.0019161 0)
(0.124169 -0.00180122 0)
(0.124557 -0.00168591 0)
(0.12492 -0.00157024 0)
(0.125256 -0.00145428 0)
(0.125567 -0.0013381 0)
(0.125851 -0.00122176 0)
(0.12611 -0.00110535 0)
(0.126343 -0.000988934 0)
(0.126549 -0.000872572 0)
(0.12673 -0.000756336 0)
(0.126885 -0.000640296 0)
(0.127014 -0.000524516 0)
(0.127117 -0.000409064 0)
(0.127195 -0.000294002 0)
(0.127246 -0.000179395 0)
(0.127273 -6.53035e-05 0)
(0.127274 4.82113e-05 0)
(0.127249 0.000161091 0)
(0.1272 0.000273278 0)
(0.127126 0.000384717 0)
(0.127026 0.000495355 0)
(0.126903 0.000605139 0)
(0.126755 0.000714021 0)
(0.126583 0.000821951 0)