/*--------------------------------*- C++ -*----------------------------------*\
| =========                 |                                                 |
| \\      /  F ield         | OpenFOAM: The Open Source CFD Toolbox           |
|  \\    /   O peration     | Version:  v2012                                 |
|   \\  /    A nd           | Website:  www.openfoam.com                      |
|    \\/     M anipulation  |                                                 |
\*---------------------------------------------------------------------------*/
FoamFile
{
    version     2.0;
    format      ascii;
    class       volScalarField;
    location    "18.7";
    object      Psi_z;
}
// * * * * * * * * * * * * * * * * * * * * * * * * * * * * * * * * * * * * * //

dimensions      [0 2 -1 0 0 0 0];


internalField   nonuniform List<scalar> 
65536
(
8.07154e-06
2.42151e-05
4.03596e-05
5.6506e-05
7.26548e-05
8.88068e-05
0.000104963
0.000121123
0.000137288
0.00015346
0.000169638
0.000185823
0.000202015
0.000218216
0.000234426
0.000250645
0.000266875
0.000283114
0.000299365
0.000315626
0.0003319
0.000348185
0.000364483
0.000380794
0.000397117
0.000413454
0.000429804
0.000446167
0.000462544
0.000478934
0.000495337
0.000511754
0.000528183
0.000544626
0.000561081
0.000577548
0.000594027
0.000610517
0.000627018
0.000643529
0.000660049
0.000676577
0.000693113
0.000709655
0.000726202
0.000742754
0.000759308
0.000775864
0.000792419
0.000808973
0.000825523
0.000842067
0.000858605
0.000875132
0.000891648
0.00090815
0.000924636
0.000941102
0.000957546
0.000973965
0.000990357
0.00100672
0.00102304
0.00103933
0.00105558
0.00107178
0.00108793
0.00110403
0.00112007
0.00113605
0.00115196
0.0011678
0.00118357
0.00119925
0.00121485
0.00123036
0.00124576
0.00126107
0.00127627
0.00129135
0.00130631
0.00132114
0.00133584
0.0013504
0.00136482
0.00137908
0.00139317
0.00140711
0.00142086
0.00143444
0.00144782
0.00146101
0.001474
0.00148677
0.00149932
0.00151165
0.00152374
0.00153559
0.00154719
0.00155853
0.00156961
0.00158041
0.00159093
0.00160117
0.0016111
0.00162074
0.00163006
0.00163907
0.00164775
0.0016561
0.00166411
0.00167177
0.00167908
0.00168604
0.00169263
0.00169885
0.0017047
0.00171016
0.00171524
0.00171993
0.00172423
0.00172812
0.00173162
0.00173471
0.00173738
0.00173965
0.00174151
0.00174294
0.00174396
0.00174456
0.00174474
0.0017445
0.00174384
0.00174275
0.00174125
0.00173933
0.00173699
0.00173423
0.00173107
0.00172748
0.00172349
0.0017191
0.0017143
0.0017091
0.00170351
0.00169753
0.00169117
0.00168442
0.0016773
0.00166981
0.00166196
0.00165375
0.00164519
0.00163628
0.00162704
0.00161746
0.00160756
0.00159734
0.00158681
0.00157598
0.00156486
0.00155344
0.00154175
0.00152978
0.00151755
0.00150506
0.00149232
0.00147934
0.00146612
0.00145268
0.00143902
0.00142515
0.00141107
0.0013968
0.00138234
0.0013677
0.00135288
0.0013379
0.00132275
0.00130746
0.00129201
0.00127643
0.00126071
0.00124486
0.0012289
0.00121282
0.00119663
0.00118034
0.00116395
0.00114747
0.0011309
0.00111425
0.00109753
0.00108073
0.00106387
0.00104694
0.00102996
0.00101292
0.000995838
0.000978706
0.000961533
0.000944322
0.000927075
0.000909798
0.000892492
0.00087516
0.000857807
0.000840433
0.000823043
0.000805637
0.000788219
0.000770791
0.000753355
0.000735912
0.000718465
0.000701016
0.000683565
0.000666114
0.000648665
0.000631218
0.000613776
0.000596338
0.000578906
0.000561481
0.000544064
0.000526654
0.000509253
0.000491862
0.00047448
0.000457108
0.000439746
0.000422394
0.000405053
0.000387722
0.000370402
0.000353092
0.000335793
0.000318504
0.000301224
0.000283955
0.000266695
0.000249443
0.000232201
0.000214966
0.000197739
0.000180519
0.000163306
0.000146099
0.000128898
0.000111701
9.45092e-05
7.73207e-05
6.01352e-05
4.2952e-05
2.57705e-05
8.59007e-06
2.42144e-05
7.26444e-05
0.000121078
0.000169516
0.000217962
0.000266417
0.000314884
0.000363365
0.000411861
0.000460374
0.000508907
0.000557462
0.000606039
0.000654642
0.000703271
0.000751928
0.000800615
0.000849334
0.000898085
0.00094687
0.00099569
0.00104455
0.00109344
0.00114237
0.00119134
0.00124035
0.0012894
0.00133849
0.00138762
0.00143679
0.001486
0.00153525
0.00158454
0.00163387
0.00168323
0.00173264
0.00178207
0.00183154
0.00188105
0.00193058
0.00198014
0.00202973
0.00207934
0.00212896
0.00217861
0.00222826
0.00227793
0.0023276
0.00237726
0.00242693
0.00247658
0.00252621
0.00257583
0.00262541
0.00267496
0.00272447
0.00277393
0.00282333
0.00287267
0.00292193
0.00297111
0.00302019
0.00306917
0.00311804
0.00316679
0.00321539
0.00326385
0.00331215
0.00336028
0.00340822
0.00345597
0.00350349
0.00355079
0.00359785
0.00364465
0.00369117
0.0037374
0.00378332
0.00382892
0.00387417
0.00391906
0.00396357
0.00400767
0.00405136
0.00409461
0.00413739
0.0041797
0.0042215
0.00426278
0.00430351
0.00434367
0.00438325
0.00442221
0.00446053
0.0044982
0.00453519
0.00457147
0.00460703
0.00464184
0.00467587
0.00470911
0.00474152
0.0047731
0.0048038
0.00483362
0.00486253
0.00489051
0.00491753
0.00494358
0.00496864
0.00499267
0.00501567
0.00503762
0.00505849
0.00507827
0.00509693
0.00511448
0.00513088
0.00514612
0.0051602
0.00517309
0.00518478
0.00519526
0.00520453
0.00521257
0.00521937
0.00522494
0.00522925
0.00523231
0.00523411
0.00523464
0.00523392
0.00523194
0.00522869
0.00522418
0.00521841
0.00521139
0.00520312
0.00519361
0.00518286
0.00517089
0.0051577
0.0051433
0.00512771
0.00511093
0.00509299
0.00507389
0.00505365
0.00503228
0.0050098
0.00498624
0.0049616
0.00493591
0.00490918
0.00488144
0.00485271
0.004823
0.00479234
0.00476075
0.00472825
0.00469486
0.00466061
0.00462552
0.00458961
0.0045529
0.00451543
0.0044772
0.00443825
0.0043986
0.00435827
0.00431728
0.00427565
0.00423342
0.00419059
0.0041472
0.00410327
0.00405881
0.00401385
0.00396841
0.00392251
0.00387617
0.00382941
0.00378225
0.00373471
0.00368681
0.00363856
0.00358999
0.00354111
0.00349194
0.00344249
0.00339278
0.00334283
0.00329265
0.00324226
0.00319166
0.00314088
0.00308993
0.00303882
0.00298756
0.00293616
0.00288464
0.002833
0.00278126
0.00272942
0.0026775
0.0026255
0.00257344
0.00252131
0.00246914
0.00241692
0.00236467
0.00231238
0.00226007
0.00220774
0.0021554
0.00210305
0.00205069
0.00199834
0.00194599
0.00189365
0.00184132
0.00178901
0.00173671
0.00168443
0.00163218
0.00157995
0.00152775
0.00147557
0.00142343
0.00137131
0.00131923
0.00126717
0.00121515
0.00116315
0.00111119
0.00105927
0.00100737
0.0009555
0.000903663
0.000851854
0.000800074
0.00074832
0.000696593
0.00064489
0.00059321
0.000541551
0.000489912
0.000438292
0.000386689
0.0003351
0.000283524
0.000231959
0.000180403
0.000128854
7.73106e-05
2.57698e-05
4.03562e-05
0.00012107
0.00020179
0.000282519
0.000363259
0.000444016
0.000524792
0.00060559
0.000686415
0.000767269
0.000848155
0.000929077
0.00101004
0.00109104
0.00117209
0.00125318
0.00133432
0.00141552
0.00149677
0.00157808
0.00165944
0.00174087
0.00182236
0.00190391
0.00198553
0.00206721
0.00214896
0.00223077
0.00231266
0.00239461
0.00247662
0.00255871
0.00264086
0.00272307
0.00280535
0.00288769
0.00297009
0.00305254
0.00313505
0.00321761
0.00330021
0.00338286
0.00346554
0.00354826
0.003631
0.00371376
0.00379654
0.00387933
0.00396211
0.00404489
0.00412765
0.00421038
0.00429308
0.00437573
0.00445832
0.00454084
0.00462328
0.00470563
0.00478786
0.00486998
0.00495195
0.00503377
0.00511542
0.00519688
0.00527813
0.00535915
0.00543993
0.00552045
0.00560068
0.00568059
0.00576018
0.00583941
0.00591826
0.00599671
0.00607472
0.00615228
0.00622935
0.0063059
0.00638192
0.00645736
0.00653219
0.00660639
0.00667992
0.00675276
0.00682486
0.00689619
0.00696672
0.00703641
0.00710523
0.00717315
0.00724011
0.00730609
0.00737105
0.00743496
0.00749776
0.00755944
0.00761993
0.00767922
0.00773726
0.007794
0.00784942
0.00790347
0.00795612
0.00800733
0.00805705
0.00810526
0.00815191
0.00819698
0.00824041
0.00828219
0.00832227
0.00836063
0.00839722
0.00843203
0.00846501
0.00849614
0.0085254
0.00855275
0.00857817
0.00860164
0.00862314
0.00864264
0.00866013
0.00867558
0.00868899
0.00870034
0.00870961
0.00871681
0.00872191
0.00872491
0.00872581
0.00872461
0.0087213
0.00871588
0.00870836
0.00869875
0.00868704
0.00867325
0.00865739
0.00863947
0.0086195
0.00859751
0.0085735
0.0085475
0.00851952
0.0084896
0.00845775
0.00842399
0.00838836
0.00835089
0.00831159
0.00827051
0.00822767
0.0081831
0.00813684
0.00808893
0.00803939
0.00798826
0.00793559
0.00788139
0.00782573
0.00776862
0.00771011
0.00765023
0.00758903
0.00752654
0.00746281
0.00739787
0.00733175
0.0072645
0.00719616
0.00712677
0.00705635
0.00698495
0.00691261
0.00683936
0.00676524
0.00669029
0.00661453
0.00653801
0.00646075
0.0063828
0.00630418
0.00622492
0.00614506
0.00606463
0.00598366
0.00590217
0.0058202
0.00573777
0.00565491
0.00557164
0.00548799
0.00540398
0.00531965
0.005235
0.00515006
0.00506486
0.00497941
0.00489374
0.00480785
0.00472178
0.00463553
0.00454913
0.00446258
0.00437591
0.00428913
0.00420225
0.00411528
0.00402824
0.00394114
0.00385399
0.0037668
0.00367958
0.00359234
0.00350508
0.00341782
0.00333056
0.00324331
0.00315607
0.00306885
0.00298166
0.00289449
0.00280737
0.00272027
0.00263322
0.00254622
0.00245926
0.00237235
0.00228548
0.00219867
0.00211192
0.00202521
0.00193856
0.00185196
0.00176541
0.00167891
0.00159247
0.00150607
0.00141973
0.00133343
0.00124717
0.00116096
0.00107479
0.000988658
0.000902563
0.0008165
0.000730469
0.000644465
0.000558485
0.000472527
0.000386588
0.000300664
0.000214751
0.000128848
4.29486e-05
5.64962e-05
0.000169491
0.000282494
0.000395509
0.000508541
0.000621595
0.000734677
0.00084779
0.00096094
0.00107413
0.00118737
0.00130065
0.00141399
0.00152739
0.00164086
0.00175438
0.00186798
0.00198165
0.0020954
0.00220923
0.00232314
0.00243713
0.00255121
0.00266538
0.00277964
0.002894
0.00300845
0.00312299
0.00323762
0.00335235
0.00346718
0.0035821
0.00369711
0.00381221
0.0039274
0.00404268
0.00415804
0.00427348
0.004389
0.00450458
0.00462023
0.00473594
0.00485171
0.00496752
0.00508337
0.00519925
0.00531515
0.00543106
0.00554697
0.00566287
0.00577875
0.00589459
0.00601038
0.0061261
0.00624175
0.0063573
0.00647273
0.00658803
0.00670318
0.00681816
0.00693295
0.00704752
0.00716185
0.00727591
0.00738969
0.00750316
0.00761628
0.00772903
0.00784138
0.0079533
0.00806475
0.00817571
0.00828613
0.00839599
0.00850525
0.00861387
0.00872181
0.00882902
0.00893548
0.00904114
0.00914596
0.00924988
0.00935287
0.00945489
0.00955587
0.00965579
0.00975458
0.0098522
0.0099486
0.0100437
0.0101375
0.01023
0.010321
0.0104105
0.0104985
0.0105849
0.0106696
0.0107527
0.010834
0.0109135
0.0109911
0.0110668
0.0111406
0.0112123
0.011282
0.0113495
0.0114149
0.011478
0.0115389
0.0115974
0.0116536
0.0117073
0.0117586
0.0118074
0.0118536
0.0118972
0.0119382
0.0119765
0.0120122
0.0120451
0.0120752
0.0121025
0.012127
0.0121487
0.0121675
0.0121834
0.0121964
0.0122065
0.0122136
0.0122178
0.0122191
0.0122174
0.0122128
0.0122052
0.0121946
0.0121812
0.0121648
0.0121454
0.0121232
0.0120981
0.0120701
0.0120393
0.0120057
0.0119693
0.0119301
0.0118881
0.0118435
0.0117962
0.0117463
0.0116938
0.0116387
0.0115812
0.0115211
0.0114587
0.0113939
0.0113268
0.0112574
0.0111857
0.0111119
0.011036
0.010958
0.010878
0.0107961
0.0107122
0.0106264
0.0105389
0.0104496
0.0103587
0.010266
0.0101718
0.0100761
0.0099789
0.00988026
0.00978025
0.00967893
0.00957633
0.00947251
0.00936752
0.00926141
0.00915423
0.00904603
0.00893685
0.00882674
0.00871574
0.00860389
0.00849125
0.00837784
0.00826372
0.00814892
0.00803348
0.00791744
0.00780083
0.00768368
0.00756604
0.00744794
0.0073294
0.00721046
0.00709115
0.0069715
0.00685152
0.00673126
0.00661073
0.00648996
0.00636898
0.00624779
0.00612643
0.00600492
0.00588327
0.0057615
0.00563963
0.00551767
0.00539565
0.00527357
0.00515144
0.00502929
0.00490712
0.00478494
0.00466277
0.00454061
0.00441847
0.00429635
0.00417428
0.00405225
0.00393026
0.00380833
0.00368645
0.00356464
0.00344289
0.00332122
0.00319961
0.00307807
0.00295661
0.00283522
0.0027139
0.00259266
0.0024715
0.00235041
0.00222938
0.00210843
0.00198755
0.00186673
0.00174598
0.00162529
0.00150465
0.00138407
0.00126354
0.00114306
0.00102262
0.000902216
0.000781849
0.000661513
0.000541202
0.000420913
0.00030064
0.000180379
6.01257e-05
7.26337e-05
0.000217904
0.000363185
0.000508481
0.0006538
0.000799147
0.00094453
0.00108995
0.00123542
0.00138095
0.00152653
0.00167218
0.00181789
0.00196368
0.00210956
0.00225552
0.00240156
0.00254771
0.00269395
0.00284029
0.00298674
0.0031333
0.00327997
0.00342676
0.00357367
0.00372069
0.00386784
0.00401511
0.0041625
0.00431001
0.00445764
0.0046054
0.00475327
0.00490126
0.00504937
0.00519759
0.00534591
0.00549434
0.00564287
0.00579149
0.0059402
0.00608898
0.00623783
0.00638674
0.00653571
0.00668471
0.00683374
0.00698279
0.00713183
0.00728087
0.00742988
0.00757884
0.00772774
0.00787655
0.00802527
0.00817386
0.00832231
0.00847059
0.00861867
0.00876654
0.00891416
0.0090615
0.00920854
0.00935524
0.00950157
0.0096475
0.00979299
0.00993801
0.0100825
0.0102265
0.0103698
0.0105125
0.0106546
0.0107959
0.0109364
0.0110761
0.011215
0.0113529
0.0114899
0.0116258
0.0117606
0.0118943
0.0120268
0.012158
0.012288
0.0124165
0.0125436
0.0126692
0.0127932
0.0129156
0.0130363
0.0131552
0.0132723
0.0133875
0.0135007
0.0136119
0.013721
0.0138278
0.0139325
0.0140348
0.0141347
0.0142321
0.0143271
0.0144194
0.0145091
0.014596
0.0146801
0.0147614
0.0148397
0.0149151
0.0149873
0.0150565
0.0151225
0.0151853
0.0152448
0.0153009
0.0153537
0.015403
0.0154489
0.0154912
0.01553
0.0155652
0.0155968
0.0156246
0.0156488
0.0156693
0.0156861
0.015699
0.0157082
0.0157137
0.0157153
0.0157131
0.0157072
0.0156974
0.0156839
0.0156665
0.0156454
0.0156206
0.015592
0.0155596
0.0155236
0.015484
0.0154407
0.0153938
0.0153433
0.0152894
0.0152319
0.0151711
0.0151068
0.0150392
0.0149684
0.0148943
0.014817
0.0147367
0.0146533
0.0145669
0.0144776
0.0143854
0.0142904
0.0141927
0.0140924
0.0139894
0.0138839
0.013776
0.0136657
0.013553
0.0134381
0.0133211
0.0132019
0.0130807
0.0129575
0.0128325
0.0127055
0.0125769
0.0124465
0.0123145
0.0121809
0.0120459
0.0119094
0.0117715
0.0116323
0.0114918
0.0113502
0.0112074
0.0110635
0.0109186
0.0107727
0.010626
0.0104783
0.0103298
0.0101805
0.0100305
0.00987988
0.00972857
0.00957667
0.00942421
0.00927124
0.00911779
0.0089639
0.0088096
0.00865494
0.00849993
0.00834461
0.00818902
0.00803318
0.00787711
0.00772084
0.0075644
0.00740782
0.0072511
0.00709427
0.00693736
0.00678037
0.00662334
0.00646626
0.00630917
0.00615207
0.00599497
0.00583789
0.00568084
0.00552382
0.00536686
0.00520995
0.0050531
0.00489632
0.00473962
0.004583
0.00442646
0.00427002
0.00411366
0.0039574
0.00380123
0.00364515
0.00348918
0.0033333
0.00317752
0.00302183
0.00286623
0.00271073
0.00255531
0.00239998
0.00224473
0.00208956
0.00193446
0.00177943
0.00162447
0.00146957
0.00131473
0.00115993
0.00100518
0.000850472
0.000695795
0.000541145
0.000386517
0.000231904
7.73003e-05
8.8768e-05
0.000266308
0.00044386
0.000621431
0.00079903
0.000976664
0.00115434
0.00133207
0.00150985
0.0016877
0.00186563
0.00204363
0.00222171
0.00239989
0.00257817
0.00275656
0.00293505
0.00311366
0.00329239
0.00347125
0.00365024
0.00382936
0.00400862
0.00418803
0.00436757
0.00454727
0.00472711
0.0049071
0.00508724
0.00526754
0.00544798
0.00562857
0.00580931
0.0059902
0.00617122
0.00635239
0.00653368
0.00671511
0.00689665
0.00707831
0.00726008
0.00744194
0.00762389
0.00780591
0.007988
0.00817014
0.00835232
0.00853451
0.00871671
0.0088989
0.00908105
0.00926315
0.00944518
0.0096271
0.00980891
0.00999057
0.0101721
0.0103533
0.0105344
0.0107152
0.0108956
0.0110758
0.0112556
0.0114349
0.0116139
0.0117923
0.0119702
0.0121475
0.0123242
0.0125002
0.0126755
0.01285
0.0130237
0.0131965
0.0133684
0.0135393
0.0137091
0.0138778
0.0140452
0.0142115
0.0143764
0.0145399
0.014702
0.0148625
0.0150214
0.0151787
0.0153341
0.0154878
0.0156395
0.0157892
0.0159369
0.0160824
0.0162256
0.0163665
0.0165051
0.0166411
0.0167745
0.0169053
0.0170333
0.0171585
0.0172807
0.0174
0.0175162
0.0176291
0.0177389
0.0178452
0.0179482
0.0180476
0.0181435
0.0182357
0.0183242
0.0184089
0.0184896
0.0185665
0.0186393
0.018708
0.0187726
0.018833
0.0188892
0.018941
0.0189885
0.0190315
0.0190702
0.0191043
0.0191339
0.019159
0.0191795
0.0191954
0.0192067
0.0192133
0.0192153
0.0192127
0.0192054
0.0191934
0.0191769
0.0191556
0.0191298
0.0190994
0.0190644
0.0190248
0.0189808
0.0189322
0.0188792
0.0188219
0.0187601
0.0186941
0.0186238
0.0185493
0.0184707
0.018388
0.0183012
0.0182106
0.0181161
0.0180177
0.0179156
0.0178099
0.0177006
0.0175878
0.0174716
0.0173521
0.0172293
0.0171033
0.0169742
0.0168422
0.0167072
0.0165694
0.0164288
0.0162856
0.0161398
0.0159915
0.0158409
0.0156878
0.0155326
0.0153752
0.0152157
0.0150543
0.0148909
0.0147257
0.0145587
0.0143901
0.0142198
0.014048
0.0138748
0.0137001
0.0135242
0.013347
0.0131686
0.0129891
0.0128085
0.0126269
0.0124444
0.0122609
0.0120767
0.0118917
0.0117059
0.0115195
0.0113325
0.0111449
0.0109567
0.0107681
0.0105789
0.0103894
0.0101995
0.0100093
0.00981879
0.00962798
0.00943694
0.00924569
0.00905426
0.00886268
0.00867096
0.00847914
0.00828724
0.00809527
0.00790326
0.00771123
0.00751919
0.00732715
0.00713514
0.00694317
0.00675125
0.00655938
0.00636759
0.00617587
0.00598424
0.00579271
0.00560127
0.00540994
0.00521872
0.00502762
0.00483662
0.00464575
0.00445499
0.00426436
0.00407384
0.00388344
0.00369316
0.00350299
0.00331293
0.00312298
0.00293314
0.0027434
0.00255375
0.0023642
0.00217473
0.00198534
0.00179603
0.00160679
0.0014176
0.00122848
0.0010394
0.00085036
0.000661356
0.000472378
0.00028342
9.44719e-05
0.000104898
0.0003147
0.000524515
0.000734354
0.000944225
0.00115414
0.0013641
0.00157413
0.00178422
0.00199439
0.00220464
0.00241499
0.00262544
0.002836
0.00304668
0.00325749
0.00346842
0.00367949
0.00389071
0.00410208
0.0043136
0.00452528
0.00473713
0.00494914
0.00516133
0.00537369
0.00558623
0.00579894
0.00601184
0.00622491
0.00643817
0.0066516
0.00686521
0.00707899
0.00729294
0.00750705
0.00772132
0.00793575
0.00815032
0.00836503
0.00857986
0.00879482
0.00900987
0.00922502
0.00944025
0.00965554
0.00987087
0.0100862
0.0103016
0.010517
0.0107323
0.0109475
0.0111627
0.0113778
0.0115927
0.0118074
0.012022
0.0122363
0.0124503
0.0126641
0.0128775
0.0130904
0.013303
0.0135151
0.0137266
0.0139376
0.0141479
0.0143576
0.0145665
0.0147747
0.014982
0.0151884
0.0153938
0.0155981
0.0158014
0.0160035
0.0162043
0.0164038
0.0166019
0.0167985
0.0169936
0.017187
0.0173787
0.0175686
0.0177566
0.0179426
0.0181265
0.0183083
0.0184878
0.0186649
0.0188396
0.0190117
0.0191812
0.019348
0.0195119
0.0196728
0.0198307
0.0199855
0.020137
0.0202851
0.0204298
0.0205709
0.0207084
0.0208421
0.020972
0.0210979
0.0212198
0.0213375
0.021451
0.0215601
0.0216649
0.0217651
0.0218607
0.0219517
0.0220379
0.0221193
0.0221958
0.0222673
0.0223337
0.0223951
0.0224513
0.0225023
0.022548
0.0225885
0.0226235
0.0226532
0.0226775
0.0226964
0.0227097
0.0227176
0.02272
0.0227169
0.0227082
0.0226941
0.0226745
0.0226494
0.0226188
0.0225828
0.0225414
0.0224946
0.0224424
0.0223849
0.0223222
0.0222543
0.0221812
0.022103
0.0220198
0.0219317
0.0218386
0.0217407
0.0216381
0.0215308
0.0214189
0.0213025
0.0211817
0.0210565
0.0209272
0.0207937
0.0206562
0.0205147
0.0203694
0.0202203
0.0200676
0.0199113
0.0197516
0.0195885
0.0194222
0.0192527
0.0190802
0.0189048
0.0187265
0.0185455
0.0183618
0.0181756
0.0179869
0.0177959
0.0176027
0.0174072
0.0172097
0.0170102
0.0168088
0.0166057
0.0164007
0.0161942
0.0159861
0.0157765
0.0155655
0.0153532
0.0151397
0.0149249
0.0147091
0.0144922
0.0142743
0.0140555
0.0138359
0.0136155
0.0133943
0.0131725
0.01295
0.012727
0.0125034
0.0122793
0.0120548
0.0118299
0.0116047
0.0113791
0.0111533
0.0109272
0.0107009
0.0104744
0.0102478
0.010021
0.00979416
0.00956724
0.00934028
0.00911329
0.0088863
0.00865931
0.00843236
0.00820546
0.00797861
0.00775184
0.00752515
0.00729856
0.00707207
0.0068457
0.00661944
0.00639332
0.00616732
0.00594146
0.00571574
0.00549015
0.00526472
0.00503942
0.00481426
0.00458925
0.00436437
0.00413963
0.00391503
0.00369055
0.0034662
0.00324197
0.00301786
0.00279385
0.00256995
0.00234614
0.00212242
0.00189878
0.00167522
0.00145172
0.00122828
0.00100489
0.000781541
0.000558221
0.000334924
0.00011164
0.000121024
0.000363077
0.000605147
0.000847243
0.00108938
0.00133156
0.0015738
0.00181611
0.0020585
0.00230098
0.00254356
0.00278625
0.00302906
0.003272
0.00351507
0.00375828
0.00400165
0.00424518
0.00448888
0.00473275
0.0049768
0.00522104
0.00546546
0.00571009
0.00595491
0.00619994
0.00644517
0.00669061
0.00693626
0.00718211
0.00742818
0.00767445
0.00792093
0.00816761
0.00841449
0.00866155
0.00890881
0.00915624
0.00940385
0.00965162
0.00989953
0.0101476
0.0103958
0.010644
0.0108924
0.0111409
0.0113894
0.0116379
0.0118865
0.012135
0.0123836
0.012632
0.0128804
0.0131286
0.0133767
0.0136245
0.0138722
0.0141196
0.0143666
0.0146133
0.0148597
0.0151055
0.0153509
0.0155957
0.01584
0.0160835
0.0163264
0.0165685
0.0168097
0.01705
0.0172894
0.0175277
0.0177649
0.0180008
0.0182356
0.0184689
0.0187008
0.0189312
0.01916
0.0193871
0.0196124
0.0198358
0.0200572
0.0202765
0.0204937
0.0207086
0.020921
0.021131
0.0213384
0.021543
0.0217449
0.0219437
0.0221396
0.0223322
0.0225216
0.0227076
0.0228901
0.0230689
0.023244
0.0234152
0.0235824
0.0237455
0.0239044
0.024059
0.0242091
0.0243546
0.0244955
0.0246316
0.0247628
0.024889
0.02501
0.0251259
0.0252365
0.0253416
0.0254413
0.0255354
0.0256238
0.0257065
0.0257834
0.0258544
0.0259194
0.0259783
0.0260312
0.026078
0.0261186
0.0261529
0.026181
0.0262028
0.0262183
0.0262274
0.0262302
0.0262266
0.0262166
0.0262003
0.0261776
0.0261486
0.0261133
0.0260716
0.0260237
0.0259696
0.0259093
0.0258429
0.0257704
0.0256919
0.0256074
0.025517
0.0254208
0.0253189
0.0252113
0.0250982
0.0249795
0.0248555
0.0247262
0.0245916
0.024452
0.0243074
0.0241579
0.0240036
0.0238446
0.0236811
0.0235132
0.0233409
0.0231644
0.0229838
0.0227993
0.0226108
0.0224187
0.0222229
0.0220236
0.0218209
0.0216149
0.0214057
0.0211936
0.0209784
0.0207605
0.0205398
0.0203166
0.0200908
0.0198627
0.0196323
0.0193997
0.019165
0.0189284
0.0186898
0.0184495
0.0182074
0.0179638
0.0177186
0.017472
0.0172241
0.0169748
0.0167244
0.0164728
0.0162202
0.0159667
0.0157122
0.0154568
0.0152007
0.0149439
0.0146864
0.0144283
0.0141696
0.0139105
0.0136509
0.0133909
0.0131305
0.0128698
0.0126088
0.0123476
0.0120862
0.0118247
0.011563
0.0113012
0.0110393
0.0107773
0.0105154
0.0102534
0.00999145
0.00972954
0.00946768
0.0092059
0.00894421
0.00868262
0.00842114
0.00815978
0.00789856
0.00763749
0.00737656
0.00711578
0.00685516
0.00659471
0.00633442
0.00607429
0.00581434
0.00555454
0.00529492
0.00503545
0.00477615
0.004517
0.004258
0.00399914
0.00374043
0.00348185
0.0032234
0.00296507
0.00270685
0.00244873
0.00219071
0.00193277
0.00167491
0.00141712
0.00115938
0.000901694
0.000644041
0.000386414
0.000128803
0.000137144
0.000411438
0.000685751
0.000960095
0.00123448
0.00150892
0.00178343
0.00205802
0.0023327
0.00260748
0.00288238
0.0031574
0.00343255
0.00370785
0.00398331
0.00425893
0.00453472
0.0048107
0.00508687
0.00536324
0.00563981
0.0059166
0.0061936
0.00647083
0.00674829
0.00702598
0.0073039
0.00758206
0.00786046
0.0081391
0.00841798
0.00869709
0.00897645
0.00925603
0.00953584
0.00981587
0.0100961
0.0103766
0.0106572
0.0109381
0.0112191
0.0115002
0.0117815
0.012063
0.0123445
0.0126262
0.0129079
0.0131896
0.0134714
0.0137532
0.0140349
0.0143166
0.0145981
0.0148795
0.0151608
0.0154418
0.0157226
0.0160031
0.0162832
0.016563
0.0168423
0.0171211
0.0173994
0.017677
0.017954
0.0182302
0.0185056
0.0187801
0.0190537
0.0193263
0.0195978
0.0198681
0.0201371
0.0204048
0.0206711
0.0209358
0.0211989
0.0214603
0.0217198
0.0219775
0.0222331
0.0224866
0.0227378
0.0229867
0.0232331
0.0234769
0.0237181
0.0239564
0.0241917
0.024424
0.0246531
0.0248788
0.0251011
0.0253198
0.0255348
0.0257459
0.0259531
0.0261561
0.0263549
0.0265493
0.0267391
0.0269243
0.0271048
0.0272803
0.0274507
0.027616
0.027776
0.0279306
0.0280796
0.0282229
0.0283604
0.028492
0.0286176
0.0287371
0.0288503
0.0289572
0.0290577
0.0291516
0.0292389
0.0293196
0.0293934
0.0294604
0.0295206
0.0295737
0.0296198
0.0296588
0.0296908
0.0297155
0.0297331
0.0297435
0.0297467
0.0297426
0.0297313
0.0297128
0.0296871
0.0296541
0.029614
0.0295667
0.0295123
0.0294509
0.0293824
0.029307
0.0292246
0.0291354
0.0290395
0.0289368
0.0288276
0.0287118
0.0285897
0.0284611
0.0283264
0.0281855
0.0280387
0.0278859
0.0277273
0.0275631
0.0273934
0.0272182
0.0270377
0.026852
0.0266613
0.0264658
0.0262654
0.0260604
0.0258508
0.0256369
0.0254188
0.0251965
0.0249703
0.0247402
0.0245064
0.0242691
0.0240282
0.0237841
0.0235368
0.0232864
0.023033
0.0227769
0.022518
0.0222565
0.0219926
0.0217264
0.0214579
0.0211872
0.0209146
0.02064
0.0203636
0.0200855
0.0198057
0.0195245
0.0192418
0.0189577
0.0186724
0.0183859
0.0180983
0.0178097
0.0175201
0.0172297
0.0169384
0.0166464
0.0163537
0.0160605
0.0157666
0.0154722
0.0151774
0.0148822
0.0145866
0.0142908
0.0139946
0.0136983
0.0134017
0.013105
0.0128082
0.0125113
0.0122144
0.0119174
0.0116205
0.0113235
0.0110267
0.0107298
0.0104331
0.0101365
0.00983997
0.0095436
0.00924737
0.00895129
0.00865538
0.00835964
0.00806408
0.00776871
0.00747352
0.00717852
0.00688371
0.00658909
0.00629466
0.00600042
0.00570637
0.0054125
0.00511881
0.0048253
0.00453195
0.00423876
0.00394572
0.00365283
0.00336008
0.00306745
0.00277495
0.00248255
0.00219025
0.00189804
0.0016059
0.00131383
0.00102181
0.000729835
0.000437889
0.000145961
0.000153258
0.000459781
0.000766325
0.0010729
0.00137953
0.00168622
0.00199298
0.00229984
0.00260679
0.00291387
0.00322106
0.0035284
0.0038359
0.00414355
0.00445138
0.0047594
0.00506761
0.00537603
0.00568466
0.00599352
0.00630261
0.00661194
0.00692152
0.00723134
0.00754143
0.00785178
0.00816239
0.00847327
0.00878442
0.00909585
0.00940754
0.0097195
0.0100317
0.0103442
0.010657
0.01097
0.0112832
0.0115967
0.0119104
0.0122243
0.0125384
0.0128527
0.0131672
0.0134818
0.0137965
0.0141114
0.0144263
0.0147413
0.0150563
0.0153713
0.0156863
0.0160012
0.016316
0.0166307
0.0169452
0.0172594
0.0175734
0.017887
0.0182003
0.0185131
0.0188254
0.0191372
0.0194484
0.0197589
0.0200687
0.0203776
0.0206857
0.0209928
0.0212988
0.0216037
0.0219074
0.0222098
0.0225107
0.0228102
0.0231081
0.0234043
0.0236987
0.0239911
0.0242816
0.0245699
0.0248559
0.0251396
0.0254208
0.0256993
0.0259751
0.026248
0.0265179
0.0267847
0.0270481
0.0273081
0.0275646
0.0278173
0.0280662
0.0283111
0.0285518
0.0287882
0.0290202
0.0292475
0.0294701
0.0296878
0.0299005
0.0301079
0.03031
0.0305066
0.0306976
0.0308827
0.0310619
0.0312351
0.031402
0.0315626
0.0317167
0.0318642
0.0320049
0.0321388
0.0322657
0.0323854
0.032498
0.0326033
0.0327012
0.0327916
0.0328743
0.0329495
0.0330168
0.0330764
0.0331281
0.0331719
0.0332077
0.0332355
0.0332552
0.0332669
0.0332704
0.0332659
0.0332533
0.0332325
0.0332037
0.0331668
0.0331219
0.0330689
0.033008
0.0329391
0.0328624
0.0327779
0.0326856
0.0325857
0.0324782
0.0323633
0.0322409
0.0321112
0.0319743
0.0318303
0.0316794
0.0315216
0.0313571
0.031186
0.0310084
0.0308244
0.0306343
0.030438
0.0302359
0.030028
0.0298144
0.0295954
0.029371
0.0291414
0.0289068
0.0286673
0.028423
0.0281742
0.0279209
0.0276633
0.0274016
0.0271358
0.0268663
0.026593
0.0263161
0.0260358
0.0257523
0.0254656
0.0251759
0.0248833
0.0245879
0.02429
0.0239895
0.0236867
0.0233816
0.0230744
0.0227651
0.022454
0.022141
0.0218263
0.0215101
0.0211923
0.0208732
0.0205527
0.020231
0.0199082
0.0195843
0.0192595
0.0189337
0.0186071
0.0182798
0.0179518
0.0176232
0.017294
0.0169644
0.0166343
0.0163038
0.015973
0.0156418
0.0153105
0.0149789
0.0146472
0.0143154
0.0139835
0.0136515
0.0133195
0.0129875
0.0126556
0.0123237
0.0119919
0.0116602
0.0113286
0.0109972
0.0106659
0.0103348
0.0100039
0.0096731
0.00934255
0.0090122
0.00868206
0.00835213
0.00802242
0.00769293
0.00736365
0.00703459
0.00670574
0.00637711
0.00604868
0.00572046
0.00539243
0.00506459
0.00473693
0.00440944
0.00408212
0.00375496
0.00342794
0.00310105
0.00277429
0.00244764
0.00212108
0.00179461
0.00146822
0.00114189
0.000815599
0.000489346
0.000163113
0.000169365
0.000508103
0.000846863
0.00118566
0.00152452
0.00186344
0.00220245
0.00254155
0.00288077
0.00322012
0.00355961
0.00389926
0.00423907
0.00457907
0.00491927
0.00525967
0.00560029
0.00594114
0.00628223
0.00662357
0.00696517
0.00730703
0.00764917
0.0079916
0.00833431
0.00867731
0.00902061
0.00936421
0.00970812
0.0100523
0.0103968
0.0107416
0.0110867
0.0114322
0.0117778
0.0121238
0.0124701
0.0128166
0.0131634
0.0135104
0.0138576
0.014205
0.0145527
0.0149005
0.0152484
0.0155965
0.0159447
0.0162929
0.0166412
0.0169895
0.0173378
0.017686
0.0180341
0.018382
0.0187297
0.0190772
0.0194244
0.0197713
0.0201177
0.0204637
0.0208091
0.021154
0.0214982
0.0218416
0.0221842
0.022526
0.0228667
0.0232064
0.023545
0.0238823
0.0242183
0.0245529
0.0248859
0.0252172
0.0255468
0.0258746
0.0262003
0.026524
0.0268454
0.0271645
0.0274811
0.0277951
0.0281063
0.0284147
0.02872
0.0290221
0.0293209
0.0296162
0.0299079
0.0301959
0.0304798
0.0307597
0.0310353
0.0313065
0.0315731
0.0318349
0.0320919
0.0323437
0.0325903
0.0328315
0.033067
0.0332969
0.0335208
0.0337386
0.0339502
0.0341554
0.034354
0.0345458
0.0347308
0.0349088
0.0350796
0.035243
0.035399
0.0355474
0.0356881
0.0358209
0.0359457
0.0360624
0.0361709
0.0362711
0.0363629
0.0364462
0.0365209
0.036587
0.0366443
0.0366929
0.0367326
0.0367634
0.0367854
0.0367983
0.0368023
0.0367973
0.0367833
0.0367604
0.0367284
0.0366875
0.0366377
0.0365791
0.0365116
0.0364353
0.0363502
0.0362566
0.0361543
0.0360436
0.0359245
0.0357971
0.0356614
0.0355177
0.035366
0.0352065
0.0350392
0.0348644
0.0346821
0.0344925
0.0342957
0.0340919
0.0338812
0.0336638
0.0334399
0.0332095
0.032973
0.0327303
0.0324818
0.0322275
0.0319676
0.0317024
0.0314318
0.0311562
0.0308757
0.0305905
0.0303007
0.0300065
0.029708
0.0294054
0.0290989
0.0287886
0.0284747
0.0281573
0.0278366
0.0275127
0.0271858
0.026856
0.0265235
0.0261884
0.0258507
0.0255107
0.0251685
0.0248242
0.0244779
0.0241298
0.0237799
0.0234283
0.0230752
0.0227207
0.0223648
0.0220077
0.0216495
0.0212901
0.0209298
0.0205686
0.0202066
0.0198438
0.0194804
0.0191164
0.0187518
0.0183867
0.0180213
0.0176554