/*--------------------------------*- C++ -*----------------------------------*\
| =========                 |                                                 |
| \\      /  F ield         | OpenFOAM: The Open Source CFD Toolbox           |
|  \\    /   O peration     | Version:  v2012                                 |
|   \\  /    A nd           | Website:  www.openfoam.com                      |
|    \\/     M anipulation  |                                                 |
\*---------------------------------------------------------------------------*/
FoamFile
{
    version     2.0;
    format      ascii;
    class       volScalarField;
    location    "1.3";
    object      W;
}
// * * * * * * * * * * * * * * * * * * * * * * * * * * * * * * * * * * * * * //

dimensions      [0 0 -1 0 0 0 0];


internalField   nonuniform List<scalar> 
65536
(
5.31545e-22
1.61388e-21
2.78064e-21
4.14437e-21
5.85702e-21
8.10282e-21
1.11041e-20
1.51378e-20
2.05589e-20
2.78283e-20
3.75476e-20
5.05014e-20
6.77098e-20
9.04957e-20
1.20568e-19
1.60125e-19
2.11988e-19
2.7976e-19
3.6803e-19
4.82614e-19
6.30864e-19
8.22034e-19
1.06773e-18
1.38244e-18
1.78421e-18
2.29541e-18
2.94365e-18
3.7629e-18
4.79479e-18
6.09011e-18
7.71061e-18
9.73103e-18
1.22415e-17
1.53502e-17
1.91867e-17
2.39049e-17
2.96876e-17
3.67506e-17
4.53475e-17
5.57752e-17
6.83796e-17
8.35621e-17
1.01786e-16
1.23584e-16
1.49564e-16
1.80421e-16
2.1694e-16
2.60005e-16
3.10609e-16
3.69859e-16
4.38981e-16
5.19328e-16
6.12383e-16
7.19764e-16
8.43218e-16
9.84629e-16
1.146e-15
1.32948e-15
1.53728e-15
1.77176e-15
2.03532e-15
2.33042e-15
2.65957e-15
3.02524e-15
3.4299e-15
3.87589e-15
4.36547e-15
4.90069e-15
5.48338e-15
6.11511e-15
6.79708e-15
7.53011e-15
8.31457e-15
9.1503e-15
1.00366e-14
1.09722e-14
1.1955e-14
1.29825e-14
1.40512e-14
1.51571e-14
1.62953e-14
1.74602e-14
1.86457e-14
1.98447e-14
2.10497e-14
2.22527e-14
2.34449e-14
2.46175e-14
2.57612e-14
2.68665e-14
2.79241e-14
2.89245e-14
2.98585e-14
3.07175e-14
3.14931e-14
3.21776e-14
3.27642e-14
3.32468e-14
3.36204e-14
3.38811e-14
3.40261e-14
3.40536e-14
3.39635e-14
3.37566e-14
3.34351e-14
3.30024e-14
3.24631e-14
3.18229e-14
3.10886e-14
3.02681e-14
2.93698e-14
2.8403e-14
2.73777e-14
2.63043e-14
2.51934e-14
2.4056e-14
2.29031e-14
2.17455e-14
2.0594e-14
1.9459e-14
1.83507e-14
1.72786e-14
1.62519e-14
1.52791e-14
1.43679e-14
1.35256e-14
1.27586e-14
1.20726e-14
1.14727e-14
1.09631e-14
1.05473e-14
1.0228e-14
1.00075e-14
9.88681e-15
9.86667e-15
9.9469e-15
1.01266e-14
1.04042e-14
1.07772e-14
1.12426e-14
1.17966e-14
1.24344e-14
1.31506e-14
1.39392e-14
1.47932e-14
1.57049e-14
1.66661e-14
1.76676e-14
1.86998e-14
1.97526e-14
2.08153e-14
2.18768e-14
2.2926e-14
2.39513e-14
2.49414e-14
2.5885e-14
2.67712e-14
2.75894e-14
2.83297e-14
2.8983e-14
2.95412e-14
2.99968e-14
3.03441e-14
3.05782e-14
3.06957e-14
3.06946e-14
3.05744e-14
3.0336e-14
2.99816e-14
2.9515e-14
2.89412e-14
2.82665e-14
2.7498e-14
2.66441e-14
2.57139e-14
2.4717e-14
2.36636e-14
2.25642e-14
2.14292e-14
2.02693e-14
1.90947e-14
1.79153e-14
1.67405e-14
1.55792e-14
1.44393e-14
1.33281e-14
1.22522e-14
1.12169e-14
1.02269e-14
9.28596e-15
8.39683e-15
7.56148e-15
6.78107e-15
6.05602e-15
5.38606e-15
4.77031e-15
4.20737e-15
3.69539e-15
3.23217e-15
2.8152e-15
2.44176e-15
2.10899e-15
1.81392e-15
1.55358e-15
1.32502e-15
1.12532e-15
9.5169e-16
8.01456e-16
6.72088e-16
5.6122e-16
4.66659e-16
3.86387e-16
3.18568e-16
2.61538e-16
2.13807e-16
1.74045e-16
1.41075e-16
1.13865e-16
9.15119e-17
7.3234e-17
5.83573e-17
4.63045e-17
3.65844e-17
2.87815e-17
2.25463e-17
1.75865e-17
1.36593e-17
1.05637e-17
8.13483e-18
6.23766e-18
4.76252e-18
3.6207e-18
2.74088e-18
2.06599e-18
1.55063e-18
1.15885e-18
8.6236e-19
6.38986e-19
4.7145e-19
3.46355e-19
2.53367e-19
1.84552e-19
1.33855e-19
9.66696e-20
6.95169e-20
4.97777e-20
3.54914e-20
2.51972e-20
1.78115e-20
1.25336e-20
8.77271e-21
6.08988e-21
4.15327e-21
2.70402e-21
1.53736e-21
5.01189e-22
1.7061e-21
5.18068e-21
8.92718e-21
1.33063e-20
1.88053e-20
2.60149e-20
3.56485e-20
4.85949e-20
6.59923e-20
8.93197e-20
1.20506e-19
1.62068e-19
2.17277e-19
2.90373e-19
3.86836e-19
5.13716e-19
6.80054e-19
8.97402e-19
1.18046e-18
1.54788e-18
2.02322e-18
2.63613e-18
3.42379e-18
4.43265e-18
5.72049e-18
7.35898e-18
9.43656e-18
1.2062e-17
1.53688e-17
1.95193e-17
2.47115e-17
3.11847e-17
3.92273e-17
4.91859e-17
6.14747e-17
7.6587e-17
9.51076e-17
1.17727e-16
1.45257e-16
1.78648e-16
2.19006e-16
2.67615e-16
3.25957e-16
3.95736e-16
4.78899e-16
5.77665e-16
6.94544e-16
8.32366e-16
9.94303e-16
1.18389e-15
1.40505e-15
1.66211e-15
1.95981e-15
2.30331e-15
2.69819e-15
3.15048e-15
3.66658e-15
4.25331e-15
4.91779e-15
5.6675e-15
6.51012e-15
7.45353e-15
8.50567e-15
9.67447e-15
1.09677e-14
1.2393e-14
1.39574e-14
1.56675e-14
1.75291e-14
1.95472e-14
2.17255e-14
2.40667e-14
2.65719e-14
2.92405e-14
3.20704e-14
3.50571e-14
3.81944e-14
4.14737e-14
4.48843e-14
4.8413e-14
5.20443e-14
5.57605e-14
5.95415e-14
6.33652e-14
6.72073e-14
7.10421e-14
7.48421e-14
7.85786e-14
8.22222e-14
8.57428e-14
8.91102e-14
9.22945e-14
9.52666e-14
9.79986e-14
1.00464e-13
1.02638e-13
1.045e-13
1.0603e-13
1.07211e-13
1.08033e-13
1.08485e-13
1.08563e-13
1.08265e-13
1.07596e-13
1.06561e-13
1.05172e-13
1.03443e-13
1.01393e-13
9.90441e-14
9.64204e-14
9.35495e-14
9.04611e-14
8.71868e-14
8.37597e-14
8.0214e-14
7.65844e-14
7.29059e-14
6.92131e-14
6.55404e-14
6.19209e-14
5.83867e-14
5.49684e-14
5.16949e-14
4.85931e-14
4.56878e-14
4.30018e-14
4.05556e-14
3.83672e-14
3.64525e-14
3.48249e-14
3.34955e-14
3.24729e-14
3.17636e-14
3.13715e-14
3.12985e-14
3.15439e-14
3.21048e-14
3.2976e-14
3.41498e-14
3.56163e-14
3.73631e-14
3.93754e-14
4.16362e-14
4.41257e-14
4.68221e-14
4.9701e-14
5.27359e-14
5.58983e-14
5.91575e-14
6.24814e-14
6.58363e-14
6.91871e-14
7.24984e-14
7.57339e-14
7.88576e-14
8.1834e-14
8.46284e-14
8.72075e-14
8.95403e-14
9.15979e-14
9.33543e-14
9.47868e-14
9.58767e-14
9.66088e-14
9.69727e-14
9.6962e-14
9.6575e-14
9.58148e-14
9.46886e-14
9.32083e-14
9.13898e-14
8.92527e-14
8.68201e-14
8.41183e-14
8.11759e-14
7.80236e-14
7.46934e-14
7.12183e-14
6.76318e-14
6.3967e-14
6.02562e-14
5.65309e-14
5.28207e-14
4.91533e-14
4.55541e-14
4.20461e-14
3.86495e-14
3.53817e-14
3.22572e-14
2.92877e-14
2.64819e-14
2.38461e-14
2.13839e-14
1.90965e-14
1.6983e-14
1.50407e-14
1.32651e-14
1.16504e-14
1.01895e-14
8.87458e-15
7.697e-15
6.64771e-15
5.71739e-15
4.89661e-15
4.17603e-15
3.54649e-15
2.99917e-15
2.52562e-15
2.11786e-15
1.76843e-15
1.47041e-15
1.21743e-15
1.00371e-15
8.23998e-16
6.73594e-16
5.48304e-16
4.44423e-16
3.58692e-16
2.88267e-16
2.30683e-16
1.83817e-16
1.45848e-16
1.15228e-16
9.06492e-17
7.10088e-17
5.53866e-17
4.30169e-17
3.32673e-17
2.56175e-17
1.96426e-17
1.49969e-17
1.14011e-17
8.63041e-18
6.50516e-18
4.88232e-18
3.64867e-18
2.7151e-18
2.01176e-18
1.48426e-18
1.0904e-18
7.97632e-19
5.80982e-19
4.21371e-19
3.04306e-19
2.18827e-19
1.56688e-19
1.11715e-19
7.93105e-20
5.60619e-20
3.94489e-20
2.76108e-20
1.91663e-20
1.30707e-20
8.50913e-21
4.83738e-21
1.5769e-21
3.25831e-21
9.8954e-21
1.70539e-20
2.54216e-20
3.59273e-20
4.96984e-20
6.80966e-20
9.28178e-20
1.26034e-19
1.70568e-19
2.30098e-19
3.09425e-19
4.14787e-19
5.54272e-19
7.38327e-19
9.80392e-19
1.2977e-18
1.71228e-18
2.25214e-18
2.95282e-18
3.85921e-18
5.0278e-18
6.52942e-18
8.45253e-18
1.09072e-17
1.40299e-17
1.7989e-17
2.29916e-17
2.92916e-17
3.71986e-17
4.70888e-17
5.94175e-17
7.47339e-17
9.3697e-17
1.17095e-16
1.45865e-16
1.8112e-16
2.24173e-16
2.76566e-16
3.40105e-16
4.16894e-16
5.09371e-16
6.20351e-16
7.53071e-16
9.1123e-16
1.09904e-15
1.32126e-15
1.58327e-15
1.89108e-15
2.2514e-15
2.67168e-15
3.1601e-15
3.72566e-15
4.37814e-15
5.12812e-15
5.987e-15
6.96691e-15
8.08073e-15
9.34199e-15
1.07648e-14
1.23636e-14
1.41534e-14
1.61492e-14
1.83658e-14
2.08181e-14
2.35202e-14
2.64855e-14
2.97263e-14
3.32536e-14
3.70766e-14
4.12023e-14
4.56356e-14
5.03783e-14
5.54293e-14
6.07841e-14
6.64345e-14
7.23683e-14
7.85691e-14
8.50164e-14
9.16851e-14
9.85457e-14
1.05564e-13
1.12703e-13
1.1992e-13
1.27169e-13
1.34402e-13
1.41566e-13
1.48607e-13
1.55469e-13
1.62096e-13
1.68431e-13
1.74417e-13
1.8e-13
1.85127e-13
1.89747e-13
1.93817e-13
1.97294e-13
2.00142e-13
2.02333e-13
2.03842e-13
2.04654e-13
2.0476e-13
2.04157e-13
2.02852e-13
2.0086e-13
1.982e-13
1.94902e-13
1.90999e-13
1.86535e-13
1.81554e-13
1.7611e-13
1.70259e-13
1.64061e-13
1.57577e-13
1.50873e-13
1.44013e-13
1.37064e-13
1.30091e-13
1.23158e-13
1.16328e-13
1.09661e-13
1.03214e-13
9.70411e-14
9.11927e-14
8.57152e-14
8.0651e-14
7.60381e-14
7.19102e-14
6.82966e-14
6.5222e-14
6.27067e-14
6.07667e-14
5.94135e-14
5.86543e-14
5.84918e-14
5.89245e-14
5.99467e-14
6.1548e-14
6.37139e-14
6.64254e-14
6.96591e-14
7.33871e-14
7.7577e-14
8.2192e-14
8.71909e-14
9.25283e-14
9.81546e-14
1.04016e-13
1.10057e-13
1.16215e-13
1.22429e-13
1.28634e-13
1.34763e-13
1.4075e-13
1.46527e-13
1.52028e-13
1.57189e-13
1.6195e-13
1.66251e-13
1.7004e-13
1.73269e-13
1.75896e-13
1.77887e-13
1.79214e-13
1.79858e-13
1.79807e-13
1.79058e-13
1.77619e-13
1.75502e-13
1.72729e-13
1.69332e-13
1.65345e-13
1.60813e-13
1.55784e-13
1.50311e-13
1.44451e-13
1.38265e-13
1.31812e-13
1.25156e-13
1.18356e-13
1.11474e-13
1.04567e-13
9.76907e-14
9.08953e-14
8.42282e-14
7.77316e-14
7.14428e-14
6.53938e-14
5.96114e-14
5.41168e-14
4.89264e-14
4.40513e-14
3.94981e-14
3.52689e-14
3.1362e-14
2.77721e-14
2.44908e-14
2.15073e-14
1.88085e-14
1.63796e-14
1.42048e-14
1.22671e-14
1.05494e-14
9.03406e-15
7.70391e-15
6.54197e-15
5.53188e-15
4.65804e-15
3.90568e-15
3.261e-15
2.71123e-15
2.24461e-15
1.85042e-15
1.519e-15
1.24165e-15
1.01063e-15
8.19103e-16
6.61051e-16
5.31228e-16
4.25085e-16
3.38703e-16
2.68725e-16
2.12297e-16
1.67003e-16
1.30813e-16
1.02028e-16
7.92379e-17
6.12759e-17
4.71834e-17
3.61768e-17
2.76194e-17
2.09962e-17
1.58931e-17
1.19789e-17
8.99018e-18
6.71833e-18
4.99914e-18
3.70401e-18
2.73269e-18
2.00748e-18
1.46843e-18
1.06955e-18
7.75692e-19
5.60173e-19
4.0281e-19
2.88418e-19
2.05631e-19
1.4598e-19
1.03186e-19
7.26066e-20
5.0817e-20
3.52741e-20
2.40546e-20
1.56588e-20
8.90119e-21
2.90145e-21
5.56846e-21
1.69131e-20
2.91516e-20
4.34578e-20
6.14165e-20
8.49532e-20
1.16393e-19
1.58632e-19
2.1538e-19
2.91454e-19
3.93135e-19
5.28615e-19
7.08542e-19
9.46715e-19
1.26096e-18
1.6742e-18
2.21584e-18
2.92343e-18
3.84476e-18
5.04042e-18
6.58693e-18
8.58059e-18
1.11421e-17
1.44223e-17
1.86087e-17
2.39337e-17
3.06843e-17
3.92132e-17
4.99528e-17
6.343e-17
8.02855e-17
1.01295e-16
1.27391e-16
1.59698e-16
1.99554e-16
2.48555e-16
3.08594e-16
3.81902e-16
4.71102e-16
5.79263e-16
7.09959e-16
8.67335e-16
1.05617e-15
1.28197e-15
1.551e-15
1.87041e-15
2.24829e-15
2.69376e-15
3.21701e-15
3.82943e-15
4.54361e-15
5.37346e-15
6.33418e-15
7.44234e-15
8.71587e-15
1.0174e-14
1.18373e-14
1.37275e-14
1.58675e-14
1.8281e-14
2.09926e-14
2.40273e-14
2.74104e-14
3.11671e-14
3.53221e-14
3.98992e-14
4.49208e-14
5.04076e-14
5.63777e-14
6.28464e-14
6.98254e-14
7.73223e-14
8.534e-14
9.38763e-14
1.02923e-13
1.12466e-13
1.22483e-13
1.32948e-13
1.43824e-13
1.55069e-13
1.66633e-13
1.78458e-13
1.9048e-13
2.02628e-13
2.14823e-13
2.26983e-13
2.3902e-13
2.50843e-13
2.62358e-13
2.73469e-13
2.8408e-13
2.94097e-13
3.03427e-13
3.11983e-13
3.19681e-13
3.26445e-13
3.32206e-13
3.36906e-13
3.40495e-13
3.42935e-13
3.442e-13
3.44275e-13
3.43159e-13
3.40864e-13
3.37413e-13
3.32843e-13
3.27203e-13
3.20553e-13
3.12962e-13
3.0451e-13
2.95286e-13
2.85385e-13
2.74906e-13
2.63956e-13
2.52643e-13
2.41077e-13
2.29368e-13
2.17626e-13
2.05958e-13
1.94469e-13
1.83259e-13
1.72423e-13
1.62051e-13
1.52228e-13
1.43029e-13
1.34525e-13
1.26779e-13
1.19845e-13
1.13773e-13
1.08602e-13
1.04365e-13
1.01087e-13
9.87883e-14
9.7478e-14
9.71603e-14
9.78317e-14
9.94815e-14
1.02092e-13
1.05637e-13
1.10086e-13
1.15398e-13
1.21526e-13
1.28416e-13
1.36006e-13
1.44228e-13
1.53005e-13
1.62255e-13
1.7189e-13
1.81814e-13
1.91929e-13
2.02131e-13
2.12311e-13
2.22362e-13
2.32172e-13
2.41631e-13
2.50632e-13
2.59067e-13
2.66838e-13
2.73849e-13
2.80013e-13
2.85252e-13
2.89499e-13
2.92696e-13
2.94801e-13
2.95781e-13
2.95619e-13
2.94313e-13
2.91871e-13
2.88318e-13
2.83692e-13
2.78042e-13
2.71429e-13
2.63924e-13
2.55608e-13
2.4657e-13
2.36902e-13
2.26703e-13
2.16073e-13
2.05115e-13
1.93928e-13
1.82611e-13
1.7126e-13
1.59963e-13
1.48804e-13
1.37861e-13
1.27201e-13
1.16887e-13
1.06969e-13
9.74914e-14
8.84885e-14
7.99865e-14
7.20033e-14
6.45493e-14
5.76277e-14
5.12351e-14
4.53627e-14
3.99965e-14
3.51184e-14
3.07067e-14
2.67373e-14
2.31836e-14
2.00182e-14
1.72126e-14
1.47382e-14
1.25664e-14
1.06697e-14
9.02113e-15
7.59515e-15
6.36761e-15
5.31595e-15
4.41922e-15
3.65824e-15
3.01548e-15
2.47512e-15
2.02299e-15
1.64644e-15
1.33429e-15
1.07673e-15
8.65198e-16
6.92267e-16
5.51545e-16
4.37559e-16
3.45652e-16
2.71887e-16
2.12953e-16
1.66083e-16
1.28977e-16
9.97335e-17
7.67918e-17
5.88752e-17
4.49463e-17
3.41663e-17
2.5861e-17
1.9491e-17
1.46274e-17
1.09306e-17
8.13317e-18
6.02588e-18
4.44554e-18
3.26566e-18
2.3887e-18
1.73979e-18
1.26175e-18
9.11167e-19
6.55188e-19
4.69115e-19
3.34456e-19
2.37431e-19
1.67826e-19
1.18089e-19
8.26491e-20
5.73697e-20
3.91222e-20
2.54673e-20
1.44769e-20
4.71893e-21
9.20331e-21
2.79552e-20
4.81878e-20
7.18387e-20
1.01524e-19
1.40425e-19
1.92379e-19
2.62173e-19
3.55929e-19
4.81602e-19
6.49564e-19
8.73334e-19
1.17049e-18
1.5638e-18
2.08268e-18
2.76496e-18
3.65915e-18
4.82718e-18
6.34788e-18
8.32116e-18
1.08732e-17
1.41628e-17
1.8389e-17
2.38002e-17
3.07056e-17
3.94882e-17
5.06207e-17
6.46844e-17
8.2391e-17
1.04609e-16
1.32392e-16
1.67018e-16
2.10023e-16
2.63254e-16
3.28916e-16
4.09635e-16
5.0852e-16
6.29243e-16
7.76116e-16
9.54182e-16
1.16932e-15
1.42833e-15
1.73906e-15
2.11056e-15
2.55311e-15
3.07845e-15
3.69985e-15
4.43225e-15
5.29238e-15
6.29889e-15
7.47242e-15
8.83574e-15
1.04137e-14
1.22335e-14
1.43244e-14
1.67179e-14
1.94475e-14
2.25487e-14
2.60589e-14
3.00167e-14
3.44623e-14
3.94363e-14
4.49798e-14
5.11338e-14
5.79384e-14
6.5432e-14
7.36509e-14
8.26283e-14
9.23934e-14
1.02971e-13
1.14378e-13
1.26628e-13
1.39724e-13
1.53662e-13
1.68427e-13
1.83996e-13
2.00332e-13
2.1739e-13
2.35111e-13
2.53424e-13
2.72247e-13
2.91485e-13
3.11032e-13
3.30771e-13
3.50575e-13
3.70309e-13
3.89829e-13
4.08987e-13
4.27628e-13
4.45599e-13
4.62742e-13
4.78905e-13
4.93938e-13
5.07699e-13
5.20054e-13
5.3088e-13
5.40067e-13
5.47521e-13
5.53163e-13
5.56933e-13
5.58791e-13
5.58715e-13
5.56706e-13
5.52783e-13
5.46989e-13
5.39384e-13
5.30049e-13
5.19083e-13
5.06602e-13
4.92736e-13
4.7763e-13
4.61438e-13
4.44325e-13
4.26462e-13
4.08025e-13
3.89193e-13
3.70144e-13
3.51055e-13
3.321e-13
3.13446e-13
2.95256e-13
2.77683e-13
2.60869e-13
2.4495e-13
2.30048e-13
2.16275e-13
2.03729e-13
1.92499e-13
1.82659e-13
1.74273e-13
1.67393e-13
1.62057e-13
1.58293e-13
1.56116e-13
1.5553e-13
1.56529e-13
1.59092e-13
1.6319e-13
1.68781e-13
1.7581e-13
1.84214e-13
1.93916e-13
2.04826e-13
2.16846e-13
2.29865e-13
2.4376e-13
2.584e-13
2.73643e-13
2.89336e-13
3.05322e-13
3.21435e-13
3.37505e-13
3.53357e-13
3.68817e-13
3.8371e-13
3.97865e-13
4.11115e-13
4.23301e-13
4.34276e-13
4.43902e-13
4.52056e-13
4.58634e-13
4.63547e-13
4.66727e-13
4.68127e-13
4.67721e-13
4.65505e-13
4.61498e-13
4.55738e-13
4.48286e-13
4.39223e-13
4.28646e-13
4.16669e-13
4.03421e-13
3.89041e-13
3.73678e-13
3.57488e-13
3.4063e-13
3.23264e-13
3.05549e-13
2.87641e-13
2.69688e-13
2.51832e-13
2.34204e-13
2.16924e-13
2.00101e-13
1.8383e-13
1.68191e-13
1.53252e-13
1.39068e-13
1.25677e-13
1.13108e-13
1.01376e-13
9.04862e-14
8.04316e-14
7.1198e-14
6.27629e-14
5.50972e-14
4.81664e-14
4.1932e-14
3.63521e-14
3.13831e-14
2.698e-14
2.30974e-14
1.96907e-14
1.67159e-14
1.41309e-14
1.18954e-14
9.97141e-15
8.32335e-15
6.91837e-15
5.72626e-15
4.71953e-15
3.87334e-15
3.16542e-15
2.57592e-15
2.08732e-15
1.68422e-15
1.3532e-15
1.08262e-15
8.62467e-16
6.84162e-16
5.4041e-16
4.25047e-16
3.32888e-16
2.59601e-16
2.01587e-16
1.5587e-16
1.20008e-16
9.20028e-17
7.02324e-17
5.33849e-17
4.04058e-17
3.04519e-17
2.28522e-17
1.7076e-17
1.27054e-17
9.41315e-18
6.94426e-18
5.10108e-18
3.73114e-18
2.71749e-18
1.97078e-18
1.42317e-18
1.02334e-18
7.32704e-19
5.22377e-19
3.70837e-19
2.62121e-19
1.8444e-19
1.29088e-19
8.96066e-20
6.11078e-20
3.97816e-20
2.26155e-20
7.37228e-21
1.50276e-20
4.56491e-20
7.86922e-20
1.17318e-19
1.65794e-19
2.29308e-19
3.14128e-19
4.28058e-19
5.81092e-19
7.86204e-19
1.06031e-18
1.42546e-18
1.91032e-18
2.55201e-18
3.3985e-18
4.51145e-18
5.96993e-18
7.87489e-18
1.03548e-17
1.35724e-17
1.77334e-17
2.30963e-17
2.99854e-17
3.88054e-17
5.00595e-17
6.43714e-17
8.25107e-17
1.05423e-16
1.34268e-16
1.70457e-16
2.15706e-16
2.72091e-16
3.42114e-16
4.28774e-16
5.35659e-16
6.67033e-16
8.27954e-16
1.02438e-15
1.26333e-15
1.55297e-15
1.90286e-15
2.32404e-15
2.82925e-15
3.43314e-15
4.15242e-15
5.0061e-15
6.01569e-15
7.2054e-15
8.60234e-15
1.02367e-14
1.21419e-14
1.43547e-14
1.69154e-14
1.98678e-14
2.32593e-14
2.71407e-14
3.15662e-14
3.65929e-14
4.2281e-14
4.86929e-14
5.5893e-14
6.39468e-14
7.29202e-14
8.28788e-14
9.38869e-14
1.06006e-13
1.19294e-13
1.33803e-13
1.4958e-13
1.66663e-13
1.85081e-13
2.04851e-13
2.25979e-13
2.48456e-13
2.72257e-13
2.97342e-13
3.23653e-13
3.51113e-13
3.79626e-13
4.09077e-13
4.39332e-13
4.70236e-13
5.01618e-13
5.33288e-13
5.65042e-13
5.9666e-13
6.27911e-13
6.58555e-13
6.88346e-13
7.17034e-13
7.4437e-13
7.70107e-13
7.94008e-13
8.15844e-13
8.35404e-13
8.52491e-13
8.66932e-13
8.78578e-13
8.87306e-13
8.93023e-13
8.95668e-13
8.95209e-13
8.9165e-13
8.85028e-13
8.75413e-13
8.62906e-13
8.47639e-13
8.29775e-13
8.09501e-13
7.8703e-13
7.62593e-13
7.36441e-13
7.08839e-13
6.80062e-13
6.50391e-13
6.20113e-13
5.89513e-13
5.58874e-13
5.28471e-13
4.98573e-13
4.69435e-13
4.413e-13
4.14396e-13
3.88933e-13
3.65105e-13
3.43087e-13
3.23034e-13
3.05082e-13
2.89349e-13
2.75932e-13
2.64908e-13
2.56337e-13
2.5026e-13
2.46697e-13
2.45651e-13
2.47109e-13
2.51037e-13
2.57384e-13
2.66081e-13
2.7704e-13
2.90156e-13
3.05307e-13
3.2235e-13
3.41127e-13
3.6146e-13
3.83158e-13
4.06009e-13
4.29791e-13
4.54263e-13
4.79177e-13
5.04272e-13
5.29281e-13
5.53932e-13
5.7795e-13
6.01063e-13
6.23005e-13
6.43515e-13
6.62347e-13
6.79271e-13
6.94075e-13
7.06571e-13
7.16595e-13
7.24014e-13
7.28724e-13
7.30654e-13
7.29766e-13
7.26058e-13
7.19561e-13
7.10339e-13
6.9849e-13
6.8414e-13
6.67445e-13
6.48585e-13
6.2776e-13
6.05191e-13
5.81109e-13
5.55759e-13
5.29387e-13
5.02245e-13
4.7458e-13
4.46632e-13
4.18634e-13
3.90804e-13
3.63345e-13
3.36444e-13
3.10267e-13
2.84961e-13
2.60649e-13
2.37437e-13
2.15405e-13
1.94615e-13
1.75109e-13
1.56908e-13
1.4002e-13
1.24432e-13
1.10122e-13
9.70543e-14
8.51818e-14
7.44509e-14
6.4801e-14
5.61667e-14
4.84797e-14
4.16699e-14
3.56668e-14
3.04006e-14
2.58034e-14
2.18094e-14
1.83561e-14
1.53846e-14
1.28399e-14
1.06709e-14
8.83093e-15
7.27736e-15
5.97176e-15
4.87967e-15
3.97043e-15
3.21693e-15
2.59538e-15
2.08505e-15
1.66796e-15
1.32864e-15
1.05386e-15
8.32351e-16
6.54609e-16
5.12634e-16
3.99744e-16
3.10388e-16
2.3998e-16
1.84754e-16
1.41631e-16
1.08111e-16
8.21727e-17
6.21916e-17
4.68686e-17
3.51705e-17
2.62797e-17
1.95527e-17
1.44858e-17
1.06861e-17
7.84957e-18
5.7414e-18
4.18154e-18
3.03251e-18
2.18985e-18
1.57462e-18
1.12742e-18
8.03787e-19
5.70612e-19
4.03333e-19
2.83806e-19
1.98638e-19
1.37889e-19
9.40398e-20
6.12264e-20
3.48108e-20
1.13488e-20
2.43854e-20
7.40788e-20
1.27707e-19
1.90395e-19
2.69062e-19
3.7212e-19
5.09732e-19
6.94555e-19
9.42792e-19
1.27548e-18
1.72003e-18
2.31219e-18
3.09842e-18
4.13887e-18
5.51126e-18
7.3155e-18
9.67967e-18
1.27673e-17
1.67864e-17
2.20007e-17
2.8743e-17
3.74321e-17
4.85928e-17
6.288e-17
8.11085e-17
1.04287e-16
1.33661e-16
1.70761e-16
2.1746e-16
2.76043e-16
3.49283e-16
4.40538e-16
5.53849e-16
6.94065e-16
8.66981e-16
1.07949e-15
1.33975e-15
1.6574e-15
2.04374e-15
2.51199e-15
3.07754e-15
3.75821e-15
4.57457e-15
5.5502e-15
6.71206e-15
8.09078e-15
9.721e-15
1.16417e-14
1.38965e-14
1.6534e-14
1.9608e-14
2.31776e-14
2.73075e-14
3.20681e-14
3.75355e-14
4.37911e-14
5.09219e-14
5.90195e-14
6.81802e-14
7.85039e-14
9.00935e-14
1.03054e-13
1.1749e-13
1.33506e-13
1.51205e-13
1.70684e-13
1.92034e-13
2.1534e-13
2.40673e-13
2.68094e-13
2.97646e-13
3.29356e-13
3.63231e-13
3.99253e-13
4.37383e-13
4.77552e-13
5.19665e-13
5.63596e-13
6.0919e-13
6.56259e-13
7.04586e-13
7.53923e-13
8.03992e-13
8.54489e-13
9.05083e-13
9.55425e-13
1.00514e-12
1.05385e-12
1.10116e-12
1.14667e-12
1.18998e-12
1.2307e-12
1.26846e-12
1.30289e-12
1.33365e-12
1.36044e-12
1.38298e-12
1.40105e-12
1.41444e-12
1.42303e-12
1.4267e-12
1.42543e-12
1.41922e-12
1.40814e-12
1.39229e-12
1.37186e-12
1.34706e-12
1.31814e-12
1.28542e-12
1.24923e-12
1.20995e-12
1.16798e-12
1.12374e-12
1.07767e-12
1.03022e-12
9.81841e-13
9.32994e-13
8.84123e-13
8.35666e-13
7.88044e-13
7.41662e-13
6.96902e-13
6.54122e-13
6.13651e-13
5.75791e-13
5.40816e-13
5.08967e-13
4.80454e-13
4.55458e-13
4.34127e-13
4.16579e-13
4.02903e-13
3.93157e-13
3.8737e-13
3.85542e-13
3.87644e-13
3.9362e-13
4.03385e-13
4.16826e-13
4.33802e-13
4.54143e-13
4.77653e-13
5.04106e-13
5.3325e-13
5.64807e-13
5.9847e-13
6.33911e-13
6.70777e-13
7.08694e-13
7.47272e-13
7.86104e-13
8.24773e-13
8.62856e-13
8.99928e-13
9.35564e-13
9.69351e-13
1.00089e-12
1.0298e-12
1.05572e-12
1.07833e-12
1.09734e-12
1.11251e-12
1.12362e-12
1.13052e-12
1.13311e-12
1.13133e-12
1.12519e-12
1.11473e-12
1.10007e-12
1.08135e-12
1.05877e-12
1.03259e-12
1.00308e-12
9.70553e-13
9.35355e-13
8.97847e-13
8.58407e-13
8.17418e-13
7.75268e-13
7.32339e-13
6.89005e-13
6.4562e-13
6.02524e-13
5.60027e-13
5.18417e-13
4.77948e-13
4.38844e-13
4.01295e-13
3.6546e-13
3.31462e-13
2.99394e-13
2.69318e-13
2.41266e-13
2.15246e-13
1.91239e-13
1.69207e-13
1.49094e-13
1.30826e-13
1.14321e-13
9.94819e-14
8.62089e-14
7.43954e-14
6.39328e-14
5.4712e-14
4.66252e-14
3.95673e-14
3.3437e-14
2.81379e-14
2.35791e-14
1.96758e-14
1.63496e-14
1.35284e-14
1.11468e-14
9.14577e-15
7.47224e-15
6.07914e-15
4.92485e-15
3.97285e-15
3.1913e-15
2.55264e-15
2.03314e-15
1.6125e-15
1.27345e-15
1.00143e-15
7.84167e-16
6.11432e-16
4.74721e-16
3.6701e-16
2.82532e-16
2.16574e-16
1.65307e-16
1.2564e-16
9.50847e-17
7.16541e-17
5.37675e-17
4.0174e-17
2.98895e-17
2.21432e-17
1.63346e-17
1.19984e-17
8.77585e-18
6.39149e-18
4.63514e-18
3.34713e-18
2.40676e-18
1.72322e-18
1.22857e-18
8.72172e-19
6.16496e-19
4.33805e-19
3.03631e-19
2.1078e-19
1.43761e-19
9.36085e-20
5.32292e-20
1.73554e-20
3.93842e-20
1.19648e-19
2.06275e-19
3.07534e-19
4.34592e-19
6.01024e-19
8.23234e-19
1.12165e-18
1.52242e-18
2.05948e-18
2.77708e-18
3.73287e-18
5.00178e-18
6.68086e-18
8.89541e-18
1.18066e-17
1.56208e-17
2.06019e-17
2.7085e-17
3.54952e-17
4.6369e-17
6.03811e-17
7.83772e-17
1.01412e-16
1.30799e-16
1.68162e-16
2.15506e-16
2.75296e-16
3.50548e-16
4.44938e-16
5.62931e-16
7.09928e-16
8.92432e-16
1.11824e-15
1.39668e-15
1.73882e-15
2.15779e-15
2.66906e-15
3.29081e-15
4.04427e-15
4.95415e-15
6.04908e-15
7.36205e-15
8.93094e-15
1.0799e-14
1.30153e-14
1.56354e-14
1.87219e-14
2.23445e-14
2.65812e-14
3.15179e-14
3.72494e-14
4.38792e-14
5.15199e-14
6.02929e-14
7.03284e-14
8.17651e-14
9.47494e-14
1.09435e-13
1.2598e-13
1.44549e-13
1.65309e-13
1.88425e-13
2.14066e-13
2.42391e-13
2.73555e-13
3.07703e-13
3.44966e-13
3.85457e-13
4.29269e-13
4.7647e-13
5.27099e-13
5.81163e-13
6.38632e-13
6.99437e-13
7.63467e-13
8.30566e-13
9.00529e-13
9.73104e-13
1.04799e-12
1.12484e-12
1.20324e-12
1.28277e-12
1.36292e-12
1.44317e-12
1.52296e-12
1.6017e-12
1.67878e-12
1.75357e-12
1.82544e-12
1.89376e-12
1.9579e-12
2.01727e-12
2.07131e-12
2.11947e-12
2.16128e-12
2.19631e-12
2.2242e-12
2.24465e-12
2.25744e-12
2.26243e-12
2.25956e-12
2.24887e-12
2.23045e-12
2.20451e-12
2.17132e-12
2.13123e-12
2.08466e-12
2.03211e-12
1.97411e-12
1.91126e-12
1.84421e-12
1.77364e-12
1.70022e-12
1.62469e-12
1.54775e-12
1.47013e-12
1.39254e-12
1.31565e-12
1.24014e-12
1.16665e-12
1.09576e-12
1.02803e-12
9.63995e-13
9.0411e-13
8.488e-13
7.9844e-13
7.53354e-13
7.13818e-13
6.80057e-13
6.5225e-13
6.30527e-13
6.14972e-13
6.05623e-13
6.02472e-13
6.05467e-13
6.14512e-13
6.29466e-13
6.50146e-13
6.76325e-13
7.07732e-13
7.44055e-13
7.84936e-13
8.29977e-13
8.7874e-13
9.30745e-13
9.85476e-13
1.04238e-12
1.10088e-12
1.16036e-12
1.22019e-12
1.27973e-12
1.33832e-12
1.39529e-12
1.45e-12
1.50181e-12
1.5501e-12
1.59428e-12
1.63382e-12
1.66821e-12
1.697e-12
1.71984e-12
1.73639e-12
1.74644e-12
1.74983e-12
1.74648e-12
1.73639e-12
1.71966e-12
1.69646e-12
1.66703e-12
1.63168e-12
1.5908e-12
1.54483e-12
1.49425e-12
1.4396e-12
1.38143e-12
1.32033e-12
1.25689e-12
1.19172e-12
1.12539e-12
1.05848e-12
9.91536e-13
9.25079e-13
8.59587e-13
7.95494e-13
7.33192e-13
6.73021e-13
6.1527e-13
5.60179e-13
5.07936e-13
4.58678e-13
4.12497e-13
3.69442e-13
3.29518e-13
2.92697e-13
2.58917e-13
2.28089e-13
2.00099e-13
1.74816e-13
1.52093e-13
1.31774e-13
1.13694e-13
9.76853e-14
8.35807e-14
7.12138e-14
6.0423e-14
5.10526e-14
4.29545e-14
3.59893e-14
3.00269e-14
2.4947e-14
2.06392e-14
1.70034e-14
1.39491e-14
1.13951e-14
9.26947e-15
7.50849e-15
6.05634e-15
4.86438e-15
3.89048e-15
3.09839e-15
2.45711e-15
1.9403e-15
1.52569e-15
1.19459e-15
9.31375e-16
7.23073e-16
5.58974e-16
4.30281e-16
3.2981e-16
2.51725e-16
1.9131e-16
1.44777e-16
1.09097e-16
8.18601e-17
6.11621e-17
4.55032e-17
3.37094e-17
2.48661e-17
1.82648e-17
1.3359e-17
9.72925e-18
7.05564e-18
5.09499e-18
3.66355e-18
2.62308e-18
1.87012e-18
1.32763e-18
9.38446e-19
6.6036e-19
4.62214e-19
3.20881e-19
2.1887e-19
1.42531e-19
8.10598e-20
2.64327e-20
6.33315e-20
1.92407e-19
3.31727e-19
4.94577e-19
6.98897e-19
9.66503e-19
1.32375e-18
1.80348e-18
2.44769e-18
3.31091e-18
4.46421e-18
6.0002e-18
8.0392e-18
1.07371e-17
1.4295e-17
1.89718e-17
2.50988e-17
3.30994e-17
4.35117e-17
5.70177e-17
7.44784e-17
9.69764e-17
1.25868e-16
1.62846e-16
2.10015e-16
2.69981e-16
3.45959e-16
4.41898e-16
5.62634e-16
7.14059e-16
9.03328e-16
1.13909e-15
1.43177e-15
1.79385e-15
2.24025e-15
2.78872e-15
3.46026e-15
4.27963e-15
5.27591e-15
6.48307e-15
7.94062e-15
9.69432e-15
1.17969e-14
1.43089e-14
1.72994e-14
2.08468e-14
2.50399e-14
2.99783e-14
3.57735e-14
4.25497e-14
5.04441e-14
5.96075e-14
7.0205e-14
8.24155e-14
9.64326e-14
1.12463e-13
1.30728e-13
1.51459e-13
1.749e-13
2.01304e-13
2.3093e-13
2.64041e-13
3.00902e-13
3.41775e-13
3.86914e-13
4.36564e-13
4.9095e-13
5.50278e-13
6.14724e-13
6.84433e-13
7.59506e-13
8.40003e-13
9.25928e-13
1.01723e-12
1.11379e-12
1.21543e-12
1.3219e-12
1.43286e-12
1.5479e-12
1.66655e-12
1.78824e-12
1.91234e-12
2.03813e-12
2.16483e-12
2.2916e-12
2.41756e-12
2.54177e-12
2.66324e-12
2.781e-12
2.89405e-12
3.00137e-12
3.102e-12
3.195e-12
3.27947e-12
3.35458e-12
3.41957e-12
3.47378e-12
3.51665e-12
3.54771e-12
3.56664e-12
3.57323e-12
3.5674e-12
3.5492e-12
3.51883e-12
3.4766e-12
3.42296e-12
3.35848e-12
3.28383e-12
3.1998e-12
3.10726e-12
3.00716e-12
2.90052e-12
2.7884e-12
2.67191e-12
2.55218e-12
2.43033e-12
2.3075e-12
2.1848e-12
2.06331e-12
1.94407e-12
1.82807e-12
1.71625e-12
1.60948e-12
1.50855e-12
1.4142e-12
1.32708e-12
1.24777e-12
1.17676e-12
1.11447e-12
1.06125e-12
1.01736e-12
9.82992e-13
9.58269e-13
9.43237e-13
9.37872e-13
9.4208e-13
9.55701e-13
9.78506e-13
1.0102e-12
1.05041e-12
1.09872e-12
1.15462e-12
1.21756e-12
1.28691e-12
1.36198e-12
1.44202e-12
1.52622e-12
1.61374e-12
1.70365e-12
1.79503e-12
1.88688e-12
1.97822e-12
2.06802e-12
2.15527e-12
2.23897e-12
2.31812e-12
2.3918e-12
2.45909e-12
2.51917e-12
2.57128e-12
2.61474e-12
2.649e-12
2.67357e-12
2.68811e-12
2.6924e-12
2.68632e-12
2.6699e-12
2.64329e-12
2.60676e-12
2.56069e-12
2.50557e-12
2.442e-12
2.37067e-12
2.29232e-12
2.20778e-12
2.11792e-12
2.02362e-12
1.92581e-12
1.8254e-12
1.72329e-12
1.62036e-12
1.51744e-12
1.41533e-12
1.31476e-12
1.2164e-12
1.12082e-12
1.02857e-12
9.4006e-13
8.55666e-13
7.75667e-13
7.0027e-13
6.29612e-13
5.63759e-13
5.02718e-13
4.46441e-13
3.94828e-13
3.4774e-13
3.05001e-13
2.66407e-13
2.31731e-13
2.00732e-13
1.73157e-13
1.48747e-13
1.27246e-13
1.08399e-13
9.19574e-14
7.76834e-14
6.53503e-14
5.47447e-14
4.5668e-14
3.79362e-14
3.1381e-14
2.58493e-14
2.12031e-14
1.73187e-14
1.40863e-14
1.14088e-14
9.2013e-15
7.38956e-15
5.90946e-15
4.70583e-15
3.7315e-15
2.94637e-15
2.31658e-15
1.81369e-15
1.41395e-15
1.09764e-15
8.48477e-16
6.53089e-16
5.00562e-16
3.82028e-16
2.90325e-16
2.19698e-16
1.65546e-16
1.24211e-16
9.28017e-17
6.90401e-17
5.11443e-17
3.77264e-17
2.77104e-17
2.02672e-17
1.47602e-17
1.0704e-17
7.72948e-18
5.55785e-18
3.97939e-18
2.83712e-18
2.01413e-18
1.42372e-18
1.00185e-18
7.01252e-19
4.86848e-19
3.32098e-19
2.1629e-19
1.23025e-19
4.01218e-20
1.01404e-19
3.08088e-19
5.31193e-19
7.91975e-19
1.11913e-18
1.54757e-18
2.11947e-18
2.88736e-18
3.91845e-18
5.29996e-18
7.14558e-18
9.60339e-18
1.28658e-17
1.71822e-17
2.2874e-17
3.03551e-17
4.01552e-17
5.29508e-17
6.9602e-17
9.11988e-17
1.19117e-16
1.55085e-16
2.01271e-16
2.60378e-16
3.35767e-16
4.316e-16
5.53008e-16
7.06297e-16
8.99184e-16
1.14107e-15
1.44338e-15
1.8199e-15
2.28726e-15
2.86538e-15
3.57804e-15
4.45353e-15
5.52533e-15
6.83289e-15
8.42255e-15
1.03484e-14
1.26734e-14
1.54703e-14
1.88232e-14
2.28282e-14
2.75954e-14
3.32494e-14
3.99313e-14
4.77996e-14
5.70314e-14
6.78237e-14
8.03945e-14
9.49833e-14
1.11852e-13
1.31283e-13
1.53585e-13
1.79085e-13
2.08132e-13
2.41094e-13
2.78356e-13
3.20316e-13
3.67385e-13
4.19977e-13
4.7851e-13
5.43395e-13
6.15033e-13
6.93805e-13
7.80066e-13
8.74135e-13
9.76287e-13
1.08674e-12
1.20566e-12
1.33312e-12
1.46912e-12
1.61358e-12
1.7663e-12
1.92699e-12
2.09524e-12
2.2705e-12
2.45214e-12
2.63937e-12
2.83131e-12
3.02693e-12
3.2251e-12
3.42459e-12
3.62406e-12
3.82212e-12
4.01726e-12
4.20796e-12
4.39265e-12
4.56976e-12
4.73771e-12
4.89498e-12
5.04009e-12
5.17163e-12
5.28831e-12
5.38895e-12
5.47251e-12
5.53813e-12
5.58512e-12
5.61295e-12
5.62133e-12
5.61015e-12
5.57952e-12
5.52977e-12
5.46141e-12
5.37516e-12
5.27194e-12
5.15283e-12
5.01908e-12
4.87207e-12
4.71332e-12
4.54442e-12
4.36706e-12
4.18298e-12
3.99395e-12
3.80176e-12
3.60817e-12
3.41493e-12
3.22371e-12
3.03616e-12
2.85381e-12
2.67811e-12
2.51042e-12
2.35198e-12
2.2039e-12
2.06721e-12
1.94277e-12
1.83135e-12
1.7336e-12
1.65001e-12
1.581e-12
1.52685e-12
1.48771e-12
1.46365e-12
1.45461e-12
1.46043e-12
1.48084e-12
1.51547e-12
1.56385e-12
1.62539e-12
1.69941e-12
1.78513e-12
1.88168e-12
1.98806e-12
2.10321e-12
2.22595e-12
2.35505e-12
2.48916e-12