/*--------------------------------*- C++ -*----------------------------------*\
| =========                 |                                                 |
| \\      /  F ield         | OpenFOAM: The Open Source CFD Toolbox           |
|  \\    /   O peration     | Version:  v2012                                 |
|   \\  /    A nd           | Website:  www.openfoam.com                      |
|    \\/     M anipulation  |                                                 |
\*---------------------------------------------------------------------------*/
FoamFile
{
    version     2.0;
    format      ascii;
    class       surfaceScalarField;
    location    "19.3";
    object      phi;
}
// * * * * * * * * * * * * * * * * * * * * * * * * * * * * * * * * * * * * * //

dimensions      [0 3 -1 0 0 0 0];
oriented        oriented;


internalField   nonuniform List<scalar> 
130560
(
3.2124e-06
-3.2124e-06
6.42493e-06
-3.21253e-06
9.63772e-06
-3.21279e-06
1.28509e-05
-3.21318e-06
1.60646e-05
-3.2137e-06
1.92789e-05
-3.21434e-06
2.24941e-05
-3.21511e-06
2.57101e-05
-3.216e-06
2.89271e-05
-3.21701e-06
3.21452e-05
-3.21814e-06
3.53646e-05
-3.21939e-06
3.85854e-05
-3.22075e-06
4.18076e-05
-3.22222e-06
4.50314e-05
-3.22379e-06
4.82568e-05
-3.22546e-06
5.1484e-05
-3.22723e-06
5.47131e-05
-3.22908e-06
5.79441e-05
-3.23103e-06
6.11772e-05
-3.23305e-06
6.44123e-05
-3.23515e-06
6.76497e-05
-3.23731e-06
7.08892e-05
-3.23953e-06
7.4131e-05
-3.2418e-06
7.73751e-05
-3.24412e-06
8.06216e-05
-3.24648e-06
8.38705e-05
-3.24886e-06
8.71217e-05
-3.25127e-06
9.03754e-05
-3.25368e-06
9.36315e-05
-3.25609e-06
9.689e-05
-3.25849e-06
0.000100151
-3.26087e-06
0.000103414
-3.26322e-06
0.00010668
-3.26552e-06
0.000109947
-3.26776e-06
0.000113217
-3.26994e-06
0.000116489
-3.27203e-06
0.000119763
-3.27402e-06
0.000123039
-3.27591e-06
0.000126317
-3.27766e-06
0.000129596
-3.27928e-06
0.000132877
-3.28074e-06
0.000136159
-3.28202e-06
0.000139442
-3.28312e-06
0.000142726
-3.284e-06
0.000146011
-3.28466e-06
0.000149296
-3.28507e-06
0.000152581
-3.28522e-06
0.000155866
-3.28508e-06
0.000159151
-3.28463e-06
0.000162435
-3.28386e-06
0.000165717
-3.28274e-06
0.000168999
-3.28125e-06
0.000172278
-3.27937e-06
0.000175555
-3.27706e-06
0.000178829
-3.27432e-06
0.0001821
-3.27111e-06
0.000185368
-3.26741e-06
0.000188631
-3.26319e-06
0.000191889
-3.25842e-06
0.000195143
-3.25309e-06
0.00019839
-3.24716e-06
0.00020163
-3.2406e-06
0.000204864
-3.23339e-06
0.000208089
-3.2255e-06
0.000211306
-3.2169e-06
0.000214514
-3.20755e-06
0.000217711
-3.19744e-06
0.000220898
-3.18653e-06
0.000224072
-3.17478e-06
0.000227235
-3.16218e-06
0.000230383
-3.14868e-06
0.000233517
-3.13426e-06
0.000236636
-3.11889e-06
0.000239739
-3.10254e-06
0.000242824
-3.08517e-06
0.000245891
-3.06676e-06
0.000248938
-3.04727e-06
0.000251965
-3.02668e-06
0.00025497
-3.00495e-06
0.000257952
-2.98206e-06
0.00026091
-2.95798e-06
0.000263842
-2.93268e-06
0.000266749
-2.90613e-06
0.000269627
-2.87831e-06
0.000272476
-2.84919e-06
0.000275295
-2.81874e-06
0.000278082
-2.78695e-06
0.000280836
-2.75378e-06
0.000283555
-2.71923e-06
0.000286238
-2.68326e-06
0.000288884
-2.64586e-06
0.000291491
-2.60701e-06
0.000294058
-2.56671e-06
0.000296583
-2.52492e-06
0.000299064
-2.48165e-06
0.000301501
-2.43688e-06
0.000303892
-2.39061e-06
0.000306235
-2.34283e-06
0.000308528
-2.29353e-06
0.000310771
-2.24273e-06
0.000312961
-2.19041e-06
0.000315098
-2.13658e-06
0.000317179
-2.08125e-06
0.000319203
-2.02443e-06
0.00032117
-1.96614e-06
0.000323076
-1.90637e-06
0.000324921
-1.84517e-06
0.000326704
-1.78253e-06
0.000328422
-1.7185e-06
0.000330075
-1.65309e-06
0.000331662
-1.58634e-06
0.00033318
-1.51827e-06
0.000334629
-1.44892e-06
0.000336007
-1.37834e-06
0.000337314
-1.30656e-06
0.000338547
-1.23362e-06
0.000339707
-1.15958e-06
0.000340791
-1.08447e-06
0.0003418
-1.00837e-06
0.000342731
-9.31309e-07
0.000343584
-8.53357e-07
0.000344359
-7.74571e-07
0.000345054
-6.95012e-07
0.000345669
-6.14744e-07
0.000346203
-5.33833e-07
0.000346655
-4.52346e-07
0.000347025
-3.70353e-07
0.000347313
-2.87923e-07
0.000347518
-2.05128e-07
0.00034764
-1.22042e-07
0.000347679
-3.87376e-08
0.000347634
4.47111e-08
0.000347506
1.28229e-07
0.000347294
2.11742e-07
0.000346999
2.95174e-07
0.000346621
3.78451e-07
0.000346159
4.61499e-07
0.000345615
5.44243e-07
0.000344988
6.26611e-07
0.00034428
7.08531e-07
0.00034349
7.89931e-07
0.000342619
8.70743e-07
0.000341668
9.50899e-07
0.000340638
1.03033e-06
0.000339529
1.10898e-06
0.000338342
1.18678e-06
0.000337079
1.26367e-06
0.000335739
1.33959e-06
0.000334325
1.41449e-06
0.000332836
1.48831e-06
0.000331275
1.56101e-06
0.000329643
1.63254e-06
0.00032794
1.70286e-06
0.000326168
1.77191e-06
0.000324328
1.83967e-06
0.000322422
1.9061e-06
0.000320451
1.97116e-06
0.000318416
2.03483e-06
0.000316319
2.09708e-06
0.000314161
2.15788e-06
0.000311944
2.21722e-06
0.000309669
2.27507e-06
0.000307337
2.33143e-06
0.000304951
2.38627e-06
0.000302512
2.4396e-06
0.00030002
2.4914e-06
0.000297479
2.54167e-06
0.000294888
2.5904e-06
0.00029225
2.63761e-06
0.000289567
2.68329e-06
0.00028684
2.72745e-06
0.00028407
2.7701e-06
0.000281258
2.81125e-06
0.000278407
2.85091e-06
0.000275518
2.88909e-06
0.000272593
2.92581e-06
0.000269631
2.96109e-06
0.000266637
2.99495e-06
0.000263609
3.0274e-06
0.000260551
3.05848e-06
0.000257462
3.0882e-06
0.000254346
3.11659e-06
0.000251202
3.14367e-06
0.000248033
3.16948e-06
0.000244839
3.19403e-06
0.000241621
3.21736e-06
0.000238382
3.23949e-06
0.000235121
3.26047e-06
0.000231841
3.2803e-06
0.000228542
3.29904e-06
0.000225225
3.3167e-06
0.000221892
3.33332e-06
0.000218543
3.34894e-06
0.00021518
3.36357e-06
0.000211802
3.37726e-06
0.000208412
3.39003e-06
0.00020501
3.40193e-06
0.000201597
3.41297e-06
0.000198174
3.42319e-06
0.000194742
3.43263e-06
0.0001913
3.4413e-06
0.000187851
3.44926e-06
0.000184394
3.45651e-06
0.000180931
3.46311e-06
0.000177462
3.46906e-06
0.000173988
3.47441e-06
0.000170509
3.47919e-06
0.000167025
3.48341e-06
0.000163538
3.48712e-06
0.000160048
3.49033e-06
0.000156555
3.49307e-06
0.000153059
3.49538e-06
0.000149562
3.49727e-06
0.000146063
3.49877e-06
0.000142563
3.4999e-06
0.000139063
3.5007e-06
0.000135562
3.50118e-06
0.00013206
3.50136e-06
0.000128559
3.50127e-06
0.000125058
3.50093e-06
0.000121558
3.50036e-06
0.000118058
3.49958e-06
0.000114559
3.49861e-06
0.000111062
3.49747e-06
0.000107566
3.49618e-06
0.000104071
3.49475e-06
0.000100578
3.49321e-06
9.70862e-05
3.49156e-06
9.35964e-05
3.48983e-06
9.01084e-05
3.48803e-06
8.66222e-05
3.48618e-06
8.31379e-05
3.48428e-06
7.96556e-05
3.48236e-06
7.61751e-05
3.48042e-06
7.26967e-05
3.47848e-06
6.92201e-05
3.47655e-06
6.57455e-05
3.47463e-06
6.22727e-05
3.47276e-06
5.88018e-05
3.47092e-06
5.53327e-05
3.46913e-06
5.18653e-05
3.4674e-06
4.83995e-05
3.46574e-06
4.49354e-05
3.46416e-06
4.14727e-05
3.46266e-06
3.80115e-05
3.46125e-06
3.45515e-05
3.45993e-06
3.10928e-05
3.45872e-06
2.76352e-05
3.45761e-06
2.41786e-05
3.45662e-06
2.07228e-05
3.45574e-06
1.72679e-05
3.45498e-06
1.38135e-05
3.45434e-06
1.03597e-05
3.45383e-06
6.90624e-06
3.45344e-06
3.45306e-06
3.45318e-06
3.45306e-06
3.21228e-06
-6.42468e-06
6.42469e-06
-6.42494e-06
9.63735e-06
-6.42546e-06
1.28504e-05
-6.42624e-06
1.6064e-05
-6.42727e-06
1.92782e-05
-6.42856e-06
2.24932e-05
-6.4301e-06
2.57091e-05
-6.43188e-06
2.8926e-05
-6.43391e-06
3.2144e-05
-6.43618e-06
3.53633e-05
-6.43867e-06
3.85839e-05
-6.44139e-06
4.1806e-05
-6.44433e-06
4.50297e-05
-6.44748e-06
4.82551e-05
-6.45083e-06
5.14822e-05
-6.45437e-06
5.47112e-05
-6.45809e-06
5.79422e-05
-6.46198e-06
6.11752e-05
-6.46603e-06
6.44103e-05
-6.47023e-06
6.76475e-05
-6.47456e-06
7.0887e-05
-6.47901e-06
7.41288e-05
-6.48357e-06
7.73729e-05
-6.48821e-06
8.06193e-05
-6.49293e-06
8.38682e-05
-6.49771e-06
8.71194e-05
-6.50253e-06
9.03731e-05
-6.50736e-06
9.36292e-05
-6.51219e-06
9.68877e-05
-6.51701e-06
0.000100149
-6.52177e-06
0.000103412
-6.52648e-06
0.000106677
-6.53109e-06
0.000109945
-6.5356e-06
0.000113215
-6.53996e-06
0.000116487
-6.54416e-06
0.000119762
-6.54816e-06
0.000123038
-6.55194e-06
0.000126315
-6.55547e-06
0.000129595
-6.55872e-06
0.000132876
-6.56165e-06
0.000136158
-6.56424e-06
0.000139441
-6.56644e-06
0.000142726
-6.56823e-06
0.00014601
-6.56957e-06
0.000149296
-6.57041e-06
0.000152581
-6.57072e-06
0.000155867
-6.57047e-06
0.000159152
-6.5696e-06
0.000162436
-6.56808e-06
0.000165719
-6.56586e-06
0.000169001
-6.5629e-06
0.00017228
-6.55915e-06
0.000175558
-6.55457e-06
0.000178833
-6.54911e-06
0.000182104
-6.54271e-06
0.000185372
-6.53533e-06
0.000188636
-6.52692e-06
0.000191895
-6.51742e-06
0.000195149
-6.50678e-06
0.000198396
-6.49495e-06
0.000201638
-6.48186e-06
0.000204872
-6.46747e-06
0.000208098
-6.45171e-06
0.000211316
-6.43454e-06
0.000214524
-6.41588e-06
0.000217722
-6.39568e-06
0.00022091
-6.37389e-06
0.000224085
-6.35043e-06
0.000227248
-6.32525e-06
0.000230398
-6.29829e-06
0.000233533
-6.26948e-06
0.000236653
-6.23877e-06
0.000239757
-6.20609e-06
0.000242843
-6.17139e-06
0.000245911
-6.13459e-06
0.000248959
-6.09565e-06
0.000251987
-6.05449e-06
0.000254993
-6.01107e-06
0.000257976
-5.96532e-06
0.000260935
-5.91719e-06
0.000263869
-5.86661e-06
0.000266777
-5.81354e-06
0.000269656
-5.75793e-06
0.000272507
-5.69971e-06
0.000275327
-5.63884e-06
0.000278115
-5.57527e-06
0.00028087
-5.50896e-06
0.000283591
-5.43987e-06
0.000286276
-5.36795e-06
0.000288923
-5.29317e-06
0.000291532
-5.21549e-06
0.0002941
-5.13489e-06
0.000296626
-5.05133e-06
0.000299109
-4.9648e-06
0.000301548
-4.87527e-06
0.00030394
-4.78273e-06
0.000306284
-4.68717e-06
0.000308579
-4.58858e-06
0.000310823
-4.48696e-06
0.000313015
-4.38232e-06
0.000315153
-4.27466e-06
0.000317236
-4.16399e-06
0.000319262
-4.05034e-06
0.00032123
-3.93373e-06
0.000323137
-3.81419e-06
0.000324984
-3.69176e-06
0.000326768
-3.56647e-06
0.000328488
-3.43837e-06
0.000330142
-3.30753e-06
0.00033173
-3.17398e-06
0.000333249
-3.03781e-06
0.0003347
-2.89909e-06
0.000336079
-2.75788e-06
0.000337387
-2.61427e-06
0.000338622
-2.46835e-06
0.000339782
-2.32021e-06
0.000340868
-2.16995e-06
0.000341877
-2.01768e-06
0.000342809
-1.86351e-06
0.000343663
-1.70754e-06
0.000344439
-1.54991e-06
0.000345134
-1.39073e-06
0.00034575
-1.23013e-06
0.000346284
-1.06824e-06
0.000346737
-9.05195e-07
0.000347108
-7.41138e-07
0.000347396
-5.76207e-07
0.000347602
-4.10545e-07
0.000347724
-2.44299e-07
0.000347763
-7.76154e-08
0.000347718
8.93567e-08
0.00034759
2.56468e-07
0.000347378
4.23568e-07
0.000347083
5.90508e-07
0.000346704
7.57136e-07
0.000346242
9.23305e-07
0.000345698
1.08887e-06
0.000345071
1.25367e-06
0.000344361
1.41758e-06
0.000343571
1.58046e-06
0.0003427
1.74215e-06
0.000341748
1.90253e-06
0.000340717
2.06146e-06
0.000339607
2.21881e-06
0.000338419
2.37447e-06
0.000337155
2.5283e-06
0.000335814
2.6802e-06
0.000334398
2.83005e-06
0.000332909
2.97776e-06
0.000331347
3.12321e-06
0.000329713
3.26631e-06
0.000328009
3.40698e-06
0.000326236
3.54513e-06
0.000324395
3.68068e-06
0.000322487
3.81357e-06
0.000320515
3.94373e-06
0.000318478
4.07109e-06
0.00031638
4.19561e-06
0.000314221
4.31723e-06
0.000312002
4.43592e-06
0.000309725
4.55164e-06
0.000307392
4.66437e-06
0.000305005
4.77407e-06
0.000302563
4.88072e-06
0.00030007
4.98433e-06
0.000297527
5.08487e-06
0.000294935
5.18234e-06
0.000292296
5.27675e-06
0.000289611
5.36811e-06
0.000286882
5.45642e-06
0.000284111
5.54171e-06
0.000281298
5.62399e-06
0.000278446
5.70329e-06
0.000275555
5.77964e-06
0.000272628
5.85307e-06
0.000269665
5.92361e-06
0.000266669
5.9913e-06
0.00026364
6.05619e-06
0.00026058
6.11832e-06
0.000257491
6.17773e-06
0.000254373
6.23449e-06
0.000251228
6.28863e-06
0.000248057
6.34021e-06
0.000244862
6.38928e-06
0.000241643
6.43591e-06
0.000238403
6.48015e-06
0.000235141
6.52207e-06
0.00023186
6.56171e-06
0.00022856
6.59915e-06
0.000225242
6.63445e-06
0.000221908
6.66766e-06
0.000218558
6.69885e-06
0.000215193
6.72809e-06
0.000211815
6.75543e-06
0.000208424
6.78095e-06
0.000205021
6.8047e-06
0.000201607
6.82676e-06
0.000198184
6.84717e-06
0.00019475
6.86601e-06
0.000191308
6.88334e-06
0.000187858
6.89921e-06
0.000184401
6.91369e-06
0.000180937
6.92685e-06
0.000177468
6.93873e-06
0.000173993
6.94941e-06
0.000170513
6.95893e-06
0.000167029
6.96735e-06
0.000163541
6.97473e-06
0.00016005
6.98112e-06
0.000156557
6.98659e-06
0.000153061
6.99117e-06
0.000149564
6.99492e-06
0.000146064
6.9979e-06
0.000142564
7.00015e-06
0.000139063
7.00171e-06
0.000135562
7.00265e-06
0.00013206
7.00299e-06
0.000128558
7.00279e-06
0.000125057
7.00209e-06
0.000121557
7.00093e-06
0.000118057
6.99935e-06
0.000114558
6.9974e-06
0.000111061
6.9951e-06
0.000107564
6.9925e-06
0.000104069
6.98962e-06
0.000100576
6.98652e-06
9.70844e-05
6.98321e-06
9.35945e-05
6.97973e-06
9.01065e-05
6.97612e-06
8.66202e-05
6.97239e-06
8.31359e-05
6.96859e-06
7.96536e-05
6.96472e-06
7.61732e-05
6.96084e-06
7.26947e-05
6.95694e-06
6.92182e-05
6.95307e-06
6.57436e-05
6.94924e-06
6.22708e-05
6.94547e-06
5.88e-05
6.94178e-06
5.53309e-05
6.9382e-06
5.18636e-05
6.93474e-06
4.83979e-05
6.93141e-06
4.49338e-05
6.92823e-06
4.14713e-05
6.92523e-06
3.80101e-05
6.9224e-06
3.45503e-05
6.91976e-06
3.10917e-05
6.91733e-06
2.76342e-05
6.91512e-06
2.41777e-05
6.91312e-06
2.07221e-05
6.91136e-06
1.72672e-05
6.90984e-06
1.3813e-05
6.90856e-06
1.03593e-05
6.90753e-06
6.90598e-06
6.90675e-06
3.45293e-06
6.90624e-06
6.90598e-06
3.21201e-06
-9.63669e-06
6.42416e-06
-9.63709e-06
9.63657e-06
-9.63787e-06
1.28494e-05
-9.63904e-06
1.60627e-05
-9.64059e-06
1.92767e-05
-9.64253e-06
2.24914e-05
-9.64484e-06
2.5707e-05
-9.64752e-06
2.89237e-05
-9.65057e-06
3.21415e-05
-9.65398e-06
3.53605e-05
-9.65773e-06
3.8581e-05
-9.66182e-06
4.18029e-05
-9.66623e-06
4.50264e-05
-9.67097e-06
4.82515e-05
-9.676e-06
5.14785e-05
-9.68132e-06
5.47073e-05
-9.68692e-06
5.79381e-05
-9.69277e-06
6.11709e-05
-9.69886e-06
6.44059e-05
-9.70518e-06
6.7643e-05
-9.71169e-06
7.08824e-05
-9.71839e-06
7.41241e-05
-9.72524e-06
7.73681e-05
-9.73223e-06
8.06145e-05
-9.73933e-06
8.38633e-05
-9.74652e-06
8.71145e-05
-9.75376e-06
9.03682e-05
-9.76104e-06
9.36243e-05
-9.76832e-06
9.68829e-05
-9.77556e-06
0.000100144
-9.78274e-06
0.000103407
-9.78983e-06
0.000106673
-9.79678e-06
0.000109941
-9.80357e-06
0.000113211
-9.81015e-06
0.000116483
-9.81648e-06
0.000119758
-9.82252e-06
0.000123034
-9.82823e-06
0.000126312
-9.83356e-06
0.000129592
-9.83847e-06
0.000132873
-9.84291e-06
0.000136156
-9.84684e-06
0.000139439
-9.85019e-06
0.000142724
-9.85291e-06
0.00014601
-9.85496e-06
0.000149295
-9.85628e-06
0.000152581
-9.8568e-06
0.000155867
-9.85646e-06
0.000159153
-9.85521e-06
0.000162438
-9.85299e-06
0.000165722
-9.84972e-06
0.000169004
-9.84533e-06
0.000172285
-9.83977e-06
0.000175563
-9.83296e-06
0.000178839
-9.82482e-06
0.000182112
-9.81529e-06
0.000185381
-9.80429e-06
0.000188645
-9.79174e-06
0.000191906
-9.77755e-06
0.00019516
-9.76166e-06
0.000198409
-9.74398e-06
0.000201652
-9.72442e-06
0.000204887
-9.70291e-06
0.000208115
-9.67935e-06
0.000211334
-9.65366e-06
0.000214544
-9.62575e-06
0.000217744
-9.59552e-06
0.000220933
-9.5629e-06
0.00022411
-9.52779e-06
0.000227275
-9.4901e-06
0.000230427
-9.44973e-06
0.000233564
-9.4066e-06
0.000236686
-9.36061e-06
0.000239791
-9.31167e-06
0.000242879
-9.25969e-06
0.000245949
-9.20457e-06
0.000249
-9.14623e-06
0.00025203
-9.08458e-06
0.000255039
-9.01952e-06
0.000258024
-8.95096e-06
0.000260986
-8.87883e-06
0.000263922
-8.80304e-06
0.000266832
-8.7235e-06
0.000269714
-8.64014e-06
0.000272568
-8.55287e-06
0.00027539
-8.46163e-06
0.000278181
-8.36633e-06
0.000280939
-8.26692e-06
0.000283663
-8.16333e-06
0.00028635
-8.0555e-06
0.000289001
-7.94337e-06
0.000291612
-7.82689e-06
0.000294183
-7.70602e-06
0.000296713
-7.58071e-06
0.000299199
-7.45094e-06
0.00030164
-7.31666e-06
0.000304035
-7.17787e-06
0.000306383
-7.03454e-06
0.000308681
-6.88665e-06
0.000310928
-6.73422e-06
0.000313123
-6.57725e-06
0.000315264
-6.41574e-06
0.00031735
-6.24972e-06
0.000319379
-6.07921e-06
0.000321349
-5.90426e-06
0.00032326
-5.7249e-06
0.000325109
-5.5412e-06
0.000326896
-5.35321e-06
0.000328619
-5.161e-06
0.000330276
-4.96466e-06
0.000331866
-4.76426e-06
0.000333388
-4.55992e-06
0.000334841
-4.35173e-06
0.000336223
-4.13981e-06
0.000337533
-3.92429e-06
0.00033877
-3.70529e-06
0.000339932
-3.48296e-06
0.00034102
-3.25745e-06
0.000342031
-3.0289e-06
0.000342965
-2.7975e-06
0.000343821
-2.56341e-06
0.000344598
-2.3268e-06
0.000345295
-2.08787e-06
0.000345912
-1.8468e-06
0.000346447
-1.6038e-06
0.000346901
-1.35906e-06
0.000347273
-1.1128e-06
0.000347562
-8.65223e-07
0.000347768
-6.16548e-07
0.00034789
-3.66995e-07
0.00034793
-1.16784e-07
0.000347885
1.33861e-07
0.000347757
3.84715e-07
0.000347545
6.35553e-07
0.000347249
8.86149e-07
0.00034687
1.13628e-06
0.000346408
1.38572e-06
0.000345862
1.63424e-06
0.000345234
1.88163e-06
0.000344524
2.12768e-06
0.000343733
2.37216e-06
0.00034286
2.61486e-06
0.000341907
2.8556e-06
0.000340874
3.09415e-06
0.000339763
3.33034e-06
0.000338573
3.56397e-06
0.000337306
3.79487e-06
0.000335964
4.02286e-06
0.000334546
4.24777e-06
0.000333054
4.46945e-06
0.00033149
4.68774e-06
0.000329854
4.90251e-06
0.000328147
5.11361e-06
0.000326371
5.32094e-06
0.000324528
5.52436e-06
0.000322617
5.72377e-06
0.000320642
5.91908e-06
0.000318603
6.11019e-06
0.000316501
6.29702e-06
0.000314339
6.47951e-06
0.000312118
6.6576e-06
0.000309838
6.83122e-06
0.000307502
7.00033e-06
0.000305111
7.1649e-06
0.000302667
7.3249e-06
0.000300171
7.48032e-06
0.000297625
7.63113e-06
0.00029503
7.77734e-06
0.000292388
7.91895e-06
0.0002897
8.05597e-06
0.000286968
8.18842e-06
0.000284193
8.31633e-06
0.000281377
8.43972e-06
0.000278522
8.55863e-06
0.000275629
8.67311e-06
0.000272698
8.78321e-06
0.000269733
8.88897e-06
0.000266734
8.99046e-06
0.000263702
9.08774e-06
0.00026064
9.18087e-06
0.000257548
9.26993e-06
0.000254427
9.35499e-06
0.00025128
9.43614e-06
0.000248106
9.51344e-06
0.000244909
9.58698e-06
0.000241688
9.65686e-06
0.000238445
9.72314e-06
0.000235181
9.78594e-06
0.000231897
9.84533e-06
0.000228595
9.90141e-06
0.000225275
9.95427e-06
0.000221939
1.0004e-05
0.000218587
1.00507e-05
0.000215221
1.00945e-05
0.000211841
1.01354e-05
0.000208448
1.01736e-05
0.000205043
1.02092e-05
0.000201628
1.02422e-05
0.000198202
1.02727e-05
0.000194767
1.03009e-05
0.000191324
1.03268e-05
0.000187873
1.03506e-05
0.000184414
1.03722e-05
0.000180949
1.03919e-05
0.000177478
1.04096e-05
0.000174002
1.04256e-05
0.000170521
1.04398e-05
0.000167036
1.04523e-05
0.000163548
1.04633e-05
0.000160056
1.04729e-05
0.000156562
1.0481e-05
0.000153065
1.04878e-05
0.000149567
1.04934e-05
0.000146067
1.04978e-05
0.000142566
1.05011e-05
0.000139064
1.05034e-05
0.000135562
1.05047e-05
0.00013206
1.05052e-05
0.000128558
1.05048e-05
0.000125056
1.05037e-05
0.000121555
1.05019e-05
0.000118055
1.04995e-05
0.000114556
1.04965e-05
0.000111058
1.0493e-05
0.000107561
1.04891e-05
0.000104066
1.04847e-05
0.000100573
1.048e-05
9.7081e-05
1.0475e-05
9.3591e-05
1.04698e-05
9.01028e-05
1.04643e-05
8.66165e-05
1.04587e-05
8.31321e-05
1.04529e-05
7.96497e-05
1.04471e-05
7.61693e-05
1.04413e-05
7.26908e-05
1.04354e-05
6.92143e-05
1.04295e-05
6.57398e-05
1.04238e-05
6.22672e-05
1.04181e-05
5.87964e-05
1.04125e-05
5.53275e-05
1.04071e-05
5.18603e-05
1.04019e-05
4.83948e-05
1.03969e-05
4.49308e-05
1.03921e-05
4.14685e-05
1.03876e-05
3.80075e-05
1.03834e-05
3.45479e-05
1.03794e-05
3.10895e-05
1.03757e-05
2.76322e-05
1.03724e-05
2.41759e-05
1.03694e-05
2.07205e-05
1.03667e-05
1.72659e-05
1.03644e-05
1.3812e-05
1.03625e-05
1.03585e-05
1.0361e-05
6.90546e-06
1.03598e-05
3.45267e-06
1.0359e-05
1.03586e-05
3.21162e-06
-1.28483e-05
6.42337e-06
-1.28488e-05
9.63539e-06
-1.28499e-05
1.28478e-05
-1.28514e-05
1.60607e-05
-1.28535e-05
1.92743e-05
-1.28561e-05
2.24887e-05
-1.28592e-05
2.5704e-05
-1.28628e-05
2.89203e-05
-1.28669e-05
3.21377e-05
-1.28714e-05
3.53564e-05
-1.28764e-05
3.85765e-05
-1.28819e-05
4.17981e-05
-1.28878e-05
4.50213e-05
-1.28941e-05
4.82462e-05
-1.29009e-05
5.14728e-05
-1.2908e-05
5.47014e-05
-1.29155e-05
5.7932e-05
-1.29233e-05
6.11646e-05
-1.29315e-05
6.43993e-05
-1.29399e-05
6.76363e-05
-1.29486e-05
7.08755e-05
-1.29576e-05
7.4117e-05
-1.29668e-05
7.73609e-05
-1.29761e-05
8.06072e-05
-1.29856e-05
8.3856e-05
-1.29953e-05
8.71072e-05
-1.3005e-05
9.03608e-05
-1.30147e-05
9.3617e-05
-1.30245e-05
9.68756e-05
-1.30342e-05
0.000100137
-1.30438e-05
0.0001034
-1.30533e-05
0.000106666
-1.30626e-05
0.000109934
-1.30717e-05
0.000113205
-1.30806e-05
0.000116477
-1.30891e-05
0.000119752
-1.30972e-05
0.000123029
-1.31049e-05
0.000126307
-1.31121e-05
0.000129587
-1.31187e-05
0.000132869
-1.31247e-05
0.000136152
-1.313e-05
0.000139437
-1.31346e-05
0.000142722
-1.31383e-05
0.000146008
-1.31411e-05
0.000149295
-1.31429e-05
0.000152582
-1.31437e-05
0.000155869
-1.31434e-05
0.000159155
-1.31418e-05
0.000162441
-1.31389e-05
0.000165726
-1.31347e-05
0.00016901
-1.31289e-05
0.000172292
-1.31216e-05
0.000175571
-1.31127e-05
0.000178848
-1.31019e-05
0.000182122
-1.30893e-05
0.000185393
-1.30748e-05
0.000188659
-1.30582e-05
0.000191921
-1.30394e-05
0.000195178
-1.30183e-05
0.000198429
-1.29949e-05
0.000201673
-1.29689e-05
0.000204911
-1.29404e-05
0.000208141
-1.29091e-05
0.000211362
-1.2875e-05
0.000214574
-1.28379e-05
0.000217776
-1.27978e-05
0.000220968
-1.27544e-05
0.000224148
-1.27077e-05
0.000227315
-1.26576e-05
0.00023047
-1.26039e-05
0.000233609
-1.25466e-05
0.000236734
-1.24854e-05
0.000239843
-1.24203e-05
0.000242934
-1.23511e-05
0.000246008
-1.22778e-05
0.000249061
-1.22001e-05
0.000252095
-1.21181e-05
0.000255107
-1.20315e-05
0.000258096
-1.19402e-05
0.000261061
-1.18441e-05
0.000264002
-1.17432e-05
0.000266915
-1.16373e-05
0.000269801
-1.15263e-05
0.000272659
-1.141e-05
0.000275485
-1.12885e-05
0.000278281
-1.11615e-05
0.000281043
-1.10291e-05
0.00028377
-1.0891e-05
0.000286462
-1.07473e-05
0.000289117
-1.05979e-05
0.000291733
-1.04427e-05
0.000294308
-1.02816e-05
0.000296842
-1.01146e-05
0.000299333
-9.94158e-06
0.000301779
-9.76258e-06
0.000304178
-9.57755e-06
0.00030653
-9.38645e-06
0.000308833
-9.18928e-06
0.000311085
-8.98603e-06
0.000313284
-8.77671e-06
0.00031543
-8.56134e-06
0.00031752
-8.33993e-06
0.000319553
-8.11253e-06
0.000321528
-7.87919e-06
0.000323443
-7.63997e-06
0.000325297
-7.39493e-06
0.000327088
-7.14417e-06
0.000328815
-6.88777e-06
0.000330476
-6.62584e-06
0.00033207
-6.35849e-06
0.000333596
-6.08587e-06
0.000335052
-5.80811e-06
0.000336438
-5.52536e-06
0.000337752
-5.23778e-06
0.000338992
-4.94557e-06
0.000340158
-4.6489e-06
0.000341248
-4.34797e-06
0.000342262
-4.04299e-06
0.000343199
-3.73418e-06
0.000344057
-3.42178e-06
0.000344837
-3.10602e-06
0.000345536
-2.78714e-06
0.000346155
-2.46541e-06
0.000346692
-2.1411e-06
0.000347147
-1.81446e-06
0.00034752
-1.48578e-06
0.00034781
-1.15534e-06
0.000348017
-8.23434e-07
0.000348141
-4.90352e-07
0.00034818
-1.5639e-07
0.000348136
1.78153e-07
0.000348008
5.12976e-07
0.000347795
8.47777e-07
0.000347499
1.18225e-06
0.000347119
1.51611e-06
0.000346656
1.84904e-06
0.00034611
2.18075e-06
0.00034548
2.51094e-06
0.000344769
2.83933e-06
0.000343975
3.16562e-06
0.000343101
3.48955e-06
0.000342145
3.81084e-06
0.00034111
4.12921e-06
0.000339996
4.44442e-06
0.000338804
4.75621e-06
0.000337534
5.06435e-06
0.000336189
5.36859e-06
0.000334768
5.66872e-06
0.000333273
5.96452e-06
0.000331705
6.2558e-06
0.000330065
6.54236e-06
0.000328354
6.82403e-06
0.000326575
7.10064e-06
0.000324727
7.37204e-06
0.000322813
7.63807e-06
0.000320833
7.89862e-06
0.00031879
8.15356e-06
0.000316684
8.40279e-06
0.000314517
8.6462e-06
0.000312291
8.88373e-06
0.000310007
9.11529e-06
0.000307667
9.34083e-06
0.000305271
9.5603e-06
0.000302822
9.77367e-06
0.000300322
9.9809e-06
0.000297771
1.0182e-05
0.000295171
1.03769e-05
0.000292525
1.05657e-05
0.000289832
1.07484e-05
0.000287096
1.0925e-05
0.000284316
1.10955e-05
0.000281496
1.12599e-05
0.000278637
1.14184e-05
0.000275739
1.1571e-05
0.000272804
1.17177e-05
0.000269835
1.18586e-05
0.000266831
1.19938e-05
0.000263795
1.21234e-05
0.000260729
1.22475e-05
0.000257633
1.23661e-05
0.000254508
1.24794e-05
0.000251357
1.25875e-05
0.00024818
1.26904e-05
0.000244979
1.27884e-05
0.000241754
1.28814e-05
0.000238508
1.29696e-05
0.00023524
1.30532e-05
0.000231953
1.31323e-05
0.000228648
1.32069e-05
0.000225325
1.32772e-05
0.000221986
1.33434e-05
0.000218631
1.34055e-05
0.000215261
1.34637e-05
0.000211879
1.35182e-05
0.000208483
1.3569e-05
0.000205076
1.36162e-05
0.000201659
1.36601e-05
0.000198231
1.37006e-05
0.000194793
1.37381e-05
0.000191348
1.37725e-05
0.000187894
1.3804e-05
0.000184434
1.38327e-05
0.000180967
1.38588e-05
0.000177494
1.38823e-05
0.000174016
1.39034e-05
0.000170534
1.39222e-05
0.000167047
1.39389e-05
0.000163557
1.39534e-05
0.000160064
1.3966e-05
0.000156568
1.39767e-05
0.000153071
1.39856e-05
0.000149571
1.3993e-05
0.00014607
1.39987e-05
0.000142568
1.4003e-05
0.000139065
1.4006e-05
0.000135563
1.40076e-05
0.00013206
1.40082e-05
0.000128557
1.40076e-05
0.000125054
1.4006e-05
0.000121553
1.40035e-05
0.000118052
1.40002e-05
0.000114552
1.39962e-05
0.000111054
1.39914e-05
0.000107557
1.39861e-05
0.000104062
1.39802e-05
0.000100568
1.39738e-05
9.70758e-05
1.39671e-05
9.35855e-05
1.396e-05
9.00972e-05
1.39527e-05
8.66107e-05
1.39451e-05
8.31263e-05
1.39374e-05
7.96439e-05
1.39296e-05
7.61634e-05
1.39217e-05
7.2685e-05
1.39138e-05
6.92086e-05
1.3906e-05
6.57342e-05
1.38982e-05
6.22616e-05
1.38906e-05
5.8791e-05
1.38832e-05
5.53223e-05
1.38759e-05
5.18553e-05
1.38689e-05
4.839e-05
1.38622e-05
4.49263e-05
1.38558e-05
4.14642e-05
1.38497e-05
3.80035e-05
1.3844e-05
3.45442e-05
1.38387e-05
3.10861e-05
1.38338e-05
2.76292e-05
1.38293e-05
2.41733e-05
1.38253e-05
2.07183e-05
1.38218e-05
1.7264e-05
1.38187e-05
1.38104e-05
1.38161e-05
1.03574e-05
1.3814e-05
6.90468e-06
1.38125e-05
3.45228e-06
1.38114e-05
1.38109e-05
3.21109e-06
-1.60594e-05
6.42232e-06
-1.60601e-05
9.63381e-06
-1.60614e-05
1.28457e-05
-1.60633e-05
1.60581e-05
-1.60659e-05
1.92712e-05
-1.60692e-05
2.24851e-05
-1.60731e-05
2.56998e-05
-1.60776e-05
2.89157e-05
-1.60827e-05
3.21326e-05
-1.60884e-05
3.53509e-05
-1.60947e-05
3.85706e-05
-1.61016e-05
4.17917e-05
-1.6109e-05
4.50145e-05
-1.61169e-05
4.8239e-05
-1.61254e-05
5.14653e-05
-1.61343e-05
5.46935e-05
-1.61437e-05
5.79237e-05
-1.61535e-05
6.11561e-05
-1.61638e-05
6.43905e-05
-1.61744e-05
6.76272e-05
-1.61853e-05
7.08662e-05
-1.61966e-05
7.41076e-05
-1.62081e-05
7.73513e-05
-1.62199e-05
8.05975e-05
-1.62318e-05
8.38462e-05
-1.62439e-05
8.70973e-05
-1.62561e-05
9.0351e-05
-1.62684e-05
9.36072e-05
-1.62807e-05
9.68659e-05
-1.62929e-05
0.000100127
-1.6305e-05
0.000103391
-1.6317e-05
0.000106657
-1.63287e-05
0.000109925
-1.63402e-05
0.000113196
-1.63513e-05
0.000116469
-1.63621e-05
0.000119744
-1.63723e-05
0.000123021
-1.6382e-05
0.0001263
-1.63911e-05
0.000129581
-1.63995e-05
0.000132864
-1.64072e-05
0.000136148
-1.64139e-05
0.000139433
-1.64197e-05
0.000142719
-1.64245e-05
0.000146006
-1.64282e-05
0.000149294
-1.64306e-05
0.000152582
-1.64318e-05
0.00015587
-1.64315e-05
0.000159158
-1.64297e-05
0.000162445
-1.64263e-05
0.000165732
-1.64211e-05
0.000169017
-1.64141e-05
0.0001723
-1.64052e-05
0.000175582
-1.63941e-05
0.000178861
-1.63809e-05
0.000182137
-1.63654e-05
0.000185409
-1.63474e-05
0.000188678
-1.63268e-05
0.000191942
-1.63035e-05
0.000195201
-1.62774e-05
0.000198455
-1.62483e-05
0.000201702
-1.62161e-05
0.000204942
-1.61806e-05
0.000208174
-1.61417e-05
0.000211399
-1.60993e-05
0.000214614
-1.60532e-05
0.000217819
-1.60032e-05
0.000221014
-1.59492e-05
0.000224198
-1.58911e-05
0.000227369
-1.58287e-05
0.000230527
-1.57618e-05
0.00023367
-1.56904e-05
0.000236799
-1.56141e-05
0.000239912
-1.5533e-05
0.000243007
-1.54467e-05
0.000246085
-1.53553e-05
0.000249143
-1.52585e-05
0.000252181
-1.51561e-05
0.000255198
-1.5048e-05
0.000258192
-1.49342e-05
0.000261162
-1.48143e-05
0.000264107
-1.46884e-05
0.000267026
-1.45562e-05
0.000269917
-1.44176e-05
0.00027278
-1.42725e-05
0.000275612
-1.41207e-05
0.000278413
-1.39622e-05
0.000281181
-1.37968e-05
0.000283914
-1.36244e-05
0.000286612
-1.34449e-05
0.000289272
-1.32583e-05
0.000291894
-1.30644e-05
0.000294475
-1.28631e-05
0.000297015
-1.26544e-05
0.000299512
-1.24382e-05
0.000301963
-1.22145e-05
0.000304369
-1.19833e-05
0.000306727
-1.17444e-05
0.000309036
-1.1498e-05
0.000311294
-1.12439e-05
0.000313499
-1.09822e-05
0.000315651
-1.0713e-05
0.000317747
-1.04361e-05
0.000319786
-1.01518e-05
0.000321767
-9.86001e-06
0.000323688
-9.56085e-06
0.000325548
-9.2544e-06
0.000327344
-8.94076e-06
0.000329076
-8.62006e-06
0.000330743
-8.29243e-06
0.000332343
-7.95801e-06
0.000333874
-7.61696e-06
0.000335335
-7.26947e-06
0.000336725
-6.91572e-06
0.000338044
-6.55593e-06
0.000339288
-6.19031e-06
0.000340459
-5.8191e-06
0.000341553
-5.44254e-06
0.000342571
-5.06091e-06
0.000343511
-4.67447e-06
0.000344373
-4.28352e-06
0.000345155
-3.88835e-06
0.000345857
-3.48928e-06
0.000346479
-3.08662e-06
0.000347018
-2.68071e-06
0.000347476
-2.2719e-06
0.000347851
-1.86052e-06
0.000348142
-1.44693e-06
0.00034835
-1.0315e-06
0.000348474
-6.14592e-07
0.000348515
-1.9658e-07
0.000348471
2.22161e-07
0.000348342
6.41254e-07
0.00034813
1.06032e-06
0.000347833
1.47898e-06
0.000347452
1.89686e-06
0.000346988
2.31358e-06
0.00034644
2.72876e-06
0.000345809
3.14205e-06
0.000345095
3.55306e-06
0.000344299
3.96146e-06
0.000343422
4.36688e-06
0.000342464
4.76899e-06
0.000341425
5.16744e-06
0.000340308
5.56192e-06
0.000339112
5.95211e-06
0.000337839
6.33771e-06
0.000336489
6.71843e-06
0.000335063
7.09398e-06
0.000333564
7.46412e-06
0.000331991
7.82857e-06
0.000330346
8.18711e-06
0.000328631
8.53951e-06
0.000326846
8.88556e-06
0.000324993
9.22507e-06
0.000323073
9.55786e-06
0.000321088
9.88377e-06
0.000319039
1.02026e-05
0.000316927
1.05144e-05
0.000314755
1.08188e-05
0.000312523
1.11158e-05
0.000310233
1.14054e-05
0.000307886
1.16874e-05
0.000305485
1.19618e-05
0.00030303
1.22286e-05
0.000300523
1.24876e-05
0.000297966
1.2739e-05
0.00029536
1.29827e-05
0.000292707
1.32186e-05
0.000290009
1.34469e-05
0.000287266
1.36676e-05
0.000284481
1.38806e-05
0.000281655
1.40861e-05
0.000278789
1.42841e-05