/*--------------------------------*- C++ -*----------------------------------*\
| =========                 |                                                 |
| \\      /  F ield         | OpenFOAM: The Open Source CFD Toolbox           |
|  \\    /   O peration     | Version:  v2012                                 |
|   \\  /    A nd           | Website:  www.openfoam.com                      |
|    \\/     M anipulation  |                                                 |
\*---------------------------------------------------------------------------*/
FoamFile
{
    version     2.0;
    format      ascii;
    class       volScalarField;
    location    "19.3";
    object      Psi_z;
}
// * * * * * * * * * * * * * * * * * * * * * * * * * * * * * * * * * * * * * //

dimensions      [0 2 -1 0 0 0 0];


internalField   nonuniform List<scalar> 
65536
(
8.02346e-06
2.40708e-05
4.0119e-05
5.61689e-05
7.2221e-05
8.82759e-05
0.000104334
0.000120397
0.000136464
0.000152536
0.000168615
0.000184699
0.000200791
0.00021689
0.000232997
0.000249112
0.000265236
0.00028137
0.000297513
0.000313667
0.00032983
0.000346005
0.000362191
0.000378387
0.000394596
0.000410815
0.000427047
0.00044329
0.000459545
0.000475812
0.000492091
0.00050838
0.000524682
0.000540994
0.000557317
0.000573651
0.000589994
0.000606347
0.000622708
0.000639078
0.000655455
0.000671838
0.000688227
0.000704621
0.000721018
0.000737418
0.000753818
0.000770219
0.000786618
0.000803013
0.000819403
0.000835787
0.000852162
0.000868526
0.000884877
0.000901214
0.000917532
0.000933831
0.000950107
0.000966358
0.000982581
0.000998772
0.00101493
0.00103105
0.00104713
0.00106316
0.00107914
0.00109507
0.00111095
0.00112676
0.00114251
0.00115819
0.0011738
0.00118933
0.00120477
0.00122012
0.00123538
0.00125054
0.0012656
0.00128054
0.00129537
0.00131007
0.00132464
0.00133908
0.00135338
0.00136753
0.00138153
0.00139536
0.00140903
0.00142252
0.00143583
0.00144895
0.00146187
0.00147458
0.00148709
0.00149938
0.00151144
0.00152327
0.00153485
0.00154619
0.00155727
0.00156809
0.00157864
0.0015889
0.00159889
0.00160857
0.00161796
0.00162704
0.0016358
0.00164425
0.00165236
0.00166014
0.00166757
0.00167466
0.00168139
0.00168777
0.00169377
0.00169941
0.00170467
0.00170955
0.00171404
0.00171814
0.00172185
0.00172516
0.00172806
0.00173057
0.00173266
0.00173435
0.00173562
0.00173648
0.00173692
0.00173695
0.00173656
0.00173576
0.00173454
0.0017329
0.00173084
0.00172838
0.0017255
0.0017222
0.00171851
0.0017144
0.0017099
0.00170499
0.00169969
0.001694
0.00168792
0.00168146
0.00167462
0.00166741
0.00165983
0.00165189
0.0016436
0.00163496
0.00162597
0.00161665
0.001607
0.00159702
0.00158673
0.00157613
0.00156523
0.00155404
0.00154256
0.0015308
0.00151877
0.00150648
0.00149393
0.00148113
0.00146809
0.00145482
0.00144132
0.0014276
0.00141367
0.00139954
0.00138521
0.0013707
0.001356
0.00134113
0.0013261
0.0013109
0.00129555
0.00128005
0.00126442
0.00124865
0.00123275
0.00121674
0.0012006
0.00118436
0.00116802
0.00115158
0.00113505
0.00111843
0.00110173
0.00108495
0.0010681
0.00105119
0.00103421
0.00101718
0.00100009
0.000982945
0.00096576
0.000948532
0.000931265
0.000913963
0.000896629
0.000879266
0.000861877
0.000844466
0.000827034
0.000809584
0.000792118
0.00077464
0.00075715
0.000739652
0.000722146
0.000704636
0.000687122
0.000669605
0.000652088
0.000634572
0.000617058
0.000599547
0.00058204
0.000564537
0.000547041
0.000529551
0.000512069
0.000494594
0.000477127
0.000459669
0.000442219
0.000424779
0.000407349
0.000389928
0.000372516
0.000355114
0.000337721
0.000320338
0.000302963
0.000285598
0.000268241
0.000250893
0.000233553
0.00021622
0.000198895
0.000181576
0.000164264
0.000146957
0.000129655
0.000112358
9.50655e-05
7.77761e-05
6.04895e-05
4.32052e-05
2.59225e-05
8.64072e-06
2.40702e-05
7.22116e-05
0.000120356
0.000168505
0.000216661
0.000264825
0.000312999
0.000361186
0.000409387
0.000457604
0.000505838
0.000554092
0.000602366
0.000650662
0.000698983
0.000747329
0.000795701
0.000844102
0.000892531
0.000940991
0.000989482
0.00103801
0.00108656
0.00113515
0.00118378
0.00123244
0.00128113
0.00132986
0.00137863
0.00142743
0.00147626
0.00152513
0.00157404
0.00162297
0.00167194
0.00172095
0.00176998
0.00181903
0.00186812
0.00191723
0.00196636
0.00201551
0.00206468
0.00211386
0.00216306
0.00221226
0.00226146
0.00231066
0.00235986
0.00240905
0.00245822
0.00250737
0.0025565
0.0026056
0.00265465
0.00270366
0.00275262
0.00280152
0.00285035
0.00289911
0.00294778
0.00299636
0.00304483
0.00309319
0.00314143
0.00318953
0.00323749
0.00328528
0.00333292
0.00338036
0.00342762
0.00347466
0.00352148
0.00356807
0.0036144
0.00366047
0.00370625
0.00375174
0.00379691
0.00384174
0.00388623
0.00393034
0.00397408
0.0040174
0.0040603
0.00410276
0.00414475
0.00418626
0.00422727
0.00426774
0.00430767
0.00434704
0.00438581
0.00442397
0.0044615
0.00449837
0.00453456
0.00457005
0.00460482
0.00463884
0.00467209
0.00470455
0.0047362
0.00476701
0.00479696
0.00482603
0.00485419
0.00488144
0.00490774
0.00493307
0.00495742
0.00498075
0.00500307
0.00502434
0.00504454
0.00506367
0.0050817
0.00509861
0.00511439
0.00512903
0.00514251
0.00515482
0.00516595
0.00517588
0.0051846
0.00519211
0.0051984
0.00520346
0.00520728
0.00520985
0.00521119
0.00521127
0.00521011
0.00520769
0.00520402
0.00519911
0.00519295
0.00518554
0.0051769
0.00516703
0.00515593
0.00514361
0.00513009
0.00511537
0.00509946
0.00508238
0.00506414
0.00504475
0.00502423
0.00500259
0.00497985
0.00495603
0.00493114
0.00490521
0.00487825
0.00485027
0.00482131
0.00479138
0.00476051
0.0047287
0.004696
0.00466241
0.00462796
0.00459268
0.00455658
0.00451969
0.00448203
0.00444363
0.0044045
0.00436467
0.00432417
0.00428301
0.00424122
0.00419882
0.00415583
0.00411228
0.00406818
0.00402357
0.00397845
0.00393285
0.0038868
0.0038403
0.00379339
0.00374607
0.00369838
0.00365032
0.00360192
0.0035532
0.00350416
0.00345483
0.00340523
0.00335537
0.00330526
0.00325493
0.00320438
0.00315363
0.00310269
0.00305158
0.0030003
0.00294888
0.00289732
0.00284563
0.00279383
0.00274192
0.00268991
0.00263782
0.00258565
0.00253342
0.00248112
0.00242876
0.00237637
0.00232393
0.00227146
0.00221896
0.00216644
0.00211391
0.00206137
0.00200882
0.00195626
0.00190371
0.00185117
0.00179864
0.00174611
0.00169361
0.00164112
0.00158865
0.0015362
0.00148377
0.00143137
0.001379
0.00132665
0.00127433
0.00122204
0.00116977
0.00111754
0.00106533
0.00101315
0.000961003
0.00090888
0.000856785
0.000804715
0.000752671
0.00070065
0.000648653
0.000596677
0.000544721
0.000492784
0.000440865
0.000388961
0.000337071
0.000285193
0.000233325
0.000181466
0.000129614
7.77665e-05
2.59218e-05
4.01159e-05
0.000120349
0.000200588
0.000280834
0.000361092
0.000441363
0.000521652
0.000601962
0.000682295
0.000762654
0.000843043
0.000923463
0.00100392
0.00108441
0.00116494
0.00124552
0.00132614
0.0014068
0.00148752
0.00156828
0.0016491
0.00172997
0.0018109
0.00189188
0.00197292
0.00205402
0.00213518
0.0022164
0.00229767
0.00237901
0.0024604
0.00254185
0.00262336
0.00270492
0.00278654
0.00286821
0.00294993
0.0030317
0.00311351
0.00319536
0.00327725
0.00335917
0.00344112
0.00352309
0.00360509
0.00368709
0.0037691
0.00385111
0.00393311
0.0040151
0.00409706
0.00417899
0.00426087
0.0043427
0.00442447
0.00450616
0.00458777
0.00466928
0.00475067
0.00483194
0.00491307
0.00499404
0.00507484
0.00515545
0.00523586
0.00531604
0.00539598
0.00547566
0.00555506
0.00563416
0.00571293
0.00579135
0.0058694
0.00594706
0.0060243
0.0061011
0.00617742
0.00625325
0.00632855
0.00640329
0.00647746
0.00655101
0.00662391
0.00669614
0.00676767
0.00683845
0.00690846
0.00697766
0.00704603
0.00711351
0.00718009
0.00724572
0.00731037
0.00737399
0.00743656
0.00749804
0.00755838
0.00761756
0.00767553
0.00773225
0.0077877
0.00784182
0.00789459
0.00794597
0.00799591
0.00804438
0.00809135
0.00813678
0.00818064
0.00822288
0.00826348
0.0083024
0.00833961
0.00837508
0.00840878
0.00844067
0.00847073
0.00849894
0.00852526
0.00854967
0.00857216
0.00859269
0.00861124
0.0086278
0.00864235
0.00865488
0.00866536
0.0086738
0.00868017
0.00868448
0.0086867
0.00868684
0.0086849
0.00868088
0.00867476
0.00866657
0.00865629
0.00864395
0.00862954
0.00861307
0.00859456
0.00857403
0.00855148
0.00852693
0.00850041
0.00847193
0.00844151
0.00840918
0.00837496
0.00833888
0.00830096
0.00826124
0.00821974
0.00817649
0.00813153
0.00808489
0.0080366
0.00798669
0.00793521
0.00788218
0.00782764
0.00777164
0.0077142
0.00765537
0.00759518
0.00753367
0.00747088
0.00740685
0.00734161
0.00727521
0.00720767
0.00713905
0.00706937
0.00699868
0.00692701
0.0068544
0.00678089
0.0067065
0.00663128
0.00655526
0.00647848
0.00640097
0.00632275
0.00624388
0.00616437
0.00608425
0.00600357
0.00592234
0.00584059
0.00575836
0.00567568
0.00559256
0.00550903
0.00542512
0.00534085
0.00525625
0.00517134
0.00508614
0.00500067
0.00491495
0.00482901
0.00474285
0.0046565
0.00456997
0.00448329
0.00439646
0.0043095
0.00422243
0.00413525
0.00404799
0.00396065
0.00387325
0.00378579
0.00369829
0.00361076
0.00352319
0.00343562
0.00334803
0.00326044
0.00317285
0.00308527
0.00299771
0.00291017
0.00282266
0.00273517
0.00264772
0.0025603
0.00247292
0.00238559
0.0022983
0.00221105
0.00212385
0.00203669
0.00194959
0.00186253
0.00177552
0.00168856
0.00160164
0.00151477
0.00142795
0.00134116
0.00125442
0.00116773
0.00108106
0.000994439
0.000907848
0.000821288
0.000734757
0.000648252
0.000561771
0.00047531
0.000388866
0.000302436
0.000216018
0.000129608
4.3202e-05
5.61601e-05
0.000168483
0.000280812
0.000393152
0.000505508
0.000617884
0.000730285
0.000842714
0.000955176
0.00106767
0.00118021
0.0012928
0.00140543
0.00151812
0.00163086
0.00174366
0.00185653
0.00196946
0.00208245
0.00219552
0.00230867
0.00242189
0.00253518
0.00264856
0.00276201
0.00287555
0.00298917
0.00310287
0.00321666
0.00333053
0.00344448
0.00355851
0.00367262
0.00378682
0.00390108
0.00401542
0.00412983
0.00424431
0.00435885
0.00447345
0.0045881
0.0047028
0.00481753
0.00493231
0.0050471
0.00516192
0.00527674
0.00539157
0.00550638
0.00562117
0.00573593
0.00585064
0.00596529
0.00607987
0.00619436
0.00630875
0.00642302
0.00653714
0.00665112
0.00676491
0.00687851
0.0069919
0.00710504
0.00721792
0.00733052
0.0074428
0.00755474
0.00766632
0.00777751
0.00788827
0.00799858
0.00810841
0.00821771
0.00832647
0.00843464
0.00854219
0.00864908
0.00875528
0.00886074
0.00896543
0.0090693
0.00917231
0.00927442
0.00937559
0.00947577
0.00957491
0.00967297
0.00976991
0.00986566
0.0099602
0.0100535
0.0101454
0.0102359
0.0103251
0.0104127
0.0104988
0.0105834
0.0106663
0.0107475
0.0108269
0.0109046
0.0109805
0.0110544
0.0111264
0.0111963
0.0112642
0.01133
0.0113937
0.0114551
0.0115143
0.0115712
0.0116258
0.0116779
0.0117276
0.0117748
0.0118195
0.0118616
0.0119012
0.011938
0.0119722
0.0120038
0.0120325
0.0120585
0.0120817
0.0121021
0.0121197
0.0121344
0.0121462
0.0121551
0.0121612
0.0121643
0.0121645
0.0121618
0.0121561
0.0121476
0.0121361
0.0121217
0.0121044
0.0120842
0.0120612
0.0120352
0.0120065
0.0119749
0.0119405
0.0119033
0.0118634
0.0118208
0.0117755
0.0117276
0.011677
0.0116239
0.0115682
0.0115101
0.0114495
0.0113865
0.0113211
0.0112535
0.0111836
0.0111114
0.0110372
0.0109608
0.0108823
0.0108018
0.0107194
0.0106351
0.0105489
0.010461
0.0103713
0.0102799
0.0101869
0.0100923
0.00999614
0.00989854
0.00979952
0.00969914
0.00959743
0.00949446
0.00939027
0.00928491
0.00917844
0.0090709
0.00896233
0.00885279
0.00874232
0.00863096
0.00851876
0.00840575
0.00829199
0.00817751
0.00806235
0.00794655
0.00783015
0.00771317
0.00759567
0.00747766
0.00735919
0.00724029
0.00712098
0.00700129
0.00688126
0.00676091
0.00664026
0.00651934
0.00639818
0.0062768
0.00615522
0.00603346
0.00591154
0.00578948
0.0056673
0.00554501
0.00542263
0.00530017
0.00517766
0.00505509
0.0049325
0.00480988
0.00468724
0.0045646
0.00444197
0.00431936
0.00419677
0.0040742
0.00395168
0.00382919
0.00370675
0.00358437
0.00346204
0.00333976
0.00321755
0.0030954
0.00297332
0.00285131
0.00272936
0.00260747
0.00248566
0.00236391
0.00224223
0.00212062
0.00199906
0.00187757
0.00175614
0.00163476
0.00151344
0.00139217
0.00127094
0.00114976
0.00102862
0.000907521
0.000786451
0.000665409
0.000544392
0.000423395
0.000302414
0.000181444
6.04805e-05
7.2202e-05
0.000216609
0.000361024
0.000505454
0.000649905
0.000794381
0.000938888
0.00108343
0.00122802
0.00137265
0.00151734
0.00166209
0.0018069
0.00195177
0.00209672
0.00224174
0.00238685
0.00253204
0.00267732
0.00282269
0.00296816
0.00311372
0.00325938
0.00340515
0.00355102
0.00369699
0.00384307
0.00398926
0.00413556
0.00428196
0.00442847
0.00457509
0.00472181
0.00486863
0.00501555
0.00516256
0.00530967
0.00545686
0.00560414
0.00575148
0.0058989
0.00604638
0.00619391
0.00634149
0.0064891
0.00663673
0.00678438
0.00693203
0.00707967
0.00722727
0.00737484
0.00752235
0.00766979
0.00781713
0.00796436
0.00811145
0.0082584
0.00840517
0.00855174
0.00869808
0.00884417
0.00898999
0.0091355
0.00928068
0.00942548
0.00956989
0.00971387
0.00985737
0.0100004
0.0101428
0.0102847
0.010426
0.0105666
0.0107065
0.0108456
0.0109839
0.0111214
0.011258
0.0113937
0.0115284
0.011662
0.0117945
0.0119259
0.012056
0.0121849
0.0123125
0.0124386
0.0125633
0.0126865
0.0128081
0.0129281
0.0130464
0.0131629
0.0132776
0.0133904
0.0135012
0.01361
0.0137167
0.0138212
0.0139234
0.0140234
0.014121
0.0142161
0.0143087
0.0143988
0.0144862
0.0145709
0.0146528
0.0147319
0.0148081
0.0148813
0.0149515
0.0150186
0.0150826
0.0151434
0.0152009
0.0152551
0.015306
0.0153535
0.0153975
0.0154381
0.0154751
0.0155086
0.0155385
0.0155647
0.0155873
0.0156063
0.0156215
0.015633
0.0156408
0.0156448
0.0156451
0.0156416
0.0156343
0.0156233
0.0156085
0.01559
0.0155678
0.0155418
0.0155121
0.0154787
0.0154417
0.015401
0.0153568
0.015309
0.0152576
0.0152028
0.0151445
0.0150828
0.0150177
0.0149493
0.0148777
0.0148029
0.0147249
0.0146438
0.0145597
0.0144727
0.0143827
0.0142899
0.0141943
0.0140959
0.013995
0.0138914
0.0137854
0.0136769
0.013566
0.0134528
0.0133374
0.0132198
0.0131001
0.0129784
0.0128547
0.0127291
0.0126017
0.0124726
0.0123417
0.0122092
0.0120752
0.0119397
0.0118027
0.0116643
0.0115247
0.0113838
0.0112416
0.0110984
0.0109541
0.0108087
0.0106624
0.0105151
0.010367
0.010218
0.0100683
0.00991785
0.00976672
0.00961494
0.00946257
0.00930964
0.00915619
0.00900226
0.00884788
0.0086931
0.00853794
0.00838244
0.00822662
0.00807052
0.00791417
0.00775758
0.00760079
0.00744383
0.00728671
0.00712945
0.00697208
0.00681461
0.00665707
0.00649947
0.00634182
0.00618415
0.00602646
0.00586877
0.00571109
0.00555342
0.00539579
0.0052382
0.00508066
0.00492317
0.00476574
0.00460838
0.00445109
0.00429388
0.00413675
0.0039797
0.00382273
0.00366585
0.00350906
0.00335235
0.00319574
0.0030392
0.00288276
0.0027264
0.00257012
0.00241392
0.0022578
0.00210174
0.00194576
0.00178985
0.00163399
0.0014782
0.00132245
0.00116676
0.0010111
0.000855484
0.000699898
0.000544338
0.000388799
0.000233273
7.77568e-05
8.82409e-05
0.000264726
0.000441223
0.000617736
0.000794275
0.000970845
0.00114745
0.00132411
0.00150081
0.00167758
0.00185441
0.00203131
0.00220829
0.00238535
0.0025625
0.00273974
0.00291709
0.00309454
0.00327209
0.00344976
0.00362755
0.00380545
0.00398348
0.00416163
0.00433992
0.00451833
0.00469687
0.00487555
0.00505435
0.00523329
0.00541236
0.00559157
0.00577089
0.00595035
0.00612992
0.00630961
0.00648942
0.00666933
0.00684934
0.00702945
0.00720964
0.00738991
0.00757025
0.00775064
0.00793107
0.00811154
0.00829202
0.00847251
0.00865298
0.00883342
0.00901381
0.00919414
0.00937437
0.00955449
0.00973448
0.00991431
0.010094
0.0102734
0.0104526
0.0106315
0.0108101
0.0109884
0.0111663
0.0113438
0.0115208
0.0116974
0.0118735
0.0120489
0.0122238
0.012398
0.0125715
0.0127442
0.0129161
0.0130872
0.0132574
0.0134265
0.0135947
0.0137618
0.0139277
0.0140924
0.0142558
0.0144179
0.0145785
0.0147377
0.0148954
0.0150514
0.0152057
0.0153582
0.015509
0.0156577
0.0158045
0.0159492
0.0160918
0.0162321
0.01637
0.0165056
0.0166387
0.0167692
0.0168971
0.0170222
0.0171445
0.0172639
0.0173804
0.0174937
0.0176039
0.0177109
0.0178145
0.0179148
0.0180116
0.0181048
0.0181944
0.0182803
0.0183625
0.0184408
0.0185152
0.0185856
0.018652
0.0187142
0.0187724
0.0188263
0.0188759
0.0189213
0.0189623
0.0189989
0.019031
0.0190587
0.0190819
0.0191005
0.0191146
0.0191241
0.0191291
0.0191294
0.0191252
0.0191163
0.0191028
0.0190847
0.0190621
0.0190349
0.0190031
0.0189667
0.0189259
0.0188806
0.0188308
0.0187767
0.0187181
0.0186553
0.0185882
0.0185168
0.0184413
0.0183617
0.018278
0.0181904
0.0180988
0.0180034
0.0179042
0.0178013
0.0176947
0.0175846
0.017471
0.0173541
0.0172338
0.0171102
0.0169835
0.0168538
0.016721
0.0165854
0.0164469
0.0163057
0.0161618
0.0160154
0.0158665
0.0157152
0.0155616
0.0154057
0.0152477
0.0150876
0.0149256
0.0147616
0.0145958
0.0144283
0.0142591
0.0140883
0.0139159
0.0137421
0.0135669
0.0133904
0.0132126
0.0130337
0.0128536
0.0126724
0.0124903
0.0123072
0.0121232
0.0119384
0.0117528
0.0115665
0.0113795
0.0111919
0.0110037
0.0108149
0.0106257
0.010436
0.0102458
0.0100553
0.00986449
0.00967334
0.00948191
0.00929023
0.00909833
0.00890625
0.00871401
0.00852163
0.00832913
0.00813654
0.00794389
0.00775118
0.00755844
0.00736568
0.00717292
0.00698018
0.00678746
0.00659478
0.00640215
0.00620958
0.00601708
0.00582466
0.00563232
0.00544007
0.00524791
0.00505586
0.0048639
0.00467205
0.00448031
0.00428867
0.00409714
0.00390572
0.00371441
0.0035232
0.0033321
0.0031411
0.00295019
0.00275938
0.00256866
0.00237802
0.00218747
0.00199699
0.00180658
0.00161624
0.00142595
0.00123572
0.00104553
0.000855379
0.000665261
0.000475169
0.000285094
9.50302e-05
0.000104276
0.000312833
0.000521403
0.000729993
0.000938613
0.00114727
0.00135597
0.00156473
0.00177355
0.00198244
0.00219141
0.00240046
0.0026096
0.00281884
0.00302819
0.00323765
0.00344722
0.00365692
0.00386675
0.00407671
0.00428682
0.00449706
0.00470745
0.00491799
0.00512868
0.00533953
0.00555054
0.0057617
0.00597301
0.00618449
0.00639612
0.00660791
0.00681985
0.00703194
0.00724417
0.00745655
0.00766906
0.0078817
0.00809446
0.00830733
0.00852031
0.00873337
0.00894652
0.00915974
0.00937301
0.00958632
0.00979965
0.010013
0.0102263
0.0104396
0.0106528
0.010866
0.0110791
0.011292
0.0115048
0.0117174
0.0119297
0.0121418
0.0123537
0.0125652
0.0127764
0.0129872
0.0131975
0.0134074
0.0136167
0.0138255
0.0140336
0.0142411
0.0144479
0.0146538
0.014859
0.0150633
0.0152666
0.0154689
0.0156701
0.0158702
0.016069
0.0162666
0.0164628
0.0166576
0.0168509
0.0170426
0.0172327
0.017421
0.0176074
0.017792
0.0179746
0.018155
0.0183333
0.0185093
0.018683
0.0188542
0.0190228
0.0191888
0.0193521
0.0195125
0.01967
0.0198245
0.0199758
0.0201238
0.0202686
0.0204099
0.0205477
0.0206818
0.0208123
0.0209389
0.0210615
0.0211802
0.0212948
0.0214051
0.0215112
0.0216129
0.0217102
0.0218029
0.0218909
0.0219743
0.0220529
0.0221266
0.0221955
0.0222593
0.0223181
0.0223718
0.0224203
0.0224637
0.0225017
0.0225345
0.022562
0.0225841
0.0226008
0.0226121
0.0226179
0.0226184
0.0226133
0.0226028
0.0225869
0.0225655
0.0225387
0.0225065
0.0224689
0.0224259
0.0223775
0.0223239
0.022265
0.0222009
0.0221316
0.0220572
0.0219778
0.0218933
0.021804
0.0217097
0.0216107
0.021507
0.0213986
0.0212856
0.0211682
0.0210464
0.0209203
0.02079
0.0206556
0.0205172
0.0203748
0.0202286
0.0200787
0.0199251
0.0197681
0.0196075
0.0194437
0.0192766
0.0191064
0.0189331
0.018757
0.0185779
0.0183962
0.0182118
0.0180249
0.0178356
0.0176439
0.0174499
0.0172538
0.0170556
0.0168554
0.0166534
0.0164495
0.016244
0.0160367
0.015828
0.0156177
0.0154061
0.0151931
0.0149789
0.0147635
0.014547
0.0143294
0.0141109
0.0138914
0.0136711
0.01345
0.0132282
0.0130056
0.0127824
0.0125587
0.0123344
0.0121096
0.0118844
0.0116588
0.0114328
0.0112065
0.0109799
0.010753
0.010526
0.0102987
0.0100713
0.00984374
0.00961609
0.00938836
0.00916057
0.00893274
0.0087049
0.00847706
0.00824924
0.00802146
0.00779372
0.00756604
0.00733844
0.00711092
0.0068835
0.00665617
0.00642895
0.00620185
0.00597486
0.005748
0.00552127
0.00529466
0.00506818
0.00484183
0.00461561
0.00438951
0.00416354
0.0039377
0.00371198
0.00348637
0.00326087
0.00303549
0.0028102
0.00258501
0.00235991
0.0021349
0.00190996
0.00168509
0.00146029
0.00123553
0.00101083
0.000786159
0.000561521
0.000336904
0.0001123
0.000120307
0.000360927
0.000601562
0.000842221
0.00108291
0.00132365
0.00156444
0.00180529
0.00204622
0.00228722
0.00252832
0.00276951
0.00301081
0.00325222
0.00349376
0.00373543
0.00397723
0.00421918
0.00446127
0.00470353
0.00494594
0.00518852
0.00543127
0.00567419
0.0059173
0.00616058
0.00640404
0.00664769
0.00689152
0.00713553
0.00737973
0.0076241
0.00786866
0.00811339
0.00835829
0.00860335
0.00884857
0.00909394
0.00933946
0.00958511
0.00983087
0.0100768
0.0103227
0.0105688
0.0108149
0.0110611
0.0113073
0.0115535
0.0117997
0.0120459
0.012292
0.012538
0.0127839
0.0130296
0.0132752
0.0135206
0.0137657
0.0140106
0.0142551
0.0144993
0.014743
0.0149864
0.0152292
0.0154714
0.0157131
0.0159541
0.0161944
0.016434
0.0166727
0.0169105
0.0171474
0.0173832
0.017618
0.0178516
0.0180839
0.018315
0.0185446
0.0187728
0.0189994
0.0192244
0.0194476
0.0196691
0.0198886
0.020106
0.0203214
0.0205346
0.0207455
0.020954
0.0211599
0.0213633
0.0215639
0.0217617
0.0219565
0.0221483
0.022337
0.0225224
0.0227043
0.0228828
0.0230577
0.0232288
0.0233961
0.0235594
0.0237186
0.0238737
0.0240244
0.0241708
0.0243126
0.0244497
0.0245822
0.0247098
0.0248324
0.02495
0.0250624
0.0251696
0.0252714
0.0253678
0.0254587
0.025544
0.0256235
0.0256974
0.0257654
0.0258275
0.0258836
0.0259337
0.0259778
0.0260157
0.0260475
0.026073
0.0260924
0.0261054
0.0261122
0.0261127
0.0261069
0.0260948
0.0260764
0.0260517
0.0260208
0.0259835
0.02594
0.0258903
0.0258345
0.0257725
0.0257044
0.0256303
0.0255502
0.0254643
0.0253724
0.0252748
0.0251715
0.0250626
0.0249481
0.0248282
0.0247029
0.0245724
0.0244367
0.0242959
0.0241502
0.0239996
0.0238442
0.0236842
0.0235197
0.0233508
0.0231775
0.0230001
0.0228185
0.022633
0.0224437
0.0222507
0.022054
0.0218538
0.0216503
0.0214435
0.0212335
0.0210205
0.0208046
0.0205858
0.0203644
0.0201403
0.0199138
0.0196849
0.0194537
0.0192203
0.0189849
0.0187474
0.0185081
0.018267
0.0180242
0.0177798
0.0175339
0.0172865
0.0170378
0.0167878
0.0165366
0.0162843
0.0160309
0.0157765
0.0155212
0.0152651
0.0150082
0.0147506
0.0144923
0.0142333
0.0139739
0.0137139
0.0134534
0.0131926
0.0129313
0.0126698
0.0124079
0.0121459
0.0118836
0.0116211
0.0113585
0.0110957
0.0108329
0.01057
0.0103071
0.0100441
0.00978118
0.00951827
0.0092554
0.00899259
0.00872986
0.00846721
0.00820467
0.00794223
0.00767991
0.00741772
0.00715567
0.00689375
0.00663198
0.00637035
0.00610888
0.00584755
0.00558638
0.00532536
0.00506449
0.00480376
0.00454318
0.00428274
0.00402243
0.00376226
0.00350221
0.00324228
0.00298247
0.00272275
0.00246314
0.00220362
0.00194417
0.0016848
0.00142549
0.00116624
0.000907027
0.000647852
0.000388701
0.000129565
0.000136334
0.000409007
0.000681696
0.000954414
0.00122717
0.00149998
0.00177284
0.00204578
0.0023188
0.00259192
0.00286513
0.00313846
0.00341191
0.00368548
0.0039592
0.00423307
0.00450709
0.00478128
0.00505564
0.00533018
0.0056049
0.00587981
0.00615492
0.00643022
0.00670573
0.00698144
0.00725736
0.00753349
0.00780983
0.00808639
0.00836315
0.00864011
0.00891729
0.00919466
0.00947223
0.00974999
0.0100279
0.010306
0.0105843
0.0108628
0.0111413
0.01142
0.0116989
0.0119778
0.0122568
0.0125358
0.0128149
0.013094
0.0133731
0.0136522
0.0139312
0.0142101
0.0144888
0.0147675
0.0150459
0.0153241
0.015602
0.0158796
0.0161569
0.0164338
0.0167102
0.016986
0.0172614
0.0175361
0.0178102
0.0180835
0.018356
0.0186277
0.0188984
0.0191682
0.0194368
0.0197043
0.0199706
0.0202356
0.0204991
0.0207612
0.0210217
0.0212806
0.0215377
0.0217929
0.0220462
0.0222974
0.0225464
0.0227932
0.0230376
0.0232795
0.0235188
0.0237554
0.0239892
0.0242199
0.0244476
0.0246721
0.0248933
0.025111
0.0253252
0.0255356
0.0257422
0.0259448
0.0261433
0.0263376
0.0265275
0.0267129
0.0268937
0.0270698
0.027241
0.0274072
0.0275682
0.027724
0.0278744
0.0280193
0.0281586
0.0282922
0.0284199
0.0285416
0.0286573
0.0287668
0.0288701
0.028967
0.0290574
0.0291413
0.0292185
0.0292891
0.0293529
0.0294098
0.0294599
0.029503
0.0295391
0.0295682
0.0295902
0.0296051
0.0296128
0.0296134
0.0296069
0.0295932
0.0295723
0.0295442
0.0295091
0.0294668
0.0294174
0.029361
0.0292976
0.0292272
0.0291499
0.0290657
0.0289748
0.0288771
0.0287728
0.028662
0.0285446
0.0284209
0.028291
0.0281548
0.0280125
0.0278643
0.0277102
0.0275503
0.0273849
0.0272139
0.0270375
0.0268558
0.026669
0.0264772
0.0262805
0.026079
0.025873
0.0256624
0.0254475
0.0252283
0.0250051
0.0247779
0.0245468
0.0243121
0.0240738
0.0238321
0.023587
0.0233388
0.0230875
0.0228332
0.0225762
0.0223164
0.0220541
0.0217893
0.0215222
0.0212528
0.0209813
0.0207078
0.0204324
0.0201551
0.0198761
0.0195955
0.0193134
0.0190298
0.0187449
0.0184587
0.0181713
0.0178828
0.0175933
0.0173029
0.0170115
0.0167193
0.0164264
0.0161328
0.0158386
0.0155438
0.0152485
0.0149527
0.0146565
0.01436
0.0140631
0.013766
0.0134686
0.013171
0.0128733
0.0125754
0.0122775
0.0119795
0.0116814
0.0113833
0.0110853
0.0107873
0.0104893
0.0101914
0.00989359
0.00959589
0.0092983
0.00900085
0.00870353
0.00840636
0.00810935
0.00781249
0.00751581
0.00721929
0.00692295
0.00662678
0.00633079
0.00603496
0.00573931
0.00544383
0.00514852
0.00485337
0.00455837
0.00426352
0.00396882
0.00367425
0.00337981
0.0030855
0.00279129
0.00249719
0.00220318
0.00190925
0.0016154
0.0013216
0.00102786
0.000734158
0.000440483
0.000146826
0.000152354
0.000457069
0.000761803
0.00106657
0.00137138
0.00167624
0.00198118
0.00228619
0.0025913
0.0028965
0.00320183
0.00350728
0.00381287
0.0041186
0.0044245
0.00473056
0.00503679
0.00534322
0.00564983
0.00595664
0.00626367
0.0065709
0.00687836
0.00718604
0.00749395
0.00780209
0.00811047
0.00841909
0.00872794
0.00903703
0.00934636
0.00965592
0.00996572
0.0102757
0.010586
0.0108964
0.0112071
0.011518
0.011829
0.0121403
0.0124517
0.0127632
0.0130749
0.0133867
0.0136985
0.0140105
0.0143225
0.0146345
0.0149465
0.0152585
0.0155704
0.0158823
0.016194
0.0165055
0.0168168
0.0171279
0.0174386
0.0177491
0.0180591
0.0183687
0.0186778
0.0189863
0.0192942
0.0196015
0.019908
0.0202137
0.0205185
0.0208223
0.0211251
0.0214269
0.0217274
0.0220266
0.0223245
0.0226209
0.0229158
0.023209
0.0235005
0.0237901
0.0240778
0.0243633
0.0246468
0.0249279
0.0252066
0.0254828
0.0257563
0.0260271
0.0262949
0.0265597
0.0268213
0.0270797
0.0273346
0.0275859
0.0278335
0.0280773
0.028317
0.0285526
0.0287839
0.0290108
0.0292331
0.0294507
0.0296634
0.0298711
0.0300736
0.0302708
0.0304626
0.0306487
0.0308291
0.0310037
0.0311722
0.0313345
0.0314906
0.0316402
0.0317833
0.0319198
0.0320494
0.0321721
0.0322878
0.0323964
0.0324978
0.0325918
0.0326784
0.0327575
0.032829
0.0328929
0.032949
0.0329973
0.0330378
0.0330705
0.0330951
0.0331118
0.0331206
0.0331213
0.033114
0.0330986
0.0330752
0.0330439
0.0330045
0.0329571
0.0329018
0.0328386
0.0327676
0.0326887
0.0326021
0.0325079
0.032406
0.0322966
0.0321798
0.0320556
0.0319242
0.0317856
0.03164
0.0314874
0.0313281
0.0311621
0.0309895
0.0308104
0.0306251
0.0304335
0.030236
0.0300325
0.0298233
0.0296085
0.0293883
0.0291627
0.0289319
0.0286961
0.0284555
0.0282101
0.0279602
0.0277058
0.0274471
0.0271843
0.0269176
0.026647
0.0263726
0.0260948
0.0258135
0.025529
0.0252413
0.0249506
0.024657
0.0243607
0.0240617
0.0237603
0.0234565
0.0231505
0.0228423
0.0225321
0.02222
0.021906
0.0215904
0.0212732
0.0209545
0.0206343
0.0203129
0.0199902
0.0196664
0.0193415
0.0190156
0.0186889
0.0183613
0.0180329
0.0177039
0.0173742
0.017044
0.0167133
0.0163821
0.0160505
0.0157185
0.0153863
0.0150538
0.0147211
0.0143882
0.0140552
0.0137221
0.013389
0.0130558
0.0127225
0.0123893
0.0120562
0.0117231
0.0113901
0.0110572
0.0107244
0.0103918
0.0100593
0.009727
0.00939484
0.00906286
0.00873107
0.00839947
0.00806806
0.00773685
0.00740583
0.00707502
0.0067444
0.00641397
0.00608374
0.0057537
0.00542384
0.00509415
0.00476464
0.00443529
0.00410609
0.00377704
0.00344813
0.00311934
0.00279067
0.0024621
0.00213363
0.00180524
0.00147692
0.00114865
0.000820436
0.000492249
0.000164081
0.000168369
0.000505113
0.000841878
0.00117868
0.00151553
0.00185244
0.00218943
0.0025265
0.00286368
0.00320098
0.0035384
0.00387597
0.00421368
0.00455157
0.00488962
0.00522787
0.00556631
0.00590495
0.00624382
0.0065829
0.00692222
0.00726178
0.00760158
0.00794163
0.00828194
0.00862251
0.00896334
0.00930444
0.0096458
0.00998744
0.0103293
0.0106715
0.0110139
0.0113566
0.0116995
0.0120427
0.0123861
0.0127297
0.0130736
0.0134176
0.0137618
0.0141062
0.0144508
0.0147955
0.0151402
0.0154851
0.0158301
0.016175
0.01652
0.0168649
0.0172098
0.0175546
0.0178992
0.0182437
0.0185879
0.0189319
0.0192756
0.0196189
0.0199617
0.0203041
0.0206459
0.0209872
0.0213277
0.0216675
0.0220066
0.0223447
0.0226819
0.023018
0.023353
0.0236867
0.0240192
0.0243503
0.0246799
0.0250078
0.0253341
0.0256585
0.0259811
0.0263016
0.0266199
0.026936
0.0272496
0.0275608
0.0278693
0.028175
0.0284778
0.0287775
0.029074
0.0293672
0.0296568
0.0299429
0.0302251
0.0305034
0.0307776
0.0310475
0.031313
0.031574
0.0318302
0.0320815
0.0323277
0.0325687
0.0328044
0.0330344
0.0332588
0.0334773
0.0336898
0.033896
0.0340959
0.0342893
0.0344761
0.034656
0.034829
0.0349948
0.0351534
0.0353047
0.0354484
0.0355844
0.0357127
0.0358331
0.0359455
0.0360497
0.0361457
0.0362335
0.0363128
0.0363836
0.0364459
0.0364995
0.0365444
0.0365806
0.036608
0.0366266
0.0366363
0.0366371
0.0366291
0.0366121
0.0365862
0.0365515
0.0365079
0.0364554
0.0363942
0.0363241
0.0362454
0.0361581
0.0360621
0.0359576
0.0358448
0.0357235
0.0355941
0.0354565
0.0353108
0.0351573
0.0349959
0.0348269
0.0346504
0.0344664
0.0342752
0.0340768
0.0338714
0.0336592
0.0334404
0.033215
0.0329833
0.0327453
0.0325013
0.0322514
0.0319959
0.0317347
0.0314682
0.0311964
0.0309196
0.0306379
0.0303515
0.0300605
0.0297652
0.0294655
0.0291618
0.0288542
0.0285428
0.0282278
0.0279094
0.0275876
0.0272626
0.0269347
0.0266038
0.0262702
0.025934
0.0255953
0.0252543
0.024911
0.0245656
0.0242183
0.023869
0.0235181
0.0231654
0.0228113
0.0224556
0.0220987
0.0217405
0.0213811
0.0210207
0.0206592
0.0202969
0.0199337
0.0195698
0.0192052
0.01884
0.0184743