/*--------------------------------*- C++ -*----------------------------------*\
| =========                 |                                                 |
| \\      /  F ield         | OpenFOAM: The Open Source CFD Toolbox           |
|  \\    /   O peration     | Version:  v2012                                 |
|   \\  /    A nd           | Website:  www.openfoam.com                      |
|    \\/     M anipulation  |                                                 |
\*---------------------------------------------------------------------------*/
FoamFile
{
    version     2.0;
    format      ascii;
    class       volScalarField;
    location    "19.3";
    object      W;
}
// * * * * * * * * * * * * * * * * * * * * * * * * * * * * * * * * * * * * * //

dimensions      [0 0 -1 0 0 0 0];


internalField   nonuniform List<scalar> 
65536
(
1.52369e-14
4.58475e-14
7.68725e-14
1.08597e-13
1.41313e-13
1.75321e-13
2.10932e-13
2.48471e-13
2.88279e-13
3.30714e-13
3.76159e-13
4.25019e-13
4.77727e-13
5.3475e-13
5.96586e-13
6.63775e-13
7.36896e-13
8.16576e-13
9.03495e-13
9.98385e-13
1.10204e-12
1.21532e-12
1.33916e-12
1.47457e-12
1.62264e-12
1.78455e-12
1.96158e-12
2.15512e-12
2.36667e-12
2.59784e-12
2.85039e-12
3.12619e-12
3.42729e-12
3.75588e-12
4.11431e-12
4.50512e-12
4.93104e-12
5.395e-12
5.90013e-12
6.44979e-12
7.04759e-12
7.69737e-12
8.40321e-12
9.1695e-12
1.00009e-11
1.09023e-11
1.1879e-11
1.29366e-11
1.40809e-11
1.53181e-11
1.66548e-11
1.80978e-11
1.96545e-11
2.13323e-11
2.31392e-11
2.50834e-11
2.71735e-11
2.94185e-11
3.18276e-11
3.44103e-11
3.71763e-11
4.01357e-11
4.32989e-11
4.6676e-11
5.02779e-11
5.41149e-11
5.81979e-11
6.25374e-11
6.71439e-11
7.20278e-11
7.71991e-11
8.26674e-11
8.8442e-11
9.45315e-11
1.00944e-10
1.07686e-10
1.14765e-10
1.22185e-10
1.2995e-10
1.38063e-10
1.46525e-10
1.55335e-10
1.64492e-10
1.73989e-10
1.83822e-10
1.93982e-10
2.04456e-10
2.15233e-10
2.26296e-10
2.37627e-10
2.49202e-10
2.61e-10
2.72991e-10
2.85146e-10
2.97433e-10
3.09814e-10
3.22253e-10
3.34706e-10
3.47132e-10
3.59483e-10
3.71711e-10
3.83767e-10
3.95598e-10
4.07151e-10
4.18374e-10
4.2921e-10
4.39606e-10
4.49506e-10
4.58858e-10
4.67609e-10
4.75707e-10
4.83105e-10
4.89757e-10
4.95619e-10
5.00652e-10
5.04822e-10
5.08098e-10
5.10453e-10
5.11867e-10
5.12325e-10
5.11818e-10
5.10341e-10
5.07898e-10
5.04497e-10
5.00153e-10
4.94886e-10
4.88723e-10
4.81695e-10
4.7384e-10
4.65201e-10
4.55825e-10
4.45761e-10
4.35066e-10
4.23797e-10
4.12014e-10
3.99779e-10
3.87155e-10
3.74207e-10
3.60999e-10
3.47595e-10
3.34057e-10
3.20446e-10
3.06822e-10
2.9324e-10
2.79755e-10
2.66416e-10
2.53269e-10
2.40359e-10
2.27722e-10
2.15394e-10
2.03405e-10
1.91781e-10
1.80544e-10
1.69712e-10
1.59299e-10
1.49314e-10
1.39764e-10
1.30653e-10
1.2198e-10
1.13742e-10
1.05935e-10
9.855e-11
9.15782e-11
8.50081e-11
7.8827e-11
7.3021e-11
6.75755e-11
6.2475e-11
5.77036e-11
5.32453e-11
4.90839e-11
4.52033e-11
4.15876e-11
3.82215e-11
3.50899e-11
3.21783e-11
2.94729e-11
2.69605e-11
2.46285e-11
2.24652e-11
2.04596e-11
1.86012e-11
1.68805e-11
1.52885e-11
1.3817e-11
1.24582e-11
1.12051e-11
1.00512e-11
8.99042e-12
8.01714e-12
7.12616e-12
6.3126e-12
5.5719e-12
4.89973e-12
4.29198e-12
3.74471e-12
3.25414e-12
2.81658e-12
2.42846e-12
2.08627e-12
1.78658e-12
1.52604e-12
1.30135e-12
1.10926e-12
9.46623e-13
8.10369e-13
6.97518e-13
6.05202e-13
5.30675e-13
4.71332e-13
4.24719e-13
3.88551e-13
3.60728e-13
3.39342e-13
3.22695e-13
3.09304e-13
2.97905e-13
2.87459e-13
2.77145e-13
2.66356e-13
2.54682e-13
2.41897e-13
2.27935e-13
2.12866e-13
1.96866e-13
1.80192e-13
1.63147e-13
1.4606e-13
1.29254e-13
1.13033e-13
9.7659e-14
8.3345e-14
7.02478e-14
5.84663e-14
4.80439e-14
3.89741e-14
3.12079e-14
2.46637e-14
1.92358e-14
1.48038e-14
1.1241e-14
8.42103e-15
6.22315e-15
4.53626e-15
3.26128e-15
2.31226e-15
1.61658e-15
1.11431e-15
7.57122e-16
5.06844e-16
3.33927e-16
2.15894e-16
1.35891e-16
8.13771e-17
4.29596e-17
1.33816e-17
5.15911e-14
1.55239e-13
2.60298e-13
3.6774e-13
4.78559e-13
5.93779e-13
7.14458e-13
8.41703e-13
9.76676e-13
1.1206e-12
1.27478e-12
1.4406e-12
1.61953e-12
1.81318e-12
2.02323e-12
2.25155e-12
2.5001e-12
2.77103e-12
3.06667e-12
3.38952e-12
3.7423e-12
4.12797e-12
4.54971e-12
5.01098e-12
5.51552e-12
6.0674e-12
6.67101e-12
7.3311e-12
8.05281e-12
8.8417e-12
9.70377e-12
1.06455e-11
1.16739e-11
1.27965e-11
1.40214e-11
1.53573e-11
1.68136e-11
1.84004e-11
2.01285e-11
2.20094e-11
2.40556e-11
2.62802e-11
2.86974e-11
3.13223e-11
3.41708e-11
3.726e-11
4.06079e-11
4.42338e-11
4.81579e-11
5.24015e-11
5.69872e-11
6.19388e-11
6.72811e-11
7.30402e-11
7.92434e-11
8.59191e-11
9.30969e-11
1.00807e-10
1.09083e-10
1.17955e-10
1.27458e-10
1.37626e-10
1.48495e-10
1.601e-10
1.72477e-10
1.85663e-10
1.99694e-10
2.14606e-10
2.30435e-10
2.47216e-10
2.64983e-10
2.83768e-10
3.03603e-10
3.24516e-10
3.46534e-10
3.6968e-10
3.93974e-10
4.19433e-10
4.46068e-10
4.73886e-10
5.0289e-10
5.33075e-10
5.64431e-10
5.96941e-10
6.30579e-10
6.65314e-10
7.01105e-10
7.37902e-10
7.75647e-10
8.14273e-10
8.53701e-10
8.93845e-10
9.34608e-10
9.75883e-10
1.01755e-09
1.05949e-09
1.10156e-09
1.14363e-09
1.18552e-09
1.22709e-09
1.26817e-09
1.30858e-09
1.34815e-09
1.38668e-09
1.424e-09
1.45993e-09
1.49426e-09
1.52682e-09
1.55743e-09
1.58591e-09
1.61209e-09
1.63581e-09
1.65692e-09
1.67527e-09
1.69075e-09
1.70323e-09
1.71262e-09
1.71885e-09
1.72185e-09
1.72159e-09
1.71803e-09
1.71119e-09
1.70107e-09
1.68773e-09
1.67122e-09
1.65162e-09
1.62905e-09
1.6036e-09
1.57544e-09
1.5447e-09
1.51156e-09
1.4762e-09
1.43881e-09
1.3996e-09
1.35876e-09
1.31653e-09
1.27312e-09
1.22874e-09
1.18362e-09
1.13797e-09
1.092e-09
1.04592e-09
9.99915e-10
9.54178e-10
9.08884e-10
8.64195e-10
8.20261e-10
7.77221e-10
7.35195e-10
6.94293e-10
6.54608e-10
6.1622e-10
5.79194e-10
5.43581e-10
5.0942e-10
4.76737e-10
4.45546e-10
4.1585e-10
3.87643e-10
3.60908e-10
3.35622e-10
3.11753e-10
2.89265e-10
2.68116e-10
2.48258e-10
2.29643e-10
2.12217e-10
1.95926e-10
1.80716e-10
1.66531e-10
1.53315e-10
1.41013e-10
1.29572e-10
1.1894e-10
1.09065e-10
9.99006e-11
9.13993e-11
8.35174e-11
7.62136e-11
6.94489e-11
6.31867e-11
5.73932e-11
5.20367e-11
4.70879e-11
4.25198e-11
3.83074e-11
3.44276e-11
3.08592e-11
2.75827e-11
2.45798e-11
2.18338e-11
1.9329e-11
1.70507e-11
1.49852e-11
1.31192e-11
1.14403e-11
9.93646e-12
8.59613e-12
7.40804e-12
6.36124e-12
5.445e-12
4.64887e-12
3.96261e-12
3.37621e-12
2.87993e-12
2.4643e-12
2.12016e-12
1.83872e-12
1.61155e-12
1.43069e-12
1.28864e-12
1.17842e-12
1.09362e-12
1.02844e-12
9.77695e-13
9.36882e-13
9.02158e-13
8.70361e-13
8.38998e-13
8.06223e-13
7.70792e-13
7.32018e-13
6.89698e-13
6.44043e-13
5.95585e-13
5.45095e-13
4.93497e-13
4.41779e-13
3.90922e-13
3.41839e-13
2.95326e-13
2.52024e-13
2.12408e-13
1.76775e-13
1.45254e-13
1.17827e-13
9.43436e-14
7.45565e-14
5.81456e-14
4.47468e-14
3.39763e-14
2.54518e-14
1.88082e-14
1.37095e-14
9.85588e-15
6.98764e-15
4.88514e-15
3.36724e-15
2.28782e-15
1.53151e-15
1.00899e-15
6.52329e-16
4.10592e-16
2.45875e-16
1.29799e-16
4.0432e-17
1.07402e-13
3.23184e-13
5.41937e-13
7.657e-13
9.96564e-13
1.23668e-12
1.48828e-12
1.75369e-12
2.03535e-12
2.33585e-12
2.65793e-12
3.00451e-12
3.37872e-12
3.78392e-12
4.22371e-12
4.70198e-12
5.22294e-12
5.79113e-12
6.41147e-12
7.08927e-12
7.83032e-12
8.64087e-12
9.5277e-12
1.04982e-11
1.15602e-11
1.27225e-11
1.39944e-11
1.5386e-11
1.69083e-11
1.85731e-11
2.03933e-11
2.23827e-11
2.45562e-11
2.69299e-11
2.95211e-11
3.23486e-11
3.54324e-11
3.8794e-11
4.24566e-11
4.6445e-11
5.07857e-11
5.55071e-11
6.06393e-11
6.62149e-11
7.2268e-11
7.88353e-11
8.59555e-11
9.36697e-11
1.02021e-10
1.11057e-10
1.20824e-10
1.31373e-10
1.42759e-10
1.55037e-10
1.68265e-10
1.82505e-10
1.9782e-10
2.14276e-10
2.3194e-10
2.50883e-10
2.71176e-10
2.92893e-10
3.16108e-10
3.40899e-10
3.67341e-10
3.95511e-10
4.25487e-10
4.57346e-10
4.91161e-10
5.27006e-10
5.64953e-10
6.05068e-10
6.47416e-10
6.92055e-10
7.39039e-10
7.88412e-10
8.40215e-10
8.94477e-10
9.51218e-10
1.01045e-09
1.07216e-09
1.13635e-09
1.20297e-09
1.27199e-09
1.34334e-09
1.41695e-09
1.49271e-09
1.57051e-09
1.65022e-09
1.73167e-09
1.8147e-09
1.8991e-09
1.98465e-09
2.07112e-09
2.15823e-09
2.24572e-09
2.33327e-09
2.42058e-09
2.5073e-09
2.59308e-09
2.67755e-09
2.76034e-09
2.84107e-09
2.91934e-09
2.99475e-09
3.06691e-09
3.13542e-09
3.19991e-09
3.25999e-09
3.3153e-09
3.36549e-09
3.41023e-09
3.44924e-09
3.48222e-09
3.50895e-09
3.52921e-09
3.54283e-09
3.54968e-09
3.54966e-09
3.54274e-09
3.52889e-09
3.50816e-09
3.48064e-09
3.44646e-09
3.40578e-09
3.35881e-09
3.30582e-09
3.24709e-09
3.18295e-09
3.11376e-09
3.0399e-09
2.96178e-09
2.87984e-09
2.79451e-09
2.70626e-09
2.61555e-09
2.52284e-09
2.42859e-09
2.33327e-09
2.23732e-09
2.14117e-09
2.04523e-09
1.94991e-09
1.85556e-09
1.76254e-09
1.67116e-09
1.5817e-09
1.49443e-09
1.40957e-09
1.32732e-09
1.24783e-09
1.17125e-09
1.09768e-09
1.02719e-09
9.59838e-10
8.95649e-10
8.34625e-10
7.76747e-10
7.21977e-10
6.7026e-10
6.21529e-10
5.75699e-10
5.32678e-10
4.92365e-10
4.54652e-10
4.19424e-10
3.86564e-10
3.55955e-10
3.27475e-10
3.01005e-10
2.76429e-10
2.53631e-10
2.32499e-10
2.12926e-10
1.94807e-10
1.78045e-10
1.62545e-10
1.48219e-10
1.34985e-10
1.22764e-10
1.11484e-10
1.01078e-10
9.14832e-11
8.26429e-11
7.4504e-11
6.70177e-11
6.01395e-11
5.38282e-11
4.80461e-11
4.27585e-11
3.79331e-11
3.35403e-11
2.95522e-11
2.59429e-11
2.26879e-11
1.97639e-11
1.71488e-11
1.48212e-11
1.27608e-11
1.09477e-11
9.36249e-12
7.98658e-12
6.80171e-12
5.79016e-12
4.93476e-12
4.21887e-12
3.62648e-12
3.14226e-12
2.75158e-12
2.44061e-12
2.1964e-12
2.00691e-12
1.86112e-12
1.74902e-12
1.66176e-12
1.5916e-12
1.53195e-12
1.47741e-12
1.42372e-12
1.36773e-12
1.3073e-12
1.24127e-12
1.16928e-12
1.09168e-12
1.00937e-12
9.2366e-13
8.36102e-13
7.48373e-13
6.62132e-13
5.78922e-13
5.00087e-13
4.26712e-13
3.59595e-13
2.99237e-13
2.45855e-13
1.99411e-13
1.59652e-13
1.26156e-13
9.83785e-14
7.5702e-14
5.7476e-14
4.30522e-14
3.1812e-14
2.31864e-14
1.66678e-14
1.18164e-14
8.2605e-15
5.69348e-15
3.86814e-15
2.58928e-15
1.70579e-15
1.10278e-15
6.94089e-16
4.15631e-16
2.1941e-16
6.83456e-17
2.02094e-13
6.08151e-13
1.01987e-12
1.44113e-12
1.87592e-12
2.32834e-12
2.80263e-12
3.30324e-12
3.83485e-12
4.40237e-12
5.01106e-12
5.6665e-12
6.37469e-12
7.14206e-12
7.97552e-12
8.88255e-12
9.87121e-12
1.09503e-11
1.21291e-11
1.34181e-11
1.48283e-11
1.63717e-11
1.80615e-11
1.99119e-11
2.19383e-11
2.41573e-11
2.65871e-11
2.92473e-11
3.21591e-11
3.53456e-11
3.88315e-11
4.26439e-11
4.68115e-11
5.13659e-11
5.63406e-11
6.17721e-11
6.76994e-11
7.41645e-11
8.12125e-11
8.88917e-11
9.7254e-11
1.06355e-10
1.16253e-10
1.27011e-10
1.38697e-10
1.51383e-10
1.65143e-10
1.80058e-10
1.96214e-10
2.137e-10
2.32611e-10
2.53045e-10
2.75109e-10
2.9891e-10
3.24564e-10
3.5219e-10
3.81911e-10
4.13855e-10
4.48155e-10
4.84948e-10
5.24373e-10
5.66573e-10
6.11693e-10
6.59882e-10
7.11287e-10
7.66058e-10
8.24342e-10
8.86285e-10
9.52033e-10
1.02172e-09
1.09549e-09
1.17346e-09
1.25576e-09
1.34248e-09
1.43373e-09
1.52959e-09
1.63012e-09
1.73538e-09
1.84538e-09
1.96014e-09
2.07963e-09
2.20381e-09
2.33259e-09
2.46589e-09
2.60355e-09
2.74539e-09
2.89122e-09
3.04077e-09
3.19376e-09
3.34986e-09
3.5087e-09
3.66987e-09
3.8329e-09
3.99731e-09
4.16256e-09
4.32808e-09
4.49326e-09
4.65745e-09
4.81997e-09
4.98014e-09
5.13721e-09
5.29044e-09
5.43908e-09
5.58237e-09
5.71952e-09
5.84978e-09
5.97241e-09
6.08666e-09
6.19182e-09
6.28723e-09
6.37225e-09
6.4463e-09
6.50883e-09
6.55937e-09
6.59753e-09
6.62296e-09
6.6354e-09
6.63469e-09
6.62071e-09
6.59348e-09
6.55305e-09
6.49961e-09
6.4334e-09
6.35477e-09
6.26413e-09
6.16198e-09
6.0489e-09
5.92552e-09
5.79255e-09
5.65075e-09
5.50091e-09
5.34389e-09
5.18053e-09
5.01175e-09
4.83844e-09
4.6615e-09
4.48184e-09
4.30034e-09
4.11786e-09
3.93523e-09
3.75326e-09
3.57269e-09
3.39423e-09
3.21855e-09
3.04623e-09
2.87782e-09
2.7138e-09
2.55459e-09
2.40055e-09
2.25198e-09
2.10912e-09
1.97215e-09
1.84121e-09
1.71637e-09
1.59767e-09
1.48508e-09
1.37856e-09
1.27802e-09
1.18333e-09
1.09435e-09
1.0109e-09
9.32791e-10
8.59818e-10
7.9176e-10
7.28389e-10
6.69471e-10
6.14771e-10
5.64052e-10
5.17079e-10
4.73622e-10
4.33458e-10
3.96367e-10
3.62142e-10
3.30581e-10
3.01495e-10
2.74703e-10
2.50035e-10
2.27332e-10
2.06446e-10
1.87238e-10
1.6958e-10
1.53354e-10
1.38452e-10
1.24771e-10
1.12222e-10
1.0072e-10
9.01887e-11
8.05569e-11
7.17607e-11
6.37412e-11
5.64442e-11
4.98198e-11
4.38218e-11
3.84072e-11
3.35359e-11
2.91699e-11
2.52735e-11
2.18127e-11
1.87549e-11
1.60688e-11
1.37244e-11
1.16926e-11
9.94533e-12
8.45562e-12
7.19732e-12
6.14533e-12
5.27561e-12
4.5652e-12
3.99236e-12
3.53659e-12
3.17873e-12
2.90106e-12
2.68739e-12
2.52307e-12
2.39515e-12
2.29232e-12
2.20502e-12
2.12537e-12
2.04719e-12
1.96588e-12
1.87836e-12
1.78291e-12
1.67902e-12
1.56718e-12
1.44866e-12
1.32534e-12
1.19944e-12
1.07336e-12
9.49482e-13
8.30003e-13
7.16846e-13
6.1156e-13
5.15281e-13
4.28721e-13
3.52185e-13
2.85612e-13
2.28633e-13
1.80639e-13
1.40847e-13
1.08367e-13
8.22668e-14
6.16144e-14
4.55229e-14
3.31761e-14
2.38467e-14
1.69042e-14
1.18161e-14
8.14349e-15
5.53223e-15
3.70292e-15
2.43928e-15
1.57687e-15
9.92432e-16
5.94257e-16
3.13697e-16
9.77145e-17
3.66257e-13
1.1022e-12
1.84855e-12
2.61244e-12
3.40117e-12
4.22229e-12
5.08361e-12
5.9933e-12
6.95997e-12
7.9927e-12
9.10117e-12
1.02957e-11
1.15873e-11
1.2988e-11
1.45105e-11
1.61686e-11
1.79774e-11
1.9953e-11
2.21131e-11
2.44766e-11
2.70643e-11
2.98986e-11
3.30039e-11
3.64068e-11
4.01359e-11
4.42225e-11
4.87004e-11
5.36064e-11
5.89801e-11
6.48646e-11
7.13066e-11
7.83565e-11
8.60687e-11
9.4502e-11
1.0372e-10
1.13791e-10
1.24788e-10
1.36791e-10
1.49884e-10
1.64159e-10
1.79713e-10
1.9665e-10
2.15083e-10
2.35131e-10
2.5692e-10
2.80585e-10
3.06269e-10
3.34125e-10
3.64314e-10
3.97005e-10
4.32378e-10
4.7062e-10
5.11929e-10
5.56513e-10
6.04588e-10
6.56379e-10
7.1212e-10
7.72053e-10
8.36429e-10
9.05504e-10
9.79544e-10
1.05882e-09
1.1436e-09
1.23416e-09
1.33078e-09
1.43375e-09
1.54333e-09
1.6598e-09
1.78342e-09
1.91446e-09
2.05316e-09
2.19974e-09
2.35443e-09
2.51742e-09
2.68887e-09
2.86891e-09
3.05767e-09
3.25521e-09
3.46156e-09
3.6767e-09
3.90057e-09
4.13305e-09
4.37397e-09
4.6231e-09
4.88013e-09
5.14469e-09
5.41634e-09
5.69457e-09
5.97879e-09
6.26832e-09
6.56242e-09
6.86027e-09
7.16096e-09
7.4635e-09
7.76684e-09
8.06985e-09
8.37134e-09
8.67005e-09
8.96467e-09
9.25386e-09
9.5362e-09
9.81029e-09
1.00747e-08
1.03279e-08
1.05686e-08
1.07953e-08
1.10066e-08
1.12011e-08
1.13777e-08
1.1535e-08
1.1672e-08
1.17876e-08
1.1881e-08
1.19514e-08
1.19981e-08
1.20206e-08
1.20187e-08
1.1992e-08
1.19406e-08
1.18647e-08
1.17645e-08
1.16405e-08
1.14934e-08
1.1324e-08
1.11332e-08
1.09222e-08
1.0692e-08
1.04442e-08
1.01801e-08
9.9012e-09
9.60916e-09
9.30562e-09
8.99226e-09
8.6708e-09
8.34295e-09
8.01042e-09
7.67486e-09
7.3379e-09
7.00111e-09
6.66599e-09
6.33393e-09
6.00625e-09
5.68417e-09
5.3688e-09
5.06112e-09
4.76201e-09
4.47224e-09
4.19244e-09
3.92315e-09
3.66477e-09
3.41763e-09
3.18192e-09
2.95775e-09
2.74515e-09
2.54405e-09
2.35431e-09
2.17573e-09
2.00806e-09
1.85098e-09
1.70414e-09
1.56716e-09
1.43962e-09
1.32109e-09
1.21113e-09
1.10928e-09
1.01509e-09
9.28105e-10
8.47872e-10
7.73958e-10
7.05935e-10
6.43394e-10
5.85941e-10
5.33202e-10
4.84819e-10
4.40459e-10
3.99805e-10
3.62564e-10
3.28461e-10
2.9724e-10
2.68669e-10
2.42528e-10
2.18621e-10
1.96764e-10
1.76791e-10
1.58549e-10
1.41901e-10
1.26721e-10
1.12894e-10
1.00316e-10
8.88907e-11
7.85326e-11
6.91618e-11
6.07051e-11
5.30951e-11
4.62691e-11
4.01687e-11
3.47391e-11
2.99287e-11
2.56887e-11
2.19725e-11
1.87358e-11
1.59362e-11
1.3533e-11
1.14874e-11
9.76208e-12
8.32156e-12
7.13196e-12
6.1612e-12
5.379e-12
4.75698e-12
4.26872e-12
3.8899e-12
3.59833e-12
3.37407e-12
3.19945e-12
3.05917e-12
2.94026e-12
2.83206e-12
2.72624e-12
2.61658e-12
2.49894e-12
2.37098e-12
2.23199e-12
2.08259e-12
1.92448e-12
1.76012e-12
1.59246e-12
1.42469e-12
1.25993e-12
1.10111e-12
9.50767e-13
8.10938e-13
6.83121e-13
5.68246e-13
4.66706e-13
3.78411e-13
3.02862e-13
2.39243e-13
1.86508e-13
1.43476e-13
1.08902e-13
8.15506e-14
6.02437e-14
4.38983e-14
3.15496e-14
2.23617e-14
1.56292e-14
1.07702e-14
7.3159e-15
4.89632e-15
3.22514e-15
2.08472e-15
1.31196e-15
7.85542e-16
4.14655e-16
1.2916e-16
6.49256e-13
1.95394e-12
3.27733e-12
4.63226e-12
6.03187e-12
7.48971e-12
9.01985e-12
1.0637e-11
1.23567e-11
1.41954e-11
1.61704e-11
1.83005e-11
2.06056e-11
2.31074e-11
2.58289e-11
2.87954e-11
3.2034e-11
3.55741e-11
3.94477e-11
4.36896e-11
4.83374e-11
5.34321e-11
5.90182e-11
6.51441e-11
7.18624e-11
7.92302e-11
8.73093e-11
9.61672e-11
1.05877e-10
1.16517e-10
1.28173e-10
1.40939e-10
1.54914e-10
1.70206e-10
1.86932e-10
2.05218e-10
2.252e-10
2.47024e-10
2.70847e-10
2.96837e-10
3.25174e-10
3.56052e-10
3.89678e-10
4.26271e-10
4.66068e-10
5.09318e-10
5.56287e-10
6.07257e-10
6.62527e-10
7.22411e-10
7.87242e-10
8.57371e-10
9.33163e-10
1.015e-09
1.10329e-09
1.19845e-09
1.30092e-09
1.41113e-09
1.52956e-09
1.65669e-09
1.79299e-09
1.93898e-09
2.09516e-09
2.26203e-09
2.44012e-09
2.62993e-09
2.83197e-09
3.04674e-09
3.27473e-09
3.5164e-09
3.7722e-09
4.04254e-09
4.3278e-09
4.62832e-09
4.9444e-09
5.27625e-09
5.62406e-09
5.98792e-09
6.36784e-09
6.76377e-09
7.17554e-09
7.60288e-09
8.04542e-09
8.50266e-09
8.97399e-09
9.45866e-09
9.95577e-09
1.04643e-08
1.09831e-08
1.15108e-08
1.2046e-08
1.2587e-08
1.31322e-08
1.36795e-08
1.4227e-08
1.47724e-08
1.53136e-08
1.58481e-08
1.63735e-08
1.68871e-08
1.73863e-08
1.78686e-08
1.83312e-08
1.87714e-08
1.91866e-08
1.95742e-08
1.99317e-08
2.02567e-08
2.05469e-08
2.08003e-08
2.10148e-08
2.11887e-08
2.13207e-08
2.14093e-08
2.14538e-08
2.14533e-08
2.14075e-08
2.13163e-08
2.11801e-08
2.09992e-08
2.07746e-08
2.05075e-08
2.01994e-08
1.98519e-08
1.94672e-08
1.90475e-08
1.85952e-08
1.81131e-08
1.7604e-08
1.70709e-08
1.65169e-08
1.59452e-08
1.53589e-08
1.47612e-08
1.41553e-08
1.35444e-08
1.29314e-08
1.23192e-08
1.17107e-08
1.11083e-08
1.05147e-08
9.93192e-09
9.36207e-09
8.80696e-09
8.26818e-09
7.74709e-09
7.24486e-09
6.7624e-09
6.30043e-09
5.85949e-09
5.43989e-09
5.04178e-09
4.66513e-09
4.30978e-09
3.97542e-09
3.66163e-09
3.36786e-09
3.09349e-09
2.83784e-09
2.60014e-09
2.3796e-09
2.17538e-09
1.98662e-09
1.81247e-09
1.65205e-09
1.50451e-09
1.36901e-09
1.24472e-09
1.13086e-09
1.02665e-09
9.31382e-10
8.44348e-10
7.64898e-10
6.92418e-10
6.2633e-10
5.66098e-10
5.11225e-10
4.61248e-10
4.15743e-10
3.74321e-10
3.36624e-10
3.02326e-10
2.7113e-10
2.42766e-10
2.16989e-10
1.93576e-10
1.72327e-10
1.5306e-10
1.35611e-10
1.19829e-10
1.0558e-10
9.27396e-11
8.1196e-11
7.08458e-11
6.1594e-11
5.3353e-11
4.60413e-11
3.95825e-11
3.39055e-11
2.89429e-11
2.46313e-11
2.09103e-11
1.77231e-11
1.50153e-11
1.27355e-11
1.0835e-11
9.26767e-12
7.99011e-12
6.96163e-12
6.14426e-12
5.50291e-12
5.00534e-12
4.62233e-12
4.32766e-12
4.09822e-12
3.914e-12
3.75813e-12
3.61678e-12
3.47909e-12
3.33704e-12
3.18523e-12
3.02061e-12
2.84225e-12
2.65089e-12
2.44868e-12
2.23873e-12
2.02479e-12
1.81087e-12
1.60095e-12
1.39873e-12
1.2074e-12
1.02954e-12
8.67034e-13
7.21046e-13
5.92056e-13
4.79932e-13
3.84027e-13
3.03291e-13
2.36389e-13
1.81811e-13
1.37973e-13
1.03301e-13
7.6298e-14
5.55874e-14
3.99441e-14
2.83073e-14
1.97819e-14
1.363e-14
9.25735e-15
6.19495e-15
4.08009e-15
2.6371e-15
1.65944e-15
9.93526e-16
5.24415e-16
1.63345e-16
1.13045e-12
3.40227e-12
5.70715e-12
8.06774e-12
1.05073e-11
1.30497e-11
1.57199e-11
1.8544e-11
2.15494e-11
2.47652e-11
2.82224e-11
3.19541e-11
3.5996e-11
4.03862e-11
4.51662e-11
5.03808e-11
5.60784e-11
6.23116e-11
6.91377e-11
7.66187e-11
8.48221e-11
9.38215e-11
1.03697e-10
1.14534e-10
1.26429e-10
1.39484e-10
1.53811e-10
1.69529e-10
1.86772e-10
2.05682e-10
2.26414e-10
2.49134e-10
2.74024e-10
3.01281e-10
3.31115e-10
3.63755e-10
3.99447e-10
4.38456e-10
4.81068e-10
5.27587e-10
5.78343e-10
6.33687e-10
6.93996e-10
7.5967e-10
8.3114e-10
9.08861e-10
9.93318e-10
1.08503e-09
1.18453e-09
1.2924e-09
1.40926e-09
1.53573e-09
1.6725e-09
1.82025e-09
1.97974e-09
2.15171e-09
2.33698e-09
2.53635e-09
2.75069e-09
2.98085e-09
3.22773e-09
3.49225e-09
3.77533e-09
4.0779e-09
4.40089e-09
4.74523e-09
5.11185e-09
5.50164e-09
5.91549e-09
6.35424e-09
6.81867e-09
7.30954e-09
7.8275e-09
8.37315e-09
8.94698e-09
9.54938e-09
1.01806e-08
1.08408e-08
1.153e-08
1.22479e-08
1.29942e-08
1.37683e-08
1.45695e-08
1.53968e-08
1.62489e-08
1.71244e-08
1.80215e-08
1.89383e-08
1.98724e-08
2.08214e-08
2.17825e-08
2.27525e-08
2.37281e-08
2.47057e-08
2.56815e-08
2.66514e-08
2.76111e-08
2.85562e-08
2.94819e-08
3.03836e-08
3.12565e-08
3.20955e-08
3.28959e-08
3.36527e-08
3.43612e-08
3.50168e-08
3.56148e-08
3.61511e-08
3.66217e-08
3.70229e-08
3.73515e-08
3.76046e-08
3.77798e-08
3.78752e-08
3.78894e-08
3.78216e-08
3.76714e-08
3.74392e-08
3.71259e-08
3.6733e-08
3.62625e-08
3.5717e-08
3.50997e-08
3.44142e-08
3.36646e-08
3.28555e-08
3.19918e-08
3.10786e-08
3.01215e-08
2.91261e-08
2.80983e-08
2.70439e-08
2.59688e-08
2.4879e-08
2.37801e-08
2.26776e-08
2.15771e-08
2.04836e-08
1.94019e-08
1.83365e-08
1.72914e-08
1.62705e-08
1.5277e-08
1.43139e-08
1.33836e-08
1.24881e-08
1.16293e-08
1.08083e-08
1.0026e-08
9.28304e-09
8.57952e-09
7.91536e-09
7.29018e-09
6.70334e-09
6.15399e-09
5.64108e-09
5.1634e-09
4.71961e-09
4.30828e-09
3.92787e-09
3.5768e-09
3.25347e-09
2.95625e-09
2.68353e-09
2.4337e-09
2.20521e-09
1.99652e-09
1.80619e-09
1.6328e-09
1.47502e-09
1.33157e-09
1.20128e-09
1.08303e-09
9.75756e-10
8.78506e-10
7.90379e-10
7.10548e-10
6.38252e-10
5.72797e-10
5.13548e-10
4.59925e-10
4.11405e-10
3.67511e-10
3.27815e-10
2.91927e-10
2.595e-10
2.30216e-10
2.03794e-10
1.79978e-10
1.58537e-10
1.39265e-10
1.21973e-10
1.06492e-10
9.26662e-11
8.0355e-11
6.94286e-11
5.97677e-11
5.1262e-11
4.38089e-11
3.73129e-11
3.16843e-11
2.68394e-11
2.26992e-11
1.91894e-11
1.62403e-11
1.37861e-11
1.17652e-11
1.01201e-11
8.79709e-12
7.74644e-12
6.92239e-12
6.28318e-12
5.79108e-12
5.4124e-12
5.11755e-12
4.88101e-12
4.68127e-12
4.50079e-12
4.3258e-12
4.14614e-12
3.95496e-12
3.74841e-12
3.52522e-12
3.2863e-12
3.03425e-12
2.77293e-12
2.50694e-12
2.24123e-12
1.9807e-12
1.7299e-12
1.49277e-12
1.27247e-12
1.07129e-12
8.90643e-13
7.31104e-13
5.92483e-13
4.73961e-13
3.74223e-13
2.91603e-13
2.24224e-13
1.70121e-13
1.27344e-13
9.40365e-14
6.84976e-14
4.92121e-14
3.48692e-14
2.43634e-14
1.67842e-14
1.13979e-14
7.62639e-15
5.02222e-15
3.24566e-15
2.04219e-15
1.22258e-15
6.45278e-16
2.00985e-16
1.93566e-12
5.82596e-12
9.77372e-12
1.38183e-11
1.80001e-11
2.23608e-11
2.69437e-11
3.17942e-11
3.69602e-11
4.24923e-11
4.84447e-11
5.48753e-11
6.18463e-11
6.94249e-11
7.76834e-11
8.67006e-11
9.65614e-11
1.07358e-10
1.19192e-10
1.32172e-10
1.46417e-10
1.62057e-10
1.79232e-10
1.98097e-10
2.18819e-10
2.41578e-10
2.66574e-10
2.9402e-10
3.24151e-10
3.5722e-10
3.93501e-10
4.33293e-10
4.76917e-10
5.24725e-10
5.77091e-10
6.34425e-10
6.97166e-10
7.65787e-10
8.40797e-10
9.22745e-10
1.01222e-09
1.10985e-09
1.21631e-09
1.33232e-09
1.45865e-09
1.59613e-09
1.74561e-09
1.90804e-09
2.08438e-09
2.27568e-09
2.48303e-09
2.70758e-09
2.95054e-09
3.21318e-09
3.49682e-09
3.80285e-09
4.13269e-09
4.48784e-09
4.86981e-09
5.28019e-09
5.72058e-09
6.19263e-09
6.69799e-09
7.23835e-09
7.81539e-09
8.43077e-09
9.08616e-09
9.78317e-09
1.05234e-08
1.13082e-08
1.21392e-08
1.30176e-08
1.39445e-08
1.49211e-08
1.5948e-08
1.70261e-08
1.81557e-08
1.93369e-08
2.05697e-08
2.18536e-08
2.31879e-08
2.45714e-08
2.60026e-08
2.74796e-08
2.90001e-08
3.05611e-08
3.21595e-08
3.37914e-08
3.54526e-08
3.71383e-08
3.88433e-08
4.05618e-08
4.22875e-08
4.40138e-08
4.57335e-08
4.74392e-08
4.91228e-08
5.07762e-08
5.2391e-08
5.39584e-08
5.54695e-08
5.69157e-08
5.82879e-08
5.95775e-08
6.07759e-08
6.18748e-08
6.28663e-08
6.3743e-08
6.44981e-08
6.51252e-08
6.56189e-08
6.59745e-08
6.61882e-08
6.6257e-08
6.61791e-08
6.59537e-08
6.55809e-08
6.50619e-08
6.43992e-08
6.35962e-08
6.26572e-08
6.15878e-08
6.03943e-08
5.9084e-08
5.76649e-08
5.61458e-08
5.4536e-08
5.28455e-08
5.10845e-08
4.92636e-08
4.73934e-08
4.54848e-08
4.35484e-08
4.15947e-08
3.9634e-08
3.7676e-08
3.57303e-08
3.38055e-08
3.19101e-08
3.00513e-08
2.82363e-08
2.64709e-08
2.47606e-08
2.31099e-08
2.15226e-08
2.00018e-08
1.85496e-08
1.71678e-08
1.58573e-08
1.46184e-08
1.34508e-08
1.23538e-08
1.13261e-08
1.03661e-08
9.4719e-09
8.64113e-09
7.87131e-09
7.15972e-09
6.50354e-09
5.89983e-09
5.34561e-09
4.83786e-09
4.3736e-09
3.94989e-09
3.56385e-09
3.21271e-09
2.89378e-09
2.6045e-09
2.34245e-09
2.10533e-09
1.89098e-09
1.69739e-09
1.52268e-09
1.36511e-09
1.22308e-09
1.09511e-09
9.79858e-10
8.76081e-10
7.82659e-10
6.98576e-10
6.22908e-10
5.54824e-10
4.93574e-10
4.38484e-10
3.88949e-10
3.44427e-10
3.04431e-10
2.68527e-10
2.36324e-10
2.07474e-10
1.81663e-10
1.58609e-10
1.38059e-10
1.19785e-10
1.03577e-10
8.9249e-11
7.66269e-11
6.55531e-11
5.5882e-11
4.74793e-11
4.02203e-11
3.39891e-11
2.86779e-11
2.41861e-11
2.04199e-11
1.72918e-11
1.47204e-11
1.26301e-11
1.09509e-11
9.61856e-12
8.57412e-12
7.76413e-12
7.1405e-12
6.66054e-12
6.28686e-12
5.98733e-12
5.73499e-12
5.50785e-12
5.28873e-12
5.06493e-12
4.82791e-12
4.57282e-12
4.29802e-12
4.00457e-12
3.69559e-12
3.37572e-12
3.05054e-12
2.72606e-12
2.4082e-12
2.10245e-12
1.81357e-12
1.54537e-12
1.30059e-12
1.08092e-12
8.8701e-13
7.18607e-13
5.74684e-13
4.5362e-13
3.53374e-13
2.71651e-13
2.06053e-13
1.54203e-13
1.13845e-13
8.2908e-14
5.95529e-14
4.21879e-14
2.94716e-14
2.02997e-14
1.37831e-14
9.22087e-15
6.07139e-15
3.92319e-15
2.46822e-15
1.47749e-15
7.7977e-16
2.42867e-16
3.26092e-12
9.81523e-12
1.64678e-11
2.32861e-11
3.03391e-11
3.76982e-11
4.54375e-11
5.36348e-11
6.23722e-11
7.1737e-11
8.18219e-11
9.27266e-11
1.04558e-10
1.17433e-10
1.31475e-10
1.4682e-10
1.63616e-10
1.82023e-10
2.02214e-10
2.2438e-10
2.48726e-10
2.75478e-10
3.04882e-10
3.37203e-10
3.72734e-10
4.11792e-10
4.5472e-10
5.01895e-10
5.53723e-10
6.1065e-10
6.73154e-10
7.41759e-10
8.17031e-10
8.99581e-10
9.90072e-10
1.08922e-09
1.1978e-09
1.31664e-09
1.44665e-09
1.58878e-09
1.74408e-09
1.91365e-09
2.09869e-09
2.30048e-09
2.52037e-09
2.75981e-09
3.02035e-09
3.30364e-09
3.6114e-09
3.94548e-09
4.30782e-09
4.70047e-09
5.12557e-09
5.58538e-09
6.08226e-09
6.61865e-09
7.19712e-09
7.82029e-09
8.49089e-09
9.21173e-09
9.98567e-09
1.08156e-08
1.17046e-08
1.26555e-08
1.36714e-08
1.47551e-08
1.59098e-08
1.71382e-08
1.84431e-08
1.98271e-08
2.12928e-08
2.28423e-08
2.44779e-08
2.62012e-08
2.80137e-08
2.99164e-08
3.19101e-08
3.39949e-08
3.61705e-08
3.84359e-08
4.07898e-08
4.32299e-08
4.57534e-08
4.83566e-08
5.1035e-08
5.37836e-08
5.6596e-08
5.94655e-08
6.2384e-08
6.53429e-08
6.83324e-08
7.1342e-08
7.43602e-08
7.7375e-08
8.03732e-08
8.33412e-08
8.62647e-08
8.91287e-08
9.1918e-08
9.4617e-08
9.72098e-08
9.96807e-08
1.02014e-07
1.04194e-07
1.06205e-07
1.08033e-07
1.09665e-07
1.11088e-07
1.12289e-07
1.13258e-07
1.13986e-07
1.14466e-07
1.14691e-07
1.14658e-07
1.14363e-07
1.13807e-07
1.1299e-07
1.11916e-07
1.10591e-07
1.09022e-07
1.07217e-07
1.05188e-07
1.02947e-07
1.00508e-07
9.78867e-08
9.50989e-08
9.21625e-08
8.90956e-08
8.59172e-08
8.26464e-08
7.93027e-08
7.59052e-08
7.24731e-08
6.90249e-08
6.55784e-08
6.21509e-08
5.87585e-08
5.54162e-08
5.21378e-08
4.8936e-08
4.58219e-08
4.28053e-08
3.98948e-08
3.70972e-08
3.44182e-08
3.18621e-08
2.94319e-08
2.71292e-08
2.49548e-08
2.29082e-08
2.0988e-08
1.9192e-08
1.75172e-08
1.596e-08
1.45162e-08
1.31812e-08
1.19501e-08
1.08176e-08
9.77848e-09
8.8272e-09
7.9583e-09
7.16632e-09
6.44592e-09
5.79187e-09
5.19912e-09
4.66281e-09
4.17833e-09
3.74129e-09
3.34754e-09
2.99322e-09
2.67471e-09
2.38865e-09
2.13195e-09
1.90175e-09
1.69542e-09
1.51059e-09
1.34506e-09
1.19687e-09
1.06423e-09
9.45532e-10
8.39317e-10
7.44285e-10
6.59271e-10
5.83229e-10
5.15229e-10
4.54438e-10
4.00117e-10
3.51606e-10
3.08316e-10
2.69725e-10
2.35365e-10
2.0482e-10
1.77715e-10
1.53716e-10
1.32521e-10
1.13859e-10
9.74824e-11
8.31674e-11
7.07092e-11
5.99207e-11
5.06296e-11
4.26773e-11
3.59175e-11
3.0215e-11
2.54445e-11
2.14903e-11
1.82458e-11
1.56123e-11
1.34995e-11
1.18245e-11
1.05124e-11
9.49501e-12
8.71174e-12
8.10887e-12
7.63957e-12
7.26377e-12
6.94793e-12
6.6648e-12
6.39309e-12
6.11711e-12
5.82627e-12
5.51456e-12
5.17988e-12
4.82339e-12
4.4488e-12
4.06165e-12
3.66862e-12
3.27687e-12
2.89351e-12
2.52507e-12
2.17724e-12
1.85452e-12
1.56018e-12
1.2962e-12
1.06329e-12
8.61132e-13
6.8844e-13
5.43243e-13
4.23064e-13
3.2513e-13
2.4655e-13
1.84461e-13
1.3615e-13
9.91281e-14
7.11877e-14
5.04193e-14
3.52148e-14
2.42509e-14
1.64629e-14
1.10119e-14
7.24954e-15
4.68384e-15
2.94641e-15
1.76357e-15
9.30681e-16
2.89859e-16
5.40613e-12
1.62731e-11
2.73056e-11
3.86171e-11
5.03238e-11
6.25461e-11
7.54088e-11
8.90435e-11
1.03589e-10
1.19191e-10
1.36009e-10
1.54211e-10
1.73978e-10
1.95506e-10
2.19009e-10
2.44716e-10
2.72879e-10
3.03769e-10
3.37685e-10
3.74948e-10
4.15914e-10
4.60965e-10
5.10523e-10
5.65044e-10
6.25028e-10
6.91019e-10
7.63609e-10
8.43443e-10
9.31223e-10
1.02771e-09
1.13374e-09
1.25021e-09
1.3781e-09
1.51846e-09
1.67244e-09
1.84128e-09
2.02632e-09
2.22901e-09
2.4509e-09
2.69367e-09
2.95912e-09
3.24919e-09
3.56595e-09
3.91162e-09
4.28857e-09
4.69934e-09
5.14662e-09
5.63327e-09
6.16234e-09
6.73704e-09
7.36076e-09
8.03711e-09
8.76983e-09
9.56287e-09
1.04204e-08
1.13467e-08
1.23462e-08
1.34236e-08
1.45836e-08
1.58313e-08
1.71716e-08
1.86096e-08
2.01506e-08
2.17998e-08
2.35625e-08
2.54439e-08
2.74491e-08
2.95832e-08
3.1851e-08
3.42572e-08
3.68061e-08
3.95018e-08
4.23477e-08
4.53469e-08
4.85019e-08
5.18145e-08
5.52858e-08
5.8916e-08
6.27043e-08
6.6649e-08
7.07474e-08
7.49953e-08
7.93875e-08
8.39173e-08
8.85766e-08
9.3356e-08
9.82443e-08
1.03229e-07
1.08295e-07
1.13428e-07
1.1861e-07
1.23821e-07
1.29041e-07
1.34249e-07
1.39421e-07
1.44532e-07
1.49558e-07
1.5447e-07
1.59243e-07
1.63849e-07
1.68259e-07
1.72446e-07
1.76381e-07
1.80039e-07
1.83391e-07
1.86414e-07
1.89083e-07
1.91376e-07
1.93274e-07
1.94759e-07
1.95815e-07
1.96431e-07
1.96597e-07
1.96307e-07
1.95558e-07
1.94352e-07
1.92691e-07
1.90585e-07
1.88044e-07
1.85083e-07
1.81719e-07
1.77973e-07
1.73869e-07
1.69433e-07
1.64693e-07
1.5968e-07
1.54425e-07
1.48962e-07
1.43324e-07
1.37546e-07
1.31663e-07
1.25708e-07
1.19714e-07
1.13715e-07
1.0774e-07
1.0182e-07
9.59816e-08
9.02501e-08
8.46486e-08
7.91978e-08
7.39158e-08
6.88183e-08
6.39182e-08
5.92263e-08
5.47504e-08
5.04965e-08