/*--------------------------------*- C++ -*----------------------------------*\
| =========                 |                                                 |
| \\      /  F ield         | OpenFOAM: The Open Source CFD Toolbox           |
|  \\    /   O peration     | Version:  v2012                                 |
|   \\  /    A nd           | Website:  www.openfoam.com                      |
|    \\/     M anipulation  |                                                 |
\*---------------------------------------------------------------------------*/
FoamFile
{
    version     2.0;
    format      ascii;
    class       volVectorField;
    location    "6.9";
    object      Psi;
}
// * * * * * * * * * * * * * * * * * * * * * * * * * * * * * * * * * * * * * //

dimensions      [0 2 -1 0 0 0 0];


internalField   nonuniform List<vector> 
65536
(
(0 0 9.23526e-06)
(0 0 2.77056e-05)
(0 0 4.61753e-05)
(0 0 6.46441e-05)
(0 0 8.31115e-05)
(0 0 0.000101577)
(0 0 0.000120041)
(0 0 0.000138502)
(0 0 0.00015696)
(0 0 0.000175414)
(0 0 0.000193864)
(0 0 0.00021231)
(0 0 0.00023075)
(0 0 0.000249185)
(0 0 0.000267613)
(0 0 0.000286033)
(0 0 0.000304446)
(0 0 0.000322849)
(0 0 0.000341243)
(0 0 0.000359625)
(0 0 0.000377996)
(0 0 0.000396354)
(0 0 0.000414698)
(0 0 0.000433026)
(0 0 0.000451337)
(0 0 0.00046963)
(0 0 0.000487904)
(0 0 0.000506156)
(0 0 0.000524385)
(0 0 0.000542589)
(0 0 0.000560766)
(0 0 0.000578915)
(0 0 0.000597033)
(0 0 0.000615118)
(0 0 0.000633167)
(0 0 0.000651179)
(0 0 0.000669151)
(0 0 0.000687079)
(0 0 0.000704963)
(0 0 0.000722797)
(0 0 0.00074058)
(0 0 0.000758309)
(0 0 0.00077598)
(0 0 0.00079359)
(0 0 0.000811135)
(0 0 0.000828612)
(0 0 0.000846018)
(0 0 0.000863348)
(0 0 0.000880598)
(0 0 0.000897765)
(0 0 0.000914845)
(0 0 0.000931832)
(0 0 0.000948723)
(0 0 0.000965514)
(0 0 0.0009822)
(0 0 0.000998775)
(0 0 0.00101524)
(0 0 0.00103158)
(0 0 0.00104779)
(0 0 0.00106388)
(0 0 0.00107983)
(0 0 0.00109565)
(0 0 0.00111131)
(0 0 0.00112683)
(0 0 0.00114219)
(0 0 0.00115739)
(0 0 0.00117243)
(0 0 0.00118729)
(0 0 0.00120197)
(0 0 0.00121647)
(0 0 0.00123078)
(0 0 0.00124489)
(0 0 0.00125881)
(0 0 0.00127252)
(0 0 0.00128601)
(0 0 0.00129929)
(0 0 0.00131235)
(0 0 0.00132518)
(0 0 0.00133777)
(0 0 0.00135013)
(0 0 0.00136224)
(0 0 0.0013741)
(0 0 0.0013857)
(0 0 0.00139705)
(0 0 0.00140812)
(0 0 0.00141893)
(0 0 0.00142946)
(0 0 0.00143972)
(0 0 0.00144968)
(0 0 0.00145936)
(0 0 0.00146875)
(0 0 0.00147784)
(0 0 0.00148662)
(0 0 0.0014951)
(0 0 0.00150327)
(0 0 0.00151113)
(0 0 0.00151868)
(0 0 0.0015259)
(0 0 0.0015328)
(0 0 0.00153938)
(0 0 0.00154564)
(0 0 0.00155156)
(0 0 0.00155715)
(0 0 0.00156241)
(0 0 0.00156733)
(0 0 0.00157192)
(0 0 0.00157617)
(0 0 0.00158009)
(0 0 0.00158366)
(0 0 0.0015869)
(0 0 0.00158979)
(0 0 0.00159235)
(0 0 0.00159456)
(0 0 0.00159644)
(0 0 0.00159798)
(0 0 0.00159918)
(0 0 0.00160005)
(0 0 0.00160058)
(0 0 0.00160077)
(0 0 0.00160064)
(0 0 0.00160017)
(0 0 0.00159937)
(0 0 0.00159825)
(0 0 0.00159681)
(0 0 0.00159504)
(0 0 0.00159296)
(0 0 0.00159056)
(0 0 0.00158785)
(0 0 0.00158483)
(0 0 0.0015815)
(0 0 0.00157787)
(0 0 0.00157394)
(0 0 0.00156972)
(0 0 0.0015652)
(0 0 0.0015604)
(0 0 0.00155532)
(0 0 0.00154995)
(0 0 0.00154431)
(0 0 0.0015384)
(0 0 0.00153223)
(0 0 0.00152579)
(0 0 0.0015191)
(0 0 0.00151215)
(0 0 0.00150496)
(0 0 0.00149752)
(0 0 0.00148984)
(0 0 0.00148193)
(0 0 0.00147379)
(0 0 0.00146543)
(0 0 0.00145685)
(0 0 0.00144805)
(0 0 0.00143904)
(0 0 0.00142982)
(0 0 0.00142041)
(0 0 0.0014108)
(0 0 0.00140099)
(0 0 0.001391)
(0 0 0.00138083)
(0 0 0.00137048)
(0 0 0.00135996)
(0 0 0.00134927)
(0 0 0.00133841)
(0 0 0.0013274)
(0 0 0.00131623)
(0 0 0.00130491)
(0 0 0.00129344)
(0 0 0.00128184)
(0 0 0.00127009)
(0 0 0.00125821)
(0 0 0.00124619)
(0 0 0.00123406)
(0 0 0.0012218)
(0 0 0.00120942)
(0 0 0.00119692)
(0 0 0.00118432)
(0 0 0.00117161)
(0 0 0.00115879)
(0 0 0.00114588)
(0 0 0.00113287)
(0 0 0.00111976)
(0 0 0.00110656)
(0 0 0.00109328)
(0 0 0.00107991)
(0 0 0.00106646)
(0 0 0.00105294)
(0 0 0.00103934)
(0 0 0.00102566)
(0 0 0.00101192)
(0 0 0.000998109)
(0 0 0.000984235)
(0 0 0.000970299)
(0 0 0.000956304)
(0 0 0.000942252)
(0 0 0.000928146)
(0 0 0.000913987)
(0 0 0.000899779)
(0 0 0.000885523)
(0 0 0.000871221)
(0 0 0.000856876)
(0 0 0.000842489)
(0 0 0.000828062)
(0 0 0.000813597)
(0 0 0.000799096)
(0 0 0.00078456)
(0 0 0.000769991)
(0 0 0.000755392)
(0 0 0.000740762)
(0 0 0.000726104)
(0 0 0.00071142)
(0 0 0.000696709)
(0 0 0.000681975)
(0 0 0.000667218)
(0 0 0.00065244)
(0 0 0.000637641)
(0 0 0.000622822)
(0 0 0.000607986)
(0 0 0.000593132)
(0 0 0.000578262)
(0 0 0.000563377)
(0 0 0.000548478)
(0 0 0.000533565)
(0 0 0.00051864)
(0 0 0.000503703)
(0 0 0.000488754)
(0 0 0.000473796)
(0 0 0.000458827)
(0 0 0.00044385)
(0 0 0.000428865)
(0 0 0.000413871)
(0 0 0.00039887)
(0 0 0.000383863)
(0 0 0.000368849)
(0 0 0.00035383)
(0 0 0.000338805)
(0 0 0.000323775)
(0 0 0.000308741)
(0 0 0.000293703)
(0 0 0.000278661)
(0 0 0.000263615)
(0 0 0.000248566)
(0 0 0.000233514)
(0 0 0.00021846)
(0 0 0.000203403)
(0 0 0.000188344)
(0 0 0.000173283)
(0 0 0.00015822)
(0 0 0.000143156)
(0 0 0.00012809)
(0 0 0.000113024)
(0 0 9.79558e-05)
(0 0 8.28871e-05)
(0 0 6.78177e-05)
(0 0 5.27477e-05)
(0 0 3.76773e-05)
(0 0 2.26065e-05)
(0 0 7.53552e-06)
(0 0 2.77059e-05)
(0 0 8.31171e-05)
(0 0 0.000138527)
(0 0 0.000193933)
(0 0 0.000249336)
(0 0 0.000304734)
(0 0 0.000360125)
(0 0 0.000415508)
(0 0 0.000470882)
(0 0 0.000526246)
(0 0 0.000581597)
(0 0 0.000636934)
(0 0 0.000692256)
(0 0 0.00074756)
(0 0 0.000802844)
(0 0 0.000858107)
(0 0 0.000913345)
(0 0 0.000968556)
(0 0 0.00102374)
(0 0 0.00107889)
(0 0 0.001134)
(0 0 0.00118908)
(0 0 0.00124411)
(0 0 0.00129909)
(0 0 0.00135403)
(0 0 0.00140891)
(0 0 0.00146373)
(0 0 0.00151849)
(0 0 0.00157318)
(0 0 0.00162779)
(0 0 0.00168233)
(0 0 0.00173677)
(0 0 0.00179113)
(0 0 0.00184539)
(0 0 0.00189954)
(0 0 0.00195358)
(0 0 0.00200749)
(0 0 0.00206128)
(0 0 0.00211493)
(0 0 0.00216844)
(0 0 0.00222179)
(0 0 0.00227498)
(0 0 0.002328)
(0 0 0.00238083)
(0 0 0.00243347)
(0 0 0.00248591)
(0 0 0.00253813)
(0 0 0.00259012)
(0 0 0.00264188)
(0 0 0.00269338)
(0 0 0.00274462)
(0 0 0.00279559)
(0 0 0.00284627)
(0 0 0.00289664)
(0 0 0.00294671)
(0 0 0.00299644)
(0 0 0.00304582)
(0 0 0.00309485)
(0 0 0.00314351)
(0 0 0.00319177)
(0 0 0.00323964)
(0 0 0.00328708)
(0 0 0.00333409)
(0 0 0.00338065)
(0 0 0.00342673)
(0 0 0.00347234)
(0 0 0.00351745)
(0 0 0.00356203)
(0 0 0.00360609)
(0 0 0.00364959)
(0 0 0.00369253)
(0 0 0.00373488)
(0 0 0.00377663)
(0 0 0.00381776)
(0 0 0.00385826)
(0 0 0.0038981)
(0 0 0.00393728)
(0 0 0.00397577)
(0 0 0.00401356)
(0 0 0.00405063)
(0 0 0.00408696)
(0 0 0.00412255)
(0 0 0.00415736)
(0 0 0.0041914)
(0 0 0.00422464)
(0 0 0.00425707)
(0 0 0.00428867)
(0 0 0.00431943)
(0 0 0.00434934)
(0 0 0.00437838)
(0 0 0.00440654)
(0 0 0.0044338)
(0 0 0.00446016)
(0 0 0.00448561)
(0 0 0.00451013)
(0 0 0.00453371)
(0 0 0.00455634)
(0 0 0.00457802)
(0 0 0.00459873)
(0 0 0.00461847)
(0 0 0.00463723)
(0 0 0.004655)
(0 0 0.00467178)
(0 0 0.00468755)
(0 0 0.00470233)
(0 0 0.00471609)
(0 0 0.00472885)
(0 0 0.00474059)
(0 0 0.00475131)
(0 0 0.00476102)
(0 0 0.00476971)
(0 0 0.00477737)
(0 0 0.00478402)
(0 0 0.00478966)
(0 0 0.00479427)
(0 0 0.00479788)
(0 0 0.00480047)
(0 0 0.00480206)
(0 0 0.00480264)
(0 0 0.00480223)
(0 0 0.00480083)
(0 0 0.00479845)
(0 0 0.00479508)
(0 0 0.00479074)
(0 0 0.00478544)
(0 0 0.00477919)
(0 0 0.00477199)
(0 0 0.00476385)
(0 0 0.00475478)
(0 0 0.00474479)
(0 0 0.0047339)
(0 0 0.00472211)
(0 0 0.00470944)
(0 0 0.00469589)
(0 0 0.00468148)
(0 0 0.00466622)
(0 0 0.00465013)
(0 0 0.00463321)
(0 0 0.00461547)
(0 0 0.00459694)
(0 0 0.00457763)
(0 0 0.00455754)
(0 0 0.0045367)
(0 0 0.00451511)
(0 0 0.00449279)
(0 0 0.00446976)
(0 0 0.00444602)
(0 0 0.0044216)
(0 0 0.0043965)
(0 0 0.00437075)
(0 0 0.00434434)
(0 0 0.00431731)
(0 0 0.00428966)
(0 0 0.00426141)
(0 0 0.00423257)
(0 0 0.00420316)
(0 0 0.00417319)
(0 0 0.00414267)
(0 0 0.00411162)
(0 0 0.00408005)
(0 0 0.00404797)
(0 0 0.0040154)
(0 0 0.00398235)
(0 0 0.00394884)
(0 0 0.00391488)
(0 0 0.00388047)
(0 0 0.00384564)
(0 0 0.00381039)
(0 0 0.00377475)
(0 0 0.00373871)
(0 0 0.00370229)
(0 0 0.00366551)
(0 0 0.00362837)
(0 0 0.00359088)
(0 0 0.00355307)
(0 0 0.00351493)
(0 0 0.00347648)
(0 0 0.00343773)
(0 0 0.00339869)
(0 0 0.00335937)
(0 0 0.00331978)
(0 0 0.00327992)
(0 0 0.00323982)
(0 0 0.00319947)
(0 0 0.00315889)
(0 0 0.00311808)
(0 0 0.00307705)
(0 0 0.00303582)
(0 0 0.00299439)
(0 0 0.00295276)
(0 0 0.00291095)
(0 0 0.00286897)
(0 0 0.00282681)
(0 0 0.00278449)
(0 0 0.00274201)
(0 0 0.00269938)
(0 0 0.00265661)
(0 0 0.00261371)
(0 0 0.00257067)
(0 0 0.0025275)
(0 0 0.00248422)
(0 0 0.00244083)
(0 0 0.00239732)
(0 0 0.00235371)
(0 0 0.00231)
(0 0 0.0022662)
(0 0 0.00222231)
(0 0 0.00217834)
(0 0 0.00213428)
(0 0 0.00209015)
(0 0 0.00204595)
(0 0 0.00200168)
(0 0 0.00195734)
(0 0 0.00191294)
(0 0 0.00186848)
(0 0 0.00182397)
(0 0 0.00177941)
(0 0 0.0017348)
(0 0 0.00169015)
(0 0 0.00164545)
(0 0 0.00160071)
(0 0 0.00155593)
(0 0 0.00151112)
(0 0 0.00146627)
(0 0 0.0014214)
(0 0 0.00137649)
(0 0 0.00133156)
(0 0 0.0012866)
(0 0 0.00124162)
(0 0 0.00119662)
(0 0 0.00115159)
(0 0 0.00110655)
(0 0 0.00106149)
(0 0 0.00101642)
(0 0 0.00097133)
(0 0 0.000926227)
(0 0 0.000881112)
(0 0 0.000835985)
(0 0 0.000790848)
(0 0 0.000745701)
(0 0 0.000700545)
(0 0 0.000655381)
(0 0 0.000610211)
(0 0 0.000565033)
(0 0 0.00051985)
(0 0 0.000474662)
(0 0 0.000429469)
(0 0 0.000384272)
(0 0 0.000339072)
(0 0 0.000293868)
(0 0 0.000248662)
(0 0 0.000203454)
(0 0 0.000158244)
(0 0 0.000113032)
(0 0 6.78196e-05)
(0 0 2.26066e-05)
(0 0 4.61771e-05)
(0 0 0.00013853)
(0 0 0.000230881)
(0 0 0.000323227)
(0 0 0.000415566)
(0 0 0.000507896)
(0 0 0.000600216)
(0 0 0.000692523)
(0 0 0.000784815)
(0 0 0.000877089)
(0 0 0.000969343)
(0 0 0.00106157)
(0 0 0.00115378)
(0 0 0.00124595)
(0 0 0.0013381)
(0 0 0.0014302)
(0 0 0.00152227)
(0 0 0.00161429)
(0 0 0.00170627)
(0 0 0.00179818)
(0 0 0.00189004)
(0 0 0.00198184)
(0 0 0.00207356)
(0 0 0.00216521)
(0 0 0.00225678)
(0 0 0.00234825)
(0 0 0.00243962)
(0 0 0.00253089)
(0 0 0.00262205)
(0 0 0.00271308)
(0 0 0.00280397)
(0 0 0.00289473)
(0 0 0.00298533)
(0 0 0.00307576)
(0 0 0.00316602)
(0 0 0.00325609)
(0 0 0.00334596)
(0 0 0.00343562)
(0 0 0.00352505)
(0 0 0.00361424)
(0 0 0.00370317)
(0 0 0.00379183)
(0 0 0.0038802)
(0 0 0.00396827)
(0 0 0.00405601)
(0 0 0.00414342)
(0 0 0.00423046)
(0 0 0.00431713)
(0 0 0.0044034)
(0 0 0.00448926)
(0 0 0.00457468)
(0 0 0.00465964)
(0 0 0.00474411)
(0 0 0.00482809)
(0 0 0.00491154)
(0 0 0.00499444)
(0 0 0.00507677)
(0 0 0.0051585)
(0 0 0.00523961)
(0 0 0.00532007)
(0 0 0.00539986)
(0 0 0.00547895)
(0 0 0.00555732)
(0 0 0.00563493)
(0 0 0.00571176)
(0 0 0.00578779)
(0 0 0.00586298)
(0 0 0.00593731)
(0 0 0.00601076)
(0 0 0.00608328)
(0 0 0.00615486)
(0 0 0.00622546)
(0 0 0.00629507)
(0 0 0.00636364)
(0 0 0.00643115)
(0 0 0.00649758)
(0 0 0.00656289)
(0 0 0.00662706)
(0 0 0.00669006)
(0 0 0.00675186)
(0 0 0.00681243)
(0 0 0.00687176)
(0 0 0.00692981)
(0 0 0.00698655)
(0 0 0.00704197)
(0 0 0.00709603)
(0 0 0.00714872)
(0 0 0.0072)
(0 0 0.00724986)
(0 0 0.00729827)
(0 0 0.00734522)
(0 0 0.00739068)
(0 0 0.00743463)
(0 0 0.00747705)
(0 0 0.00751792)
(0 0 0.00755723)
(0 0 0.00759497)
(0 0 0.0076311)
(0 0 0.00766563)
(0 0 0.00769854)
(0 0 0.00772981)
(0 0 0.00775944)
(0 0 0.0077874)
(0 0 0.0078137)
(0 0 0.00783833)
(0 0 0.00786128)
(0 0 0.00788254)
(0 0 0.00790211)
(0 0 0.00791999)
(0 0 0.00793616)
(0 0 0.00795064)
(0 0 0.00796342)
(0 0 0.0079745)
(0 0 0.00798389)
(0 0 0.00799158)
(0 0 0.00799758)
(0 0 0.0080019)
(0 0 0.00800454)
(0 0 0.00800551)
(0 0 0.00800482)
(0 0 0.00800248)
(0 0 0.0079985)
(0 0 0.00799288)
(0 0 0.00798564)
(0 0 0.0079768)
(0 0 0.00796636)
(0 0 0.00795435)
(0 0 0.00794077)
(0 0 0.00792565)
(0 0 0.007909)
(0 0 0.00789083)
(0 0 0.00787117)
(0 0 0.00785003)
(0 0 0.00782744)
(0 0 0.00780341)
(0 0 0.00777797)
(0 0 0.00775113)
(0 0 0.00772291)
(0 0 0.00769334)
(0 0 0.00766245)
(0 0 0.00763024)
(0 0 0.00759675)
(0 0 0.00756199)
(0 0 0.00752599)
(0 0 0.00748878)
(0 0 0.00745038)
(0 0 0.0074108)
(0 0 0.00737008)
(0 0 0.00732824)
(0 0 0.00728529)
(0 0 0.00724127)
(0 0 0.00719621)
(0 0 0.00715011)
(0 0 0.00710301)
(0 0 0.00705493)
(0 0 0.00700589)
(0 0 0.00695592)
(0 0 0.00690504)
(0 0 0.00685327)
(0 0 0.00680064)
(0 0 0.00674716)
(0 0 0.00669287)
(0 0 0.00663777)
(0 0 0.0065819)
(0 0 0.00652528)
(0 0 0.00646793)
(0 0 0.00640986)
(0 0 0.0063511)
(0 0 0.00629168)
(0 0 0.0062316)
(0 0 0.00617089)
(0 0 0.00610957)
(0 0 0.00604766)
(0 0 0.00598517)
(0 0 0.00592214)
(0 0 0.00585856)
(0 0 0.00579447)
(0 0 0.00572987)
(0 0 0.00566479)
(0 0 0.00559925)
(0 0 0.00553325)
(0 0 0.00546682)
(0 0 0.00539996)
(0 0 0.00533271)
(0 0 0.00526506)
(0 0 0.00519704)
(0 0 0.00512865)
(0 0 0.00505992)
(0 0 0.00499086)
(0 0 0.00492148)
(0 0 0.00485179)
(0 0 0.0047818)
(0 0 0.00471153)
(0 0 0.00464099)
(0 0 0.00457018)
(0 0 0.00449913)
(0 0 0.00442784)
(0 0 0.00435632)
(0 0 0.00428459)
(0 0 0.00421264)
(0 0 0.0041405)
(0 0 0.00406816)
(0 0 0.00399565)
(0 0 0.00392296)
(0 0 0.00385011)
(0 0 0.0037771)
(0 0 0.00370395)
(0 0 0.00363065)
(0 0 0.00355722)
(0 0 0.00348367)
(0 0 0.00340999)
(0 0 0.0033362)
(0 0 0.0032623)
(0 0 0.0031883)
(0 0 0.0031142)
(0 0 0.00304001)
(0 0 0.00296574)
(0 0 0.00289139)
(0 0 0.00281696)
(0 0 0.00274246)
(0 0 0.00266789)
(0 0 0.00259326)
(0 0 0.00251857)
(0 0 0.00244382)
(0 0 0.00236903)
(0 0 0.00229418)
(0 0 0.00221929)
(0 0 0.00214436)
(0 0 0.00206939)
(0 0 0.00199439)
(0 0 0.00191935)
(0 0 0.00184427)
(0 0 0.00176918)
(0 0 0.00169405)
(0 0 0.0016189)
(0 0 0.00154373)
(0 0 0.00146853)
(0 0 0.00139332)
(0 0 0.00131809)
(0 0 0.00124284)
(0 0 0.00116758)
(0 0 0.00109231)
(0 0 0.00101702)
(0 0 0.000941729)
(0 0 0.000866423)
(0 0 0.000791109)
(0 0 0.000715787)
(0 0 0.000640458)
(0 0 0.000565123)
(0 0 0.000489783)
(0 0 0.000414439)
(0 0 0.000339092)
(0 0 0.000263741)
(0 0 0.000188388)
(0 0 0.000113033)
(0 0 3.76779e-05)
(0 0 6.46492e-05)
(0 0 0.000193946)
(0 0 0.00032324)
(0 0 0.000452527)
(0 0 0.000581804)
(0 0 0.00071107)
(0 0 0.000840321)
(0 0 0.000969554)
(0 0 0.00109877)
(0 0 0.00122795)
(0 0 0.00135711)
(0 0 0.00148624)
(0 0 0.00161533)
(0 0 0.00174438)
(0 0 0.00187339)
(0 0 0.00200234)
(0 0 0.00213124)
(0 0 0.00226008)
(0 0 0.00238885)
(0 0 0.00251754)
(0 0 0.00264615)
(0 0 0.00277467)
(0 0 0.0029031)
(0 0 0.00303141)
(0 0 0.00315961)
(0 0 0.00328769)
(0 0 0.00341562)
(0 0 0.00354341)
(0 0 0.00367104)
(0 0 0.00379849)
(0 0 0.00392576)
(0 0 0.00405283)
(0 0 0.00417969)
(0 0 0.00430631)
(0 0 0.00443269)
(0 0 0.00455881)
(0 0 0.00468465)
(0 0 0.00481019)
(0 0 0.00493541)
(0 0 0.00506029)
(0 0 0.00518482)
(0 0 0.00530897)
(0 0 0.00543271)
(0 0 0.00555603)
(0 0 0.00567889)
(0 0 0.00580128)
(0 0 0.00592318)
(0 0 0.00604454)
(0 0 0.00616535)
(0 0 0.00628558)
(0 0 0.00640519)
(0 0 0.00652416)
(0 0 0.00664247)
(0 0 0.00676006)
(0 0 0.00687693)
(0 0 0.00699302)
(0 0 0.00710832)
(0 0 0.00722277)
(0 0 0.00733636)
(0 0 0.00744904)
(0 0 0.00756078)
(0 0 0.00767155)
(0 0 0.0077813)
(0 0 0.00788999)
(0 0 0.0079976)
(0 0 0.00810407)
(0 0 0.00820938)
(0 0 0.00831349)
(0 0 0.00841634)
(0 0 0.00851792)
(0 0 0.00861817)
(0 0 0.00871706)
(0 0 0.00881454)
(0 0 0.00891058)
(0 0 0.00900514)
(0 0 0.00909817)
(0 0 0.00918965)
(0 0 0.00927952)
(0 0 0.00936776)
(0 0 0.00945432)
(0 0 0.00953916)
(0 0 0.00962225)
(0 0 0.00970356)
(0 0 0.00978303)
(0 0 0.00986065)
(0 0 0.00993637)
(0 0 0.0100102)
(0 0 0.010082)
(0 0 0.0101518)
(0 0 0.0102196)
(0 0 0.0102854)
(0 0 0.0103491)
(0 0 0.0104106)
(0 0 0.01047)
(0 0 0.0105273)
(0 0 0.0105823)
(0 0 0.0106352)
(0 0 0.0106858)
(0 0 0.0107342)
(0 0 0.0107802)
(0 0 0.010824)
(0 0 0.0108655)
(0 0 0.0109047)
(0 0 0.0109415)
(0 0 0.010976)
(0 0 0.0110082)
(0 0 0.0110379)
(0 0 0.0110653)
(0 0 0.0110904)
(0 0 0.011113)
(0 0 0.0111333)
(0 0 0.0111512)
(0 0 0.0111667)
(0 0 0.0111798)
(0 0 0.0111906)
(0 0 0.011199)
(0 0 0.011205)
(0 0 0.0112087)
(0 0 0.01121)
(0 0 0.0112091)
(0 0 0.0112058)
(0 0 0.0112002)
(0 0 0.0111923)
(0 0 0.0111821)
(0 0 0.0111697)
(0 0 0.0111551)
(0 0 0.0111383)
(0 0 0.0111192)
(0 0 0.0110981)
(0 0 0.0110747)
(0 0 0.0110493)
(0 0 0.0110217)
(0 0 0.0109921)
(0 0 0.0109604)
(0 0 0.0109268)
(0 0 0.0108911)
(0 0 0.0108535)
(0 0 0.010814)
(0 0 0.0107725)
(0 0 0.0107293)
(0 0 0.0106841)
(0 0 0.0106372)
(0 0 0.0105885)
(0 0 0.0105381)
(0 0 0.010486)
(0 0 0.0104322)
(0 0 0.0103767)
(0 0 0.0103197)
(0 0 0.0102611)
(0 0 0.0102009)
(0 0 0.0101393)
(0 0 0.0100761)
(0 0 0.0100116)
(0 0 0.00994559)
(0 0 0.00987824)
(0 0 0.00980956)
(0 0 0.00973956)
(0 0 0.0096683)
(0 0 0.00959579)
(0 0 0.00952207)
(0 0 0.00944717)
(0 0 0.00937113)
(0 0 0.00929397)
(0 0 0.00921572)
(0 0 0.00913642)
(0 0 0.0090561)
(0 0 0.00897477)
(0 0 0.00889248)
(0 0 0.00880926)
(0 0 0.00872512)
(0 0 0.0086401)
(0 0 0.00855423)
(0 0 0.00846753)
(0 0 0.00838002)
(0 0 0.00829174)
(0 0 0.00820271)
(0 0 0.00811296)
(0 0 0.0080225)
(0 0 0.00793137)
(0 0 0.00783958)
(0 0 0.00774716)
(0 0 0.00765413)
(0 0 0.00756052)
(0 0 0.00746633)
(0 0 0.00737161)
(0 0 0.00727636)
(0 0 0.0071806)
(0 0 0.00708436)
(0 0 0.00698766)
(0 0 0.0068905)
(0 0 0.00679291)
(0 0 0.00669492)
(0 0 0.00659652)
(0 0 0.00649774)
(0 0 0.00639861)
(0 0 0.00629912)
(0 0 0.0061993)
(0 0 0.00609916)
(0 0 0.00599871)
(0 0 0.00589798)
(0 0 0.00579696)
(0 0 0.00569568)
(0 0 0.00559415)
(0 0 0.00549238)
(0 0 0.00539037)
(0 0 0.00528815)
(0 0 0.00518573)
(0 0 0.0050831)
(0 0 0.00498029)
(0 0 0.0048773)
(0 0 0.00477414)
(0 0 0.00467083)
(0 0 0.00456736)
(0 0 0.00446375)
(0 0 0.00436001)
(0 0 0.00425614)
(0 0 0.00415215)
(0 0 0.00404805)
(0 0 0.00394384)
(0 0 0.00383953)
(0 0 0.00373513)
(0 0 0.00363064)
(0 0 0.00352607)
(0 0 0.00342142)
(0 0 0.0033167)
(0 0 0.00321192)
(0 0 0.00310707)
(0 0 0.00300216)
(0 0 0.0028972)
(0 0 0.00279219)
(0 0 0.00268713)
(0 0 0.00258203)
(0 0 0.00247688)
(0 0 0.0023717)
(0 0 0.00226649)
(0 0 0.00216125)
(0 0 0.00205597)
(0 0 0.00195067)
(0 0 0.00184535)
(0 0 0.00174)
(0 0 0.00163464)
(0 0 0.00152925)
(0 0 0.00142385)
(0 0 0.00131843)
(0 0 0.001213)
(0 0 0.00110756)
(0 0 0.00100211)
(0 0 0.000896649)
(0 0 0.00079118)
(0 0 0.000685703)
(0 0 0.00058022)
(0 0 0.000474732)
(0 0 0.00036924)
(0 0 0.000263745)
(0 0 0.000158248)
(0 0 5.27495e-05)
(0 0 8.31227e-05)
(0 0 0.000249366)
(0 0 0.000415605)
(0 0 0.000581836)
(0 0 0.000748055)
(0 0 0.000914259)
(0 0 0.00108044)
(0 0 0.00124661)
(0 0 0.00141274)
(0 0 0.00157885)
(0 0 0.00174492)
(0 0 0.00191094)
(0 0 0.00207693)
(0 0 0.00224286)
(0 0 0.00240873)
(0 0 0.00257454)
(0 0 0.00274028)
(0 0 0.00290593)
(0 0 0.00307151)
(0 0 0.00323698)
(0 0 0.00340235)
(0 0 0.00356761)
(0 0 0.00373274)
(0 0 0.00389773)
(0 0 0.00406258)
(0 0 0.00422726)
(0 0 0.00439177)
(0 0 0.00455609)
(0 0 0.0047202)
(0 0 0.0048841)
(0 0 0.00504775)
(0 0 0.00521115)
(0 0 0.00537428)
(0 0 0.00553711)
(0 0 0.00569963)
(0 0 0.00586181)
(0 0 0.00602364)
(0 0 0.00618508)
(0 0 0.00634611)
(0 0 0.00650671)
(0 0 0.00666685)
(0 0 0.00682651)
(0 0 0.00698564)
(0 0 0.00714423)
(0 0 0.00730225)
(0 0 0.00745965)
(0 0 0.00761642)
(0 0 0.0077725)
(0 0 0.00792788)
(0 0 0.00808251)
(0 0 0.00823635)
(0 0 0.00838937)
(0 0 0.00854152)
(0 0 0.00869277)
(0 0 0.00884308)
(0 0 0.00899241)
(0 0 0.0091407)
(0 0 0.00928792)
(0 0 0.00943402)
(0 0 0.00957896)
(0 0 0.00972269)
(0 0 0.00986516)
(0 0 0.0100063)
(0 0 0.0101461)
(0 0 0.0102846)
(0 0 0.0104215)
(0 0 0.010557)
(0 0 0.0106909)
(0 0 0.0108232)
(0 0 0.0109539)
(0 0 0.0110828)
(0 0 0.0112101)
(0 0 0.0113355)
(0 0 0.011459)
(0 0 0.0115806)
(0 0 0.0117003)
(0 0 0.011818)
(0 0 0.0119336)
(0 0 0.0120471)
(0 0 0.0121585)
(0 0 0.0122676)
(0 0 0.0123745)
(0 0 0.0124791)
(0 0 0.0125814)
(0 0 0.0126812)
(0 0 0.0127786)
(0 0 0.0128736)
(0 0 0.012966)
(0 0 0.0130558)
(0 0 0.0131431)
(0 0 0.0132277)
(0 0 0.0133096)
(0 0 0.0133887)
(0 0 0.0134652)
(0 0 0.0135388)
(0 0 0.0136097)
(0 0 0.0136776)
(0 0 0.0137428)
(0 0 0.013805)
(0 0 0.0138642)
(0 0 0.0139206)
(0 0 0.0139739)
(0 0 0.0140243)
(0 0 0.0140717)
(0 0 0.0141161)
(0 0 0.0141574)
(0 0 0.0141957)
(0 0 0.0142309)
(0 0 0.0142631)
(0 0 0.0142922)
(0 0 0.0143183)
(0 0 0.0143413)
(0 0 0.0143612)
(0 0 0.0143781)
(0 0 0.0143919)
(0 0 0.0144027)
(0 0 0.0144105)
(0 0 0.0144152)
(0 0 0.0144169)
(0 0 0.0144156)
(0 0 0.0144114)
(0 0 0.0144041)
(0 0 0.014394)
(0 0 0.0143809)
(0 0 0.0143649)
(0 0 0.0143461)
(0 0 0.0143244)
(0 0 0.0142999)
(0 0 0.0142726)
(0 0 0.0142426)
(0 0 0.0142098)
(0 0 0.0141743)
(0 0 0.0141362)
(0 0 0.0140954)
(0 0 0.0140521)
(0 0 0.0140062)
(0 0 0.0139578)
(0 0 0.0139069)
(0 0 0.0138536)
(0 0 0.0137979)
(0 0 0.0137398)
(0 0 0.0136795)
(0 0 0.0136168)
(0 0 0.0135519)
(0 0 0.0134848)
(0 0 0.0134156)
(0 0 0.0133443)
(0 0 0.0132709)
(0 0 0.0131954)
(0 0 0.013118)
(0 0 0.0130387)
(0 0 0.0129575)
(0 0 0.0128744)
(0 0 0.0127895)
(0 0 0.0127029)
(0 0 0.0126145)
(0 0 0.0125245)
(0 0 0.0124328)
(0 0 0.0123395)
(0 0 0.0122447)
(0 0 0.0121483)
(0 0 0.0120505)
(0 0 0.0119513)
(0 0 0.0118506)
(0 0 0.0117486)
(0 0 0.0116453)
(0 0 0.0115407)
(0 0 0.0114348)
(0 0 0.0113277)
(0 0 0.0112195)
(0 0 0.0111102)
(0 0 0.0109997)
(0 0 0.0108882)
(0 0 0.0107756)
(0 0 0.0106621)
(0 0 0.0105476)
(0 0 0.0104321)
(0 0 0.0103158)
(0 0 0.0101986)
(0 0 0.0100805)
(0 0 0.00996168)
(0 0 0.00984203)
(0 0 0.00972163)
(0 0 0.00960051)
(0 0 0.00947868)
(0 0 0.00935618)
(0 0 0.00923304)
(0 0 0.00910927)
(0 0 0.0089849)
(0 0 0.00885995)
(0 0 0.00873446)
(0 0 0.00860843)
(0 0 0.00848189)
(0 0 0.00835487)
(0 0 0.00822738)
(0 0 0.00809944)
(0 0 0.00797107)
(0 0 0.0078423)
(0 0 0.00771313)
(0 0 0.00758359)
(0 0 0.00745369)
(0 0 0.00732345)
(0 0 0.00719289)
(0 0 0.00706202)
(0 0 0.00693086)
(0 0 0.00679941)
(0 0 0.0066677)
(0 0 0.00653574)
(0 0 0.00640354)
(0 0 0.00627111)
(0 0 0.00613846)
(0 0 0.00600561)
(0 0 0.00587257)
(0 0 0.00573934)
(0 0 0.00560595)
(0 0 0.00547239)
(0 0 0.00533867)
(0 0 0.00520482)
(0 0 0.00507082)
(0 0 0.0049367)
(0 0 0.00480246)
(0 0 0.00466811)
(0 0 0.00453365)
(0 0 0.0043991)
(0 0 0.00426445)
(0 0 0.00412972)
(0 0 0.0039949)
(0 0 0.00386001)
(0 0 0.00372506)
(0 0 0.00359003)
(0 0 0.00345495)
(0 0 0.00331982)
(0 0 0.00318463)
(0 0 0.00304939)
(0 0 0.00291411)
(0 0 0.00277879)
(0 0 0.00264344)
(0 0 0.00250805)
(0 0 0.00237263)
(0 0 0.00223718)
(0 0 0.00210171)
(0 0 0.00196621)
(0 0 0.00183069)
(0 0 0.00169515)
(0 0 0.0015596)
(0 0 0.00142403)
(0 0 0.00128844)
(0 0 0.00115285)
(0 0 0.00101724)
(0 0 0.000881628)
(0 0 0.000746006)
(0 0 0.000610377)
(0 0 0.000474743)
(0 0 0.000339105)
(0 0 0.000203464)
(0 0 6.78215e-05)
(0 0 0.000101598)
(0 0 0.000304791)
(0 0 0.000507979)
(0 0 0.000711157)
(0 0 0.000914321)
(0 0 0.00111747)
(0 0 0.00132059)
(0 0 0.00152369)
(0 0 0.00172675)
(0 0 0.00192978)
(0 0 0.00213276)
(0 0 0.00233569)
(0 0 0.00253857)
(0 0 0.00274139)
(0 0 0.00294414)
(0 0 0.0031468)
(0 0 0.00334939)
(0 0 0.00355188)
(0 0 0.00375426)
(0 0 0.00395653)
(0 0 0.00415867)
(0 0 0.00436067)
(0 0 0.00456252)
(0 0 0.0047642)
(0 0 0.0049657)
(0 0 0.00516701)
(0 0 0.00536811)
(0 0 0.00556897)
(0 0 0.00576959)
(0 0 0.00596994)
(0 0 0.00617)
(0 0 0.00636975)
(0 0 0.00656917)
(0 0 0.00676823)
(0 0 0.0069669)
(0 0 0.00716517)
(0 0 0.007363)
(0 0 0.00756037)
(0 0 0.00775724)
(0 0 0.00795359)
(0 0 0.00814937)
(0 0 0.00834456)
(0 0 0.00853913)
(0 0 0.00873302)
(0 0 0.00892622)
(0 0 0.00911867)
(0 0 0.00931034)
(0 0 0.00950118)
(0 0 0.00969116)
(0 0 0.00988022)
(0 0 0.0100683)
(0 0 0.0102554)
(0 0 0.0104415)
(0 0 0.0106264)
(0 0 0.0108102)
(0 0 0.0109928)
(0 0 0.0111742)
(0 0 0.0113542)
(0 0 0.0115328)
(0 0 0.0117101)
(0 0 0.0118858)
(0 0 0.0120601)
(0 0 0.0122327)
(0 0 0.0124037)
(0 0 0.012573)
(0 0 0.0127405)
(0 0 0.0129062)
(0 0 0.0130699)
(0 0 0.0132317)
(0 0 0.0133915)
(0 0 0.0135493)
(0 0 0.0137049)
(0 0 0.0138582)
(0 0 0.0140093)
(0 0 0.0141581)
(0 0 0.0143045)
(0 0 0.0144484)
(0 0 0.0145898)
(0 0 0.0147287)
(0 0 0.0148649)
(0 0 0.0149984)
(0 0 0.0151291)
(0 0 0.0152571)
(0 0 0.0153821)
(0 0 0.0155043)
(0 0 0.0156234)
(0 0 0.0157395)
(0 0 0.0158525)
(0 0 0.0159624)
(0 0 0.0160691)
(0 0 0.0161726)
(0 0 0.0162728)
(0 0 0.0163696)
(0 0 0.0164631)
(0 0 0.0165532)
(0 0 0.0166398)
(0 0 0.016723)
(0 0 0.0168026)
(0 0 0.0168787)
(0 0 0.0169512)
(0 0 0.0170201)
(0 0 0.0170854)
(0 0 0.017147)
(0 0 0.0172049)
(0 0 0.0172591)
(0 0 0.0173097)
(0 0 0.0173565)
(0 0 0.0173996)
(0 0 0.0174389)
(0 0 0.0174745)
(0 0 0.0175064)
(0 0 0.0175345)
(0 0 0.0175588)
(0 0 0.0175795)
(0 0 0.0175964)
(0 0 0.0176095)
(0 0 0.017619)
(0 0 0.0176247)
(0 0 0.0176268)
(0 0 0.0176252)
(0 0 0.0176199)
(0 0 0.0176111)
(0 0 0.0175986)
(0 0 0.0175826)
(0 0 0.017563)
(0 0 0.0175399)
(0 0 0.0175133)
(0 0 0.0174833)
(0 0 0.0174499)
(0 0 0.0174131)
(0 0 0.017373)
(0 0 0.0173296)
(0 0 0.0172829)
(0 0 0.017233)
(0 0 0.01718)
(0 0 0.0171238)
(0 0 0.0170646)
(0 0 0.0170023)
(0 0 0.0169371)
(0 0 0.0168689)
(0 0 0.0167979)
(0 0 0.016724)
(0 0 0.0166473)
(0 0 0.0165679)
(0 0 0.0164858)
(0 0 0.0164011)
(0 0 0.0163139)
(0 0 0.0162241)
(0 0 0.0161318)
(0 0 0.0160371)
(0 0 0.0159401)
(0 0 0.0158407)
(0 0 0.0157391)
(0 0 0.0156353)
(0 0 0.0155293)
(0 0 0.0154212)
(0 0 0.015311)
(0 0 0.0151989)
(0 0 0.0150848)
(0 0 0.0149688)
(0 0 0.014851)
(0 0 0.0147313)
(0 0 0.0146099)
(0 0 0.0144868)
(0 0 0.0143621)
(0 0 0.0142357)
(0 0 0.0141078)
(0 0 0.0139783)
(0 0 0.0138474)
(0 0 0.0137151)
(0 0 0.0135813)
(0 0 0.0134463)
(0 0 0.0133099)
(0 0 0.0131723)
(0 0 0.0130334)
(0 0 0.0128934)
(0 0 0.0127522)
(0 0 0.01261)
(0 0 0.0124667)
(0 0 0.0123223)
(0 0 0.012177)
(0 0 0.0120307)
(0 0 0.0118835)
(0 0 0.0117354)
(0 0 0.0115864)
(0 0 0.0114367)
(0 0 0.0112861)
(0 0 0.0111348)
(0 0 0.0109827)
(0 0 0.01083)
(0 0 0.0106765)
(0 0 0.0105225)
(0 0 0.0103678)
(0 0 0.0102125)
(0 0 0.0100566)
(0 0 0.00990019)
(0 0 0.00974326)
(0 0 0.00958583)
(0 0 0.00942792)
(0 0 0.00926956)
(0 0 0.00911076)
(0 0 0.00895155)
(0 0 0.00879195)
(0 0 0.00863196)
(0 0 0.00847162)
(0 0 0.00831094)
(0 0 0.00814993)
(0 0 0.00798862)
(0 0 0.00782701)
(0 0 0.00766513)
(0 0 0.00750298)
(0 0 0.00734058)
(0 0 0.00717796)
(0 0 0.0070151)
(0 0 0.00685204)
(0 0 0.00668878)
(0 0 0.00652534)
(0 0 0.00636172)
(0 0 0.00619793)
(0 0 0.00603399)
(0 0 0.00586991)
(0 0 0.00570568)
(0 0 0.00554133)
(0 0 0.00537686)
(0 0 0.00521228)
(0 0 0.00504759)
(0 0 0.00488281)
(0 0 0.00471794)
(0 0 0.00455298)
(0 0 0.00438794)
(0 0 0.00422283)
(0 0 0.00405766)
(0 0 0.00389242)
(0 0 0.00372712)
(0 0 0.00356178)
(0 0 0.00339638)
(0 0 0.00323094)
(0 0 0.00306546)
(0 0 0.00289994)
(0 0 0.00273438)
(0 0 0.0025688)
(0 0 0.00240319)
(0 0 0.00223755)
(0 0 0.00207189)
(0 0 0.00190621)
(0 0 0.00174051)
(0 0 0.00157479)
(0 0 0.00140906)
(0 0 0.00124332)
(0 0 0.00107756)
(0 0 0.000911798)
(0 0 0.000746027)
(0 0 0.00058025)
(0 0 0.000414467)
(0 0 0.000248682)
(0 0 8.28942e-05)
(0 0 0.000120075)
(0 0 0.000360222)
(0 0 0.000600363)
(0 0 0.000840492)
(0 0 0.0010806)
(0 0 0.0013207)
(0 0 0.00156076)
(0 0 0.0018008)
(0 0 0.00204079)
(0 0 0.00228075)
(0 0 0.00252065)
(0 0 0.0027605)
(0 0 0.00300028)
(0 0 0.00323999)
(0 0 0.00347962)
(0 0 0.00371916)
(0 0 0.0039586)
(0 0 0.00419792)
(0 0 0.00443713)
(0 0 0.0046762)
(0 0 0.00491512)
(0 0 0.00515388)
(0 0 0.00539246)
(0 0 0.00563085)
(0 0 0.00586903)
(0 0 0.00610698)
(0 0 0.00634468)
(0 0 0.00658211)
(0 0 0.00681925)
(0 0 0.00705607)
(0 0 0.00729256)
(0 0 0.00752868)
(0 0 0.00776441)
(0 0 0.00799972)
(0 0 0.00823459)
(0 0 0.00846897)
(0 0 0.00870284)
(0 0 0.00893616)
(0 0 0.0091689)
(0 0 0.00940102)
(0 0 0.00963249)
(0 0 0.00986325)
(0 0 0.0100933)
(0 0 0.0103225)
(0 0 0.0105509)
(0 0 0.0107785)
(0 0 0.0110051)
(0 0 0.0112307)
(0 0 0.0114554)
(0 0 0.0116789)
(0 0 0.0119013)
(0 0 0.0121226)
(0 0 0.0123425)
(0 0 0.0125612)
(0 0 0.0127786)
(0 0 0.0129945)
(0 0 0.0132089)
(0 0 0.0134218)
(0 0 0.0136331)
(0 0 0.0138427)
(0 0 0.0140505)
(0 0 0.0142566)
(0 0 0.0144608)
(0 0 0.014663)
(0 0 0.0148632)
(0 0 0.0150613)
(0 0 0.0152572)
(0 0 0.0154509)
(0 0 0.0156423)
(0 0 0.0158313)
(0 0 0.0160178)
(0 0 0.0162019)
(0 0 0.0163833)
(0 0 0.016562)
(0 0 0.016738)
(0 0 0.0169111)
(0 0 0.0170814)
(0 0 0.0172486)
(0 0 0.0174129)
(0 0 0.017574)
(0 0 0.0177319)
(0 0 0.0178865)
(0 0 0.0180379)
(0 0 0.0181858)
(0 0 0.0183303)
(0 0 0.0184712)
(0 0 0.0186086)
(0 0 0.0187422)
(0 0 0.0188722)
(0 0 0.0189984)
(0 0 0.0191208)
(0 0 0.0192393)
(0 0 0.0193539)
(0 0 0.0194645)
(0 0 0.019571)
(0 0 0.0196735)
(0 0 0.0197718)
(0 0 0.019866)
(0 0 0.019956)
(0 0 0.0200418)
(0 0 0.0201232)
(0 0 0.0202004)
(0 0 0.0202733)
(0 0 0.0203418)
(0 0 0.0204059)
(0 0 0.0204657)
(0 0 0.020521)
(0 0 0.020572)
(0 0 0.0206185)
(0 0 0.0206606)
(0 0 0.0206982)
(0 0 0.0207314)
(0 0 0.0207602)
(0 0 0.0207846)
(0 0 0.0208045)
(0 0 0.02082)
(0 0 0.0208312)
(0 0 0.0208379)
(0 0 0.0208403)
(0 0 0.0208384)
(0 0 0.0208321)
(0 0 0.0208216)
(0 0 0.0208068)
(0 0 0.0207878)
(0 0 0.0207646)
(0 0 0.0207372)
(0 0 0.0207057)
(0 0 0.0206702)
(0 0 0.0206306)
(0 0 0.020587)
(0 0 0.0205395)
(0 0 0.0204881)
(0 0 0.0204328)
(0 0 0.0203738)
(0 0 0.020311)
(0 0 0.0202445)
(0 0 0.0201744)
(0 0 0.0201007)
(0 0 0.0200235)
(0 0 0.0199428)
(0 0 0.0198587)
(0 0 0.0197713)
(0 0 0.0196805)
(0 0 0.0195866)
(0 0 0.0194895)
(0 0 0.0193892)
(0 0 0.019286)
(0 0 0.0191797)
(0 0 0.0190706)
(0 0 0.0189585)
(0 0 0.0188437)
(0 0 0.0187262)
(0 0 0.018606)
(0 0 0.0184831)
(0 0 0.0183578)
(0 0 0.0182299)
(0 0 0.0180996)
(0 0 0.017967)
(0 0 0.017832)
(0 0 0.0176948)
(0 0 0.0175554)
(0 0 0.0174139)
(0 0 0.0172703)
(0 0 0.0171247)
(0 0 0.0169772)
(0 0 0.0168277)
(0 0 0.0166764)
(0 0 0.0165233)
(0 0 0.0163685)
(0 0 0.016212)
(0 0 0.0160538)
(0 0 0.0158941)
(0 0 0.0157329)
(0 0 0.0155701)
(0 0 0.0154059)
(0 0 0.0152404)
(0 0 0.0150734)
(0 0 0.0149052)
(0 0 0.0147358)
(0 0 0.0145651)
(0 0 0.0143932)
(0 0 0.0142203)
(0 0 0.0140462)
(0 0 0.0138711)
(0 0 0.013695)
(0 0 0.0135179)
(0 0 0.0133399)
(0 0 0.013161)
(0 0 0.0129812)
(0 0 0.0128006)
(0 0 0.0126193)
(0 0 0.0124371)
(0 0 0.0122542)
(0 0 0.0120706)
(0 0 0.0118864)
(0 0 0.0117015)
(0 0 0.0115159)
(0 0 0.0113298)
(0 0 0.0111432)
(0 0 0.010956)
(0 0 0.0107683)
(0 0 0.01058)
(0 0 0.0103914)
(0 0 0.0102023)
(0 0 0.0100127)