/*--------------------------------*- C++ -*----------------------------------*\
| =========                 |                                                 |
| \\      /  F ield         | OpenFOAM: The Open Source CFD Toolbox           |
|  \\    /   O peration     | Version:  v2012                                 |
|   \\  /    A nd           | Website:  www.openfoam.com                      |
|    \\/     M anipulation  |                                                 |
\*---------------------------------------------------------------------------*/
FoamFile
{
    version     2.0;
    format      ascii;
    class       volScalarField;
    location    "6.9";
    object      W;
}
// * * * * * * * * * * * * * * * * * * * * * * * * * * * * * * * * * * * * * //

dimensions      [0 0 -1 0 0 0 0];


internalField   nonuniform List<scalar> 
65536
(
4.95921e-20
1.50797e-19
2.58155e-19
3.76048e-19
5.09266e-19
6.6318e-19
8.43923e-19
1.05861e-18
1.31557e-18
1.62461e-18
1.99735e-18
2.44753e-18
2.99151e-18
3.64868e-18
4.44206e-18
5.39899e-18
6.55185e-18
7.93897e-18
9.60569e-18
1.16055e-17
1.40016e-17
1.68681e-17
2.02922e-17
2.43762e-17
2.92398e-17
3.5023e-17
4.18889e-17
5.00276e-17
5.96597e-17
7.10414e-17
8.44691e-17
1.00286e-16
1.18886e-16
1.40724e-16
1.66323e-16
1.96282e-16
2.31285e-16
2.72115e-16
3.19662e-16
3.74941e-16
4.39101e-16
5.13443e-16
5.99439e-16
6.98745e-16
8.13227e-16
9.44978e-16
1.09634e-15
1.26993e-15
1.46867e-15
1.6958e-15
1.95491e-15
2.24999e-15
2.58544e-15
2.96608e-15
3.39722e-15
3.88469e-15
4.43482e-15
5.05454e-15
5.75134e-15
6.53336e-15
7.40936e-15
8.38879e-15
9.48177e-15
1.06991e-14
1.20524e-14
1.35538e-14
1.52162e-14
1.70534e-14
1.90796e-14
2.13097e-14
2.37593e-14
2.64445e-14
2.93816e-14
3.25878e-14
3.60802e-14
3.98761e-14
4.3993e-14
4.84482e-14
5.32588e-14
5.84414e-14
6.4012e-14
6.99858e-14
7.63767e-14
8.31976e-14
9.04597e-14
9.81722e-14
1.06343e-13
1.14975e-13
1.24073e-13
1.33635e-13
1.43657e-13
1.54131e-13
1.65047e-13
1.76389e-13
1.88137e-13
2.00268e-13
2.12753e-13
2.2556e-13
2.38649e-13
2.51979e-13
2.65502e-13
2.79166e-13
2.92913e-13
3.06683e-13
3.20411e-13
3.34028e-13
3.4746e-13
3.60634e-13
3.73471e-13
3.85893e-13
3.97819e-13
4.09169e-13
4.19863e-13
4.29823e-13
4.38971e-13
4.47235e-13
4.54546e-13
4.60839e-13
4.66054e-13
4.70141e-13
4.73053e-13
4.74755e-13
4.75217e-13
4.74422e-13
4.7236e-13
4.69033e-13
4.64452e-13
4.58639e-13
4.51627e-13
4.43459e-13
4.34187e-13
4.23874e-13
4.12591e-13
4.00419e-13
3.87445e-13
3.73762e-13
3.59469e-13
3.4467e-13
3.29473e-13
3.13986e-13
2.98319e-13
2.82583e-13
2.66884e-13
2.51329e-13
2.3602e-13
2.21054e-13
2.06523e-13
1.92512e-13
1.791e-13
1.66358e-13
1.54348e-13
1.43126e-13
1.32737e-13
1.23218e-13
1.14599e-13
1.069e-13
1.00131e-13
9.42964e-14
8.9391e-14
8.54022e-14
8.23096e-14
8.00858e-14
7.86965e-14
7.81005e-14
7.82509e-14
7.90944e-14
8.05724e-14
8.26213e-14
8.51728e-14
8.81542e-14
9.14895e-14
9.50995e-14
9.8903e-14
1.02817e-13
1.06759e-13
1.10644e-13
1.14393e-13
1.17926e-13
1.21167e-13
1.24047e-13
1.26501e-13
1.28471e-13
1.2991e-13
1.30778e-13
1.31043e-13
1.30687e-13
1.297e-13
1.28086e-13
1.25856e-13
1.23034e-13
1.19653e-13
1.15756e-13
1.11391e-13
1.06617e-13
1.01494e-13
9.60883e-14
9.0468e-14
8.47014e-14
7.88561e-14
7.29977e-14
6.71878e-14
6.14836e-14
5.59367e-14
5.05921e-14
4.54882e-14
4.06562e-14
3.612e-14
3.18967e-14
2.79964e-14
2.4423e-14
2.1175e-14
1.82455e-14
1.56236e-14
1.32949e-14
1.12422e-14
9.44642e-15
7.88709e-15
6.54316e-15
5.39342e-15
4.41709e-15
3.59409e-15
2.90543e-15
2.3334e-15
1.86172e-15
1.47561e-15
1.16186e-15
9.08765e-16
7.06076e-16
5.44935e-16
4.17757e-16
3.18111e-16
2.40603e-16
1.80751e-16
1.3487e-16
9.99524e-17
7.35714e-17
5.37843e-17
3.90506e-17
2.81591e-17
2.01661e-17
1.43429e-17
1.0131e-17
7.10671e-18
4.95085e-18
3.42515e-18
2.3532e-18
1.60547e-18
1.08759e-18
7.31396e-19
4.87985e-19
3.22547e-19
2.10432e-19
1.3423e-19
8.16035e-20
4.3658e-20
1.37071e-20
1.68037e-19
5.10951e-19
8.74687e-19
1.27408e-18
1.72535e-18
2.24664e-18
2.85871e-18
3.58563e-18
4.45556e-18
5.50167e-18
6.7632e-18
8.28666e-18
1.01272e-17
1.23505e-17
1.50342e-17
1.82707e-17
2.21692e-17
2.68593e-17
3.24939e-17
3.92535e-17
4.73511e-17
5.7037e-17
6.86051e-17
8.24004e-17
9.88263e-17
1.18354e-16
1.41533e-16
1.69004e-16
2.0151e-16
2.39912e-16
2.85207e-16
3.38549e-16
4.01264e-16
4.74882e-16
5.61156e-16
6.62098e-16
7.80006e-16
9.17506e-16
1.07759e-15
1.26364e-15
1.47953e-15
1.7296e-15
2.01878e-15
2.35262e-15
2.73735e-15
3.17996e-15
3.68828e-15
4.27104e-15
4.93797e-15
5.69989e-15
6.56877e-15
7.55786e-15
8.68177e-15
9.95657e-15
1.13999e-14
1.3031e-14
1.48709e-14
1.69426e-14
1.92708e-14
2.18824e-14
2.48064e-14
2.80739e-14
3.17182e-14
3.57749e-14
4.02819e-14
4.52794e-14
5.08096e-14
5.69173e-14
6.3649e-14
7.10535e-14
7.91813e-14
8.80846e-14
9.78169e-14
1.08433e-13
1.19988e-13
1.32538e-13
1.4614e-13
1.60847e-13
1.76716e-13
1.93797e-13
2.12143e-13
2.31799e-13
2.52811e-13
2.75216e-13
2.99049e-13
3.24338e-13
3.51102e-13
3.79355e-13
4.09101e-13
4.40333e-13
4.73035e-13
5.07178e-13
5.42721e-13
5.79613e-13
6.17784e-13
6.57154e-13
6.97626e-13
7.3909e-13
7.81417e-13
8.24466e-13
8.68081e-13
9.12089e-13
9.56303e-13
1.00052e-12
1.04454e-12
1.08812e-12
1.13104e-12
1.17305e-12
1.21391e-12
1.25335e-12
1.29113e-12
1.32698e-12
1.36066e-12
1.3919e-12
1.42048e-12
1.44615e-12
1.46872e-12
1.48796e-12
1.5037e-12
1.51579e-12
1.52407e-12
1.52846e-12
1.52885e-12
1.52521e-12
1.51751e-12
1.50576e-12
1.49002e-12
1.47035e-12
1.44687e-12
1.41974e-12
1.38911e-12
1.35521e-12
1.31826e-12
1.27853e-12
1.2363e-12
1.19187e-12
1.14556e-12
1.0977e-12
1.04864e-12
9.9873e-13
9.48314e-13
8.97742e-13
8.47357e-13
7.97494e-13
7.48472e-13
7.00599e-13
6.54162e-13
6.09429e-13
5.66643e-13
5.26025e-13
4.8777e-13
4.52045e-13
4.18991e-13
3.88721e-13
3.61321e-13
3.36848e-13
3.15334e-13
2.96785e-13
2.81181e-13
2.68476e-13
2.58604e-13
2.51473e-13
2.46973e-13
2.44971e-13
2.45315e-13
2.47836e-13
2.52348e-13
2.5865e-13
2.66524e-13
2.75742e-13
2.86065e-13
2.97243e-13
3.09023e-13
3.21144e-13
3.33347e-13
3.45371e-13
3.56963e-13
3.67877e-13
3.77879e-13
3.86751e-13
3.94293e-13
4.00328e-13
4.04705e-13
4.07301e-13
4.08024e-13
4.06815e-13
4.03646e-13
3.98527e-13
3.91497e-13
3.82632e-13
3.72035e-13
3.59837e-13
3.46196e-13
3.31288e-13
3.15305e-13
2.98452e-13
2.8094e-13
2.62982e-13
2.44787e-13
2.2656e-13
2.08491e-13
1.90757e-13
1.73517e-13
1.56912e-13
1.4106e-13
1.26056e-13
1.11974e-13
9.88664e-14
8.67643e-14
7.56794e-14
6.56056e-14
5.65216e-14
4.83931e-14
4.11749e-14
3.48134e-14
2.92489e-14
2.4418e-14
2.0255e-14
1.66941e-14
1.36706e-14
1.11224e-14
8.99035e-15
7.21963e-15
5.7597e-15
4.5648e-15
3.59392e-15
2.8108e-15
2.18372e-15
1.68523e-15
1.29184e-15
9.83633e-16
7.43922e-16
5.58835e-16
4.16958e-16
3.08992e-16
2.27426e-16
1.66252e-16
1.20703e-16
8.70345e-17
6.23275e-17
4.43279e-17
3.13098e-17
2.19626e-17
1.52997e-17
1.05845e-17
7.27181e-18
4.96109e-18
3.36074e-18
2.26003e-18
1.50787e-18
9.96662e-19
6.50224e-19
4.14764e-19
2.52151e-19
1.34902e-19
4.23555e-20
3.51079e-19
1.0675e-18
1.82734e-18
2.66153e-18
3.60385e-18
4.69215e-18
5.96968e-18
7.48652e-18
9.30133e-18
1.14831e-17
1.41136e-17
1.72895e-17
2.11255e-17
2.57579e-17
3.13484e-17
3.80887e-17
4.62057e-17
5.59682e-17
6.76937e-17
8.17567e-17
9.85984e-17
1.18738e-16
1.42784e-16
1.71451e-16
2.05574e-16
2.46129e-16
2.94251e-16
3.51263e-16
4.187e-16
4.98342e-16
5.92247e-16
7.02791e-16
8.32709e-16
9.85151e-16
1.16373e-15
1.37257e-15
1.61641e-15
1.90064e-15
2.23139e-15
2.61562e-15
3.06122e-15
3.57712e-15
4.17339e-15
4.86136e-15
5.65374e-15
6.56481e-15
7.61049e-15
8.80856e-15
1.01788e-14
1.17431e-14
1.35258e-14
1.55538e-14
1.78565e-14
2.04663e-14
2.34189e-14
2.6753e-14
3.05109e-14
3.47385e-14
3.94856e-14
4.48058e-14
5.07568e-14
5.74008e-14
6.48038e-14
7.30365e-14
8.21737e-14
9.22947e-14
1.03483e-13
1.15826e-13
1.29414e-13
1.44344e-13
1.60713e-13
1.78622e-13
1.98174e-13
2.19475e-13
2.42631e-13
2.67748e-13
2.94931e-13
3.24285e-13
3.55911e-13
3.89906e-13
4.26362e-13
4.65366e-13
5.06993e-13
5.51313e-13
5.98382e-13
6.48243e-13
7.00927e-13
7.56445e-13
8.14795e-13
8.7595e-13
9.39865e-13
1.00647e-12
1.07568e-12
1.14737e-12
1.2214e-12
1.29759e-12
1.37575e-12
1.45565e-12
1.53703e-12
1.61959e-12
1.70304e-12
1.78703e-12
1.87118e-12
1.95511e-12
2.03841e-12
2.12063e-12
2.20133e-12
2.28004e-12
2.35628e-12
2.42957e-12
2.49943e-12
2.56538e-12
2.62695e-12
2.68366e-12
2.73508e-12
2.78079e-12
2.82039e-12
2.85353e-12
2.87989e-12
2.89919e-12
2.91119e-12
2.91572e-12
2.91266e-12
2.90193e-12
2.88354e-12
2.85753e-12
2.82403e-12
2.78321e-12
2.73531e-12
2.68064e-12
2.61955e-12
2.55246e-12
2.47983e-12
2.40216e-12
2.32001e-12
2.23396e-12
2.14461e-12
2.05261e-12
1.95859e-12
1.86322e-12
1.76714e-12
1.671e-12
1.57545e-12
1.48109e-12
1.38851e-12
1.29827e-12
1.2109e-12
1.12687e-12
1.04662e-12
9.70551e-13
8.98998e-13
8.32256e-13
7.70567e-13
7.14122e-13
6.63061e-13
6.17473e-13
5.77399e-13
5.42833e-13
5.13722e-13
4.8997e-13
4.71437e-13
4.57944e-13
4.49277e-13
4.45181e-13
4.4537e-13
4.49527e-13
4.57303e-13
4.68326e-13
4.82196e-13
4.98493e-13
5.1678e-13
5.36602e-13
5.57497e-13
5.78994e-13
6.00623e-13
6.21916e-13
6.42418e-13
6.61686e-13
6.79303e-13
6.94878e-13
7.08057e-13
7.18526e-13
7.26017e-13
7.30315e-13
7.31259e-13
7.28747e-13
7.22736e-13
7.13246e-13
7.00354e-13
6.84197e-13
6.64964e-13
6.42894e-13
6.18269e-13
5.91407e-13
5.62654e-13
5.32376e-13
5.0095e-13
4.68756e-13
4.36169e-13
4.03549e-13
3.71237e-13
3.39546e-13
3.08759e-13
2.79123e-13
2.50845e-13
2.24095e-13
1.99003e-13
1.75657e-13
1.54112e-13
1.34386e-13
1.16467e-13
1.00315e-13
8.58668e-14
7.30413e-14
6.17418e-14
5.18614e-14
4.3286e-14
3.58985e-14
2.95813e-14
2.4219e-14
1.97006e-14
1.59213e-14
1.27832e-14
1.01965e-14
8.07976e-15
6.36027e-15
4.9736e-15
3.86344e-15
2.98109e-15
2.28489e-15
1.73954e-15
1.31546e-15
9.8806e-16
7.37131e-16
5.46204e-16
4.01982e-16
2.93828e-16
2.13308e-16
1.53796e-16
1.10129e-16
7.83196e-17
5.53154e-17
3.87993e-17
2.70272e-17
1.86969e-17
1.28447e-17
8.76281e-18
5.93592e-18
3.9917e-18
2.66317e-18
1.76025e-18
1.14838e-18
7.32524e-19
4.4533e-19
2.38255e-19
7.48065e-20
6.66632e-19
2.02691e-18
3.46943e-18
5.05278e-18
6.8409e-18
8.90543e-18
1.13282e-17
1.42039e-17
1.76436e-17
2.17775e-17
2.67601e-17
3.27739e-17
4.00357e-17
4.88025e-17
5.93792e-17
7.21273e-17
8.74746e-17
1.05927e-16
1.28083e-16
1.54647e-16
1.86449e-16
2.24465e-16
2.69839e-16
3.23913e-16
3.88254e-16
4.64692e-16
5.55357e-16
6.62728e-16
7.89678e-16
9.39539e-16
1.11616e-15
1.32397e-15
1.5681e-15
1.8544e-15
2.18961e-15
2.58144e-15
3.03867e-15
3.57133e-15
4.19081e-15
4.91003e-15
5.74362e-15
6.70809e-15
7.82207e-15
9.10648e-15
1.05848e-14
1.22833e-14
1.42313e-14
1.64614e-14
1.901e-14
2.19171e-14
2.52274e-14
2.89896e-14
3.32576e-14
3.80906e-14
4.35528e-14
4.97149e-14
5.66531e-14
6.44504e-14
7.31962e-14
8.29872e-14
9.39266e-14
1.06125e-13
1.19702e-13
1.3478e-13
1.51495e-13
1.69985e-13
1.90396e-13
2.12884e-13
2.37606e-13
2.64729e-13
2.94423e-13
3.2686e-13
3.6222e-13
4.0068e-13
4.42421e-13
4.8762e-13
5.36455e-13
5.89097e-13
6.45712e-13
7.06456e-13
7.71476e-13
8.40904e-13
9.14858e-13
9.93437e-13
1.07672e-12
1.16475e-12
1.25757e-12
1.35517e-12
1.45751e-12
1.56452e-12
1.6761e-12
1.7921e-12
1.91232e-12
2.03653e-12
2.16445e-12
2.29576e-12
2.43007e-12
2.56697e-12
2.70598e-12
2.84659e-12
2.98824e-12
3.1303e-12
3.27215e-12
3.41308e-12
3.55238e-12
3.68931e-12
3.82308e-12
3.9529e-12
4.07798e-12
4.1975e-12
4.31066e-12
4.41667e-12
4.51474e-12
4.60414e-12
4.68415e-12
4.7541e-12
4.81338e-12
4.86144e-12
4.8978e-12
4.92204e-12
4.93385e-12
4.93299e-12
4.91932e-12
4.8928e-12
4.85348e-12
4.80153e-12
4.73721e-12
4.66088e-12
4.573e-12
4.47415e-12
4.36496e-12
4.24619e-12
4.11863e-12
3.98318e-12
3.84078e-12
3.69241e-12
3.53913e-12
3.38198e-12
3.22205e-12
3.06041e-12
2.89815e-12
2.73632e-12
2.57595e-12
2.41803e-12
2.26351e-12
2.11327e-12
1.96814e-12
1.82888e-12
1.69615e-12
1.57057e-12
1.45266e-12
1.34284e-12
1.24148e-12
1.14884e-12
1.06511e-12
9.90393e-13
9.2472e-13
8.68044e-13
8.20244e-13
7.81133e-13
7.50456e-13
7.27899e-13
7.13088e-13
7.05596e-13
7.04943e-13
7.10604e-13
7.22009e-13
7.38549e-13
7.59579e-13
7.84425e-13
8.12385e-13
8.42739e-13
8.74751e-13
9.0768e-13
9.40785e-13
9.73335e-13
1.00461e-12
1.03394e-12
1.06066e-12
1.08417e-12
1.10393e-12
1.11946e-12
1.13034e-12
1.13626e-12
1.13697e-12
1.13232e-12
1.12226e-12
1.10682e-12
1.08615e-12
1.06045e-12
1.03002e-12
9.95259e-13
9.56592e-13
9.1452e-13
8.69582e-13
8.22346e-13
7.73398e-13
7.23324e-13
6.72702e-13
6.22087e-13
5.72002e-13
5.22928e-13
4.75296e-13
4.29482e-13
3.85804e-13
3.44516e-13
3.05813e-13
2.69828e-13
2.36639e-13
2.06271e-13
1.787e-13
1.53861e-13
1.31655e-13
1.11952e-13
9.46017e-14
7.94371e-14
6.62814e-14
5.49528e-14
4.52692e-14
3.70527e-14
3.01319e-14
2.4345e-14
1.95416e-14
1.55835e-14
1.23456e-14
9.7161e-15
7.59614e-15
5.89938e-15
4.55116e-15
3.48763e-15
2.65474e-15
2.0072e-15
1.50739e-15
1.1244e-15
8.33042e-16
6.12998e-16
4.48012e-16
3.25202e-16
2.34446e-16
1.67862e-16
1.19366e-16
8.4298e-17
5.91236e-17
4.11819e-17
2.84871e-17
1.95693e-17
1.33498e-17
9.04275e-18
6.08072e-18
4.0568e-18
2.68134e-18
1.74927e-18
1.11581e-18
6.78341e-19
3.62919e-19
1.13949e-19
1.22802e-18
3.73369e-18
6.39045e-18
9.30591e-18
1.25975e-17
1.63968e-17
2.08539e-17
2.61426e-17
3.24663e-17
4.00641e-17
4.92186e-17
6.02644e-17
7.35982e-17
8.96904e-17
1.09099e-16
1.32484e-16
1.60627e-16
1.94454e-16
2.35056e-16
2.83719e-16
3.41956e-16
4.11547e-16
4.94576e-16
5.93486e-16
7.11128e-16
8.50831e-16
1.01647e-15
1.21253e-15
1.44425e-15
1.71766e-15
2.03972e-15
2.41849e-15
2.8632e-15
3.38448e-15
3.99447e-15
4.70707e-15
5.53814e-15
6.50572e-15
7.63031e-15
8.93511e-15
1.04464e-14
1.21938e-14
1.42105e-14
1.65342e-14
1.92066e-14
2.22746e-14
2.57904e-14
2.9812e-14
3.44039e-14
3.96373e-14
4.55908e-14
5.23507e-14
6.0012e-14
6.86784e-14
7.84633e-14
8.94897e-14
1.01891e-13
1.15813e-13
1.31409e-13
1.48848e-13
1.68309e-13
1.89982e-13
2.14071e-13
2.4079e-13
2.70365e-13
3.03036e-13
3.39049e-13
3.78665e-13
4.22151e-13
4.69784e-13
5.21845e-13
5.78623e-13
6.40409e-13
7.07495e-13
7.80172e-13
8.58726e-13
9.43437e-13
1.03457e-12
1.13239e-12
1.23714e-12
1.34902e-12
1.46822e-12
1.59493e-12
1.72925e-12
1.87128e-12
2.02107e-12
2.17861e-12
2.34385e-12
2.51668e-12
2.69693e-12
2.88436e-12
3.07868e-12
3.2795e-12
3.48637e-12
3.69879e-12
3.91614e-12
4.13775e-12
4.36286e-12
4.59066e-12
4.82023e-12
5.05061e-12
5.28076e-12
5.50958e-12
5.73591e-12
5.95856e-12
6.1763e-12
6.38784e-12
6.59191e-12
6.78721e-12
6.97244e-12
7.14634e-12
7.30766e-12
7.45519e-12
7.58779e-12
7.70438e-12
7.80396e-12
7.88563e-12
7.94861e-12
7.99223e-12
8.01593e-12
8.01932e-12
8.00215e-12
7.96431e-12
7.90587e-12
7.82703e-12
7.7282e-12
7.6099e-12
7.47284e-12
7.31788e-12
7.14602e-12
6.95838e-12
6.75624e-12
6.54097e-12
6.31404e-12
6.077e-12
5.83149e-12
5.57917e-12
5.32174e-12
5.06091e-12
4.7984e-12
4.53589e-12
4.27502e-12
4.01738e-12
3.7645e-12
3.5178e-12
3.27863e-12
3.0482e-12
2.82763e-12
2.61792e-12
2.41993e-12
2.23439e-12
2.06191e-12
1.90296e-12
1.75788e-12
1.62688e-12
1.51007e-12
1.40741e-12
1.31876e-12
1.24388e-12
1.18241e-12
1.13393e-12
1.09789e-12
1.07368e-12
1.06061e-12
1.05791e-12
1.06474e-12
1.08023e-12
1.10343e-12
1.13334e-12
1.16893e-12
1.20913e-12
1.25287e-12
1.29903e-12
1.3465e-12
1.39418e-12
1.44099e-12
1.48587e-12
1.52781e-12
1.56586e-12
1.59914e-12
1.62687e-12
1.64834e-12
1.66297e-12
1.6703e-12
1.66999e-12
1.66185e-12
1.6458e-12
1.62193e-12
1.59045e-12
1.55167e-12
1.50608e-12
1.45422e-12
1.39676e-12
1.33442e-12
1.26801e-12
1.19835e-12
1.1263e-12
1.05272e-12
9.78451e-13
9.04291e-13
8.31e-13
7.59273e-13
6.89728e-13
6.22906e-13
5.59259e-13
4.99149e-13
4.4285e-13
3.90548e-13
3.42346e-13
2.98273e-13
2.58286e-13
2.22287e-13
1.90123e-13
1.61602e-13
1.36502e-13
1.14576e-13
9.5564e-14
7.92011e-14
6.52213e-14
5.33649e-14
4.33827e-14
3.50398e-14
2.81175e-14
2.24156e-14
1.7753e-14
1.39679e-14
1.09174e-14
8.47659e-15
6.53779e-15
5.00885e-15
3.81184e-15
2.88145e-15
2.16351e-15
1.61351e-15
1.1952e-15
8.79346e-16
6.42572e-16
4.6636e-16
3.36164e-16
2.40661e-16
1.71112e-16
1.20829e-16
8.47369e-17
5.90173e-17
4.08212e-17
2.80404e-17
1.91274e-17
1.29556e-17
8.71152e-18
5.81177e-18
3.84118e-18
2.5059e-18
1.59842e-18
9.71737e-19
5.19889e-19
1.63235e-19
2.23071e-18
6.78205e-18
1.16071e-17
1.69008e-17
2.28759e-17
2.97703e-17
3.78559e-17
4.74471e-17
5.89114e-17
7.26813e-17
8.92671e-17
1.09273e-16
1.33416e-16
1.62544e-16
1.97663e-16
2.39964e-16
2.90856e-16
3.52005e-16
4.25375e-16
5.13282e-16
6.18446e-16
7.44066e-16
8.93888e-16
1.07229e-15
1.2844e-15
1.53618e-15
1.83458e-15
2.18763e-15
2.6047e-15
3.09656e-15
3.67569e-15
4.35643e-15
5.15528e-15
6.09116e-15
7.18571e-15
8.46366e-15
9.95318e-15
1.16863e-14
1.36994e-14
1.60336e-14
1.87353e-14
2.18568e-14
2.54571e-14
2.96021e-14
3.43655e-14
3.98297e-14
4.60863e-14
5.3237e-14
6.13945e-14
7.06832e-14
8.12399e-14
9.32152e-14
1.06774e-13
1.22095e-13
1.39376e-13
1.58828e-13
1.80681e-13
2.05184e-13
2.32602e-13
2.63222e-13
2.97347e-13
3.35303e-13
3.77432e-13
4.24096e-13
4.75676e-13
5.3257e-13
5.95191e-13
6.6397e-13
7.39347e-13
8.21777e-13
9.1172e-13
1.00964e-12
1.11601e-12
1.2313e-12
1.35596e-12
1.49044e-12
1.63518e-12
1.79059e-12
1.95704e-12
2.1349e-12
2.32446e-12
2.52599e-12
2.7397e-12
2.96573e-12
3.20415e-12
3.45498e-12
3.71811e-12
3.99339e-12
4.28054e-12
4.57918e-12
4.88884e-12
5.20893e-12
5.53874e-12
5.87743e-12
6.22407e-12
6.57757e-12
6.93675e-12
7.30029e-12
7.66677e-12
8.03465e-12
8.40228e-12
8.76794e-12
9.1298e-12
9.48596e-12
9.83447e-12
1.01733e-11
1.05005e-11
1.08139e-11
1.11116e-11
1.13914e-11
1.16515e-11
1.18899e-11
1.21048e-11
1.22946e-11
1.24576e-11
1.25923e-11
1.26976e-11
1.27723e-11
1.28156e-11
1.28269e-11
1.28056e-11
1.27516e-11
1.26649e-11
1.25459e-11
1.23951e-11
1.22134e-11
1.20017e-11
1.17614e-11
1.1494e-11
1.12012e-11
1.0885e-11
1.05475e-11
1.01909e-11
9.81772e-12
9.4304e-12
9.03154e-12
8.62379e-12
8.20981e-12
7.79228e-12
7.37384e-12
6.95705e-12
6.54443e-12
6.13835e-12
5.74109e-12
5.35477e-12
4.98134e-12
4.62258e-12
4.28009e-12
3.95525e-12
3.64928e-12
3.36317e-12
3.0977e-12
2.85346e-12
2.63086e-12
2.4301e-12
2.25119e-12
2.09399e-12
1.95817e-12
1.84327e-12
1.74866e-12
1.6736e-12
1.6172e-12
1.57848e-12
1.55632e-12
1.54955e-12
1.55686e-12
1.5769e-12
1.60824e-12
1.64938e-12
1.69878e-12
1.75486e-12
1.81601e-12
1.88061e-12
1.94704e-12
2.0137e-12
2.07902e-12
2.14149e-12
2.19964e-12
2.25214e-12
2.29773e-12
2.3353e-12
2.36387e-12
2.38263e-12
2.39094e-12
2.38836e-12
2.37462e-12
2.34966e-12
2.31362e-12
2.26681e-12
2.20975e-12
2.14309e-12
2.06767e-12
1.98443e-12
1.89443e-12
1.79881e-12
1.69875e-12
1.59548e-12
1.49021e-12
1.38412e-12
1.27836e-12
1.17398e-12
1.07196e-12
9.73164e-13
8.78344e-13
7.88124e-13
7.03004e-13
6.23357e-13
5.4943e-13
4.81358e-13
4.19166e-13
3.62786e-13
3.12066e-13
2.66781e-13
2.26653e-13
1.91361e-13
1.60551e-13
1.33853e-13
1.10888e-13
9.12777e-14
7.46553e-14
6.06677e-14
4.89827e-14
3.9292e-14
3.13134e-14
2.4792e-14
1.95e-14
1.52366e-14
1.18268e-14
9.11918e-15
6.98471e-15
5.31417e-15
4.01613e-15
3.01479e-15
2.24789e-15
1.66478e-15
1.22459e-15
8.94697e-16
6.49235e-16
4.67911e-16
3.34931e-16
2.38107e-16
1.68116e-16
1.17885e-16
8.20961e-17
5.67793e-17
3.89989e-17
2.66007e-17
1.80165e-17
1.21139e-17
8.08132e-18
5.34105e-18
3.4843e-18
2.22248e-18
1.35112e-18
7.22864e-19
2.26966e-19
4.01361e-18
1.22022e-17
2.08819e-17
3.04026e-17
4.11457e-17
5.35383e-17
6.80674e-17
8.52965e-17
1.05884e-16
1.30604e-16
1.6037e-16
1.96264e-16
2.39566e-16
2.91793e-16
3.54743e-16
4.30543e-16
5.21709e-16
6.31212e-16
7.62558e-16
9.19871e-16
1.108e-15
1.33265e-15
1.60047e-15
1.91928e-15
2.29816e-15
2.74772e-15
3.28029e-15
3.91015e-15
4.65387e-15
5.53058e-15
6.56234e-15
7.77454e-15
9.19633e-15
1.08611e-14
1.28071e-14
1.50779e-14
1.77232e-14
2.07992e-14
2.43698e-14
2.85073e-14
3.32931e-14
3.8819e-14
4.51877e-14
5.25145e-14
6.09281e-14
7.0572e-14
8.16055e-14
9.42052e-14
1.08566e-13
1.24904e-13
1.43456e-13
1.6448e-13
1.8826e-13
2.15104e-13
2.4535e-13
2.79359e-13
3.17524e-13
3.60266e-13
4.08038e-13
4.61322e-13
5.20632e-13
5.86513e-13
6.59539e-13
7.40316e-13
8.29475e-13
9.27676e-13
1.0356e-12
1.15395e-12
1.28346e-12
1.42484e-12
1.57886e-12
1.74625e-12
1.92776e-12
2.12412e-12
2.33605e-12
2.56424e-12
2.80935e-12
3.07199e-12
3.35272e-12
3.65204e-12
3.97036e-12
4.30801e-12
4.66523e-12
5.04215e-12
5.43877e-12
5.85497e-12
6.29046e-12
6.74484e-12
7.21751e-12
7.70772e-12
8.21454e-12
8.73684e-12
9.27332e-12
9.82249e-12
1.03827e-11
1.09519e-11
1.15283e-11
1.21094e-11
1.26929e-11
1.32762e-11
1.38566e-11
1.44311e-11
1.49969e-11
1.55508e-11
1.60897e-11
1.66103e-11
1.71096e-11
1.75842e-11
1.80309e-11
1.84468e-11
1.88288e-11
1.9174e-11
1.94798e-11
1.97436e-11
1.99633e-11
2.01367e-11
2.02622e-11
2.03384e-11
2.03643e-11
2.0339e-11
2.02623e-11
2.01342e-11
1.99552e-11
1.9726e-11
1.94479e-11
1.91224e-11
1.87516e-11
1.83377e-11
1.78834e-11
1.73916e-11
1.68657e-11
1.6309e-11
1.57253e-11
1.51185e-11
1.44924e-11
1.38514e-11
1.31993e-11
1.25405e-11
1.1879e-11
1.12187e-11
1.05637e-11
9.9176e-12
9.284e-12
8.66621e-12
8.06733e-12
7.49016e-12
6.93724e-12
6.4108e-12
5.91276e-12
5.44474e-12
5.00804e-12
4.60364e-12
4.23225e-12
3.89425e-12
3.58976e-12
3.31862e-12
3.08043e-12
2.87455e-12
2.70011e-12
2.55606e-12
2.44112e-12
2.35389e-12
2.29278e-12
2.25606e-12
2.24189e-12
2.24831e-12
2.27324e-12
2.31455e-12
2.37001e-12
2.43734e-12
2.51423e-12
2.59832e-12
2.68726e-12
2.77873e-12
2.87042e-12
2.96009e-12
3.04558e-12
3.12486e-12
3.19601e-12
3.2573e-12
3.30716e-12
3.34426e-12
3.36748e-12
3.37596e-12
3.36911e-12
3.3466e-12
3.3084e-12
3.25472e-12
3.18605e-12
3.10314e-12
3.00697e-12
2.89872e-12
2.77974e-12
2.65153e-12
2.5157e-12
2.37392e-12
2.22791e-12
2.07936e-12
1.92992e-12
1.78117e-12
1.63459e-12
1.49152e-12
1.35315e-12
1.2205e-12
1.09444e-12
9.75621e-13
8.64558e-13
7.61571e-13
6.66827e-13
5.80343e-13
5.02007e-13
4.31589e-13
3.68767e-13
3.1314e-13
2.6425e-13
2.21598e-13
1.84662e-13
1.5291e-13
1.25814e-13
1.02859e-13
8.35526e-14
6.74331e-14
5.40716e-14
4.30761e-14
3.40928e-14
2.68064e-14
2.09388e-14
1.62478e-14
1.25243e-14
9.59006e-15
7.2944e-15
5.51124e-15
4.1361e-15
3.08325e-15
2.28294e-15
1.67896e-15
1.22642e-15
8.89783e-16
6.41167e-16
4.58875e-16
3.26172e-16
2.30264e-16
1.61445e-16
1.12419e-16
7.77432e-17
5.33933e-17
3.64162e-17
2.46629e-17
1.65819e-17
1.10615e-17
7.31042e-18
4.76894e-18
3.04186e-18
1.84923e-18
9.89359e-19
3.10641e-19
7.16172e-18
2.17723e-17
3.72572e-17
5.42386e-17
7.33956e-17
9.54875e-17
1.2138e-16
1.52076e-16
1.88744e-16
2.32759e-16
2.85743e-16
3.49616e-16
4.26649e-16
5.19533e-16
6.31453e-16
7.6618e-16
9.28169e-16
1.12268e-15
1.35592e-15
1.63517e-15
1.96903e-15
2.36754e-15
2.84248e-15
3.40762e-15
4.07901e-15
4.87533e-15
5.8183e-15
6.9331e-15
8.24884e-15
9.79918e-15
1.16229e-14
1.37645e-14
1.62752e-14
1.92135e-14
2.26463e-14
2.665e-14
3.13112e-14
3.67283e-14
4.30127e-14
5.02904e-14
5.8703e-14
6.84099e-14
7.95897e-14
9.24423e-14
1.07191e-13
1.24082e-13
1.43393e-13
1.65427e-13
1.9052e-13
2.19042e-13
2.51399e-13
2.88034e-13
3.29432e-13
3.7612e-13
4.28667e-13
4.87691e-13
5.53854e-13
6.2787e-13
7.10499e-13
8.02551e-13
9.04888e-13
1.01842e-12
1.14409e-12
1.28292e-12
1.43594e-12
1.60424e-12
1.78892e-12
1.99115e-12
2.21208e-12
2.45289e-12
2.71478e-12
2.99892e-12
3.30649e-12
3.63864e-12
3.99645e-12
4.38099e-12
4.79322e-12
5.23405e-12
5.70427e-12
6.20456e-12
6.73544e-12
7.29731e-12
7.89037e-12
8.51464e-12
9.16994e-12
9.85584e-12
1.05717e-11
1.13166e-11
1.20893e-11
1.28885e-11
1.37123e-11
1.45587e-11
1.54253e-11
1.63095e-11
1.72083e-11
1.81186e-11
1.90366e-11
1.99588e-11
2.08809e-11
2.17988e-11
2.27078e-11
2.36034e-11
2.44806e-11
2.53346e-11
2.61603e-11
2.69528e-11
2.77069e-11
2.84176e-11
2.90802e-11
2.969e-11
3.02424e-11
3.07332e-11
3.11585e-11
3.15148e-11
3.17989e-11
3.2008e-11
3.214e-11
3.21932e-11
3.21663e-11
3.20588e-11
3.18707e-11
3.16026e-11
3.12557e-11
3.08318e-11
3.03332e-11
2.97631e-11
2.91249e-11
2.84225e-11
2.76607e-11
2.68442e-11
2.59785e-11
2.50692e-11
2.41223e-11
2.31439e-11
2.21403e-11
2.1118e-11
2.00832e-11
1.90423e-11
1.80017e-11
1.69672e-11
1.59448e-11
1.49399e-11
1.39579e-11
1.30034e-11
1.20811e-11
1.11948e-11
1.03481e-11
9.54404e-12
8.78529e-12
8.07393e-12
7.4116e-12
6.79947e-12
6.23827e-12
5.72829e-12
5.26941e-12
4.86111e-12
4.50253e-12
4.19247e-12
3.9294e-12
3.71154e-12
3.53683e-12
3.40299e-12
3.30752e-12
3.24777e-12
3.22089e-12
3.2239e-12
3.2537e-12
3.3071e-12
3.38081e-12
3.47148e-12
3.57574e-12
3.69018e-12
3.81143e-12
3.93613e-12
4.061e-12
4.18288e-12
4.29872e-12
4.40566e-12
4.50104e-12
4.58243e-12
4.6477e-12
4.69499e-12
4.72282e-12
4.73002e-12
4.71583e-12
4.67985e-12
4.62207e-12
4.54287e-12
4.44299e-12
4.32352e-12
4.18585e-12
4.03168e-12
3.86292e-12
3.68169e-12
3.49024e-12
3.29091e-12
3.08607e-12
2.87807e-12
2.66921e-12
2.46166e-12
2.25744e-12
2.05839e-12
1.86613e-12
1.68206e-12
1.50731e-12
1.3428e-12
1.18919e-12
1.04688e-12
9.16088e-13
7.96806e-13
6.88855e-13
5.91896e-13
5.05464e-13
4.28989e-13
3.61825e-13
3.03272e-13
2.526e-13
2.09068e-13
1.71942e-13
1.40508e-13
1.14087e-13
9.20385e-14
7.37722e-14
5.8748e-14
4.64793e-14
3.65326e-14
2.85263e-14
2.21281e-14
1.70517e-14
1.30529e-14
9.92546e-15
7.49708e-15
5.62499e-15
4.19211e-15
3.10325e-15
2.28175e-15
1.66639e-15
1.20876e-15
8.70862e-16
6.2316e-16
4.4288e-16
3.1261e-16
2.19152e-16
1.52584e-16
1.05508e-16
7.24554e-17
4.94132e-17
3.34628e-17
2.24972e-17
1.50067e-17
9.91745e-18
6.46947e-18
4.12647e-18
2.50859e-18
1.34212e-18
4.21402e-19
1.26778e-17
3.85405e-17
6.59471e-17
9.59964e-17
1.29887e-16
1.68959e-16
2.14741e-16
2.68999e-16
3.33795e-16
4.11553e-16
5.05131e-16
6.17907e-16
7.53882e-16
9.1779e-16
1.11524e-15
1.35285e-15
1.63846e-15
1.98131e-15
2.3923e-15
2.88423e-15
3.47214e-15
4.17369e-15
5.00951e-15
6.00372e-15
7.18442e-15
8.58431e-15
1.02414e-14
1.21996e-14
1.45099e-14
1.72309e-14
2.04303e-14
2.41858e-14
2.85865e-14
3.37342e-14
3.97452e-14
4.67521e-14
5.49054e-14
6.43756e-14
7.53559e-14
8.80639e-14
1.02745e-13
1.19673e-13
1.39158e-13
1.61542e-13
1.8721e-13
2.16586e-13
2.50144e-13
2.88403e-13
3.31939e-13
3.81383e-13
4.37425e-13
5.00821e-13
5.72391e-13
6.53028e-13
7.43696e-13
8.45433e-13
9.59356e-13
1.08666e-12
1.22861e-12
1.38658e-12
1.56197e-12
1.75631e-12
1.97117e-12
2.20819e-12
2.46909e-12
2.75563e-12
3.06963e-12
3.41292e-12
3.7874e-12
4.19494e-12
4.63742e-12
5.1167e-12
5.63461e-12
6.1929e-12
6.79324e-12
7.43721e-12
8.12624e-12
8.8616e-12
9.64438e-12
1.04755e-11
1.13555e-11
1.22848e-11
1.32634e-11
1.42912e-11
1.53673e-11
1.6491e-11
1.76606e-11
1.88745e-11
2.01303e-11
2.14253e-11
2.27563e-11
2.41196e-11
2.55111e-11
2.69261e-11
2.83597e-11
2.98061e-11
3.12595e-11
3.27136e-11
3.41615e-11
3.55963e-11
3.70106e-11
3.83969e-11
3.97474e-11
4.10542e-11
4.23095e-11
4.35054e-11
4.4634e-11
4.56878e-11
4.66595e-11
4.75419e-11
4.83285e-11
4.9013e-11
4.959e-11
5.00544e-11
5.04018e-11
5.06289e-11
5.07328e-11
5.07117e-11
5.05645e-11
5.02911e-11
4.98924e-11
4.93701e-11
4.87269e-11
4.79664e-11
4.70932e-11
4.61125e-11
4.50305e-11
4.38541e-11
4.25908e-11
4.12489e-11
3.9837e-11
3.83643e-11
3.68402e-11
3.52744e-11
3.36767e-11
3.2057e-11
3.04252e-11
2.87908e-11
2.71633e-11
2.55517e-11
2.39646e-11
2.24103e-11
2.08961e-11
1.94292e-11
1.80159e-11
1.66616e-11
1.53714e-11
1.41494e-11
1.29989e-11
1.19228e-11
1.0923e-11
1.00008e-11
9.15669e-12
8.39078e-12
7.70243e-12
7.09045e-12
6.55317e-12
6.08843e-12
5.69365e-12
5.36587e-12
5.10177e-12
4.89774e-12
4.7499e-12
4.65413e-12
4.60612e-12
4.60137e-12
4.63525e-12
4.70302e-12
4.79985e-12
4.92084e-12
5.0611e-12
5.21571e-12
5.37984e-12
5.5487e-12
5.71764e-12
5.8822e-12
6.03809e-12
6.18132e-12
6.30819e-12
6.41535e-12
6.49987e-12
6.55924e-12
6.59143e-12
6.59492e-12
6.5687e-12
6.51232e-12
6.42584e-12
6.30986e-12
6.16549e-12
5.99431e-12
5.79831e-12
5.5799e-12
5.34178e-12
5.0869e-12
4.8184e-12
4.53954e-12
4.25361e-12
3.96383e-12
3.67337e-12
3.38521e-12
3.10209e-12
2.82653e-12
2.56072e-12
2.30654e-12
2.06553e-12
1.83888e-12
1.62746e-12
1.43181e-12
1.25215e-12
1.08846e-12
9.40446e-13
8.07614e-13
6.89299e-13
5.84695e-13
4.92894e-13
4.1292e-13
3.43758e-13
2.84379e-13
2.3377e-13
1.90947e-13
1.54973e-13
1.24971e-13
1.00128e-13
7.97048e-14
6.30357e-14
4.95278e-14
3.86601e-14
2.99789e-14
2.30941e-14
1.76728e-14
1.34345e-14
1.01448e-14
7.60952e-15
5.66969e-15
4.19604e-15
3.08456e-15
2.25222e-15
1.63338e-15
1.17657e-15
8.41768e-16
5.98149e-16
4.22146e-16
2.95902e-16
2.05996e-16
1.42426e-16
9.77984e-17
6.66911e-17
4.51602e-17
3.03595e-17
2.02503e-17
1.33823e-17
8.72944e-18
5.56788e-18
3.38482e-18
1.81091e-18
5.68594e-19
2.22668e-17
6.76891e-17
1.15817e-16
1.68575e-16
2.28064e-16
2.96631e-16
3.76951e-16
4.72115e-16
5.85733e-16
7.22042e-16
8.8604e-16
1.08363e-15
1.32181e-15
1.60884e-15
1.95451e-15
2.37039e-15
2.87014e-15
3.46988e-15
4.18861e-15
5.04863e-15
6.07616e-15
7.30191e-15
8.7618e-15
1.04978e-14
1.25587e-14
1.50013e-14
1.78917e-14
2.1306e-14
2.53327e-14
3.00734e-14
3.56452e-14
4.21827e-14
4.98397e-14
5.87925e-14
6.92419e-14
8.14164e-14
9.55755e-14
1.12013e-13
1.31061e-13
1.53093e-13
1.78531e-13
2.07845e-13
2.41564e-13
2.80276e-13
3.24635e-13
3.75368e-13
4.3328e-13
4.99255e-13
5.74271e-13
6.59396e-13
7.55801e-13
8.6476e-13
9.87659e-13
1.126e-12
1.28139e-12
1.45559e-12
1.65044e-12
1.86795e-12
2.11024e-12
2.37953e-12
2.67819e-12
3.00871e-12
3.37367e-12
3.77576e-12
4.21777e-12
4.70256e-12
5.23305e-12
5.8122e-12
6.443e-12
7.12843e-12
7.87145e-12
8.67496e-12
9.54175e-12
1.04745e-11
1.14757e-11
1.25477e-11
1.36926e-11
1.4912e-11
1.62075e-11
1.75801e-11
1.90303e-11
2.05585e-11
2.21641e-11
2.38464e-11
2.56037e-11
2.7434e-11
2.93343e-11
3.13012e-11
3.33305e-11
3.54172e-11
3.75556e-11
3.97392e-11
4.19608e-11
4.42125e-11
4.64856e-11
4.87709e-11
5.10584e-11
5.33377e-11
5.55976e-11
5.78267e-11
6.00133e-11
6.21451e-11
6.42099e-11
6.61953e-11
6.80891e-11
6.98789e-11
7.1553e-11
7.30997e-11
7.4508e-11
7.57676e-11
7.68686e-11
7.78024e-11
7.85611e-11
7.91378e-11
7.9527e-11
7.97242e-11
7.97264e-11
7.95318e-11
7.91401e-11
7.85525e-11
7.77714e-11
7.68008e-11
7.56462e-11
7.43143e-11
7.28132e-11
7.11523e-11
6.9342e-11
6.73939e-11
6.53205e-11
6.31351e-11
6.08516e-11
5.84846e-11
5.60491e-11
5.356e-11
5.10328e-11
4.84824e-11
4.59238e-11
4.33716e-11
4.08399e-11
3.8342e-11
3.58907e-11
3.34979e-11
3.11743e-11
2.893e-11
2.67739e-11
2.47136e-11