/*--------------------------------*- C++ -*----------------------------------*\
| =========                 |                                                 |
| \\      /  F ield         | OpenFOAM: The Open Source CFD Toolbox           |
|  \\    /   O peration     | Version:  v2012                                 |
|   \\  /    A nd           | Website:  www.openfoam.com                      |
|    \\/     M anipulation  |                                                 |
\*---------------------------------------------------------------------------*/
FoamFile
{
    version     2.0;
    format      ascii;
    class       volVectorField;
    location    "12.3";
    object      Psi;
}
// * * * * * * * * * * * * * * * * * * * * * * * * * * * * * * * * * * * * * //

dimensions      [0 2 -1 0 0 0 0];


internalField   nonuniform List<vector> 
65536
(
(0 0 8.91669e-06)
(0 0 2.67505e-05)
(0 0 4.45856e-05)
(0 0 6.24228e-05)
(0 0 8.02628e-05)
(0 0 9.81066e-05)
(0 0 0.000115955)
(0 0 0.000133808)
(0 0 0.000151668)
(0 0 0.000169534)
(0 0 0.000187408)
(0 0 0.000205289)
(0 0 0.00022318)
(0 0 0.000241079)
(0 0 0.000258989)
(0 0 0.000276909)
(0 0 0.000294839)
(0 0 0.000312781)
(0 0 0.000330735)
(0 0 0.0003487)
(0 0 0.000366678)
(0 0 0.000384667)
(0 0 0.000402669)
(0 0 0.000420683)
(0 0 0.000438709)
(0 0 0.000456748)
(0 0 0.000474798)
(0 0 0.000492859)
(0 0 0.000510932)
(0 0 0.000529015)
(0 0 0.000547108)
(0 0 0.000565211)
(0 0 0.000583321)
(0 0 0.000601439)
(0 0 0.000619563)
(0 0 0.000637692)
(0 0 0.000655825)
(0 0 0.00067396)
(0 0 0.000692096)
(0 0 0.000710231)
(0 0 0.000728362)
(0 0 0.000746489)
(0 0 0.000764609)
(0 0 0.000782719)
(0 0 0.000800818)
(0 0 0.000818902)
(0 0 0.000836968)
(0 0 0.000855015)
(0 0 0.000873037)
(0 0 0.000891034)
(0 0 0.000909)
(0 0 0.000926932)
(0 0 0.000944827)
(0 0 0.00096268)
(0 0 0.000980488)
(0 0 0.000998246)
(0 0 0.00101595)
(0 0 0.00103359)
(0 0 0.00105117)
(0 0 0.00106868)
(0 0 0.00108612)
(0 0 0.00110348)
(0 0 0.00112075)
(0 0 0.00113793)
(0 0 0.00115501)
(0 0 0.00117199)
(0 0 0.00118886)
(0 0 0.00120562)
(0 0 0.00122225)
(0 0 0.00123875)
(0 0 0.00125512)
(0 0 0.00127135)
(0 0 0.00128742)
(0 0 0.00130334)
(0 0 0.0013191)
(0 0 0.00133468)
(0 0 0.00135009)
(0 0 0.0013653)
(0 0 0.00138033)
(0 0 0.00139515)
(0 0 0.00140976)
(0 0 0.00142415)
(0 0 0.00143832)
(0 0 0.00145225)
(0 0 0.00146594)
(0 0 0.00147939)
(0 0 0.00149257)
(0 0 0.0015055)
(0 0 0.00151814)
(0 0 0.00153051)
(0 0 0.00154259)
(0 0 0.00155438)
(0 0 0.00156586)
(0 0 0.00157703)
(0 0 0.00158789)
(0 0 0.00159842)
(0 0 0.00160862)
(0 0 0.00161849)
(0 0 0.00162801)
(0 0 0.00163717)
(0 0 0.00164599)
(0 0 0.00165444)
(0 0 0.00166252)
(0 0 0.00167023)
(0 0 0.00167757)
(0 0 0.00168452)
(0 0 0.00169108)
(0 0 0.00169725)
(0 0 0.00170303)
(0 0 0.00170841)
(0 0 0.00171339)
(0 0 0.00171797)
(0 0 0.00172214)
(0 0 0.0017259)
(0 0 0.00172924)
(0 0 0.00173218)
(0 0 0.00173471)
(0 0 0.00173682)
(0 0 0.00173851)
(0 0 0.00173979)
(0 0 0.00174066)
(0 0 0.00174112)
(0 0 0.00174116)
(0 0 0.00174079)
(0 0 0.00174002)
(0 0 0.00173883)
(0 0 0.00173724)
(0 0 0.00173525)
(0 0 0.00173286)
(0 0 0.00173008)
(0 0 0.0017269)
(0 0 0.00172333)
(0 0 0.00171938)
(0 0 0.00171505)
(0 0 0.00171034)
(0 0 0.00170527)
(0 0 0.00169982)
(0 0 0.00169402)
(0 0 0.00168787)
(0 0 0.00168136)
(0 0 0.00167451)
(0 0 0.00166733)
(0 0 0.00165981)
(0 0 0.00165197)
(0 0 0.00164382)
(0 0 0.00163535)
(0 0 0.00162658)
(0 0 0.00161751)
(0 0 0.00160815)
(0 0 0.0015985)
(0 0 0.00158858)
(0 0 0.00157839)
(0 0 0.00156794)
(0 0 0.00155723)
(0 0 0.00154627)
(0 0 0.00153508)
(0 0 0.00152364)
(0 0 0.00151198)
(0 0 0.0015001)
(0 0 0.00148801)
(0 0 0.00147571)
(0 0 0.00146321)
(0 0 0.00145052)
(0 0 0.00143764)
(0 0 0.00142459)
(0 0 0.00141136)
(0 0 0.00139796)
(0 0 0.00138441)
(0 0 0.0013707)
(0 0 0.00135685)
(0 0 0.00134286)
(0 0 0.00132873)
(0 0 0.00131447)
(0 0 0.00130009)
(0 0 0.00128559)
(0 0 0.00127097)
(0 0 0.00125626)
(0 0 0.00124144)
(0 0 0.00122652)
(0 0 0.00121151)
(0 0 0.00119642)
(0 0 0.00118125)
(0 0 0.00116599)
(0 0 0.00115067)
(0 0 0.00113528)
(0 0 0.00111982)
(0 0 0.0011043)
(0 0 0.00108873)
(0 0 0.0010731)
(0 0 0.00105743)
(0 0 0.00104171)
(0 0 0.00102595)
(0 0 0.00101015)
(0 0 0.000994316)
(0 0 0.000978449)
(0 0 0.000962553)
(0 0 0.00094663)
(0 0 0.000930683)
(0 0 0.000914715)
(0 0 0.000898728)
(0 0 0.000882724)
(0 0 0.000866706)
(0 0 0.000850676)
(0 0 0.000834635)
(0 0 0.000818586)
(0 0 0.00080253)
(0 0 0.000786469)
(0 0 0.000770404)
(0 0 0.000754338)
(0 0 0.000738271)
(0 0 0.000722205)
(0 0 0.000706141)
(0 0 0.00069008)
(0 0 0.000674023)
(0 0 0.000657972)
(0 0 0.000641926)
(0 0 0.000625887)
(0 0 0.000609856)
(0 0 0.000593833)
(0 0 0.000577819)
(0 0 0.000561814)
(0 0 0.000545819)
(0 0 0.000529834)
(0 0 0.00051386)
(0 0 0.000497897)
(0 0 0.000481944)
(0 0 0.000466003)
(0 0 0.000450073)
(0 0 0.000434155)
(0 0 0.000418248)
(0 0 0.000402353)
(0 0 0.000386469)
(0 0 0.000370596)
(0 0 0.000354734)
(0 0 0.000338883)
(0 0 0.000323042)
(0 0 0.000307212)
(0 0 0.000291392)
(0 0 0.000275582)
(0 0 0.000259781)
(0 0 0.000243989)
(0 0 0.000228206)
(0 0 0.000212431)
(0 0 0.000196663)
(0 0 0.000180903)
(0 0 0.000165149)
(0 0 0.000149402)
(0 0 0.00013366)
(0 0 0.000117923)
(0 0 0.000102191)
(0 0 8.64625e-05)
(0 0 7.07375e-05)
(0 0 5.50152e-05)
(0 0 3.92951e-05)
(0 0 2.35764e-05)
(0 0 7.85871e-06)
(0 0 2.67498e-05)
(0 0 8.02505e-05)
(0 0 0.000133755)
(0 0 0.000187266)
(0 0 0.000240785)
(0 0 0.000294316)
(0 0 0.00034786)
(0 0 0.000401419)
(0 0 0.000454997)
(0 0 0.000508595)
(0 0 0.000562215)
(0 0 0.00061586)
(0 0 0.00066953)
(0 0 0.000723229)
(0 0 0.000776957)
(0 0 0.000830716)
(0 0 0.000884508)
(0 0 0.000938334)
(0 0 0.000992194)
(0 0 0.00104609)
(0 0 0.00110002)
(0 0 0.00115399)
(0 0 0.001208)
(0 0 0.00126204)
(0 0 0.00131612)
(0 0 0.00137023)
(0 0 0.00142438)
(0 0 0.00147857)
(0 0 0.00153279)
(0 0 0.00158704)
(0 0 0.00164132)
(0 0 0.00169563)
(0 0 0.00174996)
(0 0 0.00180431)
(0 0 0.00185869)
(0 0 0.00191307)
(0 0 0.00196747)
(0 0 0.00202188)
(0 0 0.00207629)
(0 0 0.0021307)
(0 0 0.00218509)
(0 0 0.00223948)
(0 0 0.00229384)
(0 0 0.00234817)
(0 0 0.00240247)
(0 0 0.00245672)
(0 0 0.00251093)
(0 0 0.00256507)
(0 0 0.00261914)
(0 0 0.00267313)
(0 0 0.00272704)
(0 0 0.00278084)
(0 0 0.00283452)
(0 0 0.00288809)
(0 0 0.00294152)
(0 0 0.00299479)
(0 0 0.00304791)
(0 0 0.00310084)
(0 0 0.00315359)
(0 0 0.00320612)
(0 0 0.00325844)
(0 0 0.00331051)
(0 0 0.00336233)
(0 0 0.00341388)
(0 0 0.00346514)
(0 0 0.00351608)
(0 0 0.0035667)
(0 0 0.00361697)
(0 0 0.00366688)
(0 0 0.0037164)
(0 0 0.00376551)
(0 0 0.0038142)
(0 0 0.00386243)
(0 0 0.0039102)
(0 0 0.00395747)
(0 0 0.00400423)
(0 0 0.00405045)
(0 0 0.00409611)
(0 0 0.00414118)
(0 0 0.00418565)
(0 0 0.00422949)
(0 0 0.00427268)
(0 0 0.00431519)
(0 0 0.004357)
(0 0 0.00439808)
(0 0 0.00443842)
(0 0 0.00447799)
(0 0 0.00451676)
(0 0 0.00455471)
(0 0 0.00459183)
(0 0 0.00462808)
(0 0 0.00466344)
(0 0 0.0046979)
(0 0 0.00473142)
(0 0 0.004764)
(0 0 0.0047956)
(0 0 0.00482621)
(0 0 0.0048558)
(0 0 0.00488437)
(0 0 0.00491188)
(0 0 0.00493832)
(0 0 0.00496368)
(0 0 0.00498794)
(0 0 0.00501107)
(0 0 0.00503308)
(0 0 0.00505394)
(0 0 0.00507363)
(0 0 0.00509215)
(0 0 0.00510949)
(0 0 0.00512564)
(0 0 0.00514058)
(0 0 0.00515431)
(0 0 0.00516681)
(0 0 0.00517809)
(0 0 0.00518814)
(0 0 0.00519696)
(0 0 0.00520453)
(0 0 0.00521086)
(0 0 0.00521595)
(0 0 0.0052198)
(0 0 0.0052224)
(0 0 0.00522376)
(0 0 0.00522389)
(0 0 0.00522279)
(0 0 0.00522045)
(0 0 0.0052169)
(0 0 0.00521213)
(0 0 0.00520615)
(0 0 0.00519898)
(0 0 0.00519062)
(0 0 0.00518108)
(0 0 0.00517037)
(0 0 0.00515851)
(0 0 0.00514552)
(0 0 0.00513139)
(0 0 0.00511616)
(0 0 0.00509983)
(0 0 0.00508242)
(0 0 0.00506394)
(0 0 0.00504442)
(0 0 0.00502387)
(0 0 0.00500231)
(0 0 0.00497976)
(0 0 0.00495624)
(0 0 0.00493176)
(0 0 0.00490635)
(0 0 0.00488003)
(0 0 0.00485281)
(0 0 0.00482473)
(0 0 0.00479579)
(0 0 0.00476602)
(0 0 0.00473544)
(0 0 0.00470407)
(0 0 0.00467194)
(0 0 0.00463906)
(0 0 0.00460546)
(0 0 0.00457115)
(0 0 0.00453617)
(0 0 0.00450052)
(0 0 0.00446423)
(0 0 0.00442733)
(0 0 0.00438982)
(0 0 0.00435174)
(0 0 0.00431311)
(0 0 0.00427393)
(0 0 0.00423424)
(0 0 0.00419405)
(0 0 0.00415338)
(0 0 0.00411225)
(0 0 0.00407069)
(0 0 0.0040287)
(0 0 0.0039863)
(0 0 0.00394352)
(0 0 0.00390037)
(0 0 0.00385687)
(0 0 0.00381303)
(0 0 0.00376887)
(0 0 0.00372441)
(0 0 0.00367965)
(0 0 0.00363463)
(0 0 0.00358934)
(0 0 0.00354381)
(0 0 0.00349805)
(0 0 0.00345207)
(0 0 0.00340589)
(0 0 0.00335952)
(0 0 0.00331296)
(0 0 0.00326624)
(0 0 0.00321936)
(0 0 0.00317233)
(0 0 0.00312517)
(0 0 0.00307789)
(0 0 0.00303048)
(0 0 0.00298298)
(0 0 0.00293537)
(0 0 0.00288768)
(0 0 0.00283991)
(0 0 0.00279207)
(0 0 0.00274416)
(0 0 0.0026962)
(0 0 0.00264818)
(0 0 0.00260013)
(0 0 0.00255203)
(0 0 0.00250391)
(0 0 0.00245576)
(0 0 0.00240759)
(0 0 0.00235941)
(0 0 0.00231121)
(0 0 0.00226301)
(0 0 0.00221481)
(0 0 0.00216661)
(0 0 0.00211842)
(0 0 0.00207023)
(0 0 0.00202206)
(0 0 0.00197391)
(0 0 0.00192577)
(0 0 0.00187765)
(0 0 0.00182956)
(0 0 0.00178149)
(0 0 0.00173345)
(0 0 0.00168543)
(0 0 0.00163744)
(0 0 0.00158949)
(0 0 0.00154157)
(0 0 0.00149368)
(0 0 0.00144582)
(0 0 0.001398)
(0 0 0.00135021)
(0 0 0.00130245)
(0 0 0.00125473)
(0 0 0.00120705)
(0 0 0.00115939)
(0 0 0.00111177)
(0 0 0.00106419)
(0 0 0.00101664)
(0 0 0.000969116)
(0 0 0.000921626)
(0 0 0.000874166)
(0 0 0.000826736)
(0 0 0.000779334)
(0 0 0.000731959)
(0 0 0.000684609)
(0 0 0.000637284)
(0 0 0.000589982)
(0 0 0.000542702)
(0 0 0.000495441)
(0 0 0.0004482)
(0 0 0.000400975)
(0 0 0.000353765)
(0 0 0.000306569)
(0 0 0.000259384)
(0 0 0.00021221)
(0 0 0.000165043)
(0 0 0.000117884)
(0 0 7.07283e-05)
(0 0 2.35758e-05)
(0 0 4.45815e-05)
(0 0 0.000133747)
(0 0 0.000222918)
(0 0 0.0003121)
(0 0 0.000401296)
(0 0 0.000490511)
(0 0 0.000579748)
(0 0 0.000669012)
(0 0 0.000758306)
(0 0 0.000847633)
(0 0 0.000936998)
(0 0 0.0010264)
(0 0 0.00111585)
(0 0 0.00120535)
(0 0 0.00129489)
(0 0 0.00138449)
(0 0 0.00147414)
(0 0 0.00156385)
(0 0 0.00165362)
(0 0 0.00174344)
(0 0 0.00183333)
(0 0 0.00192328)
(0 0 0.00201329)
(0 0 0.00210336)
(0 0 0.00219349)
(0 0 0.00228368)
(0 0 0.00237393)
(0 0 0.00246424)
(0 0 0.00255461)
(0 0 0.00264503)
(0 0 0.0027355)
(0 0 0.00282601)
(0 0 0.00291657)
(0 0 0.00300717)
(0 0 0.00309779)
(0 0 0.00318845)
(0 0 0.00327912)
(0 0 0.0033698)
(0 0 0.00346049)
(0 0 0.00355117)
(0 0 0.00364184)
(0 0 0.00373249)
(0 0 0.0038231)
(0 0 0.00391366)
(0 0 0.00400416)
(0 0 0.0040946)
(0 0 0.00418495)
(0 0 0.00427519)
(0 0 0.00436532)
(0 0 0.00445532)
(0 0 0.00454517)
(0 0 0.00463485)
(0 0 0.00472435)
(0 0 0.00481363)
(0 0 0.00490269)
(0 0 0.0049915)
(0 0 0.00508004)
(0 0 0.00516829)
(0 0 0.00525621)
(0 0 0.00534379)
(0 0 0.005431)
(0 0 0.00551781)
(0 0 0.00560419)
(0 0 0.00569012)
(0 0 0.00577557)
(0 0 0.0058605)
(0 0 0.00594489)
(0 0 0.0060287)
(0 0 0.0061119)
(0 0 0.00619445)
(0 0 0.00627633)
(0 0 0.00635749)
(0 0 0.00643791)
(0 0 0.00651754)
(0 0 0.00659635)
(0 0 0.00667431)
(0 0 0.00675137)
(0 0 0.00682749)
(0 0 0.00690264)
(0 0 0.00697679)
(0 0 0.00704988)
(0 0 0.00712188)
(0 0 0.00719276)
(0 0 0.00726247)
(0 0 0.00733097)
(0 0 0.00739822)
(0 0 0.0074642)
(0 0 0.00752884)
(0 0 0.00759212)
(0 0 0.007654)
(0 0 0.00771445)
(0 0 0.00777341)
(0 0 0.00783086)
(0 0 0.00788676)
(0 0 0.00794107)
(0 0 0.00799376)
(0 0 0.0080448)
(0 0 0.00809415)
(0 0 0.00814178)
(0 0 0.00818765)
(0 0 0.00823174)
(0 0 0.00827403)
(0 0 0.00831447)
(0 0 0.00835305)
(0 0 0.00838974)
(0 0 0.00842451)
(0 0 0.00845736)
(0 0 0.00848824)
(0 0 0.00851715)
(0 0 0.00854407)
(0 0 0.00856898)
(0 0 0.00859187)
(0 0 0.00861272)
(0 0 0.00863153)
(0 0 0.00864828)
(0 0 0.00866297)
(0 0 0.0086756)
(0 0 0.00868615)
(0 0 0.00869463)
(0 0 0.00870104)
(0 0 0.00870538)
(0 0 0.00870765)
(0 0 0.00870786)
(0 0 0.00870601)
(0 0 0.00870211)
(0 0 0.00869618)
(0 0 0.00868822)
(0 0 0.00867825)
(0 0 0.00866628)
(0 0 0.00865233)
(0 0 0.00863642)
(0 0 0.00861857)
(0 0 0.00859879)
(0 0 0.00857711)
(0 0 0.00855356)
(0 0 0.00852815)
(0 0 0.00850091)
(0 0 0.00847188)
(0 0 0.00844107)
(0 0 0.00840851)
(0 0 0.00837424)
(0 0 0.00833829)
(0 0 0.00830068)
(0 0 0.00826146)
(0 0 0.00822064)
(0 0 0.00817827)
(0 0 0.00813437)
(0 0 0.00808899)
(0 0 0.00804215)
(0 0 0.0079939)
(0 0 0.00794426)
(0 0 0.00789327)
(0 0 0.00784097)
(0 0 0.00778739)
(0 0 0.00773257)
(0 0 0.00767654)
(0 0 0.00761934)
(0 0 0.00756101)
(0 0 0.00750157)
(0 0 0.00744107)
(0 0 0.00737954)
(0 0 0.00731701)
(0 0 0.00725352)
(0 0 0.0071891)
(0 0 0.00712379)
(0 0 0.00705762)
(0 0 0.00699061)
(0 0 0.00692281)
(0 0 0.00685425)
(0 0 0.00678495)
(0 0 0.00671494)
(0 0 0.00664427)
(0 0 0.00657294)
(0 0 0.00650101)
(0 0 0.00642848)
(0 0 0.0063554)
(0 0 0.00628178)
(0 0 0.00620766)
(0 0 0.00613306)
(0 0 0.006058)
(0 0 0.00598251)
(0 0 0.00590661)
(0 0 0.00583033)
(0 0 0.00575369)
(0 0 0.0056767)
(0 0 0.00559939)
(0 0 0.00552179)
(0 0 0.0054439)
(0 0 0.00536576)
(0 0 0.00528737)
(0 0 0.00520876)
(0 0 0.00512994)
(0 0 0.00505092)
(0 0 0.00497174)
(0 0 0.00489239)
(0 0 0.00481289)
(0 0 0.00473326)
(0 0 0.00465352)
(0 0 0.00457366)
(0 0 0.00449372)
(0 0 0.00441369)
(0 0 0.00433359)
(0 0 0.00425342)
(0 0 0.00417321)
(0 0 0.00409296)
(0 0 0.00401267)
(0 0 0.00393236)
(0 0 0.00385203)
(0 0 0.00377169)
(0 0 0.00369135)
(0 0 0.00361101)
(0 0 0.00353068)
(0 0 0.00345037)
(0 0 0.00337009)
(0 0 0.00328982)
(0 0 0.00320959)
(0 0 0.00312939)
(0 0 0.00304923)
(0 0 0.00296912)
(0 0 0.00288904)
(0 0 0.00280902)
(0 0 0.00272904)
(0 0 0.00264911)
(0 0 0.00256924)
(0 0 0.00248942)
(0 0 0.00240966)
(0 0 0.00232996)
(0 0 0.00225031)
(0 0 0.00217072)
(0 0 0.00209118)
(0 0 0.0020117)
(0 0 0.00193228)
(0 0 0.00185292)
(0 0 0.00177361)
(0 0 0.00169436)
(0 0 0.00161516)
(0 0 0.00153601)
(0 0 0.00145691)
(0 0 0.00137786)
(0 0 0.00129886)
(0 0 0.0012199)
(0 0 0.00114099)
(0 0 0.00106211)
(0 0 0.00098328)
(0 0 0.000904481)
(0 0 0.000825715)
(0 0 0.00074698)
(0 0 0.000668274)
(0 0 0.000589593)
(0 0 0.000510934)
(0 0 0.000432296)
(0 0 0.000353673)
(0 0 0.000275065)
(0 0 0.000196467)
(0 0 0.000117877)
(0 0 3.9292e-05)
(0 0 6.24112e-05)
(0 0 0.000187237)
(0 0 0.000312071)
(0 0 0.00043692)
(0 0 0.000561789)
(0 0 0.000686684)
(0 0 0.000811611)
(0 0 0.000936575)
(0 0 0.00106158)
(0 0 0.00118663)
(0 0 0.00131174)
(0 0 0.0014369)
(0 0 0.00156213)
(0 0 0.00168742)
(0 0 0.00181278)
(0 0 0.00193821)
(0 0 0.00206372)
(0 0 0.00218931)
(0 0 0.00231498)
(0 0 0.00244073)
(0 0 0.00256657)
(0 0 0.0026925)
(0 0 0.00281851)
(0 0 0.00294461)
(0 0 0.0030708)
(0 0 0.00319707)
(0 0 0.00332343)
(0 0 0.00344986)
(0 0 0.00357638)
(0 0 0.00370297)
(0 0 0.00382963)
(0 0 0.00395636)
(0 0 0.00408315)
(0 0 0.00420999)
(0 0 0.00433687)
(0 0 0.0044638)
(0 0 0.00459075)
(0 0 0.00471771)
(0 0 0.00484469)
(0 0 0.00497166)
(0 0 0.00509861)
(0 0 0.00522553)
(0 0 0.0053524)
(0 0 0.0054792)
(0 0 0.00560593)
(0 0 0.00573256)
(0 0 0.00585906)
(0 0 0.00598543)
(0 0 0.00611164)
(0 0 0.00623766)
(0 0 0.00636347)
(0 0 0.00648905)
(0 0 0.00661437)
(0 0 0.00673941)
(0 0 0.00686412)
(0 0 0.00698849)
(0 0 0.00711247)
(0 0 0.00723605)
(0 0 0.00735918)
(0 0 0.00748182)
(0 0 0.00760395)
(0 0 0.00772553)
(0 0 0.00784651)
(0 0 0.00796685)
(0 0 0.00808652)
(0 0 0.00820547)
(0 0 0.00832365)
(0 0 0.00844103)
(0 0 0.00855756)
(0 0 0.00867318)
(0 0 0.00878786)
(0 0 0.00890154)
(0 0 0.00901417)
(0 0 0.00912571)
(0 0 0.0092361)
(0 0 0.00934528)
(0 0 0.00945322)
(0 0 0.00955985)
(0 0 0.00966512)
(0 0 0.00976897)
(0 0 0.00987135)
(0 0 0.00997221)
(0 0 0.0100715)
(0 0 0.0101691)
(0 0 0.0102651)
(0 0 0.0103593)
(0 0 0.0104517)
(0 0 0.0105423)
(0 0 0.0106309)
(0 0 0.0107176)
(0 0 0.0108023)
(0 0 0.0108849)
(0 0 0.0109654)
(0 0 0.0110437)
(0 0 0.0111198)
(0 0 0.0111936)
(0 0 0.0112651)
(0 0 0.0113342)
(0 0 0.0114009)
(0 0 0.0114652)
(0 0 0.011527)
(0 0 0.0115862)
(0 0 0.0116429)
(0 0 0.0116969)
(0 0 0.0117483)
(0 0 0.011797)
(0 0 0.011843)
(0 0 0.0118863)
(0 0 0.0119268)
(0 0 0.0119645)
(0 0 0.0119994)
(0 0 0.0120315)
(0 0 0.0120607)
(0 0 0.012087)
(0 0 0.0121105)
(0 0 0.0121311)
(0 0 0.0121487)
(0 0 0.0121635)
(0 0 0.0121754)
(0 0 0.0121844)
(0 0 0.0121904)
(0 0 0.0121936)
(0 0 0.0121939)
(0 0 0.0121913)
(0 0 0.0121858)
(0 0 0.0121775)
(0 0 0.0121663)
(0 0 0.0121523)
(0 0 0.0121356)
(0 0 0.012116)
(0 0 0.0120937)
(0 0 0.0120687)
(0 0 0.012041)
(0 0 0.0120106)
(0 0 0.0119776)
(0 0 0.011942)
(0 0 0.0119038)
(0 0 0.0118631)
(0 0 0.0118199)
(0 0 0.0117743)
(0 0 0.0117263)
(0 0 0.0116759)
(0 0 0.0116232)
(0 0 0.0115683)
(0 0 0.0115111)
(0 0 0.0114517)
(0 0 0.0113902)
(0 0 0.0113266)
(0 0 0.011261)
(0 0 0.0111934)
(0 0 0.0111239)
(0 0 0.0110524)
(0 0 0.0109791)
(0 0 0.0109041)
(0 0 0.0108273)
(0 0 0.0107488)
(0 0 0.0106687)
(0 0 0.010587)
(0 0 0.0105037)
(0 0 0.0104189)
(0 0 0.0103328)
(0 0 0.0102452)
(0 0 0.0101562)
(0 0 0.010066)
(0 0 0.00997452)
(0 0 0.00988183)
(0 0 0.00978798)
(0 0 0.00969301)
(0 0 0.00959697)
(0 0 0.00949991)
(0 0 0.00940186)
(0 0 0.00930288)
(0 0 0.00920299)
(0 0 0.00910223)
(0 0 0.00900066)
(0 0 0.00889831)
(0 0 0.00879521)
(0 0 0.0086914)
(0 0 0.00858692)
(0 0 0.00848181)
(0 0 0.00837609)
(0 0 0.0082698)
(0 0 0.00816297)
(0 0 0.00805564)
(0 0 0.00794783)
(0 0 0.00783957)
(0 0 0.0077309)
(0 0 0.00762183)
(0 0 0.0075124)
(0 0 0.00740263)
(0 0 0.00729255)
(0 0 0.00718218)
(0 0 0.00707154)
(0 0 0.00696066)
(0 0 0.00684955)
(0 0 0.00673823)
(0 0 0.00662674)
(0 0 0.00651507)
(0 0 0.00640326)
(0 0 0.00629132)
(0 0 0.00617926)
(0 0 0.00606711)
(0 0 0.00595487)
(0 0 0.00584255)
(0 0 0.00573018)
(0 0 0.00561777)
(0 0 0.00550532)
(0 0 0.00539285)
(0 0 0.00528037)
(0 0 0.00516788)
(0 0 0.0050554)
(0 0 0.00494294)
(0 0 0.0048305)
(0 0 0.00471808)
(0 0 0.00460571)
(0 0 0.00449338)
(0 0 0.0043811)
(0 0 0.00426887)
(0 0 0.0041567)
(0 0 0.0040446)
(0 0 0.00393256)
(0 0 0.00382058)
(0 0 0.00370869)
(0 0 0.00359686)
(0 0 0.00348512)
(0 0 0.00337345)
(0 0 0.00326186)
(0 0 0.00315035)
(0 0 0.00303892)
(0 0 0.00292757)
(0 0 0.00281631)
(0 0 0.00270512)
(0 0 0.00259401)
(0 0 0.00248298)
(0 0 0.00237203)
(0 0 0.00226115)
(0 0 0.00215034)
(0 0 0.00203961)
(0 0 0.00192894)
(0 0 0.00181834)
(0 0 0.0017078)
(0 0 0.00159733)
(0 0 0.00148691)
(0 0 0.00137654)
(0 0 0.00126623)
(0 0 0.00115596)
(0 0 0.00104573)
(0 0 0.000935548)
(0 0 0.000825399)
(0 0 0.000715281)
(0 0 0.00060519)
(0 0 0.000495124)
(0 0 0.000385076)
(0 0 0.000275044)
(0 0 0.000165022)
(0 0 5.50066e-05)
(0 0 8.0238e-05)
(0 0 0.000240718)
(0 0 0.000401209)
(0 0 0.000561719)
(0 0 0.000722255)
(0 0 0.000882825)
(0 0 0.00104344)
(0 0 0.00120409)
(0 0 0.00136481)
(0 0 0.00152558)
(0 0 0.00168643)
(0 0 0.00184734)
(0 0 0.00200834)
(0 0 0.00216942)
(0 0 0.00233059)
(0 0 0.00249186)
(0 0 0.00265322)
(0 0 0.00281469)
(0 0 0.00297626)
(0 0 0.00313794)
(0 0 0.00329973)
(0 0 0.00346164)
(0 0 0.00362365)
(0 0 0.00378578)
(0 0 0.00394802)
(0 0 0.00411038)
(0 0 0.00427284)
(0 0 0.00443541)
(0 0 0.00459808)
(0 0 0.00476084)
(0 0 0.0049237)
(0 0 0.00508665)
(0 0 0.00524967)
(0 0 0.00541276)
(0 0 0.00557592)
(0 0 0.00573912)
(0 0 0.00590236)
(0 0 0.00606562)
(0 0 0.0062289)
(0 0 0.00639216)
(0 0 0.00655541)
(0 0 0.00671862)
(0 0 0.00688176)
(0 0 0.00704483)
(0 0 0.0072078)
(0 0 0.00737063)
(0 0 0.00753332)
(0 0 0.00769583)
(0 0 0.00785814)
(0 0 0.00802021)
(0 0 0.00818201)
(0 0 0.00834352)
(0 0 0.00850469)
(0 0 0.00866549)
(0 0 0.00882589)
(0 0 0.00898585)
(0 0 0.00914532)
(0 0 0.00930426)
(0 0 0.00946263)
(0 0 0.00962038)
(0 0 0.00977747)
(0 0 0.00993384)
(0 0 0.0100895)
(0 0 0.0102443)
(0 0 0.0103982)
(0 0 0.0105512)
(0 0 0.0107032)
(0 0 0.0108542)
(0 0 0.0110041)
(0 0 0.0111529)
(0 0 0.0113004)
(0 0 0.0114466)
(0 0 0.0115915)
(0 0 0.011735)
(0 0 0.011877)
(0 0 0.0120175)
(0 0 0.0121564)
(0 0 0.0122936)
(0 0 0.012429)
(0 0 0.0125626)
(0 0 0.0126944)
(0 0 0.0128241)
(0 0 0.0129519)
(0 0 0.0130775)
(0 0 0.013201)
(0 0 0.0133222)
(0 0 0.0134411)
(0 0 0.0135576)
(0 0 0.0136717)
(0 0 0.0137833)
(0 0 0.0138922)
(0 0 0.0139985)
(0 0 0.0141021)
(0 0 0.0142028)
(0 0 0.0143007)
(0 0 0.0143957)
(0 0 0.0144877)
(0 0 0.0145767)
(0 0 0.0146626)
(0 0 0.0147453)
(0 0 0.0148247)
(0 0 0.014901)
(0 0 0.0149739)
(0 0 0.0150434)
(0 0 0.0151096)
(0 0 0.0151723)
(0 0 0.0152315)
(0 0 0.0152871)
(0 0 0.0153392)
(0 0 0.0153878)
(0 0 0.0154327)
(0 0 0.0154739)
(0 0 0.0155115)
(0 0 0.0155454)
(0 0 0.0155756)
(0 0 0.015602)
(0 0 0.0156248)
(0 0 0.0156438)
(0 0 0.015659)
(0 0 0.0156706)
(0 0 0.0156784)
(0 0 0.0156824)
(0 0 0.0156828)
(0 0 0.0156794)
(0 0 0.0156724)
(0 0 0.0156616)
(0 0 0.0156472)
(0 0 0.0156292)
(0 0 0.0156076)
(0 0 0.0155824)
(0 0 0.0155537)
(0 0 0.0155215)
(0 0 0.0154858)
(0 0 0.0154467)
(0 0 0.0154042)
(0 0 0.0153583)
(0 0 0.0153092)
(0 0 0.0152568)
(0 0 0.0152013)
(0 0 0.0151425)
(0 0 0.0150807)
(0 0 0.0150159)
(0 0 0.014948)
(0 0 0.0148773)
(0 0 0.0148037)
(0 0 0.0147273)
(0 0 0.0146481)
(0 0 0.0145663)
(0 0 0.0144818)
(0 0 0.0143948)
(0 0 0.0143053)
(0 0 0.0142134)
(0 0 0.0141191)
(0 0 0.0140225)
(0 0 0.0139237)
(0 0 0.0138227)
(0 0 0.0137196)
(0 0 0.0136144)
(0 0 0.0135073)
(0 0 0.0133983)
(0 0 0.0132874)
(0 0 0.0131747)
(0 0 0.0130602)
(0 0 0.0129441)
(0 0 0.0128264)
(0 0 0.0127072)
(0 0 0.0125865)
(0 0 0.0124643)
(0 0 0.0123407)
(0 0 0.0122159)
(0 0 0.0120897)
(0 0 0.0119624)
(0 0 0.0118339)
(0 0 0.0117043)
(0 0 0.0115736)
(0 0 0.011442)
(0 0 0.0113093)
(0 0 0.0111758)
(0 0 0.0110414)
(0 0 0.0109062)
(0 0 0.0107702)
(0 0 0.0106335)
(0 0 0.0104961)
(0 0 0.0103581)
(0 0 0.0102194)
(0 0 0.0100802)
(0 0 0.0099404)
(0 0 0.00980013)
(0 0 0.00965939)
(0 0 0.00951821)
(0 0 0.00937664)
(0 0 0.00923469)
(0 0 0.0090924)
(0 0 0.0089498)
(0 0 0.00880691)
(0 0 0.00866376)
(0 0 0.00852038)
(0 0 0.00837678)
(0 0 0.00823299)
(0 0 0.00808904)
(0 0 0.00794494)
(0 0 0.00780071)
(0 0 0.00765638)
(0 0 0.00751196)
(0 0 0.00736746)
(0 0 0.00722291)
(0 0 0.00707831)
(0 0 0.00693369)
(0 0 0.00678905)
(0 0 0.00664441)
(0 0 0.00649978)
(0 0 0.00635517)
(0 0 0.00621059)
(0 0 0.00606605)
(0 0 0.00592156)
(0 0 0.00577712)
(0 0 0.00563275)
(0 0 0.00548845)
(0 0 0.00534422)
(0 0 0.00520008)
(0 0 0.00505602)
(0 0 0.00491206)
(0 0 0.00476818)
(0 0 0.00462441)
(0 0 0.00448073)
(0 0 0.00433716)
(0 0 0.00419368)
(0 0 0.00405031)
(0 0 0.00390705)
(0 0 0.00376389)
(0 0 0.00362083)
(0 0 0.00347788)
(0 0 0.00333502)
(0 0 0.00319227)
(0 0 0.00304962)
(0 0 0.00290707)
(0 0 0.00276461)
(0 0 0.00262224)
(0 0 0.00247995)
(0 0 0.00233776)
(0 0 0.00219564)
(0 0 0.00205361)
(0 0 0.00191165)
(0 0 0.00176975)
(0 0 0.00162792)
(0 0 0.00148616)
(0 0 0.00134445)
(0 0 0.00120279)
(0 0 0.00106117)
(0 0 0.000919599)
(0 0 0.000778062)
(0 0 0.000636554)
(0 0 0.000495072)
(0 0 0.000353609)
(0 0 0.00021216)
(0 0 7.07191e-05)
(0 0 9.8061e-05)
(0 0 0.000294188)
(0 0 0.000490328)
(0 0 0.000686492)
(0 0 0.000882688)
(0 0 0.00107893)
(0 0 0.00127521)
(0 0 0.00147156)
(0 0 0.00166797)
(0 0 0.00186446)
(0 0 0.00206104)
(0 0 0.0022577)
(0 0 0.00245446)
(0 0 0.00265133)
(0 0 0.00284831)
(0 0 0.0030454)
(0 0 0.00324262)
(0 0 0.00343996)
(0 0 0.00363743)
(0 0 0.00383504)
(0 0 0.00403278)
(0 0 0.00423066)
(0 0 0.00442868)
(0 0 0.00462684)
(0 0 0.00482514)
(0 0 0.00502357)
(0 0 0.00522214)
(0 0 0.00542084)
(0 0 0.00561967)
(0 0 0.00581862)
(0 0 0.00601769)
(0 0 0.00621686)
(0 0 0.00641612)
(0 0 0.00661548)
(0 0 0.00681491)
(0 0 0.0070144)
(0 0 0.00721395)
(0 0 0.00741352)
(0 0 0.00761311)
(0 0 0.00781269)
(0 0 0.00801225)
(0 0 0.00821177)
(0 0 0.00841121)
(0 0 0.00861056)
(0 0 0.00880979)
(0 0 0.00900886)
(0 0 0.00920776)
(0 0 0.00940644)
(0 0 0.00960487)
(0 0 0.00980302)
(0 0 0.0100008)
(0 0 0.0101983)
(0 0 0.0103954)
(0 0 0.010592)
(0 0 0.0107881)
(0 0 0.0109837)
(0 0 0.0111787)
(0 0 0.011373)
(0 0 0.0115667)
(0 0 0.0117596)
(0 0 0.0119517)
(0 0 0.0121429)
(0 0 0.0123332)
(0 0 0.0125225)
(0 0 0.0127108)
(0 0 0.0128979)
(0 0 0.0130838)
(0 0 0.0132685)
(0 0 0.0134518)
(0 0 0.0136338)
(0 0 0.0138142)
(0 0 0.0139931)
(0 0 0.0141703)
(0 0 0.0143458)
(0 0 0.0145195)
(0 0 0.0146914)
(0 0 0.0148612)
(0 0 0.015029)
(0 0 0.0151947)
(0 0 0.0153582)
(0 0 0.0155193)
(0 0 0.0156781)
(0 0 0.0158343)
(0 0 0.015988)
(0 0 0.0161391)
(0 0 0.0162874)
(0 0 0.0164329)
(0 0 0.0165754)
(0 0 0.016715)
(0 0 0.0168515)
(0 0 0.0169848)
(0 0 0.0171148)
(0 0 0.0172415)
(0 0 0.0173648)
(0 0 0.0174846)
(0 0 0.0176009)
(0 0 0.0177134)
(0 0 0.0178223)
(0 0 0.0179273)
(0 0 0.0180285)
(0 0 0.0181258)
(0 0 0.018219)
(0 0 0.0183083)
(0 0 0.0183934)
(0 0 0.0184743)
(0 0 0.018551)
(0 0 0.0186234)
(0 0 0.0186915)
(0 0 0.0187553)
(0 0 0.0188146)
(0 0 0.0188696)
(0 0 0.01892)
(0 0 0.018966)
(0 0 0.0190074)
(0 0 0.0190444)
(0 0 0.0190767)
(0 0 0.0191045)
(0 0 0.0191278)
(0 0 0.0191464)
(0 0 0.0191605)
(0 0 0.01917)
(0 0 0.019175)
(0 0 0.0191754)
(0 0 0.0191712)
(0 0 0.0191626)
(0 0 0.0191494)
(0 0 0.0191318)
(0 0 0.0191097)
(0 0 0.0190833)
(0 0 0.0190524)
(0 0 0.0190172)
(0 0 0.0189778)
(0 0 0.0189341)
(0 0 0.0188862)
(0 0 0.0188341)
(0 0 0.018778)
(0 0 0.0187179)
(0 0 0.0186537)
(0 0 0.0185857)
(0 0 0.0185138)
(0 0 0.0184382)
(0 0 0.0183588)
(0 0 0.0182758)
(0 0 0.0181892)
(0 0 0.0180991)
(0 0 0.0180056)
(0 0 0.0179087)
(0 0 0.0178086)
(0 0 0.0177052)
(0 0 0.0175988)
(0 0 0.0174892)
(0 0 0.0173768)
(0 0 0.0172614)
(0 0 0.0171432)
(0 0 0.0170223)
(0 0 0.0168987)
(0 0 0.0167726)
(0 0 0.0166439)
(0 0 0.0165128)
(0 0 0.0163794)
(0 0 0.0162438)
(0 0 0.0161059)
(0 0 0.0159659)
(0 0 0.0158239)
(0 0 0.0156799)
(0 0 0.0155341)
(0 0 0.0153864)
(0 0 0.0152369)
(0 0 0.0150858)
(0 0 0.0149331)
(0 0 0.0147788)
(0 0 0.0146231)
(0 0 0.0144659)
(0 0 0.0143074)
(0 0 0.0141476)
(0 0 0.0139866)
(0 0 0.0138244)
(0 0 0.0136611)
(0 0 0.0134967)
(0 0 0.0133314)
(0 0 0.0131651)
(0 0 0.0129979)
(0 0 0.0128299)
(0 0 0.0126611)
(0 0 0.0124916)
(0 0 0.0123213)
(0 0 0.0121504)
(0 0 0.0119789)
(0 0 0.0118068)
(0 0 0.0116342)
(0 0 0.0114611)
(0 0 0.0112875)
(0 0 0.0111136)
(0 0 0.0109392)
(0 0 0.0107645)
(0 0 0.0105895)
(0 0 0.0104142)
(0 0 0.0102387)
(0 0 0.0100629)
(0 0 0.00988691)
(0 0 0.00971074)
(0 0 0.00953443)
(0 0 0.00935799)
(0 0 0.00918143)
(0 0 0.00900479)
(0 0 0.00882809)
(0 0 0.00865133)
(0 0 0.00847454)
(0 0 0.00829773)
(0 0 0.00812093)
(0 0 0.00794413)
(0 0 0.00776737)
(0 0 0.00759064)
(0 0 0.00741396)
(0 0 0.00723734)
(0 0 0.0070608)
(0 0 0.00688433)
(0 0 0.00670795)
(0 0 0.00653167)
(0 0 0.00635548)
(0 0 0.0061794)
(0 0 0.00600344)
(0 0 0.00582759)
(0 0 0.00565186)
(0 0 0.00547625)
(0 0 0.00530076)
(0 0 0.0051254)
(0 0 0.00495017)
(0 0 0.00477507)
(0 0 0.0046001)
(0 0 0.00442525)
(0 0 0.00425053)
(0 0 0.00407594)
(0 0 0.00390147)
(0 0 0.00372712)
(0 0 0.00355289)
(0 0 0.00337878)
(0 0 0.00320478)
(0 0 0.00303088)
(0 0 0.0028571)
(0 0 0.00268341)
(0 0 0.00250982)
(0 0 0.00233631)
(0 0 0.0021629)
(0 0 0.00198956)
(0 0 0.0018163)
(0 0 0.00164311)
(0 0 0.00146998)
(0 0 0.00129691)
(0 0 0.00112388)
(0 0 0.000950903)
(0 0 0.000777961)
(0 0 0.000605049)
(0 0 0.000432161)
(0 0 0.00025929)
(0 0 8.64288e-05)
(0 0 0.000115879)
(0 0 0.000347643)
(0 0 0.000579424)
(0 0 0.000811232)
(0 0 0.00104308)
(0 0 0.00127498)
(0 0 0.00150693)
(0 0 0.00173896)
(0 0 0.00197106)
(0 0 0.00220326)
(0 0 0.00243556)
(0 0 0.00266796)
(0 0 0.00290048)
(0 0 0.00313313)
(0 0 0.00336591)
(0 0 0.00359882)
(0 0 0.00383189)
(0 0 0.0040651)
(0 0 0.00429847)
(0 0 0.004532)
(0 0 0.00476569)
(0 0 0.00499954)
(0 0 0.00523357)
(0 0 0.00546776)
(0 0 0.00570211)
(0 0 0.00593663)
(0 0 0.00617131)
(0 0 0.00640615)
(0 0 0.00664115)
(0 0 0.00687629)
(0 0 0.00711156)
(0 0 0.00734697)
(0 0 0.00758249)
(0 0 0.00781812)
(0 0 0.00805384)
(0 0 0.00828964)
(0 0 0.0085255)
(0 0 0.0087614)
(0 0 0.00899732)
(0 0 0.00923324)
(0 0 0.00946914)
(0 0 0.00970499)
(0 0 0.00994075)
(0 0 0.0101764)
(0 0 0.0104119)
(0 0 0.0106473)
(0 0 0.0108824)
(0 0 0.0111173)
(0 0 0.0113519)
(0 0 0.0115862)
(0 0 0.01182)
(0 0 0.0120535)
(0 0 0.0122865)
(0 0 0.012519)
(0 0 0.0127509)
(0 0 0.0129821)
(0 0 0.0132127)
(0 0 0.0134425)
(0 0 0.0136715)
(0 0 0.0138996)
(0 0 0.0141268)
(0 0 0.0143529)
(0 0 0.014578)
(0 0 0.0148019)
(0 0 0.0150245)
(0 0 0.0152458)
(0 0 0.0154657)
(0 0 0.0156841)
(0 0 0.015901)
(0 0 0.0161161)
(0 0 0.0163296)
(0 0 0.0165411)
(0 0 0.0167508)
(0 0 0.0169584)
(0 0 0.0171639)
(0 0 0.0173672)
(0 0 0.0175681)
(0 0 0.0177666)
(0 0 0.0179626)
(0 0 0.018156)
(0 0 0.0183467)
(0 0 0.0185345)
(0 0 0.0187194)
(0 0 0.0189012)
(0 0 0.01908)
(0 0 0.0192554)
(0 0 0.0194276)
(0 0 0.0195963)
(0 0 0.0197614)
(0 0 0.0199229)
(0 0 0.0200806)
(0 0 0.0202345)
(0 0 0.0203844)
(0 0 0.0205303)
(0 0 0.0206721)
(0 0 0.0208096)
(0 0 0.0209428)
(0 0 0.0210717)
(0 0 0.021196)
(0 0 0.0213157)
(0 0 0.0214308)
(0 0 0.0215412)
(0 0 0.0216467)
(0 0 0.0217474)
(0 0 0.0218432)
(0 0 0.021934)
(0 0 0.0220197)
(0 0 0.0221003)
(0 0 0.0221757)
(0 0 0.0222459)
(0 0 0.0223109)
(0 0 0.0223706)
(0 0 0.022425)
(0 0 0.0224741)
(0 0 0.0225177)
(0 0 0.022556)
(0 0 0.0225889)
(0 0 0.0226164)
(0 0 0.0226384)
(0 0 0.0226551)
(0 0 0.0226663)
(0 0 0.0226721)
(0 0 0.0226725)
(0 0 0.0226676)
(0 0 0.0226573)
(0 0 0.0226417)
(0 0 0.0226208)
(0 0 0.0225946)
(0 0 0.0225633)
(0 0 0.0225267)
(0 0 0.0224851)
(0 0 0.0224383)
(0 0 0.0223865)
(0 0 0.0223298)
(0 0 0.0222682)
(0 0 0.0222017)
(0 0 0.0221305)
(0 0 0.0220546)
(0 0 0.021974)
(0 0 0.0218889)
(0 0 0.0217993)
(0 0 0.0217054)
(0 0 0.0216071)
(0 0 0.0215046)
(0 0 0.021398)
(0 0 0.0212873)
(0 0 0.0211726)
(0 0 0.0210541)
(0 0 0.0209318)
(0 0 0.0208057)
(0 0 0.0206761)
(0 0 0.020543)
(0 0 0.0204065)
(0 0 0.0202666)
(0 0 0.0201235)
(0 0 0.0199773)
(0 0 0.019828)
(0 0 0.0196758)
(0 0 0.0195207)
(0 0 0.0193629)
(0 0 0.0192024)
(0 0 0.0190392)
(0 0 0.0188736)
(0 0 0.0187056)
(0 0 0.0185353)
(0 0 0.0183627)
(0 0 0.018188)
(0 0 0.0180113)
(0 0 0.0178325)
(0 0 0.0176518)
(0 0 0.0174694)
(0 0 0.0172851)
(0 0 0.0170993)
(0 0 0.0169118)
(0 0 0.0167228)
(0 0 0.0165323)
(0 0 0.0163405)
(0 0 0.0161474)
(0 0 0.0159531)
(0 0 0.0157575)
(0 0 0.0155609)
(0 0 0.0153632)
(0 0 0.0151645)
(0 0 0.0149649)
(0 0 0.0147644)
(0 0 0.0145631)
(0 0 0.014361)
(0 0 0.0141582)
(0 0 0.0139548)
(0 0 0.0137507)
(0 0 0.013546)
(0 0 0.0133408)
(0 0 0.0131351)
(0 0 0.012929)
(0 0 0.0127225)
(0 0 0.0125156)
(0 0 0.0123083)
(0 0 0.0121008)
(0 0 0.011893)
(0 0 0.011685)
(0 0 0.0114767)
(0 0 0.0112683)
(0 0 0.0110597)
(0 0 0.010851)
(0 0 0.0106422)