/*--------------------------------*- C++ -*----------------------------------*\
| =========                 |                                                 |
| \\      /  F ield         | OpenFOAM: The Open Source CFD Toolbox           |
|  \\    /   O peration     | Version:  v2012                                 |
|   \\  /    A nd           | Website:  www.openfoam.com                      |
|    \\/     M anipulation  |                                                 |
\*---------------------------------------------------------------------------*/
FoamFile
{
    version     2.0;
    format      ascii;
    class       volVectorField;
    location    "16.2";
    object      U;
}
// * * * * * * * * * * * * * * * * * * * * * * * * * * * * * * * * * * * * * //

dimensions      [0 1 -1 0 0 0 0];


internalField   nonuniform List<vector> 
65536
(
(0.000681352 -0.000681369 0)
(0.0020441 -0.00068141 0)
(0.00340696 -0.000681487 0)
(0.00477001 -0.000681601 0)
(0.00613333 -0.000681753 0)
(0.00749699 -0.000681942 0)
(0.00886107 -0.000682169 0)
(0.0102256 -0.000682432 0)
(0.0115908 -0.00068273 0)
(0.0129565 -0.000683064 0)
(0.014323 -0.000683432 0)
(0.0156902 -0.000683833 0)
(0.0170583 -0.000684267 0)
(0.0184273 -0.000684732 0)
(0.0197972 -0.000685227 0)
(0.0211682 -0.000685751 0)
(0.0225402 -0.000686302 0)
(0.0239133 -0.000686879 0)
(0.0252877 -0.00068748 0)
(0.0266632 -0.000688104 0)
(0.0280401 -0.000688748 0)
(0.0294182 -0.000689411 0)
(0.0307977 -0.000690091 0)
(0.0321786 -0.000690785 0)
(0.0335608 -0.000691492 0)
(0.0349445 -0.000692209 0)
(0.0363297 -0.000692932 0)
(0.0377163 -0.000693661 0)
(0.0391043 -0.000694391 0)
(0.0404938 -0.000695121 0)
(0.0418848 -0.000695846 0)
(0.0432772 -0.000696564 0)
(0.0446711 -0.000697272 0)
(0.0460663 -0.000697965 0)
(0.047463 -0.000698641 0)
(0.0488609 -0.000699295 0)
(0.0502602 -0.000699925 0)
(0.0516607 -0.000700525 0)
(0.0530623 -0.000701092 0)
(0.0544651 -0.00070162 0)
(0.0558688 -0.000702107 0)
(0.0572735 -0.000702547 0)
(0.0586791 -0.000702935 0)
(0.0600853 -0.000703267 0)
(0.0614922 -0.000703537 0)
(0.0628996 -0.00070374 0)
(0.0643073 -0.000703871 0)
(0.0657151 -0.000703924 0)
(0.067123 -0.000703894 0)
(0.0685308 -0.000703774 0)
(0.0699382 -0.000703559 0)
(0.0713451 -0.000703243 0)
(0.0727513 -0.000702819 0)
(0.0741565 -0.000702282 0)
(0.0755606 -0.000701624 0)
(0.0769632 -0.000700838 0)
(0.0783641 -0.000699919 0)
(0.079763 -0.00069886 0)
(0.0811596 -0.000697653 0)
(0.0825537 -0.000696291 0)
(0.083945 -0.000694767 0)
(0.085333 -0.000693075 0)
(0.0867174 -0.000691206 0)
(0.088098 -0.000689155 0)
(0.0894743 -0.000686912 0)
(0.0908458 -0.000684472 0)
(0.0922123 -0.000681826 0)
(0.0935734 -0.000678967 0)
(0.0949284 -0.000675888 0)
(0.0962771 -0.000672583 0)
(0.097619 -0.000669042 0)
(0.0989535 -0.00066526 0)
(0.10028 -0.000661229 0)
(0.101599 -0.000656943 0)
(0.102908 -0.000652394 0)
(0.104209 -0.000647577 0)
(0.105499 -0.000642484 0)
(0.106779 -0.000637109 0)
(0.108048 -0.000631447 0)
(0.109305 -0.000625491 0)
(0.11055 -0.000619236 0)
(0.111782 -0.000612677 0)
(0.113001 -0.000605809 0)
(0.114206 -0.000598627 0)
(0.115396 -0.000591128 0)
(0.11657 -0.000583307 0)
(0.117729 -0.000575162 0)
(0.118871 -0.000566689 0)
(0.119996 -0.000557885 0)
(0.121103 -0.000548749 0)
(0.122192 -0.00053928 0)
(0.123261 -0.000529476 0)
(0.12431 -0.000519337 0)
(0.125338 -0.000508863 0)
(0.126346 -0.000498055 0)
(0.127331 -0.000486915 0)
(0.128294 -0.000475443 0)
(0.129233 -0.000463643 0)
(0.130149 -0.000451518 0)
(0.131039 -0.000439072 0)
(0.131905 -0.000426308 0)
(0.132745 -0.000413233 0)
(0.133558 -0.000399852 0)
(0.134345 -0.000386172 0)
(0.135103 -0.000372199 0)
(0.135834 -0.000357941 0)
(0.136535 -0.000343406 0)
(0.137208 -0.000328604 0)
(0.13785 -0.000313544 0)
(0.138462 -0.000298236 0)
(0.139043 -0.000282691 0)
(0.139593 -0.000266919 0)
(0.140111 -0.000250934 0)
(0.140597 -0.000234748 0)
(0.14105 -0.000218372 0)
(0.141471 -0.00020182 0)
(0.141858 -0.000185107 0)
(0.142211 -0.000168246 0)
(0.142531 -0.000151251 0)
(0.142816 -0.000134138 0)
(0.143068 -0.000116921 0)
(0.143284 -9.96151e-05 0)
(0.143466 -8.22367e-05 0)
(0.143613 -6.4801e-05 0)
(0.143725 -4.73237e-05 0)
(0.143802 -2.98206e-05 0)
(0.143845 -1.23076e-05 0)
(0.143852 5.19943e-06 0)
(0.143824 2.26848e-05 0)
(0.143761 4.01327e-05 0)
(0.143663 5.75277e-05 0)
(0.143531 7.48544e-05 0)
(0.143364 9.20976e-05 0)
(0.143162 0.000109242 0)
(0.142927 0.000126274 0)
(0.142657 0.000143179 0)
(0.142354 0.000159942 0)
(0.142017 0.000176551 0)
(0.141647 0.000192991 0)
(0.141245 0.000209252 0)
(0.14081 0.000225319 0)
(0.140343 0.000241182 0)
(0.139845 0.00025683 0)
(0.139316 0.000272252 0)
(0.138756 0.000287437 0)
(0.138166 0.000302377 0)
(0.137546 0.000317062 0)
(0.136897 0.000331484 0)
(0.13622 0.000345636 0)
(0.135515 0.00035951 0)
(0.134782 0.0003731 0)
(0.134022 0.000386399 0)
(0.133236 0.000399403 0)
(0.132424 0.000412107 0)
(0.131587 0.000424507 0)
(0.130726 0.000436599 0)
(0.12984 0.000448381 0)
(0.128932 0.00045985 0)
(0.128001 0.000471003 0)
(0.127047 0.000481841 0)
(0.126073 0.000492362 0)
(0.125078 0.000502566 0)
(0.124062 0.000512453 0)
(0.123028 0.000522024 0)
(0.121974 0.00053128 0)
(0.120902 0.000540223 0)
(0.119813 0.000548855 0)
(0.118706 0.000557178 0)
(0.117584 0.000565196 0)
(0.116445 0.000572911 0)
(0.115292 0.000580327 0)
(0.114124 0.000587447 0)
(0.112942 0.000594277 0)
(0.111746 0.00060082 0)
(0.110538 0.000607081 0)
(0.109318 0.000613065 0)
(0.108086 0.000618778 0)
(0.106842 0.000624224 0)
(0.105588 0.000629409 0)
(0.104324 0.000634338 0)
(0.103051 0.000639018 0)
(0.101768 0.000643455 0)
(0.100477 0.000647654 0)
(0.0991772 0.000651622 0)
(0.09787 0.000655365 0)
(0.0965555 0.000658889 0)
(0.0952342 0.0006622 0)
(0.0939065 0.000665305 0)
(0.0925728 0.000668211 0)
(0.0912335 0.000670923 0)
(0.0898889 0.000673448 0)
(0.0885395 0.000675793 0)
(0.0871856 0.000677963 0)
(0.0858275 0.000679966 0)
(0.0844656 0.000681807 0)
(0.0831001 0.000683493 0)
(0.0817314 0.00068503 0)
(0.0803598 0.000686423 0)
(0.0789856 0.00068768 0)
(0.077609 0.000688805 0)
(0.0762303 0.000689805 0)
(0.0748497 0.000690686 0)
(0.0734674 0.000691453 0)
(0.0720837 0.000692113 0)
(0.0706989 0.000692669 0)
(0.069313 0.000693128 0)
(0.0679263 0.000693496 0)
(0.0665389 0.000693776 0)
(0.0651511 0.000693975 0)
(0.0637629 0.000694097 0)
(0.0623746 0.000694148 0)
(0.0609863 0.000694131 0)
(0.059598 0.000694051 0)
(0.05821 0.000693914 0)
(0.0568223 0.000693722 0)
(0.0554351 0.000693481 0)
(0.0540484 0.000693195 0)
(0.0526623 0.000692867 0)
(0.0512769 0.000692502 0)
(0.0498922 0.000692103 0)
(0.0485084 0.000691674 0)
(0.0471255 0.000691218 0)
(0.0457435 0.000690739 0)
(0.0443625 0.00069024 0)
(0.0429826 0.000689724 0)
(0.0416036 0.000689195 0)
(0.0402258 0.000688655 0)
(0.038849 0.000688107 0)
(0.0374733 0.000687554 0)
(0.0360988 0.000686998 0)
(0.0347253 0.000686443 0)
(0.033353 0.000685889 0)
(0.0319818 0.000685341 0)
(0.0306117 0.000684799 0)
(0.0292426 0.000684266 0)
(0.0278746 0.000683745 0)
(0.0265077 0.000683236 0)
(0.0251417 0.000682741 0)
(0.0237767 0.000682264 0)
(0.0224127 0.000681803 0)
(0.0210495 0.000681363 0)
(0.0196872 0.000680943 0)
(0.0183258 0.000680546 0)
(0.0169651 0.000680171 0)
(0.0156051 0.000679822 0)
(0.0142458 0.000679497 0)
(0.0128872 0.0006792 0)
(0.0115291 0.000678929 0)
(0.0101715 0.000678687 0)
(0.00881434 0.000678474 0)
(0.00745761 0.00067829 0)
(0.00610121 0.000678135 0)
(0.0047451 0.000678011 0)
(0.0033892 0.000677919 0)
(0.00203346 0.000677857 0)
(0.00067781 0.000677825 0)
(0.000681317 -0.00204408 0)
(0.00204399 -0.0020442 0)
(0.00340678 -0.00204443 0)
(0.00476976 -0.00204477 0)
(0.006133 -0.00204523 0)
(0.00749659 -0.0020458 0)
(0.0088606 -0.00204648 0)
(0.0102251 -0.00204726 0)
(0.0115902 -0.00204816 0)
(0.0129559 -0.00204916 0)
(0.0143222 -0.00205027 0)
(0.0156894 -0.00205147 0)
(0.0170574 -0.00205278 0)
(0.0184263 -0.00205417 0)
(0.0197962 -0.00205566 0)
(0.0211671 -0.00205723 0)
(0.0225391 -0.00205888 0)
(0.0239122 -0.00206062 0)
(0.0252865 -0.00206242 0)
(0.026662 -0.0020643 0)
(0.0280388 -0.00206623 0)
(0.0294169 -0.00206822 0)
(0.0307964 -0.00207026 0)
(0.0321772 -0.00207235 0)
(0.0335595 -0.00207447 0)
(0.0349432 -0.00207662 0)
(0.0363283 -0.0020788 0)
(0.0377149 -0.00208099 0)
(0.0391029 -0.00208318 0)
(0.0404925 -0.00208537 0)
(0.0418834 -0.00208755 0)
(0.0432759 -0.00208971 0)
(0.0446698 -0.00209183 0)
(0.046065 -0.00209392 0)
(0.0474617 -0.00209595 0)
(0.0488597 -0.00209792 0)
(0.050259 -0.00209981 0)
(0.0516596 -0.00210161 0)
(0.0530613 -0.00210332 0)
(0.0544641 -0.00210491 0)
(0.055868 -0.00210637 0)
(0.0572728 -0.0021077 0)
(0.0586785 -0.00210887 0)
(0.0600848 -0.00210987 0)
(0.0614918 -0.00211068 0)
(0.0628993 -0.0021113 0)
(0.0643072 -0.00211169 0)
(0.0657152 -0.00211186 0)
(0.0671233 -0.00211177 0)
(0.0685312 -0.00211142 0)
(0.0699389 -0.00211078 0)
(0.071346 -0.00210984 0)
(0.0727524 -0.00210857 0)
(0.0741578 -0.00210697 0)
(0.0755621 -0.002105 0)
(0.076965 -0.00210265 0)
(0.0783661 -0.0020999 0)
(0.0797653 -0.00209673 0)
(0.0811623 -0.00209311 0)
(0.0825567 -0.00208904 0)
(0.0839483 -0.00208447 0)
(0.0853366 -0.0020794 0)
(0.0867215 -0.0020738 0)
(0.0881024 -0.00206766 0)
(0.089479 -0.00206093 0)
(0.090851 -0.00205362 0)
(0.092218 -0.00204569 0)
(0.0935794 -0.00203712 0)
(0.0949349 -0.00202789 0)
(0.0962841 -0.00201798 0)
(0.0976264 -0.00200737 0)
(0.0989615 -0.00199603 0)
(0.100289 -0.00198394 0)
(0.101608 -0.00197109 0)
(0.102918 -0.00195745 0)
(0.104219 -0.001943 0)
(0.105509 -0.00192773 0)
(0.10679 -0.00191161 0)
(0.108059 -0.00189463 0)
(0.109317 -0.00187677 0)
(0.110563 -0.00185801 0)
(0.111796 -0.00183834 0)
(0.113015 -0.00181774 0)
(0.11422 -0.0017962 0)
(0.115411 -0.0017737 0)
(0.116587 -0.00175024 0)
(0.117746 -0.00172581 0)
(0.118889 -0.00170039 0)
(0.120014 -0.00167398 0)
(0.121122 -0.00164658 0)
(0.122211 -0.00161817 0)
(0.123281 -0.00158876 0)
(0.124331 -0.00155834 0)
(0.12536 -0.00152692 0)
(0.126368 -0.0014945 0)
(0.127354 -0.00146107 0)
(0.128317 -0.00142665 0)
(0.129257 -0.00139125 0)
(0.130173 -0.00135487 0)
(0.131065 -0.00131753 0)
(0.131931 -0.00127923 0)
(0.132772 -0.00124 0)
(0.133586 -0.00119985 0)
(0.134372 -0.0011588 0)
(0.135132 -0.00111688 0)
(0.135863 -0.00107409 0)
(0.136565 -0.00103048 0)
(0.137238 -0.000986065 0)
(0.137881 -0.000940874 0)
(0.138493 -0.000894939 0)
(0.139075 -0.000848292 0)
(0.139625 -0.000800967 0)
(0.140143 -0.000752999 0)
(0.14063 -0.000704426 0)
(0.141083 -0.000655285 0)
(0.141504 -0.000605618 0)
(0.141891 -0.000555463 0)
(0.142245 -0.000504865 0)
(0.142565 -0.000453866 0)
(0.142851 -0.000402511 0)
(0.143102 -0.000350845 0)
(0.143319 -0.000298913 0)
(0.143501 -0.000246762 0)
(0.143648 -0.000194439 0)
(0.14376 -0.000141991 0)
(0.143838 -8.94661e-05 0)
(0.14388 -3.69113e-05 0)
(0.143887 1.56256e-05 0)
(0.143859 6.80973e-05 0)
(0.143796 0.000120457 0)
(0.143698 0.000172657 0)
(0.143565 0.000224652 0)
(0.143398 0.000276397 0)
(0.143196 0.000327846 0)
(0.142961 0.000378955 0)
(0.142691 0.000429683 0)
(0.142387 0.000479986 0)
(0.14205 0.000529825 0)
(0.14168 0.00057916 0)
(0.141277 0.000627952 0)
(0.140842 0.000676167 0)
(0.140375 0.000723768 0)
(0.139876 0.000770721 0)
(0.139346 0.000816996 0)
(0.138786 0.000862562 0)
(0.138195 0.00090739 0)
(0.137575 0.000951453 0)
(0.136926 0.000994728 0)
(0.136248 0.00103719 0)
(0.135542 0.00107882 0)
(0.134808 0.00111959 0)
(0.134048 0.0011595 0)
(0.133261 0.00119851 0)
(0.132449 0.00123663 0)
(0.131611 0.00127383 0)
(0.130749 0.00131011 0)
(0.129863 0.00134546 0)
(0.128954 0.00137987 0)
(0.128022 0.00141333 0)
(0.127069 0.00144584 0)
(0.126094 0.00147741 0)
(0.125098 0.00150802 0)
(0.124082 0.00153768 0)
(0.123046 0.00156639 0)
(0.121992 0.00159416 0)
(0.12092 0.00162098 0)
(0.11983 0.00164688 0)
(0.118723 0.00167184 0)
(0.117599 0.00169589 0)
(0.11646 0.00171903 0)
(0.115306 0.00174128 0)
(0.114138 0.00176263 0)
(0.112955 0.00178312 0)
(0.111759 0.00180274 0)
(0.11055 0.00182152 0)
(0.109329 0.00183947 0)
(0.108097 0.0018566 0)
(0.106853 0.00187293 0)
(0.105598 0.00188848 0)
(0.104334 0.00190327 0)
(0.10306 0.0019173 0)
(0.101777 0.0019306 0)
(0.100485 0.00194319 0)
(0.0991848 0.00195509 0)
(0.0978772 0.00196631 0)
(0.0965623 0.00197688 0)
(0.0952406 0.00198681 0)
(0.0939124 0.00199612 0)
(0.0925783 0.00200483 0)
(0.0912386 0.00201296 0)
(0.0898937 0.00202053 0)
(0.0885439 0.00202755 0)
(0.0871897 0.00203406 0)
(0.0858312 0.00204006 0)
(0.084469 0.00204558 0)
(0.0831032 0.00205063 0)
(0.0817343 0.00205523 0)
(0.0803624 0.00205941 0)
(0.0789879 0.00206317 0)
(0.077611 0.00206654 0)
(0.0762321 0.00206953 0)
(0.0748512 0.00207217 0)
(0.0734688 0.00207447 0)
(0.0720849 0.00207644 0)
(0.0706998 0.0020781 0)
(0.0693137 0.00207948 0)
(0.0679268 0.00208057 0)
(0.0665393 0.00208141 0)
(0.0651513 0.002082 0)
(0.063763 0.00208236 0)
(0.0623746 0.00208251 0)
(0.0609861 0.00208245 0)
(0.0595977 0.00208221 0)
(0.0582096 0.00208179 0)
(0.0568218 0.00208121 0)
(0.0554345 0.00208049 0)
(0.0540477 0.00207962 0)
(0.0526615 0.00207864 0)
(0.051276 0.00207754 0)
(0.0498913 0.00207634 0)
(0.0485075 0.00207504 0)
(0.0471245 0.00207367 0)
(0.0457425 0.00207223 0)
(0.0443615 0.00207073 0)
(0.0429814 0.00206918 0)
(0.0416025 0.00206759 0)
(0.0402246 0.00206597 0)
(0.0388478 0.00206432 0)
(0.0374722 0.00206266 0)
(0.0360976 0.00206099 0)
(0.0347242 0.00205932 0)
(0.0333519 0.00205766 0)
(0.0319807 0.00205601 0)
(0.0306106 0.00205438 0)
(0.0292415 0.00205278 0)
(0.0278735 0.00205122 0)
(0.0265066 0.00204969 0)
(0.0251407 0.0020482 0)
(0.0237757 0.00204677 0)
(0.0224117 0.00204539 0)
(0.0210486 0.00204406 0)
(0.0196864 0.0020428 0)
(0.018325 0.00204161 0)
(0.0169643 0.00204049 0)
(0.0156044 0.00203944 0)
(0.0142452 0.00203846 0)
(0.0128866 0.00203757 0)
(0.0115285 0.00203676 0)
(0.010171 0.00203603 0)
(0.00881393 0.00203539 0)
(0.00745726 0.00203484 0)
(0.00610093 0.00203437 0)
(0.00474488 0.002034 0)
(0.00338905 0.00203372 0)
(0.00203337 0.00203354 0)
(0.000677778 0.00203345 0)
(0.000681239 -0.00340668 0)
(0.00204376 -0.00340687 0)
(0.00340639 -0.00340725 0)
(0.00476922 -0.00340783 0)
(0.00613231 -0.00340859 0)
(0.00749575 -0.00340954 0)
(0.00885961 -0.00341067 0)
(0.010224 -0.00341199 0)
(0.0115889 -0.00341349 0)
(0.0129544 -0.00341516 0)
(0.0143207 -0.003417 0)
(0.0156877 -0.00341902 0)
(0.0170556 -0.00342119 0)
(0.0184244 -0.00342352 0)
(0.0197942 -0.003426 0)
(0.0211649 -0.00342863 0)
(0.0225368 -0.00343139 0)
(0.0239098 -0.00343428 0)
(0.025284 -0.0034373 0)
(0.0266595 -0.00344042 0)
(0.0280362 -0.00344366 0)
(0.0294142 -0.00344698 0)
(0.0307936 -0.00345039 0)
(0.0321744 -0.00345387 0)
(0.0335566 -0.00345742 0)
(0.0349402 -0.00346102 0)
(0.0363253 -0.00346465 0)
(0.0377119 -0.0034683 0)
(0.0391 -0.00347197 0)
(0.0404895 -0.00347563 0)
(0.0418805 -0.00347927 0)
(0.043273 -0.00348288 0)
(0.0446669 -0.00348644 0)
(0.0460623 -0.00348992 0)
(0.047459 -0.00349332 0)
(0.0488571 -0.00349661 0)
(0.0502565 -0.00349978 0)
(0.0516572 -0.0035028 0)
(0.0530591 -0.00350565 0)
(0.054462 -0.00350832 0)
(0.0558661 -0.00351078 0)
(0.0572711 -0.003513 0)
(0.058677 -0.00351496 0)
(0.0600836 -0.00351665 0)
(0.0614908 -0.00351802 0)
(0.0628986 -0.00351907 0)
(0.0643067 -0.00351975 0)
(0.0657151 -0.00352004 0)
(0.0671235 -0.00351992 0)
(0.0685318 -0.00351935 0)
(0.0699398 -0.00351831 0)
(0.0713474 -0.00351676 0)
(0.0727542 -0.00351467 0)
(0.0741601 -0.00351201 0)
(0.0755649 -0.00350876 0)
(0.0769683 -0.00350486 0)
(0.07837 -0.0035003 0)
(0.0797698 -0.00349504 0)
(0.0811674 -0.00348904 0)
(0.0825624 -0.00348226 0)
(0.0839546 -0.00347468 0)
(0.0853437 -0.00346626 0)
(0.0867292 -0.00345695 0)
(0.0881109 -0.00344673 0)
(0.0894883 -0.00343555 0)
(0.0908611 -0.00342339 0)
(0.0922289 -0.00341019 0)
(0.0935912 -0.00339594 0)
(0.0949476 -0.00338058 0)
(0.0962977 -0.00336408 0)
(0.097641 -0.00334642 0)
(0.098977 -0.00332754 0)
(0.100305 -0.00330742 0)
(0.101625 -0.00328603 0)
(0.102936 -0.00326331 0)
(0.104238 -0.00323926 0)
(0.10553 -0.00321382 0)
(0.106812 -0.00318698 0)
(0.108083 -0.0031587 0)
(0.109342 -0.00312894 0)
(0.110588 -0.0030977 0)
(0.111822 -0.00306493 0)
(0.113043 -0.00303061 0)
(0.11425 -0.00299472 0)
(0.115442 -0.00295724 0)
(0.116618 -0.00291816 0)
(0.117779 -0.00287744 0)
(0.118923 -0.00283509 0)
(0.12005 -0.00279108 0)
(0.121159 -0.00274541 0)
(0.12225 -0.00269807 0)
(0.123321 -0.00264905 0)
(0.124372 -0.00259835 0)
(0.125402 -0.00254598 0)
(0.126412 -0.00249193 0)
(0.127399 -0.00243622 0)
(0.128364 -0.00237885 0)
(0.129305 -0.00231983 0)
(0.130222 -0.00225919 0)
(0.131115 -0.00219693 0)
(0.131983 -0.00213309 0)
(0.132824 -0.00206769 0)
(0.13364 -0.00200075 0)
(0.134428 -0.00193231 0)
(0.135188 -0.00186241 0)
(0.13592 -0.00179108 0)
(0.136624 -0.00171836 0)
(0.137297 -0.0016443 0)
(0.137941 -0.00156895 0)
(0.138555 -0.00149236 0)
(0.139137 -0.00141457 0)
(0.139688 -0.00133566 0)
(0.140208 -0.00125567 0)
(0.140695 -0.00117467 0)
(0.141149 -0.00109273 0)
(0.141571 -0.0010099 0)
(0.141959 -0.000926264 0)
(0.142313 -0.000841886 0)
(0.142633 -0.000756839 0)
(0.142919 -0.000671196 0)
(0.143171 -0.000585035 0)
(0.143388 -0.00049843 0)
(0.143571 -0.00041146 0)
(0.143718 -0.000324202 0)
(0.14383 -0.000236737 0)
(0.143908 -0.000149142 0)
(0.14395 -6.14978e-05 0)
(0.143957 2.61164e-05 0)
(0.143929 0.000113622 0)
(0.143866 0.000200939 0)
(0.143767 0.000287991 0)
(0.143634 0.0003747 0)
(0.143467 0.00046099 0)
(0.143265 0.000546787 0)
(0.143028 0.000632018 0)
(0.142758 0.00071661 0)
(0.142454 0.000800494 0)
(0.142116 0.000883602 0)
(0.141745 0.000965869 0)
(0.141342 0.00104723 0)
(0.140906 0.00112763 0)
(0.140438 0.001207 0)
(0.139938 0.00128529 0)
(0.139408 0.00136245 0)
(0.138846 0.00143842 0)
(0.138255 0.00151317 0)
(0.137634 0.00158663 0)
(0.136983 0.00165878 0)
(0.136304 0.00172958 0)
(0.135597 0.00179898 0)
(0.134862 0.00186696 0)
(0.134101 0.00193348 0)
(0.133313 0.00199853 0)
(0.132499 0.00206207 0)
(0.13166 0.00212408 0)
(0.130797 0.00218456 0)
(0.12991 0.00224348 0)
(0.129 0.00230083 0)
(0.128067 0.0023566 0)
(0.127111 0.0024108 0)
(0.126135 0.0024634 0)
(0.125138 0.00251442 0)
(0.124121 0.00256385 0)
(0.123084 0.0026117 0)
(0.122028 0.00265797 0)
(0.120955 0.00270268 0)
(0.119863 0.00274582 0)
(0.118755 0.00278743 0)
(0.117631 0.0028275 0)
(0.116491 0.00286605 0)
(0.115335 0.00290311 0)
(0.114165 0.0029387 0)
(0.112982 0.00297282 0)
(0.111785 0.00300551 0)
(0.110575 0.00303679 0)
(0.109353 0.00306669 0)
(0.108119 0.00309522 0)
(0.106874 0.00312243 0)
(0.105619 0.00314832 0)
(0.104353 0.00317294 0)
(0.103078 0.00319631 0)
(0.101794 0.00321846 0)
(0.100501 0.00323943 0)
(0.0992003 0.00325924 0)
(0.0978917 0.00327792 0)
(0.096576 0.00329551 0)
(0.0952534 0.00331203 0)
(0.0939245 0.00332753 0)
(0.0925896 0.00334202 0)
(0.0912491 0.00335555 0)
(0.0899035 0.00336814 0)
(0.088553 0.00337984 0)
(0.087198 0.00339066 0)
(0.0858389 0.00340064 0)
(0.0844761 0.00340981 0)
(0.0831097 0.00341821 0)
(0.0817402 0.00342586 0)
(0.0803677 0.0034328 0)
(0.0789927 0.00343905 0)
(0.0776153 0.00344465 0)
(0.0762358 0.00344962 0)
(0.0748545 0.003454 0)
(0.0734716 0.0034578 0)
(0.0720873 0.00346107 0)
(0.0707018 0.00346383 0)
(0.0693154 0.0034661 0)
(0.0679281 0.00346791 0)
(0.0665403 0.00346929 0)
(0.065152 0.00347026 0)
(0.0637634 0.00347084 0)
(0.0623746 0.00347107 0)
(0.0609859 0.00347096 0)
(0.0595973 0.00347054 0)
(0.058209 0.00346983 0)
(0.056821 0.00346885 0)
(0.0554334 0.00346763 0)
(0.0540465 0.00346618 0)
(0.0526601 0.00346452 0)
(0.0512745 0.00346267 0)
(0.0498897 0.00346066 0)
(0.0485057 0.00345849 0)
(0.0471226 0.0034562 0)
(0.0457405 0.00345379 0)
(0.0443594 0.00345128 0)
(0.0429794 0.00344868 0)
(0.0416004 0.00344602 0)
(0.0402225 0.00344331 0)
(0.0388457 0.00344055 0)
(0.03747 0.00343777 0)
(0.0360954 0.00343498 0)
(0.034722 0.00343219 0)
(0.0333497 0.00342942 0)
(0.0319785 0.00342666 0)
(0.0306084 0.00342394 0)
(0.0292394 0.00342127 0)
(0.0278715 0.00341865 0)
(0.0265046 0.0034161 0)
(0.0251387 0.00341362 0)
(0.0237739 0.00341122 0)
(0.0224099 0.00340891 0)
(0.0210469 0.0034067 0)
(0.0196848 0.0034046 0)
(0.0183234 0.0034026 0)
(0.0169629 0.00340073 0)
(0.0156031 0.00339897 0)
(0.0142439 0.00339735 0)
(0.0128854 0.00339585 0)
(0.0115275 0.0033945 0)
(0.0101701 0.00339328 0)
(0.00881314 0.00339221 0)
(0.00745659 0.00339129 0)
(0.00610037 0.00339052 0)
(0.00474445 0.0033899 0)
(0.00338873 0.00338943 0)
(0.00203318 0.00338912 0)
(0.000677716 0.00338897 0)
(0.000681123 -0.00476908 0)
(0.00204341 -0.00476935 0)
(0.00340581 -0.00476989 0)
(0.00476841 -0.00477069 0)
(0.00613127 -0.00477176 0)
(0.00749448 -0.00477309 0)
(0.00885812 -0.00477469 0)
(0.0102223 -0.00477653 0)
(0.011587 -0.00477863 0)
(0.0129523 -0.00478098 0)
(0.0143184 -0.00478357 0)
(0.0156852 -0.00478639 0)
(0.0170529 -0.00478944 0)
(0.0184215 -0.00479272 0)
(0.0197911 -0.0047962 0)
(0.0211617 -0.00479988 0)
(0.0225334 -0.00480376 0)
(0.0239062 -0.00480782 0)
(0.0252803 -0.00481206 0)
(0.0266556 -0.00481645 0)
(0.0280322 -0.00482098 0)
(0.0294101 -0.00482566 0)
(0.0307894 -0.00483044 0)
(0.0321701 -0.00483534 0)
(0.0335523 -0.00484032 0)
(0.0349358 -0.00484537 0)
(0.0363209 -0.00485047 0)
(0.0377075 -0.00485561 0)
(0.0390955 -0.00486076 0)
(0.0404851 -0.00486591 0)
(0.0418761 -0.00487103 0)
(0.0432686 -0.00487611 0)
(0.0446626 -0.00488111 0)
(0.0460581 -0.00488601 0)
(0.0474549 -0.00489079 0)
(0.0488532 -0.00489543 0)
(0.0502527 -0.00489989 0)
(0.0516536 -0.00490415 0)
(0.0530557 -0.00490818 0)
(0.0544589 -0.00491194 0)
(0.0558632 -0.00491541 0)
(0.0572685 -0.00491856 0)
(0.0586747 -0.00492135 0)
(0.0600816 -0.00492374 0)
(0.0614893 -0.0049257 0)
(0.0628975 -0.0049272 0)
(0.064306 -0.00492819 0)
(0.0657149 -0.00492864 0)
(0.0671238 -0.00492851 0)
(0.0685327 -0.00492776 0)
(0.0699413 -0.00492634 0)
(0.0713495 -0.00492421 0)
(0.072757 -0.00492134 0)
(0.0741636 -0.00491766 0)
(0.0755691 -0.00491315 0)
(0.0769733 -0.00490775 0)
(0.0783758 -0.00490141 0)
(0.0797765 -0.00489409 0)
(0.0811749 -0.00488573 0)
(0.0825709 -0.0048763 0)
(0.0839641 -0.00486574 0)
(0.0853542 -0.00485399 0)
(0.0867408 -0.00484101 0)
(0.0881236 -0.00482675 0)
(0.0895022 -0.00481116 0)
(0.0908762 -0.00479418 0)
(0.0922452 -0.00477576 0)
(0.0936088 -0.00475585 0)
(0.0949666 -0.0047344 0)
(0.0963181 -0.00471136 0)
(0.0976628 -0.00468668 0)
(0.0990003 -0.0046603 0)
(0.10033 -0.00463218 0)
(0.101652 -0.00460227 0)
(0.102964 -0.00457053 0)
(0.104268 -0.00453689 0)
(0.105562 -0.00450133 0)
(0.106845 -0.00446379 0)
(0.108117 -0.00442423 0)
(0.109378 -0.00438262 0)
(0.110627 -0.00433891 0)
(0.111863 -0.00429306 0)
(0.113085 -0.00424505 0)
(0.114294 -0.00419484 0)
(0.115488 -0.00414239 0)
(0.116666 -0.0040877 0)
(0.117829 -0.00403072 0)
(0.118975 -0.00397144 0)
(0.120104 -0.00390984 0)
(0.121215 -0.00384591 0)
(0.122307 -0.00377964 0)
(0.12338 -0.00371102 0)
(0.124434 -0.00364004 0)
(0.125466 -0.00356672 0)
(0.126477 -0.00349104 0)
(0.127467 -0.00341303 0)
(0.128433 -0.00333269 0)
(0.129377 -0.00325005 0)
(0.130296 -0.00316512 0)
(0.131191 -0.00307793 0)
(0.13206 -0.00298852 0)
(0.132904 -0.00289691 0)
(0.133721 -0.00280315 0)
(0.134511 -0.00270729 0)
(0.135273 -0.00260937 0)
(0.136007 -0.00250945 0)
(0.136712 -0.00240758 0)
(0.137387 -0.00230383 0)
(0.138032 -0.00219827 0)
(0.138647 -0.00209096 0)
(0.139231 -0.00198199 0)
(0.139784 -0.00187142 0)
(0.140304 -0.00175935 0)
(0.140793 -0.00164587 0)
(0.141248 -0.00153105 0)
(0.141671 -0.001415 0)
(0.142059 -0.00129781 0)
(0.142415 -0.00117958 0)
(0.142736 -0.00106041 0)
(0.143023 -0.000940403 0)
(0.143275 -0.00081967 0)
(0.143493 -0.000698314 0)
(0.143675 -0.000576446 0)
(0.143823 -0.000454175 0)
(0.143935 -0.000331613 0)
(0.144013 -0.000208869 0)
(0.144055 -8.60561e-05 0)
(0.144062 3.67145e-05 0)
(0.144034 0.000159332 0)
(0.14397 0.000281685 0)
(0.143872 0.000403666 0)
(0.143738 0.000525165 0)
(0.14357 0.000646076 0)
(0.143368 0.000766294 0)
(0.14313 0.000885717 0)
(0.142859 0.00100424 0)
(0.142554 0.00112178 0)
(0.142216 0.00123822 0)
(0.141844 0.00135348 0)
(0.141439 0.00146747 0)
(0.141002 0.00158011 0)
(0.140533 0.00169131 0)
(0.140032 0.00180099 0)
(0.1395 0.00190908 0)
(0.138937 0.00201552 0)
(0.138344 0.00212022 0)
(0.137721 0.00222313 0)
(0.137069 0.00232419 0)
(0.136388 0.00242335 0)
(0.135679 0.00252056 0)
(0.134943 0.00261577 0)
(0.13418 0.00270894 0)
(0.13339 0.00280004 0)
(0.132575 0.00288903 0)
(0.131734 0.00297587 0)
(0.130869 0.00306056 0)
(0.12998 0.00314306 0)
(0.129068 0.00322337 0)
(0.128133 0.00330146 0)
(0.127176 0.00337733 0)
(0.126197 0.00345098 0)
(0.125198 0.00352241 0)
(0.124179 0.0035916 0)
(0.12314 0.00365858 0)
(0.122083 0.00372335 0)
(0.121007 0.00378593 0)
(0.119914 0.00384631 0)
(0.118804 0.00390454 0)
(0.117678 0.00396061 0)
(0.116536 0.00401457 0)
(0.115379 0.00406643 0)
(0.114207 0.00411621 0)
(0.113022 0.00416396 0)
(0.111823 0.00420969 0)
(0.110611 0.00425345 0)
(0.109388 0.00429527 0)
(0.108152 0.00433518 0)
(0.106906 0.00437322 0)
(0.105649 0.00440944 0)
(0.104382 0.00444386 0)
(0.103105 0.00447654 0)
(0.10182 0.00450751 0)
(0.100526 0.00453682 0)
(0.0992234 0.00456451 0)
(0.0979135 0.00459062 0)
(0.0965964 0.0046152 0)
(0.0952726 0.00463829 0)
(0.0939425 0.00465993 0)
(0.0926064 0.00468018 0)
(0.0912648 0.00469908 0)
(0.0899181 0.00471666 0)
(0.0885665 0.00473299 0)
(0.0872105 0.00474809 0)
(0.0858505 0.00476202 0)
(0.0844866 0.00477482 0)
(0.0831194 0.00478654 0)
(0.0817489 0.00479721 0)
(0.0803757 0.00480688 0)
(0.0789998 0.00481559 0)
(0.0776217 0.00482338 0)
(0.0762415 0.00483031 0)
(0.0748595 0.00483639 0)
(0.0734759 0.00484168 0)
(0.072091 0.00484622 0)
(0.0707049 0.00485004 0)
(0.0693178 0.00485318 0)
(0.0679301 0.00485568 0)
(0.0665417 0.00485757 0)
(0.0651529 0.0048589 0)
(0.0637639 0.00485968 0)
(0.0623747 0.00485997 0)
(0.0609856 0.00485979 0)
(0.0595967 0.00485917 0)
(0.058208 0.00485814 0)
(0.0568197 0.00485674 0)
(0.0554318 0.004855 0)
(0.0540446 0.00485294 0)
(0.052658 0.00485059 0)
(0.0512722 0.00484798 0)
(0.0498872 0.00484513 0)
(0.048503 0.00484208 0)
(0.0471198 0.00483884 0)
(0.0457376 0.00483544 0)
(0.0443564 0.0048319 0)
(0.0429762 0.00482825 0)
(0.0415972 0.0048245 0)
(0.0402192 0.00482068 0)
(0.0388423 0.00481681 0)
(0.0374666 0.0048129 0)
(0.0360921 0.00480898 0)
(0.0347187 0.00480505 0)
(0.0333464 0.00480115 0)
(0.0319752 0.00479728 0)
(0.0306052 0.00479346 0)
(0.0292363 0.0047897 0)
(0.0278684 0.00478602 0)
(0.0265016 0.00478243 0)
(0.0251358 0.00477895 0)
(0.0237711 0.00477558 0)
(0.0224072 0.00477234 0)
(0.0210443 0.00476924 0)
(0.0196823 0.00476628 0)
(0.0183211 0.00476348 0)
(0.0169607 0.00476085 0)
(0.0156011 0.00475838 0)
(0.0142421 0.0047561 0)
(0.0128837 0.004754 0)
(0.011526 0.0047521 0)
(0.0101687 0.0047504 0)
(0.00881194 0.00474889 0)
(0.00745557 0.0047476 0)
(0.00609954 0.00474651 0)
(0.00474379 0.00474564 0)
(0.00338827 0.00474499 0)
(0.0020329 0.00474456 0)
(0.000677622 0.00474434 0)
(0.000680968 -0.00613121 0)
(0.00204294 -0.00613156 0)
(0.00340504 -0.00613225 0)
(0.00476732 -0.00613329 0)
(0.00612989 -0.00613467 0)
(0.0074928 -0.00613639 0)
(0.00885613 -0.00613844 0)
(0.01022 -0.00614082 0)
(0.0115844 -0.00614353 0)
(0.0129495 -0.00614656 0)
(0.0143152 -0.0061499 0)
(0.0156818 -0.00615354 0)
(0.0170492 -0.00615748 0)
(0.0184176 -0.0061617 0)
(0.0197869 -0.00616619 0)
(0.0211573 -0.00617095 0)
(0.0225288 -0.00617595 0)
(0.0239015 -0.00618119 0)
(0.0252753 -0.00618665 0)
(0.0266504 -0.00619232 0)
(0.0280269 -0.00619818 0)
(0.0294047 -0.00620421 0)
(0.0307838 -0.00621039 0)
(0.0321644 -0.00621671 0)
(0.0335465 -0.00622314 0)
(0.03493 -0.00622967 0)
(0.036315 -0.00623626 0)
(0.0377015 -0.0062429 0)
(0.0390895 -0.00624956 0)
(0.0404791 -0.00625622 0)
(0.0418702 -0.00626284 0)
(0.0432628 -0.0062694 0)
(0.0446569 -0.00627587 0)
(0.0460524 -0.00628222 0)
(0.0474494 -0.00628842 0)
(0.0488479 -0.00629442 0)
(0.0502476 -0.00630021 0)
(0.0516487 -0.00630573 0)
(0.0530511 -0.00631096 0)
(0.0544547 -0.00631586 0)
(0.0558593 -0.00632038 0)
(0.057265 -0.00632448 0)
(0.0586716 -0.00632812 0)
(0.060079 -0.00633126 0)
(0.0614872 -0.00633384 0)
(0.0628959 -0.00633583 0)
(0.0643051 -0.00633718 0)
(0.0657146 -0.00633782 0)
(0.0671242 -0.00633773 0)
(0.0685338 -0.00633683 0)
(0.0699432 -0.00633508 0)
(0.0713522 -0.00633242 0)
(0.0727606 -0.0063288 0)
(0.0741681 -0.00632415 0)
(0.0755746 -0.00631843 0)
(0.0769798 -0.00631156 0)
(0.0783835 -0.0063035 0)
(0.0797853 -0.00629417 0)
(0.081185 -0.00628351 0)
(0.0825822 -0.00627147 0)
(0.0839767 -0.00625797 0)
(0.0853682 -0.00624296 0)
(0.0867563 -0.00622636 0)
(0.0881406 -0.00620811 0)
(0.0895207 -0.00618815 0)
(0.0908963 -0.00616641 0)
(0.092267 -0.00614281 0)
(0.0936323 -0.00611731 0)
(0.0949919 -0.00608982 0)
(0.0963452 -0.00606028 0)
(0.0976919 -0.00602863 0)
(0.0990313 -0.0059948 0)
(0.100363 -0.00595873 0)
(0.101687 -0.00592036 0)
(0.103002 -0.00587962 0)
(0.104307 -0.00583646 0)
(0.105603 -0.00579081 0)
(0.106889 -0.00574261 0)
(0.108163 -0.00569182 0)
(0.109427 -0.00563839 0)
(0.110678 -0.00558225 0)
(0.111916 -0.00552337 0)
(0.113141 -0.00546169 0)
(0.114352 -0.00539718 0)
(0.115549 -0.0053298 0)
(0.11673 -0.00525952 0)
(0.117895 -0.00518629 0)
(0.119044 -0.00511011 0)
(0.120176 -0.00503094 0)
(0.121289 -0.00494876 0)
(0.122384 -0.00486356 0)
(0.12346 -0.00477534 0)
(0.124516 -0.00468409 0)
(0.125551 -0.0045898 0)
(0.126565 -0.00449249 0)
(0.127557 -0.00439216 0)
(0.128526 -0.00428884 0)
(0.129472 -0.00418255 0)
(0.130394 -0.00407331 0)
(0.131292 -0.00396116 0)
(0.132164 -0.00384613 0)
(0.13301 -0.00372829 0)
(0.133829 -0.00360766 0)
(0.134622 -0.00348433 0)
(0.135386 -0.00335834 0)
(0.136122 -0.00322977 0)
(0.136829 -0.00309869 0)
(0.137507 -0.00296518 0)
(0.138154 -0.00282933 0)
(0.138771 -0.00269124 0)
(0.139357 -0.00255099 0)
(0.139911 -0.0024087 0)
(0.140433 -0.00226446 0)
(0.140923 -0.00211839 0)
(0.14138 -0.00197061 0)
(0.141804 -0.00182124 0)
(0.142194 -0.00167039 0)
(0.14255 -0.00151821 0)
(0.142873 -0.00136481 0)
(0.14316 -0.00121034 0)
(0.143413 -0.00105493 0)
(0.143632 -0.000898713 0)
(0.143815 -0.000741838 0)
(0.143963 -0.000584443 0)
(0.144076 -0.000426671 0)
(0.144153 -0.000268667 0)
(0.144195 -0.000110574 0)
(0.144202 4.74643e-05 0)
(0.144174 0.000205304 0)
(0.14411 0.000362803 0)