/*--------------------------------*- C++ -*----------------------------------*\
| =========                 |                                                 |
| \\      /  F ield         | OpenFOAM: The Open Source CFD Toolbox           |
|  \\    /   O peration     | Version:  v2012                                 |
|   \\  /    A nd           | Website:  www.openfoam.com                      |
|    \\/     M anipulation  |                                                 |
\*---------------------------------------------------------------------------*/
FoamFile
{
    version     2.0;
    format      ascii;
    class       volVectorField;
    location    "6.2";
    object      Psi;
}
// * * * * * * * * * * * * * * * * * * * * * * * * * * * * * * * * * * * * * //

dimensions      [0 2 -1 0 0 0 0];


internalField   nonuniform List<vector> 
65536
(
(0 0 9.19172e-06)
(0 0 2.75748e-05)
(0 0 4.59571e-05)
(0 0 6.43381e-05)
(0 0 8.27172e-05)
(0 0 0.000101094)
(0 0 0.000119467)
(0 0 0.000137837)
(0 0 0.000156203)
(0 0 0.000174564)
(0 0 0.000192919)
(0 0 0.000211268)
(0 0 0.000229609)
(0 0 0.000247943)
(0 0 0.000266269)
(0 0 0.000284584)
(0 0 0.000302889)
(0 0 0.000321183)
(0 0 0.000339464)
(0 0 0.000357731)
(0 0 0.000375984)
(0 0 0.00039422)
(0 0 0.000412439)
(0 0 0.000430639)
(0 0 0.000448819)
(0 0 0.000466977)
(0 0 0.000485112)
(0 0 0.000503222)
(0 0 0.000521304)
(0 0 0.000539358)
(0 0 0.000557381)
(0 0 0.000575371)
(0 0 0.000593326)
(0 0 0.000611243)
(0 0 0.000629121)
(0 0 0.000646957)
(0 0 0.000664748)
(0 0 0.000682492)
(0 0 0.000700185)
(0 0 0.000717825)
(0 0 0.000735409)
(0 0 0.000752934)
(0 0 0.000770397)
(0 0 0.000787794)
(0 0 0.000805122)
(0 0 0.000822377)
(0 0 0.000839556)
(0 0 0.000856654)
(0 0 0.000873669)
(0 0 0.000890596)
(0 0 0.000907431)
(0 0 0.00092417)
(0 0 0.000940808)
(0 0 0.000957342)
(0 0 0.000973767)
(0 0 0.000990077)
(0 0 0.00100627)
(0 0 0.00102234)
(0 0 0.00103828)
(0 0 0.00105409)
(0 0 0.00106976)
(0 0 0.00108529)
(0 0 0.00110067)
(0 0 0.0011159)
(0 0 0.00113097)
(0 0 0.00114588)
(0 0 0.00116062)
(0 0 0.00117518)
(0 0 0.00118957)
(0 0 0.00120377)
(0 0 0.00121778)
(0 0 0.0012316)
(0 0 0.00124522)
(0 0 0.00125863)
(0 0 0.00127183)
(0 0 0.00128481)
(0 0 0.00129758)
(0 0 0.00131011)
(0 0 0.00132242)
(0 0 0.00133449)
(0 0 0.00134631)
(0 0 0.00135789)
(0 0 0.00136922)
(0 0 0.00138029)
(0 0 0.0013911)
(0 0 0.00140164)
(0 0 0.00141192)
(0 0 0.00142191)
(0 0 0.00143163)
(0 0 0.00144107)
(0 0 0.00145022)
(0 0 0.00145908)
(0 0 0.00146765)
(0 0 0.00147591)
(0 0 0.00148388)
(0 0 0.00149154)
(0 0 0.0014989)
(0 0 0.00150594)
(0 0 0.00151268)
(0 0 0.00151909)
(0 0 0.00152519)
(0 0 0.00153097)
(0 0 0.00153643)
(0 0 0.00154157)
(0 0 0.00154638)
(0 0 0.00155087)
(0 0 0.00155503)
(0 0 0.00155887)
(0 0 0.00156238)
(0 0 0.00156555)
(0 0 0.0015684)
(0 0 0.00157093)
(0 0 0.00157312)
(0 0 0.00157499)
(0 0 0.00157653)
(0 0 0.00157774)
(0 0 0.00157863)
(0 0 0.0015792)
(0 0 0.00157944)
(0 0 0.00157936)
(0 0 0.00157896)
(0 0 0.00157825)
(0 0 0.00157722)
(0 0 0.00157588)
(0 0 0.00157423)
(0 0 0.00157227)
(0 0 0.00157)
(0 0 0.00156743)
(0 0 0.00156457)
(0 0 0.0015614)
(0 0 0.00155795)
(0 0 0.0015542)
(0 0 0.00155017)
(0 0 0.00154586)
(0 0 0.00154127)
(0 0 0.0015364)
(0 0 0.00153126)
(0 0 0.00152586)
(0 0 0.00152019)
(0 0 0.00151426)
(0 0 0.00150808)
(0 0 0.00150165)
(0 0 0.00149497)
(0 0 0.00148805)
(0 0 0.00148089)
(0 0 0.00147349)
(0 0 0.00146587)
(0 0 0.00145802)
(0 0 0.00144995)
(0 0 0.00144167)
(0 0 0.00143317)
(0 0 0.00142447)
(0 0 0.00141556)
(0 0 0.00140646)
(0 0 0.00139716)
(0 0 0.00138767)
(0 0 0.00137799)
(0 0 0.00136814)
(0 0 0.00135811)
(0 0 0.0013479)
(0 0 0.00133753)
(0 0 0.00132699)
(0 0 0.00131629)
(0 0 0.00130543)
(0 0 0.00129443)
(0 0 0.00128327)
(0 0 0.00127197)
(0 0 0.00126053)
(0 0 0.00124896)
(0 0 0.00123725)
(0 0 0.00122541)
(0 0 0.00121345)
(0 0 0.00120137)
(0 0 0.00118916)
(0 0 0.00117685)
(0 0 0.00116442)
(0 0 0.00115188)
(0 0 0.00113924)
(0 0 0.0011265)
(0 0 0.00111366)
(0 0 0.00110073)
(0 0 0.0010877)
(0 0 0.00107458)
(0 0 0.00106138)
(0 0 0.0010481)
(0 0 0.00103473)
(0 0 0.00102129)
(0 0 0.00100777)
(0 0 0.000994184)
(0 0 0.000980525)
(0 0 0.000966799)
(0 0 0.000953008)
(0 0 0.000939154)
(0 0 0.000925241)
(0 0 0.000911269)
(0 0 0.000897242)
(0 0 0.000883161)
(0 0 0.000869029)
(0 0 0.000854848)
(0 0 0.000840619)
(0 0 0.000826344)
(0 0 0.000812026)
(0 0 0.000797666)
(0 0 0.000783265)
(0 0 0.000768826)
(0 0 0.000754351)
(0 0 0.00073984)
(0 0 0.000725295)
(0 0 0.000710718)
(0 0 0.000696111)
(0 0 0.000681474)
(0 0 0.000666809)
(0 0 0.000652117)
(0 0 0.0006374)
(0 0 0.000622658)
(0 0 0.000607894)
(0 0 0.000593107)
(0 0 0.0005783)
(0 0 0.000563472)
(0 0 0.000548626)
(0 0 0.000533762)
(0 0 0.000518881)
(0 0 0.000503985)
(0 0 0.000489073)
(0 0 0.000474146)
(0 0 0.000459206)
(0 0 0.000444254)
(0 0 0.000429289)
(0 0 0.000414313)
(0 0 0.000399326)
(0 0 0.00038433)
(0 0 0.000369323)
(0 0 0.000354308)
(0 0 0.000339285)
(0 0 0.000324254)
(0 0 0.000309216)
(0 0 0.000294171)
(0 0 0.000279119)
(0 0 0.000264062)
(0 0 0.000249)
(0 0 0.000233932)
(0 0 0.00021886)
(0 0 0.000203783)
(0 0 0.000188703)
(0 0 0.000173619)
(0 0 0.000158532)
(0 0 0.000143442)
(0 0 0.00012835)
(0 0 0.000113255)
(0 0 9.81583e-05)
(0 0 8.30599e-05)
(0 0 6.796e-05)
(0 0 5.2859e-05)
(0 0 3.77571e-05)
(0 0 2.26545e-05)
(0 0 7.55154e-06)
(0 0 2.75753e-05)
(0 0 8.27251e-05)
(0 0 0.000137873)
(0 0 0.000193016)
(0 0 0.000248154)
(0 0 0.000303284)
(0 0 0.000358405)
(0 0 0.000413515)
(0 0 0.000468613)
(0 0 0.000523696)
(0 0 0.000578762)
(0 0 0.000633809)
(0 0 0.000688835)
(0 0 0.000743838)
(0 0 0.000798814)
(0 0 0.000853762)
(0 0 0.000908678)
(0 0 0.00096356)
(0 0 0.0010184)
(0 0 0.00107321)
(0 0 0.00112797)
(0 0 0.00118268)
(0 0 0.00123733)
(0 0 0.00129194)
(0 0 0.00134648)
(0 0 0.00140095)
(0 0 0.00145536)
(0 0 0.00150969)
(0 0 0.00156394)
(0 0 0.0016181)
(0 0 0.00167217)
(0 0 0.00172614)
(0 0 0.00178001)
(0 0 0.00183377)
(0 0 0.0018874)
(0 0 0.00194091)
(0 0 0.00199429)
(0 0 0.00204752)
(0 0 0.00210061)
(0 0 0.00215353)
(0 0 0.00220628)
(0 0 0.00225886)
(0 0 0.00231125)
(0 0 0.00236345)
(0 0 0.00241543)
(0 0 0.0024672)
(0 0 0.00251874)
(0 0 0.00257004)
(0 0 0.00262109)
(0 0 0.00267188)
(0 0 0.00272239)
(0 0 0.00277261)
(0 0 0.00282253)
(0 0 0.00287213)
(0 0 0.00292141)
(0 0 0.00297035)
(0 0 0.00301893)
(0 0 0.00306714)
(0 0 0.00311497)
(0 0 0.0031624)
(0 0 0.00320942)
(0 0 0.00325601)
(0 0 0.00330216)
(0 0 0.00334785)
(0 0 0.00339307)
(0 0 0.0034378)
(0 0 0.00348202)
(0 0 0.00352572)
(0 0 0.00356888)
(0 0 0.0036115)
(0 0 0.00365354)
(0 0 0.003695)
(0 0 0.00373585)
(0 0 0.00377609)
(0 0 0.0038157)
(0 0 0.00385466)
(0 0 0.00389295)
(0 0 0.00393057)
(0 0 0.00396749)
(0 0 0.0040037)
(0 0 0.00403918)
(0 0 0.00407392)
(0 0 0.00410791)
(0 0 0.00414112)
(0 0 0.00417356)
(0 0 0.00420519)
(0 0 0.00423602)
(0 0 0.00426602)
(0 0 0.00429518)
(0 0 0.0043235)
(0 0 0.00435095)
(0 0 0.00437753)
(0 0 0.00440323)
(0 0 0.00442804)
(0 0 0.00445194)
(0 0 0.00447493)
(0 0 0.004497)
(0 0 0.00451814)
(0 0 0.00453834)
(0 0 0.00455759)
(0 0 0.00457589)
(0 0 0.00459324)
(0 0 0.00460962)
(0 0 0.00462503)
(0 0 0.00463947)
(0 0 0.00465294)
(0 0 0.00466542)
(0 0 0.00467693)
(0 0 0.00468745)
(0 0 0.00469699)
(0 0 0.00470554)
(0 0 0.0047131)
(0 0 0.00471969)
(0 0 0.00472529)
(0 0 0.00472991)
(0 0 0.00473355)
(0 0 0.00473621)
(0 0 0.00473791)
(0 0 0.00473863)
(0 0 0.0047384)
(0 0 0.0047372)
(0 0 0.00473506)
(0 0 0.00473197)
(0 0 0.00472794)
(0 0 0.00472298)
(0 0 0.0047171)
(0 0 0.0047103)
(0 0 0.00470259)
(0 0 0.00469399)
(0 0 0.0046845)
(0 0 0.00467413)
(0 0 0.00466289)
(0 0 0.00465079)
(0 0 0.00463785)
(0 0 0.00462407)
(0 0 0.00460947)
(0 0 0.00459405)
(0 0 0.00457783)
(0 0 0.00456082)
(0 0 0.00454304)
(0 0 0.00452448)
(0 0 0.00450518)
(0 0 0.00448514)
(0 0 0.00446437)
(0 0 0.00444289)
(0 0 0.0044207)
(0 0 0.00439783)
(0 0 0.00437428)
(0 0 0.00435007)
(0 0 0.00432521)
(0 0 0.00429972)
(0 0 0.00427361)
(0 0 0.00424688)
(0 0 0.00421956)
(0 0 0.00419166)
(0 0 0.00416319)
(0 0 0.00413416)
(0 0 0.00410459)
(0 0 0.00407449)
(0 0 0.00404387)
(0 0 0.00401274)
(0 0 0.00398112)
(0 0 0.00394902)
(0 0 0.00391645)
(0 0 0.00388343)
(0 0 0.00384996)
(0 0 0.00381606)
(0 0 0.00378174)
(0 0 0.00374701)
(0 0 0.00371188)
(0 0 0.00367636)
(0 0 0.00364047)
(0 0 0.00360421)
(0 0 0.0035676)
(0 0 0.00353065)
(0 0 0.00349336)
(0 0 0.00345575)
(0 0 0.00341782)
(0 0 0.0033796)
(0 0 0.00334107)
(0 0 0.00330227)
(0 0 0.00326319)
(0 0 0.00322384)
(0 0 0.00318423)
(0 0 0.00314437)
(0 0 0.00310428)
(0 0 0.00306395)
(0 0 0.00302339)
(0 0 0.00298262)
(0 0 0.00294164)
(0 0 0.00290046)
(0 0 0.00285908)
(0 0 0.00281752)
(0 0 0.00277578)
(0 0 0.00273386)
(0 0 0.00269178)
(0 0 0.00264953)
(0 0 0.00260714)
(0 0 0.00256459)
(0 0 0.0025219)
(0 0 0.00247908)
(0 0 0.00243612)
(0 0 0.00239304)
(0 0 0.00234983)
(0 0 0.00230652)
(0 0 0.00226309)
(0 0 0.00221955)
(0 0 0.00217592)
(0 0 0.00213219)
(0 0 0.00208836)
(0 0 0.00204445)
(0 0 0.00200045)
(0 0 0.00195638)
(0 0 0.00191222)
(0 0 0.001868)
(0 0 0.0018237)
(0 0 0.00177934)
(0 0 0.00173492)
(0 0 0.00169044)
(0 0 0.0016459)
(0 0 0.0016013)
(0 0 0.00155666)
(0 0 0.00151197)
(0 0 0.00146723)
(0 0 0.00142245)
(0 0 0.00137763)
(0 0 0.00133277)
(0 0 0.00128788)
(0 0 0.00124295)
(0 0 0.00119799)
(0 0 0.001153)
(0 0 0.00110798)
(0 0 0.00106293)
(0 0 0.00101786)
(0 0 0.000972769)
(0 0 0.000927654)
(0 0 0.000882518)
(0 0 0.000837364)
(0 0 0.000792192)
(0 0 0.000747004)
(0 0 0.000701801)
(0 0 0.000656584)
(0 0 0.000611354)
(0 0 0.000566113)
(0 0 0.000520861)
(0 0 0.0004756)
(0 0 0.00043033)
(0 0 0.000385052)
(0 0 0.000339767)
(0 0 0.000294477)
(0 0 0.000249181)
(0 0 0.000203881)
(0 0 0.000158578)
(0 0 0.000113272)
(0 0 6.79639e-05)
(0 0 2.26548e-05)
(0 0 4.59597e-05)
(0 0 0.000137878)
(0 0 0.000229792)
(0 0 0.000321699)
(0 0 0.000413597)
(0 0 0.000505483)
(0 0 0.000597354)
(0 0 0.000689206)
(0 0 0.000781038)
(0 0 0.000872845)
(0 0 0.000964624)
(0 0 0.00105637)
(0 0 0.00114808)
(0 0 0.00123976)
(0 0 0.00133139)
(0 0 0.00142297)
(0 0 0.0015145)
(0 0 0.00160598)
(0 0 0.00169739)
(0 0 0.00178873)
(0 0 0.00188)
(0 0 0.00197119)
(0 0 0.00206229)
(0 0 0.00215329)
(0 0 0.0022442)
(0 0 0.002335)
(0 0 0.00242568)
(0 0 0.00251624)
(0 0 0.00260666)
(0 0 0.00269694)
(0 0 0.00278706)
(0 0 0.00287702)
(0 0 0.00296681)
(0 0 0.00305641)
(0 0 0.00314581)
(0 0 0.003235)
(0 0 0.00332397)
(0 0 0.0034127)
(0 0 0.00350118)
(0 0 0.0035894)
(0 0 0.00367734)
(0 0 0.00376498)
(0 0 0.00385231)
(0 0 0.00393931)
(0 0 0.00402597)
(0 0 0.00411226)
(0 0 0.00419817)
(0 0 0.00428368)
(0 0 0.00436878)
(0 0 0.00445343)
(0 0 0.00453763)
(0 0 0.00462134)
(0 0 0.00470456)
(0 0 0.00478725)
(0 0 0.00486939)
(0 0 0.00495097)
(0 0 0.00503196)
(0 0 0.00511233)
(0 0 0.00519206)
(0 0 0.00527113)
(0 0 0.00534951)
(0 0 0.00542718)
(0 0 0.00550411)
(0 0 0.00558028)
(0 0 0.00565566)
(0 0 0.00573022)
(0 0 0.00580394)
(0 0 0.0058768)
(0 0 0.00594875)
(0 0 0.00601979)
(0 0 0.00608988)
(0 0 0.00615899)
(0 0 0.00622711)
(0 0 0.00629419)
(0 0 0.00636022)
(0 0 0.00642517)
(0 0 0.00648901)
(0 0 0.00655172)
(0 0 0.00661327)
(0 0 0.00667363)
(0 0 0.00673279)
(0 0 0.00679071)
(0 0 0.00684737)
(0 0 0.00690274)
(0 0 0.00695681)
(0 0 0.00700955)
(0 0 0.00706094)
(0 0 0.00711096)
(0 0 0.00715958)
(0 0 0.00720678)
(0 0 0.00725255)
(0 0 0.00729687)
(0 0 0.00733972)
(0 0 0.00738107)
(0 0 0.00742092)
(0 0 0.00745924)
(0 0 0.00749603)
(0 0 0.00753127)
(0 0 0.00756494)
(0 0 0.00759704)
(0 0 0.00762755)
(0 0 0.00765647)
(0 0 0.00768377)
(0 0 0.00770947)
(0 0 0.00773354)
(0 0 0.00775598)
(0 0 0.0077768)
(0 0 0.00779597)
(0 0 0.00781351)
(0 0 0.0078294)
(0 0 0.00784366)
(0 0 0.00785627)
(0 0 0.00786724)
(0 0 0.00787657)
(0 0 0.00788426)
(0 0 0.00789033)
(0 0 0.00789477)
(0 0 0.00789759)
(0 0 0.00789879)
(0 0 0.00789839)
(0 0 0.0078964)
(0 0 0.00789281)
(0 0 0.00788766)
(0 0 0.00788093)
(0 0 0.00787266)
(0 0 0.00786284)
(0 0 0.0078515)
(0 0 0.00783865)
(0 0 0.0078243)
(0 0 0.00780847)
(0 0 0.00779118)
(0 0 0.00777244)
(0 0 0.00775226)
(0 0 0.00773068)
(0 0 0.0077077)
(0 0 0.00768335)
(0 0 0.00765764)
(0 0 0.00763059)
(0 0 0.00760223)
(0 0 0.00757258)
(0 0 0.00754164)
(0 0 0.00750946)
(0 0 0.00747604)
(0 0 0.00744141)
(0 0 0.00740559)
(0 0 0.0073686)
(0 0 0.00733046)
(0 0 0.0072912)
(0 0 0.00725084)
(0 0 0.0072094)
(0 0 0.00716689)
(0 0 0.00712335)
(0 0 0.0070788)
(0 0 0.00703325)
(0 0 0.00698674)
(0 0 0.00693927)
(0 0 0.00689087)
(0 0 0.00684157)
(0 0 0.00679139)
(0 0 0.00674034)
(0 0 0.00668845)
(0 0 0.00663574)
(0 0 0.00658222)
(0 0 0.00652793)
(0 0 0.00647287)
(0 0 0.00641708)
(0 0 0.00636057)
(0 0 0.00630335)
(0 0 0.00624545)
(0 0 0.00618689)
(0 0 0.00612768)
(0 0 0.00606785)
(0 0 0.00600741)
(0 0 0.00594639)
(0 0 0.00588478)
(0 0 0.00582263)
(0 0 0.00575993)
(0 0 0.00569671)
(0 0 0.00563299)
(0 0 0.00556877)
(0 0 0.00550409)
(0 0 0.00543894)
(0 0 0.00537335)
(0 0 0.00530733)
(0 0 0.00524089)
(0 0 0.00517405)
(0 0 0.00510683)
(0 0 0.00503923)
(0 0 0.00497127)
(0 0 0.00490296)
(0 0 0.00483432)
(0 0 0.00476535)
(0 0 0.00469607)
(0 0 0.00462649)
(0 0 0.00455662)
(0 0 0.00448648)
(0 0 0.00441606)
(0 0 0.00434539)
(0 0 0.00427448)
(0 0 0.00420332)
(0 0 0.00413194)
(0 0 0.00406034)
(0 0 0.00398853)
(0 0 0.00391652)
(0 0 0.00384432)
(0 0 0.00377193)
(0 0 0.00369937)
(0 0 0.00362664)
(0 0 0.00355375)
(0 0 0.0034807)
(0 0 0.00340751)
(0 0 0.00333418)
(0 0 0.00326071)
(0 0 0.00318712)
(0 0 0.00311341)
(0 0 0.00303958)
(0 0 0.00296564)
(0 0 0.0028916)
(0 0 0.00281746)
(0 0 0.00274322)
(0 0 0.0026689)
(0 0 0.00259449)
(0 0 0.00252)
(0 0 0.00244543)
(0 0 0.0023708)
(0 0 0.0022961)
(0 0 0.00222133)
(0 0 0.0021465)
(0 0 0.00207162)
(0 0 0.00199668)
(0 0 0.0019217)
(0 0 0.00184666)
(0 0 0.00177158)
(0 0 0.00169646)
(0 0 0.00162131)
(0 0 0.00154611)
(0 0 0.00147088)
(0 0 0.00139563)
(0 0 0.00132034)
(0 0 0.00124502)
(0 0 0.00116968)
(0 0 0.00109432)
(0 0 0.00101894)
(0 0 0.000943533)
(0 0 0.000868112)
(0 0 0.000792676)
(0 0 0.000717225)
(0 0 0.000641761)
(0 0 0.000566285)
(0 0 0.0004908)
(0 0 0.000415307)
(0 0 0.000339806)
(0 0 0.0002643)
(0 0 0.000188789)
(0 0 0.000113274)
(0 0 3.77583e-05)
(0 0 6.43455e-05)
(0 0 0.000193035)
(0 0 0.000321718)
(0 0 0.000450392)
(0 0 0.000579054)
(0 0 0.000707698)
(0 0 0.000836321)
(0 0 0.000964919)
(0 0 0.00109349)
(0 0 0.00122202)
(0 0 0.00135052)
(0 0 0.00147897)
(0 0 0.00160737)
(0 0 0.00173572)
(0 0 0.00186401)
(0 0 0.00199223)
(0 0 0.00212038)
(0 0 0.00224845)
(0 0 0.00237644)
(0 0 0.00250432)
(0 0 0.00263211)
(0 0 0.00275978)
(0 0 0.00288733)
(0 0 0.00301475)
(0 0 0.00314204)
(0 0 0.00326916)
(0 0 0.00339613)
(0 0 0.00352292)
(0 0 0.00364953)
(0 0 0.00377593)
(0 0 0.00390212)
(0 0 0.00402808)
(0 0 0.0041538)
(0 0 0.00427925)
(0 0 0.00440443)
(0 0 0.00452932)
(0 0 0.00465389)
(0 0 0.00477814)
(0 0 0.00490203)
(0 0 0.00502555)
(0 0 0.00514869)
(0 0 0.00527141)
(0 0 0.00539369)
(0 0 0.00551552)
(0 0 0.00563686)
(0 0 0.0057577)
(0 0 0.005878)
(0 0 0.00599775)
(0 0 0.00611691)
(0 0 0.00623545)
(0 0 0.00635335)
(0 0 0.00647058)
(0 0 0.00658711)
(0 0 0.00670291)
(0 0 0.00681795)
(0 0 0.00693219)
(0 0 0.0070456)
(0 0 0.00715816)
(0 0 0.00726982)
(0 0 0.00738055)
(0 0 0.00749032)
(0 0 0.00759909)
(0 0 0.00770683)
(0 0 0.0078135)
(0 0 0.00791907)
(0 0 0.00802349)
(0 0 0.00812674)
(0 0 0.00822877)
(0 0 0.00832955)
(0 0 0.00842904)
(0 0 0.0085272)
(0 0 0.008624)
(0 0 0.00871939)
(0 0 0.00881335)
(0 0 0.00890582)
(0 0 0.00899679)
(0 0 0.0090862)
(0 0 0.00917403)
(0 0 0.00926023)
(0 0 0.00934478)
(0 0 0.00942763)
(0 0 0.00950875)
(0 0 0.00958811)
(0 0 0.00966567)
(0 0 0.0097414)
(0 0 0.00981527)
(0 0 0.00988725)
(0 0 0.0099573)
(0 0 0.0100254)
(0 0 0.0100915)
(0 0 0.0101556)
(0 0 0.0102177)
(0 0 0.0102777)
(0 0 0.0103356)
(0 0 0.0103914)
(0 0 0.0104451)
(0 0 0.0104966)
(0 0 0.010546)
(0 0 0.0105931)
(0 0 0.0106381)
(0 0 0.0106808)
(0 0 0.0107213)
(0 0 0.0107595)
(0 0 0.0107955)
(0 0 0.0108292)
(0 0 0.0108607)
(0 0 0.0108898)
(0 0 0.0109167)
(0 0 0.0109412)
(0 0 0.0109635)
(0 0 0.0109834)
(0 0 0.0110011)
(0 0 0.0110164)
(0 0 0.0110295)
(0 0 0.0110403)
(0 0 0.0110487)
(0 0 0.0110549)
(0 0 0.0110589)
(0 0 0.0110606)
(0 0 0.01106)
(0 0 0.0110572)
(0 0 0.0110521)
(0 0 0.0110449)
(0 0 0.0110355)
(0 0 0.0110239)
(0 0 0.0110101)
(0 0 0.0109942)
(0 0 0.0109762)
(0 0 0.0109561)
(0 0 0.0109339)
(0 0 0.0109097)
(0 0 0.0108834)
(0 0 0.0108551)
(0 0 0.0108249)
(0 0 0.0107927)
(0 0 0.0107586)
(0 0 0.0107226)
(0 0 0.0106847)
(0 0 0.0106449)
(0 0 0.0106034)
(0 0 0.0105601)
(0 0 0.010515)
(0 0 0.0104682)
(0 0 0.0104196)
(0 0 0.0103695)
(0 0 0.0103176)
(0 0 0.0102642)
(0 0 0.0102092)
(0 0 0.0101527)
(0 0 0.0100946)
(0 0 0.0100351)
(0 0 0.00997412)
(0 0 0.00991171)
(0 0 0.00984791)
(0 0 0.00978276)
(0 0 0.00971628)
(0 0 0.00964849)
(0 0 0.00957944)
(0 0 0.00950915)
(0 0 0.00943766)
(0 0 0.00936498)
(0 0 0.00929115)
(0 0 0.0092162)
(0 0 0.00914017)
(0 0 0.00906306)
(0 0 0.00898492)
(0 0 0.00890577)
(0 0 0.00882564)
(0 0 0.00874456)
(0 0 0.00866255)
(0 0 0.00857964)
(0 0 0.00849585)
(0 0 0.00841121)
(0 0 0.00832574)
(0 0 0.00823948)
(0 0 0.00815243)
(0 0 0.00806463)
(0 0 0.00797611)
(0 0 0.00788687)
(0 0 0.00779695)
(0 0 0.00770636)
(0 0 0.00761514)
(0 0 0.00752329)
(0 0 0.00743084)
(0 0 0.00733781)
(0 0 0.00724422)
(0 0 0.00715008)
(0 0 0.00705543)
(0 0 0.00696026)
(0 0 0.00686462)
(0 0 0.0067685)
(0 0 0.00667193)
(0 0 0.00657492)
(0 0 0.00647749)
(0 0 0.00637966)
(0 0 0.00628144)
(0 0 0.00618285)
(0 0 0.0060839)
(0 0 0.0059846)
(0 0 0.00588497)
(0 0 0.00578502)
(0 0 0.00568477)
(0 0 0.00558422)
(0 0 0.00548339)
(0 0 0.0053823)
(0 0 0.00528095)
(0 0 0.00517935)
(0 0 0.00507752)
(0 0 0.00497546)
(0 0 0.00487319)
(0 0 0.00477071)
(0 0 0.00466803)
(0 0 0.00456517)
(0 0 0.00446214)
(0 0 0.00435893)
(0 0 0.00425556)
(0 0 0.00415204)
(0 0 0.00404837)
(0 0 0.00394457)
(0 0 0.00384063)
(0 0 0.00373657)
(0 0 0.00363239)
(0 0 0.0035281)
(0 0 0.00342371)
(0 0 0.00331921)
(0 0 0.00321462)
(0 0 0.00310995)
(0 0 0.00300518)
(0 0 0.00290034)
(0 0 0.00279543)
(0 0 0.00269044)
(0 0 0.00258539)
(0 0 0.00248027)
(0 0 0.0023751)
(0 0 0.00226988)
(0 0 0.0021646)
(0 0 0.00205928)
(0 0 0.00195392)
(0 0 0.00184851)
(0 0 0.00174307)
(0 0 0.00163759)
(0 0 0.00153208)
(0 0 0.00142654)
(0 0 0.00132097)
(0 0 0.00121538)
(0 0 0.00110977)
(0 0 0.00100413)
(0 0 0.000898481)
(0 0 0.000792813)
(0 0 0.000687132)
(0 0 0.000581439)
(0 0 0.000475737)
(0 0 0.000370026)
(0 0 0.000264308)
(0 0 0.000158587)
(0 0 5.28626e-05)
(0 0 8.27331e-05)
(0 0 0.000248197)
(0 0 0.000413654)
(0 0 0.000579099)
(0 0 0.000744527)
(0 0 0.000909933)
(0 0 0.00107531)
(0 0 0.00124066)
(0 0 0.00140597)
(0 0 0.00157124)
(0 0 0.00173646)
(0 0 0.00190162)
(0 0 0.00206672)
(0 0 0.00223175)
(0 0 0.0023967)
(0 0 0.00256157)
(0 0 0.00272635)
(0 0 0.00289102)
(0 0 0.00305558)
(0 0 0.00322002)
(0 0 0.00338433)
(0 0 0.0035485)
(0 0 0.00371251)
(0 0 0.00387636)
(0 0 0.00404002)
(0 0 0.00420349)
(0 0 0.00436676)
(0 0 0.00452979)
(0 0 0.00469259)
(0 0 0.00485514)
(0 0 0.0050174)
(0 0 0.00517938)
(0 0 0.00534104)
(0 0 0.00550237)
(0 0 0.00566335)
(0 0 0.00582395)
(0 0 0.00598414)
(0 0 0.00614392)
(0 0 0.00630325)
(0 0 0.0064621)
(0 0 0.00662045)
(0 0 0.00677827)
(0 0 0.00693554)
(0 0 0.00709221)
(0 0 0.00724827)
(0 0 0.00740367)
(0 0 0.00755839)
(0 0 0.0077124)
(0 0 0.00786565)
(0 0 0.00801811)
(0 0 0.00816975)
(0 0 0.00832053)
(0 0 0.0084704)
(0 0 0.00861934)
(0 0 0.0087673)
(0 0 0.00891423)
(0 0 0.00906011)
(0 0 0.00920488)
(0 0 0.0093485)
(0 0 0.00949093)
(0 0 0.00963212)
(0 0 0.00977203)
(0 0 0.00991062)
(0 0 0.0100478)
(0 0 0.0101836)
(0 0 0.0103179)
(0 0 0.0104507)
(0 0 0.010582)
(0 0 0.0107116)
(0 0 0.0108396)
(0 0 0.0109659)
(0 0 0.0110904)
(0 0 0.0112131)
(0 0 0.011334)
(0 0 0.0114529)
(0 0 0.01157)
(0 0 0.011685)
(0 0 0.011798)
(0 0 0.0119089)
(0 0 0.0120176)
(0 0 0.0121242)
(0 0 0.0122286)
(0 0 0.0123307)
(0 0 0.0124304)
(0 0 0.0125279)
(0 0 0.0126229)
(0 0 0.0127155)
(0 0 0.0128056)
(0 0 0.0128932)
(0 0 0.0129782)
(0 0 0.0130607)
(0 0 0.0131406)
(0 0 0.0132177)
(0 0 0.0132923)
(0 0 0.013364)
(0 0 0.0134331)
(0 0 0.0134994)
(0 0 0.0135629)
(0 0 0.0136235)
(0 0 0.0136813)
(0 0 0.0137363)
(0 0 0.0137884)
(0 0 0.0138376)
(0 0 0.0138839)
(0 0 0.0139272)
(0 0 0.0139676)
(0 0 0.0140051)
(0 0 0.0140396)
(0 0 0.0140712)
(0 0 0.0140998)
(0 0 0.0141255)
(0 0 0.0141482)
(0 0 0.0141679)
(0 0 0.0141847)
(0 0 0.0141985)
(0 0 0.0142094)
(0 0 0.0142174)
(0 0 0.0142224)
(0 0 0.0142246)
(0 0 0.0142238)
(0 0 0.0142202)
(0 0 0.0142137)
(0 0 0.0142044)
(0 0 0.0141922)
(0 0 0.0141773)
(0 0 0.0141595)
(0 0 0.0141391)
(0 0 0.0141159)
(0 0 0.01409)
(0 0 0.0140614)
(0 0 0.0140302)
(0 0 0.0139964)
(0 0 0.01396)
(0 0 0.0139211)
(0 0 0.0138796)
(0 0 0.0138357)
(0 0 0.0137894)
(0 0 0.0137406)
(0 0 0.0136895)
(0 0 0.013636)
(0 0 0.0135802)
(0 0 0.0135222)
(0 0 0.013462)
(0 0 0.0133995)
(0 0 0.013335)
(0 0 0.0132683)
(0 0 0.0131996)
(0 0 0.0131288)
(0 0 0.0130561)
(0 0 0.0129814)
(0 0 0.0129048)
(0 0 0.0128263)
(0 0 0.012746)
(0 0 0.0126639)
(0 0 0.0125801)
(0 0 0.0124946)
(0 0 0.0124074)
(0 0 0.0123186)
(0 0 0.0122281)
(0 0 0.0121362)
(0 0 0.0120427)
(0 0 0.0119477)
(0 0 0.0118513)
(0 0 0.0117535)
(0 0 0.0116543)
(0 0 0.0115538)
(0 0 0.011452)
(0 0 0.0113489)
(0 0 0.0112446)
(0 0 0.0111391)
(0 0 0.0110325)
(0 0 0.0109247)
(0 0 0.0108158)
(0 0 0.0107059)
(0 0 0.0105949)
(0 0 0.010483)
(0 0 0.0103701)
(0 0 0.0102562)
(0 0 0.0101414)
(0 0 0.0100258)
(0 0 0.00990928)
(0 0 0.00979196)
(0 0 0.00967383)
(0 0 0.00955493)
(0 0 0.00943529)
(0 0 0.00931492)
(0 0 0.00919386)
(0 0 0.00907213)
(0 0 0.00894975)
(0 0 0.00882674)
(0 0 0.00870313)
(0 0 0.00857894)
(0 0 0.00845419)
(0 0 0.0083289)
(0 0 0.00820309)
(0 0 0.00807678)
(0 0 0.00794999)
(0 0 0.00782274)
(0 0 0.00769505)
(0 0 0.00756693)
(0 0 0.00743841)
(0 0 0.00730949)
(0 0 0.00718019)
(0 0 0.00705054)
(0 0 0.00692054)
(0 0 0.00679021)
(0 0 0.00665957)
(0 0 0.00652862)
(0 0 0.00639739)
(0 0 0.00626588)
(0 0 0.0061341)
(0 0 0.00600208)
(0 0 0.00586982)
(0 0 0.00573732)
(0 0 0.00560461)
(0 0 0.0054717)
(0 0 0.00533859)
(0 0 0.00520529)
(0 0 0.00507181)
(0 0 0.00493817)
(0 0 0.00480437)
(0 0 0.00467041)
(0 0 0.00453632)
(0 0 0.00440208)
(0 0 0.00426772)
(0 0 0.00413324)
(0 0 0.00399865)
(0 0 0.00386394)
(0 0 0.00372914)
(0 0 0.00359424)
(0 0 0.00345925)
(0 0 0.00332418)
(0 0 0.00318902)
(0 0 0.0030538)
(0 0 0.0029185)
(0 0 0.00278314)
(0 0 0.00264772)
(0 0 0.00251225)
(0 0 0.00237672)
(0 0 0.00224115)
(0 0 0.00210553)
(0 0 0.00196987)
(0 0 0.00183417)
(0 0 0.00169843)
(0 0 0.00156267)
(0 0 0.00142688)
(0 0 0.00129106)
(0 0 0.00115522)
(0 0 0.00101936)
(0 0 0.000883476)
(0 0 0.000747582)
(0 0 0.000611675)
(0 0 0.000475758)
(0 0 0.000339833)
(0 0 0.000203902)
(0 0 6.79677e-05)
(0 0 0.000101123)
(0 0 0.000303366)
(0 0 0.000505601)
(0 0 0.000707822)
(0 0 0.000910022)
(0 0 0.0011122)
(0 0 0.00131434)
(0 0 0.00151644)
(0 0 0.0017185)
(0 0 0.0019205)
(0 0 0.00212245)
(0 0 0.00232433)
(0 0 0.00252613)
(0 0 0.00272785)
(0 0 0.00292948)
(0 0 0.003131)
(0 0 0.00333241)
(0 0 0.0035337)
(0 0 0.00373485)
(0 0 0.00393585)
(0 0 0.0041367)
(0 0 0.00433737)
(0 0 0.00453786)
(0 0 0.00473814)
(0 0 0.0049382)
(0 0 0.00513803)
(0 0 0.00533761)
(0 0 0.00553691)
(0 0 0.00573592)
(0 0 0.00593462)
(0 0 0.00613298)
(0 0 0.00633099)
(0 0 0.00652862)
(0 0 0.00672585)
(0 0 0.00692264)
(0 0 0.00711897)
(0 0 0.00731482)
(0 0 0.00751015)
(0 0 0.00770494)
(0 0 0.00789915)
(0 0 0.00809275)
(0 0 0.0082857)
(0 0 0.00847797)
(0 0 0.00866952)
(0 0 0.00886032)
(0 0 0.00905033)
(0 0 0.0092395)
(0 0 0.0094278)
(0 0 0.00961518)
(0 0 0.0098016)
(0 0 0.00998701)
(0 0 0.0101714)
(0 0 0.0103546)
(0 0 0.0105368)
(0 0 0.0107177)
(0 0 0.0108973)
(0 0 0.0110757)
(0 0 0.0112527)
(0 0 0.0114284)
(0 0 0.0116025)
(0 0 0.0117752)
(0 0 0.0119463)
(0 0 0.0121158)
(0 0 0.0122836)
(0 0 0.0124496)
(0 0 0.0126139)
(0 0 0.0127763)
(0 0 0.0129368)
(0 0 0.0130954)
(0 0 0.0132519)
(0 0 0.0134063)
(0 0 0.0135586)
(0 0 0.0137087)
(0 0 0.0138565)
(0 0 0.014002)
(0 0 0.0141451)
(0 0 0.0142858)
(0 0 0.014424)
(0 0 0.0145596)
(0 0 0.0146926)
(0 0 0.014823)
(0 0 0.0149506)
(0 0 0.0150755)
(0 0 0.0151975)
(0 0 0.0153167)
(0 0 0.0154329)
(0 0 0.0155462)
(0 0 0.0156564)
(0 0 0.0157635)
(0 0 0.0158676)
(0 0 0.0159684)
(0 0 0.0160661)
(0 0 0.0161605)
(0 0 0.0162516)
(0 0 0.0163394)
(0 0 0.0164239)
(0 0 0.0165049)
(0 0 0.0165826)
(0 0 0.0166568)
(0 0 0.0167275)
(0 0 0.0167947)
(0 0 0.0168584)
(0 0 0.0169185)
(0 0 0.0169751)
(0 0 0.0170281)
(0 0 0.0170775)
(0 0 0.0171234)
(0 0 0.0171656)
(0 0 0.0172042)
(0 0 0.0172392)
(0 0 0.0172705)
(0 0 0.0172982)
(0 0 0.0173224)
(0 0 0.0173429)
(0 0 0.0173598)
(0 0 0.017373)
(0 0 0.0173828)
(0 0 0.0173889)
(0 0 0.0173915)
(0 0 0.0173905)
(0 0 0.0173861)
(0 0 0.0173781)
(0 0 0.0173666)
(0 0 0.0173517)
(0 0 0.0173334)
(0 0 0.0173117)
(0 0 0.0172866)
(0 0 0.0172582)
(0 0 0.0172265)
(0 0 0.0171915)
(0 0 0.0171533)
(0 0 0.017112)
(0 0 0.0170674)
(0 0 0.0170198)
(0 0 0.0169691)
(0 0 0.0169153)
(0 0 0.0168586)
(0 0 0.0167989)
(0 0 0.0167363)
(0 0 0.0166709)
(0 0 0.0166027)
(0 0 0.0165317)
(0 0 0.016458)
(0 0 0.0163816)
(0 0 0.0163026)
(0 0 0.016221)
(0 0 0.0161369)
(0 0 0.0160504)
(0 0 0.0159614)
(0 0 0.01587)
(0 0 0.0157763)
(0 0 0.0156803)
(0 0 0.0155821)
(0 0 0.0154817)
(0 0 0.0153792)
(0 0 0.0152746)
(0 0 0.0151679)
(0 0 0.0150593)
(0 0 0.0149487)
(0 0 0.0148362)
(0 0 0.0147218)
(0 0 0.0146057)
(0 0 0.0144878)
(0 0 0.0143681)
(0 0 0.0142468)
(0 0 0.0141239)
(0 0 0.0139994)
(0 0 0.0138734)
(0 0 0.0137458)
(0 0 0.0136168)
(0 0 0.0134864)
(0 0 0.0133546)
(0 0 0.0132215)
(0 0 0.0130871)
(0 0 0.0129514)
(0 0 0.0128145)
(0 0 0.0126764)
(0 0 0.0125372)
(0 0 0.0123969)
(0 0 0.0122555)
(0 0 0.012113)
(0 0 0.0119696)
(0 0 0.0118251)
(0 0 0.0116798)
(0 0 0.0115335)
(0 0 0.0113863)
(0 0 0.0112383)
(0 0 0.0110895)
(0 0 0.0109399)
(0 0 0.0107895)
(0 0 0.0106383)
(0 0 0.0104865)
(0 0 0.010334)
(0 0 0.0101808)
(0 0 0.010027)
(0 0 0.0098726)
(0 0 0.0097176)
(0 0 0.00956204)
(0 0 0.00940593)
(0 0 0.00924931)
(0 0 0.00909219)
(0 0 0.00893459)
(0 0 0.00877653)
(0 0 0.00861803)
(0 0 0.00845911)
(0 0 0.00829979)
(0 0 0.00814009)
(0 0 0.00798002)
(0 0 0.00781959)
(0 0 0.00765883)
(0 0 0.00749775)
(0 0 0.00733636)
(0 0 0.00717468)
(0 0 0.00701273)
(0 0 0.00685051)
(0 0 0.00668803)
(0 0 0.00652532)
(0 0 0.00636238)
(0 0 0.00619923)
(0 0 0.00603587)
(0 0 0.00587231)
(0 0 0.00570858)
(0 0 0.00554466)
(0 0 0.00538059)
(0 0 0.00521635)
(0 0 0.00505197)
(0 0 0.00488745)
(0 0 0.0047228)
(0 0 0.00455803)
(0 0 0.00439314)
(0 0 0.00422814)
(0 0 0.00406304)
(0 0 0.00389785)
(0 0 0.00373256)
(0 0 0.00356719)
(0 0 0.00340174)
(0 0 0.00323622)
(0 0 0.00307063)
(0 0 0.00290498)
(0 0 0.00273927)
(0 0 0.0025735)
(0 0 0.00240769)
(0 0 0.00224183)
(0 0 0.00207593)
(0 0 0.00190999)
(0 0 0.00174401)
(0 0 0.00157801)
(0 0 0.00141197)
(0 0 0.00124591)
(0 0 0.00107984)
(0 0 0.000913737)
(0 0 0.000747624)
(0 0 0.000581498)
(0 0 0.000415363)
(0 0 0.00024922)
(0 0 8.30739e-05)
(0 0 0.000119516)
(0 0 0.000358545)
(0 0 0.000597563)
(0 0 0.000836565)
(0 0 0.00107554)
(0 0 0.00131449)
(0 0 0.0015534)
(0 0 0.00179227)
(0 0 0.00203108)
(0 0 0.00226983)
(0 0 0.00250851)
(0 0 0.00274711)
(0 0 0.00298563)
(0 0 0.00322405)
(0 0 0.00346235)
(0 0 0.00370054)
(0 0 0.0039386)
(0 0 0.00417651)
(0 0 0.00441426)
(0 0 0.00465185)
(0 0 0.00488924)
(0 0 0.00512643)
(0 0 0.00536341)
(0 0 0.00560014)
(0 0 0.00583662)
(0 0 0.00607282)
(0 0 0.00630873)
(0 0 0.00654431)
(0 0 0.00677956)
(0 0 0.00701444)
(0 0 0.00724892)
(0 0 0.00748299)
(0 0 0.00771661)
(0 0 0.00794975)
(0 0 0.00818239)
(0 0 0.00841449)
(0 0 0.00864602)
(0 0 0.00887694)
(0 0 0.00910721)
(0 0 0.00933681)
(0 0 0.00956569)
(0 0 0.0097938)
(0 0 0.0100211)
(0 0 0.0102476)
(0 0 0.0104732)
(0 0 0.0106978)
(0 0 0.0109215)
(0 0 0.0111441)
(0 0 0.0113657)
(0 0 0.0115861)
(0 0 0.0118053)
(0 0 0.0120233)
(0 0 0.01224)
(0 0 0.0124554)
(0 0 0.0126693)
(0 0 0.0128818)
(0 0 0.0130927)
(0 0 0.013302)
(0 0 0.0135097)
(0 0 0.0137157)
(0 0 0.0139199)
(0 0 0.0141222)
(0 0 0.0143226)
(0 0 0.0145211)
(0 0 0.0147175)
(0 0 0.0149117)
(0 0 0.0151038)
(0 0 0.0152936)
(0 0 0.0154812)
(0 0 0.0156663)
(0 0 0.0158489)
(0 0 0.016029)
(0 0 0.0162065)
(0 0 0.0163814)
(0 0 0.0165535)
(0 0 0.0167227)
(0 0 0.0168891)
(0 0 0.0170526)
(0 0 0.017213)
(0 0 0.0173703)
(0 0 0.0175245)
(0 0 0.0176755)
(0 0 0.0178232)
(0 0 0.0179675)
(0 0 0.0181085)
(0 0 0.018246)
(0 0 0.0183799)
(0 0 0.0185103)
(0 0 0.018637)
(0 0 0.0187601)
(0 0 0.0188794)
(0 0 0.0189949)
(0 0 0.0191065)
(0 0 0.0192143)
(0 0 0.0193182)
(0 0 0.019418)
(0 0 0.0195139)
(0 0 0.0196057)
(0 0 0.0196935)
(0 0 0.0197771)
(0 0 0.0198566)
(0 0 0.0199319)
(0 0 0.020003)
(0 0 0.02007)
(0 0 0.0201326)
(0 0 0.0201911)
(0 0 0.0202452)
(0 0 0.0202951)
(0 0 0.0203408)
(0 0 0.0203821)
(0 0 0.0204192)
(0 0 0.0204519)
(0 0 0.0204804)
(0 0 0.0205046)
(0 0 0.0205246)
(0 0 0.0205403)
(0 0 0.0205517)
(0 0 0.0205589)
(0 0 0.0205619)
(0 0 0.0205608)
(0 0 0.0205554)
(0 0 0.0205459)
(0 0 0.0205323)
(0 0 0.0205147)
(0 0 0.020493)
(0 0 0.0204672)
(0 0 0.0204375)
(0 0 0.0204039)
(0 0 0.0203663)
(0 0 0.0203249)
(0 0 0.0202797)
(0 0 0.0202307)
(0 0 0.0201779)
(0 0 0.0201215)
(0 0 0.0200615)
(0 0 0.0199979)
(0 0 0.0199307)
(0 0 0.0198601)
(0 0 0.019786)
(0 0 0.0197086)
(0 0 0.0196279)
(0 0 0.0195438)
(0 0 0.0194566)
(0 0 0.0193662)
(0 0 0.0192728)
(0 0 0.0191763)
(0 0 0.0190768)
(0 0 0.0189743)
(0 0 0.0188691)
(0 0 0.018761)
(0 0 0.0186501)
(0 0 0.0185366)
(0 0 0.0184204)
(0 0 0.0183016)
(0 0 0.0181803)
(0 0 0.0180566)
(0 0 0.0179304)
(0 0 0.0178019)
(0 0 0.0176711)
(0 0 0.017538)
(0 0 0.0174028)
(0 0 0.0172654)
(0 0 0.017126)
(0 0 0.0169845)
(0 0 0.016841)
(0 0 0.0166957)
(0 0 0.0165484)
(0 0 0.0163993)
(0 0 0.0162485)
(0 0 0.016096)
(0 0 0.0159417)
(0 0 0.0157859)
(0 0 0.0156285)
(0 0 0.0154695)
(0 0 0.0153091)
(0 0 0.0151472)
(0 0 0.014984)
(0 0 0.0148193)
(0 0 0.0146534)
(0 0 0.0144862)
(0 0 0.0143178)
(0 0 0.0141482)
(0 0 0.0139774)
(0 0 0.0138055)
(0 0 0.0136326)
(0 0 0.0134586)
(0 0 0.0132836)
(0 0 0.0131076)
(0 0 0.0129307)
(0 0 0.0127529)
(0 0 0.0125743)
(0 0 0.0123948)
(0 0 0.0122145)
(0 0 0.0120334)
(0 0 0.0118516)
(0 0 0.011669)
(0 0 0.0114858)
(0 0 0.0113019)
(0 0 0.0111173)
(0 0 0.0109322)
(0 0 0.0107464)
(0 0 0.0105601)
(0 0 0.0103733)
(0 0 0.0101859)
(0 0 0.00999809)