/*--------------------------------*- C++ -*----------------------------------*\
| =========                 |                                                 |
| \\      /  F ield         | OpenFOAM: The Open Source CFD Toolbox           |
|  \\    /   O peration     | Version:  v2012                                 |
|   \\  /    A nd           | Website:  www.openfoam.com                      |
|    \\/     M anipulation  |                                                 |
\*---------------------------------------------------------------------------*/
FoamFile
{
    version     2.0;
    format      ascii;
    class       volVectorField;
    location    "6.2";
    object      U;
}
// * * * * * * * * * * * * * * * * * * * * * * * * * * * * * * * * * * * * * //

dimensions      [0 1 -1 0 0 0 0];


internalField   nonuniform List<vector> 
65536
(
(0.000748381 -0.000748371 0)
(0.00224512 -0.000748347 0)
(0.00374179 -0.000748301 0)
(0.00523834 -0.000748232 0)
(0.00673474 -0.00074814 0)
(0.00823092 -0.000748024 0)
(0.00972685 -0.000747882 0)
(0.0112225 -0.000747715 0)
(0.0127177 -0.000747521 0)
(0.0142126 -0.000747299 0)
(0.015707 -0.000747048 0)
(0.0172008 -0.000746766 0)
(0.0186941 -0.000746452 0)
(0.0201866 -0.000746103 0)
(0.0216785 -0.000745719 0)
(0.0231696 -0.000745296 0)
(0.0246597 -0.000744834 0)
(0.0261489 -0.000744329 0)
(0.0276371 -0.000743779 0)
(0.0291241 -0.000743182 0)
(0.0306099 -0.000742535 0)
(0.0320943 -0.000741835 0)
(0.0335773 -0.00074108 0)
(0.0350587 -0.000740265 0)
(0.0365384 -0.000739389 0)
(0.0380163 -0.000738447 0)
(0.0394922 -0.000737437 0)
(0.0409661 -0.000736355 0)
(0.0424377 -0.000735198 0)
(0.043907 -0.000733961 0)
(0.0453736 -0.000732641 0)
(0.0468376 -0.000731234 0)
(0.0482987 -0.000729737 0)
(0.0497566 -0.000728144 0)
(0.0512113 -0.000726453 0)
(0.0526626 -0.000724659 0)
(0.0541101 -0.000722758 0)
(0.0555537 -0.000720745 0)
(0.0569932 -0.000718617 0)
(0.0584283 -0.000716369 0)
(0.0598588 -0.000713996 0)
(0.0612844 -0.000711495 0)
(0.0627049 -0.000708861 0)
(0.06412 -0.00070609 0)
(0.0655294 -0.000703177 0)
(0.0669328 -0.000700118 0)
(0.06833 -0.000696909 0)
(0.0697206 -0.000693545 0)
(0.0711043 -0.000690023 0)
(0.0724809 -0.000686337 0)
(0.0738498 -0.000682485 0)
(0.075211 -0.000678462 0)
(0.0765639 -0.000674265 0)
(0.0779082 -0.000669888 0)
(0.0792436 -0.00066533 0)
(0.0805697 -0.000660586 0)
(0.0818861 -0.000655653 0)
(0.0831925 -0.000650527 0)
(0.0844884 -0.000645206 0)
(0.0857735 -0.000639687 0)
(0.0870474 -0.000633966 0)
(0.0883096 -0.000628042 0)
(0.0895597 -0.000621913 0)
(0.0907974 -0.000615575 0)
(0.0920223 -0.000609027 0)
(0.0932338 -0.000602268 0)
(0.0944315 -0.000595297 0)
(0.0956152 -0.000588111 0)
(0.0967842 -0.000580711 0)
(0.0979382 -0.000573095 0)
(0.0990768 -0.000565264 0)
(0.100199 -0.000557218 0)
(0.101306 -0.000548956 0)
(0.102396 -0.000540479 0)
(0.103468 -0.000531789 0)
(0.104523 -0.000522887 0)
(0.10556 -0.000513773 0)
(0.106578 -0.000504451 0)
(0.107578 -0.000494922 0)
(0.108558 -0.000485189 0)
(0.109519 -0.000475254 0)
(0.110459 -0.000465121 0)
(0.111379 -0.000454793 0)
(0.112279 -0.000444275 0)
(0.113157 -0.00043357 0)
(0.114013 -0.000422682 0)
(0.114848 -0.000411616 0)
(0.11566 -0.000400379 0)
(0.116449 -0.000388973 0)
(0.117216 -0.000377406 0)
(0.117959 -0.000365684 0)
(0.118679 -0.000353811 0)
(0.119374 -0.000341796 0)
(0.120046 -0.000329643 0)
(0.120693 -0.000317361 0)
(0.121316 -0.000304956 0)
(0.121913 -0.000292435 0)
(0.122485 -0.000279806 0)
(0.123032 -0.000267077 0)
(0.123554 -0.000254255 0)
(0.12405 -0.000241348 0)
(0.124519 -0.000228364 0)
(0.124963 -0.000215311 0)
(0.125381 -0.000202197 0)
(0.125772 -0.000189031 0)
(0.126137 -0.000175821 0)
(0.126475 -0.000162575 0)
(0.126787 -0.000149301 0)
(0.127072 -0.000136008 0)
(0.127331 -0.000122704 0)
(0.127563 -0.000109398 0)
(0.127769 -9.60976e-05 0)
(0.127948 -8.28107e-05 0)
(0.1281 -6.95457e-05 0)
(0.128226 -5.63104e-05 0)
(0.128325 -4.31128e-05 0)
(0.128398 -2.99606e-05 0)
(0.128445 -1.68612e-05 0)
(0.128466 -3.82222e-06 0)
(0.12846 9.14922e-06 0)
(0.128429 2.2046e-05 0)
(0.128372 3.48613e-05 0)
(0.128289 4.75885e-05 0)
(0.128181 6.0221e-05 0)
(0.128048 7.27526e-05 0)
(0.12789 8.51773e-05 0)
(0.127708 9.74894e-05 0)
(0.1275 0.000109683 0)
(0.127269 0.000121754 0)
(0.127013 0.000133695 0)
(0.126734 0.000145504 0)
(0.126431 0.000157175 0)
(0.126105 0.000168703 0)
(0.125756 0.000180085 0)
(0.125384 0.000191318 0)
(0.124991 0.000202396 0)
(0.124575 0.000213318 0)
(0.124137 0.000224081 0)
(0.123678 0.000234681 0)
(0.123198 0.000245116 0)
(0.122698 0.000255384 0)
(0.122177 0.000265482 0)
(0.121636 0.00027541 0)
(0.121075 0.000285165 0)
(0.120495 0.000294747 0)
(0.119896 0.000304153 0)
(0.119278 0.000313384 0)
(0.118642 0.000322438 0)
(0.117988 0.000331316 0)
(0.117316 0.000340017 0)
(0.116628 0.00034854 0)
(0.115922 0.000356887 0)
(0.1152 0.000365056 0)
(0.114462 0.00037305 0)
(0.113708 0.000380868 0)
(0.112938 0.000388511 0)
(0.112153 0.00039598 0)
(0.111354 0.000403277 0)
(0.11054 0.000410402 0)
(0.109712 0.000417356 0)
(0.108871 0.000424142 0)
(0.108015 0.000430761 0)
(0.107147 0.000437214 0)
(0.106266 0.000443503 0)
(0.105373 0.00044963 0)
(0.104468 0.000455597 0)
(0.103551 0.000461406 0)
(0.102622 0.000467059 0)
(0.101682 0.000472558 0)
(0.100732 0.000477905 0)
(0.0997705 0.000483104 0)
(0.0987991 0.000488155 0)
(0.0978177 0.000493061 0)
(0.0968267 0.000497825 0)
(0.0958263 0.000502449 0)
(0.0948168 0.000506935 0)
(0.0937984 0.000511286 0)
(0.0927715 0.000515505 0)
(0.0917363 0.000519594 0)
(0.090693 0.000523555 0)
(0.0896419 0.000527391 0)
(0.0885833 0.000531104 0)
(0.0875174 0.000534698 0)
(0.0864444 0.000538174 0)
(0.0853646 0.000541535 0)
(0.0842782 0.000544784 0)
(0.0831853 0.000547922 0)
(0.0820864 0.000550954 0)
(0.0809814 0.00055388 0)
(0.0798707 0.000556704 0)
(0.0787545 0.000559428 0)
(0.0776329 0.000562054 0)
(0.0765062 0.000564585 0)
(0.0753745 0.000567023 0)
(0.074238 0.000569371 0)
(0.0730969 0.000571631 0)
(0.0719514 0.000573805 0)
(0.0708016 0.000575896 0)
(0.0696477 0.000577905 0)
(0.0684899 0.000579836 0)
(0.0673283 0.00058169 0)
(0.0661631 0.000583469 0)
(0.0649944 0.000585176 0)
(0.0638223 0.000586813 0)
(0.0626471 0.000588381 0)
(0.0614687 0.000589883 0)
(0.0602875 0.000591322 0)
(0.0591034 0.000592698 0)
(0.0579166 0.000594014 0)
(0.0567273 0.000595272 0)
(0.0555355 0.000596473 0)
(0.0543413 0.00059762 0)
(0.0531449 0.000598714 0)
(0.0519464 0.000599758 0)
(0.0507459 0.000600752 0)
(0.0495434 0.000601699 0)
(0.048339 0.0006026 0)
(0.0471329 0.000603457 0)
(0.0459252 0.000604272 0)
(0.0447158 0.000605045 0)
(0.0435049 0.00060578 0)
(0.0422926 0.000606476 0)
(0.041079 0.000607136 0)
(0.0398641 0.000607761 0)
(0.0386479 0.000608352 0)
(0.0374306 0.000608911 0)
(0.0362122 0.000609439 0)
(0.0349928 0.000609937 0)
(0.0337725 0.000610407 0)
(0.0325512 0.000610849 0)
(0.031329 0.000611265 0)
(0.0301061 0.000611656 0)
(0.0288824 0.000612023 0)
(0.027658 0.000612367 0)
(0.0264329 0.000612688 0)
(0.0252072 0.000612989 0)
(0.0239809 0.00061327 0)
(0.0227541 0.000613531 0)
(0.0215268 0.000613773 0)
(0.020299 0.000613998 0)
(0.0190708 0.000614206 0)
(0.0178422 0.000614397 0)
(0.0166132 0.000614573 0)
(0.0153839 0.000614734 0)
(0.0141542 0.00061488 0)
(0.0129243 0.000615012 0)
(0.0116942 0.000615131 0)
(0.0104638 0.000615236 0)
(0.00923321 0.000615329 0)
(0.00800246 0.000615409 0)
(0.00677156 0.000615478 0)
(0.00554053 0.000615534 0)
(0.00430941 0.000615579 0)
(0.0030782 0.000615613 0)
(0.00184694 0.000615635 0)
(0.000615652 0.000615646 0)
(0.000748402 -0.00224513 0)
(0.00224518 -0.00224506 0)
(0.0037419 -0.00224492 0)
(0.0052385 -0.00224472 0)
(0.00673494 -0.00224444 0)
(0.00823117 -0.00224409 0)
(0.00972715 -0.00224367 0)
(0.0112228 -0.00224317 0)
(0.0127181 -0.00224259 0)
(0.014213 -0.00224192 0)
(0.0157075 -0.00224117 0)
(0.0172014 -0.00224033 0)
(0.0186947 -0.00223939 0)
(0.0201874 -0.00223834 0)
(0.0216793 -0.00223719 0)
(0.0231704 -0.00223593 0)
(0.0246607 -0.00223454 0)
(0.02615 -0.00223303 0)
(0.0276382 -0.00223138 0)
(0.0291253 -0.00222959 0)
(0.0306112 -0.00222766 0)
(0.0320957 -0.00222556 0)
(0.0335788 -0.00222329 0)
(0.0350603 -0.00222085 0)
(0.0365402 -0.00221823 0)
(0.0380182 -0.00221541 0)
(0.0394943 -0.00221238 0)
(0.0409683 -0.00220914 0)
(0.0424401 -0.00220567 0)
(0.0439095 -0.00220196 0)
(0.0453763 -0.00219801 0)
(0.0468405 -0.00219379 0)
(0.0483017 -0.0021893 0)
(0.0497599 -0.00218453 0)
(0.0512148 -0.00217946 0)
(0.0526662 -0.00217408 0)
(0.0541139 -0.00216838 0)
(0.0555578 -0.00216235 0)
(0.0569975 -0.00215597 0)
(0.0584328 -0.00214923 0)
(0.0598636 -0.00214211 0)
(0.0612895 -0.00213462 0)
(0.0627102 -0.00212672 0)
(0.0641256 -0.00211841 0)
(0.0655353 -0.00210967 0)
(0.066939 -0.0021005 0)
(0.0683365 -0.00209088 0)
(0.0697274 -0.00208079 0)
(0.0711115 -0.00207023 0)
(0.0724883 -0.00205918 0)
(0.0738576 -0.00204762 0)
(0.0752191 -0.00203556 0)
(0.0765724 -0.00202297 0)
(0.0779171 -0.00200984 0)
(0.0792528 -0.00199617 0)
(0.0805793 -0.00198194 0)
(0.0818961 -0.00196715 0)
(0.0832029 -0.00195177 0)
(0.0844992 -0.00193581 0)
(0.0857847 -0.00191926 0)
(0.0870589 -0.0019021 0)
(0.0883216 -0.00188433 0)
(0.0895721 -0.00186594 0)
(0.0908102 -0.00184693 0)
(0.0920355 -0.00182729 0)
(0.0932474 -0.00180702 0)
(0.0944456 -0.0017861 0)
(0.0956297 -0.00176455 0)
(0.0967991 -0.00174235 0)
(0.0979536 -0.0017195 0)
(0.0990926 -0.00169601 0)
(0.100216 -0.00167187 0)
(0.101323 -0.00164708 0)
(0.102413 -0.00162165 0)
(0.103486 -0.00159558 0)
(0.104541 -0.00156887 0)
(0.105578 -0.00154153 0)
(0.106597 -0.00151356 0)
(0.107597 -0.00148497 0)
(0.108578 -0.00145577 0)
(0.109539 -0.00142596 0)
(0.11048 -0.00139556 0)
(0.1114 -0.00136457 0)
(0.1123 -0.00133301 0)
(0.113178 -0.00130089 0)
(0.114035 -0.00126822 0)
(0.11487 -0.00123502 0)
(0.115682 -0.0012013 0)
(0.116472 -0.00116708 0)
(0.117239 -0.00113237 0)
(0.117983 -0.0010972 0)
(0.118702 -0.00106158 0)
(0.119399 -0.00102552 0)
(0.12007 -0.000989059 0)
(0.120718 -0.000952205 0)
(0.12134 -0.000914983 0)
(0.121938 -0.000877413 0)
(0.122511 -0.00083952 0)
(0.123058 -0.000801324 0)
(0.123579 -0.000762849 0)
(0.124075 -0.00072412 0)
(0.124545 -0.00068516 0)
(0.124989 -0.000645993 0)
(0.125407 -0.000606644 0)
(0.125798 -0.000567137 0)
(0.126163 -0.000527498 0)
(0.126502 -0.000487752 0)
(0.126814 -0.000447923 0)
(0.127099 -0.000408036 0)
(0.127358 -0.000368117 0)
(0.12759 -0.00032819 0)
(0.127795 -0.00028828 0)
(0.127974 -0.000248411 0)
(0.128126 -0.000208608 0)
(0.128252 -0.000168895 0)
(0.128351 -0.000129294 0)
(0.128424 -8.98301e-05 0)
(0.128471 -5.05248e-05 0)
(0.128491 -1.14005e-05 0)
(0.128486 2.75208e-05 0)
(0.128455 6.6218e-05 0)
(0.128397 0.000104671 0)
(0.128315 0.000142858 0)
(0.128207 0.000180762 0)
(0.128073 0.000218363 0)
(0.127915 0.000255643 0)
(0.127732 0.000292584 0)
(0.127524 0.000329171 0)
(0.127293 0.000365387 0)
(0.127037 0.000401218 0)
(0.126757 0.000436648 0)
(0.126454 0.000471664 0)
(0.126128 0.000506253 0)
(0.125779 0.000540403 0)
(0.125407 0.000574104 0)
(0.125013 0.000607343 0)
(0.124596 0.000640113 0)
(0.124158 0.000672403 0)
(0.123699 0.000704205 0)
(0.123219 0.000735512 0)
(0.122718 0.000766318 0)
(0.122197 0.000796615 0)
(0.121655 0.0008264 0)
(0.121094 0.000855667 0)
(0.120514 0.000884412 0)
(0.119914 0.000912633 0)
(0.119296 0.000940326 0)
(0.11866 0.000967489 0)
(0.118005 0.000994123 0)
(0.117334 0.00102022 0)
(0.116645 0.00104579 0)
(0.115939 0.00107083 0)
(0.115216 0.00109534 0)
(0.114477 0.00111932 0)
(0.113723 0.00114278 0)
(0.112953 0.0011657 0)
(0.112168 0.00118811 0)
(0.111368 0.00121 0)
(0.110554 0.00123137 0)
(0.109726 0.00125223 0)
(0.108884 0.00127259 0)
(0.108029 0.00129244 0)
(0.10716 0.0013118 0)
(0.106279 0.00133067 0)
(0.105385 0.00134905 0)
(0.10448 0.00136695 0)
(0.103562 0.00138437 0)
(0.102633 0.00140133 0)
(0.101693 0.00141782 0)
(0.100742 0.00143386 0)
(0.0997807 0.00144946 0)
(0.098809 0.00146461 0)
(0.0978274 0.00147932 0)
(0.096836 0.00149361 0)
(0.0958354 0.00150748 0)
(0.0948256 0.00152094 0)
(0.0938069 0.00153399 0)
(0.0927798 0.00154664 0)
(0.0917443 0.00155891 0)
(0.0907008 0.00157079 0)
(0.0896494 0.00158229 0)
(0.0885906 0.00159343 0)
(0.0875244 0.00160421 0)
(0.0864512 0.00161463 0)
(0.0853712 0.00162471 0)
(0.0842845 0.00163446 0)
(0.0831915 0.00164387 0)
(0.0820923 0.00165296 0)
(0.0809872 0.00166174 0)
(0.0798763 0.00167021 0)
(0.0787598 0.00167838 0)
(0.0776381 0.00168625 0)
(0.0765112 0.00169385 0)
(0.0753793 0.00170116 0)
(0.0742426 0.0017082 0)
(0.0731014 0.00171498 0)
(0.0719557 0.0017215 0)
(0.0708057 0.00172777 0)
(0.0696517 0.00173379 0)
(0.0684937 0.00173958 0)
(0.067332 0.00174514 0)
(0.0661666 0.00175048 0)
(0.0649977 0.0017556 0)
(0.0638255 0.0017605 0)
(0.0626501 0.00176521 0)
(0.0614717 0.00176971 0)
(0.0602903 0.00177403 0)
(0.0591061 0.00177815 0)
(0.0579192 0.0017821 0)
(0.0567297 0.00178587 0)
(0.0555378 0.00178947 0)
(0.0543436 0.00179291 0)
(0.0531471 0.00179619 0)
(0.0519485 0.00179932 0)
(0.0507478 0.0018023 0)
(0.0495452 0.00180514 0)
(0.0483408 0.00180784 0)
(0.0471346 0.00181041 0)
(0.0459267 0.00181286 0)
(0.0447173 0.00181517 0)
(0.0435064 0.00181738 0)
(0.042294 0.00181946 0)
(0.0410803 0.00182144 0)
(0.0398653 0.00182332 0)
(0.0386491 0.00182509 0)
(0.0374317 0.00182676 0)
(0.0362133 0.00182835 0)
(0.0349938 0.00182984 0)
(0.0337734 0.00183125 0)
(0.032552 0.00183257 0)
(0.0313299 0.00183382 0)
(0.0301069 0.00183499 0)
(0.0288831 0.00183609 0)
(0.0276587 0.00183712 0)
(0.0264335 0.00183809 0)
(0.0252078 0.00183899 0)
(0.0239815 0.00183983 0)
(0.0227546 0.00184061 0)
(0.0215273 0.00184134 0)
(0.0202994 0.00184201 0)
(0.0190712 0.00184263 0)
(0.0178425 0.00184321 0)
(0.0166135 0.00184373 0)
(0.0153842 0.00184422 0)
(0.0141545 0.00184465 0)
(0.0129246 0.00184505 0)
(0.0116944 0.00184541 0)
(0.010464 0.00184572 0)
(0.00923338 0.001846 0)
(0.00800261 0.00184624 0)
(0.00677168 0.00184645 0)
(0.00554064 0.00184661 0)
(0.00430949 0.00184675 0)
(0.00307826 0.00184685 0)
(0.00184698 0.00184692 0)
(0.000615663 0.00184695 0)
(0.000748447 -0.00374196 0)
(0.00224532 -0.00374184 0)
(0.00374213 -0.00374161 0)
(0.00523882 -0.00374127 0)
(0.00673536 -0.00374082 0)
(0.00823169 -0.00374024 0)
(0.00972777 -0.00373953 0)
(0.0112235 -0.0037387 0)
(0.012719 -0.00373774 0)
(0.014214 -0.00373664 0)
(0.0157085 -0.00373539 0)
(0.0172026 -0.00373399 0)
(0.018696 -0.00373242 0)
(0.0201888 -0.00373069 0)
(0.0216809 -0.00372878 0)
(0.0231722 -0.00372668 0)
(0.0246626 -0.00372438 0)
(0.0261521 -0.00372186 0)
(0.0276405 -0.00371913 0)
(0.0291278 -0.00371616 0)
(0.0306139 -0.00371293 0)
(0.0320986 -0.00370945 0)
(0.0335819 -0.00370569 0)
(0.0350637 -0.00370163 0)
(0.0365438 -0.00369726 0)
(0.0380221 -0.00369257 0)
(0.0394985 -0.00368754 0)
(0.0409728 -0.00368215 0)
(0.0424449 -0.00367638 0)
(0.0439146 -0.00367021 0)
(0.0453818 -0.00366363 0)
(0.0468463 -0.00365662 0)
(0.0483079 -0.00364915 0)
(0.0497665 -0.00364121 0)
(0.0512218 -0.00363277 0)
(0.0526736 -0.00362383 0)
(0.0541218 -0.00361434 0)
(0.0555661 -0.0036043 0)
(0.0570063 -0.00359368 0)
(0.0584421 -0.00358246 0)
(0.0598733 -0.00357062 0)
(0.0612998 -0.00355813 0)
(0.0627211 -0.00354499 0)
(0.064137 -0.00353115 0)
(0.0655472 -0.00351661 0)
(0.0669516 -0.00350133 0)
(0.0683497 -0.00348531 0)
(0.0697412 -0.00346851 0)
(0.0711259 -0.00345092 0)
(0.0725034 -0.00343252 0)
(0.0738734 -0.00341328 0)
(0.0752356 -0.00339318 0)
(0.0765895 -0.00337221 0)
(0.077935 -0.00335035 0)
(0.0792715 -0.00332757 0)
(0.0805987 -0.00330387 0)
(0.0819163 -0.00327922 0)
(0.0832238 -0.00325361 0)
(0.0845209 -0.00322702 0)
(0.0858072 -0.00319943 0)
(0.0870823 -0.00317084 0)
(0.0883457 -0.00314124 0)
(0.0895971 -0.0031106 0)
(0.0908361 -0.00307892 0)
(0.0920621 -0.00304619 0)
(0.0932749 -0.0030124 0)
(0.094474 -0.00297755 0)
(0.0956589 -0.00294163 0)
(0.0968292 -0.00290463 0)
(0.0979845 -0.00286655 0)
(0.0991244 -0.0028274 0)
(0.100248 -0.00278716 0)
(0.101356 -0.00274585 0)
(0.102447 -0.00270346 0)
(0.103521 -0.00266001 0)
(0.104577 -0.00261549 0)
(0.105615 -0.00256991 0)
(0.106635 -0.00252329 0)
(0.107636 -0.00247563 0)
(0.108617 -0.00242695 0)
(0.109579 -0.00237726 0)
(0.110521 -0.00232658 0)
(0.111442 -0.00227492 0)
(0.112342 -0.00222231 0)
(0.113221 -0.00216876 0)
(0.114079 -0.0021143 0)
(0.114914 -0.00205894 0)
(0.115728 -0.00200273 0)
(0.116518 -0.00194567 0)
(0.117286 -0.00188781 0)
(0.11803 -0.00182917 0)
(0.11875 -0.00176977 0)
(0.119447 -0.00170966 0)
(0.120119 -0.00164886 0)
(0.120767 -0.00158742 0)
(0.12139 -0.00152536 0)
(0.121989 -0.00146272 0)
(0.122561 -0.00139953 0)
(0.123109 -0.00133585 0)
(0.123631 -0.0012717 0)
(0.124127 -0.00120712 0)
(0.124597 -0.00114216 0)
(0.125042 -0.00107686 0)
(0.125459 -0.00101125 0)
(0.125851 -0.000945376 0)
(0.126216 -0.000879283 0)
(0.126555 -0.000813011 0)
(0.126867 -0.000746602 0)
(0.127152 -0.000680096 0)
(0.127411 -0.000613537 0)
(0.127643 -0.000546965 0)
(0.127848 -0.000480421 0)
(0.128027 -0.000413946 0)
(0.128179 -0.000347581 0)
(0.128305 -0.000281366 0)
(0.128404 -0.00021534 0)
(0.128477 -0.000149541 0)
(0.128523 -8.4007e-05 0)
(0.128544 -1.87758e-05 0)
(0.128538 4.61166e-05 0)
(0.128506 0.000110635 0)
(0.128449 0.000174745 0)
(0.128365 0.000238412 0)
(0.128257 0.000301606 0)
(0.128123 0.000364294 0)
(0.127965 0.000426447 0)
(0.127781 0.000488035 0)
(0.127573 0.00054903 0)
(0.127341 0.000609407 0)
(0.127084 0.00066914 0)
(0.126804 0.000728205 0)
(0.126501 0.00078658 0)
(0.126174 0.000844242 0)
(0.125824 0.000901172 0)
(0.125451 0.000957351 0)
(0.125057 0.00101276 0)
(0.12464 0.00106739 0)
(0.124201 0.00112121 0)
(0.123741 0.00117422 0)
(0.12326 0.00122641 0)
(0.122759 0.00127776 0)
(0.122237 0.00132826 0)
(0.121695 0.00137791 0)
(0.121133 0.00142669 0)
(0.120552 0.0014746 0)
(0.119951 0.00152164 0)
(0.119333 0.0015678 0)
(0.118696 0.00161307 0)
(0.118041 0.00165746 0)
(0.117368 0.00170096 0)
(0.116678 0.00174358 0)
(0.115972 0.00178531 0)
(0.115248 0.00182616 0)
(0.114509 0.00186612 0)
(0.113754 0.00190521 0)
(0.112983 0.00194342 0)
(0.112198 0.00198076 0)
(0.111397 0.00201724 0)
(0.110582 0.00205285 0)
(0.109753 0.00208762 0)
(0.108911 0.00212154 0)
(0.108055 0.00215463 0)
(0.107186 0.00218688 0)
(0.106304 0.00221832 0)
(0.105409 0.00224894 0)
(0.104503 0.00227877 0)
(0.103585 0.0023078 0)
(0.102655 0.00233606 0)
(0.101715 0.00236354 0)
(0.100763 0.00239027 0)
(0.0998012 0.00241625 0)
(0.0988289 0.00244149 0)
(0.0978467 0.00246601 0)
(0.0968548 0.00248982 0)
(0.0958536 0.00251293 0)
(0.0948433 0.00253535 0)
(0.0938241 0.00255709 0)
(0.0927964 0.00257817 0)
(0.0917604 0.0025986 0)
(0.0907164 0.00261839 0)
(0.0896646 0.00263756 0)
(0.0886052 0.00265612 0)
(0.0875386 0.00267407 0)
(0.0864649 0.00269144 0)
(0.0853844 0.00270823 0)
(0.0842973 0.00272446 0)
(0.0832038 0.00274014 0)
(0.0821042 0.00275529 0)
(0.0809987 0.00276991 0)
(0.0798874 0.00278402 0)
(0.0787705 0.00279762 0)
(0.0776484 0.00281074 0)
(0.0765211 0.00282339 0)
(0.0753888 0.00283557 0)
(0.0742518 0.00284729 0)
(0.0731102 0.00285858 0)
(0.0719642 0.00286944 0)
(0.0708139 0.00287988 0)
(0.0696596 0.00288992 0)
(0.0685013 0.00289956 0)
(0.0673392 0.00290882 0)
(0.0661735 0.0029177 0)
(0.0650044 0.00292623 0)
(0.0638319 0.0029344 0)
(0.0626563 0.00294223 0)
(0.0614775 0.00294974 0)
(0.0602959 0.00295692 0)
(0.0591115 0.00296379 0)
(0.0579243 0.00297036 0)
(0.0567346 0.00297664 0)
(0.0555425 0.00298264 0)
(0.054348 0.00298836 0)
(0.0531514 0.00299382 0)
(0.0519525 0.00299903 0)
(0.0507517 0.003004 0)
(0.0495489 0.00300872 0)
(0.0483443 0.00301322 0)
(0.0471379 0.0030175 0)
(0.0459299 0.00302156 0)
(0.0447203 0.00302542 0)
(0.0435092 0.00302909 0)
(0.0422967 0.00303256 0)
(0.0410828 0.00303585 0)
(0.0398677 0.00303897 0)
(0.0386514 0.00304192 0)
(0.0374339 0.00304471 0)
(0.0362153 0.00304734 0)
(0.0349957 0.00304983 0)
(0.0337752 0.00305217 0)
(0.0325538 0.00305437 0)
(0.0313315 0.00305645 0)
(0.0301084 0.0030584 0)
(0.0288845 0.00306023 0)
(0.02766 0.00306194 0)
(0.0264348 0.00306355 0)
(0.025209 0.00306505 0)
(0.0239826 0.00306644 0)
(0.0227556 0.00306775 0)
(0.0215282 0.00306896 0)
(0.0203003 0.00307008 0)
(0.019072 0.00307111 0)
(0.0178433 0.00307207 0)
(0.0166142 0.00307294 0)
(0.0153848 0.00307374 0)
(0.0141551 0.00307447 0)
(0.0129251 0.00307513 0)
(0.0116948 0.00307572 0)
(0.0104644 0.00307625 0)
(0.00923373 0.00307671 0)
(0.0080029 0.00307711 0)
(0.00677193 0.00307745 0)
(0.00554084 0.00307773 0)
(0.00430964 0.00307795 0)
(0.00307837 0.00307812 0)
(0.00184705 0.00307823 0)
(0.000615685 0.00307829 0)
(0.000748515 -0.0052389 0)
(0.00224552 -0.00523874 0)
(0.00374247 -0.00523842 0)
(0.0052393 -0.00523795 0)
(0.00673598 -0.00523731 0)
(0.00823246 -0.00523651 0)
(0.00972869 -0.00523553 0)
(0.0112246 -0.00523437 0)
(0.0127202 -0.00523303 0)
(0.0142154 -0.0052315 0)
(0.0157101 -0.00522976 0)
(0.0172044 -0.00522781 0)
(0.018698 -0.00522563 0)
(0.020191 -0.00522322 0)
(0.0216833 -0.00522056 0)
(0.0231748 -0.00521763 0)
(0.0246655 -0.00521442 0)
(0.0261552 -0.00521092 0)
(0.0276439 -0.00520711 0)
(0.0291315 -0.00520297 0)
(0.0306179 -0.00519848 0)
(0.032103 -0.00519362 0)
(0.0335866 -0.00518837 0)
(0.0350688 -0.00518272 0)
(0.0365492 -0.00517663 0)
(0.0380279 -0.00517008 0)
(0.0395047 -0.00516306 0)
(0.0409795 -0.00515554 0)
(0.042452 -0.00514749 0)
(0.0439223 -0.00513888 0)
(0.04539 -0.00512969 0)
(0.046855 -0.0051199 0)
(0.0483172 -0.00510947 0)
(0.0497763 -0.00509839 0)
(0.0512322 -0.00508661 0)
(0.0526847 -0.00507411 0)
(0.0541335 -0.00506086 0)
(0.0555785 -0.00504683 0)
(0.0570194 -0.00503199 0)
(0.058456 -0.00501631 0)
(0.059888 -0.00499977 0)
(0.0613152 -0.00498232 0)
(0.0627373 -0.00496394 0)
(0.064154 -0.0049446 0)
(0.0655652 -0.00492427 0)
(0.0669704 -0.00490292 0)
(0.0683694 -0.00488052 0)
(0.0697619 -0.00485703 0)
(0.0711475 -0.00483243 0)
(0.072526 -0.00480669 0)
(0.0738971 -0.00477978 0)
(0.0752603 -0.00475168 0)
(0.0766153 -0.00472235 0)
(0.0779618 -0.00469176 0)
(0.0792994 -0.0046599 0)
(0.0806277 -0.00462674 0)
(0.0819465 -0.00459226 0)
(0.0832552 -0.00455642 0)
(0.0845535 -0.00451921 0)
(0.085841 -0.00448062 0)
(0.0871172 -0.00444061 0)
(0.0883819 -0.00439917 0)
(0.0896346 -0.00435629 0)
(0.0908748 -0.00431196 0)
(0.0921021 -0.00426615 0)
(0.0933162 -0.00421885 0)
(0.0945165 -0.00417007 0)
(0.0957027 -0.00411978 0)
(0.0968743 -0.00406799 0)
(0.0980309 -0.00401468 0)
(0.0991721 -0.00395986 0)
(0.100297 -0.00390353 0)
(0.101406 -0.00384569 0)
(0.102499 -0.00378634 0)
(0.103574 -0.0037255 0)
(0.104631 -0.00366316 0)
(0.10567 -0.00359934 0)
(0.106691 -0.00353405 0)
(0.107693 -0.00346731 0)
(0.108676 -0.00339914 0)
(0.109639 -0.00332955 0)
(0.110582 -0.00325857 0)
(0.111505 -0.00318623 0)
(0.112406 -0.00311254 0)
(0.113286 -0.00303754 0)
(0.114145 -0.00296126 0)
(0.114982 -0.00288373 0)
(0.115796 -0.00280499 0)
(0.116587 -0.00272508 0)
(0.117356 -0.00264403 0)
(0.118101 -0.00256188 0)
(0.118822 -0.00247869 0)
(0.11952 -0.00239448 0)
(0.120193 -0.00230932 0)
(0.120841 -0.00222325 0)
(0.121465 -0.00213631 0)
(0.122064 -0.00204856 0)
(0.122638 -0.00196005 0)
(0.123186 -0.00187084 0)
(0.123708 -0.00178097 0)
(0.124205 -0.00169051 0)
(0.124676 -0.00159951 0)
(0.12512 -0.00150803 0)
(0.125538 -0.00141611 0)
(0.12593 -0.00132384 0)
(0.126296 -0.00123125 0)
(0.126634 -0.00113841 0)
(0.126947 -0.00104538 0)
(0.127232 -0.00095221 0)
(0.127491 -0.000858969 0)
(0.127723 -0.00076571 0)
(0.127928 -0.000672492 0)
(0.128107 -0.000579371 0)
(0.128259 -0.000486405 0)
(0.128385 -0.000393648 0)
(0.128483 -0.000301157 0)
(0.128556 -0.000208985 0)
(0.128602 -0.000117186 0)
(0.128622 -2.58118e-05 0)
(0.128616 6.5087e-05 0)
(0.128583 0.000155461 0)
(0.128525 0.000245261 0)
(0.128442 0.000334441 0)
(0.128333 0.000422956 0)
(0.128198 0.000510762 0)
(0.128039 0.000597816 0)
(0.127855 0.000684078 0)
(0.127646 0.000769509 0)
(0.127413 0.000854072 0)
(0.127156 0.000937732 0)
(0.126875 0.00102045 0)
(0.12657 0.00110221 0)
(0.126243 0.00118296 0)
(0.125892 0.00126269 0)
(0.125518 0.00134137 0)
(0.125123 0.00141896 0)
(0.124705 0.00149546 0)
(0.124265 0.00157084 0)
(0.123805 0.00164507 0)
(0.123323 0.00171815 0)
(0.12282 0.00179005 0)
(0.122297 0.00186076 0)
(0.121754 0.00193028 0)
(0.121191 0.00199858 0)
(0.120609 0.00206567 0)
(0.120007 0.00213153 0)
(0.119388 0.00219615 0)
(0.11875 0.00225954 0)
(0.118093 0.00232169 0)
(0.11742 0.00238259 0)
(0.116729 0.00244225 0)
(0.116021 0.00250067 0)
(0.115297 0.00255786 0)
(0.114557 0.0026138 0)
(0.1138 0.00266852 0)
(0.113029 0.00272201 0)
(0.112242 0.00277428 0)
(0.111441 0.00282533 0)
(0.110625 0.00287519 0)
(0.109795 0.00292385 0)
(0.108951 0.00297133 0)
(0.108094 0.00301764 0)
(0.107224 0.00306278 0)
(0.106341 0.00310678 0)
(0.105446 0.00314964 0)
(0.104538 0.00319138 0)
(0.103619 0.00323202 0)
(0.102689 0.00327156 0)
(0.101747 0.00331002 0)
(0.100795 0.00334742 0)
(0.099832 0.00338378 0)
(0.0988588 0.0034191 0)
(0.0978757 0.00345341 0)
(0.096883 0.00348673 0)
(0.0958809 0.00351906 0)
(0.0948698 0.00355043 0)
(0.0938498 0.00358085 0)
(0.0928213 0.00361035 0)
(0.0917845 0.00363894 0)
(0.0907398 0.00366663 0)
(0.0896872 0.00369344 0)
(0.0886271 0.0037194 0)
(0.0875598 0.00374452 0)
(0.0864854 0.00376882 0)
(0.0854042 0.00379231 0)
(0.0843165 0.00381502 0)
(0.0832223 0.00383695 0)
(0.0821221 0.00385814 0)
(0.0810159 0.00387859 0)
(0.079904 0.00389832 0)
(0.0787866 0.00391735 0)
(0.0776639 0.0039357 0)
(0.076536 0.00395339 0)
(0.0754032 0.00397042 0)
(0.0742656 0.00398683 0)
(0.0731235 0.00400261 0)
(0.071977 0.0040178 0)
(0.0708262 0.0040324 0)
(0.0696714 0.00404644 0)
(0.0685126 0.00405992 0)
(0.0673501 0.00407287 0)
(0.066184 0.00408529 0)
(0.0650144 0.00409721 0)
(0.0638415 0.00410864 0)
(0.0626655 0.00411959 0)
(0.0614864 0.00413008 0)
(0.0603043 0.00414012 0)
(0.0591195 0.00414972 0)
(0.057932 0.00415891 0)
(0.056742 0.00416769 0)
(0.0555495 0.00417607 0)
(0.0543548 0.00418407 0)
(0.0531578 0.00419171 0)
(0.0519586 0.00419899 0)
(0.0507575 0.00420593 0)
(0.0495544 0.00421253 0)
(0.0483496 0.00421882 0)
(0.0471429 0.00422479 0)
(0.0459347 0.00423047 0)
(0.0447248 0.00423587 0)
(0.0435135 0.00424099 0)
(0.0423008 0.00424584 0)
(0.0410867 0.00425044 0)
(0.0398713 0.0042548 0)
(0.0386548 0.00425892 0)
(0.0374371 0.00426281 0)
(0.0362184 0.00426649 0)
(0.0349986 0.00426996 0)
(0.0337779 0.00427323 0)
(0.0325563 0.00427631 0)
(0.0313339 0.00427921 0)
(0.0301106 0.00428193 0)
(0.0288867 0.00428448 0)
(0.027662 0.00428687 0)
(0.0264366 0.00428911 0)
(0.0252107 0.00429121 0)
(0.0239842 0.00429316 0)
(0.0227571 0.00429497 0)
(0.0215296 0.00429666 0)
(0.0203016 0.00429823 0)
(0.0190732 0.00429967 0)
(0.0178444 0.004301 0)
(0.0166152 0.00430222 0)
(0.0153857 0.00430334 0)
(0.0141559 0.00430436 0)
(0.0129258 0.00430527 0)
(0.0116955 0.0043061 0)
(0.010465 0.00430683 0)
(0.00923424 0.00430748 0)
(0.00800335 0.00430804 0)
(0.0067723 0.00430851 0)
(0.00554114 0.0043089 0)
(0.00430988 0.00430922 0)
(0.00307854 0.00430945 0)
(0.00184714 0.0043096 0)
(0.000615719 0.00430968 0)
(0.000748605 -0.006736 0)
(0.00224579 -0.00673579 0)
(0.00374292 -0.00673539 0)
(0.00523994 -0.00673479 0)
(0.00673681 -0.00673397 0)
(0.00823348 -0.00673295 0)
(0.00972992 -0.0067317 0)
(0.0112261 -0.00673023 0)
(0.0127219 -0.00672852 0)
(0.0142173 -0.00672656 0)
(0.0157123 -0.00672434 0)
(0.0172067 -0.00672185 0)
(0.0187006 -0.00671908 0)
(0.0201939 -0.006716 0)
(0.0216865 -0.0067126 0)
(0.0231783 -0.00670886 0)
(0.0246693 -0.00670477 0)
(0.0261594 -0.0067003 0)
(0.0276485 -0.00669542 0)
(0.0291365 -0.00669013 0)
(0.0306233 -0.00668439 0)
(0.0321088 -0.00667818 0)
(0.0335929 -0.00667147 0)
(0.0350755 -0.00666423 0)
(0.0365565 -0.00665644 0)
(0.0380357 -0.00664807 0)
(0.0395131 -0.00663909 0)
(0.0409884 -0.00662945 0)
(0.0424616 -0.00661915 0)
(0.0439324 -0.00660813 0)
(0.0454008 -0.00659636 0)
(0.0468666 -0.00658382 0)
(0.0483295 -0.00657046 0)
(0.0497894 -0.00655625 0)
(0.0512461 -0.00654116 0)
(0.0526994 -0.00652514 0)
(0.0541491 -0.00650815 0)
(0.055595 -0.00649017 0)
(0.0570368 -0.00647114 0)
(0.0584744 -0.00645104 0)
(0.0599074 -0.00642982 0)
(0.0613356 -0.00640744 0)
(0.0627588 -0.00638386 0)
(0.0641767 -0.00635905 0)
(0.065589 -0.00633296 0)
(0.0669954 -0.00630556 0)
(0.0683956 -0.00627681 0)
(0.0697894 -0.00624666 0)
(0.0711763 -0.00621508 0)
(0.0725562 -0.00618204 0)
(0.0739285 -0.00614749 0)
(0.0752931 -0.0061114 0)
(0.0766496 -0.00607373 0)
(0.0779975 -0.00603446 0)
(0.0793366 -0.00599354 0)
(0.0806664 -0.00595094 0)
(0.0819867 -0.00590664 0)
(0.083297 -0.0058606 0)
(0.0845968 -0.0058128 0)
(0.0858859 -0.00576321 0)
(0.0871638 -0.0057118 0)
(0.0884301 -0.00565856 0)
(0.0896845 -0.00560345 0)
(0.0909263 -0.00554647 0)
(0.0921554 -0.00548759 0)
(0.0933711 -0.0054268 0)
(0.0945732 -0.00536409 0)
(0.0957611 -0.00529944 0)
(0.0969345 -0.00523286 0)
(0.0980928 -0.00516433 0)
(0.0992357 -0.00509385 0)
(0.100363 -0.00502142 0)
(0.101473 -0.00494704 0)
(0.102567 -0.00487073 0)
(0.103644 -0.00479248 0)
(0.104703 -0.00471231 0)
(0.105744 -0.00463023 0)
(0.106767 -0.00454627 0)
(0.107771 -0.00446043 0)
(0.108755 -0.00437275 0)
(0.10972 -0.00428324 0)
(0.110664 -0.00419194 0)
(0.111588 -0.00409887 0)
(0.112491 -0.00400408 0)
(0.113373 -0.0039076 0)
(0.114233 -0.00380947 0)
(0.115071 -0.00370973 0)
(0.115887 -0.00360843 0)
(0.116679 -0.00350562 0)
(0.117449 -0.00340134 0)
(0.118195 -0.00329565 0)
(0.118918 -0.00318861 0)
(0.119617 -0.00308027 0)
(0.120291 -0.00297069 0)
(0.12094 -0.00285994 0)
(0.121565 -0.00274807 0)
(0.122165 -0.00263516 0)
(0.122739 -0.00252128 0)
(0.123288 -0.00240648 0)
(0.123812 -0.00229084 0)
(0.124309 -0.00217444 0)
(0.12478 -0.00205734 0)
(0.125225 -0.00193962 0)
(0.125644 -0.00182135 0)
(0.126036 -0.0017026 0)
(0.126402 -0.00158346 0)
(0.126741 -0.001464 0)
(0.127053 -0.00134428 0)
(0.127339 -0.0012244 0)
(0.127598 -0.00110442 0)
(0.12783 -0.000984416 0)
(0.128035 -0.000864465 0)
(0.128214 -0.000744641 0)
(0.128365 -0.000625017 0)
(0.128491 -0.000505665 0)
(0.128589 -0.000386655 0)
(0.128661 -0.000268057 0)
(0.128707 -0.00014994 0)
(0.128726 -3.23718e-05 0)
(0.128719 8.45831e-05 0)
(0.128686 0.000200861 0)
(0.128628 0.000316399 0)
(0.128543 0.000431136 0)
(0.128433 0.000545016 0)
(0.128298 0.000657981 0)
(0.128138 0.000769977 0)