/*--------------------------------*- C++ -*----------------------------------*\
| =========                 |                                                 |
| \\      /  F ield         | OpenFOAM: The Open Source CFD Toolbox           |
|  \\    /   O peration     | Version:  v2012                                 |
|   \\  /    A nd           | Website:  www.openfoam.com                      |
|    \\/     M anipulation  |                                                 |
\*---------------------------------------------------------------------------*/
FoamFile
{
    version     2.0;
    format      ascii;
    class       surfaceScalarField;
    location    "14.5";
    object      phi;
}
// * * * * * * * * * * * * * * * * * * * * * * * * * * * * * * * * * * * * * //

dimensions      [0 3 -1 0 0 0 0];
oriented        oriented;


internalField   nonuniform List<scalar> 
130560
(
3.44228e-06
-3.44228e-06
6.88476e-06
-3.44248e-06
1.03276e-05
-3.44287e-06
1.37711e-05
-3.44345e-06
1.72153e-05
-3.44423e-06
2.06605e-05
-3.44519e-06
2.41068e-05
-3.44634e-06
2.75545e-05
-3.44768e-06
3.10037e-05
-3.4492e-06
3.44546e-05
-3.45089e-06
3.79074e-05
-3.45275e-06
4.13621e-05
-3.45478e-06
4.48191e-05
-3.45697e-06
4.82784e-05
-3.45932e-06
5.17402e-05
-3.4618e-06
5.52047e-05
-3.46443e-06
5.86719e-05
-3.46719e-06
6.21419e-05
-3.47006e-06
6.5615e-05
-3.47305e-06
6.90911e-05
-3.47614e-06
7.25704e-05
-3.47932e-06
7.6053e-05
-3.48258e-06
7.95389e-05
-3.48591e-06
8.30282e-05
-3.48929e-06
8.65209e-05
-3.49271e-06
9.00171e-05
-3.49615e-06
9.35167e-05
-3.49961e-06
9.70198e-05
-3.50307e-06
0.000100526
-3.5065e-06
0.000104036
-3.50989e-06
0.000107549
-3.51323e-06
0.000111066
-3.5165e-06
0.000114586
-3.51967e-06
0.000118108
-3.52273e-06
0.000121634
-3.52566e-06
0.000125162
-3.52843e-06
0.000128693
-3.53102e-06
0.000132227
-3.53341e-06
0.000135762
-3.53558e-06
0.0001393
-3.5375e-06
0.000142839
-3.53914e-06
0.00014638
-3.54048e-06
0.000149921
-3.54149e-06
0.000153463
-3.54215e-06
0.000157006
-3.54242e-06
0.000160548
-3.54228e-06
0.00016409
-3.54169e-06
0.00016763
-3.54063e-06
0.000171169
-3.53907e-06
0.000174706
-3.53696e-06
0.000178241
-3.53429e-06
0.000181772
-3.53101e-06
0.000185299
-3.52709e-06
0.000188821
-3.5225e-06
0.000192338
-3.51721e-06
0.000195849
-3.51117e-06
0.000199354
-3.50435e-06
0.000202851
-3.49672e-06
0.000206339
-3.48824e-06
0.000209818
-3.47887e-06
0.000213286
-3.46858e-06
0.000216744
-3.45732e-06
0.000220189
-3.44507e-06
0.00022362
-3.43179e-06
0.000227038
-3.41743e-06
0.00023044
-3.40197e-06
0.000233825
-3.38536e-06
0.000237193
-3.36757e-06
0.000240541
-3.34857e-06
0.00024387
-3.32832e-06
0.000247176
-3.30678e-06
0.00025046
-3.28393e-06
0.00025372
-3.25973e-06
0.000256954
-3.23415e-06
0.000260161
-3.20716e-06
0.00026334
-3.17873e-06
0.000266489
-3.14883e-06
0.000269606
-3.11744e-06
0.000272691
-3.08454e-06
0.000275741
-3.0501e-06
0.000278755
-3.0141e-06
0.000281732
-2.97651e-06
0.000284669
-2.93734e-06
0.000287566
-2.89655e-06
0.00029042
-2.85414e-06
0.00029323
-2.8101e-06
0.000295994
-2.76443e-06
0.000298711
-2.7171e-06
0.000301379
-2.66813e-06
0.000303997
-2.61752e-06
0.000306562
-2.56526e-06
0.000309074
-2.51137e-06
0.000311529
-2.45586e-06
0.000313928
-2.39873e-06
0.000316268
-2.34e-06
0.000318548
-2.27969e-06
0.000320766
-2.21782e-06
0.00032292
-2.15443e-06
0.00032501
-2.08952e-06
0.000327033
-2.02315e-06
0.000328988
-1.95533e-06
0.000330874
-1.88611e-06
0.00033269
-1.81553e-06
0.000334433
-1.74364e-06
0.000336104
-1.67047e-06
0.0003377
-1.59607e-06
0.00033922
-1.52051e-06
0.000340664
-1.44383e-06
0.00034203
-1.36609e-06
0.000343318
-1.28736e-06
0.000344525
-1.20768e-06
0.000345653
-1.12713e-06
0.000346698
-1.04578e-06
0.000347662
-9.63679e-07
0.000348543
-8.80913e-07
0.00034934
-7.97547e-07
0.000350054
-7.13654e-07
0.000350683
-6.29308e-07
0.000351228
-5.44583e-07
0.000351688
-4.59553e-07
0.000352062
-3.74295e-07
0.000352351
-2.88885e-07
0.000352554
-2.03399e-07
0.000352672
-1.17912e-07
0.000352705
-3.25007e-08
0.000352652
5.27594e-08
0.000352514
1.37794e-07
0.000352291
2.22528e-07
0.000351985
3.0689e-07
0.000351594
3.90808e-07
0.00035112
4.74212e-07
0.000350563
5.57032e-07
0.000349923
6.39201e-07
0.000349203
7.20655e-07
0.000348401
8.0133e-07
0.00034752
8.81164e-07
0.00034656
9.601e-07
0.000345522
1.03808e-06
0.000344407
1.11505e-06
0.000343216
1.19096e-06
0.00034195
1.26576e-06
0.000340611
1.3394e-06
0.000339199
1.41184e-06
0.000337716
1.48304e-06
0.000336163
1.55296e-06
0.000334541
1.62156e-06
0.000332853
1.68882e-06
0.000331098
1.7547e-06
0.000329279
1.81918e-06
0.000327397
1.88223e-06
0.000325453
1.94383e-06
0.000323449
2.00396e-06
0.000321386
2.06262e-06
0.000319266
2.11978e-06
0.000317091
2.17543e-06
0.000314861
2.22957e-06
0.000312579
2.28219e-06
0.000310246
2.33329e-06
0.000307863
2.38287e-06
0.000305432
2.43093e-06
0.000302955
2.47748e-06
0.000300432
2.52251e-06
0.000297866
2.56605e-06
0.000295258
2.60809e-06
0.000292609
2.64866e-06
0.000289921
2.68776e-06
0.000287196
2.72541e-06
0.000284434
2.76163e-06
0.000281638
2.79644e-06
0.000278808
2.82985e-06
0.000275946
2.86189e-06
0.000273054
2.89257e-06
0.000270132
2.92193e-06
0.000267182
2.94999e-06
0.000264205
2.97676e-06
0.000261203
3.00229e-06
0.000258176
3.02658e-06
0.000255126
3.04968e-06
0.000252055
3.07161e-06
0.000248962
3.0924e-06
0.00024585
3.11207e-06
0.00024272
3.13066e-06
0.000239572
3.14819e-06
0.000236407
3.1647e-06
0.000233227
3.18021e-06
0.000230032
3.19476e-06
0.000226824
3.20837e-06
0.000223602
3.22108e-06
0.00022037
3.23291e-06
0.000217126
3.2439e-06
0.000213872
3.25407e-06
0.000210608
3.26345e-06
0.000207336
3.27208e-06
0.000204056
3.27998e-06
0.000200769
3.28718e-06
0.000197475
3.29371e-06
0.000194176
3.29959e-06
0.000190871
3.30487e-06
0.000187561
3.30955e-06
0.000184247
3.31367e-06
0.00018093
3.31726e-06
0.00017761
3.32033e-06
0.000174287
3.32293e-06
0.000170962
3.32506e-06
0.000167635
3.32676e-06
0.000164307
3.32805e-06
0.000160978
3.32896e-06
0.000157649
3.3295e-06
0.000154319
3.3297e-06
0.000150989
3.32957e-06
0.00014766
3.32915e-06
0.000144332
3.32845e-06
0.000141004
3.3275e-06
0.000137678
3.3263e-06
0.000134353
3.32489e-06
0.00013103
3.32327e-06
0.000127708
3.32147e-06
0.000124389
3.31951e-06
0.000121071
3.3174e-06
0.000117756
3.31515e-06
0.000114443
3.3128e-06
0.000111133
3.31033e-06
0.000107825
3.30779e-06
0.00010452
3.30517e-06
0.000101218
3.30249e-06
9.79179e-05
3.29977e-06
9.46209e-05
3.29702e-06
9.13266e-05
3.29424e-06
8.80352e-05
3.29146e-06
8.47465e-05
3.28868e-06
8.14606e-05
3.28592e-06
7.81774e-05
3.28318e-06
7.48969e-05
3.28047e-06
7.16191e-05
3.27781e-06
6.83439e-05
3.2752e-06
6.50713e-05
3.27266e-06
6.18011e-05
3.27018e-06
5.85333e-05
3.26778e-06
5.52678e-05
3.26547e-06
5.20046e-05
3.26324e-06
4.87435e-05
3.26112e-06
4.54844e-05
3.2591e-06
4.22272e-05
3.25718e-06
3.89718e-05
3.25539e-06
3.57181e-05
3.25371e-06
3.24659e-05
3.25216e-06
2.92152e-05
3.25073e-06
2.59658e-05
3.24944e-06
2.27175e-05
3.24828e-06
1.94702e-05
3.24727e-06
1.62238e-05
3.24639e-06
1.29782e-05
3.24565e-06
9.73313e-06
3.24506e-06
6.48851e-06
3.24462e-06
3.24418e-06
3.24433e-06
3.24418e-06
3.4421e-06
-6.88437e-06
6.88439e-06
-6.88477e-06
1.03271e-05
-6.88555e-06
1.37703e-05
-6.88672e-06
1.72144e-05
-6.88827e-06
2.06594e-05
-6.8902e-06
2.41056e-05
-6.89251e-06
2.75531e-05
-6.89519e-06
3.10021e-05
-6.89823e-06
3.44528e-05
-6.90162e-06
3.79054e-05
-6.90535e-06
4.136e-05
-6.90941e-06
4.48169e-05
-6.9138e-06
4.8276e-05
-6.91849e-06
5.17377e-05
-6.92347e-06
5.5202e-05
-6.92874e-06
5.86691e-05
-6.93426e-06
6.21391e-05
-6.94002e-06
6.5612e-05
-6.94601e-06
6.90881e-05
-6.9522e-06
7.25673e-05
-6.95857e-06
7.60498e-05
-6.9651e-06
7.95357e-05
-6.97177e-06
8.3025e-05
-6.97854e-06
8.65176e-05
-6.9854e-06
9.00138e-05
-6.9923e-06
9.35134e-05
-6.99923e-06
9.70165e-05
-7.00616e-06
0.000100523
-7.01304e-06
0.000104033
-7.01985e-06
0.000107546
-7.02655e-06
0.000111063
-7.0331e-06
0.000114583
-7.03947e-06
0.000118106
-7.04561e-06
0.000121631
-7.05148e-06
0.00012516
-7.05704e-06
0.000128691
-7.06225e-06
0.000132225
-7.06706e-06
0.000135761
-7.07142e-06
0.000139298
-7.07528e-06
0.000142838
-7.07859e-06
0.000146379
-7.08129e-06
0.000149921
-7.08335e-06
0.000153463
-7.08469e-06
0.000157006
-7.08526e-06
0.000160549
-7.08501e-06
0.000164091
-7.08386e-06
0.000167632
-7.08177e-06
0.000171172
-7.07867e-06
0.000174709
-7.0745e-06
0.000178244
-7.06918e-06
0.000181776
-7.06265e-06
0.000185303
-7.05485e-06
0.000188827
-7.04571e-06
0.000192345
-7.03515e-06
0.000195857
-7.02311e-06
0.000199362
-7.00952e-06
0.000202859
-6.99429e-06
0.000206348
-6.97736e-06
0.000209828
-6.95866e-06
0.000213298
-6.93811e-06
0.000216756
-6.91564e-06
0.000220202
-6.89118e-06
0.000223635
-6.86464e-06
0.000227054
-6.83597e-06
0.000230457
-6.80507e-06
0.000233843
-6.77189e-06
0.000237212
-6.73635e-06
0.000240562
-6.69838e-06
0.000243891
-6.65791e-06
0.0002472
-6.61487e-06
0.000250485
-6.5692e-06
0.000253746
-6.52083e-06
0.000256981
-6.4697e-06
0.00026019
-6.41575e-06
0.00026337
-6.35892e-06
0.000266521
-6.29915e-06
0.000269639
-6.2364e-06
0.000272726
-6.17062e-06
0.000275777
-6.10175e-06
0.000278793
-6.02977e-06
0.000281771
-5.95462e-06
0.00028471
-5.87628e-06
0.000287608
-5.79472e-06
0.000290464
-5.70992e-06
0.000293276
-5.62184e-06
0.000296042
-5.53049e-06
0.00029876
-5.43585e-06
0.00030143
-5.33791e-06
0.000304049
-5.23668e-06
0.000306616
-5.13216e-06
0.000309129
-5.02437e-06
0.000311587
-4.91332e-06
0.000313987
-4.79905e-06
0.000316329
-4.68157e-06
0.00031861
-4.56093e-06
0.000320829
-4.43718e-06
0.000322985
-4.31035e-06
0.000325076
-4.18051e-06
0.000327101
-4.04773e-06
0.000329057
-3.91206e-06
0.000330945
-3.77358e-06
0.000332762
-3.63238e-06
0.000334507
-3.48854e-06
0.000336178
-3.34215e-06
0.000337776
-3.19331e-06
0.000339297
-3.04213e-06
0.000340742
-2.88872e-06
0.000342109
-2.73318e-06
0.000343397
-2.57564e-06
0.000344606
-2.41623e-06
0.000345734
-2.25506e-06
0.00034678
-2.09228e-06
0.000347745
-1.92802e-06
0.000348626
-1.76242e-06
0.000349424
-1.59561e-06
0.000350138
-1.42776e-06
0.000350768
-1.25899e-06
0.000351313
-1.08946e-06
0.000351773
-9.19328e-07
0.000352147
-7.48736e-07
0.000352436
-5.7784e-07
0.00035264
-4.06791e-07
0.000352757
-2.35741e-07
0.00035279
-6.48438e-08
0.000352737
1.05751e-07
0.000352599
2.75894e-07
0.000352376
4.45436e-07
0.000352068
6.14232e-07
0.000351677
7.82138e-07
0.000351202
9.49013e-07
0.000350645
1.11472e-06
0.000350005
1.27912e-06
0.000349283
1.44209e-06
0.000348481
1.60351e-06
0.000347599
1.76323e-06
0.000346638
1.92116e-06
0.000345599
2.07718e-06
0.000344483
2.23117e-06
0.000343291
2.38303e-06
0.000342024
2.53267e-06
0.000340683
2.68e-06
0.00033927
2.82492e-06
0.000337786
2.96736e-06
0.000336231
3.10723e-06
0.000334609
3.24447e-06
0.000332918
3.37902e-06
0.000331162
3.51081e-06
0.000329342
3.63979e-06
0.000327458
3.76591e-06
0.000325513
3.88913e-06
0.000323507
4.00941e-06
0.000321443
4.12673e-06
0.000319322
4.24106e-06
0.000317145
4.35237e-06
0.000314914
4.46066e-06
0.00031263
4.56591e-06
0.000310295
4.66811e-06
0.000307911
4.76727e-06
0.000305478
4.86338e-06
0.000302999
4.95647e-06
0.000300475
5.04653e-06
0.000297908
5.13359e-06
0.000295298
5.21767e-06
0.000292648
5.29879e-06
0.000289959
5.37698e-06
0.000287232
5.45226e-06
0.000284469
5.52468e-06
0.000281671
5.59428e-06
0.00027884
5.66108e-06
0.000275977
5.72513e-06
0.000273083
5.78648e-06
0.00027016
5.84517e-06
0.000267208
5.90125e-06
0.00026423
5.95478e-06
0.000261227
6.0058e-06
0.000258199
6.05436e-06
0.000255148
6.10053e-06
0.000252075
6.14436e-06
0.000248982
6.1859e-06
0.000245869
6.22522e-06
0.000242737
6.26237e-06
0.000239588
6.2974e-06
0.000236422
6.33039e-06
0.000233241
6.36139e-06
0.000230045
6.39045e-06
0.000226836
6.41765e-06
0.000223614
6.44303e-06
0.00022038
6.46667e-06
0.000217136
6.48861e-06
0.000213881
6.50892e-06
0.000210616
6.52766e-06
0.000207344
6.54489e-06
0.000204063
6.56066e-06
0.000200775
6.57503e-06
0.000197481
6.58806e-06
0.000194181
6.5998e-06
0.000190875
6.61032e-06
0.000187565
6.61966e-06
0.000184251
6.62787e-06
0.000180933
6.63502e-06
0.000177612
6.64115e-06
0.000174289
6.64631e-06
0.000170963
6.65056e-06
0.000167636
6.65394e-06
0.000164308
6.65649e-06
0.000160978
6.65828e-06
0.000157649
6.65933e-06
0.000154319
6.65971e-06
0.000150989
6.65944e-06
0.000147659
6.65858e-06
0.000144331
6.65716e-06
0.000141003
6.65523e-06
0.000137676
6.65282e-06
0.000134351
6.64997e-06
0.000131028
6.64672e-06
0.000127706
6.64311e-06
0.000124387
6.63916e-06
0.000121069
6.63493e-06
0.000117754
6.63042e-06
0.000114441
6.62569e-06
0.00011113
6.62075e-06
0.000107823
6.61564e-06
0.000104517
6.61039e-06
0.000101215
6.60502e-06
9.7915e-05
6.59957e-06
9.4618e-05
6.59405e-06
9.13237e-05
6.58849e-06
8.80323e-05
6.58291e-06
8.47436e-05
6.57735e-06
8.14577e-05
6.57181e-06
7.81746e-05
6.56632e-06
7.48942e-05
6.5609e-06
7.16164e-05
6.55557e-06
6.83413e-05
6.55034e-06
6.50687e-05
6.54524e-06
6.17986e-05
6.54028e-06
5.85309e-05
6.53547e-06
5.52655e-05
6.53083e-06
5.20024e-05
6.52638e-06
4.87414e-05
6.52212e-06
4.54824e-05
6.51807e-06
4.22253e-05
6.51425e-06
3.89701e-05
6.51065e-06
3.57165e-05
6.50729e-06
3.24645e-05
6.50418e-06
2.92139e-05
6.50133e-06
2.59646e-05
6.49874e-06
2.27164e-05
6.49642e-06
1.94693e-05
6.49438e-06
1.62231e-05
6.49263e-06
1.29776e-05
6.49115e-06
9.73267e-06
6.48997e-06
6.48821e-06
6.48909e-06
3.24403e-06
6.4885e-06
6.48821e-06
3.4417e-06
-1.03261e-05
6.8836e-06
-1.03267e-05
1.03259e-05
-1.03278e-05
1.37688e-05
-1.03296e-05
1.72124e-05
-1.03319e-05
2.06571e-05
-1.03348e-05
2.41029e-05
-1.03383e-05
2.755e-05
-1.03423e-05
3.09987e-05
-1.03469e-05
3.44491e-05
-1.0352e-05
3.79013e-05
-1.03576e-05
4.13556e-05
-1.03637e-05
4.48121e-05
-1.03703e-05
4.8271e-05
-1.03774e-05
5.17324e-05
-1.03849e-05
5.51965e-05
-1.03928e-05
5.86633e-05
-1.04011e-05
6.2133e-05
-1.04098e-05
6.56058e-05
-1.04188e-05
6.90816e-05
-1.04281e-05
7.25607e-05
-1.04377e-05
7.60431e-05
-1.04475e-05
7.95289e-05
-1.04575e-05
8.3018e-05
-1.04677e-05
8.65107e-05
-1.0478e-05
9.00068e-05
-1.04884e-05
9.35064e-05
-1.04989e-05
9.70095e-05
-1.05093e-05
0.000100516
-1.05197e-05
0.000104026
-1.05299e-05
0.00010754
-1.054e-05
0.000111056
-1.05499e-05
0.000114576
-1.05595e-05
0.0001181
-1.05687e-05
0.000121626
-1.05776e-05
0.000125155
-1.0586e-05
0.000128686
-1.05939e-05
0.00013222
-1.06011e-05
0.000135757
-1.06077e-05
0.000139295
-1.06136e-05
0.000142835
-1.06186e-05
0.000146377
-1.06228e-05
0.000149919
-1.06259e-05
0.000153462
-1.0628e-05
0.000157006
-1.06289e-05
0.00016055
-1.06286e-05
0.000164093
-1.0627e-05
0.000167635
-1.06239e-05
0.000171176
-1.06194e-05
0.000174714
-1.06132e-05
0.00017825
-1.06053e-05
0.000181783
-1.05956e-05
0.000185312
-1.0584e-05
0.000188837
-1.05703e-05
0.000192357
-1.05546e-05
0.00019587
-1.05366e-05
0.000199377
-1.05163e-05
0.000202876
-1.04936e-05
0.000206367
-1.04683e-05
0.000209849
-1.04403e-05
0.00021332
-1.04096e-05
0.00021678
-1.0376e-05
0.000220229
-1.03394e-05
0.000223664
-1.02996e-05
0.000227084
-1.02567e-05
0.00023049
-1.02105e-05
0.000233879
-1.01608e-05
0.00023725
-1.01076e-05
0.000240602
-1.00507e-05
0.000243934
-9.99008e-06
0.000247245
-9.9256e-06
0.000250533
-9.85718e-06
0.000253797
-9.7847e-06
0.000257035
-9.70808e-06
0.000260247
-9.62722e-06
0.00026343
-9.54204e-06
0.000266583
-9.45246e-06
0.000269705
-9.3584e-06
0.000272794
-9.25977e-06
0.000275849
-9.15653e-06
0.000278868
-9.0486e-06
0.000281849
-8.93592e-06
0.000284791
-8.81845e-06
0.000287693
-8.69614e-06
0.000290552
-8.56896e-06
0.000293367
-8.43687e-06
0.000296136
-8.29985e-06
0.000298858
-8.15789e-06
0.000301531
-8.01098e-06
0.000304154
-7.85912e-06
0.000306724
-7.70233e-06
0.00030924
-7.54062e-06
0.000311701
-7.37402e-06
0.000314104
-7.20257e-06
0.000316449
-7.02631e-06
0.000318734
-6.8453e-06
0.000320956
-6.6596e-06
0.000323115
-6.46929e-06
0.000325209
-6.27446e-06
0.000327236
-6.07519e-06
0.000329196
-5.87159e-06
0.000331086
-5.66378e-06
0.000332906
-5.45187e-06
0.000334653
-5.23599e-06
0.000336327
-5.01628e-06
0.000337927
-4.7929e-06
0.000339451
-4.56599e-06
0.000340898
-4.33572e-06
0.000342267
-4.10227e-06
0.000343557
-3.86581e-06
0.000344767
-3.62653e-06
0.000345897
-3.38462e-06
0.000346945
-3.14028e-06
0.00034791
-2.89371e-06
0.000348793
-2.64513e-06
0.000349592
-2.39474e-06
0.000350307
-2.14277e-06
0.000350938
-1.88943e-06
0.000351483
-1.63495e-06
0.000351943
-1.37956e-06
0.000352318
-1.12349e-06
0.000352607
-8.6695e-07
0.000352811
-6.10186e-07
0.000352928
-3.53422e-07
0.00035296
-9.6887e-08
0.000352907
1.59192e-07
0.000352768
4.14591e-07
0.000352545
6.69087e-07
0.000352236
9.2246e-07
0.000351844
1.17449e-06
0.000351368
1.42498e-06
0.000350809
1.67371e-06
0.000350168
1.92048e-06
0.000349445
2.16509e-06
0.000348641
2.40736e-06
0.000347757
2.6471e-06
0.000346794
2.88413e-06
0.000345753
3.11829e-06
0.000344635
3.34941e-06
0.00034344
3.57733e-06
0.000342171
3.80191e-06
0.000340828
4.02301e-06
0.000339413
4.24049e-06
0.000337926
4.45424e-06
0.000336369
4.66414e-06
0.000334743
4.87008e-06
0.00033305
5.07197e-06
0.000331291
5.26972e-06
0.000329468
5.46325e-06
0.000327581
5.65248e-06
0.000325633
5.83736e-06
0.000323625
6.01783e-06
0.000321557
6.19384e-06
0.000319433
6.36536e-06
0.000317253
6.53235e-06
0.000315019
6.69479e-06
0.000312732
6.85266e-06
0.000310394
7.00597e-06
0.000308007
7.1547e-06
0.000305572
7.29886e-06
0.00030309
7.43847e-06
0.000300563
7.57355e-06
0.000297992
7.70412e-06
0.000295379
7.8302e-06
0.000292726
7.95185e-06
0.000290034
8.06909e-06
0.000287305
8.18198e-06
0.000284539
8.29056e-06
0.000281738
8.3949e-06
0.000278904
8.49505e-06
0.000276038
8.59107e-06
0.000273142
8.68304e-06
0.000270216
8.77102e-06
0.000267262
8.85508e-06
0.000264281
8.9353e-06
0.000261275
9.01176e-06
0.000258245
9.08454e-06
0.000255192
9.15373e-06
0.000252117
9.2194e-06
0.000249021
9.28164e-06
0.000245906
9.34054e-06
0.000242772
9.39619e-06
0.000239621
9.44867e-06
0.000236453
9.49807e-06
0.00023327
9.54449e-06
0.000230073
9.58801e-06
0.000226861
9.62873e-06
0.000223638
9.66673e-06
0.000220402
9.70211e-06
0.000217156
9.73495e-06
0.0002139
9.76535e-06
0.000210634
9.79338e-06
0.00020736
9.81915e-06
0.000204077
9.84273e-06
0.000200788
9.86422e-06
0.000197493
9.88369e-06
0.000194191
9.90124e-06
0.000190885
9.91695e-06
0.000187573
9.93089e-06
0.000184258
9.94315e-06
0.000180939
9.9538e-06
0.000177617
9.96293e-06
0.000174293
9.97061e-06
0.000170967
9.97692e-06
0.000167639
9.98193e-06
0.00016431
9.98571e-06
0.00016098
9.98833e-06
0.000157649
9.98986e-06
0.000154318
9.99036e-06
0.000150988
9.98991e-06
0.000147658
9.98856e-06
0.000144329
9.98639e-06
0.000141001
9.98344e-06
0.000137674
9.97977e-06
0.000134348
9.97546e-06
0.000131024
9.97054e-06
0.000127702
9.96507e-06
0.000124382
9.95912e-06
0.000121065
9.95272e-06
0.000117749
9.94592e-06
0.000114436
9.93878e-06
0.000111125
9.93134e-06
0.000107817
9.92364e-06
0.000104512
9.91573e-06
0.000101209
9.90765e-06
9.79095e-05
9.89943e-06
9.46125e-05
9.89112e-06
9.13182e-05
9.88275e-06
8.80268e-05
9.87436e-06
8.47381e-05
9.86598e-06
8.14523e-05
9.85765e-06
7.81692e-05
9.84939e-06
7.48889e-05
9.84124e-06
7.16112e-05
9.83322e-06
6.83362e-05
9.82536e-06
6.50638e-05
9.81768e-06
6.17938e-05
9.81022e-06
5.85263e-05
9.80299e-06
5.52611e-05
9.79602e-06
5.19982e-05
9.78932e-06
4.87374e-05
9.78292e-06
4.54786e-05
9.77684e-06
4.22218e-05
9.77108e-06
3.89667e-05
9.76567e-06
3.57134e-05
9.76062e-06
3.24616e-05
9.75595e-06
2.92113e-05
9.75166e-06
2.59623e-05
9.74777e-06
2.27144e-05
9.74429e-06
1.94676e-05
9.74122e-06
1.62216e-05
9.73858e-06
1.29764e-05
9.73637e-06
9.73179e-06
9.73459e-06
6.48761e-06
9.73326e-06
3.24373e-06
9.73238e-06
9.73194e-06
3.44111e-06
-1.37672e-05
6.88241e-06
-1.3768e-05
1.03241e-05
-1.37695e-05
1.37664e-05
-1.37719e-05
1.72095e-05
-1.3775e-05
2.06536e-05
-1.37789e-05
2.40988e-05
-1.37835e-05
2.75454e-05
-1.37889e-05
3.09935e-05
-1.3795e-05
3.44434e-05
-1.38019e-05
3.78952e-05
-1.38094e-05
4.1349e-05
-1.38175e-05
4.4805e-05
-1.38264e-05
4.82635e-05
-1.38358e-05
5.17244e-05
-1.38458e-05
5.51881e-05
-1.38564e-05
5.86545e-05
-1.38675e-05
6.21239e-05
-1.38791e-05
6.55964e-05
-1.38912e-05
6.9072e-05
-1.39037e-05
7.25508e-05
-1.39165e-05
7.6033e-05
-1.39297e-05
7.95186e-05
-1.39431e-05
8.30076e-05
-1.39568e-05
8.65002e-05
-1.39706e-05
8.99962e-05
-1.39845e-05
9.34959e-05
-1.39985e-05
9.69991e-05
-1.40125e-05
0.000100506
-1.40264e-05
0.000104016
-1.40401e-05
0.00010753
-1.40537e-05
0.000111047
-1.40669e-05
0.000114567
-1.40798e-05
0.000118091
-1.40923e-05
0.000121617
-1.41042e-05
0.000125147
-1.41155e-05
0.000128679
-1.41261e-05
0.000132214
-1.41359e-05
0.000135751
-1.41448e-05
0.00013929
-1.41527e-05
0.000142831
-1.41596e-05
0.000146373
-1.41652e-05
0.000149917
-1.41695e-05
0.000153461
-1.41724e-05
0.000157006
-1.41738e-05
0.000160551
-1.41736e-05
0.000164096
-1.41715e-05
0.000167639
-1.41676e-05
0.000171182
-1.41616e-05
0.000174722
-1.41536e-05
0.00017826
-1.41432e-05
0.000181795
-1.41304e-05
0.000185326
-1.41151e-05
0.000188853
-1.40971e-05
0.000192374
-1.40762e-05
0.00019589
-1.40524e-05
0.000199399
-1.40255e-05
0.000202901
-1.39954e-05
0.000206395
-1.39618e-05
0.000209879
-1.39247e-05
0.000213354
-1.38839e-05
0.000216817
-1.38393e-05
0.000220268
-1.37906e-05
0.000223706
-1.37379e-05
0.00022713
-1.36808e-05
0.000230539
-1.36193e-05
0.000233932
-1.35532e-05
0.000237307
-1.34824e-05
0.000240663
-1.34068e-05
0.000243999
-1.33261e-05
0.000247313
-1.32403e-05
0.000250605
-1.31492e-05
0.000253873
-1.30527e-05
0.000257116
-1.29507e-05
0.000260332
-1.2843e-05
0.000263519
-1.27296e-05
0.000266677
-1.26103e-05
0.000269804
-1.24849e-05
0.000272897
-1.23536e-05
0.000275957
-1.2216e-05
0.000278981
-1.20722e-05
0.000281967
-1.1922e-05
0.000284914
-1.17655e-05
0.00028782
-1.16024e-05
0.000290684
-1.14329e-05
0.000293504
-1.12568e-05
0.000296278
-1.10742e-05
0.000299005
-1.08849e-05
0.000301683
-1.0689e-05
0.000304311
-1.04865e-05
0.000306886
-1.02774e-05
0.000309407
-1.00618e-05
0.000311872
-9.83957e-06
0.000314281
-9.6109e-06
0.00031663
-9.3758e-06
0.000318919
-9.13435e-06
0.000321146
-8.88664e-06
0.00032331
-8.63276e-06
0.000325408
-8.37284e-06
0.00032744
-8.10699e-06
0.000329404
-7.83535e-06
0.000331298
-7.55808e-06
0.000333121
-7.27532e-06
0.000334873
-6.98727e-06
0.000336551
-6.6941e-06
0.000338154
-6.39601e-06
0.000339681
-6.09321e-06
0.000341131
-5.78592e-06
0.000342503
-5.47437e-06
0.000343796
-5.1588e-06
0.000345009
-4.83946e-06
0.000346141
-4.51661e-06
0.000347191
-4.1905e-06
0.000348159
-3.86142e-06
0.000349044
-3.52964e-06
0.000349844
-3.19546e-06
0.000350561
-2.85915e-06
0.000351192
-2.52102e-06
0.000351739
-2.18136e-06
0.0003522
-1.84049e-06
0.000352575
-1.4987e-06
0.000352864
-1.15629e-06
0.000353068
-8.13584e-07
0.000353185
-4.70878e-07
0.000353217
-1.28479e-07
0.000353162
2.1331e-07
0.000353023
5.54187e-07
0.000352798
8.93856e-07
0.000352489
1.23202e-06
0.000352095
1.5684e-06
0.000351617
1.9027e-06
0.000351056
2.23465e-06
0.000350412
2.56398e-06
0.000349687
2.89043e-06
0.000348881
3.21374e-06
0.000347994
3.53367e-06
0.000347028
3.84998e-06
0.000345984
4.16244e-06
0.000344863
4.47084e-06
0.000343665
4.77496e-06
0.000342392
5.07462e-06
0.000341046
5.36962e-06
0.000339626
5.65979e-06
0.000338136
5.94497e-06
0.000336575
6.225e-06
0.000334945
6.49974e-06
0.000333248
6.76907e-06
0.000331485
7.03286e-06
0.000329657
7.291e-06
0.000327766
7.54342e-06
0.000325814
7.79001e-06
0.000323801
8.0307e-06
0.000321729
8.26544e-06
0.0003196
8.49418e-06
0.000317416
8.71687e-06
0.000315177
8.93348e-06
0.000312886
9.14399e-06
0.000310543
9.3484e-06
0.000308151
9.5467e-06
0.000305711
9.7389e-06
0.000303225
9.92502e-06
0.000300693
1.01051e-05
0.000298118
1.02791e-05
0.000295501
1.04472e-05
0.000292844
1.06093e-05
0.000290147
1.07656e-05
0.000287413
1.0916e-05
0.000284643
1.10607e-05
0.000281838
1.11997e-05
0.000279
1.13331e-05
0.00027613
1.14611e-05
0.00027323
1.15836e-05
0.0002703
1.17008e-05
0.000267342
1.18127e-05
0.000264358
1.19196e-05
0.000261348
1.20214e-05
0.000258315
1.21183e-05
0.000255258
1.22104e-05
0.000252179
1.22979e-05
0.00024908
1.23807e-05
0.000245962
1.24591e-05
0.000242825
1.25332e-05
0.00023967
1.2603e-05
0.0002365
1.26687e-05
0.000233314
1.27305e-05
0.000230113
1.27884e-05
0.0002269
1.28425e-05
0.000223673
1.28931e-05
0.000220435
1.29401e-05
0.000217187
1.29837e-05
0.000213928
1.30241e-05
0.00021066
1.30614e-05
0.000207383
1.30956e-05
0.000204099
1.31269e-05
0.000200808
1.31554e-05
0.00019751
1.31813e-05
0.000194207
1.32045e-05
0.000190899
1.32253e-05
0.000187586
1.32438e-05
0.000184269
1.326e-05
0.000180949
1.32741e-05
0.000177625
1.32862e-05
0.0001743
1.32963e-05
0.000170972
1.33046e-05
0.000167643
1.33112e-05
0.000164312
1.33161e-05
0.000160981
1.33195e-05
0.00015765
1.33214e-05
0.000154318
1.3322e-05
0.000150987
1.33213e-05
0.000147656
1.33194e-05
0.000144326
1.33164e-05
0.000140997
1.33124e-05
0.000137669
1.33074e-05
0.000134343
1.33015e-05
0.000131019
1.32949e-05
0.000127696
1.32875e-05
0.000124376
1.32795e-05
0.000121058
1.32709e-05
0.000117742
1.32618e-05
0.000114429
1.32522e-05
0.000111118
1.32422e-05
0.00010781
1.32319e-05
0.000104504
1.32212e-05
0.000101201
1.32104e-05
9.79013e-05
1.31994e-05
9.46042e-05
1.31883e-05
9.13099e-05
1.3177e-05
8.80185e-05
1.31658e-05
8.47299e-05
1.31546e-05
8.14441e-05
1.31434e-05
7.81611e-05
1.31324e-05
7.48809e-05
1.31214e-05
7.16034e-05
1.31107e-05
6.83286e-05
1.31002e-05
6.50564e-05
1.30899e-05
6.17866e-05
1.30799e-05
5.85194e-05
1.30703e-05
5.52545e-05
1.30609e-05
5.19918e-05
1.3052e-05
4.87313e-05
1.30434e-05
4.54729e-05
1.30353e-05
4.22164e-05
1.30276e-05
3.89617e-05
1.30203e-05
3.57088e-05
1.30136e-05
3.24574e-05
1.30073e-05
2.92074e-05
1.30016e-05
2.59588e-05
1.29964e-05
2.27114e-05
1.29917e-05
1.94649e-05
1.29876e-05
1.62194e-05
1.29841e-05
1.29746e-05
1.29811e-05
9.73046e-06
1.29788e-05
6.48672e-06
1.2977e-05
3.24329e-06
1.29758e-05
1.29752e-05
3.44032e-06
-1.72075e-05
6.88083e-06
-1.72085e-05
1.03218e-05
-1.72105e-05
1.37633e-05
-1.72134e-05
1.72056e-05
-1.72173e-05
2.06489e-05
-1.72222e-05
2.40934e-05
-1.7228e-05
2.75392e-05
-1.72348e-05
3.09867e-05
-1.72425e-05
3.44358e-05
-1.7251e-05
3.78869e-05
-1.72604e-05
4.13401e-05
-1.72707e-05
4.47955e-05
-1.72818e-05
4.82534e-05
-1.72936e-05
5.17138e-05
-1.73062e-05
5.51769e-05
-1.73195e-05
5.86429e-05
-1.73335e-05
6.21118e-05
-1.73481e-05
6.55838e-05
-1.73632e-05
6.9059e-05
-1.73789e-05
7.25376e-05
-1.7395e-05
7.60195e-05
-1.74116e-05
7.95048e-05
-1.74285e-05
8.29937e-05
-1.74456e-05
8.64861e-05
-1.7463e-05
8.99822e-05
-1.74805e-05
9.34818e-05
-1.74981e-05
9.69851e-05
-1.75157e-05
0.000100492
-1.75332e-05
0.000104002
-1.75506e-05
0.000107516
-1.75676e-05
0.000111034
-1.75844e-05
0.000114555
-1.76006e-05
0.000118079
-1.76163e-05
0.000121606
-1.76314e-05
0.000125136
-1.76457e-05
0.000128669
-1.76591e-05
0.000132205
-1.76716e-05
0.000135743
-1.76829e-05
0.000139283
-1.7693e-05
0.000142825
-1.77017e-05
0.000146369
-1.7709e-05
0.000149914
-1.77146e-05
0.00015346
-1.77184e-05
0.000157006
-1.77204e-05
0.000160553
-1.77203e-05
0.0001641
-1.77179e-05
0.000167645
-1.77133e-05
0.00017119
-1.77061e-05
0.000174732
-1.76962e-05
0.000178273
-1.76835e-05
0.00018181
-1.76678e-05
0.000185344
-1.76489e-05
0.000188873
-1.76266e-05
0.000192398
-1.76009e-05
0.000195917
-1.75714e-05
0.000199429
-1.7538e-05
0.000202935
-1.75006e-05
0.000206432
-1.74589e-05
0.00020992
-1.74128e-05
0.000213398
-1.73621e-05
0.000216865
-1.73066e-05
0.000220321
-1.72461e-05
0.000223763
-1.71804e-05
0.000227192
-1.71093e-05
0.000230605
-1.70327e-05
0.000234002
-1.69504e-05
0.000237382
-1.68622e-05
0.000240743
-1.67678e-05
0.000244084
-1.66673e-05
0.000247404
-1.65603e-05
0.000250702
-1.64466e-05
0.000253975
-1.63263e-05
0.000257224
-1.6199e-05
0.000260445
-1.60646e-05
0.000263639
-1.5923e-05
0.000266802
-1.5774e-05
0.000269935
-1.56176e-05
0.000273035
-1.54535e-05
0.000276101
-1.52817e-05
0.000279131
-1.51021e-05
0.000282123
-1.49145e-05
0.000285077
-1.47189e-05
0.000287989
-1.45152e-05
0.00029086
-1.43034e-05
0.000293686
-1.40834e-05
0.000296467
-1.38551e-05
0.000299201
-1.36185e-05
0.000301886
-1.33736e-05
0.00030452
-1.31205e-05
0.000307101
-1.28591e-05
0.000309629
-1.25895e-05
0.000312101
-1.23116e-05
0.000314516
-1.20257e-05
0.000316872
-1.17316e-05
0.000319167
-1.14297e-05
0.0003214
-1.11198e-05
0.00032357
-1.08023e-05
0.000325674
-1.04772e-05
0.000327712
-1.01446e-05
0.000329681
-9.80475e-06
0.000331581
-9.45786e-06
0.000333409
-9.10409e-06
0.000335166
-8.74367e-06
0.000336849
-8.37684e-06
0.000338456
-8.00384e-06
0.000339988
-7.62493e-06
0.000341443
-7.24039e-06
0.000342819
-6.8505e-06
0.000344116
-6.45557e-06
0.000345332
-6.05591e-06
0.000346467
-5.65185e-06
0.00034752
-5.2437e-06
0.000348491
-4.83183e-06
0.000349378
-4.41657e-06
0.000350181
-3.99829e-06
0.000350899
-3.57736e-06
0.000351532
-3.15414e-06
0.00035208
-2.729e-06
0.000352541
-2.30234e-06
0.000352917
-1.87452e-06
0.000353207
-1.44594e-06
0.00035341
-1.01699e-06
0.000353527
-5.88031e-07
0.000353558
-1.59464e-07
0.000353503
2.68335e-07
0.000353363
6.94989e-07
0.000353136
1.12012e-06
0.000352825
1.54337e-06
0.000352429
1.96437e-06
0.000351949
2.38277e-06
0.000351385
2.79821e-06
0.000350739
3.21037e-06
0.000350011
3.6189e-06
0.000349201
4.02351e-06
0.000348311
4.42386e-06
0.000347341
4.81967e-06
0.000346293
5.21066e-06
0.000345167
5.59654e-06
0.000343965
5.97707e-06
0.000342688
6.35198e-06
0.000341336
6.72106e-06
0.000339912
7.08408e-06
0.000338416
7.44084e-06
0.00033685
7.79114e-06
0.000335215
8.13481e-06
0.000333512
8.47169e-06
0.000331743
8.80163e-06
0.00032991
9.12449e-06
0.000328013
9.44017e-06
0.000326055
9.74854e-06
0.000324036
1.00495e-05
0.000321958
1.0343e-05
0.000319823
1.0629e-05
0.000317633
1.09075e-05
0.000315388
1.11783e-05
0.00031309
1.14414e-05
0.000310742
1.16969e-05
0.000308344
1.19448e-05
0.000305898
1.2185e-05
0.000303405
1.24176e-05
0.000300868
1.26426e-05
0.000298287
1.28601e-05
0.000295664
1.30701e-05
0.000293
1.32726e-05
0.000290298
1.34678e-05
0.000287558
1.36558e-05
0.000284782
1.38365e-05
0.000281972
1.40101e-05
0.000279128
1.41768e-05
0.000276253
1.43365e-05
0.000273347
1.44895e-05
0.000270412
1.46358e-05
0.000267449
1.47755e-05
0.00026446
1.49089e-05
0.000261446
1.5036e-05
0.000258407