/*--------------------------------*- C++ -*----------------------------------*\
| =========                 |                                                 |
| \\      /  F ield         | OpenFOAM: The Open Source CFD Toolbox           |
|  \\    /   O peration     | Version:  v2012                                 |
|   \\  /    A nd           | Website:  www.openfoam.com                      |
|    \\/     M anipulation  |                                                 |
\*---------------------------------------------------------------------------*/
FoamFile
{
    version     2.0;
    format      ascii;
    class       volScalarField;
    location    "11.1";
    object      Psi_z;
}
// * * * * * * * * * * * * * * * * * * * * * * * * * * * * * * * * * * * * * //

dimensions      [0 2 -1 0 0 0 0];


internalField   nonuniform List<scalar> 
65536
(
9.07173e-06
2.72155e-05
4.53603e-05
6.35067e-05
8.16553e-05
9.98067e-05
0.000117962
0.00013612
0.000154284
0.000172452
0.000190626
0.000208806
0.000226993
0.000245186
0.000263387
0.000281595
0.000299811
0.000318034
0.000336266
0.000354505
0.000372753
0.000391008
0.000409271
0.000427541
0.000445819
0.000464103
0.000482394
0.00050069
0.000518991
0.000537296
0.000555603
0.000573913
0.000592224
0.000610535
0.000628843
0.000647149
0.000665449
0.000683742
0.000702027
0.000720301
0.000738562
0.000756808
0.000775036
0.000793243
0.000811427
0.000829585
0.000847713
0.000865808
0.000883867
0.000901887
0.000919862
0.00093779
0.000955666
0.000973487
0.000991246
0.00100894
0.00102656
0.00104411
0.00106158
0.00107897
0.00109626
0.00111346
0.00113055
0.00114754
0.00116441
0.00118116
0.00119778
0.00121428
0.00123063
0.00124683
0.00126288
0.00127877
0.00129449
0.00131004
0.00132541
0.00134058
0.00135556
0.00137034
0.0013849
0.00139925
0.00141337
0.00142725
0.0014409
0.00145429
0.00146743
0.0014803
0.00149291
0.00150523
0.00151727
0.00152902
0.00154047
0.00155161
0.00156244
0.00157295
0.00158314
0.00159299
0.0016025
0.00161167
0.0016205
0.00162896
0.00163707
0.00164481
0.00165219
0.00165919
0.00166581
0.00167205
0.00167791
0.00168338
0.00168846
0.00169315
0.00169744
0.00170133
0.00170483
0.00170792
0.00171062
0.00171291
0.0017148
0.00171629
0.00171738
0.00171807
0.00171836
0.00171825
0.00171775
0.00171685
0.00171556
0.00171388
0.00171181
0.00170936
0.00170653
0.00170332
0.00169974
0.00169579
0.00169148
0.00168681
0.00168179
0.00167641
0.00167069
0.00166464
0.00165825
0.00165153
0.00164449
0.00163713
0.00162947
0.0016215
0.00161324
0.00160468
0.00159584
0.00158672
0.00157733
0.00156768
0.00155777
0.00154761
0.0015372
0.00152655
0.00151568
0.00150458
0.00149326
0.00148173
0.00147
0.00145806
0.00144594
0.00143363
0.00142114
0.00140848
0.00139565
0.00138266
0.00136951
0.00135622
0.00134278
0.00132921
0.0013155
0.00130167
0.00128772
0.00127365
0.00125948
0.00124519
0.00123081
0.00121633
0.00120176
0.0011871
0.00117236
0.00115755
0.00114265
0.0011277
0.00111267
0.00109758
0.00108244
0.00106724
0.00105199
0.00103669
0.00102135
0.00100597
0.000990545
0.000975088
0.000959599
0.00094408
0.000928533
0.000912961
0.000897367
0.000881752
0.00086612
0.00085047
0.000834807
0.000819131
0.000803445
0.00078775
0.000772047
0.000756338
0.000740624
0.000724908
0.000709189
0.000693469
0.00067775
0.000662031
0.000646315
0.000630602
0.000614893
0.000599188
0.000583488
0.000567794
0.000552106
0.000536425
0.000520751
0.000505084
0.000489426
0.000473776
0.000458133
0.0004425
0.000426875
0.000411258
0.000395651
0.000380052
0.000364462
0.00034888
0.000333307
0.000317742
0.000302185
0.000286636
0.000271095
0.000255561
0.000240035
0.000224515
0.000209002
0.000193494
0.000177993
0.000162497
0.000147006
0.000131519
0.000116036
0.000100558
8.50818e-05
6.96086e-05
5.41378e-05
3.86686e-05
2.32007e-05
7.73348e-06
2.72149e-05
8.16458e-05
0.00013608
0.000190518
0.000244963
0.000299417
0.000353881
0.000408357
0.000462847
0.000517352
0.000571874
0.000626414
0.000680973
0.000735553
0.000790154
0.000844778
0.000899425
0.000954095
0.00100879
0.00106351
0.00111825
0.00117302
0.00122781
0.00128262
0.00133745
0.0013923
0.00144718
0.00150207
0.00155697
0.00161188
0.00166681
0.00172174
0.00177667
0.00183161
0.00188653
0.00194145
0.00199635
0.00205124
0.00210609
0.00216092
0.0022157
0.00227044
0.00232513
0.00237975
0.00243431
0.00248878
0.00254317
0.00259746
0.00265164
0.0027057
0.00275964
0.00281342
0.00286706
0.00292052
0.0029738
0.00302689
0.00307977
0.00313242
0.00318484
0.00323699
0.00328888
0.00334047
0.00339176
0.00344273
0.00349335
0.00354361
0.00359349
0.00364297
0.00369203
0.00374065
0.0037888
0.00383648
0.00388366
0.00393031
0.00397641
0.00402195
0.00406689
0.00411123
0.00415493
0.00419797
0.00424034
0.004282
0.00432294
0.00436313
0.00440255
0.00444118
0.004479
0.00451598
0.00455211
0.00458736
0.00462171
0.00465515
0.00468764
0.00471918
0.00474974
0.0047793
0.00480785
0.00483537
0.00486184
0.00488725
0.00491157
0.00493481
0.00495693
0.00497794
0.00499781
0.00501654
0.00503412
0.00505053
0.00506577
0.00507984
0.00509271
0.0051044
0.00511488
0.00512417
0.00513225
0.00513913
0.00514481
0.00514928
0.00515255
0.00515461
0.00515548
0.00515515
0.00515363
0.00515093
0.00514705
0.00514201
0.0051358
0.00512845
0.00511995
0.00511033
0.00509959
0.00508774
0.0050748
0.00506078
0.0050457
0.00502958
0.00501241
0.00499424
0.00497506
0.0049549
0.00493378
0.0049117
0.0048887
0.00486479
0.00483999
0.00481432
0.00478779
0.00476043
0.00473226
0.00470329
0.00467355
0.00464306
0.00461183
0.00457989
0.00454726
0.00451395
0.00447999
0.00444539
0.00441018
0.00437438
0.004338
0.00430106
0.00426358
0.00422559
0.0041871
0.00414812
0.00410868
0.0040688
0.00402848
0.00398776
0.00394664
0.00390514
0.00386328
0.00382107
0.00377853
0.00373567
0.00369252
0.00364907
0.00360536
0.00356138
0.00351716
0.00347271
0.00342803
0.00338315
0.00333807
0.0032928
0.00324737
0.00320177
0.00315601
0.00311012
0.00306409
0.00301794
0.00297167
0.00292529
0.00287882
0.00283226
0.00278562
0.0027389
0.00269212
0.00264527
0.00259837
0.00255142
0.00250443
0.0024574
0.00241034
0.00236325
0.00231614
0.00226902
0.00222187
0.00217472
0.00212756
0.0020804
0.00203325
0.00198609
0.00193894
0.0018918
0.00184467
0.00179756
0.00175046
0.00170337
0.00165631
0.00160927
0.00156224
0.00151524
0.00146827
0.00142132
0.00137439
0.00132749
0.00128061
0.00123377
0.00118694
0.00114015
0.00109337
0.00104663
0.000999911
0.000953216
0.000906546
0.0008599
0.000813277
0.000766676
0.000720096
0.000673537
0.000626998
0.000580477
0.000533973
0.000487485
0.000441012
0.000394553
0.000348106
0.000301669
0.000255242
0.000208824
0.000162411
0.000116004
6.96012e-05
2.32002e-05
4.53572e-05
0.000136073
0.000226794
0.000317523
0.000408263
0.000499017
0.000589788
0.00068058
0.000771394
0.000862235
0.000953103
0.001044
0.00113493
0.0012259
0.0013169
0.00140794
0.00149902
0.00159013
0.00168129
0.00177249
0.00186373
0.001955
0.00204632
0.00213767
0.00222906
0.00232049
0.00241194
0.00250343
0.00259494
0.00268646
0.00277801
0.00286956
0.00296112
0.00305268
0.00314423
0.00323577
0.00332728
0.00341876
0.00351019
0.00360157
0.00369289
0.00378413
0.00387528
0.00396633
0.00405727
0.00414807
0.00423873
0.00432922
0.00441954
0.00450965
0.00459955
0.00468921
0.00477861
0.00486774
0.00495656
0.00504505
0.0051332
0.00522097
0.00530835
0.00539529
0.00548179
0.0055678
0.0056533
0.00573826
0.00582265
0.00590644
0.00598959
0.00607208
0.00615387
0.00623492
0.00631521
0.00639469
0.00647334
0.00655112
0.00662798
0.0067039
0.00677883
0.00685275
0.00692561
0.00699737
0.007068
0.00713747
0.00720572
0.00727273
0.00733846
0.00740287
0.00746593
0.00752759
0.00758783
0.0076466
0.00770388
0.00775962
0.0078138
0.00786639
0.00791734
0.00796663
0.00801423
0.00806011
0.00810425
0.00814661
0.00818717
0.00822591
0.0082628
0.00829783
0.00833096
0.00836219
0.00839149
0.00841886
0.00844427
0.00846771
0.00848918
0.00850865
0.00852614
0.00854162
0.00855509
0.00856656
0.00857602
0.00858347
0.00858891
0.00859235
0.00859379
0.00859323
0.0085907
0.00858619
0.00857972
0.0085713
0.00856095
0.00854868
0.00853451
0.00851845
0.00850054
0.00848078
0.0084592
0.00843582
0.00841067
0.00838377
0.00835515
0.00832484
0.00829286
0.00825924
0.00822401
0.00818721
0.00814885
0.00810898
0.00806762
0.00802481
0.00798058
0.00793496
0.00788798
0.00783968
0.00779009
0.00773925
0.00768718
0.00763392
0.00757951
0.00752397
0.00746735
0.00740967
0.00735096
0.00729127
0.00723061
0.00716903
0.00710655
0.00704321
0.00697903
0.00691405
0.0068483
0.00678181
0.0067146
0.0066467
0.00657815
0.00650897
0.00643918
0.00636881
0.0062979
0.00622646
0.00615451
0.00608209
0.00600921
0.00593591
0.00586219
0.00578809
0.00571362
0.0056388
0.00556365
0.0054882
0.00541246
0.00533645
0.00526018
0.00518367
0.00510695
0.00503002
0.0049529
0.0048756
0.00479814
0.00472053
0.00464278
0.00456491
0.00448693
0.00440885
0.00433067
0.00425242
0.00417409
0.00409571
0.00401726
0.00393878
0.00386026
0.00378171
0.00370313
0.00362454
0.00354594
0.00346734
0.00338874
0.00331014
0.00323156
0.00315299
0.00307444
0.00299591
0.00291741
0.00283893
0.00276049
0.00268208
0.00260371
0.00252538
0.00244709
0.00236883
0.00229062
0.00221245
0.00213433
0.00205625
0.00197821
0.00190021
0.00182226
0.00174435
0.00166649
0.00158867
0.00151088
0.00143314
0.00135544
0.00127777
0.00120014
0.00112254
0.00104498
0.000967442
0.000889937
0.000812459
0.000735005
0.000657574
0.000580164
0.000502771
0.000425395
0.000348032
0.00027068
0.000193337
0.000116
3.86661e-05
6.34978e-05
0.000190496
0.0003175
0.000444516
0.000571548
0.0006986
0.000825676
0.00095278
0.00107992
0.00120709
0.0013343
0.00146156
0.00158886
0.00171621
0.00184361
0.00197106
0.00209857
0.00222613
0.00235375
0.00248143
0.00260916
0.00273695
0.00286479
0.00299269
0.00312064
0.00324864
0.00337668
0.00350476
0.00363288
0.00376103
0.0038892
0.00401738
0.00414558
0.00427377
0.00440195
0.00453011
0.00465824
0.00478632
0.00491434
0.00504229
0.00517015
0.00529791
0.00542554
0.00555303
0.00568036
0.00580751
0.00593445
0.00606117
0.00618763
0.00631382
0.0064397
0.00656526
0.00669045
0.00681525
0.00693964
0.00706356
0.00718701
0.00730992
0.00743228
0.00755405
0.00767518
0.00779563
0.00791538
0.00803436
0.00815255
0.0082699
0.00838636
0.00850189
0.00861644
0.00872996
0.00884242
0.00895374
0.0090639
0.00917284
0.0092805
0.00938684
0.0094918
0.00959533
0.00969739
0.00979791
0.00989684
0.00999414
0.0100898
0.0101836
0.0102757
0.0103659
0.0104542
0.0105406
0.010625
0.0107073
0.0107876
0.0108657
0.0109416
0.0110152
0.0110866
0.0111556
0.0112223
0.0112866
0.0113484
0.0114078
0.0114646
0.0115189
0.0115705
0.0116196
0.011666
0.0117098
0.0117508
0.0117891
0.0118247
0.0118576
0.0118876
0.0119149
0.0119394
0.0119611
0.0119799
0.011996
0.0120092
0.0120197
0.0120273
0.0120321
0.0120341
0.0120333
0.0120297
0.0120234
0.0120143
0.0120025
0.011988
0.0119708
0.0119509
0.0119284
0.0119033
0.0118756
0.0118454
0.0118126
0.0117774
0.0117397
0.0116996
0.0116571
0.0116123
0.0115652
0.0115158
0.0114643
0.0114105
0.0113547
0.0112967
0.0112367
0.0111748
0.0111108
0.011045
0.0109774
0.0109079
0.0108367
0.0107637
0.0106891
0.0106129
0.0105351
0.0104558
0.010375
0.0102927
0.0102091
0.0101242
0.0100379
0.00995038
0.00986166
0.00977177
0.00968076
0.00958866
0.00949553
0.0094014
0.0093063
0.00921029
0.0091134
0.00901566
0.00891711
0.00881779
0.00871774
0.00861699
0.00851556
0.00841351
0.00831084
0.00820761
0.00810384
0.00799955
0.00789477
0.00778955
0.00768389
0.00757782
0.00747138
0.00736458
0.00725745
0.00715002
0.00704229
0.0069343
0.00682607
0.0067176
0.00660893
0.00650007
0.00639104
0.00628185
0.00617251
0.00606306
0.00595349
0.00584382
0.00573406
0.00562423
0.00551434
0.0054044
0.00529442
0.00518441
0.00507437
0.00496433
0.00485427
0.00474422
0.00463418
0.00452416
0.00441416
0.00430418
0.00419424
0.00408433
0.00397446
0.00386464
0.00375487
0.00364515
0.00353548
0.00342586
0.00331631
0.00320681
0.00309737
0.002988
0.00287868
0.00276943
0.00266024
0.00255111
0.00244204
0.00233303
0.00222408
0.00211518
0.00200634
0.00189756
0.00178883
0.00168015
0.00157151
0.00146292
0.00135438
0.00124587
0.00113741
0.00102898
0.000920575
0.000812204
0.000703858
0.000595534
0.000487229
0.00037894
0.000270663
0.000162394
5.41308e-05
8.16361e-05
0.000244911
0.000408195
0.000571494
0.000734813
0.000898158
0.00106153
0.00122495
0.0013884
0.0015519
0.00171546
0.00187907
0.00204273
0.00220646
0.00237026
0.00253413
0.00269806
0.00286207
0.00302615
0.00319031
0.00335454
0.00351884
0.00368322
0.00384766
0.00401217
0.00417675
0.00434138
0.00450606
0.0046708
0.00483557
0.00500037
0.00516519
0.00533003
0.00549487
0.00565969
0.00582449
0.00598924
0.00615394
0.00631857
0.0064831
0.00664752
0.00681181
0.00697594
0.00713989
0.00730363
0.00746715
0.0076304
0.00779336
0.007956
0.00811829
0.00828019
0.00844166
0.00860268
0.00876319
0.00892317
0.00908256
0.00924133
0.00939943
0.00955681
0.00971343
0.00986924
0.0100242
0.0101782
0.0103313
0.0104833
0.0106342
0.0107841
0.0109327
0.01108
0.0112261
0.0113707
0.011514
0.0116557
0.0117958
0.0119343
0.0120711
0.0122062
0.0123394
0.0124707
0.0126
0.0127273
0.0128525
0.0129755
0.0130963
0.0132148
0.0133309
0.0134445
0.0135557
0.0136642
0.0137702
0.0138734
0.0139739
0.0140716
0.0141663
0.0142582
0.014347
0.0144328
0.0145155
0.0145951
0.0146715
0.0147446
0.0148144
0.0148809
0.014944
0.0150037
0.01506
0.0151128
0.0151622
0.0152079
0.0152502
0.0152889
0.015324
0.0153555
0.0153833
0.0154076
0.0154283
0.0154453
0.0154587
0.0154685
0.0154746
0.0154772
0.0154762
0.0154715
0.0154634
0.0154517
0.0154365
0.0154178
0.0153956
0.01537
0.015341
0.0153087
0.015273
0.0152341
0.0151919
0.0151465
0.015098
0.0150464
0.0149917
0.014934
0.0148734
0.0148099
0.0147435
0.0146743
0.0146024
0.0145278
0.0144506
0.0143709
0.0142886
0.0142039
0.0141168
0.0140274
0.0139358
0.0138419
0.0137459
0.0136478
0.0135477
0.0134457
0.0133417
0.0132359
0.0131283
0.013019
0.012908
0.0127954
0.0126813
0.0125656
0.0124485
0.0123301
0.0122103
0.0120892
0.0119668
0.0118433
0.0117187
0.0115929
0.0114662
0.0113384
0.0112097
0.0110801
0.0109497
0.0108184
0.0106864
0.0105536
0.0104201
0.010286
0.0101512
0.0100159
0.00987998
0.00974357
0.00960667
0.00946932
0.00933155
0.00919337
0.00905484
0.00891596
0.00877676
0.00863728
0.00849753
0.00835753
0.00821732
0.0080769
0.00793631
0.00779555
0.00765465
0.00751363
0.00737249
0.00723127
0.00708996
0.00694859
0.00680717
0.00666571
0.00652422
0.00638272
0.00624121
0.0060997
0.00595821
0.00581674
0.0056753
0.00553389
0.00539253
0.00525121
0.00510995
0.00496874
0.0048276
0.00468653
0.00454552
0.00440458
0.00426372
0.00412294
0.00398223
0.00384161
0.00370106
0.00356059
0.0034202
0.00327989
0.00313966
0.00299951
0.00285943
0.00271942
0.00257949
0.00243963
0.00229983
0.0021601
0.00202044
0.00188083
0.00174127
0.00160177
0.00146232
0.00132291
0.00118355
0.00104422
0.000904922
0.000765654
0.000626411
0.000487188
0.00034798
0.000208784
6.95938e-05
9.97715e-05
0.000299318
0.000498876
0.000698451
0.000898052
0.00109768
0.00129736
0.00149707
0.00169684
0.00189667
0.00209656
0.00229651
0.00249655
0.00269665
0.00289685
0.00309712
0.00329748
0.00349794
0.00369848
0.00389911
0.00409984
0.00430066
0.00450157
0.00470256
0.00490364
0.00510479
0.00530602
0.00550732
0.00570867
0.00591008
0.00611152
0.00631299
0.00651448
0.00671597
0.00691745
0.0071189
0.0073203
0.00752164
0.00772289
0.00792402
0.00812502
0.00832586
0.00852652
0.00872695
0.00892714
0.00912704
0.00932664
0.00952588
0.00972473
0.00992315
0.0101211
0.0103185
0.0105154
0.0107117
0.0109073
0.0111022
0.0112963
0.0114897
0.0116821
0.0118736
0.0120642
0.0122536
0.012442
0.0126292
0.0128151
0.0129997
0.013183
0.0133647
0.013545
0.0137236
0.0139005
0.0140757
0.014249
0.0144205
0.0145899
0.0147572
0.0149224
0.0150854
0.015246
0.0154042
0.0155599
0.0157131
0.0158635
0.0160113
0.0161562
0.0162983
0.0164373
0.0165733
0.0167061
0.0168357
0.016962
0.017085
0.0172044
0.0173204
0.0174328
0.0175415
0.0176465
0.0177476
0.017845
0.0179384
0.0180278
0.0181133
0.0181946
0.0182718
0.0183449
0.0184138
0.0184784
0.0185387
0.0185947
0.0186464
0.0186937
0.0187366
0.0187751
0.0188092
0.0188389
0.0188641
0.0188849
0.0189013
0.0189132
0.0189208
0.0189239
0.0189226
0.0189169
0.0189069
0.0188926
0.0188739
0.018851
0.0188238
0.0187925
0.018757
0.0187174
0.0186737
0.0186261
0.0185744
0.0185189
0.0184595
0.0183963
0.0183293
0.0182587
0.0181845
0.0181067
0.0180255
0.0179408
0.0178528
0.0177616
0.0176671
0.0175695
0.0174688
0.0173652
0.0172587
0.0171493
0.0170371
0.0169223
0.0168048
0.0166848
0.0165623
0.0164375
0.0163103
0.0161808
0.0160492
0.0159155
0.0157797
0.015642
0.0155024
0.0153609
0.0152177
0.0150728
0.0149263
0.0147782
0.0146285
0.0144775
0.014325
0.0141713
0.0140162
0.01386
0.0137026
0.0135441
0.0133846
0.0132241
0.0130626
0.0129002
0.012737
0.012573
0.0124082
0.0122427
0.0120766
0.0119098
0.0117424
0.0115745
0.011406
0.0112371
0.0110677
0.0108979
0.0107277
0.0105572
0.0103864
0.0102152
0.0100438
0.00987214
0.00970026
0.00952819
0.00935595
0.00918355
0.00901102
0.00883838
0.00866564
0.00849283
0.00831995
0.00814703
0.00797408
0.00780111
0.00762814
0.00745517
0.00728222
0.00710929
0.0069364
0.00676356
0.00659077
0.00641804
0.00624538
0.00607278
0.00590027
0.00572784
0.00555549
0.00538323
0.00521107
0.00503899
0.00486702
0.00469514
0.00452336
0.00435167
0.00418009
0.0040086
0.00383721
0.00366591
0.00349471
0.00332359
0.00315257
0.00298163
0.00281078
0.00264
0.0024693
0.00229868
0.00212812
0.00195763
0.00178719
0.00161681
0.00144648
0.0012762
0.00110596
0.00093575
0.000765573
0.00059542
0.000425286
0.000255166
8.50545e-05
0.000117903
0.000353714
0.000589538
0.000825383
0.00106126
0.00129717
0.00153313
0.00176915
0.00200522
0.00224137
0.00247759
0.00271389
0.00295028
0.00318676
0.00342335
0.00366003
0.00389682
0.00413371
0.00437072
0.00460783
0.00484506
0.00508239
0.00531983
0.00555738
0.00579503
0.00603277
0.0062706
0.00650851
0.0067465
0.00698455
0.00722264
0.00746078
0.00769893
0.0079371
0.00817525
0.00841336
0.00865143
0.00888942
0.00912731
0.00936508
0.00960269
0.00984011
0.0100773
0.0103143
0.0105509
0.0107873
0.0110232
0.0112588
0.0114939
0.0117285
0.0119625
0.012196
0.0124287
0.0126608
0.0128921
0.0131226
0.0133521
0.0135808
0.0138083
0.0140348
0.0142601
0.0144842
0.014707
0.0149284
0.0151483
0.0153666
0.0155833
0.0157983
0.0160115
0.0162228
0.0164321
0.0166393
0.0168443
0.0170471
0.0172475
0.0174455
0.0176409
0.0178336
0.0180237
0.0182108
0.0183951
0.0185763
0.0187543
0.0189291
0.0191006
0.0192686
0.0194331
0.019594
0.0197512
0.0199045
0.020054
0.0201995
0.0203408
0.020478
0.020611
0.0207396
0.0208639
0.0209836
0.0210988
0.0212093
0.0213151
0.0214162
0.0215125
0.0216038
0.0216903
0.0217718
0.0218482
0.0219196
0.0219858
0.0220469
0.0221029
0.0221537
0.0221992
0.0222395
0.0222746
0.0223045
0.022329
0.0223484
0.0223625
0.0223713
0.022375
0.0223734
0.0223666
0.0223547
0.0223377
0.0223156
0.0222884
0.0222563
0.0222191
0.0221771
0.0221302
0.0220785
0.022022
0.0219608
0.021895
0.0218247
0.0217499
0.0216706
0.021587
0.0214991
0.0214071
0.0213109
0.0212107
0.0211065
0.0209985
0.0208867
0.0207712
0.0206521
0.0205294
0.0204033
0.0202739
0.0201411
0.0200052
0.0198662
0.0197243
0.0195793
0.0194316
0.0192811
0.019128
0.0189723
0.0188141
0.0186534
0.0184905
0.0183253
0.018158
0.0179886
0.0178172
0.0176438
0.0174687
0.0172917
0.017113
0.0169327
0.0167509
0.0165675
0.0163827
0.0161966
0.0160092
0.0158205
0.0156307
0.0154397
0.0152477
0.0150547
0.0148608
0.014666
0.0144703
0.0142738
0.0140766
0.0138787
0.0136802
0.013481
0.0132813
0.013081
0.0128803
0.0126791
0.0124775
0.0122755
0.0120732
0.0118705
0.0116676
0.0114644
0.011261
0.0110574
0.0108536
0.0106497
0.0104456
0.0102414
0.0100371
0.00983279
0.00962839
0.00942396
0.00921952
0.00901506
0.00881062
0.0086062
0.00840181
0.00819747
0.00799318
0.00778896
0.0075848
0.00738073
0.00717675
0.00697286
0.00676906
0.00656537
0.00636179
0.00615831
0.00595495
0.0057517
0.00554857
0.00534556
0.00514266
0.00493988
0.00473721
0.00453466
0.00433222
0.00412989
0.00392768
0.00372556
0.00352355
0.00332164
0.00311982
0.0029181
0.00271646
0.0025149
0.00231342
0.00211201
0.00191066
0.00170937
0.00150814
0.00130696
0.00110582
0.00090471
0.000703633
0.000502579
0.000301541
0.000100512
0.000136031
0.000408097
0.000680179
0.000952286
0.00122443
0.00149661
0.00176886
0.00204116
0.00231354
0.00258599
0.00285854
0.00313118
0.00340392
0.00367678
0.00394974
0.00422283
0.00449604
0.00476938
0.00504284
0.00531644
0.00559016
0.00586401
0.00613799
0.0064121
0.00668632
0.00696066
0.0072351
0.00750964
0.00778426
0.00805896
0.00833373
0.00860854
0.00888338
0.00915823
0.00943307
0.00970788
0.00998263
0.0102573
0.0105319
0.0108063
0.0110805
0.0113546
0.0116284
0.0119019
0.012175
0.0124478
0.0127202
0.0129921
0.0132635
0.0135344
0.0138045
0.014074
0.0143428
0.0146107
0.0148778
0.0151438
0.0154089
0.0156729
0.0159357
0.0161972
0.0164574
0.0167161
0.0169734
0.017229
0.017483
0.0177351
0.0179854
0.0182337
0.0184799
0.0187239
0.0189657
0.019205
0.0194418
0.0196761
0.0199076
0.0201363
0.020362
0.0205847
0.0208042
0.0210204
0.0212333
0.0214426
0.0216483
0.0218503
0.0220484
0.0222425
0.0224326
0.0226185
0.0228001
0.0229773
0.02315
0.023318
0.0234814
0.02364
0.0237936
0.0239422
0.0240857
0.0242241
0.0243572
0.0244849
0.0246072
0.024724
0.0248352
0.0249408
0.0250406
0.0251348
0.0252231
0.0253055
0.0253821
0.0254527
0.0255173
0.0255759
0.0256285
0.0256751
0.0257156
0.02575
0.0257784
0.0258007
0.0258169
0.0258271
0.0258312
0.0258294
0.0258215
0.0258077
0.025788
0.0257624
0.0257309
0.0256937
0.0256507
0.025602
0.0255477
0.0254879
0.0254226
0.0253519
0.0252758
0.0251944
0.0251079
0.0250162
0.0249196
0.024818
0.0247116
0.0246004
0.0244845
0.0243641
0.0242392
0.02411
0.0239765
0.0238388
0.023697
0.0235513
0.0234017
0.0232483
0.0230913
0.0229307
0.0227666
0.0225992
0.0224285
0.0222546
0.0220777
0.0218978
0.021715
0.0215295
0.0213413
0.0211505
0.0209572
0.0207615
0.0205635
0.0203633
0.0201609
0.0199565
0.0197502
0.019542
0.019332
0.0191202
0.0189068
0.0186919
0.0184755
0.0182576
0.0180384
0.0178179
0.0175963
0.0173734
0.0171495
0.0169245
0.0166986
0.0164718
0.0162441
0.0160157
0.0157865
0.0155565
0.015326
0.0150948
0.0148631
0.0146308
0.0143981
0.014165
0.0139314
0.0136975
0.0134633
0.0132288
0.012994
0.012759
0.0125238
0.0122884
0.0120529
0.0118173
0.0115815
0.0113457
0.0111098
0.0108739
0.0106379
0.010402
0.010166
0.00993015
0.00969428
0.00945848
0.00922273
0.00898707
0.00875149
0.008516
0.00828062
0.00804535
0.00781019
0.00757515
0.00734023
0.00710545
0.0068708
0.00663627
0.00640189
0.00616764
0.00593353
0.00569955
0.00546571
0.005232
0.00499842
0.00476497
0.00453165
0.00429845
0.00406538
0.00383241
0.00359956
0.00336681
0.00313416
0.0029016
0.00266914
0.00243676
0.00220445
0.00197221
0.00174004
0.00150792
0.00127585
0.00104382
0.000811823
0.000579855
0.000347905
0.000115967
0.000154153
0.000462465
0.000770794
0.00107915
0.00138755
0.001696
0.00200451
0.0023131
0.00262177
0.00293053
0.00323939
0.00354837
0.00385746
0.00416667
0.00447602
0.00478551
0.00509514
0.00540491
0.00571484
0.00602491
0.00633513
0.00664551
0.00695603
0.00726669
0.0075775
0.00788843
0.0081995
0.00851067
0.00882195
0.00913332
0.00944476
0.00975627
0.0100678
0.0103794
0.0106909
0.0110025
0.0113139
0.0116253
0.0119366
0.0122477
0.0125586
0.0128693
0.0131797
0.0134898
0.0137995
0.0141088
0.0144177
0.014726
0.0150338
0.0153409
0.0156473
0.0159529
0.0162577
0.0165615
0.0168644
0.0171662
0.0174668
0.0177662
0.0180642
0.0183609
0.018656
0.0189495
0.0192414
0.0195314
0.0198195
0.0201055
0.0203895
0.0206712
0.0209505
0.0212274
0.0215017
0.0217732
0.022042
0.0223078
0.0225705
0.02283
0.0230862
0.0233389
0.023588
0.0238334
0.024075
0.0243126
0.024546
0.0247753
0.0250001
0.0252205
0.0254363
0.0256473
0.0258534
0.0260545
0.0262506
0.0264414
0.0266268
0.0268068
0.0269812
0.0271499
0.0273128
0.0274699
0.0276209
0.0277659
0.0279047
0.0280373
0.0281636
0.0282834
0.0283968
0.0285036
0.0286038
0.0286974
0.0287843
0.0288644
0.0289377
0.0290042
0.0290639
0.0291167
0.0291626
0.0292017
0.0292338
0.0292591
0.0292774
0.0292889
0.0292935
0.0292913
0.0292824
0.0292666
0.0292441
0.0292149
0.0291792
0.0291368
0.0290879
0.0290326
0.0289709
0.0289029
0.0288286
0.0287482
0.0286618
0.0285693
0.028471
0.0283669
0.0282571
0.0281417
0.0280208
0.0278945
0.0277629
0.0276262
0.0274844
0.0273376
0.027186
0.0270296
0.0268687
0.0267032
0.0265333
0.0263592
0.0261809
0.0259986
0.0258123
0.0256223
0.0254285
0.0252312
0.0250303
0.0248262
0.0246187
0.0244082
0.0241946
0.0239781
0.0237587
0.0235367
0.023312
0.0230848
0.0228553
0.0226234
0.0223893
0.022153
0.0219148
0.0216746
0.0214325
0.0211887
0.0209432
0.0206961
0.0204474
0.0201974
0.0199459
0.0196932
0.0194392
0.0191841
0.0189279
0.0186707
0.0184125
0.0181534
0.0178934
0.0176327
0.0173713
0.0171092
0.0168464
0.0165831
0.0163192
0.0160549
0.0157901
0.0155249
0.0152593
0.0149934
0.0147273
0.0144608
0.0141942
0.0139273
0.0136603
0.0133932
0.013126
0.0128586
0.0125912
0.0123238
0.0120563
0.0117889
0.0115215
0.0112541
0.0109867
0.0107194
0.0104522
0.0101851
0.00991808
0.00965117
0.00938438
0.00911772
0.00885119
0.0085848
0.00831855
0.00805245
0.00778651
0.00752071
0.00725507
0.00698959
0.00672426
0.00645909
0.00619407
0.00592921
0.00566449
0.00539993
0.00513551
0.00487123
0.00460708
0.00434307
0.00407918
0.00381542
0.00355176
0.00328822
0.00302478
0.00276143
0.00249817
0.00223498
0.00197187
0.00170883
0.00144584
0.00118289
0.000919987
0.000657112
0.000394258
0.000131418
0.00017227
0.000516815
0.000861381
0.00120598
0.00155062
0.00189533
0.0022401
0.00258496
0.00292991
0.00327496
0.00362013
0.00396543
0.00431086
0.00465644
0.00500216
0.00534805
0.00569409
0.0060403
0.00638668
0.00673324
0.00707996
0.00742686
0.00777392
0.00812115
0.00846855
0.00881609
0.00916378
0.0095116
0.00985955
0.0102076
0.0105557
0.010904
0.0112522
0.0116005
0.0119488
0.0122971
0.0126453
0.0129934
0.0133414
0.0136892
0.0140369
0.0143843
0.0147313
0.0150781
0.0154244
0.0157703
0.0161157
0.0164605
0.0168046
0.0171481
0.0174908
0.0178326
0.0181734
0.0185133
0.0188521
0.0191896
0.0195259
0.0198608
0.0201942
0.0205261
0.0208563
0.0211847
0.0215111
0.0218356
0.022158
0.0224781
0.0227958
0.023111
0.0234236
0.0237334
0.0240404
0.0243443
0.0246451
0.0249426
0.0252366
0.0255271
0.0258138
0.0260967
0.0263755
0.0266503
0.0269207
0.0271866
0.027448
0.0277046
0.0279564
0.0282031
0.0284447
0.0286809
0.0289117
0.0291369
0.0293564
0.02957
0.0297776
0.0299792
0.0301744
0.0303634
0.0305458
0.0307216
0.0308908
0.0310531
0.0312086
0.031357
0.0314983
0.0316325
0.0317594
0.031879
0.0319912
0.032096
0.0321932
0.0322829
0.0323649
0.0324394
0.0325061
0.0325652
0.0326166
0.0326602
0.0326961
0.0327243
0.0327448
0.0327576
0.0327627
0.0327601
0.03275
0.0327322
0.0327069
0.0326742
0.032634
0.0325864
0.0325316
0.0324695
0.0324003
0.032324
0.0322408
0.0321507
0.0320537
0.0319501
0.0318399
0.0317232
0.0316002
0.0314709
0.0313354
0.0311939
0.0310465
0.0308933
0.0307344
0.03057
0.0304002
0.0302251
0.0300448
0.0298595
0.0296692
0.0294742
0.0292746
0.0290704
0.0288619
0.0286491
0.0284321
0.0282112
0.0279864
0.0277578
0.0275256
0.0272899
0.0270508
0.0268085
0.026563
0.0263145
0.026063
0.0258088
0.0255519
0.0252924
0.0250304
0.0247661
0.0244995
0.0242308
0.0239599
0.0236871
0.0234125
0.023136
0.0228579
0.0225781
0.0222969
0.0220142
0.0217301
0.0214447
0.0211582
0.0208705
0.0205817
0.0202919
0.0200012
0.0197096
0.0194173
0.0191241
0.0188303
0.0185358
0.0182408
0.0179452
0.0176491
0.0173526
0.0170557
0.0167584
0.0164608
0.0161629
0.0158648
0.0155664
0.0152679
0.0149693
0.0146705
0.0143716
0.0140727
0.0137737
0.0134747
0.0131758
0.0128768
0.0125779
0.0122791
0.0119803
0.0116816
0.011383
0.0110846
0.0107862
0.010488
0.01019
0.00989206
0.00959431
0.00929673
0.00899931
0.00870207
0.00840499
0.0081081
0.00781138
0.00751484
0.00721847
0.00692228
0.00662627
0.00633042
0.00603474
0.00573922
0.00544386
0.00514866
0.0048536
0.00455869
0.00426391
0.00396926
0.00367474
0.00338032
0.00308602
0.00279181
0.00249769
0.00220365
0.00190968
0.00161578
0.00132193
0.00102812
0.000734347
0.000440599
0.000146865
0.000190379
0.000571146
0.000951934
0.00133276
0.00171364
0.00209458
0.0024756
0.00285672
0.00323794
0.00361928
0.00400075
0.00438236
0.00476413
0.00514605
0.00552815
0.00591042
0.00629288
0.00667552
0.00705836
0.00744139
0.00782461
0.00820803
0.00859165
0.00897545
0.00935944
0.0097436
0.0101279
0.0105124
0.010897
0.0112818
0.0116667
0.0120516
0.0124366
0.0128217
0.0132067
0.0135918
0.0139768
0.0143617
0.0147464
0.015131
0.0155154
0.0158995
0.0162833
0.0166668
0.0170498
0.0174323
0.0178143
0.0181956
0.0185762
0.0189561
0.0193351
0.0197132
0.0200902
0.0204662
0.0208409
0.0212144
0.0215864
0.0219569
0.0223258
0.022693
0.0230583
0.0234217
0.0237829
0.024142
0.0244987
0.024853
0.0252046
0.0255535
0.0258994
0.0262424
0.0265821
0.0269186
0.0272515
0.0275808
0.0279063
0.0282279
0.0285453
0.0288585
0.0291672
0.0294714
0.0297708
0.0300653
0.0303547
0.0306389
0.0309177
0.0311909
0.0314584
0.03172
0.0319756
0.032225
0.0324681
0.0327047
0.0329346
0.0331578
0.0333741
0.0335833
0.0337853
0.0339801
0.0341674
0.0343472
0.0345194
0.0346838
0.0348403
0.0349889
0.0351294
0.0352618
0.0353861
0.035502
0.0356097
0.035709
0.0357998
0.0358822
0.0359561
0.0360214
0.0360782
0.0361265
0.0361662
0.0361973
0.0362199
0.0362339
0.0362395
0.0362365
0.0362251
0.0362054
0.0361772
0.0361408
0.0360962
0.0360434
0.0359825
0.0359136
0.0358368
0.0357522
0.0356599
0.0355599
0.0354524
0.0353375
0.0352153
0.035086
0.0349496
0.0348062
0.034656
0.0344992
0.0343358
0.0341661
0.03399
0.0338078
0.0336197
0.0334257
0.0332259
0.0330206
0.0328099
0.0325939
0.0323728
0.0321467
0.0319157
0.03168
0.0314398
0.0311951
0.0309462
0.0306931
0.030436
0.030175
0.0299103
0.029642
0.0293703
0.0290952
0.0288169
0.0285355
0.0282511
0.0279639
0.027674
0.0273815
0.0270864
0.026789
0.0264893
0.0261875
0.0258836
0.0255777
0.02527
0.0249605
0.0246493
0.0243365
0.0240223
0.0237066
0.0233896
0.0230713
0.0227519
0.0224314
0.0221099
0.0217874
0.021464
0.0211398
0.0208148
0.0204892
0.0201629
0.019836
0.0195086
0.0191807
0.0188524
0.0185236
0.0181946
0.0178652
0.0175356
0.0172057
0.0168756
0.0165454
0.0162151