/*--------------------------------*- C++ -*----------------------------------*\
| =========                 |                                                 |
| \\      /  F ield         | OpenFOAM: The Open Source CFD Toolbox           |
|  \\    /   O peration     | Version:  v2012                                 |
|   \\  /    A nd           | Website:  www.openfoam.com                      |
|    \\/     M anipulation  |                                                 |
\*---------------------------------------------------------------------------*/
FoamFile
{
    version     2.0;
    format      ascii;
    class       volVectorField;
    location    "11.1";
    object      U;
}
// * * * * * * * * * * * * * * * * * * * * * * * * * * * * * * * * * * * * * //

dimensions      [0 1 -1 0 0 0 0];


internalField   nonuniform List<vector> 
65536
(
(0.000740158 -0.00074017 0)
(0.0022205 -0.000740196 0)
(0.00370092 -0.000740246 0)
(0.00518146 -0.000740322 0)
(0.00666218 -0.000740422 0)
(0.00814313 -0.000740545 0)
(0.00962434 -0.000740692 0)
(0.0111059 -0.000740861 0)
(0.0125878 -0.000741051 0)
(0.0140701 -0.000741261 0)
(0.0155528 -0.000741489 0)
(0.017036 -0.000741735 0)
(0.0185197 -0.000741996 0)
(0.020004 -0.000742271 0)
(0.0214888 -0.000742557 0)
(0.0229742 -0.000742853 0)
(0.0244602 -0.000743156 0)
(0.0259468 -0.000743464 0)
(0.0274341 -0.000743775 0)
(0.0289219 -0.000744084 0)
(0.0304104 -0.000744391 0)
(0.0318995 -0.000744691 0)
(0.0333892 -0.000744981 0)
(0.0348794 -0.000745258 0)
(0.0363702 -0.000745519 0)
(0.0378615 -0.000745759 0)
(0.0393533 -0.000745975 0)
(0.0408454 -0.000746162 0)
(0.042338 -0.000746318 0)
(0.0438308 -0.000746436 0)
(0.0453237 -0.000746514 0)
(0.0468169 -0.000746545 0)
(0.04831 -0.000746526 0)
(0.049803 -0.000746451 0)
(0.0512958 -0.000746315 0)
(0.0527883 -0.000746114 0)
(0.0542804 -0.000745841 0)
(0.0557718 -0.000745491 0)
(0.0572624 -0.000745058 0)
(0.0587521 -0.000744537 0)
(0.0602407 -0.000743922 0)
(0.0617279 -0.000743206 0)
(0.0632136 -0.000742383 0)
(0.0646975 -0.000741448 0)
(0.0661795 -0.000740393 0)
(0.0676592 -0.000739213 0)
(0.0691365 -0.0007379 0)
(0.070611 -0.000736448 0)
(0.0720824 -0.000734851 0)
(0.0735505 -0.000733102 0)
(0.075015 -0.000731193 0)
(0.0764755 -0.000729118 0)
(0.0779316 -0.000726871 0)
(0.0793831 -0.000724444 0)
(0.0808296 -0.00072183 0)
(0.0822706 -0.000719023 0)
(0.0837059 -0.000716016 0)
(0.0851349 -0.000712802 0)
(0.0865573 -0.000709374 0)
(0.0879726 -0.000705727 0)
(0.0893804 -0.000701853 0)
(0.0907803 -0.000697746 0)
(0.0921717 -0.0006934 0)
(0.0935541 -0.000688809 0)
(0.0949271 -0.000683968 0)
(0.0962902 -0.000678869 0)
(0.0976429 -0.000673509 0)
(0.0989845 -0.000667881 0)
(0.100315 -0.000661982 0)
(0.101633 -0.000655806 0)
(0.102938 -0.000649348 0)
(0.10423 -0.000642606 0)
(0.105509 -0.000635575 0)
(0.106773 -0.000628252 0)
(0.108022 -0.000620634 0)
(0.109256 -0.000612718 0)
(0.110473 -0.000604503 0)
(0.111674 -0.000595987 0)
(0.112858 -0.000587168 0)
(0.114023 -0.000578046 0)
(0.11517 -0.00056862 0)
(0.116298 -0.000558891 0)
(0.117406 -0.000548859 0)
(0.118494 -0.000538526 0)
(0.11956 -0.000527893 0)
(0.120606 -0.000516963 0)
(0.121628 -0.000505739 0)
(0.122629 -0.000494223 0)
(0.123606 -0.00048242 0)
(0.124559 -0.000470334 0)
(0.125487 -0.000457971 0)
(0.126391 -0.000445336 0)
(0.127269 -0.000432434 0)
(0.128121 -0.000419273 0)
(0.128946 -0.00040586 0)
(0.129745 -0.000392202 0)
(0.130515 -0.000378308 0)
(0.131258 -0.000364186 0)
(0.131972 -0.000349845 0)
(0.132658 -0.000335295 0)
(0.133314 -0.000320547 0)
(0.13394 -0.00030561 0)
(0.134536 -0.000290495 0)
(0.135102 -0.000275213 0)
(0.135637 -0.000259777 0)
(0.136141 -0.000244197 0)
(0.136614 -0.000228486 0)
(0.137055 -0.000212657 0)
(0.137465 -0.000196721 0)
(0.137842 -0.000180693 0)
(0.138188 -0.000164584 0)
(0.138501 -0.000148408 0)
(0.138781 -0.000132178 0)
(0.13903 -0.000115908 0)
(0.139245 -9.96103e-05 0)
(0.139428 -8.32986e-05 0)
(0.139578 -6.69862e-05 0)
(0.139696 -5.06863e-05 0)
(0.139781 -3.44121e-05 0)
(0.139834 -1.81765e-05 0)
(0.139854 -1.99247e-06 0)
(0.139841 1.41274e-05 0)
(0.139797 3.01708e-05 0)
(0.139721 4.61253e-05 0)
(0.139612 6.1979e-05 0)
(0.139473 7.77203e-05 0)
(0.139301 9.33379e-05 0)
(0.139099 0.000108821 0)
(0.138866 0.000124158 0)
(0.138602 0.00013934 0)
(0.138308 0.000154356 0)
(0.137985 0.000169197 0)
(0.137632 0.000183854 0)
(0.137249 0.000198319 0)
(0.136838 0.000212582 0)
(0.136399 0.000226637 0)
(0.135931 0.000240475 0)
(0.135436 0.000254092 0)
(0.134915 0.000267479 0)
(0.134366 0.000280631 0)
(0.133792 0.000293542 0)
(0.133192 0.000306209 0)
(0.132567 0.000318625 0)
(0.131917 0.000330788 0)
(0.131243 0.000342693 0)
(0.130546 0.000354338 0)
(0.129826 0.00036572 0)
(0.129083 0.000376837 0)
(0.128318 0.000387686 0)
(0.127532 0.000398267 0)
(0.126725 0.000408579 0)
(0.125897 0.000418621 0)
(0.12505 0.000428392 0)
(0.124184 0.000437894 0)
(0.123298 0.000447126 0)
(0.122395 0.000456089 0)
(0.121474 0.000464785 0)
(0.120535 0.000473215 0)
(0.11958 0.000481381 0)
(0.11861 0.000489286 0)
(0.117623 0.000496931 0)
(0.116622 0.000504319 0)
(0.115606 0.000511452 0)
(0.114576 0.000518336 0)
(0.113532 0.000524971 0)
(0.112475 0.000531362 0)
(0.111406 0.000537514 0)
(0.110325 0.000543428 0)
(0.109232 0.00054911 0)
(0.108128 0.000554564 0)
(0.107014 0.000559794 0)
(0.105889 0.000564804 0)
(0.104754 0.000569599 0)
(0.10361 0.000574183 0)
(0.102457 0.000578562 0)
(0.101296 0.000582739 0)
(0.100126 0.00058672 0)
(0.0989489 0.00059051 0)
(0.0977641 0.000594113 0)
(0.0965723 0.000597534 0)
(0.0953738 0.000600779 0)
(0.094169 0.000603851 0)
(0.0929582 0.000606757 0)
(0.0917418 0.000609501 0)
(0.0905201 0.000612088 0)
(0.0892933 0.000614523 0)
(0.0880618 0.00061681 0)
(0.0868259 0.000618955 0)
(0.0855859 0.000620963 0)
(0.0843419 0.000622837 0)
(0.0830944 0.000624584 0)
(0.0818435 0.000626207 0)
(0.0805895 0.000627711 0)
(0.0793325 0.000629101 0)
(0.0780729 0.00063038 0)
(0.0768109 0.000631555 0)
(0.0755466 0.000632629 0)
(0.0742803 0.000633605 0)
(0.0730121 0.00063449 0)
(0.0717422 0.000635285 0)
(0.0704709 0.000635997 0)
(0.0691982 0.000636627 0)
(0.0679243 0.000637182 0)
(0.0666494 0.000637664 0)
(0.0653736 0.000638076 0)
(0.064097 0.000638424 0)
(0.0628198 0.000638709 0)
(0.0615421 0.000638936 0)
(0.060264 0.000639109 0)
(0.0589856 0.00063923 0)
(0.0577071 0.000639302 0)
(0.0564284 0.000639329 0)
(0.0551497 0.000639314 0)
(0.0538711 0.00063926 0)
(0.0525926 0.000639169 0)
(0.0513144 0.000639045 0)
(0.0500364 0.00063889 0)
(0.0487588 0.000638707 0)
(0.0474816 0.000638499 0)
(0.0462048 0.000638267 0)
(0.0449285 0.000638015 0)
(0.0436527 0.000637744 0)
(0.0423775 0.000637457 0)
(0.0411029 0.000637156 0)
(0.0398289 0.000636843 0)
(0.0385555 0.000636521 0)
(0.0372828 0.00063619 0)
(0.0360107 0.000635854 0)
(0.0347394 0.000635513 0)
(0.0334687 0.00063517 0)
(0.0321987 0.000634825 0)
(0.0309294 0.000634482 0)
(0.0296608 0.00063414 0)
(0.0283928 0.000633803 0)
(0.0271255 0.00063347 0)
(0.0258589 0.000633144 0)
(0.024593 0.000632825 0)
(0.0233277 0.000632515 0)
(0.0220629 0.000632215 0)
(0.0207988 0.000631926 0)
(0.0195352 0.000631649 0)
(0.0182722 0.000631385 0)
(0.0170097 0.000631134 0)
(0.0157477 0.000630898 0)
(0.0144861 0.000630678 0)
(0.013225 0.000630473 0)
(0.0119643 0.000630285 0)
(0.0107039 0.000630114 0)
(0.00944383 0.000629961 0)
(0.00818406 0.000629827 0)
(0.00692455 0.00062971 0)
(0.00566524 0.000629613 0)
(0.00440612 0.000629534 0)
(0.00314713 0.000629475 0)
(0.00188824 0.000629436 0)
(0.000629406 0.000629416 0)
(0.000740133 -0.00222049 0)
(0.00222043 -0.00222056 0)
(0.00370079 -0.00222072 0)
(0.00518129 -0.00222094 0)
(0.00666196 -0.00222124 0)
(0.00814286 -0.00222161 0)
(0.00962403 -0.00222205 0)
(0.0111055 -0.00222256 0)
(0.0125874 -0.00222313 0)
(0.0140696 -0.00222377 0)
(0.0155523 -0.00222445 0)
(0.0170355 -0.00222519 0)
(0.0185192 -0.00222598 0)
(0.0200034 -0.0022268 0)
(0.0214882 -0.00222766 0)
(0.0229736 -0.00222855 0)
(0.0244596 -0.00222947 0)
(0.0259462 -0.00223039 0)
(0.0274334 -0.00223133 0)
(0.0289213 -0.00223226 0)
(0.0304098 -0.00223318 0)
(0.0318989 -0.00223408 0)
(0.0333886 -0.00223496 0)
(0.0348789 -0.00223579 0)
(0.0363697 -0.00223658 0)
(0.0378611 -0.0022373 0)
(0.0393529 -0.00223795 0)
(0.0408451 -0.00223852 0)
(0.0423377 -0.00223899 0)
(0.0438306 -0.00223935 0)
(0.0453237 -0.00223959 0)
(0.0468169 -0.00223969 0)
(0.0483101 -0.00223963 0)
(0.0498032 -0.00223941 0)
(0.0512962 -0.00223901 0)
(0.0527888 -0.00223841 0)
(0.054281 -0.0022376 0)
(0.0557726 -0.00223655 0)
(0.0572634 -0.00223526 0)
(0.0587533 -0.00223371 0)
(0.060242 -0.00223186 0)
(0.0617294 -0.00222972 0)
(0.0632154 -0.00222726 0)
(0.0646995 -0.00222446 0)
(0.0661817 -0.0022213 0)
(0.0676617 -0.00221777 0)
(0.0691393 -0.00221384 0)
(0.070614 -0.00220949 0)
(0.0720858 -0.00220471 0)
(0.0735542 -0.00219946 0)
(0.075019 -0.00219374 0)
(0.0764798 -0.00218753 0)
(0.0779363 -0.00218079 0)
(0.0793882 -0.00217352 0)
(0.080835 -0.00216568 0)
(0.0822765 -0.00215727 0)
(0.0837121 -0.00214825 0)
(0.0851416 -0.00213862 0)
(0.0865644 -0.00212834 0)
(0.0879802 -0.00211741 0)
(0.0893884 -0.00210579 0)
(0.0907887 -0.00209348 0)
(0.0921806 -0.00208044 0)
(0.0935635 -0.00206668 0)
(0.0949371 -0.00205216 0)
(0.0963007 -0.00203687 0)
(0.0976539 -0.00202079 0)
(0.0989961 -0.00200391 0)
(0.100327 -0.00198622 0)
(0.101645 -0.0019677 0)
(0.102951 -0.00194833 0)
(0.104244 -0.0019281 0)
(0.105523 -0.00190701 0)
(0.106788 -0.00188505 0)
(0.108038 -0.0018622 0)
(0.109272 -0.00183845 0)
(0.11049 -0.00181381 0)
(0.111691 -0.00178826 0)
(0.112876 -0.0017618 0)
(0.114042 -0.00173444 0)
(0.115189 -0.00170616 0)
(0.116318 -0.00167697 0)
(0.117426 -0.00164688 0)
(0.118515 -0.00161588 0)
(0.119582 -0.00158397 0)
(0.120628 -0.00155118 0)
(0.121651 -0.0015175 0)
(0.122652 -0.00148295 0)
(0.12363 -0.00144754 0)
(0.124583 -0.00141128 0)
(0.125512 -0.00137418 0)
(0.126416 -0.00133627 0)
(0.127295 -0.00129756 0)
(0.128147 -0.00125807 0)
(0.128973 -0.00121782 0)
(0.129772 -0.00117684 0)
(0.130543 -0.00113515 0)
(0.131286 -0.00109277 0)
(0.132001 -0.00104974 0)
(0.132687 -0.00100608 0)
(0.133343 -0.000961826 0)
(0.13397 -0.000917004 0)
(0.134567 -0.000871648 0)
(0.135133 -0.000825792 0)
(0.135668 -0.00077947 0)
(0.136173 -0.000732719 0)
(0.136646 -0.000685574 0)
(0.137087 -0.000638074 0)
(0.137497 -0.000590255 0)
(0.137874 -0.000542156 0)
(0.13822 -0.000493817 0)
(0.138533 -0.000445276 0)
(0.138814 -0.000396573 0)
(0.139062 -0.000347749 0)
(0.139278 -0.000298843 0)
(0.139461 -0.000249894 0)
(0.139611 -0.000200944 0)
(0.139728 -0.000152031 0)
(0.139813 -0.000103196 0)
(0.139866 -5.44761e-05 0)
(0.139886 -5.91121e-06 0)
(0.139874 4.2461e-05 0)
(0.139829 9.06031e-05 0)
(0.139752 0.000138478 0)
(0.139644 0.000186051 0)
(0.139504 0.000233287 0)
(0.139332 0.00028015 0)
(0.13913 0.000326609 0)
(0.138896 0.000372632 0)
(0.138632 0.000418187 0)
(0.138338 0.000463245 0)
(0.138014 0.000507777 0)
(0.137661 0.000551757 0)
(0.137278 0.000595158 0)
(0.136866 0.000637956 0)
(0.136426 0.000680127 0)
(0.135959 0.00072165 0)
(0.135463 0.000762505 0)
(0.134941 0.000802672 0)
(0.134392 0.000842133 0)
(0.133817 0.000880873 0)
(0.133217 0.000918877 0)
(0.132591 0.00095613 0)
(0.131941 0.000992622 0)
(0.131267 0.00102834 0)
(0.130569 0.00106328 0)
(0.129848 0.00109743 0)
(0.129105 0.00113078 0)
(0.12834 0.00116333 0)
(0.127553 0.00119507 0)
(0.126745 0.00122601 0)
(0.125917 0.00125613 0)
(0.125069 0.00128545 0)
(0.124202 0.00131395 0)
(0.123316 0.00134165 0)
(0.122412 0.00136853 0)
(0.121491 0.00139462 0)
(0.120552 0.00141991 0)
(0.119596 0.00144441 0)
(0.118625 0.00146812 0)
(0.117638 0.00149105 0)
(0.116636 0.00151321 0)
(0.11562 0.00153461 0)
(0.114589 0.00155525 0)
(0.113545 0.00157516 0)
(0.112488 0.00159433 0)
(0.111418 0.00161278 0)
(0.110337 0.00163052 0)
(0.109243 0.00164756 0)
(0.108139 0.00166392 0)
(0.107024 0.0016796 0)
(0.105899 0.00169463 0)
(0.104764 0.00170901 0)
(0.103619 0.00172275 0)
(0.102466 0.00173589 0)
(0.101304 0.00174841 0)
(0.100134 0.00176035 0)
(0.0989562 0.00177172 0)
(0.0977711 0.00178252 0)
(0.0965789 0.00179278 0)
(0.09538 0.00180251 0)
(0.0941749 0.00181172 0)
(0.0929638 0.00182043 0)
(0.0917471 0.00182866 0)
(0.090525 0.00183641 0)
(0.089298 0.00184371 0)
(0.0880662 0.00185057 0)
(0.08683 0.001857 0)
(0.0855897 0.00186302 0)
(0.0843455 0.00186864 0)
(0.0830977 0.00187387 0)
(0.0818465 0.00187874 0)
(0.0805923 0.00188324 0)
(0.0793351 0.00188741 0)
(0.0780753 0.00189125 0)
(0.0768131 0.00189476 0)
(0.0755486 0.00189798 0)
(0.0742821 0.00190091 0)
(0.0730137 0.00190356 0)
(0.0717437 0.00190594 0)
(0.0704722 0.00190807 0)
(0.0691993 0.00190996 0)
(0.0679253 0.00191162 0)
(0.0666502 0.00191306 0)
(0.0653743 0.00191429 0)
(0.0640976 0.00191533 0)
(0.0628203 0.00191618 0)
(0.0615425 0.00191686 0)
(0.0602643 0.00191738 0)
(0.0589858 0.00191774 0)
(0.0577071 0.00191795 0)
(0.0564284 0.00191803 0)
(0.0551496 0.00191798 0)
(0.0538709 0.00191781 0)
(0.0525924 0.00191754 0)
(0.0513141 0.00191716 0)
(0.050036 0.0019167 0)
(0.0487584 0.00191615 0)
(0.0474811 0.00191552 0)
(0.0462043 0.00191482 0)
(0.0449279 0.00191406 0)
(0.0436521 0.00191325 0)
(0.0423769 0.00191238 0)
(0.0411022 0.00191148 0)
(0.0398282 0.00191054 0)
(0.0385548 0.00190957 0)
(0.0372821 0.00190857 0)
(0.03601 0.00190756 0)
(0.0347386 0.00190654 0)
(0.033468 0.00190551 0)
(0.032198 0.00190447 0)
(0.0309287 0.00190344 0)
(0.02966 0.00190242 0)
(0.0283921 0.0019014 0)
(0.0271249 0.0019004 0)
(0.0258583 0.00189942 0)
(0.0245923 0.00189846 0)
(0.023327 0.00189753 0)
(0.0220623 0.00189663 0)
(0.0207982 0.00189576 0)
(0.0195347 0.00189493 0)
(0.0182717 0.00189414 0)
(0.0170092 0.00189339 0)
(0.0157472 0.00189268 0)
(0.0144857 0.00189202 0)
(0.0132246 0.0018914 0)
(0.0119639 0.00189084 0)
(0.0107036 0.00189032 0)
(0.00944354 0.00188986 0)
(0.00818381 0.00188946 0)
(0.00692433 0.00188911 0)
(0.00566507 0.00188882 0)
(0.00440598 0.00188858 0)
(0.00314703 0.0018884 0)
(0.00188818 0.00188829 0)
(0.000629387 0.00188823 0)
(0.000740082 -0.00370073 0)
(0.00222027 -0.00370086 0)
(0.00370054 -0.00370111 0)
(0.00518094 -0.00370149 0)
(0.00666151 -0.00370199 0)
(0.00814231 -0.00370261 0)
(0.00962339 -0.00370335 0)
(0.0111048 -0.0037042 0)
(0.0125866 -0.00370516 0)
(0.0140687 -0.00370621 0)
(0.0155514 -0.00370736 0)
(0.0170345 -0.0037086 0)
(0.0185181 -0.00370992 0)
(0.0200023 -0.0037113 0)
(0.021487 -0.00371274 0)
(0.0229724 -0.00371423 0)
(0.0244584 -0.00371576 0)
(0.025945 -0.00371731 0)
(0.0274322 -0.00371888 0)
(0.0289201 -0.00372044 0)
(0.0304086 -0.00372199 0)
(0.0318977 -0.0037235 0)
(0.0333875 -0.00372497 0)
(0.0348778 -0.00372637 0)
(0.0363687 -0.0037277 0)
(0.0378601 -0.00372892 0)
(0.0393521 -0.00373002 0)
(0.0408444 -0.00373098 0)
(0.0423371 -0.00373177 0)
(0.0438302 -0.00373239 0)
(0.0453234 -0.0037328 0)
(0.0468168 -0.00373298 0)
(0.0483103 -0.00373291 0)
(0.0498036 -0.00373256 0)
(0.0512968 -0.00373191 0)
(0.0527898 -0.00373093 0)
(0.0542822 -0.00372959 0)
(0.0557741 -0.00372787 0)
(0.0572653 -0.00372573 0)
(0.0587555 -0.00372316 0)
(0.0602446 -0.00372011 0)
(0.0617325 -0.00371656 0)
(0.0632188 -0.00371248 0)
(0.0647035 -0.00370783 0)
(0.0661862 -0.00370259 0)
(0.0676667 -0.00369672 0)
(0.0691448 -0.00369019 0)
(0.0706201 -0.00368297 0)
(0.0720924 -0.00367502 0)
(0.0735615 -0.0036663 0)
(0.0750269 -0.00365679 0)
(0.0764884 -0.00364645 0)
(0.0779456 -0.00363525 0)
(0.0793982 -0.00362315 0)
(0.0808458 -0.00361011 0)
(0.0822881 -0.00359611 0)
(0.0837245 -0.00358111 0)
(0.0851548 -0.00356507 0)
(0.0865785 -0.00354797 0)
(0.0879952 -0.00352976 0)
(0.0894044 -0.00351043 0)
(0.0908056 -0.00348992 0)
(0.0921985 -0.00346822 0)
(0.0935824 -0.0034453 0)
(0.0949569 -0.00342112 0)
(0.0963216 -0.00339565 0)
(0.0976758 -0.00336888 0)
(0.0990191 -0.00334076 0)
(0.100351 -0.00331129 0)
(0.101671 -0.00328043 0)
(0.102978 -0.00324816 0)
(0.104272 -0.00321447 0)
(0.105552 -0.00317933 0)
(0.106818 -0.00314273 0)
(0.108069 -0.00310465 0)
(0.109304 -0.00306509 0)
(0.110524 -0.00302402 0)
(0.111726 -0.00298144 0)
(0.112911 -0.00293735 0)
(0.114079 -0.00289174 0)
(0.115228 -0.00284461 0)
(0.116357 -0.00279596 0)
(0.117467 -0.0027458 0)
(0.118557 -0.00269412 0)
(0.119625 -0.00264095 0)
(0.120672 -0.00258628 0)
(0.121697 -0.00253014 0)
(0.122699 -0.00247255 0)
(0.123677 -0.00241351 0)
(0.124632 -0.00235306 0)
(0.125562 -0.00229121 0)
(0.126468 -0.002228 0)
(0.127347 -0.00216346 0)
(0.128201 -0.00209762 0)
(0.129027 -0.00203052 0)
(0.129827 -0.00196219 0)
(0.130599 -0.00189267 0)
(0.131343 -0.00182202 0)
(0.132059 -0.00175027 0)
(0.132746 -0.00167747 0)
(0.133403 -0.00160367 0)
(0.13403 -0.00152893 0)
(0.134627 -0.0014533 0)
(0.135194 -0.00137684 0)
(0.13573 -0.00129959 0)
(0.136235 -0.00122163 0)
(0.136709 -0.00114302 0)
(0.137151 -0.00106381 0)
(0.137561 -0.000984068 0)
(0.137939 -0.000903861 0)
(0.138285 -0.000823251 0)
(0.138598 -0.000742306 0)
(0.138879 -0.00066109 0)
(0.139127 -0.000579672 0)
(0.139343 -0.000498117 0)
(0.139526 -0.000416492 0)
(0.139676 -0.000334864 0)
(0.139794 -0.000253299 0)
(0.139879 -0.000171863 0)
(0.139931 -9.06211e-05 0)
(0.139951 -9.63748e-06 0)
(0.139938 7.10243e-05 0)
(0.139893 0.000151302 0)
(0.139816 0.000231134 0)
(0.139707 0.000310461 0)
(0.139567 0.000389224 0)
(0.139395 0.000467367 0)
(0.139192 0.000544834 0)
(0.138958 0.000621573 0)
(0.138693 0.000697531 0)
(0.138398 0.000772659 0)
(0.138073 0.00084691 0)
(0.137719 0.000920238 0)
(0.137335 0.0009926 0)
(0.136923 0.00106396 0)
(0.136482 0.00113427 0)
(0.136014 0.00120349 0)
(0.135517 0.00127161 0)
(0.134994 0.00133857 0)
(0.134445 0.00140436 0)
(0.133869 0.00146894 0)
(0.133267 0.00153229 0)
(0.132641 0.0015944 0)
(0.131989 0.00165523 0)
(0.131314 0.00171477 0)
(0.130615 0.00177301 0)
(0.129893 0.00182993 0)
(0.129149 0.00188552 0)
(0.128382 0.00193978 0)
(0.127595 0.00199269 0)
(0.126786 0.00204425 0)
(0.125957 0.00209446 0)
(0.125108 0.00214331 0)
(0.12424 0.00219082 0)
(0.123353 0.00223697 0)
(0.122448 0.00228178 0)
(0.121525 0.00232525 0)
(0.120585 0.0023674 0)
(0.119629 0.00240822 0)
(0.118656 0.00244773 0)
(0.117668 0.00248594 0)
(0.116665 0.00252286 0)
(0.115648 0.00255852 0)
(0.114616 0.00259292 0)
(0.113571 0.00262608 0)
(0.112513 0.00265801 0)
(0.111442 0.00268875 0)
(0.11036 0.0027183 0)
(0.109266 0.00274669 0)
(0.10816 0.00277394 0)
(0.107045 0.00280007 0)
(0.105918 0.00282509 0)
(0.104783 0.00284905 0)
(0.103637 0.00287194 0)
(0.102483 0.00289381 0)
(0.10132 0.00291468 0)
(0.10015 0.00293456 0)
(0.098971 0.00295348 0)
(0.0977851 0.00297147 0)
(0.0965922 0.00298855 0)
(0.0953927 0.00300475 0)
(0.0941869 0.00302009 0)
(0.0929751 0.00303459 0)
(0.0917577 0.00304829 0)
(0.0905351 0.0030612 0)
(0.0893074 0.00307335 0)
(0.0880751 0.00308476 0)
(0.0868383 0.00309546 0)
(0.0855975 0.00310547 0)
(0.0843528 0.00311482 0)
(0.0831045 0.00312353 0)
(0.0818528 0.00313162 0)
(0.0805981 0.00313912 0)
(0.0793405 0.00314605 0)
(0.0780803 0.00315243 0)
(0.0768176 0.00315828 0)
(0.0755527 0.00316362 0)
(0.0742858 0.00316849 0)
(0.0730171 0.00317289 0)
(0.0717467 0.00317684 0)
(0.0704749 0.00318038 0)
(0.0692017 0.00318352 0)
(0.0679274 0.00318627 0)
(0.066652 0.00318866 0)
(0.0653758 0.0031907 0)
(0.0640989 0.00319242 0)
(0.0628213 0.00319383 0)
(0.0615433 0.00319495 0)
(0.0602649 0.0031958 0)
(0.0589862 0.00319639 0)
(0.0577073 0.00319673 0)
(0.0564284 0.00319685 0)
(0.0551495 0.00319676 0)
(0.0538706 0.00319648 0)
(0.052592 0.00319601 0)
(0.0513135 0.00319538 0)
(0.0500354 0.00319459 0)
(0.0487576 0.00319366 0)
(0.0474802 0.00319261 0)
(0.0462033 0.00319144 0)
(0.0449269 0.00319016 0)
(0.043651 0.0031888 0)
(0.0423757 0.00318735 0)
(0.041101 0.00318584 0)
(0.0398269 0.00318426 0)
(0.0385535 0.00318264 0)
(0.0372807 0.00318098 0)
(0.0360087 0.00317929 0)
(0.0347373 0.00317757 0)
(0.0334666 0.00317585 0)
(0.0321966 0.00317412 0)
(0.0309273 0.00317239 0)
(0.0296587 0.00317068 0)
(0.0283908 0.00316898 0)
(0.0271236 0.00316731 0)
(0.025857 0.00316568 0)
(0.0245911 0.00316408 0)
(0.0233258 0.00316252 0)
(0.0220612 0.00316102 0)
(0.0207971 0.00315957 0)
(0.0195336 0.00315818 0)
(0.0182707 0.00315685 0)
(0.0170083 0.00315559 0)
(0.0157463 0.00315441 0)
(0.0144849 0.0031533 0)
(0.0132238 0.00315228 0)
(0.0119632 0.00315134 0)
(0.0107029 0.00315048 0)
(0.00944296 0.00314971 0)
(0.00818331 0.00314904 0)
(0.0069239 0.00314845 0)
(0.00566471 0.00314796 0)
(0.0044057 0.00314757 0)
(0.00314683 0.00314728 0)
(0.00188806 0.00314708 0)
(0.000629347 0.00314698 0)
(0.000740005 -0.00518084 0)
(0.00222004 -0.00518102 0)
(0.00370016 -0.00518138 0)
(0.0051804 -0.00518191 0)
(0.00666083 -0.00518262 0)
(0.00814149 -0.0051835 0)
(0.00962243 -0.00518454 0)
(0.0111037 -0.00518573 0)
(0.0125853 -0.00518708 0)
(0.0140674 -0.00518857 0)
(0.0155499 -0.00519019 0)
(0.0170329 -0.00519193 0)
(0.0185165 -0.00519378 0)
(0.0200006 -0.00519574 0)
(0.0214853 -0.00519777 0)
(0.0229706 -0.00519987 0)
(0.0244565 -0.00520203 0)
(0.0259431 -0.00520422 0)
(0.0274303 -0.00520643 0)
(0.0289182 -0.00520864 0)
(0.0304067 -0.00521083 0)
(0.0318959 -0.00521297 0)
(0.0333857 -0.00521505 0)
(0.0348761 -0.00521704 0)
(0.0363672 -0.00521892 0)
(0.0378587 -0.00522065 0)
(0.0393508 -0.00522222 0)
(0.0408433 -0.00522359 0)
(0.0423363 -0.00522474 0)
(0.0438295 -0.00522563 0)
(0.045323 -0.00522624 0)
(0.0468167 -0.00522653 0)
(0.0483105 -0.00522646 0)
(0.0498042 -0.00522601 0)
(0.0512978 -0.00522513 0)
(0.0527911 -0.0052238 0)
(0.054284 -0.00522196 0)
(0.0557764 -0.00521959 0)
(0.0572681 -0.00521664 0)
(0.0587588 -0.00521308 0)
(0.0602486 -0.00520886 0)
(0.061737 -0.00520393 0)
(0.063224 -0.00519826 0)
(0.0647094 -0.0051918 0)
(0.0661928 -0.00518451 0)
(0.0676741 -0.00517634 0)
(0.069153 -0.00516724 0)
(0.0706292 -0.00515718 0)
(0.0721024 -0.00514609 0)
(0.0735724 -0.00513394 0)
(0.0750388 -0.00512067 0)
(0.0765013 -0.00510625 0)
(0.0779596 -0.00509061 0)
(0.0794133 -0.00507371 0)
(0.080862 -0.00505551 0)
(0.0823054 -0.00503596 0)
(0.0837431 -0.005015 0)
(0.0851747 -0.0049926 0)
(0.0865997 -0.0049687 0)
(0.0880177 -0.00494326 0)
(0.0894282 -0.00491623 0)
(0.0908309 -0.00488757 0)
(0.0922252 -0.00485723 0)
(0.0936106 -0.00482518 0)
(0.0949867 -0.00479136 0)
(0.0963529 -0.00475575 0)
(0.0977087 -0.0047183 0)
(0.0990536 -0.00467898 0)
(0.100387 -0.00463774 0)
(0.101708 -0.00459457 0)
(0.103017 -0.00454943 0)
(0.104313 -0.00450228 0)
(0.105595 -0.00445311 0)
(0.106863 -0.00440189 0)
(0.108115 -0.0043486 0)
(0.109353 -0.00429322 0)
(0.110574 -0.00423574 0)
(0.111778 -0.00417614 0)
(0.112965 -0.00411442 0)
(0.114134 -0.00405057 0)
(0.115285 -0.00398458 0)
(0.116417 -0.00391647 0)
(0.117528 -0.00384623 0)
(0.118619 -0.00377387 0)
(0.11969 -0.00369941 0)
(0.120739 -0.00362286 0)
(0.121765 -0.00354424 0)
(0.122769 -0.00346358 0)
(0.123749 -0.0033809 0)
(0.124706 -0.00329623 0)
(0.125637 -0.00320961 0)
(0.126544 -0.00312107 0)
(0.127425 -0.00303067 0)
(0.12828 -0.00293844 0)
(0.129109 -0.00284444 0)
(0.12991 -0.00274872 0)
(0.130684 -0.00265134 0)
(0.131429 -0.00255236 0)
(0.132146 -0.00245184 0)
(0.132834 -0.00234985 0)
(0.133492 -0.00224646 0)
(0.13412 -0.00214175 0)
(0.134719 -0.00203579 0)
(0.135287 -0.00192866 0)
(0.135824 -0.00182044 0)
(0.136329 -0.00171121 0)
(0.136804 -0.00160106 0)
(0.137246 -0.00149008 0)
(0.137657 -0.00137835 0)
(0.138035 -0.00126597 0)
(0.138382 -0.00115302 0)
(0.138695 -0.00103961 0)
(0.138977 -0.000925812 0)
(0.139225 -0.000811732 0)
(0.139441 -0.000697462 0)
(0.139624 -0.000583094 0)
(0.139774 -0.000468722 0)
(0.139892 -0.000354439 0)
(0.139976 -0.000240337 0)
(0.140028 -0.000126508 0)
(0.140048 -1.30425e-05 0)
(0.140035 9.99714e-05 0)
(0.139989 0.000212446 0)
(0.139912 0.000324294 0)
(0.139802 0.000435434 0)
(0.139661 0.000545782 0)
(0.139488 0.000655259 0)
(0.139284 0.000763788 0)
(0.139049 0.000871294 0)
(0.138784 0.000977704 0)
(0.138488 0.00108295 0)
(0.138162 0.00118696 0)
(0.137806 0.00128968 0)
(0.137422 0.00139105 0)
(0.137008 0.001491 0)
(0.136566 0.00158949 0)
(0.136096 0.00168645 0)
(0.135599 0.00178185 0)
(0.135074 0.00187565 0)
(0.134523 0.00196779 0)
(0.133945 0.00205824 0)
(0.133343 0.00214696 0)
(0.132714 0.00223393 0)
(0.132062 0.00231912 0)
(0.131385 0.00240251 0)
(0.130684 0.00248406 0)
(0.129961 0.00256376 0)
(0.129215 0.0026416 0)
(0.128447 0.00271757 0)
(0.127657 0.00279165 0)
(0.126847 0.00286384 0)
(0.126016 0.00293413 0)
(0.125166 0.00300253 0)
(0.124296 0.00306903 0)
(0.123407 0.00313364 0)
(0.122501 0.00319637 0)
(0.121576 0.00325722 0)
(0.120635 0.00331621 0)
(0.119677 0.00337334 0)
(0.118703 0.00342864 0)
(0.117713 0.00348211 0)
(0.116709 0.00353379 0)
(0.11569 0.00358368 0)
(0.114657 0.00363182 0)
(0.11361 0.00367821 0)
(0.112551 0.0037229 0)
(0.111479 0.00376591 0)
(0.110395 0.00380725 0)
(0.109299 0.00384697 0)
(0.108192 0.00388508 0)
(0.107075 0.00392163 0)
(0.105948 0.00395664 0)
(0.104811 0.00399014 0)
(0.103664 0.00402216 0)
(0.102509 0.00405275 0)
(0.101345 0.00408192 0)
(0.100173 0.00410972 0)
(0.0989932 0.00413618 0)
(0.0978062 0.00416133 0)
(0.0966122 0.00418521 0)
(0.0954116 0.00420785 0)
(0.0942048 0.00422929 0)
(0.0929921 0.00424957 0)
(0.0917737 0.0042687 0)
(0.0905501 0.00428674 0)
(0.0893216 0.00430372 0)
(0.0880884 0.00431966 0)
(0.0868508 0.00433461 0)
(0.0856091 0.00434859 0)
(0.0843636 0.00436165 0)
(0.0831146 0.00437381 0)
(0.0818622 0.00438511 0)
(0.0806068 0.00439557 0)
(0.0793485 0.00440524 0)
(0.0780876 0.00441413 0)
(0.0768243 0.0044223 0)
(0.0755589 0.00442975 0)
(0.0742914 0.00443653 0)
(0.0730221 0.00444266 0)
(0.0717512 0.00444817 0)
(0.0704789 0.0044531 0)
(0.0692053 0.00445746 0)
(0.0679305 0.00446129 0)
(0.0666547 0.00446461 0)
(0.0653781 0.00446744 0)
(0.0641008 0.00446983 0)
(0.0628229 0.00447178 0)
(0.0615445 0.00447332 0)
(0.0602657 0.00447448 0)
(0.0589868 0.00447528 0)
(0.0577076 0.00447574 0)
(0.0564284 0.00447589 0)
(0.0551493 0.00447574 0)
(0.0538702 0.00447532 0)
(0.0525913 0.00447465 0)
(0.0513127 0.00447374 0)
(0.0500344 0.00447262 0)
(0.0487564 0.0044713 0)
(0.0474789 0.00446981 0)
(0.0462018 0.00446815 0)
(0.0449253 0.00446636 0)
(0.0436493 0.00446443 0)
(0.0423739 0.00446239 0)
(0.0410992 0.00446025 0)
(0.039825 0.00445804 0)
(0.0385515 0.00445575 0)
(0.0372787 0.00445341 0)
(0.0360066 0.00445103 0)
(0.0347352 0.00444862 0)
(0.0334645 0.00444619 0)
(0.0321945 0.00444376 0)
(0.0309252 0.00444133 0)
(0.0296567 0.00443893 0)
(0.0283888 0.00443654 0)
(0.0271216 0.0044342 0)
(0.0258551 0.00443189 0)
(0.0245892 0.00442965 0)
(0.023324 0.00442746 0)
(0.0220594 0.00442535 0)
(0.0207954 0.00442331 0)
(0.019532 0.00442136 0)
(0.0182691 0.0044195 0)
(0.0170068 0.00441773 0)
(0.015745 0.00441607 0)
(0.0144836 0.00441452 0)
(0.0132226 0.00441307 0)
(0.0119621 0.00441175 0)
(0.0107019 0.00441055 0)
(0.0094421 0.00440947 0)
(0.00818255 0.00440852 0)
(0.00692326 0.0044077 0)
(0.00566419 0.00440701 0)
(0.00440529 0.00440646 0)
(0.00314654 0.00440605 0)
(0.00188788 0.00440577 0)
(0.000629288 0.00440564 0)
(0.000739902 -0.00666078 0)
(0.00221973 -0.00666101 0)
(0.00369964 -0.00666147 0)
(0.00517969 -0.00666216 0)
(0.00665992 -0.00666308 0)
(0.00814039 -0.00666421 0)
(0.00962114 -0.00666556 0)
(0.0111022 -0.00666711 0)
(0.0125837 -0.00666886 0)
(0.0140656 -0.00667079 0)
(0.015548 -0.00667289 0)
(0.0170309 -0.00667515 0)
(0.0185143 -0.00667756 0)
(0.0199983 -0.00668009 0)
(0.0214829 -0.00668273 0)
(0.0229681 -0.00668546 0)
(0.024454 -0.00668826 0)
(0.0259405 -0.00669111 0)
(0.0274277 -0.00669399 0)
(0.0289156 -0.00669686 0)
(0.0304042 -0.00669971 0)
(0.0318934 -0.00670251 0)
(0.0333834 -0.00670522 0)
(0.0348739 -0.00670782 0)
(0.0363651 -0.00671028 0)
(0.0378568 -0.00671255 0)
(0.0393491 -0.00671462 0)
(0.0408418 -0.00671643 0)
(0.042335 -0.00671796 0)
(0.0438286 -0.00671916 0)
(0.0453225 -0.00672 0)
(0.0468165 -0.00672043 0)
(0.0483107 -0.0067204 0)
(0.0498049 -0.00671988 0)
(0.051299 -0.00671882 0)
(0.0527929 -0.00671716 0)
(0.0542864 -0.00671487 0)
(0.0557794 -0.00671189 0)
(0.0572717 -0.00670817 0)
(0.0587632 -0.00670366 0)
(0.0602537 -0.0066983 0)
(0.061743 -0.00669205 0)
(0.0632309 -0.00668483 0)
(0.0647172 -0.0066766 0)
(0.0662016 -0.00666731 0)
(0.0676839 -0.00665688 0)
(0.0691639 -0.00664527 0)
(0.0706412 -0.0066324 0)
(0.0721156 -0.00661823 0)
(0.0735869 -0.00660269 0)
(0.0750546 -0.00658571 0)
(0.0765184 -0.00656725 0)
(0.0779781 -0.00654723 0)
(0.0794333 -0.00652559 0)
(0.0808835 -0.00650227 0)
(0.0823285 -0.00647721 0)
(0.0837678 -0.00645035 0)
(0.0852011 -0.00642162 0)
(0.0866278 -0.00639097 0)
(0.0880476 -0.00635834 0)
(0.08946 -0.00632366 0)
(0.0908646 -0.00628689 0)
(0.0922608 -0.00624796 0)
(0.0936482 -0.00620681 0)
(0.0950264 -0.00616341 0)
(0.0963946 -0.00611768 0)
(0.0977526 -0.0060696 0)
(0.0990996 -0.0060191 0)
(0.100435 -0.00596614 0)
(0.101759 -0.00591069 0)
(0.10307 -0.00585269 0)
(0.104368 -0.00579212 0)
(0.105652 -0.00572894 0)
(0.106922 -0.00566312 0)
(0.108177 -0.00559464 0)
(0.109417 -0.00552346 0)
(0.110641 -0.00544957 0)
(0.111848 -0.00537296 0)
(0.113037 -0.00529362 0)
(0.114209 -0.00521152 0)
(0.115362 -0.00512669 0)
(0.116496 -0.0050391 0)
(0.11761 -0.00494878 0)
(0.118703 -0.00485573 0)
(0.119776 -0.00475997 0)
(0.120827 -0.00466151 0)
(0.121856 -0.00456039 0)
(0.122862 -0.00445663 0)
(0.123845 -0.00435027 0)
(0.124803 -0.00424135 0)
(0.125738 -0.00412991 0)
(0.126647 -0.00401601 0)
(0.12753 -0.0038997 0)
(0.128387 -0.00378103 0)
(0.129217 -0.00366008 0)
(0.13002 -0.00353692 0)
(0.130796 -0.00341161 0)
(0.131543 -0.00328424 0)
(0.132262 -0.00315488 0)
(0.132951 -0.00302363 0)
(0.133611 -0.00289058 0)
(0.134241 -0.00275582 0)
(0.134841 -0.00261945 0)
(0.13541 -0.00248157 0)
(0.135948 -0.00234228 0)
(0.136455 -0.0022017 0)
(0.13693 -0.00205993 0)
(0.137374 -0.00191709 0)
(0.137785 -0.00177329 0)
(0.138164 -0.00162864 0)
(0.138511 -0.00148327 0)
(0.138825 -0.00133729 0)
(0.139107 -0.00119082 0)
(0.139356 -0.00104398 0)
(0.139572 -0.000896905 0)
(0.139755 -0.0007497 0)
(0.139905 -0.000602491 0)
(0.140022 -0.000455398 0)
(0.140107 -0.000308539 0)
(0.140158 -0.000162033 0)
(0.140177 -1.5996e-05 0)
(0.140164 0.000129457 0)
(0.140118 0.000274214 0)
(0.140039 0.000418164 0)
(0.139929 0.000561197 0)
(0.139787 0.00070321 0)
(0.139613 0.000844099 0)
(0.139408 0.000983764 0)