/*--------------------------------*- C++ -*----------------------------------*\
| =========                 |                                                 |
| \\      /  F ield         | OpenFOAM: The Open Source CFD Toolbox           |
|  \\    /   O peration     | Version:  v2012                                 |
|   \\  /    A nd           | Website:  www.openfoam.com                      |
|    \\/     M anipulation  |                                                 |
\*---------------------------------------------------------------------------*/
FoamFile
{
    version     2.0;
    format      ascii;
    class       surfaceScalarField;
    location    "1";
    object      phi;
}
// * * * * * * * * * * * * * * * * * * * * * * * * * * * * * * * * * * * * * //

dimensions      [0 3 -1 0 0 0 0];
oriented        oriented;


internalField   nonuniform List<scalar> 
130560
(
3.37656e-06
-3.37656e-06
6.7529e-06
-3.37633e-06
1.01288e-05
-3.37588e-06
1.3504e-05
-3.3752e-06
1.68783e-05
-3.37429e-06
2.02514e-05
-3.37316e-06
2.36232e-05
-3.37179e-06
2.69934e-05
-3.37019e-06
3.03618e-05
-3.36834e-06
3.3728e-05
-3.36626e-06
3.70919e-05
-3.36393e-06
4.04533e-05
-3.36136e-06
4.38118e-05
-3.35853e-06
4.71673e-05
-3.35544e-06
5.05194e-05
-3.35208e-06
5.38678e-05
-3.34846e-06
5.72124e-05
-3.34456e-06
6.05527e-05
-3.34038e-06
6.38886e-05
-3.3359e-06
6.72198e-05
-3.33113e-06
7.05458e-05
-3.32606e-06
7.38665e-05
-3.32067e-06
7.71815e-05
-3.31497e-06
8.04904e-05
-3.30894e-06
8.3793e-05
-3.30256e-06
8.70888e-05
-3.29585e-06
9.03776e-05
-3.28877e-06
9.36589e-05
-3.28134e-06
9.69325e-05
-3.27353e-06
0.000100198
-3.26533e-06
0.000103455
-3.25674e-06
0.000106702
-3.24775e-06
0.000109941
-3.23834e-06
0.000113169
-3.22851e-06
0.000116387
-3.21825e-06
0.000119595
-3.20754e-06
0.000122791
-3.19637e-06
0.000125976
-3.18474e-06
0.000129149
-3.17263e-06
0.000132309
-3.16004e-06
0.000135456
-3.14694e-06
0.000138589
-3.13334e-06
0.000141708
-3.11923e-06
0.000144813
-3.10458e-06
0.000147902
-3.0894e-06
0.000150976
-3.07367e-06
0.000154033
-3.05738e-06
0.000157074
-3.04052e-06
0.000160097
-3.02309e-06
0.000163102
-3.00508e-06
0.000166088
-2.98648e-06
0.000169056
-2.96727e-06
0.000172003
-2.94746e-06
0.00017493
-2.92703e-06
0.000177836
-2.90597e-06
0.00018072
-2.88429e-06
0.000183582
-2.86198e-06
0.000186421
-2.83902e-06
0.000189237
-2.81542e-06
0.000192028
-2.79117e-06
0.000194794
-2.76626e-06
0.000197535
-2.7407e-06
0.000200249
-2.71448e-06
0.000202937
-2.6876e-06
0.000205597
-2.66005e-06
0.000208229
-2.63184e-06
0.000210832
-2.60296e-06
0.000213405
-2.57342e-06
0.000215949
-2.54321e-06
0.000218461
-2.51234e-06
0.000220942
-2.48082e-06
0.00022339
-2.44863e-06
0.000225806
-2.41579e-06
0.000228188
-2.38231e-06
0.000230537
-2.34818e-06
0.00023285
-2.31341e-06
0.000235128
-2.27801e-06
0.00023737
-2.24198e-06
0.000239575
-2.20534e-06
0.000241743
-2.16809e-06
0.000243874
-2.13024e-06
0.000245965
-2.0918e-06
0.000248018
-2.05278e-06
0.000250031
-2.01318e-06
0.000252004
-1.97303e-06
0.000253937
-1.93234e-06
0.000255828
-1.89111e-06
0.000257677
-1.84935e-06
0.000259484
-1.80709e-06
0.000261249
-1.76433e-06
0.00026297
-1.7211e-06
0.000264647
-1.67739e-06
0.00026628
-1.63324e-06
0.000267869
-1.58865e-06
0.000269413
-1.54364e-06
0.000270911
-1.49822e-06
0.000272363
-1.45241e-06
0.00027377
-1.40623e-06
0.000275129
-1.35969e-06
0.000276442
-1.31282e-06
0.000277708
-1.26562e-06
0.000278926
-1.21811e-06
0.000280096
-1.17031e-06
0.000281218
-1.12224e-06
0.000282292
-1.07391e-06
0.000283318
-1.02534e-06
0.000284294
-9.76542e-07
0.000285222
-9.27541e-07
0.0002861
-8.78349e-07
0.000286929
-8.28983e-07
0.000287708
-7.79459e-07
0.000288438
-7.29792e-07
0.000289118
-6.8e-07
0.000289748
-6.30097e-07
0.000290328
-5.80099e-07
0.000290858
-5.30022e-07
0.000291338
-4.7988e-07
0.000291768
-4.29688e-07
0.000292148
-3.79461e-07
0.000292477
-3.29214e-07
0.000292756
-2.7896e-07
0.000292984
-2.28714e-07
0.000293163
-1.78489e-07
0.000293291
-1.28298e-07
0.000293369
-7.81546e-08
0.000293397
-2.80721e-08
0.000293375
2.19372e-08
0.000293304
7.18606e-08
0.000293182
1.21686e-07
0.000293011
1.71401e-07
0.00029279
2.20994e-07
0.000292519
2.70454e-07
0.000292199
3.19768e-07
0.00029183
3.68926e-07
0.000291412
4.17916e-07
0.000290946
4.66727e-07
0.00029043
5.15349e-07
0.000289867
5.63771e-07
0.000289255
6.11981e-07
0.000288595
6.59971e-07
0.000287887
7.07728e-07
0.000287132
7.55244e-07
0.000286329
8.02507e-07
0.00028548
8.49507e-07
0.000284583
8.96235e-07
0.000283641
9.42681e-07
0.000282652
9.88833e-07
0.000281617
1.03468e-06
0.000280537
1.08022e-06
0.000279412
1.12544e-06
0.000278241
1.17032e-06
0.000277026
1.21487e-06
0.000275767
1.25906e-06
0.000274464
1.30289e-06
0.000273118
1.34635e-06
0.000271729
1.38943e-06
0.000270297
1.43213e-06
0.000268822
1.47442e-06
0.000267306
1.51631e-06
0.000265748
1.55778e-06
0.000264149
1.59883e-06
0.00026251
1.63944e-06
0.00026083
1.67961e-06
0.000259111
1.71933e-06
0.000257352
1.75859e-06
0.000255555
1.79739e-06
0.000253719
1.83571e-06
0.000251846
1.87354e-06
0.000249935
1.91088e-06
0.000247987
1.94773e-06
0.000246003
1.98407e-06
0.000243983
2.0199e-06
0.000241928
2.05522e-06
0.000239838
2.09001e-06
0.000237713
2.12427e-06
0.000235556
2.15799e-06
0.000233364
2.19117e-06
0.000231141
2.22381e-06
0.000228885
2.2559e-06
0.000226597
2.28743e-06
0.000224279
2.31841e-06
0.00022193
2.34882e-06
0.000219551
2.37867e-06
0.000217143
2.40796e-06
0.000214707
2.43668e-06
0.000212242
2.46482e-06
0.000209749
2.4924e-06
0.00020723
2.5194e-06
0.000204684
2.54584e-06
0.000202112
2.57169e-06
0.000199516
2.59698e-06
0.000196894
2.6217e-06
0.000194248
2.64584e-06
0.000191579
2.66942e-06
0.000188886
2.69244e-06
0.000186171
2.71488e-06
0.000183434
2.73677e-06
0.000180676
2.7581e-06
0.000177897
2.77888e-06
0.000175098
2.79911e-06
0.00017228
2.8188e-06
0.000169442
2.83794e-06
0.000166585
2.85655e-06
0.00016371
2.87463e-06
0.000160818
2.89218e-06
0.000157909
2.90922e-06
0.000154983
2.92574e-06
0.000152042
2.94176e-06
0.000149084
2.95729e-06
0.000146112
2.97232e-06
0.000143125
2.98686e-06
0.000140124
3.00093e-06
0.00013711
3.01453e-06
0.000134082
3.02767e-06
0.000131042
3.04035e-06
0.000127989
3.05259e-06
0.000124925
3.0644e-06
0.000121849
3.07577e-06
0.000118762
3.08672e-06
0.000115665
3.09726e-06
0.000112557
3.10739e-06
0.00010944
3.11712e-06
0.000106314
3.12647e-06
0.000103178
3.13544e-06
0.000100034
3.14403e-06
9.68821e-05
3.15227e-06
9.3722e-05
3.16014e-06
9.05543e-05
3.16767e-06
8.73795e-05
3.17486e-06
8.41978e-05
3.18171e-06
8.10095e-05
3.18825e-06
7.7815e-05
3.19446e-06
7.46147e-05
3.20036e-06
7.14087e-05
3.20596e-06
6.81975e-05
3.21127e-06
6.49812e-05
3.21628e-06
6.17602e-05
3.22102e-06
5.85347e-05
3.22547e-06
5.5305e-05
3.22965e-06
5.20715e-05
3.23357e-06
4.88342e-05
3.23723e-06
4.55936e-05
3.24064e-06
4.23498e-05
3.24379e-06
3.91031e-05
3.2467e-06
3.58537e-05
3.24937e-06
3.26019e-05
3.2518e-06
2.93479e-05
3.254e-06
2.60919e-05
3.25597e-06
2.28342e-05
3.25771e-06
1.9575e-05
3.25923e-06
1.63145e-05
3.26053e-06
1.30529e-05
3.26161e-06
9.7904e-06
3.26247e-06
6.52729e-06
3.26311e-06
3.26375e-06
3.26354e-06
3.26375e-06
3.37678e-06
-6.75334e-06
6.75333e-06
-6.75289e-06
1.01294e-05
-6.75198e-06
1.35049e-05
-6.75063e-06
1.68794e-05
-6.74882e-06
2.02528e-05
-6.74654e-06
2.36248e-05
-6.74381e-06
2.69952e-05
-6.74061e-06
3.03638e-05
-6.73693e-06
3.37303e-05
-6.73276e-06
3.70945e-05
-6.72811e-06
4.04561e-05
-6.72296e-06
4.38149e-05
-6.71731e-06
4.71706e-05
-6.71113e-06
5.05229e-05
-6.70443e-06
5.38716e-05
-6.69719e-06
5.72165e-05
-6.6894e-06
6.05571e-05
-6.68104e-06
6.38933e-05
-6.6721e-06
6.72248e-05
-6.66257e-06
7.05511e-05
-6.65243e-06
7.38721e-05
-6.64167e-06
7.71874e-05
-6.63026e-06
8.04967e-05
-6.6182e-06
8.37996e-05
-6.60547e-06
8.70958e-05
-6.59204e-06
9.03849e-05
-6.57791e-06
9.36666e-05
-6.56304e-06
9.69405e-05
-6.54743e-06
0.000100206
-6.53105e-06
0.000103463
-6.51389e-06
0.000106712
-6.49591e-06
0.00010995
-6.47711e-06
0.000113179
-6.45746e-06
0.000116398
-6.43694e-06
0.000119606
-6.41553e-06
0.000122803
-6.39321e-06
0.000125988
-6.36995e-06
0.000129161
-6.34575e-06
0.000132322
-6.32057e-06
0.000135469
-6.29439e-06
0.000138603
-6.2672e-06
0.000141723
-6.23898e-06
0.000144828
-6.20969e-06
0.000147918
-6.17934e-06
0.000150992
-6.14789e-06
0.00015405
-6.11532e-06
0.000157091
-6.08162e-06
0.000160115
-6.04677e-06
0.00016312
-6.01075e-06
0.000166107
-5.97355e-06
0.000169075
-5.93515e-06
0.000172023
-5.89552e-06
0.000174951
-5.85467e-06
0.000177858
-5.81257e-06
0.000180743
-5.76922e-06
0.000183605
-5.72459e-06
0.000186445
-5.67869e-06
0.000189261
-5.63149e-06
0.000192053
-5.58299e-06
0.00019482
-5.53319e-06
0.000197561
-5.48207e-06
0.000200276
-5.42962e-06
0.000202964
-5.37586e-06
0.000205625
-5.32076e-06
0.000208258
-5.26434e-06
0.000210861
-5.20658e-06
0.000213435
-5.1475e-06
0.000215979
-5.08709e-06
0.000218492
-5.02535e-06
0.000220974
-4.96229e-06
0.000223423
-4.89792e-06
0.000225839
-4.83224e-06
0.000228222
-4.76526e-06
0.000230571
-4.69699e-06
0.000232885
-4.62745e-06
0.000235164
-4.55664e-06
0.000237406
-4.48459e-06
0.000239612
-4.41129e-06
0.000241781
-4.33678e-06
0.000243912
-4.26107e-06
0.000246004
-4.18418e-06
0.000248058
-4.10612e-06
0.000250071
-4.02693e-06
0.000252045
-3.94662e-06
0.000253978
-3.86521e-06
0.00025587
-3.78273e-06
0.000257719
-3.69922e-06
0.000259527
-3.61468e-06
0.000261292
-3.52915e-06
0.000263013
-3.44266e-06
0.000264691
-3.35524e-06
0.000266325
-3.26692e-06
0.000267914
-3.17772e-06
0.000269458
-3.08768e-06
0.000270957
-2.99683e-06
0.000272409
-2.9052e-06
0.000273816
-2.81282e-06
0.000275176
-2.71973e-06
0.000276489
-2.62596e-06
0.000277755
-2.53154e-06
0.000278973
-2.43651e-06
0.000280144
-2.3409e-06
0.000281267
-2.24473e-06
0.000282341
-2.14806e-06
0.000283366
-2.0509e-06
0.000284343
-1.9533e-06
0.000285271
-1.85528e-06
0.000286149
-1.75688e-06
0.000286978
-1.65813e-06
0.000287758
-1.55906e-06
0.000288488
-1.45972e-06
0.000289168
-1.36011e-06
0.000289798
-1.26029e-06
0.000290378
-1.16028e-06
0.000290909
-1.06011e-06
0.000291388
-9.59814e-07
0.000291818
-8.59416e-07
0.000292198
-7.58948e-07
0.000292527
-6.58439e-07
0.000292806
-5.57918e-07
0.000293035
-4.57411e-07
0.000293213
-3.56947e-07
0.000293341
-2.56553e-07
0.000293419
-1.56253e-07
0.000293447
-5.60754e-08
0.000293425
4.39555e-08
0.000293353
1.43815e-07
0.000293232
2.43477e-07
0.00029306
3.4292e-07
0.000292839
4.42118e-07
0.000292568
5.41048e-07
0.000292248
6.39688e-07
0.000291879
7.38015e-07
0.000291461
8.36006e-07
0.000290994
9.3364e-07
0.000290479
1.03089e-06
0.000289915
1.12775e-06
0.000289303
1.22418e-06
0.000288642
1.32017e-06
0.000287935
1.41569e-06
0.000287179
1.51074e-06
0.000286376
1.60527e-06
0.000285526
1.69928e-06
0.00028463
1.79275e-06
0.000283687
1.88565e-06
0.000282698
1.97797e-06
0.000281663
2.06968e-06
0.000280582
2.16076e-06
0.000279457
2.2512e-06
0.000278286
2.34098e-06
0.000277071
2.43008e-06
0.000275811
2.51847e-06
0.000274508
2.60614e-06
0.000273161
2.69308e-06
0.000271771
2.77925e-06
0.000270339
2.86465e-06
0.000268864
2.94925e-06
0.000267347
3.03303e-06
0.000265789
3.11599e-06
0.00026419
3.19809e-06
0.00026255
3.27932e-06
0.00026087
3.35967e-06
0.00025915
3.43912e-06
0.000257391
3.51765e-06
0.000255593
3.59525e-06
0.000253757
3.67189e-06
0.000251883
3.74757e-06
0.000249972
3.82227e-06
0.000248023
3.89597e-06
0.000246039
3.96866e-06
0.000244018
4.04033e-06
0.000241963
4.11096e-06
0.000239872
4.18054e-06
0.000237747
4.24906e-06
0.000235589
4.31652e-06
0.000233397
4.38289e-06
0.000231173
4.44817e-06
0.000228916
4.51235e-06
0.000226628
4.57542e-06
0.000224309
4.63737e-06
0.00022196
4.69821e-06
0.000219581
4.75791e-06
0.000217172
4.81649e-06
0.000214735
4.87392e-06
0.00021227
4.93022e-06
0.000209777
4.98537e-06
0.000207257
5.03938e-06
0.00020471
5.09224e-06
0.000202138
5.14396e-06
0.00019954
5.19454e-06
0.000196918
5.24397e-06
0.000194272
5.29226e-06
0.000191602
5.33941e-06
0.000188909
5.38543e-06
0.000186193
5.43033e-06
0.000183456
5.4741e-06
0.000180697
5.51676e-06
0.000177918
5.55832e-06
0.000175118
5.59877e-06
0.000172299
5.63813e-06
0.00016946
5.67641e-06
0.000166603
5.71363e-06
0.000163728
5.74978e-06
0.000160835
5.78488e-06
0.000157926
5.81895e-06
0.000154999
5.85199e-06
0.000152057
5.88403e-06
0.000149099
5.91506e-06
0.000146127
5.94512e-06
0.000143139
5.9742e-06
0.000140138
6.00233e-06
0.000137123
6.02953e-06
0.000134095
6.0558e-06
0.000131054
6.08116e-06
0.000128001
6.10563e-06
0.000124936
6.12922e-06
0.00012186
6.15196e-06
0.000118773
6.17385e-06
0.000115675
6.19492e-06
0.000112567
6.21518e-06
0.00010945
6.23464e-06
0.000106323
6.25333e-06
0.000103187
6.27125e-06
0.000100043
6.28844e-06
9.68901e-05
6.30489e-06
9.37296e-05
6.32064e-06
9.05616e-05
6.33568e-06
8.73864e-05
6.35005e-06
8.42044e-05
6.36376e-06
8.10158e-05
6.37681e-06
7.7821e-05
6.38923e-06
7.46204e-05
6.40103e-06
7.14141e-05
6.41223e-06
6.82025e-05
6.42283e-06
6.4986e-05
6.43285e-06
6.17647e-05
6.44231e-06
5.85389e-05
6.45121e-06
5.5309e-05
6.45958e-06
5.20752e-05
6.46741e-06
4.88377e-05
6.47472e-06
4.55968e-05
6.48153e-06
4.23528e-05
6.48783e-06
3.91058e-05
6.49365e-06
3.58562e-05
6.49898e-06
3.26042e-05
6.50384e-06
2.93499e-05
6.50824e-06
2.60937e-05
6.51217e-06
2.28358e-05
6.51565e-06
1.95763e-05
6.51869e-06
1.63156e-05
6.52128e-06
1.30537e-05
6.52344e-06
9.79105e-06
6.52516e-06
6.52772e-06
6.52644e-06
3.26396e-06
6.52729e-06
6.52771e-06
3.37723e-06
-1.01306e-05
6.75424e-06
-1.01299e-05
1.01308e-05
-1.01285e-05
1.35067e-05
-1.01265e-05
1.68817e-05
-1.01238e-05
2.02555e-05
-1.01204e-05
2.3628e-05
-1.01163e-05
2.69989e-05
-1.01115e-05
3.0368e-05
-1.0106e-05
3.3735e-05
-1.00998e-05
3.70996e-05
-1.00928e-05
4.04618e-05
-1.00851e-05
4.38211e-05
-1.00766e-05
4.71773e-05
-1.00674e-05
5.05302e-05
-1.00573e-05
5.38795e-05
-1.00465e-05
5.72249e-05
-1.00348e-05
6.05661e-05
-1.00223e-05
6.39029e-05
-1.00089e-05
6.72349e-05
-9.99461e-06
7.05619e-05
-9.97942e-06
7.38836e-05
-9.9633e-06
7.71995e-05
-9.94621e-06
8.05095e-05
-9.92815e-06
8.38131e-05
-9.90907e-06
8.711e-05
-9.88895e-06
9.03998e-05
-9.86777e-06
9.36823e-05
-9.8455e-06
9.6957e-05
-9.82211e-06
0.000100223
-9.79756e-06
0.000103481
-9.77184e-06
0.00010673
-9.7449e-06
0.00010997
-9.71672e-06
0.0001132
-9.68727e-06
0.000116419
-9.65652e-06
0.000119628
-9.62443e-06
0.000122826
-9.59097e-06
0.000126012
-9.55612e-06
0.000129186
-9.51984e-06
0.000132348
-9.48209e-06
0.000135496
-9.44286e-06
0.000138631
-9.4021e-06
0.000141752
-9.35978e-06
0.000144858
-9.31589e-06
0.000147949
-9.27038e-06
0.000151025
-9.22322e-06
0.000154084
-9.17439e-06
0.000157126
-9.12387e-06
0.000160151
-9.07162e-06
0.000163158
-9.01761e-06
0.000166146
-8.96183e-06
0.000169115
-8.90424e-06
0.000172064
-8.84483e-06
0.000174993
-8.78356e-06
0.000177901
-8.72043e-06
0.000180787
-8.65542e-06
0.000183651
-8.58849e-06
0.000186492
-8.51965e-06
0.000189309
-8.44886e-06
0.000192103
-8.37612e-06
0.000194871
-8.30142e-06
0.000197614
-8.22475e-06
0.00020033
-8.14609e-06
0.00020302
-8.06545e-06
0.000205682
-7.98281e-06
0.000208315
-7.89817e-06
0.00021092
-7.81154e-06
0.000213496
-7.72291e-06
0.000216041
-7.63229e-06
0.000218555
-7.53967e-06
0.000221038
-7.44508e-06
0.000223489
-7.34851e-06
0.000225906
-7.24998e-06
0.000228291
-7.1495e-06
0.000230641
-7.04709e-06
0.000232956
-6.94276e-06
0.000235236
-6.83653e-06
0.00023748
-6.72842e-06
0.000239687
-6.61846e-06
0.000241857
-6.50667e-06
0.000243989
-6.39308e-06
0.000246082
-6.27772e-06
0.000248137
-6.16061e-06
0.000250152
-6.04179e-06
0.000252126
-5.92129e-06
0.00025406
-5.79915e-06
0.000255953
-5.67541e-06
0.000257804
-5.55009e-06
0.000259613
-5.42326e-06
0.000261378
-5.29493e-06
0.000263101
-5.16516e-06
0.00026478
-5.03399e-06
0.000266414
-4.90147e-06
0.000268004
-4.76763e-06
0.000269549
-4.63253e-06
0.000271048
-4.49622e-06
0.000272502
-4.35873e-06
0.000273909
-4.22013e-06
0.00027527
-4.08045e-06
0.000276584
-3.93975e-06
0.00027785
-3.79808e-06
0.000279069
-3.65549e-06
0.00028024
-3.51203e-06
0.000281363
-3.36774e-06
0.000282438
-3.22269e-06
0.000283464
-3.07691e-06
0.000284441
-2.93046e-06
0.000285369
-2.78339e-06
0.000286248
-2.63575e-06
0.000287078
-2.48759e-06
0.000287857
-2.33895e-06
0.000288588
-2.18989e-06
0.000289268
-2.04045e-06
0.000289898
-1.89068e-06
0.000290479
-1.74062e-06
0.000291009
-1.59033e-06
0.000291489
-1.43984e-06
0.000291919
-1.28921e-06
0.000292298
-1.13847e-06
0.000292627
-9.87675e-07
0.000292906
-8.36858e-07
0.000293135
-6.86064e-07
0.000293313
-5.35335e-07
0.000293442
-3.8471e-07
0.00029352
-2.34228e-07
0.000293547
-8.39298e-08
0.000293525
6.61479e-08
0.000293453
2.15967e-07
0.000293331
3.65491e-07
0.000293159
5.14684e-07
0.000292938
6.63511e-07
0.000292667
8.11935e-07
0.000292347
9.59923e-07
0.000291977
1.10744e-06
0.000291559
1.25446e-06
0.000291092
1.40093e-06
0.000290576
1.54684e-06
0.000290011
1.69215e-06
0.000289399
1.83682e-06
0.000288738
1.98083e-06
0.00028803
2.12415e-06
0.000287274
2.26673e-06
0.00028647
2.40856e-06
0.00028562
2.54961e-06
0.000284723
2.68983e-06
0.000283779
2.82921e-06
0.00028279
2.9677e-06
0.000281754
3.10529e-06
0.000280673
3.24195e-06
0.000279546
3.37764e-06
0.000278375
3.51233e-06
0.000277159
3.646e-06
0.000275899
3.77861e-06
0.000274595
3.91014e-06
0.000273247
4.04056e-06
0.000271857
4.16985e-06
0.000270424
4.29796e-06
0.000268948
4.42489e-06
0.00026743
4.55059e-06
0.000265871
4.67504e-06
0.000264271
4.79822e-06
0.00026263
4.92009e-06
0.000260949
5.04064e-06
0.000259229
5.15983e-06
0.000257469
5.27765e-06
0.00025567
5.39406e-06
0.000253833
5.50904e-06
0.000251958
5.62258e-06
0.000250045
5.73464e-06
0.000248096
5.84521e-06
0.00024611
5.95427e-06
0.000244089
6.06178e-06
0.000242032
6.16775e-06
0.000239941
6.27214e-06
0.000237815
6.37493e-06
0.000235655
6.47613e-06
0.000233462
6.57569e-06
0.000231237
6.67363e-06
0.000228979
6.76991e-06
0.00022669
6.86452e-06
0.00022437
6.95746e-06
0.00022202
7.04872e-06
0.000219639
7.13829e-06
0.00021723
7.22615e-06
0.000214791
7.31231e-06
0.000212325
7.39676e-06
0.000209831
7.47949e-06
0.000207309
7.5605e-06
0.000204762
7.6398e-06
0.000202188
7.71737e-06
0.00019959
7.79323e-06
0.000196966
7.86737e-06
0.000194319
7.93981e-06
0.000191648
8.01053e-06
0.000188954
8.07956e-06
0.000186237
8.1469e-06
0.000183499
8.21255e-06
0.000180739
8.27653e-06
0.000177958
8.33885e-06
0.000175158
8.39952e-06
0.000172337
8.45855e-06
0.000169498
8.51596e-06
0.000166639
8.57176e-06
0.000163763
8.62598e-06
0.000160869
8.67862e-06
0.000157959
8.7297e-06
0.000155031
8.77925e-06
0.000152088
8.82729e-06
0.000149129
8.87383e-06
0.000146156
8.91889e-06
0.000143167
8.9625e-06
0.000140165
9.00467e-06
0.000137149
9.04544e-06
0.00013412
9.08483e-06
0.000131078
9.12285e-06
0.000128024
9.15954e-06
0.000124959
9.19491e-06
0.000121882
9.22899e-06
0.000118794
9.26181e-06
0.000115695
9.29339e-06
0.000112587
9.32375e-06
0.000109468
9.35293e-06
0.000106341
9.38094e-06
0.000103204
9.40781e-06
0.000100059
9.43356e-06
9.69058e-05
9.45823e-06
9.37446e-05
9.48182e-06
9.05759e-05
9.50438e-06
8.74001e-05
9.52591e-06
8.42174e-05
9.54645e-06
8.10282e-05
9.56601e-06
7.78328e-05
9.58462e-06
7.46315e-05
9.60231e-06
7.14247e-05
9.61908e-06
6.82125e-05
9.63497e-06
6.49954e-05
9.64999e-06
6.17736e-05
9.66416e-06
5.85473e-05
9.6775e-06
5.53168e-05
9.69003e-06
5.20825e-05
9.70176e-06
4.88445e-05
9.71272e-06
4.56031e-05
9.72292e-06
4.23586e-05
9.73236e-06
3.91111e-05
9.74107e-06
3.5861e-05
9.74906e-06
3.26085e-05
9.75635e-06
2.93538e-05
9.76293e-06
2.60972e-05
9.76883e-06
2.28388e-05
9.77404e-06
1.95789e-05
9.77859e-06
1.63177e-05
9.78247e-06
1.30555e-05
9.7857e-06
9.79233e-06
9.78828e-06
6.52857e-06
9.7902e-06
3.26439e-06
9.79147e-06
9.79211e-06
3.37791e-06
-1.35085e-05
6.7556e-06
-1.35076e-05
1.01328e-05
-1.35058e-05
1.35094e-05
-1.35031e-05
1.68851e-05
-1.34995e-05
2.02596e-05
-1.34949e-05
2.36328e-05
-1.34895e-05
2.70044e-05
-1.34831e-05
3.03742e-05
-1.34758e-05
3.3742e-05
-1.34675e-05
3.71074e-05
-1.34582e-05
4.04703e-05
-1.3448e-05
4.38304e-05
-1.34367e-05
4.71874e-05
-1.34244e-05
5.05411e-05
-1.3411e-05
5.38912e-05
-1.33966e-05
5.72374e-05
-1.33811e-05
6.05796e-05
-1.33644e-05
6.39172e-05
-1.33466e-05
6.72502e-05
-1.33276e-05
7.05781e-05
-1.33074e-05
7.39007e-05
-1.32859e-05
7.72177e-05
-1.32632e-05
8.05286e-05
-1.32391e-05
8.38333e-05
-1.32137e-05
8.71312e-05
-1.31869e-05
9.04222e-05
-1.31587e-05
9.37058e-05
-1.31291e-05
9.69816e-05
-1.30979e-05
0.000100249
-1.30653e-05
0.000103508
-1.3031e-05
0.000106759
-1.29951e-05
0.00011
-1.29576e-05
0.000113231
-1.29184e-05
0.000116452
-1.28774e-05
0.000119662
-1.28347e-05
0.000122861
-1.27901e-05
0.000126049
-1.27437e-05
0.000129224
-1.26954e-05
0.000132387
-1.26451e-05
0.000135537
-1.25928e-05
0.000138674
-1.25385e-05
0.000141796
-1.24822e-05
0.000144904
-1.24237e-05
0.000147997
-1.23631e-05
0.000151074
-1.23002e-05
0.000154134
-1.22352e-05
0.000157178
-1.21678e-05
0.000160205
-1.20982e-05
0.000163214
-1.20262e-05
0.000166204
-1.19519e-05
0.000169175
-1.18752e-05
0.000172126
-1.1796e-05
0.000175056
-1.17143e-05
0.000177966
-1.16302e-05
0.000180854
-1.15435e-05
0.00018372
-1.14543e-05
0.000186563
-1.13625e-05
0.000189382
-1.12682e-05
0.000192177
-1.11712e-05
0.000194948
-1.10716e-05
0.000197692
-1.09694e-05
0.000200411
-1.08645e-05
0.000203102
-1.0757e-05
0.000205766
-1.06468e-05
0.000208402
-1.0534e-05
0.000211009
-1.04185e-05
0.000213587
-1.03003e-05
0.000216134
-1.01795e-05
0.00021865
-1.0056e-05
0.000221135
-9.92984e-06
0.000223587
-9.80106e-06
0.000226007
-9.66967e-06
0.000228393
-9.53568e-06
0.000230745
-9.3991e-06
0.000233062
-9.25996e-06
0.000235344
-9.11829e-06
0.00023759
-8.97411e-06
0.000239799
-8.82746e-06
0.000241971
-8.67837e-06
0.000244104
-8.52687e-06
0.0002462
-8.373e-06
0.000248256
-8.21681e-06
0.000250272
-8.05833e-06
0.000252249
-7.89761e-06
0.000254184
-7.7347e-06
0.000256079
-7.56964e-06
0.000257931
-7.4025e-06
0.000259741
-7.23332e-06
0.000261508
-7.06215e-06
0.000263232
-6.88906e-06
0.000264912
-6.7141e-06
0.000266548
-6.53732e-06
0.000268139
-6.3588e-06
0.000269685
-6.1786e-06
0.000271186
-5.99677e-06
0.000272641
-5.81338e-06
0.000274049
-5.6285e-06
0.000275411
-5.44219e-06
0.000276725
-5.25451e-06
0.000277993
-5.06554e-06
0.000279213
-4.87534e-06
0.000280385
-4.68398e-06
0.000281508
-4.49152e-06
0.000282584
-4.29804e-06
0.00028361
-4.10359e-06
0.000284588
-3.90825e-06
0.000285517
-3.71208e-06
0.000286396
-3.51515e-06
0.000287226
-3.31752e-06
0.000288007
-3.11926e-06
0.000288737
-2.92044e-06
0.000289418
-2.72111e-06
0.000290048
-2.52134e-06
0.000290629
-2.3212e-06
0.000291159
-2.12074e-06
0.00029164
-1.92002e-06
0.00029207
-1.71911e-06
0.000292449
-1.51806e-06
0.000292778
-1.31693e-06
0.000293057
-1.11577e-06
0.000293286
-9.1465e-07
0.000293464
-7.13615e-07
0.000293592
-5.1272e-07
0.00029367
-3.12018e-07
0.000293698
-1.1156e-07
0.000293675
8.86015e-08
0.000293603
2.88418e-07
0.00029348
4.8784e-07
0.000293308
6.86819e-07
0.000293086
8.85308e-07
0.000292815
1.08326e-06
0.000292494
1.28063e-06
0.000292124
1.47737e-06
0.000291705
1.67344e-06
0.000291238
1.8688e-06
0.000290721
2.06339e-06
0.000290156
2.25719e-06
0.000289543
2.45013e-06
0.000288881
2.6422e-06
0.000288172
2.83333e-06
0.000287415
3.02349e-06
0.000286611
3.21265e-06
0.00028576
3.40075e-06
0.000284862
3.58776e-06
0.000283918
3.77364e-06
0.000282927
3.95835e-06
0.000281891
4.14185e-06
0.000280808
4.3241e-06
0.000279681
4.50507e-06
0.000278509
4.6847e-06
0.000277292
4.86297e-06
0.00027603
5.03983e-06
0.000274725
5.21525e-06
0.000273377
5.38919e-06
0.000271985
5.56161e-06
0.00027055
5.73248e-06
0.000269073
5.90175e-06
0.000267555
6.0694e-06
0.000265994
6.23537e-06
0.000264393
6.39965e-06
0.000262751
6.56219e-06
0.000261069
6.72296e-06
0.000259346
6.88192e-06
0.000257585
7.03905e-06
0.000255785
7.1943e-06
0.000253946
7.34765e-06
0.00025207
7.49906e-06
0.000250156
7.64852e-06
0.000248205
7.79597e-06
0.000246218
7.94141e-06
0.000244195
8.0848e-06
0.000242137
8.22611e-06
0.000240043
8.36532e-06
0.000237916
8.50241e-06
0.000235755
8.63736e-06
0.00023356
8.77014e-06
0.000231333
8.90074e-06
0.000229074
9.02913e-06
0.000226783
9.1553e-06
0.000224461
9.27924e-06
0.000222109
9.40093e-06
0.000219727
9.52036e-06
0.000217316
9.63753e-06
0.000214876
9.75241e-06
0.000212407
9.86501e-06
0.000209911
9.97532e-06
0.000207389
1.00833e-05
0.000204839
1.01891e-05
0.000202264
1.02925e-05
0.000199664
1.03936e-05
0.000197039
1.04925e-05
0.000194389
1.05891e-05
0.000191717
1.06834e-05
0.000189021
1.07754e-05
0.000186303
1.08651e-05
0.000183562
1.09527e-05
0.000180801
1.1038e-05
0.000178019
1.1121e-05
0.000175216
1.12019e-05
0.000172394
1.12806e-05
0.000169553
1.13571e-05
0.000166694
1.14315e-05
0.000163816
1.15037e-05
0.00016092
1.15739e-05
0.000158008
1.1642e-05
0.000155079
1.1708e-05
0.000152135
1.1772e-05
0.000149174
1.18341e-05
0.000146199
1.18941e-05
0.000143209
1.19522e-05
0.000140206
1.20084e-05
0.000137188
1.20627e-05
0.000134158
1.21152e-05
0.000131115
1.21659e-05
0.00012806
1.22148e-05
0.000124993
1.22619e-05
0.000121914
1.23073e-05
0.000118825
1.2351e-05
0.000115726
1.23931e-05
0.000112616
1.24335e-05
0.000109496
1.24724e-05
0.000106368
1.25097e-05
0.00010323
1.25455e-05
0.000100084
1.25798e-05
9.69294e-05
1.26126e-05
9.37671e-05
1.26441e-05
9.05974e-05
1.26741e-05
8.74206e-05
1.27028e-05
8.42369e-05
1.27301e-05
8.10468e-05
1.27562e-05
7.78504e-05
1.27809e-05
7.46483e-05
1.28045e-05
7.14405e-05
1.28268e-05
6.82275e-05
1.2848e-05
6.50095e-05
1.2868e-05
6.17869e-05
1.28868e-05
5.85598e-05
1.29046e-05
5.53285e-05
1.29213e-05
5.20934e-05
1.29369e-05
4.88546e-05
1.29515e-05
4.56125e-05
1.2965e-05
4.23672e-05
1.29776e-05
3.91191e-05
1.29892e-05
3.58683e-05
1.29999e-05
3.26151e-05
1.30095e-05
2.93597e-05
1.30183e-05
2.61024e-05
1.30262e-05
2.28433e-05
1.30331e-05
1.95828e-05
1.30391e-05
1.63209e-05
1.30443e-05
1.3058e-05
1.30486e-05
9.79426e-06
1.3052e-05
6.52986e-06
1.30546e-05
3.26503e-06
1.30563e-05
1.30571e-05
3.37881e-06
-1.68873e-05
6.75741e-06
-1.68862e-05
1.01356e-05
-1.68839e-05
1.3513e-05
-1.68806e-05
1.68896e-05
-1.68761e-05
2.02651e-05
-1.68704e-05
2.36392e-05
-1.68636e-05
2.70118e-05
-1.68557e-05
3.03826e-05
-1.68465e-05
3.37513e-05
-1.68362e-05
3.71177e-05
-1.68246e-05
4.04816e-05
-1.68119e-05
4.38427e-05
-1.67978e-05
4.72008e-05
-1.67825e-05
5.05556e-05
-1.67658e-05
5.39068e-05
-1.67478e-05
5.72542e-05
-1.67284e-05
6.05974e-05
-1.67077e-05
6.39363e-05
-1.66854e-05
6.72705e-05
-1.66617e-05
7.05997e-05
-1.66365e-05
7.39235e-05
-1.66098e-05
7.72418e-05
-1.65814e-05
8.05541e-05
-1.65514e-05
8.38601e-05
-1.65197e-05
8.71595e-05
-1.64863e-05
9.04519e-05
-1.64512e-05
9.3737e-05
-1.64142e-05
9.70144e-05
-1.63753e-05
0.000100284
-1.63345e-05
0.000103544
-1.62918e-05
0.000106796
-1.6247e-05
0.000110039
-1.62002e-05
0.000113272
-1.61513e-05
0.000116494
-1.61001e-05
0.000119707
-1.60468e-05
0.000122908
-1.59912e-05
0.000126097
-1.59332e-05
0.000129275
-1.58729e-05
0.00013244
-1.58101e-05
0.000135592
-1.57449e-05
0.00013873
-1.56771e-05
0.000141855
-1.56067e-05
0.000144965
-1.55337e-05
0.00014806
-1.54579e-05
0.000151139
-1.53795e-05
0.000154202
-1.52982e-05
0.000157248
-1.52141e-05
0.000160277
-1.51272e-05
0.000163288
-1.50373e-05
0.000166281
-1.49444e-05
0.000169254
-1.48485e-05
0.000172208
-1.47496e-05
0.000175141
-1.46476e-05
0.000178053
-1.45425e-05
0.000180944
-1.44342e-05
0.000183812
-1.43227e-05
0.000186658
-1.4208e-05
0.000189479
-1.40901e-05
0.000192277
-1.39689e-05
0.00019505
-1.38445e-05
0.000197797
-1.37167e-05
0.000200518
-1.35857e-05
0.000203213
-1.34513e-05
0.000205879
-1.33136e-05
0.000208518
-1.31725e-05
0.000211128
-1.30281e-05
0.000213708
-1.28804e-05
0.000216257
-1.27293e-05
0.000218776
-1.25749e-05
0.000221264
-1.24172e-05
0.000223719
-1.22562e-05
0.000226141
-1.2092e-05
0.00022853
-1.19244e-05
0.000230885
-1.17537e-05
0.000233204
-1.15797e-05
0.000235489
-1.14026e-05
0.000237737
-1.12223e-05
0.000239948
-1.10389e-05
0.000242122
-1.08525e-05
0.000244258
-1.0663e-05
0.000246356
-1.04706e-05
0.000248415
-1.02753e-05
0.000250433
-1.00771e-05
0.000252412
-9.87612e-06
0.000254349
-9.67238e-06
0.000256246
-9.46597e-06
0.0002581
-9.25694e-06
0.000259912
-9.04536e-06
0.000261681
-8.8313e-06
0.000263407
-8.61482e-06
0.000265089
-8.39601e-06
0.000266727
-8.17493e-06
0.00026832
-7.95166e-06
0.000269867
-7.72629e-06
0.000271369
-7.49888e-06
0.000272826
-7.26952e-06
0.000274235
-7.0383e-06
0.000275598
-6.80529e-06
0.000276914
-6.57057e-06
0.000278183
-6.33423e-06
0.000279404
-6.09635e-06
0.000280577
-5.85702e-06
0.000281702
-5.61633e-06
0.000282778
-5.37434e-06
0.000283806
-5.13116e-06
0.000284785
-4.88686e-06
0.000285714
-4.64152e-06
0.000286594
-4.39523e-06
0.000287425
-4.14808e-06
0.000288205
-3.90013e-06
0.000288937
-3.65148e-06
0.000289618
-3.40221e-06
0.000290249
-3.15238e-06
0.00029083
-2.90209e-06
0.00029136
-2.6514e-06
0.000291841
-2.40039e-06
0.000292271
-2.14914e-06
0.00029265
-1.89772e-06
0.00029298
-1.6462e-06
0.000293258
-1.39465e-06
0.000293487
-1.14315e-06
0.000293665
-8.91751e-07
0.000293793
-6.40534e-07
0.00029387
-3.89559e-07
0.000293898
-1.38892e-07
0.000293875
1.11404e-07
0.000293802
3.61266e-07
0.000293679
6.10634e-07
0.000293507
8.59447e-07
0.000293284
1.10765e-06
0.000293012
1.35517e-06
0.000292691
1.60197e-06
0.00029232
1.84798e-06
0.000291901
2.09315e-06
0.000291432
2.33743e-06
0.000290915
2.58075e-06
0.000290349
2.82307e-06
0.000289735
3.06433e-06
0.000289072
3.30449e-06
0.000288362
3.54348e-06
0.000287604
3.78126e-06
0.000286799
4.01778e-06
0.000285947
4.25299e-06
0.000285048
4.48683e-06
0.000284102
4.71925e-06
0.000283111
4.95021e-06
0.000282073
5.17966e-06
0.000280989
5.40755e-06
0.000279861
5.63383e-06
0.000278687
5.85844e-06
0.000277468
6.08135e-06
0.000276206
6.3025e-06
0.000274899
6.52185e-06
0.000273549
6.73934e-06
0.000272156
6.95494e-06
0.00027072
7.16859e-06
0.000269241
7.38025e-06
0.000267721
7.58987e-06
0.000266159
7.79741e-06
0.000264555
8.00282e-06
0.000262912
8.20606e-06
0.000261227
8.40708e-06
0.000259503
8.60585e-06
0.00025774
8.80232e-06
0.000255938
8.99644e-06
0.000254098
9.18819e-06
0.000252219
9.37752e-06
0.000250303
9.56438e-06
0.00024835
9.74876e-06
0.000246361
9.9306e-06
0.000244336
1.01099e-05
0.000242276
1.02866e-05
0.00024018
1.04606e-05
0.000238051