/*--------------------------------*- C++ -*----------------------------------*\
| =========                 |                                                 |
| \\      /  F ield         | OpenFOAM: The Open Source CFD Toolbox           |
|  \\    /   O peration     | Version:  v2012                                 |
|   \\  /    A nd           | Website:  www.openfoam.com                      |
|    \\/     M anipulation  |                                                 |
\*---------------------------------------------------------------------------*/
FoamFile
{
    version     2.0;
    format      ascii;
    class       volScalarField;
    location    "1";
    object      Psi_z;
}
// * * * * * * * * * * * * * * * * * * * * * * * * * * * * * * * * * * * * * //

dimensions      [0 2 -1 0 0 0 0];


internalField   nonuniform List<scalar> 
65536
(
8.45919e-06
2.53769e-05
4.22929e-05
5.92061e-05
7.61154e-05
9.30195e-05
0.000109917
0.000126808
0.00014369
0.000160562
0.000177423
0.000194271
0.000211107
0.000227927
0.000244731
0.000261518
0.000278286
0.000295034
0.00031176
0.000328463
0.000345141
0.000361794
0.000378418
0.000395013
0.000411577
0.000428108
0.000444605
0.000461065
0.000477488
0.00049387
0.000510209
0.000526505
0.000542755
0.000558957
0.000575108
0.000591206
0.00060725
0.000623236
0.000639163
0.000655028
0.000670829
0.000686562
0.000702226
0.000717818
0.000733334
0.000748773
0.000764132
0.000779407
0.000794597
0.000809697
0.000824705
0.000839618
0.000854433
0.000869147
0.000883756
0.000898259
0.00091265
0.000926928
0.000941088
0.000955128
0.000969045
0.000982834
0.000996493
0.00101002
0.00102341
0.00103666
0.00104976
0.00106272
0.00107552
0.00108818
0.00110067
0.00111301
0.00112518
0.00113719
0.00114902
0.00116068
0.00117217
0.00118347
0.00119459
0.00120553
0.00121627
0.00122683
0.00123719
0.00124735
0.00125731
0.00126707
0.00127662
0.00128596
0.00129509
0.001304
0.0013127
0.00132118
0.00132944
0.00133748
0.00134529
0.00135287
0.00136022
0.00136734
0.00137423
0.00138088
0.0013873
0.00139348
0.00139941
0.00140511
0.00141056
0.00141577
0.00142074
0.00142546
0.00142993
0.00143416
0.00143813
0.00144186
0.00144534
0.00144857
0.00145154
0.00145427
0.00145674
0.00145896
0.00146093
0.00146265
0.00146411
0.00146533
0.00146629
0.001467
0.00146745
0.00146766
0.00146762
0.00146732
0.00146678
0.00146599
0.00146495
0.00146366
0.00146212
0.00146034
0.00145831
0.00145604
0.00145352
0.00145077
0.00144777
0.00144453
0.00144105
0.00143733
0.00143338
0.00142919
0.00142477
0.00142012
0.00141523
0.00141012
0.00140478
0.00139921
0.00139342
0.00138741
0.00138117
0.00137472
0.00136805
0.00136116
0.00135407
0.00134676
0.00133924
0.00133151
0.00132358
0.00131544
0.00130711
0.00129858
0.00128985
0.00128093
0.00127181
0.00126251
0.00125302
0.00124335
0.00123349
0.00122346
0.00121325
0.00120286
0.00119231
0.00118158
0.00117069
0.00115964
0.00114843
0.00113706
0.00112553
0.00111386
0.00110203
0.00109006
0.00107794
0.00106568
0.00105329
0.00104076
0.00102809
0.0010153
0.00100238
0.000989339
0.000976175
0.000962893
0.000949496
0.000935986
0.000922367
0.000908641
0.00089481
0.000880878
0.000866847
0.00085272
0.000838499
0.000824188
0.000809788
0.000795303
0.000780735
0.000766086
0.000751359
0.000736556
0.00072168
0.000706734
0.000691718
0.000676637
0.000661492
0.000646284
0.000631018
0.000615694
0.000600314
0.000584882
0.000569398
0.000553865
0.000538285
0.000522659
0.00050699
0.000491279
0.000475528
0.000459739
0.000443914
0.000428053
0.00041216
0.000396235
0.00038028
0.000364296
0.000348286
0.000332249
0.000316189
0.000300106
0.000284001
0.000267876
0.000251733
0.000235572
0.000219395
0.000203202
0.000186996
0.000170777
0.000154547
0.000138306
0.000122057
0.000105799
8.95336e-05
7.32628e-05
5.69871e-05
4.07077e-05
2.44257e-05
8.14207e-06
2.5378e-05
7.61321e-05
0.000126881
0.000177622
0.000228351
0.000279064
0.000329759
0.000380431
0.000431078
0.000481695
0.000532279
0.000582826
0.000633333
0.000683796
0.00073421
0.000784571
0.000834877
0.000885121
0.000935301
0.000985412
0.00103545
0.00108541
0.00113528
0.00118507
0.00123476
0.00128436
0.00133385
0.00138323
0.0014325
0.00148165
0.00153067
0.00157956
0.00162831
0.00167692
0.00172537
0.00177367
0.0018218
0.00186977
0.00191755
0.00196515
0.00201255
0.00205975
0.00210675
0.00215352
0.00220008
0.0022464
0.00229248
0.0023383
0.00238387
0.00242918
0.00247421
0.00251895
0.0025634
0.00260754
0.00265137
0.00269488
0.00273806
0.0027809
0.00282338
0.0028655
0.00290726
0.00294863
0.00298961
0.00303019
0.00307036
0.00311011
0.00314942
0.0031883
0.00322672
0.00326469
0.00330218
0.00333919
0.00337571
0.00341172
0.00344723
0.00348222
0.00351668
0.00355059
0.00358396
0.00361677
0.00364901
0.00368068
0.00371176
0.00374224
0.00377213
0.0038014
0.00383005
0.00385808
0.00388547
0.00391222
0.00393832
0.00396376
0.00398854
0.00401265
0.00403608
0.00405883
0.00408089
0.00410226
0.00412292
0.00414288
0.00416213
0.00418066
0.00419848
0.00421557
0.00423193
0.00424757
0.00426246
0.00427662
0.00429004
0.00430272
0.00431465
0.00432583
0.00433626
0.00434595
0.00435487
0.00436305
0.00437047
0.00437713
0.00438304
0.00438819
0.00439259
0.00439623
0.00439911
0.00440124
0.00440261
0.00440324
0.0044031
0.00440222
0.00440059
0.00439821
0.00439509
0.00439122
0.00438661
0.00438126
0.00437518
0.00436836
0.00436081
0.00435254
0.00434354
0.00433382
0.00432339
0.00431224
0.00430038
0.00428781
0.00427455
0.00426059
0.00424593
0.00423059
0.00421457
0.00419787
0.00418049
0.00416245
0.00414374
0.00412438
0.00410437
0.00408371
0.00406241
0.00404048
0.00401792
0.00399474
0.00397094
0.00394654
0.00392153
0.00389593
0.00386974
0.00384297
0.00381563
0.00378771
0.00375924
0.00373022
0.00370065
0.00367055
0.00363992
0.00360876
0.00357709
0.00354492
0.00351225
0.00347909
0.00344545
0.00341133
0.00337675
0.00334172
0.00330624
0.00327031
0.00323396
0.00319719
0.00316
0.0031224
0.00308441
0.00304603
0.00300727
0.00296814
0.00292865
0.0028888
0.0028486
0.00280807
0.00276721
0.00272603
0.00268453
0.00264274
0.00260064
0.00255826
0.00251559
0.00247265
0.00242945
0.002386
0.00234229
0.00229834
0.00225416
0.00220974
0.00216511
0.00212027
0.00207522
0.00202998
0.00198454
0.00193892
0.00189311
0.00184714
0.001801
0.0017547
0.00170825
0.00166164
0.0016149
0.00156802
0.00152101
0.00147388
0.00142662
0.00137926
0.00133178
0.0012842
0.00123651
0.00118874
0.00114087
0.00109292
0.00104488
0.000996774
0.000948591
0.00090034
0.000852025
0.00080365
0.000755218
0.000706733
0.0006582
0.000609622
0.000561002
0.000512344
0.000463652
0.000414929
0.000366178
0.000317403
0.000268607
0.000219793
0.000170965
0.000122126
7.32787e-05
2.44268e-05
4.22985e-05
0.000126892
0.000211478
0.00029605
0.000380601
0.000465127
0.000549622
0.00063408
0.000718495
0.000802861
0.000887172
0.000971422
0.0010556
0.00113971
0.00122374
0.00130768
0.00139153
0.00147527
0.00155891
0.00164243
0.00172583
0.0018091
0.00189223
0.00197522
0.00205804
0.00214071
0.0022232
0.00230551
0.00238763
0.00246955
0.00255126
0.00263275
0.00271401
0.00279503
0.0028758
0.0029563
0.00303653
0.00311647
0.00319612
0.00327546
0.00335447
0.00343315
0.00351148
0.00358945
0.00366705
0.00374426
0.00382107
0.00389746
0.00397342
0.00404894
0.00412399
0.00419857
0.00427266
0.00434625
0.00441931
0.00449184
0.00456381
0.00463521
0.00470603
0.00477625
0.00484585
0.00491481
0.00498313
0.00505077
0.00511773
0.00518399
0.00524953
0.00531433
0.00537838
0.00544166
0.00550416
0.00556586
0.00562673
0.00568677
0.00574596
0.00580429
0.00586173
0.00591826
0.00597389
0.00602858
0.00608233
0.00613511
0.00618692
0.00623774
0.00628756
0.00633636
0.00638412
0.00643084
0.0064765
0.00652109
0.0065646
0.00660701
0.00664832
0.00668851
0.00672757
0.00676549
0.00680226
0.00683787
0.00687232
0.00690559
0.00693768
0.00696857
0.00699827
0.00702676
0.00705403
0.00708009
0.00710492
0.00712853
0.0071509
0.00717203
0.00719191
0.00721055
0.00722794
0.00724408
0.00725896
0.00727259
0.00728495
0.00729606
0.00730591
0.0073145
0.00732182
0.00732789
0.00733269
0.00733624
0.00733853
0.00733956
0.00733934
0.00733787
0.00733515
0.00733118
0.00732597
0.00731952
0.00731184
0.00730292
0.00729278
0.00728141
0.00726883
0.00725504
0.00724003
0.00722383
0.00720644
0.00718785
0.00716808
0.00714714
0.00712502
0.00710175
0.00707732
0.00705175
0.00702504
0.00699719
0.00696823
0.00693815
0.00690697
0.0068747
0.00684133
0.0068069
0.00677139
0.00673483
0.00669722
0.00665858
0.00661891
0.00657823
0.00653655
0.00649387
0.00645021
0.00640559
0.00636001
0.00631348
0.00626602
0.00621764
0.00616835
0.00611817
0.00606711
0.00601517
0.00596238
0.00590875
0.00585429
0.00579902
0.00574294
0.00568607
0.00562843
0.00557003
0.00551088
0.005451
0.00539041
0.00532911
0.00526711
0.00520445
0.00514112
0.00507714
0.00501253
0.00494731
0.00488147
0.00481505
0.00474805
0.00468049
0.00461238
0.00454373
0.00447456
0.00440489
0.00433472
0.00426407
0.00419296
0.00412139
0.00404938
0.00397694
0.00390408
0.00383083
0.00375718
0.00368315
0.00360876
0.00353402
0.00345893
0.00338351
0.00330777
0.00323173
0.00315538
0.00307875
0.00300184
0.00292467
0.00284724
0.00276957
0.00269166
0.00261352
0.00253516
0.0024566
0.00237784
0.00229888
0.00221975
0.00214044
0.00206096
0.00198133
0.00190155
0.00182162
0.00174156
0.00166137
0.00158106
0.00150064
0.00142011
0.00133948
0.00125875
0.00117794
0.00109705
0.00101608
0.000935046
0.000853946
0.000772788
0.000691579
0.000610324
0.000529029
0.000447698
0.000366338
0.000284955
0.000203552
0.000122137
4.07131e-05
5.92218e-05
0.000177661
0.000296089
0.000414497
0.000532878
0.000651222
0.000769523
0.000887773
0.00100596
0.00112408
0.00124213
0.00136009
0.00147795
0.00159571
0.00171336
0.00183089
0.00194828
0.00206554
0.00218264
0.00229958
0.00241635
0.00253294
0.00264933
0.00276552
0.00288149
0.00299724
0.00311274
0.00322799
0.00334297
0.00345767
0.00357208
0.00368618
0.00379995
0.00391339
0.00402648
0.0041392
0.00425154
0.00436348
0.004475
0.00458609
0.00469673
0.0048069
0.00491658
0.00502576
0.00513442
0.00524253
0.00535008
0.00545705
0.00556341
0.00566916
0.00577425
0.00587869
0.00598244
0.00608548
0.00618779
0.00628935
0.00639013
0.00649012
0.00658929
0.00668762
0.00678508
0.00688165
0.00697731
0.00707204
0.0071658
0.00725859
0.00735037
0.00744112
0.00753081
0.00761943
0.00770695
0.00779335
0.0078786
0.00796268
0.00804557
0.00812724
0.00820768
0.00828685
0.00836475
0.00844134
0.0085166
0.00859053
0.00866308
0.00873425
0.00880401
0.00887234
0.00893923
0.00900466
0.0090686
0.00913105
0.00919197
0.00925137
0.00930921
0.00936549
0.00942019
0.00947329
0.00952478
0.00957466
0.00962289
0.00966949
0.00971442
0.00975768
0.00979927
0.00983916
0.00987736
0.00991384
0.00994862
0.00998167
0.010013
0.0100426
0.0100704
0.0100965
0.0101209
0.0101435
0.0101643
0.0101834
0.0102007
0.0102163
0.01023
0.0102421
0.0102523
0.0102608
0.0102675
0.0102725
0.0102757
0.0102771
0.0102768
0.0102748
0.010271
0.0102654
0.0102581
0.0102491
0.0102383
0.0102258
0.0102116
0.0101957
0.0101781
0.0101587
0.0101377
0.010115
0.0100907
0.0100646
0.010037
0.0100076
0.00997666
0.00994407
0.00990986
0.00987404
0.00983663
0.00979764
0.00975708
0.00971496
0.00967129
0.00962609
0.00957937
0.00953115
0.00948143
0.00943023
0.00937756
0.00932345
0.0092679
0.00921093
0.00915255
0.00909279
0.00903166
0.00896916
0.00890533
0.00884018
0.00877371
0.00870597
0.00863695
0.00856667
0.00849516
0.00842244
0.00834852
0.00827341
0.00819715
0.00811974
0.00804122
0.00796158
0.00788087
0.00779909
0.00771626
0.00763241
0.00754756
0.00746171
0.00737491
0.00728715
0.00719847
0.00710889
0.00701841
0.00692707
0.00683489
0.00674188
0.00664806
0.00655345
0.00645808
0.00636195
0.0062651
0.00616754
0.00606928
0.00597035
0.00587077
0.00577056
0.00566972
0.00556829
0.00546628
0.0053637
0.00526058
0.00515693
0.00505276
0.0049481
0.00484296
0.00473736
0.00463131
0.00452483
0.00441793
0.00431064
0.00420295
0.0040949
0.00398648
0.00387772
0.00376863
0.00365923
0.00354952
0.00343952
0.00332924
0.00321869
0.00310789
0.00299684
0.00288557
0.00277407
0.00266236
0.00255046
0.00243836
0.00232609
0.00221365
0.00210104
0.00198829
0.0018754
0.00176238
0.00164923
0.00153598
0.00142261
0.00130915
0.0011956
0.00108198
0.000968275
0.00085451
0.000740689
0.000626819
0.000512907
0.000398963
0.000284992
0.000171002
5.7002e-05
7.61491e-05
0.000228442
0.00038072
0.000532972
0.00068519
0.000837361
0.000989477
0.00114153
0.0012935
0.00144538
0.00159717
0.00174884
0.0019004
0.00205182
0.0022031
0.00235422
0.00250518
0.00265595
0.00280653
0.0029569
0.00310705
0.00325697
0.00340664
0.00355604
0.00370517
0.003854
0.00400253
0.00415073
0.00429858
0.00444608
0.0045932
0.00473992
0.00488623
0.00503211
0.00517754
0.00532249
0.00546695
0.0056109
0.00575432
0.00589718
0.00603946
0.00618113
0.00632219
0.00646259
0.00660233
0.00674136
0.00687967
0.00701724
0.00715403
0.00729002
0.00742518
0.00755949
0.00769292
0.00782544
0.00795702
0.00808763
0.00821725
0.00834585
0.00847339
0.00859985
0.0087252
0.0088494
0.00897244
0.00909427
0.00921486
0.0093342
0.00945224
0.00956896
0.00968432
0.0097983
0.00991086
0.010022
0.0101316
0.0102398
0.0103464
0.0104514
0.0105549
0.0106567
0.0107569
0.0108554
0.0109522
0.0110473
0.0111406
0.0112322
0.0113219
0.0114098
0.0114958
0.01158
0.0116622
0.0117425
0.0118209
0.0118973
0.0119717
0.0120441
0.0121144
0.0121827
0.0122489
0.0123131
0.0123751
0.012435
0.0124928
0.0125485
0.012602
0.0126533
0.0127024
0.0127493
0.012794
0.0128365
0.0128768
0.0129149
0.0129507
0.0129842
0.0130156
0.0130446
0.0130714
0.0130959
0.0131182
0.0131382
0.0131559
0.0131714
0.0131846
0.0131955
0.0132041
0.0132105
0.0132146
0.0132165
0.0132161
0.0132134
0.0132085
0.0132013
0.013192
0.0131803
0.0131665
0.0131504
0.0131321
0.0131117
0.013089
0.0130641
0.0130371
0.0130079
0.0129766
0.0129431
0.0129075
0.0128698
0.0128299
0.012788
0.012744
0.0126979
0.0126498
0.0125997
0.0125475
0.0124933
0.0124371
0.012379
0.0123189
0.0122569
0.0121929
0.0121271
0.0120594
0.0119898
0.0119183
0.011845
0.0117699
0.0116931
0.0116145
0.0115341
0.011452
0.0113682
0.0112827
0.0111956
0.0111068
0.0110164
0.0109244
0.0108309
0.0107358
0.0106392
0.0105411
0.0104416
0.0103406
0.0102382
0.0101344
0.0100292
0.00992266
0.00981482
0.00970569
0.00959529
0.00948364
0.00937078
0.00925673
0.00914151
0.00902516
0.00890769
0.00878913
0.00866951
0.00854885
0.00842718
0.00830452
0.0081809
0.00805634
0.00793087
0.00780451
0.00767729
0.00754923
0.00742035
0.00729067
0.00716023
0.00702904
0.00689712
0.00676451
0.00663121
0.00649726
0.00636267
0.00622746
0.00609166
0.00595528
0.00581835
0.00568089
0.00554291
0.00540443
0.00526548
0.00512607
0.00498621
0.00484593
0.00470524
0.00456417
0.00442271
0.0042809
0.00413875
0.00399627
0.00385348
0.00371039
0.00356702
0.00342338
0.00327948
0.00313534
0.00299097
0.00284639
0.0027016
0.00255662
0.00241146
0.00226613
0.00212064
0.00197501
0.00182924
0.00168335
0.00153734
0.00139124
0.00124504
0.00109875
0.000952398
0.00080598
0.00065951
0.000512997
0.00036645
0.000219879
7.32947e-05
9.30814e-05
0.000279238
0.000465376
0.000651483
0.000837548
0.00102356
0.0012095
0.00139536
0.00158112
0.00176678
0.00195232
0.00213772
0.00232298
0.00250808
0.002693
0.00287773
0.00306225
0.00324656
0.00343062
0.00361444
0.00379799
0.00398125
0.00416421
0.00434684
0.00452914
0.00471108
0.00489264
0.00507381
0.00525456
0.00543487
0.00561472
0.00579408
0.00597295
0.00615128
0.00632907
0.00650627
0.00668288
0.00685886
0.00703419
0.00720884
0.00738279
0.007556
0.00772844
0.0079001
0.00807093
0.00824092
0.00841002
0.0085782
0.00874545
0.00891171
0.00907697
0.00924118
0.00940431
0.00956634
0.00972722
0.00988692
0.0100454
0.0102026
0.0103586
0.0105132
0.0106665
0.0108183
0.0109688
0.0111177
0.0112652
0.0114111
0.0115554
0.0116982
0.0118392
0.0119786
0.0121162
0.0122521
0.0123862
0.0125184
0.0126488
0.0127772
0.0129037
0.0130282
0.0131508
0.0132712
0.0133896
0.0135058
0.01362
0.0137319
0.0138416
0.0139491
0.0140543
0.0141572
0.0142577
0.0143559
0.0144518
0.0145452
0.0146361
0.0147247
0.0148107
0.0148942
0.0149752
0.0150536
0.0151295
0.0152027
0.0152734
0.0153414
0.0154068
0.0154695
0.0155296
0.015587
0.0156417
0.0156936
0.0157429
0.0157894
0.0158332
0.0158742
0.0159125
0.015948
0.0159808
0.0160108
0.016038
0.0160624
0.0160841
0.016103
0.0161191
0.0161324
0.016143
0.0161508
0.0161558
0.0161581
0.0161576
0.0161543
0.0161483
0.0161395
0.016128
0.0161138
0.0160969
0.0160772
0.0160549
0.0160298
0.0160021
0.0159717
0.0159386
0.0159029
0.0158646
0.0158237
0.0157801
0.015734
0.0156853
0.015634
0.0155802
0.0155239
0.015465
0.0154037
0.0153399
0.0152737
0.015205
0.0151339
0.0150604
0.0149846
0.0149064
0.0148258
0.014743
0.0146579
0.0145705
0.0144809
0.0143891
0.0142951
0.014199
0.0141007
0.0140003
0.0138979
0.0137933
0.0136868
0.0135782
0.0134677
0.0133553
0.0132409
0.0131247
0.0130065
0.0128866
0.0127649
0.0126414
0.0125162
0.0123892
0.0122606
0.0121304
0.0119985
0.0118651
0.0117301
0.0115936
0.0114556
0.0113162
0.0111753
0.011033
0.0108894
0.0107444
0.0105982
0.0104507
0.0103019
0.0101519
0.0100008
0.0098485
0.0096951
0.00954061
0.00938507
0.00922849
0.00907093
0.00891239
0.00875291
0.00859252
0.00843125
0.00826911
0.00810615
0.00794239
0.00777784
0.00761255
0.00744653
0.00727981
0.00711241
0.00694436
0.00677568
0.00660639
0.00643652
0.00626609
0.00609512
0.00592363
0.00575165
0.00557919
0.00540627
0.00523291
0.00505914
0.00488497
0.00471042
0.0045355
0.00436024
0.00418465
0.00400875
0.00383255
0.00365608
0.00347933
0.00330234
0.00312512
0.00294768
0.00277003
0.00259219
0.00241417
0.00223599
0.00205766
0.00187918
0.00170059
0.00152188
0.00134307
0.00116417
0.000985194
0.000806155
0.000627064
0.000447932
0.00026877
8.95921e-05
0.00011002
0.000330052
0.000550063
0.000770038
0.000989961
0.00120982
0.0014296
0.00164928
0.00186885
0.0020883
0.0023076
0.00252675
0.00274572
0.00296451
0.00318309
0.00340144
0.00361955
0.0038374
0.00405497
0.00427225
0.00448921
0.00470583
0.0049221
0.00513798
0.00535347
0.00556854
0.00578316
0.00599731
0.00621097
0.00642412
0.00663672
0.00684875
0.00706019
0.00727101
0.00748117
0.00769066
0.00789944
0.00810748
0.00831475
0.00852122
0.00872685
0.00893162
0.00913549
0.00933843
0.00954039
0.00974135
0.00994128
0.0101401
0.0103378
0.0105344
0.0107298
0.0109239
0.0111168
0.0113084
0.0114986
0.0116874
0.0118748
0.0120607
0.0122451
0.0124279
0.0126091
0.0127887
0.0129666
0.0131427
0.0133171
0.0134896
0.0136603
0.013829
0.0139958
0.0141606
0.0143233
0.014484
0.0146426
0.0147989
0.0149531
0.0151049
0.0152545
0.0154018
0.0155466
0.0156891
0.0158291
0.0159665
0.0161015
0.0162338
0.0163636
0.0164906
0.016615
0.0167367
0.0168556
0.0169718
0.0170851
0.0171955
0.0173031
0.0174077
0.0175095
0.0176082
0.017704
0.0177967
0.0178864
0.017973
0.0180566
0.018137
0.0182143
0.0182885
0.0183595
0.0184274
0.018492
0.0185534
0.0186117
0.0186667
0.0187184
0.0187669
0.0188122
0.0188542
0.0188929
0.0189284
0.0189605
0.0189894
0.019015
0.0190374
0.0190564
0.0190722
0.0190846
0.0190938
0.0190998
0.0191024
0.0191018
0.019098
0.0190908
0.0190805
0.0190669
0.01905
0.01903
0.0190067
0.0189803
0.0189507
0.0189179
0.0188819
0.0188428
0.0188006
0.0187553
0.0187069
0.0186554
0.0186008
0.0185432
0.0184826
0.0184189
0.0183523
0.0182827
0.0182102
0.0181348
0.0180564
0.0179752
0.0178911
0.0178043
0.0177146
0.0176221
0.0175269
0.0174289
0.0173283
0.017225
0.0171191
0.0170105
0.0168994
0.0167857
0.0166695
0.0165508
0.0164296
0.016306
0.01618
0.0160517
0.015921
0.015788
0.0156528
0.0155153
0.0153757
0.0152339
0.0150899
0.0149439
0.0147959
0.0146458
0.0144937
0.0143397
0.0141838
0.014026
0.0138664
0.013705
0.0135419
0.013377
0.0132104
0.0130422
0.0128724
0.012701
0.0125281
0.0123537
0.0121778
0.0120005
0.0118218
0.0116418
0.0114604
0.0112778
0.0110939
0.0109088
0.0107225
0.010535
0.0103465
0.0101569
0.00996622
0.00977455
0.0095819
0.00938829
0.00919377
0.00899837
0.0088021
0.00860501
0.00840712
0.00820845
0.00800905
0.00780893
0.00760812
0.00740665
0.00720455
0.00700183
0.00679853
0.00659466
0.00639026
0.00618534
0.00597993
0.00577404
0.00556771
0.00536095
0.00515379
0.00494623
0.00473831
0.00453004
0.00432144
0.00411253
0.00390332
0.00369384
0.0034841
0.00327412
0.00306392
0.0028535
0.00264289
0.0024321
0.00222115
0.00201005
0.00179882
0.00158747
0.00137602
0.00116447
0.000952853
0.000741172
0.000529442
0.000317679
0.000105895
0.000126966
0.000380889
0.000634787
0.000888643
0.00114244
0.00139616
0.00164979
0.00190332
0.00215671
0.00240996
0.00266305
0.00291595
0.00316866
0.00342115
0.0036734
0.00392539
0.00417711
0.00442852
0.00467962
0.00493038
0.00518077
0.00543077
0.00568037
0.00592953
0.00617823
0.00642644
0.00667414
0.00692131
0.0071679
0.00741391
0.00765929
0.00790401
0.00814806
0.00839138
0.00863396
0.00887575
0.00911673
0.00935686
0.0095961
0.00983442
0.0100718
0.0103081
0.0105435
0.0107777
0.0110109
0.0112428
0.0114736
0.0117031
0.0119314
0.0121583
0.0123839
0.012608
0.0128306
0.0130518
0.0132714
0.0134894
0.0137057
0.0139203
0.0141332
0.0143442
0.0145534
0.0147607
0.0149661
0.0151694
0.0153707
0.0155699
0.015767
0.0159618
0.0161544
0.0163447
0.0165326
0.0167181
0.0169011
0.0170816
0.0172596
0.017435
0.0176077
0.0177777
0.017945
0.0181094
0.018271
0.0184298
0.0185856
0.0187384
0.0188882
0.0190349
0.0191785
0.019319
0.0194563
0.0195904
0.0197212
0.0198487
0.0199729
0.0200938
0.0202112
0.0203252
0.0204358
0.0205428
0.0206464
0.0207464
0.0208429
0.0209357
0.021025
0.0211106
0.0211926
0.0212709
0.0213456
0.0214165
0.0214837
0.0215472
0.0216069
0.0216629
0.0217152
0.0217636
0.0218083
0.0218492
0.0218864
0.0219197
0.0219493
0.021975
0.021997
0.0220152
0.0220296
0.0220402
0.022047
0.0220501
0.0220493
0.0220448
0.0220366
0.0220246
0.0220089
0.0219895
0.0219663
0.0219395
0.0219089
0.0218747
0.0218368
0.0217953
0.0217501
0.0217014
0.021649
0.0215931
0.0215336
0.0214706
0.0214041
0.0213341
0.0212606
0.0211837
0.0211034
0.0210196
0.0209325
0.0208421
0.0207483
0.0206512
0.0205509
0.0204473
0.0203406
0.0202306
0.0201176
0.0200014
0.0198821
0.0197598
0.0196344
0.0195061
0.0193749
0.0192407
0.0191036
0.0189637
0.0188211
0.0186756
0.0185274
0.0183766
0.018223
0.0180669
0.0179082
0.017747
0.0175833
0.0174171
0.0172485
0.0170776
0.0169043
0.0167287
0.0165509
0.016371
0.0161888
0.0160046
0.0158182
0.0156299
0.0154395
0.0152472
0.0150531
0.014857
0.0146592
0.0144596
0.0142582
0.0140552
0.0138505
0.0136442
0.0134364
0.013227
0.0130162
0.0128039
0.0125902
0.0123752
0.0121588
0.0119412
0.0117223
0.0115022
0.011281
0.0110586
0.0108351
0.0106106
0.010385
0.0101585
0.00993101
0.00970259
0.00947329
0.00924314
0.00901216
0.00878039
0.00854785
0.00831458
0.00808061
0.00784597
0.00761068
0.00737476
0.00713826
0.00690118
0.00666357
0.00642544
0.00618681
0.00594772
0.00570818
0.00546822
0.00522786
0.00498712
0.00474602
0.00450458
0.00426282
0.00402077
0.00377844
0.00353585
0.00329302
0.00304997
0.00280671
0.00256326
0.00231965
0.00207588
0.00183198
0.00158795
0.00134383
0.00109961
0.000855328
0.000610987
0.000366608
0.000122205
0.00014392
0.00043175
0.000719552
0.00100731
0.001295
0.0015826
0.0018701
0.00215748
0.00244471
0.00273178
0.00301867
0.00330535
0.00359181
0.00387803
0.00416397
0.00444962
0.00473497
0.00501997
0.00530461
0.00558887
0.00587272
0.00615613
0.00643907
0.00672153
0.00700347
0.00728485
0.00756567
0.00784587
0.00812543
0.00840433
0.00868251
0.00895996
0.00923664
0.00951251
0.00978753
0.0100617
0.0103349
0.0106071
0.0108784
0.0111486
0.0114177
0.0116857
0.0119525
0.0122181
0.0124825
0.0127455
0.0130072
0.0132675
0.0135263
0.0137836
0.0140393
0.0142935
0.014546
0.0147967
0.0150458
0.0152929
0.0155383
0.0157816
0.016023
0.0162624
0.0164996
0.0167348
0.0169676
0.0171983
0.0174265
0.0176525
0.0178759
0.0180969
0.0183153
0.0185311
0.0187442
0.0189546
0.0191622
0.0193669
0.0195688
0.0197677
0.0199636
0.0201564
0.0203461
0.0205326
0.0207159
0.0208959
0.0210726
0.021246
0.0214158
0.0215823
0.0217452
0.0219045
0.0220602
0.0222123
0.0223607
0.0225053
0.0226461
0.0227832
0.0229164
0.0230457
0.0231711
0.0232925
0.0234099
0.0235234
0.0236328
0.0237381
0.0238393
0.0239364
0.0240294
0.0241182
0.0242028
0.0242832
0.0243594
0.0244314
0.0244992
0.0245627
0.0246219
0.0246769
0.0247275
0.0247739
0.024816
0.0248538
0.0248873
0.0249165
0.0249414
0.024962
0.0249783
0.0249903
0.024998
0.0250014
0.0250006
0.0249955
0.0249861
0.0249725
0.0249547
0.0249326
0.0249063
0.0248759
0.0248412
0.0248024
0.0247594
0.0247123
0.0246611
0.0246057
0.0245464
0.0244829
0.0244155
0.024344
0.0242685
0.0241891
0.0241058
0.0240185
0.0239274
0.0238324
0.0237336
0.023631
0.0235247
0.0234146
0.0233008
0.0231833
0.0230622
0.0229376
0.0228093
0.0226775
0.0225422
0.0224035
0.0222614
0.0221158
0.021967
0.0218148
0.0216594
0.0215007
0.0213389
0.0211739
0.0210059
0.0208348
0.0206607
0.0204836
0.0203036
0.0201208
0.0199351
0.0197466
0.0195555
0.0193616
0.0191651
0.018966
0.0187644
0.0185603
0.0183537
0.0181447
0.0179334
0.0177198
0.017504
0.0172859
0.0170657
0.0168434
0.0166191
0.0163927
0.0161644
0.0159342
0.0157021
0.0154681
0.0152325
0.0149951
0.014756
0.0145153
0.014273
0.0140292
0.0137839
0.0135371
0.0132889
0.0130394
0.0127885
0.0125364
0.012283
0.0120284
0.0117727
0.0115159
0.0112579
0.010999
0.010739
0.010478
0.0102162
0.00995341
0.00968978
0.00942532
0.00916007
0.00889406
0.00862731
0.00835986
0.00809174
0.00782298
0.00755361
0.00728365
0.00701314
0.0067421
0.00647055
0.00619853
0.00592605
0.00565315
0.00537984
0.00510615
0.0048321
0.00455772
0.00428302
0.00400803
0.00373276
0.00345725
0.0031815
0.00290555
0.0026294
0.00235308
0.0020766
0.00179999
0.00152327
0.00124644
0.000969539
0.000692572
0.000415561
0.000138523
0.000160883
0.000482639
0.000804364
0.00112604
0.00144764
0.00176914
0.00209053
0.00241178
0.00273288
0.00305379
0.0033745
0.00369498
0.00401521
0.00433517
0.00465483
0.00497417
0.00529316
0.00561178
0.00592999
0.00624777
0.0065651
0.00688194
0.00719827
0.00751405
0.00782925
0.00814385
0.0084578
0.00877107
0.00908364
0.00939545
0.00970648
0.0100167
0.010326
0.0106345
0.010942
0.0112485
0.011554
0.0118584
0.0121617
0.0124639
0.0127648
0.0130645
0.0133628
0.0136598
0.0139554
0.0142496
0.0145422
0.0148332
0.0151227
0.0154104
0.0156964
0.0159807
0.016263
0.0165435
0.016822
0.0170984
0.0173728
0.017645
0.017915
0.0181827
0.018448
0.018711
0.0189715
0.0192294
0.0194847
0.0197374
0.0199874
0.0202345
0.0204788
0.0207202
0.0209585
0.0211939
0.0214261
0.0216551
0.0218809
0.0221034
0.0223225
0.0225382
0.0227504
0.022959
0.0231641
0.0233654
0.0235631
0.023757
0.023947
0.0241332
0.0243154
0.0244936
0.0246678
0.0248379
0.0250038
0.0251656
0.0253232
0.0254765
0.0256254
0.0257701
0.0259103
0.0260461
0.0261775
0.0263044
0.0264267
0.0265445
0.0266577
0.0267663
0.0268703
0.0269696
0.0270643
0.0271542
0.0272394
0.0273199
0.0273957
0.0274667
0.0275329
0.0275943
0.027651
0.0277029
0.0277499
0.0277922
0.0278296
0.0278622
0.0278901
0.0279131
0.0279313
0.0279447
0.0279533
0.0279571
0.0279561
0.0279504
0.0279399
0.0279247
0.0279047
0.02788
0.0278505
0.0278164
0.0277776
0.0277342
0.0276861
0.0276334
0.0275761
0.0275142
0.0274477
0.0273768
0.0273013
0.0272213
0.0271369
0.0270481
0.0269548
0.0268572
0.0267553
0.026649
0.0265385
0.0264238
0.0263048
0.0261816
0.0260543
0.025923
0.0257875
0.025648
0.0255046
0.0253572
0.0252058
0.0250507
0.0248917
0.0247289
0.0245624
0.0243922
0.0242183
0.0240408
0.0238598
0.0236753
0.0234874
0.023296
0.0231012
0.0229032
0.0227019
0.0224974
0.0222897
0.0220789
0.0218651
0.0216483
0.0214285
0.0212058
0.0209803
0.020752
0.020521
0.0202873
0.020051
0.0198121
0.0195707
0.0193268
0.0190805
0.0188319
0.018581
0.0183278
0.0180725
0.017815
0.0175554
0.0172939
0.0170303
0.0167648
0.0164975
0.0162283
0.0159573
0.0156847
0.0154103
0.0151344
0.0148569
0.0145778
0.0142973
0.0140154
0.0137321
0.0134474
0.0131615
0.0128743
0.0125859
0.0122963
0.0120056
0.0117139
0.0114211
0.0111273
0.0108325
0.0105369
0.0102403
0.00994287
0.00964464
0.00934563
0.00904587
0.00874539
0.00844423
0.00814243
0.00784
0.00753698
0.0072334
0.00692929
0.00662468
0.00631959
0.00601405
0.00570808
0.00540172
0.00509498
0.00478789
0.00448048
0.00417276
0.00386476
0.00355651
0.00324802
0.00293932
0.00263043
0.00232136
0.00201215
0.00170281
0.00139335
0.00108381
0.0007742
0.00046454
0.00015485
0.000177857
0.00053356
0.000889228
0.00124484
0.00160037
0.0019558
0.0023111
0.00266625
0.00302122
0.003376
0.00373055
0.00408486
0.00443889
0.00479262
0.00514602
0.00549907
0.00585173
0.00620398
0.0065558
0.00690714
0.00725797
0.00760828
0.00795802
0.00830715
0.00865565
0.00900349
0.00935061
0.00969699
0.0100426
0.0103874
0.0107313
0.0110743
0.0114163
0.0117574
0.0120974
0.0124364
0.0127742
0.0131108
0.0134462
0.0137803
0.0141131
0.0144445
0.0147745
0.0151029
0.0154298
0.0157551
0.0160787
0.0164006
0.0167207
0.017039
0.0173553
0.0176697
0.017982
0.0182922
0.0186002
0.018906
0.0192094
0.0195105
0.0198092
0.0201053
0.0203988
0.0206897
0.0209778
0.0212631
0.0215456
0.0218251
0.0221016
0.022375
0.0226452
0.0229123
0.023176
0.0234363
0.0236932
0.0239465
0.0241963
0.0244424
0.0246849
0.0249235
0.0251582
0.025389
0.0256159
0.0258387
0.0260573
0.0262718
0.026482
0.026688
0.0268896
0.0270867
0.0272794
0.0274676
0.0276512
0.0278302
0.0280045
0.028174
0.0283389
0.0284988
0.028654
0.0288042
0.0289495
0.0290899
0.0292252
0.0293555
0.0294807
0.0296009
0.0297159
0.0298257
0.0299304
0.0300299
0.0301241
0.0302132
0.0302969
0.0303755
0.0304487
0.0305166
0.0305793
0.0306366
0.0306886
0.0307354
0.0307767
0.0308128
0.0308435
0.030869
0.0308891
0.0309039
0.0309134
0.0309176
0.0309165
0.0309101
0.0308984
0.0308815
0.0308594
0.030832
0.0307995
0.0307617
0.0307187
0.0306707
0.0306174
0.0305591
0.0304957
0.0304272
0.0303537
0.0302751
0.0301916
0.0301031
0.0300097
0.0299114
0.0298083
0.0297003
0.0295875
0.0294699
0.0293477
0.0292207
0.0290891
0.0289528
0.028812
0.0286666
0.0285168
0.0283625
0.0282038
0.0280407
0.0278733
0.0277016
0.0275257
0.0273457
0.0271615
0.0269732
0.0267808
0.0265845
0.0263843
0.0261802
0.0259722
0.0257605
0.0255451
0.025326
0.0251034
0.0248771
0.0246474
0.0244142
0.0241777
0.0239379
0.0236948
0.0234485
0.023199
0.0229465
0.0226909
0.0224324
0.022171
0.0219068
0.0216398
0.02137
0.0210977
0.0208227
0.0205451
0.0202651
0.0199827
0.0196979
0.0194109