/*--------------------------------*- C++ -*----------------------------------*\
| =========                 |                                                 |
| \\      /  F ield         | OpenFOAM: The Open Source CFD Toolbox           |
|  \\    /   O peration     | Version:  v2012                                 |
|   \\  /    A nd           | Website:  www.openfoam.com                      |
|    \\/     M anipulation  |                                                 |
\*---------------------------------------------------------------------------*/
FoamFile
{
    version     2.0;
    format      ascii;
    class       volVectorField;
    location    "1";
    object      U;
}
// * * * * * * * * * * * * * * * * * * * * * * * * * * * * * * * * * * * * * //

dimensions      [0 1 -1 0 0 0 0];


internalField   nonuniform List<vector> 
65536
(
(0.00068788 -0.000687859 0)
(0.00206359 -0.000687811 0)
(0.00343916 -0.000687718 0)
(0.00481451 -0.00068758 0)
(0.00618953 -0.000687395 0)
(0.00756413 -0.000687163 0)
(0.00893822 -0.000686884 0)
(0.0103117 -0.000686558 0)
(0.0116845 -0.000686182 0)
(0.0130565 -0.000685758 0)
(0.0144276 -0.000685283 0)
(0.0157977 -0.000684758 0)
(0.0171667 -0.000684181 0)
(0.0185344 -0.000683552 0)
(0.0199009 -0.000682868 0)
(0.021266 -0.000682129 0)
(0.0226295 -0.000681334 0)
(0.0239914 -0.000680482 0)
(0.0253515 -0.00067957 0)
(0.0267097 -0.000678598 0)
(0.0280659 -0.000677564 0)
(0.02942 -0.000676467 0)
(0.0307718 -0.000675304 0)
(0.0321213 -0.000674074 0)
(0.0334682 -0.000672776 0)
(0.0348125 -0.000671407 0)
(0.0361539 -0.000669966 0)
(0.0374924 -0.00066845 0)
(0.0388278 -0.000666859 0)
(0.0401599 -0.000665189 0)
(0.0414886 -0.000663438 0)
(0.0428137 -0.000661606 0)
(0.0441351 -0.000659689 0)
(0.0454526 -0.000657686 0)
(0.0467659 -0.000655594 0)
(0.048075 -0.000653412 0)
(0.0493797 -0.000651136 0)
(0.0506797 -0.000648766 0)
(0.0519748 -0.000646299 0)
(0.053265 -0.000643733 0)
(0.0545499 -0.000641065 0)
(0.0558293 -0.000638294 0)
(0.0571031 -0.000635417 0)
(0.0583711 -0.000632433 0)
(0.059633 -0.000629339 0)
(0.0608886 -0.000626134 0)
(0.0621376 -0.000622815 0)
(0.0633799 -0.000619381 0)
(0.0646153 -0.00061583 0)
(0.0658434 -0.00061216 0)
(0.067064 -0.00060837 0)
(0.068277 -0.000604456 0)
(0.069482 -0.00060042 0)
(0.0706788 -0.000596257 0)
(0.0718671 -0.000591968 0)
(0.0730468 -0.000587551 0)
(0.0742175 -0.000583005 0)
(0.0753789 -0.000578328 0)
(0.0765309 -0.00057352 0)
(0.0776731 -0.000568579 0)
(0.0788054 -0.000563505 0)
(0.0799273 -0.000558298 0)
(0.0810387 -0.000552956 0)
(0.0821393 -0.000547479 0)
(0.0832287 -0.000541867 0)
(0.0843069 -0.00053612 0)
(0.0853734 -0.000530237 0)
(0.0864279 -0.000524218 0)
(0.0874704 -0.000518065 0)
(0.0885003 -0.000511777 0)
(0.0895176 -0.000505354 0)
(0.0905219 -0.000498798 0)
(0.0915129 -0.000492108 0)
(0.0924905 -0.000485287 0)
(0.0934542 -0.000478334 0)
(0.0944039 -0.000471251 0)
(0.0953393 -0.00046404 0)
(0.0962602 -0.000456701 0)
(0.0971663 -0.000449237 0)
(0.0980573 -0.000441649 0)
(0.098933 -0.000433938 0)
(0.0997932 -0.000426107 0)
(0.100638 -0.000418159 0)
(0.101466 -0.000410093 0)
(0.102278 -0.000401915 0)
(0.103074 -0.000393625 0)
(0.103853 -0.000385226 0)
(0.104615 -0.00037672 0)
(0.10536 -0.000368112 0)
(0.106087 -0.000359402 0)
(0.106797 -0.000350595 0)
(0.10749 -0.000341692 0)
(0.108164 -0.000332698 0)
(0.108821 -0.000323614 0)
(0.109459 -0.000314445 0)
(0.110078 -0.000305194 0)
(0.11068 -0.000295863 0)
(0.111262 -0.000286456 0)
(0.111826 -0.000276976 0)
(0.11237 -0.000267428 0)
(0.112895 -0.000257813 0)
(0.113401 -0.000248135 0)
(0.113888 -0.000238399 0)
(0.114355 -0.000228606 0)
(0.114802 -0.000218761 0)
(0.11523 -0.000208867 0)
(0.115638 -0.000198928 0)
(0.116026 -0.000188946 0)
(0.116394 -0.000178926 0)
(0.116742 -0.00016887 0)
(0.117069 -0.000158782 0)
(0.117377 -0.000148665 0)
(0.117664 -0.000138522 0)
(0.117931 -0.000128356 0)
(0.118177 -0.000118172 0)
(0.118404 -0.000107971 0)
(0.118609 -9.77567e-05 0)
(0.118795 -8.75325e-05 0)
(0.118959 -7.73012e-05 0)
(0.119104 -6.70656e-05 0)
(0.119228 -5.68287e-05 0)
(0.119331 -4.65933e-05 0)
(0.119414 -3.63621e-05 0)
(0.119477 -2.6138e-05 0)
(0.119519 -1.59236e-05 0)
(0.11954 -5.72148e-06 0)
(0.119541 4.46568e-06 0)
(0.119522 1.46354e-05 0)
(0.119483 2.47851e-05 0)
(0.119423 3.49124e-05 0)
(0.119343 4.50148e-05 0)
(0.119243 5.509e-05 0)
(0.119123 6.51357e-05 0)
(0.118983 7.51494e-05 0)
(0.118822 8.5129e-05 0)
(0.118642 9.50723e-05 0)
(0.118442 0.000104977 0)
(0.118222 0.000114841 0)
(0.117983 0.000124662 0)
(0.117723 0.000134437 0)
(0.117445 0.000144166 0)
(0.117147 0.000153845 0)
(0.116829 0.000163473 0)
(0.116493 0.000173047 0)
(0.116137 0.000182566 0)
(0.115762 0.000192027 0)
(0.115369 0.000201429 0)
(0.114957 0.000210769 0)
(0.114526 0.000220046 0)
(0.114076 0.000229256 0)
(0.113609 0.0002384 0)
(0.113123 0.000247473 0)
(0.112619 0.000256476 0)
(0.112097 0.000265404 0)
(0.111557 0.000274258 0)
(0.111 0.000283034 0)
(0.110425 0.000291731 0)
(0.109833 0.000300347 0)
(0.109223 0.00030888 0)
(0.108597 0.000317328 0)
(0.107954 0.000325689 0)
(0.107294 0.000333963 0)
(0.106618 0.000342146 0)
(0.105926 0.000350237 0)
(0.105217 0.000358235 0)
(0.104492 0.000366137 0)
(0.103752 0.000373943 0)
(0.102997 0.00038165 0)
(0.102226 0.000389257 0)
(0.101439 0.000396763 0)
(0.100638 0.000404167 0)
(0.0998227 0.000411466 0)
(0.0989925 0.000418659 0)
(0.098148 0.000425746 0)
(0.0972894 0.000432725 0)
(0.096417 0.000439595 0)
(0.0955309 0.000446354 0)
(0.0946315 0.000453003 0)
(0.0937188 0.00045954 0)
(0.0927932 0.000465963 0)
(0.0918548 0.000472274 0)
(0.090904 0.00047847 0)
(0.0899408 0.000484551 0)
(0.0889657 0.000490517 0)
(0.0879787 0.000496367 0)
(0.0869801 0.000502101 0)
(0.0859701 0.000507719 0)
(0.0849491 0.00051322 0)
(0.0839171 0.000518604 0)
(0.0828745 0.000523872 0)
(0.0818215 0.000529024 0)
(0.0807583 0.000534059 0)
(0.0796852 0.000538978 0)
(0.0786023 0.000543781 0)
(0.0775099 0.00054847 0)
(0.0764083 0.000553043 0)
(0.0752977 0.000557502 0)
(0.0741782 0.000561848 0)
(0.0730501 0.000566081 0)
(0.0719138 0.000570202 0)
(0.0707692 0.000574213 0)
(0.0696168 0.000578113 0)
(0.0684567 0.000581904 0)
(0.0672891 0.000585587 0)
(0.0661142 0.000589164 0)
(0.0649323 0.000592635 0)
(0.0637436 0.000596001 0)
(0.0625482 0.000599265 0)
(0.0613464 0.000602428 0)
(0.0601384 0.00060549 0)
(0.0589243 0.000608454 0)
(0.0577045 0.00061132 0)
(0.056479 0.000614091 0)
(0.055248 0.000616768 0)
(0.0540118 0.000619353 0)
(0.0527705 0.000621847 0)
(0.0515243 0.000624251 0)
(0.0502734 0.000626568 0)
(0.049018 0.000628799 0)
(0.0477581 0.000630946 0)
(0.0464941 0.000633011 0)
(0.045226 0.000634995 0)
(0.043954 0.0006369 0)
(0.0426783 0.000638727 0)
(0.041399 0.000640478 0)
(0.0401163 0.000642156 0)
(0.0388303 0.00064376 0)
(0.0375412 0.000645294 0)
(0.0362491 0.000646759 0)
(0.0349541 0.000648156 0)
(0.0336564 0.000649487 0)
(0.0323561 0.000650753 0)
(0.0310533 0.000651956 0)
(0.0297482 0.000653098 0)
(0.0284409 0.000654179 0)
(0.0271314 0.000655201 0)
(0.02582 0.000656165 0)
(0.0245067 0.000657073 0)
(0.0231916 0.000657925 0)
(0.0218749 0.000658724 0)
(0.0205567 0.00065947 0)
(0.019237 0.000660164 0)
(0.017916 0.000660806 0)
(0.0165937 0.000661399 0)
(0.0152703 0.000661943 0)
(0.0139459 0.000662439 0)
(0.0126205 0.000662887 0)
(0.0112943 0.000663289 0)
(0.00996733 0.000663644 0)
(0.00863968 0.000663953 0)
(0.00731146 0.000664217 0)
(0.00598276 0.000664437 0)
(0.00465367 0.000664613 0)
(0.00332427 0.000664743 0)
(0.00199465 0.000664831 0)
(0.000664896 0.000664875 0)
(0.000687923 -0.00206361 0)
(0.00206372 -0.00206347 0)
(0.00343939 -0.0020632 0)
(0.00481482 -0.00206278 0)
(0.00618993 -0.00206223 0)
(0.00756463 -0.00206153 0)
(0.00893881 -0.0020607 0)
(0.0103124 -0.00205972 0)
(0.0116853 -0.00205859 0)
(0.0130574 -0.00205732 0)
(0.0144285 -0.0020559 0)
(0.0157987 -0.00205432 0)
(0.0171678 -0.00205259 0)
(0.0185357 -0.0020507 0)
(0.0199023 -0.00204865 0)
(0.0212675 -0.00204644 0)
(0.0226311 -0.00204406 0)
(0.0239931 -0.0020415 0)
(0.0253533 -0.00203877 0)
(0.0267117 -0.00203585 0)
(0.028068 -0.00203275 0)
(0.0294222 -0.00202946 0)
(0.0307742 -0.00202598 0)
(0.0321238 -0.00202229 0)
(0.0334708 -0.0020184 0)
(0.0348152 -0.00201429 0)
(0.0361568 -0.00200997 0)
(0.0374954 -0.00200542 0)
(0.038831 -0.00200065 0)
(0.0401633 -0.00199564 0)
(0.0414921 -0.00199039 0)
(0.0428174 -0.0019849 0)
(0.044139 -0.00197915 0)
(0.0454566 -0.00197314 0)
(0.0467702 -0.00196687 0)
(0.0480794 -0.00196032 0)
(0.0493843 -0.0019535 0)
(0.0506844 -0.00194639 0)
(0.0519798 -0.00193899 0)
(0.0532701 -0.0019313 0)
(0.0545552 -0.0019233 0)
(0.0558349 -0.00191498 0)
(0.0571089 -0.00190636 0)
(0.0583771 -0.00189741 0)
(0.0596392 -0.00188813 0)
(0.060895 -0.00187851 0)
(0.0621443 -0.00186856 0)
(0.0633869 -0.00185826 0)
(0.0646224 -0.00184761 0)
(0.0658508 -0.0018366 0)
(0.0670717 -0.00182523 0)
(0.0682849 -0.00181349 0)
(0.0694901 -0.00180138 0)
(0.0706872 -0.0017889 0)
(0.0718758 -0.00177603 0)
(0.0730557 -0.00176278 0)
(0.0742266 -0.00174914 0)
(0.0753883 -0.00173511 0)
(0.0765406 -0.00172069 0)
(0.0776831 -0.00170587 0)
(0.0788156 -0.00169065 0)
(0.0799378 -0.00167503 0)
(0.0810494 -0.001659 0)
(0.0821503 -0.00164257 0)
(0.08324 -0.00162574 0)
(0.0843184 -0.00160849 0)
(0.0853852 -0.00159085 0)
(0.08644 -0.00157279 0)
(0.0874827 -0.00155433 0)
(0.088513 -0.00153547 0)
(0.0895305 -0.0015162 0)
(0.0905351 -0.00149653 0)
(0.0915264 -0.00147646 0)
(0.0925042 -0.00145599 0)
(0.0934682 -0.00143513 0)
(0.0944181 -0.00141388 0)
(0.0953538 -0.00139225 0)
(0.0962749 -0.00137023 0)
(0.0971813 -0.00134784 0)
(0.0980725 -0.00132507 0)
(0.0989485 -0.00130194 0)
(0.0998089 -0.00127844 0)
(0.100653 -0.00125459 0)
(0.101482 -0.0012304 0)
(0.102294 -0.00120586 0)
(0.10309 -0.00118098 0)
(0.103869 -0.00115579 0)
(0.104632 -0.00113027 0)
(0.105377 -0.00110444 0)
(0.106105 -0.00107831 0)
(0.106815 -0.00105188 0)
(0.107508 -0.00102517 0)
(0.108182 -0.000998185 0)
(0.108839 -0.000970932 0)
(0.109477 -0.000943422 0)
(0.110097 -0.000915664 0)
(0.110698 -0.000887668 0)
(0.111281 -0.000859444 0)
(0.111844 -0.000831002 0)
(0.112389 -0.000802352 0)
(0.112915 -0.000773504 0)
(0.113421 -0.000744468 0)
(0.113907 -0.000715255 0)
(0.114375 -0.000685874 0)
(0.114822 -0.000656336 0)
(0.11525 -0.000626652 0)
(0.115658 -0.00059683 0)
(0.116046 -0.000566882 0)
(0.116414 -0.000536817 0)
(0.116762 -0.000506646 0)
(0.117089 -0.000476378 0)
(0.117397 -0.000446024 0)
(0.117684 -0.000415592 0)
(0.117951 -0.000385093 0)
(0.118198 -0.000354536 0)
(0.118424 -0.00032393 0)
(0.11863 -0.000293284 0)
(0.118815 -0.000262609 0)
(0.11898 -0.000231912 0)
(0.119124 -0.000201202 0)
(0.119248 -0.000170489 0)
(0.119352 -0.00013978 0)
(0.119435 -0.000109084 0)
(0.119497 -7.84085e-05 0)
(0.119539 -4.77626e-05 0)
(0.119561 -1.71537e-05 0)
(0.119562 1.34103e-05 0)
(0.119543 4.39219e-05 0)
(0.119503 7.43735e-05 0)
(0.119443 0.000104758 0)
(0.119363 0.000135067 0)
(0.119263 0.000165295 0)
(0.119143 0.000195435 0)
(0.119003 0.000225478 0)
(0.118842 0.000255419 0)
(0.118662 0.000285251 0)
(0.118462 0.000314967 0)
(0.118242 0.000344561 0)
(0.118002 0.000374026 0)
(0.117743 0.000403355 0)
(0.117464 0.000432543 0)
(0.117166 0.000461583 0)
(0.116849 0.000490468 0)
(0.116512 0.000519194 0)
(0.116156 0.000547752 0)
(0.115781 0.000576138 0)
(0.115388 0.000604345 0)
(0.114975 0.000632367 0)
(0.114544 0.000660199 0)
(0.114095 0.000687833 0)
(0.113627 0.000715265 0)
(0.113141 0.000742488 0)
(0.112637 0.000769497 0)
(0.112115 0.000796285 0)
(0.111575 0.000822847 0)
(0.111017 0.000849178 0)
(0.110442 0.00087527 0)
(0.10985 0.00090112 0)
(0.10924 0.000926721 0)
(0.108614 0.000952067 0)
(0.107971 0.000977154 0)
(0.107311 0.00100198 0)
(0.106634 0.00102653 0)
(0.105942 0.0010508 0)
(0.105233 0.0010748 0)
(0.104508 0.00109851 0)
(0.103768 0.00112192 0)
(0.103012 0.00114505 0)
(0.102241 0.00116787 0)
(0.101454 0.00119039 0)
(0.100653 0.0012126 0)
(0.0998373 0.0012345 0)
(0.0990068 0.00125608 0)
(0.0981621 0.00127734 0)
(0.0973033 0.00129828 0)
(0.0964307 0.00131889 0)
(0.0955444 0.00133917 0)
(0.0946447 0.00135912 0)
(0.0937318 0.00137873 0)
(0.092806 0.001398 0)
(0.0918674 0.00141693 0)
(0.0909163 0.00143552 0)
(0.089953 0.00145377 0)
(0.0889775 0.00147167 0)
(0.0879903 0.00148922 0)
(0.0869915 0.00150642 0)
(0.0859813 0.00152327 0)
(0.08496 0.00153978 0)
(0.0839279 0.00155593 0)
(0.082885 0.00157173 0)
(0.0818318 0.00158719 0)
(0.0807684 0.00160229 0)
(0.079695 0.00161705 0)
(0.0786119 0.00163146 0)
(0.0775193 0.00164552 0)
(0.0764174 0.00165924 0)
(0.0753065 0.00167262 0)
(0.0741868 0.00168566 0)
(0.0730586 0.00169836 0)
(0.0719219 0.00171072 0)
(0.0707772 0.00172275 0)
(0.0696245 0.00173445 0)
(0.0684642 0.00174582 0)
(0.0672964 0.00175687 0)
(0.0661213 0.0017676 0)
(0.0649392 0.00177801 0)
(0.0637503 0.00178811 0)
(0.0625547 0.0017979 0)
(0.0613527 0.00180739 0)
(0.0601445 0.00181657 0)
(0.0589302 0.00182546 0)
(0.0577102 0.00183406 0)
(0.0564845 0.00184237 0)
(0.0552533 0.0018504 0)
(0.0540169 0.00185815 0)
(0.0527755 0.00186563 0)
(0.0515291 0.00187284 0)
(0.050278 0.00187979 0)
(0.0490224 0.00188648 0)
(0.0477624 0.00189292 0)
(0.0464982 0.00189912 0)
(0.0452299 0.00190507 0)
(0.0439578 0.00191078 0)
(0.0426819 0.00191626 0)
(0.0414025 0.00192151 0)
(0.0401197 0.00192654 0)
(0.0388335 0.00193136 0)
(0.0375443 0.00193596 0)
(0.036252 0.00194035 0)
(0.0349569 0.00194454 0)
(0.033659 0.00194853 0)
(0.0323586 0.00195233 0)
(0.0310557 0.00195593 0)
(0.0297505 0.00195936 0)
(0.028443 0.0019626 0)
(0.0271334 0.00196566 0)
(0.0258219 0.00196855 0)
(0.0245085 0.00197128 0)
(0.0231933 0.00197383 0)
(0.0218765 0.00197623 0)
(0.0205582 0.00197846 0)
(0.0192384 0.00198054 0)
(0.0179172 0.00198247 0)
(0.0165949 0.00198425 0)
(0.0152714 0.00198588 0)
(0.0139469 0.00198737 0)
(0.0126214 0.00198871 0)
(0.0112951 0.00198992 0)
(0.009968 0.00199098 0)
(0.00864026 0.00199191 0)
(0.00731196 0.0019927 0)
(0.00598316 0.00199336 0)
(0.00465398 0.00199389 0)
(0.00332449 0.00199428 0)
(0.00199478 0.00199454 0)
(0.00066494 0.00199467 0)
(0.000688016 -0.00343951 0)
(0.002064 -0.00343927 0)
(0.00343985 -0.00343881 0)
(0.00481547 -0.00343812 0)
(0.00619077 -0.0034372 0)
(0.00756565 -0.00343605 0)
(0.00894003 -0.00343465 0)
(0.0103138 -0.00343302 0)
(0.0116869 -0.00343115 0)
(0.0130592 -0.00342903 0)
(0.0144306 -0.00342666 0)
(0.015801 -0.00342404 0)
(0.0171703 -0.00342116 0)
(0.0185384 -0.00341802 0)
(0.0199052 -0.00341461 0)
(0.0212705 -0.00341092 0)
(0.0226344 -0.00340695 0)
(0.0239966 -0.0034027 0)
(0.0253571 -0.00339815 0)
(0.0267157 -0.00339329 0)
(0.0280723 -0.00338813 0)
(0.0294268 -0.00338265 0)
(0.030779 -0.00337685 0)
(0.0321288 -0.00337071 0)
(0.0334762 -0.00336423 0)
(0.0348209 -0.00335739 0)
(0.0361627 -0.00335019 0)
(0.0375017 -0.00334263 0)
(0.0388375 -0.00333468 0)
(0.0401701 -0.00332634 0)
(0.0414993 -0.0033176 0)
(0.0428249 -0.00330845 0)
(0.0441468 -0.00329887 0)
(0.0454648 -0.00328887 0)
(0.0467787 -0.00327842 0)
(0.0480884 -0.00326752 0)
(0.0493936 -0.00325615 0)
(0.0506941 -0.00324431 0)
(0.0519899 -0.00323199 0)
(0.0532806 -0.00321916 0)
(0.0545661 -0.00320584 0)
(0.0558462 -0.00319199 0)
(0.0571207 -0.00317762 0)
(0.0583893 -0.00316271 0)
(0.0596518 -0.00314725 0)
(0.0609081 -0.00313123 0)
(0.0621578 -0.00311465 0)
(0.0634009 -0.00309749 0)
(0.0646369 -0.00307974 0)
(0.0658657 -0.0030614 0)
(0.0670871 -0.00304246 0)
(0.0683008 -0.0030229 0)
(0.0695065 -0.00300272 0)
(0.0707041 -0.00298192 0)
(0.0718932 -0.00296048 0)
(0.0730736 -0.0029384 0)
(0.0742451 -0.00291567 0)
(0.0754073 -0.0028923 0)
(0.0765601 -0.00286826 0)
(0.0777031 -0.00284356 0)
(0.0788362 -0.0028182 0)
(0.0799589 -0.00279216 0)
(0.0810711 -0.00276545 0)
(0.0821725 -0.00273807 0)
(0.0832628 -0.00271001 0)
(0.0843417 -0.00268128 0)
(0.085409 -0.00265186 0)
(0.0864644 -0.00262177 0)
(0.0875076 -0.002591 0)
(0.0885384 -0.00255956 0)
(0.0895565 -0.00252744 0)
(0.0905616 -0.00249466 0)
(0.0915534 -0.0024612 0)
(0.0925317 -0.00242709 0)
(0.0934963 -0.00239232 0)
(0.0944468 -0.0023569 0)
(0.095383 -0.00232084 0)
(0.0963046 -0.00228414 0)
(0.0972114 -0.00224681 0)
(0.0981032 -0.00220886 0)
(0.0989796 -0.0021703 0)
(0.0998405 -0.00213113 0)
(0.100686 -0.00209138 0)
(0.101515 -0.00205104 0)
(0.102327 -0.00201013 0)
(0.103124 -0.00196867 0)
(0.103903 -0.00192666 0)
(0.104666 -0.00188412 0)
(0.105412 -0.00184107 0)
(0.10614 -0.0017975 0)
(0.10685 -0.00175345 0)
(0.107543 -0.00170893 0)
(0.108218 -0.00166394 0)
(0.108875 -0.00161851 0)
(0.109514 -0.00157265 0)
(0.110134 -0.00152637 0)
(0.110736 -0.0014797 0)
(0.111319 -0.00143265 0)
(0.111883 -0.00138524 0)
(0.112427 -0.00133747 0)
(0.112953 -0.00128938 0)
(0.11346 -0.00124098 0)
(0.113946 -0.00119228 0)
(0.114414 -0.0011433 0)
(0.114862 -0.00109406 0)
(0.11529 -0.00104457 0)
(0.115698 -0.000994858 0)
(0.116086 -0.000944934 0)
(0.116454 -0.000894815 0)
(0.116802 -0.000844518 0)
(0.11713 -0.000794061 0)
(0.117437 -0.000743459 0)
(0.117725 -0.000692729 0)
(0.117992 -0.000641887 0)
(0.118239 -0.000590948 0)
(0.118465 -0.000539928 0)
(0.118671 -0.000488842 0)
(0.118856 -0.000437706 0)
(0.119021 -0.000386535 0)
(0.119165 -0.000335342 0)
(0.119289 -0.000284144 0)
(0.119393 -0.000232953 0)
(0.119475 -0.000181783 0)
(0.119538 -0.000130649 0)
(0.11958 -7.9564e-05 0)
(0.119601 -2.85406e-05 0)
(0.119603 2.24079e-05 0)
(0.119583 7.32688e-05 0)
(0.119544 0.00012403 0)
(0.119484 0.000174678 0)
(0.119404 0.000225202 0)
(0.119303 0.00027559 0)
(0.119183 0.00032583 0)
(0.119043 0.00037591 0)
(0.118882 0.000425819 0)
(0.118702 0.000475547 0)
(0.118501 0.000525081 0)
(0.118281 0.000574411 0)
(0.118041 0.000623526 0)
(0.117782 0.000672415 0)
(0.117503 0.000721069 0)
(0.117205 0.000769475 0)
(0.116887 0.000817625 0)
(0.11655 0.000865507 0)
(0.116194 0.000913111 0)
(0.115819 0.000960428 0)
(0.115425 0.00100745 0)
(0.115013 0.00105416 0)
(0.114581 0.00110055 0)
(0.114131 0.00114661 0)
(0.113663 0.00119234 0)
(0.113177 0.00123772 0)
(0.112673 0.00128274 0)
(0.11215 0.00132739 0)
(0.11161 0.00137167 0)
(0.111052 0.00141556 0)
(0.110477 0.00145905 0)
(0.109884 0.00150214 0)
(0.109274 0.00154482 0)
(0.108648 0.00158707 0)
(0.108004 0.00162888 0)
(0.107344 0.00167026 0)
(0.106667 0.00171118 0)
(0.105974 0.00175165 0)
(0.105265 0.00179164 0)
(0.10454 0.00183117 0)
(0.103799 0.0018702 0)
(0.103043 0.00190875 0)
(0.102271 0.00194679 0)
(0.101484 0.00198433 0)
(0.100683 0.00202135 0)
(0.0998662 0.00205785 0)
(0.0990354 0.00209383 0)
(0.0981902 0.00212927 0)
(0.097331 0.00216417 0)
(0.0964579 0.00219852 0)
(0.0955712 0.00223232 0)
(0.0946711 0.00226557 0)
(0.0937577 0.00229826 0)
(0.0928314 0.00233038 0)
(0.0918924 0.00236194 0)
(0.0909408 0.00239292 0)
(0.089977 0.00242333 0)
(0.0890011 0.00245316 0)
(0.0880134 0.00248241 0)
(0.0870142 0.00251109 0)
(0.0860035 0.00253918 0)
(0.0849818 0.00256668 0)
(0.0839491 0.0025936 0)
(0.0829058 0.00261994 0)
(0.0818521 0.0026457 0)
(0.0807882 0.00267088 0)
(0.0797144 0.00269547 0)
(0.0786308 0.00271948 0)
(0.0775378 0.00274292 0)
(0.0764354 0.00276579 0)
(0.0753241 0.00278808 0)
(0.074204 0.00280981 0)
(0.0730752 0.00283097 0)
(0.0719382 0.00285157 0)
(0.070793 0.00287161 0)
(0.0696399 0.00289111 0)
(0.0684791 0.00291006 0)
(0.0673109 0.00292847 0)
(0.0661354 0.00294635 0)
(0.0649529 0.0029637 0)
(0.0637635 0.00298052 0)
(0.0625675 0.00299684 0)
(0.0613651 0.00301264 0)
(0.0601565 0.00302795 0)
(0.0589419 0.00304276 0)
(0.0577214 0.00305708 0)
(0.0564953 0.00307093 0)
(0.0552638 0.00308431 0)
(0.0540271 0.00309722 0)
(0.0527852 0.00310968 0)
(0.0515385 0.0031217 0)
(0.0502871 0.00313327 0)
(0.0490311 0.00314442 0)
(0.0477708 0.00315515 0)
(0.0465063 0.00316546 0)
(0.0452377 0.00317537 0)
(0.0439652 0.00318489 0)
(0.0426891 0.00319402 0)
(0.0414093 0.00320277 0)
(0.0401262 0.00321115 0)
(0.0388398 0.00321916 0)
(0.0375502 0.00322682 0)
(0.0362577 0.00323414 0)
(0.0349623 0.00324112 0)
(0.0336642 0.00324776 0)
(0.0323635 0.00325409 0)
(0.0310604 0.0032601 0)
(0.0297549 0.0032658 0)
(0.0284472 0.00327119 0)
(0.0271374 0.0032763 0)
(0.0258256 0.00328111 0)
(0.024512 0.00328565 0)
(0.0231966 0.0032899 0)
(0.0218796 0.00329389 0)
(0.020561 0.00329761 0)
(0.019241 0.00330108 0)
(0.0179197 0.00330429 0)
(0.0165971 0.00330725 0)
(0.0152735 0.00330996 0)
(0.0139487 0.00331244 0)
(0.0126231 0.00331468 0)
(0.0112966 0.00331668 0)
(0.00996932 0.00331845 0)
(0.00864141 0.00332 0)
(0.00731292 0.00332132 0)
(0.00598395 0.00332242 0)
(0.00465459 0.00332329 0)
(0.00332492 0.00332394 0)
(0.00199504 0.00332438 0)
(0.000665027 0.00332459 0)
(0.000688154 -0.00481563 0)
(0.00206442 -0.00481531 0)
(0.00344054 -0.00481466 0)
(0.00481644 -0.0048137 0)
(0.00619202 -0.00481241 0)
(0.00756719 -0.0048108 0)
(0.00894185 -0.00480885 0)
(0.0103159 -0.00480657 0)
(0.0116893 -0.00480395 0)
(0.0130619 -0.00480099 0)
(0.0144336 -0.00479768 0)
(0.0158043 -0.00479402 0)
(0.0171739 -0.00479 0)
(0.0185423 -0.0047856 0)
(0.0199094 -0.00478084 0)
(0.0212751 -0.00477568 0)
(0.0226393 -0.00477014 0)
(0.0240019 -0.00476419 0)
(0.0253627 -0.00475783 0)
(0.0267217 -0.00475105 0)
(0.0280787 -0.00474383 0)
(0.0294336 -0.00473617 0)
(0.0307862 -0.00472806 0)
(0.0321364 -0.00471947 0)
(0.0334842 -0.00471041 0)
(0.0348293 -0.00470085 0)
(0.0361716 -0.00469079 0)
(0.037511 -0.00468021 0)
(0.0388473 -0.0046691 0)
(0.0401804 -0.00465743 0)
(0.0415101 -0.00464521 0)
(0.0428362 -0.00463241 0)
(0.0441586 -0.00461903 0)
(0.0454771 -0.00460503 0)
(0.0467916 -0.00459042 0)
(0.0481018 -0.00457517 0)
(0.0494075 -0.00455928 0)
(0.0507087 -0.00454272 0)
(0.052005 -0.00452548 0)
(0.0532964 -0.00450754 0)
(0.0545825 -0.0044889 0)
(0.0558632 -0.00446953 0)
(0.0571383 -0.00444942 0)
(0.0584075 -0.00442856 0)
(0.0596708 -0.00440693 0)
(0.0609277 -0.00438452 0)
(0.0621781 -0.00436132 0)
(0.0634218 -0.00433731 0)
(0.0646586 -0.00431247 0)
(0.0658881 -0.00428681 0)
(0.0671102 -0.0042603 0)
(0.0683247 -0.00423293 0)
(0.0695312 -0.00420469 0)
(0.0707295 -0.00417557 0)
(0.0719194 -0.00414557 0)
(0.0731006 -0.00411467 0)
(0.0742728 -0.00408286 0)
(0.0754358 -0.00405014 0)
(0.0765894 -0.00401649 0)
(0.0777332 -0.00398192 0)
(0.0788671 -0.00394641 0)
(0.0799906 -0.00390997 0)
(0.0811036 -0.00387258 0)
(0.0822058 -0.00383425 0)
(0.0832969 -0.00379497 0)
(0.0843767 -0.00375473 0)
(0.0854448 -0.00371355 0)
(0.086501 -0.00367142 0)
(0.087545 -0.00362835 0)
(0.0885766 -0.00358432 0)
(0.0895955 -0.00353935 0)
(0.0906014 -0.00349345 0)
(0.091594 -0.00344661 0)
(0.0925731 -0.00339885 0)
(0.0935385 -0.00335016 0)
(0.0944897 -0.00330056 0)
(0.0954267 -0.00325007 0)
(0.0963491 -0.00319867 0)
(0.0972566 -0.0031464 0)
(0.0981491 -0.00309326 0)
(0.0990263 -0.00303926 0)
(0.0998879 -0.00298441 0)
(0.100734 -0.00292874 0)
(0.101563 -0.00287225 0)
(0.102377 -0.00281497 0)
(0.103174 -0.0027569 0)
(0.103954 -0.00269807 0)
(0.104717 -0.0026385 0)
(0.105464 -0.0025782 0)
(0.106192 -0.00251719 0)
(0.106904 -0.0024555 0)
(0.107597 -0.00239314 0)
(0.108273 -0.00233014 0)
(0.10893 -0.00226651 0)
(0.109569 -0.00220228 0)
(0.11019 -0.00213747 0)
(0.110792 -0.00207211 0)
(0.111375 -0.00200622 0)
(0.11194 -0.00193981 0)
(0.112485 -0.00187293 0)
(0.113011 -0.00180557 0)
(0.113518 -0.00173778 0)
(0.114005 -0.00166958 0)
(0.114473 -0.00160098 0)
(0.114921 -0.00153202 0)
(0.115349 -0.00146272 0)
(0.115757 -0.0013931 0)
(0.116146 -0.00132318 0)
(0.116514 -0.00125299 0)
(0.116862 -0.00118255 0)
(0.117191 -0.00111189 0)
(0.117498 -0.00104102 0)
(0.117786 -0.000969978 0)
(0.118053 -0.000898776 0)
(0.1183 -0.000827439 0)
(0.118526 -0.00075599 0)
(0.118732 -0.000684449 0)
(0.118917 -0.000612838 0)
(0.119082 -0.000541177 0)
(0.119227 -0.000469488 0)
(0.119351 -0.00039779 0)
(0.119454 -0.000326103 0)
(0.119537 -0.000254447 0)
(0.119599 -0.00018284 0)
(0.119641 -0.000111302 0)
(0.119663 -3.98515e-05 0)
(0.119664 3.14942e-05 0)
(0.119644 0.000102717 0)
(0.119605 0.0001738 0)
(0.119545 0.000244724 0)
(0.119464 0.000315475 0)
(0.119364 0.000386034 0)
(0.119243 0.000456386 0)
(0.119103 0.000526514 0)
(0.118942 0.000596403 0)
(0.118761 0.000666036 0)
(0.118561 0.000735399 0)
(0.11834 0.000804477 0)
(0.1181 0.000873253 0)
(0.11784 0.000941713 0)
(0.117561 0.00100984 0)
(0.117263 0.00107763 0)
(0.116945 0.00114505 0)
(0.116607 0.0012121 0)
(0.116251 0.00127876 0)
(0.115876 0.00134502 0)
(0.115481 0.00141086 0)
(0.115068 0.00147627 0)
(0.114637 0.00154123 0)
(0.114187 0.00160573 0)
(0.113718 0.00166976 0)
(0.113231 0.00173331 0)
(0.112726 0.00179635 0)
(0.112203 0.00185888 0)
(0.111663 0.00192088 0)
(0.111105 0.00198234 0)
(0.110529 0.00204324 0)
(0.109936 0.00210358 0)
(0.109325 0.00216334 0)
(0.108698 0.0022225 0)
(0.108054 0.00228106 0)
(0.107393 0.00233899 0)
(0.106716 0.0023963 0)
(0.106022 0.00245296 0)
(0.105312 0.00250897 0)
(0.104587 0.00256431 0)
(0.103845 0.00261897 0)
(0.103089 0.00267294 0)
(0.102316 0.00272622 0)
(0.101529 0.00277878 0)
(0.100727 0.00283062 0)
(0.0999097 0.00288173 0)
(0.0990782 0.00293211 0)
(0.0982324 0.00298173 0)
(0.0973725 0.0030306 0)
(0.0964988 0.0030787 0)
(0.0956114 0.00312603 0)
(0.0947106 0.00317259 0)
(0.0937966 0.00321835 0)
(0.0928696 0.00326333 0)
(0.0919299 0.00330751 0)
(0.0909776 0.00335089 0)
(0.0900131 0.00339347 0)
(0.0890366 0.00343524 0)
(0.0880482 0.00347619 0)
(0.0870482 0.00351634 0)
(0.0860368 0.00355566 0)
(0.0850144 0.00359417 0)
(0.0839811 0.00363186 0)
(0.0829371 0.00366874 0)
(0.0818826 0.0037048 0)
(0.0808181 0.00374004 0)
(0.0797435 0.00377447 0)
(0.0786592 0.00380809 0)
(0.0775655 0.0038409 0)
(0.0764625 0.0038729 0)
(0.0753505 0.00390411 0)
(0.0742296 0.00393452 0)
(0.0731003 0.00396414 0)
(0.0719625 0.00399297 0)
(0.0708167 0.00402103 0)
(0.0696629 0.00404832 0)
(0.0685015 0.00407484 0)
(0.0673326 0.00410061 0)
(0.0661565 0.00412563 0)
(0.0649733 0.00414991 0)
(0.0637833 0.00417346 0)
(0.0625867 0.00419628 0)
(0.0613837 0.0042184 0)
(0.0601745 0.00423982 0)
(0.0589593 0.00426054 0)
(0.0577383 0.00428059 0)
(0.0565116 0.00429996 0)
(0.0552796 0.00431868 0)
(0.0540422 0.00433675 0)
(0.0527999 0.00435418 0)
(0.0515526 0.00437099 0)
(0.0503007 0.00438718 0)
(0.0490442 0.00440278 0)
(0.0477834 0.00441779 0)
(0.0465183 0.00443221 0)
(0.0452493 0.00444608 0)
(0.0439764 0.00445939 0)
(0.0426998 0.00447216 0)
(0.0414196 0.00448439 0)
(0.040136 0.00449611 0)
(0.0388491 0.00450732 0)
(0.0375592 0.00451804 0)
(0.0362662 0.00452827 0)
(0.0349704 0.00453803 0)
(0.033672 0.00454732 0)
(0.0323709 0.00455617 0)
(0.0310674 0.00456457 0)
(0.0297615 0.00457254 0)
(0.0284535 0.00458008 0)
(0.0271433 0.00458722 0)
(0.0258312 0.00459395 0)
(0.0245172 0.00460029 0)
(0.0232015 0.00460624 0)
(0.0218842 0.00461182 0)
(0.0205653 0.00461702 0)
(0.019245 0.00462187 0)
(0.0179234 0.00462635 0)
(0.0166005 0.00463049 0)
(0.0152766 0.00463429 0)
(0.0139516 0.00463775 0)
(0.0126256 0.00464087 0)
(0.0112988 0.00464367 0)
(0.00997131 0.00464615 0)
(0.00864312 0.00464831 0)
(0.00731436 0.00465016 0)
(0.00598513 0.00465169 0)
(0.0046555 0.00465291 0)
(0.00332557 0.00465383 0)
(0.00199543 0.00465443 0)
(0.000665158 0.00465473 0)
(0.000688338 -0.00619208 0)
(0.00206497 -0.00619166 0)
(0.00344146 -0.00619084 0)
(0.00481773 -0.0061896 0)
(0.00619368 -0.00618795 0)
(0.00756923 -0.00618588 0)
(0.00894427 -0.00618338 0)
(0.0103187 -0.00618046 0)
(0.0116925 -0.0061771 0)
(0.0130655 -0.0061733 0)
(0.0144376 -0.00616906 0)
(0.0158087 -0.00616436 0)
(0.0171787 -0.0061592 0)
(0.0185476 -0.00615357 0)
(0.0199151 -0.00614745 0)
(0.0212813 -0.00614084 0)
(0.0226459 -0.00613373 0)
(0.024009 -0.00612609 0)
(0.0253703 -0.00611794 0)
(0.0267297 -0.00610923 0)
(0.0280872 -0.00609998 0)
(0.0294426 -0.00609015 0)
(0.0307957 -0.00607973 0)
(0.0321465 -0.00606872 0)
(0.0334948 -0.00605709 0)
(0.0348405 -0.00604482 0)
(0.0361834 -0.00603191 0)
(0.0375234 -0.00601833 0)
(0.0388604 -0.00600406 0)
(0.0401941 -0.00598909 0)
(0.0415244 -0.0059734 0)
(0.0428512 -0.00595697 0)
(0.0441743 -0.00593979 0)
(0.0454935 -0.00592182 0)
(0.0468087 -0.00590306 0)
(0.0481196 -0.00588348 0)
(0.0494261 -0.00586307 0)
(0.050728 -0.0058418 0)
(0.0520252 -0.00581966 0)
(0.0533173 -0.00579663 0)
(0.0546042 -0.00577268 0)
(0.0558858 -0.0057478 0)
(0.0571617 -0.00572197 0)
(0.0584319 -0.00569518 0)
(0.059696 -0.00566739 0)
(0.0609538 -0.00563861 0)
(0.0622052 -0.0056088 0)
(0.0634498 -0.00557795 0)
(0.0646875 -0.00554604 0)
(0.065918 -0.00551306 0)
(0.0671411 -0.00547899 0)
(0.0683565 -0.00544382 0)
(0.069564 -0.00540754 0)
(0.0707633 -0.00537012 0)
(0.0719542 -0.00533156 0)
(0.0731364 -0.00529184 0)
(0.0743097 -0.00525096 0)
(0.0754738 -0.0052089 0)
(0.0766284 -0.00516565 0)
(0.0777733 -0.00512121 0)
(0.0789082 -0.00507557 0)
(0.0800329 -0.00502872 0)
(0.0811469 -0.00498065 0)
(0.0822502 -0.00493137 0)
(0.0833424 -0.00488087 0)
(0.0844232 -0.00482914 0)
(0.0854924 -0.0047762 0)
(0.0865497 -0.00472203 0)
(0.0875949 -0.00466664 0)
(0.0886275 -0.00461003 0)
(0.0896475 -0.00455221 0)
(0.0906545 -0.00449318 0)
(0.0916482 -0.00443295 0)
(0.0926283 -0.00437152 0)
(0.0935947 -0.00430891 0)
(0.094547 -0.00424513 0)
(0.095485 -0.00418019 0)
(0.0964084 -0.00411409 0)
(0.0973169 -0.00404686 0)
(0.0982104 -0.00397851 0)
(0.0990886 -0.00390906 0)
(0.0999511 -0.00383852 0)
(0.100798 -0.00376692 0)
(0.101629 -0.00369426 0)
(0.102443 -0.00362058 0)
(0.103241 -0.0035459 0)
(0.104022 -0.00347023 0)
(0.104786 -0.0033936 0)
(0.105533 -0.00331604 0)
(0.106263 -0.00323757 0)
(0.106975 -0.00315821 0)
(0.107669 -0.003078 0)
(0.108345 -0.00299696 0)
(0.109003 -0.00291511 0)
(0.109643 -0.00283249 0)
(0.110264 -0.00274913 0)
(0.110867 -0.00266506 0)
(0.111451 -0.0025803 0)
(0.112016 -0.00249488 0)
(0.112562 -0.00240884 0)
(0.113088 -0.0023222 0)
(0.113596 -0.002235 0)
(0.114083 -0.00214727 0)
(0.114552 -0.00205904 0)
(0.115 -0.00197033 0)
(0.115429 -0.00188118 0)
(0.115837 -0.00179163 0)
(0.116226 -0.00170169 0)
(0.116595 -0.00161141 0)
(0.116943 -0.00152081 0)
(0.117271 -0.00142991 0)
(0.117579 -0.00133876 0)
(0.117867 -0.00124738 0)
(0.118134 -0.0011558 0)
(0.118381 -0.00106404 0)
(0.118608 -0.000972142 0)
(0.118814 -0.000880125 0)
(0.118999 -0.000788017 0)
(0.119164 -0.000695847 0)
(0.119309 -0.000603641 0)
(0.119433 -0.000511423 0)
(0.119536 -0.000419221 0)
(0.119619 -0.000327059 0)