/*--------------------------------*- C++ -*----------------------------------*\
| =========                 |                                                 |
| \\      /  F ield         | OpenFOAM: The Open Source CFD Toolbox           |
|  \\    /   O peration     | Version:  v2012                                 |
|   \\  /    A nd           | Website:  www.openfoam.com                      |
|    \\/     M anipulation  |                                                 |
\*---------------------------------------------------------------------------*/
FoamFile
{
    version     2.0;
    format      ascii;
    class       volScalarField;
    location    "1";
    object      W;
}
// * * * * * * * * * * * * * * * * * * * * * * * * * * * * * * * * * * * * * //

dimensions      [0 0 -1 0 0 0 0];


internalField   nonuniform List<scalar> 
65536
(
4.60603e-22
1.37887e-21
2.34323e-21
3.46688e-21
4.89584e-21
6.7965e-21
9.36506e-21
1.28469e-20
1.75599e-20
2.3921e-20
3.24785e-20
4.3952e-20
5.92823e-20
7.96959e-20
1.06785e-19
1.42609e-19
1.89821e-19
2.51827e-19
3.32981e-19
4.38828e-19
5.76403e-19
7.54596e-19
9.84595e-19
1.28043e-18
1.65961e-18
2.14393e-18
2.76035e-18
3.54218e-18
4.53029e-18
5.77471e-18
7.3364e-18
9.2893e-18
1.17227e-17
1.47442e-17
1.84824e-17
2.30908e-17
2.87518e-17
3.56806e-17
4.41307e-17
5.4399e-17
6.68315e-17
8.18297e-17
9.98573e-17
1.21447e-16
1.47208e-16
1.77832e-16
2.14105e-16
2.56908e-16
3.0723e-16
3.66169e-16
4.34943e-16
5.14891e-16
6.07476e-16
7.14288e-16
8.3704e-16
9.7757e-16
1.13783e-15
1.31987e-15
1.52586e-15
1.758e-15
2.0186e-15
2.30995e-15
2.63437e-15
2.99414e-15
3.39146e-15
3.82843e-15
4.30697e-15
4.8288e-15
5.39538e-15
6.00785e-15
6.66698e-15
7.3731e-15
8.1261e-15
8.9253e-15
9.76948e-15
1.06568e-14
1.15847e-14
1.25501e-14
1.35492e-14
1.45773e-14
1.56294e-14
1.66995e-14
1.77811e-14
1.88673e-14
1.99504e-14
2.10226e-14
2.20754e-14
2.31002e-14
2.40886e-14
2.50316e-14
2.59207e-14
2.67477e-14
2.75045e-14
2.81836e-14
2.87783e-14
2.92823e-14
2.96906e-14
2.99987e-14
3.02033e-14
3.03024e-14
3.02947e-14
3.01805e-14
2.99609e-14
2.96383e-14
2.92165e-14
2.86998e-14
2.80941e-14
2.74059e-14
2.66425e-14
2.58121e-14
2.49235e-14
2.39859e-14
2.30089e-14
2.20024e-14
2.09763e-14
1.99406e-14
1.89052e-14
1.78797e-14
1.68735e-14
1.58956e-14
1.49544e-14
1.40579e-14
1.32136e-14
1.24283e-14
1.17082e-14
1.10587e-14
1.04848e-14
9.99059e-15
9.57972e-15
9.25501e-15
9.01868e-15
8.87227e-15
8.81668e-15
8.85215e-15
8.97827e-15
9.19398e-15
9.49754e-15
9.88656e-15
1.0358e-14
1.0908e-14
1.15322e-14
1.22255e-14
1.29819e-14
1.37951e-14
1.46579e-14
1.55624e-14
1.65003e-14
1.74626e-14
1.84401e-14
1.94228e-14
2.04007e-14
2.13635e-14
2.23009e-14
2.32024e-14
2.40581e-14
2.4858e-14
2.55927e-14
2.62535e-14
2.68325e-14
2.73222e-14
2.77167e-14
2.80108e-14
2.82005e-14
2.82831e-14
2.82573e-14
2.81228e-14
2.78809e-14
2.7534e-14
2.70859e-14
2.65412e-14
2.5906e-14
2.5187e-14
2.4392e-14
2.35293e-14
2.26078e-14
2.16366e-14
2.06254e-14
1.95836e-14
1.85207e-14
1.74459e-14
1.63681e-14
1.52957e-14
1.42365e-14
1.31977e-14
1.21857e-14
1.12061e-14
1.0264e-14
9.36325e-15
8.50716e-15
7.69818e-15
6.938e-15
6.22762e-15
5.56734e-15
4.95691e-15
4.3955e-15
3.88184e-15
3.41427e-15
2.99079e-15
2.60916e-15
2.26695e-15
1.96157e-15
1.6904e-15
1.45075e-15
1.23998e-15
1.05549e-15
8.94768e-16
7.55405e-16
6.35128e-16
5.31807e-16
4.43463e-16
3.68273e-16
3.04572e-16
2.50852e-16
2.05755e-16
1.68069e-16
1.36719e-16
1.10758e-16
8.93561e-17
7.17917e-17
5.74415e-17
4.57696e-17
3.63186e-17
2.87e-17
2.25856e-17
1.77003e-17
1.38143e-17
1.07368e-17
8.31036e-18
6.40562e-18
4.917e-18
3.75869e-18
2.86134e-18
2.1692e-18
1.63767e-18
1.23127e-18
9.2188e-19
6.87376e-19
5.10401e-19
3.77421e-19
2.77932e-19
2.03821e-19
1.48854e-19
1.0826e-19
7.84108e-20
5.65566e-20
4.06248e-20
2.90602e-20
2.07017e-20
1.46859e-20
1.03738e-20
7.29288e-21
5.09184e-21
3.50323e-21
2.31252e-21
1.33939e-21
4.44045e-22
1.45823e-21
4.36752e-21
7.42501e-21
1.09876e-20
1.55168e-20
2.15394e-20
2.96767e-20
4.07058e-20
5.56328e-20
7.57776e-20
1.02875e-19
1.39202e-19
1.87735e-19
2.52354e-19
3.38096e-19
4.51474e-19
6.00879e-19
7.97079e-19
1.05384e-18
1.3887e-18
1.8239e-18
2.38753e-18
3.11496e-18
4.05052e-18
5.24957e-18
6.78094e-18
8.72987e-18
1.12015e-17
1.43251e-17
1.82585e-17
2.31945e-17
2.93664e-17
3.70565e-17
4.6604e-17
5.84155e-17
7.29757e-17
9.08598e-17
1.12748e-16
1.3944e-16
1.71873e-16
2.1114e-16
2.58507e-16
3.15437e-16
3.83612e-16
4.64954e-16
5.61647e-16
6.76167e-16
8.11297e-16
9.70153e-16
1.1562e-15
1.37329e-15
1.62563e-15
1.91784e-15
2.25493e-15
2.64231e-15
3.08576e-15
3.59145e-15
4.16586e-15
4.81576e-15
5.54817e-15
6.3703e-15
7.28941e-15
8.3128e-15
9.44763e-15
1.07009e-14
1.20791e-14
1.35883e-14
1.52341e-14
1.70208e-14
1.89522e-14
2.10306e-14
2.32571e-14
2.56313e-14
2.81511e-14
3.08125e-14
3.36097e-14
3.65349e-14
3.95781e-14
4.27271e-14
4.59677e-14
4.92834e-14
5.26558e-14
5.60645e-14
5.94871e-14
6.29e-14
6.62779e-14
6.95947e-14
7.28233e-14
7.59363e-14
7.89065e-14
8.17066e-14
8.43106e-14
8.66931e-14
8.88309e-14
9.07022e-14
9.2288e-14
9.35716e-14
9.45396e-14
9.51816e-14
9.54906e-14
9.54635e-14
9.51004e-14
9.44054e-14
9.33861e-14
9.20539e-14
9.04231e-14
8.85118e-14
8.63406e-14
8.39327e-14
8.13139e-14
7.85118e-14
7.55554e-14
7.24749e-14
6.93015e-14
6.60666e-14
6.28014e-14
5.95372e-14
5.63042e-14
5.3132e-14
5.00487e-14
4.7081e-14
4.4254e-14
4.15912e-14
3.91137e-14
3.68412e-14
3.47909e-14
3.29781e-14
3.1416e-14
3.01157e-14
2.9086e-14
2.8334e-14
2.78644e-14
2.768e-14
2.77815e-14
2.81675e-14
2.88347e-14
2.97776e-14
3.09887e-14
3.24581e-14
3.41742e-14
3.61229e-14
3.82881e-14
4.06515e-14
4.31927e-14
4.58892e-14
4.87167e-14
5.16488e-14
5.46576e-14
5.77137e-14
6.07863e-14
6.3844e-14
6.68544e-14
6.97852e-14
7.2604e-14
7.5279e-14
7.77796e-14
8.00763e-14
8.21418e-14
8.39509e-14
8.54812e-14
8.67133e-14
8.76313e-14
8.82227e-14
8.84793e-14
8.83964e-14
8.79739e-14
8.72153e-14
8.61284e-14
8.47246e-14
8.30193e-14
8.10307e-14
7.87803e-14
7.62921e-14
7.35923e-14
7.07086e-14
6.76699e-14
6.45059e-14
6.12465e-14
5.79212e-14
5.45588e-14
5.11872e-14
4.78326e-14
4.45195e-14
4.12701e-14
3.81048e-14
3.50412e-14
3.20945e-14
2.92775e-14
2.66001e-14
2.40701e-14
2.16929e-14
1.94714e-14
1.74066e-14
1.54978e-14
1.37423e-14
1.21361e-14
1.06741e-14
9.35002e-15
8.1568e-15
7.08682e-15
6.13206e-15
5.28424e-15
4.53502e-15
3.87609e-15
3.29932e-15
2.79686e-15
2.36119e-15
1.9852e-15
1.66222e-15
1.38606e-15
1.15103e-15
9.51912e-16
7.83997e-16
6.4304e-16
5.25251e-16
4.27267e-16
3.46127e-16
2.79237e-16
2.24343e-16
1.79496e-16
1.4302e-16
1.13485e-16
8.96763e-17
7.05696e-17
5.53039e-17
4.3161e-17
3.35449e-17
2.59632e-17
2.00118e-17
1.53608e-17
1.17418e-17
8.93832e-18
6.77599e-18
5.11548e-18
3.84589e-18
2.87942e-18
2.14689e-18
1.59408e-18
1.17872e-18
8.67975e-19
6.36505e-19
4.64831e-19
3.38054e-19
2.44837e-19
1.7659e-19
1.2684e-19
9.07288e-20
6.46298e-20
4.58469e-20
3.23837e-20
2.27648e-20
1.58931e-20
1.09333e-20
7.21554e-21
4.17761e-21
1.3844e-21
2.74308e-21
8.21916e-21
1.3978e-20
2.06884e-20
2.92169e-20
4.05542e-20
5.58694e-20
7.66238e-20
1.04709e-19
1.42608e-19
1.9358e-19
2.61906e-19
3.53179e-19
4.7469e-19
6.35901e-19
8.49049e-19
1.1299e-18
1.49867e-18
1.98122e-18
2.61047e-18
3.42818e-18
4.4871e-18
5.85361e-18
7.61093e-18
9.86292e-18
1.27388e-17
1.63984e-17
2.10391e-17
2.69032e-17
3.42871e-17
4.35518e-17
5.51354e-17
6.95667e-17
8.74822e-17
1.09644e-16
1.36959e-16
1.70508e-16
2.11564e-16
2.61625e-16
3.22448e-16
3.96079e-16
4.8489e-16
5.91622e-16
7.19422e-16
8.71888e-16
1.05311e-15
1.26773e-15
1.52094e-15
1.81858e-15
2.16714e-15
2.57379e-15
3.04644e-15
3.59372e-15
4.22498e-15
4.95034e-15
5.78062e-15
6.7273e-15
7.80251e-15
9.01891e-15
1.03896e-14
1.1928e-14
1.36477e-14
1.55622e-14
1.7685e-14
2.0029e-14
2.26064e-14
2.54285e-14
2.85054e-14
3.18455e-14
3.54555e-14
3.93398e-14
4.35002e-14
4.7936e-14
5.2643e-14
5.76138e-14
6.28375e-14
6.82993e-14
7.39804e-14
7.9858e-14
8.59054e-14
9.20919e-14
9.83827e-14
1.0474e-13
1.11122e-13
1.17484e-13
1.23779e-13
1.29958e-13
1.35971e-13
1.41767e-13
1.47295e-13
1.52504e-13
1.57346e-13
1.61773e-13
1.65742e-13
1.69213e-13
1.7215e-13
1.74523e-13
1.76307e-13
1.77482e-13
1.78036e-13
1.77963e-13
1.77264e-13
1.75946e-13
1.74024e-13
1.71519e-13
1.68458e-13
1.64876e-13
1.6081e-13
1.56304e-13
1.51407e-13
1.46169e-13
1.40645e-13
1.34892e-13
1.28967e-13
1.22929e-13
1.16835e-13
1.10745e-13
1.04714e-13
9.87976e-14
9.30473e-14
8.75131e-14
8.22415e-14
7.72756e-14
7.26551e-14
6.84159e-14
6.45899e-14
6.12053e-14
5.82862e-14
5.58531e-14
5.39224e-14
5.25064e-14
5.16139e-14
5.12499e-14
5.14152e-14
5.21073e-14
5.33195e-14
5.50416e-14
5.72591e-14
5.99541e-14
6.31045e-14
6.66841e-14
7.0663e-14
7.50073e-14
7.96791e-14
8.46368e-14
8.98352e-14
9.52258e-14
1.00757e-13
1.06374e-13
1.12021e-13
1.17639e-13
1.2317e-13
1.28552e-13
1.33727e-13
1.38637e-13
1.43224e-13
1.47435e-13
1.5122e-13
1.54532e-13
1.5733e-13
1.5958e-13
1.6125e-13
1.6232e-13
1.62774e-13
1.62604e-13
1.61808e-13
1.60396e-13
1.5838e-13
1.55782e-13
1.5263e-13
1.48958e-13
1.44807e-13
1.40219e-13
1.35243e-13
1.2993e-13
1.24334e-13
1.18509e-13
1.1251e-13
1.06392e-13
1.00206e-13
9.4005e-14
8.78363e-14
8.17449e-14
7.57719e-14
6.99542e-14
6.43244e-14
5.89102e-14
5.37349e-14
4.8817e-14
4.41704e-14
3.98048e-14
3.57257e-14
3.19349e-14
2.84307e-14
2.52083e-14
2.22604e-14
1.95774e-14
1.71476e-14
1.49582e-14
1.29952e-14
1.12437e-14
9.68851e-15
8.31429e-15
7.10578e-15
6.04806e-15
5.12668e-15
4.32783e-15
3.63846e-15
3.04633e-15
2.54008e-15
2.10924e-15
1.74427e-15
1.43651e-15
1.17817e-15
9.6231e-16
7.82754e-16
6.34074e-16
5.11513e-16
4.10937e-16
3.28773e-16
2.61949e-16
2.07844e-16
1.64233e-16
1.29235e-16
1.01274e-16
7.90344e-17
6.14231e-17
4.75384e-17
3.664e-17
2.81231e-17
2.14966e-17
1.63633e-17
1.24043e-17
9.36412e-18
7.0398e-18
5.27049e-18
3.92951e-18
2.91758e-18
2.15728e-18
1.58849e-18
1.16483e-18
8.50628e-19
6.18606e-19
4.4801e-19
3.23118e-19
2.32078e-19
1.65999e-19
1.18243e-19
8.38758e-20
5.92429e-20
4.16442e-20
2.9072e-20
1.99975e-20
1.31954e-20
7.63777e-21
2.5303e-21
4.63352e-21
1.38871e-20
2.36225e-20
3.49669e-20
4.93818e-20
6.85403e-20
9.44166e-20
1.29479e-19
1.76921e-19
2.40933e-19
3.27019e-19
4.42401e-19
5.9652e-19
8.01677e-19
1.07384e-18
1.43365e-18
1.90769e-18
2.53008e-18
3.34443e-18
4.40624e-18
5.78593e-18
7.57243e-18
9.87766e-18
1.28419e-17
1.66401e-17
2.14901e-17
2.76613e-17
3.54861e-17
4.53727e-17
5.78203e-17
7.34372e-17
9.29607e-17
1.17282e-16
1.47471e-16
1.84812e-16
2.30832e-16
2.87347e-16
3.56501e-16
4.40815e-16
5.43243e-16
6.67224e-16
8.1675e-16
9.96428e-16
1.21155e-15
1.46816e-15
1.77313e-15
2.13425e-15
2.56025e-15
3.06095e-15
3.64722e-15
4.33112e-15
5.12589e-15
6.04602e-15
7.10721e-15
8.32641e-15
9.72174e-15
1.13125e-14
1.31189e-14
1.51622e-14
1.74642e-14
2.00475e-14
2.29348e-14
2.61486e-14
2.97114e-14
3.36447e-14
3.79689e-14
4.27027e-14
4.78628e-14
5.34633e-14
5.9515e-14
6.6025e-14
7.29964e-14
8.04273e-14
8.83107e-14
9.66339e-14
1.05378e-13
1.14519e-13
1.24023e-13
1.33854e-13
1.43966e-13
1.54307e-13
1.64818e-13
1.75437e-13
1.86092e-13
1.9671e-13
2.07212e-13
2.17516e-13
2.27538e-13
2.37191e-13
2.46392e-13
2.55056e-13
2.63101e-13
2.7045e-13
2.77029e-13
2.82773e-13
2.87623e-13
2.91527e-13
2.94445e-13
2.96344e-13
2.97206e-13
2.9702e-13
2.95789e-13
2.93526e-13
2.90255e-13
2.86014e-13
2.80848e-13
2.74813e-13
2.67975e-13
2.60407e-13
2.5219e-13
2.43409e-13
2.34156e-13
2.24524e-13
2.1461e-13
2.04512e-13
1.94327e-13
1.84151e-13
1.74078e-13
1.642e-13
1.54602e-13
1.45366e-13
1.36571e-13
1.28287e-13
1.2058e-13
1.13508e-13
1.07124e-13
1.01475e-13
9.66006e-14
9.25327e-14
8.92986e-14
8.69181e-14
8.54052e-14
8.47671e-14
8.5005e-14
8.61138e-14
8.80818e-14
9.08914e-14
9.45185e-14
9.89324e-14
1.04096e-13
1.09966e-13
1.16493e-13
1.23619e-13
1.31283e-13
1.39414e-13
1.4794e-13
1.56778e-13
1.65844e-13
1.75049e-13
1.84299e-13
1.93498e-13
2.02549e-13
2.11353e-13
2.19813e-13
2.27834e-13
2.35322e-13
2.42189e-13
2.48354e-13
2.5374e-13
2.58281e-13
2.6192e-13
2.64608e-13
2.66309e-13
2.67e-13
2.66667e-13
2.65311e-13
2.62943e-13
2.59587e-13
2.5528e-13
2.50068e-13
2.44006e-13
2.37161e-13
2.29605e-13
2.21417e-13
2.12681e-13
2.03485e-13
1.93917e-13
1.84069e-13
1.74029e-13
1.63884e-13
1.53716e-13
1.43606e-13
1.33625e-13
1.23841e-13
1.14315e-13
1.05099e-13
9.62383e-14
8.77706e-14
7.9726e-14
7.2127e-14
6.49891e-14
5.83211e-14
5.21257e-14
4.63998e-14
4.11354e-14
3.63204e-14
3.19387e-14
2.79714e-14
2.43971e-14
2.11929e-14
1.83344e-14
1.57967e-14
1.35546e-14
1.15832e-14
9.85798e-15
8.35534e-15
7.05271e-15
5.92873e-15
4.96342e-15
4.1382e-15
3.436e-15
2.84121e-15
2.33971e-15
1.91879e-15
1.56711e-15
1.27461e-15
1.03243e-15
8.32812e-16
6.69016e-16
5.35215e-16
4.26404e-16
3.38311e-16
2.67308e-16
2.10333e-16
1.64817e-16
1.28616e-16
9.99515e-17
7.73537e-17
5.96171e-17
4.57572e-17
3.4974e-17
2.66213e-17
2.01796e-17
1.52332e-17
1.14517e-17
8.57321e-18
6.3917e-18
4.74555e-18
3.50878e-18
2.58359e-18
1.89447e-18
1.38342e-18
1.00604e-18
7.28585e-19
5.25464e-19
3.77404e-19
2.69942e-19
1.92279e-19
1.36391e-19
9.63334e-20
6.77155e-20
4.72716e-20
3.25156e-20
2.14547e-20
1.24177e-20
4.11357e-21
7.59373e-21
2.27625e-20
3.87253e-20
5.73262e-20
8.09584e-20
1.12363e-19
1.54774e-19
2.12235e-19
2.8998e-19
3.94868e-19
5.35917e-19
7.2495e-19
9.77429e-19
1.31349e-18
1.75928e-18
2.34858e-18
3.12492e-18
4.14413e-18
5.47756e-18
7.21607e-18
9.47485e-18
1.23994e-17
1.61728e-17
2.10245e-17
2.72407e-17
3.51775e-17
4.52756e-17
5.80783e-17
7.4253e-17
9.46158e-17
1.2016e-16
1.52092e-16
1.91866e-16
2.41233e-16
3.02287e-16
3.77525e-16
4.69912e-16
5.82946e-16
7.20745e-16
8.88129e-16
1.09071e-15
1.33501e-15
1.62852e-15
1.9799e-15
2.39898e-15
2.89699e-15
3.4866e-15
4.18206e-15
4.99933e-15
5.95615e-15
7.07214e-15
8.36886e-15
9.86986e-15
1.16007e-14
1.35889e-14
1.5864e-14
1.84572e-14
2.14015e-14
2.47313e-14
2.84821e-14
3.26903e-14
3.73927e-14
4.26259e-14
4.84261e-14
5.48281e-14
6.18647e-14
6.95662e-14
7.79593e-14
8.70663e-14
9.69045e-14
1.07485e-13
1.18813e-13
1.30883e-13
1.43685e-13
1.57197e-13
1.71389e-13
1.86218e-13
2.01633e-13
2.17571e-13
2.33958e-13
2.5071e-13
2.67732e-13
2.84919e-13
3.02158e-13
3.19328e-13
3.363e-13
3.52943e-13
3.69118e-13
3.84689e-13
3.99516e-13
4.13465e-13
4.26403e-13
4.38205e-13
4.48755e-13
4.57945e-13
4.6568e-13
4.71881e-13
4.7648e-13
4.79429e-13
4.80697e-13
4.80268e-13
4.78149e-13
4.74362e-13
4.68949e-13
4.61969e-13
4.53499e-13
4.43631e-13
4.3247e-13
4.20138e-13
4.06763e-13
3.92487e-13
3.77457e-13
3.61824e-13
3.45746e-13
3.29379e-13
3.12881e-13
2.96407e-13
2.80108e-13
2.6413e-13
2.48612e-13
2.33686e-13
2.19476e-13
2.06095e-13
1.93647e-13
1.82227e-13
1.71919e-13
1.62794e-13
1.54916e-13
1.48337e-13
1.43098e-13
1.39229e-13
1.36752e-13
1.35678e-13
1.36006e-13
1.37728e-13
1.40823e-13
1.45262e-13
1.51005e-13
1.58002e-13
1.66194e-13
1.75509e-13
1.85866e-13
1.97176e-13
2.09336e-13
2.22236e-13
2.35757e-13
2.4977e-13
2.64138e-13
2.78719e-13
2.93365e-13
3.07923e-13
3.22237e-13
3.36152e-13
3.49512e-13
3.62167e-13
3.7397e-13
3.8478e-13
3.94469e-13
4.02919e-13
4.10022e-13
4.1569e-13
4.19847e-13
4.22439e-13
4.23426e-13
4.22791e-13
4.20535e-13
4.16678e-13
4.11259e-13
4.04337e-13
3.95985e-13
3.86294e-13
3.75368e-13
3.63323e-13
3.50285e-13
3.36387e-13
3.21769e-13
3.06572e-13
2.90938e-13
2.75009e-13
2.5892e-13
2.42805e-13
2.26787e-13
2.10982e-13
1.95495e-13
1.80421e-13
1.65843e-13
1.51832e-13
1.38446e-13
1.25733e-13
1.13728e-13
1.02455e-13
9.19269e-14
8.21474e-14
7.31113e-14
6.48056e-14
5.72106e-14
5.03008e-14
4.40458e-14
3.84117e-14
3.3362e-14
2.8858e-14
2.48602e-14
2.13288e-14
1.82243e-14
1.55079e-14
1.31424e-14
1.10921e-14
9.32328e-15
7.80437e-15
6.5061e-15
5.40151e-15
4.46602e-15
3.67735e-15
3.0155e-15
2.46259e-15
2.00277e-15
1.62209e-15
1.30835e-15
1.05094e-15
8.40694e-16
6.6973e-16
5.31329e-16
4.19788e-16
3.30291e-16
2.58801e-16
2.01946e-16
1.56929e-16
1.21443e-16
9.35926e-17
7.18306e-17
5.49005e-17
4.17872e-17
3.16744e-17
2.39096e-17
1.79736e-17
1.34554e-17
1.00313e-17
7.44761e-18
5.5065e-18
4.05447e-18
2.97298e-18
2.17095e-18
1.57873e-18
1.14331e-18
8.24563e-19
5.92221e-19
4.23589e-19
3.01722e-19
2.14022e-19
1.51165e-19
1.06259e-19
7.41792e-20
5.10255e-20
3.36699e-20
1.94894e-20
6.45677e-21
1.23161e-20
3.6922e-20
6.28205e-20
9.2999e-20
1.31336e-19
1.82275e-19
2.51061e-19
3.4425e-19
4.70325e-19
6.40406e-19
8.69106e-19
1.17559e-18
1.58491e-18
2.12971e-18
2.85233e-18
3.80751e-18
5.06577e-18
6.71754e-18
8.87841e-18
1.16955e-17
1.53554e-17
2.00936e-17
2.62066e-17
3.40659e-17
4.41348e-17
5.69895e-17
7.33433e-17
9.40755e-17
1.20266e-16
1.53235e-16
1.9459e-16
2.4628e-16
3.10659e-16
3.90557e-16
4.8936e-16
6.11106e-16
7.60582e-16
9.43447e-16
1.16635e-15
1.43708e-15
1.7647e-15
2.15973e-15
2.6343e-15
3.20234e-15
3.87976e-15
4.68464e-15
5.63743e-15
6.76113e-15
8.08145e-15
9.62698e-15
1.14293e-14
1.35232e-14
1.59466e-14
1.87407e-14
2.19496e-14
2.56209e-14
2.98048e-14
3.45542e-14
3.99244e-14
4.59725e-14
5.27567e-14
6.0336e-14
6.87691e-14
7.81139e-14
8.84258e-14
9.97573e-14
1.12156e-13
1.25666e-13
1.4032e-13
1.56147e-13
1.73164e-13
1.91376e-13
2.10777e-13
2.31348e-13
2.53053e-13
2.75841e-13
2.99646e-13
3.24381e-13
3.49947e-13
3.76222e-13
4.0307e-13
4.30339e-13
4.5786e-13
4.8545e-13
5.12914e-13
5.40046e-13
5.66633e-13
5.92457e-13
6.17295e-13
6.40926e-13
6.63134e-13
6.83708e-13
7.02449e-13
7.1917e-13
7.33701e-13
7.45893e-13
7.55618e-13
7.62772e-13
7.6728e-13
7.69092e-13
7.68188e-13
7.64579e-13
7.58304e-13
7.49432e-13
7.3806e-13
7.24312e-13
7.08339e-13
6.90311e-13
6.70422e-13
6.48881e-13
6.25914e-13
6.01757e-13
5.76654e-13
5.50855e-13
5.24612e-13
4.98175e-13
4.71792e-13
4.45703e-13
4.20141e-13
3.95325e-13
3.71466e-13
3.48758e-13
3.27382e-13
3.07502e-13
2.89265e-13
2.72803e-13
2.58231e-13
2.45644e-13
2.35125e-13
2.26735e-13
2.20523e-13
2.16519e-13
2.14737e-13
2.15177e-13
2.17822e-13
2.22637e-13
2.29574e-13
2.38569e-13
2.4954e-13
2.6239e-13
2.77007e-13
2.93261e-13
3.11007e-13
3.30085e-13
3.50319e-13
3.71519e-13
3.93481e-13
4.15992e-13
4.38825e-13
4.61746e-13
4.84516e-13
5.0689e-13
5.28623e-13
5.49474e-13
5.69203e-13
5.87583e-13
6.04395e-13
6.19437e-13
6.32525e-13
6.43494e-13
6.52205e-13
6.58544e-13
6.62425e-13
6.63791e-13
6.62614e-13
6.58899e-13
6.52679e-13
6.44019e-13
6.33011e-13
6.19773e-13
6.04448e-13
5.872e-13
5.68213e-13
5.47685e-13
5.25824e-13
5.0285e-13
4.78983e-13
4.54448e-13
4.29464e-13
4.04246e-13
3.78998e-13
3.53915e-13
3.29176e-13
3.04946e-13
2.81371e-13
2.58581e-13
2.36684e-13
2.15774e-13
1.95921e-13
1.77179e-13
1.59585e-13
1.43159e-13
1.27905e-13
1.13815e-13
1.00867e-13
8.90299e-14
7.82635e-14
6.85197e-14
5.97453e-14
5.18827e-14
4.48713e-14
3.86493e-14
3.31542e-14
2.83243e-14
2.40992e-14
2.04205e-14
1.72325e-14
1.44826e-14
1.21217e-14
1.0104e-14
8.38757e-15
6.93415e-15
5.70902e-15
4.68102e-15
3.82233e-15
3.10832e-15
2.51727e-15
2.03021e-15
1.63065e-15
1.30432e-15
1.03899e-15
8.24219e-16
6.51145e-16
5.1229e-16
4.01381e-16
3.13184e-16
2.43358e-16
1.88318e-16
1.45124e-16
1.11375e-16
8.51205e-17
6.47863e-17
4.91058e-17
3.70665e-17
2.78632e-17
2.08584e-17
1.555e-17
1.15447e-17
8.53555e-18
6.28467e-18
4.60823e-18
3.36501e-18
2.44704e-18
1.77213e-18
1.27807e-18
9.1794e-19
6.56563e-19
4.6767e-19
3.31737e-19
2.3431e-19
1.64707e-19
1.14985e-19
7.90991e-20
5.22001e-20
3.02201e-20
1.00134e-20
1.98655e-20
5.95592e-20
1.01344e-19
1.50035e-19
2.11881e-19
2.94049e-19
4.04996e-19
5.55291e-19
7.58612e-19
1.03288e-18
1.40166e-18
1.89584e-18
2.55578e-18
3.43409e-18
4.59901e-18
6.13873e-18
8.16687e-18
1.08291e-17
1.43116e-17
1.88514e-17
2.47489e-17
3.23836e-17
4.22326e-17
5.48941e-17
7.11142e-17
9.18203e-17
1.1816e-16
1.5155e-16
1.93726e-16
2.46813e-16
3.13398e-16
3.96616e-16
5.00253e-16
6.28858e-16
7.87879e-16
9.83804e-16
1.22433e-15
1.51855e-15
1.87716e-15
2.31266e-15
2.83961e-15
3.4749e-15
4.23803e-15
5.15133e-15
6.24036e-15
7.53413e-15
9.06544e-15
1.08712e-14
1.29926e-14
1.54754e-14
1.83704e-14
2.17332e-14
2.56246e-14
3.01102e-14
3.52612e-14
4.11533e-14
4.78668e-14
5.54864e-14
6.41003e-14
7.37995e-14
8.4677e-14
9.68269e-14
1.10343e-13
1.25316e-13
1.41835e-13
1.59984e-13
1.79837e-13
2.01462e-13
2.24915e-13
2.50237e-13
2.77455e-13
3.06578e-13
3.37592e-13
3.70466e-13
4.0514e-13
4.41534e-13
4.79536e-13
5.19011e-13
5.59795e-13
6.01694e-13
6.44489e-13
6.87935e-13
7.3176e-13
7.75674e-13
8.19363e-13
8.62499e-13
9.04741e-13
9.45739e-13
9.85142e-13
1.0226e-12
1.05776e-12
1.09029e-12
1.11988e-12
1.14624e-12
1.16908e-12
1.18819e-12
1.20335e-12
1.2144e-12
1.22124e-12
1.22377e-12
1.22199e-12
1.2159e-12
1.20557e-12
1.19111e-12
1.17269e-12
1.1505e-12
1.12479e-12
1.09583e-12
1.06393e-12
1.02943e-12
9.92686e-13
9.54075e-13
9.13986e-13
8.72817e-13
8.30969e-13
7.88839e-13
7.4682e-13
7.0529e-13
6.64619e-13
6.25154e-13
5.87225e-13
5.5114e-13
5.1718e-13
4.85604e-13
4.56644e-13
4.30502e-13
4.07358e-13
3.87362e-13
3.70636e-13
3.57279e-13
3.47361e-13
3.40928e-13
3.37999e-13
3.38568e-13
3.42606e-13
3.50056e-13
3.60839e-13
3.74849e-13
3.91957e-13
4.12006e-13
4.34818e-13
4.60186e-13
4.8788e-13
5.17647e-13
5.49209e-13
5.82267e-13
6.16502e-13
6.51575e-13
6.87132e-13
7.22808e-13
7.58225e-13
7.93004e-13
8.26761e-13
8.59118e-13
8.89706e-13
9.18167e-13
9.44164e-13
9.67383e-13
9.87539e-13
1.00438e-12
1.01769e-12
1.02729e-12
1.03305e-12
1.03489e-12
1.03277e-12
1.0267e-12
1.01673e-12
1.00297e-12
9.85563e-13
9.64696e-13
9.40595e-13
9.13518e-13
8.83751e-13
8.51605e-13
8.17407e-13
7.81498e-13
7.44223e-13
7.05929e-13
6.66959e-13
6.27646e-13
5.88307e-13
5.49245e-13
5.10736e-13
4.73035e-13
4.36369e-13
4.00937e-13
3.66909e-13
3.34423e-13
3.0359e-13
2.74493e-13
2.47187e-13
2.21701e-13
1.9804e-13
1.76191e-13
1.56118e-13
1.37773e-13
1.21091e-13
1.05997e-13
9.24079e-14
8.02336e-14
6.93799e-14
5.97502e-14
5.12474e-14
4.37753e-14
3.724e-14
3.1551e-14
2.66217e-14
2.23707e-14
1.87215e-14
1.56033e-14
1.29512e-14
1.07058e-14
8.81331e-15
7.22557e-15
5.89951e-15
4.79701e-15
3.8845e-15
3.13262e-15
2.51587e-15
2.01222e-15
1.60276e-15
1.27136e-15
1.00432e-15
7.90101e-16
6.19007e-16
4.82962e-16
3.75261e-16
2.90373e-16
2.2376e-16
1.71715e-16
1.31232e-16
9.98783e-17
7.57015e-17
5.71399e-17
4.29513e-17
3.21525e-17
2.39692e-17
1.77949e-17
1.31564e-17
9.68685e-18
7.10279e-18
5.18654e-18
3.77163e-18
2.73139e-18
1.96988e-18
1.41482e-18
1.01196e-18
7.20828e-19
5.11317e-19
3.61155e-19
2.53876e-19
1.77243e-19
1.21934e-19
8.0478e-20
4.65994e-20
1.54435e-20
3.19011e-20
9.56518e-20
1.62771e-19
2.4098e-19
3.40313e-19
4.72269e-19
6.50427e-19
8.91754e-19
1.2182e-18
1.65854e-18
2.25057e-18
3.04386e-18
4.10319e-18
5.51295e-18
7.3826e-18
9.85367e-18
1.31083e-17
1.73803e-17
2.29682e-17
3.02519e-17
3.97133e-17
5.19608e-17
6.77594e-17
8.80678e-17
1.14082e-16
1.47288e-16
1.89527e-16
2.43065e-16
3.10686e-16
3.95794e-16
5.0253e-16
6.35918e-16
8.02019e-16
1.00812e-15
1.26294e-15
1.57686e-15
1.9622e-15
2.43352e-15
3.00792e-15
3.70539e-15
4.54924e-15
5.56648e-15
6.78823e-15
8.25025e-15
9.99334e-15
1.20639e-14
1.45142e-14
1.74033e-14
2.07969e-14
2.47682e-14
2.93981e-14
3.47752e-14
4.09964e-14
4.81666e-14
5.6399e-14
6.5814e-14
7.65399e-14
8.87111e-14
1.02468e-13
1.17955e-13
1.3532e-13
1.54712e-13
1.7628e-13
2.00169e-13
2.26517e-13
2.55458e-13
2.8711e-13
3.21578e-13
3.5895e-13
3.9929e-13
4.42638e-13
4.89005e-13
5.38371e-13
5.9068e-13
6.45837e-13
7.03709e-13
7.6412e-13
8.26848e-13
8.91631e-13
9.58159e-13
1.02608e-12
1.09501e-12
1.1645e-12
1.2341e-12
1.30331e-12
1.37159e-12
1.43843e-12
1.50324e-12
1.56549e-12
1.6246e-12
1.68004e-12
1.73127e-12
1.7778e-12
1.81916e-12
1.85493e-12
1.88473e-12
1.90827e-12
1.92527e-12
1.93558e-12
1.93906e-12
1.93568e-12
1.92548e-12
1.90858e-12
1.88515e-12
1.85546e-12
1.81982e-12
1.77862e-12
1.73231e-12
1.68138e-12
1.62636e-12
1.56783e-12
1.50638e-12
1.44264e-12
1.37723e-12
1.31078e-12
1.24393e-12
1.17729e-12
1.11146e-12
1.04702e-12
9.84527e-13
9.24486e-13
8.67383e-13
8.13659e-13
7.63718e-13
7.17919e-13
6.7658e-13
6.39977e-13
6.0834e-13
5.81859e-13
5.60683e-13
5.44917e-13
5.34627e-13
5.29839e-13
5.30538e-13
5.36673e-13
5.48151e-13
5.64841e-13
5.86574e-13
6.13141e-13
6.44296e-13
6.79752e-13
7.19184e-13
7.62229e-13
8.08487e-13
8.57523e-13
9.08866e-13
9.62016e-13
1.01644e-12
1.0716e-12
1.1269e-12
1.18178e-12
1.23562e-12
1.28785e-12
1.33786e-12
1.3851e-12
1.429e-12
1.46904e-12
1.50474e-12
1.53566e-12
1.56141e-12
1.58165e-12
1.59613e-12
1.60465e-12
1.60707e-12
1.60334e-12
1.59348e-12
1.57759e-12
1.55582e-12
1.52841e-12
1.49566e-12
1.45792e-12
1.41558e-12
1.36911e-12
1.31898e-12
1.2657e-12
1.2098e-12
1.15181e-12
1.09228e-12
1.03174e-12
9.70699e-13
9.09649e-13
8.49056e-13
7.8935e-13
7.30921e-13
6.74119e-13
6.1925e-13
5.66573e-13
5.16302e-13
4.68606e-13
4.23609e-13
3.81394e-13
3.42004e-13
3.05447e-13
2.71697e-13
2.40701e-13
2.12378e-13
1.8663e-13
1.63339e-13
1.42375e-13
1.23598e-13
1.06862e-13
9.20155e-14
7.89094e-14
6.73943e-14
5.73249e-14
4.85609e-14
4.09687e-14
3.44223e-14
2.88035e-14
2.40033e-14
1.99211e-14
1.64654e-14
1.35533e-14
1.11105e-14
9.07055e-15
7.37473e-15
5.97131e-15
4.81508e-15
3.86676e-15
3.09243e-15
2.46297e-15
1.95356e-15
1.54312e-15
1.2139e-15
9.50971e-16
7.41922e-16
5.7644e-16
4.4602e-16
3.43684e-16
2.63735e-16
2.01548e-16
1.53389e-16
1.16255e-16
8.7747e-17
6.59562e-17
4.93722e-17
3.68054e-17
2.7324e-17
2.02013e-17
1.48737e-17
1.09059e-17
7.96351e-18
5.791e-18
4.19378e-18
3.02457e-18
2.17232e-18
1.55378e-18
1.10678e-18
7.85097e-19
5.54539e-19
3.89825e-19
2.72164e-19
1.87248e-19
1.23601e-19
7.15824e-20
2.37274e-20
5.10146e-20
1.52974e-19
2.60335e-19
3.85434e-19
5.44304e-19
7.55329e-19
1.04022e-18
1.42609e-18
1.94804e-18
2.65203e-18
3.59849e-18
4.86661e-18
6.55992e-18
8.81322e-18
1.18014e-17
1.57506e-17
2.09517e-17
2.77781e-17
3.67065e-17
4.8344e-17
6.34596e-17
8.30249e-17
1.08261e-16
1.40699e-16
1.82247e-16
2.35278e-16
3.02728e-16
3.88214e-16
4.9618e-16
6.32052e-16
8.0244e-16
1.01535e-15
1.28046e-15
1.60937e-15
2.016e-15
2.51688e-15
3.13168e-15
3.88355e-15
4.79976e-15
5.91217e-15
7.25788e-15
8.87991e-15
1.08278e-14
1.31585e-14
1.59369e-14
1.92368e-14
2.31416e-14
2.77448e-14
3.31512e-14
3.9477e-14
4.68506e-14
5.5413e-14
6.53181e-14
7.67323e-14
8.9835e-14
1.04818e-13
1.21883e-13
1.41245e-13
1.63125e-13
1.87752e-13
2.1536e-13
2.46185e-13
2.80461e-13
3.18417e-13
3.60273e-13
4.06235e-13
4.56491e-13
5.11206e-13
5.70515e-13
6.34517e-13
7.03274e-13
7.768e-13
8.55058e-13
9.37955e-13
1.02534e-12
1.117e-12
1.21264e-12
1.31192e-12
1.41441e-12
1.51963e-12
1.627e-12
1.73591e-12
1.84567e-12
1.95554e-12
2.06473e-12
2.17242e-12
2.27773e-12
2.3798e-12
2.47775e-12
2.57068e-12
2.65775e-12
2.73811e-12
2.81099e-12
2.87565e-12
2.93143e-12
2.97776e-12
3.01415e-12
3.0402e-12
3.05564e-12
3.06031e-12
3.05414e-12
3.03721e-12
3.0097e-12
2.97192e-12
2.92427e-12
2.86728e-12
2.80157e-12
2.72783e-12
2.64685e-12
2.55948e-12
2.46663e-12
2.36924e-12
2.2683e-12
2.16479e-12
2.05971e-12
1.95405e-12
1.84879e-12
1.74486e-12
1.64318e-12
1.5446e-12
1.44992e-12
1.35991e-12
1.27525e-12
1.19657e-12
1.12443e-12
1.05931e-12
1.00164e-12
9.51781e-13
9.10018e-13
8.76575e-13
8.51611e-13
8.35219e-13
8.27434e-13
8.28224e-13
8.375e-13
8.5511e-13
8.80842e-13
9.14425e-13
9.55527e-13
1.00376e-12
1.05866e-12
1.11972e-12
1.18638e-12
1.258e-12
1.3339e-12
1.41335e-12
1.49557e-12
1.57972e-12
1.66496e-12
1.75039e-12
1.8351e-12
1.91817e-12
1.99868e-12
2.07571e-12
2.1484e-12
2.21587e-12
2.27733e-12
2.33203e-12
2.37929e-12
2.41852e-12
2.44922e-12
2.47097e-12
2.48348e-12
2.48656e-12
2.48014e-12
2.46424e-12
2.43902e-12
2.40475e-12
2.36178e-12
2.31058e-12
2.2517e-12
2.18577e-12
2.11349e-12
2.0356e-12
1.9529e-12
1.8662e-12
1.77633e-12
1.68413e-12
1.59042e-12
1.49598e-12
1.40158e-12
1.30792e-12
1.21568e-12
1.12545e-12
1.03777e-12
9.53103e-13
8.71847e-13
7.94328e-13
7.20804e-13
6.51463e-13
5.86428e-13
5.25764e-13
4.69478e-13
4.17528e-13
3.69829e-13
3.26256e-13
2.86654e-13
2.50839e-13
2.18609e-13
1.89748e-13
1.64029e-13
1.41219e-13
1.21087e-13
1.03402e-13
8.79408e-14
7.44862e-14
6.28326e-14
5.27858e-14
4.41642e-14
3.67997e-14
3.05377e-14
2.52376e-14
2.07718e-14
1.70262e-14
1.38987e-14
1.12992e-14
9.14809e-15
7.37609e-15
5.92288e-15
4.73642e-15
3.77205e-15
2.99167e-15
2.36296e-15
1.8587e-15
1.45602e-15
1.13588e-15
8.82481e-16
6.82784e-16
5.26098e-16
4.03697e-16
3.08495e-16
2.34772e-16
1.7793e-16
1.34294e-16
1.00941e-16
7.55583e-17
5.6325e-17
4.18143e-17
3.09138e-17
2.27607e-17
1.66887e-17
1.2186e-17
8.86153e-18
6.41741e-18
4.62824e-18
3.32413e-18
2.37764e-18
1.69363e-18
1.20139e-18
8.48595e-19
5.96549e-19
4.16505e-19
2.86573e-19
1.89188e-19
1.09587e-19
3.63314e-20
8.12427e-20
2.43636e-19
4.14655e-19
6.13927e-19
8.66966e-19
1.20304e-18
1.65671e-18
2.27115e-18
3.10221e-18
4.22308e-18
5.72988e-18
7.74866e-18
1.04441e-17
1.40308e-17
1.8787e-17
2.50722e-17
3.33495e-17
4.42125e-17
5.84197e-17
7.69362e-17
1.00985e-16
1.32111e-16
1.72257e-16
2.23854e-16
2.89938e-16
3.74279e-16
4.81543e-16
6.1748e-16
7.89148e-16
1.00517e-15
1.27605e-15
1.6145e-15
2.03587e-15
2.55862e-15
3.20481e-15
4.00073e-15
4.97755e-15
6.17205e-15
7.62746e-15
9.39436e-15
1.15316e-14
1.41074e-14
1.72003e-14
2.09005e-14
2.5311e-14
3.05487e-14
3.67456e-14
4.405e-14
5.26276e-14
6.26625e-14
7.4358e-14
8.7937e-14
1.03643e-13
1.21739e-13
1.42508e-13
1.66254e-13
1.93296e-13
2.23971e-13
2.58629e-13
2.97632e-13
3.41347e-13
3.90146e-13
4.44397e-13
5.0446e-13
5.7068e-13
6.43381e-13
7.22856e-13
8.09361e-13
9.03105e-13
1.00424e-12
1.11286e-12
1.22899e-12
1.35255e-12
1.4834e-12
1.62129e-12
1.76588e-12
1.91671e-12
2.07321e-12
2.23472e-12
2.40046e-12
2.56953e-12
2.74095e-12
2.91363e-12
3.08639e-12
3.258e-12
3.42714e-12
3.59246e-12
3.75258e-12
3.9061e-12
4.05165e-12
4.18786e-12
4.31344e-12
4.42716e-12
4.52787e-12
4.61454e-12
4.68627e-12
4.74232e-12
4.78207e-12
4.8051e-12
4.81116e-12
4.80018e-12
4.77228e-12
4.72777e-12
4.66714e-12
4.59105e-12
4.50031e-12
4.39593e-12
4.27901e-12
4.15079e-12
4.01262e-12
3.86593e-12
3.71221e-12
3.553e-12
3.38985e-12
3.22434e-12
3.05801e-12
2.89239e-12
2.72896e-12
2.56912e-12
2.41422e-12
2.26552e-12
2.12419e-12
1.99129e-12
1.8678e-12
1.75459e-12
1.6524e-12
1.56189e-12
1.48361e-12
1.41799e-12
1.36538e-12
1.326e-12
1.29999e-12
1.2874e-12
1.28816e-12
1.30211e-12
1.32902e-12
1.36854e-12
1.42024e-12
1.48359e-12
1.55797e-12
1.64267e-12
1.73689e-12
1.83974e-12
1.95023e-12
2.06729e-12
2.18979e-12
2.31651e-12
2.44617e-12
2.57743e-12
2.70892e-12