/*--------------------------------*- C++ -*----------------------------------*\
| =========                 |                                                 |
| \\      /  F ield         | OpenFOAM: The Open Source CFD Toolbox           |
|  \\    /   O peration     | Version:  v2012                                 |
|   \\  /    A nd           | Website:  www.openfoam.com                      |
|    \\/     M anipulation  |                                                 |
\*---------------------------------------------------------------------------*/
FoamFile
{
    version     2.0;
    format      ascii;
    class       volScalarField;
    location    "4.1";
    object      Psi_z;
}
// * * * * * * * * * * * * * * * * * * * * * * * * * * * * * * * * * * * * * //

dimensions      [0 2 -1 0 0 0 0];


internalField   nonuniform List<scalar> 
65536
(
8.96198e-06
2.68854e-05
4.48074e-05
6.27272e-05
8.06437e-05
9.85561e-05
0.000116463
0.000134365
0.000152259
0.000170145
0.000188022
0.000205889
0.000223745
0.000241588
0.000259418
0.000277234
0.000295033
0.000312815
0.000330578
0.000348321
0.000366043
0.000383742
0.000401416
0.000419064
0.000436684
0.000454275
0.000471834
0.00048936
0.00050685
0.000524304
0.000541718
0.00055909
0.000576418
0.000593701
0.000610934
0.000628117
0.000645246
0.000662318
0.000679332
0.000696283
0.00071317
0.000729989
0.000746737
0.000763411
0.000780008
0.000796524
0.000812956
0.000829301
0.000845554
0.000861713
0.000877774
0.000893733
0.000909585
0.000925328
0.000940957
0.000956468
0.000971857
0.00098712
0.00100225
0.00101725
0.00103211
0.00104683
0.00106139
0.00107581
0.00109007
0.00110417
0.00111811
0.00113187
0.00114546
0.00115887
0.0011721
0.00118514
0.00119799
0.00121064
0.0012231
0.00123534
0.00124738
0.0012592
0.00127081
0.00128219
0.00129335
0.00130428
0.00131497
0.00132543
0.00133564
0.00134561
0.00135533
0.0013648
0.00137401
0.00138296
0.00139165
0.00140008
0.00140824
0.00141612
0.00142374
0.00143107
0.00143813
0.00144491
0.00145141
0.00145762
0.00146355
0.00146919
0.00147454
0.0014796
0.00148437
0.00148885
0.00149304
0.00149693
0.00150053
0.00150383
0.00150684
0.00150955
0.00151197
0.0015141
0.00151593
0.00151747
0.00151871
0.00151967
0.00152034
0.00152071
0.0015208
0.0015206
0.00152012
0.00151935
0.0015183
0.00151698
0.00151537
0.00151349
0.00151134
0.00150891
0.00150622
0.00150326
0.00150004
0.00149655
0.00149281
0.00148881
0.00148456
0.00148006
0.00147531
0.00147032
0.00146509
0.00145962
0.00145392
0.00144798
0.00144182
0.00143543
0.00142882
0.00142199
0.00141495
0.00140769
0.00140023
0.00139256
0.00138469
0.00137662
0.00136836
0.0013599
0.00135126
0.00134243
0.00133342
0.00132423
0.00131486
0.00130533
0.00129562
0.00128575
0.00127571
0.00126552
0.00125517
0.00124467
0.00123402
0.00122322
0.00121228
0.0012012
0.00118998
0.00117863
0.00116715
0.00115554
0.0011438
0.00113194
0.00111996
0.00110786
0.00109565
0.00108333
0.00107089
0.00105836
0.00104572
0.00103298
0.00102014
0.0010072
0.000994173
0.000981055
0.000967848
0.000954555
0.000941179
0.000927722
0.000914186
0.000900573
0.000886886
0.000873127
0.000859298
0.000845401
0.000831439
0.000817412
0.000803324
0.000789176
0.00077497
0.000760708
0.000746391
0.000732023
0.000717604
0.000703135
0.00068862
0.000674059
0.000659454
0.000644807
0.000630119
0.000615392
0.000600628
0.000585826
0.00057099
0.000556121
0.000541219
0.000526286
0.000511324
0.000496333
0.000481316
0.000466272
0.000451204
0.000436112
0.000420997
0.000405861
0.000390704
0.000375528
0.000360333
0.000345121
0.000329892
0.000314648
0.000299388
0.000284115
0.000268829
0.00025353
0.00023822
0.0002229
0.000207569
0.00019223
0.000176882
0.000161526
0.000146163
0.000130794
0.00011542
0.00010004
8.46565e-05
6.92692e-05
5.38791e-05
3.84866e-05
2.30926e-05
7.69765e-06
2.68862e-05
8.06572e-05
0.000134424
0.000188184
0.000241935
0.000295673
0.000349396
0.0004031
0.000456784
0.000510444
0.000564076
0.000617678
0.000671246
0.000724778
0.000778268
0.000831715
0.000885113
0.00093846
0.000991751
0.00104498
0.00109815
0.00115125
0.00120427
0.00125722
0.00131008
0.00136285
0.00141553
0.00146811
0.00152059
0.00157295
0.00162519
0.00167731
0.0017293
0.00178115
0.00183285
0.0018844
0.00193579
0.00198701
0.00203805
0.00208891
0.00213957
0.00219003
0.00224028
0.00229031
0.0023401
0.00238965
0.00243895
0.00248799
0.00253675
0.00258523
0.00263342
0.0026813
0.00272886
0.00277609
0.00282298
0.00286952
0.00291569
0.00296149
0.00300689
0.00305189
0.00309647
0.00314062
0.00318433
0.00322758
0.00327037
0.00331267
0.00335448
0.00339578
0.00343655
0.00347679
0.00351648
0.00355561
0.00359416
0.00363213
0.00366949
0.00370623
0.00374235
0.00377782
0.00381265
0.0038468
0.00388028
0.00391307
0.00394515
0.00397652
0.00400717
0.00403708
0.00406624
0.00409464
0.00412228
0.00414914
0.00417522
0.0042005
0.00422497
0.00424864
0.00427148
0.0042935
0.00431468
0.00433502
0.00435451
0.00437316
0.00439094
0.00440786
0.00442392
0.0044391
0.00445341
0.00446684
0.0044794
0.00449107
0.00450187
0.00451178
0.0045208
0.00452894
0.0045362
0.00454258
0.00454807
0.00455269
0.00455643
0.0045593
0.00456129
0.00456242
0.00456268
0.00456209
0.00456063
0.00455833
0.00455519
0.0045512
0.00454639
0.00454074
0.00453428
0.004527
0.00451892
0.00451004
0.00450036
0.00448991
0.00447868
0.00446668
0.00445393
0.00444042
0.00442618
0.0044112
0.00439551
0.0043791
0.00436198
0.00434417
0.00432568
0.00430651
0.00428668
0.00426619
0.00424506
0.00422329
0.0042009
0.00417789
0.00415427
0.00413006
0.00410527
0.0040799
0.00405396
0.00402747
0.00400043
0.00397286
0.00394476
0.00391614
0.00388702
0.00385741
0.0038273
0.00379672
0.00376567
0.00373417
0.00370221
0.00366982
0.00363699
0.00360374
0.00357009
0.00353603
0.00350157
0.00346673
0.00343151
0.00339593
0.00335999
0.00332369
0.00328706
0.00325009
0.00321279
0.00317518
0.00313725
0.00309903
0.00306051
0.0030217
0.00298261
0.00294325
0.00290363
0.00286375
0.00282362
0.00278325
0.00274263
0.0027018
0.00266073
0.00261945
0.00257796
0.00253627
0.00249438
0.0024523
0.00241003
0.00236759
0.00232497
0.00228218
0.00223923
0.00219612
0.00215286
0.00210945
0.00206591
0.00202222
0.00197841
0.00193446
0.0018904
0.00184622
0.00180192
0.00175752
0.00171301
0.0016684
0.00162369
0.00157889
0.001534
0.00148903
0.00144397
0.00139884
0.00135364
0.00130836
0.00126301
0.0012176
0.00117213
0.0011266
0.00108102
0.00103538
0.000989693
0.000943959
0.00089818
0.000852359
0.0008065
0.000760603
0.000714673
0.00066871
0.000622718
0.000576698
0.000530653
0.000484585
0.000438496
0.000392388
0.000346264
0.000300125
0.000253973
0.000207811
0.00016164
0.000115462
6.92789e-05
2.30933e-05
4.48118e-05
0.000134433
0.000224048
0.000313651
0.000403238
0.000492805
0.000582346
0.000671857
0.000761333
0.000850769
0.00094016
0.0010295
0.00111878
0.00120801
0.00129716
0.00138624
0.00147525
0.00156416
0.00165299
0.00174171
0.00183032
0.00191883
0.00200721
0.00209545
0.00218356
0.00227153
0.00235933
0.00244697
0.00253443
0.00262171
0.00270879
0.00279566
0.00288232
0.00296874
0.00305492
0.00314085
0.0032265
0.00331188
0.00339696
0.00348173
0.00356618
0.00365029
0.00373405
0.00381743
0.00390043
0.00398303
0.00406521
0.00414695
0.00422824
0.00430905
0.00438937
0.00446918
0.00454847
0.0046272
0.00470536
0.00478294
0.00485991
0.00493624
0.00501193
0.00508694
0.00516126
0.00523486
0.00530772
0.00537983
0.00545115
0.00552167
0.00559137
0.00566021
0.00572819
0.00579527
0.00586143
0.00592666
0.00599093
0.00605421
0.0061165
0.00617775
0.00623796
0.0062971
0.00635515
0.00641209
0.0064679
0.00652256
0.00657604
0.00662834
0.00667943
0.00672929
0.0067779
0.00682526
0.00687133
0.00691611
0.00695958
0.00700172
0.00704252
0.00708197
0.00712005
0.00715675
0.00719206
0.00722597
0.00725847
0.00728954
0.00731919
0.0073474
0.00737416
0.00739947
0.00742332
0.00744572
0.00746664
0.0074861
0.00750409
0.00752061
0.00753565
0.00754922
0.00756132
0.00757194
0.0075811
0.00758879
0.00759502
0.0075998
0.00760312
0.00760499
0.00760542
0.00760442
0.007602
0.00759816
0.00759291
0.00758626
0.00757823
0.00756881
0.00755803
0.0075459
0.00753242
0.0075176
0.00750148
0.00748404
0.00746532
0.00744531
0.00742404
0.00740153
0.00737778
0.00735281
0.00732664
0.00729927
0.00727074
0.00724105
0.00721022
0.00717826
0.00714519
0.00711104
0.0070758
0.00703951
0.00700218
0.00696382
0.00692445
0.00688409
0.00684275
0.00680046
0.00675722
0.00671305
0.00666798
0.00662201
0.00657517
0.00652747
0.00647892
0.00642955
0.00637937
0.00632839
0.00627663
0.00622411
0.00617084
0.00611684
0.00606212
0.0060067
0.00595059
0.00589381
0.00583638
0.0057783
0.0057196
0.00566028
0.00560037
0.00553987
0.0054788
0.00541718
0.00535501
0.00529231
0.00522909
0.00516537
0.00510116
0.00503647
0.00497132
0.00490572
0.00483967
0.00477319
0.0047063
0.004639
0.00457131
0.00450324
0.00443479
0.00436599
0.00429683
0.00422734
0.00415752
0.00408737
0.00401692
0.00394617
0.00387513
0.00380381
0.00373222
0.00366037
0.00358826
0.00351592
0.00344333
0.00337052
0.00329749
0.00322424
0.0031508
0.00307715
0.00300332
0.00292931
0.00285512
0.00278077
0.00270625
0.00263158
0.00255676
0.00248181
0.00240671
0.00233149
0.00225614
0.00218067
0.00210509
0.00202941
0.00195362
0.00187773
0.00180175
0.00172569
0.00164954
0.00157331
0.00149701
0.00142064
0.00134421
0.00126771
0.00119116
0.00111455
0.00103789
0.000961191
0.000884447
0.000807665
0.000730848
0.000653999
0.000577123
0.000500222
0.000423301
0.000346361
0.000269407
0.000192441
0.000115468
3.84899e-05
6.27397e-05
0.000188216
0.000313683
0.000439134
0.000564562
0.000689962
0.000815327
0.000940649
0.00106592
0.00119114
0.0013163
0.00144138
0.00156639
0.00169131
0.00181613
0.00194085
0.00206547
0.00218996
0.00231432
0.00243854
0.00256262
0.00268653
0.00281027
0.00293383
0.0030572
0.00318036
0.0033033
0.003426
0.00354847
0.00367067
0.0037926
0.00391424
0.00403557
0.00415658
0.00427725
0.00439756
0.0045175
0.00463705
0.00475618
0.00487488
0.00499313
0.0051109
0.00522818
0.00534495
0.00546117
0.00557683
0.00569191
0.00580637
0.00592019
0.00603336
0.00614584
0.0062576
0.00636862
0.00647888
0.00658834
0.00669697
0.00680475
0.00691165
0.00701764
0.00712269
0.00722676
0.00732984
0.00743188
0.00753285
0.00763274
0.0077315
0.0078291
0.00792552
0.00802071
0.00811466
0.00820732
0.00829867
0.00838867
0.00847731
0.00856453
0.00865032
0.00873464
0.00881747
0.00889876
0.00897851
0.00905667
0.00913322
0.00920813
0.00928137
0.00935292
0.00942275
0.00949083
0.00955715
0.00962168
0.00968439
0.00974527
0.00980429
0.00986143
0.00991668
0.00997001
0.0100214
0.0100709
0.0101183
0.0101638
0.0102074
0.0102489
0.0102884
0.0103259
0.0103613
0.0103947
0.0104261
0.0104554
0.0104826
0.0105078
0.0105309
0.010552
0.010571
0.0105879
0.0106028
0.0106156
0.0106264
0.0106351
0.0106417
0.0106464
0.010649
0.0106496
0.0106482
0.0106448
0.0106394
0.010632
0.0106227
0.0106114
0.0105983
0.0105831
0.0105661
0.0105472
0.0105265
0.0105039
0.0104795
0.0104532
0.0104252
0.0103954
0.0103639
0.0103306
0.0102956
0.010259
0.0102206
0.0101807
0.0101391
0.0100959
0.0100511
0.0100048
0.00995696
0.00990761
0.00985678
0.00980449
0.00975076
0.00969562
0.00963909
0.0095812
0.00952196
0.0094614
0.00939955
0.00933642
0.00927205
0.00920644
0.00913964
0.00907165
0.00900251
0.00893223
0.00886083
0.00878835
0.0087148
0.0086402
0.00856457
0.00848795
0.00841034
0.00833177
0.00825226
0.00817183
0.0080905
0.0080083
0.00792524
0.00784134
0.00775662
0.0076711
0.00758481
0.00749775
0.00740995
0.00732143
0.00723221
0.0071423
0.00705172
0.00696048
0.00686862
0.00677614
0.00668306
0.00658939
0.00649516
0.00640037
0.00630506
0.00620922
0.00611287
0.00601604
0.00591874
0.00582097
0.00572275
0.00562411
0.00552505
0.00542558
0.00532572
0.00522548
0.00512487
0.00502391
0.00492261
0.00482098
0.00471903
0.00461678
0.00451423
0.00441139
0.00430828
0.0042049
0.00410128
0.0039974
0.0038933
0.00378897
0.00368442
0.00357967
0.00347472
0.00336958
0.00326425
0.00315876
0.0030531
0.00294728
0.00284131
0.0027352
0.00262896
0.00252258
0.00241608
0.00230947
0.00220274
0.00209592
0.00198899
0.00188198
0.00177488
0.00166769
0.00156044
0.00145311
0.00134573
0.00123828
0.00113078
0.00102323
0.000915638
0.000808007
0.000700341
0.000592646
0.000484926
0.000377185
0.000269429
0.000161662
5.38881e-05
8.06709e-05
0.000242008
0.000403334
0.000564639
0.000725916
0.000887156
0.00104835
0.00120949
0.00137057
0.00153158
0.0016925
0.00185334
0.00201407
0.0021747
0.0023352
0.00249558
0.00265581
0.00281588
0.00297579
0.00313553
0.00329507
0.0034544
0.00361352
0.0037724
0.00393104
0.00408941
0.0042475
0.00440529
0.00456276
0.00471991
0.0048767
0.00503311
0.00518914
0.00534475
0.00549993
0.00565465
0.00580889
0.00596263
0.00611583
0.00626848
0.00642055
0.00657201
0.00672284
0.006873
0.00702247
0.00717122
0.00731921
0.00746642
0.00761281
0.00775836
0.00790302
0.00804676
0.00818955
0.00833135
0.00847213
0.00861186
0.00875048
0.00888797
0.0090243
0.00915941
0.00929327
0.00942585
0.0095571
0.00968698
0.00981545
0.00994248
0.010068
0.010192
0.0103145
0.0104353
0.0105545
0.010672
0.0107878
0.0109018
0.011014
0.0111244
0.0112328
0.0113394
0.0114439
0.0115465
0.0116471
0.0117455
0.0118419
0.0119361
0.0120281
0.012118
0.0122055
0.0122908
0.0123738
0.0124545
0.0125328
0.0126087
0.0126822
0.0127533
0.0128219
0.012888
0.0129516
0.0130127
0.0130712
0.0131272
0.0131806
0.0132314
0.0132796
0.0133252
0.0133681
0.0134084
0.0134461
0.0134812
0.0135136
0.0135433
0.0135704
0.0135948
0.0136166
0.0136357
0.0136521
0.013666
0.0136772
0.0136857
0.0136917
0.013695
0.0136958
0.013694
0.0136896
0.0136826
0.0136731
0.0136611
0.0136466
0.0136296
0.0136102
0.0135883
0.0135639
0.0135372
0.0135081
0.0134767
0.0134429
0.0134069
0.0133685
0.0133279
0.0132851
0.0132401
0.0131929
0.0131436
0.0130922
0.0130387
0.0129831
0.0129255
0.0128659
0.0128044
0.0127409
0.0126755
0.0126082
0.0125391
0.0124682
0.0123955
0.012321
0.0122448
0.0121669
0.0120873
0.0120061
0.0119233
0.0118389
0.011753
0.0116655
0.0115766
0.0114862
0.0113944
0.0113011
0.0112065
0.0111106
0.0110133
0.0109148
0.0108149
0.0107139
0.0106116
0.0105082
0.0104036
0.0102979
0.010191
0.0100831
0.00997416
0.00986418
0.0097532
0.00964124
0.00952832
0.00941448
0.00929973
0.0091841
0.00906761
0.00895028
0.00883214
0.00871321
0.0085935
0.00847305
0.00835186
0.00822997
0.00810739
0.00798414
0.00786025
0.00773573
0.00761059
0.00748487
0.00735857
0.00723171
0.00710432
0.00697641
0.006848
0.0067191
0.00658973
0.0064599
0.00632964
0.00619895
0.00606785
0.00593636
0.00580449
0.00567226
0.00553967
0.00540674
0.00527349
0.00513992
0.00500605
0.0048719
0.00473747
0.00460277
0.00446782
0.00433262
0.0041972
0.00406155
0.00392568
0.00378962
0.00365336
0.00351692
0.00338031
0.00324353
0.00310659
0.0029695
0.00283227
0.00269492
0.00255743
0.00241983
0.00228212
0.00214431
0.0020064
0.0018684
0.00173032
0.00159217
0.00145394
0.00131566
0.00117732
0.00103892
0.000900489
0.000762016
0.000623511
0.000484979
0.000346428
0.000207863
6.92885e-05
9.8606e-05
0.000295813
0.000493005
0.000690173
0.000887306
0.00108439
0.00128143
0.0014784
0.00167529
0.00187209
0.0020688
0.00226539
0.00246187
0.00265821
0.00285441
0.00305044
0.0032463
0.00344198
0.00363745
0.0038327
0.00402772
0.0042225
0.004417
0.00461122
0.00480514
0.00499874
0.00519199
0.00538489
0.00557739
0.0057695
0.00596117
0.00615239
0.00634313
0.00653337
0.00672307
0.00691222
0.00710079
0.00728874
0.00747604
0.00766267
0.00784858
0.00803376
0.00821816
0.00840175
0.0085845
0.00876637
0.00894731
0.0091273
0.00930629
0.00948424
0.00966111
0.00983687
0.0100115
0.0101849
0.010357
0.0105278
0.0106973
0.0108655
0.0110322
0.0111974
0.0113611
0.0115232
0.0116837
0.0118425
0.0119996
0.012155
0.0123085
0.0124601
0.0126099
0.0127577
0.0129034
0.0130471
0.0131887
0.0133281
0.0134653
0.0136003
0.0137329
0.0138632
0.0139911
0.0141166
0.0142395
0.0143599
0.0144778
0.014593
0.0147056
0.0148154
0.0149225
0.0150268
0.0151283
0.015227
0.0153228
0.0154156
0.0155055
0.0155924
0.0156763
0.0157571
0.0158349
0.0159096
0.0159812
0.0160496
0.0161149
0.016177
0.0162359
0.0162917
0.0163442
0.0163935
0.0164396
0.0164824
0.016522
0.0165583
0.0165914
0.0166213
0.0166479
0.0166712
0.0166913
0.0167082
0.0167219
0.0167323
0.0167396
0.0167437
0.0167446
0.0167423
0.0167369
0.0167284
0.0167167
0.016702
0.0166842
0.0166634
0.0166396
0.0166128
0.016583
0.0165503
0.0165147
0.0164763
0.0164349
0.0163908
0.0163439
0.0162942
0.0162418
0.0161868
0.0161291
0.0160687
0.0160058
0.0159404
0.0158724
0.0158019
0.015729
0.0156538
0.0155761
0.0154961
0.0154138
0.0153293
0.0152425
0.0151536
0.0150625
0.0149693
0.014874
0.0147767
0.0146774
0.0145761
0.0144729
0.0143679
0.0142609
0.0141522
0.0140416
0.0139293
0.0138153
0.0136996
0.0135823
0.0134633
0.0133428
0.0132208
0.0130972
0.0129722
0.0128457
0.0127178
0.0125885
0.0124579
0.012326
0.0121927
0.0120583
0.0119226
0.0117857
0.0116476
0.0115084
0.0113681
0.0112268
0.0110843
0.0109409
0.0107965
0.010651
0.0105047
0.0103574
0.0102093
0.0100603
0.00991039
0.00975972
0.00960825
0.00945602
0.00930304
0.00914934
0.00899494
0.00883986
0.00868412
0.00852775
0.00837077
0.00821319
0.00805504
0.00789633
0.00773709
0.00757733
0.00741707
0.00725633
0.00709512
0.00693347
0.0067714
0.0066089
0.00644601
0.00628274
0.0061191
0.00595511
0.00579078
0.00562613
0.00546116
0.0052959
0.00513036
0.00496454
0.00479847
0.00463215
0.00446559
0.00429881
0.00413182
0.00396463
0.00379724
0.00362968
0.00346194
0.00329404
0.00312599
0.00295779
0.00278947
0.00262101
0.00245244
0.00228377
0.00211499
0.00194612
0.00177717
0.00160814
0.00143904
0.00126989
0.00110067
0.000931417
0.000762121
0.000592794
0.000423442
0.000254072
8.46918e-05
0.000116546
0.000349633
0.000582702
0.000815742
0.00104874
0.00128169
0.00151457
0.00174738
0.00198009
0.00221271
0.00244521
0.00267758
0.0029098
0.00314187
0.00337377
0.00360548
0.00383699
0.00406827
0.00429932
0.00453011
0.00476063
0.00499086
0.00522077
0.00545035
0.00567957
0.00590841
0.00613685
0.00636487
0.00659243
0.00681952
0.00704609
0.00727214
0.00749762
0.00772251
0.00794678
0.00817038
0.0083933
0.00861549
0.00883692
0.00905756
0.00927736
0.00949628
0.0097143
0.00993135
0.0101474
0.0103624
0.0105764
0.0107892
0.0110008
0.0112112
0.0114203
0.0116281
0.0118346
0.0120396
0.0122431
0.0124452
0.0126456
0.0128444
0.0130415
0.0132369
0.0134304
0.0136222
0.0138119
0.0139998
0.0141855
0.0143692
0.0145508
0.0147302
0.0149072
0.015082
0.0152544
0.0154243
0.0155918
0.0157566
0.0159189
0.0160785
0.0162354
0.0163895
0.0165407
0.0166891
0.0168345
0.0169769
0.0171163
0.0172526
0.0173857
0.0175156
0.0176423
0.0177657
0.0178857
0.0180024
0.0181156
0.0182254
0.0183317
0.0184345
0.0185337
0.0186293
0.0187213
0.0188096
0.0188942
0.0189752
0.0190524
0.0191258
0.0191955
0.0192614
0.0193235
0.0193818
0.0194362
0.0194868
0.0195336
0.0195766
0.0196157
0.019651
0.0196824
0.01971
0.0197338
0.0197537
0.0197698
0.0197822
0.0197907
0.0197955
0.0197965
0.0197938
0.0197873
0.0197772
0.0197634
0.019746
0.0197249
0.0197003
0.0196721
0.0196403
0.0196051
0.0195664
0.0195242
0.0194787
0.0194298
0.0193775
0.019322
0.0192632
0.0192013
0.0191361
0.0190678
0.0189964
0.018922
0.0188445
0.0187641
0.0186808
0.0185945
0.0185055
0.0184136
0.018319
0.0182217
0.0181217
0.0180191
0.0179139
0.0178061
0.0176959
0.0175832
0.0174681
0.0173507
0.0172309
0.0171089
0.0169846
0.0168581
0.0167295
0.0165988
0.016466
0.0163311
0.0161943
0.0160556
0.015915
0.0157724
0.0156281
0.015482
0.0153342
0.0151846
0.0150334
0.0148805
0.0147261
0.0145701
0.0144126
0.0142536
0.0140931
0.0139313
0.0137681
0.0136035
0.0134376
0.0132705
0.0131021
0.0129325
0.0127617
0.0125898
0.0124168
0.0122427
0.0120676
0.0118914
0.0117142
0.0115361
0.011357
0.0111771
0.0109962
0.0108145
0.010632
0.0104487
0.0102646
0.0100797
0.00989413
0.00970786
0.0095209
0.00933329
0.00914505
0.0089562
0.00876676
0.00857676
0.0083862
0.00819512
0.00800354
0.00781146
0.00761892
0.00742592
0.0072325
0.00703865
0.00684441
0.00664979
0.0064548
0.00625947
0.00606379
0.0058678
0.0056715
0.00547492
0.00527805
0.00508092
0.00488354
0.00468592
0.00448808
0.00429002
0.00409176
0.00389332
0.00369469
0.00349589
0.00329694
0.00309784
0.0028986
0.00269923
0.00249975
0.00230016
0.00210047
0.00190069
0.00170083
0.0015009
0.00130091
0.00110086
0.000900764
0.000700633
0.000500472
0.000300292
0.000100099
0.000134492
0.000403469
0.000672427
0.000941351
0.00121023
0.00147905
0.00174779
0.00201645
0.002285
0.00255344
0.00282174
0.0030899
0.00335789
0.00362571
0.00389332
0.00416072
0.00442789
0.00469481
0.00496145
0.0052278
0.00549383
0.00575953
0.00602487
0.00628983
0.00655438
0.00681849
0.00708214
0.00734531
0.00760795
0.00787004
0.00813156
0.00839246
0.00865271
0.00891228
0.00917114
0.00942924
0.00968654
0.00994301
0.0101986
0.0104533
0.010707
0.0109597
0.0112114
0.011462
0.0117114
0.0119596
0.0122066
0.0124522
0.0126965
0.0129394
0.0131809
0.0134208
0.0136591
0.0138958
0.0141308
0.0143641
0.0145955
0.014825
0.0150526
0.0152782
0.0155017
0.015723
0.0159422
0.016159
0.0163736
0.0165857
0.0167953
0.0170024
0.0172069
0.0174087
0.0176078
0.017804
0.0179974
0.0181878
0.0183752
0.0185595
0.0187406
0.0189186
0.0190933
0.0192646
0.0194325
0.019597
0.0197579
0.0199153
0.020069
0.020219
0.0203653
0.0205078
0.0206464
0.0207812
0.0209119
0.0210387
0.0211615
0.0212802
0.0213947
0.0215051
0.0216113
0.0217133
0.021811
0.0219045
0.0219936
0.0220784
0.0221588
0.0222349
0.0223066
0.0223739
0.0224367
0.0224951
0.0225491
0.0225987
0.0226438
0.0226845
0.0227208
0.0227526
0.02278
0.022803
0.0228216
0.0228358
0.0228456
0.022851
0.0228521
0.022849
0.0228415
0.0228297
0.0228137
0.0227935
0.0227692
0.0227407
0.022708
0.0226713
0.0226306
0.0225858
0.0225371
0.0224844
0.0224279
0.0223676
0.0223034
0.0222355
0.0221638
0.0220885
0.0220096
0.0219272
0.0218412
0.0217517
0.0216588
0.0215625
0.0214629
0.02136
0.0212539
0.0211446
0.0210322
0.0209167
0.0207982
0.0206767
0.0205522
0.0204249
0.0202948
0.0201619
0.0200263
0.019888
0.019747
0.0196035
0.0194575
0.0193089
0.019158
0.0190046
0.018849
0.018691
0.0185308
0.0183684
0.0182039
0.0180372
0.0178686
0.0176978
0.0175252
0.0173506
0.0171741
0.0169958
0.0168157
0.0166339
0.0164503
0.0162651
0.0160783
0.0158898
0.0156999
0.0155084
0.0153154
0.015121
0.0149253
0.0147282
0.0145297
0.01433
0.014129
0.0139268
0.0137235
0.013519
0.0133134
0.0131067
0.012899
0.0126902
0.0124805
0.0122698
0.0120582
0.0118457
0.0116324
0.0114182
0.0112032
0.0109874
0.0107709
0.0105536
0.0103357
0.010117
0.00989773
0.00967781
0.00945728
0.00923616
0.00901449
0.00879227
0.00856954
0.00834631
0.0081226
0.00789843
0.00767382
0.00744879
0.00722336
0.00699755
0.00677136
0.00654483
0.00631796
0.00609077
0.00586328
0.0056355
0.00540744
0.00517913
0.00495057
0.00472178
0.00449277
0.00426356
0.00403415
0.00380456
0.0035748
0.00334488
0.00311482
0.00288462
0.0026543
0.00242386
0.00219332
0.00196269
0.00173198
0.00150119
0.00127034
0.00103944
0.000808501
0.000577524
0.000346524
0.00011551
0.000152445
0.000457326
0.000762186
0.00106701
0.00137178
0.00167648
0.0019811
0.00228562
0.00259003
0.0028943
0.00319843
0.00350239
0.00380616
0.00410974
0.00441309
0.0047162
0.00501905
0.00532161
0.00562387
0.0059258
0.00622738
0.00652857
0.00682936
0.00712972
0.00742962
0.00772903
0.00802792
0.00832626
0.00862402
0.00892115
0.00921763
0.00951342
0.00980848
0.0101028
0.0103963
0.0106889
0.0109806
0.0112714
0.0115612
0.01185
0.0121377
0.0124242
0.0127096
0.0129937
0.0132765
0.013558
0.013838
0.0141166
0.0143937
0.0146691
0.0149429
0.015215
0.0154853
0.0157538
0.0160203
0.0162848
0.0165473
0.0168076
0.0170657
0.0173216
0.0175751
0.0178261
0.0180747
0.0183207
0.018564
0.0188046
0.0190424
0.0192773
0.0195093
0.0197382
0.019964
0.0201866
0.0204059
0.0206219
0.0208345
0.0210436
0.0212491
0.021451
0.0216491
0.0218435
0.022034
0.0222206
0.0224031
0.0225817
0.022756
0.0229262
0.0230922
0.0232538
0.0234111
0.0235639
0.0237123
0.0238561
0.0239953
0.0241299
0.0242599
0.0243851
0.0245056
0.0246212
0.0247321
0.0248381
0.0249391
0.0250353
0.0251265
0.0252128
0.0252941
0.0253704
0.0254416
0.0255079
0.0255691
0.0256253
0.0256764
0.0257225
0.0257636
0.0257996
0.0258307
0.0258567
0.0258777
0.0258937
0.0259048
0.0259109
0.0259121
0.0259084
0.0258999
0.0258865
0.0258683
0.0258453
0.0258176
0.0257852
0.0257481
0.0257064
0.0256601
0.0256092
0.0255539
0.0254941
0.0254299
0.0253614
0.0252885
0.0252114
0.0251301
0.0250446
0.024955
0.0248614
0.0247638
0.0246623
0.0245568
0.0244476
0.0243345
0.0242178
0.0240974
0.0239734
0.0238458
0.0237147
0.0235803
0.0234424
0.0233012
0.0231568
0.0230092
0.0228584
0.0227045
0.0225476
0.0223877
0.0222249
0.0220593
0.0218908
0.0217196
0.0215457
0.0213691
0.0211899
0.0210082
0.020824
0.0206374
0.0204484
0.0202571
0.0200635
0.0198677
0.0196697
0.0194695
0.0192673
0.0190631
0.0188569
0.0186487
0.0184387
0.0182268
0.0180131
0.0177977
0.0175806
0.0173618
0.0171414
0.0169194
0.0166959
0.0164709
0.0162444
0.0160166
0.0157873
0.0155568
0.0153249
0.0150918
0.0148574
0.0146219
0.0143852
0.0141475
0.0139086
0.0136687
0.0134278
0.0131859
0.0129431
0.0126993
0.0124547
0.0122092
0.0119629
0.0117158
0.0114679
0.0112193
0.01097
0.01072
0.0104694
0.0102181
0.00996615
0.00971365
0.0094606
0.009207
0.00895289
0.00869827
0.00844319
0.00818764
0.00793167
0.00767527
0.00741849
0.00716132
0.00690379
0.00664592
0.00638773
0.00612922
0.00587043
0.00561135
0.00535201
0.00509243
0.00483262
0.00457258
0.00431234
0.00405191
0.00379131
0.00353053
0.00326961
0.00300855
0.00274735
0.00248605
0.00222463
0.00196313
0.00170154
0.00143988
0.00117817
0.000916402
0.000654599
0.00039277
0.000130925
0.000170405
0.000511205
0.000851982
0.00119272
0.00153339
0.001874
0.00221451
0.00255491
0.00289518
0.00323531
0.00357528
0.00391506
0.00425464
0.00459399
0.0049331
0.00527194
0.00561049
0.00594873
0.00628662
0.00662416
0.0069613
0.00729801
0.00763429
0.00797008
0.00830536
0.0086401
0.00897426
0.00930781
0.00964071
0.00997292
0.0103044
0.0106351
0.010965
0.0112941
0.0116222
0.0119494
0.0122756
0.0126008
0.0129249
0.0132478
0.0135695
0.0138899
0.014209
0.0145267
0.014843
0.0151578
0.015471
0.0157826
0.0160924
0.0164005
0.0167067
0.017011
0.0173134
0.0176136
0.0179117
0.0182076
0.0185012
0.0187924
0.0190811
0.0193673
0.0196509
0.0199317
0.0202098
0.020485
0.0207572
0.0210263
0.0212924
0.0215552
0.0218147
0.0220708
0.0223234
0.0225725
0.0228179
0.0230595
0.0232974
0.0235313
0.0237612
0.0239871
0.0242088
0.0244262
0.0246394
0.0248481
0.0250524
0.0252521
0.0254473
0.0256377
0.0258234
0.0260042
0.0261802
0.0263511
0.0265171
0.026678
0.0268338
0.0269844
0.0271298
0.0272699
0.0274046
0.027534
0.027658
0.0277766
0.0278896
0.0279972
0.0280992
0.0281957
0.0282866
0.0283719
0.0284516
0.0285256
0.0285941
0.0286569
0.028714
0.0287656
0.0288114
0.0288517
0.0288863
0.0289154
0.0289388
0.0289567
0.028969
0.0289757
0.028977
0.0289728
0.0289631
0.0289481
0.0289276
0.0289018
0.0288707
0.0288343
0.0287928
0.028746
0.0286941
0.0286371
0.0285751
0.0285082
0.0284363
0.0283595
0.0282779
0.0281916
0.0281005
0.0280048
0.0279045
0.0277997
0.0276904
0.0275767
0.0274587
0.0273364
0.0272099
0.0270792
0.0269444
0.0268056
0.0266629
0.0265162
0.0263657
0.0262115
0.0260535
0.0258919
0.0257267
0.025558
0.0253858
0.0252103
0.0250314
0.0248493
0.0246639
0.0244754
0.0242839
0.0240893
0.0238918
0.0236914
0.0234881
0.0232821
0.0230733
0.0228619
0.0226479
0.0224314
0.0222124
0.0219909
0.0217671
0.0215409
0.0213125
0.0210818
0.020849
0.0206141
0.0203772
0.0201382
0.0198973
0.0196545
0.0194098
0.0191633
0.0189151
0.0186651
0.0184135
0.0181603
0.0179055
0.0176491
0.0173913
0.017132
0.0168714
0.0166093
0.016346
0.0160813
0.0158155
0.0155484
0.0152802
0.0150108
0.0147404
0.0144689
0.0141963
0.0139228
0.0136484
0.013373
0.0130967
0.0128196
0.0125417
0.0122629
0.0119834
0.0117032
0.0114222
0.0111406
0.0108583
0.0105754
0.0102919
0.0100078
0.0097232
0.00943803
0.00915236
0.0088662
0.00857958
0.00829252
0.00800504
0.00771716
0.00742889
0.00714027
0.00685129
0.006562
0.00627239
0.0059825
0.00569232
0.00540189
0.00511122
0.00482032
0.00452921
0.0042379
0.00394641
0.00365474
0.00336292
0.00307096
0.00277887
0.00248667
0.00219436
0.00190196
0.00160948
0.00131694
0.00102434
0.000731701
0.000439033
0.000146346
0.000188373
0.000565109
0.000941819
0.00131848
0.00169509
0.00207161
0.00244803
0.00282433
0.00320049
0.00357649
0.00395231
0.00432794
0.00470334
0.00507849
0.00545338
0.00582797
0.00620225
0.00657618
0.00694974
0.0073229
0.00769564
0.00806791
0.00843969
0.00881094
0.00918164
0.00955174
0.00992121
0.01029
0.0106581
0.0110254
0.0113919
0.0117576
0.0121224
0.0124863
0.0128491
0.013211
0.0135717
0.0139313
0.0142897
0.0146468
0.0150025
0.0153569
0.0157098
0.0160612
0.016411
0.0167592
0.0171056
0.0174502
0.017793
0.0181337
0.0184725
0.0188091
0.0191435
0.0194756
0.0198054
0.0201327
0.0204575
0.0207796
0.021099
0.0214157
0.0217294
0.0220401
0.0223478
0.0226522
0.0229534
0.0232512
0.0235456
0.0238364
0.0241235
0.0244069
0.0246864
0.024962
0.0252335
0.0255009
0.0257641
0.026023
0.0262774
0.0265273
0.0267727
0.0270133
0.0272492
0.0274802
0.0277062
0.0279273
0.0281432
0.0283539
0.0285594
0.0287595
0.0289542
0.0291434
0.0293271
0.0295051
0.0296775
0.0298441
0.030005
0.03016
0.0303091
0.0304522
0.0305894
0.0307205
0.0308456
0.0309646
0.0310775
0.0311842
0.0312847
0.031379
0.0314672
0.0315491
0.0316247
0.0316941
0.0317573
0.0318142
0.0318649
0.0319094
0.0319476
0.0319797
0.0320055
0.0320252
0.0320387
0.0320461
0.0320474
0.0320426
0.0320318
0.032015
0.0319923
0.0319636
0.0319291
0.0318887
0.0318426
0.0317908
0.0317332
0.0316701
0.0316014
0.0315272
0.0314475
0.0313624
0.0312721
0.0311764
0.0310755
0.0309696
0.0308585
0.0307424
0.0306214
0.0304955
0.0303649
0.0302295
0.0300894
0.0299447
0.0297955
0.0296419
0.0294839
0.0293215
0.029155
0.0289842
0.0288094
0.0286305
0.0284477
0.028261
0.0280705
0.0278762
0.0276783
0.0274768
0.0272717
0.0270632
0.0268512
0.0266359
0.0264174
0.0261957
0.0259708
0.0257429
0.0255119
0.0252781
0.0250413
0.0248018
0.0245595
0.0243145
0.0240669
0.0238167
0.0235641
0.0233089
0.0230514
0.0227916
0.0225295
0.0222652
0.0219988
0.0217302
0.0214596
0.021187
0.0209125
0.020636
0.0203578
0.0200777
0.0197959
0.0195124
0.0192273
0.0189406
0.0186523
0.0183626
0.0180713
0.0177787
0.0174847
0.0171894