/*--------------------------------*- C++ -*----------------------------------*\
| =========                 |                                                 |
| \\      /  F ield         | OpenFOAM: The Open Source CFD Toolbox           |
|  \\    /   O peration     | Version:  v2012                                 |
|   \\  /    A nd           | Website:  www.openfoam.com                      |
|    \\/     M anipulation  |                                                 |
\*---------------------------------------------------------------------------*/
FoamFile
{
    version     2.0;
    format      ascii;
    class       volVectorField;
    location    "5.4";
    object      Psi;
}
// * * * * * * * * * * * * * * * * * * * * * * * * * * * * * * * * * * * * * //

dimensions      [0 2 -1 0 0 0 0];


internalField   nonuniform List<vector> 
65536
(
(0 0 9.11996e-06)
(0 0 2.73595e-05)
(0 0 4.55979e-05)
(0 0 6.38346e-05)
(0 0 8.20688e-05)
(0 0 0.0001003)
(0 0 0.000118527)
(0 0 0.000136749)
(0 0 0.000154966)
(0 0 0.000173177)
(0 0 0.00019138)
(0 0 0.000209576)
(0 0 0.000227763)
(0 0 0.000245939)
(0 0 0.000264105)
(0 0 0.000282259)
(0 0 0.000300401)
(0 0 0.000318528)
(0 0 0.00033664)
(0 0 0.000354735)
(0 0 0.000372813)
(0 0 0.000390871)
(0 0 0.000408909)
(0 0 0.000426924)
(0 0 0.000444916)
(0 0 0.000462883)
(0 0 0.000480823)
(0 0 0.000498734)
(0 0 0.000516614)
(0 0 0.000534461)
(0 0 0.000552273)
(0 0 0.000570049)
(0 0 0.000587786)
(0 0 0.000605481)
(0 0 0.000623132)
(0 0 0.000640737)
(0 0 0.000658293)
(0 0 0.000675797)
(0 0 0.000693247)
(0 0 0.000710639)
(0 0 0.000727971)
(0 0 0.00074524)
(0 0 0.000762442)
(0 0 0.000779574)
(0 0 0.000796633)
(0 0 0.000813616)
(0 0 0.000830518)
(0 0 0.000847336)
(0 0 0.000864066)
(0 0 0.000880704)
(0 0 0.000897248)
(0 0 0.000913691)
(0 0 0.000930031)
(0 0 0.000946263)
(0 0 0.000962383)
(0 0 0.000978386)
(0 0 0.000994269)
(0 0 0.00101003)
(0 0 0.00102565)
(0 0 0.00104115)
(0 0 0.0010565)
(0 0 0.00107171)
(0 0 0.00108677)
(0 0 0.00110167)
(0 0 0.00111642)
(0 0 0.001131)
(0 0 0.00114542)
(0 0 0.00115966)
(0 0 0.00117373)
(0 0 0.00118761)
(0 0 0.0012013)
(0 0 0.0012148)
(0 0 0.0012281)
(0 0 0.00124119)
(0 0 0.00125408)
(0 0 0.00126676)
(0 0 0.00127921)
(0 0 0.00129145)
(0 0 0.00130346)
(0 0 0.00131523)
(0 0 0.00132677)
(0 0 0.00133806)
(0 0 0.00134911)
(0 0 0.00135991)
(0 0 0.00137046)
(0 0 0.00138074)
(0 0 0.00139076)
(0 0 0.00140052)
(0 0 0.00141)
(0 0 0.00141921)
(0 0 0.00142815)
(0 0 0.0014368)
(0 0 0.00144516)
(0 0 0.00145324)
(0 0 0.00146102)
(0 0 0.00146852)
(0 0 0.00147571)
(0 0 0.00148261)
(0 0 0.0014892)
(0 0 0.00149549)
(0 0 0.00150148)
(0 0 0.00150716)
(0 0 0.00151252)
(0 0 0.00151758)
(0 0 0.00152233)
(0 0 0.00152676)
(0 0 0.00153088)
(0 0 0.00153469)
(0 0 0.00153818)
(0 0 0.00154136)
(0 0 0.00154422)
(0 0 0.00154676)
(0 0 0.00154899)
(0 0 0.00155091)
(0 0 0.00155251)
(0 0 0.0015538)
(0 0 0.00155478)
(0 0 0.00155544)
(0 0 0.0015558)
(0 0 0.00155584)
(0 0 0.00155558)
(0 0 0.00155502)
(0 0 0.00155415)
(0 0 0.00155298)
(0 0 0.00155152)
(0 0 0.00154975)
(0 0 0.0015477)
(0 0 0.00154535)
(0 0 0.00154271)
(0 0 0.00153979)
(0 0 0.00153658)
(0 0 0.0015331)
(0 0 0.00152934)
(0 0 0.0015253)
(0 0 0.001521)
(0 0 0.00151642)
(0 0 0.00151159)
(0 0 0.0015065)
(0 0 0.00150115)
(0 0 0.00149554)
(0 0 0.00148969)
(0 0 0.0014836)
(0 0 0.00147726)
(0 0 0.00147069)
(0 0 0.00146388)
(0 0 0.00145684)
(0 0 0.00144958)
(0 0 0.0014421)
(0 0 0.0014344)
(0 0 0.00142649)
(0 0 0.00141836)
(0 0 0.00141004)
(0 0 0.00140151)
(0 0 0.00139278)
(0 0 0.00138386)
(0 0 0.00137475)
(0 0 0.00136546)
(0 0 0.00135598)
(0 0 0.00134633)
(0 0 0.0013365)
(0 0 0.0013265)
(0 0 0.00131634)
(0 0 0.00130601)
(0 0 0.00129553)
(0 0 0.00128489)
(0 0 0.0012741)
(0 0 0.00126316)
(0 0 0.00125208)
(0 0 0.00124086)
(0 0 0.0012295)
(0 0 0.00121801)
(0 0 0.00120638)
(0 0 0.00119464)
(0 0 0.00118276)
(0 0 0.00117077)
(0 0 0.00115866)
(0 0 0.00114644)
(0 0 0.00113411)
(0 0 0.00112167)
(0 0 0.00110913)
(0 0 0.00109648)
(0 0 0.00108374)
(0 0 0.0010709)
(0 0 0.00105797)
(0 0 0.00104494)
(0 0 0.00103184)
(0 0 0.00101864)
(0 0 0.00100537)
(0 0 0.000992011)
(0 0 0.00097858)
(0 0 0.000965073)
(0 0 0.000951495)
(0 0 0.000937847)
(0 0 0.000924131)
(0 0 0.000910351)
(0 0 0.000896507)
(0 0 0.000882602)
(0 0 0.000868639)
(0 0 0.000854619)
(0 0 0.000840544)
(0 0 0.000826416)
(0 0 0.000812238)
(0 0 0.00079801)
(0 0 0.000783736)
(0 0 0.000769415)
(0 0 0.000755051)
(0 0 0.000740645)
(0 0 0.000726199)
(0 0 0.000711713)
(0 0 0.000697191)
(0 0 0.000682632)
(0 0 0.000668039)
(0 0 0.000653413)
(0 0 0.000638755)
(0 0 0.000624067)
(0 0 0.00060935)
(0 0 0.000594605)
(0 0 0.000579833)
(0 0 0.000565036)
(0 0 0.000550215)
(0 0 0.000535371)
(0 0 0.000520504)
(0 0 0.000505617)
(0 0 0.000490709)
(0 0 0.000475782)
(0 0 0.000460837)
(0 0 0.000445875)
(0 0 0.000430897)
(0 0 0.000415902)
(0 0 0.000400893)
(0 0 0.000385871)
(0 0 0.000370834)
(0 0 0.000355786)
(0 0 0.000340725)
(0 0 0.000325654)
(0 0 0.000310572)
(0 0 0.00029548)
(0 0 0.000280379)
(0 0 0.000265269)
(0 0 0.000250152)
(0 0 0.000235027)
(0 0 0.000219895)
(0 0 0.000204756)
(0 0 0.000189612)
(0 0 0.000174462)
(0 0 0.000159308)
(0 0 0.000144149)
(0 0 0.000128986)
(0 0 0.000113819)
(0 0 9.86494e-05)
(0 0 8.3477e-05)
(0 0 6.83025e-05)
(0 0 5.3126e-05)
(0 0 3.79482e-05)
(0 0 2.27693e-05)
(0 0 7.58983e-06)
(0 0 2.73601e-05)
(0 0 8.20792e-05)
(0 0 0.000136795)
(0 0 0.000191506)
(0 0 0.000246209)
(0 0 0.000300903)
(0 0 0.000355585)
(0 0 0.000410253)
(0 0 0.000464904)
(0 0 0.000519537)
(0 0 0.000574148)
(0 0 0.000628736)
(0 0 0.000683296)
(0 0 0.000737828)
(0 0 0.000792327)
(0 0 0.00084679)
(0 0 0.000901215)
(0 0 0.000955597)
(0 0 0.00100993)
(0 0 0.00106422)
(0 0 0.00111845)
(0 0 0.00117263)
(0 0 0.00122675)
(0 0 0.00128079)
(0 0 0.00133477)
(0 0 0.00138867)
(0 0 0.00144249)
(0 0 0.00149623)
(0 0 0.00154987)
(0 0 0.00160341)
(0 0 0.00165685)
(0 0 0.00171018)
(0 0 0.0017634)
(0 0 0.00181648)
(0 0 0.00186944)
(0 0 0.00192226)
(0 0 0.00197493)
(0 0 0.00202744)
(0 0 0.00207979)
(0 0 0.00213197)
(0 0 0.00218397)
(0 0 0.00223578)
(0 0 0.00228739)
(0 0 0.00233879)
(0 0 0.00238997)
(0 0 0.00244092)
(0 0 0.00249163)
(0 0 0.00254209)
(0 0 0.00259228)
(0 0 0.0026422)
(0 0 0.00269184)
(0 0 0.00274117)
(0 0 0.0027902)
(0 0 0.0028389)
(0 0 0.00288726)
(0 0 0.00293528)
(0 0 0.00298293)
(0 0 0.0030302)
(0 0 0.00307709)
(0 0 0.00312357)
(0 0 0.00316963)
(0 0 0.00321526)
(0 0 0.00326045)
(0 0 0.00330517)
(0 0 0.00334942)
(0 0 0.00339318)
(0 0 0.00343643)
(0 0 0.00347916)
(0 0 0.00352136)
(0 0 0.003563)
(0 0 0.00360408)
(0 0 0.00364458)
(0 0 0.00368449)
(0 0 0.00372378)
(0 0 0.00376245)
(0 0 0.00380048)
(0 0 0.00383786)
(0 0 0.00387457)
(0 0 0.00391059)
(0 0 0.00394592)
(0 0 0.00398054)
(0 0 0.00401443)
(0 0 0.00404758)
(0 0 0.00407998)
(0 0 0.00411162)
(0 0 0.00414248)
(0 0 0.00417255)
(0 0 0.00420182)
(0 0 0.00423028)
(0 0 0.00425792)
(0 0 0.00428471)
(0 0 0.00431067)
(0 0 0.00433577)
(0 0 0.00436)
(0 0 0.00438336)
(0 0 0.00440584)
(0 0 0.00442743)
(0 0 0.00444812)
(0 0 0.0044679)
(0 0 0.00448678)
(0 0 0.00450474)
(0 0 0.00452177)
(0 0 0.00453788)
(0 0 0.00455305)
(0 0 0.0045673)
(0 0 0.0045806)
(0 0 0.00459296)
(0 0 0.00460438)
(0 0 0.00461485)
(0 0 0.00462438)
(0 0 0.00463296)
(0 0 0.0046406)
(0 0 0.00464729)
(0 0 0.00465303)
(0 0 0.00465784)
(0 0 0.0046617)
(0 0 0.00466463)
(0 0 0.00466663)
(0 0 0.00466769)
(0 0 0.00466783)
(0 0 0.00466705)
(0 0 0.00466536)
(0 0 0.00466275)
(0 0 0.00465925)
(0 0 0.00465484)
(0 0 0.00464955)
(0 0 0.00464338)
(0 0 0.00463633)
(0 0 0.00462842)
(0 0 0.00461965)
(0 0 0.00461003)
(0 0 0.00459957)
(0 0 0.00458828)
(0 0 0.00457617)
(0 0 0.00456325)
(0 0 0.00454953)
(0 0 0.00453503)
(0 0 0.00451974)
(0 0 0.00450368)
(0 0 0.00448687)
(0 0 0.00446932)
(0 0 0.00445103)
(0 0 0.00443201)
(0 0 0.00441229)
(0 0 0.00439186)
(0 0 0.00437075)
(0 0 0.00434897)
(0 0 0.00432651)
(0 0 0.00430341)
(0 0 0.00427967)
(0 0 0.0042553)
(0 0 0.00423031)
(0 0 0.00420472)
(0 0 0.00417854)
(0 0 0.00415177)
(0 0 0.00412444)
(0 0 0.00409655)
(0 0 0.00406812)
(0 0 0.00403915)
(0 0 0.00400967)
(0 0 0.00397967)
(0 0 0.00394918)
(0 0 0.00391819)
(0 0 0.00388674)
(0 0 0.00385482)
(0 0 0.00382244)
(0 0 0.00378962)
(0 0 0.00375638)
(0 0 0.00372271)
(0 0 0.00368863)
(0 0 0.00365415)
(0 0 0.00361928)
(0 0 0.00358403)
(0 0 0.00354841)
(0 0 0.00351243)
(0 0 0.0034761)
(0 0 0.00343943)
(0 0 0.00340243)
(0 0 0.00336511)
(0 0 0.00332748)
(0 0 0.00328954)
(0 0 0.00325131)
(0 0 0.00321279)
(0 0 0.00317399)
(0 0 0.00313492)
(0 0 0.00309559)
(0 0 0.00305601)
(0 0 0.00301618)
(0 0 0.00297611)
(0 0 0.00293581)
(0 0 0.00289529)
(0 0 0.00285455)
(0 0 0.00281361)
(0 0 0.00277246)
(0 0 0.00273111)
(0 0 0.00268958)
(0 0 0.00264787)
(0 0 0.00260597)
(0 0 0.00256391)
(0 0 0.00252168)
(0 0 0.0024793)
(0 0 0.00243676)
(0 0 0.00239408)
(0 0 0.00235125)
(0 0 0.00230829)
(0 0 0.0022652)
(0 0 0.00222198)
(0 0 0.00217864)
(0 0 0.00213518)
(0 0 0.00209161)
(0 0 0.00204793)
(0 0 0.00200415)
(0 0 0.00196027)
(0 0 0.0019163)
(0 0 0.00187223)
(0 0 0.00182808)
(0 0 0.00178384)
(0 0 0.00173953)
(0 0 0.00169513)
(0 0 0.00165067)
(0 0 0.00160613)
(0 0 0.00156153)
(0 0 0.00151687)
(0 0 0.00147215)
(0 0 0.00142737)
(0 0 0.00138253)
(0 0 0.00133764)
(0 0 0.00129271)
(0 0 0.00124772)
(0 0 0.00120269)
(0 0 0.00115763)
(0 0 0.00111252)
(0 0 0.00106737)
(0 0 0.00102219)
(0 0 0.000976972)
(0 0 0.000931725)
(0 0 0.000886449)
(0 0 0.000841146)
(0 0 0.000795816)
(0 0 0.000750463)
(0 0 0.000705087)
(0 0 0.000659691)
(0 0 0.000614275)
(0 0 0.000568842)
(0 0 0.000523392)
(0 0 0.000477928)
(0 0 0.00043245)
(0 0 0.000386961)
(0 0 0.00034146)
(0 0 0.000295951)
(0 0 0.000250433)
(0 0 0.000204909)
(0 0 0.00015938)
(0 0 0.000113846)
(0 0 6.83085e-05)
(0 0 2.27697e-05)
(0 0 4.56013e-05)
(0 0 0.000136802)
(0 0 0.000227998)
(0 0 0.000319185)
(0 0 0.000410359)
(0 0 0.000501518)
(0 0 0.000592657)
(0 0 0.000683773)
(0 0 0.000774861)
(0 0 0.000865918)
(0 0 0.00095694)
(0 0 0.00104792)
(0 0 0.00113886)
(0 0 0.00122975)
(0 0 0.00132058)
(0 0 0.00141136)
(0 0 0.00150207)
(0 0 0.00159271)
(0 0 0.00168328)
(0 0 0.00177376)
(0 0 0.00186416)
(0 0 0.00195445)
(0 0 0.00204465)
(0 0 0.00213474)
(0 0 0.0022247)
(0 0 0.00231455)
(0 0 0.00240425)
(0 0 0.00249382)
(0 0 0.00258323)
(0 0 0.00267247)
(0 0 0.00276155)
(0 0 0.00285044)
(0 0 0.00293913)
(0 0 0.00302762)
(0 0 0.00311589)
(0 0 0.00320392)
(0 0 0.00329172)
(0 0 0.00337925)
(0 0 0.00346651)
(0 0 0.00355349)
(0 0 0.00364017)
(0 0 0.00372653)
(0 0 0.00381255)
(0 0 0.00389823)
(0 0 0.00398354)
(0 0 0.00406847)
(0 0 0.004153)
(0 0 0.00423711)
(0 0 0.00432078)
(0 0 0.00440399)
(0 0 0.00448673)
(0 0 0.00456897)
(0 0 0.00465069)
(0 0 0.00473187)
(0 0 0.00481249)
(0 0 0.00489253)
(0 0 0.00497196)
(0 0 0.00505077)
(0 0 0.00512893)
(0 0 0.00520641)
(0 0 0.0052832)
(0 0 0.00535927)
(0 0 0.00543459)
(0 0 0.00550915)
(0 0 0.00558291)
(0 0 0.00565586)
(0 0 0.00572796)
(0 0 0.00579919)
(0 0 0.00586954)
(0 0 0.00593896)
(0 0 0.00600745)
(0 0 0.00607497)
(0 0 0.00614149)
(0 0 0.006207)
(0 0 0.00627147)
(0 0 0.00633487)
(0 0 0.00639718)
(0 0 0.00645837)
(0 0 0.00651843)
(0 0 0.00657732)
(0 0 0.00663503)
(0 0 0.00669153)
(0 0 0.00674681)
(0 0 0.00680082)
(0 0 0.00685357)
(0 0 0.00690501)
(0 0 0.00695515)
(0 0 0.00700394)
(0 0 0.00705138)
(0 0 0.00709745)
(0 0 0.00714213)
(0 0 0.00718539)
(0 0 0.00722724)
(0 0 0.00726764)
(0 0 0.00730658)
(0 0 0.00734405)
(0 0 0.00738004)
(0 0 0.00741453)
(0 0 0.00744752)
(0 0 0.00747898)
(0 0 0.00750892)
(0 0 0.00753731)
(0 0 0.00756417)
(0 0 0.00758946)
(0 0 0.0076132)
(0 0 0.00763538)
(0 0 0.00765598)
(0 0 0.00767501)
(0 0 0.00769247)
(0 0 0.00770835)
(0 0 0.00772265)
(0 0 0.00773538)
(0 0 0.00774652)
(0 0 0.0077561)
(0 0 0.00776411)
(0 0 0.00777055)
(0 0 0.00777542)
(0 0 0.00777874)
(0 0 0.00778051)
(0 0 0.00778074)
(0 0 0.00777944)
(0 0 0.00777661)
(0 0 0.00777226)
(0 0 0.00776641)
(0 0 0.00775906)
(0 0 0.00775023)
(0 0 0.00773993)
(0 0 0.00772818)
(0 0 0.00771498)
(0 0 0.00770035)
(0 0 0.00768431)
(0 0 0.00766687)
(0 0 0.00764804)
(0 0 0.00762785)
(0 0 0.00760631)
(0 0 0.00758343)
(0 0 0.00755924)
(0 0 0.00753375)
(0 0 0.00750698)
(0 0 0.00747895)
(0 0 0.00744968)
(0 0 0.00741918)
(0 0 0.00738748)
(0 0 0.00735459)
(0 0 0.00732054)
(0 0 0.00728534)
(0 0 0.00724901)
(0 0 0.00721158)
(0 0 0.00717306)
(0 0 0.00713348)
(0 0 0.00709285)
(0 0 0.00705119)
(0 0 0.00700852)
(0 0 0.00696487)
(0 0 0.00692025)
(0 0 0.00687468)
(0 0 0.00682819)
(0 0 0.00678079)
(0 0 0.0067325)
(0 0 0.00668334)
(0 0 0.00663334)
(0 0 0.0065825)
(0 0 0.00653085)
(0 0 0.00647841)
(0 0 0.0064252)
(0 0 0.00637123)
(0 0 0.00631652)
(0 0 0.00626109)
(0 0 0.00620497)
(0 0 0.00614815)
(0 0 0.00609068)
(0 0 0.00603255)
(0 0 0.00597379)
(0 0 0.00591441)
(0 0 0.00585444)
(0 0 0.00579388)
(0 0 0.00573276)
(0 0 0.00567108)
(0 0 0.00560887)
(0 0 0.00554613)
(0 0 0.00548289)
(0 0 0.00541916)
(0 0 0.00535495)
(0 0 0.00529028)
(0 0 0.00522516)
(0 0 0.0051596)
(0 0 0.00509362)
(0 0 0.00502723)
(0 0 0.00496044)
(0 0 0.00489327)
(0 0 0.00482573)
(0 0 0.00475782)
(0 0 0.00468957)
(0 0 0.00462098)
(0 0 0.00455207)
(0 0 0.00448284)
(0 0 0.00441331)
(0 0 0.00434348)
(0 0 0.00427337)
(0 0 0.00420298)
(0 0 0.00413234)
(0 0 0.00406144)
(0 0 0.00399029)
(0 0 0.00391891)
(0 0 0.0038473)
(0 0 0.00377547)
(0 0 0.00370343)
(0 0 0.00363119)
(0 0 0.00355875)
(0 0 0.00348613)
(0 0 0.00341333)
(0 0 0.00334036)
(0 0 0.00326722)
(0 0 0.00319393)
(0 0 0.00312048)
(0 0 0.00304689)
(0 0 0.00297316)
(0 0 0.00289929)
(0 0 0.0028253)
(0 0 0.00275119)
(0 0 0.00267697)
(0 0 0.00260263)
(0 0 0.00252819)
(0 0 0.00245364)
(0 0 0.002379)
(0 0 0.00230427)
(0 0 0.00222946)
(0 0 0.00215456)
(0 0 0.00207959)
(0 0 0.00200454)
(0 0 0.00192942)
(0 0 0.00185424)
(0 0 0.00177899)
(0 0 0.00170368)
(0 0 0.00162832)
(0 0 0.00155291)
(0 0 0.00147745)
(0 0 0.00140194)
(0 0 0.00132639)
(0 0 0.0012508)
(0 0 0.00117517)
(0 0 0.00109951)
(0 0 0.00102381)
(0 0 0.000948087)
(0 0 0.000872337)
(0 0 0.000796561)
(0 0 0.000720764)
(0 0 0.000644946)
(0 0 0.000569111)
(0 0 0.000493261)
(0 0 0.000417397)
(0 0 0.000341522)
(0 0 0.000265637)
(0 0 0.000189746)
(0 0 0.00011385)
(0 0 3.79502e-05)
(0 0 6.38442e-05)
(0 0 0.00019153)
(0 0 0.000319209)
(0 0 0.000446876)
(0 0 0.000574525)
(0 0 0.000702152)
(0 0 0.000829753)
(0 0 0.00095732)
(0 0 0.00108485)
(0 0 0.00121234)
(0 0 0.00133977)
(0 0 0.00146715)
(0 0 0.00159447)
(0 0 0.00172172)
(0 0 0.0018489)
(0 0 0.00197599)
(0 0 0.002103)
(0 0 0.0022299)
(0 0 0.0023567)
(0 0 0.00248339)
(0 0 0.00260995)
(0 0 0.00273638)
(0 0 0.00286267)
(0 0 0.0029888)
(0 0 0.00311476)
(0 0 0.00324055)
(0 0 0.00336616)
(0 0 0.00349156)
(0 0 0.00361675)
(0 0 0.00374171)
(0 0 0.00386642)
(0 0 0.00399088)
(0 0 0.00411507)
(0 0 0.00423897)
(0 0 0.00436257)
(0 0 0.00448584)
(0 0 0.00460876)
(0 0 0.00473133)
(0 0 0.00485352)
(0 0 0.00497531)
(0 0 0.00509668)
(0 0 0.0052176)
(0 0 0.00533806)
(0 0 0.00545804)
(0 0 0.0055775)
(0 0 0.00569642)
(0 0 0.00581479)
(0 0 0.00593257)
(0 0 0.00604973)
(0 0 0.00616626)
(0 0 0.00628212)
(0 0 0.00639728)
(0 0 0.00651172)
(0 0 0.0066254)
(0 0 0.0067383)
(0 0 0.00685039)
(0 0 0.00696163)
(0 0 0.00707199)
(0 0 0.00718144)
(0 0 0.00728996)
(0 0 0.00739749)
(0 0 0.00750402)
(0 0 0.00760951)
(0 0 0.00771392)
(0 0 0.00781722)
(0 0 0.00791938)
(0 0 0.00802036)
(0 0 0.00812012)
(0 0 0.00821864)
(0 0 0.00831587)
(0 0 0.00841178)
(0 0 0.00850634)
(0 0 0.00859951)
(0 0 0.00869126)
(0 0 0.00878155)
(0 0 0.00887034)
(0 0 0.00895761)
(0 0 0.00904332)
(0 0 0.00912743)
(0 0 0.00920991)
(0 0 0.00929074)
(0 0 0.00936987)
(0 0 0.00944728)
(0 0 0.00952294)
(0 0 0.00959681)
(0 0 0.00966886)
(0 0 0.00973908)
(0 0 0.00980742)
(0 0 0.00987386)
(0 0 0.00993838)
(0 0 0.010001)
(0 0 0.0100615)
(0 0 0.0101201)
(0 0 0.0101767)
(0 0 0.0102313)
(0 0 0.0102838)
(0 0 0.0103342)
(0 0 0.0103825)
(0 0 0.0104286)
(0 0 0.0104727)
(0 0 0.0105146)
(0 0 0.0105544)
(0 0 0.010592)
(0 0 0.0106274)
(0 0 0.0106607)
(0 0 0.0106917)
(0 0 0.0107206)
(0 0 0.0107472)
(0 0 0.0107717)
(0 0 0.0107939)
(0 0 0.0108139)
(0 0 0.0108317)
(0 0 0.0108473)
(0 0 0.0108607)
(0 0 0.0108719)
(0 0 0.010881)
(0 0 0.0108878)
(0 0 0.0108924)
(0 0 0.0108949)
(0 0 0.0108952)
(0 0 0.0108933)
(0 0 0.0108894)
(0 0 0.0108833)
(0 0 0.0108751)
(0 0 0.0108648)
(0 0 0.0108524)
(0 0 0.0108379)
(0 0 0.0108215)
(0 0 0.010803)
(0 0 0.0107825)
(0 0 0.01076)
(0 0 0.0107356)
(0 0 0.0107092)
(0 0 0.0106809)
(0 0 0.0106507)
(0 0 0.0106186)
(0 0 0.0105848)
(0 0 0.010549)
(0 0 0.0105115)
(0 0 0.0104723)
(0 0 0.0104313)
(0 0 0.0103885)
(0 0 0.0103441)
(0 0 0.0102981)
(0 0 0.0102504)
(0 0 0.0102011)
(0 0 0.0101502)
(0 0 0.0100977)
(0 0 0.0100438)
(0 0 0.00998834)
(0 0 0.00993142)
(0 0 0.00987307)
(0 0 0.00981331)
(0 0 0.00975217)
(0 0 0.00968968)
(0 0 0.00962586)
(0 0 0.00956074)
(0 0 0.00949435)
(0 0 0.00942672)
(0 0 0.00935787)
(0 0 0.00928784)
(0 0 0.00921664)
(0 0 0.0091443)
(0 0 0.00907086)
(0 0 0.00899633)
(0 0 0.00892075)
(0 0 0.00884413)
(0 0 0.00876651)
(0 0 0.00868791)
(0 0 0.00860835)
(0 0 0.00852786)
(0 0 0.00844645)
(0 0 0.00836417)
(0 0 0.00828102)
(0 0 0.00819703)
(0 0 0.00811223)
(0 0 0.00802663)
(0 0 0.00794026)
(0 0 0.00785314)
(0 0 0.0077653)
(0 0 0.00767674)
(0 0 0.00758749)
(0 0 0.00749758)
(0 0 0.00740702)
(0 0 0.00731583)
(0 0 0.00722403)
(0 0 0.00713164)
(0 0 0.00703868)
(0 0 0.00694516)
(0 0 0.0068511)
(0 0 0.00675652)
(0 0 0.00666144)
(0 0 0.00656587)
(0 0 0.00646983)
(0 0 0.00637334)
(0 0 0.0062764)
(0 0 0.00617904)
(0 0 0.00608127)
(0 0 0.0059831)
(0 0 0.00588455)
(0 0 0.00578563)
(0 0 0.00568635)
(0 0 0.00558673)
(0 0 0.00548679)
(0 0 0.00538652)
(0 0 0.00528595)
(0 0 0.00518508)
(0 0 0.00508394)
(0 0 0.00498252)
(0 0 0.00488084)
(0 0 0.00477891)
(0 0 0.00467673)
(0 0 0.00457433)
(0 0 0.00447171)
(0 0 0.00436887)
(0 0 0.00426584)
(0 0 0.00416261)
(0 0 0.00405919)
(0 0 0.00395559)
(0 0 0.00385183)
(0 0 0.00374791)
(0 0 0.00364383)
(0 0 0.0035396)
(0 0 0.00343523)
(0 0 0.00333073)
(0 0 0.00322611)
(0 0 0.00312136)
(0 0 0.0030165)
(0 0 0.00291152)
(0 0 0.00280645)
(0 0 0.00270128)
(0 0 0.00259602)
(0 0 0.00249067)
(0 0 0.00238523)
(0 0 0.00227972)
(0 0 0.00217414)
(0 0 0.00206849)
(0 0 0.00196277)
(0 0 0.001857)
(0 0 0.00175117)
(0 0 0.00164528)
(0 0 0.00153935)
(0 0 0.00143338)
(0 0 0.00132736)
(0 0 0.00122131)
(0 0 0.00111522)
(0 0 0.0010091)
(0 0 0.000902949)
(0 0 0.000796777)
(0 0 0.000690583)
(0 0 0.000584371)
(0 0 0.000478143)
(0 0 0.000371902)
(0 0 0.000265651)
(0 0 0.000159394)
(0 0 5.31317e-05)
(0 0 8.20896e-05)
(0 0 0.000246266)
(0 0 0.000410433)
(0 0 0.000574584)
(0 0 0.000738713)
(0 0 0.000902815)
(0 0 0.00106688)
(0 0 0.00123091)
(0 0 0.00139488)
(0 0 0.0015588)
(0 0 0.00172266)
(0 0 0.00188645)
(0 0 0.00205015)
(0 0 0.00221378)
(0 0 0.0023773)
(0 0 0.00254072)
(0 0 0.00270402)
(0 0 0.0028672)
(0 0 0.00303025)
(0 0 0.00319314)
(0 0 0.00335588)
(0 0 0.00351845)
(0 0 0.00368083)
(0 0 0.00384302)
(0 0 0.004005)
(0 0 0.00416675)
(0 0 0.00432826)
(0 0 0.00448952)
(0 0 0.00465049)
(0 0 0.00481118)
(0 0 0.00497156)
(0 0 0.00513161)
(0 0 0.00529131)
(0 0 0.00545063)
(0 0 0.00560957)
(0 0 0.00576809)
(0 0 0.00592617)
(0 0 0.0060838)
(0 0 0.00624093)
(0 0 0.00639755)
(0 0 0.00655363)
(0 0 0.00670915)
(0 0 0.00686406)
(0 0 0.00701836)
(0 0 0.00717199)
(0 0 0.00732494)
(0 0 0.00747716)
(0 0 0.00762864)
(0 0 0.00777933)
(0 0 0.00792919)
(0 0 0.0080782)
(0 0 0.00822632)
(0 0 0.0083735)
(0 0 0.00851972)
(0 0 0.00866493)
(0 0 0.00880909)
(0 0 0.00895217)
(0 0 0.00909412)
(0 0 0.0092349)
(0 0 0.00937447)
(0 0 0.00951279)
(0 0 0.00964982)
(0 0 0.0097855)
(0 0 0.0099198)
(0 0 0.0100527)
(0 0 0.0101841)
(0 0 0.010314)
(0 0 0.0104423)
(0 0 0.010569)
(0 0 0.0106941)
(0 0 0.0108175)
(0 0 0.0109391)
(0 0 0.011059)
(0 0 0.011177)
(0 0 0.0112931)
(0 0 0.0114073)
(0 0 0.0115196)
(0 0 0.0116299)
(0 0 0.0117381)
(0 0 0.0118442)
(0 0 0.0119481)
(0 0 0.0120499)
(0 0 0.0121495)
(0 0 0.0122468)
(0 0 0.0123419)
(0 0 0.0124346)
(0 0 0.0125249)
(0 0 0.0126128)
(0 0 0.0126983)
(0 0 0.0127813)
(0 0 0.0128618)
(0 0 0.0129397)
(0 0 0.0130151)
(0 0 0.0130879)
(0 0 0.013158)
(0 0 0.0132255)
(0 0 0.0132904)
(0 0 0.0133525)
(0 0 0.0134119)
(0 0 0.0134686)
(0 0 0.0135225)
(0 0 0.0135737)
(0 0 0.013622)
(0 0 0.0136676)
(0 0 0.0137103)
(0 0 0.0137503)
(0 0 0.0137874)
(0 0 0.0138216)
(0 0 0.0138531)
(0 0 0.0138817)
(0 0 0.0139074)
(0 0 0.0139303)
(0 0 0.0139504)
(0 0 0.0139676)
(0 0 0.013982)
(0 0 0.0139935)
(0 0 0.0140023)
(0 0 0.0140083)
(0 0 0.0140114)
(0 0 0.0140118)
(0 0 0.0140094)
(0 0 0.0140043)
(0 0 0.0139964)
(0 0 0.0139858)
(0 0 0.0139725)
(0 0 0.0139566)
(0 0 0.013938)
(0 0 0.0139168)
(0 0 0.013893)
(0 0 0.0138666)
(0 0 0.0138376)
(0 0 0.0138062)
(0 0 0.0137722)
(0 0 0.0137358)
(0 0 0.013697)
(0 0 0.0136557)
(0 0 0.0136121)
(0 0 0.0135661)
(0 0 0.0135179)
(0 0 0.0134673)
(0 0 0.0134146)
(0 0 0.0133596)
(0 0 0.0133024)
(0 0 0.0132432)
(0 0 0.0131818)
(0 0 0.0131183)
(0 0 0.0130529)
(0 0 0.0129854)
(0 0 0.012916)
(0 0 0.0128447)
(0 0 0.0127714)
(0 0 0.0126964)
(0 0 0.0126195)
(0 0 0.0125408)
(0 0 0.0124604)
(0 0 0.0123783)
(0 0 0.0122946)
(0 0 0.0122092)
(0 0 0.0121222)
(0 0 0.0120336)
(0 0 0.0119435)
(0 0 0.0118519)
(0 0 0.0117589)
(0 0 0.0116644)
(0 0 0.0115685)
(0 0 0.0114713)
(0 0 0.0113728)
(0 0 0.0112729)
(0 0 0.0111718)
(0 0 0.0110695)
(0 0 0.0109659)
(0 0 0.0108612)
(0 0 0.0107554)
(0 0 0.0106485)
(0 0 0.0105404)
(0 0 0.0104314)
(0 0 0.0103213)
(0 0 0.0102102)
(0 0 0.0100982)
(0 0 0.00998517)
(0 0 0.00987127)
(0 0 0.0097565)
(0 0 0.00964086)
(0 0 0.00952439)
(0 0 0.00940711)
(0 0 0.00928905)
(0 0 0.00917023)
(0 0 0.00905068)
(0 0 0.00893041)
(0 0 0.00880945)
(0 0 0.00868782)
(0 0 0.00856555)
(0 0 0.00844264)
(0 0 0.00831914)
(0 0 0.00819504)
(0 0 0.00807039)
(0 0 0.00794518)
(0 0 0.00781945)
(0 0 0.00769321)
(0 0 0.00756648)
(0 0 0.00743927)
(0 0 0.00731161)
(0 0 0.00718351)
(0 0 0.00705499)
(0 0 0.00692605)
(0 0 0.00679673)
(0 0 0.00666702)
(0 0 0.00653696)
(0 0 0.00640654)
(0 0 0.00627579)
(0 0 0.00614472)
(0 0 0.00601334)
(0 0 0.00588166)
(0 0 0.0057497)
(0 0 0.00561747)
(0 0 0.00548498)
(0 0 0.00535224)
(0 0 0.00521926)
(0 0 0.00508606)
(0 0 0.00495263)
(0 0 0.004819)
(0 0 0.00468517)
(0 0 0.00455115)
(0 0 0.00441696)
(0 0 0.00428259)
(0 0 0.00414806)
(0 0 0.00401337)
(0 0 0.00387854)
(0 0 0.00374357)
(0 0 0.00360846)
(0 0 0.00347323)
(0 0 0.00333788)
(0 0 0.00320243)
(0 0 0.00306686)
(0 0 0.0029312)
(0 0 0.00279544)
(0 0 0.0026596)
(0 0 0.00252367)
(0 0 0.00238767)
(0 0 0.00225159)
(0 0 0.00211545)
(0 0 0.00197924)
(0 0 0.00184298)
(0 0 0.00170667)
(0 0 0.00157031)
(0 0 0.0014339)
(0 0 0.00129746)
(0 0 0.00116098)
(0 0 0.00102447)
(0 0 0.000887925)
(0 0 0.000751361)
(0 0 0.000614777)
(0 0 0.000478177)
(0 0 0.000341564)
(0 0 0.000204942)
(0 0 6.83146e-05)
(0 0 0.000100338)
(0 0 0.000301011)
(0 0 0.000501672)
(0 0 0.000702314)
(0 0 0.00090293)
(0 0 0.00110351)
(0 0 0.00130405)
(0 0 0.00150454)
(0 0 0.00170497)
(0 0 0.00190533)
(0 0 0.00210562)
(0 0 0.00230582)
(0 0 0.00250592)
(0 0 0.00270592)
(0 0 0.0029058)
(0 0 0.00310556)
(0 0 0.00330517)
(0 0 0.00350464)
(0 0 0.00370394)
(0 0 0.00390306)
(0 0 0.00410198)
(0 0 0.0043007)
(0 0 0.0044992)
(0 0 0.00469746)
(0 0 0.00489546)
(0 0 0.00509319)
(0 0 0.00529063)
(0 0 0.00548775)
(0 0 0.00568454)
(0 0 0.00588097)
(0 0 0.00607703)
(0 0 0.00627268)
(0 0 0.00646791)
(0 0 0.00666269)
(0 0 0.00685699)
(0 0 0.00705079)
(0 0 0.00724405)
(0 0 0.00743675)
(0 0 0.00762885)
(0 0 0.00782034)
(0 0 0.00801116)
(0 0 0.00820129)
(0 0 0.00839069)
(0 0 0.00857933)
(0 0 0.00876717)
(0 0 0.00895417)
(0 0 0.0091403)
(0 0 0.0093255)
(0 0 0.00950974)
(0 0 0.00969299)
(0 0 0.00987518)
(0 0 0.0100563)
(0 0 0.0102363)
(0 0 0.010415)
(0 0 0.0105926)
(0 0 0.0107689)
(0 0 0.0109438)
(0 0 0.0111174)
(0 0 0.0112896)
(0 0 0.0114602)
(0 0 0.0116294)
(0 0 0.011797)
(0 0 0.0119629)
(0 0 0.0121271)
(0 0 0.0122896)
(0 0 0.0124503)
(0 0 0.0126092)
(0 0 0.0127661)
(0 0 0.0129211)
(0 0 0.013074)
(0 0 0.0132249)
(0 0 0.0133737)
(0 0 0.0135202)
(0 0 0.0136646)
(0 0 0.0138066)
(0 0 0.0139463)
(0 0 0.0140836)
(0 0 0.0142185)
(0 0 0.0143508)
(0 0 0.0144806)
(0 0 0.0146077)
(0 0 0.0147322)
(0 0 0.014854)
(0 0 0.014973)
(0 0 0.0150893)
(0 0 0.0152026)
(0 0 0.0153131)
(0 0 0.0154206)
(0 0 0.0155251)
(0 0 0.0156267)
(0 0 0.0157251)
(0 0 0.0158204)
(0 0 0.0159126)
(0 0 0.0160016)
(0 0 0.0160874)
(0 0 0.01617)
(0 0 0.0162493)
(0 0 0.0163253)
(0 0 0.0163979)
(0 0 0.0164672)
(0 0 0.0165332)
(0 0 0.0165957)
(0 0 0.0166548)
(0 0 0.0167106)
(0 0 0.0167628)
(0 0 0.0168117)
(0 0 0.016857)
(0 0 0.0168989)
(0 0 0.0169373)
(0 0 0.0169723)
(0 0 0.0170037)
(0 0 0.0170317)
(0 0 0.0170562)
(0 0 0.0170773)
(0 0 0.0170948)
(0 0 0.017109)
(0 0 0.0171196)
(0 0 0.0171269)
(0 0 0.0171307)
(0 0 0.0171312)
(0 0 0.0171282)
(0 0 0.0171219)
(0 0 0.0171122)
(0 0 0.0170993)
(0 0 0.017083)
(0 0 0.0170635)
(0 0 0.0170407)
(0 0 0.0170147)
(0 0 0.0169855)
(0 0 0.0169532)
(0 0 0.0169178)
(0 0 0.0168793)
(0 0 0.0168377)
(0 0 0.0167932)
(0 0 0.0167456)
(0 0 0.0166951)
(0 0 0.0166418)
(0 0 0.0165855)
(0 0 0.0165265)
(0 0 0.0164646)
(0 0 0.0164001)
(0 0 0.0163328)
(0 0 0.0162629)
(0 0 0.0161904)
(0 0 0.0161153)
(0 0 0.0160377)
(0 0 0.0159576)
(0 0 0.015875)
(0 0 0.0157901)
(0 0 0.0157029)
(0 0 0.0156133)
(0 0 0.0155215)
(0 0 0.0154274)
(0 0 0.0153312)
(0 0 0.0152329)
(0 0 0.0151325)
(0 0 0.01503)
(0 0 0.0149256)
(0 0 0.0148192)
(0 0 0.0147108)
(0 0 0.0146007)
(0 0 0.0144886)
(0 0 0.0143749)
(0 0 0.0142593)
(0 0 0.0141421)
(0 0 0.0140232)
(0 0 0.0139027)
(0 0 0.0137806)
(0 0 0.0136569)
(0 0 0.0135318)
(0 0 0.0134052)
(0 0 0.0132772)
(0 0 0.0131478)
(0 0 0.013017)
(0 0 0.0128849)
(0 0 0.0127515)
(0 0 0.0126169)
(0 0 0.0124811)
(0 0 0.0123441)
(0 0 0.0122059)
(0 0 0.0120667)
(0 0 0.0119264)
(0 0 0.011785)
(0 0 0.0116426)
(0 0 0.0114992)
(0 0 0.0113548)
(0 0 0.0112096)
(0 0 0.0110634)
(0 0 0.0109164)
(0 0 0.0107685)
(0 0 0.0106198)
(0 0 0.0104703)
(0 0 0.01032)
(0 0 0.010169)
(0 0 0.0100173)
(0 0 0.00986492)
(0 0 0.00971185)
(0 0 0.00955815)
(0 0 0.00940381)
(0 0 0.00924889)
(0 0 0.00909338)
(0 0 0.00893731)
(0 0 0.00878071)
(0 0 0.00862359)
(0 0 0.00846598)
(0 0 0.00830788)
(0 0 0.00814932)
(0 0 0.00799033)
(0 0 0.0078309)
(0 0 0.00767107)
(0 0 0.00751084)
(0 0 0.00735024)
(0 0 0.00718928)
(0 0 0.00702797)
(0 0 0.00686633)
(0 0 0.00670437)
(0 0 0.00654211)
(0 0 0.00637956)
(0 0 0.00621673)
(0 0 0.00605364)
(0 0 0.00589029)
(0 0 0.00572671)
(0 0 0.00556289)
(0 0 0.00539885)
(0 0 0.00523461)
(0 0 0.00507016)
(0 0 0.00490553)
(0 0 0.00474072)
(0 0 0.00457574)
(0 0 0.0044106)
(0 0 0.0042453)
(0 0 0.00407986)
(0 0 0.00391429)
(0 0 0.00374859)
(0 0 0.00358277)
(0 0 0.00341683)
(0 0 0.00325078)
(0 0 0.00308464)
(0 0 0.0029184)
(0 0 0.00275208)
(0 0 0.00258567)
(0 0 0.00241919)
(0 0 0.00225264)
(0 0 0.00208603)
(0 0 0.00191936)
(0 0 0.00175263)
(0 0 0.00158585)
(0 0 0.00141904)
(0 0 0.00125218)
(0 0 0.00108529)
(0 0 0.000918371)
(0 0 0.000751428)
(0 0 0.000584464)
(0 0 0.000417485)
(0 0 0.000250496)
(0 0 8.34993e-05)
(0 0 0.00011859)
(0 0 0.000355767)
(0 0 0.00059293)
(0 0 0.000830071)
(0 0 0.00106718)
(0 0 0.00130425)
(0 0 0.00154127)
(0 0 0.00177823)
(0 0 0.00201513)
(0 0 0.00225194)
(0 0 0.00248867)
(0 0 0.00272529)
(0 0 0.0029618)
(0 0 0.00319819)
(0 0 0.00343444)
(0 0 0.00367054)
(0 0 0.00390648)
(0 0 0.00414224)
(0 0 0.0043778)
(0 0 0.00461316)
(0 0 0.00484829)
(0 0 0.00508318)
(0 0 0.00531781)
(0 0 0.00555216)
(0 0 0.0057862)
(0 0 0.00601992)
(0 0 0.0062533)
(0 0 0.00648631)
(0 0 0.00671893)
(0 0 0.00695114)
(0 0 0.00718289)
(0 0 0.00741418)
(0 0 0.00764497)
(0 0 0.00787522)
(0 0 0.00810491)
(0 0 0.00833401)
(0 0 0.00856249)
(0 0 0.00879029)
(0 0 0.0090174)
(0 0 0.00924378)
(0 0 0.00946938)
(0 0 0.00969416)
(0 0 0.00991809)
(0 0 0.0101411)
(0 0 0.0103632)
(0 0 0.0105843)
(0 0 0.0108043)
(0 0 0.0110233)
(0 0 0.0112412)
(0 0 0.0114578)
(0 0 0.0116733)
(0 0 0.0118874)
(0 0 0.0121002)
(0 0 0.0123116)
(0 0 0.0125216)
(0 0 0.01273)
(0 0 0.0129369)
(0 0 0.0131422)
(0 0 0.0133457)
(0 0 0.0135476)
(0 0 0.0137476)
(0 0 0.0139457)
(0 0 0.0141419)
(0 0 0.0143362)
(0 0 0.0145283)
(0 0 0.0147184)
(0 0 0.0149062)
(0 0 0.0150918)
(0 0 0.0152751)
(0 0 0.015456)
(0 0 0.0156345)
(0 0 0.0158104)
(0 0 0.0159838)
(0 0 0.0161545)
(0 0 0.0163225)
(0 0 0.0164877)
(0 0 0.0166501)
(0 0 0.0168096)
(0 0 0.0169661)
(0 0 0.0171196)
(0 0 0.01727)
(0 0 0.0174172)
(0 0 0.0175613)
(0 0 0.017702)
(0 0 0.0178395)
(0 0 0.0179736)
(0 0 0.0181043)
(0 0 0.0182314)
(0 0 0.0183551)
(0 0 0.0184751)
(0 0 0.0185915)
(0 0 0.0187043)
(0 0 0.0188133)
(0 0 0.0189186)
(0 0 0.0190201)
(0 0 0.0191177)
(0 0 0.0192115)
(0 0 0.0193013)
(0 0 0.0193873)
(0 0 0.0194692)
(0 0 0.0195472)
(0 0 0.0196212)
(0 0 0.0196911)
(0 0 0.019757)
(0 0 0.0198188)
(0 0 0.0198765)
(0 0 0.0199301)
(0 0 0.0199796)
(0 0 0.0200251)
(0 0 0.0200663)
(0 0 0.0201035)
(0 0 0.0201366)
(0 0 0.0201655)
(0 0 0.0201904)
(0 0 0.0202112)
(0 0 0.0202278)
(0 0 0.0202404)
(0 0 0.0202489)
(0 0 0.0202534)
(0 0 0.0202539)
(0 0 0.0202504)
(0 0 0.0202429)
(0 0 0.0202314)
(0 0 0.020216)
(0 0 0.0201967)
(0 0 0.0201736)
(0 0 0.0201466)
(0 0 0.0201158)
(0 0 0.0200813)
(0 0 0.020043)
(0 0 0.0200011)
(0 0 0.0199555)
(0 0 0.0199063)
(0 0 0.0198535)
(0 0 0.0197972)
(0 0 0.0197375)
(0 0 0.0196743)
(0 0 0.0196077)
(0 0 0.0195378)
(0 0 0.0194647)
(0 0 0.0193883)
(0 0 0.0193087)
(0 0 0.019226)
(0 0 0.0191401)
(0 0 0.0190513)
(0 0 0.0189595)
(0 0 0.0188647)
(0 0 0.0187671)
(0 0 0.0186666)
(0 0 0.0185634)
(0 0 0.0184574)
(0 0 0.0183488)
(0 0 0.0182376)
(0 0 0.0181238)
(0 0 0.0180074)
(0 0 0.0178887)
(0 0 0.0177675)
(0 0 0.0176439)
(0 0 0.0175181)
(0 0 0.01739)
(0 0 0.0172596)
(0 0 0.0171272)
(0 0 0.0169926)
(0 0 0.0168559)
(0 0 0.0167173)
(0 0 0.0165767)
(0 0 0.0164342)
(0 0 0.0162898)
(0 0 0.0161436)
(0 0 0.0159956)
(0 0 0.0158459)
(0 0 0.0156945)
(0 0 0.0155415)
(0 0 0.0153868)
(0 0 0.0152306)
(0 0 0.0150729)
(0 0 0.0149138)
(0 0 0.0147532)
(0 0 0.0145912)
(0 0 0.0144278)
(0 0 0.0142632)
(0 0 0.0140973)
(0 0 0.0139301)
(0 0 0.0137617)
(0 0 0.0135922)
(0 0 0.0134215)
(0 0 0.0132498)
(0 0 0.013077)
(0 0 0.0129031)
(0 0 0.0127283)
(0 0 0.0125525)
(0 0 0.0123758)
(0 0 0.0121981)
(0 0 0.0120196)
(0 0 0.0118403)
(0 0 0.0116601)
(0 0 0.0114792)
(0 0 0.0112975)
(0 0 0.011115)
(0 0 0.0109319)
(0 0 0.010748)
(0 0 0.0105635)
(0 0 0.0103784)