/*--------------------------------*- C++ -*----------------------------------*\
| =========                 |                                                 |
| \\      /  F ield         | OpenFOAM: The Open Source CFD Toolbox           |
|  \\    /   O peration     | Version:  v2012                                 |
|   \\  /    A nd           | Website:  www.openfoam.com                      |
|    \\/     M anipulation  |                                                 |
\*---------------------------------------------------------------------------*/
FoamFile
{
    version     2.0;
    format      ascii;
    class       surfaceScalarField;
    location    "2.5";
    object      phi;
}
// * * * * * * * * * * * * * * * * * * * * * * * * * * * * * * * * * * * * * //

dimensions      [0 3 -1 0 0 0 0];
oriented        oriented;


internalField   nonuniform List<scalar> 
130560
(
3.4803e-06
-3.4803e-06
6.96037e-06
-3.48008e-06
1.044e-05
-3.47964e-06
1.3919e-05
-3.47899e-06
1.73971e-05
-3.47813e-06
2.08742e-05
-3.47704e-06
2.43499e-05
-3.47573e-06
2.78241e-05
-3.47419e-06
3.12965e-05
-3.47242e-06
3.47669e-05
-3.47042e-06
3.82351e-05
-3.46818e-06
4.17008e-05
-3.46569e-06
4.51638e-05
-3.46296e-06
4.86237e-05
-3.45997e-06
5.20804e-05
-3.45671e-06
5.55336e-05
-3.45319e-06
5.8983e-05
-3.4494e-06
6.24283e-05
-3.44531e-06
6.58693e-05
-3.44094e-06
6.93055e-05
-3.43626e-06
7.27368e-05
-3.43128e-06
7.61628e-05
-3.42597e-06
7.95831e-05
-3.42034e-06
8.29975e-05
-3.41436e-06
8.64055e-05
-3.40804e-06
8.98069e-05
-3.40135e-06
9.32012e-05
-3.39429e-06
9.6588e-05
-3.38685e-06
9.9967e-05
-3.37901e-06
0.000103338
-3.37076e-06
0.0001067
-3.3621e-06
0.000110053
-3.353e-06
0.000113396
-3.34346e-06
0.00011673
-3.33346e-06
0.000120053
-3.32299e-06
0.000123365
-3.31204e-06
0.000126665
-3.30059e-06
0.000129954
-3.28863e-06
0.00013323
-3.27615e-06
0.000136493
-3.26313e-06
0.000139743
-3.24957e-06
0.000142978
-3.23544e-06
0.000146199
-3.22074e-06
0.000149405
-3.20546e-06
0.000152594
-3.18957e-06
0.000155767
-3.17307e-06
0.000158923
-3.15595e-06
0.000162061
-3.13819e-06
0.000165181
-3.11979e-06
0.000168282
-3.10072e-06
0.000171363
-3.08099e-06
0.000174423
-3.06057e-06
0.000177463
-3.03947e-06
0.000180481
-3.01767e-06
0.000183476
-2.99515e-06
0.000186448
-2.97192e-06
0.000189396
-2.94797e-06
0.000192319
-2.92328e-06
0.000195217
-2.89785e-06
0.000198088
-2.87168e-06
0.000200933
-2.84476e-06
0.00020375
-2.81708e-06
0.000206539
-2.78864e-06
0.000209298
-2.75943e-06
0.000212028
-2.72947e-06
0.000214727
-2.69873e-06
0.000217394
-2.66723e-06
0.000220029
-2.63496e-06
0.000222631
-2.60192e-06
0.000225199
-2.56812e-06
0.000227732
-2.53355e-06
0.000230231
-2.49823e-06
0.000232693
-2.46215e-06
0.000235118
-2.42532e-06
0.000237506
-2.38775e-06
0.000239855
-2.34945e-06
0.000242166
-2.31041e-06
0.000244436
-2.27066e-06
0.000246666
-2.2302e-06
0.000248856
-2.18905e-06
0.000251003
-2.14721e-06
0.000253107
-2.10469e-06
0.000255169
-2.06152e-06
0.000257187
-2.0177e-06
0.00025916
-1.97325e-06
0.000261088
-1.92818e-06
0.000262971
-1.88252e-06
0.000264807
-1.83628e-06
0.000266596
-1.78947e-06
0.000268338
-1.74212e-06
0.000270033
-1.69425e-06
0.000271679
-1.64587e-06
0.000273276
-1.59701e-06
0.000274823
-1.54769e-06
0.000276321
-1.49792e-06
0.000277769
-1.44774e-06
0.000279166
-1.39715e-06
0.000280512
-1.3462e-06
0.000281807
-1.29489e-06
0.00028305
-1.24326e-06
0.000284242
-1.19131e-06
0.000285381
-1.13909e-06
0.000286467
-1.08661e-06
0.000287501
-1.0339e-06
0.000288482
-9.80979e-07
0.00028941
-9.27871e-07
0.000290285
-8.746e-07
0.000291106
-8.2119e-07
0.000291874
-7.67666e-07
0.000292588
-7.1405e-07
0.000293248
-6.60365e-07
0.000293855
-6.06634e-07
0.000294408
-5.5288e-07
0.000294907
-4.99125e-07
0.000295352
-4.45391e-07
0.000295744
-3.917e-07
0.000296082
-3.38073e-07
0.000296366
-2.8453e-07
0.000296597
-2.31091e-07
0.000296775
-1.77777e-07
0.0002969
-1.24606e-07
0.000296971
-7.15983e-08
0.00029699
-1.8771e-08
0.000296956
3.38578e-08
0.00029687
8.62711e-08
0.000296732
1.38452e-07
0.000296541
1.90385e-07
0.000296299
2.42054e-07
0.000296006
2.93444e-07
0.000295661
3.4454e-07
0.000295266
3.9533e-07
0.00029482
4.45799e-07
0.000294324
4.95936e-07
0.000293778
5.45726e-07
0.000293183
5.9516e-07
0.000292539
6.44226e-07
0.000291846
6.92912e-07
0.000291105
7.4121e-07
0.000290316
7.89108e-07
0.000289479
8.36599e-07
0.000288596
8.83673e-07
0.000287665
9.30321e-07
0.000286689
9.76536e-07
0.000285666
1.02231e-06
0.000284599
1.06764e-06
0.000283486
1.11251e-06
0.000282329
1.15692e-06
0.000281128
1.20087e-06
0.000279884
1.24434e-06
0.000278597
1.28733e-06
0.000277267
1.32984e-06
0.000275895
1.37186e-06
0.000274482
1.41339e-06
0.000273027
1.45443e-06
0.000271532
1.49496e-06
0.000269997
1.53499e-06
0.000268423
1.5745e-06
0.000266809
1.61351e-06
0.000265157
1.652e-06
0.000263467
1.68998e-06
0.00026174
1.72743e-06
0.000259975
1.76437e-06
0.000258175
1.80077e-06
0.000256338
1.83665e-06
0.000254466
1.872e-06
0.000252559
1.90682e-06
0.000250618
1.94111e-06
0.000248643
1.97486e-06
0.000246635
2.00808e-06
0.000244594
2.04076e-06
0.000242522
2.0729e-06
0.000240417
2.10451e-06
0.000238281
2.13557e-06
0.000236115
2.1661e-06
0.000233919
2.19609e-06
0.000231694
2.22554e-06
0.000229439
2.25445e-06
0.000227156
2.28283e-06
0.000224846
2.31066e-06
0.000222508
2.33796e-06
0.000220143
2.36473e-06
0.000217752
2.39096e-06
0.000215336
2.41665e-06
0.000212894
2.44182e-06
0.000210427
2.46645e-06
0.000207937
2.49056e-06
0.000205423
2.51415e-06
0.000202885
2.53721e-06
0.000200326
2.55975e-06
0.000197744
2.58178e-06
0.00019514
2.60329e-06
0.000192516
2.6243e-06
0.000189871
2.64479e-06
0.000187207
2.66479e-06
0.000184522
2.68429e-06
0.000181819
2.70329e-06
0.000179097
2.7218e-06
0.000176357
2.73983e-06
0.0001736
2.75738e-06
0.000170826
2.77445e-06
0.000168035
2.79106e-06
0.000165227
2.8072e-06
0.000162404
2.82288e-06
0.000159566
2.83811e-06
0.000156713
2.85289e-06
0.000153846
2.86723e-06
0.000150965
2.88114e-06
0.00014807
2.89462e-06
0.000145163
2.90768e-06
0.000142242
2.92032e-06
0.00013931
2.93256e-06
0.000136365
2.94439e-06
0.00013341
2.95583e-06
0.000130443
2.96688e-06
0.000127465
2.97755e-06
0.000124477
2.98784e-06
0.00012148
2.99777e-06
0.000118472
3.00734e-06
0.000115456
3.01656e-06
0.00011243
3.02543e-06
0.000109396
3.03396e-06
0.000106354
3.04216e-06
0.000103304
3.05003e-06
0.000100247
3.05759e-06
9.71817e-05
3.06483e-06
9.411e-05
3.07177e-06
9.10315e-05
3.07841e-06
8.79468e-05
3.08477e-06
8.48559e-05
3.09083e-06
8.17593e-05
3.09662e-06
7.86572e-05
3.10214e-06
7.55498e-05
3.10739e-06
7.24374e-05
3.11238e-06
6.93203e-05
3.11712e-06
6.61987e-05
3.1216e-06
6.30728e-05
3.12585e-06
5.9943e-05
3.12986e-06
5.68094e-05
3.13363e-06
5.36722e-05
3.13717e-06
5.05317e-05
3.1405e-06
4.73881e-05
3.1436e-06
4.42416e-05
3.14649e-06
4.10924e-05
3.14916e-06
3.79408e-05
3.15163e-06
3.47869e-05
3.1539e-06
3.16309e-05
3.15596e-06
2.84731e-05
3.15783e-06
2.53136e-05
3.15951e-06
2.21526e-05
3.16099e-06
1.89903e-05
3.16228e-06
1.5827e-05
3.16338e-06
1.26627e-05
3.1643e-06
9.49763e-06
3.16503e-06
6.33206e-06
3.16558e-06
3.16612e-06
3.16594e-06
3.16612e-06
3.4805e-06
-6.9608e-06
6.96079e-06
-6.96036e-06
1.04406e-05
-6.9595e-06
1.39198e-05
-6.9582e-06
1.73982e-05
-6.95647e-06
2.08754e-05
-6.9543e-06
2.43514e-05
-6.95168e-06
2.78258e-05
-6.9486e-06
3.12985e-05
-6.94507e-06
3.47691e-05
-6.94107e-06
3.82375e-05
-6.93659e-06
4.17035e-05
-6.93163e-06
4.51667e-05
-6.92617e-06
4.86269e-05
-6.92019e-06
5.20839e-05
-6.91369e-06
5.55373e-05
-6.90666e-06
5.8987e-05
-6.89907e-06
6.24326e-05
-6.89092e-06
6.58739e-05
-6.88218e-06
6.93104e-05
-6.87283e-06
7.2742e-05
-6.86287e-06
7.61683e-05
-6.85227e-06
7.9589e-05
-6.84101e-06
8.30037e-05
-6.82907e-06
8.64121e-05
-6.81643e-06
8.98138e-05
-6.80307e-06
9.32085e-05
-6.78896e-06
9.65957e-05
-6.77409e-06
9.99751e-05
-6.75842e-06
0.000103346
-6.74194e-06
0.000106709
-6.72463e-06
0.000110062
-6.70644e-06
0.000113406
-6.68737e-06
0.00011674
-6.66739e-06
0.000120064
-6.64646e-06
0.000123376
-6.62457e-06
0.000126677
-6.60168e-06
0.000129966
-6.57778e-06
0.000133243
-6.55283e-06
0.000136507
-6.52681e-06
0.000139757
-6.4997e-06
0.000142993
-6.47146e-06
0.000146214
-6.44207e-06
0.00014942
-6.41151e-06
0.00015261
-6.37975e-06
0.000155784
-6.34677e-06
0.000158941
-6.31254e-06
0.00016208
-6.27703e-06
0.0001652
-6.24023e-06
0.000168301
-6.20211e-06
0.000171383
-6.16266e-06
0.000174444
-6.12184e-06
0.000177484
-6.07964e-06
0.000180503
-6.03604e-06
0.000183499
-5.99102e-06
0.000186471
-5.94457e-06
0.00018942
-5.89667e-06
0.000192344
-5.8473e-06
0.000195243
-5.79645e-06
0.000198115
-5.74411e-06
0.000200961
-5.69027e-06
0.000203778
-5.63491e-06
0.000206568
-5.57803e-06
0.000209328
-5.51963e-06
0.000212058
-5.4597e-06
0.000214758
-5.39823e-06
0.000217426
-5.33522e-06
0.000220062
-5.27068e-06
0.000222664
-5.2046e-06
0.000225233
-5.13699e-06
0.000227767
-5.06786e-06
0.000230266
-4.99721e-06
0.000232729
-4.92505e-06
0.000235155
-4.85139e-06
0.000237544
-4.77624e-06
0.000239894
-4.69962e-06
0.000242205
-4.62155e-06
0.000244476
-4.54204e-06
0.000246707
-4.46111e-06
0.000248897
-4.37878e-06
0.000251045
-4.29509e-06
0.00025315
-4.21004e-06
0.000255213
-4.12368e-06
0.000257231
-4.03602e-06
0.000259205
-3.94711e-06
0.000261134
-3.85696e-06
0.000263017
-3.76562e-06
0.000264853
-3.67311e-06
0.000266643
-3.57949e-06
0.000268386
-3.48477e-06
0.000270081
-3.389e-06
0.000271727
-3.29223e-06
0.000273325
-3.19448e-06
0.000274873
-3.09582e-06
0.000276371
-2.99626e-06
0.000277819
-2.89587e-06
0.000279217
-2.79469e-06
0.000280563
-2.69275e-06
0.000281859
-2.59011e-06
0.000283102
-2.48682e-06
0.000284294
-2.38291e-06
0.000285433
-2.27845e-06
0.00028652
-2.17347e-06
0.000287554
-2.06802e-06
0.000288535
-1.96215e-06
0.000289463
-1.85591e-06
0.000290338
-1.74934e-06
0.000291159
-1.6425e-06
0.000291927
-1.53543e-06
0.000292641
-1.42817e-06
0.000293302
-1.32078e-06
0.000293908
-1.21329e-06
0.000294461
-1.10576e-06
0.00029496
-9.98233e-07
0.000295406
-8.90744e-07
0.000295797
-7.83341e-07
0.000296135
-6.76065e-07
0.00029642
-5.68958e-07
0.000296651
-4.62062e-07
0.000296828
-3.55414e-07
0.000296953
-2.49054e-07
0.000297024
-1.4302e-07
0.000297043
-3.73478e-08
0.000297009
6.79271e-08
0.000296922
1.7277e-07
0.000296783
2.77148e-07
0.000296593
3.81029e-07
0.000296351
4.84382e-07
0.000296057
5.87176e-07
0.000295712
6.89383e-07
0.000295316
7.90976e-07
0.00029487
8.91928e-07
0.000294374
9.92212e-07
0.000293828
1.09181e-06
0.000293232
1.19068e-06
0.000292588
1.28883e-06
0.000291894
1.38621e-06
0.000291153
1.48281e-06
0.000290363
1.57862e-06
0.000289526
1.67361e-06
0.000288642
1.76777e-06
0.000287711
1.86107e-06
0.000286734
1.95351e-06
0.000285712
2.04507e-06
0.000284644
2.13573e-06
0.000283531
2.22548e-06
0.000282373
2.31431e-06
0.000281172
2.4022e-06
0.000279927
2.48915e-06
0.000278639
2.57514e-06
0.000277309
2.66017e-06
0.000275937
2.74422e-06
0.000274523
2.82728e-06
0.000273068
2.90935e-06
0.000271572
2.99042e-06
0.000270037
3.07048e-06
0.000268462
3.14952e-06
0.000266848
3.22753e-06
0.000265195
3.30452e-06
0.000263505
3.38048e-06
0.000261777
3.45539e-06
0.000260012
3.52925e-06
0.000258211
3.60207e-06
0.000256373
3.67383e-06
0.000254501
3.74453e-06
0.000252594
3.81417e-06
0.000250652
3.88274e-06
0.000248677
3.95025e-06
0.000246668
4.01669e-06
0.000244627
4.08205e-06
0.000242553
4.14633e-06
0.000240448
4.20955e-06
0.000238312
4.27168e-06
0.000236145
4.33274e-06
0.000233949
4.39272e-06
0.000231723
4.45162e-06
0.000229468
4.50944e-06
0.000227184
4.56619e-06
0.000224873
4.62186e-06
0.000222535
4.67646e-06
0.000220169
4.72998e-06
0.000217778
4.78244e-06
0.000215361
4.83384e-06
0.000212918
4.88416e-06
0.000210451
4.93344e-06
0.00020796
4.98165e-06
0.000205446
5.02882e-06
0.000202908
5.07494e-06
0.000200348
5.12002e-06
0.000197765
5.16407e-06
0.000195162
5.2071e-06
0.000192537
5.2491e-06
0.000189892
5.29009e-06
0.000187226
5.33008e-06
0.000184541
5.36906e-06
0.000181838
5.40707e-06
0.000179115
5.44409e-06
0.000176375
5.48014e-06
0.000173617
5.51523e-06
0.000170842
5.54938e-06
0.000168051
5.58258e-06
0.000165243
5.61486e-06
0.00016242
5.64621e-06
0.000159581
5.67667e-06
0.000156728
5.70623e-06
0.00015386
5.7349e-06
0.000150979
5.76271e-06
0.000148084
5.78967e-06
0.000145176
5.81578e-06
0.000142255
5.84106e-06
0.000139322
5.86552e-06
0.000136377
5.88918e-06
0.000133421
5.91205e-06
0.000130454
5.93414e-06
0.000127476
5.95547e-06
0.000124487
5.97606e-06
0.000121489
5.99591e-06
0.000118482
6.01503e-06
0.000115465
6.03346e-06
0.000112439
6.05119e-06
0.000109405
6.06825e-06
0.000106362
6.08464e-06
0.000103312
6.10038e-06
0.000100254
6.11548e-06
9.71888e-05
6.12997e-06
9.41167e-05
6.14384e-06
9.1038e-05
6.15712e-06
8.79529e-05
6.16982e-06
8.48618e-05
6.18195e-06
8.17649e-05
6.19352e-06
7.86625e-05
6.20455e-06
7.55549e-05
6.21504e-06
7.24422e-05
6.22502e-06
6.93248e-05
6.23448e-06
6.6203e-05
6.24345e-06
6.30769e-05
6.25194e-06
5.99468e-05
6.25995e-06
5.6813e-05
6.26749e-06
5.36756e-05
6.27457e-06
5.05348e-05
6.28121e-06
4.7391e-05
6.28741e-06
4.42443e-05
6.29319e-06
4.1095e-05
6.29854e-06
3.79431e-05
6.30347e-06
3.4789e-05
6.308e-06
3.16328e-05
6.31213e-06
2.84748e-05
6.31586e-06
2.53151e-05
6.31921e-06
2.21539e-05
6.32217e-06
1.89915e-05
6.32475e-06
1.58279e-05
6.32695e-06
1.26634e-05
6.32878e-06
9.49819e-06
6.33025e-06
6.33243e-06
6.33134e-06
3.1663e-06
6.33206e-06
6.33242e-06
3.48093e-06
-1.04417e-05
6.96166e-06
-1.04411e-05
1.04419e-05
-1.04398e-05
1.39216e-05
-1.04378e-05
1.74004e-05
-1.04353e-05
2.08781e-05
-1.0432e-05
2.43545e-05
-1.04281e-05
2.78294e-05
-1.04235e-05
3.13025e-05
-1.04182e-05
3.47736e-05
-1.04122e-05
3.82425e-05
-1.04055e-05
4.1709e-05
-1.03981e-05
4.51727e-05
-1.03899e-05
4.86334e-05
-1.03809e-05
5.2091e-05
-1.03712e-05
5.5545e-05
-1.03607e-05
5.89952e-05
-1.03493e-05
6.24414e-05
-1.03371e-05
6.58832e-05
-1.0324e-05
6.93204e-05
-1.031e-05
7.27527e-05
-1.02951e-05
7.61796e-05
-1.02792e-05
7.9601e-05
-1.02624e-05
8.30164e-05
-1.02445e-05
8.64255e-05
-1.02255e-05
8.9828e-05
-1.02055e-05
9.32234e-05
-1.01844e-05
9.66115e-05
-1.01621e-05
9.99917e-05
-1.01387e-05
0.000103364
-1.0114e-05
0.000106727
-1.0088e-05
0.000110081
-1.00608e-05
0.000113426
-1.00322e-05
0.000116761
-1.00023e-05
0.000120086
-9.9709e-06
0.000123399
-9.93809e-06
0.000126701
-9.9038e-06
0.000129991
-9.86798e-06
0.000133269
-9.83059e-06
0.000136534
-9.79159e-06
0.000139785
-9.75095e-06
0.000143022
-9.70863e-06
0.000146245
-9.66458e-06
0.000149452
-9.61877e-06
0.000152644
-9.57116e-06
0.000155818
-9.52171e-06
0.000158976
-9.47039e-06
0.000162116
-9.41717e-06
0.000165238
-9.36199e-06
0.000168341
-9.30484e-06
0.000171424
-9.24568e-06
0.000174487
-9.18448e-06
0.000177528
-9.12121e-06
0.000180548
-9.05583e-06
0.000183545
-8.98833e-06
0.000186519
-8.91867e-06
0.00018947
-8.84684e-06
0.000192395
-8.7728e-06
0.000195295
-8.69654e-06
0.000198169
-8.61804e-06
0.000201016
-8.53729e-06
0.000203835
-8.45427e-06
0.000206626
-8.36896e-06
0.000209388
-8.28136e-06
0.00021212
-8.19146e-06
0.000214821
-8.09926e-06
0.00021749
-8.00475e-06
0.000220128
-7.90794e-06
0.000222732
-7.80882e-06
0.000225302
-7.7074e-06
0.000227838
-7.60369e-06
0.000230339
-7.4977e-06
0.000232803
-7.38944e-06
0.000235231
-7.27894e-06
0.000237621
-7.1662e-06
0.000239972
-7.05125e-06
0.000242285
-6.93412e-06
0.000244558
-6.81483e-06
0.00024679
-6.69341e-06
0.000248981
-6.56989e-06
0.00025113
-6.44431e-06
0.000253237
-6.31671e-06
0.0002553
-6.18713e-06
0.00025732
-6.05561e-06
0.000259295
-5.9222e-06
0.000261225
-5.78694e-06
0.000263109
-5.64988e-06
0.000264947
-5.51108e-06
0.000266738
-5.37059e-06
0.000268482
-5.22847e-06
0.000270178
-5.08477e-06
0.000271825
-4.93955e-06
0.000273423
-4.79288e-06
0.000274972
-4.64483e-06
0.000276472
-4.49544e-06
0.000277921
-4.3448e-06
0.000279319
-4.19296e-06
0.000280666
-4.04001e-06
0.000281962
-3.88599e-06
0.000283206
-3.73099e-06
0.000284398
-3.57507e-06
0.000285538
-3.41831e-06
0.000286626
-3.26078e-06
0.00028766
-3.10255e-06
0.000288642
-2.94369e-06
0.00028957
-2.78427e-06
0.000290445
-2.62436e-06
0.000291267
-2.46404e-06
0.000292034
-2.30337e-06
0.000292749
-2.14243e-06
0.000293409
-1.98128e-06
0.000294016
-1.82e-06
0.000294569
-1.65865e-06
0.000295068
-1.4973e-06
0.000295513
-1.33601e-06
0.000295905
-1.17485e-06
0.000296242
-1.01389e-06
0.000296527
-8.53176e-07
0.000296757
-6.92781e-07
0.000296935
-5.32761e-07
0.000297059
-3.73175e-07
0.00029713
-2.14078e-07
0.000297148
-5.55253e-08
0.000297114
1.0243e-07
0.000297027
2.59736e-07
0.000296887
4.16343e-07
0.000296696
5.72203e-07
0.000296453
7.2727e-07
0.000296159
8.81497e-07
0.000295814
1.03484e-06
0.000295417
1.18727e-06
0.000294971
1.33872e-06
0.000294474
1.48918e-06
0.000293927
1.6386e-06
0.00029333
1.78695e-06
0.000292685
1.93419e-06
0.000291991
2.08029e-06
0.000291249
2.22522e-06
0.000290458
2.36895e-06
0.00028962
2.51146e-06
0.000288736
2.65271e-06
0.000287804
2.79269e-06
0.000286826
2.93137e-06
0.000285802
3.06872e-06
0.000284733
3.20473e-06
0.000283619
3.33937e-06
0.000282461
3.47263e-06
0.000281259
3.60448e-06
0.000280013
3.73492e-06
0.000278724
3.86392e-06
0.000277393
3.99147e-06
0.00027602
4.11756e-06
0.000274605
4.24216e-06
0.000273149
4.36528e-06
0.000271652
4.48689e-06
0.000270116
4.60698e-06
0.00026854
4.72555e-06
0.000266925
4.84259e-06
0.000265271
4.95808e-06
0.00026358
5.07201e-06
0.000261851
5.18439e-06
0.000260085
5.29519e-06
0.000258282
5.40442e-06
0.000256444
5.51207e-06
0.000254571
5.61812e-06
0.000252662
5.72259e-06
0.000250719
5.82545e-06
0.000248743
5.92671e-06
0.000246733
6.02637e-06
0.000244691
6.12441e-06
0.000242616
6.22085e-06
0.00024051
6.31567e-06
0.000238373
6.40887e-06
0.000236205
6.50045e-06
0.000234008
6.59042e-06
0.000231781
6.67877e-06
0.000229524
6.76551e-06
0.00022724
6.85063e-06
0.000224928
6.93413e-06
0.000222588
7.01603e-06
0.000220222
7.09631e-06
0.000217829
7.175e-06
0.000215411
7.25208e-06
0.000212968
7.32757e-06
0.0002105
7.40147e-06
0.000208008
7.47379e-06
0.000205492
7.54453e-06
0.000202953
7.61371e-06
0.000200392
7.68133e-06
0.000197808
7.74739e-06
0.000195204
7.81192e-06
0.000192578
7.87491e-06
0.000189931
7.93639e-06
0.000187265
7.99636e-06
0.000184579
8.05483e-06
0.000181875
8.11182e-06
0.000179151
8.16734e-06
0.00017641
8.22141e-06
0.000173651
8.27404e-06
0.000170875
8.32524e-06
0.000168083
8.37503e-06
0.000165274
8.42343e-06
0.00016245
8.47045e-06
0.000159611
8.51612e-06
0.000156757
8.56044e-06
0.000153888
8.60344e-06
0.000151006
8.64514e-06
0.00014811
8.68555e-06
0.000145201
8.7247e-06
0.000142279
8.7626e-06
0.000139345
8.79928e-06
0.0001364
8.83475e-06
0.000133443
8.86904e-06
0.000130475
8.90216e-06
0.000127496
8.93414e-06
0.000124507
8.965e-06
0.000121508
8.99476e-06
0.0001185
9.02343e-06
0.000115482
9.05105e-06
0.000112456
9.07763e-06
0.000109421
9.1032e-06
0.000106378
9.12777e-06
0.000103327
9.15136e-06
0.000100268
9.174e-06
9.72026e-05
9.19571e-06
9.41299e-05
9.21651e-06
9.10506e-05
9.23641e-06
8.7965e-05
9.25544e-06
8.48734e-05
9.27362e-06
8.17759e-05
9.29096e-06
7.8673e-05
9.30748e-06
7.55648e-05
9.32321e-06
7.24517e-05
9.33816e-06
6.93338e-05
9.35235e-06
6.62115e-05
9.36579e-06
6.30849e-05
9.3785e-06
5.99543e-05
9.3905e-06
5.682e-05
9.4018e-06
5.36822e-05
9.41242e-06
5.0541e-05
9.42237e-06
4.73968e-05
9.43166e-06
4.42497e-05
9.44031e-06
4.10999e-05
9.44832e-06
3.79476e-05
9.45572e-06
3.47931e-05
9.4625e-06
3.16366e-05
9.46869e-06
2.84781e-05
9.47428e-06
2.53181e-05
9.47929e-06
2.21565e-05
9.48373e-06
1.89937e-05
9.48759e-06
1.58297e-05
9.49089e-06
1.26649e-05
9.49364e-06
9.49928e-06
9.49583e-06
6.33315e-06
9.49746e-06
3.16667e-06
9.49855e-06
9.49909e-06
3.48158e-06
-1.39233e-05
6.96296e-06
-1.39225e-05
1.04439e-05
-1.39207e-05
1.39242e-05
-1.39182e-05
1.74037e-05
-1.39147e-05
2.0882e-05
-1.39104e-05
2.43591e-05
-1.39052e-05
2.78347e-05
-1.3899e-05
3.13085e-05
-1.3892e-05
3.47804e-05
-1.38841e-05
3.825e-05
-1.38751e-05
4.17172e-05
-1.38653e-05
4.51817e-05
-1.38544e-05
4.86432e-05
-1.38425e-05
5.21015e-05
-1.38295e-05
5.55564e-05
-1.38155e-05
5.90075e-05
-1.38004e-05
6.24546e-05
-1.37842e-05
6.58973e-05
-1.37668e-05
6.93354e-05
-1.37482e-05
7.27686e-05
-1.37283e-05
7.61966e-05
-1.37072e-05
7.9619e-05
-1.36847e-05
8.30354e-05
-1.36609e-05
8.64456e-05
-1.36358e-05
8.98492e-05
-1.36091e-05
9.32458e-05
-1.3581e-05
9.6635e-05
-1.35513e-05
0.000100016
-1.35201e-05
0.00010339
-1.34872e-05
0.000106754
-1.34527e-05
0.00011011
-1.34164e-05
0.000113456
-1.33784e-05
0.000116793
-1.33385e-05
0.000120118
-1.32968e-05
0.000123434
-1.32531e-05
0.000126737
-1.32074e-05
0.000130029
-1.31597e-05
0.000133308
-1.31099e-05
0.000136575
-1.3058e-05
0.000139828
-1.30039e-05
0.000143067
-1.29475e-05
0.000146291
-1.28888e-05
0.0001495
-1.28278e-05
0.000152693
-1.27644e-05
0.00015587
-1.26985e-05
0.00015903
-1.26302e-05
0.000162172
-1.25592e-05
0.000165296
-1.24857e-05
0.0001684
-1.24096e-05
0.000171485
-1.23308e-05
0.00017455
-1.22492e-05
0.000177594
-1.21649e-05
0.000180616
-1.20778e-05
0.000183615
-1.19878e-05
0.000186591
-1.1895e-05
0.000189544
-1.17992e-05
0.000192471
-1.17005e-05
0.000195374
-1.15989e-05
0.00019825
-1.14942e-05
0.000201099
-1.13866e-05
0.000203921
-1.12759e-05
0.000206714
-1.11622e-05
0.000209478
-1.10454e-05
0.000212212
-1.09255e-05
0.000214916
-1.08026e-05
0.000217587
-1.06766e-05
0.000220227
-1.05475e-05
0.000222834
-1.04153e-05
0.000225406
-1.02801e-05
0.000227944
-1.01418e-05
0.000230447
-1.00005e-05
0.000232914
-9.85609e-06
0.000235344
-9.70872e-06
0.000237736
-9.55837e-06
0.000240089
-9.40507e-06
0.000242404
-9.24885e-06
0.000244679
-9.08974e-06
0.000246914
-8.9278e-06
0.000249107
-8.76306e-06
0.000251258
-8.59556e-06
0.000253367
-8.42537e-06
0.000255432
-8.25253e-06
0.000257453
-8.07709e-06
0.00025943
-7.89913e-06
0.000261362
-7.71871e-06
0.000263248
-7.53588e-06
0.000265088
-7.35073e-06
0.000266881
-7.16332e-06
0.000268626
-6.97373e-06
0.000270323
-6.78204e-06
0.000271972
-6.58833e-06
0.000273572
-6.39267e-06
0.000275122
-6.19516e-06
0.000276622
-5.99588e-06
0.000278073
-5.79492e-06
0.000279472
-5.59237e-06
0.00028082
-5.38831e-06
0.000282117
-5.18285e-06
0.000283362
-4.97607e-06
0.000284555
-4.76808e-06
0.000285696
-4.55895e-06
0.000286784
-4.3488e-06
0.000287819
-4.13771e-06
0.000288801
-3.92578e-06
0.00028973
-3.71311e-06
0.000290605
-3.49979e-06
0.000291427
-3.28592e-06
0.000292196
-3.07159e-06
0.00029291
-2.85689e-06
0.000293571
-2.64192e-06
0.000294177
-2.42677e-06
0.00029473
-2.21153e-06
0.000295229
-1.99629e-06
0.000295674
-1.78114e-06
0.000296066
-1.56617e-06
0.000296403
-1.35145e-06
0.000296687
-1.13707e-06
0.000296918
-9.23123e-07
0.000297094
-7.09673e-07
0.000297218
-4.96804e-07
0.000297289
-2.84589e-07
0.000297306
-7.31025e-08
0.000297271
1.37585e-07
0.000297183
3.47404e-07
0.000297043
5.56289e-07
0.000296851
7.64175e-07
0.000296608
9.70999e-07
0.000296312
1.1767e-06
0.000295966
1.38123e-06
0.000295569
1.58452e-06
0.000295121
1.78653e-06
0.000294623
1.98719e-06
0.000294075
2.18647e-06
0.000293478
2.38432e-06
0.000292831
2.58069e-06
0.000292136
2.77554e-06
0.000291392
2.96882e-06
0.000290601
3.16051e-06
0.000289762
3.35056e-06
0.000288876
3.53894e-06
0.000287943
3.72561e-06
0.000286963
3.91055e-06
0.000285938
4.09372e-06
0.000284868
4.27509e-06
0.000283753
4.45465e-06
0.000282593
4.63235e-06
0.000281389
4.80819e-06
0.000280142
4.98213e-06
0.000278852
5.15416e-06
0.000277519
5.32424e-06
0.000276144
5.49238e-06
0.000274728
5.65854e-06
0.00027327
5.82271e-06
0.000271773
5.98488e-06
0.000270234
6.14502e-06
0.000268657
6.30313e-06
0.00026704
6.45919e-06
0.000265385
6.61319e-06
0.000263692
6.76512e-06
0.000261962
6.91496e-06
0.000260194
7.06271e-06
0.00025839
7.20836e-06
0.00025655
7.3519e-06
0.000254675
7.49331e-06
0.000252765
7.63261e-06
0.000250821
7.76976e-06
0.000248843
7.90479e-06
0.000246831
8.03766e-06
0.000244787
8.1684e-06
0.000242711
8.29698e-06
0.000240603
8.4234e-06
0.000238465
8.54767e-06
0.000236295
8.66979e-06
0.000234096
8.78975e-06
0.000231867
8.90755e-06
0.00022961
9.02319e-06
0.000227324
9.13668e-06
0.00022501
9.24801e-06
0.000222668
9.3572e-06
0.000220301
9.46425e-06
0.000217906
9.56915e-06
0.000215487
9.67192e-06
0.000213042
9.77257e-06
0.000210572
9.87109e-06
0.000208078
9.96751e-06
0.000205561
1.00618e-05
0.000203021
1.0154e-05
0.000200458
1.02442e-05
0.000197873
1.03323e-05
0.000195267
1.04183e-05
0.000192639
1.05022e-05
0.000189991
1.05842e-05
0.000187324
1.06641e-05
0.000184636
1.07421e-05
0.00018193
1.0818e-05
0.000179205
1.08921e-05
0.000176463
1.09641e-05
0.000173702
1.10343e-05
0.000170925
1.11025e-05
0.000168131
1.11689e-05
0.000165321
1.12334e-05
0.000162496
1.12961e-05
0.000159655
1.13569e-05
0.000156799
1.1416e-05
0.00015393
1.14733e-05
0.000151046
1.15289e-05
0.000148149
1.15827e-05
0.000145239
1.16349e-05
0.000142316
1.16854e-05
0.000139381
1.17342e-05
0.000136434
1.17815e-05
0.000133476
1.18272e-05
0.000130507
1.18713e-05
0.000127527
1.19139e-05
0.000124537
1.1955e-05
0.000121537
1.19947e-05
0.000118528
1.20329e-05
0.000115509
1.20697e-05
0.000112481
1.21051e-05
0.000109445
1.21391e-05
0.000106401
1.21719e-05
0.000103349
1.22033e-05
0.00010029
1.22335e-05
9.72233e-05
1.22624e-05
9.41498e-05
1.22901e-05
9.10696e-05
1.23166e-05
8.79832e-05
1.23419e-05
8.48907e-05
1.23661e-05
8.17924e-05
1.23892e-05
7.86887e-05
1.24112e-05
7.55797e-05
1.24322e-05
7.24658e-05
1.24521e-05
6.93472e-05
1.2471e-05
6.62241e-05
1.24889e-05
6.30969e-05
1.25058e-05
5.99656e-05
1.25218e-05
5.68306e-05
1.25368e-05
5.36921e-05
1.25509e-05
5.05503e-05
1.25642e-05
4.74054e-05
1.25765e-05
4.42577e-05
1.25881e-05
4.11072e-05
1.25987e-05
3.79544e-05
1.26086e-05
3.47993e-05
1.26176e-05
3.16421e-05
1.26258e-05
2.84831e-05
1.26333e-05
2.53225e-05
1.264e-05
2.21604e-05
1.26459e-05
1.8997e-05
1.2651e-05
1.58325e-05
1.26554e-05
1.2667e-05
1.2659e-05
9.50092e-06
1.2662e-05
6.33424e-06
1.26641e-05
3.16721e-06
1.26656e-05
1.26663e-05
3.48245e-06
-1.74058e-05
6.96468e-06
-1.74047e-05
1.04465e-05
-1.74025e-05
1.39277e-05
-1.73993e-05
1.7408e-05
-1.7395e-05
2.08873e-05
-1.73897e-05
2.43653e-05
-1.73832e-05
2.78418e-05
-1.73755e-05
3.13165e-05
-1.73668e-05
3.47893e-05
-1.73569e-05
3.82599e-05
-1.73458e-05
4.17281e-05
-1.73334e-05
4.51936e-05
-1.73199e-05
4.86562e-05
-1.73051e-05
5.21156e-05
-1.72889e-05
5.55716e-05
-1.72715e-05
5.90238e-05
-1.72527e-05
6.2472e-05
-1.72324e-05
6.5916e-05
-1.72107e-05
6.93554e-05
-1.71875e-05
7.27898e-05
-1.71628e-05
7.62191e-05
-1.71364e-05
7.96428e-05
-1.71085e-05
8.30607e-05
-1.70788e-05
8.64724e-05
-1.70474e-05
8.98774e-05
-1.70142e-05
9.32756e-05
-1.69791e-05
9.66664e-05
-1.69421e-05
0.000100049
-1.69032e-05
0.000103424
-1.68622e-05
0.000106791
-1.68191e-05
0.000110148
-1.67739e-05
0.000113496
-1.67264e-05
0.000116834
-1.66767e-05
0.000120162
-1.66246e-05
0.000123479
-1.65701e-05
0.000126785
-1.65131e-05
0.000130079
-1.64536e-05
0.00013336
-1.63915e-05
0.000136629
-1.63266e-05
0.000139884
-1.62591e-05
0.000143125
-1.61887e-05
0.000146352
-1.61155e-05
0.000149563
-1.60393e-05
0.000152759
-1.59601e-05
0.000155938
-1.58779e-05
0.000159101
-1.57925e-05
0.000162245
-1.57039e-05
0.000165372
-1.56121e-05
0.000168479
-1.5517e-05
0.000171567
-1.54186e-05
0.000174635
-1.53167e-05
0.000177681
-1.52114e-05
0.000180706
-1.51025e-05
0.000183708
-1.49901e-05
0.000186687
-1.48741e-05
0.000189643
-1.47545e-05
0.000192573
-1.46312e-05
0.000195479
-1.45042e-05
0.000198358
-1.43734e-05
0.00020121
-1.42389e-05
0.000204035
-1.41006e-05
0.000206831
-1.39585e-05
0.000209598
-1.38125e-05
0.000212335
-1.36627e-05
0.000215042
-1.3509e-05
0.000217717
-1.33515e-05
0.000220359
-1.31901e-05
0.000222969
-1.30249e-05
0.000225545
-1.28558e-05
0.000228086
-1.2683e-05
0.000230592
-1.25062e-05
0.000233061
-1.23257e-05
0.000235494
-1.21415e-05
0.000237889
-1.19535e-05
0.000240246
-1.17618e-05
0.000242563
-1.15665e-05
0.000244841
-1.13675e-05
0.000247078
-1.1165e-05
0.000249274
-1.0959e-05
0.000251428
-1.07495e-05
0.00025354
-1.05367e-05
0.000255608
-1.03205e-05
0.000257632
-1.01011e-05
0.000259611
-9.87853e-06
0.000261545
-9.65288e-06
0.000263434
-9.42422e-06
0.000265275
-9.19264e-06
0.00026707
-8.95824e-06
0.000268818
-8.72111e-06
0.000270517
-8.48134e-06
0.000272168
-8.23904e-06
0.000273769
-7.99432e-06
0.000275321
-7.74727e-06
0.000276824
-7.498e-06
0.000278275
-7.24663e-06
0.000279676
-6.99327e-06
0.000281026
-6.73803e-06
0.000282324
-6.48103e-06
0.00028357
-6.22238e-06
0.000284765
-5.9622e-06
0.000285906
-5.70062e-06
0.000286995
-5.43775e-06
0.000288031
-5.17371e-06
0.000289014
-4.90862e-06
0.000289943
-4.6426e-06
0.000290819
-4.37577e-06
0.000291642
-4.10825e-06
0.00029241
-3.84016e-06
0.000293125
-3.57162e-06
0.000293786
-3.30274e-06
0.000294393
-3.03363e-06
0.000294946
-2.76441e-06
0.000295445
-2.4952e-06
0.000295889
-2.2261e-06
0.000296281
-1.95722e-06
0.000296618
-1.68867e-06
0.000296901
-1.42055e-06
0.000297131
-1.15296e-06
0.000297307
-8.86002e-07
0.00029743
-6.19774e-07
0.0002975
-3.54369e-07
0.000297517
-8.98777e-08
0.000297481
1.7361e-07
0.000297392
4.36009e-07
0.000297251
6.97236e-07
0.000297058
9.5721e-07
0.000296813
1.21585e-06
0.000296517
1.47309e-06
0.000296169
1.72885e-06
0.000295771
1.98307e-06
0.000295322
2.23567e-06
0.000294822
2.48659e-06
0.000294273
2.73578e-06
0.000293674
2.98317e-06
0.000293026
3.22871e-06
0.000292329
3.47235e-06
0.000291584
3.71403e-06
0.000290791
3.95371e-06
0.00028995
4.19134e-06
0.000289062
4.42687e-06
0.000288128
4.66027e-06
0.000287147
4.8915e-06
0.00028612
5.12052e-06
0.000285048
5.34729e-06
0.000283931
5.57178e-06
0.000282769
5.79395e-06
0.000281563
6.01379e-06
0.000280314
6.23126e-06
0.000279022
6.44633e-06
0.000277687
6.65897e-06
0.00027631
6.86918e-06
0.000274892
7.07691e-06
0.000273433
7.28215e-06
0.000271933
7.48489e-06
0.000270393
7.6851e-06
0.000268813
7.88276e-06
0.000267194
8.07786e-06
0.000265537
8.27038e-06
0.000263842
8.46031e-06
0.000262109
8.64763e-06
0.00026034
8.83233e-06
0.000258534
9.01441e-06
0.000256692
9.19385e-06
0.000254814
9.37063e-06
0.000252902
9.54476e-06
0.000250956
9.71622e-06
0.000248975
9.885e-06
0.000246962
1.00511e-05
0.000244916
1.02145e-05
0.000242838
1.03753e-05
0.000240728
1.05333e-05
0.000238587
1.06886e-05
0.000236415
1.08413e-05
0.000234214
1.09912e-05
0.000231983
1.11385e-05
0.000229723