/*--------------------------------*- C++ -*----------------------------------*\
| =========                 |                                                 |
| \\      /  F ield         | OpenFOAM: The Open Source CFD Toolbox           |
|  \\    /   O peration     | Version:  v2012                                 |
|   \\  /    A nd           | Website:  www.openfoam.com                      |
|    \\/     M anipulation  |                                                 |
\*---------------------------------------------------------------------------*/
FoamFile
{
    version     2.0;
    format      ascii;
    class       volVectorField;
    location    "2.5";
    object      Psi;
}
// * * * * * * * * * * * * * * * * * * * * * * * * * * * * * * * * * * * * * //

dimensions      [0 2 -1 0 0 0 0];


internalField   nonuniform List<vector> 
65536
(
(0 0 8.71736e-06)
(0 0 2.61515e-05)
(0 0 4.35839e-05)
(0 0 6.10137e-05)
(0 0 7.84397e-05)
(0 0 9.58609e-05)
(0 0 0.000113276)
(0 0 0.000130684)
(0 0 0.000148084)
(0 0 0.000165475)
(0 0 0.000182855)
(0 0 0.000200223)
(0 0 0.000217578)
(0 0 0.000234919)
(0 0 0.000252245)
(0 0 0.000269553)
(0 0 0.000286844)
(0 0 0.000304114)
(0 0 0.000321364)
(0 0 0.000338591)
(0 0 0.000355794)
(0 0 0.000372972)
(0 0 0.000390122)
(0 0 0.000407244)
(0 0 0.000424334)
(0 0 0.000441392)
(0 0 0.000458416)
(0 0 0.000475404)
(0 0 0.000492354)
(0 0 0.000509263)
(0 0 0.000526131)
(0 0 0.000542954)
(0 0 0.00055973)
(0 0 0.000576458)
(0 0 0.000593134)
(0 0 0.000609757)
(0 0 0.000626324)
(0 0 0.000642833)
(0 0 0.00065928)
(0 0 0.000675664)
(0 0 0.000691981)
(0 0 0.000708229)
(0 0 0.000724405)
(0 0 0.000740505)
(0 0 0.000756528)
(0 0 0.00077247)
(0 0 0.000788327)
(0 0 0.000804097)
(0 0 0.000819777)
(0 0 0.000835362)
(0 0 0.000850851)
(0 0 0.000866238)
(0 0 0.000881522)
(0 0 0.000896698)
(0 0 0.000911763)
(0 0 0.000926713)
(0 0 0.000941545)
(0 0 0.000956255)
(0 0 0.000970839)
(0 0 0.000985294)
(0 0 0.000999616)
(0 0 0.0010138)
(0 0 0.00102784)
(0 0 0.00104174)
(0 0 0.00105549)
(0 0 0.00106909)
(0 0 0.00108253)
(0 0 0.00109581)
(0 0 0.00110893)
(0 0 0.00112188)
(0 0 0.00113466)
(0 0 0.00114726)
(0 0 0.00115968)
(0 0 0.00117192)
(0 0 0.00118397)
(0 0 0.00119583)
(0 0 0.0012075)
(0 0 0.00121897)
(0 0 0.00123024)
(0 0 0.0012413)
(0 0 0.00125215)
(0 0 0.00126279)
(0 0 0.00127322)
(0 0 0.00128343)
(0 0 0.00129341)
(0 0 0.00130317)
(0 0 0.0013127)
(0 0 0.001322)
(0 0 0.00133107)
(0 0 0.0013399)
(0 0 0.00134849)
(0 0 0.00135684)
(0 0 0.00136494)
(0 0 0.0013728)
(0 0 0.0013804)
(0 0 0.00138776)
(0 0 0.00139486)
(0 0 0.00140171)
(0 0 0.00140829)
(0 0 0.00141463)
(0 0 0.00142069)
(0 0 0.0014265)
(0 0 0.00143205)
(0 0 0.00143733)
(0 0 0.00144234)
(0 0 0.00144709)
(0 0 0.00145157)
(0 0 0.00145578)
(0 0 0.00145972)
(0 0 0.0014634)
(0 0 0.0014668)
(0 0 0.00146993)
(0 0 0.0014728)
(0 0 0.00147539)
(0 0 0.00147771)
(0 0 0.00147977)
(0 0 0.00148155)
(0 0 0.00148307)
(0 0 0.00148431)
(0 0 0.00148529)
(0 0 0.001486)
(0 0 0.00148644)
(0 0 0.00148662)
(0 0 0.00148654)
(0 0 0.00148619)
(0 0 0.00148557)
(0 0 0.0014847)
(0 0 0.00148357)
(0 0 0.00148217)
(0 0 0.00148053)
(0 0 0.00147862)
(0 0 0.00147646)
(0 0 0.00147405)
(0 0 0.00147139)
(0 0 0.00146848)
(0 0 0.00146533)
(0 0 0.00146193)
(0 0 0.00145829)
(0 0 0.0014544)
(0 0 0.00145028)
(0 0 0.00144592)
(0 0 0.00144133)
(0 0 0.00143651)
(0 0 0.00143145)
(0 0 0.00142617)
(0 0 0.00142066)
(0 0 0.00141493)
(0 0 0.00140898)
(0 0 0.00140281)
(0 0 0.00139643)
(0 0 0.00138983)
(0 0 0.00138302)
(0 0 0.00137601)
(0 0 0.00136878)
(0 0 0.00136136)
(0 0 0.00135373)
(0 0 0.00134591)
(0 0 0.00133789)
(0 0 0.00132967)
(0 0 0.00132127)
(0 0 0.00131268)
(0 0 0.00130391)
(0 0 0.00129495)
(0 0 0.00128581)
(0 0 0.0012765)
(0 0 0.00126701)
(0 0 0.00125735)
(0 0 0.00124752)
(0 0 0.00123752)
(0 0 0.00122737)
(0 0 0.00121705)
(0 0 0.00120657)
(0 0 0.00119594)
(0 0 0.00118515)
(0 0 0.00117422)
(0 0 0.00116313)
(0 0 0.00115191)
(0 0 0.00114054)
(0 0 0.00112903)
(0 0 0.00111738)
(0 0 0.0011056)
(0 0 0.00109369)
(0 0 0.00108166)
(0 0 0.00106949)
(0 0 0.0010572)
(0 0 0.0010448)
(0 0 0.00103227)
(0 0 0.00101963)
(0 0 0.00100688)
(0 0 0.000994011)
(0 0 0.00098104)
(0 0 0.000967963)
(0 0 0.000954784)
(0 0 0.000941505)
(0 0 0.000928128)
(0 0 0.000914657)
(0 0 0.000901092)
(0 0 0.000887438)
(0 0 0.000873695)
(0 0 0.000859868)
(0 0 0.000845957)
(0 0 0.000831965)
(0 0 0.000817895)
(0 0 0.000803748)
(0 0 0.000789528)
(0 0 0.000775235)
(0 0 0.000760873)
(0 0 0.000746444)
(0 0 0.000731949)
(0 0 0.00071739)
(0 0 0.000702771)
(0 0 0.000688092)
(0 0 0.000673355)
(0 0 0.000658563)
(0 0 0.000643718)
(0 0 0.000628821)
(0 0 0.000613874)
(0 0 0.000598879)
(0 0 0.000583837)
(0 0 0.000568752)
(0 0 0.000553623)
(0 0 0.000538453)
(0 0 0.000523243)
(0 0 0.000507996)
(0 0 0.000492712)
(0 0 0.000477392)
(0 0 0.00046204)
(0 0 0.000446655)
(0 0 0.00043124)
(0 0 0.000415796)
(0 0 0.000400324)
(0 0 0.000384825)
(0 0 0.000369301)
(0 0 0.000353753)
(0 0 0.000338183)
(0 0 0.000322591)
(0 0 0.000306978)
(0 0 0.000291347)
(0 0 0.000275697)
(0 0 0.000260031)
(0 0 0.000244348)
(0 0 0.000228651)
(0 0 0.00021294)
(0 0 0.000197217)
(0 0 0.000181482)
(0 0 0.000165736)
(0 0 0.00014998)
(0 0 0.000134216)
(0 0 0.000118444)
(0 0 0.000102665)
(0 0 8.68805e-05)
(0 0 7.10908e-05)
(0 0 5.5297e-05)
(0 0 3.95001e-05)
(0 0 2.3701e-05)
(0 0 7.90047e-06)
(0 0 2.61524e-05)
(0 0 7.84557e-05)
(0 0 0.000130754)
(0 0 0.000183044)
(0 0 0.000235323)
(0 0 0.000287588)
(0 0 0.000339835)
(0 0 0.00039206)
(0 0 0.000444261)
(0 0 0.000496433)
(0 0 0.000548574)
(0 0 0.00060068)
(0 0 0.000652747)
(0 0 0.000704771)
(0 0 0.000756749)
(0 0 0.000808676)
(0 0 0.000860548)
(0 0 0.000912362)
(0 0 0.000964113)
(0 0 0.0010158)
(0 0 0.00106741)
(0 0 0.00111894)
(0 0 0.00117039)
(0 0 0.00122176)
(0 0 0.00127303)
(0 0 0.00132421)
(0 0 0.00137528)
(0 0 0.00142625)
(0 0 0.0014771)
(0 0 0.00152783)
(0 0 0.00157843)
(0 0 0.0016289)
(0 0 0.00167924)
(0 0 0.00172942)
(0 0 0.00177945)
(0 0 0.00182932)
(0 0 0.00187903)
(0 0 0.00192856)
(0 0 0.0019779)
(0 0 0.00202705)
(0 0 0.00207601)
(0 0 0.00212475)
(0 0 0.00217328)
(0 0 0.00222159)
(0 0 0.00226966)
(0 0 0.00231749)
(0 0 0.00236506)
(0 0 0.00241238)
(0 0 0.00245942)
(0 0 0.00250618)
(0 0 0.00255265)
(0 0 0.00259881)
(0 0 0.00264467)
(0 0 0.0026902)
(0 0 0.0027354)
(0 0 0.00278025)
(0 0 0.00282475)
(0 0 0.00286889)
(0 0 0.00291264)
(0 0 0.00295601)
(0 0 0.00299898)
(0 0 0.00304154)
(0 0 0.00308367)
(0 0 0.00312537)
(0 0 0.00316662)
(0 0 0.00320742)
(0 0 0.00324775)
(0 0 0.0032876)
(0 0 0.00332695)
(0 0 0.0033658)
(0 0 0.00340414)
(0 0 0.00344195)
(0 0 0.00347922)
(0 0 0.00351594)
(0 0 0.0035521)
(0 0 0.00358769)
(0 0 0.0036227)
(0 0 0.00365711)
(0 0 0.00369091)
(0 0 0.0037241)
(0 0 0.00375666)
(0 0 0.00378859)
(0 0 0.00381987)
(0 0 0.0038505)
(0 0 0.00388045)
(0 0 0.00390974)
(0 0 0.00393833)
(0 0 0.00396624)
(0 0 0.00399344)
(0 0 0.00401993)
(0 0 0.0040457)
(0 0 0.00407075)
(0 0 0.00409506)
(0 0 0.00411863)
(0 0 0.00414145)
(0 0 0.00416352)
(0 0 0.00418483)
(0 0 0.00420537)
(0 0 0.00422514)
(0 0 0.00424413)
(0 0 0.00426234)
(0 0 0.00427977)
(0 0 0.0042964)
(0 0 0.00431224)
(0 0 0.00432729)
(0 0 0.00434153)
(0 0 0.00435497)
(0 0 0.00436761)
(0 0 0.00437943)
(0 0 0.00439046)
(0 0 0.00440067)
(0 0 0.00441007)
(0 0 0.00441866)
(0 0 0.00442644)
(0 0 0.00443341)
(0 0 0.00443957)
(0 0 0.00444492)
(0 0 0.00444946)
(0 0 0.0044532)
(0 0 0.00445613)
(0 0 0.00445826)
(0 0 0.00445959)
(0 0 0.00446013)
(0 0 0.00445987)
(0 0 0.00445882)
(0 0 0.00445698)
(0 0 0.00445436)
(0 0 0.00445095)
(0 0 0.00444678)
(0 0 0.00444183)
(0 0 0.00443612)
(0 0 0.00442964)
(0 0 0.00442241)
(0 0 0.00441443)
(0 0 0.0044057)
(0 0 0.00439623)
(0 0 0.00438603)
(0 0 0.0043751)
(0 0 0.00436345)
(0 0 0.00435108)
(0 0 0.004338)
(0 0 0.00432422)
(0 0 0.00430975)
(0 0 0.00429458)
(0 0 0.00427873)
(0 0 0.00426221)
(0 0 0.00424502)
(0 0 0.00422716)
(0 0 0.00420865)
(0 0 0.0041895)
(0 0 0.0041697)
(0 0 0.00414927)
(0 0 0.00412822)
(0 0 0.00410655)
(0 0 0.00408427)
(0 0 0.00406139)
(0 0 0.00403792)
(0 0 0.00401385)
(0 0 0.00398921)
(0 0 0.003964)
(0 0 0.00393823)
(0 0 0.0039119)
(0 0 0.00388503)
(0 0 0.00385761)
(0 0 0.00382967)
(0 0 0.0038012)
(0 0 0.00377222)
(0 0 0.00374273)
(0 0 0.00371274)
(0 0 0.00368226)
(0 0 0.0036513)
(0 0 0.00361986)
(0 0 0.00358796)
(0 0 0.0035556)
(0 0 0.0035228)
(0 0 0.00348954)
(0 0 0.00345586)
(0 0 0.00342175)
(0 0 0.00338722)
(0 0 0.00335228)
(0 0 0.00331694)
(0 0 0.00328121)
(0 0 0.00324509)
(0 0 0.0032086)
(0 0 0.00317174)
(0 0 0.00313451)
(0 0 0.00309693)
(0 0 0.003059)
(0 0 0.00302074)
(0 0 0.00298214)
(0 0 0.00294323)
(0 0 0.00290399)
(0 0 0.00286446)
(0 0 0.00282462)
(0 0 0.00278448)
(0 0 0.00274407)
(0 0 0.00270337)
(0 0 0.0026624)
(0 0 0.00262117)
(0 0 0.00257969)
(0 0 0.00253795)
(0 0 0.00249598)
(0 0 0.00245376)
(0 0 0.00241132)
(0 0 0.00236866)
(0 0 0.00232578)
(0 0 0.00228269)
(0 0 0.0022394)
(0 0 0.00219591)
(0 0 0.00215223)
(0 0 0.00210837)
(0 0 0.00206433)
(0 0 0.00202012)
(0 0 0.00197575)
(0 0 0.00193121)
(0 0 0.00188651)
(0 0 0.00184167)
(0 0 0.00179668)
(0 0 0.00175156)
(0 0 0.0017063)
(0 0 0.00166091)
(0 0 0.0016154)
(0 0 0.00156977)
(0 0 0.00152403)
(0 0 0.00147817)
(0 0 0.00143221)
(0 0 0.00138615)
(0 0 0.00134)
(0 0 0.00129375)
(0 0 0.00124742)
(0 0 0.001201)
(0 0 0.0011545)
(0 0 0.00110793)
(0 0 0.00106128)
(0 0 0.00101457)
(0 0 0.000967794)
(0 0 0.000920955)
(0 0 0.000874059)
(0 0 0.000827109)
(0 0 0.000780108)
(0 0 0.00073306)
(0 0 0.000685968)
(0 0 0.000638834)
(0 0 0.000591663)
(0 0 0.000544456)
(0 0 0.000497218)
(0 0 0.00044995)
(0 0 0.000402656)
(0 0 0.000355339)
(0 0 0.000308002)
(0 0 0.000260647)
(0 0 0.000213277)
(0 0 0.000165894)
(0 0 0.000118503)
(0 0 7.11043e-05)
(0 0 2.37019e-05)
(0 0 4.35892e-05)
(0 0 0.000130765)
(0 0 0.000217932)
(0 0 0.000305086)
(0 0 0.000392222)
(0 0 0.000479333)
(0 0 0.000566414)
(0 0 0.00065346)
(0 0 0.000740465)
(0 0 0.000827424)
(0 0 0.000914329)
(0 0 0.00100118)
(0 0 0.00108796)
(0 0 0.00117467)
(0 0 0.0012613)
(0 0 0.00134785)
(0 0 0.00143431)
(0 0 0.00152067)
(0 0 0.00160693)
(0 0 0.00169307)
(0 0 0.0017791)
(0 0 0.00186499)
(0 0 0.00195075)
(0 0 0.00203637)
(0 0 0.00212183)
(0 0 0.00220713)
(0 0 0.00229226)
(0 0 0.00237721)
(0 0 0.00246196)
(0 0 0.00254652)
(0 0 0.00263087)
(0 0 0.00271499)
(0 0 0.00279889)
(0 0 0.00288254)
(0 0 0.00296593)
(0 0 0.00304906)
(0 0 0.00313191)
(0 0 0.00321446)
(0 0 0.00329671)
(0 0 0.00337864)
(0 0 0.00346024)
(0 0 0.0035415)
(0 0 0.00362239)
(0 0 0.00370291)
(0 0 0.00378304)
(0 0 0.00386276)
(0 0 0.00394206)
(0 0 0.00402093)
(0 0 0.00409934)
(0 0 0.00417729)
(0 0 0.00425475)
(0 0 0.0043317)
(0 0 0.00440814)
(0 0 0.00448404)
(0 0 0.00455938)
(0 0 0.00463415)
(0 0 0.00470833)
(0 0 0.0047819)
(0 0 0.00485484)
(0 0 0.00492713)
(0 0 0.00499875)
(0 0 0.00506969)
(0 0 0.00513993)
(0 0 0.00520944)
(0 0 0.00527821)
(0 0 0.00534622)
(0 0 0.00541345)
(0 0 0.00547987)
(0 0 0.00554548)
(0 0 0.00561025)
(0 0 0.00567415)
(0 0 0.00573718)
(0 0 0.00579931)
(0 0 0.00586053)
(0 0 0.00592081)
(0 0 0.00598013)
(0 0 0.00603848)
(0 0 0.00609585)
(0 0 0.0061522)
(0 0 0.00620753)
(0 0 0.00626181)
(0 0 0.00631504)
(0 0 0.00636718)
(0 0 0.00641823)
(0 0 0.00646817)
(0 0 0.00651699)
(0 0 0.00656466)
(0 0 0.00661117)
(0 0 0.00665652)
(0 0 0.00670068)
(0 0 0.00674364)
(0 0 0.00678539)
(0 0 0.00682592)
(0 0 0.00686521)
(0 0 0.00690326)
(0 0 0.00694005)
(0 0 0.00697557)
(0 0 0.00700981)
(0 0 0.00704276)
(0 0 0.00707442)
(0 0 0.00710478)
(0 0 0.00713382)
(0 0 0.00716155)
(0 0 0.00718795)
(0 0 0.00721303)
(0 0 0.00723677)
(0 0 0.00725918)
(0 0 0.00728024)
(0 0 0.00729995)
(0 0 0.00731832)
(0 0 0.00733534)
(0 0 0.00735101)
(0 0 0.00736533)
(0 0 0.0073783)
(0 0 0.00738991)
(0 0 0.00740018)
(0 0 0.0074091)
(0 0 0.00741667)
(0 0 0.00742289)
(0 0 0.00742778)
(0 0 0.00743133)
(0 0 0.00743354)
(0 0 0.00743443)
(0 0 0.00743399)
(0 0 0.00743223)
(0 0 0.00742917)
(0 0 0.00742479)
(0 0 0.00741912)
(0 0 0.00741215)
(0 0 0.0074039)
(0 0 0.00739437)
(0 0 0.00738357)
(0 0 0.00737152)
(0 0 0.00735821)
(0 0 0.00734365)
(0 0 0.00732787)
(0 0 0.00731086)
(0 0 0.00729264)
(0 0 0.00727321)
(0 0 0.00725259)
(0 0 0.00723079)
(0 0 0.00720781)
(0 0 0.00718368)
(0 0 0.0071584)
(0 0 0.00713197)
(0 0 0.00710443)
(0 0 0.00707576)
(0 0 0.007046)
(0 0 0.00701514)
(0 0 0.00698321)
(0 0 0.00695021)
(0 0 0.00691615)
(0 0 0.00688106)
(0 0 0.00684493)
(0 0 0.00680779)
(0 0 0.00676965)
(0 0 0.00673051)
(0 0 0.0066904)
(0 0 0.00664933)
(0 0 0.0066073)
(0 0 0.00656433)
(0 0 0.00652044)
(0 0 0.00647564)
(0 0 0.00642994)
(0 0 0.00638336)
(0 0 0.0063359)
(0 0 0.00628759)
(0 0 0.00623843)
(0 0 0.00618844)
(0 0 0.00613764)
(0 0 0.00608603)
(0 0 0.00603363)
(0 0 0.00598045)
(0 0 0.00592651)
(0 0 0.00587182)
(0 0 0.00581639)
(0 0 0.00576024)
(0 0 0.00570338)
(0 0 0.00564582)
(0 0 0.00558759)
(0 0 0.00552868)
(0 0 0.00546912)
(0 0 0.00540891)
(0 0 0.00534808)
(0 0 0.00528663)
(0 0 0.00522457)
(0 0 0.00516193)
(0 0 0.00509871)
(0 0 0.00503493)
(0 0 0.0049706)
(0 0 0.00490573)
(0 0 0.00484033)
(0 0 0.00477443)
(0 0 0.00470802)
(0 0 0.00464112)
(0 0 0.00457375)
(0 0 0.00450592)
(0 0 0.00443763)
(0 0 0.00436891)
(0 0 0.00429976)
(0 0 0.00423019)
(0 0 0.00416022)
(0 0 0.00408986)
(0 0 0.00401912)
(0 0 0.003948)
(0 0 0.00387653)
(0 0 0.00380471)
(0 0 0.00373255)
(0 0 0.00366007)
(0 0 0.00358726)
(0 0 0.00351415)
(0 0 0.00344075)
(0 0 0.00336706)
(0 0 0.00329309)
(0 0 0.00321885)
(0 0 0.00314436)
(0 0 0.00306961)
(0 0 0.00299463)
(0 0 0.00291941)
(0 0 0.00284398)
(0 0 0.00276832)
(0 0 0.00269247)
(0 0 0.00261641)
(0 0 0.00254016)
(0 0 0.00246374)
(0 0 0.00238713)
(0 0 0.00231036)
(0 0 0.00223343)
(0 0 0.00215635)
(0 0 0.00207912)
(0 0 0.00200176)
(0 0 0.00192426)
(0 0 0.00184663)
(0 0 0.00176888)
(0 0 0.00169102)
(0 0 0.00161306)
(0 0 0.00153499)
(0 0 0.00145683)
(0 0 0.00137857)
(0 0 0.00130023)
(0 0 0.00122182)
(0 0 0.00114333)
(0 0 0.00106477)
(0 0 0.000986144)
(0 0 0.000907463)
(0 0 0.000828729)
(0 0 0.000749946)
(0 0 0.00067112)
(0 0 0.000592255)
(0 0 0.000513356)
(0 0 0.000434428)
(0 0 0.000355475)
(0 0 0.000276501)
(0 0 0.000197512)
(0 0 0.000118512)
(0 0 3.95046e-05)
(0 0 6.10286e-05)
(0 0 0.000183082)
(0 0 0.000305124)
(0 0 0.000427147)
(0 0 0.000549145)
(0 0 0.000671108)
(0 0 0.00079303)
(0 0 0.000914902)
(0 0 0.00103672)
(0 0 0.00115847)
(0 0 0.00128014)
(0 0 0.00140174)
(0 0 0.00152324)
(0 0 0.00164465)
(0 0 0.00176594)
(0 0 0.00188712)
(0 0 0.00200817)
(0 0 0.00212909)
(0 0 0.00224986)
(0 0 0.00237047)
(0 0 0.00249091)
(0 0 0.00261118)
(0 0 0.00273125)
(0 0 0.00285113)
(0 0 0.00297079)
(0 0 0.00309022)
(0 0 0.00320941)
(0 0 0.00332836)
(0 0 0.00344703)
(0 0 0.00356543)
(0 0 0.00368353)
(0 0 0.00380132)
(0 0 0.00391879)
(0 0 0.00403591)
(0 0 0.00415268)
(0 0 0.00426908)
(0 0 0.00438508)
(0 0 0.00450067)
(0 0 0.00461584)
(0 0 0.00473057)
(0 0 0.00484483)
(0 0 0.0049586)
(0 0 0.00507187)
(0 0 0.00518462)
(0 0 0.00529682)
(0 0 0.00540846)
(0 0 0.0055195)
(0 0 0.00562994)
(0 0 0.00573974)
(0 0 0.00584889)
(0 0 0.00595735)
(0 0 0.00606511)
(0 0 0.00617215)
(0 0 0.00627843)
(0 0 0.00638394)
(0 0 0.00648864)
(0 0 0.00659251)
(0 0 0.00669554)
(0 0 0.00679768)
(0 0 0.00689891)
(0 0 0.00699922)
(0 0 0.00709856)
(0 0 0.00719692)
(0 0 0.00729426)
(0 0 0.00739057)
(0 0 0.00748581)
(0 0 0.00757995)
(0 0 0.00767297)
(0 0 0.00776485)
(0 0 0.00785555)
(0 0 0.00794504)
(0 0 0.00803331)
(0 0 0.00812032)
(0 0 0.00820605)
(0 0 0.00829046)
(0 0 0.00837355)
(0 0 0.00845527)
(0 0 0.0085356)
(0 0 0.00861452)
(0 0 0.008692)
(0 0 0.00876802)
(0 0 0.00884256)
(0 0 0.00891559)
(0 0 0.00898708)
(0 0 0.00905702)
(0 0 0.00912538)
(0 0 0.00919214)
(0 0 0.00925728)
(0 0 0.00932079)
(0 0 0.00938263)
(0 0 0.0094428)
(0 0 0.00950127)
(0 0 0.00955802)
(0 0 0.00961305)
(0 0 0.00966632)
(0 0 0.00971784)
(0 0 0.00976758)
(0 0 0.00981553)
(0 0 0.00986168)
(0 0 0.00990601)
(0 0 0.00994852)
(0 0 0.0099892)
(0 0 0.010028)
(0 0 0.010065)
(0 0 0.0101001)
(0 0 0.0101334)
(0 0 0.0101647)
(0 0 0.0101942)
(0 0 0.0102218)
(0 0 0.0102475)
(0 0 0.0102714)
(0 0 0.0102933)
(0 0 0.0103134)
(0 0 0.0103315)
(0 0 0.0103478)
(0 0 0.0103621)
(0 0 0.0103746)
(0 0 0.0103852)
(0 0 0.0103939)
(0 0 0.0104008)
(0 0 0.0104057)
(0 0 0.0104088)
(0 0 0.0104101)
(0 0 0.0104094)
(0 0 0.010407)
(0 0 0.0104027)
(0 0 0.0103965)
(0 0 0.0103886)
(0 0 0.0103788)
(0 0 0.0103672)
(0 0 0.0103539)
(0 0 0.0103388)
(0 0 0.0103219)
(0 0 0.0103032)
(0 0 0.0102828)
(0 0 0.0102607)
(0 0 0.0102369)
(0 0 0.0102114)
(0 0 0.0101842)
(0 0 0.0101553)
(0 0 0.0101247)
(0 0 0.0100926)
(0 0 0.0100588)
(0 0 0.0100233)
(0 0 0.00998634)
(0 0 0.00994776)
(0 0 0.00990761)
(0 0 0.00986593)
(0 0 0.00982271)
(0 0 0.00977798)
(0 0 0.00973177)
(0 0 0.00968407)
(0 0 0.00963492)
(0 0 0.00958433)
(0 0 0.00953231)
(0 0 0.00947889)
(0 0 0.00942409)
(0 0 0.00936791)
(0 0 0.00931039)
(0 0 0.00925153)
(0 0 0.00919136)
(0 0 0.0091299)
(0 0 0.00906716)
(0 0 0.00900316)
(0 0 0.00893792)
(0 0 0.00887147)
(0 0 0.00880381)
(0 0 0.00873497)
(0 0 0.00866497)
(0 0 0.00859382)
(0 0 0.00852155)
(0 0 0.00844816)
(0 0 0.0083737)
(0 0 0.00829816)
(0 0 0.00822157)
(0 0 0.00814396)
(0 0 0.00806533)
(0 0 0.00798571)
(0 0 0.00790511)
(0 0 0.00782356)
(0 0 0.00774107)
(0 0 0.00765766)
(0 0 0.00757336)
(0 0 0.00748817)
(0 0 0.00740212)
(0 0 0.00731523)
(0 0 0.00722751)
(0 0 0.00713899)
(0 0 0.00704968)
(0 0 0.00695959)
(0 0 0.00686876)
(0 0 0.00677718)
(0 0 0.0066849)
(0 0 0.00659191)
(0 0 0.00649824)
(0 0 0.0064039)
(0 0 0.00630892)
(0 0 0.0062133)
(0 0 0.00611707)
(0 0 0.00602024)
(0 0 0.00592284)
(0 0 0.00582486)
(0 0 0.00572634)
(0 0 0.00562728)
(0 0 0.00552771)
(0 0 0.00542763)
(0 0 0.00532707)
(0 0 0.00522603)
(0 0 0.00512453)
(0 0 0.0050226)
(0 0 0.00492023)
(0 0 0.00481745)
(0 0 0.00471427)
(0 0 0.0046107)
(0 0 0.00450675)
(0 0 0.00440245)
(0 0 0.00429779)
(0 0 0.0041928)
(0 0 0.00408749)
(0 0 0.00398187)
(0 0 0.00387594)
(0 0 0.00376973)
(0 0 0.00366324)
(0 0 0.00355648)
(0 0 0.00344947)
(0 0 0.00334222)
(0 0 0.00323473)
(0 0 0.00312702)
(0 0 0.0030191)
(0 0 0.00291097)
(0 0 0.00280264)
(0 0 0.00269413)
(0 0 0.00258545)
(0 0 0.0024766)
(0 0 0.00236758)
(0 0 0.00225842)
(0 0 0.00214912)
(0 0 0.00203968)
(0 0 0.00193012)
(0 0 0.00182044)
(0 0 0.00171065)
(0 0 0.00160075)
(0 0 0.00149076)
(0 0 0.00138068)
(0 0 0.00127052)
(0 0 0.00116029)
(0 0 0.00104999)
(0 0 0.000939622)
(0 0 0.000829205)
(0 0 0.00071874)
(0 0 0.000608234)
(0 0 0.000497693)
(0 0 0.000387124)
(0 0 0.000276532)
(0 0 0.000165926)
(0 0 5.53096e-05)
(0 0 7.84717e-05)
(0 0 0.00023541)
(0 0 0.000392335)
(0 0 0.000549235)
(0 0 0.000706101)
(0 0 0.000862925)
(0 0 0.00101969)
(0 0 0.0011764)
(0 0 0.00133303)
(0 0 0.00148958)
(0 0 0.00164604)
(0 0 0.00180239)
(0 0 0.00195863)
(0 0 0.00211473)
(0 0 0.0022707)
(0 0 0.00242652)
(0 0 0.00258217)
(0 0 0.00273765)
(0 0 0.00289295)
(0 0 0.00304804)
(0 0 0.00320291)
(0 0 0.00335756)
(0 0 0.00351196)
(0 0 0.0036661)
(0 0 0.00381997)
(0 0 0.00397355)
(0 0 0.00412682)
(0 0 0.00427977)
(0 0 0.00443238)
(0 0 0.00458463)
(0 0 0.0047365)
(0 0 0.00488797)
(0 0 0.00503902)
(0 0 0.00518964)
(0 0 0.0053398)
(0 0 0.00548948)
(0 0 0.00563866)
(0 0 0.00578732)
(0 0 0.00593542)
(0 0 0.00608296)
(0 0 0.00622989)
(0 0 0.00637621)
(0 0 0.00652188)
(0 0 0.00666688)
(0 0 0.00681117)
(0 0 0.00695474)
(0 0 0.00709755)
(0 0 0.00723958)
(0 0 0.00738079)
(0 0 0.00752116)
(0 0 0.00766066)
(0 0 0.00779925)
(0 0 0.00793691)
(0 0 0.0080736)
(0 0 0.0082093)
(0 0 0.00834396)
(0 0 0.00847756)
(0 0 0.00861006)
(0 0 0.00874143)
(0 0 0.00887163)
(0 0 0.00900064)
(0 0 0.00912841)
(0 0 0.00925492)
(0 0 0.00938012)
(0 0 0.00950399)
(0 0 0.00962649)
(0 0 0.00974758)
(0 0 0.00986722)
(0 0 0.00998539)
(0 0 0.0101021)
(0 0 0.0102172)
(0 0 0.0103307)
(0 0 0.0104426)
(0 0 0.0105529)
(0 0 0.0106615)
(0 0 0.0107683)
(0 0 0.0108734)
(0 0 0.0109768)
(0 0 0.0110783)
(0 0 0.0111779)
(0 0 0.0112757)
(0 0 0.0113716)
(0 0 0.0114655)
(0 0 0.0115575)
(0 0 0.0116474)
(0 0 0.0117354)
(0 0 0.0118212)
(0 0 0.011905)
(0 0 0.0119867)
(0 0 0.0120663)
(0 0 0.0121436)
(0 0 0.0122189)
(0 0 0.0122919)
(0 0 0.0123626)
(0 0 0.0124312)
(0 0 0.0124974)
(0 0 0.0125614)
(0 0 0.0126231)
(0 0 0.0126824)
(0 0 0.0127394)
(0 0 0.0127941)
(0 0 0.0128464)
(0 0 0.0128964)
(0 0 0.0129439)
(0 0 0.0129891)
(0 0 0.0130318)
(0 0 0.0130722)
(0 0 0.0131101)
(0 0 0.0131456)
(0 0 0.0131787)
(0 0 0.0132093)
(0 0 0.0132375)
(0 0 0.0132633)
(0 0 0.0132866)
(0 0 0.0133075)
(0 0 0.013326)
(0 0 0.013342)
(0 0 0.0133556)
(0 0 0.0133668)
(0 0 0.0133756)
(0 0 0.013382)
(0 0 0.013386)
(0 0 0.0133875)
(0 0 0.0133867)
(0 0 0.0133835)
(0 0 0.013378)
(0 0 0.0133701)
(0 0 0.0133598)
(0 0 0.0133473)
(0 0 0.0133324)
(0 0 0.0133152)
(0 0 0.0132957)
(0 0 0.013274)
(0 0 0.01325)
(0 0 0.0132238)
(0 0 0.0131953)
(0 0 0.0131646)
(0 0 0.0131318)
(0 0 0.0130968)
(0 0 0.0130596)
(0 0 0.0130203)
(0 0 0.0129789)
(0 0 0.0129355)
(0 0 0.0128899)
(0 0 0.0128423)
(0 0 0.0127927)
(0 0 0.012741)
(0 0 0.0126874)
(0 0 0.0126318)
(0 0 0.0125743)
(0 0 0.0125148)
(0 0 0.0124534)
(0 0 0.0123902)
(0 0 0.0123251)
(0 0 0.0122582)
(0 0 0.0121895)
(0 0 0.012119)
(0 0 0.0120468)
(0 0 0.0119728)
(0 0 0.0118971)
(0 0 0.0118197)
(0 0 0.0117406)
(0 0 0.0116599)
(0 0 0.0115776)
(0 0 0.0114937)
(0 0 0.0114082)
(0 0 0.0113212)
(0 0 0.0112327)
(0 0 0.0111426)
(0 0 0.0110511)
(0 0 0.0109582)
(0 0 0.0108638)
(0 0 0.010768)
(0 0 0.0106709)
(0 0 0.0105724)
(0 0 0.0104725)
(0 0 0.0103714)
(0 0 0.010269)
(0 0 0.0101653)
(0 0 0.0100605)
(0 0 0.00995437)
(0 0 0.00984711)
(0 0 0.00973868)
(0 0 0.00962912)
(0 0 0.00951846)
(0 0 0.00940671)
(0 0 0.0092939)
(0 0 0.00918005)
(0 0 0.00906519)
(0 0 0.00894934)
(0 0 0.00883252)
(0 0 0.00871475)
(0 0 0.00859607)
(0 0 0.00847648)
(0 0 0.00835601)
(0 0 0.0082347)
(0 0 0.00811254)
(0 0 0.00798958)
(0 0 0.00786583)
(0 0 0.00774131)
(0 0 0.00761604)
(0 0 0.00749005)
(0 0 0.00736335)
(0 0 0.00723596)
(0 0 0.00710791)
(0 0 0.00697922)
(0 0 0.00684989)
(0 0 0.00671996)
(0 0 0.00658945)
(0 0 0.00645836)
(0 0 0.00632672)
(0 0 0.00619455)
(0 0 0.00606187)
(0 0 0.00592868)
(0 0 0.00579502)
(0 0 0.00566089)
(0 0 0.00552631)
(0 0 0.0053913)
(0 0 0.00525588)
(0 0 0.00512006)
(0 0 0.00498385)
(0 0 0.00484727)
(0 0 0.00471033)
(0 0 0.00457306)
(0 0 0.00443546)
(0 0 0.00429754)
(0 0 0.00415932)
(0 0 0.00402082)
(0 0 0.00388204)
(0 0 0.003743)
(0 0 0.00360371)
(0 0 0.00346419)
(0 0 0.00332443)
(0 0 0.00318447)
(0 0 0.00304429)
(0 0 0.00290393)
(0 0 0.00276338)
(0 0 0.00262266)
(0 0 0.00248178)
(0 0 0.00234075)
(0 0 0.00219958)
(0 0 0.00205827)
(0 0 0.00191684)
(0 0 0.0017753)
(0 0 0.00163366)
(0 0 0.00149191)
(0 0 0.00135009)
(0 0 0.00120818)
(0 0 0.0010662)
(0 0 0.000924165)
(0 0 0.000782074)
(0 0 0.000639939)
(0 0 0.000497768)
(0 0 0.000355569)
(0 0 0.000213349)
(0 0 7.11177e-05)
(0 0 9.59197e-05)
(0 0 0.000287753)
(0 0 0.000479569)
(0 0 0.000671356)
(0 0 0.000863102)
(0 0 0.00105479)
(0 0 0.00124642)
(0 0 0.00143797)
(0 0 0.00162944)
(0 0 0.0018208)
(0 0 0.00201204)
(0 0 0.00220316)
(0 0 0.00239414)
(0 0 0.00258496)
(0 0 0.00277561)
(0 0 0.00296608)
(0 0 0.00315635)
(0 0 0.00334641)
(0 0 0.00353624)
(0 0 0.00372582)
(0 0 0.00391514)
(0 0 0.00410418)
(0 0 0.00429293)
(0 0 0.00448135)
(0 0 0.00466945)
(0 0 0.00485719)
(0 0 0.00504456)
(0 0 0.00523153)
(0 0 0.00541809)
(0 0 0.00560421)
(0 0 0.00578986)
(0 0 0.00597504)
(0 0 0.0061597)
(0 0 0.00634383)
(0 0 0.00652741)
(0 0 0.00671039)
(0 0 0.00689277)
(0 0 0.00707451)
(0 0 0.00725557)
(0 0 0.00743594)
(0 0 0.00761559)
(0 0 0.00779447)
(0 0 0.00797256)
(0 0 0.00814983)
(0 0 0.00832625)
(0 0 0.00850178)
(0 0 0.00867639)
(0 0 0.00885004)
(0 0 0.00902269)
(0 0 0.00919432)
(0 0 0.00936488)
(0 0 0.00953433)
(0 0 0.00970264)
(0 0 0.00986978)
(0 0 0.0100357)
(0 0 0.0102003)
(0 0 0.0103637)
(0 0 0.0105257)
(0 0 0.0106863)
(0 0 0.0108455)
(0 0 0.0110033)
(0 0 0.0111595)
(0 0 0.0113142)
(0 0 0.0114673)
(0 0 0.0116188)
(0 0 0.0117686)
(0 0 0.0119166)
(0 0 0.012063)
(0 0 0.0122075)
(0 0 0.0123501)
(0 0 0.0124909)
(0 0 0.0126297)
(0 0 0.0127666)
(0 0 0.0129014)
(0 0 0.0130342)
(0 0 0.0131649)
(0 0 0.0132934)
(0 0 0.0134197)
(0 0 0.0135439)
(0 0 0.0136658)
(0 0 0.0137853)
(0 0 0.0139026)
(0 0 0.0140174)
(0 0 0.0141299)
(0 0 0.0142399)
(0 0 0.0143474)
(0 0 0.0144524)
(0 0 0.0145549)
(0 0 0.0146548)
(0 0 0.0147521)
(0 0 0.0148467)
(0 0 0.0149386)
(0 0 0.0150279)
(0 0 0.0151145)
(0 0 0.0151982)
(0 0 0.0152793)
(0 0 0.0153575)
(0 0 0.0154329)
(0 0 0.0155055)
(0 0 0.0155752)
(0 0 0.0156421)
(0 0 0.015706)
(0 0 0.0157671)
(0 0 0.0158252)
(0 0 0.0158804)
(0 0 0.0159327)
(0 0 0.015982)
(0 0 0.0160284)
(0 0 0.0160718)
(0 0 0.0161122)
(0 0 0.0161497)
(0 0 0.0161841)
(0 0 0.0162156)
(0 0 0.0162442)
(0 0 0.0162697)
(0 0 0.0162923)
(0 0 0.0163119)
(0 0 0.0163285)
(0 0 0.0163422)
(0 0 0.0163529)
(0 0 0.0163607)
(0 0 0.0163655)
(0 0 0.0163674)
(0 0 0.0163664)
(0 0 0.0163625)
(0 0 0.0163557)
(0 0 0.016346)
(0 0 0.0163334)
(0 0 0.016318)
(0 0 0.0162998)
(0 0 0.0162788)
(0 0 0.016255)
(0 0 0.0162284)
(0 0 0.016199)
(0 0 0.0161669)
(0 0 0.0161321)
(0 0 0.0160946)
(0 0 0.0160544)
(0 0 0.0160116)
(0 0 0.0159661)
(0 0 0.015918)
(0 0 0.0158674)
(0 0 0.0158142)
(0 0 0.0157585)
(0 0 0.0157003)
(0 0 0.0156396)
(0 0 0.0155764)
(0 0 0.0155108)
(0 0 0.0154428)
(0 0 0.0153724)
(0 0 0.0152997)
(0 0 0.0152247)
(0 0 0.0151474)
(0 0 0.0150678)
(0 0 0.014986)
(0 0 0.0149019)
(0 0 0.0148157)
(0 0 0.0147274)
(0 0 0.0146369)
(0 0 0.0145443)
(0 0 0.0144497)
(0 0 0.014353)
(0 0 0.0142543)
(0 0 0.0141537)
(0 0 0.0140511)
(0 0 0.0139465)
(0 0 0.0138401)
(0 0 0.0137319)
(0 0 0.0136218)
(0 0 0.0135099)
(0 0 0.0133962)
(0 0 0.0132808)
(0 0 0.0131637)
(0 0 0.0130449)
(0 0 0.0129245)
(0 0 0.0128024)
(0 0 0.0126788)
(0 0 0.0125536)
(0 0 0.0124268)
(0 0 0.0122986)
(0 0 0.0121689)
(0 0 0.0120377)
(0 0 0.0119051)
(0 0 0.0117712)
(0 0 0.0116359)
(0 0 0.0114993)
(0 0 0.0113613)
(0 0 0.0112221)
(0 0 0.0110817)
(0 0 0.01094)
(0 0 0.0107972)
(0 0 0.0106532)
(0 0 0.0105081)
(0 0 0.0103619)
(0 0 0.0102146)
(0 0 0.0100663)
(0 0 0.00991698)
(0 0 0.00976665)
(0 0 0.00961536)
(0 0 0.00946312)
(0 0 0.00930997)
(0 0 0.00915594)
(0 0 0.00900104)
(0 0 0.00884531)
(0 0 0.00868876)
(0 0 0.00853143)
(0 0 0.00837333)
(0 0 0.00821449)
(0 0 0.00805493)
(0 0 0.00789467)
(0 0 0.00773375)
(0 0 0.00757217)
(0 0 0.00740996)
(0 0 0.00724714)
(0 0 0.00708374)
(0 0 0.00691977)
(0 0 0.00675526)
(0 0 0.00659022)
(0 0 0.00642467)
(0 0 0.00625863)
(0 0 0.00609212)
(0 0 0.00592516)
(0 0 0.00575777)
(0 0 0.00558996)
(0 0 0.00542175)
(0 0 0.00525316)
(0 0 0.0050842)
(0 0 0.0049149)
(0 0 0.00474525)
(0 0 0.00457529)
(0 0 0.00440502)
(0 0 0.00423447)
(0 0 0.00406363)
(0 0 0.00389254)
(0 0 0.0037212)
(0 0 0.00354962)
(0 0 0.00337782)
(0 0 0.00320581)
(0 0 0.0030336)
(0 0 0.00286121)
(0 0 0.00268864)
(0 0 0.00251592)
(0 0 0.00234304)
(0 0 0.00217003)
(0 0 0.00199689)
(0 0 0.00182363)
(0 0 0.00165026)
(0 0 0.0014768)
(0 0 0.00130326)
(0 0 0.00112964)
(0 0 0.000955959)
(0 0 0.000782222)
(0 0 0.000608441)
(0 0 0.000434625)
(0 0 0.000260785)
(0 0 8.69298e-05)
(0 0 0.000113374)
(0 0 0.000340114)
(0 0 0.000566833)
(0 0 0.000793518)
(0 0 0.00102016)
(0 0 0.00124673)
(0 0 0.00147323)
(0 0 0.00169964)
(0 0 0.00192594)
(0 0 0.00215212)
(0 0 0.00237817)
(0 0 0.00260407)
(0 0 0.0028298)
(0 0 0.00305535)
(0 0 0.0032807)
(0 0 0.00350584)
(0 0 0.00373074)
(0 0 0.00395539)
(0 0 0.00417977)
(0 0 0.00440386)
(0 0 0.00462765)
(0 0 0.0048511)
(0 0 0.00507421)
(0 0 0.00529694)
(0 0 0.00551928)
(0 0 0.00574121)
(0 0 0.00596269)
(0 0 0.00618371)
(0 0 0.00640424)
(0 0 0.00662425)
(0 0 0.00684372)
(0 0 0.00706261)
(0 0 0.00728091)
(0 0 0.00749859)
(0 0 0.0077156)
(0 0 0.00793192)
(0 0 0.00814752)
(0 0 0.00836237)
(0 0 0.00857642)
(0 0 0.00878966)
(0 0 0.00900204)
(0 0 0.00921352)
(0 0 0.00942407)
(0 0 0.00963365)
(0 0 0.00984222)
(0 0 0.0100497)
(0 0 0.0102562)
(0 0 0.0104615)
(0 0 0.0106656)
(0 0 0.0108685)
(0 0 0.0110702)
(0 0 0.0112706)
(0 0 0.0114696)
(0 0 0.0116672)
(0 0 0.0118633)
(0 0 0.012058)
(0 0 0.0122512)
(0 0 0.0124427)
(0 0 0.0126327)
(0 0 0.0128209)
(0 0 0.0130075)
(0 0 0.0131922)
(0 0 0.0133751)
(0 0 0.0135562)
(0 0 0.0137353)
(0 0 0.0139124)
(0 0 0.0140875)
(0 0 0.0142605)
(0 0 0.0144314)
(0 0 0.0146001)
(0 0 0.0147665)
(0 0 0.0149307)
(0 0 0.0150925)
(0 0 0.015252)
(0 0 0.015409)
(0 0 0.0155635)
(0 0 0.0157155)
(0 0 0.015865)
(0 0 0.0160118)
(0 0 0.0161559)
(0 0 0.0162973)
(0 0 0.0164359)
(0 0 0.0165718)
(0 0 0.0167047)
(0 0 0.0168348)
(0 0 0.016962)
(0 0 0.0170862)
(0 0 0.0172073)
(0 0 0.0173255)
(0 0 0.0174405)
(0 0 0.0175524)
(0 0 0.0176611)
(0 0 0.0177667)
(0 0 0.017869)
(0 0 0.0179681)
(0 0 0.0180639)
(0 0 0.0181564)
(0 0 0.0182456)
(0 0 0.0183314)
(0 0 0.0184139)
(0 0 0.0184929)
(0 0 0.0185685)
(0 0 0.0186407)
(0 0 0.0187094)
(0 0 0.0187747)
(0 0 0.0188365)
(0 0 0.0188948)
(0 0 0.0189496)
(0 0 0.0190009)
(0 0 0.0190487)
(0 0 0.019093)
(0 0 0.0191337)
(0 0 0.019171)
(0 0 0.0192047)
(0 0 0.0192349)
(0 0 0.0192615)
(0 0 0.0192847)
(0 0 0.0193043)
(0 0 0.0193205)
(0 0 0.0193331)
(0 0 0.0193423)
(0 0 0.019348)
(0 0 0.0193502)
(0 0 0.019349)
(0 0 0.0193443)
(0 0 0.0193362)
(0 0 0.0193247)
(0 0 0.0193099)
(0 0 0.0192917)
(0 0 0.0192701)
(0 0 0.0192452)
(0 0 0.019217)
(0 0 0.0191855)
(0 0 0.0191507)
(0 0 0.0191127)
(0 0 0.0190716)
(0 0 0.0190272)
(0 0 0.0189796)
(0 0 0.018929)
(0 0 0.0188752)
(0 0 0.0188183)
(0 0 0.0187584)
(0 0 0.0186955)
(0 0 0.0186296)
(0 0 0.0185607)
(0 0 0.0184889)
(0 0 0.0184142)
(0 0 0.0183366)
(0 0 0.0182562)
(0 0 0.018173)
(0 0 0.018087)
(0 0 0.0179982)
(0 0 0.0179068)
(0 0 0.0178127)
(0 0 0.0177159)
(0 0 0.0176165)
(0 0 0.0175146)
(0 0 0.0174101)
(0 0 0.0173031)
(0 0 0.0171936)
(0 0 0.0170817)
(0 0 0.0169674)
(0 0 0.0168507)
(0 0 0.0167317)
(0 0 0.0166103)
(0 0 0.0164867)
(0 0 0.0163609)
(0 0 0.0162329)
(0 0 0.0161027)
(0 0 0.0159704)
(0 0 0.015836)
(0 0 0.0156995)
(0 0 0.0155611)
(0 0 0.0154206)
(0 0 0.0152782)
(0 0 0.0151339)
(0 0 0.0149877)
(0 0 0.0148396)
(0 0 0.0146898)
(0 0 0.0145382)
(0 0 0.0143848)
(0 0 0.0142297)
(0 0 0.014073)
(0 0 0.0139146)
(0 0 0.0137546)
(0 0 0.0135931)
(0 0 0.01343)
(0 0 0.0132654)
(0 0 0.0130994)
(0 0 0.0129319)
(0 0 0.0127631)
(0 0 0.0125929)
(0 0 0.0124213)
(0 0 0.0122484)
(0 0 0.0120743)
(0 0 0.011899)
(0 0 0.0117224)
(0 0 0.0115447)
(0 0 0.0113658)
(0 0 0.0111858)
(0 0 0.0110048)