/*--------------------------------*- C++ -*----------------------------------*\
| =========                 |                                                 |
| \\      /  F ield         | OpenFOAM: The Open Source CFD Toolbox           |
|  \\    /   O peration     | Version:  v2012                                 |
|   \\  /    A nd           | Website:  www.openfoam.com                      |
|    \\/     M anipulation  |                                                 |
\*---------------------------------------------------------------------------*/
FoamFile
{
    version     2.0;
    format      ascii;
    class       surfaceScalarField;
    location    "1.1";
    object      phi;
}
// * * * * * * * * * * * * * * * * * * * * * * * * * * * * * * * * * * * * * //

dimensions      [0 3 -1 0 0 0 0];
oriented        oriented;


internalField   nonuniform List<scalar> 
130560
(
3.38366e-06
-3.38366e-06
6.76708e-06
-3.38343e-06
1.01501e-05
-3.38297e-06
1.35323e-05
-3.38229e-06
1.69137e-05
-3.38139e-06
2.0294e-05
-3.38025e-06
2.36729e-05
-3.37888e-06
2.70502e-05
-3.37728e-06
3.04256e-05
-3.37544e-06
3.3799e-05
-3.37336e-06
3.717e-05
-3.37103e-06
4.05384e-05
-3.36845e-06
4.39041e-05
-3.36562e-06
4.72666e-05
-3.36253e-06
5.06258e-05
-3.35918e-06
5.39813e-05
-3.35555e-06
5.7333e-05
-3.35165e-06
6.06804e-05
-3.34746e-06
6.40234e-05
-3.34299e-06
6.73616e-05
-3.33821e-06
7.06947e-05
-3.33313e-06
7.40225e-05
-3.32774e-06
7.73445e-05
-3.32203e-06
8.06605e-05
-3.31598e-06
8.39701e-05
-3.3096e-06
8.7273e-05
-3.30287e-06
9.05688e-05
-3.29579e-06
9.38571e-05
-3.28834e-06
9.71376e-05
-3.28051e-06
0.00010041
-3.27229e-06
0.000103674
-3.26368e-06
0.000106928
-3.25467e-06
0.000110173
-3.24523e-06
0.000113409
-3.23537e-06
0.000116634
-3.22508e-06
0.000119848
-3.21433e-06
0.000123051
-3.20313e-06
0.000126243
-3.19145e-06
0.000129422
-3.1793e-06
0.000132589
-3.16666e-06
0.000135742
-3.15351e-06
0.000138882
-3.13985e-06
0.000142008
-3.12568e-06
0.000145119
-3.11097e-06
0.000148215
-3.09571e-06
0.000151294
-3.07991e-06
0.000154358
-3.06354e-06
0.000157405
-3.0466e-06
0.000160434
-3.02909e-06
0.000163445
-3.01098e-06
0.000166437
-2.99228e-06
0.00016941
-2.97296e-06
0.000172363
-2.95304e-06
0.000175295
-2.93249e-06
0.000178207
-2.91132e-06
0.000181096
-2.88951e-06
0.000183963
-2.86706e-06
0.000186807
-2.84397e-06
0.000189627
-2.82022e-06
0.000192423
-2.79582e-06
0.000195194
-2.77075e-06
0.000197939
-2.74503e-06
0.000200658
-2.71863e-06
0.000203349
-2.69157e-06
0.000206013
-2.66384e-06
0.000208649
-2.63543e-06
0.000211255
-2.60636e-06
0.000213832
-2.57661e-06
0.000216378
-2.54619e-06
0.000218893
-2.51511e-06
0.000221376
-2.48335e-06
0.000223827
-2.45094e-06
0.000226245
-2.41787e-06
0.000228629
-2.38414e-06
0.000230979
-2.34976e-06
0.000233294
-2.31473e-06
0.000235573
-2.27907e-06
0.000237815
-2.24278e-06
0.000240021
-2.20587e-06
0.00024219
-2.16834e-06
0.00024432
-2.13021e-06
0.000246411
-2.09148e-06
0.000248464
-2.05217e-06
0.000250476
-2.01228e-06
0.000252448
-1.97183e-06
0.000254378
-1.93083e-06
0.000256268
-1.8893e-06
0.000258115
-1.84723e-06
0.00025992
-1.80466e-06
0.000261681
-1.76159e-06
0.000263399
-1.71804e-06
0.000265073
-1.67402e-06
0.000266703
-1.62955e-06
0.000268288
-1.58464e-06
0.000269827
-1.53931e-06
0.00027132
-1.49358e-06
0.000272768
-1.44745e-06
0.000274169
-1.40096e-06
0.000275523
-1.35411e-06
0.00027683
-1.30692e-06
0.000278089
-1.25941e-06
0.000279301
-1.21159e-06
0.000280464
-1.16349e-06
0.000281579
-1.11512e-06
0.000282646
-1.0665e-06
0.000283664
-1.01764e-06
0.000284632
-9.68563e-07
0.000285551
-9.19284e-07
0.000286421
-8.69822e-07
0.000287241
-8.20191e-07
0.000288012
-7.7041e-07
0.000288732
-7.20495e-07
0.000289403
-6.70462e-07
0.000290023
-6.20327e-07
0.000290593
-5.70106e-07
0.000291113
-5.19814e-07
0.000291583
-4.69469e-07
0.000292002
-4.19083e-07
0.00029237
-3.68673e-07
0.000292689
-3.18253e-07
0.000292956
-2.67838e-07
0.000293174
-2.17441e-07
0.000293341
-1.67077e-07
0.000293458
-1.1676e-07
0.000293524
-6.6502e-08
0.00029354
-1.63172e-08
0.000293507
3.37818e-08
0.000293423
8.37823e-08
0.000293289
1.33672e-07
0.000293106
1.83439e-07
0.000292873
2.3307e-07
0.00029259
2.82555e-07
0.000292258
3.31882e-07
0.000291877
3.8104e-07
0.000291447
4.30016e-07
0.000290968
4.78802e-07
0.000290441
5.27384e-07
0.000289865
5.75754e-07
0.000289241
6.239e-07
0.00028857
6.71813e-07
0.00028785
7.19481e-07
0.000287083
7.66895e-07
0.000286269
8.14045e-07
0.000285408
8.60921e-07
0.000284501
9.07512e-07
0.000283547
9.5381e-07
0.000282547
9.99805e-07
0.000281502
1.04549e-06
0.000280411
1.09085e-06
0.000279275
1.13587e-06
0.000278094
1.18056e-06
0.000276869
1.2249e-06
0.000275601
1.26887e-06
0.000274288
1.31248e-06
0.000272932
1.35571e-06
0.000271534
1.39855e-06
0.000270093
1.441e-06
0.00026861
1.48304e-06
0.000267085
1.52467e-06
0.000265519
1.56588e-06
0.000263913
1.60666e-06
0.000262266
1.64699e-06
0.000260579
1.68689e-06
0.000258852
1.72632e-06
0.000257087
1.7653e-06
0.000255283
1.8038e-06
0.000253441
1.84183e-06
0.000251562
1.87937e-06
0.000249646
1.91642e-06
0.000247693
1.95297e-06
0.000245704
1.98901e-06
0.000243679
2.02454e-06
0.00024162
2.05956e-06
0.000239526
2.09405e-06
0.000237398
2.12801e-06
0.000235236
2.16144e-06
0.000233042
2.19432e-06
0.000230815
2.22667e-06
0.000228557
2.25846e-06
0.000226267
2.28971e-06
0.000223947
2.3204e-06
0.000221596
2.35053e-06
0.000219216
2.3801e-06
0.000216807
2.40911e-06
0.000214369
2.43755e-06
0.000211904
2.46543e-06
0.000209411
2.49274e-06
0.000206892
2.51949e-06
0.000204346
2.54566e-06
0.000201775
2.57127e-06
0.000199178
2.59631e-06
0.000196558
2.62078e-06
0.000193913
2.64469e-06
0.000191245
2.66804e-06
0.000188554
2.69083e-06
0.000185841
2.71305e-06
0.000183106
2.73473e-06
0.00018035
2.75585e-06
0.000177574
2.77642e-06
0.000174778
2.79645e-06
0.000171962
2.81594e-06
0.000169127
2.8349e-06
0.000166273
2.85332e-06
0.000163402
2.87123e-06
0.000160514
2.88861e-06
0.000157608
2.90548e-06
0.000154686
2.92185e-06
0.000151748
2.93771e-06
0.000148795
2.95308e-06
0.000145827
2.96797e-06
0.000142845
2.98238e-06
0.000139849
2.99631e-06
0.000136839
3.00978e-06
0.000133816
3.0228e-06
0.000130781
3.03536e-06
0.000127733
3.04749e-06
0.000124674
3.05918e-06
0.000121604
3.07045e-06
0.000118522
3.0813e-06
0.000115431
3.09174e-06
0.000112329
3.10178e-06
0.000109217
3.11143e-06
0.000106097
3.12069e-06
0.000102967
3.12958e-06
9.9829e-05
3.1381e-06
9.66828e-05
3.14626e-06
9.35287e-05
3.15407e-06
9.03672e-05
3.16153e-06
8.71985e-05
3.16866e-06
8.40231e-05
3.17546e-06
8.08411e-05
3.18193e-06
7.7653e-05
3.18809e-06
7.44591e-05
3.19395e-06
7.12596e-05
3.1995e-06
6.80548e-05
3.20476e-06
6.48451e-05
3.20974e-06
6.16307e-05
3.21443e-06
5.84118e-05
3.21885e-06
5.51888e-05
3.223e-06
5.19619e-05
3.22689e-06
4.87314e-05
3.23052e-06
4.54975e-05
3.2339e-06
4.22605e-05
3.23703e-06
3.90206e-05
3.23991e-06
3.5778e-05
3.24256e-06
3.2533e-05
3.24498e-06
2.92859e-05
3.24716e-06
2.60368e-05
3.24911e-06
2.27859e-05
3.25084e-06
1.95336e-05
3.25235e-06
1.62799e-05
3.25364e-06
1.30252e-05
3.25471e-06
9.76965e-06
3.25556e-06
6.51345e-06
3.2562e-06
3.25683e-06
3.25662e-06
3.25683e-06
3.38387e-06
-6.76753e-06
6.76752e-06
-6.76707e-06
1.01507e-05
-6.76617e-06
1.35332e-05
-6.76481e-06
1.69148e-05
-6.763e-06
2.02953e-05
-6.76073e-06
2.36744e-05
-6.758e-06
2.7052e-05
-6.75479e-06
3.04276e-05
-6.75112e-06
3.38012e-05
-6.74695e-06
3.71725e-05
-6.7423e-06
4.05412e-05
-6.73715e-06
4.39071e-05
-6.7315e-06
4.72699e-05
-6.72532e-06
5.06293e-05
-6.71862e-06
5.39851e-05
-6.71137e-06
5.73371e-05
-6.70357e-06
6.06848e-05
-6.69521e-06
6.40281e-05
-6.68626e-06
6.73666e-05
-6.67672e-06
7.07e-05
-6.66657e-06
7.40281e-05
-6.6558e-06
7.73505e-05
-6.64438e-06
8.06668e-05
-6.6323e-06
8.39767e-05
-6.61955e-06
8.72799e-05
-6.6061e-06
9.05761e-05
-6.59194e-06
9.38648e-05
-6.57704e-06
9.71457e-05
-6.5614e-06
0.000100418
-6.54498e-06
0.000103682
-6.52777e-06
0.000106938
-6.50974e-06
0.000110183
-6.49089e-06
0.000113419
-6.47118e-06
0.000116645
-6.4506e-06
0.000119859
-6.42912e-06
0.000123063
-6.40672e-06
0.000126255
-6.38338e-06
0.000129435
-6.35909e-06
0.000132602
-6.33381e-06
0.000135756
-6.30753e-06
0.000138896
-6.28023e-06
0.000142022
-6.25188e-06
0.000145134
-6.22247e-06
0.00014823
-6.19198e-06
0.000151311
-6.16038e-06
0.000154375
-6.12765e-06
0.000157422
-6.09379e-06
0.000160452
-6.05876e-06
0.000163463
-6.02256e-06
0.000166456
-5.98515e-06
0.00016943
-5.94654e-06
0.000172383
-5.9067e-06
0.000175316
-5.86562e-06
0.000178228
-5.82328e-06
0.000181118
-5.77967e-06
0.000183986
-5.73477e-06
0.000186831
-5.68859e-06
0.000189652
-5.6411e-06
0.000192448
-5.59229e-06
0.00019522
-5.54217e-06
0.000197965
-5.49072e-06
0.000200685
-5.43793e-06
0.000203377
-5.38381e-06
0.000206041
-5.32834e-06
0.000208677
-5.27154e-06
0.000211284
-5.21339e-06
0.000213862
-5.15389e-06
0.000216409
-5.09305e-06
0.000218924
-5.03088e-06
0.000221408
-4.96737e-06
0.00022386
-4.90254e-06
0.000226279
-4.83639e-06
0.000228663
-4.76892e-06
0.000231014
-4.70016e-06
0.000233329
-4.63011e-06
0.000235609
-4.55878e-06
0.000237852
-4.48619e-06
0.000240059
-4.41235e-06
0.000242228
-4.33729e-06
0.000244358
-4.26101e-06
0.00024645
-4.18355e-06
0.000248503
-4.10491e-06
0.000250516
-4.02512e-06
0.000252488
-3.94422e-06
0.00025442
-3.8622e-06
0.00025631
-3.77912e-06
0.000258157
-3.69498e-06
0.000259963
-3.60982e-06
0.000261725
-3.52367e-06
0.000263443
-3.43655e-06
0.000265118
-3.3485e-06
0.000266748
-3.25954e-06
0.000268333
-3.16971e-06
0.000269872
-3.07903e-06
0.000271366
-2.98754e-06
0.000272814
-2.89528e-06
0.000274216
-2.80227e-06
0.00027557
-2.70856e-06
0.000276877
-2.61416e-06
0.000278137
-2.51912e-06
0.000279349
-2.42348e-06
0.000280513
-2.32726e-06
0.000281628
-2.2305e-06
0.000282695
-2.13324e-06
0.000283713
-2.0355e-06
0.000284681
-1.93733e-06
0.000285601
-1.83876e-06
0.000286471
-1.73981e-06
0.000287291
-1.64054e-06
0.000288062
-1.54096e-06
0.000288782
-1.44111e-06
0.000289453
-1.34103e-06
0.000290073
-1.24074e-06
0.000290643
-1.14029e-06
0.000291163
-1.03969e-06
0.000291633
-9.38981e-07
0.000292052
-8.38195e-07
0.000292421
-7.3736e-07
0.000292739
-6.36506e-07
0.000293007
-5.35661e-07
0.000293224
-4.34854e-07
0.000293391
-3.34113e-07
0.000293508
-2.33464e-07
0.000293574
-1.32936e-07
0.000293591
-3.25532e-08
0.000293557
6.76574e-08
0.000293473
1.67671e-07
0.000293339
2.67462e-07
0.000293155
3.67008e-07
0.000292922
4.66283e-07
0.00029264
5.65265e-07
0.000292307
6.6393e-07
0.000291926
7.62256e-07
0.000291496
8.6022e-07
0.000291017
9.57801e-07
0.000290489
1.05498e-06
0.000289913
1.15173e-06
0.000289289
1.24803e-06
0.000288617
1.34387e-06
0.000287898
1.43921e-06
0.00028713
1.53405e-06
0.000286316
1.62836e-06
0.000285455
1.72212e-06
0.000284547
1.81531e-06
0.000283593
1.90792e-06
0.000282593
1.99992e-06
0.000281547
2.09129e-06
0.000280456
2.18202e-06
0.00027932
2.27209e-06
0.000278139
2.36147e-06
0.000276914
2.45015e-06
0.000275644
2.53811e-06
0.000274331
2.62533e-06
0.000272975
2.7118e-06
0.000271576
2.7975e-06
0.000270135
2.8824e-06
0.000268652
2.96649e-06
0.000267126
3.04976e-06
0.00026556
3.13218e-06
0.000263953
3.21375e-06
0.000262306
3.29443e-06
0.000260618
3.37422e-06
0.000258891
3.45311e-06
0.000257126
3.53106e-06
0.000255321
3.60808e-06
0.000253479
3.68414e-06
0.000251599
3.75923e-06
0.000249682
3.83333e-06
0.000247729
3.90644e-06
0.000245739
3.97853e-06
0.000243714
4.0496e-06
0.000241654
4.11964e-06
0.00023956
4.18862e-06
0.000237431
4.25655e-06
0.000235269
4.32341e-06
0.000233074
4.38919e-06
0.000230847
4.45388e-06
0.000228588
4.51748e-06
0.000226298
4.57997e-06
0.000223977
4.64135e-06
0.000221626
4.70162e-06
0.000219245
4.76077e-06
0.000216835
4.81878e-06
0.000214397
4.87567e-06
0.000211931
4.93143e-06
0.000209438
4.98605e-06
0.000206918
5.03954e-06
0.000204372
5.09189e-06
0.0002018
5.1431e-06
0.000199203
5.19318e-06
0.000196582
5.24213e-06
0.000193936
5.28995e-06
0.000191268
5.33664e-06
0.000188576
5.38221e-06
0.000185863
5.42666e-06
0.000183128
5.47001e-06
0.000180371
5.51225e-06
0.000177594
5.55339e-06
0.000174797
5.59344e-06
0.000171981
5.63242e-06
0.000169145
5.67033e-06
0.000166291
5.70717e-06
0.00016342
5.74297e-06
0.000160531
5.77773e-06
0.000157625
5.81147e-06
0.000154702
5.84419e-06
0.000151764
5.87592e-06
0.00014881
5.90666e-06
0.000145842
5.93642e-06
0.000142859
5.96523e-06
0.000139862
5.99309e-06
0.000136852
6.02003e-06
0.000133829
6.04605e-06
0.000130793
6.07117e-06
0.000127745
6.09541e-06
0.000124686
6.11879e-06
0.000121615
6.14132e-06
0.000118533
6.16301e-06
0.000115441
6.18388e-06
0.000112339
6.20396e-06
0.000109227
6.22325e-06
0.000106106
6.24176e-06
0.000102976
6.25953e-06
9.98373e-05
6.27656e-06
9.66907e-05
6.29288e-06
9.35363e-05
6.30848e-06
9.03744e-05
6.3234e-06
8.72054e-05
6.33765e-06
8.40296e-05
6.35124e-06
8.08474e-05
6.36418e-06
7.7659e-05
6.3765e-06
7.44647e-05
6.3882e-06
7.12649e-05
6.3993e-06
6.80599e-05
6.40982e-06
6.48499e-05
6.41976e-06
6.16351e-05
6.42914e-06
5.8416e-05
6.43797e-06
5.51928e-05
6.44627e-06
5.19656e-05
6.45404e-06
4.87348e-05
6.46129e-06
4.55007e-05
6.46804e-06
4.22634e-05
6.4743e-06
3.90233e-05
6.48007e-06
3.57805e-05
6.48536e-06
3.25352e-05
6.49019e-06
2.92879e-05
6.49455e-06
2.60385e-05
6.49845e-06
2.27874e-05
6.50191e-06
1.95349e-05
6.50492e-06
1.6281e-05
6.5075e-06
1.30261e-05
6.50964e-06
9.7703e-06
6.51134e-06
6.51388e-06
6.51262e-06
3.25705e-06
6.51346e-06
6.51388e-06
3.38433e-06
-1.01519e-05
6.76843e-06
-1.01512e-05
1.01521e-05
-1.01498e-05
1.35351e-05
-1.01478e-05
1.69171e-05
-1.01451e-05
2.02981e-05
-1.01417e-05
2.36777e-05
-1.01376e-05
2.70557e-05
-1.01328e-05
3.04318e-05
-1.01273e-05
3.38059e-05
-1.0121e-05
3.71777e-05
-1.01141e-05
4.05469e-05
-1.01064e-05
4.39133e-05
-1.00979e-05
4.72766e-05
-1.00886e-05
5.06366e-05
-1.00786e-05
5.3993e-05
-1.00677e-05
5.73455e-05
-1.00561e-05
6.06938e-05
-1.00435e-05
6.40377e-05
-1.00301e-05
6.73768e-05
-1.00158e-05
7.07109e-05
-1.00006e-05
7.40396e-05
-9.9845e-06
7.73626e-05
-9.96739e-06
8.06796e-05
-9.9493e-06
8.39902e-05
-9.93019e-06
8.72942e-05
-9.91004e-06
9.0591e-05
-9.88882e-06
9.38805e-05
-9.8665e-06
9.71622e-05
-9.84306e-06
0.000100436
-9.81846e-06
0.000103701
-9.79267e-06
0.000106956
-9.76566e-06
0.000110203
-9.7374e-06
0.00011344
-9.70786e-06
0.000116666
-9.67701e-06
0.000119882
-9.64482e-06
0.000123086
-9.61125e-06
0.000126279
-9.57627e-06
0.00012946
-9.53986e-06
0.000132628
-9.50197e-06
0.000135783
-9.46257e-06
0.000138925
-9.42165e-06
0.000142052
-9.37915e-06
0.000145164
-9.33506e-06
0.000148262
-9.28934e-06
0.000151343
-9.24197e-06
0.000154409
-9.19291e-06
0.000157457
-9.14213e-06
0.000160488
-9.08961e-06
0.000163501
-9.03533e-06
0.000166495
-8.97925e-06
0.00016947
-8.92135e-06
0.000172424
-8.8616e-06
0.000175359
-8.8e-06
0.000178272
-8.7365e-06
0.000181163
-8.6711e-06
0.000184032
-8.60378e-06
0.000186878
-8.53451e-06
0.000189701
-8.46328e-06
0.000192498
-8.39009e-06
0.000195271
-8.31491e-06
0.000198018
-8.23774e-06
0.000200739
-8.15857e-06
0.000203432
-8.07739e-06
0.000206098
-7.99419e-06
0.000208736
-7.90898e-06
0.000211344
-7.82176e-06
0.000213923
-7.73251e-06
0.000216471
-7.64125e-06
0.000218988
-7.54799e-06
0.000221473
-7.45272e-06
0.000223926
-7.35546e-06
0.000226346
-7.25622e-06
0.000228732
-7.15501e-06
0.000231084
-7.05185e-06
0.000233401
-6.94675e-06
0.000235681
-6.83974e-06
0.000237926
-6.73084e-06
0.000240134
-6.62006e-06
0.000242304
-6.50744e-06
0.000244436
-6.39301e-06
0.000246529
-6.27678e-06
0.000248583
-6.1588e-06
0.000250597
-6.03909e-06
0.000252571
-5.9177e-06
0.000254503
-5.79465e-06
0.000256394
-5.66999e-06
0.000258243
-5.54375e-06
0.000260049
-5.41598e-06
0.000261812
-5.28671e-06
0.000263531
-5.156e-06
0.000265207
-5.02388e-06
0.000266838
-4.8904e-06
0.000268423
-4.75561e-06
0.000269964
-4.61956e-06
0.000271459
-4.48229e-06
0.000272907
-4.34385e-06
0.000274309
-4.2043e-06
0.000275664
-4.06368e-06
0.000276972
-3.92205e-06
0.000278233
-3.77945e-06
0.000279445
-3.63594e-06
0.000280609
-3.49156e-06
0.000281725
-3.34638e-06
0.000282792
-3.20044e-06
0.000283811
-3.0538e-06
0.00028478
-2.9065e-06
0.0002857
-2.7586e-06
0.00028657
-2.61014e-06
0.000287391
-2.46118e-06
0.000288162
-2.31177e-06
0.000288882
-2.16196e-06
0.000289553
-2.0118e-06
0.000290174
-1.86133e-06
0.000290744
-1.7106e-06
0.000291264
-1.55967e-06
0.000291734
-1.40857e-06
0.000292153
-1.25735e-06
0.000292522
-1.10606e-06
0.00029284
-9.54747e-07
0.000293108
-8.03444e-07
0.000293325
-6.52199e-07
0.000293492
-5.01053e-07
0.000293608
-3.50047e-07
0.000293675
-1.99221e-07
0.000293691
-4.86153e-08
0.000293657
1.01732e-07
0.000293573
2.51783e-07
0.000293439
4.01501e-07
0.000293255
5.50849e-07
0.000293021
6.99791e-07
0.000292738
8.48292e-07
0.000292406
9.96318e-07
0.000292024
1.14383e-06
0.000291594
1.29081e-06
0.000291114
1.43721e-06
0.000290586
1.583e-06
0.00029001
1.72815e-06
0.000289385
1.87263e-06
0.000288713
2.01641e-06
0.000287992
2.15945e-06
0.000287225
2.30174e-06
0.00028641
2.44322e-06
0.000285548
2.58389e-06
0.00028464
2.72371e-06
0.000283685
2.86264e-06
0.000282684
3.00066e-06
0.000281638
3.13774e-06
0.000280546
3.27386e-06
0.000279409
3.40898e-06
0.000278227
3.54308e-06
0.000277001
3.67612e-06
0.000275731
3.80809e-06
0.000274418
3.93895e-06
0.000273061
4.06867e-06
0.000271661
4.19723e-06
0.000270219
4.32461e-06
0.000268735
4.45077e-06
0.000267209
4.5757e-06
0.000265642
4.69935e-06
0.000264034
4.82172e-06
0.000262385
4.94276e-06
0.000260697
5.06247e-06
0.000258969
5.18081e-06
0.000257203
5.29777e-06
0.000255397
5.41331e-06
0.000253554
5.52742e-06
0.000251673
5.64007e-06
0.000249755
5.75124e-06
0.000247801
5.86092e-06
0.00024581
5.96908e-06
0.000243784
6.0757e-06
0.000241723
6.18076e-06
0.000239628
6.28426e-06
0.000237498
6.38616e-06
0.000235335
6.48646e-06
0.000233139
6.58514e-06
0.000230911
6.68219e-06
0.00022865
6.77759e-06
0.000226359
6.87134e-06
0.000224037
6.96342e-06
0.000221685
7.05383e-06
0.000219303
7.14256e-06
0.000216892
7.22959e-06
0.000214453
7.31493e-06
0.000211986
7.39856e-06
0.000209491
7.4805e-06
0.00020697
7.56073e-06
0.000204423
7.63926e-06
0.00020185
7.71608e-06
0.000199252
7.79119e-06
0.000196629
7.86461e-06
0.000193983
7.93633e-06
0.000191313
8.00636e-06
0.000188621
8.07471e-06
0.000185906
8.14138e-06
0.00018317
8.20639e-06
0.000180412
8.26974e-06
0.000177634
8.33144e-06
0.000174836
8.39152e-06
0.000172019
8.44997e-06
0.000169182
8.50681e-06
0.000166327
8.56207e-06
0.000163454
8.61576e-06
0.000160564
8.66788e-06
0.000157657
8.71847e-06
0.000154734
8.76754e-06
0.000151795
8.81511e-06
0.00014884
8.8612e-06
0.000145871
8.90583e-06
0.000142887
8.94902e-06
0.000139889
8.9908e-06
0.000136878
9.03118e-06
0.000133854
9.07019e-06
0.000130817
9.10786e-06
0.000127768
9.1442e-06
0.000124708
9.17925e-06
0.000121636
9.21302e-06
0.000118554
9.24553e-06
0.000115461
9.27683e-06
0.000112358
9.30692e-06
0.000109245
9.33583e-06
0.000106123
9.36359e-06
0.000102993
9.39022e-06
9.98536e-05
9.41575e-06
9.67063e-05
9.44019e-06
9.35512e-05
9.46359e-06
9.03886e-05
9.48594e-06
8.7219e-05
9.50729e-06
8.40425e-05
9.52766e-06
8.08597e-05
9.54706e-06
7.76706e-05
9.56551e-06
7.44758e-05
9.58305e-06
7.12754e-05
9.59968e-06
6.80698e-05
9.61544e-06
6.48592e-05
9.63034e-06
6.1644e-05
9.64439e-06
5.84243e-05
9.65763e-06
5.52005e-05
9.67006e-06
5.19728e-05
9.6817e-06
4.87416e-05
9.69257e-06
4.55069e-05
9.70269e-06
4.22692e-05
9.71206e-06
3.90285e-05
9.7207e-06
3.57853e-05
9.72863e-06
3.25396e-05
9.73586e-06
2.92917e-05
9.74239e-06
2.6042e-05
9.74824e-06
2.27904e-05
9.75342e-06
1.95374e-05
9.75793e-06
1.62831e-05
9.76179e-06
1.30278e-05
9.76499e-06
9.77158e-06
9.76755e-06
6.51473e-06
9.76946e-06
3.25747e-06
9.77072e-06
9.77135e-06
3.385e-06
-1.35369e-05
6.76979e-06
-1.3536e-05
1.01541e-05
-1.35342e-05
1.35378e-05
-1.35315e-05
1.69206e-05
-1.35278e-05
2.03022e-05
-1.35233e-05
2.36825e-05
-1.35179e-05
2.70612e-05
-1.35115e-05
3.04381e-05
-1.35042e-05
3.38129e-05
-1.34959e-05
3.71854e-05
-1.34866e-05
4.05554e-05
-1.34763e-05
4.39226e-05
-1.34651e-05
4.72867e-05
-1.34528e-05
5.06475e-05
-1.34394e-05
5.40047e-05
-1.3425e-05
5.73581e-05
-1.34094e-05
6.07073e-05
-1.33927e-05
6.4052e-05
-1.33749e-05
6.73921e-05
-1.33559e-05
7.07271e-05
-1.33357e-05
7.40567e-05
-1.33142e-05
7.73808e-05
-1.32914e-05
8.06988e-05
-1.32673e-05
8.40105e-05
-1.32419e-05
8.73155e-05
-1.32151e-05
9.06135e-05
-1.31868e-05
9.3904e-05
-1.31571e-05
9.71869e-05
-1.31259e-05
0.000100462
-1.30931e-05
0.000103728
-1.30588e-05
0.000106985
-1.30228e-05
0.000110233
-1.29852e-05
0.000113471
-1.29459e-05
0.000116698
-1.29048e-05
0.000119915
-1.28619e-05
0.000123121
-1.28172e-05
0.000126316
-1.27706e-05
0.000129498
-1.27221e-05
0.000132668
-1.26716e-05
0.000135824
-1.26192e-05
0.000138967
-1.25646e-05
0.000142096
-1.2508e-05
0.00014521
-1.24493e-05
0.000148309
-1.23884e-05
0.000151393
-1.23252e-05
0.00015446
-1.22599e-05
0.00015751
-1.21922e-05
0.000160542
-1.21222e-05
0.000163557
-1.20499e-05
0.000166553
-1.19752e-05
0.000169529
-1.1898e-05
0.000172486
-1.18184e-05
0.000175422
-1.17363e-05
0.000178338
-1.16516e-05
0.000181231
-1.15645e-05
0.000184102
-1.14747e-05
0.00018695
-1.13824e-05
0.000189774
-1.12874e-05
0.000192574
-1.11899e-05
0.000195348
-1.10897e-05
0.000198097
-1.09868e-05
0.00020082
-1.08812e-05
0.000203516
-1.0773e-05
0.000206184
-1.06621e-05
0.000208823
-1.05485e-05
0.000211433
-1.04321e-05
0.000214014
-1.03131e-05
0.000216564
-1.01915e-05
0.000219083
-1.00671e-05
0.000221571
-9.94006e-06
0.000224026
-9.81036e-06
0.000226447
-9.67802e-06
0.000228835
-9.54305e-06
0.000231189
-9.40547e-06
0.000233508
-9.26531e-06
0.000235791
-9.1226e-06
0.000238037
-8.97736e-06
0.000240247
-8.82962e-06
0.000242419
-8.67942e-06
0.000244552
-8.52679e-06
0.000246647
-8.37177e-06
0.000248703
-8.21441e-06
0.000250719
-8.05475e-06
0.000252694
-7.89283e-06
0.000254628
-7.72871e-06
0.00025652
-7.56243e-06
0.000258371
-7.39405e-06
0.000260178
-7.22362e-06
0.000261943
-7.0512e-06
0.000263664
-6.87685e-06
0.00026534
-6.70062e-06
0.000266972
-6.52257e-06
0.00026856
-6.34278e-06
0.000270101
-6.1613e-06
0.000271597
-5.9782e-06
0.000273047
-5.79354e-06
0.00027445
-5.60739e-06
0.000275806
-5.41982e-06
0.000277115
-5.23089e-06
0.000278376
-5.04068e-06
0.00027959
-4.84925e-06
0.000280755
-4.65668e-06
0.000281871
-4.46302e-06
0.000282939
-4.26835e-06
0.000283958
-4.07275e-06
0.000284928
-3.87627e-06
0.000285848
-3.67899e-06
0.000286719
-3.48097e-06
0.00028754
-3.28228e-06
0.000288311
-3.08299e-06
0.000289033
-2.88317e-06
0.000289704
-2.68287e-06
0.000290325
-2.48217e-06
0.000290895
-2.28113e-06
0.000291415
-2.07981e-06
0.000291885
-1.87827e-06
0.000292304
-1.67658e-06
0.000292673
-1.47479e-06
0.000292991
-1.27297e-06
0.000293259
-1.07117e-06
0.000293476
-8.69442e-07
0.000293643
-6.6785e-07
0.000293759
-4.66446e-07
0.000293825
-2.65284e-07
0.000293841
-6.44159e-08
0.000293807
1.36106e-07
0.000293722
3.36232e-07
0.000293588
5.35913e-07
0.000293404
7.35099e-07
0.00029317
9.33743e-07
0.000292886
1.1318e-06
0.000292553
1.32922e-06
0.000292171
1.52596e-06
0.00029174
1.72198e-06
0.00029126
1.91722e-06
0.000290731
2.11166e-06
0.000290154
2.30525e-06
0.000289529
2.49793e-06
0.000288856
2.68969e-06
0.000288135
2.88046e-06
0.000287366
3.07022e-06
0.00028655
3.25892e-06
0.000285688
3.44652e-06
0.000284779
3.63298e-06
0.000283823
3.81827e-06
0.000282821
4.00234e-06
0.000281774
4.18517e-06
0.000280681
4.3667e-06
0.000279543
4.5469e-06
0.00027836
4.72574e-06
0.000277133
4.90318e-06
0.000275862
5.07917e-06
0.000274548
5.25369e-06
0.000273189
5.4267e-06
0.000271789
5.59816e-06
0.000270345
5.76804e-06
0.00026886
5.9363e-06
0.000267332
6.1029e-06
0.000265764
6.26781e-06
0.000264155
6.431e-06
0.000262505
6.59244e-06
0.000260815
6.75209e-06
0.000259086
6.90991e-06
0.000257318
7.06589e-06
0.000255511
7.21998e-06
0.000253667
7.37216e-06
0.000251784
7.52239e-06
0.000249865
7.67065e-06
0.000247909
7.81692e-06
0.000245917
7.96116e-06
0.000243889
8.10335e-06
0.000241827
8.24346e-06
0.000239729
8.38148e-06
0.000237598
8.51738e-06
0.000235433
8.65113e-06
0.000233236
8.78273e-06
0.000231006
8.91215e-06
0.000228744
9.03937e-06
0.000226451
9.16438e-06
0.000224127
9.28717e-06
0.000221773
9.40773e-06
0.00021939
9.52604e-06
0.000216977
9.64209e-06
0.000214537
9.75588e-06
0.000212068
9.8674e-06
0.000209572
9.97665e-06
0.000207049
1.00836e-05
0.0002045
1.01883e-05
0.000201925
1.02907e-05
0.000199325
1.03909e-05
0.000196701
1.04888e-05
0.000194053
1.05844e-05
0.000191382
1.06778e-05
0.000188687
1.07689e-05
0.000185971
1.08578e-05
0.000183233
1.09444e-05
0.000180474
1.10289e-05
0.000177694
1.11111e-05
0.000174894
1.11912e-05
0.000172075
1.12691e-05
0.000169237
1.13449e-05
0.000166381
1.14185e-05
0.000163506
1.14901e-05
0.000160615
1.15596e-05
0.000157706
1.1627e-05
0.000154781
1.16924e-05
0.000151841
1.17558e-05
0.000148885
1.18172e-05
0.000145914
1.18767e-05
0.000142929
1.19342e-05
0.00013993
1.19899e-05
0.000136917
1.20437e-05
0.000133891
1.20957e-05
0.000130853
1.21459e-05
0.000127803
1.21943e-05
0.000124742
1.2241e-05
0.000121669
1.2286e-05
0.000118585
1.23293e-05
0.000115491
1.2371e-05
0.000112387
1.24111e-05
0.000109273
1.24496e-05
0.00010615
1.24865e-05
0.000103018
1.2522e-05
9.9878e-05
1.2556e-05
9.67296e-05
1.25886e-05
9.35734e-05
1.26197e-05
9.04099e-05
1.26495e-05
8.72393e-05
1.26779e-05
8.40619e-05
1.2705e-05
8.08781e-05
1.27309e-05
7.76881e-05
1.27554e-05
7.44924e-05
1.27788e-05
7.12911e-05
1.28009e-05
6.80846e-05
1.28219e-05
6.48732e-05
1.28418e-05
6.16571e-05
1.28605e-05
5.84367e-05
1.28781e-05
5.52121e-05
1.28946e-05
5.19837e-05
1.29101e-05
4.87516e-05
1.29246e-05
4.55163e-05
1.29381e-05
4.22778e-05
1.29505e-05
3.90364e-05
1.29621e-05
3.57925e-05
1.29726e-05
3.25461e-05
1.29822e-05
2.92976e-05
1.29909e-05
2.60471e-05
1.29987e-05
2.27949e-05
1.30056e-05
1.95413e-05
1.30116e-05
1.62863e-05
1.30167e-05
1.30303e-05
1.3021e-05
9.77348e-06
1.30244e-05
6.51601e-06
1.30269e-05
3.25811e-06
1.30286e-05
1.30295e-05
3.38591e-06
-1.69228e-05
6.77159e-06
-1.69216e-05
1.01568e-05
-1.69194e-05
1.35414e-05
-1.6916e-05
1.69251e-05
-1.69115e-05
2.03077e-05
-1.69059e-05
2.36889e-05
-1.68991e-05
2.70686e-05
-1.68912e-05
3.04464e-05
-1.6882e-05
3.38222e-05
-1.68717e-05
3.71957e-05
-1.68601e-05
4.05667e-05
-1.68473e-05
4.39349e-05
-1.68333e-05
4.73001e-05
-1.68179e-05
5.0662e-05
-1.68013e-05
5.40203e-05
-1.67833e-05
5.73748e-05
-1.67639e-05
6.07252e-05
-1.67431e-05
6.40711e-05
-1.67209e-05
6.74124e-05
-1.66972e-05
7.07486e-05
-1.66719e-05
7.40796e-05
-1.66451e-05
7.74049e-05
-1.66167e-05
8.07243e-05
-1.65867e-05
8.40374e-05
-1.6555e-05
8.73438e-05
-1.65215e-05
9.06433e-05
-1.64863e-05
9.39354e-05
-1.64492e-05
9.72197e-05
-1.64102e-05
0.000100496
-1.63694e-05
0.000103764
-1.63265e-05
0.000107023
-1.62817e-05
0.000110272
-1.62347e-05
0.000113512
-1.61856e-05
0.000116741
-1.61343e-05
0.00011996
-1.60808e-05
0.000123168
-1.6025e-05
0.000126364
-1.59669e-05
0.000129549
-1.59063e-05
0.00013272
-1.58433e-05
0.000135879
-1.57778e-05
0.000139024
-1.57097e-05
0.000142155
-1.5639e-05
0.000145271
-1.55657e-05
0.000148373
-1.54896e-05
0.000151458
-1.54108e-05
0.000154527
-1.53291e-05
0.00015758
-1.52446e-05
0.000160615
-1.51572e-05
0.000163632
-1.50669e-05
0.00016663
-1.49735e-05
0.000169609
-1.48771e-05
0.000172568
-1.47776e-05
0.000175507
-1.4675e-05
0.000178425
-1.45693e-05
0.000181321
-1.44604e-05
0.000184194
-1.43483e-05
0.000187045
-1.42329e-05
0.000189872
-1.41142e-05
0.000192674
-1.39923e-05
0.000195451
-1.3867e-05
0.000198203
-1.37385e-05
0.000200929
-1.36065e-05
0.000203627
-1.34713e-05
0.000206297
-1.33326e-05
0.00020894
-1.31906e-05
0.000211553
-1.30452e-05
0.000214136
-1.28965e-05
0.000216689
-1.27444e-05
0.000219211
-1.25889e-05
0.000221701
-1.24301e-05
0.000224158
-1.22679e-05
0.000226583
-1.21024e-05
0.000228973
-1.19337e-05
0.000231329
-1.17617e-05
0.000233651
-1.15864e-05
0.000235936
-1.1408e-05
0.000238185
-1.12264e-05
0.000240397
-1.10416e-05
0.000242571
-1.08538e-05
0.000244707
-1.0663e-05
0.000246805
-1.04691e-05
0.000248863
-1.02723e-05
0.000250881
-1.00727e-05
0.000252858
-9.87018e-06
0.000254794
-9.66493e-06
0.000256689
-9.45698e-06
0.000258541
-9.2464e-06
0.000260351
-9.03326e-06
0.000262117
-8.81762e-06
0.00026384
-8.59957e-06
0.000265518
-8.37916e-06
0.000267152
-8.15649e-06
0.000268741
-7.93163e-06
0.000270285
-7.70466e-06
0.000271782
-7.47566e-06
0.000273233
-7.24471e-06
0.000274638
-7.0119e-06
0.000275995
-6.77731e-06
0.000277305
-6.54102e-06
0.000278568
-6.30313e-06
0.000279782
-6.06371e-06
0.000280948
-5.82286e-06
0.000282066
-5.58067e-06
0.000283135
-5.3372e-06
0.000284155
-5.09257e-06
0.000285125
-4.84684e-06
0.000286046
-4.60011e-06
0.000286918
-4.35246e-06
0.00028774
-4.10397e-06
0.000288511
-3.85474e-06
0.000289233
-3.60483e-06
0.000289905
-3.35434e-06
0.000290526
-3.10335e-06
0.000291096
-2.85193e-06
0.000291617
-2.60017e-06
0.000292087
-2.34813e-06
0.000292506
-2.0959e-06
0.000292875
-1.84356e-06
0.000293193
-1.59117e-06
0.000293461
-1.33881e-06
0.000293678
-1.08655e-06
0.000293844
-8.34456e-07
0.00029396
-5.826e-07
0.000294026
-3.31049e-07
0.000294042
-7.98677e-08
0.000294007
1.7088e-07
0.000293922
4.2113e-07
0.000293787
6.70822e-07
0.000293602
9.19894e-07
0.000293368
1.16829e-06
0.000293084
1.41594e-06
0.00029275
1.6628e-06
0.000292367
1.90881e-06
0.000291935
2.15391e-06
0.000291454
2.39806e-06
0.000290925
2.64118e-06
0.000290347
2.88324e-06
0.000289721
3.12418e-06
0.000289046
3.36395e-06
0.000288324
3.60249e-06
0.000287555
3.83976e-06
0.000286738
4.07571e-06
0.000285874
4.31028e-06
0.000284964
4.54343e-06
0.000284007
4.77512e-06
0.000283004
5.00528e-06
0.000281955
5.23388e-06
0.000280861
5.46087e-06
0.000279722
5.68619e-06
0.000278538
5.90981e-06
0.000277309
6.13167e-06
0.000276037
6.35174e-06
0.00027472
6.56996e-06
0.000273361
6.78628e-06
0.000271958
7.00068e-06
0.000270513
7.21309e-06
0.000269026
7.42347e-06
0.000267497
7.63179e-06
0.000265927
7.838e-06
0.000264316
8.04205e-06
0.000262665
8.24391e-06
0.000260973
8.44353e-06
0.000259242
8.64087e-06
0.000257472
8.83589e-06
0.000255664
9.02856e-06
0.000253817
9.21884e-06
0.000251933
9.40669e-06
0.000250011
9.59207e-06
0.000248053
9.77495e-06
0.000246059
9.9553e-06
0.000244029
1.01331e-05
0.000241965
1.03083e-05
0.000239865
1.04808e-05
0.000237732
1.06507e-05