/*--------------------------------*- C++ -*----------------------------------*\
| =========                 |                                                 |
| \\      /  F ield         | OpenFOAM: The Open Source CFD Toolbox           |
|  \\    /   O peration     | Version:  v2012                                 |
|   \\  /    A nd           | Website:  www.openfoam.com                      |
|    \\/     M anipulation  |                                                 |
\*---------------------------------------------------------------------------*/
FoamFile
{
    version     2.0;
    format      ascii;
    class       volVectorField;
    location    "13.8";
    object      Psi;
}
// * * * * * * * * * * * * * * * * * * * * * * * * * * * * * * * * * * * * * //

dimensions      [0 2 -1 0 0 0 0];


internalField   nonuniform List<vector> 
65536
(
(0 0 8.69625e-06)
(0 0 2.60893e-05)
(0 0 4.34839e-05)
(0 0 6.08808e-05)
(0 0 7.82811e-05)
(0 0 9.56856e-05)
(0 0 0.000113095)
(0 0 0.000130511)
(0 0 0.000147934)
(0 0 0.000165365)
(0 0 0.000182804)
(0 0 0.000200253)
(0 0 0.000217712)
(0 0 0.000235182)
(0 0 0.000252664)
(0 0 0.000270158)
(0 0 0.000287666)
(0 0 0.000305187)
(0 0 0.000322722)
(0 0 0.000340272)
(0 0 0.000357837)
(0 0 0.000375417)
(0 0 0.000393013)
(0 0 0.000410625)
(0 0 0.000428254)
(0 0 0.000445898)
(0 0 0.000463559)
(0 0 0.000481236)
(0 0 0.000498929)
(0 0 0.000516638)
(0 0 0.000534363)
(0 0 0.000552102)
(0 0 0.000569856)
(0 0 0.000587624)
(0 0 0.000605406)
(0 0 0.000623199)
(0 0 0.000641004)
(0 0 0.00065882)
(0 0 0.000676644)
(0 0 0.000694476)
(0 0 0.000712315)
(0 0 0.000730159)
(0 0 0.000748005)
(0 0 0.000765852)
(0 0 0.000783699)
(0 0 0.000801543)
(0 0 0.000819381)
(0 0 0.000837211)
(0 0 0.000855031)
(0 0 0.000872838)
(0 0 0.000890628)
(0 0 0.000908399)
(0 0 0.000926147)
(0 0 0.000943869)
(0 0 0.000961562)
(0 0 0.00097922)
(0 0 0.000996841)
(0 0 0.00101442)
(0 0 0.00103195)
(0 0 0.00104943)
(0 0 0.00106686)
(0 0 0.00108423)
(0 0 0.00110153)
(0 0 0.00111876)
(0 0 0.00113591)
(0 0 0.00115298)
(0 0 0.00116996)
(0 0 0.00118685)
(0 0 0.00120364)
(0 0 0.00122032)
(0 0 0.00123689)
(0 0 0.00125334)
(0 0 0.00126966)
(0 0 0.00128585)
(0 0 0.0013019)
(0 0 0.0013178)
(0 0 0.00133355)
(0 0 0.00134913)
(0 0 0.00136454)
(0 0 0.00137978)
(0 0 0.00139483)
(0 0 0.00140968)
(0 0 0.00142433)
(0 0 0.00143878)
(0 0 0.001453)
(0 0 0.001467)
(0 0 0.00148076)
(0 0 0.00149429)
(0 0 0.00150756)
(0 0 0.00152057)
(0 0 0.00153331)
(0 0 0.00154579)
(0 0 0.00155797)
(0 0 0.00156987)
(0 0 0.00158147)
(0 0 0.00159276)
(0 0 0.00160374)
(0 0 0.00161439)
(0 0 0.00162472)
(0 0 0.00163471)
(0 0 0.00164436)
(0 0 0.00165366)
(0 0 0.0016626)
(0 0 0.00167118)
(0 0 0.00167939)
(0 0 0.00168722)
(0 0 0.00169468)
(0 0 0.00170175)
(0 0 0.00170843)
(0 0 0.00171471)
(0 0 0.0017206)
(0 0 0.00172608)
(0 0 0.00173115)
(0 0 0.00173582)
(0 0 0.00174006)
(0 0 0.0017439)
(0 0 0.00174731)
(0 0 0.00175031)
(0 0 0.00175288)
(0 0 0.00175503)
(0 0 0.00175675)
(0 0 0.00175805)
(0 0 0.00175892)
(0 0 0.00175937)
(0 0 0.0017594)
(0 0 0.001759)
(0 0 0.00175818)
(0 0 0.00175694)
(0 0 0.00175529)
(0 0 0.00175322)
(0 0 0.00175073)
(0 0 0.00174784)
(0 0 0.00174454)
(0 0 0.00174084)
(0 0 0.00173675)
(0 0 0.00173225)
(0 0 0.00172737)
(0 0 0.00172211)
(0 0 0.00171646)
(0 0 0.00171045)
(0 0 0.00170406)
(0 0 0.00169732)
(0 0 0.00169021)
(0 0 0.00168276)
(0 0 0.00167496)
(0 0 0.00166683)
(0 0 0.00165837)
(0 0 0.00164958)
(0 0 0.00164048)
(0 0 0.00163107)
(0 0 0.00162136)
(0 0 0.00161135)
(0 0 0.00160106)
(0 0 0.00159049)
(0 0 0.00157964)
(0 0 0.00156853)
(0 0 0.00155716)
(0 0 0.00154554)
(0 0 0.00153368)
(0 0 0.00152159)
(0 0 0.00150926)
(0 0 0.00149672)
(0 0 0.00148397)
(0 0 0.00147101)
(0 0 0.00145785)
(0 0 0.0014445)
(0 0 0.00143096)
(0 0 0.00141725)
(0 0 0.00140337)
(0 0 0.00138933)
(0 0 0.00137513)
(0 0 0.00136078)
(0 0 0.00134629)
(0 0 0.00133166)
(0 0 0.0013169)
(0 0 0.00130201)
(0 0 0.00128701)
(0 0 0.00127189)
(0 0 0.00125667)
(0 0 0.00124134)
(0 0 0.00122592)
(0 0 0.00121041)
(0 0 0.00119481)
(0 0 0.00117913)
(0 0 0.00116337)
(0 0 0.00114755)
(0 0 0.00113166)
(0 0 0.0011157)
(0 0 0.00109969)
(0 0 0.00108362)
(0 0 0.00106751)
(0 0 0.00105134)
(0 0 0.00103514)
(0 0 0.0010189)
(0 0 0.00100262)
(0 0 0.000986305)
(0 0 0.000969965)
(0 0 0.000953599)
(0 0 0.00093721)
(0 0 0.0009208)
(0 0 0.000904373)
(0 0 0.00088793)
(0 0 0.000871474)
(0 0 0.000855007)
(0 0 0.000838532)
(0 0 0.000822051)
(0 0 0.000805564)
(0 0 0.000789075)
(0 0 0.000772584)
(0 0 0.000756094)
(0 0 0.000739605)
(0 0 0.00072312)
(0 0 0.000706639)
(0 0 0.000690163)
(0 0 0.000673695)
(0 0 0.000657233)
(0 0 0.000640781)
(0 0 0.000624338)
(0 0 0.000607904)
(0 0 0.000591482)
(0 0 0.000575071)
(0 0 0.000558672)
(0 0 0.000542285)
(0 0 0.00052591)
(0 0 0.000509549)
(0 0 0.000493201)
(0 0 0.000476866)
(0 0 0.000460545)
(0 0 0.000444237)
(0 0 0.000427943)
(0 0 0.000411662)
(0 0 0.000395394)
(0 0 0.00037914)
(0 0 0.000362899)
(0 0 0.00034667)
(0 0 0.000330454)
(0 0 0.00031425)
(0 0 0.000298058)
(0 0 0.000281878)
(0 0 0.000265708)
(0 0 0.000249549)
(0 0 0.0002334)
(0 0 0.00021726)
(0 0 0.00020113)
(0 0 0.000185007)
(0 0 0.000168893)
(0 0 0.000152786)
(0 0 0.000136685)
(0 0 0.00012059)
(0 0 0.000104501)
(0 0 8.84161e-05)
(0 0 7.23351e-05)
(0 0 5.62573e-05)
(0 0 4.0182e-05)
(0 0 2.41085e-05)
(0 0 8.03605e-06)
(0 0 2.60885e-05)
(0 0 7.8267e-05)
(0 0 0.00013045)
(0 0 0.00018264)
(0 0 0.00023484)
(0 0 0.000287053)
(0 0 0.000339281)
(0 0 0.000391528)
(0 0 0.000443795)
(0 0 0.000496086)
(0 0 0.000548404)
(0 0 0.000600749)
(0 0 0.000653126)
(0 0 0.000705536)
(0 0 0.000757981)
(0 0 0.000810464)
(0 0 0.000862985)
(0 0 0.000915548)
(0 0 0.000968153)
(0 0 0.0010208)
(0 0 0.0010735)
(0 0 0.00112624)
(0 0 0.00117903)
(0 0 0.00123186)
(0 0 0.00128475)
(0 0 0.00133768)
(0 0 0.00139066)
(0 0 0.0014437)
(0 0 0.00149678)
(0 0 0.0015499)
(0 0 0.00160308)
(0 0 0.0016563)
(0 0 0.00170956)
(0 0 0.00176286)
(0 0 0.00181621)
(0 0 0.00186959)
(0 0 0.00192301)
(0 0 0.00197645)
(0 0 0.00202993)
(0 0 0.00208343)
(0 0 0.00213695)
(0 0 0.00219048)
(0 0 0.00224402)
(0 0 0.00229756)
(0 0 0.00235111)
(0 0 0.00240464)
(0 0 0.00245816)
(0 0 0.00251165)
(0 0 0.00256511)
(0 0 0.00261853)
(0 0 0.00267191)
(0 0 0.00272523)
(0 0 0.00277847)
(0 0 0.00283164)
(0 0 0.00288472)
(0 0 0.0029377)
(0 0 0.00299057)
(0 0 0.00304331)
(0 0 0.00309591)
(0 0 0.00314836)
(0 0 0.00320065)
(0 0 0.00325275)
(0 0 0.00330465)
(0 0 0.00335635)
(0 0 0.00340781)
(0 0 0.00345903)
(0 0 0.00350998)
(0 0 0.00356066)
(0 0 0.00361103)
(0 0 0.00366108)
(0 0 0.00371079)
(0 0 0.00376015)
(0 0 0.00380913)
(0 0 0.0038577)
(0 0 0.00390586)
(0 0 0.00395357)
(0 0 0.00400081)
(0 0 0.00404757)
(0 0 0.00409381)
(0 0 0.00413952)
(0 0 0.00418468)
(0 0 0.00422925)
(0 0 0.00427321)
(0 0 0.00431655)
(0 0 0.00435923)
(0 0 0.00440124)
(0 0 0.00444254)
(0 0 0.00448311)
(0 0 0.00452293)
(0 0 0.00456198)
(0 0 0.00460022)
(0 0 0.00463764)
(0 0 0.00467421)
(0 0 0.00470991)
(0 0 0.00474471)
(0 0 0.00477859)
(0 0 0.00481153)
(0 0 0.00484351)
(0 0 0.00487449)
(0 0 0.00490447)
(0 0 0.00493342)
(0 0 0.00496133)
(0 0 0.00498816)
(0 0 0.0050139)
(0 0 0.00503854)
(0 0 0.00506205)
(0 0 0.00508442)
(0 0 0.00510564)
(0 0 0.00512568)
(0 0 0.00514454)
(0 0 0.00516219)
(0 0 0.00517864)
(0 0 0.00519387)
(0 0 0.00520786)
(0 0 0.00522061)
(0 0 0.00523211)
(0 0 0.00524236)
(0 0 0.00525134)
(0 0 0.00525905)
(0 0 0.0052655)
(0 0 0.00527067)
(0 0 0.00527457)
(0 0 0.00527719)
(0 0 0.00527854)
(0 0 0.00527861)
(0 0 0.00527742)
(0 0 0.00527496)
(0 0 0.00527125)
(0 0 0.00526628)
(0 0 0.00526006)
(0 0 0.00525261)
(0 0 0.00524393)
(0 0 0.00523403)
(0 0 0.00522292)
(0 0 0.00521063)
(0 0 0.00519715)
(0 0 0.0051825)
(0 0 0.0051667)
(0 0 0.00514976)
(0 0 0.00513171)
(0 0 0.00511254)
(0 0 0.0050923)
(0 0 0.00507098)
(0 0 0.00504862)
(0 0 0.00502522)
(0 0 0.00500082)
(0 0 0.00497543)
(0 0 0.00494906)
(0 0 0.00492175)
(0 0 0.00489351)
(0 0 0.00486437)
(0 0 0.00483434)
(0 0 0.00480345)
(0 0 0.00477172)
(0 0 0.00473918)
(0 0 0.00470584)
(0 0 0.00467173)
(0 0 0.00463686)
(0 0 0.00460128)
(0 0 0.00456498)
(0 0 0.00452801)
(0 0 0.00449037)
(0 0 0.0044521)
(0 0 0.00441321)
(0 0 0.00437372)
(0 0 0.00433367)
(0 0 0.00429306)
(0 0 0.00425192)
(0 0 0.00421027)
(0 0 0.00416814)
(0 0 0.00412553)
(0 0 0.00408247)
(0 0 0.00403899)
(0 0 0.00399509)
(0 0 0.0039508)
(0 0 0.00390614)
(0 0 0.00386112)
(0 0 0.00381577)
(0 0 0.00377009)
(0 0 0.00372411)
(0 0 0.00367784)
(0 0 0.0036313)
(0 0 0.0035845)
(0 0 0.00353746)
(0 0 0.00349019)
(0 0 0.0034427)
(0 0 0.00339502)
(0 0 0.00334715)
(0 0 0.00329911)
(0 0 0.00325091)
(0 0 0.00320256)
(0 0 0.00315407)
(0 0 0.00310545)
(0 0 0.00305671)
(0 0 0.00300787)
(0 0 0.00295894)
(0 0 0.00290992)
(0 0 0.00286081)
(0 0 0.00281164)
(0 0 0.00276241)
(0 0 0.00271313)
(0 0 0.0026638)
(0 0 0.00261443)
(0 0 0.00256503)
(0 0 0.0025156)
(0 0 0.00246615)
(0 0 0.00241669)
(0 0 0.00236722)
(0 0 0.00231775)
(0 0 0.00226827)
(0 0 0.00221881)
(0 0 0.00216935)
(0 0 0.00211991)
(0 0 0.00207048)
(0 0 0.00202107)
(0 0 0.00197169)
(0 0 0.00192233)
(0 0 0.001873)
(0 0 0.0018237)
(0 0 0.00177443)
(0 0 0.0017252)
(0 0 0.001676)
(0 0 0.00162684)
(0 0 0.00157771)
(0 0 0.00152863)
(0 0 0.00147959)
(0 0 0.00143058)
(0 0 0.00138162)
(0 0 0.00133269)
(0 0 0.00128381)
(0 0 0.00123497)
(0 0 0.00118617)
(0 0 0.0011374)
(0 0 0.00108868)
(0 0 0.00104)
(0 0 0.000991348)
(0 0 0.000942737)
(0 0 0.000894161)
(0 0 0.00084562)
(0 0 0.000797112)
(0 0 0.000748635)
(0 0 0.000700188)
(0 0 0.00065177)
(0 0 0.000603379)
(0 0 0.000555013)
(0 0 0.000506671)
(0 0 0.00045835)
(0 0 0.000410049)
(0 0 0.000361765)
(0 0 0.000313498)
(0 0 0.000265244)
(0 0 0.000217002)
(0 0 0.000168769)
(0 0 0.000120544)
(0 0 7.23244e-05)
(0 0 2.41078e-05)
(0 0 4.34793e-05)
(0 0 0.00013044)
(0 0 0.000217408)
(0 0 0.000304389)
(0 0 0.000391386)
(0 0 0.000478404)
(0 0 0.000565448)
(0 0 0.000652523)
(0 0 0.000739633)
(0 0 0.000826782)
(0 0 0.000913975)
(0 0 0.00100122)
(0 0 0.00108851)
(0 0 0.00117585)
(0 0 0.00126326)
(0 0 0.00135073)
(0 0 0.00143826)
(0 0 0.00152587)
(0 0 0.00161354)
(0 0 0.00170129)
(0 0 0.00178911)
(0 0 0.00187701)
(0 0 0.00196499)
(0 0 0.00205305)
(0 0 0.00214119)
(0 0 0.00222942)
(0 0 0.00231772)
(0 0 0.00240611)
(0 0 0.00249457)
(0 0 0.00258312)
(0 0 0.00267174)
(0 0 0.00276045)
(0 0 0.00284922)
(0 0 0.00293806)
(0 0 0.00302697)
(0 0 0.00311595)
(0 0 0.00320498)
(0 0 0.00329406)
(0 0 0.00338319)
(0 0 0.00347236)
(0 0 0.00356156)
(0 0 0.00365079)
(0 0 0.00374003)
(0 0 0.00382928)
(0 0 0.00391852)
(0 0 0.00400775)
(0 0 0.00409695)
(0 0 0.00418612)
(0 0 0.00427523)
(0 0 0.00436428)
(0 0 0.00445325)
(0 0 0.00454212)
(0 0 0.00463088)
(0 0 0.00471951)
(0 0 0.00480799)
(0 0 0.0048963)
(0 0 0.00498442)
(0 0 0.00507234)
(0 0 0.00516003)
(0 0 0.00524746)
(0 0 0.00533461)
(0 0 0.00542147)
(0 0 0.00550799)
(0 0 0.00559417)
(0 0 0.00567996)
(0 0 0.00576534)
(0 0 0.00585029)
(0 0 0.00593476)
(0 0 0.00601873)
(0 0 0.00610218)
(0 0 0.00618506)
(0 0 0.00626734)
(0 0 0.00634899)
(0 0 0.00642997)
(0 0 0.00651025)
(0 0 0.0065898)
(0 0 0.00666856)
(0 0 0.00674651)
(0 0 0.00682362)
(0 0 0.00689983)
(0 0 0.00697511)
(0 0 0.00704942)
(0 0 0.00712272)
(0 0 0.00719498)
(0 0 0.00726614)
(0 0 0.00733617)
(0 0 0.00740504)
(0 0 0.00747269)
(0 0 0.00753908)
(0 0 0.00760418)
(0 0 0.00766795)
(0 0 0.00773035)
(0 0 0.00779132)
(0 0 0.00785085)
(0 0 0.00790887)
(0 0 0.00796537)
(0 0 0.00802029)
(0 0 0.00807361)
(0 0 0.00812528)
(0 0 0.00817527)
(0 0 0.00822354)
(0 0 0.00827006)
(0 0 0.0083148)
(0 0 0.00835773)
(0 0 0.00839881)
(0 0 0.00843802)
(0 0 0.00847532)
(0 0 0.00851069)
(0 0 0.00854411)
(0 0 0.00857556)
(0 0 0.008605)
(0 0 0.00863243)
(0 0 0.00865781)
(0 0 0.00868114)
(0 0 0.0087024)
(0 0 0.00872158)
(0 0 0.00873866)
(0 0 0.00875364)
(0 0 0.0087665)
(0 0 0.00877724)
(0 0 0.00878587)
(0 0 0.00879236)
(0 0 0.00879673)
(0 0 0.00879897)
(0 0 0.0087991)
(0 0 0.00879711)
(0 0 0.008793)
(0 0 0.0087868)
(0 0 0.00877851)
(0 0 0.00876814)
(0 0 0.00875571)
(0 0 0.00874123)
(0 0 0.00872472)
(0 0 0.0087062)
(0 0 0.00868569)
(0 0 0.0086632)
(0 0 0.00863878)
(0 0 0.00861243)
(0 0 0.00858418)
(0 0 0.00855407)
(0 0 0.00852211)
(0 0 0.00848835)
(0 0 0.0084528)
(0 0 0.00841551)
(0 0 0.0083765)
(0 0 0.0083358)
(0 0 0.00829345)
(0 0 0.00824949)
(0 0 0.00820395)
(0 0 0.00815686)
(0 0 0.00810826)
(0 0 0.00805819)
(0 0 0.00800668)
(0 0 0.00795378)
(0 0 0.00789951)
(0 0 0.00784392)
(0 0 0.00778704)
(0 0 0.00772891)
(0 0 0.00766957)
(0 0 0.00760906)
(0 0 0.00754741)
(0 0 0.00748466)
(0 0 0.00742085)
(0 0 0.00735601)
(0 0 0.00729018)
(0 0 0.00722339)
(0 0 0.00715569)
(0 0 0.0070871)
(0 0 0.00701766)
(0 0 0.00694741)
(0 0 0.00687638)
(0 0 0.0068046)
(0 0 0.0067321)
(0 0 0.00665892)
(0 0 0.00658509)
(0 0 0.00651063)
(0 0 0.00643558)
(0 0 0.00635997)
(0 0 0.00628382)
(0 0 0.00620717)
(0 0 0.00613003)
(0 0 0.00605244)
(0 0 0.00597443)
(0 0 0.00589601)
(0 0 0.00581721)
(0 0 0.00573806)
(0 0 0.00565858)
(0 0 0.00557878)
(0 0 0.0054987)
(0 0 0.00541835)
(0 0 0.00533775)
(0 0 0.00525692)
(0 0 0.00517588)
(0 0 0.00509464)
(0 0 0.00501323)
(0 0 0.00493166)
(0 0 0.00484994)
(0 0 0.0047681)
(0 0 0.00468614)
(0 0 0.00460408)
(0 0 0.00452193)
(0 0 0.0044397)
(0 0 0.00435741)
(0 0 0.00427507)
(0 0 0.00419268)
(0 0 0.00411027)
(0 0 0.00402783)
(0 0 0.00394537)
(0 0 0.00386291)
(0 0 0.00378045)
(0 0 0.003698)
(0 0 0.00361557)
(0 0 0.00353316)
(0 0 0.00345077)
(0 0 0.00336843)
(0 0 0.00328612)
(0 0 0.00320385)
(0 0 0.00312163)
(0 0 0.00303946)
(0 0 0.00295735)
(0 0 0.00287529)
(0 0 0.00279329)
(0 0 0.00271135)
(0 0 0.00262948)
(0 0 0.00254767)
(0 0 0.00246593)
(0 0 0.00238426)
(0 0 0.00230265)
(0 0 0.00222111)
(0 0 0.00213964)
(0 0 0.00205824)
(0 0 0.0019769)
(0 0 0.00189563)
(0 0 0.00181442)
(0 0 0.00173328)
(0 0 0.00165221)
(0 0 0.00157119)
(0 0 0.00149023)
(0 0 0.00140933)
(0 0 0.00132848)
(0 0 0.00124769)
(0 0 0.00116695)
(0 0 0.00108625)
(0 0 0.0010056)
(0 0 0.000924996)
(0 0 0.000844427)
(0 0 0.000763894)
(0 0 0.000683395)
(0 0 0.000602925)
(0 0 0.000522481)
(0 0 0.00044206)
(0 0 0.000361659)
(0 0 0.000281274)
(0 0 0.000200901)
(0 0 0.000120537)
(0 0 4.01784e-05)
(0 0 6.08676e-05)
(0 0 0.000182606)
(0 0 0.000304355)
(0 0 0.000426121)
(0 0 0.00054791)
(0 0 0.000669729)
(0 0 0.000791584)
(0 0 0.000913483)
(0 0 0.00103543)
(0 0 0.00115743)
(0 0 0.0012795)
(0 0 0.00140163)
(0 0 0.00152383)
(0 0 0.00164611)
(0 0 0.00176848)
(0 0 0.00189093)
(0 0 0.00201347)
(0 0 0.00213611)
(0 0 0.00225885)
(0 0 0.0023817)
(0 0 0.00250465)
(0 0 0.0026277)
(0 0 0.00275087)
(0 0 0.00287416)
(0 0 0.00299755)
(0 0 0.00312107)
(0 0 0.00324469)
(0 0 0.00336844)
(0 0 0.00349229)
(0 0 0.00361626)
(0 0 0.00374034)
(0 0 0.00386452)
(0 0 0.00398881)
(0 0 0.0041132)
(0 0 0.00423768)
(0 0 0.00436225)
(0 0 0.0044869)
(0 0 0.00461162)
(0 0 0.00473641)
(0 0 0.00486126)
(0 0 0.00498615)
(0 0 0.00511108)
(0 0 0.00523603)
(0 0 0.00536099)
(0 0 0.00548595)
(0 0 0.00561089)
(0 0 0.00573579)
(0 0 0.00586064)
(0 0 0.00598542)
(0 0 0.0061101)
(0 0 0.00623468)
(0 0 0.00635912)
(0 0 0.00648341)
(0 0 0.00660752)
(0 0 0.00673141)
(0 0 0.00685508)
(0 0 0.00697848)
(0 0 0.0071016)
(0 0 0.00722439)
(0 0 0.00734683)
(0 0 0.00746888)
(0 0 0.00759051)
(0 0 0.00771169)
(0 0 0.00783237)
(0 0 0.00795252)
(0 0 0.00807209)
(0 0 0.00819106)
(0 0 0.00830936)
(0 0 0.00842697)
(0 0 0.00854384)
(0 0 0.00865992)
(0 0 0.00877516)
(0 0 0.00888952)
(0 0 0.00900294)
(0 0 0.00911539)
(0 0 0.0092268)
(0 0 0.00933712)
(0 0 0.00944631)
(0 0 0.00955431)
(0 0 0.00966106)
(0 0 0.00976651)
(0 0 0.0098706)
(0 0 0.00997328)
(0 0 0.0100745)
(0 0 0.0101742)
(0 0 0.0102723)
(0 0 0.0103687)
(0 0 0.0104635)
(0 0 0.0105565)
(0 0 0.0106477)
(0 0 0.0107371)
(0 0 0.0108245)
(0 0 0.0109099)
(0 0 0.0109933)
(0 0 0.0110746)
(0 0 0.0111537)
(0 0 0.0112307)
(0 0 0.0113054)
(0 0 0.0113777)
(0 0 0.0114478)
(0 0 0.0115154)
(0 0 0.0115806)
(0 0 0.0116433)
(0 0 0.0117034)
(0 0 0.011761)
(0 0 0.0118159)
(0 0 0.0118681)
(0 0 0.0119177)
(0 0 0.0119645)
(0 0 0.0120086)
(0 0 0.0120498)
(0 0 0.0120883)
(0 0 0.0121238)
(0 0 0.0121565)
(0 0 0.0121863)
(0 0 0.0122131)
(0 0 0.0122371)
(0 0 0.0122581)
(0 0 0.0122761)
(0 0 0.0122911)
(0 0 0.0123032)
(0 0 0.0123123)
(0 0 0.0123184)
(0 0 0.0123215)
(0 0 0.0123217)
(0 0 0.0123189)
(0 0 0.0123131)
(0 0 0.0123044)
(0 0 0.0122928)
(0 0 0.0122783)
(0 0 0.0122609)
(0 0 0.0122406)
(0 0 0.0122174)
(0 0 0.0121915)
(0 0 0.0121627)
(0 0 0.0121312)
(0 0 0.012097)
(0 0 0.0120601)
(0 0 0.0120205)
(0 0 0.0119783)
(0 0 0.0119335)
(0 0 0.0118862)
(0 0 0.0118364)
(0 0 0.0117841)
(0 0 0.0117295)
(0 0 0.0116724)
(0 0 0.0116131)
(0 0 0.0115515)
(0 0 0.0114877)
(0 0 0.0114217)
(0 0 0.0113536)
(0 0 0.0112835)
(0 0 0.0112113)
(0 0 0.0111372)
(0 0 0.0110612)
(0 0 0.0109833)
(0 0 0.0109036)
(0 0 0.0108222)
(0 0 0.010739)
(0 0 0.0106543)
(0 0 0.0105679)
(0 0 0.01048)
(0 0 0.0103906)
(0 0 0.0102998)
(0 0 0.0102076)
(0 0 0.010114)
(0 0 0.0100192)
(0 0 0.00992313)
(0 0 0.00982587)
(0 0 0.00972747)
(0 0 0.00962798)
(0 0 0.00952744)
(0 0 0.0094259)
(0 0 0.0093234)
(0 0 0.00921999)
(0 0 0.00911571)
(0 0 0.0090106)
(0 0 0.0089047)
(0 0 0.00879806)
(0 0 0.0086907)
(0 0 0.00858268)
(0 0 0.00847402)
(0 0 0.00836477)
(0 0 0.00825495)
(0 0 0.0081446)
(0 0 0.00803375)
(0 0 0.00792244)
(0 0 0.0078107)
(0 0 0.00769856)
(0 0 0.00758604)
(0 0 0.00747317)
(0 0 0.00735998)
(0 0 0.0072465)
(0 0 0.00713275)
(0 0 0.00701875)
(0 0 0.00690453)
(0 0 0.0067901)
(0 0 0.0066755)
(0 0 0.00656074)
(0 0 0.00644583)
(0 0 0.00633081)
(0 0 0.00621567)
(0 0 0.00610045)
(0 0 0.00598516)
(0 0 0.0058698)
(0 0 0.00575441)
(0 0 0.00563898)
(0 0 0.00552353)
(0 0 0.00540807)
(0 0 0.00529262)
(0 0 0.00517718)
(0 0 0.00506176)
(0 0 0.00494638)
(0 0 0.00483104)
(0 0 0.00471574)
(0 0 0.0046005)
(0 0 0.00448532)
(0 0 0.00437021)
(0 0 0.00425517)
(0 0 0.0041402)
(0 0 0.00402532)
(0 0 0.00391052)
(0 0 0.00379581)
(0 0 0.00368118)
(0 0 0.00356665)
(0 0 0.00345221)
(0 0 0.00333786)
(0 0 0.00322361)
(0 0 0.00310946)
(0 0 0.0029954)
(0 0 0.00288144)
(0 0 0.00276757)
(0 0 0.00265379)
(0 0 0.0025401)
(0 0 0.00242651)
(0 0 0.002313)
(0 0 0.00219958)
(0 0 0.00208624)
(0 0 0.00197298)
(0 0 0.0018598)
(0 0 0.0017467)
(0 0 0.00163366)
(0 0 0.00152069)
(0 0 0.00140779)
(0 0 0.00129494)
(0 0 0.00118215)
(0 0 0.00106941)
(0 0 0.000956711)
(0 0 0.000844058)
(0 0 0.000731441)
(0 0 0.000618857)
(0 0 0.0005063)
(0 0 0.000393766)
(0 0 0.000281249)
(0 0 0.000168744)
(0 0 5.62473e-05)
(0 0 7.82525e-05)
(0 0 0.000234762)
(0 0 0.000391285)
(0 0 0.000547829)
(0 0 0.000704404)
(0 0 0.000861017)
(0 0 0.00101768)
(0 0 0.00117439)
(0 0 0.00133117)
(0 0 0.00148802)
(0 0 0.00164495)
(0 0 0.00180197)
(0 0 0.00195908)
(0 0 0.00211629)
(0 0 0.00227361)
(0 0 0.00243104)
(0 0 0.00258859)
(0 0 0.00274626)
(0 0 0.00290406)
(0 0 0.003062)
(0 0 0.00322007)
(0 0 0.00337829)
(0 0 0.00353664)
(0 0 0.00369515)
(0 0 0.0038538)
(0 0 0.0040126)
(0 0 0.00417155)
(0 0 0.00433065)
(0 0 0.0044899)
(0 0 0.00464929)
(0 0 0.00480882)
(0 0 0.00496849)
(0 0 0.0051283)
(0 0 0.00528823)
(0 0 0.00544829)
(0 0 0.00560846)
(0 0 0.00576874)
(0 0 0.00592911)
(0 0 0.00608957)
(0 0 0.00625011)
(0 0 0.0064107)
(0 0 0.00657135)
(0 0 0.00673202)
(0 0 0.00689271)
(0 0 0.00705339)
(0 0 0.00721406)
(0 0 0.00737467)
(0 0 0.00753523)
(0 0 0.00769569)
(0 0 0.00785604)
(0 0 0.00801625)
(0 0 0.00817628)
(0 0 0.00833612)
(0 0 0.00849573)
(0 0 0.00865508)
(0 0 0.00881412)
(0 0 0.00897284)
(0 0 0.00913118)
(0 0 0.00928911)
(0 0 0.00944659)
(0 0 0.00960357)
(0 0 0.00976001)
(0 0 0.00991587)
(0 0 0.0100711)
(0 0 0.0102256)
(0 0 0.0103795)
(0 0 0.0105325)
(0 0 0.0106847)
(0 0 0.010836)
(0 0 0.0109863)
(0 0 0.0111356)
(0 0 0.0112839)
(0 0 0.011431)
(0 0 0.0115769)
(0 0 0.0117216)
(0 0 0.0118649)
(0 0 0.0120068)
(0 0 0.0121473)
(0 0 0.0122862)
(0 0 0.0124236)
(0 0 0.0125593)
(0 0 0.0126932)
(0 0 0.0128253)
(0 0 0.0129555)
(0 0 0.0130838)
(0 0 0.01321)
(0 0 0.0133342)
(0 0 0.0134561)
(0 0 0.0135758)
(0 0 0.0136931)
(0 0 0.0138081)
(0 0 0.0139206)
(0 0 0.0140305)
(0 0 0.0141378)
(0 0 0.0142424)
(0 0 0.0143443)
(0 0 0.0144433)
(0 0 0.0145394)
(0 0 0.0146326)
(0 0 0.0147227)
(0 0 0.0148097)
(0 0 0.0148936)
(0 0 0.0149743)
(0 0 0.0150517)
(0 0 0.0151257)
(0 0 0.0151964)
(0 0 0.0152637)
(0 0 0.0153275)
(0 0 0.0153877)
(0 0 0.0154444)
(0 0 0.0154975)
(0 0 0.0155469)
(0 0 0.0155927)
(0 0 0.0156348)
(0 0 0.0156731)
(0 0 0.0157076)
(0 0 0.0157384)
(0 0 0.0157654)
(0 0 0.0157886)
(0 0 0.015808)
(0 0 0.0158235)
(0 0 0.0158352)
(0 0 0.015843)
(0 0 0.0158471)
(0 0 0.0158473)
(0 0 0.0158437)
(0 0 0.0158362)
(0 0 0.015825)
(0 0 0.0158101)
(0 0 0.0157913)
(0 0 0.0157689)
(0 0 0.0157427)
(0 0 0.015713)
(0 0 0.0156795)
(0 0 0.0156425)
(0 0 0.0156019)
(0 0 0.0155579)
(0 0 0.0155103)
(0 0 0.0154594)
(0 0 0.0154051)
(0 0 0.0153474)
(0 0 0.0152865)
(0 0 0.0152224)
(0 0 0.0151551)
(0 0 0.0150848)
(0 0 0.0150114)
(0 0 0.014935)
(0 0 0.0148557)
(0 0 0.0147736)
(0 0 0.0146887)
(0 0 0.0146011)
(0 0 0.0145108)
(0 0 0.0144179)
(0 0 0.0143225)
(0 0 0.0142247)
(0 0 0.0141245)
(0 0 0.0140219)
(0 0 0.0139171)
(0 0 0.0138102)
(0 0 0.0137011)
(0 0 0.01359)
(0 0 0.0134769)
(0 0 0.0133618)
(0 0 0.013245)
(0 0 0.0131263)
(0 0 0.013006)
(0 0 0.012884)
(0 0 0.0127604)
(0 0 0.0126352)
(0 0 0.0125086)
(0 0 0.0123806)
(0 0 0.0122513)
(0 0 0.0121207)
(0 0 0.0119888)
(0 0 0.0118558)
(0 0 0.0117216)
(0 0 0.0115864)
(0 0 0.0114502)
(0 0 0.011313)
(0 0 0.0111749)
(0 0 0.011036)
(0 0 0.0108962)
(0 0 0.0107557)
(0 0 0.0106144)
(0 0 0.0104725)
(0 0 0.0103299)
(0 0 0.0101867)
(0 0 0.010043)
(0 0 0.00989879)
(0 0 0.00975407)
(0 0 0.00960891)
(0 0 0.00946334)
(0 0 0.00931739)
(0 0 0.0091711)
(0 0 0.00902449)
(0 0 0.0088776)
(0 0 0.00873045)
(0 0 0.00858306)
(0 0 0.00843548)
(0 0 0.00828771)
(0 0 0.00813979)
(0 0 0.00799174)
(0 0 0.00784357)
(0 0 0.00769531)
(0 0 0.00754697)
(0 0 0.00739858)
(0 0 0.00725015)
(0 0 0.00710169)
(0 0 0.00695323)
(0 0 0.00680477)
(0 0 0.00665634)
(0 0 0.00650793)
(0 0 0.00635957)
(0 0 0.00621125)
(0 0 0.00606301)
(0 0 0.00591483)
(0 0 0.00576673)
(0 0 0.00561872)
(0 0 0.0054708)
(0 0 0.00532298)
(0 0 0.00517527)
(0 0 0.00502766)
(0 0 0.00488017)
(0 0 0.00473279)
(0 0 0.00458553)
(0 0 0.0044384)
(0 0 0.00429138)
(0 0 0.00414449)
(0 0 0.00399772)
(0 0 0.00385107)
(0 0 0.00370454)
(0 0 0.00355814)
(0 0 0.00341186)
(0 0 0.0032657)
(0 0 0.00311965)
(0 0 0.00297371)
(0 0 0.00282789)
(0 0 0.00268217)
(0 0 0.00253656)
(0 0 0.00239105)
(0 0 0.00224563)
(0 0 0.00210031)
(0 0 0.00195507)
(0 0 0.00180991)
(0 0 0.00166483)
(0 0 0.00151982)
(0 0 0.00137487)
(0 0 0.00122999)
(0 0 0.00108515)
(0 0 0.000940369)
(0 0 0.000795626)
(0 0 0.000650919)
(0 0 0.00050624)
(0 0 0.000361584)
(0 0 0.000216944)
(0 0 7.23136e-05)
(0 0 9.56331e-05)
(0 0 0.000286905)
(0 0 0.000478193)
(0 0 0.000669507)
(0 0 0.000860859)
(0 0 0.00105226)
(0 0 0.00124371)
(0 0 0.00143524)
(0 0 0.00162684)
(0 0 0.00181853)
(0 0 0.00201032)
(0 0 0.00220222)
(0 0 0.00239423)
(0 0 0.00258636)
(0 0 0.00277862)
(0 0 0.00297102)
(0 0 0.00316357)
(0 0 0.00335628)
(0 0 0.00354914)
(0 0 0.00374216)
(0 0 0.00393536)
(0 0 0.00412872)
(0 0 0.00432227)
(0 0 0.00451599)
(0 0 0.0047099)
(0 0 0.00490399)
(0 0 0.00509826)
(0 0 0.00529272)
(0 0 0.00548735)
(0 0 0.00568217)
(0 0 0.00587716)
(0 0 0.00607233)
(0 0 0.00626766)
(0 0 0.00646315)
(0 0 0.00665879)
(0 0 0.00685457)
(0 0 0.00705048)
(0 0 0.00724652)
(0 0 0.00744266)
(0 0 0.0076389)
(0 0 0.00783521)
(0 0 0.00803158)
(0 0 0.00822799)
(0 0 0.00842443)
(0 0 0.00862086)
(0 0 0.00881727)
(0 0 0.00901363)
(0 0 0.0092099)
(0 0 0.00940608)
(0 0 0.00960211)
(0 0 0.00979798)
(0 0 0.00999364)
(0 0 0.0101891)
(0 0 0.0103842)
(0 0 0.010579)
(0 0 0.0107735)
(0 0 0.0109676)
(0 0 0.0111612)
(0 0 0.0113543)
(0 0 0.0115468)
(0 0 0.0117388)
(0 0 0.0119301)
(0 0 0.0121207)
(0 0 0.0123105)
(0 0 0.0124995)
(0 0 0.0126876)
(0 0 0.0128747)
(0 0 0.0130609)
(0 0 0.0132459)
(0 0 0.0134297)
(0 0 0.0136124)
(0 0 0.0137937)
(0 0 0.0139736)
(0 0 0.0141521)
(0 0 0.0143291)
(0 0 0.0145044)
(0 0 0.014678)
(0 0 0.0148498)
(0 0 0.0150198)
(0 0 0.0151878)
(0 0 0.0153538)
(0 0 0.0155176)
(0 0 0.0156792)
(0 0 0.0158385)
(0 0 0.0159955)
(0 0 0.0161499)
(0 0 0.0163017)
(0 0 0.0164509)
(0 0 0.0165974)
(0 0 0.016741)
(0 0 0.0168816)
(0 0 0.0170192)
(0 0 0.0171537)
(0 0 0.017285)
(0 0 0.017413)
(0 0 0.0175376)
(0 0 0.0176588)
(0 0 0.0177764)
(0 0 0.0178904)
(0 0 0.0180007)
(0 0 0.0181072)
(0 0 0.0182098)
(0 0 0.0183085)
(0 0 0.0184033)
(0 0 0.0184939)
(0 0 0.0185804)
(0 0 0.0186627)
(0 0 0.0187407)
(0 0 0.0188145)
(0 0 0.0188838)
(0 0 0.0189488)
(0 0 0.0190093)
(0 0 0.0190653)
(0 0 0.0191168)
(0 0 0.0191636)
(0 0 0.0192059)
(0 0 0.0192436)
(0 0 0.0192766)
(0 0 0.019305)
(0 0 0.0193286)
(0 0 0.0193476)
(0 0 0.0193619)
(0 0 0.0193715)
(0 0 0.0193764)
(0 0 0.0193767)
(0 0 0.0193722)
(0 0 0.0193631)
(0 0 0.0193494)
(0 0 0.019331)
(0 0 0.0193081)
(0 0 0.0192806)
(0 0 0.0192486)
(0 0 0.0192121)
(0 0 0.0191712)
(0 0 0.0191259)
(0 0 0.0190762)
(0 0 0.0190222)
(0 0 0.018964)
(0 0 0.0189017)
(0 0 0.0188352)
(0 0 0.0187646)
(0 0 0.0186901)
(0 0 0.0186116)
(0 0 0.0185292)
(0 0 0.0184431)
(0 0 0.0183533)
(0 0 0.0182598)
(0 0 0.0181628)
(0 0 0.0180623)
(0 0 0.0179584)
(0 0 0.0178511)
(0 0 0.0177407)
(0 0 0.017627)
(0 0 0.0175103)
(0 0 0.0173906)
(0 0 0.017268)
(0 0 0.0171425)
(0 0 0.0170143)
(0 0 0.0168834)
(0 0 0.0167499)
(0 0 0.016614)
(0 0 0.0164756)
(0 0 0.0163349)
(0 0 0.0161919)
(0 0 0.0160468)
(0 0 0.0158996)
(0 0 0.0157503)
(0 0 0.0155991)
(0 0 0.015446)
(0 0 0.0152912)
(0 0 0.0151346)
(0 0 0.0149764)
(0 0 0.0148167)
(0 0 0.0146554)
(0 0 0.0144927)
(0 0 0.0143286)
(0 0 0.0141632)
(0 0 0.0139966)
(0 0 0.0138289)
(0 0 0.01366)
(0 0 0.0134901)
(0 0 0.0133191)
(0 0 0.0131473)
(0 0 0.0129746)
(0 0 0.012801)
(0 0 0.0126267)
(0 0 0.0124516)
(0 0 0.0122759)
(0 0 0.0120995)
(0 0 0.0119226)
(0 0 0.0117451)
(0 0 0.0115671)
(0 0 0.0113886)
(0 0 0.0112098)
(0 0 0.0110305)
(0 0 0.0108509)
(0 0 0.010671)
(0 0 0.0104908)
(0 0 0.0103104)
(0 0 0.0101298)
(0 0 0.00994892)
(0 0 0.00976791)
(0 0 0.00958678)
(0 0 0.00940553)
(0 0 0.00922419)
(0 0 0.00904279)
(0 0 0.00886134)
(0 0 0.00867987)
(0 0 0.00849839)
(0 0 0.00831691)
(0 0 0.00813546)
(0 0 0.00795405)
(0 0 0.0077727)
(0 0 0.00759141)
(0 0 0.0074102)
(0 0 0.00722908)
(0 0 0.00704805)
(0 0 0.00686714)
(0 0 0.00668634)
(0 0 0.00650566)
(0 0 0.00632511)
(0 0 0.0061447)
(0 0 0.00596442)
(0 0 0.00578429)
(0 0 0.0056043)
(0 0 0.00542446)
(0 0 0.00524477)
(0 0 0.00506523)
(0 0 0.00488585)
(0 0 0.00470661)
(0 0 0.00452753)
(0 0 0.0043486)
(0 0 0.00416981)
(0 0 0.00399117)
(0 0 0.00381267)
(0 0 0.00363432)
(0 0 0.00345609)
(0 0 0.003278)
(0 0 0.00310004)
(0 0 0.0029222)
(0 0 0.00274448)
(0 0 0.00256687)
(0 0 0.00238936)
(0 0 0.00221196)
(0 0 0.00203465)
(0 0 0.00185742)
(0 0 0.00168028)
(0 0 0.00150321)
(0 0 0.0013262)
(0 0 0.00114926)
(0 0 0.000972361)
(0 0 0.000795508)
(0 0 0.000618692)
(0 0 0.000441903)
(0 0 0.000265134)
(0 0 8.83767e-05)
(0 0 0.000113008)
(0 0 0.000339031)
(0 0 0.000565074)
(0 0 0.000791148)
(0 0 0.00101727)
(0 0 0.00124344)
(0 0 0.00146968)
(0 0 0.00169601)
(0 0 0.00192243)
(0 0 0.00214895)
(0 0 0.00237558)
(0 0 0.00260235)
(0 0 0.00282925)
(0 0 0.00305629)
(0 0 0.0032835)
(0 0 0.00351087)
(0 0 0.00373841)
(0 0 0.00396613)
(0 0 0.00419405)
(0 0 0.00442215)
(0 0 0.00465046)
(0 0 0.00487898)
(0 0 0.00510771)
(0 0 0.00533665)
(0 0 0.00556581)
(0 0 0.00579519)
(0 0 0.00602478)
(0 0 0.0062546)
(0 0 0.00648463)
(0 0 0.00671488)
(0 0 0.00694533)
(0 0 0.007176)
(0 0 0.00740686)
(0 0 0.00763791)
(0 0 0.00786914)
(0 0 0.00810054)
(0 0 0.00833211)
(0 0 0.00856382)
(0 0 0.00879565)
(0 0 0.00902761)
(0 0 0.00925965)
(0 0 0.00949177)
(0 0 0.00972395)
(0 0 0.00995615)
(0 0 0.0101884)
(0 0 0.0104205)
(0 0 0.0106527)
(0 0 0.0108847)
(0 0 0.0111166)
(0 0 0.0113484)
(0 0 0.0115799)
(0 0 0.0118112)
(0 0 0.0120423)
(0 0 0.012273)
(0 0 0.0125033)
(0 0 0.0127333)
(0 0 0.0129627)
(0 0 0.0131917)
(0 0 0.01342)
(0 0 0.0136477)
(0 0 0.0138747)
(0 0 0.0141009)
(0 0 0.0143263)
(0 0 0.0145508)
(0 0 0.0147743)
(0 0 0.0149967)
(0 0 0.015218)
(0 0 0.0154381)
(0 0 0.015657)
(0 0 0.0158744)
(0 0 0.0160904)
(0 0 0.0163049)
(0 0 0.0165178)
(0 0 0.0167289)
(0 0 0.0169382)
(0 0 0.0171456)
(0 0 0.0173509)
(0 0 0.0175542)
(0 0 0.0177553)
(0 0 0.017954)
(0 0 0.0181504)
(0 0 0.0183442)
(0 0 0.0185354)
(0 0 0.0187239)
(0 0 0.0189096)
(0 0 0.0190923)
(0 0 0.019272)
(0 0 0.0194485)
(0 0 0.0196218)
(0 0 0.0197917)
(0 0 0.0199581)
(0 0 0.020121)
(0 0 0.0202801)
(0 0 0.0204355)
(0 0 0.020587)
(0 0 0.0207345)
(0 0 0.0208779)
(0 0 0.0210171)
(0 0 0.021152)
(0 0 0.0212825)
(0 0 0.0214085)
(0 0 0.02153)
(0 0 0.0216468)
(0 0 0.0217589)
(0 0 0.0218662)
(0 0 0.0219686)
(0 0 0.022066)
(0 0 0.0221583)
(0 0 0.0222456)
(0 0 0.0223277)
(0 0 0.0224046)
(0 0 0.0224761)
(0 0 0.0225424)
(0 0 0.0226033)
(0 0 0.0226588)
(0 0 0.0227088)
(0 0 0.0227534)
(0 0 0.0227925)
(0 0 0.022826)
(0 0 0.022854)
(0 0 0.0228765)
(0 0 0.0228934)
(0 0 0.0229047)
(0 0 0.0229105)
(0 0 0.0229107)
(0 0 0.0229054)
(0 0 0.0228946)
(0 0 0.0228783)
(0 0 0.0228566)
(0 0 0.0228294)
(0 0 0.0227968)
(0 0 0.0227589)
(0 0 0.0227157)
(0 0 0.0226672)
(0 0 0.0226135)
(0 0 0.0225547)
(0 0 0.0224908)
(0 0 0.0224219)
(0 0 0.0223481)
(0 0 0.0222693)
(0 0 0.0221858)
(0 0 0.0220975)
(0 0 0.0220046)
(0 0 0.0219071)
(0 0 0.0218052)
(0 0 0.0216989)
(0 0 0.0215882)
(0 0 0.0214734)
(0 0 0.0213544)
(0 0 0.0212314)
(0 0 0.0211045)
(0 0 0.0209737)
(0 0 0.0208392)
(0 0 0.0207011)
(0 0 0.0205594)
(0 0 0.0204143)
(0 0 0.0202658)
(0 0 0.0201141)
(0 0 0.0199592)
(0 0 0.0198013)
(0 0 0.0196404)
(0 0 0.0194767)
(0 0 0.0193102)
(0 0 0.0191411)
(0 0 0.0189694)
(0 0 0.0187952)
(0 0 0.0186186)
(0 0 0.0184397)
(0 0 0.0182586)
(0 0 0.0180755)
(0 0 0.0178903)
(0 0 0.0177031)
(0 0 0.0175141)
(0 0 0.0173234)
(0 0 0.0171309)
(0 0 0.0169369)
(0 0 0.0167413)
(0 0 0.0165443)
(0 0 0.0163458)
(0 0 0.0161461)
(0 0 0.0159452)
(0 0 0.015743)
(0 0 0.0155398)
(0 0 0.0153355)
(0 0 0.0151303)
(0 0 0.0149241)
(0 0 0.0147171)
(0 0 0.0145093)
(0 0 0.0143008)
(0 0 0.0140916)
(0 0 0.0138817)
(0 0 0.0136713)
(0 0 0.0134603)
(0 0 0.0132488)
(0 0 0.0130369)
(0 0 0.0128246)
(0 0 0.0126119)
(0 0 0.0123989)
(0 0 0.0121855)
(0 0 0.011972)
(0 0 0.0117582)
(0 0 0.0115442)
(0 0 0.0113301)
(0 0 0.0111158)
(0 0 0.0109015)
(0 0 0.0106871)
(0 0 0.0104726)
(0 0 0.0102581)