/*--------------------------------*- C++ -*----------------------------------*\
| =========                 |                                                 |
| \\      /  F ield         | OpenFOAM: The Open Source CFD Toolbox           |
|  \\    /   O peration     | Version:  v2012                                 |
|   \\  /    A nd           | Website:  www.openfoam.com                      |
|    \\/     M anipulation  |                                                 |
\*---------------------------------------------------------------------------*/
FoamFile
{
    version     2.0;
    format      ascii;
    class       surfaceScalarField;
    location    "18.2";
    object      phi;
}
// * * * * * * * * * * * * * * * * * * * * * * * * * * * * * * * * * * * * * //

dimensions      [0 3 -1 0 0 0 0];
oriented        oriented;


internalField   nonuniform List<scalar> 
130560
(
3.25083e-06
-3.25083e-06
6.50181e-06
-3.25099e-06
9.75311e-06
-3.2513e-06
1.30049e-05
-3.25176e-06
1.62572e-05
-3.25237e-06
1.95104e-05
-3.25314e-06
2.27644e-05
-3.25406e-06
2.60196e-05
-3.25512e-06
2.92759e-05
-3.25633e-06
3.25336e-05
-3.25768e-06
3.57927e-05
-3.25916e-06
3.90535e-05
-3.26079e-06
4.23161e-05
-3.26254e-06
4.55805e-05
-3.26443e-06
4.88469e-05
-3.26643e-06
5.21155e-05
-3.26855e-06
5.53862e-05
-3.27078e-06
5.86594e-05
-3.27312e-06
6.19349e-05
-3.27556e-06
6.5213e-05
-3.27809e-06
6.84937e-05
-3.28071e-06
7.17771e-05
-3.2834e-06
7.50633e-05
-3.28616e-06
7.83523e-05
-3.28898e-06
8.16441e-05
-3.29186e-06
8.49389e-05
-3.29478e-06
8.82366e-05
-3.29773e-06
9.15373e-05
-3.3007e-06
9.4841e-05
-3.30368e-06
9.81477e-05
-3.30666e-06
0.000101457
-3.30963e-06
0.00010477
-3.31258e-06
0.000108085
-3.31548e-06
0.000111404
-3.31834e-06
0.000114725
-3.32113e-06
0.000118049
-3.32383e-06
0.000121375
-3.32644e-06
0.000124704
-3.32894e-06
0.000128035
-3.33131e-06
0.000131369
-3.33353e-06
0.000134704
-3.33559e-06
0.000138042
-3.33746e-06
0.000141381
-3.33913e-06
0.000144722
-3.34058e-06
0.000148063
-3.34179e-06
0.000151406
-3.34274e-06
0.00015475
-3.3434e-06
0.000158093
-3.34375e-06
0.000161437
-3.34377e-06
0.000164781
-3.34344e-06
0.000168123
-3.34273e-06
0.000171465
-3.34161e-06
0.000174805
-3.34007e-06
0.000178143
-3.33807e-06
0.000181479
-3.33559e-06
0.000184811
-3.3326e-06
0.00018814
-3.32907e-06
0.000191465
-3.32497e-06
0.000194786
-3.32028e-06
0.0001981
-3.31496e-06
0.000201409
-3.30898e-06
0.000204712
-3.30232e-06
0.000208007
-3.29494e-06
0.000211294
-3.28681e-06
0.000214571
-3.2779e-06
0.00021784
-3.26818e-06
0.000221097
-3.25761e-06
0.000224343
-3.24615e-06
0.000227577
-3.23379e-06
0.000230798
-3.22048e-06
0.000234004
-3.2062e-06
0.000237195
-3.1909e-06
0.000240369
-3.17456e-06
0.000243526
-3.15714e-06
0.000246665
-3.13861e-06
0.000249784
-3.11894e-06
0.000252882
-3.0981e-06
0.000255958
-3.07604e-06
0.000259011
-3.05276e-06
0.000262039
-3.0282e-06
0.000265041
-3.00236e-06
0.000268017
-2.97518e-06
0.000270963
-2.94666e-06
0.00027388
-2.91675e-06
0.000276765
-2.88544e-06
0.000279618
-2.8527e-06
0.000282437
-2.81852e-06
0.00028522
-2.78286e-06
0.000287965
-2.74571e-06
0.000290672
-2.70704e-06
0.000293339
-2.66686e-06
0.000295964
-2.62513e-06
0.000298546
-2.58185e-06
0.000301083
-2.53701e-06
0.000303574
-2.4906e-06
0.000306016
-2.44262e-06
0.000308409
-2.39306e-06
0.000310751
-2.34192e-06
0.000313041
-2.28921e-06
0.000315275
-2.23492e-06
0.000317455
-2.17907e-06
0.000319576
-2.12167e-06
0.000321639
-2.06274e-06
0.000323641
-2.00228e-06
0.000325582
-1.94032e-06
0.000327458
-1.87687e-06
0.00032927
-1.81198e-06
0.000331016
-1.74566e-06
0.000332694
-1.67794e-06
0.000334303
-1.60887e-06
0.000335841
-1.53848e-06
0.000337308
-1.4668e-06
0.000338702
-1.39389e-06
0.000340022
-1.31979e-06
0.000341266
-1.24455e-06
0.000342435
-1.16823e-06
0.000343526
-1.09087e-06
0.000344538
-1.01254e-06
0.000345471
-9.3329e-07
0.000346325
-8.53191e-07
0.000347097
-7.72304e-07
0.000347788
-6.90698e-07
0.000348396
-6.08438e-07
0.000348922
-5.25597e-07
0.000349364
-4.42246e-07
0.000349722
-3.58457e-07
0.000349997
-2.74306e-07
0.000350186
-1.89866e-07
0.000350292
-1.05215e-07
0.000350312
-2.04275e-08
0.000350248
6.44186e-08
0.000350098
1.49247e-07
0.000349864
2.3398e-07
0.000349546
3.18542e-07
0.000349143
4.02858e-07
0.000348656
4.8685e-07
0.000348086
5.70447e-07
0.000347432
6.53574e-07
0.000346696
7.36159e-07
0.000345878
8.18133e-07
0.000344978
8.99426e-07
0.000343998
9.79973e-07
0.000342939
1.05971e-06
0.0003418
1.13857e-06
0.000340584
1.21649e-06
0.00033929
1.29342e-06
0.000337921
1.36931e-06
0.000336477
1.44409e-06
0.000334959
1.51772e-06
0.000333369
1.59016e-06
0.000331708
1.66135e-06
0.000329976
1.73126e-06
0.000328177
1.79984e-06
0.000326309
1.86707e-06
0.000324377
1.93291e-06
0.000322379
1.99733e-06
0.000320319
2.0603e-06
0.000318197
2.12181e-06
0.000316015
2.18182e-06
0.000313775
2.24033e-06
0.000311478
2.29732e-06
0.000309125
2.35277e-06
0.000306718
2.40668e-06
0.000304259
2.45905e-06
0.000301749
2.50986e-06
0.00029919
2.55912e-06
0.000296583
2.60683e-06
0.00029393
2.65299e-06
0.000291233
2.69762e-06
0.000288492
2.74071e-06
0.00028571
2.78228e-06
0.000282887
2.82233e-06
0.000280027
2.8609e-06
0.000277129
2.89799e-06
0.000274195
2.93362e-06
0.000271227
2.9678e-06
0.000268227
3.00057e-06
0.000265195
3.03194e-06
0.000262133
3.06194e-06
0.000259042
3.09059e-06
0.000255924
3.11791e-06
0.00025278
3.14394e-06
0.000249612
3.1687e-06
0.000246419
3.19223e-06
0.000243205
3.21454e-06
0.000239969
3.23567e-06
0.000236713
3.25566e-06
0.000233439
3.27452e-06
0.000230147
3.2923e-06
0.000226838
3.30902e-06
0.000223513
3.32472e-06
0.000220173
3.33942e-06
0.00021682
3.35317e-06
0.000213454
3.36598e-06
0.000210076
3.3779e-06
0.000206687
3.38896e-06
0.000203288
3.39918e-06
0.00019988
3.4086e-06
0.000196462
3.41724e-06
0.000193037
3.42515e-06
0.000189605
3.43236e-06
0.000186166
3.43888e-06
0.000182721
3.44475e-06
0.000179271
3.45001e-06
0.000175817
3.45467e-06
0.000172358
3.45878e-06
0.000168895
3.46235e-06
0.00016543
3.46542e-06
0.000161962
3.468e-06
0.000158492
3.47014e-06
0.00015502
3.47185e-06
0.000151547
3.47316e-06
0.000148073
3.4741e-06
0.000144598
3.47468e-06
0.000141123
3.47494e-06
0.000137648
3.47489e-06
0.000134174
3.47456e-06
0.0001307
3.47397e-06
0.000127227
3.47314e-06
0.000123755
3.47209e-06
0.000120284
3.47085e-06
0.000116814
3.46942e-06
0.000113346
3.46784e-06
0.00010988
3.46611e-06
0.000106416
3.46426e-06
0.000102954
3.4623e-06
9.94935e-05
3.46025e-06
9.60354e-05
3.45812e-06
9.25794e-05
3.45593e-06
8.91257e-05
3.4537e-06
8.56743e-05
3.45143e-06
8.22251e-05
3.44915e-06
7.87783e-05
3.44686e-06
7.53337e-05
3.44457e-06
7.18914e-05
3.4423e-06
6.84513e-05
3.44007e-06
6.50135e-05
3.43787e-06
6.15778e-05
3.43572e-06
5.81441e-05
3.43363e-06
5.47125e-05
3.43161e-06
5.12829e-05
3.42966e-06
4.78551e-05
3.4278e-06
4.4429e-05
3.42603e-06
4.10047e-05
3.42435e-06
3.75819e-05
3.42279e-06
3.41606e-05
3.42133e-06
3.07406e-05
3.41999e-06
2.73218e-05
3.41876e-06
2.39042e-05
3.41767e-06
2.04875e-05
3.4167e-06
1.70716e-05
3.41587e-06
1.36564e-05
3.41516e-06
1.02418e-05
3.4146e-06
6.82765e-06
3.41418e-06
3.41376e-06
3.4139e-06
3.41376e-06
3.25068e-06
-6.50151e-06
6.50152e-06
-6.50182e-06
9.75267e-06
-6.50244e-06
1.30043e-05
-6.50337e-06
1.62565e-05
-6.5046e-06
1.95095e-05
-6.50613e-06
2.27634e-05
-6.50797e-06
2.60184e-05
-6.5101e-06
2.92746e-05
-6.51251e-06
3.25321e-05
-6.51522e-06
3.57912e-05
-6.5182e-06
3.90518e-05
-6.52145e-06
4.23142e-05
-6.52496e-06
4.55785e-05
-6.52873e-06
4.88449e-05
-6.53275e-06
5.21133e-05
-6.537e-06
5.5384e-05
-6.54147e-06
5.8657e-05
-6.54615e-06
6.19325e-05
-6.55103e-06
6.52105e-05
-6.5561e-06
6.84911e-05
-6.56134e-06
7.17745e-05
-6.56673e-06
7.50606e-05
-6.57227e-06
7.83495e-05
-6.57792e-06
8.16413e-05
-6.58368e-06
8.49361e-05
-6.58953e-06
8.82338e-05
-6.59544e-06
9.15345e-05
-6.60139e-06
9.48382e-05
-6.60737e-06
9.81449e-05
-6.61334e-06
0.000101455
-6.6193e-06
0.000104767
-6.6252e-06
0.000108083
-6.63102e-06
0.000111401
-6.63675e-06
0.000114722
-6.64234e-06
0.000118046
-6.64776e-06
0.000121373
-6.653e-06
0.000124702
-6.65801e-06
0.000128033
-6.66276e-06
0.000131367
-6.66723e-06
0.000134703
-6.67136e-06
0.00013804
-6.67513e-06
0.00014138
-6.67849e-06
0.000144721
-6.68141e-06
0.000148063
-6.68385e-06
0.000151406
-6.68576e-06
0.000154749
-6.6871e-06
0.000158094
-6.68783e-06
0.000161438
-6.6879e-06
0.000164781
-6.68726e-06
0.000168125
-6.68586e-06
0.000171467
-6.68366e-06
0.000174807
-6.6806e-06
0.000178146
-6.67663e-06
0.000181482
-6.67169e-06
0.000184815
-6.66574e-06
0.000188145
-6.6587e-06
0.00019147
-6.65054e-06
0.000194791
-6.64118e-06
0.000198107
-6.63058e-06
0.000201416
-6.61866e-06
0.000204719
-6.60536e-06
0.000208015
-6.59064e-06
0.000211303
-6.57441e-06
0.000214581
-6.55662e-06
0.00021785
-6.5372e-06
0.000221109
-6.51609e-06
0.000224356
-6.49322e-06
0.000227591
-6.46853e-06
0.000230812
-6.44195e-06
0.000234019
-6.41341e-06
0.000237211
-6.38285e-06
0.000240387
-6.3502e-06
0.000243545
-6.31539e-06
0.000246685
-6.27837e-06
0.000249805
-6.23906e-06
0.000252904
-6.1974e-06
0.000255982
-6.15333e-06
0.000259036
-6.10678e-06
0.000262065
-6.0577e-06
0.000265069
-6.00603e-06
0.000268045
-5.95171e-06
0.000270993
-5.89469e-06
0.000273912
-5.8349e-06
0.000276798
-5.77231e-06
0.000279653
-5.70686e-06
0.000282473
-5.6385e-06
0.000285257
-5.5672e-06
0.000288004
-5.49292e-06
0.000290713
-5.41561e-06
0.000293381
-5.33525e-06
0.000296008
-5.25181e-06
0.000298591
-5.16526e-06
0.00030113
-5.07559e-06
0.000303622
-4.98278e-06
0.000306066
-4.88682e-06
0.000308461
-4.78769e-06
0.000310804
-4.68541e-06
0.000313095
-4.57998e-06
0.000315332
-4.4714e-06
0.000317512
-4.3597e-06
0.000319635
-4.24489e-06
0.0003217
-4.12699e-06
0.000323703
-4.00606e-06
0.000325645
-3.88211e-06
0.000327524
-3.7552e-06
0.000329337
-3.62538e-06
0.000331084
-3.49271e-06
0.000332763
-3.35724e-06
0.000334374
-3.21906e-06
0.000335913
-3.07823e-06
0.000337381
-2.93484e-06
0.000338776
-2.78897e-06
0.000340097
-2.64072e-06
0.000341343
-2.49019e-06
0.000342512
-2.33748e-06
0.000343604
-2.18271e-06
0.000344617
-2.02598e-06
0.000345552
-1.86743e-06
0.000346406
-1.70716e-06
0.000347179
-1.54533e-06
0.00034787
-1.38204e-06
0.000348479
-1.21745e-06
0.000349005
-1.0517e-06
0.000349448
-8.84924e-07
0.000349807
-7.17273e-07
0.000350081
-5.48895e-07
0.000350271
-3.7994e-07
0.000350377
-2.1056e-07
0.000350397
-4.0909e-08
0.000350333
1.2886e-07
0.000350183
2.98593e-07
0.000349949
4.68136e-07
0.00034963
6.37337e-07
0.000349227
8.06042e-07
0.00034874
9.74102e-07
0.000348169
1.14137e-06
0.000347515
1.30769e-06
0.000346778
1.47294e-06
0.000345959
1.63695e-06
0.000345059
1.7996e-06
0.000344078
1.96076e-06
0.000343018
2.12029e-06
0.000341878
2.27807e-06
0.000340661
2.43398e-06
0.000339366
2.5879e-06
0.000337996
2.73972e-06
0.000336551
2.88934e-06
0.000335032
3.03665e-06
0.00033344
3.18156e-06
0.000331778
3.32399e-06
0.000330045
3.46384e-06
0.000328244
3.60105e-06
0.000326375
3.73554e-06
0.000324441
3.86725e-06
0.000322442
3.99611e-06
0.00032038
4.12208e-06
0.000318257
4.24511e-06
0.000316074
4.36516e-06
0.000313832
4.48219e-06
0.000311533
4.59617e-06
0.000309179
4.70709e-06
0.000306771
4.81492e-06
0.00030431
4.91965e-06
0.000301799
5.02128e-06
0.000299238
5.1198e-06
0.000296629
5.21521e-06
0.000293975
5.30753e-06
0.000291276
5.39677e-06
0.000288534
5.48294e-06
0.00028575
5.56606e-06
0.000282926
5.64617e-06
0.000280064
5.72328e-06
0.000277164
5.79744e-06
0.000274229
5.86867e-06
0.00027126
5.93703e-06
0.000268258
6.00254e-06
0.000265225
6.06526e-06
0.000262161
6.12522e-06
0.000259069
6.1825e-06
0.00025595
6.23712e-06
0.000252805
6.28915e-06
0.000249635
6.33865e-06
0.000246442
6.38567e-06
0.000243226
6.43026e-06
0.000239989
6.4725e-06
0.000236732
6.51244e-06
0.000233457
6.55014e-06
0.000230163
6.58566e-06
0.000226853
6.61907e-06
0.000223527
6.65043e-06
0.000220187
6.67981e-06
0.000216833
6.70727e-06
0.000213466
6.73286e-06
0.000210087
6.75667e-06
0.000206698
6.77875e-06
0.000203298
6.79916e-06
0.000199888
6.81796e-06
0.00019647
6.83523e-06
0.000193044
6.85102e-06
0.000189611
6.86539e-06
0.000186172
6.8784e-06
0.000182726
6.89012e-06
0.000179276
6.9006e-06
0.000175821
6.90991e-06
0.000172361
6.91809e-06
0.000168898
6.9252e-06
0.000165433
6.93131e-06
0.000161964
6.93646e-06
0.000158493
6.94071e-06
0.000155021
6.9441e-06
0.000151548
6.9467e-06
0.000148073
6.94855e-06
0.000144598
6.94969e-06
0.000141123
6.95018e-06
0.000137648
6.95006e-06
0.000134173
6.94938e-06
0.000130699
6.94818e-06
0.000127225
6.9465e-06
0.000123753
6.94438e-06
0.000120282
6.94187e-06
0.000116813
6.93901e-06
0.000113345
6.93582e-06
0.000109878
6.93234e-06
0.000106414
6.92862e-06
0.000102952
6.92469e-06
9.94913e-05
6.92057e-06
9.60331e-05
6.9163e-06
9.25771e-05
6.91191e-06
8.91234e-05
6.90743e-06
8.56719e-05
6.90288e-06
8.22228e-05
6.8983e-06
7.87759e-05
6.8937e-06
7.53314e-05
6.88912e-06
7.18891e-05
6.88458e-06
6.84491e-05
6.88009e-06
6.50113e-05
6.87568e-06
6.15756e-05
6.87138e-06
5.81421e-05
6.86719e-06
5.47105e-05
6.86313e-06
5.1281e-05
6.85923e-06
4.78533e-05
6.8555e-06
4.44273e-05
6.85195e-06
4.10031e-05
6.8486e-06
3.75804e-05
6.84546e-06
3.41592e-05
6.84254e-06
3.07393e-05
6.83985e-06
2.73207e-05
6.8374e-06
2.39032e-05
6.83521e-06
2.04866e-05
6.83327e-06
1.70709e-05
6.83159e-06
1.36559e-05
6.83019e-06
1.02414e-05
6.82906e-06
6.82737e-06
6.82821e-06
3.41361e-06
6.82765e-06
6.82737e-06
3.25037e-06
-9.75188e-06
6.50089e-06
-9.75235e-06
9.75173e-06
-9.75328e-06
1.3003e-05
-9.75467e-06
1.6255e-05
-9.75652e-06
1.95076e-05
-9.75883e-06
2.27613e-05
-9.76158e-06
2.60159e-05
-9.76478e-06
2.92718e-05
-9.76842e-06
3.25291e-05
-9.77248e-06
3.57879e-05
-9.77696e-06
3.90483e-05
-9.78185e-06
4.23104e-05
-9.78713e-06
4.55745e-05
-9.7928e-06
4.88406e-05
-9.79883e-06
5.21088e-05
-9.80521e-06
5.53793e-05
-9.81194e-06
5.86521e-05
-9.81898e-06
6.19274e-05
-9.82632e-06
6.52052e-05
-9.83394e-06
6.84857e-05
-9.84181e-06
7.17689e-05
-9.84993e-06
7.50549e-05
-9.85825e-06
7.83437e-05
-9.86675e-06
8.16354e-05
-9.87542e-06
8.49301e-05
-9.88421e-06
8.82278e-05
-9.8931e-06
9.15284e-05
-9.90206e-06
9.48321e-05
-9.91105e-06
9.81388e-05
-9.92005e-06
0.000101449
-9.92901e-06
0.000104761
-9.93789e-06
0.000108077
-9.94666e-06
0.000111395
-9.95528e-06
0.000114717
-9.96371e-06
0.000118041
-9.97189e-06
0.000121368
-9.97978e-06
0.000124697
-9.98734e-06
0.000128029
-9.99451e-06
0.000131363
-1.00012e-05
0.000134699
-1.00075e-05
0.000138037
-1.00132e-05
0.000141377
-1.00183e-05
0.000144718
-1.00227e-05
0.000148061
-1.00264e-05
0.000151404
-1.00294e-05
0.000154749
-1.00314e-05
0.000158093
-1.00326e-05
0.000161438
-1.00327e-05
0.000164783
-1.00318e-05
0.000168127
-1.00298e-05
0.00017147
-1.00266e-05
0.000174811
-1.0022e-05
0.000178151
-1.00161e-05
0.000181488
-1.00088e-05
0.000184822
-9.99995e-06
0.000188153
-9.98947e-06
0.000191479
-9.9773e-06
0.000194802
-9.96334e-06
0.000198118
-9.9475e-06
0.00020143
-9.9297e-06
0.000204734
-9.90984e-06
0.000208031
-9.88783e-06
0.00021132
-9.86357e-06
0.000214601
-9.83696e-06
0.000217871
-9.80792e-06
0.000221132
-9.77633e-06
0.000224381
-9.74211e-06
0.000227617
-9.70516e-06
0.000230841
-9.66537e-06
0.00023405
-9.62264e-06
0.000237244
-9.57688e-06
0.000240422
-9.52799e-06
0.000243582
-9.47586e-06
0.000246724
-9.4204e-06
0.000249847
-9.36152e-06
0.000252948
-9.29911e-06
0.000256028
-9.23308e-06
0.000259085
-9.16334e-06
0.000262117
-9.0898e-06
0.000265123
-9.01236e-06
0.000268102
-8.93095e-06
0.000271053
-8.84548e-06
0.000273974
-8.75587e-06
0.000276864
-8.66204e-06
0.000279721
-8.56392e-06
0.000282544
-8.46144e-06
0.000285331
-8.35454e-06
0.000288081
-8.24315e-06
0.000290793
-8.12723e-06
0.000293464
-8.00673e-06
0.000296094
-7.8816e-06
0.000298681
-7.7518e-06
0.000301223
-7.61732e-06
0.000303718
-7.47811e-06
0.000306165
-7.33417e-06
0.000308563
-7.18549e-06
0.00031091
-7.03206e-06
0.000313204
-6.8739e-06
0.000315443
-6.71101e-06
0.000317627
-6.54343e-06
0.000319753
-6.37118e-06
0.000321821
-6.1943e-06
0.000323827
-6.01284e-06
0.000325772
-5.82687e-06
0.000327653
-5.63644e-06
0.00032947
-5.44164e-06
0.000331219
-5.24255e-06
0.000332901
-5.03926e-06
0.000334514
-4.83189e-06
0.000336057
-4.62055e-06
0.000337527
-4.40535e-06
0.000338925
-4.18643e-06
0.000340248
-3.96393e-06
0.000341496
-3.73801e-06
0.000342667
-3.50881e-06
0.000343761
-3.2765e-06
0.000344776
-3.04126e-06
0.000345712
-2.80327e-06
0.000346567
-2.56272e-06
0.000347342
-2.31979e-06
0.000348034
-2.0747e-06
0.000348645
-1.82764e-06
0.000349172
-1.57883e-06
0.000349615
-1.32848e-06
0.000349975
-1.07682e-06
0.00035025
-8.24063e-07
0.000350441
-5.7044e-07
0.000350546
-3.1618e-07
0.000350567
-6.15109e-08
0.000350502
1.93335e-07
0.000350353
4.48126e-07
0.000350118
7.02633e-07
0.000349799
9.56623e-07
0.000349395
1.20987e-06
0.000348907
1.46215e-06
0.000348335
1.71323e-06
0.00034768
1.9629e-06
0.000346942
2.21093e-06
0.000346122
2.45713e-06
0.00034522
2.70128e-06
0.000344238
2.94317e-06
0.000343175
3.18263e-06
0.000342034
3.41945e-06
0.000340815
3.65346e-06
0.000339518
3.88447e-06
0.000338145
4.11234e-06
0.000336698
4.33689e-06
0.000335177
4.55797e-06
0.000333583
4.77545e-06
0.000331917
4.98919e-06
0.000330182
5.19907e-06
0.000328378
5.40497e-06
0.000326507
5.60679e-06
0.00032457
5.80442e-06
0.000322568
5.99778e-06
0.000320503
6.1868e-06
0.000318377
6.37139e-06
0.000316191
6.55151e-06
0.000313946
6.72709e-06
0.000311644
6.8981e-06
0.000309287
7.06449e-06
0.000306875
7.22625e-06
0.000304412
7.38336e-06
0.000301897
7.5358e-06
0.000299333
7.68358e-06
0.000296722
7.82669e-06
0.000294064
7.96515e-06
0.000291362
8.09898e-06
0.000288617
8.22821e-06
0.00028583
8.35287e-06
0.000283003
8.47299e-06
0.000280138
8.58862e-06
0.000277235
8.69981e-06
0.000274297
8.80661e-06
0.000271325
8.90909e-06
0.000268321
9.0073e-06
0.000265285
9.10132e-06
0.000262219
9.19121e-06
0.000259124
9.27705e-06
0.000256002
9.35892e-06
0.000252854
9.4369e-06
0.000249682
9.51107e-06
0.000246486
9.58153e-06
0.000243268
9.64835e-06
0.000240029
9.71163e-06
0.00023677
9.77145e-06
0.000233492
9.82792e-06
0.000230197
9.88113e-06
0.000226885
9.93117e-06
0.000223557
9.97813e-06
0.000220215
1.00221e-05
0.000216859
1.00632e-05
0.00021349
1.01015e-05
0.000210109
1.01372e-05
0.000206718
1.01702e-05
0.000203316
1.02007e-05
0.000199906
1.02289e-05
0.000196486
1.02547e-05
0.000193059
1.02783e-05
0.000189624
1.02998e-05
0.000186184
1.03192e-05
0.000182737
1.03367e-05
0.000179285
1.03524e-05
0.000175829
1.03663e-05
0.000172368
1.03785e-05
0.000168905
1.03891e-05
0.000165438
1.03982e-05
0.000161968
1.04058e-05
0.000158497
1.04121e-05
0.000155024
1.04172e-05
0.00015155
1.0421e-05
0.000148074
1.04237e-05
0.000144599
1.04254e-05
0.000141123
1.0426e-05
0.000137647
1.04258e-05
0.000134172
1.04247e-05
0.000130697
1.04229e-05
0.000127223
1.04203e-05
0.000123751
1.04171e-05
0.000120279
1.04133e-05
0.000116809
1.04089e-05
0.000113341
1.04041e-05
0.000109875
1.03988e-05
0.00010641
1.03932e-05
0.000102948
1.03873e-05
9.9487e-05
1.0381e-05
9.60287e-05
1.03746e-05
9.25727e-05
1.0368e-05
8.91189e-05
1.03612e-05
8.56674e-05
1.03544e-05
8.22182e-05
1.03475e-05
7.87714e-05
1.03405e-05
7.53269e-05
1.03336e-05
7.18847e-05
1.03268e-05
6.84447e-05
1.032e-05
6.5007e-05
1.03134e-05
6.15715e-05
1.03069e-05
5.8138e-05
1.03006e-05
5.47067e-05
1.02945e-05
5.12772e-05
1.02886e-05
4.78497e-05
1.0283e-05
4.4424e-05
1.02777e-05
4.1e-05
1.02726e-05
3.75775e-05
1.02679e-05
3.41565e-05
1.02635e-05
3.07369e-05
1.02595e-05
2.73185e-05
1.02558e-05
2.39012e-05
1.02525e-05
2.04849e-05
1.02496e-05
1.70695e-05
1.02471e-05
1.36547e-05
1.02449e-05
1.02406e-05
1.02432e-05
6.8268e-06
1.0242e-05
3.41333e-06
1.02411e-05
1.02407e-05
3.2499e-06
-1.30018e-05
6.49996e-06
-1.30024e-05
9.75033e-06
-1.30036e-05
1.30012e-05
-1.30055e-05
1.62526e-05
-1.3008e-05
1.95049e-05
-1.30111e-05
2.2758e-05
-1.30147e-05
2.60123e-05
-1.3019e-05
2.92678e-05
-1.30239e-05
3.25246e-05
-1.30293e-05
3.57829e-05
-1.30353e-05
3.90429e-05
-1.30418e-05
4.23047e-05
-1.30489e-05
4.55684e-05
-1.30565e-05
4.88341e-05
-1.30646e-05
5.2102e-05
-1.30731e-05
5.53722e-05
-1.30821e-05
5.86447e-05
-1.30915e-05
6.19197e-05
-1.31013e-05
6.51973e-05
-1.31115e-05
6.84775e-05
-1.31221e-05
7.17605e-05
-1.31329e-05
7.50463e-05
-1.3144e-05
7.83349e-05
-1.31554e-05
8.16265e-05
-1.3167e-05
8.49211e-05
-1.31788e-05
8.82187e-05
-1.31907e-05
9.15193e-05
-1.32027e-05
9.4823e-05
-1.32147e-05
9.81298e-05
-1.32268e-05
0.00010144
-1.32388e-05
0.000104752
-1.32507e-05
0.000108068
-1.32625e-05
0.000111387
-1.3274e-05
0.000114708
-1.32853e-05
0.000118033
-1.32963e-05
0.00012136
-1.33069e-05
0.00012469
-1.3317e-05
0.000128022
-1.33267e-05
0.000131356
-1.33358e-05
0.000134693
-1.33442e-05
0.000138032
-1.33519e-05
0.000141372
-1.33587e-05
0.000144714
-1.33648e-05
0.000148058
-1.33698e-05
0.000151402
-1.33738e-05
0.000154747
-1.33767e-05
0.000158093
-1.33783e-05
0.000161439
-1.33786e-05
0.000164785
-1.33775e-05
0.00016813
-1.3375e-05
0.000171474
-1.33708e-05
0.000174817
-1.33648e-05
0.000178158
-1.33571e-05
0.000181496
-1.33475e-05
0.000184832
-1.33358e-05
0.000188165
-1.33219e-05
0.000191493
-1.33058e-05
0.000194817
-1.32874e-05
0.000198136
-1.32664e-05
0.000201449
-1.32428e-05
0.000204756
-1.32165e-05
0.000208055
-1.31873e-05
0.000211347
-1.31551e-05
0.00021463
-1.31197e-05
0.000217903
-1.30812e-05
0.000221166
-1.30392e-05
0.000224417
-1.29937e-05
0.000227657
-1.29446e-05
0.000230883
-1.28917e-05
0.000234095
-1.28349e-05
0.000237293
-1.2774e-05
0.000240474
-1.2709e-05
0.000243637
-1.26397e-05
0.000246783
-1.25659e-05
0.000249909
-1.24875e-05
0.000253014
-1.24044e-05
0.000256098
-1.23165e-05
0.000259158
-1.22237e-05
0.000262194
-1.21258e-05
0.000265204
-1.20227e-05
0.000268188
-1.19143e-05
0.000271143
-1.18004e-05
0.000274068
-1.1681e-05
0.000276962
-1.15561e-05
0.000279823
-1.14253e-05
0.000282651
-1.12888e-05
0.000285442
-1.11464e-05
0.000288197
-1.09979e-05
0.000290913
-1.08434e-05
0.000293589
-1.06828e-05
0.000296224
-1.05161e-05
0.000298815
-1.0343e-05
0.000301362
-1.01638e-05
0.000303862
-9.97817e-06
0.000306314
-9.78627e-06
0.000308716
-9.58803e-06
0.000311068
-9.38345e-06
0.000313366
-9.17254e-06
0.000315611
-8.95533e-06
0.000317799
-8.73183e-06
0.00031993
-8.5021e-06
0.000322002
-8.26618e-06
0.000324013
-8.02415e-06
0.000325962
-7.77608e-06
0.000327848
-7.52206e-06
0.000329668
-7.26219e-06
0.000331423
-6.99658e-06
0.000333109
-6.72538e-06
0.000334725
-6.4487e-06
0.000336272
-6.16672e-06
0.000337746
-5.87958e-06
0.000339147
-5.58747e-06
0.000340474
-5.29058e-06
0.000341725
-4.9891e-06
0.000342899
-4.68324e-06
0.000343996
-4.37323e-06
0.000345014
-4.0593e-06
0.000345952
-3.74169e-06
0.00034681
-3.42064e-06
0.000347587
-3.09643e-06
0.000348281
-2.76932e-06
0.000348893
-2.43958e-06
0.000349422
-2.10749e-06
0.000349867
-1.77336e-06
0.000350228
-1.43746e-06
0.000350504
-1.1001e-06
0.000350695
-7.61583e-07
0.000350801
-4.22211e-07
0.000350822
-8.22936e-08
0.000350757
2.5786e-07
0.000350607
5.97942e-07
0.000350372
9.37641e-07
0.000350052
1.27665e-06
0.000349647
1.61466e-06
0.000349158
1.95138e-06
0.000348585
2.2865e-06
0.000347928
2.61972e-06
0.000347188
2.95077e-06
0.000346366
3.27935e-06
0.000345462
3.6052e-06
0.000344477
3.92803e-06
0.000343412
4.24759e-06
0.000342268
4.56364e-06
0.000341046
4.87592e-06
0.000339746
5.1842e-06
0.00033837
5.48826e-06
0.000336919
5.7879e-06
0.000335394
6.0829e-06
0.000333796
6.37308e-06
0.000332127
6.65826e-06
0.000330388
6.93828e-06
0.00032858
7.21298e-06
0.000326705
7.48221e-06
0.000324763
7.74586e-06
0.000322757
8.0038e-06
0.000320688
8.25593e-06
0.000318557
8.50215e-06
0.000316366
8.74238e-06
0.000314117
8.97656e-06
0.00031181
9.20462e-06
0.000309448
9.42653e-06
0.000307032
9.64224e-06
0.000304564
9.85173e-06
0.000302045
1.0055e-05
0.000299476
1.0252e-05
0.00029686
1.04428e-05
0.000294198
1.06274e-05
0.000291491
1.08058e-05
0.000288741
1.09781e-05
0.00028595
1.11442e-05
0.000283119
1.13043e-05
0.000280249
1.14584e-05
0.000277342
1.16066e-05
0.0002744
1.17489e-05
0.000271424
1.18854e-05
0.000268415
1.20163e-05
0.000265374
1.21415e-05
0.000262304
1.22612e-05
0.000259206
1.23756e-05
0.00025608
1.24846e-05
0.000252929
1.25885e-05
0.000249753
1.26872e-05
0.000246553
1.2781e-05
0.000243331
1.287e-05
0.000240089
1.29542e-05
0.000236826
1.30338e-05
0.000233545
1.3109e-05
0.000230247
1.31798e-05
0.000226932
1.32463e-05
0.000223601
1.33088e-05
0.000220256
1.33673e-05
0.000216897
1.3422e-05
0.000213526
1.34729e-05
0.000210143
1.35203e-05
0.000206749
1.35642e-05
0.000203345
1.36047e-05
0.000199931
1.36421e-05
0.00019651
1.36764e-05
0.00019308
1.37077e-05
0.000189644
1.37362e-05
0.000186201
1.3762e-05
0.000182753
1.37852e-05
0.000179299
1.38059e-05
0.000175841
1.38243e-05
0.000172379
1.38404e-05
0.000168914
1.38544e-05
0.000165445
1.38664e-05
0.000161975
1.38765e-05
0.000158502
1.38848e-05
0.000155028
1.38914e-05
0.000151552
1.38964e-05
0.000148076
1.38999e-05
0.0001446
1.3902e-05
0.000141123
1.39028e-05
0.000137646
1.39024e-05
0.00013417
1.39008e-05
0.000130695
1.38983e-05
0.00012722
1.38947e-05
0.000123747
1.38904e-05
0.000120275
1.38852e-05
0.000116805
1.38793e-05
0.000113336
1.38728e-05
0.000109869
1.38657e-05
0.000106404
1.38581e-05
0.000102941
1.38501e-05
9.94806e-05
1.38417e-05
9.60222e-05
1.38331e-05
9.2566e-05
1.38242e-05
8.91121e-05
1.38151e-05
8.56605e-05
1.38059e-05
8.22113e-05
1.37966e-05
7.87645e-05
1.37874e-05
7.53201e-05
1.37781e-05
7.18779e-05
1.37689e-05
6.84381e-05
1.37599e-05
6.50005e-05
1.3751e-05
6.15652e-05
1.37423e-05
5.8132e-05
1.37338e-05
5.47008e-05
1.37257e-05
5.12717e-05
1.37178e-05
4.78444e-05
1.37103e-05
4.4419e-05
1.37031e-05
4.09953e-05
1.36964e-05
3.75731e-05
1.369e-05
3.41525e-05
1.36841e-05
3.07332e-05
1.36787e-05
2.73152e-05
1.36738e-05
2.38983e-05
1.36694e-05
2.04824e-05
1.36655e-05
1.70674e-05
1.36621e-05
1.3653e-05
1.36593e-05
1.02393e-05
1.3657e-05
6.82595e-06
1.36553e-05
3.4129e-06
1.36542e-05
1.36536e-05
3.24927e-06
-1.62511e-05
6.4987e-06
-1.62518e-05
9.74845e-06
-1.62534e-05
1.29987e-05
-1.62557e-05
1.62495e-05
-1.62588e-05
1.95012e-05
-1.62627e-05
2.27537e-05
-1.62673e-05
2.60074e-05
-1.62727e-05
2.92623e-05
-1.62788e-05
3.25186e-05
-1.62856e-05
3.57764e-05
-1.62931e-05
3.90358e-05
-1.63013e-05
4.22971e-05
-1.63102e-05
4.55603e-05
-1.63197e-05
4.88255e-05
-1.63298e-05
5.2093e-05
-1.63405e-05
5.53627e-05
-1.63518e-05
5.86348e-05
-1.63636e-05
6.19094e-05
-1.63759e-05
6.51866e-05
-1.63887e-05
6.84666e-05
-1.6402e-05
7.17493e-05
-1.64156e-05
7.50348e-05
-1.64296e-05
7.83232e-05
-1.64439e-05
8.16147e-05
-1.64584e-05
8.49091e-05
-1.64732e-05
8.82066e-05
-1.64882e-05
9.15072e-05
-1.65033e-05
9.48109e-05
-1.65184e-05
9.81176e-05
-1.65336e-05
0.000101428
-1.65487e-05
0.00010474
-1.65636e-05
0.000108056
-1.65784e-05
0.000111375
-1.6593e-05
0.000114697
-1.66072e-05
0.000118022
-1.66211e-05
0.00012135
-1.66344e-05
0.00012468
-1.66473e-05
0.000128013
-1.66595e-05
0.000131348
-1.66709e-05
0.000134685
-1.66816e-05
0.000138025
-1.66913e-05
0.000141366
-1.67001e-05
0.000144709
-1.67077e-05
0.000148053
-1.67142e-05
0.000151399
-1.67194e-05
0.000154745
-1.67231e-05
0.000158093
-1.67253e-05
0.00016144
-1.67259e-05
0.000164787
-1.67248e-05
0.000168134
-1.67217e-05
0.00017148
-1.67166e-05
0.000174824
-1.67095e-05
0.000178167
-1.67e-05
0.000181508
-1.66881e-05
0.000184846
-1.66737e-05
0.000188181
-1.66567e-05
0.000191511
-1.66368e-05
0.000194838
-1.66139e-05
0.00019816
-1.65879e-05
0.000201475
-1.65586e-05
0.000204785
-1.6526e-05
0.000208087
-1.64897e-05
0.000211382
-1.64497e-05
0.000214668
-1.64058e-05
0.000217945
-1.63578e-05
0.000221211
-1.63056e-05
0.000224466
-1.6249e-05
0.000227709
-1.61879e-05
0.00023094
-1.6122e-05
0.000234156
-1.60512e-05
0.000237357
-1.59754e-05
0.000240543
-1.58943e-05
0.000243711
-1.58079e-05
0.000246861
-1.57159e-05
0.000249992
-1.56182e-05
0.000253102
-1.55146e-05
0.00025619
-1.5405e-05
0.000259256
-1.52891e-05
0.000262297
-1.5167e-05
0.000265313
-1.50383e-05
0.000268301
-1.4903e-05
0.000271262
-1.47609e-05
0.000274193
-1.46119e-05
0.000277092
-1.44558e-05
0.000279959
-1.42926e-05
0.000282793
-1.41221e-05
0.000285591
-1.39442e-05
0.000288351
-1.37588e-05
0.000291074
-1.35658e-05
0.000293756
-1.33651e-05
0.000296397
-1.31567e-05
0.000298994
-1.29405e-05
0.000301547
-1.27165e-05
0.000304053
-1.24846e-05
0.000306512
-1.22447e-05
0.000308921
-1.19969e-05
0.000311278
-1.17412e-05
0.000313583
-1.14775e-05
0.000315834
-1.12059e-05
0.000318029
-1.09265e-05
0.000320166
-1.06392e-05
0.000322244
-1.03442e-05
0.000324261
-1.00415e-05
0.000326216
-9.73124e-06
0.000328108
-9.41352e-06
0.000329934
-9.08847e-06
0.000331694
-8.75623e-06
0.000333385
-8.41696e-06
0.000335007
-8.07083e-06
0.000336559
-7.71804e-06
0.000338038
-7.35879e-06
0.000339444
-6.99331e-06
0.000340775
-6.62181e-06
0.00034203
-6.24457e-06
0.000343209
-5.86183e-06
0.00034431
-5.47389e-06
0.000345331
-5.08102e-06
0.000346273
-4.68353e-06
0.000347134
-4.28174e-06
0.000347914
-3.87598e-06
0.000348611
-3.46657e-06
0.000349225
-3.05386e-06
0.000349756
-2.63822e-06
0.000350203
-2.22e-06
0.000350565
-1.79957e-06
0.000350842
-1.3773e-06
0.000351034
-9.53582e-07
0.000351141
-5.28792e-07
0.000351162
-1.03317e-07
0.000351097
3.22455e-07
0.000350947
7.48135e-07
0.000350711
1.17334e-06
0.00035039
1.59767e-06
0.000349984
2.02075e-06
0.000349493
2.44221e-06
0.000348918
2.86166e-06
0.000348259
3.27873e-06
0.000347517
3.69307e-06
0.000346692
4.10431e-06
0.000345785
4.51212e-06
0.000344797
4.91615e-06
0.000343728
5.31608e-06
0.00034258
5.71158e-06
0.000341354
6.10237e-06
0.00034005
6.48814e-06
0.00033867
6.86862e-06
0.000337214
7.24353e-06
0.000335684
7.61264e-06
0.000334082
7.9757e-06
0.000332407
8.33249e-06
0.000330663
8.6828e-06
0.000328849
9.02644e-06
0.000326968
9.36323e-06
0.000325021
9.69301e-06
0.000323009
1.00156e-05
0.000320934
1.0331e-05
0.000318798
1.06389e-05
0.000316601
1.09393e-05
0.000314345
1.12321e-05
0.000312032
1.15173e-05
0.000309664
1.17948e-05
0.000307242
1.20644e-05
0.000304767
1.23263e-05
0.000302242
1.25804e-05
0.000299667
1.28267e-05
0.000297045
1.30651e-05
0.000294377
1.32958e-05
0.000291664
1.35188e-05
0.000288908
1.3734e-05
0.00028611
1.39416e-05
0.000283273
1.41416e-05
0.000280397
1.43341e-05
0.000277485
1.45192e-05
0.000274537
1.46969e-05
0.000271555