/*--------------------------------*- C++ -*----------------------------------*\
| =========                 |                                                 |
| \\      /  F ield         | OpenFOAM: The Open Source CFD Toolbox           |
|  \\    /   O peration     | Version:  v2012                                 |
|   \\  /    A nd           | Website:  www.openfoam.com                      |
|    \\/     M anipulation  |                                                 |
\*---------------------------------------------------------------------------*/
FoamFile
{
    version     2.0;
    format      ascii;
    class       volScalarField;
    location    "18.2";
    object      Psi_z;
}
// * * * * * * * * * * * * * * * * * * * * * * * * * * * * * * * * * * * * * //

dimensions      [0 2 -1 0 0 0 0];


internalField   nonuniform List<scalar> 
65536
(
8.11726e-06
2.43523e-05
4.05884e-05
5.68265e-05
7.30672e-05
8.93113e-05
0.00010556
0.000121813
0.000138071
0.000154336
0.000170609
0.000186888
0.000203176
0.000219473
0.00023578
0.000252097
0.000268424
0.000284763
0.000301113
0.000317476
0.000333852
0.00035024
0.000366642
0.000383058
0.000399488
0.000415932
0.00043239
0.000448863
0.000465351
0.000481853
0.00049837
0.000514902
0.000531448
0.000548008
0.000564582
0.000581169
0.00059777
0.000614383
0.000631008
0.000647644
0.000664291
0.000680947
0.000697612
0.000714284
0.000730963
0.000747648
0.000764336
0.000781026
0.000797717
0.000814407
0.000831095
0.000847778
0.000864454
0.000881121
0.000897777
0.00091442
0.000931046
0.000947653
0.000964238
0.000980798
0.00099733
0.00101383
0.0010303
0.00104672
0.00106311
0.00107945
0.00109573
0.00111197
0.00112814
0.00114425
0.00116029
0.00117626
0.00119215
0.00120796
0.00122367
0.0012393
0.00125482
0.00127023
0.00128553
0.00130072
0.00131578
0.0013307
0.00134549
0.00136014
0.00137463
0.00138896
0.00140313
0.00141712
0.00143093
0.00144456
0.00145799
0.00147121
0.00148423
0.00149702
0.00150959
0.00152193
0.00153402
0.00154586
0.00155744
0.00156876
0.00157981
0.00159057
0.00160104
0.00161122
0.00162109
0.00163065
0.0016399
0.00164881
0.00165739
0.00166563
0.00167353
0.00168107
0.00168825
0.00169507
0.00170151
0.00170758
0.00171326
0.00171855
0.00172346
0.00172796
0.00173207
0.00173577
0.00173906
0.00174194
0.0017444
0.00174645
0.00174808
0.00174929
0.00175007
0.00175044
0.00175038
0.00174989
0.00174899
0.00174766
0.0017459
0.00174373
0.00174114
0.00173813
0.00173471
0.00173087
0.00172663
0.00172198
0.00171694
0.00171149
0.00170565
0.00169943
0.00169282
0.00168583
0.00167848
0.00167075
0.00166267
0.00165423
0.00164545
0.00163633
0.00162687
0.00161708
0.00160698
0.00159656
0.00158584
0.00157482
0.00156352
0.00155192
0.00154006
0.00152793
0.00151554
0.00150289
0.00149001
0.00147688
0.00146353
0.00144996
0.00143618
0.00142219
0.001408
0.00139362
0.00137906
0.00136433
0.00134942
0.00133435
0.00131913
0.00130377
0.00128826
0.00127261
0.00125684
0.00124094
0.00122494
0.00120882
0.00119259
0.00117627
0.00115986
0.00114336
0.00112677
0.00111011
0.00109338
0.00107658
0.00105972
0.0010428
0.00102583
0.00100881
0.000991736
0.000974625
0.000957475
0.00094029
0.000923074
0.000905829
0.000888559
0.000871266
0.000853953
0.000836624
0.00081928
0.000801923
0.000784557
0.000767182
0.000749802
0.000732417
0.00071503
0.000697642
0.000680254
0.000662869
0.000645486
0.000628108
0.000610736
0.00059337
0.000576011
0.00055866
0.000541318
0.000523985
0.000506662
0.00048935
0.000472048
0.000454756
0.000437476
0.000420207
0.00040295
0.000385703
0.000368468
0.000351244
0.000334031
0.000316829
0.000299637
0.000282455
0.000265284
0.000248121
0.000230968
0.000213823
0.000196687
0.000179557
0.000162435
0.000145319
0.000128209
0.000111104
9.40033e-05
7.69066e-05
5.98129e-05
4.27218e-05
2.56324e-05
8.54401e-06
2.43516e-05
7.30559e-05
0.000121764
0.000170477
0.000219199
0.00026793
0.000316675
0.000365433
0.000414209
0.000463004
0.000511819
0.000560658
0.000609521
0.000658412
0.000707331
0.000756281
0.000805263
0.000854279
0.00090333
0.000952418
0.00100154
0.00105071
0.00109991
0.00114916
0.00119845
0.00124778
0.00129716
0.00134658
0.00139604
0.00144555
0.0014951
0.00154469
0.00159433
0.00164401
0.00169374
0.0017435
0.0017933
0.00184314
0.00189302
0.00194293
0.00199287
0.00204284
0.00209283
0.00214285
0.00219289
0.00224294
0.00229301
0.00234308
0.00239316
0.00244323
0.00249329
0.00254335
0.00259338
0.00264338
0.00269335
0.00274328
0.00279316
0.00284299
0.00289274
0.00294243
0.00299203
0.00304153
0.00309093
0.00314022
0.00318937
0.00323839
0.00328726
0.00333597
0.00338449
0.00343283
0.00348096
0.00352887
0.00357654
0.00362397
0.00367112
0.00371799
0.00376456
0.00381082
0.00385673
0.00390229
0.00394747
0.00399226
0.00403663
0.00408057
0.00412405
0.00416706
0.00420956
0.00425155
0.004293
0.00433388
0.00437417
0.00441385
0.0044529
0.0044913
0.00452901
0.00456602
0.00460231
0.00463784
0.0046726
0.00470656
0.0047397
0.004772
0.00480343
0.00483397
0.00486359
0.00489228
0.00492002
0.00494677
0.00497252
0.00499725
0.00502094
0.00504357
0.00506512
0.00508557
0.00510491
0.00512311
0.00514017
0.00515606
0.00517077
0.00518429
0.00519661
0.00520771
0.00521759
0.00522623
0.00523363
0.00523977
0.00524466
0.00524829
0.00525065
0.00525174
0.00525156
0.00525011
0.00524739
0.00524339
0.00523814
0.00523162
0.00522384
0.00521481
0.00520454
0.00519303
0.0051803
0.00516636
0.00515121
0.00513487
0.00511735
0.00509867
0.00507884
0.00505788
0.0050358
0.00501262
0.00498837
0.00496305
0.00493669
0.00490931
0.00488093
0.00485157
0.00482125
0.00479
0.00475783
0.00472476
0.00469083
0.00465605
0.00462044
0.00458404
0.00454686
0.00450892
0.00447025
0.00443088
0.00439082
0.00435009
0.00430873
0.00426676
0.00422419
0.00418105
0.00413736
0.00409314
0.00404842
0.00400322
0.00395755
0.00391143
0.0038649
0.00381796
0.00377064
0.00372295
0.00367491
0.00362655
0.00357787
0.00352891
0.00347966
0.00343015
0.0033804
0.00333041
0.00328021
0.00322981
0.00317922
0.00312846
0.00307754
0.00302646
0.00297525
0.00292391
0.00287246
0.0028209
0.00276925
0.00271751
0.0026657
0.00261382
0.00256188
0.00250988
0.00245785
0.00240578
0.00235368
0.00230155
0.00224941
0.00219725
0.00214509
0.00209292
0.00204076
0.0019886
0.00193645
0.00188432
0.0018322
0.0017801
0.00172802
0.00167597
0.00162394
0.00157194
0.00151998
0.00146804
0.00141613
0.00136426
0.00131242
0.00126061
0.00120884
0.0011571
0.00110539
0.00105372
0.00100208
0.000950475
0.0008989
0.000847355
0.000795841
0.000744354
0.000692895
0.000641461
0.000590051
0.000538664
0.000487298
0.000435951
0.000384621
0.000333307
0.000282006
0.000230716
0.000179436
0.000128163
7.6896e-05
2.56316e-05
4.05847e-05
0.000121756
0.000202933
0.00028412
0.00036532
0.000446537
0.000527775
0.000609037
0.000690327
0.000771649
0.000853006
0.000934402
0.00101584
0.00109732
0.00117885
0.00126043
0.00134207
0.00142376
0.00150551
0.00158732
0.0016692
0.00175114
0.00183315
0.00191522
0.00199737
0.00207959
0.00216188
0.00224425
0.00232669
0.0024092
0.00249178
0.00257444
0.00265717
0.00273998
0.00282285
0.00290579
0.00298879
0.00307186
0.00315499
0.00323817
0.00332141
0.0034047
0.00348803
0.0035714
0.0036548
0.00373823
0.00382167
0.00390513
0.0039886
0.00407206
0.00415551
0.00423893
0.00432232
0.00440567
0.00448896
0.00457219
0.00465533
0.00473838
0.00482132
0.00490414
0.00498682
0.00506934
0.00515168
0.00523384
0.00531578
0.00539749
0.00547895
0.00556014
0.00564103
0.00572161
0.00580184
0.00588171
0.00596119
0.00604024
0.00611885
0.00619699
0.00627463
0.00635173
0.00642828
0.00650423
0.00657955
0.00665422
0.0067282
0.00680145
0.00687395
0.00694565
0.00701652
0.00708652
0.00715562
0.00722378
0.00729096
0.00735713
0.00742224
0.00748625
0.00754914
0.00761085
0.00767135
0.0077306
0.00778856
0.00784519
0.00790045
0.0079543
0.00800671
0.00805763
0.00810703
0.00815487
0.00820112
0.00824573
0.00828867
0.00832991
0.00836942
0.00840716
0.00844309
0.0084772
0.00850944
0.0085398
0.00856824
0.00859474
0.00861928
0.00864183
0.00866237
0.00868089
0.00869736
0.00871177
0.0087241
0.00873436
0.00874251
0.00874856
0.00875249
0.00875431
0.00875401
0.00875159
0.00874705
0.0087404
0.00873163
0.00872076
0.00870779
0.00869273
0.00867561
0.00865642
0.00863519
0.00861193
0.00858667
0.00855942
0.00853021
0.00849905
0.00846599
0.00843103
0.00839422
0.00835557
0.00831513
0.00827291
0.00822896
0.0081833
0.00813598
0.00808702
0.00803646
0.00798434
0.0079307
0.00787557
0.00781899
0.00776099
0.00770163
0.00764093
0.00757893
0.00751568
0.00745121
0.00738555
0.00731876
0.00725087
0.00718191
0.00711192
0.00704095
0.00696903
0.00689619
0.00682247
0.00674791
0.00667254
0.0065964
0.00651953
0.00644195
0.00636369
0.0062848
0.0062053
0.00612522
0.00604459
0.00596345
0.00588182
0.00579972
0.00571719
0.00563425
0.00555093
0.00546725
0.00538323
0.0052989
0.00521428
0.00512939
0.00504425
0.00495889
0.00487331
0.00478755
0.0047016
0.00461551
0.00452927
0.0044429
0.00435642
0.00426985
0.00418319
0.00409646
0.00400966
0.00392282
0.00383594
0.00374903
0.00366209
0.00357515
0.0034882
0.00340126
0.00331432
0.00322741
0.00314051
0.00305364
0.00296681
0.00288001
0.00279325
0.00270654
0.00261987
0.00253326
0.00244669
0.00236018
0.00227372
0.00218732
0.00210098
0.00201469
0.00192846
0.00184228
0.00175616
0.0016701
0.00158409
0.00149813
0.00141223
0.00132637
0.00124056
0.0011548
0.00106907
0.000983394
0.000897751
0.000812142
0.000726566
0.000641018
0.000555496
0.000469997
0.000384517
0.000299052
0.0002136
0.000128156
4.27182e-05
5.68159e-05
0.000170451
0.000284093
0.000397749
0.000511424
0.000625123
0.00073885
0.000852613
0.000966414
0.00108026
0.00119415
0.0013081
0.00142211
0.00153618
0.00165032
0.00176453
0.00187882
0.00199318
0.00210763
0.00222216
0.00233678
0.0024515
0.00256631
0.00268121
0.00279622
0.00291133
0.00302653
0.00314184
0.00325726
0.00337277
0.00348839
0.00360412
0.00371994
0.00383587
0.00395189
0.00406801
0.00418422
0.00430052
0.00441691
0.00453337
0.00464991
0.00476652
0.00488319
0.00499991
0.00511668
0.00523349
0.00535033
0.00546718
0.00558404
0.0057009
0.00581774
0.00593455
0.00605131
0.00616802
0.00628464
0.00640118
0.0065176
0.00663389
0.00675002
0.00686599
0.00698176
0.00709731
0.00721262
0.00732767
0.00744241
0.00755684
0.00767091
0.00778461
0.00789789
0.00801073
0.00812309
0.00823494
0.00834624
0.00845696
0.00856706
0.00867649
0.00878522
0.00889321
0.00900042
0.00910679
0.00921229
0.00931688
0.00942049
0.0095231
0.00962464
0.00972507
0.00982434
0.00992239
0.0100192
0.0101147
0.0102088
0.0103015
0.0103927
0.0104823
0.0105704
0.0106569
0.0107416
0.0108246
0.0109058
0.0109852
0.0110626
0.011138
0.0112115
0.0112828
0.011352
0.0114191
0.0114838
0.0115464
0.0116065
0.0116643
0.0117197
0.0117725
0.0118229
0.0118707
0.0119159
0.0119584
0.0119983
0.0120354
0.0120698
0.0121014
0.0121302
0.0121561
0.0121792
0.0121994
0.0122167
0.012231
0.0122425
0.0122509
0.0122565
0.012259
0.0122586
0.0122552
0.0122488
0.0122395
0.0122272
0.012212
0.0121938
0.0121727
0.0121487
0.0121218
0.0120921
0.0120595
0.0120241
0.0119859
0.011945
0.0119014
0.011855
0.011806
0.0117545
0.0117003
0.0116437
0.0115845
0.0115229
0.011459
0.0113927
0.0113241
0.0112532
0.0111802
0.0111051
0.0110278
0.0109486
0.0108673
0.0107841
0.0106991
0.0106123
0.0105237
0.0104333
0.0103414
0.0102478
0.0101527
0.0100561
0.00995808
0.00985866
0.00975792
0.00965589
0.00955264
0.0094482
0.00934264
0.009236
0.00912832
0.00901966
0.00891006
0.00879957
0.00868823
0.00857607
0.00846316
0.00834952
0.00823519
0.00812022
0.00800464
0.00788849
0.0077718
0.00765462
0.00753696
0.00741887
0.00730037
0.00718149
0.00706228
0.00694274
0.00682291
0.00670281
0.00658247
0.00646191
0.00634115
0.00622022
0.00609913
0.00597791
0.00585657
0.00573512
0.0056136
0.005492
0.00537035
0.00524866
0.00512695
0.00500521
0.00488348
0.00476175
0.00464003
0.00451834
0.00439668
0.00427506
0.00415348
0.00403196
0.00391049
0.00378909
0.00366776
0.00354649
0.00342529
0.00330418
0.00318313
0.00306217
0.00294129
0.00282048
0.00269976
0.00257912
0.00245855
0.00233806
0.00221765
0.00209731
0.00197705
0.00185685
0.00173672
0.00161665
0.00149665
0.0013767
0.0012568
0.00113695
0.00101715
0.00089739
0.000777663
0.000657969
0.000538301
0.000418656
0.000299028
0.000179412
5.98031e-05
7.30444e-05
0.000219137
0.00036524
0.00051136
0.000657504
0.000803679
0.000949891
0.00109615
0.00124246
0.00138882
0.00153525
0.00168175
0.00182832
0.00197498
0.00212172
0.00226855
0.00241548
0.00256252
0.00270966
0.00285691
0.00300428
0.00315176
0.00329937
0.0034471
0.00359497
0.00374296
0.00389108
0.00403933
0.00418772
0.00433625
0.0044849
0.00463369
0.00478261
0.00493166
0.00508084
0.00523014
0.00537956
0.00552909
0.00567874
0.00582849
0.00597834
0.00612827
0.00627829
0.00642837
0.00657852
0.00672872
0.00687896
0.00702922
0.00717949
0.00732976
0.00748
0.00763021
0.00778036
0.00793044
0.00808042
0.00823028
0.00837999
0.00852954
0.0086789
0.00882803
0.00897692
0.00912553
0.00927383
0.00942179
0.00956937
0.00971654
0.00986325
0.0100095
0.0101552
0.0103003
0.0104449
0.0105887
0.0107319
0.0108743
0.0110159
0.0111567
0.0112966
0.0114355
0.0115734
0.0117102
0.011846
0.0119805
0.0121138
0.0122458
0.0123764
0.0125056
0.0126334
0.0127595
0.0128841
0.0130069
0.013128
0.0132473
0.0133646
0.01348
0.0135934
0.0137046
0.0138137
0.0139205
0.014025
0.0141271
0.0142267
0.0143238
0.0144183
0.0145101
0.0145992
0.0146855
0.0147689
0.0148493
0.0149268
0.0150011
0.0150724
0.0151404
0.0152053
0.0152668
0.0153249
0.0153797
0.015431
0.0154788
0.015523
0.0155637
0.0156008
0.0156342
0.0156639
0.0156899
0.0157122
0.0157306
0.0157454
0.0157563
0.0157634
0.0157667
0.0157661
0.0157618
0.0157536
0.0157416
0.0157258
0.0157062
0.0156828
0.0156556
0.0156247
0.0155901
0.0155518
0.0155099
0.0154643
0.0154152
0.0153625
0.0153063
0.0152467
0.0151837
0.0151173
0.0150476
0.0149747
0.0148985
0.0148193
0.014737
0.0146516
0.0145633
0.0144722
0.0143782
0.0142815
0.0141821
0.0140801
0.0139756
0.0138685
0.0137591
0.0136474
0.0135333
0.0134171
0.0132988
0.0131784
0.013056
0.0129317
0.0128056
0.0126777
0.0125481
0.0124168
0.012284
0.0121496
0.0120138
0.0118766
0.0117381
0.0115983
0.0114573
0.0113152
0.011172
0.0110277
0.0108824
0.0107363
0.0105892
0.0104413
0.0102927
0.0101433
0.00999318
0.00984245
0.00969113
0.00953924
0.00938683
0.00923395
0.00908062
0.00892688
0.00877277
0.00861831
0.00846355
0.00830851
0.00815321
0.00799769
0.00784197
0.00768608
0.00753004
0.00737388
0.0072176
0.00706124
0.00690481
0.00674833
0.00659182
0.00643529
0.00627875
0.00612222
0.00596571
0.00580924
0.0056528
0.00549642
0.0053401
0.00518385
0.00502767
0.00487158
0.00471557
0.00455965
0.00440382
0.0042481
0.00409247
0.00393694
0.00378152
0.0036262
0.00347099
0.00331587
0.00316086
0.00300595
0.00285114
0.00269642
0.0025418
0.00238727
0.00223282
0.00207845
0.00192417
0.00176995
0.0016158
0.00146172
0.0013077
0.00115372
0.000999799
0.000845914
0.000692064
0.000538242
0.000384443
0.000230659
7.68854e-05
8.92695e-05
0.000267813
0.000446369
0.000624946
0.000803552
0.000982197
0.00116089
0.00133963
0.00151844
0.00169732
0.00187627
0.00205531
0.00223445
0.00241368
0.00259302
0.00277247
0.00295205
0.00313175
0.00331158
0.00349154
0.00367165
0.0038519
0.00403231
0.00421287
0.00439358
0.00457446
0.00475549
0.00493669
0.00511805
0.00529958
0.00548127
0.00566313
0.00584515
0.00602733
0.00620966
0.00639215
0.00657478
0.00675756
0.00694047
0.00712351
0.00730667
0.00748994
0.00767331
0.00785678
0.00804031
0.00822391
0.00840756
0.00859125
0.00877494
0.00895863
0.0091423
0.00932593
0.00950949
0.00969296
0.00987631
0.0100595
0.0102426
0.0104254
0.010608
0.0107903
0.0109724
0.0111541
0.0113354
0.0115163
0.0116967
0.0118767
0.0120561
0.0122349
0.0124131
0.0125905
0.0127673
0.0129432
0.0131183
0.0132924
0.0134656
0.0136378
0.0138088
0.0139787
0.0141474
0.0143148
0.0144808
0.0146454
0.0148084
0.0149699
0.0151297
0.0152877
0.015444
0.0155983
0.0157506
0.0159009
0.0160491
0.016195
0.0163385
0.0164797
0.0166184
0.0167545
0.016888
0.0170187
0.0171465
0.0172714
0.0173934
0.0175122
0.0176278
0.0177402
0.0178492
0.0179548
0.0180568
0.0181553
0.0182501
0.0183411
0.0184283
0.0185116
0.0185909
0.0186662
0.0187374
0.0188044
0.0188672
0.0189257
0.0189799
0.0190297
0.0190751
0.0191159
0.0191523
0.0191841
0.0192114
0.019234
0.0192521
0.0192654
0.0192741
0.0192781
0.0192775
0.0192722
0.0192621
0.0192475
0.0192281
0.0192041
0.0191755
0.0191423
0.0191045
0.0190621
0.0190153
0.0189639
0.0189082
0.018848
0.0187835
0.0187148
0.0186418
0.0185646
0.0184834
0.0183981
0.0183088
0.0182157
0.0181187
0.018018
0.0179135
0.0178055
0.017694
0.017579
0.0174606
0.017339
0.0172142
0.0170863
0.0169553
0.0168214
0.0166847
0.0165452
0.016403
0.0162583
0.016111
0.0159613
0.0158092
0.0156549
0.0154985
0.0153399
0.0151793
0.0150168
0.0148525
0.0146864
0.0145186
0.0143492
0.0141782
0.0140057
0.0138319
0.0136567
0.0134803
0.0133027
0.0131239
0.0129441
0.0127632
0.0125814
0.0123987
0.0122152
0.0120309
0.0118459
0.0116601
0.0114738
0.0112868
0.0110994
0.0109114
0.010723
0.0105341
0.0103449
0.0101554
0.0099655
0.00977536
0.00958499
0.00939441
0.00920365
0.00901274
0.00882169
0.00863055
0.00843932
0.00824803
0.00805671
0.00786536
0.00767401
0.00748267
0.00729136
0.00710009
0.00690888
0.00671773
0.00652666
0.00633567
0.00614477
0.00595398
0.00576329
0.00557271
0.00538225
0.00519191
0.0050017
0.00481161
0.00462165
0.00443181
0.00424211
0.00405253
0.00386307
0.00367374
0.00348453
0.00329544
0.00310646
0.0029176
0.00272883
0.00254017
0.00235161
0.00216313
0.00197474
0.00178643
0.00159819
0.00141001
0.00122189
0.00103382
0.000845798
0.000657806
0.000469842
0.000281898
9.39645e-05
0.00010549
0.000316476
0.000527476
0.000738502
0.000949563
0.00116067
0.00137183
0.00158305
0.00179435
0.00200574
0.00221721
0.00242879
0.00264047
0.00285228
0.00306421
0.00327628
0.00348849
0.00370084
0.00391336
0.00412603
0.00433888
0.0045519
0.00476509
0.00497847
0.00519204
0.00540579
0.00561974
0.00583388
0.00604822
0.00626275
0.00647748
0.00669241
0.00690752
0.00712283
0.00733833
0.007554
0.00776986
0.00798588
0.00820207
0.00841841
0.00863489
0.00885151
0.00906825
0.0092851
0.00950204
0.00971906
0.00993614
0.0101533
0.0103704
0.0105875
0.0108046
0.0110217
0.0112387
0.0114556
0.0116723
0.0118889
0.0121053
0.0123215
0.0125373
0.0127529
0.0129681
0.013183
0.0133973
0.0136112
0.0138246
0.0140374
0.0142495
0.0144609
0.0146716
0.0148815
0.0150905
0.0152985
0.0155056
0.0157115
0.0159164
0.01612
0.0163223
0.0165232
0.0167227
0.0169207
0.0171171
0.0173117
0.0175046
0.0176956
0.0178846
0.0180716
0.0182564
0.018439
0.0186193
0.0187971
0.0189723
0.019145
0.0193149
0.0194819
0.019646
0.0198071
0.019965
0.0201197
0.020271
0.0204188
0.0205631
0.0207037
0.0208406
0.0209736
0.0211026
0.0212276
0.0213484
0.0214649
0.0215771
0.0216849
0.0217881
0.0218867
0.0219806
0.0220698
0.022154
0.0222334
0.0223077
0.022377
0.0224411
0.0225001
0.0225538
0.0226022
0.0226453
0.022683
0.0227152
0.0227421
0.0227634
0.0227792
0.0227895
0.0227943
0.0227935
0.0227872
0.0227754
0.022758
0.0227351
0.0227067
0.0226728
0.0226335
0.0225887
0.0225386
0.0224831
0.0224224
0.0223563
0.0222852
0.0222088
0.0221274
0.022041
0.0219497
0.0218535
0.0217526
0.0216469
0.0215367
0.0214219
0.0213026
0.021179
0.0210512
0.0209192
0.0207831
0.020643
0.0204991
0.0203514
0.0202
0.0200451
0.0198866
0.0197248
0.0195598
0.0193915
0.0192202
0.019046
0.0188689
0.018689
0.0185064
0.0183213
0.0181337
0.0179438
0.0177516
0.0175571
0.0173607
0.0171622
0.0169618
0.0167595
0.0165556
0.01635
0.0161428
0.0159341
0.015724
0.0155126
0.0152999
0.0150861
0.0148711
0.014655
0.014438
0.0142201
0.0140013
0.0137817
0.0135613
0.0133403
0.0131186
0.0128964
0.0126736
0.0124503
0.0122266
0.0120025
0.0117781
0.0115533
0.0113282
0.0111029
0.0108774
0.0106517
0.0104259
0.0101999
0.00997389
0.00974778
0.00952162
0.00929544
0.00906926
0.0088431
0.00861697
0.0083909
0.00816489
0.00793896
0.00771312
0.00748739
0.00726177
0.00703627
0.0068109
0.00658566
0.00636056
0.00613561
0.00591081
0.00568615
0.00546165
0.0052373
0.0050131
0.00478906
0.00456516
0.00434141
0.00411781
0.00389434
0.00367102
0.00344782
0.00322475
0.0030018
0.00277896
0.00255623
0.00233361
0.00211107
0.00188862
0.00166625
0.00144394
0.00122169
0.000999497
0.000777343
0.000555222
0.000333124
0.00011104
0.000121706
0.000365124
0.000608559
0.000852023
0.00109553
0.00133909
0.00158271
0.0018264
0.00207018
0.00231406
0.00255805
0.00280215
0.00304638
0.00329075
0.00353527
0.00377994
0.00402477
0.00426978
0.00451498
0.00476036
0.00500593
0.00525171
0.00549769
0.00574389
0.0059903
0.00623693
0.00648379
0.00673088
0.00697819
0.00722573
0.00747349
0.00772149
0.00796971
0.00821815
0.00846681
0.00871568
0.00896476
0.00921404
0.00946351
0.00971316
0.00996298
0.010213
0.0104631
0.0107133
0.0109637
0.0112141
0.0114647
0.0117152
0.0119658
0.0122165
0.012467
0.0127176
0.012968
0.0132183
0.0134685
0.0137185
0.0139683
0.0142178
0.014467
0.0147159
0.0149643
0.0152123
0.0154598
0.0157067
0.015953
0.0161987
0.0164436
0.0166877
0.016931
0.0171733
0.0174146
0.0176549
0.0178939
0.0181318
0.0183683
0.0186035
0.0188371
0.0190692
0.0192996
0.0195282
0.019755
0.0199799
0.0202027
0.0204233
0.0206416
0.0208576
0.0210712
0.0212821
0.0214903
0.0216958
0.0218983
0.0220977
0.022294
0.0224871
0.0226767
0.0228628
0.0230453
0.023224
0.0233989
0.0235698
0.0237365
0.023899
0.0240572
0.024211
0.0243601
0.0245045
0.0246442
0.0247789
0.0249086
0.0250332
0.0251525
0.0252665
0.0253751
0.0254781
0.0255756
0.0256673
0.0257533
0.0258334
0.0259076
0.0259757
0.0260379
0.0260938
0.0261437
0.0261872
0.0262246
0.0262556
0.0262802
0.0262986
0.0263105
0.026316
0.0263151
0.0263078
0.0262942
0.0262741
0.0262476
0.0262148
0.0261756
0.0261301
0.0260784
0.0260204
0.0259563
0.025886
0.0258097
0.0257274
0.0256392
0.0255451
0.0254452
0.0253397
0.0252285
0.0251118
0.0249897
0.0248622
0.0247295
0.0245917
0.0244488
0.0243011
0.0241485
0.0239912
0.0238293
0.023663
0.0234923
0.0233173
0.0231383
0.0229552
0.0227682
0.0225775
0.0223831
0.0221852
0.0219838
0.0217792
0.0215714
0.0213605
0.0211466
0.0209299
0.0207105
0.0204884
0.0202639
0.0200369
0.0198076
0.0195762
0.0193426
0.019107
0.0188696
0.0186303
0.0183893
0.0181467
0.0179026
0.017657
0.01741
0.0171618
0.0169123
0.0166617
0.0164101
0.0161575
0.0159039
0.0156495
0.0153944
0.0151384
0.0148819
0.0146247
0.014367
0.0141087
0.01385
0.0135909
0.0133315
0.0130717
0.0128116
0.0125514
0.0122909
0.0120302
0.0117694
0.0115085
0.0112476
0.0109866
0.0107255
0.0104645
0.0102035
0.00994253
0.00968164
0.00942082
0.0091601
0.00889949
0.008639
0.00837865
0.00811843
0.00785837
0.00759847
0.00733873
0.00707916
0.00681976
0.00656054
0.0063015
0.00604264
0.00578395
0.00552544
0.0052671
0.00500894
0.00475094
0.00449311
0.00423544
0.00397792
0.00372054
0.00346331
0.00320621
0.00294923
0.00269238
0.00243562
0.00217897
0.00192241
0.00166592
0.00140951
0.00115315
0.000896847
0.000640578
0.000384336
0.00012811
0.000137916
0.000413754
0.000689612
0.000965503
0.00124144
0.00151744
0.00179351
0.00206966
0.00234592
0.00262228
0.00289876
0.00317538
0.00345215
0.00372907
0.00400616
0.00428343
0.00456089
0.00483854
0.0051164
0.00539448
0.00567278
0.00595131
0.00623008
0.00650909
0.00678834
0.00706785
0.00734762
0.00762764
0.00790792
0.00818847
0.00846928
0.00875034
0.00903167
0.00931325
0.00959508
0.00987715
0.0101595
0.010442
0.0107248
0.0110077
0.0112909
0.0115743
0.0118578
0.0121414
0.0124252
0.0127091
0.0129931
0.0132772
0.0135613
0.0138454
0.0141295
0.0144135
0.0146974
0.0149813
0.0152649
0.0155484
0.0158316
0.0161145
0.016397
0.0166792
0.0169609
0.0172421
0.0175228
0.0178028
0.0180822
0.0183607
0.0186385
0.0189154
0.0191913
0.0194661
0.0197398
0.0200123
0.0202835
0.0205534
0.0208217
0.0210884
0.0213535
0.0216168
0.0218782
0.0221376
0.0223949
0.0226501
0.0229029
0.0231532
0.023401
0.0236461
0.0238885
0.0241279
0.0243642
0.0245974
0.0248272
0.0250536
0.0252765
0.0254956
0.0257109
0.0259222
0.0261293
0.0263323
0.0265308
0.0267248
0.0269142
0.0270987
0.0272783
0.0274529
0.0276223
0.0277863
0.0279449
0.0280979
0.0282452
0.0283867
0.0285223
0.0286518
0.0287751
0.0288922
0.0290028
0.0291071
0.0292047
0.0292957
0.02938
0.0294575
0.029528
0.0295916
0.0296482
0.0296978
0.0297402
0.0297754
0.0298034
0.0298243
0.0298378
0.0298441
0.0298431
0.0298349
0.0298193
0.0297965
0.0297664
0.0297292
0.0296847
0.029633
0.0295743
0.0295084
0.0294356
0.0293558
0.0292691
0.0291756
0.0290754
0.0289685
0.0288551
0.0287352
0.0286089
0.0284764
0.0283377
0.0281929
0.0280422
0.0278857
0.0277235
0.0275557
0.0273825
0.0272039
0.0270201
0.0268312
0.0266374
0.0264388
0.0262355
0.0260276
0.0258154
0.0255989
0.0253782
0.0251535
0.024925
0.0246927
0.0244568
0.0242175
0.0239748
0.0237288
0.0234798
0.0232278
0.022973
0.0227155
0.0224553
0.0221927
0.0219277
0.0216604
0.021391
0.0211195
0.0208462
0.0205709
0.020294
0.0200154
0.0197353
0.0194537
0.0191707
0.0188865
0.0186011
0.0183146
0.018027
0.0177385
0.0174491
0.0171589
0.016868
0.0165764
0.0162841
0.0159913
0.0156979
0.0154042
0.01511
0.0148154
0.0145206
0.0142255
0.0139302
0.0136347
0.013339
0.0130432
0.0127474
0.0124515
0.0121556
0.0118597
0.0115638
0.011268
0.0109723
0.0106767
0.0103811
0.0100857
0.00979048
0.00949538
0.00920045
0.00890569
0.00861111
0.00831673
0.00802254
0.00772855
0.00743476
0.00714117
0.00684779
0.00655462
0.00626164
0.00596887
0.0056763
0.00538391
0.00509172
0.00479971
0.00450787
0.0042162
0.00392469
0.00363333
0.00334212
0.00305104
0.00276008
0.00246924
0.00217849
0.00188784
0.00159727
0.00130676
0.00101631
0.000725907
0.000435532
0.000145175
0.000154119
0.000462364
0.000770632
0.00107894
0.00138729
0.00169572
0.00200422
0.00231283
0.00262154
0.00293037
0.00323935
0.00354847
0.00385776
0.00416723
0.00447688
0.00478674
0.0050968
0.00540709
0.00571762
0.00602838
0.0063394
0.00665067
0.00696222
0.00727403
0.00758613
0.00789851
0.00821118
0.00852414
0.0088374
0.00915095
0.0094648
0.00977894
0.0100934
0.0104081
0.0107231
0.0110384
0.0113539
0.0116698
0.0119858
0.0123021
0.0126187
0.0129354
0.0132523
0.0135694
0.0138867
0.0142041
0.0145215
0.0148391
0.0151567
0.0154744
0.015792
0.0161095
0.016427
0.0167443
0.0170615
0.0173784
0.0176951
0.0180114
0.0183274
0.018643
0.018958
0.0192725
0.0195864
0.0198996
0.020212
0.0205236
0.0208343
0.021144
0.0214526
0.0217601
0.0220663
0.0223711
0.0226745
0.0229764
0.0232766
0.0235751
0.0238717
0.0241663
0.0244588
0.0247491
0.0250371
0.0253226
0.0256055
0.0258857
0.0261631
0.0264375
0.0267087
0.0269767
0.0272413
0.0275023
0.0277596
0.0280131
0.0282626
0.028508
0.028749
0.0289856
0.0292176
0.0294449
0.0296672
0.0298845
0.0300966
0.0303033
0.0305045
0.0307
0.0308898
0.0310735
0.0312512
0.0314226
0.0315877
0.0317462
0.0318981
0.0320432
0.0321814
0.0323125
0.0324366
0.0325534
0.0326628
0.0327648
0.0328592
0.0329461
0.0330251
0.0330964
0.0331599
0.0332154
0.0332629
0.0333024
0.0333339
0.0333572
0.0333724
0.0333795
0.0333784
0.0333692
0.0333518
0.0333262
0.0332925
0.0332507
0.0332009
0.033143
0.0330772
0.0330034
0.0329218
0.0328324
0.0327353
0.0326305
0.0325183
0.0323985
0.0322714
0.0321371
0.0319956
0.0318472
0.0316918
0.0315296
0.0313608
0.0311855
0.0310038
0.0308158
0.0306218
0.0304217
0.0302159
0.0300044
0.0297873
0.0295649
0.0293372
0.0291045
0.0288668
0.0286244
0.0283773
0.0281258
0.0278699
0.0276099
0.0273458
0.0270778
0.0268061
0.0265309
0.0262521
0.0259701
0.0256849
0.0253966
0.0251055
0.0248116
0.024515
0.0242159
0.0239145
0.0236107
0.0233048
0.0229969
0.022687
0.0223753
0.0220619
0.0217469
0.0214304
0.0211125
0.0207932
0.0204727
0.0201511
0.0198284
0.0195048
0.0191802
0.0188548
0.0185286
0.0182018
0.0178743
0.0175463
0.0172178
0.0168888
0.0165595
0.0162298
0.0158999
0.0155697
0.0152393
0.0149087
0.014578
0.0142473
0.0139165
0.0135857
0.0132549
0.0129241
0.0125935
0.0122629
0.0119324
0.011602
0.0112718
0.0109418
0.010612
0.0102823
0.00995282
0.00962357
0.00929453
0.00896572
0.00863713
0.00830877
0.00798064
0.00765275
0.00732508
0.00699765
0.00667044
0.00634346
0.0060167
0.00569014
0.0053638
0.00503765
0.00471169
0.00438592
0.00406031
0.00373487
0.00340958
0.00308442
0.0027594
0.00243449
0.00210968
0.00178496
0.00146032
0.00113574
0.000811206
0.000486709
0.000162234
0.000170314
0.000510952
0.000851614
0.00119232
0.00153308
0.00187392
0.00221484
0.00255588
0.00289703
0.00323833
0.00357978
0.00392139
0.00426319
0.00460519
0.0049474
0.00528983
0.0056325
0.00597541
0.00631858
0.00666203
0.00700576
0.00734977
0.00769408
0.0080387
0.00838363
0.00872888
0.00907445
0.00942035
0.00976658
0.0101131
0.01046
0.0108072
0.0111548
0.0115027
0.0118508
0.0121993
0.0125481
0.0128972
0.0132466
0.0135963
0.0139462
0.0142963
0.0146467
0.0149972
0.015348
0.0156989
0.0160499
0.016401
0.0167521
0.0171033
0.0174545
0.0178056
0.0181567
0.0185076
0.0188583
0.0192088
0.019559
0.0199088
0.0202583
0.0206072
0.0209557
0.0213035
0.0216507
0.0219971
0.0223427
0.0226874
0.0230311
0.0233737
0.0237151
0.0240553
0.0243941
0.0247314
0.0250671
0.0254011
0.0257333
0.0260636
0.0263918
0.0267178
0.0270416
0.0273629
0.0276817
0.0279977
0.0283109
0.0286211
0.0289281
0.0292319
0.0295322
0.0298289
0.0301219
0.0304109
0.0306959
0.0309766
0.0312529
0.0315246
0.0317916
0.0320537
0.0323107
0.0325624
0.0328087
0.0330494
0.0332844
0.0335134
0.0337363
0.033953
0.0341632
0.0343668
0.0345637
0.0347537
0.0349366
0.0351123
0.0352806
0.0354415
0.0355946
0.03574
0.0358775
0.036007
0.0361283
0.0362414
0.0363461
0.0364424
0.0365301
0.0366091
0.0366795
0.036741
0.0367937
0.0368375
0.0368724
0.0368983
0.0369152
0.036923
0.0369218
0.0369116
0.0368923
0.036864
0.0368267
0.0367804
0.0367252
0.036661
0.036588
0.0365063
0.0364158
0.0363167
0.0362091
0.036093
0.0359686
0.0358359
0.035695
0.0355462
0.0353894
0.0352248
0.0350527
0.034873
0.0346859
0.0344916
0.0342903
0.0340821
0.0338671
0.0336454
0.0334174
0.0331831
0.0329426
0.0326962
0.0324441
0.0321863
0.031923
0.0316545
0.0313809
0.0311023
0.030819
0.030531
0.0302386
0.0299419
0.0296411
0.0293363
0.0290278
0.0287155
0.0283998
0.0280807
0.0277584
0.0274331
0.0271049
0.0267738
0.0264402
0.0261041
0.0257655
0.0254248
0.0250819
0.024737
0.0243903
0.0240417
0.0236915
0.0233398
0.0229866
0.0226321
0.0222763
0.0219193
0.0215613
0.0212023
0.0208423
0.0204816
0.0201201
0.019758
0.0193952
0.0190319
0.0186681