/*--------------------------------*- C++ -*----------------------------------*\
| =========                 |                                                 |
| \\      /  F ield         | OpenFOAM: The Open Source CFD Toolbox           |
|  \\    /   O peration     | Version:  v2012                                 |
|   \\  /    A nd           | Website:  www.openfoam.com                      |
|    \\/     M anipulation  |                                                 |
\*---------------------------------------------------------------------------*/
FoamFile
{
    version     2.0;
    format      ascii;
    class       volVectorField;
    location    "18.2";
    object      U;
}
// * * * * * * * * * * * * * * * * * * * * * * * * * * * * * * * * * * * * * //

dimensions      [0 1 -1 0 0 0 0];


internalField   nonuniform List<vector> 
65536
(
(0.000662245 -0.000662258 0)
(0.00198677 -0.000662292 0)
(0.00331139 -0.000662355 0)
(0.00463616 -0.00066245 0)
(0.00596116 -0.000662575 0)
(0.00728643 -0.000662731 0)
(0.00861205 -0.000662917 0)
(0.00993808 -0.000663134 0)
(0.0112646 -0.000663379 0)
(0.0125916 -0.000663654 0)
(0.0139192 -0.000663957 0)
(0.0152474 -0.000664288 0)
(0.0165763 -0.000664645 0)
(0.0179059 -0.000665029 0)
(0.0192364 -0.000665437 0)
(0.0205677 -0.000665868 0)
(0.0218998 -0.000666323 0)
(0.0232329 -0.000666799 0)
(0.024567 -0.000667295 0)
(0.0259021 -0.00066781 0)
(0.0272382 -0.000668343 0)
(0.0285755 -0.000668891 0)
(0.0299138 -0.000669453 0)
(0.0312533 -0.000670028 0)
(0.0325939 -0.000670613 0)
(0.0339357 -0.000671207 0)
(0.0352787 -0.000671808 0)
(0.0366229 -0.000672412 0)
(0.0379684 -0.000673019 0)
(0.039315 -0.000673626 0)
(0.0406629 -0.000674231 0)
(0.042012 -0.00067483 0)
(0.0433622 -0.000675421 0)
(0.0447137 -0.000676002 0)
(0.0460662 -0.000676569 0)
(0.04742 -0.00067712 0)
(0.0487748 -0.00067765 0)
(0.0501306 -0.000678158 0)
(0.0514874 -0.00067864 0)
(0.0528452 -0.000679092 0)
(0.0542038 -0.00067951 0)
(0.0555633 -0.000679891 0)
(0.0569234 -0.00068023 0)
(0.0582842 -0.000680525 0)
(0.0596456 -0.00068077 0)
(0.0610074 -0.000680961 0)
(0.0623695 -0.000681095 0)
(0.0637318 -0.000681165 0)
(0.0650942 -0.000681169 0)
(0.0664566 -0.0006811 0)
(0.0678187 -0.000680954 0)
(0.0691805 -0.000680725 0)
(0.0705417 -0.00068041 0)
(0.0719022 -0.000680001 0)
(0.0732618 -0.000679494 0)
(0.0746203 -0.000678883 0)
(0.0759774 -0.000678162 0)
(0.077333 -0.000677326 0)
(0.0786869 -0.000676369 0)
(0.0800387 -0.000675284 0)
(0.0813881 -0.000674065 0)
(0.0827351 -0.000672706 0)
(0.0840791 -0.000671201 0)
(0.08542 -0.000669544 0)
(0.0867574 -0.000667727 0)
(0.0880911 -0.000665744 0)
(0.0894206 -0.000663589 0)
(0.0907456 -0.000661254 0)
(0.0920658 -0.000658734 0)
(0.0933808 -0.000656022 0)
(0.0946901 -0.00065311 0)
(0.0959934 -0.000649992 0)
(0.0972903 -0.000646661 0)
(0.0985803 -0.000643111 0)
(0.0998629 -0.000639334 0)
(0.101138 -0.000635325 0)
(0.102404 -0.000631077 0)
(0.103662 -0.000626584 0)
(0.104911 -0.000621838 0)
(0.10615 -0.000616835 0)
(0.107379 -0.000611567 0)
(0.108597 -0.00060603 0)
(0.109803 -0.000600218 0)
(0.110998 -0.000594124 0)
(0.11218 -0.000587745 0)
(0.113349 -0.000581075 0)
(0.114504 -0.000574109 0)
(0.115646 -0.000566843 0)
(0.116772 -0.000559274 0)
(0.117883 -0.000551397 0)
(0.118978 -0.00054321 0)
(0.120056 -0.000534709 0)
(0.121117 -0.000525892 0)
(0.12216 -0.000516757 0)
(0.123185 -0.000507302 0)
(0.12419 -0.000497527 0)
(0.125175 -0.00048743 0)
(0.12614 -0.000477012 0)
(0.127083 -0.000466274 0)
(0.128005 -0.000455216 0)
(0.128904 -0.000443839 0)
(0.129781 -0.000432146 0)
(0.130633 -0.000420141 0)
(0.131462 -0.000407825 0)
(0.132265 -0.000395203 0)
(0.133043 -0.000382281 0)
(0.133794 -0.000369062 0)
(0.134519 -0.000355552 0)
(0.135217 -0.00034176 0)
(0.135887 -0.00032769 0)
(0.136528 -0.000313352 0)
(0.13714 -0.000298752 0)
(0.137723 -0.000283902 0)
(0.138276 -0.000268809 0)
(0.138799 -0.000253484 0)
(0.13929 -0.000237938 0)
(0.139751 -0.000222181 0)
(0.140179 -0.000206227 0)
(0.140576 -0.000190086 0)
(0.14094 -0.000173772 0)
(0.141271 -0.000157297 0)
(0.141569 -0.000140676 0)
(0.141834 -0.000123922 0)
(0.142065 -0.000107049 0)
(0.142262 -9.00724e-05 0)
(0.142425 -7.3007e-05 0)
(0.142554 -5.58676e-05 0)
(0.142649 -3.86695e-05 0)
(0.142709 -2.14284e-05 0)
(0.142734 -4.15958e-06 0)
(0.142726 1.31212e-05 0)
(0.142682 3.03983e-05 0)
(0.142604 4.76562e-05 0)
(0.142491 6.48792e-05 0)
(0.142344 8.20519e-05 0)
(0.142163 9.9159e-05 0)
(0.141948 0.000116185 0)
(0.141698 0.000133116 0)
(0.141415 0.000149937 0)
(0.141098 0.000166633 0)
(0.140748 0.00018319 0)
(0.140365 0.000199596 0)
(0.13995 0.000215836 0)
(0.139502 0.000231898 0)
(0.139022 0.00024777 0)
(0.138511 0.00026344 0)
(0.137968 0.000278896 0)
(0.137395 0.000294128 0)
(0.136791 0.000309126 0)
(0.136158 0.00032388 0)
(0.135495 0.000338381 0)
(0.134804 0.000352621 0)
(0.134085 0.000366591 0)
(0.133338 0.000380285 0)
(0.132563 0.000393696 0)
(0.131763 0.000406818 0)
(0.130936 0.000419646 0)
(0.130084 0.000432174 0)
(0.129207 0.0004444 0)
(0.128306 0.000456318 0)
(0.127381 0.000467927 0)
(0.126434 0.000479223 0)
(0.125464 0.000490206 0)
(0.124473 0.000500873 0)
(0.12346 0.000511225 0)
(0.122427 0.00052126 0)
(0.121375 0.00053098 0)
(0.120303 0.000540384 0)
(0.119213 0.000549475 0)
(0.118105 0.000558254 0)
(0.11698 0.000566723 0)
(0.115838 0.000574885 0)
(0.11468 0.000582742 0)
(0.113506 0.000590298 0)
(0.112318 0.000597557 0)
(0.111116 0.000604523 0)
(0.1099 0.000611199 0)
(0.108671 0.000617591 0)
(0.107429 0.000623703 0)
(0.106176 0.000629541 0)
(0.104911 0.000635109 0)
(0.103635 0.000640414 0)
(0.102349 0.00064546 0)
(0.101053 0.000650253 0)
(0.0997476 0.0006548 0)
(0.0984335 0.000659107 0)
(0.0971109 0.00066318 0)
(0.0957805 0.000667025 0)
(0.0944426 0.000670648 0)
(0.0930977 0.000674056 0)
(0.0917462 0.000677256 0)
(0.0903885 0.000680253 0)
(0.089025 0.000683054 0)
(0.0876561 0.000685667 0)
(0.0862821 0.000688096 0)
(0.0849035 0.00069035 0)
(0.0835206 0.000692434 0)
(0.0821336 0.000694354 0)
(0.080743 0.000696118 0)
(0.079349 0.000697731 0)
(0.0779519 0.000699199 0)
(0.0765521 0.000700529 0)
(0.0751497 0.000701728 0)
(0.073745 0.0007028 0)
(0.0723383 0.000703752 0)
(0.0709299 0.000704589 0)
(0.0695199 0.000705319 0)
(0.0681085 0.000705945 0)
(0.066696 0.000706473 0)
(0.0652825 0.00070691 0)
(0.0638683 0.00070726 0)
(0.0624534 0.000707528 0)
(0.0610381 0.00070772 0)
(0.0596225 0.00070784 0)
(0.0582067 0.000707893 0)
(0.0567908 0.000707885 0)
(0.0553751 0.000707819 0)
(0.0539595 0.0007077 0)
(0.0525442 0.000707532 0)
(0.0511293 0.000707319 0)
(0.0497149 0.000707067 0)
(0.048301 0.000706777 0)
(0.0468878 0.000706455 0)
(0.0454752 0.000706104 0)
(0.0440633 0.000705728 0)
(0.0426523 0.000705329 0)
(0.041242 0.000704912 0)
(0.0398326 0.00070448 0)
(0.0384241 0.000704035 0)
(0.0370164 0.000703581 0)
(0.0356097 0.00070312 0)
(0.034204 0.000702655 0)
(0.0327991 0.000702189 0)
(0.0313952 0.000701724 0)
(0.0299922 0.000701263 0)
(0.0285902 0.000700807 0)
(0.027189 0.00070036 0)
(0.0257887 0.000699922 0)
(0.0243893 0.000699497 0)
(0.0229908 0.000699085 0)
(0.021593 0.000698689 0)
(0.020196 0.00069831 0)
(0.0187998 0.00069795 0)
(0.0174043 0.00069761 0)
(0.0160094 0.00069729 0)
(0.0146151 0.000696994 0)
(0.0132214 0.000696721 0)
(0.0118283 0.000696472 0)
(0.0104356 0.000696249 0)
(0.00904329 0.000696052 0)
(0.00765139 0.000695882 0)
(0.0062598 0.000695739 0)
(0.00486846 0.000695624 0)
(0.00347733 0.000695539 0)
(0.00208634 0.000695481 0)
(0.000695437 0.000695452 0)
(0.000662216 -0.00198675 0)
(0.00198668 -0.00198685 0)
(0.00331124 -0.00198704 0)
(0.00463595 -0.00198732 0)
(0.00596089 -0.0019877 0)
(0.0072861 -0.00198817 0)
(0.00861167 -0.00198873 0)
(0.00993763 -0.00198938 0)
(0.0112641 -0.00199011 0)
(0.012591 -0.00199094 0)
(0.0139185 -0.00199185 0)
(0.0152467 -0.00199284 0)
(0.0165756 -0.00199391 0)
(0.0179052 -0.00199506 0)
(0.0192356 -0.00199629 0)
(0.0205668 -0.00199759 0)
(0.0218989 -0.00199895 0)
(0.023232 -0.00200038 0)
(0.024566 -0.00200187 0)
(0.0259011 -0.00200342 0)
(0.0272372 -0.00200502 0)
(0.0285744 -0.00200666 0)
(0.0299127 -0.00200835 0)
(0.0312522 -0.00201008 0)
(0.0325928 -0.00201184 0)
(0.0339346 -0.00201362 0)
(0.0352776 -0.00201542 0)
(0.0366218 -0.00201724 0)
(0.0379672 -0.00201906 0)
(0.0393139 -0.00202089 0)
(0.0406617 -0.0020227 0)
(0.0420108 -0.0020245 0)
(0.0433611 -0.00202628 0)
(0.0447126 -0.00202802 0)
(0.0460652 -0.00202973 0)
(0.0474189 -0.00203138 0)
(0.0487738 -0.00203298 0)
(0.0501297 -0.0020345 0)
(0.0514865 -0.00203595 0)
(0.0528444 -0.00203731 0)
(0.0542031 -0.00203857 0)
(0.0555626 -0.00203972 0)
(0.0569229 -0.00204074 0)
(0.0582838 -0.00204163 0)
(0.0596452 -0.00204237 0)
(0.0610071 -0.00204295 0)
(0.0623694 -0.00204335 0)
(0.0637318 -0.00204357 0)
(0.0650944 -0.00204358 0)
(0.0664569 -0.00204338 0)
(0.0678192 -0.00204295 0)
(0.0691811 -0.00204227 0)
(0.0705425 -0.00204132 0)
(0.0719032 -0.0020401 0)
(0.073263 -0.00203859 0)
(0.0746217 -0.00203676 0)
(0.0759791 -0.00203461 0)
(0.0773349 -0.0020321 0)
(0.078689 -0.00202924 0)
(0.080041 -0.00202599 0)
(0.0813908 -0.00202234 0)
(0.082738 -0.00201827 0)
(0.0840824 -0.00201376 0)
(0.0854236 -0.00200879 0)
(0.0867613 -0.00200335 0)
(0.0880953 -0.00199741 0)
(0.0894252 -0.00199095 0)
(0.0907506 -0.00198395 0)
(0.0920711 -0.0019764 0)
(0.0933865 -0.00196827 0)
(0.0946962 -0.00195954 0)
(0.096 -0.00195019 0)
(0.0972973 -0.0019402 0)
(0.0985877 -0.00192956 0)
(0.0998708 -0.00191824 0)
(0.101146 -0.00190622 0)
(0.102413 -0.00189348 0)
(0.103672 -0.00188 0)
(0.104921 -0.00186577 0)
(0.10616 -0.00185077 0)
(0.10739 -0.00183497 0)
(0.108608 -0.00181837 0)
(0.109815 -0.00180093 0)
(0.11101 -0.00178266 0)
(0.112193 -0.00176352 0)
(0.113363 -0.00174352 0)
(0.114519 -0.00172263 0)
(0.115661 -0.00170083 0)
(0.116788 -0.00167813 0)
(0.117899 -0.0016545 0)
(0.118995 -0.00162994 0)
(0.120074 -0.00160444 0)
(0.121135 -0.00157799 0)
(0.122179 -0.00155059 0)
(0.123204 -0.00152222 0)
(0.12421 -0.0014929 0)
(0.125196 -0.00146261 0)
(0.126161 -0.00143136 0)
(0.127105 -0.00139914 0)
(0.128028 -0.00136596 0)
(0.128928 -0.00133183 0)
(0.129805 -0.00129675 0)
(0.130658 -0.00126073 0)
(0.131487 -0.00122378 0)
(0.132291 -0.00118591 0)
(0.133069 -0.00114713 0)
(0.133821 -0.00110747 0)
(0.134547 -0.00106694 0)
(0.135245 -0.00102555 0)
(0.135915 -0.000983336 0)
(0.136557 -0.000940312 0)
(0.13717 -0.000896505 0)
(0.137753 -0.000851944 0)
(0.138307 -0.000806655 0)
(0.13883 -0.00076067 0)
(0.139322 -0.00071402 0)
(0.139782 -0.000666739 0)
(0.140211 -0.000618862 0)
(0.140608 -0.000570427 0)
(0.140973 -0.000521471 0)
(0.141304 -0.000472033 0)
(0.141602 -0.000422155 0)
(0.141867 -0.000371879 0)
(0.142099 -0.000321246 0)
(0.142296 -0.000270302 0)
(0.142459 -0.00021909 0)
(0.142589 -0.000167657 0)
(0.142683 -0.000116047 0)
(0.142743 -6.43082e-05 0)
(0.142769 -1.24862e-05 0)
(0.14276 3.93718e-05 0)
(0.142717 9.12188e-05 0)
(0.142638 0.000143008 0)
(0.142526 0.000194692 0)
(0.142379 0.000246226 0)
(0.142197 0.000297562 0)
(0.141982 0.000348657 0)
(0.141732 0.000399464 0)
(0.141449 0.00044994 0)
(0.141132 0.000500042 0)
(0.140781 0.000549728 0)
(0.140398 0.000598958 0)
(0.139982 0.000647691 0)
(0.139534 0.000695889 0)
(0.139054 0.000743517 0)
(0.138542 0.000790537 0)
(0.137999 0.000836916 0)
(0.137425 0.000882623 0)
(0.136821 0.000927626 0)
(0.136187 0.000971897 0)
(0.135524 0.00101541 0)
(0.134832 0.00105814 0)
(0.134112 0.00110005 0)
(0.133365 0.00114114 0)
(0.13259 0.00118138 0)
(0.131788 0.00122075 0)
(0.130961 0.00125924 0)
(0.130108 0.00129683 0)
(0.129231 0.00133351 0)
(0.128329 0.00136927 0)
(0.127404 0.0014041 0)
(0.126456 0.00143799 0)
(0.125486 0.00147094 0)
(0.124494 0.00150294 0)
(0.12348 0.00153399 0)
(0.122447 0.0015641 0)
(0.121394 0.00159326 0)
(0.120322 0.00162147 0)
(0.119231 0.00164874 0)
(0.118122 0.00167507 0)
(0.116996 0.00170048 0)
(0.115854 0.00172496 0)
(0.114695 0.00174853 0)
(0.113521 0.00177119 0)
(0.112332 0.00179297 0)
(0.111129 0.00181386 0)
(0.109913 0.00183388 0)
(0.108683 0.00185306 0)
(0.107441 0.00187139 0)
(0.106187 0.00188889 0)
(0.104922 0.00190559 0)
(0.103645 0.0019215 0)
(0.102359 0.00193663 0)
(0.101062 0.00195101 0)
(0.0997564 0.00196464 0)
(0.0984418 0.00197756 0)
(0.0971188 0.00198977 0)
(0.0957879 0.0020013 0)
(0.0944496 0.00201216 0)
(0.0931043 0.00202238 0)
(0.0917523 0.00203197 0)
(0.0903942 0.00204095 0)
(0.0890303 0.00204935 0)
(0.0876611 0.00205718 0)
(0.0862868 0.00206447 0)
(0.0849078 0.00207122 0)
(0.0835245 0.00207746 0)
(0.0821372 0.00208322 0)
(0.0807463 0.0020885 0)
(0.079352 0.00209334 0)
(0.0779547 0.00209774 0)
(0.0765545 0.00210172 0)
(0.0751519 0.00210531 0)
(0.073747 0.00210852 0)
(0.0723401 0.00211137 0)
(0.0709314 0.00211388 0)
(0.0695212 0.00211606 0)
(0.0681096 0.00211793 0)
(0.0666969 0.00211951 0)
(0.0652833 0.00212082 0)
(0.0638689 0.00212186 0)
(0.0624538 0.00212266 0)
(0.0610384 0.00212323 0)
(0.0596226 0.00212359 0)
(0.0582067 0.00212374 0)
(0.0567907 0.00212371 0)
(0.0553748 0.00212351 0)
(0.0539592 0.00212315 0)
(0.0525438 0.00212264 0)
(0.0511288 0.002122 0)
(0.0497143 0.00212123 0)
(0.0483004 0.00212036 0)
(0.0468871 0.00211939 0)
(0.0454744 0.00211834 0)
(0.0440625 0.0021172 0)
(0.0426514 0.00211601 0)
(0.0412411 0.00211475 0)
(0.0398317 0.00211345 0)
(0.0384231 0.00211211 0)
(0.0370155 0.00211075 0)
(0.0356088 0.00210936 0)
(0.034203 0.00210796 0)
(0.0327982 0.00210656 0)
(0.0313943 0.00210517 0)
(0.0299913 0.00210378 0)
(0.0285892 0.00210241 0)
(0.0271881 0.00210107 0)
(0.0257879 0.00209975 0)
(0.0243885 0.00209847 0)
(0.0229899 0.00209724 0)
(0.0215922 0.00209605 0)
(0.0201953 0.00209491 0)
(0.0187991 0.00209383 0)
(0.0174036 0.0020928 0)
(0.0160087 0.00209185 0)
(0.0146145 0.00209095 0)
(0.0132209 0.00209013 0)
(0.0118278 0.00208939 0)
(0.0104351 0.00208872 0)
(0.00904292 0.00208813 0)
(0.00765107 0.00208762 0)
(0.00625954 0.00208719 0)
(0.00486826 0.00208684 0)
(0.00347718 0.00208658 0)
(0.00208625 0.00208641 0)
(0.000695408 0.00208633 0)
(0.000662152 -0.00331115 0)
(0.00198649 -0.00331131 0)
(0.00331092 -0.00331163 0)
(0.00463551 -0.0033121 0)
(0.00596032 -0.00331273 0)
(0.00728541 -0.00331351 0)
(0.00861085 -0.00331444 0)
(0.0099367 -0.00331553 0)
(0.011263 -0.00331676 0)
(0.0125898 -0.00331814 0)
(0.0139173 -0.00331966 0)
(0.0152453 -0.00332131 0)
(0.0165741 -0.00332311 0)
(0.0179036 -0.00332503 0)
(0.0192339 -0.00332707 0)
(0.020565 -0.00332924 0)
(0.0218971 -0.00333152 0)
(0.02323 -0.0033339 0)
(0.024564 -0.00333639 0)
(0.025899 -0.00333897 0)
(0.027235 -0.00334164 0)
(0.0285721 -0.00334439 0)
(0.0299104 -0.00334721 0)
(0.0312498 -0.0033501 0)
(0.0325904 -0.00335303 0)
(0.0339321 -0.00335601 0)
(0.0352751 -0.00335902 0)
(0.0366193 -0.00336206 0)
(0.0379648 -0.00336511 0)
(0.0393114 -0.00336815 0)
(0.0406593 -0.00337119 0)
(0.0420084 -0.0033742 0)
(0.0433587 -0.00337717 0)
(0.0447102 -0.00338008 0)
(0.0460629 -0.00338293 0)
(0.0474167 -0.0033857 0)
(0.0487717 -0.00338837 0)
(0.0501276 -0.00339093 0)
(0.0514846 -0.00339336 0)
(0.0528426 -0.00339563 0)
(0.0542014 -0.00339774 0)
(0.0555611 -0.00339967 0)
(0.0569215 -0.00340138 0)
(0.0582826 -0.00340288 0)
(0.0596443 -0.00340412 0)
(0.0610064 -0.0034051 0)
(0.0623689 -0.00340579 0)
(0.0637316 -0.00340617 0)
(0.0650944 -0.00340621 0)
(0.0664572 -0.00340589 0)
(0.0678198 -0.00340519 0)
(0.0691821 -0.00340407 0)
(0.0705439 -0.00340252 0)
(0.071905 -0.0034005 0)
(0.0732652 -0.00339799 0)
(0.0746243 -0.00339497 0)
(0.0759821 -0.00339139 0)
(0.0773384 -0.00338724 0)
(0.078693 -0.00338249 0)
(0.0800456 -0.00337709 0)
(0.0813959 -0.00337103 0)
(0.0827437 -0.00336427 0)
(0.0840886 -0.00335677 0)
(0.0854305 -0.00334852 0)
(0.0867689 -0.00333947 0)
(0.0881035 -0.00332958 0)
(0.0894341 -0.00331884 0)
(0.0907602 -0.0033072 0)
(0.0920815 -0.00329464 0)
(0.0933977 -0.00328111 0)
(0.0947082 -0.00326658 0)
(0.0960128 -0.00325102 0)
(0.0973109 -0.0032344 0)
(0.0986023 -0.00321668 0)
(0.0998863 -0.00319784 0)
(0.101163 -0.00317782 0)
(0.102431 -0.00315662 0)
(0.10369 -0.00313418 0)
(0.10494 -0.00311048 0)
(0.106181 -0.00308549 0)
(0.107411 -0.00305919 0)
(0.108631 -0.00303153 0)
(0.109839 -0.00300249 0)
(0.111035 -0.00297205 0)
(0.112219 -0.00294018 0)
(0.11339 -0.00290685 0)
(0.114547 -0.00287204 0)
(0.11569 -0.00283573 0)
(0.116818 -0.0027979 0)
(0.117931 -0.00275854 0)
(0.119028 -0.00271761 0)
(0.120108 -0.00267512 0)
(0.121171 -0.00263105 0)
(0.122216 -0.00258538 0)
(0.123242 -0.00253811 0)
(0.124249 -0.00248924 0)
(0.125237 -0.00243875 0)
(0.126203 -0.00238666 0)
(0.127149 -0.00233296 0)
(0.128072 -0.00227766 0)
(0.128974 -0.00222077 0)
(0.129852 -0.00216229 0)
(0.130706 -0.00210225 0)
(0.131537 -0.00204065 0)
(0.132342 -0.00197752 0)
(0.133121 -0.00191288 0)
(0.133875 -0.00184675 0)
(0.134601 -0.00177918 0)
(0.135301 -0.00171018 0)
(0.135972 -0.00163979 0)
(0.136615 -0.00156805 0)
(0.137229 -0.00149501 0)
(0.137813 -0.00142071 0)
(0.138367 -0.0013452 0)
(0.138891 -0.00126852 0)
(0.139384 -0.00119073 0)
(0.139846 -0.00111189 0)
(0.140276 -0.00103206 0)
(0.140673 -0.000951289 0)
(0.141038 -0.000869652 0)
(0.14137 -0.000787211 0)
(0.141669 -0.000704034 0)
(0.141935 -0.000620192 0)
(0.142166 -0.000535756 0)
(0.142364 -0.000450799 0)
(0.142528 -0.000365396 0)
(0.142657 -0.000279623 0)
(0.142752 -0.000193555 0)
(0.142812 -0.000107272 0)
(0.142838 -2.08494e-05 0)
(0.142829 6.56328e-05 0)
(0.142786 0.000152097 0)
(0.142707 0.000238464 0)
(0.142595 0.000324656 0)
(0.142447 0.000410596 0)
(0.142266 0.000496208 0)
(0.14205 0.000581414 0)
(0.1418 0.000666141 0)
(0.141516 0.000750316 0)
(0.141198 0.000833866 0)
(0.140847 0.000916722 0)
(0.140463 0.000998815 0)
(0.140047 0.00108008 0)
(0.139598 0.00116045 0)
(0.139117 0.00123987 0)
(0.138604 0.00131827 0)
(0.13806 0.00139561 0)
(0.137486 0.00147182 0)
(0.136881 0.00154686 0)
(0.136246 0.00162067 0)
(0.135582 0.00169322 0)
(0.134889 0.00176446 0)
(0.134168 0.00183435 0)
(0.133419 0.00190285 0)
(0.132643 0.00196993 0)
(0.13184 0.00203557 0)
(0.131012 0.00209973 0)
(0.130158 0.0021624 0)
(0.129279 0.00222354 0)
(0.128376 0.00228315 0)
(0.12745 0.0023412 0)
(0.126501 0.00239769 0)
(0.125529 0.00245261 0)
(0.124536 0.00250595 0)
(0.123521 0.00255771 0)
(0.122487 0.00260789 0)
(0.121432 0.00265648 0)
(0.120359 0.0027035 0)
(0.119267 0.00274894 0)
(0.118157 0.00279282 0)
(0.117029 0.00283516 0)
(0.115886 0.00287595 0)
(0.114726 0.00291522 0)
(0.113551 0.00295298 0)
(0.112361 0.00298926 0)
(0.111157 0.00302406 0)
(0.109939 0.00305742 0)
(0.108708 0.00308936 0)
(0.107465 0.00311989 0)
(0.10621 0.00314906 0)
(0.104943 0.00317687 0)
(0.103666 0.00320336 0)
(0.102378 0.00322856 0)
(0.101081 0.0032525 0)
(0.0997741 0.00327521 0)
(0.0984585 0.00329671 0)
(0.0971346 0.00331704 0)
(0.0958029 0.00333623 0)
(0.0944637 0.00335432 0)
(0.0931175 0.00337133 0)
(0.0917647 0.00338729 0)
(0.0904058 0.00340224 0)
(0.0890412 0.00341622 0)
(0.0876711 0.00342925 0)
(0.0862961 0.00344136 0)
(0.0849165 0.0034526 0)
(0.0835325 0.00346299 0)
(0.0821446 0.00347256 0)
(0.0807531 0.00348134 0)
(0.0793582 0.00348938 0)
(0.0779603 0.00349669 0)
(0.0765596 0.00350331 0)
(0.0751564 0.00350927 0)
(0.073751 0.0035146 0)
(0.0723437 0.00351933 0)
(0.0709345 0.00352349 0)
(0.0695239 0.00352711 0)
(0.0681119 0.00353021 0)
(0.0666988 0.00353282 0)
(0.0652848 0.00353498 0)
(0.0638701 0.0035367 0)
(0.0624547 0.00353802 0)
(0.061039 0.00353895 0)
(0.0596229 0.00353953 0)
(0.0582068 0.00353978 0)
(0.0567906 0.00353971 0)
(0.0553745 0.00353936 0)
(0.0539586 0.00353874 0)
(0.052543 0.00353788 0)
(0.0511279 0.0035368 0)
(0.0497132 0.00353551 0)
(0.0482992 0.00353405 0)
(0.0468857 0.00353242 0)
(0.045473 0.00353065 0)
(0.044061 0.00352875 0)
(0.0426498 0.00352674 0)
(0.0412394 0.00352464 0)
(0.0398299 0.00352246 0)
(0.0384213 0.00352022 0)
(0.0370137 0.00351793 0)
(0.0356069 0.00351561 0)
(0.0342011 0.00351328 0)
(0.0327963 0.00351093 0)
(0.0313924 0.0035086 0)
(0.0299895 0.00350628 0)
(0.0285874 0.00350399 0)
(0.0271863 0.00350174 0)
(0.0257861 0.00349955 0)
(0.0243868 0.00349741 0)
(0.0229883 0.00349534 0)
(0.0215907 0.00349336 0)
(0.0201938 0.00349145 0)
(0.0187977 0.00348964 0)
(0.0174023 0.00348794 0)
(0.0160075 0.00348633 0)
(0.0146134 0.00348485 0)
(0.0132199 0.00348348 0)
(0.0118268 0.00348223 0)
(0.0104343 0.00348111 0)
(0.00904219 0.00348012 0)
(0.00765044 0.00347927 0)
(0.00625902 0.00347855 0)
(0.00486786 0.00347798 0)
(0.0034769 0.00347754 0)
(0.00208608 0.00347726 0)
(0.00069535 0.00347711 0)
(0.000662056 -0.00463539 0)
(0.0019862 -0.00463562 0)
(0.00331044 -0.00463606 0)
(0.00463484 -0.00463672 0)
(0.00595946 -0.0046376 0)
(0.00728437 -0.0046387 0)
(0.00860963 -0.00464001 0)
(0.00993529 -0.00464153 0)
(0.0112614 -0.00464326 0)
(0.0125881 -0.00464519 0)
(0.0139153 -0.00464733 0)
(0.0152432 -0.00464965 0)
(0.0165718 -0.00465217 0)
(0.0179012 -0.00465486 0)
(0.0192313 -0.00465773 0)
(0.0205623 -0.00466077 0)
(0.0218942 -0.00466397 0)
(0.0232271 -0.00466732 0)
(0.0245609 -0.00467081 0)
(0.0258958 -0.00467444 0)
(0.0272317 -0.00467819 0)
(0.0285688 -0.00468205 0)
(0.0299069 -0.00468601 0)
(0.0312463 -0.00469006 0)
(0.0325868 -0.00469418 0)
(0.0339285 -0.00469837 0)
(0.0352714 -0.0047026 0)
(0.0366156 -0.00470687 0)
(0.037961 -0.00471115 0)
(0.0393077 -0.00471543 0)
(0.0406556 -0.0047197 0)
(0.0420048 -0.00472393 0)
(0.0433551 -0.00472811 0)
(0.0447067 -0.00473221 0)
(0.0460595 -0.00473622 0)
(0.0474134 -0.00474012 0)
(0.0487684 -0.00474388 0)
(0.0501246 -0.00474749 0)
(0.0514817 -0.00475091 0)
(0.0528399 -0.00475412 0)
(0.0541989 -0.0047571 0)
(0.0555589 -0.00475982 0)
(0.0569195 -0.00476225 0)
(0.0582809 -0.00476437 0)
(0.0596429 -0.00476615 0)
(0.0610053 -0.00476755 0)
(0.0623682 -0.00476855 0)
(0.0637313 -0.00476911 0)
(0.0650945 -0.0047692 0)
(0.0664577 -0.00476879 0)
(0.0678208 -0.00476783 0)
(0.0691836 -0.00476631 0)
(0.0705459 -0.00476417 0)
(0.0719076 -0.00476139 0)
(0.0732684 -0.00475792 0)
(0.0746282 -0.00475372 0)
(0.0759867 -0.00474876 0)
(0.0773437 -0.00474299 0)
(0.078699 -0.00473637 0)
(0.0800524 -0.00472886 0)
(0.0814035 -0.00472042 0)
(0.0827521 -0.004711 0)
(0.084098 -0.00470055 0)
(0.0854407 -0.00468904 0)
(0.0867801 -0.00467641 0)
(0.0881158 -0.00466263 0)
(0.0894474 -0.00464763 0)
(0.0907746 -0.00463139 0)
(0.0920971 -0.00461384 0)
(0.0934144 -0.00459494 0)
(0.0947261 -0.00457465 0)
(0.096032 -0.00455292 0)
(0.0973314 -0.0045297 0)
(0.0986241 -0.00450494 0)
(0.0999095 -0.0044786 0)
(0.101187 -0.00445063 0)
(0.102457 -0.00442098 0)
(0.103718 -0.00438961 0)
(0.104969 -0.00435648 0)
(0.106212 -0.00432154 0)
(0.107443 -0.00428475 0)
(0.108665 -0.00424607 0)
(0.109874 -0.00420545 0)
(0.111072 -0.00416287 0)
(0.112258 -0.00411829 0)
(0.113431 -0.00407166 0)
(0.11459 -0.00402296 0)
(0.115735 -0.00397216 0)
(0.116865 -0.00391922 0)
(0.117979 -0.00386413 0)
(0.119078 -0.00380686 0)
(0.12016 -0.00374738 0)
(0.121225 -0.00368569 0)
(0.122272 -0.00362177 0)
(0.1233 -0.0035556 0)
(0.124309 -0.00348718 0)
(0.125298 -0.00341651 0)
(0.126267 -0.00334358 0)
(0.127214 -0.00326839 0)
(0.12814 -0.00319096 0)
(0.129043 -0.00311129 0)
(0.129923 -0.00302941 0)
(0.130779 -0.00294532 0)
(0.131611 -0.00285905 0)
(0.132418 -0.00277064 0)
(0.1332 -0.00268011 0)
(0.133955 -0.00258749 0)
(0.134683 -0.00249284 0)
(0.135384 -0.00239619 0)
(0.136057 -0.00229759 0)
(0.136702 -0.0021971 0)
(0.137317 -0.00209479 0)
(0.137903 -0.0019907 0)
(0.138459 -0.00188491 0)
(0.138984 -0.00177748 0)
(0.139478 -0.0016685 0)
(0.139941 -0.00155804 0)
(0.140372 -0.00144619 0)
(0.140771 -0.00133302 0)
(0.141137 -0.00121864 0)
(0.14147 -0.00110313 0)
(0.14177 -0.00098658 0)
(0.142036 -0.000869101 0)
(0.142268 -0.000750788 0)
(0.142467 -0.000631744 0)
(0.142631 -0.000512074 0)
(0.14276 -0.000391884 0)
(0.142856 -0.000271281 0)
(0.142916 -0.000150375 0)
(0.142942 -2.92742e-05 0)
(0.142933 9.19107e-05 0)
(0.142889 0.00021307 0)
(0.142811 0.000334093 0)
(0.142698 0.000454871 0)
(0.14255 0.000575294 0)
(0.142368 0.000695256 0)
(0.142152 0.00081465 0)
(0.141901 0.00093337 0)
(0.141616 0.00105132 0)
(0.141298 0.00116838 0)
(0.140946 0.00128448 0)
(0.140561 0.0013995 0)
(0.140144 0.00151336 0)
(0.139694 0.00162597 0)
(0.139211 0.00173723 0)
(0.138698 0.00184708 0)
(0.138152 0.00195542 0)
(0.137576 0.00206219 0)
(0.13697 0.00216731 0)
(0.136334 0.00227072 0)
(0.135668 0.00237234 0)
(0.134974 0.00247213 0)
(0.134251 0.00257002 0)
(0.1335 0.00266597 0)
(0.132723 0.00275993 0)
(0.131918 0.00285186 0)
(0.131088 0.00294172 0)
(0.130232 0.00302948 0)
(0.129352 0.00311511 0)
(0.128447 0.00319858 0)
(0.127519 0.00327987 0)
(0.126567 0.00335897 0)
(0.125594 0.00343587 0)
(0.124599 0.00351055 0)
(0.123582 0.00358301 0)
(0.122546 0.00365325 0)
(0.12149 0.00372128 0)
(0.120414 0.00378709 0)
(0.11932 0.0038507 0)
(0.118208 0.00391213 0)
(0.117079 0.00397137 0)
(0.115934 0.00402846 0)
(0.114772 0.00408342 0)
(0.113595 0.00413626 0)
(0.112404 0.00418702 0)
(0.111198 0.00423572 0)
(0.109978 0.00428239 0)
(0.108746 0.00432706 0)
(0.107501 0.00436978 0)
(0.106244 0.00441057 0)
(0.104976 0.00444947 0)
(0.103697 0.00448652 0)
(0.102408 0.00452176 0)
(0.101109 0.00455523 0)
(0.0998006 0.00458697 0)
(0.0984836 0.00461703 0)
(0.0971584 0.00464545 0)
(0.0958252 0.00467228 0)
(0.0944847 0.00469755 0)
(0.0931372 0.00472132 0)
(0.0917833 0.00474362 0)
(0.0904232 0.00476451 0)
(0.0890574 0.00478403 0)
(0.0876862 0.00480223 0)
(0.0863101 0.00481914 0)
(0.0849294 0.00483483 0)
(0.0835445 0.00484932 0)
(0.0821556 0.00486268 0)
(0.0807631 0.00487493 0)
(0.0793674 0.00488614 0)
(0.0779686 0.00489633 0)
(0.0765671 0.00490556 0)
(0.0751632 0.00491386 0)
(0.0737571 0.00492128 0)
(0.072349 0.00492786 0)
(0.0709392 0.00493364 0)
(0.0695279 0.00493867 0)
(0.0681154 0.00494297 0)
(0.0667017 0.0049466 0)
(0.0652872 0.00494958 0)
(0.0638719 0.00495196 0)
(0.0624561 0.00495376 0)
(0.0610399 0.00495504 0)
(0.0596234 0.00495581 0)
(0.0582069 0.00495612 0)
(0.0567903 0.00495599 0)
(0.0553739 0.00495547 0)
(0.0539577 0.00495458 0)
(0.0525419 0.00495334 0)
(0.0511265 0.0049518 0)
(0.0497116 0.00494997 0)
(0.0482973 0.00494789 0)
(0.0468837 0.00494559 0)
(0.0454708 0.00494308 0)
(0.0440586 0.0049404 0)
(0.0426473 0.00493756 0)
(0.0412368 0.0049346 0)
(0.0398273 0.00493153 0)
(0.0384186 0.00492837 0)
(0.0370109 0.00492515 0)
(0.0356041 0.00492188 0)
(0.0341983 0.00491859 0)
(0.0327935 0.0049153 0)
(0.0313896 0.00491201 0)
(0.0299867 0.00490875 0)
(0.0285847 0.00490553 0)
(0.0271837 0.00490237 0)
(0.0257835 0.00489928 0)
(0.0243843 0.00489628 0)
(0.0229859 0.00489337 0)
(0.0215883 0.00489058 0)
(0.0201916 0.0048879 0)
(0.0187956 0.00488536 0)
(0.0174003 0.00488296 0)
(0.0160057 0.00488071 0)
(0.0146117 0.00487862 0)
(0.0132183 0.00487669 0)
(0.0118254 0.00487494 0)
(0.010433 0.00487337 0)
(0.00904108 0.00487198 0)
(0.0076495 0.00487078 0)
(0.00625825 0.00486978 0)
(0.00486725 0.00486897 0)
(0.00347646 0.00486836 0)
(0.00208582 0.00486796 0)
(0.000695263 0.00486776 0)
(0.000661928 -0.00595941 0)
(0.00198582 -0.0059597 0)
(0.0033098 -0.00596027 0)
(0.00463395 -0.00596112 0)
(0.00595832 -0.00596226 0)
(0.00728298 -0.00596367 0)
(0.00860799 -0.00596536 0)
(0.00993341 -0.00596733 0)
(0.0112593 -0.00596956 0)
(0.0125857 -0.00597205 0)
(0.0139128 -0.0059748 0)
(0.0152404 -0.0059778 0)
(0.0165688 -0.00598104 0)
(0.017898 -0.00598452 0)
(0.0192279 -0.00598822 0)
(0.0205587 -0.00599214 0)
(0.0218904 -0.00599627 0)
(0.0232231 -0.0060006 0)
(0.0245568 -0.0060051 0)
(0.0258915 -0.00600978 0)
(0.0272273 -0.00601462 0)
(0.0285642 -0.0060196 0)
(0.0299023 -0.00602472 0)
(0.0312415 -0.00602994 0)
(0.032582 -0.00603527 0)
(0.0339236 -0.00604068 0)
(0.0352665 -0.00604614 0)
(0.0366107 -0.00605165 0)
(0.0379561 -0.00605719 0)
(0.0393028 -0.00606272 0)
(0.0406507 -0.00606824 0)
(0.0419999 -0.00607371 0)
(0.0433503 -0.00607912 0)
(0.044702 -0.00608443 0)
(0.0460549 -0.00608962 0)
(0.0474089 -0.00609467 0)
(0.0487642 -0.00609955 0)
(0.0501205 -0.00610422 0)
(0.0514779 -0.00610866 0)
(0.0528363 -0.00611284 0)
(0.0541956 -0.00611671 0)
(0.0555558 -0.00612026 0)
(0.0569168 -0.00612344 0)
(0.0582786 -0.00612621 0)
(0.0596409 -0.00612855 0)
(0.0610038 -0.0061304 0)
(0.0623672 -0.00613174 0)
(0.0637308 -0.00613251 0)
(0.0650946 -0.00613269 0)
(0.0664584 -0.00613222 0)
(0.0678221 -0.00613106 0)
(0.0691856 -0.00612916 0)
(0.0705486 -0.00612648 0)
(0.071911 -0.00612296 0)
(0.0732726 -0.00611857 0)
(0.0746333 -0.00611324 0)
(0.0759927 -0.00610693 0)
(0.0773506 -0.00609959 0)
(0.0787069 -0.00609115 0)
(0.0800613 -0.00608157 0)
(0.0814136 -0.00607079 0)
(0.0827633 -0.00605875 0)
(0.0841104 -0.0060454 0)
(0.0854544 -0.00603067 0)
(0.0867951 -0.00601452 0)
(0.0881321 -0.00599687 0)
(0.0894651 -0.00597767 0)
(0.0907938 -0.00595687 0)
(0.0921178 -0.00593439 0)
(0.0934366 -0.00591018 0)
(0.09475 -0.00588417 0)
(0.0960575 -0.00585631 0)
(0.0973587 -0.00582653 0)
(0.0986532 -0.00579478 0)
(0.0999404 -0.00576099 0)
(0.10122 -0.00572511 0)
(0.102492 -0.00568707 0)
(0.103754 -0.00564681 0)
(0.105008 -0.00560429 0)
(0.106252 -0.00555944 0)
(0.107486 -0.00551221 0)
(0.10871 -0.00546254 0)
(0.109922 -0.00541039 0)
(0.111122 -0.0053557 0)
(0.11231 -0.00529844 0)
(0.113485 -0.00523854 0)
(0.114646 -0.00517598 0)
(0.115794 -0.00511071 0)
(0.116926 -0.00504269 0)
(0.118044 -0.0049719 0)
(0.119145 -0.0048983 0)
(0.120229 -0.00482187 0)
(0.121297 -0.00474257 0)
(0.122346 -0.0046604 0)
(0.123377 -0.00457535 0)
(0.124388 -0.00448739 0)
(0.12538 -0.00439652 0)
(0.126351 -0.00430275 0)
(0.127301 -0.00420607 0)
(0.128229 -0.00410649 0)
(0.129135 -0.00400404 0)
(0.130018 -0.00389872 0)
(0.130877 -0.00379057 0)
(0.131711 -0.00367961 0)
(0.132521 -0.00356588 0)
(0.133304 -0.00344942 0)
(0.134062 -0.00333027 0)
(0.134793 -0.00320849 0)
(0.135496 -0.00308414 0)
(0.136171 -0.00295729 0)
(0.136818 -0.00282799 0)
(0.137435 -0.00269633 0)
(0.138023 -0.00256239 0)
(0.138581 -0.00242625 0)
(0.139108 -0.002288 0)
(0.139604 -0.00214775 0)
(0.140068 -0.00200559 0)
(0.140501 -0.00186163 0)
(0.140901 -0.00171598 0)
(0.141268 -0.00156875 0)
(0.141602 -0.00142007 0)
(0.141903 -0.00127006 0)
(0.142171 -0.00111885 0)
(0.142404 -0.000966553 0)
(0.142603 -0.000813317 0)
(0.142768 -0.000659274 0)
(0.142898 -0.000504559 0)
(0.142994 -0.000349312 0)