/*--------------------------------*- C++ -*----------------------------------*\
| =========                 |                                                 |
| \\      /  F ield         | OpenFOAM: The Open Source CFD Toolbox           |
|  \\    /   O peration     | Version:  v2012                                 |
|   \\  /    A nd           | Website:  www.openfoam.com                      |
|    \\/     M anipulation  |                                                 |
\*---------------------------------------------------------------------------*/
FoamFile
{
    version     2.0;
    format      ascii;
    class       volScalarField;
    location    "18.2";
    object      W;
}
// * * * * * * * * * * * * * * * * * * * * * * * * * * * * * * * * * * * * * //

dimensions      [0 0 -1 0 0 0 0];


internalField   nonuniform List<scalar> 
65536
(
5.72717e-15
1.72375e-14
2.89175e-14
4.08841e-14
5.32572e-14
6.61605e-14
7.97223e-14
9.40769e-14
1.09366e-13
1.25739e-13
1.43355e-13
1.62386e-13
1.83013e-13
2.05433e-13
2.29859e-13
2.5652e-13
2.85665e-13
3.17561e-13
3.52502e-13
3.90803e-13
4.3281e-13
4.78895e-13
5.29465e-13
5.84961e-13
6.45861e-13
7.12684e-13
7.85994e-13
8.66402e-13
9.5457e-13
1.05121e-12
1.15711e-12
1.2731e-12
1.40008e-12
1.53904e-12
1.69102e-12
1.85716e-12
2.03868e-12
2.2369e-12
2.45322e-12
2.68914e-12
2.94629e-12
3.2264e-12
3.53129e-12
3.86295e-12
4.22346e-12
4.61505e-12
5.04008e-12
5.50105e-12
6.00059e-12
6.5415e-12
7.12672e-12
7.75933e-12
8.44257e-12
9.17982e-12
9.97463e-12
1.08307e-11
1.17517e-11
1.27418e-11
1.3805e-11
1.49455e-11
1.61675e-11
1.74755e-11
1.8874e-11
2.03674e-11
2.19603e-11
2.36572e-11
2.54627e-11
2.73813e-11
2.94173e-11
3.15751e-11
3.38586e-11
3.62718e-11
3.88183e-11
4.15014e-11
4.43242e-11
4.7289e-11
5.0398e-11
5.36528e-11
5.70541e-11
6.06025e-11
6.42973e-11
6.81375e-11
7.21208e-11
7.62445e-11
8.05046e-11
8.48961e-11
8.94132e-11
9.40488e-11
9.87947e-11
1.03642e-10
1.08579e-10
1.13595e-10
1.18677e-10
1.23811e-10
1.28982e-10
1.34174e-10
1.39368e-10
1.44548e-10
1.49694e-10
1.54785e-10
1.59802e-10
1.64722e-10
1.69525e-10
1.74189e-10
1.78691e-10
1.8301e-10
1.87123e-10
1.91011e-10
1.94651e-10
1.98024e-10
2.01111e-10
2.03895e-10
2.06359e-10
2.08488e-10
2.10269e-10
2.11691e-10
2.12745e-10
2.13423e-10
2.1372e-10
2.13634e-10
2.13165e-10
2.12313e-10
2.11083e-10
2.09481e-10
2.07517e-10
2.05201e-10
2.02546e-10
1.99566e-10
1.96279e-10
1.92703e-10
1.88857e-10
1.84761e-10
1.80439e-10
1.75912e-10
1.71205e-10
1.6634e-10
1.61342e-10
1.56234e-10
1.5104e-10
1.45782e-10
1.40484e-10
1.35167e-10
1.29852e-10
1.24558e-10
1.19303e-10
1.14105e-10
1.0898e-10
1.03941e-10
9.90017e-11
9.41733e-11
8.94658e-11
8.48877e-11
8.04461e-11
7.61466e-11
7.19937e-11
6.79906e-11
6.41394e-11
6.04411e-11
5.68957e-11
5.35024e-11
5.02596e-11
4.71649e-11
4.42154e-11
4.14077e-11
3.87381e-11
3.62023e-11
3.3796e-11
3.15145e-11
2.93531e-11
2.73072e-11
2.53719e-11
2.35426e-11
2.18147e-11
2.01836e-11
1.86451e-11
1.71949e-11
1.58292e-11
1.45441e-11
1.33362e-11
1.2202e-11
1.11384e-11
1.01424e-11
9.21119e-12
8.34222e-12
7.53296e-12
6.78105e-12
6.08421e-12
5.44025e-12
4.84705e-12
4.30252e-12
3.80457e-12
3.35114e-12
2.94015e-12
2.5695e-12
2.23707e-12
1.9407e-12
1.6782e-12
1.44737e-12
1.24595e-12
1.0717e-12
9.22372e-13
7.95704e-13
6.89474e-13
6.01489e-13
5.29606e-13
4.71747e-13
4.25914e-13
3.90204e-13
3.62822e-13
3.42096e-13
3.26494e-13
3.14627e-13
3.05268e-13
2.97355e-13
2.89996e-13
2.82474e-13
2.74242e-13
2.64918e-13
2.54276e-13
2.42231e-13
2.28823e-13
2.14193e-13
1.98565e-13
1.82219e-13
1.6547e-13
1.48645e-13
1.32061e-13
1.1601e-13
1.00749e-13
8.64835e-14
7.33689e-14
6.15061e-14
5.09447e-14
4.16874e-14
3.36969e-14
2.69034e-14
2.12137e-14
1.65187e-14
1.27012e-14
9.64236e-15
7.22692e-15
5.34708e-15
3.90513e-15
2.81496e-15
2.00258e-15
1.40588e-15
9.73873e-16
6.65572e-16
4.48676e-16
2.9821e-16
1.95205e-16
1.25488e-16
7.86034e-17
4.68874e-17
2.46837e-17
7.67764e-18
1.95157e-14
5.8739e-14
9.85437e-14
1.3933e-13
1.8151e-13
2.25505e-13
2.71756e-13
3.20724e-13
3.72893e-13
4.28777e-13
4.88923e-13
5.53916e-13
6.24384e-13
7.01001e-13
7.84498e-13
8.75663e-13
9.75349e-13
1.08448e-12
1.20407e-12
1.33519e-12
1.47904e-12
1.63691e-12
1.81019e-12
2.0004e-12
2.20919e-12
2.43836e-12
2.68985e-12
2.96576e-12
3.26838e-12
3.60018e-12
3.96385e-12
4.36228e-12
4.7986e-12
5.27619e-12
5.79869e-12
6.37001e-12
6.99439e-12
7.67636e-12
8.42078e-12
9.23288e-12
1.01183e-11
1.10829e-11
1.21331e-11
1.32758e-11
1.45182e-11
1.58679e-11
1.73332e-11
1.89227e-11
2.06456e-11
2.25115e-11
2.45305e-11
2.67134e-11
2.90713e-11
3.1616e-11
3.43596e-11
3.7315e-11
4.04953e-11
4.39141e-11
4.75855e-11
5.15241e-11
5.57445e-11
6.02619e-11
6.50917e-11
7.02494e-11
7.57505e-11
8.16106e-11
8.78451e-11
9.44694e-11
1.01498e-10
1.08946e-10
1.16827e-10
1.25154e-10
1.33938e-10
1.43192e-10
1.52924e-10
1.63142e-10
1.73854e-10
1.85063e-10
1.96771e-10
2.0898e-10
2.21687e-10
2.34885e-10
2.48567e-10
2.62721e-10
2.77333e-10
2.92385e-10
3.07853e-10
3.23713e-10
3.39934e-10
3.56483e-10
3.73322e-10
3.90409e-10
4.07697e-10
4.25138e-10
4.42677e-10
4.60257e-10
4.77816e-10
4.95291e-10
5.12615e-10
5.29717e-10
5.46526e-10
5.62968e-10
5.78969e-10
5.94454e-10
6.09346e-10
6.23572e-10
6.37056e-10
6.49729e-10
6.61519e-10
6.72361e-10
6.82192e-10
6.90955e-10
6.98596e-10
7.05069e-10
7.10331e-10
7.14348e-10
7.17094e-10
7.18547e-10
7.18695e-10
7.17535e-10
7.15069e-10
7.11309e-10
7.06275e-10
6.99993e-10
6.92499e-10
6.83834e-10
6.74048e-10
6.63195e-10
6.51336e-10
6.38538e-10
6.2487e-10
6.10407e-10
5.95227e-10
5.79408e-10
5.63032e-10
5.46181e-10
5.28936e-10
5.11379e-10
4.9359e-10
4.75645e-10
4.5762e-10
4.39588e-10
4.21615e-10
4.03767e-10
3.86103e-10
3.68678e-10
3.51543e-10
3.34742e-10
3.18317e-10
3.02302e-10
2.86727e-10
2.71618e-10
2.56996e-10
2.42875e-10
2.29269e-10
2.16184e-10
2.03625e-10
1.91592e-10
1.80083e-10
1.69092e-10
1.58612e-10
1.48632e-10
1.39141e-10
1.30126e-10
1.21571e-10
1.13463e-10
1.05784e-10
9.85176e-11
9.16478e-11
8.51574e-11
7.90297e-11
7.32482e-11
6.77971e-11
6.26607e-11
5.78242e-11
5.32733e-11
4.89944e-11
4.49746e-11
4.12019e-11
3.76649e-11
3.43527e-11
3.12555e-11
2.83638e-11
2.56687e-11
2.31619e-11
2.08355e-11
1.86819e-11
1.66939e-11
1.48644e-11
1.31866e-11
1.16538e-11
1.02593e-11
8.99626e-12
7.85811e-12
6.83805e-12
5.92926e-12
5.12484e-12
4.41785e-12
3.80131e-12
3.26819e-12
2.8115e-12
2.42427e-12
2.09963e-12
1.83081e-12
1.61124e-12
1.43453e-12
1.29455e-12
1.18548e-12
1.10183e-12
1.0385e-12
9.90794e-13
9.54499e-13
9.25868e-13
9.01667e-13
8.79184e-13
8.56236e-13
8.3116e-13
8.02796e-13
7.70455e-13
7.3388e-13
6.93186e-13
6.48805e-13
6.01413e-13
5.51858e-13
5.01094e-13
4.50106e-13
3.99859e-13
3.51236e-13
3.0501e-13
2.61805e-13
2.2209e-13
1.86169e-13
1.54193e-13
1.26167e-13
1.01978e-13
8.14145e-14
6.41932e-14
4.99836e-14
3.84305e-14
2.91739e-14
2.18649e-14
1.61768e-14
1.18139e-14
8.51562e-15
6.05786e-15
4.25268e-15
2.9458e-15
2.01319e-15
1.3571e-15
9.01962e-16
5.90402e-16
3.79533e-16
2.37728e-16
1.41805e-16
7.46522e-17
2.32202e-17
4.10812e-14
1.23651e-13
2.07457e-13
2.93349e-13
3.82199e-13
4.74907e-13
5.72408e-13
6.7568e-13
7.85756e-13
9.0373e-13
1.03077e-12
1.16811e-12
1.3171e-12
1.47919e-12
1.65592e-12
1.84898e-12
2.0602e-12
2.29156e-12
2.5452e-12
2.82347e-12
3.1289e-12
3.46425e-12
3.83254e-12
4.23701e-12
4.68121e-12
5.16899e-12
5.70454e-12
6.29239e-12
6.93746e-12
7.64508e-12
8.42101e-12
9.27151e-12
1.02033e-11
1.12237e-11
1.23406e-11
1.35624e-11
1.48982e-11
1.63579e-11
1.79519e-11
1.96917e-11
2.15891e-11
2.36572e-11
2.59099e-11
2.83617e-11
3.10284e-11
3.39266e-11
3.70741e-11
4.04896e-11
4.41928e-11
4.82046e-11
5.2547e-11
5.72432e-11
6.23173e-11
6.77946e-11
7.37016e-11
8.00656e-11
8.69152e-11
9.42797e-11
1.02189e-10
1.10676e-10
1.1977e-10
1.29505e-10
1.39913e-10
1.51028e-10
1.62882e-10
1.75509e-10
1.88941e-10
2.03211e-10
2.1835e-10
2.34387e-10
2.51352e-10
2.69271e-10
2.88168e-10
3.08066e-10
3.28982e-10
3.50933e-10
3.73929e-10
3.97977e-10
4.23079e-10
4.49233e-10
4.76429e-10
5.04651e-10
5.33877e-10
5.64079e-10
5.9522e-10
6.27255e-10
6.60132e-10
6.93789e-10
7.28156e-10
7.63156e-10
7.98701e-10
8.34695e-10
8.71034e-10
9.07603e-10
9.44283e-10
9.80945e-10
1.01745e-09
1.05366e-09
1.08943e-09
1.1246e-09
1.15901e-09
1.19251e-09
1.22494e-09
1.25613e-09
1.28593e-09
1.31417e-09
1.3407e-09
1.36538e-09
1.38806e-09
1.40861e-09
1.42689e-09
1.44281e-09
1.45626e-09
1.46714e-09
1.47539e-09
1.48094e-09
1.48376e-09
1.48382e-09
1.48111e-09
1.47563e-09
1.46742e-09
1.45651e-09
1.44297e-09
1.42687e-09
1.4083e-09
1.38737e-09
1.3642e-09
1.33893e-09
1.31168e-09
1.28263e-09
1.25192e-09
1.21973e-09
1.18623e-09
1.15158e-09
1.11597e-09
1.07958e-09
1.04257e-09
1.00511e-09
9.67383e-10
9.29535e-10
8.91722e-10
8.54088e-10
8.16768e-10
7.7989e-10
7.43568e-10
7.07908e-10
6.73003e-10
6.38936e-10
6.05779e-10
5.73594e-10
5.42432e-10
5.12332e-10
4.83325e-10
4.55434e-10
4.2867e-10
4.0304e-10
3.7854e-10
3.55163e-10
3.32893e-10
3.11712e-10
2.91594e-10
2.72512e-10
2.54435e-10
2.3733e-10
2.21162e-10
2.05894e-10
1.91488e-10
1.77907e-10
1.65113e-10
1.53069e-10
1.41738e-10
1.31084e-10
1.21072e-10
1.1167e-10
1.02846e-10
9.45692e-11
8.68111e-11
7.95448e-11
7.2745e-11
6.6388e-11
6.04516e-11
5.49152e-11
4.97592e-11
4.49656e-11
4.05175e-11
3.63987e-11
3.25942e-11
2.90893e-11
2.58704e-11
2.29238e-11
2.02366e-11
1.77959e-11
1.55889e-11
1.3603e-11
1.18257e-11
1.02443e-11
8.84623e-12
7.6189e-12
6.5497e-12
5.62605e-12
4.8355e-12
4.1657e-12
3.60453e-12
3.14011e-12
2.76091e-12
2.45581e-12
2.21415e-12
2.02583e-12
1.88134e-12
1.77188e-12
1.68936e-12
1.62653e-12
1.57694e-12
1.53506e-12
1.49622e-12
1.45668e-12
1.41361e-12
1.36502e-12
1.30972e-12
1.24728e-12
1.17788e-12
1.10226e-12
1.02157e-12
9.37236e-13
8.50885e-13
7.64189e-13
6.78779e-13
5.96156e-13
5.17625e-13
4.44245e-13
3.76807e-13
3.15824e-13
2.61547e-13
2.13985e-13
1.72941e-13
1.38053e-13
1.08841e-13
8.47399e-14
6.51473e-14
4.94513e-14
3.70589e-14
2.7416e-14
2.00204e-14
1.44299e-14
1.02645e-14
7.20529e-15
4.99075e-15
3.41053e-15
2.29892e-15
1.52785e-15
1.00005e-15
6.42842e-16
4.02642e-16
2.40169e-16
1.26433e-16
3.93265e-17
7.83807e-14
2.35929e-13
3.95863e-13
5.59822e-13
7.29488e-13
9.06598e-13
1.09296e-12
1.29046e-12
1.5011e-12
1.72699e-12
1.97038e-12
2.23371e-12
2.51955e-12
2.83072e-12
3.17023e-12
3.54136e-12
3.94766e-12
4.39298e-12
4.88152e-12
5.41783e-12
6.00687e-12
6.65403e-12
7.36517e-12
8.14667e-12
9.00546e-12
9.94909e-12
1.09858e-11
1.21243e-11
1.33745e-11
1.47466e-11
1.62522e-11
1.79034e-11
1.97134e-11
2.16967e-11
2.38687e-11
2.62461e-11
2.88469e-11
3.16903e-11
3.47971e-11
3.81896e-11
4.18916e-11
4.59287e-11
5.0328e-11
5.51188e-11
6.03319e-11
6.60003e-11
7.21589e-11
7.88447e-11
8.60967e-11
9.39564e-11
1.02467e-10
1.11674e-10
1.21626e-10
1.32372e-10
1.43964e-10
1.56456e-10
1.69906e-10
1.84369e-10
1.99906e-10
2.16579e-10
2.34448e-10
2.53578e-10
2.74033e-10
2.95876e-10
3.19174e-10
3.43988e-10
3.70383e-10
3.9842e-10
4.28158e-10
4.59654e-10
4.92963e-10
5.28132e-10
5.65207e-10
6.04227e-10
6.45223e-10
6.88221e-10
7.33238e-10
7.8028e-10
8.29345e-10
8.80418e-10
9.33474e-10
9.88473e-10
1.04536e-09
1.10408e-09
1.16453e-09
1.22663e-09
1.29025e-09
1.35527e-09
1.42153e-09
1.48887e-09
1.55711e-09
1.62604e-09
1.69544e-09
1.76508e-09
1.83472e-09
1.90408e-09
1.97289e-09
2.04087e-09
2.10771e-09
2.1731e-09
2.23675e-09
2.29833e-09
2.35752e-09
2.41402e-09
2.46751e-09
2.51769e-09
2.56427e-09
2.60698e-09
2.64554e-09
2.67973e-09
2.7093e-09
2.73408e-09
2.75388e-09
2.76857e-09
2.77804e-09
2.78219e-09
2.781e-09
2.77444e-09
2.76255e-09
2.74536e-09
2.72299e-09
2.69554e-09
2.66319e-09
2.62611e-09
2.58452e-09
2.53866e-09
2.4888e-09
2.43524e-09
2.37827e-09
2.31821e-09
2.2554e-09
2.19019e-09
2.1229e-09
2.05391e-09
1.98354e-09
1.91214e-09
1.84004e-09
1.76757e-09
1.69504e-09
1.62275e-09
1.55096e-09
1.47994e-09
1.40993e-09
1.34115e-09
1.27379e-09
1.20803e-09
1.14402e-09
1.08189e-09
1.02175e-09
9.63685e-10
9.07768e-10
8.54045e-10
8.02548e-10
7.53291e-10
7.06273e-10
6.6148e-10
6.18885e-10
5.78451e-10
5.4013e-10
5.03868e-10
4.69601e-10
4.37263e-10
4.06782e-10
3.78083e-10
3.51091e-10
3.25725e-10
3.0191e-10
2.79567e-10
2.58619e-10
2.38992e-10
2.20613e-10
2.03412e-10
1.87322e-10
1.7228e-10
1.58223e-10
1.45095e-10
1.32841e-10
1.21412e-10
1.10759e-10
1.00839e-10
9.16104e-11
8.30349e-11
7.50771e-11
6.77039e-11
6.08845e-11
5.459e-11
4.87933e-11
4.34688e-11
3.85921e-11
3.41399e-11
3.00896e-11
2.64196e-11
2.31086e-11
2.01356e-11
1.74801e-11
1.51218e-11
1.30406e-11
1.12165e-11
9.62982e-12
8.26101e-12
7.09089e-12
6.1006e-12
5.27169e-12
4.58623e-12
4.02689e-12
3.57701e-12
3.22073e-12
2.94302e-12
2.72986e-12
2.56822e-12
2.44625e-12
2.35325e-12
2.27983e-12
2.21785e-12
2.16054e-12
2.10245e-12
2.03942e-12
1.96856e-12
1.88817e-12
1.79758e-12
1.69707e-12
1.58768e-12
1.47107e-12
1.3493e-12
1.2247e-12
1.09967e-12
9.7655e-13
8.57503e-13
7.44396e-13
6.38745e-13
5.4168e-13
4.53934e-13
3.75857e-13
3.07456e-13
2.48444e-13
1.98295e-13
1.56312e-13
1.21682e-13
9.35355e-14
7.09907e-14
5.3194e-14
3.9348e-14
2.87305e-14
2.07056e-14
1.4727e-14
1.03369e-14
7.1592e-15
4.89196e-15
3.29725e-15
2.19117e-15
1.43412e-15
9.21813e-16
5.77344e-16
3.4436e-16
1.81278e-16
5.63851e-17
1.44236e-13
4.34175e-13
7.28559e-13
1.03044e-12
1.34296e-12
1.66934e-12
2.01296e-12
2.37735e-12
2.76623e-12
3.18356e-12
3.63355e-12
4.12074e-12
4.64999e-12
5.22653e-12
5.85606e-12
6.54472e-12
7.29918e-12
8.12671e-12
9.03519e-12
1.00332e-11
1.11301e-11
1.23361e-11
1.36622e-11
1.51205e-11
1.67241e-11
1.84873e-11
2.04256e-11
2.25559e-11
2.48965e-11
2.74672e-11
3.02896e-11
3.3387e-11
3.67846e-11
4.05098e-11
4.45919e-11
4.90628e-11
5.39566e-11
5.93103e-11
6.51635e-11
7.15586e-11
7.85413e-11
8.61602e-11
9.44675e-11
1.03519e-10
1.13373e-10
1.24094e-10
1.35748e-10
1.48405e-10
1.62141e-10
1.77035e-10
1.93169e-10
2.10631e-10
2.29513e-10
2.49909e-10
2.7192e-10
2.95648e-10
3.212e-10
3.48688e-10
3.78224e-10
4.09924e-10
4.43907e-10
4.80293e-10
5.19204e-10
5.6076e-10
6.05083e-10
6.52293e-10
7.02508e-10
7.55842e-10
8.12405e-10
8.72302e-10
9.3563e-10
1.00248e-09
1.07292e-09
1.14703e-09
1.22486e-09
1.30644e-09
1.3918e-09
1.48093e-09
1.57383e-09
1.67045e-09
1.77072e-09
1.87456e-09
1.98185e-09
2.09243e-09
2.20613e-09
2.32275e-09
2.44203e-09
2.56372e-09
2.68749e-09
2.81301e-09
2.9399e-09
3.06776e-09
3.19615e-09
3.32459e-09
3.4526e-09
3.57965e-09
3.7052e-09
3.82868e-09
3.94951e-09
4.0671e-09
4.18086e-09
4.29017e-09
4.39446e-09
4.49311e-09
4.58556e-09
4.67125e-09
4.74966e-09
4.82027e-09
4.88262e-09
4.9363e-09
4.98092e-09
5.01617e-09
5.04177e-09
5.05752e-09
5.06326e-09
5.05892e-09
5.04447e-09
5.01998e-09
4.98555e-09
4.94138e-09
4.8877e-09
4.82484e-09
4.75316e-09
4.67309e-09
4.5851e-09
4.48972e-09
4.3875e-09
4.27905e-09
4.165e-09
4.04597e-09
3.92265e-09
3.79568e-09
3.66575e-09
3.53352e-09
3.39964e-09
3.26475e-09
3.12945e-09
2.99435e-09
2.85998e-09
2.72688e-09
2.59553e-09
2.46637e-09
2.33981e-09
2.21619e-09
2.09584e-09
1.97902e-09
1.86597e-09
1.75687e-09
1.65186e-09
1.55106e-09
1.45453e-09
1.36232e-09
1.27443e-09
1.19084e-09
1.1115e-09
1.03634e-09
9.65268e-10
8.98184e-10
8.34964e-10
7.75476e-10
7.19579e-10
6.67124e-10
6.17958e-10
5.71926e-10
5.28872e-10
4.88638e-10
4.51071e-10
4.16021e-10
3.83339e-10
3.52884e-10
3.2452e-10
2.98116e-10
2.73547e-10
2.50697e-10
2.29455e-10
2.09716e-10
1.91384e-10
1.74368e-10
1.58584e-10
1.43954e-10
1.30405e-10
1.17871e-10
1.0629e-10
9.56034e-11
8.57592e-11
7.67079e-11
6.84032e-11
6.08022e-11
5.3864e-11
4.75504e-11
4.18247e-11
3.66518e-11
3.19979e-11
2.78303e-11
2.4117e-11
2.08271e-11
1.79301e-11
1.53962e-11
1.31962e-11
1.13016e-11
9.6846e-12
8.318e-12
7.17549e-12
6.23165e-12
5.46205e-12
4.84336e-12
4.35348e-12
3.97157e-12
3.67824e-12
3.45559e-12
3.28734e-12
3.1589e-12
3.05741e-12
2.97185e-12
2.89299e-12
2.81345e-12
2.7276e-12
2.63155e-12
2.52296e-12
2.40094e-12
2.26583e-12
2.11903e-12
1.96273e-12
1.79969e-12
1.633e-12
1.46586e-12
1.30138e-12
1.14243e-12
9.9148e-13
8.50548e-13
7.21124e-13
6.04169e-13
5.00139e-13
4.09033e-13
3.30455e-13
2.637e-13
2.07829e-13
1.61757e-13
1.24318e-13
9.4338e-14
7.0677e-14
5.22723e-14
3.81617e-14
2.74987e-14
1.95561e-14
1.37247e-14
9.50444e-15
6.49377e-15
4.37643e-15
2.90806e-15
1.90315e-15
1.2232e-15
7.66053e-16
4.56891e-16
2.40507e-16
7.48063e-17
2.59808e-13
7.821e-13
1.3125e-12
1.85659e-12
2.42008e-12
3.00888e-12
3.62914e-12
4.28731e-12
4.99022e-12
5.74509e-12
6.55967e-12
7.44226e-12
8.40177e-12
9.44785e-12
1.05909e-11
1.18424e-11
1.32144e-11
1.47205e-11
1.63751e-11
1.81942e-11
2.01949e-11
2.23962e-11
2.48185e-11
2.74842e-11
3.04176e-11
3.36452e-11
3.71959e-11
4.11009e-11
4.53944e-11
5.01132e-11
5.52975e-11
6.09908e-11
6.72401e-11
7.40964e-11
8.16146e-11
8.98542e-11
9.88792e-11
1.08758e-10
1.19566e-10
1.31382e-10
1.44291e-10
1.58385e-10
1.73762e-10
1.90525e-10
2.08787e-10
2.28664e-10
2.50284e-10
2.73777e-10
2.99287e-10
3.26959e-10
3.56952e-10
3.89428e-10
4.24559e-10
4.62525e-10
5.03512e-10
5.47715e-10
5.95333e-10
6.46574e-10
7.0165e-10
7.60779e-10
8.24181e-10
8.92081e-10
9.64704e-10
1.04228e-09
1.12502e-09
1.21317e-09
1.30692e-09
1.4065e-09
1.5121e-09
1.62392e-09
1.74212e-09
1.86686e-09
1.99828e-09
2.13649e-09
2.28157e-09
2.43359e-09
2.59257e-09
2.75848e-09
2.93127e-09
3.11085e-09
3.29705e-09
3.4897e-09
3.68853e-09
3.89324e-09
4.10346e-09
4.31876e-09
4.53865e-09
4.76258e-09
4.98994e-09
5.22004e-09
5.45215e-09
5.68546e-09
5.91911e-09
6.1522e-09
6.38374e-09
6.61274e-09
6.83815e-09
7.05889e-09
7.27385e-09
7.48191e-09
7.68194e-09
7.87282e-09
8.05345e-09
8.22272e-09
8.37959e-09
8.52306e-09
8.65217e-09
8.76604e-09
8.86387e-09
8.94494e-09
9.00864e-09
9.05445e-09
9.08197e-09
9.09092e-09
9.08113e-09
9.05259e-09
9.00538e-09
8.93972e-09
8.85598e-09
8.75462e-09
8.63624e-09
8.50155e-09
8.35136e-09
8.18658e-09
8.00821e-09
7.81733e-09
7.61508e-09
7.40264e-09
7.18125e-09
6.95216e-09
6.71665e-09
6.47599e-09
6.23142e-09
5.9842e-09
5.73551e-09
5.48652e-09
5.23833e-09
4.99196e-09
4.7484e-09
4.50854e-09
4.27319e-09
4.04308e-09
3.81888e-09
3.60113e-09
3.39033e-09
3.18687e-09
2.99107e-09
2.80317e-09
2.62334e-09
2.45168e-09
2.28823e-09
2.13297e-09
1.98582e-09
1.84666e-09
1.71533e-09
1.59162e-09
1.47533e-09
1.36618e-09
1.26392e-09
1.16824e-09
1.07886e-09
9.95476e-10
9.17771e-10
8.45442e-10
7.78185e-10
7.15701e-10
6.57698e-10
6.03894e-10
5.54017e-10
5.07808e-10
4.65017e-10
4.25411e-10
3.88767e-10
3.54878e-10
3.23549e-10
2.94597e-10
2.67855e-10
2.43165e-10
2.20382e-10
1.99374e-10
1.80016e-10
1.62195e-10
1.45807e-10
1.30756e-10
1.16954e-10
1.04318e-10
9.2773e-11
8.22489e-11
7.26799e-11
6.40045e-11
5.61649e-11
4.91061e-11
4.27761e-11
3.71247e-11
3.21041e-11
2.76679e-11
2.37716e-11
2.03717e-11
1.74265e-11
1.48952e-11
1.27388e-11
1.09193e-11
9.40033e-12
8.14698e-12
7.12595e-12
6.30563e-12
5.65624e-12
5.1499e-12
4.76075e-12
4.46503e-12
4.24123e-12
4.07012e-12
3.93484e-12
3.82092e-12
3.71634e-12
3.61145e-12
3.49895e-12
3.37375e-12
3.2328e-12
3.07494e-12
2.90058e-12
2.7115e-12
2.51049e-12
2.30106e-12
2.08717e-12
1.87288e-12
1.66217e-12
1.45867e-12
1.26555e-12
1.08533e-12
9.19911e-13
7.70499e-13
6.37657e-13
5.21364e-13
4.21101e-13
3.35953e-13
2.64713e-13
2.05984e-13
1.58276e-13
1.20082e-13
8.99464e-14
6.65114e-14
4.85485e-14
3.49773e-14
2.48707e-14
1.74519e-14
1.20838e-14
8.25499e-15
5.5627e-15
3.69588e-15
2.41848e-15
1.55426e-15
9.73304e-16
5.80459e-16
3.05538e-16
9.50312e-17
4.5986e-13
1.38438e-12
2.32346e-12
3.28708e-12
4.2855e-12
5.32933e-12
6.42961e-12
7.59794e-12
8.84658e-12
1.01886e-11
1.16378e-11
1.32093e-11
1.49192e-11
1.67848e-11
1.8825e-11
2.10604e-11
2.35132e-11
2.62077e-11
2.91703e-11
3.24297e-11
3.60175e-11
3.99677e-11
4.43179e-11
4.91088e-11
5.43846e-11
6.01938e-11
6.6589e-11
7.36275e-11
8.13716e-11
8.98889e-11
9.92531e-11
1.09544e-10
1.20847e-10
1.33257e-10
1.46874e-10
1.61808e-10
1.78177e-10
1.96107e-10
2.15734e-10
2.37206e-10
2.60681e-10
2.86325e-10
3.14322e-10
3.44861e-10
3.7815e-10
4.14406e-10
4.53862e-10
4.96764e-10
5.43371e-10
5.93958e-10
6.48815e-10
7.08244e-10
7.72563e-10
8.42104e-10
9.17213e-10
9.98248e-10
1.08558e-09
1.17959e-09
1.28068e-09
1.38924e-09
1.50568e-09
1.63041e-09
1.76386e-09
1.90643e-09
2.05853e-09
2.22058e-09
2.39296e-09
2.57606e-09
2.77024e-09
2.97584e-09
3.19316e-09
3.42248e-09
3.66404e-09
3.91802e-09
4.18456e-09
4.46373e-09
4.75556e-09
5.05997e-09
5.37683e-09
5.70591e-09
6.04691e-09
6.39941e-09
6.76289e-09
7.13673e-09
7.5202e-09
7.91245e-09
8.31252e-09
8.71933e-09
9.13166e-09
9.5482e-09
9.96752e-09
1.03881e-08
1.08082e-08
1.12261e-08
1.16401e-08
1.20481e-08
1.24483e-08
1.28384e-08
1.32166e-08
1.35807e-08
1.39287e-08
1.42583e-08
1.45677e-08
1.48549e-08
1.51179e-08
1.53549e-08
1.55644e-08
1.57447e-08
1.58945e-08
1.60126e-08
1.6098e-08
1.615e-08
1.61679e-08
1.61514e-08
1.61005e-08
1.60153e-08
1.58961e-08
1.57436e-08
1.55588e-08
1.53426e-08
1.50963e-08
1.48216e-08
1.452e-08
1.41935e-08
1.38441e-08
1.34738e-08
1.3085e-08
1.26799e-08
1.22609e-08
1.18304e-08
1.13908e-08
1.09443e-08
1.04934e-08
1.00403e-08
9.58715e-09
9.13597e-09
8.6887e-09
8.24715e-09
7.81297e-09
7.38768e-09
6.9726e-09
6.56893e-09
6.17768e-09
5.79973e-09
5.43576e-09
5.08634e-09
4.75186e-09
4.4326e-09
4.1287e-09
3.84017e-09
3.56692e-09
3.30878e-09
3.06547e-09
2.83664e-09
2.62189e-09
2.42075e-09
2.2327e-09
2.05722e-09
1.89374e-09
1.74167e-09
1.60042e-09
1.4694e-09
1.34802e-09
1.23569e-09
1.13185e-09
1.03595e-09
9.47443e-10
8.65828e-10
7.90615e-10
7.21342e-10
6.5757e-10
5.9889e-10
5.44915e-10
4.95287e-10
4.49672e-10
4.07759e-10
3.69262e-10
3.33918e-10
3.01483e-10
2.71735e-10
2.44469e-10
2.19499e-10
1.96653e-10
1.75775e-10
1.5672e-10
1.39357e-10
1.23565e-10
1.09231e-10
9.62532e-11
8.45347e-11
7.3986e-11
6.45232e-11
5.60672e-11
4.85432e-11
4.18802e-11
3.60106e-11
3.08698e-11
2.63959e-11
2.25298e-11
1.92147e-11
1.63963e-11
1.40226e-11
1.20442e-11
1.04139e-11
9.08717e-12
8.02202e-12
7.17909e-12
6.52174e-12
6.0162e-12
5.6316e-12
5.34007e-12
5.11684e-12
4.94024e-12
4.79175e-12
4.65599e-12
4.5207e-12
4.37656e-12
4.21709e-12
4.03843e-12
3.83907e-12
3.61949e-12
3.38189e-12
3.12973e-12
2.86738e-12
2.59974e-12
2.33189e-12
2.06873e-12
1.81478e-12
1.57394e-12
1.34933e-12
1.14329e-12
9.5729e-13
7.91996e-13
6.47361e-13
5.22716e-13
4.16905e-13
3.28411e-13
2.55484e-13
1.96263e-13
1.48867e-13
1.11483e-13
8.24187e-14
6.01474e-14
4.33254e-14
3.0801e-14
2.16094e-14
1.49601e-14
1.02183e-14
6.88471e-15
4.57361e-15
2.99248e-15
1.92293e-15
1.20405e-15
7.18017e-16
3.77923e-16
1.17541e-16
8.00717e-13
2.41063e-12
4.04624e-12
5.72517e-12
7.46553e-12
9.28606e-12
1.12063e-11
1.32467e-11
1.5429e-11
1.77763e-11
2.03133e-11
2.30665e-11
2.60646e-11
2.93386e-11
3.2922e-11
3.68513e-11
4.11663e-11
4.59102e-11
5.11303e-11
5.6878e-11
6.32096e-11
7.01863e-11
7.78752e-11
8.63494e-11
9.56884e-11
1.05979e-10
1.17317e-10
1.29804e-10
1.43552e-10
1.58685e-10
1.75334e-10
1.93644e-10
2.1377e-10
2.35881e-10
2.60161e-10
2.86807e-10
3.16033e-10
3.48068e-10
3.83161e-10
4.21578e-10
4.63604e-10
5.09547e-10
5.59735e-10
6.14517e-10
6.74269e-10
7.39387e-10
8.10295e-10
8.87442e-10
9.713e-10
1.06237e-09
1.16118e-09
1.26829e-09
1.38427e-09
1.50973e-09
1.64531e-09
1.79165e-09
1.94943e-09
2.11935e-09
2.30214e-09
2.49851e-09
2.70921e-09
2.93499e-09
3.17662e-09
3.43483e-09
3.71039e-09
4.00402e-09
4.31643e-09
4.64831e-09
5.0003e-09
5.37301e-09
5.76698e-09
6.1827e-09
6.62055e-09
7.08087e-09
7.56386e-09
8.06962e-09
8.59814e-09
9.14925e-09
9.72264e-09
1.03179e-08
1.09343e-08
1.1571e-08
1.22271e-08
1.29013e-08
1.35922e-08
1.42982e-08
1.50173e-08
1.57476e-08
1.64868e-08
1.72322e-08
1.79812e-08
1.87309e-08
1.94782e-08
2.02198e-08
2.09522e-08
2.16719e-08
2.23752e-08
2.30583e-08
2.37174e-08
2.43487e-08
2.49484e-08
2.55127e-08
2.6038e-08
2.65207e-08
2.69574e-08
2.73451e-08
2.76807e-08
2.79618e-08
2.81859e-08
2.83512e-08
2.8456e-08
2.84993e-08
2.84803e-08
2.83987e-08
2.82547e-08
2.80488e-08
2.77822e-08
2.74563e-08
2.70731e-08
2.6635e-08
2.61445e-08
2.5605e-08
2.50196e-08
2.43921e-08
2.37265e-08
2.30268e-08
2.22974e-08
2.15424e-08
2.07665e-08
1.9974e-08
1.91692e-08
1.83564e-08
1.754e-08
1.67237e-08
1.59115e-08
1.51069e-08
1.43132e-08
1.35336e-08
1.27708e-08
1.20272e-08
1.1305e-08
1.06061e-08
9.93205e-09
9.28411e-09
8.66324e-09
8.07016e-09
7.5053e-09
6.96886e-09
6.46082e-09
5.98097e-09
5.52889e-09
5.10402e-09
4.70568e-09
4.33303e-09
3.98518e-09
3.66113e-09
3.35984e-09
3.08021e-09
2.82115e-09
2.58151e-09
2.36018e-09
2.15603e-09
1.96798e-09
1.79495e-09
1.63591e-09
1.48988e-09
1.35589e-09
1.23306e-09
1.12052e-09
1.01747e-09
9.23167e-10
8.36897e-10
7.58008e-10
6.85894e-10
6.19994e-10
5.59791e-10
5.04811e-10
4.54619e-10
4.08815e-10
3.67037e-10
3.28953e-10
2.9426e-10
2.62685e-10
2.33975e-10
2.07903e-10
1.84261e-10
1.62859e-10
1.43522e-10
1.26091e-10
1.10418e-10
9.63674e-11
8.38121e-11
7.26346e-11
6.27245e-11
5.39781e-11
4.6298e-11
3.95918e-11
3.37722e-11
2.87565e-11
2.44661e-11
2.08267e-11
1.77677e-11
1.52225e-11
1.31282e-11
1.1426e-11
1.00604e-11
8.98009e-12
8.13759e-12
7.48925e-12
6.99546e-12
6.62059e-12
6.33312e-12
6.10556e-12
5.91454e-12
5.74068e-12
5.56854e-12
5.38646e-12
5.18629e-12
4.9632e-12
4.71523e-12
4.44297e-12
4.14905e-12
3.83771e-12
3.51429e-12
3.18478e-12
2.85536e-12
2.53204e-12
2.22029e-12
1.92485e-12
1.64954e-12
1.39713e-12
1.16941e-12
9.67153e-13
7.90265e-13
6.37899e-13
5.08614e-13
4.00533e-13
3.11502e-13
2.3923e-13
1.8141e-13
1.35819e-13
1.00386e-13
7.32431e-14
5.2747e-14
3.74913e-14
2.62981e-14
1.82027e-14
1.2431e-14
8.37419e-15
5.56227e-15
3.63885e-15
2.33799e-15
1.46379e-15
8.72827e-16
4.59377e-16
1.42871e-16
1.3721e-12
4.13104e-12
6.93463e-12
9.8135e-12
1.27991e-11
1.59241e-11
1.92224e-11
2.27296e-11
2.64837e-11
3.0525e-11
3.48964e-11
3.96445e-11
4.48193e-11
5.0475e-11
5.66705e-11
6.34698e-11
7.09427e-11
7.91652e-11
8.82205e-11
9.8199e-11
1.092e-10
1.21332e-10
1.34712e-10
1.4947e-10
1.65747e-10
1.83697e-10
2.03487e-10
2.253e-10
2.49335e-10
2.7581e-10
3.04959e-10
3.37038e-10
3.72326e-10
4.11124e-10
4.53757e-10
5.00578e-10
5.51968e-10
6.08339e-10
6.70133e-10
7.37828e-10
8.11934e-10
8.93001e-10
9.81617e-10
1.07841e-09
1.18405e-09
1.29926e-09
1.42479e-09
1.56145e-09
1.71009e-09
1.87161e-09
2.04696e-09
2.23715e-09
2.4432e-09
2.66623e-09
2.90735e-09
3.16776e-09
3.44866e-09
3.75133e-09
4.07705e-09
4.42714e-09
4.80293e-09
5.20577e-09
5.63704e-09
6.09807e-09
6.59021e-09
7.11477e-09
7.67302e-09
8.26619e-09
8.89542e-09
9.56177e-09
1.02662e-08
1.10096e-08
1.17925e-08
1.26156e-08
1.34792e-08
1.43833e-08
1.5328e-08
1.63128e-08
1.73371e-08
1.83999e-08
1.95001e-08
2.0636e-08
2.18057e-08
2.30068e-08
2.42368e-08
2.54923e-08
2.67701e-08
2.80661e-08
2.93761e-08
3.06954e-08
3.2019e-08
3.33413e-08
3.46568e-08
3.59592e-08
3.72423e-08
3.84995e-08
3.97241e-08
4.09093e-08
4.2048e-08
4.31334e-08
4.41587e-08
4.51169e-08
4.60017e-08
4.68068e-08
4.75263e-08
4.81547e-08
4.86869e-08
4.91187e-08
4.94461e-08
4.96661e-08
4.97762e-08
4.97749e-08
4.96612e-08
4.94352e-08
4.90976e-08
4.86502e-08
4.80954e-08
4.74365e-08
4.66776e-08
4.58233e-08
4.48792e-08
4.38513e-08
4.27461e-08
4.15709e-08
4.03328e-08
3.90399e-08
3.76998e-08
3.63208e-08
3.49109e-08
3.34782e-08
3.20304e-08
3.05754e-08
2.91204e-08
2.76725e-08
2.62384e-08
2.48241e-08
2.34353e-08
2.20771e-08
2.07541e-08
1.94703e-08
1.82291e-08
1.70333e-08
1.58853e-08
1.47869e-08
1.37392e-08
1.27431e-08
1.17989e-08
1.09065e-08
1.00653e-08
9.27474e-09
8.53358e-09
7.8405e-09
7.19394e-09
6.59218e-09
6.03333e-09
5.51542e-09
5.03641e-09
4.5942e-09
4.18669e-09
3.81177e-09
3.46737e-09
3.15146e-09
2.86206e-09
2.59726e-09
2.35525e-09
2.13427e-09
1.93268e-09
1.74892e-09
1.58153e-09
1.42914e-09
1.29047e-09
1.16436e-09
1.0497e-09
9.45484e-10
8.50799e-10
7.64794e-10
6.86697e-10
6.15801e-10
5.51467e-10
4.9311e-10
4.40202e-10
3.92265e-10
3.48863e-10
3.09605e-10
2.74133e-10
2.42126e-10
2.13289e-10
1.87357e-10
1.64085e-10
1.43251e-10
1.24653e-10
1.081e-10
9.34214e-11
8.0455e-11
6.90516e-11
5.90717e-11
5.0385e-11
4.28692e-11
3.64095e-11
3.08981e-11
2.62339e-11
2.23219e-11
1.90731e-11
1.6404e-11
1.42373e-11
1.25006e-11
1.11274e-11
1.00565e-11
9.23189e-12
8.60319e-12
8.12522e-12
7.75817e-12
7.46751e-12
7.22393e-12
7.00325e-12
6.78623e-12
6.55834e-12
6.3095e-12
6.03364e-12
5.72833e-12
5.39418e-12
5.03436e-12
4.654e-12
4.25953e-12
3.85818e-12
3.45743e-12
3.06449e-12
2.68597e-12
2.32756e-12
1.9938e-12
1.68803e-12
1.41234e-12
1.16763e-12
9.53725e-13
7.69573e-13
6.13394e-13
4.8289e-13
3.75435e-13
2.88243e-13
2.18514e-13
1.63554e-13
1.20854e-13
8.81546e-14
6.34708e-14
4.51034e-14
3.16309e-14
2.18895e-14
1.4946e-14
1.00667e-14
6.68537e-15
4.37293e-15
2.80927e-15
1.75865e-15
1.04854e-15
5.5182e-16
1.71615e-16
2.31439e-12
6.96841e-12
1.16988e-11
1.65581e-11
2.16e-11
2.68804e-11
3.24574e-11
3.83924e-11
4.47501e-11
5.15998e-11
5.90156e-11
6.70774e-11
7.58714e-11
8.54911e-11
9.60381e-11
1.07623e-10
1.20367e-10
1.344e-10
1.49868e-10
1.66927e-10
1.85749e-10
2.06523e-10
2.29453e-10
2.54765e-10
2.82703e-10
3.13536e-10
3.47558e-10
3.85086e-10
4.26469e-10
4.72087e-10
5.22351e-10
5.7771e-10
6.38651e-10
7.05703e-10
7.79439e-10
8.60478e-10
9.49491e-10
1.0472e-09
1.15439e-09
1.2719e-09
1.40062e-09
1.54154e-09
1.69569e-09
1.86418e-09
2.0482e-09
2.24901e-09
2.46796e-09
2.70648e-09
2.96608e-09
3.24835e-09
3.555e-09
3.88777e-09
4.24854e-09
4.63923e-09
5.06188e-09
5.51858e-09
6.0115e-09
6.54288e-09
7.11502e-09
7.73025e-09
8.39096e-09
9.09956e-09
9.85845e-09
1.06701e-08
1.15367e-08
1.24608e-08
1.34446e-08
1.44902e-08
1.55996e-08
1.67747e-08
1.80172e-08
1.93286e-08
2.07099e-08
2.21622e-08
2.36859e-08
2.52812e-08
2.69477e-08
2.86849e-08
3.04914e-08
3.23655e-08
3.43047e-08
3.63061e-08
3.83661e-08
4.04804e-08
4.26438e-08
4.48509e-08
4.7095e-08
4.9369e-08
5.16651e-08
5.39746e-08
5.62884e-08
5.85965e-08
6.08885e-08
6.31534e-08
6.53796e-08
6.75554e-08
6.96685e-08
7.17068e-08
7.36577e-08
7.55089e-08
7.72481e-08
7.88635e-08
8.03435e-08
8.16772e-08
8.28542e-08
8.38653e-08
8.47019e-08
8.53565e-08
8.5823e-08
8.60963e-08
8.61729e-08
8.60505e-08
8.57284e-08
8.52074e-08
8.44899e-08
8.35795e-08
8.24817e-08
8.12031e-08
7.97518e-08
7.81371e-08
7.63696e-08
7.44608e-08
7.24231e-08
7.02697e-08
6.80145e-08
6.56716e-08
6.32556e-08
6.07811e-08
5.82626e-08
5.57145e-08
5.31507e-08
5.05849e-08
4.80297e-08
4.54975e-08
4.29994e-08
4.05459e-08
3.81465e-08
3.58095e-08
3.35424e-08
3.13515e-08
2.92421e-08
2.72185e-08
2.52839e-08
2.34408e-08
2.16905e-08