/*--------------------------------*- C++ -*----------------------------------*\
| =========                 |                                                 |
| \\      /  F ield         | OpenFOAM: The Open Source CFD Toolbox           |
|  \\    /   O peration     | Version:  v2012                                 |
|   \\  /    A nd           | Website:  www.openfoam.com                      |
|    \\/     M anipulation  |                                                 |
\*---------------------------------------------------------------------------*/
FoamFile
{
    version     2.0;
    format      ascii;
    class       surfaceScalarField;
    location    "20";
    object      phi;
}
// * * * * * * * * * * * * * * * * * * * * * * * * * * * * * * * * * * * * * //

dimensions      [0 3 -1 0 0 0 0];
oriented        oriented;


internalField   nonuniform List<scalar> 
130560
(
3.19312e-06
-3.19312e-06
6.38636e-06
-3.19324e-06
9.57983e-06
-3.19347e-06
1.27736e-05
-3.1938e-06
1.59679e-05
-3.19425e-06
1.91627e-05
-3.19481e-06
2.23582e-05
-3.19548e-06
2.55544e-05
-3.19626e-06
2.87516e-05
-3.19714e-06
3.19497e-05
-3.19812e-06
3.51489e-05
-3.1992e-06
3.83493e-05
-3.20037e-06
4.15509e-05
-3.20164e-06
4.47539e-05
-3.203e-06
4.79583e-05
-3.20444e-06
5.11643e-05
-3.20597e-06
5.43719e-05
-3.20757e-06
5.75811e-05
-3.20924e-06
6.07921e-05
-3.21097e-06
6.40049e-05
-3.21276e-06
6.72195e-05
-3.21461e-06
7.0436e-05
-3.2165e-06
7.36544e-05
-3.21843e-06
7.68748e-05
-3.22039e-06
8.00972e-05
-3.22238e-06
8.33216e-05
-3.22438e-06
8.65479e-05
-3.22639e-06
8.97764e-05
-3.2284e-06
9.30068e-05
-3.2304e-06
9.62391e-05
-3.23238e-06
9.94735e-05
-3.23433e-06
0.00010271
-3.23623e-06
0.000105948
-3.23808e-06
0.000109188
-3.23987e-06
0.000112429
-3.24158e-06
0.000115672
-3.24321e-06
0.000118917
-3.24473e-06
0.000122163
-3.24614e-06
0.000125411
-3.24741e-06
0.000128659
-3.24855e-06
0.000131909
-3.24953e-06
0.000135159
-3.25033e-06
0.00013841
-3.25094e-06
0.000141661
-3.25135e-06
0.000144913
-3.25153e-06
0.000148164
-3.25147e-06
0.000151416
-3.25116e-06
0.000154666
-3.25056e-06
0.000157916
-3.24967e-06
0.000161164
-3.24847e-06
0.000164411
-3.24692e-06
0.000167656
-3.24502e-06
0.000170899
-3.24274e-06
0.000174139
-3.24006e-06
0.000177376
-3.23696e-06
0.000180609
-3.23341e-06
0.000183839
-3.22939e-06
0.000187064
-3.22488e-06
0.000190284
-3.21985e-06
0.000193498
-3.21428e-06
0.000196706
-3.20814e-06
0.000199907
-3.2014e-06
0.000203101
-3.19405e-06
0.000206287
-3.18605e-06
0.000209465
-3.17737e-06
0.000212633
-3.168e-06
0.000215791
-3.15789e-06
0.000218938
-3.14703e-06
0.000222073
-3.13539e-06
0.000225196
-3.12292e-06
0.000228306
-3.10962e-06
0.000231401
-3.09545e-06
0.000234481
-3.08037e-06
0.000237546
-3.06437e-06
0.000240593
-3.04741e-06
0.000243623
-3.02946e-06
0.000246633
-3.0105e-06
0.000249624
-2.99049e-06
0.000252593
-2.96941e-06
0.00025554
-2.94723e-06
0.000258464
-2.92392e-06
0.000261364
-2.89946e-06
0.000264238
-2.87382e-06
0.000267085
-2.84697e-06
0.000269903
-2.81888e-06
0.000272693
-2.78954e-06
0.000275452
-2.75892e-06
0.000278179
-2.727e-06
0.000280873
-2.69375e-06
0.000283532
-2.65916e-06
0.000286155
-2.62321e-06
0.000288741
-2.58587e-06
0.000291288
-2.54714e-06
0.000293795
-2.50699e-06
0.00029626
-2.46542e-06
0.000298683
-2.42241e-06
0.000301061
-2.37796e-06
0.000303393
-2.33205e-06
0.000305678
-2.28468e-06
0.000307913
-2.23585e-06
0.000310099
-2.18556e-06
0.000312233
-2.1338e-06
0.000314313
-2.08058e-06
0.000316339
-2.02591e-06
0.000318309
-1.9698e-06
0.000320221
-1.91225e-06
0.000322075
-1.85328e-06
0.000323867
-1.7929e-06
0.000325599
-1.73114e-06
0.000327267
-1.66802e-06
0.00032887
-1.60355e-06
0.000330408
-1.53778e-06
0.000331879
-1.47072e-06
0.000333281
-1.40241e-06
0.000334614
-1.3329e-06
0.000335876
-1.2622e-06
0.000337067
-1.19038e-06
0.000338184
-1.11746e-06
0.000339228
-1.04351e-06
0.000340196
-9.68562e-07
0.000341089
-8.92675e-07
0.000341905
-8.15902e-07
0.000342643
-7.383e-07
0.000343303
-6.59928e-07
0.000343884
-5.80847e-07
0.000344385
-5.0112e-07
0.000344806
-4.20812e-07
0.000345146
-3.39989e-07
0.000345404
-2.5872e-07
0.000345581
-1.77074e-07
0.000345677
-9.51209e-08
0.00034569
-1.29325e-08
0.00034562
6.94192e-08
0.000345468
1.51861e-07
0.000345234
2.34321e-07
0.000344917
3.16724e-07
0.000344518
3.98998e-07
0.000344037
4.8107e-07
0.000343474
5.62867e-07
0.00034283
6.44317e-07
0.000342105
7.2535e-07
0.000341299
8.05895e-07
0.000340413
8.85884e-07
0.000339448
9.65249e-07
0.000338404
1.04392e-06
0.000337282
1.12185e-06
0.000336083
1.19895e-06
0.000334808
1.27519e-06
0.000333457
1.35048e-06
0.000332032
1.42479e-06
0.000330534
1.49806e-06
0.000328964
1.57024e-06
0.000327323
1.64128e-06
0.000325612
1.71113e-06
0.000323832
1.77976e-06
0.000321985
1.84712e-06
0.000320072
1.91318e-06
0.000318094
1.9779e-06
0.000316052
2.04126e-06
0.000313949
2.10323e-06
0.000311785
2.16377e-06
0.000309563
2.22288e-06
0.000307282
2.28053e-06
0.000304945
2.3367e-06
0.000302554
2.39139e-06
0.000300109
2.44458e-06
0.000297613
2.49626e-06
0.000295067
2.54644e-06
0.000292472
2.5951e-06
0.000289829
2.64226e-06
0.000287141
2.6879e-06
0.000284409
2.73204e-06
0.000281635
2.77469e-06
0.000278819
2.81585e-06
0.000275963
2.85553e-06
0.00027307
2.89375e-06
0.000270139
2.93053e-06
0.000267173
2.96588e-06
0.000264173
2.99981e-06
0.000261141
3.03236e-06
0.000258077
3.06354e-06
0.000254984
3.09337e-06
0.000251862
3.12188e-06
0.000248713
3.14909e-06
0.000245538
3.17503e-06
0.000242338
3.19973e-06
0.000239115
3.22321e-06
0.00023587
3.24551e-06
0.000232603
3.26665e-06
0.000229316
3.28666e-06
0.000226011
3.30558e-06
0.000222687
3.32342e-06
0.000219347
3.34024e-06
0.000215991
3.35604e-06
0.00021262
3.37088e-06
0.000209235
3.38477e-06
0.000205838
3.39776e-06
0.000202428
3.40986e-06
0.000199007
3.42112e-06
0.000195575
3.43156e-06
0.000192134
3.44122e-06
0.000188684
3.45013e-06
0.000185225
3.45831e-06
0.00018176
3.4658e-06
0.000178287
3.47262e-06
0.000174808
3.47882e-06
0.000171324
3.48441e-06
0.000167834
3.48942e-06
0.00016434
3.49389e-06
0.000160843
3.49784e-06
0.000157341
3.50129e-06
0.000153837
3.50429e-06
0.00015033
3.50684e-06
0.000146821
3.50898e-06
0.00014331
3.51073e-06
0.000139798
3.51212e-06
0.000136285
3.51317e-06
0.000132771
3.5139e-06
0.000129257
3.51434e-06
0.000125742
3.5145e-06
0.000122228
3.51442e-06
0.000118714
3.5141e-06
0.0001152
3.51358e-06
0.000111687
3.51286e-06
0.000108176
3.51198e-06
0.000104665
3.51094e-06
0.000101155
3.50977e-06
9.76463e-05
3.50848e-06
9.41392e-05
3.50709e-06
9.06336e-05
3.50561e-06
8.71296e-05
3.50406e-06
8.36271e-05
3.50245e-06
8.01263e-05
3.5008e-06
7.66272e-05
3.49912e-06
7.31298e-05
3.49743e-06
6.9634e-05
3.49573e-06
6.614e-05
3.49404e-06
6.26476e-05
3.49237e-06
5.91569e-05
3.49072e-06
5.56678e-05
3.48912e-06
5.21802e-05
3.48756e-06
4.86942e-05
3.48605e-06
4.52096e-05
3.48462e-06
4.17263e-05
3.48325e-06
3.82444e-05
3.48196e-06
3.47636e-05
3.48076e-06
3.1284e-05
3.47964e-06
2.78053e-05
3.47863e-06
2.43276e-05
3.47771e-06
2.08507e-05
3.4769e-06
1.73745e-05
3.4762e-06
1.38989e-05
3.47561e-06
1.04238e-05
3.47514e-06
6.94897e-06
3.47478e-06
3.47442e-06
3.47454e-06
3.47442e-06
3.19302e-06
-6.38614e-06
6.38615e-06
-6.38637e-06
9.5795e-06
-6.38682e-06
1.27732e-05
-6.3875e-06
1.59673e-05
-6.3884e-06
1.91621e-05
-6.38952e-06
2.23574e-05
-6.39086e-06
2.55536e-05
-6.39241e-06
2.87506e-05
-6.39417e-06
3.19486e-05
-6.39614e-06
3.51477e-05
-6.3983e-06
3.8348e-05
-6.40066e-06
4.15496e-05
-6.4032e-06
4.47525e-05
-6.40592e-06
4.79569e-05
-6.40881e-06
5.11628e-05
-6.41186e-06
5.43703e-05
-6.41507e-06
5.75794e-05
-6.41841e-06
6.07904e-05
-6.42188e-06
6.40031e-05
-6.42548e-06
6.72176e-05
-6.42917e-06
7.04341e-05
-6.43297e-06
7.36525e-05
-6.43683e-06
7.68729e-05
-6.44077e-06
8.00953e-05
-6.44475e-06
8.33196e-05
-6.44876e-06
8.6546e-05
-6.45279e-06
8.97745e-05
-6.45682e-06
9.30049e-05
-6.46083e-06
9.62373e-05
-6.46479e-06
9.94717e-05
-6.4687e-06
0.000102708
-6.47252e-06
0.000105946
-6.47623e-06
0.000109186
-6.47982e-06
0.000112428
-6.48326e-06
0.000115671
-6.48652e-06
0.000118916
-6.48958e-06
0.000122162
-6.49241e-06
0.00012541
-6.49498e-06
0.000128658
-6.49726e-06
0.000131908
-6.49923e-06
0.000135159
-6.50085e-06
0.00013841
-6.50209e-06
0.000141661
-6.50292e-06
0.000144913
-6.50331e-06
0.000148165
-6.50321e-06
0.000151416
-6.5026e-06
0.000154667
-6.50143e-06
0.000157917
-6.49967e-06
0.000161166
-6.49727e-06
0.000164413
-6.49421e-06
0.000167659
-6.49043e-06
0.000170902
-6.48589e-06
0.000174142
-6.48055e-06
0.00017738
-6.47437e-06
0.000180614
-6.46729e-06
0.000183843
-6.45928e-06
0.000187069
-6.45028e-06
0.000190289
-6.44025e-06
0.000193504
-6.42913e-06
0.000196713
-6.41687e-06
0.000199915
-6.40343e-06
0.00020311
-6.38875e-06
0.000206296
-6.37277e-06
0.000209474
-6.35545e-06
0.000212643
-6.33673e-06
0.000215802
-6.31655e-06
0.00021895
-6.29485e-06
0.000222086
-6.27159e-06
0.00022521
-6.24669e-06
0.00022832
-6.22012e-06
0.000231416
-6.1918e-06
0.000234498
-6.16168e-06
0.000237563
-6.1297e-06
0.000240611
-6.09581e-06
0.000243642
-6.05994e-06
0.000246653
-6.02204e-06
0.000249645
-5.98206e-06
0.000252616
-5.93992e-06
0.000255564
-5.89559e-06
0.000258489
-5.849e-06
0.00026139
-5.80011e-06
0.000264265
-5.74884e-06
0.000267113
-5.69517e-06
0.000269933
-5.63903e-06
0.000272724
-5.58037e-06
0.000275484
-5.51915e-06
0.000278212
-5.45533e-06
0.000280907
-5.38885e-06
0.000283568
-5.31969e-06
0.000286193
-5.2478e-06
0.00028878
-5.17314e-06
0.000291328
-5.09569e-06
0.000293837
-5.01541e-06
0.000296304
-4.93227e-06
0.000298728
-4.84627e-06
0.000301107
-4.75736e-06
0.00030344
-4.66555e-06
0.000305727
-4.57082e-06
0.000307964
-4.47316e-06
0.000310151
-4.37257e-06
0.000312286
-4.26906e-06
0.000314368
-4.16262e-06
0.000316396
-4.05327e-06
0.000318367
-3.94103e-06
0.00032028
-3.82591e-06
0.000322135
-3.70796e-06
0.000323929
-3.58719e-06
0.000325662
-3.46364e-06
0.000327331
-3.33737e-06
0.000328936
-3.20842e-06
0.000330475
-3.07683e-06
0.000331947
-2.94269e-06
0.000333351
-2.80604e-06
0.000334685
-2.66696e-06
0.000335948
-2.52554e-06
0.00033714
-2.38184e-06
0.000338258
-2.23597e-06
0.000339303
-2.08801e-06
0.000340272
-1.93806e-06
0.000341166
-1.78623e-06
0.000341982
-1.63263e-06
0.000342722
-1.47737e-06
0.000343382
-1.32056e-06
0.000343964
-1.16234e-06
0.000344465
-1.00282e-06
0.000344887
-8.42135e-07
0.000345227
-6.80422e-07
0.000345486
-5.17815e-07
0.000345664
-3.54452e-07
0.000345759
-1.90474e-07
0.000345772
-2.60247e-08
0.000345703
1.38751e-07
0.000345551
3.03709e-07
0.000345316
4.68701e-07
0.000345
6.3358e-07
0.0003446
7.98202e-07
0.000344119
9.62418e-07
0.000343556
1.12608e-06
0.000342911
1.28906e-06
0.000342185
1.45119e-06
0.000341379
1.61235e-06
0.000340492
1.7724e-06
0.000339526
1.93119e-06
0.000338482
2.08861e-06
0.000337359
2.24451e-06
0.000336159
2.39879e-06
0.000334883
2.55131e-06
0.000333532
2.70196e-06
0.000332106
2.85063e-06
0.000330607
2.99722e-06
0.000329035
3.14162e-06
0.000327393
3.28375e-06
0.00032568
3.42349e-06
0.000323899
3.56079e-06
0.000322051
3.69555e-06
0.000320136
3.8277e-06
0.000318157
3.95718e-06
0.000316114
4.08392e-06
0.00031401
4.20787e-06
0.000311845
4.32899e-06
0.00030962
4.44722e-06
0.000307338
4.56253e-06
0.000305
4.67489e-06
0.000302607
4.78428e-06
0.000300161
4.89066e-06
0.000297663
4.99404e-06
0.000295115
5.09439e-06
0.000292519
5.19172e-06
0.000289875
5.28602e-06
0.000287186
5.37731e-06
0.000284452
5.46558e-06
0.000281676
5.55086e-06
0.000278859
5.63317e-06
0.000276002
5.71253e-06
0.000273106
5.78896e-06
0.000270174
5.86249e-06
0.000267207
5.93317e-06
0.000264206
6.00102e-06
0.000261172
6.06609e-06
0.000258107
6.12842e-06
0.000255013
6.18806e-06
0.000251889
6.24505e-06
0.000248739
6.29945e-06
0.000245563
6.35131e-06
0.000242362
6.40068e-06
0.000239137
6.44762e-06
0.000235891
6.49218e-06
0.000232623
6.53443e-06
0.000229335
6.57442e-06
0.000226029
6.61222e-06
0.000222704
6.64789e-06
0.000219363
6.68148e-06
0.000216006
6.71306e-06
0.000212634
6.7427e-06
0.000209248
6.77046e-06
0.00020585
6.79639e-06
0.000202439
6.82057e-06
0.000199017
6.84306e-06
0.000195585
6.86391e-06
0.000192143
6.8832e-06
0.000188692
6.90098e-06
0.000185233
6.91731e-06
0.000181766
6.93226e-06
0.000178293
6.94588e-06
0.000174814
6.95824e-06
0.000171329
6.96939e-06
0.000167839
6.97939e-06
0.000164344
6.9883e-06
0.000160846
6.99617e-06
0.000157344
7.00305e-06
0.00015384
7.00901e-06
0.000150332
7.01409e-06
0.000146823
7.01835e-06
0.000143312
7.02182e-06
0.000139799
7.02458e-06
0.000136286
7.02665e-06
0.000132772
7.02809e-06
0.000129257
7.02894e-06
0.000125742
7.02925e-06
0.000122228
7.02906e-06
0.000118713
7.02841e-06
0.0001152
7.02735e-06
0.000111687
7.0259e-06
0.000108174
7.02411e-06
0.000104663
7.02202e-06
0.000101153
7.01966e-06
9.76449e-05
7.01706e-06
9.41377e-05
7.01426e-06
9.0632e-05
7.01128e-06
8.71279e-05
7.00817e-06
8.36254e-05
7.00494e-06
8.01246e-05
7.00163e-06
7.66255e-05
6.99826e-06
7.3128e-05
6.99486e-06
6.96323e-05
6.99145e-06
6.61383e-05
6.98806e-06
6.2646e-05
6.9847e-06
5.91553e-05
6.98141e-06
5.56662e-05
6.97818e-06
5.21787e-05
6.97506e-06
4.86927e-05
6.97204e-06
4.52082e-05
6.96916e-06
4.1725e-05
6.96642e-06
3.82431e-05
6.96383e-06
3.47625e-05
6.96142e-06
3.12829e-05
6.95919e-06
2.78044e-05
6.95715e-06
2.43268e-05
6.95532e-06
2.085e-05
6.9537e-06
1.73739e-05
6.95229e-06
1.38984e-05
6.95111e-06
1.04234e-05
6.95016e-06
6.94873e-06
6.94944e-06
3.4743e-06
6.94897e-06
6.94873e-06
3.19279e-06
-9.57893e-06
6.38569e-06
-9.57927e-06
9.57882e-06
-9.57995e-06
1.27723e-05
-9.58097e-06
1.59662e-05
-9.58232e-06
1.91607e-05
-9.58401e-06
2.23559e-05
-9.58602e-06
2.55518e-05
-9.58835e-06
2.87486e-05
-9.591e-06
3.19465e-05
-9.59396e-06
3.51454e-05
-9.59721e-06
3.83455e-05
-9.60076e-06
4.15468e-05
-9.60458e-06
4.47496e-05
-9.60867e-06
4.79538e-05
-9.61302e-06
5.11595e-05
-9.61761e-06
5.43669e-05
-9.62242e-06
5.75759e-05
-9.62745e-06
6.07867e-05
-9.63268e-06
6.39993e-05
-9.63808e-06
6.72138e-05
-9.64365e-06
7.04302e-05
-9.64935e-06
7.36485e-05
-9.65517e-06
7.68689e-05
-9.66109e-06
8.00912e-05
-9.66708e-06
8.33156e-05
-9.67313e-06
8.6542e-05
-9.67919e-06
8.97704e-05
-9.68526e-06
9.30009e-05
-9.69129e-06
9.62333e-05
-9.69727e-06
9.94678e-05
-9.70315e-06
0.000102704
-9.70891e-06
0.000105942
-9.71451e-06
0.000109183
-9.71992e-06
0.000112424
-9.72511e-06
0.000115668
-9.73003e-06
0.000118913
-9.73465e-06
0.00012216
-9.73893e-06
0.000125407
-9.74282e-06
0.000128656
-9.74629e-06
0.000131906
-9.74928e-06
0.000135157
-9.75175e-06
0.000138409
-9.75365e-06
0.000141661
-9.75494e-06
0.000144913
-9.75556e-06
0.000148165
-9.75546e-06
0.000151417
-9.75459e-06
0.000154669
-9.75288e-06
0.000157919
-9.75029e-06
0.000161169
-9.74675e-06
0.000164417
-9.7422e-06
0.000167663
-9.73659e-06
0.000170907
-9.72983e-06
0.000174148
-9.72188e-06
0.000177387
-9.71267e-06
0.000180622
-9.70211e-06
0.000183852
-9.69015e-06
0.000187079
-9.67671e-06
0.0001903
-9.66173e-06
0.000193516
-9.64511e-06
0.000196726
-9.62679e-06
0.000199929
-9.6067e-06
0.000203125
-9.58474e-06
0.000206314
-9.56085e-06
0.000209493
-9.53493e-06
0.000212663
-9.50691e-06
0.000215823
-9.47671e-06
0.000218973
-9.44424e-06
0.000222111
-9.40941e-06
0.000225236
-9.37215e-06
0.000228348
-9.33235e-06
0.000231446
-9.28995e-06
0.00023453
-9.24484e-06
0.000237597
-9.19694e-06
0.000240647
-9.14618e-06
0.00024368
-9.09245e-06
0.000246693
-9.03567e-06
0.000249687
-8.97576e-06
0.00025266
-8.91264e-06
0.00025561
-8.84621e-06
0.000258538
-8.77639e-06
0.000261441
-8.70311e-06
0.000264318
-8.62629e-06
0.000267169
-8.54583e-06
0.000269992
-8.46168e-06
0.000272785
-8.37376e-06
0.000275548
-8.28199e-06
0.000278279
-8.1863e-06
0.000280977
-8.08664e-06
0.00028364
-7.98294e-06
0.000286267
-7.87515e-06
0.000288857
-7.7632e-06
0.000291409
-7.64706e-06
0.00029392
-7.52667e-06
0.00029639
-7.402e-06
0.000298816
-7.27302e-06
0.000301199
-7.13968e-06
0.000303535
-7.00198e-06
0.000305824
-6.85989e-06
0.000308064
-6.71341e-06
0.000310254
-6.56252e-06
0.000312393
-6.40724e-06
0.000314477
-6.24756e-06
0.000316508
-6.08352e-06
0.000318482
-5.91513e-06
0.000320398
-5.74243e-06
0.000322256
-5.56545e-06
0.000324053
-5.38425e-06
0.000325788
-5.19888e-06
0.00032746
-5.00941e-06
0.000329068
-4.81591e-06
0.000330609
-4.61846e-06
0.000332084
-4.41715e-06
0.00033349
-4.21209e-06
0.000334826
-4.00338e-06
0.000336092
-3.79114e-06
0.000337285
-3.57549e-06
0.000338406
-3.35656e-06
0.000339453
-3.1345e-06
0.000340424
-2.90945e-06
0.000341319
-2.68157e-06
0.000342138
-2.45102e-06
0.000342878
-2.21798e-06
0.00034354
-1.98262e-06
0.000344123
-1.74512e-06
0.000344626
-1.50568e-06
0.000345048
-1.26449e-06
0.00034539
-1.02175e-06
0.000345649
-7.77667e-07
0.000345827
-5.32446e-07
0.000345923
-2.863e-07
0.000345937
-3.94459e-08
0.000345868
2.079e-07
0.000345716
4.55519e-07
0.000345481
7.03191e-07
0.000345164
9.50694e-07
0.000344765
1.19781e-06
0.000344283
1.44431e-06
0.000343719
1.68999e-06
0.000343073
1.93463e-06
0.000342346
2.17801e-06
0.000341539
2.41992e-06
0.000340651
2.66015e-06
0.000339684
2.89851e-06
0.000338638
3.1348e-06
0.000337513
3.36881e-06
0.000336312
3.60037e-06
0.000335034
3.8293e-06
0.00033368
4.05541e-06
0.000332252
4.27856e-06
0.000330751
4.49857e-06
0.000329177
4.71529e-06
0.000327532
4.92858e-06
0.000325818
5.13831e-06
0.000324034
5.34435e-06
0.000322183
5.54658e-06
0.000320266
5.74489e-06
0.000318284
5.93918e-06
0.000316238
6.12937e-06
0.000314131
6.31536e-06
0.000311963
6.49708e-06
0.000309736
6.67447e-06
0.000307451
6.84748e-06
0.000305109
7.01606e-06
0.000302714
7.18016e-06
0.000300264
7.33976e-06
0.000297764
7.49483e-06
0.000295213
7.64537e-06
0.000292613
7.79136e-06
0.000289966
7.93281e-06
0.000287274
8.06972e-06
0.000284537
8.20212e-06
0.000281758
8.33002e-06
0.000278938
8.45345e-06
0.000276078
8.57244e-06
0.00027318
8.68705e-06
0.000270245
8.79731e-06
0.000267275
8.90328e-06
0.000264271
9.005e-06
0.000261234
9.10256e-06
0.000258167
9.196e-06
0.00025507
9.28539e-06
0.000251944
9.37082e-06
0.000248791
9.45235e-06
0.000245612
9.53007e-06
0.000242409
9.60406e-06
0.000239182
9.67439e-06
0.000235933
9.74116e-06
0.000232663
9.80446e-06
0.000229373
9.86438e-06
0.000226064
9.921e-06
0.000222738
9.97442e-06
0.000219394
1.00247e-05
0.000216035
1.0072e-05
0.000212662
1.01164e-05
0.000209274
1.0158e-05
0.000205874
1.01968e-05
0.000202461
1.0233e-05
0.000199038
1.02666e-05
0.000195604
1.02978e-05
0.000192161
1.03267e-05
0.000188708
1.03533e-05
0.000185248
1.03777e-05
0.00018178
1.04e-05
0.000178306
1.04204e-05
0.000174825
1.04389e-05
0.000171339
1.04555e-05
0.000167848
1.04705e-05
0.000164352
1.04837e-05
0.000160853
1.04955e-05
0.00015735
1.05057e-05
0.000153845
1.05146e-05
0.000150337
1.05222e-05
0.000146826
1.05285e-05
0.000143315
1.05336e-05
0.000139801
1.05377e-05
0.000136287
1.05408e-05
0.000132773
1.05429e-05
0.000129257
1.05441e-05
0.000125742
1.05445e-05
0.000122227
1.05442e-05
0.000118712
1.05431e-05
0.000115198
1.05415e-05
0.000111685
1.05393e-05
0.000108172
1.05365e-05
0.000104661
1.05334e-05
0.000101151
1.05298e-05
9.76421e-05
1.05258e-05
9.41348e-05
1.05216e-05
9.06289e-05
1.05171e-05
8.71247e-05
1.05124e-05
8.36221e-05
1.05075e-05
8.01213e-05
1.05025e-05
7.66221e-05
1.04974e-05
7.31246e-05
1.04923e-05
6.96289e-05
1.04872e-05
6.6135e-05
1.0482e-05
6.26427e-05
1.0477e-05
5.91521e-05
1.0472e-05
5.56631e-05
1.04672e-05
5.21757e-05
1.04624e-05
4.86898e-05
1.04579e-05
4.52054e-05
1.04536e-05
4.17224e-05
1.04494e-05
3.82407e-05
1.04455e-05
3.47602e-05
1.04419e-05
3.12809e-05
1.04385e-05
2.78026e-05
1.04355e-05
2.43252e-05
1.04327e-05
2.08486e-05
1.04303e-05
1.73727e-05
1.04282e-05
1.38975e-05
1.04264e-05
1.04227e-05
1.04249e-05
6.94825e-06
1.04239e-05
3.47406e-06
1.04232e-05
1.04228e-05
3.19244e-06
-1.27714e-05
6.385e-06
-1.27718e-05
9.57779e-06
-1.27727e-05
1.27709e-05
-1.27741e-05
1.59645e-05
-1.27759e-05
1.91587e-05
-1.27782e-05
2.23535e-05
-1.27809e-05
2.55491e-05
-1.2784e-05
2.87457e-05
-1.27875e-05
3.19432e-05
-1.27915e-05
3.51418e-05
-1.27958e-05
3.83416e-05
-1.28006e-05
4.15427e-05
-1.28057e-05
4.47452e-05
-1.28112e-05
4.79492e-05
-1.2817e-05
5.11547e-05
-1.28231e-05
5.43618e-05
-1.28296e-05
5.75707e-05
-1.28363e-05
6.07813e-05
-1.28433e-05
6.39937e-05
-1.28505e-05
6.72081e-05
-1.2858e-05
7.04243e-05
-1.28656e-05
7.36426e-05
-1.28734e-05
7.68628e-05
-1.28813e-05
8.00851e-05
-1.28894e-05
8.33094e-05
-1.28975e-05
8.65358e-05
-1.29056e-05
8.97643e-05
-1.29137e-05
9.29948e-05
-1.29218e-05
9.62274e-05
-1.29298e-05
9.94619e-05
-1.29377e-05
0.000102698
-1.29455e-05
0.000105937
-1.2953e-05
0.000109177
-1.29602e-05
0.000112419
-1.29672e-05
0.000115663
-1.29738e-05
0.000118909
-1.29801e-05
0.000122156
-1.29858e-05
0.000125404
-1.29911e-05
0.000128653
-1.29958e-05
0.000131904
-1.29998e-05
0.000135155
-1.30032e-05
0.000138407
-1.30058e-05
0.00014166
-1.30076e-05
0.000144913
-1.30085e-05
0.000148166
-1.30085e-05
0.000151419
-1.30074e-05
0.000154671
-1.30052e-05
0.000157923
-1.30019e-05
0.000161173
-1.29972e-05
0.000164422
-1.29913e-05
0.00016767
-1.29839e-05
0.000170915
-1.2975e-05
0.000174157
-1.29645e-05
0.000177397
-1.29523e-05
0.000180633
-1.29383e-05
0.000183866
-1.29225e-05
0.000187094
-1.29047e-05
0.000190317
-1.28848e-05
0.000193534
-1.28628e-05
0.000196746
-1.28385e-05
0.000199951
-1.28118e-05
0.000203149
-1.27827e-05
0.000206339
-1.27509e-05
0.000209521
-1.27165e-05
0.000212693
-1.26793e-05
0.000215856
-1.26391e-05
0.000219007
-1.2596e-05
0.000222148
-1.25497e-05
0.000225276
-1.25001e-05
0.00022839
-1.24472e-05
0.000231491
-1.23908e-05
0.000234577
-1.23308e-05
0.000237647
-1.22671e-05
0.000240701
-1.21995e-05
0.000243736
-1.2128e-05
0.000246753
-1.20524e-05
0.00024975
-1.19727e-05
0.000252726
-1.18887e-05
0.00025568
-1.18002e-05
0.000258611
-1.17072e-05
0.000261517
-1.16097e-05
0.000264398
-1.15074e-05
0.000267253
-1.14002e-05
0.000270079
-1.12881e-05
0.000272876
-1.1171e-05
0.000275643
-1.10487e-05
0.000278378
-1.09213e-05
0.00028108
-1.07885e-05
0.000283747
-1.06503e-05
0.000286379
-1.05067e-05
0.000288973
-1.03575e-05
0.000291529
-1.02027e-05
0.000294044
-1.00422e-05
0.000296518
-9.87605e-06
0.000298949
-9.70411e-06
0.000301336
-9.52637e-06
0.000303677
-9.3428e-06
0.00030597
-9.15336e-06
0.000308215
-8.95805e-06
0.000310409
-8.75687e-06
0.000312552
-8.54981e-06
0.000314641
-8.33688e-06
0.000316676
-8.11812e-06
0.000318654
-7.89355e-06
0.000320575
-7.66321e-06
0.000322437
-7.42717e-06
0.000324238
-7.18548e-06
0.000325977
-6.93822e-06
0.000327653
-6.68547e-06
0.000329265
-6.42735e-06
0.00033081
-6.16394e-06
0.000332289
-5.89538e-06
0.000333698
-5.6218e-06
0.000335038
-5.34334e-06
0.000336307
-5.06015e-06
0.000337504
-4.77241e-06
0.000338628
-4.48029e-06
0.000339677
-4.18397e-06
0.000340652
-3.88366e-06
0.00034155
-3.57957e-06
0.000342371
-3.27191e-06
0.000343113
-2.96091e-06
0.000343778
-2.64681e-06
0.000344362
-2.32985e-06
0.000344867
-2.0103e-06
0.000345291
-1.6884e-06
0.000345634
-1.36443e-06
0.000345895
-1.03866e-06
0.000346073
-7.11367e-07
0.00034617
-3.82839e-07
0.000346184
-5.33618e-08
0.000346115
2.76773e-07
0.000345963
6.07274e-07
0.000345729
9.37846e-07
0.000345411
1.26819e-06
0.000345011
1.59802e-06
0.000344528
1.92703e-06
0.000343963
2.25494e-06
0.000343316
2.58146e-06
0.000342588
2.90629e-06
0.000341779
3.22916e-06
0.000340889
3.54979e-06
0.00033992
3.86791e-06
0.000338871
4.18325e-06
0.000337745
4.49556e-06
0.00033654
4.80459e-06
0.00033526
5.11009e-06
0.000333903
5.41184e-06
0.000332472
5.70961e-06
0.000330968
6.00319e-06
0.00032939
6.29238e-06
0.000327742
6.57698e-06
0.000326024
6.85681e-06
0.000324236
7.13172e-06
0.000322381
7.40152e-06
0.00032046
7.6661e-06
0.000318474
7.9253e-06
0.000316424
8.179e-06
0.000314313
8.4271e-06
0.00031214
8.6695e-06
0.000309909
8.90612e-06
0.000307619
9.13687e-06
0.000305273
9.36169e-06
0.000302873
9.58054e-06
0.000300419
9.79338e-06
0.000297914
1.00002e-05
0.000295359
1.02009e-05
0.000292754
1.03955e-05
0.000290103
1.05841e-05
0.000287406
1.07667e-05
0.000284665
1.09431e-05
0.000281882
1.11136e-05
0.000279057
1.12782e-05
0.000276193
1.14368e-05
0.00027329
1.15895e-05
0.000270351
1.17364e-05
0.000267377
1.18776e-05
0.000264368
1.20132e-05
0.000261328
1.21431e-05
0.000258256
1.22676e-05
0.000255155
1.23867e-05
0.000252025
1.25005e-05
0.000248869
1.26091e-05
0.000245686
1.27126e-05
0.000242479
1.28111e-05
0.000239249
1.29047e-05
0.000235996
1.29936e-05
0.000232723
1.30779e-05
0.00022943
1.31576e-05
0.000226118
1.3233e-05
0.000222788
1.33041e-05
0.000219442
1.3371e-05
0.00021608
1.34339e-05
0.000212703
1.34929e-05
0.000209313
1.35482e-05
0.00020591
1.35998e-05
0.000202495
1.36479e-05
0.000199069
1.36926e-05
0.000195633
1.37341e-05
0.000192187
1.37724e-05
0.000188733
1.38077e-05
0.00018527
1.38402e-05
0.0001818
1.38698e-05
0.000178324
1.38968e-05
0.000174842
1.39213e-05
0.000171354
1.39434e-05
0.000167861
1.39632e-05
0.000164364
1.39807e-05
0.000160863
1.39963e-05
0.000157359
1.40098e-05
0.000153852
1.40215e-05
0.000150343
1.40315e-05
0.000146832
1.40398e-05
0.000143319
1.40466e-05
0.000139805
1.40519e-05
0.000136289
1.40558e-05
0.000132774
1.40585e-05
0.000129258
1.40601e-05
0.000125742
1.40605e-05
0.000122226
1.406e-05
0.000118711
1.40585e-05
0.000115196
1.40562e-05
0.000111682
1.40532e-05
0.000108169
1.40494e-05
0.000104657
1.40451e-05
0.000101147
1.40403e-05
9.76379e-05
1.40349e-05
9.41303e-05
1.40292e-05
9.06243e-05
1.40231e-05
8.71199e-05
1.40168e-05
8.36172e-05
1.40102e-05
8.01162e-05
1.40035e-05
7.6617e-05
1.39967e-05
7.31195e-05
1.39898e-05
6.96238e-05
1.39828e-05
6.61299e-05
1.3976e-05
6.26377e-05
1.39692e-05
5.91472e-05
1.39625e-05
5.56584e-05
1.3956e-05
5.21712e-05
1.39497e-05
4.86855e-05
1.39436e-05
4.52013e-05
1.39377e-05
4.17186e-05
1.39322e-05
3.82371e-05
1.3927e-05
3.47569e-05
1.39221e-05
3.12778e-05
1.39176e-05
2.77998e-05
1.39135e-05
2.43227e-05
1.39098e-05
2.08465e-05
1.39065e-05
1.7371e-05
1.39037e-05
1.3896e-05
1.39013e-05
1.04216e-05
1.38994e-05
6.94753e-06
1.38979e-05
3.4737e-06
1.3897e-05
1.38965e-05
3.19198e-06
-1.59634e-05
6.38409e-06
-1.59639e-05
9.57642e-06
-1.59651e-05
1.27691e-05
-1.59668e-05
1.59622e-05
-1.59691e-05
1.9156e-05
-1.59719e-05
2.23504e-05
-1.59753e-05
2.55456e-05
-1.59792e-05
2.87417e-05
-1.59836e-05
3.19388e-05
-1.59886e-05
3.5137e-05
-1.59941e-05
3.83365e-05
-1.6e-05
4.15372e-05
-1.60064e-05
4.47393e-05
-1.60133e-05
4.7943e-05
-1.60206e-05
5.11482e-05
-1.60283e-05
5.4355e-05
-1.60364e-05
5.75636e-05
-1.60449e-05
6.0774e-05
-1.60537e-05
6.39862e-05
-1.60628e-05
6.72003e-05
-1.60721e-05
7.04164e-05
-1.60817e-05
7.36345e-05
-1.60915e-05
7.68547e-05
-1.61015e-05
8.00769e-05
-1.61116e-05
8.33012e-05
-1.61218e-05
8.65276e-05
-1.6132e-05
8.97561e-05
-1.61422e-05
9.29867e-05
-1.61524e-05
9.62194e-05
-1.61625e-05
9.94541e-05
-1.61724e-05
0.000102691
-1.61822e-05
0.00010593
-1.61917e-05
0.00010917
-1.62009e-05
0.000112413
-1.62097e-05
0.000115657
-1.62181e-05
0.000118903
-1.62259e-05
0.00012215
-1.62333e-05
0.000125399
-1.62399e-05
0.000128649
-1.62459e-05
0.0001319
-1.62511e-05
0.000135153
-1.62554e-05
0.000138406
-1.62588e-05
0.000141659
-1.62612e-05
0.000144913
-1.62625e-05
0.000148167
-1.62625e-05
0.000151421
-1.62613e-05
0.000154675
-1.62587e-05
0.000157927
-1.62547e-05
0.000161179
-1.62491e-05
0.00016443
-1.62418e-05
0.000167678
-1.62327e-05
0.000170925
-1.62217e-05
0.000174169
-1.62088e-05
0.000177411
-1.61937e-05
0.000180649
-1.61764e-05
0.000183883
-1.61568e-05
0.000187113
-1.61347e-05
0.000190339
-1.61101e-05
0.000193559
-1.60827e-05
0.000196773
-1.60526e-05
0.00019998
-1.60194e-05
0.000203181
-1.59832e-05
0.000206374
-1.59437e-05
0.000209558
-1.59009e-05
0.000212733
-1.58546e-05
0.000215899
-1.58046e-05
0.000219054
-1.57509e-05
0.000222197
-1.56932e-05
0.000225328
-1.56315e-05
0.000228447
-1.55655e-05
0.000231551
-1.54952e-05
0.000234641
-1.54204e-05
0.000237715
-1.5341e-05
0.000240772
-1.52568e-05
0.000243812
-1.51676e-05
0.000246833
-1.50734e-05
0.000249834
-1.49739e-05
0.000252814
-1.48691e-05
0.000255773
-1.47587e-05
0.000258708
-1.46427e-05
0.000261619
-1.45209e-05
0.000264505
-1.43933e-05
0.000267365
-1.42595e-05
0.000270196
-1.41196e-05
0.000272999
-1.39733e-05
0.00027577
-1.38207e-05
0.000278511
-1.36615e-05
0.000281218
-1.34957e-05
0.000283891
-1.33231e-05
0.000286528
-1.31437e-05
0.000289128
-1.29573e-05
0.000291689
-1.2764e-05
0.00029421
-1.25635e-05
0.00029669
-1.23559e-05
0.000299127
-1.2141e-05
0.00030152
-1.19189e-05
0.000303866
-1.16895e-05
0.000306166
-1.14527e-05
0.000308416
-1.12086e-05
0.000310616
-1.09571e-05
0.000312765
-1.06982e-05
0.00031486
-1.0432e-05
0.0003169
-1.01585e-05
0.000318884
-9.87773e-06
0.000320811
-9.58971e-06
0.000322678
-9.29453e-06
0.000324485
-8.99228e-06
0.00032623
-8.68304e-06
0.000327911
-8.36693e-06
0.000329528
-8.04406e-06
0.000331079
-7.71458e-06
0.000332562
-7.37863e-06
0.000333977
-7.03639e-06
0.000335321
-6.68802e-06
0.000336595
-6.33373e-06
0.000337796
-5.97372e-06
0.000338924
-5.60821e-06
0.000339978
-5.23744e-06
0.000340956
-4.86167e-06
0.000341857
-4.48114e-06
0.000342681
-4.09614e-06
0.000343427
-3.70695e-06
0.000344094
-3.31386e-06
0.000344682
-2.91719e-06
0.000345189
-2.51726e-06
0.000345615
-2.11438e-06
0.000345959
-1.70891e-06
0.000346222
-1.30117e-06
0.000346402
-8.91528e-07
0.000346499
-4.80329e-07
0.000346514
-6.79393e-08
0.000346445
3.45278e-07
0.000346294
7.58955e-07
0.000346059
1.17272e-06
0.000345741
1.58621e-06
0.00034534
1.99904e-06
0.000344856
2.41086e-06
0.00034429
2.82128e-06
0.000343641
3.22996e-06
0.000342911
3.63653e-06
0.000342099
4.04063e-06
0.000341207
4.44193e-06
0.000340235
4.84007e-06
0.000339184
5.23473e-06
0.000338054
5.62559e-06
0.000336846
6.01232e-06
0.000335561
6.39464e-06
0.000334201
6.77224e-06
0.000332766
7.14485e-06
0.000331257
7.51221e-06
0.000329675
7.87405e-06
0.000328022
8.23014e-06
0.000326298
8.58025e-06
0.000324506
8.92417e-06
0.000322646
9.26171e-06
0.000320719
9.59267e-06
0.000318728
9.9169e-06
0.000316672
1.02342e-05
0.000314555
1.05445e-05
0.000312377
1.08477e-05
0.000310139
1.11436e-05
0.000307844
1.14322e-05
0.000305492
1.17133e-05
0.000303086
1.19869e-05
0.000300626
1.2253e-05
0.000298115
1.25116e-05
0.000295553
1.27625e-05
0.000292943
1.30058e-05
0.000290286
1.32415e-05
0.000287583
1.34696e-05
0.000284836
1.36902e-05
0.000282046
1.39032e-05
0.000279215
1.41088e-05