/*--------------------------------*- C++ -*----------------------------------*\
| =========                 |                                                 |
| \\      /  F ield         | OpenFOAM: The Open Source CFD Toolbox           |
|  \\    /   O peration     | Version:  v2012                                 |
|   \\  /    A nd           | Website:  www.openfoam.com                      |
|    \\/     M anipulation  |                                                 |
\*---------------------------------------------------------------------------*/
FoamFile
{
    version     2.0;
    format      ascii;
    class       volVectorField;
    location    "20";
    object      Psi;
}
// * * * * * * * * * * * * * * * * * * * * * * * * * * * * * * * * * * * * * //

dimensions      [0 2 -1 0 0 0 0];


internalField   nonuniform List<vector> 
65536
(
(0 0 7.9767e-06)
(0 0 2.39304e-05)
(0 0 3.9885e-05)
(0 0 5.5841e-05)
(0 0 7.17989e-05)
(0 0 8.77592e-05)
(0 0 0.000103723)
(0 0 0.000119689)
(0 0 0.00013566)
(0 0 0.000151636)
(0 0 0.000167616)
(0 0 0.000183602)
(0 0 0.000199594)
(0 0 0.000215593)
(0 0 0.000231598)
(0 0 0.000247611)
(0 0 0.000263631)
(0 0 0.000279659)
(0 0 0.000295695)
(0 0 0.00031174)
(0 0 0.000327794)
(0 0 0.000343857)
(0 0 0.00035993)
(0 0 0.000376011)
(0 0 0.000392103)
(0 0 0.000408204)
(0 0 0.000424315)
(0 0 0.000440435)
(0 0 0.000456566)
(0 0 0.000472706)
(0 0 0.000488855)
(0 0 0.000505014)
(0 0 0.000521182)
(0 0 0.000537358)
(0 0 0.000553543)
(0 0 0.000569736)
(0 0 0.000585937)
(0 0 0.000602144)
(0 0 0.000618358)
(0 0 0.000634577)
(0 0 0.000650802)
(0 0 0.00066703)
(0 0 0.000683262)
(0 0 0.000699496)
(0 0 0.000715731)
(0 0 0.000731965)
(0 0 0.000748199)
(0 0 0.00076443)
(0 0 0.000780657)
(0 0 0.000796878)
(0 0 0.000813092)
(0 0 0.000829297)
(0 0 0.000845491)
(0 0 0.000861673)
(0 0 0.00087784)
(0 0 0.00089399)
(0 0 0.00091012)
(0 0 0.000926229)
(0 0 0.000942314)
(0 0 0.000958372)
(0 0 0.000974401)
(0 0 0.000990397)
(0 0 0.00100636)
(0 0 0.00102228)
(0 0 0.00103816)
(0 0 0.001054)
(0 0 0.00106978)
(0 0 0.00108552)
(0 0 0.00110119)
(0 0 0.00111681)
(0 0 0.00113237)
(0 0 0.00114785)
(0 0 0.00116326)
(0 0 0.00117859)
(0 0 0.00119385)
(0 0 0.00120901)
(0 0 0.00122408)
(0 0 0.00123906)
(0 0 0.00125393)
(0 0 0.0012687)
(0 0 0.00128335)
(0 0 0.00129788)
(0 0 0.00131229)
(0 0 0.00132657)
(0 0 0.00134071)
(0 0 0.00135471)
(0 0 0.00136856)
(0 0 0.00138225)
(0 0 0.00139578)
(0 0 0.00140914)
(0 0 0.00142233)
(0 0 0.00143533)
(0 0 0.00144815)
(0 0 0.00146077)
(0 0 0.00147318)
(0 0 0.00148539)
(0 0 0.00149738)
(0 0 0.00150914)
(0 0 0.00152067)
(0 0 0.00153197)
(0 0 0.00154301)
(0 0 0.0015538)
(0 0 0.00156433)
(0 0 0.0015746)
(0 0 0.00158458)
(0 0 0.00159429)
(0 0 0.0016037)
(0 0 0.00161282)
(0 0 0.00162164)
(0 0 0.00163014)
(0 0 0.00163833)
(0 0 0.00164619)
(0 0 0.00165372)
(0 0 0.00166092)
(0 0 0.00166777)
(0 0 0.00167427)
(0 0 0.00168042)
(0 0 0.00168621)
(0 0 0.00169163)
(0 0 0.00169668)
(0 0 0.00170136)
(0 0 0.00170566)
(0 0 0.00170957)
(0 0 0.00171309)
(0 0 0.00171622)
(0 0 0.00171896)
(0 0 0.00172129)
(0 0 0.00172323)
(0 0 0.00172476)
(0 0 0.00172588)
(0 0 0.0017266)
(0 0 0.00172691)
(0 0 0.00172681)
(0 0 0.00172629)
(0 0 0.00172537)
(0 0 0.00172403)
(0 0 0.00172228)
(0 0 0.00172013)
(0 0 0.00171756)
(0 0 0.00171458)
(0 0 0.0017112)
(0 0 0.00170742)
(0 0 0.00170323)
(0 0 0.00169865)
(0 0 0.00169367)
(0 0 0.0016883)
(0 0 0.00168255)
(0 0 0.00167641)
(0 0 0.00166989)
(0 0 0.00166299)
(0 0 0.00165573)
(0 0 0.0016481)
(0 0 0.00164012)
(0 0 0.00163178)
(0 0 0.0016231)
(0 0 0.00161407)
(0 0 0.00160471)
(0 0 0.00159503)
(0 0 0.00158502)
(0 0 0.0015747)
(0 0 0.00156407)
(0 0 0.00155314)
(0 0 0.00154192)
(0 0 0.00153041)
(0 0 0.00151863)
(0 0 0.00150657)
(0 0 0.00149425)
(0 0 0.00148168)
(0 0 0.00146886)
(0 0 0.0014558)
(0 0 0.0014425)
(0 0 0.00142898)
(0 0 0.00141524)
(0 0 0.00140129)
(0 0 0.00138714)
(0 0 0.00137279)
(0 0 0.00135825)
(0 0 0.00134353)
(0 0 0.00132864)
(0 0 0.00131358)
(0 0 0.00129836)
(0 0 0.00128299)
(0 0 0.00126747)
(0 0 0.00125181)
(0 0 0.00123601)
(0 0 0.00122009)
(0 0 0.00120405)
(0 0 0.00118789)
(0 0 0.00117162)
(0 0 0.00115525)
(0 0 0.00113878)
(0 0 0.00112221)
(0 0 0.00110556)
(0 0 0.00108883)
(0 0 0.00107202)
(0 0 0.00105514)
(0 0 0.00103819)
(0 0 0.00102117)
(0 0 0.0010041)
(0 0 0.000986968)
(0 0 0.000969788)
(0 0 0.000952561)
(0 0 0.000935291)
(0 0 0.000917981)
(0 0 0.000900634)
(0 0 0.000883254)
(0 0 0.000865845)
(0 0 0.000848408)
(0 0 0.000830947)
(0 0 0.000813464)
(0 0 0.000795962)
(0 0 0.000778444)
(0 0 0.000760911)
(0 0 0.000743366)
(0 0 0.000725811)
(0 0 0.000708247)
(0 0 0.000690677)
(0 0 0.000673102)
(0 0 0.000655524)
(0 0 0.000637944)
(0 0 0.000620363)
(0 0 0.000602783)
(0 0 0.000585205)
(0 0 0.00056763)
(0 0 0.000550058)
(0 0 0.000532491)
(0 0 0.000514929)
(0 0 0.000497372)
(0 0 0.000479823)
(0 0 0.00046228)
(0 0 0.000444744)
(0 0 0.000427217)
(0 0 0.000409697)
(0 0 0.000392185)
(0 0 0.000374682)
(0 0 0.000357186)
(0 0 0.0003397)
(0 0 0.000322221)
(0 0 0.00030475)
(0 0 0.000287288)
(0 0 0.000269833)
(0 0 0.000252386)
(0 0 0.000234946)
(0 0 0.000217513)
(0 0 0.000200086)
(0 0 0.000182666)
(0 0 0.000165251)
(0 0 0.000147842)
(0 0 0.000130437)
(0 0 0.000113037)
(0 0 9.56401e-05)
(0 0 7.82466e-05)
(0 0 6.08557e-05)
(0 0 4.34669e-05)
(0 0 2.60795e-05)
(0 0 8.69309e-06)
(0 0 2.393e-05)
(0 0 7.17907e-05)
(0 0 0.000119654)
(0 0 0.000167521)
(0 0 0.000215395)
(0 0 0.000263275)
(0 0 0.000311165)
(0 0 0.000359065)
(0 0 0.000406977)
(0 0 0.000454903)
(0 0 0.000502845)
(0 0 0.000550802)
(0 0 0.000598778)
(0 0 0.000646773)
(0 0 0.000694788)
(0 0 0.000742826)
(0 0 0.000790886)
(0 0 0.00083897)
(0 0 0.000887079)
(0 0 0.000935214)
(0 0 0.000983375)
(0 0 0.00103156)
(0 0 0.00107978)
(0 0 0.00112803)
(0 0 0.0011763)
(0 0 0.0012246)
(0 0 0.00127294)
(0 0 0.0013213)
(0 0 0.00136969)
(0 0 0.00141811)
(0 0 0.00146656)
(0 0 0.00151503)
(0 0 0.00156354)
(0 0 0.00161207)
(0 0 0.00166062)
(0 0 0.0017092)
(0 0 0.00175781)
(0 0 0.00180643)
(0 0 0.00185507)
(0 0 0.00190373)
(0 0 0.0019524)
(0 0 0.00200109)
(0 0 0.00204979)
(0 0 0.00209849)
(0 0 0.0021472)
(0 0 0.0021959)
(0 0 0.0022446)
(0 0 0.0022933)
(0 0 0.00234198)
(0 0 0.00239064)
(0 0 0.00243929)
(0 0 0.00248791)
(0 0 0.00253649)
(0 0 0.00258504)
(0 0 0.00263354)
(0 0 0.00268199)
(0 0 0.00273039)
(0 0 0.00277872)
(0 0 0.00282697)
(0 0 0.00287515)
(0 0 0.00292324)
(0 0 0.00297123)
(0 0 0.00301912)
(0 0 0.00306689)
(0 0 0.00311453)
(0 0 0.00316204)
(0 0 0.00320941)
(0 0 0.00325661)
(0 0 0.00330365)
(0 0 0.00335051)
(0 0 0.00339717)
(0 0 0.00344363)
(0 0 0.00348987)
(0 0 0.00353587)
(0 0 0.00358163)
(0 0 0.00362713)
(0 0 0.00367235)
(0 0 0.00371729)
(0 0 0.00376191)
(0 0 0.00380621)
(0 0 0.00385017)
(0 0 0.00389378)
(0 0 0.00393701)
(0 0 0.00397985)
(0 0 0.00402228)
(0 0 0.00406428)
(0 0 0.00410583)
(0 0 0.00414691)
(0 0 0.00418751)
(0 0 0.00422761)
(0 0 0.00426718)
(0 0 0.0043062)
(0 0 0.00434465)
(0 0 0.00438251)
(0 0 0.00441977)
(0 0 0.00445639)
(0 0 0.00449236)
(0 0 0.00452766)
(0 0 0.00456226)
(0 0 0.00459615)
(0 0 0.00462929)
(0 0 0.00466168)
(0 0 0.00469328)
(0 0 0.00472407)
(0 0 0.00475404)
(0 0 0.00478316)
(0 0 0.00481141)
(0 0 0.00483878)
(0 0 0.00486523)
(0 0 0.00489074)
(0 0 0.00491531)
(0 0 0.0049389)
(0 0 0.00496151)
(0 0 0.0049831)
(0 0 0.00500366)
(0 0 0.00502317)
(0 0 0.00504163)
(0 0 0.005059)
(0 0 0.00507527)
(0 0 0.00509043)
(0 0 0.00510446)
(0 0 0.00511736)
(0 0 0.0051291)
(0 0 0.00513967)
(0 0 0.00514907)
(0 0 0.00515728)
(0 0 0.00516429)
(0 0 0.0051701)
(0 0 0.00517469)
(0 0 0.00517807)
(0 0 0.00518022)
(0 0 0.00518114)
(0 0 0.00518083)
(0 0 0.00517929)
(0 0 0.00517652)
(0 0 0.00517251)
(0 0 0.00516726)
(0 0 0.00516079)
(0 0 0.00515309)
(0 0 0.00514416)
(0 0 0.00513402)
(0 0 0.00512266)
(0 0 0.00511011)
(0 0 0.00509635)
(0 0 0.00508142)
(0 0 0.0050653)
(0 0 0.00504803)
(0 0 0.0050296)
(0 0 0.00501004)
(0 0 0.00498935)
(0 0 0.00496756)
(0 0 0.00494467)
(0 0 0.00492071)
(0 0 0.00489569)
(0 0 0.00486963)
(0 0 0.00484255)
(0 0 0.00481447)
(0 0 0.0047854)
(0 0 0.00475537)
(0 0 0.0047244)
(0 0 0.00469251)
(0 0 0.00465971)
(0 0 0.00462604)
(0 0 0.00459152)
(0 0 0.00455615)
(0 0 0.00451998)
(0 0 0.00448302)
(0 0 0.00444529)
(0 0 0.00440682)
(0 0 0.00436762)
(0 0 0.00432773)
(0 0 0.00428716)
(0 0 0.00424593)
(0 0 0.00420408)
(0 0 0.00416161)
(0 0 0.00411856)
(0 0 0.00407494)
(0 0 0.00403078)
(0 0 0.00398609)
(0 0 0.00394091)
(0 0 0.00389524)
(0 0 0.00384911)
(0 0 0.00380254)
(0 0 0.00375556)
(0 0 0.00370817)
(0 0 0.00366039)
(0 0 0.00361226)
(0 0 0.00356377)
(0 0 0.00351496)
(0 0 0.00346584)
(0 0 0.00341642)
(0 0 0.00336673)
(0 0 0.00331677)
(0 0 0.00326657)
(0 0 0.00321613)
(0 0 0.00316548)
(0 0 0.00311462)
(0 0 0.00306357)
(0 0 0.00301234)
(0 0 0.00296095)
(0 0 0.00290941)
(0 0 0.00285773)
(0 0 0.00280591)
(0 0 0.00275398)
(0 0 0.00270193)
(0 0 0.00264979)
(0 0 0.00259756)
(0 0 0.00254525)
(0 0 0.00249286)
(0 0 0.00244041)
(0 0 0.0023879)
(0 0 0.00233534)
(0 0 0.00228274)
(0 0 0.00223011)
(0 0 0.00217744)
(0 0 0.00212475)
(0 0 0.00207204)
(0 0 0.00201931)
(0 0 0.00196657)
(0 0 0.00191383)
(0 0 0.00186109)
(0 0 0.00180835)
(0 0 0.00175561)
(0 0 0.00170288)
(0 0 0.00165017)
(0 0 0.00159747)
(0 0 0.00154478)
(0 0 0.00149211)
(0 0 0.00143946)
(0 0 0.00138683)
(0 0 0.00133423)
(0 0 0.00128164)
(0 0 0.00122908)
(0 0 0.00117655)
(0 0 0.00112404)
(0 0 0.00107155)
(0 0 0.00101909)
(0 0 0.000966654)
(0 0 0.000914243)
(0 0 0.000861855)
(0 0 0.000809491)
(0 0 0.00075715)
(0 0 0.000704831)
(0 0 0.000652532)
(0 0 0.000600253)
(0 0 0.000547992)
(0 0 0.000495748)
(0 0 0.000443521)
(0 0 0.000391307)
(0 0 0.000339106)
(0 0 0.000286917)
(0 0 0.000234737)
(0 0 0.000182565)
(0 0 0.000130399)
(0 0 7.82378e-05)
(0 0 2.6079e-05)
(0 0 3.98823e-05)
(0 0 0.000119648)
(0 0 0.000199419)
(0 0 0.000279196)
(0 0 0.000358983)
(0 0 0.000438782)
(0 0 0.000518596)
(0 0 0.000598428)
(0 0 0.000678281)
(0 0 0.000758156)
(0 0 0.000838056)
(0 0 0.000917984)
(0 0 0.000997942)
(0 0 0.00107793)
(0 0 0.00115796)
(0 0 0.00123802)
(0 0 0.00131812)
(0 0 0.00139826)
(0 0 0.00147844)
(0 0 0.00155866)
(0 0 0.00163893)
(0 0 0.00171924)
(0 0 0.0017996)
(0 0 0.00188001)
(0 0 0.00196047)
(0 0 0.00204097)
(0 0 0.00212153)
(0 0 0.00220213)
(0 0 0.00228278)
(0 0 0.00236348)
(0 0 0.00244423)
(0 0 0.00252503)
(0 0 0.00260587)
(0 0 0.00268675)
(0 0 0.00276768)
(0 0 0.00284865)
(0 0 0.00292965)
(0 0 0.00301069)
(0 0 0.00309177)
(0 0 0.00317287)
(0 0 0.00325399)
(0 0 0.00333514)
(0 0 0.0034163)
(0 0 0.00349748)
(0 0 0.00357866)
(0 0 0.00365984)
(0 0 0.00374101)
(0 0 0.00382218)
(0 0 0.00390332)
(0 0 0.00398443)
(0 0 0.00406551)
(0 0 0.00414655)
(0 0 0.00422753)
(0 0 0.00430845)
(0 0 0.00438929)
(0 0 0.00447005)
(0 0 0.00455072)
(0 0 0.00463127)
(0 0 0.00471171)
(0 0 0.00479202)
(0 0 0.00487218)
(0 0 0.00495217)
(0 0 0.00503199)
(0 0 0.00511162)
(0 0 0.00519104)
(0 0 0.00527024)
(0 0 0.00534919)
(0 0 0.00542788)
(0 0 0.00550628)
(0 0 0.00558439)
(0 0 0.00566218)
(0 0 0.00573962)
(0 0 0.0058167)
(0 0 0.0058934)
(0 0 0.00596968)
(0 0 0.00604553)
(0 0 0.00612091)
(0 0 0.00619582)
(0 0 0.00627021)
(0 0 0.00634406)
(0 0 0.00641735)
(0 0 0.00649005)
(0 0 0.00656212)
(0 0 0.00663354)
(0 0 0.00670427)
(0 0 0.00677429)
(0 0 0.00684357)
(0 0 0.00691207)
(0 0 0.00697975)
(0 0 0.0070466)
(0 0 0.00711257)
(0 0 0.00717762)
(0 0 0.00724174)
(0 0 0.00730487)
(0 0 0.00736698)
(0 0 0.00742805)
(0 0 0.00748802)
(0 0 0.00754688)
(0 0 0.00760457)
(0 0 0.00766107)
(0 0 0.00771633)
(0 0 0.00777033)
(0 0 0.00782302)
(0 0 0.00787437)
(0 0 0.00792435)
(0 0 0.00797291)
(0 0 0.00802002)
(0 0 0.00806564)
(0 0 0.00810975)
(0 0 0.0081523)
(0 0 0.00819326)
(0 0 0.00823261)
(0 0 0.0082703)
(0 0 0.00830631)
(0 0 0.0083406)
(0 0 0.00837314)
(0 0 0.00840391)
(0 0 0.00843288)
(0 0 0.00846002)
(0 0 0.0084853)
(0 0 0.00850871)
(0 0 0.00853021)
(0 0 0.00854979)
(0 0 0.00856742)
(0 0 0.0085831)
(0 0 0.00859679)
(0 0 0.00860849)
(0 0 0.00861817)
(0 0 0.00862584)
(0 0 0.00863147)
(0 0 0.00863506)
(0 0 0.00863661)
(0 0 0.0086361)
(0 0 0.00863353)
(0 0 0.0086289)
(0 0 0.00862222)
(0 0 0.00861348)
(0 0 0.00860268)
(0 0 0.00858984)
(0 0 0.00857496)
(0 0 0.00855804)
(0 0 0.00853911)
(0 0 0.00851817)
(0 0 0.00849524)
(0 0 0.00847033)
(0 0 0.00844346)
(0 0 0.00841466)
(0 0 0.00838393)
(0 0 0.00835131)
(0 0 0.00831682)
(0 0 0.00828048)
(0 0 0.00824232)
(0 0 0.00820236)
(0 0 0.00816064)
(0 0 0.00811719)
(0 0 0.00807203)
(0 0 0.00802521)
(0 0 0.00797674)
(0 0 0.00792667)
(0 0 0.00787502)
(0 0 0.00782184)
(0 0 0.00776717)
(0 0 0.00771102)
(0 0 0.00765345)
(0 0 0.00759449)
(0 0 0.00753418)
(0 0 0.00747255)
(0 0 0.00740964)
(0 0 0.00734549)
(0 0 0.00728014)
(0 0 0.00721363)
(0 0 0.00714599)
(0 0 0.00707725)
(0 0 0.00700747)
(0 0 0.00693667)
(0 0 0.00686489)
(0 0 0.00679217)
(0 0 0.00671854)
(0 0 0.00664405)
(0 0 0.00656871)
(0 0 0.00649258)
(0 0 0.00641568)
(0 0 0.00633804)
(0 0 0.00625971)
(0 0 0.0061807)
(0 0 0.00610106)
(0 0 0.00602081)
(0 0 0.00593999)
(0 0 0.00585862)
(0 0 0.00577673)
(0 0 0.00569435)
(0 0 0.00561151)
(0 0 0.00552823)
(0 0 0.00544454)
(0 0 0.00536046)
(0 0 0.00527602)
(0 0 0.00519124)
(0 0 0.00510615)
(0 0 0.00502076)
(0 0 0.00493509)
(0 0 0.00484917)
(0 0 0.00476302)
(0 0 0.00467665)
(0 0 0.00459008)
(0 0 0.00450333)
(0 0 0.00441642)
(0 0 0.00432936)
(0 0 0.00424216)
(0 0 0.00415484)
(0 0 0.00406741)
(0 0 0.00397989)
(0 0 0.00389229)
(0 0 0.00380461)
(0 0 0.00371688)
(0 0 0.00362909)
(0 0 0.00354127)
(0 0 0.00345341)
(0 0 0.00336553)
(0 0 0.00327763)
(0 0 0.00318972)
(0 0 0.00310181)
(0 0 0.00301391)
(0 0 0.00292601)
(0 0 0.00283813)
(0 0 0.00275027)
(0 0 0.00266243)
(0 0 0.00257461)
(0 0 0.00248683)
(0 0 0.00239908)
(0 0 0.00231136)
(0 0 0.00222368)
(0 0 0.00213604)
(0 0 0.00204844)
(0 0 0.00196088)
(0 0 0.00187337)
(0 0 0.00178589)
(0 0 0.00169846)
(0 0 0.00161106)
(0 0 0.00152371)
(0 0 0.0014364)
(0 0 0.00134913)
(0 0 0.00126189)
(0 0 0.00117469)
(0 0 0.00108753)
(0 0 0.0010004)
(0 0 0.000913301)
(0 0 0.00082623)
(0 0 0.000739185)
(0 0 0.000652164)
(0 0 0.000565165)
(0 0 0.000478184)
(0 0 0.00039122)
(0 0 0.000304268)
(0 0 0.000217327)
(0 0 0.000130393)
(0 0 4.34639e-05)
(0 0 5.58333e-05)
(0 0 0.000167502)
(0 0 0.000279177)
(0 0 0.000390861)
(0 0 0.000502559)
(0 0 0.000614274)
(0 0 0.00072601)
(0 0 0.000837771)
(0 0 0.000949561)
(0 0 0.00106138)
(0 0 0.00117324)
(0 0 0.00128514)
(0 0 0.00139707)
(0 0 0.00150906)
(0 0 0.00162109)
(0 0 0.00173317)
(0 0 0.00184531)
(0 0 0.0019575)
(0 0 0.00206975)
(0 0 0.00218206)
(0 0 0.00229444)
(0 0 0.00240687)
(0 0 0.00251938)
(0 0 0.00263195)
(0 0 0.00274459)
(0 0 0.0028573)
(0 0 0.00297007)
(0 0 0.00308292)
(0 0 0.00319583)
(0 0 0.00330881)
(0 0 0.00342186)
(0 0 0.00353498)
(0 0 0.00364815)
(0 0 0.0037614)
(0 0 0.0038747)
(0 0 0.00398805)
(0 0 0.00410147)
(0 0 0.00421493)
(0 0 0.00432843)
(0 0 0.00444198)
(0 0 0.00455556)
(0 0 0.00466917)
(0 0 0.00478281)
(0 0 0.00489646)
(0 0 0.00501012)
(0 0 0.00512378)
(0 0 0.00523744)
(0 0 0.00535107)
(0 0 0.00546468)
(0 0 0.00557826)
(0 0 0.00569178)
(0 0 0.00580524)
(0 0 0.00591863)
(0 0 0.00603193)
(0 0 0.00614512)
(0 0 0.00625821)
(0 0 0.00637115)
(0 0 0.00648395)
(0 0 0.00659658)
(0 0 0.00670903)
(0 0 0.00682127)
(0 0 0.00693329)
(0 0 0.00704506)
(0 0 0.00715656)
(0 0 0.00726777)
(0 0 0.00737867)
(0 0 0.00748923)
(0 0 0.00759942)
(0 0 0.00770922)
(0 0 0.0078186)
(0 0 0.00792753)
(0 0 0.00803598)
(0 0 0.00814393)
(0 0 0.00825133)
(0 0 0.00835816)
(0 0 0.00846438)
(0 0 0.00856996)
(0 0 0.00867486)
(0 0 0.00877905)
(0 0 0.00888248)
(0 0 0.00898512)
(0 0 0.00908694)
(0 0 0.00918788)
(0 0 0.0092879)
(0 0 0.00938698)
(0 0 0.00948505)
(0 0 0.00958208)
(0 0 0.00967803)
(0 0 0.00977284)
(0 0 0.00986647)
(0 0 0.00995887)
(0 0 0.01005)
(0 0 0.0101398)
(0 0 0.0102282)
(0 0 0.0103152)
(0 0 0.0104008)
(0 0 0.0104848)
(0 0 0.0105672)
(0 0 0.0106481)
(0 0 0.0107272)
(0 0 0.0108046)
(0 0 0.0108803)
(0 0 0.0109541)
(0 0 0.0110261)
(0 0 0.0110961)
(0 0 0.0111641)
(0 0 0.0112301)
(0 0 0.011294)
(0 0 0.0113558)
(0 0 0.0114154)
(0 0 0.0114728)
(0 0 0.011528)
(0 0 0.0115808)
(0 0 0.0116312)
(0 0 0.0116793)
(0 0 0.0117249)
(0 0 0.011768)
(0 0 0.0118086)
(0 0 0.0118466)
(0 0 0.0118821)
(0 0 0.0119149)
(0 0 0.011945)
(0 0 0.0119724)
(0 0 0.0119971)
(0 0 0.0120191)
(0 0 0.0120383)
(0 0 0.0120547)
(0 0 0.0120683)
(0 0 0.012079)
(0 0 0.0120869)
(0 0 0.012092)
(0 0 0.0120941)
(0 0 0.0120934)
(0 0 0.0120898)
(0 0 0.0120833)
(0 0 0.012074)
(0 0 0.0120617)
(0 0 0.0120466)
(0 0 0.0120286)
(0 0 0.0120078)
(0 0 0.0119841)
(0 0 0.0119576)
(0 0 0.0119282)
(0 0 0.0118961)
(0 0 0.0118612)
(0 0 0.0118236)
(0 0 0.0117832)
(0 0 0.0117402)
(0 0 0.0116945)
(0 0 0.0116461)
(0 0 0.0115952)
(0 0 0.0115418)
(0 0 0.0114858)
(0 0 0.0114273)
(0 0 0.0113665)
(0 0 0.0113032)
(0 0 0.0112376)
(0 0 0.0111697)
(0 0 0.0110995)
(0 0 0.0110272)
(0 0 0.0109527)
(0 0 0.0108761)
(0 0 0.0107974)
(0 0 0.0107168)
(0 0 0.0106342)
(0 0 0.0105497)
(0 0 0.0104634)
(0 0 0.0103752)
(0 0 0.0102854)
(0 0 0.0101938)
(0 0 0.0101007)
(0 0 0.0100059)
(0 0 0.00990963)
(0 0 0.00981188)
(0 0 0.00971271)
(0 0 0.00961217)
(0 0 0.00951031)
(0 0 0.00940718)
(0 0 0.00930283)
(0 0 0.00919732)
(0 0 0.00909068)
(0 0 0.00898298)
(0 0 0.00887424)
(0 0 0.00876453)
(0 0 0.00865388)
(0 0 0.00854233)
(0 0 0.00842995)
(0 0 0.00831675)
(0 0 0.00820279)
(0 0 0.00808811)
(0 0 0.00797274)
(0 0 0.00785672)
(0 0 0.00774009)
(0 0 0.00762289)
(0 0 0.00750515)
(0 0 0.0073869)
(0 0 0.00726818)
(0 0 0.00714902)
(0 0 0.00702944)
(0 0 0.00690949)
(0 0 0.00678917)
(0 0 0.00666853)
(0 0 0.00654759)
(0 0 0.00642637)
(0 0 0.0063049)
(0 0 0.0061832)
(0 0 0.00606129)
(0 0 0.00593919)
(0 0 0.00581693)
(0 0 0.00569451)
(0 0 0.00557196)
(0 0 0.0054493)
(0 0 0.00532654)
(0 0 0.0052037)
(0 0 0.00508079)
(0 0 0.00495782)
(0 0 0.00483481)
(0 0 0.00471176)
(0 0 0.00458869)
(0 0 0.00446561)
(0 0 0.00434253)
(0 0 0.00421946)
(0 0 0.00409639)
(0 0 0.00397335)
(0 0 0.00385034)
(0 0 0.00372736)
(0 0 0.00360441)
(0 0 0.00348151)
(0 0 0.00335866)
(0 0 0.00323585)
(0 0 0.0031131)
(0 0 0.0029904)
(0 0 0.00286776)
(0 0 0.00274518)
(0 0 0.00262265)
(0 0 0.00250019)
(0 0 0.00237778)
(0 0 0.00225543)
(0 0 0.00213314)
(0 0 0.0020109)
(0 0 0.00188873)
(0 0 0.0017666)
(0 0 0.00164452)
(0 0 0.0015225)
(0 0 0.00140052)
(0 0 0.00127858)
(0 0 0.00115668)
(0 0 0.00103483)
(0 0 0.000913)
(0 0 0.000791205)
(0 0 0.000669436)
(0 0 0.000547689)
(0 0 0.000425961)
(0 0 0.000304248)
(0 0 0.000182544)
(0 0 6.08474e-05)
(0 0 7.17824e-05)
(0 0 0.00021535)
(0 0 0.000358924)
(0 0 0.000502512)
(0 0 0.000646117)
(0 0 0.000789744)
(0 0 0.000933399)
(0 0 0.00107709)
(0 0 0.00122081)
(0 0 0.00136457)
(0 0 0.00150838)
(0 0 0.00165224)
(0 0 0.00179616)
(0 0 0.00194013)
(0 0 0.00208417)
(0 0 0.00222827)
(0 0 0.00237244)
(0 0 0.00251668)
(0 0 0.002661)
(0 0 0.0028054)
(0 0 0.00294988)
(0 0 0.00309444)
(0 0 0.00323909)
(0 0 0.00338382)
(0 0 0.00352864)
(0 0 0.00367355)
(0 0 0.00381854)
(0 0 0.00396363)
(0 0 0.00410881)
(0 0 0.00425407)
(0 0 0.00439942)
(0 0 0.00454486)
(0 0 0.00469038)
(0 0 0.00483598)
(0 0 0.00498165)
(0 0 0.00512741)
(0 0 0.00527323)
(0 0 0.00541911)
(0 0 0.00556506)
(0 0 0.00571105)
(0 0 0.0058571)
(0 0 0.00600318)
(0 0 0.0061493)
(0 0 0.00629543)
(0 0 0.00644158)
(0 0 0.00658773)
(0 0 0.00673388)
(0 0 0.00688)
(0 0 0.00702608)
(0 0 0.00717213)
(0 0 0.0073181)
(0 0 0.007464)
(0 0 0.00760981)
(0 0 0.00775551)
(0 0 0.00790107)
(0 0 0.00804649)
(0 0 0.00819174)
(0 0 0.00833679)
(0 0 0.00848164)
(0 0 0.00862624)
(0 0 0.00877059)
(0 0 0.00891465)
(0 0 0.00905839)
(0 0 0.00920179)
(0 0 0.00934482)
(0 0 0.00948744)
(0 0 0.00962963)
(0 0 0.00977135)
(0 0 0.00991257)
(0 0 0.0100533)
(0 0 0.0101934)
(0 0 0.0103328)
(0 0 0.0104717)
(0 0 0.0106098)
(0 0 0.0107472)
(0 0 0.0108839)
(0 0 0.0110197)
(0 0 0.0111546)
(0 0 0.0112886)
(0 0 0.0114217)
(0 0 0.0115537)
(0 0 0.0116847)
(0 0 0.0118145)
(0 0 0.0119432)
(0 0 0.0120707)
(0 0 0.0121969)
(0 0 0.0123217)
(0 0 0.0124451)
(0 0 0.0125671)
(0 0 0.0126876)
(0 0 0.0128064)
(0 0 0.0129237)
(0 0 0.0130392)
(0 0 0.013153)
(0 0 0.013265)
(0 0 0.013375)
(0 0 0.0134832)
(0 0 0.0135892)
(0 0 0.0136932)
(0 0 0.0137951)
(0 0 0.0138947)
(0 0 0.0139921)
(0 0 0.0140871)
(0 0 0.0141797)
(0 0 0.0142698)
(0 0 0.0143573)
(0 0 0.0144423)
(0 0 0.0145245)
(0 0 0.0146041)
(0 0 0.0146808)
(0 0 0.0147547)
(0 0 0.0148256)
(0 0 0.0148936)
(0 0 0.0149586)
(0 0 0.0150204)
(0 0 0.0150791)
(0 0 0.0151346)
(0 0 0.0151869)
(0 0 0.0152358)
(0 0 0.0152814)
(0 0 0.0153237)
(0 0 0.0153625)
(0 0 0.0153978)
(0 0 0.0154296)
(0 0 0.0154579)
(0 0 0.0154826)
(0 0 0.0155037)
(0 0 0.0155212)
(0 0 0.015535)
(0 0 0.0155452)
(0 0 0.0155517)
(0 0 0.0155545)
(0 0 0.0155536)
(0 0 0.015549)
(0 0 0.0155407)
(0 0 0.0155286)
(0 0 0.0155129)
(0 0 0.0154934)
(0 0 0.0154703)
(0 0 0.0154434)
(0 0 0.015413)
(0 0 0.0153788)
(0 0 0.0153411)
(0 0 0.0152997)
(0 0 0.0152548)
(0 0 0.0152064)
(0 0 0.0151544)
(0 0 0.015099)
(0 0 0.0150402)
(0 0 0.014978)
(0 0 0.0149125)
(0 0 0.0148437)
(0 0 0.0147717)
(0 0 0.0146964)
(0 0 0.0146181)
(0 0 0.0145367)
(0 0 0.0144523)
(0 0 0.0143649)
(0 0 0.0142746)
(0 0 0.0141815)
(0 0 0.0140856)
(0 0 0.013987)
(0 0 0.0138858)
(0 0 0.0137821)
(0 0 0.0136758)
(0 0 0.013567)
(0 0 0.013456)
(0 0 0.0133426)
(0 0 0.0132269)
(0 0 0.0131092)
(0 0 0.0129893)
(0 0 0.0128674)
(0 0 0.0127435)
(0 0 0.0126177)
(0 0 0.0124901)
(0 0 0.0123608)
(0 0 0.0122297)
(0 0 0.012097)
(0 0 0.0119628)
(0 0 0.011827)
(0 0 0.0116899)
(0 0 0.0115513)
(0 0 0.0114114)
(0 0 0.0112703)
(0 0 0.0111279)
(0 0 0.0109845)
(0 0 0.0108399)
(0 0 0.0106943)
(0 0 0.0105477)
(0 0 0.0104002)
(0 0 0.0102518)
(0 0 0.0101025)
(0 0 0.00995254)
(0 0 0.00980179)
(0 0 0.00965035)
(0 0 0.00949826)
(0 0 0.00934557)
(0 0 0.0091923)
(0 0 0.00903851)
(0 0 0.00888423)
(0 0 0.0087295)
(0 0 0.00857435)
(0 0 0.00841881)
(0 0 0.00826291)
(0 0 0.0081067)
(0 0 0.00795019)
(0 0 0.00779341)
(0 0 0.00763639)
(0 0 0.00747916)
(0 0 0.00732174)
(0 0 0.00716415)
(0 0 0.00700642)
(0 0 0.00684856)
(0 0 0.00669059)
(0 0 0.00653254)
(0 0 0.00637441)
(0 0 0.00621623)
(0 0 0.00605801)
(0 0 0.00589977)
(0 0 0.00574151)
(0 0 0.00558325)
(0 0 0.00542499)
(0 0 0.00526676)
(0 0 0.00510855)
(0 0 0.00495038)
(0 0 0.00479225)
(0 0 0.00463418)
(0 0 0.00447615)
(0 0 0.00431819)
(0 0 0.0041603)
(0 0 0.00400247)
(0 0 0.00384471)
(0 0 0.00368702)
(0 0 0.00352942)
(0 0 0.00337188)
(0 0 0.00321443)
(0 0 0.00305705)
(0 0 0.00289974)
(0 0 0.00274251)
(0 0 0.00258535)
(0 0 0.00242827)
(0 0 0.00227125)
(0 0 0.0021143)
(0 0 0.00195742)
(0 0 0.00180059)
(0 0 0.00164382)
(0 0 0.0014871)
(0 0 0.00133043)
(0 0 0.00117381)
(0 0 0.00101722)
(0 0 0.000860665)
(0 0 0.00070414)
(0 0 0.000547639)
(0 0 0.000391158)
(0 0 0.000234689)
(0 0 7.82288e-05)
(0 0 8.77289e-05)
(0 0 0.00026319)
(0 0 0.00043866)
(0 0 0.000614145)
(0 0 0.000789652)
(0 0 0.000965187)
(0 0 0.00114075)
(0 0 0.00131636)
(0 0 0.00149201)
(0 0 0.00166772)
(0 0 0.00184348)
(0 0 0.0020193)
(0 0 0.00219519)
(0 0 0.00237115)
(0 0 0.00254718)
(0 0 0.0027233)
(0 0 0.0028995)
(0 0 0.00307579)
(0 0 0.00325218)
(0 0 0.00342866)
(0 0 0.00360524)
(0 0 0.00378192)
(0 0 0.00395871)
(0 0 0.0041356)
(0 0 0.0043126)
(0 0 0.00448971)
(0 0 0.00466693)
(0 0 0.00484426)
(0 0 0.00502169)
(0 0 0.00519924)
(0 0 0.0053769)
(0 0 0.00555466)
(0 0 0.00573252)
(0 0 0.00591048)
(0 0 0.00608854)
(0 0 0.00626669)
(0 0 0.00644492)
(0 0 0.00662324)
(0 0 0.00680163)
(0 0 0.00698008)
(0 0 0.0071586)
(0 0 0.00733716)
(0 0 0.00751576)
(0 0 0.00769439)
(0 0 0.00787304)
(0 0 0.00805169)
(0 0 0.00823033)
(0 0 0.00840895)
(0 0 0.00858753)
(0 0 0.00876606)
(0 0 0.0089445)
(0 0 0.00912286)
(0 0 0.00930111)
(0 0 0.00947921)
(0 0 0.00965717)
(0 0 0.00983494)
(0 0 0.0100125)
(0 0 0.0101898)
(0 0 0.0103669)
(0 0 0.0105437)
(0 0 0.0107202)
(0 0 0.0108963)
(0 0 0.0110721)
(0 0 0.0112474)
(0 0 0.0114223)
(0 0 0.0115966)
(0 0 0.0117705)
(0 0 0.0119438)
(0 0 0.0121165)
(0 0 0.0122885)
(0 0 0.0124598)
(0 0 0.0126304)
(0 0 0.0128001)
(0 0 0.0129691)
(0 0 0.0131371)
(0 0 0.0133042)
(0 0 0.0134703)
(0 0 0.0136353)
(0 0 0.0137992)
(0 0 0.0139619)
(0 0 0.0141234)
(0 0 0.0142836)
(0 0 0.0144424)
(0 0 0.0145998)
(0 0 0.0147557)
(0 0 0.01491)
(0 0 0.0150627)
(0 0 0.0152137)
(0 0 0.0153629)
(0 0 0.0155102)
(0 0 0.0156557)
(0 0 0.0157991)
(0 0 0.0159404)
(0 0 0.0160796)
(0 0 0.0162166)
(0 0 0.0163513)
(0 0 0.0164835)
(0 0 0.0166133)
(0 0 0.0167406)
(0 0 0.0168652)
(0 0 0.0169871)
(0 0 0.0171062)
(0 0 0.0172224)
(0 0 0.0173357)
(0 0 0.017446)
(0 0 0.0175531)
(0 0 0.0176571)
(0 0 0.0177578)
(0 0 0.0178551)
(0 0 0.017949)
(0 0 0.0180394)
(0 0 0.0181263)
(0 0 0.0182095)
(0 0 0.018289)
(0 0 0.0183647)
(0 0 0.0184365)
(0 0 0.0185045)
(0 0 0.0185684)
(0 0 0.0186284)
(0 0 0.0186842)
(0 0 0.0187359)
(0 0 0.0187834)
(0 0 0.0188266)
(0 0 0.0188656)
(0 0 0.0189002)
(0 0 0.0189305)
(0 0 0.0189564)
(0 0 0.0189778)
(0 0 0.0189947)
(0 0 0.0190072)
(0 0 0.0190152)
(0 0 0.0190186)
(0 0 0.0190175)
(0 0 0.0190119)
(0 0 0.0190017)
(0 0 0.018987)
(0 0 0.0189677)
(0 0 0.0189439)
(0 0 0.0189156)
(0 0 0.0188828)
(0 0 0.0188455)
(0 0 0.0188037)
(0 0 0.0187575)
(0 0 0.0187069)
(0 0 0.018652)
(0 0 0.0185927)
(0 0 0.0185291)
(0 0 0.0184613)
(0 0 0.0183894)
(0 0 0.0183133)
(0 0 0.0182331)
(0 0 0.0181489)
(0 0 0.0180607)
(0 0 0.0179687)
(0 0 0.0178728)
(0 0 0.0177732)
(0 0 0.0176699)
(0 0 0.017563)
(0 0 0.0174525)
(0 0 0.0173386)
(0 0 0.0172213)
(0 0 0.0171006)
(0 0 0.0169768)
(0 0 0.0168498)
(0 0 0.0167198)
(0 0 0.0165868)
(0 0 0.0164509)
(0 0 0.0163121)
(0 0 0.0161707)
(0 0 0.0160266)
(0 0 0.0158799)
(0 0 0.0157308)
(0 0 0.0155792)
(0 0 0.0154254)
(0 0 0.0152693)
(0 0 0.015111)
(0 0 0.0149507)
(0 0 0.0147885)
(0 0 0.0146243)
(0 0 0.0144582)
(0 0 0.0142904)
(0 0 0.0141209)
(0 0 0.0139499)
(0 0 0.0137772)
(0 0 0.0136031)
(0 0 0.0134277)
(0 0 0.0132509)
(0 0 0.0130728)
(0 0 0.0128935)
(0 0 0.0127131)
(0 0 0.0125316)
(0 0 0.0123492)
(0 0 0.0121657)
(0 0 0.0119814)
(0 0 0.0117962)
(0 0 0.0116102)
(0 0 0.0114235)
(0 0 0.0112361)
(0 0 0.0110481)
(0 0 0.0108594)
(0 0 0.0106702)
(0 0 0.0104805)
(0 0 0.0102904)
(0 0 0.0100998)
(0 0 0.00990879)
(0 0 0.00971744)
(0 0 0.00952577)
(0 0 0.00933381)
(0 0 0.00914159)
(0 0 0.00894914)
(0 0 0.00875648)
(0 0 0.00856366)
(0 0 0.00837068)
(0 0 0.00817757)
(0 0 0.00798436)
(0 0 0.00779107)
(0 0 0.0075977)
(0 0 0.0074043)
(0 0 0.00721086)
(0 0 0.00701741)
(0 0 0.00682395)
(0 0 0.00663051)
(0 0 0.00643709)
(0 0 0.00624371)
(0 0 0.00605038)
(0 0 0.0058571)
(0 0 0.00566388)
(0 0 0.00547073)
(0 0 0.00527766)
(0 0 0.00508467)
(0 0 0.00489176)
(0 0 0.00469894)
(0 0 0.00450621)
(0 0 0.00431358)
(0 0 0.00412104)
(0 0 0.00392859)
(0 0 0.00373624)
(0 0 0.00354398)
(0 0 0.00335181)
(0 0 0.00315973)
(0 0 0.00296775)
(0 0 0.00277584)
(0 0 0.00258402)
(0 0 0.00239228)
(0 0 0.00220061)
(0 0 0.00200901)
(0 0 0.00181747)
(0 0 0.001626)
(0 0 0.00143457)
(0 0 0.0012432)
(0 0 0.00105186)
(0 0 0.000860567)
(0 0 0.000669299)
(0 0 0.000478054)
(0 0 0.000286826)
(0 0 9.56075e-05)
(0 0 0.000103672)
(0 0 0.00031102)
(0 0 0.00051838)
(0 0 0.000725757)
(0 0 0.00093316)
(0 0 0.0011406)
(0 0 0.00134807)
(0 0 0.00155559)
(0 0 0.00176317)
(0 0 0.00197081)
(0 0 0.00217851)
(0 0 0.00238629)
(0 0 0.00259414)
(0 0 0.00280208)
(0 0 0.00301011)
(0 0 0.00321824)
(0 0 0.00342647)
(0 0 0.00363481)
(0 0 0.00384325)
(0 0 0.00405181)
(0 0 0.00426049)
(0 0 0.00446929)
(0 0 0.00467822)
(0 0 0.00488727)
(0 0 0.00509645)
(0 0 0.00530576)
(0 0 0.0055152)
(0 0 0.00572477)
(0 0 0.00593447)
(0 0 0.0061443)
(0 0 0.00635426)
(0 0 0.00656435)
(0 0 0.00677456)
(0 0 0.00698488)
(0 0 0.00719533)
(0 0 0.00740588)
(0 0 0.00761653)
(0 0 0.00782729)
(0 0 0.00803813)
(0 0 0.00824905)
(0 0 0.00846004)
(0 0 0.00867109)
(0 0 0.0088822)
(0 0 0.00909333)
(0 0 0.00930449)
(0 0 0.00951566)
(0 0 0.00972681)
(0 0 0.00993795)
(0 0 0.010149)
(0 0 0.0103601)
(0 0 0.010571)
(0 0 0.0107818)
(0 0 0.0109925)
(0 0 0.0112031)
(0 0 0.0114134)
(0 0 0.0116236)
(0 0 0.0118335)
(0 0 0.0120432)
(0 0 0.0122525)
(0 0 0.0124615)
(0 0 0.0126701)
(0 0 0.0128784)
(0 0 0.0130861)
(0 0 0.0132934)
(0 0 0.0135002)
(0 0 0.0137064)
(0 0 0.0139119)
(0 0 0.0141168)
(0 0 0.014321)
(0 0 0.0145244)
(0 0 0.014727)
(0 0 0.0149287)
(0 0 0.0151294)
(0 0 0.0153292)
(0 0 0.0155279)
(0 0 0.0157255)
(0 0 0.0159219)
(0 0 0.0161171)
(0 0 0.0163109)
(0 0 0.0165034)
(0 0 0.0166944)
(0 0 0.0168838)
(0 0 0.0170717)
(0 0 0.0172578)
(0 0 0.0174422)
(0 0 0.0176248)
(0 0 0.0178054)
(0 0 0.017984)
(0 0 0.0181605)
(0 0 0.0183348)
(0 0 0.0185069)
(0 0 0.0186765)
(0 0 0.0188438)
(0 0 0.0190085)
(0 0 0.0191705)
(0 0 0.0193299)
(0 0 0.0194864)
(0 0 0.0196399)
(0 0 0.0197905)
(0 0 0.019938)
(0 0 0.0200822)
(0 0 0.0202232)
(0 0 0.0203608)
(0 0 0.0204949)
(0 0 0.0206253)
(0 0 0.0207522)
(0 0 0.0208752)
(0 0 0.0209944)
(0 0 0.0211096)
(0 0 0.0212207)
(0 0 0.0213278)
(0 0 0.0214306)
(0 0 0.0215291)
(0 0 0.0216232)
(0 0 0.0217128)
(0 0 0.0217979)
(0 0 0.0218783)
(0 0 0.021954)
(0 0 0.022025)
(0 0 0.0220911)
(0 0 0.0221523)
(0 0 0.0222086)
(0 0 0.0222598)
(0 0 0.0223059)
(0 0 0.022347)
(0 0 0.0223828)
(0 0 0.0224134)
(0 0 0.0224388)
(0 0 0.0224589)
(0 0 0.0224737)
(0 0 0.0224831)
(0 0 0.0224872)
(0 0 0.022486)
(0 0 0.0224793)
(0 0 0.0224673)
(0 0 0.0224499)
(0 0 0.0224271)
(0 0 0.0223989)
(0 0 0.0223654)
(0 0 0.0223266)
(0 0 0.0222824)
(0 0 0.022233)
(0 0 0.0221784)
(0 0 0.0221185)
(0 0 0.0220534)
(0 0 0.0219833)
(0 0 0.0219081)
(0 0 0.0218278)
(0 0 0.0217426)
(0 0 0.0216526)
(0 0 0.0215577)
(0 0 0.021458)
(0 0 0.0213537)
(0 0 0.0212447)
(0 0 0.0211313)
(0 0 0.0210134)
(0 0 0.0208911)
(0 0 0.0207646)
(0 0 0.0206338)
(0 0 0.020499)
(0 0 0.0203602)
(0 0 0.0202175)
(0 0 0.0200709)
(0 0 0.0199207)
(0 0 0.0197668)
(0 0 0.0196094)
(0 0 0.0194486)
(0 0 0.0192844)
(0 0 0.019117)
(0 0 0.0189465)
(0 0 0.018773)
(0 0 0.0185966)
(0 0 0.0184173)
(0 0 0.0182353)
(0 0 0.0180506)
(0 0 0.0178634)
(0 0 0.0176738)
(0 0 0.0174818)
(0 0 0.0172875)
(0 0 0.0170911)
(0 0 0.0168927)
(0 0 0.0166922)
(0 0 0.0164898)
(0 0 0.0162857)
(0 0 0.0160798)
(0 0 0.0158722)
(0 0 0.0156631)
(0 0 0.0154525)
(0 0 0.0152405)
(0 0 0.0150271)
(0 0 0.0148125)
(0 0 0.0145967)
(0 0 0.0143798)
(0 0 0.0141618)
(0 0 0.0139428)
(0 0 0.0137229)
(0 0 0.0135022)
(0 0 0.0132806)
(0 0 0.0130582)
(0 0 0.0128352)
(0 0 0.0126115)
(0 0 0.0123872)
(0 0 0.0121624)
(0 0 0.011937)
(0 0 0.0117112)