/*--------------------------------*- C++ -*----------------------------------*\
| =========                 |                                                 |
| \\      /  F ield         | OpenFOAM: The Open Source CFD Toolbox           |
|  \\    /   O peration     | Version:  v2012                                 |
|   \\  /    A nd           | Website:  www.openfoam.com                      |
|    \\/     M anipulation  |                                                 |
\*---------------------------------------------------------------------------*/
FoamFile
{
    version     2.0;
    format      ascii;
    class       volVectorField;
    location    "20";
    object      U;
}
// * * * * * * * * * * * * * * * * * * * * * * * * * * * * * * * * * * * * * //

dimensions      [0 1 -1 0 0 0 0];


internalField   nonuniform List<vector> 
65536
(
(0.000650492 -0.000650502 0)
(0.0019515 -0.000650526 0)
(0.00325258 -0.000650573 0)
(0.00455377 -0.000650641 0)
(0.00585512 -0.000650733 0)
(0.00715668 -0.000650847 0)
(0.00845849 -0.000650983 0)
(0.00976059 -0.00065114 0)
(0.011063 -0.000651319 0)
(0.0123659 -0.000651519 0)
(0.0136691 -0.000651739 0)
(0.0149728 -0.000651979 0)
(0.016277 -0.000652237 0)
(0.0175817 -0.000652514 0)
(0.018887 -0.000652807 0)
(0.0201929 -0.000653118 0)
(0.0214995 -0.000653443 0)
(0.0228067 -0.000653783 0)
(0.0241146 -0.000654136 0)
(0.0254232 -0.000654501 0)
(0.0267326 -0.000654876 0)
(0.0280427 -0.000655261 0)
(0.0293536 -0.000655654 0)
(0.0306654 -0.000656054 0)
(0.0319779 -0.000656458 0)
(0.0332912 -0.000656866 0)
(0.0346053 -0.000657275 0)
(0.0359203 -0.000657684 0)
(0.0372361 -0.00065809 0)
(0.0385527 -0.000658492 0)
(0.03987 -0.000658889 0)
(0.0411882 -0.000659276 0)
(0.0425072 -0.000659653 0)
(0.0438268 -0.000660017 0)
(0.0451472 -0.000660365 0)
(0.0464683 -0.000660695 0)
(0.0477901 -0.000661004 0)
(0.0491124 -0.00066129 0)
(0.0504352 -0.00066155 0)
(0.0517586 -0.00066178 0)
(0.0530824 -0.000661978 0)
(0.0544066 -0.000662141 0)
(0.055731 -0.000662265 0)
(0.0570557 -0.000662347 0)
(0.0583804 -0.000662383 0)
(0.0597052 -0.000662371 0)
(0.06103 -0.000662305 0)
(0.0623545 -0.000662184 0)
(0.0636788 -0.000662001 0)
(0.0650026 -0.000661754 0)
(0.0663259 -0.000661439 0)
(0.0676484 -0.00066105 0)
(0.0689701 -0.000660585 0)
(0.0702909 -0.000660038 0)
(0.0716104 -0.000659404 0)
(0.0729286 -0.00065868 0)
(0.0742452 -0.00065786 0)
(0.0755601 -0.00065694 0)
(0.0768731 -0.000655914 0)
(0.0781839 -0.000654778 0)
(0.0794923 -0.000653526 0)
(0.0807981 -0.000652152 0)
(0.082101 -0.000650653 0)
(0.0834009 -0.000649022 0)
(0.0846973 -0.000647253 0)
(0.08599 -0.000645342 0)
(0.0872788 -0.000643282 0)
(0.0885633 -0.000641068 0)
(0.0898432 -0.000638693 0)
(0.0911182 -0.000636154 0)
(0.092388 -0.000633442 0)
(0.0936522 -0.000630553 0)
(0.0949104 -0.000627481 0)
(0.0961623 -0.000624219 0)
(0.0974075 -0.000620762 0)
(0.0986456 -0.000617105 0)
(0.0998761 -0.00061324 0)
(0.101099 -0.000609163 0)
(0.102313 -0.000604867 0)
(0.103518 -0.000600347 0)
(0.104715 -0.000595598 0)
(0.105901 -0.000590613 0)
(0.107077 -0.000585388 0)
(0.108243 -0.000579917 0)
(0.109397 -0.000574194 0)
(0.11054 -0.000568216 0)
(0.11167 -0.000561977 0)
(0.112788 -0.000555473 0)
(0.113892 -0.000548699 0)
(0.114983 -0.000541651 0)
(0.116059 -0.000534325 0)
(0.117121 -0.000526718 0)
(0.118167 -0.000518827 0)
(0.119196 -0.000510647 0)
(0.120209 -0.000502178 0)
(0.121205 -0.000493416 0)
(0.122183 -0.000484359 0)
(0.123143 -0.000475007 0)
(0.124084 -0.000465357 0)
(0.125005 -0.000455409 0)
(0.125906 -0.000445164 0)
(0.126786 -0.00043462 0)
(0.127644 -0.000423779 0)
(0.128481 -0.000412642 0)
(0.129295 -0.000401211 0)
(0.130086 -0.000389488 0)
(0.130854 -0.000377475 0)
(0.131596 -0.000365177 0)
(0.132314 -0.000352596 0)
(0.133007 -0.000339738 0)
(0.133674 -0.000326607 0)
(0.134314 -0.000313209 0)
(0.134927 -0.00029955 0)
(0.135512 -0.000285636 0)
(0.13607 -0.000271476 0)
(0.136598 -0.000257077 0)
(0.137098 -0.000242447 0)
(0.137568 -0.000227596 0)
(0.138009 -0.000212532 0)
(0.138419 -0.000197267 0)
(0.138798 -0.00018181 0)
(0.139146 -0.000166173 0)
(0.139463 -0.000150367 0)
(0.139748 -0.000134404 0)
(0.140001 -0.000118297 0)
(0.140221 -0.000102058 0)
(0.140409 -8.57017e-05 0)
(0.140564 -6.92401e-05 0)
(0.140686 -5.26877e-05 0)
(0.140775 -3.60584e-05 0)
(0.14083 -1.93667e-05 0)
(0.140852 -2.6271e-06 0)
(0.140841 1.41457e-05 0)
(0.140796 3.09369e-05 0)
(0.140717 4.77317e-05 0)
(0.140605 6.4515e-05 0)
(0.140459 8.1272e-05 0)
(0.14028 9.79879e-05 0)
(0.140067 0.000114648 0)
(0.139821 0.000131237 0)
(0.139542 0.000147741 0)
(0.13923 0.000164146 0)
(0.138885 0.000180438 0)
(0.138508 0.000196603 0)
(0.138099 0.000212627 0)
(0.137657 0.000228498 0)
(0.137185 0.000244203 0)
(0.13668 0.00025973 0)
(0.136145 0.000275067 0)
(0.13558 0.000290203 0)
(0.134984 0.000305127 0)
(0.134359 0.000319828 0)
(0.133705 0.000334297 0)
(0.133022 0.000348526 0)
(0.13231 0.000362504 0)
(0.131571 0.000376225 0)
(0.130805 0.000389681 0)
(0.130012 0.000402865 0)
(0.129194 0.00041577 0)
(0.128349 0.000428392 0)
(0.12748 0.000440726 0)
(0.126586 0.000452766 0)
(0.125668 0.000464509 0)
(0.124728 0.000475952 0)
(0.123764 0.000487092 0)
(0.122779 0.000497928 0)
(0.121772 0.000508457 0)
(0.120745 0.000518678 0)
(0.119697 0.000528592 0)
(0.11863 0.000538198 0)
(0.117544 0.000547497 0)
(0.11644 0.00055649 0)
(0.115318 0.000565178 0)
(0.114179 0.000573564 0)
(0.113023 0.000581649 0)
(0.111852 0.000589436 0)
(0.110665 0.000596929 0)
(0.109464 0.000604131 0)
(0.108248 0.000611045 0)
(0.107019 0.000617677 0)
(0.105777 0.000624029 0)
(0.104523 0.000630108 0)
(0.103257 0.000635917 0)
(0.101979 0.000641462 0)
(0.100691 0.000646748 0)
(0.0993918 0.000651781 0)
(0.0980832 0.000656567 0)
(0.0967653 0.000661111 0)
(0.0954385 0.000665419 0)
(0.0941034 0.000669497 0)
(0.0927603 0.000673352 0)
(0.0914098 0.000676989 0)
(0.0900522 0.000680416 0)
(0.0886879 0.000683638 0)
(0.0873174 0.000686662 0)
(0.0859411 0.000689494 0)
(0.0845592 0.00069214 0)
(0.0831723 0.000694608 0)
(0.0817806 0.000696903 0)
(0.0803845 0.000699032 0)
(0.0789844 0.000701001 0)
(0.0775804 0.000702817 0)
(0.0761729 0.000704485 0)
(0.0747623 0.000706013 0)
(0.0733487 0.000707405 0)
(0.0719325 0.000708668 0)
(0.070514 0.000709808 0)
(0.0690932 0.000710831 0)
(0.0676705 0.000711743 0)
(0.0662461 0.000712549 0)
(0.0648202 0.000713254 0)
(0.063393 0.000713865 0)
(0.0619647 0.000714386 0)
(0.0605354 0.000714824 0)
(0.0591053 0.000715182 0)
(0.0576746 0.000715466 0)
(0.0562434 0.00071568 0)
(0.0548118 0.00071583 0)
(0.05338 0.000715921 0)
(0.0519481 0.000715956 0)
(0.0505161 0.00071594 0)
(0.0490843 0.000715877 0)
(0.0476526 0.000715771 0)
(0.0462211 0.000715626 0)
(0.04479 0.000715447 0)
(0.0433593 0.000715237 0)
(0.0419291 0.000714999 0)
(0.0404993 0.000714736 0)
(0.0390701 0.000714453 0)
(0.0376415 0.000714153 0)
(0.0362135 0.000713838 0)
(0.0347861 0.000713511 0)
(0.0333594 0.000713176 0)
(0.0319334 0.000712835 0)
(0.0305081 0.000712491 0)
(0.0290834 0.000712145 0)
(0.0276595 0.000711801 0)
(0.0262362 0.000711461 0)
(0.0248137 0.000711126 0)
(0.0233917 0.0007108 0)
(0.0219705 0.000710482 0)
(0.0205498 0.000710177 0)
(0.0191298 0.000709884 0)
(0.0177103 0.000709606 0)
(0.0162914 0.000709344 0)
(0.0148729 0.000709099 0)
(0.013455 0.000708873 0)
(0.0120375 0.000708666 0)
(0.0106203 0.00070848 0)
(0.00920357 0.000708315 0)
(0.00778711 0.000708172 0)
(0.00637091 0.000708052 0)
(0.00495493 0.000707956 0)
(0.00353911 0.000707883 0)
(0.00212342 0.000707835 0)
(0.000707798 0.00070781 0)
(0.00065047 -0.00195149 0)
(0.00195143 -0.00195156 0)
(0.00325247 -0.0019517 0)
(0.00455362 -0.0019519 0)
(0.00585492 -0.00195218 0)
(0.00715644 -0.00195252 0)
(0.00845821 -0.00195293 0)
(0.00976027 -0.0019534 0)
(0.0110627 -0.00195394 0)
(0.0123654 -0.00195454 0)
(0.0136686 -0.0019552 0)
(0.0149723 -0.00195592 0)
(0.0162765 -0.0019567 0)
(0.0175812 -0.00195753 0)
(0.0188865 -0.00195841 0)
(0.0201923 -0.00195934 0)
(0.0214988 -0.00196032 0)
(0.022806 -0.00196134 0)
(0.0241139 -0.0019624 0)
(0.0254225 -0.00196349 0)
(0.0267319 -0.00196462 0)
(0.028042 -0.00196578 0)
(0.0293529 -0.00196696 0)
(0.0306646 -0.00196816 0)
(0.0319771 -0.00196937 0)
(0.0332904 -0.0019706 0)
(0.0346045 -0.00197183 0)
(0.0359195 -0.00197306 0)
(0.0372353 -0.00197428 0)
(0.0385519 -0.00197549 0)
(0.0398693 -0.00197668 0)
(0.0411875 -0.00197784 0)
(0.0425065 -0.00197897 0)
(0.0438262 -0.00198007 0)
(0.0451466 -0.00198112 0)
(0.0464677 -0.00198211 0)
(0.0477895 -0.00198304 0)
(0.0491119 -0.0019839 0)
(0.0504348 -0.00198468 0)
(0.0517582 -0.00198538 0)
(0.0530821 -0.00198597 0)
(0.0544063 -0.00198646 0)
(0.0557309 -0.00198684 0)
(0.0570556 -0.00198709 0)
(0.0583805 -0.0019872 0)
(0.0597054 -0.00198717 0)
(0.0610302 -0.00198698 0)
(0.0623549 -0.00198661 0)
(0.0636793 -0.00198607 0)
(0.0650032 -0.00198533 0)
(0.0663266 -0.00198439 0)
(0.0676494 -0.00198323 0)
(0.0689712 -0.00198184 0)
(0.0702921 -0.0019802 0)
(0.0716118 -0.00197831 0)
(0.0729302 -0.00197614 0)
(0.074247 -0.00197368 0)
(0.0755621 -0.00197093 0)
(0.0768753 -0.00196786 0)
(0.0781863 -0.00196445 0)
(0.079495 -0.0019607 0)
(0.0808011 -0.00195659 0)
(0.0821043 -0.00195209 0)
(0.0834043 -0.0019472 0)
(0.084701 -0.0019419 0)
(0.0859941 -0.00193618 0)
(0.0872831 -0.00193 0)
(0.088568 -0.00192336 0)
(0.0898482 -0.00191625 0)
(0.0911236 -0.00190863 0)
(0.0923937 -0.00190051 0)
(0.0936582 -0.00189184 0)
(0.0949168 -0.00188263 0)
(0.0961691 -0.00187285 0)
(0.0974147 -0.00186249 0)
(0.0986532 -0.00185152 0)
(0.0998841 -0.00183993 0)
(0.101107 -0.00182771 0)
(0.102322 -0.00181483 0)
(0.103528 -0.00180127 0)
(0.104724 -0.00178703 0)
(0.105911 -0.00177208 0)
(0.107088 -0.00175641 0)
(0.108254 -0.00174 0)
(0.109409 -0.00172284 0)
(0.110552 -0.00170491 0)
(0.111683 -0.0016862 0)
(0.112801 -0.00166669 0)
(0.113906 -0.00164637 0)
(0.114998 -0.00162523 0)
(0.116074 -0.00160326 0)
(0.117136 -0.00158044 0)
(0.118183 -0.00155677 0)
(0.119213 -0.00153223 0)
(0.120227 -0.00150683 0)
(0.121223 -0.00148054 0)
(0.122202 -0.00145337 0)
(0.123162 -0.00142532 0)
(0.124103 -0.00139637 0)
(0.125025 -0.00136653 0)
(0.125927 -0.00133579 0)
(0.126807 -0.00130416 0)
(0.127666 -0.00127163 0)
(0.128504 -0.00123822 0)
(0.129319 -0.00120392 0)
(0.13011 -0.00116875 0)
(0.130878 -0.00113271 0)
(0.131621 -0.00109581 0)
(0.13234 -0.00105806 0)
(0.133033 -0.00101948 0)
(0.1337 -0.000980086 0)
(0.134341 -0.000939885 0)
(0.134954 -0.000898901 0)
(0.13554 -0.000857154 0)
(0.136098 -0.000814665 0)
(0.136628 -0.000771459 0)
(0.137128 -0.00072756 0)
(0.137598 -0.000682996 0)
(0.138039 -0.000637796 0)
(0.13845 -0.000591989 0)
(0.138829 -0.000545607 0)
(0.139178 -0.000498684 0)
(0.139495 -0.000451254 0)
(0.13978 -0.000403354 0)
(0.140033 -0.00035502 0)
(0.140254 -0.000306291 0)
(0.140442 -0.000257207 0)
(0.140597 -0.000207808 0)
(0.140719 -0.000158137 0)
(0.140808 -0.000108234 0)
(0.140864 -5.81448e-05 0)
(0.140886 -7.91123e-06 0)
(0.140874 4.24221e-05 0)
(0.140829 9.28107e-05 0)
(0.140751 0.00014321 0)
(0.140638 0.000193575 0)
(0.140493 0.000243861 0)
(0.140313 0.000294023 0)
(0.1401 0.000344017 0)
(0.139854 0.0003938 0)
(0.139575 0.000443327 0)
(0.139263 0.000492556 0)
(0.138918 0.000541445 0)
(0.13854 0.000589953 0)
(0.138131 0.000638039 0)
(0.137689 0.000685665 0)
(0.137216 0.000732792 0)
(0.136711 0.000779385 0)
(0.136176 0.000825406 0)
(0.13561 0.000870824 0)
(0.135014 0.000915605 0)
(0.134388 0.000959719 0)
(0.133734 0.00100314 0)
(0.13305 0.00104583 0)
(0.132338 0.00108777 0)
(0.131599 0.00112894 0)
(0.130832 0.00116932 0)
(0.130039 0.00120888 0)
(0.129219 0.0012476 0)
(0.128374 0.00128547 0)
(0.127504 0.00132247 0)
(0.12661 0.0013586 0)
(0.125692 0.00139383 0)
(0.12475 0.00142816 0)
(0.123786 0.00146159 0)
(0.1228 0.00149409 0)
(0.121793 0.00152568 0)
(0.120765 0.00155635 0)
(0.119717 0.00158609 0)
(0.118649 0.00161491 0)
(0.117562 0.0016428 0)
(0.116457 0.00166978 0)
(0.115335 0.00169584 0)
(0.114195 0.00172099 0)
(0.113039 0.00174525 0)
(0.111867 0.00176861 0)
(0.11068 0.00179108 0)
(0.109478 0.00181268 0)
(0.108262 0.00183342 0)
(0.107032 0.00185331 0)
(0.10579 0.00187236 0)
(0.104535 0.00189059 0)
(0.103268 0.00190802 0)
(0.10199 0.00192465 0)
(0.100701 0.0019405 0)
(0.0994016 0.00195559 0)
(0.0980925 0.00196994 0)
(0.0967741 0.00198357 0)
(0.0954469 0.00199649 0)
(0.0941113 0.00200872 0)
(0.0927678 0.00202027 0)
(0.0914168 0.00203118 0)
(0.0900588 0.00204145 0)
(0.0886941 0.00205111 0)
(0.0873232 0.00206018 0)
(0.0859465 0.00206867 0)
(0.0845643 0.0020766 0)
(0.0831771 0.002084 0)
(0.081785 0.00209088 0)
(0.0803886 0.00209726 0)
(0.0789881 0.00210316 0)
(0.0775838 0.0021086 0)
(0.0761761 0.0021136 0)
(0.0747652 0.00211817 0)
(0.0733514 0.00212234 0)
(0.0719349 0.00212613 0)
(0.0705161 0.00212954 0)
(0.0690951 0.00213261 0)
(0.0676722 0.00213533 0)
(0.0662476 0.00213775 0)
(0.0648215 0.00213986 0)
(0.0633941 0.00214168 0)
(0.0619656 0.00214324 0)
(0.0605362 0.00214455 0)
(0.0591059 0.00214562 0)
(0.0576751 0.00214647 0)
(0.0562437 0.00214711 0)
(0.054812 0.00214755 0)
(0.0533801 0.00214782 0)
(0.0519481 0.00214792 0)
(0.050516 0.00214786 0)
(0.0490841 0.00214767 0)
(0.0476523 0.00214735 0)
(0.0462208 0.00214691 0)
(0.0447896 0.00214637 0)
(0.0433588 0.00214574 0)
(0.0419285 0.00214502 0)
(0.0404987 0.00214423 0)
(0.0390695 0.00214338 0)
(0.0376408 0.00214247 0)
(0.0362128 0.00214152 0)
(0.0347854 0.00214054 0)
(0.0333587 0.00213953 0)
(0.0319327 0.00213851 0)
(0.0305074 0.00213747 0)
(0.0290827 0.00213643 0)
(0.0276588 0.0021354 0)
(0.0262355 0.00213438 0)
(0.024813 0.00213337 0)
(0.0233911 0.00213239 0)
(0.0219698 0.00213143 0)
(0.0205492 0.00213052 0)
(0.0191292 0.00212964 0)
(0.0177097 0.0021288 0)
(0.0162908 0.00212801 0)
(0.0148725 0.00212728 0)
(0.0134545 0.0021266 0)
(0.0120371 0.00212598 0)
(0.01062 0.00212542 0)
(0.00920326 0.00212492 0)
(0.00778684 0.00212449 0)
(0.00637069 0.00212413 0)
(0.00495475 0.00212384 0)
(0.00353899 0.00212362 0)
(0.00212334 0.00212348 0)
(0.000707773 0.00212341 0)
(0.000650424 -0.00325241 0)
(0.00195129 -0.00325252 0)
(0.00325223 -0.00325275 0)
(0.00455329 -0.0032531 0)
(0.00585451 -0.00325356 0)
(0.00715593 -0.00325413 0)
(0.00845761 -0.00325481 0)
(0.00975959 -0.0032556 0)
(0.0110619 -0.0032565 0)
(0.0123646 -0.0032575 0)
(0.0136677 -0.0032586 0)
(0.0149713 -0.00325981 0)
(0.0162754 -0.0032611 0)
(0.01758 -0.00326249 0)
(0.0188852 -0.00326396 0)
(0.020191 -0.00326552 0)
(0.0214975 -0.00326715 0)
(0.0228046 -0.00326885 0)
(0.0241125 -0.00327062 0)
(0.025421 -0.00327246 0)
(0.0267303 -0.00327434 0)
(0.0280404 -0.00327627 0)
(0.0293513 -0.00327825 0)
(0.0306629 -0.00328025 0)
(0.0319754 -0.00328228 0)
(0.0332887 -0.00328433 0)
(0.0346029 -0.00328638 0)
(0.0359178 -0.00328844 0)
(0.0372336 -0.00329048 0)
(0.0385503 -0.0032925 0)
(0.0398677 -0.00329449 0)
(0.0411859 -0.00329644 0)
(0.042505 -0.00329834 0)
(0.0438247 -0.00330017 0)
(0.0451452 -0.00330192 0)
(0.0464664 -0.00330358 0)
(0.0477883 -0.00330514 0)
(0.0491107 -0.00330659 0)
(0.0504338 -0.0033079 0)
(0.0517573 -0.00330907 0)
(0.0530813 -0.00331007 0)
(0.0544057 -0.0033109 0)
(0.0557304 -0.00331154 0)
(0.0570553 -0.00331197 0)
(0.0583804 -0.00331217 0)
(0.0597055 -0.00331212 0)
(0.0610306 -0.00331182 0)
(0.0623555 -0.00331123 0)
(0.0636801 -0.00331033 0)
(0.0650043 -0.00330912 0)
(0.066328 -0.00330756 0)
(0.067651 -0.00330564 0)
(0.0689732 -0.00330334 0)
(0.0702944 -0.00330063 0)
(0.0716145 -0.00329748 0)
(0.0729332 -0.00329388 0)
(0.0742504 -0.00328981 0)
(0.075566 -0.00328523 0)
(0.0768796 -0.00328013 0)
(0.0781911 -0.00327447 0)
(0.0795002 -0.00326824 0)
(0.0808067 -0.0032614 0)
(0.0821105 -0.00325393 0)
(0.0834111 -0.0032458 0)
(0.0847083 -0.00323698 0)
(0.0860019 -0.00322746 0)
(0.0872916 -0.00321718 0)
(0.0885771 -0.00320614 0)
(0.089858 -0.0031943 0)
(0.091134 -0.00318163 0)
(0.0924048 -0.0031681 0)
(0.0936701 -0.00315369 0)
(0.0949294 -0.00313835 0)
(0.0961825 -0.00312207 0)
(0.0974288 -0.00310482 0)
(0.0986681 -0.00308656 0)
(0.0999 -0.00306727 0)
(0.101124 -0.00304691 0)
(0.102339 -0.00302546 0)
(0.103546 -0.00300289 0)
(0.104744 -0.00297917 0)
(0.105932 -0.00295427 0)
(0.107109 -0.00292817 0)
(0.108276 -0.00290084 0)
(0.109432 -0.00287225 0)
(0.110577 -0.00284239 0)
(0.111709 -0.00281121 0)
(0.112828 -0.00277871 0)
(0.113934 -0.00274486 0)
(0.115026 -0.00270964 0)
(0.116104 -0.00267303 0)
(0.117167 -0.00263501 0)
(0.118215 -0.00259557 0)
(0.119246 -0.00255469 0)
(0.120261 -0.00251235 0)
(0.121259 -0.00246855 0)
(0.122239 -0.00242328 0)
(0.1232 -0.00237652 0)
(0.124143 -0.00232827 0)
(0.125065 -0.00227854 0)
(0.125968 -0.00222731 0)
(0.12685 -0.00217458 0)
(0.12771 -0.00212037 0)
(0.128549 -0.00206468 0)
(0.129365 -0.00200751 0)
(0.130158 -0.00194888 0)
(0.130927 -0.0018888 0)
(0.131671 -0.00182729 0)
(0.132391 -0.00176437 0)
(0.133085 -0.00170005 0)
(0.133753 -0.00163437 0)
(0.134395 -0.00156735 0)
(0.13501 -0.00149902 0)
(0.135597 -0.00142941 0)
(0.136155 -0.00135857 0)
(0.136686 -0.00128653 0)
(0.137187 -0.00121334 0)
(0.137658 -0.00113903 0)
(0.1381 -0.00106367 0)
(0.138511 -0.000987286 0)
(0.138891 -0.000909946 0)
(0.139241 -0.000831703 0)
(0.139558 -0.000752613 0)
(0.139844 -0.000672737 0)
(0.140098 -0.000592137 0)
(0.140319 -0.000510879 0)
(0.140508 -0.000429027 0)
(0.140663 -0.00034665 0)
(0.140786 -0.000263817 0)
(0.140875 -0.000180599 0)
(0.140931 -9.70673e-05 0)
(0.140953 -1.32956e-05 0)
(0.140942 7.06427e-05 0)
(0.140897 0.000154673 0)
(0.140818 0.000238722 0)
(0.140706 0.000322713 0)
(0.14056 0.000406573 0)
(0.14038 0.000490226 0)
(0.140167 0.000573599 0)
(0.13992 0.000656618 0)
(0.139641 0.00073921 0)
(0.139328 0.000821306 0)
(0.138983 0.000902833 0)
(0.138605 0.000983724 0)
(0.138194 0.00106391 0)
(0.137752 0.00114333 0)
(0.137278 0.00122192 0)
(0.136773 0.00129961 0)
(0.136237 0.00137635 0)
(0.13567 0.00145208 0)
(0.135073 0.00152675 0)
(0.134447 0.00160031 0)
(0.133791 0.0016727 0)
(0.133106 0.00174388 0)
(0.132394 0.00181382 0)
(0.131653 0.00188246 0)
(0.130885 0.00194977 0)
(0.130091 0.00201572 0)
(0.12927 0.00208028 0)
(0.128424 0.00214341 0)
(0.127553 0.0022051 0)
(0.126657 0.00226532 0)
(0.125738 0.00232405 0)
(0.124795 0.00238128 0)
(0.12383 0.00243699 0)
(0.122843 0.00249118 0)
(0.121834 0.00254383 0)
(0.120805 0.00259494 0)
(0.119756 0.00264451 0)
(0.118687 0.00269253 0)
(0.117599 0.00273902 0)
(0.116493 0.00278398 0)
(0.115369 0.00282741 0)
(0.114228 0.00286933 0)
(0.113071 0.00290974 0)
(0.111898 0.00294866 0)
(0.110709 0.00298611 0)
(0.109506 0.0030221 0)
(0.108289 0.00305665 0)
(0.107058 0.00308978 0)
(0.105815 0.00312152 0)
(0.104559 0.00315189 0)
(0.103291 0.00318091 0)
(0.102012 0.00320861 0)
(0.100722 0.00323501 0)
(0.0994212 0.00326015 0)
(0.0981112 0.00328405 0)
(0.0967918 0.00330674 0)
(0.0954637 0.00332824 0)
(0.0941272 0.00334861 0)
(0.0927828 0.00336785 0)
(0.0914309 0.003386 0)
(0.0900721 0.00340311 0)
(0.0887066 0.00341918 0)
(0.0873349 0.00343427 0)
(0.0859575 0.0034484 0)
(0.0845746 0.0034616 0)
(0.0831866 0.00347391 0)
(0.0817939 0.00348535 0)
(0.0803968 0.00349596 0)
(0.0789957 0.00350578 0)
(0.0775908 0.00351482 0)
(0.0761825 0.00352313 0)
(0.074771 0.00353074 0)
(0.0733567 0.00353767 0)
(0.0719397 0.00354396 0)
(0.0705204 0.00354963 0)
(0.069099 0.00355471 0)
(0.0676756 0.00355924 0)
(0.0662506 0.00356324 0)
(0.0648241 0.00356674 0)
(0.0633964 0.00356977 0)
(0.0619675 0.00357235 0)
(0.0605377 0.00357451 0)
(0.0591072 0.00357628 0)
(0.057676 0.00357767 0)
(0.0562444 0.00357872 0)
(0.0548125 0.00357945 0)
(0.0533803 0.00357988 0)
(0.0519481 0.00358003 0)
(0.0505158 0.00357993 0)
(0.0490837 0.0035796 0)
(0.0476518 0.00357905 0)
(0.0462201 0.00357831 0)
(0.0447888 0.00357739 0)
(0.0433579 0.00357632 0)
(0.0419275 0.00357511 0)
(0.0404976 0.00357378 0)
(0.0390683 0.00357235 0)
(0.0376396 0.00357084 0)
(0.0362115 0.00356925 0)
(0.0347841 0.0035676 0)
(0.0333574 0.00356591 0)
(0.0319313 0.00356419 0)
(0.030506 0.00356246 0)
(0.0290813 0.00356072 0)
(0.0276574 0.00355899 0)
(0.0262342 0.00355727 0)
(0.0248117 0.00355559 0)
(0.0233898 0.00355395 0)
(0.0219686 0.00355235 0)
(0.020548 0.00355082 0)
(0.019128 0.00354934 0)
(0.0177087 0.00354795 0)
(0.0162898 0.00354663 0)
(0.0148715 0.0035454 0)
(0.0134537 0.00354426 0)
(0.0120363 0.00354322 0)
(0.0106193 0.00354229 0)
(0.00920265 0.00354146 0)
(0.00778632 0.00354074 0)
(0.00637026 0.00354014 0)
(0.00495441 0.00353966 0)
(0.00353874 0.00353929 0)
(0.0021232 0.00353905 0)
(0.000707724 0.00353893 0)
(0.000650353 -0.00455321 0)
(0.00195108 -0.00455337 0)
(0.00325188 -0.00455369 0)
(0.0045528 -0.00455418 0)
(0.00585388 -0.00455482 0)
(0.00715517 -0.00455562 0)
(0.00845672 -0.00455658 0)
(0.00975856 -0.00455769 0)
(0.0110607 -0.00455895 0)
(0.0123633 -0.00456036 0)
(0.0136663 -0.00456191 0)
(0.0149698 -0.00456359 0)
(0.0162738 -0.00456541 0)
(0.0175783 -0.00456736 0)
(0.0188834 -0.00456943 0)
(0.0201891 -0.00457161 0)
(0.0214955 -0.00457391 0)
(0.0228025 -0.0045763 0)
(0.0241103 -0.00457879 0)
(0.0254188 -0.00458136 0)
(0.026728 -0.00458401 0)
(0.028038 -0.00458672 0)
(0.0293489 -0.0045895 0)
(0.0306605 -0.00459232 0)
(0.031973 -0.00459517 0)
(0.0332862 -0.00459805 0)
(0.0346004 -0.00460094 0)
(0.0359154 -0.00460382 0)
(0.0372312 -0.0046067 0)
(0.0385478 -0.00460954 0)
(0.0398653 -0.00461235 0)
(0.0411836 -0.00461509 0)
(0.0425027 -0.00461776 0)
(0.0438225 -0.00462034 0)
(0.0451431 -0.00462281 0)
(0.0464644 -0.00462516 0)
(0.0477864 -0.00462737 0)
(0.049109 -0.00462941 0)
(0.0504322 -0.00463127 0)
(0.051756 -0.00463292 0)
(0.0530802 -0.00463435 0)
(0.0544048 -0.00463554 0)
(0.0557297 -0.00463645 0)
(0.0570549 -0.00463707 0)
(0.0583802 -0.00463738 0)
(0.0597056 -0.00463734 0)
(0.061031 -0.00463694 0)
(0.0623563 -0.00463614 0)
(0.0636813 -0.00463492 0)
(0.0650059 -0.00463325 0)
(0.06633 -0.0046311 0)
(0.0676535 -0.00462844 0)
(0.0689761 -0.00462524 0)
(0.0702978 -0.00462148 0)
(0.0716184 -0.00461711 0)
(0.0729377 -0.00461211 0)
(0.0742555 -0.00460644 0)
(0.0755717 -0.00460006 0)
(0.0768859 -0.00459295 0)
(0.0781981 -0.00458507 0)
(0.0795079 -0.00457638 0)
(0.0808152 -0.00456684 0)
(0.0821197 -0.00455642 0)
(0.0834211 -0.00454508 0)
(0.0847192 -0.00453278 0)
(0.0860137 -0.00451948 0)
(0.0873043 -0.00450514 0)
(0.0885907 -0.00448972 0)
(0.0898726 -0.00447318 0)
(0.0911496 -0.00445548 0)
(0.0924215 -0.00443658 0)
(0.0936878 -0.00441644 0)
(0.0949483 -0.00439502 0)
(0.0962025 -0.00437227 0)
(0.09745 -0.00434816 0)
(0.0986906 -0.00432263 0)
(0.0999236 -0.00429566 0)
(0.101149 -0.0042672 0)
(0.102366 -0.00423721 0)
(0.103574 -0.00420565 0)
(0.104773 -0.00417248 0)
(0.105962 -0.00413766 0)
(0.107141 -0.00410116 0)
(0.10831 -0.00406293 0)
(0.109467 -0.00402295 0)
(0.110613 -0.00398117 0)
(0.111747 -0.00393756 0)
(0.112868 -0.00389209 0)
(0.113975 -0.00384473 0)
(0.115069 -0.00379545 0)
(0.116149 -0.00374422 0)
(0.117214 -0.00369101 0)
(0.118263 -0.00363581 0)
(0.119296 -0.0035786 0)
(0.120313 -0.00351934 0)
(0.121312 -0.00345804 0)
(0.122294 -0.00339466 0)
(0.123257 -0.00332921 0)
(0.124201 -0.00326167 0)
(0.125126 -0.00319204 0)
(0.12603 -0.00312032 0)
(0.126914 -0.0030465 0)
(0.127776 -0.0029706 0)
(0.128617 -0.00289262 0)
(0.129434 -0.00281257 0)
(0.130229 -0.00273047 0)
(0.130999 -0.00264633 0)
(0.131746 -0.00256019 0)
(0.132467 -0.00247206 0)
(0.133163 -0.00238198 0)
(0.133833 -0.00228999 0)
(0.134476 -0.00219611 0)
(0.135092 -0.00210041 0)
(0.135681 -0.00200291 0)
(0.136241 -0.00190368 0)
(0.136773 -0.00180276 0)
(0.137275 -0.00170023 0)
(0.137748 -0.00159614 0)
(0.138191 -0.00149055 0)
(0.138603 -0.00138354 0)
(0.138985 -0.00127519 0)
(0.139335 -0.00116557 0)
(0.139654 -0.00105476 0)
(0.13994 -0.000942845 0)
(0.140195 -0.000829916 0)
(0.140417 -0.000716061 0)
(0.140606 -0.000601373 0)
(0.140762 -0.000485948 0)
(0.140885 -0.000369883 0)
(0.140975 -0.000253277 0)
(0.141031 -0.000136231 0)
(0.141054 -1.88478e-05 0)
(0.141042 9.87697e-05 0)
(0.140997 0.000216517 0)
(0.140919 0.000334289 0)
(0.140806 0.000451982 0)
(0.14066 0.000569489 0)
(0.14048 0.000686707 0)
(0.140267 0.000803532 0)
(0.14002 0.00091986 0)
(0.13974 0.00103559 0)
(0.139426 0.00115062 0)
(0.13908 0.00126486 0)
(0.138701 0.0013782 0)
(0.13829 0.00149055 0)
(0.137847 0.00160182 0)
(0.137372 0.00171193 0)
(0.136866 0.00182078 0)
(0.136328 0.0019283 0)
(0.13576 0.0020344 0)
(0.135162 0.00213901 0)
(0.134534 0.00224206 0)
(0.133877 0.00234347 0)
(0.133191 0.00244319 0)
(0.132477 0.00254115 0)
(0.131735 0.0026373 0)
(0.130965 0.00273159 0)
(0.130169 0.00282396 0)
(0.129347 0.00291438 0)
(0.128499 0.0030028 0)
(0.127626 0.0030892 0)
(0.126729 0.00317353 0)
(0.125808 0.00325578 0)
(0.124863 0.00333592 0)
(0.123896 0.00341393 0)
(0.122907 0.0034898 0)
(0.121897 0.00356351 0)
(0.120866 0.00363507 0)
(0.119814 0.00370447 0)
(0.118744 0.0037717 0)
(0.117654 0.00383678 0)
(0.116546 0.00389971 0)
(0.11542 0.0039605 0)
(0.114278 0.00401916 0)
(0.113118 0.00407572 0)
(0.111943 0.00413019 0)
(0.110753 0.00418259 0)
(0.109548 0.00423295 0)
(0.10833 0.00428129 0)
(0.107097 0.00432765 0)
(0.105852 0.00437205 0)
(0.104594 0.00441453 0)
(0.103325 0.00445512 0)
(0.102044 0.00449386 0)
(0.100752 0.00453079 0)
(0.0994506 0.00456594 0)
(0.0981391 0.00459936 0)
(0.0968183 0.00463108 0)
(0.0954888 0.00466115 0)
(0.0941509 0.00468961 0)
(0.0928052 0.00471651 0)
(0.0914521 0.00474188 0)
(0.090092 0.00476578 0)
(0.0887253 0.00478824 0)
(0.0873524 0.00480932 0)
(0.0859738 0.00482905 0)
(0.0845898 0.00484749 0)
(0.0832008 0.00486467 0)
(0.0818071 0.00488065 0)
(0.080409 0.00489547 0)
(0.079007 0.00490916 0)
(0.0776012 0.00492178 0)
(0.076192 0.00493337 0)
(0.0747797 0.00494398 0)
(0.0733646 0.00495364 0)
(0.0719469 0.0049624 0)
(0.0705268 0.0049703 0)
(0.0691047 0.00497738 0)
(0.0676807 0.00498368 0)
(0.0662551 0.00498924 0)
(0.064828 0.00499411 0)
(0.0633997 0.00499831 0)
(0.0619703 0.00500188 0)
(0.0605401 0.00500487 0)
(0.0591091 0.00500731 0)
(0.0576775 0.00500923 0)
(0.0562455 0.00501066 0)
(0.0548132 0.00501165 0)
(0.0533807 0.00501222 0)
(0.0519481 0.0050124 0)
(0.0505156 0.00501223 0)
(0.0490832 0.00501173 0)
(0.047651 0.00501094 0)
(0.0462191 0.00500987 0)
(0.0447876 0.00500856 0)
(0.0433566 0.00500704 0)
(0.041926 0.00500532 0)
(0.040496 0.00500344 0)
(0.0390665 0.00500142 0)
(0.0376377 0.00499927 0)
(0.0362096 0.00499702 0)
(0.0347821 0.0049947 0)
(0.0333553 0.00499231 0)
(0.0319292 0.00498989 0)
(0.0305039 0.00498744 0)
(0.0290793 0.00498499 0)
(0.0276553 0.00498255 0)
(0.0262321 0.00498014 0)
(0.0248097 0.00497777 0)
(0.0233878 0.00497546 0)
(0.0219667 0.00497321 0)
(0.0205462 0.00497105 0)
(0.0191263 0.00496898 0)
(0.017707 0.00496701 0)
(0.0162883 0.00496516 0)
(0.0148701 0.00496343 0)
(0.0134524 0.00496183 0)
(0.0120351 0.00496037 0)
(0.0106182 0.00495905 0)
(0.00920172 0.00495789 0)
(0.00778553 0.00495688 0)
(0.0063696 0.00495604 0)
(0.0049539 0.00495535 0)
(0.00353838 0.00495484 0)
(0.00212298 0.0049545 0)
(0.000707651 0.00495433 0)
(0.00065026 -0.00585384 0)
(0.0019508 -0.00585405 0)
(0.00325142 -0.00585447 0)
(0.00455215 -0.0058551 0)
(0.00585305 -0.00585593 0)
(0.00715416 -0.00585696 0)
(0.00845552 -0.0058582 0)
(0.00975719 -0.00585963 0)
(0.0110592 -0.00586126 0)
(0.0123616 -0.00586307 0)
(0.0136645 -0.00586507 0)
(0.0149678 -0.00586725 0)
(0.0162716 -0.0058696 0)
(0.017576 -0.00587211 0)
(0.0188809 -0.00587478 0)
(0.0201865 -0.0058776 0)
(0.0214928 -0.00588056 0)
(0.0227997 -0.00588365 0)
(0.0241074 -0.00588687 0)
(0.0254157 -0.00589019 0)
(0.0267249 -0.00589361 0)
(0.0280349 -0.00589712 0)
(0.0293456 -0.0059007 0)
(0.0306572 -0.00590434 0)
(0.0319696 -0.00590803 0)
(0.0332829 -0.00591175 0)
(0.034597 -0.00591549 0)
(0.035912 -0.00591923 0)
(0.0372278 -0.00592294 0)
(0.0385445 -0.00592663 0)
(0.0398621 -0.00593026 0)
(0.0411804 -0.00593381 0)
(0.0424996 -0.00593727 0)
(0.0438196 -0.00594062 0)
(0.0451403 -0.00594383 0)
(0.0464618 -0.00594688 0)
(0.0477839 -0.00594975 0)
(0.0491067 -0.00595241 0)
(0.0504302 -0.00595483 0)
(0.0517541 -0.005957 0)
(0.0530786 -0.00595887 0)
(0.0544035 -0.00596044 0)
(0.0557287 -0.00596165 0)
(0.0570543 -0.00596249 0)
(0.05838 -0.00596293 0)
(0.0597058 -0.00596293 0)
(0.0610316 -0.00596245 0)
(0.0623573 -0.00596147 0)
(0.0636828 -0.00595995 0)
(0.065008 -0.00595785 0)
(0.0663326 -0.00595514 0)
(0.0676567 -0.00595177 0)
(0.06898 -0.00594772 0)
(0.0703024 -0.00594293 0)
(0.0716237 -0.00593737 0)
(0.0729437 -0.005931 0)
(0.0742623 -0.00592376 0)
(0.0755793 -0.00591563 0)
(0.0768944 -0.00590655 0)
(0.0782075 -0.00589648 0)
(0.0795182 -0.00588536 0)
(0.0808265 -0.00587317 0)
(0.082132 -0.00585983 0)
(0.0834345 -0.00584532 0)
(0.0847337 -0.00582957 0)
(0.0860294 -0.00581253 0)
(0.0873212 -0.00579417 0)
(0.0886088 -0.00577441 0)
(0.089892 -0.00575322 0)
(0.0911704 -0.00573053 0)
(0.0924437 -0.00570631 0)
(0.0937115 -0.00568048 0)
(0.0949734 -0.00565301 0)
(0.0962291 -0.00562383 0)
(0.0974783 -0.0055929 0)
(0.0987204 -0.00556015 0)
(0.0999552 -0.00552555 0)
(0.101182 -0.00548902 0)
(0.102401 -0.00545053 0)
(0.103611 -0.00541002 0)
(0.104812 -0.00536744 0)
(0.106003 -0.00532274 0)
(0.107184 -0.00527587 0)
(0.108354 -0.00522679 0)
(0.109514 -0.00517543 0)
(0.110662 -0.00512177 0)
(0.111797 -0.00506576 0)
(0.112921 -0.00500735 0)
(0.11403 -0.00494651 0)
(0.115127 -0.0048832 0)
(0.116208 -0.00481737 0)
(0.117275 -0.00474901 0)
(0.118327 -0.00467808 0)
(0.119363 -0.00460454 0)
(0.120382 -0.00452839 0)
(0.121383 -0.00444959 0)
(0.122367 -0.00436812 0)
(0.123333 -0.00428399 0)
(0.12428 -0.00419716 0)
(0.125207 -0.00410764 0)
(0.126113 -0.00401542 0)
(0.126999 -0.00392051 0)
(0.127864 -0.0038229 0)
(0.128707 -0.00372262 0)
(0.129527 -0.00361967 0)
(0.130324 -0.00351408 0)
(0.131097 -0.00340587 0)
(0.131845 -0.00329507 0)
(0.132569 -0.00318171 0)
(0.133267 -0.00306583 0)
(0.133939 -0.00294749 0)
(0.134585 -0.00282672 0)
(0.135203 -0.00270358 0)
(0.135793 -0.00257814 0)
(0.136355 -0.00245047 0)
(0.136889 -0.00232062 0)
(0.137393 -0.00218868 0)
(0.137868 -0.00205473 0)
(0.138312 -0.00191886 0)
(0.138726 -0.00178115 0)
(0.139109 -0.0016417 0)
(0.139461 -0.00150062 0)
(0.139781 -0.00135801 0)
(0.140069 -0.00121397 0)
(0.140324 -0.00106862 0)
(0.140547 -0.000922077 0)
(0.140738 -0.000774459 0)
(0.140895 -0.000625888 0)