/*--------------------------------*- C++ -*----------------------------------*\
| =========                 |                                                 |
| \\      /  F ield         | OpenFOAM: The Open Source CFD Toolbox           |
|  \\    /   O peration     | Version:  v2012                                 |
|   \\  /    A nd           | Website:  www.openfoam.com                      |
|    \\/     M anipulation  |                                                 |
\*---------------------------------------------------------------------------*/
FoamFile
{
    version     2.0;
    format      ascii;
    class       volScalarField;
    location    "20";
    object      W;
}
// * * * * * * * * * * * * * * * * * * * * * * * * * * * * * * * * * * * * * //

dimensions      [0 0 -1 0 0 0 0];


internalField   nonuniform List<scalar> 
65536
(
2.75653e-14
8.29308e-14
1.39008e-13
1.96287e-13
2.55269e-13
3.16468e-13
3.80416e-13
4.47668e-13
5.18805e-13
5.94438e-13
6.75213e-13
7.6182e-13
8.54989e-13
9.55507e-13
1.06421e-12
1.18201e-12
1.30987e-12
1.44885e-12
1.60007e-12
1.76476e-12
1.94424e-12
2.13993e-12
2.35338e-12
2.58626e-12
2.84037e-12
3.11766e-12
3.42025e-12
3.7504e-12
4.11059e-12
4.50347e-12
4.9319e-12
5.39897e-12
5.90801e-12
6.4626e-12
7.06659e-12
7.72412e-12
8.43965e-12
9.21793e-12
1.00641e-11
1.09836e-11
1.19822e-11
1.30664e-11
1.42426e-11
1.55181e-11
1.69003e-11
1.83974e-11
2.00178e-11
2.17706e-11
2.36654e-11
2.57123e-11
2.79219e-11
3.03055e-11
3.28749e-11
3.56423e-11
3.86209e-11
4.18241e-11
4.52661e-11
4.89614e-11
5.29252e-11
5.71733e-11
6.17219e-11
6.65876e-11
7.17874e-11
7.73388e-11
8.32594e-11
8.95672e-11
9.628e-11
1.03416e-10
1.10993e-10
1.1903e-10
1.27542e-10
1.36548e-10
1.46064e-10
1.56106e-10
1.66687e-10
1.77822e-10
1.89523e-10
2.01799e-10
2.14661e-10
2.28114e-10
2.42163e-10
2.5681e-10
2.72053e-10
2.8789e-10
3.04311e-10
3.21308e-10
3.38864e-10
3.56962e-10
3.75578e-10
3.94685e-10
4.14252e-10
4.34241e-10
4.54612e-10
4.75317e-10
4.96306e-10
5.17521e-10
5.38902e-10
5.60383e-10
5.81892e-10
6.03354e-10
6.24689e-10
6.45815e-10
6.66645e-10
6.87089e-10
7.07054e-10
7.26448e-10
7.45173e-10
7.63136e-10
7.80239e-10
7.9639e-10
8.11494e-10
8.25463e-10
8.38209e-10
8.49651e-10
8.59711e-10
8.6832e-10
8.75414e-10
8.80935e-10
8.84838e-10
8.87083e-10
8.8764e-10
8.86492e-10
8.8363e-10
8.79056e-10
8.72783e-10
8.64835e-10
8.55247e-10
8.44066e-10
8.31345e-10
8.17152e-10
8.01561e-10
7.84655e-10
7.66526e-10
7.47271e-10
7.26995e-10
7.05806e-10
6.83816e-10
6.61142e-10
6.37899e-10
6.14205e-10
5.90177e-10
5.6593e-10
5.41575e-10
5.17221e-10
4.92973e-10
4.68928e-10
4.45178e-10
4.2181e-10
3.98903e-10
3.76526e-10
3.54745e-10
3.33613e-10
3.13178e-10
2.9348e-10
2.74551e-10
2.56414e-10
2.39087e-10
2.22579e-10
2.06895e-10
1.92032e-10
1.77983e-10
1.64735e-10
1.52271e-10
1.40572e-10
1.29614e-10
1.1937e-10
1.09812e-10
1.0091e-10
9.26342e-11
8.49513e-11
7.78298e-11
7.12374e-11
6.51424e-11
5.95135e-11
5.43202e-11
4.95333e-11
4.51244e-11
4.10666e-11
3.73343e-11
3.39032e-11
3.07507e-11
2.78556e-11
2.5198e-11
2.27597e-11
2.05237e-11
1.84743e-11
1.65974e-11
1.48796e-11
1.33091e-11
1.18748e-11
1.05667e-11
9.37555e-12
8.29304e-12
7.31141e-12
6.42353e-12
5.62279e-12
4.90306e-12
4.25857e-12
3.68391e-12
3.17392e-12
2.7237e-12
2.32858e-12
1.98403e-12
1.68571e-12
1.42943e-12
1.21115e-12
1.02696e-12
8.73131e-13
7.46061e-13
6.42334e-13
5.5871e-13
4.92141e-13
4.39788e-13
3.99032e-13
3.6749e-13
3.43022e-13
3.23744e-13
3.08033e-13
2.94525e-13
2.82121e-13
2.69968e-13
2.57456e-13
2.4419e-13
2.29972e-13
2.14772e-13
1.98694e-13
1.81947e-13
1.64806e-13
1.47587e-13
1.30615e-13
1.14199e-13
9.86127e-14
8.40828e-14
7.07778e-14
5.88068e-14
4.82204e-14
3.90163e-14
3.1147e-14
2.45296e-14
1.90554e-14
1.46e-14
1.10318e-14
8.21966e-15
6.03856e-15
4.37361e-15
3.12268e-15
2.19758e-15
1.52415e-15
1.04154e-15
7.00939e-16
4.64036e-16
3.01311e-16
1.90367e-16
1.14347e-16
6.04975e-17
1.88664e-17
9.29456e-14
2.79634e-13
4.68738e-13
6.61919e-13
8.60875e-13
1.06735e-12
1.28316e-12
1.51017e-12
1.75037e-12
2.00582e-12
2.27872e-12
2.57142e-12
2.8864e-12
3.22633e-12
3.59408e-12
3.99271e-12
4.42554e-12
4.89614e-12
5.40838e-12
5.9664e-12
6.57472e-12
7.23821e-12
7.96213e-12
8.75218e-12
9.61452e-12
1.05558e-11
1.15833e-11
1.27047e-11
1.39285e-11
1.52638e-11
1.67203e-11
1.83086e-11
2.00401e-11
2.19271e-11
2.39828e-11
2.62213e-11
2.86579e-11
3.13089e-11
3.41919e-11
3.73257e-11
4.07302e-11
4.44269e-11
4.84387e-11
5.27901e-11
5.75069e-11
6.26168e-11
6.8149e-11
7.41346e-11
8.06065e-11
8.75993e-11
9.51497e-11
1.03296e-10
1.12079e-10
1.21542e-10
1.31727e-10
1.42683e-10
1.54457e-10
1.671e-10
1.80663e-10
1.95201e-10
2.10769e-10
2.27424e-10
2.45224e-10
2.64229e-10
2.84499e-10
3.06096e-10
3.2908e-10
3.53514e-10
3.79458e-10
4.06973e-10
4.36117e-10
4.66949e-10
4.99524e-10
5.33894e-10
5.70107e-10
6.08208e-10
6.48238e-10
6.9023e-10
7.34211e-10
7.80203e-10
8.28217e-10
8.78257e-10
9.30317e-10
9.84378e-10
1.04041e-09
1.09838e-09
1.15823e-09
1.21988e-09
1.28326e-09
1.34827e-09
1.41479e-09
1.4827e-09
1.55184e-09
1.62205e-09
1.69315e-09
1.76494e-09
1.8372e-09
1.90971e-09
1.98221e-09
2.05445e-09
2.12614e-09
2.197e-09
2.26673e-09
2.33501e-09
2.40154e-09
2.46599e-09
2.52804e-09
2.58735e-09
2.64361e-09
2.69649e-09
2.74569e-09
2.7909e-09
2.83184e-09
2.86824e-09
2.89984e-09
2.92641e-09
2.94776e-09
2.9637e-09
2.97408e-09
2.9788e-09
2.97777e-09
2.97095e-09
2.95832e-09
2.93991e-09
2.91578e-09
2.88605e-09
2.85084e-09
2.81032e-09
2.76472e-09
2.71426e-09
2.65922e-09
2.5999e-09
2.53662e-09
2.46972e-09
2.39956e-09
2.32653e-09
2.25101e-09
2.1734e-09
2.09409e-09
2.01349e-09
1.93198e-09
1.84995e-09
1.76777e-09
1.68581e-09
1.60441e-09
1.52389e-09
1.44454e-09
1.36666e-09
1.29048e-09
1.21623e-09
1.14412e-09
1.07432e-09
1.00696e-09
9.42168e-10
8.80037e-10
8.20632e-10
7.63995e-10
7.10149e-10
6.59092e-10
6.10805e-10
5.65253e-10
5.22385e-10
4.82134e-10
4.44424e-10
4.0917e-10
3.76277e-10
3.45646e-10
3.17172e-10
2.90746e-10
2.66261e-10
2.43605e-10
2.22671e-10
2.0335e-10
1.85538e-10
1.69134e-10
1.54038e-10
1.40159e-10
1.27406e-10
1.15694e-10
1.04946e-10
9.50859e-11
8.60446e-11
7.77577e-11
7.01657e-11
6.32136e-11
5.68507e-11
5.10309e-11
4.57118e-11
4.08547e-11
3.64242e-11
3.23883e-11
2.87175e-11
2.53849e-11
2.2366e-11
1.9638e-11
1.718e-11
1.49726e-11
1.29976e-11
1.12379e-11
9.67745e-12
8.3008e-12
7.09336e-12
6.04109e-12
5.13051e-12
4.34864e-12
3.68299e-12
3.12156e-12
2.65282e-12
2.26575e-12
1.94987e-12
1.69527e-12
1.49262e-12
1.33327e-12
1.20923e-12
1.11323e-12
1.03877e-12
9.80105e-13
9.32307e-13
8.91236e-13
8.53546e-13
8.16654e-13
7.787e-13
7.38489e-13
6.9542e-13
6.49396e-13
6.00732e-13
5.50053e-13
4.98197e-13
4.46115e-13
3.94788e-13
3.45147e-13
2.98024e-13
2.54097e-13
2.13878e-13
1.77694e-13
1.45698e-13
1.17882e-13
9.41022e-14
7.41062e-14
5.75657e-14
4.41042e-14
3.3324e-14
2.48284e-14
1.82395e-14
1.32101e-14
9.43146e-15
6.63718e-15
4.60315e-15
3.14551e-15
2.11682e-15
1.40135e-15
9.09912e-16
5.74868e-16
3.45301e-16
1.82687e-16
5.69724e-17
1.92088e-13
5.7793e-13
9.6882e-13
1.36823e-12
1.77969e-12
2.20687e-12
2.65352e-12
3.12359e-12
3.62119e-12
4.15068e-12
4.71665e-12
5.324e-12
5.97797e-12
6.68413e-12
7.44852e-12
8.27757e-12
9.17826e-12
1.01581e-11
1.12252e-11
1.23884e-11
1.3657e-11
1.50415e-11
1.65529e-11
1.82033e-11
2.00056e-11
2.19739e-11
2.41236e-11
2.64711e-11
2.90341e-11
3.1832e-11
3.48855e-11
3.8217e-11
4.18507e-11
4.58126e-11
5.01307e-11
5.48353e-11
5.99585e-11
6.55353e-11
7.16029e-11
7.82012e-11
8.53729e-11
9.31638e-11
1.01622e-10
1.10801e-10
1.20755e-10
1.31542e-10
1.43226e-10
1.55873e-10
1.69552e-10
1.84338e-10
2.00309e-10
2.17547e-10
2.36139e-10
2.56174e-10
2.77748e-10
3.0096e-10
3.25913e-10
3.52714e-10
3.81474e-10
4.12307e-10
4.45332e-10
4.80669e-10
5.18443e-10
5.58779e-10
6.01805e-10
6.47651e-10
6.96447e-10
7.4832e-10
8.03401e-10
8.61815e-10
9.23686e-10
9.89133e-10
1.05827e-09
1.1312e-09
1.20804e-09
1.28885e-09
1.37374e-09
1.46275e-09
1.55594e-09
1.65335e-09
1.755e-09
1.86087e-09
1.97096e-09
2.08519e-09
2.20352e-09
2.32582e-09
2.45197e-09
2.58181e-09
2.71515e-09
2.85176e-09
2.99137e-09
3.1337e-09
3.2784e-09
3.42512e-09
3.57343e-09
3.72291e-09
3.87308e-09
4.02342e-09
4.17339e-09
4.32242e-09
4.46992e-09
4.61524e-09
4.75776e-09
4.8968e-09
5.03169e-09
5.16175e-09
5.28628e-09
5.4046e-09
5.51604e-09
5.61994e-09
5.71565e-09
5.80257e-09
5.88011e-09
5.94773e-09
6.00494e-09
6.05131e-09
6.08644e-09
6.11002e-09
6.12178e-09
6.12155e-09
6.10922e-09
6.08475e-09
6.04819e-09
5.99967e-09
5.93938e-09
5.86761e-09
5.78471e-09
5.69113e-09
5.58734e-09
5.47393e-09
5.35151e-09
5.22076e-09
5.0824e-09
4.93719e-09
4.78593e-09
4.62943e-09
4.46852e-09
4.30404e-09
4.13683e-09
3.96771e-09
3.7975e-09
3.62699e-09
3.45693e-09
3.28804e-09
3.121e-09
2.95645e-09
2.79497e-09
2.63709e-09
2.48327e-09
2.33395e-09
2.18947e-09
2.05014e-09
1.91621e-09
1.78786e-09
1.66523e-09
1.54842e-09
1.43746e-09
1.33235e-09
1.23305e-09
1.13947e-09
1.0515e-09
9.69015e-10
8.91836e-10
8.19784e-10
7.52659e-10
6.90247e-10
6.32326e-10
5.78667e-10
5.29039e-10
4.83209e-10
4.40946e-10
4.02023e-10
3.66219e-10
3.33319e-10
3.03116e-10
2.75412e-10
2.50019e-10
2.2676e-10
2.05467e-10
1.85983e-10
1.68162e-10
1.51869e-10
1.36978e-10
1.23374e-10
1.10951e-10
9.96104e-11
8.92646e-11
7.98325e-11
7.12404e-11
6.34214e-11
5.63146e-11
4.98647e-11
4.40211e-11
3.87379e-11
3.39728e-11
2.9687e-11
2.58446e-11
2.24122e-11
1.93586e-11
1.66545e-11
1.42721e-11
1.21851e-11
1.03684e-11
8.798e-12
7.4509e-12
6.30508e-12
5.33942e-12
4.53377e-12
3.86892e-12
3.32663e-12
2.88973e-12
2.54211e-12
2.26882e-12
2.05611e-12
1.89151e-12
1.76384e-12
1.66328e-12
1.58139e-12
1.5111e-12
1.44668e-12
1.38373e-12
1.31908e-12
1.25068e-12
1.1775e-12
1.09937e-12
1.01681e-12
9.30887e-13
8.43006e-13
7.54774e-13
6.67847e-13
5.838e-13
5.04033e-13
4.29693e-13
3.61641e-13
3.00428e-13
2.46308e-13
1.99265e-13
1.59053e-13
1.25244e-13
9.72813e-14
7.45264e-14
5.63058e-14
4.19482e-14
3.08139e-14
2.23157e-14
1.59315e-14
1.12107e-14
7.77465e-15
5.31243e-15
3.57491e-15
2.3665e-15
1.53654e-15
9.70724e-16
5.83059e-16
3.08471e-16
9.61992e-17
3.58167e-13
1.07765e-12
1.80667e-12
2.55178e-12
3.31967e-12
4.11723e-12
4.95159e-12
5.83019e-12
6.76085e-12
7.75178e-12
8.81172e-12
9.94996e-12
1.11764e-11
1.25017e-11
1.39373e-11
1.54955e-11
1.71894e-11
1.90336e-11
2.10434e-11
2.32356e-11
2.56283e-11
2.82412e-11
3.10956e-11
3.42144e-11
3.76227e-11
4.13474e-11
4.54178e-11
4.98656e-11
5.4725e-11
6.00329e-11
6.58295e-11
7.21578e-11
7.90643e-11
8.65993e-11
9.48169e-11
1.03775e-10
1.13537e-10
1.24168e-10
1.35743e-10
1.48336e-10
1.62033e-10
1.76919e-10
1.93091e-10
2.10649e-10
2.297e-10
2.50358e-10
2.72744e-10
2.96987e-10
3.23222e-10
3.51593e-10
3.82252e-10
4.15359e-10
4.51081e-10
4.89593e-10
5.3108e-10
5.75734e-10
6.23755e-10
6.7535e-10
7.30734e-10
7.90129e-10
8.53763e-10
9.21871e-10
9.94691e-10
1.07247e-09
1.15545e-09
1.24388e-09
1.338e-09
1.43808e-09
1.54435e-09
1.65704e-09
1.77641e-09
1.90266e-09
2.03602e-09
2.17668e-09
2.32483e-09
2.48062e-09
2.6442e-09
2.81568e-09
2.99514e-09
3.18263e-09
3.37817e-09
3.58171e-09
3.7932e-09
4.01252e-09
4.23948e-09
4.47386e-09
4.71538e-09
4.96368e-09
5.21837e-09
5.47895e-09
5.74489e-09
6.01557e-09
6.29031e-09
6.56834e-09
6.84885e-09
7.13094e-09
7.41364e-09
7.69593e-09
7.97673e-09
8.2549e-09
8.52924e-09
8.79853e-09
9.06149e-09
9.31684e-09
9.56325e-09
9.79941e-09
1.0024e-08
1.02357e-08
1.04333e-08
1.06155e-08
1.07811e-08
1.0929e-08
1.10581e-08
1.11676e-08
1.12565e-08
1.13241e-08
1.13697e-08
1.13929e-08
1.13933e-08
1.13707e-08
1.13249e-08
1.12562e-08
1.11647e-08
1.10508e-08
1.0915e-08
1.07581e-08
1.05809e-08
1.03843e-08
1.01694e-08
9.93744e-09
9.68971e-09
9.4276e-09
9.15258e-09
8.86619e-09
8.56999e-09
8.26559e-09
7.95459e-09
7.63862e-09
7.31926e-09
6.99806e-09
6.67653e-09
6.35613e-09
6.03823e-09
5.72411e-09
5.41499e-09
5.11196e-09
4.81602e-09
4.52806e-09
4.24886e-09
3.97909e-09
3.7193e-09
3.46994e-09
3.23135e-09
3.00377e-09
2.78735e-09
2.58213e-09
2.38809e-09
2.20512e-09
2.03305e-09
1.87164e-09
1.72061e-09
1.57962e-09
1.4483e-09
1.32627e-09
1.21309e-09
1.10833e-09
1.01155e-09
9.22296e-10
8.40113e-10
7.64557e-10
6.95191e-10
6.31589e-10
5.7334e-10
5.20048e-10
4.71337e-10
4.26849e-10
3.86246e-10
3.49211e-10
3.15448e-10
2.84682e-10
2.56657e-10
2.31136e-10
2.07904e-10
1.86761e-10
1.67525e-10
1.50032e-10
1.3413e-10
1.19683e-10
1.06567e-10
9.46708e-11
8.38921e-11
7.41394e-11
6.53294e-11
5.73864e-11
5.02414e-11
4.38315e-11
3.80985e-11
3.29889e-11
2.8453e-11
2.44444e-11
2.09195e-11
1.78371e-11
1.51585e-11
1.28465e-11
1.08661e-11
9.18377e-12
7.76764e-12
6.5874e-12
5.61431e-12
4.82124e-12
4.18269e-12
3.67488e-12
3.27579e-12
2.96524e-12
2.72495e-12
2.53861e-12
2.39188e-12
2.27249e-12
2.17014e-12
2.07655e-12
1.98531e-12
1.89182e-12
1.79312e-12
1.68769e-12
1.57528e-12
1.45663e-12
1.33323e-12
1.20711e-12
1.08055e-12
9.55919e-13
8.35466e-13
7.21186e-13
6.14716e-13
5.17278e-13
4.29654e-13
3.52202e-13
2.84894e-13
2.2737e-13
1.79017e-13
1.39031e-13
1.06498e-13
8.04512e-14
5.99302e-14
4.40184e-14
3.18752e-14
2.2754e-14
1.60102e-14
1.11022e-14
7.58553e-15
5.10418e-15
3.3786e-15
2.19354e-15
1.38572e-15
8.32288e-16
4.40313e-16
1.37314e-16
6.4262e-13
1.93359e-12
3.24194e-12
4.57955e-12
5.95863e-12
7.39171e-12
8.89178e-12
1.04724e-11
1.21478e-11
1.39331e-11
1.58441e-11
1.78979e-11
2.01126e-11
2.25077e-11
2.51042e-11
2.79246e-11
3.09932e-11
3.43365e-11
3.79829e-11
4.19632e-11
4.63109e-11
5.10623e-11
5.62565e-11
6.19362e-11
6.81475e-11
7.49404e-11
8.23691e-11
9.04923e-11
9.93734e-11
1.09081e-10
1.1969e-10
1.31279e-10
1.43937e-10
1.57756e-10
1.72836e-10
1.89287e-10
2.07224e-10
2.26774e-10
2.4807e-10
2.71257e-10
2.9649e-10
3.23933e-10
3.53764e-10
3.86171e-10
4.21354e-10
4.59528e-10
5.0092e-10
5.45769e-10
5.94332e-10
6.46878e-10
7.0369e-10
7.65069e-10
8.31329e-10
9.02801e-10
9.79828e-10
1.06277e-09
1.15201e-09
1.24792e-09
1.35093e-09
1.46143e-09
1.57985e-09
1.70665e-09
1.84225e-09
1.98712e-09
2.14172e-09
2.30651e-09
2.48194e-09
2.66849e-09
2.8666e-09
3.07671e-09
3.29925e-09
3.53464e-09
3.78326e-09
4.04547e-09
4.32158e-09
4.61189e-09
4.91663e-09
5.23599e-09
5.57009e-09
5.91899e-09
6.28268e-09
6.66106e-09
7.05395e-09
7.46109e-09
7.88208e-09
8.31646e-09
8.76363e-09
9.22287e-09
9.69334e-09
1.01741e-08
1.0664e-08
1.11619e-08
1.16664e-08
1.2176e-08
1.2689e-08
1.32038e-08
1.37185e-08
1.4231e-08
1.47393e-08
1.52412e-08
1.57344e-08
1.62166e-08
1.66853e-08
1.71381e-08
1.75726e-08
1.79863e-08
1.83767e-08
1.87415e-08
1.90784e-08
1.9385e-08
1.96593e-08
1.98993e-08
2.01032e-08
2.02693e-08
2.03962e-08
2.04827e-08
2.05279e-08
2.0531e-08
2.04917e-08
2.04096e-08
2.02851e-08
2.01184e-08
1.99104e-08
1.9662e-08
1.93745e-08
1.90494e-08
1.86885e-08
1.8294e-08
1.78679e-08
1.74128e-08
1.69314e-08
1.64262e-08
1.59003e-08
1.53565e-08
1.4798e-08
1.42275e-08
1.36483e-08
1.30632e-08
1.24753e-08
1.18871e-08
1.13016e-08
1.07212e-08
1.01483e-08
9.58512e-09
9.03373e-09
8.49593e-09
7.97334e-09
7.46739e-09
6.97927e-09
6.50997e-09
6.06028e-09
5.63078e-09
5.22187e-09
4.83376e-09
4.46652e-09
4.12002e-09
3.79403e-09
3.48817e-09
3.20197e-09
2.93485e-09
2.68616e-09
2.45517e-09
2.24113e-09
2.04322e-09
1.8606e-09
1.69243e-09
1.53785e-09
1.39601e-09
1.26608e-09
1.14723e-09
1.03867e-09
9.39644e-10
8.49408e-10
7.6727e-10
6.9257e-10
6.24689e-10
5.63046e-10
5.07099e-10
4.56347e-10
4.10324e-10
3.68604e-10
3.30795e-10
2.96538e-10
2.65506e-10
2.37403e-10
2.11959e-10
1.88931e-10
1.68099e-10
1.49264e-10
1.3225e-10
1.16894e-10
1.03051e-10
9.05922e-11
7.93981e-11
6.93622e-11
6.0387e-11
5.2384e-11
4.52717e-11
3.8975e-11
3.34245e-11
2.85554e-11
2.43073e-11
2.06233e-11
1.74499e-11
1.47365e-11
1.24353e-11
1.05012e-11
8.89134e-12
7.56563e-12
6.48626e-12
5.61792e-12
4.92781e-12
4.38569e-12
3.96397e-12
3.63772e-12
3.38476e-12
3.18567e-12
3.02383e-12
2.88535e-12
2.75904e-12
2.63629e-12
2.51088e-12
2.37884e-12
2.23811e-12
2.0883e-12
1.93038e-12
1.76633e-12
1.59878e-12
1.43078e-12
1.26544e-12
1.10572e-12
9.54255e-13
8.13199e-13
6.84155e-13
5.68149e-13
4.65641e-13
3.76583e-13
3.00493e-13
2.36548e-13
1.83682e-13
1.40678e-13
1.06256e-13
7.91415e-14
5.8121e-14
4.2082e-14
3.00364e-14
2.11318e-14
1.46521e-14
1.00099e-14
6.73487e-15
4.45761e-15
2.89385e-15
1.82799e-15
1.09786e-15
5.80786e-16
1.81118e-16
1.12726e-12
3.39198e-12
5.68764e-12
8.03542e-12
1.0457e-11
1.29748e-11
1.56119e-11
1.83925e-11
2.1342e-11
2.44873e-11
2.78569e-11
3.14812e-11
3.53928e-11
3.96264e-11
4.42199e-11
4.92136e-11
5.46514e-11
6.05806e-11
6.70527e-11
7.41232e-11
8.18524e-11
9.03058e-11
9.95544e-11
1.09675e-10
1.20752e-10
1.32874e-10
1.46142e-10
1.6066e-10
1.76545e-10
1.93921e-10
2.12924e-10
2.33698e-10
2.56403e-10
2.81209e-10
3.08298e-10
3.3787e-10
3.70137e-10
4.05328e-10
4.43689e-10
4.85485e-10
5.30998e-10
5.80531e-10
6.34409e-10
6.92977e-10
7.56603e-10
8.25681e-10
9.00626e-10
9.81883e-10
1.06992e-09
1.16523e-09
1.26834e-09
1.3798e-09
1.50019e-09
1.63011e-09
1.7702e-09
1.92113e-09
2.08359e-09
2.25829e-09
2.44597e-09
2.6474e-09
2.86336e-09
3.09467e-09
3.34213e-09
3.60659e-09
3.88889e-09
4.18987e-09
4.51037e-09
4.85123e-09
5.21329e-09
5.59733e-09
6.00413e-09
6.43443e-09
6.88893e-09
7.36824e-09
7.87295e-09
8.40354e-09
8.9604e-09
9.54385e-09
1.0154e-08
1.07911e-08
1.14548e-08
1.2145e-08
1.28614e-08
1.36032e-08
1.43697e-08
1.516e-08
1.59729e-08
1.68069e-08
1.76603e-08
1.85314e-08
1.9418e-08
2.03176e-08
2.12277e-08
2.21454e-08
2.30676e-08
2.39909e-08
2.49118e-08
2.58266e-08
2.67312e-08
2.76216e-08
2.84935e-08
2.93424e-08
3.0164e-08
3.09538e-08
3.17071e-08
3.24195e-08
3.30867e-08
3.37042e-08
3.42678e-08
3.47738e-08
3.52182e-08
3.55978e-08
3.59093e-08
3.61502e-08
3.6318e-08
3.64109e-08
3.64275e-08
3.63669e-08
3.62288e-08
3.60133e-08
3.5721e-08
3.53533e-08
3.49118e-08
3.4399e-08
3.38175e-08
3.31706e-08
3.24621e-08
3.1696e-08
3.0877e-08
3.00096e-08
2.90992e-08
2.81508e-08
2.717e-08
2.61623e-08
2.51333e-08
2.40885e-08
2.30334e-08
2.19734e-08
2.09135e-08
1.98589e-08
1.88142e-08
1.77838e-08
1.67718e-08
1.57818e-08
1.48172e-08
1.3881e-08
1.29756e-08
1.21034e-08
1.1266e-08
1.04648e-08
9.70079e-09
8.9747e-09
8.28683e-09
7.63719e-09
7.02553e-09
6.45132e-09
5.91381e-09
5.41205e-09
4.94494e-09
4.5112e-09
4.10947e-09
3.73828e-09
3.3961e-09
3.08137e-09
2.79249e-09
2.52788e-09
2.28594e-09
2.06514e-09
1.86395e-09
1.68092e-09
1.51463e-09
1.36377e-09
1.22704e-09
1.10326e-09
9.91297e-10
8.90108e-10
7.98714e-10
7.16215e-10
6.41778e-10
5.74639e-10
5.141e-10
4.59526e-10
4.10336e-10
3.66007e-10
3.26065e-10
2.90084e-10
2.57678e-10
2.28503e-10
2.0225e-10
1.78641e-10
1.57428e-10
1.38388e-10
1.21321e-10
1.06048e-10
9.24078e-11
8.02539e-11
6.94542e-11
5.98883e-11
5.14463e-11
4.40268e-11
3.75366e-11
3.18891e-11
2.70036e-11
2.28049e-11
1.92225e-11
1.61903e-11
1.36463e-11
1.15322e-11
9.79373e-12
8.37997e-12
7.24375e-12
6.34145e-12
5.63305e-12
5.08217e-12
4.65611e-12
4.32584e-12
4.06606e-12
3.85512e-12
3.67502e-12
3.51126e-12
3.35268e-12
3.19126e-12
3.02183e-12
2.84172e-12
2.65038e-12
2.449e-12
2.24005e-12
2.02689e-12
1.81332e-12
1.60328e-12
1.40052e-12
1.20833e-12
1.02945e-12
8.65866e-13
7.18872e-13
5.89031e-13
4.76266e-13
3.79952e-13
2.99035e-13
2.32157e-13
1.7777e-13
1.34248e-13
9.99728e-14
7.34071e-14
5.31413e-14
3.79244e-14
2.66775e-14
1.84948e-14
1.26336e-14
8.49913e-15
5.6247e-15
3.65116e-15
2.30617e-15
1.38494e-15
7.32622e-16
2.28461e-16
1.94172e-12
5.84302e-12
9.79844e-12
1.3845e-11
1.80208e-11
2.23647e-11
2.69174e-11
3.17214e-11
3.6821e-11
4.22636e-11
4.80991e-11
5.4381e-11
6.11666e-11
6.85174e-11
7.64997e-11
8.51851e-11
9.46509e-11
1.04981e-10
1.16266e-10
1.28605e-10
1.42105e-10
1.56881e-10
1.7306e-10
1.90779e-10
2.10186e-10
2.31443e-10
2.54725e-10
2.80222e-10
3.0814e-10
3.38702e-10
3.72149e-10
4.08744e-10
4.48767e-10
4.92526e-10
5.40348e-10
5.9259e-10
6.49634e-10
7.11892e-10
7.79807e-10
8.53854e-10
9.34542e-10
1.02242e-09
1.11807e-09
1.22211e-09
1.33522e-09
1.45809e-09
1.59149e-09
1.73621e-09
1.89311e-09
2.06308e-09
2.24706e-09
2.44606e-09
2.66112e-09
2.89335e-09
3.14389e-09
3.41396e-09
3.70479e-09
4.0177e-09
4.35402e-09
4.71515e-09
5.1025e-09
5.51754e-09
5.96175e-09
6.43665e-09
6.94374e-09
7.48456e-09
8.06064e-09
8.67347e-09
9.32455e-09
1.00153e-08
1.07471e-08
1.15213e-08
1.23391e-08
1.32016e-08
1.41098e-08
1.50645e-08
1.60664e-08
1.7116e-08
1.82135e-08
1.9359e-08
2.05522e-08
2.17926e-08
2.30793e-08
2.44111e-08
2.57865e-08
2.72037e-08
2.86602e-08
3.01533e-08
3.16799e-08
3.32364e-08
3.48186e-08
3.64222e-08
3.80422e-08
3.96731e-08
4.13091e-08
4.29441e-08
4.45712e-08
4.61836e-08
4.77739e-08
4.93346e-08
5.08577e-08
5.23352e-08
5.37589e-08
5.51208e-08
5.64125e-08
5.7626e-08
5.87534e-08
5.9787e-08
6.07194e-08
6.15438e-08
6.22536e-08
6.28432e-08
6.33072e-08
6.36413e-08
6.38417e-08
6.39058e-08
6.38314e-08
6.36178e-08
6.3265e-08
6.27738e-08
6.21463e-08
6.13855e-08
6.04953e-08
5.94806e-08
5.83472e-08
5.71017e-08
5.57514e-08
5.43044e-08
5.27694e-08
5.11555e-08
4.94723e-08
4.77297e-08
4.59377e-08
4.41066e-08
4.22464e-08
4.03671e-08
3.84786e-08
3.65903e-08
3.47114e-08
3.28503e-08
3.10151e-08
2.92134e-08
2.74518e-08
2.57364e-08
2.40726e-08
2.24651e-08
2.09178e-08
1.94338e-08
1.80157e-08
1.66652e-08
1.53835e-08
1.4171e-08
1.30279e-08
1.19535e-08
1.09467e-08
1.00062e-08
9.13016e-09
8.31643e-09
7.56267e-09
6.86631e-09
6.22462e-09
5.63476e-09
5.09383e-09
4.59888e-09
4.14698e-09
3.73524e-09
3.3608e-09
3.0209e-09
2.71288e-09
2.43419e-09
2.18239e-09
1.95519e-09
1.75044e-09
1.5661e-09
1.40029e-09
1.25128e-09
1.11745e-09
9.97315e-10
8.8953e-10
7.92857e-10
7.06174e-10
6.28462e-10
5.58804e-10
4.96372e-10
4.40421e-10
3.90287e-10
3.45371e-10
3.05141e-10
2.69123e-10
2.36891e-10
2.08069e-10
1.82319e-10
1.59342e-10
1.3887e-10
1.20663e-10
1.04505e-10
9.02029e-11
7.75813e-11
6.64814e-11
5.67584e-11
4.82799e-11
4.0924e-11
3.45784e-11
2.91389e-11
2.4509e-11
2.05988e-11
1.73246e-11
1.46088e-11
1.23791e-11
1.05683e-11
9.11465e-12
7.96133e-12
7.05645e-12
6.3531e-12
5.80928e-12
5.38788e-12
5.05662e-12
4.78802e-12
4.55923e-12
4.35192e-12
4.152e-12
3.94932e-12
3.73734e-12
3.51266e-12
3.27453e-12
3.02436e-12
2.76516e-12
2.50104e-12
2.23668e-12
1.97691e-12
1.72631e-12
1.48894e-12
1.26812e-12
1.0663e-12
8.85024e-13
7.24975e-13
5.8603e-13
4.674e-13
3.67771e-13
2.85454e-13
2.18533e-13
1.64996e-13
1.22845e-13
9.01842e-14
6.52747e-14
4.65752e-14
3.27574e-14
2.27063e-14
1.55082e-14
1.04315e-14
6.90269e-15
4.48022e-15
2.82954e-15
1.69911e-15
8.98757e-16
2.8026e-16
3.28861e-12
9.89659e-12
1.65977e-11
2.34556e-11
3.05357e-11
3.79053e-11
4.56342e-11
5.37956e-11
6.24662e-11
7.17274e-11
8.16659e-11
9.23741e-11
1.03951e-10
1.16504e-10
1.30147e-10
1.45004e-10
1.61211e-10
1.78913e-10
1.98268e-10
2.19449e-10
2.42641e-10
2.68047e-10
2.95889e-10
3.26404e-10
3.59855e-10
3.96523e-10
4.36716e-10
4.80767e-10
5.29038e-10
5.81921e-10
6.39841e-10
7.0326e-10
7.72674e-10
8.48622e-10
9.31686e-10
1.02249e-09
1.12172e-09
1.2301e-09
1.34841e-09
1.47749e-09
1.61825e-09
1.77166e-09
1.93875e-09
2.12064e-09
2.31851e-09
2.53361e-09
2.76729e-09
3.02097e-09
3.29617e-09
3.59448e-09
3.9176e-09
4.26731e-09
4.64547e-09
5.05406e-09
5.49513e-09
5.97083e-09
6.48341e-09
7.03518e-09
7.62854e-09
8.26598e-09
8.95005e-09
9.68334e-09
1.04685e-08
1.13083e-08
1.22054e-08
1.31624e-08
1.41823e-08
1.52675e-08
1.64208e-08
1.76448e-08
1.89417e-08
2.03141e-08
2.17639e-08
2.32933e-08
2.49037e-08
2.65968e-08
2.83737e-08
3.0235e-08
3.21811e-08
3.4212e-08
3.63271e-08
3.85253e-08
4.08049e-08
4.31636e-08
4.55984e-08
4.81058e-08
5.06813e-08
5.33198e-08
5.60153e-08
5.87613e-08
6.155e-08
6.43732e-08
6.72217e-08
7.00856e-08
7.2954e-08
7.58157e-08
7.86583e-08
8.14692e-08
8.42349e-08
8.69416e-08
8.95752e-08
9.2121e-08
9.45646e-08
9.6891e-08
9.90859e-08
1.01135e-07
1.03023e-07
1.04739e-07
1.06268e-07
1.07598e-07
1.0872e-07
1.09622e-07
1.10297e-07
1.10737e-07
1.10937e-07
1.10892e-07
1.106e-07
1.1006e-07
1.09274e-07
1.08244e-07
1.06975e-07
1.05474e-07
1.03748e-07
1.01809e-07
9.96659e-08
9.73332e-08
9.48246e-08
9.21554e-08
8.93418e-08
8.6401e-08
8.33505e-08
8.02085e-08
7.69932e-08
7.37229e-08
7.04158e-08
6.70895e-08
6.37613e-08
6.04477e-08
5.71642e-08
5.39257e-08
5.07455e-08
4.76362e-08
4.46088e-08
4.16733e-08
3.8838e-08
3.61101e-08
3.34955e-08
3.09987e-08
2.8623e-08
2.63705e-08
2.42422e-08
2.22379e-08
2.03567e-08
1.85966e-08
1.69549e-08
1.54285e-08
1.40134e-08
1.27052e-08
1.14993e-08
1.03907e-08
9.37414e-09
8.44437e-09
7.59603e-09
6.82378e-09
6.12234e-09
5.48655e-09
4.91142e-09
4.39211e-09
3.92404e-09
3.50282e-09
3.12433e-09
2.7847e-09
2.48031e-09
2.2078e-09
1.96406e-09
1.74624e-09
1.55171e-09
1.37809e-09
1.2232e-09
1.08506e-09
9.61904e-10
8.52117e-10
7.54262e-10
6.67049e-10
5.89324e-10
5.20061e-10
4.58344e-10
4.03362e-10
3.54393e-10
3.10797e-10
2.72009e-10
2.37525e-10
2.06901e-10
1.79741e-10
1.55692e-10
1.34442e-10
1.15709e-10
9.9243e-11
8.48161e-11
7.2224e-11
6.12806e-11
5.18166e-11
4.36768e-11
3.67189e-11
3.08121e-11
2.58354e-11
2.16776e-11
1.82355e-11
1.54144e-11
1.31269e-11
1.12929e-11
9.83929e-12
8.69967e-12
7.81433e-12
7.13006e-12
6.60004e-12
6.18371e-12
5.84664e-12
5.56029e-12
5.3018e-12
5.05362e-12
4.80315e-12
4.54221e-12
4.26652e-12
3.97509e-12
3.66953e-12
3.35347e-12
3.03182e-12
2.71023e-12
2.39451e-12
2.09018e-12
1.80213e-12
1.53433e-12
1.28971e-12
1.07011e-12
8.76322e-13
7.08161e-13
5.64648e-13
4.44169e-13
3.44662e-13
2.63794e-13
1.9912e-13
1.48219e-13
1.08788e-13
7.87235e-14
5.61602e-14
3.94915e-14
2.73693e-14
1.86899e-14
1.25698e-14
8.31641e-15
5.3971e-15
3.40822e-15
2.04641e-15
1.08239e-15
3.37512e-16
5.47911e-12
1.64894e-11
2.76574e-11
3.90909e-11
5.09005e-11
6.32003e-11
7.61086e-11
8.97495e-11
1.04253e-10
1.19759e-10
1.36412e-10
1.54372e-10
1.73806e-10
1.94898e-10
2.17842e-10
2.42852e-10
2.70158e-10
3.00009e-10
3.32676e-10
3.68455e-10
4.07665e-10
4.50656e-10
4.97806e-10
5.49528e-10
6.06271e-10
6.68522e-10
7.36813e-10
8.11718e-10
8.93865e-10
9.83931e-10
1.08265e-09
1.19083e-09
1.30933e-09
1.43908e-09
1.58109e-09
1.73647e-09
1.90637e-09
2.09208e-09
2.29496e-09
2.51649e-09
2.75823e-09
3.02188e-09
3.30925e-09
3.6223e-09
3.96308e-09
4.3338e-09
4.73682e-09
5.17465e-09
5.64993e-09
6.16547e-09
6.72424e-09
7.32938e-09
7.98418e-09
8.6921e-09
9.45677e-09
1.0282e-08
1.11717e-08
1.21299e-08
1.3161e-08
1.42693e-08
1.54592e-08
1.67354e-08
1.81026e-08
1.95656e-08
2.1129e-08
2.27978e-08
2.45767e-08
2.64704e-08
2.84836e-08
3.06207e-08
3.28861e-08
3.52838e-08
3.78176e-08
4.04907e-08
4.33063e-08
4.62666e-08
4.93737e-08
5.26286e-08
5.60321e-08
5.95836e-08
6.3282e-08
6.71253e-08
7.11102e-08
7.52323e-08
7.94863e-08
8.38653e-08
8.83613e-08
9.29649e-08
9.76652e-08
1.0245e-07
1.07306e-07
1.12217e-07
1.17167e-07
1.22138e-07
1.27111e-07
1.32064e-07
1.36976e-07
1.41825e-07
1.46585e-07
1.51233e-07
1.55743e-07
1.60089e-07
1.64245e-07
1.68186e-07
1.71884e-07
1.75316e-07
1.78457e-07
1.81283e-07
1.83773e-07
1.85905e-07
1.87662e-07
1.89027e-07
1.89985e-07
1.90526e-07
1.90641e-07
1.90323e-07
1.89571e-07
1.88385e-07
1.86768e-07
1.84727e-07
1.82272e-07
1.79418e-07
1.76179e-07
1.72575e-07
1.68629e-07
1.64363e-07
1.59806e-07
1.54984e-07
1.49928e-07
1.44669e-07
1.39239e-07
1.3367e-07
1.27995e-07
1.22247e-07
1.16456e-07
1.10655e-07
1.04872e-07
9.91368e-08
9.3475e-08
8.79115e-08
8.2469e-08
7.71678e-08
7.20259e-08
6.7059e-08
6.22803e-08
5.77006e-08
5.33284e-08
4.91699e-08
4.5229e-08
4.15077e-08
3.80061e-08
3.47224e-08
3.16535e-08
2.87945e-08
2.61397e-08
2.36821e-08
2.1414e-08
1.93269e-08
1.74118e-08
1.56594e-08
1.40603e-08
1.26047e-08
1.12831e-08
1.00859e-08
9.00401e-09
8.02833e-09
7.15025e-09
6.36152e-09
5.65434e-09
5.02132e-09
4.45556e-09
3.95063e-09
3.50056e-09
3.09985e-09
2.74343e-09
2.42669e-09
2.14541e-09
1.89578e-09
1.67433e-09
1.47796e-09
1.30388e-09
1.14958e-09
1.01282e-09
8.91629e-10
7.84227e-10
6.89048e-10
6.04707e-10
5.29977e-10
4.63776e-10
4.05149e-10
3.53255e-10
3.07353e-10
2.66787e-10
2.3098e-10
1.99422e-10
1.7166e-10
1.47291e-10
1.25959e-10
1.07342e-10
9.11529e-11
7.7134e-11
6.50509e-11
5.46915e-11
4.58626e-11
3.83881e-11
3.21068e-11
2.68712e-11
2.25461e-11
1.9008e-11
1.61438e-11
1.38506e-11
1.20351e-11
1.06129e-11
9.50875e-12
8.65575e-12
7.99536e-12
7.47708e-12
7.05814e-12
6.70324e-12
6.38415e-12
6.07924e-12
5.77297e-12
5.45523e-12
5.12069e-12
4.76803e-12
4.39908e-12
4.01811e-12
3.63097e-12
3.24435e-12
2.86517e-12
2.5e-12
2.15461e-12
1.83373e-12
1.54082e-12
1.27802e-12
1.04622e-12
8.45185e-13
6.73693e-13
5.29788e-13
4.10982e-13
3.14466e-13
2.37308e-13
1.766e-13
1.29588e-13
9.37538e-14
6.68682e-14
4.70117e-14
3.25748e-14
2.22406e-14
1.49553e-14
9.89318e-15
6.41948e-15
4.05334e-15
2.43351e-15
1.28704e-15
4.01311e-16
8.9823e-12
2.70337e-11
4.53479e-11
6.41045e-11
8.3488e-11
1.03688e-10
1.24903e-10
1.47339e-10
1.71215e-10
1.96762e-10
2.24226e-10
2.53871e-10
2.8598e-10
3.20859e-10
3.58839e-10
4.00276e-10
4.45557e-10
4.95105e-10
5.49376e-10
6.08868e-10
6.74123e-10
7.45732e-10
8.24335e-10
9.10634e-10
1.00539e-09
1.10943e-09
1.22366e-09
1.34905e-09
1.48668e-09
1.63769e-09
1.80336e-09
1.98503e-09
2.18419e-09
2.40243e-09
2.64149e-09
2.90324e-09
3.1897e-09
3.50303e-09
3.84561e-09
4.21993e-09
4.62873e-09
5.07492e-09
5.56161e-09
6.09216e-09
6.67014e-09
7.29937e-09
7.9839e-09
8.72806e-09
9.53645e-09
1.04139e-08
1.13656e-08
1.2397e-08
1.35138e-08
1.47219e-08
1.60277e-08
1.74378e-08
1.8959e-08
2.05985e-08
2.23636e-08
2.42619e-08
2.63013e-08
2.84897e-08
3.08354e-08
3.33467e-08
3.60318e-08
3.88992e-08
4.19572e-08
4.5214e-08
4.86777e-08
5.23562e-08
5.62568e-08
6.03866e-08
6.47521e-08
6.93591e-08
7.42128e-08
7.93172e-08
8.46756e-08
9.029e-08
9.6161e-08
1.02288e-07
1.08669e-07
1.15299e-07
1.22173e-07
1.29284e-07
1.3662e-07
1.4417e-07
1.5192e-07
1.59852e-07
1.67948e-07
1.76184e-07
1.84538e-07
1.9298e-07
2.01483e-07
2.10014e-07
2.18539e-07
2.2702e-07
2.3542e-07
2.43697e-07
2.51809e-07
2.59712e-07
2.67363e-07
2.74715e-07
2.81724e-07
2.88343e-07
2.94528e-07
3.00236e-07
3.05424e-07
3.10051e-07
3.14081e-07
3.17479e-07
3.20213e-07
3.22257e-07
3.23587e-07
3.24185e-07
3.24039e-07
3.23139e-07
3.21485e-07
3.19079e-07
3.1593e-07
3.12053e-07
3.07468e-07
3.02202e-07
2.96284e-07
2.89753e-07
2.82647e-07
2.75011e-07
2.66894e-07
2.58348e-07
2.49425e-07
2.40181e-07
2.30673e-07
2.20958e-07
2.11094e-07
2.01137e-07
1.91141e-07
1.81161e-07
1.71246e-07
1.61446e-07
1.51803e-07
1.42361e-07
1.33155e-07
1.24219e-07
1.15582e-07
1.07267e-07
9.92965e-08
9.1685e-08