/*--------------------------------*- C++ -*----------------------------------*\
| =========                 |                                                 |
| \\      /  F ield         | OpenFOAM: The Open Source CFD Toolbox           |
|  \\    /   O peration     | Version:  v2012                                 |
|   \\  /    A nd           | Website:  www.openfoam.com                      |
|    \\/     M anipulation  |                                                 |
\*---------------------------------------------------------------------------*/
FoamFile
{
    version     2.0;
    format      ascii;
    class       volVectorField;
    location    "1.8";
    object      Psi;
}
// * * * * * * * * * * * * * * * * * * * * * * * * * * * * * * * * * * * * * //

dimensions      [0 2 -1 0 0 0 0];


internalField   nonuniform List<vector> 
65536
(
(0 0 8.59915e-06)
(0 0 2.57968e-05)
(0 0 4.29928e-05)
(0 0 6.0186e-05)
(0 0 7.73752e-05)
(0 0 9.45595e-05)
(0 0 0.000111738)
(0 0 0.000128908)
(0 0 0.000146071)
(0 0 0.000163223)
(0 0 0.000180365)
(0 0 0.000197495)
(0 0 0.000214611)
(0 0 0.000231713)
(0 0 0.000248798)
(0 0 0.000265867)
(0 0 0.000282916)
(0 0 0.000299946)
(0 0 0.000316954)
(0 0 0.000333939)
(0 0 0.0003509)
(0 0 0.000367834)
(0 0 0.000384741)
(0 0 0.000401618)
(0 0 0.000418464)
(0 0 0.000435277)
(0 0 0.000452056)
(0 0 0.000468798)
(0 0 0.000485502)
(0 0 0.000502165)
(0 0 0.000518785)
(0 0 0.000535362)
(0 0 0.000551891)
(0 0 0.000568372)
(0 0 0.000584801)
(0 0 0.000601177)
(0 0 0.000617497)
(0 0 0.000633759)
(0 0 0.00064996)
(0 0 0.000666097)
(0 0 0.000682169)
(0 0 0.000698172)
(0 0 0.000714104)
(0 0 0.000729962)
(0 0 0.000745742)
(0 0 0.000761443)
(0 0 0.00077706)
(0 0 0.000792592)
(0 0 0.000808035)
(0 0 0.000823386)
(0 0 0.000838641)
(0 0 0.000853798)
(0 0 0.000868853)
(0 0 0.000883803)
(0 0 0.000898645)
(0 0 0.000913375)
(0 0 0.000927989)
(0 0 0.000942485)
(0 0 0.000956859)
(0 0 0.000971107)
(0 0 0.000985225)
(0 0 0.000999211)
(0 0 0.00101306)
(0 0 0.00102677)
(0 0 0.00104034)
(0 0 0.00105375)
(0 0 0.00106702)
(0 0 0.00108013)
(0 0 0.00109309)
(0 0 0.00110588)
(0 0 0.00111851)
(0 0 0.00113097)
(0 0 0.00114325)
(0 0 0.00115536)
(0 0 0.00116729)
(0 0 0.00117904)
(0 0 0.0011906)
(0 0 0.00120197)
(0 0 0.00121315)
(0 0 0.00122413)
(0 0 0.00123491)
(0 0 0.00124549)
(0 0 0.00125586)
(0 0 0.00126602)
(0 0 0.00127597)
(0 0 0.00128571)
(0 0 0.00129522)
(0 0 0.00130452)
(0 0 0.00131359)
(0 0 0.00132243)
(0 0 0.00133105)
(0 0 0.00133943)
(0 0 0.00134758)
(0 0 0.0013555)
(0 0 0.00136317)
(0 0 0.00137061)
(0 0 0.0013778)
(0 0 0.00138475)
(0 0 0.00139146)
(0 0 0.00139791)
(0 0 0.00140412)
(0 0 0.00141007)
(0 0 0.00141577)
(0 0 0.00142122)
(0 0 0.00142642)
(0 0 0.00143136)
(0 0 0.00143604)
(0 0 0.00144046)
(0 0 0.00144463)
(0 0 0.00144854)
(0 0 0.00145218)
(0 0 0.00145557)
(0 0 0.0014587)
(0 0 0.00146157)
(0 0 0.00146417)
(0 0 0.00146652)
(0 0 0.0014686)
(0 0 0.00147043)
(0 0 0.00147199)
(0 0 0.0014733)
(0 0 0.00147434)
(0 0 0.00147512)
(0 0 0.00147565)
(0 0 0.00147592)
(0 0 0.00147593)
(0 0 0.00147569)
(0 0 0.00147518)
(0 0 0.00147443)
(0 0 0.00147342)
(0 0 0.00147216)
(0 0 0.00147065)
(0 0 0.00146888)
(0 0 0.00146687)
(0 0 0.00146461)
(0 0 0.00146211)
(0 0 0.00145936)
(0 0 0.00145636)
(0 0 0.00145313)
(0 0 0.00144965)
(0 0 0.00144594)
(0 0 0.00144199)
(0 0 0.0014378)
(0 0 0.00143338)
(0 0 0.00142873)
(0 0 0.00142385)
(0 0 0.00141874)
(0 0 0.00141341)
(0 0 0.00140785)
(0 0 0.00140207)
(0 0 0.00139608)
(0 0 0.00138986)
(0 0 0.00138343)
(0 0 0.00137678)
(0 0 0.00136993)
(0 0 0.00136286)
(0 0 0.00135559)
(0 0 0.00134812)
(0 0 0.00134044)
(0 0 0.00133256)
(0 0 0.00132448)
(0 0 0.00131621)
(0 0 0.00130775)
(0 0 0.0012991)
(0 0 0.00129026)
(0 0 0.00128123)
(0 0 0.00127202)
(0 0 0.00126263)
(0 0 0.00125307)
(0 0 0.00124333)
(0 0 0.00123341)
(0 0 0.00122333)
(0 0 0.00121307)
(0 0 0.00120266)
(0 0 0.00119208)
(0 0 0.00118134)
(0 0 0.00117045)
(0 0 0.0011594)
(0 0 0.00114819)
(0 0 0.00113684)
(0 0 0.00112535)
(0 0 0.00111371)
(0 0 0.00110193)
(0 0 0.00109001)
(0 0 0.00107796)
(0 0 0.00106577)
(0 0 0.00105346)
(0 0 0.00104101)
(0 0 0.00102844)
(0 0 0.00101575)
(0 0 0.00100295)
(0 0 0.000990021)
(0 0 0.000976982)
(0 0 0.000963831)
(0 0 0.000950572)
(0 0 0.000937207)
(0 0 0.000923739)
(0 0 0.00091017)
(0 0 0.000896503)
(0 0 0.000882741)
(0 0 0.000868885)
(0 0 0.000854938)
(0 0 0.000840904)
(0 0 0.000826783)
(0 0 0.00081258)
(0 0 0.000798295)
(0 0 0.000783932)
(0 0 0.000769493)
(0 0 0.00075498)
(0 0 0.000740396)
(0 0 0.000725742)
(0 0 0.000711021)
(0 0 0.000696235)
(0 0 0.000681386)
(0 0 0.000666476)
(0 0 0.000651508)
(0 0 0.000636483)
(0 0 0.000621403)
(0 0 0.000606271)
(0 0 0.000591087)
(0 0 0.000575855)
(0 0 0.000560576)
(0 0 0.000545252)
(0 0 0.000529884)
(0 0 0.000514475)
(0 0 0.000499025)
(0 0 0.000483537)
(0 0 0.000468013)
(0 0 0.000452453)
(0 0 0.00043686)
(0 0 0.000421234)
(0 0 0.000405578)
(0 0 0.000389893)
(0 0 0.00037418)
(0 0 0.000358441)
(0 0 0.000342677)
(0 0 0.000326889)
(0 0 0.000311079)
(0 0 0.000295248)
(0 0 0.000279398)
(0 0 0.000263528)
(0 0 0.000247641)
(0 0 0.000231738)
(0 0 0.00021582)
(0 0 0.000199888)
(0 0 0.000183944)
(0 0 0.000167987)
(0 0 0.00015202)
(0 0 0.000136043)
(0 0 0.000120058)
(0 0 0.000104065)
(0 0 8.80663e-05)
(0 0 7.20617e-05)
(0 0 5.60525e-05)
(0 0 4.004e-05)
(0 0 2.4025e-05)
(0 0 8.00849e-06)
(0 0 2.57978e-05)
(0 0 7.73917e-05)
(0 0 0.000128981)
(0 0 0.000180561)
(0 0 0.00023213)
(0 0 0.000283684)
(0 0 0.000335219)
(0 0 0.000386733)
(0 0 0.000438221)
(0 0 0.00048968)
(0 0 0.000541106)
(0 0 0.000592496)
(0 0 0.000643846)
(0 0 0.000695152)
(0 0 0.00074641)
(0 0 0.000797617)
(0 0 0.000848767)
(0 0 0.000899857)
(0 0 0.000950883)
(0 0 0.00100184)
(0 0 0.00105272)
(0 0 0.00110353)
(0 0 0.00115425)
(0 0 0.00120488)
(0 0 0.00125542)
(0 0 0.00130586)
(0 0 0.0013562)
(0 0 0.00140643)
(0 0 0.00145654)
(0 0 0.00150653)
(0 0 0.0015564)
(0 0 0.00160613)
(0 0 0.00165572)
(0 0 0.00170516)
(0 0 0.00175445)
(0 0 0.00180358)
(0 0 0.00185255)
(0 0 0.00190133)
(0 0 0.00194994)
(0 0 0.00199835)
(0 0 0.00204657)
(0 0 0.00209458)
(0 0 0.00214238)
(0 0 0.00218996)
(0 0 0.0022373)
(0 0 0.00228441)
(0 0 0.00233126)
(0 0 0.00237786)
(0 0 0.00242419)
(0 0 0.00247025)
(0 0 0.00251602)
(0 0 0.00256149)
(0 0 0.00260666)
(0 0 0.00265151)
(0 0 0.00269604)
(0 0 0.00274023)
(0 0 0.00278408)
(0 0 0.00282757)
(0 0 0.0028707)
(0 0 0.00291344)
(0 0 0.0029558)
(0 0 0.00299776)
(0 0 0.00303932)
(0 0 0.00308045)
(0 0 0.00312115)
(0 0 0.00316141)
(0 0 0.00320121)
(0 0 0.00324056)
(0 0 0.00327942)
(0 0 0.00331781)
(0 0 0.00335569)
(0 0 0.00339307)
(0 0 0.00342993)
(0 0 0.00346627)
(0 0 0.00350206)
(0 0 0.00353731)
(0 0 0.00357199)
(0 0 0.00360611)
(0 0 0.00363964)
(0 0 0.00367259)
(0 0 0.00370493)
(0 0 0.00373667)
(0 0 0.00376779)
(0 0 0.00379828)
(0 0 0.00382813)
(0 0 0.00385733)
(0 0 0.00388588)
(0 0 0.00391377)
(0 0 0.00394099)
(0 0 0.00396752)
(0 0 0.00399337)
(0 0 0.00401853)
(0 0 0.00404298)
(0 0 0.00406673)
(0 0 0.00408976)
(0 0 0.00411207)
(0 0 0.00413365)
(0 0 0.0041545)
(0 0 0.00417461)
(0 0 0.00419398)
(0 0 0.0042126)
(0 0 0.00423046)
(0 0 0.00424757)
(0 0 0.00426392)
(0 0 0.0042795)
(0 0 0.00429432)
(0 0 0.00430837)
(0 0 0.00432164)
(0 0 0.00433414)
(0 0 0.00434587)
(0 0 0.00435681)
(0 0 0.00436697)
(0 0 0.00437636)
(0 0 0.00438496)
(0 0 0.00439278)
(0 0 0.00439981)
(0 0 0.00440607)
(0 0 0.00441154)
(0 0 0.00441623)
(0 0 0.00442014)
(0 0 0.00442328)
(0 0 0.00442563)
(0 0 0.00442721)
(0 0 0.00442801)
(0 0 0.00442805)
(0 0 0.00442731)
(0 0 0.00442581)
(0 0 0.00442354)
(0 0 0.00442051)
(0 0 0.00441673)
(0 0 0.00441219)
(0 0 0.0044069)
(0 0 0.00440086)
(0 0 0.00439408)
(0 0 0.00438656)
(0 0 0.00437831)
(0 0 0.00436933)
(0 0 0.00435962)
(0 0 0.00434919)
(0 0 0.00433805)
(0 0 0.00432619)
(0 0 0.00431363)
(0 0 0.00430038)
(0 0 0.00428642)
(0 0 0.00427178)
(0 0 0.00425646)
(0 0 0.00424045)
(0 0 0.00422378)
(0 0 0.00420644)
(0 0 0.00418845)
(0 0 0.0041698)
(0 0 0.0041505)
(0 0 0.00413056)
(0 0 0.00410999)
(0 0 0.0040888)
(0 0 0.00406698)
(0 0 0.00404455)
(0 0 0.00402151)
(0 0 0.00399788)
(0 0 0.00397365)
(0 0 0.00394884)
(0 0 0.00392345)
(0 0 0.00389749)
(0 0 0.00387096)
(0 0 0.00384388)
(0 0 0.00381625)
(0 0 0.00378808)
(0 0 0.00375938)
(0 0 0.00373015)
(0 0 0.00370041)
(0 0 0.00367015)
(0 0 0.00363939)
(0 0 0.00360814)
(0 0 0.0035764)
(0 0 0.00354418)
(0 0 0.00351149)
(0 0 0.00347834)
(0 0 0.00344474)
(0 0 0.00341068)
(0 0 0.00337619)
(0 0 0.00334127)
(0 0 0.00330593)
(0 0 0.00327017)
(0 0 0.00323401)
(0 0 0.00319745)
(0 0 0.0031605)
(0 0 0.00312316)
(0 0 0.00308546)
(0 0 0.00304739)
(0 0 0.00300896)
(0 0 0.00297018)
(0 0 0.00293106)
(0 0 0.00289161)
(0 0 0.00285183)
(0 0 0.00281173)
(0 0 0.00277132)
(0 0 0.00273061)
(0 0 0.00268961)
(0 0 0.00264832)
(0 0 0.00260675)
(0 0 0.00256491)
(0 0 0.0025228)
(0 0 0.00248044)
(0 0 0.00243782)
(0 0 0.00239497)
(0 0 0.00235188)
(0 0 0.00230856)
(0 0 0.00226502)
(0 0 0.00222126)
(0 0 0.0021773)
(0 0 0.00213313)
(0 0 0.00208877)
(0 0 0.00204422)
(0 0 0.00199949)
(0 0 0.00195458)
(0 0 0.00190951)
(0 0 0.00186426)
(0 0 0.00181887)
(0 0 0.00177331)
(0 0 0.00172762)
(0 0 0.00168178)
(0 0 0.0016358)
(0 0 0.0015897)
(0 0 0.00154347)
(0 0 0.00149712)
(0 0 0.00145065)
(0 0 0.00140408)
(0 0 0.00135739)
(0 0 0.00131061)
(0 0 0.00126374)
(0 0 0.00121677)
(0 0 0.00116971)
(0 0 0.00112257)
(0 0 0.00107535)
(0 0 0.00102806)
(0 0 0.000980692)
(0 0 0.000933261)
(0 0 0.000885766)
(0 0 0.000838213)
(0 0 0.000790603)
(0 0 0.000742941)
(0 0 0.000695231)
(0 0 0.000647476)
(0 0 0.000599679)
(0 0 0.000551843)
(0 0 0.000503973)
(0 0 0.00045607)
(0 0 0.000408139)
(0 0 0.000360182)
(0 0 0.000312203)
(0 0 0.000264205)
(0 0 0.00021619)
(0 0 0.000168161)
(0 0 0.000120123)
(0 0 7.20764e-05)
(0 0 2.4026e-05)
(0 0 4.29982e-05)
(0 0 0.000128992)
(0 0 0.000214977)
(0 0 0.000300948)
(0 0 0.0003869)
(0 0 0.000472827)
(0 0 0.000558723)
(0 0 0.000644583)
(0 0 0.0007304)
(0 0 0.000816169)
(0 0 0.000901883)
(0 0 0.000987538)
(0 0 0.00107313)
(0 0 0.00115864)
(0 0 0.00124407)
(0 0 0.00132942)
(0 0 0.00141468)
(0 0 0.00149983)
(0 0 0.00158488)
(0 0 0.00166981)
(0 0 0.00175462)
(0 0 0.0018393)
(0 0 0.00192385)
(0 0 0.00200824)
(0 0 0.00209248)
(0 0 0.00217656)
(0 0 0.00226046)
(0 0 0.00234418)
(0 0 0.0024277)
(0 0 0.00251103)
(0 0 0.00259414)
(0 0 0.00267704)
(0 0 0.00275969)
(0 0 0.00284211)
(0 0 0.00292427)
(0 0 0.00300616)
(0 0 0.00308777)
(0 0 0.00316909)
(0 0 0.00325011)
(0 0 0.00333081)
(0 0 0.00341118)
(0 0 0.00349121)
(0 0 0.00357088)
(0 0 0.00365018)
(0 0 0.0037291)
(0 0 0.00380762)
(0 0 0.00388572)
(0 0 0.0039634)
(0 0 0.00404063)
(0 0 0.0041174)
(0 0 0.00419369)
(0 0 0.00426949)
(0 0 0.00434478)
(0 0 0.00441955)
(0 0 0.00449377)
(0 0 0.00456744)
(0 0 0.00464053)
(0 0 0.00471303)
(0 0 0.00478491)
(0 0 0.00485617)
(0 0 0.00492678)
(0 0 0.00499673)
(0 0 0.00506599)
(0 0 0.00513456)
(0 0 0.0052024)
(0 0 0.00526951)
(0 0 0.00533587)
(0 0 0.00540145)
(0 0 0.00546624)
(0 0 0.00553023)
(0 0 0.00559338)
(0 0 0.00565569)
(0 0 0.00571714)
(0 0 0.00577771)
(0 0 0.00583738)
(0 0 0.00589613)
(0 0 0.00595395)
(0 0 0.00601082)
(0 0 0.00606673)
(0 0 0.00612165)
(0 0 0.00617557)
(0 0 0.00622847)
(0 0 0.00628034)
(0 0 0.00633117)
(0 0 0.00638093)
(0 0 0.00642962)
(0 0 0.00647721)
(0 0 0.0065237)
(0 0 0.00656907)
(0 0 0.0066133)
(0 0 0.00665639)
(0 0 0.00669833)
(0 0 0.00673909)
(0 0 0.00677867)
(0 0 0.00681707)
(0 0 0.00685425)
(0 0 0.00689023)
(0 0 0.00692498)
(0 0 0.00695851)
(0 0 0.00699079)
(0 0 0.00702183)
(0 0 0.00705161)
(0 0 0.00708013)
(0 0 0.00710738)
(0 0 0.00713336)
(0 0 0.00715806)
(0 0 0.00718147)
(0 0 0.0072036)
(0 0 0.00722443)
(0 0 0.00724397)
(0 0 0.00726222)
(0 0 0.00727916)
(0 0 0.0072948)
(0 0 0.00730913)
(0 0 0.00732216)
(0 0 0.00733389)
(0 0 0.00734431)
(0 0 0.00735344)
(0 0 0.00736125)
(0 0 0.00736777)
(0 0 0.00737299)
(0 0 0.00737691)
(0 0 0.00737954)
(0 0 0.00738088)
(0 0 0.00738093)
(0 0 0.0073797)
(0 0 0.00737719)
(0 0 0.00737341)
(0 0 0.00736836)
(0 0 0.00736205)
(0 0 0.00735448)
(0 0 0.00734566)
(0 0 0.00733559)
(0 0 0.00732429)
(0 0 0.00731175)
(0 0 0.00729799)
(0 0 0.00728302)
(0 0 0.00726683)
(0 0 0.00724945)
(0 0 0.00723087)
(0 0 0.00721111)
(0 0 0.00719017)
(0 0 0.00716806)
(0 0 0.0071448)
(0 0 0.00712039)
(0 0 0.00709485)
(0 0 0.00706817)
(0 0 0.00704037)
(0 0 0.00701147)
(0 0 0.00698147)
(0 0 0.00695038)
(0 0 0.00691821)
(0 0 0.00688498)
(0 0 0.00685069)
(0 0 0.00681535)
(0 0 0.00677898)
(0 0 0.00674159)
(0 0 0.00670319)
(0 0 0.00666379)
(0 0 0.0066234)
(0 0 0.00658204)
(0 0 0.00653971)
(0 0 0.00649644)
(0 0 0.00645222)
(0 0 0.00640708)
(0 0 0.00636102)
(0 0 0.00631407)
(0 0 0.00626622)
(0 0 0.0062175)
(0 0 0.00616791)
(0 0 0.00611748)
(0 0 0.0060662)
(0 0 0.00601411)
(0 0 0.0059612)
(0 0 0.00590749)
(0 0 0.005853)
(0 0 0.00579774)
(0 0 0.00574172)
(0 0 0.00568496)
(0 0 0.00562747)
(0 0 0.00556926)
(0 0 0.00551034)
(0 0 0.00545074)
(0 0 0.00539046)
(0 0 0.00532951)
(0 0 0.00526792)
(0 0 0.00520569)
(0 0 0.00514284)
(0 0 0.00507938)
(0 0 0.00501532)
(0 0 0.00495068)
(0 0 0.00488547)
(0 0 0.0048197)
(0 0 0.0047534)
(0 0 0.00468656)
(0 0 0.00461921)
(0 0 0.00455135)
(0 0 0.004483)
(0 0 0.00441417)
(0 0 0.00434488)
(0 0 0.00427514)
(0 0 0.00420495)
(0 0 0.00413434)
(0 0 0.00406331)
(0 0 0.00399188)
(0 0 0.00392005)
(0 0 0.00384784)
(0 0 0.00377527)
(0 0 0.00370233)
(0 0 0.00362905)
(0 0 0.00355543)
(0 0 0.00348149)
(0 0 0.00340724)
(0 0 0.00333268)
(0 0 0.00325783)
(0 0 0.00318269)
(0 0 0.00310728)
(0 0 0.00303161)
(0 0 0.00295569)
(0 0 0.00287952)
(0 0 0.00280311)
(0 0 0.00272648)
(0 0 0.00264963)
(0 0 0.00257258)
(0 0 0.00249532)
(0 0 0.00241787)
(0 0 0.00234024)
(0 0 0.00226244)
(0 0 0.00218446)
(0 0 0.00210633)
(0 0 0.00202804)
(0 0 0.00194961)
(0 0 0.00187104)
(0 0 0.00179233)
(0 0 0.00171351)
(0 0 0.00163456)
(0 0 0.00155551)
(0 0 0.00147634)
(0 0 0.00139708)
(0 0 0.00131773)
(0 0 0.00123829)
(0 0 0.00115877)
(0 0 0.00107917)
(0 0 0.000999508)
(0 0 0.000919778)
(0 0 0.00083999)
(0 0 0.000760149)
(0 0 0.000680261)
(0 0 0.000600329)
(0 0 0.00052036)
(0 0 0.000440359)
(0 0 0.000360331)
(0 0 0.00028028)
(0 0 0.000200212)
(0 0 0.000120132)
(0 0 4.00449e-05)
(0 0 6.02013e-05)
(0 0 0.0001806)
(0 0 0.000300987)
(0 0 0.000421355)
(0 0 0.000541695)
(0 0 0.000662001)
(0 0 0.000782264)
(0 0 0.000902475)
(0 0 0.00102263)
(0 0 0.00114271)
(0 0 0.00126272)
(0 0 0.00138265)
(0 0 0.00150248)
(0 0 0.00162221)
(0 0 0.00174183)
(0 0 0.00186132)
(0 0 0.00198069)
(0 0 0.00209992)
(0 0 0.00221899)
(0 0 0.00233791)
(0 0 0.00245666)
(0 0 0.00257522)
(0 0 0.00269359)
(0 0 0.00281175)
(0 0 0.0029297)
(0 0 0.00304742)
(0 0 0.0031649)
(0 0 0.00328212)
(0 0 0.00339907)
(0 0 0.00351574)
(0 0 0.00363211)
(0 0 0.00374818)
(0 0 0.00386391)
(0 0 0.00397931)
(0 0 0.00409435)
(0 0 0.00420901)
(0 0 0.00432329)
(0 0 0.00443715)
(0 0 0.0045506)
(0 0 0.0046636)
(0 0 0.00477614)
(0 0 0.00488819)
(0 0 0.00499976)
(0 0 0.0051108)
(0 0 0.0052213)
(0 0 0.00533125)
(0 0 0.00544061)
(0 0 0.00554938)
(0 0 0.00565752)
(0 0 0.00576502)
(0 0 0.00587186)
(0 0 0.005978)
(0 0 0.00608343)
(0 0 0.00618813)
(0 0 0.00629207)
(0 0 0.00639522)
(0 0 0.00649757)
(0 0 0.00659909)
(0 0 0.00669976)
(0 0 0.00679954)
(0 0 0.00689842)
(0 0 0.00699638)
(0 0 0.00709337)
(0 0 0.00718939)
(0 0 0.0072844)
(0 0 0.00737838)
(0 0 0.0074713)
(0 0 0.00756314)
(0 0 0.00765387)
(0 0 0.00774348)
(0 0 0.00783192)
(0 0 0.00791918)
(0 0 0.00800523)
(0 0 0.00809005)
(0 0 0.00817361)
(0 0 0.00825589)
(0 0 0.00833686)
(0 0 0.00841651)
(0 0 0.00849479)
(0 0 0.00857171)
(0 0 0.00864722)
(0 0 0.0087213)
(0 0 0.00879395)
(0 0 0.00886512)
(0 0 0.00893481)
(0 0 0.00900299)
(0 0 0.00906964)
(0 0 0.00913475)
(0 0 0.00919828)
(0 0 0.00926023)
(0 0 0.00932057)
(0 0 0.0093793)
(0 0 0.00943638)
(0 0 0.00949181)
(0 0 0.00954558)
(0 0 0.00959765)
(0 0 0.00964803)
(0 0 0.0096967)
(0 0 0.00974365)
(0 0 0.00978885)
(0 0 0.00983232)
(0 0 0.00987402)
(0 0 0.00991396)
(0 0 0.00995212)
(0 0 0.00998849)
(0 0 0.0100231)
(0 0 0.0100559)
(0 0 0.0100868)
(0 0 0.010116)
(0 0 0.0101434)
(0 0 0.0101689)
(0 0 0.0101926)
(0 0 0.0102145)
(0 0 0.0102346)
(0 0 0.0102529)
(0 0 0.0102693)
(0 0 0.0102839)
(0 0 0.0102966)
(0 0 0.0103076)
(0 0 0.0103167)
(0 0 0.010324)
(0 0 0.0103295)
(0 0 0.0103332)
(0 0 0.010335)
(0 0 0.0103351)
(0 0 0.0103334)
(0 0 0.0103299)
(0 0 0.0103246)
(0 0 0.0103175)
(0 0 0.0103086)
(0 0 0.010298)
(0 0 0.0102857)
(0 0 0.0102716)
(0 0 0.0102557)
(0 0 0.0102382)
(0 0 0.0102189)
(0 0 0.0101979)
(0 0 0.0101752)
(0 0 0.0101509)
(0 0 0.0101249)
(0 0 0.0100972)
(0 0 0.0100679)
(0 0 0.0100369)
(0 0 0.0100043)
(0 0 0.00997015)
(0 0 0.00993437)
(0 0 0.009897)
(0 0 0.00985808)
(0 0 0.0098176)
(0 0 0.00977558)
(0 0 0.00973204)
(0 0 0.00968699)
(0 0 0.00964044)
(0 0 0.00959242)
(0 0 0.00954294)
(0 0 0.00949201)
(0 0 0.00943964)
(0 0 0.00938587)
(0 0 0.00933069)
(0 0 0.00927413)
(0 0 0.00921621)
(0 0 0.00915693)
(0 0 0.00909633)
(0 0 0.00903441)
(0 0 0.00897119)
(0 0 0.00890669)
(0 0 0.00884094)
(0 0 0.00877393)
(0 0 0.0087057)
(0 0 0.00863627)
(0 0 0.00856564)
(0 0 0.00849384)
(0 0 0.00842088)
(0 0 0.00834679)
(0 0 0.00827159)
(0 0 0.00819528)
(0 0 0.0081179)
(0 0 0.00803945)
(0 0 0.00795997)
(0 0 0.00787946)
(0 0 0.00779794)
(0 0 0.00771545)
(0 0 0.00763198)
(0 0 0.00754757)
(0 0 0.00746223)
(0 0 0.00737598)
(0 0 0.00728884)
(0 0 0.00720082)
(0 0 0.00711196)
(0 0 0.00702226)
(0 0 0.00693175)
(0 0 0.00684044)
(0 0 0.00674835)
(0 0 0.0066555)
(0 0 0.00656191)
(0 0 0.00646759)
(0 0 0.00637258)
(0 0 0.00627687)
(0 0 0.0061805)
(0 0 0.00608347)
(0 0 0.00598581)
(0 0 0.00588753)
(0 0 0.00578866)
(0 0 0.0056892)
(0 0 0.00558917)
(0 0 0.0054886)
(0 0 0.0053875)
(0 0 0.00528587)
(0 0 0.00518375)
(0 0 0.00508114)
(0 0 0.00497806)
(0 0 0.00487453)
(0 0 0.00477056)
(0 0 0.00466616)
(0 0 0.00456135)
(0 0 0.00445615)
(0 0 0.00435056)
(0 0 0.00424461)
(0 0 0.0041383)
(0 0 0.00403165)
(0 0 0.00392467)
(0 0 0.00381738)
(0 0 0.00370978)
(0 0 0.00360189)
(0 0 0.00349372)
(0 0 0.00338528)
(0 0 0.00327659)
(0 0 0.00316765)
(0 0 0.00305847)
(0 0 0.00294907)
(0 0 0.00283946)
(0 0 0.00272964)
(0 0 0.00261964)
(0 0 0.00250944)
(0 0 0.00239907)
(0 0 0.00228854)
(0 0 0.00217785)
(0 0 0.00206702)
(0 0 0.00195605)
(0 0 0.00184494)
(0 0 0.00173372)
(0 0 0.00162238)
(0 0 0.00151094)
(0 0 0.0013994)
(0 0 0.00128777)
(0 0 0.00117606)
(0 0 0.00106428)
(0 0 0.000952424)
(0 0 0.000840513)
(0 0 0.00072855)
(0 0 0.000616541)
(0 0 0.000504495)
(0 0 0.000392417)
(0 0 0.000280315)
(0 0 0.000168196)
(0 0 5.60664e-05)
(0 0 7.74084e-05)
(0 0 0.00023222)
(0 0 0.000387017)
(0 0 0.000541789)
(0 0 0.000696526)
(0 0 0.000851218)
(0 0 0.00100586)
(0 0 0.00116043)
(0 0 0.00131492)
(0 0 0.00146933)
(0 0 0.00162364)
(0 0 0.00177785)
(0 0 0.00193193)
(0 0 0.00208589)
(0 0 0.0022397)
(0 0 0.00239335)
(0 0 0.00254684)
(0 0 0.00270015)
(0 0 0.00285327)
(0 0 0.00300618)
(0 0 0.00315887)
(0 0 0.00331133)
(0 0 0.00346354)
(0 0 0.00361549)
(0 0 0.00376715)
(0 0 0.00391853)
(0 0 0.00406959)
(0 0 0.00422033)
(0 0 0.00437072)
(0 0 0.00452075)
(0 0 0.0046704)
(0 0 0.00481964)
(0 0 0.00496848)
(0 0 0.00511687)
(0 0 0.0052648)
(0 0 0.00541226)
(0 0 0.00555921)
(0 0 0.00570564)
(0 0 0.00585153)
(0 0 0.00599684)
(0 0 0.00614157)
(0 0 0.00628568)
(0 0 0.00642915)
(0 0 0.00657195)
(0 0 0.00671406)
(0 0 0.00685546)
(0 0 0.00699611)
(0 0 0.00713599)
(0 0 0.00727506)
(0 0 0.00741332)
(0 0 0.00755071)
(0 0 0.00768722)
(0 0 0.00782282)
(0 0 0.00795747)
(0 0 0.00809114)
(0 0 0.00822382)
(0 0 0.00835545)
(0 0 0.00848602)
(0 0 0.00861549)
(0 0 0.00874382)
(0 0 0.008871)
(0 0 0.00899698)
(0 0 0.00912173)
(0 0 0.00924522)
(0 0 0.00936742)
(0 0 0.0094883)
(0 0 0.00960781)
(0 0 0.00972594)
(0 0 0.00984264)
(0 0 0.00995788)
(0 0 0.0100716)
(0 0 0.0101839)
(0 0 0.0102946)
(0 0 0.0104037)
(0 0 0.0105111)
(0 0 0.010617)
(0 0 0.0107211)
(0 0 0.0108235)
(0 0 0.0109242)
(0 0 0.0110232)
(0 0 0.0111203)
(0 0 0.0112156)
(0 0 0.011309)
(0 0 0.0114006)
(0 0 0.0114902)
(0 0 0.0115779)
(0 0 0.0116636)
(0 0 0.0117474)
(0 0 0.0118291)
(0 0 0.0119088)
(0 0 0.0119864)
(0 0 0.0120619)
(0 0 0.0121353)
(0 0 0.0122066)
(0 0 0.0122758)
(0 0 0.0123428)
(0 0 0.0124075)
(0 0 0.0124701)
(0 0 0.0125305)
(0 0 0.0125887)
(0 0 0.0126446)
(0 0 0.0126982)
(0 0 0.0127496)
(0 0 0.0127986)
(0 0 0.0128454)
(0 0 0.0128899)
(0 0 0.0129321)
(0 0 0.0129719)
(0 0 0.0130094)
(0 0 0.0130446)
(0 0 0.0130775)
(0 0 0.013108)
(0 0 0.0131361)
(0 0 0.0131619)
(0 0 0.0131854)
(0 0 0.0132065)
(0 0 0.0132252)
(0 0 0.0132417)
(0 0 0.0132557)
(0 0 0.0132674)
(0 0 0.0132768)
(0 0 0.0132839)
(0 0 0.0132886)
(0 0 0.013291)
(0 0 0.0132911)
(0 0 0.0132888)
(0 0 0.0132843)
(0 0 0.0132775)
(0 0 0.0132684)
(0 0 0.013257)
(0 0 0.0132433)
(0 0 0.0132274)
(0 0 0.0132093)
(0 0 0.0131889)
(0 0 0.0131663)
(0 0 0.0131415)
(0 0 0.0131145)
(0 0 0.0130853)
(0 0 0.013054)
(0 0 0.0130205)
(0 0 0.0129849)
(0 0 0.0129472)
(0 0 0.0129074)
(0 0 0.0128655)
(0 0 0.0128215)
(0 0 0.0127755)
(0 0 0.0127274)
(0 0 0.0126773)
(0 0 0.0126253)
(0 0 0.0125712)
(0 0 0.0125152)
(0 0 0.0124573)
(0 0 0.0123974)
(0 0 0.0123356)
(0 0 0.012272)
(0 0 0.0122065)
(0 0 0.0121391)
(0 0 0.0120699)
(0 0 0.011999)
(0 0 0.0119262)
(0 0 0.0118517)
(0 0 0.0117755)
(0 0 0.0116975)
(0 0 0.0116179)
(0 0 0.0115366)
(0 0 0.0114536)
(0 0 0.0113691)
(0 0 0.0112829)
(0 0 0.0111951)
(0 0 0.0111058)
(0 0 0.011015)
(0 0 0.0109226)
(0 0 0.0108288)
(0 0 0.0107335)
(0 0 0.0106368)
(0 0 0.0105386)
(0 0 0.0104391)
(0 0 0.0103382)
(0 0 0.010236)
(0 0 0.0101325)
(0 0 0.0100276)
(0 0 0.00992151)
(0 0 0.00981417)
(0 0 0.00970561)
(0 0 0.00959585)
(0 0 0.00948493)
(0 0 0.00937286)
(0 0 0.00925966)
(0 0 0.00914538)
(0 0 0.00903002)
(0 0 0.00891361)
(0 0 0.00879618)
(0 0 0.00867775)
(0 0 0.00855834)
(0 0 0.00843798)
(0 0 0.00831668)
(0 0 0.00819449)
(0 0 0.00807141)
(0 0 0.00794747)
(0 0 0.00782269)
(0 0 0.0076971)
(0 0 0.00757071)
(0 0 0.00744356)
(0 0 0.00731565)
(0 0 0.00718702)
(0 0 0.00705769)
(0 0 0.00692766)
(0 0 0.00679698)
(0 0 0.00666565)
(0 0 0.0065337)
(0 0 0.00640114)
(0 0 0.006268)
(0 0 0.0061343)
(0 0 0.00600005)
(0 0 0.00586527)
(0 0 0.00572999)
(0 0 0.00559421)
(0 0 0.00545797)
(0 0 0.00532126)
(0 0 0.00518412)
(0 0 0.00504655)
(0 0 0.00490858)
(0 0 0.00477022)
(0 0 0.00463148)
(0 0 0.00449238)
(0 0 0.00435294)
(0 0 0.00421318)
(0 0 0.00407309)
(0 0 0.0039327)
(0 0 0.00379203)
(0 0 0.00365108)
(0 0 0.00350987)
(0 0 0.00336842)
(0 0 0.00322672)
(0 0 0.00308481)
(0 0 0.00294268)
(0 0 0.00280035)
(0 0 0.00265783)
(0 0 0.00251514)
(0 0 0.00237228)
(0 0 0.00222926)
(0 0 0.0020861)
(0 0 0.0019428)
(0 0 0.00179938)
(0 0 0.00165585)
(0 0 0.00151221)
(0 0 0.00136847)
(0 0 0.00122465)
(0 0 0.00108075)
(0 0 0.000936784)
(0 0 0.000792761)
(0 0 0.000648689)
(0 0 0.000504577)
(0 0 0.000360434)
(0 0 0.000216269)
(0 0 7.20912e-05)
(0 0 9.46204e-05)
(0 0 0.000283855)
(0 0 0.000473072)
(0 0 0.000662258)
(0 0 0.000851402)
(0 0 0.00104049)
(0 0 0.00122951)
(0 0 0.00141846)
(0 0 0.00160731)
(0 0 0.00179605)
(0 0 0.00198468)
(0 0 0.00217317)
(0 0 0.00236152)
(0 0 0.00254971)
(0 0 0.00273773)
(0 0 0.00292555)
(0 0 0.00311318)
(0 0 0.00330058)
(0 0 0.00348775)
(0 0 0.00367467)
(0 0 0.00386132)
(0 0 0.00404769)
(0 0 0.00423375)
(0 0 0.0044195)
(0 0 0.0046049)
(0 0 0.00478995)
(0 0 0.00497461)
(0 0 0.00515888)
(0 0 0.00534273)
(0 0 0.00552614)
(0 0 0.00570908)
(0 0 0.00589153)
(0 0 0.00607348)
(0 0 0.00625489)
(0 0 0.00643574)
(0 0 0.006616)
(0 0 0.00679566)
(0 0 0.00697468)
(0 0 0.00715303)
(0 0 0.00733069)
(0 0 0.00750762)
(0 0 0.00768381)
(0 0 0.00785921)
(0 0 0.0080338)
(0 0 0.00820754)
(0 0 0.00838041)
(0 0 0.00855237)
(0 0 0.00872339)
(0 0 0.00889343)
(0 0 0.00906247)
(0 0 0.00923045)
(0 0 0.00939736)
(0 0 0.00956315)
(0 0 0.00972778)
(0 0 0.00989123)
(0 0 0.0100534)
(0 0 0.0102144)
(0 0 0.010374)
(0 0 0.0105323)
(0 0 0.0106893)
(0 0 0.0108448)
(0 0 0.0109988)
(0 0 0.0111514)
(0 0 0.0113024)
(0 0 0.0114518)
(0 0 0.0115996)
(0 0 0.0117457)
(0 0 0.0118902)
(0 0 0.0120329)
(0 0 0.0121738)
(0 0 0.0123129)
(0 0 0.0124501)
(0 0 0.0125855)
(0 0 0.0127189)
(0 0 0.0128503)
(0 0 0.0129797)
(0 0 0.0131071)
(0 0 0.0132323)
(0 0 0.0133555)
(0 0 0.0134764)
(0 0 0.0135952)
(0 0 0.0137117)
(0 0 0.013826)
(0 0 0.0139379)
(0 0 0.0140475)
(0 0 0.0141548)
(0 0 0.0142596)
(0 0 0.014362)
(0 0 0.0144619)
(0 0 0.0145594)
(0 0 0.0146543)
(0 0 0.0147466)
(0 0 0.0148364)
(0 0 0.0149236)
(0 0 0.0150081)
(0 0 0.01509)
(0 0 0.0151693)
(0 0 0.0152458)
(0 0 0.0153196)
(0 0 0.0153907)
(0 0 0.0154591)
(0 0 0.0155247)
(0 0 0.0155875)
(0 0 0.0156475)
(0 0 0.0157047)
(0 0 0.015759)
(0 0 0.0158106)
(0 0 0.0158593)
(0 0 0.0159052)
(0 0 0.0159482)
(0 0 0.0159883)
(0 0 0.0160256)
(0 0 0.01606)
(0 0 0.0160916)
(0 0 0.0161202)
(0 0 0.016146)
(0 0 0.016169)
(0 0 0.016189)
(0 0 0.0162062)
(0 0 0.0162205)
(0 0 0.016232)
(0 0 0.0162406)
(0 0 0.0162464)
(0 0 0.0162493)
(0 0 0.0162493)
(0 0 0.0162466)
(0 0 0.016241)
(0 0 0.0162327)
(0 0 0.0162215)
(0 0 0.0162076)
(0 0 0.0161909)
(0 0 0.0161714)
(0 0 0.0161492)
(0 0 0.0161243)
(0 0 0.0160966)
(0 0 0.0160663)
(0 0 0.0160333)
(0 0 0.0159976)
(0 0 0.0159593)
(0 0 0.0159183)
(0 0 0.0158748)
(0 0 0.0158286)
(0 0 0.0157799)
(0 0 0.0157287)
(0 0 0.0156749)
(0 0 0.0156186)
(0 0 0.0155598)
(0 0 0.0154986)
(0 0 0.0154349)
(0 0 0.0153688)
(0 0 0.0153003)
(0 0 0.0152294)
(0 0 0.0151562)
(0 0 0.0150807)
(0 0 0.0150029)
(0 0 0.0149228)
(0 0 0.0148404)
(0 0 0.0147558)
(0 0 0.014669)
(0 0 0.0145801)
(0 0 0.014489)
(0 0 0.0143957)
(0 0 0.0143004)
(0 0 0.014203)
(0 0 0.0141036)
(0 0 0.0140022)
(0 0 0.0138988)
(0 0 0.0137934)
(0 0 0.0136861)
(0 0 0.0135769)
(0 0 0.0134658)
(0 0 0.0133529)
(0 0 0.0132382)
(0 0 0.0131217)
(0 0 0.0130034)
(0 0 0.0128834)
(0 0 0.0127617)
(0 0 0.0126383)
(0 0 0.0125133)
(0 0 0.0123867)
(0 0 0.0122586)
(0 0 0.0121288)
(0 0 0.0119976)
(0 0 0.0118648)
(0 0 0.0117306)
(0 0 0.011595)
(0 0 0.011458)
(0 0 0.0113196)
(0 0 0.0111799)
(0 0 0.0110388)
(0 0 0.0108965)
(0 0 0.0107529)
(0 0 0.0106081)
(0 0 0.0104621)
(0 0 0.010315)
(0 0 0.0101667)
(0 0 0.0100173)
(0 0 0.0098668)
(0 0 0.00971528)
(0 0 0.00956272)
(0 0 0.00940918)
(0 0 0.00925466)
(0 0 0.00909921)
(0 0 0.00894283)
(0 0 0.00878558)
(0 0 0.00862745)
(0 0 0.0084685)
(0 0 0.00830873)
(0 0 0.00814817)
(0 0 0.00798686)
(0 0 0.00782481)
(0 0 0.00766204)
(0 0 0.00749859)
(0 0 0.00733447)
(0 0 0.0071697)
(0 0 0.00700432)
(0 0 0.00683834)
(0 0 0.00667177)
(0 0 0.00650466)
(0 0 0.006337)
(0 0 0.00616883)
(0 0 0.00600017)
(0 0 0.00583103)
(0 0 0.00566143)
(0 0 0.00549139)
(0 0 0.00532094)
(0 0 0.00515008)
(0 0 0.00497883)
(0 0 0.00480722)
(0 0 0.00463526)
(0 0 0.00446297)
(0 0 0.00429035)
(0 0 0.00411743)
(0 0 0.00394423)
(0 0 0.00377075)
(0 0 0.00359701)
(0 0 0.00342303)
(0 0 0.00324882)
(0 0 0.0030744)
(0 0 0.00289977)
(0 0 0.00272495)
(0 0 0.00254995)
(0 0 0.00237479)
(0 0 0.00219948)
(0 0 0.00202403)
(0 0 0.00184845)
(0 0 0.00167275)
(0 0 0.00149695)
(0 0 0.00132105)
(0 0 0.00114508)
(0 0 0.00096903)
(0 0 0.000792923)
(0 0 0.000616768)
(0 0 0.000440576)
(0 0 0.000264356)
(0 0 8.81205e-05)
(0 0 0.000111838)
(0 0 0.000335508)
(0 0 0.000559157)
(0 0 0.000782769)
(0 0 0.00100633)
(0 0 0.00122983)
(0 0 0.00145325)
(0 0 0.00167658)
(0 0 0.00189979)
(0 0 0.00212289)
(0 0 0.00234584)
(0 0 0.00256864)
(0 0 0.00279127)
(0 0 0.00301371)
(0 0 0.00323594)
(0 0 0.00345796)
(0 0 0.00367973)
(0 0 0.00390125)
(0 0 0.00412249)
(0 0 0.00434343)
(0 0 0.00456406)
(0 0 0.00478435)
(0 0 0.00500429)
(0 0 0.00522385)
(0 0 0.00544301)
(0 0 0.00566175)
(0 0 0.00588004)
(0 0 0.00609786)
(0 0 0.00631518)
(0 0 0.00653199)
(0 0 0.00674825)
(0 0 0.00696393)
(0 0 0.00717901)
(0 0 0.00739347)
(0 0 0.00760726)
(0 0 0.00782036)
(0 0 0.00803275)
(0 0 0.00824438)
(0 0 0.00845522)
(0 0 0.00866525)
(0 0 0.00887443)
(0 0 0.00908272)
(0 0 0.00929008)
(0 0 0.00949649)
(0 0 0.0097019)
(0 0 0.00990628)
(0 0 0.0101096)
(0 0 0.0103118)
(0 0 0.0105128)
(0 0 0.0107127)
(0 0 0.0109113)
(0 0 0.0111086)
(0 0 0.0113046)
(0 0 0.0114993)
(0 0 0.0116925)
(0 0 0.0118843)
(0 0 0.0120746)
(0 0 0.0122634)
(0 0 0.0124506)
(0 0 0.0126361)
(0 0 0.01282)
(0 0 0.0130021)
(0 0 0.0131825)
(0 0 0.0133611)
(0 0 0.0135378)
(0 0 0.0137125)
(0 0 0.0138853)
(0 0 0.0140561)
(0 0 0.0142249)
(0 0 0.0143915)
(0 0 0.014556)
(0 0 0.0147183)
(0 0 0.0148783)
(0 0 0.0150361)
(0 0 0.0151915)
(0 0 0.0153445)
(0 0 0.0154951)
(0 0 0.0156432)
(0 0 0.0157889)
(0 0 0.0159319)
(0 0 0.0160723)
(0 0 0.0162101)
(0 0 0.0163452)
(0 0 0.0164776)
(0 0 0.0166072)
(0 0 0.0167341)
(0 0 0.016858)
(0 0 0.0169791)
(0 0 0.0170973)
(0 0 0.0172125)
(0 0 0.0173247)
(0 0 0.0174339)
(0 0 0.0175401)
(0 0 0.0176432)
(0 0 0.0177432)
(0 0 0.01784)
(0 0 0.0179337)
(0 0 0.0180242)
(0 0 0.0181115)
(0 0 0.0181955)
(0 0 0.0182763)
(0 0 0.0183539)
(0 0 0.0184281)
(0 0 0.0184991)
(0 0 0.0185667)
(0 0 0.018631)
(0 0 0.0186919)
(0 0 0.0187495)
(0 0 0.0188038)
(0 0 0.0188546)
(0 0 0.0189021)
(0 0 0.0189461)
(0 0 0.0189868)
(0 0 0.0190241)
(0 0 0.019058)
(0 0 0.0190885)
(0 0 0.0191156)
(0 0 0.0191393)
(0 0 0.0191596)
(0 0 0.0191765)
(0 0 0.01919)
(0 0 0.0192002)
(0 0 0.0192069)
(0 0 0.0192104)
(0 0 0.0192104)
(0 0 0.0192072)
(0 0 0.0192006)
(0 0 0.0191907)
(0 0 0.0191775)
(0 0 0.019161)
(0 0 0.0191412)
(0 0 0.0191181)
(0 0 0.0190919)
(0 0 0.0190624)
(0 0 0.0190297)
(0 0 0.0189938)
(0 0 0.0189547)
(0 0 0.0189125)
(0 0 0.0188672)
(0 0 0.0188187)
(0 0 0.0187672)
(0 0 0.0187126)
(0 0 0.018655)
(0 0 0.0185944)
(0 0 0.0185308)
(0 0 0.0184642)
(0 0 0.0183947)
(0 0 0.0183223)
(0 0 0.018247)
(0 0 0.0181688)
(0 0 0.0180878)
(0 0 0.018004)
(0 0 0.0179174)
(0 0 0.0178281)
(0 0 0.017736)
(0 0 0.0176413)
(0 0 0.0175439)
(0 0 0.0174439)
(0 0 0.0173413)
(0 0 0.0172361)
(0 0 0.0171283)
(0 0 0.0170181)
(0 0 0.0169054)
(0 0 0.0167902)
(0 0 0.0166727)
(0 0 0.0165527)
(0 0 0.0164304)
(0 0 0.0163058)
(0 0 0.016179)
(0 0 0.0160498)
(0 0 0.0159185)
(0 0 0.015785)
(0 0 0.0156493)
(0 0 0.0155116)
(0 0 0.0153717)
(0 0 0.0152298)
(0 0 0.0150859)
(0 0 0.0149401)
(0 0 0.0147923)
(0 0 0.0146426)
(0 0 0.014491)
(0 0 0.0143377)
(0 0 0.0141825)
(0 0 0.0140255)
(0 0 0.0138669)
(0 0 0.0137065)
(0 0 0.0135445)
(0 0 0.0133809)
(0 0 0.0132157)
(0 0 0.0130489)
(0 0 0.0128806)
(0 0 0.0127109)
(0 0 0.0125397)
(0 0 0.0123671)
(0 0 0.0121931)
(0 0 0.0120178)
(0 0 0.0118412)
(0 0 0.0116633)
(0 0 0.0114841)
(0 0 0.0113038)
(0 0 0.0111222)