/*--------------------------------*- C++ -*----------------------------------*\
| =========                 |                                                 |
| \\      /  F ield         | OpenFOAM: The Open Source CFD Toolbox           |
|  \\    /   O peration     | Version:  v2012                                 |
|   \\  /    A nd           | Website:  www.openfoam.com                      |
|    \\/     M anipulation  |                                                 |
\*---------------------------------------------------------------------------*/
FoamFile
{
    version     2.0;
    format      ascii;
    class       surfaceScalarField;
    location    "15.6";
    object      phi;
}
// * * * * * * * * * * * * * * * * * * * * * * * * * * * * * * * * * * * * * //

dimensions      [0 3 -1 0 0 0 0];
oriented        oriented;


internalField   nonuniform List<scalar> 
130560
(
3.37775e-06
-3.37775e-06
6.7557e-06
-3.37795e-06
1.0134e-05
-3.37834e-06
1.3513e-05
-3.37892e-06
1.68926e-05
-3.37968e-06
2.02733e-05
-3.38064e-06
2.36551e-05
-3.38178e-06
2.70382e-05
-3.38311e-06
3.04228e-05
-3.38462e-06
3.38091e-05
-3.3863e-06
3.71972e-05
-3.38815e-06
4.05874e-05
-3.39018e-06
4.39798e-05
-3.39236e-06
4.73745e-05
-3.3947e-06
5.07717e-05
-3.39719e-06
5.41715e-05
-3.39982e-06
5.75741e-05
-3.40259e-06
6.09796e-05
-3.40549e-06
6.43881e-05
-3.40851e-06
6.77997e-05
-3.41163e-06
7.12146e-05
-3.41486e-06
7.46327e-05
-3.41818e-06
7.80543e-05
-3.42158e-06
8.14794e-05
-3.42504e-06
8.49079e-05
-3.42857e-06
8.83401e-05
-3.43213e-06
9.17758e-05
-3.43573e-06
9.52151e-05
-3.43934e-06
9.86581e-05
-3.44296e-06
0.000102105
-3.44656e-06
0.000105555
-3.45014e-06
0.000109008
-3.45366e-06
0.000112466
-3.45713e-06
0.000115926
-3.46051e-06
0.00011939
-3.4638e-06
0.000122857
-3.46696e-06
0.000126327
-3.46999e-06
0.0001298
-3.47285e-06
0.000133275
-3.47553e-06
0.000136753
-3.47801e-06
0.000140234
-3.48026e-06
0.000143716
-3.48226e-06
0.0001472
-3.48398e-06
0.000150685
-3.4854e-06
0.000154172
-3.48649e-06
0.000157659
-3.48723e-06
0.000161146
-3.48758e-06
0.000164634
-3.48752e-06
0.000168121
-3.48702e-06
0.000171607
-3.48605e-06
0.000175092
-3.48458e-06
0.000178574
-3.48257e-06
0.000182054
-3.48e-06
0.000185531
-3.47683e-06
0.000189004
-3.47303e-06
0.000192473
-3.46857e-06
0.000195936
-3.46341e-06
0.000199394
-3.45751e-06
0.000202844
-3.45085e-06
0.000206288
-3.44338e-06
0.000209723
-3.43508e-06
0.000213149
-3.42589e-06
0.000216565
-3.4158e-06
0.000219969
-3.40476e-06
0.000223362
-3.39273e-06
0.000226742
-3.37968e-06
0.000230107
-3.36558e-06
0.000233458
-3.35038e-06
0.000236792
-3.33405e-06
0.000240108
-3.31655e-06
0.000243406
-3.29785e-06
0.000246684
-3.27792e-06
0.000249941
-3.25672e-06
0.000253175
-3.23421e-06
0.000256385
-3.21036e-06
0.00025957
-3.18515e-06
0.000262729
-3.15854e-06
0.00026586
-3.1305e-06
0.000268961
-3.10101e-06
0.000272031
-3.07003e-06
0.000275068
-3.03755e-06
0.000278072
-3.00353e-06
0.00028104
-2.96797e-06
0.00028397
-2.93082e-06
0.000286863
-2.89209e-06
0.000289714
-2.85175e-06
0.000292524
-2.80979e-06
0.00029529
-2.7662e-06
0.000298011
-2.72096e-06
0.000300685
-2.67409e-06
0.000303311
-2.62555e-06
0.000305886
-2.57537e-06
0.00030841
-2.52354e-06
0.00031088
-2.47006e-06
0.000313295
-2.41495e-06
0.000315653
-2.35821e-06
0.000317953
-2.29986e-06
0.000320193
-2.23991e-06
0.000322371
-2.17838e-06
0.000324486
-2.1153e-06
0.000326537
-2.0507e-06
0.000328522
-1.98459e-06
0.000330439
-1.91703e-06
0.000332287
-1.84803e-06
0.000334064
-1.77765e-06
0.00033577
-1.70592e-06
0.000337403
-1.63289e-06
0.000338962
-1.5586e-06
0.000340445
-1.48311e-06
0.000341851
-1.40647e-06
0.00034318
-1.32874e-06
0.00034443
-1.24998e-06
0.0003456
-1.17024e-06
0.00034669
-1.08959e-06
0.000347698
-1.0081e-06
0.000348624
-9.25837e-07
0.000349467
-8.42868e-07
0.000350226
-7.59264e-07
0.000350901
-6.75099e-07
0.000351492
-5.90447e-07
0.000351997
-5.05382e-07
0.000352417
-4.19982e-07
0.000352751
-3.34322e-07
0.000353
-2.4848e-07
0.000353162
-1.62533e-07
0.000353239
-7.65594e-08
0.000353229
9.36447e-09
0.000353134
9.51611e-08
0.000352954
1.80754e-07
0.000352688
2.66068e-07
0.000352336
3.51027e-07
0.000351901
4.35559e-07
0.000351381
5.1959e-07
0.000350778
6.0305e-07
0.000350092
6.8587e-07
0.000349324
7.67982e-07
0.000348475
8.49321e-07
0.000347545
9.29824e-07
0.000346536
1.00943e-06
0.000345448
1.08808e-06
0.000344282
1.16571e-06
0.00034304
1.24228e-06
0.000341722
1.31774e-06
0.00034033
1.39203e-06
0.000338865
1.4651e-06
0.000337328
1.53693e-06
0.000335721
1.60746e-06
0.000334044
1.67665e-06
0.000332299
1.74449e-06
0.000330488
1.81093e-06
0.000328613
1.87595e-06
0.000326673
1.93951e-06
0.000324671
2.00161e-06
0.000322609
2.06222e-06
0.000320488
2.12132e-06
0.000318309
2.1789e-06
0.000316074
2.23495e-06
0.000313785
2.28947e-06
0.000311442
2.34243e-06
0.000309048
2.39385e-06
0.000306605
2.44372e-06
0.000304112
2.49204e-06
0.000301574
2.53882e-06
0.00029899
2.58407e-06
0.000296362
2.62778e-06
0.000293692
2.66998e-06
0.000290981
2.71067e-06
0.000288231
2.74987e-06
0.000285444
2.78759e-06
0.00028262
2.82386e-06
0.000279761
2.85868e-06
0.000276869
2.89209e-06
0.000273945
2.92409e-06
0.00027099
2.95473e-06
0.000268006
2.98401e-06
0.000264994
3.01197e-06
0.000261956
3.03863e-06
0.000258892
3.06401e-06
0.000255803
3.08815e-06
0.000252692
3.11108e-06
0.00024956
3.13281e-06
0.000246406
3.15339e-06
0.000243233
3.17284e-06
0.000240042
3.19119e-06
0.000236834
3.20847e-06
0.000233609
3.22471e-06
0.000230369
3.23995e-06
0.000227115
3.25422e-06
0.000223847
3.26754e-06
0.000220567
3.27994e-06
0.000217276
3.29147e-06
0.000213974
3.30214e-06
0.000210662
3.31199e-06
0.000207341
3.32105e-06
0.000204011
3.32935e-06
0.000200674
3.33693e-06
0.000197331
3.3438e-06
0.000193981
3.35e-06
0.000190625
3.35555e-06
0.000187265
3.3605e-06
0.0001839
3.36485e-06
0.000180531
3.36865e-06
0.000177159
3.37192e-06
0.000173784
3.37469e-06
0.000170408
3.37697e-06
0.000167029
3.37881e-06
0.000163648
3.38021e-06
0.000160267
3.38121e-06
0.000156885
3.38184e-06
0.000153503
3.38211e-06
0.000150121
3.38204e-06
0.00014674
3.38167e-06
0.000143359
3.38101e-06
0.000139979
3.38008e-06
0.0001366
3.3789e-06
0.000133222
3.3775e-06
0.000129846
3.37589e-06
0.000126472
3.37409e-06
0.0001231
3.37212e-06
0.00011973
3.37e-06
0.000116362
3.36774e-06
0.000112997
3.36537e-06
0.000109634
3.36289e-06
0.000106274
3.36032e-06
0.000102916
3.35769e-06
9.9561e-05
3.35499e-06
9.62088e-05
3.35226e-06
9.28593e-05
3.34949e-06
8.95126e-05
3.3467e-06
8.61687e-05
3.34391e-06
8.28275e-05
3.34113e-06
7.94892e-05
3.33836e-06
7.61536e-05
3.33563e-06
7.28206e-05
3.33293e-06
6.94904e-05
3.33028e-06
6.61627e-05
3.32769e-06
6.28375e-05
3.32516e-06
5.95148e-05
3.32271e-06
5.61944e-05
3.32035e-06
5.28764e-05
3.31807e-06
4.95605e-05
3.3159e-06
4.62466e-05
3.31383e-06
4.29348e-05
3.31186e-06
3.96248e-05
3.31002e-06
3.63165e-05
3.3083e-06
3.30098e-05
3.3067e-06
2.97045e-05
3.30524e-06
2.64006e-05
3.30391e-06
2.30979e-05
3.30272e-06
1.97962e-05
3.30167e-06
1.64955e-05
3.30076e-06
1.31955e-05
3.3e-06
9.89607e-06
3.2994e-06
6.59713e-06
3.29894e-06
3.29849e-06
3.29864e-06
3.29849e-06
3.37757e-06
-6.75533e-06
6.75534e-06
-6.75572e-06
1.01335e-05
-6.75649e-06
1.35122e-05
-6.75765e-06
1.68917e-05
-6.75919e-06
2.02722e-05
-6.7611e-06
2.36538e-05
-6.76339e-06
2.70367e-05
-6.76604e-06
3.04212e-05
-6.76906e-06
3.38073e-05
-6.77243e-06
3.71953e-05
-6.77614e-06
4.05853e-05
-6.78019e-06
4.39775e-05
-6.78457e-06
4.73721e-05
-6.78925e-06
5.07691e-05
-6.79424e-06
5.41688e-05
-6.79952e-06
5.75713e-05
-6.80506e-06
6.09767e-05
-6.81087e-06
6.43851e-05
-6.81691e-06
6.77966e-05
-6.82317e-06
7.12114e-05
-6.82964e-06
7.46295e-05
-6.83628e-06
7.8051e-05
-6.84309e-06
8.1476e-05
-6.85003e-06
8.49045e-05
-6.85709e-06
8.83366e-05
-6.86424e-06
9.17723e-05
-6.87145e-06
9.52117e-05
-6.87869e-06
9.86547e-05
-6.88594e-06
0.000102101
-6.89316e-06
0.000105551
-6.90032e-06
0.000109005
-6.90739e-06
0.000112462
-6.91434e-06
0.000115923
-6.92113e-06
0.000119387
-6.92772e-06
0.000122854
-6.93407e-06
0.000126324
-6.94014e-06
0.000129797
-6.94589e-06
0.000133273
-6.95128e-06
0.000136751
-6.95626e-06
0.000140232
-6.96078e-06
0.000143714
-6.9648e-06
0.000147199
-6.96827e-06
0.000150684
-6.97114e-06
0.000154171
-6.97334e-06
0.000157659
-6.97484e-06
0.000161147
-6.97558e-06
0.000164635
-6.97549e-06
0.000168122
-6.97451e-06
0.000171609
-6.9726e-06
0.000175094
-6.96969e-06
0.000178577
-6.9657e-06
0.000182058
-6.96059e-06
0.000185535
-6.95429e-06
0.000189009
-6.94673e-06
0.000192478
-6.93784e-06
0.000195942
-6.92755e-06
0.0001994
-6.91579e-06
0.000202852
-6.9025e-06
0.000206296
-6.8876e-06
0.000209732
-6.87103e-06
0.000213159
-6.8527e-06
0.000216576
-6.83255e-06
0.000219982
-6.8105e-06
0.000223375
-6.78649e-06
0.000226756
-6.76043e-06
0.000230123
-6.73225e-06
0.000233474
-6.70189e-06
0.000236809
-6.66926e-06
0.000240127
-6.6343e-06
0.000243426
-6.59694e-06
0.000246706
-6.55711e-06
0.000249964
-6.51473e-06
0.000253199
-6.46975e-06
0.000256411
-6.42209e-06
0.000259597
-6.3717e-06
0.000262757
-6.31851e-06
0.000265889
-6.26246e-06
0.000268992
-6.2035e-06
0.000272063
-6.14157e-06
0.000275102
-6.07663e-06
0.000278107
-6.00862e-06
0.000281077
-5.9375e-06
0.000284009
-5.86323e-06
0.000286903
-5.78578e-06
0.000289756
-5.70512e-06
0.000292568
-5.62121e-06
0.000295336
-5.53403e-06
0.000298058
-5.44357e-06
0.000300734
-5.34982e-06
0.000303361
-5.25276e-06
0.000305938
-5.15239e-06
0.000308463
-5.04872e-06
0.000310935
-4.94176e-06
0.000313352
-4.83152e-06
0.000315712
-4.71803e-06
0.000318013
-4.6013e-06
0.000320254
-4.48138e-06
0.000322434
-4.35831e-06
0.000324551
-4.23212e-06
0.000326603
-4.10288e-06
0.000328589
-3.97065e-06
0.000330508
-3.83548e-06
0.000332357
-3.69745e-06
0.000334136
-3.55664e-06
0.000335844
-3.41314e-06
0.000337478
-3.26702e-06
0.000339037
-3.1184e-06
0.000340522
-2.96736e-06
0.000341929
-2.81403e-06
0.000343259
-2.65851e-06
0.00034451
-2.50092e-06
0.000345681
-2.34138e-06
0.000346772
-2.18002e-06
0.00034778
-2.01697e-06
0.000348707
-1.85237e-06
0.00034955
-1.68636e-06
0.00035031
-1.51908e-06
0.000350986
-1.35068e-06
0.000351577
-1.1813e-06
0.000352082
-1.01109e-06
0.000352503
-8.40217e-07
0.000352837
-6.6882e-07
0.000353086
-4.97058e-07
0.000353248
-3.25088e-07
0.000353325
-1.53062e-07
0.000353315
1.88625e-08
0.00035322
1.90532e-07
0.000353039
3.61794e-07
0.000352772
5.32496e-07
0.000352421
7.02488e-07
0.000351985
8.71623e-07
0.000351465
1.03976e-06
0.000350861
1.20675e-06
0.000350174
1.37245e-06
0.000349406
1.53674e-06
0.000348556
1.69948e-06
0.000347625
1.86055e-06
0.000346614
2.01982e-06
0.000345525
2.17717e-06
0.000344359
2.3325e-06
0.000343115
2.48569e-06
0.000341796
2.63665e-06
0.000340403
2.78527e-06
0.000338937
2.93146e-06
0.000337398
3.07515e-06
0.00033579
3.21625e-06
0.000334112
3.35468e-06
0.000332366
3.49038e-06
0.000330553
3.62329e-06
0.000328676
3.75335e-06
0.000326735
3.88051e-06
0.000324732
4.00472e-06
0.000322668
4.12595e-06
0.000320545
4.24417e-06
0.000318365
4.35934e-06
0.000316128
4.47145e-06
0.000313837
4.58048e-06
0.000311493
4.68642e-06
0.000309098
4.78925e-06
0.000306653
4.88899e-06
0.000304159
4.98563e-06
0.000301619
5.07919e-06
0.000299033
5.16966e-06
0.000296404
5.25708e-06
0.000293732
5.34146e-06
0.00029102
5.42283e-06
0.000288269
5.50121e-06
0.00028548
5.57664e-06
0.000282654
5.64915e-06
0.000279794
5.71878e-06
0.000276901
5.78557e-06
0.000273975
5.84957e-06
0.000271019
5.91081e-06
0.000268034
5.96935e-06
0.000265021
6.02524e-06
0.000261981
6.07853e-06
0.000258916
6.12927e-06
0.000255826
6.17752e-06
0.000252714
6.22334e-06
0.00024958
6.26678e-06
0.000246425
6.3079e-06
0.000243251
6.34677e-06
0.000240059
6.38344e-06
0.00023685
6.41798e-06
0.000233624
6.45043e-06
0.000230383
6.48088e-06
0.000227128
6.50938e-06
0.000223859
6.53599e-06
0.000220579
6.56077e-06
0.000217286
6.58378e-06
0.000213983
6.6051e-06
0.000210671
6.62477e-06
0.000207349
6.64286e-06
0.000204019
6.65944e-06
0.000200681
6.67455e-06
0.000197337
6.68826e-06
0.000193986
6.70063e-06
0.00019063
6.71172e-06
0.000187269
6.72158e-06
0.000183903
6.73026e-06
0.000180534
6.73784e-06
0.000177162
6.74435e-06
0.000173787
6.74985e-06
0.000170409
6.75439e-06
0.00016703
6.75804e-06
0.000163649
6.76082e-06
0.000160268
6.76281e-06
0.000156886
6.76403e-06
0.000153503
6.76454e-06
0.000150121
6.76439e-06
0.000146739
6.76362e-06
0.000143357
6.76228e-06
0.000139977
6.7604e-06
0.000136598
6.75802e-06
0.00013322
6.7552e-06
0.000129844
6.75196e-06
0.00012647
6.74834e-06
0.000123098
6.74439e-06
0.000119728
6.74013e-06
0.00011636
6.7356e-06
0.000112994
6.73083e-06
0.000109631
6.72586e-06
0.000106271
6.72072e-06
0.000102913
6.71543e-06
9.95582e-05
6.71003e-06
9.62059e-05
6.70454e-06
9.28564e-05
6.69899e-06
8.95097e-05
6.69341e-06
8.61658e-05
6.68781e-06
8.28247e-05
6.68224e-06
7.94863e-05
6.67669e-06
7.61507e-05
6.67121e-06
7.28179e-05
6.6658e-06
6.94877e-05
6.66049e-06
6.616e-05
6.6553e-06
6.2835e-05
6.65024e-06
5.95123e-05
6.64534e-06
5.61921e-05
6.6406e-06
5.28741e-05
6.63605e-06
4.95583e-05
6.63169e-06
4.62446e-05
6.62754e-06
4.29329e-05
6.62361e-06
3.9623e-05
6.61991e-06
3.63148e-05
6.61646e-06
3.30082e-05
6.61327e-06
2.97032e-05
6.61033e-06
2.63994e-05
6.60767e-06
2.30968e-05
6.60529e-06
1.97953e-05
6.60319e-06
1.64947e-05
6.60137e-06
1.31948e-05
6.59986e-06
9.8956e-06
6.59864e-06
6.59682e-06
6.59773e-06
3.29833e-06
6.59712e-06
6.59682e-06
3.37718e-06
-1.01325e-05
6.75456e-06
-1.01331e-05
1.01323e-05
-1.01343e-05
1.35107e-05
-1.0136e-05
1.68898e-05
-1.01383e-05
2.02699e-05
-1.01412e-05
2.36511e-05
-1.01446e-05
2.70337e-05
-1.01486e-05
3.04178e-05
-1.01531e-05
3.38036e-05
-1.01582e-05
3.71912e-05
-1.01638e-05
4.05809e-05
-1.01699e-05
4.39728e-05
-1.01765e-05
4.7367e-05
-1.01835e-05
5.07638e-05
-1.0191e-05
5.41632e-05
-1.01989e-05
5.75654e-05
-1.02073e-05
6.09706e-05
-1.0216e-05
6.43788e-05
-1.02251e-05
6.77901e-05
-1.02345e-05
7.12047e-05
-1.02442e-05
7.46226e-05
-1.02542e-05
7.8044e-05
-1.02645e-05
8.14689e-05
-1.02749e-05
8.48973e-05
-1.02855e-05
8.83293e-05
-1.02963e-05
9.1765e-05
-1.03071e-05
9.52044e-05
-1.0318e-05
9.86474e-05
-1.03289e-05
0.000102094
-1.03398e-05
0.000105544
-1.03506e-05
0.000108998
-1.03612e-05
0.000112456
-1.03717e-05
0.000115916
-1.03819e-05
0.00011938
-1.03919e-05
0.000122848
-1.04014e-05
0.000126318
-1.04106e-05
0.000129792
-1.04193e-05
0.000133268
-1.04274e-05
0.000136747
-1.0435e-05
0.000140228
-1.04418e-05
0.000143711
-1.04479e-05
0.000147196
-1.04532e-05
0.000150682
-1.04575e-05
0.00015417
-1.04609e-05
0.000157658
-1.04632e-05
0.000161147
-1.04644e-05
0.000164636
-1.04643e-05
0.000168124
-1.04629e-05
0.000171612
-1.04602e-05
0.000175098
-1.04559e-05
0.000178582
-1.045e-05
0.000182064
-1.04424e-05
0.000185543
-1.0433e-05
0.000189018
-1.04218e-05
0.000192488
-1.04085e-05
0.000195954
-1.03932e-05
0.000199414
-1.03756e-05
0.000202867
-1.03558e-05
0.000206313
-1.03335e-05
0.00020975
-1.03087e-05
0.000213179
-1.02813e-05
0.000216598
-1.02512e-05
0.000220005
-1.02182e-05
0.000223401
-1.01823e-05
0.000226784
-1.01433e-05
0.000230153
-1.01011e-05
0.000233507
-1.00557e-05
0.000236844
-1.00068e-05
0.000240164
-9.95446e-06
0.000243466
-9.8985e-06
0.000246748
-9.83884e-06
0.000250008
-9.77536e-06
0.000253247
-9.70797e-06
0.000256461
-9.63656e-06
0.00025965
-9.56105e-06
0.000262813
-9.48134e-06
0.000265948
-9.39733e-06
0.000269054
-9.30896e-06
0.000272128
-9.21613e-06
0.00027517
-9.11877e-06
0.000278178
-9.01681e-06
0.000281151
-8.91019e-06
0.000284087
-8.79883e-06
0.000286984
-8.6827e-06
0.00028984
-8.56173e-06
0.000292655
-8.43589e-06
0.000295426
-8.30515e-06
0.000298152
-8.16948e-06
0.000300831
-8.02885e-06
0.000303462
-7.88327e-06
0.000306042
-7.73271e-06
0.00030857
-7.5772e-06
0.000311045
-7.41674e-06
0.000313465
-7.25135e-06
0.000315828
-7.08107e-06
0.000318133
-6.90595e-06
0.000320377
-6.72602e-06
0.000322561
-6.54135e-06
0.00032468
-6.352e-06
0.000326736
-6.15807e-06
0.000328725
-5.95963e-06
0.000330646
-5.75679e-06
0.000332498
-5.54965e-06
0.00033428
-5.33833e-06
0.00033599
-5.12296e-06
0.000337626
-4.90367e-06
0.000339188
-4.68061e-06
0.000340675
-4.45392e-06
0.000342085
-4.22378e-06
0.000343417
-3.99035e-06
0.00034467
-3.75381e-06
0.000345842
-3.51434e-06
0.000346935
-3.27214e-06
0.000347945
-3.0274e-06
0.000348873
-2.78033e-06
0.000349718
-2.53113e-06
0.000350479
-2.28003e-06
0.000351155
-2.02724e-06
0.000351747
-1.77298e-06
0.000352253
-1.51748e-06
0.000352674
-1.26097e-06
0.000353009
-1.00369e-06
0.000353258
-7.45849e-07
0.00035342
-4.87699e-07
0.000353497
-2.29467e-07
0.000353487
2.86126e-08
0.000353391
2.86309e-07
0.00035321
5.43391e-07
0.000352942
7.99631e-07
0.00035259
1.0548e-06
0.000352153
1.30869e-06
0.000351632
1.56107e-06
0.000351027
1.81172e-06
0.000350339
2.06045e-06
0.000349569
2.30705e-06
0.000348717
2.55132e-06
0.000347784
2.79307e-06
0.000346772
3.03212e-06
0.000345681
3.2683e-06
0.000344512
3.50142e-06
0.000343266
3.73134e-06
0.000341945
3.95789e-06
0.000340549
4.18093e-06
0.00033908
4.40033e-06
0.00033754
4.61596e-06
0.000335928
4.8277e-06
0.000334247
5.03543e-06
0.000332499
5.23906e-06
0.000330683
5.43849e-06
0.000328803
5.63364e-06
0.000326859
5.82444e-06
0.000324853
6.01081e-06
0.000322786
6.1927e-06
0.000320661
6.37006e-06
0.000318477
6.54285e-06
0.000316237
6.71103e-06
0.000313943
6.87459e-06
0.000311596
7.0335e-06
0.000309198
7.18776e-06
0.000306749
7.33736e-06
0.000304253
7.48231e-06
0.000301709
7.62262e-06
0.000299121
7.75832e-06
0.000296488
7.88942e-06
0.000293814
8.01596e-06
0.000291099
8.13798e-06
0.000288344
8.25551e-06
0.000285552
8.36861e-06
0.000282724
8.47733e-06
0.000279861
8.58172e-06
0.000276965
8.68185e-06
0.000274037
8.77779e-06
0.000271078
8.86959e-06
0.00026809
8.95734e-06
0.000265074
9.04111e-06
0.000262032
9.12097e-06
0.000258964
9.19702e-06
0.000255872
9.26933e-06
0.000252757
9.33798e-06
0.000249621
9.40307e-06
0.000246464
9.46468e-06
0.000243288
9.5229e-06
0.000240094
9.57783e-06
0.000236882
9.62956e-06
0.000233655
9.67817e-06
0.000230412
9.72376e-06
0.000227155
9.76643e-06
0.000223884
9.80626e-06
0.000220602
9.84336e-06
0.000217308
9.8778e-06
0.000214003
9.9097e-06
0.000210689
9.93913e-06
0.000207365
9.9662e-06
0.000204034
9.99098e-06
0.000200695
1.00136e-05
0.000197349
1.00341e-05
0.000193997
1.00526e-05
0.00019064
1.00691e-05
0.000187278
1.00838e-05
0.000183911
1.00968e-05
0.000180541
1.01081e-05
0.000177167
1.01178e-05
0.000173791
1.0126e-05
0.000170413
1.01327e-05
0.000167033
1.01381e-05
0.000163651
1.01422e-05
0.000160269
1.01452e-05
0.000156886
1.01469e-05
0.000153503
1.01476e-05
0.00015012
1.01474e-05
0.000146737
1.01462e-05
0.000143356
1.01441e-05
0.000139975
1.01412e-05
0.000136595
1.01376e-05
0.000133217
1.01333e-05
0.000129841
1.01284e-05
0.000126466
1.01229e-05
0.000123094
1.0117e-05
0.000119723
1.01105e-05
0.000116355
1.01037e-05
0.000112989
1.00965e-05
0.000109626
1.0089e-05
0.000106266
1.00813e-05
0.000102908
1.00733e-05
9.95527e-05
1.00652e-05
9.62004e-05
1.00569e-05
9.28508e-05
1.00485e-05
8.95041e-05
1.00401e-05
8.61602e-05
1.00317e-05
8.28192e-05
1.00233e-05
7.94809e-05
1.0015e-05
7.61454e-05
1.00067e-05
7.28126e-05
9.99858e-06
6.94825e-05
9.99059e-06
6.6155e-05
9.98278e-06
6.28301e-05
9.97518e-06
5.95076e-05
9.9678e-06
5.61876e-05
9.96067e-06
5.28698e-05
9.95382e-06
4.95542e-05
9.94727e-06
4.62407e-05
9.94103e-06
4.29292e-05
9.93512e-06
3.96195e-05
9.92957e-06
3.63116e-05
9.92438e-06
3.30053e-05
9.91957e-06
2.97005e-05
9.91516e-06
2.6397e-05
9.91116e-06
2.30947e-05
9.90757e-06
1.97935e-05
9.90441e-06
1.64932e-05
9.90169e-06
1.31936e-05
9.89941e-06
9.89469e-06
9.89758e-06
6.5962e-06
9.89621e-06
3.29803e-06
9.8953e-06
9.89485e-06
3.37659e-06
-1.35091e-05
6.75339e-06
-1.35099e-05
1.01306e-05
-1.35114e-05
1.35083e-05
-1.35138e-05
1.68869e-05
-1.35169e-05
2.02664e-05
-1.35207e-05
2.36471e-05
-1.35253e-05
2.70291e-05
-1.35306e-05
3.04127e-05
-1.35367e-05
3.37979e-05
-1.35435e-05
3.71851e-05
-1.35509e-05
4.05743e-05
-1.35591e-05
4.39657e-05
-1.35679e-05
4.73595e-05
-1.35773e-05
5.07558e-05
-1.35873e-05
5.41548e-05
-1.35979e-05
5.75566e-05
-1.36091e-05
6.09614e-05
-1.36208e-05
6.43693e-05
-1.36329e-05
6.77803e-05
-1.36455e-05
7.11946e-05
-1.36585e-05
7.46123e-05
-1.36719e-05
7.80334e-05
-1.36856e-05
8.14581e-05
-1.36996e-05
8.48864e-05
-1.37138e-05
8.83184e-05
-1.37282e-05
9.1754e-05
-1.37428e-05
9.51933e-05
-1.37574e-05
9.86364e-05
-1.3772e-05
0.000102083
-1.37865e-05
0.000105534
-1.3801e-05
0.000108988
-1.38153e-05
0.000112445
-1.38293e-05
0.000115906
-1.38431e-05
0.000119371
-1.38564e-05
0.000122839
-1.38692e-05
0.00012631
-1.38816e-05
0.000129783
-1.38932e-05
0.00013326
-1.39042e-05
0.00013674
-1.39143e-05
0.000140221
-1.39236e-05
0.000143705
-1.39318e-05
0.000147191
-1.3939e-05
0.000150678
-1.39449e-05
0.000154167
-1.39495e-05
0.000157657
-1.39527e-05
0.000161147
-1.39544e-05
0.000164637
-1.39545e-05
0.000168127
-1.39528e-05
0.000171616
-1.39492e-05
0.000175103
-1.39436e-05
0.000178589
-1.39359e-05
0.000182073
-1.3926e-05
0.000185554
-1.39136e-05
0.000189031
-1.38988e-05
0.000192503
-1.38813e-05
0.000195971
-1.3861e-05
0.000199433
-1.38377e-05
0.000202889
-1.38114e-05
0.000206337
-1.37819e-05
0.000209778
-1.37491e-05
0.000213209
-1.37127e-05
0.000216631
-1.36727e-05
0.000220041
-1.36289e-05
0.00022344
-1.35811e-05
0.000226826
-1.35293e-05
0.000230198
-1.34733e-05
0.000233555
-1.34128e-05
0.000236897
-1.33479e-05
0.00024022
-1.32782e-05
0.000243526
-1.32038e-05
0.000246811
-1.31244e-05
0.000250076
-1.30399e-05
0.000253318
-1.29502e-05
0.000256536
-1.28551e-05
0.00025973
-1.27546e-05
0.000262897
-1.26485e-05
0.000266036
-1.25366e-05
0.000269146
-1.24189e-05
0.000272225
-1.22952e-05
0.000275272
-1.21655e-05
0.000278285
-1.20297e-05
0.000281262
-1.18876e-05
0.000284203
-1.17392e-05
0.000287104
-1.15844e-05
0.000289966
-1.14232e-05
0.000292786
-1.12555e-05
0.000295562
-1.10812e-05
0.000298292
-1.09003e-05
0.000300976
-1.07129e-05
0.000303612
-1.05187e-05
0.000306197
-1.0318e-05
0.000308731
-1.01106e-05
0.000311211
-9.89664e-06
0.000313635
-9.67608e-06
0.000316003
-9.44898e-06
0.000318313
-9.21539e-06
0.000320562
-8.9754e-06
0.00032275
-8.72906e-06
0.000324874
-8.47648e-06
0.000326934
-8.21777e-06
0.000328927
-7.95303e-06
0.000330853
-7.68241e-06
0.000332709
-7.40604e-06
0.000334495
-7.12408e-06
0.000336209
-6.83671e-06
0.000337849
-6.5441e-06
0.000339415
-6.24644e-06
0.000340905
-5.94394e-06
0.000342318
-5.63682e-06
0.000343653
-5.32531e-06
0.000344909
-5.00963e-06
0.000346085
-4.69004e-06
0.000347179
-4.3668e-06
0.000348192
-4.04016e-06
0.000349122
-3.7104e-06
0.000349969
-3.37781e-06
0.000350731
-3.04267e-06
0.000351409
-2.70527e-06
0.000352002
-2.3659e-06
0.00035251
-2.02489e-06
0.000352931
-1.68252e-06
0.000353267
-1.3391e-06
0.000353516
-9.94959e-07
0.000353679
-6.50396e-07
0.000353755
-3.05725e-07
0.000353745
3.87422e-08
0.000353648
3.82695e-07
0.000353466
7.25825e-07
0.000353198
1.06783e-06
0.000352844
1.4084e-06
0.000352406
1.74725e-06
0.000351882
2.08409e-06
0.000351276
2.41862e-06
0.000350585
2.75058e-06
0.000349813
3.07968e-06
0.000348958
3.40567e-06
0.000348023
3.72829e-06
0.000347008
4.0473e-06
0.000345914
4.36246e-06
0.000344742
4.67354e-06
0.000343493
4.98034e-06
0.000342168
5.28263e-06
0.000340769
5.58024e-06
0.000339296
5.87297e-06
0.000337751
6.16066e-06
0.000336136
6.44315e-06
0.000334451
6.72029e-06
0.000332698
6.99194e-06
0.000330879
7.25798e-06
0.000328994
7.5183e-06
0.000327046
7.77279e-06
0.000325035
8.02138e-06
0.000322964
8.26397e-06
0.000320833
8.50051e-06
0.000318645
8.73095e-06
0.000316401
8.95523e-06
0.000314102
9.17334e-06
0.000311751
9.38523e-06
0.000309347
9.59091e-06
0.000306894
9.79037e-06
0.000304393
9.98362e-06
0.000301845
1.01707e-05
0.000299252
1.03516e-05
0.000296615
1.05263e-05
0.000293936
1.0695e-05
0.000291216
1.08576e-05
0.000288458
1.10142e-05
0.000285661
1.1165e-05
0.000282829
1.13098e-05
0.000279962
1.14489e-05
0.000277061
1.15823e-05
0.000274129
1.17101e-05
0.000271166
1.18324e-05
0.000268174
1.19493e-05
0.000265154
1.20609e-05
0.000262108
1.21672e-05
0.000259036
1.22685e-05
0.000255941
1.23648e-05
0.000252823
1.24562e-05
0.000249683
1.25428e-05
0.000246523
1.26248e-05
0.000243343
1.27023e-05
0.000240146
1.27754e-05
0.000236931
1.28442e-05
0.0002337
1.29089e-05
0.000230455
1.29696e-05
0.000227195
1.30263e-05
0.000223922
1.30793e-05
0.000220636
1.31286e-05
0.00021734
1.31744e-05
0.000214033
1.32168e-05
0.000210716
1.32559e-05
0.00020739
1.32918e-05
0.000204057
1.33247e-05
0.000200716
1.33547e-05
0.000197368
1.33819e-05
0.000194014
1.34064e-05
0.000190655
1.34283e-05
0.000187291
1.34478e-05
0.000183922
1.3465e-05
0.000180551
1.34799e-05
0.000177176
1.34927e-05
0.000173798
1.35035e-05
0.000170418
1.35124e-05
0.000167037
1.35195e-05
0.000163654
1.35249e-05
0.000160271
1.35286e-05
0.000156887
1.35309e-05
0.000153503
1.35317e-05
0.000150119
1.35313e-05
0.000146736
1.35296e-05
0.000143353
1.35267e-05
0.000139971
1.35228e-05
0.000136591
1.35179e-05
0.000133212
1.35121e-05
0.000129835
1.35054e-05
0.00012646
1.3498e-05
0.000123087
1.349e-05
0.000119716
1.34813e-05
0.000116348
1.34721e-05
0.000112982
1.34625e-05
0.000109619
1.34524e-05
0.000106258
1.3442e-05
0.0001029
1.34313e-05
9.95445e-05
1.34204e-05
9.61921e-05
1.34093e-05
9.28425e-05
1.33981e-05
8.94958e-05
1.33869e-05
8.61519e-05
1.33756e-05
8.28109e-05
1.33643e-05
7.94727e-05
1.33532e-05
7.61373e-05
1.33421e-05
7.28047e-05
1.33312e-05
6.94748e-05
1.33205e-05
6.61475e-05
1.33101e-05
6.28228e-05
1.32999e-05
5.95006e-05
1.329e-05
5.61808e-05
1.32805e-05
5.28633e-05
1.32713e-05
4.9548e-05
1.32625e-05
4.62348e-05
1.32542e-05
4.29237e-05
1.32463e-05
3.96144e-05
1.32389e-05
3.63069e-05
1.32319e-05
3.30009e-05
1.32255e-05
2.96965e-05
1.32196e-05
2.63934e-05
1.32142e-05
2.30916e-05
1.32094e-05
1.97908e-05
1.32052e-05
1.64909e-05
1.32016e-05
1.31918e-05
1.31985e-05
9.89332e-06
1.31961e-05
6.59529e-06
1.31942e-05
3.29757e-06
1.3193e-05
1.31924e-05
3.37581e-06
-1.68849e-05
6.75182e-06
-1.68859e-05
1.01282e-05
-1.68878e-05
1.35052e-05
-1.68908e-05
1.6883e-05
-1.68946e-05
2.02618e-05
-1.68995e-05
2.36417e-05
-1.69052e-05
2.7023e-05
-1.69119e-05
3.04058e-05
-1.69195e-05
3.37904e-05
-1.6928e-05
3.71769e-05
-1.69374e-05
4.05654e-05
-1.69476e-05
4.39562e-05
-1.69587e-05
4.73494e-05
-1.69705e-05
5.07451e-05
-1.69831e-05
5.41436e-05
-1.69964e-05
5.75449e-05
-1.70104e-05
6.09492e-05
-1.70251e-05
6.43566e-05
-1.70403e-05
6.77672e-05
-1.70561e-05
7.11811e-05
-1.70725e-05
7.45985e-05
-1.70893e-05
7.80194e-05
-1.71065e-05
8.14438e-05
-1.71241e-05
8.48719e-05
-1.71419e-05
8.83037e-05
-1.716e-05
9.17393e-05
-1.71783e-05
9.51786e-05
-1.71967e-05
9.86217e-05
-1.7215e-05
0.000102069
-1.72334e-05
0.000105519
-1.72516e-05
0.000108973
-1.72696e-05
0.000112431
-1.72873e-05
0.000115893
-1.73045e-05
0.000119358
-1.73214e-05
0.000122826
-1.73376e-05
0.000126298
-1.73531e-05
0.000129772
-1.73679e-05
0.00013325
-1.73818e-05
0.00013673
-1.73946e-05
0.000140213
-1.74063e-05
0.000143698
-1.74168e-05
0.000147185
-1.74259e-05
0.000150674
-1.74336e-05
0.000154164
-1.74396e-05
0.000157655
-1.74438e-05
0.000161146
-1.74461e-05
0.000164638
-1.74464e-05
0.00016813
-1.74445e-05
0.000171621
-1.74403e-05
0.000175111
-1.74335e-05
0.000178599
-1.74241e-05
0.000182085
-1.74119e-05
0.000185568
-1.73967e-05
0.000189048
-1.73784e-05
0.000192524
-1.73568e-05
0.000195994
-1.73317e-05
0.000199459
-1.73029e-05
0.000202918
-1.72703e-05
0.00020637
-1.72337e-05
0.000209814
-1.71929e-05
0.000213249
-1.71477e-05
0.000216674
-1.7098e-05
0.000220089
-1.70435e-05
0.000223492
-1.69841e-05
0.000226882
-1.69196e-05
0.000230259
-1.68498e-05
0.00023362
-1.67745e-05
0.000236966
-1.66936e-05
0.000240295
-1.66068e-05
0.000243605
-1.6514e-05
0.000246895
-1.6415e-05
0.000250165
-1.63097e-05
0.000253413
-1.61978e-05
0.000256637
-1.60792e-05
0.000259836
-1.59538e-05
0.000263009
-1.58213e-05
0.000266154
-1.56817e-05
0.00026927
-1.55347e-05
0.000272355
-1.53804e-05
0.000275408
-1.52184e-05
0.000278427
-1.50488e-05
0.000281411
-1.48713e-05
0.000284357
-1.4686e-05
0.000287266
-1.44926e-05
0.000290134
-1.42912e-05
0.00029296
-1.40816e-05
0.000295742
-1.38639e-05
0.00029848
-1.36378e-05
0.00030117
-1.34035e-05
0.000303813
-1.31609e-05
0.000306405
-1.29099e-05
0.000308945
-1.26507e-05
0.000311431
-1.23831e-05
0.000313862
-1.21073e-05
0.000316237
-1.18234e-05
0.000318553
-1.15313e-05
0.000320808
-1.12311e-05
0.000323002
-1.0923e-05
0.000325133
-1.06071e-05
0.000327199
-1.02835e-05
0.000329198
-9.95232e-06
0.000331129
-9.61377e-06
0.000332991
-9.26802e-06
0.000334782
-8.91526e-06
0.000336501
-8.5557e-06
0.000338147
-8.18957e-06
0.000339718
-7.81712e-06
0.000341212
-7.43859e-06
0.00034263
-7.05427e-06
0.000343969
-6.66443e-06
0.000345228
-6.26937e-06
0.000346408
-5.8694e-06
0.000347506
-5.46485e-06
0.000348522
-5.05604e-06
0.000349455
-4.64333e-06
0.000350304
-4.22705e-06
0.000351069
-3.80757e-06
0.000351749
-3.38526e-06
0.000352343
-2.96049e-06
0.000352852
-2.53364e-06
0.000353275
-2.1051e-06
0.000353611
-1.67526e-06
0.00035386
-1.24449e-06
0.000354023
-8.13204e-07
0.000354099
-3.81782e-07
0.000354089
4.9382e-08
0.000353991
4.79899e-07
0.000353808
9.09383e-07
0.000353538
1.33745e-06
0.000353183
1.76372e-06
0.000352742
2.18783e-06
0.000352217
2.60941e-06
0.000351608
3.0281e-06
0.000350915
3.44355e-06
0.000350139
3.85542e-06
0.000349281
4.26339e-06
0.000348342
4.66712e-06
0.000347323
5.06633e-06
0.000346225
5.4607e-06
0.000345049
5.84996e-06
0.000343795
6.23383e-06
0.000342466
6.61206e-06
0.000341062
6.98441e-06
0.000339584
7.35065e-06
0.000338034
7.71056e-06
0.000336413
8.06395e-06
0.000334723
8.41063e-06
0.000332964
8.75042e-06
0.000331139
9.08318e-06
0.000329249
9.40877e-06
0.000327294
9.72705e-06
0.000325278
1.00379e-05
0.000323201
1.03413e-05
0.000321064
1.06371e-05
0.00031887
1.09252e-05
0.000316619
1.12056e-05
0.000314314
1.14783e-05
0.000311956
1.17432e-05
0.000309547
1.20003e-05
0.000307088
1.22496e-05
0.00030458
1.24911e-05
0.000302026
1.27249e-05
0.000299427
1.29509e-05
0.000296784
1.31693e-05
0.000294099
1.338e-05
0.000291373
1.35832e-05
0.000288608
1.37789e-05
0.000285806
1.39672e-05
0.000282968
1.41481e-05
0.000280095
1.43218e-05
0.000277189
1.44884e-05
0.000274251
1.4648e-05
0.000271283
1.48007e-05
0.000268286
1.49466e-05