/*--------------------------------*- C++ -*----------------------------------*\
| =========                 |                                                 |
| \\      /  F ield         | OpenFOAM: The Open Source CFD Toolbox           |
|  \\    /   O peration     | Version:  v2012                                 |
|   \\  /    A nd           | Website:  www.openfoam.com                      |
|    \\/     M anipulation  |                                                 |
\*---------------------------------------------------------------------------*/
FoamFile
{
    version     2.0;
    format      ascii;
    class       volScalarField;
    location    "15.6";
    object      Psi_z;
}
// * * * * * * * * * * * * * * * * * * * * * * * * * * * * * * * * * * * * * //

dimensions      [0 2 -1 0 0 0 0];


internalField   nonuniform List<scalar> 
65536
(
8.4302e-06
2.52912e-05
4.21537e-05
5.90185e-05
7.58867e-05
9.27592e-05
0.000109637
0.000126521
0.000143412
0.000160311
0.000177218
0.000194136
0.000211064
0.000228003
0.000244954
0.000261918
0.000278895
0.000295887
0.000312893
0.000329915
0.000346952
0.000364006
0.000381077
0.000398164
0.000415269
0.000432392
0.000449533
0.000466692
0.000483869
0.000501064
0.000518277
0.000535507
0.000552755
0.000570021
0.000587303
0.000604601
0.000621915
0.000639244
0.000656586
0.000673942
0.00069131
0.000708688
0.000726076
0.000743472
0.000760875
0.000778282
0.000795693
0.000813104
0.000830515
0.000847922
0.000865323
0.000882716
0.000900098
0.000917467
0.000934818
0.000952149
0.000969457
0.000986738
0.00100399
0.0010212
0.00103838
0.00105551
0.0010726
0.00108963
0.00110661
0.00112353
0.00114038
0.00115715
0.00117385
0.00119047
0.00120699
0.00122343
0.00123975
0.00125598
0.00127208
0.00128807
0.00130393
0.00131965
0.00133523
0.00135066
0.00136593
0.00138104
0.00139597
0.00141073
0.0014253
0.00143967
0.00145383
0.00146779
0.00148152
0.00149503
0.0015083
0.00152132
0.00153409
0.0015466
0.00155884
0.00157081
0.00158248
0.00159386
0.00160494
0.00161571
0.00162616
0.00163629
0.00164608
0.00165554
0.00166465
0.0016734
0.00168179
0.00168982
0.00169747
0.00170474
0.00171163
0.00171813
0.00172424
0.00172994
0.00173524
0.00174013
0.00174461
0.00174867
0.00175231
0.00175553
0.00175833
0.0017607
0.00176265
0.00176416
0.00176525
0.0017659
0.00176613
0.00176593
0.0017653
0.00176424
0.00176275
0.00176084
0.00175851
0.00175576
0.00175259
0.00174901
0.00174502
0.00174063
0.00173583
0.00173064
0.00172505
0.00171908
0.00171272
0.001706
0.0016989
0.00169144
0.00168362
0.00167545
0.00166693
0.00165808
0.0016489
0.0016394
0.00162958
0.00161945
0.00160902
0.0015983
0.00158729
0.001576
0.00156445
0.00155263
0.00154056
0.00152824
0.00151568
0.00150289
0.00148987
0.00147664
0.0014632
0.00144956
0.00143573
0.00142171
0.00140751
0.00139314
0.0013786
0.00136391
0.00134906
0.00133407
0.00131895
0.00130369
0.0012883
0.0012728
0.00125719
0.00124147
0.00122564
0.00120973
0.00119372
0.00117763
0.00116145
0.00114521
0.00112889
0.00111251
0.00109607
0.00107957
0.00106302
0.00104642
0.00102978
0.0010131
0.000996381
0.000979629
0.000962847
0.000946039
0.000929207
0.000912354
0.000895483
0.000878596
0.000861697
0.000844787
0.000827868
0.000810944
0.000794015
0.000777083
0.000760151
0.000743219
0.00072629
0.000709365
0.000692444
0.00067553
0.000658624
0.000641726
0.000624837
0.000607958
0.00059109
0.000574234
0.000557389
0.000540557
0.000523738
0.000506933
0.000490141
0.000473362
0.000456598
0.000439847
0.00042311
0.000406387
0.000389678
0.000372982
0.0003563
0.000339631
0.000322974
0.00030633
0.000289698
0.000273078
0.000256469
0.00023987
0.000223282
0.000206702
0.000190132
0.000173571
0.000157016
0.000140469
0.000123928
0.000107393
9.08628e-05
7.43366e-05
5.78138e-05
4.12937e-05
2.47754e-05
8.25836e-06
2.52904e-05
7.58726e-05
0.000126459
0.000177053
0.000227657
0.000278273
0.000328906
0.000379557
0.000430229
0.000480925
0.000531647
0.000582399
0.000633182
0.000683998
0.000734851
0.000785742
0.000836674
0.000887648
0.000938667
0.000989731
0.00104084
0.001092
0.00114322
0.00119448
0.00124579
0.00129716
0.00134858
0.00140006
0.00145159
0.00150318
0.00155482
0.00160651
0.00165825
0.00171005
0.0017619
0.00181379
0.00186573
0.00191772
0.00196975
0.00202182
0.00207392
0.00212606
0.00217823
0.00223042
0.00228263
0.00233485
0.00238708
0.00243932
0.00249155
0.00254378
0.00259598
0.00264817
0.00270031
0.00275242
0.00280448
0.00285648
0.0029084
0.00296025
0.003012
0.00306365
0.00311519
0.00316659
0.00321786
0.00326897
0.0033199
0.00337066
0.00342121
0.00347155
0.00352165
0.0035715
0.00362109
0.00367038
0.00371938
0.00376805
0.00381638
0.00386434
0.00391192
0.00395909
0.00400584
0.00405213
0.00409796
0.00414329
0.0041881
0.00423238
0.00427609
0.00431921
0.00436172
0.00440359
0.00444481
0.00448533
0.00452515
0.00456423
0.00460255
0.00464009
0.00467681
0.00471271
0.00474774
0.00478189
0.00481514
0.00484746
0.00487882
0.00490921
0.0049386
0.00496697
0.0049943
0.00502056
0.00504575
0.00506983
0.0050928
0.00511462
0.00513529
0.00515479
0.00517311
0.00519022
0.00520612
0.0052208
0.00523423
0.00524642
0.00525735
0.00526702
0.00527542
0.00528253
0.00528837
0.00529291
0.00529617
0.00529814
0.00529882
0.00529821
0.00529632
0.00529314
0.00528868
0.00528295
0.00527595
0.00526769
0.00525819
0.00524744
0.00523547
0.00522228
0.00520788
0.0051923
0.00517554
0.00515761
0.00513855
0.00511836
0.00509705
0.00507466
0.0050512
0.00502668
0.00500113
0.00497457
0.00494702
0.0049185
0.00488903
0.00485864
0.00482735
0.00479517
0.00476214
0.00472828
0.0046936
0.00465814
0.00462191
0.00458495
0.00454726
0.00450888
0.00446983
0.00443013
0.0043898
0.00434888
0.00430737
0.0042653
0.00422269
0.00417957
0.00413595
0.00409187
0.00404732
0.00400235
0.00395696
0.00391118
0.00386503
0.00381851
0.00377166
0.0037245
0.00367702
0.00362926
0.00358124
0.00353295
0.00348443
0.00343569
0.00338674
0.00333759
0.00328826
0.00323876
0.00318911
0.00313931
0.00308938
0.00303933
0.00298917
0.00293891
0.00288856
0.00283814
0.00278764
0.00273708
0.00268646
0.0026358
0.0025851
0.00253436
0.00248361
0.00243283
0.00238204
0.00233125
0.00228045
0.00222965
0.00217886
0.00212808
0.00207732
0.00202658
0.00197586
0.00192516
0.0018745
0.00182386
0.00177326
0.00172269
0.00167215
0.00162166
0.0015712
0.00152078
0.00147041
0.00142007
0.00136978
0.00131952
0.00126931
0.00121915
0.00116902
0.00111893
0.00106888
0.00101888
0.000968908
0.000918977
0.000869082
0.000819221
0.000769394
0.000719599
0.000669834
0.000620097
0.000570388
0.000520703
0.000471041
0.000421401
0.000371779
0.000322174
0.000272584
0.000223006
0.000173438
0.000123879
7.43251e-05
2.47747e-05
4.2149e-05
0.00012645
0.000210757
0.000295077
0.000379414
0.000463772
0.000548156
0.000632571
0.000717022
0.000801512
0.000886047
0.00097063
0.00105527
0.00113996
0.00122471
0.00130953
0.00139441
0.00147937
0.00156439
0.0016495
0.00173468
0.00181995
0.0019053
0.00199074
0.00207627
0.00216188
0.00224758
0.00233338
0.00241926
0.00250524
0.0025913
0.00267746
0.0027637
0.00285003
0.00293644
0.00302294
0.00310951
0.00319616
0.00328288
0.00336966
0.0034565
0.0035434
0.00363035
0.00371734
0.00380436
0.00389141
0.00397847
0.00406554
0.0041526
0.00423965
0.00432667
0.00441365
0.00450057
0.00458743
0.0046742
0.00476087
0.00484743
0.00493385
0.00502012
0.00510622
0.00519213
0.00527782
0.00536327
0.00544847
0.00553338
0.00561799
0.00570226
0.00578617
0.00586969
0.0059528
0.00603546
0.00611765
0.00619933
0.00628046
0.00636103
0.00644099
0.00652031
0.00659896
0.00667689
0.00675408
0.00683048
0.00690606
0.00698078
0.00705459
0.00712747
0.00719937
0.00727024
0.00734006
0.00740877
0.00747635
0.00754273
0.0076079
0.00767179
0.00773438
0.00779562
0.00785547
0.00791388
0.00797083
0.00802627
0.00808015
0.00813245
0.00818312
0.00823213
0.00827944
0.00832501
0.00836881
0.0084108
0.00845096
0.00848926
0.00852565
0.00856012
0.00859264
0.00862318
0.00865172
0.00867823
0.0087027
0.00872511
0.00874543
0.00876366
0.00877978
0.00879378
0.00880565
0.00881537
0.00882296
0.00882839
0.00883167
0.0088328
0.00883178
0.00882862
0.00882332
0.00881588
0.00880632
0.00879465
0.00878088
0.00876502
0.0087471
0.00872713
0.00870513
0.00868113
0.00865513
0.00862718
0.00859729
0.0085655
0.00853182
0.0084963
0.00845896
0.00841983
0.00837895
0.00833634
0.00829205
0.00824611
0.00819855
0.00814942
0.00809874
0.00804656
0.00799291
0.00793783
0.00788136
0.00782355
0.00776442
0.00770401
0.00764237
0.00757954
0.00751555
0.00745044
0.00738424
0.00731701
0.00724877
0.00717956
0.00710942
0.00703839
0.0069665
0.00689378
0.00682028
0.00674602
0.00667104
0.00659537
0.00651905
0.0064421
0.00636456
0.00628646
0.00620783
0.00612869
0.00604907
0.00596901
0.00588852
0.00580764
0.00572638
0.00564478
0.00556285
0.00548062
0.00539811
0.00531534
0.00523233
0.0051491
0.00506567
0.00498206
0.00489829
0.00481436
0.0047303
0.00464613
0.00456185
0.00447748
0.00439304
0.00430853
0.00422397
0.00413937
0.00405473
0.00397008
0.00388541
0.00380074
0.00371608
0.00363142
0.00354679
0.00346218
0.00337761
0.00329307
0.00320857
0.00312413
0.00303973
0.00295539
0.0028711
0.00278688
0.00270272
0.00261862
0.00253459
0.00245063
0.00236674
0.00228291
0.00219916
0.00211548
0.00203186
0.00194832
0.00186484
0.00178143
0.00169809
0.00161481
0.00153159
0.00144843
0.00136533
0.00128229
0.0011993
0.00111636
0.00103347
0.000950618
0.000867813
0.000785045
0.000702313
0.000619613
0.00053694
0.000454292
0.000371665
0.000289055
0.000206458
0.000123871
4.12898e-05
5.90053e-05
0.000177019
0.000295043
0.000413084
0.000531149
0.000649244
0.000767375
0.00088555
0.00100377
0.00112206
0.0012404
0.00135881
0.00147729
0.00159586
0.0017145
0.00183324
0.00195207
0.00207101
0.00219004
0.00230919
0.00242844
0.00254781
0.0026673
0.00278691
0.00290665
0.0030265
0.00314649
0.0032666
0.00338684
0.0035072
0.0036277
0.00374832
0.00386906
0.00398992
0.0041109
0.004232
0.00435321
0.00447452
0.00459593
0.00471744
0.00483903
0.0049607
0.00508243
0.00520423
0.00532607
0.00544795
0.00556985
0.00569176
0.00581366
0.00593555
0.00605739
0.00617918
0.0063009
0.00642252
0.00654402
0.00666539
0.00678659
0.00690761
0.00702841
0.00714898
0.00726927
0.00738927
0.00750894
0.00762825
0.00774716
0.00786565
0.00798367
0.00810118
0.00821815
0.00833455
0.00845031
0.00856542
0.00867981
0.00879345
0.00890629
0.00901828
0.00912938
0.00923954
0.0093487
0.00945681
0.00956382
0.00966969
0.00977435
0.00987775
0.00997983
0.0100805
0.0101798
0.0102776
0.0103739
0.0104685
0.0105615
0.0106528
0.0107423
0.01083
0.0109158
0.0109997
0.0110815
0.0111613
0.0112389
0.0113144
0.0113877
0.0114587
0.0115274
0.0115936
0.0116575
0.0117189
0.0117777
0.011834
0.0118876
0.0119386
0.0119869
0.0120325
0.0120753
0.0121152
0.0121524
0.0121867
0.0122181
0.0122465
0.0122721
0.0122947
0.0123143
0.0123309
0.0123445
0.0123551
0.0123628
0.0123674
0.0123689
0.0123675
0.0123631
0.0123556
0.0123452
0.0123318
0.0123154
0.0122961
0.0122739
0.0122488
0.0122208
0.01219
0.0121564
0.0121199
0.0120808
0.0120389
0.0119943
0.0119471
0.0118974
0.011845
0.0117902
0.0117329
0.0116732
0.0116112
0.0115468
0.0114802
0.0114113
0.0113403
0.0112672
0.0111921
0.0111149
0.0110358
0.0109548
0.010872
0.0107873
0.010701
0.010613
0.0105233
0.0104321
0.0103394
0.0102452
0.0101496
0.0100527
0.00995445
0.00985495
0.00975425
0.0096524
0.00954945
0.00944544
0.00934042
0.00923444
0.00912754
0.00901978
0.00891118
0.0088018
0.00869167
0.00858083
0.00846933
0.0083572
0.00824449
0.00813121
0.00801742
0.00790314
0.00778841
0.00767326
0.00755771
0.00744181
0.00732557
0.00720902
0.0070922
0.00697512
0.00685781
0.00674029
0.00662259
0.00650473
0.00638672
0.00626858
0.00615034
0.00603202
0.00591361
0.00579516
0.00567665
0.00555812
0.00543958
0.00532103
0.00520249
0.00508397
0.00496547
0.00484701
0.0047286
0.00461024
0.00449194
0.00437371
0.00425554
0.00413746
0.00401946
0.00390154
0.00378371
0.00366597
0.00354833
0.00343078
0.00331333
0.00319598
0.00307873
0.00296157
0.00284451
0.00272755
0.00261068
0.00249391
0.00237723
0.00226064
0.00214414
0.00202772
0.00191139
0.00179513
0.00167895
0.00156283
0.00144679
0.00133081
0.00121488
0.00109901
0.000983194
0.000867418
0.000751682
0.00063598
0.000520307
0.000404658
0.000289028
0.000173412
5.7803e-05
7.58581e-05
0.000227579
0.000379312
0.000531068
0.000682854
0.000834679
0.000986551
0.00113848
0.00129047
0.00144254
0.00159468
0.00174691
0.00189924
0.00205167
0.00220421
0.00235686
0.00250964
0.00266254
0.00281558
0.00296876
0.00312209
0.00327556
0.00342918
0.00358296
0.0037369
0.003891
0.00404527
0.00419969
0.00435429
0.00450904
0.00466396
0.00481905
0.00497429
0.00512969
0.00528525
0.00544095
0.0055968
0.00575278
0.0059089
0.00606513
0.00622148
0.00637792
0.00653446
0.00669107
0.00684774
0.00700446
0.00716122
0.00731798
0.00747474
0.00763148
0.00778817
0.00794479
0.00810131
0.00825772
0.00841398
0.00857006
0.00872594
0.00888157
0.00903694
0.009192
0.00934672
0.00950106
0.00965497
0.00980843
0.00996138
0.0101138
0.0102656
0.0104167
0.0105672
0.0107169
0.0108658
0.0110139
0.011161
0.0113072
0.0114524
0.0115965
0.0117394
0.0118811
0.0120215
0.0121606
0.0122983
0.0124345
0.0125692
0.0127022
0.0128336
0.0129631
0.0130909
0.0132167
0.0133406
0.0134624
0.0135821
0.0136995
0.0138147
0.0139275
0.0140379
0.0141458
0.0142512
0.0143538
0.0144538
0.014551
0.0146452
0.0147366
0.014825
0.0149103
0.0149924
0.0150714
0.0151472
0.0152196
0.0152886
0.0153543
0.0154164
0.0154751
0.0155301
0.0155816
0.0156294
0.0156735
0.0157139
0.0157506
0.0157835
0.0158125
0.0158378
0.0158591
0.0158767
0.0158903
0.0159001
0.015906
0.0159081
0.0159062
0.0159005
0.0158909
0.0158775
0.0158602
0.0158392
0.0158143
0.0157857
0.0157534
0.0157174
0.0156777
0.0156344
0.0155875
0.0155371
0.0154831
0.0154258
0.0153651
0.015301
0.0152336
0.0151631
0.0150893
0.0150125
0.0149326
0.0148498
0.014764
0.0146754
0.014584
0.01449
0.0143932
0.0142939
0.0141921
0.0140879
0.0139813
0.0138724
0.0137613
0.013648
0.0135327
0.0134153
0.013296
0.0131748
0.0130519
0.0129271
0.0128007
0.0126727
0.0125432
0.0124121
0.0122797
0.0121459
0.0120108
0.0118744
0.0117369
0.0115983
0.0114586
0.0113179
0.0111762
0.0110336
0.0108902
0.010746
0.010601
0.0104553
0.0103089
0.010162
0.0100144
0.00986629
0.00971768
0.00956861
0.00941911
0.00926923
0.00911898
0.00896841
0.00881754
0.00866641
0.00851504
0.00836347
0.00821171
0.00805979
0.00790774
0.00775558
0.00760332
0.00745099
0.00729861
0.00714619
0.00699375
0.00684131
0.00668888
0.00653648
0.00638411
0.0062318
0.00607954
0.00592735
0.00577524
0.00562322
0.00547128
0.00531945
0.00516773
0.00501612
0.00486462
0.00471324
0.00456198
0.00441084
0.00425983
0.00410895
0.00395819
0.00380757
0.00365706
0.00350669
0.00335643
0.0032063
0.00305629
0.00290639
0.00275661
0.00260693
0.00245736
0.00230789
0.00215852
0.00200924
0.00186005
0.00171094
0.0015619
0.00141293
0.00126403
0.00111519
0.00096639
0.000817639
0.000668925
0.000520243
0.000371585
0.000222944
7.43136e-05
9.27065e-05
0.000278125
0.000463559
0.000649021
0.000834519
0.00102007
0.00120567
0.00139134
0.0015771
0.00176294
0.00194887
0.00213492
0.00232108
0.00250737
0.00269379
0.00288036
0.00306707
0.00325395
0.00344099
0.00362819
0.00381558
0.00400315
0.0041909
0.00437885
0.00456699
0.00475534
0.00494388
0.00513262
0.00532157
0.00551072
0.00570007
0.00588962
0.00607937
0.00626931
0.00645945
0.00664976
0.00684025
0.00703092
0.00722174
0.00741271
0.00760382
0.00779505
0.0079864
0.00817784
0.00836936
0.00856095
0.00875257
0.00894421
0.00913585
0.00932746
0.00951901
0.00971049
0.00990185
0.0100931
0.0102841
0.0104749
0.0106655
0.0108558
0.0110458
0.0112354
0.0114245
0.0116133
0.0118015
0.0119891
0.0121761
0.0123625
0.0125481
0.012733
0.012917
0.0131001
0.0132822
0.0134633
0.0136432
0.013822
0.0139996
0.0141758
0.0143506
0.014524
0.0146957
0.0148659
0.0150343
0.0152009
0.0153656
0.0155284
0.015689
0.0158476
0.0160039
0.0161578
0.0163094
0.0164584
0.0166048
0.0167485
0.0168894
0.0170275
0.0171626
0.0172946
0.0174235
0.0175491
0.0176714
0.0177903
0.0179057
0.0180175
0.0181257
0.01823
0.0183306
0.0184273
0.0185199
0.0186086
0.0186931
0.0187734
0.0188495
0.0189212
0.0189886
0.0190516
0.0191101
0.0191641
0.0192136
0.0192584
0.0192986
0.0193342
0.0193651
0.0193913
0.0194127
0.0194294
0.0194414
0.0194486
0.0194511
0.0194488
0.0194418
0.0194301
0.0194136
0.0193925
0.0193667
0.0193363
0.0193013
0.0192617
0.0192176
0.019169
0.019116
0.0190586
0.0189968
0.0189308
0.0188606
0.0187863
0.0187079
0.0186254
0.0185391
0.0184488
0.0183548
0.0182571
0.0181557
0.0180507
0.0179423
0.0178305
0.0177153
0.017597
0.0174755
0.0173509
0.0172234
0.0170929
0.0169597
0.0168238
0.0166852
0.0165441
0.0164005
0.0162545
0.0161063
0.0159558
0.0158032
0.0156486
0.015492
0.0153335
0.0151733
0.0150113
0.0148476
0.0146823
0.0145156
0.0143474
0.0141778
0.014007
0.0138349
0.0136617
0.0134873
0.0133119
0.0131355
0.0129582
0.0127801
0.0126011
0.0124214
0.0122409
0.0120598
0.0118781
0.0116958
0.0115131
0.0113298
0.0111461
0.010962
0.0107775
0.0105928
0.0104077
0.0102224
0.0100369
0.00985114
0.00966525
0.00947923
0.0092931
0.00910688
0.0089206
0.00873427
0.00854793
0.00836159
0.00817526
0.00798896
0.00780271
0.00761652
0.00743041
0.00724438
0.00705845
0.00687263
0.00668693
0.00650134
0.00631589
0.00613058
0.0059454
0.00576038
0.0055755
0.00539078
0.00520621
0.0050218
0.00483754
0.00465344
0.00446949
0.0042857
0.00410206
0.00391857
0.00373523
0.00355202
0.00336896
0.00318604
0.00300324
0.00282056
0.00263801
0.00245557
0.00227323
0.00209099
0.00190885
0.00172679
0.00154481
0.0013629
0.00118105
0.00099926
0.000817513
0.000635804
0.000454124
0.000272466
9.08207e-05
0.00010955
0.000328655
0.00054778
0.000766936
0.000986137
0.00120539
0.00142472
0.00164413
0.00186363
0.00208324
0.00230296
0.00252281
0.0027428
0.00296294
0.00318324
0.00340371
0.00362435
0.00384518
0.00406621
0.00428745
0.00450889
0.00473055
0.00495243
0.00517454
0.00539689
0.00561947
0.00584229
0.00606534
0.00628865
0.00651219
0.00673597
0.00695999
0.00718425
0.00740874
0.00763346
0.00785839
0.00808354
0.00830889
0.00853443
0.00876015
0.00898604
0.00921207
0.00943825
0.00966454
0.00989092
0.0101174
0.0103439
0.0105704
0.010797
0.0110235
0.0112499
0.0114763
0.0117025
0.0119286
0.0121544
0.0123801
0.0126054
0.0128304
0.013055
0.0132791
0.0135028
0.013726
0.0139485
0.0141704
0.0143916
0.0146119
0.0148315
0.0150501
0.0152677
0.0154842
0.0156996
0.0159138
0.0161266
0.0163381
0.0165481
0.0167565
0.0169633
0.0171684
0.0173716
0.0175728
0.0177721
0.0179692
0.018164
0.0183566
0.0185467
0.0187342
0.0189192
0.0191013
0.0192806
0.019457
0.0196302
0.0198003
0.0199671
0.0201304
0.0202903
0.0204465
0.020599
0.0207477
0.0208925
0.0210332
0.0211698
0.0213021
0.0214301
0.0215536
0.0216727
0.0217871
0.0218968
0.0220017
0.0221017
0.0221968
0.0222868
0.0223718
0.0224515
0.0225261
0.0225953
0.0226593
0.0227178
0.0227709
0.0228185
0.0228606
0.0228971
0.0229281
0.0229535
0.0229733
0.0229874
0.0229959
0.0229989
0.0229962
0.0229878
0.0229739
0.0229544
0.0229294
0.0228989
0.0228628
0.0228214
0.0227745
0.0227222
0.0226647
0.0226019
0.022534
0.0224609
0.0223828
0.0222996
0.0222116
0.0221188
0.0220212
0.021919
0.0218121
0.0217008
0.0215851
0.0214651
0.0213409
0.0212126
0.0210802
0.0209439
0.0208039
0.0206601
0.0205126
0.0203617
0.0202074
0.0200497
0.0198888
0.0197249
0.0195579
0.019388
0.0192153
0.0190399
0.0188619
0.0186814
0.0184985
0.0183132
0.0181257
0.0179361
0.0177445
0.0175509
0.0173554
0.0171582
0.0169593
0.0167587
0.0165566
0.0163531
0.0161482
0.015942
0.0157346
0.015526
0.0153163
0.0151057
0.014894
0.0146815
0.0144681
0.014254
0.0140391
0.0138236
0.0136075
0.0133908
0.0131736
0.0129559
0.0127379
0.0125194
0.0123006
0.0120815
0.0118622
0.0116426
0.0114229
0.011203
0.010983
0.0107628
0.0105426
0.0103224
0.0101021
0.00988185
0.0096616
0.00944139
0.00922125
0.00900118
0.0087812
0.00856132
0.00834156
0.00812193
0.00790244
0.0076831
0.00746392
0.0072449
0.00702605
0.00680737
0.00658887
0.00637056
0.00615243
0.00593448
0.00571673
0.00549915
0.00528177
0.00506456
0.00484754
0.00463069
0.00441402
0.00419752
0.00398119
0.00376501
0.00354899
0.00333312
0.00311738
0.00290178
0.00268631
0.00247096
0.00225571
0.00204057
0.00182552
0.00161055
0.00139566
0.00118083
0.000966062
0.000751335
0.000536643
0.000321976
0.000107324
0.000126386
0.000379166
0.000631968
0.000884807
0.0011377
0.00139065
0.00164369
0.00189682
0.00215006
0.00240342
0.00265692
0.00291056
0.00316437
0.00341835
0.00367251
0.00392687
0.00418144
0.00443623
0.00469124
0.00494649
0.00520198
0.00545773
0.00571373
0.00597
0.00622654
0.00648336
0.00674045
0.00699783
0.00725548
0.00751342
0.00777163
0.00803013
0.0082889
0.00854794
0.00880725
0.00906681
0.00932662
0.00958666
0.00984694
0.0101074
0.0103681
0.010629
0.01089
0.0111511
0.0114124
0.0116738
0.0119352
0.0121967
0.0124581
0.0127196
0.012981
0.0132422
0.0135034
0.0137643
0.014025
0.0142855
0.0145456
0.0148053
0.0150646
0.0153234
0.0155817
0.0158393
0.0160962
0.0163524
0.0166078
0.0168622
0.0171157
0.0173681
0.0176194
0.0178695
0.0181182
0.0183656
0.0186114
0.0188556
0.0190982
0.0193389
0.0195778
0.0198146
0.0200493
0.0202818
0.020512
0.0207397
0.0209648
0.0211872
0.0214069
0.0216236
0.0218372
0.0220477
0.0222549
0.0224586
0.0226588
0.0228553
0.0230481
0.0232369
0.0234216
0.0236022
0.0237784
0.0239503
0.0241176
0.0242802
0.0244381
0.024591
0.0247389
0.0248818
0.0250193
0.0251516
0.0252784
0.0253996
0.0255153
0.0256252
0.0257292
0.0258274
0.0259197
0.0260058
0.0260859
0.0261598
0.0262274
0.0262888
0.0263438
0.0263925
0.0264347
0.0264705
0.0264998
0.0265227
0.026539
0.0265489
0.0265522
0.0265491
0.0265395
0.0265234
0.0265008
0.0264718
0.0264365
0.0263948
0.0263468
0.0262926
0.0262322
0.0261657
0.0260931
0.0260145
0.02593
0.0258396
0.0257435
0.0256418
0.0255344
0.0254216
0.0253034
0.0251799
0.0250512
0.0249175
0.0247788
0.0246352
0.0244868
0.0243339
0.0241764
0.0240145
0.0238483
0.0236779
0.0235035
0.0233251
0.0231429
0.022957
0.0227676
0.0225746
0.0223783
0.0221788
0.0219762
0.0217705
0.021562
0.0213506
0.0211366
0.0209201
0.0207011
0.0204797
0.0202561
0.0200303
0.0198025
0.0195727
0.0193411
0.0191077
0.0188727
0.0186361
0.018398
0.0181584
0.0179176
0.0176755
0.0174322
0.0171878
0.0169424
0.0166961
0.0164488
0.0162008
0.015952
0.0157024
0.0154523
0.0152016
0.0149503
0.0146986
0.0144464
0.0141938
0.013941
0.0136878
0.0134343
0.0131807
0.0129269
0.0126729
0.0124189
0.0121647
0.0119105
0.0116563
0.0114021
0.0111479
0.0108938
0.0106397
0.0103857
0.0101319
0.00987814
0.00962454
0.0093711
0.00911781
0.00886471
0.00861178
0.00835905
0.00810652
0.00785419
0.00760207
0.00735016
0.00709846
0.00684699
0.00659573
0.00634468
0.00609386
0.00584324
0.00559284
0.00534264
0.00509265
0.00484285
0.00459325
0.00434383
0.00409459
0.00384553
0.00359662
0.00334788
0.00309928
0.00285081
0.00260248
0.00235426
0.00210615
0.00185813
0.00161021
0.00136235
0.00111457
0.00086683
0.000619135
0.00037147
0.000123821
0.000143215
0.000429655
0.000716119
0.00100263
0.00128919
0.00157583
0.00186256
0.0021494
0.00243637
0.00272347
0.00301072
0.00329815
0.00358576
0.00387357
0.00416159
0.00444983
0.00473831
0.00502704
0.00531603
0.00560528
0.00589482
0.00618464
0.00647477
0.00676519
0.00705592
0.00734697
0.00763834
0.00793002
0.00822203
0.00851436
0.00880702
0.00909999
0.00939328
0.00968687
0.00998078
0.010275
0.0105695
0.0108642
0.0111592
0.0114545
0.01175
0.0120457
0.0123416
0.0126376
0.0129338
0.0132301
0.0135265
0.0138229
0.0141193
0.0144157
0.0147121
0.0150083
0.0153044
0.0156003
0.0158959
0.0161912
0.0164862
0.0167807
0.0170747
0.0173682
0.0176611
0.0179533
0.0182447
0.0185352
0.0188249
0.0191135
0.019401
0.0196874
0.0199724
0.0202561
0.0205383
0.0208189
0.0210978
0.0213749
0.02165
0.0219232
0.0221942
0.022463
0.0227293
0.0229931
0.0232543
0.0235127
0.0237682
0.0240207
0.02427
0.0245159
0.0247584
0.0249974
0.0252325
0.0254638
0.0256911
0.0259142
0.026133
0.0263473
0.0265571
0.0267621
0.0269622
0.0271574
0.0273473
0.027532
0.0277112
0.0278849
0.0280529
0.0282151
0.0283713
0.0285215
0.0286655
0.0288032
0.0289346
0.0290594
0.0291776
0.0292891
0.0293938
0.0294917
0.0295826
0.0296666
0.0297434
0.0298131
0.0298756
0.0299308
0.0299788
0.0300194
0.0300527
0.0300786
0.0300972
0.0301083
0.0301121
0.0301085
0.0300975
0.0300792
0.0300536
0.0300207
0.0299805
0.0299331
0.0298786
0.029817
0.0297483
0.0296727
0.0295902
0.0295009
0.0294049
0.0293023
0.0291931
0.0290775
0.0289556
0.0288274
0.0286932
0.0285529
0.0284067
0.0282548
0.0280973
0.0279342
0.0277657
0.027592
0.0274132
0.0272293
0.0270406
0.0268472
0.0266492
0.0264467
0.0262398
0.0260288
0.0258137
0.0255947
0.0253719
0.0251454
0.0249154
0.024682
0.0244453
0.0242055
0.0239626
0.0237169
0.0234683
0.0232171
0.0229634
0.0227072
0.0224487
0.0221881
0.0219253
0.0216605
0.0213939
0.0211254
0.0208553
0.0205836
0.0203104
0.0200358
0.0197598
0.0194826
0.0192043
0.0189249
0.0186445
0.0183632
0.018081
0.0177981
0.0175144
0.0172301
0.0169451
0.0166597
0.0163738
0.0160874
0.0158007
0.0155136
0.0152263
0.0149387
0.0146509
0.014363
0.014075
0.0137868
0.0134987
0.0132105
0.0129223
0.0126342
0.0123461
0.0120581
0.0117702
0.0114824
0.0111948
0.0109074
0.0106201
0.010333
0.0100461
0.00975945
0.009473
0.00918678
0.00890079
0.00861505
0.00832954
0.00804428
0.00775927
0.00747451
0.00719
0.00690574
0.00662172
0.00633794
0.00605439
0.00577108
0.005488
0.00520513
0.00492248
0.00464003
0.00435778
0.00407571
0.00379382
0.0035121
0.00323054
0.00294912
0.00266784
0.00238668
0.00210563
0.00182468
0.00154381
0.00126302
0.000982285
0.000701599
0.000420946
0.000140313
0.000160036
0.000480118
0.000800228
0.00112039
0.00144061
0.00176092
0.00208133
0.00240186
0.00272253
0.00304336
0.00336436
0.00368556
0.00400695
0.00432858
0.00465044
0.00497255
0.00529493
0.00561759
0.00594054
0.0062638
0.00658737
0.00691126
0.00723549
0.00756007
0.00788499
0.00821026
0.0085359
0.0088619
0.00918826
0.00951499
0.00984208
0.0101695
0.0104973
0.0108255
0.011154
0.0114829
0.011812
0.0121415
0.0124713
0.0128013
0.0131317
0.0134622
0.013793
0.0141239
0.0144551
0.0147863
0.0151177
0.0154491
0.0157805
0.0161119
0.0164433
0.0167745
0.0171056
0.0174365
0.0177671
0.0180973
0.0184272
0.0187566
0.0190854
0.0194137
0.0197412
0.020068
0.020394
0.020719
0.021043
0.0213659
0.0216875
0.0220079
0.0223268
0.0226441
0.0229599
0.0232738
0.0235859
0.023896
0.0242039
0.0245096
0.0248129
0.0251137
0.0254118
0.0257071
0.0259995
0.0262887
0.0265747
0.0268573
0.0271364
0.0274118
0.0276833
0.0279508
0.0282141
0.0284731
0.0287275
0.0289774
0.0292224
0.0294624
0.0296973
0.0299269
0.0301511
0.0303696
0.0305824
0.0307892
0.03099
0.0311845
0.0313727
0.0315544
0.0317294
0.0318976
0.032059
0.0322132
0.0323604
0.0325002
0.0326326
0.0327576
0.0328749
0.0329845
0.0330864
0.0331804
0.0332665
0.0333445
0.0334145
0.0334764
0.0335301
0.0335756
0.0336129
0.0336419
0.0336627
0.0336752
0.0336794
0.0336753
0.033663
0.0336424
0.0336137
0.0335767
0.0335317
0.0334786
0.0334174
0.0333483
0.0332714
0.0331866
0.0330942
0.0329941
0.0328865
0.0327715
0.0326491
0.0325196
0.0323829
0.0322393
0.0320889
0.0319317
0.031768
0.0315978
0.0314213
0.0312386
0.0310499
0.0308553
0.030655
0.0304491
0.0302378
0.0300211
0.0297993
0.0295726
0.029341
0.0291047
0.0288638
0.0286186
0.0283691
0.0281156
0.0278581
0.0275968
0.0273318
0.0270634
0.0267915
0.0265164
0.0262383
0.0259571
0.0256731
0.0253865
0.0250972
0.0248055
0.0245114
0.0242152
0.0239168
0.0236165
0.0233142
0.0230103
0.0227046
0.0223974
0.0220887
0.0217786
0.0214673
0.0211548
0.0208411
0.0205265
0.0202109
0.0198944
0.0195771
0.0192592
0.0189405
0.0186213
0.0183015
0.0179813
0.0176607
0.0173397
0.0170184
0.0166969
0.0163751
0.0160532
0.0157311
0.015409
0.0150868
0.0147646
0.0144425
0.0141203
0.0137983
0.0134763
0.0131545
0.0128329
0.0125113
0.01219
0.0118689
0.011548
0.0112273
0.0109069
0.0105867
0.0102668
0.00994716
0.00962778
0.00930868
0.00898986
0.00867131
0.00835305
0.00803507
0.00771737
0.00739995
0.0070828
0.00676591
0.00644929
0.00613292
0.0058168
0.00550092
0.00518527
0.00486984
0.00455462
0.0042396
0.00392477
0.00361012
0.00329563
0.0029813
0.0026671
0.00235302
0.00203906
0.00172519
0.00141141
0.00109769
0.000784029
0.000470403
0.000156798
0.000176847
0.000530553
0.00088429
0.00123808
0.00159194
0.0019459
0.00229997
0.00265418
0.00300854
0.00336308
0.00371781
0.00407275
0.00442793
0.00478335
0.00513903
0.005495
0.00585127
0.00620785
0.00656475
0.00692199
0.00727959
0.00763755
0.00799588
0.00835459
0.0087137
0.0090732
0.0094331
0.0097934
0.0101541
0.0105152
0.0108768
0.0112387
0.011601
0.0119638
0.0123269
0.0126904
0.0130543
0.0134185
0.013783
0.0141479
0.0145131
0.0148785
0.0152442
0.0156101
0.0159762
0.0163425
0.0167088
0.0170753
0.0174418
0.0178082
0.0181746
0.0185409
0.018907
0.0192729
0.0196385
0.0200038
0.0203686
0.0207329
0.0210967
0.0214598
0.0218221
0.0221836
0.0225442
0.0229038
0.0232622
0.0236195
0.0239753
0.0243298
0.0246827
0.0250339
0.0253832
0.0257307
0.0260761
0.0264193
0.0267601
0.0270985
0.0274342
0.0277671
0.0280971
0.028424
0.0287477
0.0290679
0.0293846
0.0296975
0.0300065
0.0303114
0.0306121
0.0309083
0.0311999
0.0314868
0.0317686
0.0320454
0.0323167
0.0325826
0.0328428
0.0330972
0.0333455
0.0335876
0.0338233
0.0340525
0.034275
0.0344905
0.034699
0.0349003
0.0350943
0.0352807
0.0354595
0.0356304
0.0357934
0.0359484
0.0360952
0.0362336
0.0363636
0.0364851
0.036598
0.0367022
0.0367976
0.0368841
0.0369616
0.0370302
0.0370897
0.0371401
0.0371814
0.0372135
0.0372365
0.0372503
0.0372549
0.0372504
0.0372367
0.0372138
0.0371819
0.0371409
0.0370909
0.037032
0.0369642
0.0368876
0.0368022
0.0367083
0.0366057
0.0364948
0.0363755
0.036248
0.0361123
0.0359687
0.0358173
0.0356581
0.0354914
0.0353172
0.0351357
0.0349471
0.0347515
0.0345491
0.03434
0.0341244
0.0339024
0.0336743
0.0334402
0.0332002
0.0329545
0.0327033
0.0324468
0.032185
0.0319183
0.0316467
0.0313705
0.0310897
0.0308045
0.0305152
0.0302218
0.0299246
0.0296236
0.0293191
0.0290111
0.0286999
0.0283856
0.0280683
0.0277481
0.0274252
0.0270998
0.0267719
0.0264418
0.0261094
0.025775
0.0254386
0.0251004
0.0247605
0.0244189
0.0240759
0.0237315
0.0233857
0.0230388
0.0226907
0.0223416
0.0219915
0.0216406
0.0212889
0.0209365
0.0205834
0.0202298
0.0198757
0.0195211
0.0191661
0.0188108
0.0184553
0.0180995