/*--------------------------------*- C++ -*----------------------------------*\
| =========                 |                                                 |
| \\      /  F ield         | OpenFOAM: The Open Source CFD Toolbox           |
|  \\    /   O peration     | Version:  v2012                                 |
|   \\  /    A nd           | Website:  www.openfoam.com                      |
|    \\/     M anipulation  |                                                 |
\*---------------------------------------------------------------------------*/
FoamFile
{
    version     2.0;
    format      ascii;
    class       volScalarField;
    location    "15.6";
    object      W;
}
// * * * * * * * * * * * * * * * * * * * * * * * * * * * * * * * * * * * * * //

dimensions      [0 0 -1 0 0 0 0];


internalField   nonuniform List<scalar> 
65536
(
4.5743e-16
1.37795e-15
2.31561e-15
3.28226e-15
4.2901e-15
5.35181e-15
6.48064e-15
7.69063e-15
8.99667e-15
1.04147e-14
1.1962e-14
1.36571e-14
1.55201e-14
1.7573e-14
1.98398e-14
2.23466e-14
2.5122e-14
2.81973e-14
3.16069e-14
3.53884e-14
3.9583e-14
4.42359e-14
4.93965e-14
5.51191e-14
6.14629e-14
6.84927e-14
7.62794e-14
8.49003e-14
9.44398e-14
1.0499e-13
1.16651e-13
1.29531e-13
1.43749e-13
1.59434e-13
1.76723e-13
1.95769e-13
2.16733e-13
2.39791e-13
2.65133e-13
2.92962e-13
3.23498e-13
3.56975e-13
3.93645e-13
4.33778e-13
4.77661e-13
5.25601e-13
5.77922e-13
6.34971e-13
6.97115e-13
7.6474e-13
8.38254e-13
9.18088e-13
1.00469e-12
1.09854e-12
1.20012e-12
1.30995e-12
1.42856e-12
1.5565e-12
1.69435e-12
1.84267e-12
2.00207e-12
2.17317e-12
2.35657e-12
2.55289e-12
2.76277e-12
2.98683e-12
3.22568e-12
3.47994e-12
3.7502e-12
4.03703e-12
4.34098e-12
4.66257e-12
5.00227e-12
5.36051e-12
5.73768e-12
6.1341e-12
6.55002e-12
6.98563e-12
7.44101e-12
7.91619e-12
8.41108e-12
8.92549e-12
9.45913e-12
1.00116e-11
1.05823e-11
1.11707e-11
1.17759e-11
1.2397e-11
1.30329e-11
1.36825e-11
1.43445e-11
1.50173e-11
1.56994e-11
1.63891e-11
1.70844e-11
1.77835e-11
1.84843e-11
1.91845e-11
1.98821e-11
2.05745e-11
2.12595e-11
2.19346e-11
2.25974e-11
2.32453e-11
2.3876e-11
2.44869e-11
2.50758e-11
2.56401e-11
2.61778e-11
2.66866e-11
2.71645e-11
2.76095e-11
2.80199e-11
2.8394e-11
2.87305e-11
2.9028e-11
2.92855e-11
2.9502e-11
2.9677e-11
2.98099e-11
2.99005e-11
2.99487e-11
2.99547e-11
2.99188e-11
2.98415e-11
2.97236e-11
2.95659e-11
2.93695e-11
2.91356e-11
2.88656e-11
2.85608e-11
2.82229e-11
2.78534e-11
2.74542e-11
2.7027e-11
2.65736e-11
2.60958e-11
2.55956e-11
2.50748e-11
2.45353e-11
2.39789e-11
2.34073e-11
2.28224e-11
2.22259e-11
2.16195e-11
2.10046e-11
2.03829e-11
1.97558e-11
1.91248e-11
1.8491e-11
1.78559e-11
1.72206e-11
1.65862e-11
1.59539e-11
1.53245e-11
1.46992e-11
1.40788e-11
1.34642e-11
1.28562e-11
1.22558e-11
1.16636e-11
1.10805e-11
1.05073e-11
9.94456e-12
9.39315e-12
8.85377e-12
8.32713e-12
7.81393e-12
7.31486e-12
6.83059e-12
6.36177e-12
5.90904e-12
5.47299e-12
5.05418e-12
4.65312e-12
4.27026e-12
3.90602e-12
3.56071e-12
3.2346e-12
2.92784e-12
2.64053e-12
2.37266e-12
2.1241e-12
1.89467e-12
1.68404e-12
1.49181e-12
1.31748e-12
1.16045e-12
1.02005e-12
8.95528e-13
7.86042e-13
6.90708e-13
6.08584e-13
5.38685e-13
4.79997e-13
4.31481e-13
3.92089e-13
3.6077e-13
3.36486e-13
3.18213e-13
3.04959e-13
2.95771e-13
2.8974e-13
2.8602e-13
2.83826e-13
2.82451e-13
2.81267e-13
2.79737e-13
2.77413e-13
2.73945e-13
2.6908e-13
2.6266e-13
2.54617e-13
2.44967e-13
2.33804e-13
2.21286e-13
2.07623e-13
1.93064e-13
1.77883e-13
1.62365e-13
1.46791e-13
1.31429e-13
1.16523e-13
1.02283e-13
8.88825e-14
7.64554e-14
6.50927e-14
5.48465e-14
4.57317e-14
3.77311e-14
3.08006e-14
2.48749e-14
1.98733e-14
1.57055e-14
1.22764e-14
9.49078e-15
7.25618e-15
5.48605e-15
4.10134e-15
3.03163e-15
2.21555e-15
1.60071e-15
1.14324e-15
8.07108e-16
5.63199e-16
3.88417e-16
2.6473e-16
1.78291e-16
1.18629e-16
7.79477e-17
5.05244e-17
3.22147e-17
2.00471e-17
1.18998e-17
6.2443e-18
1.93908e-18
1.57883e-15
4.75607e-15
7.99272e-15
1.13298e-14
1.48095e-14
1.84758e-14
2.23746e-14
2.65545e-14
3.10672e-14
3.59681e-14
4.13167e-14
4.71774e-14
5.36204e-14
6.07217e-14
6.85644e-14
7.72394e-14
8.68462e-14
9.74935e-14
1.09301e-13
1.22398e-13
1.3693e-13
1.53053e-13
1.70939e-13
1.90776e-13
2.12771e-13
2.3715e-13
2.64159e-13
2.94068e-13
3.2717e-13
3.63785e-13
4.04262e-13
4.48981e-13
4.98353e-13
5.52826e-13
6.12884e-13
6.79051e-13
7.51895e-13
8.32028e-13
9.20109e-13
1.01685e-12
1.12301e-12
1.23941e-12
1.36693e-12
1.5065e-12
1.65913e-12
1.82587e-12
2.00787e-12
2.20633e-12
2.42252e-12
2.65778e-12
2.91353e-12
3.19127e-12
3.49255e-12
3.81901e-12
4.17237e-12
4.55438e-12
4.96689e-12
5.41181e-12
5.89108e-12
6.40672e-12
6.96078e-12
7.55533e-12
8.19249e-12
8.87439e-12
9.60315e-12
1.03809e-11
1.12097e-11
1.20916e-11
1.30286e-11
1.40226e-11
1.50754e-11
1.61887e-11
1.7364e-11
1.86027e-11
1.9906e-11
2.12749e-11
2.27099e-11
2.42117e-11
2.57804e-11
2.74157e-11
2.91172e-11
3.0884e-11
3.27148e-11
3.46079e-11
3.65613e-11
3.85724e-11
4.06382e-11
4.27551e-11
4.49194e-11
4.71265e-11
4.93715e-11
5.16493e-11
5.39539e-11
5.62791e-11
5.86185e-11
6.09648e-11
6.33109e-11
6.56491e-11
6.79715e-11
7.027e-11
7.25362e-11
7.47618e-11
7.69384e-11
7.90575e-11
8.11108e-11
8.309e-11
8.49871e-11
8.67944e-11
8.85044e-11
9.01101e-11
9.16049e-11
9.29826e-11
9.42377e-11
9.53653e-11
9.63609e-11
9.72209e-11
9.79422e-11
9.85227e-11
9.89606e-11
9.92552e-11
9.94062e-11
9.94143e-11
9.92807e-11
9.90074e-11
9.85967e-11
9.8052e-11
9.7377e-11
9.65757e-11
9.56531e-11
9.46141e-11
9.34643e-11
9.22094e-11
9.08554e-11
8.94087e-11
8.78755e-11
8.62624e-11
8.45759e-11
8.28224e-11
8.10084e-11
7.91404e-11
7.72244e-11
7.52666e-11
7.3273e-11
7.12491e-11
6.92004e-11
6.71322e-11
6.50493e-11
6.29565e-11
6.08583e-11
5.87588e-11
5.66619e-11
5.45714e-11
5.24908e-11
5.04232e-11
4.83718e-11
4.63394e-11
4.43288e-11
4.23425e-11
4.0383e-11
3.84526e-11
3.65536e-11
3.46881e-11
3.28583e-11
3.10663e-11
2.93141e-11
2.76036e-11
2.59369e-11
2.43158e-11
2.27423e-11
2.12181e-11
1.9745e-11
1.83248e-11
1.69591e-11
1.56492e-11
1.43966e-11
1.32025e-11
1.20679e-11
1.09936e-11
9.98016e-12
9.02794e-12
8.137e-12
7.30714e-12
6.53785e-12
5.82835e-12
5.17755e-12
4.58407e-12
4.04623e-12
3.56212e-12
3.12954e-12
2.74608e-12
2.40911e-12
2.11583e-12
1.86329e-12
1.64842e-12
1.46804e-12
1.31895e-12
1.1979e-12
1.10164e-12
1.02697e-12
9.70739e-13
9.29898e-13
9.01519e-13
8.82823e-13
8.71211e-13
8.64287e-13
8.59887e-13
8.56095e-13
8.51268e-13
8.44045e-13
8.33359e-13
8.18437e-13
7.98797e-13
7.74232e-13
7.44796e-13
7.10771e-13
6.72639e-13
6.31038e-13
5.86727e-13
5.40537e-13
4.93332e-13
4.4597e-13
3.99262e-13
3.53947e-13
3.10665e-13
2.69942e-13
2.32181e-13
1.9766e-13
1.66534e-13
1.38848e-13
1.14549e-13
9.35023e-14
7.55084e-14
6.03221e-14
4.76686e-14
3.72588e-14
2.88028e-14
2.202e-14
1.66475e-14
1.24449e-14
9.19864e-15
6.72218e-15
4.85649e-15
3.46842e-15
2.44855e-15
1.70853e-15
1.17827e-15
8.0304e-16
5.40818e-16
3.59833e-16
2.3643e-16
1.53246e-16
9.7709e-17
6.08028e-17
3.60918e-17
1.89387e-17
5.88125e-18
3.39844e-15
1.02378e-14
1.72058e-14
2.43912e-14
3.18856e-14
3.9784e-14
4.8186e-14
5.71968e-14
6.69285e-14
7.75013e-14
8.90444e-14
1.01698e-13
1.15614e-13
1.30957e-13
1.4791e-13
1.66669e-13
1.8745e-13
2.10491e-13
2.36051e-13
2.64416e-13
2.95898e-13
3.30839e-13
3.69615e-13
4.12638e-13
4.60357e-13
5.13266e-13
5.71903e-13
6.36857e-13
7.08769e-13
7.8834e-13
8.76332e-13
9.73575e-13
1.08097e-12
1.19949e-12
1.33021e-12
1.47426e-12
1.6329e-12
1.80744e-12
1.99936e-12
2.21018e-12
2.44159e-12
2.69537e-12
2.97344e-12
3.27785e-12
3.61079e-12
3.97458e-12
4.3717e-12
4.80477e-12
5.27656e-12
5.79001e-12
6.3482e-12
6.95438e-12
7.61192e-12
8.3244e-12
9.09549e-12
9.92903e-12
1.0829e-11
1.17995e-11
1.28447e-11
1.39689e-11
1.51765e-11
1.64719e-11
1.78597e-11
1.93442e-11
2.093e-11
2.26215e-11
2.4423e-11
2.63388e-11
2.83728e-11
3.05289e-11
3.28107e-11
3.52215e-11
3.77641e-11
4.04412e-11
4.32548e-11
4.62064e-11
4.92969e-11
5.25267e-11
5.58954e-11
5.9402e-11
6.30445e-11
6.68202e-11
7.07254e-11
7.47557e-11
7.89056e-11
8.31685e-11
8.7537e-11
9.20025e-11
9.65557e-11
1.01186e-10
1.05881e-10
1.1063e-10
1.15419e-10
1.20232e-10
1.25056e-10
1.29875e-10
1.34672e-10
1.39429e-10
1.44131e-10
1.48758e-10
1.53293e-10
1.57718e-10
1.62015e-10
1.66166e-10
1.70154e-10
1.73962e-10
1.77573e-10
1.80972e-10
1.84145e-10
1.87077e-10
1.89756e-10
1.92172e-10
1.94313e-10
1.96172e-10
1.97741e-10
1.99015e-10
1.9999e-10
2.00664e-10
2.01036e-10
2.01107e-10
2.00879e-10
2.00355e-10
1.99542e-10
1.98447e-10
1.97075e-10
1.95438e-10
1.93545e-10
1.91408e-10
1.89037e-10
1.86447e-10
1.8365e-10
1.8066e-10
1.7749e-10
1.74156e-10
1.70672e-10
1.67052e-10
1.63311e-10
1.59462e-10
1.55519e-10
1.51496e-10
1.47405e-10
1.4326e-10
1.39071e-10
1.34851e-10
1.3061e-10
1.26358e-10
1.22105e-10
1.17859e-10
1.13628e-10
1.09421e-10
1.05244e-10
1.01104e-10
9.70061e-11
9.29563e-11
8.89594e-11
8.50201e-11
8.11425e-11
7.73306e-11
7.35879e-11
6.99179e-11
6.63238e-11
6.28085e-11
5.9375e-11
5.60261e-11
5.27645e-11
4.95927e-11
4.65134e-11
4.35291e-11
4.06422e-11
3.7855e-11
3.51697e-11
3.25887e-11
3.01137e-11
2.77467e-11
2.54891e-11
2.33424e-11
2.13076e-11
1.93854e-11
1.7576e-11
1.58795e-11
1.42953e-11
1.28225e-11
1.14596e-11
1.02048e-11
9.05562e-12
8.00921e-12
7.06225e-12
6.21099e-12
5.45126e-12
4.77855e-12
4.18799e-12
3.67446e-12
3.2326e-12
2.85689e-12
2.54164e-12
2.28114e-12
2.06964e-12
1.90139e-12
1.77077e-12
1.67227e-12
1.60054e-12
1.55049e-12
1.51727e-12
1.49639e-12
1.48369e-12
1.47542e-12
1.46828e-12
1.45944e-12
1.44656e-12
1.42779e-12
1.40181e-12
1.36779e-12
1.32538e-12
1.27467e-12
1.21616e-12
1.15065e-12
1.07925e-12
1.00326e-12
9.24092e-13
8.43229e-13
7.62131e-13
6.82187e-13
6.04655e-13
5.30626e-13
4.60995e-13
3.96446e-13
3.37449e-13
2.84268e-13
2.36975e-13
1.95477e-13
1.5954e-13
1.28821e-13
1.029e-13
8.13052e-14
6.35427e-14
4.91162e-14
3.75459e-14
2.83824e-14
2.12155e-14
1.56799e-14
1.14576e-14
8.27692e-15
5.91077e-15
4.17243e-15
2.91121e-15
2.00755e-15
1.36814e-15
9.21342e-16
6.12983e-16
4.02742e-16
2.61033e-16
1.66427e-16
1.03561e-16
6.1471e-17
3.22556e-17
1.00167e-17
6.66759e-15
2.00867e-14
3.37602e-14
4.78635e-14
6.25774e-14
7.80898e-14
9.45979e-14
1.1231e-13
1.31448e-13
1.52249e-13
1.74971e-13
1.9989e-13
2.27309e-13
2.57556e-13
2.90991e-13
3.28006e-13
3.69032e-13
4.1454e-13
4.65048e-13
5.21124e-13
5.8339e-13
6.52531e-13
7.29294e-13
8.14501e-13
9.09052e-13
1.01393e-12
1.13021e-12
1.25908e-12
1.40181e-12
1.5598e-12
1.73459e-12
1.92783e-12
2.14132e-12
2.37703e-12
2.63708e-12
2.92376e-12
3.23957e-12
3.58718e-12
3.96949e-12
4.38961e-12
4.85088e-12
5.35688e-12
5.91146e-12
6.51871e-12
7.183e-12
7.90901e-12
8.70165e-12
9.56619e-12
1.05081e-11
1.15334e-11
1.2648e-11
1.38585e-11
1.51716e-11
1.65944e-11
1.81341e-11
1.97983e-11
2.15949e-11
2.3532e-11
2.56177e-11
2.78605e-11
3.02689e-11
3.28515e-11
3.56171e-11
3.85741e-11
4.17312e-11
4.50968e-11
4.86789e-11
5.24854e-11
5.65237e-11
6.08008e-11
6.53231e-11
7.00962e-11
7.51249e-11
8.04132e-11
8.5964e-11
9.17792e-11
9.78591e-11
1.04203e-10
1.10809e-10
1.17673e-10
1.24789e-10
1.3215e-10
1.39746e-10
1.47568e-10
1.55602e-10
1.63833e-10
1.72243e-10
1.80814e-10
1.89525e-10
1.98353e-10
2.07273e-10
2.16258e-10
2.25279e-10
2.34308e-10
2.43311e-10
2.52258e-10
2.61113e-10
2.69843e-10
2.78412e-10
2.86786e-10
2.94928e-10
3.02803e-10
3.10378e-10
3.17618e-10
3.2449e-10
3.30963e-10
3.37008e-10
3.42596e-10
3.47703e-10
3.52305e-10
3.56382e-10
3.59916e-10
3.62893e-10
3.653e-10
3.67131e-10
3.68379e-10
3.69042e-10
3.69123e-10
3.68624e-10
3.67555e-10
3.65926e-10
3.63749e-10
3.61041e-10
3.57821e-10
3.54109e-10
3.49929e-10
3.45304e-10
3.40261e-10
3.34826e-10
3.29029e-10
3.22898e-10
3.16462e-10
3.09752e-10
3.02796e-10
2.95623e-10
2.88264e-10
2.80745e-10
2.73094e-10
2.65338e-10
2.57501e-10
2.49608e-10
2.4168e-10
2.3374e-10
2.25808e-10
2.17901e-10
2.10037e-10
2.02231e-10
1.94498e-10
1.8685e-10
1.79299e-10
1.71856e-10
1.64529e-10
1.57327e-10
1.50257e-10
1.43325e-10
1.36537e-10
1.29897e-10
1.2341e-10
1.1708e-10
1.10909e-10
1.049e-10
9.90559e-11
9.33792e-11
8.78718e-11
8.25357e-11
7.73727e-11
7.23847e-11
6.75732e-11
6.29401e-11
5.84867e-11
5.42145e-11
5.01247e-11
4.62186e-11
4.24969e-11
3.89602e-11
3.56089e-11
3.24428e-11
2.94614e-11
2.66636e-11
2.40479e-11
2.16121e-11
1.93536e-11
1.72688e-11
1.53538e-11
1.3604e-11
1.2014e-11
1.0578e-11
9.28945e-12
8.14146e-12
7.12655e-12
6.23687e-12
5.46422e-12
4.80014e-12
4.23597e-12
3.76293e-12
3.37219e-12
3.05494e-12
2.80248e-12
2.60626e-12
2.45798e-12
2.34963e-12
2.27358e-12
2.22263e-12
2.19008e-12
2.16976e-12
2.15616e-12
2.1444e-12
2.13029e-12
2.11041e-12
2.08206e-12
2.0433e-12
1.99291e-12
1.93039e-12
1.85587e-12
1.77007e-12
1.67418e-12
1.5698e-12
1.45882e-12
1.34331e-12
1.22541e-12
1.10726e-12
9.90849e-13
8.78012e-13
7.70324e-13
6.69078e-13
5.7526e-13
4.89544e-13
4.12304e-13
3.43639e-13
2.83405e-13
2.31257e-13
1.86695e-13
1.49101e-13
1.17791e-13
9.2042e-14
7.11337e-14
5.43684e-14
4.10931e-14
3.07123e-14
2.26958e-14
1.65821e-14
1.19774e-14
8.55241e-15
6.03652e-15
4.2114e-15
2.90388e-15
1.97881e-15
1.33247e-15
8.86441e-16
5.82369e-16
3.77432e-16
2.40625e-16
1.49724e-16
8.88686e-17
4.66306e-17
1.44806e-17
1.26554e-14
3.81269e-14
6.40853e-14
9.08662e-14
1.18816e-13
1.48293e-13
1.79677e-13
2.13366e-13
2.49785e-13
2.89391e-13
3.32677e-13
3.80176e-13
4.32467e-13
4.90185e-13
5.54019e-13
6.24727e-13
7.03138e-13
7.90163e-13
8.86799e-13
9.94143e-13
1.1134e-12
1.24589e-12
1.39306e-12
1.55649e-12
1.73794e-12
1.93931e-12
2.16268e-12
2.41034e-12
2.68477e-12
2.98869e-12
3.32507e-12
3.69712e-12
4.10836e-12
4.56257e-12
5.0639e-12
5.61681e-12
6.22612e-12
6.89706e-12
7.63523e-12
8.44669e-12
9.33794e-12
1.03159e-11
1.13882e-11
1.25625e-11
1.38476e-11
1.52524e-11
1.67864e-11
1.84599e-11
2.02836e-11
2.22688e-11
2.44274e-11
2.67718e-11
2.93151e-11
3.20708e-11
3.5053e-11
3.82762e-11
4.17554e-11
4.55061e-11
4.9544e-11
5.38849e-11
5.85452e-11
6.3541e-11
6.88885e-11
7.46039e-11
8.0703e-11
8.7201e-11
9.4113e-11
1.01453e-10
1.09234e-10
1.17468e-10
1.26167e-10
1.35338e-10
1.44991e-10
1.55129e-10
1.65758e-10
1.76877e-10
1.88486e-10
2.00579e-10
2.1315e-10
2.26188e-10
2.39678e-10
2.53604e-10
2.67943e-10
2.82671e-10
2.97758e-10
3.13172e-10
3.28876e-10
3.44829e-10
3.60987e-10
3.77301e-10
3.9372e-10
4.10188e-10
4.26648e-10
4.43039e-10
4.59297e-10
4.75359e-10
4.91156e-10
5.06622e-10
5.21689e-10
5.3629e-10
5.50356e-10
5.63821e-10
5.76623e-10
5.88698e-10
5.99989e-10
6.10439e-10
6.19998e-10
6.28619e-10
6.3626e-10
6.42885e-10
6.48463e-10
6.52971e-10
6.56389e-10
6.58706e-10
6.59916e-10
6.60021e-10
6.59028e-10
6.56951e-10
6.5381e-10
6.49631e-10
6.44444e-10
6.38285e-10
6.31197e-10
6.23222e-10
6.14412e-10
6.04816e-10
5.94489e-10
5.83489e-10
5.71872e-10
5.59698e-10
5.47026e-10
5.33916e-10
5.20425e-10
5.06612e-10
4.92533e-10
4.78242e-10
4.63792e-10
4.49233e-10
4.34613e-10
4.19975e-10
4.05362e-10
3.90813e-10
3.76363e-10
3.62045e-10
3.47888e-10
3.3392e-10
3.20163e-10
3.06638e-10
2.93363e-10
2.80355e-10
2.67627e-10
2.55188e-10
2.43049e-10
2.31217e-10
2.19698e-10
2.08495e-10
1.97611e-10
1.87049e-10
1.7681e-10
1.66894e-10
1.57299e-10
1.48027e-10
1.39075e-10
1.30442e-10
1.22127e-10
1.14127e-10
1.06442e-10
9.90689e-11
9.20065e-11
8.52529e-11
7.88062e-11
7.26645e-11
6.68256e-11
6.12874e-11
5.60471e-11
5.11021e-11
4.64489e-11
4.2084e-11
3.80028e-11
3.42007e-11
3.0672e-11
2.74104e-11
2.44089e-11
2.16599e-11
1.91548e-11
1.68845e-11
1.4839e-11
1.30078e-11
1.13798e-11
9.94327e-12
8.68628e-12
7.59637e-12
6.66091e-12
5.8671e-12
5.20207e-12
4.65303e-12
4.20729e-12
3.8524e-12
3.57621e-12
3.36699e-12
3.21348e-12
3.10499e-12
3.03149e-12
2.98366e-12
2.95299e-12
2.93185e-12
2.91353e-12
2.8923e-12
2.86346e-12
2.82331e-12
2.76923e-12
2.69955e-12
2.6136e-12
2.51155e-12
2.39438e-12
2.26371e-12
2.12172e-12
1.97096e-12
1.81421e-12
1.65439e-12
1.49434e-12
1.33679e-12
1.18416e-12
1.0386e-12
9.01813e-13
7.7513e-13
6.59443e-13
5.55242e-13
4.62647e-13
3.81454e-13
3.11188e-13
2.51162e-13
2.00541e-13
1.58393e-13
1.23742e-13
9.5613e-14
7.30639e-14
5.52132e-14
4.1258e-14
3.04836e-14
2.22684e-14
1.60822e-14
1.14817e-14
8.10296e-15
5.65232e-15
3.89694e-15
2.65522e-15
1.78774e-15
1.1892e-15
7.81201e-16
5.06252e-16
3.22727e-16
2.00798e-16
1.19177e-16
6.25316e-17
1.94182e-17
2.35546e-14
7.09656e-14
1.19291e-13
1.6916e-13
2.21224e-13
2.76158e-13
3.34671e-13
3.97514e-13
4.65489e-13
5.39454e-13
6.20337e-13
7.09145e-13
8.06972e-13
9.15013e-13
1.03457e-12
1.16708e-12
1.31411e-12
1.47739e-12
1.6588e-12
1.86042e-12
2.08453e-12
2.33365e-12
2.61052e-12
2.91817e-12
3.25989e-12
3.63933e-12
4.06044e-12
4.52758e-12
5.04548e-12
5.61932e-12
6.25474e-12
6.9579e-12
7.73548e-12
8.59473e-12
9.54354e-12
1.05904e-11
1.17446e-11
1.30161e-11
1.44155e-11
1.59545e-11
1.76455e-11
1.95017e-11
2.15375e-11
2.3768e-11
2.62094e-11
2.8879e-11
3.17952e-11
3.49772e-11
3.84455e-11
4.22217e-11
4.63284e-11
5.07892e-11
5.5629e-11
6.08734e-11
6.6549e-11
7.26833e-11
7.93048e-11
8.64423e-11
9.41253e-11
1.02384e-10
1.11248e-10
1.20748e-10
1.30913e-10
1.41774e-10
1.53359e-10
1.65696e-10
1.78812e-10
1.92731e-10
2.07477e-10
2.2307e-10
2.39528e-10
2.56866e-10
2.75094e-10
2.9422e-10
3.14246e-10
3.3517e-10
3.56984e-10
3.79674e-10
4.03223e-10
4.27602e-10
4.5278e-10
4.78718e-10
5.05367e-10
5.32673e-10
5.60576e-10
5.89005e-10
6.17883e-10
6.47126e-10
6.76643e-10
7.06335e-10
7.36099e-10
7.65824e-10
7.95395e-10
8.24691e-10
8.5359e-10
8.81965e-10
9.09688e-10
9.3663e-10
9.62663e-10
9.87659e-10
1.01149e-09
1.03405e-09
1.0552e-09
1.07485e-09
1.09288e-09
1.10921e-09
1.12375e-09
1.13642e-09
1.14716e-09
1.15591e-09
1.16264e-09
1.16731e-09
1.16991e-09
1.17043e-09
1.16889e-09
1.1653e-09
1.1597e-09
1.15214e-09
1.14267e-09
1.13135e-09
1.11828e-09
1.10352e-09
1.08719e-09
1.06936e-09
1.05016e-09
1.02969e-09
1.00806e-09
9.85398e-10
9.61809e-10
9.37415e-10
9.12332e-10
8.86673e-10
8.60551e-10
8.34073e-10
8.07343e-10
7.80461e-10
7.5352e-10
7.26608e-10
6.99808e-10
6.73196e-10
6.46841e-10
6.20806e-10
5.95148e-10
5.69917e-10
5.45159e-10
5.20911e-10
4.97207e-10
4.74073e-10
4.51532e-10
4.29602e-10
4.08296e-10
3.87625e-10
3.67593e-10
3.48204e-10
3.29458e-10
3.11353e-10
2.93885e-10
2.77048e-10
2.60834e-10
2.45235e-10
2.30242e-10
2.15845e-10
2.02034e-10
1.88798e-10
1.76128e-10
1.64013e-10
1.52441e-10
1.41405e-10
1.30892e-10
1.20895e-10
1.11403e-10
1.02406e-10
9.38968e-11
8.58648e-11
7.83009e-11
7.11956e-11
6.45392e-11
5.83214e-11
5.25317e-11
4.71588e-11
4.2191e-11
3.76157e-11
3.34198e-11
2.95894e-11
2.61096e-11
2.29653e-11
2.01401e-11
1.76176e-11
1.53804e-11
1.34108e-11
1.16909e-11
1.02023e-11
8.92675e-12
7.84575e-12
6.94106e-12
6.19461e-12
5.58869e-12
5.106e-12
4.72984e-12
4.44413e-12
4.23356e-12
4.08364e-12
3.98085e-12
3.91271e-12
3.86784e-12
3.83607e-12
3.80849e-12
3.77753e-12
3.73698e-12
3.682e-12
3.60911e-12
3.51615e-12
3.40224e-12
3.26761e-12
3.11354e-12
2.94216e-12
2.75629e-12
2.55925e-12
2.35466e-12
2.1463e-12
1.93786e-12
1.73283e-12
1.53439e-12
1.34526e-12
1.16766e-12
1.00328e-12
8.53244e-13
7.18181e-13
5.98221e-13
4.93082e-13
4.02133e-13
3.24471e-13
2.59003e-13
2.04512e-13
1.59731e-13
1.23391e-13
9.42684e-14
7.12211e-14
5.32083e-14
3.9305e-14
2.87068e-14
2.07281e-14
1.4796e-14
1.04402e-14
7.28155e-15
5.01946e-15
3.41958e-15
2.30209e-15
1.53116e-15
1.00572e-15
6.51687e-16
4.15402e-16
2.58439e-16
1.53378e-16
8.04734e-17
2.49892e-17
4.31347e-14
1.29962e-13
2.18478e-13
3.09849e-13
4.05276e-13
5.06007e-13
6.13356e-13
7.28713e-13
8.53561e-13
9.89494e-13
1.13823e-12
1.30165e-12
1.48177e-12
1.68081e-12
1.90122e-12
2.14564e-12
2.41702e-12
2.71855e-12
3.05377e-12
3.42656e-12
3.84117e-12
4.30231e-12
4.81511e-12
5.38522e-12
6.01884e-12
6.72276e-12
7.50443e-12
8.37199e-12
9.33435e-12
1.04012e-11
1.15832e-11
1.28918e-11
1.43397e-11
1.59404e-11
1.77089e-11
1.96611e-11
2.18144e-11
2.41875e-11
2.68007e-11
2.96757e-11
3.2836e-11
3.63065e-11
4.01142e-11
4.42876e-11
4.88573e-11
5.38558e-11
5.93176e-11
6.52791e-11
7.17788e-11
7.88571e-11
8.65566e-11
9.49218e-11
1.03999e-10
1.13836e-10
1.24483e-10
1.35992e-10
1.48415e-10
1.61806e-10
1.7622e-10
1.91712e-10
2.08337e-10
2.26152e-10
2.45211e-10
2.65568e-10
2.87275e-10
3.10382e-10
3.34936e-10
3.60981e-10
3.88557e-10
4.17697e-10
4.48432e-10
4.80783e-10
5.14766e-10
5.50387e-10
5.87645e-10
6.26528e-10
6.67013e-10
7.09067e-10
7.52644e-10
7.97687e-10
8.44122e-10
8.91866e-10
9.40819e-10
9.90868e-10
1.04189e-09
1.09373e-09
1.14624e-09
1.19926e-09
1.25259e-09
1.30605e-09
1.35943e-09
1.41251e-09
1.46507e-09
1.51688e-09
1.5677e-09
1.61729e-09
1.6654e-09
1.71181e-09
1.75626e-09
1.79852e-09
1.83837e-09
1.87559e-09
1.90998e-09
1.94133e-09
1.96948e-09
1.99427e-09
2.01556e-09
2.03323e-09
2.04718e-09
2.05735e-09
2.06368e-09
2.06616e-09
2.06478e-09
2.05957e-09
2.05058e-09
2.03789e-09
2.02158e-09
2.00179e-09
1.97865e-09
1.95231e-09
1.92294e-09
1.89074e-09
1.8559e-09
1.81864e-09
1.77917e-09
1.73771e-09
1.69449e-09
1.64973e-09
1.60367e-09
1.55653e-09
1.50852e-09
1.45986e-09
1.41076e-09
1.3614e-09
1.31198e-09
1.26267e-09
1.21363e-09
1.16501e-09
1.11695e-09
1.06958e-09
1.02299e-09
9.77303e-10
9.32589e-10
8.88927e-10
8.46379e-10
8.04994e-10
7.64814e-10
7.25868e-10
6.8818e-10
6.51762e-10
6.1662e-10
5.82753e-10
5.50156e-10
5.18817e-10
4.8872e-10
4.59845e-10
4.32171e-10
4.05671e-10
3.8032e-10
3.5609e-10
3.32951e-10
3.10873e-10
2.89829e-10
2.69787e-10
2.50719e-10
2.32596e-10
2.15391e-10
1.99077e-10
1.83627e-10
1.69017e-10
1.55221e-10
1.42216e-10
1.29978e-10
1.18486e-10
1.07718e-10
9.76502e-11
8.82623e-11
7.95322e-11
7.14382e-11
6.39582e-11
5.70697e-11
5.07499e-11
4.49754e-11
3.97223e-11
3.49662e-11
3.06821e-11
2.68445e-11
2.34277e-11
2.04054e-11
1.77512e-11
1.54386e-11
1.34412e-11
1.17326e-11
1.02867e-11
9.07808e-12
8.08155e-12
7.27278e-12
6.6282e-12
6.12516e-12
5.74204e-12
5.45836e-12
5.25489e-12
5.11373e-12
5.01844e-12
4.95413e-12
4.90751e-12
4.86702e-12
4.82283e-12
4.76691e-12
4.69303e-12
4.59673e-12
4.47526e-12
4.32745e-12
4.15365e-12
3.95547e-12
3.73563e-12
3.49773e-12
3.24598e-12
2.98498e-12
2.71951e-12
2.45423e-12
2.19356e-12
1.9415e-12
1.70145e-12
1.47621e-12
1.26787e-12
1.07785e-12
9.06888e-13
7.55132e-13
6.22196e-13
5.07258e-13
4.09159e-13
3.26499e-13
2.57731e-13
2.01238e-13
1.5541e-13
1.18699e-13
8.96552e-14
6.69636e-14
4.94545e-14
3.61115e-14
2.60692e-14
1.86048e-14
1.31252e-14
9.15256e-15
6.30815e-15
4.29684e-15
2.89224e-15
1.92341e-15
1.26321e-15
8.18441e-16
5.21642e-16
3.24507e-16
1.92574e-16
1.01033e-16
3.13728e-17
7.77897e-14
2.34385e-13
3.94057e-13
5.58926e-13
7.31179e-13
9.13094e-13
1.10706e-12
1.31562e-12
1.54148e-12
1.78754e-12
2.05696e-12
2.35315e-12
2.67984e-12
3.04108e-12
3.44135e-12
3.88552e-12
4.37897e-12
4.92759e-12
5.53788e-12
6.21698e-12
6.97274e-12
7.81379e-12
8.74961e-12
9.79064e-12
1.09483e-11
1.22352e-11
1.3665e-11
1.52528e-11
1.70151e-11
1.89698e-11
2.11367e-11
2.3537e-11
2.61942e-11
2.91334e-11
3.23823e-11
3.59705e-11
3.99304e-11
4.42967e-11
4.91071e-11
5.44019e-11
6.02245e-11
6.66217e-11
7.36433e-11
8.13426e-11
8.97763e-11
9.90049e-11
1.09092e-10
1.20107e-10
1.32119e-10
1.45204e-10
1.59442e-10
1.74915e-10
1.91708e-10
2.0991e-10
2.29615e-10
2.50917e-10
2.73913e-10
2.98702e-10
3.25386e-10
3.54065e-10
3.84841e-10
4.17815e-10
4.53087e-10
4.90753e-10
5.30907e-10
5.73638e-10
6.19029e-10
6.67156e-10
7.18087e-10
7.71879e-10
8.28579e-10
8.88219e-10
9.50818e-10
1.01638e-09
1.08489e-09
1.15631e-09
1.23059e-09
1.30766e-09
1.3874e-09
1.4697e-09
1.55442e-09
1.64136e-09
1.73034e-09
1.82112e-09
1.91345e-09
2.00705e-09
2.1016e-09
2.19678e-09
2.29222e-09
2.38756e-09
2.4824e-09
2.57632e-09
2.66889e-09
2.75968e-09
2.84824e-09
2.93412e-09
3.01686e-09
3.09603e-09
3.17119e-09
3.24192e-09
3.3078e-09
3.36845e-09
3.42352e-09
3.47268e-09
3.51563e-09
3.55211e-09
3.58191e-09
3.60485e-09
3.6208e-09
3.62967e-09
3.63144e-09
3.6261e-09
3.61372e-09
3.5944e-09
3.56829e-09
3.53558e-09
3.49651e-09
3.45134e-09
3.40039e-09
3.34399e-09
3.28251e-09
3.21633e-09
3.14585e-09
3.07151e-09
2.99372e-09
2.91291e-09
2.82954e-09
2.74402e-09
2.65679e-09
2.56825e-09
2.47881e-09
2.38885e-09
2.29875e-09
2.20883e-09
2.11943e-09
2.03084e-09
1.94334e-09
1.85717e-09
1.77254e-09
1.68967e-09
1.60871e-09
1.52981e-09
1.4531e-09
1.37867e-09
1.3066e-09
1.23695e-09
1.16976e-09
1.10505e-09
1.04282e-09
9.83072e-10
9.25786e-10
8.70932e-10
8.1847e-10
7.68353e-10
7.20529e-10
6.74939e-10
6.31521e-10
5.9021e-10
5.50939e-10
5.13639e-10
4.78241e-10
4.44678e-10
4.12881e-10
3.82785e-10
3.54323e-10
3.27435e-10
3.02058e-10
2.78135e-10
2.55608e-10
2.34425e-10
2.14532e-10
1.95881e-10
1.78424e-10
1.62113e-10
1.46905e-10
1.32757e-10
1.19626e-10
1.07471e-10
9.62514e-11
8.59272e-11
7.64586e-11
6.78063e-11
5.99306e-11
5.27922e-11
4.63518e-11
4.05698e-11
3.54068e-11
3.08235e-11
2.67808e-11
2.32396e-11
2.01617e-11
1.75088e-11
1.52439e-11
1.33303e-11
1.17327e-11
1.04165e-11
9.34854e-12
8.49705e-12
7.83164e-12
7.3235e-12
6.94554e-12
6.67246e-12
6.48086e-12
6.34935e-12
6.25863e-12
6.19156e-12
6.13328e-12
6.07122e-12
5.99513e-12
5.89709e-12
5.77144e-12
5.61469e-12
5.4254e-12
5.20399e-12
4.95251e-12
4.67436e-12
4.37407e-12
4.05691e-12
3.72864e-12
3.3952e-12
3.06241e-12
2.73577e-12
2.42021e-12
2.11997e-12
1.83848e-12
1.57832e-12
1.34119e-12
1.12799e-12
9.38855e-13
7.73274e-13
6.30191e-13
5.08134e-13
4.05337e-13
3.19856e-13
2.49664e-13
1.92749e-13
1.47173e-13
1.11131e-13
8.29813e-14
6.12681e-14
4.47266e-14
3.2281e-14
2.30328e-14
1.62457e-14
1.13263e-14
7.80487e-15
5.31541e-15
3.57727e-15
2.37862e-15
1.56196e-15
1.01187e-15
6.44854e-16
4.01117e-16
2.38019e-16
1.24868e-16
3.8773e-17
1.38197e-13
4.16413e-13
7.00152e-13
9.93215e-13
1.29953e-12
1.62319e-12
1.96848e-12
2.33997e-12
2.74253e-12
3.1814e-12
3.66224e-12
4.19123e-12
4.77507e-12
5.42111e-12
6.13741e-12
6.93281e-12
7.81703e-12
8.80076e-12
9.89577e-12
1.1115e-11
1.24727e-11
1.39846e-11
1.56679e-11
1.75415e-11
1.96264e-11
2.19453e-11
2.45233e-11
2.73879e-11
3.05692e-11
3.40999e-11
3.8016e-11
4.23565e-11
4.71641e-11
5.24852e-11
5.83699e-11
6.48729e-11
7.20531e-11
7.99746e-11
8.8706e-11
9.83216e-11
1.08901e-10
1.2053e-10
1.333e-10
1.47308e-10
1.6266e-10
1.79466e-10
1.97843e-10
2.17916e-10
2.39816e-10
2.63681e-10
2.89655e-10
3.17891e-10
3.48545e-10
3.8178e-10
4.17766e-10
4.56675e-10
4.98686e-10
5.43979e-10
5.92737e-10
6.45145e-10
7.01386e-10
7.61642e-10
8.26092e-10
8.9491e-10
9.68263e-10
1.04631e-09
1.12919e-09
1.21703e-09
1.30997e-09
1.40807e-09
1.51143e-09
1.62009e-09
1.73406e-09
1.85334e-09
1.97788e-09
2.1076e-09
2.24237e-09
2.38204e-09
2.5264e-09
2.67518e-09
2.8281e-09
2.9848e-09
3.14489e-09
3.3079e-09
3.47335e-09
3.64069e-09
3.80931e-09
3.97859e-09
4.14785e-09
4.31636e-09
4.48338e-09
4.64812e-09
4.80978e-09
4.96755e-09
5.1206e-09
5.26809e-09
5.40921e-09
5.54315e-09
5.66912e-09
5.78636e-09
5.89417e-09
5.99185e-09
6.07881e-09
6.15449e-09
6.21841e-09
6.27015e-09
6.30938e-09
6.33587e-09
6.34944e-09
6.35002e-09
6.33764e-09
6.31241e-09
6.27452e-09
6.22426e-09
6.16198e-09
6.08814e-09
6.00325e-09
5.90789e-09
5.8027e-09
5.68837e-09
5.56564e-09
5.43527e-09
5.29805e-09
5.15481e-09
5.00635e-09
4.8535e-09
4.69708e-09
4.53788e-09
4.37668e-09
4.21424e-09
4.05125e-09
3.88841e-09
3.72635e-09
3.56566e-09
3.40688e-09
3.25051e-09
3.09699e-09
2.94671e-09
2.80002e-09
2.65722e-09
2.51855e-09
2.38421e-09
2.25436e-09
2.12913e-09
2.00858e-09
1.89277e-09
1.78171e-09
1.67539e-09
1.57376e-09
1.47677e-09
1.38433e-09
1.29635e-09
1.21271e-09
1.13329e-09
1.05796e-09
9.86592e-10
9.19031e-10
8.55138e-10
7.94766e-10
7.3777e-10
6.84006e-10
6.33334e-10
5.85614e-10
5.40712e-10
4.98499e-10
4.5885e-10
4.21645e-10
3.8677e-10
3.54114e-10
3.23575e-10
2.95052e-10
2.68451e-10
2.43682e-10
2.20659e-10
1.99298e-10
1.79522e-10
1.61255e-10
1.44423e-10
1.28956e-10
1.14784e-10
1.01841e-10
9.00611e-11
7.93803e-11
6.97355e-11
6.10646e-11
5.33066e-11
4.64016e-11
4.02907e-11
3.4916e-11
3.02209e-11
2.61498e-11
2.2649e-11
1.96659e-11
1.71499e-11
1.50519e-11
1.33251e-11
1.19246e-11
1.08075e-11
9.93339e-12
9.26422e-12
8.76434e-12
8.40068e-12
8.14286e-12
7.9632e-12
7.83689e-12
7.74198e-12
7.65952e-12
7.57354e-12
7.47107e-12
7.34209e-12
7.1795e-12
6.97892e-12
6.73855e-12
6.45891e-12
6.14256e-12
5.79377e-12
5.41812e-12
5.02218e-12
4.61307e-12
4.19813e-12
3.78454e-12
3.37905e-12
2.98773e-12
2.61576e-12
2.26732e-12
1.94554e-12
1.65248e-12
1.38917e-12
1.15575e-12
9.51517e-13
7.7514e-13
6.24765e-13
4.98187e-13
3.92982e-13
3.06637e-13
2.36655e-13
1.8064e-13
1.3636e-13
1.0179e-13
7.51341e-14
5.48345e-14
3.95662e-14
2.82242e-14
1.99027e-14
1.3873e-14
9.55789e-15
6.50807e-15
4.37916e-15
2.91135e-15
1.9115e-15
1.23815e-15
7.88963e-16
4.90706e-16
2.91156e-16
1.52736e-16
4.74247e-17
2.41894e-13
7.28907e-13
1.22569e-12
1.73896e-12
2.27567e-12
2.84306e-12
3.44873e-12
4.10077e-12
4.80781e-12
5.57916e-12
6.42488e-12
7.35593e-12
8.38426e-12
9.52294e-12
1.07863e-11
1.21902e-11
1.37519e-11
1.54905e-11
1.74271e-11
1.95848e-11
2.19891e-11
2.46682e-11
2.76529e-11
3.09773e-11
3.46787e-11
3.87983e-11
4.3381e-11
4.84763e-11
5.41383e-11
6.04261e-11
6.74044e-11
7.51437e-11
8.37208e-11
9.32194e-11
1.0373e-10
1.15352e-10
1.28192e-10
1.42365e-10
1.57995e-10
1.75218e-10
1.94176e-10
2.15027e-10
2.37934e-10
2.63076e-10
2.90641e-10
3.20831e-10
3.53859e-10
3.89949e-10
4.29341e-10
4.72285e-10
5.19042e-10
5.69886e-10
6.25104e-10
6.8499e-10
7.49849e-10
8.19996e-10
8.95751e-10
9.7744e-10
1.06539e-09
1.15994e-09
1.26142e-09
1.37014e-09
1.48643e-09
1.6106e-09
1.74295e-09
1.88374e-09
2.03323e-09
2.19165e-09
2.35919e-09
2.536e-09
2.7222e-09
2.91785e-09
3.12297e-09
3.33751e-09
3.56136e-09
3.79434e-09
4.03619e-09
4.28658e-09
4.5451e-09
4.81125e-09
5.08443e-09
5.36397e-09
5.64909e-09
5.93893e-09
6.23255e-09
6.52889e-09
6.82683e-09
7.12518e-09
7.42265e-09
7.71791e-09
8.00954e-09
8.29611e-09
8.57614e-09
8.84812e-09
9.11055e-09
9.36192e-09
9.60073e-09
9.82555e-09
1.0035e-08
1.02277e-08
1.04024e-08
1.0558e-08
1.06934e-08
1.08077e-08
1.09001e-08
1.09701e-08
1.1017e-08
1.10407e-08
1.10409e-08
1.10176e-08
1.0971e-08
1.09016e-08
1.08097e-08
1.0696e-08
1.05614e-08
1.04068e-08
1.02333e-08
1.00421e-08
9.83434e-09
9.61152e-09
9.37502e-09
9.12634e-09
8.86697e-09
8.59845e-09
8.32231e-09
8.04006e-09
7.75318e-09
7.46312e-09
7.17127e-09
6.87896e-09
6.58743e-09
6.29785e-09
6.01131e-09
5.7288e-09
5.45122e-09
5.17937e-09
4.91394e-09
4.65556e-09
4.40473e-09
4.16189e-09
3.92736e-09
3.70141e-09
3.48422e-09
3.2759e-09
3.0765e-09