/*--------------------------------*- C++ -*----------------------------------*\
| =========                 |                                                 |
| \\      /  F ield         | OpenFOAM: The Open Source CFD Toolbox           |
|  \\    /   O peration     | Version:  v2012                                 |
|   \\  /    A nd           | Website:  www.openfoam.com                      |
|    \\/     M anipulation  |                                                 |
\*---------------------------------------------------------------------------*/
FoamFile
{
    version     2.0;
    format      ascii;
    class       volVectorField;
    location    "15.2";
    object      U;
}
// * * * * * * * * * * * * * * * * * * * * * * * * * * * * * * * * * * * * * //

dimensions      [0 1 -1 0 0 0 0];


internalField   nonuniform List<vector> 
65536
(
(0.000692786 -0.000692804 0)
(0.0020784 -0.000692846 0)
(0.00346414 -0.000692926 0)
(0.00485007 -0.000693045 0)
(0.00623628 -0.000693203 0)
(0.00762285 -0.000693399 0)
(0.00900985 -0.000693634 0)
(0.0103974 -0.000693907 0)
(0.0117854 -0.000694216 0)
(0.0131742 -0.000694562 0)
(0.0145637 -0.000694942 0)
(0.0159539 -0.000695357 0)
(0.0173451 -0.000695805 0)
(0.0187371 -0.000696285 0)
(0.0201302 -0.000696796 0)
(0.0215243 -0.000697335 0)
(0.0229195 -0.000697902 0)
(0.0243159 -0.000698495 0)
(0.0257135 -0.000699111 0)
(0.0271123 -0.00069975 0)
(0.0285124 -0.000700409 0)
(0.0299139 -0.000701085 0)
(0.0313168 -0.000701777 0)
(0.032721 -0.000702482 0)
(0.0341267 -0.000703198 0)
(0.0355338 -0.000703921 0)
(0.0369424 -0.00070465 0)
(0.0383524 -0.000705381 0)
(0.0397639 -0.000706111 0)
(0.0411769 -0.000706836 0)
(0.0425913 -0.000707554 0)
(0.0440071 -0.000708261 0)
(0.0454243 -0.000708952 0)
(0.0468429 -0.000709626 0)
(0.0482629 -0.000710276 0)
(0.0496841 -0.0007109 0)
(0.0511065 -0.000711493 0)
(0.0525301 -0.000712051 0)
(0.0539547 -0.000712568 0)
(0.0553804 -0.00071304 0)
(0.056807 -0.000713463 0)
(0.0582343 -0.000713831 0)
(0.0596623 -0.00071414 0)
(0.0610909 -0.000714382 0)
(0.0625199 -0.000714554 0)
(0.0639492 -0.000714649 0)
(0.0653786 -0.000714662 0)
(0.066808 -0.000714587 0)
(0.0682371 -0.000714417 0)
(0.0696657 -0.000714146 0)
(0.0710938 -0.000713768 0)
(0.0725209 -0.000713277 0)
(0.073947 -0.000712665 0)
(0.0753717 -0.000711926 0)
(0.0767948 -0.000711052 0)
(0.0782161 -0.000710038 0)
(0.0796351 -0.000708876 0)
(0.0810517 -0.000707558 0)
(0.0824655 -0.000706078 0)
(0.0838762 -0.000704428 0)
(0.0852834 -0.0007026 0)
(0.0866868 -0.000700588 0)
(0.088086 -0.000698383 0)
(0.0894805 -0.000695979 0)
(0.0908701 -0.000693367 0)
(0.0922542 -0.000690541 0)
(0.0936325 -0.000687493 0)
(0.0950044 -0.000684215 0)
(0.0963696 -0.000680701 0)
(0.0977275 -0.000676942 0)
(0.0990776 -0.000672932 0)
(0.100419 -0.000668665 0)
(0.101753 -0.000664132 0)
(0.103076 -0.000659328 0)
(0.10439 -0.000654245 0)
(0.105693 -0.000648878 0)
(0.106986 -0.000643221 0)
(0.108267 -0.000637267 0)
(0.109535 -0.000631012 0)
(0.110791 -0.00062445 0)
(0.112033 -0.000617577 0)
(0.113262 -0.000610387 0)
(0.114475 -0.000602877 0)
(0.115673 -0.000595044 0)
(0.116856 -0.000586883 0)
(0.118021 -0.000578392 0)
(0.11917 -0.000569569 0)
(0.1203 -0.000560411 0)
(0.121412 -0.000550919 0)
(0.122504 -0.00054109 0)
(0.123576 -0.000530924 0)
(0.124628 -0.000520423 0)
(0.125658 -0.000509586 0)
(0.126667 -0.000498416 0)
(0.127652 -0.000486914 0)
(0.128615 -0.000475084 0)
(0.129553 -0.000462928 0)
(0.130467 -0.000450451 0)
(0.131355 -0.000437657 0)
(0.132218 -0.000424552 0)
(0.133054 -0.000411142 0)
(0.133862 -0.000397433 0)
(0.134644 -0.000383432 0)
(0.135396 -0.000369148 0)
(0.13612 -0.000354589 0)
(0.136815 -0.000339764 0)
(0.13748 -0.000324683 0)
(0.138114 -0.000309356 0)
(0.138717 -0.000293794 0)
(0.139289 -0.000278008 0)
(0.13983 -0.000262011 0)
(0.140338 -0.000245815 0)
(0.140813 -0.000229432 0)
(0.141256 -0.000212876 0)
(0.141665 -0.000196161 0)
(0.14204 -0.000179301 0)
(0.142382 -0.00016231 0)
(0.14269 -0.000145203 0)
(0.142963 -0.000127996 0)
(0.143202 -0.000110702 0)
(0.143406 -9.33379e-05 0)
(0.143575 -7.5919e-05 0)
(0.14371 -5.84609e-05 0)
(0.143809 -4.09793e-05 0)
(0.143874 -2.34898e-05 0)
(0.143903 -6.00815e-06 0)
(0.143898 1.145e-05 0)
(0.143857 2.88693e-05 0)
(0.143782 4.62342e-05 0)
(0.143672 6.35296e-05 0)
(0.143528 8.07406e-05 0)
(0.143349 9.78526e-05 0)
(0.143136 0.000114851 0)
(0.14289 0.000131722 0)
(0.142609 0.000148452 0)
(0.142296 0.000165027 0)
(0.141949 0.000181435 0)
(0.14157 0.000197663 0)
(0.141158 0.000213699 0)
(0.140715 0.000229532 0)
(0.14024 0.000245151 0)
(0.139734 0.000260545 0)
(0.139197 0.000275705 0)
(0.138631 0.000290621 0)
(0.138035 0.000305285 0)
(0.137409 0.000319689 0)
(0.136756 0.000333824 0)
(0.136074 0.000347684 0)
(0.135365 0.000361263 0)
(0.134628 0.000374554 0)
(0.133866 0.000387553 0)
(0.133078 0.000400255 0)
(0.132265 0.000412656 0)
(0.131427 0.000424752 0)
(0.130565 0.000436541 0)
(0.12968 0.00044802 0)
(0.128773 0.000459188 0)
(0.127843 0.000470043 0)
(0.126892 0.000480585 0)
(0.125921 0.000490812 0)
(0.124929 0.000500727 0)
(0.123918 0.000510328 0)
(0.122887 0.000519618 0)
(0.121839 0.000528598 0)
(0.120773 0.000537269 0)
(0.119689 0.000545635 0)
(0.11859 0.000553698 0)
(0.117474 0.000561461 0)
(0.116344 0.000568927 0)
(0.115198 0.000576101 0)
(0.114039 0.000582986 0)
(0.112866 0.000589587 0)
(0.11168 0.000595908 0)
(0.110482 0.000601954 0)
(0.109272 0.000607729 0)
(0.108051 0.00061324 0)
(0.106819 0.000618492 0)
(0.105577 0.000623489 0)
(0.104325 0.000628238 0)
(0.103064 0.000632745 0)
(0.101794 0.000637015 0)
(0.100515 0.000641054 0)
(0.0992291 0.000644868 0)
(0.0979355 0.000648465 0)
(0.096635 0.000651849 0)
(0.0953279 0.000655026 0)
(0.0940147 0.000658005 0)
(0.0926957 0.000660789 0)
(0.0913714 0.000663386 0)
(0.090042 0.000665803 0)
(0.088708 0.000668044 0)
(0.0873697 0.000670116 0)
(0.0860274 0.000672027 0)
(0.0846814 0.00067378 0)
(0.0833321 0.000675384 0)
(0.0819797 0.000676843 0)
(0.0806246 0.000678164 0)
(0.0792669 0.000679352 0)
(0.077907 0.000680413 0)
(0.0765452 0.000681353 0)
(0.0751815 0.000682178 0)
(0.0738163 0.000682892 0)
(0.0724498 0.000683502 0)
(0.0710822 0.000684013 0)
(0.0697137 0.000684429 0)
(0.0683444 0.000684757 0)
(0.0669746 0.000685001 0)
(0.0656044 0.000685165 0)
(0.0642339 0.000685255 0)
(0.0628633 0.000685276 0)
(0.0614927 0.000685231 0)
(0.0601223 0.000685125 0)
(0.0587521 0.000684963 0)
(0.0573824 0.000684749 0)
(0.0560131 0.000684487 0)
(0.0546444 0.000684181 0)
(0.0532763 0.000683834 0)
(0.051909 0.000683451 0)
(0.0505425 0.000683035 0)
(0.0491769 0.000682589 0)
(0.0478121 0.000682117 0)
(0.0464484 0.000681623 0)
(0.0450856 0.000681109 0)
(0.0437239 0.000680579 0)
(0.0423633 0.000680035 0)
(0.0410038 0.00067948 0)
(0.0396454 0.000678918 0)
(0.0382881 0.00067835 0)
(0.036932 0.000677779 0)
(0.035577 0.000677208 0)
(0.0342232 0.00067664 0)
(0.0328704 0.000676075 0)
(0.0315189 0.000675517 0)
(0.0301684 0.000674967 0)
(0.028819 0.000674428 0)
(0.0274707 0.000673901 0)
(0.0261234 0.000673388 0)
(0.0247772 0.00067289 0)
(0.0234319 0.00067241 0)
(0.0220875 0.000671948 0)
(0.0207441 0.000671507 0)
(0.0194015 0.000671087 0)
(0.0180598 0.000670689 0)
(0.0167188 0.000670315 0)
(0.0153786 0.000669966 0)
(0.014039 0.000669643 0)
(0.0127 0.000669346 0)
(0.0113616 0.000669077 0)
(0.0100238 0.000668836 0)
(0.00868632 0.000668624 0)
(0.00734929 0.000668441 0)
(0.00601259 0.000668287 0)
(0.00467618 0.000668164 0)
(0.00333997 0.000668072 0)
(0.00200392 0.000668011 0)
(0.000667964 0.000667979 0)
(0.00069275 -0.00207838 0)
(0.00207829 -0.00207851 0)
(0.00346395 -0.00207874 0)
(0.00484981 -0.0020791 0)
(0.00623594 -0.00207957 0)
(0.00762243 -0.00208017 0)
(0.00900936 -0.00208087 0)
(0.0103968 -0.00208169 0)
(0.0117848 -0.00208262 0)
(0.0131735 -0.00208365 0)
(0.0145629 -0.0020848 0)
(0.0159531 -0.00208604 0)
(0.0173442 -0.00208739 0)
(0.0187362 -0.00208883 0)
(0.0201292 -0.00209036 0)
(0.0215232 -0.00209198 0)
(0.0229184 -0.00209369 0)
(0.0243147 -0.00209547 0)
(0.0257122 -0.00209732 0)
(0.027111 -0.00209923 0)
(0.0285112 -0.00210121 0)
(0.0299126 -0.00210324 0)
(0.0313154 -0.00210532 0)
(0.0327197 -0.00210744 0)
(0.0341253 -0.00210959 0)
(0.0355324 -0.00211176 0)
(0.036941 -0.00211395 0)
(0.038351 -0.00211615 0)
(0.0397625 -0.00211834 0)
(0.0411755 -0.00212052 0)
(0.0425899 -0.00212268 0)
(0.0440058 -0.0021248 0)
(0.045423 -0.00212688 0)
(0.0468417 -0.0021289 0)
(0.0482617 -0.00213086 0)
(0.0496829 -0.00213274 0)
(0.0511054 -0.00213452 0)
(0.0525291 -0.0021362 0)
(0.0539538 -0.00213775 0)
(0.0553796 -0.00213917 0)
(0.0568062 -0.00214045 0)
(0.0582337 -0.00214156 0)
(0.0596619 -0.00214249 0)
(0.0610906 -0.00214322 0)
(0.0625198 -0.00214374 0)
(0.0639492 -0.00214403 0)
(0.0653788 -0.00214408 0)
(0.0668083 -0.00214386 0)
(0.0682376 -0.00214335 0)
(0.0696665 -0.00214255 0)
(0.0710947 -0.00214142 0)
(0.0725221 -0.00213995 0)
(0.0739484 -0.00213812 0)
(0.0753734 -0.00213591 0)
(0.0767968 -0.0021333 0)
(0.0782183 -0.00213026 0)
(0.0796377 -0.00212678 0)
(0.0810546 -0.00212284 0)
(0.0824688 -0.0021184 0)
(0.0838798 -0.00211346 0)
(0.0852874 -0.00210798 0)
(0.0866911 -0.00210195 0)
(0.0880907 -0.00209535 0)
(0.0894856 -0.00208814 0)
(0.0908756 -0.00208032 0)
(0.0922602 -0.00207184 0)
(0.0936389 -0.00206271 0)
(0.0950113 -0.00205288 0)
(0.0963769 -0.00204234 0)
(0.0977353 -0.00203108 0)
(0.099086 -0.00201905 0)
(0.100428 -0.00200626 0)
(0.101762 -0.00199267 0)
(0.103086 -0.00197826 0)
(0.104401 -0.00196302 0)
(0.105705 -0.00194692 0)
(0.106998 -0.00192996 0)
(0.108279 -0.0019121 0)
(0.109548 -0.00189334 0)
(0.110805 -0.00187366 0)
(0.112048 -0.00185304 0)
(0.113276 -0.00183148 0)
(0.114491 -0.00180895 0)
(0.11569 -0.00178545 0)
(0.116872 -0.00176097 0)
(0.118039 -0.0017355 0)
(0.119188 -0.00170904 0)
(0.120319 -0.00168157 0)
(0.121431 -0.00165309 0)
(0.122524 -0.0016236 0)
(0.123597 -0.0015931 0)
(0.124649 -0.0015616 0)
(0.12568 -0.00152909 0)
(0.126689 -0.00149558 0)
(0.127676 -0.00146107 0)
(0.128639 -0.00142557 0)
(0.129578 -0.0013891 0)
(0.130492 -0.00135166 0)
(0.131381 -0.00131328 0)
(0.132244 -0.00127396 0)
(0.133081 -0.00123372 0)
(0.13389 -0.00119258 0)
(0.134672 -0.00115057 0)
(0.135425 -0.00110771 0)
(0.13615 -0.00106403 0)
(0.136845 -0.00101954 0)
(0.13751 -0.000974289 0)
(0.138145 -0.000928297 0)
(0.138749 -0.0008816 0)
(0.139321 -0.000834231 0)
(0.139862 -0.000786227 0)
(0.14037 -0.000737624 0)
(0.140846 -0.000688463 0)
(0.141289 -0.000638782 0)
(0.141698 -0.000588623 0)
(0.142074 -0.000538028 0)
(0.142416 -0.000487041 0)
(0.142724 -0.000435705 0)
(0.142998 -0.000384066 0)
(0.143236 -0.00033217 0)
(0.143441 -0.000280062 0)
(0.14361 -0.00022779 0)
(0.143745 -0.0001754 0)
(0.143844 -0.00012294 0)
(0.143908 -7.04555e-05 0)
(0.143938 -1.7995e-05 0)
(0.143932 3.4395e-05 0)
(0.143892 8.6668e-05 0)
(0.143817 0.000138778 0)
(0.143707 0.000190679 0)
(0.143562 0.000242327 0)
(0.143383 0.000293677 0)
(0.14317 0.000344686 0)
(0.142923 0.000395313 0)
(0.142642 0.000445515 0)
(0.142329 0.000495253 0)
(0.141982 0.000544489 0)
(0.141602 0.000593185 0)
(0.14119 0.000641305 0)
(0.140746 0.000688815 0)
(0.140271 0.000735682 0)
(0.139764 0.000781875 0)
(0.139227 0.000827364 0)
(0.13866 0.000872122 0)
(0.138064 0.000916121 0)
(0.137438 0.000959339 0)
(0.136783 0.00100175 0)
(0.136101 0.00104334 0)
(0.135391 0.00108408 0)
(0.134655 0.00112396 0)
(0.133892 0.00116296 0)
(0.133103 0.00120107 0)
(0.132289 0.00123828 0)
(0.131451 0.00127457 0)
(0.130589 0.00130994 0)
(0.129703 0.00134438 0)
(0.128795 0.00137788 0)
(0.127865 0.00141045 0)
(0.126913 0.00144207 0)
(0.125941 0.00147275 0)
(0.124948 0.0015025 0)
(0.123936 0.0015313 0)
(0.122905 0.00155917 0)
(0.121856 0.0015861 0)
(0.12079 0.00161212 0)
(0.119706 0.00163721 0)
(0.118605 0.0016614 0)
(0.117489 0.00168468 0)
(0.116358 0.00170708 0)
(0.115212 0.00172859 0)
(0.114052 0.00174925 0)
(0.112879 0.00176904 0)
(0.111693 0.001788 0)
(0.110494 0.00180613 0)
(0.109283 0.00182345 0)
(0.108062 0.00183998 0)
(0.106829 0.00185573 0)
(0.105586 0.00187072 0)
(0.104334 0.00188496 0)
(0.103072 0.00189847 0)
(0.101802 0.00191127 0)
(0.100523 0.00192339 0)
(0.0992364 0.00193482 0)
(0.0979424 0.00194561 0)
(0.0966415 0.00195575 0)
(0.095334 0.00196528 0)
(0.0940204 0.00197421 0)
(0.092701 0.00198255 0)
(0.0913763 0.00199034 0)
(0.0900466 0.00199758 0)
(0.0887122 0.0020043 0)
(0.0873735 0.00201051 0)
(0.0860309 0.00201624 0)
(0.0846846 0.00202149 0)
(0.083335 0.00202629 0)
(0.0819824 0.00203067 0)
(0.080627 0.00203462 0)
(0.0792691 0.00203818 0)
(0.0779089 0.00204136 0)
(0.0765468 0.00204417 0)
(0.075183 0.00204664 0)
(0.0738176 0.00204878 0)
(0.0724509 0.0020506 0)
(0.0710831 0.00205213 0)
(0.0697144 0.00205338 0)
(0.0683449 0.00205435 0)
(0.0669749 0.00205508 0)
(0.0656045 0.00205557 0)
(0.0642339 0.00205583 0)
(0.0628632 0.00205589 0)
(0.0614925 0.00205575 0)
(0.0601219 0.00205543 0)
(0.0587517 0.00205494 0)
(0.0573818 0.00205429 0)
(0.0560125 0.0020535 0)
(0.0546437 0.00205258 0)
(0.0532755 0.00205153 0)
(0.0519081 0.00205038 0)
(0.0505416 0.00204913 0)
(0.0491759 0.00204779 0)
(0.0478111 0.00204637 0)
(0.0464473 0.00204488 0)
(0.0450845 0.00204334 0)
(0.0437228 0.00204175 0)
(0.0423621 0.00204011 0)
(0.0410026 0.00203844 0)
(0.0396442 0.00203675 0)
(0.0382869 0.00203505 0)
(0.0369308 0.00203333 0)
(0.0355758 0.00203162 0)
(0.034222 0.00202991 0)
(0.0328693 0.00202821 0)
(0.0315177 0.00202654 0)
(0.0301673 0.00202489 0)
(0.0288179 0.00202327 0)
(0.0274696 0.00202168 0)
(0.0261224 0.00202014 0)
(0.0247761 0.00201865 0)
(0.0234309 0.00201721 0)
(0.0220866 0.00201582 0)
(0.0207432 0.00201449 0)
(0.0194007 0.00201323 0)
(0.018059 0.00201204 0)
(0.0167181 0.00201092 0)
(0.0153779 0.00200987 0)
(0.0140383 0.0020089 0)
(0.0126994 0.00200801 0)
(0.0113611 0.0020072 0)
(0.0100233 0.00200647 0)
(0.00868592 0.00200584 0)
(0.00734894 0.00200529 0)
(0.00601231 0.00200483 0)
(0.00467595 0.00200446 0)
(0.00333982 0.00200418 0)
(0.00200383 0.002004 0)
(0.000667933 0.00200391 0)
(0.000692669 -0.00346384 0)
(0.00207805 -0.00346404 0)
(0.00346355 -0.00346444 0)
(0.00484925 -0.00346504 0)
(0.00623523 -0.00346583 0)
(0.00762156 -0.00346682 0)
(0.00900833 -0.00346799 0)
(0.0103956 -0.00346936 0)
(0.0117835 -0.00347091 0)
(0.013172 -0.00347264 0)
(0.0145613 -0.00347455 0)
(0.0159514 -0.00347663 0)
(0.0173423 -0.00347888 0)
(0.0187342 -0.00348128 0)
(0.020127 -0.00348384 0)
(0.021521 -0.00348655 0)
(0.022916 -0.00348939 0)
(0.0243123 -0.00349236 0)
(0.0257097 -0.00349546 0)
(0.0271084 -0.00349866 0)
(0.0285085 -0.00350196 0)
(0.0299098 -0.00350536 0)
(0.0313126 -0.00350883 0)
(0.0327168 -0.00351237 0)
(0.0341224 -0.00351596 0)
(0.0355295 -0.00351959 0)
(0.036938 -0.00352325 0)
(0.0383481 -0.00352692 0)
(0.0397596 -0.00353058 0)
(0.0411726 -0.00353423 0)
(0.042587 -0.00353783 0)
(0.0440029 -0.00354138 0)
(0.0454203 -0.00354486 0)
(0.046839 -0.00354825 0)
(0.0482591 -0.00355152 0)
(0.0496804 -0.00355466 0)
(0.0511031 -0.00355765 0)
(0.0525269 -0.00356046 0)
(0.0539518 -0.00356307 0)
(0.0553777 -0.00356546 0)
(0.0568046 -0.0035676 0)
(0.0582323 -0.00356946 0)
(0.0596607 -0.00357103 0)
(0.0610897 -0.00357227 0)
(0.0625192 -0.00357316 0)
(0.0639489 -0.00357366 0)
(0.0653788 -0.00357376 0)
(0.0668087 -0.00357341 0)
(0.0682384 -0.00357259 0)
(0.0696677 -0.00357127 0)
(0.0710964 -0.00356941 0)
(0.0725243 -0.00356699 0)
(0.0739511 -0.00356396 0)
(0.0753766 -0.0035603 0)
(0.0768005 -0.00355597 0)
(0.0782226 -0.00355093 0)
(0.0796426 -0.00354516 0)
(0.0810601 -0.00353861 0)
(0.0824749 -0.00353124 0)
(0.0838867 -0.00352303 0)
(0.085295 -0.00351392 0)
(0.0866995 -0.0035039 0)
(0.0880998 -0.00349291 0)
(0.0894956 -0.00348093 0)
(0.0908864 -0.00346791 0)
(0.0922719 -0.00345381 0)
(0.0936515 -0.00343861 0)
(0.0950248 -0.00342226 0)
(0.0963914 -0.00340472 0)
(0.0977508 -0.00338596 0)
(0.0991024 -0.00336595 0)
(0.100446 -0.00334465 0)
(0.101781 -0.00332201 0)
(0.103106 -0.00329802 0)
(0.104421 -0.00327264 0)
(0.105727 -0.00324584 0)
(0.107021 -0.00321758 0)
(0.108303 -0.00318784 0)
(0.109574 -0.00315659 0)
(0.110831 -0.00312381 0)
(0.112076 -0.00308946 0)
(0.113306 -0.00305353 0)
(0.114521 -0.003016 0)
(0.115722 -0.00297685 0)
(0.116906 -0.00293606 0)
(0.118073 -0.00289361 0)
(0.119224 -0.00284951 0)
(0.120356 -0.00280373 0)
(0.12147 -0.00275627 0)
(0.122564 -0.00270712 0)
(0.123638 -0.00265629 0)
(0.124692 -0.00260378 0)
(0.125724 -0.00254959 0)
(0.126735 -0.00249373 0)
(0.127722 -0.00243621 0)
(0.128687 -0.00237704 0)
(0.129627 -0.00231624 0)
(0.130543 -0.00225383 0)
(0.131433 -0.00218983 0)
(0.132297 -0.00212428 0)
(0.133135 -0.00205719 0)
(0.133946 -0.00198861 0)
(0.134729 -0.00191857 0)
(0.135483 -0.00184711 0)
(0.136209 -0.00177427 0)
(0.136905 -0.00170009 0)
(0.137571 -0.00162463 0)
(0.138207 -0.00154794 0)
(0.138812 -0.00147008 0)
(0.139385 -0.00139109 0)
(0.139926 -0.00131104 0)
(0.140436 -0.00122999 0)
(0.140912 -0.00114801 0)
(0.141355 -0.00106517 0)
(0.141766 -0.000981521 0)
(0.142142 -0.000897148 0)
(0.142484 -0.00081212 0)
(0.142793 -0.000726511 0)
(0.143067 -0.000640395 0)
(0.143306 -0.00055385 0)
(0.14351 -0.000466952 0)
(0.14368 -0.00037978 0)
(0.143814 -0.000292411 0)
(0.143914 -0.000204924 0)
(0.143978 -0.000117398 0)
(0.144008 -2.99121e-05 0)
(0.144002 5.74563e-05 0)
(0.143962 0.000144629 0)
(0.143886 0.00023153 0)
(0.143776 0.000318081 0)
(0.143631 0.00040421 0)
(0.143451 0.000489841 0)
(0.143238 0.000574904 0)
(0.14299 0.000659327 0)
(0.142709 0.000743042 0)
(0.142395 0.000825982 0)
(0.142047 0.000908083 0)
(0.141666 0.000989283 0)
(0.141254 0.00106952 0)
(0.140809 0.00114874 0)
(0.140333 0.00122689 0)
(0.139825 0.00130391 0)
(0.139288 0.00137975 0)
(0.138719 0.00145438 0)
(0.138122 0.00152774 0)
(0.137495 0.00159979 0)
(0.13684 0.0016705 0)
(0.136156 0.00173984 0)
(0.135445 0.00180776 0)
(0.134707 0.00187424 0)
(0.133943 0.00193926 0)
(0.133153 0.00200279 0)
(0.132338 0.00206481 0)
(0.131499 0.00212531 0)
(0.130635 0.00218426 0)
(0.129748 0.00224167 0)
(0.128839 0.00229751 0)
(0.127908 0.00235179 0)
(0.126955 0.0024045 0)
(0.125981 0.00245564 0)
(0.124987 0.0025052 0)
(0.123974 0.00255321 0)
(0.122942 0.00259965 0)
(0.121892 0.00264453 0)
(0.120824 0.00268788 0)
(0.119739 0.0027297 0)
(0.118637 0.00276999 0)
(0.11752 0.00280879 0)
(0.116387 0.00284611 0)
(0.11524 0.00288195 0)
(0.114079 0.00291636 0)
(0.112905 0.00294934 0)
(0.111717 0.00298092 0)
(0.110518 0.00301112 0)
(0.109306 0.00303997 0)
(0.108083 0.0030675 0)
(0.10685 0.00309373 0)
(0.105606 0.00311869 0)
(0.104352 0.0031424 0)
(0.10309 0.00316491 0)
(0.101818 0.00318623 0)
(0.100539 0.00320639 0)
(0.0992512 0.00322543 0)
(0.0979564 0.00324338 0)
(0.0966546 0.00326027 0)
(0.0953463 0.00327613 0)
(0.0940319 0.00329099 0)
(0.0927118 0.00330488 0)
(0.0913863 0.00331784 0)
(0.0900559 0.00332989 0)
(0.0887208 0.00334106 0)
(0.0873815 0.00335139 0)
(0.0860383 0.00336091 0)
(0.0846914 0.00336965 0)
(0.0833412 0.00337764 0)
(0.081988 0.0033849 0)
(0.080632 0.00339148 0)
(0.0792736 0.00339739 0)
(0.077913 0.00340267 0)
(0.0765504 0.00340734 0)
(0.0751861 0.00341143 0)
(0.0738202 0.00341498 0)
(0.0724531 0.003418 0)
(0.0710849 0.00342053 0)
(0.0697159 0.00342259 0)
(0.0683461 0.0034242 0)
(0.0669757 0.00342539 0)
(0.065605 0.00342619 0)
(0.0642341 0.00342662 0)
(0.0628631 0.0034267 0)
(0.0614922 0.00342645 0)
(0.0601214 0.0034259 0)
(0.0587509 0.00342507 0)
(0.0573809 0.00342398 0)
(0.0560113 0.00342265 0)
(0.0546424 0.0034211 0)
(0.0532741 0.00341935 0)
(0.0519066 0.00341741 0)
(0.0505399 0.00341531 0)
(0.0491741 0.00341307 0)
(0.0478092 0.00341069 0)
(0.0464453 0.00340821 0)
(0.0450824 0.00340562 0)
(0.0437206 0.00340295 0)
(0.04236 0.00340022 0)
(0.0410004 0.00339743 0)
(0.0396419 0.00339461 0)
(0.0382846 0.00339175 0)
(0.0369285 0.00338889 0)
(0.0355735 0.00338602 0)
(0.0342197 0.00338317 0)
(0.032867 0.00338034 0)
(0.0315155 0.00337753 0)
(0.0301651 0.00337478 0)
(0.0288158 0.00337207 0)
(0.0274675 0.00336943 0)
(0.0261204 0.00336685 0)
(0.0247742 0.00336436 0)
(0.023429 0.00336195 0)
(0.0220848 0.00335963 0)
(0.0207415 0.00335742 0)
(0.0193991 0.00335531 0)
(0.0180575 0.00335332 0)
(0.0167166 0.00335144 0)
(0.0153765 0.00334969 0)
(0.0140371 0.00334807 0)
(0.0126983 0.00334658 0)
(0.0113601 0.00334524 0)
(0.0100224 0.00334403 0)
(0.00868513 0.00334296 0)
(0.00734827 0.00334205 0)
(0.00601176 0.00334128 0)
(0.00467552 0.00334066 0)
(0.00333951 0.0033402 0)
(0.00200364 0.00333989 0)
(0.000667871 0.00333974 0)
(0.000692548 -0.0048491 0)
(0.00207769 -0.00484938 0)
(0.00346295 -0.00484994 0)
(0.00484841 -0.00485078 0)
(0.00623415 -0.00485189 0)
(0.00762025 -0.00485327 0)
(0.00900679 -0.00485492 0)
(0.0103938 -0.00485684 0)
(0.0117815 -0.00485902 0)
(0.0131698 -0.00486145 0)
(0.0145589 -0.00486413 0)
(0.0159487 -0.00486705 0)
(0.0173395 -0.0048702 0)
(0.0187312 -0.00487358 0)
(0.0201238 -0.00487718 0)
(0.0215176 -0.00488097 0)
(0.0229125 -0.00488497 0)
(0.0243086 -0.00488914 0)
(0.0257059 -0.00489348 0)
(0.0271045 -0.00489798 0)
(0.0285044 -0.00490262 0)
(0.0299057 -0.00490739 0)
(0.0313083 -0.00491227 0)
(0.0327124 -0.00491724 0)
(0.034118 -0.00492229 0)
(0.035525 -0.00492739 0)
(0.0369336 -0.00493253 0)
(0.0383436 -0.00493769 0)
(0.0397551 -0.00494284 0)
(0.0411681 -0.00494797 0)
(0.0425827 -0.00495304 0)
(0.0439986 -0.00495804 0)
(0.0454161 -0.00496294 0)
(0.0468349 -0.00496771 0)
(0.0482551 -0.00497232 0)
(0.0496767 -0.00497674 0)
(0.0510995 -0.00498096 0)
(0.0525235 -0.00498492 0)
(0.0539487 -0.00498861 0)
(0.0553749 -0.00499199 0)
(0.0568021 -0.00499502 0)
(0.0582302 -0.00499767 0)
(0.0596589 -0.0049999 0)
(0.0610883 -0.00500167 0)
(0.0625182 -0.00500296 0)
(0.0639485 -0.00500371 0)
(0.0653789 -0.00500388 0)
(0.0668093 -0.00500344 0)
(0.0682396 -0.00500233 0)
(0.0696695 -0.00500053 0)
(0.0710989 -0.00499797 0)
(0.0725274 -0.00499463 0)
(0.073955 -0.00499044 0)
(0.0753813 -0.00498536 0)
(0.076806 -0.00497934 0)
(0.078229 -0.00497234 0)
(0.0796499 -0.00496431 0)
(0.0810684 -0.00495518 0)
(0.0824842 -0.00494492 0)
(0.083897 -0.00493348 0)
(0.0853063 -0.00492079 0)
(0.086712 -0.0049068 0)
(0.0881135 -0.00489148 0)
(0.0895105 -0.00487475 0)
(0.0909026 -0.00485657 0)
(0.0922893 -0.00483689 0)
(0.0936703 -0.00481566 0)
(0.095045 -0.00479282 0)
(0.0964131 -0.00476832 0)
(0.0977739 -0.00474211 0)
(0.0991271 -0.00471414 0)
(0.100472 -0.00468436 0)
(0.101808 -0.00465272 0)
(0.103135 -0.00461918 0)
(0.104453 -0.00458369 0)
(0.10576 -0.00454621 0)
(0.107055 -0.00450669 0)
(0.10834 -0.00446509 0)
(0.109612 -0.00442138 0)
(0.110872 -0.00437551 0)
(0.112118 -0.00432746 0)
(0.11335 -0.00427719 0)
(0.114567 -0.00422467 0)
(0.115769 -0.00416988 0)
(0.116956 -0.00411279 0)
(0.118125 -0.00405339 0)
(0.119277 -0.00399165 0)
(0.120412 -0.00392757 0)
(0.121528 -0.00386113 0)
(0.122624 -0.00379233 0)
(0.1237 -0.00372117 0)
(0.124756 -0.00364765 0)
(0.12579 -0.00357177 0)
(0.126803 -0.00349355 0)
(0.127792 -0.003413 0)
(0.128759 -0.00333013 0)
(0.129701 -0.00324499 0)
(0.130618 -0.00315758 0)
(0.131511 -0.00306795 0)
(0.132377 -0.00297613 0)
(0.133216 -0.00288217 0)
(0.134029 -0.0027861 0)
(0.134813 -0.00268799 0)
(0.13557 -0.00258788 0)
(0.136297 -0.00248584 0)
(0.136995 -0.00238193 0)
(0.137662 -0.00227621 0)
(0.1383 -0.00216877 0)
(0.138906 -0.00205968 0)
(0.13948 -0.00194901 0)
(0.140023 -0.00183686 0)
(0.140533 -0.0017233 0)
(0.141011 -0.00160843 0)
(0.141455 -0.00149235 0)
(0.141866 -0.00137515 0)
(0.142244 -0.00125692 0)
(0.142587 -0.00113778 0)
(0.142896 -0.00101782 0)
(0.14317 -0.000897156 0)
(0.14341 -0.000775885 0)
(0.143615 -0.000654119 0)
(0.143785 -0.000531968 0)
(0.143919 -0.000409541 0)
(0.144019 -0.000286949 0)
(0.144084 -0.000164303 0)
(0.144113 -4.1713e-05 0)
(0.144107 8.07115e-05 0)
(0.144066 0.000202861 0)
(0.14399 0.000324628 0)
(0.143879 0.000445906 0)
(0.143734 0.000566588 0)
(0.143554 0.000686573 0)
(0.14334 0.000805759 0)
(0.143091 0.000924047 0)
(0.142809 0.00104134 0)
(0.142494 0.00115755 0)
(0.142145 0.00127258 0)
(0.141763 0.00138634 0)
(0.141349 0.00149875 0)
(0.140904 0.00160974 0)
(0.140426 0.00171922 0)
(0.139917 0.00182712 0)
(0.139378 0.00193336 0)
(0.138808 0.0020379 0)
(0.138209 0.00214066 0)
(0.137581 0.00224159 0)
(0.136924 0.00234063 0)
(0.136238 0.00243774 0)
(0.135526 0.00253287 0)
(0.134786 0.00262599 0)
(0.13402 0.00271704 0)
(0.133229 0.00280601 0)
(0.132412 0.00289287 0)
(0.13157 0.00297758 0)
(0.130705 0.00306014 0)
(0.129816 0.00314052 0)
(0.128905 0.00321871 0)
(0.127972 0.0032947 0)
(0.127017 0.0033685 0)
(0.126042 0.00344009 0)
(0.125046 0.00350948 0)
(0.124031 0.00357667 0)
(0.122997 0.00364168 0)
(0.121945 0.00370451 0)
(0.120875 0.00376517 0)
(0.119788 0.0038237 0)
(0.118685 0.00388009 0)
(0.117566 0.00393438 0)
(0.116431 0.0039866 0)
(0.115283 0.00403676 0)
(0.11412 0.00408489 0)
(0.112944 0.00413103 0)
(0.111754 0.00417521 0)
(0.110553 0.00421746 0)
(0.10934 0.00425782 0)
(0.108115 0.00429632 0)
(0.10688 0.004333 0)
(0.105635 0.0043679 0)
(0.10438 0.00440106 0)
(0.103116 0.00443253 0)
(0.101843 0.00446233 0)
(0.100562 0.00449052 0)
(0.0992735 0.00451714 0)
(0.0979773 0.00454222 0)
(0.0966743 0.00456583 0)
(0.0953648 0.00458798 0)
(0.0940492 0.00460874 0)
(0.0927279 0.00462815 0)
(0.0914014 0.00464624 0)
(0.0900699 0.00466306 0)
(0.0887338 0.00467867 0)
(0.0873935 0.00469309 0)
(0.0860493 0.00470637 0)
(0.0847015 0.00471856 0)
(0.0833504 0.0047297 0)
(0.0819963 0.00473983 0)
(0.0806395 0.004749 0)
(0.0792803 0.00475723 0)
(0.077919 0.00476458 0)
(0.0765557 0.00477108 0)
(0.0751907 0.00477678 0)
(0.0738242 0.0047817 0)
(0.0724565 0.0047859 0)
(0.0710877 0.0047894 0)
(0.0697181 0.00479225 0)
(0.0683478 0.00479447 0)
(0.066977 0.00479611 0)
(0.0656058 0.00479719 0)
(0.0642345 0.00479775 0)
(0.0628631 0.00479783 0)
(0.0614917 0.00479746 0)
(0.0601206 0.00479666 0)
(0.0587498 0.00479547 0)
(0.0573795 0.00479391 0)
(0.0560096 0.00479202 0)
(0.0546404 0.00478982 0)
(0.0532719 0.00478734 0)
(0.0519042 0.00478461 0)
(0.0505373 0.00478164 0)
(0.0491713 0.00477848 0)
(0.0478063 0.00477513 0)
(0.0464423 0.00477162 0)
(0.0450793 0.00476798 0)
(0.0437174 0.00476423 0)
(0.0423567 0.00476038 0)
(0.040997 0.00475646 0)
(0.0396386 0.00475249 0)
(0.0382812 0.00474848 0)
(0.0369251 0.00474445 0)
(0.0355701 0.00474042 0)
(0.0342163 0.00473641 0)
(0.0328637 0.00473242 0)
(0.0315122 0.00472849 0)
(0.0301618 0.00472461 0)
(0.0288126 0.00472081 0)
(0.0274644 0.0047171 0)
(0.0261173 0.00471348 0)
(0.0247713 0.00470998 0)
(0.0234262 0.00470659 0)
(0.0220821 0.00470334 0)
(0.0207389 0.00470023 0)
(0.0193966 0.00469728 0)
(0.0180552 0.00469448 0)
(0.0167145 0.00469185 0)
(0.0153745 0.00468939 0)
(0.0140353 0.00468711 0)
(0.0126966 0.00468503 0)
(0.0113586 0.00468313 0)
(0.010021 0.00468144 0)
(0.00868394 0.00467994 0)
(0.00734726 0.00467866 0)
(0.00601093 0.00467758 0)
(0.00467488 0.00467671 0)
(0.00333904 0.00467606 0)
(0.00200336 0.00467563 0)
(0.000667778 0.00467542 0)
(0.000692387 -0.00623408 0)
(0.0020772 -0.00623444 0)
(0.00346214 -0.00623516 0)
(0.00484728 -0.00623624 0)
(0.00623271 -0.00623767 0)
(0.0076185 -0.00623946 0)
(0.00900473 -0.00624159 0)
(0.0103915 -0.00624406 0)
(0.0117788 -0.00624687 0)
(0.0131669 -0.00625001 0)
(0.0145556 -0.00625347 0)
(0.0159452 -0.00625724 0)
(0.0173357 -0.00626131 0)
(0.0187271 -0.00626567 0)
(0.0201196 -0.0062703 0)
(0.0215131 -0.0062752 0)
(0.0229078 -0.00628036 0)
(0.0243037 -0.00628574 0)
(0.0257008 -0.00629135 0)
(0.0270992 -0.00629716 0)
(0.028499 -0.00630315 0)
(0.0299001 -0.00630931 0)
(0.0313027 -0.00631561 0)
(0.0327067 -0.00632203 0)
(0.0341121 -0.00632856 0)
(0.0355191 -0.00633515 0)
(0.0369276 -0.0063418 0)
(0.0383376 -0.00634847 0)
(0.0397492 -0.00635513 0)
(0.0411622 -0.00636176 0)
(0.0425768 -0.00636833 0)
(0.0439929 -0.0063748 0)
(0.0454105 -0.00638114 0)
(0.0468295 -0.00638732 0)
(0.0482499 -0.0063933 0)
(0.0496717 -0.00639904 0)
(0.0510947 -0.00640451 0)
(0.0525191 -0.00640966 0)
(0.0539446 -0.00641446 0)
(0.0553712 -0.00641886 0)
(0.0567988 -0.00642282 0)
(0.0582273 -0.00642629 0)
(0.0596565 -0.00642922 0)
(0.0610865 -0.00643157 0)
(0.062517 -0.00643329 0)
(0.0639478 -0.00643432 0)
(0.0653789 -0.00643462 0)
(0.0668101 -0.00643412 0)
(0.0682411 -0.00643278 0)
(0.0696719 -0.00643053 0)
(0.0711021 -0.00642733 0)
(0.0725316 -0.0064231 0)
(0.0739602 -0.0064178 0)
(0.0753875 -0.00641135 0)
(0.0768133 -0.0064037 0)
(0.0782375 -0.00639479 0)
(0.0796596 -0.00638454 0)
(0.0810793 -0.0063729 0)
(0.0824965 -0.0063598 0)
(0.0839106 -0.00634517 0)
(0.0853214 -0.00632894 0)
(0.0867286 -0.00631106 0)
(0.0881317 -0.00629144 0)
(0.0895303 -0.00627002 0)
(0.0909241 -0.00624674 0)
(0.0923126 -0.00622153 0)
(0.0936954 -0.00619432 0)
(0.095072 -0.00616504 0)
(0.0964419 -0.00613363 0)
(0.0978048 -0.00610001 0)
(0.09916 -0.00606414 0)
(0.100507 -0.00602593 0)
(0.101846 -0.00598534 0)
(0.103175 -0.00594229 0)
(0.104494 -0.00589674 0)
(0.105803 -0.00584862 0)
(0.107102 -0.00579787 0)
(0.108388 -0.00574446 0)
(0.109663 -0.00568832 0)
(0.110925 -0.00562941 0)
(0.112174 -0.00556768 0)
(0.113408 -0.00550309 0)
(0.114628 -0.00543561 0)
(0.115833 -0.00536521 0)
(0.117022 -0.00529184 0)
(0.118194 -0.0052155 0)
(0.119349 -0.00513614 0)
(0.120486 -0.00505377 0)
(0.121605 -0.00496836 0)
(0.122704 -0.0048799 0)
(0.123783 -0.00478841 0)
(0.124841 -0.00469387 0)
(0.125878 -0.00459629 0)
(0.126893 -0.00449569 0)
(0.127886 -0.0043921 0)
(0.128855 -0.00428552 0)
(0.129799 -0.004176 0)
(0.13072 -0.00406356 0)
(0.131614 -0.00394826 0)
(0.132483 -0.00383013 0)
(0.133325 -0.00370924 0)
(0.13414 -0.00358564 0)
(0.134927 -0.0034594 0)
(0.135685 -0.00333059 0)
(0.136415 -0.00319928 0)
(0.137115 -0.00306556 0)
(0.137784 -0.00292952 0)
(0.138423 -0.00279125 0)
(0.139031 -0.00265085 0)
(0.139608 -0.00250842 0)
(0.140152 -0.00236407 0)
(0.140664 -0.00221792 0)
(0.141143 -0.00207007 0)
(0.141589 -0.00192066 0)
(0.142001 -0.0017698 0)
(0.142379 -0.00161762 0)
(0.142724 -0.00146426 0)
(0.143033 -0.00130985 0)
(0.143309 -0.00115452 0)
(0.143549 -0.000998416 0)
(0.143754 -0.000841672 0)
(0.143925 -0.000684432 0)
(0.14406 -0.000526838 0)
(0.144159 -0.000369031 0)
(0.144224 -0.000211154 0)
(0.144253 -5.335e-05 0)
(0.144247 0.00010424 0)
(0.144206 0.000261474 0)
(0.144129 0.000418215 0)