/*--------------------------------*- C++ -*----------------------------------*\
| =========                 |                                                 |
| \\      /  F ield         | OpenFOAM: The Open Source CFD Toolbox           |
|  \\    /   O peration     | Version:  v2012                                 |
|   \\  /    A nd           | Website:  www.openfoam.com                      |
|    \\/     M anipulation  |                                                 |
\*---------------------------------------------------------------------------*/
FoamFile
{
    version     2.0;
    format      ascii;
    class       surfaceScalarField;
    location    "16";
    object      phi;
}
// * * * * * * * * * * * * * * * * * * * * * * * * * * * * * * * * * * * * * //

dimensions      [0 3 -1 0 0 0 0];
oriented        oriented;


internalField   nonuniform List<scalar> 
130560
(
3.35546e-06
-3.35546e-06
6.71112e-06
-3.35566e-06
1.00672e-05
-3.35604e-06
1.34238e-05
-3.35661e-06
1.67811e-05
-3.35736e-06
2.01394e-05
-3.3583e-06
2.34989e-05
-3.35943e-06
2.68596e-05
-3.36073e-06
3.02218e-05
-3.36221e-06
3.35857e-05
-3.36387e-06
3.69514e-05
-3.3657e-06
4.03191e-05
-3.36769e-06
4.36889e-05
-3.36984e-06
4.7061e-05
-3.37215e-06
5.04356e-05
-3.3746e-06
5.38128e-05
-3.3772e-06
5.71928e-05
-3.37993e-06
6.05756e-05
-3.38279e-06
6.39613e-05
-3.38577e-06
6.73502e-05
-3.38886e-06
7.07423e-05
-3.39205e-06
7.41376e-05
-3.39534e-06
7.75363e-05
-3.39871e-06
8.09384e-05
-3.40214e-06
8.43441e-05
-3.40564e-06
8.77533e-05
-3.40918e-06
9.1166e-05
-3.41276e-06
9.45824e-05
-3.41636e-06
9.80024e-05
-3.41997e-06
0.000101426
-3.42357e-06
0.000104853
-3.42714e-06
0.000108284
-3.43068e-06
0.000111718
-3.43417e-06
0.000115155
-3.43758e-06
0.000118596
-3.4409e-06
0.000122041
-3.44411e-06
0.000125488
-3.4472e-06
0.000128938
-3.45013e-06
0.000132391
-3.4529e-06
0.000135846
-3.45547e-06
0.000139304
-3.45783e-06
0.000142764
-3.45995e-06
0.000146226
-3.46182e-06
0.000149689
-3.4634e-06
0.000153154
-3.46466e-06
0.000156619
-3.46559e-06
0.000160086
-3.46616e-06
0.000163552
-3.46633e-06
0.000167018
-3.46609e-06
0.000170483
-3.4654e-06
0.000173948
-3.46423e-06
0.00017741
-3.46255e-06
0.000180871
-3.46033e-06
0.000184328
-3.45753e-06
0.000187782
-3.45414e-06
0.000191232
-3.4501e-06
0.000194678
-3.4454e-06
0.000198118
-3.43999e-06
0.000201552
-3.43385e-06
0.000204978
-3.42693e-06
0.000208398
-3.4192e-06
0.000211808
-3.41063e-06
0.000215209
-3.40117e-06
0.0002186
-3.39081e-06
0.00022198
-3.37948e-06
0.000225347
-3.36717e-06
0.000228701
-3.35384e-06
0.00023204
-3.33944e-06
0.000235364
-3.32395e-06
0.000238672
-3.30732e-06
0.000241961
-3.28953e-06
0.000245232
-3.27053e-06
0.000248482
-3.2503e-06
0.000251711
-3.22879e-06
0.000254917
-3.20598e-06
0.000258098
-3.18184e-06
0.000261255
-3.15632e-06
0.000264384
-3.12941e-06
0.000267485
-3.10106e-06
0.000270557
-3.07127e-06
0.000273597
-3.03999e-06
0.000276604
-3.0072e-06
0.000279577
-2.97288e-06
0.000282514
-2.93702e-06
0.000285413
-2.89958e-06
0.000288274
-2.86055e-06
0.000291094
-2.81992e-06
0.000293871
-2.77766e-06
0.000296605
-2.73378e-06
0.000299293
-2.68827e-06
0.000301934
-2.6411e-06
0.000304527
-2.5923e-06
0.000307069
-2.54184e-06
0.000309558
-2.48974e-06
0.000311994
-2.43599e-06
0.000314375
-2.38061e-06
0.000316699
-2.32362e-06
0.000318964
-2.26501e-06
0.000321168
-2.20481e-06
0.000323311
-2.14304e-06
0.000325391
-2.07972e-06
0.000327406
-2.01488e-06
0.000329355
-1.94855e-06
0.000331235
-1.88076e-06
0.000333047
-1.81155e-06
0.000334788
-1.74095e-06
0.000336457
-1.66902e-06
0.000338053
-1.59579e-06
0.000339574
-1.52131e-06
0.00034102
-1.44564e-06
0.000342388
-1.36882e-06
0.000343679
-1.29092e-06
0.000344891
-1.21199e-06
0.000346023
-1.1321e-06
0.000347075
-1.05131e-06
0.000348044
-9.69685e-07
0.000348932
-8.87292e-07
0.000349736
-8.04204e-07
0.000350456
-7.20491e-07
0.000351093
-6.36226e-07
0.000351644
-5.51484e-07
0.00035211
-4.6634e-07
0.000352491
-3.80871e-07
0.000352787
-2.95153e-07
0.000352996
-2.09263e-07
0.000353119
-1.23281e-07
0.000353156
-3.72827e-08
0.000353108
4.86536e-08
0.000352973
1.34451e-07
0.000352753
2.20032e-07
0.000352448
3.05321e-07
0.000352058
3.90244e-07
0.000351583
4.74725e-07
0.000351024
5.58694e-07
0.000350382
6.42079e-07
0.000349657
7.2481e-07
0.00034885
8.06821e-07
0.000347962
8.88045e-07
0.000346994
9.68419e-07
0.000345946
1.04788e-06
0.00034482
1.12638e-06
0.000343616
1.20385e-06
0.000342336
1.28024e-06
0.00034098
1.3555e-06
0.000339551
1.42958e-06
0.000338048
1.50244e-06
0.000336474
1.57403e-06
0.00033483
1.64432e-06
0.000333117
1.71327e-06
0.000331336
1.78084e-06
0.000329489
1.847e-06
0.000327577
1.91173e-06
0.000325602
1.975e-06
0.000323565
2.0368e-06
0.000321468
2.09709e-06
0.000319312
2.15587e-06
0.000317099
2.21312e-06
0.00031483
2.26883e-06
0.000312507
2.32299e-06
0.000310132
2.3756e-06
0.000307705
2.42666e-06
0.000305229
2.47617e-06
0.000302705
2.52412e-06
0.000300134
2.57052e-06
0.000297519
2.61539e-06
0.00029486
2.65872e-06
0.00029216
2.70053e-06
0.000289419
2.74083e-06
0.000286639
2.77964e-06
0.000283822
2.81697e-06
0.000280969
2.85284e-06
0.000278082
2.88727e-06
0.000275162
2.92028e-06
0.00027221
2.9519e-06
0.000269228
2.98214e-06
0.000266217
3.01104e-06
0.000263178
3.03861e-06
0.000260113
3.06488e-06
0.000257023
3.08988e-06
0.00025391
3.11365e-06
0.000250773
3.1362e-06
0.000247616
3.15756e-06
0.000244438
3.17777e-06
0.000241241
3.19686e-06
0.000238026
3.21486e-06
0.000234795
3.23179e-06
0.000231547
3.2477e-06
0.000228284
3.2626e-06
0.000225008
3.27653e-06
0.000221718
3.28953e-06
0.000218417
3.30162e-06
0.000215104
3.31284e-06
0.000211781
3.32321e-06
0.000208448
3.33277e-06
0.000205106
3.34155e-06
0.000201757
3.34958e-06
0.0001984
3.35688e-06
0.000195036
3.36349e-06
0.000191667
3.36944e-06
0.000188292
3.37476e-06
0.000184913
3.37947e-06
0.000181529
3.38361e-06
0.000178142
3.3872e-06
0.000174752
3.39026e-06
0.000171359
3.39283e-06
0.000167964
3.39493e-06
0.000164567
3.39659e-06
0.000161169
3.39783e-06
0.000157771
3.39868e-06
0.000154372
3.39915e-06
0.000150972
3.39929e-06
0.000147573
3.39909e-06
0.000144175
3.3986e-06
0.000140777
3.39783e-06
0.00013738
3.3968e-06
0.000133984
3.39553e-06
0.00013059
3.39405e-06
0.000127198
3.39237e-06
0.000123807
3.3905e-06
0.000120419
3.38848e-06
0.000117033
3.38632e-06
0.000113649
3.38402e-06
0.000110267
3.38162e-06
0.000106888
3.37912e-06
0.000103511
3.37655e-06
0.000100137
3.37391e-06
9.67662e-05
3.37122e-06
9.33977e-05
3.3685e-06
9.0032e-05
3.36576e-06
8.6669e-05
3.363e-06
8.33087e-05
3.36025e-06
7.99512e-05
3.35751e-06
7.65964e-05
3.35479e-06
7.32443e-05
3.35212e-06
6.98948e-05
3.34948e-06
6.65479e-05
3.34691e-06
6.32035e-05
3.34439e-06
5.98616e-05
3.34196e-06
5.6522e-05
3.3396e-06
5.31846e-05
3.33733e-06
4.98495e-05
3.33516e-06
4.65164e-05
3.33309e-06
4.31853e-05
3.33113e-06
3.9856e-05
3.32929e-06
3.65284e-05
3.32757e-06
3.32024e-05
3.32597e-06
2.98779e-05
3.32451e-06
2.65547e-05
3.32318e-06
2.32328e-05
3.32199e-06
1.99118e-05
3.32094e-06
1.65918e-05
3.32003e-06
1.32725e-05
3.31927e-06
9.95386e-06
3.31866e-06
6.63566e-06
3.31821e-06
3.31775e-06
3.3179e-06
3.31775e-06
3.35529e-06
-6.71075e-06
6.71076e-06
-6.71113e-06
1.00666e-05
-6.7119e-06
1.3423e-05
-6.71303e-06
1.67802e-05
-6.71454e-06
2.01384e-05
-6.71643e-06
2.34976e-05
-6.71868e-06
2.68582e-05
-6.72129e-06
3.02202e-05
-6.72426e-06
3.35839e-05
-6.72758e-06
3.69495e-05
-6.73123e-06
4.0317e-05
-6.73522e-06
4.36867e-05
-6.73953e-06
4.70587e-05
-6.74415e-06
5.04331e-05
-6.74907e-06
5.38102e-05
-6.75427e-06
5.719e-05
-6.75974e-06
6.05727e-05
-6.76547e-06
6.39584e-05
-6.77144e-06
6.73471e-05
-6.77763e-06
7.07391e-05
-6.78402e-06
7.41344e-05
-6.7906e-06
7.7533e-05
-6.79734e-06
8.09351e-05
-6.80423e-06
8.43407e-05
-6.81124e-06
8.77498e-05
-6.81834e-06
9.11626e-05
-6.82551e-06
9.45789e-05
-6.83272e-06
9.79989e-05
-6.83995e-06
0.000101423
-6.84716e-06
0.00010485
-6.85433e-06
0.00010828
-6.86143e-06
0.000111715
-6.86841e-06
0.000115152
-6.87525e-06
0.000118593
-6.88191e-06
0.000122038
-6.88836e-06
0.000125485
-6.89455e-06
0.000128935
-6.90044e-06
0.000132388
-6.90599e-06
0.000135844
-6.91116e-06
0.000139302
-6.9159e-06
0.000142762
-6.92017e-06
0.000146224
-6.92392e-06
0.000149688
-6.92711e-06
0.000153153
-6.92967e-06
0.000156619
-6.93155e-06
0.000160086
-6.93271e-06
0.000163552
-6.93309e-06
0.000167019
-6.93263e-06
0.000170485
-6.93128e-06
0.00017395
-6.92896e-06
0.000177413
-6.92563e-06
0.000180874
-6.92122e-06
0.000184332
-6.91567e-06
0.000187787
-6.90891e-06
0.000191237
-6.90088e-06
0.000194683
-6.89151e-06
0.000198124
-6.88073e-06
0.000201559
-6.86847e-06
0.000204986
-6.85467e-06
0.000208407
-6.83925e-06
0.000211818
-6.82214e-06
0.00021522
-6.80327e-06
0.000218612
-6.78256e-06
0.000221992
-6.75996e-06
0.000225361
-6.73537e-06
0.000228715
-6.70874e-06
0.000232056
-6.67998e-06
0.000235381
-6.64903e-06
0.00023869
-6.61582e-06
0.00024198
-6.58026e-06
0.000245252
-6.5423e-06
0.000248504
-6.50187e-06
0.000251734
-6.45889e-06
0.000254941
-6.4133e-06
0.000258124
-6.36504e-06
0.000261282
-6.31404e-06
0.000264413
-6.26024e-06
0.000267515
-6.20358e-06
0.000270588
-6.14401e-06
0.00027363
-6.08148e-06
0.000276638
-6.01593e-06
0.000279613
-5.94732e-06
0.000282551
-5.8756e-06
0.000285452
-5.80074e-06
0.000288315
-5.7227e-06
0.000291136
-5.64145e-06
0.000293915
-5.55695e-06
0.000296651
-5.4692e-06
0.000299341
-5.37817e-06
0.000301984
-5.28385e-06
0.000304577
-5.18624e-06
0.000307121
-5.08532e-06
0.000309612
-4.98111e-06
0.00031205
-4.87361e-06
0.000314432
-4.76285e-06
0.000316757
-4.64883e-06
0.000319024
-4.5316e-06
0.00032123
-4.41118e-06
0.000323375
-4.28762e-06
0.000325456
-4.16095e-06
0.000327473
-4.03125e-06
0.000329423
-3.89855e-06
0.000331305
-3.76294e-06
0.000333118
-3.62448e-06
0.00033486
-3.48324e-06
0.00033653
-3.33933e-06
0.000338127
-3.19282e-06
0.00033965
-3.04381e-06
0.000341097
-2.89241e-06
0.000342466
-2.73872e-06
0.000343758
-2.58286e-06
0.000344971
-2.42495e-06
0.000346104
-2.2651e-06
0.000347156
-2.10345e-06
0.000348127
-1.94013e-06
0.000349015
-1.77528e-06
0.00034982
-1.60903e-06
0.000350541
-1.44153e-06
0.000351177
-1.27292e-06
0.000351729
-1.10336e-06
0.000352196
-9.33e-07
0.000352577
-7.61984e-07
0.000352872
-5.9047e-07
0.000353082
-4.18614e-07
0.000353205
-2.46571e-07
0.000353242
-7.44972e-08
0.000353193
9.74526e-08
0.000353059
2.69123e-07
0.000352838
4.40362e-07
0.000352533
6.11015e-07
0.000352142
7.80934e-07
0.000351667
9.4997e-07
0.000351108
1.11798e-06
0.000350465
1.28482e-06
0.000349739
1.45035e-06
0.000348932
1.61443e-06
0.000348043
1.77694e-06
0.000347073
1.93775e-06
0.000346025
2.09674e-06
0.000344897
2.25379e-06
0.000343692
2.40878e-06
0.000342411
2.56161e-06
0.000341054
2.71218e-06
0.000339623
2.86039e-06
0.00033812
3.00615e-06
0.000336544
3.14937e-06
0.000334899
3.28999e-06
0.000333184
3.42791e-06
0.000331402
3.56308e-06
0.000329553
3.69544e-06
0.00032764
3.82493e-06
0.000325664
3.95149e-06
0.000323625
4.0751e-06
0.000321527
4.1957e-06
0.000319369
4.31327e-06
0.000317155
4.42778e-06
0.000314884
4.53921e-06
0.00031256
4.64754e-06
0.000310183
4.75277e-06
0.000307754
4.85488e-06
0.000305277
4.95389e-06
0.000302751
5.04979e-06
0.000300179
5.14259e-06
0.000297562
5.23231e-06
0.000294902
5.31896e-06
0.0002922
5.40256e-06
0.000289457
5.48315e-06
0.000286676
5.56075e-06
0.000283858
5.6354e-06
0.000281004
5.70712e-06
0.000278115
5.77596e-06
0.000275193
5.84197e-06
0.00027224
5.90518e-06
0.000269256
5.96564e-06
0.000266244
6.0234e-06
0.000263204
6.07851e-06
0.000260138
6.13103e-06
0.000257047
6.18101e-06
0.000253932
6.22851e-06
0.000250795
6.27358e-06
0.000247636
6.31628e-06
0.000244457
6.35667e-06
0.000241259
6.39482e-06
0.000238043
6.43078e-06
0.00023481
6.46462e-06
0.000231562
6.49639e-06
0.000228298
6.52617e-06
0.000225021
6.554e-06
0.00022173
6.57997e-06
0.000218428
6.60412e-06
0.000215114
6.62652e-06
0.00021179
6.64724e-06
0.000208456
6.66633e-06
0.000205114
6.68385e-06
0.000201764
6.69987e-06
0.000198406
6.71445e-06
0.000195042
6.72765e-06
0.000191672
6.73952e-06
0.000188297
6.75013e-06
0.000184917
6.75952e-06
0.000181532
6.76777e-06
0.000178145
6.77491e-06
0.000174754
6.78102e-06
0.000171361
6.78613e-06
0.000167965
6.79031e-06
0.000164568
6.7936e-06
0.00016117
6.79605e-06
0.000157771
6.79772e-06
0.000154372
6.79865e-06
0.000150972
6.79889e-06
0.000147573
6.79849e-06
0.000144174
6.79748e-06
0.000140776
6.79592e-06
0.000137379
6.79384e-06
0.000133983
6.79128e-06
0.000130589
6.78829e-06
0.000127196
6.78491e-06
0.000123805
6.78117e-06
0.000120417
6.7771e-06
0.00011703
6.77275e-06
0.000113646
6.76815e-06
0.000110264
6.76333e-06
0.000106885
6.75832e-06
0.000103509
6.75316e-06
0.000100135
6.74787e-06
9.67634e-05
6.74248e-06
9.33949e-05
6.73702e-06
9.00291e-05
6.73152e-06
8.66661e-05
6.72599e-06
8.33059e-05
6.72047e-06
7.99484e-05
6.71499e-06
7.65937e-05
6.70955e-06
7.32416e-05
6.70418e-06
6.98922e-05
6.69891e-06
6.65453e-05
6.69374e-06
6.3201e-05
6.68871e-06
5.98591e-05
6.68383e-06
5.65196e-05
6.6791e-06
5.31824e-05
6.67456e-06
4.98474e-05
6.67021e-06
4.65144e-05
6.66607e-06
4.31834e-05
6.66215e-06
3.98542e-05
6.65845e-06
3.65268e-05
6.65501e-06
3.32009e-05
6.65181e-06
2.98766e-05
6.64887e-06
2.65535e-05
6.64621e-06
2.32317e-05
6.64382e-06
1.99109e-05
6.64172e-06
1.6591e-05
6.63991e-06
1.32719e-05
6.63839e-06
9.95339e-06
6.63717e-06
6.63534e-06
6.63626e-06
3.3176e-06
6.63565e-06
6.63535e-06
3.3549e-06
-1.00656e-05
6.70999e-06
-1.00662e-05
1.00655e-05
-1.00674e-05
1.34215e-05
-1.00691e-05
1.67783e-05
-1.00714e-05
2.01361e-05
-1.00742e-05
2.3495e-05
-1.00776e-05
2.68552e-05
-1.00815e-05
3.02169e-05
-1.0086e-05
3.35802e-05
-1.00909e-05
3.69454e-05
-1.00964e-05
4.03126e-05
-1.01024e-05
4.3682e-05
-1.01089e-05
4.70537e-05
-1.01159e-05
5.04279e-05
-1.01232e-05
5.38047e-05
-1.01311e-05
5.71842e-05
-1.01393e-05
6.05667e-05
-1.01479e-05
6.39521e-05
-1.01569e-05
6.73407e-05
-1.01662e-05
7.07325e-05
-1.01758e-05
7.41276e-05
-1.01857e-05
7.75261e-05
-1.01958e-05
8.0928e-05
-1.02062e-05
8.43335e-05
-1.02167e-05
8.77426e-05
-1.02274e-05
9.11553e-05
-1.02382e-05
9.45716e-05
-1.02491e-05
9.79916e-05
-1.02599e-05
0.000101415
-1.02708e-05
0.000104843
-1.02816e-05
0.000108273
-1.02923e-05
0.000111708
-1.03028e-05
0.000115146
-1.03131e-05
0.000118587
-1.03231e-05
0.000122031
-1.03329e-05
0.000125479
-1.03422e-05
0.00012893
-1.03511e-05
0.000132383
-1.03595e-05
0.000135839
-1.03673e-05
0.000139298
-1.03744e-05
0.000142758
-1.03809e-05
0.000146221
-1.03866e-05
0.000149686
-1.03914e-05
0.000153151
-1.03953e-05
0.000156618
-1.03982e-05
0.000160085
-1.04e-05
0.000163553
-1.04007e-05
0.00016702
-1.04001e-05
0.000170487
-1.03981e-05
0.000173953
-1.03947e-05
0.000177417
-1.03898e-05
0.000180879
-1.03833e-05
0.000184338
-1.0375e-05
0.000187794
-1.0365e-05
0.000191247
-1.0353e-05
0.000194694
-1.0339e-05
0.000198136
-1.03229e-05
0.000201572
-1.03046e-05
0.000205002
-1.0284e-05
0.000208424
-1.0261e-05
0.000211837
-1.02354e-05
0.000215241
-1.02072e-05
0.000218634
-1.01762e-05
0.000222017
-1.01424e-05
0.000225387
-1.01056e-05
0.000228744
-1.00658e-05
0.000232087
-1.00227e-05
0.000235414
-9.97638e-06
0.000238725
-9.92665e-06
0.000242018
-9.8734e-06
0.000245292
-9.81655e-06
0.000248547
-9.75598e-06
0.000251779
-9.6916e-06
0.000254989
-9.62329e-06
0.000258175
-9.55098e-06
0.000261336
-9.47455e-06
0.000264469
-9.39393e-06
0.000267575
-9.30901e-06
0.00027065
-9.21972e-06
0.000273695
-9.12599e-06
0.000276707
-9.02772e-06
0.000279684
-8.92486e-06
0.000282626
-8.81733e-06
0.00028553
-8.70509e-06
0.000288396
-8.58806e-06
0.000291221
-8.46622e-06
0.000294003
-8.33951e-06
0.000296742
-8.2079e-06
0.000299435
-8.07137e-06
0.000302081
-7.9299e-06
0.000304678
-7.78348e-06
0.000307225
-7.6321e-06
0.00030972
-7.47577e-06
0.000312161
-7.31451e-06
0.000314546
-7.14833e-06
0.000316875
-6.97728e-06
0.000319144
-6.80138e-06
0.000321354
-6.6207e-06
0.000323502
-6.4353e-06
0.000325586
-6.24524e-06
0.000327605
-6.0506e-06
0.000329558
-5.85148e-06
0.000331443
-5.64797e-06
0.000333259
-5.44018e-06
0.000335004
-5.22822e-06
0.000336677
-5.01224e-06
0.000338276
-4.79235e-06
0.000339801
-4.56871e-06
0.00034125
-4.34147e-06
0.000342622
-4.1108e-06
0.000343916
-3.87686e-06
0.000345131
-3.63983e-06
0.000346266
-3.3999e-06
0.00034732
-3.15726e-06
0.000348292
-2.91211e-06
0.000349181
-2.66465e-06
0.000349987
-2.4151e-06
0.000350709
-2.16367e-06
0.000351347
-1.91058e-06
0.0003519
-1.65605e-06
0.000352367
-1.40031e-06
0.000352749
-1.1436e-06
0.000353044
-8.86133e-07
0.000353254
-6.28155e-07
0.000353377
-3.69896e-07
0.000353414
-1.1159e-07
0.000353365
1.46528e-07
0.00035323
4.04226e-07
0.000353009
6.61273e-07
0.000352703
9.17441e-07
0.000352311
1.1725e-06
0.000351835
1.42624e-06
0.000351274
1.67843e-06
0.00035063
1.92886e-06
0.000349903
2.17732e-06
0.000349094
2.42362e-06
0.000348204
2.66754e-06
0.000347232
2.90891e-06
0.000346182
3.14754e-06
0.000345052
3.38325e-06
0.000343845
3.61587e-06
0.000342561
3.84524e-06
0.000341202
4.07122e-06
0.000339769
4.29364e-06
0.000338263
4.51239e-06
0.000336685
4.72733e-06
0.000335037
4.93834e-06
0.000333319
5.14531e-06
0.000331534
5.34814e-06
0.000329683
5.54675e-06
0.000327767
5.74104e-06
0.000325787
5.93094e-06
0.000323746
6.11639e-06
0.000321644
6.29734e-06
0.000319484
6.47372e-06
0.000317266
6.64551e-06
0.000314993
6.81268e-06
0.000312665
6.97519e-06
0.000310285
7.13304e-06
0.000307853
7.28621e-06
0.000305373
7.43472e-06
0.000302844
7.57855e-06
0.000300269
7.71774e-06
0.000297649
7.85229e-06
0.000294985
7.98224e-06
0.00029228
8.10762e-06
0.000289535
8.22847e-06
0.000286751
8.34483e-06
0.00028393
8.45675e-06
0.000281073
8.56428e-06
0.000278181
8.6675e-06
0.000275256
8.76645e-06
0.0002723
8.8612e-06
0.000269314
8.95183e-06
0.000266299
9.03841e-06
0.000263257
9.12101e-06
0.000260188
9.19972e-06
0.000257094
9.27462e-06
0.000253977
9.34579e-06
0.000250837
9.41332e-06
0.000247676
9.4773e-06
0.000244495
9.53782e-06
0.000241295
9.59496e-06
0.000238077
9.64883e-06
0.000234842
9.6995e-06
0.000231591
9.74709e-06
0.000228326
9.79167e-06
0.000225047
9.83335e-06
0.000221754
9.87222e-06
0.00021845
9.90837e-06
0.000215135
9.94189e-06
0.000211809
9.97289e-06
0.000208474
1.00014e-05
0.00020513
1.00277e-05
0.000201778
1.00516e-05
0.00019842
1.00734e-05
0.000195054
1.00931e-05
0.000191683
1.01109e-05
0.000188306
1.01267e-05
0.000184925
1.01407e-05
0.00018154
1.0153e-05
0.000178151
1.01637e-05
0.000174759
1.01728e-05
0.000171365
1.01804e-05
0.000167969
1.01866e-05
0.000164571
1.01914e-05
0.000161172
1.01951e-05
0.000157772
1.01975e-05
0.000154372
1.01988e-05
0.000150972
1.01991e-05
0.000147572
1.01985e-05
0.000144172
1.01969e-05
0.000140774
1.01945e-05
0.000137376
1.01913e-05
0.00013398
1.01875e-05
0.000130585
1.01829e-05
0.000127192
1.01778e-05
0.000123801
1.01722e-05
0.000120412
1.0166e-05
0.000117026
1.01594e-05
0.000113641
1.01525e-05
0.000110259
1.01452e-05
0.00010688
1.01377e-05
0.000103503
1.01299e-05
0.000100129
1.01219e-05
9.6758e-05
1.01138e-05
9.33894e-05
1.01056e-05
9.00236e-05
1.00973e-05
8.66606e-05
1.0089e-05
8.33004e-05
1.00807e-05
7.9943e-05
1.00724e-05
7.65883e-05
1.00642e-05
7.32363e-05
1.00562e-05
6.9887e-05
1.00482e-05
6.65403e-05
1.00405e-05
6.31962e-05
1.00329e-05
5.98544e-05
1.00255e-05
5.65151e-05
1.00184e-05
5.31781e-05
1.00116e-05
4.98432e-05
1.00051e-05
4.65105e-05
9.99883e-06
4.31797e-05
9.99293e-06
3.98508e-05
9.98738e-06
3.65236e-05
9.98219e-06
3.3198e-05
9.97739e-06
2.98739e-05
9.97297e-06
2.65511e-05
9.96897e-06
2.32296e-05
9.96538e-06
1.99091e-05
9.96222e-06
1.65895e-05
9.95949e-06
1.32707e-05
9.95721e-06
9.95248e-06
9.95537e-06
6.63473e-06
9.954e-06
3.31729e-06
9.95309e-06
9.95264e-06
3.35432e-06
-1.342e-05
6.70884e-06
-1.34207e-05
1.00637e-05
-1.34223e-05
1.34192e-05
-1.34246e-05
1.67755e-05
-1.34276e-05
2.01327e-05
-1.34314e-05
2.3491e-05
-1.34359e-05
2.68507e-05
-1.34412e-05
3.02118e-05
-1.34471e-05
3.35747e-05
-1.34538e-05
3.69394e-05
-1.34611e-05
4.03061e-05
-1.34692e-05
4.3675e-05
-1.34778e-05
4.70463e-05
-1.34871e-05
5.042e-05
-1.3497e-05
5.37964e-05
-1.35074e-05
5.71756e-05
-1.35185e-05
6.05576e-05
-1.353e-05
6.39427e-05
-1.3542e-05
6.7331e-05
-1.35544e-05
7.07225e-05
-1.35673e-05
7.41173e-05
-1.35805e-05
7.75156e-05
-1.35941e-05
8.09174e-05
-1.3608e-05
8.43227e-05
-1.36221e-05
8.77317e-05
-1.36364e-05
9.11443e-05
-1.36508e-05
9.45606e-05
-1.36654e-05
9.79807e-05
-1.36799e-05
0.000101404
-1.36945e-05
0.000104832
-1.3709e-05
0.000108263
-1.37233e-05
0.000111697
-1.37374e-05
0.000115135
-1.37512e-05
0.000118577
-1.37647e-05
0.000122022
-1.37777e-05
0.00012547
-1.37903e-05
0.000128921
-1.38022e-05
0.000132375
-1.38135e-05
0.000135832
-1.3824e-05
0.000139291
-1.38337e-05
0.000142753
-1.38424e-05
0.000146216
-1.38501e-05
0.000149681
-1.38567e-05
0.000153148
-1.3862e-05
0.000156616
-1.3866e-05
0.000160084
-1.38686e-05
0.000163553
-1.38695e-05
0.000167022
-1.38688e-05
0.00017049
-1.38664e-05
0.000173958
-1.3862e-05
0.000177423
-1.38556e-05
0.000180887
-1.3847e-05
0.000184348
-1.38362e-05
0.000187806
-1.38229e-05
0.00019126
-1.38071e-05
0.00019471
-1.37887e-05
0.000198154
-1.37674e-05
0.000201593
-1.37431e-05
0.000205025
-1.37158e-05
0.000208449
-1.36852e-05
0.000211865
-1.36513e-05
0.000215271
-1.36139e-05
0.000218668
-1.35727e-05
0.000222053
-1.35278e-05
0.000225427
-1.34789e-05
0.000228787
-1.3426e-05
0.000232133
-1.33687e-05
0.000235464
-1.33071e-05
0.000238778
-1.3241e-05
0.000242075
-1.31702e-05
0.000245353
-1.30945e-05
0.000248611
-1.30139e-05
0.000251847
-1.29282e-05
0.000255061
-1.28373e-05
0.000258251
-1.2741e-05
0.000261416
-1.26393e-05
0.000264554
-1.25319e-05
0.000267664
-1.24188e-05
0.000270744
-1.22999e-05
0.000273793
-1.2175e-05
0.00027681
-1.20441e-05
0.000279792
-1.19071e-05
0.000282738
-1.17638e-05
0.000285647
-1.16142e-05
0.000288517
-1.14583e-05
0.000291347
-1.12959e-05
0.000294135
-1.1127e-05
0.000296878
-1.09515e-05
0.000299576
-1.07695e-05
0.000302227
-1.05809e-05
0.00030483
-1.03857e-05
0.000307381
-1.01838e-05
0.000309881
-9.97537e-06
0.000312327
-9.76031e-06
0.000314717
-9.53869e-06
0.00031705
-9.31056e-06
0.000319325
-9.07595e-06
0.000321539
-8.83496e-06
0.000323691
-8.58764e-06
0.00032578
-8.3341e-06
0.000327804
-8.07445e-06
0.000329762
-7.8088e-06
0.000331651
-7.53728e-06
0.000333471
-7.26004e-06
0.00033522
-6.97724e-06
0.000336897
-6.68904e-06
0.0003385
-6.39564e-06
0.000340028
-6.09721e-06
0.000341481
-5.79398e-06
0.000342856
-5.48615e-06
0.000344153
-5.17395e-06
0.000345371
-4.85763e-06
0.000346509
-4.53742e-06
0.000347565
-4.21359e-06
0.000348539
-3.8864e-06
0.000349431
-3.55613e-06
0.000350239
-3.22306e-06
0.000350962
-2.88748e-06
0.000351602
-2.54968e-06
0.000352155
-2.20995e-06
0.000352624
-1.86861e-06
0.000353006
-1.52596e-06
0.000353302
-1.18231e-06
0.000353512
-8.3798e-07
0.000353635
-4.93271e-07
0.000353672
-1.485e-07
0.000353623
1.96019e-07
0.000353487
5.39975e-07
0.000353265
8.8306e-07
0.000352958
1.22497e-06
0.000352565
1.5654e-06
0.000352087
1.90405e-06
0.000351525
2.24064e-06
0.000350879
2.57487e-06
0.00035015
2.90647e-06
0.000349338
3.23517e-06
0.000348445
3.5607e-06
0.000347471
3.88281e-06
0.000346417
4.20125e-06
0.000345285
4.51579e-06
0.000344075
4.8262e-06
0.000342788
5.13227e-06
0.000341425
5.43379e-06
0.000339988
5.73058e-06
0.000338478
6.02244e-06
0.000336896
6.3092e-06
0.000335244
6.59072e-06
0.000333522
6.86684e-06
0.000331733
7.13743e-06
0.000329877
7.40237e-06
0.000327957
7.66153e-06
0.000325973
7.91484e-06
0.000323927
8.1622e-06
0.000321821
8.40353e-06
0.000319656
8.63878e-06
0.000317433
8.86788e-06
0.000315155
9.0908e-06
0.000312823
9.30751e-06
0.000310438
9.51798e-06
0.000308002
9.72221e-06
0.000305517
9.92021e-06
0.000302983
1.0112e-05
0.000300403
1.02975e-05
0.000297779
1.04769e-05
0.000295111
1.06501e-05
0.000292401
1.08172e-05
0.000289652
1.09783e-05
0.000286863
1.11333e-05
0.000284037
1.12825e-05
0.000281176
1.14258e-05
0.00027828
1.15633e-05
0.000275351
1.16951e-05
0.000272391
1.18213e-05
0.000269401
1.19421e-05
0.000266382
1.20574e-05
0.000263336
1.21674e-05
0.000260263
1.22722e-05
0.000257166
1.2372e-05
0.000254045
1.24667e-05
0.000250902
1.25566e-05
0.000247737
1.26418e-05
0.000244553
1.27223e-05
0.000241349
1.27984e-05
0.000238128
1.28701e-05
0.00023489
1.29375e-05
0.000231636
1.30008e-05
0.000228368
1.30601e-05
0.000225086
1.31155e-05
0.000221791
1.31672e-05
0.000218484
1.32152e-05
0.000215166
1.32598e-05
0.000211838
1.3301e-05
0.0002085
1.33389e-05
0.000205154
1.33737e-05
0.0002018
1.34055e-05
0.000198439
1.34344e-05
0.000195072
1.34606e-05
0.000191699
1.34841e-05
0.00018832
1.35051e-05
0.000184937
1.35237e-05
0.00018155
1.35399e-05
0.00017816
1.3554e-05
0.000174767
1.3566e-05
0.000171371
1.3576e-05
0.000167974
1.35842e-05
0.000164575
1.35905e-05
0.000161174
1.35953e-05
0.000157773
1.35984e-05
0.000154372
1.36001e-05
0.000150971
1.36004e-05
0.00014757
1.35994e-05
0.00014417
1.35972e-05
0.00014077
1.35939e-05
0.000137372
1.35896e-05
0.000133975
1.35843e-05
0.00013058
1.35782e-05
0.000127187
1.35713e-05
0.000123795
1.35636e-05
0.000120406
1.35554e-05
0.000117019
1.35465e-05
0.000113634
1.35372e-05
0.000110252
1.35274e-05
0.000106872
1.35173e-05
0.000103495
1.35068e-05
0.000100121
1.34961e-05
9.67498e-05
1.34852e-05
9.33812e-05
1.34742e-05
9.00154e-05
1.34631e-05
8.66524e-05
1.3452e-05
8.32922e-05
1.34408e-05
7.99349e-05
1.34298e-05
7.65803e-05
1.34188e-05
7.32285e-05
1.3408e-05
6.98793e-05
1.33974e-05
6.65328e-05
1.3387e-05
6.31889e-05
1.33768e-05
5.98474e-05
1.3367e-05
5.65083e-05
1.33575e-05
5.31716e-05
1.33483e-05
4.9837e-05
1.33396e-05
4.65046e-05
1.33313e-05
4.31742e-05
1.33234e-05
3.98456e-05
1.33159e-05
3.65188e-05
1.3309e-05
3.31936e-05
1.33026e-05
2.98699e-05
1.32967e-05
2.65476e-05
1.32913e-05
2.32264e-05
1.32865e-05
1.99064e-05
1.32823e-05
1.65872e-05
1.32786e-05
1.32689e-05
1.32756e-05
9.95111e-06
1.32731e-05
6.63381e-06
1.32713e-05
3.31683e-06
1.32701e-05
1.32695e-05
3.35355e-06
-1.67735e-05
6.7073e-06
-1.67745e-05
1.00614e-05
-1.67764e-05
1.34162e-05
-1.67793e-05
1.67717e-05
-1.67831e-05
2.01281e-05
-1.67878e-05
2.34857e-05
-1.67935e-05
2.68447e-05
-1.68001e-05
3.02051e-05
-1.68076e-05
3.35673e-05
-1.68159e-05
3.69313e-05
-1.68252e-05
4.02974e-05
-1.68352e-05
4.36657e-05
-1.68461e-05
4.70363e-05
-1.68577e-05
5.04095e-05
-1.68702e-05
5.37853e-05
-1.68833e-05
5.7164e-05
-1.68971e-05
6.05455e-05
-1.69116e-05
6.39302e-05
-1.69266e-05
6.7318e-05
-1.69423e-05
7.07091e-05
-1.69584e-05
7.41036e-05
-1.69751e-05
7.75016e-05
-1.69921e-05
8.09032e-05
-1.70095e-05
8.43083e-05
-1.70272e-05
8.77171e-05
-1.70452e-05
9.11297e-05
-1.70634e-05
9.45459e-05
-1.70816e-05
9.7966e-05
-1.71e-05
0.00010139
-1.71183e-05
0.000104817
-1.71365e-05
0.000108248
-1.71545e-05
0.000111683
-1.71723e-05
0.000115122
-1.71897e-05
0.000118564
-1.72067e-05
0.000122009
-1.72231e-05
0.000125458
-1.72389e-05
0.00012891
-1.7254e-05
0.000132364
-1.72683e-05
0.000135822
-1.72816e-05
0.000139282
-1.72939e-05
0.000142745
-1.7305e-05
0.000146209
-1.73148e-05
0.000149676
-1.73232e-05
0.000153144
-1.733e-05
0.000156613
-1.73352e-05
0.000160083
-1.73386e-05
0.000163554
-1.73401e-05
0.000167024
-1.73394e-05
0.000170494
-1.73365e-05
0.000173964
-1.73313e-05
0.000177432
-1.73235e-05
0.000180898
-1.7313e-05
0.000184361
-1.72997e-05
0.000187822
-1.72834e-05
0.000191279
-1.72639e-05
0.000194731
-1.72411e-05
0.000198178
-1.72147e-05
0.00020162
-1.71847e-05
0.000205055
-1.71508e-05
0.000208483
-1.71129e-05
0.000211902
-1.70707e-05
0.000215312
-1.70242e-05
0.000218713
-1.69731e-05
0.000222102
-1.69172e-05
0.00022548
-1.68564e-05
0.000228844
-1.67904e-05
0.000232194
-1.67192e-05
0.00023553
-1.66424e-05
0.000238849
-1.656e-05
0.00024215
-1.64717e-05
0.000245433
-1.63774e-05
0.000248696
-1.62769e-05
0.000251938
-1.61701e-05
0.000255157
-1.60567e-05
0.000258353
-1.59366e-05
0.000261523
-1.58096e-05
0.000264667
-1.56756e-05
0.000267783
-1.55345e-05
0.000270869
-1.5386e-05
0.000273924
-1.52301e-05
0.000276946
-1.50666e-05
0.000279935
-1.48955e-05
0.000282888
-1.47166e-05
0.000285803
-1.45297e-05
0.00028868
-1.43349e-05
0.000291516
-1.4132e-05
0.00029431
-1.3921e-05
0.00029706
-1.37017e-05
0.000299765
-1.34743e-05
0.000302422
-1.32385e-05
0.000305031
-1.29945e-05
0.00030759
-1.27422e-05
0.000310096
-1.24816e-05
0.000312548
-1.22127e-05
0.000314945
-1.19356e-05
0.000317285
-1.16503e-05
0.000319566
-1.13569e-05
0.000321786
-1.10555e-05
0.000323945
-1.07462e-05
0.00032604
-1.04291e-05
0.00032807
-1.01043e-05
0.000330033
-9.77198e-06
0.000331928
-9.43231e-06
0.000333753
-9.08547e-06
0.000335508
-8.73165e-06
0.00033719
-8.37107e-06
0.000338798
-8.00395e-06
0.000340331
-7.63053e-06
0.000341789
-7.25108e-06
0.000343168
-6.86587e-06
0.00034447
-6.47517e-06
0.000345691
-6.0793e-06
0.000346832
-5.67856e-06
0.000347892
-5.27328e-06
0.000348869
-4.86378e-06
0.000349764
-4.45042e-06
0.000350574
-4.03354e-06
0.0003513
-3.61351e-06
0.000351941
-3.1907e-06
0.000352497
-2.76547e-06
0.000352966
-2.33822e-06
0.00035335
-1.90933e-06
0.000353647
-1.47919e-06
0.000353857
-1.04818e-06
0.00035398
-6.16711e-07
0.000354017
-1.85163e-07
0.000353967
2.46068e-07
0.00035383
6.76592e-07
0.000353607
1.10602e-06
0.000353298
1.53397e-06
0.000352904
1.96006e-06
0.000352424
2.38393e-06
0.000351859
2.80519e-06
0.000351211
3.22351e-06
0.000350478
3.63851e-06
0.000349664
4.04988e-06
0.000348767
4.45727e-06
0.00034779
4.86036e-06
0.000346732
5.25886e-06
0.000345595
5.65246e-06
0.000344381
6.04088e-06
0.000343089
6.42385e-06
0.000341722
6.80111e-06
0.00034028
7.17243e-06
0.000338765
7.53757e-06
0.000337178
7.89633e-06
0.00033552
8.2485e-06
0.000333793
8.5939e-06
0.000331998
8.93237e-06
0.000330137
9.26374e-06
0.00032821
9.58789e-06
0.00032622
9.90469e-06
0.000324169
1.0214e-05
0.000322056
1.05158e-05
0.000319885
1.081e-05
0.000317656
1.10964e-05
0.000315372
1.13751e-05
0.000313034
1.16461e-05
0.000310642
1.19092e-05
0.0003082
1.21645e-05
0.000305708
1.24119e-05
0.000303169
1.26516e-05
0.000300583
1.28835e-05
0.000297952
1.31076e-05
0.000295278
1.3324e-05
0.000292563
1.35328e-05
0.000289807
1.37341e-05
0.000287012
1.39278e-05
0.000284181
1.41141e-05
0.000281314
1.4293e-05
0.000278412
1.44648e-05
0.000275478
1.46294e-05
0.000272512
1.4787e-05
0.000269516
1.49377e-05
0.000266492
1.50817e-05
0.000263441
1.5219e-05