/*--------------------------------*- C++ -*----------------------------------*\
| =========                 |                                                 |
| \\      /  F ield         | OpenFOAM: The Open Source CFD Toolbox           |
|  \\    /   O peration     | Version:  v2012                                 |
|   \\  /    A nd           | Website:  www.openfoam.com                      |
|    \\/     M anipulation  |                                                 |
\*---------------------------------------------------------------------------*/
FoamFile
{
    version     2.0;
    format      ascii;
    class       volVectorField;
    location    "16";
    object      Psi;
}
// * * * * * * * * * * * * * * * * * * * * * * * * * * * * * * * * * * * * * //

dimensions      [0 2 -1 0 0 0 0];


internalField   nonuniform List<vector> 
65536
(
(0 0 8.37498e-06)
(0 0 2.51255e-05)
(0 0 4.18775e-05)
(0 0 5.86318e-05)
(0 0 7.53895e-05)
(0 0 9.21513e-05)
(0 0 0.000108918)
(0 0 0.000125691)
(0 0 0.000142471)
(0 0 0.000159259)
(0 0 0.000176055)
(0 0 0.000192861)
(0 0 0.000209678)
(0 0 0.000226505)
(0 0 0.000243344)
(0 0 0.000260196)
(0 0 0.000277061)
(0 0 0.00029394)
(0 0 0.000310833)
(0 0 0.000327742)
(0 0 0.000344666)
(0 0 0.000361606)
(0 0 0.000378563)
(0 0 0.000395537)
(0 0 0.000412528)
(0 0 0.000429537)
(0 0 0.000446563)
(0 0 0.000463608)
(0 0 0.00048067)
(0 0 0.00049775)
(0 0 0.000514849)
(0 0 0.000531965)
(0 0 0.000549098)
(0 0 0.000566249)
(0 0 0.000583416)
(0 0 0.0006006)
(0 0 0.0006178)
(0 0 0.000635015)
(0 0 0.000652244)
(0 0 0.000669486)
(0 0 0.000686741)
(0 0 0.000704008)
(0 0 0.000721284)
(0 0 0.000738569)
(0 0 0.000755861)
(0 0 0.000773159)
(0 0 0.000790461)
(0 0 0.000807766)
(0 0 0.00082507)
(0 0 0.000842372)
(0 0 0.00085967)
(0 0 0.00087696)
(0 0 0.000894242)
(0 0 0.000911511)
(0 0 0.000928766)
(0 0 0.000946002)
(0 0 0.000963217)
(0 0 0.000980407)
(0 0 0.000997569)
(0 0 0.0010147)
(0 0 0.00103179)
(0 0 0.00104885)
(0 0 0.00106586)
(0 0 0.00108282)
(0 0 0.00109972)
(0 0 0.00111657)
(0 0 0.00113336)
(0 0 0.00115008)
(0 0 0.00116672)
(0 0 0.00118328)
(0 0 0.00119976)
(0 0 0.00121615)
(0 0 0.00123244)
(0 0 0.00124863)
(0 0 0.00126471)
(0 0 0.00128067)
(0 0 0.00129651)
(0 0 0.00131222)
(0 0 0.00132779)
(0 0 0.00134322)
(0 0 0.0013585)
(0 0 0.00137362)
(0 0 0.00138857)
(0 0 0.00140335)
(0 0 0.00141795)
(0 0 0.00143236)
(0 0 0.00144657)
(0 0 0.00146057)
(0 0 0.00147437)
(0 0 0.00148794)
(0 0 0.00150127)
(0 0 0.00151438)
(0 0 0.00152723)
(0 0 0.00153983)
(0 0 0.00155217)
(0 0 0.00156423)
(0 0 0.00157602)
(0 0 0.00158752)
(0 0 0.00159872)
(0 0 0.00160962)
(0 0 0.00162021)
(0 0 0.00163049)
(0 0 0.00164043)
(0 0 0.00165004)
(0 0 0.00165931)
(0 0 0.00166823)
(0 0 0.0016768)
(0 0 0.00168501)
(0 0 0.00169284)
(0 0 0.00170031)
(0 0 0.00170739)
(0 0 0.00171409)
(0 0 0.0017204)
(0 0 0.00172631)
(0 0 0.00173182)
(0 0 0.00173692)
(0 0 0.00174162)
(0 0 0.0017459)
(0 0 0.00174977)
(0 0 0.00175322)
(0 0 0.00175624)
(0 0 0.00175885)
(0 0 0.00176102)
(0 0 0.00176277)
(0 0 0.00176409)
(0 0 0.00176498)
(0 0 0.00176544)
(0 0 0.00176546)
(0 0 0.00176506)
(0 0 0.00176424)
(0 0 0.00176298)
(0 0 0.0017613)
(0 0 0.00175919)
(0 0 0.00175666)
(0 0 0.00175372)
(0 0 0.00175036)
(0 0 0.00174658)
(0 0 0.0017424)
(0 0 0.00173781)
(0 0 0.00173282)
(0 0 0.00172743)
(0 0 0.00172166)
(0 0 0.0017155)
(0 0 0.00170895)
(0 0 0.00170204)
(0 0 0.00169475)
(0 0 0.00168711)
(0 0 0.0016791)
(0 0 0.00167075)
(0 0 0.00166205)
(0 0 0.00165302)
(0 0 0.00164366)
(0 0 0.00163398)
(0 0 0.00162399)
(0 0 0.00161368)
(0 0 0.00160308)
(0 0 0.00159219)
(0 0 0.00158101)
(0 0 0.00156956)
(0 0 0.00155784)
(0 0 0.00154586)
(0 0 0.00153362)
(0 0 0.00152114)
(0 0 0.00150843)
(0 0 0.00149548)
(0 0 0.00148231)
(0 0 0.00146893)
(0 0 0.00145534)
(0 0 0.00144155)
(0 0 0.00142757)
(0 0 0.00141341)
(0 0 0.00139906)
(0 0 0.00138455)
(0 0 0.00136988)
(0 0 0.00135505)
(0 0 0.00134007)
(0 0 0.00132495)
(0 0 0.00130969)
(0 0 0.0012943)
(0 0 0.00127879)
(0 0 0.00126317)
(0 0 0.00124743)
(0 0 0.00123159)
(0 0 0.00121564)
(0 0 0.00119961)
(0 0 0.00118349)
(0 0 0.00116728)
(0 0 0.00115099)
(0 0 0.00113464)
(0 0 0.00111821)
(0 0 0.00110172)
(0 0 0.00108518)
(0 0 0.00106857)
(0 0 0.00105192)
(0 0 0.00103522)
(0 0 0.00101848)
(0 0 0.0010017)
(0 0 0.000984882)
(0 0 0.000968034)
(0 0 0.000951157)
(0 0 0.000934254)
(0 0 0.000917329)
(0 0 0.000900385)
(0 0 0.000883423)
(0 0 0.000866446)
(0 0 0.000849458)
(0 0 0.00083246)
(0 0 0.000815454)
(0 0 0.000798443)
(0 0 0.000781428)
(0 0 0.000764412)
(0 0 0.000747395)
(0 0 0.00073038)
(0 0 0.000713367)
(0 0 0.000696359)
(0 0 0.000679357)
(0 0 0.000662361)
(0 0 0.000645373)
(0 0 0.000628393)
(0 0 0.000611424)
(0 0 0.000594464)
(0 0 0.000577516)
(0 0 0.000560579)
(0 0 0.000543654)
(0 0 0.000526742)
(0 0 0.000509843)
(0 0 0.000492957)
(0 0 0.000476084)
(0 0 0.000459225)
(0 0 0.00044238)
(0 0 0.000425549)
(0 0 0.000408731)
(0 0 0.000391927)
(0 0 0.000375136)
(0 0 0.000358358)
(0 0 0.000341594)
(0 0 0.000324842)
(0 0 0.000308102)
(0 0 0.000291375)
(0 0 0.000274659)
(0 0 0.000257954)
(0 0 0.000241259)
(0 0 0.000224575)
(0 0 0.0002079)
(0 0 0.000191234)
(0 0 0.000174577)
(0 0 0.000157927)
(0 0 0.000141284)
(0 0 0.000124647)
(0 0 0.000108016)
(0 0 9.13899e-05)
(0 0 7.47678e-05)
(0 0 5.81492e-05)
(0 0 4.15332e-05)
(0 0 2.49192e-05)
(0 0 8.30627e-06)
(0 0 2.51247e-05)
(0 0 7.53755e-05)
(0 0 0.000125631)
(0 0 0.000175893)
(0 0 0.000226165)
(0 0 0.00027645)
(0 0 0.00032675)
(0 0 0.000377068)
(0 0 0.000427407)
(0 0 0.00047777)
(0 0 0.000528158)
(0 0 0.000578576)
(0 0 0.000629024)
(0 0 0.000679505)
(0 0 0.000730022)
(0 0 0.000780576)
(0 0 0.000831171)
(0 0 0.000881807)
(0 0 0.000932487)
(0 0 0.000983213)
(0 0 0.00103398)
(0 0 0.00108481)
(0 0 0.00113568)
(0 0 0.0011866)
(0 0 0.00123757)
(0 0 0.0012886)
(0 0 0.00133968)
(0 0 0.00139081)
(0 0 0.001442)
(0 0 0.00149324)
(0 0 0.00154453)
(0 0 0.00159588)
(0 0 0.00164728)
(0 0 0.00169873)
(0 0 0.00175024)
(0 0 0.00180179)
(0 0 0.00185339)
(0 0 0.00190504)
(0 0 0.00195672)
(0 0 0.00200845)
(0 0 0.00206022)
(0 0 0.00211202)
(0 0 0.00216385)
(0 0 0.00221571)
(0 0 0.00226758)
(0 0 0.00231948)
(0 0 0.00237139)
(0 0 0.0024233)
(0 0 0.00247522)
(0 0 0.00252713)
(0 0 0.00257902)
(0 0 0.0026309)
(0 0 0.00268274)
(0 0 0.00273456)
(0 0 0.00278632)
(0 0 0.00283803)
(0 0 0.00288968)
(0 0 0.00294126)
(0 0 0.00299275)
(0 0 0.00304414)
(0 0 0.00309542)
(0 0 0.00314659)
(0 0 0.00319762)
(0 0 0.00324851)
(0 0 0.00329924)
(0 0 0.00334979)
(0 0 0.00340015)
(0 0 0.00345031)
(0 0 0.00350024)
(0 0 0.00354994)
(0 0 0.00359939)
(0 0 0.00364856)
(0 0 0.00369744)
(0 0 0.00374601)
(0 0 0.00379425)
(0 0 0.00384215)
(0 0 0.00388967)
(0 0 0.00393681)
(0 0 0.00398353)
(0 0 0.00402983)
(0 0 0.00407567)
(0 0 0.00412104)
(0 0 0.0041659)
(0 0 0.00421025)
(0 0 0.00425405)
(0 0 0.00429728)
(0 0 0.00433992)
(0 0 0.00438194)
(0 0 0.00442332)
(0 0 0.00446404)
(0 0 0.00450407)
(0 0 0.00454338)
(0 0 0.00458195)
(0 0 0.00461976)
(0 0 0.00465678)
(0 0 0.00469298)
(0 0 0.00472835)
(0 0 0.00476286)
(0 0 0.00479648)
(0 0 0.00482919)
(0 0 0.00486097)
(0 0 0.00489179)
(0 0 0.00492163)
(0 0 0.00495047)
(0 0 0.00497829)
(0 0 0.00500506)
(0 0 0.00503077)
(0 0 0.00505539)
(0 0 0.00507891)
(0 0 0.00510131)
(0 0 0.00512256)
(0 0 0.00514266)
(0 0 0.00516159)
(0 0 0.00517933)
(0 0 0.00519586)
(0 0 0.00521118)
(0 0 0.00522528)
(0 0 0.00523813)
(0 0 0.00524973)
(0 0 0.00526008)
(0 0 0.00526916)
(0 0 0.00527696)
(0 0 0.00528349)
(0 0 0.00528873)
(0 0 0.00529269)
(0 0 0.00529536)
(0 0 0.00529674)
(0 0 0.00529682)
(0 0 0.00529562)
(0 0 0.00529314)
(0 0 0.00528937)
(0 0 0.00528432)
(0 0 0.005278)
(0 0 0.00527041)
(0 0 0.00526157)
(0 0 0.00525148)
(0 0 0.00524015)
(0 0 0.0052276)
(0 0 0.00521383)
(0 0 0.00519885)
(0 0 0.00518269)
(0 0 0.00516536)
(0 0 0.00514687)
(0 0 0.00512724)
(0 0 0.00510648)
(0 0 0.00508462)
(0 0 0.00506167)
(0 0 0.00503765)
(0 0 0.00501259)
(0 0 0.0049865)
(0 0 0.00495939)
(0 0 0.00493131)
(0 0 0.00490226)
(0 0 0.00487226)
(0 0 0.00484135)
(0 0 0.00480954)
(0 0 0.00477685)
(0 0 0.00474332)
(0 0 0.00470895)
(0 0 0.00467378)
(0 0 0.00463782)
(0 0 0.00460111)
(0 0 0.00456367)
(0 0 0.00452551)
(0 0 0.00448666)
(0 0 0.00444715)
(0 0 0.00440699)
(0 0 0.00436621)
(0 0 0.00432484)
(0 0 0.00428289)
(0 0 0.00424039)
(0 0 0.00419736)
(0 0 0.00415382)
(0 0 0.00410978)
(0 0 0.00406529)
(0 0 0.00402034)
(0 0 0.00397497)
(0 0 0.00392919)
(0 0 0.00388302)
(0 0 0.00383649)
(0 0 0.0037896)
(0 0 0.00374238)
(0 0 0.00369485)
(0 0 0.00364702)
(0 0 0.00359891)
(0 0 0.00355054)
(0 0 0.00350191)
(0 0 0.00345305)
(0 0 0.00340398)
(0 0 0.0033547)
(0 0 0.00330523)
(0 0 0.00325558)
(0 0 0.00320577)
(0 0 0.0031558)
(0 0 0.0031057)
(0 0 0.00305547)
(0 0 0.00300513)
(0 0 0.00295467)
(0 0 0.00290413)
(0 0 0.00285349)
(0 0 0.00280278)
(0 0 0.002752)
(0 0 0.00270117)
(0 0 0.00265028)
(0 0 0.00259935)
(0 0 0.00254838)
(0 0 0.00249738)
(0 0 0.00244636)
(0 0 0.00239533)
(0 0 0.00234428)
(0 0 0.00229323)
(0 0 0.00224218)
(0 0 0.00219113)
(0 0 0.00214009)
(0 0 0.00208907)
(0 0 0.00203806)
(0 0 0.00198707)
(0 0 0.00193611)
(0 0 0.00188517)
(0 0 0.00183426)
(0 0 0.00178338)
(0 0 0.00173253)
(0 0 0.00168172)
(0 0 0.00163095)
(0 0 0.00158021)
(0 0 0.00152951)
(0 0 0.00147885)
(0 0 0.00142824)
(0 0 0.00137766)
(0 0 0.00132712)
(0 0 0.00127663)
(0 0 0.00122618)
(0 0 0.00117576)
(0 0 0.00112539)
(0 0 0.00107506)
(0 0 0.00102477)
(0 0 0.000974511)
(0 0 0.000924293)
(0 0 0.000874111)
(0 0 0.000823963)
(0 0 0.000773849)
(0 0 0.000723767)
(0 0 0.000673715)
(0 0 0.000623691)
(0 0 0.000573694)
(0 0 0.000523722)
(0 0 0.000473773)
(0 0 0.000423844)
(0 0 0.000373935)
(0 0 0.000324043)
(0 0 0.000274165)
(0 0 0.0002243)
(0 0 0.000174445)
(0 0 0.000124598)
(0 0 7.47564e-05)
(0 0 2.49184e-05)
(0 0 4.18729e-05)
(0 0 0.000125621)
(0 0 0.000209377)
(0 0 0.000293144)
(0 0 0.000376928)
(0 0 0.000460733)
(0 0 0.000544563)
(0 0 0.000628424)
(0 0 0.00071232)
(0 0 0.000796255)
(0 0 0.000880233)
(0 0 0.000964259)
(0 0 0.00104834)
(0 0 0.00113247)
(0 0 0.00121666)
(0 0 0.00130092)
(0 0 0.00138524)
(0 0 0.00146963)
(0 0 0.0015541)
(0 0 0.00163864)
(0 0 0.00172325)
(0 0 0.00180795)
(0 0 0.00189274)
(0 0 0.00197761)
(0 0 0.00206256)
(0 0 0.0021476)
(0 0 0.00223273)
(0 0 0.00231796)
(0 0 0.00240327)
(0 0 0.00248867)
(0 0 0.00257416)
(0 0 0.00265974)
(0 0 0.00274541)
(0 0 0.00283117)
(0 0 0.00291701)
(0 0 0.00300293)
(0 0 0.00308893)
(0 0 0.00317501)
(0 0 0.00326116)
(0 0 0.00334738)
(0 0 0.00343366)
(0 0 0.00352)
(0 0 0.00360639)
(0 0 0.00369282)
(0 0 0.00377929)
(0 0 0.00386579)
(0 0 0.00395231)
(0 0 0.00403884)
(0 0 0.00412537)
(0 0 0.00421189)
(0 0 0.00429839)
(0 0 0.00438486)
(0 0 0.00447128)
(0 0 0.00455764)
(0 0 0.00464393)
(0 0 0.00473013)
(0 0 0.00481622)
(0 0 0.00490219)
(0 0 0.00498802)
(0 0 0.00507369)
(0 0 0.00515918)
(0 0 0.00524447)
(0 0 0.00532953)
(0 0 0.00541436)
(0 0 0.00549892)
(0 0 0.00558319)
(0 0 0.00566715)
(0 0 0.00575076)
(0 0 0.005834)
(0 0 0.00591685)
(0 0 0.00599928)
(0 0 0.00608125)
(0 0 0.00616274)
(0 0 0.00624371)
(0 0 0.00632414)
(0 0 0.00640399)
(0 0 0.00648322)
(0 0 0.0065618)
(0 0 0.00663971)
(0 0 0.00671689)
(0 0 0.00679332)
(0 0 0.00686895)
(0 0 0.00694375)
(0 0 0.00701769)
(0 0 0.00709072)
(0 0 0.00716279)
(0 0 0.00723389)
(0 0 0.00730395)
(0 0 0.00737295)
(0 0 0.00744083)
(0 0 0.00750757)
(0 0 0.00757312)
(0 0 0.00763743)
(0 0 0.00770047)
(0 0 0.0077622)
(0 0 0.00782257)
(0 0 0.00788155)
(0 0 0.00793908)
(0 0 0.00799514)
(0 0 0.00804969)
(0 0 0.00810267)
(0 0 0.00815407)
(0 0 0.00820383)
(0 0 0.00825192)
(0 0 0.0082983)
(0 0 0.00834295)
(0 0 0.00838582)
(0 0 0.00842688)
(0 0 0.0084661)
(0 0 0.00850345)
(0 0 0.00853889)
(0 0 0.00857241)
(0 0 0.00860397)
(0 0 0.00863355)
(0 0 0.00866112)
(0 0 0.00868667)
(0 0 0.00871017)
(0 0 0.0087316)
(0 0 0.00875095)
(0 0 0.0087682)
(0 0 0.00878334)
(0 0 0.00879636)
(0 0 0.00880724)
(0 0 0.00881599)
(0 0 0.00882258)
(0 0 0.00882703)
(0 0 0.00882933)
(0 0 0.00882947)
(0 0 0.00882747)
(0 0 0.00882332)
(0 0 0.00881703)
(0 0 0.00880861)
(0 0 0.00879807)
(0 0 0.00878542)
(0 0 0.00877067)
(0 0 0.00875384)
(0 0 0.00873495)
(0 0 0.00871401)
(0 0 0.00869104)
(0 0 0.00866607)
(0 0 0.00863912)
(0 0 0.00861022)
(0 0 0.00857938)
(0 0 0.00854664)
(0 0 0.00851203)
(0 0 0.00847557)
(0 0 0.00843731)
(0 0 0.00839725)
(0 0 0.00835546)
(0 0 0.00831194)
(0 0 0.00826675)
(0 0 0.00821992)
(0 0 0.00817147)
(0 0 0.00812146)
(0 0 0.00806991)
(0 0 0.00801687)
(0 0 0.00796237)
(0 0 0.00790645)
(0 0 0.00784914)
(0 0 0.0077905)
(0 0 0.00773055)
(0 0 0.00766934)
(0 0 0.0076069)
(0 0 0.00754328)
(0 0 0.0074785)
(0 0 0.00741262)
(0 0 0.00734567)
(0 0 0.00727769)
(0 0 0.0072087)
(0 0 0.00713877)
(0 0 0.00706791)
(0 0 0.00699616)
(0 0 0.00692357)
(0 0 0.00685016)
(0 0 0.00677597)
(0 0 0.00670104)
(0 0 0.0066254)
(0 0 0.00654908)
(0 0 0.00647212)
(0 0 0.00639454)
(0 0 0.00631637)
(0 0 0.00623766)
(0 0 0.00615842)
(0 0 0.00607868)
(0 0 0.00599848)
(0 0 0.00591783)
(0 0 0.00583678)
(0 0 0.00575533)
(0 0 0.00567352)
(0 0 0.00559137)
(0 0 0.0055089)
(0 0 0.00542614)
(0 0 0.00534311)
(0 0 0.00525983)
(0 0 0.00517631)
(0 0 0.00509258)
(0 0 0.00500866)
(0 0 0.00492456)
(0 0 0.0048403)
(0 0 0.0047559)
(0 0 0.00467138)
(0 0 0.00458674)
(0 0 0.004502)
(0 0 0.00441718)
(0 0 0.00433228)
(0 0 0.00424733)
(0 0 0.00416233)
(0 0 0.00407729)
(0 0 0.00399223)
(0 0 0.00390714)
(0 0 0.00382205)
(0 0 0.00373696)
(0 0 0.00365188)
(0 0 0.00356681)
(0 0 0.00348176)
(0 0 0.00339674)
(0 0 0.00331176)
(0 0 0.00322681)
(0 0 0.00314191)
(0 0 0.00305706)
(0 0 0.00297226)
(0 0 0.00288751)
(0 0 0.00280283)
(0 0 0.0027182)
(0 0 0.00263364)
(0 0 0.00254914)
(0 0 0.00246471)
(0 0 0.00238035)
(0 0 0.00229605)
(0 0 0.00221183)
(0 0 0.00212767)
(0 0 0.00204358)
(0 0 0.00195956)
(0 0 0.00187561)
(0 0 0.00179172)
(0 0 0.0017079)
(0 0 0.00162414)
(0 0 0.00154045)
(0 0 0.00145681)
(0 0 0.00137323)
(0 0 0.00128971)
(0 0 0.00120624)
(0 0 0.00112283)
(0 0 0.00103945)
(0 0 0.000956128)
(0 0 0.000872844)
(0 0 0.000789597)
(0 0 0.000706386)
(0 0 0.000623206)
(0 0 0.000540055)
(0 0 0.000456928)
(0 0 0.000373821)
(0 0 0.000290732)
(0 0 0.000207656)
(0 0 0.00012459)
(0 0 4.15294e-05)
(0 0 5.86188e-05)
(0 0 0.00017586)
(0 0 0.000293111)
(0 0 0.000410378)
(0 0 0.000527669)
(0 0 0.000644989)
(0 0 0.000762346)
(0 0 0.000879745)
(0 0 0.000997193)
(0 0 0.0011147)
(0 0 0.00123226)
(0 0 0.00134989)
(0 0 0.00146759)
(0 0 0.00158537)
(0 0 0.00170324)
(0 0 0.00182119)
(0 0 0.00193924)
(0 0 0.00205738)
(0 0 0.00217563)
(0 0 0.00229398)
(0 0 0.00241244)
(0 0 0.00253102)
(0 0 0.00264971)
(0 0 0.00276853)
(0 0 0.00288746)
(0 0 0.00300652)
(0 0 0.0031257)
(0 0 0.00324501)
(0 0 0.00336445)
(0 0 0.00348401)
(0 0 0.0036037)
(0 0 0.00372352)
(0 0 0.00384346)
(0 0 0.00396352)
(0 0 0.0040837)
(0 0 0.00420399)
(0 0 0.0043244)
(0 0 0.00444491)
(0 0 0.00456553)
(0 0 0.00468624)
(0 0 0.00480704)
(0 0 0.00492792)
(0 0 0.00504888)
(0 0 0.00516989)
(0 0 0.00529096)
(0 0 0.00541207)
(0 0 0.00553321)
(0 0 0.00565437)
(0 0 0.00577553)
(0 0 0.00589668)
(0 0 0.00601779)
(0 0 0.00613887)
(0 0 0.00625988)
(0 0 0.0063808)
(0 0 0.00650163)
(0 0 0.00662233)
(0 0 0.00674288)
(0 0 0.00686326)
(0 0 0.00698345)
(0 0 0.00710341)
(0 0 0.00722312)
(0 0 0.00734256)
(0 0 0.00746169)
(0 0 0.00758048)
(0 0 0.0076989)
(0 0 0.00781691)
(0 0 0.00793448)
(0 0 0.00805158)
(0 0 0.00816816)
(0 0 0.00828419)
(0 0 0.00839963)
(0 0 0.00851443)
(0 0 0.00862856)
(0 0 0.00874196)
(0 0 0.00885461)
(0 0 0.00896644)
(0 0 0.00907741)
(0 0 0.00918748)
(0 0 0.00929659)
(0 0 0.0094047)
(0 0 0.00951175)
(0 0 0.00961769)
(0 0 0.00972247)
(0 0 0.00982603)
(0 0 0.00992833)
(0 0 0.0100293)
(0 0 0.0101289)
(0 0 0.010227)
(0 0 0.0103237)
(0 0 0.0104188)
(0 0 0.0105123)
(0 0 0.0106041)
(0 0 0.0106942)
(0 0 0.0107825)
(0 0 0.010869)
(0 0 0.0109536)
(0 0 0.0110362)
(0 0 0.0111168)
(0 0 0.0111953)
(0 0 0.0112717)
(0 0 0.011346)
(0 0 0.011418)
(0 0 0.0114877)
(0 0 0.0115551)
(0 0 0.0116201)
(0 0 0.0116826)
(0 0 0.0117427)
(0 0 0.0118002)
(0 0 0.0118552)
(0 0 0.0119075)
(0 0 0.0119571)
(0 0 0.0120041)
(0 0 0.0120483)
(0 0 0.0120898)
(0 0 0.0121284)
(0 0 0.0121642)
(0 0 0.0121971)
(0 0 0.0122272)
(0 0 0.0122543)
(0 0 0.0122784)
(0 0 0.0122997)
(0 0 0.0123179)
(0 0 0.0123331)
(0 0 0.0123454)
(0 0 0.0123546)
(0 0 0.0123609)
(0 0 0.0123641)
(0 0 0.0123643)
(0 0 0.0123615)
(0 0 0.0123556)
(0 0 0.0123468)
(0 0 0.012335)
(0 0 0.0123203)
(0 0 0.0123025)
(0 0 0.0122819)
(0 0 0.0122583)
(0 0 0.0122318)
(0 0 0.0122024)
(0 0 0.0121703)
(0 0 0.0121353)
(0 0 0.0120975)
(0 0 0.012057)
(0 0 0.0120138)
(0 0 0.0119679)
(0 0 0.0119194)
(0 0 0.0118683)
(0 0 0.0118147)
(0 0 0.0117586)
(0 0 0.0117)
(0 0 0.0116391)
(0 0 0.0115758)
(0 0 0.0115101)
(0 0 0.0114423)
(0 0 0.0113722)
(0 0 0.0113)
(0 0 0.0112257)
(0 0 0.0111493)
(0 0 0.011071)
(0 0 0.0109907)
(0 0 0.0109085)
(0 0 0.0108245)
(0 0 0.0107388)
(0 0 0.0106513)
(0 0 0.0105622)
(0 0 0.0104715)
(0 0 0.0103792)
(0 0 0.0102854)
(0 0 0.0101902)
(0 0 0.0100935)
(0 0 0.00999556)
(0 0 0.00989631)
(0 0 0.00979581)
(0 0 0.00969413)
(0 0 0.00959131)
(0 0 0.00948741)
(0 0 0.00938246)
(0 0 0.00927651)
(0 0 0.00916962)
(0 0 0.00906182)
(0 0 0.00895317)
(0 0 0.0088437)
(0 0 0.00873345)
(0 0 0.00862248)
(0 0 0.00851081)
(0 0 0.00839849)
(0 0 0.00828555)
(0 0 0.00817203)
(0 0 0.00805797)
(0 0 0.0079434)
(0 0 0.00782836)
(0 0 0.00771288)
(0 0 0.00759698)
(0 0 0.00748071)
(0 0 0.00736408)
(0 0 0.00724713)
(0 0 0.00712989)
(0 0 0.00701237)
(0 0 0.00689461)
(0 0 0.00677663)
(0 0 0.00665844)
(0 0 0.00654008)
(0 0 0.00642157)
(0 0 0.00630292)
(0 0 0.00618415)
(0 0 0.00606528)
(0 0 0.00594633)
(0 0 0.00582731)
(0 0 0.00570825)
(0 0 0.00558914)
(0 0 0.00547001)
(0 0 0.00535087)
(0 0 0.00523173)
(0 0 0.00511261)
(0 0 0.0049935)
(0 0 0.00487443)
(0 0 0.00475539)
(0 0 0.00463641)
(0 0 0.00451748)
(0 0 0.00439861)
(0 0 0.00427981)
(0 0 0.00416109)
(0 0 0.00404244)
(0 0 0.00392387)
(0 0 0.00380539)
(0 0 0.003687)
(0 0 0.00356871)
(0 0 0.0034505)
(0 0 0.00333239)
(0 0 0.00321438)
(0 0 0.00309646)
(0 0 0.00297864)
(0 0 0.00286092)
(0 0 0.00274329)
(0 0 0.00262576)
(0 0 0.00250832)
(0 0 0.00239097)
(0 0 0.00227371)
(0 0 0.00215654)
(0 0 0.00203946)
(0 0 0.00192245)
(0 0 0.00180552)
(0 0 0.00168867)
(0 0 0.00157189)
(0 0 0.00145517)
(0 0 0.00133852)
(0 0 0.00122193)
(0 0 0.00110539)
(0 0 0.000988896)
(0 0 0.00087245)
(0 0 0.000756042)
(0 0 0.00063967)
(0 0 0.000523326)
(0 0 0.000407006)
(0 0 0.000290706)
(0 0 0.000174418)
(0 0 5.81385e-05)
(0 0 7.53613e-05)
(0 0 0.000226088)
(0 0 0.000376828)
(0 0 0.000527589)
(0 0 0.000678381)
(0 0 0.00082921)
(0 0 0.000980086)
(0 0 0.00113102)
(0 0 0.00128201)
(0 0 0.00143307)
(0 0 0.00158422)
(0 0 0.00173545)
(0 0 0.00188677)
(0 0 0.00203819)
(0 0 0.00218972)
(0 0 0.00234137)
(0 0 0.00249314)
(0 0 0.00264503)
(0 0 0.00279705)
(0 0 0.00294921)
(0 0 0.00310152)
(0 0 0.00325397)
(0 0 0.00340657)
(0 0 0.00355932)
(0 0 0.00371224)
(0 0 0.00386531)
(0 0 0.00401854)
(0 0 0.00417194)
(0 0 0.0043255)
(0 0 0.00447922)
(0 0 0.00463311)
(0 0 0.00478716)
(0 0 0.00494138)
(0 0 0.00509574)
(0 0 0.00525027)
(0 0 0.00540494)
(0 0 0.00555976)
(0 0 0.00571471)
(0 0 0.0058698)
(0 0 0.00602502)
(0 0 0.00618034)
(0 0 0.00633578)
(0 0 0.0064913)
(0 0 0.00664691)
(0 0 0.00680259)
(0 0 0.00695833)
(0 0 0.0071141)
(0 0 0.0072699)
(0 0 0.0074257)
(0 0 0.00758149)
(0 0 0.00773724)
(0 0 0.00789294)
(0 0 0.00804855)
(0 0 0.00820407)
(0 0 0.00835945)
(0 0 0.00851467)
(0 0 0.00866971)
(0 0 0.00882453)
(0 0 0.0089791)
(0 0 0.00913338)
(0 0 0.00928735)
(0 0 0.00944096)
(0 0 0.00959418)
(0 0 0.00974696)
(0 0 0.00989927)
(0 0 0.0100511)
(0 0 0.0102023)
(0 0 0.0103529)
(0 0 0.0105029)
(0 0 0.0106521)
(0 0 0.0108006)
(0 0 0.0109483)
(0 0 0.0110951)
(0 0 0.011241)
(0 0 0.0113859)
(0 0 0.0115297)
(0 0 0.0116725)
(0 0 0.0118141)
(0 0 0.0119545)
(0 0 0.0120936)
(0 0 0.0122313)
(0 0 0.0123676)
(0 0 0.0125024)
(0 0 0.0126356)
(0 0 0.0127673)
(0 0 0.0128972)
(0 0 0.0130253)
(0 0 0.0131516)
(0 0 0.013276)
(0 0 0.0133983)
(0 0 0.0135186)
(0 0 0.0136368)
(0 0 0.0137527)
(0 0 0.0138664)
(0 0 0.0139777)
(0 0 0.0140865)
(0 0 0.0141928)
(0 0 0.0142966)
(0 0 0.0143976)
(0 0 0.014496)
(0 0 0.0145915)
(0 0 0.0146842)
(0 0 0.0147739)
(0 0 0.0148606)
(0 0 0.0149443)
(0 0 0.0150248)
(0 0 0.0151021)
(0 0 0.0151761)
(0 0 0.0152468)
(0 0 0.0153142)
(0 0 0.0153781)
(0 0 0.0154386)
(0 0 0.0154955)
(0 0 0.0155488)
(0 0 0.0155985)
(0 0 0.0156446)
(0 0 0.015687)
(0 0 0.0157256)
(0 0 0.0157605)
(0 0 0.0157916)
(0 0 0.0158189)
(0 0 0.0158424)
(0 0 0.015862)
(0 0 0.0158778)
(0 0 0.0158897)
(0 0 0.0158977)
(0 0 0.0159018)
(0 0 0.0159021)
(0 0 0.0158985)
(0 0 0.015891)
(0 0 0.0158796)
(0 0 0.0158644)
(0 0 0.0158454)
(0 0 0.0158226)
(0 0 0.015796)
(0 0 0.0157656)
(0 0 0.0157315)
(0 0 0.0156937)
(0 0 0.0156523)
(0 0 0.0156073)
(0 0 0.0155586)
(0 0 0.0155065)
(0 0 0.0154509)
(0 0 0.0153918)
(0 0 0.0153294)
(0 0 0.0152637)
(0 0 0.0151946)
(0 0 0.0151224)
(0 0 0.015047)
(0 0 0.0149686)
(0 0 0.0148871)
(0 0 0.0148026)
(0 0 0.0147153)
(0 0 0.0146251)
(0 0 0.0145321)
(0 0 0.0144365)
(0 0 0.0143382)
(0 0 0.0142374)
(0 0 0.0141341)
(0 0 0.0140284)
(0 0 0.0139203)
(0 0 0.01381)
(0 0 0.0136974)
(0 0 0.0135827)
(0 0 0.013466)
(0 0 0.0133472)
(0 0 0.0132265)
(0 0 0.013104)
(0 0 0.0129797)
(0 0 0.0128536)
(0 0 0.0127259)
(0 0 0.0125967)
(0 0 0.0124658)
(0 0 0.0123336)
(0 0 0.0121999)
(0 0 0.0120649)
(0 0 0.0119286)
(0 0 0.0117911)
(0 0 0.0116524)
(0 0 0.0115126)
(0 0 0.0113718)
(0 0 0.01123)
(0 0 0.0110872)
(0 0 0.0109436)
(0 0 0.0107991)
(0 0 0.0106538)
(0 0 0.0105078)
(0 0 0.0103611)
(0 0 0.0102138)
(0 0 0.0100658)
(0 0 0.00991727)
(0 0 0.00976821)
(0 0 0.00961866)
(0 0 0.00946866)
(0 0 0.00931825)
(0 0 0.00916746)
(0 0 0.00901633)
(0 0 0.00886488)
(0 0 0.00871315)
(0 0 0.00856116)
(0 0 0.00840895)
(0 0 0.00825654)
(0 0 0.00810396)
(0 0 0.00795122)
(0 0 0.00779836)
(0 0 0.0076454)
(0 0 0.00749235)
(0 0 0.00733924)
(0 0 0.00718608)
(0 0 0.00703289)
(0 0 0.00687969)
(0 0 0.0067265)
(0 0 0.00657331)
(0 0 0.00642016)
(0 0 0.00626705)
(0 0 0.006114)
(0 0 0.005961)
(0 0 0.00580808)
(0 0 0.00565524)
(0 0 0.00550249)
(0 0 0.00534983)
(0 0 0.00519728)
(0 0 0.00504483)
(0 0 0.0048925)
(0 0 0.00474028)
(0 0 0.00458818)
(0 0 0.0044362)
(0 0 0.00428434)
(0 0 0.00413261)
(0 0 0.003981)
(0 0 0.00382952)
(0 0 0.00367816)
(0 0 0.00352693)
(0 0 0.00337582)
(0 0 0.00322483)
(0 0 0.00307396)
(0 0 0.0029232)
(0 0 0.00277255)
(0 0 0.00262202)
(0 0 0.00247159)
(0 0 0.00232126)
(0 0 0.00217103)
(0 0 0.00202089)
(0 0 0.00187083)
(0 0 0.00172086)
(0 0 0.00157096)
(0 0 0.00142113)
(0 0 0.00127136)
(0 0 0.00112165)
(0 0 0.000971996)
(0 0 0.000822382)
(0 0 0.000672807)
(0 0 0.000523262)
(0 0 0.000373741)
(0 0 0.000224238)
(0 0 7.47448e-05)
(0 0 9.20995e-05)
(0 0 0.000276304)
(0 0 0.000460524)
(0 0 0.00064477)
(0 0 0.000829054)
(0 0 0.00101338)
(0 0 0.00119777)
(0 0 0.00138223)
(0 0 0.00156676)
(0 0 0.00175138)
(0 0 0.00193609)
(0 0 0.00212091)
(0 0 0.00230585)
(0 0 0.00249091)
(0 0 0.0026761)
(0 0 0.00286143)
(0 0 0.00304691)
(0 0 0.00323254)
(0 0 0.00341834)
(0 0 0.0036043)
(0 0 0.00379044)
(0 0 0.00397676)
(0 0 0.00416327)
(0 0 0.00434996)
(0 0 0.00453685)
(0 0 0.00472394)
(0 0 0.00491122)
(0 0 0.0050987)
(0 0 0.00528639)
(0 0 0.00547427)
(0 0 0.00566236)
(0 0 0.00585065)
(0 0 0.00603914)
(0 0 0.00622782)
(0 0 0.00641669)
(0 0 0.00660574)
(0 0 0.00679498)
(0 0 0.00698438)
(0 0 0.00717395)
(0 0 0.00736367)
(0 0 0.00755354)
(0 0 0.00774353)
(0 0 0.00793365)
(0 0 0.00812386)
(0 0 0.00831417)
(0 0 0.00850454)
(0 0 0.00869497)
(0 0 0.00888542)
(0 0 0.00907588)
(0 0 0.00926633)
(0 0 0.00945674)
(0 0 0.00964708)
(0 0 0.00983733)
(0 0 0.0100275)
(0 0 0.0102174)
(0 0 0.0104072)
(0 0 0.0105968)
(0 0 0.010786)
(0 0 0.010975)
(0 0 0.0111637)
(0 0 0.0113519)
(0 0 0.0115398)
(0 0 0.0117271)
(0 0 0.0119139)
(0 0 0.0121002)
(0 0 0.0122858)
(0 0 0.0124707)
(0 0 0.0126549)
(0 0 0.0128383)
(0 0 0.0130208)
(0 0 0.0132024)
(0 0 0.013383)
(0 0 0.0135625)
(0 0 0.013741)
(0 0 0.0139182)
(0 0 0.0140942)
(0 0 0.0142688)
(0 0 0.014442)
(0 0 0.0146137)
(0 0 0.0147838)
(0 0 0.0149523)
(0 0 0.015119)
(0 0 0.0152839)
(0 0 0.0154469)
(0 0 0.0156079)
(0 0 0.0157668)
(0 0 0.0159236)
(0 0 0.0160781)
(0 0 0.0162302)
(0 0 0.0163799)
(0 0 0.0165271)
(0 0 0.0166717)
(0 0 0.0168136)
(0 0 0.0169526)
(0 0 0.0170888)
(0 0 0.0172219)
(0 0 0.017352)
(0 0 0.017479)
(0 0 0.0176027)
(0 0 0.017723)
(0 0 0.0178399)
(0 0 0.0179533)
(0 0 0.0180631)
(0 0 0.0181692)
(0 0 0.0182716)
(0 0 0.0183701)
(0 0 0.0184647)
(0 0 0.0185553)
(0 0 0.0186419)
(0 0 0.0187243)
(0 0 0.0188025)
(0 0 0.0188765)
(0 0 0.0189462)
(0 0 0.0190115)
(0 0 0.0190723)
(0 0 0.0191287)
(0 0 0.0191806)
(0 0 0.0192279)
(0 0 0.0192706)
(0 0 0.0193086)
(0 0 0.0193421)
(0 0 0.0193708)
(0 0 0.0193948)
(0 0 0.0194141)
(0 0 0.0194286)
(0 0 0.0194384)
(0 0 0.0194435)
(0 0 0.0194438)
(0 0 0.0194393)
(0 0 0.0194301)
(0 0 0.0194162)
(0 0 0.0193976)
(0 0 0.0193743)
(0 0 0.0193464)
(0 0 0.0193138)
(0 0 0.0192766)
(0 0 0.0192349)
(0 0 0.0191887)
(0 0 0.0191379)
(0 0 0.0190828)
(0 0 0.0190233)
(0 0 0.0189595)
(0 0 0.0188914)
(0 0 0.0188191)
(0 0 0.0187427)
(0 0 0.0186622)
(0 0 0.0185778)
(0 0 0.0184894)
(0 0 0.0183971)
(0 0 0.0183011)
(0 0 0.0182013)
(0 0 0.018098)
(0 0 0.0179911)
(0 0 0.0178807)
(0 0 0.017767)
(0 0 0.0176499)
(0 0 0.0175297)
(0 0 0.0174063)
(0 0 0.0172799)
(0 0 0.0171506)
(0 0 0.0170183)
(0 0 0.0168833)
(0 0 0.0167456)
(0 0 0.0166053)
(0 0 0.0164625)
(0 0 0.0163172)
(0 0 0.0161696)
(0 0 0.0160197)
(0 0 0.0158676)
(0 0 0.0157134)
(0 0 0.0155572)
(0 0 0.015399)
(0 0 0.015239)
(0 0 0.0150772)
(0 0 0.0149137)
(0 0 0.0147486)
(0 0 0.0145819)
(0 0 0.0144137)
(0 0 0.0142441)
(0 0 0.0140731)
(0 0 0.0139009)
(0 0 0.0137275)
(0 0 0.0135529)
(0 0 0.0133772)
(0 0 0.0132005)
(0 0 0.0130229)
(0 0 0.0128443)
(0 0 0.0126649)
(0 0 0.0124847)
(0 0 0.0123038)
(0 0 0.0121222)
(0 0 0.0119399)
(0 0 0.0117571)
(0 0 0.0115737)
(0 0 0.0113898)
(0 0 0.0112054)
(0 0 0.0110206)
(0 0 0.0108354)
(0 0 0.0106499)
(0 0 0.0104641)
(0 0 0.010278)
(0 0 0.0100917)
(0 0 0.00990514)
(0 0 0.00971842)
(0 0 0.00953155)
(0 0 0.00934455)
(0 0 0.00915745)
(0 0 0.00897028)
(0 0 0.00878305)
(0 0 0.00859579)
(0 0 0.00840851)
(0 0 0.00822124)
(0 0 0.00803399)
(0 0 0.00784678)
(0 0 0.00765963)
(0 0 0.00747254)
(0 0 0.00728553)
(0 0 0.0070986)
(0 0 0.00691178)
(0 0 0.00672507)
(0 0 0.00653848)
(0 0 0.00635202)
(0 0 0.00616568)
(0 0 0.00597949)
(0 0 0.00579343)
(0 0 0.00560753)
(0 0 0.00542177)
(0 0 0.00523617)
(0 0 0.00505071)
(0 0 0.00486542)
(0 0 0.00468027)
(0 0 0.00449528)
(0 0 0.00431044)
(0 0 0.00412576)
(0 0 0.00394122)
(0 0 0.00375682)
(0 0 0.00357257)
(0 0 0.00338846)
(0 0 0.00320448)
(0 0 0.00302063)
(0 0 0.0028369)
(0 0 0.00265329)
(0 0 0.0024698)
(0 0 0.00228641)
(0 0 0.00210312)
(0 0 0.00191992)
(0 0 0.00173681)
(0 0 0.00155377)
(0 0 0.00137081)
(0 0 0.00118791)
(0 0 0.00100506)
(0 0 0.000822256)
(0 0 0.000639493)
(0 0 0.00045676)
(0 0 0.000274047)
(0 0 9.13478e-05)
(0 0 0.000108832)
(0 0 0.000326504)
(0 0 0.000544194)
(0 0 0.000761915)
(0 0 0.000979679)
(0 0 0.0011975)
(0 0 0.00141539)
(0 0 0.00163336)
(0 0 0.00185142)
(0 0 0.00206958)
(0 0 0.00228786)
(0 0 0.00250626)
(0 0 0.0027248)
(0 0 0.00294348)
(0 0 0.00316233)
(0 0 0.00338134)
(0 0 0.00360052)
(0 0 0.00381989)
(0 0 0.00403945)
(0 0 0.00425922)
(0 0 0.00447919)
(0 0 0.00469937)
(0 0 0.00491978)
(0 0 0.00514041)
(0 0 0.00536127)
(0 0 0.00558236)
(0 0 0.00580369)
(0 0 0.00602526)
(0 0 0.00624707)
(0 0 0.00646912)
(0 0 0.00669141)
(0 0 0.00691394)
(0 0 0.0071367)
(0 0 0.0073597)
(0 0 0.00758292)
(0 0 0.00780636)
(0 0 0.00803002)
(0 0 0.00825388)
(0 0 0.00847794)
(0 0 0.00870218)
(0 0 0.0089266)
(0 0 0.00915117)
(0 0 0.00937589)
(0 0 0.00960073)
(0 0 0.00982567)
(0 0 0.0100507)
(0 0 0.0102758)
(0 0 0.0105009)
(0 0 0.0107261)
(0 0 0.0109512)
(0 0 0.0111763)
(0 0 0.0114013)
(0 0 0.0116262)
(0 0 0.011851)
(0 0 0.0120756)
(0 0 0.0123)
(0 0 0.0125241)
(0 0 0.0127479)
(0 0 0.0129713)
(0 0 0.0131943)
(0 0 0.0134169)
(0 0 0.013639)
(0 0 0.0138605)
(0 0 0.0140815)
(0 0 0.0143017)
(0 0 0.0145212)
(0 0 0.0147399)
(0 0 0.0149577)
(0 0 0.0151745)
(0 0 0.0153904)
(0 0 0.0156052)
(0 0 0.0158188)
(0 0 0.0160311)
(0 0 0.0162422)
(0 0 0.0164518)
(0 0 0.0166599)
(0 0 0.0168664)
(0 0 0.0170713)
(0 0 0.0172744)
(0 0 0.0174757)
(0 0 0.017675)
(0 0 0.0178722)
(0 0 0.0180673)
(0 0 0.0182601)
(0 0 0.0184506)
(0 0 0.0186386)
(0 0 0.0188241)
(0 0 0.0190069)
(0 0 0.0191869)
(0 0 0.0193641)
(0 0 0.0195383)
(0 0 0.0197093)
(0 0 0.0198772)
(0 0 0.0200417)
(0 0 0.0202029)
(0 0 0.0203605)
(0 0 0.0205144)
(0 0 0.0206647)
(0 0 0.020811)
(0 0 0.0209535)
(0 0 0.0210918)
(0 0 0.021226)
(0 0 0.021356)
(0 0 0.0214816)
(0 0 0.0216028)
(0 0 0.0217194)
(0 0 0.0218314)
(0 0 0.0219386)
(0 0 0.0220411)
(0 0 0.0221386)
(0 0 0.0222312)
(0 0 0.0223188)
(0 0 0.0224013)
(0 0 0.0224785)
(0 0 0.0225506)
(0 0 0.0226173)
(0 0 0.0226787)
(0 0 0.0227347)
(0 0 0.0227852)
(0 0 0.0228303)
(0 0 0.0228699)
(0 0 0.0229038)
(0 0 0.0229323)
(0 0 0.0229551)
(0 0 0.0229723)
(0 0 0.0229839)
(0 0 0.0229899)
(0 0 0.0229902)
(0 0 0.0229849)
(0 0 0.022974)
(0 0 0.0229576)
(0 0 0.0229355)
(0 0 0.0229079)
(0 0 0.0228748)
(0 0 0.0228363)
(0 0 0.0227922)
(0 0 0.0227428)
(0 0 0.0226881)
(0 0 0.022628)
(0 0 0.0225627)
(0 0 0.0224923)
(0 0 0.0224167)
(0 0 0.0223361)
(0 0 0.0222505)
(0 0 0.0221601)
(0 0 0.0220648)
(0 0 0.0219648)
(0 0 0.0218602)
(0 0 0.0217509)
(0 0 0.0216373)
(0 0 0.0215192)
(0 0 0.0213969)
(0 0 0.0212704)
(0 0 0.0211397)
(0 0 0.0210051)
(0 0 0.0208666)
(0 0 0.0207243)
(0 0 0.0205783)
(0 0 0.0204287)
(0 0 0.0202756)
(0 0 0.0201192)
(0 0 0.0199594)
(0 0 0.0197965)
(0 0 0.0196304)
(0 0 0.0194614)
(0 0 0.0192895)
(0 0 0.0191149)
(0 0 0.0189375)
(0 0 0.0187576)
(0 0 0.0185752)
(0 0 0.0183904)
(0 0 0.0182033)
(0 0 0.018014)
(0 0 0.0178226)
(0 0 0.0176291)
(0 0 0.0174338)
(0 0 0.0172366)
(0 0 0.0170377)
(0 0 0.0168371)
(0 0 0.0166349)
(0 0 0.0164312)
(0 0 0.0162261)
(0 0 0.0160196)
(0 0 0.0158119)
(0 0 0.0156029)
(0 0 0.0153928)
(0 0 0.0151817)
(0 0 0.0149695)
(0 0 0.0147564)
(0 0 0.0145425)
(0 0 0.0143277)
(0 0 0.0141122)
(0 0 0.013896)
(0 0 0.0136792)
(0 0 0.0134617)
(0 0 0.0132437)
(0 0 0.0130253)
(0 0 0.0128063)
(0 0 0.012587)
(0 0 0.0123673)
(0 0 0.0121473)
(0 0 0.011927)
(0 0 0.0117065)
(0 0 0.0114858)
(0 0 0.0112649)