/*--------------------------------*- C++ -*----------------------------------*\
| =========                 |                                                 |
| \\      /  F ield         | OpenFOAM: The Open Source CFD Toolbox           |
|  \\    /   O peration     | Version:  v2012                                 |
|   \\  /    A nd           | Website:  www.openfoam.com                      |
|    \\/     M anipulation  |                                                 |
\*---------------------------------------------------------------------------*/
FoamFile
{
    version     2.0;
    format      ascii;
    class       volVectorField;
    location    "16";
    object      U;
}
// * * * * * * * * * * * * * * * * * * * * * * * * * * * * * * * * * * * * * //

dimensions      [0 1 -1 0 0 0 0];


internalField   nonuniform List<vector> 
65536
(
(0.000683559 -0.000683576 0)
(0.00205072 -0.000683617 0)
(0.00341799 -0.000683695 0)
(0.00478546 -0.000683811 0)
(0.0061532 -0.000683964 0)
(0.00752129 -0.000684156 0)
(0.0088898 -0.000684385 0)
(0.0102588 -0.00068465 0)
(0.0116284 -0.000684952 0)
(0.0129986 -0.000685289 0)
(0.0143695 -0.000685661 0)
(0.0157412 -0.000686067 0)
(0.0171137 -0.000686505 0)
(0.0184872 -0.000686974 0)
(0.0198616 -0.000687474 0)
(0.0212371 -0.000688003 0)
(0.0226136 -0.000688559 0)
(0.0239913 -0.000689141 0)
(0.0253701 -0.000689748 0)
(0.0267502 -0.000690377 0)
(0.0281316 -0.000691027 0)
(0.0295143 -0.000691696 0)
(0.0308984 -0.000692381 0)
(0.0322839 -0.000693081 0)
(0.0336707 -0.000693792 0)
(0.035059 -0.000694514 0)
(0.0364488 -0.000695242 0)
(0.03784 -0.000695974 0)
(0.0392327 -0.000696709 0)
(0.0406268 -0.000697441 0)
(0.0420224 -0.000698169 0)
(0.0434195 -0.000698889 0)
(0.044818 -0.000699598 0)
(0.0462179 -0.000700292 0)
(0.0476192 -0.000700968 0)
(0.0490218 -0.000701621 0)
(0.0504257 -0.000702248 0)
(0.0518309 -0.000702845 0)
(0.0532371 -0.000703408 0)
(0.0546445 -0.000703931 0)
(0.0560529 -0.000704411 0)
(0.0574622 -0.000704842 0)
(0.0588723 -0.00070522 0)
(0.0602832 -0.000705541 0)
(0.0616946 -0.000705797 0)
(0.0631064 -0.000705986 0)
(0.0645186 -0.0007061 0)
(0.0659309 -0.000706134 0)
(0.0673432 -0.000706083 0)
(0.0687553 -0.00070594 0)
(0.0701671 -0.0007057 0)
(0.0715782 -0.000705356 0)
(0.0729886 -0.000704902 0)
(0.074398 -0.000704332 0)
(0.0758061 -0.000703638 0)
(0.0772126 -0.000702815 0)
(0.0786175 -0.000701855 0)
(0.0800202 -0.000700752 0)
(0.0814206 -0.000699498 0)
(0.0828184 -0.000698087 0)
(0.0842131 -0.000696511 0)
(0.0856046 -0.000694762 0)
(0.0869924 -0.000692835 0)
(0.0883761 -0.000690721 0)
(0.0897554 -0.000688412 0)
(0.09113 -0.000685903 0)
(0.0924993 -0.000683184 0)
(0.0938629 -0.00068025 0)
(0.0952205 -0.000677092 0)
(0.0965715 -0.000673703 0)
(0.0979155 -0.000670077 0)
(0.0992521 -0.000666205 0)
(0.100581 -0.000662081 0)
(0.101901 -0.000657698 0)
(0.103212 -0.00065305 0)
(0.104513 -0.000648129 0)
(0.105804 -0.000642929 0)
(0.107085 -0.000637445 0)
(0.108355 -0.00063167 0)
(0.109612 -0.000625598 0)
(0.110857 -0.000619225 0)
(0.112089 -0.000612545 0)
(0.113308 -0.000605553 0)
(0.114512 -0.000598245 0)
(0.115701 -0.000590617 0)
(0.116875 -0.000582665 0)
(0.118032 -0.000574387 0)
(0.119172 -0.000565779 0)
(0.120295 -0.000556839 0)
(0.1214 -0.000547566 0)
(0.122486 -0.000537959 0)
(0.123552 -0.000528015 0)
(0.124598 -0.000517736 0)
(0.125624 -0.000507122 0)
(0.126627 -0.000496174 0)
(0.127609 -0.000484893 0)
(0.128567 -0.000473282 0)
(0.129502 -0.000461344 0)
(0.130413 -0.000449081 0)
(0.131299 -0.000436498 0)
(0.132159 -0.000423601 0)
(0.132993 -0.000410393 0)
(0.133801 -0.000396882 0)
(0.134581 -0.000383074 0)
(0.135334 -0.000368977 0)
(0.136057 -0.000354597 0)
(0.136752 -0.000339945 0)
(0.137417 -0.000325029 0)
(0.138053 -0.000309859 0)
(0.138657 -0.000294446 0)
(0.139231 -0.0002788 0)
(0.139773 -0.000262933 0)
(0.140283 -0.000246858 0)
(0.14076 -0.000230586 0)
(0.141205 -0.00021413 0)
(0.141617 -0.000197505 0)
(0.141995 -0.000180724 0)
(0.14234 -0.000163801 0)
(0.142651 -0.000146751 0)
(0.142927 -0.000129588 0)
(0.143169 -0.000112328 0)
(0.143376 -9.49869e-05 0)
(0.143549 -7.75791e-05 0)
(0.143687 -6.01207e-05 0)
(0.14379 -4.26275e-05 0)
(0.143857 -2.51152e-05 0)
(0.14389 -7.59974e-06 0)
(0.143888 9.90313e-06 0)
(0.14385 2.73777e-05 0)
(0.143778 4.48083e-05 0)
(0.143671 6.21794e-05 0)
(0.143529 7.9476e-05 0)
(0.143353 9.66828e-05 0)
(0.143142 0.000113785 0)
(0.142898 0.000130769 0)
(0.142619 0.000147619 0)
(0.142307 0.000164323 0)
(0.141962 0.000180866 0)
(0.141584 0.000197237 0)
(0.141173 0.000213422 0)
(0.14073 0.00022941 0)
(0.140255 0.000245189 0)
(0.139749 0.000260749 0)
(0.139212 0.000276078 0)
(0.138644 0.000291168 0)
(0.138047 0.000306009 0)
(0.13742 0.000320591 0)
(0.136764 0.000334909 0)
(0.13608 0.000348952 0)
(0.135368 0.000362716 0)
(0.134629 0.000376194 0)
(0.133863 0.000389379 0)
(0.133071 0.000402268 0)
(0.132253 0.000414855 0)
(0.131411 0.000427137 0)
(0.130545 0.000439111 0)
(0.129654 0.000450773 0)
(0.128741 0.000462122 0)
(0.127806 0.000473156 0)
(0.126848 0.000483874 0)
(0.12587 0.000494276 0)
(0.124871 0.000504361 0)
(0.123852 0.000514129 0)
(0.122814 0.000523583 0)
(0.121757 0.000532723 0)
(0.120683 0.000541551 0)
(0.119591 0.000550069 0)
(0.118482 0.00055828 0)
(0.117357 0.000566187 0)
(0.116217 0.000573793 0)
(0.115062 0.000581102 0)
(0.113892 0.000588117 0)
(0.112709 0.000594844 0)
(0.111513 0.000601286 0)
(0.110304 0.000607448 0)
(0.109083 0.000613336 0)
(0.10785 0.000618954 0)
(0.106607 0.000624307 0)
(0.105353 0.000629402 0)
(0.104089 0.000634245 0)
(0.102815 0.00063884 0)
(0.101533 0.000643194 0)
(0.100242 0.000647313 0)
(0.0989437 0.000651204 0)
(0.0976374 0.000654871 0)
(0.096324 0.000658323 0)
(0.0950039 0.000661564 0)
(0.0936775 0.000664602 0)
(0.0923453 0.000667442 0)
(0.0910076 0.000670092 0)
(0.0896647 0.000672556 0)
(0.0883172 0.000674843 0)
(0.0869652 0.000676958 0)
(0.0856092 0.000678907 0)
(0.0842494 0.000680697 0)
(0.0828862 0.000682334 0)
(0.0815199 0.000683823 0)
(0.0801508 0.000685172 0)
(0.0787791 0.000686386 0)
(0.0774051 0.00068747 0)
(0.0760291 0.000688432 0)
(0.0746513 0.000689276 0)
(0.0732719 0.000690008 0)
(0.0718911 0.000690634 0)
(0.0705093 0.000691159 0)
(0.0691264 0.000691588 0)
(0.0677428 0.000691927 0)
(0.0663586 0.000692181 0)
(0.064974 0.000692355 0)
(0.0635891 0.000692453 0)
(0.0622041 0.000692481 0)
(0.0608191 0.000692443 0)
(0.0594343 0.000692344 0)
(0.0580497 0.000692188 0)
(0.0566655 0.000691979 0)
(0.0552818 0.000691722 0)
(0.0538986 0.000691421 0)
(0.052516 0.000691079 0)
(0.0511342 0.000690701 0)
(0.0497532 0.000690289 0)
(0.048373 0.000689849 0)
(0.0469938 0.000689383 0)
(0.0456155 0.000688894 0)
(0.0442382 0.000688387 0)
(0.0428619 0.000687863 0)
(0.0414867 0.000687326 0)
(0.0401126 0.000686779 0)
(0.0387396 0.000686225 0)
(0.0373677 0.000685666 0)
(0.0359969 0.000685106 0)
(0.0346273 0.000684545 0)
(0.0332588 0.000683988 0)
(0.0318914 0.000683436 0)
(0.030525 0.000682891 0)
(0.0291598 0.000682355 0)
(0.0277956 0.00068183 0)
(0.0264325 0.000681319 0)
(0.0250704 0.000680823 0)
(0.0237092 0.000680343 0)
(0.022349 0.000679881 0)
(0.0209897 0.000679439 0)
(0.0196313 0.000679018 0)
(0.0182737 0.00067862 0)
(0.0169168 0.000678245 0)
(0.0155607 0.000677894 0)
(0.0142053 0.000677569 0)
(0.0128505 0.000677271 0)
(0.0114962 0.000677 0)
(0.0101425 0.000676758 0)
(0.00878924 0.000676544 0)
(0.00743637 0.00067636 0)
(0.00608384 0.000676205 0)
(0.00473159 0.000676081 0)
(0.00337955 0.000675988 0)
(0.00202767 0.000675926 0)
(0.000675879 0.000675895 0)
(0.000683524 -0.0020507 0)
(0.00205061 -0.00205082 0)
(0.00341781 -0.00205105 0)
(0.00478521 -0.0020514 0)
(0.00615287 -0.00205186 0)
(0.00752089 -0.00205244 0)
(0.00888932 -0.00205312 0)
(0.0102582 -0.00205392 0)
(0.0116278 -0.00205483 0)
(0.0129979 -0.00205584 0)
(0.0143687 -0.00205696 0)
(0.0157404 -0.00205817 0)
(0.0171129 -0.00205949 0)
(0.0184862 -0.0020609 0)
(0.0198606 -0.0020624 0)
(0.021236 -0.00206399 0)
(0.0226125 -0.00206566 0)
(0.0239901 -0.00206741 0)
(0.025369 -0.00206923 0)
(0.026749 -0.00207112 0)
(0.0281304 -0.00207307 0)
(0.029513 -0.00207508 0)
(0.0308971 -0.00207713 0)
(0.0322825 -0.00207923 0)
(0.0336693 -0.00208137 0)
(0.0350576 -0.00208354 0)
(0.0364474 -0.00208573 0)
(0.0378386 -0.00208793 0)
(0.0392313 -0.00209013 0)
(0.0406254 -0.00209233 0)
(0.0420211 -0.00209452 0)
(0.0434182 -0.00209668 0)
(0.0448167 -0.00209881 0)
(0.0462166 -0.0021009 0)
(0.047618 -0.00210293 0)
(0.0490206 -0.00210489 0)
(0.0504246 -0.00210678 0)
(0.0518298 -0.00210857 0)
(0.0532361 -0.00211027 0)
(0.0546436 -0.00211184 0)
(0.0560521 -0.00211328 0)
(0.0574615 -0.00211458 0)
(0.0588717 -0.00211572 0)
(0.0602827 -0.00211669 0)
(0.0616942 -0.00211746 0)
(0.0631062 -0.00211803 0)
(0.0645185 -0.00211838 0)
(0.065931 -0.00211849 0)
(0.0673435 -0.00211834 0)
(0.0687558 -0.00211792 0)
(0.0701678 -0.00211721 0)
(0.0715791 -0.00211618 0)
(0.0729897 -0.00211482 0)
(0.0743993 -0.00211312 0)
(0.0758077 -0.00211105 0)
(0.0772145 -0.00210858 0)
(0.0786196 -0.00210571 0)
(0.0800227 -0.00210241 0)
(0.0814234 -0.00209865 0)
(0.0828215 -0.00209443 0)
(0.0842166 -0.0020897 0)
(0.0856084 -0.00208447 0)
(0.0869965 -0.00207869 0)
(0.0883806 -0.00207236 0)
(0.0897604 -0.00206544 0)
(0.0911353 -0.00205792 0)
(0.092505 -0.00204977 0)
(0.0938691 -0.00204097 0)
(0.0952271 -0.00203151 0)
(0.0965786 -0.00202135 0)
(0.0979231 -0.00201047 0)
(0.0992602 -0.00199887 0)
(0.100589 -0.0019865 0)
(0.10191 -0.00197336 0)
(0.103221 -0.00195942 0)
(0.104523 -0.00194466 0)
(0.105815 -0.00192907 0)
(0.107096 -0.00191262 0)
(0.108366 -0.0018953 0)
(0.109625 -0.00187709 0)
(0.11087 -0.00185798 0)
(0.112103 -0.00183794 0)
(0.113322 -0.00181697 0)
(0.114527 -0.00179505 0)
(0.115717 -0.00177217 0)
(0.116891 -0.00174832 0)
(0.118049 -0.00172349 0)
(0.11919 -0.00169767 0)
(0.120314 -0.00167085 0)
(0.121419 -0.00164303 0)
(0.122506 -0.00161421 0)
(0.123573 -0.00158438 0)
(0.124619 -0.00155354 0)
(0.125645 -0.0015217 0)
(0.12665 -0.00148885 0)
(0.127632 -0.00145501 0)
(0.128591 -0.00142017 0)
(0.129526 -0.00138435 0)
(0.130438 -0.00134756 0)
(0.131324 -0.00130981 0)
(0.132185 -0.00127111 0)
(0.13302 -0.00123148 0)
(0.133828 -0.00119094 0)
(0.134609 -0.00114951 0)
(0.135362 -0.00110721 0)
(0.136087 -0.00106406 0)
(0.136782 -0.00102009 0)
(0.137448 -0.000975336 0)
(0.138083 -0.000929816 0)
(0.138688 -0.000883565 0)
(0.139262 -0.000836616 0)
(0.139805 -0.000789004 0)
(0.140315 -0.000740764 0)
(0.140793 -0.000691935 0)
(0.141238 -0.000642555 0)
(0.14165 -0.000592665 0)
(0.142029 -0.000542307 0)
(0.142374 -0.000491524 0)
(0.142685 -0.000440358 0)
(0.142961 -0.000388856 0)
(0.143204 -0.000337061 0)
(0.143411 -0.000285021 0)
(0.143584 -0.000232782 0)
(0.143722 -0.000180391 0)
(0.143825 -0.000127896 0)
(0.143892 -7.53431e-05 0)
(0.143925 -2.27809e-05 0)
(0.143923 2.97434e-05 0)
(0.143885 8.21826e-05 0)
(0.143813 0.00013449 0)
(0.143706 0.000186619 0)
(0.143564 0.000238523 0)
(0.143387 0.000290158 0)
(0.143177 0.00034148 0)
(0.142932 0.000392444 0)
(0.142653 0.000443009 0)
(0.14234 0.000493134 0)
(0.141995 0.000542777 0)
(0.141616 0.000591902 0)
(0.141205 0.00064047 0)
(0.140761 0.000688445 0)
(0.140286 0.000735793 0)
(0.13978 0.000782482 0)
(0.139242 0.00082848 0)
(0.138674 0.000873758 0)
(0.138076 0.000918288 0)
(0.137449 0.000962045 0)
(0.136792 0.001005 0)
(0.136108 0.00104714 0)
(0.135395 0.00108844 0)
(0.134655 0.00112888 0)
(0.133889 0.00116844 0)
(0.133096 0.00120711 0)
(0.132278 0.00124488 0)
(0.131435 0.00128172 0)
(0.130568 0.00131765 0)
(0.129677 0.00135264 0)
(0.128764 0.00138668 0)
(0.127827 0.00141979 0)
(0.126869 0.00145194 0)
(0.12589 0.00148315 0)
(0.124891 0.0015134 0)
(0.123871 0.00154271 0)
(0.122833 0.00157107 0)
(0.121775 0.00159848 0)
(0.1207 0.00162497 0)
(0.119608 0.00165052 0)
(0.118498 0.00167515 0)
(0.117373 0.00169886 0)
(0.116232 0.00172168 0)
(0.115076 0.0017436 0)
(0.113906 0.00176464 0)
(0.112722 0.00178482 0)
(0.111525 0.00180414 0)
(0.110316 0.00182262 0)
(0.109094 0.00184028 0)
(0.107861 0.00185713 0)
(0.106617 0.00187318 0)
(0.105363 0.00188846 0)
(0.104098 0.00190298 0)
(0.102824 0.00191676 0)
(0.101542 0.00192982 0)
(0.10025 0.00194217 0)
(0.0989512 0.00195383 0)
(0.0976444 0.00196483 0)
(0.0963306 0.00197518 0)
(0.0950101 0.0019849 0)
(0.0936833 0.001994 0)
(0.0923507 0.00200252 0)
(0.0910126 0.00201046 0)
(0.0896694 0.00201785 0)
(0.0883215 0.0020247 0)
(0.0869692 0.00203104 0)
(0.0856128 0.00203688 0)
(0.0842527 0.00204224 0)
(0.0828893 0.00204715 0)
(0.0815227 0.00205161 0)
(0.0801533 0.00205565 0)
(0.0787813 0.00205928 0)
(0.0774071 0.00206253 0)
(0.0760308 0.00206541 0)
(0.0746528 0.00206794 0)
(0.0732732 0.00207013 0)
(0.0718922 0.002072 0)
(0.0705101 0.00207357 0)
(0.0691271 0.00207485 0)
(0.0677433 0.00207586 0)
(0.066359 0.00207662 0)
(0.0649742 0.00207714 0)
(0.0635892 0.00207743 0)
(0.062204 0.00207751 0)
(0.0608189 0.00207739 0)
(0.059434 0.00207709 0)
(0.0580493 0.00207661 0)
(0.056665 0.00207598 0)
(0.0552811 0.00207521 0)
(0.0538979 0.0020743 0)
(0.0525152 0.00207327 0)
(0.0511334 0.00207213 0)
(0.0497523 0.00207089 0)
(0.0483721 0.00206957 0)
(0.0469928 0.00206817 0)
(0.0456144 0.0020667 0)
(0.0442371 0.00206517 0)
(0.0428608 0.0020636 0)
(0.0414856 0.00206198 0)
(0.0401115 0.00206034 0)
(0.0387384 0.00205868 0)
(0.0373665 0.002057 0)
(0.0359958 0.00205531 0)
(0.0346261 0.00205363 0)
(0.0332576 0.00205196 0)
(0.0318902 0.0020503 0)
(0.0305239 0.00204866 0)
(0.0291587 0.00204705 0)
(0.0277946 0.00204547 0)
(0.0264315 0.00204394 0)
(0.0250694 0.00204245 0)
(0.0237083 0.00204101 0)
(0.0223481 0.00203962 0)
(0.0209888 0.00203829 0)
(0.0196304 0.00203703 0)
(0.0182729 0.00203583 0)
(0.0169161 0.0020347 0)
(0.01556 0.00203365 0)
(0.0142047 0.00203268 0)
(0.0128499 0.00203178 0)
(0.0114957 0.00203097 0)
(0.010142 0.00203024 0)
(0.00878883 0.0020296 0)
(0.00743602 0.00202904 0)
(0.00608355 0.00202858 0)
(0.00473136 0.00202821 0)
(0.00337939 0.00202793 0)
(0.00202757 0.00202774 0)
(0.000675848 0.00202765 0)
(0.000683445 -0.00341771 0)
(0.00205037 -0.0034179 0)
(0.00341742 -0.00341829 0)
(0.00478466 -0.00341887 0)
(0.00615217 -0.00341964 0)
(0.00752003 -0.0034206 0)
(0.00888832 -0.00342175 0)
(0.0102571 -0.00342308 0)
(0.0116265 -0.00342459 0)
(0.0129965 -0.00342628 0)
(0.0143672 -0.00342815 0)
(0.0157387 -0.00343018 0)
(0.017111 -0.00343238 0)
(0.0184843 -0.00343473 0)
(0.0198585 -0.00343724 0)
(0.0212338 -0.00343989 0)
(0.0226102 -0.00344268 0)
(0.0239877 -0.0034456 0)
(0.0253665 -0.00344864 0)
(0.0267464 -0.00345179 0)
(0.0281277 -0.00345505 0)
(0.0295103 -0.0034584 0)
(0.0308943 -0.00346184 0)
(0.0322796 -0.00346535 0)
(0.0336664 -0.00346892 0)
(0.0350547 -0.00347254 0)
(0.0364444 -0.0034762 0)
(0.0378356 -0.00347987 0)
(0.0392283 -0.00348356 0)
(0.0406225 -0.00348724 0)
(0.0420181 -0.00349089 0)
(0.0434153 -0.00349451 0)
(0.0448138 -0.00349807 0)
(0.0462138 -0.00350156 0)
(0.0476152 -0.00350496 0)
(0.049018 -0.00350824 0)
(0.0504221 -0.0035114 0)
(0.0518274 -0.00351441 0)
(0.0532339 -0.00351724 0)
(0.0546415 -0.00351988 0)
(0.0560502 -0.0035223 0)
(0.0574598 -0.00352448 0)
(0.0588703 -0.0035264 0)
(0.0602815 -0.00352803 0)
(0.0616933 -0.00352934 0)
(0.0631055 -0.0035303 0)
(0.0645182 -0.0035309 0)
(0.065931 -0.0035311 0)
(0.0673438 -0.00353088 0)
(0.0687565 -0.00353019 0)
(0.0701689 -0.00352902 0)
(0.0715807 -0.00352733 0)
(0.0729917 -0.0035251 0)
(0.0744018 -0.00352228 0)
(0.0758106 -0.00351884 0)
(0.077218 -0.00351476 0)
(0.0786237 -0.00351 0)
(0.0800273 -0.00350451 0)
(0.0814286 -0.00349828 0)
(0.0828274 -0.00349126 0)
(0.0842231 -0.00348341 0)
(0.0856156 -0.00347471 0)
(0.0870045 -0.00346511 0)
(0.0883894 -0.00345457 0)
(0.0897699 -0.00344307 0)
(0.0911457 -0.00343056 0)
(0.0925162 -0.003417 0)
(0.0938812 -0.00340237 0)
(0.0952401 -0.00338661 0)
(0.0965926 -0.00336971 0)
(0.0979381 -0.00335161 0)
(0.0992761 -0.00333228 0)
(0.100606 -0.0033117 0)
(0.101928 -0.00328982 0)
(0.10324 -0.00326661 0)
(0.104544 -0.00324204 0)
(0.105837 -0.00321607 0)
(0.107119 -0.00318868 0)
(0.10839 -0.00315983 0)
(0.109649 -0.0031295 0)
(0.110896 -0.00309766 0)
(0.11213 -0.00306428 0)
(0.113351 -0.00302934 0)
(0.114557 -0.00299282 0)
(0.115748 -0.0029547 0)
(0.116923 -0.00291496 0)
(0.118083 -0.00287358 0)
(0.119225 -0.00283055 0)
(0.12035 -0.00278586 0)
(0.121457 -0.0027395 0)
(0.122545 -0.00269146 0)
(0.123613 -0.00264175 0)
(0.124661 -0.00259035 0)
(0.125688 -0.00253728 0)
(0.126694 -0.00248253 0)
(0.127677 -0.00242611 0)
(0.128638 -0.00236804 0)
(0.129575 -0.00230833 0)
(0.130487 -0.002247 0)
(0.131375 -0.00218406 0)
(0.132238 -0.00211954 0)
(0.133074 -0.00205348 0)
(0.133883 -0.00198589 0)
(0.134665 -0.00191681 0)
(0.135419 -0.00184628 0)
(0.136145 -0.00177434 0)
(0.136841 -0.00170104 0)
(0.137508 -0.00162641 0)
(0.138144 -0.00155051 0)
(0.13875 -0.00147338 0)
(0.139325 -0.0013951 0)
(0.139868 -0.0013157 0)
(0.14038 -0.00123526 0)
(0.140858 -0.00115383 0)
(0.141304 -0.00107149 0)
(0.141717 -0.000988295 0)
(0.142096 -0.000904317 0)
(0.142442 -0.000819629 0)
(0.142753 -0.000734304 0)
(0.14303 -0.000648416 0)
(0.143273 -0.00056204 0)
(0.143481 -0.000475255 0)
(0.143654 -0.000388138 0)
(0.143792 -0.000300767 0)
(0.143895 -0.000213222 0)
(0.143962 -0.000125581 0)
(0.143995 -3.79248e-05 0)
(0.143993 4.96681e-05 0)
(0.143955 0.000137119 0)
(0.143883 0.000224349 0)
(0.143775 0.000311281 0)
(0.143633 0.000397839 0)
(0.143456 0.000483947 0)
(0.143245 0.000569531 0)
(0.142999 0.000654519 0)
(0.14272 0.00073884 0)
(0.142407 0.000822425 0)
(0.142061 0.000905207 0)
(0.141681 0.000987123 0)
(0.141269 0.00106811 0)
(0.140825 0.00114811 0)
(0.140349 0.00122706 0)
(0.139841 0.00130491 0)
(0.139303 0.0013816 0)
(0.138734 0.0014571 0)
(0.138135 0.00153134 0)
(0.137507 0.0016043 0)
(0.136849 0.00167592 0)
(0.136163 0.00174617 0)
(0.13545 0.00181502 0)
(0.134709 0.00188244 0)
(0.133941 0.00194839 0)
(0.133147 0.00201286 0)
(0.132328 0.00207581 0)
(0.131484 0.00213724 0)
(0.130616 0.00219712 0)
(0.129723 0.00225544 0)
(0.128808 0.00231219 0)
(0.127871 0.00236737 0)
(0.126912 0.00242096 0)
(0.125931 0.00247297 0)
(0.12493 0.00252339 0)
(0.12391 0.00257223 0)
(0.12287 0.00261949 0)
(0.121811 0.00266518 0)
(0.120735 0.00270931 0)
(0.119641 0.00275189 0)
(0.118531 0.00279293 0)
(0.117404 0.00283245 0)
(0.116262 0.00287046 0)
(0.115105 0.00290698 0)
(0.113934 0.00294204 0)
(0.112749 0.00297565 0)
(0.111551 0.00300783 0)
(0.11034 0.00303862 0)
(0.109117 0.00306803 0)
(0.107883 0.00309609 0)
(0.106638 0.00312283 0)
(0.105382 0.00314828 0)
(0.104117 0.00317246 0)
(0.102842 0.00319541 0)
(0.101559 0.00321715 0)
(0.100266 0.00323771 0)
(0.0989663 0.00325713 0)
(0.0976587 0.00327544 0)
(0.096344 0.00329267 0)
(0.0950226 0.00330884 0)
(0.0936951 0.003324 0)
(0.0923617 0.00333817 0)
(0.0910228 0.00335138 0)
(0.0896789 0.00336367 0)
(0.0883303 0.00337507 0)
(0.0869773 0.00338562 0)
(0.0856203 0.00339533 0)
(0.0842596 0.00340425 0)
(0.0828955 0.0034124 0)
(0.0815284 0.00341982 0)
(0.0801584 0.00342653 0)
(0.0787859 0.00343257 0)
(0.0774112 0.00343797 0)
(0.0760344 0.00344274 0)
(0.0746559 0.00344693 0)
(0.0732759 0.00345057 0)
(0.0718945 0.00345367 0)
(0.070512 0.00345627 0)
(0.0691286 0.00345839 0)
(0.0677445 0.00346006 0)
(0.0663598 0.0034613 0)
(0.0649748 0.00346215 0)
(0.0635894 0.00346261 0)
(0.062204 0.00346273 0)
(0.0608187 0.00346252 0)
(0.0594335 0.003462 0)
(0.0580486 0.0034612 0)
(0.056664 0.00346013 0)
(0.05528 0.00345883 0)
(0.0538966 0.0034573 0)
(0.0525138 0.00345557 0)
(0.0511318 0.00345366 0)
(0.0497506 0.00345159 0)
(0.0483703 0.00344937 0)
(0.0469909 0.00344702 0)
(0.0456124 0.00344456 0)
(0.044235 0.00344201 0)
(0.0428587 0.00343937 0)
(0.0414834 0.00343667 0)
(0.0401093 0.00343393 0)
(0.0387362 0.00343114 0)
(0.0373643 0.00342834 0)
(0.0359935 0.00342552 0)
(0.0346239 0.00342271 0)
(0.0332554 0.00341991 0)
(0.031888 0.00341713 0)
(0.0305218 0.0034144 0)
(0.0291566 0.00341171 0)
(0.0277925 0.00340908 0)
(0.0264294 0.00340651 0)
(0.0250674 0.00340402 0)
(0.0237064 0.00340162 0)
(0.0223463 0.0033993 0)
(0.0209871 0.00339708 0)
(0.0196288 0.00339497 0)
(0.0182713 0.00339297 0)
(0.0169146 0.00339109 0)
(0.0155587 0.00338933 0)
(0.0142034 0.0033877 0)
(0.0128488 0.00338621 0)
(0.0114947 0.00338485 0)
(0.0101411 0.00338364 0)
(0.00878804 0.00338256 0)
(0.00743535 0.00338164 0)
(0.006083 0.00338087 0)
(0.00473093 0.00338024 0)
(0.00337908 0.00337978 0)
(0.00202739 0.00337947 0)
(0.000675785 0.00337932 0)
(0.000683327 -0.00478452 0)
(0.00205002 -0.00478479 0)
(0.00341683 -0.00478534 0)
(0.00478384 -0.00478615 0)
(0.00615112 -0.00478723 0)
(0.00751876 -0.00478858 0)
(0.00888682 -0.00479019 0)
(0.0102554 -0.00479206 0)
(0.0116245 -0.00479418 0)
(0.0129943 -0.00479655 0)
(0.0143648 -0.00479917 0)
(0.0157361 -0.00480202 0)
(0.0171083 -0.0048051 0)
(0.0184813 -0.00480841 0)
(0.0198554 -0.00481193 0)
(0.0212305 -0.00481565 0)
(0.0226067 -0.00481956 0)
(0.0239841 -0.00482366 0)
(0.0253627 -0.00482793 0)
(0.0267425 -0.00483236 0)
(0.0281237 -0.00483694 0)
(0.0295062 -0.00484165 0)
(0.0308901 -0.00484648 0)
(0.0322753 -0.00485141 0)
(0.0336621 -0.00485642 0)
(0.0350503 -0.00486151 0)
(0.03644 -0.00486664 0)
(0.0378311 -0.00487181 0)
(0.0392238 -0.00487699 0)
(0.040618 -0.00488216 0)
(0.0420137 -0.0048873 0)
(0.0434109 -0.00489239 0)
(0.0448095 -0.0048974 0)
(0.0462096 -0.00490231 0)
(0.0476112 -0.0049071 0)
(0.0490141 -0.00491173 0)
(0.0504183 -0.00491617 0)
(0.0518238 -0.00492041 0)
(0.0532305 -0.00492441 0)
(0.0546384 -0.00492813 0)
(0.0560474 -0.00493156 0)
(0.0574573 -0.00493465 0)
(0.0588681 -0.00493736 0)
(0.0602796 -0.00493968 0)
(0.0616918 -0.00494155 0)
(0.0631045 -0.00494294 0)
(0.0645176 -0.00494382 0)
(0.0659309 -0.00494414 0)
(0.0673443 -0.00494386 0)
(0.0687575 -0.00494295 0)
(0.0701705 -0.00494136 0)
(0.0715829 -0.00493904 0)
(0.0729946 -0.00493595 0)
(0.0744054 -0.00493205 0)
(0.075815 -0.00492729 0)
(0.0772232 -0.00492162 0)
(0.0786297 -0.004915 0)
(0.0800342 -0.00490737 0)
(0.0814365 -0.0048987 0)
(0.0828362 -0.00488892 0)
(0.084233 -0.00487798 0)
(0.0856265 -0.00486585 0)
(0.0870165 -0.00485246 0)
(0.0884025 -0.00483776 0)
(0.0897842 -0.00482171 0)
(0.0911612 -0.00480424 0)
(0.092533 -0.00478532 0)
(0.0938993 -0.00476488 0)
(0.0952596 -0.00474287 0)
(0.0966135 -0.00471925 0)
(0.0979604 -0.00469397 0)
(0.0992999 -0.00466696 0)
(0.100632 -0.00463819 0)
(0.101955 -0.00460761 0)
(0.103269 -0.00457516 0)
(0.104574 -0.0045408 0)
(0.105868 -0.00450449 0)
(0.107153 -0.00446618 0)
(0.108426 -0.00442584 0)
(0.109687 -0.00438341 0)
(0.110935 -0.00433887 0)
(0.112171 -0.00429217 0)
(0.113393 -0.00424329 0)
(0.114601 -0.00419219 0)
(0.115794 -0.00413884 0)
(0.116972 -0.00408323 0)
(0.118133 -0.00402532 0)
(0.119278 -0.00396509 0)
(0.120405 -0.00390254 0)
(0.121513 -0.00383765 0)
(0.122603 -0.0037704 0)
(0.123674 -0.0037008 0)
(0.124724 -0.00362884 0)
(0.125753 -0.00355453 0)
(0.126761 -0.00347787 0)
(0.127746 -0.00339887 0)
(0.128708 -0.00331755 0)
(0.129647 -0.00323393 0)
(0.130562 -0.00314804 0)
(0.131452 -0.00305989 0)
(0.132316 -0.00296953 0)
(0.133154 -0.002877 0)
(0.133965 -0.00278233 0)
(0.134749 -0.00268557 0)
(0.135505 -0.00258677 0)
(0.136232 -0.002486 0)
(0.13693 -0.0023833 0)
(0.137598 -0.00227875 0)
(0.138236 -0.00217242 0)
(0.138844 -0.00206437 0)
(0.13942 -0.00195469 0)
(0.139964 -0.00184345 0)
(0.140477 -0.00173074 0)
(0.140957 -0.00161666 0)
(0.141404 -0.00150128 0)
(0.141818 -0.00138471 0)
(0.142198 -0.00126704 0)
(0.142544 -0.00114837 0)
(0.142856 -0.00102881 0)
(0.143134 -0.000908464 0)
(0.143377 -0.000787431 0)
(0.143585 -0.000665823 0)
(0.143758 -0.000543749 0)
(0.143897 -0.000421319 0)
(0.144 -0.000298645 0)
(0.144068 -0.000175837 0)
(0.1441 -5.30071e-05 0)
(0.144098 6.97335e-05 0)
(0.14406 0.000192274 0)
(0.143987 0.000314505 0)
(0.143879 0.000436317 0)
(0.143737 0.000557603 0)
(0.143559 0.000678258 0)
(0.143347 0.000798177 0)
(0.143101 0.000917259 0)
(0.142821 0.0010354 0)
(0.142507 0.00115252 0)
(0.14216 0.0012685 0)
(0.141779 0.00138327 0)
(0.141366 0.00149674 0)
(0.14092 0.00160881 0)
(0.140443 0.00171942 0)
(0.139934 0.00182848 0)
(0.139394 0.00193592 0)
(0.138824 0.00204168 0)
(0.138223 0.00214568 0)
(0.137593 0.00224788 0)
(0.136934 0.0023482 0)
(0.136247 0.0024466 0)
(0.135531 0.00254304 0)
(0.134789 0.00263746 0)
(0.134019 0.00272983 0)
(0.133224 0.00282011 0)
(0.132403 0.00290828 0)
(0.131557 0.00299429 0)
(0.130686 0.00307815 0)
(0.129793 0.00315981 0)
(0.128876 0.00323928 0)
(0.127936 0.00331653 0)
(0.126975 0.00339156 0)
(0.125993 0.00346437 0)
(0.12499 0.00353496 0)
(0.123967 0.00360333 0)
(0.122926 0.00366949 0)
(0.121865 0.00373344 0)
(0.120787 0.0037952 0)
(0.119691 0.0038548 0)
(0.118579 0.00391223 0)
(0.11745 0.00396753 0)
(0.116307 0.00402072 0)
(0.115148 0.00407183 0)
(0.113975 0.00412088 0)
(0.112788 0.0041679 0)
(0.111588 0.00421292 0)
(0.110376 0.00425599 0)
(0.109152 0.00429713 0)
(0.107916 0.00433638 0)
(0.106669 0.00437378 0)
(0.105412 0.00440936 0)
(0.104145 0.00444318 0)
(0.102869 0.00447526 0)
(0.101584 0.00450565 0)
(0.10029 0.0045344 0)
(0.0989889 0.00456155 0)
(0.09768 0.00458713 0)
(0.096364 0.0046112 0)
(0.0950415 0.0046338 0)
(0.0937127 0.00465498 0)
(0.0923781 0.00467477 0)
(0.0910382 0.00469322 0)
(0.0896932 0.00471039 0)
(0.0883435 0.00472631 0)
(0.0869895 0.00474102 0)
(0.0856315 0.00475458 0)
(0.0842699 0.00476702 0)
(0.0829049 0.00477839 0)
(0.0815369 0.00478873 0)
(0.0801661 0.00479809 0)
(0.0787928 0.0048065 0)
(0.0774173 0.00481401 0)
(0.0760398 0.00482066 0)
(0.0746606 0.00482649 0)
(0.07328 0.00483154 0)
(0.071898 0.00483584 0)
(0.0705149 0.00483944 0)
(0.0691309 0.00484237 0)
(0.0677463 0.00484468 0)
(0.0663611 0.00484638 0)
(0.0649756 0.00484753 0)
(0.0635898 0.00484815 0)
(0.062204 0.00484828 0)
(0.0608183 0.00484795 0)
(0.0594327 0.0048472 0)
(0.0580475 0.00484604 0)
(0.0566626 0.00484452 0)
(0.0552783 0.00484267 0)
(0.0538946 0.0048405 0)
(0.0525117 0.00483806 0)
(0.0511294 0.00483536 0)
(0.049748 0.00483243 0)
(0.0483675 0.00482929 0)
(0.046988 0.00482598 0)
(0.0456095 0.00482252 0)
(0.0442319 0.00481892 0)
(0.0428555 0.00481521 0)
(0.0414802 0.00481141 0)
(0.040106 0.00480755 0)
(0.0387329 0.00480363 0)
(0.037361 0.00479968 0)
(0.0359902 0.00479572 0)
(0.0346206 0.00479177 0)
(0.0332521 0.00478783 0)
(0.0318847 0.00478394 0)
(0.0305185 0.00478009 0)
(0.0291534 0.00477632 0)
(0.0277894 0.00477262 0)
(0.0264264 0.00476901 0)
(0.0250645 0.00476552 0)
(0.0237036 0.00476214 0)
(0.0223436 0.00475888 0)
(0.0209845 0.00475577 0)
(0.0196264 0.00475281 0)
(0.018269 0.00475 0)
(0.0169125 0.00474736 0)
(0.0155567 0.00474489 0)
(0.0142015 0.0047426 0)
(0.0128471 0.0047405 0)
(0.0114931 0.00473859 0)
(0.0101398 0.00473689 0)
(0.00878685 0.00473538 0)
(0.00743433 0.00473409 0)
(0.00608216 0.004733 0)
(0.00473028 0.00473213 0)
(0.00337861 0.00473147 0)
(0.00202711 0.00473104 0)
(0.000675691 0.00473082 0)
(0.00068317 -0.00615106 0)
(0.00204955 -0.00615141 0)
(0.00341605 -0.00615211 0)
(0.00478275 -0.00615316 0)
(0.00614972 -0.00615456 0)
(0.00751705 -0.00615629 0)
(0.00888481 -0.00615837 0)
(0.0102531 -0.00616078 0)
(0.0116219 -0.00616352 0)
(0.0129914 -0.00616658 0)
(0.0143617 -0.00616995 0)
(0.0157327 -0.00617363 0)
(0.0171046 -0.00617761 0)
(0.0184774 -0.00618187 0)
(0.0198512 -0.00618641 0)
(0.0212261 -0.00619121 0)
(0.0226021 -0.00619626 0)
(0.0239793 -0.00620155 0)
(0.0253577 -0.00620707 0)
(0.0267373 -0.00621278 0)
(0.0281183 -0.00621869 0)
(0.0295007 -0.00622477 0)
(0.0308844 -0.00623101 0)
(0.0322696 -0.00623737 0)
(0.0336562 -0.00624385 0)
(0.0350444 -0.00625042 0)
(0.036434 -0.00625706 0)
(0.0378251 -0.00626374 0)
(0.0392178 -0.00627043 0)
(0.040612 -0.00627712 0)
(0.0420078 -0.00628377 0)
(0.043405 -0.00629035 0)
(0.0448038 -0.00629683 0)
(0.046204 -0.00630319 0)
(0.0476057 -0.00630939 0)
(0.0490088 -0.00631539 0)
(0.0504132 -0.00632115 0)
(0.051819 -0.00632665 0)
(0.053226 -0.00633184 0)
(0.0546342 -0.00633669 0)
(0.0560435 -0.00634115 0)
(0.0574538 -0.00634518 0)
(0.0588651 -0.00634873 0)
(0.0602771 -0.00635177 0)
(0.0616898 -0.00635424 0)
(0.0631031 -0.0063561 0)
(0.0645168 -0.00635729 0)
(0.0659308 -0.00635777 0)
(0.0673448 -0.00635749 0)
(0.0687588 -0.00635639 0)
(0.0701726 -0.00635441 0)
(0.0715859 -0.00635151 0)
(0.0729985 -0.00634762 0)
(0.0744102 -0.00634268 0)
(0.0758209 -0.00633664 0)
(0.0772301 -0.00632943 0)
(0.0786377 -0.006321 0)
(0.0800434 -0.00631128 0)
(0.0814469 -0.00630021 0)
(0.0828479 -0.00628773 0)
(0.084246 -0.00627376 0)
(0.085641 -0.00625824 0)
(0.0870324 -0.00624111 0)
(0.0884199 -0.00622231 0)
(0.0898032 -0.00620175 0)
(0.0911819 -0.00617939 0)
(0.0925554 -0.00615515 0)
(0.0939235 -0.00612895 0)
(0.0952856 -0.00610075 0)
(0.0966413 -0.00607047 0)
(0.0979901 -0.00603804 0)
(0.0993317 -0.00600341 0)
(0.100665 -0.0059665 0)
(0.101991 -0.00592726 0)
(0.103307 -0.00588562 0)
(0.104614 -0.00584152 0)
(0.105911 -0.00579491 0)
(0.107197 -0.00574573 0)
(0.108473 -0.00569392 0)
(0.109736 -0.00563944 0)
(0.110987 -0.00558223 0)
(0.112226 -0.00552225 0)
(0.11345 -0.00545946 0)
(0.114661 -0.00539381 0)
(0.115857 -0.00532526 0)
(0.117037 -0.0052538 0)
(0.118201 -0.00517937 0)
(0.119348 -0.00510197 0)
(0.120477 -0.00502157 0)
(0.121589 -0.00493814 0)
(0.122681 -0.0048517 0)
(0.123755 -0.00476221 0)
(0.124807 -0.00466969 0)
(0.125839 -0.00457413 0)
(0.12685 -0.00447555 0)
(0.127838 -0.00437396 0)
(0.128803 -0.00426937 0)
(0.129744 -0.00416182 0)
(0.130661 -0.00405133 0)
(0.131554 -0.00393794 0)
(0.13242 -0.0038217 0)
(0.133261 -0.00370265 0)
(0.134074 -0.00358085 0)
(0.134861 -0.00345636 0)
(0.135619 -0.00332924 0)
(0.136348 -0.00319957 0)
(0.137048 -0.00306742 0)
(0.137719 -0.00293288 0)
(0.138359 -0.00279604 0)
(0.138968 -0.00265699 0)
(0.139546 -0.00251583 0)
(0.140092 -0.00237267 0)
(0.140607 -0.00222761 0)
(0.141088 -0.00208077 0)
(0.141536 -0.00193226 0)
(0.141951 -0.00178222 0)
(0.142333 -0.00163076 0)
(0.14268 -0.00147801 0)
(0.142993 -0.00132412 0)
(0.143272 -0.0011692 0)
(0.143516 -0.0010134 0)
(0.143725 -0.000856859 0)
(0.143898 -0.000699717 0)
(0.144037 -0.000542118 0)
(0.14414 -0.000384203 0)
(0.144208 -0.000226116 0)
(0.144241 -6.80017e-05 0)
(0.144238 8.99971e-05 0)
(0.1442 0.000247737 0)
(0.144127 0.000405078 0)