/*--------------------------------*- C++ -*----------------------------------*\
| =========                 |                                                 |
| \\      /  F ield         | OpenFOAM: The Open Source CFD Toolbox           |
|  \\    /   O peration     | Version:  v2012                                 |
|   \\  /    A nd           | Website:  www.openfoam.com                      |
|    \\/     M anipulation  |                                                 |
\*---------------------------------------------------------------------------*/
FoamFile
{
    version     2.0;
    format      ascii;
    class       volScalarField;
    location    "16";
    object      W;
}
// * * * * * * * * * * * * * * * * * * * * * * * * * * * * * * * * * * * * * //

dimensions      [0 0 -1 0 0 0 0];


internalField   nonuniform List<scalar> 
65536
(
6.87011e-16
2.0692e-15
3.47614e-15
4.9249e-15
6.43308e-15
8.01892e-15
9.70149e-15
1.15009e-14
1.34385e-14
1.55371e-14
1.78213e-14
2.03174e-14
2.30541e-14
2.60625e-14
2.93765e-14
3.3033e-14
3.70723e-14
4.15385e-14
4.64797e-14
5.19487e-14
5.80032e-14
6.47062e-14
7.21268e-14
8.03404e-14
8.94294e-14
9.94839e-14
1.10602e-13
1.22891e-13
1.36468e-13
1.51459e-13
1.68002e-13
1.86249e-13
2.0636e-13
2.28514e-13
2.52901e-13
2.79727e-13
3.09216e-13
3.41607e-13
3.77161e-13
4.16155e-13
4.58889e-13
5.05683e-13
5.5688e-13
6.12847e-13
6.73976e-13
7.40682e-13
8.13407e-13
8.92623e-13
9.78824e-13
1.07254e-12
1.17431e-12
1.28474e-12
1.40442e-12
1.53399e-12
1.67412e-12
1.8255e-12
1.98886e-12
2.16492e-12
2.35447e-12
2.55828e-12
2.77715e-12
3.01191e-12
3.26338e-12
3.53239e-12
3.8198e-12
4.12642e-12
4.45309e-12
4.80062e-12
5.1698e-12
5.56139e-12
5.97612e-12
6.41467e-12
6.87766e-12
7.36566e-12
7.87917e-12
8.41858e-12
8.98422e-12
9.57631e-12
1.01949e-11
1.08401e-11
1.15116e-11
1.22092e-11
1.29325e-11
1.36808e-11
1.44533e-11
1.52491e-11
1.60671e-11
1.6906e-11
1.77642e-11
1.86401e-11
1.95318e-11
2.04372e-11
2.13541e-11
2.22801e-11
2.32125e-11
2.41487e-11
2.50856e-11
2.60204e-11
2.69498e-11
2.78705e-11
2.87793e-11
2.96728e-11
3.05476e-11
3.14001e-11
3.2227e-11
3.3025e-11
3.37907e-11
3.45209e-11
3.52124e-11
3.58624e-11
3.64681e-11
3.70268e-11
3.75362e-11
3.79941e-11
3.83987e-11
3.87483e-11
3.90416e-11
3.92775e-11
3.94553e-11
3.95744e-11
3.96349e-11
3.96367e-11
3.95804e-11
3.94667e-11
3.92965e-11
3.90712e-11
3.87923e-11
3.84615e-11
3.80808e-11
3.76523e-11
3.71784e-11
3.66614e-11
3.61041e-11
3.55089e-11
3.48788e-11
3.42164e-11
3.35246e-11
3.28062e-11
3.20639e-11
3.13007e-11
3.0519e-11
2.97217e-11
2.89112e-11
2.80901e-11
2.72606e-11
2.6425e-11
2.55854e-11
2.47438e-11
2.39021e-11
2.30621e-11
2.22253e-11
2.13933e-11
2.05674e-11
1.9749e-11
1.89392e-11
1.81391e-11
1.73496e-11
1.65718e-11
1.58063e-11
1.50541e-11
1.43157e-11
1.35919e-11
1.28834e-11
1.21906e-11
1.15143e-11
1.08549e-11
1.0213e-11
9.5891e-12
8.98373e-12
8.39739e-12
7.83058e-12
7.28376e-12
6.75739e-12
6.2519e-12
5.76768e-12
5.3051e-12
4.86447e-12
4.44606e-12
4.05006e-12
3.6766e-12
3.32572e-12
2.99741e-12
2.69153e-12
2.40786e-12
2.14608e-12
1.90578e-12
1.68644e-12
1.48745e-12
1.30809e-12
1.14756e-12
1.00501e-12
8.79457e-13
7.69904e-13
6.75279e-13
5.94469e-13
5.2633e-13
4.69698e-13
4.23397e-13
3.86253e-13
3.57106e-13
3.34816e-13
3.18281e-13
3.06439e-13
2.98287e-13
2.92882e-13
2.8936e-13
2.86937e-13
2.8492e-13
2.82714e-13
2.79826e-13
2.75867e-13
2.70554e-13
2.6371e-13
2.55252e-13
2.45193e-13
2.33624e-13
2.20708e-13
2.06661e-13
1.91743e-13
1.76235e-13
1.60432e-13
1.44623e-13
1.29081e-13
1.14053e-13
9.97504e-14
8.63443e-14
7.39633e-14
6.26928e-14
5.2577e-14
4.36224e-14
3.58031e-14
2.90664e-14
2.33391e-14
1.85338e-14
1.45546e-14
1.13019e-14
8.67746e-15
6.58698e-15
4.94313e-15
3.66698e-15
2.6889e-15
1.94881e-15
1.39592e-15
9.88147e-16
6.91223e-16
4.7777e-16
3.26278e-16
2.20126e-16
1.46685e-16
9.65041e-17
6.26161e-17
3.99556e-17
2.48781e-17
1.47728e-17
7.75345e-18
2.40794e-18
2.36732e-15
7.13018e-15
1.19787e-14
1.69719e-14
2.21706e-14
2.76379e-14
3.34399e-14
3.96461e-14
4.63304e-14
5.35719e-14
6.14553e-14
7.00725e-14
7.95225e-14
8.99133e-14
1.01362e-13
1.13997e-13
1.27959e-13
1.43399e-13
1.60486e-13
1.79402e-13
2.00348e-13
2.23543e-13
2.49227e-13
2.77662e-13
3.09135e-13
3.43958e-13
3.82474e-13
4.25054e-13
4.72106e-13
5.2407e-13
5.81428e-13
6.44702e-13
7.14459e-13
7.91313e-13
8.75929e-13
9.69026e-13
1.07138e-12
1.18383e-12
1.30728e-12
1.4427e-12
1.59112e-12
1.75367e-12
1.93154e-12
2.126e-12
2.33842e-12
2.57025e-12
2.82302e-12
3.09837e-12
3.39802e-12
3.72381e-12
4.07764e-12
4.46154e-12
4.87762e-12
5.3281e-12
5.81528e-12
6.34155e-12
6.90941e-12
7.52141e-12
8.1802e-12
8.88847e-12
9.64899e-12
1.04646e-11
1.1338e-11
1.22722e-11
1.327e-11
1.43343e-11
1.54678e-11
1.66732e-11
1.79533e-11
1.93105e-11
2.07473e-11
2.22659e-11
2.38683e-11
2.55563e-11
2.73314e-11
2.91949e-11
3.11477e-11
3.31902e-11
3.53227e-11
3.75447e-11
3.98554e-11
4.22535e-11
4.47372e-11
4.73041e-11
4.9951e-11
5.26745e-11
5.54701e-11
5.83331e-11
6.12579e-11
6.42381e-11
6.72671e-11
7.03373e-11
7.34405e-11
7.65681e-11
7.97108e-11
8.28588e-11
8.60018e-11
8.91292e-11
9.22298e-11
9.52925e-11
9.83055e-11
1.01257e-10
1.04136e-10
1.0693e-10
1.09627e-10
1.12217e-10
1.14688e-10
1.17029e-10
1.19231e-10
1.21283e-10
1.23176e-10
1.24903e-10
1.26456e-10
1.27828e-10
1.29014e-10
1.30008e-10
1.30808e-10
1.3141e-10
1.31814e-10
1.32017e-10
1.32022e-10
1.31829e-10
1.3144e-10
1.30861e-10
1.30094e-10
1.29145e-10
1.2802e-10
1.26726e-10
1.2527e-10
1.23661e-10
1.21907e-10
1.20017e-10
1.18e-10
1.15866e-10
1.13624e-10
1.11285e-10
1.08858e-10
1.06352e-10
1.03778e-10
1.01145e-10
9.84613e-11
9.57365e-11
9.29789e-11
9.01966e-11
8.73973e-11
8.45883e-11
8.17764e-11
7.89679e-11
7.61688e-11
7.33845e-11
7.06201e-11
6.78802e-11
6.5169e-11
6.24902e-11
5.98474e-11
5.72436e-11
5.46817e-11
5.21641e-11
4.96932e-11
4.72712e-11
4.48997e-11
4.25807e-11
4.03158e-11
3.81064e-11
3.5954e-11
3.386e-11
3.18257e-11
2.98524e-11
2.79413e-11
2.60937e-11
2.43107e-11
2.25936e-11
2.09433e-11
1.93609e-11
1.78474e-11
1.64036e-11
1.50301e-11
1.37276e-11
1.24963e-11
1.13365e-11
1.0248e-11
9.23057e-12
8.2836e-12
7.40623e-12
6.5973e-12
5.85536e-12
5.17866e-12
4.56518e-12
4.01262e-12
3.51842e-12
3.07978e-12
2.69368e-12
2.35694e-12
2.0662e-12
1.81801e-12
1.60878e-12
1.43493e-12
1.2928e-12
1.17877e-12
1.08927e-12
1.02079e-12
9.69942e-13
9.33474e-13
9.08306e-13
8.9156e-13
8.80587e-13
8.72993e-13
8.66664e-13
8.59783e-13
8.50848e-13
8.38674e-13
8.22402e-13
8.01485e-13
7.7568e-13
7.4502e-13
7.09786e-13
6.7047e-13
6.27733e-13
5.82358e-13
5.35206e-13
4.87168e-13
4.39122e-13
3.91898e-13
3.46243e-13
3.02797e-13
2.62081e-13
2.24484e-13
1.90263e-13
1.59552e-13
1.32369e-13
1.08635e-13
8.81882e-14
7.08071e-14
5.62254e-14
4.41511e-14
3.42824e-14
2.63202e-14
1.99784e-14
1.49919e-14
1.1121e-14
8.15434e-15
5.9097e-15
4.23293e-15
2.9963e-15
2.09588e-15
1.44862e-15
9.89253e-16
6.6739e-16
4.44716e-16
2.92571e-16
1.89828e-16
1.21128e-16
7.54182e-17
4.47835e-17
2.35043e-17
7.29968e-18
5.08099e-15
1.5304e-14
2.5712e-14
3.64327e-14
4.75974e-14
5.93425e-14
7.18106e-14
8.51521e-14
9.95271e-14
1.15106e-13
1.32074e-13
1.50629e-13
1.70985e-13
1.93377e-13
2.18061e-13
2.45312e-13
2.75437e-13
3.08767e-13
3.45665e-13
3.8653e-13
4.31799e-13
4.81947e-13
5.37498e-13
5.99023e-13
6.67146e-13
7.42551e-13
8.25981e-13
9.18251e-13
1.02025e-12
1.13293e-12
1.25736e-12
1.39467e-12
1.54609e-12
1.71298e-12
1.89678e-12
2.09907e-12
2.32155e-12
2.56604e-12
2.83452e-12
3.1291e-12
3.45207e-12
3.80586e-12
4.19309e-12
4.61654e-12
5.07919e-12
5.5842e-12
6.13493e-12
6.73494e-12
7.38799e-12
8.09807e-12
8.86934e-12
9.70621e-12
1.06133e-11
1.15953e-11
1.26574e-11
1.38046e-11
1.50423e-11
1.63761e-11
1.78117e-11
1.93548e-11
2.10114e-11
2.27874e-11
2.46889e-11
2.6722e-11
2.88926e-11
3.12067e-11
3.36701e-11
3.62885e-11
3.90673e-11
4.20117e-11
4.51264e-11
4.84159e-11
5.1884e-11
5.55339e-11
5.93685e-11
6.33897e-11
6.75987e-11
7.19957e-11
7.65802e-11
8.13504e-11
8.63036e-11
9.1436e-11
9.67423e-11
1.02216e-10
1.0785e-10
1.13634e-10
1.19559e-10
1.25611e-10
1.31779e-10
1.38047e-10
1.44399e-10
1.50818e-10
1.57284e-10
1.63779e-10
1.7028e-10
1.76767e-10
1.83215e-10
1.89601e-10
1.95901e-10
2.0209e-10
2.08142e-10
2.14034e-10
2.19739e-10
2.25232e-10
2.3049e-10
2.3549e-10
2.40207e-10
2.44622e-10
2.48713e-10
2.52462e-10
2.55852e-10
2.58868e-10
2.61496e-10
2.63725e-10
2.65546e-10
2.66952e-10
2.67939e-10
2.68504e-10
2.68648e-10
2.68372e-10
2.67682e-10
2.66583e-10
2.65086e-10
2.63201e-10
2.6094e-10
2.58317e-10
2.5535e-10
2.52055e-10
2.4845e-10
2.44555e-10
2.4039e-10
2.35976e-10
2.31334e-10
2.26486e-10
2.21453e-10
2.16257e-10
2.10919e-10
2.05459e-10
1.99899e-10
1.94256e-10
1.88551e-10
1.82801e-10
1.77023e-10
1.71233e-10
1.65446e-10
1.59676e-10
1.53935e-10
1.48237e-10
1.42591e-10
1.37006e-10
1.31493e-10
1.26058e-10
1.20709e-10
1.15452e-10
1.10292e-10
1.05233e-10
1.0028e-10
9.54362e-11
9.07043e-11
8.60871e-11
8.15865e-11
7.72046e-11
7.29429e-11
6.88028e-11
6.47857e-11
6.08927e-11
5.71248e-11
5.34833e-11
4.9969e-11
4.65829e-11
4.3326e-11
4.01992e-11
3.72032e-11
3.43389e-11
3.16068e-11
2.90075e-11
2.65412e-11
2.42079e-11
2.20074e-11
1.99392e-11
1.80024e-11
1.61956e-11
1.45171e-11
1.29648e-11
1.15361e-11
1.02277e-11
9.03628e-12
7.95767e-12
6.98745e-12
6.12078e-12
5.35242e-12
4.67682e-12
4.08813e-12
3.58029e-12
3.14705e-12
2.78205e-12
2.47886e-12
2.23104e-12
2.0322e-12
1.87605e-12
1.75647e-12
1.66752e-12
1.60354e-12
1.5592e-12
1.52948e-12
1.50981e-12
1.49605e-12
1.48456e-12
1.47221e-12
1.4564e-12
1.43511e-12
1.40685e-12
1.3707e-12
1.32623e-12
1.2735e-12
1.213e-12
1.14556e-12
1.07232e-12
9.94605e-13
9.13898e-13
8.31714e-13
7.49553e-13
6.68828e-13
5.90812e-13
5.16595e-13
4.4706e-13
3.82868e-13
3.24455e-13
2.72045e-13
2.25665e-13
1.85178e-13
1.50306e-13
1.20668e-13
9.58066e-14
7.52239e-14
5.84034e-14
4.48343e-14
3.40282e-14
2.55325e-14
1.89383e-14
1.38851e-14
1.00621e-14
7.20663e-15
5.10087e-15
3.56776e-15
2.46577e-15
1.68376e-15
1.13587e-15
7.56847e-16
4.97891e-16
3.23032e-16
2.06116e-16
1.2833e-16
7.62005e-17
3.99926e-17
1.24205e-17
9.93247e-15
2.99177e-14
5.02678e-14
7.12339e-14
9.30751e-14
1.1606e-13
1.4047e-13
1.66602e-13
1.94772e-13
2.25318e-13
2.58603e-13
2.9502e-13
3.34995e-13
3.7899e-13
4.27512e-13
4.81112e-13
5.40391e-13
6.06012e-13
6.78695e-13
7.59233e-13
8.48492e-13
9.47422e-13
1.05706e-12
1.17855e-12
1.31314e-12
1.46218e-12
1.62716e-12
1.8097e-12
2.01158e-12
2.23471e-12
2.4812e-12
2.75333e-12
3.05357e-12
3.3846e-12
3.74934e-12
4.15092e-12
4.59274e-12
5.07847e-12
5.61205e-12
6.19772e-12
6.84004e-12
7.5439e-12
8.3145e-12
9.15744e-12
1.00786e-11
1.10845e-11
1.21816e-11
1.33771e-11
1.46786e-11
1.60939e-11
1.76315e-11
1.92999e-11
2.11085e-11
2.30666e-11
2.51843e-11
2.74717e-11
2.99395e-11
3.25986e-11
3.54601e-11
3.85355e-11
4.18362e-11
4.5374e-11
4.91605e-11
5.32074e-11
5.75263e-11
6.21284e-11
6.70249e-11
7.22263e-11
7.77426e-11
8.35832e-11
8.97567e-11
9.62707e-11
1.03132e-10
1.10345e-10
1.17915e-10
1.25843e-10
1.3413e-10
1.42776e-10
1.51775e-10
1.61125e-10
1.70815e-10
1.80837e-10
1.91178e-10
2.01822e-10
2.12751e-10
2.23944e-10
2.35378e-10
2.47026e-10
2.5886e-10
2.70846e-10
2.82951e-10
2.95137e-10
3.07364e-10
3.19591e-10
3.31774e-10
3.43867e-10
3.55823e-10
3.67594e-10
3.79131e-10
3.90385e-10
4.01306e-10
4.11845e-10
4.21953e-10
4.31583e-10
4.4069e-10
4.4923e-10
4.57161e-10
4.64444e-10
4.71046e-10
4.76933e-10
4.82077e-10
4.86455e-10
4.90047e-10
4.92838e-10
4.94817e-10
4.95978e-10
4.96319e-10
4.95845e-10
4.94563e-10
4.92487e-10
4.89632e-10
4.8602e-10
4.81676e-10
4.76629e-10
4.7091e-10
4.64553e-10
4.57597e-10
4.50079e-10
4.42042e-10
4.33527e-10
4.24578e-10
4.15238e-10
4.05552e-10
3.95562e-10
3.85314e-10
3.74847e-10
3.64205e-10
3.53426e-10
3.42549e-10
3.3161e-10
3.20643e-10
3.09681e-10
2.98753e-10
2.87888e-10
2.77111e-10
2.66444e-10
2.5591e-10
2.45526e-10
2.35309e-10
2.25274e-10
2.15433e-10
2.05796e-10
1.96373e-10
1.87172e-10
1.78197e-10
1.69454e-10
1.60946e-10
1.52675e-10
1.44644e-10
1.36852e-10
1.29302e-10
1.21991e-10
1.14919e-10
1.08087e-10
1.01492e-10
9.51329e-11
8.90092e-11
8.31193e-11
7.74619e-11
7.20357e-11
6.68394e-11
6.18719e-11
5.71318e-11
5.26179e-11
4.83288e-11
4.4263e-11
4.04188e-11
3.67943e-11
3.3387e-11
3.01944e-11
2.72133e-11
2.44402e-11
2.18709e-11
1.95008e-11
1.73245e-11
1.53362e-11
1.35294e-11
1.1897e-11
1.04314e-11
9.12461e-12
7.96789e-12
6.95233e-12
6.06861e-12
5.30715e-12
4.6582e-12
4.1119e-12
3.65837e-12
3.28775e-12
2.99035e-12
2.75666e-12
2.57744e-12
2.44383e-12
2.34735e-12
2.28006e-12
2.23455e-12
2.20402e-12
2.18238e-12
2.16424e-12
2.14502e-12
2.12092e-12
2.08895e-12
2.04695e-12
1.99357e-12
1.92818e-12
1.85087e-12
1.76235e-12
1.66384e-12
1.55698e-12
1.44372e-12
1.3262e-12
1.20661e-12
1.08713e-12
9.69799e-13
8.56464e-13
7.48698e-13
6.47773e-13
5.54638e-13
4.69918e-13
3.93929e-13
3.26705e-13
2.68038e-13
2.17522e-13
1.74598e-13
1.38602e-13
1.08807e-13
8.44638e-14
6.48301e-14
4.91974e-14
3.69093e-14
2.73731e-14
2.00668e-14
1.45401e-14
1.04126e-14
7.36927e-15
5.15385e-15
3.56162e-15
2.43185e-15
1.64039e-15
1.09293e-15
7.18932e-16
4.66412e-16
2.97584e-16
1.8527e-16
1.10006e-16
5.77334e-17
1.793e-17
1.87757e-14
5.65566e-14
9.50334e-14
1.34685e-13
1.76006e-13
2.19509e-13
2.65731e-13
3.15238e-13
3.68636e-13
4.2657e-13
4.89735e-13
5.58884e-13
6.34833e-13
7.18472e-13
8.10768e-13
9.12781e-13
1.02567e-12
1.1507e-12
1.28927e-12
1.4429e-12
1.61327e-12
1.80219e-12
2.01168e-12
2.24393e-12
2.50135e-12
2.78657e-12
3.10245e-12
3.45215e-12
3.83908e-12
4.26697e-12
4.73988e-12
5.26222e-12
5.83881e-12
6.47483e-12
7.17593e-12
7.9482e-12
8.79824e-12
9.73316e-12
1.07606e-11
1.18888e-11
1.31266e-11
1.44835e-11
1.59696e-11
1.75958e-11
1.93735e-11
2.13151e-11
2.34336e-11
2.57427e-11
2.82569e-11
3.09918e-11
3.39632e-11
3.71882e-11
4.06844e-11
4.44702e-11
4.85645e-11
5.29872e-11
5.77587e-11
6.28996e-11
6.84315e-11
7.43759e-11
8.07548e-11
8.75902e-11
9.49041e-11
1.02718e-10
1.11055e-10
1.19934e-10
1.29376e-10
1.394e-10
1.50024e-10
1.61265e-10
1.73137e-10
1.85654e-10
1.98824e-10
2.12657e-10
2.27156e-10
2.42324e-10
2.58157e-10
2.74651e-10
2.91795e-10
3.09574e-10
3.27969e-10
3.46957e-10
3.66507e-10
3.86585e-10
4.07152e-10
4.28162e-10
4.49565e-10
4.71303e-10
4.93315e-10
5.15535e-10
5.37891e-10
5.60307e-10
5.82701e-10
6.04989e-10
6.27084e-10
6.48894e-10
6.70327e-10
6.91288e-10
7.11683e-10
7.31416e-10
7.50393e-10
7.68521e-10
7.85711e-10
8.01875e-10
8.16931e-10
8.30802e-10
8.43414e-10
8.54703e-10
8.64611e-10
8.73086e-10
8.80087e-10
8.85579e-10
8.89538e-10
8.91948e-10
8.92803e-10
8.92107e-10
8.89872e-10
8.8612e-10
8.80881e-10
8.74194e-10
8.66106e-10
8.56672e-10
8.45952e-10
8.34013e-10
8.20929e-10
8.06776e-10
7.91634e-10
7.75589e-10
7.58724e-10
7.41128e-10
7.22887e-10
7.0409e-10
6.84821e-10
6.65166e-10
6.45207e-10
6.25023e-10
6.04691e-10
5.84282e-10
5.63865e-10
5.43503e-10
5.23257e-10
5.03181e-10
4.83324e-10
4.63731e-10
4.44443e-10
4.25496e-10
4.06919e-10
3.88741e-10
3.70984e-10
3.53665e-10
3.36801e-10
3.20402e-10
3.04477e-10
2.89032e-10
2.7407e-10
2.59591e-10
2.45595e-10
2.32079e-10
2.19039e-10
2.0647e-10
1.94365e-10
1.82718e-10
1.71522e-10
1.60768e-10
1.5045e-10
1.4056e-10
1.31088e-10
1.22029e-10
1.13375e-10
1.05118e-10
9.72514e-11
8.97684e-11
8.26625e-11
7.59273e-11
6.95564e-11
6.35434e-11
5.78819e-11
5.25654e-11
4.7587e-11
4.29396e-11
3.86155e-11
3.46068e-11
3.09047e-11
2.75002e-11
2.43833e-11
2.15436e-11
1.897e-11
1.66505e-11
1.4573e-11
1.27246e-11
1.10917e-11
9.66083e-12
8.41776e-12
7.34826e-12
6.43794e-12
5.67238e-12
5.03727e-12
4.51846e-12
4.10208e-12
3.77466e-12
3.52316e-12
3.33512e-12
3.19873e-12
3.10291e-12
3.03738e-12
2.99277e-12
2.96067e-12
2.93369e-12
2.90555e-12
2.87103e-12
2.82609e-12
2.76777e-12
2.69422e-12
2.60461e-12
2.49906e-12
2.37853e-12
2.24466e-12
2.09968e-12
1.94621e-12
1.78713e-12
1.6254e-12
1.46396e-12
1.30553e-12
1.1526e-12
1.00726e-12
8.71223e-13
7.45748e-13
6.31661e-13
5.29375e-13
4.38924e-13
3.60017e-13
2.92096e-13
2.34402e-13
1.86035e-13
1.46012e-13
1.13322e-13
8.6963e-14
6.59809e-14
4.94918e-14
3.66985e-14
2.68987e-14
1.94873e-14
1.39534e-14
9.8738e-15
6.90452e-15
4.77085e-15
3.25712e-15
2.19683e-15
1.46352e-15
9.62617e-16
6.24451e-16
3.98388e-16
2.48011e-16
1.47252e-16
7.72778e-17
2.39994e-17
3.47938e-14
1.04811e-13
1.7613e-13
2.49647e-13
3.26287e-13
4.07009e-13
4.9282e-13
5.84781e-13
6.84026e-13
7.91766e-13
9.09308e-13
1.03807e-12
1.17957e-12
1.33551e-12
1.50769e-12
1.69811e-12
1.90896e-12
2.14264e-12
2.40178e-12
2.68924e-12
3.00819e-12
3.36211e-12
3.75477e-12
4.19035e-12
4.67341e-12
5.20892e-12
5.80236e-12
6.45966e-12
7.18734e-12
7.99248e-12
8.88281e-12
9.86674e-12
1.09534e-11
1.21527e-11
1.34753e-11
1.49329e-11
1.65381e-11
1.83044e-11
2.02463e-11
2.23797e-11
2.47213e-11
2.72893e-11
3.0103e-11
3.3183e-11
3.65513e-11
4.02313e-11
4.42478e-11
4.86272e-11
5.3397e-11
5.85866e-11
6.42266e-11
7.0349e-11
7.69874e-11
8.41766e-11
9.19529e-11
1.00353e-10
1.09417e-10
1.19182e-10
1.29689e-10
1.4098e-10
1.53094e-10
1.66072e-10
1.79957e-10
1.94787e-10
2.10603e-10
2.27443e-10
2.45342e-10
2.64336e-10
2.84455e-10
3.05728e-10
3.28181e-10
3.51833e-10
3.767e-10
4.02791e-10
4.30112e-10
4.5866e-10
4.88424e-10
5.19387e-10
5.51523e-10
5.84798e-10
6.19167e-10
6.54576e-10
6.90962e-10
7.2825e-10
7.66356e-10
8.05185e-10
8.44631e-10
8.84578e-10
9.24902e-10
9.65465e-10
1.00612e-09
1.04673e-09
1.08711e-09
1.12712e-09
1.16656e-09
1.20528e-09
1.24309e-09
1.2798e-09
1.31524e-09
1.34923e-09
1.3816e-09
1.41217e-09
1.44078e-09
1.46728e-09
1.49151e-09
1.51335e-09
1.53267e-09
1.54937e-09
1.56335e-09
1.57454e-09
1.58288e-09
1.58833e-09
1.59087e-09
1.59048e-09
1.58719e-09
1.58103e-09
1.57205e-09
1.56031e-09
1.54591e-09
1.52893e-09
1.50949e-09
1.48771e-09
1.46375e-09
1.43773e-09
1.40981e-09
1.38016e-09
1.34895e-09
1.31634e-09
1.2825e-09
1.24761e-09
1.21184e-09
1.17534e-09
1.1383e-09
1.10085e-09
1.06316e-09
1.02536e-09
9.87602e-10
9.49999e-10
9.12672e-10
8.7573e-10
8.3927e-10
8.03382e-10
7.68143e-10
7.33622e-10
6.9988e-10
6.66967e-10
6.34924e-10
6.03785e-10
5.73578e-10
5.44319e-10
5.16024e-10
4.88696e-10
4.6234e-10
4.36949e-10
4.12518e-10
3.89036e-10
3.66487e-10
3.44856e-10
3.24124e-10
3.04271e-10
2.85275e-10
2.67115e-10
2.49768e-10
2.33212e-10
2.17424e-10
2.02383e-10
1.88065e-10
1.74451e-10
1.6152e-10
1.49252e-10
1.37629e-10
1.26632e-10
1.16243e-10
1.06447e-10
9.72257e-11
8.85644e-11
8.0447e-11
7.28583e-11
6.57827e-11
5.92049e-11
5.3109e-11
4.74793e-11
4.22993e-11
3.75522e-11
3.32207e-11
2.92868e-11
2.57322e-11
2.25379e-11
1.96844e-11
1.71518e-11
1.492e-11
1.29682e-11
1.1276e-11
9.82258e-12
8.58729e-12
7.54967e-12
6.68958e-12
5.98729e-12
5.42361e-12
4.98e-12
4.63866e-12
4.38267e-12
4.19606e-12
4.06392e-12
3.97251e-12
3.90932e-12
3.86318e-12
3.8243e-12
3.78435e-12
3.73651e-12
3.67544e-12
3.59727e-12
3.49957e-12
3.38127e-12
3.24252e-12
3.08455e-12
2.90953e-12
2.72034e-12
2.52037e-12
2.31336e-12
2.10314e-12
1.89347e-12
1.6879e-12
1.48961e-12
1.3013e-12
1.12515e-12
9.62777e-13
8.15219e-13
6.8299e-13
5.66117e-13
4.64205e-13
3.76519e-13
3.02066e-13
2.39673e-13
1.88063e-13
1.45922e-13
1.11954e-13
8.4923e-14
6.36864e-14
4.72141e-14
3.45995e-14
2.50616e-14
1.79416e-14
1.26938e-14
8.87508e-15
6.13154e-15
4.1855e-15
2.82263e-15
1.88019e-15
1.23654e-15
8.02065e-16
5.11655e-16
3.18499e-16
1.8909e-16
9.92302e-17
3.08163e-17
6.34249e-14
1.91066e-13
3.21103e-13
4.55188e-13
5.95022e-13
7.42373e-13
8.99095e-13
1.06715e-12
1.24862e-12
1.44576e-12
1.66096e-12
1.89686e-12
2.15629e-12
2.44235e-12
2.75841e-12
3.1082e-12
3.49576e-12
3.92555e-12
4.40244e-12
4.93181e-12
5.51952e-12
6.17205e-12
6.89646e-12
7.70052e-12
8.59275e-12
9.58245e-12
1.06798e-11
1.1896e-11
1.32432e-11
1.47346e-11
1.63847e-11
1.82094e-11
2.02256e-11
2.24519e-11
2.49086e-11
2.76175e-11
3.0602e-11
3.38878e-11
3.75021e-11
4.14746e-11
4.5837e-11
5.06232e-11
5.58696e-11
6.1615e-11
6.79008e-11
7.47709e-11
8.22721e-11
9.04537e-11
9.93678e-11
1.09069e-10
1.19616e-10
1.31067e-10
1.43487e-10
1.56939e-10
1.71493e-10
1.87217e-10
2.04184e-10
2.22466e-10
2.42138e-10
2.63276e-10
2.85954e-10
3.1025e-10
3.36237e-10
3.6399e-10
3.9358e-10
4.25076e-10
4.58542e-10
4.9404e-10
5.31625e-10
5.71345e-10
6.1324e-10
6.57343e-10
7.03677e-10
7.52252e-10
8.03068e-10
8.56112e-10
9.11354e-10
9.68751e-10
1.02824e-09
1.08975e-09
1.15319e-09
1.21843e-09
1.28534e-09
1.35377e-09
1.42356e-09
1.49449e-09
1.56637e-09
1.63896e-09
1.712e-09
1.78524e-09
1.85838e-09
1.93114e-09
2.00319e-09
2.07422e-09
2.1439e-09
2.21189e-09
2.27785e-09
2.34144e-09
2.40233e-09
2.46019e-09
2.51469e-09
2.56553e-09
2.61243e-09
2.65509e-09
2.69327e-09
2.72676e-09
2.75533e-09
2.77883e-09
2.79712e-09
2.8101e-09
2.81768e-09
2.81984e-09
2.81657e-09
2.80791e-09
2.79394e-09
2.77475e-09
2.75049e-09
2.72132e-09
2.68745e-09
2.64909e-09
2.6065e-09
2.55995e-09
2.50973e-09
2.45614e-09
2.39951e-09
2.34014e-09
2.27838e-09
2.21455e-09
2.14899e-09
2.08201e-09
2.01395e-09
1.94511e-09
1.87578e-09
1.80625e-09
1.73679e-09
1.66766e-09
1.59907e-09
1.53126e-09
1.46441e-09
1.39871e-09
1.3343e-09
1.27132e-09
1.20989e-09
1.15012e-09
1.09207e-09
1.03583e-09
9.81428e-10
9.28909e-10
8.78293e-10
8.29587e-10
7.8279e-10
7.3789e-10
6.94866e-10
6.5369e-10
6.14327e-10
5.76737e-10
5.40877e-10
5.06698e-10
4.74151e-10
4.43184e-10
4.13744e-10
3.85778e-10
3.59233e-10
3.34056e-10
3.10195e-10
2.87602e-10
2.66226e-10
2.46022e-10
2.26944e-10
2.08948e-10
1.91994e-10
1.76043e-10
1.61055e-10
1.46996e-10
1.33831e-10
1.21527e-10
1.10052e-10
9.93739e-11
8.94634e-11
8.02904e-11
7.18256e-11
6.40399e-11
5.69042e-11
5.03893e-11
4.44661e-11
3.91051e-11
3.42767e-11
2.99511e-11
2.60983e-11
2.26882e-11
1.96905e-11
1.70753e-11
1.48127e-11
1.2873e-11
1.12272e-11
9.84653e-12
8.7032e-12
7.77012e-12
7.02117e-12
6.43129e-12
5.9766e-12
5.63451e-12
5.38386e-12
5.20497e-12
5.07978e-12
4.99195e-12
4.92692e-12
4.872e-12
4.81643e-12
4.75139e-12
4.67001e-12
4.56734e-12
4.44027e-12
4.28743e-12
4.109e-12
3.90657e-12
3.68288e-12
3.44157e-12
3.18696e-12
2.92376e-12
2.6568e-12
2.39084e-12
2.13033e-12
1.87925e-12
1.641e-12
1.4183e-12
1.21314e-12
1.02682e-12
8.59957e-13
7.12549e-13
5.84077e-13
4.73593e-13
3.79824e-13
3.01278e-13
2.36333e-13
1.83324e-13
1.40612e-13
1.06634e-13
7.99481e-14
5.92558e-14
4.34141e-14
3.14396e-14
2.2503e-14
1.5918e-14
1.11273e-14
7.68624e-15
5.24592e-15
3.53723e-15
2.35588e-15
1.54919e-15
1.00474e-15
6.40879e-16
3.98904e-16
2.36809e-16
1.24265e-16
3.859e-17
1.13835e-13
3.4294e-13
5.76391e-13
8.17182e-13
1.0684e-12
1.33325e-12
1.6151e-12
1.91751e-12
2.24428e-12
2.59949e-12
2.98753e-12
3.41316e-12
3.88157e-12
4.39841e-12
4.96987e-12
5.60271e-12
6.30435e-12
7.08296e-12
7.94747e-12
8.90771e-12
9.97448e-12
1.11596e-11
1.24762e-11
1.39384e-11
1.55619e-11
1.73639e-11
1.93632e-11
2.15802e-11
2.40375e-11
2.67596e-11
2.9773e-11
3.31071e-11
3.67933e-11
4.0866e-11
4.53626e-11
5.03235e-11
5.57923e-11
6.18161e-11
6.84459e-11
7.57364e-11
8.37463e-11
9.25388e-11
1.02181e-10
1.12746e-10
1.24309e-10
1.36953e-10
1.50763e-10
1.65833e-10
1.82257e-10
2.00139e-10
2.19585e-10
2.40705e-10
2.63618e-10
2.88443e-10
3.15307e-10
3.44336e-10
3.75664e-10
4.09426e-10
4.45759e-10
4.84801e-10
5.2669e-10
5.71566e-10
6.19563e-10
6.70816e-10
7.25454e-10
7.83599e-10
8.45366e-10
9.10863e-10
9.80184e-10
1.05341e-09
1.13061e-09
1.21183e-09
1.29711e-09
1.38645e-09
1.47983e-09
1.57722e-09
1.67855e-09
1.78371e-09
1.89258e-09
2.005e-09
2.12077e-09
2.23964e-09
2.36137e-09
2.48562e-09
2.61206e-09
2.74031e-09
2.86995e-09
3.00052e-09
3.13154e-09
3.26249e-09
3.39282e-09
3.52196e-09
3.64932e-09
3.77429e-09
3.89625e-09
4.01456e-09
4.1286e-09
4.23774e-09
4.34137e-09
4.43888e-09
4.5297e-09
4.61328e-09
4.68911e-09
4.75672e-09
4.81567e-09
4.8656e-09
4.90618e-09
4.93716e-09
4.95834e-09
4.96958e-09
4.97083e-09
4.96209e-09
4.94343e-09
4.91499e-09
4.87697e-09
4.82965e-09
4.77335e-09
4.70846e-09
4.63542e-09
4.55469e-09
4.46682e-09
4.37234e-09
4.27185e-09
4.16596e-09
4.05527e-09
3.94043e-09
3.82206e-09
3.7008e-09
3.57725e-09
3.45202e-09
3.3257e-09
3.19884e-09
3.07198e-09
2.94561e-09
2.82019e-09
2.69617e-09
2.57392e-09
2.45381e-09
2.33615e-09
2.22121e-09
2.10924e-09
2.00042e-09
1.89494e-09
1.79292e-09
1.69447e-09
1.59964e-09
1.50849e-09
1.42103e-09
1.33725e-09
1.25713e-09
1.18063e-09
1.10768e-09
1.03821e-09
9.72135e-10
9.09363e-10
8.49792e-10
7.93315e-10
7.39822e-10
6.89199e-10
6.41332e-10
5.96108e-10
5.53413e-10
5.13136e-10
4.75169e-10
4.39406e-10
4.05746e-10
3.7409e-10
3.44345e-10
3.16421e-10
2.90233e-10
2.65699e-10
2.42744e-10
2.21294e-10
2.0128e-10
1.82636e-10
1.65299e-10
1.49209e-10
1.3431e-10
1.20546e-10
1.07863e-10
9.6211e-11
8.55386e-11
7.57968e-11
6.69373e-11
5.89125e-11
5.16754e-11
4.51795e-11
3.93789e-11
3.42281e-11
2.96823e-11
2.56971e-11
2.22291e-11
1.92354e-11
1.66742e-11
1.45048e-11
1.26876e-11
1.11843e-11
9.95823e-12
8.97411e-12
8.19845e-12
7.59951e-12
7.1475e-12
6.81462e-12
6.57522e-12
6.40584e-12
6.28537e-12
6.19506e-12
6.11867e-12
6.04243e-12
5.95511e-12
5.84802e-12
5.71486e-12
5.55173e-12
5.35688e-12
5.13055e-12
4.87472e-12
4.59281e-12
4.28939e-12
3.96984e-12
3.64001e-12
3.30593e-12
2.97348e-12
2.64819e-12
2.33497e-12
2.03801e-12
1.76064e-12
1.50531e-12
1.27359e-12
1.0662e-12
8.83092e-13
7.236e-13
5.8651e-13
4.7022e-13
3.72855e-13
2.92386e-13
2.26734e-13
1.73855e-13
1.31807e-13
9.87945e-14
7.32052e-14
5.36209e-14
3.8822e-14
2.77807e-14
1.96471e-14
1.37314e-14
9.48324e-15
6.47125e-15
4.36273e-15
2.90524e-15
1.91017e-15
1.2387e-15
7.90022e-16
4.91686e-16
2.91865e-16
1.53147e-16
4.75579e-17
2.01229e-13
6.0625e-13
1.01904e-12
1.44494e-12
1.88947e-12
2.35837e-12
2.85766e-12
3.3937e-12
3.97332e-12
4.60381e-12
5.29305e-12
6.04962e-12
6.88282e-12
7.80282e-12
8.82075e-12
9.94881e-12
1.12004e-11
1.25902e-11
1.41344e-11
1.58507e-11
1.77587e-11
1.98798e-11
2.22376e-11
2.4858e-11
2.77693e-11
3.10027e-11
3.45923e-11
3.85755e-11
4.2993e-11
4.78895e-11
5.33135e-11
5.93181e-11
6.5961e-11
7.33048e-11
8.14177e-11
9.03734e-11
1.00252e-10
1.11139e-10
1.23127e-10
1.36318e-10
1.50818e-10
1.66743e-10
1.84217e-10
2.0337e-10
2.24345e-10
2.47291e-10
2.72365e-10
2.99737e-10
3.29583e-10
3.6209e-10
3.97453e-10
4.35876e-10
4.77573e-10
5.22765e-10
5.7168e-10
6.24554e-10
6.81628e-10
7.43148e-10
8.09364e-10
8.80526e-10
9.56886e-10
1.03869e-09
1.1262e-09
1.21963e-09
1.31923e-09
1.42521e-09
1.53778e-09
1.65711e-09
1.78338e-09
1.91672e-09
2.05725e-09
2.20502e-09
2.36009e-09
2.52245e-09
2.69205e-09
2.86879e-09
3.05251e-09
3.24302e-09
3.44004e-09
3.64324e-09
3.85222e-09
4.06652e-09
4.28561e-09
4.50888e-09
4.73567e-09
4.96522e-09
5.19675e-09
5.42937e-09
5.66216e-09
5.89414e-09
6.12426e-09
6.35147e-09
6.57464e-09
6.79264e-09
7.00431e-09
7.2085e-09
7.40405e-09
7.58981e-09
7.76468e-09
7.92758e-09
8.07749e-09
8.21344e-09
8.33455e-09
8.44001e-09
8.52911e-09
8.60124e-09
8.65591e-09
8.69274e-09
8.71147e-09
8.71197e-09
8.69424e-09
8.6584e-09
8.60471e-09
8.53354e-09
8.44539e-09
8.34088e-09
8.22073e-09
8.08574e-09
7.93682e-09
7.77496e-09
7.6012e-09
7.41663e-09
7.22241e-09
7.01969e-09
6.80966e-09
6.5935e-09
6.3724e-09
6.14751e-09
5.91997e-09
5.69085e-09
5.4612e-09
5.23201e-09
5.0042e-09
4.77863e-09
4.55609e-09
4.33729e-09
4.12287e-09
3.9134e-09
3.70937e-09
3.51119e-09
3.31922e-09
3.13373e-09
2.95494e-09
2.78299e-09
2.618e-09
2.46001e-09
2.309e-09
2.16495e-09
2.02776e-09
1.89732e-09
1.7735e-09
1.65612e-09
1.54499e-09
1.43992e-09
1.34069e-09
1.24709e-09
1.15887e-09
1.07581e-09
9.9767e-10
9.24231e-10
8.5526e-10
7.90534e-10
7.29838e-10
6.7296e-10
6.19701e-10
5.69865e-10
5.2327e-10
4.7974e-10
4.39107e-10
4.01216e-10
3.65915e-10
3.33066e-10
3.02536e-10
2.74199e-10
2.47939e-10
2.23643e-10
2.01207e-10
1.8053e-10
1.61518e-10
1.4408e-10
1.28129e-10
1.13581e-10
1.00356e-10
8.83773e-11
7.75681e-11
6.78555e-11
5.91682e-11
5.14366e-11
4.45927e-11
3.85707e-11
3.33061e-11
2.87365e-11
2.48013e-11
2.14417e-11
1.86012e-11
1.62255e-11
1.42625e-11
1.26626e-11
1.13785e-11
1.03658e-11
9.58255e-12
8.98966e-12
8.55094e-12
8.23312e-12
8.00598e-12
7.84242e-12
7.7185e-12
7.61353e-12
7.5101e-12
7.394e-12
7.25427e-12
7.08304e-12
6.87539e-12
6.62913e-12
6.34456e-12
6.02413e-12
5.67209e-12
5.29409e-12
4.89676e-12
4.48733e-12
4.0732e-12
3.66161e-12
3.25933e-12
2.87236e-12
2.50582e-12
2.16375e-12
1.84911e-12
1.56377e-12
1.30855e-12
1.08337e-12
8.8735e-13
7.18957e-13
5.76189e-13
4.56716e-13
3.58024e-13
2.77541e-13
2.12744e-13
1.6124e-13
1.20821e-13
8.95011e-14
6.55397e-14
4.74393e-14
3.3939e-14
2.39969e-14
1.67678e-14
1.15779e-14
7.89916e-15
5.32445e-15
3.54509e-15
2.33051e-15
1.51108e-15
9.63622e-16
5.99667e-16
3.55932e-16
1.86753e-16
5.79918e-17
3.5041e-13
1.05575e-12
1.77476e-12
2.51686e-12
3.29177e-12
4.10959e-12
4.98094e-12
5.91706e-12
6.92997e-12
8.03259e-12
9.23885e-12
1.05639e-11
1.20243e-11
1.3638e-11
1.54247e-11
1.74062e-11
1.96063e-11
2.2051e-11
2.47692e-11
2.77925e-11
3.11558e-11
3.48972e-11
3.9059e-11
4.36873e-11
4.88329e-11
5.45516e-11
6.09044e-11
6.79583e-11
7.57864e-11
8.44688e-11
9.40929e-11
1.04754e-10
1.16555e-10
1.2961e-10
1.44041e-10
1.59981e-10
1.77573e-10
1.96973e-10
2.18349e-10
2.41882e-10
2.67765e-10
2.96208e-10
3.27433e-10
3.61679e-10
3.99201e-10
4.40269e-10
4.8517e-10
5.34207e-10
5.87703e-10
6.45993e-10
7.09431e-10
7.78389e-10
8.5325e-10
9.34415e-10
1.0223e-09
1.11732e-09
1.21992e-09
1.33055e-09
1.44964e-09
1.57766e-09
1.71505e-09
1.86227e-09
2.01975e-09
2.18791e-09
2.36717e-09
2.55792e-09
2.7605e-09
2.97524e-09
3.20242e-09
3.44227e-09
3.69497e-09
3.96062e-09
4.23927e-09
4.53087e-09
4.83532e-09
5.15238e-09
5.48175e-09
5.82299e-09
6.17559e-09
6.53889e-09
6.91211e-09
7.29436e-09
7.68461e-09
8.08171e-09
8.4844e-09
8.89125e-09
9.30077e-09
9.7113e-09
1.01211e-08
1.05284e-08
1.09312e-08
1.13275e-08
1.17153e-08
1.20924e-08
1.24569e-08
1.28066e-08
1.31393e-08
1.34531e-08
1.37459e-08
1.40158e-08
1.42611e-08
1.44801e-08
1.46712e-08
1.48332e-08
1.49648e-08
1.50651e-08
1.51333e-08
1.51689e-08
1.51716e-08
1.51413e-08
1.50783e-08
1.4983e-08
1.48559e-08
1.46981e-08
1.45106e-08
1.42947e-08
1.40518e-08
1.37837e-08
1.34922e-08
1.3179e-08
1.28464e-08
1.24964e-08
1.21312e-08
1.17529e-08
1.13638e-08
1.0966e-08
1.05618e-08
1.01531e-08
9.74202e-09
9.33049e-09
8.92032e-09
8.51322e-09
8.11076e-09
7.71438e-09
7.32541e-09
6.94499e-09
6.57415e-09
6.21377e-09
5.86458e-09
5.52721e-09
5.20211e-09
4.88965e-09
4.59007e-09
4.30351e-09
4.02999e-09
3.76949e-09
3.52186e-09
3.28691e-09