/*--------------------------------*- C++ -*----------------------------------*\
| =========                 |                                                 |
| \\      /  F ield         | OpenFOAM: The Open Source CFD Toolbox           |
|  \\    /   O peration     | Version:  v2012                                 |
|   \\  /    A nd           | Website:  www.openfoam.com                      |
|    \\/     M anipulation  |                                                 |
\*---------------------------------------------------------------------------*/
FoamFile
{
    version     2.0;
    format      ascii;
    class       volScalarField;
    location    "8.6";
    object      W;
}
// * * * * * * * * * * * * * * * * * * * * * * * * * * * * * * * * * * * * * //

dimensions      [0 0 -1 0 0 0 0];


internalField   nonuniform List<scalar> 
65536
(
2.6347e-19
7.98697e-19
1.35909e-18
1.96233e-18
2.62737e-18
3.37494e-18
4.22805e-18
5.2127e-18
6.35847e-18
7.69932e-18
9.27442e-18
1.11291e-17
1.33158e-17
1.58956e-17
1.89394e-17
2.25293e-17
2.67608e-17
3.17447e-17
3.76093e-17
4.45032e-17
5.25983e-17
6.2093e-17
7.32163e-17
8.62319e-17
1.01443e-16
1.19198e-16
1.39897e-16
1.63997e-16
1.9202e-16
2.24564e-16
2.6231e-16
3.06031e-16
3.56607e-16
4.15035e-16
4.82443e-16
5.60108e-16
6.4947e-16
7.5215e-16
8.6997e-16
1.00498e-15
1.15946e-15
1.33599e-15
1.53743e-15
1.76695e-15
2.02811e-15
2.32483e-15
2.66148e-15
3.04287e-15
3.47431e-15
3.96165e-15
4.51132e-15
5.13036e-15
5.82647e-15
6.60806e-15
7.4843e-15
8.46513e-15
9.56134e-15
1.07846e-14
1.21475e-14
1.36635e-14
1.53473e-14
1.72143e-14
1.92811e-14
2.15655e-14
2.40862e-14
2.6863e-14
2.99168e-14
3.32698e-14
3.6945e-14
4.09664e-14
4.53591e-14
5.01491e-14
5.53631e-14
6.10288e-14
6.71742e-14
7.38281e-14
8.10192e-14
8.87768e-14
9.71299e-14
1.06107e-13
1.15737e-13
1.26048e-13
1.37065e-13
1.48814e-13
1.61319e-13
1.74601e-13
1.88679e-13
2.0357e-13
2.19286e-13
2.35839e-13
2.53233e-13
2.7147e-13
2.90548e-13
3.10456e-13
3.31183e-13
3.52708e-13
3.75004e-13
3.98039e-13
4.21774e-13
4.46162e-13
4.71149e-13
4.96673e-13
5.22665e-13
5.49048e-13
5.75737e-13
6.02641e-13
6.29659e-13
6.56687e-13
6.8361e-13
7.1031e-13
7.36661e-13
7.62534e-13
7.87794e-13
8.12305e-13
8.35926e-13
8.58516e-13
8.79935e-13
9.00042e-13
9.187e-13
9.35773e-13
9.51132e-13
9.64656e-13
9.76228e-13
9.85743e-13
9.93105e-13
9.98232e-13
1.00105e-12
1.00151e-12
9.99574e-13
9.95209e-13
9.88412e-13
9.79195e-13
9.67587e-13
9.53637e-13
9.37411e-13
9.18992e-13
8.98485e-13
8.76007e-13
8.51694e-13
8.25698e-13
7.98181e-13
7.69319e-13
7.393e-13
7.08316e-13
6.7657e-13
6.44267e-13
6.11612e-13
5.78814e-13
5.46077e-13
5.13602e-13
4.8158e-13
4.50199e-13
4.19633e-13
3.90044e-13
3.61583e-13
3.34385e-13
3.08571e-13
2.84244e-13
2.61492e-13
2.40386e-13
2.20979e-13
2.03309e-13
1.87397e-13
1.73246e-13
1.60845e-13
1.5017e-13
1.4118e-13
1.33821e-13
1.2803e-13
1.23727e-13
1.20826e-13
1.19227e-13
1.18825e-13
1.19505e-13
1.21143e-13
1.23612e-13
1.26778e-13
1.30505e-13
1.34652e-13
1.39079e-13
1.43645e-13
1.48213e-13
1.52647e-13
1.5682e-13
1.6061e-13
1.63906e-13
1.66606e-13
1.68625e-13
1.69888e-13
1.7034e-13
1.69939e-13
1.68665e-13
1.6651e-13
1.6349e-13
1.59633e-13
1.54986e-13
1.49609e-13
1.43577e-13
1.36973e-13
1.2989e-13
1.22427e-13
1.14686e-13
1.06769e-13
9.87768e-14
9.08055e-14
8.29452e-14
7.5278e-14
6.78761e-14
6.08016e-14
5.41051e-14
4.78261e-14
4.19926e-14
3.66217e-14
3.17208e-14
2.72876e-14
2.33123e-14
1.9778e-14
1.66624e-14
1.39391e-14
1.15785e-14
9.5493e-15
7.8195e-15
6.35706e-15
5.13082e-15
4.11107e-15
3.26998e-15
2.58192e-15
2.02364e-15
1.57435e-15
1.21572e-15
9.31791e-16
7.0883e-16
5.3517e-16
4.01011e-16
2.98211e-16
2.20082e-16
1.61185e-16
1.17149e-16
8.44912e-17
6.04697e-17
4.29445e-17
3.02629e-17
2.11613e-17
1.46821e-17
1.01076e-17
6.904e-18
4.67879e-18
3.14561e-18
2.09761e-18
1.38665e-18
9.07518e-19
5.86022e-19
3.70046e-19
2.22914e-19
1.18415e-19
3.70325e-20
9.03076e-19
2.73759e-18
4.65825e-18
6.72564e-18
9.0046e-18
1.1566e-17
1.44888e-17
1.78617e-17
2.1786e-17
2.63779e-17
3.17713e-17
3.81211e-17
4.5607e-17
5.44374e-17
6.48543e-17
7.71387e-17
9.16168e-17
1.08667e-16
1.28727e-16
1.52304e-16
1.79986e-16
2.12449e-16
2.50474e-16
2.9496e-16
3.46942e-16
4.07607e-16
4.78316e-16
5.60628e-16
6.56324e-16
7.67436e-16
8.96278e-16
1.04548e-15
1.21805e-15
1.41735e-15
1.64723e-15
1.91203e-15
2.21662e-15
2.56652e-15
2.96789e-15
3.42768e-15
3.95365e-15
4.55447e-15
5.23983e-15
6.0205e-15
6.90845e-15
7.91697e-15
9.06074e-15
1.0356e-14
1.18207e-14
1.34744e-14
1.53388e-14
1.74375e-14
1.97965e-14
2.24438e-14
2.54103e-14
2.87291e-14
3.24363e-14
3.65709e-14
4.11748e-14
4.62931e-14
5.19741e-14
5.82695e-14
6.52343e-14
7.29271e-14
8.14098e-14
9.07479e-14
1.0101e-13
1.1227e-13
1.24601e-13
1.38084e-13
1.52801e-13
1.68835e-13
1.86274e-13
2.05207e-13
2.25725e-13
2.4792e-13
2.71886e-13
2.97715e-13
3.255e-13
3.55332e-13
3.87301e-13
4.21492e-13
4.57989e-13
4.96869e-13
5.38204e-13
5.82058e-13
6.28489e-13
6.77542e-13
7.29255e-13
7.83652e-13
8.40744e-13
9.00529e-13
9.62986e-13
1.02808e-12
1.09576e-12
1.16595e-12
1.23855e-12
1.31345e-12
1.39052e-12
1.46958e-12
1.55046e-12
1.63296e-12
1.71683e-12
1.80181e-12
1.88764e-12
1.97401e-12
2.06058e-12
2.14701e-12
2.23294e-12
2.31797e-12
2.4017e-12
2.48372e-12
2.56359e-12
2.64087e-12
2.71513e-12
2.7859e-12
2.85275e-12
2.91523e-12
2.97292e-12
3.02538e-12
3.07223e-12
3.11308e-12
3.14758e-12
3.1754e-12
3.19627e-12
3.20993e-12
3.21618e-12
3.21486e-12
3.20586e-12
3.18913e-12
3.16467e-12
3.13254e-12
3.09284e-12
3.04575e-12
2.9915e-12
2.93037e-12
2.86271e-12
2.78891e-12
2.70941e-12
2.62471e-12
2.53533e-12
2.44184e-12
2.34484e-12
2.24495e-12
2.14281e-12
2.03906e-12
1.93438e-12
1.8294e-12
1.72477e-12
1.62112e-12
1.51905e-12
1.41915e-12
1.32195e-12
1.22796e-12
1.13765e-12
1.05143e-12
9.69661e-13
8.9267e-13
8.20719e-13
7.54018e-13
6.92725e-13
6.36945e-13
5.86733e-13
5.42093e-13
5.0298e-13
4.69306e-13
4.40936e-13
4.17696e-13
3.99374e-13
3.85722e-13
3.76458e-13
3.71271e-13
3.69822e-13
3.71749e-13
3.76667e-13
3.84173e-13
3.9385e-13
4.05269e-13
4.17994e-13
4.31587e-13
4.45611e-13
4.59636e-13
4.73247e-13
4.86043e-13
4.97652e-13
5.07726e-13
5.15957e-13
5.22076e-13
5.25859e-13
5.2713e-13
5.25768e-13
5.21705e-13
5.14927e-13
5.05476e-13
4.93446e-13
4.78982e-13
4.62272e-13
4.43545e-13
4.23062e-13
4.01111e-13
3.77996e-13
3.54031e-13
3.29534e-13
3.04814e-13
2.80169e-13
2.55876e-13
2.32187e-13
2.09324e-13
1.87479e-13
1.66807e-13
1.47427e-13
1.29427e-13
1.12858e-13
9.77422e-14
8.40716e-14
7.18151e-14
6.09202e-14
5.13177e-14
4.29254e-14
3.5652e-14
2.94009e-14
2.40726e-14
1.95686e-14
1.57924e-14
1.26525e-14
1.00631e-14
7.94495e-15
6.22653e-15
4.84374e-15
3.74009e-15
2.86639e-15
2.18037e-15
1.64608e-15
1.23336e-15
9.17133e-16
6.76812e-16
4.95663e-16
3.60228e-16
2.59796e-16
1.85926e-16
1.32036e-16
9.30419e-17
6.5057e-17
4.51365e-17
3.10722e-17
2.12234e-17
1.43826e-17
9.66941e-18
6.4478e-18
4.26232e-18
2.78952e-18
1.80129e-18
1.13742e-18
6.85176e-19
3.63976e-19
1.13831e-19
1.92411e-18
5.83263e-18
9.92436e-18
1.43281e-17
1.91816e-17
2.46356e-17
3.08576e-17
3.80364e-17
4.63871e-17
5.6156e-17
6.76276e-17
8.11306e-17
9.70459e-17
1.15816e-16
1.37953e-16
1.64052e-16
1.94806e-16
2.31014e-16
2.73605e-16
3.23652e-16
3.82395e-16
4.51266e-16
5.31916e-16
6.26245e-16
7.36435e-16
8.64994e-16
1.01479e-15
1.18912e-15
1.39172e-15
1.62688e-15
1.89946e-15
2.21502e-15
2.57982e-15
3.00099e-15
3.48659e-15
4.04568e-15
4.68853e-15
5.42663e-15
6.27292e-15
7.24189e-15
8.34976e-15
9.6146e-15
1.10566e-14
1.26982e-14
1.45642e-14
1.66823e-14
1.90828e-14
2.17995e-14
2.48693e-14
2.83328e-14
3.22346e-14
3.66235e-14
4.15525e-14
4.70794e-14
5.32672e-14
6.01838e-14
6.79027e-14
7.65033e-14
8.60706e-14
9.66961e-14
1.08477e-13
1.21519e-13
1.35931e-13
1.5183e-13
1.69342e-13
1.88596e-13
2.0973e-13
2.32886e-13
2.58215e-13
2.8587e-13
3.16013e-13
3.48807e-13
3.84422e-13
4.23031e-13
4.64806e-13
5.09924e-13
5.58562e-13
6.10894e-13
6.67092e-13
7.27326e-13
7.91758e-13
8.60544e-13
9.3383e-13
1.01175e-12
1.09443e-12
1.18198e-12
1.27448e-12
1.37199e-12
1.47458e-12
1.58226e-12
1.69502e-12
1.81283e-12
1.93563e-12
2.0633e-12
2.19572e-12
2.33271e-12
2.47405e-12
2.61949e-12
2.76873e-12
2.92142e-12
3.07719e-12
3.23559e-12
3.39616e-12
3.55837e-12
3.72166e-12
3.88542e-12
4.04901e-12
4.21174e-12
4.37291e-12
4.53175e-12
4.6875e-12
4.83936e-12
4.98651e-12
5.12813e-12
5.26339e-12
5.39146e-12
5.51152e-12
5.62276e-12
5.72439e-12
5.81568e-12
5.89589e-12
5.96438e-12
6.02053e-12
6.06379e-12
6.09369e-12
6.10981e-12
6.11186e-12
6.09959e-12
6.07289e-12
6.0317e-12
5.97611e-12
5.90629e-12
5.82253e-12
5.72519e-12
5.61479e-12
5.4919e-12
5.35723e-12
5.21155e-12
5.05575e-12
4.89076e-12
4.7176e-12
4.53737e-12
4.35118e-12
4.16021e-12
3.96565e-12
3.76871e-12
3.57059e-12
3.3725e-12
3.17561e-12
2.98106e-12
2.78994e-12
2.60329e-12
2.42208e-12
2.24721e-12
2.07949e-12
1.91964e-12
1.76831e-12
1.62603e-12
1.49326e-12
1.37032e-12
1.25749e-12
1.1549e-12
1.06262e-12
9.80632e-13
9.08812e-13
8.46969e-13
7.94831e-13
7.52055e-13
7.18232e-13
6.9289e-13
6.75502e-13
6.65487e-13
6.6222e-13
6.65034e-13
6.73225e-13
6.86061e-13
7.02785e-13
7.22624e-13
7.44792e-13
7.68504e-13
7.92978e-13
8.17447e-13
8.4117e-13
8.63439e-13
8.83591e-13
9.01014e-13
9.15164e-13
9.25567e-13
9.31833e-13
9.33655e-13
9.30825e-13
9.23226e-13
9.10842e-13
8.93751e-13
8.72125e-13
8.46223e-13
8.16384e-13
7.83013e-13
7.46576e-13
7.07582e-13
6.66569e-13
6.24093e-13
5.80713e-13
5.36975e-13
4.93401e-13
4.50477e-13
4.08647e-13
3.683e-13
3.29768e-13
2.93324e-13
2.59175e-13
2.2747e-13
1.98299e-13
1.71696e-13
1.47646e-13
1.26091e-13
1.06938e-13
9.00615e-14
7.53169e-14
6.2542e-14
5.15656e-14
4.22123e-14
3.43077e-14
2.76824e-14
2.21746e-14
1.76334e-14
1.39196e-14
1.09072e-14
8.48366e-15
6.54971e-15
5.01899e-15
3.81728e-15
2.88152e-15
2.15878e-15
1.6051e-15
1.18438e-15
8.67293e-16
6.30254e-16
4.54497e-16
3.25239e-16
2.30951e-16
1.62733e-16
1.13779e-16
7.8935e-17
5.43362e-17
3.71116e-17
2.51485e-17
1.69066e-17
1.12734e-17
7.45204e-18
4.87694e-18
3.14915e-18
1.9885e-18
1.19785e-18
6.36314e-19
1.99004e-19
3.74032e-18
1.13379e-17
1.92908e-17
2.78486e-17
3.72786e-17
4.78729e-17
5.99559e-17
7.38934e-17
9.01017e-17
1.09058e-16
1.31313e-16
1.57501e-16
1.8836e-16
2.24744e-16
2.67645e-16
3.18212e-16
3.77779e-16
4.47892e-16
5.3034e-16
6.27194e-16
7.40843e-16
8.74046e-16
1.02998e-15
1.2123e-15
1.42521e-15
1.67352e-15
1.96275e-15
2.29921e-15
2.69008e-15
3.14358e-15
3.66904e-15
4.27706e-15
4.97964e-15
5.79041e-15
6.72471e-15
7.79988e-15
9.03543e-15
1.04533e-14
1.2078e-14
1.39371e-14
1.60614e-14
1.8485e-14
2.12463e-14
2.43875e-14
2.79555e-14
3.20024e-14
3.65853e-14
4.17675e-14
4.76183e-14
5.42137e-14
6.16369e-14
6.99787e-14
7.93378e-14
8.98217e-14
1.01547e-13
1.14638e-13
1.29232e-13
1.45473e-13
1.63518e-13
1.83534e-13
2.05699e-13
2.30201e-13
2.57241e-13
2.8703e-13
3.19791e-13
3.55757e-13
3.95173e-13
4.38292e-13
4.85378e-13
5.36703e-13
5.92545e-13
6.53192e-13
7.18933e-13
7.90064e-13
8.66881e-13
9.4968e-13
1.03875e-12
1.13439e-12
1.23687e-12
1.34647e-12
1.46344e-12
1.58803e-12
1.72045e-12
1.86091e-12
2.00957e-12
2.16657e-12
2.33203e-12
2.506e-12
2.68851e-12
2.87954e-12
3.07901e-12
3.28681e-12
3.50274e-12
3.72656e-12
3.95796e-12
4.19658e-12
4.44195e-12
4.69358e-12
4.95087e-12
5.21317e-12
5.47974e-12
5.74977e-12
6.0224e-12
6.29668e-12
6.57158e-12
6.84604e-12
7.11892e-12
7.38902e-12
7.6551e-12
7.91589e-12
8.17007e-12
8.41629e-12
8.6532e-12
8.87943e-12
9.09363e-12
9.29445e-12
9.48057e-12
9.65072e-12
9.80367e-12
9.93827e-12
1.00534e-11
1.01481e-11
1.02215e-11
1.02728e-11
1.03013e-11
1.03065e-11
1.02881e-11
1.02458e-11
1.01796e-11
1.00895e-11
9.97591e-12
9.83916e-12
9.6799e-12
9.49891e-12
9.29713e-12
9.07566e-12
8.83577e-12
8.57883e-12
8.30638e-12
8.02006e-12
7.72159e-12
7.4128e-12
7.09557e-12
6.77185e-12
6.44358e-12
6.11273e-12
5.78126e-12
5.45108e-12
5.12407e-12
4.80203e-12
4.48666e-12
4.17959e-12
3.8823e-12
3.59617e-12
3.32243e-12
3.06215e-12
2.81628e-12
2.5856e-12
2.37073e-12
2.17213e-12
1.99012e-12
1.82486e-12
1.67637e-12
1.54453e-12
1.42909e-12
1.32967e-12
1.24577e-12
1.1768e-12
1.12206e-12
1.08076e-12
1.05201e-12
1.03488e-12
1.02834e-12
1.03133e-12
1.04272e-12
1.06135e-12
1.08602e-12
1.11551e-12
1.14861e-12
1.18408e-12
1.22072e-12
1.25734e-12
1.29279e-12
1.32599e-12
1.35592e-12
1.38166e-12
1.40238e-12
1.41736e-12
1.42601e-12
1.42787e-12
1.42265e-12
1.41016e-12
1.39041e-12
1.36352e-12
1.32976e-12
1.28955e-12
1.24339e-12
1.19193e-12
1.13587e-12
1.07599e-12
1.01312e-12
9.48095e-13
8.81773e-13
8.14981e-13
7.48507e-13
6.83088e-13
6.19391e-13
5.58002e-13
4.99419e-13
4.44048e-13
3.922e-13
3.44092e-13
2.99855e-13
2.59535e-13
2.23103e-13
1.90469e-13
1.61483e-13
1.35956e-13
1.13663e-13
9.43561e-14
7.77738e-14
6.36491e-14
5.17165e-14
4.17184e-14
3.34097e-14
2.65612e-14
2.09622e-14
1.64221e-14
1.27705e-14
9.85727e-15
7.55208e-15
5.74279e-15
4.33425e-15
3.24659e-15
2.41352e-15
1.78063e-15
1.30373e-15
9.47279e-16
6.83027e-16
4.88717e-16
3.46998e-16
2.44477e-16
1.70916e-16
1.18564e-16
8.16088e-17
5.57348e-17
3.7766e-17
2.53875e-17
1.69276e-17
1.11892e-17
7.32242e-18
4.72811e-18
2.98546e-18
1.79838e-18
9.5532e-19
2.98773e-19
7.06065e-18
2.14022e-17
3.64127e-17
5.25623e-17
7.0354e-17
9.03375e-17
1.13123e-16
1.39399e-16
1.69948e-16
2.05667e-16
2.47589e-16
2.96909e-16
3.5501e-16
4.23494e-16
5.04223e-16
5.99352e-16
7.11382e-16
8.43208e-16
9.98182e-16
1.18018e-15
1.39367e-15
1.64381e-15
1.93655e-15
2.27871e-15
2.67812e-15
3.14378e-15
3.68597e-15
4.31644e-15
5.04858e-15
5.89766e-15
6.88104e-15
8.01838e-15
9.33201e-15
1.08471e-14
1.25922e-14
1.45993e-14
1.69045e-14
1.95482e-14
2.25758e-14
2.6038e-14
2.99914e-14
3.44988e-14
3.96304e-14
4.54637e-14
5.20845e-14
5.95878e-14
6.80779e-14
7.76698e-14
8.84894e-14
1.00674e-13
1.14375e-13
1.29756e-13
1.46995e-13
1.66284e-13
1.87832e-13
2.11864e-13
2.3862e-13
2.6836e-13
3.01361e-13
3.37916e-13
3.78339e-13
4.22961e-13
4.72131e-13
5.26219e-13
5.85608e-13
6.50702e-13
7.21919e-13
7.99692e-13
8.84467e-13
9.76705e-13
1.07687e-12
1.18544e-12
1.3029e-12
1.42972e-12
1.56639e-12
1.71338e-12
1.87115e-12
2.04016e-12
2.22084e-12
2.41359e-12
2.6188e-12
2.8368e-12
3.06791e-12
3.31238e-12
3.57041e-12
3.84215e-12
4.12768e-12
4.42701e-12
4.74007e-12
5.0667e-12
5.40668e-12
5.75966e-12
6.12522e-12
6.5028e-12
6.89177e-12
7.29137e-12
7.70074e-12
8.11887e-12
8.54469e-12
8.97696e-12
9.41437e-12
9.85547e-12
1.02987e-11
1.07424e-11
1.11849e-11
1.16243e-11
1.20586e-11
1.2486e-11
1.29043e-11
1.33114e-11
1.37053e-11
1.40837e-11
1.44446e-11
1.47857e-11
1.5105e-11
1.54005e-11
1.567e-11
1.59118e-11
1.6124e-11
1.6305e-11
1.64532e-11
1.65673e-11
1.66461e-11
1.66886e-11
1.66941e-11
1.66619e-11
1.65918e-11
1.64838e-11
1.63379e-11
1.61547e-11
1.59349e-11
1.56795e-11
1.53896e-11
1.50667e-11
1.47127e-11
1.43293e-11
1.39189e-11
1.34838e-11
1.30265e-11
1.25497e-11
1.20562e-11
1.15491e-11
1.10311e-11
1.05055e-11
9.97531e-12
9.44348e-12
8.91306e-12
8.38695e-12
7.86797e-12
7.35881e-12
6.862e-12
6.37989e-12
5.91464e-12
5.46823e-12
5.04236e-12
4.63856e-12
4.25808e-12
3.90195e-12
3.57095e-12
3.26565e-12
2.98635e-12
2.73314e-12
2.50593e-12
2.30437e-12
2.12797e-12
1.97602e-12
1.84768e-12
1.74193e-12
1.65765e-12
1.59355e-12
1.54825e-12
1.52029e-12
1.50808e-12
1.50999e-12
1.52432e-12
1.54932e-12
1.58319e-12
1.62413e-12
1.67032e-12
1.71997e-12
1.77129e-12
1.82256e-12
1.87211e-12
1.91839e-12
1.95992e-12
1.99537e-12
2.02356e-12
2.04347e-12
2.05427e-12
2.05534e-12
2.04624e-12
2.02676e-12
1.9969e-12
1.95687e-12
1.90708e-12
1.84813e-12
1.78078e-12
1.70595e-12
1.62467e-12
1.53805e-12
1.44729e-12
1.35359e-12
1.25817e-12
1.1622e-12
1.0668e-12
9.73036e-13
8.81832e-13
7.94019e-13
7.10298e-13
6.31236e-13
5.57263e-13
4.88681e-13
4.25662e-13
3.68262e-13
3.16432e-13
2.70033e-13
2.28847e-13
1.92596e-13
1.60954e-13
1.33565e-13
1.10053e-13
9.00347e-14
7.31311e-14
5.89741e-14
4.72141e-14
3.75247e-14
2.96062e-14
2.31875e-14
1.80267e-14
1.3911e-14
1.06552e-14
8.10061e-15
6.11241e-15
4.57756e-15
3.40229e-15
2.50965e-15
1.83716e-15
1.33464e-15
9.62179e-16
6.88352e-16
4.88675e-16
3.44251e-16
2.4064e-16
1.66913e-16
1.14877e-16
7.8448e-17
5.31522e-17
3.57281e-17
2.38208e-17
1.57448e-17
1.03033e-17
6.65262e-18
4.20053e-18
2.53027e-18
1.34409e-18
4.2036e-19
1.31362e-17
3.98174e-17
6.77402e-17
9.7777e-17
1.30861e-16
1.68012e-16
2.10363e-16
2.59188e-16
3.15939e-16
3.82277e-16
4.60116e-16
5.51668e-16
6.59492e-16
7.86554e-16
9.36295e-16
1.1127e-15
1.32039e-15
1.56472e-15
1.85186e-15
2.18898e-15
2.58432e-15
3.04739e-15
3.58913e-15
4.22212e-15
4.9608e-15
5.82167e-15
6.82366e-15
7.98834e-15
9.34031e-15
1.09076e-14
1.27219e-14
1.48194e-14
1.72408e-14
2.00323e-14
2.32458e-14
2.69398e-14
3.11801e-14
3.60404e-14
4.1603e-14
4.796e-14
5.52141e-14
6.34793e-14
7.28822e-14
8.3563e-14
9.56764e-14
1.09393e-13
1.24901e-13
1.42407e-13
1.62135e-13
1.84331e-13
2.09265e-13
2.37228e-13
2.68535e-13
3.03528e-13
3.42575e-13
3.86071e-13
4.34439e-13
4.88134e-13
5.47637e-13
6.1346e-13
6.86145e-13
7.66265e-13
8.5442e-13
9.5124e-13
1.05738e-12
1.17352e-12
1.30037e-12
1.43866e-12
1.58912e-12
1.75251e-12
1.92961e-12
2.12119e-12
2.32801e-12
2.55086e-12
2.79049e-12
3.04763e-12
3.323e-12
3.61729e-12
3.93112e-12
4.26508e-12
4.6197e-12
4.99544e-12
5.39267e-12
5.81168e-12
6.25267e-12
6.7157e-12
7.20075e-12
7.70765e-12
8.2361e-12
8.78563e-12
9.35566e-12
9.94541e-12
1.0554e-11
1.11802e-11
1.18228e-11
1.24804e-11
1.31513e-11
1.38337e-11
1.45255e-11
1.52246e-11
1.59287e-11
1.66352e-11
1.73415e-11
1.80446e-11
1.87418e-11
1.94299e-11
2.01058e-11
2.07662e-11
2.14078e-11
2.20273e-11
2.26213e-11
2.31865e-11
2.37196e-11
2.42172e-11
2.46763e-11
2.50938e-11
2.54668e-11
2.57925e-11
2.60686e-11
2.62927e-11
2.64627e-11
2.6577e-11
2.66342e-11
2.6633e-11
2.65729e-11
2.64533e-11
2.62744e-11
2.60364e-11
2.57403e-11
2.5387e-11
2.49783e-11
2.45161e-11
2.40027e-11
2.34408e-11
2.28335e-11
2.21841e-11
2.14962e-11
2.07739e-11
2.00213e-11
1.92426e-11
1.84425e-11
1.76254e-11
1.6796e-11
1.59591e-11
1.51192e-11
1.42809e-11
1.34487e-11
1.26269e-11
1.18197e-11
1.10309e-11
1.0264e-11
9.52259e-12
8.80952e-12
8.12751e-12
7.4789e-12
6.86567e-12
6.28945e-12
5.75149e-12
5.25269e-12
4.7936e-12
4.37444e-12
3.99509e-12
3.65514e-12
3.35389e-12
3.09038e-12
2.86338e-12
2.67146e-12
2.51297e-12
2.3861e-12
2.28884e-12
2.21907e-12
2.17454e-12
2.15288e-12
2.15163e-12
2.16827e-12
2.20024e-12
2.24491e-12
2.29967e-12
2.36189e-12
2.429e-12
2.49847e-12
2.56783e-12
2.63475e-12
2.69701e-12
2.75258e-12
2.79959e-12
2.83641e-12
2.86164e-12
2.87415e-12
2.87307e-12
2.85786e-12
2.82825e-12
2.78426e-12
2.72623e-12
2.65475e-12
2.57068e-12
2.47511e-12
2.36934e-12
2.2548e-12
2.13307e-12
2.00579e-12
1.87465e-12
1.74133e-12
1.60745e-12
1.47458e-12
1.34413e-12
1.2174e-12
1.09552e-12
9.79447e-13
8.69936e-13
7.6757e-13
6.72746e-13
5.85685e-13
5.0645e-13
4.34958e-13
3.71002e-13
3.1427e-13
2.64368e-13
2.20838e-13
1.83181e-13
1.50873e-13
1.23381e-13
1.00179e-13
8.0756e-14
6.46294e-14
5.13484e-14
4.04995e-14
3.1709e-14
2.46441e-14
1.9012e-14
1.45583e-14
1.1065e-14
8.34707e-15
6.24957e-15
4.64395e-15
3.42479e-15
2.50656e-15
1.82059e-15
1.31227e-15
9.3865e-16
6.6626e-16
4.69283e-16
3.27995e-16
2.27476e-16
1.5654e-16
1.06889e-16
7.24151e-17
4.86723e-17
3.24487e-17
2.14462e-17
1.40335e-17
9.06079e-18
5.7209e-18
3.44601e-18
1.83052e-18
5.72486e-19
2.41792e-17
7.32882e-17
1.24677e-16
1.79949e-16
2.40816e-16
3.09151e-16
3.87033e-16
4.76799e-16
5.81113e-16
7.0302e-16
8.46028e-16
1.01419e-15
1.2122e-15
1.44548e-15
1.72032e-15
2.04404e-15
2.42507e-15
2.87319e-15
3.39972e-15
4.01772e-15
4.74224e-15
5.59065e-15
6.5829e-15
7.74193e-15
9.09402e-15
1.06693e-14
1.25021e-14
1.46318e-14
1.71029e-14
1.99665e-14
2.32801e-14
2.71093e-14
3.15278e-14
3.66192e-14
4.24775e-14
4.92083e-14
5.69304e-14
6.57765e-14
7.58952e-14
8.7452e-14
1.00631e-13
1.15638e-13
1.32698e-13
1.52063e-13
1.74009e-13
1.9884e-13
2.26892e-13
2.58529e-13
2.94152e-13
3.34197e-13
3.79137e-13
4.29486e-13
4.858e-13
5.48675e-13
6.18757e-13
6.96735e-13
7.83346e-13
8.79374e-13
9.85652e-13
1.10306e-12
1.23254e-12
1.37505e-12
1.53162e-12
1.70333e-12
1.89126e-12
2.09656e-12
2.32042e-12
2.56403e-12
2.82861e-12
3.1154e-12
3.42564e-12
3.76059e-12
4.12145e-12
4.50945e-12
4.92576e-12
5.37149e-12
5.84773e-12
6.35545e-12
6.89557e-12
7.46889e-12
8.0761e-12
8.71774e-12
9.39421e-12
1.01058e-11
1.08524e-11
1.16341e-11
1.24503e-11
1.33007e-11
1.41842e-11
1.50999e-11
1.60464e-11
1.70222e-11
1.80253e-11
1.90535e-11
2.01045e-11
2.11756e-11
2.22636e-11
2.33653e-11
2.44771e-11
2.55953e-11
2.67157e-11
2.7834e-11
2.89457e-11
3.00461e-11
3.11303e-11
3.21933e-11
3.323e-11
3.42352e-11
3.52036e-11
3.613e-11
3.70093e-11
3.78363e-11
3.8606e-11
3.93136e-11
3.99544e-11
4.05241e-11
4.10186e-11
4.14342e-11
4.17675e-11
4.20155e-11
4.21758e-11
4.22464e-11
4.22256e-11
4.21127e-11
4.19071e-11
4.16091e-11
4.12194e-11
4.07395e-11
4.01712e-11
3.95172e-11
3.87805e-11
3.7965e-11
3.70748e-11
3.61147e-11
3.50899e-11
3.40061e-11
3.28693e-11
3.16859e-11
3.04626e-11
2.92062e-11
2.79236e-11
2.66221e-11
2.53087e-11
2.39905e-11
2.26745e-11
2.13674e-11
2.00757e-11
1.88058e-11
1.75635e-11
1.63543e-11
1.51834e-11
1.40553e-11
1.29741e-11
1.19434e-11
1.09663e-11
1.00452e-11
9.1821e-12
8.37844e-12
7.6351e-12
6.95249e-12
6.33051e-12
5.7686e-12
5.26579e-12
4.8207e-12
4.4316e-12
4.09641e-12
3.81275e-12
3.57801e-12
3.38929e-12
3.24354e-12
3.13749e-12
3.06775e-12
3.03079e-12
3.023e-12
3.04068e-12
3.08008e-12
3.13745e-12
3.20903e-12
3.2911e-12
3.37999e-12
3.47216e-12
3.56416e-12
3.65273e-12
3.73481e-12
3.80758e-12
3.8685e-12
3.91534e-12
3.94621e-12
3.95958e-12
3.95432e-12
3.92971e-12
3.88543e-12
3.82159e-12
3.73865e-12
3.63751e-12
3.51937e-12
3.38575e-12
3.23845e-12
3.07947e-12
2.91097e-12
2.73521e-12
2.55449e-12
2.37111e-12
2.18727e-12
2.00508e-12
1.82647e-12
1.65318e-12
1.48672e-12
1.32836e-12
1.17912e-12
1.03975e-12
9.10771e-13
7.92459e-13
6.84873e-13
5.8788e-13
5.01177e-13
4.24325e-13
3.56772e-13
2.97886e-13
2.46977e-13
2.03327e-13
1.66205e-13
1.34893e-13
1.08696e-13
8.69558e-14
6.90609e-14
5.445e-14
4.26167e-14
3.31105e-14
2.55353e-14
1.95475e-14
1.48526e-14
1.12012e-14
8.38431e-15
6.22866e-15
4.59237e-15
3.36034e-15
2.44019e-15
1.75852e-15
1.25761e-15
8.92504e-16
6.28536e-16
4.39236e-16
3.04582e-16
2.09576e-16
1.43085e-16
9.6928e-17
6.51422e-17
4.34254e-17
2.8699e-17
1.87784e-17
1.21238e-17
7.65457e-18
4.61066e-18
2.44914e-18
7.65953e-19
4.40752e-17
1.33591e-16
2.27255e-16
3.27981e-16
4.38886e-16
5.63374e-16
7.05222e-16
8.68685e-16
1.05859e-15
1.28049e-15
1.54074e-15
1.84669e-15
2.20687e-15
2.63112e-15
3.13086e-15
3.71933e-15
4.41183e-15
5.22608e-15
6.18257e-15
7.30493e-15
8.62044e-15
1.01605e-14
1.19611e-14
1.40638e-14
1.65161e-14
1.93722e-14
2.26942e-14
2.65529e-14
3.10289e-14
3.62136e-14
4.2211e-14
4.91386e-14
5.71292e-14
6.63325e-14
7.69172e-14
8.90726e-14
1.03011e-13
1.1897e-13
1.37215e-13
1.58041e-13
1.81777e-13
2.08786e-13
2.39471e-13
2.74278e-13
3.13697e-13
3.58266e-13
4.08574e-13
4.65268e-13
5.29051e-13
6.00688e-13
6.81008e-13
7.70911e-13
8.71363e-13
9.83407e-13
1.10816e-12
1.24681e-12
1.40064e-12
1.57098e-12
1.75928e-12
1.96703e-12
2.19582e-12
2.4473e-12
2.7232e-12
3.0253e-12
3.35545e-12
3.71555e-12
4.10753e-12
4.53337e-12
4.99506e-12
5.49459e-12
6.03396e-12
6.61513e-12
7.24002e-12
7.9105e-12
8.62835e-12
9.39525e-12
1.02128e-11
1.10823e-11
1.2005e-11
1.2982e-11
1.40141e-11
1.51018e-11
1.62454e-11
1.74449e-11
1.86999e-11
2.00098e-11
2.13734e-11
2.27894e-11
2.42558e-11
2.57704e-11
2.73304e-11
2.89327e-11
3.05737e-11
3.22493e-11
3.3955e-11
3.56857e-11
3.74362e-11
3.92006e-11
4.09727e-11
4.27459e-11
4.45132e-11
4.62675e-11
4.80011e-11
4.97063e-11
5.13752e-11
5.29996e-11
5.45715e-11
5.60826e-11
5.75247e-11
5.88899e-11
6.01702e-11
6.13579e-11
6.24457e-11
6.34266e-11
6.42939e-11
6.50415e-11
6.5664e-11
6.61562e-11
6.65141e-11
6.67339e-11
6.68129e-11
6.67491e-11
6.65414e-11
6.61893e-11
6.56936e-11
6.50558e-11
6.42781e-11
6.3364e-11
6.23177e-11
6.11441e-11
5.98493e-11
5.84398e-11
5.69232e-11
5.53076e-11
5.36017e-11
5.1815e-11
4.99571e-11
4.80383e-11
4.60691e-11
4.40601e-11
4.20223e-11
3.99663e-11
3.79029e-11
3.58428e-11
3.37961e-11
3.17728e-11
2.97823e-11
2.78337e-11
2.59352e-11
2.40945e-11
2.23186e-11
2.06138e-11
1.89854e-11
1.74381e-11
1.59758e-11
1.46015e-11
1.33173e-11
1.21246e-11
1.10242e-11
1.0016e-11
9.09924e-12
8.27249e-12
7.5338e-12
6.88064e-12
6.31002e-12
5.81848e-12
5.40219e-12
5.05698e-12
4.77838e-12
4.56169e-12
4.40199e-12
4.2942e-12
4.2331e-12
4.21339e-12
4.22969e-12
4.27663e-12
4.3488e-12
4.44086e-12
4.54757e-12
4.66377e-12
4.7845e-12
4.90499e-12
5.02073e-12
5.12752e-12
5.2215e-12
5.29921e-12
5.35765e-12
5.39427e-12
5.40705e-12
5.39453e-12
5.35576e-12
5.2904e-12
5.19863e-12
5.08119e-12
4.93932e-12
4.77472e-12
4.58952e-12
4.38617e-12
4.16742e-12
3.93622e-12
3.69564e-12
3.44881e-12
3.19881e-12
2.94863e-12
2.70107e-12
2.45872e-12
2.22391e-12
1.99864e-12
1.78457e-12
1.58306e-12
1.39507e-12
1.22127e-12
1.06199e-12
9.17284e-13
7.86933e-13
6.70506e-13
5.67386e-13
4.76812e-13
3.97913e-13
3.29749e-13
2.71341e-13
2.21701e-13
1.79854e-13
1.44863e-13
1.15842e-13
9.19661e-14
7.24815e-14
5.67088e-14
4.40436e-14
3.39555e-14
2.59848e-14
1.97378e-14
1.4881e-14
1.11355e-14
8.27031e-15
6.09612e-15
4.4596e-15
3.23771e-15
2.33276e-15
1.66794e-15
1.18349e-15
8.33312e-16
5.82245e-16
4.0369e-16
2.77732e-16
1.89596e-16
1.2842e-16
8.62988e-17
5.7524e-17
3.80138e-17
2.48717e-17
1.6057e-17
1.01375e-17
6.10607e-18
3.24344e-18
1.01436e-18
7.95882e-17
2.41226e-16
4.10339e-16
5.92181e-16
7.92371e-16
1.01704e-15
1.27299e-15
1.56789e-15
1.91043e-15
2.31059e-15
2.77983e-15
3.33139e-15
3.98056e-15
4.74507e-15
5.64545e-15
6.70547e-15
7.95263e-15
9.41878e-15
1.11407e-14
1.31607e-14
1.55278e-14
1.82983e-14
2.15369e-14
2.53177e-14
2.97258e-14
3.48584e-14
4.08266e-14
4.77569e-14
5.57931e-14
6.50988e-14
7.58592e-14
8.82839e-14
1.02609e-13
1.19103e-13
1.38063e-13
1.59828e-13
1.84773e-13
2.13321e-13
2.4594e-13
2.83154e-13
3.25544e-13
3.73751e-13
4.28486e-13
4.90534e-13
5.60754e-13
6.40092e-13
7.29583e-13
8.30355e-13
9.43635e-13
1.07076e-12
1.21317e-12
1.37242e-12
1.5502e-12
1.74829e-12
1.96862e-12
2.21324e-12
2.48434e-12
2.7842e-12
3.11526e-12
3.48007e-12
3.88131e-12
4.32176e-12
4.80429e-12
5.33189e-12
5.90761e-12
6.53459e-12
7.21599e-12
7.95501e-12
8.75487e-12
9.61876e-12
1.05498e-11
1.15511e-11
1.26257e-11
1.37762e-11
1.50055e-11
1.63159e-11
1.77097e-11
1.91887e-11
2.07544e-11
2.24082e-11
2.41507e-11
2.59823e-11
2.79028e-11
2.99115e-11
3.20071e-11
3.41877e-11
3.64508e-11
3.87932e-11
4.12109e-11
4.36996e-11
4.62538e-11
4.88675e-11
5.1534e-11
5.4246e-11
5.69951e-11
5.97727e-11
6.25693e-11
6.53747e-11
6.81784e-11
7.09691e-11
7.37353e-11
7.64648e-11
7.91454e-11
8.17645e-11
8.43092e-11
8.67668e-11
8.91243e-11
9.13692e-11
9.34888e-11
9.54709e-11
9.73039e-11
9.89763e-11
1.00478e-10
1.01798e-10
1.02928e-10
1.03859e-10
1.04585e-10
1.05098e-10
1.05395e-10
1.05471e-10
1.05323e-10
1.0495e-10
1.04353e-10
1.03533e-10
1.02492e-10
1.01234e-10
9.97661e-11
9.80941e-11
9.62263e-11
9.41722e-11
9.19423e-11
8.95484e-11
8.70032e-11
8.43203e-11
8.15141e-11
7.85997e-11
7.55928e-11
7.25094e-11
6.93659e-11
6.61788e-11
6.29645e-11
5.97393e-11
5.65193e-11
5.33201e-11
5.01566e-11
4.70432e-11
4.39934e-11
4.10199e-11
3.81341e-11
3.53469e-11
3.26674e-11
3.0104e-11
2.76638e-11
2.53525e-11
2.31748e-11
2.11339e-11
1.92322e-11
1.74707e-11
1.58494e-11
1.43672e-11
1.30222e-11
1.18115e-11
1.07313e-11
9.77731e-12
8.94446e-12
8.22711e-12
7.61918e-12
7.11412e-12
6.70508e-12
6.3849e-12
6.14619e-12
5.98142e-12
5.88289e-12
5.84289e-12
5.85365e-12
5.90741e-12
5.99651e-12
6.11338e-12
6.25063e-12
6.40107e-12
6.55779e-12
6.71419e-12
6.86408e-12
7.00171e-12
7.12184e-12
7.21978e-12
7.2915e-12
7.3336e-12
7.34343e-12
7.31905e-12
7.25932e-12
7.16383e-12
7.03293e-12
6.8677e-12
6.6699e-12
6.44191e-12
6.18665e-12
5.90749e-12
5.60817e-12
5.2927e-12
4.96523e-12
4.62996e-12
4.29103e-12
3.95244e-12
3.61793e-12
3.29095e-12
2.97456e-12
2.6714e-12
2.38367e-12
2.11312e-12
1.86099e-12
1.62813e-12
1.41492e-12
1.2214e-12
1.04722e-12
8.91783e-13
7.54219e-13
6.33482e-13
5.28386e-13
4.37652e-13
3.59957e-13
2.93966e-13
2.38371e-13
1.91911e-13
1.53399e-13
1.21733e-13
9.59037e-14
7.50056e-14
5.82328e-14
4.4879e-14
3.43326e-14
2.60703e-14
1.96493e-14
1.46994e-14
1.09141e-14
8.04279e-15
5.88221e-15
4.26953e-15
3.0755e-15
2.19856e-15
1.55968e-15
1.098e-15
7.67057e-16
5.31746e-16
3.65781e-16
2.49671e-16
1.69092e-16
1.13619e-16
7.57281e-17
5.00398e-17
3.2738e-17
2.11344e-17
1.33426e-17
8.03633e-18
4.26869e-18
1.33499e-18
1.42377e-16
4.31525e-16
7.34027e-16
1.05926e-15
1.41726e-15
1.81898e-15
2.27657e-15
2.80369e-15
3.41589e-15
4.13094e-15
4.96928e-15
5.95453e-15
7.11397e-15
8.47918e-15
1.00868e-14
1.1979e-14
1.4205e-14
1.68213e-14
1.98934e-14
2.34968e-14
2.77185e-14
3.26585e-14
3.84318e-14
4.51703e-14
5.30248e-14
6.21681e-14
7.27969e-14
8.51357e-14
9.94395e-14
1.15998e-13
1.35138e-13
1.57231e-13
1.82696e-13
2.12002e-13
2.45679e-13
2.84321e-13
3.2859e-13
3.7923e-13
4.37064e-13
5.03012e-13
5.78091e-13
6.63428e-13
7.60265e-13
8.69971e-13
9.94049e-13
1.13415e-12
1.29206e-12
1.46975e-12
1.66935e-12
1.89316e-12
2.14367e-12
2.42358e-12
2.73575e-12
3.08327e-12
3.46944e-12
3.89774e-12
4.37188e-12
4.89575e-12
5.47348e-12
6.10934e-12
6.80782e-12
7.57356e-12
8.41134e-12
9.32611e-12
1.03229e-11
1.14067e-11
1.25829e-11
1.38564e-11
1.52325e-11
1.67161e-11
1.83123e-11
2.00257e-11
2.18608e-11
2.3822e-11
2.5913e-11
2.81372e-11
3.04978e-11
3.2997e-11
3.56366e-11
3.84178e-11
4.13409e-11
4.44054e-11
4.761e-11
5.09525e-11
5.44295e-11
5.80368e-11
6.17689e-11
6.56195e-11
6.95809e-11
7.36442e-11
7.77997e-11
8.20363e-11
8.63417e-11
9.07028e-11
9.5105e-11
9.95332e-11
1.03971e-10
1.08401e-10
1.12806e-10
1.17166e-10
1.21463e-10
1.25677e-10
1.29788e-10
1.33775e-10
1.37619e-10
1.41299e-10
1.44796e-10
1.4809e-10
1.51162e-10
1.53995e-10
1.56569e-10
1.58871e-10
1.60883e-10
1.62594e-10
1.6399e-10
1.6506e-10
1.65797e-10
1.66192e-10
1.66241e-10
1.6594e-10
1.65288e-10
1.64286e-10
1.62936e-10
1.61245e-10
1.59219e-10
1.56867e-10
1.542e-10
1.51232e-10
1.47978e-10
1.44454e-10
1.4068e-10
1.36674e-10
1.32458e-10
1.28054e-10
1.23486e-10
1.18777e-10
1.13953e-10
1.09039e-10
1.04059e-10
9.90383e-11
9.40022e-11
8.8975e-11
8.39801e-11
7.90403e-11
7.41774e-11
6.94117e-11