/*--------------------------------*- C++ -*----------------------------------*\
| =========                 |                                                 |
| \\      /  F ield         | OpenFOAM: The Open Source CFD Toolbox           |
|  \\    /   O peration     | Version:  v2012                                 |
|   \\  /    A nd           | Website:  www.openfoam.com                      |
|    \\/     M anipulation  |                                                 |
\*---------------------------------------------------------------------------*/
FoamFile
{
    version     2.0;
    format      ascii;
    class       surfaceScalarField;
    location    "13";
    object      phi;
}
// * * * * * * * * * * * * * * * * * * * * * * * * * * * * * * * * * * * * * //

dimensions      [0 3 -1 0 0 0 0];
oriented        oriented;


internalField   nonuniform List<scalar> 
130560
(
3.53211e-06
-3.53211e-06
7.0644e-06
-3.53229e-06
1.0597e-05
-3.53265e-06
1.41302e-05
-3.53318e-06
1.76641e-05
-3.53389e-06
2.11989e-05
-3.53478e-06
2.47347e-05
-3.53583e-06
2.82718e-05
-3.53705e-06
3.18102e-05
-3.53844e-06
3.53502e-05
-3.53997e-06
3.88919e-05
-3.54166e-06
4.24354e-05
-3.5435e-06
4.59808e-05
-3.54547e-06
4.95284e-05
-3.54757e-06
5.30782e-05
-3.5498e-06
5.66303e-05
-3.55213e-06
6.01849e-05
-3.55457e-06
6.3742e-05
-3.5571e-06
6.73017e-05
-3.55972e-06
7.08641e-05
-3.5624e-06
7.44293e-05
-3.56514e-06
7.79972e-05
-3.56792e-06
8.15679e-05
-3.57073e-06
8.51415e-05
-3.57356e-06
8.87179e-05
-3.57639e-06
9.22971e-05
-3.5792e-06
9.5879e-05
-3.58197e-06
9.94637e-05
-3.5847e-06
0.000103051
-3.58735e-06
0.000106641
-3.58992e-06
0.000110233
-3.59237e-06
0.000113828
-3.5947e-06
0.000117425
-3.59687e-06
0.000121024
-3.59887e-06
0.000124624
-3.60066e-06
0.000128227
-3.60224e-06
0.00013183
-3.60357e-06
0.000135435
-3.60463e-06
0.00013904
-3.60539e-06
0.000142646
-3.60582e-06
0.000146252
-3.6059e-06
0.000149858
-3.6056e-06
0.000153463
-3.60488e-06
0.000157066
-3.60373e-06
0.000160668
-3.60209e-06
0.000164268
-3.59996e-06
0.000167866
-3.59729e-06
0.00017146
-3.59405e-06
0.00017505
-3.59021e-06
0.000178636
-3.58573e-06
0.000182216
-3.58058e-06
0.000185791
-3.57473e-06
0.000189359
-3.56814e-06
0.00019292
-3.56077e-06
0.000196472
-3.55259e-06
0.000200016
-3.54357e-06
0.00020355
-3.53366e-06
0.000207072
-3.52283e-06
0.000210583
-3.51105e-06
0.000214082
-3.49827e-06
0.000217566
-3.48447e-06
0.000221036
-3.4696e-06
0.000224489
-3.45364e-06
0.000227926
-3.43654e-06
0.000231344
-3.41827e-06
0.000234743
-3.39879e-06
0.000238121
-3.37808e-06
0.000241477
-3.3561e-06
0.00024481
-3.33282e-06
0.000248118
-3.30821e-06
0.000251401
-3.28224e-06
0.000254655
-3.25487e-06
0.000257881
-3.22609e-06
0.000261077
-3.19586e-06
0.000264242
-3.16417e-06
0.000267372
-3.13098e-06
0.000270469
-3.09629e-06
0.000273529
-3.06006e-06
0.000276551
-3.02229e-06
0.000279534
-2.98295e-06
0.000282476
-2.94204e-06
0.000285376
-2.89955e-06
0.000288231
-2.85546e-06
0.000291041
-2.80977e-06
0.000293803
-2.76248e-06
0.000296517
-2.71359e-06
0.00029918
-2.6631e-06
0.000301791
-2.61101e-06
0.000304348
-2.55734e-06
0.000306851
-2.50208e-06
0.000309296
-2.44527e-06
0.000311683
-2.38691e-06
0.00031401
-2.32703e-06
0.000316275
-2.26564e-06
0.000318478
-2.20277e-06
0.000320617
-2.13845e-06
0.000322689
-2.07272e-06
0.000324695
-2.00561e-06
0.000326632
-1.93714e-06
0.000328499
-1.86738e-06
0.000330296
-1.79635e-06
0.00033202
-1.72411e-06
0.000333671
-1.6507e-06
0.000335247
-1.57617e-06
0.000336747
-1.50058e-06
0.000338171
-1.42399e-06
0.000339518
-1.34644e-06
0.000340786
-1.26801e-06
0.000341975
-1.18875e-06
0.000343083
-1.10873e-06
0.000344111
-1.02802e-06
0.000345058
-9.46675e-07
0.000345923
-8.6477e-07
0.000346705
-7.82374e-07
0.000347405
-6.99557e-07
0.000348021
-6.16392e-07
0.000348554
-5.32948e-07
0.000349003
-4.493e-07
0.000349369
-3.6552e-07
0.000349651
-2.81679e-07
0.000349848
-1.97852e-07
0.000349962
-1.14109e-07
0.000349993
-3.05221e-08
0.00034994
5.28372e-08
0.000349804
1.35899e-07
0.000349586
2.18594e-07
0.000349285
3.00856e-07
0.000348902
3.82616e-07
0.000348438
4.6381e-07
0.000347894
5.44375e-07
0.00034727
6.24249e-07
0.000346566
7.03373e-07
0.000345785
7.81688e-07
0.000344926
8.59139e-07
0.00034399
9.35673e-07
0.000342979
1.01124e-06
0.000341893
1.08579e-06
0.000340734
1.15927e-06
0.000339502
1.23165e-06
0.000338199
1.30288e-06
0.000336826
1.37292e-06
0.000335384
1.44174e-06
0.000333875
1.5093e-06
0.0003323
1.57558e-06
0.000330659
1.64054e-06
0.000328955
1.70416e-06
0.000327188
1.76642e-06
0.000325361
1.82729e-06
0.000323474
1.88676e-06
0.00032153
1.94482e-06
0.000319528
2.00145e-06
0.000317471
2.05664e-06
0.000315361
2.11038e-06
0.000313198
2.16267e-06
0.000310985
2.21351e-06
0.000308722
2.26289e-06
0.000306411
2.31082e-06
0.000304054
2.35729e-06
0.000301652
2.40232e-06
0.000299206
2.44591e-06
0.000296718
2.48808e-06
0.000294189
2.52882e-06
0.000291621
2.56815e-06
0.000289015
2.60609e-06
0.000286372
2.64266e-06
0.000283694
2.67786e-06
0.000280982
2.71172e-06
0.000278238
2.74426e-06
0.000275463
2.77549e-06
0.000272657
2.80543e-06
0.000269823
2.83412e-06
0.000266961
2.86157e-06
0.000264074
2.88781e-06
0.000261161
2.91285e-06
0.000258224
2.93674e-06
0.000255265
2.95948e-06
0.000252283
2.98111e-06
0.000249282
3.00166e-06
0.000246261
3.02114e-06
0.000243221
3.0396e-06
0.000240164
3.05705e-06
0.00023709
3.07353e-06
0.000234001
3.08906e-06
0.000230898
3.10367e-06
0.00022778
3.11738e-06
0.00022465
3.13023e-06
0.000221508
3.14225e-06
0.000218354
3.15345e-06
0.000215191
3.16387e-06
0.000212017
3.17354e-06
0.000208834
3.18249e-06
0.000205644
3.19073e-06
0.000202445
3.1983e-06
0.00019924
3.20522e-06
0.000196029
3.21152e-06
0.000192811
3.21723e-06
0.000189589
3.22237e-06
0.000186362
3.22696e-06
0.000183131
3.23103e-06
0.000179897
3.2346e-06
0.000176659
3.2377e-06
0.000173418
3.24035e-06
0.000170176
3.24258e-06
0.000166932
3.24439e-06
0.000163686
3.24583e-06
0.000160439
3.2469e-06
0.000157191
3.24764e-06
0.000153943
3.24805e-06
0.000150695
3.24816e-06
0.000147447
3.24799e-06
0.000144199
3.24756e-06
0.000140952
3.24688e-06
0.000137707
3.24598e-06
0.000134462
3.24487e-06
0.000131218
3.24356e-06
0.000127976
3.24208e-06
0.000124736
3.24044e-06
0.000121497
3.23866e-06
0.00011826
3.23674e-06
0.000115025
3.23471e-06
0.000111793
3.23258e-06
0.000108563
3.23036e-06
0.000105334
3.22807e-06
0.000102109
3.22572e-06
9.88854e-05
3.22331e-06
9.56645e-05
3.22087e-06
9.24462e-05
3.2184e-06
8.92302e-05
3.21591e-06
8.60168e-05
3.21342e-06
8.28059e-05
3.21093e-06
7.95974e-05
3.20846e-06
7.63914e-05
3.20601e-06
7.31878e-05
3.20359e-06
6.99866e-05
3.20121e-06
6.67878e-05
3.19888e-06
6.35912e-05
3.1966e-06
6.03968e-05
3.19439e-06
5.72045e-05
3.19225e-06
5.40143e-05
3.19018e-06
5.08261e-05
3.18819e-06
4.76399e-05
3.1863e-06
4.44554e-05
3.18449e-06
4.12726e-05
3.18279e-06
3.80914e-05
3.18118e-06
3.49117e-05
3.17969e-06
3.17334e-05
3.1783e-06
2.85564e-05
3.17703e-06
2.53805e-05
3.17588e-06
2.22056e-05
3.17485e-06
1.90317e-05
3.17394e-06
1.58586e-05
3.17316e-06
1.26861e-05
3.1725e-06
9.51408e-06
3.17197e-06
6.3425e-06
3.17158e-06
3.17118e-06
3.17132e-06
3.17118e-06
3.53193e-06
-7.06404e-06
7.06405e-06
-7.0644e-06
1.05965e-05
-7.06512e-06
1.41295e-05
-7.06619e-06
1.76633e-05
-7.06762e-06
2.11979e-05
-7.06939e-06
2.47335e-05
-7.0715e-06
2.82704e-05
-7.07395e-06
3.18087e-05
-7.07672e-06
3.53485e-05
-7.0798e-06
3.88901e-05
-7.08319e-06
4.24334e-05
-7.08686e-06
4.59788e-05
-7.09081e-06
4.95262e-05
-7.09503e-06
5.30759e-05
-7.09948e-06
5.66279e-05
-7.10417e-06
6.01824e-05
-7.10905e-06
6.37394e-05
-7.11413e-06
6.72991e-05
-7.11937e-06
7.08614e-05
-7.12474e-06
7.44265e-05
-7.13023e-06
7.79944e-05
-7.13581e-06
8.15651e-05
-7.14145e-06
8.51387e-05
-7.14712e-06
8.87151e-05
-7.15279e-06
9.22943e-05
-7.15843e-06
9.58764e-05
-7.164e-06
9.94611e-05
-7.16947e-06
0.000103049
-7.17479e-06
0.000106639
-7.17994e-06
0.000110231
-7.18487e-06
0.000113826
-7.18954e-06
0.000117423
-7.19391e-06
0.000121022
-7.19793e-06
0.000124623
-7.20155e-06
0.000128225
-7.20473e-06
0.000131829
-7.20742e-06
0.000135434
-7.20956e-06
0.00013904
-7.21111e-06
0.000142646
-7.212e-06
0.000146252
-7.21219e-06
0.000149858
-7.21161e-06
0.000153464
-7.21021e-06
0.000157068
-7.20792e-06
0.000160671
-7.20469e-06
0.000164271
-7.20046e-06
0.000167869
-7.19515e-06
0.000171464
-7.1887e-06
0.000175054
-7.18105e-06
0.000178641
-7.17213e-06
0.000182222
-7.16187e-06
0.000185798
-7.1502e-06
0.000189366
-7.13705e-06
0.000192928
-7.12235e-06
0.000196481
-7.10603e-06
0.000200026
-7.08801e-06
0.000203561
-7.06823e-06
0.000207084
-7.04661e-06
0.000210596
-7.02308e-06
0.000214096
-6.99757e-06
0.000217581
-6.97e-06
0.000221052
-6.9403e-06
0.000224507
-6.9084e-06
0.000227944
-6.87424e-06
0.000231364
-6.83773e-06
0.000234764
-6.79882e-06
0.000238143
-6.75744e-06
0.000241501
-6.71351e-06
0.000244835
-6.66698e-06
0.000248144
-6.61778e-06
0.000251428
-6.56586e-06
0.000254684
-6.51116e-06
0.000257912
-6.45362e-06
0.000261109
-6.39319e-06
0.000264275
-6.32983e-06
0.000267407
-6.26348e-06
0.000270505
-6.19411e-06
0.000273567
-6.12167e-06
0.000276591
-6.04614e-06
0.000279575
-5.96748e-06
0.000282519
-5.88567e-06
0.00028542
-5.80069e-06
0.000288277
-5.71252e-06
0.000291088
-5.62114e-06
0.000293852
-5.52657e-06
0.000296568
-5.42878e-06
0.000299232
-5.32779e-06
0.000301845
-5.2236e-06
0.000304404
-5.11624e-06
0.000306907
-5.00573e-06
0.000309354
-4.89209e-06
0.000311743
-4.77535e-06
0.000314071
-4.65555e-06
0.000316338
-4.53275e-06
0.000318542
-4.40699e-06
0.000320682
-4.27832e-06
0.000322756
-4.14682e-06
0.000324763
-4.01255e-06
0.000326702
-3.87559e-06
0.00032857
-3.73602e-06
0.000330368
-3.59391e-06
0.000332093
-3.44938e-06
0.000333745
-3.30251e-06
0.000335322
-3.1534e-06
0.000336824
-3.00217e-06
0.000338249
-2.84892e-06
0.000339596
-2.69377e-06
0.000340865
-2.53685e-06
0.000342055
-2.37827e-06
0.000343164
-2.21816e-06
0.000344193
-2.05667e-06
0.00034514
-1.89391e-06
0.000346005
-1.73003e-06
0.000346788
-1.56517e-06
0.000347488
-1.39946e-06
0.000348104
-1.23306e-06
0.000348638
-1.0661e-06
0.000349087
-8.9873e-07
0.000349453
-7.31097e-07
0.000349734
-5.63343e-07
0.000349932
-3.95616e-07
0.000350046
-2.28058e-07
0.000350076
-6.08142e-08
0.000350023
1.05974e-07
0.000349887
2.72167e-07
0.000349668
4.37626e-07
0.000349366
6.02215e-07
0.000348983
7.658e-07
0.000348519
9.28252e-07
0.000347974
1.08944e-06
0.000347349
1.24925e-06
0.000346645
1.40756e-06
0.000345862
1.56424e-06
0.000345002
1.7192e-06
0.000344065
1.87232e-06
0.000343053
2.0235e-06
0.000341966
2.17264e-06
0.000340806
2.31965e-06
0.000339573
2.46445e-06
0.000338269
2.60695e-06
0.000336895
2.74707e-06
0.000335452
2.88474e-06
0.000333941
3.01989e-06
0.000332364
3.15247e-06
0.000330722
3.28242e-06
0.000329017
3.40968e-06
0.000327249
3.53422e-06
0.00032542
3.65598e-06
0.000323532
3.77494e-06
0.000321586
3.89107e-06
0.000319583
4.00433e-06
0.000317525
4.11472e-06
0.000315413
4.22221e-06
0.000313249
4.3268e-06
0.000311034
4.42847e-06
0.00030877
4.52724e-06
0.000306458
4.62309e-06
0.000304099
4.71603e-06
0.000301695
4.80609e-06
0.000299248
4.89326e-06
0.000296758
4.97757e-06
0.000294228
5.05904e-06
0.000291658
5.1377e-06
0.000289051
5.21357e-06
0.000286407
5.28668e-06
0.000283728
5.35707e-06
0.000281015
5.42477e-06
0.000278269
5.48982e-06
0.000275492
5.55226e-06
0.000272686
5.61213e-06
0.00026985
5.66948e-06
0.000266987
5.72436e-06
0.000264098
5.7768e-06
0.000261184
5.82687e-06
0.000258247
5.87461e-06
0.000255286
5.92007e-06
0.000252304
5.96331e-06
0.000249301
6.00437e-06
0.000246279
6.04332e-06
0.000243238
6.0802e-06
0.00024018
6.11508e-06
0.000237106
6.14801e-06
0.000234016
6.17904e-06
0.000230911
6.20822e-06
0.000227793
6.23563e-06
0.000224662
6.2613e-06
0.000221519
6.2853e-06
0.000218365
6.30768e-06
0.0002152
6.3285e-06
0.000212026
6.34781e-06
0.000208843
6.36567e-06
0.000205651
6.38213e-06
0.000202452
6.39724e-06
0.000199246
6.41106e-06
0.000196034
6.42364e-06
0.000192816
6.43503e-06
0.000189594
6.44527e-06
0.000186366
6.45443e-06
0.000183135
6.46255e-06
0.0001799
6.46967e-06
0.000176661
6.47585e-06
0.000173421
6.48113e-06
0.000170178
6.48555e-06
0.000166933
6.48917e-06
0.000163687
6.49202e-06
0.000160439
6.49415e-06
0.000157191
6.49559e-06
0.000153943
6.4964e-06
0.000150695
6.4966e-06
0.000147446
6.49624e-06
0.000144199
6.49536e-06
0.000140951
6.49399e-06
0.000137705
6.49216e-06
0.00013446
6.48992e-06
0.000131217
6.4873e-06
0.000127974
6.48432e-06
0.000124734
6.48103e-06
0.000121495
6.47744e-06
0.000118258
6.4736e-06
0.000115023
6.46952e-06
0.000111791
6.46525e-06
0.00010856
6.4608e-06
0.000105332
6.4562e-06
0.000102106
6.45148e-06
9.88829e-05
6.44666e-06
9.5662e-05
6.44176e-06
9.24436e-05
6.43681e-06
8.92277e-05
6.43182e-06
8.60143e-05
6.42683e-06
8.28034e-05
6.42185e-06
7.95949e-05
6.41689e-06
7.63889e-05
6.41198e-06
7.31854e-05
6.40713e-06
6.99842e-05
6.40237e-06
6.67854e-05
6.3977e-06
6.35889e-05
6.39314e-06
6.03946e-05
6.38871e-06
5.72024e-05
6.38441e-06
5.40123e-05
6.38027e-06
5.08242e-05
6.3763e-06
4.7638e-05
6.3725e-06
4.44536e-05
6.36888e-06
4.12709e-05
6.36547e-06
3.80899e-05
6.36226e-06
3.49103e-05
6.35926e-06
3.17321e-05
6.35649e-06
2.85552e-05
6.35394e-06
2.53794e-05
6.35163e-06
2.22047e-05
6.34957e-06
1.90309e-05
6.34775e-06
1.58579e-05
6.34618e-06
1.26855e-05
6.34487e-06
9.51368e-06
6.34381e-06
6.34223e-06
6.34302e-06
3.17105e-06
6.3425e-06
6.34224e-06
3.53157e-06
-1.05956e-05
7.06333e-06
-1.05962e-05
1.05954e-05
-1.05972e-05
1.41281e-05
-1.05989e-05
1.76615e-05
-1.0601e-05
2.11957e-05
-1.06037e-05
2.47311e-05
-1.06068e-05
2.82676e-05
-1.06105e-05
3.18056e-05
-1.06147e-05
3.53451e-05
-1.06193e-05
3.88864e-05
-1.06244e-05
4.24295e-05
-1.06299e-05
4.59745e-05
-1.06359e-05
4.95217e-05
-1.06422e-05
5.30712e-05
-1.06489e-05
5.6623e-05
-1.0656e-05
6.01773e-05
-1.06633e-05
6.37342e-05
-1.0671e-05
6.72937e-05
-1.06789e-05
7.08559e-05
-1.0687e-05
7.44209e-05
-1.06952e-05
7.79888e-05
-1.07036e-05
8.15595e-05
-1.07121e-05
8.5133e-05
-1.07207e-05
8.87095e-05
-1.07292e-05
9.22888e-05
-1.07377e-05
9.58709e-05
-1.07461e-05
9.94558e-05
-1.07544e-05
0.000103043
-1.07624e-05
0.000106634
-1.07702e-05
0.000110226
-1.07776e-05
0.000113822
-1.07847e-05
0.000117419
-1.07913e-05
0.000121018
-1.07974e-05
0.00012462
-1.08029e-05
0.000128223
-1.08077e-05
0.000131827
-1.08118e-05
0.000135433
-1.08151e-05
0.000139039
-1.08175e-05
0.000142646
-1.08189e-05
0.000146253
-1.08192e-05
0.00014986
-1.08184e-05
0.000153466
-1.08164e-05
0.000157071
-1.08131e-05
0.000160675
-1.08083e-05
0.000164276
-1.0802e-05
0.000167875
-1.07941e-05
0.000171471
-1.07846e-05
0.000175063
-1.07732e-05
0.000178651
-1.07599e-05
0.000182234
-1.07446e-05
0.000185811
-1.07272e-05
0.000189381
-1.07075e-05
0.000192944
-1.06856e-05
0.000196499
-1.06612e-05
0.000200046
-1.06342e-05
0.000203582
-1.06046e-05
0.000207108
-1.05723e-05
0.000210622
-1.05371e-05
0.000214123
-1.04989e-05
0.000217611
-1.04577e-05
0.000221084
-1.04132e-05
0.000224541
-1.03654e-05
0.000227981
-1.03143e-05
0.000231403
-1.02596e-05
0.000234805
-1.02013e-05
0.000238187
-1.01393e-05
0.000241547
-1.00735e-05
0.000244884
-1.00038e-05
0.000248196
-9.93008e-06
0.000251483
-9.85227e-06
0.000254742
-9.77029e-06
0.000257972
-9.68404e-06
0.000261172
-9.59346e-06
0.000264341
-9.49847e-06
0.000267477
-9.399e-06
0.000270577
-9.29499e-06
0.000273642
-9.18638e-06
0.000276669
-9.07312e-06
0.000279657
-8.95516e-06
0.000282604
-8.83248e-06
0.000285508
-8.70502e-06
0.000288368
-8.57278e-06
0.000291183
-8.43573e-06
0.00029395
-8.29386e-06
0.000296669
-8.14717e-06
0.000299336
-7.99567e-06
0.000301952
-7.83938e-06
0.000304514
-7.67831e-06
0.000307021
-7.5125e-06
0.000309471
-7.342e-06
0.000311862
-7.16684e-06
0.000314194
-6.98709e-06
0.000316464
-6.80282e-06
0.000318671
-6.61411e-06
0.000320814
-6.42103e-06
0.000322891
-6.22369e-06
0.0003249
-6.0222e-06
0.000326841
-5.81665e-06
0.000328713
-5.60718e-06
0.000330513
-5.39391e-06
0.00033224
-5.17699e-06
0.000333894
-4.95655e-06
0.000335474
-4.73276e-06
0.000336977
-4.50577e-06
0.000338404
-4.27575e-06
0.000339753
-4.04288e-06
0.000341024
-3.80733e-06
0.000342215
-3.56931e-06
0.000343325
-3.32899e-06
0.000344355
-3.08657e-06
0.000345304
-2.84226e-06
0.00034617
-2.59627e-06
0.000346954
-2.3488e-06
0.000347654
-2.10007e-06
0.000348271
-1.85028e-06
0.000348805
-1.59966e-06
0.000349255
-1.34843e-06
0.00034962
-1.09679e-06
0.000349902
-8.44983e-07
0.0003501
-5.93211e-07
0.000350213
-3.41696e-07
0.000350243
-9.06521e-08
0.000350189
1.59706e-07
0.000350052
4.09168e-07
0.000349832
6.57526e-07
0.00034953
9.04575e-07
0.000349146
1.15012e-06
0.00034868
1.39395e-06
0.000348134
1.6359e-06
0.000347507
1.87576e-06
0.000346801
2.11336e-06
0.000346017
2.34853e-06
0.000345155
2.58109e-06
0.000344217
2.8109e-06
0.000343202
3.03779e-06
0.000342113
3.26162e-06
0.000340951
3.48225e-06
0.000339716
3.69955e-06
0.000338409
3.91339e-06
0.000337033
4.12366e-06
0.000335587
4.33025e-06
0.000334074
4.53306e-06
0.000332494
4.732e-06
0.00033085
4.92698e-06
0.000329142
5.11793e-06
0.000327371
5.30479e-06
0.00032554
5.48748e-06
0.000323648
5.66595e-06
0.000321699
5.84018e-06
0.000319694
6.0101e-06
0.000317633
6.1757e-06
0.000315518
6.33695e-06
0.000313351
6.49384e-06
0.000311133
6.64635e-06
0.000308866
6.79449e-06
0.000306551
6.93826e-06
0.000304189
7.07767e-06
0.000301782
7.21273e-06
0.000299332
7.34347e-06
0.00029684
7.46991e-06
0.000294307
7.59208e-06
0.000291734
7.71003e-06
0.000289124
7.8238e-06
0.000286477
7.93342e-06
0.000283795
8.03896e-06
0.00028108
8.14046e-06
0.000278332
8.23799e-06
0.000275552
8.33159e-06
0.000272743
8.42135e-06
0.000269905
8.50732e-06
0.00026704
8.58957e-06
0.000264149
8.66818e-06
0.000261232
8.74322e-06
0.000258292
8.81476e-06
0.000255329
8.88289e-06
0.000252345
8.94767e-06
0.00024934
9.00921e-06
0.000246316
9.06756e-06
0.000243273
9.12282e-06
0.000240213
9.17506e-06
0.000237137
9.22438e-06
0.000234045
9.27085e-06
0.000230939
9.31457e-06
0.000227819
9.3556e-06
0.000224686
9.39404e-06
0.000221541
9.42997e-06
0.000218386
9.46348e-06
0.000215219
9.49464e-06
0.000212044
9.52354e-06
0.000208859
9.55026e-06
0.000205666
9.57488e-06
0.000202466
9.59748e-06
0.000199259
9.61815e-06
0.000196046
9.63695e-06
0.000192827
9.65397e-06
0.000189603
9.66928e-06
0.000186374
9.68295e-06
0.000183142
9.69506e-06
0.000179906
9.70569e-06
0.000176667
9.7149e-06
0.000173425
9.72276e-06
0.000170181
9.72934e-06
0.000166936
9.73471e-06
0.000163689
9.73893e-06
0.000160441
9.74207e-06
0.000157192
9.74419e-06
0.000153943
9.74535e-06
0.000150694
9.74561e-06
0.000147446
9.74502e-06
0.000144197
9.74365e-06
0.00014095
9.74155e-06
0.000137703
9.73877e-06
0.000134458
9.73537e-06
0.000131214
9.73139e-06
0.000127971
9.72688e-06
0.00012473
9.7219e-06
0.000121491
9.71649e-06
0.000118254
9.71068e-06
0.000115019
9.70454e-06
0.000111786
9.69809e-06
0.000108556
9.69139e-06
0.000105327
9.68446e-06
0.000102101
9.67734e-06
9.8878e-05
9.67008e-06
9.56571e-05
9.6627e-06
9.24386e-05
9.65525e-06
8.92227e-05
9.64775e-06
8.60093e-05
9.64023e-06
8.27984e-05
9.63273e-06
7.959e-05
9.62528e-06
7.63841e-05
9.61789e-06
7.31807e-05
9.6106e-06
6.99796e-05
9.60343e-06
6.67809e-05
9.5964e-06
6.35845e-05
9.58955e-06
6.03903e-05
9.58288e-06
5.71983e-05
9.57643e-06
5.40084e-05
9.5702e-06
5.08204e-05
9.56423e-06
4.76344e-05
9.55851e-06
4.44502e-05
9.55308e-06
4.12677e-05
9.54794e-06
3.80869e-05
9.54312e-06
3.49075e-05
9.53861e-06
3.17296e-05
9.53444e-06
2.85529e-05
9.53062e-06
2.53774e-05
9.52715e-06
2.22029e-05
9.52404e-06
1.90293e-05
9.52131e-06
1.58566e-05
9.51895e-06
1.26845e-05
9.51698e-06
9.51289e-06
9.51539e-06
6.34171e-06
9.51421e-06
3.17079e-06
9.51342e-06
9.51302e-06
3.53103e-06
-1.41266e-05
7.06224e-06
-1.41274e-05
1.05938e-05
-1.41288e-05
1.41259e-05
-1.4131e-05
1.76588e-05
-1.41338e-05
2.11926e-05
-1.41374e-05
2.47274e-05
-1.41417e-05
2.82635e-05
-1.41466e-05
3.1801e-05
-1.41522e-05
3.534e-05
-1.41584e-05
3.88808e-05
-1.41652e-05
4.24235e-05
-1.41726e-05
4.59682e-05
-1.41806e-05
4.9515e-05
-1.41891e-05
5.30641e-05
-1.41981e-05
5.66156e-05
-1.42075e-05
6.01697e-05
-1.42174e-05
6.37263e-05
-1.42276e-05
6.72856e-05
-1.42382e-05
7.08476e-05
-1.4249e-05
7.44125e-05
-1.42601e-05
7.79802e-05
-1.42714e-05
8.15509e-05
-1.42828e-05
8.51244e-05
-1.42942e-05
8.87009e-05
-1.43057e-05
9.22803e-05
-1.43171e-05
9.58626e-05
-1.43284e-05
9.94477e-05
-1.43395e-05
0.000103036
-1.43503e-05
0.000106626
-1.43608e-05
0.000110219
-1.43708e-05
0.000113815
-1.43803e-05
0.000117413
-1.43892e-05
0.000121013
-1.43974e-05
0.000124615
-1.44049e-05
0.000128219
-1.44114e-05
0.000131824
-1.4417e-05
0.00013543
-1.44215e-05
0.000139038
-1.44248e-05
0.000142645
-1.44268e-05
0.000146254
-1.44274e-05
0.000149862
-1.44265e-05
0.000153469
-1.44239e-05
0.000157076
-1.44196e-05
0.000160681
-1.44134e-05
0.000164284
-1.44052e-05
0.000167885
-1.43948e-05
0.000171483
-1.43822e-05
0.000175077
-1.43672e-05
0.000178666
-1.43496e-05
0.000182251
-1.43294e-05
0.00018583
-1.43063e-05
0.000189403
-1.42803e-05
0.000192969
-1.42512e-05
0.000196526
-1.42188e-05
0.000200075
-1.41831e-05
0.000203614
-1.41438e-05
0.000207143
-1.41009e-05
0.00021066
-1.40541e-05
0.000214164
-1.40034e-05
0.000217655
-1.39485e-05
0.000221131
-1.38894e-05
0.000224592
-1.38259e-05
0.000228035
-1.37578e-05
0.000231461
-1.36851e-05
0.000234867
-1.36075e-05
0.000238253
-1.3525e-05
0.000241617
-1.34374e-05
0.000244958
-1.33446e-05
0.000248274
-1.32465e-05
0.000251565
-1.31429e-05
0.000254828
-1.30337e-05
0.000258063
-1.29188e-05
0.000261267
-1.27981e-05
0.000264441
-1.26716e-05
0.000267581
-1.25391e-05
0.000270686
-1.24005e-05
0.000273755
-1.22557e-05
0.000276787
-1.21048e-05
0.00027978
-1.19476e-05
0.000282731
-1.1784e-05
0.00028564
-1.16141e-05
0.000288505
-1.14378e-05
0.000291325
-1.12551e-05
0.000294097
-1.1066e-05
0.00029682
-1.08704e-05
0.000299493
-1.06684e-05
0.000302113
-1.04599e-05
0.00030468
-1.02451e-05
0.000307192
-1.0024e-05
0.000309646
-9.79656e-06
0.000312042
-9.56292e-06
0.000314378
-9.32315e-06
0.000316653
-9.07734e-06
0.000318864
-8.82559e-06
0.000321011
-8.56801e-06
0.000323092
-8.30473e-06
0.000325106
-8.03589e-06
0.000327051
-7.76164e-06
0.000328926
-7.48214e-06
0.00033073
-7.19757e-06
0.000332461
-6.90811e-06
0.000334118
-6.61396e-06
0.000335701
-6.31532e-06
0.000337207
-6.0124e-06
0.000338637
-5.70544e-06
0.000339989
-5.39466e-06
0.000341262
-5.08031e-06
0.000342455
-4.76264e-06
0.000343568
-4.44191e-06
0.0003446
-4.11837e-06
0.00034555
-3.79231e-06
0.000346418
-3.46399e-06
0.000347202
-3.1337e-06
0.000347904
-2.80172e-06
0.000348522
-2.46834e-06
0.000349056
-2.13384e-06
0.000349506
-1.79852e-06
0.000349872
-1.46267e-06
0.000350154
-1.12659e-06
0.000350351
-7.90552e-07
0.000350464
-4.54863e-07
0.000350494
-1.19806e-07
0.000350439
2.14332e-07
0.000350301
5.47271e-07
0.00035008
8.78733e-07
0.000349776
1.20844e-06
0.00034939
1.53614e-06
0.000348922
1.86155e-06
0.000348374
2.18442e-06
0.000347745
2.50452e-06
0.000347037
2.82159e-06
0.00034625
3.13541e-06
0.000345385
3.44575e-06
0.000344444
3.75239e-06
0.000343426
4.05514e-06
0.000342334
4.3538e-06
0.000341168
4.64818e-06
0.00033993
4.9381e-06
0.00033862
5.2234e-06
0.000337239
5.50393e-06
0.00033579
5.77954e-06
0.000334273
6.0501e-06
0.000332689
6.31548e-06
0.000331041
6.57558e-06
0.000329329
6.83029e-06
0.000327554
7.07951e-06
0.000325718
7.32318e-06
0.000323823
7.56123e-06
0.000321869
7.79358e-06
0.000319859
8.02019e-06
0.000317794
8.24103e-06
0.000315675
8.45605e-06
0.000313503
8.66525e-06
0.000311281
8.86861e-06
0.00030901
9.06612e-06
0.00030669
9.25779e-06
0.000304324
9.44365e-06
0.000301913
9.62369e-06
0.000299459
9.79797e-06
0.000296962
9.96651e-06
0.000294425
1.01294e-05
0.000291848
1.02866e-05
0.000289234
1.04382e-05
0.000286583
1.05843e-05
0.000283897
1.07249e-05
0.000281177
1.08601e-05
0.000278425
1.09901e-05
0.000275642
1.11148e-05
0.000272829
1.12344e-05
0.000269988
1.13489e-05
0.000267119
1.14584e-05
0.000264224
1.15631e-05
0.000261304
1.16631e-05
0.00025836
1.17583e-05
0.000255394
1.1849e-05
0.000252407
1.19353e-05
0.000249399
1.20172e-05
0.000246371
1.20949e-05
0.000243326
1.21684e-05
0.000240263
1.2238e-05
0.000237184
1.23036e-05
0.000234089
1.23654e-05
0.00023098
1.24236e-05
0.000227857
1.24782e-05
0.000224722
1.25293e-05
0.000221575
1.25771e-05
0.000218417
1.26216e-05
0.000215248
1.2663e-05
0.000212071
1.27014e-05
0.000208884
1.27369e-05
0.000205689
1.27697e-05
0.000202487
1.27997e-05
0.000199278
1.28271e-05
0.000196063
1.2852e-05
0.000192842
1.28746e-05
0.000189617
1.28949e-05
0.000186386
1.2913e-05
0.000183152
1.29291e-05
0.000179915
1.29431e-05
0.000176675
1.29553e-05
0.000173432
1.29657e-05
0.000170187
1.29743e-05
0.00016694
1.29814e-05
0.000163692
1.29869e-05
0.000160443
1.2991e-05
0.000157194
1.29937e-05
0.000153944
1.29952e-05
0.000150694
1.29955e-05
0.000147444
1.29946e-05
0.000144195
1.29927e-05
0.000140947
1.29898e-05
0.0001377
1.2986e-05
0.000134454
1.29814e-05
0.000131209
1.2976e-05
0.000127966
1.29699e-05
0.000124725
1.29632e-05
0.000121485
1.29559e-05
0.000118248
1.29481e-05
0.000115013
1.29399e-05
0.00011178
1.29312e-05
0.000108549
1.29222e-05
0.00010532
1.29129e-05
0.000102094
1.29034e-05
9.88707e-05
1.28936e-05
9.56497e-05
1.28837e-05
9.24312e-05
1.28737e-05
8.92153e-05
1.28637e-05
8.60019e-05
1.28536e-05
8.2791e-05
1.28436e-05
7.95827e-05
1.28336e-05
7.63769e-05
1.28237e-05
7.31735e-05
1.28139e-05
6.99726e-05
1.28043e-05
6.67741e-05
1.27949e-05
6.35779e-05
1.27858e-05
6.03839e-05
1.27769e-05
5.71921e-05
1.27682e-05
5.40024e-05
1.27599e-05
5.08147e-05
1.27519e-05
4.7629e-05
1.27442e-05
4.44451e-05
1.2737e-05
4.12629e-05
1.27301e-05
3.80824e-05
1.27237e-05
3.49034e-05
1.27176e-05
3.17258e-05
1.27121e-05
2.85494e-05
1.27069e-05
2.53743e-05
1.27023e-05
2.22002e-05
1.26981e-05
1.9027e-05
1.26945e-05
1.58546e-05
1.26913e-05
1.26829e-05
1.26887e-05
9.5117e-06
1.26866e-05
6.34091e-06
1.2685e-05
3.17039e-06
1.26839e-05
1.26834e-05
3.5303e-06
-1.76569e-05
7.06079e-06
-1.76579e-05
1.05917e-05
-1.76597e-05
1.41231e-05
-1.76624e-05
1.76552e-05
-1.7666e-05
2.11883e-05
-1.76705e-05
2.47224e-05
-1.76758e-05
2.82579e-05
-1.7682e-05
3.17947e-05
-1.7689e-05
3.53332e-05
-1.76968e-05
3.88734e-05
-1.77054e-05
4.24155e-05
-1.77147e-05
4.59597e-05
-1.77247e-05
4.9506e-05
-1.77354e-05
5.30547e-05
-1.77467e-05
5.66058e-05
-1.77586e-05
6.01594e-05
-1.7771e-05
6.37157e-05
-1.77839e-05
6.72747e-05
-1.77972e-05
7.08365e-05
-1.78108e-05
7.44012e-05
-1.78248e-05
7.79688e-05
-1.7839e-05
8.15394e-05
-1.78534e-05
8.51129e-05
-1.78678e-05
8.86895e-05
-1.78823e-05
9.2269e-05
-1.78966e-05
9.58515e-05
-1.79109e-05
9.94369e-05
-1.79249e-05
0.000103025
-1.79385e-05
0.000106616
-1.79518e-05
0.00011021
-1.79645e-05
0.000113806
-1.79765e-05
0.000117405
-1.79878e-05
0.000121005
-1.79983e-05
0.000124608
-1.80077e-05
0.000128213
-1.80161e-05
0.000131819
-1.80233e-05
0.000135427
-1.80291e-05
0.000139035
-1.80335e-05
0.000142645
-1.80362e-05
0.000146255
-1.80371e-05
0.000149864
-1.80362e-05
0.000153474
-1.80332e-05
0.000157082
-1.80281e-05
0.000160689
-1.80205e-05
0.000164294
-1.80105e-05
0.000167897
-1.79978e-05
0.000171497
-1.79823e-05
0.000175094
-1.79637e-05
0.000178686
-1.7942e-05
0.000182274
-1.7917e-05
0.000185856
-1.78884e-05
0.000189432
-1.78562e-05
0.000193001
-1.78201e-05
0.000196562
-1.77799e-05
0.000200114
-1.77355e-05
0.000203657
-1.76867e-05
0.00020719
-1.76333e-05
0.000210711
-1.75751e-05
0.000214219
-1.75119e-05
0.000217714
-1.74436e-05
0.000221195
-1.737e-05
0.00022466
-1.72909e-05
0.000228108
-1.72061e-05
0.000231538
-1.71154e-05
0.00023495
-1.70187e-05
0.00023834
-1.69158e-05
0.00024171
-1.68066e-05
0.000245056
-1.66908e-05
0.000248378
-1.65683e-05
0.000251674
-1.6439e-05
0.000254943
-1.63027e-05
0.000258183
-1.61594e-05
0.000261394
-1.60087e-05
0.000264573
-1.58507e-05
0.000267719
-1.56852e-05
0.000270831
-1.55121e-05
0.000273906
-1.53313e-05
0.000276944
-1.51427e-05
0.000279943
-1.49463e-05
0.000282901
-1.4742e-05
0.000285817
-1.45297e-05
0.000288688
-1.43093e-05
0.000291514
-1.4081e-05
0.000294292
-1.38445e-05
0.000297022
-1.36e-05
0.000299701
-1.33474e-05
0.000302328
-1.30869e-05
0.000304901
-1.28183e-05
0.000307419
-1.25417e-05
0.00030988
-1.22573e-05
0.000312282
-1.19651e-05
0.000314624
-1.16653e-05
0.000316905
-1.13578e-05
0.000319122
-1.10429e-05
0.000321274
-1.07207e-05
0.000323361
-1.03913e-05
0.00032538
-1.0055e-05
0.00032733
-9.71188e-06
0.00032921
-9.36218e-06
0.000331019
-9.00612e-06
0.000332755
-8.64393e-06
0.000334417
-8.27585e-06
0.000336004
-7.90215e-06
0.000337514
-7.52308e-06
0.000338948
-7.13894e-06
0.000340303
-6.75001e-06
0.000341579
-6.35661e-06
0.000342776
-5.95904e-06
0.000343892
-5.55763e-06
0.000344926
-5.15271e-06
0.000345878
-4.74461e-06
0.000346748
-4.33369e-06
0.000347534
-3.9203e-06
0.000348238
-3.50478e-06
0.000348857
-3.08751e-06
0.000349392
-2.66885e-06
0.000349842
-2.24915e-06
0.000350208
-1.82879e-06
0.00035049
-1.40814e-06
0.000350687
-9.87551e-07
0.0003508
-5.674e-07
0.000350828
-1.48045e-07
0.000350772
2.70157e-07
0.000350632
6.86851e-07
0.000350409
1.10169e-06
0.000350104
1.51433e-06
0.000349715
1.92443e-06
0.000349245
2.33167e-06
0.000348694
2.73574e-06
0.000348062
3.1363e-06
0.000347351
3.53308e-06
0.00034656
3.92577e-06
0.000345692
4.31409e-06
0.000344746
4.69779e-06
0.000343725
5.07659e-06
0.000342629
5.45026e-06
0.000341458
5.81856e-06
0.000340215
6.18127e-06
0.0003389
6.53819e-06
0.000337515
6.88912e-06
0.000336061
7.23388e-06
0.000334538
7.57231e-06
0.00033295
7.90425e-06
0.000331296
8.22956e-06
0.000329578
8.54811e-06
0.000327798
8.8598e-06
0.000325956
9.16452e-06
0.000324055
9.46218e-06
0.000322096
9.75272e-06
0.00032008
1.00361e-05
0.000318009
1.03122e-05
0.000315884
1.0581e-05
0.000313707
1.08425e-05
0.000311479
1.10967e-05
0.000309201
1.13436e-05
0.000306876
1.15832e-05
0.000304504
1.18154e-05
0.000302088
1.20404e-05
0.000299627
1.22582e-05
0.000297125
1.24688e-05
0.000294582
1.26723e-05
0.000292
1.28687e-05
0.00028938
1.30581e-05
0.000286724
1.32405e-05
0.000284032
1.34162e-05
0.000281307
1.35851e-05
0.00027855
1.37474e-05
0.000275762
1.39031e-05
0.000272944
1.40524e-05
0.000270097
1.41954e-05
0.000267224
1.43321e-05
0.000264324
1.44628e-05
0.000261399
1.45876e-05
0.000258451
1.47065e-05
0.000255481
1.48197e-05