/*--------------------------------*- C++ -*----------------------------------*\
| =========                 |                                                 |
| \\      /  F ield         | OpenFOAM: The Open Source CFD Toolbox           |
|  \\    /   O peration     | Version:  v2012                                 |
|   \\  /    A nd           | Website:  www.openfoam.com                      |
|    \\/     M anipulation  |                                                 |
\*---------------------------------------------------------------------------*/
FoamFile
{
    version     2.0;
    format      ascii;
    class       volVectorField;
    location    "13";
    object      Psi;
}
// * * * * * * * * * * * * * * * * * * * * * * * * * * * * * * * * * * * * * //

dimensions      [0 2 -1 0 0 0 0];


internalField   nonuniform List<vector> 
65536
(
(0 0 8.81547e-06)
(0 0 2.64469e-05)
(0 0 4.40797e-05)
(0 0 6.17148e-05)
(0 0 7.9353e-05)
(0 0 9.69953e-05)
(0 0 0.000114642)
(0 0 0.000132295)
(0 0 0.000149955)
(0 0 0.000167622)
(0 0 0.000185297)
(0 0 0.000202981)
(0 0 0.000220674)
(0 0 0.000238378)
(0 0 0.000256093)
(0 0 0.000273819)
(0 0 0.000291558)
(0 0 0.000309309)
(0 0 0.000327073)
(0 0 0.00034485)
(0 0 0.000362642)
(0 0 0.000380447)
(0 0 0.000398267)
(0 0 0.000416101)
(0 0 0.000433949)
(0 0 0.000451812)
(0 0 0.000469689)
(0 0 0.00048758)
(0 0 0.000505485)
(0 0 0.000523403)
(0 0 0.000541334)
(0 0 0.000559278)
(0 0 0.000577233)
(0 0 0.000595199)
(0 0 0.000613176)
(0 0 0.000631161)
(0 0 0.000649154)
(0 0 0.000667153)
(0 0 0.000685158)
(0 0 0.000703166)
(0 0 0.000721176)
(0 0 0.000739186)
(0 0 0.000757195)
(0 0 0.000775199)
(0 0 0.000793197)
(0 0 0.000811187)
(0 0 0.000829165)
(0 0 0.00084713)
(0 0 0.000865077)
(0 0 0.000883005)
(0 0 0.00090091)
(0 0 0.000918788)
(0 0 0.000936636)
(0 0 0.00095445)
(0 0 0.000972227)
(0 0 0.000989961)
(0 0 0.00100765)
(0 0 0.00102529)
(0 0 0.00104287)
(0 0 0.00106039)
(0 0 0.00107785)
(0 0 0.00109524)
(0 0 0.00111255)
(0 0 0.00112978)
(0 0 0.00114692)
(0 0 0.00116397)
(0 0 0.00118092)
(0 0 0.00119776)
(0 0 0.0012145)
(0 0 0.00123111)
(0 0 0.0012476)
(0 0 0.00126396)
(0 0 0.00128018)
(0 0 0.00129626)
(0 0 0.00131218)
(0 0 0.00132794)
(0 0 0.00134353)
(0 0 0.00135895)
(0 0 0.00137418)
(0 0 0.00138922)
(0 0 0.00140406)
(0 0 0.0014187)
(0 0 0.00143312)
(0 0 0.00144732)
(0 0 0.00146129)
(0 0 0.00147502)
(0 0 0.0014885)
(0 0 0.00150172)
(0 0 0.00151469)
(0 0 0.00152738)
(0 0 0.00153979)
(0 0 0.00155192)
(0 0 0.00156375)
(0 0 0.00157528)
(0 0 0.00158651)
(0 0 0.00159741)
(0 0 0.00160799)
(0 0 0.00161824)
(0 0 0.00162815)
(0 0 0.00163772)
(0 0 0.00164694)
(0 0 0.00165579)
(0 0 0.00166429)
(0 0 0.00167241)
(0 0 0.00168017)
(0 0 0.00168754)
(0 0 0.00169452)
(0 0 0.00170112)
(0 0 0.00170732)
(0 0 0.00171313)
(0 0 0.00171853)
(0 0 0.00172353)
(0 0 0.00172812)
(0 0 0.00173229)
(0 0 0.00173606)
(0 0 0.00173941)
(0 0 0.00174234)
(0 0 0.00174486)
(0 0 0.00174695)
(0 0 0.00174863)
(0 0 0.00174988)
(0 0 0.00175072)
(0 0 0.00175114)
(0 0 0.00175114)
(0 0 0.00175072)
(0 0 0.00174988)
(0 0 0.00174864)
(0 0 0.00174698)
(0 0 0.00174491)
(0 0 0.00174244)
(0 0 0.00173956)
(0 0 0.00173629)
(0 0 0.00173262)
(0 0 0.00172856)
(0 0 0.00172411)
(0 0 0.00171928)
(0 0 0.00171407)
(0 0 0.0017085)
(0 0 0.00170255)
(0 0 0.00169625)
(0 0 0.00168959)
(0 0 0.00168258)
(0 0 0.00167523)
(0 0 0.00166754)
(0 0 0.00165953)
(0 0 0.00165119)
(0 0 0.00164253)
(0 0 0.00163356)
(0 0 0.00162429)
(0 0 0.00161473)
(0 0 0.00160488)
(0 0 0.00159474)
(0 0 0.00158434)
(0 0 0.00157366)
(0 0 0.00156273)
(0 0 0.00155154)
(0 0 0.00154011)
(0 0 0.00152844)
(0 0 0.00151654)
(0 0 0.00150442)
(0 0 0.00149208)
(0 0 0.00147954)
(0 0 0.00146679)
(0 0 0.00145385)
(0 0 0.00144072)
(0 0 0.00142741)
(0 0 0.00141392)
(0 0 0.00140027)
(0 0 0.00138646)
(0 0 0.0013725)
(0 0 0.00135838)
(0 0 0.00134413)
(0 0 0.00132974)
(0 0 0.00131522)
(0 0 0.00130058)
(0 0 0.00128582)
(0 0 0.00127095)
(0 0 0.00125597)
(0 0 0.00124089)
(0 0 0.00122572)
(0 0 0.00121045)
(0 0 0.0011951)
(0 0 0.00117967)
(0 0 0.00116417)
(0 0 0.00114859)
(0 0 0.00113294)
(0 0 0.00111724)
(0 0 0.00110147)
(0 0 0.00108565)
(0 0 0.00106978)
(0 0 0.00105386)
(0 0 0.0010379)
(0 0 0.0010219)
(0 0 0.00100587)
(0 0 0.000989798)
(0 0 0.000973698)
(0 0 0.00095757)
(0 0 0.000941419)
(0 0 0.000925245)
(0 0 0.000909052)
(0 0 0.000892843)
(0 0 0.000876619)
(0 0 0.000860383)
(0 0 0.000844137)
(0 0 0.000827882)
(0 0 0.000811622)
(0 0 0.000795357)
(0 0 0.000779089)
(0 0 0.00076282)
(0 0 0.000746551)
(0 0 0.000730283)
(0 0 0.000714019)
(0 0 0.000697758)
(0 0 0.000681503)
(0 0 0.000665254)
(0 0 0.000649012)
(0 0 0.000632778)
(0 0 0.000616552)
(0 0 0.000600336)
(0 0 0.00058413)
(0 0 0.000567934)
(0 0 0.00055175)
(0 0 0.000535577)
(0 0 0.000519415)
(0 0 0.000503266)
(0 0 0.000487129)
(0 0 0.000471004)
(0 0 0.000454892)
(0 0 0.000438793)
(0 0 0.000422706)
(0 0 0.000406632)
(0 0 0.00039057)
(0 0 0.00037452)
(0 0 0.000358483)
(0 0 0.000342457)
(0 0 0.000326444)
(0 0 0.000310441)
(0 0 0.000294449)
(0 0 0.000278469)
(0 0 0.000262498)
(0 0 0.000246537)
(0 0 0.000230586)
(0 0 0.000214643)
(0 0 0.000198709)
(0 0 0.000182782)
(0 0 0.000166863)
(0 0 0.000150951)
(0 0 0.000135045)
(0 0 0.000119144)
(0 0 0.000103248)
(0 0 8.73564e-05)
(0 0 7.14684e-05)
(0 0 5.55834e-05)
(0 0 3.97008e-05)
(0 0 2.38198e-05)
(0 0 7.93983e-06)
(0 0 2.64461e-05)
(0 0 7.93396e-05)
(0 0 0.000132237)
(0 0 0.000185142)
(0 0 0.000238055)
(0 0 0.000290981)
(0 0 0.000343922)
(0 0 0.00039688)
(0 0 0.000449857)
(0 0 0.000502857)
(0 0 0.000555882)
(0 0 0.000608933)
(0 0 0.000662013)
(0 0 0.000715124)
(0 0 0.000768268)
(0 0 0.000821446)
(0 0 0.000874661)
(0 0 0.000927914)
(0 0 0.000981206)
(0 0 0.00103454)
(0 0 0.00108791)
(0 0 0.00114133)
(0 0 0.00119479)
(0 0 0.00124829)
(0 0 0.00130183)
(0 0 0.00135542)
(0 0 0.00140905)
(0 0 0.00146273)
(0 0 0.00151644)
(0 0 0.0015702)
(0 0 0.00162399)
(0 0 0.00167782)
(0 0 0.00173169)
(0 0 0.00178559)
(0 0 0.00183952)
(0 0 0.00189348)
(0 0 0.00194746)
(0 0 0.00200146)
(0 0 0.00205547)
(0 0 0.0021095)
(0 0 0.00216353)
(0 0 0.00221756)
(0 0 0.00227159)
(0 0 0.00232561)
(0 0 0.0023796)
(0 0 0.00243357)
(0 0 0.00248751)
(0 0 0.00254141)
(0 0 0.00259525)
(0 0 0.00264904)
(0 0 0.00270276)
(0 0 0.0027564)
(0 0 0.00280994)
(0 0 0.00286339)
(0 0 0.00291672)
(0 0 0.00296993)
(0 0 0.003023)
(0 0 0.00307592)
(0 0 0.00312867)
(0 0 0.00318124)
(0 0 0.00323362)
(0 0 0.00328578)
(0 0 0.00333772)
(0 0 0.00338942)
(0 0 0.00344085)
(0 0 0.00349201)
(0 0 0.00354286)
(0 0 0.00359341)
(0 0 0.00364361)
(0 0 0.00369347)
(0 0 0.00374295)
(0 0 0.00379203)
(0 0 0.0038407)
(0 0 0.00388893)
(0 0 0.0039367)
(0 0 0.00398398)
(0 0 0.00403077)
(0 0 0.00407702)
(0 0 0.00412273)
(0 0 0.00416786)
(0 0 0.0042124)
(0 0 0.00425632)
(0 0 0.00429959)
(0 0 0.00434219)
(0 0 0.0043841)
(0 0 0.00442529)
(0 0 0.00446575)
(0 0 0.00450543)
(0 0 0.00454433)
(0 0 0.00458242)
(0 0 0.00461967)
(0 0 0.00465606)
(0 0 0.00469156)
(0 0 0.00472616)
(0 0 0.00475983)
(0 0 0.00479256)
(0 0 0.0048243)
(0 0 0.00485506)
(0 0 0.0048848)
(0 0 0.00491351)
(0 0 0.00494116)
(0 0 0.00496774)
(0 0 0.00499324)
(0 0 0.00501762)
(0 0 0.00504088)
(0 0 0.005063)
(0 0 0.00508396)
(0 0 0.00510375)
(0 0 0.00512236)
(0 0 0.00513978)
(0 0 0.00515599)
(0 0 0.00517099)
(0 0 0.00518476)
(0 0 0.0051973)
(0 0 0.00520859)
(0 0 0.00521865)
(0 0 0.00522745)
(0 0 0.00523499)
(0 0 0.00524128)
(0 0 0.0052463)
(0 0 0.00525007)
(0 0 0.00525258)
(0 0 0.00525383)
(0 0 0.00525382)
(0 0 0.00525257)
(0 0 0.00525006)
(0 0 0.00524632)
(0 0 0.00524134)
(0 0 0.00523513)
(0 0 0.00522771)
(0 0 0.00521908)
(0 0 0.00520925)
(0 0 0.00519824)
(0 0 0.00518605)
(0 0 0.00517271)
(0 0 0.00515822)
(0 0 0.00514259)
(0 0 0.00512586)
(0 0 0.00510802)
(0 0 0.0050891)
(0 0 0.00506912)
(0 0 0.00504808)
(0 0 0.00502603)
(0 0 0.00500296)
(0 0 0.0049789)
(0 0 0.00495387)
(0 0 0.0049279)
(0 0 0.00490099)
(0 0 0.00487318)
(0 0 0.00484448)
(0 0 0.00481491)
(0 0 0.0047845)
(0 0 0.00475327)
(0 0 0.00472124)
(0 0 0.00468843)
(0 0 0.00465487)
(0 0 0.00462057)
(0 0 0.00458555)
(0 0 0.00454985)
(0 0 0.00451348)
(0 0 0.00447646)
(0 0 0.00443881)
(0 0 0.00440056)
(0 0 0.00436173)
(0 0 0.00432233)
(0 0 0.0042824)
(0 0 0.00424194)
(0 0 0.00420098)
(0 0 0.00415953)
(0 0 0.00411763)
(0 0 0.00407528)
(0 0 0.00403251)
(0 0 0.00398934)
(0 0 0.00394578)
(0 0 0.00390184)
(0 0 0.00385756)
(0 0 0.00381294)
(0 0 0.003768)
(0 0 0.00372276)
(0 0 0.00367723)
(0 0 0.00363144)
(0 0 0.00358538)
(0 0 0.00353909)
(0 0 0.00349256)
(0 0 0.00344583)
(0 0 0.00339889)
(0 0 0.00335177)
(0 0 0.00330447)
(0 0 0.003257)
(0 0 0.00320939)
(0 0 0.00316163)
(0 0 0.00311375)
(0 0 0.00306575)
(0 0 0.00301763)
(0 0 0.00296942)
(0 0 0.00292112)
(0 0 0.00287273)
(0 0 0.00282427)
(0 0 0.00277575)
(0 0 0.00272717)
(0 0 0.00267854)
(0 0 0.00262987)
(0 0 0.00258116)
(0 0 0.00253242)
(0 0 0.00248365)
(0 0 0.00243487)
(0 0 0.00238607)
(0 0 0.00233727)
(0 0 0.00228846)
(0 0 0.00223965)
(0 0 0.00219084)
(0 0 0.00214205)
(0 0 0.00209327)
(0 0 0.0020445)
(0 0 0.00199575)
(0 0 0.00194703)
(0 0 0.00189832)
(0 0 0.00184964)
(0 0 0.001801)
(0 0 0.00175238)
(0 0 0.00170379)
(0 0 0.00165524)
(0 0 0.00160672)
(0 0 0.00155823)
(0 0 0.00150978)
(0 0 0.00146137)
(0 0 0.001413)
(0 0 0.00136466)
(0 0 0.00131636)
(0 0 0.0012681)
(0 0 0.00121988)
(0 0 0.0011717)
(0 0 0.00112355)
(0 0 0.00107544)
(0 0 0.00102736)
(0 0 0.000979318)
(0 0 0.000931311)
(0 0 0.000883337)
(0 0 0.000835395)
(0 0 0.000787483)
(0 0 0.000739601)
(0 0 0.000691747)
(0 0 0.00064392)
(0 0 0.000596118)
(0 0 0.000548339)
(0 0 0.000500583)
(0 0 0.000452846)
(0 0 0.000405128)
(0 0 0.000357426)
(0 0 0.000309739)
(0 0 0.000262065)
(0 0 0.000214402)
(0 0 0.000166748)
(0 0 0.000119101)
(0 0 7.14584e-05)
(0 0 2.38191e-05)
(0 0 4.40753e-05)
(0 0 0.000132228)
(0 0 0.000220388)
(0 0 0.000308559)
(0 0 0.000396746)
(0 0 0.000484953)
(0 0 0.000573184)
(0 0 0.000661445)
(0 0 0.000749738)
(0 0 0.000838068)
(0 0 0.00092644)
(0 0 0.00101486)
(0 0 0.00110332)
(0 0 0.00119184)
(0 0 0.00128041)
(0 0 0.00136904)
(0 0 0.00145773)
(0 0 0.00154648)
(0 0 0.0016353)
(0 0 0.00172418)
(0 0 0.00181314)
(0 0 0.00190217)
(0 0 0.00199126)
(0 0 0.00208043)
(0 0 0.00216968)
(0 0 0.00225899)
(0 0 0.00234838)
(0 0 0.00243783)
(0 0 0.00252736)
(0 0 0.00261695)
(0 0 0.00270661)
(0 0 0.00279633)
(0 0 0.00288611)
(0 0 0.00297595)
(0 0 0.00306584)
(0 0 0.00315577)
(0 0 0.00324574)
(0 0 0.00333574)
(0 0 0.00342577)
(0 0 0.00351582)
(0 0 0.00360588)
(0 0 0.00369594)
(0 0 0.003786)
(0 0 0.00387603)
(0 0 0.00396603)
(0 0 0.00405599)
(0 0 0.0041459)
(0 0 0.00423574)
(0 0 0.00432549)
(0 0 0.00441515)
(0 0 0.00450469)
(0 0 0.00459409)
(0 0 0.00468335)
(0 0 0.00477244)
(0 0 0.00486135)
(0 0 0.00495004)
(0 0 0.0050385)
(0 0 0.00512672)
(0 0 0.00521465)
(0 0 0.00530229)
(0 0 0.0053896)
(0 0 0.00547656)
(0 0 0.00556314)
(0 0 0.00564932)
(0 0 0.00573506)
(0 0 0.00582034)
(0 0 0.00590512)
(0 0 0.00598938)
(0 0 0.00607308)
(0 0 0.0061562)
(0 0 0.00623868)
(0 0 0.00632051)
(0 0 0.00640165)
(0 0 0.00648205)
(0 0 0.00656169)
(0 0 0.00664053)
(0 0 0.00671853)
(0 0 0.00679565)
(0 0 0.00687186)
(0 0 0.0069471)
(0 0 0.00702136)
(0 0 0.00709458)
(0 0 0.00716672)
(0 0 0.00723775)
(0 0 0.00730763)
(0 0 0.00737631)
(0 0 0.00744376)
(0 0 0.00750993)
(0 0 0.00757479)
(0 0 0.00763829)
(0 0 0.0077004)
(0 0 0.00776107)
(0 0 0.00782028)
(0 0 0.00787797)
(0 0 0.00793411)
(0 0 0.00798867)
(0 0 0.00804161)
(0 0 0.00809289)
(0 0 0.00814249)
(0 0 0.00819035)
(0 0 0.00823646)
(0 0 0.00828079)
(0 0 0.00832329)
(0 0 0.00836395)
(0 0 0.00840273)
(0 0 0.00843961)
(0 0 0.00847456)
(0 0 0.00850757)
(0 0 0.0085386)
(0 0 0.00856764)
(0 0 0.00859467)
(0 0 0.00861968)
(0 0 0.00864264)
(0 0 0.00866354)
(0 0 0.00868237)
(0 0 0.00869913)
(0 0 0.0087138)
(0 0 0.00872638)
(0 0 0.00873686)
(0 0 0.00874524)
(0 0 0.00875152)
(0 0 0.0087557)
(0 0 0.00875778)
(0 0 0.00875776)
(0 0 0.00875566)
(0 0 0.00875148)
(0 0 0.00874523)
(0 0 0.00873693)
(0 0 0.00872658)
(0 0 0.00871419)
(0 0 0.0086998)
(0 0 0.00868341)
(0 0 0.00866504)
(0 0 0.00864471)
(0 0 0.00862245)
(0 0 0.00859828)
(0 0 0.00857223)
(0 0 0.00854431)
(0 0 0.00851457)
(0 0 0.00848302)
(0 0 0.00844969)
(0 0 0.00841462)
(0 0 0.00837783)
(0 0 0.00833936)
(0 0 0.00829924)
(0 0 0.00825751)
(0 0 0.00821419)
(0 0 0.00816932)
(0 0 0.00812295)
(0 0 0.00807509)
(0 0 0.00802579)
(0 0 0.00797508)
(0 0 0.00792301)
(0 0 0.0078696)
(0 0 0.00781489)
(0 0 0.00775893)
(0 0 0.00770173)
(0 0 0.00764336)
(0 0 0.00758383)
(0 0 0.00752318)
(0 0 0.00746146)
(0 0 0.00739869)
(0 0 0.00733492)
(0 0 0.00727017)
(0 0 0.00720449)
(0 0 0.00713791)
(0 0 0.00707045)
(0 0 0.00700216)
(0 0 0.00693307)
(0 0 0.00686321)
(0 0 0.00679261)
(0 0 0.00672131)
(0 0 0.00664933)
(0 0 0.0065767)
(0 0 0.00650346)
(0 0 0.00642964)
(0 0 0.00635525)
(0 0 0.00628034)
(0 0 0.00620492)
(0 0 0.00612902)
(0 0 0.00605268)
(0 0 0.00597591)
(0 0 0.00589873)
(0 0 0.00582118)
(0 0 0.00574327)
(0 0 0.00566503)
(0 0 0.00558647)
(0 0 0.00550762)
(0 0 0.00542851)
(0 0 0.00534914)
(0 0 0.00526953)
(0 0 0.00518971)
(0 0 0.0051097)
(0 0 0.0050295)
(0 0 0.00494913)
(0 0 0.00486862)
(0 0 0.00478797)
(0 0 0.0047072)
(0 0 0.00462632)
(0 0 0.00454534)
(0 0 0.00446428)
(0 0 0.00438315)
(0 0 0.00430196)
(0 0 0.00422072)
(0 0 0.00413944)
(0 0 0.00405813)
(0 0 0.00397679)
(0 0 0.00389545)
(0 0 0.00381409)
(0 0 0.00373274)
(0 0 0.0036514)
(0 0 0.00357007)
(0 0 0.00348876)
(0 0 0.00340748)
(0 0 0.00332623)
(0 0 0.00324501)
(0 0 0.00316384)
(0 0 0.00308271)
(0 0 0.00300163)
(0 0 0.00292059)
(0 0 0.00283961)
(0 0 0.00275869)
(0 0 0.00267782)
(0 0 0.00259701)
(0 0 0.00251627)
(0 0 0.00243558)
(0 0 0.00235496)
(0 0 0.0022744)
(0 0 0.0021939)
(0 0 0.00211346)
(0 0 0.00203309)
(0 0 0.00195279)
(0 0 0.00187254)
(0 0 0.00179235)
(0 0 0.00171223)
(0 0 0.00163216)
(0 0 0.00155215)
(0 0 0.00147219)
(0 0 0.00139229)
(0 0 0.00131244)
(0 0 0.00123264)
(0 0 0.00115288)
(0 0 0.00107317)
(0 0 0.000993504)
(0 0 0.000913874)
(0 0 0.000834282)
(0 0 0.000754723)
(0 0 0.000675194)
(0 0 0.000595694)
(0 0 0.000516218)
(0 0 0.000436763)
(0 0 0.000357327)
(0 0 0.000277905)
(0 0 0.000198495)
(0 0 0.000119094)
(0 0 3.96974e-05)
(0 0 6.17022e-05)
(0 0 0.00018511)
(0 0 0.000308527)
(0 0 0.00043196)
(0 0 0.000555415)
(0 0 0.000678899)
(0 0 0.000802417)
(0 0 0.000925976)
(0 0 0.00104958)
(0 0 0.00117324)
(0 0 0.00129695)
(0 0 0.00142073)
(0 0 0.00154458)
(0 0 0.00166849)
(0 0 0.00179249)
(0 0 0.00191657)
(0 0 0.00204073)
(0 0 0.00216498)
(0 0 0.00228932)
(0 0 0.00241376)
(0 0 0.0025383)
(0 0 0.00266293)
(0 0 0.00278767)
(0 0 0.0029125)
(0 0 0.00303744)
(0 0 0.00316248)
(0 0 0.00328763)
(0 0 0.00341287)
(0 0 0.00353821)
(0 0 0.00366364)
(0 0 0.00378917)
(0 0 0.00391479)
(0 0 0.00404048)
(0 0 0.00416626)
(0 0 0.00429211)
(0 0 0.00441802)
(0 0 0.00454399)
(0 0 0.00467)
(0 0 0.00479606)
(0 0 0.00492214)
(0 0 0.00504823)
(0 0 0.00517433)
(0 0 0.00530042)
(0 0 0.00542648)
(0 0 0.00555251)
(0 0 0.00567847)
(0 0 0.00580436)
(0 0 0.00593015)
(0 0 0.00605582)
(0 0 0.00618136)
(0 0 0.00630674)
(0 0 0.00643194)
(0 0 0.00655693)
(0 0 0.00668168)
(0 0 0.00680618)
(0 0 0.00693038)
(0 0 0.00705426)
(0 0 0.00717779)
(0 0 0.00730093)
(0 0 0.00742366)
(0 0 0.00754593)
(0 0 0.00766771)
(0 0 0.00778897)
(0 0 0.00790965)
(0 0 0.00802973)
(0 0 0.00814917)
(0 0 0.00826791)
(0 0 0.00838592)
(0 0 0.00850314)
(0 0 0.00861955)
(0 0 0.00873508)
(0 0 0.00884969)
(0 0 0.00896333)
(0 0 0.00907595)
(0 0 0.0091875)
(0 0 0.00929792)
(0 0 0.00940717)
(0 0 0.0095152)
(0 0 0.00962194)
(0 0 0.00972734)
(0 0 0.00983135)
(0 0 0.00993391)
(0 0 0.010035)
(0 0 0.0101345)
(0 0 0.0102324)
(0 0 0.0103286)
(0 0 0.010423)
(0 0 0.0105157)
(0 0 0.0106066)
(0 0 0.0106956)
(0 0 0.0107826)
(0 0 0.0108676)
(0 0 0.0109505)
(0 0 0.0110313)
(0 0 0.01111)
(0 0 0.0111864)
(0 0 0.0112606)
(0 0 0.0113324)
(0 0 0.0114019)
(0 0 0.011469)
(0 0 0.0115336)
(0 0 0.0115956)
(0 0 0.0116552)
(0 0 0.0117122)
(0 0 0.0117665)
(0 0 0.0118181)
(0 0 0.0118671)
(0 0 0.0119134)
(0 0 0.0119568)
(0 0 0.0119975)
(0 0 0.0120354)
(0 0 0.0120704)
(0 0 0.0121026)
(0 0 0.0121319)
(0 0 0.0121582)
(0 0 0.0121817)
(0 0 0.0122023)
(0 0 0.0122199)
(0 0 0.0122345)
(0 0 0.0122463)
(0 0 0.0122551)
(0 0 0.0122609)
(0 0 0.0122638)
(0 0 0.0122638)
(0 0 0.0122608)
(0 0 0.012255)
(0 0 0.0122462)
(0 0 0.0122346)
(0 0 0.01222)
(0 0 0.0122027)
(0 0 0.0121825)
(0 0 0.0121595)
(0 0 0.0121338)
(0 0 0.0121053)
(0 0 0.0120741)
(0 0 0.0120402)
(0 0 0.0120037)
(0 0 0.0119646)
(0 0 0.0119229)
(0 0 0.0118787)
(0 0 0.011832)
(0 0 0.0117829)
(0 0 0.0117313)
(0 0 0.0116774)
(0 0 0.0116212)
(0 0 0.0115627)
(0 0 0.011502)
(0 0 0.0114392)
(0 0 0.0113742)
(0 0 0.0113071)
(0 0 0.0112381)
(0 0 0.011167)
(0 0 0.0110941)
(0 0 0.0110193)
(0 0 0.0109426)
(0 0 0.0108642)
(0 0 0.0107841)
(0 0 0.0107023)
(0 0 0.0106189)
(0 0 0.010534)
(0 0 0.0104475)
(0 0 0.0103596)
(0 0 0.0102702)
(0 0 0.0101796)
(0 0 0.0100876)
(0 0 0.00999429)
(0 0 0.0098998)
(0 0 0.00980415)
(0 0 0.00970738)
(0 0 0.00960953)
(0 0 0.00951065)
(0 0 0.00941078)
(0 0 0.00930996)
(0 0 0.00920825)
(0 0 0.00910567)
(0 0 0.00900227)
(0 0 0.0088981)
(0 0 0.00879318)
(0 0 0.00868756)
(0 0 0.00858127)
(0 0 0.00847435)
(0 0 0.00836683)
(0 0 0.00825876)
(0 0 0.00815015)
(0 0 0.00804104)
(0 0 0.00793147)
(0 0 0.00782147)
(0 0 0.00771106)
(0 0 0.00760026)
(0 0 0.00748912)
(0 0 0.00737765)
(0 0 0.00726588)
(0 0 0.00715383)
(0 0 0.00704153)
(0 0 0.006929)
(0 0 0.00681626)
(0 0 0.00670333)
(0 0 0.00659023)
(0 0 0.00647698)
(0 0 0.00636359)
(0 0 0.00625009)
(0 0 0.0061365)
(0 0 0.00602281)
(0 0 0.00590906)
(0 0 0.00579526)
(0 0 0.00568141)
(0 0 0.00556753)
(0 0 0.00545363)
(0 0 0.00533973)
(0 0 0.00522583)
(0 0 0.00511194)
(0 0 0.00499807)
(0 0 0.00488423)
(0 0 0.00477043)
(0 0 0.00465667)
(0 0 0.00454297)
(0 0 0.00442932)
(0 0 0.00431573)
(0 0 0.00420221)
(0 0 0.00408876)
(0 0 0.00397538)
(0 0 0.00386208)
(0 0 0.00374887)
(0 0 0.00363573)
(0 0 0.00352269)
(0 0 0.00340972)
(0 0 0.00329685)
(0 0 0.00318407)
(0 0 0.00307137)
(0 0 0.00295876)
(0 0 0.00284624)
(0 0 0.00273381)
(0 0 0.00262147)
(0 0 0.00250921)
(0 0 0.00239704)
(0 0 0.00228494)
(0 0 0.00217293)
(0 0 0.00206099)
(0 0 0.00194913)
(0 0 0.00183735)
(0 0 0.00172563)
(0 0 0.00161397)
(0 0 0.00150238)
(0 0 0.00139085)
(0 0 0.00127937)
(0 0 0.00116795)
(0 0 0.00105657)
(0 0 0.000945234)
(0 0 0.000833937)
(0 0 0.000722675)
(0 0 0.000611443)
(0 0 0.000500236)
(0 0 0.000389051)
(0 0 0.000277882)
(0 0 0.000166724)
(0 0 5.55741e-05)
(0 0 7.93259e-05)
(0 0 0.000237982)
(0 0 0.00039665)
(0 0 0.000555339)
(0 0 0.000714057)
(0 0 0.000872811)
(0 0 0.00103161)
(0 0 0.00119046)
(0 0 0.00134937)
(0 0 0.00150835)
(0 0 0.0016674)
(0 0 0.00182654)
(0 0 0.00198576)
(0 0 0.00214507)
(0 0 0.00230449)
(0 0 0.00246401)
(0 0 0.00262364)
(0 0 0.00278339)
(0 0 0.00294325)
(0 0 0.00310324)
(0 0 0.00326336)
(0 0 0.0034236)
(0 0 0.00358397)
(0 0 0.00374447)
(0 0 0.00390511)
(0 0 0.00406588)
(0 0 0.00422678)
(0 0 0.00438781)
(0 0 0.00454896)
(0 0 0.00471024)
(0 0 0.00487164)
(0 0 0.00503315)
(0 0 0.00519477)
(0 0 0.0053565)
(0 0 0.00551831)
(0 0 0.00568021)
(0 0 0.00584219)
(0 0 0.00600423)
(0 0 0.00616631)
(0 0 0.00632844)
(0 0 0.00649058)
(0 0 0.00665273)
(0 0 0.00681487)
(0 0 0.00697698)
(0 0 0.00713904)
(0 0 0.00730102)
(0 0 0.00746291)
(0 0 0.00762467)
(0 0 0.00778629)
(0 0 0.00794774)
(0 0 0.00810899)
(0 0 0.00827)
(0 0 0.00843074)
(0 0 0.00859119)
(0 0 0.0087513)
(0 0 0.00891104)
(0 0 0.00907037)
(0 0 0.00922924)
(0 0 0.00938763)
(0 0 0.00954548)
(0 0 0.00970275)
(0 0 0.00985939)
(0 0 0.0100154)
(0 0 0.0101706)
(0 0 0.0103251)
(0 0 0.0104787)
(0 0 0.0106314)
(0 0 0.0107832)
(0 0 0.010934)
(0 0 0.0110838)
(0 0 0.0112324)
(0 0 0.0113798)
(0 0 0.011526)
(0 0 0.0116709)
(0 0 0.0118144)
(0 0 0.0119565)
(0 0 0.012097)
(0 0 0.012236)
(0 0 0.0123734)
(0 0 0.012509)
(0 0 0.0126428)
(0 0 0.0127748)
(0 0 0.0129048)
(0 0 0.0130328)
(0 0 0.0131588)
(0 0 0.0132825)
(0 0 0.0134041)
(0 0 0.0135234)
(0 0 0.0136403)
(0 0 0.0137548)
(0 0 0.0138667)
(0 0 0.0139761)
(0 0 0.0140828)
(0 0 0.0141868)
(0 0 0.0142881)
(0 0 0.0143864)
(0 0 0.0144819)
(0 0 0.0145743)
(0 0 0.0146637)
(0 0 0.01475)
(0 0 0.0148331)
(0 0 0.0149131)
(0 0 0.0149897)
(0 0 0.015063)
(0 0 0.0151329)
(0 0 0.0151994)
(0 0 0.0152624)
(0 0 0.0153219)
(0 0 0.0153778)
(0 0 0.0154302)
(0 0 0.0154789)
(0 0 0.015524)
(0 0 0.0155654)
(0 0 0.0156031)
(0 0 0.015637)
(0 0 0.0156672)
(0 0 0.0156936)
(0 0 0.0157163)
(0 0 0.0157352)
(0 0 0.0157503)
(0 0 0.0157616)
(0 0 0.0157691)
(0 0 0.0157728)
(0 0 0.0157727)
(0 0 0.0157689)
(0 0 0.0157614)
(0 0 0.0157501)
(0 0 0.0157351)
(0 0 0.0157164)
(0 0 0.015694)
(0 0 0.015668)
(0 0 0.0156384)
(0 0 0.0156053)
(0 0 0.0155686)
(0 0 0.0155284)
(0 0 0.0154848)
(0 0 0.0154378)
(0 0 0.0153875)
(0 0 0.0153338)
(0 0 0.0152769)
(0 0 0.0152168)
(0 0 0.0151535)
(0 0 0.0150872)
(0 0 0.0150178)
(0 0 0.0149454)
(0 0 0.0148702)
(0 0 0.014792)
(0 0 0.0147111)
(0 0 0.0146275)
(0 0 0.0145412)
(0 0 0.0144523)
(0 0 0.0143609)
(0 0 0.014267)
(0 0 0.0141707)
(0 0 0.0140721)
(0 0 0.0139712)
(0 0 0.0138681)
(0 0 0.0137629)
(0 0 0.0136556)
(0 0 0.0135463)
(0 0 0.013435)
(0 0 0.0133219)
(0 0 0.0132069)
(0 0 0.0130903)
(0 0 0.0129719)
(0 0 0.0128519)
(0 0 0.0127303)
(0 0 0.0126073)
(0 0 0.0124828)
(0 0 0.0123569)
(0 0 0.0122297)
(0 0 0.0121012)
(0 0 0.0119715)
(0 0 0.0118407)
(0 0 0.0117087)
(0 0 0.0115757)
(0 0 0.0114417)
(0 0 0.0113067)
(0 0 0.0111709)
(0 0 0.0110341)
(0 0 0.0108966)
(0 0 0.0107583)
(0 0 0.0106193)
(0 0 0.0104796)
(0 0 0.0103393)
(0 0 0.0101984)
(0 0 0.0100569)
(0 0 0.00991487)
(0 0 0.00977237)
(0 0 0.00962943)
(0 0 0.00948607)
(0 0 0.00934232)
(0 0 0.00919822)
(0 0 0.00905379)
(0 0 0.00890907)
(0 0 0.00876408)
(0 0 0.00861885)
(0 0 0.00847341)
(0 0 0.00832777)
(0 0 0.00818196)
(0 0 0.00803601)
(0 0 0.00788993)
(0 0 0.00774374)
(0 0 0.00759746)
(0 0 0.00745112)
(0 0 0.00730472)
(0 0 0.00715829)
(0 0 0.00701183)
(0 0 0.00686536)
(0 0 0.0067189)
(0 0 0.00657246)
(0 0 0.00642604)
(0 0 0.00627966)
(0 0 0.00613333)
(0 0 0.00598706)
(0 0 0.00584086)
(0 0 0.00569473)
(0 0 0.00554868)
(0 0 0.00540272)
(0 0 0.00525685)
(0 0 0.00511107)
(0 0 0.0049654)
(0 0 0.00481983)
(0 0 0.00467437)
(0 0 0.00452902)
(0 0 0.00438378)
(0 0 0.00423866)
(0 0 0.00409365)
(0 0 0.00394875)
(0 0 0.00380397)
(0 0 0.00365931)
(0 0 0.00351475)
(0 0 0.00337031)
(0 0 0.00322598)
(0 0 0.00308176)
(0 0 0.00293765)
(0 0 0.00279363)
(0 0 0.00264972)
(0 0 0.00250591)
(0 0 0.00236218)
(0 0 0.00221855)
(0 0 0.002075)
(0 0 0.00193153)
(0 0 0.00178814)
(0 0 0.00164482)
(0 0 0.00150157)
(0 0 0.00135837)
(0 0 0.00121523)
(0 0 0.00107215)
(0 0 0.000929102)
(0 0 0.000786097)
(0 0 0.000643125)
(0 0 0.00050018)
(0 0 0.000357257)
(0 0 0.000214348)
(0 0 7.14483e-05)
(0 0 9.69455e-05)
(0 0 0.000290842)
(0 0 0.000484753)
(0 0 0.00067869)
(0 0 0.000872661)
(0 0 0.00106668)
(0 0 0.00126075)
(0 0 0.00145489)
(0 0 0.0016491)
(0 0 0.00184339)
(0 0 0.00203777)
(0 0 0.00223226)
(0 0 0.00242685)
(0 0 0.00262155)
(0 0 0.00281638)
(0 0 0.00301134)
(0 0 0.00320644)
(0 0 0.00340168)
(0 0 0.00359706)
(0 0 0.00379259)
(0 0 0.00398828)
(0 0 0.00418413)
(0 0 0.00438014)
(0 0 0.00457631)
(0 0 0.00477264)
(0 0 0.00496914)
(0 0 0.0051658)
(0 0 0.00536262)
(0 0 0.00555959)
(0 0 0.00575672)
(0 0 0.00595399)
(0 0 0.00615141)
(0 0 0.00634896)
(0 0 0.00654664)
(0 0 0.00674444)
(0 0 0.00694233)
(0 0 0.00714033)
(0 0 0.0073384)
(0 0 0.00753653)
(0 0 0.00773471)
(0 0 0.00793293)
(0 0 0.00813114)
(0 0 0.00832935)
(0 0 0.00852753)
(0 0 0.00872564)
(0 0 0.00892366)
(0 0 0.00912158)
(0 0 0.00931935)
(0 0 0.00951694)
(0 0 0.00971432)
(0 0 0.00991146)
(0 0 0.0101083)
(0 0 0.0103049)
(0 0 0.010501)
(0 0 0.0106968)
(0 0 0.0108921)
(0 0 0.0110869)
(0 0 0.0112812)
(0 0 0.0114749)
(0 0 0.0116679)
(0 0 0.0118602)
(0 0 0.0120517)
(0 0 0.0122425)
(0 0 0.0124323)
(0 0 0.0126212)
(0 0 0.0128091)
(0 0 0.0129959)
(0 0 0.0131815)
(0 0 0.013366)
(0 0 0.0135491)
(0 0 0.0137309)
(0 0 0.0139112)
(0 0 0.01409)
(0 0 0.0142672)
(0 0 0.0144428)
(0 0 0.0146166)
(0 0 0.0147885)
(0 0 0.0149585)
(0 0 0.0151265)
(0 0 0.0152924)
(0 0 0.0154561)
(0 0 0.0156175)
(0 0 0.0157766)
(0 0 0.0159332)
(0 0 0.0160873)
(0 0 0.0162388)
(0 0 0.0163875)
(0 0 0.0165334)
(0 0 0.0166765)
(0 0 0.0168165)
(0 0 0.0169535)
(0 0 0.0170873)
(0 0 0.0172179)
(0 0 0.0173452)
(0 0 0.017469)
(0 0 0.0175894)
(0 0 0.0177061)
(0 0 0.0178193)
(0 0 0.0179287)
(0 0 0.0180342)
(0 0 0.018136)
(0 0 0.0182337)
(0 0 0.0183275)
(0 0 0.0184172)
(0 0 0.0185027)
(0 0 0.0185841)
(0 0 0.0186612)
(0 0 0.018734)
(0 0 0.0188025)
(0 0 0.0188665)
(0 0 0.0189261)
(0 0 0.0189813)
(0 0 0.0190319)
(0 0 0.019078)
(0 0 0.0191195)
(0 0 0.0191565)
(0 0 0.0191888)
(0 0 0.0192165)
(0 0 0.0192396)
(0 0 0.019258)
(0 0 0.0192718)
(0 0 0.019281)
(0 0 0.0192855)
(0 0 0.0192855)
(0 0 0.0192808)
(0 0 0.0192715)
(0 0 0.0192576)
(0 0 0.0192393)
(0 0 0.0192163)
(0 0 0.019189)
(0 0 0.0191571)
(0 0 0.0191209)
(0 0 0.0190803)
(0 0 0.0190354)
(0 0 0.0189862)
(0 0 0.0189328)
(0 0 0.0188753)
(0 0 0.0188136)
(0 0 0.0187479)
(0 0 0.0186783)
(0 0 0.0186047)
(0 0 0.0185273)
(0 0 0.018446)
(0 0 0.0183611)
(0 0 0.0182726)
(0 0 0.0181805)
(0 0 0.0180849)
(0 0 0.0179858)
(0 0 0.0178835)
(0 0 0.0177779)
(0 0 0.0176691)
(0 0 0.0175572)
(0 0 0.0174424)
(0 0 0.0173245)
(0 0 0.0172039)
(0 0 0.0170804)
(0 0 0.0169543)
(0 0 0.0168255)
(0 0 0.0166942)
(0 0 0.0165605)
(0 0 0.0164244)
(0 0 0.016286)
(0 0 0.0161454)
(0 0 0.0160026)
(0 0 0.0158578)
(0 0 0.015711)
(0 0 0.0155623)
(0 0 0.0154118)
(0 0 0.0152595)
(0 0 0.0151056)
(0 0 0.01495)
(0 0 0.0147928)
(0 0 0.0146342)
(0 0 0.0144742)
(0 0 0.0143128)
(0 0 0.0141501)
(0 0 0.0139862)
(0 0 0.0138212)
(0 0 0.013655)
(0 0 0.0134878)
(0 0 0.0133196)
(0 0 0.0131505)
(0 0 0.0129805)
(0 0 0.0128097)
(0 0 0.0126381)
(0 0 0.0124658)
(0 0 0.0122928)
(0 0 0.0121192)
(0 0 0.0119449)
(0 0 0.0117702)
(0 0 0.0115949)
(0 0 0.0114191)
(0 0 0.0112429)
(0 0 0.0110664)
(0 0 0.0108894)
(0 0 0.0107122)
(0 0 0.0105346)
(0 0 0.0103568)
(0 0 0.0101787)
(0 0 0.0100005)
(0 0 0.00982205)
(0 0 0.00964347)
(0 0 0.00946475)
(0 0 0.00928594)
(0 0 0.00910704)
(0 0 0.00892807)
(0 0 0.00874906)
(0 0 0.00857003)
(0 0 0.00839099)
(0 0 0.00821196)
(0 0 0.00803295)
(0 0 0.00785397)
(0 0 0.00767505)
(0 0 0.00749618)
(0 0 0.00731739)
(0 0 0.00713868)
(0 0 0.00696006)
(0 0 0.00678155)
(0 0 0.00660314)
(0 0 0.00642484)
(0 0 0.00624666)
(0 0 0.00606861)
(0 0 0.00589069)
(0 0 0.0057129)
(0 0 0.00553524)
(0 0 0.00535773)
(0 0 0.00518035)
(0 0 0.00500312)
(0 0 0.00482602)
(0 0 0.00464907)
(0 0 0.00447226)
(0 0 0.00429558)
(0 0 0.00411905)
(0 0 0.00394265)
(0 0 0.00376638)
(0 0 0.00359025)
(0 0 0.00341424)
(0 0 0.00323835)
(0 0 0.00306259)
(0 0 0.00288693)
(0 0 0.00271139)
(0 0 0.00253595)
(0 0 0.00236061)
(0 0 0.00218536)
(0 0 0.0020102)
(0 0 0.00183512)
(0 0 0.00166012)
(0 0 0.00148518)
(0 0 0.00131031)
(0 0 0.00113549)
(0 0 0.000960719)
(0 0 0.000785987)
(0 0 0.000611289)
(0 0 0.000436616)
(0 0 0.000261962)
(0 0 8.73196e-05)
(0 0 0.00011456)
(0 0 0.000343686)
(0 0 0.00057283)
(0 0 0.000802005)
(0 0 0.00103122)
(0 0 0.00126049)
(0 0 0.00148983)
(0 0 0.00171924)
(0 0 0.00194874)
(0 0 0.00217833)
(0 0 0.00240804)
(0 0 0.00263787)
(0 0 0.00286782)
(0 0 0.00309791)
(0 0 0.00332815)
(0 0 0.00355854)
(0 0 0.0037891)
(0 0 0.00401982)
(0 0 0.00425072)
(0 0 0.00448179)
(0 0 0.00471305)
(0 0 0.00494451)
(0 0 0.00517615)
(0 0 0.00540798)
(0 0 0.00564001)
(0 0 0.00587224)
(0 0 0.00610466)
(0 0 0.00633727)
(0 0 0.00657007)
(0 0 0.00680305)
(0 0 0.00703621)
(0 0 0.00726953)
(0 0 0.00750303)
(0 0 0.00773667)
(0 0 0.00797045)
(0 0 0.00820436)
(0 0 0.00843838)
(0 0 0.0086725)
(0 0 0.0089067)
(0 0 0.00914096)
(0 0 0.00937526)
(0 0 0.00960957)
(0 0 0.00984387)
(0 0 0.0100781)
(0 0 0.0103123)
(0 0 0.0105464)
(0 0 0.0107804)
(0 0 0.0110142)
(0 0 0.0112478)
(0 0 0.0114811)
(0 0 0.0117142)
(0 0 0.011947)
(0 0 0.0121793)
(0 0 0.0124113)
(0 0 0.0126427)
(0 0 0.0128737)
(0 0 0.013104)
(0 0 0.0133337)
(0 0 0.0135628)
(0 0 0.013791)
(0 0 0.0140184)
(0 0 0.0142449)
(0 0 0.0144705)
(0 0 0.014695)
(0 0 0.0149184)
(0 0 0.0151406)
(0 0 0.0153615)
(0 0 0.0155811)
(0 0 0.0157992)
(0 0 0.0160158)
(0 0 0.0162308)
(0 0 0.0164441)
(0 0 0.0166556)
(0 0 0.0168653)
(0 0 0.0170729)
(0 0 0.0172785)
(0 0 0.0174819)
(0 0 0.017683)
(0 0 0.0178817)
(0 0 0.018078)
(0 0 0.0182717)
(0 0 0.0184627)
(0 0 0.0186509)
(0 0 0.0188362)
(0 0 0.0190185)
(0 0 0.0191977)
(0 0 0.0193737)
(0 0 0.0195463)
(0 0 0.0197156)
(0 0 0.0198813)
(0 0 0.0200434)
(0 0 0.0202018)
(0 0 0.0203563)
(0 0 0.0205069)
(0 0 0.0206534)
(0 0 0.0207959)
(0 0 0.020934)
(0 0 0.0210679)
(0 0 0.0211974)
(0 0 0.0213224)
(0 0 0.0214427)
(0 0 0.0215584)
(0 0 0.0216694)
(0 0 0.0217755)
(0 0 0.0218768)
(0 0 0.0219731)
(0 0 0.0220643)
(0 0 0.0221505)
(0 0 0.0222315)
(0 0 0.0223073)
(0 0 0.0223778)
(0 0 0.0224431)
(0 0 0.022503)
(0 0 0.0225575)
(0 0 0.0226066)
(0 0 0.0226503)
(0 0 0.0226886)
(0 0 0.0227214)
(0 0 0.0227486)
(0 0 0.0227705)
(0 0 0.0227868)
(0 0 0.0227976)
(0 0 0.0228029)
(0 0 0.0228028)
(0 0 0.0227972)
(0 0 0.0227862)
(0 0 0.0227698)
(0 0 0.022748)
(0 0 0.0227208)
(0 0 0.0226884)
(0 0 0.0226507)
(0 0 0.0226077)
(0 0 0.0225596)
(0 0 0.0225065)
(0 0 0.0224482)
(0 0 0.022385)
(0 0 0.0223168)
(0 0 0.0222438)
(0 0 0.0221661)
(0 0 0.0220836)
(0 0 0.0219964)
(0 0 0.0219048)
(0 0 0.0218086)
(0 0 0.0217081)
(0 0 0.0216033)
(0 0 0.0214942)
(0 0 0.0213811)
(0 0 0.0212639)
(0 0 0.0211427)
(0 0 0.0210177)
(0 0 0.020889)
(0 0 0.0207566)
(0 0 0.0206206)
(0 0 0.0204812)
(0 0 0.0203384)
(0 0 0.0201923)
(0 0 0.020043)
(0 0 0.0198907)
(0 0 0.0197353)
(0 0 0.0195771)
(0 0 0.0194161)
(0 0 0.0192523)
(0 0 0.019086)
(0 0 0.0189171)
(0 0 0.0187458)
(0 0 0.0185721)
(0 0 0.0183962)
(0 0 0.0182181)
(0 0 0.018038)
(0 0 0.0178558)
(0 0 0.0176718)
(0 0 0.0174859)
(0 0 0.0172983)
(0 0 0.017109)
(0 0 0.0169181)
(0 0 0.0167258)
(0 0 0.0165319)
(0 0 0.0163367)
(0 0 0.0161402)
(0 0 0.0159425)
(0 0 0.0157436)
(0 0 0.0155436)
(0 0 0.0153426)
(0 0 0.0151406)
(0 0 0.0149377)
(0 0 0.0147339)
(0 0 0.0145294)
(0 0 0.0143241)
(0 0 0.014118)
(0 0 0.0139114)
(0 0 0.0137041)
(0 0 0.0134963)
(0 0 0.013288)
(0 0 0.0130793)
(0 0 0.0128701)
(0 0 0.0126605)
(0 0 0.0124506)
(0 0 0.0122404)
(0 0 0.0120299)
(0 0 0.0118192)
(0 0 0.0116082)
(0 0 0.0113971)
(0 0 0.0111859)
(0 0 0.0109745)
(0 0 0.010763)