/*--------------------------------*- C++ -*----------------------------------*\
| =========                 |                                                 |
| \\      /  F ield         | OpenFOAM: The Open Source CFD Toolbox           |
|  \\    /   O peration     | Version:  v2012                                 |
|   \\  /    A nd           | Website:  www.openfoam.com                      |
|    \\/     M anipulation  |                                                 |
\*---------------------------------------------------------------------------*/
FoamFile
{
    version     2.0;
    format      ascii;
    class       volVectorField;
    location    "13";
    object      U;
}
// * * * * * * * * * * * * * * * * * * * * * * * * * * * * * * * * * * * * * //

dimensions      [0 1 -1 0 0 0 0];


internalField   nonuniform List<vector> 
65536
(
(0.000719546 -0.000719563 0)
(0.00215867 -0.000719601 0)
(0.00359791 -0.000719674 0)
(0.00503734 -0.000719783 0)
(0.00647701 -0.000719927 0)
(0.00791701 -0.000720107 0)
(0.00935741 -0.000720322 0)
(0.0107983 -0.00072057 0)
(0.0122397 -0.000720852 0)
(0.0136816 -0.000721165 0)
(0.0151243 -0.000721509 0)
(0.0165677 -0.000721882 0)
(0.0180118 -0.000722283 0)
(0.0194568 -0.000722711 0)
(0.0209026 -0.000723164 0)
(0.0223494 -0.000723639 0)
(0.0237972 -0.000724136 0)
(0.0252459 -0.000724651 0)
(0.0266957 -0.000725183 0)
(0.0281466 -0.000725728 0)
(0.0295986 -0.000726286 0)
(0.0310518 -0.000726852 0)
(0.032506 -0.000727424 0)
(0.0339615 -0.000727999 0)
(0.035418 -0.000728574 0)
(0.0368758 -0.000729146 0)
(0.0383346 -0.000729711 0)
(0.0397946 -0.000730265 0)
(0.0412557 -0.000730804 0)
(0.0427179 -0.000731326 0)
(0.044181 -0.000731825 0)
(0.0456452 -0.000732297 0)
(0.0471103 -0.000732739 0)
(0.0485762 -0.000733144 0)
(0.0500429 -0.00073351 0)
(0.0515103 -0.00073383 0)
(0.0529783 -0.0007341 0)
(0.0544467 -0.000734314 0)
(0.0559156 -0.000734467 0)
(0.0573847 -0.000734554 0)
(0.0588539 -0.000734569 0)
(0.060323 -0.000734505 0)
(0.061792 -0.000734358 0)
(0.0632605 -0.000734121 0)
(0.0647285 -0.000733787 0)
(0.0661958 -0.000733351 0)
(0.0676621 -0.000732805 0)
(0.0691271 -0.000732143 0)
(0.0705908 -0.000731359 0)
(0.0720527 -0.000730445 0)
(0.0735127 -0.000729394 0)
(0.0749704 -0.0007282 0)
(0.0764256 -0.000726856 0)
(0.077878 -0.000725353 0)
(0.0793272 -0.000723685 0)
(0.0807729 -0.000721845 0)
(0.0822148 -0.000719824 0)
(0.0836524 -0.000717616 0)
(0.0850854 -0.000715214 0)
(0.0865134 -0.00071261 0)
(0.0879361 -0.000709796 0)
(0.0893528 -0.000706766 0)
(0.0907633 -0.000703511 0)
(0.0921671 -0.000700026 0)
(0.0935637 -0.000696302 0)
(0.0949526 -0.000692334 0)
(0.0963333 -0.000688113 0)
(0.0977053 -0.000683634 0)
(0.0990681 -0.00067889 0)
(0.100421 -0.000673874 0)
(0.101764 -0.000668581 0)
(0.103096 -0.000663005 0)
(0.104416 -0.00065714 0)
(0.105725 -0.000650982 0)
(0.10702 -0.000644524 0)
(0.108303 -0.000637763 0)
(0.109572 -0.000630693 0)
(0.110826 -0.000623313 0)
(0.112065 -0.000615617 0)
(0.113289 -0.000607603 0)
(0.114496 -0.000599268 0)
(0.115686 -0.000590611 0)
(0.116859 -0.000581629 0)
(0.118013 -0.000572321 0)
(0.119148 -0.000562687 0)
(0.120264 -0.000552727 0)
(0.12136 -0.000542441 0)
(0.122434 -0.00053183 0)
(0.123487 -0.000520896 0)
(0.124518 -0.000509642 0)
(0.125526 -0.000498068 0)
(0.126511 -0.000486181 0)
(0.127471 -0.000473982 0)
(0.128407 -0.000461477 0)
(0.129317 -0.000448672 0)
(0.130202 -0.000435571 0)
(0.13106 -0.000422182 0)
(0.131891 -0.000408511 0)
(0.132694 -0.000394566 0)
(0.133469 -0.000380356 0)
(0.134216 -0.000365888 0)
(0.134933 -0.000351173 0)
(0.135621 -0.000336221 0)
(0.136278 -0.000321041 0)
(0.136905 -0.000305645 0)
(0.137501 -0.000290044 0)
(0.138066 -0.000274251 0)
(0.138598 -0.000258276 0)
(0.139099 -0.000242133 0)
(0.139567 -0.000225835 0)
(0.140002 -0.000209395 0)
(0.140405 -0.000192827 0)
(0.140774 -0.000176145 0)
(0.141109 -0.000159363 0)
(0.141411 -0.000142496 0)
(0.141679 -0.000125557 0)
(0.141914 -0.000108562 0)
(0.142114 -9.15246e-05 0)
(0.14228 -7.44607e-05 0)
(0.142412 -5.73845e-05 0)
(0.142509 -4.03109e-05 0)
(0.142573 -2.32546e-05 0)
(0.142602 -6.23009e-06 0)
(0.142598 1.07482e-05 0)
(0.142559 2.76659e-05 0)
(0.142487 4.4509e-05 0)
(0.142381 6.12637e-05 0)
(0.142242 7.79165e-05 0)
(0.142069 9.4454e-05 0)
(0.141864 0.000110863 0)
(0.141626 0.000127132 0)
(0.141355 0.000143248 0)
(0.141053 0.0001592 0)
(0.140718 0.000174975 0)
(0.140352 0.000190564 0)
(0.139956 0.000205956 0)
(0.139528 0.00022114 0)
(0.139071 0.000236108 0)
(0.138584 0.000250851 0)
(0.138067 0.000265359 0)
(0.137522 0.000279626 0)
(0.136949 0.000293644 0)
(0.136347 0.000307407 0)
(0.135719 0.000320907 0)
(0.135063 0.000334139 0)
(0.134382 0.000347099 0)
(0.133675 0.00035978 0)
(0.132942 0.000372181 0)
(0.132186 0.000384296 0)
(0.131405 0.000396122 0)
(0.130601 0.000407658 0)
(0.129774 0.000418901 0)
(0.128925 0.000429849 0)
(0.128054 0.000440502 0)
(0.127163 0.000450858 0)
(0.126251 0.000460918 0)
(0.125319 0.000470682 0)
(0.124368 0.00048015 0)
(0.123398 0.000489324 0)
(0.12241 0.000498205 0)
(0.121405 0.000506794 0)
(0.120383 0.000515095 0)
(0.119344 0.000523109 0)
(0.11829 0.000530839 0)
(0.11722 0.000538289 0)
(0.116136 0.000545461 0)
(0.115038 0.00055236 0)
(0.113927 0.000558989 0)
(0.112802 0.000565352 0)
(0.111665 0.000571454 0)
(0.110516 0.000577299 0)
(0.109356 0.000582893 0)
(0.108184 0.000588239 0)
(0.107002 0.000593342 0)
(0.105811 0.000598209 0)
(0.104609 0.000602844 0)
(0.103399 0.000607252 0)
(0.10218 0.000611439 0)
(0.100953 0.00061541 0)
(0.0997182 0.000619171 0)
(0.0984761 0.000622728 0)
(0.0972271 0.000626086 0)
(0.0959716 0.000629251 0)
(0.0947099 0.000632228 0)
(0.0934425 0.000635024 0)
(0.0921696 0.000637643 0)
(0.0908917 0.000640092 0)
(0.0896091 0.000642376 0)
(0.0883221 0.000644501 0)
(0.0870309 0.000646472 0)
(0.085736 0.000648296 0)
(0.0844376 0.000649976 0)
(0.083136 0.00065152 0)
(0.0818314 0.000652931 0)
(0.0805241 0.000654216 0)
(0.0792144 0.00065538 0)
(0.0779025 0.000656427 0)
(0.0765886 0.000657364 0)
(0.0752729 0.000658194 0)
(0.0739557 0.000658924 0)
(0.0726372 0.000659556 0)
(0.0713174 0.000660098 0)
(0.0699967 0.000660552 0)
(0.0686751 0.000660923 0)
(0.0673529 0.000661217 0)
(0.0660302 0.000661437 0)
(0.0647071 0.000661587 0)
(0.0633838 0.000661672 0)
(0.0620603 0.000661696 0)
(0.0607369 0.000661662 0)
(0.0594136 0.000661575 0)
(0.0580906 0.000661438 0)
(0.0567678 0.000661255 0)
(0.0554455 0.000661029 0)
(0.0541237 0.000660765 0)
(0.0528024 0.000660464 0)
(0.0514818 0.00066013 0)
(0.0501619 0.000659768 0)
(0.0488427 0.000659378 0)
(0.0475243 0.000658966 0)
(0.0462068 0.000658532 0)
(0.0448902 0.000658081 0)
(0.0435745 0.000657614 0)
(0.0422597 0.000657135 0)
(0.0409459 0.000656646 0)
(0.0396331 0.000656149 0)
(0.0383213 0.000655646 0)
(0.0370106 0.00065514 0)
(0.0357008 0.000654633 0)
(0.034392 0.000654127 0)
(0.0330843 0.000653623 0)
(0.0317775 0.000653124 0)
(0.0304718 0.000652632 0)
(0.029167 0.000652148 0)
(0.0278632 0.000651673 0)
(0.0265603 0.00065121 0)
(0.0252584 0.00065076 0)
(0.0239573 0.000650323 0)
(0.0226571 0.000649903 0)
(0.0213577 0.000649499 0)
(0.0200591 0.000649112 0)
(0.0187613 0.000648745 0)
(0.0174642 0.000648398 0)
(0.0161677 0.000648071 0)
(0.0148719 0.000647767 0)
(0.0135767 0.000647485 0)
(0.012282 0.000647226 0)
(0.0109878 0.000646991 0)
(0.00969407 0.000646781 0)
(0.00840072 0.000646596 0)
(0.00710771 0.000646437 0)
(0.005815 0.000646303 0)
(0.00452253 0.000646196 0)
(0.00323024 0.000646116 0)
(0.00193809 0.000646062 0)
(0.000646022 0.000646035 0)
(0.000719511 -0.00215866 0)
(0.00215857 -0.00215877 0)
(0.00359774 -0.00215899 0)
(0.00503709 -0.00215931 0)
(0.00647669 -0.00215975 0)
(0.00791662 -0.00216029 0)
(0.00935695 -0.00216093 0)
(0.0107977 -0.00216168 0)
(0.0122391 -0.00216252 0)
(0.013681 -0.00216347 0)
(0.0151236 -0.0021645 0)
(0.0165669 -0.00216562 0)
(0.018011 -0.00216683 0)
(0.0194559 -0.00216811 0)
(0.0209017 -0.00216947 0)
(0.0223484 -0.0021709 0)
(0.0237962 -0.00217239 0)
(0.0252449 -0.00217394 0)
(0.0266947 -0.00217554 0)
(0.0281456 -0.00217718 0)
(0.0295975 -0.00217885 0)
(0.0310507 -0.00218055 0)
(0.0325049 -0.00218227 0)
(0.0339603 -0.002184 0)
(0.0354169 -0.00218573 0)
(0.0368747 -0.00218745 0)
(0.0383335 -0.00218914 0)
(0.0397936 -0.00219081 0)
(0.0412547 -0.00219243 0)
(0.0427169 -0.002194 0)
(0.0441801 -0.0021955 0)
(0.0456443 -0.00219692 0)
(0.0471094 -0.00219825 0)
(0.0485754 -0.00219947 0)
(0.0500422 -0.00220058 0)
(0.0515097 -0.00220154 0)
(0.0529778 -0.00220236 0)
(0.0544464 -0.002203 0)
(0.0559154 -0.00220347 0)
(0.0573846 -0.00220373 0)
(0.0588539 -0.00220378 0)
(0.0603233 -0.0022036 0)
(0.0617924 -0.00220316 0)
(0.0632611 -0.00220246 0)
(0.0647293 -0.00220146 0)
(0.0661968 -0.00220016 0)
(0.0676633 -0.00219853 0)
(0.0691286 -0.00219655 0)
(0.0705925 -0.00219421 0)
(0.0720547 -0.00219147 0)
(0.0735149 -0.00218833 0)
(0.074973 -0.00218475 0)
(0.0764285 -0.00218072 0)
(0.0778812 -0.00217622 0)
(0.0793307 -0.00217123 0)
(0.0807768 -0.00216571 0)
(0.082219 -0.00215966 0)
(0.083657 -0.00215304 0)
(0.0850904 -0.00214584 0)
(0.0865189 -0.00213804 0)
(0.0879419 -0.0021296 0)
(0.0893592 -0.00212052 0)
(0.0907701 -0.00211076 0)
(0.0921744 -0.00210031 0)
(0.0935714 -0.00208915 0)
(0.0949608 -0.00207725 0)
(0.096342 -0.0020646 0)
(0.0977145 -0.00205117 0)
(0.0990779 -0.00203694 0)
(0.100431 -0.0020219 0)
(0.101775 -0.00200603 0)
(0.103107 -0.0019893 0)
(0.104428 -0.00197171 0)
(0.105737 -0.00195324 0)
(0.107034 -0.00193387 0)
(0.108317 -0.00191359 0)
(0.109586 -0.00189239 0)
(0.110841 -0.00187025 0)
(0.112081 -0.00184717 0)
(0.113305 -0.00182313 0)
(0.114513 -0.00179813 0)
(0.115704 -0.00177215 0)
(0.116877 -0.00174521 0)
(0.118032 -0.00171729 0)
(0.119168 -0.00168839 0)
(0.120284 -0.0016585 0)
(0.121381 -0.00162765 0)
(0.122456 -0.00159581 0)
(0.123509 -0.00156301 0)
(0.124541 -0.00152924 0)
(0.12555 -0.00149452 0)
(0.126535 -0.00145885 0)
(0.127496 -0.00142225 0)
(0.128432 -0.00138473 0)
(0.129343 -0.00134631 0)
(0.130228 -0.001307 0)
(0.131087 -0.00126682 0)
(0.131919 -0.0012258 0)
(0.132722 -0.00118396 0)
(0.133498 -0.00114132 0)
(0.134245 -0.00109791 0)
(0.134963 -0.00105376 0)
(0.135651 -0.00100889 0)
(0.136309 -0.000963338 0)
(0.136936 -0.000917138 0)
(0.137533 -0.000870324 0)
(0.138097 -0.00082293 0)
(0.13863 -0.000774993 0)
(0.139131 -0.000726551 0)
(0.1396 -0.000677644 0)
(0.140035 -0.000628311 0)
(0.140438 -0.000578593 0)
(0.140807 -0.000528533 0)
(0.141143 -0.000478173 0)
(0.141445 -0.000427555 0)
(0.141713 -0.000376724 0)
(0.141948 -0.000325724 0)
(0.142148 -0.000274598 0)
(0.142314 -0.000223392 0)
(0.142446 -0.000172148 0)
(0.142543 -0.000120913 0)
(0.142607 -6.97295e-05 0)
(0.142636 -1.86415e-05 0)
(0.142632 3.23075e-05 0)
(0.142593 8.30746e-05 0)
(0.142521 0.000133618 0)
(0.142414 0.000183895 0)
(0.142275 0.000233867 0)
(0.142102 0.000283492 0)
(0.141896 0.000332733 0)
(0.141658 0.000381552 0)
(0.141387 0.000429912 0)
(0.141084 0.000477777 0)
(0.14075 0.000525114 0)
(0.140383 0.000571891 0)
(0.139986 0.000618076 0)
(0.139559 0.000663639 0)
(0.139101 0.000708551 0)
(0.138613 0.000752787 0)
(0.138096 0.000796321 0)
(0.13755 0.00083913 0)
(0.136976 0.000881191 0)
(0.136374 0.000922483 0)
(0.135745 0.00096299 0)
(0.135089 0.00100269 0)
(0.134407 0.00104157 0)
(0.1337 0.00107962 0)
(0.132967 0.00111683 0)
(0.13221 0.00115318 0)
(0.131428 0.00118866 0)
(0.130624 0.00122327 0)
(0.129796 0.001257 0)
(0.128947 0.00128984 0)
(0.128075 0.0013218 0)
(0.127183 0.00135287 0)
(0.12627 0.00138305 0)
(0.125338 0.00141234 0)
(0.124386 0.00144075 0)
(0.123416 0.00146827 0)
(0.122427 0.00149491 0)
(0.121422 0.00152067 0)
(0.120399 0.00154557 0)
(0.11936 0.00156961 0)
(0.118305 0.0015928 0)
(0.117235 0.00161514 0)
(0.11615 0.00163666 0)
(0.115052 0.00165735 0)
(0.11394 0.00167723 0)
(0.112814 0.00169632 0)
(0.111677 0.00171462 0)
(0.110527 0.00173215 0)
(0.109366 0.00174893 0)
(0.108195 0.00176496 0)
(0.107012 0.00178026 0)
(0.10582 0.00179486 0)
(0.104618 0.00180876 0)
(0.103407 0.00182198 0)
(0.102188 0.00183453 0)
(0.100961 0.00184644 0)
(0.0997255 0.00185772 0)
(0.098483 0.00186838 0)
(0.0972336 0.00187845 0)
(0.0959776 0.00188794 0)
(0.0947156 0.00189687 0)
(0.0934478 0.00190525 0)
(0.0921746 0.0019131 0)
(0.0908964 0.00192044 0)
(0.0896134 0.00192729 0)
(0.0883261 0.00193366 0)
(0.0870347 0.00193956 0)
(0.0857395 0.00194503 0)
(0.0844408 0.00195006 0)
(0.0831389 0.00195469 0)
(0.081834 0.00195892 0)
(0.0805265 0.00196277 0)
(0.0792166 0.00196625 0)
(0.0779044 0.00196939 0)
(0.0765903 0.0019722 0)
(0.0752744 0.00197468 0)
(0.073957 0.00197687 0)
(0.0726383 0.00197876 0)
(0.0713184 0.00198038 0)
(0.0699975 0.00198174 0)
(0.0686757 0.00198285 0)
(0.0673534 0.00198372 0)
(0.0660305 0.00198438 0)
(0.0647073 0.00198483 0)
(0.0633838 0.00198508 0)
(0.0620603 0.00198514 0)
(0.0607368 0.00198504 0)
(0.0594134 0.00198477 0)
(0.0580902 0.00198436 0)
(0.0567674 0.00198381 0)
(0.055445 0.00198313 0)
(0.0541231 0.00198233 0)
(0.0528018 0.00198142 0)
(0.0514811 0.00198042 0)
(0.0501611 0.00197933 0)
(0.0488419 0.00197816 0)
(0.0475235 0.00197692 0)
(0.0462059 0.00197561 0)
(0.0448892 0.00197426 0)
(0.0435735 0.00197285 0)
(0.0422587 0.00197141 0)
(0.0409449 0.00196994 0)
(0.0396321 0.00196845 0)
(0.0383203 0.00196694 0)
(0.0370095 0.00196542 0)
(0.0356997 0.0019639 0)
(0.034391 0.00196238 0)
(0.0330833 0.00196086 0)
(0.0317765 0.00195936 0)
(0.0304708 0.00195789 0)
(0.029166 0.00195643 0)
(0.0278623 0.00195501 0)
(0.0265594 0.00195362 0)
(0.0252575 0.00195226 0)
(0.0239564 0.00195095 0)
(0.0226563 0.00194969 0)
(0.0213569 0.00194848 0)
(0.0200584 0.00194732 0)
(0.0187606 0.00194621 0)
(0.0174635 0.00194517 0)
(0.0161671 0.00194419 0)
(0.0148713 0.00194328 0)
(0.0135761 0.00194243 0)
(0.0122815 0.00194165 0)
(0.0109874 0.00194095 0)
(0.00969367 0.00194032 0)
(0.00840037 0.00193976 0)
(0.00710741 0.00193928 0)
(0.00581475 0.00193888 0)
(0.00452234 0.00193856 0)
(0.00323011 0.00193832 0)
(0.00193801 0.00193816 0)
(0.000645995 0.00193808 0)
(0.000719437 -0.00359764 0)
(0.00215835 -0.00359783 0)
(0.00359737 -0.00359819 0)
(0.00503657 -0.00359874 0)
(0.00647604 -0.00359946 0)
(0.00791583 -0.00360037 0)
(0.00935602 -0.00360144 0)
(0.0107967 -0.00360269 0)
(0.0122379 -0.0036041 0)
(0.0136797 -0.00360567 0)
(0.0151221 -0.0036074 0)
(0.0165653 -0.00360927 0)
(0.0180093 -0.00361129 0)
(0.0194541 -0.00361344 0)
(0.0208998 -0.00361571 0)
(0.0223465 -0.0036181 0)
(0.0237941 -0.00362059 0)
(0.0252428 -0.00362318 0)
(0.0266925 -0.00362585 0)
(0.0281433 -0.00362859 0)
(0.0295953 -0.00363139 0)
(0.0310484 -0.00363423 0)
(0.0325026 -0.00363711 0)
(0.033958 -0.00364 0)
(0.0354146 -0.00364289 0)
(0.0368724 -0.00364577 0)
(0.0383313 -0.00364861 0)
(0.0397913 -0.0036514 0)
(0.0412525 -0.00365412 0)
(0.0427148 -0.00365674 0)
(0.0441781 -0.00365926 0)
(0.0456424 -0.00366164 0)
(0.0471077 -0.00366387 0)
(0.0485739 -0.00366593 0)
(0.0500408 -0.00366778 0)
(0.0515085 -0.0036694 0)
(0.0529768 -0.00367078 0)
(0.0544456 -0.00367188 0)
(0.0559148 -0.00367267 0)
(0.0573843 -0.00367313 0)
(0.058854 -0.00367323 0)
(0.0603236 -0.00367295 0)
(0.0617931 -0.00367224 0)
(0.0632622 -0.00367109 0)
(0.0647308 -0.00366945 0)
(0.0661987 -0.0036673 0)
(0.0676657 -0.0036646 0)
(0.0691314 -0.00366133 0)
(0.0705958 -0.00365744 0)
(0.0720586 -0.00365291 0)
(0.0735194 -0.00364769 0)
(0.074978 -0.00364176 0)
(0.0764341 -0.00363507 0)
(0.0778875 -0.00362759 0)
(0.0793377 -0.00361929 0)
(0.0807845 -0.00361012 0)
(0.0822274 -0.00360006 0)
(0.0836662 -0.00358905 0)
(0.0851004 -0.00357708 0)
(0.0865297 -0.00356409 0)
(0.0879536 -0.00355006 0)
(0.0893717 -0.00353495 0)
(0.0907835 -0.00351871 0)
(0.0921887 -0.00350132 0)
(0.0935867 -0.00348274 0)
(0.0949771 -0.00346293 0)
(0.0963594 -0.00344186 0)
(0.0977329 -0.00341949 0)
(0.0990973 -0.0033958 0)
(0.100452 -0.00337076 0)
(0.101796 -0.00334432 0)
(0.10313 -0.00331647 0)
(0.104452 -0.00328717 0)
(0.105762 -0.0032564 0)
(0.10706 -0.00322413 0)
(0.108344 -0.00319035 0)
(0.109615 -0.00315502 0)
(0.110871 -0.00311814 0)
(0.112112 -0.00307967 0)
(0.113338 -0.00303961 0)
(0.114547 -0.00299795 0)
(0.115739 -0.00295467 0)
(0.116914 -0.00290977 0)
(0.11807 -0.00286323 0)
(0.119207 -0.00281506 0)
(0.120325 -0.00276526 0)
(0.121422 -0.00271383 0)
(0.122499 -0.00266076 0)
(0.123554 -0.00260608 0)
(0.124587 -0.00254979 0)
(0.125597 -0.00249191 0)
(0.126583 -0.00243245 0)
(0.127545 -0.00237144 0)
(0.128483 -0.00230889 0)
(0.129395 -0.00224483 0)
(0.130281 -0.00217929 0)
(0.131141 -0.00211231 0)
(0.131974 -0.00204392 0)
(0.132779 -0.00197415 0)
(0.133556 -0.00190306 0)
(0.134304 -0.00183067 0)
(0.135022 -0.00175705 0)
(0.135711 -0.00168224 0)
(0.13637 -0.00160628 0)
(0.136998 -0.00152925 0)
(0.137595 -0.00145118 0)
(0.138161 -0.00137215 0)
(0.138695 -0.00129221 0)
(0.139196 -0.00121144 0)
(0.139665 -0.00112988 0)
(0.140101 -0.00104761 0)
(0.140505 -0.000964702 0)
(0.140874 -0.000881221 0)
(0.14121 -0.000797239 0)
(0.141513 -0.000712828 0)
(0.141781 -0.000628062 0)
(0.142016 -0.000543012 0)
(0.142216 -0.000457753 0)
(0.142382 -0.000372359 0)
(0.142514 -0.000286905 0)
(0.142612 -0.000201464 0)
(0.142675 -0.000116109 0)
(0.142704 -3.09143e-05 0)
(0.142699 5.40483e-05 0)
(0.142661 0.000138707 0)
(0.142588 0.000222992 0)
(0.142481 0.000306833 0)
(0.142341 0.000390163 0)
(0.142168 0.000472915 0)
(0.141962 0.000555025 0)
(0.141723 0.00063643 0)
(0.141451 0.000717069 0)
(0.141148 0.000796882 0)
(0.140812 0.000875814 0)
(0.140445 0.00095381 0)
(0.140047 0.00103082 0)
(0.139619 0.00110679 0)
(0.13916 0.00118167 0)
(0.138672 0.00125543 0)
(0.138154 0.00132801 0)
(0.137607 0.00139938 0)
(0.137032 0.0014695 0)
(0.136429 0.00153835 0)
(0.135799 0.00160588 0)
(0.135142 0.00167206 0)
(0.134459 0.00173688 0)
(0.13375 0.00180031 0)
(0.133016 0.00186233 0)
(0.132257 0.00192292 0)
(0.131475 0.00198207 0)
(0.130669 0.00203976 0)
(0.129841 0.00209598 0)
(0.12899 0.00215073 0)
(0.128117 0.00220399 0)
(0.127224 0.00225577 0)
(0.12631 0.00230607 0)
(0.125376 0.00235489 0)
(0.124423 0.00240222 0)
(0.123452 0.00244809 0)
(0.122462 0.00249248 0)
(0.121455 0.00253542 0)
(0.120431 0.00257691 0)
(0.119391 0.00261696 0)
(0.118335 0.0026556 0)
(0.117264 0.00269283 0)
(0.116179 0.00272867 0)
(0.115079 0.00276315 0)
(0.113966 0.00279627 0)
(0.112839 0.00282807 0)
(0.111701 0.00285856 0)
(0.11055 0.00288776 0)
(0.109388 0.0029157 0)
(0.108215 0.0029424 0)
(0.107032 0.0029679 0)
(0.105839 0.0029922 0)
(0.104636 0.00301535 0)
(0.103425 0.00303736 0)
(0.102204 0.00305827 0)
(0.100976 0.0030781 0)
(0.0997401 0.00309688 0)
(0.0984968 0.00311463 0)
(0.0972466 0.0031314 0)
(0.0959899 0.00314719 0)
(0.0947272 0.00316205 0)
(0.0934587 0.003176 0)
(0.0921848 0.00318907 0)
(0.0909059 0.00320128 0)
(0.0896223 0.00321268 0)
(0.0883343 0.00322327 0)
(0.0870423 0.0032331 0)
(0.0857465 0.00324219 0)
(0.0844472 0.00325056 0)
(0.0831448 0.00325825 0)
(0.0818394 0.00326529 0)
(0.0805314 0.00327169 0)
(0.079221 0.00327748 0)
(0.0779084 0.00328269 0)
(0.0765939 0.00328735 0)
(0.0752776 0.00329148 0)
(0.0739598 0.0032951 0)
(0.0726406 0.00329824 0)
(0.0713204 0.00330092 0)
(0.0699991 0.00330317 0)
(0.0686771 0.003305 0)
(0.0673544 0.00330645 0)
(0.0660313 0.00330753 0)
(0.0647078 0.00330826 0)
(0.0633841 0.00330866 0)
(0.0620603 0.00330876 0)
(0.0607365 0.00330858 0)
(0.0594129 0.00330812 0)
(0.0580896 0.00330742 0)
(0.0567666 0.00330649 0)
(0.055444 0.00330534 0)
(0.054122 0.003304 0)
(0.0528005 0.00330248 0)
(0.0514797 0.0033008 0)
(0.0501596 0.00329897 0)
(0.0488403 0.00329701 0)
(0.0475218 0.00329493 0)
(0.0462041 0.00329275 0)
(0.0448874 0.00329048 0)
(0.0435716 0.00328813 0)
(0.0422568 0.00328572 0)
(0.040943 0.00328326 0)
(0.0396301 0.00328077 0)
(0.0383183 0.00327824 0)
(0.0370075 0.0032757 0)
(0.0356977 0.00327316 0)
(0.034389 0.00327062 0)
(0.0330813 0.00326809 0)
(0.0317745 0.00326559 0)
(0.0304688 0.00326311 0)
(0.0291641 0.00326069 0)
(0.0278604 0.00325831 0)
(0.0265576 0.00325598 0)
(0.0252557 0.00325372 0)
(0.0239547 0.00325154 0)
(0.0226546 0.00324943 0)
(0.0213553 0.0032474 0)
(0.0200569 0.00324546 0)
(0.0187591 0.00324362 0)
(0.0174621 0.00324188 0)
(0.0161658 0.00324024 0)
(0.0148702 0.00323872 0)
(0.0135751 0.0032373 0)
(0.0122805 0.00323601 0)
(0.0109865 0.00323483 0)
(0.00969288 0.00323378 0)
(0.00839968 0.00323285 0)
(0.00710683 0.00323205 0)
(0.00581427 0.00323138 0)
(0.00452196 0.00323084 0)
(0.00322984 0.00323044 0)
(0.00193785 0.00323017 0)
(0.000645941 0.00323004 0)
(0.000719326 -0.00503644 0)
(0.00215802 -0.0050367 0)
(0.00359682 -0.00503721 0)
(0.00503581 -0.00503798 0)
(0.00647505 -0.005039 0)
(0.00791463 -0.00504027 0)
(0.00935462 -0.00504178 0)
(0.0107951 -0.00504354 0)
(0.0122361 -0.00504552 0)
(0.0136777 -0.00504773 0)
(0.01512 -0.00505015 0)
(0.016563 -0.00505279 0)
(0.0180068 -0.00505562 0)
(0.0194514 -0.00505864 0)
(0.020897 -0.00506183 0)
(0.0223435 -0.00506519 0)
(0.023791 -0.00506869 0)
(0.0252396 -0.00507233 0)
(0.0266892 -0.00507608 0)
(0.02814 -0.00507994 0)
(0.0295919 -0.00508388 0)
(0.0310449 -0.00508788 0)
(0.0324991 -0.00509193 0)
(0.0339545 -0.005096 0)
(0.0354111 -0.00510007 0)
(0.0368689 -0.00510412 0)
(0.0383279 -0.00510812 0)
(0.039788 -0.00511206 0)
(0.0412493 -0.00511589 0)
(0.0427117 -0.0051196 0)
(0.0441751 -0.00512315 0)
(0.0456396 -0.00512652 0)
(0.0471051 -0.00512967 0)
(0.0485715 -0.00513258 0)
(0.0500387 -0.0051352 0)
(0.0515066 -0.00513752 0)
(0.0529753 -0.00513948 0)
(0.0544444 -0.00514105 0)
(0.055914 -0.0051422 0)
(0.057384 -0.00514289 0)
(0.0588541 -0.00514307 0)
(0.0603242 -0.00514271 0)
(0.0617942 -0.00514177 0)
(0.0632639 -0.00514019 0)
(0.0647331 -0.00513795 0)
(0.0662016 -0.00513498 0)
(0.0676692 -0.00513126 0)
(0.0691357 -0.00512672 0)
(0.0706008 -0.00512133 0)
(0.0720644 -0.00511503 0)
(0.073526 -0.00510777 0)
(0.0749855 -0.00509951 0)
(0.0764426 -0.0050902 0)
(0.0778969 -0.00507978 0)
(0.0793481 -0.00506821 0)
(0.0807959 -0.00505543 0)
(0.08224 -0.00504139 0)
(0.0836799 -0.00502604 0)
(0.0851153 -0.00500933 0)
(0.0865458 -0.0049912 0)
(0.087971 -0.0049716 0)
(0.0893904 -0.00495049 0)
(0.0908037 -0.00492781 0)
(0.0922103 -0.00490351 0)
(0.0936097 -0.00487755 0)
(0.0950016 -0.00484986 0)
(0.0963854 -0.00482041 0)
(0.0977605 -0.00478915 0)
(0.0991265 -0.00475603 0)
(0.100483 -0.004721 0)
(0.101829 -0.00468403 0)
(0.103164 -0.00464508 0)
(0.104488 -0.0046041 0)
(0.1058 -0.00456105 0)
(0.1071 -0.00451591 0)
(0.108386 -0.00446864 0)
(0.109658 -0.00441922 0)
(0.110916 -0.0043676 0)
(0.11216 -0.00431377 0)
(0.113387 -0.00425771 0)
(0.114598 -0.0041994 0)
(0.115792 -0.00413882 0)
(0.116969 -0.00407596 0)
(0.118127 -0.00401081 0)
(0.119266 -0.00394338 0)
(0.120386 -0.00387365 0)
(0.121485 -0.00380163 0)
(0.122564 -0.00372734 0)
(0.12362 -0.00365077 0)
(0.124655 -0.00357194 0)
(0.125667 -0.00349088 0)
(0.126655 -0.00340761 0)
(0.12762 -0.00332216 0)
(0.128559 -0.00323455 0)
(0.129473 -0.00314483 0)
(0.130361 -0.00305303 0)
(0.131222 -0.00295921 0)
(0.132057 -0.00286341 0)
(0.132863 -0.00276568 0)
(0.133642 -0.00266608 0)
(0.134391 -0.00256468 0)
(0.135111 -0.00246154 0)
(0.135802 -0.00235673 0)
(0.136462 -0.00225031 0)
(0.137091 -0.00214238 0)
(0.13769 -0.00203301 0)
(0.138256 -0.00192228 0)
(0.138791 -0.00181028 0)
(0.139294 -0.0016971 0)
(0.139764 -0.00158282 0)
(0.140201 -0.00146755 0)
(0.140604 -0.00135138 0)
(0.140975 -0.00123441 0)
(0.141312 -0.00111674 0)
(0.141614 -0.000998459 0)
(0.141883 -0.000879682 0)
(0.142118 -0.000760509 0)
(0.142319 -0.000641044 0)
(0.142485 -0.000521389 0)
(0.142617 -0.000401649 0)
(0.142714 -0.000281928 0)
(0.142778 -0.00016233 0)
(0.142807 -4.29556e-05 0)
(0.142801 7.6092e-05 0)
(0.142762 0.000194713 0)
(0.142689 0.000312809 0)
(0.142582 0.000430281 0)
(0.142441 0.000547036 0)
(0.142267 0.00066298 0)
(0.14206 0.000778022 0)
(0.14182 0.000892074 0)
(0.141548 0.00100505 0)
(0.141243 0.00111687 0)
(0.140907 0.00122745 0)
(0.140539 0.00133672 0)
(0.140139 0.0014446 0)
(0.13971 0.00155102 0)
(0.139249 0.00165592 0)
(0.138759 0.00175924 0)
(0.13824 0.00186091 0)
(0.137692 0.00196088 0)
(0.137115 0.0020591 0)
(0.136511 0.00215552 0)
(0.135879 0.0022501 0)
(0.135221 0.0023428 0)
(0.134536 0.00243358 0)
(0.133825 0.00252241 0)
(0.13309 0.00260927 0)
(0.132329 0.00269411 0)
(0.131545 0.00277693 0)
(0.130738 0.00285771 0)
(0.129907 0.00293643 0)
(0.129055 0.00301309 0)
(0.12818 0.00308766 0)
(0.127285 0.00316016 0)
(0.12637 0.00323058 0)
(0.125434 0.00329891 0)
(0.124479 0.00336518 0)
(0.123506 0.00342937 0)
(0.122515 0.00349151 0)
(0.121506 0.00355161 0)
(0.12048 0.00360968 0)
(0.119438 0.00366574 0)
(0.118381 0.00371981 0)
(0.117308 0.00377191 0)
(0.116221 0.00382206 0)
(0.115119 0.0038703 0)
(0.114005 0.00391664 0)
(0.112877 0.00396112 0)
(0.111737 0.00400378 0)
(0.110585 0.00404463 0)
(0.109421 0.00408371 0)
(0.108247 0.00412106 0)
(0.107062 0.00415672 0)
(0.105868 0.00419071 0)
(0.104663 0.00422308 0)
(0.10345 0.00425386 0)
(0.102229 0.00428309 0)
(0.100999 0.00431081 0)
(0.099762 0.00433706 0)
(0.0985175 0.00436188 0)
(0.0972662 0.00438531 0)
(0.0960083 0.00440738 0)
(0.0947445 0.00442814 0)
(0.0934749 0.00444763 0)
(0.0922 0.00446589 0)
(0.0909201 0.00448295 0)
(0.0896355 0.00449886 0)
(0.0883466 0.00451366 0)
(0.0870536 0.00452738 0)
(0.085757 0.00454006 0)
(0.0844569 0.00455175 0)
(0.0831537 0.00456248 0)
(0.0818475 0.00457229 0)
(0.0805388 0.00458121 0)
(0.0792276 0.00458928 0)
(0.0779143 0.00459654 0)
(0.0765991 0.00460303 0)
(0.0752822 0.00460877 0)
(0.0739638 0.00461381 0)
(0.0726441 0.00461817 0)
(0.0713233 0.0046219 0)
(0.0700016 0.00462501 0)
(0.0686791 0.00462755 0)
(0.0673559 0.00462955 0)
(0.0660324 0.00463103 0)
(0.0647085 0.00463202 0)
(0.0633844 0.00463256 0)
(0.0620602 0.00463267 0)
(0.0607362 0.00463238 0)
(0.0594123 0.00463172 0)
(0.0580886 0.00463071 0)
(0.0567653 0.00462938 0)
(0.0554425 0.00462775 0)
(0.0541203 0.00462585 0)
(0.0527986 0.0046237 0)
(0.0514776 0.00462132 0)
(0.0501573 0.00461874 0)
(0.0488379 0.00461597 0)
(0.0475192 0.00461304 0)
(0.0462015 0.00460997 0)
(0.0448847 0.00460677 0)
(0.0435688 0.00460347 0)
(0.0422539 0.00460008 0)
(0.04094 0.00459663 0)
(0.0396271 0.00459311 0)
(0.0383153 0.00458956 0)
(0.0370045 0.00458599 0)
(0.0356947 0.00458241 0)
(0.0343859 0.00457884 0)
(0.0330782 0.00457529 0)
(0.0317716 0.00457177 0)
(0.0304659 0.0045683 0)
(0.0291613 0.00456489 0)
(0.0278576 0.00456155 0)
(0.0265548 0.00455829 0)
(0.0252531 0.00455511 0)
(0.0239522 0.00455204 0)
(0.0226521 0.00454908 0)
(0.021353 0.00454623 0)
(0.0200546 0.00454351 0)
(0.018757 0.00454093 0)
(0.0174601 0.00453849 0)
(0.0161639 0.00453619 0)
(0.0148684 0.00453404 0)
(0.0135734 0.00453206 0)
(0.012279 0.00453024 0)
(0.0109851 0.00452859 0)
(0.00969169 0.00452711 0)
(0.00839865 0.00452581 0)
(0.00710595 0.00452469 0)
(0.00581355 0.00452375 0)
(0.0045214 0.004523 0)
(0.00322943 0.00452243 0)
(0.00193761 0.00452206 0)
(0.00064586 0.00452187 0)
(0.000719178 -0.00647498 0)
(0.00215757 -0.00647532 0)
(0.00359608 -0.00647598 0)
(0.00503478 -0.00647697 0)
(0.00647374 -0.00647829 0)
(0.00791303 -0.00647993 0)
(0.00935274 -0.00648188 0)
(0.0107929 -0.00648415 0)
(0.0122337 -0.00648671 0)
(0.013675 -0.00648956 0)
(0.0151171 -0.0064927 0)
(0.0165598 -0.0064961 0)
(0.0180034 -0.00649976 0)
(0.0194479 -0.00650366 0)
(0.0208932 -0.00650779 0)
(0.0223396 -0.00651213 0)
(0.0237869 -0.00651666 0)
(0.0252353 -0.00652136 0)
(0.0266849 -0.00652622 0)
(0.0281355 -0.00653121 0)
(0.0295873 -0.00653631 0)
(0.0310403 -0.00654149 0)
(0.0324944 -0.00654673 0)
(0.0339498 -0.006552 0)
(0.0354064 -0.00655727 0)
(0.0368643 -0.00656252 0)
(0.0383233 -0.00656771 0)
(0.0397835 -0.00657281 0)
(0.0412449 -0.00657779 0)
(0.0427075 -0.0065826 0)
(0.0441711 -0.00658722 0)
(0.0456359 -0.00659161 0)
(0.0471016 -0.00659572 0)
(0.0485683 -0.00659951 0)
(0.0500358 -0.00660295 0)
(0.0515041 -0.00660598 0)
(0.0529732 -0.00660856 0)
(0.0544428 -0.00661065 0)
(0.0559129 -0.0066122 0)
(0.0573834 -0.00661315 0)
(0.0588541 -0.00661346 0)
(0.0603249 -0.00661306 0)
(0.0617955 -0.00661192 0)
(0.063266 -0.00660997 0)
(0.064736 -0.00660716 0)
(0.0662053 -0.00660343 0)
(0.0676738 -0.00659872 0)
(0.0691413 -0.00659297 0)
(0.0706074 -0.00658611 0)
(0.072072 -0.0065781 0)
(0.0735348 -0.00656886 0)
(0.0749955 -0.00655832 0)
(0.0764538 -0.00654644 0)
(0.0779094 -0.00653313 0)
(0.079362 -0.00651834 0)
(0.0808112 -0.006502 0)
(0.0822567 -0.00648403 0)
(0.0836982 -0.00646439 0)
(0.0851352 -0.00644299 0)
(0.0865673 -0.00641977 0)
(0.0879942 -0.00639466 0)
(0.0894154 -0.00636761 0)
(0.0908304 -0.00633854 0)
(0.0922389 -0.00630738 0)
(0.0936403 -0.00627408 0)
(0.0950342 -0.00623856 0)
(0.09642 -0.00620078 0)
(0.0977973 -0.00616066 0)
(0.0991654 -0.00611815 0)
(0.100524 -0.00607319 0)
(0.101872 -0.00602573 0)
(0.10321 -0.00597571 0)
(0.104536 -0.00592309 0)
(0.105851 -0.00586781 0)
(0.107152 -0.00580983 0)
(0.108441 -0.0057491 0)
(0.109716 -0.0056856 0)
(0.110977 -0.00561927 0)
(0.112222 -0.0055501 0)
(0.113452 -0.00547806 0)
(0.114666 -0.00540311 0)
(0.115863 -0.00532524 0)
(0.117042 -0.00524444 0)
(0.118202 -0.00516069 0)
(0.119344 -0.00507398 0)
(0.120467 -0.00498433 0)
(0.121569 -0.00489172 0)
(0.12265 -0.00479618 0)
(0.123709 -0.00469771 0)
(0.124747 -0.00459633 0)
(0.125761 -0.00449207 0)
(0.126752 -0.00438496 0)
(0.127718 -0.00427503 0)
(0.12866 -0.00416233 0)
(0.129577 -0.00404691 0)
(0.130467 -0.00392881 0)
(0.131331 -0.00380809 0)
(0.132167 -0.00368482 0)
(0.132976 -0.00355907 0)
(0.133757 -0.00343092 0)
(0.134508 -0.00330043 0)
(0.13523 -0.0031677 0)
(0.135923 -0.00303281 0)
(0.136585 -0.00289587 0)
(0.137216 -0.00275696 0)
(0.137816 -0.0026162 0)
(0.138384 -0.00247368 0)
(0.13892 -0.00232953 0)
(0.139424 -0.00218385 0)
(0.139895 -0.00203677 0)
(0.140333 -0.0018884 0)
(0.140738 -0.00173887 0)
(0.141109 -0.0015883 0)
(0.141447 -0.00143683 0)
(0.14175 -0.00128459 0)
(0.142019 -0.0011317 0)
(0.142255 -0.000978301 0)
(0.142455 -0.000824524 0)
(0.142622 -0.000670504 0)
(0.142754 -0.000516375 0)
(0.142851 -0.000362272 0)
(0.142914 -0.000208326 0)
(0.142943 -5.46714e-05 0)
(0.142937 9.85617e-05 0)
(0.142897 0.000251244 0)
(0.142824 0.000403247 0)
(0.142716 0.000554447 0)
(0.142574 0.00070472 0)
(0.142399 0.000853945 0)
(0.142191 0.00100201 0)