/*--------------------------------*- C++ -*----------------------------------*\
| =========                 |                                                 |
| \\      /  F ield         | OpenFOAM: The Open Source CFD Toolbox           |
|  \\    /   O peration     | Version:  v2012                                 |
|   \\  /    A nd           | Website:  www.openfoam.com                      |
|    \\/     M anipulation  |                                                 |
\*---------------------------------------------------------------------------*/
FoamFile
{
    version     2.0;
    format      ascii;
    class       volScalarField;
    location    "13";
    object      W;
}
// * * * * * * * * * * * * * * * * * * * * * * * * * * * * * * * * * * * * * //

dimensions      [0 0 -1 0 0 0 0];


internalField   nonuniform List<scalar> 
65536
(
2.9048e-17
8.76284e-17
1.47676e-16
2.10207e-16
2.76277e-16
3.46996e-16
4.23542e-16
5.07177e-16
5.9927e-16
7.01311e-16
8.14931e-16
9.41927e-16
1.08429e-15
1.2442e-15
1.42412e-15
1.62674e-15
1.85508e-15
2.11248e-15
2.40268e-15
2.7298e-15
3.09846e-15
3.51377e-15
3.98141e-15
4.50768e-15
5.09956e-15
5.7648e-15
6.51195e-15
7.35047e-15
8.29081e-15
9.34448e-15
1.05242e-14
1.18438e-14
1.33188e-14
1.49659e-14
1.68035e-14
1.88518e-14
2.11329e-14
2.36707e-14
2.64915e-14
2.96236e-14
3.30981e-14
3.69483e-14
4.12106e-14
4.59241e-14
5.11311e-14
5.68771e-14
6.32108e-14
7.01847e-14
7.78548e-14
8.6281e-14
9.55272e-14
1.05661e-13
1.16755e-13
1.28885e-13
1.42131e-13
1.56579e-13
1.72317e-13
1.8944e-13
2.08043e-13
2.2823e-13
2.50105e-13
2.73778e-13
2.99362e-13
3.26973e-13
3.56729e-13
3.88751e-13
4.23164e-13
4.6009e-13
4.99656e-13
5.41986e-13
5.87205e-13
6.35437e-13
6.86802e-13
7.41418e-13
7.99398e-13
8.6085e-13
9.25877e-13
9.94571e-13
1.06702e-12
1.1433e-12
1.22347e-12
1.3076e-12
1.39571e-12
1.48783e-12
1.58398e-12
1.68414e-12
1.7883e-12
1.8964e-12
2.00839e-12
2.12418e-12
2.24367e-12
2.36674e-12
2.49323e-12
2.62298e-12
2.7558e-12
2.89148e-12
3.02977e-12
3.17043e-12
3.31317e-12
3.45771e-12
3.60371e-12
3.75085e-12
3.89877e-12
4.04711e-12
4.19548e-12
4.34348e-12
4.49072e-12
4.63676e-12
4.7812e-12
4.92358e-12
5.0635e-12
5.2005e-12
5.33414e-12
5.46401e-12
5.58965e-12
5.71066e-12
5.8266e-12
5.93708e-12
6.0417e-12
6.14006e-12
6.23181e-12
6.31657e-12
6.39403e-12
6.46385e-12
6.52574e-12
6.57941e-12
6.62462e-12
6.66112e-12
6.68871e-12
6.70719e-12
6.71641e-12
6.71624e-12
6.70657e-12
6.68732e-12
6.65844e-12
6.61992e-12
6.57177e-12
6.51403e-12
6.44679e-12
6.37014e-12
6.28424e-12
6.18928e-12
6.08546e-12
5.97304e-12
5.85231e-12
5.72359e-12
5.58727e-12
5.44373e-12
5.29343e-12
5.13684e-12
4.97447e-12
4.80688e-12
4.63465e-12
4.45838e-12
4.27873e-12
4.09637e-12
3.91197e-12
3.72624e-12
3.53992e-12
3.35371e-12
3.16835e-12
2.98457e-12
2.80308e-12
2.62458e-12
2.44974e-12
2.27922e-12
2.11362e-12
1.95352e-12
1.79945e-12
1.65186e-12
1.51119e-12
1.37779e-12
1.25195e-12
1.13389e-12
1.02379e-12
9.21731e-13
8.27747e-13
7.41802e-13
6.63799e-13
5.93581e-13
5.30935e-13
4.75599e-13
4.27261e-13
3.8557e-13
3.50136e-13
3.20538e-13
2.96327e-13
2.77035e-13
2.62174e-13
2.51246e-13
2.43748e-13
2.39174e-13
2.37021e-13
2.36796e-13
2.38019e-13
2.40231e-13
2.42997e-13
2.45912e-13
2.48606e-13
2.50749e-13
2.52058e-13
2.52295e-13
2.51276e-13
2.48868e-13
2.44992e-13
2.39622e-13
2.32783e-13
2.24546e-13
2.15025e-13
2.04368e-13
1.92755e-13
1.80384e-13
1.67467e-13
1.54223e-13
1.40866e-13
1.27602e-13
1.14618e-13
1.02085e-13
9.0144e-14
7.89125e-14
6.84781e-14
5.89009e-14
5.02137e-14
4.2425e-14
3.55213e-14
2.94709e-14
2.42274e-14
1.97334e-14
1.59238e-14
1.27297e-14
1.00806e-14
7.90732e-15
6.14355e-15
4.7275e-15
3.60282e-15
2.71912e-15
2.03219e-15
1.50394e-15
1.10205e-15
7.99568e-16
5.74345e-16
4.08443e-16
2.87548e-16
2.00395e-16
1.38243e-16
9.43959e-17
6.37955e-17
4.26688e-17
2.82379e-17
1.84829e-17
1.19519e-17
7.61314e-18
4.73848e-18
2.81545e-18
1.47914e-18
4.59695e-19
1.00879e-16
3.0432e-16
5.12863e-16
7.30041e-16
9.59525e-16
1.20517e-15
1.47108e-15
1.76163e-15
2.0816e-15
2.43615e-15
2.83096e-15
3.2723e-15
3.76706e-15
4.32289e-15
4.94827e-15
5.65264e-15
6.44646e-15
7.34139e-15
8.35038e-15
9.48787e-15
1.07699e-14
1.22142e-14
1.38405e-14
1.56709e-14
1.77296e-14
2.00435e-14
2.26425e-14
2.55593e-14
2.88305e-14
3.2496e-14
3.65999e-14
4.11909e-14
4.63221e-14
5.20521e-14
5.84448e-14
6.55704e-14
7.35053e-14
8.23331e-14
9.21444e-14
1.03038e-13
1.15122e-13
1.28511e-13
1.43331e-13
1.59719e-13
1.7782e-13
1.97791e-13
2.19802e-13
2.44033e-13
2.70677e-13
2.99943e-13
3.32048e-13
3.67227e-13
4.05727e-13
4.4781e-13
4.93753e-13
5.43844e-13
5.9839e-13
6.57708e-13
7.22131e-13
7.92006e-13
8.67689e-13
9.49551e-13
1.03797e-12
1.13334e-12
1.23607e-12
1.34654e-12
1.46518e-12
1.5924e-12
1.72862e-12
1.87423e-12
2.02966e-12
2.1953e-12
2.37155e-12
2.55877e-12
2.75733e-12
2.96757e-12
3.18979e-12
3.4243e-12
3.67133e-12
3.93111e-12
4.20381e-12
4.48956e-12
4.78845e-12
5.10052e-12
5.42573e-12
5.76401e-12
6.11521e-12
6.47913e-12
6.85548e-12
7.24392e-12
7.64404e-12
8.05534e-12
8.47727e-12
8.90918e-12
9.35036e-12
9.80004e-12
1.02574e-11
1.07214e-11
1.11912e-11
1.16656e-11
1.21436e-11
1.26241e-11
1.31057e-11
1.35872e-11
1.40674e-11
1.45448e-11
1.50181e-11
1.5486e-11
1.5947e-11
1.63997e-11
1.68427e-11
1.72746e-11
1.76939e-11
1.80993e-11
1.84895e-11
1.88631e-11
1.92188e-11
1.95553e-11
1.98714e-11
2.01661e-11
2.04381e-11
2.06864e-11
2.09101e-11
2.11082e-11
2.12799e-11
2.14245e-11
2.15411e-11
2.16292e-11
2.16883e-11
2.1718e-11
2.17177e-11
2.16873e-11
2.16266e-11
2.15354e-11
2.14137e-11
2.12616e-11
2.10794e-11
2.08672e-11
2.06254e-11
2.03545e-11
2.00551e-11
1.97279e-11
1.93736e-11
1.89931e-11
1.85875e-11
1.81579e-11
1.77054e-11
1.72315e-11
1.67376e-11
1.62252e-11
1.56959e-11
1.51516e-11
1.45941e-11
1.40254e-11
1.34473e-11
1.28621e-11
1.22719e-11
1.16789e-11
1.10852e-11
1.04931e-11
9.90495e-12
9.32284e-12
8.749e-12
8.18554e-12
7.63451e-12
7.09788e-12
6.57748e-12
6.07502e-12
5.59207e-12
5.13003e-12
4.69012e-12
4.27339e-12
3.88066e-12
3.5126e-12
3.16963e-12
2.85198e-12
2.5597e-12
2.29261e-12
2.05037e-12
1.83244e-12
1.63811e-12
1.46654e-12
1.31673e-12
1.18756e-12
1.07779e-12
9.86099e-13
9.11085e-13
8.51278e-13
8.05163e-13
7.71193e-13
7.47803e-13
7.33428e-13
7.26517e-13
7.25547e-13
7.29042e-13
7.35586e-13
7.43843e-13
7.52569e-13
7.60631e-13
7.6702e-13
7.70863e-13
7.71438e-13
7.6818e-13
7.60683e-13
7.4871e-13
7.32181e-13
7.11173e-13
6.85906e-13
6.56726e-13
6.24092e-13
5.88547e-13
5.50701e-13
5.11202e-13
4.70716e-13
4.29897e-13
3.8937e-13
3.49713e-13
3.11437e-13
2.74979e-13
2.40693e-13
2.08846e-13
1.7962e-13
1.53114e-13
1.29352e-13
1.08294e-13
8.98404e-14
7.38499e-14
6.01463e-14
4.85313e-14
3.87937e-14
3.07185e-14
2.40942e-14
1.87187e-14
1.44032e-14
1.0976e-14
8.28334e-15
6.19039e-15
4.58101e-15
3.35668e-15
2.43526e-15
1.74922e-15
1.24389e-15
8.75679e-16
6.10248e-16
4.20965e-16
2.87437e-16
1.94252e-16
1.29919e-16
8.59777e-17
5.62745e-17
3.63891e-17
2.31787e-17
1.44264e-17
8.5716e-18
4.5032e-18
1.39956e-18
2.19552e-16
6.62326e-16
1.11623e-15
1.58897e-15
2.08854e-15
2.62335e-15
3.20235e-15
3.83511e-15
4.53201e-15
5.30435e-15
6.16454e-15
7.12621e-15
8.20445e-15
9.41596e-15
1.07793e-14
1.23149e-14
1.40459e-14
1.59975e-14
1.81982e-14
2.06794e-14
2.34762e-14
2.66274e-14
3.01762e-14
3.41705e-14
3.86635e-14
4.3714e-14
4.9387e-14
5.57545e-14
6.28957e-14
7.08982e-14
7.98582e-14
8.98818e-14
1.01085e-13
1.13596e-13
1.27553e-13
1.4311e-13
1.60434e-13
1.79705e-13
2.01122e-13
2.249e-13
2.51271e-13
2.80487e-13
3.12822e-13
3.48569e-13
3.88044e-13
4.31589e-13
4.79568e-13
5.32372e-13
5.90417e-13
6.54148e-13
7.24036e-13
8.00584e-13
8.84321e-13
9.75806e-13
1.07563e-12
1.1844e-12
1.30278e-12
1.43142e-12
1.57105e-12
1.72237e-12
1.88614e-12
2.06314e-12
2.25414e-12
2.45997e-12
2.68143e-12
2.91937e-12
3.1746e-12
3.44796e-12
3.74028e-12
4.05238e-12
4.38505e-12
4.73906e-12
5.11517e-12
5.51407e-12
5.93643e-12
6.38284e-12
6.85386e-12
7.34995e-12
7.8715e-12
8.41883e-12
8.99213e-12
9.59153e-12
1.0217e-11
1.08684e-11
1.15456e-11
1.22481e-11
1.29754e-11
1.37269e-11
1.45017e-11
1.52989e-11
1.61174e-11
1.6956e-11
1.78132e-11
1.86875e-11
1.95771e-11
2.04804e-11
2.13952e-11
2.23195e-11
2.32511e-11
2.41876e-11
2.51265e-11
2.60655e-11
2.70017e-11
2.79327e-11
2.88556e-11
2.97677e-11
3.06662e-11
3.15483e-11
3.24112e-11
3.32521e-11
3.40684e-11
3.48572e-11
3.5616e-11
3.63422e-11
3.70332e-11
3.76869e-11
3.83007e-11
3.88727e-11
3.94006e-11
3.98827e-11
4.03172e-11
4.07024e-11
4.10369e-11
4.13193e-11
4.15484e-11
4.17233e-11
4.18431e-11
4.19071e-11
4.19147e-11
4.18657e-11
4.17598e-11
4.15969e-11
4.13772e-11
4.1101e-11
4.07688e-11
4.03811e-11
3.99387e-11
3.94426e-11
3.88939e-11
3.82939e-11
3.7644e-11
3.69459e-11
3.62013e-11
3.54123e-11
3.45809e-11
3.37095e-11
3.28005e-11
3.18567e-11
3.08808e-11
2.98758e-11
2.88448e-11
2.77912e-11
2.67183e-11
2.56298e-11
2.45292e-11
2.34203e-11
2.2307e-11
2.11932e-11
2.00826e-11
1.89794e-11
1.78873e-11
1.68101e-11
1.57517e-11
1.47156e-11
1.37054e-11
1.27242e-11
1.17752e-11
1.08612e-11
9.98478e-12
9.14816e-12
8.35332e-12
7.60186e-12
6.89505e-12
6.23381e-12
5.6187e-12
5.04993e-12
4.52735e-12
4.05049e-12
3.61853e-12
3.23038e-12
2.88465e-12
2.57967e-12
2.31358e-12
2.08427e-12
1.88947e-12
1.72677e-12
1.59361e-12
1.48734e-12
1.40525e-12
1.34458e-12
1.30253e-12
1.27635e-12
1.26328e-12
1.26065e-12
1.26587e-12
1.27645e-12
1.29007e-12
1.30454e-12
1.3179e-12
1.3284e-12
1.33452e-12
1.33501e-12
1.32889e-12
1.31547e-12
1.29434e-12
1.26537e-12
1.22869e-12
1.18468e-12
1.13396e-12
1.07732e-12
1.01569e-12
9.50129e-13
8.81762e-13
8.1173e-13
7.41164e-13
6.7114e-13
6.02651e-13
5.36575e-13
4.73663e-13
4.1452e-13
3.59603e-13
3.09221e-13
2.63541e-13
2.22603e-13
1.86331e-13
1.54555e-13
1.27025e-13
1.03439e-13
8.34508e-14
6.66971e-14
5.28063e-14
4.14134e-14
3.21697e-14
2.47502e-14
1.88588e-14
1.42307e-14
1.06339e-14
7.86846e-15
5.76497e-15
4.18207e-15
3.00367e-15
2.13578e-15
1.50343e-15
1.04764e-15
7.22642e-16
4.93391e-16
3.33418e-16
2.22984e-16
1.47558e-16
9.65759e-17
6.24469e-17
3.97752e-17
2.47553e-17
1.47083e-17
7.7271e-18
2.40153e-18
4.37015e-16
1.31837e-15
2.22194e-15
3.16309e-15
4.1578e-15
5.22284e-15
6.37606e-15
7.6366e-15
9.02517e-15
1.05644e-14
1.2279e-14
1.41962e-14
1.63463e-14
1.87625e-14
2.1482e-14
2.45459e-14
2.8e-14
3.18953e-14
3.62883e-14
4.12421e-14
4.68267e-14
5.31201e-14
6.02085e-14
6.8188e-14
7.71649e-14
8.72567e-14
9.85937e-14
1.1132e-13
1.25594e-13
1.4159e-13
1.59503e-13
1.79542e-13
2.0194e-13
2.26953e-13
2.54859e-13
2.85963e-13
3.20597e-13
3.59124e-13
4.01937e-13
4.49464e-13
5.02169e-13
5.60553e-13
6.25158e-13
6.96566e-13
7.75405e-13
8.62349e-13
9.58118e-13
1.06348e-12
1.17927e-12
1.30634e-12
1.44564e-12
1.59813e-12
1.76486e-12
1.94691e-12
2.14544e-12
2.36163e-12
2.59673e-12
2.85205e-12
3.12892e-12
3.42874e-12
3.75293e-12
4.10294e-12
4.48028e-12
4.88643e-12
5.32293e-12
5.79131e-12
6.29307e-12
6.82974e-12
7.40278e-12
8.01364e-12
8.6637e-12
9.35429e-12
1.00866e-11
1.08619e-11
1.16811e-11
1.25452e-11
1.34548e-11
1.44107e-11
1.54133e-11
1.64627e-11
1.7559e-11
1.87021e-11
1.98914e-11
2.11264e-11
2.24061e-11
2.37292e-11
2.50944e-11
2.64999e-11
2.79436e-11
2.94232e-11
3.09361e-11
3.24795e-11
3.40501e-11
3.56445e-11
3.72591e-11
3.88899e-11
4.05328e-11
4.21835e-11
4.38373e-11
4.54896e-11
4.71356e-11
4.87703e-11
5.03887e-11
5.19857e-11
5.35562e-11
5.50951e-11
5.65972e-11
5.80577e-11
5.94715e-11
6.08339e-11
6.21403e-11
6.3386e-11
6.45669e-11
6.56789e-11
6.6718e-11
6.76808e-11
6.85639e-11
6.93642e-11
7.00789e-11
7.07057e-11
7.12423e-11
7.16869e-11
7.20379e-11
7.22941e-11
7.24546e-11
7.25187e-11
7.2486e-11
7.23566e-11
7.21307e-11
7.18088e-11
7.13916e-11
7.08803e-11
7.02761e-11
6.95806e-11
6.87957e-11
6.79233e-11
6.69657e-11
6.59256e-11
6.48055e-11
6.36084e-11
6.23376e-11
6.09965e-11
5.95885e-11
5.81176e-11
5.65878e-11
5.50034e-11
5.33687e-11
5.16884e-11
4.99674e-11
4.82107e-11
4.64234e-11
4.4611e-11
4.2779e-11
4.09329e-11
3.90786e-11
3.72218e-11
3.53684e-11
3.35243e-11
3.16954e-11
2.98876e-11
2.81065e-11
2.63577e-11
2.46467e-11
2.29787e-11
2.13586e-11
1.9791e-11
1.82802e-11
1.68299e-11
1.54438e-11
1.41247e-11
1.2875e-11
1.16969e-11
1.05916e-11
9.56021e-12
8.60301e-12
7.71987e-12
6.91015e-12
6.17269e-12
5.50588e-12
4.90768e-12
4.37562e-12
3.9069e-12
3.49837e-12
3.1466e-12
2.84793e-12
2.59848e-12
2.39423e-12
2.23103e-12
2.10464e-12
2.01079e-12
1.94521e-12
1.90365e-12
1.88194e-12
1.87601e-12
1.88195e-12
1.89603e-12
1.91472e-12
1.9348e-12
1.95331e-12
1.96765e-12
1.97557e-12
1.97522e-12
1.96515e-12
1.94435e-12
1.91221e-12
1.86856e-12
1.8136e-12
1.74791e-12
1.67239e-12
1.58822e-12
1.49679e-12
1.39965e-12
1.29847e-12
1.19492e-12
1.09067e-12
9.87299e-13
8.86261e-13
7.88844e-13
6.96144e-13
6.09043e-13
5.28204e-13
4.54075e-13
3.86894e-13
3.2671e-13
2.73407e-13
2.26725e-13
1.86298e-13
1.51671e-13
1.22336e-13
9.77557e-14
7.73809e-14
6.06743e-14
4.71227e-14
3.62481e-14
2.7615e-14
2.08346e-14
1.55663e-14
1.15164e-14
8.43654e-15
6.11928e-15
4.39446e-15
3.12433e-15
2.19905e-15
1.53221e-15
1.05678e-15
7.21462e-16
4.87499e-16
3.26004e-16
2.15715e-16
1.41175e-16
9.12798e-17
5.81371e-17
3.61818e-17
2.14966e-17
1.12931e-17
3.5098e-18
8.43606e-16
2.54501e-15
4.28942e-15
6.10661e-15
8.02749e-15
1.00846e-14
1.23125e-14
1.47482e-14
1.74319e-14
2.04074e-14
2.37228e-14
2.7431e-14
3.15903e-14
3.62657e-14
4.1529e-14
4.74603e-14
5.41483e-14
6.1692e-14
7.02015e-14
7.97992e-14
9.06212e-14
1.02819e-13
1.1656e-13
1.32031e-13
1.49439e-13
1.69012e-13
1.91003e-13
2.15692e-13
2.43387e-13
2.74429e-13
3.09191e-13
3.48084e-13
3.9156e-13
4.40112e-13
4.94283e-13
5.54663e-13
6.21895e-13
6.96683e-13
7.79789e-13
8.72039e-13
9.7433e-13
1.08763e-12
1.21298e-12
1.35152e-12
1.50443e-12
1.67303e-12
1.8587e-12
2.0629e-12
2.28723e-12
2.53333e-12
2.80299e-12
3.09807e-12
3.42054e-12
3.77245e-12
4.15597e-12
4.57335e-12
5.02693e-12
5.51914e-12
6.05247e-12
6.6295e-12
7.25285e-12
7.9252e-12
8.64925e-12
9.42774e-12
1.02634e-11
1.11589e-11
1.2117e-11
1.31402e-11
1.42312e-11
1.53923e-11
1.66258e-11
1.79339e-11
1.93184e-11
2.07812e-11
2.23237e-11
2.39471e-11
2.56522e-11
2.74395e-11
2.93093e-11
3.12613e-11
3.32949e-11
3.54088e-11
3.76015e-11
3.9871e-11
4.22145e-11
4.46291e-11
4.7111e-11
4.96561e-11
5.22597e-11
5.49165e-11
5.76207e-11
6.03662e-11
6.31463e-11
6.59536e-11
6.87807e-11
7.16197e-11
7.44621e-11
7.72994e-11
8.01227e-11
8.2923e-11
8.56912e-11
8.8418e-11
9.10941e-11
9.37103e-11
9.62574e-11
9.87266e-11
1.01109e-10
1.03396e-10
1.0558e-10
1.07652e-10
1.09606e-10
1.11434e-10
1.1313e-10
1.14688e-10
1.16103e-10
1.1737e-10
1.18485e-10
1.19444e-10
1.20244e-10
1.20884e-10
1.2136e-10
1.21672e-10
1.2182e-10
1.21804e-10
1.21623e-10
1.21279e-10
1.20774e-10
1.2011e-10
1.19289e-10
1.18314e-10
1.17189e-10
1.15918e-10
1.14504e-10
1.12952e-10
1.11267e-10
1.09453e-10
1.07517e-10
1.05464e-10
1.033e-10
1.0103e-10
9.8661e-11
9.61999e-11
9.36531e-11
9.10275e-11
8.83304e-11
8.55689e-11
8.27506e-11
7.98831e-11
7.69742e-11
7.40318e-11
7.10641e-11
6.80791e-11
6.50852e-11
6.20908e-11
5.91042e-11
5.61338e-11
5.31879e-11
5.02749e-11
4.74028e-11
4.45798e-11
4.18135e-11
3.91115e-11
3.64809e-11
3.39284e-11
3.14605e-11
2.90828e-11
2.68008e-11
2.4619e-11
2.25414e-11
2.05715e-11
1.87118e-11
1.69642e-11
1.53299e-11
1.38093e-11
1.24022e-11
1.11073e-11
9.92312e-12
8.84713e-12
7.87634e-12
7.00717e-12
6.2355e-12
5.55676e-12
4.96596e-12
4.45776e-12
4.02654e-12
3.66645e-12
3.37144e-12
3.13538e-12
2.95203e-12
2.81517e-12
2.7186e-12
2.6562e-12
2.62201e-12
2.61022e-12
2.61529e-12
2.63194e-12
2.65523e-12
2.68062e-12
2.704e-12
2.72173e-12
2.73069e-12
2.72832e-12
2.71265e-12
2.68226e-12
2.63636e-12
2.5747e-12
2.49759e-12
2.40584e-12
2.3007e-12
2.18381e-12
2.05709e-12
1.92269e-12
1.78288e-12
1.63997e-12
1.49625e-12
1.35387e-12
1.21482e-12
1.08086e-12
9.53477e-13
8.33868e-13
7.22928e-13
6.21253e-13
5.29158e-13
4.46698e-13
3.73699e-13
3.09799e-13
2.54483e-13
2.07123e-13
1.67018e-13
1.33424e-13
1.05588e-13
8.2771e-14
6.42689e-14
4.94262e-14
3.76463e-14
2.83971e-14
2.12122e-14
1.56905e-14
1.14922e-14
8.33425e-15
5.98413e-15
4.25389e-15
2.99366e-15
2.08558e-15
1.43826e-15
9.81779e-16
6.63324e-16
4.43539e-16
2.9346e-16
1.92039e-16
1.24157e-16
7.90719e-17
4.92078e-17
2.92344e-17
1.53577e-17
4.77297e-18
1.60008e-15
4.82723e-15
8.13627e-15
1.15838e-14
1.52287e-14
1.9133e-14
2.33623e-14
2.79874e-14
3.30848e-14
3.87379e-14
4.50384e-14
5.20872e-14
5.99959e-14
6.8888e-14
7.8901e-14
9.01874e-14
1.02917e-13
1.17279e-13
1.33483e-13
1.51764e-13
1.72382e-13
1.95625e-13
2.21816e-13
2.5131e-13
2.84502e-13
3.2183e-13
3.63777e-13
4.10879e-13
4.63724e-13
5.22963e-13
5.89311e-13
6.63553e-13
7.46552e-13
8.39252e-13
9.42686e-13
1.05798e-12
1.18637e-12
1.32919e-12
1.48789e-12
1.66405e-12
1.85938e-12
2.07571e-12
2.31503e-12
2.57948e-12
2.87135e-12
3.19309e-12
3.54731e-12
3.93682e-12
4.36457e-12
4.8337e-12
5.34755e-12
5.9096e-12
6.52353e-12
7.1932e-12
7.92262e-12
8.71597e-12
9.57757e-12
1.05119e-11
1.15235e-11
1.26171e-11
1.37975e-11
1.50694e-11
1.64378e-11
1.79075e-11
1.94833e-11
2.117e-11
2.2972e-11
2.48941e-11
2.69402e-11
2.91146e-11
3.14207e-11
3.3862e-11
3.64412e-11
3.91609e-11
4.20228e-11
4.50282e-11
4.81777e-11
5.14712e-11
5.49078e-11
5.84859e-11
6.22029e-11
6.60553e-11
7.00388e-11
7.41481e-11
7.83768e-11
8.27178e-11
8.71627e-11
9.17022e-11
9.63262e-11
1.01023e-10
1.05782e-10
1.10589e-10
1.1543e-10
1.20292e-10
1.25159e-10
1.30016e-10
1.34846e-10
1.39633e-10
1.44361e-10
1.49012e-10
1.5357e-10
1.58018e-10
1.62339e-10
1.66518e-10
1.70537e-10
1.74384e-10
1.78041e-10
1.81497e-10
1.84737e-10
1.8775e-10
1.90525e-10
1.93052e-10
1.95321e-10
1.97326e-10
1.9906e-10
2.00517e-10
2.01694e-10
2.02587e-10
2.03195e-10
2.03517e-10
2.03554e-10
2.03308e-10
2.02782e-10
2.01978e-10
2.00903e-10
1.99561e-10
1.97958e-10
1.96103e-10
1.94002e-10
1.91664e-10
1.89098e-10
1.86314e-10
1.83321e-10
1.80129e-10
1.76749e-10
1.73192e-10
1.69469e-10
1.65591e-10
1.6157e-10
1.57416e-10
1.53142e-10
1.4876e-10
1.4428e-10
1.39716e-10
1.35079e-10
1.30381e-10
1.25633e-10
1.20849e-10
1.16039e-10
1.11217e-10
1.06393e-10
1.01581e-10
9.67908e-11
9.20353e-11
8.73259e-11
8.26741e-11
7.80911e-11
7.35878e-11
6.9175e-11
6.48629e-11
6.06614e-11
5.65797e-11
5.26267e-11
4.88104e-11
4.51383e-11
4.1617e-11
3.82524e-11
3.50494e-11
3.2012e-11
2.91432e-11
2.64453e-11
2.39192e-11
2.1565e-11
1.93819e-11
1.73678e-11
1.55201e-11
1.3835e-11
1.23079e-11
1.09335e-11
9.7057e-12
8.61786e-12
7.66272e-12
6.83258e-12
6.11934e-12
5.51459e-12
5.00969e-12
4.59585e-12
4.26417e-12
4.00577e-12
3.8118e-12
3.67354e-12
3.58244e-12
3.53018e-12
3.50877e-12
3.51057e-12
3.52836e-12
3.55542e-12
3.58559e-12
3.61331e-12
3.63369e-12
3.64255e-12
3.63648e-12
3.61283e-12
3.56977e-12
3.50624e-12
3.42194e-12
3.31732e-12
3.19346e-12
3.05206e-12
2.89529e-12
2.72573e-12
2.54624e-12
2.35981e-12
2.16953e-12
1.97839e-12
1.78924e-12
1.60471e-12
1.4271e-12
1.25834e-12
1.1e-12
9.53251e-13
8.18846e-13
6.97181e-13
5.88309e-13
4.91984e-13
4.07711e-13
3.34795e-13
2.72397e-13
2.19581e-13
1.75359e-13
1.38732e-13
1.08721e-13
8.43949e-14
6.48867e-14
4.94094e-14
3.72609e-14
2.78268e-14
2.05787e-14
1.50693e-14
1.09261e-14
7.84363e-15
5.57473e-15
3.92252e-15
2.73224e-15
1.88393e-15
1.28582e-15
8.68633e-16
5.80751e-16
3.84202e-16
2.51395e-16
1.62518e-16
1.03494e-16
6.44019e-17
3.82592e-17
2.00979e-17
6.24607e-18
2.99136e-15
9.02477e-15
1.52119e-14
2.16589e-14
2.84765e-14
3.57808e-14
4.36955e-14
5.23532e-14
6.18979e-14
7.24864e-14
8.42911e-14
9.75018e-14
1.12328e-13
1.29004e-13
1.47787e-13
1.68964e-13
1.92857e-13
2.1982e-13
2.50251e-13
2.84591e-13
3.2333e-13
3.67014e-13
4.16248e-13
4.71706e-13
5.34133e-13
6.04353e-13
6.83281e-13
7.71924e-13
8.71398e-13
9.82926e-13
1.10786e-12
1.24768e-12
1.40402e-12
1.57865e-12
1.77353e-12
1.99078e-12
2.23271e-12
2.50186e-12
2.80095e-12
3.13296e-12
3.50108e-12
3.90879e-12
4.3598e-12
4.85812e-12
5.40806e-12
6.01419e-12
6.68141e-12
7.41494e-12
8.22031e-12
9.10337e-12
1.00703e-11
1.11275e-11
1.22819e-11
1.35406e-11
1.49109e-11
1.64005e-11
1.80174e-11
1.97696e-11
2.16654e-11
2.37134e-11
2.59221e-11
2.83001e-11
3.08561e-11
3.35985e-11
3.65357e-11
3.9676e-11
4.30271e-11
4.65966e-11
5.03914e-11
5.44179e-11
5.86819e-11
6.31881e-11
6.79407e-11
7.29426e-11
7.81957e-11
8.37006e-11
8.94567e-11
9.54619e-11
1.01712e-10
1.08203e-10
1.14927e-10
1.21876e-10
1.29039e-10
1.36404e-10
1.43957e-10
1.51682e-10
1.59562e-10
1.67577e-10
1.75705e-10
1.83925e-10
1.92211e-10
2.00539e-10
2.08881e-10
2.17209e-10
2.25494e-10
2.33707e-10
2.41816e-10
2.49793e-10
2.57605e-10
2.65223e-10
2.72616e-10
2.79755e-10
2.86611e-10
2.93156e-10
2.99363e-10
3.05209e-10
3.10669e-10
3.15722e-10
3.20348e-10
3.24529e-10
3.28251e-10
3.31501e-10
3.34267e-10
3.3654e-10
3.38317e-10
3.39591e-10
3.40363e-10
3.40632e-10
3.40404e-10
3.39681e-10
3.38472e-10
3.36787e-10
3.34635e-10
3.3203e-10
3.28985e-10
3.25515e-10
3.21638e-10
3.17371e-10
3.12732e-10
3.0774e-10
3.02415e-10
2.96778e-10
2.90848e-10
2.84647e-10
2.78195e-10
2.71514e-10
2.64624e-10
2.57546e-10
2.50302e-10
2.42911e-10
2.35394e-10
2.27771e-10
2.20061e-10
2.12284e-10
2.04459e-10
1.96605e-10
1.8874e-10
1.80882e-10
1.73048e-10
1.65257e-10
1.57526e-10
1.4987e-10
1.42306e-10
1.34849e-10
1.27516e-10
1.20321e-10
1.13278e-10
1.064e-10
9.97015e-11
9.3194e-11
8.68893e-11
8.07979e-11
7.49297e-11
6.92935e-11
6.3897e-11
5.87468e-11
5.38484e-11
4.92058e-11
4.48221e-11
4.06989e-11
3.68364e-11
3.32336e-11
2.98883e-11
2.67968e-11
2.39542e-11
2.13545e-11
1.89906e-11
1.68544e-11
1.49369e-11
1.3228e-11
1.17172e-11
1.03932e-11
9.24442e-12
8.25866e-12
7.42355e-12
6.72652e-12
6.15493e-12
5.69613e-12
5.33759e-12
5.06695e-12
4.87209e-12
4.74124e-12
4.66305e-12
4.62662e-12
4.62164e-12
4.63839e-12
4.66788e-12
4.70191e-12
4.73309e-12
4.75497e-12
4.76207e-12
4.74991e-12
4.71504e-12
4.65509e-12
4.56871e-12
4.45556e-12
4.31623e-12
4.15219e-12
3.96567e-12
3.75952e-12
3.5371e-12
3.30213e-12
3.05853e-12
2.81026e-12
2.56122e-12
2.31508e-12
2.0752e-12
1.84455e-12
1.62561e-12
1.42036e-12
1.23028e-12
1.05633e-12
8.98974e-13
7.58261e-13
6.33843e-13
5.25056e-13
4.30984e-13
3.50526e-13
2.82457e-13
2.25493e-13
1.78334e-13
1.39711e-13
1.08416e-13
8.33302e-14
6.34352e-14
4.78248e-14
3.57066e-14
2.63993e-14
1.9327e-14
1.401e-14
1.00553e-14
7.14517e-15
5.02655e-15
3.50063e-15
2.41334e-15
1.64689e-15
1.11239e-15
7.43621e-16
4.91889e-16
3.21822e-16
2.08025e-16
1.32463e-16
8.24221e-17
4.89615e-17
2.57189e-17
7.99281e-18
5.51668e-15
1.6644e-14
2.80559e-14
3.99494e-14
5.25292e-14
6.60109e-14
8.06233e-14
9.66128e-14
1.14246e-13
1.33815e-13
1.55638e-13
1.80069e-13
2.07498e-13
2.38357e-13
2.73127e-13
3.12343e-13
3.566e-13
4.06561e-13
4.62964e-13
5.2663e-13
5.98475e-13
6.79513e-13
7.70873e-13
8.7381e-13
9.89712e-13
1.12012e-12
1.26673e-12
1.43143e-12
1.6163e-12
1.82362e-12
2.0559e-12
2.31592e-12
2.6067e-12
2.93157e-12
3.29415e-12
3.69842e-12
4.14868e-12
4.64964e-12
5.20639e-12
5.82444e-12
6.50976e-12
7.26879e-12
8.10845e-12
9.03617e-12
1.00599e-11
1.11882e-11
1.243e-11
1.37951e-11
1.52936e-11
1.69363e-11
1.87346e-11
2.07003e-11
2.28459e-11
2.51845e-11
2.77295e-11
3.04948e-11
3.34948e-11
3.67441e-11
4.02577e-11
4.40508e-11
4.81385e-11
5.25362e-11
5.72589e-11
6.23216e-11
6.77386e-11
7.3524e-11
7.96909e-11
8.62517e-11
9.32176e-11
1.00599e-10
1.08404e-10
1.16639e-10
1.2531e-10
1.3442e-10
1.4397e-10
1.53957e-10
1.64378e-10
1.75226e-10
1.86489e-10
1.98157e-10
2.10211e-10
2.22632e-10
2.35398e-10
2.48483e-10
2.61856e-10
2.75484e-10
2.89332e-10
3.0336e-10
3.17527e-10
3.31786e-10
3.46091e-10
3.60391e-10
3.74636e-10
3.88772e-10
4.02744e-10
4.16498e-10
4.29978e-10
4.43127e-10
4.55892e-10
4.68218e-10
4.80053e-10
4.91344e-10
5.02045e-10
5.12107e-10
5.21489e-10
5.30151e-10
5.38056e-10
5.45173e-10
5.51473e-10
5.56933e-10
5.61533e-10
5.65259e-10
5.68101e-10
5.70053e-10
5.71114e-10
5.71288e-10
5.70582e-10
5.69009e-10
5.66583e-10
5.63323e-10
5.59254e-10
5.544e-10
5.4879e-10
5.42455e-10
5.35427e-10
5.27742e-10
5.19437e-10
5.10549e-10
5.01116e-10
4.91178e-10
4.80774e-10
4.69944e-10
4.58728e-10
4.47164e-10
4.35293e-10
4.23151e-10
4.10777e-10
3.98207e-10
3.85477e-10
3.72621e-10
3.59673e-10
3.46666e-10
3.33631e-10
3.20598e-10
3.07596e-10
2.94654e-10
2.81799e-10
2.69056e-10
2.5645e-10
2.44005e-10
2.31745e-10
2.1969e-10
2.07862e-10
1.96281e-10
1.84965e-10
1.73933e-10
1.63201e-10
1.52784e-10
1.42698e-10
1.32955e-10
1.23569e-10
1.14548e-10
1.05904e-10
9.7643e-11
8.97723e-11
8.22966e-11
7.5219e-11
6.8541e-11
6.22625e-11
5.63815e-11
5.08944e-11
4.5796e-11
4.10794e-11
3.67361e-11
3.27561e-11
2.9128e-11
2.58391e-11
2.28755e-11
2.02224e-11
1.78639e-11
1.57836e-11
1.39642e-11
1.23883e-11
1.10378e-11
9.89483e-12
8.94117e-12
8.15883e-12
7.52998e-12
7.03709e-12
6.66303e-12
6.39115e-12
6.20538e-12
6.09031e-12
6.03129e-12
6.01447e-12
6.02694e-12
6.05677e-12
6.09314e-12
6.12638e-12
6.14804e-12
6.15098e-12
6.12942e-12
6.07893e-12
5.99646e-12
5.88032e-12
5.73011e-12
5.54665e-12
5.33187e-12
5.08867e-12
4.82076e-12
4.53246e-12
4.22857e-12
3.91409e-12
3.59412e-12
3.27361e-12
2.95725e-12
2.6493e-12
2.35351e-12
2.07302e-12
1.81033e-12
1.56725e-12
1.34498e-12
1.14407e-12
9.6454e-13
8.05907e-13
6.67294e-13
5.47504e-13
4.45109e-13
3.58531e-13
2.86115e-13
2.26194e-13
1.77142e-13
1.37416e-13
1.05585e-13
8.03514e-14
6.056e-14
4.52018e-14
3.34103e-14
2.44533e-14
1.77217e-14
1.27162e-14
9.03399e-15
6.35398e-15
4.42422e-15
3.0495e-15
2.08066e-15
1.40515e-15
9.39193e-16
6.21173e-16
4.06357e-16
2.6264e-16
1.67223e-16
1.04043e-16
6.1801e-17
3.24619e-17
1.00881e-17
1.00387e-14
3.02877e-14
5.10573e-14
7.27075e-14
9.56128e-14
1.20167e-13
1.4679e-13
1.75932e-13
2.08082e-13
2.43773e-13
2.83592e-13
3.28185e-13
3.78268e-13
4.34636e-13
4.9817e-13
5.69853e-13
6.50779e-13
7.42167e-13
8.45372e-13
9.61907e-13
1.09345e-12
1.24188e-12
1.40927e-12
1.59792e-12
1.8104e-12
2.04953e-12
2.31847e-12
2.62067e-12
2.95996e-12
3.34055e-12
3.76708e-12
4.24464e-12
4.77884e-12
5.37578e-12
6.04216e-12
6.78528e-12
7.61309e-12
8.53425e-12
9.55812e-12
1.06949e-11
1.19555e-11
1.33517e-11
1.48964e-11
1.66031e-11
1.84865e-11
2.05621e-11
2.28466e-11
2.53575e-11
2.81136e-11
3.11344e-11
3.44407e-11
3.80541e-11
4.19973e-11
4.62937e-11
5.09677e-11
5.60445e-11
6.15497e-11
6.75097e-11
7.39511e-11
8.09007e-11
8.83856e-11
9.64323e-11
1.05067e-10
1.14316e-10
1.24204e-10
1.34754e-10
1.45988e-10
1.57926e-10
1.70587e-10
1.83985e-10
1.98133e-10
2.13039e-10
2.28711e-10
2.45148e-10
2.62347e-10
2.80301e-10
2.98997e-10
3.18417e-10
3.38536e-10
3.59325e-10
3.80749e-10
4.02766e-10
4.25327e-10
4.48379e-10
4.71862e-10
4.95709e-10
5.19849e-10
5.44206e-10
5.68697e-10
5.93235e-10
6.17731e-10
6.4209e-10
6.66215e-10
6.90008e-10
7.1337e-10
7.36198e-10
7.58394e-10
7.79858e-10
8.00493e-10
8.20206e-10
8.38905e-10
8.56505e-10
8.72926e-10
8.88092e-10
9.01935e-10
9.14395e-10
9.25418e-10
9.34959e-10
9.42981e-10
9.49456e-10
9.54364e-10
9.57694e-10
9.59444e-10
9.5962e-10
9.58237e-10
9.55317e-10
9.5089e-10
9.44993e-10
9.37669e-10
9.28969e-10
9.18946e-10
9.07661e-10
8.95178e-10
8.81563e-10
8.66886e-10
8.5122e-10
8.34639e-10
8.17217e-10
7.99029e-10
7.80151e-10
7.60657e-10
7.40621e-10
7.20115e-10
6.9921e-10
6.77974e-10
6.56473e-10
6.34772e-10
6.12932e-10
5.91012e-10
5.69067e-10
5.47152e-10
5.25318e-10
5.03611e-10
4.82077e-10
4.60759e-10
4.39696e-10
4.18928e-10
3.98488e-10
3.7841e-10
3.58724e-10
3.3946e-10
3.20644e-10
3.02301e-10
2.84454e-10
2.67123e-10
2.50328e-10
2.34087e-10
2.18414e-10
2.03323e-10
1.88827e-10
1.74935e-10
1.61654e-10
1.48992e-10
1.36952e-10
1.25535e-10
1.14742e-10
1.04569e-10
9.50136e-11
8.60678e-11
7.77228e-11
6.99679e-11
6.27899e-11
5.6174e-11
5.01034e-11
4.45595e-11
3.95222e-11
3.49699e-11
3.088e-11
2.72286e-11
2.39909e-11
2.11417e-11
1.86551e-11
1.6505e-11
1.46652e-11
1.31095e-11
1.18122e-11
1.07476e-11
9.89071e-12
9.21728e-12
8.70364e-12
8.32703e-12
8.06564e-12
7.89868e-12
7.80651e-12
7.7707e-12
7.77415e-12
7.80115e-12
7.83751e-12
7.8706e-12
7.88947e-12
7.8849e-12
7.84944e-12
7.77743e-12
7.66501e-12
7.51005e-12
7.31211e-12
7.07231e-12
6.79315e-12
6.47839e-12
6.1328e-12
5.76192e-12
5.37185e-12
4.96898e-12
4.55976e-12
4.15047e-12
3.74702e-12
3.35479e-12
2.97848e-12
2.62199e-12
2.28845e-12
1.9801e-12
1.69838e-12
1.44394e-12
1.21675e-12
1.01615e-12
8.4098e-13
6.89699e-13
5.60466e-13
4.51259e-13
3.59967e-13
2.84468e-13
2.22695e-13
1.7269e-13
1.32642e-13
1.00909e-13
7.60294e-14
5.67308e-14
4.19196e-14
3.06728e-14
2.22231e-14
1.59423e-14
1.13232e-14
7.96233e-15
5.54293e-15
3.81986e-15
2.6058e-15
1.75951e-15
1.17586e-15
7.7759e-16
5.08616e-16
3.28696e-16
2.0926e-16
1.30186e-16
7.73247e-17
4.0614e-17
1.26213e-17
1.80265e-14
5.43896e-14
9.16924e-14
1.30585e-13
1.71743e-13
2.15879e-13
2.6375e-13
3.16171e-13
3.74026e-13
4.3828e-13
5.09994e-13
5.90339e-13
6.80612e-13
7.82253e-13
8.96861e-13
1.02622e-12
1.17231e-12
1.33735e-12
1.52381e-12
1.73442e-12
1.97224e-12
2.24068e-12
2.54351e-12
2.88493e-12
3.2696e-12
3.70267e-12
4.18987e-12
4.73749e-12
5.35251e-12
6.0426e-12
6.81622e-12
7.68264e-12
8.65205e-12
9.7356e-12
1.09455e-11
1.2295e-11
1.37987e-11
1.54722e-11
1.73326e-11
1.93985e-11
2.16898e-11
2.42281e-11
2.70364e-11
3.01395e-11
3.3564e-11
3.73383e-11
4.14922e-11
4.60579e-11
5.1069e-11
5.65611e-11
6.25714e-11
6.91391e-11
7.63048e-11
8.41107e-11
9.26005e-11
1.01819e-10
1.11812e-10
1.22626e-10
1.34308e-10
1.46906e-10
1.60467e-10
1.75037e-10
1.90662e-10
2.07385e-10
2.25249e-10
2.44294e-10
2.64554e-10
2.86063e-10
3.08849e-10
3.32934e-10
3.58336e-10
3.85064e-10
4.13122e-10
4.42505e-10
4.73201e-10
5.05188e-10
5.38433e-10
5.72896e-10
6.08523e-10
6.45253e-10
6.8301e-10
7.2171e-10
7.61257e-10
8.01543e-10
8.4245e-10
8.83851e-10
9.25606e-10
9.67568e-10
1.00958e-09
1.05149e-09
1.09311e-09
1.13428e-09
1.17482e-09
1.21455e-09
1.25329e-09
1.29086e-09
1.32708e-09
1.36177e-09
1.39478e-09
1.42594e-09
1.4551e-09
1.48211e-09
1.50685e-09
1.5292e-09
1.54905e-09
1.56632e-09
1.58092e-09
1.59281e-09
1.60193e-09
1.60827e-09
1.61181e-09
1.61256e-09
1.61055e-09
1.6058e-09
1.59837e-09
1.58833e-09
1.57576e-09
1.56075e-09
1.54339e-09
1.5238e-09
1.50209e-09
1.4784e-09
1.45285e-09
1.42558e-09
1.39673e-09
1.36643e-09
1.33484e-09
1.30208e-09
1.2683e-09
1.23364e-09
1.19823e-09
1.1622e-09
1.12568e-09
1.08878e-09
1.05164e-09
1.01435e-09
9.77022e-10
9.39756e-10
9.02646e-10
8.65777e-10
8.29232e-10
7.93086e-10
7.57408e-10
7.22264e-10
6.87713e-10
6.53808e-10