/*--------------------------------*- C++ -*----------------------------------*\
| =========                 |                                                 |
| \\      /  F ield         | OpenFOAM: The Open Source CFD Toolbox           |
|  \\    /   O peration     | Version:  v2012                                 |
|   \\  /    A nd           | Website:  www.openfoam.com                      |
|    \\/     M anipulation  |                                                 |
\*---------------------------------------------------------------------------*/
FoamFile
{
    version     2.0;
    format      ascii;
    class       surfaceScalarField;
    location    "2";
    object      phi;
}
// * * * * * * * * * * * * * * * * * * * * * * * * * * * * * * * * * * * * * //

dimensions      [0 3 -1 0 0 0 0];
oriented        oriented;


internalField   nonuniform List<scalar> 
130560
(
3.44651e-06
-3.44651e-06
6.89279e-06
-3.44628e-06
1.03386e-05
-3.44584e-06
1.37838e-05
-3.44518e-06
1.72281e-05
-3.44429e-06
2.06713e-05
-3.44317e-06
2.41131e-05
-3.44183e-06
2.75534e-05
-3.44026e-06
3.09918e-05
-3.43845e-06
3.44282e-05
-3.4364e-06
3.78623e-05
-3.43411e-06
4.12939e-05
-3.43157e-06
4.47227e-05
-3.42878e-06
4.81484e-05
-3.42573e-06
5.15708e-05
-3.42242e-06
5.49896e-05
-3.41883e-06
5.84046e-05
-3.41496e-06
6.18154e-05
-3.41082e-06
6.52218e-05
-3.40637e-06
6.86234e-05
-3.40163e-06
7.202e-05
-3.39657e-06
7.54112e-05
-3.3912e-06
7.87967e-05
-3.38549e-06
8.21761e-05
-3.37945e-06
8.55492e-05
-3.37306e-06
8.89155e-05
-3.36632e-06
9.22747e-05
-3.3592e-06
9.56264e-05
-3.35171e-06
9.89702e-05
-3.34382e-06
0.000102306
-3.33554e-06
0.000105633
-3.32684e-06
0.00010895
-3.31771e-06
0.000112258
-3.30816e-06
0.000115557
-3.29815e-06
0.000118844
-3.28768e-06
0.000122121
-3.27674e-06
0.000125386
-3.26532e-06
0.00012864
-3.2534e-06
0.000131881
-3.24097e-06
0.000135109
-3.22802e-06
0.000138323
-3.21454e-06
0.000141524
-3.20051e-06
0.00014471
-3.18593e-06
0.000147881
-3.17077e-06
0.000151036
-3.15504e-06
0.000154174
-3.13872e-06
0.000157296
-3.12179e-06
0.0001604
-3.10425e-06
0.000163486
-3.08609e-06
0.000166554
-3.06729e-06
0.000169602
-3.04784e-06
0.000172629
-3.02775e-06
0.000175636
-3.00698e-06
0.000178622
-2.98555e-06
0.000181585
-2.96344e-06
0.000184526
-2.94064e-06
0.000187443
-2.91714e-06
0.000190336
-2.89294e-06
0.000193204
-2.86803e-06
0.000196046
-2.84241e-06
0.000198862
-2.81607e-06
0.000201651
-2.78901e-06
0.000204413
-2.76122e-06
0.000207145
-2.7327e-06
0.000209849
-2.70345e-06
0.000212522
-2.67347e-06
0.000215165
-2.64276e-06
0.000217776
-2.61131e-06
0.000220356
-2.57914e-06
0.000222902
-2.54623e-06
0.000225414
-2.5126e-06
0.000227893
-2.47824e-06
0.000230336
-2.44317e-06
0.000232743
-2.40738e-06
0.000235114
-2.37088e-06
0.000237448
-2.33368e-06
0.000239743
-2.29579e-06
0.000242001
-2.25721e-06
0.000244219
-2.21796e-06
0.000246397
-2.17805e-06
0.000248534
-2.13747e-06
0.00025063
-2.09626e-06
0.000252685
-2.05442e-06
0.000254697
-2.01195e-06
0.000256666
-1.96889e-06
0.000258591
-1.92524e-06
0.000260472
-1.88101e-06
0.000262308
-1.83623e-06
0.000264099
-1.7909e-06
0.000265844
-1.74505e-06
0.000267543
-1.6987e-06
0.000269195
-1.65186e-06
0.000270799
-1.60455e-06
0.000272356
-1.55679e-06
0.000273865
-1.50859e-06
0.000275325
-1.45999e-06
0.000276736
-1.411e-06
0.000278097
-1.36164e-06
0.000279409
-1.31193e-06
0.000280671
-1.26189e-06
0.000281883
-1.21155e-06
0.000283044
-1.16092e-06
0.000284154
-1.11003e-06
0.000285212
-1.05889e-06
0.00028622
-1.00754e-06
0.000287176
-9.55983e-07
0.00028808
-9.04249e-07
0.000288933
-8.52359e-07
0.000289733
-8.00334e-07
0.000290481
-7.48194e-07
0.000291177
-6.9596e-07
0.000291821
-6.43653e-07
0.000292412
-5.91294e-07
0.000292951
-5.38901e-07
0.000293437
-4.86496e-07
0.000293872
-4.34096e-07
0.000294253
-3.81722e-07
0.000294583
-3.29392e-07
0.00029486
-2.77125e-07
0.000295085
-2.24937e-07
0.000295258
-1.72848e-07
0.000295378
-1.20872e-07
0.000295447
-6.90285e-08
0.000295465
-1.7332e-08
0.000295431
3.42014e-08
0.000295345
8.55565e-08
0.000295208
1.36718e-07
0.000295021
1.87673e-07
0.000294782
2.38406e-07
0.000294493
2.88904e-07
0.000294154
3.39154e-07
0.000293765
3.89144e-07
0.000293326
4.38862e-07
0.000292838
4.88295e-07
0.0002923
5.37433e-07
0.000291714
5.86264e-07
0.000291079
6.34778e-07
0.000290396
6.82965e-07
0.000289666
7.30815e-07
0.000288887
7.78319e-07
0.000288062
8.25467e-07
0.00028719
8.72251e-07
0.000286271
9.18662e-07
0.000285306
9.64692e-07
0.000284296
1.01033e-06
0.00028324
1.05558e-06
0.00028214
1.10042e-06
0.000280995
1.14485e-06
0.000279806
1.18886e-06
0.000278574
1.23245e-06
0.000277298
1.27561e-06
0.00027598
1.31833e-06
0.000274619
1.36061e-06
0.000273217
1.40243e-06
0.000271773
1.44381e-06
0.000270288
1.48472e-06
0.000268763
1.52517e-06
0.000267198
1.56515e-06
0.000265593
1.60465e-06
0.00026395
1.64367e-06
0.000262267
1.68221e-06
0.000260547
1.72025e-06
0.000258789
1.75781e-06
0.000256994
1.79486e-06
0.000255163
1.83142e-06
0.000253296
1.86747e-06
0.000251393
1.903e-06
0.000249455
1.93803e-06
0.000247482
1.97254e-06
0.000245475
2.00653e-06
0.000243435
2.04e-06
0.000241363
2.07294e-06
0.000239257
2.10536e-06
0.00023712
2.13725e-06
0.000234951
2.1686e-06
0.000232752
2.19943e-06
0.000230522
2.22971e-06
0.000228263
2.25947e-06
0.000225974
2.28868e-06
0.000223657
2.31736e-06
0.000221311
2.3455e-06
0.000218938
2.37309e-06
0.000216538
2.40015e-06
0.000214111
2.42668e-06
0.000211659
2.45266e-06
0.00020918
2.4781e-06
0.000206677
2.50301e-06
0.00020415
2.52739e-06
0.000201599
2.55123e-06
0.000199024
2.57454e-06
0.000196427
2.59731e-06
0.000193807
2.61957e-06
0.000191166
2.64129e-06
0.000188504
2.6625e-06
0.00018582
2.68319e-06
0.000183117
2.70336e-06
0.000180394
2.72303e-06
0.000177652
2.74219e-06
0.000174891
2.76084e-06
0.000172112
2.779e-06
0.000169315
2.79667e-06
0.000166502
2.81384e-06
0.000163671
2.83054e-06
0.000160824
2.84676e-06
0.000157962
2.86251e-06
0.000155084
2.87779e-06
0.000152191
2.89262e-06
0.000149284
2.90699e-06
0.000146363
2.92091e-06
0.000143429
2.9344e-06
0.000140482
2.94745e-06
0.000137521
2.96008e-06
0.000134549
2.97229e-06
0.000131565
2.98409e-06
0.00012857
2.99548e-06
0.000125563
3.00647e-06
0.000122546
3.01707e-06
0.000119519
3.02729e-06
0.000116482
3.03714e-06
0.000113435
3.04662e-06
0.000110379
3.05573e-06
0.000107315
3.06449e-06
0.000104242
3.07291e-06
0.000101161
3.08098e-06
9.80722e-05
3.08872e-06
9.4976e-05
3.09614e-06
9.18728e-05
3.10324e-06
8.87628e-05
3.11003e-06
8.56462e-05
3.11652e-06
8.25235e-05
3.12271e-06
7.93949e-05
3.1286e-06
7.62607e-05
3.13422e-06
7.31212e-05
3.13955e-06
6.99766e-05
3.14461e-06
6.68271e-05
3.14941e-06
6.36732e-05
3.15395e-06
6.0515e-05
3.15823e-06
5.73527e-05
3.16227e-06
5.41866e-05
3.16606e-06
5.1017e-05
3.16961e-06
4.78441e-05
3.17292e-06
4.46681e-05
3.17601e-06
4.14892e-05
3.17887e-06
3.83077e-05
3.18151e-06
3.51238e-05
3.18393e-06
3.19376e-05
3.18614e-06
2.87495e-05
3.18814e-06
2.55596e-05
3.18993e-06
2.23681e-05
3.19151e-06
1.91752e-05
3.19289e-06
1.59811e-05
3.19407e-06
1.2786e-05
3.19505e-06
9.59022e-06
3.19583e-06
6.3938e-06
3.19642e-06
3.197e-06
3.1968e-06
3.197e-06
3.44672e-06
-6.89323e-06
6.89322e-06
-6.89278e-06
1.03393e-05
-6.8919e-06
1.37847e-05
-6.89057e-06
1.72292e-05
-6.88879e-06
2.06726e-05
-6.88657e-06
2.41146e-05
-6.88389e-06
2.75551e-05
-6.88074e-06
3.09938e-05
-6.87713e-06
3.44304e-05
-6.87304e-06
3.78648e-05
-6.86846e-06
4.12966e-05
-6.86339e-06
4.47256e-05
-6.85781e-06
4.81516e-05
-6.85172e-06
5.15743e-05
-6.8451e-06
5.49934e-05
-6.83793e-06
5.84087e-05
-6.83021e-06
6.18198e-05
-6.82192e-06
6.52264e-05
-6.81304e-06
6.86284e-05
-6.80356e-06
7.20252e-05
-6.79346e-06
7.54168e-05
-6.78272e-06
7.88026e-05
-6.77132e-06
8.21824e-05
-6.75925e-06
8.55558e-05
-6.74648e-06
8.89225e-05
-6.733e-06
9.22821e-05
-6.71878e-06
9.56342e-05
-6.7038e-06
9.89784e-05
-6.68804e-06
0.000102314
-6.67148e-06
0.000105642
-6.6541e-06
0.00010896
-6.63586e-06
0.000112268
-6.61676e-06
0.000115567
-6.59675e-06
0.000118855
-6.57583e-06
0.000122132
-6.55396e-06
0.000125398
-6.53113e-06
0.000128652
-6.5073e-06
0.000131894
-6.48245e-06
0.000135122
-6.45657e-06
0.000138337
-6.42962e-06
0.000141538
-6.40157e-06
0.000144725
-6.37242e-06
0.000147896
-6.34213e-06
0.000151052
-6.31067e-06
0.000154191
-6.27804e-06
0.000157313
-6.24419e-06
0.000160418
-6.20913e-06
0.000163505
-6.17281e-06
0.000166573
-6.13522e-06
0.000169621
-6.09634e-06
0.00017265
-6.05615e-06
0.000175657
-6.01464e-06
0.000178644
-5.97178e-06
0.000181608
-5.92756e-06
0.000184549
-5.88196e-06
0.000187467
-5.83498e-06
0.000190361
-5.78658e-06
0.000193229
-5.73677e-06
0.000196073
-5.68554e-06
0.000198889
-5.63286e-06
0.000201679
-5.57874e-06
0.000204441
-5.52316e-06
0.000207174
-5.46613e-06
0.000209879
-5.40764e-06
0.000212553
-5.34768e-06
0.000215196
-5.28625e-06
0.000217808
-5.22336e-06
0.000220388
-5.159e-06
0.000222935
-5.09319e-06
0.000225448
-5.02592e-06
0.000227927
-4.9572e-06
0.000230371
-4.88705e-06
0.000232779
-4.81546e-06
0.000235151
-4.74246e-06
0.000237485
-4.66806e-06
0.000239782
-4.59227e-06
0.00024204
-4.5151e-06
0.000244258
-4.43659e-06
0.000246437
-4.35675e-06
0.000248575
-4.27559e-06
0.000250672
-4.19315e-06
0.000252727
-4.10945e-06
0.00025474
-4.02451e-06
0.000256709
-3.93837e-06
0.000258635
-3.85105e-06
0.000260517
-3.76258e-06
0.000262353
-3.67299e-06
0.000264145
-3.58233e-06
0.00026589
-3.49061e-06
0.000267589
-3.39789e-06
0.000269242
-3.30418e-06
0.000270847
-3.20954e-06
0.000272404
-3.114e-06
0.000273913
-3.0176e-06
0.000275373
-2.92038e-06
0.000276785
-2.82238e-06
0.000278147
-2.72363e-06
0.000279459
-2.62419e-06
0.000280721
-2.5241e-06
0.000281933
-2.42339e-06
0.000283094
-2.32211e-06
0.000284205
-2.2203e-06
0.000285264
-2.11801e-06
0.000286271
-2.01528e-06
0.000287228
-1.91215e-06
0.000288132
-1.80866e-06
0.000288984
-1.70486e-06
0.000289785
-1.60079e-06
0.000290533
-1.49649e-06
0.000291229
-1.392e-06
0.000291873
-1.28736e-06
0.000292464
-1.18262e-06
0.000293003
-1.07782e-06
0.00029349
-9.72989e-07
0.000293924
-8.68171e-07
0.000294305
-7.63405e-07
0.000294635
-6.58727e-07
0.000294912
-5.54174e-07
0.000295137
-4.49781e-07
0.000295309
-3.45585e-07
0.00029543
-2.41618e-07
0.000295499
-1.37914e-07
0.000295516
-3.45052e-08
0.000295482
6.85768e-08
0.000295396
1.71302e-07
0.000295259
2.7364e-07
0.000295071
3.75563e-07
0.000294833
4.77042e-07
0.000294544
5.78051e-07
0.000294204
6.78565e-07
0.000293815
7.78557e-07
0.000293376
8.78004e-07
0.000292887
9.76881e-07
0.000292349
1.07517e-06
0.000291763
1.17284e-06
0.000291128
1.26988e-06
0.000290444
1.36626e-06
0.000289713
1.46197e-06
0.000288934
1.55699e-06
0.000288109
1.65129e-06
0.000287236
1.74487e-06
0.000286317
1.8377e-06
0.000285352
1.92977e-06
0.000284341
2.02106e-06
0.000283285
2.11156e-06
0.000282184
2.20125e-06
0.000281039
2.29011e-06
0.00027985
2.37815e-06
0.000278617
2.46533e-06
0.000277341
2.55165e-06
0.000276022
2.6371e-06
0.000274661
2.72166e-06
0.000273258
2.80532e-06
0.000271814
2.88807e-06
0.000270329
2.96991e-06
0.000268803
3.05081e-06
0.000267237
3.13077e-06
0.000265632
3.20978e-06
0.000263988
3.28782e-06
0.000262305
3.3649e-06
0.000260585
3.441e-06
0.000258826
3.51611e-06
0.000257031
3.59023e-06
0.000255199
3.66334e-06
0.000253331
3.73544e-06
0.000251428
3.80652e-06
0.000249489
3.87657e-06
0.000247516
3.9456e-06
0.000245509
4.01358e-06
0.000243469
4.08052e-06
0.000241395
4.14641e-06
0.000239289
4.21125e-06
0.000237151
4.27502e-06
0.000234982
4.33774e-06
0.000232782
4.39939e-06
0.000230552
4.45996e-06
0.000228292
4.51947e-06
0.000226003
4.5779e-06
0.000223685
4.63525e-06
0.000221339
4.69153e-06
0.000218965
4.74673e-06
0.000216565
4.80085e-06
0.000214137
4.85389e-06
0.000211684
4.90585e-06
0.000209206
4.95674e-06
0.000206702
5.00656e-06
0.000204174
5.05531e-06
0.000201622
5.10298e-06
0.000199047
5.1496e-06
0.000196449
5.19516e-06
0.000193829
5.23966e-06
0.000191187
5.28311e-06
0.000188524
5.32552e-06
0.000185841
5.36689e-06
0.000183137
5.40724e-06
0.000180413
5.44656e-06
0.000177671
5.48487e-06
0.000174909
5.52218e-06
0.00017213
5.55849e-06
0.000169333
5.59382e-06
0.000166518
5.62817e-06
0.000163687
5.66156e-06
0.00016084
5.69399e-06
0.000157977
5.72548e-06
0.000155099
5.75604e-06
0.000152206
5.78569e-06
0.000149298
5.81442e-06
0.000146377
5.84227e-06
0.000143442
5.86924e-06
0.000140494
5.89534e-06
0.000137534
5.92058e-06
0.000134561
5.94499e-06
0.000131577
5.96858e-06
0.000128581
5.99135e-06
0.000125574
6.01334e-06
0.000122556
6.03453e-06
0.000119529
6.05497e-06
0.000116491
6.07465e-06
0.000113444
6.09359e-06
0.000110388
6.11182e-06
0.000107323
6.12933e-06
0.00010425
6.14615e-06
0.000101169
6.1623e-06
9.80797e-05
6.17778e-06
9.49832e-05
6.19261e-06
9.18797e-05
6.2068e-06
8.87693e-05
6.22037e-06
8.56525e-05
6.23334e-06
8.25295e-05
6.2457e-06
7.94006e-05
6.25749e-06
7.62661e-05
6.26871e-06
7.31263e-05
6.27938e-06
6.99814e-05
6.2895e-06
6.68317e-05
6.29909e-06
6.36775e-05
6.30816e-06
6.05191e-05
6.31672e-06
5.73565e-05
6.32478e-06
5.41902e-05
6.33235e-06
5.10204e-05
6.33945e-06
4.78472e-05
6.34608e-06
4.4671e-05
6.35225e-06
4.14919e-05
6.35797e-06
3.83102e-05
6.36325e-06
3.5126e-05
6.36809e-06
3.19397e-05
6.3725e-06
2.87513e-05
6.37649e-06
2.55612e-05
6.38006e-06
2.23695e-05
6.38323e-06
1.91764e-05
6.38599e-06
1.59821e-05
6.38834e-06
1.27868e-05
6.3903e-06
9.59081e-06
6.39186e-06
6.39419e-06
6.39303e-06
3.19719e-06
6.3938e-06
6.39419e-06
3.44716e-06
-1.03404e-05
6.89411e-06
-1.03397e-05
1.03406e-05
-1.03384e-05
1.37865e-05
-1.03364e-05
1.72314e-05
-1.03338e-05
2.06753e-05
-1.03304e-05
2.41178e-05
-1.03264e-05
2.75588e-05
-1.03217e-05
3.09979e-05
-1.03163e-05
3.4435e-05
-1.03102e-05
3.78699e-05
-1.03033e-05
4.13022e-05
-1.02957e-05
4.47318e-05
-1.02874e-05
4.81583e-05
-1.02782e-05
5.15815e-05
-1.02683e-05
5.50012e-05
-1.02576e-05
5.8417e-05
-1.0246e-05
6.18287e-05
-1.02336e-05
6.5236e-05
-1.02203e-05
6.86385e-05
-1.02061e-05
7.2036e-05
-1.0191e-05
7.54282e-05
-1.01749e-05
7.88147e-05
-1.01578e-05
8.21952e-05
-1.01397e-05
8.55694e-05
-1.01206e-05
8.89368e-05
-1.01004e-05
9.22971e-05
-1.00791e-05
9.565e-05
-1.00567e-05
9.8995e-05
-1.00331e-05
0.000102332
-1.00083e-05
0.00010566
-9.98221e-06
0.000108979
-9.95488e-06
0.000112288
-9.92625e-06
0.000115588
-9.89628e-06
0.000118877
-9.86492e-06
0.000122155
-9.83215e-06
0.000125422
-9.79793e-06
0.000128677
-9.76222e-06
0.000131919
-9.72498e-06
0.000135149
-9.68618e-06
0.000138365
-9.64579e-06
0.000141567
-9.60375e-06
0.000144755
-9.56005e-06
0.000147928
-9.51464e-06
0.000151084
-9.46749e-06
0.000154225
-9.41856e-06
0.000157349
-9.36783e-06
0.000160455
-9.31525e-06
0.000163543
-9.2608e-06
0.000166612
-9.20444e-06
0.000169662
-9.14615e-06
0.000172691
-9.08589e-06
0.0001757
-9.02364e-06
0.000178688
-8.95937e-06
0.000181654
-8.89306e-06
0.000184596
-8.82469e-06
0.000187516
-8.75422e-06
0.000190411
-8.68165e-06
0.000193281
-8.60694e-06
0.000196125
-8.5301e-06
0.000198944
-8.4511e-06
0.000201735
-8.36992e-06
0.000204498
-8.28657e-06
0.000207233
-8.20103e-06
0.000209939
-8.11329e-06
0.000212614
-8.02335e-06
0.000215259
-7.93121e-06
0.000217873
-7.83687e-06
0.000220454
-7.74033e-06
0.000223003
-7.6416e-06
0.000225517
-7.54069e-06
0.000227998
-7.4376e-06
0.000230443
-7.33235e-06
0.000232853
-7.22496e-06
0.000235226
-7.11544e-06
0.000237561
-7.00382e-06
0.000239859
-6.89011e-06
0.000242118
-6.77435e-06
0.000244338
-6.65655e-06
0.000246518
-6.53676e-06
0.000248658
-6.415e-06
0.000250756
-6.2913e-06
0.000252812
-6.16572e-06
0.000254826
-6.03828e-06
0.000256797
-5.90902e-06
0.000258724
-5.778e-06
0.000260606
-5.64526e-06
0.000262444
-5.51084e-06
0.000264237
-5.3748e-06
0.000265983
-5.23719e-06
0.000267683
-5.09805e-06
0.000269337
-4.95745e-06
0.000270942
-4.81544e-06
0.000272501
-4.67208e-06
0.00027401
-4.52743e-06
0.000275472
-4.38154e-06
0.000276884
-4.23449e-06
0.000278246
-4.08632e-06
0.000279559
-3.93711e-06
0.000280822
-3.78691e-06
0.000282034
-3.6358e-06
0.000283196
-3.48382e-06
0.000284307
-3.33106e-06
0.000285366
-3.17757e-06
0.000286375
-3.02342e-06
0.000287331
-2.86867e-06
0.000288236
-2.71338e-06
0.000289089
-2.55763e-06
0.000289889
-2.40147e-06
0.000290638
-2.24496e-06
0.000291334
-2.08818e-06
0.000291978
-1.93118e-06
0.000292569
-1.77402e-06
0.000293108
-1.61676e-06
0.000293595
-1.45947e-06
0.000294029
-1.30219e-06
0.00029441
-1.145e-06
0.000294739
-9.87934e-07
0.000295016
-8.3106e-07
0.000295241
-6.74428e-07
0.000295413
-5.1809e-07
0.000295534
-3.62098e-07
0.000295603
-2.06502e-07
0.000295619
-5.13498e-08
0.000295585
1.03311e-07
0.000295499
2.57436e-07
0.000295361
4.10979e-07
0.000295173
5.63898e-07
0.000294934
7.1615e-07
0.000294644
8.67697e-07
0.000294304
1.0185e-06
0.000293914
1.16852e-06
0.000293474
1.31772e-06
0.000292985
1.46606e-06
0.000292447
1.61352e-06
0.00029186
1.76005e-06
0.000291224
1.90564e-06
0.00029054
2.05024e-06
0.000289808
2.19382e-06
0.000289029
2.33637e-06
0.000288202
2.47785e-06
0.000287329
2.61824e-06
0.000286409
2.7575e-06
0.000285443
2.89563e-06
0.000284432
3.03258e-06
0.000283375
3.16835e-06
0.000282273
3.3029e-06
0.000281127
3.43622e-06
0.000279937
3.56828e-06
0.000278703
3.69907e-06
0.000277426
3.82857e-06
0.000276107
3.95675e-06
0.000274745
4.08361e-06
0.000273341
4.20912e-06
0.000271896
4.33326e-06
0.00027041
4.45602e-06
0.000268883
4.57739e-06
0.000267316
4.69734e-06
0.00026571
4.81586e-06
0.000264065
4.93295e-06
0.000262382
5.04858e-06
0.00026066
5.16273e-06
0.000258901
5.27541e-06
0.000257104
5.38659e-06
0.000255271
5.49627e-06
0.000253402
5.60443e-06
0.000251498
5.71106e-06
0.000249558
5.81615e-06
0.000247584
5.91969e-06
0.000245576
6.02168e-06
0.000243534
6.12209e-06
0.00024146
6.22093e-06
0.000239353
6.31819e-06
0.000237214
6.41387e-06
0.000235044
6.50794e-06
0.000232843
6.60042e-06
0.000230611
6.69129e-06
0.00022835
6.78055e-06
0.00022606
6.86819e-06
0.000223741
6.95423e-06
0.000221394
7.03864e-06
0.000219019
7.12144e-06
0.000216618
7.20262e-06
0.000214189
7.28218e-06
0.000211735
7.36013e-06
0.000209255
7.43646e-06
0.000206751
7.51118e-06
0.000204222
7.58429e-06
0.000201669
7.65581e-06
0.000199093
7.72572e-06
0.000196494
7.79405e-06
0.000193873
7.8608e-06
0.00019123
7.92597e-06
0.000188566
7.98958e-06
0.000185881
8.05163e-06
0.000183176
8.11214e-06
0.000180452
8.17111e-06
0.000177708
8.22857e-06
0.000174946
8.28452e-06
0.000172165
8.33897e-06
0.000169367
8.39195e-06
0.000166552
8.44346e-06
0.00016372
8.49353e-06
0.000160872
8.54216e-06
0.000158008
8.58939e-06
0.000155128
8.63521e-06
0.000152234
8.67966e-06
0.000149326
8.72275e-06
0.000146404
8.7645e-06
0.000143468
8.80494e-06
0.000140519
8.84407e-06
0.000137558
8.88192e-06
0.000134585
8.91852e-06
0.000131599
8.95388e-06
0.000128603
8.98803e-06
0.000125595
9.02098e-06
0.000122577
9.05276e-06
0.000119548
9.08339e-06
0.00011651
9.1129e-06
0.000113462
9.14129e-06
0.000110406
9.16861e-06
0.00010734
9.19486e-06
0.000104266
9.22008e-06
0.000101184
9.24427e-06
9.80945e-05
9.26748e-06
9.49974e-05
9.2897e-06
9.18932e-05
9.31098e-06
8.87823e-05
9.33132e-06
8.56649e-05
9.35075e-06
8.25413e-05
9.36928e-06
7.94118e-05
9.38695e-06
7.62768e-05
9.40376e-06
7.31364e-05
9.41974e-06
6.9991e-05
9.43491e-06
6.68408e-05
9.44928e-06
6.36861e-05
9.46287e-06
6.05271e-05
9.4757e-06
5.73641e-05
9.48778e-06
5.41973e-05
9.49913e-06
5.1027e-05
9.50976e-06
4.78534e-05
9.51969e-06
4.46767e-05
9.52894e-06
4.14972e-05
9.53751e-06
3.8315e-05
9.54541e-06
3.51304e-05
9.55267e-06
3.19436e-05
9.55928e-06
2.87549e-05
9.56526e-06
2.55643e-05
9.57061e-06
2.23722e-05
9.57535e-06
1.91787e-05
9.57948e-06
1.5984e-05
9.58301e-06
1.27884e-05
9.58595e-06
9.59198e-06
9.58829e-06
6.39497e-06
9.59003e-06
3.19758e-06
9.59119e-06
9.59177e-06
3.44783e-06
-1.37882e-05
6.89544e-06
-1.37873e-05
1.03426e-05
-1.37856e-05
1.37891e-05
-1.37829e-05
1.72348e-05
-1.37794e-05
2.06793e-05
-1.3775e-05
2.41225e-05
-1.37696e-05
2.75642e-05
-1.37634e-05
3.10041e-05
-1.37562e-05
3.44419e-05
-1.3748e-05
3.78775e-05
-1.37389e-05
4.13106e-05
-1.37288e-05
4.47409e-05
-1.37177e-05
4.81683e-05
-1.37056e-05
5.15923e-05
-1.36924e-05
5.50128e-05
-1.36781e-05
5.84295e-05
-1.36627e-05
6.1842e-05
-1.36462e-05
6.52502e-05
-1.36285e-05
6.86537e-05
-1.36096e-05
7.20522e-05
-1.35895e-05
7.54454e-05
-1.35681e-05
7.88329e-05
-1.35453e-05
8.22144e-05
-1.35213e-05
8.55896e-05
-1.34958e-05
8.89582e-05
-1.34689e-05
9.23196e-05
-1.34406e-05
9.56737e-05
-1.34107e-05
9.90199e-05
-1.33793e-05
0.000102358
-1.33463e-05
0.000105687
-1.33116e-05
0.000109008
-1.32752e-05
0.000112318
-1.32371e-05
0.000115619
-1.31972e-05
0.00011891
-1.31554e-05
0.00012219
-1.31118e-05
0.000125458
-1.30662e-05
0.000128714
-1.30187e-05
0.000131958
-1.29691e-05
0.00013519
-1.29174e-05
0.000138407
-1.28636e-05
0.000141611
-1.28076e-05
0.000144801
-1.27494e-05
0.000147975
-1.26889e-05
0.000151133
-1.26261e-05
0.000154276
-1.25609e-05
0.000157401
-1.24933e-05
0.000160509
-1.24232e-05
0.000163599
-1.23507e-05
0.00016667
-1.22756e-05
0.000169722
-1.21979e-05
0.000172754
-1.21176e-05
0.000175765
-1.20347e-05
0.000178754
-1.1949e-05
0.000181722
-1.18606e-05
0.000184667
-1.17695e-05
0.000187588
-1.16756e-05
0.000190485
-1.15788e-05
0.000193358
-1.14793e-05
0.000196204
-1.13768e-05
0.000199025
-1.12715e-05
0.000201818
-1.11633e-05
0.000204584
-1.10522e-05
0.000207321
-1.09381e-05
0.000210029
-1.08211e-05
0.000212707
-1.07012e-05
0.000215354
-1.05784e-05
0.00021797
-1.04526e-05
0.000220553
-1.03239e-05
0.000223104
-1.01922e-05
0.000225621
-1.00576e-05
0.000228103
-9.92016e-06
0.000230551
-9.77981e-06
0.000232962
-9.63659e-06
0.000235337
-9.49053e-06
0.000237675
-9.34167e-06
0.000239975
-9.19002e-06
0.000242236
-9.03562e-06
0.000244458
-8.87851e-06
0.00024664
-8.71873e-06
0.000248782
-8.55633e-06
0.000250882
-8.39135e-06
0.00025294
-8.22384e-06
0.000254955
-8.05385e-06
0.000256928
-7.88145e-06
0.000258856
-7.70668e-06
0.000260741
-7.52962e-06
0.00026258
-7.35032e-06
0.000264374
-7.16885e-06
0.000266122
-6.98528e-06
0.000267824
-6.79968e-06
0.000269479
-6.61212e-06
0.000271086
-6.42269e-06
0.000272645
-6.23145e-06
0.000274156
-6.03849e-06
0.000275619
-5.84388e-06
0.000277032
-5.64771e-06
0.000278396
-5.45006e-06
0.00027971
-5.25101e-06
0.000280973
-5.05065e-06
0.000282187
-4.84906e-06
0.000283349
-4.64633e-06
0.000284461
-4.44254e-06
0.000285521
-4.23779e-06
0.000286529
-4.03215e-06
0.000287487
-3.82571e-06
0.000288392
-3.61857e-06
0.000289245
-3.4108e-06
0.000290046
-3.20249e-06
0.000290795
-2.99372e-06
0.000291491
-2.78458e-06
0.000292135
-2.57515e-06
0.000292727
-2.36551e-06
0.000293266
-2.15574e-06
0.000293752
-1.94592e-06
0.000294186
-1.73614e-06
0.000294567
-1.52645e-06
0.000294896
-1.31695e-06
0.000295173
-1.1077e-06
0.000295397
-8.98777e-07
0.00029557
-6.90247e-07
0.00029569
-4.82181e-07
0.000295758
-2.74643e-07
0.000295774
-6.77004e-08
0.000295739
1.38586e-07
0.000295652
3.44154e-07
0.000295514
5.48945e-07
0.000295325
7.52901e-07
0.000295085
9.55968e-07
0.000294795
1.15809e-06
0.000294454
1.35922e-06
0.000294063
1.5593e-06
0.000293623
1.75829e-06
0.000293133
1.95613e-06
0.000292594
2.15279e-06
0.000292005
2.34822e-06
0.000291369
2.54238e-06
0.000290684
2.73523e-06
0.000289951
2.92672e-06
0.00028917
3.11683e-06
0.000288343
3.30551e-06
0.000287468
3.49273e-06
0.000286547
3.67845e-06
0.00028558
3.86265e-06
0.000284567
4.04529e-06
0.000283509
4.22635e-06
0.000282407
4.40579e-06
0.000281259
4.58358e-06
0.000280068
4.75969e-06
0.000278833
4.93411e-06
0.000277554
5.1068e-06
0.000276234
5.27774e-06
0.00027487
5.44691e-06
0.000273465
5.61428e-06
0.000272018
5.77983e-06
0.000270531
5.94354e-06
0.000269003
6.10538e-06
0.000267435
6.26534e-06
0.000265827
6.4234e-06
0.000264181
6.57953e-06
0.000262496
6.73372e-06
0.000260772
6.88595e-06
0.000259012
7.03621e-06
0.000257214
7.18447e-06
0.000255379
7.33072e-06
0.000253509
7.47495e-06
0.000251603
7.61714e-06
0.000249662
7.75728e-06
0.000247686
7.89535e-06
0.000245676
8.03134e-06
0.000243633
8.16524e-06
0.000241557
8.29704e-06
0.000239449
8.42673e-06
0.000237308
8.5543e-06
0.000235136
8.67975e-06
0.000232934
8.80305e-06
0.000230701
8.92422e-06
0.000228438
9.04324e-06
0.000226146
9.16011e-06
0.000223826
9.27482e-06
0.000221477
9.38737e-06
0.0002191
9.49777e-06
0.000216697
9.60601e-06
0.000214267
9.71209e-06
0.000211811
9.81601e-06
0.00020933
9.91778e-06
0.000206824
1.00174e-05
0.000204293
1.01149e-05
0.000201739
1.02102e-05
0.000199161
1.03034e-05
0.000196561
1.03945e-05
0.000193938
1.04835e-05
0.000191293
1.05704e-05
0.000188628
1.06552e-05
0.000185941
1.07379e-05
0.000183235
1.08186e-05
0.000180509
1.08972e-05
0.000177764
1.09738e-05
0.000175
1.10483e-05
0.000172218
1.11209e-05
0.000169418
1.11915e-05
0.000166602
1.12602e-05
0.000163768
1.13269e-05
0.000160919
1.13918e-05
0.000158053
1.14547e-05
0.000155173
1.15158e-05
0.000152278
1.1575e-05
0.000149368
1.16324e-05
0.000146444
1.16881e-05
0.000143507
1.17419e-05
0.000140557
1.17941e-05
0.000137595
1.18445e-05
0.00013462
1.18933e-05
0.000131633
1.19404e-05
0.000128636
1.19859e-05
0.000125627
1.20298e-05
0.000122607
1.20721e-05
0.000119578
1.21129e-05
0.000116538
1.21522e-05
0.00011349
1.21901e-05
0.000110432
1.22265e-05
0.000107365
1.22614e-05
0.00010429
1.2295e-05
0.000101207
1.23272e-05
9.81167e-05
1.23581e-05
9.50186e-05
1.23878e-05
9.19135e-05
1.24161e-05
8.88016e-05
1.24432e-05
8.56833e-05
1.2469e-05
8.25589e-05
1.24937e-05
7.94286e-05
1.25173e-05
7.62927e-05
1.25396e-05
7.31515e-05
1.25609e-05
7.00053e-05
1.25811e-05
6.68543e-05
1.26003e-05
6.36989e-05
1.26183e-05
6.05391e-05
1.26354e-05
5.73754e-05
1.26515e-05
5.42079e-05
1.26666e-05
5.10369e-05
1.26808e-05
4.78626e-05
1.2694e-05
4.46852e-05
1.27063e-05
4.1505e-05
1.27177e-05
3.83222e-05
1.27282e-05
3.5137e-05
1.27379e-05
3.19496e-05
1.27467e-05
2.87602e-05
1.27546e-05
2.55691e-05
1.27618e-05
2.23763e-05
1.27681e-05
1.91822e-05
1.27736e-05
1.5987e-05
1.27783e-05
1.27907e-05
1.27822e-05
9.59372e-06
1.27853e-05
6.39614e-06
1.27876e-05
3.19816e-06
1.27892e-05
1.27899e-05
3.44871e-06
-1.72369e-05
6.89721e-06
-1.72358e-05
1.03453e-05
-1.72336e-05
1.37927e-05
-1.72303e-05
1.72392e-05
-1.72259e-05
2.06847e-05
-1.72204e-05
2.41288e-05
-1.72138e-05
2.75714e-05
-1.7206e-05
3.10123e-05
-1.7197e-05
3.44511e-05
-1.71868e-05
3.78877e-05
-1.71755e-05
4.13218e-05
-1.71629e-05
4.47531e-05
-1.71491e-05
4.81815e-05
-1.71339e-05
5.16066e-05
-1.71175e-05
5.50282e-05
-1.70997e-05
5.84461e-05
-1.70805e-05
6.18598e-05
-1.70599e-05
6.52692e-05
-1.70379e-05
6.86739e-05
-1.70143e-05
7.20737e-05
-1.69892e-05
7.54682e-05
-1.69625e-05
7.8857e-05
-1.69342e-05
8.224e-05
-1.69042e-05
8.56166e-05
-1.68725e-05
8.89866e-05
-1.6839e-05
9.23496e-05
-1.68036e-05
9.57052e-05
-1.67663e-05
9.90531e-05
-1.67271e-05
0.000102393
-1.66859e-05
0.000105724
-1.66427e-05
0.000109046
-1.65973e-05
0.000112359
-1.65497e-05
0.000115661
-1.64999e-05
0.000118954
-1.64478e-05
0.000122235
-1.63934e-05
0.000125506
-1.63365e-05
0.000128764
-1.62772e-05
0.00013201
-1.62153e-05
0.000135244
-1.61508e-05
0.000138464
-1.60836e-05
0.00014167
-1.60137e-05
0.000144861
-1.5941e-05
0.000148038
-1.58655e-05
0.000151199
-1.5787e-05
0.000154344
-1.57057e-05
0.000157471
-1.56212e-05
0.000160582
-1.55338e-05
0.000163674
-1.54431e-05
0.000166748
-1.53493e-05
0.000169803
-1.52523e-05
0.000172837
-1.5152e-05
0.000175851
-1.50484e-05
0.000178843
-1.49414e-05
0.000181813
-1.4831e-05
0.000184761
-1.47171e-05
0.000187685
-1.45997e-05
0.000190585
-1.44789e-05
0.00019346
-1.43544e-05
0.00019631
-1.42264e-05
0.000199133
-1.40948e-05
0.00020193
-1.39596e-05
0.000204698
-1.38207e-05
0.000207438
-1.36781e-05
0.000210149
-1.35319e-05
0.00021283
-1.3382e-05
0.00021548
-1.32285e-05
0.000218098
-1.30712e-05
0.000220685
-1.29103e-05
0.000223238
-1.27457e-05
0.000225758
-1.25775e-05
0.000228244
-1.24056e-05
0.000230694
-1.22301e-05
0.000233108
-1.20511e-05
0.000235486
-1.18684e-05
0.000237827
-1.16823e-05
0.00024013
-1.14927e-05
0.000242394
-1.12996e-05
0.000244618
-1.11031e-05
0.000246803
-1.09033e-05
0.000248947
-1.07002e-05
0.000251049
-1.04939e-05
0.00025311
-1.02844e-05
0.000255128
-1.00718e-05
0.000257103
-9.85623e-06
0.000259034
-9.63766e-06
0.00026092
-9.41621e-06
0.000262762
-9.19196e-06
0.000264558
-8.96499e-06
0.000266308
-8.73539e-06
0.000268012
-8.50326e-06
0.000269668
-8.26867e-06
0.000271277
-8.03174e-06
0.000272838
-7.79254e-06
0.000274351
-7.55119e-06
0.000275815
-7.30778e-06
0.00027723
-7.06241e-06
0.000278595
-6.81519e-06
0.00027991
-6.56622e-06
0.000281175
-6.31561e-06
0.000282389
-6.06346e-06
0.000283553
-5.80989e-06
0.000284665
-5.55499e-06
0.000285727
-5.29889e-06
0.000286736
-5.04168e-06
0.000287694
-4.78347e-06
0.0002886
-4.52438e-06
0.000289453
-4.26451e-06
0.000290255
-4.00396e-06
0.000291004
-3.74284e-06
0.000291701
-3.48126e-06
0.000292345
-3.21932e-06
0.000292936
-2.95712e-06
0.000293475
-2.69476e-06
0.000293962
-2.43235e-06
0.000294396
-2.16997e-06
0.000294777
-1.90773e-06
0.000295106
-1.64571e-06
0.000295382
-1.38401e-06
0.000295606
-1.12273e-06
0.000295778
-8.61938e-07
0.000295897
-6.0173e-07
0.000295965
-3.42188e-07
0.00029598
-8.33911e-08
0.000295944
1.74581e-07
0.000295857
4.31652e-07
0.000295718
6.87748e-07
0.000295528
9.42798e-07
0.000295288
1.19673e-06
0.000294996
1.44948e-06
0.000294654
1.70099e-06
0.000294262
1.95118e-06
0.000293821
2.2e-06
0.000293329
2.44739e-06
0.000292789
2.6933e-06
0.0002922
2.93766e-06
0.000291561
3.18044e-06
0.000290875
3.42157e-06
0.000290141
3.66101e-06
0.000289359
3.89871e-06
0.00028853
4.13462e-06
0.000287654
4.36871e-06
0.000286731
4.60093e-06
0.000285763
4.83124e-06
0.000284748
5.0596e-06
0.000283689
5.28597e-06
0.000282584
5.51032e-06
0.000281435
5.73261e-06
0.000280242
5.95281e-06
0.000279005
6.17088e-06
0.000277725
6.38679e-06
0.000276403
6.60051e-06
0.000275038
6.81201e-06
0.000273631
7.02127e-06
0.000272182
7.22825e-06
0.000270693
7.43292e-06
0.000269163
7.63526e-06
0.000267593
7.83525e-06
0.000265984
8.03285e-06
0.000264335
8.22806e-06
0.000262648
8.42083e-06
0.000260923
8.61115e-06
0.00025916
8.799e-06
0.00025736
8.98436e-06
0.000255524
9.1672e-06
0.000253651
9.34752e-06
0.000251743
9.52528e-06
0.0002498
9.70047e-06
0.000247822
9.87308e-06
0.00024581
1.00431e-05
0.000243765
1.02105e-05
0.000241687
1.03753e-05
0.000239576
1.05374e-05
0.000237433
1.06969e-05
0.00023526
1.08537e-05