/*--------------------------------*- C++ -*----------------------------------*\
| =========                 |                                                 |
| \\      /  F ield         | OpenFOAM: The Open Source CFD Toolbox           |
|  \\    /   O peration     | Version:  v2012                                 |
|   \\  /    A nd           | Website:  www.openfoam.com                      |
|    \\/     M anipulation  |                                                 |
\*---------------------------------------------------------------------------*/
FoamFile
{
    version     2.0;
    format      ascii;
    class       volVectorField;
    location    "2";
    object      Psi;
}
// * * * * * * * * * * * * * * * * * * * * * * * * * * * * * * * * * * * * * //

dimensions      [0 2 -1 0 0 0 0];


internalField   nonuniform List<vector> 
65536
(
(0 0 8.63342e-06)
(0 0 2.58996e-05)
(0 0 4.31641e-05)
(0 0 6.04259e-05)
(0 0 7.76838e-05)
(0 0 9.49367e-05)
(0 0 0.000112183)
(0 0 0.000129423)
(0 0 0.000146654)
(0 0 0.000163876)
(0 0 0.000181086)
(0 0 0.000198285)
(0 0 0.00021547)
(0 0 0.000232641)
(0 0 0.000249796)
(0 0 0.000266934)
(0 0 0.000284053)
(0 0 0.000301152)
(0 0 0.00031823)
(0 0 0.000335285)
(0 0 0.000352315)
(0 0 0.00036932)
(0 0 0.000386297)
(0 0 0.000403244)
(0 0 0.00042016)
(0 0 0.000437044)
(0 0 0.000453893)
(0 0 0.000470706)
(0 0 0.00048748)
(0 0 0.000504213)
(0 0 0.000520905)
(0 0 0.000537551)
(0 0 0.000554151)
(0 0 0.000570702)
(0 0 0.000587202)
(0 0 0.000603648)
(0 0 0.000620039)
(0 0 0.000636371)
(0 0 0.000652642)
(0 0 0.000668849)
(0 0 0.00068499)
(0 0 0.000701063)
(0 0 0.000717063)
(0 0 0.00073299)
(0 0 0.000748838)
(0 0 0.000764607)
(0 0 0.000780292)
(0 0 0.000795891)
(0 0 0.0008114)
(0 0 0.000826816)
(0 0 0.000842137)
(0 0 0.000857358)
(0 0 0.000872477)
(0 0 0.00088749)
(0 0 0.000902394)
(0 0 0.000917185)
(0 0 0.000931859)
(0 0 0.000946414)
(0 0 0.000960846)
(0 0 0.000975151)
(0 0 0.000989325)
(0 0 0.00100337)
(0 0 0.00101727)
(0 0 0.00103103)
(0 0 0.00104464)
(0 0 0.00105811)
(0 0 0.00107143)
(0 0 0.00108458)
(0 0 0.00109758)
(0 0 0.00111042)
(0 0 0.00112308)
(0 0 0.00113558)
(0 0 0.0011479)
(0 0 0.00116004)
(0 0 0.00117201)
(0 0 0.00118378)
(0 0 0.00119537)
(0 0 0.00120676)
(0 0 0.00121796)
(0 0 0.00122896)
(0 0 0.00123976)
(0 0 0.00125035)
(0 0 0.00126074)
(0 0 0.00127091)
(0 0 0.00128086)
(0 0 0.0012906)
(0 0 0.00130012)
(0 0 0.00130941)
(0 0 0.00131847)
(0 0 0.00132731)
(0 0 0.00133591)
(0 0 0.00134428)
(0 0 0.00135241)
(0 0 0.00136031)
(0 0 0.00136796)
(0 0 0.00137537)
(0 0 0.00138253)
(0 0 0.00138945)
(0 0 0.00139611)
(0 0 0.00140253)
(0 0 0.00140869)
(0 0 0.0014146)
(0 0 0.00142025)
(0 0 0.00142565)
(0 0 0.00143078)
(0 0 0.00143566)
(0 0 0.00144028)
(0 0 0.00144464)
(0 0 0.00144874)
(0 0 0.00145258)
(0 0 0.00145615)
(0 0 0.00145946)
(0 0 0.00146251)
(0 0 0.0014653)
(0 0 0.00146782)
(0 0 0.00147007)
(0 0 0.00147207)
(0 0 0.0014738)
(0 0 0.00147527)
(0 0 0.00147648)
(0 0 0.00147742)
(0 0 0.00147811)
(0 0 0.00147853)
(0 0 0.0014787)
(0 0 0.0014786)
(0 0 0.00147825)
(0 0 0.00147764)
(0 0 0.00147677)
(0 0 0.00147565)
(0 0 0.00147428)
(0 0 0.00147265)
(0 0 0.00147077)
(0 0 0.00146864)
(0 0 0.00146627)
(0 0 0.00146364)
(0 0 0.00146078)
(0 0 0.00145766)
(0 0 0.00145431)
(0 0 0.00145072)
(0 0 0.00144689)
(0 0 0.00144282)
(0 0 0.00143852)
(0 0 0.00143398)
(0 0 0.00142921)
(0 0 0.00142422)
(0 0 0.001419)
(0 0 0.00141355)
(0 0 0.00140788)
(0 0 0.00140199)
(0 0 0.00139588)
(0 0 0.00138956)
(0 0 0.00138302)
(0 0 0.00137627)
(0 0 0.00136931)
(0 0 0.00136214)
(0 0 0.00135477)
(0 0 0.0013472)
(0 0 0.00133942)
(0 0 0.00133145)
(0 0 0.00132328)
(0 0 0.00131492)
(0 0 0.00130637)
(0 0 0.00129764)
(0 0 0.00128871)
(0 0 0.00127961)
(0 0 0.00127032)
(0 0 0.00126086)
(0 0 0.00125122)
(0 0 0.00124141)
(0 0 0.00123143)
(0 0 0.00122128)
(0 0 0.00121096)
(0 0 0.00120049)
(0 0 0.00118985)
(0 0 0.00117906)
(0 0 0.00116812)
(0 0 0.00115702)
(0 0 0.00114577)
(0 0 0.00113438)
(0 0 0.00112285)
(0 0 0.00111117)
(0 0 0.00109936)
(0 0 0.00108741)
(0 0 0.00107533)
(0 0 0.00106312)
(0 0 0.00105078)
(0 0 0.00103831)
(0 0 0.00102573)
(0 0 0.00101303)
(0 0 0.0010002)
(0 0 0.00098727)
(0 0 0.000974224)
(0 0 0.000961069)
(0 0 0.000947809)
(0 0 0.000934444)
(0 0 0.000920979)
(0 0 0.000907415)
(0 0 0.000893755)
(0 0 0.000880002)
(0 0 0.000866158)
(0 0 0.000852225)
(0 0 0.000838207)
(0 0 0.000824104)
(0 0 0.000809921)
(0 0 0.000795658)
(0 0 0.000781319)
(0 0 0.000766905)
(0 0 0.000752419)
(0 0 0.000737864)
(0 0 0.000723241)
(0 0 0.000708552)
(0 0 0.0006938)
(0 0 0.000678986)
(0 0 0.000664113)
(0 0 0.000649183)
(0 0 0.000634198)
(0 0 0.000619159)
(0 0 0.000604069)
(0 0 0.00058893)
(0 0 0.000573742)
(0 0 0.000558509)
(0 0 0.000543232)
(0 0 0.000527912)
(0 0 0.000512552)
(0 0 0.000497152)
(0 0 0.000481715)
(0 0 0.000466242)
(0 0 0.000450735)
(0 0 0.000435195)
(0 0 0.000419624)
(0 0 0.000404023)
(0 0 0.000388394)
(0 0 0.000372737)
(0 0 0.000357055)
(0 0 0.000341349)
(0 0 0.000325619)
(0 0 0.000309868)
(0 0 0.000294096)
(0 0 0.000278305)
(0 0 0.000262496)
(0 0 0.00024667)
(0 0 0.000230827)
(0 0 0.000214971)
(0 0 0.0001991)
(0 0 0.000183218)
(0 0 0.000167323)
(0 0 0.000151419)
(0 0 0.000135505)
(0 0 0.000119582)
(0 0 0.000103653)
(0 0 8.77168e-05)
(0 0 7.17756e-05)
(0 0 5.58299e-05)
(0 0 3.98809e-05)
(0 0 2.39295e-05)
(0 0 7.97666e-06)
(0 0 2.59006e-05)
(0 0 7.77002e-05)
(0 0 0.000129495)
(0 0 0.000181281)
(0 0 0.000233056)
(0 0 0.000284815)
(0 0 0.000336557)
(0 0 0.000388277)
(0 0 0.000439971)
(0 0 0.000491637)
(0 0 0.00054327)
(0 0 0.000594867)
(0 0 0.000646424)
(0 0 0.000697938)
(0 0 0.000749404)
(0 0 0.000800819)
(0 0 0.000852178)
(0 0 0.000903477)
(0 0 0.000954711)
(0 0 0.00100588)
(0 0 0.00105697)
(0 0 0.00110798)
(0 0 0.00115892)
(0 0 0.00120976)
(0 0 0.00126051)
(0 0 0.00131116)
(0 0 0.00136171)
(0 0 0.00141215)
(0 0 0.00146248)
(0 0 0.00151268)
(0 0 0.00156276)
(0 0 0.0016127)
(0 0 0.0016625)
(0 0 0.00171215)
(0 0 0.00176166)
(0 0 0.001811)
(0 0 0.00186017)
(0 0 0.00190917)
(0 0 0.00195798)
(0 0 0.00200661)
(0 0 0.00205504)
(0 0 0.00210326)
(0 0 0.00215126)
(0 0 0.00219904)
(0 0 0.00224659)
(0 0 0.0022939)
(0 0 0.00234096)
(0 0 0.00238776)
(0 0 0.00243429)
(0 0 0.00248054)
(0 0 0.00252651)
(0 0 0.00257217)
(0 0 0.00261753)
(0 0 0.00266257)
(0 0 0.00270729)
(0 0 0.00275167)
(0 0 0.00279569)
(0 0 0.00283936)
(0 0 0.00288266)
(0 0 0.00292558)
(0 0 0.0029681)
(0 0 0.00301023)
(0 0 0.00305194)
(0 0 0.00309323)
(0 0 0.00313408)
(0 0 0.00317448)
(0 0 0.00321443)
(0 0 0.0032539)
(0 0 0.0032929)
(0 0 0.00333141)
(0 0 0.00336942)
(0 0 0.00340691)
(0 0 0.00344388)
(0 0 0.00348031)
(0 0 0.0035162)
(0 0 0.00355153)
(0 0 0.0035863)
(0 0 0.00362049)
(0 0 0.00365409)
(0 0 0.00368709)
(0 0 0.00371949)
(0 0 0.00375126)
(0 0 0.00378242)
(0 0 0.00381293)
(0 0 0.0038428)
(0 0 0.00387202)
(0 0 0.00390057)
(0 0 0.00392845)
(0 0 0.00395565)
(0 0 0.00398216)
(0 0 0.00400797)
(0 0 0.00403308)
(0 0 0.00405748)
(0 0 0.00408116)
(0 0 0.00410412)
(0 0 0.00412635)
(0 0 0.00414784)
(0 0 0.00416858)
(0 0 0.00418858)
(0 0 0.00420783)
(0 0 0.00422632)
(0 0 0.00424404)
(0 0 0.004261)
(0 0 0.00427719)
(0 0 0.00429261)
(0 0 0.00430725)
(0 0 0.00432111)
(0 0 0.00433419)
(0 0 0.00434648)
(0 0 0.00435799)
(0 0 0.00436871)
(0 0 0.00437865)
(0 0 0.00438779)
(0 0 0.00439615)
(0 0 0.00440371)
(0 0 0.00441049)
(0 0 0.00441647)
(0 0 0.00442167)
(0 0 0.00442607)
(0 0 0.00442969)
(0 0 0.00443253)
(0 0 0.00443458)
(0 0 0.00443585)
(0 0 0.00443634)
(0 0 0.00443606)
(0 0 0.004435)
(0 0 0.00443317)
(0 0 0.00443057)
(0 0 0.0044272)
(0 0 0.00442308)
(0 0 0.00441819)
(0 0 0.00441256)
(0 0 0.00440617)
(0 0 0.00439905)
(0 0 0.00439118)
(0 0 0.00438257)
(0 0 0.00437324)
(0 0 0.00436317)
(0 0 0.00435239)
(0 0 0.0043409)
(0 0 0.00432869)
(0 0 0.00431578)
(0 0 0.00430217)
(0 0 0.00428787)
(0 0 0.00427288)
(0 0 0.00425722)
(0 0 0.00424087)
(0 0 0.00422386)
(0 0 0.00420619)
(0 0 0.00418786)
(0 0 0.00416889)
(0 0 0.00414927)
(0 0 0.00412902)
(0 0 0.00410814)
(0 0 0.00408663)
(0 0 0.00406452)
(0 0 0.00404179)
(0 0 0.00401847)
(0 0 0.00399455)
(0 0 0.00397005)
(0 0 0.00394497)
(0 0 0.00391931)
(0 0 0.0038931)
(0 0 0.00386633)
(0 0 0.00383901)
(0 0 0.00381114)
(0 0 0.00378275)
(0 0 0.00375383)
(0 0 0.00372439)
(0 0 0.00369445)
(0 0 0.003664)
(0 0 0.00363306)
(0 0 0.00360163)
(0 0 0.00356972)
(0 0 0.00353734)
(0 0 0.0035045)
(0 0 0.00347121)
(0 0 0.00343747)
(0 0 0.00340329)
(0 0 0.00336869)
(0 0 0.00333366)
(0 0 0.00329821)
(0 0 0.00326236)
(0 0 0.00322612)
(0 0 0.00318948)
(0 0 0.00315246)
(0 0 0.00311507)
(0 0 0.00307731)
(0 0 0.0030392)
(0 0 0.00300073)
(0 0 0.00296192)
(0 0 0.00292278)
(0 0 0.00288332)
(0 0 0.00284353)
(0 0 0.00280344)
(0 0 0.00276304)
(0 0 0.00272234)
(0 0 0.00268136)
(0 0 0.0026401)
(0 0 0.00259857)
(0 0 0.00255676)
(0 0 0.00251471)
(0 0 0.0024724)
(0 0 0.00242984)
(0 0 0.00238705)
(0 0 0.00234403)
(0 0 0.00230079)
(0 0 0.00225733)
(0 0 0.00221366)
(0 0 0.00216979)
(0 0 0.00212572)
(0 0 0.00208146)
(0 0 0.00203702)
(0 0 0.0019924)
(0 0 0.00194761)
(0 0 0.00190265)
(0 0 0.00185753)
(0 0 0.00181226)
(0 0 0.00176684)
(0 0 0.00172128)
(0 0 0.00167557)
(0 0 0.00162974)
(0 0 0.00158378)
(0 0 0.0015377)
(0 0 0.0014915)
(0 0 0.00144518)
(0 0 0.00139876)
(0 0 0.00135224)
(0 0 0.00130562)
(0 0 0.0012589)
(0 0 0.0012121)
(0 0 0.00116521)
(0 0 0.00111824)
(0 0 0.00107119)
(0 0 0.00102407)
(0 0 0.000976881)
(0 0 0.000929626)
(0 0 0.000882309)
(0 0 0.000834934)
(0 0 0.000787505)
(0 0 0.000740025)
(0 0 0.000692498)
(0 0 0.000644927)
(0 0 0.000597315)
(0 0 0.000549665)
(0 0 0.000501981)
(0 0 0.000454266)
(0 0 0.000406523)
(0 0 0.000358755)
(0 0 0.000310965)
(0 0 0.000263156)
(0 0 0.000215331)
(0 0 0.000167493)
(0 0 0.000119645)
(0 0 7.179e-05)
(0 0 2.39305e-05)
(0 0 4.31695e-05)
(0 0 0.000129506)
(0 0 0.000215834)
(0 0 0.000302148)
(0 0 0.000388443)
(0 0 0.000474713)
(0 0 0.000560952)
(0 0 0.000647155)
(0 0 0.000733317)
(0 0 0.00081943)
(0 0 0.000905489)
(0 0 0.000991489)
(0 0 0.00107742)
(0 0 0.00116328)
(0 0 0.00124906)
(0 0 0.00133476)
(0 0 0.00142036)
(0 0 0.00150587)
(0 0 0.00159126)
(0 0 0.00167654)
(0 0 0.0017617)
(0 0 0.00184673)
(0 0 0.00193162)
(0 0 0.00201637)
(0 0 0.00210096)
(0 0 0.00218539)
(0 0 0.00226964)
(0 0 0.00235371)
(0 0 0.00243759)
(0 0 0.00252127)
(0 0 0.00260474)
(0 0 0.00268798)
(0 0 0.00277099)
(0 0 0.00285376)
(0 0 0.00293627)
(0 0 0.00301852)
(0 0 0.00310048)
(0 0 0.00318215)
(0 0 0.00326352)
(0 0 0.00334457)
(0 0 0.00342529)
(0 0 0.00350566)
(0 0 0.00358568)
(0 0 0.00366533)
(0 0 0.00374459)
(0 0 0.00382344)
(0 0 0.00390188)
(0 0 0.00397989)
(0 0 0.00405745)
(0 0 0.00413455)
(0 0 0.00421117)
(0 0 0.00428729)
(0 0 0.00436291)
(0 0 0.00443799)
(0 0 0.00451252)
(0 0 0.0045865)
(0 0 0.00465989)
(0 0 0.00473268)
(0 0 0.00480486)
(0 0 0.0048764)
(0 0 0.00494729)
(0 0 0.00501751)
(0 0 0.00508704)
(0 0 0.00515586)
(0 0 0.00522395)
(0 0 0.00529131)
(0 0 0.0053579)
(0 0 0.00542371)
(0 0 0.00548872)
(0 0 0.00555291)
(0 0 0.00561626)
(0 0 0.00567876)
(0 0 0.00574039)
(0 0 0.00580112)
(0 0 0.00586095)
(0 0 0.00591985)
(0 0 0.0059778)
(0 0 0.00603479)
(0 0 0.00609081)
(0 0 0.00614582)
(0 0 0.00619983)
(0 0 0.0062528)
(0 0 0.00630473)
(0 0 0.0063556)
(0 0 0.00640539)
(0 0 0.0064541)
(0 0 0.00650169)
(0 0 0.00654817)
(0 0 0.00659351)
(0 0 0.0066377)
(0 0 0.00668073)
(0 0 0.00672259)
(0 0 0.00676326)
(0 0 0.00680274)
(0 0 0.00684101)
(0 0 0.00687806)
(0 0 0.00691388)
(0 0 0.00694847)
(0 0 0.00698181)
(0 0 0.00701389)
(0 0 0.00704471)
(0 0 0.00707426)
(0 0 0.00710253)
(0 0 0.00712951)
(0 0 0.00715521)
(0 0 0.00717961)
(0 0 0.00720272)
(0 0 0.00722452)
(0 0 0.00724501)
(0 0 0.0072642)
(0 0 0.00728207)
(0 0 0.00729862)
(0 0 0.00731386)
(0 0 0.00732779)
(0 0 0.0073404)
(0 0 0.00735169)
(0 0 0.00736166)
(0 0 0.00737032)
(0 0 0.00737766)
(0 0 0.0073837)
(0 0 0.00738842)
(0 0 0.00739184)
(0 0 0.00739395)
(0 0 0.00739477)
(0 0 0.00739429)
(0 0 0.00739252)
(0 0 0.00738946)
(0 0 0.00738513)
(0 0 0.00737952)
(0 0 0.00737264)
(0 0 0.00736449)
(0 0 0.0073551)
(0 0 0.00734445)
(0 0 0.00733256)
(0 0 0.00731944)
(0 0 0.0073051)
(0 0 0.00728953)
(0 0 0.00727276)
(0 0 0.00725478)
(0 0 0.00723562)
(0 0 0.00721527)
(0 0 0.00719374)
(0 0 0.00717106)
(0 0 0.00714721)
(0 0 0.00712223)
(0 0 0.00709611)
(0 0 0.00706886)
(0 0 0.00704051)
(0 0 0.00701105)
(0 0 0.00698049)
(0 0 0.00694886)
(0 0 0.00691616)
(0 0 0.0068824)
(0 0 0.00684759)
(0 0 0.00681174)
(0 0 0.00677487)
(0 0 0.00673699)
(0 0 0.00669811)
(0 0 0.00665824)
(0 0 0.00661739)
(0 0 0.00657558)
(0 0 0.00653282)
(0 0 0.00648912)
(0 0 0.00644449)
(0 0 0.00639894)
(0 0 0.0063525)
(0 0 0.00630517)
(0 0 0.00625696)
(0 0 0.00620789)
(0 0 0.00615797)
(0 0 0.00610721)
(0 0 0.00605563)
(0 0 0.00600324)
(0 0 0.00595006)
(0 0 0.00589609)
(0 0 0.00584134)
(0 0 0.00578585)
(0 0 0.0057296)
(0 0 0.00567263)
(0 0 0.00561494)
(0 0 0.00555655)
(0 0 0.00549747)
(0 0 0.00543771)
(0 0 0.00537729)
(0 0 0.00531622)
(0 0 0.00525452)
(0 0 0.00519219)
(0 0 0.00512925)
(0 0 0.00506572)
(0 0 0.0050016)
(0 0 0.00493691)
(0 0 0.00487167)
(0 0 0.00480588)
(0 0 0.00473957)
(0 0 0.00467273)
(0 0 0.00460539)
(0 0 0.00453756)
(0 0 0.00446925)
(0 0 0.00440047)
(0 0 0.00433124)
(0 0 0.00426156)
(0 0 0.00419146)
(0 0 0.00412093)
(0 0 0.00405)
(0 0 0.00397868)
(0 0 0.00390697)
(0 0 0.00383489)
(0 0 0.00376245)
(0 0 0.00368966)
(0 0 0.00361654)
(0 0 0.00354308)
(0 0 0.00346931)
(0 0 0.00339523)
(0 0 0.00332086)
(0 0 0.0032462)
(0 0 0.00317126)
(0 0 0.00309606)
(0 0 0.0030206)
(0 0 0.00294489)
(0 0 0.00286895)
(0 0 0.00279277)
(0 0 0.00271637)
(0 0 0.00263977)
(0 0 0.00256296)
(0 0 0.00248595)
(0 0 0.00240876)
(0 0 0.00233139)
(0 0 0.00225384)
(0 0 0.00217614)
(0 0 0.00209827)
(0 0 0.00202026)
(0 0 0.00194211)
(0 0 0.00186382)
(0 0 0.0017854)
(0 0 0.00170686)
(0 0 0.00162821)
(0 0 0.00154945)
(0 0 0.00147058)
(0 0 0.00139162)
(0 0 0.00131257)
(0 0 0.00123343)
(0 0 0.00115421)
(0 0 0.00107492)
(0 0 0.000995566)
(0 0 0.000916147)
(0 0 0.00083667)
(0 0 0.000757141)
(0 0 0.000677566)
(0 0 0.00059795)
(0 0 0.000518296)
(0 0 0.000438611)
(0 0 0.0003589)
(0 0 0.000279167)
(0 0 0.000199417)
(0 0 0.000119655)
(0 0 3.98857e-05)
(0 0 6.04411e-05)
(0 0 0.00018132)
(0 0 0.000302186)
(0 0 0.000423034)
(0 0 0.000543855)
(0 0 0.000664641)
(0 0 0.000785384)
(0 0 0.000906077)
(0 0 0.00102671)
(0 0 0.00114728)
(0 0 0.00126777)
(0 0 0.00138818)
(0 0 0.00150849)
(0 0 0.00162871)
(0 0 0.00174881)
(0 0 0.00186879)
(0 0 0.00198865)
(0 0 0.00210836)
(0 0 0.00222793)
(0 0 0.00234733)
(0 0 0.00246657)
(0 0 0.00258562)
(0 0 0.00270448)
(0 0 0.00282314)
(0 0 0.00294158)
(0 0 0.00305979)
(0 0 0.00317776)
(0 0 0.00329547)
(0 0 0.00341292)
(0 0 0.00353008)
(0 0 0.00364695)
(0 0 0.0037635)
(0 0 0.00387974)
(0 0 0.00399562)
(0 0 0.00411116)
(0 0 0.00422631)
(0 0 0.00434108)
(0 0 0.00445544)
(0 0 0.00456937)
(0 0 0.00468286)
(0 0 0.00479589)
(0 0 0.00490843)
(0 0 0.00502048)
(0 0 0.005132)
(0 0 0.00524298)
(0 0 0.0053534)
(0 0 0.00546324)
(0 0 0.00557248)
(0 0 0.00568108)
(0 0 0.00578905)
(0 0 0.00589634)
(0 0 0.00600293)
(0 0 0.00610881)
(0 0 0.00621395)
(0 0 0.00631832)
(0 0 0.00642191)
(0 0 0.00652468)
(0 0 0.00662661)
(0 0 0.00672769)
(0 0 0.00682787)
(0 0 0.00692714)
(0 0 0.00702547)
(0 0 0.00712284)
(0 0 0.00721922)
(0 0 0.00731458)
(0 0 0.0074089)
(0 0 0.00750215)
(0 0 0.00759431)
(0 0 0.00768535)
(0 0 0.00777524)
(0 0 0.00786396)
(0 0 0.00795149)
(0 0 0.00803779)
(0 0 0.00812284)
(0 0 0.00820663)
(0 0 0.00828911)
(0 0 0.00837027)
(0 0 0.00845008)
(0 0 0.00852853)
(0 0 0.00860557)
(0 0 0.0086812)
(0 0 0.00875539)
(0 0 0.00882811)
(0 0 0.00889935)
(0 0 0.00896908)
(0 0 0.00903728)
(0 0 0.00910394)
(0 0 0.00916902)
(0 0 0.00923252)
(0 0 0.0092944)
(0 0 0.00935467)
(0 0 0.00941329)
(0 0 0.00947024)
(0 0 0.00952553)
(0 0 0.00957912)
(0 0 0.00963101)
(0 0 0.00968117)
(0 0 0.0097296)
(0 0 0.00977629)
(0 0 0.00982121)
(0 0 0.00986437)
(0 0 0.00990575)
(0 0 0.00994534)
(0 0 0.00998313)
(0 0 0.0100191)
(0 0 0.0100533)
(0 0 0.0100856)
(0 0 0.0101162)
(0 0 0.0101449)
(0 0 0.0101717)
(0 0 0.0101967)
(0 0 0.0102199)
(0 0 0.0102413)
(0 0 0.0102607)
(0 0 0.0102784)
(0 0 0.0102942)
(0 0 0.0103082)
(0 0 0.0103203)
(0 0 0.0103306)
(0 0 0.010339)
(0 0 0.0103456)
(0 0 0.0103504)
(0 0 0.0103534)
(0 0 0.0103545)
(0 0 0.0103538)
(0 0 0.0103513)
(0 0 0.010347)
(0 0 0.010341)
(0 0 0.0103331)
(0 0 0.0103235)
(0 0 0.0103121)
(0 0 0.0102989)
(0 0 0.010284)
(0 0 0.0102673)
(0 0 0.0102489)
(0 0 0.0102288)
(0 0 0.010207)
(0 0 0.0101835)
(0 0 0.0101584)
(0 0 0.0101315)
(0 0 0.010103)
(0 0 0.0100729)
(0 0 0.0100411)
(0 0 0.0100077)
(0 0 0.00997271)
(0 0 0.00993613)
(0 0 0.00989797)
(0 0 0.00985825)
(0 0 0.00981699)
(0 0 0.00977421)
(0 0 0.0097299)
(0 0 0.0096841)
(0 0 0.00963682)
(0 0 0.00958807)
(0 0 0.00953787)
(0 0 0.00948624)
(0 0 0.00943319)
(0 0 0.00937873)
(0 0 0.0093229)
(0 0 0.0092657)
(0 0 0.00920714)
(0 0 0.00914726)
(0 0 0.00908606)
(0 0 0.00902356)
(0 0 0.00895978)
(0 0 0.00889474)
(0 0 0.00882846)
(0 0 0.00876095)
(0 0 0.00869224)
(0 0 0.00862233)
(0 0 0.00855125)
(0 0 0.00847902)
(0 0 0.00840566)
(0 0 0.00833118)
(0 0 0.0082556)
(0 0 0.00817894)
(0 0 0.00810123)
(0 0 0.00802247)
(0 0 0.00794269)
(0 0 0.00786191)
(0 0 0.00778014)
(0 0 0.00769741)
(0 0 0.00761373)
(0 0 0.00752912)
(0 0 0.0074436)
(0 0 0.0073572)
(0 0 0.00726992)
(0 0 0.00718179)
(0 0 0.00709282)
(0 0 0.00700304)
(0 0 0.00691246)
(0 0 0.0068211)
(0 0 0.00672898)
(0 0 0.00663612)
(0 0 0.00654253)
(0 0 0.00644824)
(0 0 0.00635325)
(0 0 0.0062576)
(0 0 0.00616129)
(0 0 0.00606435)
(0 0 0.00596679)
(0 0 0.00586863)
(0 0 0.00576988)
(0 0 0.00567056)
(0 0 0.00557069)
(0 0 0.00547028)
(0 0 0.00536935)
(0 0 0.00526792)
(0 0 0.005166)
(0 0 0.00506361)
(0 0 0.00496076)
(0 0 0.00485746)
(0 0 0.00475374)
(0 0 0.0046496)
(0 0 0.00454506)
(0 0 0.00444014)
(0 0 0.00433484)
(0 0 0.00422918)
(0 0 0.00412318)
(0 0 0.00401684)
(0 0 0.00391019)
(0 0 0.00380322)
(0 0 0.00369596)
(0 0 0.00358841)
(0 0 0.00348059)
(0 0 0.00337251)
(0 0 0.00326418)
(0 0 0.00315561)
(0 0 0.00304681)
(0 0 0.00293779)
(0 0 0.00282856)
(0 0 0.00271914)
(0 0 0.00260952)
(0 0 0.00249973)
(0 0 0.00238977)
(0 0 0.00227964)
(0 0 0.00216937)
(0 0 0.00205895)
(0 0 0.00194839)
(0 0 0.00183771)
(0 0 0.00172691)
(0 0 0.001616)
(0 0 0.00150499)
(0 0 0.00139388)
(0 0 0.00128269)
(0 0 0.00117141)
(0 0 0.00106006)
(0 0 0.000948651)
(0 0 0.000837181)
(0 0 0.000725659)
(0 0 0.000614093)
(0 0 0.00050249)
(0 0 0.000390857)
(0 0 0.0002792)
(0 0 0.000167527)
(0 0 5.58434e-05)
(0 0 7.77167e-05)
(0 0 0.000233145)
(0 0 0.000388559)
(0 0 0.000543947)
(0 0 0.000699302)
(0 0 0.000854612)
(0 0 0.00100987)
(0 0 0.00116506)
(0 0 0.00132017)
(0 0 0.0014752)
(0 0 0.00163013)
(0 0 0.00178496)
(0 0 0.00193967)
(0 0 0.00209424)
(0 0 0.00224868)
(0 0 0.00240296)
(0 0 0.00255707)
(0 0 0.00271101)
(0 0 0.00286475)
(0 0 0.00301829)
(0 0 0.00317161)
(0 0 0.0033247)
(0 0 0.00347754)
(0 0 0.00363012)
(0 0 0.00378242)
(0 0 0.00393443)
(0 0 0.00408612)
(0 0 0.00423749)
(0 0 0.00438852)
(0 0 0.00453918)
(0 0 0.00468947)
(0 0 0.00483935)
(0 0 0.00498882)
(0 0 0.00513785)
(0 0 0.00528641)
(0 0 0.0054345)
(0 0 0.00558209)
(0 0 0.00572915)
(0 0 0.00587567)
(0 0 0.00602161)
(0 0 0.00616697)
(0 0 0.0063117)
(0 0 0.00645579)
(0 0 0.00659921)
(0 0 0.00674194)
(0 0 0.00688395)
(0 0 0.00702521)
(0 0 0.00716569)
(0 0 0.00730537)
(0 0 0.00744421)
(0 0 0.00758219)
(0 0 0.00771929)
(0 0 0.00785546)
(0 0 0.00799068)
(0 0 0.00812491)
(0 0 0.00825814)
(0 0 0.00839031)
(0 0 0.00852141)
(0 0 0.00865141)
(0 0 0.00878026)
(0 0 0.00890794)
(0 0 0.00903441)
(0 0 0.00915964)
(0 0 0.0092836)
(0 0 0.00940625)
(0 0 0.00952756)
(0 0 0.0096475)
(0 0 0.00976603)
(0 0 0.00988313)
(0 0 0.00999875)
(0 0 0.0101129)
(0 0 0.0102254)
(0 0 0.0103364)
(0 0 0.0104458)
(0 0 0.0105536)
(0 0 0.0106597)
(0 0 0.0107641)
(0 0 0.0108667)
(0 0 0.0109676)
(0 0 0.0110667)
(0 0 0.011164)
(0 0 0.0112594)
(0 0 0.011353)
(0 0 0.0114446)
(0 0 0.0115343)
(0 0 0.011622)
(0 0 0.0117078)
(0 0 0.0117915)
(0 0 0.0118731)
(0 0 0.0119527)
(0 0 0.0120302)
(0 0 0.0121056)
(0 0 0.0121789)
(0 0 0.01225)
(0 0 0.0123189)
(0 0 0.0123857)
(0 0 0.0124502)
(0 0 0.0125125)
(0 0 0.0125725)
(0 0 0.0126303)
(0 0 0.0126858)
(0 0 0.012739)
(0 0 0.0127899)
(0 0 0.0128385)
(0 0 0.0128848)
(0 0 0.0129288)
(0 0 0.0129704)
(0 0 0.0130096)
(0 0 0.0130465)
(0 0 0.0130811)
(0 0 0.0131132)
(0 0 0.0131431)
(0 0 0.0131705)
(0 0 0.0131956)
(0 0 0.0132182)
(0 0 0.0132386)
(0 0 0.0132565)
(0 0 0.0132721)
(0 0 0.0132853)
(0 0 0.0132962)
(0 0 0.0133046)
(0 0 0.0133108)
(0 0 0.0133146)
(0 0 0.013316)
(0 0 0.0133151)
(0 0 0.0133119)
(0 0 0.0133064)
(0 0 0.0132986)
(0 0 0.0132885)
(0 0 0.013276)
(0 0 0.0132614)
(0 0 0.0132444)
(0 0 0.0132252)
(0 0 0.0132038)
(0 0 0.0131801)
(0 0 0.0131543)
(0 0 0.0131262)
(0 0 0.013096)
(0 0 0.0130636)
(0 0 0.0130291)
(0 0 0.0129924)
(0 0 0.0129536)
(0 0 0.0129127)
(0 0 0.0128698)
(0 0 0.0128248)
(0 0 0.0127777)
(0 0 0.0127286)
(0 0 0.0126775)
(0 0 0.0126245)
(0 0 0.0125694)
(0 0 0.0125124)
(0 0 0.0124535)
(0 0 0.0123927)
(0 0 0.01233)
(0 0 0.0122654)
(0 0 0.012199)
(0 0 0.0121308)
(0 0 0.0120607)
(0 0 0.0119889)
(0 0 0.0119154)
(0 0 0.01184)
(0 0 0.011763)
(0 0 0.0116843)
(0 0 0.0116039)
(0 0 0.0115219)
(0 0 0.0114382)
(0 0 0.011353)
(0 0 0.0112662)
(0 0 0.0111778)
(0 0 0.0110879)
(0 0 0.0109964)
(0 0 0.0109035)
(0 0 0.0108092)
(0 0 0.0107134)
(0 0 0.0106162)
(0 0 0.0105176)
(0 0 0.0104176)
(0 0 0.0103164)
(0 0 0.0102137)
(0 0 0.0101099)
(0 0 0.0100047)
(0 0 0.00989829)
(0 0 0.00979067)
(0 0 0.00968186)
(0 0 0.00957187)
(0 0 0.00946075)
(0 0 0.0093485)
(0 0 0.00923515)
(0 0 0.00912074)
(0 0 0.00900527)
(0 0 0.00888878)
(0 0 0.00877129)
(0 0 0.00865282)
(0 0 0.00853339)
(0 0 0.00841303)
(0 0 0.00829177)
(0 0 0.00816962)
(0 0 0.00804661)
(0 0 0.00792275)
(0 0 0.00779808)
(0 0 0.00767262)
(0 0 0.00754638)
(0 0 0.00741939)
(0 0 0.00729166)
(0 0 0.00716323)
(0 0 0.00703411)
(0 0 0.00690432)
(0 0 0.00677388)
(0 0 0.00664281)
(0 0 0.00651114)
(0 0 0.00637888)
(0 0 0.00624604)
(0 0 0.00611266)
(0 0 0.00597874)
(0 0 0.00584431)
(0 0 0.00570939)
(0 0 0.00557398)
(0 0 0.00543812)
(0 0 0.0053018)
(0 0 0.00516506)
(0 0 0.00502791)
(0 0 0.00489036)
(0 0 0.00475243)
(0 0 0.00461414)
(0 0 0.0044755)
(0 0 0.00433652)
(0 0 0.00419721)
(0 0 0.0040576)
(0 0 0.0039177)
(0 0 0.00377752)
(0 0 0.00363707)
(0 0 0.00349636)
(0 0 0.00335541)
(0 0 0.00321423)
(0 0 0.00307283)
(0 0 0.00293123)
(0 0 0.00278943)
(0 0 0.00264745)
(0 0 0.00250529)
(0 0 0.00236297)
(0 0 0.0022205)
(0 0 0.00207789)
(0 0 0.00193515)
(0 0 0.00179228)
(0 0 0.0016493)
(0 0 0.00150622)
(0 0 0.00136305)
(0 0 0.00121979)
(0 0 0.00107646)
(0 0 0.000933066)
(0 0 0.000789612)
(0 0 0.000646111)
(0 0 0.000502571)
(0 0 0.000359001)
(0 0 0.000215409)
(0 0 7.18044e-05)
(0 0 9.49971e-05)
(0 0 0.000284985)
(0 0 0.000474955)
(0 0 0.000664895)
(0 0 0.000854794)
(0 0 0.00104464)
(0 0 0.00123441)
(0 0 0.00142411)
(0 0 0.00161372)
(0 0 0.00180322)
(0 0 0.00199261)
(0 0 0.00218186)
(0 0 0.00237097)
(0 0 0.00255992)
(0 0 0.0027487)
(0 0 0.00293729)
(0 0 0.00312568)
(0 0 0.00331385)
(0 0 0.00350178)
(0 0 0.00368947)
(0 0 0.00387689)
(0 0 0.00406403)
(0 0 0.00425086)
(0 0 0.00443738)
(0 0 0.00462356)
(0 0 0.00480938)
(0 0 0.00499482)
(0 0 0.00517986)
(0 0 0.00536449)
(0 0 0.00554867)
(0 0 0.00573239)
(0 0 0.00591562)
(0 0 0.00609834)
(0 0 0.00628053)
(0 0 0.00646216)
(0 0 0.0066432)
(0 0 0.00682363)
(0 0 0.00700341)
(0 0 0.00718254)
(0 0 0.00736096)
(0 0 0.00753867)
(0 0 0.00771562)
(0 0 0.00789178)
(0 0 0.00806713)
(0 0 0.00824162)
(0 0 0.00841524)
(0 0 0.00858795)
(0 0 0.00875971)
(0 0 0.00893048)
(0 0 0.00910024)
(0 0 0.00926895)
(0 0 0.00943656)
(0 0 0.00960306)
(0 0 0.00976839)
(0 0 0.00993252)
(0 0 0.0100954)
(0 0 0.010257)
(0 0 0.0104173)
(0 0 0.0105763)
(0 0 0.0107338)
(0 0 0.0108899)
(0 0 0.0110446)
(0 0 0.0111977)
(0 0 0.0113493)
(0 0 0.0114993)
(0 0 0.0116476)
(0 0 0.0117943)
(0 0 0.0119392)
(0 0 0.0120824)
(0 0 0.0122238)
(0 0 0.0123633)
(0 0 0.012501)
(0 0 0.0126367)
(0 0 0.0127705)
(0 0 0.0129023)
(0 0 0.013032)
(0 0 0.0131596)
(0 0 0.0132852)
(0 0 0.0134086)
(0 0 0.0135297)
(0 0 0.0136487)
(0 0 0.0137654)
(0 0 0.0138798)
(0 0 0.0139918)
(0 0 0.0141015)
(0 0 0.0142088)
(0 0 0.0143136)
(0 0 0.014416)
(0 0 0.0145158)
(0 0 0.0146132)
(0 0 0.0147079)
(0 0 0.0148001)
(0 0 0.0148897)
(0 0 0.0149767)
(0 0 0.015061)
(0 0 0.0151426)
(0 0 0.0152214)
(0 0 0.0152976)
(0 0 0.015371)
(0 0 0.0154417)
(0 0 0.0155095)
(0 0 0.0155746)
(0 0 0.0156369)
(0 0 0.0156963)
(0 0 0.0157529)
(0 0 0.0158066)
(0 0 0.0158575)
(0 0 0.0159055)
(0 0 0.0159506)
(0 0 0.0159928)
(0 0 0.0160321)
(0 0 0.0160686)
(0 0 0.0161021)
(0 0 0.0161327)
(0 0 0.0161605)
(0 0 0.0161853)
(0 0 0.0162072)
(0 0 0.0162263)
(0 0 0.0162424)
(0 0 0.0162557)
(0 0 0.016266)
(0 0 0.0162735)
(0 0 0.0162781)
(0 0 0.0162799)
(0 0 0.0162788)
(0 0 0.0162749)
(0 0 0.0162681)
(0 0 0.0162585)
(0 0 0.0162461)
(0 0 0.0162309)
(0 0 0.0162129)
(0 0 0.0161922)
(0 0 0.0161687)
(0 0 0.0161425)
(0 0 0.0161136)
(0 0 0.0160819)
(0 0 0.0160476)
(0 0 0.0160106)
(0 0 0.015971)
(0 0 0.0159288)
(0 0 0.0158839)
(0 0 0.0158365)
(0 0 0.0157865)
(0 0 0.0157339)
(0 0 0.0156789)
(0 0 0.0156213)
(0 0 0.0155613)
(0 0 0.0154988)
(0 0 0.0154339)
(0 0 0.0153666)
(0 0 0.0152969)
(0 0 0.0152249)
(0 0 0.0151505)
(0 0 0.0150738)
(0 0 0.0149948)
(0 0 0.0149136)
(0 0 0.0148302)
(0 0 0.0147445)
(0 0 0.0146567)
(0 0 0.0145667)
(0 0 0.0144746)
(0 0 0.0143805)
(0 0 0.0142842)
(0 0 0.0141859)
(0 0 0.0140856)
(0 0 0.0139833)
(0 0 0.0138791)
(0 0 0.0137729)
(0 0 0.0136648)
(0 0 0.0135549)
(0 0 0.0134431)
(0 0 0.0133295)
(0 0 0.0132141)
(0 0 0.013097)
(0 0 0.0129782)
(0 0 0.0128576)
(0 0 0.0127354)
(0 0 0.0126116)
(0 0 0.0124861)
(0 0 0.0123591)
(0 0 0.0122305)
(0 0 0.0121004)
(0 0 0.0119688)
(0 0 0.0118358)
(0 0 0.0117013)
(0 0 0.0115654)
(0 0 0.0114282)
(0 0 0.0112896)
(0 0 0.0111497)
(0 0 0.0110085)
(0 0 0.0108661)
(0 0 0.0107225)
(0 0 0.0105776)
(0 0 0.0104316)
(0 0 0.0102844)
(0 0 0.0101362)
(0 0 0.00998685)
(0 0 0.00983645)
(0 0 0.00968503)
(0 0 0.00953261)
(0 0 0.00937922)
(0 0 0.00922488)
(0 0 0.00906963)
(0 0 0.00891348)
(0 0 0.00875646)
(0 0 0.0085986)
(0 0 0.00843993)
(0 0 0.00828046)
(0 0 0.00812023)
(0 0 0.00795926)
(0 0 0.00779756)
(0 0 0.00763517)
(0 0 0.00747211)
(0 0 0.0073084)
(0 0 0.00714406)
(0 0 0.00697911)
(0 0 0.00681358)
(0 0 0.00664749)
(0 0 0.00648085)
(0 0 0.00631369)
(0 0 0.00614603)
(0 0 0.00597789)
(0 0 0.00580928)
(0 0 0.00564022)
(0 0 0.00547073)
(0 0 0.00530084)
(0 0 0.00513055)
(0 0 0.00495989)
(0 0 0.00478887)
(0 0 0.00461751)
(0 0 0.00444582)
(0 0 0.00427382)
(0 0 0.00410153)
(0 0 0.00392895)
(0 0 0.00375611)
(0 0 0.00358301)
(0 0 0.00340968)
(0 0 0.00323612)
(0 0 0.00306235)
(0 0 0.00288839)
(0 0 0.00271424)
(0 0 0.00253991)
(0 0 0.00236543)
(0 0 0.00219079)
(0 0 0.00201602)
(0 0 0.00184113)
(0 0 0.00166612)
(0 0 0.00149101)
(0 0 0.00131581)
(0 0 0.00114053)
(0 0 0.000965179)
(0 0 0.000789771)
(0 0 0.000614315)
(0 0 0.000438823)
(0 0 0.000263304)
(0 0 8.77697e-05)
(0 0 0.000112284)
(0 0 0.000336844)
(0 0 0.000561382)
(0 0 0.000785886)
(0 0 0.00101034)
(0 0 0.00123473)
(0 0 0.00145904)
(0 0 0.00168326)
(0 0 0.00190737)
(0 0 0.00213136)
(0 0 0.00235521)
(0 0 0.00257891)
(0 0 0.00280243)
(0 0 0.00302577)
(0 0 0.00324891)
(0 0 0.00347182)
(0 0 0.0036945)
(0 0 0.00391692)
(0 0 0.00413907)
(0 0 0.00436092)
(0 0 0.00458246)
(0 0 0.00480366)
(0 0 0.00502451)
(0 0 0.00524498)
(0 0 0.00546506)
(0 0 0.00568471)
(0 0 0.00590392)
(0 0 0.00612265)
(0 0 0.0063409)
(0 0 0.00655862)
(0 0 0.0067758)
(0 0 0.0069924)
(0 0 0.0072084)
(0 0 0.00742377)
(0 0 0.00763848)
(0 0 0.0078525)
(0 0 0.0080658)
(0 0 0.00827835)
(0 0 0.0084901)
(0 0 0.00870104)
(0 0 0.00891112)
(0 0 0.00912032)
(0 0 0.00932858)
(0 0 0.00953589)
(0 0 0.00974219)
(0 0 0.00994745)
(0 0 0.0101516)
(0 0 0.0103547)
(0 0 0.0105566)
(0 0 0.0107573)
(0 0 0.0109568)
(0 0 0.011155)
(0 0 0.0113518)
(0 0 0.0115473)
(0 0 0.0117414)
(0 0 0.011934)
(0 0 0.0121251)
(0 0 0.0123146)
(0 0 0.0125025)
(0 0 0.0126888)
(0 0 0.0128734)
(0 0 0.0130563)
(0 0 0.0132373)
(0 0 0.0134166)
(0 0 0.0135939)
(0 0 0.0137693)
(0 0 0.0139427)
(0 0 0.0141141)
(0 0 0.0142834)
(0 0 0.0144506)
(0 0 0.0146156)
(0 0 0.0147784)
(0 0 0.0149389)
(0 0 0.0150971)
(0 0 0.0152529)
(0 0 0.0154064)
(0 0 0.0155573)
(0 0 0.0157058)
(0 0 0.0158517)
(0 0 0.015995)
(0 0 0.0161356)
(0 0 0.0162736)
(0 0 0.0164089)
(0 0 0.0165414)
(0 0 0.0166711)
(0 0 0.0167979)
(0 0 0.0169219)
(0 0 0.0170429)
(0 0 0.017161)
(0 0 0.0172761)
(0 0 0.0173882)
(0 0 0.0174972)
(0 0 0.0176032)
(0 0 0.017706)
(0 0 0.0178057)
(0 0 0.0179021)
(0 0 0.0179954)
(0 0 0.0180855)
(0 0 0.0181723)
(0 0 0.0182558)
(0 0 0.0183361)
(0 0 0.018413)
(0 0 0.0184866)
(0 0 0.0185569)
(0 0 0.0186238)
(0 0 0.0186873)
(0 0 0.0187474)
(0 0 0.0188042)
(0 0 0.0188575)
(0 0 0.0189074)
(0 0 0.0189539)
(0 0 0.018997)
(0 0 0.0190366)
(0 0 0.0190728)
(0 0 0.0191056)
(0 0 0.0191349)
(0 0 0.0191609)
(0 0 0.0191833)
(0 0 0.0192024)
(0 0 0.0192181)
(0 0 0.0192303)
(0 0 0.0192391)
(0 0 0.0192446)
(0 0 0.0192466)
(0 0 0.0192453)
(0 0 0.0192406)
(0 0 0.0192326)
(0 0 0.0192212)
(0 0 0.0192065)
(0 0 0.0191886)
(0 0 0.0191673)
(0 0 0.0191427)
(0 0 0.0191149)
(0 0 0.0190839)
(0 0 0.0190497)
(0 0 0.0190123)
(0 0 0.0189717)
(0 0 0.0189279)
(0 0 0.018881)
(0 0 0.0188311)
(0 0 0.018778)
(0 0 0.0187219)
(0 0 0.0186628)
(0 0 0.0186006)
(0 0 0.0185355)
(0 0 0.0184674)
(0 0 0.0183964)
(0 0 0.0183225)
(0 0 0.0182458)
(0 0 0.0181662)
(0 0 0.0180837)
(0 0 0.0179985)
(0 0 0.0179106)
(0 0 0.0178199)
(0 0 0.0177265)
(0 0 0.0176305)
(0 0 0.0175318)
(0 0 0.0174305)
(0 0 0.0173266)
(0 0 0.0172203)
(0 0 0.0171114)
(0 0 0.017)
(0 0 0.0168862)
(0 0 0.0167699)
(0 0 0.0166513)
(0 0 0.0165304)
(0 0 0.0164071)
(0 0 0.0162816)
(0 0 0.0161538)
(0 0 0.0160238)
(0 0 0.0158916)
(0 0 0.0157573)
(0 0 0.0156209)
(0 0 0.0154824)
(0 0 0.0153418)
(0 0 0.0151993)
(0 0 0.0150548)
(0 0 0.0149084)
(0 0 0.01476)
(0 0 0.0146098)
(0 0 0.0144578)
(0 0 0.014304)
(0 0 0.0141484)
(0 0 0.0139911)
(0 0 0.0138321)
(0 0 0.0136715)
(0 0 0.0135092)
(0 0 0.0133453)
(0 0 0.0131799)
(0 0 0.013013)
(0 0 0.0128446)
(0 0 0.0126748)
(0 0 0.0125036)
(0 0 0.0123309)
(0 0 0.012157)
(0 0 0.0119817)
(0 0 0.0118051)
(0 0 0.0116273)
(0 0 0.0114483)
(0 0 0.0112681)
(0 0 0.0110868)