/*--------------------------------*- C++ -*----------------------------------*\
| =========                 |                                                 |
| \\      /  F ield         | OpenFOAM: The Open Source CFD Toolbox           |
|  \\    /   O peration     | Version:  v2012                                 |
|   \\  /    A nd           | Website:  www.openfoam.com                      |
|    \\/     M anipulation  |                                                 |
\*---------------------------------------------------------------------------*/
FoamFile
{
    version     2.0;
    format      ascii;
    class       volVectorField;
    location    "2";
    object      U;
}
// * * * * * * * * * * * * * * * * * * * * * * * * * * * * * * * * * * * * * //

dimensions      [0 1 -1 0 0 0 0];


internalField   nonuniform List<vector> 
65536
(
(0.000702129 -0.000702108 0)
(0.00210634 -0.000702061 0)
(0.00351041 -0.00070197 0)
(0.00491426 -0.000701835 0)
(0.00631779 -0.000701654 0)
(0.00772092 -0.000701427 0)
(0.00912354 -0.000701153 0)
(0.0105256 -0.000700832 0)
(0.0119269 -0.000700463 0)
(0.0133275 -0.000700046 0)
(0.0147271 -0.000699579 0)
(0.0161258 -0.000699062 0)
(0.0175234 -0.000698493 0)
(0.0189199 -0.000697871 0)
(0.020315 -0.000697196 0)
(0.0217087 -0.000696465 0)
(0.0231009 -0.000695677 0)
(0.0244915 -0.000694832 0)
(0.0258803 -0.000693926 0)
(0.0272672 -0.000692959 0)
(0.0286522 -0.000691929 0)
(0.030035 -0.000690833 0)
(0.0314156 -0.000689671 0)
(0.0327937 -0.00068844 0)
(0.0341694 -0.000687138 0)
(0.0355424 -0.000685763 0)
(0.0369125 -0.000684313 0)
(0.0382797 -0.000682785 0)
(0.0396437 -0.000681178 0)
(0.0410045 -0.00067949 0)
(0.0423618 -0.000677717 0)
(0.0437154 -0.000675858 0)
(0.0450653 -0.00067391 0)
(0.0464112 -0.000671871 0)
(0.0477529 -0.000669737 0)
(0.0490902 -0.000667508 0)
(0.050423 -0.00066518 0)
(0.051751 -0.000662751 0)
(0.0530741 -0.000660219 0)
(0.054392 -0.00065758 0)
(0.0557045 -0.000654833 0)
(0.0570114 -0.000651975 0)
(0.0583125 -0.000649003 0)
(0.0596076 -0.000645916 0)
(0.0608963 -0.00064271 0)
(0.0621785 -0.000639384 0)
(0.063454 -0.000635936 0)
(0.0647224 -0.000632362 0)
(0.0659835 -0.000628661 0)
(0.0672372 -0.00062483 0)
(0.068483 -0.000620869 0)
(0.0697208 -0.000616774 0)
(0.0709502 -0.000612544 0)
(0.0721711 -0.000608177 0)
(0.0733831 -0.000603672 0)
(0.0745859 -0.000599026 0)
(0.0757793 -0.000594239 0)
(0.076963 -0.000589309 0)
(0.0781367 -0.000584234 0)
(0.0793001 -0.000579014 0)
(0.0804529 -0.000573648 0)
(0.0815948 -0.000568135 0)
(0.0827256 -0.000562474 0)
(0.0838449 -0.000556664 0)
(0.0849524 -0.000550706 0)
(0.0860478 -0.000544598 0)
(0.0871309 -0.000538341 0)
(0.0882014 -0.000531935 0)
(0.0892588 -0.00052538 0)
(0.090303 -0.000518677 0)
(0.0913337 -0.000511825 0)
(0.0923505 -0.000504827 0)
(0.0933531 -0.000497681 0)
(0.0943413 -0.000490391 0)
(0.0953148 -0.000482956 0)
(0.0962733 -0.000475378 0)
(0.0972165 -0.00046766 0)
(0.0981441 -0.000459801 0)
(0.0990558 -0.000451805 0)
(0.0999514 -0.000443674 0)
(0.100831 -0.00043541 0)
(0.101693 -0.000427014 0)
(0.102539 -0.00041849 0)
(0.103367 -0.000409841 0)
(0.104178 -0.000401068 0)
(0.104972 -0.000392176 0)
(0.105747 -0.000383167 0)
(0.106504 -0.000374045 0)
(0.107243 -0.000364812 0)
(0.107964 -0.000355473 0)
(0.108665 -0.000346031 0)
(0.109348 -0.000336489 0)
(0.110011 -0.000326852 0)
(0.110656 -0.000317123 0)
(0.11128 -0.000307307 0)
(0.111885 -0.000297407 0)
(0.11247 -0.000287427 0)
(0.113035 -0.000277373 0)
(0.113579 -0.000267247 0)
(0.114104 -0.000257055 0)
(0.114608 -0.0002468 0)
(0.115091 -0.000236487 0)
(0.115554 -0.00022612 0)
(0.115996 -0.000215704 0)
(0.116417 -0.000205243 0)
(0.116817 -0.000194741 0)
(0.117196 -0.000184203 0)
(0.117553 -0.000173633 0)
(0.11789 -0.000163036 0)
(0.118206 -0.000152415 0)
(0.1185 -0.000141775 0)
(0.118773 -0.00013112 0)
(0.119024 -0.000120455 0)
(0.119255 -0.000109782 0)
(0.119463 -9.91075e-05 0)
(0.119651 -8.84337e-05 0)
(0.119817 -7.77651e-05 0)
(0.119962 -6.71055e-05 0)
(0.120086 -5.64585e-05 0)
(0.120188 -4.58279e-05 0)
(0.120269 -3.52171e-05 0)
(0.120329 -2.46296e-05 0)
(0.120367 -1.40689e-05 0)
(0.120385 -3.53815e-06 0)
(0.120381 6.95938e-06 0)
(0.120357 1.74206e-05 0)
(0.120312 2.78425e-05 0)
(0.120246 3.82221e-05 0)
(0.120159 4.85567e-05 0)
(0.120051 5.88434e-05 0)
(0.119923 6.90797e-05 0)
(0.119775 7.9263e-05 0)
(0.119606 8.93907e-05 0)
(0.119417 9.94606e-05 0)
(0.119208 0.00010947 0)
(0.118979 0.000119418 0)
(0.118731 0.0001293 0)
(0.118462 0.000139116 0)
(0.118174 0.000148864 0)
(0.117867 0.000158541 0)
(0.11754 0.000168145 0)
(0.117194 0.000177675 0)
(0.116829 0.00018713 0)
(0.116445 0.000196507 0)
(0.116043 0.000205804 0)
(0.115622 0.000215021 0)
(0.115183 0.000224156 0)
(0.114725 0.000233207 0)
(0.11425 0.000242173 0)
(0.113757 0.000251052 0)
(0.113246 0.000259844 0)
(0.112717 0.000268546 0)
(0.112171 0.000277158 0)
(0.111608 0.000285679 0)
(0.111029 0.000294108 0)
(0.110432 0.000302442 0)
(0.109819 0.000310682 0)
(0.109189 0.000318826 0)
(0.108543 0.000326873 0)
(0.107882 0.000334822 0)
(0.107204 0.000342672 0)
(0.106511 0.000350423 0)
(0.105802 0.000358073 0)
(0.105078 0.000365622 0)
(0.10434 0.000373068 0)
(0.103586 0.000380412 0)
(0.102818 0.000387651 0)
(0.102035 0.000394787 0)
(0.101239 0.000401817 0)
(0.100428 0.000408741 0)
(0.0996035 0.000415559 0)
(0.0987656 0.00042227 0)
(0.0979143 0.000428874 0)
(0.09705 0.00043537 0)
(0.0961727 0.000441758 0)
(0.0952828 0.000448037 0)
(0.0943805 0.000454207 0)
(0.0934659 0.000460268 0)
(0.0925393 0.000466219 0)
(0.0916009 0.000472061 0)
(0.0906509 0.000477793 0)
(0.0896896 0.000483416 0)
(0.0887172 0.000488928 0)
(0.0877338 0.000494331 0)
(0.0867397 0.000499624 0)
(0.0857352 0.000504808 0)
(0.0847204 0.000509883 0)
(0.0836956 0.000514848 0)
(0.0826609 0.000519705 0)
(0.0816166 0.000524453 0)
(0.080563 0.000529094 0)
(0.0795001 0.000533627 0)
(0.0784284 0.000538054 0)
(0.0773478 0.000542374 0)
(0.0762588 0.000546589 0)
(0.0751614 0.000550699 0)
(0.0740559 0.000554705 0)
(0.0729424 0.000558608 0)
(0.0718213 0.000562409 0)
(0.0706927 0.000566108 0)
(0.0695568 0.000569707 0)
(0.0684138 0.000573207 0)
(0.0672639 0.000576608 0)
(0.0661072 0.000579913 0)
(0.0649441 0.000583121 0)
(0.0637747 0.000586235 0)
(0.0625991 0.000589256 0)
(0.0614175 0.000592184 0)
(0.0602303 0.000595021 0)
(0.0590374 0.000597769 0)
(0.0578391 0.000600428 0)
(0.0566356 0.000603001 0)
(0.055427 0.000605489 0)
(0.0542135 0.000607892 0)
(0.0529953 0.000610213 0)
(0.0517726 0.000612453 0)
(0.0505454 0.000614613 0)
(0.0493141 0.000616696 0)
(0.0480786 0.000618702 0)
(0.0468392 0.000620632 0)
(0.045596 0.00062249 0)
(0.0443491 0.000624275 0)
(0.0430988 0.000625989 0)
(0.0418451 0.000627635 0)
(0.0405882 0.000629213 0)
(0.0393282 0.000630724 0)
(0.0380652 0.000632171 0)
(0.0367994 0.000633554 0)
(0.035531 0.000634876 0)
(0.0342599 0.000636137 0)
(0.0329863 0.000637339 0)
(0.0317105 0.000638482 0)
(0.0304324 0.00063957 0)
(0.0291521 0.000640601 0)
(0.0278699 0.000641579 0)
(0.0265858 0.000642504 0)
(0.0252998 0.000643376 0)
(0.0240122 0.000644198 0)
(0.022723 0.000644971 0)
(0.0214323 0.000645694 0)
(0.0201402 0.00064637 0)
(0.0188467 0.000646999 0)
(0.0175521 0.000647582 0)
(0.0162564 0.00064812 0)
(0.0149596 0.000648614 0)
(0.0136619 0.000649064 0)
(0.0123633 0.000649471 0)
(0.0110639 0.000649836 0)
(0.00976389 0.000650158 0)
(0.00846325 0.000650439 0)
(0.00716209 0.000650679 0)
(0.00586048 0.000650879 0)
(0.00455852 0.000651039 0)
(0.00325629 0.000651158 0)
(0.00195385 0.000651237 0)
(0.000651297 0.000651277 0)
(0.000702171 -0.00210636 0)
(0.00210647 -0.00210622 0)
(0.00351063 -0.00210595 0)
(0.00491457 -0.00210555 0)
(0.00631819 -0.002105 0)
(0.00772141 -0.00210432 0)
(0.00912412 -0.0021035 0)
(0.0105262 -0.00210254 0)
(0.0119277 -0.00210143 0)
(0.0133283 -0.00210018 0)
(0.0147281 -0.00209878 0)
(0.0161269 -0.00209723 0)
(0.0175246 -0.00209553 0)
(0.0189211 -0.00209366 0)
(0.0203164 -0.00209164 0)
(0.0217102 -0.00208945 0)
(0.0231025 -0.00208709 0)
(0.0244932 -0.00208455 0)
(0.0258821 -0.00208184 0)
(0.0272692 -0.00207894 0)
(0.0286542 -0.00207585 0)
(0.0300372 -0.00207256 0)
(0.0314179 -0.00206908 0)
(0.0327962 -0.00206539 0)
(0.034172 -0.00206148 0)
(0.0355451 -0.00205736 0)
(0.0369154 -0.00205301 0)
(0.0382828 -0.00204843 0)
(0.039647 -0.00204361 0)
(0.0410079 -0.00203855 0)
(0.0423653 -0.00203323 0)
(0.0437192 -0.00202766 0)
(0.0450692 -0.00202182 0)
(0.0464153 -0.0020157 0)
(0.0477572 -0.00200931 0)
(0.0490947 -0.00200262 0)
(0.0504277 -0.00199564 0)
(0.0517559 -0.00198836 0)
(0.0530792 -0.00198076 0)
(0.0543973 -0.00197285 0)
(0.0557101 -0.00196461 0)
(0.0570172 -0.00195604 0)
(0.0583185 -0.00194712 0)
(0.0596138 -0.00193786 0)
(0.0609028 -0.00192825 0)
(0.0621852 -0.00191827 0)
(0.0634609 -0.00190793 0)
(0.0647296 -0.00189721 0)
(0.065991 -0.00188611 0)
(0.0672449 -0.00187462 0)
(0.068491 -0.00186274 0)
(0.069729 -0.00185046 0)
(0.0709587 -0.00183777 0)
(0.0721799 -0.00182467 0)
(0.0733921 -0.00181115 0)
(0.0745953 -0.00179722 0)
(0.0757889 -0.00178286 0)
(0.0769729 -0.00176807 0)
(0.0781469 -0.00175285 0)
(0.0793106 -0.00173719 0)
(0.0804637 -0.00172109 0)
(0.0816059 -0.00170455 0)
(0.082737 -0.00168757 0)
(0.0838565 -0.00167014 0)
(0.0849644 -0.00165227 0)
(0.0860601 -0.00163394 0)
(0.0871435 -0.00161517 0)
(0.0882142 -0.00159595 0)
(0.089272 -0.00157629 0)
(0.0903165 -0.00155618 0)
(0.0913474 -0.00153562 0)
(0.0923645 -0.00151463 0)
(0.0933675 -0.00149319 0)
(0.094356 -0.00147132 0)
(0.0953298 -0.00144901 0)
(0.0962885 -0.00142628 0)
(0.097232 -0.00140312 0)
(0.0981599 -0.00137954 0)
(0.0990719 -0.00135555 0)
(0.0999678 -0.00133116 0)
(0.100847 -0.00130636 0)
(0.10171 -0.00128117 0)
(0.102556 -0.0012556 0)
(0.103385 -0.00122965 0)
(0.104196 -0.00120333 0)
(0.10499 -0.00117665 0)
(0.105765 -0.00114962 0)
(0.106523 -0.00112225 0)
(0.107262 -0.00109454 0)
(0.107983 -0.00106652 0)
(0.108684 -0.00103819 0)
(0.109367 -0.00100956 0)
(0.110031 -0.00098065 0)
(0.110675 -0.00095146 0)
(0.1113 -0.000922006 0)
(0.111905 -0.000892303 0)
(0.11249 -0.00086236 0)
(0.113055 -0.000832192 0)
(0.1136 -0.000801811 0)
(0.114124 -0.000771229 0)
(0.114628 -0.00074046 0)
(0.115112 -0.000709517 0)
(0.115574 -0.000678413 0)
(0.116016 -0.00064716 0)
(0.116437 -0.000615773 0)
(0.116838 -0.000584263 0)
(0.117217 -0.000552645 0)
(0.117574 -0.000520931 0)
(0.117911 -0.000489135 0)
(0.118227 -0.000457268 0)
(0.118521 -0.000425344 0)
(0.118794 -0.000393376 0)
(0.119046 -0.000361375 0)
(0.119276 -0.000329354 0)
(0.119485 -0.000297325 0)
(0.119672 -0.0002653 0)
(0.119838 -0.00023329 0)
(0.119983 -0.000201308 0)
(0.120107 -0.000169363 0)
(0.120209 -0.000137468 0)
(0.12029 -0.000105632 0)
(0.12035 -7.38661e-05 0)
(0.120388 -4.21806e-05 0)
(0.120406 -1.05852e-05 0)
(0.120402 2.09105e-05 0)
(0.120378 5.22971e-05 0)
(0.120333 8.35657e-05 0)
(0.120266 0.000114707 0)
(0.120179 0.000145714 0)
(0.120072 0.000176577 0)
(0.119944 0.000207288 0)
(0.119795 0.00023784 0)
(0.119626 0.000268226 0)
(0.119437 0.000298438 0)
(0.119228 0.000328469 0)
(0.118999 0.000358313 0)
(0.11875 0.000387963 0)
(0.118482 0.000417414 0)
(0.118194 0.000446658 0)
(0.117886 0.00047569 0)
(0.117559 0.000504506 0)
(0.117213 0.000533098 0)
(0.116848 0.000561463 0)
(0.116464 0.000589595 0)
(0.116062 0.00061749 0)
(0.11564 0.000645142 0)
(0.115201 0.000672547 0)
(0.114743 0.000699701 0)
(0.114268 0.0007266 0)
(0.113774 0.00075324 0)
(0.113263 0.000779616 0)
(0.112735 0.000805725 0)
(0.112189 0.000831563 0)
(0.111625 0.000857127 0)
(0.111045 0.000882413 0)
(0.110449 0.000907418 0)
(0.109835 0.000932138 0)
(0.109205 0.000956571 0)
(0.108559 0.000980713 0)
(0.107897 0.00100456 0)
(0.10722 0.00102811 0)
(0.106526 0.00105137 0)
(0.105817 0.00107432 0)
(0.105093 0.00109696 0)
(0.104354 0.0011193 0)
(0.103601 0.00114134 0)
(0.102832 0.00116306 0)
(0.102049 0.00118446 0)
(0.101253 0.00120555 0)
(0.100442 0.00122633 0)
(0.0996171 0.00124678 0)
(0.0987789 0.00126692 0)
(0.0979275 0.00128673 0)
(0.0970629 0.00130622 0)
(0.0961854 0.00132538 0)
(0.0952953 0.00134422 0)
(0.0943928 0.00136273 0)
(0.0934779 0.00138091 0)
(0.0925511 0.00139877 0)
(0.0916125 0.00141629 0)
(0.0906623 0.00143349 0)
(0.0897008 0.00145036 0)
(0.0887281 0.00146689 0)
(0.0877445 0.0014831 0)
(0.0867503 0.00149898 0)
(0.0857455 0.00151453 0)
(0.0847305 0.00152976 0)
(0.0837054 0.00154465 0)
(0.0826706 0.00155922 0)
(0.0816261 0.00157347 0)
(0.0805722 0.00158739 0)
(0.0795092 0.00160099 0)
(0.0784372 0.00161427 0)
(0.0773564 0.00162723 0)
(0.0762671 0.00163987 0)
(0.0751695 0.0016522 0)
(0.0740638 0.00166422 0)
(0.0729502 0.00167593 0)
(0.0718289 0.00168733 0)
(0.0707001 0.00169842 0)
(0.0695639 0.00170922 0)
(0.0684207 0.00171972 0)
(0.0672706 0.00172992 0)
(0.0661138 0.00173984 0)
(0.0649505 0.00174946 0)
(0.0637808 0.0017588 0)
(0.0626051 0.00176786 0)
(0.0614234 0.00177664 0)
(0.0602359 0.00178515 0)
(0.0590428 0.0017934 0)
(0.0578444 0.00180137 0)
(0.0566407 0.00180909 0)
(0.0554319 0.00181655 0)
(0.0542183 0.00182376 0)
(0.053 0.00183072 0)
(0.051777 0.00183744 0)
(0.0505497 0.00184392 0)
(0.0493182 0.00185017 0)
(0.0480826 0.00185618 0)
(0.046843 0.00186197 0)
(0.0455997 0.00186754 0)
(0.0443527 0.0018729 0)
(0.0431022 0.00187804 0)
(0.0418484 0.00188297 0)
(0.0405913 0.00188771 0)
(0.0393312 0.00189224 0)
(0.0380681 0.00189658 0)
(0.0368022 0.00190073 0)
(0.0355336 0.00190469 0)
(0.0342624 0.00190847 0)
(0.0329887 0.00191208 0)
(0.0317127 0.00191551 0)
(0.0304345 0.00191877 0)
(0.0291542 0.00192186 0)
(0.0278718 0.00192479 0)
(0.0265876 0.00192757 0)
(0.0253015 0.00193018 0)
(0.0240138 0.00193265 0)
(0.0227245 0.00193496 0)
(0.0214337 0.00193713 0)
(0.0201415 0.00193916 0)
(0.018848 0.00194105 0)
(0.0175532 0.0019428 0)
(0.0162574 0.00194441 0)
(0.0149605 0.00194589 0)
(0.0136627 0.00194724 0)
(0.0123641 0.00194846 0)
(0.0110646 0.00194955 0)
(0.0097645 0.00195052 0)
(0.00846378 0.00195136 0)
(0.00716253 0.00195208 0)
(0.00586085 0.00195268 0)
(0.00455881 0.00195316 0)
(0.00325649 0.00195352 0)
(0.00195397 0.00195375 0)
(0.000651336 0.00195387 0)
(0.000702262 -0.00351075 0)
(0.00210674 -0.00351052 0)
(0.00351108 -0.00351007 0)
(0.00491521 -0.00350939 0)
(0.00631901 -0.00350849 0)
(0.00772241 -0.00350736 0)
(0.00912532 -0.00350599 0)
(0.0105276 -0.00350439 0)
(0.0119293 -0.00350255 0)
(0.0133301 -0.00350047 0)
(0.0147301 -0.00349814 0)
(0.0161291 -0.00349556 0)
(0.017527 -0.00349272 0)
(0.0189237 -0.00348962 0)
(0.0203192 -0.00348625 0)
(0.0217132 -0.0034826 0)
(0.0231058 -0.00347867 0)
(0.0244967 -0.00347445 0)
(0.0258859 -0.00346993 0)
(0.0272732 -0.0034651 0)
(0.0286585 -0.00345996 0)
(0.0300417 -0.00345449 0)
(0.0314227 -0.00344869 0)
(0.0328013 -0.00344255 0)
(0.0341774 -0.00343605 0)
(0.0355508 -0.00342918 0)
(0.0369214 -0.00342194 0)
(0.038289 -0.00341432 0)
(0.0396536 -0.00340629 0)
(0.0410148 -0.00339786 0)
(0.0423726 -0.00338901 0)
(0.0437268 -0.00337973 0)
(0.0450772 -0.00337 0)
(0.0464236 -0.00335982 0)
(0.0477659 -0.00334916 0)
(0.0491038 -0.00333803 0)
(0.0504372 -0.0033264 0)
(0.0517659 -0.00331427 0)
(0.0530896 -0.00330162 0)
(0.0544081 -0.00328844 0)
(0.0557213 -0.00327472 0)
(0.0570289 -0.00326044 0)
(0.0583307 -0.00324559 0)
(0.0596264 -0.00323017 0)
(0.0609159 -0.00321415 0)
(0.0621988 -0.00319753 0)
(0.063475 -0.0031803 0)
(0.0647442 -0.00316244 0)
(0.0660061 -0.00314395 0)
(0.0672605 -0.00312481 0)
(0.0685071 -0.00310501 0)
(0.0697457 -0.00308454 0)
(0.070976 -0.0030634 0)
(0.0721976 -0.00304158 0)
(0.0734105 -0.00301906 0)
(0.0746142 -0.00299584 0)
(0.0758084 -0.00297191 0)
(0.076993 -0.00294726 0)
(0.0781675 -0.0029219 0)
(0.0793318 -0.0028958 0)
(0.0804855 -0.00286898 0)
(0.0816283 -0.00284141 0)
(0.0827599 -0.00281311 0)
(0.0838801 -0.00278406 0)
(0.0849885 -0.00275427 0)
(0.0860849 -0.00272374 0)
(0.0871689 -0.00269245 0)
(0.0882402 -0.00266042 0)
(0.0892985 -0.00262765 0)
(0.0903436 -0.00259413 0)
(0.0913752 -0.00255986 0)
(0.0923929 -0.00252487 0)
(0.0933964 -0.00248913 0)
(0.0943855 -0.00245267 0)
(0.0953598 -0.00241549 0)
(0.0963192 -0.0023776 0)
(0.0972632 -0.002339 0)
(0.0981916 -0.0022997 0)
(0.0991042 -0.00225971 0)
(0.100001 -0.00221904 0)
(0.100881 -0.00217771 0)
(0.101744 -0.00213572 0)
(0.10259 -0.00209308 0)
(0.10342 -0.00204982 0)
(0.104231 -0.00200594 0)
(0.105025 -0.00196147 0)
(0.105802 -0.00191641 0)
(0.10656 -0.00187078 0)
(0.107299 -0.0018246 0)
(0.10802 -0.00177788 0)
(0.108722 -0.00173065 0)
(0.109406 -0.00168293 0)
(0.11007 -0.00163472 0)
(0.110714 -0.00158606 0)
(0.111339 -0.00153696 0)
(0.111945 -0.00148744 0)
(0.11253 -0.00143752 0)
(0.113095 -0.00138722 0)
(0.11364 -0.00133657 0)
(0.114165 -0.00128559 0)
(0.114669 -0.00123429 0)
(0.115153 -0.00118271 0)
(0.115616 -0.00113085 0)
(0.116058 -0.00107875 0)
(0.116479 -0.00102642 0)
(0.11688 -0.000973894 0)
(0.117259 -0.000921183 0)
(0.117617 -0.000868312 0)
(0.117954 -0.000815303 0)
(0.118269 -0.000762178 0)
(0.118564 -0.000708957 0)
(0.118837 -0.000655663 0)
(0.119088 -0.000602314 0)
(0.119319 -0.000548933 0)
(0.119527 -0.000495538 0)
(0.119715 -0.00044215 0)
(0.119881 -0.000388788 0)
(0.120026 -0.000335471 0)
(0.120149 -0.000282218 0)
(0.120252 -0.000229047 0)
(0.120332 -0.000175976 0)
(0.120392 -0.000123022 0)
(0.120431 -7.02018e-05 0)
(0.120448 -1.75321e-05 0)
(0.120444 3.4971e-05 0)
(0.12042 8.72921e-05 0)
(0.120374 0.000139416 0)
(0.120308 0.000191328 0)
(0.120221 0.000243015 0)
(0.120113 0.000294462 0)
(0.119985 0.000345656 0)
(0.119836 0.000396585 0)
(0.119667 0.000447236 0)
(0.119478 0.000497596 0)
(0.119268 0.000547656 0)
(0.119039 0.000597403 0)
(0.11879 0.000646827 0)
(0.118521 0.000695917 0)
(0.118232 0.000744664 0)
(0.117925 0.000793058 0)
(0.117597 0.000841089 0)
(0.117251 0.00088875 0)
(0.116886 0.00093603 0)
(0.116501 0.000982922 0)
(0.116099 0.00102942 0)
(0.115677 0.00107551 0)
(0.115237 0.00112119 0)
(0.114779 0.00116645 0)
(0.114304 0.00121129 0)
(0.11381 0.00125569 0)
(0.113298 0.00129966 0)
(0.112769 0.00134318 0)
(0.112223 0.00138624 0)
(0.111659 0.00142885 0)
(0.111079 0.001471 0)
(0.110482 0.00151268 0)
(0.109868 0.00155388 0)
(0.109238 0.00159461 0)
(0.108591 0.00163485 0)
(0.107929 0.0016746 0)
(0.107251 0.00171385 0)
(0.106557 0.00175261 0)
(0.105848 0.00179087 0)
(0.105123 0.00182861 0)
(0.104384 0.00186585 0)
(0.10363 0.00190257 0)
(0.102861 0.00193877 0)
(0.102078 0.00197445 0)
(0.10128 0.00200961 0)
(0.100469 0.00204423 0)
(0.0996441 0.00207833 0)
(0.0988055 0.00211188 0)
(0.0979536 0.00214491 0)
(0.0970886 0.00217739 0)
(0.0962108 0.00220933 0)
(0.0953202 0.00224072 0)
(0.0944172 0.00227158 0)
(0.093502 0.00230188 0)
(0.0925747 0.00233164 0)
(0.0916357 0.00236085 0)
(0.090685 0.00238951 0)
(0.0897231 0.00241763 0)
(0.0887499 0.00244519 0)
(0.0877659 0.0024722 0)
(0.0867712 0.00249867 0)
(0.085766 0.00252459 0)
(0.0847505 0.00254996 0)
(0.0837251 0.00257478 0)
(0.0826897 0.00259906 0)
(0.0816448 0.0026228 0)
(0.0805905 0.00264601 0)
(0.0795271 0.00266867 0)
(0.0784546 0.0026908 0)
(0.0773735 0.0027124 0)
(0.0762838 0.00273347 0)
(0.0751857 0.00275401 0)
(0.0740796 0.00277404 0)
(0.0729656 0.00279355 0)
(0.0718439 0.00281255 0)
(0.0707146 0.00283104 0)
(0.0695781 0.00284903 0)
(0.0684345 0.00286653 0)
(0.067284 0.00288353 0)
(0.0661268 0.00290005 0)
(0.0649631 0.00291608 0)
(0.0637931 0.00293165 0)
(0.062617 0.00294674 0)
(0.0614349 0.00296138 0)
(0.060247 0.00297556 0)
(0.0590536 0.00298929 0)
(0.0578548 0.00300258 0)
(0.0566508 0.00301544 0)
(0.0554417 0.00302787 0)
(0.0542277 0.00303988 0)
(0.053009 0.00305147 0)
(0.0517858 0.00306267 0)
(0.0505582 0.00307346 0)
(0.0493263 0.00308387 0)
(0.0480904 0.00309389 0)
(0.0468506 0.00310353 0)
(0.0456069 0.00311281 0)
(0.0443597 0.00312173 0)
(0.0431089 0.0031303 0)
(0.0418548 0.00313852 0)
(0.0405975 0.0031464 0)
(0.0393371 0.00315395 0)
(0.0380737 0.00316118 0)
(0.0368076 0.00316809 0)
(0.0355387 0.00317469 0)
(0.0342673 0.00318099 0)
(0.0329934 0.00318699 0)
(0.0317172 0.0031927 0)
(0.0304387 0.00319813 0)
(0.0291582 0.00320328 0)
(0.0278756 0.00320816 0)
(0.0265912 0.00321278 0)
(0.0253049 0.00321714 0)
(0.024017 0.00322125 0)
(0.0227275 0.0032251 0)
(0.0214365 0.00322872 0)
(0.0201441 0.00323209 0)
(0.0188504 0.00323523 0)
(0.0175555 0.00323814 0)
(0.0162595 0.00324083 0)
(0.0149624 0.00324329 0)
(0.0136644 0.00324554 0)
(0.0123656 0.00324757 0)
(0.011066 0.00324939 0)
(0.0097657 0.003251 0)
(0.00846481 0.00325241 0)
(0.00716341 0.00325361 0)
(0.00586156 0.0032546 0)
(0.00455936 0.0032554 0)
(0.00325688 0.00325599 0)
(0.00195421 0.00325639 0)
(0.000651416 0.00325658 0)
(0.000702397 -0.00491536 0)
(0.00210715 -0.00491505 0)
(0.00351176 -0.00491442 0)
(0.00491616 -0.00491347 0)
(0.00632024 -0.00491221 0)
(0.00772392 -0.00491063 0)
(0.0091271 -0.00490872 0)
(0.0105297 -0.00490648 0)
(0.0119316 -0.00490391 0)
(0.0133328 -0.00490101 0)
(0.014733 -0.00489775 0)
(0.0161323 -0.00489414 0)
(0.0175306 -0.00489018 0)
(0.0189276 -0.00488584 0)
(0.0203234 -0.00488113 0)
(0.0217178 -0.00487604 0)
(0.0231107 -0.00487055 0)
(0.0245019 -0.00486465 0)
(0.0258915 -0.00485833 0)
(0.0272792 -0.00485159 0)
(0.0286649 -0.0048444 0)
(0.0300485 -0.00483676 0)
(0.0314299 -0.00482865 0)
(0.0328089 -0.00482006 0)
(0.0341854 -0.00481098 0)
(0.0355593 -0.00480138 0)
(0.0369304 -0.00479126 0)
(0.0382985 -0.0047806 0)
(0.0396635 -0.00476939 0)
(0.0410252 -0.0047576 0)
(0.0423835 -0.00474522 0)
(0.0437382 -0.00473224 0)
(0.0450892 -0.00471864 0)
(0.0464362 -0.0047044 0)
(0.047779 -0.0046895 0)
(0.0491175 -0.00467393 0)
(0.0504515 -0.00465767 0)
(0.0517808 -0.0046407 0)
(0.0531051 -0.00462301 0)
(0.0544243 -0.00460457 0)
(0.0557381 -0.00458538 0)
(0.0570464 -0.00456541 0)
(0.0583489 -0.00454464 0)
(0.0596453 -0.00452306 0)
(0.0609355 -0.00450065 0)
(0.0622192 -0.0044774 0)
(0.0634961 -0.00445329 0)
(0.064766 -0.00442831 0)
(0.0660287 -0.00440243 0)
(0.0672839 -0.00437565 0)
(0.0685313 -0.00434794 0)
(0.0697707 -0.00431931 0)
(0.0710018 -0.00428972 0)
(0.0722243 -0.00425918 0)
(0.073438 -0.00422766 0)
(0.0746425 -0.00419516 0)
(0.0758376 -0.00416167 0)
(0.077023 -0.00412718 0)
(0.0781985 -0.00409167 0)
(0.0793636 -0.00405515 0)
(0.0805182 -0.0040176 0)
(0.0816619 -0.00397901 0)
(0.0827944 -0.00393939 0)
(0.0839155 -0.00389873 0)
(0.0850248 -0.00385703 0)
(0.086122 -0.00381428 0)
(0.0872069 -0.00377048 0)
(0.0882791 -0.00372563 0)
(0.0893384 -0.00367974 0)
(0.0903844 -0.00363281 0)
(0.0914168 -0.00358484 0)
(0.0924354 -0.00353584 0)
(0.0934398 -0.00348581 0)
(0.0944297 -0.00343475 0)
(0.095405 -0.00338269 0)
(0.0963651 -0.00332963 0)
(0.09731 -0.00327557 0)
(0.0982393 -0.00322054 0)
(0.0991526 -0.00316454 0)
(0.10005 -0.00310759 0)
(0.100931 -0.0030497 0)
(0.101795 -0.0029909 0)
(0.102642 -0.0029312 0)
(0.103472 -0.00287061 0)
(0.104284 -0.00280916 0)
(0.105079 -0.00274687 0)
(0.105856 -0.00268376 0)
(0.106615 -0.00261986 0)
(0.107355 -0.00255518 0)
(0.108077 -0.00248976 0)
(0.108779 -0.00242361 0)
(0.109463 -0.00235677 0)
(0.110128 -0.00228925 0)
(0.110773 -0.0022211 0)
(0.111398 -0.00215232 0)
(0.112004 -0.00208297 0)
(0.11259 -0.00201305 0)
(0.113156 -0.00194261 0)
(0.113701 -0.00187167 0)
(0.114226 -0.00180026 0)
(0.114731 -0.00172842 0)
(0.115215 -0.00165617 0)
(0.115678 -0.00158354 0)
(0.116121 -0.00151057 0)
(0.116542 -0.00143728 0)
(0.116943 -0.0013637 0)
(0.117322 -0.00128988 0)
(0.11768 -0.00121583 0)
(0.118017 -0.00114159 0)
(0.118333 -0.00106718 0)
(0.118628 -0.000992644 0)
(0.118901 -0.000918002 0)
(0.119152 -0.000843286 0)
(0.119383 -0.000768523 0)
(0.119592 -0.000693743 0)
(0.119779 -0.000618973 0)
(0.119945 -0.00054424 0)
(0.12009 -0.00046957 0)
(0.120213 -0.00039499 0)
(0.120315 -0.000320526 0)
(0.120396 -0.000246202 0)
(0.120456 -0.000172042 0)
(0.120494 -9.80713e-05 0)
(0.120511 -2.43114e-05 0)
(0.120507 4.92147e-05 0)
(0.120482 0.000122485 0)
(0.120437 0.000195479 0)
(0.12037 0.000268177 0)
(0.120283 0.000340557 0)
(0.120175 0.000412601 0)
(0.120046 0.000484291 0)
(0.119897 0.000555608 0)
(0.119728 0.000626536 0)
(0.119538 0.000697057 0)
(0.119328 0.000767156 0)
(0.119098 0.000836817 0)
(0.118849 0.000906025 0)
(0.11858 0.000974766 0)
(0.118291 0.00104302 0)
(0.117982 0.00111079 0)
(0.117655 0.00117805 0)
(0.117308 0.00124478 0)
(0.116942 0.00131099 0)
(0.116557 0.00137665 0)
(0.116154 0.00144175 0)
(0.115732 0.00150629 0)
(0.115292 0.00157025 0)
(0.114834 0.00163363 0)
(0.114357 0.00169641 0)
(0.113863 0.00175858 0)
(0.113351 0.00182014 0)
(0.112821 0.00188108 0)
(0.112274 0.00194138 0)
(0.11171 0.00200104 0)
(0.111129 0.00206006 0)
(0.110531 0.00211841 0)
(0.109917 0.00217611 0)
(0.109286 0.00223313 0)
(0.108639 0.00228947 0)
(0.107976 0.00234513 0)
(0.107298 0.00240009 0)
(0.106603 0.00245436 0)
(0.105893 0.00250792 0)
(0.105168 0.00256078 0)
(0.104428 0.00261291 0)
(0.103673 0.00266433 0)
(0.102904 0.00271502 0)
(0.10212 0.00276497 0)
(0.101322 0.00281419 0)
(0.10051 0.00286267 0)
(0.0996847 0.0029104 0)
(0.0988455 0.00295739 0)
(0.0979929 0.00300362 0)
(0.0971273 0.0030491 0)
(0.0962487 0.00309382 0)
(0.0953575 0.00313778 0)
(0.0944539 0.00318097 0)
(0.093538 0.0032234 0)
(0.0926101 0.00326507 0)
(0.0916704 0.00330596 0)
(0.0907191 0.00334609 0)
(0.0897564 0.00338544 0)
(0.0887827 0.00342403 0)
(0.087798 0.00346185 0)
(0.0868026 0.0034989 0)
(0.0857967 0.00353519 0)
(0.0847806 0.0035707 0)
(0.0837545 0.00360546 0)
(0.0827185 0.00363945 0)
(0.081673 0.00367268 0)
(0.080618 0.00370516 0)
(0.0795539 0.00373688 0)
(0.0784808 0.00376786 0)
(0.077399 0.00379809 0)
(0.0763087 0.00382759 0)
(0.0752101 0.00385635 0)
(0.0741033 0.00388438 0)
(0.0729887 0.00391169 0)
(0.0718663 0.00393828 0)
(0.0707365 0.00396416 0)
(0.0695994 0.00398934 0)
(0.0684552 0.00401383 0)
(0.0673041 0.00403762 0)
(0.0661463 0.00406074 0)
(0.064982 0.00408318 0)
(0.0638115 0.00410496 0)
(0.0626348 0.00412608 0)
(0.0614521 0.00414656 0)
(0.0602637 0.0041664 0)
(0.0590698 0.00418562 0)
(0.0578705 0.00420422 0)
(0.0566659 0.00422221 0)
(0.0554563 0.0042396 0)
(0.0542419 0.0042564 0)
(0.0530227 0.00427263 0)
(0.051799 0.00428829 0)
(0.0505709 0.00430339 0)
(0.0493386 0.00431795 0)
(0.0481022 0.00433197 0)
(0.0468619 0.00434546 0)
(0.0456178 0.00435844 0)
(0.0443701 0.00437092 0)
(0.0431189 0.0043829 0)
(0.0418644 0.0043944 0)
(0.0406067 0.00440542 0)
(0.0393459 0.00441598 0)
(0.0380822 0.00442609 0)
(0.0368157 0.00443575 0)
(0.0355464 0.00444499 0)
(0.0342746 0.00445379 0)
(0.0330004 0.00446219 0)
(0.0317238 0.00447018 0)
(0.0304451 0.00447777 0)
(0.0291642 0.00448497 0)
(0.0278813 0.0044918 0)
(0.0265965 0.00449826 0)
(0.02531 0.00450435 0)
(0.0240218 0.00451009 0)
(0.0227319 0.00451548 0)
(0.0214406 0.00452054 0)
(0.020148 0.00452525 0)
(0.018854 0.00452965 0)
(0.0175588 0.00453372 0)
(0.0162625 0.00453747 0)
(0.0149652 0.00454092 0)
(0.013667 0.00454406 0)
(0.0123679 0.0045469 0)
(0.011068 0.00454944 0)
(0.0097675 0.00455169 0)
(0.00846637 0.00455366 0)
(0.00716472 0.00455533 0)
(0.00586263 0.00455673 0)
(0.00456019 0.00455784 0)
(0.00325748 0.00455867 0)
(0.00195456 0.00455922 0)
(0.000651534 0.00455949 0)
(0.000702577 -0.00632029 0)
(0.00210769 -0.00631989 0)
(0.00351267 -0.00631908 0)
(0.00491742 -0.00631787 0)
(0.00632187 -0.00631625 0)
(0.00772592 -0.00631422 0)
(0.00912948 -0.00631178 0)
(0.0105325 -0.00630891 0)
(0.0119348 -0.00630562 0)
(0.0133363 -0.00630189 0)
(0.014737 -0.00629771 0)
(0.0161367 -0.00629309 0)
(0.0175353 -0.00628801 0)
(0.0189328 -0.00628245 0)
(0.020329 -0.00627641 0)
(0.0217239 -0.00626987 0)
(0.0231172 -0.00626283 0)
(0.0245089 -0.00625527 0)
(0.025899 -0.00624716 0)
(0.0272872 -0.00623851 0)
(0.0286734 -0.00622929 0)
(0.0300575 -0.00621949 0)
(0.0314395 -0.00620909 0)
(0.032819 -0.00619807 0)
(0.0341961 -0.00618642 0)
(0.0355706 -0.00617411 0)
(0.0369422 -0.00616112 0)
(0.038311 -0.00614744 0)
(0.0396766 -0.00613305 0)
(0.0410391 -0.00611792 0)
(0.042398 -0.00610204 0)
(0.0437535 -0.00608538 0)
(0.0451051 -0.00606792 0)
(0.0464528 -0.00604964 0)
(0.0477964 -0.00603051 0)
(0.0491357 -0.00601053 0)
(0.0504705 -0.00598965 0)
(0.0518006 -0.00596786 0)
(0.0531258 -0.00594514 0)
(0.0544458 -0.00592147 0)
(0.0557605 -0.00589682 0)
(0.0570697 -0.00587117 0)
(0.0583731 -0.0058445 0)
(0.0596705 -0.00581678 0)
(0.0609616 -0.005788 0)
(0.0622463 -0.00575814 0)
(0.0635242 -0.00572717 0)
(0.0647951 -0.00569507 0)
(0.0660588 -0.00566182 0)
(0.0673151 -0.00562741 0)
(0.0685636 -0.00559181 0)
(0.069804 -0.00555502 0)
(0.0710362 -0.005517 0)
(0.0722598 -0.00547775 0)
(0.0734746 -0.00543725 0)
(0.0746803 -0.00539548 0)
(0.0758765 -0.00535244 0)
(0.0770631 -0.00530811 0)
(0.0782397 -0.00526247 0)
(0.079406 -0.00521552 0)
(0.0805617 -0.00516725 0)
(0.0817066 -0.00511765 0)
(0.0828404 -0.00506672 0)
(0.0839626 -0.00501445 0)
(0.0850731 -0.00496083 0)
(0.0861716 -0.00490586 0)
(0.0872576 -0.00484955 0)
(0.0883311 -0.00479189 0)
(0.0893915 -0.00473289 0)
(0.0904387 -0.00467254 0)
(0.0914723 -0.00461085 0)
(0.092492 -0.00454784 0)
(0.0934976 -0.0044835 0)
(0.0944887 -0.00441785 0)
(0.0954651 -0.00435089 0)
(0.0964264 -0.00428265 0)
(0.0973724 -0.00421313 0)
(0.0983028 -0.00414235 0)
(0.0992173 -0.00407032 0)
(0.100116 -0.00399707 0)
(0.100997 -0.00392262 0)
(0.101863 -0.00384699 0)
(0.102711 -0.00377019 0)
(0.103542 -0.00369226 0)
(0.104355 -0.00361322 0)
(0.105151 -0.0035331 0)
(0.105929 -0.00345192 0)
(0.106688 -0.00336972 0)
(0.107429 -0.00328652 0)
(0.108152 -0.00320236 0)
(0.108856 -0.00311726 0)
(0.10954 -0.00303128 0)
(0.110205 -0.00294442 0)
(0.110851 -0.00285675 0)
(0.111477 -0.00276828 0)
(0.112084 -0.00267905 0)
(0.11267 -0.00258911 0)
(0.113237 -0.00249849 0)
(0.113783 -0.00240724 0)
(0.114308 -0.00231537 0)
(0.114814 -0.00222295 0)
(0.115298 -0.00213 0)
(0.115762 -0.00203657 0)
(0.116205 -0.00194269 0)
(0.116626 -0.00184841 0)
(0.117027 -0.00175377 0)
(0.117407 -0.0016588 0)
(0.117765 -0.00156354 0)
(0.118103 -0.00146803 0)
(0.118418 -0.00137232 0)
(0.118713 -0.00127643 0)
(0.118986 -0.00118042 0)
(0.119238 -0.0010843 0)
(0.119468 -0.000988131 0)
(0.119677 -0.000891938 0)
(0.119865 -0.000795758 0)
(0.120031 -0.000699626 0)
(0.120175 -0.000603578 0)
(0.120299 -0.000507646 0)
(0.1204 -0.000411863 0)
(0.120481 -0.000316262 0)
(0.12054 -0.000220874 0)
(0.120578 -0.000125728 0)
(0.120595 -3.08558e-05 0)