/*--------------------------------*- C++ -*----------------------------------*\
| =========                 |                                                 |
| \\      /  F ield         | OpenFOAM: The Open Source CFD Toolbox           |
|  \\    /   O peration     | Version:  v2012                                 |
|   \\  /    A nd           | Website:  www.openfoam.com                      |
|    \\/     M anipulation  |                                                 |
\*---------------------------------------------------------------------------*/
FoamFile
{
    version     2.0;
    format      ascii;
    class       volScalarField;
    location    "2";
    object      W;
}
// * * * * * * * * * * * * * * * * * * * * * * * * * * * * * * * * * * * * * //

dimensions      [0 0 -1 0 0 0 0];


internalField   nonuniform List<scalar> 
65536
(
8.28991e-22
2.54021e-21
4.42383e-21
6.63159e-21
9.35863e-21
1.28501e-20
1.7411e-20
2.34228e-20
3.13677e-20
4.1862e-20
5.56962e-20
7.38864e-20
9.77369e-20
1.28918e-19
1.69563e-19
2.22388e-19
2.90838e-19
3.7927e-19
4.93177e-19
6.39457e-19
8.26748e-19
1.06583e-18
1.37009e-18
1.75615e-18
2.2445e-18
2.86037e-18
3.6347e-18
4.6053e-18
5.81818e-18
7.32917e-18
9.20578e-18
1.15293e-17
1.43972e-17
1.79262e-17
2.22551e-17
2.75486e-17
3.40017e-17
4.18435e-17
5.13431e-17
6.28146e-17
7.66236e-17
9.31936e-17
1.13013e-16
1.36645e-16
1.64731e-16
1.98003e-16
2.37292e-16
2.83537e-16
3.3779e-16
4.01231e-16
4.75172e-16
5.61068e-16
6.6052e-16
7.75284e-16
9.07275e-16
1.05857e-15
1.23139e-15
1.42815e-15
1.65137e-15
1.90376e-15
2.18813e-15
2.5074e-15
2.8646e-15
3.26281e-15
3.70513e-15
4.19468e-15
4.73452e-15
5.3276e-15
5.97674e-15
6.68454e-15
7.45334e-15
8.28516e-15
9.18159e-15
1.01438e-14
1.11724e-14
1.22674e-14
1.34281e-14
1.46532e-14
1.59404e-14
1.72869e-14
1.86888e-14
2.01414e-14
2.1639e-14
2.31751e-14
2.47422e-14
2.63321e-14
2.79357e-14
2.95432e-14
3.1144e-14
3.27272e-14
3.42811e-14
3.57939e-14
3.72537e-14
3.86483e-14
3.99658e-14
4.11945e-14
4.23233e-14
4.33417e-14
4.42397e-14
4.50087e-14
4.5641e-14
4.61299e-14
4.64704e-14
4.66587e-14
4.66926e-14
4.65716e-14
4.62965e-14
4.58699e-14
4.5296e-14
4.45804e-14
4.37303e-14
4.27542e-14
4.16618e-14
4.04639e-14
3.91725e-14
3.78002e-14
3.63604e-14
3.48669e-14
3.33339e-14
3.17756e-14
3.02064e-14
2.86404e-14
2.70915e-14
2.55731e-14
2.40979e-14
2.26784e-14
2.13257e-14
2.00507e-14
1.8863e-14
1.77716e-14
1.67842e-14
1.59079e-14
1.51484e-14
1.45109e-14
1.39991e-14
1.3616e-14
1.33637e-14
1.3243e-14
1.3254e-14
1.33955e-14
1.36657e-14
1.40616e-14
1.45791e-14
1.52132e-14
1.5958e-14
1.68065e-14
1.77506e-14
1.87815e-14
1.98891e-14
2.10626e-14
2.22903e-14
2.35596e-14
2.48575e-14
2.61699e-14
2.74827e-14
2.87811e-14
3.00504e-14
3.12758e-14
3.24426e-14
3.35367e-14
3.45444e-14
3.54529e-14
3.62504e-14
3.69262e-14
3.74711e-14
3.78775e-14
3.81392e-14
3.8252e-14
3.82135e-14
3.80232e-14
3.76824e-14
3.71944e-14
3.65643e-14
3.57989e-14
3.49065e-14
3.38969e-14
3.27811e-14
3.15711e-14
3.02798e-14
2.89205e-14
2.75069e-14
2.60528e-14
2.45719e-14
2.30775e-14
2.15822e-14
2.00982e-14
1.86365e-14
1.72074e-14
1.58199e-14
1.44817e-14
1.31997e-14
1.19792e-14
1.08245e-14
9.73865e-15
8.72359e-15
7.78024e-15
6.90855e-15
6.10763e-15
5.37584e-15
4.71089e-15
4.10997e-15
3.56985e-15
3.08697e-15
2.65756e-15
2.2777e-15
1.94344e-15
1.65082e-15
1.396e-15
1.17522e-15
9.84922e-16
8.21728e-16
6.8249e-16
5.64291e-16
4.64457e-16
3.8056e-16
3.10407e-16
2.5204e-16
2.0372e-16
1.63917e-16
1.31292e-16
1.04682e-16
8.30861e-17
6.56451e-17
5.16289e-17
4.04203e-17
3.15008e-17
2.44374e-17
1.88714e-17
1.45065e-17
1.11002e-17
8.45497e-18
6.41065e-18
4.83839e-18
3.63504e-18
2.71848e-18
2.02372e-18
1.49963e-18
1.10618e-18
8.12223e-19
5.93655e-19
4.31918e-19
3.12809e-19
2.2551e-19
1.61831e-19
1.15603e-19
8.22032e-20
5.81855e-20
4.09953e-20
2.87469e-20
2.00539e-20
1.38985e-20
9.53161e-21
6.39814e-21
4.0825e-21
2.27174e-21
7.29446e-22
2.69691e-21
8.26398e-21
1.4392e-20
2.15745e-20
3.04459e-20
4.18032e-20
5.6638e-20
7.61901e-20
1.02028e-19
1.36154e-19
1.81139e-19
2.40284e-19
3.17828e-19
4.19201e-19
5.51333e-19
7.23048e-19
9.4554e-19
1.23297e-18
1.60316e-18
2.07855e-18
2.68716e-18
3.46402e-18
4.45262e-18
5.70689e-18
7.29338e-18
9.29402e-18
1.18092e-17
1.49617e-17
1.89008e-17
2.38078e-17
2.99016e-17
3.7446e-17
4.67574e-17
5.82141e-17
7.22666e-17
8.94492e-17
1.10394e-16
1.35843e-16
1.6667e-16
2.03893e-16
2.48696e-16
3.02453e-16
3.66746e-16
4.43396e-16
5.34485e-16
6.42384e-16
7.69782e-16
9.19716e-16
1.0956e-15
1.30124e-15
1.5409e-15
1.81926e-15
2.14152e-15
2.51335e-15
2.94094e-15
3.431e-15
3.99073e-15
4.62788e-15
5.35065e-15
6.16773e-15
7.08819e-15
8.12149e-15
9.27736e-15
1.05657e-14
1.19966e-14
1.358e-14
1.53257e-14
1.72433e-14
1.93418e-14
2.16295e-14
2.41138e-14
2.68013e-14
2.9697e-14
3.28045e-14
3.61257e-14
3.96605e-14
4.34067e-14
4.73597e-14
5.15124e-14
5.58551e-14
6.03752e-14
6.50575e-14
6.98835e-14
7.48321e-14
7.98793e-14
8.49981e-14
9.01593e-14
9.53311e-14
1.00479e-13
1.05569e-13
1.10562e-13
1.15421e-13
1.20106e-13
1.2458e-13
1.28803e-13
1.32739e-13
1.36351e-13
1.39606e-13
1.42472e-13
1.44921e-13
1.46929e-13
1.48474e-13
1.49541e-13
1.50118e-13
1.50198e-13
1.49779e-13
1.48865e-13
1.47464e-13
1.4559e-13
1.43262e-13
1.40502e-13
1.37338e-13
1.33801e-13
1.29928e-13
1.25756e-13
1.21325e-13
1.1668e-13
1.11864e-13
1.06923e-13
1.01903e-13
9.68503e-14
9.18098e-14
8.68258e-14
8.19415e-14
7.71978e-14
7.26338e-14
6.8286e-14
6.41883e-14
6.03717e-14
5.68645e-14
5.36916e-14
5.0875e-14
4.84332e-14
4.6382e-14
4.47337e-14
4.34973e-14
4.26789e-14
4.22813e-14
4.23042e-14
4.27441e-14
4.35944e-14
4.48453e-14
4.64839e-14
4.8494e-14
5.08563e-14
5.35484e-14
5.65445e-14
5.98159e-14
6.33309e-14
6.70547e-14
7.09499e-14
7.49766e-14
7.90927e-14
8.32541e-14
8.74153e-14
9.15298e-14
9.55505e-14
9.94303e-14
1.03123e-13
1.06583e-13
1.09769e-13
1.12638e-13
1.15153e-13
1.17282e-13
1.18995e-13
1.20267e-13
1.2108e-13
1.2142e-13
1.2128e-13
1.20658e-13
1.19559e-13
1.17994e-13
1.15979e-13
1.13536e-13
1.1069e-13
1.07474e-13
1.03923e-13
1.00074e-13
9.59683e-14
9.16484e-14
8.71578e-14
8.25402e-14
7.78389e-14
7.3096e-14
6.83518e-14
6.36444e-14
5.90091e-14
5.4478e-14
5.00795e-14
4.58385e-14
4.17761e-14
3.79094e-14
3.42518e-14
3.08127e-14
2.75984e-14
2.46116e-14
2.18521e-14
1.93169e-14
1.70009e-14
1.48968e-14
1.29954e-14
1.12867e-14
9.75916e-15
8.40094e-15
7.19959e-15
6.14255e-15
5.21732e-15
4.41165e-15
3.71369e-15
3.11213e-15
2.59631e-15
2.15624e-15
1.78269e-15
1.46721e-15
1.20211e-15
9.80459e-16
7.96056e-16
6.43407e-16
5.17671e-16
4.14617e-16
3.30569e-16
2.6236e-16
2.07278e-16
1.63014e-16
1.27619e-16
9.94533e-17
7.71504e-17
5.95758e-17
4.57946e-17
3.50405e-17
2.66893e-17
2.02355e-17
1.52722e-17
1.14736e-17
8.58034e-18
6.38733e-18
4.73307e-18
3.49121e-18
2.56341e-18
1.87356e-18
1.3631e-18
9.87186e-19
7.11672e-19
5.10706e-19
3.64816e-19
2.59411e-19
1.83616e-19
1.29367e-19
9.0715e-20
6.32827e-20
4.38582e-20
3.0078e-20
2.019e-20
1.28828e-20
7.16881e-21
2.30193e-21
5.25154e-21
1.60922e-20
2.80255e-20
4.20117e-20
5.92849e-20
8.13955e-20
1.10272e-19
1.48327e-19
1.98609e-19
2.65014e-19
3.52537e-19
4.676e-19
6.18443e-19
8.15614e-19
1.07259e-18
1.4065e-18
1.83911e-18
2.39791e-18
3.11756e-18
4.04157e-18
5.22441e-18
6.73405e-18
8.65494e-18
1.10917e-17
1.41736e-17
1.80595e-17
2.29442e-17
2.90658e-17
3.67139e-17
4.62399e-17
5.80683e-17
7.27104e-17
9.07794e-17
1.13008e-16
1.40269e-16
1.73598e-16
2.14217e-16
2.63566e-16
3.23333e-16
3.95487e-16
4.82322e-16
5.86491e-16
7.11058e-16
8.59539e-16
1.03596e-15
1.2449e-15
1.49155e-15
1.78177e-15
2.12215e-15
2.52006e-15
2.98367e-15
3.52205e-15
4.1452e-15
4.86403e-15
5.69048e-15
6.63742e-15
7.71876e-15
8.94933e-15
1.03449e-14
1.19222e-14
1.36986e-14
1.56922e-14
1.79217e-14
2.0406e-14
2.31643e-14
2.62156e-14
2.95788e-14
3.32719e-14
3.7312e-14
4.17149e-14
4.64947e-14
5.16634e-14
5.72305e-14
6.32026e-14
6.95829e-14
7.63707e-14
8.35615e-14
9.11459e-14
9.91101e-14
1.07435e-13
1.16095e-13
1.25062e-13
1.34299e-13
1.43766e-13
1.53416e-13
1.63196e-13
1.73052e-13
1.8292e-13
1.92737e-13
2.02434e-13
2.1194e-13
2.2118e-13
2.30083e-13
2.38573e-13
2.46577e-13
2.54024e-13
2.60847e-13
2.6698e-13
2.72365e-13
2.76949e-13
2.80686e-13
2.83537e-13
2.85471e-13
2.86469e-13
2.86516e-13
2.85612e-13
2.83764e-13
2.8099e-13
2.77315e-13
2.72777e-13
2.67421e-13
2.61299e-13
2.54474e-13
2.47013e-13
2.38989e-13
2.3048e-13
2.21569e-13
2.12341e-13
2.02883e-13
1.93281e-13
1.83625e-13
1.73998e-13
1.64486e-13
1.5517e-13
1.46126e-13
1.3743e-13
1.29148e-13
1.21346e-13
1.1408e-13
1.07405e-13
1.01365e-13
9.60024e-14
9.13509e-14
8.74391e-14
8.42895e-14
8.19185e-14
8.03364e-14
7.95477e-14
7.95508e-14
8.03384e-14
8.18971e-14
8.42077e-14
8.72452e-14
9.09784e-14
9.53703e-14
1.00378e-13
1.05953e-13
1.12041e-13
1.18581e-13
1.25509e-13
1.32753e-13
1.4024e-13
1.47889e-13
1.55619e-13
1.63344e-13
1.70977e-13
1.78431e-13
1.85618e-13
1.92452e-13
1.98849e-13
2.04728e-13
2.10016e-13
2.14642e-13
2.18546e-13
2.21672e-13
2.23977e-13
2.25426e-13
2.25995e-13
2.25671e-13
2.24452e-13
2.22347e-13
2.19377e-13
2.15572e-13
2.10974e-13
2.05633e-13
1.99607e-13
1.92961e-13
1.85768e-13
1.78102e-13
1.70043e-13
1.61673e-13
1.53071e-13
1.44318e-13
1.35493e-13
1.2667e-13
1.1792e-13
1.09308e-13
1.00893e-13
9.2727e-14
8.48568e-14
7.73206e-14
7.015e-14
6.33691e-14
5.69956e-14
5.10402e-14
4.55081e-14
4.03983e-14
3.57053e-14
3.1419e-14
2.75256e-14
2.40085e-14
2.08483e-14
1.80239e-14
1.55131e-14
1.32927e-14
1.13394e-14
9.63007e-15
8.14185e-15
6.85283e-15
5.74205e-15
4.78972e-15
3.97739e-15
3.28796e-15
2.70579e-15
2.21666e-15
1.80774e-15
1.4676e-15
1.18606e-15
9.54187e-16
7.64164e-16
6.09205e-16
4.83462e-16
3.81928e-16
3.00346e-16
2.35114e-16
1.83211e-16
1.42116e-16
1.09735e-16
8.43458e-17
6.45349e-17
4.91516e-17
3.72642e-17
2.81228e-17
2.11268e-17
1.57987e-17
1.17603e-17
8.71417e-18
6.42752e-18
4.71923e-18
3.44912e-18
2.50933e-18
1.81726e-18
1.31005e-18
9.40093e-19
6.71531e-19
4.775e-19
3.37978e-19
2.38122e-19
1.66975e-19
1.16481e-19
8.07272e-20
5.53629e-20
3.71629e-20
2.37132e-20
1.31958e-20
4.23729e-21
9.14894e-21
2.80353e-20
4.88254e-20
7.31912e-20
1.0328e-19
1.41789e-19
1.92074e-19
2.58331e-19
3.45866e-19
4.61452e-19
6.1378e-19
8.14012e-19
1.07647e-18
1.4195e-18
1.86651e-18
2.44728e-18
3.19962e-18
4.17127e-18
5.42243e-18
7.02868e-18
9.08458e-18
1.17081e-17
1.50458e-17
1.92794e-17
2.46328e-17
3.13819e-17
3.98644e-17
5.0493e-17
6.377e-17
8.03042e-17
1.00831e-16
1.26237e-16
1.57583e-16
1.96138e-16
2.43414e-16
3.01201e-16
3.71614e-16
4.57144e-16
5.60709e-16
6.85714e-16
8.3612e-16
1.01651e-15
1.23218e-15
1.48919e-15
1.79449e-15
2.15598e-15
2.58262e-15
3.0845e-15
3.67296e-15
4.36069e-15
5.16177e-15
6.09179e-15
7.16793e-15
8.40895e-15
9.83533e-15
1.14692e-14
1.33343e-14
1.54562e-14
1.78618e-14
2.05797e-14
2.36396e-14
2.70724e-14
3.09099e-14
3.51844e-14
3.99286e-14
4.51747e-14
5.09545e-14
5.72986e-14
6.42358e-14
7.17926e-14
7.99925e-14
8.88554e-14
9.83968e-14
1.08627e-13
1.19551e-13
1.31166e-13
1.43465e-13
1.56429e-13
1.70034e-13
1.84245e-13
1.99022e-13
2.1431e-13
2.30048e-13
2.46165e-13
2.62581e-13
2.79207e-13
2.95945e-13
3.12691e-13
3.29332e-13
3.45752e-13
3.6183e-13
3.7744e-13
3.92457e-13
4.06756e-13
4.20212e-13
4.32706e-13
4.44122e-13
4.54354e-13
4.63301e-13
4.70876e-13
4.77002e-13
4.81615e-13
4.84667e-13
4.86123e-13
4.85965e-13
4.84193e-13
4.80822e-13
4.75882e-13
4.69423e-13
4.61509e-13
4.52217e-13
4.41641e-13
4.29885e-13
4.17065e-13
4.03308e-13
3.88747e-13
3.73522e-13
3.57778e-13
3.41661e-13
3.25319e-13
3.08901e-13
2.92549e-13
2.76407e-13
2.60609e-13
2.45285e-13
2.30558e-13
2.16543e-13
2.03344e-13
1.91058e-13
1.79772e-13
1.69561e-13
1.60492e-13
1.52621e-13
1.45993e-13
1.40645e-13
1.366e-13
1.33876e-13
1.32476e-13
1.32397e-13
1.33624e-13
1.36133e-13
1.39891e-13
1.44853e-13
1.50967e-13
1.58169e-13
1.66386e-13
1.75538e-13
1.85531e-13
1.96266e-13
2.07633e-13
2.19515e-13
2.31787e-13
2.44319e-13
2.56973e-13
2.6961e-13
2.82086e-13
2.94256e-13
3.05977e-13
3.17107e-13
3.27509e-13
3.37052e-13
3.45615e-13
3.53083e-13
3.59357e-13
3.64351e-13
3.67993e-13
3.70227e-13
3.71016e-13
3.7034e-13
3.68198e-13
3.64607e-13
3.59601e-13
3.53234e-13
3.45573e-13
3.36702e-13
3.26717e-13
3.15728e-13
3.03852e-13
2.91213e-13
2.77942e-13
2.64171e-13
2.50033e-13
2.35659e-13
2.21178e-13
2.06711e-13
1.92372e-13
1.78268e-13
1.64494e-13
1.51137e-13
1.38269e-13
1.25953e-13
1.14241e-13
1.0317e-13
9.27684e-14
8.30536e-14
7.40325e-14
6.57035e-14
5.80566e-14
5.10748e-14
4.47353e-14
3.90103e-14
3.38678e-14
2.92733e-14
2.51901e-14
2.15802e-14
1.84055e-14
1.56279e-14
1.32103e-14
1.11168e-14
9.31319e-15
7.76725e-15
6.44885e-15
5.33017e-15
4.38573e-15
3.59236e-15
2.92924e-15
2.37774e-15
1.92134e-15
1.54552e-15
1.23758e-15
9.86504e-16
7.82795e-16
6.1833e-16
4.86198e-16
3.80563e-16
2.96524e-16
2.2999e-16
1.77573e-16
1.36477e-16
1.04413e-16
7.95184e-17
6.02827e-17
4.54915e-17
3.41728e-17
2.55531e-17
1.90204e-17
1.40931e-17
1.03945e-17
7.63157e-18
5.57746e-18
4.05762e-18
2.93845e-18
2.11826e-18
1.52003e-18
1.08577e-18
7.72041e-19
5.46451e-19
3.84998e-19
2.69965e-19
1.88327e-19
1.30521e-19
8.95128e-20
6.00878e-20
3.83426e-20
2.13374e-20
6.85184e-21
1.53797e-20
4.71287e-20
8.20783e-20
1.23037e-19
1.73608e-19
2.38323e-19
3.22813e-19
4.34123e-19
5.81158e-19
7.75285e-19
1.03109e-18
1.36728e-18
1.80791e-18
2.38372e-18
3.13396e-18
4.10858e-18
5.37092e-18
7.00102e-18
9.09974e-18
1.17937e-17
1.52413e-17
1.964e-17
2.52354e-17
3.23313e-17
4.1303e-17
5.26116e-17
6.68224e-17
8.46256e-17
1.06861e-16
1.34546e-16
1.68911e-16
2.11434e-16
2.63891e-16
3.28401e-16
4.07484e-16
5.0413e-16
6.2187e-16
7.64855e-16
9.3795e-16
1.14683e-15
1.3981e-15
1.6994e-15
2.05952e-15
2.48857e-15
2.9981e-15
3.60125e-15
4.3129e-15
5.14983e-15
6.13086e-15
7.27703e-15
8.61172e-15
1.01608e-14
1.19526e-14
1.40183e-14
1.63917e-14
1.91094e-14
2.22108e-14
2.57377e-14
2.97348e-14
3.42489e-14
3.93291e-14
4.50262e-14
5.13922e-14
5.84802e-14
6.63433e-14
7.50346e-14
8.46055e-14
9.51058e-14
1.06582e-13
1.19077e-13
1.32628e-13
1.47267e-13
1.63018e-13
1.79897e-13
1.97909e-13
2.1705e-13
2.37303e-13
2.58638e-13
2.81013e-13
3.0437e-13
3.28636e-13
3.53723e-13
3.79529e-13
4.05934e-13
4.32804e-13
4.59992e-13
4.87337e-13
5.14665e-13
5.41792e-13
5.68525e-13
5.94666e-13
6.20009e-13
6.4435e-13
6.67483e-13
6.89207e-13
7.09326e-13
7.27656e-13
7.44022e-13
7.58265e-13
7.70245e-13
7.79838e-13
7.86946e-13
7.91492e-13
7.93426e-13
7.92722e-13
7.89383e-13
7.83439e-13
7.74946e-13
7.63986e-13
7.50668e-13
7.35125e-13
7.1751e-13
6.97999e-13
6.76782e-13
6.54068e-13
6.30075e-13
6.05034e-13
5.79181e-13
5.52753e-13
5.25993e-13
4.99139e-13
4.72425e-13
4.46078e-13
4.20318e-13
3.95353e-13
3.71379e-13
3.48577e-13
3.27117e-13
3.07149e-13
2.88811e-13
2.72221e-13
2.57484e-13
2.44685e-13
2.33894e-13
2.25164e-13
2.18533e-13
2.14021e-13
2.11633e-13
2.11357e-13
2.13169e-13
2.17024e-13
2.22867e-13
2.30623e-13
2.40206e-13
2.51511e-13
2.64421e-13
2.78802e-13
2.94506e-13
3.11372e-13
3.29225e-13
3.47877e-13
3.6713e-13
3.86775e-13
4.06596e-13
4.2637e-13
4.45872e-13
4.64872e-13
4.83146e-13
5.00471e-13
5.16632e-13
5.31425e-13
5.44659e-13
5.5616e-13
5.65772e-13
5.73362e-13
5.7882e-13
5.82062e-13
5.83033e-13
5.81705e-13
5.78078e-13
5.72182e-13
5.64076e-13
5.53845e-13
5.41597e-13
5.27467e-13
5.11609e-13
4.94194e-13
4.75407e-13
4.55447e-13
4.34516e-13
4.12823e-13
3.90576e-13
3.67982e-13
3.45238e-13
3.22535e-13
3.00051e-13
2.77951e-13
2.56385e-13
2.35483e-13
2.1536e-13
1.96112e-13
1.77816e-13
1.60532e-13
1.44302e-13
1.2915e-13
1.15087e-13
1.02109e-13
9.01984e-14
7.93287e-14
6.9463e-14
6.05569e-14
5.25602e-14
4.54182e-14
3.90731e-14
3.34655e-14
2.85355e-14
2.42236e-14
2.04716e-14
1.72236e-14
1.44262e-14
1.20291e-14
9.98531e-15
8.25158e-15
6.78823e-15
5.55927e-15
4.53229e-15
3.67836e-15
2.97184e-15
2.39018e-15
1.91366e-15
1.5252e-15
1.21009e-15
9.55729e-16
7.51406e-16
5.88082e-16
4.58165e-16
3.55325e-16
2.74315e-16
2.1081e-16
1.61268e-16
1.22807e-16
9.30927e-17
7.02461e-17
5.27647e-17
3.94529e-17
2.93649e-17
2.17567e-17
1.60462e-17
1.17805e-17
8.60932e-18
6.2631e-18
4.53549e-18
3.26944e-18
2.34606e-18
1.67579e-18
1.19156e-18
8.43381e-19
5.94197e-19
4.16659e-19
2.90662e-19
2.01448e-19
1.38159e-19
9.27468e-20
5.91857e-20
3.29382e-20
1.05775e-20
2.54946e-20
7.81247e-20
1.3606e-19
2.03952e-19
2.87769e-19
3.95009e-19
5.34997e-19
7.19395e-19
9.6294e-19
1.28444e-18
1.70803e-18
2.26468e-18
2.99413e-18
3.94724e-18
5.18892e-18
6.80173e-18
8.89036e-18
1.15871e-17
1.50586e-17
1.95139e-17
2.52148e-17
3.24875e-17
4.17371e-17
5.34654e-17
6.82914e-17
8.69762e-17
1.10452e-16
1.39858e-16
1.76577e-16
2.22288e-16
2.79016e-16
3.492e-16
4.35762e-16
5.4219e-16
6.72635e-16
8.32016e-16
1.02614e-15
1.26183e-15
1.5471e-15
1.89126e-15
2.30516e-15
2.80134e-15
3.39424e-15
4.10045e-15
4.9389e-15
5.93112e-15
7.1015e-15
8.47751e-15
1.009e-14
1.19733e-14
1.41657e-14
1.67093e-14
1.96507e-14
2.30404e-14
2.69338e-14
3.13903e-14
3.6474e-14
4.22531e-14
4.88001e-14
5.6191e-14
6.45052e-14
7.38249e-14
8.42345e-14
9.58194e-14
1.08665e-13
1.22857e-13
1.38478e-13
1.55607e-13
1.74319e-13
1.9468e-13
2.16751e-13
2.40579e-13
2.66203e-13
2.93644e-13
3.2291e-13
3.5399e-13
3.86854e-13
4.2145e-13
4.57706e-13
4.95525e-13
5.34785e-13
5.75341e-13
6.17023e-13
6.59634e-13
7.02956e-13
7.46747e-13
7.90744e-13
8.34663e-13
8.78207e-13
9.21063e-13
9.62908e-13
1.00341e-12
1.04225e-12
1.07908e-12
1.11359e-12
1.14547e-12
1.17441e-12
1.20015e-12
1.22243e-12
1.24103e-12
1.25576e-12
1.26647e-12
1.27304e-12
1.27539e-12
1.2735e-12
1.26738e-12
1.25707e-12
1.24269e-12
1.22437e-12
1.20228e-12
1.17666e-12
1.14775e-12
1.11584e-12
1.08124e-12
1.04429e-12
1.00535e-12
9.64776e-13
9.22957e-13
8.80275e-13
8.37114e-13
7.93857e-13
7.50875e-13
7.08531e-13
6.6717e-13
6.27121e-13
5.88693e-13
5.52171e-13
5.17817e-13
4.85868e-13
4.56536e-13
4.30004e-13
4.06429e-13
3.85943e-13
3.68649e-13
3.54625e-13
3.43924e-13
3.36571e-13
3.32568e-13
3.31891e-13
3.34493e-13
3.40302e-13
3.49222e-13
3.61132e-13
3.7589e-13
3.93329e-13
4.13259e-13
4.35467e-13
4.59719e-13
4.85759e-13
5.13311e-13
5.4208e-13
5.71755e-13
6.02011e-13
6.3251e-13
6.62905e-13
6.92845e-13
7.21977e-13
7.49953e-13
7.76429e-13
8.01075e-13
8.23577e-13
8.43645e-13
8.61011e-13
8.7544e-13
8.8673e-13
8.94717e-13
8.99277e-13
9.00327e-13
8.97832e-13
8.91798e-13
8.82275e-13
8.69359e-13
8.53184e-13
8.33925e-13
8.11792e-13
7.87024e-13
7.59889e-13
7.30675e-13
6.99686e-13
6.6724e-13
6.33655e-13
5.99254e-13
5.64351e-13
5.29251e-13
4.94247e-13
4.5961e-13
4.25591e-13
3.92416e-13
3.60287e-13
3.29376e-13
2.99828e-13
2.71759e-13
2.45257e-13
2.20384e-13
1.97177e-13
1.75648e-13
1.5579e-13
1.37574e-13
1.20958e-13
1.05883e-13
9.228e-14
8.00711e-14
6.91713e-14
5.94915e-14
5.094e-14
4.34245e-14
3.68534e-14
3.11376e-14
2.61912e-14
2.19322e-14
1.82838e-14
1.5174e-14
1.25368e-14
1.03114e-14
8.44295e-15
6.88197e-15
5.58434e-15
4.51095e-15
3.62743e-15
2.90379e-15
2.31399e-15
1.83565e-15
1.44959e-15
1.13953e-15
8.91733e-16
6.94651e-16
5.38668e-16
4.15813e-16
3.19518e-16
2.44407e-16
1.86102e-16
1.4106e-16
1.06433e-16
7.99408e-17
5.9769e-17
4.44836e-17
3.29565e-17
2.43051e-17
1.78431e-17
1.30395e-17
9.48562e-18
6.86892e-18
4.9514e-18
3.55292e-18
2.53782e-18
1.80449e-18
1.27721e-18
8.99847e-19
6.30989e-19
4.40185e-19
3.05085e-19
2.09244e-19
1.40474e-19
8.96484e-20
4.98949e-20
1.60236e-20
4.19532e-20
1.2856e-19
2.23897e-19
3.35611e-19
4.73511e-19
6.49922e-19
8.80168e-19
1.18341e-18
1.58387e-18
2.11244e-18
2.80875e-18
3.72367e-18
4.92245e-18
6.4886e-18
8.52863e-18
1.11781e-17
1.46086e-17
1.90374e-17
2.47377e-17
3.20525e-17
4.14109e-17
5.33474e-17
6.85263e-17
8.77698e-17
1.12092e-16
1.4274e-16
1.81239e-16
2.29454e-16
2.89651e-16
3.64574e-16
4.57539e-16
5.72533e-16
7.14331e-16
8.88639e-16
1.10224e-15
1.36316e-15
1.68089e-15
2.06658e-15
2.53328e-15
3.0962e-15
3.77302e-15
4.58418e-15
5.55322e-15
6.70715e-15
8.07679e-15
9.69717e-15
1.1608e-14
1.38538e-14
1.64848e-14
1.95567e-14
2.31317e-14
2.72781e-14
3.20712e-14
3.75931e-14
4.39331e-14
5.11875e-14
5.94597e-14
6.886e-14
7.9505e-14
9.15173e-14
1.05025e-13
1.20159e-13
1.37056e-13
1.55852e-13
1.76684e-13
1.99688e-13
2.24996e-13
2.52733e-13
2.83016e-13
3.15952e-13
3.51634e-13
3.90135e-13
4.31512e-13
4.75797e-13
5.22997e-13
5.73089e-13
6.26021e-13
6.81704e-13
7.40016e-13
8.00796e-13
8.63842e-13
9.28916e-13
9.95738e-13
1.06399e-12
1.13331e-12
1.20331e-12
1.27357e-12
1.34362e-12
1.41299e-12
1.48116e-12
1.54764e-12
1.61188e-12
1.67335e-12
1.73155e-12
1.78594e-12
1.83603e-12
1.88137e-12
1.9215e-12
1.95605e-12
1.98467e-12
2.00705e-12
2.02298e-12
2.03226e-12
2.03481e-12
2.03057e-12
2.01957e-12
2.00193e-12
1.97781e-12
1.94744e-12
1.91113e-12
1.86922e-12
1.82215e-12
1.77037e-12
1.71438e-12
1.65474e-12
1.592e-12
1.52676e-12
1.45963e-12
1.39122e-12
1.32214e-12
1.25299e-12
1.18436e-12
1.11681e-12
1.05091e-12
9.8715e-13
9.26021e-13
8.67968e-13
8.13394e-13
7.62666e-13
7.16107e-13
6.73997e-13
6.36575e-13
6.04036e-13
5.76535e-13
5.54182e-13
5.37049e-13
5.25168e-13
5.1853e-13
5.17089e-13
5.2076e-13
5.29422e-13
5.42916e-13
5.61047e-13
5.83584e-13
6.1026e-13
6.40773e-13
6.74786e-13
7.1193e-13
7.51803e-13
7.93974e-13
8.37983e-13
8.83346e-13
9.29557e-13
9.76095e-13
1.02243e-12
1.06801e-12
1.1123e-12
1.15476e-12
1.19487e-12
1.23213e-12
1.26606e-12
1.29622e-12
1.3222e-12
1.34365e-12
1.36026e-12
1.3718e-12
1.37808e-12
1.37899e-12
1.37447e-12
1.36455e-12
1.34931e-12
1.3289e-12
1.30354e-12
1.27351e-12
1.23911e-12
1.20074e-12
1.1588e-12
1.11374e-12
1.06602e-12
1.01613e-12
9.64558e-13
9.11794e-13
8.58317e-13
8.04594e-13
7.51064e-13
6.98142e-13
6.46205e-13
5.95597e-13
5.46619e-13
4.99529e-13
4.54545e-13
4.11839e-13
3.71541e-13
3.33742e-13
2.98493e-13
2.65812e-13
2.3568e-13
2.08056e-13
1.82868e-13
1.60027e-13
1.39425e-13
1.20943e-13
1.04449e-13
8.98071e-14
7.68767e-14
6.5517e-14
5.55884e-14
4.6955e-14
3.94861e-14
3.30574e-14
2.75519e-14
2.28607e-14
1.88834e-14
1.55282e-14
1.27119e-14
1.03597e-14
8.40473e-15
6.788e-15
5.45757e-15
4.3681e-15
3.48034e-15
2.76047e-15
2.17959e-15
1.71316e-15
1.34045e-15
1.04407e-15
8.09529e-16
6.24829e-16
4.8008e-16
3.67188e-16
2.79567e-16
2.11887e-16
1.59861e-16
1.20061e-16
8.97595e-17
6.68003e-17
4.94874e-17
3.64948e-17
2.67907e-17
1.95775e-17
1.42413e-17
1.03124e-17
7.43347e-18
5.33386e-18
3.80989e-18
2.70896e-18
1.91739e-18
1.35089e-18
9.47276e-19
6.60842e-19
4.58031e-19
3.14156e-19
2.10918e-19
1.34615e-19
7.49274e-20
2.4064e-20
6.86689e-20
2.10428e-19
3.66474e-19
5.49313e-19
7.74984e-19
1.06363e-18
1.44031e-18
1.93634e-18
2.59129e-18
3.45566e-18
4.59418e-18
6.08996e-18
8.04957e-18
1.06093e-17
1.39432e-17
1.82724e-17
2.38772e-17
3.11118e-17
4.04222e-17
5.23678e-17
6.76484e-17
8.71357e-17
1.11913e-16
1.4332e-16
1.83009e-16
2.33011e-16
2.95814e-16
3.74452e-16
4.72614e-16
5.94769e-16
7.46311e-16
9.33726e-16
1.16478e-15
1.44875e-15
1.79666e-15
2.22157e-15
2.73888e-15
3.36668e-15
4.12617e-15
5.04205e-15
6.14297e-15
7.46209e-15
9.03756e-15
1.09131e-14
1.31387e-14
1.5771e-14
1.88742e-14
2.25205e-14
2.67908e-14
3.17753e-14
3.75742e-14
4.42978e-14
5.20675e-14
6.10155e-14
7.12856e-14
8.30328e-14
9.64232e-14
1.11634e-13
1.28852e-13
1.48273e-13
1.70103e-13
1.94552e-13
2.21836e-13
2.52173e-13
2.85781e-13
3.22876e-13
3.63665e-13
4.08346e-13
4.57105e-13
5.10106e-13
5.67493e-13
6.2938e-13
6.95851e-13
7.66951e-13
8.42682e-13
9.23003e-13
1.00782e-12
1.09698e-12
1.19029e-12
1.28747e-12
1.3882e-12
1.49208e-12
1.59865e-12
1.70741e-12
1.81778e-12
1.92911e-12
2.04072e-12
2.15188e-12
2.26182e-12
2.36973e-12
2.47479e-12
2.57615e-12
2.67298e-12
2.76444e-12
2.84971e-12
2.92803e-12
2.99866e-12
3.06092e-12
3.11418e-12
3.15793e-12
3.19171e-12
3.21516e-12
3.22802e-12
3.23015e-12
3.22149e-12
3.20214e-12
3.17225e-12
3.13211e-12
3.08213e-12
3.0228e-12
2.95469e-12
2.87848e-12
2.79493e-12
2.70484e-12
2.60907e-12
2.50855e-12
2.40422e-12
2.29702e-12
2.18794e-12
2.07794e-12
1.96796e-12
1.85894e-12
1.75176e-12
1.64728e-12
1.54629e-12
1.44954e-12
1.35772e-12
1.27147e-12
1.19132e-12
1.11779e-12
1.05129e-12
9.92187e-13
9.40766e-13
8.97253e-13
8.61807e-13
8.34523e-13
8.15435e-13
8.04515e-13
8.01675e-13
8.06768e-13
8.19593e-13
8.39888e-13
8.67338e-13
9.01573e-13
9.42168e-13
9.88645e-13
1.04047e-12
1.09708e-12
1.15783e-12
1.22205e-12
1.28904e-12
1.35803e-12
1.42826e-12
1.49892e-12
1.56919e-12
1.63824e-12
1.70524e-12
1.76937e-12
1.82984e-12
1.88588e-12
1.93678e-12
1.98185e-12
2.02051e-12
2.05221e-12
2.07651e-12
2.09304e-12
2.10155e-12
2.10186e-12
2.09392e-12
2.07777e-12
2.05355e-12
2.0215e-12
1.98196e-12
1.93536e-12
1.8822e-12
1.82306e-12
1.75857e-12
1.68941e-12
1.61629e-12
1.53996e-12
1.46115e-12
1.38062e-12
1.29909e-12
1.21726e-12
1.1358e-12
1.05533e-12
9.76431e-13
8.99603e-13
8.25301e-13
7.53914e-13
6.85762e-13
6.21101e-13
5.60123e-13
5.02959e-13
4.49681e-13
4.00308e-13
3.54812e-13
3.13121e-13
2.75125e-13
2.40685e-13
2.09636e-13
1.81792e-13
1.56954e-13
1.34913e-13
1.15456e-13
9.83694e-14
8.34404e-14
7.04635e-14
5.92406e-14
4.95838e-14
4.13163e-14
3.42738e-14
2.83048e-14
2.32707e-14
1.90463e-14
1.55189e-14
1.2588e-14
1.01648e-14
8.17107e-15
6.53884e-15
5.20907e-15
4.13101e-15
3.26126e-15
2.563e-15
2.00513e-15
1.56159e-15
1.21066e-15
9.34332e-16
7.17808e-16
5.4896e-16
4.17925e-16
3.16723e-16
2.38938e-16
1.79437e-16
1.34141e-16
9.98235e-17
7.39478e-17
5.45305e-17
4.0029e-17
2.92504e-17
2.1277e-17
1.54067e-17
1.11053e-17
7.96846e-18
5.69167e-18
4.04695e-18
2.86441e-18
2.01811e-18
1.41517e-18
9.87273e-19
6.843e-19
4.6937e-19
3.15145e-19
2.01152e-19
1.11971e-19
3.59632e-20
1.1186e-19
3.42784e-19
5.96977e-19
8.94795e-19
1.26234e-18
1.73237e-18
2.34567e-18
3.15316e-18
4.21923e-18
5.62598e-18
7.47868e-18
9.91242e-18
1.31004e-17
1.72643e-17
2.26866e-17
2.97268e-17
3.88402e-17
5.0602e-17
6.57364e-17
8.51516e-17
1.09984e-16
1.41647e-16
1.81899e-16
2.32914e-16
2.97372e-16
3.78566e-16
4.80528e-16
6.08177e-16
7.67491e-16
9.65709e-16
1.21157e-15
1.51557e-15
1.89029e-15
2.35073e-15
2.91474e-15
3.60342e-15
4.44168e-15
5.45878e-15
6.68894e-15
8.17206e-15
9.95441e-15
1.20895e-14
1.46389e-14
1.76731e-14
2.12726e-14
2.55287e-14
3.05449e-14
3.64372e-14
4.33359e-14
5.13861e-14
6.07484e-14
7.16004e-14
8.41366e-14
9.85692e-14
1.15129e-13
1.34063e-13
1.55638e-13
1.80136e-13
2.07857e-13
2.39113e-13
2.74231e-13
3.13546e-13
3.574e-13
4.06141e-13
4.60113e-13
5.19655e-13
5.85095e-13
6.56746e-13
7.34895e-13
8.19799e-13
9.11678e-13
1.01071e-12
1.11701e-12
1.23065e-12
1.35161e-12
1.47983e-12
1.61513e-12
1.75727e-12
1.9059e-12
2.0606e-12
2.22081e-12
2.38591e-12
2.55515e-12
2.7277e-12
2.90264e-12
3.07893e-12
3.25547e-12
3.43111e-12
3.6046e-12
3.77466e-12
3.93998e-12
4.09923e-12
4.25107e-12
4.3942e-12
4.52733e-12
4.64924e-12
4.75879e-12
4.85491e-12
4.93665e-12
5.00319e-12
5.05385e-12
5.08807e-12
5.10549e-12
5.10589e-12
5.08925e-12
5.05569e-12
5.00554e-12
4.93927e-12
4.85753e-12
4.76114e-12
4.65104e-12
4.52832e-12
4.39417e-12
4.2499e-12
4.09689e-12
3.93659e-12
3.77048e-12
3.60009e-12
3.42695e-12
3.25257e-12
3.07844e-12
2.90601e-12
2.73666e-12
2.57173e-12
2.41245e-12
2.25999e-12
2.11539e-12
1.97962e-12
1.85354e-12
1.73789e-12
1.63332e-12
1.54036e-12
1.45943e-12
1.39088e-12
1.33491e-12
1.29165e-12
1.26114e-12
1.24329e-12
1.23797e-12
1.2449e-12
1.26377e-12
1.29415e-12
1.33552e-12
1.3873e-12
1.44882e-12
1.51933e-12
1.59799e-12
1.68391e-12
1.7761e-12
1.87352e-12
1.97508e-12
2.07963e-12
2.18595e-12
2.29282e-12
2.39899e-12
2.50319e-12
2.60415e-12
2.70064e-12
2.79145e-12
2.87543e-12
2.95148e-12
3.01859e-12
3.07588e-12
3.12253e-12
3.15789e-12
3.18142e-12
3.19275e-12
3.19164e-12
3.17801e-12
3.15195e-12
3.11369e-12
3.06362e-12
3.00227e-12
2.9303e-12
2.84848e-12
2.75771e-12
2.65894e-12
2.55321e-12
2.44162e-12
2.32529e-12
2.20534e-12
2.08289e-12
1.95906e-12
1.8349e-12
1.7114e-12
1.58951e-12
1.47008e-12
1.35388e-12
1.24158e-12
1.13376e-12
1.03088e-12
9.33339e-13
8.41404e-13
7.55267e-13
6.75029e-13
6.00711e-13
5.32262e-13
4.69567e-13
4.12457e-13
3.60714e-13
3.14085e-13
2.72287e-13
2.35017e-13
2.01958e-13
1.72785e-13
1.47174e-13
1.24806e-13
1.05369e-13
8.85652e-14
7.41106e-14
6.17394e-14
5.12044e-14
4.22776e-14
3.47513e-14
2.84371e-14
2.3166e-14
1.87874e-14
1.5168e-14
1.21909e-14
9.75408e-15
7.76922e-15
6.16038e-15
4.86267e-15
3.82101e-15
2.98893e-15
2.32749e-15
1.80422e-15
1.39227e-15
1.06951e-15
8.17852e-16
6.22576e-16
4.71777e-16
3.55883e-16
2.67241e-16
1.99767e-16
1.48651e-16
1.10113e-16
8.11952e-17
5.96001e-17
4.35499e-17
3.16775e-17
2.29371e-17
1.6533e-17
1.18628e-17
8.47323e-18
6.02468e-18
4.26423e-18
3.00437e-18
2.10679e-18
1.46979e-18
1.01877e-18
6.98819e-19
4.69231e-19
2.99527e-19
1.66745e-19
5.35584e-20
1.81375e-19
5.55804e-19
9.67957e-19
1.45081e-18
2.04663e-18
2.8085e-18
3.80242e-18
5.11087e-18
6.83807e-18
9.11695e-18
1.21179e-17
1.60594e-17
2.12219e-17
2.79637e-17
3.6742e-17
4.8138e-17
6.28879e-17
8.19217e-17
1.0641e-16
1.3782e-16
1.77987e-16
2.29198e-16
2.94289e-16
3.76772e-16
4.80974e-16
6.12211e-16
7.76989e-16
9.83244e-16
1.24062e-15
1.56079e-15
1.95784e-15
2.44869e-15
3.05362e-15
3.79679e-15
4.70692e-15
5.81803e-15
7.17018e-15
8.81045e-15
1.07939e-14
1.31846e-14
1.60571e-14
1.94972e-14
2.36038e-14
2.84901e-14
3.42853e-14
4.11359e-14
4.92075e-14
5.86864e-14
6.97811e-14
8.27236e-14
9.77714e-14
1.15208e-13
1.35344e-13
1.58519e-13
1.85099e-13
2.15481e-13
2.50088e-13
2.8937e-13
3.33801e-13
3.83881e-13
4.40125e-13
5.03065e-13
5.73243e-13
6.51206e-13
7.37498e-13
8.32652e-13
9.37184e-13
1.05158e-12
1.17629e-12
1.3117e-12
1.45817e-12
1.61595e-12
1.78522e-12
1.96606e-12
2.15845e-12
2.36224e-12
2.57715e-12
2.80278e-12
3.03855e-12
3.28375e-12
3.53751e-12
3.7988e-12
4.06642e-12
4.33904e-12
4.61516e-12
4.89316e-12
5.17127e-12
5.44763e-12
5.72029e-12
5.9872e-12
6.2463e-12
6.49547e-12
6.73263e-12
6.95571e-12
7.1627e-12
7.3517e-12
7.52091e-12
7.6687e-12
7.79359e-12
7.89432e-12
7.96984e-12
8.01934e-12
8.04228e-12
8.03838e-12
8.00761e-12
7.95025e-12
7.86683e-12
7.75817e-12
7.62533e-12
7.46961e-12
7.29256e-12
7.0959e-12
6.88157e-12
6.65162e-12
6.40825e-12
6.15375e-12
5.89047e-12
5.62081e-12
5.34716e-12
5.07189e-12
4.79733e-12
4.52574e-12
4.25928e-12
3.99999e-12
3.7498e-12
3.51049e-12
3.28368e-12
3.07083e-12
2.87326e-12
2.69208e-12
2.52828e-12
2.38263e-12
2.25578e-12
2.14819e-12
2.06017e-12
1.99188e-12
1.94331e-12
1.91435e-12
1.90469e-12
1.91393e-12
1.94152e-12
1.98677e-12
2.04887e-12
2.12689e-12
2.21976e-12