/*--------------------------------*- C++ -*----------------------------------*\
| =========                 |                                                 |
| \\      /  F ield         | OpenFOAM: The Open Source CFD Toolbox           |
|  \\    /   O peration     | Version:  v2012                                 |
|   \\  /    A nd           | Website:  www.openfoam.com                      |
|    \\/     M anipulation  |                                                 |
\*---------------------------------------------------------------------------*/
FoamFile
{
    version     2.0;
    format      ascii;
    class       volVectorField;
    location    "3.4";
    object      Psi;
}
// * * * * * * * * * * * * * * * * * * * * * * * * * * * * * * * * * * * * * //

dimensions      [0 2 -1 0 0 0 0];


internalField   nonuniform List<vector> 
65536
(
(0 0 8.86035e-06)
(0 0 2.65805e-05)
(0 0 4.42991e-05)
(0 0 6.20152e-05)
(0 0 7.97278e-05)
(0 0 9.74359e-05)
(0 0 0.000115139)
(0 0 0.000132835)
(0 0 0.000150523)
(0 0 0.000168202)
(0 0 0.000185872)
(0 0 0.000203531)
(0 0 0.000221178)
(0 0 0.000238811)
(0 0 0.00025643)
(0 0 0.000274032)
(0 0 0.000291618)
(0 0 0.000309185)
(0 0 0.000326732)
(0 0 0.000344258)
(0 0 0.000361761)
(0 0 0.00037924)
(0 0 0.000396693)
(0 0 0.000414117)
(0 0 0.000431513)
(0 0 0.000448877)
(0 0 0.000466209)
(0 0 0.000483505)
(0 0 0.000500765)
(0 0 0.000517985)
(0 0 0.000535165)
(0 0 0.000552301)
(0 0 0.000569392)
(0 0 0.000586436)
(0 0 0.000603429)
(0 0 0.000620369)
(0 0 0.000637255)
(0 0 0.000654082)
(0 0 0.000670849)
(0 0 0.000687553)
(0 0 0.000704191)
(0 0 0.00072076)
(0 0 0.000737257)
(0 0 0.000753679)
(0 0 0.000770023)
(0 0 0.000786285)
(0 0 0.000802463)
(0 0 0.000818553)
(0 0 0.000834552)
(0 0 0.000850455)
(0 0 0.00086626)
(0 0 0.000881963)
(0 0 0.000897561)
(0 0 0.000913048)
(0 0 0.000928423)
(0 0 0.000943681)
(0 0 0.000958817)
(0 0 0.000973829)
(0 0 0.000988711)
(0 0 0.00100346)
(0 0 0.00101807)
(0 0 0.00103254)
(0 0 0.00104687)
(0 0 0.00106105)
(0 0 0.00107507)
(0 0 0.00108894)
(0 0 0.00110264)
(0 0 0.00111618)
(0 0 0.00112955)
(0 0 0.00114274)
(0 0 0.00115575)
(0 0 0.00116858)
(0 0 0.00118123)
(0 0 0.00119368)
(0 0 0.00120594)
(0 0 0.00121799)
(0 0 0.00122985)
(0 0 0.0012415)
(0 0 0.00125293)
(0 0 0.00126415)
(0 0 0.00127515)
(0 0 0.00128593)
(0 0 0.00129648)
(0 0 0.00130681)
(0 0 0.0013169)
(0 0 0.00132675)
(0 0 0.00133636)
(0 0 0.00134573)
(0 0 0.00135485)
(0 0 0.00136372)
(0 0 0.00137234)
(0 0 0.00138071)
(0 0 0.00138881)
(0 0 0.00139666)
(0 0 0.00140424)
(0 0 0.00141156)
(0 0 0.00141861)
(0 0 0.00142539)
(0 0 0.0014319)
(0 0 0.00143813)
(0 0 0.00144409)
(0 0 0.00144978)
(0 0 0.00145519)
(0 0 0.00146031)
(0 0 0.00146516)
(0 0 0.00146973)
(0 0 0.00147401)
(0 0 0.00147802)
(0 0 0.00148174)
(0 0 0.00148517)
(0 0 0.00148833)
(0 0 0.00149119)
(0 0 0.00149378)
(0 0 0.00149608)
(0 0 0.0014981)
(0 0 0.00149984)
(0 0 0.00150129)
(0 0 0.00150247)
(0 0 0.00150336)
(0 0 0.00150397)
(0 0 0.00150431)
(0 0 0.00150437)
(0 0 0.00150415)
(0 0 0.00150366)
(0 0 0.00150289)
(0 0 0.00150185)
(0 0 0.00150055)
(0 0 0.00149897)
(0 0 0.00149713)
(0 0 0.00149502)
(0 0 0.00149265)
(0 0 0.00149003)
(0 0 0.00148714)
(0 0 0.001484)
(0 0 0.0014806)
(0 0 0.00147696)
(0 0 0.00147306)
(0 0 0.00146892)
(0 0 0.00146454)
(0 0 0.00145992)
(0 0 0.00145505)
(0 0 0.00144996)
(0 0 0.00144463)
(0 0 0.00143907)
(0 0 0.00143328)
(0 0 0.00142727)
(0 0 0.00142103)
(0 0 0.00141458)
(0 0 0.00140792)
(0 0 0.00140104)
(0 0 0.00139395)
(0 0 0.00138665)
(0 0 0.00137915)
(0 0 0.00137145)
(0 0 0.00136355)
(0 0 0.00135546)
(0 0 0.00134718)
(0 0 0.0013387)
(0 0 0.00133004)
(0 0 0.0013212)
(0 0 0.00131218)
(0 0 0.00130298)
(0 0 0.00129361)
(0 0 0.00128406)
(0 0 0.00127435)
(0 0 0.00126447)
(0 0 0.00125443)
(0 0 0.00124424)
(0 0 0.00123388)
(0 0 0.00122338)
(0 0 0.00121272)
(0 0 0.00120191)
(0 0 0.00119096)
(0 0 0.00117987)
(0 0 0.00116864)
(0 0 0.00115728)
(0 0 0.00114578)
(0 0 0.00113415)
(0 0 0.00112239)
(0 0 0.00111051)
(0 0 0.0010985)
(0 0 0.00108638)
(0 0 0.00107414)
(0 0 0.00106178)
(0 0 0.00104931)
(0 0 0.00103674)
(0 0 0.00102405)
(0 0 0.00101127)
(0 0 0.000998378)
(0 0 0.000985391)
(0 0 0.000972308)
(0 0 0.00095913)
(0 0 0.000945862)
(0 0 0.000932503)
(0 0 0.000919059)
(0 0 0.000905529)
(0 0 0.000891918)
(0 0 0.000878226)
(0 0 0.000864457)
(0 0 0.000850613)
(0 0 0.000836695)
(0 0 0.000822705)
(0 0 0.000808647)
(0 0 0.000794522)
(0 0 0.000780332)
(0 0 0.000766079)
(0 0 0.000751765)
(0 0 0.000737392)
(0 0 0.000722961)
(0 0 0.000708476)
(0 0 0.000693937)
(0 0 0.000679346)
(0 0 0.000664706)
(0 0 0.000650017)
(0 0 0.000635282)
(0 0 0.000620502)
(0 0 0.000605679)
(0 0 0.000590814)
(0 0 0.00057591)
(0 0 0.000560966)
(0 0 0.000545986)
(0 0 0.000530971)
(0 0 0.000515921)
(0 0 0.000500838)
(0 0 0.000485724)
(0 0 0.00047058)
(0 0 0.000455408)
(0 0 0.000440208)
(0 0 0.000424981)
(0 0 0.00040973)
(0 0 0.000394454)
(0 0 0.000379157)
(0 0 0.000363837)
(0 0 0.000348497)
(0 0 0.000333138)
(0 0 0.00031776)
(0 0 0.000302365)
(0 0 0.000286953)
(0 0 0.000271526)
(0 0 0.000256085)
(0 0 0.00024063)
(0 0 0.000225163)
(0 0 0.000209684)
(0 0 0.000194194)
(0 0 0.000178694)
(0 0 0.000163186)
(0 0 0.000147669)
(0 0 0.000132144)
(0 0 0.000116613)
(0 0 0.000101076)
(0 0 8.55347e-05)
(0 0 6.99887e-05)
(0 0 5.44392e-05)
(0 0 3.8887e-05)
(0 0 2.3333e-05)
(0 0 7.77778e-06)
(0 0 2.65814e-05)
(0 0 7.97426e-05)
(0 0 0.000132899)
(0 0 0.000186049)
(0 0 0.000239187)
(0 0 0.000292313)
(0 0 0.000345421)
(0 0 0.00039851)
(0 0 0.000451576)
(0 0 0.000504616)
(0 0 0.000557626)
(0 0 0.000610604)
(0 0 0.000663545)
(0 0 0.000716446)
(0 0 0.000769303)
(0 0 0.000822113)
(0 0 0.000874871)
(0 0 0.000927574)
(0 0 0.000980217)
(0 0 0.0010328)
(0 0 0.00108531)
(0 0 0.00113774)
(0 0 0.0011901)
(0 0 0.00124238)
(0 0 0.00129457)
(0 0 0.00134666)
(0 0 0.00139866)
(0 0 0.00145055)
(0 0 0.00150233)
(0 0 0.00155399)
(0 0 0.00160554)
(0 0 0.00165695)
(0 0 0.00170822)
(0 0 0.00175935)
(0 0 0.00181034)
(0 0 0.00186116)
(0 0 0.00191182)
(0 0 0.0019623)
(0 0 0.00201261)
(0 0 0.00206272)
(0 0 0.00211264)
(0 0 0.00216235)
(0 0 0.00221184)
(0 0 0.00226111)
(0 0 0.00231015)
(0 0 0.00235894)
(0 0 0.00240747)
(0 0 0.00245575)
(0 0 0.00250374)
(0 0 0.00255146)
(0 0 0.00259888)
(0 0 0.00264599)
(0 0 0.00269279)
(0 0 0.00273925)
(0 0 0.00278538)
(0 0 0.00283116)
(0 0 0.00287657)
(0 0 0.00292161)
(0 0 0.00296626)
(0 0 0.00301051)
(0 0 0.00305436)
(0 0 0.00309777)
(0 0 0.00314076)
(0 0 0.00318329)
(0 0 0.00322537)
(0 0 0.00326697)
(0 0 0.00330808)
(0 0 0.0033487)
(0 0 0.0033888)
(0 0 0.00342839)
(0 0 0.00346743)
(0 0 0.00350593)
(0 0 0.00354386)
(0 0 0.00358123)
(0 0 0.003618)
(0 0 0.00365418)
(0 0 0.00368975)
(0 0 0.00372469)
(0 0 0.003759)
(0 0 0.00379267)
(0 0 0.00382568)
(0 0 0.00385802)
(0 0 0.00388968)
(0 0 0.00392065)
(0 0 0.00395092)
(0 0 0.00398048)
(0 0 0.00400932)
(0 0 0.00403743)
(0 0 0.0040648)
(0 0 0.00409142)
(0 0 0.00411728)
(0 0 0.00414237)
(0 0 0.00416669)
(0 0 0.00419023)
(0 0 0.00421298)
(0 0 0.00423494)
(0 0 0.00425609)
(0 0 0.00427643)
(0 0 0.00429596)
(0 0 0.00431467)
(0 0 0.00433256)
(0 0 0.00434961)
(0 0 0.00436583)
(0 0 0.00438122)
(0 0 0.00439576)
(0 0 0.00440946)
(0 0 0.00442232)
(0 0 0.00443433)
(0 0 0.00444549)
(0 0 0.0044558)
(0 0 0.00446526)
(0 0 0.00447386)
(0 0 0.00448162)
(0 0 0.00448853)
(0 0 0.00449459)
(0 0 0.0044998)
(0 0 0.00450416)
(0 0 0.00450768)
(0 0 0.00451036)
(0 0 0.0045122)
(0 0 0.0045132)
(0 0 0.00451338)
(0 0 0.00451272)
(0 0 0.00451124)
(0 0 0.00450894)
(0 0 0.00450583)
(0 0 0.0045019)
(0 0 0.00449717)
(0 0 0.00449165)
(0 0 0.00448533)
(0 0 0.00447822)
(0 0 0.00447033)
(0 0 0.00446167)
(0 0 0.00445225)
(0 0 0.00444206)
(0 0 0.00443112)
(0 0 0.00441944)
(0 0 0.00440701)
(0 0 0.00439386)
(0 0 0.00437998)
(0 0 0.0043654)
(0 0 0.0043501)
(0 0 0.00433411)
(0 0 0.00431742)
(0 0 0.00430006)
(0 0 0.00428202)
(0 0 0.00426332)
(0 0 0.00424396)
(0 0 0.00422396)
(0 0 0.00420332)
(0 0 0.00418205)
(0 0 0.00416016)
(0 0 0.00413766)
(0 0 0.00411455)
(0 0 0.00409086)
(0 0 0.00406657)
(0 0 0.00404172)
(0 0 0.00401629)
(0 0 0.00399031)
(0 0 0.00396378)
(0 0 0.00393671)
(0 0 0.00390911)
(0 0 0.00388099)
(0 0 0.00385235)
(0 0 0.00382322)
(0 0 0.00379358)
(0 0 0.00376346)
(0 0 0.00373287)
(0 0 0.0037018)
(0 0 0.00367028)
(0 0 0.0036383)
(0 0 0.00360588)
(0 0 0.00357303)
(0 0 0.00353976)
(0 0 0.00350606)
(0 0 0.00347196)
(0 0 0.00343746)
(0 0 0.00340257)
(0 0 0.00336729)
(0 0 0.00333164)
(0 0 0.00329562)
(0 0 0.00325925)
(0 0 0.00322252)
(0 0 0.00318545)
(0 0 0.00314805)
(0 0 0.00311032)
(0 0 0.00307226)
(0 0 0.0030339)
(0 0 0.00299523)
(0 0 0.00295627)
(0 0 0.00291702)
(0 0 0.00287748)
(0 0 0.00283768)
(0 0 0.0027976)
(0 0 0.00275726)
(0 0 0.00271667)
(0 0 0.00267583)
(0 0 0.00263476)
(0 0 0.00259345)
(0 0 0.00255191)
(0 0 0.00251016)
(0 0 0.00246819)
(0 0 0.00242601)
(0 0 0.00238363)
(0 0 0.00234106)
(0 0 0.0022983)
(0 0 0.00225536)
(0 0 0.00221223)
(0 0 0.00216894)
(0 0 0.00212548)
(0 0 0.00208186)
(0 0 0.00203809)
(0 0 0.00199417)
(0 0 0.0019501)
(0 0 0.00190589)
(0 0 0.00186155)
(0 0 0.00181708)
(0 0 0.00177248)
(0 0 0.00172777)
(0 0 0.00168294)
(0 0 0.001638)
(0 0 0.00159295)
(0 0 0.0015478)
(0 0 0.00150255)
(0 0 0.0014572)
(0 0 0.00141177)
(0 0 0.00136625)
(0 0 0.00132065)
(0 0 0.00127497)
(0 0 0.00122921)
(0 0 0.00118339)
(0 0 0.00113749)
(0 0 0.00109153)
(0 0 0.00104551)
(0 0 0.000999432)
(0 0 0.000953298)
(0 0 0.000907111)
(0 0 0.000860876)
(0 0 0.000814594)
(0 0 0.000768269)
(0 0 0.000721904)
(0 0 0.000675501)
(0 0 0.000629063)
(0 0 0.000582593)
(0 0 0.000536093)
(0 0 0.000489566)
(0 0 0.000443014)
(0 0 0.00039644)
(0 0 0.000349846)
(0 0 0.000303235)
(0 0 0.000256609)
(0 0 0.00020997)
(0 0 0.00016332)
(0 0 0.000116663)
(0 0 7.00001e-05)
(0 0 2.33337e-05)
(0 0 4.43039e-05)
(0 0 0.000132909)
(0 0 0.000221507)
(0 0 0.000310093)
(0 0 0.000398661)
(0 0 0.000487206)
(0 0 0.000575724)
(0 0 0.000664209)
(0 0 0.000752656)
(0 0 0.000841059)
(0 0 0.000929414)
(0 0 0.00101771)
(0 0 0.00110595)
(0 0 0.00119412)
(0 0 0.00128222)
(0 0 0.00137024)
(0 0 0.00145818)
(0 0 0.00154602)
(0 0 0.00163377)
(0 0 0.0017214)
(0 0 0.00180892)
(0 0 0.00189633)
(0 0 0.0019836)
(0 0 0.00207073)
(0 0 0.00215772)
(0 0 0.00224455)
(0 0 0.00233121)
(0 0 0.0024177)
(0 0 0.00250401)
(0 0 0.00259013)
(0 0 0.00267604)
(0 0 0.00276173)
(0 0 0.00284719)
(0 0 0.00293242)
(0 0 0.0030174)
(0 0 0.00310212)
(0 0 0.00318656)
(0 0 0.00327071)
(0 0 0.00335456)
(0 0 0.00343809)
(0 0 0.00352129)
(0 0 0.00360415)
(0 0 0.00368665)
(0 0 0.00376878)
(0 0 0.00385051)
(0 0 0.00393184)
(0 0 0.00401275)
(0 0 0.00409321)
(0 0 0.00417322)
(0 0 0.00425276)
(0 0 0.0043318)
(0 0 0.00441034)
(0 0 0.00448834)
(0 0 0.0045658)
(0 0 0.00464269)
(0 0 0.004719)
(0 0 0.0047947)
(0 0 0.00486978)
(0 0 0.00494421)
(0 0 0.00501798)
(0 0 0.00509106)
(0 0 0.00516344)
(0 0 0.00523509)
(0 0 0.005306)
(0 0 0.00537614)
(0 0 0.00544548)
(0 0 0.00551402)
(0 0 0.00558173)
(0 0 0.00564859)
(0 0 0.00571457)
(0 0 0.00577966)
(0 0 0.00584384)
(0 0 0.00590708)
(0 0 0.00596936)
(0 0 0.00603067)
(0 0 0.00609098)
(0 0 0.00615027)
(0 0 0.00620852)
(0 0 0.00626572)
(0 0 0.00632184)
(0 0 0.00637687)
(0 0 0.00643078)
(0 0 0.00648356)
(0 0 0.00653519)
(0 0 0.00658566)
(0 0 0.00663493)
(0 0 0.00668301)
(0 0 0.00672987)
(0 0 0.00677549)
(0 0 0.00681987)
(0 0 0.00686298)
(0 0 0.00690481)
(0 0 0.00694536)
(0 0 0.0069846)
(0 0 0.00702252)
(0 0 0.00705912)
(0 0 0.00709438)
(0 0 0.00712829)
(0 0 0.00716085)
(0 0 0.00719203)
(0 0 0.00722185)
(0 0 0.00725027)
(0 0 0.00727731)
(0 0 0.00730296)
(0 0 0.0073272)
(0 0 0.00735004)
(0 0 0.00737147)
(0 0 0.00739149)
(0 0 0.00741009)
(0 0 0.00742727)
(0 0 0.00744304)
(0 0 0.00745738)
(0 0 0.00747031)
(0 0 0.00748182)
(0 0 0.00749192)
(0 0 0.0075006)
(0 0 0.00750787)
(0 0 0.00751374)
(0 0 0.0075182)
(0 0 0.00752126)
(0 0 0.00752293)
(0 0 0.00752321)
(0 0 0.00752211)
(0 0 0.00751964)
(0 0 0.0075158)
(0 0 0.00751061)
(0 0 0.00750406)
(0 0 0.00749618)
(0 0 0.00748696)
(0 0 0.00747642)
(0 0 0.00746457)
(0 0 0.00745142)
(0 0 0.00743697)
(0 0 0.00742125)
(0 0 0.00740427)
(0 0 0.00738603)
(0 0 0.00736654)
(0 0 0.00734583)
(0 0 0.0073239)
(0 0 0.00730077)
(0 0 0.00727644)
(0 0 0.00725094)
(0 0 0.00722428)
(0 0 0.00719646)
(0 0 0.00716751)
(0 0 0.00713744)
(0 0 0.00710626)
(0 0 0.00707399)
(0 0 0.00704064)
(0 0 0.00700623)
(0 0 0.00697077)
(0 0 0.00693428)
(0 0 0.00689677)
(0 0 0.00685825)
(0 0 0.00681874)
(0 0 0.00677826)
(0 0 0.00673682)
(0 0 0.00669444)
(0 0 0.00665113)
(0 0 0.0066069)
(0 0 0.00656177)
(0 0 0.00651576)
(0 0 0.00646888)
(0 0 0.00642115)
(0 0 0.00637258)
(0 0 0.00632318)
(0 0 0.00627297)
(0 0 0.00622197)
(0 0 0.00617018)
(0 0 0.00611763)
(0 0 0.00606433)
(0 0 0.00601029)
(0 0 0.00595553)
(0 0 0.00590006)
(0 0 0.00584389)
(0 0 0.00578705)
(0 0 0.00572954)
(0 0 0.00567137)
(0 0 0.00561257)
(0 0 0.00555314)
(0 0 0.00549311)
(0 0 0.00543247)
(0 0 0.00537125)
(0 0 0.00530946)
(0 0 0.00524711)
(0 0 0.00518421)
(0 0 0.00512079)
(0 0 0.00505684)
(0 0 0.00499239)
(0 0 0.00492744)
(0 0 0.00486201)
(0 0 0.00479611)
(0 0 0.00472976)
(0 0 0.00466295)
(0 0 0.00459572)
(0 0 0.00452806)
(0 0 0.00445999)
(0 0 0.00439152)
(0 0 0.00432267)
(0 0 0.00425343)
(0 0 0.00418383)
(0 0 0.00411388)
(0 0 0.00404358)
(0 0 0.00397294)
(0 0 0.00390198)
(0 0 0.0038307)
(0 0 0.00375912)
(0 0 0.00368725)
(0 0 0.00361509)
(0 0 0.00354265)
(0 0 0.00346995)
(0 0 0.00339698)
(0 0 0.00332377)
(0 0 0.00325032)
(0 0 0.00317664)
(0 0 0.00310273)
(0 0 0.00302861)
(0 0 0.00295427)
(0 0 0.00287974)
(0 0 0.00280502)
(0 0 0.00273011)
(0 0 0.00265503)
(0 0 0.00257977)
(0 0 0.00250435)
(0 0 0.00242877)
(0 0 0.00235305)
(0 0 0.00227718)
(0 0 0.00220117)
(0 0 0.00212503)
(0 0 0.00204877)
(0 0 0.00197239)
(0 0 0.00189589)
(0 0 0.00181929)
(0 0 0.00174258)
(0 0 0.00166578)
(0 0 0.00158889)
(0 0 0.00151191)
(0 0 0.00143484)
(0 0 0.0013577)
(0 0 0.00128049)
(0 0 0.00120322)
(0 0 0.00112587)
(0 0 0.00104847)
(0 0 0.000971021)
(0 0 0.000893519)
(0 0 0.000815971)
(0 0 0.000738381)
(0 0 0.000660755)
(0 0 0.000583096)
(0 0 0.000505408)
(0 0 0.000427695)
(0 0 0.000349961)
(0 0 0.00027221)
(0 0 0.000194445)
(0 0 0.000116671)
(0 0 3.88908e-05)
(0 0 6.2029e-05)
(0 0 0.000186083)
(0 0 0.000310127)
(0 0 0.000434154)
(0 0 0.000558156)
(0 0 0.000682127)
(0 0 0.00080606)
(0 0 0.000929946)
(0 0 0.00105378)
(0 0 0.00117755)
(0 0 0.00130126)
(0 0 0.00142488)
(0 0 0.00154843)
(0 0 0.00167188)
(0 0 0.00179522)
(0 0 0.00191846)
(0 0 0.00204158)
(0 0 0.00216457)
(0 0 0.00228742)
(0 0 0.00241012)
(0 0 0.00253267)
(0 0 0.00265504)
(0 0 0.00277723)
(0 0 0.00289923)
(0 0 0.00302102)
(0 0 0.0031426)
(0 0 0.00326394)
(0 0 0.00338505)
(0 0 0.00350589)
(0 0 0.00362646)
(0 0 0.00374675)
(0 0 0.00386674)
(0 0 0.00398641)
(0 0 0.00410574)
(0 0 0.00422473)
(0 0 0.00434335)
(0 0 0.00446158)
(0 0 0.00457941)
(0 0 0.00469682)
(0 0 0.00481379)
(0 0 0.00493029)
(0 0 0.00504632)
(0 0 0.00516184)
(0 0 0.00527684)
(0 0 0.00539129)
(0 0 0.00550517)
(0 0 0.00561846)
(0 0 0.00573114)
(0 0 0.00584318)
(0 0 0.00595455)
(0 0 0.00606524)
(0 0 0.00617521)
(0 0 0.00628444)
(0 0 0.00639291)
(0 0 0.00650059)
(0 0 0.00660745)
(0 0 0.00671346)
(0 0 0.00681859)
(0 0 0.00692283)
(0 0 0.00702613)
(0 0 0.00712848)
(0 0 0.00722984)
(0 0 0.00733018)
(0 0 0.00742947)
(0 0 0.0075277)
(0 0 0.00762481)
(0 0 0.0077208)
(0 0 0.00781562)
(0 0 0.00790925)
(0 0 0.00800165)
(0 0 0.00809281)
(0 0 0.00818268)
(0 0 0.00827125)
(0 0 0.00835847)
(0 0 0.00844433)
(0 0 0.00852879)
(0 0 0.00861183)
(0 0 0.00869341)
(0 0 0.00877352)
(0 0 0.00885212)
(0 0 0.00892918)
(0 0 0.00900468)
(0 0 0.0090786)
(0 0 0.00915091)
(0 0 0.00922158)
(0 0 0.00929059)
(0 0 0.00935792)
(0 0 0.00942354)
(0 0 0.00948744)
(0 0 0.00954958)
(0 0 0.00960996)
(0 0 0.00966855)
(0 0 0.00972533)
(0 0 0.00978028)
(0 0 0.00983339)
(0 0 0.00988465)
(0 0 0.00993402)
(0 0 0.00998151)
(0 0 0.0100271)
(0 0 0.0100708)
(0 0 0.0101125)
(0 0 0.0101523)
(0 0 0.0101902)
(0 0 0.0102261)
(0 0 0.0102601)
(0 0 0.010292)
(0 0 0.010322)
(0 0 0.0103501)
(0 0 0.0103761)
(0 0 0.0104002)
(0 0 0.0104222)
(0 0 0.0104423)
(0 0 0.0104604)
(0 0 0.0104765)
(0 0 0.0104907)
(0 0 0.0105028)
(0 0 0.010513)
(0 0 0.0105212)
(0 0 0.0105274)
(0 0 0.0105317)
(0 0 0.010534)
(0 0 0.0105344)
(0 0 0.0105329)
(0 0 0.0105294)
(0 0 0.010524)
(0 0 0.0105167)
(0 0 0.0105076)
(0 0 0.0104965)
(0 0 0.0104836)
(0 0 0.0104688)
(0 0 0.0104522)
(0 0 0.0104338)
(0 0 0.0104136)
(0 0 0.0103915)
(0 0 0.0103677)
(0 0 0.0103422)
(0 0 0.0103149)
(0 0 0.0102859)
(0 0 0.0102551)
(0 0 0.0102227)
(0 0 0.0101887)
(0 0 0.0101529)
(0 0 0.0101156)
(0 0 0.0100766)
(0 0 0.0100361)
(0 0 0.00999397)
(0 0 0.0099503)
(0 0 0.0099051)
(0 0 0.00985839)
(0 0 0.00981019)
(0 0 0.00976053)
(0 0 0.00970942)
(0 0 0.00965688)
(0 0 0.00960293)
(0 0 0.0095476)
(0 0 0.00949091)
(0 0 0.00943287)
(0 0 0.00937352)
(0 0 0.00931286)
(0 0 0.00925092)
(0 0 0.00918772)
(0 0 0.00912329)
(0 0 0.00905763)
(0 0 0.00899079)
(0 0 0.00892276)
(0 0 0.00885358)
(0 0 0.00878327)
(0 0 0.00871185)
(0 0 0.00863933)
(0 0 0.00856574)
(0 0 0.00849109)
(0 0 0.00841542)
(0 0 0.00833873)
(0 0 0.00826105)
(0 0 0.0081824)
(0 0 0.0081028)
(0 0 0.00802226)
(0 0 0.00794082)
(0 0 0.00785847)
(0 0 0.00777526)
(0 0 0.00769119)
(0 0 0.00760628)
(0 0 0.00752055)
(0 0 0.00743402)
(0 0 0.00734671)
(0 0 0.00725864)
(0 0 0.00716983)
(0 0 0.00708029)
(0 0 0.00699004)
(0 0 0.00689909)
(0 0 0.00680747)
(0 0 0.0067152)
(0 0 0.00662228)
(0 0 0.00652874)
(0 0 0.0064346)
(0 0 0.00633986)
(0 0 0.00624455)
(0 0 0.00614868)
(0 0 0.00605226)
(0 0 0.00595532)
(0 0 0.00585786)
(0 0 0.00575991)
(0 0 0.00566147)
(0 0 0.00556257)
(0 0 0.00546321)
(0 0 0.00536341)
(0 0 0.00526318)
(0 0 0.00516255)
(0 0 0.00506151)
(0 0 0.00496008)
(0 0 0.00485828)
(0 0 0.00475613)
(0 0 0.00465362)
(0 0 0.00455077)
(0 0 0.0044476)
(0 0 0.00434412)
(0 0 0.00424034)
(0 0 0.00413626)
(0 0 0.00403191)
(0 0 0.00392729)
(0 0 0.00382241)
(0 0 0.00371728)
(0 0 0.00361191)
(0 0 0.00350631)
(0 0 0.00340049)
(0 0 0.00329447)
(0 0 0.00318824)
(0 0 0.00308182)
(0 0 0.00297522)
(0 0 0.00286845)
(0 0 0.0027615)
(0 0 0.0026544)
(0 0 0.00254715)
(0 0 0.00243975)
(0 0 0.00233222)
(0 0 0.00222456)
(0 0 0.00211678)
(0 0 0.00200889)
(0 0 0.00190089)
(0 0 0.00179279)
(0 0 0.00168459)
(0 0 0.00157631)
(0 0 0.00146794)
(0 0 0.0013595)
(0 0 0.00125099)
(0 0 0.00114242)
(0 0 0.00103379)
(0 0 0.000925103)
(0 0 0.000816375)
(0 0 0.000707606)
(0 0 0.000598803)
(0 0 0.000489969)
(0 0 0.000381112)
(0 0 0.000272236)
(0 0 0.000163347)
(0 0 5.44498e-05)
(0 0 7.97575e-05)
(0 0 0.000239268)
(0 0 0.000398765)
(0 0 0.00055824)
(0 0 0.000717684)
(0 0 0.000877087)
(0 0 0.00103644)
(0 0 0.00119574)
(0 0 0.00135496)
(0 0 0.00151411)
(0 0 0.00167318)
(0 0 0.00183214)
(0 0 0.00199099)
(0 0 0.00214973)
(0 0 0.00230834)
(0 0 0.0024668)
(0 0 0.00262511)
(0 0 0.00278326)
(0 0 0.00294123)
(0 0 0.003099)
(0 0 0.00325658)
(0 0 0.00341393)
(0 0 0.00357106)
(0 0 0.00372793)
(0 0 0.00388454)
(0 0 0.00404088)
(0 0 0.00419692)
(0 0 0.00435264)
(0 0 0.00450804)
(0 0 0.00466309)
(0 0 0.00481777)
(0 0 0.00497207)
(0 0 0.00512595)
(0 0 0.00527942)
(0 0 0.00543243)
(0 0 0.00558497)
(0 0 0.00573701)
(0 0 0.00588854)
(0 0 0.00603953)
(0 0 0.00618995)
(0 0 0.00633978)
(0 0 0.00648899)
(0 0 0.00663755)
(0 0 0.00678544)
(0 0 0.00693263)
(0 0 0.00707909)
(0 0 0.0072248)
(0 0 0.00736971)
(0 0 0.0075138)
(0 0 0.00765704)
(0 0 0.00779939)
(0 0 0.00794083)
(0 0 0.00808132)
(0 0 0.00822082)
(0 0 0.00835931)
(0 0 0.00849674)
(0 0 0.00863309)
(0 0 0.00876831)
(0 0 0.00890238)
(0 0 0.00903524)
(0 0 0.00916688)
(0 0 0.00929725)
(0 0 0.00942631)
(0 0 0.00955403)
(0 0 0.00968036)
(0 0 0.00980528)
(0 0 0.00992874)
(0 0 0.0100507)
(0 0 0.0101711)
(0 0 0.01029)
(0 0 0.0104072)
(0 0 0.0105228)
(0 0 0.0106368)
(0 0 0.010749)
(0 0 0.0108594)
(0 0 0.010968)
(0 0 0.0110748)
(0 0 0.0111798)
(0 0 0.0112828)
(0 0 0.0113839)
(0 0 0.0114831)
(0 0 0.0115802)
(0 0 0.0116753)
(0 0 0.0117683)
(0 0 0.0118592)
(0 0 0.0119479)
(0 0 0.0120345)
(0 0 0.0121189)
(0 0 0.0122011)
(0 0 0.0122811)
(0 0 0.0123587)
(0 0 0.0124341)
(0 0 0.0125071)
(0 0 0.0125778)
(0 0 0.0126461)
(0 0 0.012712)
(0 0 0.0127756)
(0 0 0.0128366)
(0 0 0.0128953)
(0 0 0.0129514)
(0 0 0.0130051)
(0 0 0.0130563)
(0 0 0.013105)
(0 0 0.0131512)
(0 0 0.0131949)
(0 0 0.013236)
(0 0 0.0132746)
(0 0 0.0133106)
(0 0 0.0133441)
(0 0 0.013375)
(0 0 0.0134034)
(0 0 0.0134293)
(0 0 0.0134525)
(0 0 0.0134732)
(0 0 0.0134914)
(0 0 0.013507)
(0 0 0.0135201)
(0 0 0.0135306)
(0 0 0.0135386)
(0 0 0.0135441)
(0 0 0.0135471)
(0 0 0.0135476)
(0 0 0.0135456)
(0 0 0.0135411)
(0 0 0.0135342)
(0 0 0.0135248)
(0 0 0.0135129)
(0 0 0.0134987)
(0 0 0.0134821)
(0 0 0.0134631)
(0 0 0.0134417)
(0 0 0.013418)
(0 0 0.0133919)
(0 0 0.0133636)
(0 0 0.013333)
(0 0 0.0133001)
(0 0 0.0132649)
(0 0 0.0132276)
(0 0 0.0131881)
(0 0 0.0131464)
(0 0 0.0131025)
(0 0 0.0130566)
(0 0 0.0130085)
(0 0 0.0129584)
(0 0 0.0129062)
(0 0 0.012852)
(0 0 0.0127959)
(0 0 0.0127377)
(0 0 0.0126776)
(0 0 0.0126156)
(0 0 0.0125517)
(0 0 0.012486)
(0 0 0.0124184)
(0 0 0.012349)
(0 0 0.0122778)
(0 0 0.0122049)
(0 0 0.0121302)
(0 0 0.0120539)
(0 0 0.0119759)
(0 0 0.0118962)
(0 0 0.0118149)
(0 0 0.011732)
(0 0 0.0116476)
(0 0 0.0115616)
(0 0 0.0114741)
(0 0 0.0113851)
(0 0 0.0112947)
(0 0 0.0112028)
(0 0 0.0111095)
(0 0 0.0110149)
(0 0 0.0109189)
(0 0 0.0108216)
(0 0 0.0107229)
(0 0 0.010623)
(0 0 0.0105219)
(0 0 0.0104195)
(0 0 0.0103159)
(0 0 0.0102112)
(0 0 0.0101053)
(0 0 0.00999823)
(0 0 0.0098901)
(0 0 0.0097809)
(0 0 0.00967065)
(0 0 0.00955937)
(0 0 0.00944708)
(0 0 0.00933382)
(0 0 0.0092196)
(0 0 0.00910444)
(0 0 0.00898837)
(0 0 0.00887142)
(0 0 0.00875359)
(0 0 0.00863493)
(0 0 0.00851543)
(0 0 0.00839514)
(0 0 0.00827407)
(0 0 0.00815223)
(0 0 0.00802966)
(0 0 0.00790637)
(0 0 0.00778238)
(0 0 0.00765772)
(0 0 0.00753239)
(0 0 0.00740643)
(0 0 0.00727984)
(0 0 0.00715265)
(0 0 0.00702488)
(0 0 0.00689654)
(0 0 0.00676766)
(0 0 0.00663824)
(0 0 0.00650832)
(0 0 0.00637789)
(0 0 0.00624698)
(0 0 0.00611562)
(0 0 0.0059838)
(0 0 0.00585155)
(0 0 0.00571888)
(0 0 0.00558582)
(0 0 0.00545236)
(0 0 0.00531853)
(0 0 0.00518434)
(0 0 0.00504981)
(0 0 0.00491495)
(0 0 0.00477976)
(0 0 0.00464427)
(0 0 0.00450849)
(0 0 0.00437242)
(0 0 0.00423609)
(0 0 0.0040995)
(0 0 0.00396266)
(0 0 0.00382558)
(0 0 0.00368829)
(0 0 0.00355077)
(0 0 0.00341306)
(0 0 0.00327515)
(0 0 0.00313706)
(0 0 0.00299879)
(0 0 0.00286036)
(0 0 0.00272177)
(0 0 0.00258304)
(0 0 0.00244417)
(0 0 0.00230517)
(0 0 0.00216605)
(0 0 0.00202682)
(0 0 0.00188748)
(0 0 0.00174805)
(0 0 0.00160852)
(0 0 0.00146892)
(0 0 0.00132924)
(0 0 0.0011895)
(0 0 0.00104969)
(0 0 0.000909839)
(0 0 0.000769939)
(0 0 0.000630002)
(0 0 0.000490033)
(0 0 0.000350041)
(0 0 0.000210031)
(0 0 7.00115e-05)
(0 0 9.74904e-05)
(0 0 0.000292466)
(0 0 0.000487425)
(0 0 0.000682357)
(0 0 0.000877252)
(0 0 0.0010721)
(0 0 0.00126688)
(0 0 0.0014616)
(0 0 0.00165623)
(0 0 0.00185076)
(0 0 0.00204519)
(0 0 0.0022395)
(0 0 0.00243368)
(0 0 0.00262772)
(0 0 0.00282159)
(0 0 0.00301529)
(0 0 0.00320881)
(0 0 0.00340212)
(0 0 0.00359522)
(0 0 0.00378809)
(0 0 0.00398071)
(0 0 0.00417306)
(0 0 0.00436513)
(0 0 0.0045569)
(0 0 0.00474835)
(0 0 0.00493946)
(0 0 0.0051302)
(0 0 0.00532057)
(0 0 0.00551054)
(0 0 0.00570008)
(0 0 0.00588918)
(0 0 0.0060778)
(0 0 0.00626593)
(0 0 0.00645354)
(0 0 0.0066406)
(0 0 0.00682708)
(0 0 0.00701296)
(0 0 0.00719821)
(0 0 0.0073828)
(0 0 0.0075667)
(0 0 0.00774988)
(0 0 0.0079323)
(0 0 0.00811394)
(0 0 0.00829475)
(0 0 0.00847471)
(0 0 0.00865378)
(0 0 0.00883192)
(0 0 0.00900909)
(0 0 0.00918527)
(0 0 0.0093604)
(0 0 0.00953446)
(0 0 0.0097074)
(0 0 0.00987917)
(0 0 0.0100497)
(0 0 0.0102191)
(0 0 0.0103871)
(0 0 0.0105538)
(0 0 0.0107192)
(0 0 0.0108831)
(0 0 0.0110456)
(0 0 0.0112066)
(0 0 0.011366)
(0 0 0.0115238)
(0 0 0.01168)
(0 0 0.0118344)
(0 0 0.0119872)
(0 0 0.0121382)
(0 0 0.0122873)
(0 0 0.0124346)
(0 0 0.0125799)
(0 0 0.0127233)
(0 0 0.0128647)
(0 0 0.013004)
(0 0 0.0131412)
(0 0 0.0132763)
(0 0 0.0134091)
(0 0 0.0135397)
(0 0 0.0136681)
(0 0 0.0137941)
(0 0 0.0139177)
(0 0 0.0140389)
(0 0 0.0141577)
(0 0 0.014274)
(0 0 0.0143877)
(0 0 0.0144989)
(0 0 0.0146074)
(0 0 0.0147134)
(0 0 0.0148166)
(0 0 0.0149171)
(0 0 0.0150148)
(0 0 0.0151098)
(0 0 0.015202)
(0 0 0.0152913)
(0 0 0.0153777)
(0 0 0.0154612)
(0 0 0.0155419)
(0 0 0.0156195)
(0 0 0.0156942)
(0 0 0.0157659)
(0 0 0.0158346)
(0 0 0.0159002)
(0 0 0.0159628)
(0 0 0.0160224)
(0 0 0.0160788)
(0 0 0.0161322)
(0 0 0.0161825)
(0 0 0.0162297)
(0 0 0.0162737)
(0 0 0.0163147)
(0 0 0.0163525)
(0 0 0.0163872)
(0 0 0.0164187)
(0 0 0.0164472)
(0 0 0.0164725)
(0 0 0.0164947)
(0 0 0.0165137)
(0 0 0.0165297)
(0 0 0.0165426)
(0 0 0.0165524)
(0 0 0.016559)
(0 0 0.0165627)
(0 0 0.0165632)
(0 0 0.0165608)
(0 0 0.0165552)
(0 0 0.0165467)
(0 0 0.0165352)
(0 0 0.0165207)
(0 0 0.0165033)
(0 0 0.0164829)
(0 0 0.0164597)
(0 0 0.0164335)
(0 0 0.0164045)
(0 0 0.0163726)
(0 0 0.0163379)
(0 0 0.0163004)
(0 0 0.0162602)
(0 0 0.0162172)
(0 0 0.0161715)
(0 0 0.0161232)
(0 0 0.0160722)
(0 0 0.0160185)
(0 0 0.0159623)
(0 0 0.0159035)
(0 0 0.0158422)
(0 0 0.0157784)
(0 0 0.0157121)
(0 0 0.0156434)
(0 0 0.0155723)
(0 0 0.0154988)
(0 0 0.0154229)
(0 0 0.0153448)
(0 0 0.0152644)
(0 0 0.0151817)
(0 0 0.0150969)
(0 0 0.0150098)
(0 0 0.0149206)
(0 0 0.0148293)
(0 0 0.0147359)
(0 0 0.0146405)
(0 0 0.0145431)
(0 0 0.0144437)
(0 0 0.0143423)
(0 0 0.0142391)
(0 0 0.0141339)
(0 0 0.0140269)
(0 0 0.0139181)
(0 0 0.0138075)
(0 0 0.0136952)
(0 0 0.0135811)
(0 0 0.0134654)
(0 0 0.013348)
(0 0 0.013229)
(0 0 0.0131084)
(0 0 0.0129862)
(0 0 0.0128626)
(0 0 0.0127374)
(0 0 0.0126107)
(0 0 0.0124826)
(0 0 0.0123532)
(0 0 0.0122223)
(0 0 0.0120901)
(0 0 0.0119566)
(0 0 0.0118218)
(0 0 0.0116857)
(0 0 0.0115484)
(0 0 0.01141)
(0 0 0.0112703)
(0 0 0.0111295)
(0 0 0.0109876)
(0 0 0.0108446)
(0 0 0.0107006)
(0 0 0.0105555)
(0 0 0.0104094)
(0 0 0.0102623)
(0 0 0.0101143)
(0 0 0.00996535)
(0 0 0.0098155)
(0 0 0.00966477)
(0 0 0.00951318)
(0 0 0.00936077)
(0 0 0.00920756)
(0 0 0.00905356)
(0 0 0.00889881)
(0 0 0.00874332)
(0 0 0.00858712)
(0 0 0.00843023)
(0 0 0.00827266)
(0 0 0.00811445)
(0 0 0.00795562)
(0 0 0.00779618)
(0 0 0.00763615)
(0 0 0.00747555)
(0 0 0.00731441)
(0 0 0.00715274)
(0 0 0.00699057)
(0 0 0.0068279)
(0 0 0.00666476)
(0 0 0.00650116)
(0 0 0.00633712)
(0 0 0.00617267)
(0 0 0.00600781)
(0 0 0.00584256)
(0 0 0.00567693)
(0 0 0.00551095)
(0 0 0.00534462)
(0 0 0.00517797)
(0 0 0.005011)
(0 0 0.00484373)
(0 0 0.00467617)
(0 0 0.00450834)
(0 0 0.00434025)
(0 0 0.00417191)
(0 0 0.00400334)
(0 0 0.00383454)
(0 0 0.00366552)
(0 0 0.00349631)
(0 0 0.00332691)
(0 0 0.00315733)
(0 0 0.00298758)
(0 0 0.00281768)
(0 0 0.00264762)
(0 0 0.00247743)
(0 0 0.00230712)
(0 0 0.00213668)
(0 0 0.00196614)
(0 0 0.0017955)
(0 0 0.00162476)
(0 0 0.00145395)
(0 0 0.00128307)
(0 0 0.00111212)
(0 0 0.000941114)
(0 0 0.000770065)
(0 0 0.000598978)
(0 0 0.000427862)
(0 0 0.000256726)
(0 0 8.55766e-05)
(0 0 0.000115229)
(0 0 0.00034568)
(0 0 0.000576112)
(0 0 0.000806513)
(0 0 0.00103687)
(0 0 0.00126717)
(0 0 0.0014974)
(0 0 0.00172754)
(0 0 0.00195759)
(0 0 0.00218752)
(0 0 0.00241733)
(0 0 0.002647)
(0 0 0.00287651)
(0 0 0.00310586)
(0 0 0.00333502)
(0 0 0.00356397)
(0 0 0.00379271)
(0 0 0.00402121)
(0 0 0.00424945)
(0 0 0.00447743)
(0 0 0.00470511)
(0 0 0.00493247)
(0 0 0.00515951)
(0 0 0.00538619)
(0 0 0.00561249)
(0 0 0.00583839)
(0 0 0.00606387)
(0 0 0.00628891)
(0 0 0.00651347)
(0 0 0.00673752)
(0 0 0.00696106)
(0 0 0.00718404)
(0 0 0.00740643)
(0 0 0.00762821)
(0 0 0.00784934)
(0 0 0.0080698)
(0 0 0.00828955)
(0 0 0.00850855)
(0 0 0.00872677)
(0 0 0.00894418)
(0 0 0.00916074)
(0 0 0.00937641)
(0 0 0.00959115)
(0 0 0.00980492)
(0 0 0.0100177)
(0 0 0.0102294)
(0 0 0.01044)
(0 0 0.0106495)
(0 0 0.0108578)
(0 0 0.0110649)
(0 0 0.0112707)
(0 0 0.0114751)
(0 0 0.0116782)
(0 0 0.0118799)
(0 0 0.0120801)
(0 0 0.0122788)
(0 0 0.012476)
(0 0 0.0126715)
(0 0 0.0128653)
(0 0 0.0130574)
(0 0 0.0132478)
(0 0 0.0134363)
(0 0 0.0136229)
(0 0 0.0138076)
(0 0 0.0139903)
(0 0 0.0141709)
(0 0 0.0143494)
(0 0 0.0145258)
(0 0 0.0147)
(0 0 0.0148718)
(0 0 0.0150414)
(0 0 0.0152086)
(0 0 0.0153733)
(0 0 0.0155356)
(0 0 0.0156953)
(0 0 0.0158524)
(0 0 0.0160069)
(0 0 0.0161587)
(0 0 0.0163077)
(0 0 0.0164539)
(0 0 0.0165973)
(0 0 0.0167377)
(0 0 0.0168752)
(0 0 0.0170098)
(0 0 0.0171412)
(0 0 0.0172696)
(0 0 0.0173949)
(0 0 0.0175169)
(0 0 0.0176358)
(0 0 0.0177514)
(0 0 0.0178637)
(0 0 0.0179727)
(0 0 0.0180783)
(0 0 0.0181805)
(0 0 0.0182793)
(0 0 0.0183746)
(0 0 0.0184665)
(0 0 0.0185548)
(0 0 0.0186396)
(0 0 0.0187208)
(0 0 0.0187984)
(0 0 0.0188724)
(0 0 0.0189428)
(0 0 0.0190096)
(0 0 0.0190727)
(0 0 0.0191321)
(0 0 0.0191879)
(0 0 0.01924)
(0 0 0.0192884)
(0 0 0.0193331)
(0 0 0.0193741)
(0 0 0.0194114)
(0 0 0.019445)
(0 0 0.0194749)
(0 0 0.0195011)
(0 0 0.0195236)
(0 0 0.0195424)
(0 0 0.0195576)
(0 0 0.0195692)
(0 0 0.019577)
(0 0 0.0195813)
(0 0 0.0195819)
(0 0 0.019579)
(0 0 0.0195724)
(0 0 0.0195623)
(0 0 0.0195487)
(0 0 0.0195315)
(0 0 0.0195108)
(0 0 0.0194867)
(0 0 0.0194592)
(0 0 0.0194282)
(0 0 0.0193938)
(0 0 0.0193561)
(0 0 0.019315)
(0 0 0.0192707)
(0 0 0.0192231)
(0 0 0.0191722)
(0 0 0.0191182)
(0 0 0.0190609)
(0 0 0.0190006)
(0 0 0.0189371)
(0 0 0.0188706)
(0 0 0.0188011)
(0 0 0.0187285)
(0 0 0.018653)
(0 0 0.0185746)
(0 0 0.0184933)
(0 0 0.0184092)
(0 0 0.0183223)
(0 0 0.0182326)
(0 0 0.0181401)
(0 0 0.018045)
(0 0 0.0179473)
(0 0 0.0178469)
(0 0 0.0177439)
(0 0 0.0176384)
(0 0 0.0175305)
(0 0 0.01742)
(0 0 0.0173072)
(0 0 0.017192)
(0 0 0.0170744)
(0 0 0.0169545)
(0 0 0.0168324)
(0 0 0.0167081)
(0 0 0.0165816)
(0 0 0.0164529)
(0 0 0.0163221)
(0 0 0.0161893)
(0 0 0.0160544)
(0 0 0.0159176)
(0 0 0.0157788)
(0 0 0.015638)
(0 0 0.0154954)
(0 0 0.015351)
(0 0 0.0152047)
(0 0 0.0150567)
(0 0 0.014907)
(0 0 0.0147555)
(0 0 0.0146024)
(0 0 0.0144477)
(0 0 0.0142914)
(0 0 0.0141335)
(0 0 0.0139742)
(0 0 0.0138133)
(0 0 0.013651)
(0 0 0.0134873)
(0 0 0.0133221)
(0 0 0.0131557)
(0 0 0.0129879)
(0 0 0.0128189)
(0 0 0.0126486)
(0 0 0.012477)
(0 0 0.0123043)
(0 0 0.0121304)
(0 0 0.0119555)
(0 0 0.0117794)
(0 0 0.0116022)
(0 0 0.011424)
(0 0 0.0112448)
(0 0 0.0110646)
(0 0 0.0108835)