/*--------------------------------*- C++ -*----------------------------------*\
| =========                 |                                                 |
| \\      /  F ield         | OpenFOAM: The Open Source CFD Toolbox           |
|  \\    /   O peration     | Version:  v2012                                 |
|   \\  /    A nd           | Website:  www.openfoam.com                      |
|    \\/     M anipulation  |                                                 |
\*---------------------------------------------------------------------------*/
FoamFile
{
    version     2.0;
    format      ascii;
    class       volVectorField;
    location    "3.4";
    object      U;
}
// * * * * * * * * * * * * * * * * * * * * * * * * * * * * * * * * * * * * * //

dimensions      [0 1 -1 0 0 0 0];


internalField   nonuniform List<vector> 
65536
(
(0.000720769 -0.00072075 0)
(0.00216226 -0.000720707 0)
(0.00360363 -0.000720625 0)
(0.0050448 -0.000720501 0)
(0.00648568 -0.000720337 0)
(0.00792618 -0.00072013 0)
(0.00936623 -0.00071988 0)
(0.0108057 -0.000719587 0)
(0.0122446 -0.00071925 0)
(0.0136828 -0.000718868 0)
(0.0151201 -0.00071844 0)
(0.0165566 -0.000717964 0)
(0.017992 -0.00071744 0)
(0.0194264 -0.000716866 0)
(0.0208596 -0.000716241 0)
(0.0222914 -0.000715562 0)
(0.0237219 -0.00071483 0)
(0.0251508 -0.00071404 0)
(0.0265781 -0.000713193 0)
(0.0280036 -0.000712285 0)
(0.0294273 -0.000711315 0)
(0.0308489 -0.000710281 0)
(0.0322685 -0.00070918 0)
(0.0336857 -0.000708011 0)
(0.0351006 -0.00070677 0)
(0.0365129 -0.000705455 0)
(0.0379225 -0.000704064 0)
(0.0393292 -0.000702594 0)
(0.0407329 -0.000701042 0)
(0.0421334 -0.000699407 0)
(0.0435306 -0.000697684 0)
(0.0449243 -0.000695871 0)
(0.0463142 -0.000693966 0)
(0.0477002 -0.000691964 0)
(0.0490821 -0.000689864 0)
(0.0504598 -0.000687663 0)
(0.0518329 -0.000685357 0)
(0.0532013 -0.000682943 0)
(0.0545648 -0.000680419 0)
(0.0559231 -0.000677781 0)
(0.057276 -0.000675027 0)
(0.0586233 -0.000672152 0)
(0.0599647 -0.000669155 0)
(0.0613001 -0.000666033 0)
(0.062629 -0.000662782 0)
(0.0639513 -0.000659399 0)
(0.0652667 -0.000655882 0)
(0.066575 -0.000652228 0)
(0.0678758 -0.000648434 0)
(0.0691689 -0.000644498 0)
(0.0704539 -0.000640416 0)
(0.0717307 -0.000636187 0)
(0.0729988 -0.000631808 0)
(0.074258 -0.000627277 0)
(0.0755081 -0.000622591 0)
(0.0767486 -0.000617748 0)
(0.0779792 -0.000612747 0)
(0.0791997 -0.000607586 0)
(0.0804097 -0.000602263 0)
(0.0816089 -0.000596776 0)
(0.082797 -0.000591124 0)
(0.0839736 -0.000585306 0)
(0.0851384 -0.000579321 0)
(0.086291 -0.000573168 0)
(0.0874312 -0.000566846 0)
(0.0885586 -0.000560355 0)
(0.0896728 -0.000553694 0)
(0.0907735 -0.000546864 0)
(0.0918604 -0.000539864 0)
(0.0929332 -0.000532694 0)
(0.0939914 -0.000525355 0)
(0.0950347 -0.000517849 0)
(0.0960629 -0.000510175 0)
(0.0970756 -0.000502335 0)
(0.0980724 -0.00049433 0)
(0.0990531 -0.000486161 0)
(0.100017 -0.000477832 0)
(0.100965 -0.000469342 0)
(0.101895 -0.000460696 0)
(0.102808 -0.000451894 0)
(0.103703 -0.00044294 0)
(0.104579 -0.000433837 0)
(0.105438 -0.000424587 0)
(0.106278 -0.000415194 0)
(0.107099 -0.000405662 0)
(0.107901 -0.000395993 0)
(0.108683 -0.000386192 0)
(0.109446 -0.000376263 0)
(0.110188 -0.000366209 0)
(0.110911 -0.000356036 0)
(0.111612 -0.000345748 0)
(0.112294 -0.000335349 0)
(0.112954 -0.000324844 0)
(0.113593 -0.000314239 0)
(0.114211 -0.000303537 0)
(0.114807 -0.000292745 0)
(0.115382 -0.000281868 0)
(0.115935 -0.00027091 0)
(0.116466 -0.000259878 0)
(0.116975 -0.000248777 0)
(0.117461 -0.000237612 0)
(0.117925 -0.000226389 0)
(0.118367 -0.000215113 0)
(0.118786 -0.000203792 0)
(0.119182 -0.000192429 0)
(0.119555 -0.000181031 0)
(0.119906 -0.000169603 0)
(0.120234 -0.000158152 0)
(0.120539 -0.000146682 0)
(0.12082 -0.0001352 0)
(0.121079 -0.00012371 0)
(0.121315 -0.000112219 0)
(0.121528 -0.000100732 0)
(0.121718 -8.92541e-05 0)
(0.121885 -7.77907e-05 0)
(0.122029 -6.63471e-05 0)
(0.122151 -5.49282e-05 0)
(0.122249 -4.35392e-05 0)
(0.122325 -3.21848e-05 0)
(0.122378 -2.08699e-05 0)
(0.122408 -9.59895e-06 0)
(0.122416 1.62339e-06 0)
(0.122402 1.27928e-05 0)
(0.122365 2.39051e-05 0)
(0.122306 3.49561e-05 0)
(0.122225 4.59419e-05 0)
(0.122122 5.68587e-05 0)
(0.121998 6.77028e-05 0)
(0.121851 7.84708e-05 0)
(0.121684 8.91593e-05 0)
(0.121495 9.9765e-05 0)
(0.121284 0.000110285 0)
(0.121053 0.000120716 0)
(0.120801 0.000131056 0)
(0.120529 0.000141302 0)
(0.120236 0.000151451 0)
(0.119923 0.000161502 0)
(0.11959 0.000171451 0)
(0.119237 0.000181297 0)
(0.118865 0.000191039 0)
(0.118473 0.000200673 0)
(0.118062 0.0002102 0)
(0.117632 0.000219616 0)
(0.117183 0.000228921 0)
(0.116716 0.000238113 0)
(0.116231 0.000247192 0)
(0.115727 0.000256156 0)
(0.115206 0.000265004 0)
(0.114667 0.000273736 0)
(0.114111 0.00028235 0)
(0.113538 0.000290846 0)
(0.112948 0.000299224 0)
(0.112341 0.000307483 0)
(0.111717 0.000315622 0)
(0.111078 0.000323642 0)
(0.110423 0.000331541 0)
(0.109752 0.000339321 0)
(0.109065 0.00034698 0)
(0.108364 0.000354518 0)
(0.107647 0.000361937 0)
(0.106916 0.000369235 0)
(0.10617 0.000376413 0)
(0.10541 0.000383471 0)
(0.104636 0.00039041 0)
(0.103848 0.000397229 0)
(0.103047 0.000403929 0)
(0.102233 0.00041051 0)
(0.101405 0.000416973 0)
(0.100565 0.000423318 0)
(0.0997116 0.000429545 0)
(0.0988463 0.000435656 0)
(0.0979688 0.00044165 0)
(0.0970796 0.000447528 0)
(0.0961786 0.000453292 0)
(0.0952663 0.000458941 0)
(0.0943427 0.000464475 0)
(0.0934083 0.000469897 0)
(0.092463 0.000475207 0)
(0.0915073 0.000480405 0)
(0.0905413 0.000485492 0)
(0.0895652 0.000490469 0)
(0.0885793 0.000495336 0)
(0.0875838 0.000500096 0)
(0.0865788 0.000504748 0)
(0.0855647 0.000509293 0)
(0.0845416 0.000513733 0)
(0.0835097 0.000518069 0)
(0.0824692 0.000522301 0)
(0.0814204 0.00052643 0)
(0.0803634 0.000530458 0)
(0.0792984 0.000534386 0)
(0.0782257 0.000538214 0)
(0.0771455 0.000541944 0)
(0.0760579 0.000545577 0)
(0.0749631 0.000549114 0)
(0.0738613 0.000552556 0)
(0.0727528 0.000555905 0)
(0.0716376 0.000559162 0)
(0.070516 0.000562328 0)
(0.0693882 0.000565404 0)
(0.0682543 0.000568391 0)
(0.0671145 0.000571291 0)
(0.0659691 0.000574106 0)
(0.064818 0.000576836 0)
(0.0636616 0.000579482 0)
(0.0625 0.000582047 0)
(0.0613334 0.000584532 0)
(0.0601618 0.000586937 0)
(0.0589855 0.000589265 0)
(0.0578047 0.000591517 0)
(0.0566194 0.000593693 0)
(0.0554298 0.000595797 0)
(0.0542361 0.000597828 0)
(0.0530384 0.000599788 0)
(0.0518369 0.000601679 0)
(0.0506317 0.000603502 0)
(0.0494228 0.000605259 0)
(0.0482106 0.000606951 0)
(0.046995 0.000608579 0)
(0.0457762 0.000610145 0)
(0.0445543 0.00061165 0)
(0.0433295 0.000613095 0)
(0.0421019 0.000614482 0)
(0.0408715 0.000615812 0)
(0.0396386 0.000617086 0)
(0.0384031 0.000618307 0)
(0.0371653 0.000619474 0)
(0.0359252 0.000620589 0)
(0.0346829 0.000621654 0)
(0.0334385 0.000622669 0)
(0.0321922 0.000623636 0)
(0.0309439 0.000624556 0)
(0.0296939 0.00062543 0)
(0.0284422 0.000626258 0)
(0.0271888 0.000627043 0)
(0.0259339 0.000627786 0)
(0.0246776 0.000628486 0)
(0.02342 0.000629145 0)
(0.022161 0.000629764 0)
(0.0209009 0.000630344 0)
(0.0196396 0.000630885 0)
(0.0183773 0.000631389 0)
(0.017114 0.000631856 0)
(0.0158498 0.000632287 0)
(0.0145848 0.000632681 0)
(0.0133191 0.000633041 0)
(0.0120526 0.000633367 0)
(0.0107856 0.000633658 0)
(0.00951794 0.000633916 0)
(0.00824985 0.000634141 0)
(0.00698134 0.000634333 0)
(0.00571249 0.000634492 0)
(0.00444334 0.00063462 0)
(0.00317397 0.000634715 0)
(0.00190445 0.000634778 0)
(0.000634826 0.00063481 0)
(0.000720807 -0.00216228 0)
(0.00216238 -0.00216216 0)
(0.00360383 -0.00216191 0)
(0.00504508 -0.00216154 0)
(0.00648604 -0.00216105 0)
(0.00792663 -0.00216043 0)
(0.00936676 -0.00215968 0)
(0.0108064 -0.0021588 0)
(0.0122453 -0.00215779 0)
(0.0136836 -0.00215665 0)
(0.015121 -0.00215536 0)
(0.0165576 -0.00215394 0)
(0.0179931 -0.00215237 0)
(0.0194276 -0.00215065 0)
(0.0208608 -0.00214877 0)
(0.0222928 -0.00214674 0)
(0.0237233 -0.00214454 0)
(0.0251524 -0.00214218 0)
(0.0265798 -0.00213963 0)
(0.0280054 -0.00213691 0)
(0.0294292 -0.00213401 0)
(0.030851 -0.00213091 0)
(0.0322707 -0.00212761 0)
(0.0336881 -0.0021241 0)
(0.0351031 -0.00212038 0)
(0.0365155 -0.00211644 0)
(0.0379253 -0.00211227 0)
(0.0393322 -0.00210786 0)
(0.040736 -0.00210321 0)
(0.0421367 -0.0020983 0)
(0.0435341 -0.00209314 0)
(0.0449279 -0.0020877 0)
(0.046318 -0.00208199 0)
(0.0477043 -0.00207599 0)
(0.0490864 -0.00206969 0)
(0.0504642 -0.00206309 0)
(0.0518376 -0.00205618 0)
(0.0532062 -0.00204894 0)
(0.0545699 -0.00204137 0)
(0.0559284 -0.00203346 0)
(0.0572816 -0.0020252 0)
(0.0586291 -0.00201658 0)
(0.0599708 -0.00200759 0)
(0.0613064 -0.00199822 0)
(0.0626356 -0.00198847 0)
(0.0639581 -0.00197833 0)
(0.0652738 -0.00196778 0)
(0.0665823 -0.00195682 0)
(0.0678834 -0.00194544 0)
(0.0691768 -0.00193364 0)
(0.0704621 -0.00192139 0)
(0.0717392 -0.00190871 0)
(0.0730076 -0.00189557 0)
(0.0742672 -0.00188198 0)
(0.0755175 -0.00186793 0)
(0.0767583 -0.0018534 0)
(0.0779893 -0.0018384 0)
(0.0792101 -0.00182292 0)
(0.0804204 -0.00180695 0)
(0.08162 -0.00179049 0)
(0.0828084 -0.00177354 0)
(0.0839853 -0.00175608 0)
(0.0851504 -0.00173813 0)
(0.0863034 -0.00171967 0)
(0.0874439 -0.00170071 0)
(0.0885716 -0.00168123 0)
(0.0896862 -0.00166125 0)
(0.0907873 -0.00164076 0)
(0.0918745 -0.00161976 0)
(0.0929476 -0.00159825 0)
(0.0940061 -0.00157623 0)
(0.0950498 -0.00155371 0)
(0.0960784 -0.00153069 0)
(0.0970914 -0.00150717 0)
(0.0980885 -0.00148315 0)
(0.0990695 -0.00145865 0)
(0.100034 -0.00143365 0)
(0.100982 -0.00140818 0)
(0.101912 -0.00138224 0)
(0.102825 -0.00135583 0)
(0.10372 -0.00132897 0)
(0.104598 -0.00130166 0)
(0.105457 -0.00127391 0)
(0.106297 -0.00124572 0)
(0.107118 -0.00121712 0)
(0.10792 -0.00118811 0)
(0.108703 -0.00115871 0)
(0.109465 -0.00112891 0)
(0.110208 -0.00109875 0)
(0.110931 -0.00106823 0)
(0.111633 -0.00103736 0)
(0.112314 -0.00100615 0)
(0.112975 -0.000974636 0)
(0.113614 -0.000942814 0)
(0.114232 -0.000910705 0)
(0.114829 -0.000878323 0)
(0.115404 -0.000845685 0)
(0.115957 -0.000812807 0)
(0.116488 -0.000779705 0)
(0.116997 -0.000746395 0)
(0.117483 -0.000712895 0)
(0.117947 -0.000679221 0)
(0.118389 -0.000645389 0)
(0.118808 -0.000611418 0)
(0.119204 -0.000577324 0)
(0.119578 -0.000543124 0)
(0.119929 -0.000508836 0)
(0.120257 -0.000474476 0)
(0.120561 -0.000440061 0)
(0.120843 -0.000405608 0)
(0.121102 -0.000371135 0)
(0.121338 -0.000336656 0)
(0.121551 -0.00030219 0)
(0.121741 -0.000267751 0)
(0.121908 -0.000233356 0)
(0.122052 -0.00019902 0)
(0.122173 -0.000164758 0)
(0.122272 -0.000130586 0)
(0.122347 -9.65183e-05 0)
(0.1224 -6.25688e-05 0)
(0.122431 -2.87517e-05 0)
(0.122438 4.91969e-06 0)
(0.122424 3.84321e-05 0)
(0.122387 7.1773e-05 0)
(0.122328 0.00010493 0)
(0.122247 0.000137891 0)
(0.122144 0.000170645 0)
(0.122019 0.000203181 0)
(0.121873 0.000235488 0)
(0.121705 0.000267557 0)
(0.121516 0.000299377 0)
(0.121305 0.00033094 0)
(0.121074 0.000362237 0)
(0.120822 0.000393259 0)
(0.120549 0.000423998 0)
(0.120256 0.000454448 0)
(0.119943 0.000484602 0)
(0.11961 0.000514452 0)
(0.119257 0.000543993 0)
(0.118884 0.000573219 0)
(0.118492 0.000602124 0)
(0.118081 0.000630705 0)
(0.117651 0.000658955 0)
(0.117202 0.000686872 0)
(0.116734 0.00071445 0)
(0.116249 0.000741687 0)
(0.115745 0.00076858 0)
(0.115224 0.000795126 0)
(0.114685 0.000821321 0)
(0.114128 0.000847165 0)
(0.113555 0.000872654 0)
(0.112964 0.000897788 0)
(0.112357 0.000922565 0)
(0.111734 0.000946983 0)
(0.111094 0.000971042 0)
(0.110438 0.00099474 0)
(0.109767 0.00101808 0)
(0.109081 0.00104106 0)
(0.108379 0.00106367 0)
(0.107662 0.00108593 0)
(0.10693 0.00110782 0)
(0.106184 0.00112936 0)
(0.105424 0.00115053 0)
(0.10465 0.00117135 0)
(0.103862 0.0011918 0)
(0.10306 0.0012119 0)
(0.102246 0.00123164 0)
(0.101418 0.00125103 0)
(0.100577 0.00127007 0)
(0.0997239 0.00128875 0)
(0.0988584 0.00130708 0)
(0.0979807 0.00132506 0)
(0.0970912 0.0013427 0)
(0.0961901 0.00135999 0)
(0.0952775 0.00137693 0)
(0.0943537 0.00139354 0)
(0.093419 0.0014098 0)
(0.0924736 0.00142573 0)
(0.0915176 0.00144132 0)
(0.0905514 0.00145658 0)
(0.0895751 0.00147151 0)
(0.088589 0.00148612 0)
(0.0875932 0.00150039 0)
(0.0865881 0.00151435 0)
(0.0855737 0.00152798 0)
(0.0845504 0.0015413 0)
(0.0835183 0.00155431 0)
(0.0824776 0.001567 0)
(0.0814285 0.00157939 0)
(0.0803714 0.00159147 0)
(0.0793062 0.00160326 0)
(0.0782333 0.00161474 0)
(0.0771529 0.00162593 0)
(0.0760651 0.00163683 0)
(0.0749701 0.00164744 0)
(0.0738681 0.00165776 0)
(0.0727594 0.00166781 0)
(0.0716441 0.00167758 0)
(0.0705223 0.00168707 0)
(0.0693943 0.0016963 0)
(0.0682602 0.00170526 0)
(0.0671203 0.00171396 0)
(0.0659746 0.0017224 0)
(0.0648234 0.00173059 0)
(0.0636669 0.00173853 0)
(0.0625051 0.00174622 0)
(0.0613383 0.00175368 0)
(0.0601666 0.00176089 0)
(0.0589902 0.00176787 0)
(0.0578091 0.00177463 0)
(0.0566237 0.00178115 0)
(0.055434 0.00178746 0)
(0.0542402 0.00179355 0)
(0.0530423 0.00179943 0)
(0.0518407 0.00180511 0)
(0.0506353 0.00181057 0)
(0.0494263 0.00181584 0)
(0.0482139 0.00182092 0)
(0.0469982 0.0018258 0)
(0.0457793 0.0018305 0)
(0.0445573 0.00183501 0)
(0.0433324 0.00183934 0)
(0.0421046 0.0018435 0)
(0.0408742 0.00184749 0)
(0.0396411 0.00185132 0)
(0.0384055 0.00185497 0)
(0.0371676 0.00185847 0)
(0.0359274 0.00186182 0)
(0.034685 0.00186501 0)
(0.0334405 0.00186806 0)
(0.0321941 0.00187096 0)
(0.0309457 0.00187371 0)
(0.0296956 0.00187634 0)
(0.0284438 0.00187882 0)
(0.0271904 0.00188118 0)
(0.0259354 0.0018834 0)
(0.024679 0.0018855 0)
(0.0234213 0.00188748 0)
(0.0221622 0.00188933 0)
(0.020902 0.00189107 0)
(0.0196407 0.0018927 0)
(0.0183783 0.00189421 0)
(0.0171149 0.00189561 0)
(0.0158507 0.0018969 0)
(0.0145856 0.00189808 0)
(0.0133197 0.00189916 0)
(0.0120532 0.00190014 0)
(0.0107861 0.00190101 0)
(0.00951843 0.00190178 0)
(0.00825027 0.00190246 0)
(0.0069817 0.00190303 0)
(0.00571278 0.00190351 0)
(0.00444356 0.00190389 0)
(0.00317413 0.00190418 0)
(0.00190454 0.00190437 0)
(0.000634858 0.00190446 0)
(0.000720889 -0.00360394 0)
(0.00216263 -0.00360373 0)
(0.00360424 -0.00360332 0)
(0.00504566 -0.00360271 0)
(0.00648678 -0.00360189 0)
(0.00792754 -0.00360085 0)
(0.00936785 -0.00359961 0)
(0.0108076 -0.00359815 0)
(0.0122468 -0.00359647 0)
(0.0136852 -0.00359456 0)
(0.0151228 -0.00359243 0)
(0.0165596 -0.00359006 0)
(0.0179953 -0.00358744 0)
(0.01943 -0.00358458 0)
(0.0208634 -0.00358146 0)
(0.0222956 -0.00357808 0)
(0.0237264 -0.00357442 0)
(0.0251557 -0.00357048 0)
(0.0265833 -0.00356626 0)
(0.0280092 -0.00356173 0)
(0.0294332 -0.00355689 0)
(0.0308553 -0.00355173 0)
(0.0322752 -0.00354624 0)
(0.0336929 -0.0035404 0)
(0.0351082 -0.00353421 0)
(0.0365209 -0.00352765 0)
(0.037931 -0.00352071 0)
(0.0393382 -0.00351337 0)
(0.0407424 -0.00350563 0)
(0.0421435 -0.00349746 0)
(0.0435412 -0.00348886 0)
(0.0449354 -0.00347981 0)
(0.0463259 -0.0034703 0)
(0.0477125 -0.00346031 0)
(0.049095 -0.00344982 0)
(0.0504733 -0.00343883 0)
(0.051847 -0.00342732 0)
(0.0532161 -0.00341526 0)
(0.0545802 -0.00340266 0)
(0.0559392 -0.00338948 0)
(0.0572929 -0.00337573 0)
(0.0586409 -0.00336137 0)
(0.0599831 -0.0033464 0)
(0.0613191 -0.0033308 0)
(0.0626489 -0.00331456 0)
(0.063972 -0.00329766 0)
(0.0652882 -0.00328009 0)
(0.0665973 -0.00326183 0)
(0.0678989 -0.00324288 0)
(0.0691929 -0.00322321 0)
(0.0704788 -0.00320281 0)
(0.0717564 -0.00318168 0)
(0.0730255 -0.0031598 0)
(0.0742856 -0.00313715 0)
(0.0755366 -0.00311373 0)
(0.076778 -0.00308953 0)
(0.0780097 -0.00306453 0)
(0.0792311 -0.00303874 0)
(0.0804421 -0.00301213 0)
(0.0816423 -0.0029847 0)
(0.0828313 -0.00295645 0)
(0.0840089 -0.00292737 0)
(0.0851747 -0.00289744 0)
(0.0863284 -0.00286668 0)
(0.0874696 -0.00283508 0)
(0.088598 -0.00280262 0)
(0.0897132 -0.00276932 0)
(0.090815 -0.00273517 0)
(0.0919029 -0.00270016 0)
(0.0929766 -0.00266431 0)
(0.0940359 -0.00262762 0)
(0.0950802 -0.00259008 0)
(0.0961094 -0.0025517 0)
(0.0971231 -0.0025125 0)
(0.0981209 -0.00247247 0)
(0.0991026 -0.00243161 0)
(0.100068 -0.00238996 0)
(0.101016 -0.0023475 0)
(0.101947 -0.00230425 0)
(0.102861 -0.00226023 0)
(0.103757 -0.00221545 0)
(0.104634 -0.00216992 0)
(0.105494 -0.00212365 0)
(0.106335 -0.00207667 0)
(0.107156 -0.00202899 0)
(0.107959 -0.00198063 0)
(0.108742 -0.0019316 0)
(0.109506 -0.00188194 0)
(0.110249 -0.00183165 0)
(0.110972 -0.00178076 0)
(0.111675 -0.0017293 0)
(0.112356 -0.00167728 0)
(0.113017 -0.00162473 0)
(0.113657 -0.00157168 0)
(0.114275 -0.00151814 0)
(0.114872 -0.00146416 0)
(0.115448 -0.00140974 0)
(0.116001 -0.00135493 0)
(0.116532 -0.00129974 0)
(0.117041 -0.0012442 0)
(0.117528 -0.00118835 0)
(0.117993 -0.00113221 0)
(0.118434 -0.0010758 0)
(0.118854 -0.00101917 0)
(0.11925 -0.000962325 0)
(0.119624 -0.000905306 0)
(0.119975 -0.00084814 0)
(0.120302 -0.000790854 0)
(0.120607 -0.000733478 0)
(0.120889 -0.000676038 0)
(0.121148 -0.000618563 0)
(0.121384 -0.000561081 0)
(0.121597 -0.000503619 0)
(0.121787 -0.000446203 0)
(0.121954 -0.000388861 0)
(0.122098 -0.000331617 0)
(0.122219 -0.000274498 0)
(0.122317 -0.000217529 0)
(0.122393 -0.000160733 0)
(0.122446 -0.000104135 0)
(0.122476 -4.77583e-05 0)
(0.122483 8.37525e-06 0)
(0.122468 6.42434e-05 0)
(0.122431 0.000119825 0)
(0.122372 0.0001751 0)
(0.122291 0.000230048 0)
(0.122187 0.00028465 0)
(0.122062 0.000338888 0)
(0.121916 0.000392745 0)
(0.121747 0.000446203 0)
(0.121558 0.000499247 0)
(0.121347 0.000551862 0)
(0.121116 0.000604032 0)
(0.120863 0.000655744 0)
(0.12059 0.000706985 0)
(0.120297 0.000757743 0)
(0.119983 0.000808006 0)
(0.119649 0.000857763 0)
(0.119296 0.000907004 0)
(0.118923 0.00095572 0)
(0.11853 0.0010039 0)
(0.118119 0.00105154 0)
(0.117688 0.00109863 0)
(0.117239 0.00114516 0)
(0.116771 0.00119113 0)
(0.116285 0.00123653 0)
(0.115781 0.00128135 0)
(0.115259 0.0013256 0)
(0.114719 0.00136926 0)
(0.114162 0.00141233 0)
(0.113588 0.00145482 0)
(0.112997 0.00149671 0)
(0.11239 0.00153801 0)
(0.111766 0.0015787 0)
(0.111126 0.0016188 0)
(0.11047 0.0016583 0)
(0.109798 0.0016972 0)
(0.109111 0.00173549 0)
(0.108409 0.00177319 0)
(0.107691 0.00181028 0)
(0.106959 0.00184677 0)
(0.106213 0.00188266 0)
(0.105452 0.00191795 0)
(0.104677 0.00195264 0)
(0.103889 0.00198673 0)
(0.103087 0.00202023 0)
(0.102272 0.00205314 0)
(0.101443 0.00208545 0)
(0.100602 0.00211717 0)
(0.0997486 0.0021483 0)
(0.0988826 0.00217886 0)
(0.0980045 0.00220882 0)
(0.0971145 0.00223821 0)
(0.0962129 0.00226703 0)
(0.0952998 0.00229527 0)
(0.0943756 0.00232294 0)
(0.0934405 0.00235004 0)
(0.0924946 0.00237659 0)
(0.0915382 0.00240257 0)
(0.0905715 0.002428 0)
(0.0895948 0.00245289 0)
(0.0886082 0.00247722 0)
(0.0876121 0.00250101 0)
(0.0866065 0.00252427 0)
(0.0855917 0.00254699 0)
(0.0845679 0.00256919 0)
(0.0835354 0.00259086 0)
(0.0824943 0.00261201 0)
(0.0814449 0.00263266 0)
(0.0803873 0.00265279 0)
(0.0793217 0.00267242 0)
(0.0782484 0.00269156 0)
(0.0771676 0.0027102 0)
(0.0760794 0.00272836 0)
(0.074984 0.00274604 0)
(0.0738817 0.00276325 0)
(0.0727726 0.00277999 0)
(0.0716569 0.00279626 0)
(0.0705348 0.00281209 0)
(0.0694064 0.00282746 0)
(0.068272 0.00284239 0)
(0.0671317 0.00285689 0)
(0.0659857 0.00287095 0)
(0.0648342 0.00288459 0)
(0.0636773 0.00289782 0)
(0.0625152 0.00291064 0)
(0.0613481 0.00292306 0)
(0.060176 0.00293508 0)
(0.0589993 0.00294671 0)
(0.057818 0.00295796 0)
(0.0566323 0.00296884 0)
(0.0554423 0.00297934 0)
(0.0542481 0.00298949 0)
(0.05305 0.00299929 0)
(0.0518481 0.00300874 0)
(0.0506424 0.00301785 0)
(0.0494332 0.00302662 0)
(0.0482205 0.00303508 0)
(0.0470046 0.00304321 0)
(0.0457854 0.00305103 0)
(0.0445632 0.00305855 0)
(0.043338 0.00306577 0)
(0.0421101 0.0030727 0)
(0.0408794 0.00307934 0)
(0.0396461 0.00308571 0)
(0.0384103 0.0030918 0)
(0.0371722 0.00309763 0)
(0.0359317 0.0031032 0)
(0.0346891 0.00310852 0)
(0.0334445 0.00311359 0)
(0.0321978 0.00311842 0)
(0.0309493 0.00312301 0)
(0.029699 0.00312738 0)
(0.028447 0.00313152 0)
(0.0271934 0.00313544 0)
(0.0259383 0.00313914 0)
(0.0246817 0.00314264 0)
(0.0234238 0.00314593 0)
(0.0221646 0.00314902 0)
(0.0209042 0.00315192 0)
(0.0196427 0.00315462 0)
(0.0183802 0.00315713 0)
(0.0171167 0.00315947 0)
(0.0158523 0.00316161 0)
(0.0145871 0.00316359 0)
(0.0133211 0.00316538 0)
(0.0120545 0.00316701 0)
(0.0107872 0.00316846 0)
(0.00951939 0.00316975 0)
(0.0082511 0.00317087 0)
(0.0069824 0.00317183 0)
(0.00571335 0.00317263 0)
(0.00444401 0.00317326 0)
(0.00317445 0.00317374 0)
(0.00190473 0.00317405 0)
(0.000634921 0.00317421 0)
(0.000721012 -0.0050458 0)
(0.002163 -0.00504551 0)
(0.00360486 -0.00504494 0)
(0.00504652 -0.00504408 0)
(0.0064879 -0.00504294 0)
(0.00792892 -0.0050415 0)
(0.00936948 -0.00503976 0)
(0.0108095 -0.00503772 0)
(0.0122489 -0.00503537 0)
(0.0136876 -0.00503271 0)
(0.0151256 -0.00502973 0)
(0.0165626 -0.00502642 0)
(0.0179986 -0.00502277 0)
(0.0194336 -0.00501877 0)
(0.0208674 -0.00501441 0)
(0.0222999 -0.00500969 0)
(0.023731 -0.00500459 0)
(0.0251606 -0.00499909 0)
(0.0265886 -0.00499318 0)
(0.0280148 -0.00498686 0)
(0.0294393 -0.0049801 0)
(0.0308617 -0.00497289 0)
(0.0322821 -0.00496522 0)
(0.0337002 -0.00495706 0)
(0.0351159 -0.00494841 0)
(0.0365291 -0.00493924 0)
(0.0379396 -0.00492954 0)
(0.0393473 -0.00491929 0)
(0.040752 -0.00490847 0)
(0.0421536 -0.00489706 0)
(0.0435518 -0.00488504 0)
(0.0449465 -0.00487239 0)
(0.0463376 -0.00485909 0)
(0.0477248 -0.00484512 0)
(0.0491079 -0.00483047 0)
(0.0504868 -0.0048151 0)
(0.0518612 -0.004799 0)
(0.0532309 -0.00478214 0)
(0.0545957 -0.00476452 0)
(0.0559554 -0.00474609 0)
(0.0573098 -0.00472685 0)
(0.0586585 -0.00470678 0)
(0.0600014 -0.00468584 0)
(0.0613383 -0.00466402 0)
(0.0626688 -0.00464131 0)
(0.0639927 -0.00461767 0)
(0.0653097 -0.00459309 0)
(0.0666196 -0.00456755 0)
(0.0679221 -0.00454103 0)
(0.0692169 -0.00451351 0)
(0.0705038 -0.00448497 0)
(0.0717823 -0.0044554 0)
(0.0730523 -0.00442478 0)
(0.0743133 -0.00439309 0)
(0.0755652 -0.00436032 0)
(0.0768076 -0.00432645 0)
(0.0780402 -0.00429147 0)
(0.0792626 -0.00425537 0)
(0.0804746 -0.00421813 0)
(0.0816758 -0.00417974 0)
(0.0828658 -0.00414019 0)
(0.0840444 -0.00409948 0)
(0.0852112 -0.0040576 0)
(0.0863659 -0.00401454 0)
(0.0875081 -0.00397029 0)
(0.0886375 -0.00392486 0)
(0.0897538 -0.00387823 0)
(0.0908566 -0.00383042 0)
(0.0919455 -0.00378142 0)
(0.0930202 -0.00373122 0)
(0.0940805 -0.00367984 0)
(0.0951259 -0.00362728 0)
(0.0961561 -0.00357355 0)
(0.0971707 -0.00351865 0)
(0.0981695 -0.0034626 0)
(0.0991521 -0.00340539 0)
(0.100118 -0.00334706 0)
(0.101067 -0.0032876 0)
(0.102 -0.00322704 0)
(0.102914 -0.00316539 0)
(0.103811 -0.00310268 0)
(0.10469 -0.00303891 0)
(0.10555 -0.00297412 0)
(0.106392 -0.00290832 0)
(0.107214 -0.00284154 0)
(0.108018 -0.00277381 0)
(0.108801 -0.00270514 0)
(0.109566 -0.00263558 0)
(0.11031 -0.00256515 0)
(0.111033 -0.00249387 0)
(0.111737 -0.00242179 0)
(0.112419 -0.00234893 0)
(0.113081 -0.00227533 0)
(0.113721 -0.00220102 0)
(0.11434 -0.00212604 0)
(0.114938 -0.00205042 0)
(0.115513 -0.0019742 0)
(0.116067 -0.00189742 0)
(0.116599 -0.00182012 0)
(0.117108 -0.00174233 0)
(0.117595 -0.0016641 0)
(0.11806 -0.00158546 0)
(0.118502 -0.00150645 0)
(0.118922 -0.00142712 0)
(0.119318 -0.0013475 0)
(0.119692 -0.00126764 0)
(0.120043 -0.00118756 0)
(0.120371 -0.00110732 0)
(0.120676 -0.00102696 0)
(0.120958 -0.000946502 0)
(0.121217 -0.000865999 0)
(0.121453 -0.000785486 0)
(0.121666 -0.000705001 0)
(0.121856 -0.000624582 0)
(0.122023 -0.000544266 0)
(0.122167 -0.000464089 0)
(0.122288 -0.000384088 0)
(0.122386 -0.000304296 0)
(0.122461 -0.000224749 0)
(0.122513 -0.00014548 0)
(0.122543 -6.65204e-05 0)
(0.122551 1.20971e-05 0)
(0.122535 9.03422e-05 0)
(0.122498 0.000168185 0)
(0.122438 0.000245598 0)
(0.122357 0.000322551 0)
(0.122253 0.00039902 0)
(0.122127 0.000474978 0)
(0.12198 0.000550401 0)
(0.121811 0.000625265 0)
(0.121621 0.000699548 0)
(0.12141 0.000773228 0)
(0.121178 0.000846286 0)
(0.120925 0.000918701 0)
(0.120651 0.000990456 0)
(0.120357 0.00106153 0)
(0.120043 0.00113192 0)
(0.119709 0.00120159 0)
(0.119355 0.00127054 0)
(0.118981 0.00133876 0)
(0.118588 0.00140622 0)
(0.118176 0.00147293 0)
(0.117744 0.00153886 0)
(0.117294 0.00160401 0)
(0.116826 0.00166838 0)
(0.116339 0.00173194 0)
(0.115834 0.0017947 0)
(0.115312 0.00185665 0)
(0.114771 0.00191779 0)
(0.114214 0.00197809 0)
(0.113639 0.00203758 0)
(0.113047 0.00209623 0)
(0.112439 0.00215404 0)
(0.111814 0.00221102 0)
(0.111174 0.00226716 0)
(0.110517 0.00232246 0)
(0.109844 0.00237692 0)
(0.109157 0.00243053 0)
(0.108454 0.00248331 0)
(0.107736 0.00253523 0)
(0.107003 0.00258632 0)
(0.106256 0.00263656 0)
(0.105494 0.00268597 0)
(0.104719 0.00273453 0)
(0.10393 0.00278226 0)
(0.103127 0.00282916 0)
(0.102311 0.00287522 0)
(0.101482 0.00292045 0)
(0.10064 0.00296486 0)
(0.0997856 0.00300845 0)
(0.0989189 0.00305121 0)
(0.0980401 0.00309316 0)
(0.0971494 0.00313431 0)
(0.0962471 0.00317464 0)
(0.0953334 0.00321417 0)
(0.0944085 0.00325291 0)
(0.0934727 0.00329085 0)
(0.0925261 0.00332801 0)
(0.091569 0.00336438 0)
(0.0906017 0.00339998 0)
(0.0896243 0.0034348 0)
(0.0886371 0.00346887 0)
(0.0876403 0.00350217 0)
(0.086634 0.00353472 0)
(0.0856186 0.00356653 0)
(0.0845942 0.00359759 0)
(0.0835611 0.00362793 0)
(0.0825194 0.00365754 0)
(0.0814693 0.00368643 0)
(0.0804111 0.00371461 0)
(0.079345 0.00374209 0)
(0.0782711 0.00376887 0)
(0.0771896 0.00379496 0)
(0.0761009 0.00382038 0)
(0.0750049 0.00384512 0)
(0.073902 0.0038692 0)
(0.0727924 0.00389263 0)
(0.0716761 0.00391541 0)
(0.0705535 0.00393755 0)
(0.0694246 0.00395906 0)
(0.0682896 0.00397996 0)
(0.0671488 0.00400024 0)
(0.0660023 0.00401992 0)
(0.0648503 0.00403901 0)
(0.0636929 0.00405752 0)
(0.0625303 0.00407546 0)
(0.0613627 0.00409283 0)
(0.0601902 0.00410965 0)
(0.059013 0.00412593 0)
(0.0578312 0.00414167 0)
(0.0566451 0.00415688 0)
(0.0554546 0.00417159 0)
(0.0542601 0.00418578 0)
(0.0530615 0.00419949 0)
(0.0518592 0.00421271 0)
(0.0506531 0.00422545 0)
(0.0494435 0.00423773 0)
(0.0482305 0.00424955 0)
(0.0470141 0.00426093 0)
(0.0457946 0.00427187 0)
(0.044572 0.00428239 0)
(0.0433465 0.00429248 0)
(0.0421182 0.00430217 0)
(0.0408871 0.00431147 0)
(0.0396535 0.00432037 0)
(0.0384174 0.00432889 0)
(0.037179 0.00433705 0)
(0.0359383 0.00434484 0)
(0.0346954 0.00435227 0)
(0.0334504 0.00435936 0)
(0.0322035 0.00436611 0)
(0.0309547 0.00437254 0)
(0.0297041 0.00437864 0)
(0.0284518 0.00438443 0)
(0.027198 0.00438991 0)
(0.0259426 0.00439509 0)
(0.0246858 0.00439998 0)
(0.0234276 0.00440458 0)
(0.0221682 0.0044089 0)
(0.0209076 0.00441295 0)
(0.0196459 0.00441673 0)
(0.0183831 0.00442025 0)
(0.0171194 0.0044235 0)
(0.0158548 0.00442651 0)
(0.0145893 0.00442927 0)
(0.0133232 0.00443178 0)
(0.0120563 0.00443405 0)
(0.0107888 0.00443608 0)
(0.00952083 0.00443788 0)
(0.00825235 0.00443945 0)
(0.00698345 0.00444079 0)
(0.0057142 0.0044419 0)
(0.00444467 0.00444279 0)
(0.00317492 0.00444346 0)
(0.00190502 0.0044439 0)
(0.000635016 0.00444411 0)
(0.000721176 -0.00648795 0)
(0.00216349 -0.00648758 0)
(0.00360568 -0.00648685 0)
(0.00504767 -0.00648575 0)
(0.00648938 -0.00648428 0)
(0.00793074 -0.00648244 0)
(0.00937165 -0.00648021 0)
(0.010812 -0.0064776 0)
(0.0122518 -0.00647459 0)
(0.0136909 -0.00647118 0)
(0.0151292 -0.00646736 0)
(0.0165666 -0.00646312 0)
(0.018003 -0.00645844 0)
(0.0194384 -0.00645332 0)
(0.0208726 -0.00644774 0)
(0.0223055 -0.00644169 0)
(0.023737 -0.00643514 0)
(0.0251671 -0.0064281 0)
(0.0265956 -0.00642053 0)
(0.0280223 -0.00641242 0)
(0.0294473 -0.00640376 0)
(0.0308702 -0.00639452 0)
(0.0322911 -0.00638468 0)
(0.0337098 -0.00637422 0)
(0.0351261 -0.00636313 0)
(0.0365399 -0.00635137 0)
(0.037951 -0.00633893 0)
(0.0393594 -0.00632578 0)
(0.0407647 -0.0063119 0)
(0.042167 -0.00629726 0)
(0.0435659 -0.00628184 0)
(0.0449614 -0.00626561 0)
(0.0463532 -0.00624855 0)
(0.0477412 -0.00623063 0)
(0.0491251 -0.00621182 0)
(0.0505048 -0.0061921 0)
(0.0518801 -0.00617143 0)
(0.0532506 -0.0061498 0)
(0.0546164 -0.00612717 0)
(0.055977 -0.00610352 0)
(0.0573323 -0.00607882 0)
(0.058682 -0.00605304 0)
(0.0600259 -0.00602616 0)
(0.0613638 -0.00599815 0)
(0.0626953 -0.00596897 0)
(0.0640203 -0.00593861 0)
(0.0653384 -0.00590705 0)
(0.0666494 -0.00587424 0)
(0.0679531 -0.00584018 0)
(0.069249 -0.00580483 0)
(0.070537 -0.00576817 0)
(0.0718167 -0.00573018 0)
(0.0730879 -0.00569084 0)
(0.0743502 -0.00565012 0)
(0.0756034 -0.00560801 0)
(0.076847 -0.00556449 0)
(0.0780809 -0.00551953 0)
(0.0793046 -0.00547313 0)
(0.0805179 -0.00542527 0)
(0.0817204 -0.00537593 0)
(0.0829117 -0.0053251 0)
(0.0840917 -0.00527277 0)
(0.0852598 -0.00521893 0)
(0.0864159 -0.00516358 0)
(0.0875594 -0.0051067 0)
(0.0886902 -0.00504829 0)
(0.0898078 -0.00498834 0)
(0.090912 -0.00492687 0)
(0.0920023 -0.00486386 0)
(0.0930784 -0.00479932 0)
(0.09414 -0.00473325 0)
(0.0951867 -0.00466566 0)
(0.0962182 -0.00459656 0)
(0.0972342 -0.00452596 0)
(0.0982344 -0.00445387 0)
(0.0992183 -0.0043803 0)
(0.100186 -0.00430528 0)
(0.101136 -0.00422881 0)
(0.102069 -0.00415091 0)
(0.102985 -0.00407162 0)
(0.103883 -0.00399095 0)
(0.104763 -0.00390893 0)
(0.105625 -0.00382559 0)
(0.106467 -0.00374095 0)
(0.107291 -0.00365504 0)
(0.108096 -0.00356791 0)
(0.108881 -0.00347958 0)
(0.109646 -0.00339009 0)
(0.110391 -0.00329948 0)
(0.111115 -0.00320779 0)
(0.11182 -0.00311506 0)
(0.112503 -0.00302132 0)
(0.113165 -0.00292663 0)
(0.113807 -0.00283103 0)
(0.114426 -0.00273456 0)
(0.115024 -0.00263728 0)
(0.115601 -0.00253922 0)
(0.116155 -0.00244044 0)
(0.116687 -0.00234098 0)
(0.117198 -0.0022409 0)
(0.117685 -0.00214025 0)
(0.11815 -0.00203907 0)
(0.118593 -0.00193743 0)
(0.119013 -0.00183536 0)
(0.11941 -0.00173292 0)
(0.119784 -0.00163017 0)
(0.120135 -0.00152715 0)
(0.120463 -0.00142392 0)
(0.120768 -0.00132052 0)
(0.121051 -0.00121701 0)
(0.12131 -0.00111344 0)
(0.121545 -0.00100986 0)
(0.121758 -0.000906316 0)
(0.121948 -0.000802857 0)
(0.122115 -0.000699531 0)
(0.122258 -0.000596385 0)
(0.122379 -0.000493466 0)
(0.122477 -0.000390819 0)
(0.122552 -0.000288487 0)
(0.122604 -0.000186513 0)
(0.122633 -8.49397e-05 0)
(0.12264 1.61925e-05 0)
(0.122625 0.000116844 0)
(0.122587 0.000216977 0)