/*--------------------------------*- C++ -*----------------------------------*\
| =========                 |                                                 |
| \\      /  F ield         | OpenFOAM: The Open Source CFD Toolbox           |
|  \\    /   O peration     | Version:  v2012                                 |
|   \\  /    A nd           | Website:  www.openfoam.com                      |
|    \\/     M anipulation  |                                                 |
\*---------------------------------------------------------------------------*/
FoamFile
{
    version     2.0;
    format      ascii;
    class       volScalarField;
    location    "3.4";
    object      W;
}
// * * * * * * * * * * * * * * * * * * * * * * * * * * * * * * * * * * * * * //

dimensions      [0 0 -1 0 0 0 0];


internalField   nonuniform List<scalar> 
65536
(
2.36625e-21
7.25193e-21
1.26108e-20
1.88027e-20
2.6252e-20
3.54728e-20
4.70962e-20
6.19024e-20
8.08616e-20
1.05184e-19
1.36383e-19
1.76356e-19
2.27475e-19
2.9271e-19
3.7577e-19
4.81276e-19
6.14972e-19
7.8398e-19
9.97108e-19
1.26521e-18
1.60165e-18
2.02281e-18
2.5487e-18
3.20376e-18
4.01768e-18
5.02647e-18
6.27366e-18
7.81173e-18
9.70374e-18
1.20253e-17
1.48666e-17
1.83354e-17
2.25594e-17
2.76897e-17
3.3905e-17
4.14154e-17
5.04672e-17
6.13486e-17
7.43954e-17
8.99977e-17
1.08607e-16
1.30746e-16
1.57012e-16
1.88094e-16
2.24777e-16
2.67954e-16
3.1864e-16
3.77978e-16
4.4726e-16
5.27932e-16
6.21609e-16
7.3009e-16
8.55369e-16
9.99646e-16
1.16534e-15
1.35509e-15
1.57179e-15
1.81856e-15
2.09877e-15
2.41603e-15
2.77421e-15
3.17741e-15
3.62996e-15
4.13638e-15
4.70142e-15
5.32995e-15
6.02698e-15
6.79762e-15
7.647e-15
8.58024e-15
9.60237e-15
1.07183e-14
1.19326e-14
1.32498e-14
1.46736e-14
1.62076e-14
1.78547e-14
1.96169e-14
2.14957e-14
2.34915e-14
2.56037e-14
2.78308e-14
3.01699e-14
3.26169e-14
3.51664e-14
3.78116e-14
4.05442e-14
4.33545e-14
4.62313e-14
4.9162e-14
5.21326e-14
5.51276e-14
5.81305e-14
6.11236e-14
6.4088e-14
6.70042e-14
6.9852e-14
7.26108e-14
7.52596e-14
7.77777e-14
8.01445e-14
8.23402e-14
8.43455e-14
8.61426e-14
8.77147e-14
8.90469e-14
9.0126e-14
9.09408e-14
9.14826e-14
9.1745e-14
9.17242e-14
9.14191e-14
9.08312e-14
8.99648e-14
8.88269e-14
8.74274e-14
8.57783e-14
8.38945e-14
8.17927e-14
7.9492e-14
7.70132e-14
7.43784e-14
7.16114e-14
6.87368e-14
6.57797e-14
6.27659e-14
5.97213e-14
5.66715e-14
5.36417e-14
5.06566e-14
4.77397e-14
4.49136e-14
4.21996e-14
3.96176e-14
3.71857e-14
3.49206e-14
3.28372e-14
3.09483e-14
2.92653e-14
2.77974e-14
2.6552e-14
2.55347e-14
2.47491e-14
2.41969e-14
2.38783e-14
2.37911e-14
2.39318e-14
2.42946e-14
2.48724e-14
2.5656e-14
2.66344e-14
2.77949e-14
2.91233e-14
3.06035e-14
3.22178e-14
3.3947e-14
3.57706e-14
3.76667e-14
3.96122e-14
4.15832e-14
4.35552e-14
4.55029e-14
4.74012e-14
4.9225e-14
5.09496e-14
5.25514e-14
5.40077e-14
5.52975e-14
5.64016e-14
5.73031e-14
5.79875e-14
5.84433e-14
5.86618e-14
5.86375e-14
5.83681e-14
5.78548e-14
5.71019e-14
5.61171e-14
5.49108e-14
5.34966e-14
5.18905e-14
5.01107e-14
4.81772e-14
4.61116e-14
4.39365e-14
4.1675e-14
3.93506e-14
3.69863e-14
3.46046e-14
3.22271e-14
2.9874e-14
2.75638e-14
2.53134e-14
2.31375e-14
2.10489e-14
1.90581e-14
1.71735e-14
1.54013e-14
1.37457e-14
1.2209e-14
1.07916e-14
9.49251e-15
8.30912e-15
7.23771e-15
6.27353e-15
5.41102e-15
4.64406e-15
3.96606e-15
3.37022e-15
2.84963e-15
2.39741e-15
2.00685e-15
1.67148e-15
1.38514e-15
1.14206e-15
9.36878e-16
7.64659e-16
6.20927e-16
5.01644e-16
4.03208e-16
3.22432e-16
2.56518e-16
2.03032e-16
1.59872e-16
1.2524e-16
9.76048e-17
7.56751e-17
5.83696e-17
4.47888e-17
3.419e-17
2.59641e-17
1.96151e-17
1.47418e-17
1.10217e-17
8.19755e-18
6.06538e-18
4.46444e-18
3.26898e-18
2.38118e-18
1.72546e-18
1.24381e-18
8.9194e-19
6.36284e-19
4.51545e-19
3.18774e-19
2.2387e-19
1.56397e-19
1.08679e-19
7.51006e-20
5.15755e-20
3.51401e-20
2.36504e-20
1.55544e-20
9.72117e-21
5.31367e-21
1.6882e-21
7.80228e-21
2.39116e-20
4.15805e-20
6.19949e-20
8.65532e-20
1.16949e-19
1.55261e-19
2.0406e-19
2.66541e-19
3.4669e-19
4.49493e-19
5.8119e-19
7.496e-19
9.64496e-19
1.23809e-18
1.58558e-18
2.02589e-18
2.58244e-18
3.2842e-18
4.16692e-18
5.27452e-18
6.66087e-18
8.39183e-18
1.05477e-17
1.32262e-17
1.65455e-17
2.06489e-17
2.57087e-17
3.19322e-17
3.95676e-17
4.89117e-17
6.03176e-17
7.42048e-17
9.107e-17
1.11499e-16
1.36182e-16
1.65926e-16
2.01677e-16
2.44537e-16
2.95784e-16
3.56899e-16
4.29591e-16
5.15824e-16
6.1785e-16
7.3824e-16
8.79919e-16
1.0462e-15
1.24084e-15
1.46805e-15
1.73257e-15
2.03966e-15
2.39521e-15
2.80573e-15
3.27841e-15
3.82112e-15
4.44251e-15
5.15196e-15
5.95967e-15
6.8766e-15
7.91453e-15
9.08602e-15
1.04044e-14
1.18837e-14
1.35388e-14
1.53848e-14
1.74376e-14
1.97136e-14
2.2229e-14
2.50007e-14
2.8045e-14
3.13781e-14
3.50159e-14
3.89731e-14
4.32638e-14
4.79004e-14
5.28939e-14
5.82533e-14
6.39853e-14
7.00938e-14
7.658e-14
8.34419e-14
9.06735e-14
9.82654e-14
1.06204e-13
1.14471e-13
1.23043e-13
1.31895e-13
1.40993e-13
1.50301e-13
1.59778e-13
1.69378e-13
1.79051e-13
1.88742e-13
1.98395e-13
2.07947e-13
2.17337e-13
2.26497e-13
2.35362e-13
2.43865e-13
2.51937e-13
2.59514e-13
2.66531e-13
2.72926e-13
2.78643e-13
2.83628e-13
2.87834e-13
2.91218e-13
2.93746e-13
2.9539e-13
2.96131e-13
2.95957e-13
2.94866e-13
2.92864e-13
2.89965e-13
2.86194e-13
2.81583e-13
2.76171e-13
2.70008e-13
2.63148e-13
2.55653e-13
2.47591e-13
2.39034e-13
2.30058e-13
2.20743e-13
2.1117e-13
2.01422e-13
1.91582e-13
1.81732e-13
1.71954e-13
1.62326e-13
1.52923e-13
1.43818e-13
1.35078e-13
1.26766e-13
1.18941e-13
1.11654e-13
1.04953e-13
9.88781e-14
9.34651e-14
8.87426e-14
8.47338e-14
8.14554e-14
7.89184e-14
7.71278e-14
7.60827e-14
7.57762e-14
7.61958e-14
7.73231e-14
7.91341e-14
8.15992e-14
8.4683e-14
8.83447e-14
9.25383e-14
9.72122e-14
1.0231e-13
1.07771e-13
1.13528e-13
1.19514e-13
1.25653e-13
1.31871e-13
1.38088e-13
1.44227e-13
1.50206e-13
1.55946e-13
1.61371e-13
1.66404e-13
1.70975e-13
1.75017e-13
1.7847e-13
1.81281e-13
1.83405e-13
1.84805e-13
1.85455e-13
1.85338e-13
1.84447e-13
1.82786e-13
1.8037e-13
1.77223e-13
1.73378e-13
1.68879e-13
1.63777e-13
1.58129e-13
1.51998e-13
1.45454e-13
1.38568e-13
1.31412e-13
1.2406e-13
1.16586e-13
1.0906e-13
1.0155e-13
9.41194e-14
8.68271e-14
7.97255e-14
7.28611e-14
6.62739e-14
5.99968e-14
5.40559e-14
4.84707e-14
4.32542e-14
3.84134e-14
3.39494e-14
2.98587e-14
2.6133e-14
2.27605e-14
1.97261e-14
1.70121e-14
1.45991e-14
1.24664e-14
1.05924e-14
8.95524e-15
7.53334e-15
6.30548e-15
5.25125e-15
4.35127e-15
3.58735e-15
2.94258e-15
2.40147e-15
1.94991e-15
1.5752e-15
1.26601e-15
1.01232e-15
8.05316e-16
6.37359e-16
5.01842e-16
3.93107e-16
3.06347e-16
2.37505e-16
1.83182e-16
1.40555e-16
1.07289e-16
8.14723e-17
6.15474e-17
4.62542e-17
3.45807e-17
2.57191e-17
1.9029e-17
1.40059e-17
1.02552e-17
7.46991e-18
5.41277e-18
3.90175e-18
2.79791e-18
1.99592e-18
1.4164e-18
9.99916e-19
7.02219e-19
4.90571e-19
3.40891e-19
2.35567e-19
1.61776e-19
1.10224e-19
7.41846e-20
4.87899e-20
3.04931e-20
1.66681e-20
5.29575e-21
1.5545e-20
4.764e-20
8.284e-20
1.23505e-19
1.72418e-19
2.32949e-19
3.09232e-19
4.0638e-19
5.30746e-19
6.90256e-19
8.94819e-19
1.15684e-18
1.49185e-18
1.91928e-18
2.46336e-18
3.15431e-18
4.02965e-18
5.13593e-18
6.53063e-18
8.28466e-18
1.04852e-17
1.3239e-17
1.66768e-17
2.09577e-17
2.62753e-17
3.2864e-17
4.10074e-17
5.10469e-17
6.33928e-17
7.85366e-17
9.70652e-17
1.19677e-16
1.47203e-16
1.80623e-16
2.21096e-16
2.69983e-16
3.28882e-16
3.99657e-16
4.84482e-16
5.8588e-16
7.0677e-16
8.50519e-16
1.021e-15
1.22264e-15
1.46049e-15
1.74033e-15
2.06865e-15
2.45284e-15
2.90116e-15
3.4229e-15
4.02842e-15
4.72923e-15
5.53807e-15
6.46901e-15
7.53748e-15
8.76033e-15
1.01559e-14
1.17441e-14
1.35462e-14
1.55852e-14
1.78856e-14
2.04731e-14
2.33751e-14
2.66201e-14
3.02378e-14
3.42587e-14
3.87141e-14
4.36357e-14
4.90555e-14
5.50049e-14
6.1515e-14
6.86156e-14
7.6335e-14
8.46993e-14
9.37322e-14
1.03454e-13
1.1388e-13
1.25023e-13
1.3689e-13
1.49481e-13
1.6279e-13
1.76806e-13
1.91507e-13
2.06867e-13
2.22847e-13
2.39404e-13
2.56482e-13
2.74019e-13
2.91943e-13
3.10171e-13
3.28615e-13
3.47177e-13
3.6575e-13
3.84224e-13
4.02481e-13
4.20397e-13
4.37847e-13
4.54702e-13
4.70834e-13
4.86114e-13
5.00417e-13
5.13621e-13
5.25609e-13
5.36274e-13
5.45516e-13
5.53245e-13
5.59385e-13
5.63872e-13
5.66657e-13
5.67705e-13
5.66997e-13
5.64534e-13
5.60329e-13
5.54415e-13
5.46841e-13
5.37672e-13
5.26988e-13
5.14883e-13
5.01467e-13
4.8686e-13
4.71192e-13
4.54603e-13
4.3724e-13
4.19255e-13
4.00805e-13
3.82048e-13
3.63141e-13
3.44241e-13
3.255e-13
3.07068e-13
2.89086e-13
2.7169e-13
2.55006e-13
2.39152e-13
2.24234e-13
2.10351e-13
1.97589e-13
1.86022e-13
1.75714e-13
1.66717e-13
1.59071e-13
1.52806e-13
1.47941e-13
1.4448e-13
1.42422e-13
1.41749e-13
1.42436e-13
1.44447e-13
1.47734e-13
1.5224e-13
1.57897e-13
1.64628e-13
1.72343e-13
1.80947e-13
1.90333e-13
2.00386e-13
2.10983e-13
2.21993e-13
2.3328e-13
2.44704e-13
2.56118e-13
2.67376e-13
2.7833e-13
2.88834e-13
2.98744e-13
3.07923e-13
3.1624e-13
3.23573e-13
3.29814e-13
3.34865e-13
3.38645e-13
3.41088e-13
3.42146e-13
3.4179e-13
3.4001e-13
3.36815e-13
3.32232e-13
3.26309e-13
3.19109e-13
3.10712e-13
3.01213e-13
2.9072e-13
2.79349e-13
2.67228e-13
2.54487e-13
2.41263e-13
2.27689e-13
2.13901e-13
2.00029e-13
1.86195e-13
1.72518e-13
1.59102e-13
1.46046e-13
1.33432e-13
1.21334e-13
1.09811e-13
9.891e-14
8.86665e-14
7.91032e-14
7.02322e-14
6.2055e-14
5.45644e-14
4.77446e-14
4.15734e-14
3.60226e-14
3.10596e-14
2.66484e-14
2.27507e-14
1.93267e-14
1.63364e-14
1.37399e-14
1.14983e-14
9.57418e-15
7.93194e-15
6.53828e-15
5.36227e-15
4.37552e-15
3.55223e-15
2.8692e-15
2.30569e-15
1.84341e-15
1.46627e-15
1.16032e-15
9.13504e-16
7.15494e-16
5.57522e-16
4.32191e-16
3.33307e-16
2.55721e-16
1.95181e-16
1.48203e-16
1.1195e-16
8.41268e-17
6.28909e-17
4.67716e-17
3.46033e-17
2.54678e-17
1.86467e-17
1.35817e-17
9.84101e-18
7.09355e-18
5.08656e-18
3.62845e-18
2.57487e-18
1.81771e-18
1.27652e-18
8.91766e-19
6.19673e-19
4.28212e-19
2.94076e-19
2.00366e-19
1.34855e-19
8.86934e-20
5.54334e-20
3.03015e-20
9.62757e-21
2.78343e-20
8.53006e-20
1.48321e-19
2.21116e-19
3.0866e-19
4.16976e-19
5.53452e-19
7.27223e-19
9.49635e-19
1.23484e-18
1.60054e-18
2.06886e-18
2.66753e-18
3.43119e-18
4.4031e-18
5.63712e-18
7.20015e-18
9.17512e-18
1.16645e-17
1.47946e-17
1.87206e-17
2.36327e-17
2.97633e-17
3.73959e-17
4.68744e-17
5.8616e-17
7.31245e-17
9.10066e-17
1.12991e-16
1.39951e-16
1.72928e-16
2.13161e-16
2.62122e-16
3.21551e-16
3.93499e-16
4.8038e-16
5.85019e-16
7.10717e-16
8.61318e-16
1.04128e-15
1.25576e-15
1.51071e-15
1.81295e-15
2.17029e-15
2.59166e-15
3.08719e-15
3.66836e-15
4.34811e-15
5.14099e-15
6.0633e-15
7.13321e-15
8.37092e-15
9.79874e-15
1.14413e-14
1.33255e-14
1.54808e-14
1.79392e-14
2.07354e-14
2.39065e-14
2.74923e-14
3.15352e-14
3.60802e-14
4.11742e-14
4.68667e-14
5.32087e-14
6.02528e-14
6.80526e-14
7.66625e-14
8.61368e-14
9.65292e-14
1.07892e-13
1.20276e-13
1.33728e-13
1.48292e-13
1.64006e-13
1.80904e-13
1.9901e-13
2.18343e-13
2.38911e-13
2.60713e-13
2.83736e-13
3.07955e-13
3.33331e-13
3.59813e-13
3.87334e-13
4.15813e-13
4.45153e-13
4.75242e-13
5.05951e-13
5.37138e-13
5.68647e-13
6.00306e-13
6.31933e-13
6.63333e-13
6.94304e-13
7.24634e-13
7.54108e-13
7.82506e-13
8.09608e-13
8.35197e-13
8.59062e-13
8.80996e-13
9.00807e-13
9.18313e-13
9.3335e-13
9.45771e-13
9.55453e-13
9.62292e-13
9.66213e-13
9.67165e-13
9.65124e-13
9.60096e-13
9.52116e-13
9.41246e-13
9.27575e-13
9.11223e-13
8.92333e-13
8.71071e-13
8.47628e-13
8.22212e-13
7.95051e-13
7.66383e-13
7.36462e-13
7.05546e-13
6.73901e-13
6.41795e-13
6.09493e-13
5.77258e-13
5.45347e-13
5.14007e-13
4.83474e-13
4.53973e-13
4.25711e-13
3.98881e-13
3.7366e-13
3.50203e-13
3.28651e-13
3.09122e-13
2.91716e-13
2.76516e-13
2.63583e-13
2.52959e-13
2.44669e-13
2.38718e-13
2.35093e-13
2.33764e-13
2.34682e-13
2.37783e-13
2.42983e-13
2.50184e-13
2.59269e-13
2.70106e-13
2.82549e-13
2.96433e-13
3.11583e-13
3.27806e-13
3.44901e-13
3.62652e-13
3.80837e-13
3.99223e-13
4.17573e-13
4.35649e-13
4.5321e-13
4.7002e-13
4.85847e-13
5.0047e-13
5.13677e-13
5.25277e-13
5.35093e-13
5.42972e-13
5.48785e-13
5.5243e-13
5.53834e-13
5.52952e-13
5.49771e-13
5.44311e-13
5.3662e-13
5.26776e-13
5.14886e-13
5.01081e-13
4.85518e-13
4.68372e-13
4.49834e-13
4.30108e-13
4.09409e-13
3.87953e-13
3.65959e-13
3.43644e-13
3.21215e-13
2.98871e-13
2.76799e-13
2.55168e-13
2.34131e-13
2.13824e-13
1.9436e-13
1.75834e-13
1.5832e-13
1.41871e-13
1.26524e-13
1.12295e-13
9.91864e-14
8.71843e-14
7.62625e-14
6.6384e-14
5.75027e-14
4.95652e-14
4.25133e-14
3.62846e-14
3.08153e-14
2.60404e-14
2.18958e-14
1.83189e-14
1.52496e-14
1.26309e-14
1.04092e-14
8.53504e-15
6.96295e-15
5.65165e-15
4.56402e-15
3.66695e-15
2.9312e-15
2.33111e-15
1.84439e-15
1.45182e-15
1.13695e-15
8.85798e-16
6.86575e-16
5.29418e-16
4.06131e-16
3.09946e-16
2.35319e-16
1.77737e-16
1.3355e-16
9.98293e-17
7.42361e-17
5.49181e-17
4.04164e-17
2.95897e-17
2.15509e-17
1.56145e-17
1.12546e-17
8.06999e-18
5.75644e-18
4.08483e-18
2.88359e-18
2.02501e-18
1.41464e-18
9.82998e-19
6.7928e-19
4.665e-19
3.17848e-19
2.1393e-19
1.40703e-19
8.79421e-20
4.8073e-20
1.52743e-20
4.81441e-20
1.47538e-19
2.56528e-19
3.82402e-19
5.33751e-19
7.20971e-19
9.56812e-19
1.25703e-18
1.64121e-18
2.13375e-18
2.76515e-18
3.57359e-18
4.60682e-18
5.92453e-18
7.60121e-18
9.7296e-18
1.24249e-17
1.58297e-17
2.01205e-17
2.55143e-17
3.22779e-17
4.07384e-17
5.12952e-17
6.44346e-17
8.07478e-17
1.00951e-16
1.25907e-16
1.56658e-16
1.94454e-16
2.40788e-16
2.97447e-16
3.66552e-16
4.50622e-16
5.52633e-16
6.76093e-16
8.25125e-16
1.00456e-15
1.22002e-15
1.47807e-15
1.78632e-15
2.15356e-15
2.5899e-15
3.10696e-15
3.71805e-15
4.43831e-15
5.28495e-15
6.27745e-15
7.43775e-15
8.79052e-15
1.03633e-14
1.21869e-14
1.42953e-14
1.67263e-14
1.95214e-14
2.27258e-14
2.63892e-14
3.05652e-14
3.5312e-14
4.06918e-14
4.67713e-14
5.36213e-14
6.13165e-14
6.99354e-14
7.95598e-14
9.02743e-14
1.02166e-13
1.15323e-13
1.29835e-13
1.45791e-13
1.63278e-13
1.82382e-13
2.03184e-13
2.25759e-13
2.50177e-13
2.76499e-13
3.04774e-13
3.35041e-13
3.67325e-13
4.01634e-13
4.3796e-13
4.76277e-13
5.16536e-13
5.58667e-13
6.02579e-13
6.48153e-13
6.95249e-13
7.437e-13
7.93312e-13
8.4387e-13
8.95131e-13
9.46831e-13
9.98684e-13
1.05038e-12
1.10161e-12
1.15202e-12
1.20126e-12
1.24899e-12
1.29485e-12
1.33846e-12
1.37949e-12
1.41759e-12
1.45242e-12
1.48368e-12
1.51107e-12
1.53435e-12
1.55327e-12
1.56766e-12
1.57735e-12
1.58223e-12
1.58224e-12
1.57735e-12
1.56758e-12
1.55302e-12
1.53376e-12
1.50998e-12
1.48188e-12
1.44971e-12
1.41375e-12
1.37433e-12
1.33178e-12
1.28649e-12
1.23885e-12
1.18928e-12
1.13821e-12
1.08606e-12
1.03326e-12
9.80263e-13
9.27475e-13
8.7531e-13
8.24163e-13
7.74411e-13
7.26406e-13
6.80477e-13
6.36925e-13
5.96024e-13
5.58015e-13
5.23112e-13
4.91496e-13
4.63316e-13
4.38691e-13
4.17708e-13
4.00425e-13
3.8687e-13
3.77041e-13
3.70907e-13
3.6841e-13
3.69465e-13
3.73957e-13
3.8175e-13
3.92678e-13
4.06551e-13
4.23155e-13
4.42252e-13
4.63582e-13
4.86861e-13
5.11788e-13
5.38041e-13
5.65284e-13
5.93165e-13
6.21324e-13
6.49391e-13
6.76995e-13
7.03766e-13
7.29336e-13
7.53352e-13
7.75472e-13
7.95377e-13
8.12771e-13
8.27389e-13
8.39e-13
8.47411e-13
8.52472e-13
8.54075e-13
8.52161e-13
8.46716e-13
8.37776e-13
8.25421e-13
8.09778e-13
7.91018e-13
7.69348e-13
7.45011e-13
7.18281e-13
6.89454e-13
6.58848e-13
6.2679e-13
5.93616e-13
5.59661e-13
5.25254e-13
4.90716e-13
4.56347e-13
4.22432e-13
3.89227e-13
3.56966e-13
3.2585e-13
2.9605e-13
2.67709e-13
2.40935e-13
2.15809e-13
1.92381e-13
1.70674e-13
1.50689e-13
1.32402e-13
1.15771e-13
1.00736e-13
8.72266e-14
7.51591e-14
6.44431e-14
5.49827e-14
4.66794e-14
3.94336e-14
3.3147e-14
2.77237e-14
2.30719e-14
1.91044e-14
1.57398e-14
1.29024e-14
1.05232e-14
8.53931e-15
6.89433e-15
5.53797e-15
4.42583e-15
3.51901e-15
2.78371e-15
2.19079e-15
1.71534e-15
1.33618e-15
1.03549e-15
7.9834e-16
6.12336e-16
4.67249e-16
3.547e-16
2.67872e-16
2.01254e-16
1.50421e-16
1.11847e-16
8.27337e-17
6.08817e-17
4.45693e-17
3.24585e-17
2.3516e-17
1.69489e-17
1.21524e-17
8.66813e-18
6.15078e-18
4.34186e-18
3.04902e-18
2.12996e-18
1.48005e-18
1.02275e-18
7.02386e-19
4.78575e-19
3.22115e-19
2.11864e-19
1.32423e-19
7.23905e-20
2.30013e-20
8.20832e-20
2.51539e-19
4.37333e-19
6.51877e-19
9.09788e-19
1.22876e-18
1.63047e-18
2.14172e-18
2.7958e-18
3.63419e-18
4.70871e-18
6.08422e-18
7.84181e-18
1.00828e-17
1.29338e-17
1.65519e-17
2.11327e-17
2.69182e-17
3.42071e-17
4.33677e-17
5.48521e-17
6.92139e-17
8.71295e-17
1.09422e-16
1.37093e-16
1.71351e-16
2.13658e-16
2.65774e-16
3.29808e-16
4.08287e-16
5.04222e-16
6.21194e-16
7.63449e-16
9.36005e-16
1.14477e-15
1.39669e-15
1.69988e-15
2.06383e-15
2.49954e-15
3.01981e-15
3.63937e-15
4.37522e-15
5.24684e-15
6.27649e-15
7.48955e-15
8.91479e-15
1.05848e-14
1.25361e-14
1.48101e-14
1.74525e-14
2.05146e-14
2.4053e-14
2.81306e-14
3.28159e-14
3.81845e-14
4.43181e-14
5.13058e-14
5.92433e-14
6.82335e-14
7.83861e-14
8.98173e-14
1.0265e-13
1.17012e-13
1.33038e-13
1.50865e-13
1.70635e-13
1.92492e-13
2.16578e-13
2.43038e-13
2.72013e-13
3.03637e-13
3.38039e-13
3.75339e-13
4.15644e-13
4.59047e-13
5.05623e-13
5.55427e-13
6.0849e-13
6.64818e-13
7.24389e-13
7.87146e-13
8.53003e-13
9.21834e-13
9.93477e-13
1.06773e-12
1.14435e-12
1.22306e-12
1.30352e-12
1.38539e-12
1.46825e-12
1.55166e-12
1.63516e-12
1.71824e-12
1.80037e-12
1.88101e-12
1.95958e-12
2.03551e-12
2.10823e-12
2.17714e-12
2.2417e-12
2.30135e-12
2.35558e-12
2.40388e-12
2.44583e-12
2.48101e-12
2.50907e-12
2.52974e-12
2.54278e-12
2.54803e-12
2.54542e-12
2.53493e-12
2.51662e-12
2.49063e-12
2.45718e-12
2.41655e-12
2.36908e-12
2.3152e-12
2.25539e-12
2.19016e-12
2.1201e-12
2.04582e-12
1.96797e-12
1.8872e-12
1.80422e-12
1.71971e-12
1.63436e-12
1.54885e-12
1.46386e-12
1.38003e-12
1.29797e-12
1.21829e-12
1.14151e-12
1.06815e-12
9.98671e-13
9.33488e-13
8.72967e-13
8.17426e-13
7.6713e-13
7.22298e-13
6.83098e-13
6.49649e-13
6.22022e-13
6.00242e-13
5.8429e-13
5.741e-13
5.69566e-13
5.70539e-13
5.76829e-13
5.88207e-13
6.04404e-13
6.25116e-13
6.5e-13
6.7868e-13
7.10746e-13
7.45756e-13
7.83239e-13
8.22699e-13
8.63615e-13
9.05449e-13
9.47647e-13
9.89647e-13
1.03088e-12
1.0708e-12
1.10883e-12
1.14445e-12
1.17715e-12
1.20644e-12
1.2319e-12
1.25312e-12
1.26977e-12
1.28157e-12
1.28829e-12
1.2898e-12
1.286e-12
1.27689e-12
1.26254e-12
1.24308e-12
1.2187e-12
1.18968e-12
1.15634e-12
1.11904e-12
1.0782e-12
1.03428e-12
9.87758e-13
9.39126e-13
8.88889e-13
8.37551e-13
7.85605e-13
7.33529e-13
6.81773e-13
6.30757e-13
5.80864e-13
5.32436e-13
4.85772e-13
4.41122e-13
3.98694e-13
3.58644e-13
3.21089e-13
2.86097e-13
2.537e-13
2.23893e-13
1.96636e-13
1.71862e-13
1.49481e-13
1.29382e-13
1.11438e-13
9.55128e-14
8.14608e-14
6.91335e-14
5.83816e-14
4.90574e-14
4.10173e-14
3.41239e-14
2.82471e-14
2.32652e-14
1.90657e-14
1.55456e-14
1.26114e-14
1.01793e-14
8.17463e-15
6.53141e-15
5.19196e-15
4.10619e-15
3.2309e-15
2.5292e-15
1.96977e-15
1.52622e-15
1.17648e-15
9.02222e-16
6.88342e-16
5.2246e-16
3.94511e-16
2.9636e-16
2.21479e-16
1.64664e-16
1.2179e-16
8.9614e-17
6.55975e-17
4.7769e-17
3.4606e-17
2.49403e-17
1.78813e-17
1.27539e-17
9.0496e-18
6.38795e-18
4.48576e-18
3.13357e-18
2.17741e-18
1.50465e-18
1.03334e-18
7.04083e-19
4.73911e-19
3.11715e-19
1.94841e-19
1.06515e-19
3.3845e-20
1.38811e-19
4.25367e-19
7.39518e-19
1.10222e-18
1.53815e-18
2.07716e-18
2.75583e-18
3.61938e-18
4.72392e-18
6.13939e-18
7.95314e-18
1.02744e-17
1.32399e-17
1.70202e-17
2.18283e-17
2.79289e-17
3.56509e-17
4.54013e-17
5.76828e-17
7.31142e-17
9.24552e-17
1.16636e-16
1.46793e-16
1.84308e-16
2.30859e-16
2.88478e-16
3.59615e-16
4.47219e-16
5.54825e-16
6.86664e-16
8.47778e-16
1.04416e-15
1.28291e-15
1.57242e-15
1.92256e-15
2.34492e-15
2.85306e-15
3.46279e-15
4.19249e-15
5.06343e-15
6.10018e-15
7.331e-15
8.78828e-15
1.0509e-14
1.25354e-14
1.4915e-14
1.7702e-14
2.0957e-14
2.4748e-14
2.91511e-14
3.42508e-14
4.01406e-14
4.69239e-14
5.47138e-14
6.36342e-14
7.38198e-14
8.54162e-14
9.85804e-14
1.13481e-13
1.30296e-13
1.49215e-13
1.70439e-13
1.94175e-13
2.2064e-13
2.50058e-13
2.82655e-13
3.18662e-13
3.5831e-13
4.01827e-13
4.49437e-13
5.01353e-13
5.57777e-13
6.18894e-13
6.8487e-13
7.55844e-13
8.31926e-13
9.13192e-13
9.99681e-13
1.09139e-12
1.18825e-12
1.29018e-12
1.397e-12
1.5085e-12
1.6244e-12
1.74435e-12
1.86795e-12
1.99471e-12
2.1241e-12
2.25551e-12
2.38829e-12
2.5217e-12
2.65499e-12
2.78732e-12
2.91785e-12
3.04567e-12
3.16989e-12
3.28958e-12
3.4038e-12
3.51166e-12
3.61224e-12
3.70471e-12
3.78822e-12
3.86204e-12
3.92546e-12
3.97788e-12
4.01878e-12
4.04771e-12
4.06438e-12
4.06855e-12
4.06014e-12
4.03917e-12
4.00578e-12
3.96023e-12
3.9029e-12
3.83428e-12
3.75496e-12
3.66563e-12
3.5671e-12
3.46021e-12
3.34591e-12
3.22519e-12
3.09909e-12
2.96868e-12
2.83506e-12
2.69931e-12
2.56253e-12
2.4258e-12
2.29016e-12
2.15662e-12
2.02614e-12
1.89962e-12
1.7779e-12
1.66176e-12
1.5519e-12
1.44893e-12
1.35341e-12
1.26581e-12
1.1865e-12
1.11581e-12
1.05396e-12
1.00111e-12
9.57345e-13
9.2267e-13
8.97028e-13
8.80294e-13
8.72276e-13
8.7272e-13
8.8131e-13
8.97674e-13
9.21379e-13
9.51939e-13
9.88814e-13
1.03141e-12
1.0791e-12
1.13119e-12
1.18695e-12
1.24563e-12
1.30643e-12
1.36853e-12
1.43109e-12
1.49326e-12
1.55419e-12
1.61304e-12
1.66898e-12
1.72122e-12
1.76899e-12
1.81159e-12
1.84838e-12
1.87878e-12
1.9023e-12
1.91853e-12
1.92716e-12
1.92799e-12
1.92092e-12
1.90595e-12
1.88319e-12
1.85285e-12
1.81526e-12
1.77082e-12
1.72002e-12
1.66343e-12
1.60167e-12
1.53544e-12
1.46543e-12
1.3924e-12
1.3171e-12
1.24027e-12
1.16265e-12
1.08494e-12
1.0078e-12
9.31856e-13
8.57664e-13
7.85725e-13
7.16473e-13
6.50274e-13
5.87422e-13
5.28145e-13
4.72604e-13
4.20894e-13
3.73055e-13
3.2907e-13
2.88877e-13
2.52369e-13
2.19409e-13
1.89826e-13
1.63432e-13
1.4002e-13
1.19373e-13
1.0127e-13
8.54882e-14
7.18088e-14
6.0019e-14
4.99153e-14
4.13054e-14
3.40096e-14
2.78622e-14
2.27112e-14
1.84193e-14
1.48631e-14
1.19328e-14
9.53174e-15
7.57515e-15
5.98958e-15
4.71178e-15
3.68767e-15
2.87142e-15
2.2244e-15
1.71435e-15
1.31448e-15
1.00271e-15
7.6095e-16
5.74512e-16
4.3152e-16
3.22447e-16
2.39703e-16
1.77272e-16
1.30425e-16
9.54625e-17
6.95113e-17
5.03534e-17
3.6287e-17
2.6015e-17
1.85543e-17
1.31648e-17
9.29251e-18
6.52523e-18
4.55819e-18
3.1673e-18
2.18869e-18
1.50312e-18
1.0242e-18
6.89394e-19
4.53465e-19
2.83455e-19
1.54964e-19
4.92407e-20
2.33293e-19
7.14875e-19
1.24278e-18
1.85216e-18
2.58443e-18
3.48965e-18
4.62916e-18
6.07875e-18
7.93247e-18
1.03075e-17
1.33501e-17
1.72434e-17
2.2216e-17
2.85535e-17
3.66123e-17
4.68353e-17
5.97724e-17
7.61041e-17
9.66704e-17
1.22505e-16
1.54878e-16
1.95341e-16
2.45791e-16
3.08535e-16
3.86371e-16
4.82686e-16
6.01565e-16
7.4792e-16
9.2764e-16
1.14777e-15
1.41669e-15
1.74437e-15
2.14263e-15
2.62539e-15
3.20905e-15
3.91286e-15
4.7593e-15
5.77459e-15
6.98917e-15
8.43829e-15
1.01626e-14
1.22088e-14
1.46305e-14
1.74888e-14
2.08532e-14
2.48024e-14
2.94253e-14
3.48219e-14
4.11041e-14
4.83968e-14
5.68388e-14
6.65835e-14
7.78001e-14
9.06738e-14
1.05407e-13
1.2222e-13
1.41349e-13
1.63051e-13
1.87599e-13
2.15282e-13
2.46409e-13
2.81301e-13
3.20296e-13
3.63741e-13
4.11995e-13
4.65423e-13
5.24391e-13
5.89268e-13
6.60415e-13
7.38184e-13
8.2291e-13
9.14907e-13
1.01446e-12
1.12182e-12
1.2372e-12
1.36075e-12
1.49258e-12
1.63273e-12
1.78115e-12
1.93775e-12
2.10233e-12
2.27459e-12
2.45416e-12
2.64056e-12
2.8332e-12
3.0314e-12
3.23437e-12
3.44121e-12
3.65094e-12
3.86246e-12
4.0746e-12
4.2861e-12
4.49565e-12
4.70185e-12
4.90328e-12
5.09847e-12
5.28597e-12
5.4643e-12
5.63202e-12
5.78773e-12
5.93007e-12
6.05778e-12
6.16969e-12
6.26475e-12
6.34203e-12
6.40074e-12
6.44027e-12
6.46016e-12
6.46014e-12
6.44013e-12
6.40021e-12
6.34068e-12
6.26202e-12
6.16487e-12
6.05009e-12
5.91866e-12
5.77173e-12
5.61059e-12
5.43666e-12
5.25144e-12
5.05653e-12
4.8536e-12
4.64434e-12
4.43048e-12
4.21376e-12
3.99588e-12
3.77854e-12
3.56334e-12
3.35186e-12
3.14557e-12
2.94586e-12
2.75401e-12
2.57119e-12
2.39845e-12
2.23672e-12
2.08682e-12
1.94942e-12
1.82508e-12
1.71424e-12
1.61722e-12
1.5342e-12
1.46527e-12
1.4104e-12
1.36946e-12
1.34221e-12
1.32833e-12
1.32738e-12
1.33885e-12
1.36213e-12
1.39654e-12
1.4413e-12
1.49557e-12
1.55843e-12
1.62888e-12
1.70589e-12
1.78833e-12
1.87504e-12
1.96481e-12
2.05642e-12
2.14858e-12
2.24004e-12
2.3295e-12
2.41572e-12
2.49748e-12
2.57358e-12
2.64291e-12
2.70444e-12
2.75721e-12
2.8004e-12
2.83329e-12
2.85531e-12
2.86602e-12
2.86514e-12
2.85255e-12
2.82827e-12
2.7925e-12
2.74558e-12
2.688e-12
2.62039e-12
2.54348e-12
2.45815e-12
2.36532e-12
2.26602e-12
2.16131e-12
2.0523e-12
1.94009e-12
1.8258e-12
1.71049e-12
1.59521e-12
1.48092e-12
1.36853e-12
1.25886e-12
1.15262e-12
1.05046e-12
9.52889e-13
8.60335e-13
7.73119e-13
6.91465e-13
6.15504e-13
5.45281e-13
4.80762e-13
4.21845e-13
3.68366e-13
3.20114e-13
2.76834e-13
2.38242e-13
2.04029e-13
1.73874e-13
1.47449e-13
1.24424e-13
1.04476e-13
8.72919e-14
7.2572e-14
6.00339e-14
4.94142e-14
4.04697e-14
3.2978e-14
2.67381e-14
2.15697e-14
1.73126e-14
1.38254e-14
1.09847e-14
8.68344e-15
6.82938e-15
5.34385e-15
4.16014e-15
3.2221e-15
2.48282e-15
1.90337e-15
1.45167e-15
1.1015e-15
8.31498e-16
6.24457e-16
4.66557e-16
3.46789e-16
2.5644e-16
1.88652e-16
1.38068e-16
1.00526e-16
7.28147e-17
5.24702e-17
3.76149e-17
2.68262e-17
1.90332e-17
1.34343e-17
9.43335e-18
6.58954e-18
4.57875e-18
3.16403e-18
2.17298e-18
1.48065e-18
9.96661e-19
6.55601e-19
4.09824e-19
2.24058e-19
7.11973e-20
3.89897e-19
1.19472e-18
2.07686e-18
3.095e-18
4.3182e-18
5.82996e-18
7.73258e-18
1.01524e-17
1.32461e-17
1.7209e-17
2.22848e-17
2.87782e-17
3.70701e-17
4.76359e-17
6.10683e-17
7.81043e-17
9.96585e-17
1.26862e-16
1.61112e-16
2.04125e-16
2.5801e-16
3.25346e-16
4.0928e-16
5.1364e-16
6.43069e-16
8.03184e-16
1.00075e-15
1.24392e-15
1.54243e-15
1.90796e-15
2.35437e-15
2.89816e-15
3.55885e-15
4.35946e-15
5.3271e-15
6.4935e-15
7.8958e-15
9.57722e-15
1.15879e-14
1.3986e-14
1.68383e-14
2.02218e-14
2.42245e-14
2.89467e-14
3.45025e-14
4.10212e-14
4.86483e-14
5.75477e-14
6.79024e-14
7.99166e-14
9.3817e-14
1.09854e-13
1.28303e-13
1.49465e-13
1.7367e-13
2.01275e-13
2.32665e-13
2.68254e-13
3.08482e-13
3.5382e-13
4.04763e-13
4.61828e-13
5.25556e-13
5.96506e-13
6.75248e-13
7.62365e-13
8.58439e-13
9.64053e-13
1.07978e-12
1.20616e-12
1.34372e-12
1.49296e-12
1.6543e-12
1.82812e-12
2.01474e-12
2.21437e-12
2.42715e-12
2.65311e-12
2.89214e-12
3.14404e-12
3.40845e-12
3.68487e-12
3.97264e-12
4.27096e-12
4.57883e-12
4.89512e-12
5.21853e-12
5.54758e-12
5.88066e-12
6.21599e-12
6.55167e-12
6.88567e-12
7.21586e-12
7.54003e-12
7.85588e-12
8.16111e-12
8.45339e-12
8.7304e-12
8.98987e-12
9.22961e-12
9.44753e-12
9.64166e-12
9.81023e-12
9.95161e-12
1.00644e-11
1.01475e-11
1.02e-11
1.02212e-11
1.02109e-11
1.01689e-11
1.00956e-11
9.99141e-12
9.8573e-12
9.69437e-12
9.504e-12
9.28787e-12
9.04785e-12
8.78604e-12
8.50473e-12
8.20634e-12
7.89341e-12
7.5686e-12
7.23459e-12
6.89411e-12
6.54987e-12
6.20455e-12
5.86074e-12
5.52099e-12
5.18767e-12
4.86307e-12
4.5493e-12
4.24829e-12
3.96182e-12
3.69146e-12
3.43859e-12
3.2044e-12
2.98988e-12
2.79581e-12
2.6228e-12
2.47128e-12
2.34146e-12
2.2334e-12
2.14701e-12
2.08202e-12
2.03799e-12
2.01437e-12
2.01044e-12
2.02537e-12
2.05819e-12
2.1078e-12
2.17299e-12
2.25245e-12
2.34475e-12
2.44836e-12
2.56168e-12
2.683e-12
2.81057e-12
2.94256e-12
3.07709e-12
3.21229e-12
3.34623e-12
3.47702e-12
3.60279e-12
3.72173e-12
3.8321e-12
3.93225e-12
4.02067e-12
4.09599e-12
4.15699e-12
4.20266e-12
4.23216e-12
4.2449e-12
4.24051e-12
4.21882e-12
4.17993e-12
4.12415e-12
4.05203e-12
3.96431e-12
3.86196e-12
3.7461e-12
3.618e-12
3.47909e-12
3.33087e-12
3.17493e-12
3.01289e-12
2.8464e-12
2.67708e-12
2.5065e-12
2.33618e-12
2.16754e-12
2.00189e-12
1.84042e-12
1.68418e-12
1.53406e-12
1.39083e-12
1.25508e-12
1.12727e-12
1.0077e-12
8.96559e-13
7.93886e-13
6.99621e-13
6.13599e-13
5.3557e-13
4.6521e-13
4.0214e-13
3.45934e-13
2.96135e-13
2.52267e-13
2.13845e-13
1.80384e-13
1.51409e-13
1.2646e-13
1.05099e-13
8.69125e-14
7.15151e-14
5.85517e-14
4.76983e-14
3.86619e-14
3.11799e-14
2.50193e-14
1.99747e-14
1.58665e-14
1.25395e-14
9.85986e-15
7.71346e-15
6.00361e-15
4.64898e-15
3.58164e-15
2.74525e-15
2.09341e-15
1.58818e-15
1.19871e-15
9.00107e-16
6.72418e-16
4.99745e-16
3.69504e-16
2.718e-16
1.98903e-16
1.44807e-16
1.04881e-16
7.5572e-17
5.41729e-17
3.8633e-17
2.74089e-17
1.93455e-17
1.35838e-17
9.48858e-18
6.59308e-18
4.55597e-18
3.12895e-18
2.13207e-18
1.43519e-18
9.44096e-19
5.90189e-19
3.22679e-19
1.02538e-19
6.48111e-19
1.98589e-18
3.45203e-18
5.14391e-18
7.17616e-18
9.68727e-18
1.28469e-17
1.68645e-17
2.2e-17
2.85768e-17
3.69988e-17
4.77708e-17
6.15235e-17
7.9044e-17
1.01313e-16
1.29551e-16
1.6527e-16
2.10341e-16
2.67072e-16
3.38304e-16
4.27518e-16
5.38977e-16
6.77875e-16
8.50532e-16
1.06461e-15
1.32937e-15
1.65598e-15
2.05786e-15
2.55107e-15
3.15482e-15
3.89196e-15
4.78962e-15
5.87991e-15
7.20069e-15
8.79647e-15
1.07194e-14
1.30304e-14
1.58005e-14
1.91118e-14
2.30595e-14
2.77533e-14
3.33189e-14
3.99002e-14
4.76615e-14
5.67889e-14
6.74933e-14
8.00123e-14
9.46126e-14
1.11592e-13
1.31284e-13
1.54054e-13
1.80312e-13
2.10501e-13
2.45113e-13
2.84678e-13
3.29775e-13
3.81023e-13
4.3909e-13
5.04687e-13
5.78567e-13
6.61524e-13
7.54388e-13
8.58021e-13
9.73314e-13
1.10118e-12
1.24253e-12
1.39829e-12
1.56938e-12
1.75669e-12
1.96108e-12
2.18336e-12
2.42428e-12
2.6845e-12
2.96458e-12
3.26498e-12
3.58601e-12
3.92782e-12
4.29041e-12
4.67356e-12
5.07687e-12
5.49971e-12
5.9412e-12
6.40024e-12
6.87546e-12
7.36524e-12
7.86769e-12
8.38066e-12
8.90176e-12
9.42835e-12
9.95758e-12
1.04864e-11
1.10114e-11
1.15294e-11
1.20367e-11
1.25298e-11
1.30049e-11
1.34585e-11
1.38868e-11
1.42863e-11
1.46536e-11
1.49855e-11
1.5279e-11
1.55314e-11
1.57401e-11
1.59032e-11
1.60189e-11
1.6086e-11
1.61037e-11
1.60715e-11
1.59896e-11
1.58584e-11
1.56791e-11
1.54531e-11
1.51824e-11
1.48692e-11
1.45163e-11
1.41267e-11
1.37039e-11
1.32515e-11
1.27734e-11
1.22737e-11
1.17564e-11
1.12259e-11
1.06864e-11
1.01422e-11
9.59741e-12
9.05604e-12
8.522e-12
7.99898e-12
7.49042e-12
6.99954e-12
6.52927e-12
6.08226e-12
5.66086e-12
5.2671e-12
4.90272e-12
4.56912e-12
4.26745e-12
3.9985e-12
3.76282e-12
3.56065e-12
3.392e-12
3.2566e-12
3.15393e-12
3.08327e-12
3.04366e-12
3.03395e-12
3.05278e-12
3.0986e-12
3.1697e-12