/*--------------------------------*- C++ -*----------------------------------*\
| =========                 |                                                 |
| \\      /  F ield         | OpenFOAM: The Open Source CFD Toolbox           |
|  \\    /   O peration     | Version:  v2012                                 |
|   \\  /    A nd           | Website:  www.openfoam.com                      |
|    \\/     M anipulation  |                                                 |
\*---------------------------------------------------------------------------*/
FoamFile
{
    version     2.0;
    format      ascii;
    class       volScalarField;
    location    "10.4";
    object      Psi_z;
}
// * * * * * * * * * * * * * * * * * * * * * * * * * * * * * * * * * * * * * //

dimensions      [0 2 -1 0 0 0 0];


internalField   nonuniform List<scalar> 
65536
(
9.14567e-06
2.74373e-05
4.57297e-05
6.40233e-05
8.23186e-05
0.000100616
0.000118916
0.000137219
0.000155526
0.000173837
0.000192151
0.000210471
0.000228795
0.000247124
0.000265458
0.000283798
0.000302142
0.000320493
0.000338848
0.000357209
0.000375575
0.000393946
0.000412321
0.0004307
0.000449083
0.000467468
0.000485856
0.000504245
0.000522634
0.000541023
0.00055941
0.000577795
0.000596175
0.00061455
0.000632917
0.000651276
0.000669623
0.000687958
0.000706278
0.00072458
0.000742864
0.000761124
0.000779361
0.000797569
0.000815747
0.00083389
0.000851997
0.000870063
0.000888085
0.000906058
0.00092398
0.000941846
0.000959651
0.000977391
0.000995061
0.00101266
0.00103018
0.00104761
0.00106495
0.0010822
0.00109935
0.00111639
0.00113332
0.00115013
0.00116682
0.00118338
0.0011998
0.00121608
0.00123221
0.00124818
0.00126399
0.00127963
0.00129509
0.00131037
0.00132546
0.00134035
0.00135503
0.00136951
0.00138376
0.00139778
0.00141157
0.00142512
0.00143843
0.00145147
0.00146426
0.00147677
0.00148901
0.00150096
0.00151262
0.00152399
0.00153505
0.00154581
0.00155624
0.00156636
0.00157615
0.0015856
0.00159472
0.00160349
0.00161191
0.00161998
0.00162769
0.00163503
0.00164201
0.00164862
0.00165486
0.00166071
0.00166619
0.00167129
0.00167599
0.00168032
0.00168425
0.00168779
0.00169094
0.0016937
0.00169607
0.00169804
0.00169962
0.00170081
0.00170161
0.00170201
0.00170203
0.00170166
0.00170091
0.00169977
0.00169825
0.00169635
0.00169408
0.00169144
0.00168843
0.00168505
0.00168132
0.00167723
0.00167279
0.001668
0.00166287
0.0016574
0.0016516
0.00164548
0.00163903
0.00163227
0.0016252
0.00161782
0.00161015
0.00160218
0.00159393
0.0015854
0.0015766
0.00156753
0.0015582
0.00154861
0.00153878
0.00152871
0.0015184
0.00150786
0.0014971
0.00148612
0.00147493
0.00146354
0.00145195
0.00144017
0.00142821
0.00141607
0.00140375
0.00139127
0.00137863
0.00136583
0.00135288
0.00133978
0.00132655
0.00131319
0.0012997
0.00128608
0.00127235
0.0012585
0.00124455
0.00123049
0.00121633
0.00120209
0.00118775
0.00117332
0.00115882
0.00114424
0.00112958
0.00111486
0.00110007
0.00108522
0.00107032
0.00105535
0.00104034
0.00102528
0.00101017
0.000995021
0.000979832
0.000964606
0.000949347
0.000934056
0.000918736
0.00090339
0.000888019
0.000872626
0.000857212
0.000841781
0.000826333
0.000810871
0.000795395
0.000779909
0.000764412
0.000748908
0.000733396
0.000717879
0.000702357
0.000686832
0.000671304
0.000655776
0.000640247
0.000624718
0.000609191
0.000593666
0.000578144
0.000562625
0.000547109
0.000531599
0.000516093
0.000500592
0.000485097
0.000469608
0.000454125
0.000438648
0.000423178
0.000407715
0.000392258
0.000376808
0.000361365
0.000345929
0.000330499
0.000315076
0.00029966
0.00028425
0.000268846
0.000253449
0.000238057
0.00022267
0.000207289
0.000191914
0.000176542
0.000161176
0.000145813
0.000130454
0.000115098
9.97457e-05
8.43957e-05
6.90479e-05
5.3702e-05
3.83576e-05
2.30141e-05
7.67131e-06
2.74368e-05
8.23112e-05
0.000137188
0.000192068
0.000246954
0.000301846
0.000356746
0.000411655
0.000466575
0.000521506
0.00057645
0.000631408
0.00068638
0.000741367
0.000796369
0.000851388
0.000906422
0.000961473
0.00101654
0.00107162
0.00112672
0.00118183
0.00123696
0.0012921
0.00134725
0.0014024
0.00145757
0.00151273
0.0015679
0.00162307
0.00167823
0.00173339
0.00178853
0.00184366
0.00189876
0.00195384
0.00200888
0.00206389
0.00211885
0.00217376
0.00222861
0.0022834
0.00233811
0.00239274
0.00244727
0.00250171
0.00255603
0.00261023
0.0026643
0.00271823
0.002772
0.0028256
0.00287902
0.00293224
0.00298526
0.00303805
0.00309061
0.00314291
0.00319495
0.0032467
0.00329815
0.00334928
0.00340008
0.00345052
0.00350059
0.00355028
0.00359955
0.00364839
0.00369678
0.00374471
0.00379214
0.00383907
0.00388546
0.0039313
0.00397658
0.00402125
0.00406531
0.00410873
0.0041515
0.00419358
0.00423496
0.00427562
0.00431553
0.00435468
0.00439304
0.00443058
0.0044673
0.00450317
0.00453816
0.00457227
0.00460547
0.00463773
0.00466905
0.0046994
0.00472877
0.00475714
0.00478449
0.00481081
0.00483608
0.00486029
0.00488342
0.00490547
0.00492641
0.00494624
0.00496495
0.00498252
0.00499895
0.00501424
0.00502837
0.00504133
0.00505313
0.00506376
0.00507322
0.00508149
0.00508859
0.00509451
0.00509925
0.00510282
0.0051052
0.00510642
0.00510647
0.00510536
0.00510309
0.00509968
0.00509512
0.00508943
0.00508261
0.00507468
0.00506564
0.00505551
0.00504431
0.00503203
0.0050187
0.00500433
0.00498893
0.00497253
0.00495513
0.00493674
0.0049174
0.00489711
0.00487589
0.00485376
0.00483073
0.00480683
0.00478208
0.00475648
0.00473006
0.00470285
0.00467485
0.00464609
0.00461658
0.00458635
0.00455541
0.00452379
0.0044915
0.00445856
0.004425
0.00439082
0.00435605
0.00432071
0.00428481
0.00424837
0.00421142
0.00417397
0.00413603
0.00409763
0.00405877
0.00401949
0.00397979
0.00393969
0.0038992
0.00385835
0.00381715
0.0037756
0.00373374
0.00369156
0.00364909
0.00360634
0.00356332
0.00352005
0.00347653
0.00343279
0.00338882
0.00334465
0.00330028
0.00325573
0.003211
0.00316611
0.00312106
0.00307587
0.00303055
0.0029851
0.00293953
0.00289385
0.00284807
0.00280219
0.00275623
0.00271019
0.00266408
0.00261789
0.00257165
0.00252536
0.00247901
0.00243262
0.00238619
0.00233973
0.00229324
0.00224673
0.00220019
0.00215364
0.00210707
0.0020605
0.00201391
0.00196733
0.00192074
0.00187415
0.00182757
0.00178099
0.00173443
0.00168787
0.00164132
0.00159479
0.00154827
0.00150177
0.00145528
0.00140882
0.00136237
0.00131594
0.00126953
0.00122314
0.00117677
0.00113042
0.00108409
0.00103778
0.00099149
0.000945221
0.000898972
0.000852743
0.000806532
0.000760339
0.000714164
0.000668005
0.000621863
0.000575735
0.000529622
0.000483522
0.000437434
0.000391358
0.000345291
0.000299234
0.000253185
0.000207142
0.000161105
0.000115072
6.90418e-05
2.30137e-05
4.57272e-05
0.000137183
0.000228642
0.000320108
0.000411582
0.000503068
0.000594566
0.00068608
0.000777612
0.000869163
0.000960735
0.00105233
0.00114395
0.00123559
0.00132726
0.00141896
0.00151069
0.00160244
0.00169422
0.00178602
0.00187785
0.00196971
0.00206159
0.00215348
0.0022454
0.00233733
0.00242927
0.00252122
0.00261317
0.00270512
0.00279707
0.002889
0.00298091
0.00307279
0.00316463
0.00325643
0.00334818
0.00343987
0.00353148
0.003623
0.00371443
0.00380575
0.00389694
0.003988
0.0040789
0.00416964
0.00426019
0.00435054
0.00444067
0.00453055
0.00462018
0.00470953
0.00479858
0.0048873
0.00497568
0.00506369
0.0051513
0.00523849
0.00532523
0.0054115
0.00549727
0.00558251
0.00566719
0.00575129
0.00583476
0.00591758
0.00599972
0.00608115
0.00616182
0.00624172
0.0063208
0.00639903
0.00647638
0.00655281
0.00662829
0.00670277
0.00677623
0.00684862
0.00691992
0.00699008
0.00705908
0.00712686
0.00719341
0.00725867
0.00732262
0.00738523
0.00744645
0.00750625
0.0075646
0.00762146
0.00767681
0.00773061
0.00778283
0.00783343
0.0078824
0.0079297
0.0079753
0.00801918
0.00806132
0.00810168
0.00814025
0.008177
0.00821191
0.00824498
0.00827617
0.00830547
0.00833287
0.00835835
0.0083819
0.00840352
0.00842319
0.00844091
0.00845667
0.00847046
0.00848229
0.00849216
0.00850006
0.008506
0.00850998
0.008512
0.00851208
0.00851022
0.00850643
0.00850073
0.00849312
0.00848363
0.00847225
0.00845902
0.00844395
0.00842706
0.00840836
0.00838789
0.00836566
0.00834169
0.00831601
0.00828865
0.00825963
0.00822897
0.00819672
0.00816288
0.00812749
0.00809059
0.00805219
0.00801234
0.00797106
0.00792838
0.00788433
0.00783895
0.00779226
0.0077443
0.0076951
0.0076447
0.00759312
0.00754039
0.00748655
0.00743164
0.00737567
0.00731869
0.00726072
0.00720179
0.00714194
0.0070812
0.00701959
0.00695715
0.0068939
0.00682987
0.0067651
0.00669961
0.00663342
0.00656657
0.00649908
0.00643098
0.00636229
0.00629303
0.00622324
0.00615293
0.00608214
0.00601087
0.00593916
0.00586702
0.00579448
0.00572155
0.00564826
0.00557463
0.00550067
0.0054264
0.00535185
0.00527702
0.00520193
0.00512661
0.00505106
0.00497529
0.00489933
0.00482319
0.00474688
0.00467042
0.00459381
0.00451706
0.0044402
0.00436322
0.00428615
0.00420898
0.00413173
0.00405441
0.00397703
0.00389959
0.0038221
0.00374457
0.003667
0.00358941
0.0035118
0.00343417
0.00335652
0.00327888
0.00320123
0.00312358
0.00304594
0.00296831
0.0028907
0.0028131
0.00273552
0.00265797
0.00258043
0.00250293
0.00242545
0.00234801
0.00227059
0.00219321
0.00211585
0.00203854
0.00196125
0.001884
0.00180679
0.00172961
0.00165246
0.00157535
0.00149827
0.00142122
0.0013442
0.00126721
0.00119025
0.00111332
0.00103642
0.000959543
0.000882689
0.000805856
0.000729045
0.000652252
0.000575476
0.000498715
0.000421967
0.00034523
0.000268503
0.000191783
0.000115068
3.83555e-05
6.40163e-05
0.000192051
0.000320091
0.000448139
0.0005762
0.000704276
0.000832371
0.000960488
0.00108863
0.0012168
0.001345
0.00147323
0.00160149
0.00172979
0.00185813
0.00198651
0.00211492
0.00224338
0.00237187
0.0025004
0.00262896
0.00275756
0.00288619
0.00301485
0.00314354
0.00327225
0.00340097
0.00352971
0.00365845
0.00378719
0.00391591
0.00404462
0.00417331
0.00430195
0.00443055
0.00455908
0.00468754
0.00481592
0.00494419
0.00507234
0.00520036
0.00532822
0.00545591
0.00558341
0.0057107
0.00583775
0.00596455
0.00609106
0.00621727
0.00634314
0.00646865
0.00659376
0.00671846
0.00684271
0.00696647
0.00708971
0.0072124
0.00733451
0.00745599
0.00757681
0.00769692
0.0078163
0.0079349
0.00805267
0.00816957
0.00828557
0.00840061
0.00851465
0.00862765
0.00873955
0.00885031
0.00895989
0.00906822
0.00917527
0.00928099
0.00938531
0.00948821
0.00958961
0.00968948
0.00978776
0.0098844
0.00997935
0.0100726
0.010164
0.0102536
0.0103413
0.010427
0.0105108
0.0105925
0.0106722
0.0107497
0.0108251
0.0108982
0.0109691
0.0110377
0.011104
0.0111678
0.0112293
0.0112883
0.0113449
0.0113989
0.0114504
0.0114993
0.0115456
0.0115893
0.0116303
0.0116687
0.0117044
0.0117374
0.0117677
0.0117952
0.01182
0.0118421
0.0118614
0.011878
0.0118918
0.0119028
0.0119111
0.0119167
0.0119195
0.0119196
0.011917
0.0119117
0.0119037
0.011893
0.0118797
0.0118638
0.0118452
0.0118241
0.0118004
0.0117742
0.0117455
0.0117143
0.0116808
0.0116448
0.0116064
0.0115658
0.0115228
0.0114776
0.0114302
0.0113806
0.0113289
0.0112751
0.0112193
0.0111614
0.0111016
0.0110399
0.0109764
0.0109109
0.0108438
0.0107748
0.0107042
0.010632
0.0105581
0.0104827
0.0104058
0.0103274
0.0102475
0.0101663
0.0100838
0.00999997
0.00991489
0.00982859
0.00974113
0.00965255
0.00956287
0.00947215
0.00938042
0.00928772
0.0091941
0.00909957
0.00900419
0.00890799
0.008811
0.00871326
0.0086148
0.00851565
0.00841584
0.00831542
0.00821439
0.00811281
0.00801068
0.00790805
0.00780494
0.00770137
0.00759737
0.00749297
0.00738819
0.00728304
0.00717757
0.00707177
0.00696569
0.00685933
0.00675271
0.00664586
0.00653879
0.00643152
0.00632406
0.00621643
0.00610865
0.00600073
0.00589269
0.00578453
0.00567627
0.00556792
0.00545949
0.005351
0.00524244
0.00513384
0.00502521
0.00491654
0.00480785
0.00469914
0.00459043
0.00448171
0.004373
0.0042643
0.00415562
0.00404695
0.00393831
0.0038297
0.00372112
0.00361257
0.00350406
0.00339559
0.00328716
0.00317878
0.00307044
0.00296215
0.0028539
0.00274571
0.00263756
0.00252946
0.0024214
0.0023134
0.00220544
0.00209753
0.00198966
0.00188184
0.00177406
0.00166632
0.00155862
0.00145095
0.00134333
0.00123573
0.00112817
0.00102064
0.000913129
0.000805645
0.000698182
0.000590738
0.000483309
0.000375894
0.000268488
0.00016109
5.36963e-05
8.23037e-05
0.000246913
0.00041153
0.000576158
0.000740802
0.000905466
0.00107015
0.00123487
0.00139962
0.0015644
0.00172923
0.00189409
0.002059
0.00222396
0.00238896
0.00255402
0.00271912
0.00288427
0.00304948
0.00321473
0.00338003
0.00354538
0.00371077
0.00387619
0.00404166
0.00420715
0.00437266
0.00453819
0.00470372
0.00486926
0.00503478
0.00520028
0.00536575
0.00553117
0.00569652
0.0058618
0.00602699
0.00619207
0.00635701
0.00652181
0.00668643
0.00685086
0.00701507
0.00717904
0.00734273
0.00750613
0.00766919
0.00783189
0.0079942
0.00815608
0.0083175
0.00847842
0.0086388
0.0087986
0.00895778
0.00911629
0.0092741
0.00943115
0.00958741
0.00974281
0.00989732
0.0100509
0.0102034
0.0103549
0.0105053
0.0106545
0.0108025
0.0109492
0.0110946
0.0112385
0.011381
0.011522
0.0116613
0.0117991
0.0119351
0.0120693
0.0122017
0.0123321
0.0124606
0.0125871
0.0127114
0.0128336
0.0129535
0.0130711
0.0131864
0.0132992
0.0134096
0.0135173
0.0136225
0.013725
0.0138248
0.0139217
0.0140159
0.0141071
0.0141953
0.0142806
0.0143628
0.0144419
0.0145178
0.0145906
0.0146601
0.0147263
0.0147892
0.0148488
0.014905
0.0149578
0.0150072
0.0150531
0.0150956
0.0151345
0.01517
0.0152019
0.0152302
0.0152551
0.0152764
0.0152941
0.0153084
0.015319
0.0153262
0.0153298
0.0153299
0.0153265
0.0153196
0.0153093
0.0152956
0.0152784
0.0152579
0.015234
0.0152068
0.0151763
0.0151425
0.0151056
0.0150655
0.0150222
0.0149759
0.0149265
0.0148742
0.0148189
0.0147607
0.0146997
0.0146359
0.0145693
0.0145001
0.0144282
0.0143538
0.0142768
0.0141974
0.0141156
0.0140314
0.013945
0.0138563
0.0137654
0.0136724
0.0135774
0.0134803
0.0133814
0.0132805
0.0131778
0.0130733
0.0129671
0.0128593
0.0127498
0.0126388
0.0125262
0.0124123
0.0122969
0.0121802
0.0120622
0.011943
0.0118225
0.0117009
0.0115782
0.0114545
0.0113297
0.011204
0.0110773
0.0109498
0.0108214
0.0106923
0.0105623
0.0104317
0.0103003
0.0101683
0.0100357
0.0099025
0.00976875
0.00963447
0.00949971
0.00936449
0.00922884
0.00909279
0.00895635
0.00881957
0.00868246
0.00854505
0.00840736
0.00826941
0.00813123
0.00799283
0.00785423
0.00771545
0.00757651
0.00743743
0.00729821
0.00715889
0.00701946
0.00687995
0.00674037
0.00660073
0.00646103
0.0063213
0.00618155
0.00604177
0.00590198
0.0057622
0.00562242
0.00548265
0.00534291
0.00520319
0.0050635
0.00492385
0.00478424
0.00464467
0.00450516
0.00436569
0.00422628
0.00408693
0.00394763
0.0038084
0.00366922
0.00353011
0.00339106
0.00325208
0.00311315
0.00297429
0.00283549
0.00269674
0.00255806
0.00241943
0.00228086
0.00214234
0.00200387
0.00186545
0.00172708
0.00158875
0.00145046
0.0013122
0.00117398
0.00103579
0.000897631
0.000759493
0.000621376
0.000483275
0.000345187
0.000207109
6.90356e-05
0.000100589
0.000301769
0.000502958
0.000704161
0.000905383
0.00110663
0.00130791
0.00150922
0.00171057
0.00191197
0.00211342
0.00231491
0.00251646
0.00271807
0.00291974
0.00312147
0.00332327
0.00352512
0.00372704
0.00392902
0.00413106
0.00433316
0.00453531
0.0047375
0.00493974
0.00514202
0.00534433
0.00554666
0.005749
0.00595134
0.00615367
0.00635597
0.00655823
0.00676044
0.00696258
0.00716462
0.00736655
0.00756835
0.00776999
0.00797145
0.00817271
0.00837373
0.00857448
0.00877494
0.00897507
0.00917483
0.00937419
0.00957312
0.00977157
0.00996949
0.0101669
0.0103636
0.0105597
0.0107551
0.0109497
0.0111436
0.0113366
0.0115286
0.0117197
0.0119097
0.0120987
0.0122864
0.012473
0.0126583
0.0128422
0.0130247
0.0132057
0.0133851
0.0135629
0.013739
0.0139132
0.0140857
0.0142561
0.0144246
0.0145909
0.0147551
0.0149171
0.0150766
0.0152338
0.0153885
0.0155406
0.01569
0.0158368
0.0159806
0.0161217
0.0162597
0.0163947
0.0165265
0.0166552
0.0167806
0.0169026
0.0170213
0.0171364
0.017248
0.017356
0.0174603
0.0175608
0.0176576
0.0177505
0.0178395
0.0179245
0.0180056
0.0180825
0.0181554
0.0182242
0.0182888
0.0183492
0.0184053
0.0184573
0.0185049
0.0185482
0.0185873
0.018622
0.0186523
0.0186784
0.0187001
0.0187174
0.0187304
0.0187392
0.0187435
0.0187436
0.0187395
0.018731
0.0187184
0.0187015
0.0186805
0.0186553
0.0186261
0.0185927
0.0185554
0.0185141
0.0184688
0.0184197
0.0183668
0.0183101
0.0182496
0.0181856
0.0181179
0.0180467
0.017972
0.0178939
0.0178124
0.0177277
0.0176397
0.0175486
0.0174545
0.0173573
0.0172572
0.0171542
0.0170484
0.0169399
0.0168287
0.0167149
0.0165987
0.0164799
0.0163588
0.0162354
0.0161098
0.015982
0.0158521
0.0157201
0.0155862
0.0154504
0.0153128
0.0151734
0.0150323
0.0148896
0.0147452
0.0145994
0.0144521
0.0143034
0.0141533
0.014002
0.0138494
0.0136957
0.0135408
0.0133848
0.0132278
0.0130699
0.012911
0.0127512
0.0125906
0.0124292
0.0122671
0.0121042
0.0119406
0.0117765
0.0116117
0.0114464
0.0112805
0.0111142
0.0109474
0.0107801
0.0106125
0.0104445
0.0102762
0.0101075
0.00993861
0.00976941
0.00959998
0.00943032
0.00926048
0.00909045
0.00892027
0.00874996
0.00857952
0.00840898
0.00823835
0.00806766
0.0078969
0.0077261
0.00755526
0.00738441
0.00721354
0.00704268
0.00687182
0.00670098
0.00653017
0.00635939
0.00618865
0.00601795
0.00584731
0.00567672
0.0055062
0.00533574
0.00516534
0.00499502
0.00482476
0.00465459
0.00448448
0.00431446
0.00414451
0.00397464
0.00380484
0.00363512
0.00346547
0.0032959
0.0031264
0.00295697
0.00278761
0.00261831
0.00244908
0.0022799
0.00211079
0.00194172
0.0017727
0.00160373
0.00143481
0.00126591
0.00109706
0.000928229
0.000759425
0.000590643
0.000421876
0.000253121
8.4373e-05
0.000118871
0.000356616
0.000594372
0.000832144
0.00106994
0.00130777
0.00154563
0.00178353
0.00202148
0.00225949
0.00249755
0.00273568
0.00297387
0.00321213
0.00345046
0.00368887
0.00392735
0.00416591
0.00440454
0.00464325
0.00488203
0.00512088
0.00535979
0.00559877
0.0058378
0.00607687
0.00631598
0.00655512
0.00679427
0.00703343
0.00727258
0.0075117
0.00775078
0.00798979
0.00822872
0.00846755
0.00870625
0.00894479
0.00918315
0.00942131
0.00965922
0.00989685
0.0101342
0.0103712
0.0106078
0.0108439
0.0110796
0.0113148
0.0115495
0.0117835
0.0120168
0.0122495
0.0124813
0.0127124
0.0129425
0.0131717
0.0133999
0.013627
0.013853
0.0140777
0.0143012
0.0145232
0.0147439
0.014963
0.0151805
0.0153963
0.0156104
0.0158226
0.0160329
0.0162412
0.0164473
0.0166513
0.0168529
0.0170522
0.017249
0.0174432
0.0176348
0.0178236
0.0180095
0.0181925
0.0183724
0.0185492
0.0187228
0.0188931
0.0190599
0.0192232
0.0193829
0.0195389
0.0196911
0.0198395
0.0199839
0.0201243
0.0202605
0.0203925
0.0205203
0.0206437
0.0207627
0.0208772
0.0209871
0.0210924
0.021193
0.0212889
0.02138
0.0214662
0.0215475
0.0216239
0.0216954
0.0217618
0.0218232
0.0218796
0.0219308
0.021977
0.022018
0.0220539
0.0220847
0.0221103
0.0221308
0.0221462
0.0221565
0.0221616
0.0221617
0.0221567
0.0221467
0.0221316
0.0221116
0.0220867
0.0220569
0.0220222
0.0219827
0.0219385
0.0218895
0.021836
0.0217778
0.0217151
0.021648
0.0215764
0.0215005
0.0214204
0.0213361
0.0212477
0.0211552
0.0210588
0.0209585
0.0208544
0.0207466
0.0206351
0.0205201
0.0204016
0.0202797
0.0201545
0.0200261
0.0198946
0.01976
0.0196224
0.0194819
0.0193386
0.0191926
0.019044
0.0188928
0.0187391
0.018583
0.0184246
0.018264
0.0181011
0.0179363
0.0177693
0.0176005
0.0174298
0.0172573
0.0170831
0.0169072
0.0167297
0.0165507
0.0163703
0.0161885
0.0160053
0.0158209
0.0156352
0.0154484
0.0152605
0.0150716
0.0148817
0.0146909
0.0144991
0.0143065
0.0141132
0.0139191
0.0137242
0.0135288
0.0133327
0.013136
0.0129388
0.0127411
0.0125429
0.0123443
0.0121453
0.011946
0.0117463
0.0115462
0.0113459
0.0111454
0.0109446
0.0107436
0.0105425
0.0103411
0.0101397
0.0099381
0.00973641
0.00953465
0.00933281
0.00913092
0.008929
0.00872706
0.0085251
0.00832314
0.0081212
0.00791928
0.0077174
0.00751555
0.00731375
0.00711201
0.00691033
0.00670872
0.00650718
0.00630571
0.00610433
0.00590303
0.00570182
0.0055007
0.00529967
0.00509873
0.00489788
0.00469712
0.00449645
0.00429588
0.00409539
0.00389499
0.00369468
0.00349445
0.0032943
0.00309422
0.00289423
0.0026943
0.00249444
0.00229465
0.00209491
0.00189522
0.00169559
0.001496
0.00129645
0.00109694
0.000897455
0.000697995
0.000498554
0.000299127
9.97082e-05
0.00013715
0.000411453
0.000685769
0.000960104
0.00123447
0.00150886
0.00178331
0.0020578
0.00233234
0.00260695
0.00288163
0.00315638
0.0034312
0.00370611
0.00398111
0.00425619
0.00453136
0.00480662
0.00508197
0.00535741
0.00563293
0.00590854
0.00618422
0.00645998
0.0067358
0.00701168
0.0072876
0.00756356
0.00783955
0.00811554
0.00839152
0.00866747
0.00894338
0.00921922
0.00949497
0.0097706
0.0100461
0.0103214
0.0105965
0.0108714
0.011146
0.0114203
0.0116942
0.0119678
0.0122409
0.0125135
0.0127856
0.0130571
0.0133279
0.0135981
0.0138675
0.0141361
0.0144038
0.0146705
0.0149363
0.0152009
0.0154644
0.0157266
0.0159875
0.016247
0.016505
0.0167615
0.0170163
0.0172693
0.0175205
0.0177698
0.018017
0.0182621
0.018505
0.0187455
0.0189836
0.0192192
0.0194521
0.0196823
0.0199096
0.020134
0.0203552
0.0205733
0.0207881
0.0209995
0.0212074
0.0214117
0.0216122
0.0218089
0.0220016
0.0221903
0.0223748
0.0225551
0.022731
0.0229024
0.0230692
0.0232314
0.0233888
0.0235414
0.023689
0.0238316
0.023969
0.0241013
0.0242283
0.02435
0.0244662
0.024577
0.0246822
0.0247818
0.0248758
0.0249641
0.0250466
0.0251233
0.0251943
0.0252593
0.0253185
0.0253718
0.0254192
0.0254606
0.0254961
0.0255257
0.0255493
0.0255671
0.0255789
0.0255848
0.0255848
0.025579
0.0255673
0.0255499
0.0255267
0.0254978
0.0254633
0.0254232
0.0253775
0.0253263
0.0252697
0.0252077
0.0251404
0.0250679
0.0249902
0.0249075
0.0248198
0.0247271
0.0246296
0.0245274
0.0244205
0.024309
0.0241931
0.0240728
0.0239482
0.0238193
0.0236864
0.0235495
0.0234086
0.0232639
0.0231155
0.0229635
0.022808
0.022649
0.0224867
0.0223211
0.0221525
0.0219807
0.021806
0.0216285
0.0214482
0.0212652
0.0210796
0.0208916
0.0207011
0.0205083
0.0203133
0.0201161
0.0199169
0.0197157
0.0195126
0.0193076
0.0191009
0.0188926
0.0186826
0.0184711
0.0182581
0.0180438
0.0178281
0.0176111
0.017393
0.0171737
0.0169534
0.016732
0.0165097
0.0162865
0.0160624
0.0158375
0.0156118
0.0153854
0.0151584
0.0149308
0.0147026
0.0144738
0.0142446
0.0140149
0.0137847
0.0135542
0.0133234
0.0130922
0.0128607
0.012629
0.012397
0.0121648
0.0119325
0.0117
0.0114673
0.0112346
0.0110017
0.0107688
0.0105358
0.0103028
0.0100697
0.00983666
0.0096036
0.00937057
0.00913756
0.00890459
0.00867166
0.0084388
0.008206
0.00797328
0.00774064
0.00750808
0.00727561
0.00704324
0.00681096
0.00657879
0.00634672
0.00611476
0.0058829
0.00565115
0.00541951
0.00518797
0.00495654
0.00472522
0.00449399
0.00426287
0.00403184
0.00380091
0.00357006
0.00333931
0.00310863
0.00287803
0.00264751
0.00241706
0.00218666
0.00195633
0.00172605
0.00149581
0.00126562
0.00103546
0.000805328
0.000575219
0.000345125
0.000115041
0.000155424
0.000466278
0.000777146
0.00108804
0.00139896
0.00170992
0.00202093
0.002332
0.00264314
0.00295434
0.00326563
0.003577
0.00388846
0.00420001
0.00451167
0.00482342
0.00513528
0.00544724
0.00575931
0.00607148
0.00638375
0.00669612
0.00700858
0.00732113
0.00763375
0.00794644
0.00825919
0.00857199
0.00888481
0.00919765
0.00951048
0.00982329
0.0101361
0.0104487
0.0107613
0.0110738
0.0113861
0.0116982
0.0120101
0.0123218
0.0126331
0.0129441
0.0132547
0.0135648
0.0138745
0.0141836
0.0144921
0.0148
0.0151071
0.0154135
0.015719
0.0160236
0.0163272
0.0166297
0.0169311
0.0172312
0.0175301
0.0178275
0.0181234
0.0184178
0.0187105
0.0190014
0.0192904
0.0195775
0.0198625
0.0201452
0.0204257
0.0207038
0.0209794
0.0212523
0.0215225
0.0217898
0.0220541
0.0223152
0.0225732
0.0228278
0.0230789
0.0233264
0.0235702
0.0238101
0.024046
0.0242778
0.0245054
0.0247287
0.0249474
0.0251616
0.025371
0.0255756
0.0257753
0.0259698
0.0261592
0.0263433
0.026522
0.0266951
0.0268627
0.0270245
0.0271806
0.0273307
0.0274749
0.027613
0.0277449
0.0278706
0.02799
0.0281031
0.0282098
0.0283099
0.0284036
0.0284907
0.0285711
0.028645
0.0287121
0.0287725
0.0288263
0.0288733
0.0289135
0.028947
0.0289738
0.0289938
0.0290072
0.0290138
0.0290137
0.029007
0.0289937
0.0289739
0.0289475
0.0289146
0.0288753
0.0288297
0.0287777
0.0287195
0.0286552
0.0285847
0.0285082
0.0284258
0.0283376
0.0282436
0.0281439
0.0280387
0.0279279
0.0278118
0.0276904
0.0275638
0.0274321
0.0272955
0.0271539
0.0270077
0.0268567
0.0267012
0.0265413
0.026377
0.0262086
0.026036
0.0258594
0.0256789
0.0254947
0.0253068
0.0251153
0.0249204
0.0247222
0.0245207
0.024316
0.0241084
0.0238978
0.0236844
0.0234683
0.0232495
0.0230283
0.0228046
0.0225785
0.0223502
0.0221198
0.0218873
0.0216528
0.0214164
0.0211782
0.0209383
0.0206968
0.0204536
0.020209
0.0199629
0.0197155
0.0194668
0.0192169
0.0189659
0.0187137
0.0184606
0.0182065
0.0179514
0.0176955
0.0174389
0.0171814
0.0169233
0.0166645
0.0164052
0.0161452
0.0158848
0.0156239
0.0153625
0.0151008
0.0148387
0.0145763
0.0143136
0.0140506
0.0137874
0.013524
0.0132604
0.0129967
0.0127328
0.0124688
0.0122048
0.0119407
0.0116766
0.0114124
0.0111482
0.010884
0.0106199
0.0103558
0.0100917
0.00982772
0.00956379
0.00929993
0.00903615
0.00877247
0.00850889
0.00824541
0.00798205
0.00771879
0.00745566
0.00719264
0.00692975
0.00666697
0.00640432
0.0061418
0.00587939
0.00561711
0.00535494
0.00509289
0.00483096
0.00456914
0.00430742
0.00404581
0.0037843
0.00352288
0.00326155
0.00300031
0.00273914
0.00247805
0.00221702
0.00195605
0.00169514
0.00143427
0.00117344
0.000912639
0.000651867
0.000391113
0.00013037
0.000173695
0.000521089
0.000868499
0.00121594
0.00156341
0.00191093
0.0022585
0.00260614
0.00295386
0.00330166
0.00364954
0.00399753
0.00434562
0.00469381
0.00504212
0.00539055
0.00573909
0.00608776
0.00643655
0.00678545
0.00713447
0.00748361
0.00783285
0.0081822
0.00853163
0.00888115
0.00923074
0.00958038
0.00993006
0.0102798
0.0106295
0.0109792
0.0113288
0.0116784
0.0120278
0.0123772
0.0127263
0.0130753
0.013424
0.0137724
0.0141205
0.0144683
0.0148156
0.0151624
0.0155086
0.0158543
0.0161993
0.0165436
0.0168871
0.0172297
0.0175714
0.0179121
0.0182517
0.01859
0.0189271
0.0192629
0.0195972
0.0199299
0.0202609
0.0205903
0.0209177
0.0212432
0.0215665
0.0218877
0.0222066
0.022523
0.0228369
0.023148
0.0234564
0.0237618
0.0240642
0.0243633
0.0246591
0.0249514
0.0252401
0.0255251
0.0258062
0.0260832
0.0263561
0.0266246
0.0268887
0.0271482
0.027403
0.0276529
0.0278978
0.0281376
0.0283721
0.0286011
0.0288246
0.0290425
0.0292545
0.0294606
0.0296606
0.0298545
0.0300421
0.0302233
0.030398
0.0305661
0.0307275
0.0308821
0.0310298
0.0311706
0.0313043
0.0314308
0.0315502
0.0316623
0.0317672
0.0318646
0.0319547
0.0320373
0.0321124
0.03218
0.0322401
0.0322926
0.0323376
0.0323751
0.032405
0.0324273
0.0324422
0.0324495
0.0324493
0.0324417
0.0324267
0.0324044
0.0323747
0.0323378
0.0322937
0.0322425
0.0321842
0.0321189
0.0320467
0.0319677
0.031882
0.0317896
0.0316907
0.0315854
0.0314736
0.0313557
0.0312316
0.0311015
0.0309654
0.0308236
0.0306761
0.030523
0.0303645
0.0302006
0.0300316
0.0298574
0.0296783
0.0294944
0.0293057
0.0291125
0.0289147
0.0287127
0.0285064
0.028296
0.0280817
0.0278635
0.0276415
0.027416
0.0271869
0.0269545
0.0267188
0.02648
0.0262381
0.0259933
0.0257456
0.0254953
0.0252424
0.0249869
0.0247291
0.0244689
0.0242066
0.0239421
0.0236756
0.0234072
0.023137
0.022865
0.0225913
0.0223161
0.0220393
0.0217612
0.0214816
0.0212008
0.0209188
0.0206357
0.0203515
0.0200662
0.0197801
0.019493
0.0192051
0.0189165
0.0186271
0.0183371
0.0180464
0.0177552
0.0174635
0.0171712
0.0168786
0.0165855
0.0162921
0.0159984
0.0157044
0.0154101
0.0151156
0.014821
0.0145261
0.0142311
0.0139361
0.0136409
0.0133456
0.0130504
0.0127551
0.0124598
0.0121645
0.0118692
0.011574
0.0112788
0.0109837
0.0106887
0.0103938
0.0100989
0.00980421
0.0095096
0.00921511
0.00892074
0.00862651
0.00833241
0.00803844
0.00774461
0.00745092
0.00715737
0.00686396
0.00657069
0.00627755
0.00598455
0.00569168
0.00539894
0.00510633
0.00481384
0.00452146
0.0042292
0.00393705
0.00364499
0.00335303
0.00306116
0.00276937
0.00247765
0.002186
0.00189441
0.00160287
0.00131138
0.00101992
0.000728497
0.00043709
0.000145695
0.000191959
0.000575884
0.000959827
0.0013438
0.00172781
0.00211188
0.00249601
0.00288021
0.0032645
0.00364888
0.00403336
0.00441796
0.00480267
0.0051875
0.00557246
0.00595756
0.00634279
0.00672816
0.00711366
0.0074993
0.00788508
0.00827099
0.00865702
0.00904317
0.00942943
0.00981579
0.0102022
0.0105887
0.0109753
0.0113619
0.0117485
0.0121351
0.0125216
0.0129081
0.0132945
0.0136807
0.0140667
0.0144526
0.0148382
0.0152234
0.0156084
0.0159929
0.0163769
0.0167605
0.0171434
0.0175257
0.0179073
0.018288
0.018668
0.0190469
0.0194249
0.0198017
0.0201773
0.0205516
0.0209246
0.021296
0.0216658
0.0220339
0.0224002
0.0227646
0.0231269
0.023487
0.0238449
0.0242003
0.0245531
0.0249033
0.0252507
0.0255951
0.0259364
0.0262744
0.0266091
0.0269402
0.0272676
0.0275912
0.0279108
0.0282263
0.0285375
0.0288442
0.0291463
0.0294436
0.029736
0.0300234
0.0303055
0.0305822
0.0308534
0.0311189
0.0313785
0.0316322
0.0318797
0.0321209
0.0323557
0.0325839
0.0328055
0.0330202
0.0332279
0.0334286
0.0336221
0.0338082
0.0339869
0.0341581
0.0343217
0.0344776
0.0346256
0.0347657
0.0348979
0.0350221
0.0351381
0.035246
0.0353456
0.0354371
0.0355202
0.035595
0.0356615
0.0357196
0.0357693
0.0358107
0.0358437
0.0358684
0.0358847
0.0358927
0.0358924
0.0358838
0.0358671
0.0358422
0.0358092
0.0357682
0.0357192
0.0356623
0.0355976
0.0355252
0.0354451
0.0353575
0.0352624
0.03516
0.0350503
0.0349335
0.0348096
0.0346789
0.0345413
0.0343971
0.0342463
0.0340891
0.0339257
0.033756
0.0335804
0.0333988
0.0332115
0.0330186
0.0328202
0.0326164
0.0324074
0.0321934
0.0319744
0.0317506
0.0315222
0.0312892
0.0310519
0.0308102
0.0305645
0.0303148
0.0300612
0.0298039
0.029543
0.0292786
0.0290108
0.0287398
0.0284657
0.0281887
0.0279087
0.027626
0.0273407
0.0270528
0.0267624
0.0264698
0.0261749
0.025878
0.0255789
0.025278
0.0249752
0.0246707
0.0243646
0.0240568
0.0237476
0.023437
0.0231251
0.0228119
0.0224975
0.022182
0.0218655
0.021548
0.0212296
0.0209104
0.0205904
0.0202696
0.0199482
0.0196261
0.0193035
0.0189804
0.0186568
0.0183327
0.0180083
0.0176835
0.0173584
0.0170331
0.0167075
0.0163817
0.0160557
0.0157296