/*--------------------------------*- C++ -*----------------------------------*\
| =========                 |                                                 |
| \\      /  F ield         | OpenFOAM: The Open Source CFD Toolbox           |
|  \\    /   O peration     | Version:  v2012                                 |
|   \\  /    A nd           | Website:  www.openfoam.com                      |
|    \\/     M anipulation  |                                                 |
\*---------------------------------------------------------------------------*/
FoamFile
{
    version     2.0;
    format      ascii;
    class       volScalarField;
    location    "10.4";
    object      W;
}
// * * * * * * * * * * * * * * * * * * * * * * * * * * * * * * * * * * * * * //

dimensions      [0 0 -1 0 0 0 0];


internalField   nonuniform List<scalar> 
65536
(
1.73066e-18
5.23343e-18
8.86185e-18
1.27035e-17
1.68507e-17
2.14024e-17
2.64662e-17
3.21603e-17
3.86163e-17
4.59814e-17
5.44214e-17
6.41236e-17
7.53006e-17
8.81936e-17
1.03077e-16
1.20263e-16
1.40107e-16
1.63013e-16
1.8944e-16
2.19911e-16
2.55019e-16
2.95436e-16
3.41924e-16
3.95347e-16
4.56681e-16
5.27027e-16
6.07628e-16
6.99886e-16
8.05374e-16
9.25864e-16
1.06334e-15
1.22003e-15
1.39841e-15
1.60128e-15
1.83172e-15
2.0932e-15
2.38955e-15
2.72503e-15
3.10437e-15
3.5328e-15
4.01608e-15
4.56061e-15
5.17338e-15
5.86211e-15
6.63527e-15
7.50211e-15
8.47277e-15
9.55831e-15
1.07708e-14
1.21232e-14
1.36299e-14
1.53062e-14
1.71687e-14
1.92353e-14
2.15254e-14
2.40595e-14
2.686e-14
2.99505e-14
3.33563e-14
3.71042e-14
4.12229e-14
4.57426e-14
5.0695e-14
5.61138e-14
6.20343e-14
6.84932e-14
7.55292e-14
8.31822e-14
9.14937e-14
1.00507e-13
1.10265e-13
1.20815e-13
1.32202e-13
1.44473e-13
1.57676e-13
1.71859e-13
1.8707e-13
2.03357e-13
2.20766e-13
2.39346e-13
2.5914e-13
2.80193e-13
3.02546e-13
3.26238e-13
3.51306e-13
3.77783e-13
4.05697e-13
4.35073e-13
4.65931e-13
4.98284e-13
5.32143e-13
5.67507e-13
6.04373e-13
6.42728e-13
6.82551e-13
7.23813e-13
7.66476e-13
8.10493e-13
8.55808e-13
9.02352e-13
9.50049e-13
9.98811e-13
1.04854e-12
1.09912e-12
1.15045e-12
1.20237e-12
1.25476e-12
1.30746e-12
1.3603e-12
1.41312e-12
1.46573e-12
1.51794e-12
1.56954e-12
1.62034e-12
1.67011e-12
1.71864e-12
1.76571e-12
1.81108e-12
1.85453e-12
1.89582e-12
1.93473e-12
1.97103e-12
2.00451e-12
2.03493e-12
2.06209e-12
2.0858e-12
2.10587e-12
2.12213e-12
2.13441e-12
2.14257e-12
2.1465e-12
2.14609e-12
2.14127e-12
2.13198e-12
2.1182e-12
2.09992e-12
2.07718e-12
2.05003e-12
2.01855e-12
1.98286e-12
1.94311e-12
1.89947e-12
1.85214e-12
1.80136e-12
1.74738e-12
1.69049e-12
1.63098e-12
1.56919e-12
1.50544e-12
1.4401e-12
1.37353e-12
1.30611e-12
1.2382e-12
1.17018e-12
1.10243e-12
1.03531e-12
9.69168e-13
9.04345e-13
8.41159e-13
7.79908e-13
7.20866e-13
6.6428e-13
6.10371e-13
5.59326e-13
5.11306e-13
4.66438e-13
4.24816e-13
3.86505e-13
3.51538e-13
3.19917e-13
2.91617e-13
2.66584e-13
2.44737e-13
2.25975e-13
2.10169e-13
1.97174e-13
1.86824e-13
1.78939e-13
1.73321e-13
1.69763e-13
1.68045e-13
1.67939e-13
1.69212e-13
1.71625e-13
1.74938e-13
1.78913e-13
1.83314e-13
1.87911e-13
1.92482e-13
1.9682e-13
2.00731e-13
2.04039e-13
2.06587e-13
2.08244e-13
2.08904e-13
2.08484e-13
2.06935e-13
2.04231e-13
2.00378e-13
1.95409e-13
1.89381e-13
1.82376e-13
1.74497e-13
1.65862e-13
1.56603e-13
1.46862e-13
1.36784e-13
1.26515e-13
1.16196e-13
1.05964e-13
9.59414e-14
8.62392e-14
7.69529e-14
6.81614e-14
5.99263e-14
5.22919e-14
4.52859e-14
3.89205e-14
3.31937e-14
2.80912e-14
2.35883e-14
1.96524e-14
1.62443e-14
1.33208e-14
1.08364e-14
8.74469e-15
6.9998e-15
5.55763e-15
4.37661e-15
3.4183e-15
2.64783e-15
2.03403e-15
1.54952e-15
1.17055e-15
8.76841e-16
6.5129e-16
4.7966e-16
3.50255e-16
2.53578e-16
1.82013e-16
1.29521e-16
9.13719e-17
6.39011e-17
4.43008e-17
3.04447e-17
2.07391e-17
1.40032e-17
9.37089e-18
6.21398e-18
4.0812e-18
2.65161e-18
1.69887e-18
1.06424e-18
6.36381e-19
3.3609e-19
1.04766e-19
5.98527e-18
1.8099e-17
3.0647e-17
4.39319e-17
5.82729e-17
7.40118e-17
9.15201e-17
1.11207e-16
1.33526e-16
1.58986e-16
1.8816e-16
2.21694e-16
2.60323e-16
3.0488e-16
3.56312e-16
4.15696e-16
4.84259e-16
5.63395e-16
6.5469e-16
7.59945e-16
8.81205e-16
1.02079e-15
1.18133e-15
1.3658e-15
1.57755e-15
1.8204e-15
2.09862e-15
2.41703e-15
2.78105e-15
3.19678e-15
3.67105e-15
4.21151e-15
4.82672e-15
5.52622e-15
6.32067e-15
7.22192e-15
8.24316e-15
9.39899e-15
1.07056e-14
1.2181e-14
1.38449e-14
1.5719e-14
1.78275e-14
2.01966e-14
2.28553e-14
2.58352e-14
2.91709e-14
3.28999e-14
3.70634e-14
4.17058e-14
4.68754e-14
5.26244e-14
5.90092e-14
6.60904e-14
7.39332e-14
8.26077e-14
9.21886e-14
1.02756e-13
1.14394e-13
1.27194e-13
1.41252e-13
1.56668e-13
1.73548e-13
1.92006e-13
2.12157e-13
2.34125e-13
2.58036e-13
2.84024e-13
3.12224e-13
3.42779e-13
3.75831e-13
4.1153e-13
4.50026e-13
4.9147e-13
5.36018e-13
5.83822e-13
6.35037e-13
6.89814e-13
7.48303e-13
8.10649e-13
8.76994e-13
9.47471e-13
1.02221e-12
1.10132e-12
1.18492e-12
1.2731e-12
1.36593e-12
1.4635e-12
1.56584e-12
1.67298e-12
1.78493e-12
1.90169e-12
2.02321e-12
2.14944e-12
2.28029e-12
2.41564e-12
2.55535e-12
2.69924e-12
2.8471e-12
2.9987e-12
3.15377e-12
3.312e-12
3.47305e-12
3.63654e-12
3.80207e-12
3.96919e-12
4.13743e-12
4.30629e-12
4.47522e-12
4.64365e-12
4.81099e-12
4.97662e-12
5.13989e-12
5.30012e-12
5.45664e-12
5.60875e-12
5.75573e-12
5.89686e-12
6.03142e-12
6.15871e-12
6.27799e-12
6.38857e-12
6.48976e-12
6.58091e-12
6.66138e-12
6.73056e-12
6.7879e-12
6.83289e-12
6.86505e-12
6.88399e-12
6.88936e-12
6.88088e-12
6.85835e-12
6.82165e-12
6.77074e-12
6.70565e-12
6.62652e-12
6.53357e-12
6.42711e-12
6.30754e-12
6.17536e-12
6.03117e-12
5.87562e-12
5.70948e-12
5.53358e-12
5.34883e-12
5.15621e-12
4.95675e-12
4.75154e-12
4.54169e-12
4.32836e-12
4.11272e-12
3.89594e-12
3.67921e-12
3.46368e-12
3.25047e-12
3.04069e-12
2.83536e-12
2.63547e-12
2.44195e-12
2.25561e-12
2.07722e-12
1.90743e-12
1.74683e-12
1.59587e-12
1.45494e-12
1.3243e-12
1.20414e-12
1.09454e-12
9.95482e-13
9.06868e-13
8.2851e-13
7.60145e-13
7.01432e-13
6.51965e-13
6.11273e-13
5.78834e-13
5.54071e-13
5.36367e-13
5.25066e-13
5.19482e-13
5.18904e-13
5.22601e-13
5.29834e-13
5.39856e-13
5.51927e-13
5.65315e-13
5.79312e-13
5.93234e-13
6.06439e-13
6.18328e-13
6.2836e-13
6.36057e-13
6.41013e-13
6.429e-13
6.41473e-13
6.36573e-13
6.2813e-13
6.16161e-13
6.00766e-13
5.82126e-13
5.60494e-13
5.36184e-13
5.09564e-13
4.8104e-13
4.51045e-13
4.20027e-13
3.88434e-13
3.56702e-13
3.25243e-13
2.94438e-13
2.64627e-13
2.361e-13
2.091e-13
1.83814e-13
1.60377e-13
1.38874e-13
1.1934e-13
1.01769e-13
8.61156e-14
7.23043e-14
6.02335e-14
4.9783e-14
4.08198e-14
3.32037e-14
2.67921e-14
2.14443e-14
1.70247e-14
1.34058e-14
1.04697e-14
8.10928e-15
6.22903e-15
4.74494e-15
3.58424e-15
2.68474e-15
1.99402e-15
1.46847e-15
1.07225e-15
7.76248e-16
5.57148e-16
3.96451e-16
2.7967e-16
1.9558e-16
1.35585e-16
9.31746e-17
6.34692e-17
4.28536e-17
2.86769e-17
1.90156e-17
1.24888e-17
8.11399e-18
5.1985e-18
3.25653e-18
1.94728e-18
1.02841e-18
3.20583e-19
1.29431e-17
3.91385e-17
6.62722e-17
9.49978e-17
1.26004e-16
1.6003e-16
1.97877e-16
2.40428e-16
2.88664e-16
3.43682e-16
4.06718e-16
4.79169e-16
5.62616e-16
6.58858e-16
7.69936e-16
8.98174e-16
1.04621e-15
1.21706e-15
1.41413e-15
1.64131e-15
1.90299e-15
2.20417e-15
2.55051e-15
2.9484e-15
3.40508e-15
3.9287e-15
4.52847e-15
5.21474e-15
5.99916e-15
6.89478e-15
7.91626e-15
9.07999e-15
1.04043e-14
1.19096e-14
1.36187e-14
1.5557e-14
1.77525e-14
2.02365e-14
2.30435e-14
2.62116e-14
2.9783e-14
3.3804e-14
3.83255e-14
4.34034e-14
4.9099e-14
5.54791e-14
6.26167e-14
7.05913e-14
7.94892e-14
8.9404e-14
1.00437e-13
1.12698e-13
1.26303e-13
1.41381e-13
1.58067e-13
1.76506e-13
1.96853e-13
2.19273e-13
2.43942e-13
2.71045e-13
3.00779e-13
3.33349e-13
3.68973e-13
4.07878e-13
4.503e-13
4.96486e-13
5.46692e-13
6.01182e-13
6.60226e-13
7.24104e-13
7.931e-13
8.67501e-13
9.47599e-13
1.03369e-12
1.12606e-12
1.22501e-12
1.33082e-12
1.44378e-12
1.56415e-12
1.69221e-12
1.82819e-12
1.97234e-12
2.12487e-12
2.28596e-12
2.4558e-12
2.63451e-12
2.82221e-12
3.01898e-12
3.22485e-12
3.43982e-12
3.66384e-12
3.89684e-12
4.13866e-12
4.38913e-12
4.64799e-12
4.91495e-12
5.18965e-12
5.47168e-12
5.76056e-12
6.05576e-12
6.35667e-12
6.66263e-12
6.97292e-12
7.28675e-12
7.60327e-12
7.92157e-12
8.24069e-12
8.55962e-12
8.87727e-12
9.19254e-12
9.50424e-12
9.81119e-12
1.01121e-11
1.04058e-11
1.0691e-11
1.09662e-11
1.12303e-11
1.14819e-11
1.17197e-11
1.19423e-11
1.21486e-11
1.23373e-11
1.25072e-11
1.26571e-11
1.2786e-11
1.28929e-11
1.29768e-11
1.3037e-11
1.30726e-11
1.30831e-11
1.30681e-11
1.3027e-11
1.29598e-11
1.28662e-11
1.27465e-11
1.26008e-11
1.24296e-11
1.22333e-11
1.20127e-11
1.17686e-11
1.15022e-11
1.12145e-11
1.0907e-11
1.05812e-11
1.02386e-11
9.88092e-12
9.51013e-12
9.12811e-12
8.7369e-12
8.33856e-12
7.93521e-12
7.52899e-12
7.12203e-12
6.71646e-12
6.31434e-12
5.9177e-12
5.52845e-12
5.14844e-12
4.77938e-12
4.42286e-12
4.08032e-12
3.75304e-12
3.44214e-12
3.14857e-12
2.8731e-12
2.61632e-12
2.37865e-12
2.16033e-12
1.96142e-12
1.78184e-12
1.62134e-12
1.47951e-12
1.35583e-12
1.24962e-12
1.16011e-12
1.08641e-12
1.02755e-12
9.82468e-13
9.50024e-13
9.29027e-13
9.18232e-13
9.16357e-13
9.22089e-13
9.34104e-13
9.51071e-13
9.71672e-13
9.94611e-13
1.01863e-12
1.04253e-12
1.06518e-12
1.08551e-12
1.1026e-12
1.11559e-12
1.12379e-12
1.12662e-12
1.12365e-12
1.11462e-12
1.09941e-12
1.07806e-12
1.05073e-12
1.01777e-12
9.79609e-13
9.36804e-13
8.9e-13
8.39909e-13
7.87291e-13
7.32926e-13
6.77597e-13
6.22062e-13
5.67041e-13
5.13195e-13
4.61111e-13
4.11298e-13
3.6417e-13
3.20054e-13
2.7918e-13
2.41692e-13
2.0765e-13
1.77038e-13
1.49776e-13
1.25729e-13
1.04719e-13
8.65338e-14
7.09408e-14
5.76946e-14
4.65459e-14
3.7249e-14
2.95675e-14
2.32789e-14
1.81777e-14
1.40775e-14
1.0812e-14
8.23494e-15
6.21975e-15
4.6583e-15
3.45945e-15
2.5474e-15
1.85987e-15
1.34631e-15
9.66222e-16
6.87479e-16
4.84932e-16
3.391e-16
2.35064e-16
1.61526e-16
1.10023e-16
7.42822e-17
4.97059e-17
3.29586e-17
2.16452e-17
1.40624e-17
9.00932e-18
5.64363e-18
3.37462e-18
1.78222e-18
5.55569e-19
2.5598e-17
7.74048e-17
1.31065e-16
1.8787e-16
2.4918e-16
3.16453e-16
3.91273e-16
4.75382e-16
5.70717e-16
6.79443e-16
8.04e-16
9.47141e-16
1.11199e-15
1.30209e-15
1.52146e-15
1.77469e-15
2.06699e-15
2.40427e-15
2.79327e-15
3.24161e-15
3.75798e-15
4.35218e-15
5.03536e-15
5.82007e-15
6.72055e-15
7.75281e-15
8.93491e-15
1.02872e-14
1.18324e-14
1.35963e-14
1.56075e-14
1.7898e-14
2.05038e-14
2.34647e-14
2.68252e-14
3.06349e-14
3.49484e-14
3.98266e-14
4.53367e-14
5.15527e-14
5.85564e-14
6.64376e-14
7.52948e-14
8.52361e-14
9.63797e-14
1.08854e-13
1.22801e-13
1.38371e-13
1.55731e-13
1.75059e-13
1.96549e-13
2.2041e-13
2.46864e-13
2.76153e-13
3.08532e-13
3.44275e-13
3.83674e-13
4.27039e-13
4.74695e-13
5.26989e-13
5.84284e-13
6.46961e-13
7.15419e-13
7.90072e-13
8.71352e-13
9.59705e-13
1.05559e-12
1.15948e-12
1.27186e-12
1.39322e-12
1.52405e-12
1.66486e-12
1.81615e-12
1.97841e-12
2.15214e-12
2.33783e-12
2.53595e-12
2.74694e-12
2.97123e-12
3.20924e-12
3.46134e-12
3.72785e-12
4.00908e-12
4.30527e-12
4.61662e-12
4.94327e-12
5.28529e-12
5.64269e-12
6.01541e-12
6.40331e-12
6.80616e-12
7.22366e-12
7.65542e-12
8.10093e-12
8.55962e-12
9.0308e-12
9.51368e-12
1.00074e-11
1.05109e-11
1.10232e-11
1.1543e-11
1.2069e-11
1.25999e-11
1.31342e-11
1.36702e-11
1.42064e-11
1.47409e-11
1.5272e-11
1.57977e-11
1.6316e-11
1.68251e-11
1.73227e-11
1.78068e-11
1.82754e-11
1.87262e-11
1.91572e-11
1.95661e-11
1.9951e-11
2.03098e-11
2.06404e-11
2.0941e-11
2.12096e-11
2.14446e-11
2.16442e-11
2.1807e-11
2.19315e-11
2.20165e-11
2.20611e-11
2.20642e-11
2.20253e-11
2.19438e-11
2.18195e-11
2.16523e-11
2.14426e-11
2.11907e-11
2.08974e-11
2.05635e-11
2.01904e-11
1.97794e-11
1.93323e-11
1.8851e-11
1.83377e-11
1.77948e-11
1.72248e-11
1.66306e-11
1.6015e-11
1.53813e-11
1.47325e-11
1.4072e-11
1.34031e-11
1.27293e-11
1.20539e-11
1.13803e-11
1.07118e-11
1.00516e-11
9.40282e-12
8.76841e-12
8.15113e-12
7.55354e-12
6.97799e-12
6.42659e-12
5.90118e-12
5.40334e-12
4.93439e-12
4.49534e-12
4.08696e-12
3.70972e-12
3.36382e-12
3.04919e-12
2.76555e-12
2.51235e-12
2.28882e-12
2.094e-12
1.92676e-12
1.78575e-12
1.66952e-12
1.57647e-12
1.50487e-12
1.4529e-12
1.41868e-12
1.40022e-12
1.39552e-12
1.40254e-12
1.41921e-12
1.44348e-12
1.47332e-12
1.50675e-12
1.54184e-12
1.57677e-12
1.60982e-12
1.6394e-12
1.66407e-12
1.68259e-12
1.69389e-12
1.69713e-12
1.69167e-12
1.67712e-12
1.65332e-12
1.62034e-12
1.57845e-12
1.52815e-12
1.47012e-12
1.40521e-12
1.33437e-12
1.2587e-12
1.17931e-12
1.0974e-12
1.01413e-12
9.30628e-13
8.47974e-13
7.6715e-13
6.89031e-13
6.14368e-13
5.43777e-13
4.77736e-13
4.16583e-13
3.60526e-13
3.09647e-13
2.63917e-13
2.2321e-13
1.87319e-13
1.55973e-13
1.28852e-13
1.05606e-13
8.58648e-14
6.92556e-14
5.54097e-14
4.39731e-14
3.46131e-14
2.70225e-14
2.09231e-14
1.60665e-14
1.22347e-14
9.23913e-15
6.9185e-15
5.13715e-15
3.78221e-15
2.76101e-15
1.99836e-15
1.434e-15
1.02018e-15
7.19531e-16
5.03095e-16
3.48711e-16
2.39598e-16
1.63188e-16
1.10168e-16
7.37137e-17
4.88744e-17
3.20959e-17
2.08511e-17
1.3358e-17
8.36748e-18
5.00323e-18
2.64229e-18
8.23676e-19
4.9165e-17
1.48667e-16
2.51725e-16
3.60815e-16
4.78548e-16
6.07719e-16
7.51368e-16
9.12836e-16
1.09583e-15
1.30451e-15
1.54355e-15
1.81823e-15
2.13452e-15
2.49921e-15
2.92003e-15
3.40574e-15
3.9663e-15
4.61305e-15
5.35886e-15
6.21834e-15
7.20806e-15
8.3468e-15
9.65581e-15
1.11591e-14
1.28839e-14
1.48606e-14
1.71238e-14
1.97122e-14
2.26693e-14
2.60438e-14
2.98903e-14
3.42698e-14
3.92505e-14
4.49081e-14
5.1327e-14
5.86008e-14
6.68335e-14
7.61399e-14
8.66468e-14
9.84942e-14
1.11836e-13
1.26841e-13
1.43695e-13
1.626e-13
1.83778e-13
2.0747e-13
2.33938e-13
2.63466e-13
2.96362e-13
3.32958e-13
3.73613e-13
4.1871e-13
4.68662e-13
5.2391e-13
5.84924e-13
6.52204e-13
7.26281e-13
8.07715e-13
8.97097e-13
9.9505e-13
1.10222e-12
1.2193e-12
1.34698e-12
1.48601e-12
1.63713e-12
1.80114e-12
1.97881e-12
2.17098e-12
2.37845e-12
2.60207e-12
2.84266e-12
3.10106e-12
3.37808e-12
3.67455e-12
3.99123e-12
4.3289e-12
4.68826e-12
5.07001e-12
5.47475e-12
5.90307e-12
6.35545e-12
6.83231e-12
7.33398e-12
7.86071e-12
8.41262e-12
8.98973e-12
9.59194e-12
1.0219e-11
1.08706e-11
1.15462e-11
1.22452e-11
1.29667e-11
1.37097e-11
1.44733e-11
1.52559e-11
1.60563e-11
1.68728e-11
1.77035e-11
1.85466e-11
1.94e-11
2.02612e-11
2.11281e-11
2.19979e-11
2.2868e-11
2.37356e-11
2.45978e-11
2.54514e-11
2.62934e-11
2.71206e-11
2.79297e-11
2.87174e-11
2.94804e-11
3.02153e-11
3.09187e-11
3.15875e-11
3.22182e-11
3.28078e-11
3.3353e-11
3.3851e-11
3.42989e-11
3.46939e-11
3.50334e-11
3.53153e-11
3.55372e-11
3.56974e-11
3.57942e-11
3.58262e-11
3.57923e-11
3.56918e-11
3.55242e-11
3.52895e-11
3.49878e-11
3.46197e-11
3.41862e-11
3.36886e-11
3.31286e-11
3.25083e-11
3.18301e-11
3.10967e-11
3.03113e-11
2.94773e-11
2.85984e-11
2.76788e-11
2.67227e-11
2.57347e-11
2.47195e-11
2.3682e-11
2.26272e-11
2.15602e-11
2.04862e-11
1.94103e-11
1.83376e-11
1.72732e-11
1.62218e-11
1.51881e-11
1.41767e-11
1.31916e-11
1.22368e-11
1.13159e-11
1.0432e-11
9.58807e-12
8.78643e-12
8.02913e-12
7.31779e-12
6.65361e-12
6.03736e-12
5.46942e-12
4.94979e-12
4.47807e-12
4.05354e-12
3.67512e-12
3.34145e-12
3.05086e-12
2.80146e-12
2.59112e-12
2.41751e-12
2.27814e-12
2.17034e-12
2.09137e-12
2.03834e-12
2.00832e-12
1.99833e-12
2.00534e-12
2.02633e-12
2.05832e-12
2.09836e-12
2.14359e-12
2.19124e-12
2.2387e-12
2.28351e-12
2.32343e-12
2.35642e-12
2.38073e-12
2.39486e-12
2.39764e-12
2.3882e-12
2.366e-12
2.33083e-12
2.2828e-12
2.22235e-12
2.15017e-12
2.06725e-12
1.97478e-12
1.87414e-12
1.76684e-12
1.65449e-12
1.53874e-12
1.42123e-12
1.30354e-12
1.18717e-12
1.07349e-12
9.63719e-13
8.58894e-13
7.59865e-13
6.67288e-13
5.81625e-13
5.03152e-13
4.31972e-13
3.68033e-13
3.1115e-13
2.61023e-13
2.17266e-13
1.79426e-13
1.47007e-13
1.19489e-13
9.63464e-14
7.70615e-14
6.11385e-14
4.81114e-14
3.75508e-14
2.90675e-14
2.23151e-14
1.69891e-14
1.28266e-14
9.60284e-15
7.12889e-15
5.24762e-15
3.83006e-15
2.77163e-15
1.98857e-15
1.4145e-15
9.97501e-16
6.97358e-16
4.83301e-16
3.32036e-16
2.26122e-16
1.5264e-16
1.02123e-16
6.77054e-17
4.44592e-17
2.88811e-17
1.85014e-17
1.15888e-17
6.92918e-18
3.65935e-18
1.14071e-18
9.29678e-17
2.81118e-16
4.75985e-16
6.82249e-16
9.04841e-16
1.14904e-15
1.42059e-15
1.7258e-15
2.07168e-15
2.46607e-15
2.91779e-15
3.43682e-15
4.03443e-15
4.72343e-15
5.51839e-15
6.43585e-15
7.49459e-15
8.71598e-15
1.01243e-14
1.1747e-14
1.36155e-14
1.57649e-14
1.82354e-14
2.10721e-14
2.43262e-14
2.8055e-14
3.23233e-14
3.72039e-14
4.27784e-14
4.91384e-14
5.6386e-14
6.46358e-14
7.4015e-14
8.46657e-14
9.67456e-14
1.1043e-13
1.25911e-13
1.43405e-13
1.63147e-13
1.85397e-13
2.10442e-13
2.38594e-13
2.70198e-13
3.05628e-13
3.45293e-13
3.89638e-13
4.39144e-13
4.94334e-13
5.55773e-13
6.24067e-13
6.9987e-13
7.83882e-13
8.76852e-13
9.79579e-13
1.09291e-12
1.21775e-12
1.35504e-12
1.50579e-12
1.67105e-12
1.85192e-12
2.04955e-12
2.26514e-12
2.49991e-12
2.75515e-12
3.03216e-12
3.33227e-12
3.65684e-12
4.00724e-12
4.38485e-12
4.79105e-12
5.2272e-12
5.69464e-12
6.19469e-12
6.72861e-12
7.29761e-12
7.90283e-12
8.54532e-12
9.22603e-12
9.94581e-12
1.07054e-11
1.15053e-11
1.23459e-11
1.32276e-11
1.41503e-11
1.51139e-11
1.61181e-11
1.71622e-11
1.82455e-11
1.93668e-11
2.05249e-11
2.17181e-11
2.29447e-11
2.42024e-11
2.5489e-11
2.68017e-11
2.81376e-11
2.94936e-11
3.08661e-11
3.22515e-11
3.36459e-11
3.5045e-11
3.64446e-11
3.784e-11
3.92265e-11
4.05993e-11
4.19533e-11
4.32835e-11
4.45846e-11
4.58513e-11
4.70785e-11
4.82608e-11
4.9393e-11
5.047e-11
5.14867e-11
5.24381e-11
5.33194e-11
5.41261e-11
5.48539e-11
5.54985e-11
5.60561e-11
5.65232e-11
5.68966e-11
5.71736e-11
5.73515e-11
5.74285e-11
5.7403e-11
5.72738e-11
5.70404e-11
5.67025e-11
5.62605e-11
5.57153e-11
5.50684e-11
5.43217e-11
5.34777e-11
5.25394e-11
5.15102e-11
5.03944e-11
4.91964e-11
4.79213e-11
4.65745e-11
4.51619e-11
4.36899e-11
4.2165e-11
4.05942e-11
3.89847e-11
3.7344e-11
3.56794e-11
3.39989e-11
3.23098e-11
3.06201e-11
2.89371e-11
2.72683e-11
2.56209e-11
2.40017e-11
2.24173e-11
2.0874e-11
1.93773e-11
1.79326e-11
1.65446e-11
1.52174e-11
1.39546e-11
1.27593e-11
1.16337e-11
1.05797e-11
9.59845e-12
8.69048e-12
7.85584e-12
7.09399e-12
6.40389e-12
5.78399e-12
5.23234e-12
4.74654e-12
4.32386e-12
3.96123e-12
3.65528e-12
3.40241e-12
3.19883e-12
3.04055e-12
2.92345e-12
2.84332e-12
2.79587e-12
2.77676e-12
2.78167e-12
2.80628e-12
2.84636e-12
2.89776e-12
2.95644e-12
3.01857e-12
3.08051e-12
3.13886e-12
3.19053e-12
3.23274e-12
3.26308e-12
3.27955e-12
3.28054e-12
3.26491e-12
3.23195e-12
3.18141e-12
3.11348e-12
3.02877e-12
2.92828e-12
2.81336e-12
2.68566e-12
2.54707e-12
2.39967e-12
2.24565e-12
2.08723e-12
1.92665e-12
1.76606e-12
1.60747e-12
1.45272e-12
1.30346e-12
1.16106e-12
1.02666e-12
9.01119e-13
7.85051e-13
6.78807e-13
5.82507e-13
4.96063e-13
4.19208e-13
3.51525e-13
2.92476e-13
2.41442e-13
1.97742e-13
1.60667e-13
1.29502e-13
1.03545e-13
8.21226e-14
6.46036e-14
5.04074e-14
3.90081e-14
2.99379e-14
2.27865e-14
1.7199e-14
1.28732e-14
9.55445e-15
7.03151e-15
5.13097e-15
3.7123e-15
2.66296e-15
1.89387e-15
1.33533e-15
9.33389e-16
6.46787e-16
4.44294e-16
3.02535e-16
2.04198e-16
1.36604e-16
9.05569e-17
5.946e-17
3.86231e-17
2.47407e-17
1.54962e-17
9.26513e-18
4.89286e-18
1.52522e-18
1.7366e-16
5.25115e-16
8.8911e-16
1.27438e-15
1.69013e-15
2.14623e-15
2.65338e-15
3.22336e-15
3.86926e-15
4.6057e-15
5.44916e-15
6.41822e-15
7.53395e-15
8.82024e-15
1.03042e-14
1.20168e-14
1.39929e-14
1.62724e-14
1.89006e-14
2.19287e-14
2.54148e-14
2.94249e-14
3.40334e-14
3.93243e-14
4.53928e-14
5.23456e-14
6.03032e-14
6.94006e-14
7.97894e-14
9.16395e-14
1.05141e-13
1.20505e-13
1.37968e-13
1.57793e-13
1.80271e-13
2.05726e-13
2.34515e-13
2.67034e-13
3.03717e-13
3.45043e-13
3.91539e-13
4.4378e-13
5.02395e-13
5.68071e-13
6.41555e-13
7.23658e-13
8.15259e-13
9.17308e-13
1.03083e-12
1.15692e-12
1.29676e-12
1.45162e-12
1.62284e-12
1.81185e-12
2.02017e-12
2.24939e-12
2.50122e-12
2.77741e-12
3.07984e-12
3.41042e-12
3.77116e-12
4.16413e-12
4.59148e-12
5.05538e-12
5.55807e-12
6.1018e-12
6.68885e-12
7.32151e-12
8.00205e-12
8.7327e-12
9.51568e-12
1.03531e-11
1.1247e-11
1.21993e-11
1.32119e-11
1.42862e-11
1.54239e-11
1.66262e-11
1.7894e-11
1.92281e-11
2.06291e-11
2.2097e-11
2.36316e-11
2.52326e-11
2.68989e-11
2.86293e-11
3.04221e-11
3.22751e-11
3.41858e-11
3.61513e-11
3.81679e-11
4.0232e-11
4.2339e-11
4.44842e-11
4.66625e-11
4.8868e-11
5.10949e-11
5.33366e-11
5.55864e-11
5.78372e-11
6.00814e-11
6.23115e-11
6.45196e-11
6.66974e-11
6.88368e-11
7.09294e-11
7.29668e-11
7.49406e-11
7.68424e-11
7.8664e-11
8.0397e-11
8.20337e-11
8.35663e-11
8.49873e-11
8.62897e-11
8.74667e-11
8.85119e-11
8.94197e-11
9.01847e-11
9.0802e-11
9.12676e-11
9.15779e-11
9.17299e-11
9.17215e-11
9.15511e-11
9.12179e-11
9.0722e-11
9.0064e-11
8.92454e-11
8.82686e-11
8.71365e-11
8.5853e-11
8.44227e-11
8.28509e-11
8.11438e-11
7.93082e-11
7.73515e-11
7.52819e-11
7.31081e-11
7.08395e-11
6.84858e-11
6.60573e-11
6.35646e-11
6.10186e-11
5.84306e-11
5.58119e-11
5.31738e-11
5.05278e-11
4.78852e-11
4.52571e-11
4.26544e-11
4.00875e-11
3.75665e-11
3.5101e-11
3.26999e-11
3.03715e-11
2.81233e-11
2.59622e-11
2.38942e-11
2.19244e-11
2.0057e-11
1.82955e-11
1.66424e-11
1.50993e-11
1.3667e-11
1.23455e-11
1.1134e-11
1.00309e-11
9.03387e-12
8.14011e-12
7.34612e-12
6.6479e-12
6.04099e-12
5.52051e-12
5.08129e-12
4.71781e-12
4.42435e-12
4.19502e-12
4.02376e-12
3.90446e-12
3.83092e-12
3.79697e-12
3.79646e-12
3.82335e-12
3.87168e-12
3.93569e-12
4.00982e-12
4.08879e-12
4.16762e-12
4.2417e-12
4.30682e-12
4.35926e-12
4.39578e-12
4.41371e-12
4.41093e-12
4.38594e-12
4.33786e-12
4.26638e-12
4.1718e-12
4.05501e-12
3.91737e-12
3.76072e-12
3.58732e-12
3.3997e-12
3.20065e-12
2.99311e-12
2.78007e-12
2.56447e-12
2.34918e-12
2.13687e-12
1.92996e-12
1.73062e-12
1.54064e-12
1.36152e-12
1.19437e-12
1.03997e-12
8.98752e-13
7.70854e-13
6.56134e-13
5.54212e-13
4.64514e-13
3.86311e-13
3.18763e-13
2.60957e-13
2.11944e-13
1.70765e-13
1.36485e-13
1.08207e-13
8.50937e-14
6.63722e-14
5.13458e-14
3.93945e-14
2.99751e-14
2.26184e-14
1.69248e-14
1.25583e-14
9.23987e-15
6.74084e-15
4.87597e-15
3.49696e-15
2.48652e-15
1.75286e-15
1.22503e-15
8.48743e-16
5.82936e-16
3.96886e-16
2.67848e-16
1.79163e-16
1.18758e-16
7.79702e-17
5.06427e-17
3.24379e-17
2.03162e-17
1.21465e-17
6.41432e-18
1.99947e-18
3.20726e-16
9.69809e-16
1.64205e-15
2.35357e-15
3.12137e-15
3.96366e-15
4.90022e-15
5.95279e-15
7.14552e-15
8.50543e-15
1.00629e-14
1.18523e-14
1.39124e-14
1.62874e-14
1.90273e-14
2.21891e-14
2.58373e-14
3.00455e-14
3.48971e-14
4.04865e-14
4.6921e-14
5.4322e-14
6.28266e-14
7.25898e-14
8.37865e-14
9.66134e-14
1.11292e-13
1.28071e-13
1.47228e-13
1.69077e-13
1.93964e-13
2.22281e-13
2.54458e-13
2.90978e-13
3.32375e-13
3.79241e-13
4.3223e-13
4.92063e-13
5.59535e-13
6.35519e-13
7.20972e-13
8.16942e-13
9.24572e-13
1.04511e-12
1.1799e-12
1.33042e-12
1.49826e-12
1.68512e-12
1.89284e-12
2.12341e-12
2.37893e-12
2.66166e-12
2.974e-12
3.31849e-12
3.69782e-12
4.11482e-12
4.57247e-12
5.07386e-12
5.62224e-12
6.22096e-12
6.87351e-12
7.58343e-12
8.3544e-12
9.19012e-12
1.00944e-11
1.10709e-11
1.21235e-11
1.3256e-11
1.4472e-11
1.57752e-11
1.7169e-11
1.86567e-11
2.02414e-11
2.1926e-11
2.3713e-11
2.56048e-11
2.76031e-11
2.97094e-11
3.19246e-11
3.42493e-11
3.66834e-11
3.92263e-11
4.18766e-11
4.46324e-11
4.74912e-11
5.04496e-11
5.35036e-11
5.66484e-11
5.98784e-11
6.31874e-11
6.65684e-11
7.00135e-11
7.35142e-11
7.70613e-11
8.0645e-11
8.42546e-11
8.78792e-11
9.1507e-11
9.51258e-11
9.87232e-11
1.02286e-10
1.05801e-10
1.09256e-10
1.12635e-10
1.15926e-10
1.19115e-10
1.22189e-10
1.25134e-10
1.27937e-10
1.30586e-10
1.33067e-10
1.35371e-10
1.37484e-10
1.39397e-10
1.411e-10
1.42584e-10
1.43841e-10
1.44863e-10
1.45645e-10
1.46181e-10
1.46467e-10
1.465e-10
1.46278e-10
1.458e-10
1.45066e-10
1.44078e-10
1.42839e-10
1.41352e-10
1.39622e-10
1.37656e-10
1.3546e-10
1.33043e-10
1.30415e-10
1.27586e-10
1.24567e-10
1.21371e-10
1.18011e-10
1.14501e-10
1.10855e-10
1.07089e-10
1.0322e-10
9.92621e-11
9.52334e-11
9.11505e-11
8.70304e-11
8.28902e-11
7.87467e-11
7.46166e-11
7.05163e-11
6.64616e-11
6.24679e-11
5.85498e-11
5.47209e-11
5.09942e-11
4.73817e-11
4.3894e-11
4.0541e-11
3.73311e-11
3.42716e-11
3.13684e-11
2.86263e-11
2.60487e-11
2.36379e-11
2.13947e-11
1.93189e-11
1.74092e-11
1.56631e-11
1.40773e-11
1.26474e-11
1.13681e-11
1.02337e-11
9.23761e-12
8.37265e-12
7.63127e-12
7.0055e-12
6.48704e-12
6.06739e-12
5.73784e-12
5.48959e-12
5.31381e-12
5.20167e-12
5.14441e-12
5.13339e-12
5.16014e-12
5.21642e-12
5.29428e-12
5.38611e-12
5.4847e-12
5.5833e-12
5.67568e-12
5.75622e-12
5.81993e-12
5.86253e-12
5.88048e-12
5.87103e-12
5.83223e-12
5.76297e-12
5.66291e-12
5.53254e-12
5.37305e-12
5.18634e-12
4.9749e-12
4.74173e-12
4.49025e-12
4.22414e-12
3.94731e-12
3.66368e-12
3.37717e-12
3.09152e-12
2.81022e-12
2.53646e-12
2.27301e-12
2.02223e-12
1.78603e-12
1.56584e-12
1.36263e-12
1.17694e-12
1.0089e-12
8.58299e-13
7.24601e-13
6.07022e-13
5.04583e-13
4.1616e-13
3.40538e-13
2.76456e-13
2.22649e-13
1.7788e-13
1.40971e-13
1.10817e-13
8.64044e-14
6.68193e-14
5.12491e-14
3.89826e-14
2.94062e-14
2.19975e-14
1.63177e-14
1.20027e-14
8.7542e-15
6.33081e-15
4.53933e-15
3.22701e-15
2.27442e-15
1.58924e-15
1.10089e-15
7.55993e-16
5.14634e-16
3.47267e-16
2.32258e-16
1.53936e-16
1.01056e-16
6.56316e-17
4.20358e-17
2.63259e-17
1.57388e-17
8.31111e-18
2.5907e-18
5.8578e-16
1.77128e-15
2.99908e-15
4.29862e-15
5.70098e-15
7.2394e-15
8.95001e-15
1.08725e-14
1.30511e-14
1.5535e-14
1.83798e-14
2.16482e-14
2.54112e-14
2.97492e-14
3.47539e-14
4.0529e-14
4.71926e-14
5.48789e-14
6.37399e-14
7.39484e-14
8.57e-14
9.9216e-14
1.14747e-13
1.32575e-13
1.53019e-13
1.76438e-13
2.03234e-13
2.33862e-13
2.68828e-13
3.08699e-13
3.5411e-13
4.05768e-13
4.64459e-13
5.31058e-13
6.06534e-13
6.9196e-13
7.88521e-13
8.97523e-13
1.0204e-12
1.15874e-12
1.31426e-12
1.48885e-12
1.68457e-12
1.90367e-12
2.14856e-12
2.42189e-12
2.72649e-12
3.06542e-12
3.44197e-12
3.85965e-12
4.32222e-12
4.83367e-12
5.39824e-12
6.02041e-12
6.70492e-12
7.45671e-12
8.28098e-12
9.18314e-12
1.01688e-11
1.12437e-11
1.24139e-11
1.36854e-11
1.50644e-11
1.65573e-11
1.81702e-11
1.99095e-11
2.17814e-11
2.3792e-11
2.59472e-11
2.82528e-11
3.07141e-11
3.33361e-11
3.61235e-11
3.90803e-11
4.22101e-11
4.55155e-11
4.89987e-11
5.26611e-11
5.65028e-11
6.05235e-11
6.47215e-11
6.90942e-11
7.36377e-11
7.83471e-11
8.32161e-11
8.82374e-11
9.34022e-11
9.87006e-11
1.04121e-10
1.09652e-10
1.15278e-10
1.20986e-10
1.26758e-10
1.32579e-10
1.38429e-10
1.4429e-10
1.50141e-10
1.55962e-10
1.61733e-10
1.6743e-10
1.73032e-10
1.78517e-10
1.83862e-10
1.89045e-10
1.94044e-10
1.98837e-10
2.03403e-10
2.07721e-10
2.11772e-10
2.15536e-10
2.18995e-10
2.22134e-10
2.24936e-10
2.27387e-10
2.29474e-10
2.31187e-10
2.32515e-10
2.33451e-10
2.33989e-10
2.34125e-10
2.33855e-10
2.33179e-10
2.32098e-10
2.30616e-10
2.28736e-10
2.26465e-10
2.23812e-10
2.20786e-10
2.17399e-10
2.13666e-10
2.09599e-10
2.05217e-10
2.00537e-10
1.95577e-10
1.90359e-10
1.84903e-10
1.79233e-10
1.73372e-10
1.67343e-10
1.61171e-10
1.54882e-10
1.48502e-10
1.42054e-10
1.35566e-10
1.29063e-10
1.2257e-10
1.16111e-10
1.09711e-10
1.03392e-10
9.71774e-11
9.10878e-11
8.51432e-11
7.93619e-11
7.3761e-11
6.83558e-11
6.316e-11
5.81855e-11
5.34424e-11
4.89391e-11
4.46818e-11
4.06752e-11
3.69219e-11
3.34231e-11
3.01779e-11
2.7184e-11
2.44376e-11
2.19332e-11
1.96644e-11
1.76233e-11
1.58012e-11
1.41882e-11
1.2774e-11
1.15474e-11
1.04966e-11
9.60957e-12
8.87393e-12
8.27707e-12
7.80628e-12
7.44882e-12
7.19202e-12
7.02333e-12
6.93038e-12
6.90109e-12
6.92368e-12
6.98678e-12
7.07948e-12
7.19139e-12
7.31272e-12
7.43439e-12
7.54804e-12
7.64615e-12
7.7221e-12
7.77025e-12
7.78595e-12
7.76563e-12
7.70681e-12
7.60807e-12
7.46908e-12
7.29056e-12
7.07418e-12
6.82251e-12
6.53888e-12
6.2273e-12
5.89231e-12
5.53877e-12
5.17182e-12
4.79663e-12
4.41829e-12
4.04169e-12
3.67138e-12
3.31146e-12
2.96555e-12
2.63666e-12
2.32722e-12
2.03906e-12
1.77337e-12
1.53081e-12
1.31151e-12
1.11513e-12
9.40917e-13
7.87829e-13
6.54548e-13
5.39582e-13
4.41324e-13
3.58112e-13
2.88285e-13
2.30221e-13
1.82376e-13
1.43308e-13
1.11696e-13
8.63462e-14
6.62026e-14
5.034e-14
3.79614e-14
2.83885e-14
2.10523e-14
1.5481e-14
1.12881e-14
8.16124e-15
5.85041e-15
4.15813e-15
2.93007e-15
2.04697e-15
1.41771e-15
9.73398e-16
6.62528e-16
4.47e-16
2.98924e-16
1.98098e-16
1.30034e-16
8.44445e-17
5.4081e-17
3.38675e-17
2.02466e-17
1.06912e-17
3.33255e-18
1.05812e-15
3.19957e-15
5.41744e-15
7.76499e-15
1.02983e-14
1.30776e-14
1.6168e-14
1.96415e-14
2.35776e-14
2.80658e-14
3.32062e-14
3.91121e-14
4.59121e-14
5.37515e-14
6.27957e-14
7.32326e-14
8.52755e-14
9.91667e-14
1.15181e-13
1.33631e-13
1.5487e-13
1.79297e-13
2.07365e-13
2.39583e-13
2.76528e-13
3.18846e-13
3.67266e-13
4.22604e-13
4.85774e-13
5.578e-13
6.39824e-13
7.33119e-13
8.39102e-13
9.59344e-13
1.09559e-12
1.24976e-12
1.424e-12
1.62063e-12
1.84224e-12
2.09165e-12
2.37195e-12
2.68653e-12
3.03904e-12
3.43349e-12
3.87421e-12
4.36587e-12
4.91351e-12
5.52256e-12
6.19883e-12
6.94852e-12
7.77825e-12
8.69505e-12
9.70635e-12
1.082e-11
1.20442e-11
1.33876e-11
1.48592e-11
1.64683e-11
1.82246e-11
2.0138e-11
2.22186e-11
2.44767e-11
2.69228e-11
2.95673e-11
3.24206e-11
3.54932e-11
3.87951e-11
4.23362e-11
4.61257e-11
5.01727e-11
5.44853e-11
5.90709e-11
6.39362e-11
6.90866e-11
7.45266e-11
8.02592e-11
8.62861e-11
9.26075e-11
9.92217e-11
1.06126e-10
1.13314e-10
1.2078e-10
1.28514e-10
1.36505e-10
1.4474e-10
1.53204e-10
1.61878e-10
1.70742e-10
1.79776e-10
1.88955e-10
1.98252e-10
2.07641e-10
2.17091e-10
2.26572e-10
2.36051e-10
2.45493e-10
2.54865e-10
2.6413e-10
2.73251e-10
2.82192e-10
2.90917e-10
2.99387e-10
3.07567e-10
3.1542e-10
3.22912e-10
3.30009e-10
3.36677e-10
3.42886e-10
3.48607e-10
3.53812e-10
3.58475e-10
3.62575e-10
3.6609e-10
3.69003e-10
3.71299e-10
3.72965e-10
3.73992e-10
3.74374e-10
3.74107e-10
3.73191e-10
3.71627e-10
3.69422e-10
3.66584e-10
3.63124e-10
3.59055e-10
3.54395e-10
3.49162e-10
3.43379e-10
3.37069e-10
3.30258e-10
3.22976e-10
3.15251e-10
3.07116e-10
2.98605e-10
2.89752e-10
2.80594e-10
2.71168e-10
2.61511e-10
2.51662e-10
2.4166e-10
2.31544e-10
2.21354e-10
2.11126e-10
2.00901e-10
1.90715e-10
1.80604e-10
1.70605e-10