/*--------------------------------*- C++ -*----------------------------------*\
| =========                 |                                                 |
| \\      /  F ield         | OpenFOAM: The Open Source CFD Toolbox           |
|  \\    /   O peration     | Version:  v2012                                 |
|   \\  /    A nd           | Website:  www.openfoam.com                      |
|    \\/     M anipulation  |                                                 |
\*---------------------------------------------------------------------------*/
FoamFile
{
    version     2.0;
    format      ascii;
    class       surfaceScalarField;
    location    "5";
    object      phi;
}
// * * * * * * * * * * * * * * * * * * * * * * * * * * * * * * * * * * * * * //

dimensions      [0 3 -1 0 0 0 0];
oriented        oriented;


internalField   nonuniform List<scalar> 
130560
(
3.62584e-06
-3.62584e-06
7.25151e-06
-3.62568e-06
1.08769e-05
-3.62536e-06
1.45018e-05
-3.62488e-06
1.8126e-05
-3.62425e-06
2.17495e-05
-3.62345e-06
2.53719e-05
-3.62248e-06
2.89933e-05
-3.62134e-06
3.26133e-05
-3.62002e-06
3.62318e-05
-3.61853e-06
3.98487e-05
-3.61684e-06
4.34636e-05
-3.61497e-06
4.70765e-05
-3.61289e-06
5.06871e-05
-3.6106e-06
5.42952e-05
-3.6081e-06
5.79006e-05
-3.60537e-06
6.1503e-05
-3.6024e-06
6.51022e-05
-3.59919e-06
6.86979e-05
-3.59572e-06
7.22899e-05
-3.59198e-06
7.58778e-05
-3.58797e-06
7.94615e-05
-3.58366e-06
8.30405e-05
-3.57905e-06
8.66147e-05
-3.57412e-06
9.01835e-05
-3.56885e-06
9.37468e-05
-3.56324e-06
9.7304e-05
-3.55727e-06
0.000100855
-3.55092e-06
0.000104399
-3.54418e-06
0.000107936
-3.53703e-06
0.000111466
-3.52946e-06
0.000114987
-3.52144e-06
0.0001185
-3.51297e-06
0.000122004
-3.50402e-06
0.000125499
-3.49458e-06
0.000128983
-3.48462e-06
0.000132457
-3.47414e-06
0.000135921
-3.46311e-06
0.000139372
-3.45151e-06
0.000142811
-3.43933e-06
0.000146238
-3.42655e-06
0.000149651
-3.41315e-06
0.00015305
-3.39911e-06
0.000156435
-3.38441e-06
0.000159804
-3.36904e-06
0.000163157
-3.35297e-06
0.000166493
-3.33619e-06
0.000169811
-3.31868e-06
0.000173112
-3.30043e-06
0.000176393
-3.28141e-06
0.000179655
-3.26162e-06
0.000182896
-3.24102e-06
0.000186116
-3.21962e-06
0.000189313
-3.19739e-06
0.000192487
-3.17432e-06
0.000195638
-3.1504e-06
0.000198763
-3.12561e-06
0.000201863
-3.09993e-06
0.000204937
-3.07337e-06
0.000207982
-3.0459e-06
0.000211
-3.01752e-06
0.000213988
-2.98822e-06
0.000216946
-2.95798e-06
0.000219873
-2.92681e-06
0.000222768
-2.8947e-06
0.000225629
-2.86163e-06
0.000228457
-2.82762e-06
0.00023125
-2.79264e-06
0.000234006
-2.75672e-06
0.000236726
-2.71983e-06
0.000239408
-2.68199e-06
0.000242051
-2.64319e-06
0.000244655
-2.60344e-06
0.000247217
-2.56274e-06
0.000249739
-2.5211e-06
0.000252217
-2.47853e-06
0.000254652
-2.43504e-06
0.000257043
-2.39063e-06
0.000259388
-2.34532e-06
0.000261687
-2.29912e-06
0.000263939
-2.25204e-06
0.000266143
-2.20409e-06
0.000268299
-2.15531e-06
0.000270404
-2.1057e-06
0.00027246
-2.05528e-06
0.000274464
-2.00408e-06
0.000276416
-1.95211e-06
0.000278315
-1.89939e-06
0.000280161
-1.84597e-06
0.000281953
-1.79184e-06
0.00028369
-1.73706e-06
0.000285372
-1.68163e-06
0.000286997
-1.62559e-06
0.000288566
-1.56898e-06
0.000290078
-1.51181e-06
0.000291532
-1.45412e-06
0.000292928
-1.39594e-06
0.000294265
-1.3373e-06
0.000295544
-1.27824e-06
0.000296762
-1.21879e-06
0.000297921
-1.15899e-06
0.00029902
-1.09886e-06
0.000300059
-1.03844e-06
0.000301037
-9.77776e-07
0.000301953
-9.16891e-07
0.000302809
-8.55824e-07
0.000303604
-7.9461e-07
0.000304337
-7.33285e-07
0.000305009
-6.71883e-07
0.000305619
-6.1044e-07
0.000306168
-5.48991e-07
0.000306656
-4.87569e-07
0.000307082
-4.2621e-07
0.000307447
-3.64946e-07
0.000307751
-3.03812e-07
0.000307994
-2.42839e-07
0.000308176
-1.8206e-07
0.000308297
-1.21508e-07
0.000308359
-6.12109e-08
0.00030836
-1.20067e-09
0.000308301
5.84938e-08
0.000308183
1.17844e-07
0.000308007
1.76822e-07
0.000307771
2.35402e-07
0.000307478
2.93558e-07
0.000307126
3.51264e-07
0.000306718
4.08497e-07
0.000306253
4.65233e-07
0.000305731
5.21452e-07
0.000305154
5.77132e-07
0.000304522
6.32253e-07
0.000303835
6.86797e-07
0.000303094
7.40745e-07
0.0003023
7.94081e-07
0.000301453
8.4679e-07
0.000300555
8.98856e-07
0.000299604
9.50266e-07
0.000298603
1.00101e-06
0.000297552
1.05107e-06
0.000296452
1.10044e-06
0.000295303
1.14911e-06
0.000294106
1.19707e-06
0.000292861
1.24431e-06
0.000291571
1.29083e-06
0.000290234
1.33662e-06
0.000288852
1.38168e-06
0.000287426
1.42599e-06
0.000285957
1.46957e-06
0.000284444
1.5124e-06
0.00028289
1.55448e-06
0.000281294
1.59581e-06
0.000279658
1.6364e-06
0.000277981
1.67624e-06
0.000276266
1.71533e-06
0.000274512
1.75367e-06
0.000272721
1.79128e-06
0.000270893
1.82814e-06
0.000269029
1.86426e-06
0.000267129
1.89965e-06
0.000265195
1.93431e-06
0.000263226
1.96825e-06
0.000261225
2.00146e-06
0.000259191
2.03397e-06
0.000257125
2.06576e-06
0.000255028
2.09685e-06
0.000252901
2.12724e-06
0.000250744
2.15695e-06
0.000248558
2.18597e-06
0.000246344
2.21432e-06
0.000244102
2.242e-06
0.000241833
2.26903e-06
0.000239537
2.2954e-06
0.000237216
2.32113e-06
0.00023487
2.34622e-06
0.000232499
2.37068e-06
0.000230105
2.39453e-06
0.000227687
2.41777e-06
0.000225247
2.44041e-06
0.000222784
2.46245e-06
0.0002203
2.48392e-06
0.000217796
2.50481e-06
0.00021527
2.52513e-06
0.000212726
2.5449e-06
0.000210161
2.56412e-06
0.000207579
2.58281e-06
0.000204978
2.60096e-06
0.000202359
2.6186e-06
0.000199723
2.63573e-06
0.000197071
2.65236e-06
0.000194402
2.66849e-06
0.000191718
2.68415e-06
0.000189019
2.69933e-06
0.000186305
2.71405e-06
0.000183577
2.72831e-06
0.000180834
2.74213e-06
0.000178079
2.7555e-06
0.000175311
2.76846e-06
0.00017253
2.78099e-06
0.000169736
2.79311e-06
0.000166932
2.80483e-06
0.000164115
2.81616e-06
0.000161288
2.82711e-06
0.000158451
2.83768e-06
0.000155603
2.84788e-06
0.000152745
2.85773e-06
0.000149878
2.86723e-06
0.000147001
2.87638e-06
0.000144116
2.88521e-06
0.000141223
2.8937e-06
0.000138321
2.90189e-06
0.000135411
2.90976e-06
0.000132494
2.91733e-06
0.000129569
2.92461e-06
0.000126637
2.9316e-06
0.000123699
2.93832e-06
0.000120754
2.94477e-06
0.000117803
2.95095e-06
0.000114846
2.95688e-06
0.000111884
2.96256e-06
0.000108916
2.968e-06
0.000105943
2.97321e-06
0.000102964
2.97818e-06
9.99815e-05
2.98294e-06
9.6994e-05
2.98748e-06
9.40022e-05
2.99182e-06
9.10063e-05
2.99595e-06
8.80064e-05
2.99989e-06
8.50027e-05
3.00363e-06
8.19955e-05
3.00719e-06
7.8985e-05
3.01058e-06
7.59712e-05
3.01379e-06
7.29543e-05
3.01683e-06
6.99346e-05
3.01971e-06
6.69122e-05
3.02243e-06
6.38872e-05
3.025e-06
6.08598e-05
3.02742e-06
5.78301e-05
3.0297e-06
5.47982e-05
3.03183e-06
5.17644e-05
3.03383e-06
4.87287e-05
3.0357e-06
4.56913e-05
3.03744e-06
4.26522e-05
3.03905e-06
3.96117e-05
3.04054e-06
3.65698e-05
3.04191e-06
3.35266e-05
3.04317e-06
3.04823e-05
3.04431e-06
2.74369e-05
3.04534e-06
2.43907e-05
3.04626e-06
2.13436e-05
3.04708e-06
1.82958e-05
3.04778e-06
1.52474e-05
3.04839e-06
1.21985e-05
3.04889e-06
9.14926e-06
3.04929e-06
6.09967e-06
3.04959e-06
3.04988e-06
3.04979e-06
3.04988e-06
3.62599e-06
-7.25182e-06
7.25182e-06
-7.25151e-06
1.08773e-05
-7.25087e-06
1.45024e-05
-7.24993e-06
1.81268e-05
-7.24866e-06
2.17504e-05
-7.24706e-06
2.5373e-05
-7.24513e-06
2.89946e-05
-7.24285e-06
3.26148e-05
-7.24023e-06
3.62335e-05
-7.23724e-06
3.98505e-05
-7.23388e-06
4.34657e-05
-7.23013e-06
4.70788e-05
-7.22598e-06
5.06896e-05
-7.22141e-06
5.42979e-05
-7.21641e-06
5.79035e-05
-7.21096e-06
6.15061e-05
-7.20504e-06
6.51056e-05
-7.19863e-06
6.87015e-05
-7.1917e-06
7.22938e-05
-7.18424e-06
7.58821e-05
-7.17622e-06
7.9466e-05
-7.16762e-06
8.30454e-05
-7.15841e-06
8.66198e-05
-7.14856e-06
9.0189e-05
-7.13805e-06
9.37526e-05
-7.12684e-06
9.73103e-05
-7.11491e-06
0.000100862
-7.10223e-06
0.000104406
-7.08877e-06
0.000107944
-7.07449e-06
0.000111474
-7.05936e-06
0.000114995
-7.04334e-06
0.000118509
-7.02641e-06
0.000122013
-7.00853e-06
0.000125508
-6.98966e-06
0.000128994
-6.96977e-06
0.000132468
-6.94883e-06
0.000135932
-6.92678e-06
0.000139384
-6.90361e-06
0.000142824
-6.87927e-06
0.000146251
-6.85372e-06
0.000149665
-6.82694e-06
0.000153065
-6.79887e-06
0.00015645
-6.76949e-06
0.00015982
-6.73876e-06
0.000163173
-6.70664e-06
0.00016651
-6.6731e-06
0.00016983
-6.63811e-06
0.000173131
-6.60162e-06
0.000176413
-6.5636e-06
0.000179675
-6.52402e-06
0.000182917
-6.48286e-06
0.000186138
-6.44007e-06
0.000189336
-6.39562e-06
0.000192511
-6.3495e-06
0.000195662
-6.30166e-06
0.000198789
-6.25209e-06
0.00020189
-6.20076e-06
0.000204964
-6.14764e-06
0.000208011
-6.09271e-06
0.000211029
-6.03596e-06
0.000214018
-5.97736e-06
0.000216977
-5.9169e-06
0.000219905
-5.85456e-06
0.000222801
-5.79034e-06
0.000225663
-5.72422e-06
0.000228492
-5.65619e-06
0.000231285
-5.58624e-06
0.000234043
-5.51439e-06
0.000236764
-5.44061e-06
0.000239447
-5.36492e-06
0.000242091
-5.28732e-06
0.000244695
-5.20782e-06
0.000247259
-5.12642e-06
0.000249781
-5.04314e-06
0.00025226
-4.95799e-06
0.000254696
-4.87099e-06
0.000257088
-4.78216e-06
0.000259434
-4.69153e-06
0.000261734
-4.59911e-06
0.000263987
-4.50493e-06
0.000266192
-4.40903e-06
0.000268348
-4.31145e-06
0.000270455
-4.2122e-06
0.000272511
-4.11135e-06
0.000274515
-4.00892e-06
0.000276468
-3.90495e-06
0.000278368
-3.79951e-06
0.000280215
-3.69262e-06
0.000282008
-3.58436e-06
0.000283745
-3.47475e-06
0.000285428
-3.36387e-06
0.000287054
-3.25177e-06
0.000288623
-3.1385e-06
0.000290136
-3.02413e-06
0.00029159
-2.90872e-06
0.000292987
-2.79233e-06
0.000294324
-2.67503e-06
0.000295603
-2.55687e-06
0.000296822
-2.43794e-06
0.000297981
-2.3183e-06
0.000299081
-2.19801e-06
0.000300119
-2.07714e-06
0.000301097
-1.95577e-06
0.000302014
-1.83397e-06
0.00030287
-1.7118e-06
0.000303665
-1.58933e-06
0.000304398
-1.46665e-06
0.00030507
-1.34381e-06
0.000305681
-1.22089e-06
0.00030623
-1.09796e-06
0.000306717
-9.75078e-07
0.000307143
-8.52326e-07
0.000307508
-7.29765e-07
0.000307812
-6.07464e-07
0.000308054
-4.85486e-07
0.000308236
-3.63898e-07
0.000308358
-2.42761e-07
0.000308418
-1.22138e-07
0.000308419
-2.08832e-09
0.00030836
1.17329e-07
0.000308242
2.36057e-07
0.000308065
3.54041e-07
0.000307829
4.71226e-07
0.000307535
5.87561e-07
0.000307183
7.02998e-07
0.000306775
8.17486e-07
0.000306309
9.30982e-07
0.000305787
1.04344e-06
0.000305209
1.15482e-06
0.000304576
1.26508e-06
0.000303889
1.37419e-06
0.000303148
1.4821e-06
0.000302353
1.58879e-06
0.000301505
1.69422e-06
0.000300606
1.79836e-06
0.000299655
1.9012e-06
0.000298653
2.00269e-06
0.000297602
2.10282e-06
0.0002965
2.20157e-06
0.000295351
2.29892e-06
0.000294153
2.39485e-06
0.000292908
2.48934e-06
0.000291616
2.58239e-06
0.000290279
2.67397e-06
0.000288896
2.76409e-06
0.00028747
2.85272e-06
0.000285999
2.93988e-06
0.000284486
3.02553e-06
0.000282931
3.1097e-06
0.000281334
3.19237e-06
0.000279697
3.27354e-06
0.00027802
3.35322e-06
0.000276304
3.4314e-06
0.00027455
3.50809e-06
0.000272758
3.58329e-06
0.000270929
3.65701e-06
0.000269064
3.72925e-06
0.000267164
3.80003e-06
0.000265229
3.86935e-06
0.00026326
3.93721e-06
0.000261257
4.00364e-06
0.000259223
4.06864e-06
0.000257156
4.13222e-06
0.000255059
4.19439e-06
0.000252931
4.25518e-06
0.000250773
4.31458e-06
0.000248587
4.37262e-06
0.000246372
4.42931e-06
0.000244129
4.48467e-06
0.000241859
4.5387e-06
0.000239563
4.59144e-06
0.000237241
4.64288e-06
0.000234895
4.69306e-06
0.000232523
4.74198e-06
0.000230128
4.78967e-06
0.00022771
4.83614e-06
0.000225269
4.8814e-06
0.000222806
4.92549e-06
0.000220321
4.9684e-06
0.000217816
5.01017e-06
0.00021529
5.05081e-06
0.000212745
5.09034e-06
0.00021018
5.12878e-06
0.000207597
5.16614e-06
0.000204995
5.20245e-06
0.000202376
5.23771e-06
0.00019974
5.27196e-06
0.000197087
5.30521e-06
0.000194418
5.33747e-06
0.000191734
5.36877e-06
0.000189034
5.39912e-06
0.000186319
5.42855e-06
0.00018359
5.45706e-06
0.000180848
5.48469e-06
0.000178092
5.51144e-06
0.000175323
5.53733e-06
0.000172542
5.56239e-06
0.000169748
5.58662e-06
0.000166943
5.61006e-06
0.000164126
5.63271e-06
0.000161299
5.65459e-06
0.000158461
5.67573e-06
0.000155613
5.69613e-06
0.000152755
5.71581e-06
0.000149887
5.7348e-06
0.00014701
5.7531e-06
0.000144125
5.77074e-06
0.000141231
5.78772e-06
0.000138329
5.80408e-06
0.000135418
5.81982e-06
0.000132501
5.83495e-06
0.000129576
5.84951e-06
0.000126644
5.86349e-06
0.000123705
5.87691e-06
0.00012076
5.8898e-06
0.000117809
5.90216e-06
0.000114852
5.91401e-06
0.000111889
5.92537e-06
0.000108921
5.93624e-06
0.000105948
5.94664e-06
0.000102969
5.95659e-06
9.99861e-05
5.9661e-06
9.69984e-05
5.97517e-06
9.40064e-05
5.98384e-06
9.10102e-05
5.99209e-06
8.80102e-05
5.99996e-06
8.50063e-05
6.00745e-06
8.1999e-05
6.01457e-06
7.89882e-05
6.02133e-06
7.59743e-05
6.02775e-06
7.29573e-05
6.03383e-06
6.99374e-05
6.03958e-06
6.69148e-05
6.04502e-06
6.38896e-05
6.05015e-06
6.08621e-05
6.05499e-06
5.78322e-05
6.05954e-06
5.48003e-05
6.0638e-06
5.17663e-05
6.0678e-06
4.87305e-05
6.07153e-06
4.56929e-05
6.075e-06
4.26537e-05
6.07823e-06
3.96131e-05
6.08121e-06
3.6571e-05
6.08395e-06
3.35278e-05
6.08645e-06
3.04833e-05
6.08873e-06
2.74379e-05
6.09079e-06
2.43915e-05
6.09263e-06
2.13443e-05
6.09426e-06
1.82964e-05
6.09567e-06
1.52479e-05
6.09688e-06
1.21989e-05
6.09788e-06
9.14956e-06
6.09868e-06
6.09987e-06
6.09928e-06
3.04998e-06
6.09967e-06
6.09987e-06
3.6263e-06
-1.08781e-05
7.25245e-06
-1.08777e-05
1.08783e-05
-1.08767e-05
1.45037e-05
-1.08753e-05
1.81284e-05
-1.08734e-05
2.17523e-05
-1.0871e-05
2.53753e-05
-1.08681e-05
2.89972e-05
-1.08647e-05
3.26178e-05
-1.08608e-05
3.62369e-05
-1.08563e-05
3.98543e-05
-1.08513e-05
4.34698e-05
-1.08457e-05
4.70834e-05
-1.08395e-05
5.06946e-05
-1.08327e-05
5.43034e-05
-1.08252e-05
5.79094e-05
-1.0817e-05
6.15126e-05
-1.08082e-05
6.51125e-05
-1.07986e-05
6.87091e-05
-1.07882e-05
7.23019e-05
-1.07771e-05
7.58907e-05
-1.07651e-05
7.94753e-05
-1.07522e-05
8.30553e-05
-1.07384e-05
8.66304e-05
-1.07237e-05
9.02003e-05
-1.07079e-05
9.37646e-05
-1.06912e-05
9.7323e-05
-1.06733e-05
0.000100875
-1.06543e-05
0.000104421
-1.06342e-05
0.000107959
-1.06128e-05
0.00011149
-1.05901e-05
0.000115012
-1.05662e-05
0.000118527
-1.05408e-05
0.000122032
-1.0514e-05
0.000125528
-1.04858e-05
0.000129015
-1.0456e-05
0.00013249
-1.04246e-05
0.000135955
-1.03916e-05
0.000139408
-1.03569e-05
0.00014285
-1.03204e-05
0.000146278
-1.02821e-05
0.000149693
-1.0242e-05
0.000153094
-1.01999e-05
0.000156481
-1.01559e-05
0.000159852
-1.01099e-05
0.000163207
-1.00617e-05
0.000166545
-1.00115e-05
0.000169866
-9.95902e-06
0.000173169
-9.90433e-06
0.000176453
-9.84735e-06
0.000179717
-9.78802e-06
0.00018296
-9.72631e-06
0.000186182
-9.66216e-06
0.000189382
-9.59554e-06
0.000192559
-9.52638e-06
0.000195712
-9.45466e-06
0.00019884
-9.38034e-06
0.000201943
-9.30336e-06
0.000205019
-9.22371e-06
0.000208068
-9.14135e-06
0.000211088
-9.05624e-06
0.000214079
-8.96837e-06
0.00021704
-8.87769e-06
0.000219969
-8.78421e-06
0.000222867
-8.68788e-06
0.000225731
-8.58871e-06
0.000228562
-8.48667e-06
0.000231357
-8.38176e-06
0.000234117
-8.27398e-06
0.00023684
-8.16331e-06
0.000239524
-8.04977e-06
0.00024217
-7.93337e-06
0.000244777
-7.8141e-06
0.000247342
-7.69199e-06
0.000249866
-7.56705e-06
0.000252348
-7.4393e-06
0.000254785
-7.30878e-06
0.000257179
-7.17551e-06
0.000259527
-7.03952e-06
0.000261828
-6.90085e-06
0.000264083
-6.75955e-06
0.00026629
-6.61566e-06
0.000268447
-6.46924e-06
0.000270556
-6.32033e-06
0.000272613
-6.16899e-06
0.00027462
-6.01529e-06
0.000276574
-5.85929e-06
0.000278475
-5.70106e-06
0.000280323
-5.54067e-06
0.000282117
-5.3782e-06
0.000283856
-5.21373e-06
0.00028554
-5.04733e-06
0.000287167
-4.87911e-06
0.000288738
-4.70913e-06
0.000290251
-4.5375e-06
0.000291707
-4.3643e-06
0.000293104
-4.18964e-06
0.000294443
-4.0136e-06
0.000295722
-3.83629e-06
0.000296942
-3.6578e-06
0.000298102
-3.47825e-06
0.000299202
-3.29773e-06
0.000300241
-3.11634e-06
0.000301219
-2.9342e-06
0.000302137
-2.7514e-06
0.000302993
-2.56806e-06
0.000303788
-2.38428e-06
0.000304521
-2.20016e-06
0.000305193
-2.01582e-06
0.000305804
-1.83135e-06
0.000306353
-1.64686e-06
0.00030684
-1.46246e-06
0.000307266
-1.27825e-06
0.000307631
-1.09432e-06
0.000307934
-9.1079e-07
0.000308176
-7.27744e-07
0.000308358
-5.45283e-07
0.000308478
-3.635e-07
0.000308539
-1.8249e-07
0.000308539
-2.34244e-09
0.000308479
1.76855e-07
0.00030836
3.55016e-07
0.000308182
5.32058e-07
0.000307946
7.07901e-07
0.000307651
8.82466e-07
0.000307298
1.05568e-06
0.000306888
1.22747e-06
0.000306421
1.39777e-06
0.000305898
1.56651e-06
0.000305319
1.73363e-06
0.000304685
1.89907e-06
0.000303997
2.06277e-06
0.000303254
2.22468e-06
0.000302458
2.38475e-06
0.00030161
2.54294e-06
0.000300709
2.69919e-06
0.000299757
2.85347e-06
0.000298753
3.00574e-06
0.0002977
3.15596e-06
0.000296598
3.30411e-06
0.000295447
3.45016e-06
0.000294247
3.59407e-06
0.000293001
3.73582e-06
0.000291708
3.87541e-06
0.000290369
4.0128e-06
0.000288985
4.14798e-06
0.000287557
4.28094e-06
0.000286085
4.41168e-06
0.00028457
4.54017e-06
0.000283014
4.66642e-06
0.000281416
4.79043e-06
0.000279777
4.91218e-06
0.000278099
5.03169e-06
0.000276381
5.14896e-06
0.000274625
5.26399e-06
0.000272832
5.37679e-06
0.000271001
5.48736e-06
0.000269135
5.59572e-06
0.000267233
5.70187e-06
0.000265296
5.80583e-06
0.000263326
5.90762e-06
0.000261322
6.00725e-06
0.000259286
6.10473e-06
0.000257219
6.20008e-06
0.00025512
6.29333e-06
0.00025299
6.38449e-06
0.000250831
6.47357e-06
0.000248643
6.56062e-06
0.000246427
6.64563e-06
0.000244183
6.72865e-06
0.000241912
6.80968e-06
0.000239615
6.88876e-06
0.000237292
6.96591e-06
0.000234944
7.04116e-06
0.000232571
7.11452e-06
0.000230175
7.18603e-06
0.000227755
7.25571e-06
0.000225313
7.32359e-06
0.000222849
7.38969e-06
0.000220363
7.45404e-06
0.000217857
7.51667e-06
0.00021533
7.57761e-06
0.000212783
7.63688e-06
0.000210217
7.69451e-06
0.000207633
7.75053e-06
0.000205031
7.80497e-06
0.00020241
7.85784e-06
0.000199773
7.90919e-06
0.000197119
7.95904e-06
0.000194449
8.00741e-06
0.000191764
8.05434e-06
0.000189063
8.09984e-06
0.000186348
8.14396e-06
0.000183618
8.18671e-06
0.000180875
8.22812e-06
0.000178118
8.26822e-06
0.000175348
8.30704e-06
0.000172566
8.34461e-06
0.000169772
8.38094e-06
0.000166966
8.41607e-06
0.000164148
8.45002e-06
0.00016132
8.48283e-06
0.000158481
8.5145e-06
0.000155632
8.54508e-06
0.000152774
8.57459e-06
0.000149905
8.60305e-06
0.000147028
8.63048e-06
0.000144142
8.65692e-06
0.000141247
8.68238e-06
0.000138344
8.70689e-06
0.000135434
8.73048e-06
0.000132515
8.75316e-06
0.00012959
8.77497e-06
0.000126658
8.79592e-06
0.000123718
8.81605e-06
0.000120773
8.83536e-06
0.000117821
8.85388e-06
0.000114863
8.87164e-06
0.0001119
8.88865e-06
0.000108931
8.90494e-06
0.000105958
8.92053e-06
0.000102979
8.93544e-06
9.99952e-05
8.94968e-06
9.7007e-05
8.96328e-06
9.40146e-05
8.97626e-06
9.10181e-05
8.98863e-06
8.80176e-05
9.00042e-06
8.50134e-05
9.01163e-06
8.20057e-05
9.0223e-06
7.89946e-05
9.03243e-06
7.59803e-05
9.04204e-06
7.2963e-05
9.05115e-06
6.99428e-05
9.05977e-06
6.69199e-05
9.06792e-06
6.38945e-05
9.0756e-06
6.08666e-05
9.08285e-06
5.78365e-05
9.08966e-06
5.48043e-05
9.09605e-06
5.177e-05
9.10203e-06
4.87339e-05
9.10762e-06
4.56961e-05
9.11282e-06
4.26567e-05
9.11765e-06
3.96158e-05
9.12211e-06
3.65735e-05
9.12621e-06
3.353e-05
9.12997e-06
3.04854e-05
9.13338e-06
2.74397e-05
9.13646e-06
2.43931e-05
9.13922e-06
2.13457e-05
9.14165e-06
1.82976e-05
9.14377e-06
1.52489e-05
9.14558e-06
1.21997e-05
9.14708e-06
9.15016e-06
9.14827e-06
6.10027e-06
9.14916e-06
3.05018e-06
9.14976e-06
9.15005e-06
3.62678e-06
-1.45049e-05
7.2534e-06
-1.45043e-05
1.08797e-05
-1.4503e-05
1.45056e-05
-1.45011e-05
1.81308e-05
-1.44986e-05
2.17553e-05
-1.44955e-05
2.53788e-05
-1.44916e-05
2.90012e-05
-1.44871e-05
3.26223e-05
-1.44819e-05
3.62419e-05
-1.4476e-05
3.98599e-05
-1.44693e-05
4.34761e-05
-1.44619e-05
4.70902e-05
-1.44536e-05
5.07021e-05
-1.44446e-05
5.43116e-05
-1.44346e-05
5.79184e-05
-1.44238e-05
6.15222e-05
-1.4412e-05
6.5123e-05
-1.43993e-05
6.87203e-05
-1.43855e-05
7.23139e-05
-1.43707e-05
7.59037e-05
-1.43548e-05
7.94891e-05
-1.43377e-05
8.30701e-05
-1.43194e-05
8.66462e-05
-1.42998e-05
9.02171e-05
-1.42789e-05
9.37826e-05
-1.42566e-05
9.73421e-05
-1.42328e-05
0.000100895
-1.42076e-05
0.000104442
-1.41808e-05
0.000107982
-1.41524e-05
0.000111514
-1.41222e-05
0.000115038
-1.40904e-05
0.000118554
-1.40566e-05
0.000122061
-1.4021e-05
0.000125558
-1.39834e-05
0.000129046
-1.39438e-05
0.000132524
-1.3902e-05
0.00013599
-1.38581e-05
0.000139445
-1.38119e-05
0.000142888
-1.37634e-05
0.000146318
-1.37124e-05
0.000149735
-1.3659e-05
0.000153138
-1.3603e-05
0.000156527
-1.35444e-05
0.0001599
-1.34831e-05
0.000163257
-1.3419e-05
0.000166598
-1.3352e-05
0.000169921
-1.32822e-05
0.000173226
-1.32093e-05
0.000176512
-1.31334e-05
0.000179778
-1.30544e-05
0.000183024
-1.29722e-05
0.000186249
-1.28867e-05
0.000189451
-1.2798e-05
0.000192631
-1.27058e-05
0.000195786
-1.26103e-05
0.000198917
-1.25112e-05
0.000202023
-1.24087e-05
0.000205101
-1.23025e-05
0.000208153
-1.21927e-05
0.000211176
-1.20793e-05
0.00021417
-1.19622e-05
0.000217133
-1.18413e-05
0.000220066
-1.17167e-05
0.000222966
-1.15883e-05
0.000225834
-1.14561e-05
0.000228667
-1.132e-05
0.000231465
-1.11802e-05
0.000234228
-1.10364e-05
0.000236953
-1.08889e-05
0.000239641
-1.07375e-05
0.00024229
-1.05823e-05
0.000244899
-1.04232e-05
0.000247467
-1.02604e-05
0.000249994
-1.00938e-05
0.000252478
-9.92339e-06
0.000254919
-9.74931e-06
0.000257315
-9.57156e-06
0.000259666
-9.39019e-06
0.00026197
-9.20523e-06
0.000264227
-9.01676e-06
0.000266436
-8.82483e-06
0.000268597
-8.62951e-06
0.000270707
-8.43087e-06
0.000272767
-8.22899e-06
0.000274776
-8.02396e-06
0.000276732
-7.81585e-06
0.000278636
-7.60476e-06
0.000280486
-7.39079e-06
0.000282282
-7.17405e-06
0.000284023
-6.95462e-06
0.000285708
-6.73263e-06
0.000287337
-6.50819e-06
0.00028891
-6.28142e-06
0.000290424
-6.05243e-06
0.000291882
-5.82135e-06
0.00029328
-5.58832e-06
0.00029462
-5.35345e-06
0.000295901
-5.11687e-06
0.000297122
-4.87874e-06
0.000298283
-4.63917e-06
0.000299383
-4.39831e-06
0.000300423
-4.1563e-06
0.000301402
-3.91328e-06
0.00030232
-3.66939e-06
0.000303177
-3.42477e-06
0.000303972
-3.17956e-06
0.000304706
-2.93391e-06
0.000305378
-2.68795e-06
0.000305988
-2.44183e-06
0.000306537
-2.19568e-06
0.000307024
-1.94966e-06
0.00030745
-1.70388e-06
0.000307814
-1.45849e-06
0.000308117
-1.21363e-06
0.000308359
-9.69415e-07
0.000308539
-7.25986e-07
0.000308659
-4.83466e-07
0.000308719
-2.41978e-07
0.000308718
-1.64414e-09
0.000308658
2.37419e-07
0.000308538
4.75096e-07
0.000308358
7.11277e-07
0.00030812
9.45855e-07
0.000307824
1.17872e-06
0.00030747
1.40979e-06
0.000307059
1.63895e-06
0.00030659
1.86612e-06
0.000306066
2.0912e-06
0.000305485
2.31412e-06
0.000304849
2.53479e-06
0.000304159
2.75314e-06
0.000303415
2.9691e-06
0.000302617
3.18261e-06
0.000301766
3.39359e-06
0.000300863
3.60199e-06
0.000299909
3.80775e-06
0.000298904
4.01083e-06
0.000297849
4.21118e-06
0.000296744
4.40876e-06
0.000295591
4.60352e-06
0.000294389
4.79544e-06
0.000293141
4.98448e-06
0.000291845
5.17062e-06
0.000290504
5.35383e-06
0.000289118
5.5341e-06
0.000287688
5.71139e-06
0.000286214
5.88572e-06
0.000284697
6.05705e-06
0.000283138
6.22539e-06
0.000281538
6.39073e-06
0.000279897
6.55307e-06
0.000278216
6.71242e-06
0.000276496
6.86877e-06
0.000274738
7.02213e-06
0.000272942
7.17251e-06
0.00027111
7.31992e-06
0.000269241
7.46438e-06
0.000267337
7.6059e-06
0.000265398
7.7445e-06
0.000263426
7.88019e-06
0.00026142
8.013e-06
0.000259382
8.14295e-06
0.000257312
8.27006e-06
0.000255211
8.39436e-06
0.000253079
8.51587e-06
0.000250918
8.63462e-06
0.000248728
8.75064e-06
0.00024651
8.86396e-06
0.000244264
8.97461e-06
0.000241991
9.08262e-06
0.000239692
9.18802e-06
0.000237367
9.29085e-06
0.000235017
9.39113e-06
0.000232643
9.48891e-06
0.000230244
9.58422e-06
0.000227823
9.67708e-06
0.000225379
9.76754e-06
0.000222913
9.85564e-06
0.000220426
9.9414e-06
0.000217918
1.00249e-05
0.000215389
1.01061e-05
0.000212841
1.01851e-05
0.000210274
1.02619e-05
0.000207688
1.03365e-05
0.000205083
1.0409e-05
0.000202462
1.04795e-05
0.000199823
1.05479e-05
0.000197168
1.06143e-05
0.000194496
1.06788e-05
0.000191809
1.07413e-05
0.000189107
1.0802e-05
0.000186391
1.08607e-05
0.00018366
1.09177e-05
0.000180915
1.09729e-05
0.000178157
1.10263e-05
0.000175386
1.1078e-05
0.000172602
1.11281e-05
0.000169807
1.11765e-05
0.000167
1.12233e-05
0.000164181
1.12685e-05
0.000161352
1.13122e-05
0.000158512
1.13544e-05
0.000155662
1.13951e-05
0.000152802
1.14344e-05
0.000149933
1.14723e-05
0.000147054
1.15089e-05
0.000144167
1.15441e-05
0.000141272
1.1578e-05
0.000138368
1.16106e-05
0.000135456
1.1642e-05
0.000132537
1.16723e-05
0.000129611
1.17013e-05
0.000126678
1.17292e-05
0.000123738
1.1756e-05
0.000120791
1.17817e-05
0.000117839
1.18064e-05
0.00011488
1.183e-05
0.000111916
1.18527e-05
0.000108947
1.18743e-05
0.000105972
1.18951e-05
0.000102993
1.19149e-05
0.000100009
1.19339e-05
9.702e-05
1.1952e-05
9.4027e-05
1.19693e-05
9.10299e-05
1.19858e-05
8.80288e-05
1.20014e-05
8.50241e-05
1.20164e-05
8.20158e-05
1.20306e-05
7.90042e-05
1.2044e-05
7.59894e-05
1.20568e-05
7.29716e-05
1.2069e-05
6.9951e-05
1.20804e-05
6.69276e-05
1.20913e-05
6.39017e-05
1.21015e-05
6.08734e-05
1.21111e-05
5.78429e-05
1.21202e-05
5.48102e-05
1.21287e-05
5.17756e-05
1.21367e-05
4.87391e-05
1.21441e-05
4.57009e-05
1.2151e-05
4.26612e-05
1.21574e-05
3.96199e-05
1.21634e-05
3.65773e-05
1.21688e-05
3.35334e-05
1.21738e-05
3.04885e-05
1.21784e-05
2.74425e-05
1.21825e-05
2.43956e-05
1.21861e-05
2.13479e-05
1.21894e-05
1.82994e-05
1.21922e-05
1.52504e-05
1.21946e-05
1.22009e-05
1.21966e-05
9.15105e-06
1.21982e-05
6.10086e-06
1.21994e-05
3.05048e-06
1.22001e-05
1.22005e-05
3.62741e-06
-1.81323e-05
7.25466e-06
-1.81315e-05
1.08816e-05
-1.813e-05
1.45081e-05
-1.81276e-05
1.8134e-05
-1.81245e-05
2.17591e-05
-1.81206e-05
2.53833e-05
-1.81158e-05
2.90064e-05
-1.81102e-05
3.26282e-05
-1.81037e-05
3.62486e-05
-1.80964e-05
3.98674e-05
-1.80881e-05
4.34844e-05
-1.80788e-05
4.70994e-05
-1.80686e-05
5.07121e-05
-1.80573e-05
5.43225e-05
-1.8045e-05
5.79302e-05
-1.80315e-05
6.1535e-05
-1.80169e-05
6.51368e-05
-1.80011e-05
6.87352e-05
-1.79839e-05
7.233e-05
-1.79655e-05
7.59208e-05
-1.79457e-05
7.95076e-05
-1.79244e-05
8.30898e-05
-1.79016e-05
8.66672e-05
-1.78772e-05
9.02395e-05
-1.78512e-05
9.38064e-05
-1.78234e-05
9.73674e-05
-1.77939e-05
0.000100922
-1.77625e-05
0.000104471
-1.77291e-05
0.000108012
-1.76937e-05
0.000111546
-1.76561e-05
0.000115072
-1.76164e-05
0.000118589
-1.75744e-05
0.000122098
-1.753e-05
0.000125598
-1.74831e-05
0.000129088
-1.74337e-05
0.000132568
-1.73816e-05
0.000136036
-1.73269e-05
0.000139494
-1.72692e-05
0.000142939
-1.72087e-05
0.000146372
-1.71452e-05
0.000149791
-1.70785e-05
0.000153197
-1.70087e-05
0.000156588
-1.69356e-05
0.000159964
-1.6859e-05
0.000163324
-1.67791e-05
0.000166668
-1.66955e-05
0.000169994
-1.66083e-05
0.000173302
-1.65174e-05
0.000176591
-1.64227e-05
0.000179861
-1.6324e-05
0.00018311
-1.62214e-05
0.000186338
-1.61146e-05
0.000189544
-1.60038e-05
0.000192727
-1.58887e-05
0.000195886
-1.57694e-05
0.00019902
-1.56457e-05
0.000202129
-1.55175e-05
0.000205211
-1.53849e-05
0.000208266
-1.52478e-05
0.000211293
-1.51061e-05
0.000214291
-1.49597e-05
0.000217258
-1.48087e-05
0.000220194
-1.4653e-05
0.000223099
-1.44925e-05
0.00022597
-1.43272e-05
0.000228807
-1.41572e-05
0.000231609
-1.39824e-05
0.000234375
-1.38028e-05
0.000237105
-1.36183e-05
0.000239796
-1.3429e-05
0.000242449
-1.3235e-05
0.000245062
-1.30361e-05
0.000247634
-1.28325e-05
0.000250165
-1.26242e-05
0.000252653
-1.24112e-05
0.000255097
-1.21935e-05
0.000257496
-1.19712e-05
0.000259851
-1.17444e-05
0.000262159
-1.15131e-05
0.000264419
-1.12774e-05
0.000266632
-1.10374e-05
0.000268795
-1.07931e-05
0.000270909
-1.05447e-05
0.000272972
-1.02922e-05
0.000274984
-1.00357e-05
0.000276944
-9.77539e-06
0.00027885
-9.51135e-06
0.000280703
-9.2437e-06
0.000282502
-8.97257e-06
0.000284245
-8.69808e-06
0.000285933
-8.42038e-06
0.000287564
-8.13961e-06
0.000289139
-7.85592e-06
0.000290656
-7.56945e-06
0.000292115
-7.28037e-06
0.000293515
-6.98883e-06
0.000294857
-6.69499e-06
0.000296139
-6.39902e-06
0.000297361
-6.1011e-06
0.000298524
-5.80138e-06
0.000299625
-5.50005e-06
0.000300666
-5.19727e-06
0.000301646
-4.89323e-06
0.000302565
-4.5881e-06
0.000303422
-4.28206e-06
0.000304218
-3.97528e-06
0.000304952
-3.66795e-06
0.000305624
-3.36024e-06
0.000306235
-3.05233e-06
0.000306784
-2.74439e-06
0.00030727
-2.43659e-06
0.000307696
-2.12912e-06
0.000308059
-1.82214e-06
0.000308362
-1.51581e-06
0.000308602
-1.2103e-06
0.000308782
-9.05778e-07
0.000308901
-6.02396e-07
0.000308959
-3.0031e-07
0.000308957
3.2737e-10
0.000308896
2.9937e-07
0.000308774
5.96675e-07
0.000308593
8.92102e-07
0.000308353
1.18552e-06
0.000308055
1.47679e-06
0.000307699
1.7658e-06
0.000307286
2.05242e-06
0.000306815
2.33655e-06
0.000306289
2.61806e-06
0.000305706
2.89686e-06
0.000305068
3.17284e-06
0.000304375
3.44591e-06
0.000303628
3.71599e-06
0.000302828
3.98298e-06
0.000301975
4.24682e-06
0.000301069
4.50742e-06
0.000300112
4.76472e-06
0.000299104
5.01866e-06
0.000298046
5.26918e-06
0.000296939
5.51622e-06
0.000295783
5.75974e-06
0.000294578
5.9997e-06
0.000293327
6.23605e-06
0.000292029
6.46877e-06
0.000290685
6.69782e-06
0.000289296
6.92318e-06
0.000287862
7.14483e-06
0.000286385
7.36275e-06
0.000284865
7.57693e-06
0.000283303
7.78736e-06
0.0002817
7.99404e-06
0.000280056
8.19697e-06
0.000278372
8.39614e-06
0.00027665
8.59156e-06
0.000274888
8.78325e-06
0.00027309
8.9712e-06
0.000271254
9.15545e-06
0.000269383
9.33599e-06
0.000267476
9.51286e-06
0.000265534
9.68607e-06
0.000263559
9.85565e-06
0.00026155
1.00216e-05
0.000259509
1.0184e-05
0.000257436
1.03428e-05
0.000255332
1.04982e-05
0.000253198
1.065e-05
0.000251034
1.07984e-05
0.000248842
1.09434e-05
0.000246621
1.1085e-05
0.000244372
1.12232e-05
0.000242097
1.13582e-05
0.000239795
1.14899e-05
0.000237467
1.16183e-05
0.000235115
1.17436e-05
0.000232738
1.18658e-05
0.000230337
1.19848e-05
0.000227913