/*--------------------------------*- C++ -*----------------------------------*\
| =========                 |                                                 |
| \\      /  F ield         | OpenFOAM: The Open Source CFD Toolbox           |
|  \\    /   O peration     | Version:  v2012                                 |
|   \\  /    A nd           | Website:  www.openfoam.com                      |
|    \\/     M anipulation  |                                                 |
\*---------------------------------------------------------------------------*/
FoamFile
{
    version     2.0;
    format      ascii;
    class       volScalarField;
    location    "5";
    object      Psi_z;
}
// * * * * * * * * * * * * * * * * * * * * * * * * * * * * * * * * * * * * * //

dimensions      [0 2 -1 0 0 0 0];


internalField   nonuniform List<scalar> 
65536
(
9.07629e-06
2.72284e-05
4.53794e-05
6.35284e-05
8.16747e-05
9.98175e-05
0.000117956
0.000136089
0.000154216
0.000172337
0.000190449
0.000208553
0.000226648
0.000244731
0.000262803
0.000280862
0.000298906
0.000316936
0.000334949
0.000352945
0.000370921
0.000388877
0.000406811
0.000424722
0.000442607
0.000460465
0.000478295
0.000496095
0.000513862
0.000531594
0.000549291
0.000566948
0.000584565
0.000602139
0.000619667
0.000637147
0.000654577
0.000671953
0.000689272
0.000706533
0.000723732
0.000740865
0.000757931
0.000774925
0.000791844
0.000808684
0.000825443
0.000842117
0.000858701
0.000875193
0.000891588
0.000907882
0.000924071
0.000940151
0.000956119
0.000971969
0.000987697
0.0010033
0.00101877
0.00103411
0.0010493
0.00106436
0.00107926
0.00109401
0.0011086
0.00112303
0.00113729
0.00115138
0.00116529
0.00117902
0.00119256
0.00120591
0.00121906
0.00123201
0.00124476
0.00125729
0.00126961
0.00128171
0.00129358
0.00130522
0.00131663
0.0013278
0.00133873
0.00134941
0.00135984
0.00137001
0.00137993
0.00138958
0.00139896
0.00140808
0.00141692
0.00142549
0.00143377
0.00144178
0.00144949
0.00145692
0.00146406
0.0014709
0.00147745
0.0014837
0.00148965
0.0014953
0.00150065
0.00150569
0.00151043
0.00151486
0.00151898
0.0015228
0.0015263
0.0015295
0.00153239
0.00153497
0.00153724
0.0015392
0.00154086
0.00154221
0.00154325
0.00154399
0.00154443
0.00154456
0.00154439
0.00154392
0.00154316
0.0015421
0.00154075
0.0015391
0.00153717
0.00153495
0.00153245
0.00152966
0.0015266
0.00152327
0.00151966
0.00151578
0.00151164
0.00150723
0.00150256
0.00149764
0.00149246
0.00148704
0.00148137
0.00147546
0.0014693
0.00146292
0.0014563
0.00144946
0.00144239
0.0014351
0.0014276
0.00141988
0.00141195
0.00140382
0.00139549
0.00138696
0.00137824
0.00136933
0.00136023
0.00135095
0.00134149
0.00133185
0.00132205
0.00131208
0.00130194
0.00129164
0.00128119
0.00127058
0.00125983
0.00124893
0.00123788
0.0012267
0.00121538
0.00120392
0.00119234
0.00118063
0.0011688
0.00115685
0.00114478
0.0011326
0.0011203
0.0011079
0.0010954
0.00108279
0.00107008
0.00105728
0.00104438
0.00103139
0.00101832
0.00100515
0.000991906
0.000978579
0.000965173
0.000951692
0.000938136
0.000924509
0.000910813
0.00089705
0.000883222
0.000869332
0.000855381
0.000841371
0.000827305
0.000813184
0.00079901
0.000784785
0.000770511
0.000756189
0.000741822
0.000727411
0.000712957
0.000698462
0.000683929
0.000669357
0.000654749
0.000640106
0.00062543
0.000610722
0.000595983
0.000581214
0.000566417
0.000551593
0.000536743
0.000521868
0.00050697
0.000492049
0.000477106
0.000462143
0.00044716
0.000432159
0.00041714
0.000402104
0.000387052
0.000371985
0.000356903
0.000341808
0.000326701
0.000311581
0.000296449
0.000281307
0.000266156
0.000250994
0.000235824
0.000220646
0.000205461
0.000190268
0.00017507
0.000159865
0.000144655
0.000129441
0.000114222
9.9e-05
8.37745e-05
6.85464e-05
5.33161e-05
3.80841e-05
2.2851e-05
7.61706e-06
2.72291e-05
8.16861e-05
0.00013614
0.000190587
0.000245027
0.000299456
0.000353872
0.000408273
0.000462655
0.000517017
0.000571356
0.000625669
0.000679952
0.000734203
0.000788419
0.000842597
0.000896733
0.000950823
0.00100486
0.00105885
0.00111278
0.00116665
0.00122045
0.00127419
0.00132785
0.00138142
0.00143491
0.00148831
0.00154162
0.00159482
0.00164791
0.00170088
0.00175374
0.00180646
0.00185905
0.00191149
0.00196378
0.00201591
0.00206787
0.00211966
0.00217126
0.00222266
0.00227386
0.00232484
0.0023756
0.00242613
0.00247641
0.00252644
0.00257619
0.00262567
0.00267486
0.00272375
0.00277232
0.00282056
0.00286847
0.00291602
0.00296321
0.00301002
0.00305644
0.00310246
0.00314805
0.00319322
0.00323793
0.00328219
0.00332597
0.00336926
0.00341205
0.00345432
0.00349605
0.00353724
0.00357787
0.00361792
0.00365739
0.00369624
0.00373448
0.00377208
0.00380904
0.00384534
0.00388096
0.00391589
0.00395012
0.00398363
0.00401642
0.00404847
0.00407976
0.00411028
0.00414003
0.004169
0.00419716
0.00422451
0.00425104
0.00427674
0.0043016
0.00432561
0.00434876
0.00437105
0.00439247
0.004413
0.00443265
0.0044514
0.00446925
0.0044862
0.00450224
0.00451737
0.00453158
0.00454487
0.00455724
0.00456869
0.00457921
0.0045888
0.00459747
0.00460521
0.00461203
0.00461792
0.00462288
0.00462693
0.00463006
0.00463227
0.00463358
0.00463397
0.00463347
0.00463206
0.00462977
0.00462659
0.00462252
0.00461759
0.00461179
0.00460513
0.00459762
0.00458927
0.00458008
0.00457007
0.00455924
0.0045476
0.00453517
0.00452194
0.00450794
0.00449317
0.00447764
0.00446136
0.00444434
0.0044266
0.00440815
0.00438898
0.00436913
0.00434859
0.00432738
0.00430551
0.00428299
0.00425984
0.00423606
0.00421166
0.00418666
0.00416107
0.0041349
0.00410816
0.00408086
0.00405302
0.00402464
0.00399573
0.00396631
0.00393639
0.00390598
0.00387509
0.00384372
0.0038119
0.00377963
0.00374692
0.00371378
0.00368023
0.00364626
0.0036119
0.00357715
0.00354202
0.00350652
0.00347066
0.00343445
0.0033979
0.00336102
0.00332382
0.0032863
0.00324847
0.00321034
0.00317193
0.00313324
0.00309427
0.00305503
0.00301554
0.0029758
0.00293582
0.0028956
0.00285515
0.00281448
0.0027736
0.00273251
0.00269122
0.00264973
0.00260806
0.0025662
0.00252417
0.00248197
0.0024396
0.00239708
0.0023544
0.00231158
0.00226861
0.00222551
0.00218227
0.00213891
0.00209543
0.00205182
0.00200811
0.00196428
0.00192035
0.00187632
0.0018322
0.00178798
0.00174367
0.00169928
0.00165481
0.00161026
0.00156563
0.00152093
0.00147617
0.00143134
0.00138645
0.0013415
0.0012965
0.00125144
0.00120633
0.00116117
0.00111597
0.00107072
0.00102544
0.000980114
0.000934754
0.000889359
0.000843933
0.000798477
0.000752992
0.000707482
0.000661947
0.00061639
0.000570812
0.000525215
0.000479601
0.000433971
0.000388327
0.000342671
0.000297003
0.000251326
0.000205641
0.00015995
0.000114254
6.85536e-05
2.28514e-05
4.53831e-05
0.000136147
0.000226906
0.000317655
0.00040839
0.000499108
0.000589804
0.000680475
0.000771115
0.000861721
0.000952289
0.00104281
0.00113329
0.00122371
0.00131407
0.00140437
0.0014946
0.00158476
0.00167483
0.00176482
0.0018547
0.00194449
0.00203417
0.00212373
0.00221316
0.00230246
0.00239162
0.00248063
0.00256947
0.00265815
0.00274664
0.00283494
0.00292304
0.00301092
0.00309857
0.00318598
0.00327314
0.00336004
0.00344665
0.00353297
0.00361898
0.00370466
0.00379
0.00387499
0.0039596
0.00404382
0.00412764
0.00421102
0.00429396
0.00437644
0.00445843
0.00453992
0.00462089
0.00470131
0.00478117
0.00486044
0.00493911
0.00501714
0.00509452
0.00517123
0.00524723
0.00532252
0.00539707
0.00547084
0.00554382
0.00561599
0.00568732
0.00575779
0.00582736
0.00589603
0.00596376
0.00603053
0.00609631
0.00616109
0.00622484
0.00628753
0.00634914
0.00640964
0.00646903
0.00652726
0.00658433
0.0066402
0.00669486
0.00674828
0.00680045
0.00685134
0.00690093
0.00694921
0.00699616
0.00704176
0.00708599
0.00712883
0.00717027
0.0072103
0.0072489
0.00728606
0.00732175
0.00735598
0.00738874
0.00742
0.00744976
0.00747801
0.00750475
0.00752997
0.00755366
0.00757582
0.00759643
0.00761551
0.00763305
0.00764904
0.00766348
0.00767638
0.00768774
0.00769755
0.00770583
0.00771257
0.00771778
0.00772147
0.00772363
0.00772429
0.00772344
0.00772109
0.00771726
0.00771195
0.00770518
0.00769694
0.00768727
0.00767616
0.00766364
0.00764971
0.00763439
0.00761769
0.00759963
0.00758022
0.00755948
0.00753743
0.00751408
0.00748945
0.00746356
0.00743642
0.00740805
0.00737847
0.00734769
0.00731574
0.00728264
0.0072484
0.00721304
0.00717657
0.00713903
0.00710043
0.00706078
0.00702011
0.00697843
0.00693577
0.00689213
0.00684755
0.00680205
0.00675562
0.00670831
0.00666012
0.00661108
0.0065612
0.0065105
0.006459
0.00640672
0.00635367
0.00629987
0.00624534
0.0061901
0.00613416
0.00607755
0.00602026
0.00596234
0.00590378
0.0058446
0.00578483
0.00572447
0.00566354
0.00560206
0.00554004
0.0054775
0.00541445
0.0053509
0.00528686
0.00522236
0.00515741
0.00509201
0.00502618
0.00495994
0.00489329
0.00482625
0.00475883
0.00469104
0.00462289
0.0045544
0.00448558
0.00441643
0.00434696
0.0042772
0.00420714
0.0041368
0.00406618
0.0039953
0.00392417
0.00385279
0.00378118
0.00370933
0.00363727
0.00356499
0.00349251
0.00341983
0.00334697
0.00327392
0.0032007
0.00312731
0.00305377
0.00298006
0.00290621
0.00283222
0.0027581
0.00268384
0.00260946
0.00253496
0.00246035
0.00238564
0.00231082
0.0022359
0.00216089
0.00208579
0.0020106
0.00193534
0.00186
0.00178459
0.00170911
0.00163356
0.00155796
0.0014823
0.00140659
0.00133083
0.00125502
0.00117916
0.00110327
0.00102734
0.000951375
0.000875378
0.000799353
0.000723301
0.000647226
0.00057113
0.000495016
0.000418886
0.000342743
0.000266589
0.000190427
0.000114258
3.80865e-05
6.3539e-05
0.000190614
0.000317682
0.000444736
0.000571771
0.000698781
0.000825762
0.000952706
0.00107961
0.00120646
0.00133327
0.00146001
0.00158668
0.00171328
0.00183979
0.00196622
0.00209255
0.00221878
0.00234489
0.00247088
0.00259673
0.00272244
0.002848
0.0029734
0.00309862
0.00322365
0.00334849
0.00347311
0.00359751
0.00372166
0.00384557
0.0039692
0.00409255
0.0042156
0.00433834
0.00446073
0.00458277
0.00470445
0.00482572
0.00494659
0.00506702
0.005187
0.00530651
0.00542551
0.00554399
0.00566193
0.00577929
0.00589605
0.0060122
0.00612769
0.00624251
0.00635663
0.00647001
0.00658263
0.00669446
0.00680547
0.00691563
0.00702491
0.00713327
0.0072407
0.00734714
0.00745257
0.00755697
0.00766029
0.0077625
0.00786357
0.00796346
0.00806214
0.00815959
0.00825575
0.00835061
0.00844412
0.00853625
0.00862697
0.00871625
0.00880405
0.00889034
0.00897508
0.00905825
0.00913981
0.00921973
0.00929798
0.00937453
0.00944935
0.00952241
0.00959369
0.00966315
0.00973077
0.00979652
0.00986038
0.00992232
0.00998232
0.0100404
0.0100964
0.0101505
0.0102025
0.0102525
0.0103005
0.0103463
0.0103901
0.0104318
0.0104713
0.0105088
0.0105441
0.0105773
0.0106083
0.0106372
0.0106639
0.0106884
0.0107108
0.010731
0.0107491
0.010765
0.0107787
0.0107903
0.0107997
0.010807
0.0108122
0.0108152
0.0108161
0.0108149
0.0108116
0.0108062
0.0107988
0.0107893
0.0107777
0.0107642
0.0107486
0.0107311
0.0107115
0.0106901
0.0106667
0.0106414
0.0106142
0.0105851
0.0105542
0.0105215
0.010487
0.0104507
0.0104127
0.010373
0.0103315
0.0102884
0.0102437
0.0101973
0.0101493
0.0100998
0.0100487
0.00999613
0.00994206
0.00988653
0.00982956
0.00977118
0.00971143
0.00965032
0.00958788
0.00952414
0.00945912
0.00939286
0.00932537
0.00925669
0.00918683
0.00911582
0.0090437
0.00897048
0.00889618
0.00882084
0.00874448
0.00866712
0.00858878
0.00850949
0.00842928
0.00834815
0.00826615
0.00818328
0.00809958
0.00801505
0.00792974
0.00784364
0.00775679
0.00766921
0.00758092
0.00749193
0.00740226
0.00731194
0.00722099
0.00712941
0.00703724
0.00694448
0.00685115
0.00675728
0.00666287
0.00656795
0.00647253
0.00637663
0.00628026
0.00618344
0.00608617
0.00598849
0.00589039
0.0057919
0.00569303
0.00559378
0.00549418
0.00539424
0.00529396
0.00519337
0.00509247
0.00499127
0.00488979
0.00478803
0.00468601
0.00458373
0.00448122
0.00437846
0.00427549
0.0041723
0.0040689
0.0039653
0.00386152
0.00375755
0.00365341
0.00354911
0.00344465
0.00334003
0.00323528
0.00313039
0.00302536
0.00292022
0.00281495
0.00270958
0.0026041
0.00249851
0.00239284
0.00228707
0.00218122
0.0020753
0.00196929
0.00186322
0.00175708
0.00165089
0.00154463
0.00143832
0.00133197
0.00122557
0.00111913
0.00101265
0.000906146
0.000799608
0.000693045
0.000586459
0.000479855
0.000373236
0.000266606
0.000159967
5.33228e-05
8.16977e-05
0.00024509
0.000408471
0.000571835
0.000735176
0.000898485
0.00106176
0.00122498
0.00138815
0.00155126
0.0017143
0.00187727
0.00204014
0.00220293
0.0023656
0.00252817
0.00269061
0.00285291
0.00301507
0.00317707
0.0033389
0.00350055
0.003662
0.00382324
0.00398426
0.00414504
0.00430556
0.00446581
0.00462578
0.00478543
0.00494476
0.00510375
0.00526237
0.00542061
0.00557844
0.00573584
0.00589278
0.00604925
0.00620521
0.00636065
0.00651553
0.00666982
0.00682351
0.00697655
0.00712893
0.0072806
0.00743154
0.00758171
0.00773109
0.00787963
0.0080273
0.00817406
0.00831989
0.00846474
0.00860857
0.00875135
0.00889304
0.00903359
0.00917298
0.00931114
0.00944805
0.00958367
0.00971795
0.00985084
0.00998231
0.0101123
0.0102408
0.0103677
0.0104931
0.0106168
0.0107388
0.0108591
0.0109776
0.0110943
0.0112091
0.0113221
0.0114331
0.0115421
0.0116491
0.011754
0.0118568
0.0119575
0.0120559
0.0121522
0.0122462
0.0123379
0.0124272
0.0125142
0.0125988
0.0126809
0.0127606
0.0128378
0.0129124
0.0129846
0.0130541
0.013121
0.0131853
0.013247
0.013306
0.0133623
0.0134159
0.0134668
0.013515
0.0135604
0.013603
0.0136429
0.0136801
0.0137144
0.013746
0.0137748
0.0138008
0.013824
0.0138444
0.0138621
0.0138769
0.0138891
0.0138984
0.013905
0.0139089
0.01391
0.0139085
0.0139042
0.0138973
0.0138877
0.0138754
0.0138606
0.0138431
0.0138231
0.0138005
0.0137753
0.0137477
0.0137176
0.013685
0.01365
0.0136126
0.0135728
0.0135307
0.0134863
0.0134396
0.0133907
0.0133396
0.0132863
0.0132308
0.0131732
0.0131135
0.0130518
0.0129881
0.0129224
0.0128547
0.0127852
0.0127137
0.0126404
0.0125653
0.0124884
0.0124098
0.0123295
0.0122475
0.0121639
0.0120786
0.0119918
0.0119035
0.0118136
0.0117223
0.0116295
0.0115353
0.0114397
0.0113428
0.0112446
0.0111451
0.0110444
0.0109424
0.0108392
0.0107349
0.0106294
0.0105228
0.0104151
0.0103064
0.0101967
0.010086
0.00997428
0.00986164
0.00974809
0.00963364
0.00951832
0.00940216
0.00928519
0.00916742
0.00904887
0.00892958
0.00880957
0.00868884
0.00856744
0.00844537
0.00832266
0.00819933
0.0080754
0.00795088
0.00782581
0.00770019
0.00757404
0.00744738
0.00732024
0.00719262
0.00706454
0.00693602
0.00680707
0.00667772
0.00654797
0.00641784
0.00628734
0.00615649
0.0060253
0.00589379
0.00576196
0.00562984
0.00549742
0.00536473
0.00523178
0.00509857
0.00496512
0.00483143
0.00469753
0.00456341
0.00442909
0.00429458
0.00415988
0.00402501
0.00388997
0.00375477
0.00361942
0.00348392
0.0033483
0.00321254
0.00307666
0.00294067
0.00280457
0.00266837
0.00253207
0.00239568
0.00225921
0.00212266
0.00198604
0.00184936
0.00171261
0.0015758
0.00143894
0.00130204
0.00116509
0.00102811
0.000891095
0.000754051
0.000616983
0.000479896
0.000342793
0.00020568
6.85608e-05
9.98597e-05
0.000299575
0.000499278
0.00069896
0.000898612
0.00109823
0.0012978
0.00149731
0.00169676
0.00189613
0.00209542
0.00229461
0.00249371
0.00269268
0.00289153
0.00309024
0.0032888
0.00348719
0.00368541
0.00388343
0.00408125
0.00427885
0.00447621
0.00467331
0.00487014
0.00506668
0.00526291
0.00545881
0.00565436
0.00584953
0.00604431
0.00623867
0.00643258
0.00662602
0.00681897
0.00701139
0.00720326
0.00739455
0.00758523
0.00777526
0.00796461
0.00815326
0.00834115
0.00852827
0.00871457
0.00890001
0.00908456
0.00926817
0.00945081
0.00963243
0.00981299
0.00999244
0.0101708
0.0103479
0.0105237
0.0106983
0.0108716
0.0110435
0.0112139
0.0113828
0.0115503
0.0117161
0.0118803
0.0120428
0.0122036
0.0123626
0.0125197
0.0126749
0.0128282
0.0129795
0.0131287
0.0132758
0.0134208
0.0135635
0.0137039
0.0138421
0.0139778
0.0141111
0.014242
0.0143703
0.014496
0.0146191
0.0147396
0.0148573
0.0149722
0.0150844
0.0151936
0.0153
0.0154035
0.0155039
0.0156014
0.0156958
0.0157871
0.0158753
0.0159603
0.0160422
0.0161208
0.0161962
0.0162683
0.0163372
0.0164028
0.016465
0.0165239
0.0165794
0.0166316
0.0166803
0.0167257
0.0167677
0.0168063
0.0168415
0.0168733
0.0169016
0.0169266
0.0169482
0.0169663
0.0169811
0.0169926
0.0170006
0.0170053
0.0170067
0.0170047
0.0169995
0.016991
0.0169792
0.0169642
0.016946
0.0169246
0.0169001
0.0168724
0.0168416
0.0168078
0.0167709
0.016731
0.0166882
0.0166424
0.0165938
0.0165423
0.0164879
0.0164308
0.0163709
0.0163084
0.0162431
0.0161753
0.0161048
0.0160318
0.0159563
0.0158784
0.015798
0.0157152
0.0156301
0.0155427
0.0154531
0.0153612
0.0152672
0.015171
0.0150728
0.0149725
0.0148702
0.014766
0.0146598
0.0145517
0.0144419
0.0143302
0.0142167
0.0141015
0.0139847
0.0138662
0.013746
0.0136244
0.0135011
0.0133764
0.0132503
0.0131227
0.0129937
0.0128634
0.0127318
0.0125988
0.0124647
0.0123293
0.0121927
0.012055
0.0119161
0.0117762
0.0116352
0.0114932
0.0113502
0.0112062
0.0110613
0.0109154
0.0107687
0.0106211
0.0104727
0.0103234
0.0101734
0.0100226
0.00987112
0.0097189
0.00956599
0.00941241
0.0092582
0.00910336
0.00894792
0.00879191
0.00863534
0.00847822
0.00832059
0.00816246
0.00800385
0.00784477
0.00768525
0.00752529
0.00736492
0.00720416
0.00704301
0.0068815
0.00671964
0.00655744
0.00639491
0.00623208
0.00606895
0.00590554
0.00574186
0.00557791
0.00541373
0.0052493
0.00508465
0.00491979
0.00475473
0.00458947
0.00442402
0.00425841
0.00409262
0.00392668
0.0037606
0.00359437
0.00342801
0.00326153
0.00309493
0.00292823
0.00276142
0.00259451
0.00242752
0.00226045
0.0020933
0.00192608
0.0017588
0.00159147
0.00142408
0.00125665
0.00108917
0.000921666
0.00075413
0.00058657
0.000418991
0.0002514
8.38008e-05
0.000118026
0.000354073
0.000590105
0.000826113
0.00106209
0.00129802
0.00153389
0.0017697
0.00200543
0.00224108
0.00247663
0.00271207
0.00294738
0.00318256
0.00341759
0.00365246
0.00388715
0.00412165
0.00435594
0.00459001
0.00482383
0.00505739
0.00529067
0.00552365
0.00575631
0.00598863
0.00622059
0.00645216
0.00668331
0.00691402
0.00714427
0.00737403
0.00760326
0.00783194
0.00806003
0.00828751
0.00851433
0.00874047
0.00896589
0.00919055
0.00941441
0.00963744
0.00985958
0.0100808
0.0103011
0.0105203
0.0107385
0.0109556
0.0111715
0.0113863
0.0115998
0.011812
0.0120228
0.0122322
0.0124402
0.0126466
0.0128515
0.0130547
0.0132563
0.0134561
0.0136541
0.0138502
0.0140444
0.0142365
0.0144267
0.0146147
0.0148005
0.0149841
0.0151654
0.0153443
0.0155208
0.0156947
0.0158662
0.016035
0.0162011
0.0163644
0.016525
0.0166827
0.0168374
0.0169892
0.0171379
0.0172835
0.0174259
0.0175651
0.0177011
0.0178337
0.017963
0.0180888
0.0182111
0.0183299
0.0184452
0.0185568
0.0186648
0.0187691
0.0188697
0.0189665
0.0190595
0.0191487
0.019234
0.0193154
0.0193929
0.0194665
0.0195361
0.0196018
0.0196635
0.0197211
0.0197748
0.0198244
0.01987
0.0199116
0.0199492
0.0199827
0.0200122
0.0200377
0.0200591
0.0200766
0.0200901
0.0200995
0.0201051
0.0201067
0.0201043
0.0200981
0.020088
0.020074
0.0200562
0.0200346
0.0200093
0.0199802
0.0199474
0.019911
0.0198709
0.0198273
0.0197801
0.0197294
0.0196752
0.0196176
0.0195566
0.0194923
0.0194247
0.0193539
0.0192798
0.0192026
0.0191223
0.019039
0.0189526
0.0188633
0.0187711
0.018676
0.0185781
0.0184774
0.018374
0.018268
0.0181593
0.0180481
0.0179344
0.0178182
0.0176995
0.0175786
0.0174552
0.0173297
0.0172019
0.0170719
0.0169398
0.0168056
0.0166694
0.0165312
0.0163911
0.016249
0.0161051
0.0159594
0.015812
0.0156628
0.0155119
0.0153594
0.0152053
0.0150497
0.0148925
0.0147338
0.0145738
0.0144123
0.0142495
0.0140853
0.0139198
0.0137532
0.0135852
0.0134162
0.0132459
0.0130746
0.0129021
0.0127287
0.0125542
0.0123787
0.0122023
0.0120249
0.0118467
0.0116675
0.0114876
0.0113068
0.0111253
0.010943
0.0107599
0.0105762
0.0103918
0.0102067
0.0100209
0.00983461
0.00964769
0.00946019
0.00927215
0.00908358
0.0088945
0.00870494
0.00851491
0.00832443
0.00813351
0.00794219
0.00775046
0.00755836
0.00736589
0.00717307
0.00697991
0.00678644
0.00659267
0.0063986
0.00620425
0.00600964
0.00581478
0.00561968
0.00542435
0.0052288
0.00503305
0.00483711
0.00464098
0.00444467
0.0042482
0.00405158
0.00385481
0.0036579
0.00346087
0.00326372
0.00306645
0.00286908
0.00267162
0.00247407
0.00227643
0.00207872
0.00188095
0.00168311
0.00148522
0.00128729
0.00108931
0.0008913
0.000693262
0.000495202
0.000297128
9.90435e-05
0.000136197
0.000408586
0.000680958
0.000953302
0.00122561
0.00149786
0.00177005
0.00204217
0.0023142
0.00258613
0.00285795
0.00312964
0.0034012
0.00367259
0.00394382
0.00421486
0.0044857
0.00475632
0.0050267
0.00529682
0.00556666
0.00583621
0.00610543
0.00637432
0.00664283
0.00691095
0.00717866
0.00744592
0.0077127
0.00797898
0.00824473
0.00850991
0.00877449
0.00903843
0.00930171
0.00956427
0.00982609
0.0100871
0.0103473
0.0106066
0.0108651
0.0111225
0.0113789
0.0116343
0.0118886
0.0121417
0.0123936
0.0126442
0.0128935
0.0131414
0.0133879
0.0136329
0.0138763
0.0141181
0.0143582
0.0145965
0.0148331
0.0150677
0.0153004
0.0155311
0.0157597
0.0159862
0.0162104
0.0164323
0.0166519
0.016869
0.0170836
0.0172956
0.0175049
0.0177115
0.0179153
0.0181162
0.0183142
0.0185091
0.0187009
0.0188896
0.019075
0.0192571
0.0194358
0.0196111
0.0197828
0.019951
0.0201155
0.0202763
0.0204333
0.0205865
0.0207357
0.020881
0.0210223
0.0211595
0.0212926
0.0214216
0.0215463
0.0216667
0.0217829
0.0218946
0.022002
0.022105
0.0222035
0.0222975
0.022387
0.022472
0.0225524
0.0226282
0.0226994
0.022766
0.0228279
0.0228852
0.0229378
0.0229858
0.0230291
0.0230678
0.0231018
0.0231312
0.0231559
0.023176
0.0231915
0.0232024
0.0232088
0.0232105
0.0232078
0.0232005
0.0231888
0.0231726
0.023152
0.023127
0.0230976
0.023064
0.0230261
0.0229839
0.0229376
0.0228872
0.0228326
0.022774
0.0227114
0.0226448
0.0225743
0.0225
0.0224219
0.02234
0.0222544
0.0221653
0.0220725
0.0219762
0.0218764
0.0217732
0.0216666
0.0215568
0.0214437
0.0213274
0.021208
0.0210855
0.02096
0.0208315
0.0207001
0.0205659
0.0204289
0.0202892
0.0201468
0.0200018
0.0198542
0.0197041
0.0195515
0.0193966
0.0192393
0.0190797
0.0189179
0.0187539
0.0185877
0.0184195
0.0182492
0.018077
0.0179028
0.0177267
0.0175488
0.0173691
0.0171876
0.0170045
0.0168197
0.0166332
0.0164452
0.0162557
0.0160647
0.0158723
0.0156785
0.0154833
0.0152867
0.0150889
0.0148899
0.0146897
0.0144882
0.0142857
0.014082
0.0138773
0.0136716
0.0134648
0.0132571
0.0130485
0.0128389
0.0126285
0.0124172
0.0122051
0.0119923
0.0117786
0.0115643
0.0113492
0.0111335
0.0109171
0.0107001
0.0104824
0.0102642
0.0100454
0.00982611
0.00960627
0.00938594
0.00916513
0.00894387
0.00872216
0.00850004
0.00827752
0.00805461
0.00783133
0.00760771
0.00738375
0.00715947
0.00693488
0.00671001
0.00648486
0.00625945
0.00603379
0.00580789
0.00558177
0.00535544
0.00512891
0.00490219
0.00467529
0.00444823
0.00422101
0.00399364
0.00376613
0.00353849
0.00331074
0.00308288
0.00285491
0.00262685
0.00239871
0.00217049
0.0019422
0.00171385
0.00148544
0.00125699
0.0010285
0.000799976
0.000571429
0.000342864
0.000114289
0.000154374
0.000463115
0.000771838
0.00108053
0.00138918
0.00169777
0.00200629
0.00231473
0.00262307
0.0029313
0.0032394
0.00354736
0.00385517
0.0041628
0.00447024
0.00477747
0.00508447
0.00539123
0.00569772
0.00600391
0.0063098
0.00661535
0.00692054
0.00722535
0.00752974
0.00783369
0.00813718
0.00844015
0.0087426
0.00904448
0.00934576
0.0096464
0.00994636
0.0102456
0.0105441
0.0108418
0.0111386
0.0114346
0.0117296
0.0120237
0.0123167
0.0126086
0.0128993
0.0131889
0.0134772
0.0137643
0.0140499
0.0143341
0.0146168
0.014898
0.0151775
0.0154553
0.0157314
0.0160056
0.0162779
0.0165482
0.0168165
0.0170827
0.0173466
0.0176083
0.0178676
0.0181244
0.0183788
0.0186305
0.0188795
0.0191258
0.0193692
0.0196097
0.0198472
0.0200816
0.0203127
0.0205407
0.0207652
0.0209864
0.021204
0.021418
0.0216284
0.021835
0.0220377
0.0222365
0.0224314
0.0226222
0.0228088
0.0229912
0.0231693
0.0233431
0.0235124
0.0236773
0.0238376
0.0239933
0.0241443
0.0242905
0.024432
0.0245686
0.0247004
0.0248272
0.024949
0.0250658
0.0251775
0.0252842
0.0253857
0.0254821
0.0255732
0.0256592
0.0257399
0.0258154
0.0258856
0.0259506
0.0260103
0.0260646
0.0261137
0.0261576
0.0261961
0.0262294
0.0262574
0.0262801
0.0262976
0.0263099
0.026317
0.026319
0.0263158
0.0263074
0.026294
0.0262756
0.0262521
0.0262237
0.0261903
0.0261521
0.026109
0.0260611
0.0260085
0.0259511
0.0258892
0.0258226
0.0257515
0.0256759
0.0255959
0.0255115
0.0254228
0.0253298
0.0252327
0.0251314
0.0250261
0.0249168
0.0248036
0.0246864
0.0245655
0.0244408
0.0243125
0.0241805
0.024045
0.023906
0.0237636
0.0236178
0.0234688
0.0233165
0.023161
0.0230025
0.0228409
0.0226764
0.022509
0.0223387
0.0221657
0.0219899
0.0218115
0.0216304
0.0214469
0.0212609
0.0210724
0.0208816
0.0206885
0.0204931
0.0202955
0.0200958
0.0198941
0.0196902
0.0194845
0.0192767
0.0190672
0.0188557
0.0186426
0.0184277
0.0182111
0.0179928
0.017773
0.0175517
0.0173289
0.0171046
0.0168789
0.0166518
0.0164234
0.0161938
0.0159629
0.0157307
0.0154975
0.0152631
0.0150275
0.014791
0.0145534
0.0143148
0.0140753
0.0138349
0.0135935
0.0133513
0.0131083
0.0128645
0.0126199
0.0123746
0.0121286
0.0118818
0.0116345
0.0113865
0.0111378
0.0108886
0.0106388
0.0103885
0.0101377
0.00988639
0.0096346
0.00938235
0.00912967
0.00887658
0.00862309
0.00836922
0.00811499
0.00786041
0.00760552
0.00735031
0.0070948
0.00683901
0.00658296
0.00632665
0.00607011
0.00581334
0.00555636
0.00529917
0.0050418
0.00478425
0.00452654
0.00426867
0.00401066
0.00375251
0.00349423
0.00323585
0.00297736
0.00271877
0.00246009
0.00220134
0.00194252
0.00168364
0.00142471
0.00116573
0.000906715
0.000647673
0.000388612
0.000129539
0.000172557
0.000517663
0.000862749
0.0012078
0.0015528
0.00189774
0.00224261
0.00258738
0.00293205
0.00327659
0.00362099
0.00396524
0.00430931
0.00465319
0.00499686
0.0053403
0.00568349
0.0060264
0.00636902
0.00671132
0.00705327
0.00739486
0.00773604
0.0080768
0.0084171
0.00875691
0.00909619
0.00943493
0.00977307
0.0101106
0.0104474
0.0107836
0.0111189
0.0114535
0.0117873
0.0121201
0.0124521
0.012783
0.0131129
0.0134417
0.0137694
0.0140958
0.014421
0.0147448
0.0150672
0.0153882
0.0157077
0.0160255
0.0163417
0.0166562
0.0169688
0.0172795
0.0175883
0.017895
0.0181996
0.018502
0.0188021
0.0190998
0.0193951
0.0196878
0.0199779
0.0202652
0.0205497
0.0208313
0.0211099
0.0213855
0.0216578
0.0219269
0.0221925
0.0224548
0.0227134
0.0229684
0.0232197
0.0234671
0.0237106
0.0239501
0.0241855
0.0244166
0.0246435
0.024866
0.025084
0.0252975
0.0255063
0.0257104
0.0259097
0.0261042
0.0262937
0.0264781
0.0266575
0.0268317
0.0270006
0.0271643
0.0273226
0.0274754
0.0276228
0.0277647
0.027901
0.0280317
0.0281567
0.028276
0.0283895
0.0284973
0.0285993
0.0286954
0.0287857
0.0288701
0.0289486
0.0290213
0.029088
0.0291488
0.0292036
0.0292526
0.0292956
0.0293328
0.029364
0.0293894
0.0294089
0.0294226
0.0294305
0.0294325
0.0294288
0.0294194
0.0294044
0.0293836
0.0293573
0.0293254
0.0292879
0.029245
0.0291967
0.029143
0.029084
0.0290198
0.0289503
0.0288758
0.0287961
0.0287114
0.0286218
0.0285273
0.0284279
0.0283239
0.0282151
0.0281017
0.0279838
0.0278614
0.0277346
0.0276035
0.0274681
0.0273285
0.0271849
0.0270372
0.0268855
0.0267299
0.0265705
0.0264074
0.0262406
0.0260702
0.0258963
0.0257189
0.0255381
0.025354
0.0251666
0.0249761
0.0247825
0.0245859
0.0243862
0.0241837
0.0239784
0.0237703
0.0235594
0.023346
0.0231299
0.0229114
0.0226904
0.022467
0.0222413
0.0220134
0.0217832
0.0215509
0.0213165
0.02108
0.0208416
0.0206012
0.020359
0.020115
0.0198692
0.0196216
0.0193724
0.0191216
0.0188692
0.0186153
0.0183599
0.0181031
0.0178449
0.0175853
0.0173245
0.0170624
0.016799
0.0165345
0.0162689
0.0160021
0.0157343
0.0154655
0.0151957
0.0149249
0.0146532
0.0143806
0.0141071
0.0138328
0.0135578
0.0132819
0.0130054
0.0127281
0.0124501
0.0121715
0.0118923
0.0116125
0.0113321
0.0110511
0.0107696
0.0104876
0.0102051
0.00992221
0.00963884
0.00935505
0.00907085
0.00878627
0.00850133
0.00821604
0.00793043
0.0076445
0.00735828
0.00707177
0.006785
0.00649798
0.00621072
0.00592324
0.00563555
0.00534767
0.0050596
0.00477135
0.00448295
0.0041944
0.00390571
0.00361689
0.00332796
0.00303892
0.00274978
0.00246056
0.00217126
0.00188189
0.00159247
0.00130299
0.00101348
0.000723937
0.000434371
0.000144792
0.000190747
0.000572232
0.000953695
0.00133512
0.00171649
0.0020978
0.00247902
0.00286014
0.00324115
0.00362202
0.00400274
0.00438329
0.00476365
0.0051438
0.00552372
0.00590339
0.00628278
0.00666188
0.00704065
0.00741907
0.00779712
0.00817476
0.00855197
0.0089287
0.00930494
0.00968064
0.0100558
0.0104303
0.0108042
0.0111774
0.0115498
0.0119215
0.0122923
0.0126623
0.0130314
0.0133994
0.0137665
0.0141325
0.0144973
0.0148609
0.0152233
0.0155843
0.0159439
0.0163021
0.0166587
0.0170137
0.017367
0.0177186
0.0180683
0.0184162
0.018762
0.0191057
0.0194473
0.0197866
0.0201236
0.0204581
0.0207901
0.0211194
0.0214461
0.0217699
0.0220909
0.0224088
0.0227236
0.0230352
0.0233435
0.0236483
0.0239497
0.0242474
0.0245414
0.0248316
0.0251178
0.0254
0.025678
0.0259519
0.0262213
0.0264863
0.0267468
0.0270026
0.0272537
0.0274999
0.0277412
0.0279774
0.0282086
0.0284344
0.028655
0.0288702
0.0290799
0.029284
0.0294825
0.0296753
0.0298623
0.0300434
0.0302185
0.0303877
0.0305508
0.0307078
0.0308586
0.0310032
0.0311415
0.0312735
0.0313991
0.0315184
0.0316312
0.0317375
0.0318374
0.0319307
0.0320176
0.0320979
0.0321716
0.0322388
0.0322995
0.0323535
0.0324011
0.0324421
0.0324766
0.0325046
0.0325261
0.0325411
0.0325497
0.0325519
0.0325477
0.0325371
0.0325203
0.0324973
0.032468
0.0324325
0.032391
0.0323434
0.0322898
0.0322303
0.0321649
0.0320936
0.0320167
0.031934
0.0318457
0.0317519
0.0316526
0.0315479
0.0314378
0.0313226
0.0312021
0.0310765
0.0309459
0.0308104
0.03067
0.0305248
0.0303749
0.0302204
0.0300613
0.0298978
0.0297299
0.0295577
0.0293812
0.0292007
0.029016
0.0288274
0.0286349
0.0284386
0.0282385
0.0280348
0.0278275
0.0276167
0.0274024
0.0271848
0.0269639
0.0267398
0.0265126
0.0262824
0.0260491
0.0258129
0.0255739
0.0253322
0.0250877
0.0248406
0.0245909
0.0243387
0.0240841
0.0238271
0.0235678
0.0233063
0.0230426
0.0227767
0.0225088
0.0222389
0.021967
0.0216932
0.0214176
0.0211402
0.0208611
0.0205803
0.0202978
0.0200138
0.0197283
0.0194412
0.0191528
0.0188629
0.0185717
0.0182792
0.0179855
0.0176905
0.0173944
0.0170971