/*--------------------------------*- C++ -*----------------------------------*\
| =========                 |                                                 |
| \\      /  F ield         | OpenFOAM: The Open Source CFD Toolbox           |
|  \\    /   O peration     | Version:  v2012                                 |
|   \\  /    A nd           | Website:  www.openfoam.com                      |
|    \\/     M anipulation  |                                                 |
\*---------------------------------------------------------------------------*/
FoamFile
{
    version     2.0;
    format      ascii;
    class       volVectorField;
    location    "5";
    object      U;
}
// * * * * * * * * * * * * * * * * * * * * * * * * * * * * * * * * * * * * * //

dimensions      [0 1 -1 0 0 0 0];


internalField   nonuniform List<vector> 
65536
(
(0.000738658 -0.000738644 0)
(0.00221594 -0.00073861 0)
(0.00369312 -0.000738545 0)
(0.00517015 -0.000738448 0)
(0.00664695 -0.000738318 0)
(0.00812345 -0.000738155 0)
(0.0095996 -0.000737958 0)
(0.0110753 -0.000737725 0)
(0.0125505 -0.000737457 0)
(0.0140252 -0.000737152 0)
(0.0154992 -0.000736808 0)
(0.0169724 -0.000736425 0)
(0.0184449 -0.000736002 0)
(0.0199165 -0.000735535 0)
(0.0213871 -0.000735025 0)
(0.0228566 -0.000734468 0)
(0.024325 -0.000733863 0)
(0.0257921 -0.000733208 0)
(0.0272579 -0.000732501 0)
(0.0287222 -0.000731739 0)
(0.0301849 -0.000730921 0)
(0.0316459 -0.000730042 0)
(0.0331051 -0.000729102 0)
(0.0345624 -0.000728097 0)
(0.0360176 -0.000727024 0)
(0.0374706 -0.00072588 0)
(0.0389212 -0.000724663 0)
(0.0403693 -0.000723369 0)
(0.0418147 -0.000721995 0)
(0.0432573 -0.000720538 0)
(0.044697 -0.000718994 0)
(0.0461334 -0.00071736 0)
(0.0475665 -0.000715633 0)
(0.048996 -0.000713809 0)
(0.0504218 -0.000711884 0)
(0.0518437 -0.000709856 0)
(0.0532614 -0.000707719 0)
(0.0546747 -0.000705471 0)
(0.0560833 -0.000703108 0)
(0.0574872 -0.000700626 0)
(0.058886 -0.000698021 0)
(0.0602794 -0.000695289 0)
(0.0616673 -0.000692428 0)
(0.0630492 -0.000689433 0)
(0.0644251 -0.0006863 0)
(0.0657946 -0.000683025 0)
(0.0671574 -0.000679606 0)
(0.0685132 -0.000676039 0)
(0.0698617 -0.000672319 0)
(0.0712026 -0.000668445 0)
(0.0725356 -0.000664411 0)
(0.0738604 -0.000660215 0)
(0.0751766 -0.000655854 0)
(0.076484 -0.000651325 0)
(0.0777821 -0.000646625 0)
(0.0790706 -0.00064175 0)
(0.0803493 -0.000636699 0)
(0.0816176 -0.000631468 0)
(0.0828753 -0.000626056 0)
(0.084122 -0.00062046 0)
(0.0853573 -0.000614678 0)
(0.0865809 -0.000608707 0)
(0.0877924 -0.000602548 0)
(0.0889913 -0.000596198 0)
(0.0901773 -0.000589655 0)
(0.0913501 -0.000582919 0)
(0.0925092 -0.000575989 0)
(0.0936543 -0.000568865 0)
(0.0947849 -0.000561545 0)
(0.0959006 -0.000554031 0)
(0.0970012 -0.000546321 0)
(0.0980861 -0.000538418 0)
(0.099155 -0.00053032 0)
(0.100208 -0.00052203 0)
(0.101243 -0.000513548 0)
(0.102262 -0.000504876 0)
(0.103263 -0.000496016 0)
(0.104246 -0.00048697 0)
(0.105211 -0.000477739 0)
(0.106157 -0.000468327 0)
(0.107085 -0.000458737 0)
(0.107992 -0.000448972 0)
(0.108881 -0.000439034 0)
(0.109749 -0.000428928 0)
(0.110597 -0.000418658 0)
(0.111424 -0.000408228 0)
(0.11223 -0.000397642 0)
(0.113014 -0.000386905 0)
(0.113777 -0.000376022 0)
(0.114519 -0.000364998 0)
(0.115237 -0.000353838 0)
(0.115934 -0.000342548 0)
(0.116608 -0.000331133 0)
(0.117259 -0.000319601 0)
(0.117886 -0.000307956 0)
(0.118491 -0.000296205 0)
(0.119071 -0.000284354 0)
(0.119628 -0.000272411 0)
(0.120161 -0.000260381 0)
(0.12067 -0.000248272 0)
(0.121154 -0.00023609 0)
(0.121614 -0.000223843 0)
(0.12205 -0.000211537 0)
(0.12246 -0.00019918 0)
(0.122846 -0.000186778 0)
(0.123207 -0.000174339 0)
(0.123544 -0.000161871 0)
(0.123855 -0.000149379 0)
(0.124141 -0.000136872 0)
(0.124402 -0.000124357 0)
(0.124639 -0.00011184 0)
(0.12485 -9.93294e-05 0)
(0.125036 -8.68311e-05 0)
(0.125197 -7.43522e-05 0)
(0.125333 -6.18997e-05 0)
(0.125445 -4.94801e-05 0)
(0.125531 -3.71e-05 0)
(0.125593 -2.47658e-05 0)
(0.12563 -1.24837e-05 0)
(0.125643 -2.60047e-07 0)
(0.125631 1.18994e-05 0)
(0.125595 2.39887e-05 0)
(0.125535 3.60023e-05 0)
(0.125451 4.79348e-05 0)
(0.125343 5.97809e-05 0)
(0.125212 7.15355e-05 0)
(0.125057 8.31937e-05 0)
(0.124879 9.47509e-05 0)
(0.124678 0.000106203 0)
(0.124454 0.000117545 0)
(0.124208 0.000128773 0)
(0.123939 0.000139884 0)
(0.123648 0.000150873 0)
(0.123335 0.000161738 0)
(0.123001 0.000172475 0)
(0.122645 0.000183081 0)
(0.122269 0.000193553 0)
(0.121871 0.00020389 0)
(0.121453 0.000214087 0)
(0.121015 0.000224145 0)
(0.120556 0.000234059 0)
(0.120078 0.000243829 0)
(0.119581 0.000253453 0)
(0.119064 0.00026293 0)
(0.118529 0.000272258 0)
(0.117975 0.000281436 0)
(0.117403 0.000290464 0)
(0.116813 0.000299341 0)
(0.116205 0.000308066 0)
(0.115581 0.000316638 0)
(0.114939 0.000325059 0)
(0.11428 0.000333327 0)
(0.113605 0.000341443 0)
(0.112914 0.000349407 0)
(0.112208 0.000357218 0)
(0.111485 0.000364879 0)
(0.110748 0.000372388 0)
(0.109996 0.000379748 0)
(0.109229 0.000386958 0)
(0.108448 0.000394019 0)
(0.107652 0.000400932 0)
(0.106844 0.000407699 0)
(0.106022 0.000414321 0)
(0.105186 0.000420798 0)
(0.104338 0.000427132 0)
(0.103478 0.000433324 0)
(0.102605 0.000439376 0)
(0.10172 0.000445289 0)
(0.100823 0.000451065 0)
(0.0999156 0.000456705 0)
(0.0989965 0.00046221 0)
(0.0980666 0.000467583 0)
(0.0971261 0.000472824 0)
(0.0961752 0.000477936 0)
(0.0952142 0.000482921 0)
(0.0942434 0.00048778 0)
(0.093263 0.000492514 0)
(0.0922732 0.000497126 0)
(0.0912743 0.000501618 0)
(0.0902666 0.000505991 0)
(0.0892503 0.000510247 0)
(0.0882255 0.000514388 0)
(0.0871926 0.000518415 0)
(0.0861518 0.000522332 0)
(0.0851032 0.000526139 0)
(0.0840471 0.000529838 0)
(0.0829837 0.000533432 0)
(0.0819133 0.000536922 0)
(0.0808359 0.000540309 0)
(0.0797519 0.000543597 0)
(0.0786614 0.000546787 0)
(0.0775647 0.00054988 0)
(0.0764618 0.000552878 0)
(0.0753531 0.000555784 0)
(0.0742386 0.000558599 0)
(0.0731186 0.000561325 0)
(0.0719932 0.000563964 0)
(0.0708627 0.000566518 0)
(0.0697271 0.000568988 0)
(0.0685866 0.000571376 0)
(0.0674415 0.000573685 0)
(0.0662918 0.000575915 0)
(0.0651377 0.000578069 0)
(0.0639795 0.000580148 0)
(0.0628171 0.000582154 0)
(0.0616508 0.00058409 0)
(0.0604807 0.000585955 0)
(0.0593069 0.000587753 0)
(0.0581296 0.000589485 0)
(0.0569489 0.000591152 0)
(0.0557649 0.000592756 0)
(0.0545778 0.000594299 0)
(0.0533877 0.000595782 0)
(0.0521946 0.000597208 0)
(0.0509988 0.000598576 0)
(0.0498002 0.00059989 0)
(0.0485992 0.00060115 0)
(0.0473956 0.000602358 0)
(0.0461897 0.000603516 0)
(0.0449815 0.000604624 0)
(0.0437711 0.000605685 0)
(0.0425587 0.000606699 0)
(0.0413443 0.000607669 0)
(0.040128 0.000608594 0)
(0.0389099 0.000609477 0)
(0.03769 0.00061032 0)
(0.0364685 0.000611122 0)
(0.0352455 0.000611885 0)
(0.034021 0.000612611 0)
(0.032795 0.000613301 0)
(0.0315677 0.000613955 0)
(0.0303392 0.000614575 0)
(0.0291094 0.000615162 0)
(0.0278785 0.000615717 0)
(0.0266465 0.000616241 0)
(0.0254135 0.000616734 0)
(0.0241795 0.000617198 0)
(0.0229447 0.000617633 0)
(0.021709 0.00061804 0)
(0.0204725 0.000618421 0)
(0.0192353 0.000618775 0)
(0.0179973 0.000619104 0)
(0.0167588 0.000619408 0)
(0.0155197 0.000619687 0)
(0.01428 0.000619943 0)
(0.0130399 0.000620176 0)
(0.0117993 0.000620386 0)
(0.0105583 0.000620574 0)
(0.00931699 0.000620739 0)
(0.00807534 0.000620884 0)
(0.00683343 0.000621007 0)
(0.0055913 0.000621109 0)
(0.00434897 0.000621191 0)
(0.00310651 0.000621251 0)
(0.00186395 0.000621292 0)
(0.000621322 0.000621312 0)
(0.000738688 -0.00221595 0)
(0.00221603 -0.00221586 0)
(0.00369328 -0.00221566 0)
(0.00517037 -0.00221537 0)
(0.00664723 -0.00221498 0)
(0.0081238 -0.0022145 0)
(0.00960001 -0.0022139 0)
(0.0110758 -0.00221321 0)
(0.0125511 -0.0022124 0)
(0.0140258 -0.00221149 0)
(0.0154999 -0.00221046 0)
(0.0169732 -0.00220931 0)
(0.0184458 -0.00220804 0)
(0.0199174 -0.00220665 0)
(0.0213881 -0.00220512 0)
(0.0228578 -0.00220345 0)
(0.0243262 -0.00220164 0)
(0.0257935 -0.00219967 0)
(0.0272593 -0.00219755 0)
(0.0287237 -0.00219527 0)
(0.0301866 -0.00219282 0)
(0.0316477 -0.00219019 0)
(0.033107 -0.00218737 0)
(0.0345644 -0.00218435 0)
(0.0360198 -0.00218114 0)
(0.0374729 -0.00217771 0)
(0.0389236 -0.00217406 0)
(0.0403719 -0.00217018 0)
(0.0418175 -0.00216606 0)
(0.0432603 -0.0021617 0)
(0.0447001 -0.00215707 0)
(0.0461367 -0.00215217 0)
(0.04757 -0.00214699 0)
(0.0489997 -0.00214152 0)
(0.0504257 -0.00213575 0)
(0.0518478 -0.00212967 0)
(0.0532657 -0.00212327 0)
(0.0546792 -0.00211653 0)
(0.0560881 -0.00210944 0)
(0.0574922 -0.002102 0)
(0.0588912 -0.00209419 0)
(0.0602849 -0.002086 0)
(0.061673 -0.00207741 0)
(0.0630553 -0.00206843 0)
(0.0644315 -0.00205904 0)
(0.0658012 -0.00204922 0)
(0.0671643 -0.00203896 0)
(0.0685204 -0.00202827 0)
(0.0698692 -0.00201711 0)
(0.0712104 -0.00200549 0)
(0.0725438 -0.00199339 0)
(0.0738689 -0.00198081 0)
(0.0751854 -0.00196773 0)
(0.0764931 -0.00195414 0)
(0.0777916 -0.00194005 0)
(0.0790805 -0.00192542 0)
(0.0803595 -0.00191027 0)
(0.0816282 -0.00189458 0)
(0.0828862 -0.00187835 0)
(0.0841333 -0.00186156 0)
(0.085369 -0.00184422 0)
(0.086593 -0.00182631 0)
(0.0878048 -0.00180783 0)
(0.0890041 -0.00178878 0)
(0.0901905 -0.00176916 0)
(0.0913637 -0.00174895 0)
(0.0925232 -0.00172816 0)
(0.0936686 -0.00170679 0)
(0.0947996 -0.00168483 0)
(0.0959158 -0.00166229 0)
(0.0970167 -0.00163916 0)
(0.098102 -0.00161545 0)
(0.0991713 -0.00159115 0)
(0.100224 -0.00156628 0)
(0.10126 -0.00154083 0)
(0.102279 -0.00151482 0)
(0.103281 -0.00148823 0)
(0.104264 -0.00146109 0)
(0.10523 -0.0014334 0)
(0.106176 -0.00140516 0)
(0.107104 -0.00137639 0)
(0.108012 -0.00134709 0)
(0.108901 -0.00131727 0)
(0.109769 -0.00128695 0)
(0.110617 -0.00125613 0)
(0.111444 -0.00122484 0)
(0.112251 -0.00119308 0)
(0.113036 -0.00116086 0)
(0.113799 -0.00112821 0)
(0.114541 -0.00109513 0)
(0.11526 -0.00106164 0)
(0.115957 -0.00102777 0)
(0.116631 -0.000993519 0)
(0.117282 -0.000958915 0)
(0.11791 -0.000923974 0)
(0.118514 -0.000888715 0)
(0.119095 -0.000853157 0)
(0.119652 -0.00081732 0)
(0.120185 -0.000781224 0)
(0.120694 -0.000744889 0)
(0.121178 -0.000708337 0)
(0.121639 -0.000671588 0)
(0.122074 -0.000634663 0)
(0.122485 -0.000597584 0)
(0.122871 -0.000560372 0)
(0.123232 -0.000523049 0)
(0.123569 -0.000485636 0)
(0.12388 -0.000448155 0)
(0.124166 -0.000410627 0)
(0.124427 -0.000373074 0)
(0.124664 -0.000335517 0)
(0.124875 -0.000297978 0)
(0.125061 -0.000260476 0)
(0.125222 -0.000223033 0)
(0.125358 -0.000185668 0)
(0.125469 -0.000148403 0)
(0.125556 -0.000111256 0)
(0.125618 -7.42475e-05 0)
(0.125655 -3.73954e-05 0)
(0.125667 -7.18345e-07 0)
(0.125655 3.57657e-05 0)
(0.125619 7.20392e-05 0)
(0.125559 0.000108086 0)
(0.125475 0.000143888 0)
(0.125367 0.000179431 0)
(0.125235 0.0002147 0)
(0.12508 0.000249679 0)
(0.124902 0.000284355 0)
(0.124701 0.000318715 0)
(0.124477 0.000352745 0)
(0.12423 0.000386433 0)
(0.123961 0.000419769 0)
(0.12367 0.000452741 0)
(0.123357 0.000485338 0)
(0.123022 0.000517552 0)
(0.122666 0.000549373 0)
(0.122289 0.000580793 0)
(0.121891 0.000611804 0)
(0.121473 0.0006424 0)
(0.121034 0.000672573 0)
(0.120576 0.000702318 0)
(0.120097 0.00073163 0)
(0.1196 0.000760503 0)
(0.119083 0.000788934 0)
(0.118547 0.000816919 0)
(0.117993 0.000844455 0)
(0.117421 0.00087154 0)
(0.116831 0.00089817 0)
(0.116223 0.000924346 0)
(0.115598 0.000950064 0)
(0.114955 0.000975326 0)
(0.114297 0.00100013 0)
(0.113621 0.00102448 0)
(0.11293 0.00104837 0)
(0.112223 0.0010718 0)
(0.1115 0.00109478 0)
(0.110763 0.00111731 0)
(0.11001 0.00113939 0)
(0.109243 0.00116102 0)
(0.108462 0.0011822 0)
(0.107666 0.00120294 0)
(0.106857 0.00122324 0)
(0.106035 0.0012431 0)
(0.105199 0.00126253 0)
(0.104351 0.00128153 0)
(0.10349 0.00130011 0)
(0.102617 0.00131826 0)
(0.101732 0.001336 0)
(0.100835 0.00135333 0)
(0.0999267 0.00137025 0)
(0.0990074 0.00138676 0)
(0.0980772 0.00140288 0)
(0.0971364 0.0014186 0)
(0.0961853 0.00143393 0)
(0.095224 0.00144889 0)
(0.094253 0.00146346 0)
(0.0932723 0.00147766 0)
(0.0922823 0.0014915 0)
(0.0912832 0.00150497 0)
(0.0902753 0.00151809 0)
(0.0892587 0.00153085 0)
(0.0882337 0.00154327 0)
(0.0872006 0.00155536 0)
(0.0861595 0.0015671 0)
(0.0851107 0.00157852 0)
(0.0840544 0.00158962 0)
(0.0829908 0.0016004 0)
(0.0819201 0.00161087 0)
(0.0808426 0.00162103 0)
(0.0797584 0.00163089 0)
(0.0786677 0.00164045 0)
(0.0775708 0.00164973 0)
(0.0764677 0.00165873 0)
(0.0753588 0.00166744 0)
(0.0742442 0.00167589 0)
(0.073124 0.00168406 0)
(0.0719984 0.00169198 0)
(0.0708677 0.00169964 0)
(0.0697319 0.00170704 0)
(0.0685913 0.00171421 0)
(0.067446 0.00172113 0)
(0.0662962 0.00172782 0)
(0.065142 0.00173428 0)
(0.0639836 0.00174052 0)
(0.062821 0.00174653 0)
(0.0616546 0.00175234 0)
(0.0604843 0.00175793 0)
(0.0593104 0.00176332 0)
(0.058133 0.00176852 0)
(0.0569522 0.00177352 0)
(0.0557681 0.00177833 0)
(0.0545808 0.00178296 0)
(0.0533906 0.0017874 0)
(0.0521974 0.00179168 0)
(0.0510015 0.00179578 0)
(0.0498028 0.00179972 0)
(0.0486016 0.0018035 0)
(0.047398 0.00180713 0)
(0.046192 0.0018106 0)
(0.0449837 0.00181392 0)
(0.0437732 0.0018171 0)
(0.0425607 0.00182014 0)
(0.0413462 0.00182305 0)
(0.0401298 0.00182583 0)
(0.0389116 0.00182847 0)
(0.0376917 0.001831 0)
(0.0364701 0.0018334 0)
(0.035247 0.00183569 0)
(0.0340224 0.00183787 0)
(0.0327964 0.00183994 0)
(0.031569 0.0018419 0)
(0.0303404 0.00184376 0)
(0.0291105 0.00184552 0)
(0.0278796 0.00184718 0)
(0.0266475 0.00184875 0)
(0.0254145 0.00185023 0)
(0.0241804 0.00185162 0)
(0.0229455 0.00185293 0)
(0.0217098 0.00185415 0)
(0.0204732 0.00185529 0)
(0.0192359 0.00185635 0)
(0.017998 0.00185734 0)
(0.0167594 0.00185825 0)
(0.0155202 0.00185909 0)
(0.0142805 0.00185985 0)
(0.0130403 0.00186055 0)
(0.0117997 0.00186118 0)
(0.0105587 0.00186174 0)
(0.0093173 0.00186224 0)
(0.00807562 0.00186267 0)
(0.00683366 0.00186304 0)
(0.00559148 0.00186335 0)
(0.00434912 0.00186359 0)
(0.00310661 0.00186378 0)
(0.00186401 0.0018639 0)
(0.000621343 0.00186396 0)
(0.000738752 -0.00369336 0)
(0.00221623 -0.0036932 0)
(0.0036936 -0.00369288 0)
(0.00517082 -0.0036924 0)
(0.00664782 -0.00369175 0)
(0.00812453 -0.00369094 0)
(0.00960088 -0.00368996 0)
(0.0110768 -0.0036888 0)
(0.0125522 -0.00368746 0)
(0.0140271 -0.00368594 0)
(0.0155013 -0.00368423 0)
(0.0169748 -0.00368233 0)
(0.0184476 -0.00368021 0)
(0.0199194 -0.00367789 0)
(0.0213903 -0.00367535 0)
(0.0228601 -0.00367257 0)
(0.0243288 -0.00366956 0)
(0.0257962 -0.0036663 0)
(0.0272623 -0.00366277 0)
(0.0287269 -0.00365898 0)
(0.03019 -0.00365489 0)
(0.0316514 -0.00365052 0)
(0.0331109 -0.00364583 0)
(0.0345686 -0.00364082 0)
(0.0360242 -0.00363547 0)
(0.0374776 -0.00362976 0)
(0.0389287 -0.00362369 0)
(0.0403772 -0.00361724 0)
(0.0418232 -0.00361038 0)
(0.0432663 -0.00360311 0)
(0.0447065 -0.00359541 0)
(0.0461434 -0.00358726 0)
(0.0475771 -0.00357864 0)
(0.0490072 -0.00356954 0)
(0.0504336 -0.00355994 0)
(0.0518561 -0.00354981 0)
(0.0532745 -0.00353915 0)
(0.0546884 -0.00352793 0)
(0.0560978 -0.00351613 0)
(0.0575024 -0.00350374 0)
(0.0589019 -0.00349073 0)
(0.0602961 -0.00347709 0)
(0.0616848 -0.0034628 0)
(0.0630676 -0.00344785 0)
(0.0644443 -0.0034322 0)
(0.0658146 -0.00341585 0)
(0.0671783 -0.00339877 0)
(0.068535 -0.00338095 0)
(0.0698844 -0.00336237 0)
(0.0712263 -0.00334301 0)
(0.0725602 -0.00332286 0)
(0.073886 -0.0033019 0)
(0.0752032 -0.00328011 0)
(0.0765116 -0.00325748 0)
(0.0778108 -0.00323399 0)
(0.0791004 -0.00320963 0)
(0.0803801 -0.00318439 0)
(0.0816495 -0.00315825 0)
(0.0829083 -0.0031312 0)
(0.0841561 -0.00310322 0)
(0.0853926 -0.00307432 0)
(0.0866173 -0.00304448 0)
(0.0878298 -0.00301369 0)
(0.0890299 -0.00298195 0)
(0.0902171 -0.00294924 0)
(0.0913911 -0.00291556 0)
(0.0925513 -0.00288092 0)
(0.0936975 -0.00284529 0)
(0.0948293 -0.0028087 0)
(0.0959463 -0.00277112 0)
(0.097048 -0.00273258 0)
(0.0981341 -0.00269305 0)
(0.0992042 -0.00265256 0)
(0.100258 -0.00261111 0)
(0.101295 -0.00256869 0)
(0.102315 -0.00252532 0)
(0.103317 -0.00248101 0)
(0.104301 -0.00243577 0)
(0.105267 -0.0023896 0)
(0.106214 -0.00234253 0)
(0.107143 -0.00229456 0)
(0.108052 -0.00224572 0)
(0.108941 -0.00219601 0)
(0.10981 -0.00214546 0)
(0.110659 -0.00209409 0)
(0.111487 -0.00204192 0)
(0.112294 -0.00198897 0)
(0.113079 -0.00193526 0)
(0.113843 -0.00188081 0)
(0.114585 -0.00182567 0)
(0.115305 -0.00176984 0)
(0.116002 -0.00171336 0)
(0.116677 -0.00165626 0)
(0.117328 -0.00159857 0)
(0.117956 -0.00154031 0)
(0.118561 -0.00148152 0)
(0.119143 -0.00142224 0)
(0.1197 -0.00136249 0)
(0.120233 -0.00130231 0)
(0.120743 -0.00124172 0)
(0.121227 -0.00118078 0)
(0.121688 -0.00111951 0)
(0.122124 -0.00105794 0)
(0.122535 -0.000996121 0)
(0.122921 -0.000934078 0)
(0.123282 -0.000871849 0)
(0.123619 -0.00080947 0)
(0.12393 -0.000746977 0)
(0.124216 -0.000684407 0)
(0.124478 -0.000621795 0)
(0.124714 -0.000559177 0)
(0.124925 -0.000496588 0)
(0.125111 -0.000434062 0)
(0.125272 -0.000371634 0)
(0.125408 -0.000309338 0)
(0.125519 -0.000247207 0)
(0.125605 -0.000185274 0)
(0.125667 -0.000123572 0)
(0.125704 -6.21316e-05 0)
(0.125716 -9.83372e-07 0)
(0.125704 5.98426e-05 0)
(0.125668 0.000120317 0)
(0.125607 0.000180413 0)
(0.125523 0.000240101 0)
(0.125414 0.000299357 0)
(0.125282 0.000358154 0)
(0.125127 0.000416468 0)
(0.124948 0.000474277 0)
(0.124746 0.000531557 0)
(0.124522 0.000588287 0)
(0.124275 0.000644447 0)
(0.124005 0.000700019 0)
(0.123714 0.000754983 0)
(0.1234 0.000809322 0)
(0.123065 0.000863022 0)
(0.122709 0.000916066 0)
(0.122331 0.000968442 0)
(0.121933 0.00102014 0)
(0.121514 0.00107113 0)
(0.121074 0.00112143 0)
(0.120615 0.00117101 0)
(0.120136 0.00121987 0)
(0.119638 0.001268 0)
(0.119121 0.00131539 0)
(0.118584 0.00136203 0)
(0.11803 0.00140793 0)
(0.117457 0.00145307 0)
(0.116866 0.00149746 0)
(0.116257 0.00154108 0)
(0.115632 0.00158395 0)
(0.114989 0.00162605 0)
(0.114329 0.00166739 0)
(0.113654 0.00170797 0)
(0.112962 0.00174779 0)
(0.112254 0.00178684 0)
(0.111531 0.00182514 0)
(0.110792 0.00186269 0)
(0.110039 0.00189948 0)
(0.109272 0.00193552 0)
(0.10849 0.00197083 0)
(0.107694 0.00200539 0)
(0.106884 0.00203922 0)
(0.106061 0.00207232 0)
(0.105225 0.0021047 0)
(0.104376 0.00213636 0)
(0.103514 0.00216732 0)
(0.102641 0.00219757 0)
(0.101755 0.00222713 0)
(0.100858 0.002256 0)
(0.099949 0.00228419 0)
(0.0990292 0.00231171 0)
(0.0980985 0.00233856 0)
(0.0971571 0.00236476 0)
(0.0962055 0.00239031 0)
(0.0952437 0.00241523 0)
(0.0942722 0.00243951 0)
(0.093291 0.00246318 0)
(0.0923005 0.00248623 0)
(0.0913009 0.00250868 0)
(0.0902925 0.00253053 0)
(0.0892755 0.0025518 0)
(0.08825 0.0025725 0)
(0.0872164 0.00259263 0)
(0.0861749 0.0026122 0)
(0.0851257 0.00263123 0)
(0.084069 0.00264972 0)
(0.083005 0.00266767 0)
(0.0819339 0.00268511 0)
(0.080856 0.00270204 0)
(0.0797714 0.00271847 0)
(0.0786803 0.00273441 0)
(0.077583 0.00274987 0)
(0.0764796 0.00276485 0)
(0.0753702 0.00277937 0)
(0.0742552 0.00279344 0)
(0.0731347 0.00280706 0)
(0.0720088 0.00282025 0)
(0.0708777 0.00283301 0)
(0.0697416 0.00284535 0)
(0.0686007 0.00285728 0)
(0.0674551 0.00286881 0)
(0.066305 0.00287996 0)
(0.0651505 0.00289072 0)
(0.0639917 0.0029011 0)
(0.0628289 0.00291113 0)
(0.0616622 0.00292079 0)
(0.0604917 0.00293011 0)
(0.0593175 0.00293909 0)
(0.0581398 0.00294774 0)
(0.0569587 0.00295607 0)
(0.0557744 0.00296409 0)
(0.0545869 0.00297179 0)
(0.0533964 0.0029792 0)
(0.052203 0.00298632 0)
(0.0510068 0.00299316 0)
(0.049808 0.00299972 0)
(0.0486066 0.00300601 0)
(0.0474027 0.00301204 0)
(0.0461965 0.00301783 0)
(0.044988 0.00302336 0)
(0.0437774 0.00302866 0)
(0.0425647 0.00303372 0)
(0.04135 0.00303856 0)
(0.0401334 0.00304318 0)
(0.038915 0.00304759 0)
(0.037695 0.0030518 0)
(0.0364732 0.0030558 0)
(0.03525 0.00305962 0)
(0.0340252 0.00306324 0)
(0.0327991 0.00306668 0)
(0.0315716 0.00306995 0)
(0.0303428 0.00307304 0)
(0.0291128 0.00307597 0)
(0.0278817 0.00307874 0)
(0.0266495 0.00308136 0)
(0.0254164 0.00308382 0)
(0.0241822 0.00308613 0)
(0.0229472 0.00308831 0)
(0.0217113 0.00309034 0)
(0.0204747 0.00309224 0)
(0.0192373 0.00309401 0)
(0.0179992 0.00309565 0)
(0.0167606 0.00309716 0)
(0.0155213 0.00309856 0)
(0.0142815 0.00309983 0)
(0.0130412 0.003101 0)
(0.0118005 0.00310204 0)
(0.0105594 0.00310298 0)
(0.00931792 0.00310381 0)
(0.00807615 0.00310453 0)
(0.00683411 0.00310514 0)
(0.00559185 0.00310565 0)
(0.0043494 0.00310606 0)
(0.00310682 0.00310636 0)
(0.00186413 0.00310656 0)
(0.000621383 0.00310666 0)
(0.000738849 -0.00517093 0)
(0.00221652 -0.00517071 0)
(0.00369409 -0.00517026 0)
(0.0051715 -0.00516959 0)
(0.0066487 -0.00516869 0)
(0.00812561 -0.00516755 0)
(0.00960217 -0.00516618 0)
(0.0110783 -0.00516457 0)
(0.012554 -0.00516271 0)
(0.0140291 -0.00516059 0)
(0.0155035 -0.0051582 0)
(0.0169773 -0.00515554 0)
(0.0184502 -0.0051526 0)
(0.0199223 -0.00514936 0)
(0.0213935 -0.00514581 0)
(0.0228636 -0.00514194 0)
(0.0243325 -0.00513773 0)
(0.0258003 -0.00513318 0)
(0.0272667 -0.00512826 0)
(0.0287316 -0.00512296 0)
(0.0301951 -0.00511727 0)
(0.0316568 -0.00511116 0)
(0.0331168 -0.00510461 0)
(0.0345748 -0.00509762 0)
(0.0360309 -0.00509015 0)
(0.0374847 -0.00508218 0)
(0.0389362 -0.00507371 0)
(0.0403853 -0.00506469 0)
(0.0418317 -0.00505512 0)
(0.0432753 -0.00504497 0)
(0.044716 -0.00503421 0)
(0.0461535 -0.00502282 0)
(0.0475878 -0.00501078 0)
(0.0490185 -0.00499806 0)
(0.0504455 -0.00498464 0)
(0.0518686 -0.00497049 0)
(0.0532876 -0.00495559 0)
(0.0547023 -0.0049399 0)
(0.0561124 -0.00492341 0)
(0.0575177 -0.00490609 0)
(0.058918 -0.00488791 0)
(0.0603129 -0.00486884 0)
(0.0617024 -0.00484886 0)
(0.063086 -0.00482795 0)
(0.0644635 -0.00480607 0)
(0.0658347 -0.0047832 0)
(0.0671993 -0.00475932 0)
(0.0685569 -0.00473439 0)
(0.0699072 -0.00470841 0)
(0.07125 -0.00468133 0)
(0.072585 -0.00465314 0)
(0.0739117 -0.00462381 0)
(0.0752299 -0.00459333 0)
(0.0765393 -0.00456167 0)
(0.0778395 -0.00452881 0)
(0.0791302 -0.00449472 0)
(0.080411 -0.0044594 0)
(0.0816815 -0.00442282 0)
(0.0829414 -0.00438496 0)
(0.0841903 -0.00434582 0)
(0.0854279 -0.00430537 0)
(0.0866537 -0.0042636 0)
(0.0878674 -0.00422051 0)
(0.0890687 -0.00417607 0)
(0.090257 -0.00413029 0)
(0.0914321 -0.00408315 0)
(0.0925936 -0.00403465 0)
(0.093741 -0.00398478 0)
(0.0948739 -0.00393354 0)
(0.095992 -0.00388094 0)
(0.0970949 -0.00382697 0)
(0.0981822 -0.00377163 0)
(0.0992534 -0.00371494 0)
(0.100308 -0.00365689 0)
(0.101346 -0.0035975 0)
(0.102367 -0.00353677 0)
(0.103371 -0.00347472 0)
(0.104356 -0.00341136 0)
(0.105323 -0.00334671 0)
(0.106271 -0.00328079 0)
(0.107201 -0.00321362 0)
(0.108111 -0.00314521 0)
(0.109001 -0.0030756 0)
(0.109871 -0.0030048 0)
(0.110721 -0.00293285 0)
(0.11155 -0.00285978 0)
(0.112358 -0.00278561 0)
(0.113144 -0.00271038 0)
(0.113909 -0.00263413 0)
(0.114652 -0.00255688 0)
(0.115372 -0.00247869 0)
(0.11607 -0.00239958 0)
(0.116746 -0.00231959 0)
(0.117398 -0.00223878 0)
(0.118027 -0.00215718 0)
(0.118632 -0.00207483 0)
(0.119214 -0.00199179 0)
(0.119772 -0.00190809 0)
(0.120306 -0.00182378 0)
(0.120816 -0.00173892 0)
(0.121301 -0.00165355 0)
(0.121762 -0.00156772 0)
(0.122198 -0.00148148 0)
(0.122609 -0.00139488 0)
(0.122996 -0.00130797 0)
(0.123357 -0.0012208 0)
(0.123694 -0.00113342 0)
(0.124005 -0.00104588 0)
(0.124292 -0.000958229 0)
(0.124553 -0.000870522 0)
(0.124789 -0.000782808 0)
(0.125 -0.000695133 0)
(0.125186 -0.000607549 0)
(0.125347 -0.000520102 0)
(0.125483 -0.000432841 0)
(0.125594 -0.000345812 0)
(0.12568 -0.000259062 0)
(0.125741 -0.000172635 0)
(0.125777 -8.65748e-05 0)
(0.125789 -9.2542e-07 0)
(0.125777 8.42716e-05 0)
(0.12574 0.000168976 0)
(0.125679 0.000253147 0)
(0.125594 0.000336748 0)
(0.125485 0.000419741 0)
(0.125353 0.000502092 0)
(0.125197 0.000583765 0)
(0.125017 0.000664727 0)
(0.124815 0.000744949 0)
(0.12459 0.0008244 0)
(0.124342 0.000903051 0)
(0.124072 0.000980876 0)
(0.123779 0.00105785 0)
(0.123465 0.00113395 0)
(0.123129 0.00120915 0)
(0.122772 0.00128343 0)
(0.122394 0.00135677 0)
(0.121994 0.00142916 0)
(0.121574 0.00150058 0)
(0.121134 0.001571 0)
(0.120674 0.00164043 0)
(0.120195 0.00170884 0)
(0.119695 0.00177623 0)
(0.119177 0.00184258 0)
(0.11864 0.00190789 0)
(0.118084 0.00197215 0)
(0.11751 0.00203536 0)
(0.116919 0.0020975 0)
(0.116309 0.00215858 0)
(0.115683 0.00221859 0)
(0.115039 0.00227754 0)
(0.114379 0.00233542 0)
(0.113702 0.00239222 0)
(0.113009 0.00244797 0)
(0.1123 0.00250264 0)
(0.111576 0.00255626 0)
(0.110837 0.00260881 0)
(0.110083 0.00266032 0)
(0.109314 0.00271078 0)
(0.108531 0.00276019 0)
(0.107735 0.00280857 0)
(0.106924 0.00285593 0)
(0.1061 0.00290226 0)
(0.105263 0.00294758 0)
(0.104413 0.0029919 0)
(0.103551 0.00303523 0)
(0.102677 0.00307757 0)
(0.10179 0.00311894 0)
(0.100892 0.00315935 0)
(0.0999825 0.00319881 0)
(0.0990618 0.00323732 0)
(0.0981303 0.00327491 0)
(0.0971882 0.00331157 0)
(0.0962358 0.00334733 0)
(0.0952733 0.0033822 0)
(0.0943009 0.00341619 0)
(0.093319 0.00344931 0)
(0.0923278 0.00348157 0)
(0.0913275 0.00351298 0)
(0.0903184 0.00354357 0)
(0.0893006 0.00357333 0)
(0.0882745 0.00360229 0)
(0.0872403 0.00363046 0)
(0.0861981 0.00365785 0)
(0.0851482 0.00368447 0)
(0.0840908 0.00371034 0)
(0.0830262 0.00373547 0)
(0.0819545 0.00375987 0)
(0.080876 0.00378356 0)
(0.0797908 0.00380655 0)
(0.0786991 0.00382885 0)
(0.0776012 0.00385048 0)
(0.0764972 0.00387144 0)
(0.0753874 0.00389176 0)
(0.0742718 0.00391144 0)
(0.0731508 0.00393049 0)
(0.0720244 0.00394894 0)
(0.0708928 0.00396679 0)
(0.0697562 0.00398406 0)
(0.0686148 0.00400075 0)
(0.0674687 0.00401689 0)
(0.0663181 0.00403247 0)
(0.0651631 0.00404753 0)
(0.064004 0.00406206 0)
(0.0628407 0.00407608 0)
(0.0616736 0.0040896 0)
(0.0605026 0.00410263 0)
(0.059328 0.0041152 0)
(0.05815 0.00412729 0)
(0.0569685 0.00413894 0)
(0.0557838 0.00415015 0)
(0.0545959 0.00416093 0)
(0.0534051 0.00417129 0)
(0.0522114 0.00418124 0)
(0.0510148 0.0041908 0)
(0.0498157 0.00419998 0)
(0.048614 0.00420878 0)
(0.0474098 0.00421722 0)
(0.0462033 0.0042253 0)
(0.0449945 0.00423304 0)
(0.0437836 0.00424044 0)
(0.0425706 0.00424753 0)
(0.0413556 0.00425429 0)
(0.0401388 0.00426075 0)
(0.0389202 0.00426692 0)
(0.0376999 0.0042728 0)
(0.0364779 0.0042784 0)
(0.0352544 0.00428372 0)
(0.0340294 0.00428879 0)
(0.0328031 0.0042936 0)
(0.0315754 0.00429817 0)
(0.0303464 0.00430249 0)
(0.0291162 0.00430659 0)
(0.0278849 0.00431046 0)
(0.0266526 0.00431411 0)
(0.0254192 0.00431755 0)
(0.0241849 0.00432079 0)
(0.0229497 0.00432382 0)
(0.0217137 0.00432666 0)
(0.0204769 0.00432932 0)
(0.0192393 0.00433179 0)
(0.0180011 0.00433408 0)
(0.0167623 0.0043362 0)
(0.0155229 0.00433815 0)
(0.014283 0.00433993 0)
(0.0130425 0.00434155 0)
(0.0118017 0.00434302 0)
(0.0105604 0.00434432 0)
(0.00931885 0.00434548 0)
(0.00807695 0.00434649 0)
(0.00683478 0.00434734 0)
(0.0055924 0.00434806 0)
(0.00434983 0.00434862 0)
(0.00310712 0.00434905 0)
(0.00186431 0.00434933 0)
(0.000621444 0.00434947 0)
(0.000738977 -0.00664873 0)
(0.0022169 -0.00664844 0)
(0.00369473 -0.00664787 0)
(0.00517241 -0.00664701 0)
(0.00664986 -0.00664586 0)
(0.00812704 -0.00664441 0)
(0.00960388 -0.00664266 0)
(0.0110803 -0.00664059 0)
(0.0125562 -0.00663821 0)
(0.0140316 -0.0066355 0)
(0.0155064 -0.00663245 0)
(0.0169805 -0.00662905 0)
(0.0184538 -0.00662528 0)
(0.0199262 -0.00662113 0)
(0.0213977 -0.00661659 0)
(0.0228682 -0.00661164 0)
(0.0243376 -0.00660626 0)
(0.0258057 -0.00660043 0)
(0.0272725 -0.00659414 0)
(0.0287379 -0.00658735 0)
(0.0302018 -0.00658006 0)
(0.0316641 -0.00657224 0)
(0.0331245 -0.00656385 0)
(0.0345831 -0.00655489 0)
(0.0360397 -0.00654532 0)
(0.0374941 -0.00653512 0)
(0.0389462 -0.00652426 0)
(0.0403959 -0.00651271 0)
(0.041843 -0.00650044 0)
(0.0432873 -0.00648743 0)
(0.0447287 -0.00647363 0)
(0.0461669 -0.00645903 0)
(0.0476019 -0.0064436 0)
(0.0490334 -0.00642729 0)
(0.0504613 -0.00641007 0)
(0.0518853 -0.00639193 0)
(0.0533051 -0.00637281 0)
(0.0547207 -0.00635269 0)
(0.0561317 -0.00633153 0)
(0.057538 -0.0063093 0)
(0.0589393 -0.00628597 0)
(0.0603353 -0.0062615 0)
(0.0617258 -0.00623586 0)
(0.0631105 -0.00620901 0)
(0.0644891 -0.00618093 0)
(0.0658615 -0.00615157 0)
(0.0672272 -0.00612091 0)
(0.068586 -0.0060889 0)
(0.0699376 -0.00605553 0)
(0.0712816 -0.00602076 0)
(0.0726179 -0.00598456 0)
(0.0739459 -0.00594689 0)
(0.0752655 -0.00590774 0)
(0.0765763 -0.00586706 0)
(0.0778778 -0.00582484 0)
(0.0791699 -0.00578105 0)
(0.0804521 -0.00573567 0)
(0.0817241 -0.00568866 0)
(0.0829854 -0.00564002 0)
(0.0842358 -0.00558972 0)
(0.0854749 -0.00553773 0)
(0.0867023 -0.00548405 0)
(0.0879175 -0.00542866 0)
(0.0891203 -0.00537154 0)
(0.0903102 -0.00531269 0)
(0.0914869 -0.00525209 0)
(0.0926499 -0.00518974 0)
(0.0937988 -0.00512563 0)
(0.0949333 -0.00505976 0)
(0.096053 -0.00499212 0)
(0.0971575 -0.00492273 0)
(0.0982463 -0.00485157 0)
(0.0993191 -0.00477867 0)
(0.100375 -0.00470402 0)
(0.101415 -0.00462764 0)
(0.102437 -0.00454954 0)
(0.103442 -0.00446974 0)
(0.104429 -0.00438825 0)
(0.105398 -0.0043051 0)
(0.106348 -0.00422031 0)
(0.107278 -0.0041339 0)
(0.10819 -0.00404591 0)
(0.109081 -0.00395636 0)
(0.109953 -0.00386529 0)
(0.110804 -0.00377274 0)
(0.111634 -0.00367873 0)
(0.112443 -0.00358332 0)
(0.113231 -0.00348654 0)
(0.113997 -0.00338843 0)
(0.114741 -0.00328905 0)
(0.115462 -0.00318845 0)
(0.116161 -0.00308667 0)
(0.116838 -0.00298376 0)
(0.117491 -0.00287978 0)
(0.118121 -0.00277479 0)
(0.118727 -0.00266884 0)
(0.11931 -0.00256198 0)
(0.119868 -0.00245429 0)
(0.120403 -0.00234582 0)
(0.120913 -0.00223663 0)
(0.121399 -0.00212678 0)
(0.12186 -0.00201635 0)
(0.122297 -0.00190538 0)
(0.122708 -0.00179395 0)
(0.123095 -0.00168212 0)
(0.123457 -0.00156995 0)
(0.123794 -0.00145752 0)
(0.124105 -0.00134488 0)
(0.124392 -0.00123211 0)
(0.124653 -0.00111926 0)
(0.124889 -0.0010064 0)
(0.1251 -0.000893589 0)
(0.125286 -0.000780897 0)
(0.125447 -0.000668385 0)
(0.125582 -0.000556111 0)
(0.125693 -0.000444138 0)
(0.125779 -0.000332525 0)
(0.12584 -0.000221329 0)
(0.125876 -0.000110607 0)
(0.125887 -4.14348e-07 0)
(0.125874 0.000109195 0)
(0.125837 0.000218167 0)
(0.125775 0.000326453 0)
(0.125689 0.000434004 0)
(0.12558 0.00054077 0)
(0.125446 0.000646707 0)
(0.12529 0.000751772 0)