/*--------------------------------*- C++ -*----------------------------------*\
| =========                 |                                                 |
| \\      /  F ield         | OpenFOAM: The Open Source CFD Toolbox           |
|  \\    /   O peration     | Version:  v2012                                 |
|   \\  /    A nd           | Website:  www.openfoam.com                      |
|    \\/     M anipulation  |                                                 |
\*---------------------------------------------------------------------------*/
FoamFile
{
    version     2.0;
    format      ascii;
    class       volScalarField;
    location    "5";
    object      W;
}
// * * * * * * * * * * * * * * * * * * * * * * * * * * * * * * * * * * * * * //

dimensions      [0 0 -1 0 0 0 0];


internalField   nonuniform List<scalar> 
65536
(
8.8909e-21
2.71494e-20
4.68664e-20
6.9106e-20
9.50691e-20
1.26151e-19
1.64007e-19
2.10624e-19
2.68408e-19
3.40282e-19
4.29811e-19
5.41345e-19
6.80194e-19
8.5284e-19
1.06718e-18
1.33284e-18
1.6615e-18
2.06736e-18
2.56758e-18
3.18292e-18
3.93839e-18
4.86411e-18
5.99619e-18
7.3779e-18
9.06095e-18
1.1107e-17
1.35893e-17
1.65948e-17
2.02266e-17
2.46062e-17
2.98769e-17
3.62069e-17
4.37938e-17
5.28683e-17
6.36997e-17
7.66013e-17
9.19369e-17
1.10128e-16
1.31659e-16
1.57093e-16
1.8707e-16
2.2233e-16
2.63712e-16
3.12178e-16
3.68816e-16
4.34862e-16
5.1171e-16
6.00933e-16
7.04295e-16
8.23773e-16
9.61573e-16
1.12015e-15
1.30223e-15
1.51082e-15
1.74924e-15
2.02114e-15
2.33051e-15
2.68169e-15
3.07941e-15
3.52879e-15
4.03533e-15
4.60496e-15
5.244e-15
5.95919e-15
6.75765e-15
7.64691e-15
8.63482e-15
9.72962e-15
1.09398e-14
1.22742e-14
1.37416e-14
1.53513e-14
1.71124e-14
1.9034e-14
2.11251e-14
2.33944e-14
2.58505e-14
2.85011e-14
3.13536e-14
3.44146e-14
3.76897e-14
4.11833e-14
4.48988e-14
4.8838e-14
5.30012e-14
5.73868e-14
6.19916e-14
6.68101e-14
7.18346e-14
7.70553e-14
8.24597e-14
8.80329e-14
9.37577e-14
9.96139e-14
1.05579e-13
1.11628e-13
1.17734e-13
1.23865e-13
1.29992e-13
1.36079e-13
1.4209e-13
1.4799e-13
1.53739e-13
1.59298e-13
1.64628e-13
1.6969e-13
1.74445e-13
1.78854e-13
1.82882e-13
1.86494e-13
1.89657e-13
1.92343e-13
1.94524e-13
1.96179e-13
1.97289e-13
1.97841e-13
1.97824e-13
1.97234e-13
1.96072e-13
1.94344e-13
1.9206e-13
1.89237e-13
1.85894e-13
1.82059e-13
1.77761e-13
1.73034e-13
1.67917e-13
1.62452e-13
1.56684e-13
1.50658e-13
1.44424e-13
1.38033e-13
1.31534e-13
1.24978e-13
1.18417e-13
1.119e-13
1.05474e-13
9.9187e-14
9.3082e-14
8.72006e-14
8.15811e-14
7.62587e-14
7.12649e-14
6.66278e-14
6.23717e-14
5.8517e-14
5.50803e-14
5.20742e-14
4.95076e-14
4.73856e-14
4.57093e-14
4.44763e-14
4.36805e-14
4.33124e-14
4.33587e-14
4.38031e-14
4.46256e-14
4.58034e-14
4.73102e-14
4.9117e-14
5.11918e-14
5.35001e-14
5.60048e-14
5.86668e-14
6.14448e-14
6.42963e-14
6.71774e-14
7.00437e-14
7.28505e-14
7.55537e-14
7.81098e-14
8.04774e-14
8.26168e-14
8.44915e-14
8.60685e-14
8.73185e-14
8.82173e-14
8.87453e-14
8.88886e-14
8.86389e-14
8.79938e-14
8.69568e-14
8.55372e-14
8.375e-14
8.16153e-14
7.91584e-14
7.64085e-14
7.33985e-14
7.01645e-14
6.67444e-14
6.31777e-14
5.95042e-14
5.57636e-14
5.19946e-14
4.82343e-14
4.45173e-14
4.08753e-14
3.73371e-14
3.39276e-14
3.0668e-14
2.75755e-14
2.46634e-14
2.19414e-14
1.94153e-14
1.70875e-14
1.49574e-14
1.30217e-14
1.12745e-14
9.70821e-15
8.31341e-15
7.07957e-15
5.99533e-15
5.04878e-15
4.22785e-15
3.52047e-15
2.91489e-15
2.3998e-15
1.96449e-15
1.59897e-15
1.294e-15
1.04119e-15
8.32947e-16
6.62504e-16
5.23887e-16
4.11869e-16
3.21918e-16
2.50144e-16
1.93237e-16
1.48401e-16
1.133e-16
8.59924e-17
6.48822e-17
4.86655e-17
3.62864e-17
2.68961e-17
1.98178e-17
1.45157e-17
1.0569e-17
7.64969e-18
5.5038e-18
3.9363e-18
2.79847e-18
1.97769e-18
1.38931e-18
9.70149e-19
6.734e-19
4.64608e-19
3.18593e-19
2.17076e-19
1.46869e-19
9.85092e-20
6.52362e-20
4.22231e-20
2.6006e-20
1.40536e-20
4.43671e-21
2.96919e-20
9.06663e-20
1.56507e-19
2.30767e-19
3.1745e-19
4.21211e-19
5.47571e-19
7.03156e-19
8.95985e-19
1.13581e-18
1.43451e-18
1.80658e-18
2.26972e-18
2.84552e-18
3.56031e-18
4.44611e-18
5.54187e-18
6.89481e-18
8.56211e-18
1.06128e-17
1.31303e-17
1.62146e-17
1.99859e-17
2.45882e-17
3.01934e-17
3.70065e-17
4.5271e-17
5.5276e-17
6.73637e-17
8.1938e-17
9.94744e-17
1.20532e-16
1.45766e-16
1.75942e-16
2.11954e-16
2.54841e-16
3.05808e-16
3.66251e-16
4.37781e-16
5.22253e-16
6.21797e-16
7.38851e-16
8.76202e-16
1.03702e-15
1.22491e-15
1.44395e-15
1.69876e-15
1.99451e-15
2.33703e-15
2.73284e-15
3.18922e-15
3.71425e-15
4.3169e-15
5.00709e-15
5.79572e-15
6.69478e-15
7.71737e-15
8.87776e-15
1.01915e-14
1.16752e-14
1.33471e-14
1.52265e-14
1.7334e-14
1.96917e-14
2.23227e-14
2.52517e-14
2.85043e-14
3.2107e-14
3.60877e-14
4.04747e-14
4.5297e-14
5.05841e-14
5.63654e-14
6.26703e-14
6.95278e-14
7.69658e-14
8.50112e-14
9.36892e-14
1.03023e-13
1.13032e-13
1.23735e-13
1.35146e-13
1.47273e-13
1.60122e-13
1.73692e-13
1.87978e-13
2.02967e-13
2.18641e-13
2.34972e-13
2.51928e-13
2.69466e-13
2.87538e-13
3.06086e-13
3.25043e-13
3.44335e-13
3.6388e-13
3.83587e-13
4.0336e-13
4.23092e-13
4.42675e-13
4.61992e-13
4.80923e-13
4.99343e-13
5.17128e-13
5.3415e-13
5.50283e-13
5.65402e-13
5.79387e-13
5.92121e-13
6.03494e-13
6.13404e-13
6.21759e-13
6.28476e-13
6.33486e-13
6.36733e-13
6.38174e-13
6.37781e-13
6.35544e-13
6.31467e-13
6.25572e-13
6.17896e-13
6.08493e-13
5.97434e-13
5.84804e-13
5.70702e-13
5.55241e-13
5.38546e-13
5.20753e-13
5.02006e-13
4.82456e-13
4.62261e-13
4.41582e-13
4.20581e-13
3.99422e-13
3.78266e-13
3.57271e-13
3.36591e-13
3.16372e-13
2.96754e-13
2.77868e-13
2.59835e-13
2.42764e-13
2.26756e-13
2.11897e-13
1.98263e-13
1.85918e-13
1.74911e-13
1.65282e-13
1.57057e-13
1.50249e-13
1.44861e-13
1.40884e-13
1.38295e-13
1.37064e-13
1.37146e-13
1.38488e-13
1.41027e-13
1.44688e-13
1.49388e-13
1.55032e-13
1.61521e-13
1.68743e-13
1.76582e-13
1.84912e-13
1.93605e-13
2.02525e-13
2.11534e-13
2.20493e-13
2.2926e-13
2.37698e-13
2.45669e-13
2.53044e-13
2.597e-13
2.65521e-13
2.70404e-13
2.74259e-13
2.7701e-13
2.78598e-13
2.78978e-13
2.78125e-13
2.76034e-13
2.72717e-13
2.68202e-13
2.62538e-13
2.55788e-13
2.48033e-13
2.39364e-13
2.29886e-13
2.19711e-13
2.08958e-13
1.97752e-13
1.86217e-13
1.74477e-13
1.62653e-13
1.50862e-13
1.39211e-13
1.27799e-13
1.16717e-13
1.0604e-13
9.58365e-14
8.61585e-14
7.70477e-14
6.85336e-14
6.06341e-14
5.33566e-14
4.66986e-14
4.06494e-14
3.51905e-14
3.02977e-14
2.59414e-14
2.20885e-14
1.87034e-14
1.57486e-14
1.31864e-14
1.09789e-14
9.08939e-15
7.48243e-15
6.12455e-15
4.98451e-15
4.03346e-15
3.24515e-15
2.59588e-15
2.06452e-15
1.63243e-15
1.28328e-15
1.00294e-15
7.79277e-16
6.01953e-16
4.62257e-16
3.52898e-16
2.67828e-16
2.02068e-16
1.51555e-16
1.12999e-16
8.37529e-17
6.17089e-17
4.51974e-17
3.29075e-17
2.38171e-17
1.71354e-17
1.22549e-17
8.71225e-18
6.15684e-18
4.32504e-18
3.02011e-18
2.09629e-18
1.4463e-18
9.91758e-19
6.75738e-19
4.57187e-19
3.06649e-19
2.03074e-19
1.31437e-19
8.09547e-20
4.37483e-20
1.38117e-20
6.04941e-20
1.84718e-19
3.18844e-19
4.70096e-19
6.46619e-19
8.57878e-19
1.11509e-18
1.43173e-18
1.82408e-18
2.31195e-18
2.91946e-18
3.67605e-18
4.61763e-18
5.78801e-18
7.24059e-18
9.04032e-18
1.12662e-17
1.40138e-17
1.73991e-17
2.1562e-17
2.66711e-17
3.29291e-17
4.05793e-17
4.99127e-17
6.1277e-17
7.50865e-17
9.18335e-17
1.12102e-16
1.36582e-16
1.6609e-16
2.01584e-16
2.44192e-16
2.95234e-16
3.56254e-16
4.29049e-16
5.1571e-16
6.18663e-16
7.40714e-16
8.85098e-16
1.05554e-15
1.25631e-15
1.4923e-15
1.7691e-15
2.09305e-15
2.47136e-15
2.9122e-15
3.42476e-15
4.01941e-15
4.70776e-15
5.50279e-15
6.419e-15
7.47246e-15
8.68099e-15
1.00643e-14
1.16439e-14
1.34437e-14
1.54895e-14
1.78096e-14
2.04344e-14
2.33971e-14
2.67331e-14
3.04805e-14
3.46798e-14
3.93741e-14
4.46088e-14
5.04317e-14
5.68927e-14
6.40437e-14
7.19382e-14
8.06311e-14
9.01783e-14
1.00636e-13
1.12062e-13
1.2451e-13
1.38036e-13
1.52693e-13
1.68532e-13
1.85598e-13
2.03934e-13
2.23577e-13
2.44558e-13
2.669e-13
2.90619e-13
3.15719e-13
3.42197e-13
3.70036e-13
3.99208e-13
4.29671e-13
4.61371e-13
4.94237e-13
5.28184e-13
5.63111e-13
5.98902e-13
6.35424e-13
6.72531e-13
7.10058e-13
7.47828e-13
7.8565e-13
8.2332e-13
8.60623e-13
8.97335e-13
9.33223e-13
9.68049e-13
1.00157e-12
1.03355e-12
1.06375e-12
1.09193e-12
1.11786e-12
1.14132e-12
1.16212e-12
1.18006e-12
1.19497e-12
1.20671e-12
1.21515e-12
1.22019e-12
1.22177e-12
1.21983e-12
1.21438e-12
1.20542e-12
1.19302e-12
1.17725e-12
1.15822e-12
1.13608e-12
1.111e-12
1.08318e-12
1.05284e-12
1.02022e-12
9.85586e-13
9.49215e-13
9.11399e-13
8.72438e-13
8.32639e-13
7.9231e-13
7.5176e-13
7.11291e-13
6.712e-13
6.31774e-13
5.93285e-13
5.55993e-13
5.20137e-13
4.85939e-13
4.53602e-13
4.23305e-13
3.95205e-13
3.69437e-13
3.46113e-13
3.2532e-13
3.07124e-13
2.91566e-13
2.78666e-13
2.68422e-13
2.60809e-13
2.55783e-13
2.53278e-13
2.53208e-13
2.55471e-13
2.59942e-13
2.6648e-13
2.74927e-13
2.85108e-13
2.96833e-13
3.09897e-13
3.24081e-13
3.39156e-13
3.54882e-13
3.7101e-13
3.87288e-13
4.0346e-13
4.19268e-13
4.34459e-13
4.48788e-13
4.62015e-13
4.7392e-13
4.84294e-13
4.92953e-13
4.99733e-13
5.045e-13
5.07147e-13
5.07599e-13
5.05814e-13
5.01781e-13
4.95527e-13
4.87108e-13
4.76614e-13
4.64163e-13
4.49901e-13
4.33998e-13
4.16644e-13
3.98045e-13
3.78417e-13
3.57985e-13
3.36977e-13
3.15617e-13
2.94123e-13
2.72704e-13
2.51556e-13
2.30858e-13
2.10768e-13
1.91427e-13
1.72951e-13
1.55438e-13
1.38959e-13
1.23567e-13
1.09293e-13
9.61482e-14
8.41277e-14
7.32105e-14
6.33626e-14
5.4539e-14
4.66858e-14
3.97425e-14
3.3644e-14
2.83226e-14
2.37095e-14
1.97363e-14
1.63362e-14
1.34454e-14
1.10033e-14
8.95348e-15
7.24387e-15
5.82711e-15
4.66049e-15
3.70595e-15
2.92987e-15
2.30289e-15
1.79957e-15
1.39806e-15
1.0798e-15
8.29108e-16
6.32889e-16
4.80271e-16
3.62314e-16
2.71717e-16
2.02572e-16
1.50131e-16
1.10607e-16
8.1006e-17
5.89751e-17
4.26812e-17
3.07055e-17
2.19588e-17
1.56103e-17
1.10311e-17
7.74882e-18
5.41072e-18
3.75554e-18
2.59103e-18
1.77669e-18
1.21054e-18
8.19014e-19
5.49335e-19
3.6379e-19
2.3546e-19
1.45027e-19
7.83741e-20
2.47438e-20
1.11373e-19
3.40068e-19
5.86958e-19
8.65317e-19
1.19011e-18
1.57871e-18
2.05172e-18
2.63385e-18
3.35498e-18
4.25145e-18
5.36747e-18
6.75699e-18
8.48582e-18
1.06342e-17
1.32999e-17
1.66017e-17
2.06842e-17
2.57225e-17
3.19282e-17
3.95571e-17
4.89172e-17
6.03788e-17
7.43858e-17
9.14693e-17
1.12263e-16
1.37523e-16
1.68146e-16
2.05194e-16
2.49926e-16
3.03823e-16
3.68632e-16
4.46399e-16
5.39522e-16
6.50802e-16
7.835e-16
9.41407e-16
1.12892e-15
1.3511e-15
1.61383e-15
1.92381e-15
2.28877e-15
2.71754e-15
3.22017e-15
3.80811e-15
4.49433e-15
5.29349e-15
6.22213e-15
7.29883e-15
8.54441e-15
9.98211e-15
1.16378e-14
1.35403e-14
1.57213e-14
1.82158e-14
2.10624e-14
2.43031e-14
2.7984e-14
3.21549e-14
3.68699e-14
4.21872e-14
4.81694e-14
5.48833e-14
6.24e-14
7.07949e-14
8.01472e-14
9.05402e-14
1.0206e-13
1.14798e-13
1.28844e-13
1.44295e-13
1.61245e-13
1.79791e-13
2.00028e-13
2.22051e-13
2.45952e-13
2.71819e-13
2.99734e-13
3.29774e-13
3.62006e-13
3.96487e-13
4.33264e-13
4.72371e-13
5.13825e-13
5.57627e-13
6.03759e-13
6.52185e-13
7.02846e-13
7.55659e-13
8.10518e-13
8.67291e-13
9.25822e-13
9.85925e-13
1.04739e-12
1.10998e-12
1.17343e-12
1.23745e-12
1.30173e-12
1.36594e-12
1.42972e-12
1.49269e-12
1.55447e-12
1.61466e-12
1.67286e-12
1.72865e-12
1.78163e-12
1.8314e-12
1.87756e-12
1.91973e-12
1.95756e-12
1.99072e-12
2.01889e-12
2.04182e-12
2.05926e-12
2.07103e-12
2.07699e-12
2.07703e-12
2.0711e-12
2.05923e-12
2.04145e-12
2.01788e-12
1.98868e-12
1.95407e-12
1.9143e-12
1.86969e-12
1.82058e-12
1.76737e-12
1.71048e-12
1.65035e-12
1.58748e-12
1.52235e-12
1.45548e-12
1.38738e-12
1.31856e-12
1.24955e-12
1.18085e-12
1.11294e-12
1.0463e-12
9.81364e-13
9.18565e-13
8.58286e-13
8.00883e-13
7.46678e-13
6.95954e-13
6.48957e-13
6.05894e-13
5.66934e-13
5.32207e-13
5.01804e-13
4.75781e-13
4.54153e-13
4.36903e-13
4.23978e-13
4.1529e-13
4.10722e-13
4.10123e-13
4.13311e-13
4.20077e-13
4.30182e-13
4.43363e-13
4.59327e-13
4.77763e-13
4.98332e-13
5.2068e-13
5.44431e-13
5.692e-13
5.94585e-13
6.20179e-13
6.45573e-13
6.70356e-13
6.94126e-13
7.16491e-13
7.37077e-13
7.55532e-13
7.71531e-13
7.84785e-13
7.9504e-13
8.02089e-13
8.05768e-13
8.05965e-13
8.02619e-13
7.95722e-13
7.8532e-13
7.71509e-13
7.54438e-13
7.34298e-13
7.11326e-13
6.85794e-13
6.58005e-13
6.28287e-13
5.96986e-13
5.64456e-13
5.31056e-13
4.97141e-13
4.63055e-13
4.29126e-13
3.95659e-13
3.62933e-13
3.31199e-13
3.00671e-13
2.71534e-13
2.43934e-13
2.17982e-13
1.93758e-13
1.71307e-13
1.50646e-13
1.31762e-13
1.14621e-13
9.91671e-14
8.53277e-14
7.30164e-14
6.21366e-14
5.2585e-14
4.4254e-14
3.70348e-14
3.08195e-14
2.55029e-14
2.09843e-14
1.71684e-14
1.39665e-14
1.12969e-14
9.0853e-15
7.26472e-15
5.77552e-15
4.56509e-15
3.58746e-15
2.80284e-15
2.17709e-15
1.68119e-15
1.29067e-15
9.85057e-16
7.47405e-16
5.63757e-16
4.22733e-16
3.15119e-16
2.33514e-16
1.7202e-16
1.25971e-16
9.17023e-17
6.63606e-17
4.77371e-17
3.41363e-17
2.42656e-17
1.71465e-17
1.2044e-17
8.4095e-18
5.83676e-18
4.02678e-18
2.76113e-18
1.88126e-18
1.27279e-18
8.53696e-19
5.65352e-19
3.65923e-19
2.25385e-19
1.21803e-19
3.84554e-20
1.98515e-19
6.06123e-19
1.0461e-18
1.54205e-18
2.12057e-18
2.81255e-18
3.6546e-18
4.69059e-18
5.97361e-18
7.5681e-18
9.55254e-18
1.20226e-17
1.5095e-17
1.89119e-17
2.36465e-17
2.95094e-17
3.67562e-17
4.56968e-17
5.67058e-17
7.02354e-17
8.68299e-17
1.07143e-16
1.3196e-16
1.62216e-16
1.99032e-16
2.43737e-16
2.97914e-16
3.63434e-16
4.4251e-16
5.37752e-16
6.52226e-16
7.89531e-16
9.53878e-16
1.15018e-15
1.38415e-15
1.66245e-15
1.99275e-15
2.38394e-15
2.84625e-15
3.39144e-15
4.03297e-15
4.78623e-15
5.66874e-15
6.70041e-15
7.9038e-15
9.30436e-15
1.09308e-14
1.28152e-14
1.49937e-14
1.75065e-14
2.03982e-14
2.37183e-14
2.75215e-14
3.18681e-14
3.6824e-14
4.24615e-14
4.8859e-14
5.61018e-14
6.4282e-14
7.34986e-14
8.38577e-14
9.54724e-14
1.08463e-13
1.22956e-13
1.39085e-13
1.56988e-13
1.76812e-13
1.98704e-13
2.22819e-13
2.49312e-13
2.7834e-13
3.1006e-13
3.44629e-13
3.82199e-13
4.22915e-13
4.66919e-13
5.1434e-13
5.65293e-13
6.19883e-13
6.78192e-13
7.40285e-13
8.06203e-13
8.7596e-13
9.49541e-13
1.0269e-12
1.10796e-12
1.19259e-12
1.28066e-12
1.37195e-12
1.46623e-12
1.56322e-12
1.6626e-12
1.764e-12
1.867e-12
1.97115e-12
2.07596e-12
2.18091e-12
2.28542e-12
2.3889e-12
2.49074e-12
2.59029e-12
2.68689e-12
2.77989e-12
2.86861e-12
2.9524e-12
3.03061e-12
3.10261e-12
3.16781e-12
3.22564e-12
3.2756e-12
3.31721e-12
3.35007e-12
3.37384e-12
3.38824e-12
3.39309e-12
3.38826e-12
3.37373e-12
3.34954e-12
3.31583e-12
3.27281e-12
3.22081e-12
3.16019e-12
3.09143e-12
3.01504e-12
2.93164e-12
2.84188e-12
2.74646e-12
2.64615e-12
2.54172e-12
2.43398e-12
2.32377e-12
2.21191e-12
2.09924e-12
1.98657e-12
1.87471e-12
1.76442e-12
1.65644e-12
1.55147e-12
1.45015e-12
1.35308e-12
1.26081e-12
1.17381e-12
1.09251e-12
1.01728e-12
9.48402e-13
8.86126e-13
8.30624e-13
7.82014e-13
7.40353e-13
7.05641e-13
6.77824e-13
6.56794e-13
6.42392e-13
6.34411e-13
6.32595e-13
6.36644e-13
6.46215e-13
6.60924e-13
6.80345e-13
7.0402e-13
7.31454e-13
7.62119e-13
7.95463e-13
8.30906e-13
8.67851e-13
9.05685e-13
9.43785e-13
9.81527e-13
1.01829e-12
1.05347e-12
1.08647e-12
1.11673e-12
1.14373e-12
1.16698e-12
1.18606e-12
1.20059e-12
1.21028e-12
1.21488e-12
1.21425e-12
1.20829e-12
1.19702e-12
1.1805e-12
1.15891e-12
1.13246e-12
1.10146e-12
1.06627e-12
1.0273e-12
9.8502e-13
9.39919e-13
8.9252e-13
8.43355e-13
7.92962e-13
7.41871e-13
6.90595e-13
6.3962e-13
5.89399e-13
5.40347e-13
4.92829e-13
4.47164e-13
4.03618e-13
3.62406e-13
3.23688e-13
2.87576e-13
2.54133e-13
2.23377e-13
1.95287e-13
1.69807e-13
1.46849e-13
1.26303e-13
1.08035e-13
9.19008e-14
7.77438e-14
6.54024e-14
5.47134e-14
4.55152e-14
3.76507e-14
3.09694e-14
2.53297e-14
2.05994e-14
1.6657e-14
1.33922e-14
1.07057e-14
8.50886e-15
6.72387e-15
5.28265e-15
4.12631e-15
3.20438e-15
2.47396e-15
1.8989e-15
1.44899e-15
1.09921e-15
8.28978e-16
6.21509e-16
4.63223e-16
3.43215e-16
2.52799e-16
1.85102e-16
1.34733e-16
9.74892e-17
7.01231e-17
5.014e-17
3.56388e-17
2.51813e-17
1.76867e-17
1.23488e-17
8.57051e-18
5.91259e-18
4.05411e-18
2.76216e-18
1.86876e-18
1.25342e-18
8.30071e-19
5.37267e-19
3.30928e-19
1.78843e-19
5.64647e-20
3.48906e-19
1.06527e-18
1.83841e-18
2.7097e-18
3.72579e-18
4.94081e-18
6.41886e-18
8.23682e-18
1.04876e-17
1.32839e-17
1.67632e-17
2.10926e-17
2.64762e-17
3.31624e-17
4.14537e-17
5.17178e-17
6.44011e-17
8.00439e-17
9.92996e-17
1.22956e-16
1.51963e-16
1.87458e-16
2.30806e-16
2.83638e-16
3.479e-16
4.25905e-16
5.204e-16
6.34635e-16
7.7245e-16
9.3837e-16
1.13771e-15
1.3767e-15
1.66264e-15
2.00401e-15
2.4107e-15
2.89418e-15
3.46774e-15
4.14667e-15
4.94861e-15
5.8938e-15
7.00538e-15
8.3098e-15
9.83713e-15
1.16215e-14
1.37016e-14
1.61209e-14
1.89284e-14
2.21791e-14
2.59344e-14
3.02627e-14
3.524e-14
4.09502e-14
4.74862e-14
5.49498e-14
6.34525e-14
7.31162e-14
8.4073e-14
9.64662e-14
1.1045e-13
1.26191e-13
1.43865e-13
1.63661e-13
1.85779e-13
2.10428e-13
2.3783e-13
2.68213e-13
3.01814e-13
3.38879e-13
3.79655e-13
4.24397e-13
4.73357e-13
5.26788e-13
5.84938e-13
6.48048e-13
7.16348e-13
7.90053e-13
8.69362e-13
9.54449e-13
1.04546e-12
1.14252e-12
1.24571e-12
1.35506e-12
1.47058e-12
1.59221e-12
1.71985e-12
1.85333e-12
1.99244e-12
2.13687e-12
2.28629e-12
2.44026e-12
2.5983e-12
2.75984e-12
2.92425e-12
3.09084e-12
3.25884e-12
3.42742e-12
3.59571e-12
3.76277e-12
3.92762e-12
4.08925e-12
4.24662e-12
4.39866e-12
4.54432e-12
4.68253e-12
4.81225e-12
4.93246e-12
5.04218e-12
5.14049e-12
5.22654e-12
5.29954e-12
5.35879e-12
5.40372e-12
5.43384e-12
5.44878e-12
5.44829e-12
5.43227e-12
5.40074e-12
5.35384e-12
5.29188e-12
5.21527e-12
5.12458e-12
5.02046e-12
4.90373e-12
4.77529e-12
4.63614e-12
4.48736e-12
4.33012e-12
4.16564e-12
3.99519e-12
3.82007e-12
3.6416e-12
3.46109e-12
3.27985e-12
3.09915e-12
2.92025e-12
2.74433e-12
2.57252e-12
2.40587e-12
2.24538e-12
2.09192e-12
1.9463e-12
1.80924e-12
1.68135e-12
1.56314e-12
1.45503e-12
1.35733e-12
1.27029e-12
1.19402e-12
1.12857e-12
1.0739e-12
1.02987e-12
9.96295e-13
9.72879e-13
9.59272e-13
9.55049e-13
9.59724e-13
9.72744e-13
9.93502e-13
1.02133e-12
1.05552e-12
1.0953e-12
1.13987e-12
1.18838e-12
1.23996e-12
1.2937e-12
1.34868e-12
1.40398e-12
1.45866e-12
1.51181e-12
1.56252e-12
1.60994e-12
1.65324e-12
1.69166e-12
1.72449e-12
1.75112e-12
1.77102e-12
1.78377e-12
1.78903e-12
1.78659e-12
1.77635e-12
1.75834e-12
1.73269e-12
1.69964e-12
1.65956e-12
1.61289e-12
1.56018e-12
1.50204e-12
1.43917e-12
1.37229e-12
1.30216e-12
1.22958e-12
1.15532e-12
1.08016e-12
1.00484e-12
9.30069e-13
8.56502e-13
7.84734e-13
7.1529e-13
6.48626e-13
5.85122e-13
5.25077e-13
4.6872e-13
4.16201e-13
3.67604e-13
3.22948e-13
2.82195e-13
2.45254e-13
2.11994e-13
1.82247e-13
1.55817e-13
1.32488e-13
1.12031e-13
9.42073e-14
7.87787e-14
6.5509e-14
5.41691e-14
4.45402e-14
3.64162e-14
2.96053e-14
2.39315e-14
1.92347e-14
1.53714e-14
1.22136e-14
9.64867e-15
7.57847e-15
5.91805e-15
4.59466e-15
3.54649e-15
2.7215e-15
2.07625e-15
1.57474e-15
1.18737e-15
8.90045e-16
6.63255e-16
4.91347e-16
3.61852e-16
2.64916e-16
1.92803e-16
1.39491e-16
1.00324e-16
7.17273e-17
5.09784e-17
3.60169e-17
2.52956e-17
1.76603e-17
1.22563e-17
8.45498e-18
5.79718e-18
3.94966e-18
2.67214e-18
1.79227e-18
1.18692e-18
7.68251e-19
4.7321e-19
2.5574e-19
8.07439e-20
6.07943e-19
1.85609e-18
3.20294e-18
4.72045e-18
6.48968e-18
8.60467e-18
1.11767e-17
1.43394e-17
1.82538e-17
2.31156e-17
2.91631e-17
3.66861e-17
4.60381e-17
5.76497e-17
7.20447e-17
8.98595e-17
1.11866e-16
1.39e-16
1.7239e-16
2.13399e-16
2.63665e-16
3.25154e-16
4.00223e-16
4.91683e-16
6.0289e-16
7.37829e-16
9.01232e-16
1.09869e-15
1.33682e-15
1.62339e-15
1.96754e-15
2.37996e-15
2.87317e-15
3.46173e-15
4.16258e-15
4.99537e-15
5.9828e-15
7.15105e-15
8.53023e-15
1.01549e-14
1.20645e-14
1.4304e-14
1.69247e-14
1.99846e-14
2.35493e-14
2.76926e-14
3.24976e-14
3.80573e-14
4.44754e-14
5.18674e-14
6.03613e-14
7.00986e-14
8.1235e-14
9.39415e-14
1.08405e-13
1.24829e-13
1.43434e-13
1.64459e-13
1.88161e-13
2.14814e-13
2.44711e-13
2.78164e-13
3.15501e-13
3.57066e-13
4.03222e-13
4.54341e-13
5.10809e-13
5.73023e-13
6.41383e-13
7.16296e-13
7.98167e-13
8.87395e-13
9.84371e-13
1.08947e-12
1.20305e-12
1.32544e-12
1.45694e-12
1.59779e-12
1.74822e-12
1.90838e-12
2.07835e-12
2.25818e-12
2.4478e-12
2.6471e-12
2.85584e-12
3.07371e-12
3.30029e-12
3.53508e-12
3.77743e-12
4.02661e-12
4.28178e-12
4.54197e-12
4.80612e-12
5.07305e-12
5.34148e-12
5.61006e-12
5.87733e-12
6.14176e-12
6.40176e-12
6.65569e-12
6.90188e-12
7.13864e-12
7.36428e-12
7.57712e-12
7.77553e-12
7.95792e-12
8.12279e-12
8.26874e-12
8.39448e-12
8.49884e-12
8.58081e-12
8.63956e-12
8.67442e-12
8.68493e-12
8.6708e-12
8.63199e-12
8.56864e-12
8.48111e-12
8.36999e-12
8.23605e-12
8.08028e-12
7.90386e-12
7.70813e-12
7.4946e-12
7.26494e-12
7.02092e-12
6.76443e-12
6.49743e-12
6.22196e-12
5.94006e-12
5.65382e-12
5.3653e-12
5.07653e-12
4.78949e-12
4.50608e-12
4.22811e-12
3.9573e-12
3.69525e-12
3.4434e-12
3.20308e-12
2.97546e-12
2.76157e-12
2.56228e-12
2.37832e-12
2.21023e-12
2.05844e-12
1.92323e-12
1.80471e-12
1.70288e-12
1.61761e-12
1.54863e-12
1.49558e-12
1.45795e-12
1.43516e-12
1.42652e-12
1.43124e-12
1.44845e-12
1.4772e-12
1.51645e-12
1.56511e-12
1.622e-12
1.68591e-12
1.75556e-12
1.82963e-12
1.90678e-12
1.98565e-12
2.06487e-12
2.14305e-12
2.21887e-12
2.29101e-12
2.3582e-12
2.41928e-12
2.47312e-12
2.51875e-12
2.55527e-12
2.58195e-12
2.59818e-12
2.60352e-12
2.59769e-12
2.58057e-12
2.55223e-12
2.51288e-12
2.46291e-12
2.40286e-12
2.33341e-12
2.25536e-12
2.16963e-12
2.07722e-12
1.97919e-12
1.87666e-12
1.77076e-12
1.66263e-12
1.55337e-12
1.44405e-12
1.3357e-12
1.22923e-12
1.12549e-12
1.02524e-12
9.29104e-13
8.37624e-13
7.51217e-13
6.70193e-13
5.94758e-13
5.25018e-13
4.60987e-13
4.02599e-13
3.49714e-13
3.02134e-13
2.5961e-13
2.21854e-13
1.88549e-13
1.59363e-13
1.33949e-13
1.11964e-13
9.30657e-14
7.69246e-14
6.3226e-14
5.16742e-14
4.19943e-14
3.39341e-14
2.72651e-14
2.17817e-14
1.73015e-14
1.3664e-14
1.07292e-14
8.37613e-15
6.50133e-15
5.01693e-15
3.84897e-15
2.93573e-15
2.22612e-15
1.67818e-15
1.25771e-15
9.37065e-16
6.9407e-16
5.11067e-16
3.74101e-16
2.7223e-16
1.96931e-16
1.41619e-16
1.01241e-16
7.19477e-17
5.08278e-17
3.5695e-17
2.49191e-17
1.7293e-17
1.1929e-17
8.17891e-18
5.57223e-18
3.76983e-18
2.5285e-18
1.6745e-18
1.08386e-18
6.67619e-19
3.60812e-19
1.13919e-19
1.05186e-18
3.21128e-18
5.54111e-18
8.16558e-18
1.12246e-17
1.48803e-17
1.93249e-17
2.47882e-17
3.15483e-17
3.99423e-17
5.03802e-17
6.33613e-17
7.94939e-17
9.95187e-17
1.24336e-16
1.55041e-16
1.9296e-16
2.39699e-16
2.97198e-16
3.67793e-16
4.54297e-16
5.60081e-16
6.89182e-16
8.46421e-16
1.03754e-15
1.26936e-15
1.54998e-15
1.88896e-15
2.29758e-15
2.78914e-15
3.37922e-15
4.08606e-15
4.93098e-15
5.93881e-15
7.13836e-15
8.56304e-15
1.02514e-14
1.2248e-14
1.46039e-14
1.73775e-14
2.06358e-14
2.44549e-14
2.89214e-14
3.41333e-14
4.02011e-14
4.72495e-14
5.54181e-14
6.48633e-14
7.57591e-14
8.82993e-14
1.02698e-13
1.19192e-13
1.38041e-13
1.59531e-13
1.83971e-13
2.11701e-13
2.43086e-13
2.78521e-13
3.18429e-13
3.63264e-13
4.13508e-13
4.6967e-13
5.32288e-13
6.01924e-13
6.79165e-13
7.64616e-13
8.58901e-13
9.62655e-13
1.07652e-12
1.20115e-12
1.33717e-12
1.48523e-12
1.64593e-12
1.81984e-12
2.00752e-12
2.20946e-12
2.4261e-12
2.6578e-12
2.90485e-12
3.16746e-12
3.44569e-12
3.73955e-12
4.04886e-12
4.37334e-12
4.71256e-12
5.06593e-12
5.4327e-12
5.81194e-12
6.20255e-12
6.60327e-12
7.01264e-12
7.42906e-12
7.85071e-12
8.27567e-12
8.70181e-12
9.12689e-12
9.54854e-12
9.96429e-12
1.03716e-11
1.07677e-11
1.11501e-11
1.15161e-11
1.18629e-11
1.2188e-11
1.24889e-11
1.2763e-11
1.30082e-11
1.32222e-11
1.34032e-11
1.35495e-11
1.36595e-11
1.37322e-11
1.37667e-11
1.37624e-11
1.37191e-11
1.36367e-11
1.35159e-11
1.33573e-11
1.3162e-11
1.29314e-11
1.26673e-11
1.23716e-11
1.20467e-11
1.16949e-11
1.1319e-11
1.0922e-11
1.05068e-11
1.00765e-11
9.63443e-12
9.18378e-12
8.72779e-12
8.26967e-12
7.81256e-12
7.35948e-12
6.91334e-12
6.47689e-12
6.0527e-12
5.64314e-12
5.25036e-12
4.8763e-12
4.52265e-12
4.19088e-12
3.88222e-12
3.59763e-12
3.33787e-12
3.10346e-12
2.89469e-12
2.71164e-12
2.55419e-12
2.42203e-12
2.31466e-12
2.23143e-12
2.17149e-12
2.13388e-12
2.11748e-12
2.12104e-12
2.14319e-12
2.18244e-12
2.23722e-12
2.30583e-12
2.3865e-12
2.47739e-12
2.5766e-12
2.68216e-12
2.79209e-12
2.90436e-12
3.01696e-12
3.1279e-12
3.23521e-12
3.33699e-12
3.43144e-12
3.51686e-12
3.59166e-12
3.65443e-12
3.70394e-12
3.73915e-12
3.75921e-12
3.76354e-12
3.75177e-12
3.72378e-12
3.67969e-12
3.61987e-12
3.5449e-12
3.45561e-12
3.35299e-12
3.23823e-12
3.11267e-12
2.97777e-12
2.83506e-12
2.68616e-12
2.5327e-12
2.3763e-12
2.21855e-12
2.06097e-12
1.905e-12
1.75196e-12
1.60304e-12
1.45929e-12
1.32161e-12
1.19074e-12
1.06725e-12
9.51566e-13
8.43964e-13
7.44574e-13
6.53399e-13
5.70326e-13
4.95144e-13
4.27555e-13
3.67191e-13
3.13633e-13
2.66423e-13
2.25076e-13
1.89098e-13
1.57991e-13
1.31267e-13
1.08455e-13
8.9106e-14
7.27974e-14
5.91383e-14
4.77703e-14
3.83685e-14
3.06417e-14
2.43313e-14
1.92098e-14
1.50793e-14
1.17689e-14
9.13219e-15
7.04526e-15
5.40375e-15
4.12064e-15
3.12392e-15
2.35449e-15
1.76422e-15
1.31419e-15
9.73231e-16
7.16504e-16
5.24401e-16
3.81547e-16
2.75975e-16
1.98438e-16
1.41844e-16
1.00793e-16
7.11995e-17
4.99976e-17
3.49016e-17
2.42192e-17
1.67061e-17
1.14538e-17
7.80317e-18
5.27907e-18
3.54076e-18
2.34488e-18
1.51779e-18
9.34922e-19
5.05283e-19
1.59535e-19
1.80801e-18
5.51959e-18
9.52348e-18
1.40327e-17
1.92872e-17
2.5565e-17
3.3195e-17
4.25715e-17
5.41702e-17
6.85682e-17
8.64672e-17
1.08721e-16
1.3637e-16
1.70681e-16
2.13192e-16
2.65772e-16
3.30688e-16
4.10679e-16
5.09056e-16
6.29805e-16
7.77717e-16
9.5854e-16
1.17915e-15
1.44775e-15
1.77411e-15
2.16984e-15
2.64869e-15
3.22692e-15
3.92368e-15
4.76153e-15
5.76689e-15
6.9707e-15
8.40906e-15
1.0124e-14
1.21642e-14
1.45863e-14
1.74552e-14
2.08462e-14
2.48453e-14
2.95512e-14
3.50764e-14
4.1549e-14
4.91144e-14
5.79371e-14
6.82027e-14
8.01195e-14
9.39216e-14
1.0987e-13
1.28255e-13
1.494e-13
1.73661e-13
2.01432e-13
2.33145e-13
2.6927e-13
3.10323e-13
3.56862e-13
4.0949e-13
4.68857e-13
5.35658e-13
6.10635e-13
6.94576e-13
7.88313e-13
8.92718e-13
1.0087e-12
1.13722e-12
1.27923e-12
1.43576e-12
1.6078e-12
1.79638e-12
2.00253e-12
2.22726e-12
2.47154e-12
2.73632e-12
3.02249e-12
3.33088e-12
3.66223e-12
4.01716e-12
4.3962e-12
4.79971e-12
5.22793e-12
5.68089e-12
6.15845e-12
6.66026e-12
7.18572e-12
7.73401e-12
8.30407e-12
8.89454e-12
9.50382e-12
1.013e-11
1.0771e-11
1.14242e-11
1.20871e-11
1.27566e-11
1.34295e-11
1.41023e-11
1.47714e-11
1.5433e-11
1.6083e-11
1.67173e-11
1.73318e-11
1.79223e-11
1.84845e-11
1.90142e-11
1.95074e-11
1.99602e-11
2.03688e-11
2.07299e-11
2.10402e-11
2.12969e-11
2.14975e-11
2.16401e-11
2.17229e-11
2.1745e-11
2.17056e-11
2.16047e-11
2.14428e-11
2.12208e-11
2.094e-11
2.06027e-11
2.02111e-11
1.97683e-11
1.92775e-11
1.87427e-11
1.81677e-11
1.75571e-11
1.69155e-11
1.62477e-11
1.55587e-11
1.48535e-11
1.41373e-11
1.3415e-11
1.26915e-11
1.19718e-11
1.12604e-11
1.05617e-11
9.87984e-12
9.21868e-12
8.58171e-12
7.97209e-12
7.39263e-12
6.84577e-12
6.33357e-12
5.85771e-12
5.41951e-12
5.01994e-12
4.65959e-12
4.33873e-12
4.05733e-12
3.81504e-12
3.61122e-12
3.44497e-12
3.31516e-12
3.2204e-12
3.1591e-12
3.12948e-12
3.12957e-12
3.15724e-12
3.21017e-12
3.28596e-12
3.38203e-12
3.49571e-12
3.62425e-12
3.76478e-12
3.91442e-12
4.07021e-12
4.2292e-12
4.38844e-12
4.54503e-12
4.69612e-12
4.83898e-12
4.97101e-12
5.08978e-12
5.19304e-12
5.2788e-12
5.34532e-12
5.39115e-12
5.41516e-12
5.41653e-12
5.39481e-12
5.34989e-12
5.28199e-12
5.1917e-12
5.07993e-12
4.94787e-12
4.79702e-12
4.62912e-12
4.44612e-12
4.2501e-12
4.04332e-12
3.82807e-12
3.60669e-12
3.38149e-12
3.15474e-12
2.9286e-12
2.70509e-12
2.48608e-12
2.27324e-12
2.06804e-12
1.87172e-12
1.68531e-12
1.5096e-12
1.34515e-12
1.19234e-12
1.05132e-12
9.22058e-13
8.04385e-13
6.97972e-13
6.02379e-13
5.17069e-13
4.4143e-13
3.748e-13
3.16484e-13
2.65772e-13
2.21953e-13
1.84331e-13
1.52233e-13
1.25023e-13
1.021e-13
8.29116e-14
6.69491e-14
5.37537e-14
4.29139e-14
3.4065e-14
2.68862e-14
2.10987e-14
1.6462e-14
1.27703e-14
9.84939e-15
7.55263e-15
5.75789e-15
4.36415e-15
3.28854e-15
2.4636e-15
1.83482e-15
1.35854e-15
1e-15
7.31777e-16
5.32354e-16
3.85002e-16
2.768e-16
1.97836e-16
1.40566e-16
9.92857e-17
6.97148e-17
4.86622e-17
3.3766e-17
2.32903e-17
1.59673e-17
1.08778e-17
7.35905e-18
4.9358e-18
3.26876e-18
2.11582e-18
1.30331e-18
7.04392e-19
2.22403e-19
3.08787e-18
9.42648e-18
1.62633e-17
2.39614e-17
3.29295e-17
4.36412e-17
5.66567e-17
7.26467e-17
9.24209e-17
1.16961e-16
1.4746e-16
1.85369e-16
2.32457e-16
2.90874e-16
3.63233e-16
4.52708e-16
5.63142e-16
6.99186e-16
8.66449e-16
1.07169e-15
1.32302e-15
1.63019e-15
2.00481e-15
2.46079e-15
3.01464e-15
3.68599e-15
4.49806e-15
5.47831e-15
6.65907e-15
8.07838e-15
9.7808e-15
1.18184e-14
1.42521e-14
1.71524e-14
2.06014e-14
2.4694e-14
2.95395e-14
3.52639e-14
4.20116e-14
4.99478e-14
5.92608e-14
7.01648e-14
8.29027e-14
9.77491e-14
1.15013e-13
1.35042e-13
1.58225e-13
1.84995e-13
2.15836e-13
2.51281e-13
2.91922e-13
3.38408e-13
3.91452e-13
4.5183e-13
5.20391e-13
5.98049e-13
6.85795e-13
7.8469e-13
8.95871e-13
1.02055e-12
1.15999e-12
1.31556e-12
1.48867e-12
1.68078e-12
1.89342e-12
2.12814e-12
2.38655e-12
2.67026e-12
2.98089e-12
3.32004e-12
3.6893e-12
4.09017e-12
4.52413e-12
4.99251e-12
5.49656e-12
6.03736e-12
6.61581e-12
7.23262e-12
7.88826e-12
8.58292e-12
9.31653e-12
1.00887e-11
1.08986e-11
1.17452e-11
1.26269e-11
1.35419e-11
1.44877e-11
1.54617e-11
1.64605e-11
1.74806e-11
1.85179e-11
1.95678e-11
2.06254e-11
2.16856e-11
2.27426e-11
2.37905e-11
2.48232e-11
2.58343e-11
2.68172e-11
2.77653e-11
2.8672e-11
2.95306e-11
3.03348e-11
3.10782e-11
3.17549e-11
3.23592e-11
3.2886e-11
3.33306e-11
3.36888e-11
3.39571e-11
3.41327e-11
3.42135e-11
3.41983e-11
3.40864e-11
3.38782e-11
3.35747e-11
3.3178e-11
3.26907e-11
3.21164e-11
3.14593e-11
3.07243e-11
2.99171e-11
2.90437e-11
2.81109e-11
2.71257e-11
2.60955e-11
2.5028e-11
2.3931e-11
2.28124e-11
2.168e-11
2.05417e-11
1.9405e-11
1.82773e-11
1.71656e-11
1.60764e-11
1.50161e-11
1.39901e-11
1.30038e-11
1.20617e-11
1.11679e-11
1.03258e-11
9.53831e-12
8.80771e-12
8.13573e-12
7.52356e-12
6.97186e-12
6.48076e-12
6.04994e-12