/*--------------------------------*- C++ -*----------------------------------*\
| =========                 |                                                 |
| \\      /  F ield         | OpenFOAM: The Open Source CFD Toolbox           |
|  \\    /   O peration     | Version:  v2012                                 |
|   \\  /    A nd           | Website:  www.openfoam.com                      |
|    \\/     M anipulation  |                                                 |
\*---------------------------------------------------------------------------*/
FoamFile
{
    version     2.0;
    format      ascii;
    class       surfaceScalarField;
    location    "15.4";
    object      phi;
}
// * * * * * * * * * * * * * * * * * * * * * * * * * * * * * * * * * * * * * //

dimensions      [0 3 -1 0 0 0 0];
oriented        oriented;


internalField   nonuniform List<scalar> 
130560
(
3.38918e-06
-3.38918e-06
6.77855e-06
-3.38938e-06
1.01683e-05
-3.38977e-06
1.35587e-05
-3.39035e-06
1.69498e-05
-3.39112e-06
2.03419e-05
-3.39208e-06
2.37351e-05
-3.39323e-06
2.71297e-05
-3.39456e-06
3.05257e-05
-3.39608e-06
3.39235e-05
-3.39777e-06
3.73231e-05
-3.39963e-06
4.07248e-05
-3.40166e-06
4.41287e-05
-3.40386e-06
4.75349e-05
-3.40621e-06
5.09436e-05
-3.40871e-06
5.43549e-05
-3.41136e-06
5.77691e-05
-3.41414e-06
6.11861e-05
-3.41704e-06
6.46062e-05
-3.42007e-06
6.80294e-05
-3.4232e-06
7.14558e-05
-3.42644e-06
7.48856e-05
-3.42976e-06
7.83187e-05
-3.43317e-06
8.17554e-05
-3.43664e-06
8.51955e-05
-3.44016e-06
8.86393e-05
-3.44372e-06
9.20866e-05
-3.44732e-06
9.55375e-05
-3.45092e-06
9.8992e-05
-3.45453e-06
0.00010245
-3.45812e-06
0.000105912
-3.46168e-06
0.000109377
-3.46518e-06
0.000112846
-3.46862e-06
0.000116318
-3.47197e-06
0.000119793
-3.47522e-06
0.000123271
-3.47834e-06
0.000126753
-3.48132e-06
0.000130237
-3.48413e-06
0.000133723
-3.48675e-06
0.000137213
-3.48916e-06
0.000140704
-3.49134e-06
0.000144197
-3.49325e-06
0.000147692
-3.49488e-06
0.000151188
-3.49619e-06
0.000154685
-3.49717e-06
0.000158183
-3.49779e-06
0.000161681
-3.49801e-06
0.000165179
-3.4978e-06
0.000168676
-3.49715e-06
0.000172172
-3.49601e-06
0.000175666
-3.49436e-06
0.000179159
-3.49216e-06
0.000182648
-3.48939e-06
0.000186134
-3.486e-06
0.000189616
-3.48197e-06
0.000193093
-3.47727e-06
0.000196565
-3.47185e-06
0.000200031
-3.46568e-06
0.00020349
-3.45873e-06
0.00020694
-3.45096e-06
0.000210383
-3.44234e-06
0.000213816
-3.43282e-06
0.000217238
-3.42238e-06
0.000220649
-3.41097e-06
0.000224048
-3.39856e-06
0.000227433
-3.38511e-06
0.000230803
-3.37059e-06
0.000234158
-3.35496e-06
0.000237496
-3.33818e-06
0.000240817
-3.32022e-06
0.000244118
-3.30105e-06
0.000247398
-3.28062e-06
0.000250657
-3.2589e-06
0.000253893
-3.23587e-06
0.000257105
-3.21148e-06
0.00026029
-3.18572e-06
0.000263449
-3.15854e-06
0.000266579
-3.12991e-06
0.000269679
-3.09982e-06
0.000272747
-3.06824e-06
0.000275782
-3.03514e-06
0.000278782
-3.00049e-06
0.000281747
-2.96428e-06
0.000284673
-2.92649e-06
0.00028756
-2.88709e-06
0.000290406
-2.84609e-06
0.00029321
-2.80346e-06
0.000295969
-2.75919e-06
0.000298682
-2.71327e-06
0.000301348
-2.66571e-06
0.000303964
-2.61649e-06
0.00030653
-2.56562e-06
0.000309043
-2.51311e-06
0.000311502
-2.45895e-06
0.000313905
-2.40316e-06
0.000316251
-2.34574e-06
0.000318538
-2.28673e-06
0.000320764
-2.22612e-06
0.000322928
-2.16395e-06
0.000325028
-2.10023e-06
0.000327063
-2.035e-06
0.000329031
-1.96829e-06
0.000330931
-1.90013e-06
0.000332762
-1.83056e-06
0.000334522
-1.75962e-06
0.000336209
-1.68735e-06
0.000337823
-1.6138e-06
0.000339362
-1.53902e-06
0.000340825
-1.46306e-06
0.000342211
-1.38598e-06
0.000343519
-1.30783e-06
0.000344747
-1.22867e-06
0.000345896
-1.14857e-06
0.000346964
-1.06759e-06
0.000347949
-9.85796e-07
0.000348853
-9.03258e-07
0.000349673
-8.20046e-07
0.000350409
-7.36232e-07
0.000351061
-6.51889e-07
0.000351628
-5.67092e-07
0.00035211
-4.81916e-07
0.000352506
-3.96437e-07
0.000352817
-3.10732e-07
0.000353042
-2.24878e-07
0.000353181
-1.38952e-07
0.000353234
-5.30326e-08
0.000353201
3.28043e-08
0.000353083
1.18482e-07
0.000352879
2.03924e-07
0.00035259
2.89055e-07
0.000352216
3.73802e-07
0.000351758
4.58091e-07
0.000351216
5.41851e-07
0.000350591
6.25011e-07
0.000349883
7.07505e-07
0.000349094
7.89264e-07
0.000348224
8.70226e-07
0.000347273
9.50327e-07
0.000346244
1.02951e-06
0.000345136
1.10771e-06
0.000343951
1.18488e-06
0.00034269
1.26097e-06
0.000341354
1.33592e-06
0.000339945
1.40969e-06
0.000338463
1.48223e-06
0.000336909
1.55351e-06
0.000335286
1.62348e-06
0.000333593
1.69211e-06
0.000331834
1.75936e-06
0.000330009
1.82522e-06
0.000328119
1.88964e-06
0.000326167
1.95261e-06
0.000324153
2.0141e-06
0.000322078
2.0741e-06
0.000319946
2.13259e-06
0.000317756
2.18956e-06
0.000315511
2.245e-06
0.000313212
2.2989e-06
0.000310861
2.35126e-06
0.000308459
2.40207e-06
0.000306008
2.45134e-06
0.000303509
2.49907e-06
0.000300963
2.54526e-06
0.000298373
2.58992e-06
0.00029574
2.63306e-06
0.000293066
2.67469e-06
0.000290351
2.71482e-06
0.000287597
2.75347e-06
0.000284807
2.79065e-06
0.00028198
2.82638e-06
0.00027912
2.86069e-06
0.000276226
2.89359e-06
0.000273301
2.9251e-06
0.000270346
2.95525e-06
0.000267362
2.98406e-06
0.00026435
3.01156e-06
0.000261312
3.03777e-06
0.00025825
3.06272e-06
0.000255163
3.08644e-06
0.000252054
3.10895e-06
0.000248924
3.13029e-06
0.000245774
3.15049e-06
0.000242604
3.16957e-06
0.000239416
3.18756e-06
0.000236212
3.2045e-06
0.000232991
3.22041e-06
0.000229756
3.23533e-06
0.000226507
3.24929e-06
0.000223245
3.26231e-06
0.00021997
3.27444e-06
0.000216684
3.28569e-06
0.000213388
3.29611e-06
0.000210083
3.30571e-06
0.000206768
3.31454e-06
0.000203445
3.32262e-06
0.000200115
3.32997e-06
0.000196779
3.33664e-06
0.000193436
3.34265e-06
0.000190088
3.34802e-06
0.000186735
3.35279e-06
0.000183378
3.35699e-06
0.000180018
3.36063e-06
0.000176654
3.36376e-06
0.000173288
3.36639e-06
0.000169919
3.36854e-06
0.000166549
3.37026e-06
0.000163177
3.37155e-06
0.000159805
3.37245e-06
0.000156432
3.37297e-06
0.000153059
3.37315e-06
0.000149686
3.373e-06
0.000146313
3.37255e-06
0.000142941
3.37181e-06
0.00013957
3.37082e-06
0.000136201
3.36958e-06
0.000132833
3.36812e-06
0.000129466
3.36645e-06
0.000126102
3.36461e-06
0.000122739
3.3626e-06
0.000119379
3.36044e-06
0.000116021
3.35815e-06
0.000112665
3.35574e-06
0.000109312
3.35323e-06
0.000105961
3.35064e-06
0.000102613
3.34799e-06
9.92677e-05
3.34527e-06
9.59252e-05
3.34252e-06
9.25854e-05
3.33974e-06
8.92485e-05
3.33694e-06
8.59143e-05
3.33414e-06
8.2583e-05
3.33135e-06
7.92544e-05
3.32858e-06
7.59286e-05
3.32583e-06
7.26054e-05
3.32313e-06
6.9285e-05
3.32048e-06
6.59671e-05
3.31789e-06
6.26517e-05
3.31536e-06
5.93388e-05
3.31291e-06
5.60282e-05
3.31055e-06
5.272e-05
3.30828e-06
4.94139e-05
3.3061e-06
4.61098e-05
3.30403e-06
4.28078e-05
3.30208e-06
3.95075e-05
3.30023e-06
3.6209e-05
3.29851e-06
3.29121e-05
3.29692e-06
2.96166e-05
3.29546e-06
2.63225e-05
3.29413e-06
2.30295e-05
3.29294e-06
1.97377e-05
3.2919e-06
1.64467e-05
3.291e-06
1.31564e-05
3.29024e-06
9.86678e-06
3.28963e-06
6.5776e-06
3.28918e-06
3.28873e-06
3.28888e-06
3.28873e-06
3.38899e-06
-6.77817e-06
6.77818e-06
-6.77856e-06
1.01678e-05
-6.77934e-06
1.35579e-05
-6.78051e-06
1.69489e-05
-6.78205e-06
2.03408e-05
-6.78398e-06
2.37338e-05
-6.78628e-06
2.71282e-05
-6.78895e-06
3.05241e-05
-6.79198e-06
3.39217e-05
-6.79537e-06
3.73212e-05
-6.7991e-06
4.07227e-05
-6.80317e-06
4.41264e-05
-6.80757e-06
4.75325e-05
-6.81228e-06
5.0941e-05
-6.81729e-06
5.43523e-05
-6.82258e-06
5.77663e-05
-6.82815e-06
6.11832e-05
-6.83397e-06
6.46032e-05
-6.84003e-06
6.80263e-05
-6.84631e-06
7.14526e-05
-6.85279e-06
7.48823e-05
-6.85945e-06
7.83154e-05
-6.86627e-06
8.1752e-05
-6.87322e-06
8.51921e-05
-6.88028e-06
8.86358e-05
-6.88743e-06
9.20831e-05
-6.89463e-06
9.55341e-05
-6.90186e-06
9.89886e-05
-6.90908e-06
0.000102447
-6.91628e-06
0.000105909
-6.92341e-06
0.000109374
-6.93044e-06
0.000112842
-6.93733e-06
0.000116315
-6.94406e-06
0.00011979
-6.95057e-06
0.000123268
-6.95684e-06
0.00012675
-6.96281e-06
0.000130234
-6.96846e-06
0.000133721
-6.97372e-06
0.000137211
-6.97856e-06
0.000140702
-6.98293e-06
0.000144196
-6.98679e-06
0.000147691
-6.99007e-06
0.000151187
-6.99273e-06
0.000154685
-6.99471e-06
0.000158183
-6.99597e-06
0.000161682
-6.99644e-06
0.00016518
-6.99606e-06
0.000168678
-6.99478e-06
0.000172174
-6.99254e-06
0.000175669
-6.98926e-06
0.000179162
-6.9849e-06
0.000182652
-6.97939e-06
0.000186138
-6.97265e-06
0.000189621
-6.96463e-06
0.000193099
-6.95525e-06
0.000196572
-6.94444e-06
0.000200038
-6.93214e-06
0.000203498
-6.91828e-06
0.000206949
-6.90278e-06
0.000210393
-6.88556e-06
0.000213826
-6.86657e-06
0.00021725
-6.84572e-06
0.000220662
-6.82294e-06
0.000224061
-6.79816e-06
0.000227447
-6.7713e-06
0.000230819
-6.74229e-06
0.000234175
-6.71107e-06
0.000237515
-6.67755e-06
0.000240836
-6.64166e-06
0.000244138
-6.60334e-06
0.00024742
-6.56252e-06
0.00025068
-6.51912e-06
0.000253918
-6.47309e-06
0.000257131
-6.42435e-06
0.000260318
-6.37284e-06
0.000263478
-6.31851e-06
0.000266609
-6.2613e-06
0.00026971
-6.20114e-06
0.00027278
-6.138e-06
0.000275817
-6.07181e-06
0.000278819
-6.00254e-06
0.000281785
-5.93013e-06
0.000284713
-5.85457e-06
0.000287601
-5.7758e-06
0.000290449
-5.6938e-06
0.000293254
-5.60854e-06
0.000296015
-5.52001e-06
0.00029873
-5.42819e-06
0.000301397
-5.33306e-06
0.000304016
-5.23463e-06
0.000306583
-5.13289e-06
0.000309098
-5.02785e-06
0.000311558
-4.91953e-06
0.000313963
-4.80793e-06
0.00031631
-4.69309e-06
0.000318599
-4.57503e-06
0.000320826
-4.4538e-06
0.000322992
-4.32943e-06
0.000325093
-4.20197e-06
0.00032713
-4.07148e-06
0.0003291
-3.93803e-06
0.000331001
-3.80167e-06
0.000332833
-3.66249e-06
0.000334594
-3.52056e-06
0.000336283
-3.37598e-06
0.000337898
-3.22883e-06
0.000339438
-3.07922e-06
0.000340902
-2.92724e-06
0.000342289
-2.77302e-06
0.000343598
-2.61666e-06
0.000344828
-2.45828e-06
0.000345977
-2.29801e-06
0.000347045
-2.13598e-06
0.000348032
-1.97233e-06
0.000348936
-1.80718e-06
0.000349757
-1.64069e-06
0.000350493
-1.47299e-06
0.000351146
-1.30423e-06
0.000351713
-1.13456e-06
0.000352195
-9.64128e-07
0.000352592
-7.93093e-07
0.000352903
-6.21606e-07
0.000353128
-4.49821e-07
0.000353267
-2.77892e-07
0.00035332
-1.05976e-07
0.000353287
6.57744e-08
0.000353168
2.37205e-07
0.000352964
4.08164e-07
0.000352674
5.78501e-07
0.0003523
7.48067e-07
0.000351841
9.16717e-07
0.000351299
1.08431e-06
0.000350673
1.2507e-06
0.000349965
1.41575e-06
0.000349175
1.57933e-06
0.000348304
1.74132e-06
0.000347353
1.90158e-06
0.000346322
2.06e-06
0.000345213
2.21646e-06
0.000344027
2.37086e-06
0.000342765
2.52308e-06
0.000341428
2.67303e-06
0.000340017
2.82061e-06
0.000338534
2.96574e-06
0.000336979
3.10833e-06
0.000335354
3.2483e-06
0.000333661
3.3856e-06
0.0003319
3.52014e-06
0.000330073
3.65187e-06
0.000328182
3.78073e-06
0.000326228
3.90669e-06
0.000324212
4.02969e-06
0.000322137
4.14971e-06
0.000320003
4.2667e-06
0.000317812
4.38065e-06
0.000315565
4.49154e-06
0.000313265
4.59934e-06
0.000310912
4.70406e-06
0.000308508
4.80569e-06
0.000306055
4.90423e-06
0.000303555
4.99967e-06
0.000301008
5.09205e-06
0.000298416
5.18136e-06
0.000295782
5.26763e-06
0.000293106
5.35087e-06
0.000290389
5.43112e-06
0.000287634
5.5084e-06
0.000284842
5.58275e-06
0.000282015
5.6542e-06
0.000279152
5.72279e-06
0.000276257
5.78857e-06
0.000273331
5.85157e-06
0.000270374
5.91184e-06
0.000267389
5.96944e-06
0.000264376
6.02441e-06
0.000261337
6.0768e-06
0.000258273
6.12667e-06
0.000255186
6.17408e-06
0.000252075
6.21908e-06
0.000248944
6.26173e-06
0.000245792
6.30209e-06
0.000242622
6.34022e-06
0.000239433
6.37617e-06
0.000236228
6.41002e-06
0.000233006
6.44182e-06
0.00022977
6.47163e-06
0.00022652
6.49951e-06
0.000223256
6.52553e-06
0.000219981
6.54975e-06
0.000216695
6.57222e-06
0.000213398
6.59302e-06
0.000210091
6.6122e-06
0.000206776
6.62983e-06
0.000203453
6.64595e-06
0.000200122
6.66064e-06
0.000196785
6.67394e-06
0.000193441
6.68593e-06
0.000190093
6.69665e-06
0.000186739
6.70616e-06
0.000183382
6.71453e-06
0.000180021
6.72179e-06
0.000176656
6.72801e-06
0.00017329
6.73324e-06
0.000169921
6.73753e-06
0.00016655
6.74093e-06
0.000163178
6.74349e-06
0.000159805
6.74526e-06
0.000156432
6.74629e-06
0.000153058
6.74662e-06
0.000149685
6.7463e-06
0.000146312
6.74538e-06
0.00014294
6.74388e-06
0.000139569
6.74187e-06
0.000136199
6.73937e-06
0.000132831
6.73643e-06
0.000129464
6.73309e-06
0.0001261
6.72938e-06
0.000122737
6.72534e-06
0.000119376
6.721e-06
0.000116018
6.7164e-06
0.000112662
6.71157e-06
0.000109309
6.70655e-06
0.000105958
6.70135e-06
0.00010261
6.69602e-06
9.92648e-05
6.69058e-06
9.59222e-05
6.68506e-06
9.25825e-05
6.67949e-06
8.92455e-05
6.67388e-06
8.59114e-05
6.66827e-06
8.25801e-05
6.66267e-06
7.92516e-05
6.65712e-06
7.59258e-05
6.65162e-06
7.26027e-05
6.64621e-06
6.92823e-05
6.6409e-06
6.59645e-05
6.6357e-06
6.26492e-05
6.63064e-06
5.93363e-05
6.62574e-06
5.60259e-05
6.621e-06
5.27177e-05
6.61645e-06
4.94117e-05
6.6121e-06
4.61078e-05
6.60795e-06
4.28059e-05
6.60403e-06
3.95057e-05
6.60034e-06
3.62074e-05
6.5969e-06
3.29106e-05
6.59371e-06
2.96153e-05
6.59078e-06
2.63213e-05
6.58812e-06
2.30285e-05
6.58574e-06
1.97367e-05
6.58365e-06
1.64459e-05
6.58184e-06
1.31558e-05
6.58033e-06
9.86632e-06
6.57911e-06
6.57729e-06
6.5782e-06
3.28857e-06
6.5776e-06
6.5773e-06
3.3886e-06
-1.01668e-05
6.7774e-06
-1.01674e-05
1.01666e-05
-1.01685e-05
1.35564e-05
-1.01703e-05
1.69469e-05
-1.01726e-05
2.03384e-05
-1.01755e-05
2.37311e-05
-1.0179e-05
2.71251e-05
-1.0183e-05
3.05207e-05
-1.01875e-05
3.39179e-05
-1.01926e-05
3.73171e-05
-1.01982e-05
4.07183e-05
-1.02044e-05
4.41216e-05
-1.0211e-05
4.75274e-05
-1.0218e-05
5.09357e-05
-1.02256e-05
5.43466e-05
-1.02335e-05
5.77604e-05
-1.02419e-05
6.11771e-05
-1.02507e-05
6.45968e-05
-1.02598e-05
6.80197e-05
-1.02692e-05
7.14459e-05
-1.0279e-05
7.48754e-05
-1.0289e-05
7.83084e-05
-1.02992e-05
8.17449e-05
-1.03097e-05
8.51849e-05
-1.03203e-05
8.86286e-05
-1.03311e-05
9.20758e-05
-1.03419e-05
9.55268e-05
-1.03528e-05
9.89814e-05
-1.03637e-05
0.00010244
-1.03745e-05
0.000105901
-1.03852e-05
0.000109367
-1.03958e-05
0.000112836
-1.04062e-05
0.000116308
-1.04163e-05
0.000119784
-1.04262e-05
0.000123262
-1.04356e-05
0.000126744
-1.04446e-05
0.000130229
-1.04532e-05
0.000133716
-1.04611e-05
0.000137206
-1.04684e-05
0.000140698
-1.04751e-05
0.000144192
-1.04809e-05
0.000147688
-1.04859e-05
0.000151185
-1.04899e-05
0.000154684
-1.0493e-05
0.000158183
-1.04949e-05
0.000161682
-1.04957e-05
0.000165181
-1.04952e-05
0.00016868
-1.04934e-05
0.000172177
-1.04901e-05
0.000175673
-1.04853e-05
0.000179167
-1.04788e-05
0.000182658
-1.04706e-05
0.000186146
-1.04606e-05
0.00018963
-1.04486e-05
0.00019311
-1.04347e-05
0.000196584
-1.04185e-05
0.000200052
-1.04002e-05
0.000203513
-1.03795e-05
0.000206966
-1.03563e-05
0.000210411
-1.03306e-05
0.000213847
-1.03022e-05
0.000217272
-1.0271e-05
0.000220686
-1.02369e-05
0.000224088
-1.01998e-05
0.000227476
-1.01596e-05
0.00023085
-1.01162e-05
0.000234209
-1.00695e-05
0.00023755
-1.00193e-05
0.000240874
-9.96554e-06
0.000244179
-9.90814e-06
0.000247464
-9.84699e-06
0.000250726
-9.78198e-06
0.000253966
-9.71301e-06
0.000257182
-9.63998e-06
0.000260372
-9.5628e-06
0.000263535
-9.48137e-06
0.000266669
-9.39562e-06
0.000269773
-9.30545e-06
0.000272846
-9.21079e-06
0.000275886
-9.11157e-06
0.000278891
-9.00771e-06
0.00028186
-8.89916e-06
0.000284791
-8.78585e-06
0.000287683
-8.66773e-06
0.000290534
-8.54477e-06
0.000293343
-8.41691e-06
0.000296107
-8.28413e-06
0.000298825
-8.14641e-06
0.000301496
-8.00373e-06
0.000304117
-7.85608e-06
0.000306688
-7.70346e-06
0.000309206
-7.54589e-06
0.00031167
-7.38338e-06
0.000314078
-7.21596e-06
0.000316428
-7.04365e-06
0.00031872
-6.86652e-06
0.000320951
-6.68462e-06
0.000323119
-6.498e-06
0.000325224
-6.30674e-06
0.000327263
-6.11093e-06
0.000329236
-5.91066e-06
0.00033114
-5.70603e-06
0.000332975
-5.49716e-06
0.000334739
-5.28416e-06
0.00033643
-5.06717e-06
0.000338047
-4.84633e-06
0.00033959
-4.62178e-06
0.000341056
-4.39368e-06
0.000342445
-4.16219e-06
0.000343756
-3.9275e-06
0.000344988
-3.68978e-06
0.000346139
-3.44922e-06
0.000347209
-3.20601e-06
0.000348197
-2.96036e-06
0.000349102
-2.71246e-06
0.000349924
-2.46254e-06
0.000350662
-2.2108e-06
0.000351315
-1.95748e-06
0.000351883
-1.70278e-06
0.000352366
-1.44695e-06
0.000352763
-1.1902e-06
0.000353075
-9.32781e-07
0.0003533
-6.74909e-07
0.000353439
-4.16824e-07
0.000353491
-1.58756e-07
0.000353458
9.90613e-08
0.000353339
3.56398e-07
0.000353134
6.13024e-07
0.000352844
8.68715e-07
0.000352469
1.12325e-06
0.000352009
1.3764e-06
0.000351465
1.62796e-06
0.000350838
1.87771e-06
0.000350129
2.12546e-06
0.000349337
2.371e-06
0.000348464
2.61413e-06
0.000347511
2.85467e-06
0.000346479
3.09245e-06
0.000345368
3.32728e-06
0.00034418
3.559e-06
0.000342915
3.78746e-06
0.000341576
4.0125e-06
0.000340162
4.23398e-06
0.000338676
4.45178e-06
0.000337119
4.66576e-06
0.000335491
4.87581e-06
0.000333795
5.08183e-06
0.000332032
5.28372e-06
0.000330202
5.48138e-06
0.000328308
5.67474e-06
0.000326351
5.86373e-06
0.000324332
6.04828e-06
0.000322254
6.22834e-06
0.000320117
6.40386e-06
0.000317923
6.57481e-06
0.000315673
6.74115e-06
0.000313369
6.90288e-06
0.000311013
7.05996e-06
0.000308607
7.2124e-06
0.000306151
7.3602e-06
0.000303647
7.50336e-06
0.000301097
7.6419e-06
0.000298503
7.77584e-06
0.000295865
7.90522e-06
0.000293186
8.03005e-06
0.000290467
8.15039e-06
0.000287709
8.26627e-06
0.000284914
8.37775e-06
0.000282083
8.48487e-06
0.000279218
8.58771e-06
0.000276321
8.68632e-06
0.000273391
8.78076e-06
0.000270432
8.87111e-06
0.000267444
8.95744e-06
0.000264429
9.03983e-06
0.000261387
9.11835e-06
0.000258321
9.19309e-06
0.000255231
9.26414e-06
0.000252118
9.33156e-06
0.000248984
9.39546e-06
0.000245831
9.45593e-06
0.000242658
9.51304e-06
0.000239467
9.5669e-06
0.000236259
9.61759e-06
0.000233036
9.66521e-06
0.000229798
9.70985e-06
0.000226546
9.75159e-06
0.000223281
9.79055e-06
0.000220004
9.8268e-06
0.000216715
9.86044e-06
0.000213417
9.89156e-06
0.000210109
9.92025e-06
0.000206792
9.94661e-06
0.000203467
9.97072e-06
0.000200135
9.99268e-06
0.000196797
1.00126e-05
0.000193452
1.00305e-05
0.000190102
1.00465e-05
0.000186748
1.00607e-05
0.000183389
1.00732e-05
0.000180027
1.0084e-05
0.000176662
1.00933e-05
0.000173294
1.0101e-05
0.000169924
1.01074e-05
0.000166553
1.01124e-05
0.00016318
1.01162e-05
0.000159806
1.01188e-05
0.000156432
1.01203e-05
0.000153058
1.01207e-05
0.000149684
1.01202e-05
0.000146311
1.01188e-05
0.000142938
1.01165e-05
0.000139567
1.01134e-05
0.000136196
1.01096e-05
0.000132828
1.01052e-05
0.000129461
1.01001e-05
0.000126096
1.00945e-05
0.000122733
1.00884e-05
0.000119372
1.00818e-05
0.000116013
1.00749e-05
0.000112657
1.00676e-05
0.000109304
1.006e-05
0.000105953
1.00522e-05
0.000102605
1.00442e-05
9.92593e-05
1.0036e-05
9.59167e-05
1.00277e-05
9.25769e-05
1.00193e-05
8.924e-05
1.00108e-05
8.59059e-05
1.00024e-05
8.25746e-05
9.99396e-06
7.92461e-05
9.9856e-06
7.59204e-05
9.97733e-06
7.25974e-05
9.96919e-06
6.92771e-05
9.96119e-06
6.59594e-05
9.95338e-06
6.26443e-05
9.94578e-06
5.93316e-05
9.9384e-06
5.60214e-05
9.93128e-06
5.27134e-05
9.92443e-06
4.94076e-05
9.91788e-06
4.61039e-05
9.91165e-06
4.28022e-05
9.90575e-06
3.95023e-05
9.90021e-06
3.62042e-05
9.89503e-06
3.29077e-05
9.89023e-06
2.96126e-05
9.88583e-06
2.63189e-05
9.88183e-06
2.30264e-05
9.87826e-06
1.97349e-05
9.87511e-06
1.64444e-05
9.87239e-06
1.31546e-05
9.87011e-06
9.86541e-06
9.86829e-06
6.57668e-06
9.86692e-06
3.28827e-06
9.86602e-06
9.86557e-06
3.38801e-06
-1.35548e-05
6.77622e-06
-1.35556e-05
1.01648e-05
-1.35571e-05
1.3554e-05
-1.35595e-05
1.6944e-05
-1.35626e-05
2.03349e-05
-1.35665e-05
2.37271e-05
-1.35711e-05
2.71205e-05
-1.35764e-05
3.05155e-05
-1.35825e-05
3.39123e-05
-1.35894e-05
3.73109e-05
-1.35969e-05
4.07116e-05
-1.3605e-05
4.41145e-05
-1.36139e-05
4.75198e-05
-1.36233e-05
5.09277e-05
-1.36334e-05
5.43382e-05
-1.36441e-05
5.77516e-05
-1.36553e-05
6.11679e-05
-1.3667e-05
6.45873e-05
-1.36792e-05
6.80099e-05
-1.36918e-05
7.14358e-05
-1.37049e-05
7.48651e-05
-1.37183e-05
7.82979e-05
-1.3732e-05
8.17342e-05
-1.3746e-05
8.51741e-05
-1.37602e-05
8.86176e-05
-1.37746e-05
9.20649e-05
-1.37891e-05
9.55158e-05
-1.38037e-05
9.89704e-05
-1.38183e-05
0.000102429
-1.38328e-05
0.000105891
-1.38472e-05
0.000109356
-1.38614e-05
0.000112825
-1.38753e-05
0.000116298
-1.3889e-05
0.000119774
-1.39021e-05
0.000123253
-1.39148e-05
0.000126736
-1.3927e-05
0.000130221
-1.39384e-05
0.000133709
-1.39491e-05
0.000137199
-1.3959e-05
0.000140692
-1.39679e-05
0.000144187
-1.39758e-05
0.000147684
-1.39826e-05
0.000151182
-1.39882e-05
0.000154682
-1.39923e-05
0.000158182
-1.39951e-05
0.000161682
-1.39962e-05
0.000165183
-1.39957e-05
0.000168683
-1.39934e-05
0.000172182
-1.39892e-05
0.000175679
-1.39829e-05
0.000179175
-1.39744e-05
0.000182668
-1.39637e-05
0.000186158
-1.39505e-05
0.000189644
-1.39347e-05
0.000193126
-1.39162e-05
0.000196602
-1.38949e-05
0.000200072
-1.38706e-05
0.000203536
-1.38431e-05
0.000206992
-1.38124e-05
0.00021044
-1.37783e-05
0.000213878
-1.37406e-05
0.000217306
-1.36992e-05
0.000220723
-1.36539e-05
0.000224128
-1.36046e-05
0.00022752
-1.35512e-05
0.000230897
-1.34935e-05
0.000234259
-1.34313e-05
0.000237604
-1.33646e-05
0.000240932
-1.32931e-05
0.00024424
-1.32167e-05
0.000247528
-1.31353e-05
0.000250795
-1.30488e-05
0.000254039
-1.2957e-05
0.000257259
-1.28598e-05
0.000260453
-1.2757e-05
0.00026362
-1.26486e-05
0.000266759
-1.25344e-05
0.000269868
-1.24143e-05
0.000272945
-1.22882e-05
0.00027599
-1.2156e-05
0.000279
-1.20176e-05
0.000281973
-1.18729e-05
0.000284909
-1.17219e-05
0.000287806
-1.15645e-05
0.000290662
-1.14006e-05
0.000293475
-1.12302e-05
0.000296244
-1.10532e-05
0.000298968
-1.08696e-05
0.000301643
-1.06794e-05
0.00030427
-1.04825e-05
0.000306845
-1.0279e-05
0.000309368
-1.00689e-05
0.000311837
-9.85215e-06
0.00031425
-9.62886e-06
0.000316605
-9.39905e-06
0.000318902
-9.16279e-06
0.000321137
-8.92015e-06
0.00032331
-8.67121e-06
0.00032542
-8.41607e-06
0.000327464
-8.15485e-06
0.000329441
-7.88766e-06
0.000331349
-7.61465e-06
0.000333188
-7.33596e-06
0.000334956
-7.05176e-06
0.000336651
-6.76222e-06
0.000338272
-6.46753e-06
0.000339818
-6.16789e-06
0.000341288
-5.8635e-06
0.00034268
-5.55459e-06
0.000343994
-5.24138e-06
0.000345228
-4.92413e-06
0.000346382
-4.60308e-06
0.000347455
-4.27849e-06
0.000348445
-3.95063e-06
0.000349352
-3.61977e-06
0.000350176
-3.2862e-06
0.000350915
-2.95021e-06
0.00035157
-2.6121e-06
0.000352139
-2.27215e-06
0.000352623
-1.93069e-06
0.000353021
-1.588e-06
0.000353332
-1.24441e-06
0.000353558
-9.00217e-07
0.000353697
-5.55741e-07
0.000353749
-2.1129e-07
0.000353715
1.32825e-07
0.000353596
4.76296e-07
0.00035339
8.18816e-07
0.000353098
1.16008e-06
0.000352722
1.4998e-06
0.000352261
1.83767e-06
0.000351715
2.17341e-06
0.000351086
2.50674e-06
0.000350374
2.83738e-06
0.00034958
3.16506e-06
0.000348705
3.48953e-06
0.000347749
3.81053e-06
0.000346714
4.12783e-06
0.0003456
4.4412e-06
0.000344408
4.75041e-06
0.00034314
5.05525e-06
0.000341797
5.35552e-06
0.00034038
5.65104e-06
0.00033889
5.94163e-06
0.000337329
6.22712e-06
0.000335698
6.50735e-06
0.000333997
6.7822e-06
0.000332229
7.05152e-06
0.000330396
7.31519e-06
0.000328497
7.57312e-06
0.000326536
7.8252e-06
0.000324513
8.07135e-06
0.000322429
8.3115e-06
0.000320288
8.54559e-06
0.000318089
8.77357e-06
0.000315835
8.99539e-06
0.000313527
9.21104e-06
0.000311166
9.4205e-06
0.000308755
9.62375e-06
0.000306294
9.8208e-06
0.000303786
1.00117e-05
0.000301231
1.01963e-05
0.000298632
1.03749e-05
0.00029599
1.05473e-05
0.000293307
1.07137e-05
0.000290583
1.08741e-05
0.000287821
1.10285e-05
0.000285021
1.11771e-05
0.000282186
1.13198e-05
0.000279317
1.14569e-05
0.000276415
1.15882e-05
0.000273482
1.1714e-05
0.000270519
1.18344e-05
0.000267527
1.19494e-05
0.000264507
1.20591e-05
0.000261462
1.21637e-05
0.000258392
1.22632e-05
0.000255298
1.23578e-05
0.000252182
1.24476e-05
0.000249045
1.25326e-05
0.000245888
1.26131e-05
0.000242712
1.26891e-05
0.000239518
1.27608e-05
0.000236307
1.28282e-05
0.000233081
1.28916e-05
0.00022984
1.2951e-05
0.000226585
1.30065e-05
0.000223317
1.30583e-05
0.000220037
1.31065e-05
0.000216747
1.31512e-05
0.000213446
1.31925e-05
0.000210135
1.32306e-05
0.000206816
1.32656e-05
0.000203489
1.32977e-05
0.000200155
1.33268e-05
0.000196815
1.33532e-05
0.000193468
1.33769e-05
0.000190117
1.33981e-05
0.00018676
1.34169e-05
0.0001834
1.34334e-05
0.000180036
1.34478e-05
0.00017667
1.346e-05
0.0001733
1.34702e-05
0.000169929
1.34786e-05
0.000166556
1.34852e-05
0.000163183
1.34901e-05
0.000159808
1.34935e-05
0.000156433
1.34954e-05
0.000153058
1.34959e-05
0.000149683
1.3495e-05
0.000146309
1.3493e-05
0.000142935
1.34899e-05
0.000139563
1.34857e-05
0.000136192
1.34805e-05
0.000132823
1.34745e-05
0.000129455
1.34676e-05
0.00012609
1.34601e-05
0.000122726
1.34519e-05
0.000119365
1.3443e-05
0.000116006
1.34337e-05
0.00011265
1.34239e-05
0.000109296
1.34138e-05
0.000105945
1.34033e-05
0.000102597
1.33925e-05
9.92511e-05
1.33815e-05
9.59084e-05
1.33704e-05
9.25686e-05
1.33591e-05
8.92316e-05
1.33478e-05
8.58975e-05
1.33365e-05
8.25663e-05
1.33252e-05
7.92379e-05
1.3314e-05
7.59123e-05
1.33029e-05
7.25895e-05
1.3292e-05
6.92694e-05
1.32813e-05
6.59519e-05
1.32709e-05
6.2637e-05
1.32607e-05
5.93246e-05
1.32508e-05
5.60146e-05
1.32413e-05
5.27069e-05
1.32321e-05
4.94014e-05
1.32234e-05
4.60981e-05
1.3215e-05
4.27967e-05
1.32071e-05
3.94972e-05
1.31997e-05
3.61994e-05
1.31928e-05
3.29033e-05
1.31864e-05
2.96086e-05
1.31805e-05
2.63153e-05
1.31751e-05
2.30233e-05
1.31704e-05
1.97322e-05
1.31661e-05
1.64421e-05
1.31625e-05
1.31528e-05
1.31595e-05
9.86404e-06
1.3157e-05
6.57577e-06
1.31552e-05
3.28781e-06
1.3154e-05
1.31534e-05
3.38722e-06
-1.6942e-05
6.77465e-06
-1.6943e-05
1.01625e-05
-1.6945e-05
1.35509e-05
-1.69479e-05
1.69401e-05
-1.69518e-05
2.03303e-05
-1.69566e-05
2.37217e-05
-1.69625e-05
2.71144e-05
-1.69692e-05
3.05087e-05
-1.69768e-05
3.39047e-05
-1.69854e-05
3.73027e-05
-1.69948e-05
4.07027e-05
-1.70051e-05
4.4105e-05
-1.70162e-05
4.75097e-05
-1.7028e-05
5.09169e-05
-1.70407e-05
5.43269e-05
-1.70541e-05
5.77398e-05
-1.70681e-05
6.11556e-05
-1.70828e-05
6.45746e-05
-1.70981e-05
6.79968e-05
-1.7114e-05
7.14223e-05
-1.71304e-05
7.48513e-05
-1.71472e-05
7.82838e-05
-1.71645e-05
8.17198e-05
-1.71821e-05
8.51596e-05
-1.72e-05
8.8603e-05
-1.72181e-05
9.20502e-05
-1.72363e-05
9.55011e-05
-1.72546e-05
9.89558e-05
-1.7273e-05
0.000102414
-1.72912e-05
0.000105876
-1.73094e-05
0.000109342
-1.73273e-05
0.000112812
-1.73448e-05
0.000116285
-1.7362e-05
0.000119761
-1.73786e-05
0.000123241
-1.73946e-05
0.000126724
-1.74099e-05
0.00013021
-1.74244e-05
0.000133699
-1.7438e-05
0.00013719
-1.74505e-05
0.000140684
-1.74619e-05
0.00014418
-1.74719e-05
0.000147678
-1.74806e-05
0.000151178
-1.74877e-05
0.000154679
-1.74932e-05
0.00015818
-1.74968e-05
0.000161683
-1.74985e-05
0.000165185
-1.7498e-05
0.000168687
-1.74954e-05
0.000172188
-1.74903e-05
0.000175688
-1.74827e-05
0.000179186
-1.74724e-05
0.000182681
-1.74591e-05
0.000186174
-1.74429e-05
0.000189662
-1.74234e-05
0.000193147
-1.74006e-05
0.000196626
-1.73742e-05
0.0002001
-1.73441e-05
0.000203566
-1.731e-05
0.000207026
-1.72719e-05
0.000210477
-1.72295e-05
0.000213919
-1.71827e-05
0.000217351
-1.71312e-05
0.000220772
-1.70749e-05
0.000224181
-1.70136e-05
0.000227577
-1.69471e-05
0.000230959
-1.68752e-05
0.000234325
-1.67977e-05
0.000237675
-1.67146e-05
0.000241008
-1.66255e-05
0.000244321
-1.65303e-05
0.000247615
-1.64288e-05
0.000250887
-1.63209e-05
0.000254136
-1.62064e-05
0.000257362
-1.60851e-05
0.000260561
-1.59569e-05
0.000263734
-1.58215e-05
0.000266879
-1.5679e-05
0.000269994
-1.55291e-05
0.000273077
-1.53716e-05
0.000276128
-1.52066e-05
0.000279144
-1.50337e-05
0.000282124
-1.48531e-05
0.000285067
-1.46645e-05
0.00028797
-1.44678e-05
0.000290832
-1.4263e-05
0.000293652
-1.40501e-05
0.000296428
-1.38289e-05
0.000299158
-1.35994e-05
0.00030184
-1.33616e-05
0.000304473
-1.31156e-05
0.000307055
-1.28612e-05
0.000309585
-1.25985e-05
0.00031206
-1.23275e-05
0.00031448
-1.20483e-05
0.000316841
-1.17609e-05
0.000319144
-1.14654e-05
0.000321386
-1.1162e-05
0.000323565
-1.08506e-05
0.000325681
-1.05315e-05
0.000327731
-1.02047e-05
0.000329713
-9.87049e-06
0.000331628
-9.52894e-06
0.000333472
-9.18028e-06
0.000335245
-8.8247e-06
0.000336945
-8.46243e-06
0.000338571
-8.09369e-06
0.000340122
-7.71875e-06
0.000341597
-7.33785e-06
0.000342993
-6.95127e-06
0.000344311
-6.55932e-06
0.000345549
-6.16228e-06
0.000346707
-5.76048e-06
0.000347783
-5.35424e-06
0.000348776
-4.9439e-06
0.000349686
-4.5298e-06
0.000350512
-4.1123e-06
0.000351253
-3.69176e-06
0.00035191
-3.26855e-06
0.000352481
-2.84305e-06
0.000352966
-2.41564e-06
0.000353364
-1.98671e-06
0.000353677
-1.55664e-06
0.000353902
-1.12581e-06
0.000354041
-6.94637e-07
0.000354093
-2.63493e-07
0.000354059
1.67229e-07
0.000353938
5.9714e-07
0.000353731
1.02586e-06
0.000353438
1.453e-06
0.00035306
1.8782e-06
0.000352596
2.30107e-06
0.000352049
2.72128e-06
0.000351417
3.13845e-06
0.000350702
3.55225e-06
0.000349905
3.96233e-06
0.000349026
4.36839e-06
0.000348066
4.77009e-06
0.000347027
5.16715e-06
0.000345909
5.55927e-06
0.000344713
5.94618e-06
0.000343441
6.3276e-06
0.000342093
6.7033e-06
0.000340671
7.07303e-06
0.000339176
7.43657e-06
0.000337609
7.79372e-06
0.000335973
8.14429e-06
0.000334267
8.48809e-06
0.000332493
8.82496e-06
0.000330654
9.15475e-06
0.000328749
9.47734e-06
0.000326782
9.79259e-06
0.000324753
1.01004e-05
0.000322664
1.04007e-05
0.000320516
1.06934e-05
0.000318311
1.09785e-05
0.000316051
1.12558e-05
0.000313736
1.15254e-05
0.000311369
1.17872e-05
0.000308952
1.20413e-05
0.000306485
1.22876e-05
0.000303971
1.25261e-05
0.00030141
1.27569e-05
0.000298805
1.29801e-05
0.000296157
1.31955e-05
0.000293467
1.34034e-05
0.000290737
1.36038e-05
0.000287969
1.37967e-05
0.000285164
1.39822e-05
0.000282323
1.41605e-05
0.000279449
1.43316e-05
0.000276541
1.44957e-05
0.000273602
1.46528e-05
0.000270634
1.4803e-05
0.000267637
1.49466e-05
0.000264612