/*--------------------------------*- C++ -*----------------------------------*\
| =========                 |                                                 |
| \\      /  F ield         | OpenFOAM: The Open Source CFD Toolbox           |
|  \\    /   O peration     | Version:  v2012                                 |
|   \\  /    A nd           | Website:  www.openfoam.com                      |
|    \\/     M anipulation  |                                                 |
\*---------------------------------------------------------------------------*/
FoamFile
{
    version     2.0;
    format      ascii;
    class       volVectorField;
    location    "15.4";
    object      U;
}
// * * * * * * * * * * * * * * * * * * * * * * * * * * * * * * * * * * * * * //

dimensions      [0 1 -1 0 0 0 0];


internalField   nonuniform List<vector> 
65536
(
(0.000690427 -0.000690444 0)
(0.00207132 -0.000690486 0)
(0.00345234 -0.000690566 0)
(0.00483355 -0.000690684 0)
(0.00621504 -0.000690841 0)
(0.00759688 -0.000691037 0)
(0.00897916 -0.000691271 0)
(0.0103619 -0.000691542 0)
(0.0117453 -0.000691851 0)
(0.0131293 -0.000692195 0)
(0.014514 -0.000692575 0)
(0.0158996 -0.000692988 0)
(0.017286 -0.000693435 0)
(0.0186733 -0.000693914 0)
(0.0200616 -0.000694423 0)
(0.021451 -0.000694961 0)
(0.0228414 -0.000695527 0)
(0.024233 -0.000696119 0)
(0.0256259 -0.000696735 0)
(0.02702 -0.000697373 0)
(0.0284154 -0.000698032 0)
(0.0298121 -0.000698708 0)
(0.0312102 -0.000699401 0)
(0.0326097 -0.000700107 0)
(0.0340106 -0.000700824 0)
(0.035413 -0.00070155 0)
(0.0368168 -0.000702281 0)
(0.0382221 -0.000703015 0)
(0.0396289 -0.000703749 0)
(0.0410371 -0.00070448 0)
(0.0424468 -0.000705203 0)
(0.0438579 -0.000705917 0)
(0.0452705 -0.000706616 0)
(0.0466844 -0.000707298 0)
(0.0480997 -0.000707959 0)
(0.0495163 -0.000708594 0)
(0.0509341 -0.0007092 0)
(0.0523531 -0.000709771 0)
(0.0537732 -0.000710304 0)
(0.0551944 -0.000710793 0)
(0.0566165 -0.000711235 0)
(0.0580394 -0.000711623 0)
(0.059463 -0.000711954 0)
(0.0608873 -0.000712221 0)
(0.062312 -0.000712419 0)
(0.063737 -0.000712542 0)
(0.0651622 -0.000712586 0)
(0.0665874 -0.000712543 0)
(0.0680125 -0.000712408 0)
(0.0694372 -0.000712175 0)
(0.0708613 -0.000711837 0)
(0.0722846 -0.000711388 0)
(0.073707 -0.000710821 0)
(0.075128 -0.00071013 0)
(0.0765476 -0.000709307 0)
(0.0779654 -0.000708346 0)
(0.0793811 -0.000707241 0)
(0.0807945 -0.000705982 0)
(0.0822052 -0.000704565 0)
(0.083613 -0.00070298 0)
(0.0850173 -0.000701221 0)
(0.086418 -0.000699281 0)
(0.0878146 -0.000697152 0)
(0.0892068 -0.000694826 0)
(0.0905942 -0.000692296 0)
(0.0919762 -0.000689555 0)
(0.0933526 -0.000686595 0)
(0.0947228 -0.000683409 0)
(0.0960865 -0.000679989 0)
(0.097443 -0.000676329 0)
(0.098792 -0.00067242 0)
(0.100133 -0.000668257 0)
(0.101465 -0.000663831 0)
(0.102789 -0.000659137 0)
(0.104102 -0.000654168 0)
(0.105406 -0.000648917 0)
(0.106698 -0.000643379 0)
(0.107979 -0.000637547 0)
(0.109249 -0.000631416 0)
(0.110505 -0.00062498 0)
(0.111749 -0.000618235 0)
(0.112979 -0.000611176 0)
(0.114194 -0.000603798 0)
(0.115394 -0.000596098 0)
(0.116579 -0.000588073 0)
(0.117747 -0.000579718 0)
(0.118898 -0.000571033 0)
(0.120031 -0.000562014 0)
(0.121146 -0.00055266 0)
(0.122242 -0.00054297 0)
(0.123318 -0.000532944 0)
(0.124374 -0.000522582 0)
(0.125409 -0.000511884 0)
(0.126422 -0.000500851 0)
(0.127413 -0.000489486 0)
(0.12838 -0.000477791 0)
(0.129324 -0.000465768 0)
(0.130244 -0.000453423 0)
(0.131138 -0.000440758 0)
(0.132007 -0.00042778 0)
(0.13285 -0.000414493 0)
(0.133665 -0.000400905 0)
(0.134454 -0.000387021 0)
(0.135214 -0.00037285 0)
(0.135945 -0.000358401 0)
(0.136648 -0.000343681 0)
(0.13732 -0.0003287 0)
(0.137963 -0.000313468 0)
(0.138574 -0.000297997 0)
(0.139155 -0.000282296 0)
(0.139704 -0.000266379 0)
(0.140221 -0.000250256 0)
(0.140705 -0.000233941 0)
(0.141156 -0.000217448 0)
(0.141575 -0.000200788 0)
(0.14196 -0.000183977 0)
(0.142311 -0.000167029 0)
(0.142628 -0.000149959 0)
(0.142911 -0.00013278 0)
(0.143159 -0.000115509 0)
(0.143373 -9.81612e-05 0)
(0.143552 -8.07514e-05 0)
(0.143696 -6.32957e-05 0)
(0.143805 -4.58096e-05 0)
(0.143879 -2.83089e-05 0)
(0.143918 -1.08094e-05 0)
(0.143922 6.67324e-06 0)
(0.143892 2.41234e-05 0)
(0.143826 4.15257e-05 0)
(0.143725 5.88648e-05 0)
(0.14359 7.61255e-05 0)
(0.143421 9.32931e-05 0)
(0.143217 0.000110353 0)
(0.142979 0.000127291 0)
(0.142708 0.000144093 0)
(0.142403 0.000160746 0)
(0.142065 0.000177236 0)
(0.141694 0.000193551 0)
(0.14129 0.000209679 0)
(0.140855 0.000225607 0)
(0.140388 0.000241326 0)
(0.139889 0.000256823 0)
(0.13936 0.00027209 0)
(0.138801 0.000287116 0)
(0.138211 0.000301892 0)
(0.137593 0.000316411 0)
(0.136945 0.000330663 0)
(0.13627 0.000344642 0)
(0.135567 0.000358342 0)
(0.134836 0.000371756 0)
(0.134079 0.000384879 0)
(0.133296 0.000397705 0)
(0.132488 0.000410232 0)
(0.131655 0.000422454 0)
(0.130798 0.000434369 0)
(0.129917 0.000445974 0)
(0.129014 0.000457268 0)
(0.128088 0.000468248 0)
(0.12714 0.000478915 0)
(0.126172 0.000489266 0)
(0.125183 0.000499304 0)
(0.124174 0.000509027 0)
(0.123147 0.000518437 0)
(0.1221 0.000527535 0)
(0.121036 0.000536324 0)
(0.119955 0.000544806 0)
(0.118857 0.000552982 0)
(0.117743 0.000560856 0)
(0.116613 0.000568432 0)
(0.115469 0.000575713 0)
(0.11431 0.000582703 0)
(0.113137 0.000589406 0)
(0.111952 0.000595827 0)
(0.110754 0.00060197 0)
(0.109544 0.000607841 0)
(0.108322 0.000613444 0)
(0.10709 0.000618785 0)
(0.105847 0.000623869 0)
(0.104594 0.000628703 0)
(0.103332 0.000633291 0)
(0.102061 0.00063764 0)
(0.100781 0.000641755 0)
(0.0994933 0.000645643 0)
(0.0981982 0.000649311 0)
(0.0968959 0.000652763 0)
(0.0955869 0.000656006 0)
(0.0942716 0.000659047 0)
(0.0929505 0.000661892 0)
(0.0916239 0.000664547 0)
(0.0902921 0.000667019 0)
(0.0889556 0.000669313 0)
(0.0876147 0.000671436 0)
(0.0862697 0.000673395 0)
(0.084921 0.000675194 0)
(0.0835688 0.000676841 0)
(0.0822135 0.000678342 0)
(0.0808553 0.000679702 0)
(0.0794945 0.000680927 0)
(0.0781314 0.000682024 0)
(0.0767663 0.000682997 0)
(0.0753993 0.000683853 0)
(0.0740308 0.000684597 0)
(0.0726609 0.000685234 0)
(0.0712897 0.000685771 0)
(0.0699177 0.000686212 0)
(0.0685448 0.000686562 0)
(0.0671713 0.000686827 0)
(0.0657974 0.000687011 0)
(0.0644232 0.000687119 0)
(0.0630489 0.000687156 0)
(0.0616745 0.000687127 0)
(0.0603003 0.000687036 0)
(0.0589263 0.000686887 0)
(0.0575527 0.000686685 0)
(0.0561795 0.000686434 0)
(0.0548069 0.000686138 0)
(0.053435 0.0006858 0)
(0.0520637 0.000685425 0)
(0.0506932 0.000685016 0)
(0.0493236 0.000684577 0)
(0.0479549 0.000684111 0)
(0.0465871 0.000683621 0)
(0.0452204 0.000683112 0)
(0.0438547 0.000682585 0)
(0.04249 0.000682044 0)
(0.0411265 0.000681492 0)
(0.0397641 0.000680932 0)
(0.0384028 0.000680366 0)
(0.0370426 0.000679797 0)
(0.0356836 0.000679227 0)
(0.0343257 0.000678659 0)
(0.032969 0.000678094 0)
(0.0316133 0.000677536 0)
(0.0302588 0.000676986 0)
(0.0289054 0.000676447 0)
(0.0275531 0.000675919 0)
(0.0262018 0.000675405 0)
(0.0248515 0.000674907 0)
(0.0235021 0.000674426 0)
(0.0221538 0.000673963 0)
(0.0208063 0.00067352 0)
(0.0194597 0.000673099 0)
(0.0181139 0.0006727 0)
(0.0167689 0.000672326 0)
(0.0154247 0.000671975 0)
(0.0140811 0.000671651 0)
(0.0127381 0.000671354 0)
(0.0113957 0.000671083 0)
(0.0100538 0.000670842 0)
(0.00871236 0.000670629 0)
(0.00737132 0.000670445 0)
(0.00603062 0.000670291 0)
(0.00469019 0.000670167 0)
(0.00334998 0.000670075 0)
(0.00200993 0.000670013 0)
(0.000669966 0.000669982 0)
(0.000690391 -0.00207131 0)
(0.00207121 -0.00207143 0)
(0.00345215 -0.00207166 0)
(0.00483329 -0.00207202 0)
(0.0062147 -0.00207249 0)
(0.00759647 -0.00207308 0)
(0.00897867 -0.00207378 0)
(0.0103614 -0.0020746 0)
(0.0117447 -0.00207552 0)
(0.0131286 -0.00207656 0)
(0.0145133 -0.0020777 0)
(0.0158987 -0.00207894 0)
(0.0172851 -0.00208028 0)
(0.0186723 -0.00208172 0)
(0.0200606 -0.00208325 0)
(0.0214499 -0.00208486 0)
(0.0228403 -0.00208656 0)
(0.0242319 -0.00208834 0)
(0.0256247 -0.00209019 0)
(0.0270187 -0.0020921 0)
(0.0284141 -0.00209408 0)
(0.0298108 -0.00209611 0)
(0.0312088 -0.00209819 0)
(0.0326083 -0.00210032 0)
(0.0340092 -0.00210247 0)
(0.0354116 -0.00210465 0)
(0.0368154 -0.00210685 0)
(0.0382207 -0.00210905 0)
(0.0396275 -0.00211126 0)
(0.0410357 -0.00211345 0)
(0.0424454 -0.00211562 0)
(0.0438566 -0.00211777 0)
(0.0452692 -0.00211987 0)
(0.0466832 -0.00212192 0)
(0.0480985 -0.00212391 0)
(0.0495151 -0.00212582 0)
(0.050933 -0.00212764 0)
(0.0523521 -0.00212936 0)
(0.0537723 -0.00213096 0)
(0.0551935 -0.00213243 0)
(0.0566157 -0.00213376 0)
(0.0580387 -0.00213493 0)
(0.0594625 -0.00213593 0)
(0.0608869 -0.00213673 0)
(0.0623117 -0.00213733 0)
(0.0637369 -0.00213771 0)
(0.0651623 -0.00213785 0)
(0.0665877 -0.00213772 0)
(0.068013 -0.00213732 0)
(0.0694378 -0.00213663 0)
(0.0708622 -0.00213562 0)
(0.0722857 -0.00213428 0)
(0.0737083 -0.00213259 0)
(0.0751297 -0.00213052 0)
(0.0765495 -0.00212806 0)
(0.0779676 -0.00212519 0)
(0.0793836 -0.00212188 0)
(0.0807973 -0.00211811 0)
(0.0822083 -0.00211386 0)
(0.0836164 -0.00210912 0)
(0.0850211 -0.00210385 0)
(0.0864222 -0.00209803 0)
(0.0878192 -0.00209165 0)
(0.0892118 -0.00208468 0)
(0.0905995 -0.0020771 0)
(0.091982 -0.00206888 0)
(0.0933588 -0.00206001 0)
(0.0947295 -0.00205046 0)
(0.0960936 -0.00204021 0)
(0.0974507 -0.00202923 0)
(0.0988002 -0.00201751 0)
(0.100142 -0.00200503 0)
(0.101475 -0.00199176 0)
(0.102798 -0.00197769 0)
(0.104112 -0.00196278 0)
(0.105416 -0.00194704 0)
(0.10671 -0.00193043 0)
(0.107991 -0.00191294 0)
(0.109261 -0.00189455 0)
(0.110519 -0.00187525 0)
(0.111763 -0.00185502 0)
(0.112993 -0.00183384 0)
(0.114209 -0.00181171 0)
(0.11541 -0.00178862 0)
(0.116595 -0.00176454 0)
(0.117764 -0.00173948 0)
(0.118916 -0.00171343 0)
(0.12005 -0.00168637 0)
(0.121165 -0.00165831 0)
(0.122262 -0.00162924 0)
(0.123339 -0.00159917 0)
(0.124395 -0.00156808 0)
(0.125431 -0.00153598 0)
(0.126445 -0.00150288 0)
(0.127436 -0.00146878 0)
(0.128404 -0.00143369 0)
(0.129349 -0.00139762 0)
(0.130269 -0.00136058 0)
(0.131164 -0.00132258 0)
(0.132033 -0.00128364 0)
(0.132877 -0.00124378 0)
(0.133693 -0.001203 0)
(0.134482 -0.00116135 0)
(0.135242 -0.00111882 0)
(0.135974 -0.00107547 0)
(0.136677 -0.0010313 0)
(0.13735 -0.000986345 0)
(0.137993 -0.000940639 0)
(0.138606 -0.000894213 0)
(0.139186 -0.0008471 0)
(0.139736 -0.000799335 0)
(0.140253 -0.000750955 0)
(0.140738 -0.000701997 0)
(0.14119 -0.000652502 0)
(0.141608 -0.00060251 0)
(0.141994 -0.000552063 0)
(0.142345 -0.000501204 0)
(0.142662 -0.000449977 0)
(0.142945 -0.000398427 0)
(0.143194 -0.000346599 0)
(0.143408 -0.000294539 0)
(0.143587 -0.000242294 0)
(0.143731 -0.000189911 0)
(0.14384 -0.000137437 0)
(0.143914 -8.49196e-05 0)
(0.143953 -3.24054e-05 0)
(0.143957 2.00581e-05 0)
(0.143926 7.24241e-05 0)
(0.143861 0.000124646 0)
(0.14376 0.000176678 0)
(0.143625 0.000228475 0)
(0.143455 0.000279993 0)
(0.143251 0.000331187 0)
(0.143013 0.000382014 0)
(0.142741 0.000432434 0)
(0.142436 0.000482405 0)
(0.142097 0.000531888 0)
(0.141726 0.000580845 0)
(0.141322 0.00062924 0)
(0.140886 0.000677037 0)
(0.140419 0.000724204 0)
(0.13992 0.000770706 0)
(0.13939 0.000816515 0)
(0.13883 0.000861602 0)
(0.138241 0.000905939 0)
(0.137621 0.000949502 0)
(0.136974 0.000992267 0)
(0.136297 0.00103421 0)
(0.135594 0.00107532 0)
(0.134863 0.00111556 0)
(0.134105 0.00115494 0)
(0.133322 0.00119342 0)
(0.132513 0.001231 0)
(0.131679 0.00126767 0)
(0.130821 0.00130342 0)
(0.12994 0.00133824 0)
(0.129036 0.00137212 0)
(0.12811 0.00140506 0)
(0.127161 0.00143706 0)
(0.126192 0.00146812 0)
(0.125203 0.00149823 0)
(0.124193 0.0015274 0)
(0.123165 0.00155563 0)
(0.122118 0.00158292 0)
(0.121053 0.00160928 0)
(0.119971 0.00163472 0)
(0.118873 0.00165925 0)
(0.117758 0.00168287 0)
(0.116628 0.00170559 0)
(0.115483 0.00172743 0)
(0.114323 0.0017484 0)
(0.11315 0.0017685 0)
(0.111964 0.00178776 0)
(0.110766 0.00180618 0)
(0.109555 0.00182379 0)
(0.108333 0.0018406 0)
(0.1071 0.00185661 0)
(0.105857 0.00187186 0)
(0.104603 0.00188635 0)
(0.103341 0.00190011 0)
(0.102069 0.00191315 0)
(0.100789 0.00192549 0)
(0.0995008 0.00193715 0)
(0.0982052 0.00194815 0)
(0.0969025 0.0019585 0)
(0.0955931 0.00196822 0)
(0.0942774 0.00197734 0)
(0.0929559 0.00198587 0)
(0.0916289 0.00199383 0)
(0.0902968 0.00200123 0)
(0.0889599 0.00200811 0)
(0.0876187 0.00201447 0)
(0.0862734 0.00202034 0)
(0.0849243 0.00202573 0)
(0.0835718 0.00203067 0)
(0.0822162 0.00203517 0)
(0.0808578 0.00203924 0)
(0.0794967 0.00204291 0)
(0.0781334 0.00204619 0)
(0.076768 0.00204911 0)
(0.0754008 0.00205167 0)
(0.0740321 0.00205389 0)
(0.0726619 0.0020558 0)
(0.0712906 0.00205741 0)
(0.0699184 0.00205872 0)
(0.0685453 0.00205977 0)
(0.0671717 0.00206056 0)
(0.0657976 0.00206111 0)
(0.0644233 0.00206143 0)
(0.0630488 0.00206153 0)
(0.0616743 0.00206144 0)
(0.0603 0.00206116 0)
(0.0589259 0.00206071 0)
(0.0575522 0.0020601 0)
(0.0561789 0.00205934 0)
(0.0548062 0.00205845 0)
(0.0534342 0.00205743 0)
(0.0520628 0.0020563 0)
(0.0506923 0.00205507 0)
(0.0493226 0.00205375 0)
(0.0479539 0.00205235 0)
(0.0465861 0.00205088 0)
(0.0452193 0.00204935 0)
(0.0438536 0.00204777 0)
(0.0424889 0.00204614 0)
(0.0411253 0.00204448 0)
(0.0397629 0.0020428 0)
(0.0384016 0.0020411 0)
(0.0370414 0.00203939 0)
(0.0356824 0.00203768 0)
(0.0343245 0.00203597 0)
(0.0329678 0.00203427 0)
(0.0316122 0.0020326 0)
(0.0302577 0.00203094 0)
(0.0289043 0.00202932 0)
(0.027552 0.00202774 0)
(0.0262007 0.0020262 0)
(0.0248504 0.0020247 0)
(0.0235012 0.00202325 0)
(0.0221528 0.00202186 0)
(0.0208054 0.00202054 0)
(0.0194589 0.00201927 0)
(0.0181131 0.00201807 0)
(0.0167682 0.00201695 0)
(0.015424 0.0020159 0)
(0.0140804 0.00201492 0)
(0.0127375 0.00201403 0)
(0.0113952 0.00201322 0)
(0.0100533 0.00201249 0)
(0.00871195 0.00201185 0)
(0.00737097 0.0020113 0)
(0.00603033 0.00201084 0)
(0.00468997 0.00201047 0)
(0.00334983 0.00201019 0)
(0.00200983 0.00201001 0)
(0.000669935 0.00200991 0)
(0.00069031 -0.00345205 0)
(0.00207097 -0.00345225 0)
(0.00345175 -0.00345264 0)
(0.00483273 -0.00345324 0)
(0.00621399 -0.00345402 0)
(0.0075956 -0.003455 0)
(0.00897765 -0.00345618 0)
(0.0103602 -0.00345754 0)
(0.0117433 -0.00345908 0)
(0.0131271 -0.00346081 0)
(0.0145117 -0.00346271 0)
(0.015897 -0.00346479 0)
(0.0172832 -0.00346703 0)
(0.0186703 -0.00346943 0)
(0.0200585 -0.00347198 0)
(0.0214477 -0.00347468 0)
(0.022838 -0.00347752 0)
(0.0242294 -0.00348048 0)
(0.0256221 -0.00348357 0)
(0.0270161 -0.00348677 0)
(0.0284114 -0.00349008 0)
(0.029808 -0.00349347 0)
(0.031206 -0.00349695 0)
(0.0326054 -0.00350049 0)
(0.0340063 -0.00350409 0)
(0.0354086 -0.00350773 0)
(0.0368124 -0.0035114 0)
(0.0382177 -0.00351509 0)
(0.0396245 -0.00351877 0)
(0.0410328 -0.00352244 0)
(0.0424425 -0.00352608 0)
(0.0438537 -0.00352966 0)
(0.0452664 -0.00353318 0)
(0.0466804 -0.00353661 0)
(0.0480958 -0.00353993 0)
(0.0495126 -0.00354313 0)
(0.0509306 -0.00354618 0)
(0.0523498 -0.00354905 0)
(0.0537702 -0.00355174 0)
(0.0551916 -0.00355421 0)
(0.056614 -0.00355645 0)
(0.0580372 -0.00355841 0)
(0.0594613 -0.00356009 0)
(0.0608859 -0.00356145 0)
(0.062311 -0.00356247 0)
(0.0637365 -0.00356312 0)
(0.0651622 -0.00356336 0)
(0.066588 -0.00356318 0)
(0.0680136 -0.00356254 0)
(0.0694389 -0.0035614 0)
(0.0708637 -0.00355974 0)
(0.0722877 -0.00355753 0)
(0.0737108 -0.00355473 0)
(0.0751326 -0.00355131 0)
(0.076553 -0.00354723 0)
(0.0779716 -0.00354246 0)
(0.0793883 -0.00353697 0)
(0.0808026 -0.00353071 0)
(0.0822143 -0.00352366 0)
(0.083623 -0.00351577 0)
(0.0850285 -0.00350702 0)
(0.0864303 -0.00349735 0)
(0.087828 -0.00348674 0)
(0.0892214 -0.00347515 0)
(0.09061 -0.00346254 0)
(0.0919933 -0.00344887 0)
(0.0933711 -0.0034341 0)
(0.0947427 -0.00341821 0)
(0.0961077 -0.00340115 0)
(0.0974658 -0.00338288 0)
(0.0988163 -0.00336337 0)
(0.100159 -0.00334259 0)
(0.101493 -0.0033205 0)
(0.102818 -0.00329706 0)
(0.104133 -0.00327224 0)
(0.105438 -0.00324602 0)
(0.106732 -0.00321836 0)
(0.108015 -0.00318923 0)
(0.109286 -0.0031586 0)
(0.110545 -0.00312644 0)
(0.11179 -0.00309274 0)
(0.113022 -0.00305746 0)
(0.114239 -0.0030206 0)
(0.115441 -0.00298211 0)
(0.116628 -0.002942 0)
(0.117798 -0.00290024 0)
(0.118951 -0.00285682 0)
(0.120086 -0.00281174 0)
(0.121203 -0.00276497 0)
(0.122301 -0.00271653 0)
(0.12338 -0.0026664 0)
(0.124437 -0.00261458 0)
(0.125474 -0.00256108 0)
(0.126489 -0.00250591 0)
(0.127482 -0.00244907 0)
(0.128452 -0.00239058 0)
(0.129397 -0.00233045 0)
(0.130319 -0.0022687 0)
(0.131215 -0.00220535 0)
(0.132086 -0.00214043 0)
(0.13293 -0.00207397 0)
(0.133748 -0.00200599 0)
(0.134538 -0.00193653 0)
(0.1353 -0.00186564 0)
(0.136033 -0.00179334 0)
(0.136737 -0.0017197 0)
(0.137411 -0.00164474 0)
(0.138055 -0.00156853 0)
(0.138668 -0.00149112 0)
(0.13925 -0.00141256 0)
(0.1398 -0.00133291 0)
(0.140318 -0.00125223 0)
(0.140803 -0.00117059 0)
(0.141256 -0.00108805 0)
(0.141675 -0.00100469 0)
(0.142061 -0.000920562 0)
(0.142413 -0.000835748 0)
(0.142731 -0.00075032 0)
(0.143014 -0.000664352 0)
(0.143263 -0.000577921 0)
(0.143477 -0.000491103 0)
(0.143657 -0.000403976 0)
(0.143801 -0.000316619 0)
(0.14391 -0.000229109 0)
(0.143984 -0.000141527 0)
(0.144023 -5.39515e-05 0)
(0.144027 3.35397e-05 0)
(0.143996 0.000120868 0)
(0.14393 0.000207956 0)
(0.143829 0.000294727 0)
(0.143694 0.000381105 0)
(0.143524 0.000467015 0)
(0.143319 0.000552386 0)
(0.143081 0.000637145 0)
(0.142808 0.000721222 0)
(0.142502 0.000804551 0)
(0.142163 0.000887065 0)
(0.141791 0.000968702 0)
(0.141386 0.0010494 0)
(0.14095 0.0011291 0)
(0.140481 0.00120774 0)
(0.139982 0.00128528 0)
(0.139451 0.00136166 0)
(0.13889 0.00143684 0)
(0.138299 0.00151076 0)
(0.137679 0.00158339 0)
(0.13703 0.00165469 0)
(0.136353 0.00172462 0)
(0.135648 0.00179315 0)
(0.134916 0.00186025 0)
(0.134157 0.00192588 0)
(0.133372 0.00199004 0)
(0.132562 0.00205269 0)
(0.131728 0.00211381 0)
(0.130869 0.0021734 0)
(0.129986 0.00223144 0)
(0.129081 0.00228791 0)
(0.128153 0.00234282 0)
(0.127203 0.00239615 0)
(0.126233 0.00244791 0)
(0.125242 0.00249809 0)
(0.124232 0.00254671 0)
(0.123202 0.00259375 0)
(0.122154 0.00263923 0)
(0.121088 0.00268316 0)
(0.120005 0.00272556 0)
(0.118905 0.00276642 0)
(0.117789 0.00280578 0)
(0.116657 0.00284364 0)
(0.115511 0.00288002 0)
(0.114351 0.00291495 0)
(0.113177 0.00294845 0)
(0.11199 0.00298053 0)
(0.11079 0.00301122 0)
(0.109578 0.00304054 0)
(0.108355 0.00306853 0)
(0.107121 0.00309521 0)
(0.105876 0.0031206 0)
(0.104622 0.00314474 0)
(0.103358 0.00316765 0)
(0.102086 0.00318937 0)
(0.100805 0.00320991 0)
(0.0995159 0.00322932 0)
(0.0982194 0.00324763 0)
(0.0969159 0.00326486 0)
(0.0956057 0.00328104 0)
(0.0942892 0.00329622 0)
(0.0929669 0.00331041 0)
(0.0916392 0.00332365 0)
(0.0903063 0.00333598 0)
(0.0889688 0.00334742 0)
(0.0876269 0.00335801 0)
(0.0862809 0.00336777 0)
(0.0849312 0.00337673 0)
(0.0835781 0.00338494 0)
(0.082222 0.00339241 0)
(0.080863 0.00339918 0)
(0.0795014 0.00340528 0)
(0.0781376 0.00341073 0)
(0.0767717 0.00341557 0)
(0.0754041 0.00341982 0)
(0.0740349 0.00342351 0)
(0.0726643 0.00342667 0)
(0.0712926 0.00342933 0)
(0.06992 0.00343151 0)
(0.0685466 0.00343323 0)
(0.0671726 0.00343453 0)
(0.0657982 0.00343543 0)
(0.0644236 0.00343595 0)
(0.0630488 0.00343611 0)
(0.0616741 0.00343594 0)
(0.0602995 0.00343546 0)
(0.0589252 0.0034347 0)
(0.0575513 0.00343367 0)
(0.0561778 0.00343239 0)
(0.054805 0.00343089 0)
(0.0534328 0.00342918 0)
(0.0520613 0.00342729 0)
(0.0506906 0.00342522 0)
(0.0493208 0.00342301 0)
(0.047952 0.00342066 0)
(0.0465841 0.0034182 0)
(0.0452172 0.00341564 0)
(0.0438514 0.00341299 0)
(0.0424867 0.00341027 0)
(0.0411231 0.0034075 0)
(0.0397606 0.00340468 0)
(0.0383993 0.00340184 0)
(0.0370391 0.00339898 0)
(0.0356801 0.00339612 0)
(0.0343223 0.00339327 0)
(0.0329656 0.00339043 0)
(0.03161 0.00338763 0)
(0.0302555 0.00338487 0)
(0.0289022 0.00338216 0)
(0.0275499 0.00337952 0)
(0.0261987 0.00337694 0)
(0.0248485 0.00337444 0)
(0.0234993 0.00337203 0)
(0.022151 0.00336971 0)
(0.0208037 0.00336749 0)
(0.0194572 0.00336537 0)
(0.0181116 0.00336337 0)
(0.0167668 0.00336149 0)
(0.0154226 0.00335974 0)
(0.0140792 0.00335811 0)
(0.0127364 0.00335662 0)
(0.0113941 0.00335527 0)
(0.0100524 0.00335405 0)
(0.00871116 0.00335299 0)
(0.0073703 0.00335207 0)
(0.00602978 0.00335129 0)
(0.00468954 0.00335067 0)
(0.00334952 0.00335021 0)
(0.00200965 0.0033499 0)
(0.000669872 0.00334975 0)
(0.00069019 -0.00483259 0)
(0.00207061 -0.00483287 0)
(0.00345115 -0.00483342 0)
(0.00483189 -0.00483426 0)
(0.00621291 -0.00483536 0)
(0.00759429 -0.00483674 0)
(0.00897611 -0.00483838 0)
(0.0103584 -0.00484029 0)
(0.0117414 -0.00484246 0)
(0.0131249 -0.00484489 0)
(0.0145093 -0.00484756 0)
(0.0158944 -0.00485047 0)
(0.0172804 -0.00485361 0)
(0.0186673 -0.00485698 0)
(0.0200553 -0.00486057 0)
(0.0214443 -0.00486436 0)
(0.0228344 -0.00486834 0)
(0.0242258 -0.00487251 0)
(0.0256183 -0.00487684 0)
(0.0270121 -0.00488134 0)
(0.0284073 -0.00488598 0)
(0.0298038 -0.00489075 0)
(0.0312017 -0.00489563 0)
(0.0326011 -0.00490061 0)
(0.0340019 -0.00490566 0)
(0.0354042 -0.00491078 0)
(0.036808 -0.00491594 0)
(0.0382132 -0.00492112 0)
(0.03962 -0.0049263 0)
(0.0410283 -0.00493146 0)
(0.0424381 -0.00493658 0)
(0.0438494 -0.00494162 0)
(0.0452621 -0.00494657 0)
(0.0466763 -0.0049514 0)
(0.0480919 -0.00495608 0)
(0.0495088 -0.00496058 0)
(0.050927 -0.00496488 0)
(0.0523464 -0.00496894 0)
(0.053767 -0.00497274 0)
(0.0551887 -0.00497623 0)
(0.0566114 -0.00497939 0)
(0.058035 -0.00498218 0)
(0.0594593 -0.00498457 0)
(0.0608844 -0.00498652 0)
(0.0623099 -0.00498798 0)
(0.0637359 -0.00498892 0)
(0.0651621 -0.00498931 0)
(0.0665884 -0.00498909 0)
(0.0680146 -0.00498824 0)
(0.0694405 -0.00498669 0)
(0.0708659 -0.00498442 0)
(0.0722906 -0.00498136 0)
(0.0737144 -0.00497749 0)
(0.075137 -0.00497275 0)
(0.0765582 -0.00496709 0)
(0.0779777 -0.00496046 0)
(0.0793952 -0.00495282 0)
(0.0808105 -0.00494411 0)
(0.0822231 -0.00493429 0)
(0.0836329 -0.0049233 0)
(0.0850394 -0.00491109 0)
(0.0864423 -0.00489761 0)
(0.0878413 -0.00488281 0)
(0.0892358 -0.00486664 0)
(0.0906257 -0.00484903 0)
(0.0920103 -0.00482995 0)
(0.0933893 -0.00480933 0)
(0.0947623 -0.00478713 0)
(0.0961288 -0.00476329 0)
(0.0974883 -0.00473777 0)
(0.0988403 -0.00471051 0)
(0.100184 -0.00468146 0)
(0.10152 -0.00465058 0)
(0.102846 -0.00461781 0)
(0.104163 -0.00458312 0)
(0.10547 -0.00454645 0)
(0.106766 -0.00450776 0)
(0.108051 -0.00446701 0)
(0.109324 -0.00442417 0)
(0.110584 -0.00437919 0)
(0.111832 -0.00433204 0)
(0.113065 -0.00428268 0)
(0.114284 -0.00423109 0)
(0.115488 -0.00417724 0)
(0.116677 -0.0041211 0)
(0.117849 -0.00406266 0)
(0.119004 -0.00400189 0)
(0.120141 -0.00393878 0)
(0.12126 -0.00387332 0)
(0.12236 -0.0038055 0)
(0.123441 -0.00373531 0)
(0.124501 -0.00366277 0)
(0.125539 -0.00358786 0)
(0.126556 -0.00351061 0)
(0.127551 -0.00343102 0)
(0.128523 -0.00334911 0)
(0.12947 -0.0032649 0)
(0.130394 -0.00317842 0)
(0.131292 -0.00308969 0)
(0.132165 -0.00299877 0)
(0.133011 -0.00290567 0)
(0.13383 -0.00281045 0)
(0.134622 -0.00271316 0)
(0.135386 -0.00261385 0)
(0.13612 -0.00251258 0)
(0.136826 -0.00240941 0)
(0.137502 -0.0023044 0)
(0.138147 -0.00219763 0)
(0.138762 -0.00208917 0)
(0.139345 -0.0019791 0)
(0.139896 -0.00186751 0)
(0.140415 -0.00175447 0)
(0.140902 -0.00164009 0)
(0.141356 -0.00152444 0)
(0.141776 -0.00140763 0)
(0.142163 -0.00128975 0)
(0.142515 -0.00117091 0)
(0.142834 -0.0010512 0)
(0.143118 -0.000930743 0)
(0.143367 -0.000809631 0)
(0.143582 -0.000687977 0)
(0.143761 -0.00056589 0)
(0.143906 -0.000443479 0)
(0.144015 -0.000320856 0)
(0.14409 -0.000198131 0)
(0.144129 -7.54145e-05 0)
(0.144132 4.71826e-05 0)
(0.144101 0.000169551 0)
(0.144035 0.000291581 0)
(0.143933 0.000413166 0)
(0.143797 0.000534199 0)
(0.143626 0.000654576 0)
(0.143421 0.000774195 0)
(0.143182 0.000892955 0)
(0.142909 0.00101076 0)
(0.142602 0.00112751 0)
(0.142262 0.00124312 0)
(0.141889 0.0013575 0)
(0.141483 0.00147055 0)
(0.141045 0.00158221 0)
(0.140575 0.00169239 0)
(0.140074 0.00180101 0)
(0.139542 0.00190801 0)
(0.13898 0.00201332 0)
(0.138387 0.00211687 0)
(0.137766 0.00221861 0)
(0.137115 0.00231848 0)
(0.136436 0.00241643 0)
(0.135729 0.00251241 0)
(0.134996 0.00260638 0)
(0.134235 0.00269831 0)
(0.133449 0.00278816 0)
(0.132637 0.00287589 0)
(0.1318 0.00296149 0)
(0.130939 0.00304493 0)
(0.130055 0.0031262 0)
(0.129147 0.00320527 0)
(0.128218 0.00328215 0)
(0.127267 0.00335682 0)
(0.126294 0.00342928 0)
(0.125302 0.00349953 0)
(0.124289 0.00356758 0)
(0.123258 0.00363343 0)
(0.122208 0.0036971 0)
(0.12114 0.00375858 0)
(0.120055 0.00381792 0)
(0.118953 0.00387511 0)
(0.117835 0.00393018 0)
(0.116702 0.00398316 0)
(0.115554 0.00403407 0)
(0.114392 0.00408294 0)
(0.113216 0.0041298 0)
(0.112027 0.00417468 0)
(0.110826 0.00421761 0)
(0.109613 0.00425864 0)
(0.108388 0.00429778 0)
(0.107152 0.00433509 0)
(0.105906 0.0043706 0)
(0.10465 0.00440436 0)
(0.103385 0.00443639 0)
(0.102111 0.00446675 0)
(0.100829 0.00449547 0)
(0.0995386 0.0045226 0)
(0.0982408 0.00454818 0)
(0.096936 0.00457226 0)
(0.0956245 0.00459488 0)
(0.0943069 0.00461608 0)
(0.0929834 0.0046359 0)
(0.0916545 0.0046544 0)
(0.0903206 0.00467161 0)
(0.088982 0.00468759 0)
(0.0876391 0.00470236 0)
(0.0862922 0.00471598 0)
(0.0849416 0.00472849 0)
(0.0835876 0.00473994 0)
(0.0822305 0.00475036 0)
(0.0808707 0.00475979 0)
(0.0795084 0.00476829 0)
(0.0781438 0.00477588 0)
(0.0767772 0.00478262 0)
(0.0754089 0.00478853 0)
(0.074039 0.00479366 0)
(0.0726678 0.00479805 0)
(0.0712955 0.00480173 0)
(0.0699223 0.00480475 0)
(0.0685484 0.00480713 0)
(0.067174 0.00480891 0)
(0.0657991 0.00481013 0)
(0.064424 0.00481082 0)
(0.0630489 0.00481102 0)
(0.0616737 0.00481075 0)
(0.0602988 0.00481005 0)
(0.0589242 0.00480895 0)
(0.0575499 0.00480748 0)
(0.0561762 0.00480566 0)
(0.0548031 0.00480353 0)
(0.0534306 0.00480111 0)
(0.0520589 0.00479844 0)
(0.0506881 0.00479552 0)
(0.0493181 0.0047924 0)
(0.0479491 0.00478909 0)
(0.0465811 0.00478562 0)
(0.0452141 0.00478201 0)
(0.0438482 0.00477828 0)
(0.0424834 0.00477446 0)
(0.0411198 0.00477055 0)
(0.0397573 0.00476659 0)
(0.0383959 0.0047626 0)
(0.0370357 0.00475858 0)
(0.0356767 0.00475455 0)
(0.0343189 0.00475054 0)
(0.0329622 0.00474656 0)
(0.0316067 0.00474263 0)
(0.0302523 0.00473875 0)
(0.028899 0.00473495 0)
(0.0275468 0.00473123 0)
(0.0261957 0.00472761 0)
(0.0248456 0.0047241 0)
(0.0234965 0.00472071 0)
(0.0221483 0.00471745 0)
(0.0208011 0.00471433 0)
(0.0194548 0.00471137 0)
(0.0181093 0.00470856 0)
(0.0167646 0.00470592 0)
(0.0154206 0.00470345 0)
(0.0140773 0.00470117 0)
(0.0127347 0.00469908 0)
(0.0113926 0.00469718 0)
(0.0100511 0.00469547 0)
(0.00870997 0.00469398 0)
(0.00736929 0.00469268 0)
(0.00602895 0.0046916 0)
(0.00468889 0.00469073 0)
(0.00334905 0.00469008 0)
(0.00200937 0.00468965 0)
(0.000669779 0.00468943 0)
(0.000690029 -0.00621284 0)
(0.00207013 -0.00621321 0)
(0.00345035 -0.00621393 0)
(0.00483077 -0.006215 0)
(0.00621148 -0.00621643 0)
(0.00759255 -0.0062182 0)
(0.00897406 -0.00622033 0)
(0.0103561 -0.00622279 0)
(0.0117387 -0.00622559 0)
(0.013122 -0.00622871 0)
(0.014506 -0.00623216 0)
(0.0158909 -0.00623592 0)
(0.0172766 -0.00623997 0)
(0.0186633 -0.00624432 0)
(0.020051 -0.00624895 0)
(0.0214398 -0.00625384 0)
(0.0228297 -0.00625898 0)
(0.0242209 -0.00626436 0)
(0.0256132 -0.00626996 0)
(0.0270069 -0.00627576 0)
(0.0284019 -0.00628175 0)
(0.0297983 -0.00628791 0)
(0.031196 -0.00629421 0)
(0.0325953 -0.00630064 0)
(0.033996 -0.00630718 0)
(0.0353982 -0.00631379 0)
(0.036802 -0.00632046 0)
(0.0382072 -0.00632716 0)
(0.039614 -0.00633386 0)
(0.0410224 -0.00634053 0)
(0.0424322 -0.00634714 0)
(0.0438436 -0.00635367 0)
(0.0452564 -0.00636008 0)
(0.0466708 -0.00636634 0)
(0.0480865 -0.0063724 0)
(0.0495036 -0.00637825 0)
(0.0509221 -0.00638382 0)
(0.0523418 -0.0063891 0)
(0.0537628 -0.00639404 0)
(0.0551848 -0.00639859 0)
(0.0566079 -0.00640271 0)
(0.0580319 -0.00640636 0)
(0.0594568 -0.00640949 0)
(0.0608823 -0.00641206 0)
(0.0623085 -0.00641401 0)
(0.063735 -0.00641529 0)
(0.0651619 -0.00641586 0)
(0.0665889 -0.00641565 0)
(0.0680158 -0.00641462 0)
(0.0694426 -0.00641271 0)
(0.0708688 -0.00640987 0)
(0.0722944 -0.00640602 0)
(0.0737192 -0.00640112 0)
(0.0751428 -0.0063951 0)
(0.0765651 -0.00638791 0)
(0.0779857 -0.00637948 0)
(0.0794044 -0.00636974 0)
(0.0808209 -0.00635863 0)
(0.0822349 -0.00634609 0)
(0.083646 -0.00633205 0)
(0.085054 -0.00631644 0)
(0.0864583 -0.0062992 0)
(0.0878588 -0.00628026 0)
(0.089255 -0.00625955 0)
(0.0906465 -0.00623701 0)
(0.0920329 -0.00621256 0)
(0.0934137 -0.00618614 0)
(0.0947885 -0.00615769 0)
(0.0961569 -0.00612713 0)
(0.0975184 -0.0060944 0)
(0.0988724 -0.00605943 0)
(0.100219 -0.00602217 0)
(0.101556 -0.00598254 0)
(0.102885 -0.00594049 0)
(0.104204 -0.00589596 0)
(0.105513 -0.00584889 0)
(0.106811 -0.00579922 0)
(0.108099 -0.0057469 0)
(0.109374 -0.00569188 0)
(0.110637 -0.00563411 0)
(0.111887 -0.00557354 0)
(0.113123 -0.00551013 0)
(0.114344 -0.00544385 0)
(0.115551 -0.00537466 0)
(0.116742 -0.00530252 0)
(0.117917 -0.00522741 0)
(0.119075 -0.0051493 0)
(0.120215 -0.00506818 0)
(0.121336 -0.00498402 0)
(0.122439 -0.00489683 0)
(0.123522 -0.00480659 0)
(0.124585 -0.00471331 0)
(0.125626 -0.00461699 0)
(0.126646 -0.00451764 0)
(0.127643 -0.00441528 0)
(0.128618 -0.00430993 0)
(0.129568 -0.00420162 0)
(0.130494 -0.00409038 0)
(0.131395 -0.00397624 0)
(0.13227 -0.00385927 0)
(0.133119 -0.0037395 0)
(0.13394 -0.00361699 0)
(0.134734 -0.00349181 0)
(0.1355 -0.00336403 0)
(0.136237 -0.00323371 0)
(0.136945 -0.00310095 0)
(0.137623 -0.00296582 0)
(0.13827 -0.00282842 0)
(0.138886 -0.00268884 0)
(0.139471 -0.00254718 0)
(0.140025 -0.00240355 0)
(0.140545 -0.00225807 0)
(0.141034 -0.00211084 0)
(0.141489 -0.00196199 0)
(0.14191 -0.00181163 0)
(0.142298 -0.0016599 0)
(0.142652 -0.00150693 0)
(0.142971 -0.00135285 0)
(0.143256 -0.00119779 0)
(0.143506 -0.00104189 0)
(0.143721 -0.000885287 0)
(0.143901 -0.000728129 0)
(0.144046 -0.000570555 0)
(0.144156 -0.000412707 0)
(0.14423 -0.000254727 0)
(0.144269 -9.67601e-05 0)
(0.144272 6.10528e-05 0)
(0.144241 0.00021857 0)
(0.144174 0.00037565 0)