/*--------------------------------*- C++ -*----------------------------------*\
| =========                 |                                                 |
| \\      /  F ield         | OpenFOAM: The Open Source CFD Toolbox           |
|  \\    /   O peration     | Version:  v2012                                 |
|   \\  /    A nd           | Website:  www.openfoam.com                      |
|    \\/     M anipulation  |                                                 |
\*---------------------------------------------------------------------------*/
FoamFile
{
    version     2.0;
    format      ascii;
    class       surfaceScalarField;
    location    "19.4";
    object      phi;
}
// * * * * * * * * * * * * * * * * * * * * * * * * * * * * * * * * * * * * * //

dimensions      [0 3 -1 0 0 0 0];
oriented        oriented;


internalField   nonuniform List<scalar> 
130560
(
3.2094e-06
-3.2094e-06
6.41893e-06
-3.20953e-06
9.62872e-06
-3.20979e-06
1.28389e-05
-3.21017e-06
1.60496e-05
-3.21067e-06
1.92609e-05
-3.21131e-06
2.24729e-05
-3.21206e-06
2.56859e-05
-3.21293e-06
2.88998e-05
-3.21393e-06
3.21148e-05
-3.21504e-06
3.53311e-05
-3.21626e-06
3.85487e-05
-3.21759e-06
4.17677e-05
-3.21903e-06
4.49883e-05
-3.22057e-06
4.82105e-05
-3.22221e-06
5.14345e-05
-3.22395e-06
5.46602e-05
-3.22577e-06
5.78879e-05
-3.22767e-06
6.11176e-05
-3.22966e-06
6.43493e-05
-3.23171e-06
6.75831e-05
-3.23383e-06
7.08191e-05
-3.236e-06
7.40573e-05
-3.23823e-06
7.72978e-05
-3.2405e-06
8.05406e-05
-3.2428e-06
8.37858e-05
-3.24513e-06
8.70332e-05
-3.24748e-06
9.02831e-05
-3.24984e-06
9.35353e-05
-3.25219e-06
9.67898e-05
-3.25454e-06
0.000100047
-3.25686e-06
0.000103306
-3.25914e-06
0.000106567
-3.26138e-06
0.000109831
-3.26356e-06
0.000113096
-3.26567e-06
0.000116364
-3.2677e-06
0.000119634
-3.26963e-06
0.000122905
-3.27145e-06
0.000126178
-3.27314e-06
0.000129453
-3.27469e-06
0.000132729
-3.27609e-06
0.000136006
-3.27731e-06
0.000139285
-3.27834e-06
0.000142564
-3.27916e-06
0.000145844
-3.27975e-06
0.000149124
-3.2801e-06
0.000152404
-3.28019e-06
0.000155684
-3.27999e-06
0.000158963
-3.27949e-06
0.000162242
-3.27866e-06
0.00016552
-3.27749e-06
0.000168796
-3.27595e-06
0.00017207
-3.27401e-06
0.000175341
-3.27166e-06
0.00017861
-3.26888e-06
0.000181876
-3.26563e-06
0.000185138
-3.26189e-06
0.000188395
-3.25764e-06
0.000191648
-3.25284e-06
0.000194896
-3.24749e-06
0.000198137
-3.24154e-06
0.000201372
-3.23496e-06
0.0002046
-3.22775e-06
0.00020782
-3.21985e-06
0.000211031
-3.21125e-06
0.000214233
-3.20191e-06
0.000217425
-3.19181e-06
0.000220606
-3.18092e-06
0.000223775
-3.1692e-06
0.000226931
-3.15663e-06
0.000230075
-3.14318e-06
0.000233203
-3.12881e-06
0.000236317
-3.11349e-06
0.000239414
-3.09721e-06
0.000242494
-3.07991e-06
0.000245556
-3.06158e-06
0.000248598
-3.04218e-06
0.000251619
-3.02169e-06
0.00025462
-3.00007e-06
0.000257597
-2.9773e-06
0.00026055
-2.95335e-06
0.000263478
-2.92819e-06
0.00026638
-2.90178e-06
0.000269254
-2.87412e-06
0.000272099
-2.84516e-06
0.000274914
-2.81489e-06
0.000277698
-2.78328e-06
0.000280448
-2.75031e-06
0.000283164
-2.71595e-06
0.000285844
-2.6802e-06
0.000288487
-2.64302e-06
0.000291092
-2.60441e-06
0.000293656
-2.56434e-06
0.000296179
-2.52281e-06
0.000298658
-2.47979e-06
0.000301094
-2.43529e-06
0.000303483
-2.38929e-06
0.000305825
-2.34179e-06
0.000308118
-2.29279e-06
0.00031036
-2.24228e-06
0.00031255
-2.19026e-06
0.000314687
-2.13674e-06
0.000316769
-2.08172e-06
0.000318794
-2.02522e-06
0.000320761
-1.96724e-06
0.000322669
-1.90781e-06
0.000324516
-1.84693e-06
0.0003263
-1.78462e-06
0.000328021
-1.72092e-06
0.000329677
-1.65584e-06
0.000331267
-1.58942e-06
0.000332788
-1.52168e-06
0.000334241
-1.45266e-06
0.000335623
-1.3824e-06
0.000336934
-1.31094e-06
0.000338173
-1.23833e-06
0.000339337
-1.1646e-06
0.000340427
-1.0898e-06
0.000341441
-1.014e-06
0.000342378
-9.37237e-07
0.000343238
-8.59573e-07
0.000344019
-7.81066e-07
0.000344721
-7.01778e-07
0.000345342
-6.2177e-07
0.000345884
-5.4111e-07
0.000346343
-4.59863e-07
0.000346722
-3.78097e-07
0.000347017
-2.95883e-07
0.000347231
-2.13293e-07
0.000347361
-1.30397e-07
0.000347408
-4.72693e-08
0.000347372
3.60159e-08
0.000347253
1.19385e-07
0.00034705
2.02762e-07
0.000346764
2.86074e-07
0.000346395
3.69245e-07
0.000345943
4.52201e-07
0.000345408
5.34868e-07
0.000344791
6.17174e-07
0.000344092
6.99047e-07
0.000343311
7.80415e-07
0.00034245
8.61209e-07
0.000341509
9.41361e-07
0.000340488
1.02081e-06
0.000339388
1.09948e-06
0.000338211
1.17731e-06
0.000336957
1.25425e-06
0.000335627
1.33024e-06
0.000334221
1.40521e-06
0.000332742
1.47913e-06
0.00033119
1.55193e-06
0.000329567
1.62357e-06
0.000327873
1.69401e-06
0.000326109
1.76319e-06
0.000324278
1.83109e-06
0.000322381
1.89767e-06
0.000320418
1.96289e-06
0.000318391
2.02673e-06
0.000316302
2.08915e-06
0.000314152
2.15013e-06
0.000311942
2.20966e-06
0.000309674
2.2677e-06
0.00030735
2.32426e-06
0.000304971
2.3793e-06
0.000302538
2.43284e-06
0.000300053
2.48485e-06
0.000297518
2.53533e-06
0.000294934
2.58428e-06
0.000292302
2.63171e-06
0.000289624
2.67761e-06
0.000286902
2.72199e-06
0.000284137
2.76486e-06
0.000281331
2.80623e-06
0.000278485
2.84611e-06
0.000275601
2.88451e-06
0.000272679
2.92146e-06
0.000269722
2.95696e-06
0.000266731
2.99103e-06
0.000263707
3.0237e-06
0.000260652
3.05499e-06
0.000257567
3.08493e-06
0.000254454
3.11353e-06
0.000251313
3.14082e-06
0.000248146
3.16682e-06
0.000244955
3.19158e-06
0.00024174
3.21511e-06
0.000238502
3.23744e-06
0.000235244
3.2586e-06
0.000231965
3.27862e-06
0.000228667
3.29754e-06
0.000225352
3.31538e-06
0.00022202
3.33218e-06
0.000218672
3.34797e-06
0.000215309
3.36277e-06
0.000211933
3.37662e-06
0.000208543
3.38955e-06
0.000205141
3.4016e-06
0.000201729
3.4128e-06
0.000198305
3.42317e-06
0.000194873
3.43274e-06
0.000191431
3.44156e-06
0.000187981
3.44965e-06
0.000184524
3.45704e-06
0.000181061
3.46375e-06
0.000177591
3.46983e-06
0.000174116
3.4753e-06
0.000170635
3.48019e-06
0.000167151
3.48453e-06
0.000163662
3.48834e-06
0.000160171
3.49165e-06
0.000156676
3.4945e-06
0.000153179
3.4969e-06
0.000149681
3.49888e-06
0.00014618
3.50047e-06
0.000142678
3.50169e-06
0.000139176
3.50257e-06
0.000135673
3.50313e-06
0.000132169
3.50338e-06
0.000128666
3.50337e-06
0.000125163
3.5031e-06
0.00012166
3.5026e-06
0.000118158
3.50188e-06
0.000114657
3.50097e-06
0.000111157
3.49989e-06
0.000107659
3.49866e-06
0.000104162
3.49728e-06
0.000100666
3.49579e-06
9.71716e-05
3.49419e-06
9.36791e-05
3.49251e-06
9.01883e-05
3.49075e-06
8.66994e-05
3.48894e-06
8.32123e-05
3.48708e-06
7.97271e-05
3.48519e-06
7.62438e-05
3.48329e-06
7.27624e-05
3.48138e-06
6.92829e-05
3.47948e-06
6.58053e-05
3.4776e-06
6.23296e-05
3.47575e-06
5.88557e-05
3.47394e-06
5.53835e-05
3.47218e-06
5.1913e-05
3.47047e-06
4.84442e-05
3.46883e-06
4.49769e-05
3.46727e-06
4.15111e-05
3.46579e-06
3.80467e-05
3.46439e-06
3.45836e-05
3.46309e-06
3.11217e-05
3.46189e-06
2.76609e-05
3.4608e-06
2.42011e-05
3.45982e-06
2.07422e-05
3.45895e-06
1.7284e-05
3.45819e-06
1.38264e-05
3.45756e-06
1.03694e-05
3.45705e-06
6.9127e-06
3.45667e-06
3.45629e-06
3.45642e-06
3.45629e-06
3.20928e-06
-6.41868e-06
6.41869e-06
-6.41894e-06
9.62835e-06
-6.41945e-06
1.28384e-05
-6.42021e-06
1.6049e-05
-6.42123e-06
1.92601e-05
-6.42249e-06
2.24721e-05
-6.424e-06
2.56849e-05
-6.42575e-06
2.88987e-05
-6.42774e-06
3.21136e-05
-6.42997e-06
3.53298e-05
-6.43242e-06
3.85473e-05
-6.43509e-06
4.17662e-05
-6.43797e-06
4.49867e-05
-6.44106e-06
4.82088e-05
-6.44434e-06
5.14327e-05
-6.44781e-06
5.46584e-05
-6.45146e-06
5.7886e-05
-6.45527e-06
6.11156e-05
-6.45924e-06
6.43472e-05
-6.46336e-06
6.7581e-05
-6.4676e-06
7.0817e-05
-6.47196e-06
7.40551e-05
-6.47642e-06
7.72956e-05
-6.48097e-06
8.05384e-05
-6.48559e-06
8.37835e-05
-6.49026e-06
8.7031e-05
-6.49496e-06
9.02808e-05
-6.49968e-06
9.3533e-05
-6.5044e-06
9.67876e-05
-6.5091e-06
0.000100045
-6.51375e-06
0.000103304
-6.51833e-06
0.000106565
-6.52282e-06
0.000109829
-6.5272e-06
0.000113095
-6.53144e-06
0.000116362
-6.5355e-06
0.000119632
-6.53938e-06
0.000122904
-6.54303e-06
0.000126177
-6.54643e-06
0.000129452
-6.54955e-06
0.000132728
-6.55235e-06
0.000136006
-6.55481e-06
0.000139284
-6.55689e-06
0.000142564
-6.55855e-06
0.000145844
-6.55976e-06
0.000149124
-6.56048e-06
0.000152404
-6.56067e-06
0.000155685
-6.56029e-06
0.000158964
-6.55931e-06
0.000162244
-6.55768e-06
0.000165521
-6.55535e-06
0.000168798
-6.55229e-06
0.000172072
-6.54844e-06
0.000175344
-6.54377e-06
0.000178614
-6.53822e-06
0.00018188
-6.53174e-06
0.000185142
-6.52429e-06
0.0001884
-6.51581e-06
0.000191654
-6.50626e-06
0.000194902
-6.49557e-06
0.000198144
-6.4837e-06
0.00020138
-6.47058e-06
0.000204608
-6.45617e-06
0.000207829
-6.44041e-06
0.000211041
-6.42323e-06
0.000214243
-6.40459e-06
0.000217436
-6.38442e-06
0.000220618
-6.36266e-06
0.000223788
-6.33926e-06
0.000226945
-6.31415e-06
0.000230089
-6.28727e-06
0.000233219
-6.25856e-06
0.000236333
-6.22797e-06
0.000239432
-6.19542e-06
0.000242513
-6.16086e-06
0.000245575
-6.12423e-06
0.000248619
-6.08546e-06
0.000251641
-6.04451e-06
0.000254643
-6.0013e-06
0.000257621
-5.95579e-06
0.000260576
-5.90791e-06
0.000263505
-5.85761e-06
0.000266408
-5.80483e-06
0.000269284
-5.74952e-06
0.00027213
-5.69164e-06
0.000274946
-5.63112e-06
0.000277731
-5.56792e-06
0.000280483
-5.502e-06
0.0002832
-5.43331e-06
0.000285882
-5.36182e-06
0.000288526
-5.28748e-06
0.000291132
-5.21027e-06
0.000293698
-5.13015e-06
0.000296222
-5.04709e-06
0.000298703
-4.96108e-06
0.00030114
-4.87208e-06
0.000303531
-4.78009e-06
0.000305874
-4.68509e-06
0.000308168
-4.58708e-06
0.000310412
-4.48605e-06
0.000312604
-4.38201e-06
0.000314742
-4.27497e-06
0.000316825
-4.16493e-06
0.000318852
-4.05191e-06
0.000320821
-3.93595e-06
0.00032273
-3.81705e-06
0.000324578
-3.69527e-06
0.000326364
-3.57064e-06
0.000328087
-3.44321e-06
0.000329744
-3.31302e-06
0.000331335
-3.18015e-06
0.000332858
-3.04464e-06
0.000334311
-2.90656e-06
0.000335695
-2.76601e-06
0.000337007
-2.62304e-06
0.000338247
-2.47776e-06
0.000339412
-2.33025e-06
0.000340503
-2.18062e-06
0.000341518
-2.02895e-06
0.000342456
-1.87537e-06
0.000343317
-1.71998e-06
0.000344098
-1.56291e-06
0.000344801
-1.40427e-06
0.000345423
-1.24419e-06
0.000345965
-1.0828e-06
0.000346425
-9.2024e-07
0.000346804
-7.56639e-07
0.0003471
-5.9214e-07
0.000347314
-4.26886e-07
0.000347444
-2.61021e-07
0.000347492
-9.46926e-08
0.000347456
7.19523e-08
0.000347336
2.38764e-07
0.000347134
4.05594e-07
0.000346847
5.72292e-07
0.000346478
7.38708e-07
0.000346025
9.04694e-07
0.00034549
1.0701e-06
0.000344873
1.23479e-06
0.000344173
1.3986e-06
0.000343392
1.56141e-06
0.00034253
1.72306e-06
0.000341588
1.88344e-06
0.000340567
2.04239e-06
0.000339466
2.19979e-06
0.000338288
2.35552e-06
0.000337033
2.50946e-06
0.000335702
2.66149e-06
0.000334295
2.81149e-06
0.000332815
2.95937e-06
0.000331262
3.10502e-06
0.000329637
3.24835e-06
0.000327942
3.38926e-06
0.000326177
3.52768e-06
0.000324345
3.66352e-06
0.000322446
3.79671e-06
0.000320482
3.92718e-06
0.000318454
4.05488e-06
0.000316363
4.17974e-06
0.000314211
4.30173e-06
0.000312
4.4208e-06
0.000309731
4.5369e-06
0.000307405
4.65002e-06
0.000305024
4.76013e-06
0.00030259
4.8672e-06
0.000300104
4.97122e-06
0.000297567
5.07219e-06
0.000294981
5.1701e-06
0.000292348
5.26495e-06
0.000289669
5.35674e-06
0.000286945
5.4455e-06
0.000284179
5.53123e-06
0.000281371
5.61396e-06
0.000278523
5.6937e-06
0.000275637
5.77049e-06
0.000272715
5.84436e-06
0.000269756
5.91534e-06
0.000266764
5.98347e-06
0.000263739
6.04879e-06
0.000260682
6.11135e-06
0.000257596
6.17119e-06
0.000254481
6.22836e-06
0.000251339
6.28292e-06
0.000248171
6.33491e-06
0.000244978
6.38438e-06
0.000241762
6.43141e-06
0.000238523
6.47604e-06
0.000235264
6.51834e-06
0.000231984
6.55836e-06
0.000228685
6.59616e-06
0.000225369
6.63182e-06
0.000222036
6.66538e-06
0.000218687
6.69691e-06
0.000215323
6.72649e-06
0.000211945
6.75416e-06
0.000208555
6.78e-06
0.000205152
6.80406e-06
0.000201739
6.82641e-06
0.000198315
6.84712e-06
0.000194881
6.86625e-06
0.000191439
6.88385e-06
0.000187989
6.9e-06
0.000184531
6.91474e-06
0.000181067
6.92815e-06
0.000177596
6.94028e-06
0.00017412
6.95119e-06
0.00017064
6.96094e-06
0.000167155
6.96958e-06
0.000163666
6.97717e-06
0.000160174
6.98378e-06
0.000156679
6.98944e-06
0.000153181
6.99421e-06
0.000149682
6.99815e-06
0.000146181
7.00131e-06
0.000142679
7.00372e-06
0.000139176
7.00546e-06
0.000135673
7.00655e-06
0.000132169
7.00704e-06
0.000128666
7.00699e-06
0.000125162
7.00643e-06
0.000121659
7.0054e-06
0.000118157
7.00395e-06
0.000114656
7.00212e-06
0.000111156
6.99994e-06
0.000107657
6.99745e-06
0.00010416
6.99468e-06
0.000100664
6.99168e-06
9.71698e-05
6.98847e-06
9.36773e-05
6.98508e-06
9.01865e-05
6.98156e-06
8.66975e-05
6.97791e-06
8.32104e-05
6.97419e-06
7.97252e-05
6.9704e-06
7.62419e-05
6.96658e-06
7.27605e-05
6.96276e-06
6.9281e-05
6.95895e-06
6.58035e-05
6.95517e-06
6.23277e-05
6.95146e-06
5.88539e-05
6.94783e-06
5.53817e-05
6.94429e-06
5.19113e-05
6.94087e-06
4.84426e-05
6.93759e-06
4.49754e-05
6.93445e-06
4.15097e-05
6.93148e-06
3.80454e-05
6.92869e-06
3.45824e-05
6.92608e-06
3.11206e-05
6.92368e-06
2.76599e-05
6.92149e-06
2.42002e-05
6.91951e-06
2.07414e-05
6.91777e-06
1.72833e-05
6.91626e-06
1.38259e-05
6.915e-06
1.0369e-05
6.91398e-06
6.91245e-06
6.91321e-06
3.45616e-06
6.9127e-06
6.91245e-06
3.20902e-06
-9.6277e-06
6.41817e-06
-9.62809e-06
9.62758e-06
-9.62886e-06
1.28374e-05
-9.63e-06
1.60477e-05
-9.63153e-06
1.92586e-05
-9.63343e-06
2.24703e-05
-9.6357e-06
2.56829e-05
-9.63833e-06
2.88965e-05
-9.64133e-06
3.21112e-05
-9.64467e-06
3.53271e-05
-9.64835e-06
3.85444e-05
-9.65236e-06
4.17631e-05
-9.6567e-06
4.49834e-05
-9.66134e-06
4.82053e-05
-9.66628e-06
5.1429e-05
-9.67149e-06
5.46545e-05
-9.67698e-06
5.7882e-05
-9.68272e-06
6.11114e-05
-9.68869e-06
6.43429e-05
-9.69487e-06
6.75766e-05
-9.70126e-06
7.08124e-05
-9.70781e-06
7.40505e-05
-9.71452e-06
7.72909e-05
-9.72137e-06
8.05337e-05
-9.72831e-06
8.37788e-05
-9.73534e-06
8.70262e-05
-9.74242e-06
9.02761e-05
-9.74953e-06
9.35283e-05
-9.75663e-06
9.67829e-05
-9.7637e-06
0.00010004
-9.77071e-06
0.000103299
-9.77761e-06
0.000106561
-9.78438e-06
0.000109824
-9.79097e-06
0.00011309
-9.79736e-06
0.000116358
-9.8035e-06
0.000119628
-9.80935e-06
0.0001229
-9.81486e-06
0.000126174
-9.82e-06
0.000129449
-9.82472e-06
0.000132726
-9.82897e-06
0.000136003
-9.83269e-06
0.000139282
-9.83585e-06
0.000142562
-9.83839e-06
0.000145843
-9.84025e-06
0.000149124
-9.84137e-06
0.000152405
-9.84171e-06
0.000155686
-9.8412e-06
0.000158966
-9.83978e-06
0.000162246
-9.83738e-06
0.000165524
-9.83395e-06
0.000168801
-9.82941e-06
0.000172077
-9.8237e-06
0.00017535
-9.81675e-06
0.00017862
-9.80849e-06
0.000181887
-9.79883e-06
0.00018515
-9.78772e-06
0.00018841
-9.77507e-06
0.000191664
-9.7608e-06
0.000194914
-9.74483e-06
0.000198157
-9.72709e-06
0.000201394
-9.70749e-06
0.000204624
-9.68595e-06
0.000207846
-9.66237e-06
0.000211059
-9.63669e-06
0.000214263
-9.6088e-06
0.000217457
-9.57862e-06
0.000220641
-9.54605e-06
0.000223813
-9.51102e-06
0.000226972
-9.47343e-06
0.000230118
-9.43319e-06
0.000233249
-9.39021e-06
0.000236366
-9.34439e-06
0.000239466
-9.29564e-06
0.000242549
-9.24388e-06
0.000245614
-9.18901e-06
0.000248659
-9.13094e-06
0.000251684
-9.06958e-06
0.000254688
-9.00484e-06
0.000257669
-8.93664e-06
0.000260626
-8.86489e-06
0.000263558
-8.78951e-06
0.000266463
-8.71041e-06
0.000269341
-8.62751e-06
0.00027219
-8.54074e-06
0.000275009
-8.45002e-06
0.000277797
-8.35528e-06
0.000280551
-8.25645e-06
0.000283271
-8.15348e-06
0.000285956
-8.04628e-06
0.000288603
-7.93482e-06
0.000291212
-7.81904e-06
0.000293781
-7.69889e-06
0.000296308
-7.57434e-06
0.000298792
-7.44534e-06
0.000301232
-7.31186e-06
0.000303626
-7.17389e-06
0.000305972
-7.0314e-06
0.000308269
-6.88439e-06
0.000310516
-6.73285e-06
0.000312711
-6.57678e-06
0.000314852
-6.41619e-06
0.000316938
-6.25111e-06
0.000318968
-6.08156e-06
0.00032094
-5.90757e-06
0.000322852
-5.72919e-06
0.000324703
-5.54647e-06
0.000326492
-5.35947e-06
0.000328217
-5.16825e-06
0.000329877
-4.9729e-06
0.00033147
-4.77351e-06
0.000332995
-4.57016e-06
0.000334452
-4.36295e-06
0.000335838
-4.15202e-06
0.000337152
-3.93747e-06
0.000338394
-3.71943e-06
0.000339562
-3.49804e-06
0.000340655
-3.27346e-06
0.000341671
-3.04583e-06
0.000342611
-2.81531e-06
0.000343474
-2.58209e-06
0.000344257
-2.34632e-06
0.000344961
-2.1082e-06
0.000345585
-1.86792e-06
0.000346127
-1.62567e-06
0.000346589
-1.38166e-06
0.000346968
-1.13608e-06
0.000347265
-8.89155e-07
0.00034748
-6.41093e-07
0.000347611
-3.92112e-07
0.000347658
-1.42434e-07
0.000347623
1.07719e-07
0.000347503
3.58124e-07
0.0003473
6.08556e-07
0.000347014
8.58789e-07
0.000346644
1.1086e-06
0.000346191
1.35776e-06
0.000345655
1.60606e-06
0.000345036
1.85326e-06
0.000344336
2.09917e-06
0.000343554
2.34355e-06
0.000342691
2.5862e-06
0.000341747
2.82693e-06
0.000340724
3.06551e-06
0.000339622
3.30178e-06
0.000338442
3.53553e-06
0.000337185
3.76658e-06
0.000335852
3.99476e-06
0.000334443
4.2199e-06
0.000332961
4.44185e-06
0.000331405
4.66044e-06
0.000329778
4.87554e-06
0.00032808
5.08702e-06
0.000326313
5.29474e-06
0.000324478
5.49858e-06
0.000322576
5.69845e-06
0.000320609
5.89424e-06
0.000318578
6.08585e-06
0.000316485
6.27321e-06
0.00031433
6.45625e-06
0.000312116
6.63489e-06
0.000309844
6.80909e-06
0.000307515
6.9788e-06
0.000305132
7.14398e-06
0.000302694
7.30461e-06
0.000300205
7.46066e-06
0.000297665
7.61211e-06
0.000295076
7.75897e-06
0.00029244
7.90123e-06
0.000289757
8.03892e-06
0.000287031
8.17203e-06
0.000284262
8.3006e-06
0.000281451
8.42466e-06
0.0002786
8.54424e-06
0.000275711
8.65939e-06
0.000272786
8.77015e-06
0.000269824
8.87657e-06
0.000266829
8.97872e-06
0.000263801
9.07664e-06
0.000260742
9.17042e-06
0.000257653
9.26012e-06
0.000254536
9.34582e-06
0.000251391
9.42758e-06
0.000248221
9.5055e-06
0.000245025
9.57964e-06
0.000241807
9.65011e-06
0.000238566
9.71698e-06
0.000235304
9.78035e-06
0.000232022
9.8403e-06
0.000228721
9.89693e-06
0.000225402
9.95034e-06
0.000222067
1.00006e-05
0.000218716
1.00478e-05
0.000215351
1.00921e-05
0.000211971
1.01335e-05
0.000208579
1.01722e-05
0.000205175
1.02082e-05
0.00020176
1.02417e-05
0.000198334
1.02727e-05
0.000194899
1.03013e-05
0.000191455
1.03276e-05
0.000188004
1.03517e-05
0.000184545
1.03738e-05
0.000181079
1.03938e-05
0.000177607
1.04119e-05
0.00017413
1.04282e-05
0.000170648
1.04428e-05
0.000167162
1.04557e-05
0.000163672
1.0467e-05
0.000160179
1.04768e-05
0.000156683
1.04853e-05
0.000153185
1.04924e-05
0.000149685
1.04982e-05
0.000146184
1.05029e-05
0.000142681
1.05064e-05
0.000139177
1.0509e-05
0.000135673
1.05106e-05
0.000132169
1.05113e-05
0.000128665
1.05111e-05
0.000125161
1.05102e-05
0.000121658
1.05086e-05
0.000118156
1.05064e-05
0.000114654
1.05036e-05
0.000111154
1.05003e-05
0.000107655
1.04965e-05
0.000104157
1.04923e-05
0.000100661
1.04878e-05
9.71665e-05
1.04829e-05
9.36738e-05
1.04778e-05
9.01828e-05
1.04725e-05
8.66938e-05
1.0467e-05
8.32066e-05
1.04614e-05
7.97214e-05
1.04556e-05
7.62381e-05
1.04499e-05
7.27567e-05
1.04441e-05
6.92773e-05
1.04384e-05
6.57998e-05
1.04327e-05
6.23241e-05
1.04271e-05
5.88503e-05
1.04216e-05
5.53783e-05
1.04163e-05
5.19081e-05
1.04111e-05
4.84395e-05
1.04062e-05
4.49724e-05
1.04015e-05
4.15069e-05
1.0397e-05
3.80428e-05
1.03928e-05
3.458e-05
1.03889e-05
3.11184e-05
1.03853e-05
2.7658e-05
1.0382e-05
2.41985e-05
1.0379e-05
2.07399e-05
1.03764e-05
1.72821e-05
1.03741e-05
1.38249e-05
1.03722e-05
1.03682e-05
1.03707e-05
6.91193e-06
1.03695e-05
3.4559e-06
1.03687e-05
1.03683e-05
3.20863e-06
-1.28363e-05
6.4174e-06
-1.28369e-05
9.62642e-06
-1.28379e-05
1.28358e-05
-1.28394e-05
1.60458e-05
-1.28415e-05
1.92563e-05
-1.2844e-05
2.24677e-05
-1.2847e-05
2.56799e-05
-1.28506e-05
2.88931e-05
-1.28546e-05
3.21075e-05
-1.2859e-05
3.53231e-05
-1.28639e-05
3.854e-05
-1.28693e-05
4.17584e-05
-1.28751e-05
4.49784e-05
-1.28813e-05
4.82001e-05
-1.28879e-05
5.14235e-05
-1.28949e-05
5.46487e-05
-1.29022e-05
5.78759e-05
-1.29099e-05
6.11052e-05
-1.29179e-05
6.43365e-05
-1.29262e-05
6.757e-05
-1.29347e-05
7.08057e-05
-1.29435e-05
7.40436e-05
-1.29525e-05
7.72839e-05
-1.29617e-05
8.05266e-05
-1.2971e-05
8.37716e-05
-1.29804e-05
8.7019e-05
-1.29899e-05
9.02689e-05
-1.29994e-05
9.35211e-05
-1.30089e-05
9.67758e-05
-1.30184e-05
0.000100033
-1.30278e-05
0.000103292
-1.3037e-05
0.000106554
-1.30461e-05
0.000109818
-1.3055e-05
0.000113084
-1.30635e-05
0.000116352
-1.30718e-05
0.000119623
-1.30796e-05
0.000122895
-1.30871e-05
0.000126169
-1.3094e-05
0.000129445
-1.31004e-05
0.000132722
-1.31061e-05
0.000136
-1.31111e-05
0.00013928
-1.31154e-05
0.00014256
-1.31189e-05
0.000145841
-1.31215e-05
0.000149123
-1.31231e-05
0.000152405
-1.31236e-05
0.000155687
-1.3123e-05
0.000158968
-1.31212e-05
0.000162249
-1.31181e-05
0.000165529
-1.31136e-05
0.000168807
-1.31077e-05
0.000172084
-1.31002e-05
0.000175358
-1.3091e-05
0.000178629
-1.30801e-05
0.000181898
-1.30674e-05
0.000185163
-1.30527e-05
0.000188424
-1.30359e-05
0.00019168
-1.3017e-05
0.000194931
-1.29959e-05
0.000198176
-1.29723e-05
0.000201415
-1.29463e-05
0.000204647
-1.29178e-05
0.000207871
-1.28865e-05
0.000211087
-1.28523e-05
0.000214293
-1.28153e-05
0.00021749
-1.27752e-05
0.000220676
-1.27319e-05
0.00022385
-1.26853e-05
0.000227012
-1.26354e-05
0.000230161
-1.25819e-05
0.000233295
-1.25247e-05
0.000236414
-1.24637e-05
0.000239518
-1.23989e-05
0.000242604
-1.233e-05
0.000245672
-1.2257e-05
0.000248721
-1.21797e-05
0.000251749
-1.2098e-05
0.000254756
-1.20118e-05
0.00025774
-1.1921e-05
0.000260701
-1.18255e-05
0.000263637
-1.17251e-05
0.000266546
-1.16198e-05
0.000269428
-1.15094e-05
0.000272281
-1.13938e-05
0.000275104
-1.12729e-05
0.000277895
-1.11467e-05
0.000280654
-1.10151e-05
0.000283378
-1.08779e-05
0.000286067
-1.0735e-05
0.000288719
-1.05865e-05
0.000291332
-1.04322e-05
0.000293905
-1.0272e-05
0.000296437
-1.0106e-05
0.000298925
-9.93407e-06
0.00030137
-9.75614e-06
0.000303768
-9.57221e-06
0.000306119
-9.38224e-06
0.000308421
-9.18623e-06
0.000310672
-8.98417e-06
0.000312871
-8.77606e-06
0.000315017
-8.56192e-06
0.000317108
-8.34177e-06
0.000319142
-8.11564e-06
0.000321118
-7.88359e-06
0.000323034
-7.64567e-06
0.00032489
-7.40195e-06
0.000326683
-7.15251e-06
0.000328412
-6.89743e-06
0.000330076
-6.63683e-06
0.000331673
-6.37082e-06
0.000333203
-6.09953e-06
0.000334663
-5.82308e-06
0.000336052
-5.54165e-06
0.00033737
-5.25537e-06
0.000338615
-4.96444e-06
0.000339786
-4.66904e-06
0.000340882
-4.36935e-06
0.000341902
-4.06559e-06
0.000342845
-3.75797e-06
0.000343709
-3.44673e-06
0.000344495
-3.13209e-06
0.000345201
-2.8143e-06
0.000345827
-2.49362e-06
0.000346371
-2.17031e-06
0.000346834
-1.84464e-06
0.000347215
-1.51688e-06
0.000347513
-1.18731e-06
0.000347728
-8.5622e-07
0.00034786
-5.23904e-07
0.000347908
-1.90654e-07
0.000347873
1.43232e-07
0.000347754
4.77454e-07
0.00034755
8.11713e-07
0.000347264
1.14571e-06
0.000346893
1.47913e-06
0.000346439
1.8117e-06
0.000345902
2.1431e-06
0.000345282
2.47304e-06
0.00034458
2.80124e-06
0.000343796
3.12741e-06
0.000342931
3.45127e-06
0.000341986
3.77255e-06
0.00034096
4.09097e-06
0.000339856
4.40628e-06
0.000338673
4.71822e-06
0.000337413
5.02656e-06
0.000336077
5.33106e-06
0.000334665
5.6315e-06
0.000333179
5.92766e-06
0.00033162
6.21935e-06
0.00032999
6.50636e-06
0.000328288
6.78852e-06
0.000326517
7.06567e-06
0.000324678
7.33763e-06
0.000322772
7.60428e-06
0.000320801
7.86546e-06
0.000318766
8.12108e-06
0.000316668
8.371e-06
0.000314509
8.61515e-06
0.000312291
8.85343e-06
0.000310014
9.08577e-06
0.000307681
9.31211e-06
0.000305292
9.53239e-06
0.00030285
9.74659e-06
0.000300356
9.95468e-06
0.000297812
1.01566e-05
0.000295218
1.03524e-05
0.000292577
1.05421e-05
0.000289891
1.07257e-05
0.000287159
1.09031e-05
0.000284386
1.10745e-05
0.00028157
1.12398e-05
0.000278715
1.13992e-05
0.000275822
1.15527e-05
0.000272892
1.17003e-05
0.000269927
1.18421e-05
0.000266927
1.19782e-05
0.000263895
1.21086e-05
0.000260832
1.22336e-05
0.000257739
1.23531e-05
0.000254618
1.24672e-05
0.000251469
1.25761e-05
0.000248295
1.26799e-05
0.000245096
1.27786e-05
0.000241873
1.28724e-05
0.000238629
1.29614e-05
0.000235364
1.30458e-05
0.000232078
1.31256e-05
0.000228774
1.32009e-05
0.000225453
1.3272e-05
0.000222114
1.33389e-05
0.000218761
1.34017e-05
0.000215392
1.34606e-05
0.00021201
1.35157e-05
0.000208615
1.35671e-05
0.000205208
1.3615e-05
0.000201791
1.36594e-05
0.000198363
1.37006e-05
0.000194925
1.37386e-05
0.000191479
1.37735e-05
0.000188026
1.38056e-05
0.000184565
1.38348e-05
0.000181097
1.38614e-05
0.000177624
1.38854e-05
0.000174145
1.3907e-05
0.000170661
1.39263e-05
0.000167174
1.39434e-05
0.000163682
1.39583e-05
0.000160188
1.39713e-05
0.000156691
1.39824e-05
0.000153191
1.39918e-05
0.00014969
1.39994e-05
0.000146187
1.40056e-05
0.000142684
1.40102e-05
0.000139179
1.40135e-05
0.000135674
1.40155e-05
0.000132169
1.40163e-05
0.000128664
1.4016e-05
0.00012516
1.40147e-05
0.000121656
1.40125e-05
0.000118153
1.40094e-05
0.000114651
1.40056e-05
0.00011115
1.40011e-05
0.000107651
1.3996e-05
0.000104153
1.39903e-05
0.000100656
1.39842e-05
9.71614e-05
1.39776e-05
9.36685e-05
1.39707e-05
9.01774e-05
1.39636e-05
8.66882e-05
1.39562e-05
8.32009e-05
1.39486e-05
7.97156e-05
1.39409e-05
7.62323e-05
1.39332e-05
7.2751e-05
1.39254e-05
6.92716e-05
1.39177e-05
6.57942e-05
1.39101e-05
6.23187e-05
1.39026e-05
5.8845e-05
1.38953e-05
5.53732e-05
1.38881e-05
5.19031e-05
1.38812e-05
4.84348e-05
1.38746e-05
4.4968e-05
1.38683e-05
4.15027e-05
1.38623e-05
3.80389e-05
1.38566e-05
3.45764e-05
1.38514e-05
3.11152e-05
1.38465e-05
2.7655e-05
1.38421e-05
2.41959e-05
1.38381e-05
2.07377e-05
1.38346e-05
1.72802e-05
1.38316e-05
1.38234e-05
1.3829e-05
1.03671e-05
1.3827e-05
6.91116e-06
1.38254e-05
3.45552e-06
1.38244e-05
1.38239e-05
3.20812e-06
-1.60445e-05
6.41636e-06
-1.60451e-05
9.62487e-06
-1.60464e-05
1.28338e-05
-1.60483e-05
1.60432e-05
-1.60509e-05
1.92533e-05
-1.60541e-05
2.24641e-05
-1.60579e-05
2.56758e-05
-1.60623e-05
2.88886e-05
-1.60673e-05
3.21025e-05
-1.60729e-05
3.53176e-05
-1.60791e-05
3.85342e-05
-1.60858e-05
4.17522e-05
-1.60931e-05
4.49718e-05
-1.61009e-05
4.8193e-05
-1.61092e-05
5.14161e-05
-1.6118e-05
5.4641e-05
-1.61272e-05
5.78679e-05
-1.61368e-05
6.10968e-05
-1.61468e-05
6.43279e-05
-1.61572e-05
6.75611e-05
-1.6168e-05
7.07966e-05
-1.6179e-05
7.40344e-05
-1.61903e-05
7.72745e-05
-1.62018e-05
8.05171e-05
-1.62135e-05
8.3762e-05
-1.62253e-05
8.70094e-05
-1.62372e-05
9.02593e-05
-1.62492e-05
9.35116e-05
-1.62612e-05
9.67663e-05
-1.62731e-05
0.000100023
-1.62849e-05
0.000103283
-1.62966e-05
0.000106545
-1.6308e-05
0.000109809
-1.63192e-05
0.000113076
-1.633e-05
0.000116344
-1.63404e-05
0.000119615
-1.63504e-05
0.000122888
-1.63598e-05
0.000126162
-1.63685e-05
0.000129439
-1.63766e-05
0.000132716
-1.63839e-05
0.000135996
-1.63903e-05
0.000139276
-1.63958e-05
0.000142558
-1.64003e-05
0.00014584
-1.64037e-05
0.000149122
-1.64058e-05
0.000152405
-1.64066e-05
0.000155688
-1.6406e-05
0.000158971
-1.64039e-05
0.000162253
-1.64002e-05
0.000165534
-1.63948e-05
0.000168814
-1.63876e-05
0.000172092
-1.63783e-05
0.000175369
-1.63671e-05
0.000178642
-1.63536e-05
0.000181913
-1.63379e-05
0.00018518
-1.63197e-05
0.000188443
-1.6299e-05
0.000191701
-1.62755e-05
0.000194954
-1.62493e-05
0.000198202
-1.62201e-05
0.000201444
-1.61878e-05
0.000204678
-1.61523e-05
0.000207905
-1.61134e-05
0.000211124
-1.60709e-05
0.000214333
-1.60248e-05
0.000217533
-1.59749e-05
0.000220722
-1.59211e-05
0.0002239
-1.58631e-05
0.000227065
-1.58008e-05
0.000230218
-1.57342e-05
0.000233356
-1.56629e-05
0.000236479
-1.5587e-05
0.000239586
-1.55061e-05
0.000242677
-1.54203e-05
0.000245749
-1.53292e-05
0.000248802
-1.52328e-05
0.000251835
-1.5131e-05
0.000254847
-1.50235e-05
0.000257836
-1.49102e-05
0.000260801
-1.4791e-05
0.000263742
-1.46657e-05
0.000266656
-1.45342e-05
0.000269543
-1.43964e-05
0.000272402
-1.42521e-05
0.00027523
-1.41012e-05
0.000278027
-1.39436e-05
0.000280791
-1.37792e-05
0.000283521
-1.36079e-05
0.000286215
-1.34294e-05
0.000288873
-1.32439e-05
0.000291492
-1.30511e-05
0.000294071
-1.28511e-05
0.000296608
-1.26437e-05
0.000299103
-1.24288e-05
0.000301553
-1.22064e-05
0.000303958
-1.19766e-05
0.000306315
-1.17391e-05
0.000308622
-1.14941e-05
0.00031088
-1.12415e-05
0.000313085
-1.09814e-05
0.000315237
-1.07137e-05
0.000317334
-1.04384e-05
0.000319374
-1.01557e-05
0.000321355
-9.86549e-06
0.000323278
-9.56796e-06
0.000325139
-9.26316e-06
0.000326938
-8.95118e-06
0.000328672
-8.63214e-06
0.000330342
-8.30618e-06
0.000331944
-7.97343e-06
0.000333479
-7.63405e-06
0.000334944
-7.28821e-06
0.000336338
-6.93611e-06
0.000337661
-6.57795e-06
0.00033891
-6.21393e-06
0.000340086
-5.84431e-06
0.000341186
-5.46931e-06
0.000342209
-5.08921e-06
0.000343156
-4.70426e-06
0.000344024
-4.31477e-06
0.000344813
-3.92101e-06
0.000345522
-3.5233e-06
0.00034615
-3.12196e-06
0.000346697
-2.71732e-06
0.000347162
-2.30971e-06
0.000347545
-1.89948e-06
0.000347844
-1.48698e-06
0.000348061
-1.07258e-06
0.000348193
-6.56633e-07
0.000348242
-2.39514e-07
0.000348207
1.78404e-07
0.000348088
5.96745e-07
0.000347884
1.01513e-06
0.000347597
1.43319e-06
0.000347225
1.85053e-06
0.00034677
2.26679e-06
0.000346232
2.68159e-06
0.00034561
3.09457e-06
0.000344906
3.50535e-06
0.00034412
3.91359e-06
0.000343252
4.31892e-06
0.000342304
4.72101e-06
0.000341275
5.11953e-06
0.000340168
5.51413e-06
0.000338981
5.90452e-06
0.000337717
6.29038e-06
0.000336377
6.67143e-06
0.000334961
7.04738e-06
0.000333471
7.41796e-06
0.000331907
7.78292e-06
0.000330272
8.14203e-06
0.000328565
8.49505e-06
0.000326789
8.84177e-06
0.000324945
9.182e-06
0.000323033
9.51555e-06
0.000321057
9.84226e-06
0.000319016
1.0162e-05
0.000316912
1.04746e-05
0.000314747
1.07799e-05
0.000312523
1.10779e-05
0.00031024
1.13684e-05
0.000307901
1.16515e-05
0.000305506
1.19269e-05
0.000303058
1.21947e-05
0.000300558
1.24548e-05
0.000298007
1.27073e-05
0.000295408
1.2952e-05
0.000292761
1.31891e-05
0.000290068
1.34185e-05
0.000287331
1.36402e-05
0.000284551
1.38544e-05
0.00028173
1.4061e-05
0.000278869
1.42601e-05
0.00027597
1.44518e-05