/*--------------------------------*- C++ -*----------------------------------*\
| =========                 |                                                 |
| \\      /  F ield         | OpenFOAM: The Open Source CFD Toolbox           |
|  \\    /   O peration     | Version:  v2012                                 |
|   \\  /    A nd           | Website:  www.openfoam.com                      |
|    \\/     M anipulation  |                                                 |
\*---------------------------------------------------------------------------*/
FoamFile
{
    version     2.0;
    format      ascii;
    class       volVectorField;
    location    "19.4";
    object      Psi;
}
// * * * * * * * * * * * * * * * * * * * * * * * * * * * * * * * * * * * * * //

dimensions      [0 2 -1 0 0 0 0];


internalField   nonuniform List<vector> 
65536
(
(0 0 8.01616e-06)
(0 0 2.40489e-05)
(0 0 4.00825e-05)
(0 0 5.61178e-05)
(0 0 7.21552e-05)
(0 0 8.81954e-05)
(0 0 0.000104239)
(0 0 0.000120287)
(0 0 0.000136339)
(0 0 0.000152396)
(0 0 0.000168459)
(0 0 0.000184528)
(0 0 0.000200605)
(0 0 0.000216688)
(0 0 0.000232779)
(0 0 0.000248879)
(0 0 0.000264987)
(0 0 0.000281104)
(0 0 0.000297231)
(0 0 0.000313368)
(0 0 0.000329515)
(0 0 0.000345672)
(0 0 0.00036184)
(0 0 0.000378019)
(0 0 0.00039421)
(0 0 0.000410412)
(0 0 0.000426625)
(0 0 0.000442849)
(0 0 0.000459085)
(0 0 0.000475333)
(0 0 0.000491592)
(0 0 0.000507862)
(0 0 0.000524143)
(0 0 0.000540435)
(0 0 0.000556737)
(0 0 0.000573049)
(0 0 0.000589371)
(0 0 0.000605702)
(0 0 0.000622042)
(0 0 0.000638389)
(0 0 0.000654743)
(0 0 0.000671103)
(0 0 0.000687469)
(0 0 0.000703839)
(0 0 0.000720212)
(0 0 0.000736587)
(0 0 0.000752963)
(0 0 0.000769339)
(0 0 0.000785712)
(0 0 0.000802082)
(0 0 0.000818446)
(0 0 0.000834804)
(0 0 0.000851152)
(0 0 0.00086749)
(0 0 0.000883814)
(0 0 0.000900123)
(0 0 0.000916414)
(0 0 0.000932686)
(0 0 0.000948934)
(0 0 0.000965157)
(0 0 0.000981352)
(0 0 0.000997515)
(0 0 0.00101364)
(0 0 0.00102973)
(0 0 0.00104578)
(0 0 0.00106179)
(0 0 0.00107774)
(0 0 0.00109365)
(0 0 0.0011095)
(0 0 0.00112528)
(0 0 0.001141)
(0 0 0.00115666)
(0 0 0.00117223)
(0 0 0.00118773)
(0 0 0.00120315)
(0 0 0.00121848)
(0 0 0.00123371)
(0 0 0.00124885)
(0 0 0.00126387)
(0 0 0.00127879)
(0 0 0.0012936)
(0 0 0.00130828)
(0 0 0.00132283)
(0 0 0.00133725)
(0 0 0.00135152)
(0 0 0.00136565)
(0 0 0.00137963)
(0 0 0.00139345)
(0 0 0.00140709)
(0 0 0.00142057)
(0 0 0.00143386)
(0 0 0.00144696)
(0 0 0.00145987)
(0 0 0.00147258)
(0 0 0.00148507)
(0 0 0.00149735)
(0 0 0.00150941)
(0 0 0.00152123)
(0 0 0.00153281)
(0 0 0.00154414)
(0 0 0.00155522)
(0 0 0.00156604)
(0 0 0.00157658)
(0 0 0.00158685)
(0 0 0.00159684)
(0 0 0.00160653)
(0 0 0.00161593)
(0 0 0.00162501)
(0 0 0.00163379)
(0 0 0.00164224)
(0 0 0.00165037)
(0 0 0.00165816)
(0 0 0.00166561)
(0 0 0.00167272)
(0 0 0.00167947)
(0 0 0.00168587)
(0 0 0.0016919)
(0 0 0.00169756)
(0 0 0.00170285)
(0 0 0.00170775)
(0 0 0.00171227)
(0 0 0.00171641)
(0 0 0.00172014)
(0 0 0.00172349)
(0 0 0.00172643)
(0 0 0.00172897)
(0 0 0.0017311)
(0 0 0.00173282)
(0 0 0.00173414)
(0 0 0.00173504)
(0 0 0.00173552)
(0 0 0.00173559)
(0 0 0.00173525)
(0 0 0.00173448)
(0 0 0.00173331)
(0 0 0.00173171)
(0 0 0.00172971)
(0 0 0.00172728)
(0 0 0.00172445)
(0 0 0.00172121)
(0 0 0.00171756)
(0 0 0.0017135)
(0 0 0.00170904)
(0 0 0.00170418)
(0 0 0.00169893)
(0 0 0.00169328)
(0 0 0.00168725)
(0 0 0.00168084)
(0 0 0.00167404)
(0 0 0.00166688)
(0 0 0.00165935)
(0 0 0.00165145)
(0 0 0.0016432)
(0 0 0.00163461)
(0 0 0.00162566)
(0 0 0.00161638)
(0 0 0.00160677)
(0 0 0.00159684)
(0 0 0.00158659)
(0 0 0.00157603)
(0 0 0.00156517)
(0 0 0.00155402)
(0 0 0.00154257)
(0 0 0.00153085)
(0 0 0.00151885)
(0 0 0.00150659)
(0 0 0.00149407)
(0 0 0.00148131)
(0 0 0.0014683)
(0 0 0.00145505)
(0 0 0.00144158)
(0 0 0.00142789)
(0 0 0.00141399)
(0 0 0.00139988)
(0 0 0.00138558)
(0 0 0.00137109)
(0 0 0.00135642)
(0 0 0.00134157)
(0 0 0.00132655)
(0 0 0.00131137)
(0 0 0.00129604)
(0 0 0.00128056)
(0 0 0.00126494)
(0 0 0.00124918)
(0 0 0.0012333)
(0 0 0.0012173)
(0 0 0.00120118)
(0 0 0.00118495)
(0 0 0.00116861)
(0 0 0.00115218)
(0 0 0.00113565)
(0 0 0.00111904)
(0 0 0.00110235)
(0 0 0.00108558)
(0 0 0.00106873)
(0 0 0.00105182)
(0 0 0.00103484)
(0 0 0.00101781)
(0 0 0.00100072)
(0 0 0.000983581)
(0 0 0.000966395)
(0 0 0.000949166)
(0 0 0.000931897)
(0 0 0.000914593)
(0 0 0.000897256)
(0 0 0.000879889)
(0 0 0.000862496)
(0 0 0.000845079)
(0 0 0.000827642)
(0 0 0.000810186)
(0 0 0.000792714)
(0 0 0.000775229)
(0 0 0.000757732)
(0 0 0.000740226)
(0 0 0.000722712)
(0 0 0.000705193)
(0 0 0.000687669)
(0 0 0.000670143)
(0 0 0.000652617)
(0 0 0.00063509)
(0 0 0.000617565)
(0 0 0.000600043)
(0 0 0.000582525)
(0 0 0.000565011)
(0 0 0.000547503)
(0 0 0.000530001)
(0 0 0.000512506)
(0 0 0.000495018)
(0 0 0.000477538)
(0 0 0.000460067)
(0 0 0.000442604)
(0 0 0.000425151)
(0 0 0.000407706)
(0 0 0.000390271)
(0 0 0.000372845)
(0 0 0.000355429)
(0 0 0.000338022)
(0 0 0.000320624)
(0 0 0.000303235)
(0 0 0.000285855)
(0 0 0.000268483)
(0 0 0.00025112)
(0 0 0.000233764)
(0 0 0.000216416)
(0 0 0.000199075)
(0 0 0.000181741)
(0 0 0.000164413)
(0 0 0.000147091)
(0 0 0.000129774)
(0 0 0.000112461)
(0 0 9.51526e-05)
(0 0 7.78474e-05)
(0 0 6.0545e-05)
(0 0 4.32449e-05)
(0 0 2.59463e-05)
(0 0 8.64866e-06)
(0 0 2.40483e-05)
(0 0 7.21459e-05)
(0 0 0.000120246)
(0 0 0.000168352)
(0 0 0.000216463)
(0 0 0.000264583)
(0 0 0.000312714)
(0 0 0.000360856)
(0 0 0.000409012)
(0 0 0.000457183)
(0 0 0.000505372)
(0 0 0.000553579)
(0 0 0.000601807)
(0 0 0.000650057)
(0 0 0.000698331)
(0 0 0.000746629)
(0 0 0.000794953)
(0 0 0.000843304)
(0 0 0.000891685)
(0 0 0.000940095)
(0 0 0.000988535)
(0 0 0.00103701)
(0 0 0.00108551)
(0 0 0.00113405)
(0 0 0.00118262)
(0 0 0.00123123)
(0 0 0.00127986)
(0 0 0.00132854)
(0 0 0.00137725)
(0 0 0.00142599)
(0 0 0.00147477)
(0 0 0.00152358)
(0 0 0.00157242)
(0 0 0.0016213)
(0 0 0.0016702)
(0 0 0.00171914)
(0 0 0.00176811)
(0 0 0.0018171)
(0 0 0.00186612)
(0 0 0.00191516)
(0 0 0.00196423)
(0 0 0.00201331)
(0 0 0.00206241)
(0 0 0.00211152)
(0 0 0.00216064)
(0 0 0.00220977)
(0 0 0.00225889)
(0 0 0.00230802)
(0 0 0.00235714)
(0 0 0.00240625)
(0 0 0.00245535)
(0 0 0.00250442)
(0 0 0.00255347)
(0 0 0.00260249)
(0 0 0.00265146)
(0 0 0.00270039)
(0 0 0.00274927)
(0 0 0.00279808)
(0 0 0.00284683)
(0 0 0.0028955)
(0 0 0.00294409)
(0 0 0.00299258)
(0 0 0.00304097)
(0 0 0.00308925)
(0 0 0.0031374)
(0 0 0.00318542)
(0 0 0.00323329)
(0 0 0.00328101)
(0 0 0.00332855)
(0 0 0.00337592)
(0 0 0.00342309)
(0 0 0.00347005)
(0 0 0.00351679)
(0 0 0.00356329)
(0 0 0.00360954)
(0 0 0.00365553)
(0 0 0.00370124)
(0 0 0.00374665)
(0 0 0.00379174)
(0 0 0.0038365)
(0 0 0.00388092)
(0 0 0.00392496)
(0 0 0.00396863)
(0 0 0.00401189)
(0 0 0.00405473)
(0 0 0.00409712)
(0 0 0.00413906)
(0 0 0.00418051)
(0 0 0.00422146)
(0 0 0.00426189)
(0 0 0.00430177)
(0 0 0.00434109)
(0 0 0.00437983)
(0 0 0.00441795)
(0 0 0.00445545)
(0 0 0.00449229)
(0 0 0.00452846)
(0 0 0.00456393)
(0 0 0.00459868)
(0 0 0.00463269)
(0 0 0.00466593)
(0 0 0.00469839)
(0 0 0.00473004)
(0 0 0.00476085)
(0 0 0.00479081)
(0 0 0.0048199)
(0 0 0.00484809)
(0 0 0.00487536)
(0 0 0.00490169)
(0 0 0.00492706)
(0 0 0.00495144)
(0 0 0.00497483)
(0 0 0.00499719)
(0 0 0.00501852)
(0 0 0.00503878)
(0 0 0.00505797)
(0 0 0.00507607)
(0 0 0.00509306)
(0 0 0.00510892)
(0 0 0.00512364)
(0 0 0.00513721)
(0 0 0.00514961)
(0 0 0.00516084)
(0 0 0.00517087)
(0 0 0.0051797)
(0 0 0.00518731)
(0 0 0.00519371)
(0 0 0.00519888)
(0 0 0.00520282)
(0 0 0.00520552)
(0 0 0.00520698)
(0 0 0.00520719)
(0 0 0.00520616)
(0 0 0.00520387)
(0 0 0.00520034)
(0 0 0.00519556)
(0 0 0.00518953)
(0 0 0.00518227)
(0 0 0.00517377)
(0 0 0.00516403)
(0 0 0.00515307)
(0 0 0.0051409)
(0 0 0.00512752)
(0 0 0.00511294)
(0 0 0.00509718)
(0 0 0.00508024)
(0 0 0.00506214)
(0 0 0.00504289)
(0 0 0.00502251)
(0 0 0.00500101)
(0 0 0.00497841)
(0 0 0.00495472)
(0 0 0.00492996)
(0 0 0.00490416)
(0 0 0.00487733)
(0 0 0.00484948)
(0 0 0.00482065)
(0 0 0.00479084)
(0 0 0.00476008)
(0 0 0.0047284)
(0 0 0.00469581)
(0 0 0.00466233)
(0 0 0.004628)
(0 0 0.00459282)
(0 0 0.00455682)
(0 0 0.00452003)
(0 0 0.00448247)
(0 0 0.00444416)
(0 0 0.00440513)
(0 0 0.00436539)
(0 0 0.00432497)
(0 0 0.00428389)
(0 0 0.00424218)
(0 0 0.00419985)
(0 0 0.00415694)
(0 0 0.00411345)
(0 0 0.00406942)
(0 0 0.00402487)
(0 0 0.00397981)
(0 0 0.00393426)
(0 0 0.00388826)
(0 0 0.00384181)
(0 0 0.00379495)
(0 0 0.00374767)
(0 0 0.00370002)
(0 0 0.003652)
(0 0 0.00360363)
(0 0 0.00355494)
(0 0 0.00350593)
(0 0 0.00345663)
(0 0 0.00340705)
(0 0 0.00335721)
(0 0 0.00330712)
(0 0 0.0032568)
(0 0 0.00320626)
(0 0 0.00315552)
(0 0 0.00310459)
(0 0 0.00305348)
(0 0 0.00300221)
(0 0 0.00295079)
(0 0 0.00289923)
(0 0 0.00284754)
(0 0 0.00279573)
(0 0 0.00274381)
(0 0 0.0026918)
(0 0 0.00263969)
(0 0 0.00258751)
(0 0 0.00253526)
(0 0 0.00248294)
(0 0 0.00243057)
(0 0 0.00237815)
(0 0 0.0023257)
(0 0 0.0022732)
(0 0 0.00222068)
(0 0 0.00216814)
(0 0 0.00211558)
(0 0 0.00206301)
(0 0 0.00201043)
(0 0 0.00195785)
(0 0 0.00190527)
(0 0 0.00185269)
(0 0 0.00180012)
(0 0 0.00174757)
(0 0 0.00169503)
(0 0 0.0016425)
(0 0 0.00158999)
(0 0 0.00153751)
(0 0 0.00148504)
(0 0 0.00143261)
(0 0 0.00138019)
(0 0 0.0013278)
(0 0 0.00127544)
(0 0 0.00122311)
(0 0 0.0011708)
(0 0 0.00111853)
(0 0 0.00106628)
(0 0 0.00101406)
(0 0 0.000961862)
(0 0 0.000909695)
(0 0 0.000857555)
(0 0 0.00080544)
(0 0 0.000753351)
(0 0 0.000701285)
(0 0 0.000649241)
(0 0 0.000597219)
(0 0 0.000545217)
(0 0 0.000493234)
(0 0 0.000441267)
(0 0 0.000389316)
(0 0 0.000337379)
(0 0 0.000285454)
(0 0 0.000233539)
(0 0 0.000181633)
(0 0 0.000129733)
(0 0 7.78379e-05)
(0 0 2.59456e-05)
(0 0 4.00795e-05)
(0 0 0.00012024)
(0 0 0.000200405)
(0 0 0.000280579)
(0 0 0.000360763)
(0 0 0.000440961)
(0 0 0.000521176)
(0 0 0.000601411)
(0 0 0.000681669)
(0 0 0.000761953)
(0 0 0.000842266)
(0 0 0.00092261)
(0 0 0.00100299)
(0 0 0.0010834)
(0 0 0.00116386)
(0 0 0.00124435)
(0 0 0.00132489)
(0 0 0.00140548)
(0 0 0.00148611)
(0 0 0.00156679)
(0 0 0.00164752)
(0 0 0.00172831)
(0 0 0.00180915)
(0 0 0.00189005)
(0 0 0.001971)
(0 0 0.002052)
(0 0 0.00213307)
(0 0 0.00221419)
(0 0 0.00229537)
(0 0 0.00237661)
(0 0 0.00245791)
(0 0 0.00253926)
(0 0 0.00262067)
(0 0 0.00270213)
(0 0 0.00278364)
(0 0 0.00286521)
(0 0 0.00294682)
(0 0 0.00302848)
(0 0 0.00311018)
(0 0 0.00319191)
(0 0 0.00327369)
(0 0 0.0033555)
(0 0 0.00343733)
(0 0 0.00351919)
(0 0 0.00360106)
(0 0 0.00368294)
(0 0 0.00376483)
(0 0 0.00384671)
(0 0 0.00392859)
(0 0 0.00401044)
(0 0 0.00409227)
(0 0 0.00417407)
(0 0 0.00425582)
(0 0 0.00433752)
(0 0 0.00441915)
(0 0 0.00450071)
(0 0 0.00458218)
(0 0 0.00466355)
(0 0 0.00474481)
(0 0 0.00482594)
(0 0 0.00490692)
(0 0 0.00498776)
(0 0 0.00506842)
(0 0 0.00514889)
(0 0 0.00522915)
(0 0 0.00530919)
(0 0 0.00538899)
(0 0 0.00546853)
(0 0 0.00554779)
(0 0 0.00562674)
(0 0 0.00570537)
(0 0 0.00578366)
(0 0 0.00586158)
(0 0 0.0059391)
(0 0 0.0060162)
(0 0 0.00609287)
(0 0 0.00616906)
(0 0 0.00624476)
(0 0 0.00631994)
(0 0 0.00639456)
(0 0 0.0064686)
(0 0 0.00654204)
(0 0 0.00661483)
(0 0 0.00668695)
(0 0 0.00675837)
(0 0 0.00682905)
(0 0 0.00689896)
(0 0 0.00696807)
(0 0 0.00703635)
(0 0 0.00710375)
(0 0 0.00717025)
(0 0 0.00723581)
(0 0 0.00730039)
(0 0 0.00736396)
(0 0 0.00742647)
(0 0 0.0074879)
(0 0 0.00754821)
(0 0 0.00760735)
(0 0 0.00766529)
(0 0 0.007722)
(0 0 0.00777743)
(0 0 0.00783155)
(0 0 0.00788432)
(0 0 0.0079357)
(0 0 0.00798567)
(0 0 0.00803417)
(0 0 0.00808117)
(0 0 0.00812664)
(0 0 0.00817055)
(0 0 0.00821285)
(0 0 0.00825352)
(0 0 0.00829252)
(0 0 0.00832981)
(0 0 0.00836537)
(0 0 0.00839917)
(0 0 0.00843117)
(0 0 0.00846135)
(0 0 0.00848968)
(0 0 0.00851614)
(0 0 0.00854069)
(0 0 0.00856332)
(0 0 0.008584)
(0 0 0.00860272)
(0 0 0.00861945)
(0 0 0.00863417)
(0 0 0.00864688)
(0 0 0.00865755)
(0 0 0.00866618)
(0 0 0.00867275)
(0 0 0.00867725)
(0 0 0.00867969)
(0 0 0.00868004)
(0 0 0.00867832)
(0 0 0.00867451)
(0 0 0.00866862)
(0 0 0.00866065)
(0 0 0.0086506)
(0 0 0.00863849)
(0 0 0.00862431)
(0 0 0.00860808)
(0 0 0.00858981)
(0 0 0.00856951)
(0 0 0.0085472)
(0 0 0.00852289)
(0 0 0.0084966)
(0 0 0.00846836)
(0 0 0.00843817)
(0 0 0.00840608)
(0 0 0.00837209)
(0 0 0.00833624)
(0 0 0.00829855)
(0 0 0.00825905)
(0 0 0.00821777)
(0 0 0.00817475)
(0 0 0.00813)
(0 0 0.00808357)
(0 0 0.00803549)
(0 0 0.00798579)
(0 0 0.00793451)
(0 0 0.00788168)
(0 0 0.00782733)
(0 0 0.00777152)
(0 0 0.00771426)
(0 0 0.00765561)
(0 0 0.00759559)
(0 0 0.00753425)
(0 0 0.00747162)
(0 0 0.00740775)
(0 0 0.00734266)
(0 0 0.0072764)
(0 0 0.00720901)
(0 0 0.00714052)
(0 0 0.00707097)
(0 0 0.00700041)
(0 0 0.00692886)
(0 0 0.00685636)
(0 0 0.00678295)
(0 0 0.00670867)
(0 0 0.00663355)
(0 0 0.00655762)
(0 0 0.00648092)
(0 0 0.00640349)
(0 0 0.00632536)
(0 0 0.00624655)
(0 0 0.00616711)
(0 0 0.00608705)
(0 0 0.00600642)
(0 0 0.00592524)
(0 0 0.00584355)
(0 0 0.00576136)
(0 0 0.00567871)
(0 0 0.00559562)
(0 0 0.00551212)
(0 0 0.00542824)
(0 0 0.00534399)
(0 0 0.00525941)
(0 0 0.00517451)
(0 0 0.00508932)
(0 0 0.00500385)
(0 0 0.00491814)
(0 0 0.00483219)
(0 0 0.00474602)
(0 0 0.00465966)
(0 0 0.00457312)
(0 0 0.00448642)
(0 0 0.00439958)
(0 0 0.0043126)
(0 0 0.0042255)
(0 0 0.0041383)
(0 0 0.00405101)
(0 0 0.00396364)
(0 0 0.0038762)
(0 0 0.0037887)
(0 0 0.00370116)
(0 0 0.00361359)
(0 0 0.00352598)
(0 0 0.00343836)
(0 0 0.00335072)
(0 0 0.00326308)
(0 0 0.00317544)
(0 0 0.00308781)
(0 0 0.00300019)
(0 0 0.0029126)
(0 0 0.00282502)
(0 0 0.00273748)
(0 0 0.00264997)
(0 0 0.00256249)
(0 0 0.00247505)
(0 0 0.00238765)
(0 0 0.00230029)
(0 0 0.00221298)
(0 0 0.00212571)
(0 0 0.00203848)
(0 0 0.00195131)
(0 0 0.00186418)
(0 0 0.0017771)
(0 0 0.00169006)
(0 0 0.00160307)
(0 0 0.00151613)
(0 0 0.00142923)
(0 0 0.00134237)
(0 0 0.00125556)
(0 0 0.00116878)
(0 0 0.00108205)
(0 0 0.000995343)
(0 0 0.000908675)
(0 0 0.000822037)
(0 0 0.000735429)
(0 0 0.000648845)
(0 0 0.000562285)
(0 0 0.000475745)
(0 0 0.000389222)
(0 0 0.000302714)
(0 0 0.000216216)
(0 0 0.000129727)
(0 0 4.32417e-05)
(0 0 5.61091e-05)
(0 0 0.00016833)
(0 0 0.000280557)
(0 0 0.000392795)
(0 0 0.000505048)
(0 0 0.000617321)
(0 0 0.000729618)
(0 0 0.000841943)
(0 0 0.000954301)
(0 0 0.00106669)
(0 0 0.00117913)
(0 0 0.00129161)
(0 0 0.00140413)
(0 0 0.00151671)
(0 0 0.00162934)
(0 0 0.00174203)
(0 0 0.00185478)
(0 0 0.0019676)
(0 0 0.00208048)
(0 0 0.00219343)
(0 0 0.00230646)
(0 0 0.00241956)
(0 0 0.00253273)
(0 0 0.00264598)
(0 0 0.00275932)
(0 0 0.00287273)
(0 0 0.00298622)
(0 0 0.00309979)
(0 0 0.00321344)
(0 0 0.00332718)
(0 0 0.00344099)
(0 0 0.00355489)
(0 0 0.00366886)
(0 0 0.00378291)
(0 0 0.00389703)
(0 0 0.00401122)
(0 0 0.00412548)
(0 0 0.0042398)
(0 0 0.00435419)
(0 0 0.00446863)
(0 0 0.00458312)
(0 0 0.00469766)
(0 0 0.00481223)
(0 0 0.00492684)
(0 0 0.00504146)
(0 0 0.00515611)
(0 0 0.00527076)
(0 0 0.00538541)
(0 0 0.00550004)
(0 0 0.00561466)
(0 0 0.00572923)
(0 0 0.00584376)
(0 0 0.00595823)
(0 0 0.00607262)
(0 0 0.00618692)
(0 0 0.00630112)
(0 0 0.00641519)
(0 0 0.00652913)
(0 0 0.00664291)
(0 0 0.00675651)
(0 0 0.00686991)
(0 0 0.0069831)
(0 0 0.00709604)
(0 0 0.00720873)
(0 0 0.00732112)
(0 0 0.00743321)
(0 0 0.00754496)
(0 0 0.00765634)
(0 0 0.00776733)
(0 0 0.00787789)
(0 0 0.00798801)
(0 0 0.00809764)
(0 0 0.00820675)
(0 0 0.00831532)
(0 0 0.0084233)
(0 0 0.00853067)
(0 0 0.00863738)
(0 0 0.0087434)
(0 0 0.00884868)
(0 0 0.00895319)
(0 0 0.0090569)
(0 0 0.00915975)
(0 0 0.0092617)
(0 0 0.00936271)
(0 0 0.00946274)
(0 0 0.00956174)
(0 0 0.00965967)
(0 0 0.00975647)
(0 0 0.00985211)
(0 0 0.00994652)
(0 0 0.0100397)
(0 0 0.0101315)
(0 0 0.010222)
(0 0 0.010311)
(0 0 0.0103986)
(0 0 0.0104846)
(0 0 0.0105691)
(0 0 0.010652)
(0 0 0.0107331)
(0 0 0.0108126)
(0 0 0.0108902)
(0 0 0.0109661)
(0 0 0.01104)
(0 0 0.011112)
(0 0 0.011182)
(0 0 0.0112499)
(0 0 0.0113158)
(0 0 0.0113795)
(0 0 0.011441)
(0 0 0.0115003)
(0 0 0.0115573)
(0 0 0.0116119)
(0 0 0.0116642)
(0 0 0.011714)
(0 0 0.0117613)
(0 0 0.0118062)
(0 0 0.0118485)
(0 0 0.0118882)
(0 0 0.0119253)
(0 0 0.0119597)
(0 0 0.0119914)
(0 0 0.0120204)
(0 0 0.0120466)
(0 0 0.01207)
(0 0 0.0120907)
(0 0 0.0121085)
(0 0 0.0121234)
(0 0 0.0121355)
(0 0 0.0121447)
(0 0 0.0121511)
(0 0 0.0121545)
(0 0 0.012155)
(0 0 0.0121526)
(0 0 0.0121472)
(0 0 0.012139)
(0 0 0.0121278)
(0 0 0.0121137)
(0 0 0.0120968)
(0 0 0.0120769)
(0 0 0.0120542)
(0 0 0.0120286)
(0 0 0.0120001)
(0 0 0.0119689)
(0 0 0.0119348)
(0 0 0.011898)
(0 0 0.0118584)
(0 0 0.0118161)
(0 0 0.0117712)
(0 0 0.0117235)
(0 0 0.0116733)
(0 0 0.0116205)
(0 0 0.0115652)
(0 0 0.0115073)
(0 0 0.011447)
(0 0 0.0113844)
(0 0 0.0113193)
(0 0 0.0112519)
(0 0 0.0111823)
(0 0 0.0111105)
(0 0 0.0110365)
(0 0 0.0109603)
(0 0 0.0108821)
(0 0 0.0108019)
(0 0 0.0107198)
(0 0 0.0106357)
(0 0 0.0105498)
(0 0 0.010462)
(0 0 0.0103725)
(0 0 0.0102814)
(0 0 0.0101885)
(0 0 0.0100941)
(0 0 0.00999821)
(0 0 0.00990079)
(0 0 0.00980195)
(0 0 0.00970173)
(0 0 0.00960018)
(0 0 0.00949736)
(0 0 0.00939331)
(0 0 0.00928809)
(0 0 0.00918175)
(0 0 0.00907433)
(0 0 0.00896587)
(0 0 0.00885644)
(0 0 0.00874607)
(0 0 0.0086348)
(0 0 0.00852268)
(0 0 0.00840976)
(0 0 0.00829607)
(0 0 0.00818165)
(0 0 0.00806655)
(0 0 0.0079508)
(0 0 0.00783445)
(0 0 0.00771751)
(0 0 0.00760004)
(0 0 0.00748207)
(0 0 0.00736362)
(0 0 0.00724473)
(0 0 0.00712543)
(0 0 0.00700575)
(0 0 0.00688572)
(0 0 0.00676536)
(0 0 0.00664471)
(0 0 0.00652378)
(0 0 0.0064026)
(0 0 0.0062812)
(0 0 0.00615959)
(0 0 0.0060378)
(0 0 0.00591584)
(0 0 0.00579375)
(0 0 0.00567152)
(0 0 0.00554919)
(0 0 0.00542676)
(0 0 0.00530425)
(0 0 0.00518168)
(0 0 0.00505906)
(0 0 0.0049364)
(0 0 0.00481371)
(0 0 0.00469101)
(0 0 0.00456831)
(0 0 0.0044456)
(0 0 0.00432291)
(0 0 0.00420025)
(0 0 0.0040776)
(0 0 0.003955)
(0 0 0.00383243)
(0 0 0.0037099)
(0 0 0.00358743)
(0 0 0.00346501)
(0 0 0.00334265)
(0 0 0.00322034)
(0 0 0.0030981)
(0 0 0.00297592)
(0 0 0.00285381)
(0 0 0.00273176)
(0 0 0.00260978)
(0 0 0.00248787)
(0 0 0.00236602)
(0 0 0.00224424)
(0 0 0.00212252)
(0 0 0.00200086)
(0 0 0.00187926)
(0 0 0.00175773)
(0 0 0.00163624)
(0 0 0.00151481)
(0 0 0.00139343)
(0 0 0.0012721)
(0 0 0.00115081)
(0 0 0.00102956)
(0 0 0.000908351)
(0 0 0.000787171)
(0 0 0.000666019)
(0 0 0.000544892)
(0 0 0.000423784)
(0 0 0.000302692)
(0 0 0.000181611)
(0 0 6.05361e-05)
(0 0 7.21365e-05)
(0 0 0.000216412)
(0 0 0.000360697)
(0 0 0.000504995)
(0 0 0.000649314)
(0 0 0.000793657)
(0 0 0.000938032)
(0 0 0.00108244)
(0 0 0.0012269)
(0 0 0.00137139)
(0 0 0.00151595)
(0 0 0.00166055)
(0 0 0.00180522)
(0 0 0.00194996)
(0 0 0.00209477)
(0 0 0.00223965)
(0 0 0.00238461)
(0 0 0.00252966)
(0 0 0.00267479)
(0 0 0.00282001)
(0 0 0.00296532)
(0 0 0.00311073)
(0 0 0.00325624)
(0 0 0.00340184)
(0 0 0.00354755)
(0 0 0.00369337)
(0 0 0.00383928)
(0 0 0.0039853)
(0 0 0.00413143)
(0 0 0.00427766)
(0 0 0.004424)
(0 0 0.00457043)
(0 0 0.00471697)
(0 0 0.00486361)
(0 0 0.00501034)
(0 0 0.00515716)
(0 0 0.00530408)
(0 0 0.00545107)
(0 0 0.00559815)
(0 0 0.00574529)
(0 0 0.00589251)
(0 0 0.00603978)
(0 0 0.0061871)
(0 0 0.00633446)
(0 0 0.00648185)
(0 0 0.00662927)
(0 0 0.00677669)
(0 0 0.00692412)
(0 0 0.00707152)
(0 0 0.0072189)
(0 0 0.00736624)
(0 0 0.00751351)
(0 0 0.00766071)
(0 0 0.00780781)
(0 0 0.00795479)
(0 0 0.00810165)
(0 0 0.00824834)
(0 0 0.00839486)
(0 0 0.00854118)
(0 0 0.00868727)
(0 0 0.00883312)
(0 0 0.00897868)
(0 0 0.00912393)
(0 0 0.00926885)
(0 0 0.00941341)
(0 0 0.00955756)
(0 0 0.00970128)
(0 0 0.00984453)
(0 0 0.00998728)
(0 0 0.0101295)
(0 0 0.0102711)
(0 0 0.0104121)
(0 0 0.0105525)
(0 0 0.0106921)
(0 0 0.010831)
(0 0 0.0109691)
(0 0 0.0111064)
(0 0 0.0112428)
(0 0 0.0113782)
(0 0 0.0115126)
(0 0 0.011646)
(0 0 0.0117783)
(0 0 0.0119095)
(0 0 0.0120395)
(0 0 0.0121681)
(0 0 0.0122955)
(0 0 0.0124215)
(0 0 0.012546)
(0 0 0.0126691)
(0 0 0.0127906)
(0 0 0.0129104)
(0 0 0.0130286)
(0 0 0.013145)
(0 0 0.0132595)
(0 0 0.0133722)
(0 0 0.0134829)
(0 0 0.0135916)
(0 0 0.0136983)
(0 0 0.0138027)
(0 0 0.0139049)
(0 0 0.0140049)
(0 0 0.0141025)
(0 0 0.0141976)
(0 0 0.0142902)
(0 0 0.0143803)
(0 0 0.0144678)
(0 0 0.0145525)
(0 0 0.0146345)
(0 0 0.0147137)
(0 0 0.01479)
(0 0 0.0148633)
(0 0 0.0149337)
(0 0 0.0150009)
(0 0 0.0150651)
(0 0 0.015126)
(0 0 0.0151838)
(0 0 0.0152382)
(0 0 0.0152893)
(0 0 0.015337)
(0 0 0.0153813)
(0 0 0.0154221)
(0 0 0.0154595)
(0 0 0.0154932)
(0 0 0.0155234)
(0 0 0.01555)
(0 0 0.0155729)
(0 0 0.0155922)
(0 0 0.0156078)
(0 0 0.0156196)
(0 0 0.0156278)
(0 0 0.0156322)
(0 0 0.0156328)
(0 0 0.0156297)
(0 0 0.0156229)
(0 0 0.0156123)
(0 0 0.0155979)
(0 0 0.0155798)
(0 0 0.0155579)
(0 0 0.0155324)
(0 0 0.0155031)
(0 0 0.0154702)
(0 0 0.0154336)
(0 0 0.0153933)
(0 0 0.0153495)
(0 0 0.0153021)
(0 0 0.0152512)
(0 0 0.0151968)
(0 0 0.0151389)
(0 0 0.0150776)
(0 0 0.0150129)
(0 0 0.014945)
(0 0 0.0148738)
(0 0 0.0147993)
(0 0 0.0147218)
(0 0 0.0146411)
(0 0 0.0145574)
(0 0 0.0144707)
(0 0 0.0143811)
(0 0 0.0142886)
(0 0 0.0141934)
(0 0 0.0140954)
(0 0 0.0139948)
(0 0 0.0138916)
(0 0 0.0137858)
(0 0 0.0136776)
(0 0 0.0135671)
(0 0 0.0134542)
(0 0 0.013339)
(0 0 0.0132217)
(0 0 0.0131023)
(0 0 0.0129808)
(0 0 0.0128574)
(0 0 0.012732)
(0 0 0.0126049)
(0 0 0.0124759)
(0 0 0.0123453)
(0 0 0.012213)
(0 0 0.0120791)
(0 0 0.0119438)
(0 0 0.011807)
(0 0 0.0116688)
(0 0 0.0115292)
(0 0 0.0113885)
(0 0 0.0112465)
(0 0 0.0111033)
(0 0 0.0109591)
(0 0 0.0108139)
(0 0 0.0106676)
(0 0 0.0105204)
(0 0 0.0103724)
(0 0 0.0102235)
(0 0 0.0100738)
(0 0 0.00992344)
(0 0 0.00977235)
(0 0 0.00962061)
(0 0 0.00946826)
(0 0 0.00931535)
(0 0 0.00916192)
(0 0 0.009008)
(0 0 0.00885362)
(0 0 0.00869884)
(0 0 0.00854367)
(0 0 0.00838815)
(0 0 0.00823231)
(0 0 0.00807618)
(0 0 0.00791979)
(0 0 0.00776317)
(0 0 0.00760634)
(0 0 0.00744932)
(0 0 0.00729214)
(0 0 0.00713483)
(0 0 0.00697739)
(0 0 0.00681986)
(0 0 0.00666225)
(0 0 0.00650457)
(0 0 0.00634685)
(0 0 0.00618909)
(0 0 0.00603131)
(0 0 0.00587353)
(0 0 0.00571576)
(0 0 0.005558)
(0 0 0.00540027)
(0 0 0.00524258)
(0 0 0.00508493)
(0 0 0.00492733)
(0 0 0.00476979)
(0 0 0.00461232)
(0 0 0.00445492)
(0 0 0.00429759)
(0 0 0.00414034)
(0 0 0.00398317)
(0 0 0.00382608)
(0 0 0.00366907)
(0 0 0.00351216)
(0 0 0.00335532)
(0 0 0.00319858)
(0 0 0.00304192)
(0 0 0.00288534)
(0 0 0.00272885)
(0 0 0.00257243)
(0 0 0.0024161)
(0 0 0.00225984)
(0 0 0.00210365)
(0 0 0.00194753)
(0 0 0.00179148)
(0 0 0.00163548)
(0 0 0.00147955)
(0 0 0.00132366)
(0 0 0.00116783)
(0 0 0.00101203)
(0 0 0.000856269)
(0 0 0.000700541)
(0 0 0.000544838)
(0 0 0.000389156)
(0 0 0.000233488)
(0 0 7.78283e-05)
(0 0 8.8161e-05)
(0 0 0.000264487)
(0 0 0.000440823)
(0 0 0.000617176)
(0 0 0.000793554)
(0 0 0.000969963)
(0 0 0.00114641)
(0 0 0.0013229)
(0 0 0.00149944)
(0 0 0.00167604)
(0 0 0.00185271)
(0 0 0.00202944)
(0 0 0.00220625)
(0 0 0.00238314)
(0 0 0.00256012)
(0 0 0.00273719)
(0 0 0.00291435)
(0 0 0.00309162)
(0 0 0.003269)
(0 0 0.00344648)
(0 0 0.00362408)
(0 0 0.0038018)
(0 0 0.00397964)
(0 0 0.0041576)
(0 0 0.00433569)
(0 0 0.0045139)
(0 0 0.00469224)
(0 0 0.00487071)
(0 0 0.00504931)
(0 0 0.00522804)
(0 0 0.0054069)
(0 0 0.00558588)
(0 0 0.00576499)
(0 0 0.00594421)
(0 0 0.00612356)
(0 0 0.00630302)
(0 0 0.00648259)
(0 0 0.00666226)
(0 0 0.00684203)
(0 0 0.00702189)
(0 0 0.00720183)
(0 0 0.00738185)
(0 0 0.00756192)
(0 0 0.00774205)
(0 0 0.00792222)
(0 0 0.00810242)
(0 0 0.00828263)
(0 0 0.00846284)
(0 0 0.00864303)
(0 0 0.00882319)
(0 0 0.0090033)
(0 0 0.00918333)
(0 0 0.00936328)
(0 0 0.00954311)
(0 0 0.0097228)
(0 0 0.00990233)
(0 0 0.0100817)
(0 0 0.0102608)
(0 0 0.0104397)
(0 0 0.0106183)
(0 0 0.0107966)
(0 0 0.0109746)
(0 0 0.0111522)
(0 0 0.0113293)
(0 0 0.0115061)
(0 0 0.0116823)
(0 0 0.0118581)
(0 0 0.0120332)
(0 0 0.0122078)
(0 0 0.0123817)
(0 0 0.0125549)
(0 0 0.0127273)
(0 0 0.0128989)
(0 0 0.0130697)
(0 0 0.0132395)
(0 0 0.0134084)
(0 0 0.0135763)
(0 0 0.0137431)
(0 0 0.0139087)
(0 0 0.0140731)
(0 0 0.0142363)
(0 0 0.0143981)
(0 0 0.0145585)
(0 0 0.0147175)
(0 0 0.0148749)
(0 0 0.0150307)
(0 0 0.0151848)
(0 0 0.0153371)
(0 0 0.0154876)
(0 0 0.0156362)
(0 0 0.0157828)
(0 0 0.0159274)
(0 0 0.0160698)
(0 0 0.0162099)
(0 0 0.0163478)
(0 0 0.0164833)
(0 0 0.0166163)
(0 0 0.0167467)
(0 0 0.0168745)
(0 0 0.0169996)
(0 0 0.0171219)
(0 0 0.0172413)
(0 0 0.0173577)
(0 0 0.0174711)
(0 0 0.0175813)
(0 0 0.0176883)
(0 0 0.0177921)
(0 0 0.0178924)
(0 0 0.0179893)
(0 0 0.0180827)
(0 0 0.0181724)
(0 0 0.0182585)
(0 0 0.0183408)
(0 0 0.0184193)
(0 0 0.018494)
(0 0 0.0185646)
(0 0 0.0186313)
(0 0 0.0186938)
(0 0 0.0187522)
(0 0 0.0188065)
(0 0 0.0188564)
(0 0 0.0189021)
(0 0 0.0189435)
(0 0 0.0189804)
(0 0 0.019013)
(0 0 0.019041)
(0 0 0.0190646)
(0 0 0.0190837)
(0 0 0.0190982)
(0 0 0.0191082)
(0 0 0.0191136)
(0 0 0.0191144)
(0 0 0.0191106)
(0 0 0.0191023)
(0 0 0.0190893)
(0 0 0.0190717)
(0 0 0.0190496)
(0 0 0.0190228)
(0 0 0.0189916)
(0 0 0.0189557)
(0 0 0.0189154)
(0 0 0.0188706)
(0 0 0.0188214)
(0 0 0.0187678)
(0 0 0.0187098)
(0 0 0.0186474)
(0 0 0.0185808)
(0 0 0.01851)
(0 0 0.018435)
(0 0 0.0183559)
(0 0 0.0182727)
(0 0 0.0181856)
(0 0 0.0180945)
(0 0 0.0179996)
(0 0 0.0179008)
(0 0 0.0177984)
(0 0 0.0176923)
(0 0 0.0175827)
(0 0 0.0174695)
(0 0 0.017353)
(0 0 0.0172331)
(0 0 0.01711)
(0 0 0.0169837)
(0 0 0.0168543)
(0 0 0.016722)
(0 0 0.0165867)
(0 0 0.0164486)
(0 0 0.0163077)
(0 0 0.0161642)
(0 0 0.0160181)
(0 0 0.0158695)
(0 0 0.0157185)
(0 0 0.0155651)
(0 0 0.0154096)
(0 0 0.0152518)
(0 0 0.015092)
(0 0 0.0149302)
(0 0 0.0147665)
(0 0 0.0146009)
(0 0 0.0144335)
(0 0 0.0142645)
(0 0 0.0140939)
(0 0 0.0139217)
(0 0 0.013748)
(0 0 0.013573)
(0 0 0.0133966)
(0 0 0.0132189)
(0 0 0.0130401)
(0 0 0.0128601)
(0 0 0.0126791)
(0 0 0.012497)
(0 0 0.012314)
(0 0 0.0121301)
(0 0 0.0119453)
(0 0 0.0117598)
(0 0 0.0115735)
(0 0 0.0113865)
(0 0 0.0111989)
(0 0 0.0110107)
(0 0 0.0108219)
(0 0 0.0106327)
(0 0 0.010443)
(0 0 0.0102528)
(0 0 0.0100623)
(0 0 0.00987142)
(0 0 0.00968022)
(0 0 0.00948874)
(0 0 0.00929701)
(0 0 0.00910506)
(0 0 0.00891291)
(0 0 0.00872059)
(0 0 0.00852813)
(0 0 0.00833555)
(0 0 0.00814288)
(0 0 0.00795013)
(0 0 0.00775732)
(0 0 0.00756448)
(0 0 0.00737162)
(0 0 0.00717875)
(0 0 0.00698589)
(0 0 0.00679306)
(0 0 0.00660026)
(0 0 0.0064075)
(0 0 0.00621481)
(0 0 0.00602218)
(0 0 0.00582962)
(0 0 0.00563714)
(0 0 0.00544475)
(0 0 0.00525245)
(0 0 0.00506025)
(0 0 0.00486815)
(0 0 0.00467615)
(0 0 0.00448425)
(0 0 0.00429246)
(0 0 0.00410078)
(0 0 0.0039092)
(0 0 0.00371773)
(0 0 0.00352636)
(0 0 0.00333509)
(0 0 0.00314393)
(0 0 0.00295286)
(0 0 0.00276188)
(0 0 0.00257099)
(0 0 0.00238018)
(0 0 0.00218946)
(0 0 0.00199881)
(0 0 0.00180823)
(0 0 0.00161772)
(0 0 0.00142726)
(0 0 0.00123685)
(0 0 0.00104649)
(0 0 0.000856165)
(0 0 0.000665873)
(0 0 0.000475606)
(0 0 0.000285356)
(0 0 9.51176e-05)
(0 0 0.000104182)
(0 0 0.00031255)
(0 0 0.000520931)
(0 0 0.000729332)
(0 0 0.000937763)
(0 0 0.00114623)
(0 0 0.00135474)
(0 0 0.00156331)
(0 0 0.00177193)
(0 0 0.00198063)
(0 0 0.0021894)
(0 0 0.00239825)
(0 0 0.00260719)
(0 0 0.00281623)
(0 0 0.00302537)
(0 0 0.00323463)
(0 0 0.003444)
(0 0 0.00365348)
(0 0 0.0038631)
(0 0 0.00407285)
(0 0 0.00428273)
(0 0 0.00449275)
(0 0 0.00470292)
(0 0 0.00491323)
(0 0 0.00512369)
(0 0 0.00533431)
(0 0 0.00554507)
(0 0 0.00575599)
(0 0 0.00596706)
(0 0 0.00617829)
(0 0 0.00638967)
(0 0 0.0066012)
(0 0 0.00681288)
(0 0 0.0070247)
(0 0 0.00723666)
(0 0 0.00744877)
(0 0 0.007661)
(0 0 0.00787335)
(0 0 0.00808582)
(0 0 0.00829841)
(0 0 0.00851108)
(0 0 0.00872385)
(0 0 0.0089367)
(0 0 0.0091496)
(0 0 0.00936256)
(0 0 0.00957555)
(0 0 0.00978857)
(0 0 0.0100016)
(0 0 0.0102146)
(0 0 0.0104275)
(0 0 0.0106404)
(0 0 0.0108532)
(0 0 0.011066)
(0 0 0.0112785)
(0 0 0.011491)
(0 0 0.0117032)
(0 0 0.0119152)
(0 0 0.012127)
(0 0 0.0123385)
(0 0 0.0125496)
(0 0 0.0127604)
(0 0 0.0129708)
(0 0 0.0131808)
(0 0 0.0133903)
(0 0 0.0135992)
(0 0 0.0138076)
(0 0 0.0140154)
(0 0 0.0142225)
(0 0 0.0144289)
(0 0 0.0146346)
(0 0 0.0148393)
(0 0 0.0150432)
(0 0 0.0152462)
(0 0 0.0154481)
(0 0 0.015649)
(0 0 0.0158487)
(0 0 0.0160473)
(0 0 0.0162445)
(0 0 0.0164404)
(0 0 0.0166349)
(0 0 0.0168279)
(0 0 0.0170193)
(0 0 0.017209)
(0 0 0.017397)
(0 0 0.0175832)
(0 0 0.0177675)
(0 0 0.0179498)
(0 0 0.01813)
(0 0 0.0183081)
(0 0 0.0184839)
(0 0 0.0186573)
(0 0 0.0188283)
(0 0 0.0189968)
(0 0 0.0191626)
(0 0 0.0193258)
(0 0 0.0194861)
(0 0 0.0196434)
(0 0 0.0197978)
(0 0 0.019949)
(0 0 0.0200971)
(0 0 0.0202418)
(0 0 0.0203831)
(0 0 0.0205208)
(0 0 0.020655)
(0 0 0.0207855)
(0 0 0.0209122)
(0 0 0.0210349)
(0 0 0.0211537)
(0 0 0.0212684)
(0 0 0.0213789)
(0 0 0.0214852)
(0 0 0.0215871)
(0 0 0.0216846)
(0 0 0.0217775)
(0 0 0.0218658)
(0 0 0.0219495)
(0 0 0.0220284)
(0 0 0.0221025)
(0 0 0.0221716)
(0 0 0.0222358)
(0 0 0.022295)
(0 0 0.0223491)
(0 0 0.0223981)
(0 0 0.0224418)
(0 0 0.0224804)
(0 0 0.0225136)
(0 0 0.0225416)
(0 0 0.0225642)
(0 0 0.0225814)
(0 0 0.0225932)
(0 0 0.0225996)
(0 0 0.0226006)
(0 0 0.0225961)
(0 0 0.0225862)
(0 0 0.0225709)
(0 0 0.0225501)
(0 0 0.0225239)
(0 0 0.0224923)
(0 0 0.0224553)
(0 0 0.0224129)
(0 0 0.0223652)
(0 0 0.0223122)
(0 0 0.0222539)
(0 0 0.0221904)
(0 0 0.0221217)
(0 0 0.022048)
(0 0 0.0219691)
(0 0 0.0218853)
(0 0 0.0217965)
(0 0 0.0217029)
(0 0 0.0216045)
(0 0 0.0215013)
(0 0 0.0213935)
(0 0 0.0212812)
(0 0 0.0211643)
(0 0 0.0210431)
(0 0 0.0209175)
(0 0 0.0207878)
(0 0 0.0206539)
(0 0 0.0205159)
(0 0 0.0203741)
(0 0 0.0202284)
(0 0 0.0200789)
(0 0 0.0199258)
(0 0 0.0197692)
(0 0 0.0196091)
(0 0 0.0194457)
(0 0 0.019279)
(0 0 0.0191092)
(0 0 0.0189363)
(0 0 0.0187605)
(0 0 0.0185819)
(0 0 0.0184005)
(0 0 0.0182164)
(0 0 0.0180298)
(0 0 0.0178407)
(0 0 0.0176493)
(0 0 0.0174556)
(0 0 0.0172598)
(0 0 0.0170618)
(0 0 0.0168619)
(0 0 0.01666)
(0 0 0.0164564)
(0 0 0.016251)
(0 0 0.0160439)
(0 0 0.0158353)
(0 0 0.0156252)
(0 0 0.0154137)
(0 0 0.0152009)
(0 0 0.0149868)
(0 0 0.0147714)
(0 0 0.014555)
(0 0 0.0143375)
(0 0 0.0141191)
(0 0 0.0138996)
(0 0 0.0136794)
(0 0 0.0134583)
(0 0 0.0132365)
(0 0 0.0130139)
(0 0 0.0127908)
(0 0 0.012567)
(0 0 0.0123427)
(0 0 0.0121179)
(0 0 0.0118926)
(0 0 0.011667)