/*--------------------------------*- C++ -*----------------------------------*\
| =========                 |                                                 |
| \\      /  F ield         | OpenFOAM: The Open Source CFD Toolbox           |
|  \\    /   O peration     | Version:  v2012                                 |
|   \\  /    A nd           | Website:  www.openfoam.com                      |
|    \\/     M anipulation  |                                                 |
\*---------------------------------------------------------------------------*/
FoamFile
{
    version     2.0;
    format      ascii;
    class       volScalarField;
    location    "11.9";
    object      Psi_z;
}
// * * * * * * * * * * * * * * * * * * * * * * * * * * * * * * * * * * * * * //

dimensions      [0 2 -1 0 0 0 0];


internalField   nonuniform List<scalar> 
65536
(
8.97155e-06
2.69151e-05
4.48598e-05
6.28064e-05
8.07557e-05
9.87085e-05
0.000116665
0.000134627
0.000152595
0.000170568
0.000188549
0.000206537
0.000224533
0.000242538
0.000260551
0.000278575
0.000296608
0.000314651
0.000332705
0.000350769
0.000368845
0.000386931
0.000405028
0.000423136
0.000441255
0.000459384
0.000477523
0.000495672
0.00051383
0.000531997
0.000550172
0.000568353
0.000586541
0.000604733
0.000622929
0.000641128
0.000659328
0.000677527
0.000695724
0.000713917
0.000732104
0.000750282
0.000768451
0.000786606
0.000804746
0.000822867
0.000840967
0.000859044
0.000877092
0.00089511
0.000913093
0.000931038
0.000948941
0.000966798
0.000984604
0.00100236
0.00102005
0.00103767
0.00105523
0.00107272
0.00109012
0.00110744
0.00112467
0.0011418
0.00115882
0.00117574
0.00119255
0.00120923
0.00122578
0.0012422
0.00125848
0.00127461
0.00129058
0.00130639
0.00132203
0.00133749
0.00135277
0.00136785
0.00138273
0.00139741
0.00141187
0.0014261
0.0014401
0.00145387
0.00146739
0.00148065
0.00149365
0.00150638
0.00151884
0.00153101
0.00154288
0.00155446
0.00156573
0.00157669
0.00158732
0.00159763
0.00160761
0.00161724
0.00162653
0.00163547
0.00164404
0.00165226
0.0016601
0.00166757
0.00167467
0.00168138
0.0016877
0.00169364
0.00169917
0.00170432
0.00170906
0.0017134
0.00171733
0.00172086
0.00172398
0.0017267
0.001729
0.00173089
0.00173237
0.00173344
0.0017341
0.00173436
0.0017342
0.00173364
0.00173268
0.00173131
0.00172955
0.00172738
0.00172483
0.00172189
0.00171856
0.00171484
0.00171075
0.00170629
0.00170146
0.00169627
0.00169071
0.00168481
0.00167855
0.00167196
0.00166503
0.00165777
0.00165019
0.00164228
0.00163407
0.00162556
0.00161674
0.00160764
0.00159825
0.00158859
0.00157865
0.00156845
0.001558
0.00154729
0.00153635
0.00152516
0.00151375
0.00150212
0.00149027
0.00147822
0.00146596
0.00145351
0.00144087
0.00142805
0.00141506
0.0014019
0.00138857
0.00137509
0.00136146
0.00134769
0.00133378
0.00131974
0.00130557
0.00129129
0.00127688
0.00126237
0.00124776
0.00123304
0.00121823
0.00120333
0.00118835
0.00117329
0.00115815
0.00114294
0.00112766
0.00111232
0.00109692
0.00108147
0.00106597
0.00105041
0.00103481
0.00101917
0.0010035
0.000987785
0.00097204
0.000956266
0.000940466
0.000924642
0.000908796
0.000892931
0.000877049
0.000861152
0.000845243
0.000829323
0.000813393
0.000797457
0.000781515
0.000765569
0.00074962
0.00073367
0.00071772
0.000701772
0.000685825
0.000669882
0.000653944
0.00063801
0.000622083
0.000606162
0.000590248
0.000574343
0.000558446
0.000542558
0.000526679
0.00051081
0.000494951
0.000479102
0.000463263
0.000447435
0.000431617
0.000415811
0.000400014
0.000384229
0.000368453
0.000352688
0.000336934
0.000321189
0.000305454
0.000289728
0.000274011
0.000258303
0.000242604
0.000226912
0.000211229
0.000195552
0.000179882
0.000164219
0.000148561
0.000132909
0.000117261
0.000101617
8.59777e-05
7.03411e-05
5.47071e-05
3.9075e-05
2.34444e-05
7.81472e-06
2.69143e-05
8.07442e-05
0.000134578
0.000188417
0.000242264
0.000296122
0.000349992
0.000403877
0.000457778
0.000511699
0.00056564
0.000619603
0.000673591
0.000727604
0.000781645
0.000835714
0.000889813
0.000943943
0.000998104
0.0010523
0.00110652
0.00116078
0.00121507
0.0012694
0.00132376
0.00137814
0.00143256
0.00148701
0.00154148
0.00159598
0.00165051
0.00170505
0.00175962
0.0018142
0.00186879
0.00192338
0.00197799
0.00203258
0.00208718
0.00214176
0.00219632
0.00225086
0.00230537
0.00235983
0.00241426
0.00246862
0.00252293
0.00257716
0.00263131
0.00268537
0.00273932
0.00279316
0.00284687
0.00290045
0.00295387
0.00300713
0.00306021
0.00311309
0.00316577
0.00321823
0.00327045
0.00332241
0.00337409
0.00342549
0.00347658
0.00352735
0.00357776
0.00362782
0.00367748
0.00372675
0.00377559
0.00382398
0.0038719
0.00391934
0.00396626
0.00401266
0.00405849
0.00410375
0.0041484
0.00419244
0.00423582
0.00427853
0.00432055
0.00436185
0.00440242
0.00444221
0.00448122
0.00451943
0.0045568
0.00459331
0.00462895
0.00466369
0.00469751
0.00473038
0.0047623
0.00479323
0.00482316
0.00485207
0.00487994
0.00490675
0.00493249
0.00495714
0.00498068
0.0050031
0.00502438
0.00504452
0.0050635
0.0050813
0.00509792
0.00511335
0.00512758
0.0051406
0.00515241
0.005163
0.00517236
0.00518049
0.0051874
0.00519307
0.00519752
0.00520073
0.00520271
0.00520347
0.005203
0.00520132
0.00519843
0.00519433
0.00518903
0.00518254
0.00517488
0.00516604
0.00515605
0.00514491
0.00513263
0.00511924
0.00510474
0.00508916
0.00507249
0.00505477
0.005036
0.00501621
0.00499541
0.00497363
0.00495087
0.00492716
0.00490252
0.00487696
0.00485052
0.0048232
0.00479503
0.00476603
0.00473621
0.00470561
0.00467424
0.00464212
0.00460927
0.00457572
0.00454148
0.00450657
0.00447102
0.00443485
0.00439808
0.00436072
0.0043228
0.00428433
0.00424534
0.00420585
0.00416587
0.00412543
0.00408453
0.00404321
0.00400148
0.00395935
0.00391684
0.00387397
0.00383076
0.00378722
0.00374337
0.00369922
0.00365479
0.00361008
0.00356513
0.00351994
0.00347452
0.00342888
0.00338305
0.00333703
0.00329083
0.00324446
0.00319794
0.00315128
0.00310448
0.00305756
0.00301052
0.00296338
0.00291615
0.00286882
0.00282142
0.00277394
0.0027264
0.00267881
0.00263116
0.00258347
0.00253574
0.00248797
0.00244018
0.00239237
0.00234455
0.00229671
0.00224886
0.00220101
0.00215316
0.00210531
0.00205747
0.00200964
0.00196182
0.00191402
0.00186624
0.00181848
0.00177074
0.00172302
0.00167533
0.00162766
0.00158003
0.00153242
0.00148484
0.00143729
0.00138978
0.00134229
0.00129484
0.00124742
0.00120003
0.00115267
0.00110535
0.00105805
0.00101079
0.000963555
0.00091635
0.000869173
0.000822024
0.000774901
0.000727803
0.000680729
0.000633678
0.000586649
0.00053964
0.00049265
0.000445678
0.000398721
0.000351778
0.000304848
0.00025793
0.000211021
0.000164119
0.000117224
7.03325e-05
2.34439e-05
4.4856e-05
0.00013457
0.00022429
0.000314019
0.000403762
0.000493522
0.000583303
0.000673109
0.000762943
0.000852808
0.000942708
0.00103265
0.00112262
0.00121264
0.00130271
0.00139282
0.00148299
0.0015732
0.00166347
0.00175379
0.00184417
0.0019346
0.00202509
0.00211563
0.00220622
0.00229687
0.00238757
0.00247832
0.00256911
0.00265995
0.00275083
0.00284174
0.00293268
0.00302365
0.00311464
0.00320564
0.00329664
0.00338765
0.00347864
0.00356962
0.00366056
0.00375147
0.00384232
0.00393311
0.00402382
0.00411444
0.00420496
0.00429536
0.00438562
0.00447572
0.00456566
0.0046554
0.00474494
0.00483424
0.0049233
0.00501208
0.00510056
0.00518872
0.00527654
0.00536398
0.00545103
0.00553765
0.00562381
0.0057095
0.00579467
0.00587929
0.00596334
0.00604679
0.00612959
0.00621172
0.00629314
0.00637382
0.00645372
0.0065328
0.00661103
0.00668838
0.0067648
0.00684025
0.0069147
0.00698811
0.00706044
0.00713166
0.00720172
0.00727058
0.00733821
0.00740456
0.00746961
0.0075333
0.00759561
0.00765649
0.00771591
0.00777384
0.00783022
0.00788504
0.00793825
0.00798983
0.00803974
0.00808794
0.00813441
0.00817911
0.00822203
0.00826313
0.00830238
0.00833976
0.00837525
0.00840882
0.00844046
0.00847015
0.00849786
0.00852358
0.00854731
0.00856902
0.0085887
0.00860635
0.00862196
0.00863552
0.00864703
0.00865649
0.0086639
0.00866925
0.00867255
0.00867381
0.00867303
0.00867022
0.00866538
0.00865854
0.0086497
0.00863888
0.00862609
0.00861135
0.00859468
0.0085761
0.00855563
0.0085333
0.00850912
0.00848312
0.00845533
0.00842577
0.00839448
0.00836147
0.00832679
0.00829046
0.00825251
0.00821297
0.00817188
0.00812927
0.00808517
0.00803961
0.00799264
0.00794428
0.00789457
0.00784354
0.00779123
0.00773767
0.0076829
0.00762695
0.00756987
0.00751167
0.0074524
0.00739209
0.00733077
0.00726849
0.00720526
0.00714113
0.00707613
0.00701029
0.00694364
0.00687621
0.00680803
0.00673914
0.00666957
0.00659933
0.00652847
0.006457
0.00638497
0.00631238
0.00623928
0.00616568
0.00609161
0.00601709
0.00594215
0.00586681
0.0057911
0.00571503
0.00563862
0.00556191
0.00548489
0.0054076
0.00533006
0.00525227
0.00517427
0.00509606
0.00501765
0.00493908
0.00486034
0.00478146
0.00470244
0.00462331
0.00454407
0.00446473
0.00438531
0.00430582
0.00422626
0.00414665
0.004067
0.00398731
0.00390759
0.00382785
0.0037481
0.00366835
0.00358859
0.00350884
0.00342911
0.00334939
0.00326969
0.00319002
0.00311038
0.00303077
0.0029512
0.00287167
0.00279218
0.00271274
0.00263334
0.002554
0.0024747
0.00239545
0.00231626
0.00223712
0.00215803
0.002079
0.00200002
0.00192109
0.00184221
0.00176339
0.00168462
0.00160589
0.00152722
0.00144859
0.00137001
0.00129147
0.00121298
0.00113452
0.00105611
0.000977726
0.000899379
0.000821064
0.000742778
0.000664519
0.000586283
0.000508068
0.000429872
0.000351692
0.000273525
0.000195368
0.000117218
3.90721e-05
6.27956e-05
0.00018839
0.000313992
0.000439608
0.000565243
0.000690902
0.00081659
0.000942314
0.00106808
0.00119388
0.00131974
0.00144565
0.00157161
0.00169764
0.00182373
0.00194988
0.00207611
0.00220241
0.00232879
0.00245523
0.00258176
0.00270837
0.00283505
0.00296181
0.00308864
0.00321555
0.00334253
0.00346958
0.0035967
0.00372387
0.00385111
0.00397839
0.00410572
0.00423308
0.00436047
0.00448788
0.0046153
0.00474272
0.00487013
0.00499751
0.00512484
0.00525213
0.00537934
0.00550646
0.00563348
0.00576037
0.00588711
0.00601369
0.00614008
0.00626625
0.00639219
0.00651786
0.00664324
0.0067683
0.006893
0.00701732
0.00714123
0.00726469
0.00738767
0.00751013
0.00763203
0.00775334
0.00787402
0.00799401
0.00811329
0.00823182
0.00834953
0.0084664
0.00858237
0.0086974
0.00881144
0.00892444
0.00903635
0.00914711
0.00925669
0.00936503
0.00947206
0.00957775
0.00968204
0.00978487
0.00988619
0.00998594
0.0100841
0.0101805
0.0102753
0.0103682
0.0104593
0.0105486
0.0106358
0.0107211
0.0108044
0.0108855
0.0109645
0.0110413
0.0111158
0.0111881
0.011258
0.0113255
0.0113906
0.0114533
0.0115134
0.011571
0.0116259
0.0116783
0.011728
0.0117751
0.0118194
0.011861
0.0118998
0.0119358
0.0119691
0.0119995
0.012027
0.0120518
0.0120736
0.0120926
0.0121087
0.012122
0.0121323
0.0121398
0.0121444
0.0121462
0.0121451
0.0121411
0.0121344
0.0121248
0.0121124
0.0120972
0.0120793
0.0120586
0.0120352
0.0120092
0.0119805
0.0119492
0.0119153
0.0118789
0.0118399
0.0117985
0.0117547
0.0117084
0.0116598
0.0116089
0.0115557
0.0115003
0.0114428
0.0113831
0.0113213
0.0112574
0.0111916
0.0111239
0.0110542
0.0109827
0.0109095
0.0108344
0.0107577
0.0106793
0.0105994
0.0105178
0.0104348
0.0103503
0.0102644
0.0101772
0.0100886
0.00999881
0.00990776
0.00981554
0.00972218
0.00962774
0.00953225
0.00943576
0.00933831
0.00923995
0.0091407
0.00904061
0.00893972
0.00883806
0.00873568
0.0086326
0.00852887
0.00842452
0.00831957
0.00821407
0.00810804
0.00800151
0.00789451
0.00778708
0.00767924
0.00757101
0.00746242
0.0073535
0.00724426
0.00713474
0.00702496
0.00691493
0.00680468
0.00669423
0.00658359
0.00647279
0.00636183
0.00625075
0.00613954
0.00602824
0.00591684
0.00580538
0.00569385
0.00558227
0.00547066
0.00535901
0.00524735
0.00513569
0.00502402
0.00491236
0.00480073
0.00468911
0.00457753
0.00446598
0.00435448
0.00424302
0.00413162
0.00402028
0.00390899
0.00379777
0.00368661
0.00357552
0.00346451
0.00335356
0.00324269
0.00313189
0.00302117
0.00291052
0.00279995
0.00268945
0.00257903
0.00246867
0.00235839
0.00224818
0.00213804
0.00202796
0.00191795
0.001808
0.00169811
0.00158828
0.0014785
0.00136877
0.00125909
0.00114945
0.00103985
0.000930293
0.000820766
0.00071127
0.000601799
0.000492351
0.000382921
0.000273505
0.000164099
5.4699e-05
8.07325e-05
0.000242201
0.00040368
0.000565177
0.000726699
0.000888252
0.00104984
0.00121148
0.00137317
0.00153491
0.00169672
0.00185859
0.00202054
0.00218257
0.00234468
0.00250687
0.00266916
0.00283154
0.00299402
0.0031566
0.00331927
0.00348205
0.00364493
0.00380791
0.00397098
0.00413415
0.00429742
0.00446078
0.00462422
0.00478774
0.00495134
0.005115
0.00527872
0.00544248
0.00560629
0.00577012
0.00593397
0.00609781
0.00626164
0.00642543
0.00658918
0.00675286
0.00691644
0.00707992
0.00724326
0.00740644
0.00756943
0.00773222
0.00789476
0.00805702
0.00821898
0.00838061
0.00854186
0.0087027
0.00886309
0.00902299
0.00918235
0.00934115
0.00949933
0.00965684
0.00981364
0.00996967
0.0101249
0.0102792
0.0104327
0.0105851
0.0107366
0.0108869
0.0110361
0.0111841
0.0113308
0.0114761
0.0116201
0.0117626
0.0119036
0.012043
0.0121807
0.0123167
0.0124508
0.0125831
0.0127135
0.0128418
0.0129681
0.0130922
0.0132141
0.0133337
0.013451
0.0135658
0.0136781
0.0137878
0.0138949
0.0139993
0.014101
0.0141998
0.0142957
0.0143887
0.0144787
0.0145656
0.0146493
0.0147299
0.0148073
0.0148814
0.0149521
0.0150195
0.0150835
0.015144
0.015201
0.0152545
0.0153045
0.0153509
0.0153936
0.0154327
0.0154682
0.0155
0.0155281
0.0155526
0.0155733
0.0155903
0.0156036
0.0156133
0.0156192
0.0156214
0.01562
0.0156149
0.0156061
0.0155938
0.0155778
0.0155582
0.0155352
0.0155086
0.0154785
0.0154449
0.015408
0.0153677
0.0153241
0.0152771
0.015227
0.0151737
0.0151172
0.0150577
0.0149951
0.0149296
0.0148612
0.0147899
0.0147158
0.0146389
0.0145594
0.0144773
0.0143926
0.0143054
0.0142158
0.0141238
0.0140295
0.0139329
0.0138342
0.0137333
0.0136304
0.0135255
0.0134187
0.01331
0.0131995
0.0130872
0.0129733
0.0128577
0.0127406
0.0126219
0.0125018
0.0123803
0.0122575
0.0121333
0.012008
0.0118814
0.0117538
0.011625
0.0114952
0.0113645
0.0112328
0.0111002
0.0109668
0.0108325
0.0106976
0.0105619
0.0104255
0.0102885
0.0101508
0.0100127
0.00987397
0.00973477
0.00959511
0.00945503
0.00931455
0.0091737
0.00903251
0.00889101
0.00874923
0.00860718
0.0084649
0.00832241
0.00817973
0.00803687
0.00789387
0.00775074
0.0076075
0.00746416
0.00732075
0.00717727
0.00703375
0.00689019
0.00674661
0.00660302
0.00645944
0.00631587
0.00617232
0.00602881
0.00588533
0.00574191
0.00559854
0.00545523
0.00531199
0.00516882
0.00502574
0.00488273
0.00473981
0.00459698
0.00445424
0.0043116
0.00416905
0.00402659
0.00388423
0.00374197
0.00359981
0.00345774
0.00331577
0.00317389
0.0030321
0.0028904
0.0027488
0.00260727
0.00246583
0.00232447
0.00218319
0.00204198
0.00190084
0.00175976
0.00161875
0.00147779
0.00133689
0.00119603
0.00105522
0.000914446
0.000773704
0.000632992
0.000492303
0.000351632
0.000210974
7.03238e-05
9.86659e-05
0.000296002
0.000493351
0.000690722
0.000888123
0.00108556
0.00128305
0.00148059
0.0016782
0.00187587
0.00207362
0.00227146
0.00246939
0.00266741
0.00286554
0.00306377
0.00326212
0.00346058
0.00365916
0.00385786
0.00405669
0.00425564
0.00445471
0.00465391
0.00485323
0.00505266
0.00525222
0.00545189
0.00565166
0.00585153
0.0060515
0.00625155
0.00645167
0.00665185
0.00685208
0.00705234
0.00725263
0.00745291
0.00765318
0.00785341
0.00805359
0.00825368
0.00845366
0.00865351
0.0088532
0.00905269
0.00925197
0.00945098
0.0096497
0.0098481
0.0100461
0.0102437
0.0104409
0.0106375
0.0108337
0.0110292
0.0112241
0.0114182
0.0116116
0.0118043
0.011996
0.0121868
0.0123766
0.0125654
0.012753
0.0129395
0.0131247
0.0133086
0.013491
0.013672
0.0138515
0.0140293
0.0142053
0.0143797
0.0145521
0.0147226
0.014891
0.0150574
0.0152215
0.0153833
0.0155428
0.0156998
0.0158543
0.0160061
0.0161553
0.0163016
0.016445
0.0165855
0.0167229
0.0168572
0.0169882
0.0171159
0.0172403
0.0173612
0.0174786
0.0175923
0.0177024
0.0178087
0.0179112
0.0180098
0.0181045
0.0181951
0.0182817
0.0183641
0.0184424
0.0185165
0.0185862
0.0186517
0.0187128
0.0187695
0.0188218
0.0188697
0.0189131
0.018952
0.0189863
0.0190162
0.0190416
0.0190624
0.0190787
0.0190904
0.0190976
0.0191003
0.0190985
0.0190923
0.0190815
0.0190664
0.0190468
0.0190229
0.0189946
0.018962
0.0189251
0.0188841
0.0188388
0.0187895
0.0187361
0.0186787
0.0186173
0.018552
0.0184829
0.01841
0.0183335
0.0182533
0.0181695
0.0180822
0.0179915
0.0178975
0.0178002
0.0176997
0.017596
0.0174893
0.0173796
0.0172671
0.0171517
0.0170335
0.0169127
0.0167894
0.0166635
0.0165351
0.0164044
0.0162714
0.0161363
0.0159989
0.0158595
0.0157182
0.0155749
0.0154298
0.0152828
0.0151342
0.014984
0.0148322
0.0146788
0.0145241
0.0143679
0.0142105
0.0140517
0.0138918
0.0137308
0.0135686
0.0134055
0.0132413
0.0130762
0.0129103
0.0127435
0.012576
0.0124077
0.0122388
0.0120692
0.011899
0.0117282
0.011557
0.0113852
0.011213
0.0110404
0.0108674
0.010694
0.0105204
0.0103464
0.0101722
0.00999779
0.00982315
0.00964834
0.00947336
0.00929825
0.00912303
0.00894771
0.00877232
0.00859688
0.00842139
0.00824588
0.00807036
0.00789485
0.00771935
0.00754388
0.00736846
0.00719309
0.00701777
0.00684253
0.00666737
0.00649229
0.0063173
0.0061424
0.00596761
0.00579293
0.00561835
0.00544389
0.00526954
0.00509531
0.00492119
0.0047472
0.00457333
0.00439957
0.00422593
0.00405241
0.00387901
0.00370572
0.00353254
0.00335947
0.0031865
0.00301363
0.00284087
0.0026682
0.00249561
0.00232312
0.0021507
0.00197836
0.00180609
0.00163388
0.00146173
0.00128964
0.00111759
0.000945581
0.000773609
0.000601666
0.000429746
0.000257841
8.59459e-05
0.000116595
0.00034979
0.000583
0.000816237
0.00104951
0.00128283
0.0015162
0.00174964
0.00198316
0.00221676
0.00245045
0.00268424
0.00291814
0.00315216
0.0033863
0.00362056
0.00385496
0.0040895
0.00432418
0.004559
0.00479398
0.0050291
0.00526437
0.00549978
0.00573535
0.00597106
0.00620691
0.00644289
0.006679
0.00691523
0.00715158
0.00738802
0.00762456
0.00786117
0.00809784
0.00833455
0.00857129
0.00880803
0.00904476
0.00928145
0.00951807
0.0097546
0.00999101
0.0102273
0.0104633
0.0106992
0.0109348
0.01117
0.011405
0.0116395
0.0118737
0.0121073
0.0123404
0.0125729
0.0128048
0.013036
0.0132664
0.0134961
0.0137248
0.0139525
0.0141793
0.0144049
0.0146294
0.0148527
0.0150746
0.0152951
0.0155142
0.0157316
0.0159474
0.0161615
0.0163738
0.0165841
0.0167924
0.0169986
0.0172025
0.0174042
0.0176035
0.0178003
0.0179944
0.0181859
0.0183746
0.0185604
0.0187431
0.0189228
0.0190992
0.0192723
0.019442
0.0196082
0.0197708
0.0199297
0.0200848
0.0202359
0.0203831
0.0205262
0.020665
0.0207996
0.0209299
0.0210557
0.021177
0.0212937
0.0214057
0.0215129
0.0216154
0.0217129
0.0218056
0.0218932
0.0219757
0.0220532
0.0221255
0.0221926
0.0222545
0.0223111
0.0223624
0.0224084
0.0224491
0.0224844
0.0225144
0.022539
0.0225582
0.0225721
0.0225806
0.0225837
0.0225816
0.0225741
0.0225614
0.0225434
0.0225202
0.0224918
0.0224583
0.0224197
0.022376
0.0223274
0.0222738
0.0222154
0.0221521
0.0220841
0.0220114
0.0219341
0.0218523
0.0217661
0.0216754
0.0215805
0.0214813
0.021378
0.0212706
0.0211593
0.0210441
0.0209252
0.0208025
0.0206762
0.0205464
0.0204132
0.0202767
0.0201369
0.0199939
0.0198479
0.0196989
0.0195471
0.0193925
0.0192351
0.0190752
0.0189127
0.0187478
0.0185806
0.0184111
0.0182394
0.0180656
0.0178898
0.0177121
0.0175325
0.0173511
0.0171681
0.0169834
0.0167972
0.0166094
0.0164203
0.0162298
0.0160381
0.0158451
0.015651
0.0154558
0.0152596
0.0150624
0.0148643
0.0146653
0.0144655
0.014265
0.0140638
0.0138619
0.0136594
0.0134563
0.0132527
0.0130486
0.0128441
0.0126392
0.0124339
0.0122282
0.0120223
0.0118161
0.0116096
0.011403
0.0111961
0.0109891
0.010782
0.0105748
0.0103674
0.01016
0.00995261
0.00974516
0.00953769
0.00933024
0.0091228
0.00891541
0.00870806
0.00850078
0.00829357
0.00808645
0.00787942
0.00767249
0.00746567
0.00725897
0.00705239
0.00684593
0.00663961
0.00643342
0.00622736
0.00602145
0.00581568
0.00561005
0.00540456
0.00519922
0.00499401
0.00478894
0.00458402
0.00437922
0.00417456
0.00397003
0.00376562
0.00356134
0.00335717
0.00315311
0.00294916
0.00274531
0.00254156
0.0023379
0.00213431
0.00193081
0.00172738
0.001524
0.00132069
0.00111742
0.000914198
0.000711007
0.000507844
0.000304699
0.000101565
0.000134519
0.000403562
0.000672624
0.000941715
0.00121085
0.00148004
0.00174929
0.00201862
0.00228804
0.00255755
0.00282717
0.00309691
0.00336678
0.00363678
0.00390692
0.00417721
0.00444766
0.00471827
0.00498905
0.00526
0.00553112
0.00580241
0.00607388
0.00634552
0.00661733
0.00688931
0.00716146
0.00743377
0.00770622
0.00797882
0.00825156
0.00852441
0.00879737
0.00907042
0.00934355
0.00961673
0.00988994
0.0101632
0.0104364
0.0107096
0.0109827
0.0112557
0.0115285
0.0118012
0.0120737
0.0123459
0.0126178
0.0128894
0.0131606
0.0134314
0.0137017
0.0139714
0.0142405
0.014509
0.0147767
0.0150436
0.0153097
0.0155748
0.0158389
0.0161019
0.0163637
0.0166242
0.0168835
0.0171413
0.0173976
0.0176522
0.0179052
0.0181563
0.0184056
0.0186528
0.018898
0.0191409
0.0193815
0.0196197
0.0198553
0.0200883
0.0203185
0.0205458
0.0207701
0.0209913
0.0212093
0.0214239
0.021635
0.0218426
0.0220465
0.0222465
0.0224426
0.0226346
0.0228225
0.0230061
0.0231852
0.0233599
0.02353
0.0236953
0.0238558
0.0240113
0.0241618
0.0243072
0.0244474
0.0245822
0.0247116
0.0248356
0.024954
0.0250667
0.0251737
0.0252749
0.0253703
0.0254598
0.0255434
0.0256209
0.0256924
0.0257578
0.0258171
0.0258702
0.0259172
0.0259579
0.0259925
0.0260209
0.0260431
0.0260591
0.0260689
0.0260725
0.0260699
0.0260613
0.0260465
0.0260256
0.0259988
0.0259659
0.0259271
0.0258824
0.0258319
0.0257756
0.0257137
0.0256461
0.0255729
0.0254942
0.0254102
0.0253208
0.0252262
0.0251265
0.0250216
0.0249119
0.0247972
0.0246778
0.0245537
0.024425
0.0242919
0.0241544
0.0240126
0.0238666
0.0237166
0.0235627
0.0234049
0.0232433
0.0230781
0.0229094
0.0227373
0.0225618
0.0223832
0.0222014
0.0220166
0.0218289
0.0216384
0.0214452
0.0212494
0.0210511
0.0208503
0.0206473
0.020442
0.0202346
0.0200251
0.0198137
0.0196004
0.0193853
0.0191685
0.0189501
0.0187302
0.0185088
0.0182859
0.0180618
0.0178364
0.0176099
0.0173822
0.0171534
0.0169237
0.0166931
0.0164615
0.0162292
0.0159961
0.0157624
0.0155279
0.0152929
0.0150573
0.0148212
0.0145847
0.0143477
0.0141103
0.0138726
0.0136346
0.0133963
0.0131578
0.012919
0.0126801
0.0124411
0.0122019
0.0119626
0.0117233
0.0114839
0.0112444
0.011005
0.0107656
0.0105262
0.0102869
0.0100476
0.0098084
0.00956929
0.00933027
0.00909137
0.00885259
0.00861393
0.00837541
0.00813703
0.0078988
0.00766073
0.00742281
0.00718505
0.00694746
0.00671002
0.00647276
0.00623566
0.00599872
0.00576195
0.00552534
0.00528889
0.0050526
0.00481646
0.00458047
0.00434463
0.00410893
0.00387336
0.00363792
0.00340261
0.00316741
0.00293233
0.00269735
0.00246247
0.00222767
0.00199296
0.00175832
0.00152374
0.00128922
0.00105475
0.000820322
0.000585922
0.000351545
0.00011718
0.000152436
0.000457316
0.000762217
0.00106715
0.00137213
0.00167718
0.0019823
0.00228751
0.00259281
0.00289823
0.00320378
0.00350946
0.00381528
0.00412126
0.0044274
0.00473371
0.00504021
0.00534688
0.00565375
0.00596082
0.00626808
0.00657554
0.00688321
0.00719108
0.00749914
0.0078074
0.00811585
0.00842449
0.0087333
0.00904228
0.00935141
0.00966069
0.00997009
0.0102796
0.0105892
0.0108989
0.0112086
0.0115183
0.011828
0.0121377
0.0124473
0.0127568
0.0130662
0.0133754
0.0136843
0.0139929
0.0143013
0.0146092
0.0149168
0.0152238
0.0155303
0.0158361
0.0161413
0.0164457
0.0167494
0.0170521
0.0173538
0.0176545
0.017954
0.0182523
0.0185493
0.0188449
0.0191389
0.0194314
0.0197221
0.020011
0.020298
0.020583
0.0208658
0.0211463
0.0214244
0.0217001
0.0219731
0.0222433
0.0225107
0.0227751
0.0230363
0.0232943
0.0235489
0.0237999
0.0240473
0.0242909
0.0245306
0.0247661
0.0249975
0.0252246
0.0254472
0.0256652
0.0258784
0.0260868
0.0262902
0.0264885
0.0266816
0.0268692
0.0270514
0.027228
0.0273989
0.0275639
0.0277231
0.0278761
0.0280231
0.0281638
0.0282982
0.0284261
0.0285476
0.0286626
0.0287708
0.0288724
0.0289672
0.0290552
0.0291364
0.0292106
0.0292779
0.0293381
0.0293914
0.0294377
0.0294769
0.0295091
0.0295342
0.0295523
0.0295633
0.0295674
0.0295644
0.0295545
0.0295377
0.0295139
0.0294833
0.0294459
0.0294018
0.029351
0.0292936
0.0292296
0.0291591
0.0290823
0.0289992
0.0289098
0.0288143
0.0287127
0.0286053
0.0284919
0.0283729
0.0282482
0.0281179
0.0279823
0.0278414
0.0276952
0.027544
0.0273879
0.0272269
0.0270611
0.0268908
0.026716
0.0265368
0.0263534
0.0261659
0.0259744
0.025779
0.0255798
0.025377
0.0251707
0.024961
0.0247479
0.0245317
0.0243125
0.0240903
0.0238652
0.0236374
0.023407
0.0231741
0.0229387
0.0227011
0.0224612
0.0222192
0.0219752
0.0217293
0.0214815
0.021232
0.0209808
0.0207281
0.0204739
0.0202182
0.0199612
0.019703
0.0194436
0.019183
0.0189214
0.0186589
0.0183954
0.0181311
0.017866
0.0176002
0.0173336
0.0170665
0.0167988
0.0165306
0.0162619
0.0159927
0.0157232
0.0154534
0.0151832
0.0149128
0.0146421
0.0143713
0.0141002
0.0138291
0.0135578
0.0132865
0.0130151
0.0127437
0.0124723
0.0122009
0.0119296
0.0116583
0.0113871
0.0111159
0.0108449
0.010574
0.0103032
0.0100326
0.00976206
0.00949171
0.00922153
0.00895153
0.00868169
0.00841204
0.00814258
0.00787329
0.0076042
0.0073353
0.00706659
0.00679806
0.00652973
0.00626157
0.00599361
0.00572582
0.00545821
0.00519077
0.00492349
0.00465638
0.00438942
0.00412261
0.00385594
0.00358941
0.003323
0.00305671
0.00279053
0.00252445
0.00225847
0.00199256
0.00172674
0.00146097
0.00119527
0.000929606
0.000663979
0.000398377
0.000132791
0.000170347
0.000511049
0.000851775
0.00119254
0.00153336
0.00187425
0.00221522
0.0025563
0.00289748
0.0032388
0.00358025
0.00392186
0.00426363
0.00460557
0.0049477
0.00529003
0.00563256
0.0059753
0.00631826
0.00666144
0.00700485
0.00734848
0.00769234
0.00803644
0.00838076
0.0087253
0.00907006
0.00941504
0.00976021
0.0101056
0.0104511
0.0107968
0.0111427
0.0114887
0.0118348
0.012181
0.0125272
0.0128735
0.0132197
0.013566
0.0139121
0.0142582
0.014604
0.0149497
0.0152952
0.0156403
0.0159851
0.0163295
0.0166733
0.0170167
0.0173594
0.0177015
0.0180428
0.0183833
0.0187229
0.0190615
0.019399
0.0197354
0.0200704
0.0204041
0.0207364
0.021067
0.021396
0.0217232
0.0220485
0.0223718
0.0226929
0.0230117
0.0233282
0.0236421
0.0239534
0.0242618
0.0245674
0.0248699
0.0251691
0.025465
0.0257574
0.0260462
0.0263312
0.0266122
0.0268891
0.0271618
0.0274301
0.0276939
0.0279529
0.0282072
0.0284564
0.0287005
0.0289392
0.0291726
0.0294003
0.0296224
0.0298385
0.0300487
0.0302527
0.0304504
0.0306418
0.0308266
0.0310048
0.0311762
0.0313407
0.0314983
0.0316488
0.0317921
0.0319281
0.0320568
0.0321781
0.0322918
0.0323979
0.0324965
0.0325873
0.0326704
0.0327456
0.0328131
0.0328727
0.0329245
0.0329683
0.0330043
0.0330324
0.0330525
0.0330648
0.0330693
0.0330659
0.0330547
0.0330357
0.033009
0.0329747
0.0329327
0.0328832
0.0328262
0.0327618
0.03269
0.032611
0.0325249
0.0324316
0.0323315
0.0322244
0.0321106
0.0319901
0.0318631
0.0317297
0.03159
0.0314441
0.0312921
0.0311342
0.0309705
0.0308011
0.0306262
0.0304458
0.0302602
0.0300695
0.0298737
0.029673
0.0294677
0.0292577
0.0290432
0.0288244
0.0286014
0.0283744
0.0281434
0.0279086
0.0276701
0.0274281
0.0271827
0.026934
0.0266821
0.0264271
0.0261692
0.0259086
0.0256452
0.0253792
0.0251108
0.0248401
0.024567
0.0242919
0.0240146
0.0237355
0.0234545
0.0231717
0.0228873
0.0226013
0.0223139
0.022025
0.0217348
0.0214434
0.0211508
0.0208572
0.0205625
0.0202669
0.0199704
0.0196731
0.019375
0.0190763
0.0187769
0.018477
0.0181765
0.0178756
0.0175742
0.0172725
0.0169704
0.016668
0.0163654
0.0160626
0.0157596
0.0154564
0.0151532
0.0148498
0.0145464
0.014243
0.0139396
0.0136362
0.0133329
0.0130296
0.0127265
0.0124234
0.0121204
0.0118176
0.0115149
0.0112124
0.01091
0.0106079
0.0103059
0.0100041
0.00970248
0.00940109
0.00909991
0.00879895
0.00849819
0.00819765
0.00789733
0.00759722
0.00729732
0.00699763
0.00669814
0.00639886
0.00609978
0.0058009
0.00550219
0.00520368
0.00490533
0.00460715
0.00430914
0.00401127
0.00371355
0.00341596
0.00311849
0.00282114
0.00252389
0.00222674
0.00192967
0.00163267
0.00133574
0.00103885
0.00074201
0.000445195
0.000148396
0.00018825
0.000564759
0.000941294
0.00131787
0.00169451
0.00207123
0.00244805
0.00282497
0.00320202
0.00357922
0.00395657
0.00433409
0.0047118
0.0050897
0.00546781
0.00584614
0.00622471
0.0066035
0.00698254
0.00736183
0.00774138
0.00812118
0.00850125
0.00888157
0.00926215
0.00964298
0.0100241
0.0104054
0.0107869
0.0111687
0.0115507
0.0119328
0.0123152
0.0126977
0.0130803
0.013463
0.0138458
0.0142286
0.0146115
0.0149943
0.015377
0.0157597
0.0161421
0.0165244
0.0169064
0.017288
0.0176693
0.0180501
0.0184305
0.0188102
0.0191893
0.0195677
0.0199452
0.0203218
0.0206975
0.021072
0.0214454
0.0218175
0.0221882
0.0225574
0.022925
0.0232909
0.0236549
0.024017
0.0243769
0.0247347
0.02509
0.0254429
0.0257931
0.0261406
0.0264851
0.0268266
0.0271648
0.0274996
0.0278309
0.0281585
0.0284822
0.0288019
0.0291174
0.0294286
0.0297352
0.0300372
0.0303343
0.0306263
0.0309132
0.0311947
0.0314707
0.031741
0.0320055
0.0322639
0.0325162
0.0327621
0.0330015
0.0332343
0.0334602
0.0336793
0.0338912
0.0340959
0.0342933
0.0344831
0.0346654
0.0348399
0.0350066
0.0351653
0.035316
0.0354585
0.0355928
0.0357187
0.0358363
0.0359454
0.0360459
0.0361379
0.0362212
0.0362959
0.0363619
0.0364191
0.0364677
0.0365074
0.0365384
0.0365607
0.0365742
0.036579
0.0365751
0.0365626
0.0365415
0.0365118
0.0364736
0.036427
0.036372
0.0363088
0.0362373
0.0361577
0.03607
0.0359745
0.0358711
0.03576
0.0356413
0.0355151
0.0353816
0.0352408
0.0350929
0.034938
0.0347763
0.0346078
0.0344328
0.0342514
0.0340637
0.0338699
0.0336701
0.0334645
0.0332531
0.0330363
0.032814
0.0325865
0.0323539
0.0321164
0.0318741
0.0316271
0.0313757
0.0311199
0.0308599
0.0305959
0.0303279
0.0300562
0.0297808
0.029502
0.0292197
0.0289343
0.0286458
0.0283542
0.0280599
0.0277628
0.0274631
0.027161
0.0268565
0.0265497
0.0262408
0.0259299
0.025617
0.0253023
0.0249859
0.0246679
0.0243483
0.0240273
0.0237049
0.0233813
0.0230564
0.0227305
0.0224035
0.0220756
0.0217467
0.0214171
0.0210867
0.0207556
0.0204239
0.0200916
0.0197588
0.0194255
0.0190919
0.0187579
0.0184235
0.0180889
0.0177541
0.017419
0.0170839
0.0167486