/*--------------------------------*- C++ -*----------------------------------*\
| =========                 |                                                 |
| \\      /  F ield         | OpenFOAM: The Open Source CFD Toolbox           |
|  \\    /   O peration     | Version:  v2012                                 |
|   \\  /    A nd           | Website:  www.openfoam.com                      |
|    \\/     M anipulation  |                                                 |
\*---------------------------------------------------------------------------*/
FoamFile
{
    version     2.0;
    format      ascii;
    class       surfaceScalarField;
    location    "18.5";
    object      phi;
}
// * * * * * * * * * * * * * * * * * * * * * * * * * * * * * * * * * * * * * //

dimensions      [0 3 -1 0 0 0 0];
oriented        oriented;


internalField   nonuniform List<scalar> 
130560
(
3.23936e-06
-3.23936e-06
6.47888e-06
-3.23952e-06
9.71869e-06
-3.23981e-06
1.2959e-05
-3.24026e-06
1.61998e-05
-3.24085e-06
1.94414e-05
-3.24158e-06
2.26838e-05
-3.24246e-06
2.59273e-05
-3.24348e-06
2.91719e-05
-3.24463e-06
3.24179e-05
-3.24593e-06
3.56652e-05
-3.24735e-06
3.89141e-05
-3.24891e-06
4.21647e-05
-3.25059e-06
4.54171e-05
-3.25239e-06
4.86714e-05
-3.25431e-06
5.19277e-05
-3.25634e-06
5.51862e-05
-3.25847e-06
5.84469e-05
-3.26071e-06
6.171e-05
-3.26304e-06
6.49754e-05
-3.26546e-06
6.82434e-05
-3.26796e-06
7.15139e-05
-3.27053e-06
7.47871e-05
-3.27317e-06
7.80629e-05
-3.27586e-06
8.13415e-05
-3.27861e-06
8.46229e-05
-3.28139e-06
8.79071e-05
-3.2842e-06
9.11942e-05
-3.28703e-06
9.4484e-05
-3.28987e-06
9.77767e-05
-3.29271e-06
0.000101072
-3.29553e-06
0.000104371
-3.29832e-06
0.000107672
-3.30108e-06
0.000110975
-3.30378e-06
0.000114282
-3.30642e-06
0.000117591
-3.30898e-06
0.000120902
-3.31144e-06
0.000124216
-3.31379e-06
0.000127532
-3.31601e-06
0.00013085
-3.31809e-06
0.00013417
-3.32001e-06
0.000137492
-3.32175e-06
0.000140815
-3.32329e-06
0.00014414
-3.32461e-06
0.000147466
-3.32569e-06
0.000150792
-3.32652e-06
0.000154119
-3.32707e-06
0.000157446
-3.32732e-06
0.000160774
-3.32725e-06
0.000164101
-3.32683e-06
0.000167427
-3.32605e-06
0.000170751
-3.32487e-06
0.000174075
-3.32327e-06
0.000177396
-3.32123e-06
0.000180715
-3.31871e-06
0.00018403
-3.3157e-06
0.000187343
-3.31217e-06
0.000190651
-3.30809e-06
0.000193954
-3.30342e-06
0.000197252
-3.29815e-06
0.000200544
-3.29223e-06
0.00020383
-3.28565e-06
0.000207108
-3.27837e-06
0.000210379
-3.27036e-06
0.00021364
-3.26159e-06
0.000216892
-3.25202e-06
0.000220134
-3.24163e-06
0.000223364
-3.23039e-06
0.000226583
-3.21826e-06
0.000229788
-3.2052e-06
0.000232979
-3.19119e-06
0.000236155
-3.1762e-06
0.000239315
-3.16018e-06
0.000242459
-3.14312e-06
0.000245584
-3.12497e-06
0.000248689
-3.10571e-06
0.000251775
-3.0853e-06
0.000254838
-3.06372e-06
0.000257879
-3.04092e-06
0.000260896
-3.01689e-06
0.000263888
-2.99159e-06
0.000266853
-2.965e-06
0.00026979
-2.93708e-06
0.000272698
-2.90781e-06
0.000275575
-2.87716e-06
0.00027842
-2.84511e-06
0.000281231
-2.81164e-06
0.000284008
-2.77672e-06
0.000286749
-2.74034e-06
0.000289451
-2.70248e-06
0.000292114
-2.66311e-06
0.000294736
-2.62222e-06
0.000297316
-2.57981e-06
0.000299852
-2.53586e-06
0.000302342
-2.49035e-06
0.000304786
-2.4433e-06
0.00030718
-2.39468e-06
0.000309525
-2.3445e-06
0.000311818
-2.29275e-06
0.000314057
-2.23945e-06
0.000316242
-2.1846e-06
0.00031837
-2.1282e-06
0.00032044
-2.07028e-06
0.000322451
-2.01083e-06
0.000324401
-1.94989e-06
0.000326288
-1.88746e-06
0.000328112
-1.82358e-06
0.00032987
-1.75827e-06
0.000331562
-1.69156e-06
0.000333185
-1.62349e-06
0.000334739
-1.55408e-06
0.000336223
-1.48338e-06
0.000337634
-1.41142e-06
0.000338972
-1.33826e-06
0.000340236
-1.26394e-06
0.000341425
-1.18851e-06
0.000342537
-1.11202e-06
0.000343571
-1.03453e-06
0.000344527
-9.561e-07
0.000345404
-8.76785e-07
0.000346201
-7.96649e-07
0.000346917
-7.15758e-07
0.000347551
-6.34179e-07
0.000348103
-5.51979e-07
0.000348572
-4.6923e-07
0.000348958
-3.86003e-07
0.00034926
-3.0237e-07
0.000349479
-2.18407e-07
0.000349613
-1.34187e-07
0.000349663
-4.97872e-08
0.000349628
3.47171e-08
0.000349509
1.19249e-07
0.000349305
2.03733e-07
0.000349017
2.88093e-07
0.000348645
3.72251e-07
0.000348189
4.56134e-07
0.000347649
5.39667e-07
0.000347026
6.22775e-07
0.000346321
7.05387e-07
0.000345533
7.87432e-07
0.000344665
8.68841e-07
0.000343715
9.49545e-07
0.000342685
1.02948e-06
0.000341577
1.10858e-06
0.00034039
1.18678e-06
0.000339126
1.26403e-06
0.000337786
1.34027e-06
0.00033637
1.41544e-06
0.000334881
1.4895e-06
0.000333319
1.56239e-06
0.000331684
1.63406e-06
0.00032998
1.70448e-06
0.000328206
1.77361e-06
0.000326365
1.8414e-06
0.000324457
1.90783e-06
0.000322484
1.97286e-06
0.000320448
2.03646e-06
0.000318349
2.09861e-06
0.00031619
2.15929e-06
0.000313971
2.21848e-06
0.000311695
2.27616e-06
0.000309363
2.33231e-06
0.000306976
2.38694e-06
0.000304536
2.44002e-06
0.000302044
2.49156e-06
0.000299503
2.54155e-06
0.000296913
2.58999e-06
0.000294276
2.63689e-06
0.000291594
2.68225e-06
0.000288868
2.72607e-06
0.000286099
2.76838e-06
0.00028329
2.80917e-06
0.000280442
2.84846e-06
0.000277555
2.88627e-06
0.000274633
2.92261e-06
0.000271675
2.9575e-06
0.000268684
2.99097e-06
0.000265661
3.02303e-06
0.000262608
3.05371e-06
0.000259525
3.08303e-06
0.000256414
3.11102e-06
0.000253276
3.1377e-06
0.000250113
3.1631e-06
0.000246925
3.18725e-06
0.000243715
3.21017e-06
0.000240483
3.23191e-06
0.000237231
3.25248e-06
0.000233959
3.27191e-06
0.000230669
3.29025e-06
0.000227361
3.30752e-06
0.000224038
3.32375e-06
0.000220699
3.33897e-06
0.000217345
3.35322e-06
0.000213979
3.36652e-06
0.0002106
3.37892e-06
0.000207209
3.39043e-06
0.000203808
3.4011e-06
0.000200397
3.41095e-06
0.000196977
3.42002e-06
0.000193549
3.42834e-06
0.000190113
3.43593e-06
0.00018667
3.44283e-06
0.000183221
3.44907e-06
0.000179767
3.45468e-06
0.000176307
3.45969e-06
0.000172843
3.46412e-06
0.000169375
3.468e-06
0.000165903
3.47138e-06
0.000162429
3.47426e-06
0.000158952
3.47667e-06
0.000155474
3.47865e-06
0.000151994
3.48022e-06
0.000148512
3.4814e-06
0.00014503
3.48223e-06
0.000141547
3.48271e-06
0.000138064
3.48288e-06
0.000134582
3.48276e-06
0.000131099
3.48237e-06
0.000127617
3.48173e-06
0.000124137
3.48086e-06
0.000120657
3.47979e-06
0.000117178
3.47853e-06
0.000113701
3.4771e-06
0.000110226
3.47552e-06
0.000106752
3.47381e-06
0.00010328
3.47198e-06
9.98099e-05
3.47006e-06
9.63418e-05
3.46805e-06
9.28758e-05
3.46598e-06
8.9412e-05
3.46385e-06
8.59503e-05
3.46169e-06
8.24908e-05
3.4595e-06
7.90335e-05
3.4573e-06
7.55784e-05
3.4551e-06
7.21255e-05
3.45292e-06
6.86747e-05
3.45075e-06
6.52261e-05
3.44863e-06
6.17795e-05
3.44654e-06
5.8335e-05
3.44452e-06
5.48925e-05
3.44255e-06
5.14518e-05
3.44066e-06
4.8013e-05
3.43885e-06
4.45758e-05
3.43712e-06
4.11403e-05
3.43549e-06
3.77064e-05
3.43396e-06
3.42739e-05
3.43254e-06
3.08426e-05
3.43123e-06
2.74126e-05
3.43003e-06
2.39836e-05
3.42896e-06
2.05556e-05
3.42802e-06
1.71284e-05
3.4272e-06
1.37019e-05
3.42651e-06
1.02759e-05
3.42596e-06
6.8504e-06
3.42555e-06
3.42513e-06
3.42527e-06
3.42513e-06
3.23923e-06
-6.47859e-06
6.4786e-06
-6.47889e-06
9.71827e-06
-6.47948e-06
1.29584e-05
-6.48037e-06
1.61991e-05
-6.48155e-06
1.94405e-05
-6.48302e-06
2.26829e-05
-6.48478e-06
2.59262e-05
-6.48682e-06
2.91707e-05
-6.48913e-06
3.24165e-05
-6.49172e-06
3.56637e-05
-6.49458e-06
3.89125e-05
-6.49769e-06
4.2163e-05
-6.50106e-06
4.54152e-05
-6.50466e-06
4.86694e-05
-6.50851e-06
5.19257e-05
-6.51257e-06
5.51841e-05
-6.51685e-06
5.84447e-05
-6.52133e-06
6.17076e-05
-6.526e-06
6.4973e-05
-6.53084e-06
6.82409e-05
-6.53585e-06
7.15114e-05
-6.541e-06
7.47845e-05
-6.54628e-06
7.80603e-05
-6.55168e-06
8.13389e-05
-6.55718e-06
8.46202e-05
-6.56275e-06
8.79044e-05
-6.56838e-06
9.11914e-05
-6.57406e-06
9.44813e-05
-6.57974e-06
9.7774e-05
-6.58543e-06
0.00010107
-6.59109e-06
0.000104368
-6.59669e-06
0.000107669
-6.60222e-06
0.000110973
-6.60764e-06
0.000114279
-6.61293e-06
0.000117589
-6.61806e-06
0.0001209
-6.62299e-06
0.000124214
-6.62771e-06
0.00012753
-6.63217e-06
0.000130848
-6.63635e-06
0.000134169
-6.6402e-06
0.000137491
-6.64369e-06
0.000140814
-6.64679e-06
0.000144139
-6.64946e-06
0.000147465
-6.65165e-06
0.000150792
-6.65333e-06
0.000154119
-6.65445e-06
0.000157447
-6.65497e-06
0.000160774
-6.65485e-06
0.000164102
-6.65404e-06
0.000167428
-6.65249e-06
0.000170753
-6.65015e-06
0.000174077
-6.64698e-06
0.000177399
-6.64292e-06
0.000180718
-6.63793e-06
0.000184034
-6.63194e-06
0.000187347
-6.6249e-06
0.000190656
-6.61676e-06
0.00019396
-6.60745e-06
0.000197258
-6.59693e-06
0.000200551
-6.58514e-06
0.000203838
-6.572e-06
0.000207117
-6.55747e-06
0.000210388
-6.54148e-06
0.00021365
-6.52397e-06
0.000216903
-6.50487e-06
0.000220146
-6.48413e-06
0.000223377
-6.46167e-06
0.000226596
-6.43743e-06
0.000229802
-6.41136e-06
0.000232994
-6.38337e-06
0.000236172
-6.35341e-06
0.000239333
-6.32142e-06
0.000242477
-6.28732e-06
0.000245603
-6.25106e-06
0.00024871
-6.21257e-06
0.000251796
-6.17179e-06
0.000254861
-6.12864e-06
0.000257904
-6.08309e-06
0.000260922
-6.03505e-06
0.000263915
-5.98448e-06
0.000266881
-5.93132e-06
0.000269819
-5.8755e-06
0.000272728
-5.81699e-06
0.000275607
-5.75572e-06
0.000278454
-5.69165e-06
0.000281267
-5.62473e-06
0.000284045
-5.55491e-06
0.000286787
-5.48217e-06
0.000289491
-5.40645e-06
0.000292155
-5.32773e-06
0.000294779
-5.24598e-06
0.00029736
-5.16116e-06
0.000299898
-5.07326e-06
0.00030239
-4.98226e-06
0.000304835
-4.88815e-06
0.000307231
-4.79091e-06
0.000309577
-4.69055e-06
0.000311871
-4.58706e-06
0.000314112
-4.48045e-06
0.000316298
-4.37074e-06
0.000318428
-4.25794e-06
0.0003205
-4.14207e-06
0.000322512
-4.02316e-06
0.000324464
-3.90125e-06
0.000326352
-3.77638e-06
0.000328177
-3.64859e-06
0.000329937
-3.51795e-06
0.00033163
-3.38449e-06
0.000333255
-3.2483e-06
0.00033481
-3.10945e-06
0.000336295
-2.968e-06
0.000337707
-2.82405e-06
0.000339047
-2.67768e-06
0.000340312
-2.52899e-06
0.000341501
-2.37807e-06
0.000342615
-2.22504e-06
0.00034365
-2.07e-06
0.000344607
-1.91308e-06
0.000345485
-1.75439e-06
0.000346282
-1.59405e-06
0.000346998
-1.4322e-06
0.000347633
-1.26897e-06
0.000348186
-1.1045e-06
0.000348655
-9.38934e-07
0.000349042
-7.72406e-07
0.000349345
-6.05067e-07
0.000349563
-4.37065e-07
0.000349698
-2.6855e-07
0.000349747
-9.96742e-08
0.000349713
6.94108e-08
0.000349593
2.38552e-07
0.00034939
4.07596e-07
0.000349101
5.7639e-07
0.000348729
7.44783e-07
0.000348272
9.12623e-07
0.000347732
1.07976e-06
0.000347109
1.24605e-06
0.000346403
1.41135e-06
0.000345615
1.57551e-06
0.000344745
1.73839e-06
0.000343795
1.89986e-06
0.000342765
2.0598e-06
0.000341655
2.21806e-06
0.000340467
2.37453e-06
0.000339202
2.52908e-06
0.000337861
2.68161e-06
0.000336444
2.83201e-06
0.000334954
2.98017e-06
0.00033339
3.12599e-06
0.000331755
3.26939e-06
0.000330049
3.41027e-06
0.000328274
3.54856e-06
0.000326431
3.68418e-06
0.000324522
3.81706e-06
0.000322548
3.94715e-06
0.00032051
4.07438e-06
0.00031841
4.19871e-06
0.000316249
4.32008e-06
0.000314029
4.43847e-06
0.000311751
4.55384e-06
0.000309418
4.66616e-06
0.000307029
4.77542e-06
0.000304588
4.88159e-06
0.000302094
4.98467e-06
0.000299551
5.08465e-06
0.00029696
5.18153e-06
0.000294321
5.27532e-06
0.000291638
5.36603e-06
0.00028891
5.45367e-06
0.00028614
5.53827e-06
0.000283329
5.61983e-06
0.000280479
5.6984e-06
0.000277592
5.774e-06
0.000274668
5.84667e-06
0.000271709
5.91644e-06
0.000268716
5.98335e-06
0.000265692
6.04745e-06
0.000262637
6.10878e-06
0.000259552
6.1674e-06
0.00025644
6.22334e-06
0.000253301
6.27667e-06
0.000250137
6.32745e-06
0.000246948
6.37572e-06
0.000243737
6.42154e-06
0.000240504
6.46498e-06
0.00023725
6.50609e-06
0.000233977
6.54493e-06
0.000230686
6.58157e-06
0.000227377
6.61608e-06
0.000224053
6.6485e-06
0.000220713
6.67891e-06
0.000217359
6.70738e-06
0.000213991
6.73396e-06
0.000210611
6.75871e-06
0.00020722
6.78171e-06
0.000203818
6.80301e-06
0.000200406
6.82269e-06
0.000196986
6.84079e-06
0.000193557
6.85739e-06
0.00019012
6.87255e-06
0.000186676
6.88632e-06
0.000183227
6.89877e-06
0.000179771
6.90996e-06
0.000176311
6.91994e-06
0.000172847
6.92878e-06
0.000169378
6.93653e-06
0.000165906
6.94324e-06
0.000162431
6.94897e-06
0.000158954
6.95378e-06
0.000155475
6.95772e-06
0.000151995
6.96083e-06
0.000148513
6.96317e-06
0.00014503
6.96479e-06
0.000141547
6.96573e-06
0.000138064
6.96605e-06
0.000134581
6.96578e-06
0.000131098
6.96498e-06
0.000127617
6.96368e-06
0.000124135
6.96192e-06
0.000120656
6.95976e-06
0.000117177
6.95722e-06
0.0001137
6.95434e-06
0.000110224
6.95117e-06
0.00010675
6.94773e-06
0.000103278
6.94406e-06
9.98078e-05
6.9402e-06
9.63397e-05
6.93617e-06
9.28736e-05
6.93201e-06
8.94097e-05
6.92774e-06
8.5948e-05
6.9234e-06
8.24885e-05
6.91901e-06
7.90312e-05
6.9146e-06
7.55761e-05
6.91019e-06
7.21232e-05
6.90581e-06
6.86725e-05
6.90147e-06
6.52239e-05
6.89721e-06
6.17775e-05
6.89303e-06
5.8333e-05
6.88897e-06
5.48905e-05
6.88503e-06
5.145e-05
6.88123e-06
4.80112e-05
6.8776e-06
4.45742e-05
6.87414e-06
4.11388e-05
6.87088e-06
3.77049e-05
6.86781e-06
3.42725e-05
6.86496e-06
3.08414e-05
6.86233e-06
2.74115e-05
6.85994e-06
2.39827e-05
6.85779e-06
2.05548e-05
6.8559e-06
1.71277e-05
6.85426e-06
1.37013e-05
6.85289e-06
1.02755e-05
6.85178e-06
6.85012e-06
6.85095e-06
3.42499e-06
6.8504e-06
6.85012e-06
3.23893e-06
-9.71752e-06
6.478e-06
-9.71796e-06
9.71737e-06
-9.71886e-06
1.29572e-05
-9.72019e-06
1.61976e-05
-9.72196e-06
1.94388e-05
-9.72417e-06
2.26808e-05
-9.72681e-06
2.59239e-05
-9.72988e-06
2.91681e-05
-9.73336e-06
3.24136e-05
-9.73725e-06
3.56606e-05
-9.74154e-06
3.89091e-05
-9.74622e-06
4.21593e-05
-9.75128e-06
4.54114e-05
-9.7567e-06
4.86653e-05
-9.76248e-06
5.19214e-05
-9.76859e-06
5.51795e-05
-9.77502e-06
5.844e-05
-9.78176e-06
6.17027e-05
-9.78877e-06
6.4968e-05
-9.79606e-06
6.82357e-05
-9.80358e-06
7.1506e-05
-9.81133e-06
7.4779e-05
-9.81928e-06
7.80548e-05
-9.8274e-06
8.13332e-05
-9.83567e-06
8.46145e-05
-9.84405e-06
8.78987e-05
-9.85253e-06
9.11857e-05
-9.86106e-06
9.44756e-05
-9.86962e-06
9.77683e-05
-9.87818e-06
0.000101064
-9.8867e-06
0.000104362
-9.89513e-06
0.000107664
-9.90346e-06
0.000110968
-9.91162e-06
0.000114274
-9.91959e-06
0.000117584
-9.92732e-06
0.000120895
-9.93477e-06
0.000124209
-9.94188e-06
0.000127526
-9.94862e-06
0.000130844
-9.95492e-06
0.000134165
-9.96075e-06
0.000137487
-9.96603e-06
0.000140811
-9.97073e-06
0.000144137
-9.97478e-06
0.000147463
-9.97812e-06
0.00015079
-9.98069e-06
0.000154118
-9.98243e-06
0.000157447
-9.98327e-06
0.000160775
-9.98314e-06
0.000164103
-9.98198e-06
0.00016743
-9.97972e-06
0.000170756
-9.97628e-06
0.000174081
-9.97158e-06
0.000177404
-9.96556e-06
0.000180724
-9.95813e-06
0.000184041
-9.94921e-06
0.000187355
-9.93873e-06
0.000190665
-9.92658e-06
0.00019397
-9.9127e-06
0.00019727
-9.897e-06
0.000200564
-9.87938e-06
0.000203852
-9.85975e-06
0.000207133
-9.83803e-06
0.000210405
-9.81413e-06
0.000213669
-9.78794e-06
0.000216924
-9.75937e-06
0.000220168
-9.72833e-06
0.000223401
-9.69472e-06
0.000226622
-9.65845e-06
0.00022983
-9.61942e-06
0.000233024
-9.57752e-06
0.000236203
-9.53267e-06
0.000239367
-9.48476e-06
0.000242513
-9.4337e-06
0.000245641
-9.37938e-06
0.000248751
-9.32172e-06
0.000251839
-9.26062e-06
0.000254907
-9.19599e-06
0.000257951
-9.12773e-06
0.000260972
-9.05575e-06
0.000263968
-8.97996e-06
0.000266937
-8.90029e-06
0.000269878
-8.81663e-06
0.00027279
-8.72892e-06
0.000275671
-8.63708e-06
0.00027852
-8.54103e-06
0.000281336
-8.44071e-06
0.000284117
-8.33604e-06
0.000286862
-8.22696e-06
0.000289569
-8.11343e-06
0.000292237
-7.99539e-06
0.000294864
-7.87279e-06
0.000297448
-7.74559e-06
0.000299989
-7.61377e-06
0.000302484
-7.47729e-06
0.000304932
-7.33613e-06
0.000307331
-7.19028e-06
0.00030968
-7.03973e-06
0.000311978
-6.88449e-06
0.000314222
-6.72457e-06
0.000316411
-6.55997e-06
0.000318544
-6.39074e-06
0.000320619
-6.2169e-06
0.000322634
-6.03849e-06
0.000324588
-5.85558e-06
0.00032648
-5.66821e-06
0.000328308
-5.47647e-06
0.00033007
-5.28042e-06
0.000331766
-5.08016e-06
0.000333394
-4.87579e-06
0.000334952
-4.66741e-06
0.000336439
-4.45514e-06
0.000337854
-4.2391e-06
0.000339195
-4.01942e-06
0.000340463
-3.79626e-06
0.000341654
-3.56975e-06
0.000342769
-3.34007e-06
0.000343807
-3.10737e-06
0.000344766
-2.87183e-06
0.000345645
-2.63363e-06
0.000346444
-2.39297e-06
0.000347162
-2.15003e-06
0.000347798
-1.90501e-06
0.000348351
-1.65813e-06
0.000348822
-1.4096e-06
0.000349209
-1.15962e-06
0.000349512
-9.08429e-07
0.000349732
-6.56239e-07
0.000349866
-4.03277e-07
0.000349916
-1.49773e-07
0.000349882
1.04046e-07
0.000349762
3.57949e-07
0.000349558
6.11706e-07
0.00034927
8.65087e-07
0.000348897
1.11786e-06
0.000348439
1.36981e-06
0.000347898
1.6207e-06
0.000347274
1.87032e-06
0.000346567
2.11844e-06
0.000345778
2.36485e-06
0.000344907
2.60935e-06
0.000343955
2.85172e-06
0.000342923
3.09178e-06
0.000341812
3.32933e-06
0.000340622
3.56418e-06
0.000339355
3.79615e-06
0.000338011
4.02508e-06
0.000336593
4.25081e-06
0.0003351
4.47317e-06
0.000333534
4.69202e-06
0.000331896
4.90722e-06
0.000330187
5.11864e-06
0.00032841
5.32617e-06
0.000326564
5.52969e-06
0.000324652
5.72909e-06
0.000322675
5.92429e-06
0.000320634
6.1152e-06
0.000318531
6.30175e-06
0.000316367
6.48386e-06
0.000314144
6.66148e-06
0.000311864
6.83457e-06
0.000309527
7.00308e-06
0.000307135
7.16698e-06
0.000304691
7.32625e-06
0.000302194
7.48087e-06
0.000299648
7.63084e-06
0.000297054
7.77616e-06
0.000294412
7.91684e-06
0.000291725
8.05288e-06
0.000288995
8.18432e-06
0.000286222
8.31118e-06
0.000283408
8.4335e-06
0.000280555
8.55131e-06
0.000277664
8.66467e-06
0.000274737
8.77362e-06
0.000271776
8.87822e-06
0.00026878
8.97854e-06
0.000265753
9.07463e-06
0.000262695
9.16657e-06
0.000259608
9.25443e-06
0.000256494
9.33828e-06
0.000253352
9.41821e-06
0.000250185
9.4943e-06
0.000246994
9.56663e-06
0.00024378
9.63529e-06
0.000240545
9.70037e-06
0.000237289
9.76196e-06
0.000234014
9.82015e-06
0.000230721
9.87504e-06
0.00022741
9.92671e-06
0.000224083
9.97527e-06
0.000220741
1.00208e-05
0.000217385
1.00634e-05
0.000214016
1.01032e-05
0.000210634
1.01403e-05
0.000207241
1.01747e-05
0.000203838
1.02066e-05
0.000200425
1.0236e-05
0.000197002
1.02631e-05
0.000193572
1.02879e-05
0.000190134
1.03106e-05
0.000186689
1.03311e-05
0.000183238
1.03497e-05
0.000179781
1.03664e-05
0.00017632
1.03813e-05
0.000172854
1.03945e-05
0.000169385
1.04061e-05
0.000165912
1.04161e-05
0.000162436
1.04246e-05
0.000158958
1.04318e-05
0.000155478
1.04376e-05
0.000151997
1.04422e-05
0.000148515
1.04457e-05
0.000145031
1.0448e-05
0.000141548
1.04494e-05
0.000138064
1.04498e-05
0.00013458
1.04493e-05
0.000131097
1.04481e-05
0.000127615
1.04461e-05
0.000124133
1.04434e-05
0.000120653
1.04401e-05
0.000117174
1.04362e-05
0.000113696
1.04319e-05
0.000110221
1.04271e-05
0.000106746
1.04219e-05
0.000103274
1.04163e-05
9.98038e-05
1.04105e-05
9.63355e-05
1.04044e-05
9.28694e-05
1.03981e-05
8.94054e-05
1.03917e-05
8.59437e-05
1.03852e-05
8.24841e-05
1.03785e-05
7.90268e-05
1.03719e-05
7.55718e-05
1.03653e-05
7.21189e-05
1.03587e-05
6.86683e-05
1.03521e-05
6.52198e-05
1.03457e-05
6.17734e-05
1.03394e-05
5.83291e-05
1.03333e-05
5.48868e-05
1.03274e-05
5.14463e-05
1.03216e-05
4.80078e-05
1.03162e-05
4.45709e-05
1.0311e-05
4.11357e-05
1.03061e-05
3.77021e-05
1.03014e-05
3.42699e-05
1.02972e-05
3.0839e-05
1.02932e-05
2.74094e-05
1.02896e-05
2.39808e-05
1.02864e-05
2.05532e-05
1.02835e-05
1.71264e-05
1.02811e-05
1.37002e-05
1.0279e-05
1.02747e-05
1.02773e-05
6.84957e-06
1.02761e-05
3.42471e-06
1.02753e-05
1.02748e-05
3.23848e-06
-1.2956e-05
6.4771e-06
-1.29566e-05
9.71603e-06
-1.29578e-05
1.29554e-05
-1.29596e-05
1.61954e-05
-1.29619e-05
1.94361e-05
-1.29649e-05
2.26777e-05
-1.29684e-05
2.59203e-05
-1.29725e-05
2.91642e-05
-1.29772e-05
3.24093e-05
-1.29824e-05
3.56559e-05
-1.29881e-05
3.8904e-05
-1.29944e-05
4.21539e-05
-1.30011e-05
4.54055e-05
-1.30084e-05
4.86592e-05
-1.30161e-05
5.19149e-05
-1.30243e-05
5.51727e-05
-1.30329e-05
5.84329e-05
-1.30419e-05
6.16954e-05
-1.30513e-05
6.49604e-05
-1.3061e-05
6.82279e-05
-1.30711e-05
7.1498e-05
-1.30815e-05
7.47708e-05
-1.30921e-05
7.80464e-05
-1.3103e-05
8.13248e-05
-1.3114e-05
8.4606e-05
-1.31253e-05
8.78901e-05
-1.31366e-05
9.1177e-05
-1.3148e-05
9.44669e-05
-1.31595e-05
9.77597e-05
-1.3171e-05
0.000101055
-1.31824e-05
0.000104354
-1.31937e-05
0.000107655
-1.32048e-05
0.00011096
-1.32158e-05
0.000114266
-1.32265e-05
0.000117576
-1.32369e-05
0.000120888
-1.32469e-05
0.000124203
-1.32564e-05
0.000127519
-1.32655e-05
0.000130839
-1.3274e-05
0.00013416
-1.32818e-05
0.000137483
-1.3289e-05
0.000140807
-1.32953e-05
0.000144133
-1.33008e-05
0.00014746
-1.33054e-05
0.000150789
-1.33089e-05
0.000154117
-1.33113e-05
0.000157447
-1.33125e-05
0.000160776
-1.33125e-05
0.000164105
-1.3311e-05
0.000167433
-1.33081e-05
0.000170761
-1.33037e-05
0.000174087
-1.32975e-05
0.000177411
-1.32896e-05
0.000180733
-1.32798e-05
0.000184051
-1.32681e-05
0.000187367
-1.32542e-05
0.000190678
-1.32381e-05
0.000193985
-1.32198e-05
0.000197287
-1.3199e-05
0.000200584
-1.31756e-05
0.000203874
-1.31496e-05
0.000207156
-1.31208e-05
0.000210431
-1.30891e-05
0.000213698
-1.30543e-05
0.000216955
-1.30163e-05
0.000220201
-1.29751e-05
0.000223437
-1.29304e-05
0.000226661
-1.28822e-05
0.000229872
-1.28303e-05
0.000233069
-1.27746e-05
0.000236251
-1.2715e-05
0.000239418
-1.26512e-05
0.000242567
-1.25833e-05
0.000245699
-1.2511e-05
0.000248811
-1.24343e-05
0.000251904
-1.2353e-05
0.000254975
-1.2267e-05
0.000258023
-1.21761e-05
0.000261048
-1.20802e-05
0.000264047
-1.19793e-05
0.00026702
-1.18732e-05
0.000269965
-1.17618e-05
0.000272881
-1.1645e-05
0.000275767
-1.15227e-05
0.00027862
-1.13947e-05
0.000281441
-1.1261e-05
0.000284226
-1.11216e-05
0.000286976
-1.09762e-05
0.000289687
-1.08249e-05
0.000292359
-1.06676e-05
0.000294991
-1.05042e-05
0.00029758
-1.03347e-05
0.000300125
-1.01589e-05
0.000302625
-9.97699e-06
0.000305077
-9.7888e-06
0.000307481
-9.59434e-06
0.000309835
-9.39361e-06
0.000312137
-9.18661e-06
0.000314386
-8.97334e-06
0.00031658
-8.75385e-06
0.000318717
-8.52815e-06
0.000320797
-8.29629e-06
0.000322817
-8.05834e-06
0.000324775
-7.81436e-06
0.000326672
-7.56443e-06
0.000328504
-7.30864e-06
0.000330271
-7.04711e-06
0.00033197
-6.77995e-06
0.000333602
-6.50729e-06
0.000335164
-6.22926e-06
0.000336655
-5.94604e-06
0.000338073
-5.65778e-06
0.000339419
-5.36466e-06
0.000340689
-5.06687e-06
0.000341884
-4.76462e-06
0.000343002
-4.45811e-06
0.000344042
-4.14757e-06
0.000345004
-3.83324e-06
0.000345885
-3.51535e-06
0.000346687
-3.19416e-06
0.000347406
-2.86993e-06
0.000348044
-2.54292e-06
0.0003486
-2.21342e-06
0.000349072
-1.8817e-06
0.00034946
-1.54806e-06
0.000349765
-1.21279e-06
0.000349985
-8.76187e-07
0.00035012
-5.38551e-07
0.00035017
-2.00189e-07
0.000350136
1.38593e-07
0.000350016
4.77488e-07
0.000349812
8.16188e-07
0.000349522
1.15438e-06
0.000349148
1.49177e-06
0.00034869
1.82805e-06
0.000348148
2.16292e-06
0.000347522
2.49608e-06
0.000346813
2.82724e-06
0.000346022
3.15611e-06
0.000345149
3.48242e-06
0.000344195
3.8059e-06
0.00034316
4.12627e-06
0.000342046
4.44329e-06
0.000340854
4.7567e-06
0.000339584
5.06627e-06
0.000338237
5.37176e-06
0.000336815
5.67297e-06
0.000335318
5.96967e-06
0.000333749
6.26169e-06
0.000332107
6.54883e-06
0.000330395
6.83091e-06
0.000328613
7.10779e-06
0.000326764
7.37931e-06
0.000324847
7.64533e-06
0.000322866
7.90572e-06
0.000320821
8.16039e-06
0.000318713
8.40921e-06
0.000316545
8.65212e-06
0.000314318
8.88903e-06
0.000312032
9.11987e-06
0.000309691
9.3446e-06
0.000307295
9.56317e-06
0.000304845
9.77555e-06
0.000302344
9.98173e-06
0.000299794
1.01817e-05
0.000297194
1.03754e-05
0.000294548
1.0563e-05
0.000291857
1.07443e-05
0.000289121
1.09195e-05
0.000286344
1.10886e-05
0.000283526
1.12517e-05
0.000280668
1.14087e-05
0.000277773
1.15597e-05
0.000274842
1.17049e-05
0.000271876
1.18443e-05
0.000268877
1.19779e-05
0.000265845
1.2106e-05
0.000262783
1.22284e-05
0.000259692
1.23455e-05
0.000256573
1.24571e-05
0.000253428
1.25636e-05
0.000250258
1.26649e-05
0.000247063
1.27612e-05
0.000243846
1.28526e-05
0.000240607
1.29393e-05
0.000237347
1.30212e-05
0.000234069
1.30987e-05
0.000230772
1.31717e-05
0.000227458
1.32405e-05
0.000224129
1.33051e-05
0.000220784
1.33656e-05
0.000217425
1.34223e-05
0.000214053
1.34752e-05
0.000210669
1.35245e-05
0.000207273
1.35702e-05
0.000203867
1.36126e-05
0.000200452
1.36516e-05
0.000197027
1.36876e-05
0.000193594
1.37206e-05
0.000190154
1.37506e-05
0.000186708
1.37779e-05
0.000183255
1.38026e-05
0.000179796
1.38247e-05
0.000176333
1.38445e-05
0.000172866
1.38619e-05
0.000169395
1.38772e-05
0.000165921
1.38904e-05
0.000162443
1.39016e-05
0.000158964
1.39111e-05
0.000155483
1.39187e-05
0.000152001
1.39247e-05
0.000148517
1.39292e-05
0.000145033
1.39323e-05
0.000141548
1.3934e-05
0.000138064
1.39344e-05
0.000134579
1.39337e-05
0.000131095
1.39319e-05
0.000127612
1.39292e-05
0.00012413
1.39255e-05
0.000120649
1.3921e-05
0.00011717
1.39158e-05
0.000113692
1.39099e-05
0.000110215
1.39034e-05
0.000106741
1.38964e-05
0.000103268
1.38889e-05
9.97977e-05
1.38811e-05
9.63293e-05
1.38729e-05
9.2863e-05
1.38644e-05
8.93989e-05
1.38558e-05
8.59371e-05
1.3847e-05
8.24775e-05
1.38381e-05
7.90202e-05
1.38292e-05
7.55652e-05
1.38203e-05
7.21124e-05
1.38114e-05
6.86619e-05
1.38027e-05
6.52135e-05
1.37941e-05
6.17673e-05
1.37856e-05
5.83232e-05
1.37774e-05
5.48811e-05
1.37695e-05
5.14409e-05
1.37618e-05
4.80026e-05
1.37545e-05
4.4566e-05
1.37475e-05
4.11311e-05
1.37409e-05
3.76978e-05
1.37348e-05
3.4266e-05
1.3729e-05
3.08354e-05
1.37237e-05
2.74061e-05
1.37189e-05
2.39779e-05
1.37146e-05
2.05507e-05
1.37108e-05
1.71243e-05
1.37075e-05
1.36986e-05
1.37047e-05
1.02734e-05
1.37025e-05
6.84873e-06
1.37008e-05
3.4243e-06
1.36997e-05
1.36991e-05
3.23787e-06
-1.61939e-05
6.4759e-06
-1.61946e-05
9.71423e-06
-1.61961e-05
1.2953e-05
-1.61984e-05
1.61924e-05
-1.62013e-05
1.94325e-05
-1.6205e-05
2.26736e-05
-1.62095e-05
2.59157e-05
-1.62146e-05
2.91589e-05
-1.62204e-05
3.24035e-05
-1.6227e-05
3.56495e-05
-1.62342e-05
3.88972e-05
-1.6242e-05
4.21466e-05
-1.62505e-05
4.53978e-05
-1.62596e-05
4.86509e-05
-1.62693e-05
5.19062e-05
-1.62795e-05
5.51637e-05
-1.62903e-05
5.84234e-05
-1.63017e-05
6.16856e-05
-1.63134e-05
6.49502e-05
-1.63257e-05
6.82174e-05
-1.63383e-05
7.14873e-05
-1.63513e-05
7.47599e-05
-1.63647e-05
7.80352e-05
-1.63783e-05
8.13134e-05
-1.63922e-05
8.45945e-05
-1.64063e-05
8.78785e-05
-1.64206e-05
9.11655e-05
-1.6435e-05
9.44553e-05
-1.64494e-05
9.77482e-05
-1.64638e-05
0.000101044
-1.64782e-05
0.000104343
-1.64924e-05
0.000107644
-1.65064e-05
0.000110949
-1.65202e-05
0.000114256
-1.65337e-05
0.000117566
-1.65468e-05
0.000120878
-1.65594e-05
0.000124193
-1.65715e-05
0.000127511
-1.65829e-05
0.000130831
-1.65937e-05
0.000134152
-1.66036e-05
0.000137476
-1.66127e-05
0.000140801
-1.66208e-05
0.000144128
-1.66278e-05
0.000147457
-1.66336e-05
0.000150786
-1.66382e-05
0.000154116
-1.66414e-05
0.000157447
-1.66431e-05
0.000160777
-1.66432e-05
0.000164108
-1.66415e-05
0.000167438
-1.66381e-05
0.000170767
-1.66327e-05
0.000174094
-1.66252e-05
0.00017742
-1.66155e-05
0.000180744
-1.66035e-05
0.000184065
-1.6589e-05
0.000187383
-1.65719e-05
0.000190697
-1.6552e-05
0.000194006
-1.65293e-05
0.000197311
-1.65035e-05
0.00020061
-1.64745e-05
0.000203902
-1.64422e-05
0.000207188
-1.64064e-05
0.000210466
-1.6367e-05
0.000213735
-1.63238e-05
0.000216996
-1.62766e-05
0.000220246
-1.62253e-05
0.000223485
-1.61697e-05
0.000226712
-1.61097e-05
0.000229927
-1.60451e-05
0.000233128
-1.59757e-05
0.000236315
-1.59014e-05
0.000239485
-1.58219e-05
0.000242639
-1.57373e-05
0.000245775
-1.56472e-05
0.000248893
-1.55515e-05
0.00025199
-1.54501e-05
0.000255065
-1.53428e-05
0.000258119
-1.52294e-05
0.000261148
-1.51098e-05
0.000264153
-1.49839e-05
0.000267131
-1.48515e-05
0.000270082
-1.47124e-05
0.000273003
-1.45666e-05
0.000275895
-1.44138e-05
0.000278754
-1.42541e-05
0.00028158
-1.40871e-05
0.000284371
-1.3913e-05
0.000287127
-1.37314e-05
0.000289844
-1.35424e-05
0.000292523
-1.33459e-05
0.00029516
-1.31417e-05
0.000297755
-1.29299e-05
0.000300307
-1.27103e-05
0.000302813
-1.24829e-05
0.000305272
-1.22477e-05
0.000307682
-1.20047e-05
0.000310042
-1.17538e-05
0.00031235
-1.1495e-05
0.000314605
-1.12284e-05
0.000316806
-1.09539e-05
0.000318949
-1.06717e-05
0.000321035
-1.03818e-05
0.00032306
-1.00842e-05
0.000325025
-9.77909e-06
0.000326927
-9.4665e-06
0.000328765
-9.14657e-06
0.000330538
-8.81944e-06
0.000332243
-8.48524e-06
0.00033388
-8.14414e-06
0.000335447
-7.79632e-06
0.000336943
-7.44198e-06
0.000338366
-7.08132e-06
0.000339716
-6.71457e-06
0.000340991
-6.34195e-06
0.00034219
-5.96374e-06
0.000343312
-5.58019e-06
0.000344356
-5.19158e-06
0.000345321
-4.79821e-06
0.000346206
-4.40037e-06
0.000347011
-3.9984e-06
0.000347733
-3.5926e-06
0.000348374
-3.18333e-06
0.000348931
-2.77092e-06
0.000349405
-2.35574e-06
0.000349795
-1.93814e-06
0.000350101
-1.51849e-06
0.000350322
-1.09717e-06
0.000350458
-6.74555e-07
0.000350509
-2.51029e-07
0.000350474
1.73025e-07
0.000350355
5.97219e-07
0.00035015
1.02117e-06
0.00034986
1.44449e-06
0.000349485
1.86679e-06
0.000349025
2.2877e-06
0.000348481
2.70684e-06
0.000347853
3.12383e-06
0.000347142
3.53832e-06
0.000346348
3.94993e-06
0.000345473
4.35833e-06
0.000344515
4.76317e-06
0.000343477
5.16412e-06
0.00034236
5.56085e-06
0.000341163
5.95306e-06
0.000339889
6.34045e-06
0.000338538
6.72273e-06
0.000337112
7.09962e-06
0.00033561
7.47087e-06
0.000334036
7.83624e-06
0.000332389
8.19548e-06
0.000330672
8.54839e-06
0.000328885
8.89477e-06
0.00032703
9.23442e-06
0.000325108
9.56718e-06
0.000323121
9.89288e-06
0.00032107
1.02114e-05
0.000318956
1.05226e-05
0.000316782
1.08264e-05
0.000314548
1.11226e-05
0.000312257
1.14113e-05
0.000309909
1.16923e-05
0.000307507
1.19655e-05
0.000305051
1.22311e-05
0.000302544
1.24888e-05
0.000299987
1.27387e-05
0.000297382
1.29809e-05
0.00029473
1.32153e-05
0.000292032
1.34419e-05
0.000289291
1.36609e-05
0.000286507
1.38722e-05
0.000283683
1.40758e-05
0.00028082
1.4272e-05
0.000277919
1.44607e-05
0.000274982