/*--------------------------------*- C++ -*----------------------------------*\
| =========                 |                                                 |
| \\      /  F ield         | OpenFOAM: The Open Source CFD Toolbox           |
|  \\    /   O peration     | Version:  v2012                                 |
|   \\  /    A nd           | Website:  www.openfoam.com                      |
|    \\/     M anipulation  |                                                 |
\*---------------------------------------------------------------------------*/
FoamFile
{
    version     2.0;
    format      ascii;
    class       surfaceScalarField;
    location    "10.2";
    object      phi;
}
// * * * * * * * * * * * * * * * * * * * * * * * * * * * * * * * * * * * * * //

dimensions      [0 3 -1 0 0 0 0];
oriented        oriented;


internalField   nonuniform List<scalar> 
130560
(
3.66905e-06
-3.66905e-06
7.33818e-06
-3.66913e-06
1.10075e-05
-3.66931e-06
1.4677e-05
-3.66956e-06
1.83469e-05
-3.6699e-06
2.20173e-05
-3.67031e-06
2.56881e-05
-3.67081e-06
2.93594e-05
-3.67137e-06
3.30314e-05
-3.67199e-06
3.67041e-05
-3.67268e-06
4.03775e-05
-3.67341e-06
4.40517e-05
-3.67419e-06
4.77267e-05
-3.67501e-06
5.14026e-05
-3.67585e-06
5.50793e-05
-3.67671e-06
5.87569e-05
-3.67758e-06
6.24353e-05
-3.67844e-06
6.61146e-05
-3.67928e-06
6.97947e-05
-3.68009e-06
7.34755e-05
-3.68085e-06
7.71571e-05
-3.68155e-06
8.08392e-05
-3.68218e-06
8.4522e-05
-3.68272e-06
8.82051e-05
-3.68314e-06
9.18885e-05
-3.68344e-06
9.55721e-05
-3.6836e-06
9.92557e-05
-3.68359e-06
0.000102939
-3.68339e-06
0.000106622
-3.68299e-06
0.000110304
-3.68236e-06
0.000113986
-3.68148e-06
0.000117666
-3.68033e-06
0.000121345
-3.67888e-06
0.000125022
-3.67711e-06
0.000128697
-3.675e-06
0.00013237
-3.67251e-06
0.000136039
-3.66962e-06
0.000139706
-3.66631e-06
0.000143368
-3.66254e-06
0.000147027
-3.65829e-06
0.00015068
-3.65353e-06
0.000154328
-3.64824e-06
0.000157971
-3.64237e-06
0.000161607
-3.6359e-06
0.000165235
-3.6288e-06
0.000168856
-3.62105e-06
0.000172469
-3.61259e-06
0.000176072
-3.60342e-06
0.000179666
-3.59349e-06
0.000183249
-3.58278e-06
0.00018682
-3.57124e-06
0.000190379
-3.55886e-06
0.000193924
-3.54559e-06
0.000197456
-3.53141e-06
0.000200972
-3.51628e-06
0.000204472
-3.50018e-06
0.000207955
-3.48307e-06
0.00021142
-3.46492e-06
0.000214866
-3.44571e-06
0.000218291
-3.4254e-06
0.000221695
-3.40397e-06
0.000225077
-3.38138e-06
0.000228434
-3.35761e-06
0.000231767
-3.33264e-06
0.000235073
-3.30644e-06
0.000238352
-3.27899e-06
0.000241603
-3.25025e-06
0.000244823
-3.22022e-06
0.000248012
-3.18887e-06
0.000251168
-3.15619e-06
0.00025429
-3.12215e-06
0.000257377
-3.08675e-06
0.000260427
-3.04996e-06
0.000263439
-3.01178e-06
0.000266411
-2.9722e-06
0.000269342
-2.93121e-06
0.000272231
-2.8888e-06
0.000275076
-2.84498e-06
0.000277876
-2.79973e-06
0.000280629
-2.75307e-06
0.000283334
-2.70499e-06
0.000285989
-2.65551e-06
0.000288594
-2.60462e-06
0.000291146
-2.55234e-06
0.000293645
-2.49869e-06
0.000296088
-2.44367e-06
0.000298476
-2.38731e-06
0.000300805
-2.32963e-06
0.000303076
-2.27064e-06
0.000305286
-2.21039e-06
0.000307435
-2.14889e-06
0.000309521
-2.08617e-06
0.000311544
-2.02227e-06
0.000313501
-1.95722e-06
0.000315392
-1.89106e-06
0.000317216
-1.82383e-06
0.000318971
-1.75558e-06
0.000320658
-1.68634e-06
0.000322274
-1.61616e-06
0.000323819
-1.54509e-06
0.000325292
-1.47318e-06
0.000326693
-1.40048e-06
0.00032802
-1.32705e-06
0.000329273
-1.25293e-06
0.000330451
-1.17818e-06
0.000331554
-1.10286e-06
0.000332581
-1.02704e-06
0.000333531
-9.50754e-07
0.000334406
-8.74078e-07
0.000335203
-7.97068e-07
0.000335922
-7.19785e-07
0.000336565
-6.42289e-07
0.000337129
-5.64642e-07
0.000337616
-4.86905e-07
0.000338025
-4.09139e-07
0.000338357
-3.31405e-07
0.000338611
-2.53763e-07
0.000338787
-1.76274e-07
0.000338886
-9.89952e-08
0.000338908
-2.19865e-08
0.000338853
5.46948e-08
0.000338722
1.30992e-07
0.000338515
2.06851e-07
0.000338233
2.82216e-07
0.000337876
3.57036e-07
0.000337445
4.31259e-07
0.00033694
5.04835e-07
0.000336362
5.77717e-07
0.000335712
6.49858e-07
0.000334991
7.21214e-07
0.000334199
7.91742e-07
0.000333338
8.61402e-07
0.000332408
9.30155e-07
0.00033141
9.97965e-07
0.000330345
1.0648e-06
0.000329214
1.13062e-06
0.000328019
1.1954e-06
0.00032676
1.25911e-06
0.000325438
1.32172e-06
0.000324055
1.38322e-06
0.000322611
1.44357e-06
0.000321109
1.50276e-06
0.000319548
1.56078e-06
0.00031793
1.6176e-06
0.000316257
1.67321e-06
0.000314529
1.7276e-06
0.000312749
1.78075e-06
0.000310916
1.83267e-06
0.000309033
1.88335e-06
0.0003071
1.93278e-06
0.000305119
1.98096e-06
0.000303091
2.02788e-06
0.000301017
2.07356e-06
0.0002989
2.11799e-06
0.000296738
2.16117e-06
0.000294535
2.20312e-06
0.000292291
2.24383e-06
0.000290008
2.28332e-06
0.000287686
2.3216e-06
0.000285328
2.35867e-06
0.000282933
2.39455e-06
0.000280504
2.42926e-06
0.000278041
2.46279e-06
0.000275546
2.49518e-06
0.00027302
2.52644e-06
0.000270463
2.55658e-06
0.000267877
2.58562e-06
0.000265264
2.61357e-06
0.000262623
2.64047e-06
0.000259957
2.66631e-06
0.000257266
2.69114e-06
0.000254551
2.71496e-06
0.000251813
2.7378e-06
0.000249053
2.75967e-06
0.000246273
2.7806e-06
0.000243472
2.80062e-06
0.000240653
2.81973e-06
0.000237815
2.83797e-06
0.000234959
2.85536e-06
0.000232087
2.87191e-06
0.0002292
2.88765e-06
0.000226297
2.90261e-06
0.00022338
2.9168e-06
0.00022045
2.93025e-06
0.000217507
2.94298e-06
0.000214552
2.95501e-06
0.000211586
2.96636e-06
0.000208609
2.97706e-06
0.000205621
2.98712e-06
0.000202625
2.99657e-06
0.000199619
3.00543e-06
0.000196606
3.01372e-06
0.000193584
3.02146e-06
0.000190556
3.02867e-06
0.00018752
3.03537e-06
0.000184479
3.04158e-06
0.000181431
3.04733e-06
0.000178379
3.05262e-06
0.000175321
3.05748e-06
0.000172259
3.06192e-06
0.000169193
3.06597e-06
0.000166124
3.06965e-06
0.000163051
3.07296e-06
0.000159975
3.07593e-06
0.000156896
3.07858e-06
0.000153815
3.08091e-06
0.000150732
3.08295e-06
0.000147648
3.08471e-06
0.000144561
3.08621e-06
0.000141474
3.08746e-06
0.000138385
3.08848e-06
0.000135296
3.08927e-06
0.000132206
3.08986e-06
0.000129116
3.09026e-06
0.000126026
3.09048e-06
0.000122935
3.09053e-06
0.000119845
3.09043e-06
0.000116754
3.09019e-06
0.000113665
3.08981e-06
0.000110575
3.08931e-06
0.000107487
3.08871e-06
0.000104399
3.088e-06
0.000101311
3.08721e-06
9.82251e-05
3.08634e-06
9.51397e-05
3.0854e-06
9.20553e-05
3.0844e-06
8.89719e-05
3.08335e-06
8.58897e-05
3.08225e-06
8.28086e-05
3.08112e-06
7.97286e-05
3.07997e-06
7.66498e-05
3.07879e-06
7.35722e-05
3.0776e-06
7.04958e-05
3.07641e-06
6.74206e-05
3.07522e-06
6.43465e-05
3.07404e-06
6.12737e-05
3.07287e-06
5.82019e-05
3.07172e-06
5.51314e-05
3.07059e-06
5.20619e-05
3.0695e-06
4.89934e-05
3.06844e-06
4.5926e-05
3.06741e-06
4.28596e-05
3.06644e-06
3.97941e-05
3.06551e-06
3.67294e-05
3.06463e-06
3.36656e-05
3.0638e-06
3.06026e-05
3.06304e-06
2.75403e-05
3.06233e-06
2.44786e-05
3.06169e-06
2.14175e-05
3.06111e-06
1.83569e-05
3.0606e-06
1.52967e-05
3.06016e-06
1.22369e-05
3.05979e-06
9.17744e-06
3.05949e-06
6.11817e-06
3.05927e-06
3.05905e-06
3.05912e-06
3.05905e-06
3.66896e-06
-7.33801e-06
7.33801e-06
-7.33818e-06
1.10072e-05
-7.33853e-06
1.46767e-05
-7.33904e-06
1.83465e-05
-7.33972e-06
2.20168e-05
-7.34056e-06
2.56875e-05
-7.34154e-06
2.93588e-05
-7.34267e-06
3.30308e-05
-7.34393e-06
3.67034e-05
-7.3453e-06
4.03768e-05
-7.34679e-06
4.40509e-05
-7.34836e-06
4.77259e-05
-7.35e-06
5.14017e-05
-7.35169e-06
5.50784e-05
-7.35342e-06
5.8756e-05
-7.35516e-06
6.24345e-05
-7.35689e-06
6.61138e-05
-7.35859e-06
6.97939e-05
-7.36022e-06
7.34748e-05
-7.36176e-06
7.71565e-05
-7.36318e-06
8.08387e-05
-7.36445e-06
8.45216e-05
-7.36554e-06
8.82048e-05
-7.36641e-06
9.18884e-05
-7.36703e-06
9.55722e-05
-7.36736e-06
9.9256e-05
-7.36736e-06
0.00010294
-7.36699e-06
0.000106623
-7.3662e-06
0.000110305
-7.36497e-06
0.000113987
-7.36324e-06
0.000117668
-7.36096e-06
0.000121347
-7.35808e-06
0.000125024
-7.35457e-06
0.0001287
-7.35036e-06
0.000132373
-7.34541e-06
0.000136043
-7.33967e-06
0.000139709
-7.33307e-06
0.000143373
-7.32556e-06
0.000147031
-7.3171e-06
0.000150685
-7.30761e-06
0.000154334
-7.29704e-06
0.000157977
-7.28534e-06
0.000161614
-7.27243e-06
0.000165243
-7.25827e-06
0.000168865
-7.24278e-06
0.000172478
-7.22591e-06
0.000176082
-7.2076e-06
0.000179677
-7.18777e-06
0.00018326
-7.16637e-06
0.000186832
-7.14333e-06
0.000190392
-7.11859e-06
0.000193939
-7.09209e-06
0.000197471
-7.06376e-06
0.000200988
-7.03354e-06
0.000204489
-7.00136e-06
0.000207973
-6.96718e-06
0.000211439
-6.93091e-06
0.000214886
-6.89252e-06
0.000218313
-6.85193e-06
0.000221718
-6.80909e-06
0.0002251
-6.76394e-06
0.000228459
-6.71643e-06
0.000231793
-6.66651e-06
0.000235101
-6.61413e-06
0.000238381
-6.55924e-06
0.000241633
-6.5018e-06
0.000244854
-6.44176e-06
0.000248044
-6.37908e-06
0.000251202
-6.31373e-06
0.000254325
-6.24567e-06
0.000257414
-6.17487e-06
0.000260465
-6.10131e-06
0.000263478
-6.02496e-06
0.000266452
-5.94581e-06
0.000269384
-5.86383e-06
0.000272275
-5.77902e-06
0.000275121
-5.69137e-06
0.000277922
-5.60088e-06
0.000280677
-5.50755e-06
0.000283383
-5.41139e-06
0.00028604
-5.31241e-06
0.000288646
-5.21062e-06
0.0002912
-5.10606e-06
0.0002937
-4.99873e-06
0.000296145
-4.88868e-06
0.000298533
-4.77594e-06
0.000300864
-4.66055e-06
0.000303136
-4.54256e-06
0.000305348
-4.42202e-06
0.000307498
-4.29898e-06
0.000309585
-4.17352e-06
0.000311609
-4.04568e-06
0.000313567
-3.91555e-06
0.000315459
-3.78319e-06
0.000317284
-3.6487e-06
0.000319041
-3.51214e-06
0.000320728
-3.37361e-06
0.000322345
-3.23321e-06
0.000323891
-3.09102e-06
0.000325365
-2.94715e-06
0.000326766
-2.8017e-06
0.000328094
-2.65477e-06
0.000329347
-2.50648e-06
0.000330526
-2.35693e-06
0.000331629
-2.20624e-06
0.000332657
-2.05452e-06
0.000333608
-1.9019e-06
0.000334482
-1.74849e-06
0.00033528
-1.59441e-06
0.000336
-1.43978e-06
0.000336642
-1.28473e-06
0.000337207
-1.12937e-06
0.000337694
-9.73838e-07
0.000338103
-8.18245e-07
0.000338434
-6.62716e-07
0.000338688
-5.07373e-07
0.000338864
-3.52334e-07
0.000338963
-1.97719e-07
0.000338984
-4.36438e-08
0.000338929
1.09775e-07
0.000338798
2.62426e-07
0.00033859
4.14197e-07
0.000338308
5.6498e-07
0.00033795
7.14671e-07
0.000337518
8.63166e-07
0.000337013
1.01037e-06
0.000336434
1.15618e-06
0.000335783
1.3005e-06
0.000335061
1.44326e-06
0.000334269
1.58435e-06
0.000333407
1.72371e-06
0.000332475
1.86126e-06
0.000331476
1.99691e-06
0.000330411
2.1306e-06
0.000329279
2.26228e-06
0.000328083
2.39186e-06
0.000326822
2.51931e-06
0.000325499
2.64457e-06
0.000324115
2.76758e-06
0.00032267
2.88831e-06
0.000321166
3.00671e-06
0.000319604
3.12275e-06
0.000317986
3.2364e-06
0.000316311
3.34763e-06
0.000314582
3.45642e-06
0.0003128
3.56275e-06
0.000310967
3.66659e-06
0.000309082
3.76795e-06
0.000307148
3.86681e-06
0.000305166
3.96317e-06
0.000303137
4.05702e-06
0.000301062
4.14837e-06
0.000298943
4.23722e-06
0.00029678
4.32358e-06
0.000294576
4.40746e-06
0.000292331
4.48888e-06
0.000290046
4.56785e-06
0.000287723
4.6444e-06
0.000285363
4.71853e-06
0.000282968
4.79028e-06
0.000280537
4.85967e-06
0.000278073
4.92674e-06
0.000275577
4.9915e-06
0.00027305
5.05399e-06
0.000270492
5.11425e-06
0.000267905
5.17231e-06
0.000265291
5.22821e-06
0.000262649
5.28197e-06
0.000259982
5.33365e-06
0.00025729
5.38328e-06
0.000254574
5.4309e-06
0.000251835
5.47655e-06
0.000249074
5.52028e-06
0.000246293
5.56212e-06
0.000243491
5.60213e-06
0.000240671
5.64034e-06
0.000237832
5.67679e-06
0.000234976
5.71154e-06
0.000232103
5.74463e-06
0.000229214
5.77609e-06
0.000226311
5.80598e-06
0.000223394
5.83434e-06
0.000220463
5.86122e-06
0.000217519
5.88665e-06
0.000214563
5.91069e-06
0.000211596
5.93337e-06
0.000208618
5.95474e-06
0.000205631
5.97485e-06
0.000202634
5.99373e-06
0.000199628
6.01143e-06
0.000196613
6.02799e-06
0.000193591
6.04345e-06
0.000190562
6.05785e-06
0.000187526
6.07123e-06
0.000184484
6.08364e-06
0.000181436
6.0951e-06
0.000178383
6.10567e-06
0.000175326
6.11537e-06
0.000172263
6.12424e-06
0.000169197
6.13233e-06
0.000166127
6.13965e-06
0.000163054
6.14626e-06
0.000159977
6.15219e-06
0.000156898
6.15746e-06
0.000153817
6.16211e-06
0.000150734
6.16618e-06
0.000147649
6.16968e-06
0.000144563
6.17267e-06
0.000141475
6.17515e-06
0.000138386
6.17717e-06
0.000135297
6.17875e-06
0.000132207
6.17992e-06
0.000129116
6.1807e-06
0.000126026
6.18113e-06
0.000122935
6.18122e-06
0.000119844
6.181e-06
0.000116754
6.1805e-06
0.000113664
6.17974e-06
0.000110575
6.17873e-06
0.000107486
6.17751e-06
0.000104398
6.17609e-06
0.00010131
6.1745e-06
9.82241e-05
6.17274e-06
9.51386e-05
6.17085e-06
9.20542e-05
6.16884e-06
8.89708e-05
6.16673e-06
8.58885e-05
6.16453e-06
8.28073e-05
6.16227e-06
7.97274e-05
6.15995e-06
7.66486e-05
6.15759e-06
7.3571e-05
6.15521e-06
7.04946e-05
6.15282e-06
6.74193e-05
6.15043e-06
6.43453e-05
6.14806e-06
6.12725e-05
6.14571e-06
5.82008e-05
6.14341e-06
5.51302e-05
6.14115e-06
5.20608e-05
6.13896e-06
4.89924e-05
6.13683e-06
4.5925e-05
6.13478e-06
4.28586e-05
6.13282e-06
3.97932e-05
6.13096e-06
3.67286e-05
6.1292e-06
3.36648e-05
6.12754e-06
3.06019e-05
6.12601e-06
2.75396e-05
6.12459e-06
2.4478e-05
6.1233e-06
2.1417e-05
6.12215e-06
1.83564e-05
6.12113e-06
1.52963e-05
6.12024e-06
1.22366e-05
6.1195e-06
9.17721e-06
6.11891e-06
6.11802e-06
6.11846e-06
3.05897e-06
6.11817e-06
6.11802e-06
3.66879e-06
-1.10068e-05
7.33767e-06
-1.10071e-05
1.10067e-05
-1.10076e-05
1.4676e-05
-1.10084e-05
1.83457e-05
-1.10094e-05
2.20158e-05
-1.10106e-05
2.56864e-05
-1.10121e-05
2.93576e-05
-1.10138e-05
3.30294e-05
-1.10157e-05
3.67019e-05
-1.10178e-05
4.03752e-05
-1.10201e-05
4.40493e-05
-1.10224e-05
4.77242e-05
-1.10249e-05
5.14e-05
-1.10275e-05
5.50767e-05
-1.10301e-05
5.87543e-05
-1.10328e-05
6.24328e-05
-1.10354e-05
6.61122e-05
-1.1038e-05
6.97924e-05
-1.10404e-05
7.34734e-05
-1.10428e-05
7.71552e-05
-1.1045e-05
8.08376e-05
-1.10469e-05
8.45207e-05
-1.10486e-05
8.82042e-05
-1.10499e-05
9.18881e-05
-1.10509e-05
9.55722e-05
-1.10514e-05
9.92563e-05
-1.10515e-05
0.00010294
-1.1051e-05
0.000106624
-1.10499e-05
0.000110307
-1.10481e-05
0.000113989
-1.10455e-05
0.000117671
-1.10422e-05
0.00012135
-1.10379e-05
0.000125029
-1.10327e-05
0.000128705
-1.10265e-05
0.000132378
-1.10191e-05
0.000136049
-1.10106e-05
0.000139717
-1.10007e-05
0.000143381
-1.09895e-05
0.000147041
-1.09769e-05
0.000150696
-1.09628e-05
0.000154346
-1.0947e-05
0.00015799
-1.09295e-05
0.000161628
-1.09102e-05
0.000165259
-1.08891e-05
0.000168882
-1.08659e-05
0.000172497
-1.08407e-05
0.000176102
-1.08133e-05
0.000179698
-1.07836e-05
0.000183283
-1.07516e-05
0.000186857
-1.07171e-05
0.000190419
-1.06801e-05
0.000193967
-1.06404e-05
0.000197501
-1.0598e-05
0.00020102
-1.05527e-05
0.000204524
-1.05046e-05
0.00020801
-1.04534e-05
0.000211478
-1.0399e-05
0.000214927
-1.03415e-05
0.000218356
-1.02807e-05
0.000221763
-1.02165e-05
0.000225148
-1.01489e-05
0.000228509
-1.00777e-05
0.000231846
-1.00028e-05
0.000235156
-9.92434e-06
0.000238439
-9.84206e-06
0.000241693
-9.75595e-06
0.000244917
-9.66593e-06
0.00024811
-9.57196e-06
0.00025127
-9.47398e-06
0.000254396
-9.37192e-06
0.000257487
-9.26576e-06
0.000260541
-9.15545e-06
0.000263557
-9.04095e-06
0.000266534
-8.92224e-06
0.000269469
-8.79929e-06
0.000272362
-8.67208e-06
0.000275212
-8.54061e-06
0.000278015
-8.40487e-06
0.000280773
-8.26487e-06
0.000283482
-8.12061e-06
0.000286142
-7.97212e-06
0.000288751
-7.81941e-06
0.000291307
-7.66253e-06
0.00029381
-7.5015e-06
0.000296257
-7.33638e-06
0.000298649
-7.16722e-06
0.000300982
-6.99407e-06
0.000303257
-6.81703e-06
0.000305471
-6.63615e-06
0.000307623
-6.45152e-06
0.000309713
-6.26323e-06
0.000311739
-6.07139e-06
0.000313699
-5.8761e-06
0.000315594
-5.67747e-06
0.000317421
-5.47562e-06
0.000319179
-5.27067e-06
0.000320868
-5.06277e-06
0.000322487
-4.85204e-06
0.000324035
-4.63864e-06
0.00032551
-4.4227e-06
0.000326913
-4.20439e-06
0.000328242
-3.98386e-06
0.000329497
-3.76128e-06
0.000330677
-3.53682e-06
0.000331781
-3.31064e-06
0.00033281
-3.08292e-06
0.000333761
-2.85384e-06
0.000334637
-2.62357e-06
0.000335434
-2.39229e-06
0.000336155
-2.1602e-06
0.000336798
-1.92747e-06
0.000337363
-1.69428e-06
0.00033785
-1.46083e-06
0.000338259
-1.22729e-06
0.00033859
-9.93843e-07
0.000338843
-7.60678e-07
0.000339019
-5.27971e-07
0.000339117
-2.95902e-07
0.000339138
-6.46461e-08
0.000339082
1.65624e-07
0.00033895
3.94738e-07
0.000338741
6.22529e-07
0.000338457
8.48836e-07
0.000338099
1.0735e-06
0.000337665
1.29637e-06
0.000337159
1.51729e-06
0.000336579
1.73612e-06
0.000335926
1.95272e-06
0.000335203
2.16696e-06
0.000334408
2.3787e-06
0.000333544
2.58784e-06
0.000332611
2.79424e-06
0.00033161
2.99781e-06
0.000330542
3.19844e-06
0.000329409
3.39602e-06
0.00032821
3.59047e-06
0.000326948
3.78171e-06
0.000325623
3.96965e-06
0.000324236
4.15422e-06
0.000322789
4.33537e-06
0.000321283
4.51301e-06
0.000319718
4.68712e-06
0.000318097
4.85763e-06
0.00031642
5.0245e-06
0.000314689
5.18771e-06
0.000312904
5.34722e-06
0.000311068
5.503e-06
0.000309181
5.65505e-06
0.000307244
5.80335e-06
0.00030526
5.94788e-06
0.000303228
6.08866e-06
0.000301151
6.22567e-06
0.000299029
6.35894e-06
0.000296864
6.48847e-06
0.000294657
6.61428e-06
0.00029241
6.73638e-06
0.000290123
6.85482e-06
0.000287798
6.9696e-06
0.000285435
7.08078e-06
0.000283037
7.18837e-06
0.000280605
7.29242e-06
0.000278138
7.39298e-06
0.00027564
7.49009e-06
0.00027311
7.58379e-06
0.00027055
7.67413e-06
0.000267961
7.76117e-06
0.000265344
7.84497e-06
0.000262701
7.92557e-06
0.000260031
8.00304e-06
0.000257337
8.07743e-06
0.000254619
8.14881e-06
0.000251879
8.21724e-06
0.000249116
8.28277e-06
0.000246333
8.34549e-06
0.000243529
8.40544e-06
0.000240707
8.4627e-06
0.000237867
8.51733e-06
0.000235009
8.56939e-06
0.000232134
8.61896e-06
0.000229244
8.66611e-06
0.00022634
8.71089e-06
0.00022342
8.75337e-06
0.000220488
8.79363e-06
0.000217543
8.83172e-06
0.000214586
8.86772e-06
0.000211618
8.90169e-06
0.000208639
8.9337e-06
0.00020565
8.9638e-06
0.000202651
8.99207e-06
0.000199644
9.01857e-06
0.000196629
9.04335e-06
0.000193606
9.06649e-06
0.000190576
9.08805e-06
0.000187539
9.10807e-06
0.000184496
9.12663e-06
0.000181447
9.14378e-06
0.000178393
9.15958e-06
0.000175334
9.17408e-06
0.000172271
9.18735e-06
0.000169204
9.19943e-06
0.000166134
9.21038e-06
0.00016306
9.22025e-06
0.000159983
9.2291e-06
0.000156903
9.23696e-06
0.000153821
9.2439e-06
0.000150738
9.24996e-06
0.000147652
9.25518e-06
0.000144565
9.25962e-06
0.000141477
9.26331e-06
0.000138388
9.26631e-06
0.000135298
9.26864e-06
0.000132207
9.27036e-06
0.000129117
9.2715e-06
0.000126026
9.27211e-06
0.000122935
9.27222e-06
0.000119844
9.27186e-06
0.000116753
9.27108e-06
0.000113663
9.2699e-06
0.000110573
9.26837e-06
0.000107484
9.26651e-06
0.000104396
9.26436e-06
0.000101309
9.26194e-06
9.82222e-05
9.25929e-06
9.51366e-05
9.25643e-06
9.20521e-05
9.25339e-06
8.89686e-05
9.2502e-06
8.58863e-05
9.24689e-06
8.28051e-05
9.24347e-06
7.9725e-05
9.23997e-06
7.66462e-05
9.23642e-06
7.35686e-05
9.23283e-06
7.04922e-05
9.22922e-06
6.7417e-05
9.22563e-06
6.4343e-05
9.22205e-06
6.12702e-05
9.21852e-06
5.81985e-05
9.21505e-06
5.5128e-05
9.21165e-06
5.20587e-05
9.20835e-06
4.89903e-05
9.20515e-06
4.59231e-05
9.20207e-06
4.28568e-05
9.19912e-06
3.97914e-05
9.19631e-06
3.67269e-05
9.19366e-06
3.36633e-05
9.19117e-06
3.06005e-05
9.18886e-06
2.75383e-05
9.18673e-06
2.44768e-05
9.18479e-06
2.14159e-05
9.18305e-06
1.83556e-05
9.18152e-06
1.52956e-05
9.18019e-06
1.2236e-05
9.17907e-06
9.17677e-06
9.17818e-06
6.11772e-06
9.17751e-06
3.05882e-06
9.17706e-06
9.17684e-06
3.66853e-06
-1.46753e-05
7.33714e-06
-1.46757e-05
1.10059e-05
-1.46764e-05
1.4675e-05
-1.46774e-05
1.83444e-05
-1.46788e-05
2.20143e-05
-1.46805e-05
2.56847e-05
-1.46825e-05
2.93556e-05
-1.46848e-05
3.30273e-05
-1.46874e-05
3.66997e-05
-1.46902e-05
4.03728e-05
-1.46932e-05
4.40468e-05
-1.46964e-05
4.77216e-05
-1.46998e-05
5.13974e-05
-1.47033e-05
5.50741e-05
-1.47068e-05
5.87517e-05
-1.47104e-05
6.24302e-05
-1.47139e-05
6.61097e-05
-1.47174e-05
6.979e-05
-1.47208e-05
7.34712e-05
-1.4724e-05
7.71532e-05
-1.4727e-05
8.0836e-05
-1.47296e-05
8.45193e-05
-1.47319e-05
8.82032e-05
-1.47338e-05
9.18875e-05
-1.47352e-05
9.55721e-05
-1.4736e-05
9.92568e-05
-1.47362e-05
0.000102941
-1.47356e-05
0.000106626
-1.47342e-05
0.00011031
-1.47319e-05
0.000113993
-1.47287e-05
0.000117675
-1.47243e-05
0.000121356
-1.47187e-05
0.000125035
-1.47119e-05
0.000128712
-1.47037e-05
0.000132387
-1.4694e-05
0.000136059
-1.46827e-05
0.000139728
-1.46698e-05
0.000143394
-1.4655e-05
0.000147055
-1.46383e-05
0.000150712
-1.46195e-05
0.000154363
-1.45986e-05
0.000158009
-1.45755e-05
0.000161649
-1.45499e-05
0.000165282
-1.45218e-05
0.000168907
-1.44911e-05
0.000172524
-1.44576e-05
0.000176132
-1.44212e-05
0.00017973
-1.43818e-05
0.000183318
-1.43393e-05
0.000186894
-1.42935e-05
0.000190458
-1.42442e-05
0.000194009
-1.41915e-05
0.000197546
-1.41351e-05
0.000201069
-1.40749e-05
0.000204575
-1.40108e-05
0.000208064
-1.39427e-05
0.000211535
-1.38704e-05
0.000214988
-1.37938e-05
0.00021842
-1.37129e-05
0.000221831
-1.36274e-05
0.000225219
-1.35373e-05
0.000228584
-1.34425e-05
0.000231924
-1.33429e-05
0.000235238
-1.32383e-05
0.000238525
-1.31287e-05
0.000241783
-1.3014e-05
0.000245011
-1.28941e-05
0.000248208
-1.27689e-05
0.000251372
-1.26383e-05
0.000254503
-1.25023e-05
0.000257598
-1.23608e-05
0.000260656
-1.22138e-05
0.000263676
-1.20612e-05
0.000266657
-1.19029e-05
0.000269596
-1.1739e-05
0.000272494
-1.15694e-05
0.000275347
-1.13941e-05
0.000278156
-1.12131e-05
0.000280917
-1.10264e-05
0.000283631
-1.08341e-05
0.000286295
-1.0636e-05
0.000288908
-1.04324e-05
0.000291468
-1.02231e-05
0.000293975
-1.00084e-05
0.000296427
-9.78812e-06
0.000298822
-9.56247e-06
0.000301159
-9.33151e-06
0.000303438
-9.09533e-06
0.000305656
-8.85402e-06
0.000307812
-8.60771e-06
0.000309905
-8.35651e-06
0.000311934
-8.10055e-06
0.000313898
-7.83999e-06
0.000315796
-7.57496e-06
0.000317626
-7.30563e-06
0.000319387
-7.03217e-06
0.000321079
-6.75475e-06
0.000322701
-6.47355e-06
0.000324251
-6.18878e-06
0.000325729
-5.90063e-06
0.000327134
-5.6093e-06
0.000328465
-5.31501e-06
0.000329721
-5.01798e-06
0.000330903
-4.71843e-06
0.000332009
-4.41658e-06
0.000333039
-4.11268e-06
0.000333992
-3.80696e-06
0.000334868
-3.49965e-06
0.000335667
-3.191e-06
0.000336388
-2.88126e-06
0.000337031
-2.57067e-06
0.000337596
-2.25947e-06
0.000338083
-1.94791e-06
0.000338492
-1.63623e-06
0.000338823
-1.32469e-06
0.000339076
-1.01353e-06
0.000339251
-7.02973e-07
0.000339348
-3.93274e-07
0.000339368
-8.46636e-08
0.000339311
2.22627e-07
0.000339178
5.28371e-07
0.000338968
8.32346e-07
0.000338682
1.13433e-06
0.000338322
1.43413e-06
0.000337887
1.73151e-06
0.000337378
2.0263e-06
0.000336795
2.31829e-06
0.000336141
2.6073e-06
0.000335415
2.89314e-06
0.000334618
3.17566e-06
0.000333751
3.45469e-06
0.000332815
3.73007e-06
0.000331811
4.00166e-06
0.00033074
4.26931e-06
0.000329603
4.53289e-06
0.000328402
4.7923e-06
0.000327136
5.0474e-06
0.000325807
5.2981e-06
0.000324417
5.5443e-06
0.000322967
5.78592e-06
0.000321457
6.02287e-06
0.000319889
6.25508e-06
0.000318264
6.48249e-06
0.000316584
6.70504e-06
0.000314849
6.9227e-06
0.00031306
7.13541e-06
0.00031122
7.34315e-06
0.000309329
7.5459e-06
0.000307389
7.74364e-06
0.000305401
7.93636e-06
0.000303365
8.12405e-06
0.000301284
8.30673e-06
0.000299159
8.4844e-06
0.00029699
8.65708e-06
0.00029478
8.82479e-06
0.000292528
8.98756e-06
0.000290238
9.14543e-06
0.000287909
9.29843e-06
0.000285543
9.4466e-06
0.000283141
9.59e-06
0.000280705
9.72867e-06
0.000278236
9.86268e-06
0.000275734
9.99208e-06
0.0002732
1.01169e-05
0.000270637
1.02373e-05
0.000268045
1.03533e-05
0.000265425
1.04649e-05
0.000262778
1.05723e-05
0.000260106
1.06755e-05
0.000257409
1.07746e-05
0.000254688
1.08697e-05
0.000251944
1.09608e-05
0.000249179
1.10481e-05
0.000246393
1.11316e-05
0.000243587
1.12114e-05
0.000240762
1.12877e-05
0.000237919
1.13604e-05
0.000235058
1.14297e-05
0.000232182
1.14957e-05
0.000229289
1.15585e-05
0.000226382
1.16181e-05
0.000223461
1.16746e-05
0.000220526
1.17282e-05
0.000217579
1.17789e-05
0.00021462
1.18268e-05
0.00021165
1.1872e-05
0.000208669
1.19146e-05
0.000205678
1.19546e-05
0.000202678
1.19922e-05
0.000199669
1.20274e-05
0.000196652
1.20604e-05
0.000193627
1.20911e-05
0.000190596
1.21198e-05
0.000187557
1.21464e-05
0.000184513
1.2171e-05
0.000181463
1.21938e-05
0.000178408
1.22148e-05
0.000175348
1.2234e-05
0.000172284
1.22516e-05
0.000169215
1.22677e-05
0.000166144
1.22822e-05
0.000163068
1.22953e-05
0.000159991
1.2307e-05
0.00015691
1.23174e-05
0.000153827
1.23266e-05
0.000150743
1.23346e-05
0.000147657
1.23415e-05
0.000144569
1.23473e-05
0.00014148
1.23522e-05
0.00013839
1.23561e-05
0.0001353
1.23591e-05
0.000132209
1.23614e-05
0.000129117
1.23628e-05
0.000126026
1.23636e-05
0.000122934
1.23637e-05
0.000119843
1.23631e-05
0.000116752
1.2362e-05
0.000113662
1.23604e-05
0.000110572
1.23583e-05
0.000107482
1.23558e-05
0.000104394
1.23529e-05
0.000101306
1.23496e-05
9.82194e-05
1.2346e-05
9.51337e-05
1.23422e-05
9.20489e-05
1.23381e-05
8.89653e-05
1.23338e-05
8.58829e-05
1.23293e-05
8.28016e-05
1.23248e-05
7.97215e-05
1.23201e-05
7.66427e-05
1.23153e-05
7.3565e-05
1.23105e-05
7.04886e-05
1.23056e-05
6.74135e-05
1.23008e-05
6.43395e-05
1.2296e-05
6.12668e-05
1.22913e-05
5.81952e-05
1.22866e-05
5.51248e-05
1.22821e-05
5.20555e-05
1.22776e-05
4.89873e-05
1.22733e-05
4.59201e-05
1.22692e-05
4.2854e-05
1.22653e-05
3.97888e-05
1.22615e-05
3.67245e-05
1.2258e-05
3.3661e-05
1.22546e-05
3.05984e-05
1.22515e-05
2.75364e-05
1.22487e-05
2.44751e-05
1.22461e-05
2.14144e-05
1.22438e-05
1.83542e-05
1.22417e-05
1.52945e-05
1.22399e-05
1.22351e-05
1.22384e-05
9.17609e-06
1.22372e-05
6.11727e-06
1.22363e-05
3.0586e-06
1.22357e-05
1.22354e-05
3.66817e-06
-1.83435e-05
7.33644e-06
-1.83439e-05
1.10049e-05
-1.83448e-05
1.46736e-05
-1.83462e-05
1.83427e-05
-1.83479e-05
2.20123e-05
-1.83501e-05
2.56824e-05
-1.83526e-05
2.93531e-05
-1.83555e-05
3.30245e-05
-1.83588e-05
3.66966e-05
-1.83623e-05
4.03696e-05
-1.83662e-05
4.40434e-05
-1.83702e-05
4.77182e-05
-1.83745e-05
5.13938e-05
-1.83789e-05
5.50705e-05
-1.83834e-05
5.87481e-05
-1.8388e-05
6.24267e-05
-1.83925e-05
6.61063e-05
-1.8397e-05
6.97868e-05
-1.84013e-05
7.34683e-05
-1.84054e-05
7.71506e-05
-1.84093e-05
8.08337e-05
-1.84127e-05
8.45174e-05
-1.84157e-05
8.82018e-05
-1.84182e-05
9.18867e-05
-1.84201e-05
9.5572e-05
-1.84213e-05
9.92574e-05
-1.84216e-05
0.000102943
-1.84211e-05
0.000106628
-1.84195e-05
0.000110313
-1.84168e-05
0.000113997
-1.84129e-05
0.00011768
-1.84076e-05
0.000121363
-1.84008e-05
0.000125043
-1.83925e-05
0.000128722
-1.83824e-05
0.000132398
-1.83705e-05
0.000136072
-1.83566e-05
0.000139743
-1.83406e-05
0.00014341
-1.83223e-05
0.000147074
-1.83017e-05
0.000150733
-1.82785e-05
0.000154387
-1.82526e-05
0.000158035
-1.82238e-05
0.000161677
-1.81921e-05
0.000165313
-1.81572e-05
0.000168941
-1.81191e-05
0.00017256
-1.80774e-05
0.000176171
-1.80322e-05
0.000179773
-1.79832e-05
0.000183364
-1.79302e-05
0.000186943
-1.78732e-05
0.000190511
-1.78119e-05
0.000194066
-1.77462e-05
0.000197607
-1.76759e-05
0.000201133
-1.76009e-05
0.000204643
-1.7521e-05
0.000208136
-1.74361e-05
0.000211612
-1.7346e-05
0.000215069
-1.72505e-05
0.000218505
-1.71495e-05
0.000221921
-1.70429e-05
0.000225314
-1.69305e-05
0.000228684
-1.68122e-05
0.000232029
-1.66878e-05
0.000235348
-1.65573e-05
0.00023864
-1.64205e-05
0.000241903
-1.62773e-05
0.000245136
-1.61275e-05
0.000248338
-1.59711e-05
0.000251508
-1.5808e-05
0.000254644
-1.56382e-05
0.000257745
-1.54614e-05
0.000260809
-1.52777e-05
0.000263834
-1.5087e-05
0.000266821
-1.48892e-05
0.000269766
-1.46844e-05
0.000272669
-1.44724e-05
0.000275528
-1.42533e-05
0.000278342
-1.40271e-05
0.00028111
-1.37937e-05
0.000283829
-1.35532e-05
0.000286498
-1.33056e-05
0.000289117
-1.30509e-05
0.000291683
-1.27893e-05
0.000294195
-1.25207e-05
0.000296652
-1.22453e-05
0.000299053
-1.19631e-05
0.000301396
-1.16742e-05
0.000303679
-1.13788e-05
0.000305902
-1.10769e-05
0.000308063
-1.07688e-05
0.000310161
-1.04545e-05
0.000312195
-1.01343e-05
0.000314163
-9.80834e-06
0.000316065
-9.47676e-06
0.000317899
-9.13978e-06
0.000319665
-8.79762e-06
0.00032136
-8.4505e-06
0.000322986
-8.09865e-06
0.000324539
-7.74231e-06
0.00032602
-7.38173e-06
0.000327428
-7.01717e-06
0.000328762
-6.6489e-06
0.000330021
-6.27719e-06
0.000331205
-5.90233e-06
0.000332313
-5.52459e-06
0.000333345
-5.14427e-06
0.000334299
-4.76166e-06
0.000335177
-4.37708e-06
0.000335977
-3.99081e-06
0.000336698
-3.60317e-06
0.000337342
-3.21447e-06
0.000337908
-2.82501e-06
0.000338395
-2.4351e-06
0.000338804
-2.04505e-06
0.000339134
-1.65517e-06
0.000339387
-1.26576e-06
0.000339561
-8.77122e-07
0.000339657
-4.89559e-07
0.000339676
-1.03363e-07
0.000339617
2.81176e-07
0.000339482
6.63772e-07
0.00033927
1.04415e-06
0.000338982
1.42203e-06
0.000338619
1.79715e-06
0.000338181
2.16926e-06
0.00033767
2.5381e-06
0.000337085
2.90344e-06
0.000336427
3.26503e-06
0.000335697
3.62266e-06
0.000334897
3.97612e-06
0.000334026
4.32519e-06
0.000333087
4.66969e-06
0.000332079
5.00943e-06
0.000331004
5.34424e-06
0.000329863
5.67395e-06
0.000328657
5.99842e-06
0.000327387
6.3175e-06
0.000326054
6.63105e-06
0.000324659
6.93897e-06
0.000323204
7.24114e-06
0.000321689
7.53745e-06
0.000320117
7.82783e-06
0.000318487
8.1122e-06
0.000316801
8.39048e-06
0.000315061
8.66262e-06
0.000313268
8.92857e-06
0.000311423
9.1883e-06
0.000309527
9.44176e-06
0.000307582
9.68895e-06
0.000305588
9.92986e-06
0.000303548
1.01645e-05
0.000301462
1.03928e-05
0.000299332
1.06149e-05
0.000297158
1.08307e-05
0.000294942
1.10402e-05
0.000292686
1.12436e-05
0.000290391
1.14409e-05
0.000288057
1.16321e-05
0.000285687
1.18172e-05
0.00028328
1.19963e-05
0.000280839
1.21696e-05
0.000278365
1.2337e-05
0.000275859
1.24986e-05
0.000273321
1.26546e-05
0.000270753
1.28049e-05
0.000268157
1.29497e-05
0.000265533
1.30891e-05
0.000262882
1.32232e-05
0.000260205
1.33521e-05
0.000257504
1.34758e-05
0.000254779
1.35945e-05
0.000252032
1.37082e-05
0.000249263
1.38172e-05
0.000246473
1.39214e-05
0.000243663
1.4021e-05