/*--------------------------------*- C++ -*----------------------------------*\
| =========                 |                                                 |
| \\      /  F ield         | OpenFOAM: The Open Source CFD Toolbox           |
|  \\    /   O peration     | Version:  v2012                                 |
|   \\  /    A nd           | Website:  www.openfoam.com                      |
|    \\/     M anipulation  |                                                 |
\*---------------------------------------------------------------------------*/
FoamFile
{
    version     2.0;
    format      ascii;
    class       volVectorField;
    location    "10.2";
    object      U;
}
// * * * * * * * * * * * * * * * * * * * * * * * * * * * * * * * * * * * * * //

dimensions      [0 1 -1 0 0 0 0];


internalField   nonuniform List<vector> 
65536
(
(0.000747447 -0.000747456 0)
(0.00224236 -0.000747474 0)
(0.00373733 -0.000747509 0)
(0.00523238 -0.000747561 0)
(0.00672755 -0.000747629 0)
(0.00822288 -0.000747714 0)
(0.0097184 -0.000747814 0)
(0.0112141 -0.000747928 0)
(0.0127101 -0.000748055 0)
(0.0142063 -0.000748194 0)
(0.0157029 -0.000748344 0)
(0.0171997 -0.000748502 0)
(0.0186969 -0.000748668 0)
(0.0201944 -0.000748839 0)
(0.0216922 -0.000749014 0)
(0.0231904 -0.00074919 0)
(0.024689 -0.000749364 0)
(0.0261879 -0.000749534 0)
(0.0276871 -0.000749698 0)
(0.0291867 -0.000749853 0)
(0.0306866 -0.000749996 0)
(0.0321867 -0.000750123 0)
(0.0336871 -0.000750231 0)
(0.0351876 -0.000750317 0)
(0.0366884 -0.000750377 0)
(0.0381892 -0.000750408 0)
(0.03969 -0.000750404 0)
(0.0411908 -0.000750364 0)
(0.0426915 -0.000750281 0)
(0.044192 -0.000750151 0)
(0.0456922 -0.000749971 0)
(0.0471919 -0.000749735 0)
(0.0486912 -0.000749439 0)
(0.0501898 -0.000749077 0)
(0.0516876 -0.000748645 0)
(0.0531844 -0.000748137 0)
(0.0546802 -0.000747547 0)
(0.0561747 -0.000746871 0)
(0.0576678 -0.000746102 0)
(0.0591592 -0.000745236 0)
(0.0606488 -0.000744265 0)
(0.0621364 -0.000743184 0)
(0.0636217 -0.000741987 0)
(0.0651044 -0.000740668 0)
(0.0665845 -0.00073922 0)
(0.0680614 -0.000737638 0)
(0.0695351 -0.000735915 0)
(0.0710053 -0.000734045 0)
(0.0724715 -0.00073202 0)
(0.0739335 -0.000729836 0)
(0.075391 -0.000727484 0)
(0.0768436 -0.00072496 0)
(0.078291 -0.000722255 0)
(0.0797328 -0.000719365 0)
(0.0811687 -0.000716282 0)
(0.0825981 -0.000713 0)
(0.0840209 -0.000709513 0)
(0.0854364 -0.000705815 0)
(0.0868443 -0.000701899 0)
(0.0882442 -0.00069776 0)
(0.0896356 -0.000693392 0)
(0.091018 -0.00068879 0)
(0.092391 -0.000683947 0)
(0.093754 -0.000678858 0)
(0.0951067 -0.000673519 0)
(0.0964484 -0.000667925 0)
(0.0977786 -0.00066207 0)
(0.0990969 -0.000655952 0)
(0.100403 -0.000649564 0)
(0.101695 -0.000642905 0)
(0.102975 -0.00063597 0)
(0.10424 -0.000628757 0)
(0.10549 -0.000621262 0)
(0.106725 -0.000613484 0)
(0.107944 -0.00060542 0)
(0.109147 -0.00059707 0)
(0.110333 -0.00058843 0)
(0.111501 -0.000579502 0)
(0.112651 -0.000570285 0)
(0.113782 -0.00056078 0)
(0.114894 -0.000550986 0)
(0.115987 -0.000540905 0)
(0.117058 -0.000530538 0)
(0.118109 -0.000519889 0)
(0.119138 -0.000508959 0)
(0.120145 -0.000497752 0)
(0.121129 -0.000486272 0)
(0.12209 -0.000474522 0)
(0.123028 -0.000462508 0)
(0.123941 -0.000450234 0)
(0.124829 -0.000437706 0)
(0.125692 -0.000424931 0)
(0.126529 -0.000411915 0)
(0.12734 -0.000398666 0)
(0.128124 -0.00038519 0)
(0.128881 -0.000371497 0)
(0.12961 -0.000357594 0)
(0.130311 -0.000343491 0)
(0.130984 -0.000329197 0)
(0.131628 -0.000314721 0)
(0.132243 -0.000300074 0)
(0.132829 -0.000285267 0)
(0.133384 -0.000270309 0)
(0.13391 -0.000255213 0)
(0.134405 -0.000239989 0)
(0.13487 -0.000224648 0)
(0.135304 -0.000209204 0)
(0.135707 -0.000193667 0)
(0.136079 -0.000178049 0)
(0.136419 -0.000162364 0)
(0.136728 -0.000146623 0)
(0.137006 -0.000130839 0)
(0.137252 -0.000115024 0)
(0.137466 -9.91906e-05 0)
(0.137648 -8.33513e-05 0)
(0.137799 -6.75185e-05 0)
(0.137919 -5.17045e-05 0)
(0.138006 -3.59214e-05 0)
(0.138062 -2.01813e-05 0)
(0.138087 -4.49615e-06 0)
(0.13808 1.11224e-05 0)
(0.138042 2.66628e-05 0)
(0.137973 4.21138e-05 0)
(0.137874 5.74645e-05 0)
(0.137743 7.2704e-05 0)
(0.137583 8.7822e-05 0)
(0.137392 0.000102808 0)
(0.137171 0.000117653 0)
(0.136921 0.000132348 0)
(0.136642 0.000146882 0)
(0.136333 0.000161248 0)
(0.135997 0.000175437 0)
(0.135632 0.000189441 0)
(0.135239 0.000203254 0)
(0.134818 0.000216867 0)
(0.134371 0.000230274 0)
(0.133897 0.00024347 0)
(0.133397 0.000256447 0)
(0.132871 0.000269202 0)
(0.13232 0.000281729 0)
(0.131744 0.000294023 0)
(0.131144 0.000306081 0)
(0.130519 0.000317898 0)
(0.129872 0.000329472 0)
(0.129201 0.000340801 0)
(0.128508 0.00035188 0)
(0.127793 0.000362709 0)
(0.127057 0.000373286 0)
(0.1263 0.00038361 0)
(0.125522 0.000393679 0)
(0.124725 0.000403494 0)
(0.123908 0.000413054 0)
(0.123073 0.000422359 0)
(0.122219 0.00043141 0)
(0.121347 0.000440207 0)
(0.120457 0.000448753 0)
(0.119551 0.000457047 0)
(0.118629 0.000465092 0)
(0.117691 0.000472891 0)
(0.116737 0.000480444 0)
(0.115769 0.000487754 0)
(0.114786 0.000494825 0)
(0.113789 0.000501658 0)
(0.112779 0.000508257 0)
(0.111756 0.000514625 0)
(0.11072 0.000520766 0)
(0.109673 0.000526682 0)
(0.108613 0.000532379 0)
(0.107543 0.000537858 0)
(0.106462 0.000543125 0)
(0.10537 0.000548183 0)
(0.104269 0.000553037 0)
(0.103158 0.00055769 0)
(0.102038 0.000562148 0)
(0.100909 0.000566413 0)
(0.099772 0.000570491 0)
(0.098627 0.000574387 0)
(0.0974743 0.000578103 0)
(0.0963144 0.000581646 0)
(0.0951476 0.00058502 0)
(0.0939742 0.000588228 0)
(0.0927945 0.000591276 0)
(0.0916089 0.000594168 0)
(0.0904177 0.000596909 0)
(0.0892211 0.000599503 0)
(0.0880195 0.000601955 0)
(0.0868132 0.000604269 0)
(0.0856023 0.000606449 0)
(0.0843872 0.0006085 0)
(0.0831682 0.000610427 0)
(0.0819454 0.000612233 0)
(0.0807191 0.000613922 0)
(0.0794896 0.0006155 0)
(0.078257 0.00061697 0)
(0.0770216 0.000618336 0)
(0.0757836 0.000619603 0)
(0.0745431 0.000620774 0)
(0.0733004 0.000621853 0)
(0.0720556 0.000622844 0)
(0.070809 0.00062375 0)
(0.0695606 0.000624577 0)
(0.0683106 0.000625326 0)
(0.0670592 0.000626002 0)
(0.0658065 0.000626608 0)
(0.0645527 0.000627147 0)
(0.0632979 0.000627623 0)
(0.0620421 0.00062804 0)
(0.0607856 0.000628399 0)
(0.0595285 0.000628705 0)
(0.0582708 0.000628961 0)
(0.0570126 0.000629169 0)
(0.055754 0.000629332 0)
(0.0544952 0.000629453 0)
(0.0532362 0.000629535 0)
(0.0519771 0.00062958 0)
(0.0507179 0.000629591 0)
(0.0494587 0.000629571 0)
(0.0481995 0.000629521 0)
(0.0469405 0.000629445 0)
(0.0456817 0.000629345 0)
(0.0444232 0.000629222 0)
(0.0431648 0.000629079 0)
(0.0419068 0.000628918 0)
(0.0406491 0.000628741 0)
(0.0393918 0.00062855 0)
(0.0381349 0.000628346 0)
(0.0368785 0.000628132 0)
(0.0356224 0.00062791 0)
(0.0343668 0.00062768 0)
(0.0331117 0.000627445 0)
(0.031857 0.000627206 0)
(0.0306029 0.000626965 0)
(0.0293492 0.000626722 0)
(0.028096 0.00062648 0)
(0.0268433 0.000626239 0)
(0.025591 0.000626001 0)
(0.0243393 0.000625767 0)
(0.023088 0.000625538 0)
(0.0218371 0.000625315 0)
(0.0205867 0.000625099 0)
(0.0193367 0.000624891 0)
(0.0180872 0.000624692 0)
(0.016838 0.000624503 0)
(0.0155892 0.000624324 0)
(0.0143407 0.000624156 0)
(0.0130925 0.000624 0)
(0.0118447 0.000623856 0)
(0.0105971 0.000623725 0)
(0.00934981 0.000623608 0)
(0.00810272 0.000623504 0)
(0.00685581 0.000623415 0)
(0.00560908 0.000623339 0)
(0.00436247 0.000623279 0)
(0.00311598 0.000623234 0)
(0.00186956 0.000623203 0)
(0.00062318 0.000623188 0)
(0.00074743 -0.00224235 0)
(0.00224231 -0.0022424 0)
(0.00373724 -0.00224251 0)
(0.00523226 -0.00224267 0)
(0.0067274 -0.00224287 0)
(0.0082227 -0.00224313 0)
(0.00971818 -0.00224343 0)
(0.0112139 -0.00224377 0)
(0.0127098 -0.00224415 0)
(0.014206 -0.00224457 0)
(0.0157026 -0.00224502 0)
(0.0171994 -0.0022455 0)
(0.0186965 -0.002246 0)
(0.020194 -0.00224652 0)
(0.0216919 -0.00224704 0)
(0.0231901 -0.00224757 0)
(0.0246886 -0.0022481 0)
(0.0261876 -0.00224861 0)
(0.0276868 -0.00224911 0)
(0.0291864 -0.00224957 0)
(0.0306863 -0.00225 0)
(0.0321865 -0.00225039 0)
(0.0336869 -0.00225072 0)
(0.0351875 -0.00225098 0)
(0.0366883 -0.00225116 0)
(0.0381891 -0.00225126 0)
(0.0396901 -0.00225125 0)
(0.041191 -0.00225113 0)
(0.0426917 -0.00225089 0)
(0.0441923 -0.00225051 0)
(0.0456926 -0.00224997 0)
(0.0471925 -0.00224927 0)
(0.0486918 -0.00224838 0)
(0.0501906 -0.0022473 0)
(0.0516885 -0.00224601 0)
(0.0531855 -0.00224449 0)
(0.0546815 -0.00224273 0)
(0.0561761 -0.0022407 0)
(0.0576694 -0.0022384 0)
(0.059161 -0.00223581 0)
(0.0606509 -0.0022329 0)
(0.0621386 -0.00222967 0)
(0.0636242 -0.00222608 0)
(0.0651072 -0.00222213 0)
(0.0665875 -0.0022178 0)
(0.0680648 -0.00221305 0)
(0.0695387 -0.00220789 0)
(0.0710092 -0.00220229 0)
(0.0724757 -0.00219622 0)
(0.073938 -0.00218967 0)
(0.0753959 -0.00218262 0)
(0.0768488 -0.00217506 0)
(0.0782966 -0.00216695 0)
(0.0797388 -0.00215829 0)
(0.081175 -0.00214904 0)
(0.0826049 -0.0021392 0)
(0.084028 -0.00212875 0)
(0.085444 -0.00211766 0)
(0.0868524 -0.00210592 0)
(0.0882527 -0.00209351 0)
(0.0896446 -0.00208041 0)
(0.0910275 -0.00206661 0)
(0.0924009 -0.00205208 0)
(0.0937645 -0.00203682 0)
(0.0951176 -0.00202081 0)
(0.0964598 -0.00200403 0)
(0.0977906 -0.00198647 0)
(0.0991094 -0.00196812 0)
(0.100416 -0.00194896 0)
(0.101709 -0.00192899 0)
(0.102989 -0.00190819 0)
(0.104254 -0.00188655 0)
(0.105505 -0.00186407 0)
(0.106741 -0.00184074 0)
(0.107961 -0.00181655 0)
(0.109164 -0.00179149 0)
(0.11035 -0.00176558 0)
(0.111519 -0.00173879 0)
(0.11267 -0.00171114 0)
(0.113802 -0.00168262 0)
(0.114914 -0.00165324 0)
(0.116007 -0.001623 0)
(0.117079 -0.0015919 0)
(0.118131 -0.00155994 0)
(0.11916 -0.00152715 0)
(0.120168 -0.00149353 0)
(0.121153 -0.00145908 0)
(0.122114 -0.00142383 0)
(0.123052 -0.00138778 0)
(0.123966 -0.00135095 0)
(0.124854 -0.00131336 0)
(0.125718 -0.00127503 0)
(0.126555 -0.00123598 0)
(0.127366 -0.00119622 0)
(0.128151 -0.00115579 0)
(0.128908 -0.0011147 0)
(0.129638 -0.00107298 0)
(0.13034 -0.00103066 0)
(0.131013 -0.000987769 0)
(0.131657 -0.000944332 0)
(0.132273 -0.000900382 0)
(0.132858 -0.000855948 0)
(0.133414 -0.000811064 0)
(0.13394 -0.000765763 0)
(0.134436 -0.000720079 0)
(0.134901 -0.000674047 0)
(0.135335 -0.000627701 0)
(0.135738 -0.000581078 0)
(0.13611 -0.000534214 0)
(0.136451 -0.000487146 0)
(0.13676 -0.00043991 0)
(0.137037 -0.000392545 0)
(0.137283 -0.000345088 0)
(0.137498 -0.000297576 0)
(0.13768 -0.000250046 0)
(0.137831 -0.000202535 0)
(0.13795 -0.000155081 0)
(0.138038 -0.000107719 0)
(0.138094 -6.04872e-05 0)
(0.138118 -1.34201e-05 0)
(0.138111 3.3447e-05 0)
(0.138073 8.00794e-05 0)
(0.138004 0.000126443 0)
(0.137904 0.000172506 0)
(0.137774 0.000218235 0)
(0.137613 0.000263599 0)
(0.137422 0.000308568 0)
(0.137201 0.000353112 0)
(0.13695 0.000397204 0)
(0.136671 0.000440816 0)
(0.136362 0.000483922 0)
(0.136025 0.000526497 0)
(0.135659 0.000568517 0)
(0.135266 0.000609961 0)
(0.134845 0.000650807 0)
(0.134398 0.000691036 0)
(0.133923 0.000730628 0)
(0.133423 0.000769566 0)
(0.132896 0.000807835 0)
(0.132345 0.000845419 0)
(0.131768 0.000882306 0)
(0.131167 0.000918482 0)
(0.130543 0.000953938 0)
(0.129895 0.000988664 0)
(0.129224 0.00102265 0)
(0.12853 0.00105589 0)
(0.127815 0.00108838 0)
(0.127078 0.00112011 0)
(0.12632 0.00115108 0)
(0.125542 0.00118129 0)
(0.124744 0.00121074 0)
(0.123927 0.00123942 0)
(0.123091 0.00126733 0)
(0.122236 0.00129448 0)
(0.121364 0.00132087 0)
(0.120474 0.00134651 0)
(0.119568 0.00137139 0)
(0.118645 0.00139552 0)
(0.117706 0.00141892 0)
(0.116752 0.00144157 0)
(0.115783 0.0014635 0)
(0.1148 0.00148471 0)
(0.113803 0.00150521 0)
(0.112792 0.001525 0)
(0.111768 0.0015441 0)
(0.110732 0.00156252 0)
(0.109684 0.00158027 0)
(0.108625 0.00159735 0)
(0.107554 0.00161379 0)
(0.106472 0.00162958 0)
(0.10538 0.00164475 0)
(0.104278 0.00165931 0)
(0.103167 0.00167327 0)
(0.102047 0.00168663 0)
(0.100917 0.00169943 0)
(0.0997799 0.00171166 0)
(0.0986345 0.00172334 0)
(0.0974815 0.00173448 0)
(0.0963212 0.00174511 0)
(0.0951541 0.00175522 0)
(0.0939803 0.00176484 0)
(0.0928004 0.00177398 0)
(0.0916145 0.00178265 0)
(0.0904229 0.00179087 0)
(0.0892261 0.00179865 0)
(0.0880242 0.001806 0)
(0.0868176 0.00181294 0)
(0.0856065 0.00181947 0)
(0.0843912 0.00182562 0)
(0.0831719 0.0018314 0)
(0.0819488 0.00183681 0)
(0.0807224 0.00184188 0)
(0.0794926 0.00184661 0)
(0.0782598 0.00185101 0)
(0.0770242 0.00185511 0)
(0.075786 0.0018589 0)
(0.0745453 0.00186241 0)
(0.0733024 0.00186564 0)
(0.0720575 0.00186861 0)
(0.0708106 0.00187133 0)
(0.0695621 0.0018738 0)
(0.0683119 0.00187605 0)
(0.0670604 0.00187807 0)
(0.0658076 0.00187989 0)
(0.0645536 0.0018815 0)
(0.0632987 0.00188293 0)
(0.0620429 0.00188417 0)
(0.0607863 0.00188525 0)
(0.059529 0.00188616 0)
(0.0582712 0.00188693 0)
(0.0570129 0.00188755 0)
(0.0557543 0.00188803 0)
(0.0544954 0.0018884 0)
(0.0532363 0.00188864 0)
(0.0519771 0.00188877 0)
(0.0507178 0.0018888 0)
(0.0494586 0.00188874 0)
(0.0481994 0.00188859 0)
(0.0469403 0.00188836 0)
(0.0456815 0.00188805 0)
(0.0444229 0.00188768 0)
(0.0431645 0.00188725 0)
(0.0419065 0.00188677 0)
(0.0406487 0.00188623 0)
(0.0393914 0.00188566 0)
(0.0381345 0.00188505 0)
(0.036878 0.0018844 0)
(0.0356219 0.00188373 0)
(0.0343663 0.00188304 0)
(0.0331112 0.00188234 0)
(0.0318565 0.00188162 0)
(0.0306023 0.00188089 0)
(0.0293487 0.00188016 0)
(0.0280955 0.00187944 0)
(0.0268428 0.00187871 0)
(0.0255905 0.001878 0)
(0.0243388 0.00187729 0)
(0.0230875 0.00187661 0)
(0.0218367 0.00187594 0)
(0.0205863 0.00187529 0)
(0.0193363 0.00187466 0)
(0.0180868 0.00187407 0)
(0.0168376 0.0018735 0)
(0.0155888 0.00187296 0)
(0.0143404 0.00187245 0)
(0.0130922 0.00187199 0)
(0.0118444 0.00187155 0)
(0.0105969 0.00187116 0)
(0.00934959 0.00187081 0)
(0.00810252 0.0018705 0)
(0.00685564 0.00187023 0)
(0.00560894 0.00187 0)
(0.00436236 0.00186982 0)
(0.0031159 0.00186968 0)
(0.00186951 0.00186959 0)
(0.000623165 0.00186955 0)
(0.000747395 -0.0037372 0)
(0.0022422 -0.00373728 0)
(0.00373706 -0.00373746 0)
(0.00523202 -0.00373772 0)
(0.00672709 -0.00373807 0)
(0.00822233 -0.0037385 0)
(0.00971775 -0.003739 0)
(0.0112134 -0.00373957 0)
(0.0127093 -0.00374022 0)
(0.0142055 -0.00374092 0)
(0.0157019 -0.00374168 0)
(0.0171987 -0.00374248 0)
(0.0186958 -0.00374332 0)
(0.0201933 -0.00374418 0)
(0.0216912 -0.00374507 0)
(0.0231894 -0.00374596 0)
(0.0246879 -0.00374684 0)
(0.0261869 -0.00374771 0)
(0.0276862 -0.00374854 0)
(0.0291858 -0.00374933 0)
(0.0306857 -0.00375006 0)
(0.032186 -0.00375071 0)
(0.0336865 -0.00375127 0)
(0.0351872 -0.00375171 0)
(0.0366881 -0.00375203 0)
(0.0381891 -0.00375221 0)
(0.0396901 -0.00375221 0)
(0.0411912 -0.00375203 0)
(0.0426921 -0.00375164 0)
(0.0441929 -0.00375101 0)
(0.0456934 -0.00375013 0)
(0.0471935 -0.00374898 0)
(0.0486931 -0.00374752 0)
(0.0501921 -0.00374574 0)
(0.0516904 -0.0037436 0)
(0.0531877 -0.00374109 0)
(0.054684 -0.00373817 0)
(0.056179 -0.00373482 0)
(0.0576726 -0.003731 0)
(0.0591647 -0.0037267 0)
(0.0606549 -0.00372187 0)
(0.0621432 -0.0037165 0)
(0.0636292 -0.00371054 0)
(0.0651127 -0.00370398 0)
(0.0665935 -0.00369677 0)
(0.0680713 -0.00368889 0)
(0.0695459 -0.00368031 0)
(0.0710169 -0.00367099 0)
(0.0724841 -0.0036609 0)
(0.0739471 -0.00365001 0)
(0.0754056 -0.00363828 0)
(0.0768593 -0.00362569 0)
(0.0783078 -0.0036122 0)
(0.0797507 -0.00359778 0)
(0.0811877 -0.0035824 0)
(0.0826184 -0.00356602 0)
(0.0840424 -0.00354862 0)
(0.0854592 -0.00353016 0)
(0.0868685 -0.00351061 0)
(0.0882697 -0.00348994 0)
(0.0896625 -0.00346813 0)
(0.0910463 -0.00344515 0)
(0.0924208 -0.00342096 0)
(0.0937853 -0.00339554 0)
(0.0951395 -0.00336887 0)
(0.0964827 -0.00334092 0)
(0.0978145 -0.00331167 0)
(0.0991344 -0.0032811 0)
(0.100442 -0.00324918 0)
(0.101736 -0.0032159 0)
(0.103017 -0.00318124 0)
(0.104284 -0.00314519 0)
(0.105536 -0.00310773 0)
(0.106772 -0.00306884 0)
(0.107993 -0.00302853 0)
(0.109198 -0.00298678 0)
(0.110385 -0.00294359 0)
(0.111555 -0.00289895 0)
(0.112707 -0.00285287 0)
(0.11384 -0.00280533 0)
(0.114954 -0.00275636 0)
(0.116048 -0.00270595 0)
(0.117121 -0.0026541 0)
(0.118174 -0.00260084 0)
(0.119205 -0.00254618 0)
(0.120213 -0.00249013 0)
(0.121199 -0.0024327 0)
(0.122162 -0.00237393 0)
(0.123101 -0.00231383 0)
(0.124015 -0.00225243 0)
(0.124905 -0.00218976 0)
(0.125769 -0.00212585 0)
(0.126608 -0.00206074 0)
(0.12742 -0.00199445 0)
(0.128205 -0.00192704 0)
(0.128964 -0.00185853 0)
(0.129694 -0.00178897 0)
(0.130396 -0.00171841 0)
(0.13107 -0.00164689 0)
(0.131716 -0.00157446 0)
(0.132332 -0.00150117 0)
(0.132918 -0.00142708 0)
(0.133475 -0.00135224 0)
(0.134001 -0.0012767 0)
(0.134497 -0.00120052 0)
(0.134963 -0.00112376 0)
(0.135397 -0.00104648 0)
(0.135801 -0.00096873 0)
(0.136173 -0.000890582 0)
(0.136514 -0.000812094 0)
(0.136823 -0.000733328 0)
(0.137101 -0.000654345 0)
(0.137347 -0.000575208 0)
(0.137561 -0.000495979 0)
(0.137744 -0.00041672 0)
(0.137894 -0.000337495 0)
(0.138013 -0.000258364 0)
(0.138101 -0.000179388 0)
(0.138156 -0.000100628 0)
(0.138181 -2.21441e-05 0)
(0.138174 5.6006e-05 0)
(0.138135 0.000133764 0)
(0.138066 0.000211074 0)
(0.137965 0.000287881 0)
(0.137834 0.000364131 0)
(0.137673 0.000439771 0)
(0.137481 0.000514752 0)
(0.13726 0.000589024 0)
(0.137009 0.00066254 0)
(0.136729 0.000735255 0)
(0.136419 0.000807126 0)
(0.136081 0.00087811 0)
(0.135715 0.00094817 0)
(0.135321 0.00101727 0)
(0.134899 0.00108537 0)
(0.134451 0.00115243 0)
(0.133976 0.00121844 0)
(0.133474 0.00128335 0)
(0.132947 0.00134715 0)
(0.132394 0.00140981 0)
(0.131817 0.0014713 0)
(0.131215 0.0015316 0)
(0.130589 0.00159071 0)
(0.12994 0.00164859 0)
(0.129268 0.00170525 0)
(0.128574 0.00176065 0)
(0.127858 0.00181481 0)
(0.12712 0.0018677 0)
(0.126361 0.00191932 0)
(0.125582 0.00196967 0)
(0.124783 0.00201874 0)
(0.123965 0.00206654 0)
(0.123128 0.00211306 0)
(0.122272 0.00215831 0)
(0.121399 0.0022023 0)
(0.120508 0.00224502 0)
(0.1196 0.00228648 0)
(0.118677 0.0023267 0)
(0.117737 0.00236568 0)
(0.116782 0.00240343 0)
(0.115812 0.00243997 0)
(0.114828 0.00247531 0)
(0.113829 0.00250946 0)
(0.112818 0.00254244 0)
(0.111793 0.00257426 0)
(0.110756 0.00260495 0)
(0.109707 0.00263451 0)
(0.108647 0.00266297 0)
(0.107575 0.00269035 0)
(0.106493 0.00271667 0)
(0.1054 0.00274194 0)
(0.104297 0.00276619 0)
(0.103185 0.00278943 0)
(0.102064 0.0028117 0)
(0.100934 0.002833 0)
(0.0997959 0.00285337 0)
(0.0986498 0.00287282 0)
(0.0974961 0.00289138 0)
(0.0963351 0.00290908 0)
(0.0951673 0.00292592 0)
(0.0939929 0.00294194 0)
(0.0928123 0.00295716 0)
(0.0916257 0.0029716 0)
(0.0904336 0.00298528 0)
(0.0892362 0.00299822 0)
(0.0880338 0.00301046 0)
(0.0868266 0.00302201 0)
(0.085615 0.00303289 0)
(0.0843991 0.00304312 0)
(0.0831793 0.00305273 0)
(0.0819559 0.00306174 0)
(0.0807289 0.00307017 0)
(0.0794987 0.00307804 0)
(0.0782655 0.00308537 0)
(0.0770295 0.00309218 0)
(0.0757909 0.00309849 0)
(0.0745498 0.00310432 0)
(0.0733066 0.0031097 0)
(0.0720613 0.00311464 0)
(0.0708141 0.00311915 0)
(0.0695652 0.00312326 0)
(0.0683148 0.00312699 0)
(0.067063 0.00313035 0)
(0.0658099 0.00313337 0)
(0.0645557 0.00313605 0)
(0.0633005 0.00313841 0)
(0.0620444 0.00314048 0)
(0.0607876 0.00314226 0)
(0.0595301 0.00314378 0)
(0.0582721 0.00314504 0)
(0.0570137 0.00314606 0)
(0.0557549 0.00314686 0)
(0.0544958 0.00314746 0)
(0.0532366 0.00314785 0)
(0.0519772 0.00314806 0)
(0.0507178 0.00314811 0)
(0.0494584 0.00314799 0)
(0.0481991 0.00314774 0)
(0.04694 0.00314734 0)
(0.045681 0.00314683 0)
(0.0444223 0.0031462 0)
(0.0431639 0.00314548 0)
(0.0419058 0.00314466 0)
(0.040648 0.00314377 0)
(0.0393906 0.00314281 0)
(0.0381337 0.00314178 0)
(0.0368771 0.0031407 0)
(0.035621 0.00313958 0)
(0.0343654 0.00313842 0)
(0.0331102 0.00313724 0)
(0.0318556 0.00313604 0)
(0.0306014 0.00313482 0)
(0.0293477 0.0031336 0)
(0.0280945 0.00313239 0)
(0.0268418 0.00313118 0)
(0.0255896 0.00312998 0)
(0.0243379 0.00312881 0)
(0.0230866 0.00312766 0)
(0.0218358 0.00312654 0)
(0.0205854 0.00312545 0)
(0.0193355 0.00312441 0)
(0.018086 0.00312341 0)
(0.0168369 0.00312246 0)
(0.0155881 0.00312156 0)
(0.0143397 0.00312072 0)
(0.0130916 0.00311993 0)
(0.0118439 0.00311921 0)
(0.0105964 0.00311856 0)
(0.00934915 0.00311797 0)
(0.00810213 0.00311745 0)
(0.00685532 0.003117 0)
(0.00560867 0.00311662 0)
(0.00436215 0.00311632 0)
(0.00311575 0.00311609 0)
(0.00186942 0.00311594 0)
(0.000623134 0.00311586 0)
(0.000747341 -0.00523195 0)
(0.00224204 -0.00523207 0)
(0.0037368 -0.00523232 0)
(0.00523165 -0.00523269 0)
(0.00672662 -0.00523318 0)
(0.00822176 -0.00523379 0)
(0.0097171 -0.0052345 0)
(0.0112127 -0.00523531 0)
(0.0127085 -0.00523622 0)
(0.0142046 -0.00523721 0)
(0.015701 -0.00523828 0)
(0.0171977 -0.00523942 0)
(0.0186948 -0.0052406 0)
(0.0201923 -0.00524183 0)
(0.0216901 -0.00524308 0)
(0.0231883 -0.00524435 0)
(0.0246869 -0.0052456 0)
(0.0261858 -0.00524683 0)
(0.0276852 -0.00524802 0)
(0.0291849 -0.00524915 0)
(0.0306849 -0.00525019 0)
(0.0321852 -0.00525112 0)
(0.0336858 -0.00525193 0)
(0.0351867 -0.00525258 0)
(0.0366878 -0.00525306 0)
(0.038189 -0.00525332 0)
(0.0396902 -0.00525336 0)
(0.0411915 -0.00525313 0)
(0.0426927 -0.00525261 0)
(0.0441938 -0.00525177 0)
(0.0456946 -0.00525058 0)
(0.0471951 -0.00524899 0)
(0.0486951 -0.00524699 0)
(0.0501945 -0.00524453 0)
(0.0516931 -0.00524158 0)
(0.0531909 -0.00523809 0)
(0.0546877 -0.00523404 0)
(0.0561833 -0.00522939 0)
(0.0576775 -0.00522409 0)
(0.0591701 -0.0052181 0)
(0.060661 -0.00521139 0)
(0.0621499 -0.00520391 0)
(0.0636367 -0.00519562 0)
(0.0651209 -0.00518647 0)
(0.0666025 -0.00517643 0)
(0.0680812 -0.00516544 0)
(0.0695566 -0.00515347 0)
(0.0710285 -0.00514046 0)
(0.0724966 -0.00512638 0)
(0.0739606 -0.00511118 0)
(0.0754202 -0.00509481 0)
(0.0768749 -0.00507723 0)
(0.0783245 -0.00505839 0)
(0.0797686 -0.00503824 0)
(0.0812068 -0.00501675 0)
(0.0826387 -0.00499387 0)
(0.0840639 -0.00496955 0)
(0.085482 -0.00494374 0)
(0.0868926 -0.00491642 0)
(0.0882952 -0.00488753 0)
(0.0896894 -0.00485703 0)
(0.0910746 -0.00482489 0)
(0.0924505 -0.00479106 0)
(0.0938166 -0.00475551 0)
(0.0951722 -0.00471821 0)
(0.096517 -0.00467911 0)
(0.0978504 -0.00463819 0)
(0.0991719 -0.00459542 0)
(0.100481 -0.00455076 0)
(0.101777 -0.00450419 0)
(0.103059 -0.00445569 0)
(0.104328 -0.00440523 0)
(0.105582 -0.0043528 0)
(0.10682 -0.00429838 0)
(0.108043 -0.00424196 0)
(0.109249 -0.00418352 0)
(0.110438 -0.00412305 0)
(0.11161 -0.00406056 0)
(0.112763 -0.00399604 0)
(0.113898 -0.00392949 0)
(0.115014 -0.00386091 0)
(0.116109 -0.00379032 0)
(0.117184 -0.00371773 0)
(0.118239 -0.00364315 0)
(0.119271 -0.00356659 0)
(0.120281 -0.00348809 0)
(0.121269 -0.00340767 0)
(0.122233 -0.00332536 0)
(0.123174 -0.00324118 0)
(0.12409 -0.00315518 0)
(0.124981 -0.0030674 0)
(0.125847 -0.00297789 0)
(0.126687 -0.00288667 0)
(0.1275 -0.00279382 0)
(0.128287 -0.00269938 0)
(0.129046 -0.00260341 0)
(0.129778 -0.00250596 0)
(0.130482 -0.00240711 0)
(0.131157 -0.00230691 0)
(0.131803 -0.00220544 0)
(0.13242 -0.00210277 0)
(0.133007 -0.00199896 0)
(0.133565 -0.00189411 0)
(0.134092 -0.00178827 0)
(0.134589 -0.00168154 0)
(0.135055 -0.00157399 0)
(0.13549 -0.00146571 0)
(0.135894 -0.00135678 0)
(0.136267 -0.00124729 0)
(0.136608 -0.00113732 0)
(0.136918 -0.00102696 0)
(0.137196 -0.000916299 0)
(0.137442 -0.000805419 0)
(0.137656 -0.000694412 0)
(0.137839 -0.000583363 0)
(0.137989 -0.000472361 0)
(0.138108 -0.000361492 0)
(0.138195 -0.000250842 0)
(0.138251 -0.000140494 0)
(0.138275 -3.05343e-05 0)
(0.138267 7.89564e-05 0)
(0.138228 0.000187897 0)
(0.138158 0.000296208 0)
(0.138057 0.000403813 0)
(0.137926 0.000510636 0)
(0.137764 0.000616603 0)
(0.137571 0.000721644 0)
(0.137349 0.000825691 0)
(0.137097 0.000928677 0)
(0.136815 0.00103054 0)
(0.136505 0.00113122 0)
(0.136166 0.00123065 0)
(0.135799 0.00132878 0)
(0.135403 0.00142557 0)
(0.134981 0.00152095 0)
(0.134531 0.00161489 0)
(0.134054 0.00170734 0)
(0.133551 0.00179826 0)
(0.133023 0.00188761 0)
(0.132469 0.00197536 0)
(0.13189 0.00206148 0)
(0.131287 0.00214593 0)
(0.13066 0.0022287 0)
(0.130009 0.00230976 0)
(0.129336 0.00238909 0)
(0.12864 0.00246667 0)
(0.127922 0.0025425 0)
(0.127183 0.00261655 0)
(0.126422 0.00268883 0)
(0.125642 0.00275932 0)
(0.124841 0.00282803 0)
(0.124021 0.00289494 0)
(0.123183 0.00296007 0)
(0.122326 0.00302342 0)
(0.121451 0.00308498 0)
(0.120559 0.00314478 0)
(0.119649 0.00320282 0)
(0.118724 0.00325911 0)
(0.117783 0.00331367 0)
(0.116826 0.0033665 0)
(0.115855 0.00341764 0)
(0.114869 0.00346709 0)
(0.11387 0.00351488 0)
(0.112857 0.00356103 0)
(0.111831 0.00360556 0)
(0.110793 0.0036485 0)
(0.109742 0.00368986 0)
(0.10868 0.00372968 0)
(0.107607 0.00376798 0)
(0.106524 0.0038048 0)
(0.10543 0.00384015 0)
(0.104326 0.00387406 0)
(0.103213 0.00390658 0)
(0.10209 0.00393772 0)
(0.100959 0.00396751 0)
(0.0998198 0.003996 0)
(0.0986726 0.0040232 0)
(0.0975178 0.00404916 0)
(0.0963559 0.00407389 0)
(0.095187 0.00409744 0)
(0.0940117 0.00411984 0)
(0.0928301 0.00414111 0)
(0.0916427 0.00416129 0)
(0.0904496 0.00418042 0)
(0.0892513 0.00419851 0)
(0.0880481 0.00421561 0)
(0.0868401 0.00423174 0)
(0.0856277 0.00424695 0)
(0.0844111 0.00426124 0)
(0.0831905 0.00427467 0)
(0.0819663 0.00428725 0)
(0.0807387 0.00429902 0)
(0.0795079 0.00431001 0)
(0.078274 0.00432024 0)
(0.0770374 0.00432975 0)
(0.0757982 0.00433856 0)
(0.0745566 0.0043467 0)
(0.0733128 0.0043542 0)
(0.072067 0.00436108 0)
(0.0708193 0.00436738 0)
(0.06957 0.00437311 0)
(0.0683191 0.0043783 0)
(0.0670668 0.00438298 0)
(0.0658133 0.00438718 0)
(0.0645587 0.00439091 0)
(0.0633032 0.0043942 0)
(0.0620468 0.00439707 0)
(0.0607896 0.00439954 0)
(0.0595318 0.00440164 0)
(0.0582735 0.00440339 0)
(0.0570148 0.0044048 0)
(0.0557557 0.0044059 0)
(0.0544964 0.00440671 0)
(0.0532369 0.00440725 0)
(0.0519774 0.00440753 0)
(0.0507178 0.00440757 0)
(0.0494582 0.0044074 0)
(0.0481988 0.00440702 0)
(0.0469395 0.00440645 0)
(0.0456804 0.00440572 0)
(0.0444215 0.00440483 0)
(0.043163 0.0044038 0)
(0.0419048 0.00440264 0)
(0.0406469 0.00440138 0)
(0.0393895 0.00440001 0)
(0.0381324 0.00439856 0)
(0.0368758 0.00439704 0)
(0.0356197 0.00439546 0)
(0.034364 0.00439383 0)
(0.0331088 0.00439217 0)
(0.0318541 0.00439047 0)
(0.0305999 0.00438876 0)
(0.0293462 0.00438704 0)
(0.0280931 0.00438533 0)
(0.0268404 0.00438363 0)
(0.0255882 0.00438195 0)
(0.0243365 0.00438029 0)
(0.0230852 0.00437868 0)
(0.0218345 0.0043771 0)
(0.0205842 0.00437558 0)
(0.0193343 0.00437411 0)
(0.0180848 0.00437271 0)
(0.0168358 0.00437137 0)
(0.0155871 0.00437011 0)
(0.0143387 0.00436892 0)
(0.0130907 0.00436782 0)
(0.011843 0.00436681 0)
(0.0105956 0.00436589 0)
(0.00934848 0.00436506 0)
(0.00810155 0.00436433 0)
(0.00685482 0.00436369 0)
(0.00560826 0.00436316 0)
(0.00436184 0.00436274 0)
(0.00311552 0.00436242 0)
(0.00186928 0.00436221 0)
(0.000623089 0.0043621 0)
(0.000747269 -0.00672658 0)
(0.00224183 -0.00672674 0)
(0.00373644 -0.00672707 0)
(0.00523115 -0.00672755 0)
(0.00672599 -0.00672818 0)
(0.008221 -0.00672897 0)
(0.00971622 -0.00672989 0)
(0.0112117 -0.00673095 0)
(0.0127074 -0.00673214 0)
(0.0142034 -0.00673343 0)
(0.0156997 -0.00673482 0)
(0.0171964 -0.0067363 0)
(0.0186934 -0.00673785 0)
(0.0201908 -0.00673945 0)
(0.0216886 -0.00674109 0)
(0.0231868 -0.00674274 0)
(0.0246854 -0.00674439 0)
(0.0261844 -0.006746 0)
(0.0276838 -0.00674756 0)
(0.0291836 -0.00674905 0)
(0.0306837 -0.00675042 0)
(0.0321842 -0.00675167 0)
(0.033685 -0.00675274 0)
(0.035186 -0.00675363 0)
(0.0366873 -0.00675428 0)
(0.0381887 -0.00675467 0)
(0.0396903 -0.00675477 0)
(0.0411919 -0.00675453 0)
(0.0426935 -0.00675391 0)
(0.0441949 -0.00675289 0)
(0.0456962 -0.00675141 0)
(0.0471971 -0.00674943 0)
(0.0486976 -0.00674691 0)
(0.0501975 -0.00674381 0)
(0.0516968 -0.00674008 0)
(0.0531952 -0.00673567 0)
(0.0546926 -0.00673053 0)
(0.0561889 -0.00672461 0)
(0.0576839 -0.00671786 0)
(0.0591774 -0.00671024 0)
(0.0606691 -0.00670168 0)
(0.0621589 -0.00669213 0)
(0.0636466 -0.00668154 0)
(0.0651319 -0.00666986 0)
(0.0666145 -0.00665702 0)
(0.0680943 -0.00664297 0)
(0.0695709 -0.00662766 0)
(0.071044 -0.00661101 0)
(0.0725133 -0.00659299 0)
(0.0739786 -0.00657352 0)
(0.0754395 -0.00655255 0)
(0.0768957 -0.00653002 0)
(0.0783467 -0.00650588 0)
(0.0797923 -0.00648006 0)
(0.0812321 -0.0064525 0)
(0.0826656 -0.00642315 0)
(0.0840925 -0.00639195 0)
(0.0855123 -0.00635885 0)
(0.0869247 -0.00632379 0)
(0.0883291 -0.00628672 0)
(0.0897251 -0.00624757 0)
(0.0911123 -0.00620632 0)
(0.0924901 -0.00616289 0)
(0.0938582 -0.00611724 0)
(0.0952159 -0.00606934 0)
(0.0965627 -0.00601913 0)
(0.0978983 -0.00596657 0)
(0.0992219 -0.00591162 0)
(0.100533 -0.00585425 0)
(0.101831 -0.00579442 0)
(0.103116 -0.0057321 0)
(0.104387 -0.00566726 0)
(0.105643 -0.00559987 0)
(0.106883 -0.00552993 0)
(0.108108 -0.0054574 0)
(0.109317 -0.00538228 0)
(0.110508 -0.00530455 0)
(0.111682 -0.0052242 0)
(0.112838 -0.00514124 0)
(0.113975 -0.00505567 0)
(0.115093 -0.00496749 0)
(0.116191 -0.00487671 0)
(0.117269 -0.00478335 0)
(0.118325 -0.00468742 0)
(0.11936 -0.00458896 0)
(0.120372 -0.00448798 0)
(0.121362 -0.00438453 0)
(0.122328 -0.00427864 0)
(0.123271 -0.00417036 0)
(0.124189 -0.00405972 0)
(0.125082 -0.00394679 0)
(0.12595 -0.00383161 0)
(0.126792 -0.00371425 0)
(0.127607 -0.00359478 0)
(0.128396 -0.00347325 0)
(0.129157 -0.00334976 0)
(0.129891 -0.00322436 0)
(0.130596 -0.00309715 0)
(0.131272 -0.00296821 0)
(0.13192 -0.00283763 0)
(0.132538 -0.0027055 0)
(0.133127 -0.0025719 0)
(0.133685 -0.00243695 0)
(0.134214 -0.00230074 0)
(0.134712 -0.00216338 0)
(0.135179 -0.00202496 0)
(0.135614 -0.0018856 0)
(0.136019 -0.0017454 0)
(0.136392 -0.00160448 0)
(0.136734 -0.00146294 0)
(0.137044 -0.0013209 0)
(0.137322 -0.00117847 0)
(0.137569 -0.00103576 0)
(0.137783 -0.000892886 0)
(0.137966 -0.00074996 0)
(0.138116 -0.000607095 0)
(0.138235 -0.000464402 0)
(0.138322 -0.000321992 0)
(0.138377 -0.000179974 0)
(0.1384 -3.84558e-05 0)
(0.138392 0.000102456 0)
(0.138353 0.000242658 0)
(0.138282 0.000382048 0)
(0.13818 0.000520526 0)
(0.138047 0.000657995 0)
(0.137884 0.00079436 0)
(0.137691 0.000929531 0)
(0.137467 0.00106342 0)
(0.137214 0.00119594 0)
(0.136931 0.00132701 0)
(0.136619 0.00145655 0)