/*--------------------------------*- C++ -*----------------------------------*\
| =========                 |                                                 |
| \\      /  F ield         | OpenFOAM: The Open Source CFD Toolbox           |
|  \\    /   O peration     | Version:  v2012                                 |
|   \\  /    A nd           | Website:  www.openfoam.com                      |
|    \\/     M anipulation  |                                                 |
\*---------------------------------------------------------------------------*/
FoamFile
{
    version     2.0;
    format      ascii;
    class       surfaceScalarField;
    location    "7.3";
    object      phi;
}
// * * * * * * * * * * * * * * * * * * * * * * * * * * * * * * * * * * * * * //

dimensions      [0 3 -1 0 0 0 0];
oriented        oriented;


internalField   nonuniform List<scalar> 
130560
(
3.69916e-06
-3.69916e-06
7.39825e-06
-3.6991e-06
1.10972e-05
-3.69897e-06
1.4796e-05
-3.69879e-06
1.84946e-05
-3.69854e-06
2.21928e-05
-3.69823e-06
2.58906e-05
-3.69784e-06
2.9588e-05
-3.69738e-06
3.32848e-05
-3.69683e-06
3.6981e-05
-3.6962e-06
4.06765e-05
-3.69547e-06
4.43712e-05
-3.69464e-06
4.80649e-05
-3.69371e-06
5.17575e-05
-3.69265e-06
5.5449e-05
-3.69146e-06
5.91391e-05
-3.69013e-06
6.28278e-05
-3.68865e-06
6.65148e-05
-3.68701e-06
7.02e-05
-3.6852e-06
7.38832e-05
-3.68319e-06
7.75641e-05
-3.68098e-06
8.12427e-05
-3.67856e-06
8.49186e-05
-3.6759e-06
8.85916e-05
-3.67299e-06
9.22614e-05
-3.66982e-06
9.59278e-05
-3.66636e-06
9.95904e-05
-3.6626e-06
0.000103249
-3.65852e-06
0.000106903
-3.65411e-06
0.000110552
-3.64933e-06
0.000114197
-3.64418e-06
0.000117835
-3.63863e-06
0.000121468
-3.63266e-06
0.000125094
-3.62624e-06
0.000128713
-3.61936e-06
0.000132325
-3.612e-06
0.00013593
-3.60412e-06
0.000139525
-3.59572e-06
0.000143112
-3.58676e-06
0.000146689
-3.57721e-06
0.000150256
-3.56707e-06
0.000153813
-3.5563e-06
0.000157357
-3.54488e-06
0.00016089
-3.53278e-06
0.00016441
-3.51998e-06
0.000167917
-3.50645e-06
0.000171409
-3.49218e-06
0.000174886
-3.47714e-06
0.000178347
-3.4613e-06
0.000181792
-3.44464e-06
0.000185219
-3.42713e-06
0.000188628
-3.40876e-06
0.000192017
-3.3895e-06
0.000195387
-3.36933e-06
0.000198735
-3.34823e-06
0.000202061
-3.32617e-06
0.000205364
-3.30314e-06
0.000208643
-3.27911e-06
0.000211897
-3.25407e-06
0.000215125
-3.22801e-06
0.000218326
-3.20089e-06
0.000221499
-3.17271e-06
0.000224642
-3.14345e-06
0.000227756
-3.1131e-06
0.000230837
-3.08164e-06
0.000233886
-3.04906e-06
0.000236902
-3.01536e-06
0.000239882
-2.98053e-06
0.000242827
-2.94455e-06
0.000245734
-2.90742e-06
0.000248603
-2.86914e-06
0.000251433
-2.8297e-06
0.000254222
-2.78911e-06
0.000256969
-2.74736e-06
0.000259674
-2.70446e-06
0.000262334
-2.66041e-06
0.000264949
-2.61521e-06
0.000267518
-2.56887e-06
0.00027004
-2.52141e-06
0.000272513
-2.47283e-06
0.000274936
-2.42315e-06
0.000277308
-2.37238e-06
0.000279629
-2.32053e-06
0.000281896
-2.26764e-06
0.00028411
-2.21371e-06
0.000286269
-2.15876e-06
0.000288372
-2.10283e-06
0.000290418
-2.04594e-06
0.000292406
-1.98811e-06
0.000294335
-1.92937e-06
0.000296205
-1.86976e-06
0.000298014
-1.80931e-06
0.000299762
-1.74804e-06
0.000301448
-1.686e-06
0.000303071
-1.62322e-06
0.000304631
-1.55973e-06
0.000306127
-1.49559e-06
0.000307557
-1.43081e-06
0.000308923
-1.36546e-06
0.000310223
-1.29957e-06
0.000311456
-1.23318e-06
0.000312622
-1.16633e-06
0.000313721
-1.09908e-06
0.000314753
-1.03146e-06
0.000315716
-9.63516e-07
0.000316611
-8.95302e-07
0.000317438
-8.26861e-07
0.000318196
-7.58238e-07
0.000318886
-6.8948e-07
0.000319507
-6.20633e-07
0.000320058
-5.51743e-07
0.000320541
-4.82857e-07
0.000320955
-4.1402e-07
0.0003213
-3.45277e-07
0.000321577
-2.76673e-07
0.000321785
-2.08253e-07
0.000321925
-1.4006e-07
0.000321998
-7.21375e-08
0.000322002
-4.52652e-09
0.000321939
6.27313e-08
0.00032181
1.29596e-07
0.000321614
1.96028e-07
0.000321352
2.6199e-07
0.000321024
3.27444e-07
0.000320632
3.92355e-07
0.000320175
4.56689e-07
0.000319655
5.20413e-07
0.000319071
5.83494e-07
0.000318425
6.45902e-07
0.000317718
7.07609e-07
0.000316949
7.68587e-07
0.00031612
8.2881e-07
0.000315232
8.88253e-07
0.000314285
9.46893e-07
0.000313281
1.00471e-06
0.000312219
1.06168e-06
0.000311101
1.11779e-06
0.000309928
1.17301e-06
0.000308701
1.22734e-06
0.00030742
1.28076e-06
0.000306087
1.33326e-06
0.000304702
1.38482e-06
0.000303267
1.43543e-06
0.000301781
1.48509e-06
0.000300248
1.53379e-06
0.000298666
1.58153e-06
0.000297038
1.62829e-06
0.000295364
1.67408e-06
0.000293645
1.71889e-06
0.000291882
1.76272e-06
0.000290077
1.80557e-06
0.000288229
1.84745e-06
0.000286341
1.88835e-06
0.000284413
1.92827e-06
0.000282445
1.96723e-06
0.00028044
2.00523e-06
0.000278398
2.04227e-06
0.000276319
2.07836e-06
0.000274206
2.11351e-06
0.000272058
2.14772e-06
0.000269877
2.18101e-06
0.000267664
2.21338e-06
0.000265419
2.24484e-06
0.000263144
2.27541e-06
0.000260838
2.3051e-06
0.000258505
2.33392e-06
0.000256143
2.36187e-06
0.000253754
2.38898e-06
0.000251338
2.41526e-06
0.000248898
2.44072e-06
0.000246432
2.46537e-06
0.000243943
2.48923e-06
0.000241431
2.51231e-06
0.000238896
2.53462e-06
0.00023634
2.55619e-06
0.000233763
2.57703e-06
0.000231166
2.59714e-06
0.000228549
2.61655e-06
0.000225914
2.63528e-06
0.000223261
2.65333e-06
0.00022059
2.67072e-06
0.000217902
2.68746e-06
0.000215199
2.70359e-06
0.00021248
2.71909e-06
0.000209746
2.734e-06
0.000206997
2.74833e-06
0.000204235
2.76209e-06
0.00020146
2.7753e-06
0.000198672
2.78797e-06
0.000195872
2.80012e-06
0.00019306
2.81176e-06
0.000190237
2.82291e-06
0.000187404
2.83357e-06
0.00018456
2.84378e-06
0.000181706
2.85353e-06
0.000178844
2.86284e-06
0.000175972
2.87173e-06
0.000173092
2.88021e-06
0.000170203
2.88829e-06
0.000167307
2.89598e-06
0.000164404
2.90331e-06
0.000161494
2.91027e-06
0.000158577
2.91689e-06
0.000155654
2.92318e-06
0.000152725
2.92914e-06
0.00014979
2.93479e-06
0.00014685
2.94014e-06
0.000143904
2.94521e-06
0.000140954
2.95e-06
0.000138
2.95452e-06
0.000135041
2.95878e-06
0.000132078
2.96281e-06
0.000129112
2.96659e-06
0.000126142
2.97015e-06
0.000123168
2.9735e-06
0.000120191
2.97664e-06
0.000117212
2.97958e-06
0.00011423
2.98234e-06
0.000111245
2.98492e-06
0.000108257
2.98732e-06
0.000105268
2.98957e-06
0.000102276
2.99166e-06
9.92825e-05
2.9936e-06
9.62871e-05
2.99541e-06
9.329e-05
2.99708e-06
9.02914e-05
2.99863e-06
8.72913e-05
3.00006e-06
8.42899e-05
3.00138e-06
8.12873e-05
3.0026e-06
7.82836e-05
3.00372e-06
7.52789e-05
3.00474e-06
7.22732e-05
3.00569e-06
6.92667e-05
3.00655e-06
6.62593e-05
3.00733e-06
6.32513e-05
3.00804e-06
6.02426e-05
3.00869e-06
5.72333e-05
3.00928e-06
5.42235e-05
3.00981e-06
5.12132e-05
3.01029e-06
4.82025e-05
3.01072e-06
4.51914e-05
3.01111e-06
4.21799e-05
3.01145e-06
3.91682e-05
3.01176e-06
3.61562e-05
3.01203e-06
3.31439e-05
3.01227e-06
3.01314e-05
3.01248e-06
2.71187e-05
3.01266e-06
2.41059e-05
3.01282e-06
2.1093e-05
3.01296e-06
1.80799e-05
3.01308e-06
1.50667e-05
3.01317e-06
1.20535e-05
3.01325e-06
9.04015e-06
3.01331e-06
6.02679e-06
3.01336e-06
3.0134e-06
3.01339e-06
3.0134e-06
3.69921e-06
-7.39837e-06
7.39837e-06
-7.39825e-06
1.10974e-05
-7.39801e-06
1.47963e-05
-7.39764e-06
1.84949e-05
-7.39715e-06
2.21932e-05
-7.39652e-06
2.58911e-05
-7.39575e-06
2.95885e-05
-7.39483e-06
3.32855e-05
-7.39375e-06
3.69817e-05
-7.39249e-06
4.06773e-05
-7.39105e-06
4.43721e-05
-7.3894e-06
4.80659e-05
-7.38753e-06
5.17587e-05
-7.38542e-06
5.54503e-05
-7.38306e-06
5.91405e-05
-7.38041e-06
6.28294e-05
-7.37747e-06
6.65165e-05
-7.3742e-06
7.02019e-05
-7.37058e-06
7.38853e-05
-7.36659e-06
7.75665e-05
-7.36218e-06
8.12453e-05
-7.35735e-06
8.49215e-05
-7.35205e-06
8.85947e-05
-7.34625e-06
9.22648e-05
-7.33992e-06
9.59315e-05
-7.33302e-06
9.95944e-05
-7.32552e-06
0.000103253
-7.31739e-06
0.000106908
-7.30857e-06
0.000110557
-7.29904e-06
0.000114202
-7.28876e-06
0.000117841
-7.27767e-06
0.000121474
-7.26575e-06
0.000125101
-7.25294e-06
0.000128721
-7.23921e-06
0.000132333
-7.2245e-06
0.000135938
-7.20878e-06
0.000139534
-7.19199e-06
0.000143121
-7.17409e-06
0.000146699
-7.15503e-06
0.000150267
-7.13476e-06
0.000153824
-7.11325e-06
0.000157369
-7.09042e-06
0.000160903
-7.06625e-06
0.000164424
-7.04068e-06
0.000167931
-7.01366e-06
0.000171424
-6.98514e-06
0.000174902
-6.95507e-06
0.000178364
-6.92342e-06
0.000181809
-6.89012e-06
0.000185237
-6.85513e-06
0.000188647
-6.81841e-06
0.000192037
-6.77992e-06
0.000195408
-6.7396e-06
0.000198757
-6.69741e-06
0.000202084
-6.65331e-06
0.000205388
-6.60727e-06
0.000208668
-6.55924e-06
0.000211923
-6.50918e-06
0.000215152
-6.45706e-06
0.000218354
-6.40284e-06
0.000221528
-6.34649e-06
0.000224673
-6.28798e-06
0.000227787
-6.22729e-06
0.00023087
-6.16439e-06
0.00023392
-6.09925e-06
0.000236936
-6.03186e-06
0.000239918
-5.96219e-06
0.000242864
-5.89024e-06
0.000245772
-5.81599e-06
0.000248643
-5.73943e-06
0.000251473
-5.66056e-06
0.000254264
-5.57938e-06
0.000257012
-5.49588e-06
0.000259718
-5.41006e-06
0.000262379
-5.32195e-06
0.000264996
-5.23155e-06
0.000267566
-5.13887e-06
0.000270088
-5.04393e-06
0.000272562
-4.94676e-06
0.000274986
-4.84738e-06
0.00027736
-4.74583e-06
0.000279681
-4.64212e-06
0.00028195
-4.53631e-06
0.000284165
-4.42842e-06
0.000286324
-4.31851e-06
0.000288428
-4.20662e-06
0.000290475
-4.09281e-06
0.000292464
-3.97712e-06
0.000294394
-3.85962e-06
0.000296265
-3.74037e-06
0.000298075
-3.61942e-06
0.000299824
-3.49686e-06
0.000301511
-3.37273e-06
0.000303135
-3.24713e-06
0.000304695
-3.12013e-06
0.000306191
-2.99179e-06
0.000307623
-2.86221e-06
0.000308989
-2.73146e-06
0.000310289
-2.59963e-06
0.000311522
-2.46681e-06
0.000312689
-2.33307e-06
0.000313788
-2.19852e-06
0.00031482
-2.06323e-06
0.000315784
-1.9273e-06
0.00031668
-1.79083e-06
0.000317507
-1.6539e-06
0.000318265
-1.51661e-06
0.000318955
-1.37905e-06
0.000319575
-1.24131e-06
0.000320127
-1.10348e-06
0.00032061
-9.65664e-07
0.000321024
-8.27945e-07
0.000321369
-6.90415e-07
0.000321645
-5.53163e-07
0.000321853
-4.1628e-07
0.000321993
-2.79851e-07
0.000322065
-1.43963e-07
0.000322069
-8.70025e-09
0.000322006
1.25855e-07
0.000321876
2.59624e-07
0.000321679
3.92526e-07
0.000321417
5.24486e-07
0.000321089
6.5543e-07
0.000320696
7.85287e-07
0.000320239
9.13988e-07
0.000319718
1.04147e-06
0.000319134
1.16766e-06
0.000318487
1.29251e-06
0.000317779
1.41595e-06
0.000317009
1.53793e-06
0.00031618
1.6584e-06
0.000315291
1.77731e-06
0.000314343
1.89461e-06
0.000313337
2.01026e-06
0.000312275
2.12422e-06
0.000311156
2.23645e-06
0.000309982
2.34692e-06
0.000308754
2.45559e-06
0.000307472
2.56244e-06
0.000306138
2.66744e-06
0.000304752
2.77058e-06
0.000303316
2.87182e-06
0.00030183
2.97115e-06
0.000300295
3.06855e-06
0.000298713
3.16403e-06
0.000297083
3.25755e-06
0.000295408
3.34913e-06
0.000293689
3.43875e-06
0.000291925
3.52641e-06
0.000290118
3.61212e-06
0.00028827
3.69587e-06
0.000286381
3.77766e-06
0.000284451
3.85751e-06
0.000282483
3.93543e-06
0.000280477
4.01142e-06
0.000278434
4.08549e-06
0.000276354
4.15766e-06
0.00027424
4.22795e-06
0.000272091
4.29636e-06
0.000269909
4.36293e-06
0.000267695
4.42766e-06
0.000265449
4.49058e-06
0.000263173
4.55171e-06
0.000260867
4.61107e-06
0.000258532
4.66869e-06
0.00025617
4.72459e-06
0.00025378
4.7788e-06
0.000251364
4.83134e-06
0.000248922
4.88224e-06
0.000246456
4.93152e-06
0.000243966
4.97923e-06
0.000241453
5.02537e-06
0.000238918
5.06999e-06
0.000236361
5.11311e-06
0.000233783
5.15477e-06
0.000231185
5.19498e-06
0.000228568
5.23379e-06
0.000225932
5.27122e-06
0.000223278
5.30731e-06
0.000220607
5.34207e-06
0.000217918
5.37555e-06
0.000215214
5.40778e-06
0.000212495
5.43878e-06
0.00020976
5.46859e-06
0.000207011
5.49723e-06
0.000204248
5.52474e-06
0.000201473
5.55114e-06
0.000198684
5.57647e-06
0.000195884
5.60075e-06
0.000193071
5.62401e-06
0.000190248
5.64629e-06
0.000187414
5.66761e-06
0.00018457
5.688e-06
0.000181716
5.70749e-06
0.000178852
5.7261e-06
0.00017598
5.74386e-06
0.0001731
5.76081e-06
0.000170211
5.77695e-06
0.000167315
5.79233e-06
0.000164411
5.80697e-06
0.0001615
5.82089e-06
0.000158583
5.83412e-06
0.00015566
5.84667e-06
0.00015273
5.85859e-06
0.000149795
5.86988e-06
0.000146855
5.88057e-06
0.000143909
5.89069e-06
0.000140959
5.90026e-06
0.000138004
5.90929e-06
0.000135045
5.91781e-06
0.000132082
5.92584e-06
0.000129115
5.93341e-06
0.000126145
5.94052e-06
0.000123171
5.9472e-06
0.000120194
5.95347e-06
0.000117215
5.95935e-06
0.000114232
5.96486e-06
0.000111247
5.97e-06
0.00010826
5.97481e-06
0.00010527
5.97929e-06
0.000102278
5.98346e-06
9.92843e-05
5.98734e-06
9.62887e-05
5.99094e-06
9.32915e-05
5.99428e-06
9.02928e-05
5.99737e-06
8.72926e-05
6.00023e-06
8.42911e-05
6.00287e-06
8.12884e-05
6.00529e-06
7.82846e-05
6.00753e-06
7.52798e-05
6.00957e-06
7.2274e-05
6.01145e-06
6.92674e-05
6.01316e-06
6.626e-05
6.01473e-06
6.32519e-05
6.01615e-06
6.02432e-05
6.01744e-06
5.72338e-05
6.01861e-06
5.4224e-05
6.01967e-06
5.12136e-05
6.02063e-06
4.82029e-05
6.02148e-06
4.51917e-05
6.02225e-06
4.21802e-05
6.02294e-06
3.91684e-05
6.02355e-06
3.61564e-05
6.02409e-06
3.31441e-05
6.02457e-06
3.01316e-05
6.02498e-06
2.71189e-05
6.02535e-06
2.4106e-05
6.02567e-06
2.10931e-05
6.02594e-06
1.808e-05
6.02617e-06
1.50668e-05
6.02636e-06
1.20535e-05
6.02652e-06
9.04019e-06
6.02664e-06
6.02682e-06
6.02673e-06
3.01342e-06
6.02679e-06
6.02682e-06
3.69933e-06
-1.10977e-05
7.39861e-06
-1.10975e-05
1.10978e-05
-1.10972e-05
1.47968e-05
-1.10966e-05
1.84955e-05
-1.10959e-05
2.21939e-05
-1.1095e-05
2.5892e-05
-1.10938e-05
2.95896e-05
-1.10925e-05
3.32867e-05
-1.10908e-05
3.69832e-05
-1.1089e-05
4.0679e-05
-1.10868e-05
4.4374e-05
-1.10844e-05
4.8068e-05
-1.10816e-05
5.17611e-05
-1.10785e-05
5.54529e-05
-1.10749e-05
5.91435e-05
-1.1071e-05
6.28327e-05
-1.10666e-05
6.65202e-05
-1.10617e-05
7.0206e-05
-1.10563e-05
7.38898e-05
-1.10504e-05
7.75714e-05
-1.10438e-05
8.12506e-05
-1.10366e-05
8.49273e-05
-1.10287e-05
8.86011e-05
-1.102e-05
9.22717e-05
-1.10106e-05
9.5939e-05
-1.10003e-05
9.96026e-05
-1.09891e-05
0.000103262
-1.09769e-05
0.000106917
-1.09638e-05
0.000110568
-1.09495e-05
0.000114213
-1.09341e-05
0.000117853
-1.09176e-05
0.000121487
-1.08997e-05
0.000125115
-1.08806e-05
0.000128735
-1.086e-05
0.000132349
-1.0838e-05
0.000135955
-1.08145e-05
0.000139552
-1.07894e-05
0.000143141
-1.07626e-05
0.00014672
-1.07341e-05
0.000150289
-1.07037e-05
0.000153847
-1.06715e-05
0.000157394
-1.06373e-05
0.000160929
-1.06011e-05
0.000164451
-1.05628e-05
0.000167959
-1.05224e-05
0.000171454
-1.04796e-05
0.000174933
-1.04346e-05
0.000178397
-1.03872e-05
0.000181844
-1.03373e-05
0.000185274
-1.02849e-05
0.000188686
-1.02298e-05
0.000192078
-1.01722e-05
0.00019545
-1.01117e-05
0.000198801
-1.00485e-05
0.00020213
-9.98241e-06
0.000205436
-9.91339e-06
0.000208718
-9.84139e-06
0.000211976
-9.76634e-06
0.000215207
-9.6882e-06
0.000218411
-9.60692e-06
0.000221587
-9.52243e-06
0.000224733
-9.43471e-06
0.00022785
-9.3437e-06
0.000230935
-9.24938e-06
0.000233987
-9.1517e-06
0.000237006
-9.05063e-06
0.00023999
-8.94615e-06
0.000242938
-8.83824e-06
0.000245849
-8.72687e-06
0.000248721
-8.61204e-06
0.000251555
-8.49374e-06
0.000254347
-8.37196e-06
0.000257098
-8.2467e-06
0.000259806
-8.11797e-06
0.00026247
-7.98579e-06
0.000265088
-7.85017e-06
0.000267661
-7.71113e-06
0.000270185
-7.5687e-06
0.000272662
-7.42291e-06
0.000275088
-7.2738e-06
0.000277464
-7.12142e-06
0.000279787
-6.96582e-06
0.000282058
-6.80704e-06
0.000284275
-6.64516e-06
0.000286437
-6.48024e-06
0.000288542
-6.31234e-06
0.000290591
-6.14156e-06
0.000292582
-5.96795e-06
0.000294514
-5.79163e-06
0.000296386
-5.61266e-06
0.000298198
-5.43116e-06
0.000299948
-5.24722e-06
0.000301636
-5.06095e-06
0.000303262
-4.87246e-06
0.000304823
-4.68185e-06
0.000306321
-4.48925e-06
0.000307753
-4.29477e-06
0.000309121
-4.09855e-06
0.000310422
-3.90069e-06
0.000311656
-3.70134e-06
0.000312824
-3.50063e-06
0.000313924
-3.29869e-06
0.000314956
-3.09564e-06
0.000315921
-2.89164e-06
0.000316817
-2.68682e-06
0.000317644
-2.48131e-06
0.000318403
-2.27525e-06
0.000319092
-2.06879e-06
0.000319713
-1.86207e-06
0.000320265
-1.65522e-06
0.000320748
-1.44837e-06
0.000321161
-1.24168e-06
0.000321506
-1.03527e-06
0.000321782
-8.29285e-07
0.00032199
-6.23851e-07
0.000322129
-4.19101e-07
0.0003222
-2.15164e-07
0.000322204
-1.21665e-08
0.00032214
1.89768e-07
0.000322009
3.90518e-07
0.000321812
5.89966e-07
0.000321548
7.87998e-07
0.000321219
9.84504e-07
0.000320825
1.17938e-06
0.000320366
1.37251e-06
0.000319844
1.56381e-06
0.000319259
1.75317e-06
0.000318611
1.94051e-06
0.000317901
2.12574e-06
0.00031713
2.30878e-06
0.000316299
2.48955e-06
0.000315408
2.66797e-06
0.000314459
2.84398e-06
0.000313451
3.0175e-06
0.000312387
3.18849e-06
0.000311267
3.35688e-06
0.000310091
3.52262e-06
0.000308861
3.68567e-06
0.000307577
3.84597e-06
0.000306241
4.00351e-06
0.000304854
4.15823e-06
0.000303415
4.31011e-06
0.000301927
4.45912e-06
0.000300391
4.60525e-06
0.000298806
4.74847e-06
0.000297175
4.88877e-06
0.000295498
5.02614e-06
0.000293776
5.16057e-06
0.000292011
5.29207e-06
0.000290202
5.42062e-06
0.000288352
5.54624e-06
0.00028646
5.66892e-06
0.000284529
5.78869e-06
0.000282559
5.90555e-06
0.000280551
6.01952e-06
0.000278506
6.13061e-06
0.000276425
6.23885e-06
0.000274308
6.34426e-06
0.000272158
6.44686e-06
0.000269974
6.54668e-06
0.000267758
6.64375e-06
0.000265511
6.73811e-06
0.000263233
6.82977e-06
0.000260925
6.91879e-06
0.000258588
7.00519e-06
0.000256224
7.089e-06
0.000253832
7.17028e-06
0.000251415
7.24906e-06
0.000248972
7.32537e-06
0.000246504
7.39927e-06
0.000244012
7.47078e-06
0.000241498
7.53997e-06
0.000238961
7.60686e-06
0.000236402
7.67151e-06
0.000233823
7.73395e-06
0.000231224
7.79423e-06
0.000228605
7.85241e-06
0.000225968
7.90852e-06
0.000223313
7.9626e-06
0.00022064
8.01472e-06
0.000217951
8.0649e-06
0.000215245
8.1132e-06
0.000212524
8.15967e-06
0.000209789
8.20434e-06
0.000207039
8.24726e-06
0.000204275
8.28848e-06
0.000201498
8.32805e-06
0.000198708
8.36601e-06
0.000195907
8.40239e-06
0.000193094
8.43725e-06
0.000190269
8.47064e-06
0.000187434
8.50258e-06
0.000184589
8.53313e-06
0.000181734
8.56232e-06
0.00017887
8.59021e-06
0.000175997
8.61682e-06
0.000173116
8.6422e-06
0.000170226
8.66639e-06
0.000167329
8.68943e-06
0.000164425
8.71135e-06
0.000161514
8.7322e-06
0.000158596
8.75201e-06
0.000155672
8.77082e-06
0.000152742
8.78866e-06
0.000149806
8.80556e-06
0.000146865
8.82158e-06
0.000143919
8.83673e-06
0.000140968
8.85105e-06
0.000138013
8.86457e-06
0.000135053
8.87733e-06
0.00013209
8.88935e-06
0.000129122
8.90067e-06
0.000126152
8.91132e-06
0.000123178
8.92132e-06
0.0001202
8.9307e-06
0.00011722
8.9395e-06
0.000114237
8.94773e-06
0.000111252
8.95543e-06
0.000108264
8.96261e-06
0.000105274
8.96931e-06
0.000102282
8.97555e-06
9.92879e-05
8.98135e-06
9.62921e-05
8.98674e-06
9.32947e-05
8.99173e-06
9.02957e-05
8.99635e-06
8.72953e-05
9.00062e-06
8.42936e-05
9.00456e-06
8.12907e-05
9.00819e-06
7.82867e-05
9.01152e-06
7.52817e-05
9.01458e-06
7.22758e-05
9.01738e-06
6.9269e-05
9.01994e-06
6.62615e-05
9.02227e-06
6.32532e-05
9.02439e-06
6.02443e-05
9.02632e-06
5.72349e-05
9.02806e-06
5.42249e-05
9.02964e-06
5.12145e-05
9.03106e-06
4.82036e-05
9.03233e-06
4.51924e-05
9.03348e-06
4.21809e-05
9.0345e-06
3.9169e-05
9.03541e-06
3.61569e-05
9.03621e-06
3.31445e-05
9.03692e-06
3.0132e-05
9.03754e-06
2.71192e-05
9.03809e-06
2.41063e-05
9.03856e-06
2.10933e-05
9.03896e-06
1.80802e-05
9.0393e-06
1.50669e-05
9.03959e-06
1.20536e-05
9.03982e-06
9.04028e-06
9.04e-06
6.02688e-06
9.04013e-06
3.01345e-06
9.04022e-06
9.04027e-06
3.69951e-06
-1.47972e-05
7.39897e-06
-1.4797e-05
1.10983e-05
-1.47965e-05
1.47975e-05
-1.47958e-05
1.84964e-05
-1.47948e-05
2.21951e-05
-1.47936e-05
2.58934e-05
-1.47921e-05
2.95913e-05
-1.47903e-05
3.32886e-05
-1.47882e-05
3.69854e-05
-1.47857e-05
4.06815e-05
-1.47829e-05
4.43768e-05
-1.47797e-05
4.80712e-05
-1.4776e-05
5.17646e-05
-1.47719e-05
5.54569e-05
-1.47672e-05
5.91479e-05
-1.4762e-05
6.28376e-05
-1.47562e-05
6.65256e-05
-1.47498e-05
7.0212e-05
-1.47427e-05
7.38964e-05
-1.47348e-05
7.75787e-05
-1.47261e-05
8.12586e-05
-1.47166e-05
8.4936e-05
-1.47061e-05
8.86106e-05
-1.46946e-05
9.22821e-05
-1.46821e-05
9.59503e-05
-1.46684e-05
9.96148e-05
-1.46536e-05
0.000103275
-1.46375e-05
0.000106932
-1.462e-05
0.000110583
-1.46011e-05
0.00011423
-1.45807e-05
0.000117871
-1.45587e-05
0.000121506
-1.4535e-05
0.000125135
-1.45096e-05
0.000128758
-1.44823e-05
0.000132373
-1.44531e-05
0.00013598
-1.44218e-05
0.000139579
-1.43884e-05
0.000143169
-1.43528e-05
0.00014675
-1.43149e-05
0.000150321
-1.42745e-05
0.000153881
-1.42317e-05
0.00015743
-1.41863e-05
0.000160967
-1.41381e-05
0.000164491
-1.40872e-05
0.000168002
-1.40333e-05
0.000171499
-1.39765e-05
0.000174981
-1.39165e-05
0.000178447
-1.38534e-05
0.000181897
-1.3787e-05
0.000185329
-1.37172e-05
0.000188743
-1.36439e-05
0.000192138
-1.35671e-05
0.000195513
-1.34867e-05
0.000198867
-1.34025e-05
0.000202199
-1.33144e-05
0.000205508
-1.32225e-05
0.000208794
-1.31266e-05
0.000212054
-1.30266e-05
0.000215288
-1.29225e-05
0.000218495
-1.28142e-05
0.000221675
-1.27016e-05
0.000224825
-1.25847e-05
0.000227944
-1.24634e-05
0.000231033
-1.23377e-05
0.000234088
-1.22075e-05
0.000237111
-1.20728e-05
0.000240098
-1.19335e-05
0.00024305
-1.17897e-05
0.000245964
-1.16412e-05
0.00024884
-1.14881e-05
0.000251677
-1.13304e-05
0.000254473
-1.1168e-05
0.000257227
-1.1001e-05
0.000259938
-1.08293e-05
0.000262606
-1.06531e-05
0.000265228
-1.04722e-05
0.000267803
-1.02868e-05
0.000270331
-1.00968e-05
0.000272811
-9.90237e-06
0.000275241
-9.70349e-06
0.000277619
-9.50024e-06
0.000279946
-9.29268e-06
0.00028222
-9.08089e-06
0.00028444
-8.86495e-06
0.000286605
-8.64494e-06
0.000288713
-8.42096e-06
0.000290765
-8.19312e-06
0.000292758
-7.96151e-06
0.000294693
-7.72627e-06
0.000296568
-7.4875e-06
0.000298382
-7.24534e-06
0.000300135
-6.99993e-06
0.000301825
-6.7514e-06
0.000303453
-6.49989e-06
0.000305016
-6.24557e-06
0.000306516
-5.98858e-06
0.00030795
-5.72909e-06
0.000309319
-5.46725e-06
0.000310621
-5.20325e-06
0.000311857
-4.93725e-06
0.000313026
-4.66942e-06
0.000314127
-4.39995e-06
0.000315161
-4.12902e-06
0.000316126
-3.8568e-06
0.000317022
-3.58349e-06
0.00031785
-3.30926e-06
0.000318609
-3.0343e-06
0.000319299
-2.75881e-06
0.00031992
-2.48296e-06
0.000320472
-2.20694e-06
0.000320955
-1.93093e-06
0.000321368
-1.65513e-06
0.000321712
-1.37971e-06
0.000321988
-1.10485e-06
0.000322195
-8.30738e-07
0.000322333
-5.57537e-07
0.000322404
-2.85425e-07
0.000322406
-1.45691e-08
0.000322341
2.54864e-07
0.000322209
5.22714e-07
0.00032201
7.88823e-07
0.000321745
1.05304e-06
0.000321414
1.31521e-06
0.000321018
1.5752e-06
0.000320558
1.83287e-06
0.000320034
2.08808e-06
0.000319446
2.34071e-06
0.000318796
2.59063e-06
0.000318084
2.83774e-06
0.000317311
3.08191e-06
0.000316477
3.32305e-06
0.000315584
3.56105e-06
0.000314632
3.79582e-06
0.000313623
4.02729e-06
0.000312556
4.25535e-06
0.000311433
4.47995e-06
0.000310254
4.70102e-06
0.000309021
4.91848e-06
0.000307735
5.13228e-06
0.000306396
5.34238e-06
0.000305006
5.54872e-06
0.000303565
5.75127e-06
0.000302074
5.94999e-06
0.000300534
6.14485e-06
0.000298947
6.33584e-06
0.000297313
6.52292e-06
0.000295633
6.70609e-06
0.000293908
6.88534e-06
0.000292139
7.06066e-06
0.000290328
7.23206e-06
0.000288475
7.39954e-06
0.00028658
7.56311e-06
0.000284646
7.72278e-06
0.000282673
7.87857e-06
0.000280662
8.0305e-06
0.000278614
8.17859e-06
0.00027653
8.32287e-06
0.000274411
8.46337e-06
0.000272258
8.60014e-06
0.000270071
8.73319e-06
0.000267853
8.86257e-06
0.000265602
8.98832e-06
0.000263322
9.11049e-06
0.000261011
9.22912e-06
0.000258672
9.34426e-06
0.000256305
9.45596e-06
0.000253911
9.56427e-06
0.000251491
9.66924e-06
0.000249046
9.77093e-06
0.000246575
9.86939e-06
0.000244082
9.96468e-06
0.000241565
1.00569e-05
0.000239026
1.0146e-05
0.000236465
1.02321e-05
0.000233884
1.03153e-05
0.000231282
1.03956e-05
0.000228662
1.04731e-05
0.000226022
1.05478e-05
0.000223365
1.06199e-05
0.00022069
1.06893e-05
0.000217999
1.07561e-05
0.000215292
1.08205e-05
0.000212569
1.08823e-05
0.000209832
1.09418e-05
0.00020708
1.0999e-05
0.000204315
1.10539e-05
0.000201536
1.11066e-05
0.000198745
1.11571e-05
0.000195942
1.12056e-05
0.000193127
1.1252e-05
0.000190301
1.12964e-05
0.000187465
1.13389e-05
0.000184618
1.13796e-05
0.000181762
1.14185e-05
0.000178897
1.14556e-05
0.000176023
1.1491e-05
0.00017314
1.15248e-05
0.00017025
1.1557e-05
0.000167351
1.15876e-05
0.000164446
1.16168e-05
0.000161534
1.16446e-05
0.000158615
1.16709e-05
0.00015569
1.16959e-05
0.000152759
1.17197e-05
0.000149822
1.17421e-05
0.00014688
1.17634e-05
0.000143933
1.17836e-05
0.000140982
1.18026e-05
0.000138026
1.18206e-05
0.000135065
1.18376e-05
0.000132101
1.18536e-05
0.000129133
1.18686e-05
0.000126162
1.18828e-05
0.000123187
1.18961e-05
0.000120209
1.19085e-05
0.000117228
1.19202e-05
0.000114245
1.19311e-05
0.000111259
1.19414e-05
0.000108271
1.19509e-05
0.00010528
1.19598e-05
0.000102288
1.19681e-05
9.92933e-05
1.19758e-05
9.62971e-05
1.19829e-05
9.32993e-05
1.19896e-05
9.03e-05
1.19957e-05
8.72992e-05
1.20013e-05
8.42972e-05
1.20066e-05
8.1294e-05
1.20114e-05
7.82898e-05
1.20158e-05
7.52845e-05
1.20198e-05
7.22783e-05
1.20235e-05
6.92713e-05
1.20269e-05
6.62636e-05
1.203e-05
6.32552e-05
1.20328e-05
6.02461e-05
1.20354e-05
5.72365e-05
1.20377e-05
5.42264e-05
1.20398e-05
5.12158e-05
1.20416e-05
4.82048e-05
1.20433e-05
4.51934e-05
1.20448e-05
4.21818e-05
1.20462e-05
3.91698e-05
1.20474e-05
3.61576e-05
1.20484e-05
3.31451e-05
1.20494e-05
3.01325e-05
1.20502e-05
2.71197e-05
1.20509e-05
2.41067e-05
1.20515e-05
2.10936e-05
1.2052e-05
1.80805e-05
1.20525e-05
1.50672e-05
1.20529e-05
1.20538e-05
1.20532e-05
9.04042e-06
1.20534e-05
6.02697e-06
1.20536e-05
3.01349e-06
1.20537e-05
1.20538e-05
3.69975e-06
-1.8497e-05
7.39945e-06
-1.84967e-05
1.1099e-05
-1.84961e-05
1.47985e-05
-1.84952e-05
1.84977e-05
-1.84941e-05
2.21966e-05
-1.84926e-05
2.58952e-05
-1.84907e-05
2.95934e-05
-1.84885e-05
3.32911e-05
-1.84859e-05
3.69882e-05
-1.84829e-05
4.06847e-05
-1.84794e-05
4.43805e-05
-1.84754e-05
4.80753e-05
-1.84709e-05
5.17693e-05
-1.84658e-05
5.54621e-05
-1.84601e-05
5.91538e-05
-1.84537e-05
6.2844e-05
-1.84465e-05
6.65328e-05
-1.84386e-05
7.02199e-05
-1.84298e-05
7.39051e-05
-1.842e-05
7.75883e-05
-1.84093e-05
8.12691e-05
-1.83974e-05
8.49475e-05
-1.83845e-05
8.86232e-05
-1.83703e-05
9.22958e-05
-1.83547e-05
9.59652e-05
-1.83378e-05
9.9631e-05
-1.83194e-05
0.000103293
-1.82994e-05
0.000106951
-1.82777e-05
0.000110604
-1.82542e-05
0.000114252
-1.82289e-05
0.000117895
-1.82015e-05
0.000121532
-1.81721e-05
0.000125163
-1.81405e-05
0.000128787
-1.81065e-05
0.000132404
-1.80702e-05
0.000136013
-1.80313e-05
0.000139615
-1.79897e-05
0.000143207
-1.79454e-05
0.00014679
-1.78981e-05
0.000150364
-1.78479e-05
0.000153927
-1.77945e-05
0.000157478
-1.77379e-05
0.000161018
-1.76779e-05
0.000164545
-1.76144e-05
0.000168059
-1.75472e-05
0.000171559
-1.74764e-05
0.000175044
-1.74016e-05
0.000178514
-1.73229e-05
0.000181967
-1.72401e-05
0.000185403
-1.7153e-05
0.00018882
-1.70616e-05
0.000192219
-1.69658e-05
0.000195598
-1.68653e-05
0.000198955
-1.67602e-05
0.000202291
-1.66504e-05
0.000205604
-1.65356e-05
0.000208894
-1.64158e-05
0.000212158
-1.6291e-05
0.000215397
-1.6161e-05
0.000218608
-1.60257e-05
0.000221792
-1.58851e-05
0.000224946
-1.57391e-05
0.00022807
-1.55876e-05
0.000231163
-1.54306e-05
0.000234223
-1.52679e-05
0.00023725
-1.50996e-05
0.000240242
-1.49255e-05
0.000243198
-1.47457e-05
0.000246117
-1.45602e-05
0.000248998
-1.43689e-05
0.000251839
-1.41717e-05
0.00025464
-1.39687e-05
0.000257399
-1.37599e-05
0.000260115
-1.35453e-05
0.000262787
-1.3325e-05
0.000265413
-1.30988e-05
0.000267993
-1.2867e-05
0.000270526
-1.26294e-05
0.00027301
-1.23863e-05
0.000275444
-1.21376e-05
0.000277827
-1.18834e-05
0.000280158
-1.16238e-05
0.000282436
-1.13589e-05
0.00028466
-1.10888e-05
0.000286829
-1.08136e-05
0.000288941
-1.05334e-05
0.000290997
-1.02484e-05
0.000292994
-9.95871e-06
0.000294932
-9.66443e-06
0.00029681
-9.36573e-06
0.000298628
-9.06278e-06
0.000300383
-8.75575e-06
0.000302077
-8.44481e-06
0.000303707
-8.13015e-06
0.000305273
-7.81195e-06
0.000306775
-7.49042e-06
0.000308212
-7.16574e-06
0.000309583
-6.83813e-06
0.000310887
-6.50781e-06
0.000312125
-6.17498e-06
0.000313296
-5.83986e-06
0.000314398
-5.50269e-06
0.000315433
-5.16368e-06
0.000316399
-4.82306e-06
0.000317297
-4.48107e-06
0.000318125
-4.13794e-06
0.000318885
-3.79389e-06
0.000319575
-3.44917e-06
0.000320197
-3.10401e-06
0.000320748
-2.75864e-06
0.000321231
-2.41329e-06
0.000321644
-2.0682e-06
0.000321988
-1.72359e-06
0.000322262
-1.37968e-06
0.000322468
-1.03671e-06
0.000322606
-6.94885e-07
0.000322675
-3.54428e-07
0.000322676
-1.55492e-08
0.000322609
3.21545e-07
0.000322475
6.56651e-07
0.000322274
9.89574e-07
0.000322007
1.32012e-06
0.000321674
1.64811e-06
0.000321276
1.97335e-06
0.000320813
2.29568e-06
0.000320286
2.61494e-06
0.000319696
2.93095e-06
0.000319043
3.24357e-06
0.000318328
3.55266e-06
0.000317552
3.85807e-06
0.000316716
4.15968e-06
0.000315819
4.45736e-06
0.000314864
4.75099e-06
0.000313851
5.04047e-06
0.000312781
5.32569e-06
0.000311654
5.60657e-06
0.000310472
5.88302e-06
0.000309235
6.15495e-06
0.000307945
6.4223e-06
0.000306603
6.68501e-06
0.000305209
6.94301e-06
0.000303764
7.19626e-06
0.000302269
7.44471e-06
0.000300725
7.68834e-06
0.000299134
7.9271e-06
0.000297496
8.16098e-06
0.000295812
8.38996e-06
0.000294083
8.61403e-06
0.000292311
8.83319e-06
0.000290496
9.04743e-06
0.000288638
9.25676e-06
0.00028674
9.46119e-06
0.000284802
9.66075e-06
0.000282825
9.85545e-06
0.000280811
1.00453e-05
0.000278759
1.02304e-05
0.000276671
1.04107e-05
0.000274548
1.05862e-05
0.000272391
1.07571e-05
0.000270201
1.09234e-05
0.000267979
1.1085e-05
0.000265725
1.12421e-05
0.00026344
1.13947e-05
0.000261127
1.15429e-05
0.000258784
1.16868e-05
0.000256414
1.18263e-05
0.000254016
1.19616e-05
0.000251593
1.20927e-05
0.000249144
1.22197e-05
0.000246671
1.23427e-05
0.000244174
1.24617e-05
0.000241654
1.25768e-05
0.000239112
1.26881e-05
0.000236548
1.27956e-05
0.000233964
1.28995e-05