/*--------------------------------*- C++ -*----------------------------------*\
| =========                 |                                                 |
| \\      /  F ield         | OpenFOAM: The Open Source CFD Toolbox           |
|  \\    /   O peration     | Version:  v2012                                 |
|   \\  /    A nd           | Website:  www.openfoam.com                      |
|    \\/     M anipulation  |                                                 |
\*---------------------------------------------------------------------------*/
FoamFile
{
    version     2.0;
    format      ascii;
    class       volVectorField;
    location    "7.3";
    object      Psi;
}
// * * * * * * * * * * * * * * * * * * * * * * * * * * * * * * * * * * * * * //

dimensions      [0 2 -1 0 0 0 0];


internalField   nonuniform List<vector> 
65536
(
(0 0 9.25129e-06)
(0 0 2.77537e-05)
(0 0 4.62557e-05)
(0 0 6.4757e-05)
(0 0 8.32573e-05)
(0 0 0.000101756)
(0 0 0.000120254)
(0 0 0.000138749)
(0 0 0.000157242)
(0 0 0.000175733)
(0 0 0.00019422)
(0 0 0.000212703)
(0 0 0.000231183)
(0 0 0.000249658)
(0 0 0.000268127)
(0 0 0.00028659)
(0 0 0.000305047)
(0 0 0.000323497)
(0 0 0.000341938)
(0 0 0.00036037)
(0 0 0.000378792)
(0 0 0.000397203)
(0 0 0.000415602)
(0 0 0.000433988)
(0 0 0.000452358)
(0 0 0.000470713)
(0 0 0.00048905)
(0 0 0.000507369)
(0 0 0.000525666)
(0 0 0.000543942)
(0 0 0.000562193)
(0 0 0.000580418)
(0 0 0.000598615)
(0 0 0.000616782)
(0 0 0.000634916)
(0 0 0.000653015)
(0 0 0.000671077)
(0 0 0.000689099)
(0 0 0.000707078)
(0 0 0.000725012)
(0 0 0.000742898)
(0 0 0.000760731)
(0 0 0.000778511)
(0 0 0.000796232)
(0 0 0.000813892)
(0 0 0.000831486)
(0 0 0.000849012)
(0 0 0.000866466)
(0 0 0.000883843)
(0 0 0.00090114)
(0 0 0.000918352)
(0 0 0.000935475)
(0 0 0.000952505)
(0 0 0.000969437)
(0 0 0.000986266)
(0 0 0.00100299)
(0 0 0.0010196)
(0 0 0.00103609)
(0 0 0.00105246)
(0 0 0.00106871)
(0 0 0.00108482)
(0 0 0.00110079)
(0 0 0.00111663)
(0 0 0.00113231)
(0 0 0.00114784)
(0 0 0.00116321)
(0 0 0.00117841)
(0 0 0.00119344)
(0 0 0.0012083)
(0 0 0.00122297)
(0 0 0.00123746)
(0 0 0.00125175)
(0 0 0.00126584)
(0 0 0.00127973)
(0 0 0.0012934)
(0 0 0.00130686)
(0 0 0.00132009)
(0 0 0.0013331)
(0 0 0.00134587)
(0 0 0.0013584)
(0 0 0.00137068)
(0 0 0.00138272)
(0 0 0.00139449)
(0 0 0.001406)
(0 0 0.00141725)
(0 0 0.00142822)
(0 0 0.00143892)
(0 0 0.00144933)
(0 0 0.00145946)
(0 0 0.00146929)
(0 0 0.00147883)
(0 0 0.00148807)
(0 0 0.001497)
(0 0 0.00150562)
(0 0 0.00151393)
(0 0 0.00152192)
(0 0 0.00152959)
(0 0 0.00153694)
(0 0 0.00154396)
(0 0 0.00155065)
(0 0 0.00155701)
(0 0 0.00156304)
(0 0 0.00156873)
(0 0 0.00157408)
(0 0 0.00157909)
(0 0 0.00158376)
(0 0 0.00158809)
(0 0 0.00159207)
(0 0 0.0015957)
(0 0 0.00159899)
(0 0 0.00160194)
(0 0 0.00160454)
(0 0 0.00160679)
(0 0 0.0016087)
(0 0 0.00161026)
(0 0 0.00161148)
(0 0 0.00161235)
(0 0 0.00161289)
(0 0 0.00161308)
(0 0 0.00161293)
(0 0 0.00161245)
(0 0 0.00161163)
(0 0 0.00161048)
(0 0 0.001609)
(0 0 0.00160719)
(0 0 0.00160506)
(0 0 0.0016026)
(0 0 0.00159983)
(0 0 0.00159674)
(0 0 0.00159334)
(0 0 0.00158963)
(0 0 0.00158562)
(0 0 0.0015813)
(0 0 0.00157669)
(0 0 0.00157179)
(0 0 0.0015666)
(0 0 0.00156112)
(0 0 0.00155537)
(0 0 0.00154934)
(0 0 0.00154304)
(0 0 0.00153647)
(0 0 0.00152964)
(0 0 0.00152256)
(0 0 0.00151522)
(0 0 0.00150764)
(0 0 0.00149982)
(0 0 0.00149176)
(0 0 0.00148346)
(0 0 0.00147494)
(0 0 0.0014662)
(0 0 0.00145724)
(0 0 0.00144807)
(0 0 0.00143869)
(0 0 0.0014291)
(0 0 0.00141932)
(0 0 0.00140935)
(0 0 0.00139919)
(0 0 0.00138885)
(0 0 0.00137832)
(0 0 0.00136763)
(0 0 0.00135676)
(0 0 0.00134573)
(0 0 0.00133454)
(0 0 0.0013232)
(0 0 0.00131171)
(0 0 0.00130007)
(0 0 0.00128828)
(0 0 0.00127636)
(0 0 0.00126431)
(0 0 0.00125213)
(0 0 0.00123982)
(0 0 0.00122739)
(0 0 0.00121485)
(0 0 0.00120219)
(0 0 0.00118942)
(0 0 0.00117655)
(0 0 0.00116357)
(0 0 0.0011505)
(0 0 0.00113733)
(0 0 0.00112407)
(0 0 0.00111072)
(0 0 0.00109729)
(0 0 0.00108377)
(0 0 0.00107018)
(0 0 0.00105651)
(0 0 0.00104277)
(0 0 0.00102896)
(0 0 0.00101508)
(0 0 0.00100114)
(0 0 0.000987138)
(0 0 0.000973076)
(0 0 0.000958959)
(0 0 0.000944787)
(0 0 0.000930564)
(0 0 0.000916292)
(0 0 0.000901973)
(0 0 0.000887609)
(0 0 0.000873202)
(0 0 0.000858755)
(0 0 0.000844269)
(0 0 0.000829746)
(0 0 0.000815189)
(0 0 0.000800598)
(0 0 0.000785975)
(0 0 0.000771323)
(0 0 0.000756642)
(0 0 0.000741935)
(0 0 0.000727202)
(0 0 0.000712445)
(0 0 0.000697666)
(0 0 0.000682865)
(0 0 0.000668045)
(0 0 0.000653205)
(0 0 0.000638348)
(0 0 0.000623475)
(0 0 0.000608585)
(0 0 0.000593681)
(0 0 0.000578764)
(0 0 0.000563834)
(0 0 0.000548891)
(0 0 0.000533938)
(0 0 0.000518975)
(0 0 0.000504002)
(0 0 0.00048902)
(0 0 0.00047403)
(0 0 0.000459033)
(0 0 0.000444029)
(0 0 0.000429018)
(0 0 0.000414001)
(0 0 0.000398979)
(0 0 0.000383952)
(0 0 0.000368921)
(0 0 0.000353886)
(0 0 0.000338846)
(0 0 0.000323804)
(0 0 0.000308758)
(0 0 0.00029371)
(0 0 0.000278659)
(0 0 0.000263606)
(0 0 0.000248551)
(0 0 0.000233494)
(0 0 0.000218436)
(0 0 0.000203376)
(0 0 0.000188316)
(0 0 0.000173254)
(0 0 0.000158191)
(0 0 0.000143127)
(0 0 0.000128063)
(0 0 0.000112998)
(0 0 9.79324e-05)
(0 0 8.28666e-05)
(0 0 6.78004e-05)
(0 0 5.27339e-05)
(0 0 3.76672e-05)
(0 0 2.26004e-05)
(0 0 7.53347e-06)
(0 0 2.7754e-05)
(0 0 8.32614e-05)
(0 0 0.000138768)
(0 0 0.000194272)
(0 0 0.000249773)
(0 0 0.00030527)
(0 0 0.000360763)
(0 0 0.000416249)
(0 0 0.000471729)
(0 0 0.0005272)
(0 0 0.000582663)
(0 0 0.000638114)
(0 0 0.000693552)
(0 0 0.000748977)
(0 0 0.000804386)
(0 0 0.000859777)
(0 0 0.000915149)
(0 0 0.000970498)
(0 0 0.00102582)
(0 0 0.00108112)
(0 0 0.00113639)
(0 0 0.00119162)
(0 0 0.00124682)
(0 0 0.00130198)
(0 0 0.00135709)
(0 0 0.00141216)
(0 0 0.00146717)
(0 0 0.00152213)
(0 0 0.00157702)
(0 0 0.00163185)
(0 0 0.0016866)
(0 0 0.00174128)
(0 0 0.00179587)
(0 0 0.00185038)
(0 0 0.00190478)
(0 0 0.00195908)
(0 0 0.00201327)
(0 0 0.00206734)
(0 0 0.00212128)
(0 0 0.00217508)
(0 0 0.00222874)
(0 0 0.00228225)
(0 0 0.00233559)
(0 0 0.00238875)
(0 0 0.00244174)
(0 0 0.00249453)
(0 0 0.00254711)
(0 0 0.00259947)
(0 0 0.00265161)
(0 0 0.0027035)
(0 0 0.00275514)
(0 0 0.00280652)
(0 0 0.00285761)
(0 0 0.00290841)
(0 0 0.0029589)
(0 0 0.00300907)
(0 0 0.00305891)
(0 0 0.0031084)
(0 0 0.00315751)
(0 0 0.00320625)
(0 0 0.00325459)
(0 0 0.00330252)
(0 0 0.00335002)
(0 0 0.00339707)
(0 0 0.00344367)
(0 0 0.00348978)
(0 0 0.0035354)
(0 0 0.0035805)
(0 0 0.00362507)
(0 0 0.0036691)
(0 0 0.00371256)
(0 0 0.00375544)
(0 0 0.00379772)
(0 0 0.00383939)
(0 0 0.00388042)
(0 0 0.00392079)
(0 0 0.0039605)
(0 0 0.00399952)
(0 0 0.00403784)
(0 0 0.00407543)
(0 0 0.00411229)
(0 0 0.0041484)
(0 0 0.00418373)
(0 0 0.00421828)
(0 0 0.00425202)
(0 0 0.00428495)
(0 0 0.00431704)
(0 0 0.00434828)
(0 0 0.00437867)
(0 0 0.00440817)
(0 0 0.00443679)
(0 0 0.0044645)
(0 0 0.0044913)
(0 0 0.00451717)
(0 0 0.0045421)
(0 0 0.00456607)
(0 0 0.00458909)
(0 0 0.00461114)
(0 0 0.00463221)
(0 0 0.00465229)
(0 0 0.00467137)
(0 0 0.00468945)
(0 0 0.00470652)
(0 0 0.00472258)
(0 0 0.00473761)
(0 0 0.00475162)
(0 0 0.0047646)
(0 0 0.00477654)
(0 0 0.00478745)
(0 0 0.00479733)
(0 0 0.00480616)
(0 0 0.00481396)
(0 0 0.00482071)
(0 0 0.00482644)
(0 0 0.00483112)
(0 0 0.00483478)
(0 0 0.0048374)
(0 0 0.004839)
(0 0 0.00483957)
(0 0 0.00483913)
(0 0 0.00483768)
(0 0 0.00483522)
(0 0 0.00483177)
(0 0 0.00482732)
(0 0 0.00482189)
(0 0 0.00481549)
(0 0 0.00480812)
(0 0 0.0047998)
(0 0 0.00479053)
(0 0 0.00478032)
(0 0 0.00476919)
(0 0 0.00475715)
(0 0 0.0047442)
(0 0 0.00473036)
(0 0 0.00471565)
(0 0 0.00470007)
(0 0 0.00468364)
(0 0 0.00466637)
(0 0 0.00464828)
(0 0 0.00462937)
(0 0 0.00460967)
(0 0 0.00458918)
(0 0 0.00456793)
(0 0 0.00454592)
(0 0 0.00452316)
(0 0 0.00449969)
(0 0 0.0044755)
(0 0 0.00445061)
(0 0 0.00442505)
(0 0 0.00439881)
(0 0 0.00437193)
(0 0 0.0043444)
(0 0 0.00431626)
(0 0 0.00428751)
(0 0 0.00425816)
(0 0 0.00422824)
(0 0 0.00419775)
(0 0 0.00416671)
(0 0 0.00413514)
(0 0 0.00410305)
(0 0 0.00407045)
(0 0 0.00403736)
(0 0 0.00400378)
(0 0 0.00396975)
(0 0 0.00393526)
(0 0 0.00390033)
(0 0 0.00386498)
(0 0 0.00382922)
(0 0 0.00379305)
(0 0 0.0037565)
(0 0 0.00371958)
(0 0 0.00368229)
(0 0 0.00364465)
(0 0 0.00360667)
(0 0 0.00356836)
(0 0 0.00352974)
(0 0 0.00349081)
(0 0 0.00345158)
(0 0 0.00341207)
(0 0 0.00337229)
(0 0 0.00333224)
(0 0 0.00329194)
(0 0 0.00325139)
(0 0 0.00321061)
(0 0 0.0031696)
(0 0 0.00312838)
(0 0 0.00308694)
(0 0 0.00304531)
(0 0 0.00300348)
(0 0 0.00296147)
(0 0 0.00291928)
(0 0 0.00287693)
(0 0 0.00283441)
(0 0 0.00279174)
(0 0 0.00274892)
(0 0 0.00270596)
(0 0 0.00266287)
(0 0 0.00261965)
(0 0 0.0025763)
(0 0 0.00253284)
(0 0 0.00248927)
(0 0 0.0024456)
(0 0 0.00240182)
(0 0 0.00235795)
(0 0 0.002314)
(0 0 0.00226995)
(0 0 0.00222583)
(0 0 0.00218163)
(0 0 0.00213736)
(0 0 0.00209302)
(0 0 0.00204862)
(0 0 0.00200415)
(0 0 0.00195963)
(0 0 0.00191506)
(0 0 0.00187044)
(0 0 0.00182577)
(0 0 0.00178106)
(0 0 0.0017363)
(0 0 0.00169151)
(0 0 0.00164668)
(0 0 0.00160182)
(0 0 0.00155693)
(0 0 0.00151201)
(0 0 0.00146707)
(0 0 0.0014221)
(0 0 0.00137711)
(0 0 0.00133209)
(0 0 0.00128706)
(0 0 0.00124201)
(0 0 0.00119694)
(0 0 0.00115186)
(0 0 0.00110677)
(0 0 0.00106166)
(0 0 0.00101654)
(0 0 0.000971414)
(0 0 0.000926277)
(0 0 0.000881132)
(0 0 0.000835979)
(0 0 0.00079082)
(0 0 0.000745655)
(0 0 0.000700484)
(0 0 0.000655309)
(0 0 0.00061013)
(0 0 0.000564948)
(0 0 0.000519762)
(0 0 0.000474573)
(0 0 0.000429382)
(0 0 0.000384189)
(0 0 0.000338994)
(0 0 0.000293798)
(0 0 0.0002486)
(0 0 0.000203401)
(0 0 0.000158202)
(0 0 0.000113002)
(0 0 6.78012e-05)
(0 0 2.26004e-05)
(0 0 4.6257e-05)
(0 0 0.00013877)
(0 0 0.000231282)
(0 0 0.00032379)
(0 0 0.000416293)
(0 0 0.000508789)
(0 0 0.000601278)
(0 0 0.000693757)
(0 0 0.000786224)
(0 0 0.000878678)
(0 0 0.000971116)
(0 0 0.00106354)
(0 0 0.00115594)
(0 0 0.00124831)
(0 0 0.00134066)
(0 0 0.00143298)
(0 0 0.00152527)
(0 0 0.00161752)
(0 0 0.00170973)
(0 0 0.0018019)
(0 0 0.00189402)
(0 0 0.00198608)
(0 0 0.00207808)
(0 0 0.00217001)
(0 0 0.00226187)
(0 0 0.00235365)
(0 0 0.00244534)
(0 0 0.00253694)
(0 0 0.00262844)
(0 0 0.00271983)
(0 0 0.00281109)
(0 0 0.00290223)
(0 0 0.00299322)
(0 0 0.00308407)
(0 0 0.00317475)
(0 0 0.00326526)
(0 0 0.00335558)
(0 0 0.0034457)
(0 0 0.00353562)
(0 0 0.0036253)
(0 0 0.00371474)
(0 0 0.00380393)
(0 0 0.00389284)
(0 0 0.00398146)
(0 0 0.00406978)
(0 0 0.00415777)
(0 0 0.00424542)
(0 0 0.00433271)
(0 0 0.00441961)
(0 0 0.00450612)
(0 0 0.0045922)
(0 0 0.00467784)
(0 0 0.00476301)
(0 0 0.00484769)
(0 0 0.00493186)
(0 0 0.0050155)
(0 0 0.00509857)
(0 0 0.00518107)
(0 0 0.00526295)
(0 0 0.00534419)
(0 0 0.00542478)
(0 0 0.00550468)
(0 0 0.00558386)
(0 0 0.0056623)
(0 0 0.00573997)
(0 0 0.00581685)
(0 0 0.0058929)
(0 0 0.00596809)
(0 0 0.0060424)
(0 0 0.0061158)
(0 0 0.00618825)
(0 0 0.00625974)
(0 0 0.00633023)
(0 0 0.00639968)
(0 0 0.00646809)
(0 0 0.0065354)
(0 0 0.0066016)
(0 0 0.00666665)
(0 0 0.00673053)
(0 0 0.00679321)
(0 0 0.00685466)
(0 0 0.00691485)
(0 0 0.00697376)
(0 0 0.00703135)
(0 0 0.00708761)
(0 0 0.0071425)
(0 0 0.00719601)
(0 0 0.0072481)
(0 0 0.00729875)
(0 0 0.00734794)
(0 0 0.00739565)
(0 0 0.00744185)
(0 0 0.00748652)
(0 0 0.00752965)
(0 0 0.00757121)
(0 0 0.00761119)
(0 0 0.00764957)
(0 0 0.00768632)
(0 0 0.00772145)
(0 0 0.00775492)
(0 0 0.00778674)
(0 0 0.00781688)
(0 0 0.00784534)
(0 0 0.0078721)
(0 0 0.00789716)
(0 0 0.00792051)
(0 0 0.00794214)
(0 0 0.00796205)
(0 0 0.00798024)
(0 0 0.00799669)
(0 0 0.00801142)
(0 0 0.00802441)
(0 0 0.00803568)
(0 0 0.00804521)
(0 0 0.00805302)
(0 0 0.0080591)
(0 0 0.00806347)
(0 0 0.00806613)
(0 0 0.00806708)
(0 0 0.00806634)
(0 0 0.00806391)
(0 0 0.00805981)
(0 0 0.00805404)
(0 0 0.00804662)
(0 0 0.00803757)
(0 0 0.00802688)
(0 0 0.00801459)
(0 0 0.00800071)
(0 0 0.00798525)
(0 0 0.00796823)
(0 0 0.00794966)
(0 0 0.00792958)
(0 0 0.00790799)
(0 0 0.00788491)
(0 0 0.00786038)
(0 0 0.0078344)
(0 0 0.007807)
(0 0 0.00777821)
(0 0 0.00774803)
(0 0 0.00771651)
(0 0 0.00768365)
(0 0 0.00764949)
(0 0 0.00761405)
(0 0 0.00757735)
(0 0 0.00753941)
(0 0 0.00750027)
(0 0 0.00745994)
(0 0 0.00741844)
(0 0 0.00737582)
(0 0 0.00733208)
(0 0 0.00728725)
(0 0 0.00724136)
(0 0 0.00719444)
(0 0 0.0071465)
(0 0 0.00709757)
(0 0 0.00704769)
(0 0 0.00699686)
(0 0 0.00694511)
(0 0 0.00689248)
(0 0 0.00683897)
(0 0 0.00678463)
(0 0 0.00672946)
(0 0 0.00667349)
(0 0 0.00661675)
(0 0 0.00655925)
(0 0 0.00650103)
(0 0 0.0064421)
(0 0 0.00638247)
(0 0 0.00632219)
(0 0 0.00626125)
(0 0 0.0061997)
(0 0 0.00613754)
(0 0 0.00607479)
(0 0 0.00601148)
(0 0 0.00594762)
(0 0 0.00588323)
(0 0 0.00581834)
(0 0 0.00575295)
(0 0 0.00568709)
(0 0 0.00562077)
(0 0 0.00555402)
(0 0 0.00548684)
(0 0 0.00541925)
(0 0 0.00535127)
(0 0 0.00528291)
(0 0 0.00521419)
(0 0 0.00514512)
(0 0 0.00507572)
(0 0 0.005006)
(0 0 0.00493598)
(0 0 0.00486566)
(0 0 0.00479506)
(0 0 0.00472419)
(0 0 0.00465306)
(0 0 0.00458169)
(0 0 0.00451008)
(0 0 0.00443825)
(0 0 0.00436621)
(0 0 0.00429397)
(0 0 0.00422153)
(0 0 0.0041489)
(0 0 0.00407611)
(0 0 0.00400314)
(0 0 0.00393002)
(0 0 0.00385675)
(0 0 0.00378334)
(0 0 0.0037098)
(0 0 0.00363613)
(0 0 0.00356234)
(0 0 0.00348843)
(0 0 0.00341443)
(0 0 0.00334032)
(0 0 0.00326611)
(0 0 0.00319182)
(0 0 0.00311745)
(0 0 0.003043)
(0 0 0.00296847)
(0 0 0.00289388)
(0 0 0.00281923)
(0 0 0.00274451)
(0 0 0.00266974)
(0 0 0.00259492)
(0 0 0.00252005)
(0 0 0.00244514)
(0 0 0.00237019)
(0 0 0.0022952)
(0 0 0.00222017)
(0 0 0.00214512)
(0 0 0.00207003)
(0 0 0.00199492)
(0 0 0.00191978)
(0 0 0.00184462)
(0 0 0.00176945)
(0 0 0.00169425)
(0 0 0.00161903)
(0 0 0.0015438)
(0 0 0.00146856)
(0 0 0.00139331)
(0 0 0.00131804)
(0 0 0.00124276)
(0 0 0.00116748)
(0 0 0.00109219)
(0 0 0.00101689)
(0 0 0.000941583)
(0 0 0.000866273)
(0 0 0.000790958)
(0 0 0.000715639)
(0 0 0.000640317)
(0 0 0.000564992)
(0 0 0.000489664)
(0 0 0.000414334)
(0 0 0.000339003)
(0 0 0.00026367)
(0 0 0.000188337)
(0 0 0.000113002)
(0 0 3.76675e-05)
(0 0 6.47608e-05)
(0 0 0.000194281)
(0 0 0.000323799)
(0 0 0.000453312)
(0 0 0.000582819)
(0 0 0.000712316)
(0 0 0.000841803)
(0 0 0.000971276)
(0 0 0.00110073)
(0 0 0.00123017)
(0 0 0.00135959)
(0 0 0.00148898)
(0 0 0.00161834)
(0 0 0.00174767)
(0 0 0.00187697)
(0 0 0.00200622)
(0 0 0.00213543)
(0 0 0.00226459)
(0 0 0.00239369)
(0 0 0.00252273)
(0 0 0.0026517)
(0 0 0.00278059)
(0 0 0.0029094)
(0 0 0.00303811)
(0 0 0.00316673)
(0 0 0.00329523)
(0 0 0.00342361)
(0 0 0.00355186)
(0 0 0.00367997)
(0 0 0.00380793)
(0 0 0.00393571)
(0 0 0.00406331)
(0 0 0.00419072)
(0 0 0.00431792)
(0 0 0.00444489)
(0 0 0.00457162)
(0 0 0.00469809)
(0 0 0.00482429)
(0 0 0.00495018)
(0 0 0.00507576)
(0 0 0.005201)
(0 0 0.00532588)
(0 0 0.00545038)
(0 0 0.00557448)
(0 0 0.00569815)
(0 0 0.00582136)
(0 0 0.0059441)
(0 0 0.00606633)
(0 0 0.00618802)
(0 0 0.00630916)
(0 0 0.0064297)
(0 0 0.00654962)
(0 0 0.0066689)
(0 0 0.00678748)
(0 0 0.00690536)
(0 0 0.00702248)
(0 0 0.00713882)
(0 0 0.00725435)
(0 0 0.00736902)
(0 0 0.0074828)
(0 0 0.00759566)
(0 0 0.00770755)
(0 0 0.00781845)
(0 0 0.0079283)
(0 0 0.00803708)
(0 0 0.00814474)
(0 0 0.00825125)
(0 0 0.00835656)
(0 0 0.00846064)
(0 0 0.00856343)
(0 0 0.00866491)
(0 0 0.00876503)
(0 0 0.00886376)
(0 0 0.00896104)
(0 0 0.00905684)
(0 0 0.00915112)
(0 0 0.00924384)
(0 0 0.00933496)
(0 0 0.00942443)
(0 0 0.00951222)
(0 0 0.00959828)
(0 0 0.00968259)
(0 0 0.0097651)
(0 0 0.00984577)
(0 0 0.00992457)
(0 0 0.0100015)
(0 0 0.0100764)
(0 0 0.0101494)
(0 0 0.0102203)
(0 0 0.0102892)
(0 0 0.010356)
(0 0 0.0104207)
(0 0 0.0104833)
(0 0 0.0105437)
(0 0 0.0106019)
(0 0 0.0106579)
(0 0 0.0107117)
(0 0 0.0107631)
(0 0 0.0108123)
(0 0 0.0108592)
(0 0 0.0109038)
(0 0 0.010946)
(0 0 0.0109858)
(0 0 0.0110233)
(0 0 0.0110584)
(0 0 0.0110911)
(0 0 0.0111214)
(0 0 0.0111493)
(0 0 0.0111748)
(0 0 0.0111978)
(0 0 0.0112184)
(0 0 0.0112366)
(0 0 0.0112524)
(0 0 0.0112657)
(0 0 0.0112766)
(0 0 0.0112851)
(0 0 0.0112913)
(0 0 0.011295)
(0 0 0.0112963)
(0 0 0.0112952)
(0 0 0.0112918)
(0 0 0.0112861)
(0 0 0.011278)
(0 0 0.0112676)
(0 0 0.0112549)
(0 0 0.0112399)
(0 0 0.0112227)
(0 0 0.0112032)
(0 0 0.0111815)
(0 0 0.0111577)
(0 0 0.0111317)
(0 0 0.0111035)
(0 0 0.0110733)
(0 0 0.0110409)
(0 0 0.0110065)
(0 0 0.0109701)
(0 0 0.0109318)
(0 0 0.0108914)
(0 0 0.0108491)
(0 0 0.010805)
(0 0 0.0107589)
(0 0 0.0107111)
(0 0 0.0106614)
(0 0 0.01061)
(0 0 0.0105569)
(0 0 0.010502)
(0 0 0.0104455)
(0 0 0.0103874)
(0 0 0.0103277)
(0 0 0.0102664)
(0 0 0.0102036)
(0 0 0.0101394)
(0 0 0.0100736)
(0 0 0.0100065)
(0 0 0.00993796)
(0 0 0.00986808)
(0 0 0.00979688)
(0 0 0.00972441)
(0 0 0.00965068)
(0 0 0.00957575)
(0 0 0.00949963)
(0 0 0.00942236)
(0 0 0.00934397)
(0 0 0.0092645)
(0 0 0.00918398)
(0 0 0.00910243)
(0 0 0.0090199)
(0 0 0.0089364)
(0 0 0.00885197)
(0 0 0.00876663)
(0 0 0.00868042)
(0 0 0.00859337)
(0 0 0.0085055)
(0 0 0.00841683)
(0 0 0.00832741)
(0 0 0.00823724)
(0 0 0.00814636)
(0 0 0.0080548)
(0 0 0.00796257)
(0 0 0.0078697)
(0 0 0.00777622)
(0 0 0.00768214)
(0 0 0.0075875)
(0 0 0.0074923)
(0 0 0.00739658)
(0 0 0.00730035)
(0 0 0.00720364)
(0 0 0.00710646)
(0 0 0.00700884)
(0 0 0.00691078)
(0 0 0.00681232)
(0 0 0.00671346)
(0 0 0.00661422)
(0 0 0.00651463)
(0 0 0.00641469)
(0 0 0.00631443)
(0 0 0.00621385)
(0 0 0.00611298)
(0 0 0.00601182)
(0 0 0.0059104)
(0 0 0.00580871)
(0 0 0.00570678)
(0 0 0.00560462)
(0 0 0.00550224)
(0 0 0.00539965)
(0 0 0.00529687)
(0 0 0.00519389)
(0 0 0.00509075)
(0 0 0.00498743)
(0 0 0.00488396)
(0 0 0.00478034)
(0 0 0.00467657)
(0 0 0.00457268)
(0 0 0.00446867)
(0 0 0.00436454)
(0 0 0.0042603)
(0 0 0.00415596)
(0 0 0.00405152)
(0 0 0.003947)
(0 0 0.00384239)
(0 0 0.00373771)
(0 0 0.00363296)
(0 0 0.00352814)
(0 0 0.00342325)
(0 0 0.00331832)
(0 0 0.00321333)
(0 0 0.00310829)
(0 0 0.00300321)
(0 0 0.00289808)
(0 0 0.00279292)
(0 0 0.00268773)
(0 0 0.0025825)
(0 0 0.00247725)
(0 0 0.00237197)
(0 0 0.00226667)
(0 0 0.00216134)
(0 0 0.002056)
(0 0 0.00195064)
(0 0 0.00184527)
(0 0 0.00173988)
(0 0 0.00163448)
(0 0 0.00152907)
(0 0 0.00142365)
(0 0 0.00131822)
(0 0 0.00121279)
(0 0 0.00110735)
(0 0 0.0010019)
(0 0 0.000896448)
(0 0 0.000790992)
(0 0 0.000685532)
(0 0 0.00058007)
(0 0 0.000474606)
(0 0 0.00036914)
(0 0 0.000263672)
(0 0 0.000158204)
(0 0 5.27347e-05)
(0 0 8.32655e-05)
(0 0 0.000249795)
(0 0 0.000416322)
(0 0 0.000582842)
(0 0 0.000749354)
(0 0 0.000915854)
(0 0 0.00108234)
(0 0 0.00124881)
(0 0 0.00141526)
(0 0 0.00158169)
(0 0 0.00174808)
(0 0 0.00191445)
(0 0 0.00208078)
(0 0 0.00224707)
(0 0 0.00241332)
(0 0 0.00257951)
(0 0 0.00274565)
(0 0 0.00291172)
(0 0 0.00307771)
(0 0 0.00324363)
(0 0 0.00340946)
(0 0 0.00357519)
(0 0 0.00374082)
(0 0 0.00390632)
(0 0 0.0040717)
(0 0 0.00423694)
(0 0 0.00440202)
(0 0 0.00456693)
(0 0 0.00473166)
(0 0 0.00489619)
(0 0 0.00506051)
(0 0 0.0052246)
(0 0 0.00538843)
(0 0 0.005552)
(0 0 0.00571528)
(0 0 0.00587825)
(0 0 0.00604088)
(0 0 0.00620316)
(0 0 0.00636506)
(0 0 0.00652655)
(0 0 0.00668762)
(0 0 0.00684822)
(0 0 0.00700833)
(0 0 0.00716792)
(0 0 0.00732697)
(0 0 0.00748543)
(0 0 0.00764328)
(0 0 0.00780048)
(0 0 0.00795699)
(0 0 0.00811279)
(0 0 0.00826782)
(0 0 0.00842206)
(0 0 0.00857547)
(0 0 0.00872799)
(0 0 0.0088796)
(0 0 0.00903025)
(0 0 0.00917989)
(0 0 0.00932848)
(0 0 0.00947598)
(0 0 0.00962233)
(0 0 0.0097675)
(0 0 0.00991143)
(0 0 0.0100541)
(0 0 0.0101954)
(0 0 0.0103353)
(0 0 0.0104738)
(0 0 0.0106108)
(0 0 0.0107463)
(0 0 0.0108802)
(0 0 0.0110124)
(0 0 0.0111429)
(0 0 0.0112717)
(0 0 0.0113987)
(0 0 0.0115239)
(0 0 0.0116471)
(0 0 0.0117684)
(0 0 0.0118877)
(0 0 0.0120049)
(0 0 0.01212)
(0 0 0.0122329)
(0 0 0.0123437)
(0 0 0.0124521)
(0 0 0.0125583)
(0 0 0.0126621)
(0 0 0.0127634)
(0 0 0.0128623)
(0 0 0.0129588)
(0 0 0.0130526)
(0 0 0.0131439)
(0 0 0.0132325)
(0 0 0.0133185)
(0 0 0.0134017)
(0 0 0.0134822)
(0 0 0.01356)
(0 0 0.0136348)
(0 0 0.0137069)
(0 0 0.013776)
(0 0 0.0138422)
(0 0 0.0139055)
(0 0 0.0139658)
(0 0 0.0140232)
(0 0 0.0140775)
(0 0 0.0141287)
(0 0 0.0141769)
(0 0 0.0142221)
(0 0 0.0142641)
(0 0 0.0143031)
(0 0 0.014339)
(0 0 0.0143717)
(0 0 0.0144013)
(0 0 0.0144278)
(0 0 0.0144512)
(0 0 0.0144715)
(0 0 0.0144886)
(0 0 0.0145027)
(0 0 0.0145136)
(0 0 0.0145214)
(0 0 0.0145262)
(0 0 0.0145279)
(0 0 0.0145265)
(0 0 0.0145221)
(0 0 0.0145147)
(0 0 0.0145042)
(0 0 0.0144908)
(0 0 0.0144744)
(0 0 0.0144552)
(0 0 0.014433)
(0 0 0.0144079)
(0 0 0.01438)
(0 0 0.0143493)
(0 0 0.0143158)
(0 0 0.0142796)
(0 0 0.0142406)
(0 0 0.014199)
(0 0 0.0141547)
(0 0 0.0141079)
(0 0 0.0140585)
(0 0 0.0140066)
(0 0 0.0139521)
(0 0 0.0138953)
(0 0 0.0138361)
(0 0 0.0137745)
(0 0 0.0137106)
(0 0 0.0136444)
(0 0 0.013576)
(0 0 0.0135055)
(0 0 0.0134328)
(0 0 0.013358)
(0 0 0.0132811)
(0 0 0.0132023)
(0 0 0.0131215)
(0 0 0.0130388)
(0 0 0.0129542)
(0 0 0.0128679)
(0 0 0.0127797)
(0 0 0.0126898)
(0 0 0.0125982)
(0 0 0.0125049)
(0 0 0.0124101)
(0 0 0.0123137)
(0 0 0.0122158)
(0 0 0.0121164)
(0 0 0.0120155)
(0 0 0.0119133)
(0 0 0.0118097)
(0 0 0.0117048)
(0 0 0.0115987)
(0 0 0.0114913)
(0 0 0.0113826)
(0 0 0.0112729)
(0 0 0.011162)
(0 0 0.01105)
(0 0 0.010937)
(0 0 0.010823)
(0 0 0.0107079)
(0 0 0.010592)
(0 0 0.0104751)
(0 0 0.0103573)
(0 0 0.0102387)
(0 0 0.0101192)
(0 0 0.00999901)
(0 0 0.00987802)
(0 0 0.00975629)
(0 0 0.00963386)
(0 0 0.00951076)
(0 0 0.009387)
(0 0 0.00926263)
(0 0 0.00913765)
(0 0 0.0090121)
(0 0 0.008886)
(0 0 0.00875937)
(0 0 0.00863223)
(0 0 0.00850462)
(0 0 0.00837654)
(0 0 0.00824803)
(0 0 0.00811909)
(0 0 0.00798975)
(0 0 0.00786003)
(0 0 0.00772995)
(0 0 0.00759952)
(0 0 0.00746876)
(0 0 0.00733769)
(0 0 0.00720632)
(0 0 0.00707467)
(0 0 0.00694275)
(0 0 0.00681058)
(0 0 0.00667817)
(0 0 0.00654553)
(0 0 0.00641268)
(0 0 0.00627963)
(0 0 0.00614639)
(0 0 0.00601297)
(0 0 0.00587938)
(0 0 0.00574563)
(0 0 0.00561173)
(0 0 0.0054777)
(0 0 0.00534354)
(0 0 0.00520925)
(0 0 0.00507485)
(0 0 0.00494035)
(0 0 0.00480575)
(0 0 0.00467106)
(0 0 0.00453628)
(0 0 0.00440143)
(0 0 0.0042665)
(0 0 0.0041315)
(0 0 0.00399645)
(0 0 0.00386134)
(0 0 0.00372617)
(0 0 0.00359096)
(0 0 0.0034557)
(0 0 0.00332041)
(0 0 0.00318508)
(0 0 0.00304972)
(0 0 0.00291432)
(0 0 0.0027789)
(0 0 0.00264346)
(0 0 0.002508)
(0 0 0.00237251)
(0 0 0.00223701)
(0 0 0.0021015)
(0 0 0.00196597)
(0 0 0.00183042)
(0 0 0.00169487)
(0 0 0.00155931)
(0 0 0.00142374)
(0 0 0.00128816)
(0 0 0.00115258)
(0 0 0.001017)
(0 0 0.000881404)
(0 0 0.000745809)
(0 0 0.000610211)
(0 0 0.000474611)
(0 0 0.000339009)
(0 0 0.000203406)
(0 0 6.78021e-05)
(0 0 0.000101771)
(0 0 0.000305313)
(0 0 0.00050885)
(0 0 0.00071238)
(0 0 0.0009159)
(0 0 0.00111941)
(0 0 0.0013229)
(0 0 0.00152637)
(0 0 0.00172981)
(0 0 0.00193323)
(0 0 0.00213661)
(0 0 0.00233996)
(0 0 0.00254326)
(0 0 0.00274652)
(0 0 0.00294972)
(0 0 0.00315285)
(0 0 0.00335592)
(0 0 0.00355891)
(0 0 0.00376181)
(0 0 0.00396462)
(0 0 0.00416732)
(0 0 0.0043699)
(0 0 0.00457235)
(0 0 0.00477466)
(0 0 0.00497681)
(0 0 0.00517879)
(0 0 0.00538059)
(0 0 0.00558218)
(0 0 0.00578355)
(0 0 0.00598468)
(0 0 0.00618554)
(0 0 0.00638613)
(0 0 0.00658642)
(0 0 0.00678637)
(0 0 0.00698598)
(0 0 0.00718521)
(0 0 0.00738403)
(0 0 0.00758242)
(0 0 0.00778035)
(0 0 0.00797779)
(0 0 0.00817469)
(0 0 0.00837104)
(0 0 0.0085668)
(0 0 0.00876192)
(0 0 0.00895637)
(0 0 0.00915011)
(0 0 0.00934311)
(0 0 0.00953532)
(0 0 0.00972669)
(0 0 0.00991718)
(0 0 0.0101067)
(0 0 0.0102953)
(0 0 0.0104829)
(0 0 0.0106694)
(0 0 0.0108548)
(0 0 0.011039)
(0 0 0.011222)
(0 0 0.0114037)
(0 0 0.0115841)
(0 0 0.0117631)
(0 0 0.0119406)
(0 0 0.0121166)
(0 0 0.012291)
(0 0 0.0124638)
(0 0 0.012635)
(0 0 0.0128043)
(0 0 0.0129719)
(0 0 0.0131376)
(0 0 0.0133013)
(0 0 0.013463)
(0 0 0.0136227)
(0 0 0.0137802)
(0 0 0.0139356)
(0 0 0.0140886)
(0 0 0.0142394)
(0 0 0.0143877)
(0 0 0.0145336)
(0 0 0.014677)
(0 0 0.0148178)
(0 0 0.0149559)
(0 0 0.0150913)
(0 0 0.015224)
(0 0 0.0153538)
(0 0 0.0154808)
(0 0 0.0156048)
(0 0 0.0157257)
(0 0 0.0158437)
(0 0 0.0159585)
(0 0 0.0160701)
(0 0 0.0161785)
(0 0 0.0162837)
(0 0 0.0163855)
(0 0 0.016484)
(0 0 0.016579)
(0 0 0.0166706)
(0 0 0.0167587)
(0 0 0.0168433)
(0 0 0.0169243)
(0 0 0.0170017)
(0 0 0.0170755)
(0 0 0.0171456)
(0 0 0.017212)
(0 0 0.0172747)
(0 0 0.0173336)
(0 0 0.0173888)
(0 0 0.0174402)
(0 0 0.0174879)
(0 0 0.0175317)
(0 0 0.0175718)
(0 0 0.017608)
(0 0 0.0176404)
(0 0 0.017669)
(0 0 0.0176937)
(0 0 0.0177147)
(0 0 0.0177318)
(0 0 0.0177452)
(0 0 0.0177547)
(0 0 0.0177605)
(0 0 0.0177625)
(0 0 0.0177608)
(0 0 0.0177554)
(0 0 0.0177462)
(0 0 0.0177334)
(0 0 0.017717)
(0 0 0.017697)
(0 0 0.0176733)
(0 0 0.0176461)
(0 0 0.0176155)
(0 0 0.0175813)
(0 0 0.0175437)
(0 0 0.0175027)
(0 0 0.0174583)
(0 0 0.0174106)
(0 0 0.0173597)
(0 0 0.0173055)
(0 0 0.0172482)
(0 0 0.0171877)
(0 0 0.0171242)
(0 0 0.0170576)
(0 0 0.016988)
(0 0 0.0169155)
(0 0 0.0168402)
(0 0 0.016762)
(0 0 0.016681)
(0 0 0.0165974)
(0 0 0.016511)
(0 0 0.0164221)
(0 0 0.0163306)
(0 0 0.0162366)
(0 0 0.0161401)
(0 0 0.0160413)
(0 0 0.0159401)
(0 0 0.0158367)
(0 0 0.015731)
(0 0 0.0156232)
(0 0 0.0155132)
(0 0 0.0154011)
(0 0 0.0152871)
(0 0 0.0151711)
(0 0 0.0150532)
(0 0 0.0149334)
(0 0 0.0148118)
(0 0 0.0146885)
(0 0 0.0145635)
(0 0 0.0144368)
(0 0 0.0143085)
(0 0 0.0141787)
(0 0 0.0140473)
(0 0 0.0139145)
(0 0 0.0137803)
(0 0 0.0136447)
(0 0 0.0135077)
(0 0 0.0133695)
(0 0 0.0132301)
(0 0 0.0130894)
(0 0 0.0129476)
(0 0 0.0128047)
(0 0 0.0126607)
(0 0 0.0125156)
(0 0 0.0123696)
(0 0 0.0122226)
(0 0 0.0120746)
(0 0 0.0119258)
(0 0 0.0117761)
(0 0 0.0116256)
(0 0 0.0114743)
(0 0 0.0113222)
(0 0 0.0111694)
(0 0 0.0110159)
(0 0 0.0108617)
(0 0 0.0107069)
(0 0 0.0105515)
(0 0 0.0103955)
(0 0 0.0102389)
(0 0 0.0100818)
(0 0 0.00992415)
(0 0 0.00976604)
(0 0 0.00960745)
(0 0 0.00944843)
(0 0 0.00928898)
(0 0 0.00912913)
(0 0 0.0089689)
(0 0 0.0088083)
(0 0 0.00864737)
(0 0 0.0084861)
(0 0 0.00832453)
(0 0 0.00816267)
(0 0 0.00800053)
(0 0 0.00783813)
(0 0 0.00767549)
(0 0 0.00751262)
(0 0 0.00734952)
(0 0 0.00718623)
(0 0 0.00702274)
(0 0 0.00685907)
(0 0 0.00669523)
(0 0 0.00653124)
(0 0 0.0063671)
(0 0 0.00620282)
(0 0 0.00603841)
(0 0 0.00587388)
(0 0 0.00570924)
(0 0 0.0055445)
(0 0 0.00537967)
(0 0 0.00521475)
(0 0 0.00504974)
(0 0 0.00488466)
(0 0 0.00471952)
(0 0 0.00455431)
(0 0 0.00438904)
(0 0 0.00422372)
(0 0 0.00405835)
(0 0 0.00389294)
(0 0 0.00372749)
(0 0 0.00356201)
(0 0 0.00339649)
(0 0 0.00323094)
(0 0 0.00306537)
(0 0 0.00289977)
(0 0 0.00273416)
(0 0 0.00256852)
(0 0 0.00240287)
(0 0 0.00223721)
(0 0 0.00207153)
(0 0 0.00190584)
(0 0 0.00174014)
(0 0 0.00157444)
(0 0 0.00140872)
(0 0 0.001243)
(0 0 0.00107728)
(0 0 0.00091155)
(0 0 0.000745818)
(0 0 0.000580084)
(0 0 0.000414347)
(0 0 0.000248609)
(0 0 8.28697e-05)
(0 0 0.000120279)
(0 0 0.000360835)
(0 0 0.000601386)
(0 0 0.000841929)
(0 0 0.00108246)
(0 0 0.00132298)
(0 0 0.00156347)
(0 0 0.00180395)
(0 0 0.00204439)
(0 0 0.0022848)
(0 0 0.00252518)
(0 0 0.00276551)
(0 0 0.00300579)
(0 0 0.00324602)
(0 0 0.00348618)
(0 0 0.00372627)
(0 0 0.00396628)
(0 0 0.0042062)
(0 0 0.00444601)
(0 0 0.00468572)
(0 0 0.0049253)
(0 0 0.00516474)
(0 0 0.00540403)
(0 0 0.00564316)
(0 0 0.0058821)
(0 0 0.00612084)
(0 0 0.00635936)
(0 0 0.00659765)
(0 0 0.00683568)
(0 0 0.00707342)
(0 0 0.00731086)
(0 0 0.00754797)
(0 0 0.00778473)
(0 0 0.0080211)
(0 0 0.00825706)
(0 0 0.00849257)
(0 0 0.00872761)
(0 0 0.00896215)
(0 0 0.00919613)
(0 0 0.00942954)
(0 0 0.00966233)
(0 0 0.00989446)
(0 0 0.0101259)
(0 0 0.0103566)
(0 0 0.0105865)
(0 0 0.0108156)
(0 0 0.0110437)
(0 0 0.011271)
(0 0 0.0114973)
(0 0 0.0117225)
(0 0 0.0119466)
(0 0 0.0121696)
(0 0 0.0123914)
(0 0 0.012612)
(0 0 0.0128312)
(0 0 0.013049)
(0 0 0.0132654)
(0 0 0.0134803)
(0 0 0.0136936)
(0 0 0.0139052)
(0 0 0.0141152)
(0 0 0.0143233)
(0 0 0.0145296)
(0 0 0.014734)
(0 0 0.0149364)
(0 0 0.0151367)
(0 0 0.0153349)
(0 0 0.0155308)
(0 0 0.0157245)
(0 0 0.0159158)
(0 0 0.0161046)
(0 0 0.0162909)
(0 0 0.0164746)
(0 0 0.0166557)
(0 0 0.016834)
(0 0 0.0170095)
(0 0 0.017182)
(0 0 0.0173516)
(0 0 0.0175181)
(0 0 0.0176816)
(0 0 0.0178418)
(0 0 0.0179987)
(0 0 0.0181523)
(0 0 0.0183024)
(0 0 0.0184491)
(0 0 0.0185922)
(0 0 0.0187317)
(0 0 0.0188675)
(0 0 0.0189996)
(0 0 0.0191278)
(0 0 0.0192522)
(0 0 0.0193727)
(0 0 0.0194891)
(0 0 0.0196016)
(0 0 0.0197099)
(0 0 0.0198141)
(0 0 0.0199142)
(0 0 0.02001)
(0 0 0.0201015)
(0 0 0.0201887)
(0 0 0.0202717)
(0 0 0.0203502)
(0 0 0.0204243)
(0 0 0.0204941)
(0 0 0.0205593)
(0 0 0.0206201)
(0 0 0.0206765)
(0 0 0.0207283)
(0 0 0.0207756)
(0 0 0.0208184)
(0 0 0.0208567)
(0 0 0.0208905)
(0 0 0.0209198)
(0 0 0.0209445)
(0 0 0.0209648)
(0 0 0.0209805)
(0 0 0.0209918)
(0 0 0.0209985)
(0 0 0.0210009)
(0 0 0.0209988)
(0 0 0.0209923)
(0 0 0.0209815)
(0 0 0.0209663)
(0 0 0.0209468)
(0 0 0.020923)
(0 0 0.020895)
(0 0 0.0208628)
(0 0 0.0208265)
(0 0 0.020786)
(0 0 0.0207415)
(0 0 0.0206929)
(0 0 0.0206404)
(0 0 0.0205839)
(0 0 0.0205236)
(0 0 0.0204595)
(0 0 0.0203916)
(0 0 0.02032)
(0 0 0.0202448)
(0 0 0.020166)
(0 0 0.0200837)
(0 0 0.0199979)
(0 0 0.0199087)
(0 0 0.0198162)
(0 0 0.0197204)
(0 0 0.0196214)
(0 0 0.0195192)
(0 0 0.019414)
(0 0 0.0193057)
(0 0 0.0191945)
(0 0 0.0190804)
(0 0 0.0189634)
(0 0 0.0188437)
(0 0 0.0187213)
(0 0 0.0185963)
(0 0 0.0184687)
(0 0 0.0183386)
(0 0 0.0182061)
(0 0 0.0180712)
(0 0 0.017934)
(0 0 0.0177945)
(0 0 0.0176528)
(0 0 0.017509)
(0 0 0.0173632)
(0 0 0.0172153)
(0 0 0.0170655)
(0 0 0.0169137)
(0 0 0.0167602)
(0 0 0.0166048)
(0 0 0.0164478)
(0 0 0.016289)
(0 0 0.0161286)
(0 0 0.0159667)
(0 0 0.0158033)
(0 0 0.0156384)
(0 0 0.015472)
(0 0 0.0153044)
(0 0 0.0151353)
(0 0 0.0149651)
(0 0 0.0147936)
(0 0 0.0146209)
(0 0 0.0144471)
(0 0 0.0142721)
(0 0 0.0140962)
(0 0 0.0139192)
(0 0 0.0137412)
(0 0 0.0135623)
(0 0 0.0133825)
(0 0 0.0132019)
(0 0 0.0130204)
(0 0 0.0128381)
(0 0 0.0126551)
(0 0 0.0124713)
(0 0 0.0122869)
(0 0 0.0121018)
(0 0 0.011916)
(0 0 0.0117297)
(0 0 0.0115428)
(0 0 0.0113553)
(0 0 0.0111673)
(0 0 0.0109788)
(0 0 0.0107899)
(0 0 0.0106005)
(0 0 0.0104106)
(0 0 0.0102204)
(0 0 0.0100298)
(0 0 0.00983878)
(0 0 0.00964745)