/*--------------------------------*- C++ -*----------------------------------*\
| =========                 |                                                 |
| \\      /  F ield         | OpenFOAM: The Open Source CFD Toolbox           |
|  \\    /   O peration     | Version:  v2012                                 |
|   \\  /    A nd           | Website:  www.openfoam.com                      |
|    \\/     M anipulation  |                                                 |
\*---------------------------------------------------------------------------*/
FoamFile
{
    version     2.0;
    format      ascii;
    class       volScalarField;
    location    "19.7";
    object      Psi_z;
}
// * * * * * * * * * * * * * * * * * * * * * * * * * * * * * * * * * * * * * //

dimensions      [0 2 -1 0 0 0 0];


internalField   nonuniform List<scalar> 
65536
(
7.99552e-06
2.39869e-05
3.99792e-05
5.5973e-05
7.19688e-05
8.79672e-05
0.000103969
0.000119974
0.000135984
0.000151999
0.000168019
0.000184044
0.000200077
0.000216116
0.000232162
0.000248216
0.000264279
0.00028035
0.00029643
0.000312519
0.000328617
0.000344726
0.000360844
0.000376973
0.000393112
0.000409262
0.000425422
0.000441593
0.000457774
0.000473966
0.000490169
0.000506382
0.000522604
0.000538837
0.000555079
0.00057133
0.00058759
0.000603857
0.000620132
0.000636414
0.000652702
0.000668995
0.000685292
0.000701592
0.000717895
0.000734199
0.000750502
0.000766804
0.000783103
0.000799397
0.000815685
0.000831966
0.000848236
0.000864494
0.000880739
0.000896968
0.000913178
0.000929367
0.000945533
0.000961673
0.000977784
0.000993864
0.00100991
0.00102591
0.00104188
0.0010578
0.00107367
0.00108949
0.00110525
0.00112095
0.00113659
0.00115216
0.00116766
0.00118307
0.00119841
0.00121365
0.00122881
0.00124386
0.00125882
0.00127366
0.00128839
0.001303
0.00131748
0.00133183
0.00134604
0.00136011
0.00137402
0.00138778
0.00140137
0.00141479
0.00142803
0.00144109
0.00145396
0.00146662
0.00147908
0.00149133
0.00150335
0.00151515
0.00152671
0.00153802
0.00154909
0.0015599
0.00157044
0.00158071
0.0015907
0.0016004
0.00160981
0.00161892
0.00162772
0.0016362
0.00164436
0.0016522
0.00165969
0.00166685
0.00167365
0.00168011
0.0016862
0.00169193
0.00169729
0.00170227
0.00170688
0.0017111
0.00171493
0.00171836
0.0017214
0.00172405
0.00172628
0.00172812
0.00172954
0.00173056
0.00173116
0.00173136
0.00173114
0.0017305
0.00172945
0.00172799
0.00172612
0.00172383
0.00172113
0.00171803
0.00171451
0.0017106
0.00170628
0.00170156
0.00169644
0.00169094
0.00168504
0.00167877
0.00167211
0.00166509
0.00165769
0.00164993
0.00164181
0.00163335
0.00162453
0.00161538
0.0016059
0.00159609
0.00158596
0.00157552
0.00156477
0.00155373
0.0015424
0.00153078
0.00151889
0.00150673
0.00149431
0.00148164
0.00146872
0.00145557
0.00144219
0.00142858
0.00141476
0.00140073
0.0013865
0.00137208
0.00135747
0.00134268
0.00132773
0.00131261
0.00129733
0.0012819
0.00126633
0.00125062
0.00123478
0.00121881
0.00120273
0.00118653
0.00117023
0.00115383
0.00113733
0.00112074
0.00110406
0.00108731
0.00107048
0.00105358
0.00103661
0.00101959
0.0010025
0.000985366
0.000968181
0.000950951
0.00093368
0.000916371
0.000899027
0.000881652
0.000864249
0.00084682
0.000829369
0.000811897
0.000794409
0.000776905
0.000759388
0.000741861
0.000724325
0.000706781
0.000689233
0.000671681
0.000654127
0.000636572
0.000619017
0.000601464
0.000583914
0.000566368
0.000548826
0.00053129
0.00051376
0.000496236
0.00047872
0.000461212
0.000443711
0.000426219
0.000408735
0.00039126
0.000373794
0.000356337
0.000338888
0.000321448
0.000304017
0.000286594
0.00026918
0.000251773
0.000234374
0.000216982
0.000199597
0.000182218
0.000164845
0.000147478
0.000130116
0.000112758
9.54039e-05
7.80532e-05
6.07052e-05
4.33593e-05
2.6015e-05
8.67156e-06
2.39864e-05
7.19601e-05
0.000119936
0.000167917
0.000215904
0.000263899
0.000311903
0.000359919
0.000407948
0.000455991
0.000504051
0.000552128
0.000600224
0.000648341
0.00069648
0.000744642
0.000792829
0.000841042
0.000889281
0.000937548
0.000985844
0.00103417
0.00108252
0.00113091
0.00117933
0.00122778
0.00127626
0.00132477
0.00137331
0.00142189
0.0014705
0.00151914
0.00156781
0.0016165
0.00166523
0.00171398
0.00176276
0.00181157
0.00186039
0.00190924
0.0019581
0.00200698
0.00205588
0.00210478
0.00215369
0.0022026
0.00225151
0.00230042
0.00234932
0.0023982
0.00244707
0.00249591
0.00254472
0.0025935
0.00264224
0.00269093
0.00273956
0.00278813
0.00283663
0.00288505
0.00293339
0.00298163
0.00302977
0.00307779
0.00312569
0.00317345
0.00322107
0.00326853
0.00331582
0.00336293
0.00340985
0.00345656
0.00350305
0.00354931
0.00359532
0.00364106
0.00368653
0.0037317
0.00377657
0.0038211
0.0038653
0.00390913
0.00395258
0.00399563
0.00403827
0.00408048
0.00412223
0.0041635
0.00420429
0.00424456
0.00428429
0.00432347
0.00436207
0.00440008
0.00443746
0.0044742
0.00451028
0.00454568
0.00458037
0.00461432
0.00464753
0.00467996
0.0047116
0.00474242
0.00477239
0.00480151
0.00482974
0.00485707
0.00488348
0.00490893
0.00493342
0.00495693
0.00497942
0.00500089
0.00502132
0.00504069
0.00505898
0.00507617
0.00509225
0.00510721
0.00512102
0.00513368
0.00514518
0.00515549
0.00516462
0.00517254
0.00517926
0.00518476
0.00518904
0.00519209
0.00519391
0.00519449
0.00519383
0.00519193
0.00518878
0.00518439
0.00517877
0.00517191
0.00516381
0.00515449
0.00514395
0.00513219
0.00511923
0.00510507
0.00508972
0.0050732
0.00505552
0.00503669
0.00501672
0.00499563
0.00497343
0.00495015
0.00492579
0.00490038
0.00487394
0.00484648
0.00481802
0.00478858
0.00475819
0.00472686
0.00469462
0.00466148
0.00462747
0.00459262
0.00455694
0.00452046
0.00448319
0.00444517
0.00440641
0.00436694
0.00432678
0.00428595
0.00424448
0.00420238
0.00415969
0.00411642
0.00407259
0.00402822
0.00398335
0.00393798
0.00389214
0.00384584
0.00379912
0.00375198
0.00370446
0.00365656
0.0036083
0.0035597
0.00351079
0.00346157
0.00341207
0.00336229
0.00331226
0.00326199
0.0032115
0.0031608
0.0031099
0.00305881
0.00300756
0.00295615
0.00290459
0.00285289
0.00280108
0.00274915
0.00269711
0.00264498
0.00259277
0.00254048
0.00248812
0.00243571
0.00238324
0.00233073
0.00227817
0.00222559
0.00217298
0.00212035
0.0020677
0.00201504
0.00196238
0.00190971
0.00185705
0.00180439
0.00175174
0.0016991
0.00164647
0.00159386
0.00154127
0.0014887
0.00143615
0.00138363
0.00133112
0.00127865
0.0012262
0.00117377
0.00112137
0.001069
0.00101665
0.000964336
0.000912042
0.000859774
0.000807531
0.000755311
0.000703114
0.000650939
0.000598784
0.000546648
0.00049453
0.000442429
0.000390343
0.00033827
0.000286208
0.000234157
0.000182113
0.000130076
7.8044e-05
2.60144e-05
3.99763e-05
0.000119931
0.000199889
0.000279855
0.000359832
0.000439821
0.000519827
0.000599851
0.000679897
0.000759968
0.000840065
0.000920192
0.00100035
0.00108054
0.00116077
0.00124104
0.00132135
0.00140171
0.0014821
0.00156255
0.00164304
0.00172358
0.00180417
0.00188482
0.00196551
0.00204626
0.00212706
0.00220792
0.00228882
0.00236978
0.0024508
0.00253186
0.00261298
0.00269414
0.00277535
0.00285661
0.00293791
0.00301925
0.00310063
0.00318205
0.00326349
0.00334496
0.00342645
0.00350796
0.00358948
0.003671
0.00375253
0.00383404
0.00391554
0.00399702
0.00407847
0.00415988
0.00424125
0.00432255
0.00440378
0.00448494
0.004566
0.00464696
0.00472781
0.00480852
0.00488909
0.0049695
0.00504974
0.00512979
0.00520963
0.00528925
0.00536862
0.00544774
0.00552657
0.0056051
0.00568331
0.00576118
0.00583868
0.00591579
0.00599249
0.00606875
0.00614455
0.00621985
0.00629464
0.00636889
0.00644256
0.00651563
0.00658807
0.00665985
0.00673094
0.0068013
0.00687091
0.00693972
0.00700772
0.00707486
0.0071411
0.00720642
0.00727078
0.00733415
0.00739648
0.00745774
0.0075179
0.00757692
0.00763475
0.00769137
0.00774674
0.00780082
0.00785357
0.00790496
0.00795495
0.0080035
0.00805058
0.00809615
0.00814018
0.00818263
0.00822347
0.00826266
0.00830018
0.00833598
0.00837005
0.00840235
0.00843285
0.00846152
0.00848834
0.00851328
0.00853632
0.00855744
0.00857661
0.00859381
0.00860903
0.00862225
0.00863346
0.00864263
0.00864977
0.00865486
0.00865789
0.00865886
0.00865776
0.00865459
0.00864935
0.00864204
0.00863266
0.00862122
0.00860772
0.00859218
0.0085746
0.00855499
0.00853338
0.00850977
0.00848418
0.00845663
0.00842714
0.00839574
0.00836244
0.00832728
0.00829027
0.00825144
0.00821083
0.00816846
0.00812436
0.00807857
0.00803111
0.00798203
0.00793135
0.00787911
0.00782535
0.0077701
0.0077134
0.00765529
0.00759579
0.00753496
0.00747283
0.00740943
0.00734481
0.007279
0.00721204
0.00714397
0.00707482
0.00700464
0.00693346
0.00686131
0.00678824
0.00671427
0.00663946
0.00656382
0.00648739
0.00641022
0.00633232
0.00625374
0.00617451
0.00609465
0.0060142
0.00593319
0.00585165
0.0057696
0.00568708
0.0056041
0.0055207
0.00543691
0.00535274
0.00526821
0.00518337
0.00509821
0.00501277
0.00492707
0.00484113
0.00475496
0.00466859
0.00458202
0.00449529
0.0044084
0.00432137
0.00423421
0.00414694
0.00405957
0.00397212
0.00388459
0.00379699
0.00370935
0.00362166
0.00353393
0.00344618
0.00335841
0.00327063
0.00318285
0.00309507
0.00300731
0.00291955
0.00283182
0.0027441
0.00265642
0.00256876
0.00248114
0.00239356
0.00230602
0.00221851
0.00213105
0.00204363
0.00195625
0.00186892
0.00178164
0.0016944
0.0016072
0.00152004
0.00143293
0.00134586
0.00125883
0.00117183
0.00108487
0.000997951
0.00091106
0.000824199
0.000737365
0.000650556
0.00056377
0.000477003
0.000390252
0.000303515
0.000216789
0.00013007
4.33562e-05
5.59648e-05
0.000167897
0.000279835
0.000391783
0.000503746
0.000615727
0.000727731
0.000839761
0.000951822
0.00106392
0.00117605
0.00128822
0.00140044
0.00151271
0.00162503
0.0017374
0.00184983
0.00196233
0.00207488
0.0021875
0.00230019
0.00241294
0.00252577
0.00263867
0.00275164
0.00286469
0.00297781
0.00309101
0.00320428
0.00331762
0.00343104
0.00354454
0.0036581
0.00377173
0.00388543
0.0039992
0.00411302
0.0042269
0.00434084
0.00445482
0.00456885
0.00468291
0.00479701
0.00491112
0.00502526
0.0051394
0.00525355
0.00536768
0.00548179
0.00559588
0.00570992
0.00582391
0.00593783
0.00605166
0.00616541
0.00627904
0.00639255
0.00650591
0.00661911
0.00673213
0.00684495
0.00695755
0.0070699
0.00718199
0.00729379
0.00740528
0.00751644
0.00762722
0.00773762
0.00784759
0.00795712
0.00806616
0.0081747
0.00828269
0.0083901
0.0084969
0.00860305
0.00870852
0.00881326
0.00891724
0.00902043
0.00912277
0.00922423
0.00932476
0.00942433
0.00952288
0.00962037
0.00971676
0.009812
0.00990604
0.00999884
0.0100903
0.0101805
0.0102693
0.0103566
0.0104424
0.0105267
0.0106093
0.0106904
0.0107697
0.0108472
0.010923
0.0109969
0.0110689
0.0111389
0.011207
0.0112729
0.0113368
0.0113985
0.0114579
0.0115152
0.0115701
0.0116226
0.0116728
0.0117205
0.0117658
0.0118085
0.0118487
0.0118863
0.0119213
0.0119535
0.0119831
0.01201
0.0120341
0.0120554
0.012074
0.0120897
0.0121025
0.0121125
0.0121197
0.0121239
0.0121253
0.0121238
0.0121193
0.012112
0.0121017
0.0120886
0.0120726
0.0120537
0.0120319
0.0120073
0.0119798
0.0119495
0.0119164
0.0118806
0.011842
0.0118007
0.0117567
0.01171
0.0116608
0.0116089
0.0115545
0.0114976
0.0114383
0.0113765
0.0113123
0.0112458
0.0111771
0.0111061
0.0110329
0.0109576
0.0108802
0.0108007
0.0107193
0.010636
0.0105508
0.0104637
0.0103749
0.0102844
0.0101922
0.0100984
0.0100031
0.0099062
0.00980789
0.00970819
0.00960713
0.00950478
0.00940118
0.00929639
0.00919045
0.00908341
0.00897531
0.00886621
0.00875616
0.00864519
0.00853334
0.00842067
0.00830722
0.00819302
0.00807811
0.00796254
0.00784634
0.00772954
0.00761219
0.00749432
0.00737596
0.00725714
0.00713789
0.00701825
0.00689824
0.0067779
0.00665723
0.00653629
0.00641507
0.00629362
0.00617195
0.00605009
0.00592805
0.00580586
0.00568352
0.00556107
0.00543851
0.00531587
0.00519315
0.00507037
0.00494754
0.00482468
0.00470179
0.00457889
0.00445599
0.00433309
0.00421021
0.00408734
0.00396451
0.00384171
0.00371894
0.00359622
0.00347355
0.00335093
0.00322837
0.00310586
0.00298341
0.00286102
0.0027387
0.00261643
0.00249423
0.00237209
0.00225002
0.002128
0.00200604
0.00188415
0.0017623
0.00164051
0.00151878
0.00139709
0.00127544
0.00115384
0.00103228
0.000910748
0.00078925
0.00066778
0.000546334
0.000424906
0.000303494
0.000182092
6.06966e-05
7.19512e-05
0.000215856
0.000359769
0.000503696
0.000647641
0.00079161
0.000935608
0.00107964
0.00122371
0.00136783
0.00151199
0.00165621
0.00180049
0.00194482
0.00208923
0.00223371
0.00237825
0.00252288
0.00266759
0.00281238
0.00295726
0.00310223
0.00324729
0.00339245
0.0035377
0.00368304
0.00382848
0.00397402
0.00411966
0.00426539
0.00441122
0.00455714
0.00470315
0.00484925
0.00499544
0.00514172
0.00528807
0.0054345
0.00558099
0.00572755
0.00587417
0.00602083
0.00616754
0.00631427
0.00646103
0.0066078
0.00675457
0.00690133
0.00704807
0.00719477
0.00734142
0.00748799
0.00763448
0.00778087
0.00792714
0.00807327
0.00821923
0.00836502
0.00851059
0.00865594
0.00880102
0.00894583
0.00909033
0.00923448
0.00937827
0.00952166
0.00966461
0.0098071
0.00994908
0.0100905
0.0102314
0.0103717
0.0105113
0.0106502
0.0107883
0.0109257
0.0110622
0.0111979
0.0113326
0.0114664
0.0115991
0.0117308
0.0118613
0.0119906
0.0121187
0.0122455
0.0123709
0.012495
0.0126175
0.0127385
0.0128579
0.0129756
0.0130916
0.0132058
0.0133181
0.0134286
0.013537
0.0136434
0.0137477
0.0138497
0.0139496
0.014047
0.0141422
0.0142348
0.0143249
0.0144125
0.0144974
0.0145796
0.0146589
0.0147355
0.0148091
0.0148798
0.0149475
0.0150121
0.0150735
0.0151318
0.0151868
0.0152385
0.0152869
0.0153319
0.0153735
0.0154116
0.0154461
0.0154772
0.0155047
0.0155285
0.0155487
0.0155653
0.0155782
0.0155874
0.0155929
0.0155946
0.0155927
0.015587
0.0155775
0.0155643
0.0155474
0.0155268
0.0155025
0.0154745
0.0154428
0.0154074
0.0153685
0.0153259
0.0152798
0.0152301
0.0151769
0.0151203
0.0150602
0.0149968
0.0149301
0.0148601
0.0147869
0.0147105
0.014631
0.0145484
0.0144628
0.0143744
0.014283
0.0141888
0.0140919
0.0139923
0.0138901
0.0137853
0.0136781
0.0135684
0.0134564
0.0133421
0.0132256
0.013107
0.0129863
0.0128637
0.012739
0.0126125
0.0124843
0.0123542
0.0122226
0.0120893
0.0119545
0.0118182
0.0116805
0.0115414
0.0114011
0.0112595
0.0111167
0.0109729
0.0108279
0.010682
0.0105351
0.0103873
0.0102386
0.0100892
0.00993894
0.009788
0.00963639
0.00948416
0.00933134
0.00917797
0.0090241
0.00886975
0.00871498
0.0085598
0.00840425
0.00824836
0.00809217
0.00793571
0.00777899
0.00762205
0.00746491
0.00730759
0.00715012
0.00699252
0.00683481
0.00667701
0.00651912
0.00636118
0.0062032
0.00604519
0.00588716
0.00572912
0.0055711
0.00541309
0.00525511
0.00509717
0.00493927
0.00478142
0.00462363
0.00446591
0.00430825
0.00415066
0.00399314
0.00383571
0.00367835
0.00352107
0.00336388
0.00320676
0.00304973
0.00289277
0.0027359
0.0025791
0.00242238
0.00226573
0.00210915
0.00195263
0.00179618
0.00163978
0.00148344
0.00132715
0.00117091
0.0010147
0.000858535
0.000702396
0.000546282
0.000390188
0.000234107
7.80347e-05
8.79349e-05
0.000263808
0.000439691
0.00061559
0.000791512
0.000967464
0.00114345
0.00131948
0.00149556
0.00167169
0.00184788
0.00202414
0.00220047
0.00237687
0.00255336
0.00272993
0.0029066
0.00308336
0.00326022
0.00343718
0.00361425
0.00379143
0.00396872
0.00414613
0.00432365
0.0045013
0.00467906
0.00485694
0.00503494
0.00521306
0.00539129
0.00556965
0.00574811
0.00592669
0.00610537
0.00628416
0.00646304
0.00664202
0.00682108
0.00700023
0.00717944
0.00735871
0.00753803
0.0077174
0.00789679
0.0080762
0.00825561
0.00843501
0.00861438
0.00879371
0.00897298
0.00915216
0.00933124
0.0095102
0.00968901
0.00986766
0.0100461
0.0102243
0.0104023
0.01058
0.0107574
0.0109344
0.0111111
0.0112873
0.0114631
0.0116385
0.0118133
0.0119875
0.0121611
0.012334
0.0125063
0.0126778
0.0128485
0.0130184
0.0131873
0.0133553
0.0135223
0.0136882
0.013853
0.0140166
0.0141789
0.0143399
0.0144996
0.0146578
0.0148144
0.0149695
0.0151229
0.0152746
0.0154245
0.0155725
0.0157186
0.0158626
0.0160045
0.0161442
0.0162817
0.0164168
0.0165494
0.0166796
0.0168071
0.016932
0.0170542
0.0171735
0.0172899
0.0174032
0.0175135
0.0176207
0.0177245
0.0178251
0.0179223
0.018016
0.0181061
0.0181926
0.0182754
0.0183545
0.0184297
0.018501
0.0185683
0.0186316
0.0186909
0.018746
0.0187968
0.0188435
0.0188858
0.0189238
0.0189575
0.0189867
0.0190115
0.0190317
0.0190475
0.0190588
0.0190655
0.0190677
0.0190653
0.0190583
0.0190468
0.0190307
0.01901
0.0189848
0.018955
0.0189207
0.0188819
0.0188387
0.018791
0.0187389
0.0186824
0.0186217
0.0185566
0.0184873
0.0184138
0.0183362
0.0182546
0.0181689
0.0180793
0.0179858
0.0178885
0.0177875
0.0176828
0.0175745
0.0174627
0.0173475
0.0172289
0.017107
0.0169819
0.0168537
0.0167225
0.0165884
0.0164513
0.0163115
0.016169
0.0160239
0.0158763
0.0157262
0.0155737
0.015419
0.0152621
0.015103
0.014942
0.0147789
0.014614
0.0144473
0.0142789
0.0141088
0.0139371
0.013764
0.0135894
0.0134134
0.0132362
0.0130577
0.0128781
0.0126973
0.0125155
0.0123328
0.0121491
0.0119645
0.0117791
0.0115929
0.0114061
0.0112186
0.0110304
0.0108417
0.0106525
0.0104627
0.0102725
0.010082
0.009891
0.00969971
0.00950811
0.00931625
0.00912414
0.00893182
0.00873931
0.00854665
0.00835385
0.00816094
0.00796794
0.00777487
0.00758175
0.00738859
0.00719542
0.00700225
0.00680908
0.00661595
0.00642284
0.00622979
0.00603678
0.00584385
0.00565098
0.00545819
0.00526549
0.00507288
0.00488035
0.00468793
0.0044956
0.00430337
0.00411124
0.00391921
0.00372728
0.00353545
0.00334372
0.00315208
0.00296054
0.00276908
0.00257771
0.00238642
0.00219521
0.00200407
0.001813
0.00162198
0.00143103
0.00124012
0.00104926
0.000858434
0.000667639
0.000476868
0.000286114
9.53701e-05
0.000103915
0.00031175
0.000519596
0.000727461
0.000935354
0.00114328
0.00135125
0.00155927
0.00176735
0.00197549
0.0021837
0.00239199
0.00260037
0.00280884
0.0030174
0.00322607
0.00343484
0.00364373
0.00385274
0.00406187
0.00427113
0.00448052
0.00469004
0.0048997
0.00510949
0.00531943
0.00552951
0.00573974
0.0059501
0.00616061
0.00637125
0.00658204
0.00679296
0.00700402
0.0072152
0.0074265
0.00763793
0.00784946
0.0080611
0.00827283
0.00848464
0.00869653
0.00890849
0.00912049
0.00933253
0.00954459
0.00975666
0.00996872
0.0101807
0.0103927
0.0106046
0.0108164
0.0110281
0.0112397
0.0114511
0.0116622
0.0118732
0.0120839
0.0122943
0.0125044
0.0127141
0.0129234
0.0131323
0.0133406
0.0135485
0.0137558
0.0139625
0.0141685
0.0143737
0.0145783
0.0147819
0.0149847
0.0151866
0.0153875
0.0155873
0.0157859
0.0159834
0.0161796
0.0163745
0.016568
0.01676
0.0169505
0.0171393
0.0173264
0.0175117
0.0176952
0.0178766
0.0180561
0.0182334
0.0184085
0.0185813
0.0187517
0.0189196
0.0190849
0.0192475
0.0194074
0.0195643
0.0197184
0.0198693
0.0200171
0.0201616
0.0203028
0.0204405
0.0205747
0.0207053
0.0208321
0.020955
0.0210741
0.0211891
0.0213
0.0214067
0.0215091
0.0216071
0.0217007
0.0217898
0.0218742
0.0219539
0.0220289
0.022099
0.0221642
0.0222245
0.0222797
0.0223299
0.0223749
0.0224147
0.0224493
0.0224786
0.0225027
0.0225214
0.0225348
0.0225427
0.0225453
0.0225425
0.0225343
0.0225206
0.0225016
0.0224771
0.0224473
0.022412
0.0223715
0.0223256
0.0222744
0.0222179
0.0221563
0.0220895
0.0220175
0.0219405
0.0218585
0.0217715
0.0216797
0.021583
0.0214816
0.0213756
0.0212649
0.0211498
0.0210302
0.0209063
0.0207782
0.0206459
0.0205095
0.0203691
0.0202249
0.0200769
0.0199252
0.01977
0.0196112
0.0194491
0.0192836
0.019115
0.0189433
0.0187686
0.0185911
0.0184107
0.0182276
0.018042
0.0178539
0.0176633
0.0174704
0.0172754
0.0170782
0.0168789
0.0166778
0.0164747
0.0162699
0.0160634
0.0158553
0.0156457
0.0154346
0.0152221
0.0150084
0.0147934
0.0145773
0.01436
0.0141418
0.0139226
0.0137024
0.0134815
0.0132598
0.0130373
0.0128142
0.0125904
0.0123661
0.0121413
0.0119159
0.0116902
0.011464
0.0112375
0.0110107
0.0107836
0.0105562
0.0103287
0.0101009
0.009873
0.00964497
0.00941683
0.00918861
0.00896033
0.00873202
0.00850369
0.00827536
0.00804705
0.00781876
0.00759053
0.00736235
0.00713423
0.0069062
0.00667825
0.0064504
0.00622265
0.005995
0.00576747
0.00554005
0.00531275
0.00508557
0.0048585
0.00463156
0.00440474
0.00417804
0.00395145
0.00372497
0.00349861
0.00327235
0.0030462
0.00282014
0.00259417
0.00236829
0.00214249
0.00191676
0.0016911
0.0014655
0.00123995
0.00101444
0.000788971
0.000563531
0.00033811
0.000112702
0.000119892
0.00035968
0.000599481
0.000839305
0.00107916
0.00131906
0.001559
0.00179901
0.00203908
0.00227922
0.00251945
0.00275977
0.00300018
0.0032407
0.00348134
0.00372209
0.00396297
0.00420399
0.00444514
0.00468643
0.00492787
0.00516947
0.00541121
0.00565312
0.00589519
0.00613743
0.00637982
0.00662239
0.00686512
0.00710801
0.00735107
0.0075943
0.00783768
0.00808121
0.0083249
0.00856873
0.00881269
0.00905679
0.00930101
0.00954534
0.00978977
0.0100343
0.0102789
0.0105235
0.0107682
0.011013
0.0112577
0.0115024
0.0117471
0.0119918
0.0122364
0.0124808
0.0127251
0.0129693
0.0132133
0.013457
0.0137005
0.0139437
0.0141866
0.0144291
0.0146712
0.0149128
0.0151539
0.0153945
0.0156344
0.0158737
0.0161123
0.0163502
0.0165872
0.0168233
0.0170585
0.0172926
0.0175257
0.0177576
0.0179884
0.0182178
0.0184458
0.0186724
0.0188975
0.0191209
0.0193427
0.0195626
0.0197807
0.0199968
0.0202109
0.0204228
0.0206324
0.0208397
0.0210445
0.0212468
0.0214464
0.0216432
0.0218372
0.0220282
0.0222161
0.0224008
0.0225822
0.0227602
0.0229346
0.0231054
0.0232725
0.0234356
0.0235948
0.0237499
0.0239008
0.0240473
0.0241894
0.024327
0.02446
0.0245882
0.0247115
0.0248299
0.0249433
0.0250515
0.0251544
0.025252
0.0253442
0.0254309
0.025512
0.0255874
0.0256571
0.025721
0.025779
0.0258311
0.0258772
0.0259172
0.0259511
0.025979
0.0260006
0.0260161
0.0260253
0.0260284
0.0260251
0.0260156
0.0259999
0.0259779
0.0259496
0.0259151
0.0258744
0.0258275
0.0257745
0.0257153
0.0256501
0.0255788
0.0255016
0.0254184
0.0253294
0.0252346
0.0251341
0.025028
0.0249162
0.024799
0.0246765
0.0245486
0.0244155
0.0242773
0.0241341
0.023986
0.0238331
0.0236755
0.0235133
0.0233466
0.0231756
0.0230003
0.0228209
0.0226374
0.0224501
0.0222589
0.0220641
0.0218657
0.0216639
0.0214587
0.0212504
0.0210389
0.0208244
0.0206071
0.020387
0.0201642
0.0199388
0.0197111
0.019481
0.0192486
0.0190141
0.0187775
0.0185391
0.0182987
0.0180566
0.0178129
0.0175675
0.0173207
0.0170724
0.0168229
0.016572
0.01632
0.0160669
0.0158128
0.0155577
0.0153017
0.0150449
0.0147873
0.014529
0.01427
0.0140104
0.0137503
0.0134897
0.0132287
0.0129672
0.0127054
0.0124433
0.0121809
0.0119182
0.0116553
0.0113923
0.0111291
0.0108658
0.0106024
0.010339
0.0100755
0.00981196
0.00954846
0.00928498
0.00902154
0.00875815
0.00849484
0.00823161
0.00796847
0.00770543
0.0074425
0.0071797
0.00691702
0.00665447
0.00639206
0.00612978
0.00586764
0.00560565
0.00534379
0.00508208
0.0048205
0.00455906
0.00429775
0.00403657
0.00377552
0.00351458
0.00325376
0.00299304
0.00273243
0.00247191
0.00221147
0.00195111
0.00169082
0.00143059
0.00117041
0.000910276
0.000650173
0.000390094
0.00013003
0.000135864
0.000407596
0.000679344
0.000951117
0.00122293
0.00149478
0.0017667
0.00203867
0.00231073
0.00258287
0.0028551
0.00312744
0.00339989
0.00367246
0.00394516
0.00421799
0.00449097
0.0047641
0.00503739
0.00531084
0.00558446
0.00585826
0.00613223
0.00640639
0.00668072
0.00695525
0.00722997
0.00750487
0.00777997
0.00805526
0.00833073
0.00860639
0.00888223
0.00915826
0.00943445
0.00971081
0.00998733
0.010264
0.0105408
0.0108178
0.0110948
0.011372
0.0116492
0.0119266
0.0122039
0.0124814
0.0127588
0.0130362
0.0133136
0.0135909
0.0138682
0.0141453
0.0144223
0.0146991
0.0149758
0.0152521
0.0155282
0.0158039
0.0160793
0.0163542
0.0166287
0.0169027
0.0171761
0.0174489
0.017721
0.0179924
0.018263
0.0185327
0.0188015
0.0190693
0.019336
0.0196016
0.019866
0.020129
0.0203907
0.020651
0.0209097
0.0211667
0.021422
0.0216755
0.0219271
0.0221766
0.0224241
0.0226693
0.0229122
0.0231526
0.0233905
0.0236257
0.0238582
0.0240877
0.0243143
0.0245377
0.0247579
0.0249746
0.0251879
0.0253976
0.0256035
0.0258056
0.0260036
0.0261975
0.0263871
0.0265724
0.0267531
0.0269292
0.0271005
0.027267
0.0274284
0.0275846
0.0277356
0.0278813
0.0280214
0.0281558
0.0282846
0.0284075
0.0285244
0.0286353
0.0287401
0.0288386
0.0289307
0.0290164
0.0290956
0.0291682
0.0292341
0.0292933
0.0293456
0.0293912
0.0294298
0.0294614
0.029486
0.0295036
0.0295142
0.0295176
0.029514
0.0295032
0.0294854
0.0294604
0.0294283
0.0293892
0.029343
0.0292897
0.0292295
0.0291623
0.0290883
0.0290073
0.0289196
0.0288252
0.0287241
0.0286165
0.0285023
0.0283818
0.0282549
0.0281218
0.0279826
0.0278374
0.0276863
0.0275294
0.0273668
0.0271986
0.027025
0.026846
0.0266619
0.0264727
0.0262785
0.0260795
0.0258758
0.0256676
0.0254549
0.0252379
0.0250168
0.0247916
0.0245625
0.0243296
0.0240931
0.0238531
0.0236097
0.0233631
0.0231133
0.0228605
0.0226048
0.0223463
0.0220852
0.0218216
0.0215555
0.0212871
0.0210165
0.0207439
0.0204692
0.0201927
0.0199144
0.0196344
0.0193528
0.0190697
0.0187852
0.0184994
0.0182123
0.0179241
0.0176348
0.0173445
0.0170532
0.0167611
0.0164682
0.0161745
0.0158802
0.0155852
0.0152897
0.0149937
0.0146973
0.0144004
0.0141032
0.0138057
0.0135079
0.0132099
0.0129117
0.0126133
0.0123149
0.0120163
0.0117176
0.0114189
0.0111202
0.0108215
0.0105229
0.0102243
0.00992571
0.00962725
0.00932888
0.00903063
0.00873249
0.00843449
0.00813662
0.0078389
0.00754134
0.00724392
0.00694667
0.00664958
0.00635265
0.00605588
0.00575928
0.00546283
0.00516654
0.0048704
0.00457441
0.00427857
0.00398286
0.00368728
0.00339182
0.00309648
0.00280124
0.0025061
0.00221105
0.00191608
0.00162118
0.00132634
0.00103155
0.000736792
0.000442064
0.000147353
0.00015183
0.000455497
0.00075918
0.00106289
0.00136665
0.00167045
0.00197432
0.00227826
0.00258229
0.00288642
0.00319065
0.003495
0.00379947
0.00410408
0.00440884
0.00471375
0.00501882
0.00532406
0.00562948
0.00593509
0.00624088
0.00654687
0.00685306
0.00715946
0.00746607
0.00777289
0.00807992
0.00838717
0.00869463
0.00900231
0.0093102
0.0096183
0.00992661
0.0102351
0.0105438
0.0108527
0.0111618
0.0114711
0.0117805
0.01209
0.0123997
0.0127096
0.0130195
0.0133295
0.0136396
0.0139497
0.0142599
0.01457
0.0148801
0.0151902
0.0155001
0.01581
0.0161197
0.0164292
0.0167385
0.0170475
0.0173561
0.0176645
0.0179724
0.0182798
0.0185868
0.0188932
0.0191989
0.019504
0.0198083
0.0201118
0.0204145
0.0207161
0.0210168
0.0213163
0.0216147
0.0219118
0.0222075
0.0225018
0.0227946
0.0230857
0.0233751
0.0236627
0.0239484
0.024232
0.0245135
0.0247928
0.0250697
0.0253441
0.0256159
0.025885
0.0261513
0.0264145
0.0266747
0.0269317
0.0271853
0.0274354
0.0276819
0.0279246
0.0281634
0.0283981
0.0286287
0.0288549
0.0290767
0.0292938
0.0295062
0.0297137
0.0299161
0.0301133
0.0303052
0.0304917
0.0306725
0.0308475
0.0310167
0.0311798
0.0313368
0.0314875
0.0316317
0.0317695
0.0319005
0.0320248
0.0321422
0.0322525
0.0323558
0.0324519
0.0325406
0.032622
0.0326959
0.0327623
0.032821
0.032872
0.0329153
0.0329508
0.0329785
0.0329982
0.0330101
0.033014
0.03301
0.032998
0.032978
0.03295
0.0329141
0.0328703
0.0328186
0.0327589
0.0326915
0.0326163
0.0325333
0.0324426
0.0323444
0.0322386
0.0321254
0.0320048
0.031877
0.0317419
0.0315998
0.0314508
0.0312948
0.0311322
0.0309629
0.0307872
0.030605
0.0304167
0.0302222
0.0300218
0.0298156
0.0296037
0.0293862
0.0291634
0.0289353
0.0287021
0.028464
0.028221
0.0279734
0.0277213
0.0274649
0.0272042
0.0269394
0.0266707
0.0263983
0.0261222
0.0258426
0.0255596
0.0252735
0.0249842
0.024692
0.0243969
0.0240992
0.0237989
0.0234961
0.023191
0.0228837
0.0225743
0.022263
0.0219497
0.0216347
0.021318
0.0209997
0.02068
0.0203589
0.0200365
0.0197129
0.0193882
0.0190624
0.0187357
0.0184081
0.0180797
0.0177505
0.0174207
0.0170903
0.0167593
0.0164278
0.0160958
0.0157635
0.0154309
0.0150979
0.0147647
0.0144313
0.0140977
0.013764
0.0134302
0.0130963
0.0127624
0.0124285
0.0120946
0.0117607
0.0114269
0.0110932
0.0107596
0.0104261
0.0100927
0.00975943
0.00942633
0.0090934
0.00876064
0.00842805
0.00809563
0.0077634
0.00743136
0.00709949
0.00676782
0.00643632
0.00610501
0.00577387
0.00544291
0.00511211
0.00478148
0.004451
0.00412067
0.00379048
0.00346042
0.00313047
0.00280064
0.00247091
0.00214127
0.00181171
0.00148222
0.00115278
0.000823383
0.000494018
0.00016467
0.000167791
0.00050338
0.000838988
0.00117463
0.00151031
0.00184606
0.00218187
0.00251777
0.00285376
0.00318986
0.00352608
0.00386243
0.00419892
0.00453556
0.00487236
0.00520934
0.00554649
0.00588384
0.00622139
0.00655914
0.0068971
0.00723528
0.00757369
0.00791233
0.0082512
0.00859031
0.00892966
0.00926925
0.00960908
0.00994915
0.0102895
0.01063
0.0109708
0.0113118
0.011653
0.0119945
0.0123361
0.012678
0.01302
0.0133622
0.0137046
0.0140471
0.0143897
0.0147324
0.0150752
0.015418
0.0157609
0.0161038
0.0164467
0.0167895
0.0171322
0.0174748
0.0178172
0.0181595
0.0185014
0.0188431
0.0191845
0.0195254
0.0198659
0.020206
0.0205454
0.0208843
0.0212224
0.0215598
0.0218964
0.0222322
0.0225669
0.0229006
0.0232332
0.0235645
0.0238946
0.0242233
0.0245505
0.0248761
0.0252
0.0255222
0.0258424
0.0261607
0.0264768
0.0267907
0.0271022
0.0274113
0.0277178
0.0280215
0.0283224
0.0286202
0.028915
0.0292065
0.0294945
0.029779
0.0300598
0.0303367
0.0306096
0.0308784
0.0311429
0.0314028
0.0316582
0.0319088
0.0321544
0.0323949
0.0326302
0.03286
0.0330843
0.0333028
0.0335154
0.033722
0.0339223
0.0341163
0.0343038
0.0344845
0.0346585
0.0348255
0.0349854
0.0351381
0.0352834
0.0354211
0.0355513
0.0356736
0.0357881
0.0358947
0.0359931
0.0360833
0.0361653
0.0362389
0.036304
0.0363607
0.0364087
0.0364481
0.0364788
0.0365008
0.036514
0.0365183
0.0365139
0.0365006
0.0364785
0.0364476
0.0364079
0.0363593
0.036302
0.036236
0.0361613
0.0360779
0.035986
0.0358855
0.0357767
0.0356595
0.035534
0.0354004
0.0352588
0.0351091
0.0349517
0.0347865
0.0346138
0.0344335
0.034246
0.0340513
0.0338495
0.0336408
0.0334254
0.0332034
0.0329749
0.0327402
0.0324993
0.0322525
0.0319999
0.0317416
0.0314779
0.0312088
0.0309346
0.0306554
0.0303714
0.0300828
0.0297896
0.0294921
0.0291905
0.0288848
0.0285753
0.028262
0.0279452
0.027625
0.0273016
0.026975
0.0266455
0.0263131
0.025978
0.0256404
0.0253003
0.024958
0.0246134
0.0242668
0.0239182
0.0235678
0.0232157
0.022862
0.0225067
0.0221501
0.0217921
0.0214329
0.0210726
0.0207112
0.0203488
0.0199856
0.0196215
0.0192568
0.0188913
0.0185253
0.0181587
0.0177916
0.0174241