/*--------------------------------*- C++ -*----------------------------------*\
| =========                 |                                                 |
| \\      /  F ield         | OpenFOAM: The Open Source CFD Toolbox           |
|  \\    /   O peration     | Version:  v2012                                 |
|   \\  /    A nd           | Website:  www.openfoam.com                      |
|    \\/     M anipulation  |                                                 |
\*---------------------------------------------------------------------------*/
FoamFile
{
    version     2.0;
    format      ascii;
    class       volScalarField;
    location    "2.9";
    object      Psi_z;
}
// * * * * * * * * * * * * * * * * * * * * * * * * * * * * * * * * * * * * * //

dimensions      [0 2 -1 0 0 0 0];


internalField   nonuniform List<scalar> 
65536
(
8.78238e-06
2.63465e-05
4.39091e-05
6.1469e-05
7.90253e-05
9.65769e-05
0.000114123
0.000131662
0.000149192
0.000166714
0.000184226
0.000201726
0.000219213
0.000236687
0.000254145
0.000271587
0.000289011
0.000306416
0.0003238
0.000341162
0.0003585
0.000375814
0.0003931
0.000410358
0.000427586
0.000444782
0.000461944
0.000479071
0.000496159
0.000513208
0.000530216
0.000547179
0.000564096
0.000580965
0.000597782
0.000614547
0.000631256
0.000647906
0.000664495
0.000681021
0.000697481
0.000713871
0.000730189
0.000746431
0.000762596
0.000778679
0.000794677
0.000810588
0.000826408
0.000842133
0.00085776
0.000873285
0.000888706
0.000904018
0.000919218
0.000934302
0.000949266
0.000964107
0.00097882
0.000993402
0.00100785
0.00102216
0.00103632
0.00105034
0.00106421
0.00107792
0.00109147
0.00110486
0.00111808
0.00113114
0.00114401
0.00115671
0.00116922
0.00118155
0.00119369
0.00120563
0.00121737
0.00122892
0.00124025
0.00125138
0.00126229
0.00127298
0.00128346
0.00129371
0.00130373
0.00131352
0.00132308
0.0013324
0.00134149
0.00135033
0.00135892
0.00136727
0.00137536
0.00138321
0.00139079
0.00139812
0.00140519
0.001412
0.00141854
0.00142482
0.00143084
0.00143658
0.00144205
0.00144726
0.00145219
0.00145685
0.00146123
0.00146534
0.00146917
0.00147273
0.00147602
0.00147902
0.00148176
0.00148421
0.00148639
0.0014883
0.00148992
0.00149128
0.00149236
0.00149317
0.0014937
0.00149397
0.00149396
0.00149369
0.00149315
0.00149234
0.00149127
0.00148993
0.00148833
0.00148647
0.00148436
0.00148198
0.00147936
0.00147648
0.00147335
0.00146997
0.00146635
0.00146248
0.00145837
0.00145402
0.00144943
0.00144461
0.00143956
0.00143428
0.00142877
0.00142304
0.00141708
0.00141091
0.00140452
0.00139791
0.00139109
0.00138407
0.00137684
0.0013694
0.00136177
0.00135393
0.00134591
0.00133769
0.00132928
0.00132068
0.0013119
0.00130294
0.0012938
0.00128448
0.00127499
0.00126534
0.00125551
0.00124552
0.00123537
0.00122506
0.0012146
0.00120398
0.00119321
0.00118229
0.00117123
0.00116003
0.00114869
0.00113721
0.00112559
0.00111385
0.00110197
0.00108998
0.00107785
0.00106561
0.00105325
0.00104077
0.00102818
0.00101549
0.00100268
0.000989767
0.000976753
0.000963638
0.000950427
0.000937119
0.00092372
0.000910229
0.000896651
0.000882988
0.000869241
0.000855413
0.000841506
0.000827522
0.000813465
0.000799335
0.000785135
0.000770867
0.000756534
0.000742136
0.000727677
0.000713158
0.000698581
0.000683948
0.000669262
0.000654522
0.000639733
0.000624895
0.000610009
0.000595079
0.000580105
0.000565089
0.000550033
0.000534938
0.000519805
0.000504638
0.000489435
0.0004742
0.000458934
0.000443637
0.000428312
0.000412959
0.000397581
0.000382177
0.00036675
0.0003513
0.000335829
0.000320337
0.000304827
0.000289299
0.000273754
0.000258192
0.000242617
0.000227027
0.000211424
0.00019581
0.000180185
0.000164549
0.000148905
0.000133253
0.000117593
0.000101927
8.62548e-05
7.05784e-05
5.48983e-05
3.92151e-05
2.35299e-05
7.84344e-06
2.63475e-05
7.90408e-05
0.000131729
0.00018441
0.00023708
0.000289736
0.000342374
0.000394992
0.000447585
0.000500152
0.000552687
0.000605188
0.000657652
0.000710073
0.000762449
0.000814776
0.00086705
0.000919265
0.000971419
0.00102351
0.00107552
0.00112747
0.00117933
0.0012311
0.00128279
0.00133438
0.00138587
0.00143725
0.00148851
0.00153966
0.00159069
0.00164158
0.00169233
0.00174294
0.0017934
0.00184369
0.00189382
0.00194378
0.00199355
0.00204313
0.00209251
0.00214168
0.00219064
0.00223937
0.00228786
0.00233612
0.00238412
0.00243185
0.00247931
0.00252649
0.00257338
0.00261996
0.00266622
0.00271216
0.00275777
0.00280302
0.00284792
0.00289244
0.00293659
0.00298034
0.00302368
0.00306661
0.00310911
0.00315116
0.00319277
0.00323391
0.00327457
0.00331474
0.00335442
0.00339358
0.00343221
0.00347031
0.00350785
0.00354484
0.00358126
0.00361709
0.00365232
0.00368695
0.00372096
0.00375434
0.00378707
0.00381916
0.00385059
0.00388134
0.00391142
0.0039408
0.00396948
0.00399745
0.0040247
0.00405122
0.00407701
0.00410205
0.00412634
0.00414987
0.00417263
0.00419462
0.00421583
0.00423626
0.00425589
0.00427473
0.00429277
0.00431
0.00432643
0.00434204
0.00435683
0.00437081
0.00438396
0.00439629
0.00440779
0.00441847
0.00442832
0.00443735
0.00444554
0.00445291
0.00445945
0.00446516
0.00447005
0.00447411
0.00447735
0.00447977
0.00448138
0.00448217
0.00448216
0.00448133
0.0044797
0.00447728
0.00447406
0.00447005
0.00446525
0.00445967
0.00445332
0.0044462
0.00443832
0.00442968
0.00442029
0.00441015
0.00439928
0.00438767
0.00437534
0.00436229
0.00434853
0.00433407
0.00431891
0.00430306
0.00428654
0.00426933
0.00425146
0.00423294
0.00421376
0.00419394
0.00417349
0.00415241
0.00413071
0.00410841
0.0040855
0.004062
0.00403791
0.00401325
0.00398801
0.00396222
0.00393588
0.00390899
0.00388157
0.00385362
0.00382516
0.00379618
0.0037667
0.00373673
0.00370628
0.00367535
0.00364395
0.00361209
0.00357978
0.00354703
0.00351384
0.00348023
0.0034462
0.00341175
0.00337691
0.00334168
0.00330605
0.00327005
0.00323368
0.00319695
0.00315987
0.00312244
0.00308467
0.00304657
0.00300814
0.00296941
0.00293036
0.00289102
0.00285138
0.00281145
0.00277125
0.00273078
0.00269004
0.00264905
0.00260781
0.00256632
0.0025246
0.00248264
0.00244047
0.00239808
0.00235548
0.00231267
0.00226967
0.00222647
0.00218309
0.00213953
0.0020958
0.0020519
0.00200784
0.00196362
0.00191925
0.00187473
0.00183008
0.00178528
0.00174036
0.00169531
0.00165014
0.00160485
0.00155945
0.00151395
0.00146834
0.00142263
0.00137683
0.00133094
0.00128496
0.00123891
0.00119277
0.00114656
0.00110027
0.00105392
0.00100751
0.000961032
0.0009145
0.000867914
0.000821277
0.000774593
0.000727865
0.000681095
0.000634286
0.000587442
0.000540565
0.000493658
0.000446724
0.000399765
0.000352785
0.000305785
0.000258769
0.000211739
0.000164698
0.000117648
7.05911e-05
2.35308e-05
4.39142e-05
0.00013174
0.000219558
0.000307362
0.000395149
0.000482912
0.000570646
0.000658346
0.000746006
0.00083362
0.000921183
0.00100869
0.00109613
0.00118351
0.0012708
0.00135802
0.00144515
0.00153218
0.00161911
0.00170592
0.00179262
0.0018792
0.00196564
0.00205194
0.00213809
0.00222407
0.00230989
0.00239554
0.00248099
0.00256625
0.00265129
0.00273612
0.00282072
0.00290507
0.00298917
0.00307301
0.00315656
0.00323983
0.00332279
0.00340543
0.00348774
0.00356971
0.00365131
0.00373254
0.00381338
0.00389381
0.00397382
0.00405339
0.0041325
0.00421114
0.0042893
0.00436694
0.00444406
0.00452064
0.00459666
0.0046721
0.00474694
0.00482116
0.00489475
0.00496768
0.00503993
0.00511149
0.00518233
0.00525244
0.0053218
0.00539038
0.00545816
0.00552513
0.00559126
0.00565654
0.00572095
0.00578445
0.00584705
0.0059087
0.00596941
0.00602914
0.00608787
0.0061456
0.00620229
0.00625794
0.00631251
0.00636601
0.00641839
0.00646966
0.00651979
0.00656877
0.00661658
0.00666321
0.00670864
0.00675285
0.00679584
0.00683758
0.00687807
0.0069173
0.00695524
0.0069919
0.00702726
0.00706131
0.00709404
0.00712544
0.00715551
0.00718424
0.00721161
0.00723764
0.0072623
0.00728559
0.00730751
0.00732807
0.00734724
0.00736504
0.00738146
0.0073965
0.00741015
0.00742243
0.00743333
0.00744285
0.00745099
0.00745776
0.00746316
0.0074672
0.00746987
0.00747119
0.00747116
0.00746978
0.00746706
0.00746301
0.00745764
0.00745095
0.00744295
0.00743365
0.00742306
0.00741119
0.00739804
0.00738364
0.00736798
0.00735108
0.00733295
0.00731359
0.00729304
0.00727128
0.00724834
0.00722423
0.00719895
0.00717253
0.00714497
0.00711629
0.00708651
0.00705562
0.00702365
0.00699061
0.00695651
0.00692137
0.0068852
0.00684801
0.00680982
0.00677064
0.00673049
0.00668937
0.00664731
0.00660432
0.0065604
0.00651558
0.00646987
0.00642328
0.00637583
0.00632752
0.00627838
0.00622842
0.00617766
0.0061261
0.00607376
0.00602065
0.00596679
0.0059122
0.00585688
0.00580084
0.00574412
0.00568671
0.00562862
0.00556989
0.00551051
0.0054505
0.00538987
0.00532865
0.00526683
0.00520444
0.00514148
0.00507797
0.00501392
0.00494935
0.00488427
0.00481868
0.00475261
0.00468607
0.00461905
0.00455159
0.00448369
0.00441536
0.00434661
0.00427746
0.00420792
0.00413799
0.00406769
0.00399703
0.00392602
0.00385467
0.00378299
0.00371099
0.00363869
0.00356608
0.00349319
0.00342002
0.00334657
0.00327287
0.00319891
0.00312471
0.00305028
0.00297562
0.00290074
0.00282565
0.00275036
0.00267488
0.00259921
0.00252336
0.00244734
0.00237116
0.00229482
0.00221833
0.0021417
0.00206493
0.00198803
0.00191101
0.00183386
0.00175661
0.00167925
0.00160178
0.00152423
0.00144658
0.00136885
0.00129104
0.00121315
0.0011352
0.00105718
0.000979106
0.000900975
0.000822794
0.000744567
0.0006663
0.000587996
0.000509661
0.000431298
0.000352912
0.000274506
0.000196086
0.000117656
3.92194e-05
6.14834e-05
0.000184447
0.000307399
0.000430333
0.000553242
0.000676118
0.000798953
0.00092174
0.00104447
0.00116714
0.00128974
0.00141225
0.00153468
0.00165701
0.00177924
0.00190135
0.00202334
0.00214519
0.0022669
0.00238846
0.00250985
0.00263107
0.00275209
0.00287292
0.00299354
0.00311394
0.0032341
0.00335401
0.00347366
0.00359304
0.00371212
0.00383089
0.00394934
0.00406745
0.00418521
0.0043026
0.0044196
0.00453619
0.00465235
0.00476807
0.00488332
0.0049981
0.00511236
0.0052261
0.0053393
0.00545192
0.00556396
0.00567538
0.00578616
0.00589629
0.00600573
0.00611446
0.00622245
0.00632969
0.00643614
0.00654178
0.00664658
0.00675052
0.00685356
0.00695569
0.00705688
0.00715709
0.0072563
0.00735448
0.0074516
0.00754764
0.00764257
0.00773635
0.00782897
0.00792039
0.00801058
0.00809952
0.00818718
0.00827352
0.00835854
0.00844218
0.00852444
0.00860528
0.00868468
0.00876261
0.00883904
0.00891395
0.00898732
0.00905912
0.00912933
0.00919792
0.00926488
0.00933017
0.00939379
0.00945571
0.00951591
0.00957437
0.00963107
0.00968601
0.00973915
0.00979048
0.00984
0.00988768
0.00993352
0.00997749
0.0100196
0.0100598
0.0100982
0.0101346
0.0101691
0.0102017
0.0102324
0.0102612
0.0102881
0.010313
0.010336
0.010357
0.0103761
0.0103933
0.0104086
0.0104219
0.0104333
0.0104428
0.0104503
0.010456
0.0104597
0.0104616
0.0104615
0.0104596
0.0104558
0.0104501
0.0104425
0.0104332
0.010422
0.0104089
0.0103941
0.0103774
0.010359
0.0103388
0.0103169
0.0102932
0.0102678
0.0102407
0.0102119
0.0101815
0.0101493
0.0101155
0.0100801
0.0100431
0.0100045
0.00996437
0.00992264
0.00987938
0.00983461
0.00978833
0.00974058
0.00969136
0.0096407
0.00958862
0.00953514
0.00948027
0.00942403
0.00936645
0.00930754
0.00924733
0.00918583
0.00912306
0.00905904
0.0089938
0.00892735
0.0088597
0.00879089
0.00872093
0.00864983
0.00857763
0.00850433
0.00842996
0.00835454
0.00827809
0.00820062
0.00812216
0.00804272
0.00796232
0.00788099
0.00779874
0.00771559
0.00763156
0.00754667
0.00746093
0.00737437
0.007287
0.00719884
0.00710991
0.00702023
0.00692981
0.00683868
0.00674684
0.00665432
0.00656114
0.00646731
0.00637284
0.00627776
0.00618209
0.00608582
0.005989
0.00589162
0.0057937
0.00569527
0.00559633
0.0054969
0.005397
0.00529663
0.00519583
0.00509458
0.00499292
0.00489086
0.0047884
0.00468557
0.00458237
0.00447882
0.00437492
0.0042707
0.00416617
0.00406133
0.00395619
0.00385078
0.00374509
0.00363914
0.00353295
0.00342651
0.00331985
0.00321296
0.00310587
0.00299857
0.00289108
0.00278342
0.00267557
0.00256756
0.0024594
0.00235109
0.00224263
0.00213404
0.00202533
0.0019165
0.00180756
0.00169851
0.00158937
0.00148014
0.00137083
0.00126143
0.00115197
0.00104245
0.000932871
0.00082324
0.000713564
0.00060385
0.000494103
0.00038433
0.000274536
0.000164727
5.491e-05
7.90564e-05
0.000237164
0.000395259
0.000553329
0.000711368
0.000869364
0.00102731
0.00118519
0.001343
0.00150073
0.00165837
0.00181591
0.00197333
0.00213063
0.00228779
0.00244481
0.00260167
0.00275835
0.00291485
0.00307116
0.00322725
0.00338312
0.00353875
0.00369412
0.00384923
0.00400405
0.00415856
0.00431276
0.00446662
0.00462012
0.00477325
0.00492598
0.00507831
0.00523019
0.00538163
0.00553258
0.00568304
0.00583297
0.00598236
0.00613117
0.00627939
0.00642699
0.00657394
0.00672022
0.00686579
0.00701063
0.00715472
0.00729801
0.00744049
0.00758212
0.00772287
0.0078627
0.0080016
0.00813952
0.00827643
0.00841229
0.00854708
0.00868077
0.0088133
0.00894466
0.0090748
0.00920369
0.00933129
0.00945757
0.00958249
0.00970602
0.00982812
0.00994875
0.0100679
0.0101855
0.0103015
0.0104159
0.0105286
0.0106397
0.010749
0.0108566
0.0109624
0.0110664
0.0111685
0.0112688
0.0113671
0.0114634
0.0115578
0.0116502
0.0117405
0.0118287
0.0119148
0.0119988
0.0120806
0.0121603
0.0122377
0.0123129
0.0123859
0.0124565
0.0125249
0.0125909
0.0126546
0.0127159
0.0127749
0.0128314
0.0128856
0.0129373
0.0129866
0.0130335
0.0130779
0.0131198
0.0131593
0.0131963
0.0132308
0.0132629
0.0132924
0.0133195
0.0133441
0.0133662
0.0133858
0.0134029
0.0134176
0.0134297
0.0134394
0.0134467
0.0134515
0.0134538
0.0134537
0.0134512
0.0134463
0.013439
0.0134293
0.0134172
0.0134028
0.013386
0.0133669
0.0133455
0.0133218
0.0132958
0.0132676
0.0132371
0.0132044
0.0131695
0.0131325
0.0130933
0.0130519
0.0130085
0.0129629
0.0129153
0.0128657
0.012814
0.0127603
0.0127047
0.0126471
0.0125875
0.0125261
0.0124628
0.0123976
0.0123306
0.0122618
0.0121913
0.0121189
0.0120449
0.0119691
0.0118916
0.0118125
0.0117318
0.0116494
0.0115655
0.0114801
0.0113931
0.0113045
0.0112146
0.0111231
0.0110302
0.010936
0.0108403
0.0107433
0.010645
0.0105454
0.0104444
0.0103423
0.0102389
0.0101343
0.0100285
0.00992156
0.00981348
0.0097043
0.00959404
0.00948271
0.00937035
0.00925697
0.0091426
0.00902727
0.00891099
0.00879378
0.00867568
0.0085567
0.00843686
0.00831619
0.00819471
0.00807244
0.00794939
0.0078256
0.00770108
0.00757585
0.00744994
0.00732335
0.00719612
0.00706826
0.00693979
0.00681072
0.00668109
0.00655089
0.00642017
0.00628892
0.00615716
0.00602493
0.00589222
0.00575906
0.00562546
0.00549145
0.00535702
0.00522221
0.00508702
0.00495146
0.00481556
0.00467933
0.00454277
0.00440591
0.00426875
0.00413131
0.0039936
0.00385563
0.00371742
0.00357898
0.00344031
0.00330142
0.00316234
0.00302307
0.00288361
0.00274398
0.0026042
0.00246426
0.00232418
0.00218397
0.00204363
0.00190318
0.00176262
0.00162196
0.00148122
0.00134039
0.00119949
0.00105853
0.000917505
0.000776434
0.00063532
0.000494173
0.000353
0.000211807
7.06036e-05
9.6634e-05
0.000289896
0.000483142
0.000676359
0.000869536
0.00106266
0.00125572
0.00144871
0.00164161
0.00183442
0.00202711
0.00221967
0.0024121
0.00260438
0.00279649
0.00298843
0.00318017
0.0033717
0.003563
0.00375407
0.00394488
0.00413542
0.00432566
0.00451559
0.0047052
0.00489445
0.00508334
0.00527184
0.00545993
0.00564758
0.00583478
0.00602149
0.00620771
0.00639339
0.00657852
0.00676307
0.006947
0.0071303
0.00731294
0.00749487
0.00767608
0.00785653
0.00803619
0.00821503
0.00839301
0.0085701
0.00874626
0.00892146
0.00909567
0.00926883
0.00944092
0.0096119
0.00978172
0.00995036
0.0101178
0.0102839
0.0104487
0.0106122
0.0107742
0.0109348
0.011094
0.0112516
0.0114076
0.011562
0.0117148
0.0118658
0.0120151
0.0121626
0.0123083
0.0124521
0.012594
0.0127339
0.0128717
0.0130076
0.0131413
0.0132729
0.0134022
0.0135294
0.0136543
0.0137769
0.0138971
0.0140149
0.0141303
0.0142433
0.0143537
0.0144616
0.0145669
0.0146696
0.0147697
0.0148671
0.0149618
0.0150537
0.0151429
0.0152293
0.0153129
0.0153936
0.0154715
0.0155465
0.0156186
0.0156877
0.015754
0.0158172
0.0158775
0.0159348
0.0159891
0.0160404
0.0160886
0.0161339
0.0161761
0.0162152
0.0162514
0.0162845
0.0163145
0.0163415
0.0163655
0.0163864
0.0164043
0.0164191
0.016431
0.0164398
0.0164457
0.0164485
0.0164484
0.0164453
0.0164393
0.0164303
0.0164184
0.0164036
0.0163859
0.0163654
0.016342
0.0163158
0.0162868
0.016255
0.0162205
0.0161832
0.0161432
0.0161005
0.0160552
0.0160072
0.0159567
0.0159035
0.0158478
0.0157896
0.0157288
0.0156656
0.0156
0.0155319
0.0154614
0.0153886
0.0153135
0.0152361
0.0151564
0.0150745
0.0149903
0.014904
0.0148155
0.014725
0.0146323
0.0145376
0.0144409
0.0143421
0.0142414
0.0141388
0.0140343
0.0139279
0.0138197
0.0137096
0.0135978
0.0134843
0.013369
0.013252
0.0131334
0.0130132
0.0128914
0.012768
0.0126431
0.0125166
0.0123887
0.0122594
0.0121287
0.0119965
0.011863
0.0117282
0.0115921
0.0114547
0.0113161
0.0111763
0.0110353
0.0108931
0.0107498
0.0106054
0.0104599
0.0103134
0.0101659
0.0100174
0.00986788
0.00971745
0.00956611
0.00941388
0.00926078
0.00910684
0.00895209
0.00879654
0.00864023
0.00848317
0.00832538
0.0081669
0.00800774
0.00784793
0.00768748
0.00752641
0.00736475
0.00720252
0.00703974
0.00687642
0.00671259
0.00654827
0.00638346
0.0062182
0.0060525
0.00588637
0.00571983
0.0055529
0.0053856
0.00521793
0.00504993
0.00488159
0.00471294
0.00454399
0.00437476
0.00420525
0.00403548
0.00386547
0.00369523
0.00352476
0.00335409
0.00318322
0.00301216
0.00284093
0.00266954
0.002498
0.00232632
0.00215451
0.00198258
0.00181054
0.00163841
0.00146618
0.00129387
0.0011215
0.000949059
0.000776572
0.000604043
0.000431482
0.000258898
8.6301e-05
0.000114217
0.000342645
0.000571053
0.000799428
0.00102776
0.00125602
0.00148422
0.00171232
0.00194033
0.00216821
0.00239597
0.00262358
0.00285103
0.0030783
0.00330537
0.00353224
0.00375887
0.00398527
0.0042114
0.00443724
0.00466278
0.004888
0.00511288
0.00533739
0.00556152
0.00578523
0.00600851
0.00623133
0.00645367
0.0066755
0.00689678
0.00711751
0.00733764
0.00755714
0.007776
0.00799416
0.00821161
0.0084283
0.00864421
0.0088593
0.00907353
0.00928687
0.00949927
0.00971071
0.00992113
0.0101305
0.0103388
0.0105459
0.0107519
0.0109566
0.0111601
0.0113622
0.011563
0.0117624
0.0119604
0.0121568
0.0123517
0.012545
0.0127366
0.0129265
0.0131147
0.013301
0.0134855
0.0136681
0.0138488
0.0140274
0.0142039
0.0143784
0.0145506
0.0147207
0.0148884
0.0150539
0.0152169
0.0153775
0.0155357
0.0156913
0.0158443
0.0159947
0.0161424
0.0162873
0.0164295
0.0165688
0.0167053
0.0168389
0.0169695
0.0170971
0.0172216
0.0173431
0.0174614
0.0175766
0.0176886
0.0177973
0.0179028
0.0180049
0.0181038
0.0181992
0.0182913
0.01838
0.0184652
0.018547
0.0186253
0.0187001
0.0187714
0.0188391
0.0189033
0.0189639
0.019021
0.0190745
0.0191244
0.0191707
0.0192134
0.0192525
0.019288
0.0193199
0.0193482
0.0193729
0.019394
0.0194116
0.0194255
0.019436
0.0194428
0.0194462
0.019446
0.0194423
0.0194352
0.0194245
0.0194104
0.0193929
0.019372
0.0193477
0.01932
0.019289
0.0192546
0.019217
0.0191761
0.019132
0.0190847
0.0190342
0.0189806
0.0189238
0.018864
0.0188011
0.0187352
0.0186663
0.0185945
0.0185197
0.018442
0.0183615
0.0182782
0.0181921
0.0181032
0.0180116
0.0179174
0.0178205
0.017721
0.0176189
0.0175143
0.0174072
0.0172976
0.0171856
0.0170712
0.0169544
0.0168353
0.016714
0.0165904
0.0164646
0.0163366
0.0162065
0.0160743
0.01594
0.0158037
0.0156654
0.0155252
0.015383
0.015239
0.0150931
0.0149454
0.0147959
0.0146447
0.0144917
0.0143371
0.0141809
0.0140231
0.0138637
0.0137027
0.0135403
0.0133764
0.0132111
0.0130444
0.0128763
0.0127069
0.0125362
0.0123642
0.012191
0.0120166
0.011841
0.0116643
0.0114864
0.0113075
0.0111275
0.0109465
0.0107646
0.0105816
0.0103977
0.0102129
0.0100273
0.00984075
0.0096534
0.00946525
0.00927632
0.00908665
0.00889625
0.00870516
0.00851338
0.00832096
0.0081279
0.00793424
0.00773999
0.00754518
0.00734983
0.00715395
0.00695758
0.00676072
0.00656341
0.00636565
0.00616746
0.00596887
0.0057699
0.00557055
0.00537085
0.00517081
0.00497045
0.00476979
0.00456883
0.00436761
0.00416612
0.00396438
0.00376242
0.00356024
0.00335785
0.00315527
0.00295252
0.0027496
0.00254652
0.00234331
0.00213997
0.00193651
0.00173294
0.00152929
0.00132555
0.00112174
0.000917865
0.000713945
0.000509988
0.000306003
0.000102003
0.000131807
0.000395414
0.000658998
0.000922544
0.00118604
0.00144946
0.0017128
0.00197603
0.00223915
0.00250214
0.00276498
0.00302765
0.00329013
0.00355241
0.00381446
0.00407628
0.00433783
0.0045991
0.00486007
0.00512071
0.00538101
0.00564094
0.00590047
0.00615958
0.00641825
0.00667644
0.00693414
0.00719131
0.00744792
0.00770395
0.00795936
0.00821412
0.0084682
0.00872155
0.00897416
0.00922598
0.00947697
0.00972709
0.00997632
0.0102246
0.0104719
0.0107181
0.0109633
0.0112074
0.0114503
0.011692
0.0119324
0.0121716
0.0124093
0.0126457
0.0128806
0.013114
0.0133458
0.013576
0.0138045
0.0140313
0.0142563
0.0144794
0.0147007
0.0149199
0.0151372
0.0153524
0.0155654
0.0157762
0.0159848
0.016191
0.0163949
0.0165963
0.0167952
0.0169915
0.0171853
0.0173763
0.0175645
0.01775
0.0179326
0.0181123
0.018289
0.0184626
0.0186332
0.0188005
0.0189647
0.0191256
0.0192832
0.0194374
0.0195883
0.0197356
0.0198794
0.0200197
0.0201563
0.0202893
0.0204186
0.0205441
0.0206659
0.0207839
0.020898
0.0210082
0.0211146
0.021217
0.0213154
0.0214098
0.0215002
0.0215865
0.0216688
0.021747
0.0218211
0.0218911
0.0219569
0.0220187
0.0220762
0.0221297
0.0221789
0.0222241
0.022265
0.0223018
0.0223345
0.022363
0.0223873
0.0224076
0.0224237
0.0224357
0.0224436
0.0224474
0.0224471
0.0224428
0.0224345
0.0224222
0.0224059
0.0223856
0.0223614
0.0223333
0.0223013
0.0222654
0.0222257
0.0221822
0.022135
0.022084
0.0220293
0.021971
0.021909
0.0218435
0.0217744
0.0217017
0.0216256
0.021546
0.021463
0.0213766
0.0212869
0.021194
0.0210977
0.0209983
0.0208956
0.0207899
0.020681
0.0205691
0.0204542
0.0203363
0.0202155
0.0200918
0.0199653
0.0198359
0.0197038
0.019569
0.0194315
0.0192914
0.0191487
0.0190035
0.0188557
0.0187055
0.0185528
0.0183978
0.0182404
0.0180807
0.0179188
0.0177547
0.0175884
0.0174199
0.0172494
0.0170769
0.0169023
0.0167257
0.0165472
0.0163669
0.0161847
0.0160007
0.0158149
0.0156274
0.0154382
0.0152473
0.0150549
0.0148609
0.0146653
0.0144682
0.0142697
0.0140698
0.0138684
0.0136658
0.0134618
0.0132565
0.0130499
0.0128422
0.0126333
0.0124232
0.0122121
0.0119998
0.0117865
0.0115722
0.0113569
0.0111407
0.0109235
0.0107055
0.0104865
0.0102668
0.0100462
0.00982489
0.0096028
0.00937998
0.00915646
0.00893227
0.00870744
0.00848197
0.00825591
0.00802927
0.00780208
0.00757435
0.00734612
0.0071174
0.00688821
0.00665857
0.00642851
0.00619804
0.00596719
0.00573596
0.00550438
0.00527247
0.00504025
0.00480772
0.00457491
0.00434184
0.00410852
0.00387496
0.00364118
0.0034072
0.00317302
0.00293868
0.00270417
0.00246951
0.00223472
0.0019998
0.00176478
0.00152967
0.00129447
0.00105921
0.000823886
0.000588521
0.000353125
0.00011771
0.000149405
0.000448206
0.000746981
0.00104571
0.00134439
0.00164298
0.00194148
0.00223986
0.00253812
0.00283622
0.00313415
0.0034319
0.00372943
0.00402674
0.0043238
0.00462058
0.00491707
0.00521324
0.00550907
0.00580453
0.00609961
0.00639426
0.00668847
0.00698221
0.00727545
0.00756816
0.0078603
0.00815185
0.00844277
0.00873303
0.00902259
0.00931141
0.00959947
0.00988672
0.0101731
0.0104586
0.0107432
0.0110268
0.0113094
0.0115909
0.0118713
0.0121505
0.0124285
0.0127052
0.0129807
0.0132547
0.0135274
0.0137985
0.0140682
0.0143362
0.0146026
0.0148672
0.0151301
0.0153912
0.0156503
0.0159075
0.0161627
0.0164158
0.0166667
0.0169154
0.0171618
0.0174058
0.0176474
0.0178866
0.0181231
0.018357
0.0185883
0.0188167
0.0190423
0.019265
0.0194847
0.0197014
0.019915
0.0201254
0.0203325
0.0205363
0.0207367
0.0209337
0.0211271
0.021317
0.0215032
0.0216857
0.0218645
0.0220394
0.0222105
0.0223776
0.0225408
0.0226999
0.0228548
0.0230057
0.0231523
0.0232948
0.0234329
0.0235667
0.0236961
0.0238212
0.0239418
0.0240579
0.0241695
0.0242766
0.0243791
0.024477
0.0245703
0.024659
0.024743
0.0248223
0.024897
0.024967
0.0250323
0.0250928
0.0251487
0.0251998
0.0252462
0.0252879
0.0253249
0.0253572
0.0253848
0.0254077
0.0254259
0.0254395
0.0254484
0.0254526
0.0254523
0.0254474
0.0254379
0.0254238
0.0254053
0.0253822
0.0253547
0.0253228
0.0252864
0.0252457
0.0252006
0.0251512
0.0250976
0.0250397
0.0249777
0.0249114
0.0248411
0.0247667
0.0246882
0.0246058
0.0245194
0.0244291
0.0243349
0.0242369
0.0241352
0.0240297
0.0239205
0.0238076
0.0236912
0.0235712
0.0234477
0.0233208
0.0231904
0.0230567
0.0229196
0.0227793
0.0226358
0.0224891
0.0223392
0.0221863
0.0220304
0.0218714
0.0217096
0.0215448
0.0213772
0.0212068
0.0210337
0.0208579
0.0206794
0.0204983
0.0203147
0.0201285
0.0199399
0.0197489
0.0195555
0.0193598
0.0191619
0.0189616
0.0187592
0.0185547
0.0183481
0.0181394
0.0179288
0.0177161
0.0175016
0.0172852
0.017067
0.016847
0.0166252
0.0164018
0.0161767
0.0159499
0.0157216
0.0154918
0.0152605
0.0150278
0.0147936
0.0145581
0.0143212
0.014083
0.0138436
0.013603
0.0133611
0.0131182
0.0128741
0.0126289
0.0123827
0.0121355
0.0118873
0.0116381
0.0113881
0.0111372
0.0108854
0.0106328
0.0103794
0.0101252
0.00987032
0.00961472
0.00935844
0.00910152
0.00884396
0.00858581
0.00832708
0.0080678
0.00780799
0.00754767
0.00728688
0.00702562
0.00676393
0.00650182
0.00623931
0.00597643
0.00571318
0.00544961
0.00518571
0.00492151
0.00465703
0.00439228
0.00412729
0.00386207
0.00359663
0.00333099
0.00306517
0.00279918
0.00253304
0.00226677
0.00200037
0.00173387
0.00146728
0.0012006
0.000933869
0.000667084
0.000400264
0.000133424
0.000167011
0.000501024
0.000835008
0.00116894
0.00150281
0.0018366
0.00217027
0.00250383
0.00283723
0.00317047
0.00350352
0.00383636
0.00416897
0.00450133
0.0048334
0.00516518
0.00549663
0.00582772
0.00615844
0.00648875
0.00681863
0.00714804
0.00747696
0.00780535
0.00813319
0.00846043
0.00878705
0.00911301
0.00943827
0.0097628
0.0100865
0.0104095
0.0107316
0.0110527
0.011373
0.0116922
0.0120104
0.0123275
0.0126435
0.0129583
0.0132718
0.013584
0.0138949
0.0142044
0.0145124
0.0148189
0.0151238
0.0154271
0.0157286
0.0160284
0.0163263
0.0166223
0.0169163
0.0172083
0.0174981
0.0177858
0.0180712
0.0183543
0.0186349
0.0189131
0.0191887
0.0194617
0.019732
0.0199995
0.0202641
0.0205258
0.0207844
0.02104
0.0212924
0.0215415
0.0217873
0.0220297
0.0222686
0.0225039
0.0227357
0.0229637
0.0231879
0.0234082
0.0236246
0.0238371
0.0240454
0.0242496
0.0244496
0.0246453
0.0248367
0.0250237
0.0252062
0.0253841
0.0255575
0.0257263
0.0258904
0.0260497
0.0262042
0.0263539
0.0264987
0.0266385
0.0267734
0.0269033
0.0270281
0.0271479
0.0272626
0.0273721
0.0274764
0.0275756
0.0276695
0.0277583
0.0278418
0.02792
0.027993
0.0280607
0.0281231
0.0281803
0.0282322
0.0282788
0.0283201
0.0283561
0.0283869
0.0284125
0.0284328
0.0284479
0.0284578
0.0284625
0.0284621
0.0284565
0.0284458
0.02843
0.0284092
0.0283833
0.0283525
0.0283167
0.0282759
0.0282303
0.0281798
0.0281245
0.0280644
0.0279996
0.0279301
0.027856
0.0277773
0.027694
0.0276061
0.0275139
0.0274171
0.0273161
0.0272107
0.027101
0.0269871
0.026869
0.0267468
0.0266206
0.0264903
0.026356
0.0262179
0.0260758
0.02593
0.0257803
0.025627
0.02547
0.0253095
0.0251453
0.0249777
0.0248066
0.0246322
0.0244544
0.0242733
0.024089
0.0239016
0.023711
0.0235173
0.0233206
0.023121
0.0229185
0.0227131
0.0225049
0.0222939
0.0220803
0.021864
0.0216451
0.0214237
0.0211997
0.0209734
0.0207446
0.0205136
0.0202802
0.0200446
0.0198068
0.0195669
0.0193249
0.0190808
0.0188348
0.0185868
0.0183369
0.0180852
0.0178317
0.0175764
0.0173194
0.0170607
0.0168005
0.0165386
0.0162753
0.0160104
0.0157441
0.0154764
0.0152073
0.0149369
0.0146652
0.0143923
0.0141182
0.0138429
0.0135665
0.013289
0.0130104
0.0127308
0.0124503
0.0121688
0.0118863
0.011603
0.0113189
0.0110339
0.0107481
0.0104616
0.0101744
0.00988645
0.00959784
0.00930859
0.00901872
0.00872827
0.00843726
0.00814571
0.00785364
0.00756109
0.00726807
0.00697461
0.00668074
0.00638646
0.00609181
0.0057968
0.00550146
0.00520581
0.00490986
0.00461363
0.00431715
0.00402043
0.00372349
0.00342634
0.00312901
0.00283151
0.00253386
0.00223607
0.00193817
0.00164016
0.00134207
0.0010439
0.000745683
0.000447425
0.000149144
0.000184627
0.00055387
0.000923082
0.00129224
0.00166133
0.00203032
0.0023992
0.00276793
0.00313651
0.00350491
0.0038731
0.00424106
0.00460876
0.00497619
0.00534331
0.0057101
0.00607654
0.00644258
0.00680821
0.0071734
0.00753811
0.00790231
0.00826596
0.00862905
0.00899151
0.00935334
0.00971447
0.0100749
0.0104345
0.0107933
0.0111513
0.0115084
0.0118646
0.0122197
0.0125738
0.0129268
0.0132787
0.0136294
0.0139788
0.0143269
0.0146736
0.015019
0.0153628
0.0157051
0.0160457
0.0163847
0.0167219
0.0170573
0.0173908
0.0177224
0.0180519
0.0183793
0.0187046
0.0190275
0.0193482
0.0196664
0.0199821
0.0202952
0.0206057
0.0209134
0.0212183
0.0215203
0.0218193
0.0221153
0.022408
0.0226975
0.0229837
0.0232664
0.0235457
0.0238213
0.0240933
0.0243614
0.0246258
0.0248862
0.0251426
0.0253948
0.0256429
0.0258867
0.0261262
0.0263612
0.0265918
0.0268177
0.027039
0.0272555
0.0274673
0.0276742
0.0278761
0.028073
0.0282649
0.0284516
0.0286331
0.0288094
0.0289803
0.0291459
0.0293061
0.0294609
0.0296101
0.0297538
0.0298919
0.0300244
0.0301512
0.0302723
0.0303877
0.0304974
0.0306013
0.0306995
0.0307918
0.0308783
0.030959
0.0310339
0.0311029
0.0311661
0.0312234
0.0312749
0.0313205
0.0313603
0.0313943
0.0314225
0.0314449
0.0314616
0.0314724
0.0314776
0.031477
0.0314707
0.0314588
0.0314413
0.0314181
0.0313894
0.0313552
0.0313155
0.0312703
0.0312198
0.0311638
0.0311026
0.031036
0.0309642
0.0308873
0.0308052
0.030718
0.0306257
0.0305285
0.0304263
0.0303193
0.0302074
0.0300907
0.0299693
0.0298432
0.0297125
0.0295773
0.0294376
0.0292934
0.0291448
0.0289919
0.0288347
0.0286733
0.0285077
0.0283381
0.0281644
0.0279867
0.0278051
0.0276196
0.0274303
0.0272373
0.0270406
0.0268403
0.0266364
0.026429
0.0262182
0.0260039
0.0257864
0.0255655
0.0253415
0.0251142
0.0248839
0.0246506
0.0244143
0.024175
0.0239329
0.023688
0.0234403
0.0231899
0.0229369
0.0226813
0.0224232
0.0221626
0.0218996
0.0216343
0.0213666
0.0210967
0.0208246
0.0205503
0.0202739
0.0199955
0.0197152
0.0194328
0.0191486
0.0188626
0.0185748
0.0182852