/*--------------------------------*- C++ -*----------------------------------*\
| =========                 |                                                 |
| \\      /  F ield         | OpenFOAM: The Open Source CFD Toolbox           |
|  \\    /   O peration     | Version:  v2012                                 |
|   \\  /    A nd           | Website:  www.openfoam.com                      |
|    \\/     M anipulation  |                                                 |
\*---------------------------------------------------------------------------*/
FoamFile
{
    version     2.0;
    format      ascii;
    class       surfaceScalarField;
    location    "9";
    object      phi;
}
// * * * * * * * * * * * * * * * * * * * * * * * * * * * * * * * * * * * * * //

dimensions      [0 3 -1 0 0 0 0];
oriented        oriented;


internalField   nonuniform List<scalar> 
130560
(
3.69867e-06
-3.69867e-06
7.39737e-06
-3.6987e-06
1.10961e-05
-3.69875e-06
1.47949e-05
-3.69883e-06
1.84939e-05
-3.69893e-06
2.21929e-05
-3.69905e-06
2.58921e-05
-3.69919e-06
2.95914e-05
-3.69933e-06
3.32909e-05
-3.69949e-06
3.69906e-05
-3.69964e-06
4.06904e-05
-3.69978e-06
4.43903e-05
-3.69991e-06
4.80903e-05
-3.70001e-06
5.17904e-05
-3.70008e-06
5.54905e-05
-3.70011e-06
5.91905e-05
-3.70008e-06
6.28905e-05
-3.69998e-06
6.65903e-05
-3.6998e-06
7.02899e-05
-3.69953e-06
7.3989e-05
-3.69916e-06
7.76877e-05
-3.69866e-06
8.13857e-05
-3.69802e-06
8.50829e-05
-3.69723e-06
8.87792e-05
-3.69628e-06
9.24743e-05
-3.69513e-06
9.61681e-05
-3.69377e-06
9.98603e-05
-3.69219e-06
0.000103551
-3.69036e-06
0.000107239
-3.68827e-06
0.000110925
-3.68589e-06
0.000114608
-3.68319e-06
0.000118288
-3.68017e-06
0.000121965
-3.67678e-06
0.000125638
-3.67302e-06
0.000129307
-3.66886e-06
0.000132971
-3.66426e-06
0.00013663
-3.65921e-06
0.000140284
-3.65367e-06
0.000143932
-3.64763e-06
0.000147573
-3.64106e-06
0.000151207
-3.63392e-06
0.000154833
-3.6262e-06
0.000158451
-3.61785e-06
0.00016206
-3.60887e-06
0.000165659
-3.5992e-06
0.000169248
-3.58884e-06
0.000172825
-3.57774e-06
0.000176391
-3.56588e-06
0.000179944
-3.55323e-06
0.000183484
-3.53977e-06
0.00018701
-3.52546e-06
0.00019052
-3.51027e-06
0.000194014
-3.49418e-06
0.000197491
-3.47715e-06
0.00020095
-3.45917e-06
0.000204391
-3.4402e-06
0.000207811
-3.42022e-06
0.00021121
-3.3992e-06
0.000214587
-3.37712e-06
0.000217941
-3.35395e-06
0.000221271
-3.32966e-06
0.000224575
-3.30424e-06
0.000227853
-3.27766e-06
0.000231103
-3.24991e-06
0.000234324
-3.22095e-06
0.000237514
-3.19079e-06
0.000240674
-3.15938e-06
0.0002438
-3.12673e-06
0.000246893
-3.09282e-06
0.000249951
-3.05764e-06
0.000252972
-3.02116e-06
0.000255955
-2.9834e-06
0.0002589
-2.94433e-06
0.000261804
-2.90395e-06
0.000264666
-2.86226e-06
0.000267485
-2.81925e-06
0.00027026
-2.77494e-06
0.000272989
-2.72931e-06
0.000275672
-2.68237e-06
0.000278306
-2.63414e-06
0.000280891
-2.58461e-06
0.000283424
-2.5338e-06
0.000285906
-2.48173e-06
0.000288335
-2.4284e-06
0.000290708
-2.37384e-06
0.000293026
-2.31806e-06
0.000295288
-2.26109e-06
0.00029749
-2.20295e-06
0.000299634
-2.14366e-06
0.000301717
-2.08326e-06
0.000303739
-2.02178e-06
0.000305698
-1.95925e-06
0.000307594
-1.8957e-06
0.000309425
-1.83117e-06
0.000311191
-1.76569e-06
0.00031289
-1.69932e-06
0.000314522
-1.63208e-06
0.000316086
-1.56403e-06
0.000317582
-1.49521e-06
0.000319007
-1.42566e-06
0.000320363
-1.35544e-06
0.000321647
-1.28458e-06
0.00032286
-1.21316e-06
0.000324002
-1.1412e-06
0.00032507
-1.06877e-06
0.000326066
-9.95925e-07
0.000326989
-9.22709e-07
0.000327838
-8.49181e-07
0.000328614
-7.75395e-07
0.000329315
-7.01406e-07
0.000329942
-6.27269e-07
0.000330495
-5.53039e-07
0.000330974
-4.7877e-07
0.000331379
-4.04519e-07
0.000331709
-3.30339e-07
0.000331965
-2.56283e-07
0.000332148
-1.82406e-07
0.000332256
-1.08761e-07
0.000332292
-3.53979e-08
0.000332254
3.76309e-08
0.000332144
1.10276e-07
0.000331961
1.82488e-07
0.000331707
2.5422e-07
0.000331382
3.25426e-07
0.000330986
3.96059e-07
0.00033052
4.66078e-07
0.000329984
5.35439e-07
0.00032938
6.04103e-07
0.000328708
6.7203e-07
0.000327969
7.39183e-07
0.000327163
8.05527e-07
0.000326292
8.71029e-07
0.000325357
9.35655e-07
0.000324357
9.99377e-07
0.000323295
1.06217e-06
0.000322171
1.12399e-06
0.000320986
1.18484e-06
0.000319742
1.24468e-06
0.000318438
1.30349e-06
0.000317077
1.36125e-06
0.000315659
1.41795e-06
0.000314185
1.47357e-06
0.000312657
1.52809e-06
0.000311076
1.58152e-06
0.000309442
1.63382e-06
0.000307757
1.685e-06
0.000306022
1.73505e-06
0.000304238
1.78397e-06
0.000302406
1.83175e-06
0.000300528
1.87838e-06
0.000298604
1.92387e-06
0.000296636
1.96822e-06
0.000294624
2.01143e-06
0.000292571
2.05351e-06
0.000290476
2.09445e-06
0.000288342
2.13427e-06
0.000286169
2.17297e-06
0.000283958
2.21056e-06
0.000281711
2.24705e-06
0.000279429
2.28245e-06
0.000277112
2.31677e-06
0.000274762
2.35002e-06
0.00027238
2.38222e-06
0.000269967
2.41337e-06
0.000267523
2.4435e-06
0.00026505
2.47262e-06
0.00026255
2.50074e-06
0.000260022
2.52788e-06
0.000257468
2.55405e-06
0.000254889
2.57928e-06
0.000252285
2.60358e-06
0.000249658
2.62697e-06
0.000247009
2.64947e-06
0.000244337
2.67109e-06
0.000241646
2.69186e-06
0.000238934
2.71179e-06
0.000236203
2.7309e-06
0.000233454
2.74922e-06
0.000230687
2.76675e-06
0.000227903
2.78352e-06
0.000225104
2.79956e-06
0.000222289
2.81487e-06
0.000219459
2.82948e-06
0.000216616
2.84341e-06
0.000213759
2.85668e-06
0.00021089
2.8693e-06
0.000208009
2.8813e-06
0.000205116
2.89269e-06
0.000202213
2.90349e-06
0.000199299
2.91373e-06
0.000196375
2.92342e-06
0.000193443
2.93257e-06
0.000190502
2.94121e-06
0.000187552
2.94936e-06
0.000184595
2.95702e-06
0.000181631
2.96423e-06
0.00017866
2.97099e-06
0.000175683
2.97732e-06
0.000172699
2.98324e-06
0.000169711
2.98877e-06
0.000166717
2.99392e-06
0.000163718
2.99871e-06
0.000160715
3.00314e-06
0.000157708
3.00725e-06
0.000154697
3.01103e-06
0.000151682
3.01451e-06
0.000148664
3.01771e-06
0.000145644
3.02062e-06
0.000142621
3.02327e-06
0.000139595
3.02568e-06
0.000136567
3.02784e-06
0.000133537
3.02979e-06
0.000130506
3.03152e-06
0.000127473
3.03305e-06
0.000124438
3.03439e-06
0.000121403
3.03555e-06
0.000118366
3.03655e-06
0.000115329
3.03739e-06
0.000112291
3.03808e-06
0.000109252
3.03864e-06
0.000106213
3.03907e-06
0.000103174
3.03939e-06
0.000100134
3.0396e-06
9.70943e-05
3.03971e-06
9.40546e-05
3.03973e-06
9.10149e-05
3.03967e-06
8.79754e-05
3.03953e-06
8.4936e-05
3.03933e-06
8.1897e-05
3.03907e-06
7.88582e-05
3.03876e-06
7.58198e-05
3.0384e-06
7.27818e-05
3.03801e-06
6.97442e-05
3.03758e-06
6.67071e-05
3.03712e-06
6.36705e-05
3.03665e-06
6.06343e-05
3.03616e-06
5.75986e-05
3.03566e-06
5.45635e-05
3.03515e-06
5.15288e-05
3.03465e-06
4.84947e-05
3.03415e-06
4.5461e-05
3.03365e-06
4.24279e-05
3.03317e-06
3.93951e-05
3.03271e-06
3.63629e-05
3.03226e-06
3.3331e-05
3.03184e-06
3.02996e-05
3.03144e-06
2.72685e-05
3.03107e-06
2.42378e-05
3.03073e-06
2.12074e-05
3.03042e-06
1.81772e-05
3.03015e-06
1.51473e-05
3.02991e-06
1.21176e-05
3.02971e-06
9.08808e-06
3.02955e-06
6.05865e-06
3.02943e-06
3.02931e-06
3.02935e-06
3.02931e-06
3.69864e-06
-7.39731e-06
7.39731e-06
-7.39737e-06
1.1096e-05
-7.39748e-06
1.47948e-05
-7.39764e-06
1.84938e-05
-7.39784e-06
2.21928e-05
-7.39809e-06
2.5892e-05
-7.39836e-06
2.95913e-05
-7.39866e-06
3.32908e-05
-7.39898e-06
3.69904e-05
-7.39929e-06
4.06902e-05
-7.39958e-06
4.43902e-05
-7.39984e-06
4.80902e-05
-7.40006e-06
5.17903e-05
-7.40021e-06
5.54905e-05
-7.40027e-06
5.91906e-05
-7.40022e-06
6.28907e-05
-7.40004e-06
6.65906e-05
-7.3997e-06
7.02902e-05
-7.39917e-06
7.39895e-05
-7.39843e-06
7.76883e-05
-7.39745e-06
8.13865e-05
-7.3962e-06
8.50839e-05
-7.39464e-06
8.87804e-05
-7.39274e-06
9.24757e-05
-7.39046e-06
9.61697e-05
-7.38777e-06
9.98621e-05
-7.38463e-06
0.000103553
-7.38099e-06
0.000107241
-7.37683e-06
0.000110928
-7.37208e-06
0.000114611
-7.36672e-06
0.000118292
-7.36069e-06
0.000121969
-7.35395e-06
0.000125642
-7.34645e-06
0.000129311
-7.33814e-06
0.000132976
-7.32897e-06
0.000136636
-7.31889e-06
0.00014029
-7.30786e-06
0.000143938
-7.2958e-06
0.00014758
-7.28268e-06
0.000151214
-7.26844e-06
0.000154841
-7.25301e-06
0.00015846
-7.23635e-06
0.000162069
-7.2184e-06
0.000165669
-7.19911e-06
0.000169259
-7.1784e-06
0.000172837
-7.15624e-06
0.000176404
-7.13255e-06
0.000179958
-7.10728e-06
0.000183498
-7.08038e-06
0.000187025
-7.05178e-06
0.000190536
-7.02144e-06
0.000194031
-6.98928e-06
0.000197509
-6.95527e-06
0.000200969
-6.91933e-06
0.000204411
-6.88142e-06
0.000207832
-6.84148e-06
0.000211232
-6.79947e-06
0.00021461
-6.75532e-06
0.000217965
-6.709e-06
0.000221296
-6.66045e-06
0.000224602
-6.60964e-06
0.00022788
-6.5565e-06
0.000231131
-6.50101e-06
0.000234354
-6.44312e-06
0.000237546
-6.3828e-06
0.000240706
-6.32001e-06
0.000243834
-6.25473e-06
0.000246928
-6.18692e-06
0.000249987
-6.11655e-06
0.00025301
-6.04362e-06
0.000255994
-5.96809e-06
0.00025894
-5.88996e-06
0.000261845
-5.8092e-06
0.000264709
-5.72582e-06
0.000267529
-5.63982e-06
0.000270306
-5.55118e-06
0.000273036
-5.45992e-06
0.00027572
-5.36604e-06
0.000278355
-5.26956e-06
0.000280941
-5.1705e-06
0.000283476
-5.06887e-06
0.000285959
-4.96471e-06
0.000288389
-4.85803e-06
0.000290764
-4.74889e-06
0.000293083
-4.63731e-06
0.000295346
-4.52334e-06
0.00029755
-4.40703e-06
0.000299694
-4.28844e-06
0.000301779
-4.16761e-06
0.000303802
-4.04461e-06
0.000305762
-3.91951e-06
0.000307658
-3.79237e-06
0.000309491
-3.66327e-06
0.000311257
-3.53228e-06
0.000312957
-3.39949e-06
0.00031459
-3.26498e-06
0.000316155
-3.12883e-06
0.000317651
-2.99114e-06
0.000319077
-2.85199e-06
0.000320433
-2.7115e-06
0.000321719
-2.56974e-06
0.000322932
-2.42683e-06
0.000324074
-2.28287e-06
0.000325143
-2.13796e-06
0.000326139
-1.99221e-06
0.000327062
-1.84573e-06
0.000327912
-1.69862e-06
0.000328687
-1.55099e-06
0.000329389
-1.40296e-06
0.000330016
-1.25463e-06
0.000330569
-1.10611e-06
0.000331048
-9.57523e-07
0.000331453
-8.08965e-07
0.000331783
-6.60551e-07
0.000332039
-5.12387e-07
0.000332221
-3.6458e-07
0.00033233
-2.17237e-07
0.000332365
-7.04606e-08
0.000332327
7.56469e-08
0.000332216
2.20986e-07
0.000332033
3.65458e-07
0.000331778
5.08968e-07
0.000331452
6.51424e-07
0.000331056
7.92735e-07
0.000330589
9.32814e-07
0.000330053
1.07158e-06
0.000329448
1.20894e-06
0.000328775
1.34483e-06
0.000328035
1.47918e-06
0.000327229
1.6119e-06
0.000326357
1.74293e-06
0.00032542
1.87222e-06
0.00032442
1.99969e-06
0.000323357
2.12529e-06
0.000322232
2.24897e-06
0.000321046
2.37069e-06
0.0003198
2.49038e-06
0.000318496
2.60802e-06
0.000317133
2.72356e-06
0.000315714
2.83698e-06
0.00031424
2.94823e-06
0.00031271
3.05729e-06
0.000311128
3.16415e-06
0.000309493
3.26877e-06
0.000307807
3.37114e-06
0.000306071
3.47124e-06
0.000304285
3.56908e-06
0.000302453
3.66463e-06
0.000300573
3.7579e-06
0.000298648
3.84889e-06
0.000296679
3.93758e-06
0.000294666
4.024e-06
0.000292611
4.10815e-06
0.000290516
4.19003e-06
0.000288381
4.26966e-06
0.000286206
4.34705e-06
0.000283995
4.42222e-06
0.000281747
4.49519e-06
0.000279463
4.56598e-06
0.000277145
4.6346e-06
0.000274794
4.70109e-06
0.000272411
4.76547e-06
0.000269997
4.82777e-06
0.000267552
4.88801e-06
0.000265078
4.94623e-06
0.000262577
5.00245e-06
0.000260048
5.05672e-06
0.000257493
5.10905e-06
0.000254913
5.15949e-06
0.000252308
5.20808e-06
0.00024968
5.25484e-06
0.00024703
5.29982e-06
0.000244358
5.34304e-06
0.000241665
5.38456e-06
0.000238953
5.4244e-06
0.000236221
5.4626e-06
0.000233471
5.49921e-06
0.000230704
5.53426e-06
0.000227919
5.56779e-06
0.000225119
5.59984e-06
0.000222303
5.63044e-06
0.000219473
5.65965e-06
0.000216629
5.68748e-06
0.000213772
5.714e-06
0.000210902
5.73922e-06
0.00020802
5.7632e-06
0.000205127
5.78596e-06
0.000202223
5.80755e-06
0.000199308
5.82801e-06
0.000196384
5.84736e-06
0.000193451
5.86565e-06
0.00019051
5.88292e-06
0.00018756
5.89919e-06
0.000184602
5.91451e-06
0.000181638
5.9289e-06
0.000178666
5.9424e-06
0.000175689
5.95505e-06
0.000172705
5.96688e-06
0.000169716
5.97792e-06
0.000166721
5.9882e-06
0.000163722
5.99776e-06
0.000160719
6.00662e-06
0.000157711
6.01481e-06
0.0001547
6.02237e-06
0.000151685
6.02932e-06
0.000148667
6.03569e-06
0.000145646
6.0415e-06
0.000142623
6.0468e-06
0.000139597
6.05159e-06
0.000136569
6.05591e-06
0.000133539
6.05978e-06
0.000130507
6.06323e-06
0.000127474
6.06628e-06
0.000124439
6.06895e-06
0.000121404
6.07126e-06
0.000118367
6.07324e-06
0.000115329
6.07492e-06
0.000112291
6.0763e-06
0.000109252
6.0774e-06
0.000106213
6.07826e-06
0.000103174
6.07889e-06
0.000100134
6.0793e-06
9.70943e-05
6.07951e-06
9.40545e-05
6.07954e-06
9.10147e-05
6.07941e-06
8.79751e-05
6.07913e-06
8.49357e-05
6.07872e-06
8.18966e-05
6.0782e-06
7.88578e-05
6.07756e-06
7.58194e-05
6.07684e-06
7.27813e-05
6.07604e-06
6.97437e-05
6.07518e-06
6.67066e-05
6.07427e-06
6.36699e-05
6.07331e-06
6.06338e-05
6.07233e-06
5.75981e-05
6.07132e-06
5.45629e-05
6.07031e-06
5.15283e-05
6.06929e-06
4.84942e-05
6.06828e-06
4.54605e-05
6.06729e-06
4.24274e-05
6.06633e-06
3.93947e-05
6.06539e-06
3.63624e-05
6.0645e-06
3.33306e-05
6.06365e-06
3.02992e-05
6.06285e-06
2.72682e-05
6.06211e-06
2.42375e-05
6.06142e-06
2.12071e-05
6.06081e-06
1.8177e-05
6.06026e-06
1.51471e-05
6.05978e-06
1.21175e-05
6.05938e-06
9.08795e-06
6.05905e-06
6.05857e-06
6.05881e-06
3.02926e-06
6.05865e-06
6.05857e-06
3.69859e-06
-1.10959e-05
7.3972e-06
-1.1096e-05
1.10959e-05
-1.10962e-05
1.47946e-05
-1.10964e-05
1.84935e-05
-1.10967e-05
2.21925e-05
-1.10971e-05
2.58917e-05
-1.10975e-05
2.9591e-05
-1.1098e-05
3.32905e-05
-1.10985e-05
3.69901e-05
-1.10989e-05
4.069e-05
-1.10994e-05
4.439e-05
-1.10998e-05
4.80901e-05
-1.11002e-05
5.17903e-05
-1.11004e-05
5.54906e-05
-1.11005e-05
5.91908e-05
-1.11005e-05
6.2891e-05
-1.11003e-05
6.65911e-05
-1.10998e-05
7.0291e-05
-1.1099e-05
7.39905e-05
-1.1098e-05
7.76896e-05
-1.10965e-05
8.13881e-05
-1.10947e-05
8.50858e-05
-1.10924e-05
8.87826e-05
-1.10896e-05
9.24784e-05
-1.10862e-05
9.61728e-05
-1.10822e-05
9.98658e-05
-1.10776e-05
0.000103557
-1.10722e-05
0.000107246
-1.1066e-05
0.000110933
-1.10589e-05
0.000114617
-1.10509e-05
0.000118298
-1.10419e-05
0.000121976
-1.10319e-05
0.00012565
-1.10207e-05
0.000129321
-1.10083e-05
0.000132986
-1.09946e-05
0.000136647
-1.09795e-05
0.000140302
-1.09631e-05
0.000143951
-1.0945e-05
0.000147594
-1.09254e-05
0.00015123
-1.09041e-05
0.000154858
-1.08811e-05
0.000158478
-1.08561e-05
0.000162088
-1.08293e-05
0.00016569
-1.08004e-05
0.000169281
-1.07694e-05
0.000172861
-1.07363e-05
0.000176429
-1.07008e-05
0.000179985
-1.0663e-05
0.000183527
-1.06227e-05
0.000187055
-1.05799e-05
0.000190568
-1.05344e-05
0.000194065
-1.04863e-05
0.000197545
-1.04353e-05
0.000201007
-1.03815e-05
0.000204451
-1.03247e-05
0.000207874
-1.02648e-05
0.000211276
-1.02019e-05
0.000214657
-1.01357e-05
0.000218014
-1.00663e-05
0.000221347
-9.99352e-06
0.000224655
-9.91735e-06
0.000227936
-9.8377e-06
0.000231189
-9.75451e-06
0.000234414
-9.66772e-06
0.000237608
-9.57728e-06
0.000240772
-9.48314e-06
0.000243902
-9.38525e-06
0.000246999
-9.28356e-06
0.00025006
-9.17805e-06
0.000253085
-9.06867e-06
0.000256073
-8.95539e-06
0.000259021
-8.83821e-06
0.000261929
-8.71709e-06
0.000264795
-8.59202e-06
0.000267618
-8.46301e-06
0.000270397
-8.33005e-06
0.00027313
-8.19315e-06
0.000275817
-8.05232e-06
0.000278455
-7.90758e-06
0.000281043
-7.75895e-06
0.000283581
-7.60648e-06
0.000286066
-7.45019e-06
0.000288498
-7.29014e-06
0.000290876
-7.12637e-06
0.000293197
-6.95895e-06
0.000295462
-6.78794e-06
0.000297668
-6.61341e-06
0.000299815
-6.43545e-06
0.000301902
-6.25413e-06
0.000303927
-6.06955e-06
0.000305889
-5.88181e-06
0.000307788
-5.69101e-06
0.000309622
-5.49726e-06
0.00031139
-5.30068e-06
0.000313092
-5.10139e-06
0.000314727
-4.89951e-06
0.000316293
-4.69517e-06
0.00031779
-4.48852e-06
0.000319218
-4.27968e-06
0.000320575
-4.06881e-06
0.000321862
-3.85606e-06
0.000323076
-3.64157e-06
0.000324219
-3.42549e-06
0.000325289
-3.208e-06
0.000326286
-2.98924e-06
0.00032721
-2.76938e-06
0.00032806
-2.54857e-06
0.000328836
-2.327e-06
0.000329537
-2.10481e-06
0.000330165
-1.88218e-06
0.000330718
-1.65927e-06
0.000331197
-1.43624e-06
0.000331601
-1.21327e-06
0.000331931
-9.90512e-07
0.000332187
-7.68133e-07
0.000332369
-5.46292e-07
0.000332476
-3.25147e-07
0.000332511
-1.04855e-07
0.000332472
1.14431e-07
0.000332361
3.32562e-07
0.000332177
5.49389e-07
0.000331921
7.64771e-07
0.000331594
9.78566e-07
0.000331196
1.19064e-06
0.000330728
1.40087e-06
0.00033019
1.60911e-06
0.000329584
1.81526e-06
0.000328909
2.01919e-06
0.000328168
2.22079e-06
0.00032736
2.41996e-06
0.000326486
2.61659e-06
0.000325548
2.81059e-06
0.000324546
3.00187e-06
0.000323481
3.19034e-06
0.000322354
3.37592e-06
0.000321166
3.55855e-06
0.000319918
3.73814e-06
0.000318611
3.91465e-06
0.000317247
4.08801e-06
0.000315826
4.25817e-06
0.000314349
4.42508e-06
0.000312817
4.58871e-06
0.000311233
4.74901e-06
0.000309595
4.90596e-06
0.000307907
5.05953e-06
0.000306169
5.20971e-06
0.000304381
5.35647e-06
0.000302546
5.4998e-06
0.000300664
5.63971e-06
0.000298737
5.77618e-06
0.000296765
5.90923e-06
0.00029475
6.03885e-06
0.000292693
6.16505e-06
0.000290596
6.28786e-06
0.000288458
6.40729e-06
0.000286282
6.52335e-06
0.000284068
6.63609e-06
0.000281818
6.74551e-06
0.000279532
6.85166e-06
0.000277212
6.95457e-06
0.000274859
7.05428e-06
0.000272473
7.15081e-06
0.000270057
7.24422e-06
0.00026761
7.33455e-06
0.000265135
7.42183e-06
0.000262631
7.50613e-06
0.0002601
7.58748e-06
0.000257543
7.66594e-06
0.000254961
7.74157e-06
0.000252355
7.8144e-06
0.000249725
7.88449e-06
0.000247073
7.95191e-06
0.0002444
8.0167e-06
0.000241705
8.07893e-06
0.000238991
8.13864e-06
0.000236258
8.1959e-06
0.000233506
8.25076e-06
0.000230737
8.30329e-06
0.000227951
8.35353e-06
0.00022515
8.40156e-06
0.000222333
8.44742e-06
0.000219501
8.49117e-06
0.000216656
8.53288e-06
0.000213797
8.57261e-06
0.000210926
8.6104e-06
0.000208043
8.64631e-06
0.000205148
8.68041e-06
0.000202243
8.71275e-06
0.000199328
8.74339e-06
0.000196403
8.77237e-06
0.000193469
8.79977e-06
0.000190526
8.82562e-06
0.000187575
8.84998e-06
0.000184617
8.87291e-06
0.000181651
8.89446e-06
0.000178679
8.91467e-06
0.0001757
8.93361e-06
0.000172716
8.95131e-06
0.000169726
8.96783e-06
0.000166731
8.98321e-06
0.000163731
8.99751e-06
0.000160727
9.01076e-06
0.000157719
9.02301e-06
0.000154707
9.03431e-06
0.000151692
9.0447e-06
0.000148673
9.05422e-06
0.000145652
9.06291e-06
0.000142628
9.07082e-06
0.000139601
9.07798e-06
0.000136573
9.08443e-06
0.000133542
9.0902e-06
0.00013051
9.09534e-06
0.000127477
9.09989e-06
0.000124442
9.10386e-06
0.000121406
9.10731e-06
0.000118369
9.11026e-06
0.000115331
9.11274e-06
0.000112292
9.11478e-06
0.000109253
9.11642e-06
0.000106214
9.11768e-06
0.000103174
9.1186e-06
0.000100134
9.11919e-06
9.70943e-05
9.11949e-06
9.40544e-05
9.11952e-06
9.10145e-05
9.1193e-06
8.79747e-05
9.11887e-06
8.49352e-05
9.11823e-06
8.1896e-05
9.11742e-06
7.88571e-05
9.11646e-06
7.58186e-05
9.11536e-06
7.27805e-05
9.11415e-06
6.97428e-05
9.11284e-06
6.67057e-05
9.11145e-06
6.3669e-05
9.11e-06
6.06328e-05
9.10851e-06
5.75971e-05
9.10699e-06
5.45619e-05
9.10546e-06
5.15273e-05
9.10393e-06
4.84932e-05
9.10241e-06
4.54596e-05
9.10091e-06
4.24264e-05
9.09945e-06
3.93938e-05
9.09804e-06
3.63616e-05
9.09669e-06
3.33298e-05
9.09541e-06
3.02985e-05
9.0942e-06
2.72675e-05
9.09308e-06
2.42369e-05
9.09205e-06
2.12066e-05
9.09112e-06
1.81765e-05
9.09029e-06
1.51467e-05
9.08958e-06
1.21171e-05
9.08897e-06
9.08771e-06
9.08848e-06
6.05841e-06
9.08812e-06
3.02918e-06
9.08787e-06
9.08775e-06
3.6985e-06
-1.47944e-05
7.39704e-06
-1.47945e-05
1.10956e-05
-1.47947e-05
1.47943e-05
-1.47951e-05
1.84931e-05
-1.47955e-05
2.21921e-05
-1.4796e-05
2.58912e-05
-1.47966e-05
2.95905e-05
-1.47973e-05
3.329e-05
-1.4798e-05
3.69897e-05
-1.47986e-05
4.06896e-05
-1.47993e-05
4.43896e-05
-1.47999e-05
4.80898e-05
-1.48004e-05
5.17902e-05
-1.48008e-05
5.54906e-05
-1.4801e-05
5.91911e-05
-1.4801e-05
6.28915e-05
-1.48007e-05
6.65919e-05
-1.48001e-05
7.02921e-05
-1.47992e-05
7.39919e-05
-1.47978e-05
7.76914e-05
-1.4796e-05
8.13904e-05
-1.47936e-05
8.50886e-05
-1.47906e-05
8.8786e-05
-1.4787e-05
9.24824e-05
-1.47826e-05
9.61775e-05
-1.47773e-05
9.98712e-05
-1.47712e-05
0.000103563
-1.47641e-05
0.000107253
-1.4756e-05
0.000110941
-1.47466e-05
0.000114626
-1.47361e-05
0.000118308
-1.47242e-05
0.000121987
-1.47109e-05
0.000125663
-1.46961e-05
0.000129334
-1.46797e-05
0.000133001
-1.46616e-05
0.000136663
-1.46416e-05
0.00014032
-1.46198e-05
0.000143971
-1.45959e-05
0.000147615
-1.45699e-05
0.000151253
-1.45416e-05
0.000154883
-1.4511e-05
0.000158504
-1.44779e-05
0.000162117
-1.44422e-05
0.000165721
-1.44038e-05
0.000169314
-1.43627e-05
0.000172896
-1.43186e-05
0.000176467
-1.42714e-05
0.000180025
-1.42211e-05
0.00018357
-1.41675e-05
0.000187101
-1.41106e-05
0.000190616
-1.40501e-05
0.000194116
-1.3986e-05
0.000197599
-1.39182e-05
0.000201064
-1.38466e-05
0.00020451
-1.37709e-05
0.000207937
-1.36913e-05
0.000211342
-1.36075e-05
0.000214726
-1.35194e-05
0.000218087
-1.34269e-05
0.000221423
-1.333e-05
0.000224734
-1.32285e-05
0.000228019
-1.31224e-05
0.000231276
-1.30116e-05
0.000234505
-1.2896e-05
0.000237703
-1.27755e-05
0.00024087
-1.265e-05
0.000244004
-1.25196e-05
0.000247104
-1.2384e-05
0.00025017
-1.22434e-05
0.000253199
-1.20976e-05
0.00025619
-1.19466e-05
0.000259142
-1.17904e-05
0.000262054
-1.16289e-05
0.000264924
-1.14622e-05
0.000267751
-1.12902e-05
0.000270534
-1.11129e-05
0.000273271
-1.09303e-05
0.000275961
-1.07425e-05
0.000278603
-1.05495e-05
0.000281196
-1.03513e-05
0.000283737
-1.01479e-05
0.000286226
-9.93945e-06
0.000288662
-9.72596e-06
0.000291043
-9.50751e-06
0.000293368
-9.28418e-06
0.000295637
-9.05605e-06
0.000297846
-8.82323e-06
0.000299997
-8.58581e-06
0.000302087
-8.34391e-06
0.000304115
-8.09765e-06
0.00030608
-7.84717e-06
0.000307982
-7.5926e-06
0.000309818
-7.33409e-06
0.00031159
-7.07179e-06
0.000313294
-6.80587e-06
0.000314931
-6.53649e-06
0.0003165
-6.26383e-06
0.000317999
-5.98808e-06
0.000319429
-5.70941e-06
0.000320788
-5.42802e-06
0.000322076
-5.14411e-06
0.000323293
-4.85788e-06
0.000324437
-4.56954e-06
0.000325508
-4.2793e-06
0.000326506
-3.98737e-06
0.000327431
-3.69396e-06
0.000328281
-3.3993e-06
0.000329058
-3.10361e-06
0.00032976
-2.8071e-06
0.000330388
-2.51e-06
0.000330941
-2.21253e-06
0.00033142
-1.91491e-06
0.000331824
-1.61736e-06
0.000332154
-1.3201e-06
0.000332409
-1.02334e-06
0.00033259
-7.27308e-07
0.000332697
-4.32205e-07
0.00033273
-1.38244e-07
0.00033269
1.54371e-07
0.000332578
4.4544e-07
0.000332392
7.34766e-07
0.000332135
1.02216e-06
0.000331806
1.30743e-06
0.000331406
1.5904e-06
0.000330936
1.87089e-06
0.000330396
2.14874e-06
0.000329788
2.42379e-06
0.000329111
2.69587e-06
0.000328367
2.96484e-06
0.000327557
3.23055e-06
0.00032668
3.49288e-06
0.000325739
3.75168e-06
0.000324734
4.00685e-06
0.000323666
4.25827e-06
0.000322536
4.50583e-06
0.000321346
4.74944e-06
0.000320095
4.989e-06
0.000318785
5.22443e-06
0.000317417
5.45565e-06
0.000315993
5.6826e-06
0.000314513
5.90522e-06
0.000312978
6.12344e-06
0.00031139
6.33723e-06
0.000309749
6.54653e-06
0.000308057
6.75133e-06
0.000306315
6.95159e-06
0.000304525
7.14728e-06
0.000302686
7.33841e-06
0.000300801
7.52495e-06
0.00029887
7.70691e-06
0.000296895
7.88429e-06
0.000294877
8.0571e-06
0.000292816
8.22535e-06
0.000290715
8.38907e-06
0.000288574
8.54827e-06
0.000286395
8.70299e-06
0.000284177
8.85326e-06
0.000281924
8.99911e-06
0.000279635
9.1406e-06
0.000277312
9.27775e-06
0.000274955
9.41063e-06
0.000272567
9.53928e-06
0.000270147
9.66376e-06
0.000267698
9.78412e-06
0.000265219
9.90043e-06
0.000262713
1.00128e-05
0.000260179
1.01211e-05
0.000257619
1.02257e-05
0.000255034
1.03264e-05
0.000252425
1.04235e-05
0.000249793
1.05168e-05
0.000247138
1.06066e-05
0.000244462
1.06929e-05
0.000241765
1.07758e-05
0.000239048
1.08553e-05
0.000236313
1.09316e-05
0.000233559
1.10047e-05
0.000230788
1.10746e-05
0.000228
1.11415e-05
0.000225196
1.12054e-05
0.000222377
1.12665e-05
0.000219543
1.13248e-05
0.000216696
1.13803e-05
0.000213835
1.14331e-05
0.000210962
1.14834e-05
0.000208077
1.15312e-05
0.000205181
1.15766e-05
0.000202274
1.16197e-05
0.000199357
1.16604e-05
0.00019643
1.1699e-05
0.000193495
1.17354e-05
0.00019055
1.17698e-05
0.000187598
1.18022e-05
0.000184638
1.18327e-05
0.000181672
1.18614e-05
0.000178698
1.18882e-05
0.000175718
1.19134e-05
0.000172733
1.19369e-05
0.000169742
1.19589e-05
0.000166745
1.19793e-05
0.000163745
1.19983e-05
0.00016074
1.20159e-05
0.00015773
1.20322e-05
0.000154718
1.20472e-05
0.000151701
1.2061e-05
0.000148682
1.20736e-05
0.00014566
1.20851e-05
0.000142635
1.20956e-05
0.000139608
1.21051e-05
0.000136579
1.21136e-05
0.000133548
1.21213e-05
0.000130515
1.21281e-05
0.000127481
1.21341e-05
0.000124445
1.21393e-05
0.000121409
1.21439e-05
0.000118371
1.21477e-05
0.000115333
1.2151e-05
0.000112294
1.21537e-05
0.000109255
1.21558e-05
0.000106215
1.21575e-05
0.000103175
1.21586e-05
0.000100135
1.21594e-05
9.70944e-05
1.21597e-05
9.40542e-05
1.21597e-05
9.10141e-05
1.21594e-05
8.79742e-05
1.21588e-05
8.49345e-05
1.21579e-05
8.18951e-05
1.21568e-05
7.88561e-05
1.21555e-05
7.58174e-05
1.2154e-05
7.27792e-05
1.21523e-05
6.97415e-05
1.21506e-05
6.67042e-05
1.21487e-05
6.36675e-05
1.21467e-05
6.06313e-05
1.21447e-05
5.75956e-05
1.21427e-05
5.45604e-05
1.21406e-05
5.15258e-05
1.21385e-05
4.84917e-05
1.21365e-05
4.54581e-05
1.21345e-05
4.24251e-05
1.21325e-05
3.93925e-05
1.21306e-05
3.63603e-05
1.21288e-05
3.33287e-05
1.21271e-05
3.02974e-05
1.21255e-05
2.72665e-05
1.2124e-05
2.4236e-05
1.21226e-05
2.12057e-05
1.21213e-05
1.81758e-05
1.21202e-05
1.51461e-05
1.21193e-05
1.21167e-05
1.21184e-05
9.08734e-06
1.21178e-05
6.05816e-06
1.21173e-05
3.02906e-06
1.2117e-05
1.21168e-05
3.69839e-06
-1.84928e-05
7.39681e-06
-1.84929e-05
1.10953e-05
-1.84932e-05
1.47939e-05
-1.84937e-05
1.84926e-05
-1.84942e-05
2.21915e-05
-1.84949e-05
2.58906e-05
-1.84957e-05
2.95898e-05
-1.84966e-05
3.32893e-05
-1.84974e-05
3.6989e-05
-1.84983e-05
4.0689e-05
-1.84992e-05
4.43891e-05
-1.85e-05
4.80895e-05
-1.85007e-05
5.179e-05
-1.85013e-05
5.54906e-05
-1.85016e-05
5.91914e-05
-1.85017e-05
6.28921e-05
-1.85015e-05
6.65928e-05
-1.85009e-05
7.02934e-05
-1.84998e-05
7.39938e-05
-1.84982e-05
7.76938e-05
-1.8496e-05
8.13934e-05
-1.84932e-05
8.50923e-05
-1.84896e-05
8.87905e-05
-1.84851e-05
9.24876e-05
-1.84798e-05
9.61837e-05
-1.84734e-05
9.98783e-05
-1.84659e-05
0.000103571
-1.84571e-05
0.000107262
-1.84471e-05
0.000110951
-1.84356e-05
0.000114638
-1.84226e-05
0.000118322
-1.84079e-05
0.000122002
-1.83915e-05
0.000125679
-1.83732e-05
0.000129352
-1.83529e-05
0.000133021
-1.83304e-05
0.000136685
-1.83057e-05
0.000140344
-1.82785e-05
0.000143997
-1.82489e-05
0.000147644
-1.82165e-05
0.000151284
-1.81814e-05
0.000154916
-1.81433e-05
0.00015854
-1.81022e-05
0.000162156
-1.80578e-05
0.000165762
-1.80101e-05
0.000169358
-1.79588e-05
0.000172944
-1.79039e-05
0.000176517
-1.78452e-05
0.000180079
-1.77825e-05
0.000183627
-1.77158e-05
0.000187161
-1.76448e-05
0.000190681
-1.75694e-05
0.000194184
-1.74895e-05
0.000197671
-1.7405e-05
0.00020114
-1.73156e-05
0.00020459
-1.72213e-05
0.000208021
-1.71219e-05
0.000211431
-1.70173e-05
0.000214819
-1.69074e-05
0.000218184
-1.6792e-05
0.000221525
-1.6671e-05
0.000224841
-1.65444e-05
0.00022813
-1.64119e-05
0.000231392
-1.62735e-05
0.000234625
-1.61291e-05
0.000237828
-1.59786e-05
0.000241
-1.58219e-05
0.00024414
-1.5659e-05
0.000247245
-1.54896e-05
0.000250316
-1.53139e-05
0.00025335
-1.51318e-05
0.000256346
-1.49431e-05
0.000259304
-1.47478e-05
0.000262221
-1.4546e-05
0.000265096
-1.43376e-05
0.000267929
-1.41226e-05
0.000270717
-1.39009e-05
0.000273459
-1.36727e-05
0.000276155
-1.34379e-05
0.000278802
-1.31966e-05
0.000281399
-1.29487e-05
0.000283946
-1.26944e-05
0.00028644
-1.24337e-05
0.000288881
-1.21667e-05
0.000291267
-1.18935e-05
0.000293597
-1.16142e-05
0.00029587
-1.13289e-05
0.000298084
-1.10376e-05
0.000300239
-1.07407e-05
0.000302333
-1.0438e-05
0.000304365
-1.013e-05
0.000306335
-9.81662e-06
0.00030824
-9.49813e-06
0.000310081
-9.1747e-06
0.000311856
-8.84653e-06
0.000313564
-8.51381e-06
0.000315204
-8.17676e-06
0.000316776
-7.8356e-06
0.000318278
-7.49055e-06
0.000319711
-7.14186e-06
0.000321072
-6.78975e-06
0.000322363
-6.43448e-06
0.000323581
-6.07631e-06
0.000324727
-5.71549e-06
0.0003258
-5.35229e-06
0.0003268
-4.98697e-06
0.000327725
-4.61981e-06
0.000328577
-4.25107e-06
0.000329355
-3.88104e-06
0.000330058
-3.50999e-06
0.000330686
-3.1382e-06
0.000331239
-2.76595e-06
0.000331718
-2.39351e-06
0.000332122
-2.02116e-06
0.000332451
-1.64918e-06
0.000332705
-1.27783e-06
0.000332885
-9.07392e-07
0.000332991
-5.38124e-07
0.000333023
-1.70289e-07
0.000332982
1.95856e-07
0.000332867
5.6006e-07
0.00033268
9.22076e-07
0.00033242
1.28166e-06
0.000332089
1.63859e-06
0.000331687
1.99263e-06
0.000331214
2.34357e-06
0.000330672
2.69119e-06
0.00033006
3.03528e-06
0.00032938
3.37566e-06
0.000328633
3.71214e-06
0.000327819
4.04453e-06
0.000326939
4.37268e-06
0.000325995
4.69641e-06
0.000324986
5.01559e-06
0.000323914
5.33006e-06
0.00032278
5.6397e-06
0.000321585
5.94438e-06
0.00032033
6.24398e-06
0.000319016
6.53841e-06
0.000317644
6.82757e-06
0.000316216
7.11138e-06
0.000314731
7.38974e-06
0.000313192
7.66261e-06
0.000311599
7.92992e-06
0.000309954
8.19162e-06
0.000308258
8.44766e-06
0.000306511
8.69802e-06
0.000304716
8.94267e-06
0.000302873
9.18159e-06
0.000300983
9.41478e-06
0.000299048
9.64222e-06
0.000297068
9.86393e-06
0.000295045
1.00799e-05
0.00029298
1.02902e-05
0.000290875
1.04948e-05
0.000288729
1.06937e-05
0.000286545
1.08871e-05
0.000284323
1.10748e-05
0.000282066
1.12571e-05
0.000279772
1.14339e-05
0.000277445
1.16052e-05
0.000275084
1.17712e-05
0.000272692
1.19319e-05
0.000270268
1.20874e-05
0.000267814
1.22378e-05
0.000265332
1.2383e-05
0.000262821
1.25233e-05
0.000260284
1.26587e-05
0.00025772
1.27892e-05
0.000255132
1.2915e-05
0.000252519
1.30362e-05
0.000249883
1.31527e-05
0.000247225
1.32649e-05
0.000244545
1.33726e-05
0.000241845
1.3476e-05
0.000239125
1.35753e-05
0.000236386
1.36705e-05
0.000233629