/*--------------------------------*- C++ -*----------------------------------*\
| =========                 |                                                 |
| \\      /  F ield         | OpenFOAM: The Open Source CFD Toolbox           |
|  \\    /   O peration     | Version:  v2012                                 |
|   \\  /    A nd           | Website:  www.openfoam.com                      |
|    \\/     M anipulation  |                                                 |
\*---------------------------------------------------------------------------*/
FoamFile
{
    version     2.0;
    format      ascii;
    class       volScalarField;
    location    "9";
    object      Psi_z;
}
// * * * * * * * * * * * * * * * * * * * * * * * * * * * * * * * * * * * * * //

dimensions      [0 2 -1 0 0 0 0];


internalField   nonuniform List<scalar> 
65536
(
9.24271e-06
2.77282e-05
4.6214e-05
6.47001e-05
8.31868e-05
0.000101674
0.000120162
0.000138651
0.000157141
0.000175632
0.000194124
0.000212617
0.000231111
0.000249605
0.0002681
0.000286596
0.000305091
0.000323587
0.000342081
0.000360575
0.000379066
0.000397556
0.000416042
0.000434525
0.000453003
0.000471475
0.000489941
0.000508399
0.000526848
0.000545286
0.000563712
0.000582125
0.000600523
0.000618903
0.000637265
0.000655605
0.000673923
0.000692214
0.000710478
0.000728711
0.000746911
0.000765075
0.000783199
0.000801281
0.000819318
0.000837306
0.00085524
0.000873119
0.000890938
0.000908692
0.000926378
0.000943991
0.000961527
0.000978982
0.00099635
0.00101363
0.00103081
0.00104789
0.00106486
0.00108172
0.00109846
0.00111508
0.00113157
0.00114793
0.00116414
0.00118021
0.00119613
0.00121188
0.00122747
0.00124289
0.00125813
0.00127319
0.00128805
0.00130272
0.00131718
0.00133143
0.00134547
0.00135928
0.00137285
0.00138619
0.00139929
0.00141214
0.00142473
0.00143705
0.00144911
0.00146089
0.00147239
0.0014836
0.00149452
0.00150514
0.00151545
0.00152545
0.00153514
0.00154451
0.00155355
0.00156226
0.00157064
0.00157867
0.00158637
0.00159372
0.00160071
0.00160736
0.00161365
0.00161957
0.00162514
0.00163034
0.00163518
0.00163964
0.00164374
0.00164747
0.00165082
0.00165381
0.00165642
0.00165865
0.00166052
0.00166201
0.00166313
0.00166388
0.00166426
0.00166427
0.00166392
0.00166321
0.00166213
0.00166069
0.0016589
0.00165675
0.00165425
0.00165141
0.00164822
0.0016447
0.00164083
0.00163664
0.00163212
0.00162728
0.00162212
0.00161664
0.00161086
0.00160478
0.00159839
0.00159172
0.00158475
0.00157751
0.00156998
0.00156219
0.00155413
0.00154581
0.00153724
0.00152842
0.00151935
0.00151005
0.00150051
0.00149076
0.00148078
0.00147058
0.00146018
0.00144958
0.00143878
0.00142778
0.00141661
0.00140525
0.00139371
0.00138201
0.00137014
0.00135812
0.00134594
0.00133361
0.00132114
0.00130853
0.00129579
0.00128292
0.00126992
0.0012568
0.00124358
0.00123024
0.00121679
0.00120324
0.0011896
0.00117586
0.00116203
0.00114812
0.00113412
0.00112005
0.0011059
0.00109168
0.00107739
0.00106304
0.00104863
0.00103416
0.00101963
0.00100506
0.00099043
0.000975756
0.000961038
0.000946279
0.000931481
0.000916646
0.000901776
0.000886874
0.000871943
0.000856983
0.000841997
0.000826986
0.000811953
0.0007969
0.000781827
0.000766736
0.00075163
0.000736508
0.000721374
0.000706227
0.000691069
0.000675901
0.000660725
0.000645542
0.000630351
0.000615155
0.000599954
0.000584749
0.00056954
0.000554329
0.000539116
0.000523901
0.000508686
0.00049347
0.000478254
0.000463039
0.000447825
0.000432612
0.000417401
0.000402191
0.000386984
0.000371778
0.000356575
0.000341375
0.000326177
0.000310982
0.00029579
0.000280601
0.000265414
0.00025023
0.000235049
0.000219871
0.000204695
0.000189521
0.00017435
0.000159181
0.000144015
0.00012885
0.000113687
9.85254e-05
8.33653e-05
6.82063e-05
5.30483e-05
3.78911e-05
2.27345e-05
7.57812e-06
2.77281e-05
8.31844e-05
0.000138642
0.0001941
0.00024956
0.000305022
0.000360486
0.000415953
0.000471423
0.000526896
0.000582372
0.00063785
0.000693332
0.000748815
0.000804301
0.000859787
0.000915274
0.00097076
0.00102624
0.00108173
0.0011372
0.00119267
0.00124813
0.00130358
0.00135901
0.00141443
0.00146983
0.00152521
0.00158055
0.00163587
0.00169115
0.00174639
0.00180158
0.00185673
0.00191182
0.00196684
0.00202179
0.00207667
0.00213146
0.00218617
0.00224077
0.00229526
0.00234964
0.00240389
0.002458
0.00251197
0.00256578
0.00261942
0.00267288
0.00272614
0.0027792
0.00283205
0.00288466
0.00293703
0.00298914
0.00304097
0.00309252
0.00314376
0.00319469
0.00324527
0.00329551
0.00334537
0.00339485
0.00344392
0.00349258
0.00354079
0.00358854
0.00363581
0.00368259
0.00372885
0.00377458
0.00381976
0.00386436
0.00390836
0.00395176
0.00399452
0.00403662
0.00407806
0.0041188
0.00415883
0.00419812
0.00423667
0.00427444
0.00431143
0.0043476
0.00438295
0.00441745
0.00445109
0.00448385
0.00451571
0.00454666
0.00457667
0.00460574
0.00463384
0.00466097
0.00468711
0.00471225
0.00473636
0.00475945
0.0047815
0.00480249
0.00482243
0.0048413
0.00485908
0.00487578
0.00489139
0.0049059
0.0049193
0.00493159
0.00494277
0.00495284
0.00496179
0.00496962
0.00497633
0.00498192
0.00498639
0.00498976
0.004992
0.00499315
0.00499318
0.00499212
0.00498997
0.00498674
0.00498242
0.00497704
0.0049706
0.0049631
0.00495457
0.004945
0.00493442
0.00492283
0.00491025
0.00489668
0.00488215
0.00486666
0.00485024
0.00483288
0.00481462
0.00479547
0.00477543
0.00475454
0.00473279
0.00471022
0.00468683
0.00466265
0.00463768
0.00461196
0.00458549
0.00455828
0.00453037
0.00450176
0.00447248
0.00444254
0.00441195
0.00438074
0.00434893
0.00431652
0.00428353
0.00424999
0.00421591
0.00418131
0.00414619
0.00411059
0.0040745
0.00403796
0.00400097
0.00396355
0.00392572
0.00388749
0.00384887
0.00380987
0.00377053
0.00373083
0.00369081
0.00365047
0.00360982
0.00356888
0.00352766
0.00348617
0.00344443
0.00340244
0.00336021
0.00331777
0.00327511
0.00323224
0.00318919
0.00314595
0.00310253
0.00305895
0.00301522
0.00297133
0.00292731
0.00288315
0.00283887
0.00279448
0.00274997
0.00270536
0.00266065
0.00261585
0.00257097
0.00252601
0.00248098
0.00243588
0.00239072
0.0023455
0.00230022
0.0022549
0.00220954
0.00216413
0.00211869
0.00207321
0.00202771
0.00198218
0.00193663
0.00189106
0.00184547
0.00179986
0.00175425
0.00170862
0.00166299
0.00161735
0.0015717
0.00152606
0.00148041
0.00143476
0.00138912
0.00134347
0.00129783
0.0012522
0.00120657
0.00116095
0.00111533
0.00106972
0.00102412
0.000978528
0.000932943
0.000887367
0.000841798
0.000796239
0.000750687
0.000705144
0.000659609
0.000614081
0.000568561
0.000523048
0.000477542
0.000432042
0.000386548
0.000341059
0.000295575
0.000250094
0.000204618
0.000159144
0.000113673
6.8203e-05
2.27342e-05
4.62132e-05
0.00013864
0.000231068
0.000323498
0.000415931
0.000508367
0.000600807
0.000693252
0.000785702
0.000878156
0.000970616
0.00106308
0.00115555
0.00124802
0.0013405
0.00143298
0.00152546
0.00161794
0.00171041
0.00180288
0.00189534
0.00198779
0.00208023
0.00217265
0.00226504
0.00235741
0.00244974
0.00254204
0.00263429
0.00272649
0.00281863
0.0029107
0.0030027
0.00309461
0.00318643
0.00327814
0.00336974
0.00346121
0.00355254
0.00364372
0.00373474
0.00382557
0.00391621
0.00400663
0.00409683
0.00418679
0.00427648
0.0043659
0.00445501
0.0045438
0.00463225
0.00472034
0.00480804
0.00489534
0.0049822
0.00506861
0.00515454
0.00523996
0.00532485
0.00540918
0.00549292
0.00557605
0.00565853
0.00574034
0.00582145
0.00590182
0.00598143
0.00606024
0.00613823
0.00621535
0.00629159
0.0063669
0.00644125
0.00651462
0.00658696
0.00665825
0.00672845
0.00679753
0.00686545
0.00693219
0.00699771
0.00706197
0.00712495
0.00718661
0.00724692
0.00730586
0.00736338
0.00741947
0.00747408
0.0075272
0.0075788
0.00762884
0.0076773
0.00772416
0.00776939
0.00781297
0.00785487
0.00789508
0.00793357
0.00797033
0.00800534
0.00803857
0.00807002
0.00809968
0.00812752
0.00815353
0.00817772
0.00820006
0.00822055
0.00823919
0.00825597
0.00827088
0.00828393
0.00829512
0.00830444
0.00831189
0.00831749
0.00832124
0.00832314
0.00832319
0.00832142
0.00831783
0.00831242
0.00830523
0.00829624
0.00828549
0.00827299
0.00825875
0.0082428
0.00822515
0.00820582
0.00818483
0.00816221
0.00813797
0.00811215
0.00808475
0.00805582
0.00802537
0.00799342
0.00796002
0.00792517
0.00788891
0.00785127
0.00781227
0.00777195
0.00773032
0.00768742
0.00764328
0.00759793
0.00755139
0.00750369
0.00745487
0.00740494
0.00735395
0.00730191
0.00724887
0.00719483
0.00713984
0.00708392
0.0070271
0.00696941
0.00691087
0.0068515
0.00679135
0.00673043
0.00666876
0.00660638
0.00654331
0.00647957
0.00641519
0.00635019
0.00628459
0.00621842
0.0061517
0.00608445
0.00601669
0.00594844
0.00587973
0.00581057
0.00574099
0.00567099
0.00560061
0.00552985
0.00545874
0.00538729
0.00531551
0.00524344
0.00517107
0.00509843
0.00502553
0.00495238
0.00487899
0.00480539
0.00473158
0.00465758
0.00458339
0.00450904
0.00443452
0.00435985
0.00428504
0.0042101
0.00413504
0.00405987
0.00398459
0.00390922
0.00383376
0.00375822
0.0036826
0.00360692
0.00353118
0.00345539
0.00337955
0.00330366
0.00322774
0.00315178
0.0030758
0.00299979
0.00292376
0.00284771
0.00277165
0.00269558
0.00261951
0.00254343
0.00246735
0.00239127
0.00231519
0.00223912
0.00216305
0.00208699
0.00201094
0.0019349
0.00185888
0.00178286
0.00170686
0.00163087
0.0015549
0.00147893
0.00140299
0.00132705
0.00125114
0.00117523
0.00109934
0.00102346
0.000947594
0.000871739
0.000795896
0.000720063
0.00064424
0.000568426
0.00049262
0.00041682
0.000341026
0.000265238
0.000189453
0.000113671
3.789e-05
6.46979e-05
0.000194094
0.000323492
0.000452893
0.000582298
0.000711708
0.000841124
0.000970546
0.00109998
0.00122941
0.00135886
0.00148831
0.00161776
0.00174723
0.0018767
0.00200617
0.00213564
0.00226512
0.00239458
0.00252405
0.0026535
0.00278293
0.00291235
0.00304174
0.0031711
0.00330042
0.0034297
0.00355892
0.00368808
0.00381717
0.00394617
0.00407509
0.0042039
0.00433259
0.00446115
0.00458956
0.00471781
0.00484589
0.00497377
0.00510144
0.00522888
0.00535607
0.00548299
0.00560961
0.00573591
0.00586187
0.00598747
0.00611267
0.00623746
0.0063618
0.00648566
0.00660901
0.00673183
0.00685408
0.00697572
0.00709673
0.00721707
0.00733669
0.00745558
0.00757368
0.00769095
0.00780737
0.00792289
0.00803746
0.00815105
0.00826362
0.00837511
0.0084855
0.00859472
0.00870274
0.00880952
0.008915
0.00901914
0.0091219
0.00922323
0.00932308
0.0094214
0.00951816
0.0096133
0.00970678
0.00979854
0.00988856
0.00997677
0.0100631
0.0101476
0.0102302
0.0103108
0.0103893
0.0104658
0.0105402
0.0106125
0.0106826
0.0107505
0.0108161
0.0108795
0.0109405
0.0109992
0.0110555
0.0111094
0.0111609
0.0112099
0.0112565
0.0113006
0.0113421
0.0113811
0.0114175
0.0114514
0.0114827
0.0115114
0.0115375
0.011561
0.0115819
0.0116001
0.0116158
0.0116288
0.0116393
0.0116471
0.0116523
0.011655
0.011655
0.0116525
0.0116475
0.0116399
0.0116298
0.0116172
0.0116021
0.0115846
0.0115647
0.0115423
0.0115176
0.0114905
0.0114611
0.0114294
0.0113954
0.0113592
0.0113208
0.0112803
0.0112376
0.0111928
0.011146
0.0110972
0.0110464
0.0109937
0.010939
0.0108825
0.0108242
0.0107641
0.0107023
0.0106388
0.0105736
0.0105067
0.0104384
0.0103684
0.010297
0.0102241
0.0101498
0.0100741
0.00999708
0.00991875
0.00983917
0.00975836
0.00967636
0.00959322
0.00950896
0.00942364
0.00933727
0.0092499
0.00916157
0.0090723
0.00898213
0.0088911
0.00879923
0.00870656
0.00861312
0.00851894
0.00842405
0.00832848
0.00823225
0.0081354
0.00803795
0.00793993
0.00784137
0.00774228
0.0076427
0.00754265
0.00744215
0.00734122
0.00723988
0.00713816
0.00703608
0.00693365
0.0068309
0.00672784
0.00662449
0.00652087
0.00641699
0.00631288
0.00620854
0.00610398
0.00599924
0.00589431
0.00578921
0.00568396
0.00557856
0.00547303
0.00536737
0.00526161
0.00515574
0.00504978
0.00494373
0.00483761
0.00473143
0.00462518
0.00451888
0.00441253
0.00430615
0.00419973
0.00409328
0.00398681
0.00388033
0.00377383
0.00366732
0.0035608
0.00345429
0.00334777
0.00324126
0.00313475
0.00302826
0.00292178
0.00281531
0.00270885
0.00260241
0.00249599
0.00238959
0.0022832
0.00217683
0.00207049
0.00196416
0.00185786
0.00175157
0.0016453
0.00153906
0.00143283
0.00132661
0.00122042
0.00111424
0.00100808
0.000901924
0.000795785
0.000689658
0.00058354
0.00047743
0.000371327
0.00026523
0.000159137
5.30453e-05
8.3182e-05
0.000249547
0.000415914
0.000582285
0.000748661
0.000915044
0.00108143
0.00124783
0.00141424
0.00158066
0.00174709
0.00191353
0.00207997
0.00224643
0.00241289
0.00257936
0.00274583
0.0029123
0.00307876
0.00324522
0.00341167
0.00357809
0.00374449
0.00391086
0.00407719
0.00424348
0.0044097
0.00457586
0.00474194
0.00490793
0.00507381
0.00523958
0.00540521
0.0055707
0.00573601
0.00590114
0.00606607
0.00623077
0.00639522
0.0065594
0.00672328
0.00688684
0.00705006
0.0072129
0.00737533
0.00753732
0.00769885
0.00785987
0.00802036
0.00818027
0.00833957
0.00849823
0.00865619
0.00881342
0.00896988
0.00912552
0.0092803
0.00943417
0.00958708
0.00973899
0.00988985
0.0100396
0.0101882
0.0103356
0.0104817
0.0106265
0.0107699
0.0109119
0.0110524
0.0111914
0.0113287
0.0114644
0.0115984
0.0117306
0.011861
0.0119894
0.0121159
0.0122404
0.0123628
0.0124831
0.0126011
0.0127169
0.0128304
0.0129416
0.0130503
0.0131565
0.0132601
0.0133612
0.0134596
0.0135554
0.0136484
0.0137385
0.0138259
0.0139103
0.0139918
0.0140704
0.0141459
0.0142184
0.0142877
0.014354
0.014417
0.0144769
0.0145336
0.014587
0.0146372
0.0146841
0.0147276
0.0147679
0.0148048
0.0148384
0.0148686
0.0148954
0.0149189
0.014939
0.0149558
0.0149692
0.0149793
0.014986
0.0149894
0.0149894
0.0149862
0.0149797
0.0149699
0.0149569
0.0149407
0.0149213
0.0148987
0.014873
0.0148442
0.0148123
0.0147774
0.0147396
0.0146988
0.014655
0.0146084
0.014559
0.0145068
0.0144519
0.0143943
0.0143341
0.0142712
0.0142059
0.014138
0.0140677
0.013995
0.0139199
0.0138426
0.013763
0.0136813
0.0135974
0.0135114
0.0134234
0.0133334
0.0132415
0.0131477
0.0130521
0.0129547
0.0128556
0.0127548
0.0126525
0.0125485
0.012443
0.012336
0.0122277
0.0121179
0.0120068
0.0118944
0.0117808
0.0116659
0.0115499
0.0114328
0.0113147
0.0111955
0.0110753
0.0109541
0.0108321
0.0107092
0.0105854
0.0104608
0.0103355
0.0102094
0.0100827
0.00995522
0.00982715
0.00969847
0.00956921
0.00943941
0.00930908
0.00917827
0.00904698
0.00891526
0.00878311
0.00865058
0.00851767
0.00838442
0.00825083
0.00811694
0.00798276
0.00784832
0.00771362
0.00757869
0.00744354
0.0073082
0.00717267
0.00703696
0.0069011
0.0067651
0.00662897
0.00649272
0.00635636
0.00621991
0.00608337
0.00594675
0.00581007
0.00567333
0.00553654
0.0053997
0.00526283
0.00512594
0.00498902
0.00485208
0.00471513
0.00457818
0.00444122
0.00430427
0.00416732
0.00403038
0.00389346
0.00375655
0.00361965
0.00348278
0.00334593
0.0032091
0.00307229
0.00293551
0.00279875
0.00266202
0.00252532
0.00238864
0.00225199
0.00211536
0.00197876
0.00184218
0.00170562
0.00156908
0.00143257
0.00129607
0.0011596
0.00102313
0.000886686
0.000750251
0.000613827
0.000477412
0.000341004
0.0002046
6.81997e-05
0.000101665
0.000304997
0.000508331
0.000711671
0.000915017
0.00111837
0.00132174
0.00152511
0.0017285
0.0019319
0.00213531
0.00233874
0.00254217
0.00274562
0.00294908
0.00315255
0.00335601
0.00355948
0.00376295
0.00396641
0.00416985
0.00437327
0.00457667
0.00478003
0.00498334
0.00518659
0.00538978
0.00559288
0.00579589
0.00599879
0.00620157
0.00640421
0.00660668
0.00680897
0.00701106
0.00721293
0.00741455
0.00761589
0.00781693
0.00801765
0.008218
0.00841797
0.00861751
0.00881659
0.00901518
0.00921324
0.00941073
0.00960761
0.00980383
0.00999936
0.0101941
0.0103881
0.0105813
0.0107735
0.0109649
0.0111552
0.0113444
0.0115326
0.0117196
0.0119054
0.0120898
0.012273
0.0124547
0.0126349
0.0128136
0.0129907
0.0131661
0.0133398
0.0135117
0.0136816
0.0138496
0.0140156
0.0141795
0.0143412
0.0145006
0.0146577
0.0148125
0.0149647
0.0151145
0.0152616
0.015406
0.0155476
0.0156865
0.0158224
0.0159554
0.0160853
0.0162121
0.0163358
0.0164562
0.0165733
0.016687
0.0167973
0.0169042
0.0170075
0.0171072
0.0172033
0.0172957
0.0173843
0.0174691
0.0175502
0.0176273
0.0177006
0.0177699
0.0178352
0.0178966
0.0179539
0.0180072
0.0180564
0.0181016
0.0181426
0.0181795
0.0182124
0.0182411
0.0182657
0.0182862
0.0183025
0.0183148
0.018323
0.0183271
0.0183272
0.0183232
0.0183152
0.0183032
0.0182872
0.0182673
0.0182435
0.0182159
0.0181844
0.0181491
0.0181101
0.0180674
0.018021
0.0179711
0.0179175
0.0178605
0.0178
0.0177362
0.0176689
0.0175984
0.0175247
0.0174478
0.0173678
0.0172847
0.0171987
0.0171097
0.0170179
0.0169233
0.0168259
0.0167259
0.0166232
0.0165181
0.0164104
0.0163003
0.0161879
0.0160731
0.0159562
0.0158371
0.0157158
0.0155926
0.0154673
0.0153402
0.0152111
0.0150803
0.0149477
0.0148135
0.0146776
0.0145401
0.0144012
0.0142607
0.0141189
0.0139757
0.0138311
0.0136854
0.0135384
0.0133903
0.013241
0.0130907
0.0129393
0.012787
0.0126338
0.0124796
0.0123246
0.0121688
0.0120122
0.0118549
0.0116968
0.0115381
0.0113788
0.0112188
0.0110583
0.0108973
0.0107357
0.0105737
0.0104112
0.0102483
0.010085
0.0099213
0.00975726
0.0095929
0.00942824
0.00926329
0.00909808
0.00893262
0.00876694
0.00860105
0.00843498
0.00826873
0.00810232
0.00793576
0.00776908
0.00760228
0.00743538
0.00726839
0.00710131
0.00693417
0.00676697
0.00659971
0.00643241
0.00626508
0.00609772
0.00593035
0.00576295
0.00559556
0.00542816
0.00526076
0.00509338
0.004926
0.00475864
0.0045913
0.00442398
0.00425669
0.00408942
0.00392218
0.00375497
0.0035878
0.00342065
0.00325353
0.00308645
0.0029194
0.00275238
0.00258539
0.00241843
0.0022515
0.0020846
0.00191773
0.00175088
0.00158405
0.00141725
0.00125047
0.0010837
0.000916952
0.000750215
0.000583489
0.000416772
0.000250061
8.33532e-05
0.000120148
0.000360444
0.000600744
0.00084105
0.00108136
0.00132169
0.00156203
0.00180238
0.00204274
0.00228312
0.00252352
0.00276393
0.00300436
0.00324481
0.00348526
0.00372573
0.0039662
0.00420667
0.00444715
0.00468761
0.00492806
0.00516849
0.00540888
0.00564923
0.00588954
0.00612977
0.00636993
0.00661
0.00684995
0.00708979
0.00732947
0.00756899
0.00780833
0.00804745
0.00828634
0.00852496
0.0087633
0.00900131
0.00923898
0.00947625
0.00971311
0.00994951
0.0101854
0.0104208
0.0106556
0.0108897
0.0111232
0.011356
0.011588
0.0118192
0.0120495
0.0122789
0.0125073
0.0127346
0.0129608
0.0131859
0.0134097
0.0136322
0.0138533
0.014073
0.0142912
0.0145078
0.0147227
0.0149359
0.0151472
0.0153567
0.0155641
0.0157695
0.0159728
0.0161738
0.0163725
0.0165689
0.0167627
0.016954
0.0171426
0.0173284
0.0175115
0.0176916
0.0178687
0.0180427
0.0182136
0.0183812
0.0185454
0.0187062
0.0188635
0.0190172
0.0191673
0.0193136
0.019456
0.0195946
0.0197291
0.0198596
0.019986
0.0201082
0.0202262
0.0203399
0.0204492
0.020554
0.0206544
0.0207502
0.0208415
0.0209282
0.0210102
0.0210875
0.02116
0.0212278
0.0212908
0.0213491
0.0214024
0.021451
0.0214946
0.0215334
0.0215674
0.0215964
0.0216206
0.02164
0.0216544
0.0216641
0.0216689
0.0216689
0.0216641
0.0216546
0.0216404
0.0216214
0.0215979
0.0215697
0.0215369
0.0214996
0.0214578
0.0214116
0.021361
0.0213061
0.0212469
0.0211836
0.021116
0.0210444
0.0209688
0.0208892
0.0208058
0.0207185
0.0206275
0.0205328
0.0204345
0.0203327
0.0202274
0.0201187
0.0200067
0.0198915
0.0197731
0.0196517
0.0195272
0.0193998
0.0192696
0.0191365
0.0190008
0.0188624
0.0187215
0.0185781
0.0184323
0.0182841
0.0181337
0.0179811
0.0178263
0.0176695
0.0175107
0.01735
0.0171874
0.017023
0.0168569
0.0166892
0.0165198
0.0163489
0.0161765
0.0160027
0.0158275
0.015651
0.0154732
0.0152943
0.0151142
0.0149329
0.0147507
0.0145674
0.0143831
0.014198
0.014012
0.0138251
0.0136375
0.0134491
0.01326
0.0130702
0.0128798
0.0126888
0.0124973
0.0123052
0.0121126
0.0119195
0.011726
0.0115321
0.0113378
0.0111431
0.0109482
0.0107529
0.0105573
0.0103614
0.0101653
0.00996903
0.00977251
0.00957581
0.00937894
0.00918192
0.00898477
0.00878749
0.00859011
0.00839263
0.00819507
0.00799745
0.00779976
0.00760203
0.00740425
0.00720645
0.00700862
0.00681078
0.00661294
0.00641509
0.00621725
0.00601942
0.0058216
0.00562381
0.00542604
0.00522829
0.00503057
0.00483289
0.00463524
0.00443763
0.00424005
0.00404251
0.00384501
0.00364755
0.00345012
0.00325274
0.00305539
0.00285808
0.0026608
0.00246356
0.00226635
0.00206917
0.00187201
0.00167489
0.00147778
0.0012807
0.00108364
0.000886592
0.000689558
0.000492534
0.000295518
9.85054e-05
0.000138629
0.000415888
0.000693151
0.000970421
0.0012477
0.001525
0.0018023
0.00207963
0.00235697
0.00263433
0.00291172
0.00318912
0.00346654
0.00374398
0.00402144
0.0042989
0.00457638
0.00485387
0.00513135
0.00540883
0.00568629
0.00596373
0.00624114
0.0065185
0.0067958
0.00707303
0.00735018
0.00762722
0.00790414
0.00818092
0.00845754
0.00873397
0.00901018
0.00928616
0.00956187
0.00983729
0.0101124
0.0103871
0.0106614
0.0109353
0.0112087
0.0114816
0.0117539
0.0120256
0.0122966
0.0125669
0.0128364
0.0131052
0.013373
0.0136399
0.0139058
0.0141706
0.0144343
0.0146968
0.014958
0.0152178
0.0154763
0.0157332
0.0159885
0.0162422
0.0164941
0.0167442
0.0169924
0.0172386
0.0174827
0.0177246
0.0179642
0.0182014
0.0184362
0.0186683
0.0188979
0.0191246
0.0193485
0.0195694
0.0197873
0.020002
0.0202134
0.0204215
0.0206261
0.0208271
0.0210245
0.0212181
0.0214078
0.0215936
0.0217753
0.0219529
0.0221262
0.0222952
0.0224597
0.0226198
0.0227753
0.022926
0.0230721
0.0232133
0.0233495
0.0234808
0.0236071
0.0237282
0.0238442
0.0239549
0.0240603
0.0241604
0.0242551
0.0243444
0.0244282
0.0245065
0.0245793
0.0246465
0.0247081
0.0247642
0.0248146
0.0248594
0.0248985
0.0249321
0.02496
0.0249822
0.0249989
0.02501
0.0250155
0.0250154
0.0250099
0.0249988
0.0249823
0.0249603
0.024933
0.0249004
0.0248624
0.0248193
0.0247709
0.0247175
0.024659
0.0245955
0.024527
0.0244537
0.0243757
0.0242929
0.0242054
0.0241134
0.0240169
0.0239161
0.0238108
0.0237014
0.0235878
0.0234701
0.0233484
0.0232228
0.0230934
0.0229602
0.0228235
0.0226831
0.0225393
0.0223921
0.0222416
0.0220879
0.0219311
0.0217712
0.0216084
0.0214428
0.0212743
0.0211032
0.0209294
0.0207531
0.0205744
0.0203932
0.0202098
0.0200242
0.0198364
0.0196466
0.0194548
0.019261
0.0190655
0.0188681
0.018669
0.0184683
0.018266
0.0180622
0.017857
0.0176504
0.0174424
0.0172332
0.0170227
0.0168111
0.0165984
0.0163846
0.0161699
0.0159542
0.0157376
0.0155201
0.0153018
0.0150827
0.0148629
0.0146425
0.0144213
0.0141996
0.0139773
0.0137545
0.0135311
0.0133073
0.013083
0.0128584
0.0126333
0.0124079
0.0121822
0.0119562
0.0117298
0.0115033
0.0112765
0.0110495
0.0108223
0.0105949
0.0103674
0.0101397
0.00991192
0.00968403
0.00945605
0.00922799
0.00899986
0.00877168
0.00854346
0.0083152
0.00808692
0.00785862
0.00763032
0.00740202
0.00717373
0.00694545
0.00671719
0.00648895
0.00626074
0.00603257
0.00580443
0.00557632
0.00534826
0.00512024
0.00489227
0.00466434
0.00443645
0.00420861
0.00398081
0.00375306
0.00352536
0.00329769
0.00307007
0.00284248
0.00261494
0.00238743
0.00215995
0.0019325
0.00170508
0.00147769
0.00125031
0.00102296
0.000795617
0.000568289
0.00034097
0.000113656
0.000157108
0.000471327
0.00078555
0.00109978
0.00141403
0.00172829
0.00204256
0.00235686
0.00267118
0.00298552
0.00329989
0.00361428
0.0039287
0.00424314
0.00455759
0.00487207
0.00518656
0.00550106
0.00581556
0.00613006
0.00644455
0.00675901
0.00707343
0.00738782
0.00770214
0.00801638
0.00833053
0.00864457
0.00895847
0.00927222
0.00958579
0.00989915
0.0102123
0.0105251
0.0108377
0.0111499
0.0114618
0.0117733
0.0120843
0.0123948
0.0127048
0.0130142
0.0133229
0.013631
0.0139383
0.0142448
0.0145505
0.0148552
0.0151589
0.0154616
0.0157631
0.0160635
0.0163625
0.0166602
0.0169565
0.0172512
0.0175443
0.0178357
0.0181254
0.0184131
0.0186989
0.0189826
0.0192642
0.0195434
0.0198203
0.0200947
0.0203666
0.0206357
0.0209021
0.0211655
0.0214259
0.0216832
0.0219373
0.022188
0.0224352
0.0226788
0.0229187
0.0231548
0.023387
0.0236151
0.0238391
0.0240588
0.0242741
0.024485
0.0246912
0.0248927
0.0250894
0.0252812
0.025468
0.0256496
0.0258261
0.0259972
0.0261629
0.0263232
0.0264778
0.0266268
0.0267701
0.0269076
0.0270392
0.0271648
0.0272845
0.0273981
0.0275055
0.0276068
0.0277019
0.0277908
0.0278733
0.0279496
0.0280195
0.028083
0.0281402
0.0281909
0.0282353
0.0282733
0.0283049
0.0283301
0.028349
0.0283615
0.0283676
0.0283675
0.0283611
0.0283484
0.0283296
0.0283046
0.0282735
0.0282364
0.0281932
0.0281441
0.0280892
0.0280284
0.0279619
0.0278897
0.027812
0.0277287
0.02764
0.0275459
0.0274466
0.0273421
0.0272325
0.0271179
0.0269984
0.0268741
0.0267451
0.0266115
0.0264733
0.0263307
0.0261838
0.0260326
0.0258773
0.025718
0.0255548
0.0253877
0.0252169
0.0250424
0.0248644
0.024683
0.0244982
0.0243102
0.0241191
0.0239248
0.0237277
0.0235276
0.0233248
0.0231193
0.0229112
0.0227006
0.0224876
0.0222722
0.0220546
0.0218348
0.0216129
0.021389
0.0211632
0.0209356
0.0207061
0.0204749
0.0202421
0.0200078
0.0197719
0.0195346
0.0192959
0.019056
0.0188147
0.0185723
0.0183288
0.0180841
0.0178385
0.0175919
0.0173444
0.017096
0.0168468
0.0165968
0.0163461
0.0160946
0.0158426
0.0155899
0.0153367
0.015083
0.0148287
0.014574
0.0143189
0.0140633
0.0138074
0.0135512
0.0132946
0.0130378
0.0127807
0.0125233
0.0122658
0.012008
0.0117501
0.011492
0.0112338
0.0109755
0.0107171
0.0104586
0.0102
0.00994138
0.00968269
0.00942397
0.00916523
0.00890647
0.0086477
0.00838894
0.00813019
0.00787146
0.00761275
0.00735407
0.00709542
0.00683681
0.00657824
0.00631972
0.00606124
0.00580282
0.00554444
0.00528612
0.00502784
0.00476963
0.00451146
0.00425334
0.00399528
0.00373726
0.00347929
0.00322137
0.00296349
0.00270565
0.00244785
0.00219009
0.00193235
0.00167465
0.00141696
0.00115931
0.000901664
0.000644036
0.000386418
0.000128805
0.000175586
0.00052676
0.000877941
0.00122913
0.00158034
0.00193156
0.0022828
0.00263407
0.00298537
0.00333669
0.00368804
0.00403942
0.00439083
0.00474227
0.00509374
0.00544523
0.00579673
0.00614825
0.00649978
0.00685131
0.00720282
0.00755432
0.00790578
0.0082572
0.00860855
0.00895982
0.00931099
0.00966205
0.010013
0.0103637
0.0107143
0.0110646
0.0114146
0.0117644
0.0121139
0.012463
0.0128117
0.0131599
0.0135076
0.0138548
0.0142015
0.0145474
0.0148927
0.0152372
0.0155808
0.0159236
0.0162654
0.0166062
0.0169459
0.0172845
0.0176217
0.0179576
0.0182921
0.0186251
0.0189565
0.0192862
0.0196141
0.0199401
0.0202641
0.020586
0.0209058
0.0212232
0.0215382
0.0218506
0.0221605
0.0224675
0.0227717
0.0230729
0.0233709
0.0236657
0.0239572
0.0242451
0.0245294
0.02481
0.0250866
0.0253593
0.0256278
0.0258921
0.026152
0.0264073
0.026658
0.0269039
0.027145
0.027381
0.0276118
0.0278374
0.0280576
0.0282723
0.0284814
0.0286847
0.0288822
0.0290738
0.0292593
0.0294387
0.0296118
0.0297786
0.029939
0.0300929
0.0302402
0.0303808
0.0305147
0.0306418
0.0307621
0.0308755
0.0309819
0.0310813
0.0311736
0.0312589
0.0313371
0.0314082
0.0314721
0.0315289
0.0315785
0.031621
0.0316563
0.0316844
0.0317054
0.0317193
0.0317261
0.0317258
0.0317185
0.0317043
0.0316831
0.031655
0.03162
0.0315783
0.0315299
0.0314749
0.0314132
0.0313451
0.0312705
0.0311896
0.0311024
0.0310091
0.0309097
0.0308043
0.030693
0.0305759
0.0304531
0.0303247
0.0301909
0.0300516
0.0299071
0.0297574
0.0296027
0.029443
0.0292784
0.0291091
0.0289353
0.0287569
0.0285741
0.028387
0.0281958
0.0280005
0.0278012
0.0275981
0.0273913
0.0271808
0.0269668
0.0267495
0.0265288
0.0263049
0.0260779
0.0258479
0.0256151
0.0253794
0.025141
0.0249
0.0246565
0.0244106
0.0241624
0.0239119
0.0236593
0.0234046
0.0231479
0.0228893
0.0226289
0.0223667
0.0221029
0.0218374
0.0215705
0.021302
0.0210322
0.0207611
0.0204887
0.0202151
0.0199404
0.0196646
0.0193878
0.0191101
0.0188314
0.0185518
0.0182715
0.0179903
0.0177085
0.017426
0.0171428
0.0168591
0.0165748
0.01629
0.0160048
0.0157191
0.015433
0.0151465
0.0148597
0.0145725
0.0142851
0.0139974
0.0137095
0.0134213
0.013133
0.0128445
0.0125559
0.0122671
0.0119782
0.0116893
0.0114002
0.0111111
0.010822
0.0105328
0.0102436
0.00995432
0.00966508
0.00937585
0.00908664
0.00879744
0.00850828
0.00821915
0.00793006
0.00764101
0.00735201
0.00706307
0.00677417
0.00648534
0.00619656
0.00590784
0.00561919
0.00533059
0.00504205
0.00475357
0.00446515
0.00417679
0.00388848
0.00360022
0.00331201
0.00302384
0.00273572
0.00244764
0.00215959
0.00187158
0.0015836
0.00129564
0.0010077
0.000719772
0.000431859
0.000143952
0.000194062
0.000582188
0.000970322
0.00135847
0.00174663
0.00213481
0.00252302
0.00291126
0.00329952
0.00368782
0.00407616
0.00446453
0.00485294
0.00524138
0.00562986
0.00601836
0.00640689
0.00679544
0.007184
0.00757256
0.00796112
0.00834966
0.00873817
0.00912664
0.00951504
0.00990336
0.0102916
0.0106797
0.0110676
0.0114554
0.0118429
0.0122303
0.0126173
0.013004
0.0133904
0.0137764
0.014162
0.014547
0.0149315
0.0153155
0.0156988
0.0160814
0.0164632
0.0168442
0.0172243
0.0176034
0.0179814
0.0183584
0.0187341
0.0191086
0.0194816
0.0198532
0.0202232
0.0205916
0.0209582
0.021323
0.0216857
0.0220464
0.0224049
0.0227611
0.0231149
0.0234662
0.0238147
0.0241605
0.0245034
0.0248432
0.0251798
0.0255131
0.025843
0.0261693
0.0264919
0.0268106
0.0271253
0.0274358
0.0277421
0.0280439
0.0283412
0.0286338
0.0289215
0.0292042
0.0294817
0.029754
0.0300208
0.0302821
0.0305377
0.0307875
0.0310313
0.031269
0.0315005
0.0317256
0.0319443
0.0321564
0.0323618
0.0325604
0.0327521
0.0329368
0.0331143
0.0332847
0.0334478
0.0336035
0.0337517
0.0338924
0.0340256
0.034151
0.0342688
0.0343788
0.0344811
0.0345754
0.0346619
0.0347406
0.0348113
0.034874
0.0349289
0.0349758
0.0350147
0.0350458
0.0350689
0.0350842
0.0350916
0.0350912
0.035083
0.0350671
0.0350434
0.0350122
0.0349734
0.0349271
0.0348733
0.0348122
0.0347438
0.0346682
0.0345855
0.0344957
0.0343991
0.0342956
0.0341853
0.0340685
0.0339451
0.0338153
0.0336793
0.033537
0.0333887
0.0332344
0.0330742
0.0329084
0.032737
0.03256
0.0323778
0.0321903
0.0319977
0.0318001
0.0315977
0.0313905
0.0311787
0.0309625
0.0307418
0.0305169
0.0302879
0.0300549
0.0298181
0.0295774
0.0293331
0.0290853
0.028834
0.0285795
0.0283217
0.0280609
0.0277971
0.0275304
0.0272609
0.0269888
0.0267141
0.0264369
0.0261574
0.0258756
0.0255915
0.0253054
0.0250173
0.0247273
0.0244354
0.0241418
0.0238464
0.0235495
0.0232511
0.0229512
0.0226499
0.0223473
0.0220434
0.0217384
0.0214322
0.021125
0.0208168
0.0205077
0.0201976
0.0198867
0.0195751
0.0192626
0.0189496
0.0186358
0.0183215
0.0180066
0.0176911
0.0173752
0.0170589
0.0167421