/*--------------------------------*- C++ -*----------------------------------*\
| =========                 |                                                 |
| \\      /  F ield         | OpenFOAM: The Open Source CFD Toolbox           |
|  \\    /   O peration     | Version:  v2012                                 |
|   \\  /    A nd           | Website:  www.openfoam.com                      |
|    \\/     M anipulation  |                                                 |
\*---------------------------------------------------------------------------*/
FoamFile
{
    version     2.0;
    format      ascii;
    class       volVectorField;
    location    "9";
    object      U;
}
// * * * * * * * * * * * * * * * * * * * * * * * * * * * * * * * * * * * * * //

dimensions      [0 1 -1 0 0 0 0];


internalField   nonuniform List<vector> 
65536
(
(0.000753485 -0.000753488 0)
(0.00226046 -0.000753494 0)
(0.00376745 -0.000753504 0)
(0.00527447 -0.00075352 0)
(0.00678153 -0.000753541 0)
(0.00828863 -0.000753565 0)
(0.00979579 -0.000753593 0)
(0.011303 -0.000753623 0)
(0.0128103 -0.000753653 0)
(0.0143176 -0.000753684 0)
(0.015825 -0.000753713 0)
(0.0173325 -0.000753738 0)
(0.01884 -0.000753759 0)
(0.0203475 -0.000753772 0)
(0.0218551 -0.000753777 0)
(0.0233626 -0.00075377 0)
(0.0248702 -0.00075375 0)
(0.0263776 -0.000753713 0)
(0.027885 -0.000753657 0)
(0.0293923 -0.00075358 0)
(0.0308994 -0.000753478 0)
(0.0324062 -0.000753347 0)
(0.0339128 -0.000753186 0)
(0.035419 -0.00075299 0)
(0.0369248 -0.000752755 0)
(0.0384301 -0.000752478 0)
(0.0399348 -0.000752155 0)
(0.0414387 -0.000751781 0)
(0.0429419 -0.000751353 0)
(0.0444442 -0.000750867 0)
(0.0459455 -0.000750317 0)
(0.0474455 -0.000749699 0)
(0.0489443 -0.000749009 0)
(0.0504417 -0.000748242 0)
(0.0519374 -0.000747391 0)
(0.0534313 -0.000746454 0)
(0.0549233 -0.000745423 0)
(0.0564131 -0.000744295 0)
(0.0579006 -0.000743063 0)
(0.0593855 -0.000741722 0)
(0.0608676 -0.000740267 0)
(0.0623467 -0.000738692 0)
(0.0638225 -0.000736991 0)
(0.0652947 -0.000735158 0)
(0.0667632 -0.000733188 0)
(0.0682276 -0.000731075 0)
(0.0696877 -0.000728813 0)
(0.071143 -0.000726396 0)
(0.0725934 -0.000723818 0)
(0.0740385 -0.000721073 0)
(0.0754779 -0.000718156 0)
(0.0769113 -0.00071506 0)
(0.0783383 -0.000711781 0)
(0.0797586 -0.000708312 0)
(0.0811717 -0.000704647 0)
(0.0825774 -0.000700782 0)
(0.0839751 -0.00069671 0)
(0.0853644 -0.000692426 0)
(0.086745 -0.000687926 0)
(0.0881163 -0.000683204 0)
(0.089478 -0.000678256 0)
(0.0908296 -0.000673076 0)
(0.0921706 -0.000667661 0)
(0.0935005 -0.000662005 0)
(0.0948188 -0.000656106 0)
(0.0961251 -0.000649959 0)
(0.0974189 -0.000643561 0)
(0.0986996 -0.000636909 0)
(0.0999668 -0.00063 0)
(0.10122 -0.000622832 0)
(0.102458 -0.000615401 0)
(0.103682 -0.000607707 0)
(0.104889 -0.000599747 0)
(0.106081 -0.000591521 0)
(0.107256 -0.000583028 0)
(0.108413 -0.000574267 0)
(0.109553 -0.000565239 0)
(0.110675 -0.000555944 0)
(0.111777 -0.000546383 0)
(0.11286 -0.000536557 0)
(0.113924 -0.000526468 0)
(0.114967 -0.000516118 0)
(0.115988 -0.00050551 0)
(0.116989 -0.000494647 0)
(0.117967 -0.000483533 0)
(0.118923 -0.000472171 0)
(0.119856 -0.000460566 0)
(0.120766 -0.000448723 0)
(0.121651 -0.000436647 0)
(0.122513 -0.000424345 0)
(0.123349 -0.000411821 0)
(0.12416 -0.000399084 0)
(0.124945 -0.000386139 0)
(0.125705 -0.000372995 0)
(0.126438 -0.000359658 0)
(0.127144 -0.000346139 0)
(0.127822 -0.000332444 0)
(0.128474 -0.000318583 0)
(0.129097 -0.000304565 0)
(0.129692 -0.000290399 0)
(0.130259 -0.000276096 0)
(0.130796 -0.000261664 0)
(0.131305 -0.000247116 0)
(0.131785 -0.00023246 0)
(0.132235 -0.000217708 0)
(0.132656 -0.00020287 0)
(0.133047 -0.000187957 0)
(0.133408 -0.000172981 0)
(0.133739 -0.000157952 0)
(0.13404 -0.000142882 0)
(0.13431 -0.000127782 0)
(0.134551 -0.000112663 0)
(0.134761 -9.75355e-05 0)
(0.134941 -8.24119e-05 0)
(0.135091 -6.73027e-05 0)
(0.13521 -5.2219e-05 0)
(0.135299 -3.71716e-05 0)
(0.135359 -2.21712e-05 0)
(0.135388 -7.22849e-06 0)
(0.135388 7.64631e-06 0)
(0.135357 2.2443e-05 0)
(0.135298 3.71515e-05 0)
(0.135209 5.17623e-05 0)
(0.135091 6.62659e-05 0)
(0.134944 8.0653e-05 0)
(0.134768 9.4915e-05 0)
(0.134564 0.000109043 0)
(0.134332 0.000123029 0)
(0.134071 0.000136865 0)
(0.133784 0.000150544 0)
(0.133469 0.000164058 0)
(0.133128 0.0001774 0)
(0.132759 0.000190564 0)
(0.132365 0.000203544 0)
(0.131945 0.000216334 0)
(0.1315 0.000228928 0)
(0.131029 0.000241322 0)
(0.130534 0.000253511 0)
(0.130015 0.000265491 0)
(0.129472 0.000277257 0)
(0.128906 0.000288807 0)
(0.128316 0.000300137 0)
(0.127705 0.000311245 0)
(0.127071 0.000322127 0)
(0.126416 0.000332782 0)
(0.12574 0.000343209 0)
(0.125043 0.000353405 0)
(0.124326 0.00036337 0)
(0.123589 0.000373102 0)
(0.122833 0.000382603 0)
(0.122059 0.00039187 0)
(0.121266 0.000400905 0)
(0.120455 0.000409708 0)
(0.119627 0.00041828 0)
(0.118781 0.000426621 0)
(0.11792 0.000434733 0)
(0.117042 0.000442618 0)
(0.116149 0.000450276 0)
(0.115241 0.00045771 0)
(0.114318 0.000464922 0)
(0.113381 0.000471914 0)
(0.11243 0.000478689 0)
(0.111466 0.000485248 0)
(0.110489 0.000491596 0)
(0.1095 0.000497735 0)
(0.108498 0.000503667 0)
(0.107485 0.000509396 0)
(0.10646 0.000514926 0)
(0.105425 0.00052026 0)
(0.104379 0.0005254 0)
(0.103323 0.000530352 0)
(0.102257 0.000535118 0)
(0.101182 0.000539702 0)
(0.100098 0.000544108 0)
(0.0990057 0.000548339 0)
(0.0979048 0.0005524 0)
(0.0967959 0.000556295 0)
(0.0956795 0.000560026 0)
(0.0945557 0.000563599 0)
(0.0934249 0.000567018 0)
(0.0922875 0.000570285 0)
(0.0911436 0.000573406 0)
(0.0899937 0.000576383 0)
(0.088838 0.000579222 0)
(0.0876767 0.000581925 0)
(0.0865101 0.000584498 0)
(0.0853386 0.000586943 0)
(0.0841622 0.000589265 0)
(0.0829814 0.000591467 0)
(0.0817963 0.000593553 0)
(0.0806071 0.000595527 0)
(0.079414 0.000597393 0)
(0.0782174 0.000599154 0)
(0.0770173 0.000600814 0)
(0.075814 0.000602377 0)
(0.0746077 0.000603846 0)
(0.0733986 0.000605224 0)
(0.0721867 0.000606515 0)
(0.0709724 0.000607722 0)
(0.0697558 0.000608849 0)
(0.068537 0.000609899 0)
(0.0673161 0.000610874 0)
(0.0660934 0.000611779 0)
(0.0648689 0.000612616 0)
(0.0636429 0.000613388 0)
(0.0624153 0.000614098 0)
(0.0611864 0.000614749 0)
(0.0599563 0.000615343 0)
(0.058725 0.000615884 0)
(0.0574927 0.000616374 0)
(0.0562594 0.000616816 0)
(0.0550254 0.000617213 0)
(0.0537906 0.000617566 0)
(0.0525551 0.000617878 0)
(0.051319 0.000618151 0)
(0.0500824 0.000618389 0)
(0.0488454 0.000618593 0)
(0.047608 0.000618764 0)
(0.0463703 0.000618906 0)
(0.0451324 0.000619021 0)
(0.0438942 0.00061911 0)
(0.0426559 0.000619175 0)
(0.0414175 0.000619218 0)
(0.040179 0.000619241 0)
(0.0389405 0.000619245 0)
(0.037702 0.000619233 0)
(0.0364636 0.000619206 0)
(0.0352252 0.000619165 0)
(0.0339869 0.000619113 0)
(0.0327487 0.000619049 0)
(0.0315107 0.000618977 0)
(0.0302728 0.000618896 0)
(0.0290351 0.00061881 0)
(0.0277976 0.000618717 0)
(0.0265602 0.000618621 0)
(0.0253231 0.000618521 0)
(0.0240862 0.00061842 0)
(0.0228494 0.000618317 0)
(0.0216129 0.000618214 0)
(0.0203766 0.000618112 0)
(0.0191405 0.000618012 0)
(0.0179045 0.000617914 0)
(0.0166688 0.00061782 0)
(0.0154333 0.000617729 0)
(0.0141979 0.000617643 0)
(0.0129627 0.000617562 0)
(0.0117277 0.000617486 0)
(0.0104928 0.000617417 0)
(0.00925799 0.000617354 0)
(0.00802335 0.000617299 0)
(0.0067888 0.00061725 0)
(0.00555435 0.00061721 0)
(0.00431998 0.000617177 0)
(0.00308566 0.000617152 0)
(0.00185138 0.000617136 0)
(0.000617123 0.000617127 0)
(0.00075348 -0.00226046 0)
(0.00226044 -0.00226048 0)
(0.00376743 -0.00226051 0)
(0.00527444 -0.00226056 0)
(0.00678149 -0.00226062 0)
(0.00828858 -0.00226069 0)
(0.00979573 -0.00226078 0)
(0.0113029 -0.00226087 0)
(0.0128102 -0.00226096 0)
(0.0143176 -0.00226105 0)
(0.015825 -0.00226114 0)
(0.0173324 -0.00226122 0)
(0.0188399 -0.00226128 0)
(0.0203475 -0.00226133 0)
(0.0218551 -0.00226134 0)
(0.0233627 -0.00226132 0)
(0.0248702 -0.00226126 0)
(0.0263777 -0.00226116 0)
(0.0278852 -0.00226099 0)
(0.0293925 -0.00226076 0)
(0.0308996 -0.00226046 0)
(0.0324065 -0.00226007 0)
(0.0339132 -0.00225959 0)
(0.0354194 -0.00225901 0)
(0.0369253 -0.00225831 0)
(0.0384307 -0.00225748 0)
(0.0399354 -0.00225651 0)
(0.0414395 -0.0022554 0)
(0.0429428 -0.00225412 0)
(0.0444452 -0.00225266 0)
(0.0459466 -0.00225102 0)
(0.0474468 -0.00224917 0)
(0.0489458 -0.0022471 0)
(0.0504433 -0.00224481 0)
(0.0519392 -0.00224226 0)
(0.0534333 -0.00223945 0)
(0.0549254 -0.00223637 0)
(0.0564155 -0.00223299 0)
(0.0579031 -0.0022293 0)
(0.0593882 -0.00222528 0)
(0.0608706 -0.00222092 0)
(0.0623499 -0.0022162 0)
(0.063826 -0.0022111 0)
(0.0652985 -0.00220561 0)
(0.0667673 -0.00219971 0)
(0.068232 -0.00219337 0)
(0.0696923 -0.00218659 0)
(0.071148 -0.00217935 0)
(0.0725987 -0.00217162 0)
(0.0740441 -0.00216339 0)
(0.0754839 -0.00215464 0)
(0.0769176 -0.00214536 0)
(0.078345 -0.00213553 0)
(0.0797657 -0.00212513 0)
(0.0811793 -0.00211414 0)
(0.0825853 -0.00210255 0)
(0.0839834 -0.00209034 0)
(0.0853732 -0.00207749 0)
(0.0867542 -0.002064 0)
(0.088126 -0.00204984 0)
(0.0894881 -0.002035 0)
(0.0908402 -0.00201946 0)
(0.0921816 -0.00200322 0)
(0.093512 -0.00198626 0)
(0.0948309 -0.00196856 0)
(0.0961377 -0.00195013 0)
(0.0974319 -0.00193094 0)
(0.0987132 -0.00191098 0)
(0.0999809 -0.00189026 0)
(0.101234 -0.00186875 0)
(0.102473 -0.00184646 0)
(0.103697 -0.00182338 0)
(0.104906 -0.0017995 0)
(0.106098 -0.00177483 0)
(0.107273 -0.00174935 0)
(0.108431 -0.00172307 0)
(0.109571 -0.00169598 0)
(0.110693 -0.0016681 0)
(0.111797 -0.00163941 0)
(0.11288 -0.00160993 0)
(0.113944 -0.00157966 0)
(0.114987 -0.00154861 0)
(0.11601 -0.00151678 0)
(0.117011 -0.00148419 0)
(0.11799 -0.00145084 0)
(0.118946 -0.00141675 0)
(0.11988 -0.00138193 0)
(0.12079 -0.0013464 0)
(0.121676 -0.00131017 0)
(0.122537 -0.00127325 0)
(0.123374 -0.00123568 0)
(0.124186 -0.00119746 0)
(0.124971 -0.00115861 0)
(0.125731 -0.00111917 0)
(0.126464 -0.00107916 0)
(0.127171 -0.00103859 0)
(0.12785 -0.000997495 0)
(0.128501 -0.000955903 0)
(0.129125 -0.000913839 0)
(0.12972 -0.000871333 0)
(0.130287 -0.000828413 0)
(0.130825 -0.000785109 0)
(0.131334 -0.000741452 0)
(0.131814 -0.000697474 0)
(0.132265 -0.000653207 0)
(0.132686 -0.000608682 0)
(0.133077 -0.000563934 0)
(0.133438 -0.000518994 0)
(0.133769 -0.000473897 0)
(0.13407 -0.000428675 0)
(0.134341 -0.000383363 0)
(0.134581 -0.000337994 0)
(0.134791 -0.000292602 0)
(0.134971 -0.00024722 0)
(0.135121 -0.000201881 0)
(0.13524 -0.000156619 0)
(0.135329 -0.000111467 0)
(0.135389 -6.64549e-05 0)
(0.135418 -2.16163e-05 0)
(0.135417 2.30181e-05 0)
(0.135387 6.7418e-05 0)
(0.135327 0.000111553 0)
(0.135238 0.000155395 0)
(0.135119 0.000198915 0)
(0.134972 0.000242085 0)
(0.134796 0.000284879 0)
(0.134592 0.000327272 0)
(0.134359 0.000369238 0)
(0.134099 0.000410754 0)
(0.133811 0.000451797 0)
(0.133496 0.000492345 0)
(0.133154 0.000532378 0)
(0.132785 0.000571877 0)
(0.132391 0.000610822 0)
(0.13197 0.000649197 0)
(0.131524 0.000686985 0)
(0.131054 0.000724172 0)
(0.130558 0.000760743 0)
(0.130039 0.000796686 0)
(0.129495 0.000831989 0)
(0.128928 0.000866641 0)
(0.128339 0.000900634 0)
(0.127727 0.000933959 0)
(0.127093 0.000966608 0)
(0.126437 0.000998575 0)
(0.12576 0.00102986 0)
(0.125063 0.00106044 0)
(0.124346 0.00109034 0)
(0.123608 0.00111954 0)
(0.122852 0.00114804 0)
(0.122077 0.00117584 0)
(0.121283 0.00120295 0)
(0.120472 0.00122936 0)
(0.119643 0.00125507 0)
(0.118798 0.00128009 0)
(0.117936 0.00130443 0)
(0.117058 0.00132808 0)
(0.116164 0.00135105 0)
(0.115256 0.00137335 0)
(0.114332 0.00139498 0)
(0.113395 0.00141596 0)
(0.112444 0.00143628 0)
(0.111479 0.00145596 0)
(0.110501 0.001475 0)
(0.109512 0.00149341 0)
(0.108509 0.0015112 0)
(0.107496 0.00152839 0)
(0.106471 0.00154497 0)
(0.105435 0.00156097 0)
(0.104389 0.00157639 0)
(0.103333 0.00159124 0)
(0.102267 0.00160553 0)
(0.101191 0.00161928 0)
(0.100107 0.0016325 0)
(0.0990139 0.00164519 0)
(0.0979127 0.00165737 0)
(0.0968035 0.00166904 0)
(0.0956867 0.00168024 0)
(0.0945626 0.00169095 0)
(0.0934315 0.0017012 0)
(0.0922938 0.001711 0)
(0.0911497 0.00172036 0)
(0.0899994 0.00172929 0)
(0.0888434 0.0017378 0)
(0.0876819 0.00174591 0)
(0.0865151 0.00175362 0)
(0.0853433 0.00176095 0)
(0.0841667 0.00176791 0)
(0.0829856 0.00177451 0)
(0.0818003 0.00178077 0)
(0.0806108 0.00178669 0)
(0.0794176 0.00179228 0)
(0.0782208 0.00179756 0)
(0.0770205 0.00180254 0)
(0.075817 0.00180722 0)
(0.0746105 0.00181163 0)
(0.0734012 0.00181576 0)
(0.0721892 0.00181963 0)
(0.0709747 0.00182324 0)
(0.0697579 0.00182662 0)
(0.0685389 0.00182977 0)
(0.0673179 0.00183269 0)
(0.0660951 0.0018354 0)
(0.0648705 0.00183791 0)
(0.0636443 0.00184022 0)
(0.0624166 0.00184235 0)
(0.0611876 0.0018443 0)
(0.0599574 0.00184608 0)
(0.058726 0.0018477 0)
(0.0574936 0.00184917 0)
(0.0562602 0.00185049 0)
(0.0550261 0.00185168 0)
(0.0537912 0.00185274 0)
(0.0525556 0.00185367 0)
(0.0513195 0.00185449 0)
(0.0500828 0.0018552 0)
(0.0488458 0.00185581 0)
(0.0476083 0.00185632 0)
(0.0463706 0.00185674 0)
(0.0451326 0.00185709 0)
(0.0438944 0.00185735 0)
(0.042656 0.00185754 0)
(0.0414175 0.00185767 0)
(0.040179 0.00185774 0)
(0.0389405 0.00185775 0)
(0.037702 0.00185771 0)
(0.0364635 0.00185763 0)
(0.0352251 0.00185751 0)
(0.0339868 0.00185735 0)
(0.0327486 0.00185716 0)
(0.0315105 0.00185694 0)
(0.0302726 0.00185669 0)
(0.0290349 0.00185643 0)
(0.0277974 0.00185615 0)
(0.02656 0.00185586 0)
(0.0253229 0.00185556 0)
(0.0240859 0.00185526 0)
(0.0228492 0.00185495 0)
(0.0216127 0.00185464 0)
(0.0203764 0.00185433 0)
(0.0191402 0.00185403 0)
(0.0179043 0.00185374 0)
(0.0166686 0.00185345 0)
(0.0154331 0.00185318 0)
(0.0141977 0.00185292 0)
(0.0129625 0.00185268 0)
(0.0117275 0.00185245 0)
(0.0104926 0.00185224 0)
(0.00925787 0.00185205 0)
(0.00802324 0.00185189 0)
(0.00678871 0.00185174 0)
(0.00555428 0.00185162 0)
(0.00431992 0.00185152 0)
(0.00308561 0.00185145 0)
(0.00185135 0.0018514 0)
(0.000617115 0.00185137 0)
(0.000753468 -0.00376741 0)
(0.00226041 -0.00376744 0)
(0.00376737 -0.0037675 0)
(0.00527436 -0.00376758 0)
(0.00678139 -0.00376768 0)
(0.00828847 -0.00376781 0)
(0.00979561 -0.00376795 0)
(0.0113028 -0.00376811 0)
(0.0128101 -0.00376827 0)
(0.0143174 -0.00376843 0)
(0.0158248 -0.00376858 0)
(0.0173323 -0.00376872 0)
(0.0188399 -0.00376883 0)
(0.0203474 -0.00376891 0)
(0.0218551 -0.00376894 0)
(0.0233627 -0.00376892 0)
(0.0248703 -0.00376883 0)
(0.0263779 -0.00376866 0)
(0.0278854 -0.00376839 0)
(0.0293928 -0.00376802 0)
(0.0309001 -0.00376753 0)
(0.0324071 -0.00376689 0)
(0.0339139 -0.0037661 0)
(0.0354203 -0.00376514 0)
(0.0369263 -0.00376398 0)
(0.0384319 -0.00376262 0)
(0.0399368 -0.00376102 0)
(0.0414411 -0.00375918 0)
(0.0429447 -0.00375706 0)
(0.0444473 -0.00375465 0)
(0.0459489 -0.00375192 0)
(0.0474495 -0.00374886 0)
(0.0489487 -0.00374543 0)
(0.0504465 -0.00374162 0)
(0.0519427 -0.00373739 0)
(0.0534372 -0.00373273 0)
(0.0549297 -0.0037276 0)
(0.0564202 -0.00372199 0)
(0.0579083 -0.00371586 0)
(0.0593938 -0.00370918 0)
(0.0608766 -0.00370193 0)
(0.0623565 -0.00369409 0)
(0.063833 -0.00368561 0)
(0.0653061 -0.00367647 0)
(0.0667755 -0.00366665 0)
(0.0682407 -0.00365612 0)
(0.0697017 -0.00364483 0)
(0.071158 -0.00363278 0)
(0.0726094 -0.00361992 0)
(0.0740554 -0.00360622 0)
(0.0754959 -0.00359167 0)
(0.0769304 -0.00357622 0)
(0.0783585 -0.00355985 0)
(0.07978 -0.00354253 0)
(0.0811943 -0.00352424 0)
(0.0826012 -0.00350494 0)
(0.0840001 -0.0034846 0)
(0.0853907 -0.00346321 0)
(0.0867726 -0.00344074 0)
(0.0881453 -0.00341715 0)
(0.0895084 -0.00339243 0)
(0.0908614 -0.00336655 0)
(0.0922038 -0.0033395 0)
(0.0935351 -0.00331124 0)
(0.094855 -0.00328176 0)
(0.0961628 -0.00325105 0)
(0.0974581 -0.00321907 0)
(0.0987403 -0.00318583 0)
(0.100009 -0.0031513 0)
(0.101264 -0.00311546 0)
(0.102504 -0.00307832 0)
(0.103729 -0.00303985 0)
(0.104938 -0.00300006 0)
(0.106131 -0.00295894 0)
(0.107308 -0.00291647 0)
(0.108467 -0.00287267 0)
(0.109608 -0.00282753 0)
(0.110731 -0.00278105 0)
(0.111835 -0.00273323 0)
(0.11292 -0.0026841 0)
(0.113985 -0.00263364 0)
(0.115029 -0.00258188 0)
(0.116053 -0.00252882 0)
(0.117055 -0.00247449 0)
(0.118035 -0.0024189 0)
(0.118992 -0.00236207 0)
(0.119927 -0.00230402 0)
(0.120837 -0.00224477 0)
(0.121724 -0.00218437 0)
(0.122587 -0.00212282 0)
(0.123425 -0.00206017 0)
(0.124237 -0.00199645 0)
(0.125024 -0.00193169 0)
(0.125784 -0.00186593 0)
(0.126518 -0.00179921 0)
(0.127225 -0.00173156 0)
(0.127905 -0.00166305 0)
(0.128557 -0.0015937 0)
(0.129181 -0.00152356 0)
(0.129777 -0.00145268 0)
(0.130345 -0.00138111 0)
(0.130883 -0.00130891 0)
(0.131393 -0.00123611 0)
(0.131873 -0.00116278 0)
(0.132324 -0.00108896 0)
(0.132745 -0.00101472 0)
(0.133137 -0.000940102 0)
(0.133498 -0.000865165 0)
(0.133829 -0.000789965 0)
(0.13413 -0.000714558 0)
(0.134401 -0.000639001 0)
(0.134642 -0.000563349 0)
(0.134852 -0.000487658 0)
(0.135032 -0.000411984 0)
(0.135181 -0.000336384 0)
(0.135301 -0.000260911 0)
(0.13539 -0.00018562 0)
(0.135449 -0.000110566 0)
(0.135478 -3.58002e-05 0)
(0.135477 3.86245e-05 0)
(0.135446 0.000112657 0)
(0.135386 0.000186249 0)
(0.135296 0.00025935 0)
(0.135177 0.000331913 0)
(0.13503 0.000403893 0)
(0.134853 0.000475246 0)
(0.134648 0.000545927 0)
(0.134415 0.000615897 0)
(0.134154 0.000685115 0)
(0.133866 0.000753544 0)
(0.13355 0.000821148 0)
(0.133207 0.000887891 0)
(0.132838 0.000953742 0)
(0.132442 0.00101867 0)
(0.132021 0.00108265 0)
(0.131575 0.00114564 0)
(0.131103 0.00120764 0)
(0.130607 0.0012686 0)
(0.130086 0.00132852 0)
(0.129542 0.00138737 0)
(0.128974 0.00144514 0)
(0.128384 0.0015018 0)
(0.127771 0.00155735 0)
(0.127136 0.00161177 0)
(0.126479 0.00166505 0)
(0.125802 0.00171719 0)
(0.125103 0.00176818 0)
(0.124385 0.00181801 0)
(0.123647 0.00186667 0)
(0.12289 0.00191417 0)
(0.122114 0.00196051 0)
(0.121319 0.00200569 0)
(0.120507 0.0020497 0)
(0.119677 0.00209255 0)
(0.118831 0.00213425 0)
(0.117968 0.0021748 0)
(0.117089 0.00221422 0)
(0.116194 0.0022525 0)
(0.115285 0.00228966 0)
(0.114361 0.00232571 0)
(0.113422 0.00236066 0)
(0.11247 0.00239451 0)
(0.111505 0.0024273 0)
(0.110526 0.00245902 0)
(0.109536 0.0024897 0)
(0.108533 0.00251935 0)
(0.107518 0.00254798 0)
(0.106493 0.00257561 0)
(0.105456 0.00260226 0)
(0.104409 0.00262795 0)
(0.103352 0.00265268 0)
(0.102285 0.0026765 0)
(0.101209 0.0026994 0)
(0.100124 0.00272141 0)
(0.0990305 0.00274254 0)
(0.0979286 0.00276283 0)
(0.0968188 0.00278228 0)
(0.0957013 0.00280092 0)
(0.0945766 0.00281877 0)
(0.0934449 0.00283584 0)
(0.0923066 0.00285216 0)
(0.0911619 0.00286774 0)
(0.0900111 0.00288261 0)
(0.0888545 0.00289678 0)
(0.0876925 0.00291028 0)
(0.0865251 0.00292312 0)
(0.0853528 0.00293533 0)
(0.0841758 0.00294692 0)
(0.0829942 0.00295791 0)
(0.0818084 0.00296832 0)
(0.0806185 0.00297817 0)
(0.0794249 0.00298748 0)
(0.0782276 0.00299627 0)
(0.0770269 0.00300455 0)
(0.0758231 0.00301235 0)
(0.0746162 0.00301968 0)
(0.0734065 0.00302655 0)
(0.0721942 0.00303299 0)
(0.0709794 0.00303901 0)
(0.0697623 0.00304463 0)
(0.068543 0.00304986 0)
(0.0673217 0.00305472 0)
(0.0660986 0.00305923 0)
(0.0648737 0.0030634 0)
(0.0636473 0.00306724 0)
(0.0624194 0.00307078 0)
(0.0611901 0.00307402 0)
(0.0599596 0.00307698 0)
(0.0587281 0.00307967 0)
(0.0574955 0.00308211 0)
(0.0562619 0.00308431 0)
(0.0550276 0.00308628 0)
(0.0537925 0.00308803 0)
(0.0525568 0.00308958 0)
(0.0513205 0.00309093 0)
(0.0500837 0.00309211 0)
(0.0488465 0.00309312 0)
(0.047609 0.00309397 0)
(0.0463711 0.00309467 0)
(0.045133 0.00309523 0)
(0.0438947 0.00309566 0)
(0.0426562 0.00309598 0)
(0.0414177 0.00309619 0)
(0.0401791 0.00309629 0)
(0.0389405 0.00309631 0)
(0.0377019 0.00309624 0)
(0.0364634 0.00309609 0)
(0.0352249 0.00309588 0)
(0.0339865 0.00309561 0)
(0.0327483 0.00309529 0)
(0.0315102 0.00309492 0)
(0.0302723 0.00309451 0)
(0.0290346 0.00309407 0)
(0.027797 0.0030936 0)
(0.0265596 0.00309312 0)
(0.0253225 0.00309261 0)
(0.0240855 0.0030921 0)
(0.0228488 0.00309158 0)
(0.0216123 0.00309106 0)
(0.020376 0.00309055 0)
(0.0191398 0.00309004 0)
(0.0179039 0.00308955 0)
(0.0166682 0.00308908 0)
(0.0154327 0.00308862 0)
(0.0141974 0.00308818 0)
(0.0129622 0.00308778 0)
(0.0117272 0.0030874 0)
(0.0104924 0.00308705 0)
(0.00925763 0.00308673 0)
(0.00802303 0.00308645 0)
(0.00678853 0.00308621 0)
(0.00555413 0.00308601 0)
(0.0043198 0.00308584 0)
(0.00308553 0.00308572 0)
(0.0018513 0.00308563 0)
(0.000617098 0.00308559 0)
(0.000753451 -0.00527434 0)
(0.00226036 -0.00527438 0)
(0.00376729 -0.00527446 0)
(0.00527425 -0.00527458 0)
(0.00678125 -0.00527473 0)
(0.00828831 -0.00527491 0)
(0.00979543 -0.00527512 0)
(0.0113026 -0.00527534 0)
(0.0128099 -0.00527558 0)
(0.0143172 -0.00527581 0)
(0.0158247 -0.00527603 0)
(0.0173322 -0.00527624 0)
(0.0188397 -0.00527641 0)
(0.0203474 -0.00527653 0)
(0.0218551 -0.00527659 0)
(0.0233628 -0.00527658 0)
(0.0248705 -0.00527647 0)
(0.0263782 -0.00527625 0)
(0.0278858 -0.0052759 0)
(0.0293933 -0.00527541 0)
(0.0309007 -0.00527473 0)
(0.0324079 -0.00527387 0)
(0.0339149 -0.00527279 0)
(0.0354215 -0.00527146 0)
(0.0369278 -0.00526987 0)
(0.0384336 -0.00526799 0)
(0.0399389 -0.00526578 0)
(0.0414435 -0.00526323 0)
(0.0429474 -0.00526029 0)
(0.0444504 -0.00525695 0)
(0.0459524 -0.00525317 0)
(0.0474533 -0.00524891 0)
(0.048953 -0.00524415 0)
(0.0504513 -0.00523884 0)
(0.051948 -0.00523296 0)
(0.0534431 -0.00522647 0)
(0.0549362 -0.00521933 0)
(0.0564272 -0.00521151 0)
(0.0579159 -0.00520296 0)
(0.0594022 -0.00519366 0)
(0.0608857 -0.00518355 0)
(0.0623662 -0.0051726 0)
(0.0638436 -0.00516077 0)
(0.0653175 -0.00514803 0)
(0.0667877 -0.00513432 0)
(0.0682538 -0.00511961 0)
(0.0697157 -0.00510385 0)
(0.0711729 -0.00508702 0)
(0.0726253 -0.00506905 0)
(0.0740724 -0.00504992 0)
(0.0755139 -0.00502958 0)
(0.0769495 -0.005008 0)
(0.0783787 -0.00498512 0)
(0.0798013 -0.00496091 0)
(0.0812169 -0.00493534 0)
(0.0826249 -0.00490836 0)
(0.0840251 -0.00487993 0)
(0.0854171 -0.00485002 0)
(0.0868003 -0.00481858 0)
(0.0881743 -0.0047856 0)
(0.0895388 -0.00475102 0)
(0.0908931 -0.00471483 0)
(0.092237 -0.00467698 0)
(0.0935698 -0.00463745 0)
(0.0948911 -0.0045962 0)
(0.0962004 -0.00455323 0)
(0.0974972 -0.00450849 0)
(0.098781 -0.00446196 0)
(0.100051 -0.00441363 0)
(0.101308 -0.00436348 0)
(0.102549 -0.0043115 0)
(0.103776 -0.00425766 0)
(0.104987 -0.00420196 0)
(0.106181 -0.00414438 0)
(0.107359 -0.00408494 0)
(0.10852 -0.00402361 0)
(0.109663 -0.00396041 0)
(0.110788 -0.00389533 0)
(0.111894 -0.00382838 0)
(0.11298 -0.00375958 0)
(0.114046 -0.00368892 0)
(0.115092 -0.00361644 0)
(0.116117 -0.00354214 0)
(0.117121 -0.00346605 0)
(0.118102 -0.00338819 0)
(0.119061 -0.0033086 0)
(0.119997 -0.00322729 0)
(0.120909 -0.00314432 0)
(0.121798 -0.00305971 0)
(0.122662 -0.0029735 0)
(0.123501 -0.00288574 0)
(0.124314 -0.00279648 0)
(0.125102 -0.00270576 0)
(0.125864 -0.00261364 0)
(0.126599 -0.00252018 0)
(0.127307 -0.00242542 0)
(0.127988 -0.00232943 0)
(0.128641 -0.00223227 0)
(0.129266 -0.00213401 0)
(0.129863 -0.00203472 0)
(0.130431 -0.00193445 0)
(0.130971 -0.00183329 0)
(0.131481 -0.00173131 0)
(0.131962 -0.00162857 0)
(0.132413 -0.00152515 0)
(0.132835 -0.00142113 0)
(0.133226 -0.00131659 0)
(0.133588 -0.0012116 0)
(0.13392 -0.00110624 0)
(0.134221 -0.00100059 0)
(0.134492 -0.000894734 0)
(0.134733 -0.000788742 0)
(0.134943 -0.000682697 0)
(0.135123 -0.000576676 0)
(0.135272 -0.000470758 0)
(0.135391 -0.00036502 0)
(0.13548 -0.000259538 0)
(0.135539 -0.000154388 0)
(0.135567 -4.96434e-05 0)
(0.135566 5.46225e-05 0)
(0.135535 0.000158338 0)
(0.135474 0.000261434 0)
(0.135384 0.000363841 0)
(0.135264 0.000465495 0)
(0.135116 0.000566329 0)
(0.134938 0.000666282 0)
(0.134733 0.000765294 0)
(0.134499 0.000863308 0)
(0.134237 0.000960266 0)
(0.133947 0.00105612 0)
(0.13363 0.00115081 0)
(0.133287 0.0012443 0)
(0.132916 0.00133653 0)
(0.13252 0.00142747 0)
(0.132097 0.00151707 0)
(0.13165 0.00160531 0)
(0.131177 0.00169213 0)
(0.130679 0.00177751 0)
(0.130157 0.00186142 0)
(0.129612 0.00194384 0)
(0.129043 0.00202473 0)
(0.128451 0.00210408 0)
(0.127837 0.00218187 0)
(0.127201 0.00225807 0)
(0.126543 0.00233268 0)
(0.125864 0.00240568 0)
(0.125164 0.00247707 0)
(0.124444 0.00254684 0)
(0.123705 0.00261497 0)
(0.122946 0.00268147 0)
(0.122169 0.00274635 0)
(0.121373 0.00280959 0)
(0.120559 0.0028712 0)
(0.119728 0.00293119 0)
(0.11888 0.00298956 0)
(0.118016 0.00304632 0)
(0.117136 0.00310149 0)
(0.11624 0.00315507 0)
(0.115329 0.00320708 0)
(0.114403 0.00325753 0)
(0.113464 0.00330644 0)
(0.11251 0.00335383 0)
(0.111544 0.00339971 0)
(0.110564 0.0034441 0)
(0.109572 0.00348702 0)
(0.108568 0.00352851 0)
(0.107552 0.00356857 0)
(0.106525 0.00360723 0)
(0.105488 0.00364451 0)
(0.104439 0.00368045 0)
(0.103381 0.00371506 0)
(0.102313 0.00374837 0)
(0.101236 0.0037804 0)
(0.10015 0.00381119 0)
(0.0990554 0.00384076 0)
(0.0979525 0.00386913 0)
(0.0968417 0.00389634 0)
(0.0957233 0.0039224 0)
(0.0945976 0.00394736 0)
(0.093465 0.00397123 0)
(0.0923258 0.00399405 0)
(0.0911802 0.00401584 0)
(0.0900286 0.00403662 0)
(0.0888712 0.00405644 0)
(0.0877083 0.00407531 0)
(0.0865402 0.00409326 0)
(0.0853671 0.00411032 0)
(0.0841893 0.00412652 0)
(0.0830071 0.00414188 0)
(0.0818206 0.00415643 0)
(0.0806301 0.0041702 0)
(0.0794358 0.00418321 0)
(0.0782379 0.00419549 0)
(0.0770366 0.00420706 0)
(0.0758322 0.00421795 0)
(0.0746248 0.00422818 0)
(0.0734145 0.00423778 0)
(0.0722017 0.00424677 0)
(0.0709864 0.00425518 0)
(0.0697688 0.00426302 0)
(0.0685491 0.00427032 0)
(0.0673274 0.00427711 0)
(0.0661038 0.0042834 0)
(0.0648786 0.00428921 0)
(0.0636517 0.00429457 0)
(0.0624235 0.0042995 0)
(0.0611939 0.00430402 0)
(0.0599631 0.00430815 0)
(0.0587312 0.0043119 0)
(0.0574983 0.00431529 0)
(0.0562645 0.00431835 0)
(0.0550298 0.00432109 0)
(0.0537945 0.00432353 0)
(0.0525586 0.00432568 0)
(0.0513221 0.00432756 0)
(0.0500851 0.00432919 0)
(0.0488477 0.00433059 0)
(0.0476099 0.00433176 0)
(0.0463719 0.00433273 0)
(0.0451336 0.0043335 0)
(0.0438951 0.00433409 0)
(0.0426566 0.00433452 0)
(0.0414179 0.0043348 0)
(0.0401792 0.00433494 0)
(0.0389405 0.00433495 0)
(0.0377018 0.00433484 0)
(0.0364632 0.00433463 0)
(0.0352246 0.00433432 0)
(0.0339862 0.00433393 0)
(0.0327479 0.00433347 0)
(0.0315098 0.00433294 0)
(0.0302718 0.00433236 0)
(0.029034 0.00433174 0)
(0.0277964 0.00433107 0)
(0.0265591 0.00433038 0)
(0.0253219 0.00432967 0)
(0.0240849 0.00432895 0)
(0.0228482 0.00432821 0)
(0.0216117 0.00432748 0)
(0.0203754 0.00432676 0)
(0.0191393 0.00432604 0)
(0.0179034 0.00432535 0)
(0.0166677 0.00432468 0)
(0.0154322 0.00432403 0)
(0.0141969 0.00432342 0)
(0.0129617 0.00432285 0)
(0.0117268 0.00432231 0)
(0.010492 0.00432182 0)
(0.00925728 0.00432138 0)
(0.00802272 0.00432098 0)
(0.00678827 0.00432064 0)
(0.00555391 0.00432035 0)
(0.00431963 0.00432012 0)
(0.00308541 0.00431995 0)
(0.00185123 0.00431983 0)
(0.000617073 0.00431977 0)
(0.000753427 -0.00678122 0)
(0.00226029 -0.00678128 0)
(0.00376717 -0.00678139 0)
(0.00527409 -0.00678154 0)
(0.00678106 -0.00678175 0)
(0.00828808 -0.00678199 0)
(0.00979518 -0.00678227 0)
(0.0113024 -0.00678257 0)
(0.0128096 -0.00678288 0)
(0.014317 -0.0067832 0)
(0.0158244 -0.00678351 0)
(0.0173319 -0.00678379 0)
(0.0188396 -0.00678403 0)
(0.0203473 -0.00678422 0)
(0.021855 -0.00678433 0)
(0.0233628 -0.00678434 0)
(0.0248706 -0.00678423 0)
(0.0263785 -0.00678398 0)
(0.0278863 -0.00678357 0)
(0.029394 -0.00678296 0)
(0.0309016 -0.00678213 0)
(0.032409 -0.00678106 0)
(0.0339163 -0.00677971 0)
(0.0354232 -0.00677805 0)
(0.0369298 -0.00677605 0)
(0.0384359 -0.00677368 0)
(0.0399416 -0.00677089 0)
(0.0414466 -0.00676766 0)
(0.0429509 -0.00676394 0)
(0.0444544 -0.00675969 0)
(0.045957 -0.00675488 0)
(0.0474585 -0.00674947 0)
(0.0489587 -0.0067434 0)
(0.0504577 -0.00673664 0)
(0.0519551 -0.00672914 0)
(0.0534508 -0.00672086 0)
(0.0549447 -0.00671175 0)
(0.0564365 -0.00670175 0)
(0.0579261 -0.00669083 0)
(0.0594132 -0.00667893 0)
(0.0608977 -0.006666 0)
(0.0623792 -0.006652 0)
(0.0638576 -0.00663686 0)
(0.0653326 -0.00662054 0)
(0.0668039 -0.00660298 0)
(0.0682712 -0.00658414 0)
(0.0697343 -0.00656396 0)
(0.0711928 -0.00654238 0)
(0.0726465 -0.00651935 0)
(0.0740949 -0.00649483 0)
(0.0755378 -0.00646875 0)
(0.0769748 -0.00644106 0)
(0.0784056 -0.00641172 0)
(0.0798298 -0.00638066 0)
(0.0812469 -0.00634785 0)
(0.0826566 -0.00631322 0)
(0.0840585 -0.00627673 0)
(0.0854521 -0.00623834 0)
(0.0868371 -0.00619799 0)
(0.0882129 -0.00615564 0)
(0.0895792 -0.00611124 0)
(0.0909354 -0.00606475 0)
(0.0922812 -0.00601614 0)
(0.0936159 -0.00596536 0)
(0.0949392 -0.00591238 0)
(0.0962505 -0.00585717 0)
(0.0975494 -0.00579968 0)
(0.0988352 -0.0057399 0)
(0.100108 -0.00567779 0)
(0.101366 -0.00561334 0)
(0.10261 -0.00554652 0)
(0.103838 -0.00547732 0)
(0.105051 -0.00540572 0)
(0.106248 -0.00533171 0)
(0.107428 -0.00525528 0)
(0.108591 -0.00517643 0)
(0.109737 -0.00509517 0)
(0.110863 -0.00501149 0)
(0.111971 -0.0049254 0)
(0.11306 -0.00483691 0)
(0.114128 -0.00474604 0)
(0.115176 -0.00465281 0)
(0.116203 -0.00455725 0)
(0.117209 -0.00445938 0)
(0.118192 -0.00435923 0)
(0.119153 -0.00425683 0)
(0.120091 -0.00415224 0)
(0.121005 -0.0040455 0)
(0.121895 -0.00393664 0)
(0.122761 -0.00382573 0)
(0.123602 -0.00371282 0)
(0.124417 -0.00359797 0)
(0.125207 -0.00348124 0)
(0.12597 -0.00336271 0)
(0.126707 -0.00324244 0)
(0.127416 -0.0031205 0)
(0.128098 -0.00299698 0)
(0.128753 -0.00287196 0)
(0.129379 -0.00274551 0)
(0.129977 -0.00261773 0)
(0.130546 -0.00248869 0)
(0.131087 -0.00235851 0)
(0.131598 -0.00222725 0)
(0.13208 -0.00209503 0)
(0.132532 -0.00196194 0)
(0.132954 -0.00182807 0)
(0.133346 -0.00169352 0)
(0.133708 -0.0015584 0)
(0.13404 -0.00142281 0)
(0.134342 -0.00128684 0)
(0.134613 -0.0011506 0)
(0.134854 -0.00101419 0)
(0.135064 -0.000877712 0)
(0.135244 -0.000741266 0)
(0.135393 -0.000604954 0)
(0.135512 -0.000468874 0)
(0.135601 -0.000333125 0)
(0.135659 -0.000197805 0)
(0.135687 -6.30082e-05 0)
(0.135685 7.11703e-05 0)
(0.135653 0.000204639 0)
(0.135591 0.000337307 0)
(0.1355 0.000469088 0)
(0.13538 0.000599895 0)
(0.135231 0.000729646 0)
(0.135052 0.00085826 0)
(0.134845 0.00098566 0)
(0.13461 0.00111177 0)