/*--------------------------------*- C++ -*----------------------------------*\
| =========                 |                                                 |
| \\      /  F ield         | OpenFOAM: The Open Source CFD Toolbox           |
|  \\    /   O peration     | Version:  v2012                                 |
|   \\  /    A nd           | Website:  www.openfoam.com                      |
|    \\/     M anipulation  |                                                 |
\*---------------------------------------------------------------------------*/
FoamFile
{
    version     2.0;
    format      ascii;
    class       volScalarField;
    location    "9";
    object      W;
}
// * * * * * * * * * * * * * * * * * * * * * * * * * * * * * * * * * * * * * //

dimensions      [0 0 -1 0 0 0 0];


internalField   nonuniform List<scalar> 
65536
(
3.9679e-19
1.20211e-18
2.04306e-18
2.94462e-18
3.93347e-18
5.03861e-18
6.2921e-18
7.72991e-18
9.39275e-18
1.13271e-17
1.35861e-17
1.62312e-17
1.93331e-17
2.29734e-17
2.72464e-17
3.22613e-17
3.81441e-17
4.50402e-17
5.31176e-17
6.25698e-17
7.36197e-17
8.65235e-17
1.01576e-16
1.19114e-16
1.39526e-16
1.63254e-16
1.90803e-16
2.22752e-16
2.59756e-16
3.02564e-16
3.52024e-16
4.09098e-16
4.74876e-16
5.50588e-16
6.37624e-16
7.37548e-16
8.52118e-16
9.83312e-16
1.13334e-15
1.30468e-15
1.5001e-15
1.72268e-15
1.97586e-15
2.26343e-15
2.58964e-15
2.95915e-15
3.37714e-15
3.84928e-15
4.38185e-15
4.98173e-15
5.65645e-15
6.41425e-15
7.26412e-15
8.21584e-15
9.28006e-15
1.04683e-14
1.1793e-14
1.32677e-14
1.49068e-14
1.67258e-14
1.87414e-14
2.09715e-14
2.34348e-14
2.61516e-14
2.91432e-14
3.24321e-14
3.60421e-14
3.99979e-14
4.43257e-14
4.90527e-14
5.4207e-14
5.98178e-14
6.59153e-14
7.25303e-14
7.96944e-14
8.74397e-14
9.57985e-14
1.04803e-13
1.14487e-13
1.24882e-13
1.36019e-13
1.4793e-13
1.60645e-13
1.74191e-13
1.88596e-13
2.03883e-13
2.20076e-13
2.37192e-13
2.55248e-13
2.74255e-13
2.94221e-13
3.1515e-13
3.37039e-13
3.5988e-13
3.83661e-13
4.08362e-13
4.33957e-13
4.60411e-13
4.87684e-13
5.15728e-13
5.44485e-13
5.73892e-13
6.03875e-13
6.34353e-13
6.65235e-13
6.96425e-13
7.27814e-13
7.5929e-13
7.9073e-13
8.22005e-13
8.5298e-13
8.83512e-13
9.13454e-13
9.42656e-13
9.70961e-13
9.98212e-13
1.02425e-12
1.04892e-12
1.07205e-12
1.0935e-12
1.11312e-12
1.13075e-12
1.14626e-12
1.15952e-12
1.17041e-12
1.17882e-12
1.18466e-12
1.18784e-12
1.1883e-12
1.18599e-12
1.18089e-12
1.17298e-12
1.16227e-12
1.14879e-12
1.1326e-12
1.11376e-12
1.09236e-12
1.06852e-12
1.04238e-12
1.01407e-12
9.83766e-13
9.51656e-13
9.17934e-13
8.82812e-13
8.46509e-13
8.09254e-13
7.71281e-13
7.32828e-13
6.94133e-13
6.55433e-13
6.1696e-13
5.78941e-13
5.41591e-13
5.05118e-13
4.69714e-13
4.35557e-13
4.02811e-13
3.71619e-13
3.4211e-13
3.1439e-13
2.88548e-13
2.64653e-13
2.42754e-13
2.22881e-13
2.05046e-13
1.89242e-13
1.75445e-13
1.63613e-13
1.53691e-13
1.45607e-13
1.39277e-13
1.34603e-13
1.31478e-13
1.29782e-13
1.29386e-13
1.30153e-13
1.3194e-13
1.34598e-13
1.37971e-13
1.41903e-13
1.46235e-13
1.50809e-13
1.55468e-13
1.6006e-13
1.64438e-13
1.68465e-13
1.72013e-13
1.74965e-13
1.77219e-13
1.78691e-13
1.79312e-13
1.79032e-13
1.77822e-13
1.7567e-13
1.72586e-13
1.686e-13
1.63757e-13
1.58121e-13
1.5177e-13
1.44794e-13
1.37293e-13
1.29374e-13
1.21147e-13
1.12724e-13
1.04215e-13
9.57248e-14
8.73518e-14
7.91856e-14
7.13054e-14
6.37786e-14
5.66605e-14
4.99935e-14
4.38079e-14
3.81219e-14
3.29425e-14
2.82669e-14
2.40835e-14
2.03731e-14
1.71109e-14
1.42674e-14
1.18102e-14
9.70489e-15
7.91637e-15
6.40984e-15
5.15152e-15
4.10937e-15
3.2535e-15
2.55649e-15
1.99362e-15
1.54288e-15
1.18494e-15
9.03066e-16
6.82954e-16
5.12506e-16
3.81618e-16
2.81948e-16
2.06684e-16
1.50326e-16
1.08476e-16
7.76612e-17
5.51606e-17
3.88687e-17
2.71712e-17
1.88428e-17
1.29628e-17
8.84626e-18
5.98833e-18
4.02067e-18
2.677e-18
1.76659e-18
1.15398e-18
7.43677e-19
4.68653e-19
2.81794e-19
1.49476e-19
4.67091e-20
1.36323e-18
4.12995e-18
7.01896e-18
1.0116e-17
1.35126e-17
1.73082e-17
2.16128e-17
2.65498e-17
3.22588e-17
3.88991e-17
4.66532e-17
5.57314e-17
6.63758e-17
7.88664e-17
9.35265e-17
1.10729e-16
1.30907e-16
1.54557e-16
1.82255e-16
2.14663e-16
2.52543e-16
2.96773e-16
3.48359e-16
4.08456e-16
4.78387e-16
5.59666e-16
6.5402e-16
7.6342e-16
8.90109e-16
1.03664e-15
1.2059e-15
1.40119e-15
1.6262e-15
1.88514e-15
2.18274e-15
2.52432e-15
2.91587e-15
3.3641e-15
3.87655e-15
4.46163e-15
5.12872e-15
5.8883e-15
6.75199e-15
7.73273e-15
8.84481e-15
1.01041e-14
1.1528e-14
1.31357e-14
1.49485e-14
1.69896e-14
1.92842e-14
2.18603e-14
2.47479e-14
2.79801e-14
3.15924e-14
3.56237e-14
4.01155e-14
4.51129e-14
5.06643e-14
5.68215e-14
6.364e-14
7.11789e-14
7.95011e-14
8.86733e-14
9.87663e-14
1.09854e-13
1.22016e-13
1.35332e-13
1.49889e-13
1.65776e-13
1.83085e-13
2.01911e-13
2.22353e-13
2.44509e-13
2.68482e-13
2.94376e-13
3.22295e-13
3.52342e-13
3.84621e-13
4.19235e-13
4.56283e-13
4.95861e-13
5.38063e-13
5.82976e-13
6.3068e-13
6.81248e-13
7.34746e-13
7.91227e-13
8.50734e-13
9.13298e-13
9.78933e-13
1.04764e-12
1.11941e-12
1.19419e-12
1.27194e-12
1.35259e-12
1.43603e-12
1.52214e-12
1.61079e-12
1.7018e-12
1.79497e-12
1.89009e-12
1.98692e-12
2.08517e-12
2.18455e-12
2.28474e-12
2.38537e-12
2.48608e-12
2.58647e-12
2.68612e-12
2.78459e-12
2.88141e-12
2.97613e-12
3.06824e-12
3.15727e-12
3.24269e-12
3.32403e-12
3.40076e-12
3.47239e-12
3.53845e-12
3.59846e-12
3.65197e-12
3.69855e-12
3.7378e-12
3.76937e-12
3.79292e-12
3.80818e-12
3.81491e-12
3.81292e-12
3.8021e-12
3.78237e-12
3.75373e-12
3.71622e-12
3.66996e-12
3.61515e-12
3.55202e-12
3.48089e-12
3.40214e-12
3.31619e-12
3.22356e-12
3.12477e-12
3.02043e-12
2.91117e-12
2.79767e-12
2.68063e-12
2.56077e-12
2.43885e-12
2.31561e-12
2.19181e-12
2.06818e-12
1.94546e-12
1.82435e-12
1.70553e-12
1.58964e-12
1.47727e-12
1.36898e-12
1.26526e-12
1.16656e-12
1.07326e-12
9.85695e-13
9.04122e-13
8.28746e-13
7.59707e-13
6.97089e-13
6.40914e-13
5.91149e-13
5.47708e-13
5.10453e-13
4.79197e-13
4.53711e-13
4.33721e-13
4.18918e-13
4.08954e-13
4.03454e-13
4.02012e-13
4.04196e-13
4.09556e-13
4.17624e-13
4.27917e-13
4.39945e-13
4.53214e-13
4.67232e-13
4.81514e-13
4.95586e-13
5.08996e-13
5.21317e-13
5.32151e-13
5.41143e-13
5.4798e-13
5.52396e-13
5.54184e-13
5.53192e-13
5.49328e-13
5.42562e-13
5.32925e-13
5.20506e-13
5.05453e-13
4.8796e-13
4.6827e-13
4.46662e-13
4.23446e-13
3.98949e-13
3.73515e-13
3.47487e-13
3.21202e-13
2.94986e-13
2.69142e-13
2.43943e-13
2.19634e-13
1.96422e-13
1.74475e-13
1.53924e-13
1.34861e-13
1.17342e-13
1.01386e-13
8.69858e-14
7.41032e-14
6.26793e-14
5.2637e-14
4.38852e-14
3.63233e-14
2.98452e-14
2.43426e-14
1.97082e-14
1.58379e-14
1.26328e-14
1.00008e-14
7.85771e-15
6.12718e-15
4.74151e-15
3.64124e-15
2.77488e-15
2.0984e-15
1.57459e-15
1.17239e-15
8.66141e-16
6.34898e-16
4.61751e-16
3.33189e-16
2.38528e-16
1.69413e-16
1.19372e-16
8.34439e-17
5.78651e-17
3.98069e-17
2.71648e-17
1.83883e-17
1.2346e-17
8.2199e-18
5.42434e-18
3.54327e-18
2.28341e-18
1.43896e-18
8.65218e-19
4.58953e-19
1.43419e-19
2.91593e-18
8.83377e-18
1.50127e-17
2.16358e-17
2.88983e-17
3.70124e-17
4.62131e-17
5.67632e-17
6.89605e-17
8.31446e-17
9.97047e-17
1.19088e-16
1.41812e-16
1.68471e-16
1.99755e-16
2.36457e-16
2.79496e-16
3.29932e-16
3.88986e-16
4.58066e-16
5.38793e-16
6.33027e-16
7.42907e-16
8.70884e-16
1.01976e-15
1.19275e-15
1.39351e-15
1.62621e-15
1.8956e-15
2.20708e-15
2.56676e-15
2.98158e-15
3.45939e-15
4.00902e-15
4.64044e-15
5.36489e-15
6.19495e-15
7.14476e-15
8.23013e-15
9.4687e-15
1.08802e-14
1.24865e-14
1.4312e-14
1.63836e-14
1.87313e-14
2.1388e-14
2.43901e-14
2.77777e-14
3.15945e-14
3.58888e-14
4.0713e-14
4.61246e-14
5.21858e-14
5.89645e-14
6.65339e-14
7.49734e-14
8.43685e-14
9.48109e-14
1.06399e-13
1.19239e-13
1.33442e-13
1.49129e-13
1.66426e-13
1.85467e-13
2.06395e-13
2.29356e-13
2.54508e-13
2.82013e-13
3.1204e-13
3.44763e-13
3.80364e-13
4.19028e-13
4.60945e-13
5.06308e-13
5.55312e-13
6.08156e-13
6.65034e-13
7.26143e-13
7.91676e-13
8.6182e-13
9.36757e-13
1.01666e-12
1.1017e-12
1.19201e-12
1.28774e-12
1.38902e-12
1.49592e-12
1.60855e-12
1.72694e-12
1.85114e-12
1.98113e-12
2.11688e-12
2.25832e-12
2.40536e-12
2.55784e-12
2.71558e-12
2.87836e-12
3.0459e-12
3.21789e-12
3.39396e-12
3.57369e-12
3.75663e-12
3.94226e-12
4.13003e-12
4.31932e-12
4.50949e-12
4.69984e-12
4.88963e-12
5.07808e-12
5.26437e-12
5.44766e-12
5.62707e-12
5.80169e-12
5.97063e-12
6.13294e-12
6.2877e-12
6.43398e-12
6.57086e-12
6.69745e-12
6.81287e-12
6.91628e-12
7.00689e-12
7.08396e-12
7.1468e-12
7.1948e-12
7.22743e-12
7.24423e-12
7.24485e-12
7.22903e-12
7.19661e-12
7.14755e-12
7.08191e-12
6.99988e-12
6.90176e-12
6.78798e-12
6.65907e-12
6.51568e-12
6.35858e-12
6.18864e-12
6.00684e-12
5.81423e-12
5.61196e-12
5.40123e-12
5.18334e-12
4.9596e-12
4.73136e-12
4.50001e-12
4.26694e-12
4.0335e-12
3.80108e-12
3.57097e-12
3.34446e-12
3.12275e-12
2.90699e-12
2.69823e-12
2.49744e-12
2.3055e-12
2.12316e-12
1.95108e-12
1.78982e-12
1.6398e-12
1.50136e-12
1.3747e-12
1.25993e-12
1.15705e-12
1.06595e-12
9.86456e-13
9.18267e-13
8.61018e-13
8.14263e-13
7.77482e-13
7.50091e-13
7.31445e-13
7.20846e-13
7.17549e-13
7.20767e-13
7.29679e-13
7.43437e-13
7.61171e-13
7.82e-13
8.05038e-13
8.29406e-13
8.54238e-13
8.78694e-13
9.01971e-13
9.23311e-13
9.42016e-13
9.57458e-13
9.69087e-13
9.76441e-13
9.79156e-13
9.76969e-13
9.69726e-13
9.57379e-13
9.39987e-13
9.17715e-13
8.90824e-13
8.59666e-13
8.2467e-13
7.8633e-13
7.45193e-13
7.0184e-13
6.56873e-13
6.10898e-13
5.64507e-13
5.18271e-13
4.72719e-13
4.28333e-13
3.85537e-13
3.44694e-13
3.06096e-13
2.6997e-13
2.36474e-13
2.05702e-13
1.77689e-13
1.52414e-13
1.29812e-13
1.09775e-13
9.21674e-14
7.68268e-14
6.35758e-14
5.22271e-14
4.259e-14
3.44753e-14
2.77e-14
2.20907e-14
1.74854e-14
1.37362e-14
1.07094e-14
8.28629e-15
6.36257e-15
4.84809e-15
3.66572e-15
2.75035e-15
2.04759e-15
1.51256e-15
1.10862e-15
8.06203e-16
5.81684e-16
4.16389e-16
2.95714e-16
2.0835e-16
1.45632e-16
1.00984e-16
6.94653e-17
4.74016e-17
3.20854e-17
2.15413e-17
1.43416e-17
9.46378e-18
6.18172e-18
3.98364e-18
2.51036e-18
1.50942e-18
8.00666e-19
2.50204e-19
5.69459e-18
1.72513e-17
2.93168e-17
4.22476e-17
5.64242e-17
7.226e-17
9.0212e-17
1.10792e-16
1.3458e-16
1.62236e-16
1.94517e-16
2.32294e-16
2.76568e-16
3.28499e-16
3.89422e-16
4.60881e-16
5.44658e-16
6.42806e-16
7.57697e-16
8.92057e-16
1.04903e-15
1.23221e-15
1.44574e-15
1.69436e-15
1.9835e-15
2.31935e-15
2.70897e-15
3.16043e-15
3.68288e-15
4.28672e-15
4.98372e-15
5.78724e-15
6.71234e-15
7.77601e-15
8.99741e-15
1.0398e-14
1.2002e-14
1.38364e-14
1.59314e-14
1.83207e-14
2.10419e-14
2.41366e-14
2.76514e-14
3.16373e-14
3.6151e-14
4.1255e-14
4.70181e-14
5.35158e-14
6.08307e-14
6.90533e-14
7.82823e-14
8.86249e-14
1.00198e-13
1.13127e-13
1.2755e-13
1.43612e-13
1.61473e-13
1.81301e-13
2.03279e-13
2.27598e-13
2.54466e-13
2.84099e-13
3.16729e-13
3.52597e-13
3.91958e-13
4.3508e-13
4.8224e-13
5.33727e-13
5.89839e-13
6.50885e-13
7.1718e-13
7.89046e-13
8.66811e-13
9.50805e-13
1.04136e-12
1.13881e-12
1.24347e-12
1.35568e-12
1.47574e-12
1.60395e-12
1.74061e-12
1.88597e-12
2.04028e-12
2.20377e-12
2.37661e-12
2.55896e-12
2.75094e-12
2.95262e-12
3.16403e-12
3.38514e-12
3.61588e-12
3.85612e-12
4.10564e-12
4.36419e-12
4.63143e-12
4.90696e-12
5.19029e-12
5.48088e-12
5.77808e-12
6.08118e-12
6.38939e-12
6.70183e-12
7.01757e-12
7.33556e-12
7.65471e-12
7.97385e-12
8.29173e-12
8.60706e-12
8.91849e-12
9.2246e-12
9.52395e-12
9.81506e-12
1.00964e-11
1.03665e-11
1.06238e-11
1.08669e-11
1.10941e-11
1.13041e-11
1.14954e-11
1.16667e-11
1.18167e-11
1.19443e-11
1.20482e-11
1.21276e-11
1.21816e-11
1.22094e-11
1.22106e-11
1.21846e-11
1.21312e-11
1.20504e-11
1.19423e-11
1.18072e-11
1.16456e-11
1.1458e-11
1.12455e-11
1.10091e-11
1.07499e-11
1.04693e-11
1.0169e-11
9.85067e-12
9.51605e-12
9.16713e-12
8.80597e-12
8.43469e-12
8.05548e-12
7.67056e-12
7.28217e-12
6.89254e-12
6.50387e-12
6.11832e-12
5.73797e-12
5.3648e-12
5.00069e-12
4.6474e-12
4.30653e-12
3.97954e-12
3.66772e-12
3.37221e-12
3.09395e-12
2.83371e-12
2.59207e-12
2.36946e-12
2.1661e-12
1.98207e-12
1.81729e-12
1.67149e-12
1.5443e-12
1.43518e-12
1.34348e-12
1.26844e-12
1.20917e-12
1.16472e-12
1.13402e-12
1.11593e-12
1.10927e-12
1.11277e-12
1.12513e-12
1.14502e-12
1.17106e-12
1.20189e-12
1.23611e-12
1.27239e-12
1.30936e-12
1.34575e-12
1.38033e-12
1.41193e-12
1.43949e-12
1.46207e-12
1.47883e-12
1.48907e-12
1.49225e-12
1.48799e-12
1.47606e-12
1.4564e-12
1.42912e-12
1.39447e-12
1.35286e-12
1.30484e-12
1.25106e-12
1.19228e-12
1.12934e-12
1.06312e-12
9.94528e-13
9.24488e-13
8.53895e-13
7.83607e-13
7.14425e-13
6.47071e-13
5.82181e-13
5.20297e-13
4.61856e-13
4.07192e-13
3.56539e-13
3.10033e-13
2.67718e-13
2.2956e-13
1.95453e-13
1.65232e-13
1.38686e-13
1.15568e-13
9.56077e-14
7.85192e-14
6.40133e-14
5.18033e-14
4.16122e-14
3.31776e-14
2.62549e-14
2.06208e-14
1.60735e-14
1.24341e-14
9.54557e-15
7.27207e-15
5.49755e-15
4.12404e-15
3.06978e-15
2.2673e-15
1.66156e-15
1.20814e-15
8.71575e-16
6.23827e-16
4.42983e-16
3.12078e-16
2.18114e-16
1.5123e-16
1.04021e-16
7.0976e-17
4.80392e-17
3.22504e-17
2.14703e-17
1.41672e-17
9.25362e-18
5.96305e-18
3.75764e-18
2.25934e-18
1.19845e-18
3.74509e-19
1.08006e-17
3.27188e-17
5.55997e-17
8.0118e-17
1.06993e-16
1.37008e-16
1.71025e-16
2.10014e-16
2.55068e-16
3.07436e-16
3.68548e-16
4.40045e-16
5.23822e-16
6.22062e-16
7.37285e-16
8.72401e-16
1.03077e-15
1.21625e-15
1.43332e-15
1.68711e-15
1.98351e-15
2.32931e-15
2.73229e-15
3.20134e-15
3.74664e-15
4.37983e-15
5.11414e-15
5.96468e-15
6.94858e-15
8.08529e-15
9.39685e-15
1.09082e-14
1.26474e-14
1.46462e-14
1.69402e-14
1.95694e-14
2.25788e-14
2.60186e-14
2.99446e-14
3.44195e-14
3.95126e-14
4.53012e-14
5.18706e-14
5.93152e-14
6.77393e-14
7.72575e-14
8.79959e-14
1.00093e-13
1.13699e-13
1.28979e-13
1.46112e-13
1.65294e-13
1.86735e-13
2.10664e-13
2.37325e-13
2.66983e-13
2.99922e-13
3.36443e-13
3.7687e-13
4.21545e-13
4.7083e-13
5.25111e-13
5.8479e-13
6.50291e-13
7.22057e-13
8.00548e-13
8.86242e-13
9.79633e-13
1.08123e-12
1.19155e-12
1.31112e-12
1.44049e-12
1.58018e-12
1.73074e-12
1.89271e-12
2.06662e-12
2.25297e-12
2.45228e-12
2.66502e-12
2.89163e-12
3.13254e-12
3.38812e-12
3.65869e-12
3.94454e-12
4.24589e-12
4.56288e-12
4.89559e-12
5.24404e-12
5.60812e-12
5.98767e-12
6.38241e-12
6.79197e-12
7.21585e-12
7.65347e-12
8.1041e-12
8.56691e-12
9.04094e-12
9.5251e-12
1.00182e-11
1.05189e-11
1.10257e-11
1.15371e-11
1.20513e-11
1.25666e-11
1.3081e-11
1.35926e-11
1.40991e-11
1.45985e-11
1.50885e-11
1.55667e-11
1.60309e-11
1.64786e-11
1.69074e-11
1.7315e-11
1.76989e-11
1.8057e-11
1.83868e-11
1.86863e-11
1.89533e-11
1.9186e-11
1.93824e-11
1.9541e-11
1.96603e-11
1.9739e-11
1.9776e-11
1.97706e-11
1.97222e-11
1.96304e-11
1.94952e-11
1.93169e-11
1.9096e-11
1.88332e-11
1.85297e-11
1.81869e-11
1.78064e-11
1.73901e-11
1.69403e-11
1.64594e-11
1.59499e-11
1.54148e-11
1.48571e-11
1.42799e-11
1.36865e-11
1.30804e-11
1.24649e-11
1.18436e-11
1.12198e-11
1.0597e-11
9.97846e-12
9.36751e-12
8.76719e-12
8.18043e-12
7.60997e-12
7.05832e-12
6.52779e-12
6.02042e-12
5.538e-12
5.08204e-12
4.65379e-12
4.25423e-12
3.88406e-12
3.54372e-12
3.23338e-12
2.95297e-12
2.7022e-12
2.48053e-12
2.28723e-12
2.12136e-12
1.98184e-12
1.8674e-12
1.77663e-12
1.70799e-12
1.65983e-12
1.63042e-12
1.6179e-12
1.62038e-12
1.63589e-12
1.66244e-12
1.69799e-12
1.74052e-12
1.788e-12
1.83844e-12
1.8899e-12
1.9405e-12
1.98846e-12
2.03212e-12
2.06997e-12
2.10063e-12
2.12295e-12
2.13593e-12
2.13882e-12
2.13108e-12
2.11242e-12
2.08277e-12
2.04229e-12
1.99139e-12
1.93066e-12
1.86089e-12
1.78304e-12
1.69819e-12
1.60755e-12
1.51237e-12
1.41396e-12
1.31362e-12
1.21263e-12
1.1122e-12
1.01347e-12
9.17439e-13
8.25017e-13
7.36954e-13
6.53861e-13
5.76202e-13
5.04294e-13
4.3832e-13
3.78332e-13
3.24272e-13
2.7598e-13
2.33216e-13
1.95673e-13
1.62996e-13
1.34795e-13
1.10664e-13
9.01891e-14
7.29627e-14
5.85907e-14
4.67004e-14
3.69455e-14
2.90091e-14
2.26061e-14
1.7483e-14
1.34183e-14
1.022e-14
7.7244e-15
5.79329e-15
4.31143e-15
3.18375e-15
2.33274e-15
1.69588e-15
1.22324e-15
8.75394e-16
6.21533e-16
4.37807e-16
3.0595e-16
2.12108e-16
1.45879e-16
9.95274e-17
6.73582e-17
4.52164e-17
3.01003e-17
1.98606e-17
1.29718e-17
8.35869e-18
5.2671e-18
3.16686e-18
1.67981e-18
5.24932e-19
2.01854e-17
6.11472e-17
1.03904e-16
1.49715e-16
1.9992e-16
2.55978e-16
3.19499e-16
3.92286e-16
4.76379e-16
5.74101e-16
6.88112e-16
8.2147e-16
9.77696e-16
1.16085e-15
1.37562e-15
1.62741e-15
1.92245e-15
2.26794e-15
2.67215e-15
3.14462e-15
3.69627e-15
4.33968e-15
5.08926e-15
5.96148e-15
6.97518e-15
8.15187e-15
9.51603e-15
1.10955e-14
1.2922e-14
1.50314e-14
1.74642e-14
2.02664e-14
2.34896e-14
2.71923e-14
3.14397e-14
3.63055e-14
4.18717e-14
4.82304e-14
5.54839e-14
6.37464e-14
7.31445e-14
8.38187e-14
9.59245e-14
1.09633e-13
1.25134e-13
1.42634e-13
1.62362e-13
1.84566e-13
2.09518e-13
2.37514e-13
2.68876e-13
3.03952e-13
3.43119e-13
3.86782e-13
4.35376e-13
4.8937e-13
5.49263e-13
6.15586e-13
6.88906e-13
7.6982e-13
8.58959e-13
9.5699e-13
1.06461e-12
1.18254e-12
1.31154e-12
1.45239e-12
1.6059e-12
1.7729e-12
1.95423e-12
2.15077e-12
2.36336e-12
2.59289e-12
2.84023e-12
3.10624e-12
3.39176e-12
3.69761e-12
4.02458e-12
4.37343e-12
4.74483e-12
5.13944e-12
5.55783e-12
6.00046e-12
6.46775e-12
6.95998e-12
7.47734e-12
8.01989e-12
8.58755e-12
9.18011e-12
9.79719e-12
1.04383e-11
1.11026e-11
1.17894e-11
1.24975e-11
1.32258e-11
1.39726e-11
1.47365e-11
1.55156e-11
1.63078e-11
1.71109e-11
1.79225e-11
1.874e-11
1.95606e-11
2.03813e-11
2.11991e-11
2.20106e-11
2.28126e-11
2.36015e-11
2.43737e-11
2.51256e-11
2.58535e-11
2.65537e-11
2.72224e-11
2.78559e-11
2.84506e-11
2.9003e-11
2.95096e-11
2.99672e-11
3.03725e-11
3.07228e-11
3.10152e-11
3.12475e-11
3.14175e-11
3.15233e-11
3.15635e-11
3.15371e-11
3.14433e-11
3.12817e-11
3.10525e-11
3.07562e-11
3.03937e-11
2.99664e-11
2.94761e-11
2.89251e-11
2.8316e-11
2.76518e-11
2.6936e-11
2.61723e-11
2.53648e-11
2.45179e-11
2.36364e-11
2.27249e-11
2.17887e-11
2.08327e-11
1.98623e-11
1.88827e-11
1.78993e-11
1.69171e-11
1.59412e-11
1.49766e-11
1.40279e-11
1.30996e-11
1.21958e-11
1.13205e-11
1.04771e-11
9.66878e-12
8.89824e-12
8.16785e-12
7.47954e-12
6.83484e-12
6.23489e-12
5.68039e-12
5.17169e-12
4.70874e-12
4.29116e-12
3.91823e-12
3.5889e-12
3.30188e-12
3.05557e-12
2.84817e-12
2.67765e-12
2.54179e-12
2.43823e-12
2.36443e-12
2.31777e-12
2.29549e-12
2.29478e-12
2.31276e-12
2.34651e-12
2.39309e-12
2.44958e-12
2.51309e-12
2.58077e-12
2.64987e-12
2.71776e-12
2.78193e-12
2.84008e-12
2.89009e-12
2.93008e-12
2.95843e-12
2.97381e-12
2.97519e-12
2.96186e-12
2.93344e-12
2.88988e-12
2.83143e-12
2.75868e-12
2.67249e-12
2.57397e-12
2.46446e-12
2.3455e-12
2.21873e-12
2.08593e-12
1.94888e-12
1.80939e-12
1.66921e-12
1.53001e-12
1.39333e-12
1.26056e-12
1.13291e-12
1.01141e-12
8.96873e-13
7.89925e-13
6.90983e-13
6.00278e-13
5.17868e-13
4.43656e-13
3.77408e-13
3.18783e-13
2.67347e-13
2.22605e-13
1.84015e-13
1.51012e-13
1.23024e-13
9.94892e-14
7.98633e-14
6.36339e-14
5.0325e-14
3.95018e-14
3.07732e-14
2.37923e-14
1.82555e-14
1.39004e-14
1.05034e-14
7.8756e-15
5.85972e-15
4.32611e-15
3.16909e-15
2.30343e-15
1.66115e-15
1.18857e-15
8.43753e-16
5.94248e-16
4.15215e-16
2.87821e-16
1.97927e-16
1.35023e-16
9.13721e-17
6.13312e-17
4.08246e-17
2.69348e-17
1.75913e-17
1.13349e-17
7.14224e-18
4.29419e-18
2.27775e-18
7.11781e-19
3.73106e-17
1.13022e-16
1.92045e-16
2.76701e-16
3.69463e-16
4.7302e-16
5.90341e-16
7.24749e-16
8.80003e-16
1.06038e-15
1.27078e-15
1.51684e-15
1.80503e-15
2.14283e-15
2.53885e-15
3.00304e-15
3.54686e-15
4.18351e-15
4.9282e-15
5.79842e-15
6.81425e-15
7.99876e-15
9.37833e-15
1.09832e-14
1.28478e-14
1.50116e-14
1.75193e-14
2.04219e-14
2.37773e-14
2.76509e-14
3.21167e-14
3.72586e-14
4.31707e-14
4.9959e-14
5.77427e-14
6.66551e-14
7.68455e-14
8.84804e-14
1.01745e-13
1.16847e-13
1.34014e-13
1.53499e-13
1.75583e-13
2.00574e-13
2.28811e-13
2.60667e-13
2.96548e-13
3.36901e-13
3.82209e-13
4.33e-13
4.89843e-13
5.53357e-13
6.24205e-13
7.03103e-13
7.90816e-13
8.88165e-13
9.9602e-13
1.11531e-12
1.24701e-12
1.39216e-12
1.55185e-12
1.72721e-12
1.91943e-12
2.12976e-12
2.35945e-12
2.60984e-12
2.88227e-12
3.17811e-12
3.49875e-12
3.84561e-12
4.22008e-12
4.62357e-12
5.05746e-12
5.52309e-12
6.02175e-12
6.55471e-12
7.12311e-12
7.72805e-12
8.3705e-12
9.0513e-12
9.77118e-12
1.05307e-11
1.13302e-11
1.21699e-11
1.30499e-11
1.39698e-11
1.49291e-11
1.59272e-11
1.69631e-11
1.80355e-11
1.91428e-11
2.02831e-11
2.14543e-11
2.26539e-11
2.38791e-11
2.51269e-11
2.63937e-11
2.7676e-11
2.89696e-11
3.02703e-11
3.15736e-11
3.28746e-11
3.41683e-11
3.54494e-11
3.67127e-11
3.79524e-11
3.91629e-11
4.03385e-11
4.14734e-11
4.25616e-11
4.35976e-11
4.45754e-11
4.54897e-11
4.6335e-11
4.7106e-11
4.77979e-11
4.8406e-11
4.8926e-11
4.9354e-11
4.96865e-11
4.99205e-11
5.00535e-11
5.00835e-11
5.00091e-11
4.98296e-11
4.95446e-11
4.91547e-11
4.8661e-11
4.8065e-11
4.73693e-11
4.65768e-11
4.56912e-11
4.47166e-11
4.3658e-11
4.25207e-11
4.13106e-11
4.0034e-11
3.86978e-11
3.73091e-11
3.58752e-11
3.4404e-11
3.29032e-11
3.13807e-11
2.98447e-11
2.8303e-11
2.67635e-11
2.52337e-11
2.37212e-11
2.22329e-11
2.07756e-11
1.93557e-11
1.79788e-11
1.66502e-11
1.53748e-11
1.41566e-11
1.29993e-11
1.19057e-11
1.08782e-11
9.91851e-12
9.02781e-12
8.20664e-12
7.45499e-12
6.77235e-12
6.1577e-12
5.60957e-12
5.12607e-12
4.70491e-12
4.34349e-12
4.03886e-12
3.78784e-12
3.58699e-12
3.43268e-12
3.32112e-12
3.24835e-12
3.21034e-12
3.20296e-12
3.22204e-12
3.26336e-12
3.32274e-12
3.39601e-12
3.47909e-12
3.568e-12
3.65889e-12
3.74809e-12
3.83217e-12
3.90793e-12
3.97248e-12
4.02327e-12
4.0581e-12
4.0752e-12
4.0732e-12
4.05117e-12
4.00865e-12
3.9456e-12
3.86244e-12
3.76e-12
3.63948e-12
3.50245e-12
3.35077e-12
3.18653e-12
3.01201e-12
2.82961e-12
2.64177e-12
2.45094e-12
2.25948e-12
2.06965e-12
1.8835e-12
1.70291e-12
1.5295e-12
1.36462e-12
1.20936e-12
1.06452e-12
9.30652e-13
8.08036e-13
6.96727e-13
5.96569e-13
5.07228e-13
4.28224e-13
3.58957e-13
2.98744e-13
2.46843e-13
2.02483e-13
1.64886e-13
1.33288e-13
1.06952e-13
8.51856e-14
6.73445e-14
5.28423e-14
4.11519e-14
3.18062e-14
2.43968e-14
1.85712e-14
1.40287e-14
1.0516e-14
7.82229e-15
5.77362e-15
4.22847e-15
3.07276e-15
2.21551e-15
1.58491e-15
1.12491e-15
7.92127e-16
5.53391e-16
3.83547e-16
2.63721e-16
1.79885e-16
1.21718e-16
8.1692e-17
5.4373e-17
3.5871e-17
2.34261e-17
1.50938e-17
9.51038e-18
5.71784e-18
3.03284e-18
9.47734e-19
6.82739e-17
2.06814e-16
3.51402e-16
5.06278e-16
6.75962e-16
8.65362e-16
1.0799e-15
1.32564e-15
1.60944e-15
1.93911e-15
2.32358e-15
2.77313e-15
3.29956e-15
3.91649e-15
4.63963e-15
5.48708e-15
6.47971e-15
7.64156e-15
9.0003e-15
1.05877e-14
1.24404e-14
1.46002e-14
1.71151e-14
2.00398e-14
2.34372e-14
2.73785e-14
3.1945e-14
3.7229e-14
4.33351e-14
5.0382e-14
5.85037e-14
6.78511e-14
7.85946e-14
9.09255e-14
1.05058e-13
1.21233e-13
1.39719e-13
1.60815e-13
1.84854e-13
2.12206e-13
2.43281e-13
2.78532e-13
3.18459e-13
3.63613e-13
4.14597e-13
4.72073e-13
5.36764e-13
6.0946e-13
6.91016e-13
7.82362e-13
8.84503e-13
9.98523e-13
1.12559e-12
1.26694e-12
1.42393e-12
1.59797e-12
1.79057e-12
2.00334e-12
2.23796e-12
2.4962e-12
2.77992e-12
3.09106e-12
3.43163e-12
3.80371e-12
4.20944e-12
4.65099e-12
5.13061e-12
5.65056e-12
6.21309e-12
6.82048e-12
7.47498e-12
8.17879e-12
8.93407e-12
9.74288e-12
1.06072e-11
1.15288e-11
1.25095e-11
1.35506e-11
1.46536e-11
1.58194e-11
1.70488e-11
1.83423e-11
1.97001e-11
2.11221e-11
2.26076e-11
2.41556e-11
2.5765e-11
2.74337e-11
2.91596e-11
3.094e-11
3.27715e-11
3.46505e-11
3.65727e-11
3.85335e-11
4.05277e-11
4.25495e-11
4.45927e-11
4.66509e-11
4.87169e-11
5.07834e-11
5.28424e-11
5.48859e-11
5.69054e-11
5.88923e-11
6.08376e-11
6.27324e-11
6.45676e-11
6.63341e-11
6.80227e-11
6.96247e-11
7.11311e-11
7.25334e-11
7.38234e-11
7.49933e-11
7.60356e-11
7.69434e-11
7.77105e-11
7.83311e-11
7.88004e-11
7.9114e-11
7.92686e-11
7.92616e-11
7.90913e-11
7.87569e-11
7.82587e-11
7.75978e-11
7.67762e-11
7.57972e-11
7.46648e-11
7.33839e-11
7.19606e-11
7.04017e-11
6.87148e-11
6.69084e-11
6.49918e-11
6.29749e-11
6.08681e-11
5.86824e-11
5.64293e-11
5.41205e-11
5.17678e-11
4.93835e-11
4.69795e-11
4.4568e-11
4.21607e-11
3.97691e-11
3.74043e-11
3.5077e-11
3.27973e-11
3.05746e-11
2.84176e-11
2.63342e-11
2.43316e-11
2.24159e-11
2.05925e-11
1.88658e-11
1.72394e-11
1.57159e-11
1.4297e-11
1.29835e-11
1.17756e-11
1.06725e-11
9.67273e-12
8.77418e-12
7.97407e-12
7.26909e-12
6.65543e-12
6.1288e-12
5.68457e-12
5.31775e-12
5.02306e-12
4.79502e-12
4.62795e-12
4.516e-12
4.45326e-12
4.43373e-12
4.45139e-12
4.50024e-12
4.57432e-12
4.66777e-12
4.77485e-12
4.89002e-12
5.00796e-12
5.1236e-12
5.23224e-12
5.32952e-12
5.41152e-12
5.4748e-12
5.51643e-12
5.53403e-12
5.52582e-12
5.49061e-12
5.42783e-12
5.33751e-12
5.22027e-12
5.0773e-12
4.91029e-12
4.7214e-12
4.51316e-12
4.28844e-12
4.05034e-12
3.80208e-12
3.54697e-12
3.28829e-12
3.0292e-12
2.77271e-12
2.52157e-12
2.27825e-12
2.04488e-12
1.82326e-12
1.61479e-12
1.42052e-12
1.24113e-12
1.07698e-12
9.2809e-13
7.94231e-13
6.74924e-13
5.69501e-13
4.77139e-13
3.96905e-13
3.27794e-13
2.68761e-13
2.1876e-13
1.76761e-13
1.41776e-13
1.12877e-13
8.92012e-14
6.99661e-14
5.44678e-14
4.20835e-14
3.22693e-14
2.4556e-14
1.8544e-14
1.38968e-14
1.03342e-14
7.62564e-15
5.58348e-15
4.05647e-15
2.92414e-15
2.09142e-15
1.48411e-15
1.04488e-15
7.29848e-16
5.05769e-16
3.47709e-16
2.37144e-16
1.60443e-16
1.07672e-16
7.1658e-17
4.72706e-17
3.08687e-17
1.98881e-17
1.25307e-17
7.53348e-18
3.99582e-18
1.24865e-18
1.23713e-16
3.74744e-16
6.36718e-16
9.17307e-16
1.22468e-15
1.56773e-15
1.95625e-15
2.4012e-15
2.915e-15
3.51174e-15
4.20759e-15
5.02107e-15
5.97355e-15
7.08959e-15
8.39756e-15
9.93012e-15
1.17249e-14
1.38254e-14
1.62813e-14
1.91501e-14
2.24975e-14
2.63991e-14
3.09411e-14
3.62224e-14
4.23554e-14
4.94687e-14
5.77082e-14
6.72397e-14
7.82512e-14
9.09552e-14
1.05592e-13
1.22433e-13
1.41781e-13
1.63981e-13
1.89414e-13
2.1851e-13
2.51749e-13
2.89663e-13
3.32846e-13
3.81956e-13
4.3772e-13
5.00944e-13
5.72512e-13
6.53398e-13
7.4467e-13
8.47495e-13
9.63146e-13
1.09301e-12
1.23859e-12
1.40151e-12
1.58353e-12
1.78655e-12
2.01257e-12
2.26378e-12
2.54249e-12
2.85114e-12
3.19234e-12
3.56883e-12
3.98349e-12
4.43935e-12
4.93954e-12
5.48734e-12
6.08611e-12
6.73933e-12
7.45055e-12
8.22339e-12
9.06149e-12
9.96852e-12
1.09482e-11
1.2004e-11
1.31396e-11
1.43584e-11
1.56637e-11
1.70587e-11
1.85461e-11
2.01287e-11
2.18088e-11
2.35883e-11
2.54687e-11
2.74513e-11
2.95365e-11
3.17246e-11
3.40149e-11
3.64064e-11
3.88973e-11
4.14851e-11
4.41665e-11
4.69378e-11
4.9794e-11
5.27297e-11
5.57387e-11
5.88137e-11
6.19469e-11
6.51296e-11
6.83524e-11
7.16051e-11
7.48768e-11
7.81559e-11
8.14304e-11
8.46876e-11
8.79142e-11
9.10968e-11
9.42214e-11
9.72739e-11
1.0024e-10
1.03105e-10
1.05855e-10
1.08476e-10
1.10954e-10
1.13275e-10
1.15426e-10
1.17395e-10
1.1917e-10
1.20739e-10
1.22093e-10
1.23222e-10
1.24117e-10
1.24773e-10
1.25183e-10
1.25342e-10
1.25248e-10
1.24898e-10
1.24292e-10
1.23432e-10
1.22319e-10
1.20957e-10
1.19353e-10
1.17513e-10
1.15445e-10
1.1316e-10
1.10668e-10
1.07981e-10
1.05113e-10
1.02078e-10
9.88927e-11
9.55721e-11
9.21335e-11
8.85944e-11
8.49728e-11
8.1287e-11
7.75553e-11
7.3796e-11
7.00273e-11
6.6267e-11
6.25325e-11
5.88405e-11
5.52069e-11
5.16469e-11
4.81746e-11
4.4803e-11
4.15439e-11
3.84081e-11
3.54047e-11
3.25418e-11
2.9826e-11
2.72626e-11
2.48555e-11
2.26073e-11
2.05193e-11
1.85916e-11
1.68231e-11
1.52118e-11
1.37544e-11
1.2447e-11
1.12846e-11
1.02615e-11
9.37163e-12
8.60803e-12
7.96344e-12
7.43017e-12
7.0002e-12
6.66528e-12
6.41697e-12
6.24669e-12
6.1458e-12
6.10564e-12
6.11758e-12
6.17307e-12
6.26371e-12
6.38125e-12
6.51771e-12
6.66538e-12
6.81692e-12
6.96541e-12
7.1044e-12
7.22799e-12
7.3309e-12
7.4085e-12
7.45689e-12
7.47294e-12
7.45432e-12
7.39952e-12
7.30787e-12
7.17948e-12
7.01531e-12
6.817e-12
6.58693e-12
6.32804e-12
6.0438e-12
5.73809e-12
5.41507e-12
5.0791e-12
4.7346e-12
4.38594e-12
4.03735e-12
3.69278e-12
3.3559e-12
3.02994e-12
2.71772e-12
2.42155e-12
2.14328e-12
1.88423e-12
1.64526e-12
1.42679e-12
1.22882e-12
1.05099e-12
8.92614e-13
7.5278e-13
6.30363e-13
5.24096e-13
4.32623e-13
3.54542e-13
2.88448e-13
2.32965e-13
1.86776e-13
1.48641e-13
1.17417e-13
9.20618e-14
7.16423e-14
5.53332e-14
4.24144e-14
3.22656e-14
2.43584e-14
1.82486e-14
1.35665e-14
1.00081e-14
7.32601e-15
5.32116e-15
3.83491e-15
2.74224e-15
1.94556e-15
1.36951e-15
9.56431e-16
6.6268e-16
4.55517e-16
3.10629e-16
2.10135e-16
1.41004e-16
9.38329e-17
6.18936e-17
4.0415e-17
2.60371e-17
1.64042e-17
9.86194e-18
5.23075e-18
1.63453e-18
2.22e-16
6.72459e-16
1.14253e-15
1.64596e-15
2.19741e-15
2.81277e-15
3.50961e-15
4.3076e-15
5.22891e-15
6.29884e-15
7.54629e-15
9.00446e-15
1.07115e-14
1.27115e-14
1.50551e-14
1.78008e-14
2.10158e-14
2.47778e-14
2.91758e-14
3.43124e-14
4.0305e-14
4.72883e-14
5.54165e-14
6.48657e-14
7.58368e-14
8.85587e-14
1.03291e-13
1.2033e-13
1.40009e-13
1.62707e-13
1.88851e-13
2.18922e-13
2.53461e-13
2.93074e-13
3.38443e-13
3.90326e-13
4.49571e-13
5.17122e-13
5.94027e-13
6.81445e-13
7.80661e-13
8.93089e-13
1.02029e-12
1.16396e-12
1.32599e-12
1.50841e-12
1.71345e-12
1.94353e-12
2.20126e-12
2.48948e-12
2.81122e-12
3.16977e-12
3.56861e-12
4.01148e-12
4.50236e-12
5.04544e-12
5.64516e-12
6.30619e-12
7.03342e-12
7.83194e-12
8.70705e-12
9.66421e-12
1.0709e-11
1.18473e-11
1.30848e-11
1.44276e-11
1.58814e-11
1.74523e-11
1.91461e-11
2.09684e-11
2.29248e-11
2.50207e-11
2.72609e-11
2.96501e-11
3.21924e-11
3.48915e-11
3.77503e-11
4.07713e-11
4.3956e-11
4.73052e-11
5.08188e-11
5.44957e-11
5.83338e-11
6.23299e-11
6.64796e-11
7.07774e-11
7.52166e-11
7.9789e-11
8.44854e-11
8.92952e-11
9.42065e-11
9.92061e-11
1.0428e-10
1.09412e-10
1.14585e-10
1.19782e-10
1.24984e-10
1.30172e-10
1.35323e-10
1.40418e-10
1.45435e-10
1.50351e-10
1.55143e-10
1.59789e-10
1.64266e-10
1.68552e-10
1.72625e-10
1.76462e-10
1.80043e-10
1.83348e-10
1.86357e-10
1.89053e-10
1.91418e-10
1.93438e-10
1.951e-10
1.9639e-10
1.973e-10
1.97822e-10
1.97948e-10
1.97677e-10
1.97005e-10
1.95933e-10
1.94465e-10
1.92605e-10
1.9036e-10
1.87741e-10
1.8476e-10
1.81428e-10
1.77764e-10
1.73784e-10
1.69509e-10
1.64959e-10
1.60157e-10
1.55128e-10
1.49896e-10
1.44488e-10
1.38931e-10
1.33252e-10
1.2748e-10
1.21642e-10
1.15766e-10
1.0988e-10
1.0401e-10
9.81822e-11
9.24226e-11
8.67549e-11
8.12016e-11