/*--------------------------------*- C++ -*----------------------------------*\
| =========                 |                                                 |
| \\      /  F ield         | OpenFOAM: The Open Source CFD Toolbox           |
|  \\    /   O peration     | Version:  v2012                                 |
|   \\  /    A nd           | Website:  www.openfoam.com                      |
|    \\/     M anipulation  |                                                 |
\*---------------------------------------------------------------------------*/
FoamFile
{
    version     2.0;
    format      ascii;
    class       surfaceScalarField;
    location    "9.6";
    object      phi;
}
// * * * * * * * * * * * * * * * * * * * * * * * * * * * * * * * * * * * * * //

dimensions      [0 3 -1 0 0 0 0];
oriented        oriented;


internalField   nonuniform List<scalar> 
130560
(
3.68669e-06
-3.68669e-06
7.37344e-06
-3.68675e-06
1.10603e-05
-3.68687e-06
1.47473e-05
-3.68703e-06
1.84346e-05
-3.68726e-06
2.21221e-05
-3.68753e-06
2.581e-05
-3.68785e-06
2.94982e-05
-3.68821e-06
3.31868e-05
-3.6886e-06
3.68758e-05
-3.68903e-06
4.05653e-05
-3.68948e-06
4.42552e-05
-3.68994e-06
4.79456e-05
-3.69041e-06
5.16365e-05
-3.69087e-06
5.53278e-05
-3.69133e-06
5.90196e-05
-3.69175e-06
6.27117e-05
-3.69215e-06
6.64042e-05
-3.69249e-06
7.0097e-05
-3.69277e-06
7.379e-05
-3.69297e-06
7.74831e-05
-3.69309e-06
8.11762e-05
-3.6931e-06
8.48691e-05
-3.69298e-06
8.85619e-05
-3.69273e-06
9.22542e-05
-3.69231e-06
9.59459e-05
-3.69173e-06
9.96369e-05
-3.69094e-06
0.000103327
-3.68994e-06
0.000107015
-3.6887e-06
0.000110703
-3.6872e-06
0.000114388
-3.68543e-06
0.000118071
-3.68334e-06
0.000121752
-3.68093e-06
0.000125431
-3.67817e-06
0.000129106
-3.67504e-06
0.000132777
-3.6715e-06
0.000136445
-3.66753e-06
0.000140108
-3.6631e-06
0.000143766
-3.6582e-06
0.000147419
-3.65278e-06
0.000151066
-3.64683e-06
0.000154706
-3.64031e-06
0.000158339
-3.63319e-06
0.000161964
-3.62545e-06
0.000165582
-3.61705e-06
0.00016919
-3.60797e-06
0.000172788
-3.59818e-06
0.000176375
-3.58764e-06
0.000179952
-3.57632e-06
0.000183516
-3.5642e-06
0.000187067
-3.55124e-06
0.000190605
-3.53742e-06
0.000194127
-3.5227e-06
0.000197634
-3.50705e-06
0.000201125
-3.49045e-06
0.000204598
-3.47286e-06
0.000208052
-3.45426e-06
0.000211486
-3.43462e-06
0.0002149
-3.41391e-06
0.000218292
-3.3921e-06
0.000221662
-3.36917e-06
0.000225007
-3.34509e-06
0.000228327
-3.31984e-06
0.00023162
-3.29339e-06
0.000234886
-3.26573e-06
0.000238123
-3.23682e-06
0.000241329
-3.20666e-06
0.000244504
-3.17522e-06
0.000247647
-3.14249e-06
0.000250755
-3.10844e-06
0.000253828
-3.07308e-06
0.000256865
-3.03637e-06
0.000259863
-2.99833e-06
0.000262822
-2.95893e-06
0.00026574
-2.91816e-06
0.000268616
-2.87604e-06
0.000271449
-2.83254e-06
0.000274236
-2.78768e-06
0.000276978
-2.74145e-06
0.000279672
-2.69386e-06
0.000282317
-2.64492e-06
0.000284911
-2.59463e-06
0.000287454
-2.543e-06
0.000289944
-2.49005e-06
0.00029238
-2.43579e-06
0.00029476
-2.38024e-06
0.000297084
-2.32342e-06
0.000299349
-2.26536e-06
0.000301555
-2.20607e-06
0.000303701
-2.14559e-06
0.000305785
-2.08395e-06
0.000307806
-2.02117e-06
0.000309763
-1.9573e-06
0.000311656
-1.89236e-06
0.000313482
-1.8264e-06
0.000315241
-1.75945e-06
0.000316933
-1.69156e-06
0.000318556
-1.62277e-06
0.000320109
-1.55314e-06
0.000321592
-1.48269e-06
0.000323003
-1.41149e-06
0.000324343
-1.33959e-06
0.00032561
-1.26703e-06
0.000326804
-1.19388e-06
0.000327924
-1.12018e-06
0.00032897
-1.04598e-06
0.000329941
-9.71354e-07
0.000330837
-8.96348e-07
0.000331659
-8.2102e-07
0.000332404
-7.4543e-07
0.000333074
-6.69634e-07
0.000333667
-5.93691e-07
0.000334185
-5.17659e-07
0.000334627
-4.41596e-07
0.000334992
-3.65559e-07
0.000335282
-2.89607e-07
0.000335495
-2.13797e-07
0.000335634
-1.38184e-07
0.000335696
-6.28234e-08
0.000335684
1.22289e-08
0.000335597
8.69199e-08
0.000335436
1.61197e-07
0.000335201
2.35008e-07
0.000334893
3.08304e-07
0.000334512
3.81036e-07
0.000334059
4.53156e-07
0.000333534
5.24619e-07
0.000332939
5.9538e-07
0.000332273
6.65398e-07
0.000331539
7.34631e-07
0.000330736
8.03041e-07
0.000329865
8.70591e-07
0.000328928
9.37245e-07
0.000327925
1.00297e-06
0.000326857
1.06774e-06
0.000325726
1.13151e-06
0.000324531
1.19428e-06
0.000323275
1.25599e-06
0.000321959
1.31665e-06
0.000320582
1.37622e-06
0.000319148
1.43468e-06
0.000317656
1.49202e-06
0.000316107
1.54821e-06
0.000314504
1.60326e-06
0.000312847
1.65714e-06
0.000311137
1.70985e-06
0.000309376
1.76138e-06
0.000307564
1.81172e-06
0.000305703
1.86086e-06
0.000303794
1.90881e-06
0.000301839
1.95556e-06
0.000299838
2.00111e-06
0.000297792
2.04547e-06
0.000295704
2.08863e-06
0.000293573
2.1306e-06
0.000291402
2.1714e-06
0.000289191
2.21102e-06
0.000286941
2.24947e-06
0.000284654
2.28676e-06
0.000282332
2.32291e-06
0.000279974
2.35792e-06
0.000277582
2.3918e-06
0.000275157
2.42458e-06
0.000272701
2.45627e-06
0.000270214
2.48687e-06
0.000267698
2.51641e-06
0.000265153
2.5449e-06
0.00026258
2.57237e-06
0.000259982
2.59882e-06
0.000257357
2.62427e-06
0.000254709
2.64875e-06
0.000252036
2.67227e-06
0.000249341
2.69486e-06
0.000246625
2.71652e-06
0.000243888
2.7373e-06
0.00024113
2.75719e-06
0.000238354
2.77622e-06
0.00023556
2.79442e-06
0.000232748
2.81181e-06
0.00022992
2.8284e-06
0.000227075
2.84422e-06
0.000224216
2.85928e-06
0.000221342
2.87361e-06
0.000218455
2.88723e-06
0.000215555
2.90016e-06
0.000212643
2.91242e-06
0.000209719
2.92403e-06
0.000206784
2.93501e-06
0.000203838
2.94538e-06
0.000200883
2.95516e-06
0.000197919
2.96438e-06
0.000194946
2.97304e-06
0.000191965
2.98117e-06
0.000188976
2.98879e-06
0.00018598
2.99592e-06
0.000182977
3.00258e-06
0.000179968
3.00878e-06
0.000176954
3.01454e-06
0.000173934
3.01988e-06
0.000170909
3.02482e-06
0.00016788
3.02937e-06
0.000164846
3.03355e-06
0.000161809
3.03738e-06
0.000158768
3.04088e-06
0.000155724
3.04405e-06
0.000152677
3.04692e-06
0.000149628
3.04949e-06
0.000146576
3.05179e-06
0.000143522
3.05383e-06
0.000140466
3.05562e-06
0.000137409
3.05717e-06
0.000134351
3.05851e-06
0.000131291
3.05963e-06
0.00012823
3.06056e-06
0.000125169
3.06131e-06
0.000122107
3.06189e-06
0.000119045
3.06231e-06
0.000115982
3.06257e-06
0.00011292
3.0627e-06
0.000109857
3.06271e-06
0.000106794
3.0626e-06
0.000103732
3.06238e-06
0.00010067
3.06206e-06
9.76083e-05
3.06166e-06
9.45471e-05
3.06118e-06
9.14865e-05
3.06062e-06
8.84265e-05
3.06001e-06
8.53671e-05
3.05934e-06
8.23085e-05
3.05863e-06
7.92506e-05
3.05787e-06
7.61935e-05
3.05709e-06
7.31373e-05
3.05628e-06
7.00818e-05
3.05546e-06
6.70272e-05
3.05462e-06
6.39734e-05
3.05377e-06
6.09205e-05
3.05293e-06
5.78684e-05
3.05209e-06
5.48171e-05
3.05126e-06
5.17667e-05
3.05045e-06
4.8717e-05
3.04966e-06
4.56681e-05
3.04889e-06
4.262e-05
3.04815e-06
3.95725e-05
3.04745e-06
3.65257e-05
3.04678e-06
3.34796e-05
3.04614e-06
3.0434e-05
3.04555e-06
2.7389e-05
3.04501e-06
2.43445e-05
3.04451e-06
2.13004e-05
3.04407e-06
1.82568e-05
3.04367e-06
1.52135e-05
3.04333e-06
1.21704e-05
3.04304e-06
9.12761e-06
3.04281e-06
6.08498e-06
3.04263e-06
3.04246e-06
3.04252e-06
3.04246e-06
3.68664e-06
-7.37333e-06
7.37333e-06
-7.37344e-06
1.10601e-05
-7.37368e-06
1.47471e-05
-7.37402e-06
1.84343e-05
-7.37447e-06
2.21218e-05
-7.37502e-06
2.58096e-05
-7.37566e-06
2.94978e-05
-7.37638e-06
3.31864e-05
-7.37718e-06
3.68754e-05
-7.37804e-06
4.05648e-05
-7.37894e-06
4.42548e-05
-7.37987e-06
4.79452e-05
-7.38082e-06
5.16361e-05
-7.38176e-06
5.53274e-05
-7.38268e-06
5.90192e-05
-7.38354e-06
6.27114e-05
-7.38434e-06
6.6404e-05
-7.38504e-06
7.00968e-05
-7.38562e-06
7.37899e-05
-7.38604e-06
7.74831e-05
-7.38628e-06
8.11763e-05
-7.38632e-06
8.48694e-05
-7.3861e-06
8.85623e-05
-7.38561e-06
9.22548e-05
-7.38481e-06
9.59467e-05
-7.38365e-06
9.96379e-05
-7.3821e-06
0.000103328
-7.38011e-06
0.000107017
-7.37766e-06
0.000110704
-7.37469e-06
0.00011439
-7.37115e-06
0.000118074
-7.36701e-06
0.000121755
-7.36222e-06
0.000125434
-7.35672e-06
0.000129109
-7.35047e-06
0.000132781
-7.34342e-06
0.000136449
-7.33551e-06
0.000140113
-7.32669e-06
0.000143771
-7.3169e-06
0.000147425
-7.3061e-06
0.000151072
-7.29422e-06
0.000154713
-7.28121e-06
0.000158347
-7.26701e-06
0.000161973
-7.25155e-06
0.000165591
-7.23479e-06
0.000169199
-7.21666e-06
0.000172798
-7.1971e-06
0.000176387
-7.17605e-06
0.000179964
-7.15345e-06
0.000183529
-7.12923e-06
0.000187081
-7.10335e-06
0.000190619
-7.07573e-06
0.000194143
-7.04632e-06
0.000197651
-7.01506e-06
0.000201142
-6.98189e-06
0.000204616
-6.94674e-06
0.000208071
-6.90957e-06
0.000211507
-6.87031e-06
0.000214922
-6.82891e-06
0.000218315
-6.78532e-06
0.000221686
-6.73949e-06
0.000225032
-6.69135e-06
0.000228353
-6.64087e-06
0.000231648
-6.588e-06
0.000234915
-6.53269e-06
0.000238153
-6.4749e-06
0.000241361
-6.4146e-06
0.000244537
-6.35173e-06
0.000247681
-6.28628e-06
0.000250791
-6.21821e-06
0.000253865
-6.14748e-06
0.000256903
-6.07409e-06
0.000259902
-5.998e-06
0.000262863
-5.91921e-06
0.000265782
-5.83769e-06
0.00026866
-5.75344e-06
0.000271494
-5.66645e-06
0.000274283
-5.57672e-06
0.000277025
-5.48427e-06
0.000279721
-5.38908e-06
0.000282367
-5.29118e-06
0.000284963
-5.19059e-06
0.000287507
-5.08732e-06
0.000289999
-4.9814e-06
0.000292436
-4.87286e-06
0.000294817
-4.76175e-06
0.000297142
-4.64809e-06
0.000299408
-4.53194e-06
0.000301616
-4.41334e-06
0.000303762
-4.29235e-06
0.000305847
-4.16903e-06
0.00030787
-4.04344e-06
0.000309828
-3.91565e-06
0.000311721
-3.78574e-06
0.000313549
-3.65377e-06
0.000315309
-3.51984e-06
0.000317002
-3.38402e-06
0.000318625
-3.2464e-06
0.000320179
-3.10707e-06
0.000321663
-2.96614e-06
0.000323075
-2.82369e-06
0.000324415
-2.67983e-06
0.000325683
-2.53467e-06
0.000326877
-2.3883e-06
0.000327998
-2.24084e-06
0.000329044
-2.0924e-06
0.000330016
-1.94308e-06
0.000330913
-1.79301e-06
0.000331734
-1.6423e-06
0.00033248
-1.49106e-06
0.000333149
-1.33941e-06
0.000333743
-1.18747e-06
0.000334261
-1.03535e-06
0.000334702
-8.83162e-07
0.000335068
-7.31033e-07
0.000335357
-5.79072e-07
0.000335571
-4.27394e-07
0.000335709
-2.76112e-07
0.000335771
-1.25337e-07
0.000335759
2.48209e-08
0.000335671
1.74255e-07
0.00033551
3.22861e-07
0.000335274
4.70533e-07
0.000334965
6.17174e-07
0.000334584
7.62684e-07
0.00033413
9.0697e-07
0.000333605
1.04994e-06
0.000333008
1.1915e-06
0.000332342
1.33158e-06
0.000331607
1.47009e-06
0.000330803
1.60694e-06
0.000329931
1.74208e-06
0.000328993
1.87542e-06
0.000327989
2.0069e-06
0.000326921
2.13646e-06
0.000325788
2.26405e-06
0.000324593
2.38959e-06
0.000323336
2.51305e-06
0.000322018
2.63438e-06
0.000320641
2.75354e-06
0.000319205
2.87048e-06
0.000317712
2.98517e-06
0.000316162
3.09758e-06
0.000314558
3.20769e-06
0.0003129
3.31546e-06
0.000311189
3.42089e-06
0.000309426
3.52394e-06
0.000307613
3.62462e-06
0.000305751
3.72291e-06
0.000303841
3.81881e-06
0.000301884
3.91231e-06
0.000299882
4.00341e-06
0.000297835
4.09212e-06
0.000295745
4.17845e-06
0.000293614
4.26239e-06
0.000291441
4.34397e-06
0.000289229
4.4232e-06
0.000286978
4.50009e-06
0.00028469
4.57466e-06
0.000282366
4.64695e-06
0.000280007
4.71695e-06
0.000277614
4.78472e-06
0.000275189
4.85026e-06
0.000272731
4.91361e-06
0.000270243
4.97481e-06
0.000267726
5.03387e-06
0.00026518
5.09084e-06
0.000262607
5.14574e-06
0.000260007
5.19862e-06
0.000257382
5.24952e-06
0.000254732
5.29845e-06
0.000252059
5.34548e-06
0.000249363
5.39063e-06
0.000246646
5.43395e-06
0.000243907
5.47547e-06
0.000241149
5.51523e-06
0.000238372
5.55328e-06
0.000235577
5.58966e-06
0.000232764
5.62441e-06
0.000229935
5.65757e-06
0.00022709
5.68918e-06
0.00022423
5.71929e-06
0.000221356
5.74793e-06
0.000218468
5.77515e-06
0.000215567
5.80099e-06
0.000212654
5.82548e-06
0.000209729
5.84868e-06
0.000206794
5.87062e-06
0.000203848
5.89135e-06
0.000200892
5.91089e-06
0.000197927
5.9293e-06
0.000194954
5.94661e-06
0.000191972
5.96285e-06
0.000188983
5.97808e-06
0.000185986
5.99232e-06
0.000182983
6.00561e-06
0.000179974
6.01799e-06
0.000176959
6.0295e-06
0.000173939
6.04016e-06
0.000170914
6.05002e-06
0.000167884
6.05911e-06
0.00016485
6.06746e-06
0.000161812
6.0751e-06
0.000158771
6.08207e-06
0.000155727
6.0884e-06
0.00015268
6.09412e-06
0.00014963
6.09925e-06
0.000146578
6.10384e-06
0.000143524
6.1079e-06
0.000140468
6.11146e-06
0.00013741
6.11456e-06
0.000134352
6.11722e-06
0.000131292
6.11946e-06
0.000128231
6.12131e-06
0.00012517
6.12279e-06
0.000122108
6.12393e-06
0.000119045
6.12476e-06
0.000115982
6.12528e-06
0.00011292
6.12553e-06
0.000109857
6.12553e-06
0.000106794
6.1253e-06
0.000103732
6.12485e-06
0.000100669
6.12421e-06
9.76077e-05
6.12339e-06
9.45465e-05
6.12242e-06
9.14858e-05
6.12131e-06
8.84257e-05
6.12007e-06
8.53664e-05
6.11872e-06
8.23077e-05
6.11729e-06
7.92498e-05
6.11578e-06
7.61927e-05
6.1142e-06
7.31364e-05
6.11258e-06
7.00809e-05
6.11092e-06
6.70263e-05
6.10924e-06
6.39725e-05
6.10754e-06
6.09196e-05
6.10585e-06
5.78675e-05
6.10417e-06
5.48163e-05
6.10251e-06
5.17658e-05
6.10088e-06
4.87162e-05
6.09929e-06
4.56673e-05
6.09776e-06
4.26192e-05
6.09627e-06
3.95718e-05
6.09486e-06
3.65251e-05
6.09351e-06
3.3479e-05
6.09224e-06
3.04335e-05
6.09106e-06
2.73885e-05
6.08997e-06
2.43441e-05
6.08897e-06
2.13e-05
6.08808e-06
1.82564e-05
6.08728e-06
1.52132e-05
6.0866e-06
1.21702e-05
6.08602e-06
9.12743e-06
6.08555e-06
6.08486e-06
6.08521e-06
3.0424e-06
6.08498e-06
6.08486e-06
3.68652e-06
-1.10598e-05
7.3731e-06
-1.106e-05
1.10598e-05
-1.10604e-05
1.47467e-05
-1.10609e-05
1.84338e-05
-1.10616e-05
2.21212e-05
-1.10624e-05
2.58089e-05
-1.10634e-05
2.9497e-05
-1.10645e-05
3.31855e-05
-1.10657e-05
3.68745e-05
-1.1067e-05
4.05639e-05
-1.10684e-05
4.42538e-05
-1.10698e-05
4.79443e-05
-1.10712e-05
5.16352e-05
-1.10727e-05
5.53266e-05
-1.10741e-05
5.90184e-05
-1.10754e-05
6.27107e-05
-1.10766e-05
6.64034e-05
-1.10777e-05
7.00964e-05
-1.10786e-05
7.37896e-05
-1.10793e-05
7.7483e-05
-1.10797e-05
8.11765e-05
-1.10798e-05
8.48699e-05
-1.10795e-05
8.85631e-05
-1.10788e-05
9.2256e-05
-1.10776e-05
9.59483e-05
-1.1076e-05
9.96399e-05
-1.10737e-05
0.000103331
-1.10708e-05
0.00010702
-1.10671e-05
0.000110708
-1.10627e-05
0.000114394
-1.10575e-05
0.000118079
-1.10513e-05
0.000121761
-1.10442e-05
0.00012544
-1.1036e-05
0.000129116
-1.10267e-05
0.000132789
-1.10162e-05
0.000136458
-1.10044e-05
0.000140122
-1.09912e-05
0.000143782
-1.09766e-05
0.000147437
-1.09605e-05
0.000151085
-1.09427e-05
0.000154727
-1.09233e-05
0.000158362
-1.09021e-05
0.00016199
-1.0879e-05
0.000165609
-1.08539e-05
0.000169219
-1.08268e-05
0.000172819
-1.07975e-05
0.000176409
-1.0766e-05
0.000179988
-1.07322e-05
0.000183555
-1.06959e-05
0.000187109
-1.06572e-05
0.000190649
-1.06158e-05
0.000194174
-1.05718e-05
0.000197684
-1.0525e-05
0.000201177
-1.04753e-05
0.000204653
-1.04226e-05
0.000208111
-1.0367e-05
0.000211549
-1.03081e-05
0.000214966
-1.02461e-05
0.000218361
-1.01808e-05
0.000221734
-1.01121e-05
0.000225082
-1.004e-05
0.000228406
-9.9643e-06
0.000231703
-9.88505e-06
0.000234972
-9.80214e-06
0.000238213
-9.7155e-06
0.000241423
-9.62509e-06
0.000244603
-9.53083e-06
0.000247749
-9.43269e-06
0.000250861
-9.33062e-06
0.000253939
-9.22457e-06
0.000256979
-9.1145e-06
0.000259981
-9.00039e-06
0.000262944
-8.88222e-06
0.000265867
-8.75995e-06
0.000268747
-8.63358e-06
0.000271583
-8.5031e-06
0.000274375
-8.3685e-06
0.000277121
-8.22981e-06
0.000279819
-8.08701e-06
0.000282468
-7.94014e-06
0.000285066
-7.78922e-06
0.000287613
-7.63428e-06
0.000290107
-7.47537e-06
0.000292547
-7.31252e-06
0.000294931
-7.14579e-06
0.000297258
-6.97525e-06
0.000299527
-6.80096e-06
0.000301737
-6.623e-06
0.000303886
-6.44144e-06
0.000305973
-6.25638e-06
0.000307998
-6.06791e-06
0.000309958
-5.87614e-06
0.000311854
-5.68117e-06
0.000313683
-5.48312e-06
0.000315445
-5.28211e-06
0.000317139
-5.07827e-06
0.000318765
-4.87173e-06
0.00032032
-4.66262e-06
0.000321805
-4.4511e-06
0.000323219
-4.2373e-06
0.00032456
-4.02138e-06
0.000325829
-3.8035e-06
0.000327025
-3.58382e-06
0.000328146
-3.36249e-06
0.000329194
-3.13968e-06
0.000330166
-2.91557e-06
0.000331063
-2.69032e-06
0.000331885
-2.46411e-06
0.000332631
-2.23711e-06
0.000333301
-2.00949e-06
0.000333895
-1.78142e-06
0.000334413
-1.5531e-06
0.000334855
-1.32468e-06
0.00033522
-1.09634e-06
0.000335509
-8.68254e-07
0.000335722
-6.40597e-07
0.00033586
-4.13535e-07
0.000335922
-1.87236e-07
0.000335908
3.81363e-08
0.00033582
2.6242e-07
0.000335658
4.85456e-07
0.000335421
7.07091e-07
0.000335111
9.27173e-07
0.000334728
1.14556e-06
0.000334273
1.3621e-06
0.000333746
1.57666e-06
0.000333149
1.78912e-06
0.000332481
1.99933e-06
0.000331744
2.20719e-06
0.000330938
2.41257e-06
0.000330065
2.61536e-06
0.000329125
2.81545e-06
0.000328119
3.01276e-06
0.000327048
3.20717e-06
0.000325914
3.39861e-06
0.000324716
3.587e-06
0.000323457
3.77225e-06
0.000322137
3.95429e-06
0.000320758
4.13307e-06
0.00031932
4.30853e-06
0.000317824
4.4806e-06
0.000316273
4.64926e-06
0.000314666
4.81444e-06
0.000313005
4.97613e-06
0.000311292
5.13429e-06
0.000309527
5.28889e-06
0.000307711
5.43992e-06
0.000305847
5.58736e-06
0.000303935
5.73121e-06
0.000301975
5.87146e-06
0.000299971
6.00811e-06
0.000297922
6.14117e-06
0.00029583
6.27064e-06
0.000293695
6.39654e-06
0.00029152
6.51889e-06
0.000289306
6.63771e-06
0.000287053
6.75303e-06
0.000284763
6.86486e-06
0.000282436
6.97326e-06
0.000280075
7.07824e-06
0.00027768
7.17985e-06
0.000275252
7.27813e-06
0.000272793
7.37312e-06
0.000270303
7.46487e-06
0.000267783
7.55342e-06
0.000265235
7.63883e-06
0.00026266
7.72115e-06
0.000260058
7.80042e-06
0.000257431
7.87671e-06
0.000254779
7.95007e-06
0.000252104
8.02056e-06
0.000249406
8.08824e-06
0.000246687
8.15316e-06
0.000243947
8.21539e-06
0.000241187
8.27499e-06
0.000238409
8.33201e-06
0.000235612
8.38653e-06
0.000232798
8.4386e-06
0.000229967
8.48829e-06
0.00022712
8.53566e-06
0.000224259
8.58076e-06
0.000221383
8.62367e-06
0.000218494
8.66445e-06
0.000215592
8.70315e-06
0.000212677
8.73985e-06
0.000209752
8.7746e-06
0.000206815
8.80746e-06
0.000203868
8.83849e-06
0.000200911
8.86776e-06
0.000197945
8.89532e-06
0.00019497
8.92124e-06
0.000191987
8.94556e-06
0.000188997
8.96835e-06
0.000186
8.98966e-06
0.000182996
9.00956e-06
0.000179986
9.02808e-06
0.00017697
9.04529e-06
0.000173949
9.06125e-06
0.000170923
9.07599e-06
0.000167892
9.08958e-06
0.000164858
9.10207e-06
0.000161819
9.11349e-06
0.000158777
9.12391e-06
0.000155733
9.13337e-06
0.000152685
9.1419e-06
0.000149634
9.14957e-06
0.000146582
9.15641e-06
0.000143527
9.16247e-06
0.000140471
9.16778e-06
0.000137413
9.1724e-06
0.000134354
9.17635e-06
0.000131294
9.17968e-06
0.000128233
9.18242e-06
0.000125171
9.18462e-06
0.000122108
9.1863e-06
0.000119046
9.18751e-06
0.000115983
9.18827e-06
0.00011292
9.18862e-06
0.000109857
9.18859e-06
0.000106794
9.18821e-06
0.000103731
9.18752e-06
0.000100669
9.18653e-06
9.76068e-05
9.18529e-06
9.45454e-05
9.1838e-06
9.14846e-05
9.18211e-06
8.84244e-05
9.18024e-06
8.53649e-05
9.1782e-06
8.23062e-05
9.17603e-06
7.92482e-05
9.17374e-06
7.61911e-05
9.17136e-06
7.31347e-05
9.16891e-06
7.00793e-05
9.16641e-06
6.70246e-05
9.16387e-06
6.39708e-05
9.16132e-06
6.09179e-05
9.15876e-06
5.78659e-05
9.15623e-06
5.48147e-05
9.15373e-06
5.17643e-05
9.15127e-06
4.87147e-05
9.14888e-06
4.56659e-05
9.14656e-06
4.26178e-05
9.14433e-06
3.95705e-05
9.14219e-06
3.65238e-05
9.14017e-06
3.34778e-05
9.13826e-06
3.04324e-05
9.13648e-06
2.73875e-05
9.13484e-06
2.43432e-05
9.13334e-06
2.12993e-05
9.13199e-06
1.82557e-05
9.13079e-06
1.52126e-05
9.12976e-06
1.21697e-05
9.12889e-06
9.12708e-06
9.12819e-06
6.08463e-06
9.12766e-06
3.04228e-06
9.12732e-06
9.12714e-06
3.68634e-06
-1.47462e-05
7.37275e-06
-1.47464e-05
1.10593e-05
-1.47469e-05
1.4746e-05
-1.47476e-05
1.84329e-05
-1.47485e-05
2.21202e-05
-1.47497e-05
2.58078e-05
-1.4751e-05
2.94958e-05
-1.47525e-05
3.31842e-05
-1.47541e-05
3.68731e-05
-1.47559e-05
4.05625e-05
-1.47578e-05
4.42524e-05
-1.47597e-05
4.79428e-05
-1.47617e-05
5.16338e-05
-1.47636e-05
5.53252e-05
-1.47655e-05
5.90172e-05
-1.47674e-05
6.27096e-05
-1.47691e-05
6.64025e-05
-1.47706e-05
7.00957e-05
-1.47718e-05
7.37892e-05
-1.47728e-05
7.7483e-05
-1.47734e-05
8.11768e-05
-1.47736e-05
8.48706e-05
-1.47733e-05
8.85643e-05
-1.47725e-05
9.22577e-05
-1.4771e-05
9.59506e-05
-1.47689e-05
9.96428e-05
-1.47659e-05
0.000103334
-1.47621e-05
0.000107024
-1.47574e-05
0.000110713
-1.47516e-05
0.000114401
-1.47447e-05
0.000118086
-1.47366e-05
0.000121769
-1.47273e-05
0.000125449
-1.47165e-05
0.000129127
-1.47042e-05
0.000132801
-1.46903e-05
0.000136471
-1.46747e-05
0.000140137
-1.46572e-05
0.000143798
-1.46379e-05
0.000147454
-1.46165e-05
0.000151105
-1.4593e-05
0.000154748
-1.45672e-05
0.000158385
-1.4539e-05
0.000162015
-1.45083e-05
0.000165636
-1.44751e-05
0.000169248
-1.4439e-05
0.000172851
-1.44002e-05
0.000176443
-1.43583e-05
0.000180024
-1.43133e-05
0.000183593
-1.42652e-05
0.00018715
-1.42136e-05
0.000190693
-1.41586e-05
0.000194221
-1.41001e-05
0.000197734
-1.40378e-05
0.00020123
-1.39717e-05
0.000204709
-1.39016e-05
0.00020817
-1.38275e-05
0.000211611
-1.37492e-05
0.000215031
-1.36666e-05
0.00021843
-1.35796e-05
0.000221806
-1.34882e-05
0.000225158
-1.33921e-05
0.000228485
-1.32913e-05
0.000231786
-1.31858e-05
0.000235059
-1.30753e-05
0.000238303
-1.29599e-05
0.000241518
-1.28394e-05
0.000244701
-1.27138e-05
0.000247851
-1.2583e-05
0.000250968
-1.2447e-05
0.000254049
-1.23057e-05
0.000257093
-1.2159e-05
0.0002601
-1.20069e-05
0.000263067
-1.18493e-05
0.000265993
-1.16863e-05
0.000268877
-1.15178e-05
0.000271718
-1.13439e-05
0.000274514
-1.11644e-05
0.000277264
-1.09794e-05
0.000279966
-1.0789e-05
0.000282619
-1.05932e-05
0.000285221
-1.03919e-05
0.000287772
-1.01852e-05
0.00029027
-9.97327e-06
0.000292714
-9.75606e-06
0.000295102
-9.53366e-06
0.000297432
-9.30617e-06
0.000299705
-9.07366e-06
0.000301918
-8.83625e-06
0.000304071
-8.59403e-06
0.000306162
-8.34714e-06
0.000308189
-8.09569e-06
0.000310153
-7.83982e-06
0.000312052
-7.57969e-06
0.000313884
-7.31543e-06
0.000315649
-7.04722e-06
0.000317346
-6.77523e-06
0.000318974
-6.49962e-06
0.000320532
-6.22059e-06
0.000322019
-5.93833e-06
0.000323435
-5.65303e-06
0.000324778
-5.3649e-06
0.000326049
-5.07414e-06
0.000327246
-4.78097e-06
0.000328369
-4.48561e-06
0.000329418
-4.18828e-06
0.000330392
-3.8892e-06
0.00033129
-3.5886e-06
0.000332112
-3.28671e-06
0.000332859
-2.98377e-06
0.00033353
-2.68e-06
0.000334124
-2.37565e-06
0.000334642
-2.07094e-06
0.000335083
-1.76611e-06
0.000335448
-1.46139e-06
0.000335737
-1.15701e-06
0.00033595
-8.53205e-07
0.000336086
-5.50196e-07
0.000336147
-2.48208e-07
0.000336133
5.25394e-08
0.000336043
3.5183e-07
0.000335879
6.49452e-07
0.000335641
9.45199e-07
0.00033533
1.23887e-06
0.000334945
1.53027e-06
0.000334488
1.81921e-06
0.000333959
2.1055e-06
0.000333359
2.38897e-06
0.000332689
2.66945e-06
0.000331949
2.94677e-06
0.000331141
3.22078e-06
0.000330265
3.49133e-06
0.000329322
3.75828e-06
0.000328314
4.0215e-06
0.00032724
4.28085e-06
0.000326102
4.53624e-06
0.000324902
4.78753e-06
0.000323639
5.03464e-06
0.000322316
5.27747e-06
0.000320933
5.51593e-06
0.000319492
5.74995e-06
0.000317993
5.97946e-06
0.000316438
6.20439e-06
0.000314828
6.4247e-06
0.000313163
6.64033e-06
0.000311447
6.85124e-06
0.000309678
7.05741e-06
0.000307859
7.25881e-06
0.000305991
7.45541e-06
0.000304075
7.64722e-06
0.000302112
7.83421e-06
0.000300104
8.0164e-06
0.000298051
8.1938e-06
0.000295956
8.36641e-06
0.000293818
8.53425e-06
0.000291639
8.69735e-06
0.000289421
8.85574e-06
0.000287165
9.00944e-06
0.000284871
9.15851e-06
0.000282542
9.30298e-06
0.000280177
9.4429e-06
0.000277779
9.57832e-06
0.000275347
9.70929e-06
0.000272885
9.83587e-06
0.000270391
9.95813e-06
0.000267869
1.00761e-05
0.000265318
1.01899e-05
0.000262739
1.02996e-05
0.000260134
1.04052e-05
0.000257504
1.05068e-05
0.00025485
1.06046e-05
0.000252172
1.06985e-05
0.000249471
1.07886e-05
0.00024675
1.08751e-05
0.000244007
1.0958e-05
0.000241245
1.10373e-05
0.000238463
1.11133e-05
0.000235664
1.11859e-05
0.000232847
1.12552e-05
0.000230014
1.13213e-05
0.000227166
1.13844e-05
0.000224302
1.14444e-05
0.000221424
1.15016e-05
0.000218533
1.15558e-05
0.000215629
1.16073e-05
0.000212712
1.16562e-05
0.000209784
1.17024e-05
0.000206846
1.17461e-05
0.000203897
1.17874e-05
0.000200938
1.18263e-05
0.000197971
1.1863e-05
0.000194994
1.18975e-05
0.00019201
1.19298e-05
0.000189018
1.19601e-05
0.00018602
1.19884e-05
0.000183014
1.20149e-05
0.000180003
1.20395e-05
0.000176986
1.20624e-05
0.000173964
1.20835e-05
0.000170936
1.21031e-05
0.000167905
1.21212e-05
0.000164869
1.21377e-05
0.00016183
1.21529e-05
0.000158787
1.21667e-05
0.000155741
1.21792e-05
0.000152692
1.21906e-05
0.000149641
1.22007e-05
0.000146588
1.22098e-05
0.000143533
1.22178e-05
0.000140476
1.22248e-05
0.000137417
1.22309e-05
0.000134357
1.22361e-05
0.000131297
1.22405e-05
0.000128235
1.22441e-05
0.000125173
1.2247e-05
0.00012211
1.22491e-05
0.000119047
1.22507e-05
0.000115983
1.22517e-05
0.00011292
1.22521e-05
0.000109856
1.2252e-05
0.000106793
1.22514e-05
0.00010373
1.22505e-05
0.000100667
1.22491e-05
9.76054e-05
1.22474e-05
9.45438e-05
1.22454e-05
9.14828e-05
1.22431e-05
8.84224e-05
1.22406e-05
8.53628e-05
1.22378e-05
8.2304e-05
1.22349e-05
7.92459e-05
1.22318e-05
7.61887e-05
1.22286e-05
7.31323e-05
1.22253e-05
7.00768e-05
1.22219e-05
6.70221e-05
1.22185e-05
6.39683e-05
1.22151e-05
6.09154e-05
1.22117e-05
5.78634e-05
1.22083e-05
5.48122e-05
1.22049e-05
5.17619e-05
1.22016e-05
4.87124e-05
1.21984e-05
4.56637e-05
1.21953e-05
4.26157e-05
1.21923e-05
3.95685e-05
1.21894e-05
3.65219e-05
1.21867e-05
3.3476e-05
1.21842e-05
3.04308e-05
1.21818e-05
2.7386e-05
1.21796e-05
2.43418e-05
1.21775e-05
2.12981e-05
1.21757e-05
1.82547e-05
1.21741e-05
1.52117e-05
1.21728e-05
1.2169e-05
1.21716e-05
9.12656e-06
1.21707e-05
6.08427e-06
1.21699e-05
3.04211e-06
1.21695e-05
1.21693e-05
3.68611e-06
-1.84323e-05
7.37228e-06
-1.84326e-05
1.10586e-05
-1.84332e-05
1.47451e-05
-1.84341e-05
1.84318e-05
-1.84353e-05
2.21189e-05
-1.84367e-05
2.58063e-05
-1.84384e-05
2.94941e-05
-1.84403e-05
3.31824e-05
-1.84424e-05
3.68712e-05
-1.84447e-05
4.05606e-05
-1.84471e-05
4.42504e-05
-1.84496e-05
4.79409e-05
-1.84521e-05
5.16319e-05
-1.84546e-05
5.53234e-05
-1.84571e-05
5.90155e-05
-1.84595e-05
6.27081e-05
-1.84617e-05
6.64012e-05
-1.84637e-05
7.00948e-05
-1.84654e-05
7.37886e-05
-1.84667e-05
7.74828e-05
-1.84676e-05
8.11771e-05
-1.84679e-05
8.48715e-05
-1.84677e-05
8.85658e-05
-1.84668e-05
9.22598e-05
-1.84651e-05
9.59535e-05
-1.84625e-05
9.96466e-05
-1.8459e-05
0.000103339
-1.84544e-05
0.00010703
-1.84487e-05
0.00011072
-1.84416e-05
0.000114409
-1.84332e-05
0.000118095
-1.84233e-05
0.00012178
-1.84117e-05
0.000125462
-1.83984e-05
0.000129141
-1.83832e-05
0.000132816
-1.8366e-05
0.000136489
-1.83467e-05
0.000140156
-1.83252e-05
0.00014382
-1.83012e-05
0.000147478
-1.82747e-05
0.00015113
-1.82455e-05
0.000154777
-1.82134e-05
0.000158416
-1.81785e-05
0.000162048
-1.81403e-05
0.000165672
-1.8099e-05
0.000169287
-1.80542e-05
0.000172893
-1.80058e-05
0.000176488
-1.79537e-05
0.000180073
-1.78977e-05
0.000183645
-1.78377e-05
0.000187205
-1.77735e-05
0.000190751
-1.7705e-05
0.000194283
-1.7632e-05
0.0001978
-1.75544e-05
0.0002013
-1.7472e-05
0.000204783
-1.73846e-05
0.000208248
-1.72922e-05
0.000211693
-1.71945e-05
0.000215118
-1.70915e-05
0.000218522
-1.6983e-05
0.000221902
-1.68688e-05
0.000225259
-1.67489e-05
0.000228591
-1.66231e-05
0.000231896
-1.64914e-05
0.000235175
-1.63534e-05
0.000238424
-1.62093e-05
0.000241643
-1.60589e-05
0.000244832
-1.5902e-05
0.000247987
-1.57387e-05
0.000251109
-1.55687e-05
0.000254195
-1.53921e-05
0.000257245
-1.52088e-05
0.000260257
-1.50188e-05
0.00026323
-1.48219e-05
0.000266162
-1.46182e-05
0.000269051
-1.44076e-05
0.000271898
-1.41901e-05
0.000274699
-1.39658e-05
0.000277454
-1.37346e-05
0.000280162
-1.34965e-05
0.00028282
-1.32516e-05
0.000285428
-1.29999e-05
0.000287984
-1.27415e-05
0.000290487
-1.24764e-05
0.000292936
-1.22048e-05
0.000295329
-1.19266e-05
0.000297665
-1.16421e-05
0.000299943
-1.13513e-05
0.000302161
-1.10543e-05
0.000304318
-1.07513e-05
0.000306413
-1.04425e-05
0.000308446
-1.01279e-05
0.000310413
-9.80778e-06
0.000312316
-9.48232e-06
0.000314152
-9.1517e-06
0.000315921
-8.81612e-06
0.000317622
-8.4758e-06
0.000319253
-8.13095e-06
0.000320814
-7.7818e-06
0.000322305
-7.4286e-06
0.000323723
-7.0716e-06
0.000325069
-6.71104e-06
0.000326342
-6.3472e-06
0.000327542
-5.98033e-06
0.000328667
-5.61071e-06
0.000329717
-5.23862e-06
0.000330692
-4.86434e-06
0.000331592
-4.48816e-06
0.000332416
-4.11037e-06
0.000333163
-3.73126e-06
0.000333834
-3.35111e-06
0.000334429
-2.97023e-06
0.000334947
-2.58891e-06
0.000335388
-2.20743e-06
0.000335753
-1.8261e-06
0.000336041
-1.4452e-06
0.000336253
-1.06502e-06
0.000336388
-6.85837e-07
0.000336448
-3.0794e-07
0.000336432
6.83982e-08
0.000336341
4.42907e-07
0.000336175
8.15322e-07
0.000335935
1.18538e-06
0.000335621
1.55284e-06
0.000335234
1.91744e-06
0.000334774
2.27896e-06
0.000334243
2.63716e-06
0.00033364
2.99181e-06
0.000332966
3.34272e-06
0.000332224
3.68966e-06
0.000331412
4.03245e-06
0.000330532
4.3709e-06
0.000329586
4.70484e-06
0.000328573
5.0341e-06
0.000327496
5.35851e-06
0.000326354
5.67794e-06
0.000325149
5.99225e-06
0.000323882
6.30132e-06
0.000322555
6.60501e-06
0.000321168
6.90324e-06
0.000319722
7.19589e-06
0.000318218
7.48289e-06
0.000316658
7.76416e-06
0.000315043
8.03963e-06
0.000313375
8.30924e-06
0.000311653
8.57295e-06
0.00030988
8.8307e-06
0.000308056
9.08248e-06
0.000306183
9.32826e-06
0.000304262
9.56802e-06
0.000302295
9.80177e-06
0.000300282
1.00295e-05
0.000298224
1.02512e-05
0.000296124
1.04669e-05
0.000293981
1.06767e-05
0.000291798
1.08805e-05
0.000289575
1.10784e-05
0.000287314
1.12705e-05
0.000285016
1.14568e-05
0.000282682
1.16373e-05
0.000280313
1.18121e-05
0.00027791
1.19812e-05
0.000275474
1.21448e-05
0.000273007
1.2303e-05
0.00027051
1.24557e-05
0.000267983
1.2603e-05
0.000265427
1.27451e-05
0.000262845
1.28821e-05
0.000260236
1.3014e-05
0.000257602
1.31409e-05
0.000254944
1.32629e-05
0.000252262
1.33801e-05
0.000249558
1.34926e-05
0.000246833
1.36006e-05
0.000244086
1.3704e-05
0.000241321
1.38031e-05
0.000238536