/*--------------------------------*- C++ -*----------------------------------*\
| =========                 |                                                 |
| \\      /  F ield         | OpenFOAM: The Open Source CFD Toolbox           |
|  \\    /   O peration     | Version:  v2012                                 |
|   \\  /    A nd           | Website:  www.openfoam.com                      |
|    \\/     M anipulation  |                                                 |
\*---------------------------------------------------------------------------*/
FoamFile
{
    version     2.0;
    format      ascii;
    class       volVectorField;
    location    "9.6";
    object      Psi;
}
// * * * * * * * * * * * * * * * * * * * * * * * * * * * * * * * * * * * * * //

dimensions      [0 2 -1 0 0 0 0];


internalField   nonuniform List<vector> 
65536
(
(0 0 9.21032e-06)
(0 0 2.76311e-05)
(0 0 4.60524e-05)
(0 0 6.44745e-05)
(0 0 8.28976e-05)
(0 0 0.000101322)
(0 0 0.000119748)
(0 0 0.000138176)
(0 0 0.000156606)
(0 0 0.000175038)
(0 0 0.000193473)
(0 0 0.00021191)
(0 0 0.00023035)
(0 0 0.000248793)
(0 0 0.000267238)
(0 0 0.000285685)
(0 0 0.000304135)
(0 0 0.000322588)
(0 0 0.000341042)
(0 0 0.000359498)
(0 0 0.000377956)
(0 0 0.000396414)
(0 0 0.000414872)
(0 0 0.00043333)
(0 0 0.000451787)
(0 0 0.000470242)
(0 0 0.000488695)
(0 0 0.000507143)
(0 0 0.000525587)
(0 0 0.000544024)
(0 0 0.000562454)
(0 0 0.000580875)
(0 0 0.000599286)
(0 0 0.000617685)
(0 0 0.000636069)
(0 0 0.000654438)
(0 0 0.000672789)
(0 0 0.00069112)
(0 0 0.000709429)
(0 0 0.000727713)
(0 0 0.000745969)
(0 0 0.000764195)
(0 0 0.000782388)
(0 0 0.000800545)
(0 0 0.000818663)
(0 0 0.000836738)
(0 0 0.000854767)
(0 0 0.000872746)
(0 0 0.000890672)
(0 0 0.00090854)
(0 0 0.000926347)
(0 0 0.000944088)
(0 0 0.000961759)
(0 0 0.000979355)
(0 0 0.000996871)
(0 0 0.0010143)
(0 0 0.00103165)
(0 0 0.0010489)
(0 0 0.00106604)
(0 0 0.00108309)
(0 0 0.00110002)
(0 0 0.00111684)
(0 0 0.00113353)
(0 0 0.0011501)
(0 0 0.00116653)
(0 0 0.00118283)
(0 0 0.00119897)
(0 0 0.00121497)
(0 0 0.0012308)
(0 0 0.00124647)
(0 0 0.00126196)
(0 0 0.00127728)
(0 0 0.00129241)
(0 0 0.00130735)
(0 0 0.00132208)
(0 0 0.00133662)
(0 0 0.00135093)
(0 0 0.00136503)
(0 0 0.0013789)
(0 0 0.00139254)
(0 0 0.00140594)
(0 0 0.00141909)
(0 0 0.00143198)
(0 0 0.00144462)
(0 0 0.00145699)
(0 0 0.00146908)
(0 0 0.00148089)
(0 0 0.00149241)
(0 0 0.00150365)
(0 0 0.00151458)
(0 0 0.00152521)
(0 0 0.00153552)
(0 0 0.00154552)
(0 0 0.0015552)
(0 0 0.00156455)
(0 0 0.00157357)
(0 0 0.00158225)
(0 0 0.00159058)
(0 0 0.00159857)
(0 0 0.00160621)
(0 0 0.0016135)
(0 0 0.00162043)
(0 0 0.00162699)
(0 0 0.00163319)
(0 0 0.00163902)
(0 0 0.00164448)
(0 0 0.00164957)
(0 0 0.00165428)
(0 0 0.00165862)
(0 0 0.00166258)
(0 0 0.00166615)
(0 0 0.00166935)
(0 0 0.00167217)
(0 0 0.0016746)
(0 0 0.00167665)
(0 0 0.00167832)
(0 0 0.00167961)
(0 0 0.00168052)
(0 0 0.00168105)
(0 0 0.00168121)
(0 0 0.00168098)
(0 0 0.00168039)
(0 0 0.00167942)
(0 0 0.00167808)
(0 0 0.00167637)
(0 0 0.0016743)
(0 0 0.00167187)
(0 0 0.00166908)
(0 0 0.00166594)
(0 0 0.00166245)
(0 0 0.00165862)
(0 0 0.00165444)
(0 0 0.00164992)
(0 0 0.00164507)
(0 0 0.0016399)
(0 0 0.0016344)
(0 0 0.00162858)
(0 0 0.00162245)
(0 0 0.00161601)
(0 0 0.00160927)
(0 0 0.00160223)
(0 0 0.00159491)
(0 0 0.00158729)
(0 0 0.0015794)
(0 0 0.00157123)
(0 0 0.0015628)
(0 0 0.0015541)
(0 0 0.00154515)
(0 0 0.00153595)
(0 0 0.0015265)
(0 0 0.00151682)
(0 0 0.0015069)
(0 0 0.00149676)
(0 0 0.0014864)
(0 0 0.00147583)
(0 0 0.00146504)
(0 0 0.00145406)
(0 0 0.00144288)
(0 0 0.00143151)
(0 0 0.00141995)
(0 0 0.00140822)
(0 0 0.00139631)
(0 0 0.00138424)
(0 0 0.001372)
(0 0 0.00135961)
(0 0 0.00134707)
(0 0 0.00133438)
(0 0 0.00132155)
(0 0 0.00130859)
(0 0 0.00129549)
(0 0 0.00128227)
(0 0 0.00126893)
(0 0 0.00125548)
(0 0 0.00124191)
(0 0 0.00122824)
(0 0 0.00121447)
(0 0 0.0012006)
(0 0 0.00118664)
(0 0 0.00117258)
(0 0 0.00115845)
(0 0 0.00114423)
(0 0 0.00112993)
(0 0 0.00111556)
(0 0 0.00110113)
(0 0 0.00108662)
(0 0 0.00107205)
(0 0 0.00105743)
(0 0 0.00104274)
(0 0 0.00102801)
(0 0 0.00101322)
(0 0 0.000998388)
(0 0 0.000983511)
(0 0 0.000968592)
(0 0 0.000953633)
(0 0 0.000938639)
(0 0 0.00092361)
(0 0 0.000908549)
(0 0 0.000893459)
(0 0 0.000878342)
(0 0 0.000863199)
(0 0 0.000848033)
(0 0 0.000832846)
(0 0 0.000817639)
(0 0 0.000802415)
(0 0 0.000787174)
(0 0 0.000771918)
(0 0 0.00075665)
(0 0 0.000741369)
(0 0 0.000726079)
(0 0 0.000710779)
(0 0 0.000695471)
(0 0 0.000680157)
(0 0 0.000664837)
(0 0 0.000649512)
(0 0 0.000634183)
(0 0 0.000618852)
(0 0 0.000603519)
(0 0 0.000588184)
(0 0 0.000572849)
(0 0 0.000557514)
(0 0 0.000542179)
(0 0 0.000526846)
(0 0 0.000511515)
(0 0 0.000496185)
(0 0 0.000480859)
(0 0 0.000465535)
(0 0 0.000450215)
(0 0 0.000434898)
(0 0 0.000419585)
(0 0 0.000404277)
(0 0 0.000388972)
(0 0 0.000373672)
(0 0 0.000358376)
(0 0 0.000343084)
(0 0 0.000327797)
(0 0 0.000312515)
(0 0 0.000297237)
(0 0 0.000281963)
(0 0 0.000266694)
(0 0 0.000251429)
(0 0 0.000236168)
(0 0 0.000220911)
(0 0 0.000205658)
(0 0 0.000190409)
(0 0 0.000175163)
(0 0 0.00015992)
(0 0 0.00014468)
(0 0 0.000129443)
(0 0 0.000114209)
(0 0 9.89762e-05)
(0 0 8.37457e-05)
(0 0 6.8517e-05)
(0 0 5.32896e-05)
(0 0 3.80632e-05)
(0 0 2.28376e-05)
(0 0 7.61249e-06)
(0 0 2.76308e-05)
(0 0 8.2893e-05)
(0 0 0.000138157)
(0 0 0.000193422)
(0 0 0.000248691)
(0 0 0.000303965)
(0 0 0.000359243)
(0 0 0.000414526)
(0 0 0.000469816)
(0 0 0.000525113)
(0 0 0.000580417)
(0 0 0.000635728)
(0 0 0.000691048)
(0 0 0.000746375)
(0 0 0.000801711)
(0 0 0.000857054)
(0 0 0.000912404)
(0 0 0.000967762)
(0 0 0.00102313)
(0 0 0.00107849)
(0 0 0.00113387)
(0 0 0.00118924)
(0 0 0.00124462)
(0 0 0.00129999)
(0 0 0.00135536)
(0 0 0.00141073)
(0 0 0.00146609)
(0 0 0.00152143)
(0 0 0.00157677)
(0 0 0.00163208)
(0 0 0.00168737)
(0 0 0.00174264)
(0 0 0.00179787)
(0 0 0.00185307)
(0 0 0.00190822)
(0 0 0.00196333)
(0 0 0.00201839)
(0 0 0.00207338)
(0 0 0.00212831)
(0 0 0.00218317)
(0 0 0.00223794)
(0 0 0.00229262)
(0 0 0.0023472)
(0 0 0.00240167)
(0 0 0.00245603)
(0 0 0.00251026)
(0 0 0.00256435)
(0 0 0.00261829)
(0 0 0.00267207)
(0 0 0.00272568)
(0 0 0.00277911)
(0 0 0.00283233)
(0 0 0.00288535)
(0 0 0.00293814)
(0 0 0.0029907)
(0 0 0.003043)
(0 0 0.00309504)
(0 0 0.00314679)
(0 0 0.00319824)
(0 0 0.00324938)
(0 0 0.00330018)
(0 0 0.00335064)
(0 0 0.00340073)
(0 0 0.00345044)
(0 0 0.00349974)
(0 0 0.00354862)
(0 0 0.00359707)
(0 0 0.00364505)
(0 0 0.00369256)
(0 0 0.00373957)
(0 0 0.00378606)
(0 0 0.00383202)
(0 0 0.00387742)
(0 0 0.00392224)
(0 0 0.00396646)
(0 0 0.00401006)
(0 0 0.00405302)
(0 0 0.00409532)
(0 0 0.00413695)
(0 0 0.00417787)
(0 0 0.00421806)
(0 0 0.00425752)
(0 0 0.00429621)
(0 0 0.00433412)
(0 0 0.00437123)
(0 0 0.00440751)
(0 0 0.00444295)
(0 0 0.00447753)
(0 0 0.00451124)
(0 0 0.00454404)
(0 0 0.00457593)
(0 0 0.00460688)
(0 0 0.00463688)
(0 0 0.00466592)
(0 0 0.00469397)
(0 0 0.00472103)
(0 0 0.00474707)
(0 0 0.00477209)
(0 0 0.00479607)
(0 0 0.00481899)
(0 0 0.00484085)
(0 0 0.00486164)
(0 0 0.00488134)
(0 0 0.00489994)
(0 0 0.00491744)
(0 0 0.00493382)
(0 0 0.00494909)
(0 0 0.00496323)
(0 0 0.00497624)
(0 0 0.00498811)
(0 0 0.00499884)
(0 0 0.00500843)
(0 0 0.00501688)
(0 0 0.00502418)
(0 0 0.00503034)
(0 0 0.00503535)
(0 0 0.00503922)
(0 0 0.00504194)
(0 0 0.00504353)
(0 0 0.00504399)
(0 0 0.00504332)
(0 0 0.00504152)
(0 0 0.00503861)
(0 0 0.0050346)
(0 0 0.00502948)
(0 0 0.00502326)
(0 0 0.00501597)
(0 0 0.0050076)
(0 0 0.00499818)
(0 0 0.0049877)
(0 0 0.00497618)
(0 0 0.00496364)
(0 0 0.00495009)
(0 0 0.00493554)
(0 0 0.00492001)
(0 0 0.0049035)
(0 0 0.00488605)
(0 0 0.00486765)
(0 0 0.00484833)
(0 0 0.0048281)
(0 0 0.00480699)
(0 0 0.004785)
(0 0 0.00476215)
(0 0 0.00473847)
(0 0 0.00471397)
(0 0 0.00468866)
(0 0 0.00466256)
(0 0 0.0046357)
(0 0 0.00460809)
(0 0 0.00457975)
(0 0 0.00455069)
(0 0 0.00452094)
(0 0 0.00449051)
(0 0 0.00445942)
(0 0 0.00442768)
(0 0 0.00439533)
(0 0 0.00436237)
(0 0 0.00432882)
(0 0 0.0042947)
(0 0 0.00426003)
(0 0 0.00422482)
(0 0 0.0041891)
(0 0 0.00415287)
(0 0 0.00411616)
(0 0 0.00407897)
(0 0 0.00404134)
(0 0 0.00400327)
(0 0 0.00396478)
(0 0 0.00392588)
(0 0 0.0038866)
(0 0 0.00384694)
(0 0 0.00380691)
(0 0 0.00376655)
(0 0 0.00372585)
(0 0 0.00368483)
(0 0 0.0036435)
(0 0 0.00360189)
(0 0 0.00355999)
(0 0 0.00351783)
(0 0 0.00347542)
(0 0 0.00343276)
(0 0 0.00338987)
(0 0 0.00334676)
(0 0 0.00330344)
(0 0 0.00325992)
(0 0 0.00321622)
(0 0 0.00317233)
(0 0 0.00312828)
(0 0 0.00308407)
(0 0 0.00303971)
(0 0 0.00299521)
(0 0 0.00295057)
(0 0 0.00290581)
(0 0 0.00286093)
(0 0 0.00281595)
(0 0 0.00277086)
(0 0 0.00272567)
(0 0 0.0026804)
(0 0 0.00263505)
(0 0 0.00258962)
(0 0 0.00254412)
(0 0 0.00249856)
(0 0 0.00245293)
(0 0 0.00240726)
(0 0 0.00236153)
(0 0 0.00231577)
(0 0 0.00226996)
(0 0 0.00222412)
(0 0 0.00217824)
(0 0 0.00213234)
(0 0 0.00208642)
(0 0 0.00204047)
(0 0 0.00199451)
(0 0 0.00194854)
(0 0 0.00190255)
(0 0 0.00185656)
(0 0 0.00181056)
(0 0 0.00176455)
(0 0 0.00171854)
(0 0 0.00167254)
(0 0 0.00162653)
(0 0 0.00158053)
(0 0 0.00153454)
(0 0 0.00148855)
(0 0 0.00144257)
(0 0 0.0013966)
(0 0 0.00135064)
(0 0 0.00130469)
(0 0 0.00125875)
(0 0 0.00121282)
(0 0 0.00116691)
(0 0 0.00112101)
(0 0 0.00107512)
(0 0 0.00102925)
(0 0 0.000983386)
(0 0 0.000937539)
(0 0 0.000891705)
(0 0 0.000845884)
(0 0 0.000800077)
(0 0 0.000754282)
(0 0 0.0007085)
(0 0 0.000662729)
(0 0 0.00061697)
(0 0 0.000571222)
(0 0 0.000525485)
(0 0 0.000479756)
(0 0 0.000434037)
(0 0 0.000388327)
(0 0 0.000342623)
(0 0 0.000296926)
(0 0 0.000251235)
(0 0 0.000205549)
(0 0 0.000159867)
(0 0 0.000114189)
(0 0 6.85124e-05)
(0 0 2.28373e-05)
(0 0 4.60509e-05)
(0 0 0.000138153)
(0 0 0.000230258)
(0 0 0.000322367)
(0 0 0.000414481)
(0 0 0.000506602)
(0 0 0.000598732)
(0 0 0.00069087)
(0 0 0.000783019)
(0 0 0.00087518)
(0 0 0.000967353)
(0 0 0.00105954)
(0 0 0.00115174)
(0 0 0.00124395)
(0 0 0.00133618)
(0 0 0.00142842)
(0 0 0.00152067)
(0 0 0.00161293)
(0 0 0.0017052)
(0 0 0.00179749)
(0 0 0.00188977)
(0 0 0.00198207)
(0 0 0.00207436)
(0 0 0.00216666)
(0 0 0.00225895)
(0 0 0.00235123)
(0 0 0.00244349)
(0 0 0.00253574)
(0 0 0.00262796)
(0 0 0.00272016)
(0 0 0.00281232)
(0 0 0.00290443)
(0 0 0.00299649)
(0 0 0.00308849)
(0 0 0.00318043)
(0 0 0.00327228)
(0 0 0.00336405)
(0 0 0.00345571)
(0 0 0.00354727)
(0 0 0.0036387)
(0 0 0.00373)
(0 0 0.00382114)
(0 0 0.00391212)
(0 0 0.00400292)
(0 0 0.00409353)
(0 0 0.00418392)
(0 0 0.00427408)
(0 0 0.004364)
(0 0 0.00445365)
(0 0 0.00454301)
(0 0 0.00463206)
(0 0 0.00472079)
(0 0 0.00480917)
(0 0 0.00489717)
(0 0 0.00498478)
(0 0 0.00507196)
(0 0 0.00515871)
(0 0 0.00524498)
(0 0 0.00533075)
(0 0 0.005416)
(0 0 0.00550069)
(0 0 0.00558481)
(0 0 0.00566831)
(0 0 0.00575117)
(0 0 0.00583337)
(0 0 0.00591486)
(0 0 0.00599562)
(0 0 0.00607562)
(0 0 0.00615482)
(0 0 0.00623319)
(0 0 0.0063107)
(0 0 0.00638732)
(0 0 0.006463)
(0 0 0.00653773)
(0 0 0.00661145)
(0 0 0.00668414)
(0 0 0.00675577)
(0 0 0.0068263)
(0 0 0.00689569)
(0 0 0.00696391)
(0 0 0.00703093)
(0 0 0.00709671)
(0 0 0.00716122)
(0 0 0.00722443)
(0 0 0.00728629)
(0 0 0.00734679)
(0 0 0.00740588)
(0 0 0.00746353)
(0 0 0.00751972)
(0 0 0.00757442)
(0 0 0.00762758)
(0 0 0.00767919)
(0 0 0.00772921)
(0 0 0.00777763)
(0 0 0.0078244)
(0 0 0.00786951)
(0 0 0.00791293)
(0 0 0.00795464)
(0 0 0.00799462)
(0 0 0.00803284)
(0 0 0.00806928)
(0 0 0.00810393)
(0 0 0.00813678)
(0 0 0.00816779)
(0 0 0.00819696)
(0 0 0.00822428)
(0 0 0.00824973)
(0 0 0.0082733)
(0 0 0.00829499)
(0 0 0.00831478)
(0 0 0.00833267)
(0 0 0.00834866)
(0 0 0.00836274)
(0 0 0.00837491)
(0 0 0.00838517)
(0 0 0.00839352)
(0 0 0.00839996)
(0 0 0.0084045)
(0 0 0.00840715)
(0 0 0.0084079)
(0 0 0.00840678)
(0 0 0.00840378)
(0 0 0.00839892)
(0 0 0.00839221)
(0 0 0.00838367)
(0 0 0.00837331)
(0 0 0.00836114)
(0 0 0.00834719)
(0 0 0.00833146)
(0 0 0.00831398)
(0 0 0.00829478)
(0 0 0.00827386)
(0 0 0.00825126)
(0 0 0.00822699)
(0 0 0.00820109)
(0 0 0.00817356)
(0 0 0.00814445)
(0 0 0.00811377)
(0 0 0.00808156)
(0 0 0.00804783)
(0 0 0.00801262)
(0 0 0.00797595)
(0 0 0.00793786)
(0 0 0.00789836)
(0 0 0.0078575)
(0 0 0.0078153)
(0 0 0.00777179)
(0 0 0.007727)
(0 0 0.00768096)
(0 0 0.0076337)
(0 0 0.00758525)
(0 0 0.00753565)
(0 0 0.00748491)
(0 0 0.00743307)
(0 0 0.00738017)
(0 0 0.00732622)
(0 0 0.00727127)
(0 0 0.00721533)
(0 0 0.00715845)
(0 0 0.00710064)
(0 0 0.00704195)
(0 0 0.00698238)
(0 0 0.00692199)
(0 0 0.00686078)
(0 0 0.00679879)
(0 0 0.00673605)
(0 0 0.00667258)
(0 0 0.00660842)
(0 0 0.00654357)
(0 0 0.00647808)
(0 0 0.00641196)
(0 0 0.00634524)
(0 0 0.00627795)
(0 0 0.0062101)
(0 0 0.00614172)
(0 0 0.00607283)
(0 0 0.00600346)
(0 0 0.00593362)
(0 0 0.00586334)
(0 0 0.00579263)
(0 0 0.00572152)
(0 0 0.00565002)
(0 0 0.00557816)
(0 0 0.00550595)
(0 0 0.00543341)
(0 0 0.00536056)
(0 0 0.00528741)
(0 0 0.00521398)
(0 0 0.00514028)
(0 0 0.00506634)
(0 0 0.00499216)
(0 0 0.00491776)
(0 0 0.00484315)
(0 0 0.00476834)
(0 0 0.00469336)
(0 0 0.0046182)
(0 0 0.00454289)
(0 0 0.00446743)
(0 0 0.00439183)
(0 0 0.00431611)
(0 0 0.00424027)
(0 0 0.00416432)
(0 0 0.00408828)
(0 0 0.00401215)
(0 0 0.00393594)
(0 0 0.00385965)
(0 0 0.0037833)
(0 0 0.00370689)
(0 0 0.00363043)
(0 0 0.00355393)
(0 0 0.00347739)
(0 0 0.00340081)
(0 0 0.0033242)
(0 0 0.00324757)
(0 0 0.00317093)
(0 0 0.00309427)
(0 0 0.0030176)
(0 0 0.00294092)
(0 0 0.00286424)
(0 0 0.00278756)
(0 0 0.00271089)
(0 0 0.00263422)
(0 0 0.00255756)
(0 0 0.00248091)
(0 0 0.00240428)
(0 0 0.00232766)
(0 0 0.00225105)
(0 0 0.00217447)
(0 0 0.0020979)
(0 0 0.00202136)
(0 0 0.00194484)
(0 0 0.00186833)
(0 0 0.00179185)
(0 0 0.0017154)
(0 0 0.00163896)
(0 0 0.00156255)
(0 0 0.00148616)
(0 0 0.00140979)
(0 0 0.00133345)
(0 0 0.00125712)
(0 0 0.00118082)
(0 0 0.00110454)
(0 0 0.00102827)
(0 0 0.000952026)
(0 0 0.000875797)
(0 0 0.000799584)
(0 0 0.000723386)
(0 0 0.000647202)
(0 0 0.000571031)
(0 0 0.000494871)
(0 0 0.00041872)
(0 0 0.000342578)
(0 0 0.000266442)
(0 0 0.000190312)
(0 0 0.000114186)
(0 0 3.80617e-05)
(0 0 6.44701e-05)
(0 0 0.000193411)
(0 0 0.000322356)
(0 0 0.000451306)
(0 0 0.000580264)
(0 0 0.000709232)
(0 0 0.000838211)
(0 0 0.000967204)
(0 0 0.00109621)
(0 0 0.00122523)
(0 0 0.00135428)
(0 0 0.00148334)
(0 0 0.00161241)
(0 0 0.00174151)
(0 0 0.00187063)
(0 0 0.00199976)
(0 0 0.00212892)
(0 0 0.00225809)
(0 0 0.00238727)
(0 0 0.00251647)
(0 0 0.00264568)
(0 0 0.00277489)
(0 0 0.00290411)
(0 0 0.00303333)
(0 0 0.00316254)
(0 0 0.00329173)
(0 0 0.00342092)
(0 0 0.00355007)
(0 0 0.00367919)
(0 0 0.00380827)
(0 0 0.0039373)
(0 0 0.00406627)
(0 0 0.00419517)
(0 0 0.00432399)
(0 0 0.00445271)
(0 0 0.00458132)
(0 0 0.00470981)
(0 0 0.00483815)
(0 0 0.00496635)
(0 0 0.00509437)
(0 0 0.0052222)
(0 0 0.00534983)
(0 0 0.00547722)
(0 0 0.00560436)
(0 0 0.00573123)
(0 0 0.00585781)
(0 0 0.00598406)
(0 0 0.00610997)
(0 0 0.00623551)
(0 0 0.00636064)
(0 0 0.00648535)
(0 0 0.0066096)
(0 0 0.00673336)
(0 0 0.00685659)
(0 0 0.00697928)
(0 0 0.00710138)
(0 0 0.00722285)
(0 0 0.00734366)
(0 0 0.00746378)
(0 0 0.00758317)
(0 0 0.00770178)
(0 0 0.00781958)
(0 0 0.00793653)
(0 0 0.00805258)
(0 0 0.0081677)
(0 0 0.00828183)
(0 0 0.00839494)
(0 0 0.00850698)
(0 0 0.00861791)
(0 0 0.00872768)
(0 0 0.00883624)
(0 0 0.00894355)
(0 0 0.00904955)
(0 0 0.00915421)
(0 0 0.00925748)
(0 0 0.00935929)
(0 0 0.00945962)
(0 0 0.00955841)
(0 0 0.0096556)
(0 0 0.00975116)
(0 0 0.00984504)
(0 0 0.00993718)
(0 0 0.0100275)
(0 0 0.0101161)
(0 0 0.0102027)
(0 0 0.0102875)
(0 0 0.0103702)
(0 0 0.010451)
(0 0 0.0105297)
(0 0 0.0106063)
(0 0 0.0106808)
(0 0 0.0107531)
(0 0 0.0108232)
(0 0 0.010891)
(0 0 0.0109565)
(0 0 0.0110197)
(0 0 0.0110805)
(0 0 0.0111389)
(0 0 0.0111949)
(0 0 0.0112485)
(0 0 0.0112995)
(0 0 0.011348)
(0 0 0.011394)
(0 0 0.0114375)
(0 0 0.0114783)
(0 0 0.0115166)
(0 0 0.0115522)
(0 0 0.0115853)
(0 0 0.0116156)
(0 0 0.0116434)
(0 0 0.0116684)
(0 0 0.0116908)
(0 0 0.0117105)
(0 0 0.0117275)
(0 0 0.0117419)
(0 0 0.0117536)
(0 0 0.0117626)
(0 0 0.011769)
(0 0 0.0117727)
(0 0 0.0117737)
(0 0 0.0117721)
(0 0 0.0117679)
(0 0 0.0117611)
(0 0 0.0117517)
(0 0 0.0117397)
(0 0 0.0117252)
(0 0 0.0117081)
(0 0 0.0116885)
(0 0 0.0116665)
(0 0 0.011642)
(0 0 0.0116151)
(0 0 0.0115858)
(0 0 0.0115541)
(0 0 0.0115201)
(0 0 0.0114838)
(0 0 0.0114452)
(0 0 0.0114044)
(0 0 0.0113614)
(0 0 0.0113163)
(0 0 0.011269)
(0 0 0.0112197)
(0 0 0.0111683)
(0 0 0.011115)
(0 0 0.0110596)
(0 0 0.0110024)
(0 0 0.0109433)
(0 0 0.0108823)
(0 0 0.0108196)
(0 0 0.0107551)
(0 0 0.0106888)
(0 0 0.010621)
(0 0 0.0105515)
(0 0 0.0104804)
(0 0 0.0104078)
(0 0 0.0103337)
(0 0 0.0102581)
(0 0 0.0101811)
(0 0 0.0101028)
(0 0 0.0100231)
(0 0 0.00994215)
(0 0 0.00985994)
(0 0 0.00977651)
(0 0 0.00969191)
(0 0 0.00960619)
(0 0 0.00951937)
(0 0 0.00943149)
(0 0 0.0093426)
(0 0 0.00925273)
(0 0 0.00916191)
(0 0 0.00907019)
(0 0 0.00897759)
(0 0 0.00888415)
(0 0 0.0087899)
(0 0 0.00869488)
(0 0 0.00859912)
(0 0 0.00850264)
(0 0 0.00840549)
(0 0 0.00830769)
(0 0 0.00820926)
(0 0 0.00811025)
(0 0 0.00801066)
(0 0 0.00791055)
(0 0 0.00780991)
(0 0 0.0077088)
(0 0 0.00760722)
(0 0 0.0075052)
(0 0 0.00740277)
(0 0 0.00729994)
(0 0 0.00719675)
(0 0 0.0070932)
(0 0 0.00698933)
(0 0 0.00688515)
(0 0 0.00678068)
(0 0 0.00667594)
(0 0 0.00657094)
(0 0 0.0064657)
(0 0 0.00636025)
(0 0 0.00625459)
(0 0 0.00614874)
(0 0 0.00604271)
(0 0 0.00593653)
(0 0 0.00583019)
(0 0 0.00572372)
(0 0 0.00561712)
(0 0 0.00551041)
(0 0 0.00540361)
(0 0 0.00529671)
(0 0 0.00518972)
(0 0 0.00508267)
(0 0 0.00497556)
(0 0 0.00486839)
(0 0 0.00476117)
(0 0 0.00465392)
(0 0 0.00454663)
(0 0 0.00443932)
(0 0 0.00433199)
(0 0 0.00422464)
(0 0 0.00411729)
(0 0 0.00400993)
(0 0 0.00390258)
(0 0 0.00379523)
(0 0 0.00368789)
(0 0 0.00358057)
(0 0 0.00347326)
(0 0 0.00336597)
(0 0 0.0032587)
(0 0 0.00315145)
(0 0 0.00304423)
(0 0 0.00293704)
(0 0 0.00282987)
(0 0 0.00272274)
(0 0 0.00261564)
(0 0 0.00250856)
(0 0 0.00240152)
(0 0 0.00229451)
(0 0 0.00218754)
(0 0 0.00208059)
(0 0 0.00197368)
(0 0 0.0018668)
(0 0 0.00175994)
(0 0 0.00165312)
(0 0 0.00154632)
(0 0 0.00143955)
(0 0 0.00133281)
(0 0 0.00122609)
(0 0 0.0011194)
(0 0 0.00101272)
(0 0 0.000906066)
(0 0 0.000799428)
(0 0 0.000692805)
(0 0 0.000586196)
(0 0 0.000479599)
(0 0 0.000373012)
(0 0 0.000266432)
(0 0 0.000159857)
(0 0 5.32853e-05)
(0 0 8.28882e-05)
(0 0 0.000248666)
(0 0 0.000414448)
(0 0 0.000580238)
(0 0 0.000746038)
(0 0 0.00091185)
(0 0 0.00107768)
(0 0 0.00124352)
(0 0 0.00140939)
(0 0 0.00157527)
(0 0 0.00174118)
(0 0 0.00190711)
(0 0 0.00207307)
(0 0 0.00223905)
(0 0 0.00240506)
(0 0 0.00257109)
(0 0 0.00273715)
(0 0 0.00290323)
(0 0 0.00306933)
(0 0 0.00323544)
(0 0 0.00340157)
(0 0 0.00356771)
(0 0 0.00373386)
(0 0 0.0039)
(0 0 0.00406614)
(0 0 0.00423226)
(0 0 0.00439836)
(0 0 0.00456443)
(0 0 0.00473046)
(0 0 0.00489644)
(0 0 0.00506235)
(0 0 0.00522819)
(0 0 0.00539394)
(0 0 0.00555958)
(0 0 0.0057251)
(0 0 0.00589048)
(0 0 0.0060557)
(0 0 0.00622075)
(0 0 0.0063856)
(0 0 0.00655023)
(0 0 0.00671462)
(0 0 0.00687874)
(0 0 0.00704257)
(0 0 0.00720608)
(0 0 0.00736924)
(0 0 0.00753202)
(0 0 0.00769439)
(0 0 0.00785632)
(0 0 0.00801777)
(0 0 0.0081787)
(0 0 0.00833909)
(0 0 0.00849889)
(0 0 0.00865807)
(0 0 0.00881657)
(0 0 0.00897437)
(0 0 0.00913141)
(0 0 0.00928765)
(0 0 0.00944305)
(0 0 0.00959755)
(0 0 0.00975112)
(0 0 0.00990369)
(0 0 0.0100552)
(0 0 0.0102056)
(0 0 0.0103549)
(0 0 0.010503)
(0 0 0.0106498)
(0 0 0.0107953)
(0 0 0.0109395)
(0 0 0.0110822)
(0 0 0.0112234)
(0 0 0.011363)
(0 0 0.0115011)
(0 0 0.0116375)
(0 0 0.0117721)
(0 0 0.0119049)
(0 0 0.0120359)
(0 0 0.012165)
(0 0 0.0122921)
(0 0 0.0124172)
(0 0 0.0125401)
(0 0 0.0126609)
(0 0 0.0127794)
(0 0 0.0128957)
(0 0 0.0130096)
(0 0 0.0131211)
(0 0 0.0132301)
(0 0 0.0133366)
(0 0 0.0134405)
(0 0 0.0135418)
(0 0 0.0136404)
(0 0 0.0137362)
(0 0 0.0138292)
(0 0 0.0139194)
(0 0 0.0140066)
(0 0 0.0140909)
(0 0 0.0141722)
(0 0 0.0142505)
(0 0 0.0143256)
(0 0 0.0143977)
(0 0 0.0144666)
(0 0 0.0145322)
(0 0 0.0145947)
(0 0 0.0146539)
(0 0 0.0147098)
(0 0 0.0147623)
(0 0 0.0148115)
(0 0 0.0148574)
(0 0 0.0148999)
(0 0 0.0149389)
(0 0 0.0149746)
(0 0 0.0150068)
(0 0 0.0150356)
(0 0 0.015061)
(0 0 0.0150829)
(0 0 0.0151013)
(0 0 0.0151163)
(0 0 0.0151279)
(0 0 0.0151361)
(0 0 0.0151408)
(0 0 0.0151421)
(0 0 0.0151401)
(0 0 0.0151346)
(0 0 0.0151258)
(0 0 0.0151137)
(0 0 0.0150983)
(0 0 0.0150795)
(0 0 0.0150576)
(0 0 0.0150324)
(0 0 0.015004)
(0 0 0.0149724)
(0 0 0.0149378)
(0 0 0.0149)
(0 0 0.0148593)
(0 0 0.0148155)
(0 0 0.0147687)
(0 0 0.0147191)
(0 0 0.0146666)
(0 0 0.0146113)
(0 0 0.0145532)
(0 0 0.0144923)
(0 0 0.0144288)
(0 0 0.0143627)
(0 0 0.014294)
(0 0 0.0142228)
(0 0 0.0141491)
(0 0 0.014073)
(0 0 0.0139946)
(0 0 0.0139139)
(0 0 0.0138309)
(0 0 0.0137457)
(0 0 0.0136583)
(0 0 0.0135689)
(0 0 0.0134775)
(0 0 0.013384)
(0 0 0.0132887)
(0 0 0.0131914)
(0 0 0.0130924)
(0 0 0.0129916)
(0 0 0.0128891)
(0 0 0.0127849)
(0 0 0.0126791)
(0 0 0.0125718)
(0 0 0.012463)
(0 0 0.0123527)
(0 0 0.012241)
(0 0 0.012128)
(0 0 0.0120136)
(0 0 0.011898)
(0 0 0.0117812)
(0 0 0.0116632)
(0 0 0.0115441)
(0 0 0.0114239)
(0 0 0.0113026)
(0 0 0.0111804)
(0 0 0.0110572)
(0 0 0.0109331)
(0 0 0.0108082)
(0 0 0.0106824)
(0 0 0.0105558)
(0 0 0.0104284)
(0 0 0.0103004)
(0 0 0.0101716)
(0 0 0.0100422)
(0 0 0.0099121)
(0 0 0.00978146)
(0 0 0.00965025)
(0 0 0.00951852)
(0 0 0.00938628)
(0 0 0.00925356)
(0 0 0.0091204)
(0 0 0.00898682)
(0 0 0.00885284)
(0 0 0.00871848)
(0 0 0.00858378)
(0 0 0.00844876)
(0 0 0.00831343)
(0 0 0.00817782)
(0 0 0.00804194)
(0 0 0.00790583)
(0 0 0.00776948)
(0 0 0.00763293)
(0 0 0.00749619)
(0 0 0.00735928)
(0 0 0.00722221)
(0 0 0.00708499)
(0 0 0.00694765)
(0 0 0.00681019)
(0 0 0.00667263)
(0 0 0.00653497)
(0 0 0.00639724)
(0 0 0.00625944)
(0 0 0.00612157)
(0 0 0.00598366)
(0 0 0.00584571)
(0 0 0.00570773)
(0 0 0.00556972)
(0 0 0.0054317)
(0 0 0.00529367)
(0 0 0.00515563)
(0 0 0.0050176)
(0 0 0.00487957)
(0 0 0.00474156)
(0 0 0.00460356)
(0 0 0.00446559)
(0 0 0.00432764)
(0 0 0.00418971)
(0 0 0.00405182)
(0 0 0.00391397)
(0 0 0.00377614)
(0 0 0.00363836)
(0 0 0.00350061)
(0 0 0.00336291)
(0 0 0.00322524)
(0 0 0.00308762)
(0 0 0.00295004)
(0 0 0.00281249)
(0 0 0.00267499)
(0 0 0.00253753)
(0 0 0.00240011)
(0 0 0.00226273)
(0 0 0.00212539)
(0 0 0.00198808)
(0 0 0.00185081)
(0 0 0.00171357)
(0 0 0.00157637)
(0 0 0.00143919)
(0 0 0.00130204)
(0 0 0.00116491)
(0 0 0.00102781)
(0 0 0.000890726)
(0 0 0.000753661)
(0 0 0.000616611)
(0 0 0.000479574)
(0 0 0.000342546)
(0 0 0.000205525)
(0 0 6.85078e-05)
(0 0 0.000101305)
(0 0 0.000303916)
(0 0 0.000506534)
(0 0 0.00070916)
(0 0 0.000911798)
(0 0 0.00111445)
(0 0 0.00131713)
(0 0 0.00151982)
(0 0 0.00172254)
(0 0 0.00192529)
(0 0 0.00212806)
(0 0 0.00233087)
(0 0 0.0025337)
(0 0 0.00273657)
(0 0 0.00293947)
(0 0 0.0031424)
(0 0 0.00334536)
(0 0 0.00354835)
(0 0 0.00375137)
(0 0 0.00395441)
(0 0 0.00415746)
(0 0 0.00436053)
(0 0 0.00456361)
(0 0 0.00476669)
(0 0 0.00496976)
(0 0 0.00517281)
(0 0 0.00537584)
(0 0 0.00557884)
(0 0 0.00578178)
(0 0 0.00598467)
(0 0 0.00618748)
(0 0 0.00639019)
(0 0 0.0065928)
(0 0 0.00679529)
(0 0 0.00699763)
(0 0 0.0071998)
(0 0 0.00740178)
(0 0 0.00760355)
(0 0 0.00780507)
(0 0 0.00800634)
(0 0 0.00820731)
(0 0 0.00840795)
(0 0 0.00860824)
(0 0 0.00880815)
(0 0 0.00900762)
(0 0 0.00920664)
(0 0 0.00940516)
(0 0 0.00960314)
(0 0 0.00980054)
(0 0 0.00999732)
(0 0 0.0101934)
(0 0 0.0103888)
(0 0 0.0105834)
(0 0 0.0107773)
(0 0 0.0109702)
(0 0 0.0111622)
(0 0 0.0113533)
(0 0 0.0115433)
(0 0 0.0117323)
(0 0 0.0119201)
(0 0 0.0121066)
(0 0 0.0122919)
(0 0 0.0124759)
(0 0 0.0126585)
(0 0 0.0128396)
(0 0 0.0130191)
(0 0 0.0131971)
(0 0 0.0133734)
(0 0 0.0135479)
(0 0 0.0137206)
(0 0 0.0138914)
(0 0 0.0140603)
(0 0 0.0142271)
(0 0 0.0143918)
(0 0 0.0145543)
(0 0 0.0147145)
(0 0 0.0148724)
(0 0 0.0150278)
(0 0 0.0151808)
(0 0 0.0153312)
(0 0 0.0154789)
(0 0 0.015624)
(0 0 0.0157662)
(0 0 0.0159055)
(0 0 0.0160419)
(0 0 0.0161753)
(0 0 0.0163056)
(0 0 0.0164327)
(0 0 0.0165566)
(0 0 0.0166772)
(0 0 0.0167944)
(0 0 0.0169082)
(0 0 0.0170185)
(0 0 0.0171252)
(0 0 0.0172283)
(0 0 0.0173278)
(0 0 0.0174235)
(0 0 0.0175155)
(0 0 0.0176036)
(0 0 0.0176879)
(0 0 0.0177682)
(0 0 0.0178446)
(0 0 0.017917)
(0 0 0.0179854)
(0 0 0.0180497)
(0 0 0.0181099)
(0 0 0.0181659)
(0 0 0.0182179)
(0 0 0.0182657)
(0 0 0.0183093)
(0 0 0.0183487)
(0 0 0.0183839)
(0 0 0.0184148)
(0 0 0.0184416)
(0 0 0.0184642)
(0 0 0.0184825)
(0 0 0.0184967)
(0 0 0.0185066)
(0 0 0.0185124)
(0 0 0.018514)
(0 0 0.0185114)
(0 0 0.0185047)
(0 0 0.0184939)
(0 0 0.018479)
(0 0 0.0184601)
(0 0 0.0184372)
(0 0 0.0184103)
(0 0 0.0183794)
(0 0 0.0183446)
(0 0 0.018306)
(0 0 0.0182636)
(0 0 0.0182174)
(0 0 0.0181674)
(0 0 0.0181138)
(0 0 0.0180566)
(0 0 0.0179959)
(0 0 0.0179316)
(0 0 0.0178638)
(0 0 0.0177927)
(0 0 0.0177183)
(0 0 0.0176406)
(0 0 0.0175597)
(0 0 0.0174756)
(0 0 0.0173885)
(0 0 0.0172983)
(0 0 0.0172052)
(0 0 0.0171092)
(0 0 0.0170104)
(0 0 0.0169089)
(0 0 0.0168046)
(0 0 0.0166978)
(0 0 0.0165884)
(0 0 0.0164765)
(0 0 0.0163622)
(0 0 0.0162455)
(0 0 0.0161266)
(0 0 0.0160054)
(0 0 0.0158821)
(0 0 0.0157567)
(0 0 0.0156293)
(0 0 0.0154999)
(0 0 0.0153686)
(0 0 0.0152355)
(0 0 0.0151006)
(0 0 0.014964)
(0 0 0.0148257)
(0 0 0.0146859)
(0 0 0.0145445)
(0 0 0.0144016)
(0 0 0.0142573)
(0 0 0.0141116)
(0 0 0.0139646)
(0 0 0.0138164)
(0 0 0.0136669)
(0 0 0.0135163)
(0 0 0.0133645)
(0 0 0.0132117)
(0 0 0.0130579)
(0 0 0.0129031)
(0 0 0.0127473)
(0 0 0.0125907)
(0 0 0.0124333)
(0 0 0.012275)
(0 0 0.012116)
(0 0 0.0119563)
(0 0 0.0117958)
(0 0 0.0116348)
(0 0 0.0114731)
(0 0 0.0113108)
(0 0 0.011148)
(0 0 0.0109847)
(0 0 0.0108209)
(0 0 0.0106566)
(0 0 0.010492)
(0 0 0.0103269)
(0 0 0.0101614)
(0 0 0.00999565)
(0 0 0.00982954)
(0 0 0.00966314)
(0 0 0.00949646)
(0 0 0.00932953)
(0 0 0.00916237)
(0 0 0.008995)
(0 0 0.00882744)
(0 0 0.0086597)
(0 0 0.00849181)
(0 0 0.00832378)
(0 0 0.00815562)
(0 0 0.00798735)
(0 0 0.00781899)
(0 0 0.00765054)
(0 0 0.00748203)
(0 0 0.00731345)
(0 0 0.00714483)
(0 0 0.00697616)
(0 0 0.00680747)
(0 0 0.00663877)
(0 0 0.00647005)
(0 0 0.00630132)
(0 0 0.0061326)
(0 0 0.00596389)
(0 0 0.0057952)
(0 0 0.00562653)
(0 0 0.00545789)
(0 0 0.00528928)
(0 0 0.0051207)
(0 0 0.00495216)
(0 0 0.00478367)
(0 0 0.00461521)
(0 0 0.00444681)
(0 0 0.00427845)
(0 0 0.00411014)
(0 0 0.00394188)
(0 0 0.00377367)
(0 0 0.00360552)
(0 0 0.00343741)
(0 0 0.00326936)
(0 0 0.00310135)
(0 0 0.0029334)
(0 0 0.00276549)
(0 0 0.00259763)
(0 0 0.00242981)
(0 0 0.00226204)
(0 0 0.00209431)
(0 0 0.00192661)
(0 0 0.00175895)
(0 0 0.00159133)
(0 0 0.00142374)
(0 0 0.00125617)
(0 0 0.00108863)
(0 0 0.000921111)
(0 0 0.000753611)
(0 0 0.000586126)
(0 0 0.000418653)
(0 0 0.000251188)
(0 0 8.37289e-05)
(0 0 0.00011972)
(0 0 0.000359161)
(0 0 0.00059861)
(0 0 0.000838069)
(0 0 0.00107754)
(0 0 0.00131704)
(0 0 0.00155655)
(0 0 0.0017961)
(0 0 0.00203567)
(0 0 0.00227527)
(0 0 0.00251491)
(0 0 0.00275459)
(0 0 0.0029943)
(0 0 0.00323406)
(0 0 0.00347385)
(0 0 0.00371368)
(0 0 0.00395355)
(0 0 0.00419345)
(0 0 0.00443338)
(0 0 0.00467335)
(0 0 0.00491334)
(0 0 0.00515334)
(0 0 0.00539336)
(0 0 0.00563338)
(0 0 0.00587339)
(0 0 0.00611339)
(0 0 0.00635336)
(0 0 0.00659329)
(0 0 0.00683317)
(0 0 0.00707297)
(0 0 0.00731269)
(0 0 0.00755231)
(0 0 0.0077918)
(0 0 0.00803115)
(0 0 0.00827032)
(0 0 0.0085093)
(0 0 0.00874807)
(0 0 0.00898658)
(0 0 0.00922481)
(0 0 0.00946274)
(0 0 0.00970032)
(0 0 0.00993752)
(0 0 0.0101743)
(0 0 0.0104106)
(0 0 0.0106465)
(0 0 0.0108818)
(0 0 0.0111165)
(0 0 0.0113505)
(0 0 0.0115839)
(0 0 0.0118166)
(0 0 0.0120485)
(0 0 0.0122795)
(0 0 0.0125096)
(0 0 0.0127388)
(0 0 0.012967)
(0 0 0.013194)
(0 0 0.01342)
(0 0 0.0136447)
(0 0 0.0138681)
(0 0 0.0140902)
(0 0 0.0143109)
(0 0 0.01453)
(0 0 0.0147476)
(0 0 0.0149635)
(0 0 0.0151777)
(0 0 0.0153901)
(0 0 0.0156005)
(0 0 0.015809)
(0 0 0.0160155)
(0 0 0.0162198)
(0 0 0.0164218)
(0 0 0.0166215)
(0 0 0.0168188)
(0 0 0.0170136)
(0 0 0.0172059)
(0 0 0.0173954)
(0 0 0.0175822)
(0 0 0.0177661)
(0 0 0.017947)
(0 0 0.018125)
(0 0 0.0182997)
(0 0 0.0184713)
(0 0 0.0186396)
(0 0 0.0188044)
(0 0 0.0189658)
(0 0 0.0191236)
(0 0 0.0192777)
(0 0 0.0194281)
(0 0 0.0195747)
(0 0 0.0197173)
(0 0 0.019856)
(0 0 0.0199906)
(0 0 0.0201211)
(0 0 0.0202474)
(0 0 0.0203694)
(0 0 0.0204871)
(0 0 0.0206004)
(0 0 0.0207092)
(0 0 0.0208134)
(0 0 0.0209131)
(0 0 0.0210082)
(0 0 0.0210985)
(0 0 0.0211842)
(0 0 0.021265)
(0 0 0.0213411)
(0 0 0.0214123)
(0 0 0.0214786)
(0 0 0.0215401)
(0 0 0.0215966)
(0 0 0.0216481)
(0 0 0.0216947)
(0 0 0.0217363)
(0 0 0.021773)
(0 0 0.0218046)
(0 0 0.0218313)
(0 0 0.0218529)
(0 0 0.0218696)
(0 0 0.0218813)
(0 0 0.0218881)
(0 0 0.0218899)
(0 0 0.0218869)
(0 0 0.0218789)
(0 0 0.0218661)
(0 0 0.0218484)
(0 0 0.021826)
(0 0 0.0217988)
(0 0 0.0217669)
(0 0 0.0217303)
(0 0 0.0216891)
(0 0 0.0216434)
(0 0 0.0215931)
(0 0 0.0215384)
(0 0 0.0214793)
(0 0 0.0214158)
(0 0 0.0213481)
(0 0 0.0212761)
(0 0 0.0212)
(0 0 0.0211198)
(0 0 0.0210356)
(0 0 0.0209475)
(0 0 0.0208555)
(0 0 0.0207598)
(0 0 0.0206603)
(0 0 0.0205571)
(0 0 0.0204504)
(0 0 0.0203402)
(0 0 0.0202266)
(0 0 0.0201097)
(0 0 0.0199895)
(0 0 0.0198662)
(0 0 0.0197398)
(0 0 0.0196103)
(0 0 0.0194779)
(0 0 0.0193427)
(0 0 0.0192047)
(0 0 0.0190639)
(0 0 0.0189206)
(0 0 0.0187747)
(0 0 0.0186264)
(0 0 0.0184756)
(0 0 0.0183225)
(0 0 0.0181672)
(0 0 0.0180098)
(0 0 0.0178502)
(0 0 0.0176886)
(0 0 0.0175251)
(0 0 0.0173597)
(0 0 0.0171924)
(0 0 0.0170234)
(0 0 0.0168528)
(0 0 0.0166805)
(0 0 0.0165066)
(0 0 0.0163313)
(0 0 0.0161545)
(0 0 0.0159764)
(0 0 0.0157969)
(0 0 0.0156162)
(0 0 0.0154343)
(0 0 0.0152513)
(0 0 0.0150671)
(0 0 0.014882)
(0 0 0.0146958)
(0 0 0.0145086)
(0 0 0.0143206)
(0 0 0.0141318)
(0 0 0.0139421)
(0 0 0.0137516)
(0 0 0.0135605)
(0 0 0.0133686)
(0 0 0.0131762)
(0 0 0.0129831)
(0 0 0.0127894)
(0 0 0.0125952)
(0 0 0.0124005)
(0 0 0.0122054)
(0 0 0.0120098)
(0 0 0.0118138)
(0 0 0.0116174)
(0 0 0.0114207)
(0 0 0.0112237)
(0 0 0.0110264)
(0 0 0.0108288)
(0 0 0.0106309)
(0 0 0.0104328)
(0 0 0.0102346)