/*--------------------------------*- C++ -*----------------------------------*\
| =========                 |                                                 |
| \\      /  F ield         | OpenFOAM: The Open Source CFD Toolbox           |
|  \\    /   O peration     | Version:  v2012                                 |
|   \\  /    A nd           | Website:  www.openfoam.com                      |
|    \\/     M anipulation  |                                                 |
\*---------------------------------------------------------------------------*/
FoamFile
{
    version     2.0;
    format      ascii;
    class       surfaceScalarField;
    location    "1.2";
    object      phi;
}
// * * * * * * * * * * * * * * * * * * * * * * * * * * * * * * * * * * * * * //

dimensions      [0 3 -1 0 0 0 0];
oriented        oriented;


internalField   nonuniform List<scalar> 
130560
(
3.39073e-06
-3.39073e-06
6.78123e-06
-3.3905e-06
1.01713e-05
-3.39005e-06
1.35607e-05
-3.38937e-06
1.69491e-05
-3.38847e-06
2.03365e-05
-3.38733e-06
2.37224e-05
-3.38596e-06
2.71068e-05
-3.38436e-06
3.04893e-05
-3.38252e-06
3.38697e-05
-3.38044e-06
3.72479e-05
-3.37811e-06
4.06234e-05
-3.37554e-06
4.39961e-05
-3.37271e-06
4.73657e-05
-3.36962e-06
5.0732e-05
-3.36626e-06
5.40946e-05
-3.36263e-06
5.74533e-05
-3.35873e-06
6.08079e-05
-3.35454e-06
6.41579e-05
-3.35007e-06
6.75032e-05
-3.34529e-06
7.08434e-05
-3.34021e-06
7.41783e-05
-3.33481e-06
7.75073e-05
-3.32909e-06
8.08304e-05
-3.32304e-06
8.4147e-05
-3.31665e-06
8.74569e-05
-3.30991e-06
9.07598e-05
-3.30281e-06
9.40551e-05
-3.29535e-06
9.73426e-05
-3.2875e-06
0.000100622
-3.27927e-06
0.000103893
-3.27064e-06
0.000107154
-3.26161e-06
0.000110406
-3.25215e-06
0.000113649
-3.24226e-06
0.00011688
-3.23193e-06
0.000120102
-3.22116e-06
0.000123312
-3.20992e-06
0.00012651
-3.19821e-06
0.000129696
-3.18601e-06
0.000132869
-3.17332e-06
0.000136029
-3.16013e-06
0.000139176
-3.14642e-06
0.000142308
-3.13218e-06
0.000145425
-3.11741e-06
0.000148527
-3.10209e-06
0.000151614
-3.08622e-06
0.000154683
-3.06977e-06
0.000157736
-3.05276e-06
0.000160771
-3.03515e-06
0.000163788
-3.01696e-06
0.000166786
-2.99816e-06
0.000169765
-2.97874e-06
0.000172724
-2.95871e-06
0.000175662
-2.93805e-06
0.000178579
-2.91676e-06
0.000181473
-2.89483e-06
0.000184346
-2.87225e-06
0.000187195
-2.84902e-06
0.00019002
-2.82513e-06
0.00019282
-2.80057e-06
0.000195596
-2.77536e-06
0.000198345
-2.74947e-06
0.000201068
-2.7229e-06
0.000203764
-2.69567e-06
0.000206432
-2.66775e-06
0.000209071
-2.63916e-06
0.000211681
-2.60989e-06
0.000214261
-2.57994e-06
0.00021681
-2.54931e-06
0.000219328
-2.51801e-06
0.000221814
-2.48604e-06
0.000224267
-2.4534e-06
0.000226687
-2.42009e-06
0.000229073
-2.38612e-06
0.000231425
-2.35149e-06
0.000233741
-2.31622e-06
0.000236021
-2.2803e-06
0.000238265
-2.24374e-06
0.000240472
-2.20656e-06
0.000242641
-2.16876e-06
0.000244771
-2.13035e-06
0.000246862
-2.09133e-06
0.000248914
-2.05173e-06
0.000250926
-2.01155e-06
0.000252896
-1.97081e-06
0.000254826
-1.92951e-06
0.000256713
-1.88766e-06
0.000258559
-1.8453e-06
0.000260361
-1.80241e-06
0.00026212
-1.75903e-06
0.000263835
-1.71517e-06
0.000265506
-1.67083e-06
0.000267132
-1.62604e-06
0.000268713
-1.58082e-06
0.000270248
-1.53517e-06
0.000271737
-1.48912e-06
0.00027318
-1.44267e-06
0.000274576
-1.39586e-06
0.000275925
-1.3487e-06
0.000277226
-1.3012e-06
0.000278479
-1.25338e-06
0.000279684
-1.20525e-06
0.000280841
-1.15685e-06
0.000281949
-1.10818e-06
0.000283009
-1.05926e-06
0.000284019
-1.01011e-06
0.00028498
-9.60745e-07
0.000285891
-9.11187e-07
0.000286752
-8.6145e-07
0.000287564
-8.11552e-07
0.000288325
-7.61511e-07
0.000289037
-7.11343e-07
0.000289698
-6.61065e-07
0.000290308
-6.10694e-07
0.000290869
-5.60245e-07
0.000291378
-5.09736e-07
0.000291838
-4.59181e-07
0.000292246
-4.08597e-07
0.000292604
-3.57999e-07
0.000292912
-3.07401e-07
0.000293168
-2.56819e-07
0.000293375
-2.06267e-07
0.00029353
-1.55759e-07
0.000293636
-1.05309e-07
0.000293691
-5.49312e-08
0.000293695
-4.63839e-09
0.00029365
4.55563e-08
0.000293554
9.56399e-08
0.000293408
1.456e-07
0.000293213
1.95424e-07
0.000292968
2.45101e-07
0.000292673
2.94618e-07
0.000292329
3.43964e-07
0.000291936
3.93127e-07
0.000291494
4.42097e-07
0.000291003
4.90862e-07
0.000290464
5.39412e-07
0.000289876
5.87736e-07
0.00028924
6.35825e-07
0.000288557
6.83666e-07
0.000287825
7.31252e-07
0.000287047
7.78571e-07
0.000286221
8.25614e-07
0.000285349
8.7237e-07
0.00028443
9.18832e-07
0.000283465
9.64989e-07
0.000282454
1.01083e-06
0.000281398
1.05635e-06
0.000280296
1.10154e-06
0.00027915
1.14638e-06
0.000277959
1.19088e-06
0.000276724
1.23501e-06
0.000275445
1.27878e-06
0.000274123
1.32216e-06
0.000272758
1.36517e-06
0.00027135
1.40777e-06
0.0002699
1.44998e-06
0.000268408
1.49177e-06
0.000266875
1.53315e-06
0.000265301
1.5741e-06
0.000263687
1.61461e-06
0.000262032
1.65467e-06
0.000260338
1.69429e-06
0.000258604
1.73345e-06
0.000256832
1.77214e-06
0.000255022
1.81036e-06
0.000253174
1.84809e-06
0.000251288
1.88534e-06
0.000249366
1.9221e-06
0.000247408
1.95835e-06
0.000245414
1.9941e-06
0.000243384
2.02934e-06
0.00024132
2.06405e-06
0.000239222
2.09825e-06
0.00023709
2.13191e-06
0.000234925
2.16504e-06
0.000232727
2.19764e-06
0.000230498
2.22969e-06
0.000228237
2.26119e-06
0.000225944
2.29215e-06
0.000223622
2.32255e-06
0.000221269
2.3524e-06
0.000218888
2.38169e-06
0.000216477
2.41042e-06
0.000214039
2.43859e-06
0.000211573
2.4662e-06
0.000209079
2.49325e-06
0.00020656
2.51973e-06
0.000204014
2.54565e-06
0.000201443
2.571e-06
0.000198847
2.59579e-06
0.000196227
2.62002e-06
0.000193583
2.6437e-06
0.000190917
2.66681e-06
0.000188227
2.68937e-06
0.000185516
2.71137e-06
0.000182783
2.73283e-06
0.000180029
2.75374e-06
0.000177255
2.77411e-06
0.000174461
2.79393e-06
0.000171648
2.81323e-06
0.000168816
2.83199e-06
0.000165966
2.85024e-06
0.000163098
2.86796e-06
0.000160213
2.88517e-06
0.000157311
2.90187e-06
0.000154393
2.91807e-06
0.000151459
2.93378e-06
0.00014851
2.949e-06
0.000145546
2.96374e-06
0.000142568
2.97801e-06
0.000139576
2.99181e-06
0.000136571
3.00515e-06
0.000133553
3.01804e-06
0.000130523
3.03048e-06
0.00012748
3.04249e-06
0.000124426
3.05407e-06
0.000121361
3.06523e-06
0.000118285
3.07598e-06
0.000115199
3.08632e-06
0.000112102
3.09627e-06
0.000108997
3.10582e-06
0.000105882
3.115e-06
0.000102758
3.12381e-06
9.96255e-05
3.13225e-06
9.64851e-05
3.14034e-06
9.33371e-05
3.14807e-06
9.01816e-05
3.15547e-06
8.70191e-05
3.16253e-06
8.38498e-05
3.16927e-06
8.06741e-05
3.17569e-06
7.74923e-05
3.1818e-06
7.43047e-05
3.1876e-06
7.11116e-05
3.19311e-06
6.79133e-05
3.19832e-06
6.471e-05
3.20325e-06
6.15021e-05
3.20791e-06
5.82898e-05
3.21229e-06
5.50734e-05
3.21641e-06
5.18532e-05
3.22026e-06
4.86293e-05
3.22386e-06
4.54021e-05
3.22721e-06
4.21718e-05
3.23032e-06
3.89386e-05
3.23318e-06
3.57028e-05
3.23581e-06
3.24646e-05
3.2382e-06
2.92242e-05
3.24037e-06
2.59819e-05
3.2423e-06
2.27379e-05
3.24402e-06
1.94924e-05
3.24551e-06
1.62456e-05
3.24679e-06
1.29978e-05
3.24785e-06
9.74905e-06
3.2487e-06
6.49972e-06
3.24933e-06
3.24996e-06
3.24975e-06
3.24996e-06
3.39095e-06
-6.78168e-06
6.78167e-06
-6.78123e-06
1.01719e-05
-6.78032e-06
1.35615e-05
-6.77897e-06
1.69502e-05
-6.77716e-06
2.03378e-05
-6.77489e-06
2.3724e-05
-6.77216e-06
2.71086e-05
-6.76896e-06
3.04913e-05
-6.76528e-06
3.3872e-05
-6.76112e-06
3.72504e-05
-6.75647e-06
4.06262e-05
-6.75132e-06
4.39991e-05
-6.74567e-06
4.7369e-05
-6.73949e-06
5.07355e-05
-6.73279e-06
5.40984e-05
-6.72554e-06
5.74574e-05
-6.71774e-06
6.08123e-05
-6.70937e-06
6.41626e-05
-6.70042e-06
6.75082e-05
-6.69088e-06
7.08487e-05
-6.68072e-06
7.41839e-05
-6.66994e-06
7.75133e-05
-6.65851e-06
8.08367e-05
-6.64642e-06
8.41537e-05
-6.63365e-06
8.74639e-05
-6.62018e-06
9.07671e-05
-6.60599e-06
9.40628e-05
-6.59107e-06
9.73507e-05
-6.57539e-06
0.00010063
-6.55894e-06
0.000103901
-6.54169e-06
0.000107163
-6.52363e-06
0.000110416
-6.50472e-06
0.000113659
-6.48496e-06
0.000116891
-6.46432e-06
0.000120113
-6.44277e-06
0.000123323
-6.42031e-06
0.000126522
-6.39689e-06
0.000129708
-6.37251e-06
0.000132882
-6.34714e-06
0.000136043
-6.32077e-06
0.00013919
-6.29336e-06
0.000142322
-6.2649e-06
0.00014544
-6.23536e-06
0.000148543
-6.20474e-06
0.00015163
-6.173e-06
0.0001547
-6.14012e-06
0.000157753
-6.1061e-06
0.000160789
-6.0709e-06
0.000163807
-6.03451e-06
0.000166806
-5.99692e-06
0.000169785
-5.95811e-06
0.000172744
-5.91805e-06
0.000175683
-5.87674e-06
0.0001786
-5.83416e-06
0.000181496
-5.79031e-06
0.000184369
-5.74515e-06
0.000187218
-5.69869e-06
0.000190044
-5.65092e-06
0.000192845
-5.60182e-06
0.000195621
-5.55138e-06
0.000198372
-5.4996e-06
0.000201095
-5.44648e-06
0.000203791
-5.39201e-06
0.00020646
-5.33618e-06
0.0002091
-5.279e-06
0.00021171
-5.22045e-06
0.000214291
-5.16056e-06
0.000216841
-5.0993e-06
0.00021936
-5.0367e-06
0.000221846
-4.97275e-06
0.0002243
-4.90746e-06
0.000226721
-4.84084e-06
0.000229108
-4.77289e-06
0.00023146
-4.70364e-06
0.000233777
-4.63308e-06
0.000236058
-4.56123e-06
0.000238302
-4.48812e-06
0.000240509
-4.41374e-06
0.000242679
-4.33813e-06
0.00024481
-4.26129e-06
0.000246902
-4.18326e-06
0.000248954
-4.10404e-06
0.000250966
-4.02367e-06
0.000252937
-3.94217e-06
0.000254868
-3.85955e-06
0.000256756
-3.77586e-06
0.000258602
-3.69111e-06
0.000260404
-3.60533e-06
0.000262164
-3.51855e-06
0.00026388
-3.4308e-06
0.000265551
-3.34212e-06
0.000267177
-3.25252e-06
0.000268759
-3.16206e-06
0.000270294
-3.07074e-06
0.000271784
-2.97862e-06
0.000273227
-2.88572e-06
0.000274623
-2.79208e-06
0.000275972
-2.69774e-06
0.000277273
-2.60272e-06
0.000278527
-2.50706e-06
0.000279733
-2.4108e-06
0.00028089
-2.31397e-06
0.000281998
-2.21661e-06
0.000283058
-2.11875e-06
0.000284068
-2.02043e-06
0.000285029
-1.92169e-06
0.00028594
-1.82256e-06
0.000286802
-1.72306e-06
0.000287614
-1.62325e-06
0.000288375
-1.52315e-06
0.000289087
-1.4228e-06
0.000289748
-1.32223e-06
0.000290359
-1.22147e-06
0.000290919
-1.12056e-06
0.000291429
-1.01952e-06
0.000291888
-9.18397e-07
0.000292297
-8.17213e-07
0.000292655
-7.16001e-07
0.000292962
-6.14791e-07
0.000293219
-5.13612e-07
0.000293425
-4.12494e-07
0.000293581
-3.11464e-07
0.000293686
-2.10551e-07
0.000293741
-1.09782e-07
0.000293745
-9.18314e-09
0.0002937
9.1219e-08
0.000293604
1.91399e-07
0.000293458
2.91331e-07
0.000293263
3.90992e-07
0.000293017
4.90357e-07
0.000292723
5.89403e-07
0.000292379
6.88106e-07
0.000291985
7.86443e-07
0.000291543
8.84394e-07
0.000291052
9.81935e-07
0.000290512
1.07905e-06
0.000289924
1.1757e-06
0.000289288
1.27189e-06
0.000288604
1.36758e-06
0.000287873
1.46277e-06
0.000287094
1.55741e-06
0.000286268
1.65151e-06
0.000285395
1.74503e-06
0.000284476
1.83796e-06
0.000283511
1.93029e-06
0.0002825
2.02198e-06
0.000281443
2.11303e-06
0.000280341
2.20341e-06
0.000279194
2.29311e-06
0.000278003
2.38211e-06
0.000276768
2.47038e-06
0.000275489
2.55792e-06
0.000274166
2.64471e-06
0.000272801
2.73072e-06
0.000271392
2.81595e-06
0.000269942
2.90037e-06
0.00026845
2.98396e-06
0.000266916
3.06672e-06
0.000265342
3.14862e-06
0.000263727
3.22965e-06
0.000262072
3.3098e-06
0.000260377
3.38904e-06
0.000258643
3.46736e-06
0.00025687
3.54475e-06
0.00025506
3.62119e-06
0.000253211
3.69667e-06
0.000251325
3.77118e-06
0.000249403
3.84469e-06
0.000247444
3.91721e-06
0.000245449
3.98871e-06
0.000243419
4.05919e-06
0.000241355
4.12863e-06
0.000239256
4.19702e-06
0.000237123
4.26435e-06
0.000234958
4.33062e-06
0.00023276
4.39581e-06
0.000230529
4.45992e-06
0.000228268
4.52293e-06
0.000225975
4.58485e-06
0.000223652
4.64566e-06
0.000221299
4.70536e-06
0.000218917
4.76394e-06
0.000216506
4.82141e-06
0.000214067
4.87775e-06
0.0002116
4.93297e-06
0.000209106
4.98706e-06
0.000206586
5.04002e-06
0.000204039
5.09186e-06
0.000201468
5.14256e-06
0.000198872
5.19215e-06
0.000196251
5.24061e-06
0.000193607
5.28795e-06
0.000190939
5.33418e-06
0.000188249
5.37929e-06
0.000185537
5.4233e-06
0.000182804
5.4662e-06
0.00018005
5.50802e-06
0.000177275
5.54875e-06
0.000174481
5.5884e-06
0.000171667
5.62699e-06
0.000168834
5.66451e-06
0.000165984
5.70099e-06
0.000163115
5.73643e-06
0.00016023
5.77085e-06
0.000157327
5.80425e-06
0.000154409
5.83665e-06
0.000151474
5.86806e-06
0.000148525
5.89849e-06
0.000145561
5.92796e-06
0.000142582
5.95648e-06
0.00013959
5.98408e-06
0.000136584
6.01075e-06
0.000133566
6.03652e-06
0.000130535
6.0614e-06
0.000127492
6.08541e-06
0.000124437
6.10856e-06
0.000121372
6.13087e-06
0.000118295
6.15236e-06
0.000115209
6.17304e-06
0.000112112
6.19292e-06
0.000109006
6.21203e-06
0.00010589
6.23038e-06
0.000102766
6.24798e-06
9.96337e-05
6.26486e-06
9.6493e-05
6.28102e-06
9.33446e-05
6.29649e-06
9.01888e-05
6.31127e-06
8.70259e-05
6.32539e-06
8.38563e-05
6.33886e-06
8.06803e-05
6.35169e-06
7.74982e-05
6.3639e-06
7.43103e-05
6.3755e-06
7.11169e-05
6.38651e-06
6.79183e-05
6.39693e-06
6.47148e-05
6.40679e-06
6.15066e-05
6.41609e-06
5.8294e-05
6.42485e-06
5.50774e-05
6.43307e-06
5.18568e-05
6.44078e-06
4.86327e-05
6.44798e-06
4.54053e-05
6.45467e-06
4.21747e-05
6.46088e-06
3.89413e-05
6.4666e-06
3.57052e-05
6.47185e-06
3.24668e-05
6.47663e-06
2.92262e-05
6.48096e-06
2.59837e-05
6.48484e-06
2.27394e-05
6.48826e-06
1.94937e-05
6.49125e-06
1.62467e-05
6.4938e-06
1.29986e-05
6.49593e-06
9.74969e-06
6.49762e-06
6.50014e-06
6.49888e-06
3.25018e-06
6.49972e-06
6.50014e-06
3.3914e-06
-1.01731e-05
6.78258e-06
-1.01724e-05
1.01733e-05
-1.01711e-05
1.35634e-05
-1.0169e-05
1.69525e-05
-1.01663e-05
2.03405e-05
-1.01629e-05
2.37272e-05
-1.01588e-05
2.71123e-05
-1.0154e-05
3.04955e-05
-1.01485e-05
3.38767e-05
-1.01423e-05
3.72555e-05
-1.01353e-05
4.06318e-05
-1.01276e-05
4.40053e-05
-1.01191e-05
4.73757e-05
-1.01099e-05
5.07428e-05
-1.00999e-05
5.41063e-05
-1.0089e-05
5.74659e-05
-1.00773e-05
6.08213e-05
-1.00648e-05
6.41722e-05
-1.00514e-05
6.75184e-05
-1.00371e-05
7.08596e-05
-1.00219e-05
7.41953e-05
-1.00057e-05
7.75254e-05
-9.98859e-06
8.08495e-05
-9.97047e-06
8.41672e-05
-9.95134e-06
8.74782e-05
-9.93116e-06
9.07821e-05
-9.90991e-06
9.40786e-05
-9.88755e-06
9.73672e-05
-9.86406e-06
0.000100648
-9.83941e-06
0.00010392
-9.81356e-06
0.000107182
-9.78649e-06
0.000110436
-9.75816e-06
0.000113679
-9.72854e-06
0.000116913
-9.6976e-06
0.000120135
-9.66531e-06
0.000123347
-9.63164e-06
0.000126546
-9.59655e-06
0.000129734
-9.56e-06
0.000132909
-9.52198e-06
0.00013607
-9.48244e-06
0.000139218
-9.44135e-06
0.000142352
-9.39869e-06
0.000145471
-9.35441e-06
0.000148575
-9.30849e-06
0.000151663
-9.26091e-06
0.000154734
-9.21162e-06
0.000157789
-9.16061e-06
0.000160826
-9.10783e-06
0.000163844
-9.05328e-06
0.000166844
-8.99691e-06
0.000169825
-8.93871e-06
0.000172786
-8.87864e-06
0.000175726
-8.8167e-06
0.000178644
-8.75285e-06
0.000181541
-8.68708e-06
0.000184415
-8.61936e-06
0.000187266
-8.54968e-06
0.000190093
-8.47803e-06
0.000192896
-8.40439e-06
0.000195673
-8.32875e-06
0.000198425
-8.25109e-06
0.00020115
-8.17141e-06
0.000203847
-8.08971e-06
0.000206517
-8.00597e-06
0.000209158
-7.92019e-06
0.00021177
-7.83238e-06
0.000214352
-7.74253e-06
0.000216904
-7.65064e-06
0.000219424
-7.55673e-06
0.000221912
-7.4608e-06
0.000224367
-7.36286e-06
0.000226789
-7.26291e-06
0.000229177
-7.16098e-06
0.000231531
-7.05708e-06
0.000233849
-6.95123e-06
0.000236131
-6.84344e-06
0.000238377
-6.73374e-06
0.000240585
-6.62216e-06
0.000242756
-6.50872e-06
0.000244888
-6.39344e-06
0.000246981
-6.27636e-06
0.000249034
-6.15751e-06
0.000251048
-6.03693e-06
0.00025302
-5.91464e-06
0.000254951
-5.79069e-06
0.000256841
-5.66511e-06
0.000258687
-5.53795e-06
0.000260491
-5.40924e-06
0.000262252
-5.27904e-06
0.000263968
-5.14738e-06
0.000265641
-5.01431e-06
0.000267268
-4.87988e-06
0.00026885
-4.74414e-06
0.000270386
-4.60713e-06
0.000271877
-4.4689e-06
0.00027332
-4.32951e-06
0.000274717
-4.18901e-06
0.000276067
-4.04744e-06
0.000277369
-3.90487e-06
0.000278624
-3.76134e-06
0.00027983
-3.6169e-06
0.000280987
-3.47162e-06
0.000282096
-3.32553e-06
0.000283156
-3.1787e-06
0.000284167
-3.03118e-06
0.000285128
-2.88302e-06
0.00028604
-2.73428e-06
0.000286902
-2.585e-06
0.000287714
-2.43524e-06
0.000288476
-2.28505e-06
0.000289187
-2.13448e-06
0.000289849
-1.98358e-06
0.00029046
-1.8324e-06
0.00029102
-1.68099e-06
0.00029153
-1.52939e-06
0.000291989
-1.37767e-06
0.000292398
-1.22585e-06
0.000292756
-1.074e-06
0.000293063
-9.22147e-07
0.00029332
-7.70343e-07
0.000293526
-6.1863e-07
0.000293682
-4.67051e-07
0.000293787
-3.15647e-07
0.000293842
-1.6446e-07
0.000293846
-1.35292e-08
0.0002938
1.37106e-07
0.000293704
2.87407e-07
0.000293558
4.37337e-07
0.000293362
5.86858e-07
0.000293117
7.35935e-07
0.000292821
8.84532e-07
0.000292477
1.03261e-06
0.000292083
1.18015e-06
0.00029164
1.3271e-06
0.000291149
1.47344e-06
0.000290609
1.61913e-06
0.00029002
1.76415e-06
0.000289384
1.90845e-06
0.000288699
2.05202e-06
0.000287967
2.19481e-06
0.000287188
2.33681e-06
0.000286362
2.47798e-06
0.000285488
2.61829e-06
0.000284569
2.75771e-06
0.000283603
2.89622e-06
0.000282591
3.03378e-06
0.000281533
3.17038e-06
0.000280431
3.30597e-06
0.000279283
3.44054e-06
0.000278092
3.57406e-06
0.000276855
3.7065e-06
0.000275575
3.83783e-06
0.000274252
3.96803e-06
0.000272886
4.09707e-06
0.000271477
4.22493e-06
0.000270026
4.35158e-06
0.000268533
4.47699e-06
0.000266998
4.60115e-06
0.000265423
4.72402e-06
0.000263807
4.84559e-06
0.000262151
4.96582e-06
0.000260455
5.0847e-06
0.00025872
5.2022e-06
0.000256947
5.3183e-06
0.000255135
5.43299e-06
0.000253285
5.54622e-06
0.000251399
5.658e-06
0.000249475
5.76829e-06
0.000247515
5.87708e-06
0.000245519
5.98435e-06
0.000243489
6.09008e-06
0.000241423
6.19425e-06
0.000239323
6.29685e-06
0.00023719
6.39786e-06
0.000235023
6.49728e-06
0.000232824
6.59507e-06
0.000230592
6.69124e-06
0.00022833
6.78577e-06
0.000226036
6.87865e-06
0.000223712
6.96987e-06
0.000221357
7.05943e-06
0.000218974
7.14731e-06
0.000216562
7.23351e-06
0.000214122
7.31803e-06
0.000211654
7.40086e-06
0.000209159
7.48199e-06
0.000206637
7.56144e-06
0.00020409
7.63919e-06
0.000201517
7.71525e-06
0.00019892
7.78963e-06
0.000196298
7.86231e-06
0.000193653
7.93332e-06
0.000190984
8.00265e-06
0.000188293
8.07032e-06
0.00018558
8.13632e-06
0.000182846
8.20067e-06
0.00018009
8.26339e-06
0.000177315
8.32447e-06
0.000174519
8.38394e-06
0.000171704
8.44181e-06
0.000168871
8.49808e-06
0.000166019
8.55279e-06
0.00016315
8.60593e-06
0.000160263
8.65754e-06
0.000157359
8.70762e-06
0.00015444
8.7562e-06
0.000151505
8.8033e-06
0.000148554
8.84894e-06
0.000145589
8.89313e-06
0.00014261
8.93589e-06
0.000139616
8.97726e-06
0.00013661
9.01725e-06
0.000133591
9.05589e-06
0.000130559
9.09319e-06
0.000127515
9.12918e-06
0.00012446
9.16389e-06
0.000121393
9.19734e-06
0.000118316
9.22955e-06
0.000115229
9.26055e-06
0.000112131
9.29035e-06
0.000109024
9.319e-06
0.000105908
9.3465e-06
0.000102783
9.37289e-06
9.96498e-05
9.39818e-06
9.65084e-05
9.42241e-06
9.33593e-05
9.44559e-06
9.02028e-05
9.46774e-06
8.70393e-05
9.4889e-06
8.38691e-05
9.50908e-06
8.06925e-05
9.52831e-06
7.75098e-05
9.54661e-06
7.43213e-05
9.56399e-06
7.11273e-05
9.58048e-06
6.79281e-05
9.59611e-06
6.4724e-05
9.61088e-06
6.15153e-05
9.62481e-06
5.83022e-05
9.63794e-06
5.5085e-05
9.65026e-06
5.1864e-05
9.66181e-06
4.86394e-05
9.67259e-06
4.54114e-05
9.68262e-06
4.21804e-05
9.69192e-06
3.89465e-05
9.70049e-06
3.571e-05
9.70836e-06
3.24711e-05
9.71553e-06
2.92301e-05
9.72201e-06
2.59871e-05
9.72781e-06
2.27424e-05
9.73295e-06
1.94962e-05
9.73742e-06
1.62488e-05
9.74125e-06
1.30003e-05
9.74443e-06
9.75096e-06
9.74696e-06
6.50099e-06
9.74886e-06
3.2506e-06
9.75011e-06
9.75073e-06
3.39208e-06
-1.35652e-05
6.78394e-06
-1.35643e-05
1.01753e-05
-1.35625e-05
1.35661e-05
-1.35598e-05
1.69559e-05
-1.35562e-05
2.03447e-05
-1.35516e-05
2.3732e-05
-1.35462e-05
2.71178e-05
-1.35398e-05
3.05018e-05
-1.35325e-05
3.38837e-05
-1.35242e-05
3.72633e-05
-1.35149e-05
4.06404e-05
-1.35047e-05
4.40146e-05
-1.34934e-05
4.73858e-05
-1.34811e-05
5.07537e-05
-1.34677e-05
5.4118e-05
-1.34533e-05
5.74784e-05
-1.34378e-05
6.08347e-05
-1.34211e-05
6.41866e-05
-1.34032e-05
6.75337e-05
-1.33842e-05
7.08758e-05
-1.3364e-05
7.42125e-05
-1.33425e-05
7.75436e-05
-1.33197e-05
8.08687e-05
-1.32956e-05
8.41874e-05
-1.32701e-05
8.74995e-05
-1.32432e-05
9.08045e-05
-1.32149e-05
9.41021e-05
-1.31852e-05
9.7392e-05
-1.31539e-05
0.000100674
-1.31211e-05
0.000103947
-1.30867e-05
0.000107211
-1.30506e-05
0.000110466
-1.30129e-05
0.00011371
-1.29734e-05
0.000116945
-1.29322e-05
0.000120169
-1.28892e-05
0.000123382
-1.28444e-05
0.000126583
-1.27977e-05
0.000129772
-1.2749e-05
0.000132948
-1.26983e-05
0.000136111
-1.26457e-05
0.000139261
-1.25909e-05
0.000142396
-1.25341e-05
0.000145517
-1.24751e-05
0.000148623
-1.24139e-05
0.000151712
-1.23505e-05
0.000154785
-1.22849e-05
0.000157842
-1.22169e-05
0.00016088
-1.21466e-05
0.000163901
-1.20739e-05
0.000166903
-1.19987e-05
0.000169885
-1.19212e-05
0.000172848
-1.18411e-05
0.00017579
-1.17586e-05
0.00017871
-1.16735e-05
0.000181609
-1.15858e-05
0.000184485
-1.14955e-05
0.000187338
-1.14027e-05
0.000190167
-1.13071e-05
0.000192972
-1.1209e-05
0.000195751
-1.11081e-05
0.000198505
-1.10046e-05
0.000201232
-1.08984e-05
0.000203931
-1.07894e-05
0.000206603
-1.06778e-05
0.000209246
-1.05634e-05
0.00021186
-1.04463e-05
0.000214444
-1.03265e-05
0.000216998
-1.0204e-05
0.00021952
-1.00788e-05
0.00022201
-9.95086e-06
0.000224467
-9.82025e-06
0.000226891
-9.68697e-06
0.000229281
-9.55104e-06
0.000231637
-9.41248e-06
0.000233957
-9.27131e-06
0.000236241
-9.12756e-06
0.000238488
-8.98126e-06
0.000240699
-8.83244e-06
0.000242871
-8.68114e-06
0.000245005
-8.52739e-06
0.0002471
-8.37123e-06
0.000249155
-8.21271e-06
0.00025117
-8.05188e-06
0.000253144
-7.88877e-06
0.000255077
-7.72344e-06
0.000256968
-7.55594e-06
0.000258816
-7.38633e-06
0.000260622
-7.21465e-06
0.000262384
-7.04098e-06
0.000264102
-6.86536e-06
0.000265775
-6.68787e-06
0.000267404
-6.50855e-06
0.000268987
-6.32748e-06
0.000270525
-6.14473e-06
0.000272016
-5.96035e-06
0.000273461
-5.77441e-06
0.000274859
-5.587e-06
0.00027621
-5.39816e-06
0.000277513
-5.20798e-06
0.000278768
-5.01652e-06
0.000279975
-4.82386e-06
0.000281133
-4.63006e-06
0.000282243
-4.4352e-06
0.000283304
-4.23935e-06
0.000284315
-4.04257e-06
0.000285277
-3.84494e-06
0.000286189
-3.64653e-06
0.000287052
-3.44741e-06
0.000287864
-3.24765e-06
0.000288626
-3.04732e-06
0.000289338
-2.84648e-06
0.00029
-2.6452e-06
0.000290611
-2.44355e-06
0.000291172
-2.2416e-06
0.000291682
-2.0394e-06
0.000292141
-1.83703e-06
0.00029255
-1.63454e-06
0.000292908
-1.43199e-06
0.000293215
-1.22945e-06
0.000293472
-1.02698e-06
0.000293678
-8.24629e-07
0.000293833
-6.22459e-07
0.000293938
-4.20524e-07
0.000293992
-2.18879e-07
0.000293997
-1.75766e-08
0.00029395
1.8333e-07
0.000293854
3.8379e-07
0.000293708
5.83753e-07
0.000293511
7.83171e-07
0.000293265
9.81995e-07
0.000292969
1.18018e-06
0.000292624
1.37767e-06
0.00029223
1.57444e-06
0.000291787
1.77043e-06
0.000291295
1.9656e-06
0.000290754
2.1599e-06
0.000290165
2.3533e-06
0.000289527
2.54576e-06
0.000288842
2.73722e-06
0.000288109
2.92767e-06
0.000287329
3.11704e-06
0.000286502
3.30531e-06
0.000285628
3.49243e-06
0.000284707
3.67837e-06
0.00028374
3.86309e-06
0.000282727
4.04655e-06
0.000281669
4.22872e-06
0.000280565
4.40956e-06
0.000279417
4.58903e-06
0.000278224
4.76709e-06
0.000276987
4.94372e-06
0.000275706
5.11887e-06
0.000274381
5.29251e-06
0.000273014
5.46461e-06
0.000271603
5.63512e-06
0.000270151
5.80403e-06
0.000268657
5.97129e-06
0.000267121
6.13687e-06
0.000265544
6.30073e-06
0.000263927
6.46286e-06
0.00026227
6.6232e-06
0.000260573
6.78175e-06
0.000258836
6.93845e-06
0.000257061
7.09329e-06
0.000255248
7.24623e-06
0.000253397
7.39724e-06
0.000251509
7.54631e-06
0.000249584
7.69339e-06
0.000247622
7.83847e-06
0.000245625
7.98152e-06
0.000243593
8.12252e-06
0.000241525
8.26144e-06
0.000239424
8.39827e-06
0.000237289
8.53298e-06
0.000235121
8.66555e-06
0.00023292
8.79596e-06
0.000230687
8.92421e-06
0.000228422
9.05026e-06
0.000226127
9.17412e-06
0.000223801
9.29576e-06
0.000221445
9.41518e-06
0.00021906
9.53236e-06
0.000216646
9.6473e-06
0.000214204
9.76e-06
0.000211735
9.87044e-06
0.000209238
9.97862e-06
0.000206715
1.00846e-05
0.000204166
1.01882e-05
0.000201592
1.02896e-05
0.000198993
1.03888e-05
0.000196369
1.04857e-05
0.000193722
1.05804e-05
0.000191052
1.06728e-05
0.000188359
1.0763e-05
0.000185645
1.0851e-05
0.000182908
1.09368e-05
0.000180151
1.10204e-05
0.000177374
1.11018e-05
0.000174577
1.11811e-05
0.000171761
1.12582e-05
0.000168925
1.13332e-05
0.000166072
1.14061e-05
0.000163201
1.1477e-05
0.000160313
1.15458e-05
0.000157408
1.16125e-05
0.000154487
1.16772e-05
0.00015155
1.174e-05
0.000148598
1.18008e-05
0.000145632
1.18597e-05
0.000142651
1.19167e-05
0.000139656
1.19718e-05
0.000136649
1.20251e-05
0.000133628
1.20766e-05
0.000130595
1.21263e-05
0.00012755
1.21742e-05
0.000124493
1.22205e-05
0.000121425
1.2265e-05
0.000118347
1.2308e-05
0.000115258
1.23492e-05
0.00011216
1.23889e-05
0.000109052
1.24271e-05
0.000105934
1.24637e-05
0.000102808
1.24989e-05
9.9674e-05
1.25326e-05
9.65315e-05
1.25648e-05
9.33814e-05
1.25957e-05
9.02239e-05
1.26252e-05
8.70595e-05
1.26534e-05
8.38883e-05
1.26803e-05
8.07107e-05
1.27059e-05
7.75271e-05
1.27302e-05
7.43377e-05
1.27534e-05
7.11429e-05
1.27753e-05
6.79429e-05
1.27961e-05
6.47379e-05
1.28158e-05
6.15284e-05
1.28344e-05
5.83145e-05
1.28518e-05
5.50965e-05
1.28682e-05
5.18748e-05
1.28836e-05
4.86494e-05
1.28979e-05
4.54207e-05
1.29113e-05
4.2189e-05
1.29237e-05
3.89544e-05
1.29351e-05
3.57172e-05
1.29456e-05
3.24776e-05
1.29551e-05
2.92359e-05
1.29637e-05
2.59922e-05
1.29715e-05
2.27469e-05
1.29783e-05
1.95001e-05
1.29842e-05
1.6252e-05
1.29893e-05
1.30028e-05
1.29936e-05
9.75285e-06
1.29969e-05
6.50225e-06
1.29995e-05
3.25123e-06
1.30011e-05
1.3002e-05
3.39298e-06
-1.69581e-05
6.78574e-06
-1.6957e-05
1.01781e-05
-1.69548e-05
1.35697e-05
-1.69514e-05
1.69605e-05
-1.69469e-05
2.03501e-05
-1.69413e-05
2.37384e-05
-1.69345e-05
2.71252e-05
-1.69266e-05
3.05101e-05
-1.69174e-05
3.3893e-05
-1.69071e-05
3.72736e-05
-1.68955e-05
4.06517e-05
-1.68828e-05
4.4027e-05
-1.68687e-05
4.73992e-05
-1.68534e-05
5.07682e-05
-1.68367e-05
5.41336e-05
-1.68187e-05
5.74952e-05
-1.67993e-05
6.08526e-05
-1.67785e-05
6.42057e-05
-1.67563e-05
6.7554e-05
-1.67326e-05
7.08974e-05
-1.67073e-05
7.42354e-05
-1.66805e-05
7.75678e-05
-1.66521e-05
8.08943e-05
-1.6622e-05
8.42144e-05
-1.65902e-05
8.75279e-05
-1.65567e-05
9.08344e-05
-1.65214e-05
9.41335e-05
-1.64843e-05
9.74249e-05
-1.64453e-05
0.000100708
-1.64043e-05
0.000103983
-1.63614e-05
0.000107249
-1.63164e-05
0.000110505
-1.62693e-05
0.000113752
-1.62201e-05
0.000116988
-1.61687e-05
0.000120214
-1.6115e-05
0.000123429
-1.6059e-05
0.000126632
-1.60007e-05
0.000129823
-1.59399e-05
0.000133001
-1.58767e-05
0.000136166
-1.58109e-05
0.000139318
-1.57426e-05
0.000142456
-1.56716e-05
0.000145578
-1.5598e-05
0.000148686
-1.55216e-05
0.000151778
-1.54424e-05
0.000154854
-1.53604e-05
0.000157912
-1.52755e-05
0.000160953
-1.51877e-05
0.000163976
-1.50968e-05
0.00016698
-1.5003e-05
0.000169965
-1.49061e-05
0.00017293
-1.48061e-05
0.000175875
-1.4703e-05
0.000178798
-1.45966e-05
0.000181699
-1.44871e-05
0.000184578
-1.43743e-05
0.000187434
-1.42583e-05
0.000190265
-1.41389e-05
0.000193073
-1.40162e-05
0.000195855
-1.38902e-05
0.000198611
-1.37608e-05
0.000201341
-1.3628e-05
0.000204043
-1.34919e-05
0.000206718
-1.33523e-05
0.000209364
-1.32094e-05
0.00021198
-1.3063e-05
0.000214567
-1.29132e-05
0.000217123
-1.27601e-05
0.000219648
-1.26035e-05
0.000222141
-1.24436e-05
0.000224601
-1.22803e-05
0.000227027
-1.21137e-05
0.00022942
-1.19437e-05
0.000231778
-1.17705e-05
0.000234101
-1.1594e-05
0.000236387
-1.14142e-05
0.000238637
-1.12313e-05
0.00024085
-1.10452e-05
0.000243025
-1.0856e-05
0.000245161
-1.06637e-05
0.000247259
-1.04685e-05
0.000249316
-1.02702e-05
0.000251333
-1.00691e-05
0.00025331
-9.86512e-06
0.000255245
-9.65836e-06
0.000257138
-9.44889e-06
0.000258988
-9.23677e-06
0.000260795
-9.02207e-06
0.000262559
-8.80486e-06
0.000264279
-8.58522e-06
0.000265955
-8.36324e-06
0.000267585
-8.13897e-06
0.00026917
-7.91251e-06
0.000270709
-7.68394e-06
0.000272202
-7.45334e-06
0.000273649
-7.2208e-06
0.000275048
-6.9864e-06
0.0002764
-6.75022e-06
0.000277704
-6.51236e-06
0.000278961
-6.27291e-06
0.000280169
-6.03195e-06
0.000281328
-5.78957e-06
0.000282439
-5.54586e-06
0.000283501
-5.30091e-06
0.000284513
-5.0548e-06
0.000285476
-4.80764e-06
0.000286389
-4.55949e-06
0.000287252
-4.31047e-06
0.000288065
-4.06064e-06
0.000288827
-3.81009e-06
0.00028954
-3.55891e-06
0.000290202
-3.30719e-06
0.000290813
-3.05501e-06
0.000291374
-2.80244e-06
0.000291884
-2.54958e-06
0.000292344
-2.2965e-06
0.000292752
-2.04327e-06
0.00029311
-1.78997e-06
0.000293418
-1.53669e-06
0.000293674
-1.28349e-06
0.00029388
-1.03045e-06
0.000294035
-7.77629e-07
0.00029414
-5.25107e-07
0.000294194
-2.72951e-07
0.000294197
-2.12254e-08
0.000294151
2.30004e-07
0.000294054
4.80673e-07
0.000293907
7.30719e-07
0.00029371
9.80081e-07
0.000293463
1.2287e-06
0.000293167
1.47651e-06
0.000292821
1.72347e-06
0.000292426
1.96951e-06
0.000291982
2.21458e-06
0.000291489
2.45862e-06
0.000290947
2.70158e-06
0.000290357
2.94341e-06
0.000289719
3.18405e-06
0.000289033
3.42346e-06
0.000288299
3.66159e-06
0.000287517
3.89838e-06
0.000286689
4.13378e-06
0.000285814
4.36776e-06
0.000284892
4.60026e-06
0.000283924
4.83123e-06
0.000282909
5.06063e-06
0.00028185
5.2884e-06
0.000280745
5.51452e-06
0.000279595
5.73892e-06
0.0002784
5.96157e-06
0.000277162
6.18242e-06
0.000275879
6.40142e-06
0.000274553
6.61854e-06
0.000273184
6.83372e-06
0.000271772
7.04693e-06
0.000270318
7.25812e-06
0.000268822
7.46726e-06
0.000267285
7.6743e-06
0.000265706
7.87919e-06
0.000264087
8.0819e-06
0.000262428
8.2824e-06
0.000260729
8.48063e-06
0.000258991
8.67656e-06
0.000257214
8.87016e-06
0.000255399
9.06139e-06
0.000253546
9.25021e-06
0.000251656
9.43659e-06
0.000249729
9.6205e-06
0.000247765
9.8019e-06
0.000245766
9.98076e-06
0.000243731
1.0157e-05
0.000241662
1.03307e-05
0.000239559
1.05018e-05
0.000237421
1.06702e-05
0.000235251
1.0836e-05
0.000233048