/*--------------------------------*- C++ -*----------------------------------*\
| =========                 |                                                 |
| \\      /  F ield         | OpenFOAM: The Open Source CFD Toolbox           |
|  \\    /   O peration     | Version:  v2012                                 |
|   \\  /    A nd           | Website:  www.openfoam.com                      |
|    \\/     M anipulation  |                                                 |
\*---------------------------------------------------------------------------*/
FoamFile
{
    version     2.0;
    format      ascii;
    class       volVectorField;
    location    "1.2";
    object      U;
}
// * * * * * * * * * * * * * * * * * * * * * * * * * * * * * * * * * * * * * //

dimensions      [0 1 -1 0 0 0 0];


internalField   nonuniform List<vector> 
65536
(
(0.000690766 -0.000690745 0)
(0.00207225 -0.000690697 0)
(0.0034536 -0.000690605 0)
(0.00483471 -0.000690467 0)
(0.00621551 -0.000690282 0)
(0.00759588 -0.000690051 0)
(0.00897575 -0.000689772 0)
(0.010355 -0.000689445 0)
(0.0117336 -0.00068907 0)
(0.0131113 -0.000688646 0)
(0.0144882 -0.000688172 0)
(0.0158641 -0.000687647 0)
(0.0172388 -0.00068707 0)
(0.0186124 -0.00068644 0)
(0.0199847 -0.000685756 0)
(0.0213555 -0.000685017 0)
(0.0227248 -0.000684222 0)
(0.0240924 -0.000683368 0)
(0.0254583 -0.000682456 0)
(0.0268223 -0.000681482 0)
(0.0281843 -0.000680446 0)
(0.0295441 -0.000679346 0)
(0.0309017 -0.000678181 0)
(0.0322569 -0.000676948 0)
(0.0336096 -0.000675646 0)
(0.0349596 -0.000674272 0)
(0.0363068 -0.000672826 0)
(0.037651 -0.000671304 0)
(0.038992 -0.000669706 0)
(0.0403299 -0.000668029 0)
(0.0416642 -0.00066627 0)
(0.042995 -0.000664428 0)
(0.044322 -0.000662501 0)
(0.0456451 -0.000660486 0)
(0.0469641 -0.000658382 0)
(0.0482787 -0.000656186 0)
(0.0495889 -0.000653896 0)
(0.0508944 -0.000651509 0)
(0.052195 -0.000649024 0)
(0.0534906 -0.000646439 0)
(0.0547809 -0.00064375 0)
(0.0560657 -0.000640957 0)
(0.0573448 -0.000638056 0)
(0.058618 -0.000635046 0)
(0.0598851 -0.000631925 0)
(0.0611458 -0.00062869 0)
(0.0624 -0.00062534 0)
(0.0636473 -0.000621873 0)
(0.0648876 -0.000618286 0)
(0.0661206 -0.000614579 0)
(0.067346 -0.000610748 0)
(0.0685637 -0.000606793 0)
(0.0697733 -0.000602712 0)
(0.0709747 -0.000598504 0)
(0.0721675 -0.000594166 0)
(0.0733515 -0.000589697 0)
(0.0745264 -0.000585097 0)
(0.075692 -0.000580364 0)
(0.076848 -0.000575497 0)
(0.0779941 -0.000570495 0)
(0.0791301 -0.000565357 0)
(0.0802557 -0.000560082 0)
(0.0813706 -0.000554671 0)
(0.0824745 -0.000549122 0)
(0.0835672 -0.000543435 0)
(0.0846484 -0.00053761 0)
(0.0857178 -0.000531647 0)
(0.0867751 -0.000525546 0)
(0.0878201 -0.000519307 0)
(0.0888525 -0.000512931 0)
(0.0898719 -0.000506418 0)
(0.0908783 -0.000499768 0)
(0.0918712 -0.000492982 0)
(0.0928503 -0.000486062 0)
(0.0938155 -0.000479009 0)
(0.0947665 -0.000471823 0)
(0.095703 -0.000464506 0)
(0.0966247 -0.000457059 0)
(0.0975313 -0.000449485 0)
(0.0984227 -0.000441784 0)
(0.0992986 -0.000433959 0)
(0.100159 -0.000426012 0)
(0.101003 -0.000417945 0)
(0.101831 -0.000409761 0)
(0.102642 -0.000401461 0)
(0.103437 -0.000393048 0)
(0.104214 -0.000384524 0)
(0.104975 -0.000375894 0)
(0.105718 -0.000367159 0)
(0.106443 -0.000358322 0)
(0.107151 -0.000349386 0)
(0.107841 -0.000340355 0)
(0.108513 -0.000331232 0)
(0.109166 -0.000322019 0)
(0.109801 -0.00031272 0)
(0.110417 -0.00030334 0)
(0.111014 -0.00029388 0)
(0.111593 -0.000284344 0)
(0.112152 -0.000274737 0)
(0.112692 -0.000265061 0)
(0.113212 -0.000255319 0)
(0.113713 -0.000245517 0)
(0.114194 -0.000235657 0)
(0.114656 -0.000225743 0)
(0.115097 -0.000215778 0)
(0.115519 -0.000205766 0)
(0.11592 -0.000195711 0)
(0.116302 -0.000185615 0)
(0.116663 -0.000175484 0)
(0.117004 -0.00016532 0)
(0.117324 -0.000155126 0)
(0.117624 -0.000144907 0)
(0.117904 -0.000134665 0)
(0.118163 -0.000124405 0)
(0.118402 -0.000114128 0)
(0.11862 -0.000103839 0)
(0.118817 -9.35411e-05 0)
(0.118994 -8.3237e-05 0)
(0.11915 -7.29299e-05 0)
(0.119285 -6.2623e-05 0)
(0.1194 -5.23192e-05 0)
(0.119495 -4.20215e-05 0)
(0.119568 -3.17329e-05 0)
(0.119622 -2.1456e-05 0)
(0.119654 -1.11938e-05 0)
(0.119666 -9.48878e-07 0)
(0.119658 9.27604e-06 0)
(0.119629 1.94784e-05 0)
(0.11958 2.96555e-05 0)
(0.119511 3.98051e-05 0)
(0.119421 4.99245e-05 0)
(0.119311 6.00114e-05 0)
(0.119181 7.00635e-05 0)
(0.119031 8.00784e-05 0)
(0.11886 9.00538e-05 0)
(0.11867 9.99877e-05 0)
(0.11846 0.000109878 0)
(0.118231 0.000119722 0)
(0.117982 0.000129518 0)
(0.117713 0.000139263 0)
(0.117424 0.000148957 0)
(0.117117 0.000158596 0)
(0.11679 0.000168179 0)
(0.116444 0.000177704 0)
(0.116079 0.000187168 0)
(0.115695 0.000196571 0)
(0.115293 0.000205909 0)
(0.114872 0.000215182 0)
(0.114432 0.000224387 0)
(0.113974 0.000233522 0)
(0.113498 0.000242586 0)
(0.113004 0.000251576 0)
(0.112491 0.000260492 0)
(0.111962 0.00026933 0)
(0.111414 0.00027809 0)
(0.110849 0.00028677 0)
(0.110267 0.000295367 0)
(0.109668 0.000303881 0)
(0.109051 0.000312309 0)
(0.108418 0.000320651 0)
(0.107769 0.000328903 0)
(0.107103 0.000337065 0)
(0.10642 0.000345135 0)
(0.105722 0.000353112 0)
(0.105008 0.000360994 0)
(0.104278 0.000368779 0)
(0.103532 0.000376466 0)
(0.102772 0.000384054 0)
(0.101996 0.000391541 0)
(0.101206 0.000398927 0)
(0.1004 0.000406209 0)
(0.0995807 0.000413387 0)
(0.0987467 0.000420459 0)
(0.0978987 0.000427425 0)
(0.0970369 0.000434282 0)
(0.0961615 0.000441032 0)
(0.0952727 0.000447671 0)
(0.0943707 0.000454201 0)
(0.0934558 0.000460619 0)
(0.0925281 0.000466925 0)
(0.091588 0.000473118 0)
(0.0906355 0.000479199 0)
(0.089671 0.000485166 0)
(0.0886947 0.000491019 0)
(0.0877069 0.000496758 0)
(0.0867076 0.000502382 0)
(0.0856972 0.000507891 0)
(0.0846759 0.000513286 0)
(0.083644 0.000518566 0)
(0.0826015 0.000523731 0)
(0.0815489 0.000528782 0)
(0.0804863 0.000533719 0)
(0.0794139 0.000538541 0)
(0.078332 0.00054325 0)
(0.0772408 0.000547845 0)
(0.0761405 0.000552328 0)
(0.0750314 0.000556699 0)
(0.0739136 0.000560959 0)
(0.0727874 0.000565109 0)
(0.0716531 0.000569148 0)
(0.0705107 0.000573079 0)
(0.0693607 0.000576902 0)
(0.068203 0.000580619 0)
(0.0670381 0.000584229 0)
(0.065866 0.000587736 0)
(0.064687 0.000591139 0)
(0.0635013 0.00059444 0)
(0.0623092 0.00059764 0)
(0.0611107 0.000600741 0)
(0.0599061 0.000603744 0)
(0.0586956 0.000606651 0)
(0.0574794 0.000609462 0)
(0.0562577 0.00061218 0)
(0.0550306 0.000614806 0)
(0.0537983 0.000617342 0)
(0.0525611 0.000619788 0)
(0.0513191 0.000622148 0)
(0.0500724 0.000624422 0)
(0.0488213 0.000626611 0)
(0.0475659 0.000628719 0)
(0.0463064 0.000630746 0)
(0.0450429 0.000632693 0)
(0.0437755 0.000634563 0)
(0.0425045 0.000636358 0)
(0.04123 0.000638078 0)
(0.0399521 0.000639725 0)
(0.038671 0.000641302 0)
(0.0373869 0.000642809 0)
(0.0360997 0.000644248 0)
(0.0348098 0.000645621 0)
(0.0335172 0.000646929 0)
(0.032222 0.000648174 0)
(0.0309244 0.000649356 0)
(0.0296245 0.000650479 0)
(0.0283224 0.000651541 0)
(0.0270183 0.000652546 0)
(0.0257122 0.000653495 0)
(0.0244043 0.000654388 0)
(0.0230946 0.000655227 0)
(0.0217833 0.000656012 0)
(0.0204705 0.000656746 0)
(0.0191563 0.000657429 0)
(0.0178407 0.000658061 0)
(0.016524 0.000658645 0)
(0.0152061 0.00065918 0)
(0.0138872 0.000659668 0)
(0.0125674 0.000660109 0)
(0.0112467 0.000660505 0)
(0.00992529 0.000660854 0)
(0.00860323 0.000661159 0)
(0.00728061 0.000661419 0)
(0.00595751 0.000661636 0)
(0.00463402 0.000661809 0)
(0.00331023 0.000661937 0)
(0.00198622 0.000662023 0)
(0.000662088 0.000662066 0)
(0.000690809 -0.00207227 0)
(0.00207238 -0.00207213 0)
(0.00345382 -0.00207186 0)
(0.00483503 -0.00207144 0)
(0.00621591 -0.00207089 0)
(0.00759638 -0.0020702 0)
(0.00897634 -0.00206936 0)
(0.0103557 -0.00206838 0)
(0.0117344 -0.00206726 0)
(0.0131122 -0.00206598 0)
(0.0144892 -0.00206456 0)
(0.0158652 -0.00206299 0)
(0.01724 -0.00206126 0)
(0.0186137 -0.00205937 0)
(0.019986 -0.00205732 0)
(0.021357 -0.0020551 0)
(0.0227264 -0.00205272 0)
(0.0240941 -0.00205016 0)
(0.0254601 -0.00204742 0)
(0.0268243 -0.0020445 0)
(0.0281864 -0.0020414 0)
(0.0295464 -0.0020381 0)
(0.0309041 -0.00203461 0)
(0.0322594 -0.00203091 0)
(0.0336122 -0.002027 0)
(0.0349623 -0.00202289 0)
(0.0363097 -0.00201855 0)
(0.037654 -0.00201399 0)
(0.0389953 -0.00200919 0)
(0.0403332 -0.00200416 0)
(0.0416678 -0.00199889 0)
(0.0429987 -0.00199337 0)
(0.0443259 -0.00198759 0)
(0.0456492 -0.00198155 0)
(0.0469683 -0.00197524 0)
(0.0482831 -0.00196865 0)
(0.0495935 -0.00196178 0)
(0.0508992 -0.00195462 0)
(0.0522 -0.00194717 0)
(0.0534958 -0.00193942 0)
(0.0547863 -0.00193135 0)
(0.0560713 -0.00192297 0)
(0.0573507 -0.00191427 0)
(0.0586241 -0.00190525 0)
(0.0598914 -0.00189589 0)
(0.0611523 -0.00188618 0)
(0.0624067 -0.00187614 0)
(0.0636543 -0.00186574 0)
(0.0648948 -0.00185498 0)
(0.066128 -0.00184386 0)
(0.0673537 -0.00183237 0)
(0.0685717 -0.00182051 0)
(0.0697815 -0.00180826 0)
(0.0709831 -0.00179564 0)
(0.0721762 -0.00178263 0)
(0.0733604 -0.00176922 0)
(0.0745356 -0.00175542 0)
(0.0757015 -0.00174122 0)
(0.0768578 -0.00172662 0)
(0.0780042 -0.00171162 0)
(0.0791404 -0.00169621 0)
(0.0802663 -0.00168038 0)
(0.0813814 -0.00166415 0)
(0.0824856 -0.0016475 0)
(0.0835786 -0.00163044 0)
(0.0846601 -0.00161297 0)
(0.0857297 -0.00159508 0)
(0.0867874 -0.00157678 0)
(0.0878326 -0.00155806 0)
(0.0888653 -0.00153893 0)
(0.089885 -0.00151939 0)
(0.0908916 -0.00149944 0)
(0.0918848 -0.00147908 0)
(0.0928642 -0.00145832 0)
(0.0938297 -0.00143716 0)
(0.0947809 -0.0014156 0)
(0.0957176 -0.00139365 0)
(0.0966396 -0.00137131 0)
(0.0975465 -0.00134858 0)
(0.0984382 -0.00132548 0)
(0.0993143 -0.001302 0)
(0.100175 -0.00127816 0)
(0.101019 -0.00125396 0)
(0.101847 -0.0012294 0)
(0.102659 -0.0012045 0)
(0.103453 -0.00117926 0)
(0.104231 -0.00115368 0)
(0.104992 -0.00112779 0)
(0.105735 -0.00110158 0)
(0.106461 -0.00107507 0)
(0.107169 -0.00104826 0)
(0.107859 -0.00102116 0)
(0.108531 -0.000993787 0)
(0.109185 -0.000966145 0)
(0.10982 -0.000938247 0)
(0.110436 -0.000910101 0)
(0.111033 -0.000881717 0)
(0.111612 -0.000853108 0)
(0.112171 -0.000824281 0)
(0.112711 -0.00079525 0)
(0.113232 -0.000766023 0)
(0.113733 -0.000736612 0)
(0.114214 -0.000707028 0)
(0.114676 -0.000677282 0)
(0.115117 -0.000647384 0)
(0.115539 -0.000617344 0)
(0.115941 -0.000587175 0)
(0.116322 -0.000556886 0)
(0.116683 -0.000526489 0)
(0.117024 -0.000495993 0)
(0.117345 -0.000465409 0)
(0.117645 -0.000434747 0)
(0.117924 -0.000404019 0)
(0.118184 -0.000373234 0)
(0.118422 -0.000342401 0)
(0.11864 -0.000311531 0)
(0.118837 -0.000280633 0)
(0.119014 -0.000249718 0)
(0.11917 -0.000218794 0)
(0.119306 -0.00018787 0)
(0.119421 -0.000156956 0)
(0.119515 -0.00012606 0)
(0.119589 -9.51909e-05 0)
(0.119642 -6.43576e-05 0)
(0.119675 -3.35682e-05 0)
(0.119687 -2.83082e-06 0)
(0.119678 2.78465e-05 0)
(0.11965 5.84561e-05 0)
(0.1196 8.89901e-05 0)
(0.119531 0.000119441 0)
(0.119441 0.000149802 0)
(0.119331 0.000180065 0)
(0.119201 0.000210223 0)
(0.119051 0.00024027 0)
(0.11888 0.000270199 0)
(0.11869 0.000300003 0)
(0.11848 0.000329675 0)
(0.11825 0.000359209 0)
(0.118001 0.000388599 0)
(0.117732 0.000417838 0)
(0.117444 0.000446921 0)
(0.117136 0.00047584 0)
(0.116809 0.000504591 0)
(0.116463 0.000533168 0)
(0.116098 0.000561563 0)
(0.115714 0.000589773 0)
(0.115311 0.00061779 0)
(0.11489 0.00064561 0)
(0.11445 0.000673226 0)
(0.113992 0.000700634 0)
(0.113516 0.000727827 0)
(0.113022 0.0007548 0)
(0.112509 0.000781548 0)
(0.111979 0.000808066 0)
(0.111432 0.000834347 0)
(0.110866 0.000860388 0)
(0.110284 0.000886183 0)
(0.109685 0.000911726 0)
(0.109068 0.000937012 0)
(0.108435 0.000962037 0)
(0.107785 0.000986796 0)
(0.107119 0.00101128 0)
(0.106436 0.0010355 0)
(0.105738 0.00105943 0)
(0.105023 0.00108307 0)
(0.104293 0.00110643 0)
(0.103548 0.0011295 0)
(0.102787 0.00115226 0)
(0.102011 0.00117472 0)
(0.10122 0.00119688 0)
(0.100415 0.00121873 0)
(0.099595 0.00124026 0)
(0.0987608 0.00126148 0)
(0.0979126 0.00128238 0)
(0.0970506 0.00130295 0)
(0.0961749 0.0013232 0)
(0.0952859 0.00134312 0)
(0.0943837 0.00136271 0)
(0.0934686 0.00138197 0)
(0.0925407 0.00140089 0)
(0.0916003 0.00141947 0)
(0.0906476 0.00143771 0)
(0.0896829 0.00145561 0)
(0.0887064 0.00147317 0)
(0.0877183 0.00149039 0)
(0.0867188 0.00150726 0)
(0.0857082 0.00152379 0)
(0.0846867 0.00153997 0)
(0.0836545 0.00155581 0)
(0.0826118 0.00157131 0)
(0.081559 0.00158646 0)
(0.0804961 0.00160127 0)
(0.0794235 0.00161574 0)
(0.0783414 0.00162986 0)
(0.07725 0.00164365 0)
(0.0761495 0.0016571 0)
(0.0750401 0.00167021 0)
(0.0739221 0.00168299 0)
(0.0727957 0.00169544 0)
(0.0716611 0.00170755 0)
(0.0705186 0.00171935 0)
(0.0693683 0.00173081 0)
(0.0682104 0.00174196 0)
(0.0670452 0.00175279 0)
(0.065873 0.00176331 0)
(0.0646938 0.00177352 0)
(0.0635079 0.00178342 0)
(0.0623155 0.00179302 0)
(0.0611168 0.00180232 0)
(0.0599121 0.00181133 0)
(0.0587014 0.00182005 0)
(0.057485 0.00182848 0)
(0.0562631 0.00183663 0)
(0.0550358 0.00184451 0)
(0.0538034 0.00185212 0)
(0.052566 0.00185945 0)
(0.0513238 0.00186653 0)
(0.050077 0.00187335 0)
(0.0488257 0.00187992 0)
(0.0475701 0.00188624 0)
(0.0463104 0.00189232 0)
(0.0450467 0.00189816 0)
(0.0437792 0.00190377 0)
(0.0425081 0.00190915 0)
(0.0412334 0.00191431 0)
(0.0399554 0.00191925 0)
(0.0386742 0.00192398 0)
(0.0373898 0.0019285 0)
(0.0361026 0.00193281 0)
(0.0348125 0.00193693 0)
(0.0335198 0.00194085 0)
(0.0322245 0.00194459 0)
(0.0309268 0.00194813 0)
(0.0296267 0.0019515 0)
(0.0283245 0.00195469 0)
(0.0270203 0.0019577 0)
(0.0257141 0.00196054 0)
(0.024406 0.00196322 0)
(0.0230962 0.00196574 0)
(0.0217848 0.00196809 0)
(0.0204719 0.00197029 0)
(0.0191576 0.00197234 0)
(0.0178419 0.00197424 0)
(0.0165251 0.00197599 0)
(0.0152071 0.00197759 0)
(0.0138881 0.00197906 0)
(0.0125682 0.00198038 0)
(0.0112475 0.00198156 0)
(0.00992595 0.00198261 0)
(0.0086038 0.00198352 0)
(0.00728109 0.00198431 0)
(0.0059579 0.00198495 0)
(0.00463432 0.00198547 0)
(0.00331044 0.00198586 0)
(0.00198635 0.00198611 0)
(0.000662131 0.00198624 0)
(0.000690902 -0.00345394 0)
(0.00207266 -0.00345371 0)
(0.00345428 -0.00345325 0)
(0.00483567 -0.00345256 0)
(0.00621675 -0.00345164 0)
(0.0075974 -0.00345048 0)
(0.00897756 -0.00344909 0)
(0.0103571 -0.00344746 0)
(0.011736 -0.00344559 0)
(0.013114 -0.00344347 0)
(0.0144912 -0.00344111 0)
(0.0158674 -0.00343849 0)
(0.0172424 -0.00343561 0)
(0.0186163 -0.00343246 0)
(0.0199889 -0.00342905 0)
(0.0213601 -0.00342536 0)
(0.0227297 -0.00342139 0)
(0.0240977 -0.00341713 0)
(0.0254639 -0.00341257 0)
(0.0268283 -0.00340771 0)
(0.0281907 -0.00340254 0)
(0.0295509 -0.00339705 0)
(0.0309089 -0.00339123 0)
(0.0322645 -0.00338508 0)
(0.0336176 -0.00337858 0)
(0.034968 -0.00337172 0)
(0.0363156 -0.0033645 0)
(0.0376603 -0.0033569 0)
(0.0390018 -0.00334892 0)
(0.0403401 -0.00334054 0)
(0.041675 -0.00333176 0)
(0.0430063 -0.00332256 0)
(0.0443338 -0.00331294 0)
(0.0456574 -0.00330288 0)
(0.0469769 -0.00329236 0)
(0.0482921 -0.00328139 0)
(0.0496029 -0.00326995 0)
(0.050909 -0.00325803 0)
(0.0522102 -0.00324562 0)
(0.0535064 -0.0032327 0)
(0.0547973 -0.00321927 0)
(0.0560827 -0.00320531 0)
(0.0573625 -0.00319082 0)
(0.0586364 -0.00317578 0)
(0.0599041 -0.00316019 0)
(0.0611655 -0.00314402 0)
(0.0624204 -0.00312728 0)
(0.0636684 -0.00310996 0)
(0.0649094 -0.00309203 0)
(0.0661431 -0.00307351 0)
(0.0673693 -0.00305436 0)
(0.0685878 -0.0030346 0)
(0.0697981 -0.0030142 0)
(0.0710003 -0.00299316 0)
(0.0721938 -0.00297148 0)
(0.0733786 -0.00294914 0)
(0.0745543 -0.00292615 0)
(0.0757207 -0.00290249 0)
(0.0768775 -0.00287816 0)
(0.0780245 -0.00285315 0)
(0.0791613 -0.00282747 0)
(0.0802877 -0.0028011 0)
(0.0814034 -0.00277404 0)
(0.0825082 -0.0027463 0)
(0.0836017 -0.00271787 0)
(0.0846837 -0.00268874 0)
(0.0857539 -0.00265893 0)
(0.0868121 -0.00262842 0)
(0.0878579 -0.00259723 0)
(0.0888911 -0.00256534 0)
(0.0899114 -0.00253277 0)
(0.0909185 -0.00249952 0)
(0.0919122 -0.00246559 0)
(0.0928922 -0.00243098 0)
(0.0938582 -0.00239571 0)
(0.09481 -0.00235977 0)
(0.0957472 -0.00232318 0)
(0.0966697 -0.00228594 0)
(0.0975771 -0.00224806 0)
(0.0984693 -0.00220955 0)
(0.0993459 -0.00217041 0)
(0.100207 -0.00213067 0)
(0.101051 -0.00209032 0)
(0.10188 -0.00204938 0)
(0.102692 -0.00200787 0)
(0.103487 -0.00196579 0)
(0.104266 -0.00192316 0)
(0.105027 -0.00188 0)
(0.105771 -0.00183631 0)
(0.106497 -0.00179211 0)
(0.107205 -0.00174741 0)
(0.107896 -0.00170224 0)
(0.108568 -0.00165661 0)
(0.109222 -0.00161053 0)
(0.109857 -0.00156402 0)
(0.110474 -0.0015171 0)
(0.111071 -0.00146978 0)
(0.11165 -0.00142209 0)
(0.11221 -0.00137403 0)
(0.11275 -0.00132563 0)
(0.113271 -0.00127691 0)
(0.113772 -0.00122788 0)
(0.114254 -0.00117856 0)
(0.114715 -0.00112897 0)
(0.115157 -0.00107913 0)
(0.115579 -0.00102905 0)
(0.115981 -0.000978759 0)
(0.116362 -0.000928265 0)
(0.116724 -0.000877591 0)
(0.117065 -0.000826753 0)
(0.117385 -0.000775768 0)
(0.117686 -0.000724655 0)
(0.117965 -0.000673429 0)
(0.118225 -0.000622109 0)
(0.118463 -0.00057071 0)
(0.118681 -0.00051925 0)
(0.118879 -0.000467743 0)
(0.119056 -0.000416207 0)
(0.119212 -0.000364656 0)
(0.119347 -0.000313107 0)
(0.119462 -0.000261573 0)
(0.119556 -0.00021007 0)
(0.11963 -0.000158613 0)
(0.119683 -0.000107215 0)
(0.119716 -5.58901e-05 0)
(0.119728 -4.65227e-06 0)
(0.119719 4.64853e-05 0)
(0.11969 9.75097e-05 0)
(0.119641 0.000148408 0)
(0.119571 0.000199168 0)
(0.119481 0.000249777 0)
(0.119371 0.000300223 0)
(0.119241 0.000350495 0)
(0.119091 0.000400581 0)
(0.11892 0.00045047 0)
(0.11873 0.00050015 0)
(0.11852 0.000549611 0)
(0.11829 0.000598841 0)
(0.11804 0.000647831 0)
(0.117771 0.00069657 0)
(0.117482 0.000745048 0)
(0.117175 0.000793254 0)
(0.116847 0.000841179 0)
(0.116501 0.000888813 0)
(0.116136 0.000936145 0)
(0.115752 0.000983167 0)
(0.115349 0.00102987 0)
(0.114927 0.00107624 0)
(0.114487 0.00112227 0)
(0.114029 0.00116796 0)
(0.113552 0.00121329 0)
(0.113057 0.00125825 0)
(0.112545 0.00130284 0)
(0.112014 0.00134704 0)
(0.111466 0.00139085 0)
(0.110901 0.00143425 0)
(0.110318 0.00147725 0)
(0.109718 0.00151983 0)
(0.109102 0.00156198 0)
(0.108468 0.00160369 0)
(0.107818 0.00164496 0)
(0.107151 0.00168578 0)
(0.106468 0.00172614 0)
(0.10577 0.00176603 0)
(0.105055 0.00180545 0)
(0.104324 0.00184438 0)
(0.103578 0.00188282 0)
(0.102817 0.00192077 0)
(0.102041 0.00195821 0)
(0.10125 0.00199515 0)
(0.100444 0.00203156 0)
(0.0996235 0.00206746 0)
(0.0987889 0.00210283 0)
(0.0979402 0.00213766 0)
(0.0970778 0.00217195 0)
(0.0962017 0.0022057 0)
(0.0953122 0.00223891 0)
(0.0944096 0.00227156 0)
(0.093494 0.00230365 0)
(0.0925657 0.00233518 0)
(0.0916248 0.00236616 0)
(0.0906717 0.00239656 0)
(0.0897065 0.0024264 0)
(0.0887296 0.00245566 0)
(0.087741 0.00248436 0)
(0.086741 0.00251248 0)
(0.08573 0.00254003 0)
(0.084708 0.002567 0)
(0.0836753 0.0025934 0)
(0.0826322 0.00261923 0)
(0.0815789 0.00264448 0)
(0.0805156 0.00266916 0)
(0.0794426 0.00269327 0)
(0.07836 0.00271681 0)
(0.0772681 0.00273979 0)
(0.0761671 0.0027622 0)
(0.0750573 0.00278405 0)
(0.0739389 0.00280535 0)
(0.072812 0.00282609 0)
(0.071677 0.00284629 0)
(0.070534 0.00286594 0)
(0.0693833 0.00288505 0)
(0.068225 0.00290362 0)
(0.0670595 0.00292167 0)
(0.0658868 0.0029392 0)
(0.0647072 0.00295621 0)
(0.0635209 0.00297271 0)
(0.0623281 0.0029887 0)
(0.061129 0.0030042 0)
(0.0599239 0.00301921 0)
(0.0587128 0.00303373 0)
(0.057496 0.00304778 0)
(0.0562737 0.00306136 0)
(0.0550461 0.00307449 0)
(0.0538133 0.00308716 0)
(0.0525756 0.00309938 0)
(0.051333 0.00311117 0)
(0.0500859 0.00312253 0)
(0.0488342 0.00313347 0)
(0.0475783 0.003144 0)
(0.0463183 0.00315413 0)
(0.0450543 0.00316386 0)
(0.0437865 0.0031732 0)
(0.0425151 0.00318216 0)
(0.0412401 0.00319076 0)
(0.0399618 0.00319899 0)
(0.0386803 0.00320686 0)
(0.0373957 0.00321439 0)
(0.0361082 0.00322158 0)
(0.0348178 0.00322844 0)
(0.0335248 0.00323497 0)
(0.0322293 0.00324118 0)
(0.0309313 0.00324709 0)
(0.0296311 0.00325269 0)
(0.0283287 0.003258 0)
(0.0270242 0.00326302 0)
(0.0257177 0.00326776 0)
(0.0244095 0.00327222 0)
(0.0230995 0.0032764 0)
(0.0217879 0.00328033 0)
(0.0204747 0.00328399 0)
(0.0191602 0.0032874 0)
(0.0178444 0.00329056 0)
(0.0165273 0.00329347 0)
(0.0152092 0.00329615 0)
(0.01389 0.00329858 0)
(0.0125699 0.00330078 0)
(0.0112489 0.00330276 0)
(0.00992726 0.0033045 0)
(0.00860493 0.00330602 0)
(0.00728204 0.00330732 0)
(0.00595867 0.0033084 0)
(0.00463492 0.00330927 0)
(0.00331087 0.00330991 0)
(0.00198661 0.00331033 0)
(0.000662217 0.00331055 0)
(0.00069104 -0.00483583 0)
(0.00207308 -0.00483551 0)
(0.00345497 -0.00483487 0)
(0.00483664 -0.00483391 0)
(0.006218 -0.00483262 0)
(0.00759894 -0.00483101 0)
(0.00897938 -0.00482906 0)
(0.0103592 -0.00482679 0)
(0.0117384 -0.00482417 0)
(0.0131167 -0.00482121 0)
(0.0144942 -0.0048179 0)
(0.0158707 -0.00481424 0)
(0.0172461 -0.00481022 0)
(0.0186203 -0.00480583 0)
(0.0199932 -0.00480106 0)
(0.0213647 -0.0047959 0)
(0.0227347 -0.00479035 0)
(0.024103 -0.0047844 0)
(0.0254696 -0.00477803 0)
(0.0268343 -0.00477124 0)
(0.0281971 -0.00476401 0)
(0.0295577 -0.00475633 0)
(0.0309161 -0.0047482 0)
(0.0322721 -0.00473959 0)
(0.0336256 -0.0047305 0)
(0.0349765 -0.00472092 0)
(0.0363245 -0.00471082 0)
(0.0376697 -0.0047002 0)
(0.0390117 -0.00468904 0)
(0.0403504 -0.00467733 0)
(0.0416858 -0.00466505 0)
(0.0430176 -0.00465218 0)
(0.0443457 -0.00463873 0)
(0.0456698 -0.00462465 0)
(0.0469898 -0.00460995 0)
(0.0483056 -0.00459461 0)
(0.0496169 -0.00457861 0)
(0.0509236 -0.00456194 0)
(0.0522254 -0.00454457 0)
(0.0535222 -0.0045265 0)
(0.0548138 -0.00450771 0)
(0.0560998 -0.00448819 0)
(0.0573803 -0.00446792 0)
(0.0586548 -0.00444688 0)
(0.0599232 -0.00442506 0)
(0.0611853 -0.00440244 0)
(0.0624409 -0.00437902 0)
(0.0636896 -0.00435478 0)
(0.0649313 -0.0043297 0)
(0.0661658 -0.00430377 0)
(0.0673927 -0.00427698 0)
(0.0686119 -0.00424932 0)
(0.0698231 -0.00422077 0)
(0.0710259 -0.00419133 0)
(0.0722203 -0.00416098 0)
(0.0734059 -0.00412972 0)
(0.0745824 -0.00409754 0)
(0.0757496 -0.00406442 0)
(0.0769072 -0.00403037 0)
(0.0780549 -0.00399536 0)
(0.0791926 -0.00395941 0)
(0.0803198 -0.0039225 0)
(0.0814363 -0.00388462 0)
(0.0825419 -0.00384579 0)
(0.0836363 -0.00380598 0)
(0.0847191 -0.00376521 0)
(0.0857902 -0.00372347 0)
(0.0868492 -0.00368076 0)
(0.0878958 -0.00363708 0)
(0.0889298 -0.00359244 0)
(0.089951 -0.00354684 0)
(0.0909589 -0.00350028 0)
(0.0919534 -0.00345277 0)
(0.0929342 -0.00340431 0)
(0.093901 -0.00335492 0)
(0.0948536 -0.0033046 0)
(0.0957916 -0.00325336 0)
(0.0967148 -0.00320121 0)
(0.097623 -0.00314816 0)
(0.0985159 -0.00309423 0)
(0.0993933 -0.00303943 0)
(0.100255 -0.00298377 0)
(0.1011 -0.00292727 0)
(0.10193 -0.00286995 0)
(0.102742 -0.00281181 0)
(0.103538 -0.00275288 0)
(0.104317 -0.00269318 0)
(0.105079 -0.00263273 0)
(0.105823 -0.00257154 0)
(0.10655 -0.00250964 0)
(0.107259 -0.00244705 0)
(0.10795 -0.00238379 0)
(0.108623 -0.00231988 0)
(0.109277 -0.00225534 0)
(0.109913 -0.00219021 0)
(0.11053 -0.00212449 0)
(0.111128 -0.00205822 0)
(0.111708 -0.00199143 0)
(0.112268 -0.00192412 0)
(0.112808 -0.00185634 0)
(0.11333 -0.0017881 0)
(0.113831 -0.00171944 0)
(0.114313 -0.00165037 0)
(0.114775 -0.00158092 0)
(0.115217 -0.00151111 0)
(0.115639 -0.00144098 0)
(0.116041 -0.00137054 0)
(0.116423 -0.00129982 0)
(0.116785 -0.00122886 0)
(0.117126 -0.00115766 0)
(0.117447 -0.00108626 0)
(0.117747 -0.00101467 0)
(0.118027 -0.000942934 0)
(0.118286 -0.000871062 0)
(0.118525 -0.000799081 0)
(0.118743 -0.000727013 0)
(0.118941 -0.000654882 0)
(0.119117 -0.000582709 0)
(0.119274 -0.000510517 0)
(0.119409 -0.000438326 0)
(0.119524 -0.000366159 0)
(0.119618 -0.000294035 0)
(0.119692 -0.000221974 0)
(0.119745 -0.000149998 0)
(0.119777 -7.81239e-05 0)
(0.119789 -6.3723e-06 0)
(0.119781 6.52386e-05 0)
(0.119752 0.000136691 0)
(0.119702 0.000207966 0)
(0.119632 0.000279047 0)
(0.119542 0.000349916 0)
(0.119432 0.000420558 0)
(0.119301 0.000490955 0)
(0.119151 0.000561091 0)
(0.11898 0.00063095 0)
(0.118789 0.000700518 0)
(0.118579 0.000769778 0)
(0.118349 0.000838715 0)
(0.118099 0.000907316 0)
(0.117829 0.000975565 0)
(0.11754 0.00104345 0)
(0.117232 0.00111095 0)
(0.116905 0.00117806 0)
(0.116558 0.00124476 0)
(0.116192 0.00131104 0)
(0.115808 0.00137688 0)
(0.115404 0.00144228 0)
(0.114983 0.00150721 0)
(0.114542 0.00157167 0)
(0.114083 0.00163565 0)
(0.113606 0.00169912 0)
(0.113111 0.00176208 0)
(0.112598 0.00182451 0)
(0.112067 0.0018864 0)
(0.111519 0.00194775 0)
(0.110953 0.00200853 0)
(0.11037 0.00206874 0)
(0.109769 0.00212836 0)
(0.109152 0.00218738 0)
(0.108518 0.00224579 0)
(0.107867 0.00230358 0)
(0.1072 0.00236074 0)
(0.106517 0.00241725 0)
(0.105817 0.00247311 0)
(0.105102 0.0025283 0)
(0.104371 0.00258282 0)
(0.103624 0.00263665 0)
(0.102862 0.00268978 0)
(0.102085 0.00274221 0)
(0.101294 0.00279393 0)
(0.100487 0.00284492 0)
(0.0996662 0.00289518 0)
(0.098831 0.0029447 0)
(0.0979817 0.00299348 0)
(0.0971186 0.0030415 0)
(0.0962418 0.00308875 0)
(0.0953517 0.00313524 0)
(0.0944484 0.00318096 0)
(0.0935321 0.00322589 0)
(0.0926031 0.00327005 0)
(0.0916616 0.00331341 0)
(0.0907078 0.00335598 0)
(0.089742 0.00339776 0)
(0.0887643 0.00343873 0)
(0.087775 0.00347891 0)
(0.0867744 0.00351828 0)
(0.0857626 0.00355685 0)
(0.08474 0.00359461 0)
(0.0837066 0.00363157 0)
(0.0826628 0.00366772 0)
(0.0816088 0.00370308 0)
(0.0805449 0.00373763 0)
(0.0794711 0.00377138 0)
(0.0783878 0.00380433 0)
(0.0772953 0.00383649 0)
(0.0761936 0.00386787 0)
(0.0750832 0.00389846 0)
(0.0739641 0.00392826 0)
(0.0728366 0.0039573 0)
(0.0717009 0.00398556 0)
(0.0705573 0.00401307 0)
(0.0694059 0.00403981 0)
(0.068247 0.00406581 0)
(0.0670808 0.00409107 0)
(0.0659074 0.0041156 0)
(0.0647272 0.0041394 0)
(0.0635403 0.00416249 0)
(0.0623469 0.00418488 0)
(0.0611473 0.00420656 0)
(0.0599415 0.00422756 0)
(0.0587299 0.00424789 0)
(0.0575126 0.00426755 0)
(0.0562897 0.00428655 0)
(0.0550615 0.00430491 0)
(0.0538282 0.00432264 0)
(0.0525899 0.00433975 0)
(0.0513469 0.00435624 0)
(0.0500992 0.00437213 0)
(0.0488471 0.00438744 0)
(0.0475907 0.00440217 0)
(0.0463302 0.00441633 0)
(0.0450657 0.00442994 0)
(0.0437975 0.00444301 0)
(0.0425256 0.00445555 0)
(0.0412502 0.00446757 0)
(0.0399715 0.00447908 0)
(0.0386895 0.00449009 0)
(0.0374045 0.00450062 0)
(0.0361166 0.00451067 0)
(0.0348259 0.00452026 0)
(0.0335325 0.0045294 0)
(0.0322365 0.00453809 0)
(0.0309382 0.00454635 0)
(0.0296376 0.00455419 0)
(0.0283348 0.00456161 0)
(0.02703 0.00456863 0)
(0.0257232 0.00457525 0)
(0.0244146 0.00458148 0)
(0.0231043 0.00458734 0)
(0.0217924 0.00459282 0)
(0.020479 0.00459794 0)
(0.0191641 0.00460271 0)
(0.017848 0.00460713 0)
(0.0165307 0.0046112 0)
(0.0152122 0.00461494 0)
(0.0138927 0.00461834 0)
(0.0125724 0.00462142 0)
(0.0112512 0.00462418 0)
(0.00992921 0.00462662 0)
(0.00860661 0.00462874 0)
(0.00728346 0.00463056 0)
(0.00595983 0.00463207 0)
(0.00463582 0.00463327 0)
(0.00331151 0.00463417 0)
(0.00198699 0.00463477 0)
(0.000662345 0.00463507 0)
(0.000691224 -0.00621805 0)
(0.00207363 -0.00621764 0)
(0.00345589 -0.00621682 0)
(0.00483793 -0.00621558 0)
(0.00621966 -0.00621393 0)
(0.00760098 -0.00621186 0)
(0.0089818 -0.00620937 0)
(0.010362 -0.00620645 0)
(0.0117416 -0.0062031 0)
(0.0131203 -0.0061993 0)
(0.0144982 -0.00619506 0)
(0.0158751 -0.00619036 0)
(0.0172509 -0.0061852 0)
(0.0186255 -0.00617957 0)
(0.0199989 -0.00617345 0)
(0.0213708 -0.00616684 0)
(0.0227412 -0.00615972 0)
(0.0241101 -0.00615208 0)
(0.0254771 -0.00614391 0)
(0.0268424 -0.0061352 0)
(0.0282056 -0.00612592 0)
(0.0295668 -0.00611608 0)
(0.0309257 -0.00610564 0)
(0.0322823 -0.0060946 0)
(0.0336363 -0.00608293 0)
(0.0349877 -0.00607063 0)
(0.0363364 -0.00605767 0)
(0.0376821 -0.00604404 0)
(0.0390248 -0.00602971 0)
(0.0403642 -0.00601468 0)
(0.0417002 -0.00599892 0)
(0.0430327 -0.00598241 0)
(0.0443614 -0.00596513 0)
(0.0456863 -0.00594706 0)
(0.047007 -0.00592819 0)
(0.0483236 -0.00590849 0)
(0.0496356 -0.00588794 0)
(0.0509431 -0.00586653 0)
(0.0522457 -0.00584423 0)
(0.0535433 -0.00582103 0)
(0.0548357 -0.00579689 0)
(0.0561226 -0.00577182 0)
(0.0574039 -0.00574578 0)
(0.0586793 -0.00571875 0)
(0.0599487 -0.00569072 0)
(0.0612117 -0.00566167 0)
(0.0624681 -0.00563158 0)
(0.0637178 -0.00560043 0)
(0.0649605 -0.00556821 0)
(0.066196 -0.00553489 0)
(0.0674239 -0.00550047 0)
(0.0686441 -0.00546492 0)
(0.0698562 -0.00542824 0)
(0.0710602 -0.00539041 0)
(0.0722556 -0.00535141 0)
(0.0734422 -0.00531123 0)
(0.0746198 -0.00526986 0)
(0.075788 -0.0052273 0)
(0.0769467 -0.00518352 0)
(0.0780955 -0.00513853 0)
(0.0792343 -0.00509231 0)
(0.0803626 -0.00504486 0)
(0.0814802 -0.00499617 0)
(0.0825869 -0.00494624 0)
(0.0836824 -0.00489506 0)
(0.0847663 -0.00484264 0)
(0.0858385 -0.00478897 0)
(0.0868986 -0.00473406 0)
(0.0879463 -0.0046779 0)
(0.0889815 -0.00462049 0)
(0.0900037 -0.00456186 0)
(0.0910127 -0.00450198 0)
(0.0920083 -0.00444089 0)
(0.0929902 -0.00437858 0)
(0.0939581 -0.00431506 0)
(0.0949117 -0.00425034 0)
(0.0958507 -0.00418445 0)
(0.096775 -0.00411738 0)
(0.0976842 -0.00404916 0)
(0.0985781 -0.00397979 0)
(0.0994565 -0.00390931 0)
(0.100319 -0.00383772 0)
(0.101165 -0.00376505 0)
(0.101996 -0.00369132 0)
(0.102809 -0.00361654 0)
(0.103606 -0.00354074 0)
(0.104386 -0.00346395 0)
(0.105149 -0.00338619 0)
(0.105894 -0.00330749 0)
(0.106621 -0.00322787 0)
(0.107331 -0.00314735 0)
(0.108023 -0.00306598 0)
(0.108696 -0.00298377 0)
(0.109351 -0.00290075 0)
(0.109988 -0.00281697 0)
(0.110606 -0.00273244 0)
(0.111205 -0.00264719 0)
(0.111784 -0.00256127 0)
(0.112345 -0.00247469 0)
(0.112886 -0.0023875 0)
(0.113408 -0.00229973 0)
(0.11391 -0.0022114 0)
(0.114392 -0.00212255 0)
(0.114855 -0.00203321 0)
(0.115297 -0.00194342 0)
(0.11572 -0.0018532 0)
(0.116122 -0.0017626 0)
(0.116504 -0.00167164 0)
(0.116866 -0.00158035 0)
(0.117208 -0.00148877 0)
(0.117529 -0.00139692 0)
(0.117829 -0.00130485 0)
(0.118109 -0.00121257 0)
(0.118369 -0.00112012 0)
(0.118607 -0.00102754 0)
(0.118826 -0.000934839 0)
(0.119023 -0.000842061 0)
(0.1192 -0.00074923 0)
(0.119356 -0.000656375 0)
(0.119492 -0.000563522 0)
(0.119607 -0.0004707 0)
(0.119701 -0.000377934 0)
(0.119774 -0.000285251 0)
(0.119827 -0.000192676 0)