/*--------------------------------*- C++ -*----------------------------------*\
| =========                 |                                                 |
| \\      /  F ield         | OpenFOAM: The Open Source CFD Toolbox           |
|  \\    /   O peration     | Version:  v2012                                 |
|   \\  /    A nd           | Website:  www.openfoam.com                      |
|    \\/     M anipulation  |                                                 |
\*---------------------------------------------------------------------------*/
FoamFile
{
    version     2.0;
    format      ascii;
    class       volVectorField;
    location    "7.4";
    object      Psi;
}
// * * * * * * * * * * * * * * * * * * * * * * * * * * * * * * * * * * * * * //

dimensions      [0 2 -1 0 0 0 0];


internalField   nonuniform List<vector> 
65536
(
(0 0 9.25425e-06)
(0 0 2.77626e-05)
(0 0 4.62706e-05)
(0 0 6.47779e-05)
(0 0 8.32843e-05)
(0 0 0.00010179)
(0 0 0.000120293)
(0 0 0.000138795)
(0 0 0.000157295)
(0 0 0.000175792)
(0 0 0.000194287)
(0 0 0.000212778)
(0 0 0.000231265)
(0 0 0.000249748)
(0 0 0.000268225)
(0 0 0.000286698)
(0 0 0.000305164)
(0 0 0.000323623)
(0 0 0.000342074)
(0 0 0.000360516)
(0 0 0.000378949)
(0 0 0.000397371)
(0 0 0.000415782)
(0 0 0.00043418)
(0 0 0.000452564)
(0 0 0.000470932)
(0 0 0.000489283)
(0 0 0.000507616)
(0 0 0.000525929)
(0 0 0.00054422)
(0 0 0.000562488)
(0 0 0.000580731)
(0 0 0.000598946)
(0 0 0.000617131)
(0 0 0.000635285)
(0 0 0.000653404)
(0 0 0.000671487)
(0 0 0.000689531)
(0 0 0.000707533)
(0 0 0.00072549)
(0 0 0.0007434)
(0 0 0.000761258)
(0 0 0.000779063)
(0 0 0.000796811)
(0 0 0.000814498)
(0 0 0.000832121)
(0 0 0.000849676)
(0 0 0.000867159)
(0 0 0.000884567)
(0 0 0.000901895)
(0 0 0.000919139)
(0 0 0.000936295)
(0 0 0.000953359)
(0 0 0.000970325)
(0 0 0.00098719)
(0 0 0.00100395)
(0 0 0.0010206)
(0 0 0.00103713)
(0 0 0.00105354)
(0 0 0.00106982)
(0 0 0.00108597)
(0 0 0.00110198)
(0 0 0.00111786)
(0 0 0.00113358)
(0 0 0.00114915)
(0 0 0.00116456)
(0 0 0.00117981)
(0 0 0.00119488)
(0 0 0.00120978)
(0 0 0.0012245)
(0 0 0.00123903)
(0 0 0.00125337)
(0 0 0.0012675)
(0 0 0.00128144)
(0 0 0.00129515)
(0 0 0.00130866)
(0 0 0.00132194)
(0 0 0.00133499)
(0 0 0.0013478)
(0 0 0.00136038)
(0 0 0.00137271)
(0 0 0.00138478)
(0 0 0.0013966)
(0 0 0.00140816)
(0 0 0.00141945)
(0 0 0.00143047)
(0 0 0.00144121)
(0 0 0.00145166)
(0 0 0.00146183)
(0 0 0.0014717)
(0 0 0.00148128)
(0 0 0.00149056)
(0 0 0.00149953)
(0 0 0.00150818)
(0 0 0.00151653)
(0 0 0.00152456)
(0 0 0.00153226)
(0 0 0.00153964)
(0 0 0.0015467)
(0 0 0.00155342)
(0 0 0.00155981)
(0 0 0.00156587)
(0 0 0.00157158)
(0 0 0.00157696)
(0 0 0.00158199)
(0 0 0.00158669)
(0 0 0.00159103)
(0 0 0.00159503)
(0 0 0.00159869)
(0 0 0.001602)
(0 0 0.00160496)
(0 0 0.00160757)
(0 0 0.00160983)
(0 0 0.00161175)
(0 0 0.00161332)
(0 0 0.00161455)
(0 0 0.00161543)
(0 0 0.00161596)
(0 0 0.00161616)
(0 0 0.00161601)
(0 0 0.00161553)
(0 0 0.0016147)
(0 0 0.00161355)
(0 0 0.00161206)
(0 0 0.00161024)
(0 0 0.0016081)
(0 0 0.00160564)
(0 0 0.00160285)
(0 0 0.00159975)
(0 0 0.00159633)
(0 0 0.0015926)
(0 0 0.00158857)
(0 0 0.00158424)
(0 0 0.0015796)
(0 0 0.00157468)
(0 0 0.00156946)
(0 0 0.00156396)
(0 0 0.00155818)
(0 0 0.00155212)
(0 0 0.00154579)
(0 0 0.0015392)
(0 0 0.00153234)
(0 0 0.00152522)
(0 0 0.00151785)
(0 0 0.00151023)
(0 0 0.00150238)
(0 0 0.00149428)
(0 0 0.00148595)
(0 0 0.00147739)
(0 0 0.00146861)
(0 0 0.00145961)
(0 0 0.0014504)
(0 0 0.00144098)
(0 0 0.00143135)
(0 0 0.00142153)
(0 0 0.00141152)
(0 0 0.00140131)
(0 0 0.00139093)
(0 0 0.00138036)
(0 0 0.00136962)
(0 0 0.00135872)
(0 0 0.00134765)
(0 0 0.00133641)
(0 0 0.00132503)
(0 0 0.00131349)
(0 0 0.00130181)
(0 0 0.00128998)
(0 0 0.00127802)
(0 0 0.00126592)
(0 0 0.0012537)
(0 0 0.00124135)
(0 0 0.00122888)
(0 0 0.00121629)
(0 0 0.00120359)
(0 0 0.00119078)
(0 0 0.00117787)
(0 0 0.00116485)
(0 0 0.00115174)
(0 0 0.00113853)
(0 0 0.00112523)
(0 0 0.00111185)
(0 0 0.00109838)
(0 0 0.00108482)
(0 0 0.00107119)
(0 0 0.00105749)
(0 0 0.00104371)
(0 0 0.00102987)
(0 0 0.00101596)
(0 0 0.00100198)
(0 0 0.000987948)
(0 0 0.000973855)
(0 0 0.000959706)
(0 0 0.000945504)
(0 0 0.000931251)
(0 0 0.000916949)
(0 0 0.000902602)
(0 0 0.00088821)
(0 0 0.000873777)
(0 0 0.000859303)
(0 0 0.000844792)
(0 0 0.000830244)
(0 0 0.000815662)
(0 0 0.000801048)
(0 0 0.000786403)
(0 0 0.000771728)
(0 0 0.000757026)
(0 0 0.000742298)
(0 0 0.000727546)
(0 0 0.00071277)
(0 0 0.000697972)
(0 0 0.000683154)
(0 0 0.000668316)
(0 0 0.00065346)
(0 0 0.000638588)
(0 0 0.000623699)
(0 0 0.000608795)
(0 0 0.000593877)
(0 0 0.000578946)
(0 0 0.000564004)
(0 0 0.00054905)
(0 0 0.000534085)
(0 0 0.000519111)
(0 0 0.000504128)
(0 0 0.000489136)
(0 0 0.000474137)
(0 0 0.000459131)
(0 0 0.000444118)
(0 0 0.0004291)
(0 0 0.000414076)
(0 0 0.000399047)
(0 0 0.000384014)
(0 0 0.000368977)
(0 0 0.000353936)
(0 0 0.000338891)
(0 0 0.000323844)
(0 0 0.000308794)
(0 0 0.000293742)
(0 0 0.000278687)
(0 0 0.000263631)
(0 0 0.000248573)
(0 0 0.000233514)
(0 0 0.000218453)
(0 0 0.000203391)
(0 0 0.000188328)
(0 0 0.000173264)
(0 0 0.0001582)
(0 0 0.000143135)
(0 0 0.000128069)
(0 0 0.000113003)
(0 0 9.79368e-05)
(0 0 8.287e-05)
(0 0 6.78031e-05)
(0 0 5.27359e-05)
(0 0 3.76686e-05)
(0 0 2.26012e-05)
(0 0 7.53374e-06)
(0 0 2.77628e-05)
(0 0 8.32881e-05)
(0 0 0.000138812)
(0 0 0.000194334)
(0 0 0.000249854)
(0 0 0.00030537)
(0 0 0.000360881)
(0 0 0.000416388)
(0 0 0.000471887)
(0 0 0.00052738)
(0 0 0.000582863)
(0 0 0.000638337)
(0 0 0.000693798)
(0 0 0.000749247)
(0 0 0.000804681)
(0 0 0.000860099)
(0 0 0.000915497)
(0 0 0.000970875)
(0 0 0.00102623)
(0 0 0.00108156)
(0 0 0.00113686)
(0 0 0.00119213)
(0 0 0.00124736)
(0 0 0.00130255)
(0 0 0.0013577)
(0 0 0.00141281)
(0 0 0.00146787)
(0 0 0.00152287)
(0 0 0.00157781)
(0 0 0.00163268)
(0 0 0.00168749)
(0 0 0.00174222)
(0 0 0.00179687)
(0 0 0.00185142)
(0 0 0.00190589)
(0 0 0.00196025)
(0 0 0.0020145)
(0 0 0.00206863)
(0 0 0.00212264)
(0 0 0.00217652)
(0 0 0.00223025)
(0 0 0.00228383)
(0 0 0.00233724)
(0 0 0.00239049)
(0 0 0.00244356)
(0 0 0.00249643)
(0 0 0.0025491)
(0 0 0.00260155)
(0 0 0.00265378)
(0 0 0.00270577)
(0 0 0.0027575)
(0 0 0.00280898)
(0 0 0.00286017)
(0 0 0.00291107)
(0 0 0.00296167)
(0 0 0.00301195)
(0 0 0.0030619)
(0 0 0.0031115)
(0 0 0.00316073)
(0 0 0.00320958)
(0 0 0.00325804)
(0 0 0.00330609)
(0 0 0.00335371)
(0 0 0.00340089)
(0 0 0.00344761)
(0 0 0.00349385)
(0 0 0.00353959)
(0 0 0.00358483)
(0 0 0.00362953)
(0 0 0.00367369)
(0 0 0.00371729)
(0 0 0.0037603)
(0 0 0.00380272)
(0 0 0.00384451)
(0 0 0.00388568)
(0 0 0.00392619)
(0 0 0.00396603)
(0 0 0.00400519)
(0 0 0.00404364)
(0 0 0.00408137)
(0 0 0.00411837)
(0 0 0.0041546)
(0 0 0.00419007)
(0 0 0.00422475)
(0 0 0.00425862)
(0 0 0.00429168)
(0 0 0.0043239)
(0 0 0.00435527)
(0 0 0.00438578)
(0 0 0.0044154)
(0 0 0.00444414)
(0 0 0.00447197)
(0 0 0.00449888)
(0 0 0.00452486)
(0 0 0.0045499)
(0 0 0.00457399)
(0 0 0.00459711)
(0 0 0.00461926)
(0 0 0.00464042)
(0 0 0.00466059)
(0 0 0.00467977)
(0 0 0.00469793)
(0 0 0.00471508)
(0 0 0.00473122)
(0 0 0.00474632)
(0 0 0.0047604)
(0 0 0.00477344)
(0 0 0.00478544)
(0 0 0.00479641)
(0 0 0.00480633)
(0 0 0.00481521)
(0 0 0.00482305)
(0 0 0.00482984)
(0 0 0.00483559)
(0 0 0.00484031)
(0 0 0.00484398)
(0 0 0.00484662)
(0 0 0.00484823)
(0 0 0.00484881)
(0 0 0.00484837)
(0 0 0.00484691)
(0 0 0.00484444)
(0 0 0.00484097)
(0 0 0.00483651)
(0 0 0.00483106)
(0 0 0.00482462)
(0 0 0.00481722)
(0 0 0.00480886)
(0 0 0.00479954)
(0 0 0.00478929)
(0 0 0.00477811)
(0 0 0.00476601)
(0 0 0.004753)
(0 0 0.0047391)
(0 0 0.00472432)
(0 0 0.00470867)
(0 0 0.00469216)
(0 0 0.00467481)
(0 0 0.00465663)
(0 0 0.00463764)
(0 0 0.00461784)
(0 0 0.00459726)
(0 0 0.00457591)
(0 0 0.0045538)
(0 0 0.00453094)
(0 0 0.00450736)
(0 0 0.00448306)
(0 0 0.00445807)
(0 0 0.00443239)
(0 0 0.00440604)
(0 0 0.00437903)
(0 0 0.00435139)
(0 0 0.00432313)
(0 0 0.00429425)
(0 0 0.00426478)
(0 0 0.00423474)
(0 0 0.00420412)
(0 0 0.00417296)
(0 0 0.00414126)
(0 0 0.00410904)
(0 0 0.00407631)
(0 0 0.00404309)
(0 0 0.00400939)
(0 0 0.00397523)
(0 0 0.00394061)
(0 0 0.00390556)
(0 0 0.00387008)
(0 0 0.00383418)
(0 0 0.00379789)
(0 0 0.00376121)
(0 0 0.00372416)
(0 0 0.00368675)
(0 0 0.00364898)
(0 0 0.00361088)
(0 0 0.00357245)
(0 0 0.0035337)
(0 0 0.00349465)
(0 0 0.00345531)
(0 0 0.00341568)
(0 0 0.00337578)
(0 0 0.00333562)
(0 0 0.00329521)
(0 0 0.00325455)
(0 0 0.00321366)
(0 0 0.00317254)
(0 0 0.00313121)
(0 0 0.00308967)
(0 0 0.00304793)
(0 0 0.00300601)
(0 0 0.0029639)
(0 0 0.00292162)
(0 0 0.00287917)
(0 0 0.00283656)
(0 0 0.0027938)
(0 0 0.00275089)
(0 0 0.00270785)
(0 0 0.00266467)
(0 0 0.00262137)
(0 0 0.00257795)
(0 0 0.00253441)
(0 0 0.00249076)
(0 0 0.00244702)
(0 0 0.00240317)
(0 0 0.00235924)
(0 0 0.00231521)
(0 0 0.0022711)
(0 0 0.00222692)
(0 0 0.00218266)
(0 0 0.00213833)
(0 0 0.00209394)
(0 0 0.00204948)
(0 0 0.00200497)
(0 0 0.0019604)
(0 0 0.00191578)
(0 0 0.00187111)
(0 0 0.0018264)
(0 0 0.00178164)
(0 0 0.00173685)
(0 0 0.00169202)
(0 0 0.00164716)
(0 0 0.00160226)
(0 0 0.00155734)
(0 0 0.00151239)
(0 0 0.00146742)
(0 0 0.00142242)
(0 0 0.0013774)
(0 0 0.00133236)
(0 0 0.0012873)
(0 0 0.00124223)
(0 0 0.00119715)
(0 0 0.00115205)
(0 0 0.00110693)
(0 0 0.00106181)
(0 0 0.00101668)
(0 0 0.000971535)
(0 0 0.000926385)
(0 0 0.000881227)
(0 0 0.000836064)
(0 0 0.000790895)
(0 0 0.00074572)
(0 0 0.000700542)
(0 0 0.000655359)
(0 0 0.000610174)
(0 0 0.000564985)
(0 0 0.000519794)
(0 0 0.0004746)
(0 0 0.000429405)
(0 0 0.000384208)
(0 0 0.00033901)
(0 0 0.00029381)
(0 0 0.00024861)
(0 0 0.000203409)
(0 0 0.000158208)
(0 0 0.000113006)
(0 0 6.78037e-05)
(0 0 2.26012e-05)
(0 0 4.62718e-05)
(0 0 0.000138815)
(0 0 0.000231356)
(0 0 0.000323894)
(0 0 0.000416427)
(0 0 0.000508955)
(0 0 0.000601475)
(0 0 0.000693986)
(0 0 0.000786487)
(0 0 0.000878976)
(0 0 0.00097145)
(0 0 0.00106391)
(0 0 0.00115635)
(0 0 0.00124876)
(0 0 0.00134115)
(0 0 0.00143352)
(0 0 0.00152585)
(0 0 0.00161815)
(0 0 0.00171041)
(0 0 0.00180263)
(0 0 0.0018948)
(0 0 0.00198691)
(0 0 0.00207897)
(0 0 0.00217097)
(0 0 0.00226289)
(0 0 0.00235474)
(0 0 0.00244651)
(0 0 0.00253818)
(0 0 0.00262975)
(0 0 0.00272122)
(0 0 0.00281257)
(0 0 0.00290379)
(0 0 0.00299487)
(0 0 0.00308581)
(0 0 0.00317659)
(0 0 0.0032672)
(0 0 0.00335763)
(0 0 0.00344786)
(0 0 0.00353788)
(0 0 0.00362768)
(0 0 0.00371725)
(0 0 0.00380656)
(0 0 0.0038956)
(0 0 0.00398435)
(0 0 0.00407281)
(0 0 0.00416094)
(0 0 0.00424873)
(0 0 0.00433617)
(0 0 0.00442323)
(0 0 0.00450989)
(0 0 0.00459613)
(0 0 0.00468193)
(0 0 0.00476727)
(0 0 0.00485213)
(0 0 0.00493648)
(0 0 0.00502029)
(0 0 0.00510355)
(0 0 0.00518623)
(0 0 0.0052683)
(0 0 0.00534975)
(0 0 0.00543053)
(0 0 0.00551063)
(0 0 0.00559002)
(0 0 0.00566866)
(0 0 0.00574654)
(0 0 0.00582363)
(0 0 0.00589989)
(0 0 0.0059753)
(0 0 0.00604983)
(0 0 0.00612344)
(0 0 0.00619612)
(0 0 0.00626783)
(0 0 0.00633854)
(0 0 0.00640823)
(0 0 0.00647685)
(0 0 0.00654439)
(0 0 0.00661082)
(0 0 0.0066761)
(0 0 0.0067402)
(0 0 0.00680311)
(0 0 0.00686478)
(0 0 0.0069252)
(0 0 0.00698433)
(0 0 0.00704214)
(0 0 0.00709862)
(0 0 0.00715373)
(0 0 0.00720744)
(0 0 0.00725974)
(0 0 0.0073106)
(0 0 0.00736)
(0 0 0.00740791)
(0 0 0.0074543)
(0 0 0.00749917)
(0 0 0.00754248)
(0 0 0.00758423)
(0 0 0.00762438)
(0 0 0.00766293)
(0 0 0.00769985)
(0 0 0.00773514)
(0 0 0.00776877)
(0 0 0.00780073)
(0 0 0.00783101)
(0 0 0.00785961)
(0 0 0.0078865)
(0 0 0.00791168)
(0 0 0.00793514)
(0 0 0.00795688)
(0 0 0.0079769)
(0 0 0.00799517)
(0 0 0.00801171)
(0 0 0.00802651)
(0 0 0.00803957)
(0 0 0.00805089)
(0 0 0.00806048)
(0 0 0.00806833)
(0 0 0.00807445)
(0 0 0.00807884)
(0 0 0.00808152)
(0 0 0.00808248)
(0 0 0.00808174)
(0 0 0.0080793)
(0 0 0.00807519)
(0 0 0.00806939)
(0 0 0.00806194)
(0 0 0.00805285)
(0 0 0.00804212)
(0 0 0.00802977)
(0 0 0.00801582)
(0 0 0.00800028)
(0 0 0.00798318)
(0 0 0.00796453)
(0 0 0.00794435)
(0 0 0.00792266)
(0 0 0.00789948)
(0 0 0.00787483)
(0 0 0.00784873)
(0 0 0.0078212)
(0 0 0.00779227)
(0 0 0.00776196)
(0 0 0.00773029)
(0 0 0.00769728)
(0 0 0.00766296)
(0 0 0.00762736)
(0 0 0.00759049)
(0 0 0.00755238)
(0 0 0.00751306)
(0 0 0.00747254)
(0 0 0.00743087)
(0 0 0.00738805)
(0 0 0.00734412)
(0 0 0.0072991)
(0 0 0.00725301)
(0 0 0.00720589)
(0 0 0.00715775)
(0 0 0.00710862)
(0 0 0.00705852)
(0 0 0.00700748)
(0 0 0.00695553)
(0 0 0.00690268)
(0 0 0.00684896)
(0 0 0.0067944)
(0 0 0.00673902)
(0 0 0.00668284)
(0 0 0.00662588)
(0 0 0.00656817)
(0 0 0.00650973)
(0 0 0.00645058)
(0 0 0.00639075)
(0 0 0.00633025)
(0 0 0.0062691)
(0 0 0.00620734)
(0 0 0.00614496)
(0 0 0.00608201)
(0 0 0.00601849)
(0 0 0.00595443)
(0 0 0.00588984)
(0 0 0.00582475)
(0 0 0.00575916)
(0 0 0.00569311)
(0 0 0.0056266)
(0 0 0.00555965)
(0 0 0.00549228)
(0 0 0.00542451)
(0 0 0.00535634)
(0 0 0.00528781)
(0 0 0.00521891)
(0 0 0.00514967)
(0 0 0.0050801)
(0 0 0.00501022)
(0 0 0.00494003)
(0 0 0.00486955)
(0 0 0.00479879)
(0 0 0.00472777)
(0 0 0.00465649)
(0 0 0.00458497)
(0 0 0.00451323)
(0 0 0.00444126)
(0 0 0.00436908)
(0 0 0.0042967)
(0 0 0.00422414)
(0 0 0.00415139)
(0 0 0.00407847)
(0 0 0.00400539)
(0 0 0.00393216)
(0 0 0.00385878)
(0 0 0.00378526)
(0 0 0.00371161)
(0 0 0.00363784)
(0 0 0.00356396)
(0 0 0.00348996)
(0 0 0.00341586)
(0 0 0.00334167)
(0 0 0.00326739)
(0 0 0.00319302)
(0 0 0.00311857)
(0 0 0.00304404)
(0 0 0.00296945)
(0 0 0.00289479)
(0 0 0.00282007)
(0 0 0.0027453)
(0 0 0.00267047)
(0 0 0.0025956)
(0 0 0.00252068)
(0 0 0.00244572)
(0 0 0.00237072)
(0 0 0.00229569)
(0 0 0.00222062)
(0 0 0.00214552)
(0 0 0.0020704)
(0 0 0.00199526)
(0 0 0.00192009)
(0 0 0.0018449)
(0 0 0.00176969)
(0 0 0.00169447)
(0 0 0.00161923)
(0 0 0.00154398)
(0 0 0.00146872)
(0 0 0.00139345)
(0 0 0.00131816)
(0 0 0.00124287)
(0 0 0.00116757)
(0 0 0.00109227)
(0 0 0.00101696)
(0 0 0.000941644)
(0 0 0.000866325)
(0 0 0.000791002)
(0 0 0.000715676)
(0 0 0.000640348)
(0 0 0.000565018)
(0 0 0.000489685)
(0 0 0.000414351)
(0 0 0.000339016)
(0 0 0.00026368)
(0 0 0.000188344)
(0 0 0.000113006)
(0 0 3.76688e-05)
(0 0 6.47813e-05)
(0 0 0.000194343)
(0 0 0.000323902)
(0 0 0.000453457)
(0 0 0.000583006)
(0 0 0.000712547)
(0 0 0.000842078)
(0 0 0.000971596)
(0 0 0.0011011)
(0 0 0.00123059)
(0 0 0.00136005)
(0 0 0.0014895)
(0 0 0.00161891)
(0 0 0.0017483)
(0 0 0.00187765)
(0 0 0.00200697)
(0 0 0.00213624)
(0 0 0.00226547)
(0 0 0.00239464)
(0 0 0.00252375)
(0 0 0.00265279)
(0 0 0.00278176)
(0 0 0.00291065)
(0 0 0.00303945)
(0 0 0.00316816)
(0 0 0.00329676)
(0 0 0.00342524)
(0 0 0.00355359)
(0 0 0.0036818)
(0 0 0.00380987)
(0 0 0.00393777)
(0 0 0.0040655)
(0 0 0.00419303)
(0 0 0.00432036)
(0 0 0.00444747)
(0 0 0.00457434)
(0 0 0.00470096)
(0 0 0.0048273)
(0 0 0.00495335)
(0 0 0.00507909)
(0 0 0.0052045)
(0 0 0.00532956)
(0 0 0.00545424)
(0 0 0.00557852)
(0 0 0.00570238)
(0 0 0.00582579)
(0 0 0.00594873)
(0 0 0.00607117)
(0 0 0.00619308)
(0 0 0.00631443)
(0 0 0.0064352)
(0 0 0.00655535)
(0 0 0.00667486)
(0 0 0.00679369)
(0 0 0.00691181)
(0 0 0.00702919)
(0 0 0.00714579)
(0 0 0.00726157)
(0 0 0.00737651)
(0 0 0.00749057)
(0 0 0.0076037)
(0 0 0.00771588)
(0 0 0.00782706)
(0 0 0.0079372)
(0 0 0.00804627)
(0 0 0.00815423)
(0 0 0.00826104)
(0 0 0.00836665)
(0 0 0.00847103)
(0 0 0.00857414)
(0 0 0.00867593)
(0 0 0.00877636)
(0 0 0.0088754)
(0 0 0.008973)
(0 0 0.00906912)
(0 0 0.00916371)
(0 0 0.00925675)
(0 0 0.00934818)
(0 0 0.00943797)
(0 0 0.00952608)
(0 0 0.00961246)
(0 0 0.00969708)
(0 0 0.0097799)
(0 0 0.00986087)
(0 0 0.00993998)
(0 0 0.0100172)
(0 0 0.0100924)
(0 0 0.0101657)
(0 0 0.0102369)
(0 0 0.0103061)
(0 0 0.0103732)
(0 0 0.0104382)
(0 0 0.010501)
(0 0 0.0105617)
(0 0 0.0106201)
(0 0 0.0106764)
(0 0 0.0107304)
(0 0 0.0107821)
(0 0 0.0108315)
(0 0 0.0108786)
(0 0 0.0109234)
(0 0 0.0109658)
(0 0 0.0110058)
(0 0 0.0110435)
(0 0 0.0110788)
(0 0 0.0111116)
(0 0 0.0111421)
(0 0 0.0111701)
(0 0 0.0111957)
(0 0 0.0112188)
(0 0 0.0112396)
(0 0 0.0112578)
(0 0 0.0112737)
(0 0 0.0112871)
(0 0 0.0112981)
(0 0 0.0113066)
(0 0 0.0113128)
(0 0 0.0113165)
(0 0 0.0113179)
(0 0 0.0113168)
(0 0 0.0113134)
(0 0 0.0113076)
(0 0 0.0112995)
(0 0 0.011289)
(0 0 0.0112763)
(0 0 0.0112612)
(0 0 0.0112439)
(0 0 0.0112244)
(0 0 0.0112026)
(0 0 0.0111786)
(0 0 0.0111525)
(0 0 0.0111242)
(0 0 0.0110938)
(0 0 0.0110613)
(0 0 0.0110268)
(0 0 0.0109902)
(0 0 0.0109516)
(0 0 0.0109111)
(0 0 0.0108686)
(0 0 0.0108243)
(0 0 0.010778)
(0 0 0.0107299)
(0 0 0.0106801)
(0 0 0.0106284)
(0 0 0.010575)
(0 0 0.0105199)
(0 0 0.0104632)
(0 0 0.0104048)
(0 0 0.0103448)
(0 0 0.0102833)
(0 0 0.0102202)
(0 0 0.0101557)
(0 0 0.0100897)
(0 0 0.0100222)
(0 0 0.00995342)
(0 0 0.00988325)
(0 0 0.00981176)
(0 0 0.00973899)
(0 0 0.00966497)
(0 0 0.00958973)
(0 0 0.00951331)
(0 0 0.00943574)
(0 0 0.00935706)
(0 0 0.00927729)
(0 0 0.00919646)
(0 0 0.00911462)
(0 0 0.00903178)
(0 0 0.00894798)
(0 0 0.00886325)
(0 0 0.00877762)
(0 0 0.00869112)
(0 0 0.00860377)
(0 0 0.0085156)
(0 0 0.00842665)
(0 0 0.00833694)
(0 0 0.00824649)
(0 0 0.00815533)
(0 0 0.00806349)
(0 0 0.00797098)
(0 0 0.00787785)
(0 0 0.0077841)
(0 0 0.00768976)
(0 0 0.00759485)
(0 0 0.0074994)
(0 0 0.00740343)
(0 0 0.00730696)
(0 0 0.00721)
(0 0 0.00711259)
(0 0 0.00701473)
(0 0 0.00691644)
(0 0 0.00681775)
(0 0 0.00671868)
(0 0 0.00661923)
(0 0 0.00651943)
(0 0 0.00641929)
(0 0 0.00631882)
(0 0 0.00621805)
(0 0 0.00611699)
(0 0 0.00601565)
(0 0 0.00591404)
(0 0 0.00581218)
(0 0 0.00571009)
(0 0 0.00560776)
(0 0 0.00550522)
(0 0 0.00540248)
(0 0 0.00529955)
(0 0 0.00519643)
(0 0 0.00509314)
(0 0 0.00498969)
(0 0 0.00488609)
(0 0 0.00478235)
(0 0 0.00467847)
(0 0 0.00457446)
(0 0 0.00447033)
(0 0 0.0043661)
(0 0 0.00426176)
(0 0 0.00415732)
(0 0 0.00405279)
(0 0 0.00394818)
(0 0 0.00384349)
(0 0 0.00373873)
(0 0 0.0036339)
(0 0 0.00352901)
(0 0 0.00342406)
(0 0 0.00331906)
(0 0 0.003214)
(0 0 0.00310891)
(0 0 0.00300377)
(0 0 0.0028986)
(0 0 0.00279339)
(0 0 0.00268815)
(0 0 0.00258289)
(0 0 0.00247759)
(0 0 0.00237228)
(0 0 0.00226695)
(0 0 0.00216159)
(0 0 0.00205622)
(0 0 0.00195084)
(0 0 0.00184544)
(0 0 0.00174003)
(0 0 0.00163461)
(0 0 0.00152918)
(0 0 0.00142375)
(0 0 0.00131831)
(0 0 0.00121286)
(0 0 0.00110741)
(0 0 0.00100195)
(0 0 0.00089649)
(0 0 0.000791027)
(0 0 0.000685561)
(0 0 0.000580094)
(0 0 0.000474624)
(0 0 0.000369153)
(0 0 0.000263682)
(0 0 0.000158209)
(0 0 5.27365e-05)
(0 0 8.32918e-05)
(0 0 0.000249874)
(0 0 0.000416454)
(0 0 0.000583027)
(0 0 0.000749593)
(0 0 0.000916149)
(0 0 0.00108269)
(0 0 0.00124922)
(0 0 0.00141573)
(0 0 0.00158222)
(0 0 0.00174868)
(0 0 0.00191511)
(0 0 0.00208151)
(0 0 0.00224787)
(0 0 0.00241419)
(0 0 0.00258046)
(0 0 0.00274668)
(0 0 0.00291283)
(0 0 0.00307892)
(0 0 0.00324493)
(0 0 0.00341086)
(0 0 0.00357669)
(0 0 0.00374242)
(0 0 0.00390804)
(0 0 0.00407353)
(0 0 0.00423889)
(0 0 0.00440409)
(0 0 0.00456914)
(0 0 0.00473401)
(0 0 0.00489868)
(0 0 0.00506315)
(0 0 0.00522739)
(0 0 0.00539139)
(0 0 0.00555513)
(0 0 0.00571858)
(0 0 0.00588173)
(0 0 0.00604455)
(0 0 0.00620703)
(0 0 0.00636913)
(0 0 0.00653083)
(0 0 0.00669211)
(0 0 0.00685293)
(0 0 0.00701328)
(0 0 0.00717311)
(0 0 0.0073324)
(0 0 0.00749112)
(0 0 0.00764922)
(0 0 0.00780669)
(0 0 0.00796348)
(0 0 0.00811956)
(0 0 0.00827489)
(0 0 0.00842942)
(0 0 0.00858313)
(0 0 0.00873597)
(0 0 0.00888789)
(0 0 0.00903886)
(0 0 0.00918884)
(0 0 0.00933777)
(0 0 0.00948561)
(0 0 0.00963231)
(0 0 0.00977783)
(0 0 0.00992212)
(0 0 0.0100651)
(0 0 0.0102068)
(0 0 0.0103471)
(0 0 0.010486)
(0 0 0.0106234)
(0 0 0.0107592)
(0 0 0.0108935)
(0 0 0.0110262)
(0 0 0.0111571)
(0 0 0.0112863)
(0 0 0.0114137)
(0 0 0.0115393)
(0 0 0.0116629)
(0 0 0.0117846)
(0 0 0.0119043)
(0 0 0.0120219)
(0 0 0.0121374)
(0 0 0.0122508)
(0 0 0.0123619)
(0 0 0.0124708)
(0 0 0.0125773)
(0 0 0.0126815)
(0 0 0.0127833)
(0 0 0.0128826)
(0 0 0.0129794)
(0 0 0.0130736)
(0 0 0.0131652)
(0 0 0.0132543)
(0 0 0.0133406)
(0 0 0.0134242)
(0 0 0.013505)
(0 0 0.0135831)
(0 0 0.0136583)
(0 0 0.0137306)
(0 0 0.0138001)
(0 0 0.0138666)
(0 0 0.0139302)
(0 0 0.0139908)
(0 0 0.0140484)
(0 0 0.0141029)
(0 0 0.0141544)
(0 0 0.0142029)
(0 0 0.0142482)
(0 0 0.0142905)
(0 0 0.0143297)
(0 0 0.0143657)
(0 0 0.0143986)
(0 0 0.0144284)
(0 0 0.014455)
(0 0 0.0144785)
(0 0 0.0144989)
(0 0 0.0145162)
(0 0 0.0145303)
(0 0 0.0145413)
(0 0 0.0145491)
(0 0 0.0145539)
(0 0 0.0145556)
(0 0 0.0145543)
(0 0 0.0145498)
(0 0 0.0145424)
(0 0 0.0145319)
(0 0 0.0145184)
(0 0 0.014502)
(0 0 0.0144826)
(0 0 0.0144603)
(0 0 0.0144351)
(0 0 0.0144071)
(0 0 0.0143762)
(0 0 0.0143426)
(0 0 0.0143062)
(0 0 0.0142671)
(0 0 0.0142252)
(0 0 0.0141808)
(0 0 0.0141337)
(0 0 0.0140841)
(0 0 0.0140319)
(0 0 0.0139772)
(0 0 0.0139201)
(0 0 0.0138606)
(0 0 0.0137987)
(0 0 0.0137345)
(0 0 0.0136681)
(0 0 0.0135994)
(0 0 0.0135285)
(0 0 0.0134555)
(0 0 0.0133804)
(0 0 0.0133032)
(0 0 0.013224)
(0 0 0.0131429)
(0 0 0.0130598)
(0 0 0.0129749)
(0 0 0.0128881)
(0 0 0.0127996)
(0 0 0.0127093)
(0 0 0.0126173)
(0 0 0.0125237)
(0 0 0.0124285)
(0 0 0.0123317)
(0 0 0.0122334)
(0 0 0.0121336)
(0 0 0.0120324)
(0 0 0.0119297)
(0 0 0.0118258)
(0 0 0.0117205)
(0 0 0.0116139)
(0 0 0.0115061)
(0 0 0.0113972)
(0 0 0.011287)
(0 0 0.0111757)
(0 0 0.0110634)
(0 0 0.01095)
(0 0 0.0108356)
(0 0 0.0107202)
(0 0 0.0106038)
(0 0 0.0104866)
(0 0 0.0103685)
(0 0 0.0102495)
(0 0 0.0101297)
(0 0 0.0100091)
(0 0 0.0098878)
(0 0 0.00976575)
(0 0 0.00964299)
(0 0 0.00951956)
(0 0 0.00939549)
(0 0 0.0092708)
(0 0 0.00914552)
(0 0 0.00901966)
(0 0 0.00889327)
(0 0 0.00876635)
(0 0 0.00863894)
(0 0 0.00851105)
(0 0 0.0083827)
(0 0 0.00825392)
(0 0 0.00812473)
(0 0 0.00799514)
(0 0 0.00786518)
(0 0 0.00773486)
(0 0 0.0076042)
(0 0 0.00747322)
(0 0 0.00734193)
(0 0 0.00721035)
(0 0 0.00707849)
(0 0 0.00694638)
(0 0 0.00681402)
(0 0 0.00668142)
(0 0 0.0065486)
(0 0 0.00641558)
(0 0 0.00628236)
(0 0 0.00614896)
(0 0 0.00601539)
(0 0 0.00588165)
(0 0 0.00574776)
(0 0 0.00561373)
(0 0 0.00547957)
(0 0 0.00534528)
(0 0 0.00521088)
(0 0 0.00507637)
(0 0 0.00494176)
(0 0 0.00480705)
(0 0 0.00467226)
(0 0 0.00453739)
(0 0 0.00440245)
(0 0 0.00426744)
(0 0 0.00413237)
(0 0 0.00399724)
(0 0 0.00386206)
(0 0 0.00372683)
(0 0 0.00359156)
(0 0 0.00345625)
(0 0 0.0033209)
(0 0 0.00318552)
(0 0 0.00305011)
(0 0 0.00291468)
(0 0 0.00277922)
(0 0 0.00264374)
(0 0 0.00250824)
(0 0 0.00237273)
(0 0 0.0022372)
(0 0 0.00210166)
(0 0 0.00196611)
(0 0 0.00183055)
(0 0 0.00169498)
(0 0 0.0015594)
(0 0 0.00142382)
(0 0 0.00128823)
(0 0 0.00115264)
(0 0 0.00101704)
(0 0 0.00088144)
(0 0 0.000745837)
(0 0 0.000610233)
(0 0 0.000474627)
(0 0 0.00033902)
(0 0 0.000203413)
(0 0 6.78043e-05)
(0 0 0.000101803)
(0 0 0.000305409)
(0 0 0.00050901)
(0 0 0.000712605)
(0 0 0.000916191)
(0 0 0.00111976)
(0 0 0.00132332)
(0 0 0.00152686)
(0 0 0.00173038)
(0 0 0.00193387)
(0 0 0.00213734)
(0 0 0.00234076)
(0 0 0.00254415)
(0 0 0.00274749)
(0 0 0.00295078)
(0 0 0.00315401)
(0 0 0.00335718)
(0 0 0.00356027)
(0 0 0.00376328)
(0 0 0.0039662)
(0 0 0.00416902)
(0 0 0.00437172)
(0 0 0.0045743)
(0 0 0.00477675)
(0 0 0.00497904)
(0 0 0.00518117)
(0 0 0.00538312)
(0 0 0.00558487)
(0 0 0.0057864)
(0 0 0.00598771)
(0 0 0.00618876)
(0 0 0.00638954)
(0 0 0.00659002)
(0 0 0.00679018)
(0 0 0.00699)
(0 0 0.00718945)
(0 0 0.0073885)
(0 0 0.00758713)
(0 0 0.00778531)
(0 0 0.007983)
(0 0 0.00818017)
(0 0 0.00837679)
(0 0 0.00857283)
(0 0 0.00876824)
(0 0 0.008963)
(0 0 0.00915705)
(0 0 0.00935036)
(0 0 0.0095429)
(0 0 0.0097346)
(0 0 0.00992544)
(0 0 0.0101154)
(0 0 0.0103043)
(0 0 0.0104923)
(0 0 0.0106792)
(0 0 0.0108649)
(0 0 0.0110495)
(0 0 0.0112329)
(0 0 0.011415)
(0 0 0.0115958)
(0 0 0.0117752)
(0 0 0.0119532)
(0 0 0.0121297)
(0 0 0.0123045)
(0 0 0.0124778)
(0 0 0.0126494)
(0 0 0.0128192)
(0 0 0.0129873)
(0 0 0.0131534)
(0 0 0.0133176)
(0 0 0.0134799)
(0 0 0.01364)
(0 0 0.013798)
(0 0 0.0139538)
(0 0 0.0141074)
(0 0 0.0142586)
(0 0 0.0144075)
(0 0 0.0145539)
(0 0 0.0146978)
(0 0 0.014839)
(0 0 0.0149777)
(0 0 0.0151136)
(0 0 0.0152468)
(0 0 0.0153771)
(0 0 0.0155045)
(0 0 0.015629)
(0 0 0.0157505)
(0 0 0.0158689)
(0 0 0.0159841)
(0 0 0.0160962)
(0 0 0.0162051)
(0 0 0.0163107)
(0 0 0.016413)
(0 0 0.0165118)
(0 0 0.0166073)
(0 0 0.0166993)
(0 0 0.0167878)
(0 0 0.0168728)
(0 0 0.0169541)
(0 0 0.0170319)
(0 0 0.017106)
(0 0 0.0171764)
(0 0 0.0172431)
(0 0 0.0173061)
(0 0 0.0173654)
(0 0 0.0174208)
(0 0 0.0174725)
(0 0 0.0175204)
(0 0 0.0175644)
(0 0 0.0176047)
(0 0 0.0176411)
(0 0 0.0176737)
(0 0 0.0177024)
(0 0 0.0177273)
(0 0 0.0177483)
(0 0 0.0177656)
(0 0 0.017779)
(0 0 0.0177886)
(0 0 0.0177944)
(0 0 0.0177965)
(0 0 0.0177948)
(0 0 0.0177893)
(0 0 0.0177801)
(0 0 0.0177673)
(0 0 0.0177508)
(0 0 0.0177306)
(0 0 0.0177069)
(0 0 0.0176796)
(0 0 0.0176488)
(0 0 0.0176144)
(0 0 0.0175766)
(0 0 0.0175355)
(0 0 0.0174909)
(0 0 0.017443)
(0 0 0.0173918)
(0 0 0.0173374)
(0 0 0.0172798)
(0 0 0.017219)
(0 0 0.0171552)
(0 0 0.0170883)
(0 0 0.0170184)
(0 0 0.0169456)
(0 0 0.0168699)
(0 0 0.0167913)
(0 0 0.01671)
(0 0 0.0166259)
(0 0 0.0165392)
(0 0 0.0164499)
(0 0 0.0163579)
(0 0 0.0162635)
(0 0 0.0161667)
(0 0 0.0160674)
(0 0 0.0159658)
(0 0 0.0158619)
(0 0 0.0157558)
(0 0 0.0156475)
(0 0 0.015537)
(0 0 0.0154245)
(0 0 0.01531)
(0 0 0.0151935)
(0 0 0.0150752)
(0 0 0.0149549)
(0 0 0.0148329)
(0 0 0.0147091)
(0 0 0.0145836)
(0 0 0.0144564)
(0 0 0.0143276)
(0 0 0.0141973)
(0 0 0.0140655)
(0 0 0.0139322)
(0 0 0.0137975)
(0 0 0.0136615)
(0 0 0.0135241)
(0 0 0.0133854)
(0 0 0.0132455)
(0 0 0.0131044)
(0 0 0.0129621)
(0 0 0.0128188)
(0 0 0.0126743)
(0 0 0.0125288)
(0 0 0.0123824)
(0 0 0.0122349)
(0 0 0.0120866)
(0 0 0.0119373)
(0 0 0.0117872)
(0 0 0.0116363)
(0 0 0.0114846)
(0 0 0.0113322)
(0 0 0.011179)
(0 0 0.0110251)
(0 0 0.0108706)
(0 0 0.0107154)
(0 0 0.0105597)
(0 0 0.0104033)
(0 0 0.0102464)
(0 0 0.010089)
(0 0 0.00993103)
(0 0 0.00977261)
(0 0 0.00961373)
(0 0 0.00945441)
(0 0 0.00929468)
(0 0 0.00913456)
(0 0 0.00897406)
(0 0 0.00881321)
(0 0 0.00865203)
(0 0 0.00849052)
(0 0 0.00832872)
(0 0 0.00816663)
(0 0 0.00800427)
(0 0 0.00784167)
(0 0 0.00767882)
(0 0 0.00751575)
(0 0 0.00735247)
(0 0 0.007189)
(0 0 0.00702533)
(0 0 0.0068615)
(0 0 0.00669751)
(0 0 0.00653336)
(0 0 0.00636907)
(0 0 0.00620465)
(0 0 0.00604011)
(0 0 0.00587546)
(0 0 0.00571071)
(0 0 0.00554585)
(0 0 0.00538091)
(0 0 0.00521589)
(0 0 0.00505079)
(0 0 0.00488562)
(0 0 0.00472039)
(0 0 0.0045551)
(0 0 0.00438976)
(0 0 0.00422437)
(0 0 0.00405894)
(0 0 0.00389347)
(0 0 0.00372797)
(0 0 0.00356243)
(0 0 0.00339687)
(0 0 0.00323128)
(0 0 0.00306566)
(0 0 0.00290003)
(0 0 0.00273438)
(0 0 0.00256872)
(0 0 0.00240304)
(0 0 0.00223735)
(0 0 0.00207165)
(0 0 0.00190595)
(0 0 0.00174023)
(0 0 0.00157451)
(0 0 0.00140879)
(0 0 0.00124305)
(0 0 0.00107732)
(0 0 0.000911583)
(0 0 0.000745844)
(0 0 0.000580103)
(0 0 0.00041436)
(0 0 0.000248616)
(0 0 8.28722e-05)
(0 0 0.000120316)
(0 0 0.000360947)
(0 0 0.000601573)
(0 0 0.000842192)
(0 0 0.0010828)
(0 0 0.0013234)
(0 0 0.00156397)
(0 0 0.00180453)
(0 0 0.00204506)
(0 0 0.00228556)
(0 0 0.00252603)
(0 0 0.00276645)
(0 0 0.00300683)
(0 0 0.00324716)
(0 0 0.00348743)
(0 0 0.00372763)
(0 0 0.00396775)
(0 0 0.00420779)
(0 0 0.00444773)
(0 0 0.00468757)
(0 0 0.00492729)
(0 0 0.00516688)
(0 0 0.00540632)
(0 0 0.00564561)
(0 0 0.00588471)
(0 0 0.00612363)
(0 0 0.00636233)
(0 0 0.00660081)
(0 0 0.00683903)
(0 0 0.00707699)
(0 0 0.00731464)
(0 0 0.00755198)
(0 0 0.00778896)
(0 0 0.00802558)
(0 0 0.00826179)
(0 0 0.00849757)
(0 0 0.00873288)
(0 0 0.00896769)
(0 0 0.00920197)
(0 0 0.00943568)
(0 0 0.00966879)
(0 0 0.00990124)
(0 0 0.010133)
(0 0 0.010364)
(0 0 0.0105943)
(0 0 0.0108237)
(0 0 0.0110523)
(0 0 0.0112799)
(0 0 0.0115066)
(0 0 0.0117322)
(0 0 0.0119568)
(0 0 0.0121802)
(0 0 0.0124025)
(0 0 0.0126235)
(0 0 0.0128431)
(0 0 0.0130614)
(0 0 0.0132783)
(0 0 0.0134937)
(0 0 0.0137075)
(0 0 0.0139196)
(0 0 0.0141301)
(0 0 0.0143387)
(0 0 0.0145456)
(0 0 0.0147505)
(0 0 0.0149534)
(0 0 0.0151543)
(0 0 0.015353)
(0 0 0.0155495)
(0 0 0.0157438)
(0 0 0.0159356)
(0 0 0.016125)
(0 0 0.016312)
(0 0 0.0164963)
(0 0 0.0166779)
(0 0 0.0168568)
(0 0 0.0170328)
(0 0 0.017206)
(0 0 0.0173762)
(0 0 0.0175433)
(0 0 0.0177073)
(0 0 0.0178681)
(0 0 0.0180256)
(0 0 0.0181798)
(0 0 0.0183305)
(0 0 0.0184777)
(0 0 0.0186214)
(0 0 0.0187615)
(0 0 0.0188978)
(0 0 0.0190305)
(0 0 0.0191592)
(0 0 0.0192841)
(0 0 0.0194051)
(0 0 0.0195221)
(0 0 0.019635)
(0 0 0.0197438)
(0 0 0.0198485)
(0 0 0.019949)
(0 0 0.0200452)
(0 0 0.0201372)
(0 0 0.0202248)
(0 0 0.0203081)
(0 0 0.0203871)
(0 0 0.0204616)
(0 0 0.0205316)
(0 0 0.0205972)
(0 0 0.0206583)
(0 0 0.0207149)
(0 0 0.020767)
(0 0 0.0208146)
(0 0 0.0208576)
(0 0 0.0208961)
(0 0 0.0209301)
(0 0 0.0209595)
(0 0 0.0209843)
(0 0 0.0210047)
(0 0 0.0210205)
(0 0 0.0210319)
(0 0 0.0210387)
(0 0 0.0210411)
(0 0 0.021039)
(0 0 0.0210325)
(0 0 0.0210216)
(0 0 0.0210064)
(0 0 0.0209868)
(0 0 0.0209629)
(0 0 0.0209348)
(0 0 0.0209024)
(0 0 0.0208659)
(0 0 0.0208252)
(0 0 0.0207805)
(0 0 0.0207317)
(0 0 0.0206789)
(0 0 0.0206222)
(0 0 0.0205616)
(0 0 0.0204972)
(0 0 0.020429)
(0 0 0.0203571)
(0 0 0.0202815)
(0 0 0.0202023)
(0 0 0.0201196)
(0 0 0.0200334)
(0 0 0.0199438)
(0 0 0.0198509)
(0 0 0.0197546)
(0 0 0.0196551)
(0 0 0.0195525)
(0 0 0.0194468)
(0 0 0.0193381)
(0 0 0.0192263)
(0 0 0.0191117)
(0 0 0.0189943)
(0 0 0.0188741)
(0 0 0.0187512)
(0 0 0.0186256)
(0 0 0.0184975)
(0 0 0.0183668)
(0 0 0.0182338)
(0 0 0.0180983)
(0 0 0.0179605)
(0 0 0.0178205)
(0 0 0.0176783)
(0 0 0.0175339)
(0 0 0.0173875)
(0 0 0.017239)
(0 0 0.0170886)
(0 0 0.0169364)
(0 0 0.0167822)
(0 0 0.0166263)
(0 0 0.0164687)
(0 0 0.0163094)
(0 0 0.0161485)
(0 0 0.015986)
(0 0 0.015822)
(0 0 0.0156566)
(0 0 0.0154897)
(0 0 0.0153215)
(0 0 0.015152)
(0 0 0.0149812)
(0 0 0.0148092)
(0 0 0.014636)
(0 0 0.0144617)
(0 0 0.0142862)
(0 0 0.0141098)
(0 0 0.0139323)
(0 0 0.0137539)
(0 0 0.0135745)
(0 0 0.0133943)
(0 0 0.0132132)
(0 0 0.0130313)
(0 0 0.0128486)
(0 0 0.0126652)
(0 0 0.012481)
(0 0 0.0122961)
(0 0 0.0121107)
(0 0 0.0119245)
(0 0 0.0117378)
(0 0 0.0115505)
(0 0 0.0113627)
(0 0 0.0111744)
(0 0 0.0109856)
(0 0 0.0107963)
(0 0 0.0106066)
(0 0 0.0104164)
(0 0 0.0102259)
(0 0 0.010035)