/*--------------------------------*- C++ -*----------------------------------*\
| =========                 |                                                 |
| \\      /  F ield         | OpenFOAM: The Open Source CFD Toolbox           |
|  \\    /   O peration     | Version:  v2012                                 |
|   \\  /    A nd           | Website:  www.openfoam.com                      |
|    \\/     M anipulation  |                                                 |
\*---------------------------------------------------------------------------*/
FoamFile
{
    version     2.0;
    format      ascii;
    class       volScalarField;
    location    "18.8";
    object      Psi_z;
}
// * * * * * * * * * * * * * * * * * * * * * * * * * * * * * * * * * * * * * //

dimensions      [0 2 -1 0 0 0 0];


internalField   nonuniform List<scalar> 
65536
(
8.06301e-06
2.41895e-05
4.0317e-05
5.64462e-05
7.25779e-05
8.87127e-05
0.000104851
0.000120994
0.000137142
0.000153296
0.000169456
0.000185624
0.000201798
0.000217981
0.000234173
0.000250374
0.000266585
0.000282806
0.000299037
0.00031528
0.000331534
0.0003478
0.000364079
0.000380369
0.000396672
0.000412989
0.000429318
0.00044566
0.000462016
0.000478384
0.000494766
0.00051116
0.000527568
0.000543988
0.00056042
0.000576864
0.00059332
0.000609786
0.000626263
0.000642749
0.000659245
0.000675748
0.000692259
0.000708776
0.000725297
0.000741823
0.000758351
0.00077488
0.000791409
0.000807936
0.000824459
0.000840976
0.000857486
0.000873986
0.000890474
0.000906948
0.000923406
0.000939844
0.00095626
0.000972651
0.000989014
0.00100535
0.00102164
0.0010379
0.00105412
0.0010703
0.00108642
0.00110249
0.00111851
0.00113446
0.00115034
0.00116616
0.0011819
0.00119756
0.00121313
0.00122861
0.00124399
0.00125928
0.00127445
0.00128951
0.00130445
0.00131926
0.00133394
0.00134848
0.00136288
0.00137712
0.00139121
0.00140512
0.00141887
0.00143243
0.0014458
0.00145898
0.00147196
0.00148473
0.00149727
0.0015096
0.00152168
0.00153353
0.00154513
0.00155648
0.00156756
0.00157836
0.00158889
0.00159913
0.00160908
0.00161873
0.00162806
0.00163708
0.00164578
0.00165415
0.00166218
0.00166986
0.0016772
0.00168418
0.0016908
0.00169705
0.00170292
0.00170842
0.00171353
0.00171825
0.00172258
0.00172652
0.00173005
0.00173318
0.00173589
0.0017382
0.0017401
0.00174158
0.00174264
0.00174329
0.00174351
0.00174332
0.0017427
0.00174167
0.00174021
0.00173834
0.00173605
0.00173334
0.00173022
0.00172669
0.00172275
0.00171841
0.00171366
0.00170851
0.00170297
0.00169704
0.00169072
0.00168402
0.00167695
0.00166951
0.0016617
0.00165353
0.00164502
0.00163615
0.00162695
0.00161742
0.00160756
0.00159738
0.00158689
0.0015761
0.00156501
0.00155363
0.00154197
0.00153004
0.00151784
0.00150538
0.00149268
0.00147972
0.00146654
0.00145312
0.00143949
0.00142564
0.00141159
0.00139734
0.0013829
0.00136828
0.00135348
0.00133851
0.00132339
0.0013081
0.00129267
0.0012771
0.0012614
0.00124556
0.00122961
0.00121354
0.00119736
0.00118107
0.00116469
0.00114822
0.00113165
0.00111501
0.00109829
0.00108149
0.00106463
0.00104771
0.00103072
0.00101368
0.000996597
0.000979463
0.000962287
0.000945071
0.000927821
0.000910538
0.000893226
0.000875888
0.000858528
0.000841147
0.000823748
0.000806334
0.000788907
0.00077147
0.000754023
0.000736571
0.000719113
0.000701652
0.000684189
0.000666727
0.000649265
0.000631806
0.000614351
0.0005969
0.000579455
0.000562016
0.000544584
0.000527161
0.000509745
0.000492339
0.000474942
0.000457555
0.000440177
0.00042281
0.000405453
0.000388107
0.00037077
0.000353444
0.000336129
0.000318823
0.000301527
0.000284241
0.000266964
0.000249695
0.000232436
0.000215184
0.00019794
0.000180703
0.000163473
0.000146248
0.00012903
0.000111816
9.46059e-05
7.73998e-05
6.01967e-05
4.2996e-05
2.57969e-05
8.59887e-06
2.41888e-05
7.25676e-05
0.00012095
0.000169337
0.000217731
0.000266135
0.00031455
0.000362978
0.000411422
0.000459883
0.000508363
0.000556865
0.000605389
0.000653937
0.000702512
0.000751114
0.000799746
0.000848408
0.000897103
0.000945831
0.000994593
0.00104339
0.00109223
0.0011411
0.00119001
0.00123896
0.00128794
0.00133697
0.00138604
0.00143514
0.00148429
0.00153347
0.00158269
0.00163195
0.00168125
0.00173058
0.00177995
0.00182935
0.00187878
0.00192824
0.00197773
0.00202724
0.00207677
0.00212633
0.00217589
0.00222547
0.00227506
0.00232465
0.00237423
0.00242382
0.00247339
0.00252294
0.00257247
0.00262197
0.00267144
0.00272087
0.00277024
0.00281956
0.00286881
0.00291799
0.00296708
0.00301608
0.00306498
0.00311376
0.00316242
0.00321094
0.00325932
0.00330754
0.00335559
0.00340345
0.00345111
0.00349856
0.00354578
0.00359276
0.00363948
0.00368593
0.00373209
0.00377794
0.00382347
0.00386866
0.00391348
0.00395793
0.00400198
0.00404561
0.0040888
0.00413154
0.00417379
0.00421555
0.00425679
0.00429748
0.00433761
0.00437716
0.0044161
0.0044544
0.00449205
0.00452903
0.0045653
0.00460085
0.00463566
0.0046697
0.00470294
0.00473537
0.00476697
0.0047977
0.00482755
0.00485649
0.00488451
0.00491158
0.00493768
0.00496278
0.00498688
0.00500994
0.00503196
0.0050529
0.00507276
0.00509151
0.00510915
0.00512564
0.00514098
0.00515516
0.00516815
0.00517995
0.00519055
0.00519994
0.0052081
0.00521503
0.00522072
0.00522516
0.00522835
0.00523028
0.00523096
0.00523038
0.00522853
0.00522543
0.00522106
0.00521544
0.00520857
0.00520045
0.00519109
0.00518049
0.00516866
0.00515562
0.00514137
0.00512593
0.0051093
0.0050915
0.00507254
0.00505244
0.00503122
0.00500889
0.00498546
0.00496096
0.0049354
0.0049088
0.00488119
0.00485258
0.004823
0.00479246
0.00476098
0.0047286
0.00469532
0.00466118
0.0046262
0.00459039
0.00455378
0.0045164
0.00447827
0.00443941
0.00439984
0.00435959
0.00431868
0.00427713
0.00423496
0.00419221
0.00414888
0.00410501
0.00406061
0.0040157
0.00397031
0.00392446
0.00387816
0.00383144
0.00378432
0.00373681
0.00368894
0.00364072
0.00359218
0.00354332
0.00349416
0.00344473
0.00339504
0.0033451
0.00329493
0.00324454
0.00319395
0.00314317
0.00309222
0.0030411
0.00298984
0.00293843
0.0028869
0.00283525
0.00278349
0.00273164
0.0026797
0.00262769
0.0025756
0.00252346
0.00247126
0.00241901
0.00236673
0.00231442
0.00226208
0.00220972
0.00215734
0.00210496
0.00205257
0.00200018
0.00194779
0.00189541
0.00184305
0.00179069
0.00173836
0.00168604
0.00163374
0.00158147
0.00152923
0.00147701
0.00142481
0.00137265
0.00132052
0.00126842
0.00121635
0.00116431
0.0011123
0.00106032
0.00100838
0.000956458
0.000904571
0.000852712
0.000800881
0.000749077
0.000697298
0.000645544
0.000593812
0.000542102
0.000490412
0.000438739
0.000387083
0.000335442
0.000283814
0.000232196
0.000180588
0.000128986
7.73898e-05
2.57962e-05
4.03136e-05
0.000120943
0.000201577
0.00028222
0.000362875
0.000443546
0.000524235
0.000604947
0.000685685
0.000766451
0.000847249
0.000928083
0.00100895
0.00108987
0.00117082
0.00125182
0.00133288
0.00141398
0.00149513
0.00157635
0.00165762
0.00173894
0.00182033
0.00190179
0.0019833
0.00206488
0.00214653
0.00222824
0.00231002
0.00239186
0.00247377
0.00255574
0.00263778
0.00271988
0.00280205
0.00288427
0.00296655
0.00304889
0.00313127
0.00321371
0.00329619
0.00337871
0.00346127
0.00354386
0.00362648
0.00370911
0.00379176
0.00387441
0.00395706
0.00403971
0.00412233
0.00420493
0.00428749
0.00437
0.00445245
0.00453483
0.00461713
0.00469934
0.00478143
0.00486341
0.00494524
0.00502692
0.00510842
0.00518974
0.00527085
0.00535174
0.00543238
0.00551276
0.00559285
0.00567263
0.00575209
0.00583118
0.00590991
0.00598822
0.00606611
0.00614354
0.00622049
0.00629693
0.00637283
0.00644816
0.00652289
0.00659699
0.00667043
0.00674317
0.00681518
0.00688643
0.00695688
0.0070265
0.00709525
0.0071631
0.00723001
0.00729594
0.00736086
0.00742473
0.00748751
0.00754916
0.00760964
0.00766892
0.00772696
0.00778371
0.00783915
0.00789322
0.0079459
0.00799715
0.00804692
0.00809519
0.00814191
0.00818704
0.00823056
0.00827243
0.00831261
0.00835108
0.00838779
0.00842272
0.00845583
0.0084871
0.00851651
0.00854401
0.0085696
0.00859324
0.00861491
0.0086346
0.00865227
0.00866792
0.00868153
0.00869309
0.00870258
0.00870999
0.00871531
0.00871854
0.00871967
0.0087187
0.00871562
0.00871045
0.00870317
0.0086938
0.00868234
0.0086688
0.00865318
0.00863551
0.00861579
0.00859404
0.00857028
0.00854453
0.0085168
0.00848712
0.00845551
0.00842199
0.0083866
0.00834936
0.00831029
0.00826944
0.00822682
0.00818247
0.00813643
0.00808872
0.00803939
0.00798847
0.00793599
0.00788199
0.0078265
0.00776958
0.00771124
0.00765154
0.0075905
0.00752818
0.00746459
0.0073998
0.00733382
0.00726671
0.0071985
0.00712923
0.00705893
0.00698765
0.00691541
0.00684226
0.00676824
0.00669337
0.0066177
0.00654125
0.00646407
0.00638618
0.00630763
0.00622843
0.00614862
0.00606824
0.00598731
0.00590586
0.00582392
0.00574151
0.00565867
0.00557542
0.00549179
0.00540779
0.00532346
0.00523882
0.00515388
0.00506867
0.00498321
0.00489752
0.00481162
0.00472553
0.00463926
0.00455283
0.00446626
0.00437955
0.00429274
0.00420582
0.00411881
0.00403173
0.00394459
0.00385739
0.00377015
0.00368287
0.00359558
0.00350826
0.00342094
0.00333362
0.00324631
0.00315901
0.00307173
0.00298447
0.00289724
0.00281004
0.00272288
0.00263576
0.00254868
0.00246165
0.00237466
0.00228772
0.00220083
0.002114
0.00202721
0.00194048
0.0018538
0.00176717
0.00168059
0.00159406
0.00150759
0.00142116
0.00133477
0.00124843
0.00116214
0.00107588
0.000989663
0.000903481
0.000817333
0.000731214
0.000645123
0.000559056
0.000473011
0.000386984
0.000300972
0.000214971
0.00012898
4.29926e-05
5.64366e-05
0.000169312
0.000282195
0.000395091
0.000508003
0.000620937
0.000733898
0.00084689
0.000959918
0.00107299
0.0011861
0.00129926
0.00141248
0.00152575
0.00163909
0.00175249
0.00186595
0.00197949
0.00209311
0.0022068
0.00232058
0.00243444
0.00254838
0.00266241
0.00277653
0.00289074
0.00300505
0.00311944
0.00323393
0.00334851
0.00346319
0.00357795
0.00369281
0.00380775
0.00392278
0.0040379
0.00415309
0.00426837
0.00438371
0.00449913
0.00461461
0.00473015
0.00484574
0.00496137
0.00507704
0.00519274
0.00530845
0.00542418
0.0055399
0.00565561
0.0057713
0.00588695
0.00600255
0.00611808
0.00623353
0.00634888
0.00646412
0.00657923
0.00669418
0.00680896
0.00692355
0.00703792
0.00715205
0.00726592
0.00737951
0.00749278
0.0076057
0.00771826
0.00783042
0.00794215
0.00805341
0.00816419
0.00827443
0.00838411
0.00849319
0.00860164
0.00870941
0.00881646
0.00892276
0.00902827
0.00913293
0.00923671
0.00933957
0.00944145
0.00954231
0.00964211
0.00974079
0.00983831
0.00993461
0.0100297
0.0101234
0.0102157
0.0103067
0.0103961
0.0104841
0.0105704
0.0106552
0.0107382
0.0108195
0.010899
0.0109767
0.0110525
0.0111263
0.0111981
0.0112678
0.0113354
0.0114009
0.0114641
0.0115251
0.0115838
0.0116401
0.011694
0.0117454
0.0117943
0.0118407
0.0118846
0.0119258
0.0119643
0.0120002
0.0120333
0.0120637
0.0120912
0.012116
0.0121379
0.012157
0.0121732
0.0121865
0.0121969
0.0122044
0.0122089
0.0122105
0.0122091
0.0122048
0.0121976
0.0121874
0.0121742
0.0121582
0.0121392
0.0121173
0.0120926
0.012065
0.0120345
0.0120012
0.0119651
0.0119263
0.0118847
0.0118404
0.0117934
0.0117438
0.0116916
0.0116369
0.0115797
0.01152
0.0114578
0.0113933
0.0113265
0.0112574
0.011186
0.0111125
0.0110369
0.0109591
0.0108794
0.0107977
0.010714
0.0106285
0.0105412
0.0104521
0.0103614
0.0102689
0.0101749
0.0100794
0.00998235
0.00988388
0.00978403
0.00968285
0.0095804
0.00947671
0.00937185
0.00926586
0.00915879
0.00905069
0.0089416
0.00883157
0.00872065
0.00860888
0.0084963
0.00838296
0.00826889
0.00815413
0.00803873
0.00792272
0.00780613
0.00768901
0.00757138
0.00745329
0.00733475
0.00721581
0.00709649
0.00697682
0.00685683
0.00673655
0.00661599
0.00649519
0.00637416
0.00625294
0.00613153
0.00600997
0.00588827
0.00576644
0.00564451
0.00552249
0.0054004
0.00527825
0.00515606
0.00503383
0.00491158
0.00478932
0.00466707
0.00454482
0.00442259
0.00430039
0.00417822
0.00405609
0.00393401
0.00381198
0.00369
0.00356809
0.00344624
0.00332445
0.00320274
0.00308109
0.00295952
0.00283802
0.0027166
0.00259524
0.00247397
0.00235276
0.00223162
0.00211055
0.00198955
0.00186862
0.00174775
0.00162694
0.00150618
0.00138548
0.00126483
0.00114422
0.00102366
0.000903138
0.000782649
0.00066219
0.000541756
0.000421344
0.000300948
0.000180564
6.01873e-05
7.25571e-05
0.000217675
0.000362802
0.000507944
0.000653109
0.000798302
0.000943529
0.0010888
0.00123411
0.00137948
0.0015249
0.00167039
0.00181594
0.00196157
0.00210728
0.00225308
0.00239896
0.00254493
0.00269101
0.00283718
0.00298346
0.00312984
0.00327634
0.00342295
0.00356967
0.00371651
0.00386347
0.00401055
0.00415775
0.00430507
0.00445251
0.00460007
0.00474774
0.00489553
0.00504343
0.00519144
0.00533956
0.00548777
0.00563608
0.00578449
0.00593297
0.00608153
0.00623015
0.00637884
0.00652757
0.00667634
0.00682513
0.00697394
0.00712275
0.00727154
0.00742031
0.00756902
0.00771767
0.00786624
0.00801471
0.00816305
0.00831124
0.00845927
0.0086071
0.00875471
0.00890207
0.00904916
0.00919595
0.00934239
0.00948847
0.00963415
0.00977939
0.00992416
0.0100684
0.0102121
0.0103552
0.0104977
0.0106395
0.0107806
0.0109209
0.0110604
0.011199
0.0113367
0.0114735
0.0116092
0.0117439
0.0118774
0.0120097
0.0121408
0.0122705
0.0123989
0.0125259
0.0126513
0.0127752
0.0128975
0.0130181
0.0131369
0.013254
0.0133691
0.0134822
0.0135934
0.0137024
0.0138093
0.0139139
0.0140162
0.0141162
0.0142137
0.0143086
0.014401
0.0144908
0.0145778
0.0146621
0.0147435
0.014822
0.0148975
0.0149699
0.0150393
0.0151055
0.0151685
0.0152282
0.0152846
0.0153377
0.0153873
0.0154334
0.0154761
0.0155152
0.0155507
0.0155826
0.0156108
0.0156354
0.0156562
0.0156734
0.0156867
0.0156964
0.0157022
0.0157042
0.0157025
0.015697
0.0156876
0.0156745
0.0156576
0.0156369
0.0156125
0.0155844
0.0155525
0.015517
0.0154777
0.0154349
0.0153884
0.0153384
0.0152849
0.0152279
0.0151675
0.0151037
0.0150365
0.0149661
0.0148924
0.0148155
0.0147356
0.0146526
0.0145665
0.0144776
0.0143858
0.0142912
0.0141938
0.0140938
0.0139911
0.013886
0.0137784
0.0136683
0.013556
0.0134414
0.0133246
0.0132057
0.0130847
0.0129618
0.0128369
0.0127102
0.0125818
0.0124516
0.0123198
0.0121864
0.0120515
0.0119151
0.0117774
0.0116383
0.011498
0.0113564
0.0112137
0.0110699
0.0109251
0.0107793
0.0106326
0.010485
0.0103366
0.0101873
0.0100374
0.00988673
0.00973544
0.00958355
0.0094311
0.00927812
0.00912466
0.00897075
0.00881643
0.00866174
0.0085067
0.00835134
0.0081957
0.0080398
0.00788368
0.00772735
0.00757084
0.00741418
0.00725738
0.00710048
0.00694348
0.0067864
0.00662927
0.0064721
0.00631491
0.0061577
0.0060005
0.00584331
0.00568614
0.00552901
0.00537193
0.00521489
0.00505792
0.00490102
0.00474419
0.00458743
0.00443076
0.00427418
0.00411769
0.00396128
0.00380498
0.00364876
0.00349264
0.00333662
0.00318069
0.00302485
0.00286911
0.00271345
0.00255789
0.0024024
0.002247
0.00209168
0.00193643
0.00178124
0.00162613
0.00147107
0.00131607
0.00116112
0.00100621
0.000851343
0.000696508
0.0005417
0.000386913
0.000232142
7.73796e-05
8.86745e-05
0.000266027
0.000443392
0.000620776
0.000798187
0.000975632
0.00115312
0.00133066
0.00150825
0.00168591
0.00186364
0.00204144
0.00221934
0.00239732
0.0025754
0.00275358
0.00293187
0.00311028
0.0032888
0.00346745
0.00364623
0.00382514
0.00400418
0.00418337
0.00436269
0.00454216
0.00472178
0.00490154
0.00508145
0.00526151
0.00544171
0.00562206
0.00580256
0.00598319
0.00616397
0.00634488
0.00652592
0.00670708
0.00688836
0.00706976
0.00725125
0.00743284
0.00761451
0.00779626
0.00797806
0.00815992
0.0083418
0.00852371
0.00870561
0.0088875
0.00906936
0.00925116
0.00943288
0.0096145
0.009796
0.00997735
0.0101585
0.0103395
0.0105202
0.0107007
0.0108809
0.0110607
0.0112402
0.0114192
0.0115978
0.011776
0.0119536
0.0121306
0.012307
0.0124827
0.0126577
0.0128319
0.0130053
0.0131779
0.0133494
0.01352
0.0136896
0.013858
0.0140252
0.0141912
0.0143559
0.0145192
0.014681
0.0148414
0.0150001
0.0151571
0.0153124
0.0154659
0.0156175
0.0157671
0.0159146
0.01606
0.0162031
0.016344
0.0164824
0.0166184
0.0167518
0.0168826
0.0170106
0.0171358
0.0172581
0.0173774
0.0174936
0.0176067
0.0177165
0.017823
0.0179261
0.0180257
0.0181218
0.0182142
0.0183029
0.0183878
0.0184688
0.0185459
0.018619
0.0186881
0.018753
0.0188137
0.0188702
0.0189224
0.0189703
0.0190138
0.0190528
0.0190874
0.0191175
0.019143
0.019164
0.0191803
0.0191921
0.0191993
0.0192018
0.0191997
0.0191929
0.0191815
0.0191654
0.0191447
0.0191195
0.0190896
0.0190551
0.0190161
0.0189726
0.0189246
0.0188722
0.0188153
0.0187541
0.0186886
0.0186189
0.0185449
0.0184668
0.0183846
0.0182984
0.0182083
0.0181142
0.0180164
0.0179148
0.0178095
0.0177007
0.0175883
0.0174725
0.0173534
0.017231
0.0171055
0.0169768
0.0168451
0.0167105
0.016573
0.0164328
0.0162899
0.0161444
0.0159964
0.015846
0.0156933
0.0155383
0.0153812
0.0152219
0.0150607
0.0148975
0.0147325
0.0145657
0.0143972
0.0142272
0.0140555
0.0138824
0.0137079
0.0135321
0.0133549
0.0131766
0.0129972
0.0128167
0.0126352
0.0124527
0.0122693
0.0120851
0.0119001
0.0117144
0.011528
0.0113409
0.0111533
0.0109651
0.0107764
0.0105873
0.0103977
0.0102078
0.0100175
0.00982689
0.00963602
0.0094449
0.00925357
0.00906205
0.00887037
0.00867855
0.00848663
0.00829461
0.00810253
0.0079104
0.00771825
0.00752608
0.00733391
0.00714177
0.00694966
0.00675759
0.00656558
0.00637364
0.00618177
0.00598999
0.00579829
0.0056067
0.0054152
0.00522382
0.00503254
0.00484138
0.00465034
0.00445941
0.00426859
0.0040779
0.00388732
0.00369686
0.00350651
0.00331627
0.00312613
0.00293611
0.00274618
0.00255634
0.0023666
0.00217695
0.00198737
0.00179786
0.00160843
0.00141905
0.00122974
0.00104046
0.000851232
0.000662035
0.000472863
0.00028371
9.45689e-05
0.000104788
0.000314368
0.000523963
0.00073358
0.000943229
0.00115292
0.00136266
0.00157246
0.00178233
0.00199227
0.0022023
0.00241242
0.00262264
0.00283296
0.00304341
0.00325397
0.00346467
0.0036755
0.00388647
0.00409759
0.00430886
0.00452029
0.00473189
0.00494364
0.00515557
0.00536766
0.00557993
0.00579238
0.006005
0.0062178
0.00643077
0.00664391
0.00685723
0.00707072
0.00728437
0.00749819
0.00771216
0.00792627
0.00814053
0.00835492
0.00856944
0.00878407
0.0089988
0.00921362
0.00942851
0.00964346
0.00985845
0.0100735
0.0102885
0.0105035
0.0107185
0.0109334
0.0111482
0.0113629
0.0115774
0.0117918
0.012006
0.01222
0.0124336
0.012647
0.01286
0.0130726
0.0132848
0.0134965
0.0137077
0.0139183
0.0141283
0.0143376
0.0145462
0.014754
0.0149609
0.0151669
0.015372
0.015576
0.015779
0.0159807
0.0161812
0.0163804
0.0165782
0.0167746
0.0169693
0.0171625
0.0173539
0.0175436
0.0177313
0.0179171
0.0181008
0.0182824
0.0184617
0.0186387
0.0188132
0.0189852
0.0191546
0.0193213
0.0194851
0.019646
0.0198038
0.0199586
0.0201101
0.0202582
0.020403
0.0205442
0.0206817
0.0208155
0.0209455
0.0210716
0.0211936
0.0213115
0.0214252
0.0215346
0.0216396
0.0217401
0.0218361
0.0219274
0.0220139
0.0220957
0.0221725
0.0222444
0.0223113
0.0223731
0.0224298
0.0224813
0.0225275
0.0225685
0.0226041
0.0226343
0.0226591
0.0226785
0.0226925
0.022701
0.022704
0.0227015
0.0226935
0.02268
0.022661
0.0226365
0.0226066
0.0225712
0.0225304
0.0224843
0.0224328
0.0223759
0.0223139
0.0222466
0.0221742
0.0220966
0.022014
0.0219265
0.021834
0.0217368
0.0216347
0.021528
0.0214167
0.0213009
0.0211807
0.0210561
0.0209273
0.0207943
0.0206573
0.0205163
0.0203715
0.0202229
0.0200706
0.0199148
0.0197555
0.0195928
0.0194269
0.0192578
0.0190857
0.0189106
0.0187327
0.018552
0.0183686
0.0181827
0.0179943
0.0178036
0.0176105
0.0174153
0.017218
0.0170188
0.0168176
0.0166145
0.0164098
0.0162034
0.0159954
0.015786
0.0155751
0.0153629
0.0151494
0.0149347
0.0147189
0.0145021
0.0142843
0.0140655
0.0138459
0.0136255
0.0134043
0.0131824
0.0129599
0.0127369
0.0125132
0.0122891
0.0120646
0.0118396
0.0116143
0.0113886
0.0111627
0.0109365
0.0107101
0.0104835
0.0102567
0.0100299
0.00980289
0.00957584
0.00934873
0.0091216
0.00889445
0.00866731
0.0084402
0.00821313
0.00798612
0.00775917
0.00753231
0.00730553
0.00707886
0.0068523
0.00662586
0.00639954
0.00617335
0.00594729
0.00572136
0.00549558
0.00526993
0.00504443
0.00481906
0.00459384
0.00436875
0.0041438
0.00391897
0.00369428
0.00346971
0.00324526
0.00302092
0.00279669
0.00257257
0.00234853
0.00212459
0.00190073
0.00167694
0.00145321
0.00122954
0.00100592
0.000782343
0.000558794
0.000335268
0.000111754
0.000120897
0.000362696
0.000604511
0.000846352
0.00108823
0.00133016
0.00157214
0.00181419
0.00205633
0.00229854
0.00254086
0.00278329
0.00302583
0.00326849
0.00351129
0.00375424
0.00399733
0.00424058
0.00448399
0.00472758
0.00497134
0.00521529
0.00545942
0.00570375
0.00594827
0.00619299
0.00643792
0.00668304
0.00692837
0.00717391
0.00741965
0.00766559
0.00791174
0.00815808
0.00840461
0.00865134
0.00889824
0.00914532
0.00939256
0.00963997
0.00988751
0.0101352
0.010383
0.0106309
0.0108789
0.011127
0.0113751
0.0116232
0.0118714
0.0121195
0.0123676
0.0126157
0.0128636
0.0131114
0.0133591
0.0136065
0.0138537
0.0141007
0.0143473
0.0145936
0.0148395
0.015085
0.0153299
0.0155743
0.0158181
0.0160613
0.0163037
0.0165454
0.0167862
0.0170261
0.017265
0.0175029
0.0177397
0.0179753
0.0182097
0.0184426
0.0186742
0.0189042
0.0191327
0.0193594
0.0195844
0.0198075
0.0200286
0.0202477
0.0204645
0.0206791
0.0208914
0.0211011
0.0213083
0.0215127
0.0217144
0.0219131
0.0221088
0.0223014
0.0224907
0.0226766
0.022859
0.0230378
0.0232129
0.0233841
0.0235514
0.0237146
0.0238736
0.0240282
0.0241785
0.0243242
0.0244653
0.0246016
0.024733
0.0248595
0.0249808
0.025097
0.025208
0.0253135
0.0254136
0.0255081
0.025597
0.0256801
0.0257575
0.025829
0.0258945
0.025954
0.0260075
0.0260549
0.0260961
0.026131
0.0261598
0.0261822
0.0261984
0.0262082
0.0262116
0.0262088
0.0261995
0.0261839
0.026162
0.0261337
0.0260991
0.0260582
0.0260111
0.0259577
0.0258982
0.0258325
0.0257608
0.025683
0.0255993
0.0255096
0.0254142
0.025313
0.0252061
0.0250937
0.0249757
0.0248524
0.0247237
0.0245899
0.0244509
0.0243069
0.024158
0.0240043
0.023846
0.023683
0.0235157
0.0233439
0.023168
0.0229879
0.0228038
0.0226159
0.0224242
0.0222288
0.0220299
0.0218276
0.021622
0.0214133
0.0212014
0.0209867
0.020769
0.0205487
0.0203257
0.0201002
0.0198724
0.0196422
0.0194098
0.0191753
0.0189388
0.0187005
0.0184603
0.0182184
0.0179749
0.0177298
0.0174833
0.0172354
0.0169862
0.0167359
0.0164843
0.0162318
0.0159782
0.0157237
0.0154684
0.0152122
0.0149554
0.0146978
0.0144397
0.014181
0.0139217
0.0136621
0.013402
0.0131415
0.0128807
0.0126196
0.0123583
0.0120968
0.0118351
0.0115732
0.0113112
0.0110492
0.0107871
0.010525
0.0102628
0.0100007
0.00973859
0.00947655
0.00921457
0.00895268
0.00869088
0.0084292
0.00816763
0.00790619
0.0076449
0.00738374
0.00712274
0.00686189
0.00660121
0.00634068
0.00608032
0.00582012
0.00556009
0.00530022
0.00504051
0.00478095
0.00452155
0.0042623
0.00400319
0.00374423
0.00348539
0.00322668
0.00296809
0.00270961
0.00245124
0.00219295
0.00193475
0.00167663
0.00141857
0.00116057
0.00090262
0.000644703
0.000386811
0.000128935
0.000137
0.000411007
0.000685032
0.000959087
0.00123318
0.00150734
0.00178155
0.00205585
0.00233024
0.00260472
0.00287932
0.00315404
0.00342889
0.00370389
0.00397904
0.00425435
0.00452983
0.00480549
0.00508134
0.00535739
0.00563364
0.00591009
0.00618677
0.00646366
0.00674077
0.00701812
0.00729569
0.0075735
0.00785154
0.00812982
0.00840833
0.00868707
0.00896604
0.00924524
0.00952466
0.0098043
0.0100841
0.0103642
0.0106444
0.0109249
0.0112055
0.0114862
0.0117671
0.0120481
0.0123292
0.0126104
0.0128917
0.013173
0.0134543
0.0137356
0.0140169
0.014298
0.0145791
0.0148601
0.0151409
0.0154214
0.0157017
0.0159817
0.0162614
0.0165407
0.0168195
0.0170978
0.0173756
0.0176527
0.0179292
0.0182049
0.0184799
0.018754
0.0190271
0.0192992
0.0195702
0.01984
0.0201086
0.0203759
0.0206417
0.020906
0.0211687
0.0214297
0.0216888
0.0219461
0.0222013
0.0224544
0.0227053
0.0229539
0.0232
0.0234435
0.0236844
0.0239224
0.0241575
0.0243896
0.0246185
0.0248441
0.0250662
0.0252848
0.0254996
0.0257107
0.0259178
0.0261208
0.0263195
0.026514
0.0267039
0.0268892
0.0270697
0.0272454
0.027416
0.0275815
0.0277417
0.0278965
0.0280458
0.0281894
0.0283273
0.0284592
0.0285852
0.0287051
0.0288188
0.0289262
0.0290272
0.0291216
0.0292095
0.0292907
0.0293652
0.0294329
0.0294936
0.0295474
0.0295942
0.029634
0.0296667
0.0296922
0.0297105
0.0297217
0.0297257
0.0297224
0.0297119
0.0296942
0.0296693
0.0296372
0.029598
0.0295515
0.029498
0.0294374
0.0293698
0.0292952
0.0292137
0.0291254
0.0290303
0.0289285
0.0288201
0.0287051
0.0285838
0.0284561
0.0283221
0.028182
0.0280359
0.0278839
0.0277261
0.0275626
0.0273935
0.0272191
0.0270392
0.0268542
0.0266642
0.0264692
0.0262695
0.026065
0.0258561
0.0256427
0.0254251
0.0252033
0.0249776
0.0247479
0.0245146
0.0242777
0.0240372
0.0237935
0.0235465
0.0232964
0.0230434
0.0227876
0.022529
0.0222678
0.0220041
0.0217381
0.0214698
0.0211993
0.0209269
0.0206524
0.0203762
0.0200982
0.0198186
0.0195374
0.0192547
0.0189708
0.0186855
0.018399
0.0181114
0.0178228
0.0175332
0.0172428
0.0169515
0.0166594
0.0163667
0.0160733
0.0157794
0.0154849
0.01519
0.0148947
0.014599
0.014303
0.0140067
0.0137102
0.0134135
0.0131167
0.0128197
0.0125226
0.0122255
0.0119283
0.0116312
0.011334
0.0110369
0.0107399
0.0104429
0.0101461
0.00984935
0.00955274
0.00925627
0.00895995
0.00866379
0.0083678
0.00807198
0.00777634
0.00748089
0.00718562
0.00689054
0.00659565
0.00630095
0.00600644
0.00571211
0.00541796
0.00512398
0.00483018
0.00453654
0.00424306
0.00394974
0.00365655
0.00336351
0.00307059
0.00277779
0.00248509
0.00219249
0.00189998
0.00160755
0.00131518
0.00102286
0.000730586
0.000438339
0.000146111
0.000153098
0.000459299
0.000765522
0.00107178
0.00137808
0.00168445
0.00199089
0.00229742
0.00260404
0.00291079
0.00321765
0.00352466
0.00383181
0.00413913
0.00444662
0.00475429
0.00506215
0.00537022
0.0056785
0.005987
0.00629572
0.00660468
0.00691389
0.00722334
0.00753305
0.00784301
0.00815323
0.00846372
0.00877447
0.00908549
0.00939677
0.00970831
0.0100201
0.0103322
0.0106445
0.0109571
0.0112699
0.0115829
0.0118961
0.0122096
0.0125232
0.0128371
0.013151
0.0134652
0.0137794
0.0140938
0.0144082
0.0147227
0.0150372
0.0153517
0.0156662
0.0159805
0.0162948
0.0166089
0.0169229
0.0172366
0.01755
0.0178631
0.0181758
0.0184881
0.0187999
0.0191112
0.0194218
0.0197318
0.020041
0.0203494
0.0206569
0.0209635
0.021269
0.0215734
0.0218765
0.0221784
0.0224789
0.0227779
0.0230752
0.023371
0.0236649
0.0239569
0.0242469
0.0245347
0.0248204
0.0251036
0.0253844
0.0256626
0.0259381
0.0262106
0.0264802
0.0267467
0.0270099
0.0272696
0.0275259
0.0277784
0.0280271
0.0282718
0.0285124
0.0287487
0.0289806
0.029208
0.0294306
0.0296483
0.029861
0.0300685
0.0302708
0.0304675
0.0306586
0.030844
0.0310235
0.0311969
0.0313641
0.0315251
0.0316795
0.0318274
0.0319686
0.032103
0.0322303
0.0323507
0.0324638
0.0325697
0.0326682
0.0327593
0.0328427
0.0329186
0.0329867
0.033047
0.0330995
0.0331441
0.0331807
0.0332093
0.0332299
0.0332424
0.0332469
0.0332433
0.0332316
0.0332118
0.0331839
0.0331479
0.0331039
0.0330519
0.032992
0.0329241
0.0328483
0.0327648
0.0326735
0.0325745
0.032468
0.0323539
0.0322325
0.0321037
0.0319678
0.0318247
0.0316746
0.0315177
0.0313541
0.0311838
0.031007
0.0308239
0.0306345
0.0304391
0.0302377
0.0300305
0.0298177
0.0295993
0.0293756
0.0291467
0.0289127
0.0286738
0.0284301
0.0281818
0.0279291
0.027672
0.0274108
0.0271455
0.0268764
0.0266035
0.0263271
0.0260472
0.025764
0.0254776
0.0251882
0.0248959
0.0246008
0.0243031
0.0240029
0.0237003
0.0233954
0.0230883
0.0227792
0.0224682
0.0221554
0.0218408
0.0215246
0.0212069
0.0208878
0.0205674
0.0202457
0.0199229
0.019599
0.0192741
0.0189483
0.0186217
0.0182943
0.0179663
0.0176376
0.0173083
0.0169785
0.0166483
0.0163176
0.0159867
0.0156554
0.0153239
0.0149921
0.0146602
0.0143282
0.0139961
0.0136639
0.0133317
0.0129995
0.0126673
0.0123352
0.0120032
0.0116712
0.0113394
0.0110077
0.0106761
0.0103448
0.0100135
0.00968252
0.00935168
0.00902104
0.00869061
0.00836039
0.00803038
0.00770058
0.007371
0.00704163
0.00671247
0.00638353
0.00605478
0.00572624
0.00539789
0.00506973
0.00474175
0.00441394
0.00408629
0.0037588
0.00343145
0.00310423
0.00277713
0.00245015
0.00212326
0.00179646
0.00146973
0.00114306
0.000816439
0.00048985
0.000163281
0.000169188
0.000507572
0.000845978
0.00118442
0.00152292
0.00186149
0.00220014
0.00253888
0.00287774
0.00321672
0.00355585
0.00389513
0.00423457
0.0045742
0.00491401
0.00525403
0.00559427
0.00593473
0.00627543
0.00661637
0.00695757
0.00729903
0.00764076
0.00798277
0.00832506
0.00866764
0.00901051
0.00935367
0.00969713
0.0100409
0.0103849
0.0107293
0.0110739
0.0114189
0.0117641
0.0121096
0.0124553
0.0128013
0.0131476
0.0134941
0.0138408
0.0141878
0.0145349
0.0148821
0.0152295
0.0155771
0.0159247
0.0162724
0.0166201
0.0169678
0.0173155
0.0176631
0.0180106
0.018358
0.0187051
0.019052
0.0193986
0.0197449
0.0200907
0.0204361
0.0207809
0.0211252
0.0214688
0.0218116
0.0221536
0.0224948
0.0228349
0.0231741
0.023512
0.0238488
0.0241842
0.0245182
0.0248506
0.0251814
0.0255105
0.0258377
0.0261629
0.0264861
0.026807
0.0271256
0.0274418
0.0277553
0.0280661
0.028374
0.028679
0.0289807
0.0292792
0.0295742
0.0298656
0.0301532
0.0304369
0.0307166
0.030992
0.031263
0.0315295
0.0317912
0.0320481
0.0322999
0.0325465
0.0327877
0.0330233
0.0332532
0.0334773
0.0336953
0.033907
0.0341124
0.0343113
0.0345035
0.0346888
0.0348672
0.0350384
0.0352023
0.0353588
0.0355077
0.0356489
0.0357823
0.0359078
0.0360252
0.0361344
0.0362353
0.0363279
0.036412
0.0364875
0.0365544
0.0366126
0.0366621
0.0367027
0.0367345
0.0367573
0.0367713
0.0367762
0.0367723
0.0367593
0.0367374
0.0367065
0.0366667
0.0366179
0.0365603
0.0364939
0.0364186
0.0363347
0.0362421
0.0361409
0.0360312
0.0359132
0.0357868
0.0356522
0.0355095
0.0353588
0.0352003
0.035034
0.0348602
0.0346788
0.0344901
0.0342943
0.0340914
0.0338816
0.033665
0.0334419
0.0332124
0.0329766
0.0327348
0.032487
0.0322334
0.0319742
0.0317096
0.0314398
0.0311648
0.0308849
0.0306002
0.0303109
0.0300172
0.0297192
0.0294171
0.0291111
0.0288012
0.0284877
0.0281707
0.0278503
0.0275268
0.0272002
0.0268707
0.0265384
0.0262035
0.025866
0.0255262
0.0251842
0.02484
0.0244939
0.0241458
0.023796
0.0234445
0.0230915
0.022737
0.0223811
0.022024
0.0216657
0.0213064
0.020946
0.0205848
0.0202227
0.0198598
0.0194963
0.0191321
0.0187674
0.0184022
0.0180366