/*--------------------------------*- C++ -*----------------------------------*\
| =========                 |                                                 |
| \\      /  F ield         | OpenFOAM: The Open Source CFD Toolbox           |
|  \\    /   O peration     | Version:  v2012                                 |
|   \\  /    A nd           | Website:  www.openfoam.com                      |
|    \\/     M anipulation  |                                                 |
\*---------------------------------------------------------------------------*/
FoamFile
{
    version     2.0;
    format      ascii;
    class       volVectorField;
    location    "2.2";
    object      Psi;
}
// * * * * * * * * * * * * * * * * * * * * * * * * * * * * * * * * * * * * * //

dimensions      [0 2 -1 0 0 0 0];


internalField   nonuniform List<vector> 
65536
(
(0 0 8.66731e-06)
(0 0 2.60013e-05)
(0 0 4.33336e-05)
(0 0 6.06632e-05)
(0 0 7.7989e-05)
(0 0 9.53098e-05)
(0 0 0.000112625)
(0 0 0.000129932)
(0 0 0.000147231)
(0 0 0.000164521)
(0 0 0.0001818)
(0 0 0.000199067)
(0 0 0.000216321)
(0 0 0.00023356)
(0 0 0.000250784)
(0 0 0.000267991)
(0 0 0.000285179)
(0 0 0.000302347)
(0 0 0.000319494)
(0 0 0.000336618)
(0 0 0.000353718)
(0 0 0.000370792)
(0 0 0.000387839)
(0 0 0.000404856)
(0 0 0.000421843)
(0 0 0.000438796)
(0 0 0.000455715)
(0 0 0.000472598)
(0 0 0.000489443)
(0 0 0.000506247)
(0 0 0.000523009)
(0 0 0.000539726)
(0 0 0.000556397)
(0 0 0.000573018)
(0 0 0.000589589)
(0 0 0.000606105)
(0 0 0.000622566)
(0 0 0.000638969)
(0 0 0.00065531)
(0 0 0.000671588)
(0 0 0.000687799)
(0 0 0.000703941)
(0 0 0.000720011)
(0 0 0.000736007)
(0 0 0.000751925)
(0 0 0.000767762)
(0 0 0.000783515)
(0 0 0.000799182)
(0 0 0.000814759)
(0 0 0.000830242)
(0 0 0.000845629)
(0 0 0.000860916)
(0 0 0.0008761)
(0 0 0.000891177)
(0 0 0.000906144)
(0 0 0.000920998)
(0 0 0.000935734)
(0 0 0.00095035)
(0 0 0.000964841)
(0 0 0.000979205)
(0 0 0.000993437)
(0 0 0.00100753)
(0 0 0.00102149)
(0 0 0.0010353)
(0 0 0.00104897)
(0 0 0.00106249)
(0 0 0.00107585)
(0 0 0.00108906)
(0 0 0.0011021)
(0 0 0.00111498)
(0 0 0.00112769)
(0 0 0.00114023)
(0 0 0.00115259)
(0 0 0.00116477)
(0 0 0.00117676)
(0 0 0.00118857)
(0 0 0.00120019)
(0 0 0.00121161)
(0 0 0.00122284)
(0 0 0.00123386)
(0 0 0.00124468)
(0 0 0.00125528)
(0 0 0.00126568)
(0 0 0.00127586)
(0 0 0.00128583)
(0 0 0.00129557)
(0 0 0.00130509)
(0 0 0.00131439)
(0 0 0.00132345)
(0 0 0.00133228)
(0 0 0.00134088)
(0 0 0.00134923)
(0 0 0.00135735)
(0 0 0.00136523)
(0 0 0.00137286)
(0 0 0.00138024)
(0 0 0.00138738)
(0 0 0.00139426)
(0 0 0.0014009)
(0 0 0.00140727)
(0 0 0.0014134)
(0 0 0.00141926)
(0 0 0.00142487)
(0 0 0.00143022)
(0 0 0.0014353)
(0 0 0.00144013)
(0 0 0.00144469)
(0 0 0.00144898)
(0 0 0.00145302)
(0 0 0.00145679)
(0 0 0.00146029)
(0 0 0.00146353)
(0 0 0.0014665)
(0 0 0.0014692)
(0 0 0.00147164)
(0 0 0.00147382)
(0 0 0.00147573)
(0 0 0.00147737)
(0 0 0.00147875)
(0 0 0.00147986)
(0 0 0.00148071)
(0 0 0.00148129)
(0 0 0.00148162)
(0 0 0.00148168)
(0 0 0.00148148)
(0 0 0.00148102)
(0 0 0.0014803)
(0 0 0.00147933)
(0 0 0.0014781)
(0 0 0.00147661)
(0 0 0.00147487)
(0 0 0.00147288)
(0 0 0.00147064)
(0 0 0.00146815)
(0 0 0.00146541)
(0 0 0.00146243)
(0 0 0.0014592)
(0 0 0.00145573)
(0 0 0.00145202)
(0 0 0.00144807)
(0 0 0.00144389)
(0 0 0.00143947)
(0 0 0.00143482)
(0 0 0.00142993)
(0 0 0.00142482)
(0 0 0.00141949)
(0 0 0.00141393)
(0 0 0.00140814)
(0 0 0.00140214)
(0 0 0.00139592)
(0 0 0.00138949)
(0 0 0.00138285)
(0 0 0.00137599)
(0 0 0.00136892)
(0 0 0.00136165)
(0 0 0.00135418)
(0 0 0.00134651)
(0 0 0.00133864)
(0 0 0.00133057)
(0 0 0.00132231)
(0 0 0.00131386)
(0 0 0.00130522)
(0 0 0.0012964)
(0 0 0.00128739)
(0 0 0.0012782)
(0 0 0.00126883)
(0 0 0.00125929)
(0 0 0.00124958)
(0 0 0.0012397)
(0 0 0.00122965)
(0 0 0.00121943)
(0 0 0.00120905)
(0 0 0.00119852)
(0 0 0.00118782)
(0 0 0.00117698)
(0 0 0.00116598)
(0 0 0.00115483)
(0 0 0.00114354)
(0 0 0.0011321)
(0 0 0.00112052)
(0 0 0.00110881)
(0 0 0.00109696)
(0 0 0.00108498)
(0 0 0.00107286)
(0 0 0.00106063)
(0 0 0.00104826)
(0 0 0.00103578)
(0 0 0.00102317)
(0 0 0.00101045)
(0 0 0.000997612)
(0 0 0.000984665)
(0 0 0.000971609)
(0 0 0.000958447)
(0 0 0.000945181)
(0 0 0.000931814)
(0 0 0.000918348)
(0 0 0.000904787)
(0 0 0.000891131)
(0 0 0.000877385)
(0 0 0.000863549)
(0 0 0.000849628)
(0 0 0.000835622)
(0 0 0.000821535)
(0 0 0.000807368)
(0 0 0.000793124)
(0 0 0.000778806)
(0 0 0.000764415)
(0 0 0.000749954)
(0 0 0.000735425)
(0 0 0.000720829)
(0 0 0.00070617)
(0 0 0.000691449)
(0 0 0.000676669)
(0 0 0.00066183)
(0 0 0.000646936)
(0 0 0.000631988)
(0 0 0.000616988)
(0 0 0.000601937)
(0 0 0.000586839)
(0 0 0.000571694)
(0 0 0.000556504)
(0 0 0.000541272)
(0 0 0.000525998)
(0 0 0.000510684)
(0 0 0.000495333)
(0 0 0.000479944)
(0 0 0.000464521)
(0 0 0.000449065)
(0 0 0.000433577)
(0 0 0.000418058)
(0 0 0.00040251)
(0 0 0.000386934)
(0 0 0.000371332)
(0 0 0.000355705)
(0 0 0.000340055)
(0 0 0.000324382)
(0 0 0.000308687)
(0 0 0.000292973)
(0 0 0.00027724)
(0 0 0.000261489)
(0 0 0.000245722)
(0 0 0.000229939)
(0 0 0.000214142)
(0 0 0.000198331)
(0 0 0.000182509)
(0 0 0.000166675)
(0 0 0.000150832)
(0 0 0.000134979)
(0 0 0.000119118)
(0 0 0.00010325)
(0 0 8.73756e-05)
(0 0 7.14962e-05)
(0 0 5.56125e-05)
(0 0 3.97256e-05)
(0 0 2.38363e-05)
(0 0 7.94558e-06)
(0 0 2.60023e-05)
(0 0 7.80052e-05)
(0 0 0.000130003)
(0 0 0.000181993)
(0 0 0.000233971)
(0 0 0.000285935)
(0 0 0.00033788)
(0 0 0.000389804)
(0 0 0.000441703)
(0 0 0.000493573)
(0 0 0.000545411)
(0 0 0.000597213)
(0 0 0.000648976)
(0 0 0.000700695)
(0 0 0.000752368)
(0 0 0.000803989)
(0 0 0.000855555)
(0 0 0.000907061)
(0 0 0.000958503)
(0 0 0.00100988)
(0 0 0.00106118)
(0 0 0.0011124)
(0 0 0.00116354)
(0 0 0.0012146)
(0 0 0.00126556)
(0 0 0.00131642)
(0 0 0.00136718)
(0 0 0.00141783)
(0 0 0.00146837)
(0 0 0.00151878)
(0 0 0.00156907)
(0 0 0.00161922)
(0 0 0.00166924)
(0 0 0.0017191)
(0 0 0.00176882)
(0 0 0.00181837)
(0 0 0.00186775)
(0 0 0.00191696)
(0 0 0.00196599)
(0 0 0.00201483)
(0 0 0.00206346)
(0 0 0.00211189)
(0 0 0.0021601)
(0 0 0.00220809)
(0 0 0.00225585)
(0 0 0.00230337)
(0 0 0.00235063)
(0 0 0.00239763)
(0 0 0.00244436)
(0 0 0.00249082)
(0 0 0.00253698)
(0 0 0.00258285)
(0 0 0.0026284)
(0 0 0.00267364)
(0 0 0.00271854)
(0 0 0.00276311)
(0 0 0.00280732)
(0 0 0.00285117)
(0 0 0.00289465)
(0 0 0.00293774)
(0 0 0.00298044)
(0 0 0.00302273)
(0 0 0.00306461)
(0 0 0.00310606)
(0 0 0.00314706)
(0 0 0.00318762)
(0 0 0.00322771)
(0 0 0.00326734)
(0 0 0.00330647)
(0 0 0.00334511)
(0 0 0.00338324)
(0 0 0.00342086)
(0 0 0.00345794)
(0 0 0.00349448)
(0 0 0.00353047)
(0 0 0.0035659)
(0 0 0.00360076)
(0 0 0.00363503)
(0 0 0.0036687)
(0 0 0.00370177)
(0 0 0.00373423)
(0 0 0.00376606)
(0 0 0.00379726)
(0 0 0.00382781)
(0 0 0.0038577)
(0 0 0.00388694)
(0 0 0.0039155)
(0 0 0.00394338)
(0 0 0.00397057)
(0 0 0.00399707)
(0 0 0.00402286)
(0 0 0.00404794)
(0 0 0.00407229)
(0 0 0.00409592)
(0 0 0.00411882)
(0 0 0.00414097)
(0 0 0.00416238)
(0 0 0.00418304)
(0 0 0.00420294)
(0 0 0.00422207)
(0 0 0.00424044)
(0 0 0.00425804)
(0 0 0.00427486)
(0 0 0.0042909)
(0 0 0.00430616)
(0 0 0.00432063)
(0 0 0.00433432)
(0 0 0.00434721)
(0 0 0.00435931)
(0 0 0.00437062)
(0 0 0.00438113)
(0 0 0.00439084)
(0 0 0.00439976)
(0 0 0.00440788)
(0 0 0.00441519)
(0 0 0.00442172)
(0 0 0.00442744)
(0 0 0.00443237)
(0 0 0.0044365)
(0 0 0.00443984)
(0 0 0.00444239)
(0 0 0.00444414)
(0 0 0.00444511)
(0 0 0.0044453)
(0 0 0.0044447)
(0 0 0.00444332)
(0 0 0.00444117)
(0 0 0.00443824)
(0 0 0.00443455)
(0 0 0.00443009)
(0 0 0.00442487)
(0 0 0.0044189)
(0 0 0.00441217)
(0 0 0.00440469)
(0 0 0.00439648)
(0 0 0.00438753)
(0 0 0.00437784)
(0 0 0.00436743)
(0 0 0.0043563)
(0 0 0.00434445)
(0 0 0.00433189)
(0 0 0.00431863)
(0 0 0.00430468)
(0 0 0.00429003)
(0 0 0.0042747)
(0 0 0.00425869)
(0 0 0.004242)
(0 0 0.00422465)
(0 0 0.00420665)
(0 0 0.00418799)
(0 0 0.00416869)
(0 0 0.00414875)
(0 0 0.00412818)
(0 0 0.00410698)
(0 0 0.00408517)
(0 0 0.00406275)
(0 0 0.00403973)
(0 0 0.00401611)
(0 0 0.0039919)
(0 0 0.00396712)
(0 0 0.00394177)
(0 0 0.00391585)
(0 0 0.00388937)
(0 0 0.00386235)
(0 0 0.00383478)
(0 0 0.00380668)
(0 0 0.00377805)
(0 0 0.00374891)
(0 0 0.00371926)
(0 0 0.0036891)
(0 0 0.00365846)
(0 0 0.00362732)
(0 0 0.00359571)
(0 0 0.00356363)
(0 0 0.00353108)
(0 0 0.00349808)
(0 0 0.00346464)
(0 0 0.00343076)
(0 0 0.00339645)
(0 0 0.00336171)
(0 0 0.00332657)
(0 0 0.00329101)
(0 0 0.00325506)
(0 0 0.00321872)
(0 0 0.003182)
(0 0 0.00314491)
(0 0 0.00310745)
(0 0 0.00306963)
(0 0 0.00303146)
(0 0 0.00299295)
(0 0 0.00295411)
(0 0 0.00291494)
(0 0 0.00287545)
(0 0 0.00283565)
(0 0 0.00279554)
(0 0 0.00275514)
(0 0 0.00271446)
(0 0 0.00267349)
(0 0 0.00263225)
(0 0 0.00259074)
(0 0 0.00254897)
(0 0 0.00250695)
(0 0 0.00246469)
(0 0 0.00242218)
(0 0 0.00237945)
(0 0 0.00233649)
(0 0 0.00229332)
(0 0 0.00224993)
(0 0 0.00220634)
(0 0 0.00216255)
(0 0 0.00211858)
(0 0 0.00207441)
(0 0 0.00203007)
(0 0 0.00198555)
(0 0 0.00194086)
(0 0 0.00189602)
(0 0 0.00185102)
(0 0 0.00180586)
(0 0 0.00176057)
(0 0 0.00171513)
(0 0 0.00166956)
(0 0 0.00162386)
(0 0 0.00157804)
(0 0 0.00153209)
(0 0 0.00148604)
(0 0 0.00143987)
(0 0 0.0013936)
(0 0 0.00134723)
(0 0 0.00130076)
(0 0 0.0012542)
(0 0 0.00120756)
(0 0 0.00116083)
(0 0 0.00111402)
(0 0 0.00106714)
(0 0 0.00102019)
(0 0 0.000973167)
(0 0 0.000926083)
(0 0 0.000878939)
(0 0 0.000831738)
(0 0 0.000784484)
(0 0 0.000737181)
(0 0 0.000689832)
(0 0 0.000642439)
(0 0 0.000595007)
(0 0 0.000547539)
(0 0 0.000500037)
(0 0 0.000452505)
(0 0 0.000404945)
(0 0 0.000357361)
(0 0 0.000309756)
(0 0 0.000262132)
(0 0 0.000214493)
(0 0 0.000166841)
(0 0 0.000119179)
(0 0 7.15102e-05)
(0 0 2.38372e-05)
(0 0 4.3339e-05)
(0 0 0.000130014)
(0 0 0.000216681)
(0 0 0.000303334)
(0 0 0.000389969)
(0 0 0.000476578)
(0 0 0.000563157)
(0 0 0.000649701)
(0 0 0.000736203)
(0 0 0.000822657)
(0 0 0.000909058)
(0 0 0.000995399)
(0 0 0.00108167)
(0 0 0.00116788)
(0 0 0.001254)
(0 0 0.00134004)
(0 0 0.00142599)
(0 0 0.00151184)
(0 0 0.00159758)
(0 0 0.00168321)
(0 0 0.00176872)
(0 0 0.00185409)
(0 0 0.00193934)
(0 0 0.00202443)
(0 0 0.00210937)
(0 0 0.00219415)
(0 0 0.00227875)
(0 0 0.00236318)
(0 0 0.00244741)
(0 0 0.00253144)
(0 0 0.00261526)
(0 0 0.00269886)
(0 0 0.00278222)
(0 0 0.00286534)
(0 0 0.0029482)
(0 0 0.0030308)
(0 0 0.00311312)
(0 0 0.00319514)
(0 0 0.00327686)
(0 0 0.00335826)
(0 0 0.00343933)
(0 0 0.00352006)
(0 0 0.00360042)
(0 0 0.00368042)
(0 0 0.00376002)
(0 0 0.00383922)
(0 0 0.003918)
(0 0 0.00399635)
(0 0 0.00407425)
(0 0 0.00415168)
(0 0 0.00422863)
(0 0 0.00430509)
(0 0 0.00438102)
(0 0 0.00445643)
(0 0 0.00453128)
(0 0 0.00460557)
(0 0 0.00467927)
(0 0 0.00475236)
(0 0 0.00482484)
(0 0 0.00489667)
(0 0 0.00496785)
(0 0 0.00503835)
(0 0 0.00510816)
(0 0 0.00517725)
(0 0 0.00524561)
(0 0 0.00531321)
(0 0 0.00538005)
(0 0 0.0054461)
(0 0 0.00551133)
(0 0 0.00557575)
(0 0 0.00563931)
(0 0 0.00570201)
(0 0 0.00576383)
(0 0 0.00582475)
(0 0 0.00588475)
(0 0 0.0059438)
(0 0 0.00600191)
(0 0 0.00605904)
(0 0 0.00611518)
(0 0 0.00617031)
(0 0 0.00622441)
(0 0 0.00627747)
(0 0 0.00632948)
(0 0 0.00638041)
(0 0 0.00643024)
(0 0 0.00647898)
(0 0 0.00652659)
(0 0 0.00657307)
(0 0 0.0066184)
(0 0 0.00666257)
(0 0 0.00670556)
(0 0 0.00674736)
(0 0 0.00678796)
(0 0 0.00682735)
(0 0 0.00686552)
(0 0 0.00690245)
(0 0 0.00693814)
(0 0 0.00697257)
(0 0 0.00700574)
(0 0 0.00703764)
(0 0 0.00706826)
(0 0 0.00709759)
(0 0 0.00712563)
(0 0 0.00715237)
(0 0 0.00717781)
(0 0 0.00720193)
(0 0 0.00722474)
(0 0 0.00724624)
(0 0 0.00726641)
(0 0 0.00728525)
(0 0 0.00730277)
(0 0 0.00731896)
(0 0 0.00733382)
(0 0 0.00734734)
(0 0 0.00735954)
(0 0 0.00737041)
(0 0 0.00737995)
(0 0 0.00738816)
(0 0 0.00739505)
(0 0 0.00740061)
(0 0 0.00740485)
(0 0 0.00740778)
(0 0 0.00740939)
(0 0 0.0074097)
(0 0 0.0074087)
(0 0 0.0074064)
(0 0 0.00740281)
(0 0 0.00739793)
(0 0 0.00739177)
(0 0 0.00738433)
(0 0 0.00737563)
(0 0 0.00736566)
(0 0 0.00735444)
(0 0 0.00734198)
(0 0 0.00732828)
(0 0 0.00731336)
(0 0 0.00729721)
(0 0 0.00727985)
(0 0 0.00726129)
(0 0 0.00724154)
(0 0 0.0072206)
(0 0 0.0071985)
(0 0 0.00717523)
(0 0 0.00715081)
(0 0 0.00712525)
(0 0 0.00709856)
(0 0 0.00707074)
(0 0 0.00704182)
(0 0 0.0070118)
(0 0 0.0069807)
(0 0 0.00694852)
(0 0 0.00691528)
(0 0 0.00688098)
(0 0 0.00684565)
(0 0 0.00680929)
(0 0 0.00677192)
(0 0 0.00673354)
(0 0 0.00669417)
(0 0 0.00665382)
(0 0 0.0066125)
(0 0 0.00657024)
(0 0 0.00652703)
(0 0 0.00648289)
(0 0 0.00643784)
(0 0 0.00639189)
(0 0 0.00634505)
(0 0 0.00629733)
(0 0 0.00624875)
(0 0 0.00619932)
(0 0 0.00614906)
(0 0 0.00609797)
(0 0 0.00604607)
(0 0 0.00599337)
(0 0 0.00593989)
(0 0 0.00588564)
(0 0 0.00583064)
(0 0 0.00577489)
(0 0 0.00571841)
(0 0 0.00566121)
(0 0 0.00560332)
(0 0 0.00554473)
(0 0 0.00548547)
(0 0 0.00542554)
(0 0 0.00536496)
(0 0 0.00530375)
(0 0 0.00524192)
(0 0 0.00517948)
(0 0 0.00511644)
(0 0 0.00505282)
(0 0 0.00498862)
(0 0 0.00492388)
(0 0 0.00485858)
(0 0 0.00479276)
(0 0 0.00472642)
(0 0 0.00465957)
(0 0 0.00459223)
(0 0 0.00452441)
(0 0 0.00445612)
(0 0 0.00438737)
(0 0 0.00431818)
(0 0 0.00424856)
(0 0 0.00417852)
(0 0 0.00410807)
(0 0 0.00403723)
(0 0 0.003966)
(0 0 0.0038944)
(0 0 0.00382243)
(0 0 0.00375012)
(0 0 0.00367746)
(0 0 0.00360447)
(0 0 0.00353117)
(0 0 0.00345755)
(0 0 0.00338364)
(0 0 0.00330943)
(0 0 0.00323495)
(0 0 0.0031602)
(0 0 0.00308519)
(0 0 0.00300993)
(0 0 0.00293443)
(0 0 0.0028587)
(0 0 0.00278274)
(0 0 0.00270657)
(0 0 0.00263019)
(0 0 0.00255362)
(0 0 0.00247685)
(0 0 0.0023999)
(0 0 0.00232278)
(0 0 0.00224549)
(0 0 0.00216804)
(0 0 0.00209044)
(0 0 0.00201269)
(0 0 0.00193481)
(0 0 0.00185679)
(0 0 0.00177865)
(0 0 0.00170039)
(0 0 0.00162202)
(0 0 0.00154354)
(0 0 0.00146496)
(0 0 0.00138629)
(0 0 0.00130753)
(0 0 0.00122869)
(0 0 0.00114977)
(0 0 0.00107078)
(0 0 0.00099172)
(0 0 0.000912602)
(0 0 0.000833429)
(0 0 0.000754205)
(0 0 0.000674936)
(0 0 0.000595626)
(0 0 0.000516281)
(0 0 0.000436905)
(0 0 0.000357503)
(0 0 0.000278079)
(0 0 0.00019864)
(0 0 0.000119188)
(0 0 3.97303e-05)
(0 0 6.06783e-05)
(0 0 0.000182031)
(0 0 0.000303373)
(0 0 0.000424695)
(0 0 0.000545991)
(0 0 0.000667252)
(0 0 0.000788471)
(0 0 0.00090964)
(0 0 0.00103075)
(0 0 0.00115179)
(0 0 0.00127276)
(0 0 0.00139365)
(0 0 0.00151445)
(0 0 0.00163514)
(0 0 0.00175572)
(0 0 0.00187619)
(0 0 0.00199653)
(0 0 0.00211672)
(0 0 0.00223677)
(0 0 0.00235666)
(0 0 0.00247638)
(0 0 0.00259593)
(0 0 0.00271527)
(0 0 0.00283442)
(0 0 0.00295335)
(0 0 0.00307205)
(0 0 0.00319051)
(0 0 0.00330872)
(0 0 0.00342666)
(0 0 0.00354431)
(0 0 0.00366168)
(0 0 0.00377873)
(0 0 0.00389545)
(0 0 0.00401184)
(0 0 0.00412786)
(0 0 0.00424351)
(0 0 0.00435877)
(0 0 0.00447363)
(0 0 0.00458805)
(0 0 0.00470203)
(0 0 0.00481555)
(0 0 0.00492858)
(0 0 0.00504112)
(0 0 0.00515313)
(0 0 0.00526459)
(0 0 0.0053755)
(0 0 0.00548581)
(0 0 0.00559552)
(0 0 0.0057046)
(0 0 0.00581303)
(0 0 0.00592079)
(0 0 0.00602784)
(0 0 0.00613418)
(0 0 0.00623977)
(0 0 0.00634459)
(0 0 0.00644861)
(0 0 0.00655182)
(0 0 0.00665418)
(0 0 0.00675567)
(0 0 0.00685627)
(0 0 0.00695594)
(0 0 0.00705467)
(0 0 0.00715242)
(0 0 0.00724917)
(0 0 0.0073449)
(0 0 0.00743958)
(0 0 0.00753318)
(0 0 0.00762567)
(0 0 0.00771703)
(0 0 0.00780723)
(0 0 0.00789625)
(0 0 0.00798406)
(0 0 0.00807063)
(0 0 0.00815594)
(0 0 0.00823996)
(0 0 0.00832267)
(0 0 0.00840403)
(0 0 0.00848404)
(0 0 0.00856266)
(0 0 0.00863986)
(0 0 0.00871563)
(0 0 0.00878994)
(0 0 0.00886277)
(0 0 0.00893409)
(0 0 0.00900389)
(0 0 0.00907214)
(0 0 0.00913882)
(0 0 0.00920391)
(0 0 0.00926739)
(0 0 0.00932924)
(0 0 0.00938944)
(0 0 0.00944798)
(0 0 0.00950484)
(0 0 0.00956)
(0 0 0.00961345)
(0 0 0.00966517)
(0 0 0.00971515)
(0 0 0.00976337)
(0 0 0.00980982)
(0 0 0.00985449)
(0 0 0.00989737)
(0 0 0.00993844)
(0 0 0.00997771)
(0 0 0.0100152)
(0 0 0.0100508)
(0 0 0.0100845)
(0 0 0.0101165)
(0 0 0.0101466)
(0 0 0.0101748)
(0 0 0.0102012)
(0 0 0.0102257)
(0 0 0.0102484)
(0 0 0.0102692)
(0 0 0.0102881)
(0 0 0.0103052)
(0 0 0.0103204)
(0 0 0.0103338)
(0 0 0.0103453)
(0 0 0.0103549)
(0 0 0.0103627)
(0 0 0.0103686)
(0 0 0.0103727)
(0 0 0.010375)
(0 0 0.0103754)
(0 0 0.010374)
(0 0 0.0103708)
(0 0 0.0103657)
(0 0 0.0103589)
(0 0 0.0103503)
(0 0 0.0103398)
(0 0 0.0103276)
(0 0 0.0103137)
(0 0 0.010298)
(0 0 0.0102805)
(0 0 0.0102613)
(0 0 0.0102404)
(0 0 0.0102178)
(0 0 0.0101935)
(0 0 0.0101675)
(0 0 0.0101398)
(0 0 0.0101105)
(0 0 0.0100795)
(0 0 0.0100469)
(0 0 0.0100127)
(0 0 0.00997693)
(0 0 0.00993955)
(0 0 0.00990059)
(0 0 0.00986009)
(0 0 0.00981805)
(0 0 0.00977448)
(0 0 0.00972942)
(0 0 0.00968286)
(0 0 0.00963483)
(0 0 0.00958535)
(0 0 0.00953443)
(0 0 0.00948209)
(0 0 0.00942834)
(0 0 0.0093732)
(0 0 0.0093167)
(0 0 0.00925884)
(0 0 0.00919965)
(0 0 0.00913914)
(0 0 0.00907733)
(0 0 0.00901424)
(0 0 0.00894989)
(0 0 0.0088843)
(0 0 0.00881747)
(0 0 0.00874944)
(0 0 0.00868022)
(0 0 0.00860983)
(0 0 0.00853829)
(0 0 0.00846561)
(0 0 0.00839182)
(0 0 0.00831693)
(0 0 0.00824096)
(0 0 0.00816393)
(0 0 0.00808586)
(0 0 0.00800677)
(0 0 0.00792668)
(0 0 0.00784561)
(0 0 0.00776357)
(0 0 0.00768058)
(0 0 0.00759666)
(0 0 0.00751184)
(0 0 0.00742613)
(0 0 0.00733954)
(0 0 0.0072521)
(0 0 0.00716383)
(0 0 0.00707474)
(0 0 0.00698485)
(0 0 0.00689419)
(0 0 0.00680276)
(0 0 0.00671059)
(0 0 0.00661769)
(0 0 0.00652409)
(0 0 0.00642979)
(0 0 0.00633482)
(0 0 0.0062392)
(0 0 0.00614294)
(0 0 0.00604606)
(0 0 0.00594858)
(0 0 0.0058505)
(0 0 0.00575186)
(0 0 0.00565266)
(0 0 0.00555292)
(0 0 0.00545266)
(0 0 0.0053519)
(0 0 0.00525064)
(0 0 0.0051489)
(0 0 0.00504671)
(0 0 0.00494406)
(0 0 0.00484099)
(0 0 0.00473749)
(0 0 0.0046336)
(0 0 0.00452931)
(0 0 0.00442465)
(0 0 0.00431962)
(0 0 0.00421424)
(0 0 0.00410853)
(0 0 0.00400249)
(0 0 0.00389614)
(0 0 0.00378949)
(0 0 0.00368255)
(0 0 0.00357533)
(0 0 0.00346784)
(0 0 0.0033601)
(0 0 0.00325212)
(0 0 0.00314391)
(0 0 0.00303547)
(0 0 0.00292682)
(0 0 0.00281796)
(0 0 0.00270891)
(0 0 0.00259968)
(0 0 0.00249027)
(0 0 0.0023807)
(0 0 0.00227097)
(0 0 0.00216109)
(0 0 0.00205108)
(0 0 0.00194093)
(0 0 0.00183066)
(0 0 0.00172027)
(0 0 0.00160977)
(0 0 0.00149918)
(0 0 0.00138849)
(0 0 0.00127772)
(0 0 0.00116687)
(0 0 0.00105595)
(0 0 0.000944967)
(0 0 0.000833926)
(0 0 0.000722836)
(0 0 0.000611703)
(0 0 0.000500533)
(0 0 0.000389334)
(0 0 0.000278112)
(0 0 0.000166874)
(0 0 5.56256e-05)
(0 0 7.80216e-05)
(0 0 0.00023406)
(0 0 0.000390083)
(0 0 0.000546082)
(0 0 0.000702047)
(0 0 0.000857968)
(0 0 0.00101383)
(0 0 0.00116964)
(0 0 0.00132536)
(0 0 0.00148101)
(0 0 0.00163655)
(0 0 0.00179199)
(0 0 0.00194732)
(0 0 0.00210251)
(0 0 0.00225756)
(0 0 0.00241246)
(0 0 0.0025672)
(0 0 0.00272176)
(0 0 0.00287612)
(0 0 0.00303029)
(0 0 0.00318423)
(0 0 0.00333795)
(0 0 0.00349142)
(0 0 0.00364462)
(0 0 0.00379755)
(0 0 0.00395019)
(0 0 0.00410252)
(0 0 0.00425453)
(0 0 0.00440619)
(0 0 0.00455748)
(0 0 0.0047084)
(0 0 0.00485892)
(0 0 0.00500903)
(0 0 0.00515869)
(0 0 0.00530789)
(0 0 0.00545662)
(0 0 0.00560484)
(0 0 0.00575254)
(0 0 0.00589969)
(0 0 0.00604627)
(0 0 0.00619225)
(0 0 0.00633761)
(0 0 0.00648233)
(0 0 0.00662638)
(0 0 0.00676973)
(0 0 0.00691236)
(0 0 0.00705423)
(0 0 0.00719532)
(0 0 0.00733561)
(0 0 0.00747506)
(0 0 0.00761364)
(0 0 0.00775133)
(0 0 0.00788808)
(0 0 0.00802388)
(0 0 0.00815869)
(0 0 0.00829248)
(0 0 0.00842522)
(0 0 0.00855687)
(0 0 0.0086874)
(0 0 0.00881678)
(0 0 0.00894498)
(0 0 0.00907196)
(0 0 0.00919768)
(0 0 0.00932213)
(0 0 0.00944525)
(0 0 0.00956702)
(0 0 0.00968741)
(0 0 0.00980637)
(0 0 0.00992388)
(0 0 0.0100399)
(0 0 0.0101544)
(0 0 0.0102673)
(0 0 0.0103787)
(0 0 0.0104884)
(0 0 0.0105965)
(0 0 0.0107029)
(0 0 0.0108075)
(0 0 0.0109104)
(0 0 0.0110116)
(0 0 0.0111109)
(0 0 0.0112083)
(0 0 0.0113039)
(0 0 0.0113976)
(0 0 0.0114893)
(0 0 0.0115791)
(0 0 0.0116669)
(0 0 0.0117526)
(0 0 0.0118364)
(0 0 0.011918)
(0 0 0.0119976)
(0 0 0.012075)
(0 0 0.0121503)
(0 0 0.0122234)
(0 0 0.0122944)
(0 0 0.0123631)
(0 0 0.0124296)
(0 0 0.0124939)
(0 0 0.0125559)
(0 0 0.0126157)
(0 0 0.0126731)
(0 0 0.0127283)
(0 0 0.0127811)
(0 0 0.0128316)
(0 0 0.0128798)
(0 0 0.0129256)
(0 0 0.012969)
(0 0 0.0130101)
(0 0 0.0130488)
(0 0 0.0130851)
(0 0 0.013119)
(0 0 0.0131506)
(0 0 0.0131797)
(0 0 0.0132065)
(0 0 0.0132308)
(0 0 0.0132528)
(0 0 0.0132723)
(0 0 0.0132895)
(0 0 0.0133043)
(0 0 0.0133166)
(0 0 0.0133266)
(0 0 0.0133343)
(0 0 0.0133395)
(0 0 0.0133424)
(0 0 0.0133429)
(0 0 0.0133411)
(0 0 0.013337)
(0 0 0.0133305)
(0 0 0.0133217)
(0 0 0.0133105)
(0 0 0.0132971)
(0 0 0.0132814)
(0 0 0.0132635)
(0 0 0.0132432)
(0 0 0.0132208)
(0 0 0.0131961)
(0 0 0.0131692)
(0 0 0.0131401)
(0 0 0.0131088)
(0 0 0.0130753)
(0 0 0.0130397)
(0 0 0.013002)
(0 0 0.0129622)
(0 0 0.0129203)
(0 0 0.0128763)
(0 0 0.0128302)
(0 0 0.0127821)
(0 0 0.012732)
(0 0 0.0126799)
(0 0 0.0126258)
(0 0 0.0125698)
(0 0 0.0125118)
(0 0 0.0124519)
(0 0 0.0123901)
(0 0 0.0123265)
(0 0 0.012261)
(0 0 0.0121937)
(0 0 0.0121245)
(0 0 0.0120536)
(0 0 0.0119809)
(0 0 0.0119065)
(0 0 0.0118304)
(0 0 0.0117526)
(0 0 0.0116731)
(0 0 0.0115919)
(0 0 0.0115091)
(0 0 0.0114248)
(0 0 0.0113388)
(0 0 0.0112513)
(0 0 0.0111623)
(0 0 0.0110718)
(0 0 0.0109797)
(0 0 0.0108863)
(0 0 0.0107914)
(0 0 0.010695)
(0 0 0.0105973)
(0 0 0.0104983)
(0 0 0.0103979)
(0 0 0.0102961)
(0 0 0.0101931)
(0 0 0.0100889)
(0 0 0.00998335)
(0 0 0.00987662)
(0 0 0.0097687)
(0 0 0.00965961)
(0 0 0.00954937)
(0 0 0.00943801)
(0 0 0.00932556)
(0 0 0.00921204)
(0 0 0.00909746)
(0 0 0.00898186)
(0 0 0.00886526)
(0 0 0.00874768)
(0 0 0.00862914)
(0 0 0.00850967)
(0 0 0.00838929)
(0 0 0.00826803)
(0 0 0.0081459)
(0 0 0.00802292)
(0 0 0.00789913)
(0 0 0.00777454)
(0 0 0.00764917)
(0 0 0.00752305)
(0 0 0.0073962)
(0 0 0.00726863)
(0 0 0.00714037)
(0 0 0.00701144)
(0 0 0.00688185)
(0 0 0.00675164)
(0 0 0.00662081)
(0 0 0.00648939)
(0 0 0.00635739)
(0 0 0.00622484)
(0 0 0.00609176)
(0 0 0.00595815)
(0 0 0.00582404)
(0 0 0.00568945)
(0 0 0.0055544)
(0 0 0.00541889)
(0 0 0.00528295)
(0 0 0.00514659)
(0 0 0.00500984)
(0 0 0.00487269)
(0 0 0.00473518)
(0 0 0.0045973)
(0 0 0.00445909)
(0 0 0.00432055)
(0 0 0.0041817)
(0 0 0.00404255)
(0 0 0.00390311)
(0 0 0.0037634)
(0 0 0.00362342)
(0 0 0.0034832)
(0 0 0.00334274)
(0 0 0.00320206)
(0 0 0.00306117)
(0 0 0.00292007)
(0 0 0.00277879)
(0 0 0.00263732)
(0 0 0.00249569)
(0 0 0.0023539)
(0 0 0.00221196)
(0 0 0.00206988)
(0 0 0.00192768)
(0 0 0.00178535)
(0 0 0.00164292)
(0 0 0.00150038)
(0 0 0.00135776)
(0 0 0.00121505)
(0 0 0.00107228)
(0 0 0.000929434)
(0 0 0.000786537)
(0 0 0.000643593)
(0 0 0.000500612)
(0 0 0.000357601)
(0 0 0.000214569)
(0 0 7.15243e-05)
(0 0 9.53697e-05)
(0 0 0.000286103)
(0 0 0.000476818)
(0 0 0.000667504)
(0 0 0.000858148)
(0 0 0.00104874)
(0 0 0.00123926)
(0 0 0.00142971)
(0 0 0.00162006)
(0 0 0.00181032)
(0 0 0.00200045)
(0 0 0.00219046)
(0 0 0.00238032)
(0 0 0.00257002)
(0 0 0.00275956)
(0 0 0.00294891)
(0 0 0.00313805)
(0 0 0.00332698)
(0 0 0.00351568)
(0 0 0.00370413)
(0 0 0.00389232)
(0 0 0.00408022)
(0 0 0.00426782)
(0 0 0.00445511)
(0 0 0.00464205)
(0 0 0.00482865)
(0 0 0.00501486)
(0 0 0.00520068)
(0 0 0.00538608)
(0 0 0.00557103)
(0 0 0.00575553)
(0 0 0.00593954)
(0 0 0.00612304)
(0 0 0.006306)
(0 0 0.00648841)
(0 0 0.00667023)
(0 0 0.00685143)
(0 0 0.007032)
(0 0 0.0072119)
(0 0 0.0073911)
(0 0 0.00756957)
(0 0 0.00774729)
(0 0 0.00792422)
(0 0 0.00810033)
(0 0 0.0082756)
(0 0 0.00844997)
(0 0 0.00862343)
(0 0 0.00879594)
(0 0 0.00896746)
(0 0 0.00913795)
(0 0 0.00930739)
(0 0 0.00947574)
(0 0 0.00964295)
(0 0 0.00980899)
(0 0 0.00997382)
(0 0 0.0101374)
(0 0 0.0102997)
(0 0 0.0104607)
(0 0 0.0106203)
(0 0 0.0107785)
(0 0 0.0109352)
(0 0 0.0110905)
(0 0 0.0112442)
(0 0 0.0113964)
(0 0 0.011547)
(0 0 0.0116959)
(0 0 0.0118431)
(0 0 0.0119885)
(0 0 0.0121322)
(0 0 0.0122741)
(0 0 0.0124141)
(0 0 0.0125522)
(0 0 0.0126884)
(0 0 0.0128226)
(0 0 0.0129547)
(0 0 0.0130848)
(0 0 0.0132128)
(0 0 0.0133386)
(0 0 0.0134623)
(0 0 0.0135837)
(0 0 0.0137029)
(0 0 0.0138198)
(0 0 0.0139343)
(0 0 0.0140465)
(0 0 0.0141563)
(0 0 0.0142636)
(0 0 0.0143685)
(0 0 0.0144709)
(0 0 0.0145707)
(0 0 0.014668)
(0 0 0.0147627)
(0 0 0.0148548)
(0 0 0.0149442)
(0 0 0.0150309)
(0 0 0.015115)
(0 0 0.0151963)
(0 0 0.0152749)
(0 0 0.0153508)
(0 0 0.0154238)
(0 0 0.0154941)
(0 0 0.0155615)
(0 0 0.0156261)
(0 0 0.0156878)
(0 0 0.0157467)
(0 0 0.0158027)
(0 0 0.0158558)
(0 0 0.0159061)
(0 0 0.0159534)
(0 0 0.0159978)
(0 0 0.0160392)
(0 0 0.0160778)
(0 0 0.0161134)
(0 0 0.0161461)
(0 0 0.0161759)
(0 0 0.0162027)
(0 0 0.0162266)
(0 0 0.0162476)
(0 0 0.0162656)
(0 0 0.0162808)
(0 0 0.016293)
(0 0 0.0163023)
(0 0 0.0163087)
(0 0 0.0163122)
(0 0 0.0163128)
(0 0 0.0163106)
(0 0 0.0163055)
(0 0 0.0162975)
(0 0 0.0162867)
(0 0 0.0162731)
(0 0 0.0162567)
(0 0 0.0162375)
(0 0 0.0162155)
(0 0 0.0161907)
(0 0 0.0161633)
(0 0 0.016133)
(0 0 0.0161001)
(0 0 0.0160645)
(0 0 0.0160262)
(0 0 0.0159853)
(0 0 0.0159418)
(0 0 0.0158956)
(0 0 0.0158469)
(0 0 0.0157956)
(0 0 0.0157418)
(0 0 0.0156855)
(0 0 0.0156267)
(0 0 0.0155654)
(0 0 0.0155017)
(0 0 0.0154355)
(0 0 0.015367)
(0 0 0.0152961)
(0 0 0.0152229)
(0 0 0.0151473)
(0 0 0.0150695)
(0 0 0.0149894)
(0 0 0.014907)
(0 0 0.0148225)
(0 0 0.0147358)
(0 0 0.0146469)
(0 0 0.0145559)
(0 0 0.0144628)
(0 0 0.0143676)
(0 0 0.0142704)
(0 0 0.0141712)
(0 0 0.01407)
(0 0 0.0139668)
(0 0 0.0138617)
(0 0 0.0137547)
(0 0 0.0136459)
(0 0 0.0135352)
(0 0 0.0134227)
(0 0 0.0133084)
(0 0 0.0131923)
(0 0 0.0130745)
(0 0 0.0129551)
(0 0 0.0128339)
(0 0 0.0127112)
(0 0 0.0125868)
(0 0 0.0124609)
(0 0 0.0123334)
(0 0 0.0122043)
(0 0 0.0120739)
(0 0 0.0119419)
(0 0 0.0118085)
(0 0 0.0116737)
(0 0 0.0115376)
(0 0 0.0114001)
(0 0 0.0112613)
(0 0 0.0111212)
(0 0 0.0109799)
(0 0 0.0108373)
(0 0 0.0106936)
(0 0 0.0105486)
(0 0 0.0104026)
(0 0 0.0102554)
(0 0 0.0101071)
(0 0 0.00995781)
(0 0 0.00980747)
(0 0 0.00965612)
(0 0 0.0095038)
(0 0 0.00935053)
(0 0 0.00919634)
(0 0 0.00904125)
(0 0 0.00888529)
(0 0 0.00872848)
(0 0 0.00857086)
(0 0 0.00841244)
(0 0 0.00825325)
(0 0 0.00809331)
(0 0 0.00793264)
(0 0 0.00777128)
(0 0 0.00760923)
(0 0 0.00744654)
(0 0 0.0072832)
(0 0 0.00711926)
(0 0 0.00695473)
(0 0 0.00678962)
(0 0 0.00662397)
(0 0 0.00645779)
(0 0 0.0062911)
(0 0 0.00612392)
(0 0 0.00595627)
(0 0 0.00578816)
(0 0 0.00561962)
(0 0 0.00545067)
(0 0 0.00528131)
(0 0 0.00511158)
(0 0 0.00494147)
(0 0 0.00477102)
(0 0 0.00460024)
(0 0 0.00442913)
(0 0 0.00425773)
(0 0 0.00408603)
(0 0 0.00391407)
(0 0 0.00374184)
(0 0 0.00356937)
(0 0 0.00339666)
(0 0 0.00322374)
(0 0 0.00305061)
(0 0 0.00287729)
(0 0 0.00270379)
(0 0 0.00253012)
(0 0 0.00235629)
(0 0 0.00218232)
(0 0 0.00200821)
(0 0 0.00183399)
(0 0 0.00165965)
(0 0 0.00148521)
(0 0 0.00131069)
(0 0 0.00113609)
(0 0 0.000961418)
(0 0 0.000786691)
(0 0 0.000611919)
(0 0 0.00043711)
(0 0 0.000262276)
(0 0 8.74271e-05)
(0 0 0.000112724)
(0 0 0.000338164)
(0 0 0.000563584)
(0 0 0.000788968)
(0 0 0.0010143)
(0 0 0.00123958)
(0 0 0.00146477)
(0 0 0.00168987)
(0 0 0.00191487)
(0 0 0.00213974)
(0 0 0.00236448)
(0 0 0.00258906)
(0 0 0.00281348)
(0 0 0.00303771)
(0 0 0.00326174)
(0 0 0.00348555)
(0 0 0.00370912)
(0 0 0.00393244)
(0 0 0.00415549)
(0 0 0.00437824)
(0 0 0.00460068)
(0 0 0.00482279)
(0 0 0.00504455)
(0 0 0.00526593)
(0 0 0.00548691)
(0 0 0.00570748)
(0 0 0.0059276)
(0 0 0.00614725)
(0 0 0.00636641)
(0 0 0.00658505)
(0 0 0.00680315)
(0 0 0.00702067)
(0 0 0.00723759)
(0 0 0.00745388)
(0 0 0.00766951)
(0 0 0.00788445)
(0 0 0.00809867)
(0 0 0.00831213)
(0 0 0.0085248)
(0 0 0.00873666)
(0 0 0.00894765)
(0 0 0.00915776)
(0 0 0.00936693)
(0 0 0.00957514)
(0 0 0.00978235)
(0 0 0.00998851)
(0 0 0.0101936)
(0 0 0.0103975)
(0 0 0.0106003)
(0 0 0.0108019)
(0 0 0.0110022)
(0 0 0.0112013)
(0 0 0.011399)
(0 0 0.0115953)
(0 0 0.0117902)
(0 0 0.0119836)
(0 0 0.0121755)
(0 0 0.0123658)
(0 0 0.0125546)
(0 0 0.0127416)
(0 0 0.012927)
(0 0 0.0131106)
(0 0 0.0132924)
(0 0 0.0134723)
(0 0 0.0136503)
(0 0 0.0138264)
(0 0 0.0140005)
(0 0 0.0141725)
(0 0 0.0143424)
(0 0 0.0145102)
(0 0 0.0146757)
(0 0 0.014839)
(0 0 0.015)
(0 0 0.0151587)
(0 0 0.015315)
(0 0 0.0154688)
(0 0 0.0156202)
(0 0 0.015769)
(0 0 0.0159152)
(0 0 0.0160588)
(0 0 0.0161997)
(0 0 0.016338)
(0 0 0.0164734)
(0 0 0.0166061)
(0 0 0.0167359)
(0 0 0.0168628)
(0 0 0.0169869)
(0 0 0.0171079)
(0 0 0.017226)
(0 0 0.017341)
(0 0 0.017453)
(0 0 0.0175619)
(0 0 0.0176676)
(0 0 0.0177702)
(0 0 0.0178696)
(0 0 0.0179658)
(0 0 0.0180587)
(0 0 0.0181484)
(0 0 0.0182348)
(0 0 0.0183178)
(0 0 0.0183976)
(0 0 0.0184739)
(0 0 0.0185469)
(0 0 0.0186166)
(0 0 0.0186828)
(0 0 0.0187456)
(0 0 0.0188049)
(0 0 0.0188609)
(0 0 0.0189133)
(0 0 0.0189624)
(0 0 0.0190079)
(0 0 0.0190501)
(0 0 0.0190887)
(0 0 0.0191239)
(0 0 0.0191556)
(0 0 0.0191838)
(0 0 0.0192086)
(0 0 0.0192299)
(0 0 0.0192478)
(0 0 0.0192622)
(0 0 0.0192732)
(0 0 0.0192807)
(0 0 0.0192849)
(0 0 0.0192856)
(0 0 0.0192829)
(0 0 0.0192768)
(0 0 0.0192674)
(0 0 0.0192546)
(0 0 0.0192385)
(0 0 0.019219)
(0 0 0.0191963)
(0 0 0.0191703)
(0 0 0.019141)
(0 0 0.0191085)
(0 0 0.0190727)
(0 0 0.0190338)
(0 0 0.0189916)
(0 0 0.0189464)
(0 0 0.018898)
(0 0 0.0188465)
(0 0 0.0187919)
(0 0 0.0187342)
(0 0 0.0186736)
(0 0 0.0186099)
(0 0 0.0185433)
(0 0 0.0184737)
(0 0 0.0184012)
(0 0 0.0183259)
(0 0 0.0182476)
(0 0 0.0181666)
(0 0 0.0180827)
(0 0 0.0179961)
(0 0 0.0179068)
(0 0 0.0178147)
(0 0 0.01772)
(0 0 0.0176226)
(0 0 0.0175227)
(0 0 0.0174201)
(0 0 0.017315)
(0 0 0.0172074)
(0 0 0.0170973)
(0 0 0.0169848)
(0 0 0.0168698)
(0 0 0.0167525)
(0 0 0.0166328)
(0 0 0.0165108)
(0 0 0.0163865)
(0 0 0.01626)
(0 0 0.0161313)
(0 0 0.0160004)
(0 0 0.0158673)
(0 0 0.0157322)
(0 0 0.015595)
(0 0 0.0154557)
(0 0 0.0153145)
(0 0 0.0151712)
(0 0 0.0150261)
(0 0 0.014879)
(0 0 0.0147301)
(0 0 0.0145794)
(0 0 0.0144268)
(0 0 0.0142725)
(0 0 0.0141165)
(0 0 0.0139588)
(0 0 0.0137995)
(0 0 0.0136385)
(0 0 0.0134759)
(0 0 0.0133118)
(0 0 0.0131462)
(0 0 0.0129791)
(0 0 0.0128106)
(0 0 0.0126406)
(0 0 0.0124693)
(0 0 0.0122966)
(0 0 0.0121226)
(0 0 0.0119473)
(0 0 0.0117708)
(0 0 0.011593)
(0 0 0.0114141)
(0 0 0.011234)