/*--------------------------------*- C++ -*----------------------------------*\
| =========                 |                                                 |
| \\      /  F ield         | OpenFOAM: The Open Source CFD Toolbox           |
|  \\    /   O peration     | Version:  v2012                                 |
|   \\  /    A nd           | Website:  www.openfoam.com                      |
|    \\/     M anipulation  |                                                 |
\*---------------------------------------------------------------------------*/
FoamFile
{
    version     2.0;
    format      ascii;
    class       volScalarField;
    location    "2.2";
    object      W;
}
// * * * * * * * * * * * * * * * * * * * * * * * * * * * * * * * * * * * * * //

dimensions      [0 0 -1 0 0 0 0];


internalField   nonuniform List<scalar> 
65536
(
9.54354e-22
2.92633e-21
5.09994e-21
7.64533e-21
1.07774e-20
1.47657e-20
1.99458e-20
2.67379e-20
3.5672e-20
4.74224e-20
6.28509e-20
8.30608e-20
1.09463e-19
1.43857e-19
1.88537e-19
2.46409e-19
3.21155e-19
4.17413e-19
5.41016e-19
6.99271e-19
9.01299e-19
1.15846e-18
1.48483e-18
1.89783e-18
2.4189e-18
3.07441e-18
3.89657e-18
4.92471e-18
6.20661e-18
7.80014e-18
9.77513e-18
1.22156e-17
1.5222e-17
1.89148e-17
2.34366e-17
2.89569e-17
3.56758e-17
4.38285e-17
5.36908e-17
6.55845e-17
7.98841e-17
9.70229e-17
1.17501e-16
1.41894e-16
1.70858e-16
2.05143e-16
2.45599e-16
2.93186e-16
3.48983e-16
4.14198e-16
4.90178e-16
5.78416e-16
6.80558e-16
7.98411e-16
9.3395e-16
1.08932e-15
1.26682e-15
1.46895e-15
1.69835e-15
1.95782e-15
2.25031e-15
2.57891e-15
2.94679e-15
3.35722e-15
3.81353e-15
4.31905e-15
4.8771e-15
5.49091e-15
6.1636e-15
6.8981e-15
7.69709e-15
8.56296e-15
9.4977e-15
1.05029e-14
1.15795e-14
1.2728e-14
1.39481e-14
1.5239e-14
1.65988e-14
1.8025e-14
1.9514e-14
2.10615e-14
2.26621e-14
2.43094e-14
2.59962e-14
2.77142e-14
2.94543e-14
3.12064e-14
3.29598e-14
3.4703e-14
3.64241e-14
3.81104e-14
3.97491e-14
4.13274e-14
4.28321e-14
4.42505e-14
4.557e-14
4.67787e-14
4.78653e-14
4.88195e-14
4.96319e-14
5.02943e-14
5.08e-14
5.11435e-14
5.13211e-14
5.13306e-14
5.11715e-14
5.0845e-14
5.03543e-14
4.97038e-14
4.88999e-14
4.79504e-14
4.68648e-14
4.56536e-14
4.43288e-14
4.29033e-14
4.13909e-14
3.98061e-14
3.81639e-14
3.64798e-14
3.47692e-14
3.30477e-14
3.13306e-14
2.9633e-14
2.79693e-14
2.63535e-14
2.47987e-14
2.33174e-14
2.19211e-14
2.06202e-14
1.94244e-14
1.83422e-14
1.73809e-14
1.6547e-14
1.58457e-14
1.52811e-14
1.48565e-14
1.45737e-14
1.44337e-14
1.44365e-14
1.45806e-14
1.48639e-14
1.5283e-14
1.58333e-14
1.65093e-14
1.73044e-14
1.82107e-14
1.92196e-14
2.03211e-14
2.15042e-14
2.27572e-14
2.40672e-14
2.54206e-14
2.68029e-14
2.81991e-14
2.95937e-14
3.09708e-14
3.23145e-14
3.36087e-14
3.48378e-14
3.59865e-14
3.70402e-14
3.79853e-14
3.88092e-14
3.95007e-14
4.00501e-14
4.04495e-14
4.06927e-14
4.07753e-14
4.06953e-14
4.04525e-14
4.00488e-14
3.94881e-14
3.87763e-14
3.79212e-14
3.6932e-14
3.58198e-14
3.45966e-14
3.32756e-14
3.18709e-14
3.0397e-14
2.88688e-14
2.73012e-14
2.57088e-14
2.41059e-14
2.2506e-14
2.0922e-14
1.93655e-14
1.78472e-14
1.63766e-14
1.49616e-14
1.36092e-14
1.23248e-14
1.11126e-14
9.97538e-15
8.915e-15
7.93203e-15
7.02609e-15
6.1959e-15
5.4394e-15
4.75389e-15
4.13613e-15
3.58247e-15
3.08894e-15
2.65137e-15
2.26549e-15
1.92699e-15
1.63162e-15
1.37524e-15
1.15386e-15
9.63699e-16
8.01193e-16
6.6304e-16
5.46191e-16
4.47868e-16
3.65555e-16
2.96996e-16
2.40182e-16
1.9334e-16
1.54914e-16
1.2355e-16
9.80806e-17
7.75005e-17
6.09546e-17
4.77186e-17
3.71832e-17
2.88392e-17
2.22635e-17
1.71072e-17
1.30839e-17
9.96022e-18
7.54696e-18
5.69176e-18
4.27259e-18
3.19232e-18
2.37406e-18
1.75731e-18
1.29471e-18
9.49443e-19
6.93002e-19
5.03466e-19
3.64063e-19
2.62032e-19
1.87717e-19
1.33852e-19
9.49989e-20
6.71087e-20
4.71833e-20
3.30129e-20
2.29749e-20
1.58805e-20
1.08573e-20
7.26177e-21
4.6152e-21
2.55876e-21
8.19728e-22
3.11216e-21
9.54279e-21
1.6631e-20
2.49314e-20
3.51444e-20
4.81482e-20
6.50369e-20
8.71793e-20
1.16302e-19
1.54604e-19
2.04891e-19
2.70758e-19
3.568e-19
4.68883e-19
6.14472e-19
8.03039e-19
1.04657e-18
1.36016e-18
1.76282e-18
2.27832e-18
2.93637e-18
3.77393e-18
4.83683e-18
6.18176e-18
7.87853e-18
1.00129e-17
1.26896e-17
1.60368e-17
2.02097e-17
2.53966e-17
3.18247e-17
3.97669e-17
4.95506e-17
6.15663e-17
7.62787e-17
9.42381e-17
1.16095e-16
1.42613e-16
1.74689e-16
2.13369e-16
2.59867e-16
3.15593e-16
3.8217e-16
4.61464e-16
5.55609e-16
6.67036e-16
7.98502e-16
9.53124e-16
1.1344e-15
1.34625e-15
1.59304e-15
1.8796e-15
2.21128e-15
2.59392e-15
3.03391e-15
3.53821e-15
4.11428e-15
4.77016e-15
5.51442e-15
6.35611e-15
7.30476e-15
8.37033e-15
9.56308e-15
1.08936e-14
1.23725e-14
1.40107e-14
1.58187e-14
1.7807e-14
1.99856e-14
2.23639e-14
2.49505e-14
2.7753e-14
3.07777e-14
3.40295e-14
3.75117e-14
4.12256e-14
4.51701e-14
4.93421e-14
5.37359e-14
5.83427e-14
6.31513e-14
6.81472e-14
7.33129e-14
7.86277e-14
8.40679e-14
8.96068e-14
9.52148e-14
1.00859e-13
1.06506e-13
1.12117e-13
1.17654e-13
1.23077e-13
1.28343e-13
1.33412e-13
1.38241e-13
1.42789e-13
1.47017e-13
1.50885e-13
1.54357e-13
1.57401e-13
1.59985e-13
1.62086e-13
1.6368e-13
1.64751e-13
1.65287e-13
1.65281e-13
1.64732e-13
1.63645e-13
1.62029e-13
1.599e-13
1.57278e-13
1.5419e-13
1.50664e-13
1.46737e-13
1.42446e-13
1.37834e-13
1.32944e-13
1.27825e-13
1.22523e-13
1.17089e-13
1.11572e-13
1.06023e-13
1.0049e-13
9.50225e-14
8.96659e-14
8.44651e-14
7.94623e-14
7.4697e-14
7.02059e-14
6.60226e-14
6.21773e-14
5.86971e-14
5.56055e-14
5.29226e-14
5.06648e-14
4.88454e-14
4.74738e-14
4.65563e-14
4.60955e-14
4.60905e-14
4.65373e-14
4.74281e-14
4.87518e-14
5.04939e-14
5.26363e-14
5.51577e-14
5.8033e-14
6.12341e-14
6.47292e-14
6.84833e-14
7.24586e-14
7.66141e-14
8.09063e-14
8.52891e-14
8.97148e-14
9.4134e-14
9.84963e-14
1.02751e-13
1.06847e-13
1.10734e-13
1.14365e-13
1.17694e-13
1.20676e-13
1.23272e-13
1.25447e-13
1.27171e-13
1.28418e-13
1.29169e-13
1.2941e-13
1.29135e-13
1.28344e-13
1.27044e-13
1.25246e-13
1.22969e-13
1.20239e-13
1.17086e-13
1.13543e-13
1.09649e-13
1.05448e-13
1.00982e-13
9.62988e-14
9.14449e-14
8.64676e-14
8.14134e-14
7.63274e-14
7.12526e-14
6.62293e-14
6.12946e-14
5.64822e-14
5.18217e-14
4.73388e-14
4.30548e-14
3.8987e-14
3.51484e-14
3.15482e-14
2.81916e-14
2.50806e-14
2.22138e-14
1.95871e-14
1.71939e-14
1.50256e-14
1.30719e-14
1.13211e-14
9.7606e-15
8.37723e-15
7.15741e-15
6.08749e-15
5.154e-15
4.34381e-15
3.64429e-15
3.04347e-15
2.53009e-15
2.09367e-15
1.72459e-15
1.41404e-15
1.15409e-15
9.37586e-16
7.58187e-16
6.10286e-16
4.88966e-16
3.89952e-16
3.09549e-16
2.44585e-16
1.92359e-16
1.50583e-16
1.17332e-16
9.09987e-17
7.02474e-17
5.39759e-17
4.12804e-17
3.1424e-17
2.38095e-17
1.79561e-17
1.34786e-17
1.00705e-17
7.48903e-18
5.54334e-18
4.08402e-18
2.99485e-18
2.18591e-18
1.58804e-18
1.14832e-18
8.26482e-19
5.92076e-19
4.22177e-19
2.99629e-19
2.11661e-19
1.48815e-19
1.04121e-19
7.24617e-20
5.00863e-20
3.42435e-20
2.29033e-20
1.45563e-20
8.07038e-21
2.58552e-21
6.08378e-21
1.86547e-20
3.25112e-20
4.87364e-20
6.86986e-20
9.41121e-20
1.27114e-19
1.70375e-19
2.27269e-19
3.02085e-19
4.00302e-19
5.28934e-19
6.96947e-19
9.15786e-19
1.20001e-18
1.5681e-18
2.04342e-18
2.65542e-18
3.44114e-18
4.44694e-18
5.7307e-18
7.36446e-18
9.43754e-18
1.20603e-17
1.53688e-17
1.95299e-17
2.47479e-17
3.12718e-17
3.94041e-17
4.9511e-17
6.20346e-17
7.75059e-17
9.65614e-17
1.1996e-16
1.48606e-16
1.83569e-16
2.26112e-16
2.7772e-16
3.40132e-16
4.15381e-16
5.05824e-16
6.14195e-16
7.43644e-16
8.9779e-16
1.08077e-15
1.29729e-15
1.55271e-15
1.85304e-15
2.20507e-15
2.61638e-15
3.09541e-15
3.65152e-15
4.29502e-15
5.03722e-15
5.89045e-15
6.86811e-15
7.98463e-15
9.25548e-15
1.06972e-14
1.23271e-14
1.41637e-14
1.62259e-14
1.85336e-14
2.1107e-14
2.39666e-14
2.71329e-14
3.06264e-14
3.44668e-14
3.86733e-14
4.32636e-14
4.8254e-14
5.36588e-14
5.94899e-14
6.57562e-14
7.24634e-14
7.96137e-14
8.72046e-14
9.52296e-14
1.03677e-13
1.12529e-13
1.21764e-13
1.31354e-13
1.41264e-13
1.51454e-13
1.61878e-13
1.72484e-13
1.83215e-13
1.94008e-13
2.04796e-13
2.15508e-13
2.26068e-13
2.364e-13
2.46424e-13
2.56061e-13
2.65229e-13
2.7385e-13
2.81849e-13
2.89152e-13
2.9569e-13
3.01402e-13
3.0623e-13
3.10126e-13
3.1305e-13
3.14971e-13
3.15866e-13
3.15726e-13
3.14548e-13
3.12342e-13
3.0913e-13
3.0494e-13
2.99814e-13
2.93803e-13
2.86964e-13
2.79365e-13
2.71081e-13
2.62191e-13
2.52781e-13
2.42941e-13
2.32764e-13
2.22343e-13
2.11775e-13
2.01153e-13
1.90572e-13
1.80122e-13
1.69892e-13
1.59965e-13
1.50422e-13
1.41335e-13
1.32775e-13
1.24804e-13
1.17478e-13
1.10847e-13
1.04956e-13
9.98402e-14
9.55309e-14
9.20515e-14
8.9419e-14
8.76439e-14
8.673e-14
8.6675e-14
8.74698e-14
8.90989e-14
9.15406e-14
9.47666e-14
9.87421e-14
1.03426e-13
1.08771e-13
1.14723e-13
1.21222e-13
1.28202e-13
1.35592e-13
1.43314e-13
1.51287e-13
1.59424e-13
1.67637e-13
1.75832e-13
1.83916e-13
1.91794e-13
1.99372e-13
2.06557e-13
2.13258e-13
2.19392e-13
2.24877e-13
2.29641e-13
2.33618e-13
2.36753e-13
2.38999e-13
2.40321e-13
2.40696e-13
2.40112e-13
2.3857e-13
2.36082e-13
2.32672e-13
2.28377e-13
2.23243e-13
2.17326e-13
2.10691e-13
2.0341e-13
1.95562e-13
1.8723e-13
1.785e-13
1.69458e-13
1.60194e-13
1.50792e-13
1.41337e-13
1.31907e-13
1.22578e-13
1.13418e-13
1.04489e-13
9.58458e-14
8.75349e-14
7.95959e-14
7.20601e-14
6.49516e-14
5.82866e-14
5.20747e-14
4.6319e-14
4.10167e-14
3.61598e-14
3.17359e-14
2.77287e-14
2.4119e-14
2.0885e-14
1.80032e-14
1.54491e-14
1.31975e-14
1.12229e-14
9.50054e-15
8.00593e-15
6.71573e-15
5.60777e-15
4.66121e-15
3.8567e-15
3.17643e-15
2.60414e-15
2.12516e-15
1.72629e-15
1.39583e-15
1.12343e-15
9.00012e-16
7.17694e-16
5.69662e-16
4.5007e-16
3.53937e-16
2.77047e-16
2.15855e-16
1.67398e-16
1.29215e-16
9.92784e-17
7.59227e-17
5.77914e-17
4.37854e-17
3.30193e-17
2.47845e-17
1.85168e-17
1.37696e-17
1.01918e-17
7.50846e-18
5.50584e-18
4.01854e-18
2.91934e-18
2.11093e-18
1.51928e-18
1.08836e-18
7.76036e-19
5.50763e-19
3.8906e-19
2.73539e-19
1.91386e-19
1.33192e-19
9.20639e-20
6.29435e-20
4.20995e-20
2.6757e-20
1.48351e-20
4.75285e-21
1.06457e-20
3.26431e-20
5.68896e-20
8.52795e-20
1.20204e-19
1.64658e-19
2.22376e-19
2.98028e-19
3.97503e-19
5.28295e-19
6.99973e-19
9.24785e-19
1.21839e-18
1.60075e-18
2.09729e-18
2.74025e-18
3.57039e-18
4.63911e-18
6.01097e-18
7.76683e-18
1.00076e-17
1.28588e-17
1.64762e-17
2.10521e-17
2.68233e-17
3.40806e-17
4.31797e-17
5.4554e-17
6.87301e-17
8.63452e-17
1.08168e-16
1.35123e-16
1.68315e-16
2.09066e-16
2.58944e-16
3.19809e-16
3.93854e-16
4.83657e-16
5.92239e-16
7.2312e-16
8.80396e-16
1.0688e-15
1.2938e-15
1.56165e-15
1.87953e-15
2.25558e-15
2.69905e-15
3.22038e-15
3.83127e-15
4.54482e-15
5.37562e-15
6.33979e-15
7.45513e-15
8.74113e-15
1.0219e-14
1.19119e-14
1.38445e-14
1.60435e-14
1.85371e-14
2.13553e-14
2.45296e-14
2.80925e-14
3.20778e-14
3.65201e-14
4.14543e-14
4.69155e-14
5.29381e-14
5.95558e-14
6.68008e-14
7.4703e-14
8.32896e-14
9.25845e-14
1.02607e-13
1.13372e-13
1.24887e-13
1.37156e-13
1.50173e-13
1.63926e-13
1.78393e-13
1.93544e-13
2.09339e-13
2.25728e-13
2.42652e-13
2.6004e-13
2.77812e-13
2.9588e-13
3.14143e-13
3.32494e-13
3.50817e-13
3.68991e-13
3.86886e-13
4.04371e-13
4.2131e-13
4.37567e-13
4.53007e-13
4.67495e-13
4.80904e-13
4.9311e-13
5.03999e-13
5.13465e-13
5.21415e-13
5.27769e-13
5.3246e-13
5.35438e-13
5.3667e-13
5.36138e-13
5.33845e-13
5.2981e-13
5.24069e-13
5.16679e-13
5.0771e-13
4.9725e-13
4.85401e-13
4.72279e-13
4.58013e-13
4.42739e-13
4.26604e-13
4.09762e-13
3.92368e-13
3.74584e-13
3.56571e-13
3.38488e-13
3.20493e-13
3.02739e-13
2.85373e-13
2.68537e-13
2.52361e-13
2.36971e-13
2.22479e-13
2.0899e-13
1.96596e-13
1.85379e-13
1.7541e-13
1.66749e-13
1.59444e-13
1.53531e-13
1.49037e-13
1.45978e-13
1.44357e-13
1.44167e-13
1.45392e-13
1.48003e-13
1.51962e-13
1.57221e-13
1.63718e-13
1.71384e-13
1.80139e-13
1.89892e-13
2.00542e-13
2.11978e-13
2.24082e-13
2.36724e-13
2.4977e-13
2.63076e-13
2.76494e-13
2.89873e-13
3.03057e-13
3.1589e-13
3.28218e-13
3.3989e-13
3.50758e-13
3.60684e-13
3.69537e-13
3.77198e-13
3.83563e-13
3.88541e-13
3.92058e-13
3.9406e-13
3.94508e-13
3.93387e-13
3.90699e-13
3.86466e-13
3.80731e-13
3.73554e-13
3.65012e-13
3.55199e-13
3.44223e-13
3.32202e-13
3.19266e-13
3.0555e-13
2.91197e-13
2.76348e-13
2.61147e-13
2.45735e-13
2.30248e-13
2.14814e-13
1.99556e-13
1.84584e-13
1.69998e-13
1.55886e-13
1.42325e-13
1.29378e-13
1.17095e-13
1.05513e-13
9.46588e-14
8.4547e-14
7.51818e-14
6.65577e-14
5.86612e-14
5.14713e-14
4.49611e-14
3.90986e-14
3.38481e-14
2.91709e-14
2.50269e-14
2.13747e-14
1.81729e-14
1.53807e-14
1.29584e-14
1.0868e-14
9.0733e-15
7.54041e-15
6.23787e-15
5.13672e-15
4.21056e-15
3.43556e-15
2.79033e-15
2.25585e-15
1.81535e-15
1.45414e-15
1.15942e-15
9.2016e-16
7.269e-16
5.71572e-16
4.47355e-16
3.4851e-16
2.70246e-16
2.08585e-16
1.60246e-16
1.22537e-16
9.32663e-17
7.06575e-17
5.32804e-17
3.999e-17
2.98752e-17
2.22148e-17
1.64418e-17
1.21124e-17
8.88146e-18
6.48205e-18
4.70885e-18
3.40479e-18
2.45043e-18
1.75537e-18
1.25161e-18
8.88275e-19
6.27472e-19
4.41159e-19
3.08663e-19
2.1481e-19
1.4848e-19
1.01517e-19
6.79009e-20
4.31568e-20
2.39287e-20
7.66646e-21
1.79741e-20
5.51142e-20
9.6051e-20
1.4398e-19
2.02932e-19
2.77959e-19
3.75356e-19
5.02993e-19
6.708e-19
8.91401e-19
1.18092e-18
1.56e-18
2.05499e-18
2.69953e-18
3.53642e-18
4.61992e-18
6.01866e-18
7.81909e-18
1.01299e-17
1.3087e-17
1.68601e-17
2.16604e-17
2.77495e-17
3.54507e-17
4.5162e-17
5.73718e-17
7.26774e-17
9.18065e-17
1.15643e-16
1.45256e-16
1.81936e-16
2.27232e-16
2.82999e-16
3.51449e-16
4.35213e-16
5.37404e-16
6.61696e-16
8.12403e-16
9.9458e-16
1.21412e-15
1.47786e-15
1.79372e-15
2.17082e-15
2.61963e-15
3.15211e-15
3.78185e-15
4.52428e-15
5.39677e-15
6.41883e-15
7.61228e-15
9.00134e-15
1.06129e-14
1.24764e-14
1.46243e-14
1.70918e-14
1.9917e-14
2.31412e-14
2.68083e-14
3.09651e-14
3.56609e-14
4.09476e-14
4.68791e-14
5.35107e-14
6.08992e-14
6.91019e-14
7.81761e-14
8.8178e-14
9.91625e-14
1.11182e-13
1.24284e-13
1.38513e-13
1.53906e-13
1.70494e-13
1.88299e-13
2.07334e-13
2.27601e-13
2.49089e-13
2.71775e-13
2.95622e-13
3.20576e-13
3.46571e-13
3.73521e-13
4.01326e-13
4.29868e-13
4.59013e-13
4.88612e-13
5.185e-13
5.48498e-13
5.78414e-13
6.08048e-13
6.37187e-13
6.65614e-13
6.93108e-13
7.19446e-13
7.44406e-13
7.67771e-13
7.89332e-13
8.08891e-13
8.26262e-13
8.41278e-13
8.53789e-13
8.63667e-13
8.70811e-13
8.75142e-13
8.76611e-13
8.75196e-13
8.70905e-13
8.63775e-13
8.53874e-13
8.41294e-13
8.26159e-13
8.08616e-13
7.88836e-13
7.67012e-13
7.43356e-13
7.18094e-13
6.91467e-13
6.63727e-13
6.3513e-13
6.05937e-13
5.7641e-13
5.46809e-13
5.17387e-13
4.88391e-13
4.60059e-13
4.32615e-13
4.06272e-13
3.81225e-13
3.57656e-13
3.35728e-13
3.15587e-13
2.9736e-13
2.81158e-13
2.67072e-13
2.55176e-13
2.45523e-13
2.38152e-13
2.33082e-13
2.30316e-13
2.29839e-13
2.31618e-13
2.35605e-13
2.41734e-13
2.49924e-13
2.60076e-13
2.72075e-13
2.8579e-13
3.01073e-13
3.17763e-13
3.35682e-13
3.54638e-13
3.74428e-13
3.94835e-13
4.15632e-13
4.36586e-13
4.57457e-13
4.77999e-13
4.97969e-13
5.17123e-13
5.35224e-13
5.52045e-13
5.67366e-13
5.80988e-13
5.92725e-13
6.02417e-13
6.09924e-13
6.15135e-13
6.17966e-13
6.18363e-13
6.16303e-13
6.11795e-13
6.04876e-13
5.95616e-13
5.84114e-13
5.70492e-13
5.549e-13
5.37509e-13
5.18506e-13
4.98095e-13
4.76489e-13
4.5391e-13
4.30582e-13
4.06728e-13
3.82567e-13
3.5831e-13
3.3416e-13
3.10303e-13
2.86911e-13
2.64139e-13
2.42123e-13
2.2098e-13
2.00805e-13
1.81676e-13
1.63651e-13
1.46766e-13
1.31045e-13
1.16492e-13
1.03096e-13
9.08368e-14
7.96793e-14
6.95808e-14
6.04908e-14
5.23528e-14
4.51064e-14
3.86883e-14
3.30339e-14
2.80786e-14
2.37586e-14
2.00122e-14
1.67801e-14
1.40059e-14
1.16372e-14
9.62496e-15
7.9243e-15
6.49428e-15
5.29794e-15
4.30216e-15
3.47749e-15
2.79798e-15
2.24088e-15
1.78643e-15
1.41758e-15
1.11969e-15
8.8031e-16
6.88908e-16
5.36626e-16
4.16069e-16
3.21102e-16
2.46661e-16
1.88599e-16
1.43535e-16
1.08731e-16
8.19841e-17
6.15293e-17
4.59633e-17
3.41756e-17
2.52929e-17
1.86319e-17
1.36612e-17
9.97012e-18
7.24247e-18
5.23661e-18
3.76868e-18
2.69965e-18
1.92487e-18
1.36607e-18
9.64978e-19
6.78448e-19
4.74687e-19
3.30355e-19
2.28351e-19
1.56129e-19
1.04433e-19
6.63797e-20
3.68067e-20
1.17928e-20
2.99192e-20
9.17416e-20
1.59882e-19
2.39655e-19
3.37762e-19
4.62601e-19
6.24632e-19
8.36937e-19
1.11602e-18
1.48284e-18
1.9642e-18
2.59436e-18
3.4171e-18
4.48825e-18
5.87885e-18
7.67896e-18
1.00024e-17
1.29927e-17
1.68299e-17
2.17397e-17
2.80033e-17
3.59707e-17
4.60754e-17
5.88532e-17
7.49632e-17
9.52142e-17
1.20595e-16
1.5231e-16
1.91822e-16
2.409e-16
3.01677e-16
3.76714e-16
4.69078e-16
5.82424e-16
7.21095e-16
8.90233e-16
1.0959e-15
1.34522e-15
1.64652e-15
2.00952e-15
2.44549e-15
2.96747e-15
3.59049e-15
4.33177e-15
5.21096e-15
6.25045e-15
7.47556e-15
8.91483e-15
1.06003e-14
1.25677e-14
1.48568e-14
1.75115e-14
2.05803e-14
2.41159e-14
2.81762e-14
3.28233e-14
3.81243e-14
4.41511e-14
5.09797e-14
5.86904e-14
6.73674e-14
7.7098e-14
8.79721e-14
1.00081e-13
1.13518e-13
1.28375e-13
1.44741e-13
1.62706e-13
1.82351e-13
2.03754e-13
2.26984e-13
2.52099e-13
2.79146e-13
3.08159e-13
3.39154e-13
3.72132e-13
4.07071e-13
4.43931e-13
4.82646e-13
5.23127e-13
5.6526e-13
6.08902e-13
6.53888e-13
7.00022e-13
7.47083e-13
7.94826e-13
8.42981e-13
8.91256e-13
9.39338e-13
9.86899e-13
1.0336e-12
1.07908e-12
1.12299e-12
1.16497e-12
1.20466e-12
1.24171e-12
1.2758e-12
1.30661e-12
1.33383e-12
1.35721e-12
1.37652e-12
1.39156e-12
1.40216e-12
1.40822e-12
1.40966e-12
1.40646e-12
1.39863e-12
1.38626e-12
1.36944e-12
1.34836e-12
1.3232e-12
1.29422e-12
1.2617e-12
1.22594e-12
1.18731e-12
1.14616e-12
1.10289e-12
1.0579e-12
1.0116e-12
9.64423e-13
9.16773e-13
8.69068e-13
8.21713e-13
7.75099e-13
7.29601e-13
6.85573e-13
6.43348e-13
6.03233e-13
5.6551e-13
5.30431e-13
4.98223e-13
4.6908e-13
4.4317e-13
4.20629e-13
4.01567e-13
3.86062e-13
3.74166e-13
3.65902e-13
3.61266e-13
3.60228e-13
3.6273e-13
3.68689e-13
3.77996e-13
3.90515e-13
4.06087e-13
4.24526e-13
4.45621e-13
4.6914e-13
4.94823e-13
5.22391e-13
5.51544e-13
5.81959e-13
6.13299e-13
6.45213e-13
6.77334e-13
7.0929e-13
7.40703e-13
7.71196e-13
8.00394e-13
8.27934e-13
8.53465e-13
8.76655e-13
8.97197e-13
9.14812e-13
9.29255e-13
9.40319e-13
9.47836e-13
9.51685e-13
9.51787e-13
9.48115e-13
9.40686e-13
9.29565e-13
9.14866e-13
8.96742e-13
8.7539e-13
8.51043e-13
8.23966e-13
7.94451e-13
7.62812e-13
7.2938e-13
6.94494e-13
6.58499e-13
6.21736e-13
5.84542e-13
5.4724e-13
5.10135e-13
4.73512e-13
4.37634e-13
4.02734e-13
3.69017e-13
3.36659e-13
3.05804e-13
2.76568e-13
2.49034e-13
2.23258e-13
1.99272e-13
1.77079e-13
1.56663e-13
1.37987e-13
1.20999e-13
1.05629e-13
9.18013e-14
7.94268e-14
6.84127e-14
5.86613e-14
5.00737e-14
4.25507e-14
3.59946e-14
3.03109e-14
2.54091e-14
2.12032e-14
1.76131e-14
1.45643e-14
1.19882e-14
9.82277e-15
8.01164e-15
6.50452e-15
5.2567e-15
4.22876e-15
3.38619e-15
2.69902e-15
2.1414e-15
1.69115e-15
1.3294e-15
1.04021e-15
8.1017e-16
6.28082e-16
4.84666e-16
3.72265e-16
2.84607e-16
2.16582e-16
1.64051e-16
1.23685e-16
9.28186e-17
6.93319e-17
5.15478e-17
3.81475e-17
2.80996e-17
2.06022e-17
1.50351e-17
1.09213e-17
7.89633e-18
5.68269e-18
4.07064e-18
2.90236e-18
2.05977e-18
1.45499e-18
1.02296e-18
7.15738e-19
4.98119e-19
3.44322e-19
2.3543e-19
1.57485e-19
1.00106e-19
5.55112e-20
1.77865e-20
4.94293e-20
1.51565e-19
2.64136e-19
3.95913e-19
5.57956e-19
7.64117e-19
1.03165e-18
1.38214e-18
1.8428e-18
2.4482e-18
3.24252e-18
4.28222e-18
5.63946e-18
7.40625e-18
9.69959e-18
1.26678e-17
1.64985e-17
2.14277e-17
2.77521e-17
3.58428e-17
4.61629e-17
5.92879e-17
7.5931e-17
9.6973e-17
1.23498e-16
1.56834e-16
1.98608e-16
2.50796e-16
3.15803e-16
3.96531e-16
4.96481e-16
6.19857e-16
7.71689e-16
9.57971e-16
1.18582e-15
1.46367e-15
1.80144e-15
2.2108e-15
2.70539e-15
3.3011e-15
4.01638e-15
4.87254e-15
5.89412e-15
7.10926e-15
8.55006e-15
1.0253e-14
1.22595e-14
1.46159e-14
1.73744e-14
2.05934e-14
2.43373e-14
2.86777e-14
3.36932e-14
3.94696e-14
4.61004e-14
5.36867e-14
6.23369e-14
7.21671e-14
8.33004e-14
9.58663e-14
1.1e-13
1.25843e-13
1.43539e-13
1.63235e-13
1.8508e-13
2.09219e-13
2.35798e-13
2.64956e-13
2.96824e-13
3.31522e-13
3.69158e-13
4.09823e-13
4.53589e-13
5.00504e-13
5.5059e-13
6.03842e-13
6.6022e-13
7.19651e-13
7.82024e-13
8.47188e-13
9.14954e-13
9.85085e-13
1.05731e-12
1.1313e-12
1.2067e-12
1.28312e-12
1.3601e-12
1.43718e-12
1.51385e-12
1.58959e-12
1.66384e-12
1.73603e-12
1.8056e-12
1.87196e-12
1.93457e-12
1.99285e-12
2.04629e-12
2.09438e-12
2.13667e-12
2.17275e-12
2.20224e-12
2.22486e-12
2.24035e-12
2.24855e-12
2.24936e-12
2.24275e-12
2.22878e-12
2.20756e-12
2.17931e-12
2.14429e-12
2.10284e-12
2.05536e-12
2.00231e-12
1.94421e-12
1.88162e-12
1.81513e-12
1.74536e-12
1.67297e-12
1.59861e-12
1.52296e-12
1.44666e-12
1.37039e-12
1.29477e-12
1.22042e-12
1.14792e-12
1.07785e-12
1.0107e-12
9.46952e-13
8.87049e-13
8.31376e-13
7.80277e-13
7.34048e-13
6.92941e-13
6.57158e-13
6.26857e-13
6.02152e-13
5.83109e-13
5.69755e-13
5.6207e-13
5.59996e-13
5.63432e-13
5.72236e-13
5.86229e-13
6.05191e-13
6.28863e-13
6.56949e-13
6.89115e-13
7.24992e-13
7.64173e-13
8.0622e-13
8.50664e-13
8.97006e-13
9.4472e-13
9.93263e-13
1.04207e-12
1.09057e-12
1.13819e-12
1.18433e-12
1.22844e-12
1.26996e-12
1.30836e-12
1.34313e-12
1.37381e-12
1.39998e-12
1.42128e-12
1.4374e-12
1.44808e-12
1.45316e-12
1.45252e-12
1.44613e-12
1.43402e-12
1.41632e-12
1.39319e-12
1.36488e-12
1.33169e-12
1.29399e-12
1.25219e-12
1.20674e-12
1.15811e-12
1.10681e-12
1.05337e-12
9.98303e-13
9.42131e-13
8.85364e-13
8.28489e-13
7.7197e-13
7.16237e-13
6.61682e-13
6.08656e-13
5.57467e-13
5.08376e-13
4.61598e-13
4.17302e-13
3.75612e-13
3.36608e-13
3.00332e-13
2.66787e-13
2.35945e-13
2.07746e-13
1.82106e-13
1.58923e-13
1.38073e-13
1.19424e-13
1.02831e-13
8.81478e-14
7.52217e-14
6.39022e-14
5.40415e-14
4.5496e-14
3.81285e-14
3.18093e-14
2.6417e-14
2.1839e-14
1.79722e-14
1.47226e-14
1.20055e-14
9.74509e-15
7.87406e-15
6.3331e-15
5.07034e-15
4.04071e-15
3.20536e-15
2.531e-15
1.98931e-15
1.55634e-15
1.21199e-15
9.39473e-16
7.24866e-16
5.56696e-16
4.25564e-16
3.23815e-16
2.45253e-16
1.8489e-16
1.38739e-16
1.03625e-16
7.7039e-17
5.70086e-17
4.19905e-17
3.07853e-17
2.24655e-17
1.63181e-17
1.1798e-17
8.49033e-18
6.08169e-18
4.33618e-18
3.07731e-18
2.17376e-18
1.52832e-18
1.06933e-18
7.44213e-19
5.14448e-19
3.51767e-19
2.35319e-19
1.49592e-19
8.29578e-20
2.65819e-20
8.12146e-20
2.49028e-19
4.3398e-19
6.5047e-19
9.16646e-19
1.25524e-18
1.69456e-18
2.27e-18
3.02621e-18
4.01988e-18
5.32344e-18
7.02946e-18
9.2562e-18
1.21544e-17
1.59159e-17
2.07836e-17
2.70646e-17
3.51456e-17
4.55123e-17
5.87721e-17
7.56828e-17
9.71862e-17
1.24449e-16
1.58911e-16
2.02345e-16
2.56924e-16
3.25303e-16
4.10714e-16
5.17082e-16
6.49148e-16
8.12628e-16
1.01438e-15
1.26261e-15
1.5671e-15
1.93945e-15
2.3934e-15
2.94513e-15
3.61362e-15
4.42109e-15
5.3934e-15
6.56056e-15
7.95723e-15
9.62329e-15
1.16044e-14
1.39528e-14
1.67277e-14
1.9996e-14
2.38332e-14
2.83237e-14
3.35619e-14
3.96524e-14
4.67107e-14
5.48637e-14
6.42502e-14
7.50209e-14
8.73386e-14
1.01378e-13
1.17326e-13
1.35381e-13
1.55749e-13
1.78649e-13
2.04306e-13
2.3295e-13
2.64815e-13
3.00138e-13
3.39153e-13
3.82087e-13
4.2916e-13
4.80578e-13
5.36532e-13
5.97186e-13
6.62681e-13
7.33125e-13
8.08587e-13
8.89095e-13
9.74631e-13
1.06512e-12
1.16044e-12
1.2604e-12
1.36475e-12
1.47317e-12
1.58527e-12
1.70061e-12
1.81867e-12
1.93885e-12
2.06051e-12
2.18294e-12
2.30537e-12
2.42699e-12
2.54696e-12
2.66439e-12
2.77838e-12
2.88801e-12
2.99238e-12
3.0906e-12
3.18178e-12
3.26509e-12
3.33976e-12
3.40507e-12
3.46038e-12
3.50513e-12
3.53885e-12
3.56119e-12
3.5719e-12
3.57084e-12
3.55801e-12
3.53349e-12
3.49752e-12
3.45044e-12
3.39269e-12
3.32484e-12
3.24754e-12
3.16155e-12
3.06769e-12
2.96687e-12
2.86003e-12
2.74817e-12
2.63232e-12
2.51354e-12
2.39287e-12
2.27136e-12
2.15005e-12
2.02993e-12
1.91196e-12
1.79706e-12
1.6861e-12
1.57986e-12
1.4791e-12
1.38447e-12
1.29656e-12
1.21591e-12
1.14295e-12
1.07807e-12
1.02156e-12
9.73645e-13
9.34487e-13
9.04172e-13
8.8272e-13
8.70085e-13
8.66156e-13
8.70761e-13
8.83664e-13
9.04569e-13
9.33122e-13
9.68909e-13
1.01146e-12
1.06024e-12
1.11468e-12
1.17414e-12
1.23794e-12
1.30534e-12
1.37558e-12
1.44785e-12
1.52131e-12
1.59509e-12
1.66832e-12
1.74011e-12
1.80959e-12
1.87588e-12
1.93815e-12
1.99558e-12
2.04744e-12
2.09301e-12
2.13167e-12
2.16287e-12
2.18617e-12
2.2012e-12
2.2077e-12
2.20552e-12
2.19463e-12
2.1751e-12
2.1471e-12
2.11093e-12
2.06696e-12
2.01566e-12
1.95761e-12
1.89341e-12
1.82377e-12
1.74942e-12
1.67113e-12
1.58967e-12
1.50586e-12
1.42046e-12
1.33426e-12
1.24799e-12
1.16233e-12
1.07794e-12
9.95406e-13
9.15247e-13
8.37923e-13
7.63822e-13
6.9326e-13
6.26485e-13
5.63678e-13
5.04954e-13
4.50367e-13
3.99919e-13
3.53559e-13
3.11194e-13
2.72695e-13
2.37899e-13
2.06621e-13
1.78656e-13
1.53787e-13
1.31787e-13
1.12429e-13
9.54832e-14
8.07269e-14
6.79434e-14
5.6926e-14
4.74794e-14
3.9421e-14
3.25818e-14
2.68067e-14
2.19549e-14
1.78992e-14
1.45261e-14
1.17348e-14
9.43653e-15
7.5536e-15
6.01865e-15
4.77359e-15
3.7687e-15
2.96167e-15
2.31674e-15
1.8039e-15
1.39811e-15
1.0786e-15
8.28268e-16
6.33098e-16
4.8168e-16
3.64783e-16
2.74977e-16
2.06322e-16
1.54091e-16
1.1455e-16
8.47616e-17
6.24289e-17
4.57674e-17
3.33973e-17
2.42577e-17
1.75377e-17
1.26206e-17
9.04005e-18
6.44536e-18
4.57412e-18
3.23108e-18
2.2717e-18
1.58947e-18
1.10623e-18
7.6472e-19
5.22919e-19
3.49833e-19
2.22405e-19
1.23346e-19
3.95251e-20
1.32786e-19
4.0716e-19
7.09545e-19
1.06346e-18
1.49855e-18
2.05192e-18
2.76979e-18
3.70995e-18
4.94525e-18
6.56824e-18
8.69706e-18
1.14827e-17
1.51182e-17
1.98492e-17
2.59885e-17
3.39321e-17
4.41806e-17
5.73642e-17
7.4274e-17
9.58995e-17
1.23475e-16
1.58534e-16
2.02975e-16
2.59142e-16
3.2992e-16
4.18842e-16
5.30228e-16
6.69333e-16
8.42534e-16
1.05754e-15
1.32363e-15
1.65196e-15
2.05583e-15
2.55113e-15
3.15668e-15
3.89476e-15
4.79161e-15
5.87802e-15
7.18995e-15
8.76931e-15
1.06647e-14
1.29321e-14
1.56362e-14
1.88508e-14
2.26601e-14
2.71599e-14
3.24582e-14
3.86768e-14
4.59519e-14
5.44355e-14
6.4296e-14
7.57194e-14
8.89098e-14
1.0409e-13
1.21502e-13
1.41408e-13
1.64087e-13
1.89838e-13
2.18978e-13
2.51839e-13
2.88767e-13
3.30121e-13
3.76269e-13
4.27582e-13
4.84434e-13
5.47195e-13
6.16225e-13
6.91869e-13
7.74449e-13
8.64261e-13
9.6156e-13
1.06656e-12
1.17942e-12
1.30025e-12
1.42906e-12
1.56583e-12
1.71041e-12
1.8626e-12
2.02207e-12
2.18841e-12
2.36109e-12
2.53949e-12
2.72286e-12
2.91038e-12
3.10107e-12
3.29391e-12
3.48774e-12
3.68135e-12
3.87343e-12
4.06262e-12
4.24753e-12
4.42672e-12
4.59875e-12
4.76216e-12
4.91556e-12
5.05757e-12
5.18688e-12
5.30229e-12
5.40267e-12
5.48703e-12
5.55452e-12
5.60444e-12
5.63626e-12
5.6496e-12
5.64431e-12
5.62038e-12
5.57802e-12
5.51762e-12
5.43975e-12
5.34517e-12
5.23477e-12
5.10965e-12
4.97099e-12
4.82015e-12
4.65854e-12
4.4877e-12
4.30921e-12
4.1247e-12
3.93583e-12
3.74426e-12
3.55162e-12
3.35954e-12
3.16958e-12
2.98323e-12
2.80192e-12
2.62698e-12
2.45963e-12
2.30103e-12
2.15217e-12
2.01396e-12
1.8872e-12
1.77256e-12
1.67058e-12
1.58171e-12
1.50626e-12
1.44447e-12
1.39643e-12
1.36214e-12
1.34151e-12
1.33434e-12
1.34034e-12
1.35911e-12
1.39018e-12
1.43297e-12
1.48684e-12
1.55102e-12
1.62471e-12
1.70698e-12
1.79684e-12
1.89325e-12
1.99507e-12
2.10112e-12
2.21014e-12
2.32087e-12
2.43197e-12
2.5421e-12
2.64994e-12
2.75413e-12
2.85337e-12
2.94638e-12
3.03197e-12
3.10899e-12
3.17639e-12
3.23326e-12
3.27878e-12
3.31227e-12
3.33322e-12
3.34126e-12
3.33618e-12
3.31794e-12
3.28668e-12
3.24268e-12
3.1864e-12
3.11843e-12
3.0395e-12
2.95048e-12
2.85232e-12
2.74607e-12
2.63284e-12
2.51381e-12
2.39015e-12
2.26308e-12
2.13376e-12
2.00337e-12
1.87299e-12
1.74367e-12
1.61637e-12
1.49197e-12
1.37125e-12
1.25489e-12
1.14345e-12
1.0374e-12
9.37115e-13
8.42843e-13
7.54751e-13
6.72913e-13
5.97321e-13
5.27891e-13
4.64477e-13
4.06876e-13
3.54842e-13
3.0809e-13
2.66308e-13
2.29167e-13
1.96326e-13
1.67438e-13
1.42161e-13
1.20158e-13
1.01104e-13
8.46872e-14
7.06161e-14
5.86166e-14
4.84357e-14
3.98415e-14
3.26232e-14
2.65912e-14
2.15758e-14
1.74264e-14
1.40108e-14
1.12131e-14
8.93294e-15
7.08385e-15
5.59174e-15
4.39365e-15
3.4364e-15
2.67535e-15
2.07325e-15
1.59926e-15
1.22795e-15
9.38498e-16
7.13966e-16
5.40645e-16
4.07508e-16
3.05738e-16
2.28323e-16
1.69722e-16
1.25578e-16
9.24864e-17
6.77996e-17
4.94724e-17
3.59323e-17
2.59773e-17
1.86935e-17
1.33898e-17
9.5465e-18
6.77487e-18
4.78564e-18
3.36468e-18
2.35424e-18
1.63852e-18
1.13271e-18
7.74583e-19
5.18227e-19
3.29484e-19
1.82744e-19
5.85617e-20
2.16078e-19
6.62552e-19
1.15459e-18
1.73043e-18
2.43825e-18
3.33835e-18
4.50584e-18
6.0346e-18
8.04297e-18
1.06813e-17
1.41414e-17
1.86685e-17
2.45757e-17
3.22622e-17
4.22351e-17
5.51372e-17
7.17805e-17
9.3187e-17
1.2064e-16
1.55743e-16
2.00497e-16
2.57387e-16
3.29489e-16
4.20602e-16
5.35395e-16
6.79592e-16
8.60181e-16
1.08567e-15
1.36638e-15
1.71477e-15
2.14586e-15
2.67766e-15
3.33169e-15
4.1336e-15
5.11382e-15
6.30829e-15
7.75936e-15
9.51671e-15
1.16384e-14
1.41919e-14
1.72555e-14
2.09196e-14
2.5288e-14
3.04798e-14
3.66304e-14
4.38936e-14
5.24433e-14
6.24749e-14
7.4207e-14
8.78835e-14
1.03775e-13
1.22178e-13
1.4342e-13
1.67859e-13
1.9588e-13
2.27901e-13
2.64369e-13
3.05761e-13
3.5258e-13
4.05355e-13
4.64637e-13
5.30993e-13
6.05006e-13
6.87265e-13
7.78359e-13
8.7887e-13
9.89363e-13
1.11038e-12
1.24242e-12
1.38594e-12
1.54133e-12
1.70893e-12
1.88896e-12
2.08156e-12
2.28678e-12
2.5045e-12
2.73452e-12
2.97644e-12
3.22976e-12
3.49377e-12
3.76763e-12
4.05031e-12
4.34062e-12
4.6372e-12
4.93851e-12
5.24288e-12
5.54848e-12
5.85336e-12
6.15545e-12
6.45259e-12
6.74256e-12
7.02308e-12
7.29189e-12
7.5467e-12
7.78531e-12
8.00557e-12
8.20544e-12
8.38304e-12
8.53664e-12
8.66471e-12
8.76596e-12
8.83932e-12
8.88401e-12
8.89951e-12
8.88559e-12
8.84234e-12
8.77013e-12
8.66962e-12
8.54177e-12
8.38781e-12
8.20923e-12
8.00776e-12
7.78534e-12
7.54409e-12
7.28631e-12
7.0144e-12
6.73089e-12
6.43833e-12
6.13934e-12
5.83651e-12
5.53242e-12
5.22958e-12
4.93043e-12
4.63728e-12
4.35234e-12
4.07765e-12
3.81512e-12
3.56647e-12
3.33324e-12
3.11682e-12
2.91838e-12
2.73893e-12
2.57927e-12
2.44006e-12
2.32175e-12
2.22462e-12
2.14881e-12
2.09427e-12
2.0608e-12
2.04807e-12
2.05558e-12
2.08269e-12
2.12864e-12
2.1925e-12
2.27325e-12
2.3697e-12
2.48056e-12