/*--------------------------------*- C++ -*----------------------------------*\
| =========                 |                                                 |
| \\      /  F ield         | OpenFOAM: The Open Source CFD Toolbox           |
|  \\    /   O peration     | Version:  v2012                                 |
|   \\  /    A nd           | Website:  www.openfoam.com                      |
|    \\/     M anipulation  |                                                 |
\*---------------------------------------------------------------------------*/
FoamFile
{
    version     2.0;
    format      ascii;
    class       volScalarField;
    location    "18.1";
    object      Psi_z;
}
// * * * * * * * * * * * * * * * * * * * * * * * * * * * * * * * * * * * * * //

dimensions      [0 2 -1 0 0 0 0];


internalField   nonuniform List<scalar> 
65536
(
8.12702e-06
2.43815e-05
4.06372e-05
5.68948e-05
7.31551e-05
8.94189e-05
0.000105687
0.00012196
0.000138238
0.000154523
0.000170815
0.000187115
0.000203424
0.000219741
0.000236068
0.000252405
0.000268754
0.000285114
0.000301485
0.000317869
0.000334266
0.000350677
0.0003671
0.000383538
0.00039999
0.000416457
0.000432938
0.000449434
0.000465945
0.000482471
0.000499012
0.000515567
0.000532137
0.000548722
0.00056532
0.000581933
0.000598558
0.000615197
0.000631847
0.00064851
0.000665182
0.000681865
0.000698556
0.000715256
0.000731962
0.000748673
0.000765388
0.000782106
0.000798825
0.000815543
0.000832258
0.000848969
0.000865673
0.000882369
0.000899053
0.000915723
0.000932377
0.000949012
0.000965625
0.000982214
0.000998773
0.0010153
0.00103179
0.00104825
0.00106466
0.00108103
0.00109734
0.0011136
0.0011298
0.00114594
0.001162
0.00117799
0.00119391
0.00120974
0.00122548
0.00124112
0.00125666
0.0012721
0.00128742
0.00130262
0.0013177
0.00133264
0.00134745
0.00136211
0.00137661
0.00139096
0.00140514
0.00141914
0.00143296
0.00144659
0.00146003
0.00147326
0.00148627
0.00149907
0.00151164
0.00152397
0.00153606
0.0015479
0.00155948
0.00157079
0.00158182
0.00159258
0.00160304
0.0016132
0.00162306
0.0016326
0.00164182
0.00165072
0.00165927
0.00166749
0.00167536
0.00168287
0.00169002
0.00169681
0.00170322
0.00170925
0.0017149
0.00172016
0.00172502
0.00172949
0.00173355
0.00173721
0.00174046
0.00174329
0.00174571
0.00174771
0.0017493
0.00175046
0.00175119
0.00175151
0.0017514
0.00175086
0.00174991
0.00174853
0.00174672
0.0017445
0.00174185
0.00173879
0.00173532
0.00173143
0.00172714
0.00172244
0.00171734
0.00171185
0.00170596
0.00169968
0.00169303
0.00168599
0.00167859
0.00167082
0.00166269
0.00165421
0.00164538
0.00163622
0.00162672
0.00161689
0.00160675
0.00159629
0.00158553
0.00157448
0.00156313
0.00155151
0.00153961
0.00152744
0.00151502
0.00150235
0.00148943
0.00147628
0.00146291
0.00144931
0.0014355
0.00142149
0.00140729
0.00139289
0.00137831
0.00136356
0.00134863
0.00133355
0.00131832
0.00130294
0.00128742
0.00127176
0.00125598
0.00124008
0.00122406
0.00120794
0.00119171
0.00117538
0.00115896
0.00114246
0.00112588
0.00110922
0.00109248
0.00107569
0.00105883
0.00104191
0.00102494
0.00100792
0.000990856
0.00097375
0.000956606
0.000939428
0.000922219
0.000904982
0.00088772
0.000870437
0.000853134
0.000835814
0.000818481
0.000801135
0.00078378
0.000766418
0.00074905
0.000731678
0.000714304
0.000696929
0.000679555
0.000662184
0.000644816
0.000627453
0.000610096
0.000592745
0.000575402
0.000558067
0.000540741
0.000523425
0.000506118
0.000488823
0.000471537
0.000454263
0.000437
0.000419749
0.000402509
0.00038528
0.000368063
0.000350857
0.000333662
0.000316478
0.000299305
0.000282142
0.000264989
0.000247845
0.000230711
0.000213585
0.000196467
0.000179356
0.000162253
0.000145156
0.000128065
0.000110979
9.38977e-05
7.68201e-05
5.97457e-05
4.26737e-05
2.56035e-05
8.5344e-06
2.43808e-05
7.31437e-05
0.00012191
0.000170682
0.000219463
0.000268253
0.000317056
0.000365874
0.00041471
0.000463564
0.00051244
0.000561339
0.000610263
0.000659215
0.000708195
0.000757207
0.000806252
0.000855331
0.000904445
0.000953597
0.00100279
0.00105202
0.00110129
0.0011506
0.00119996
0.00124936
0.0012988
0.00134829
0.00139782
0.0014474
0.00149702
0.00154669
0.0015964
0.00164615
0.00169595
0.00174579
0.00179567
0.00184558
0.00189554
0.00194552
0.00199554
0.00204559
0.00209567
0.00214576
0.00219588
0.00224602
0.00229617
0.00234632
0.00239648
0.00244664
0.00249678
0.00254692
0.00259703
0.00264712
0.00269718
0.00274719
0.00279716
0.00284706
0.00289691
0.00294667
0.00299636
0.00304595
0.00309543
0.0031448
0.00319404
0.00324314
0.00329208
0.00334087
0.00338947
0.00343788
0.00348609
0.00353407
0.00358182
0.00362931
0.00367653
0.00372347
0.0037701
0.00381642
0.00386239
0.003908
0.00395324
0.00399808
0.0040425
0.00408648
0.00413
0.00417305
0.00421559
0.00425761
0.00429908
0.00433998
0.00438029
0.00441999
0.00445905
0.00449745
0.00453516
0.00457217
0.00460845
0.00464397
0.00467871
0.00471265
0.00474576
0.00477802
0.00480941
0.00483991
0.00486949
0.00489812
0.0049258
0.00495249
0.00497817
0.00500283
0.00502644
0.00504898
0.00507045
0.0050908
0.00511004
0.00512814
0.00514509
0.00516087
0.00517547
0.00518887
0.00520107
0.00521204
0.00522179
0.0052303
0.00523756
0.00524357
0.00524831
0.0052518
0.00525401
0.00525495
0.00525462
0.00525302
0.00525015
0.005246
0.00524059
0.00523391
0.00522598
0.0052168
0.00520637
0.00519471
0.00518183
0.00516773
0.00515243
0.00513593
0.00511827
0.00509944
0.00507946
0.00505836
0.00503614
0.00501282
0.00498843
0.00496298
0.00493649
0.00490898
0.00488047
0.00485099
0.00482055
0.00478917
0.00475689
0.00472372
0.00468968
0.00465479
0.00461909
0.00458259
0.00454531
0.00450729
0.00446854
0.00442908
0.00438894
0.00434815
0.00430672
0.00426467
0.00422204
0.00417884
0.0041351
0.00409083
0.00404606
0.00400081
0.0039551
0.00390895
0.00386238
0.00381541
0.00376806
0.00372035
0.00367229
0.00362391
0.00357522
0.00352623
0.00347698
0.00342746
0.0033777
0.00332772
0.00327752
0.00322712
0.00317654
0.00312578
0.00307487
0.0030238
0.00297261
0.00292128
0.00286985
0.00281831
0.00276668
0.00271497
0.00266318
0.00261133
0.00255942
0.00250745
0.00245545
0.00240341
0.00235135
0.00229926
0.00224715
0.00219503
0.00214291
0.00209078
0.00203866
0.00198655
0.00193444
0.00188235
0.00183028
0.00177823
0.0017262
0.00167419
0.00162221
0.00157026
0.00151834
0.00146646
0.0014146
0.00136278
0.00131099
0.00125923
0.00120751
0.00115583
0.00110418
0.00105256
0.00100098
0.000949423
0.000897904
0.000846415
0.000794956
0.000743525
0.000692122
0.000640745
0.000589392
0.000538062
0.000486752
0.000435462
0.00038419
0.000332933
0.000281689
0.000230457
0.000179234
0.000128019
7.68095e-05
2.56028e-05
4.06335e-05
0.000121902
0.000203177
0.000284462
0.000365759
0.000447075
0.000528411
0.000609772
0.000691162
0.000772583
0.00085404
0.000935536
0.00101707
0.00109866
0.00118029
0.00126198
0.00134372
0.00142551
0.00150737
0.00158929
0.00167127
0.00175332
0.00183544
0.00191762
0.00199988
0.00208222
0.00216462
0.0022471
0.00232966
0.00241229
0.00249499
0.00257777
0.00266062
0.00274355
0.00282654
0.0029096
0.00299274
0.00307593
0.00315919
0.0032425
0.00332587
0.00340929
0.00349275
0.00357625
0.00365979
0.00374335
0.00382694
0.00391053
0.00399414
0.00407774
0.00416132
0.00424489
0.00432842
0.00441191
0.00449534
0.00457871
0.00466199
0.00474518
0.00482826
0.00491122
0.00499404
0.00507669
0.00515918
0.00524147
0.00532355
0.0054054
0.00548699
0.00556831
0.00564933
0.00573003
0.00581039
0.00589038
0.00596998
0.00604915
0.00612787
0.00620612
0.00628387
0.00636107
0.00643771
0.00651376
0.00658917
0.00666393
0.00673798
0.00681131
0.00688387
0.00695564
0.00702656
0.00709662
0.00716576
0.00723396
0.00730117
0.00736736
0.00743249
0.00749651
0.0075594
0.0076211
0.00768159
0.00774081
0.00779874
0.00785533
0.00791054
0.00796434
0.00801669
0.00806754
0.00811686
0.00816461
0.00821075
0.00825526
0.00829809
0.00833921
0.00837858
0.00841618
0.00845197
0.00848592
0.008518
0.00854819
0.00857645
0.00860277
0.00862711
0.00864946
0.0086698
0.00868811
0.00870436
0.00871855
0.00873066
0.00874068
0.0087486
0.0087544
0.0087581
0.00875967
0.00875912
0.00875645
0.00875165
0.00874474
0.00873572
0.00872459
0.00871136
0.00869605
0.00867866
0.00865922
0.00863773
0.00861422
0.0085887
0.0085612
0.00853174
0.00850034
0.00846703
0.00843183
0.00839478
0.0083559
0.00831522
0.00827278
0.00822861
0.00818274
0.0081352
0.00808604
0.00803528
0.00798297
0.00792914
0.00787382
0.00781706
0.0077589
0.00769937
0.00763851
0.00757636
0.00751295
0.00744834
0.00738256
0.00731563
0.00724762
0.00717854
0.00710845
0.00703737
0.00696535
0.00689241
0.00681861
0.00674397
0.00666853
0.00659232
0.00651538
0.00643774
0.00635944
0.0062805
0.00620096
0.00612084
0.00604019
0.00595902
0.00587736
0.00579525
0.00571271
0.00562976
0.00554643
0.00546275
0.00537874
0.00529442
0.00520981
0.00512494
0.00503982
0.00495448
0.00486893
0.0047832
0.00469729
0.00461123
0.00452503
0.00443871
0.00435227
0.00426575
0.00417914
0.00409246
0.00400572
0.00391894
0.00383211
0.00374526
0.00365839
0.00357152
0.00348464
0.00339776
0.0033109
0.00322405
0.00313723
0.00305044
0.00296368
0.00287697
0.00279029
0.00270365
0.00261707
0.00253054
0.00244406
0.00235763
0.00227126
0.00218494
0.00209868
0.00201248
0.00192634
0.00184026
0.00175423
0.00166826
0.00158234
0.00149647
0.00141066
0.00132489
0.00123918
0.00115351
0.00106788
0.000982294
0.000896746
0.000811232
0.000725751
0.000640299
0.000554872
0.000469469
0.000384084
0.000298716
0.00021336
0.000128012
4.26702e-05
5.68841e-05
0.000170655
0.000284434
0.000398227
0.000512039
0.000625875
0.00073974
0.000853641
0.000967581
0.00108157
0.0011956
0.00130969
0.00142384
0.00153805
0.00165234
0.00176669
0.00188112
0.00199563
0.00211023
0.00222491
0.00233968
0.00245455
0.00256951
0.00268457
0.00279974
0.002915
0.00303037
0.00314584
0.00326141
0.0033771
0.00349288
0.00360877
0.00372477
0.00384086
0.00395706
0.00407335
0.00418974
0.00430622
0.00442278
0.00453943
0.00465615
0.00477294
0.0048898
0.00500671
0.00512367
0.00524066
0.00535769
0.00547474
0.0055918
0.00570885
0.00582588
0.00594289
0.00605985
0.00617675
0.00629357
0.0064103
0.00652692
0.00664341
0.00675974
0.0068759
0.00699187
0.00710762
0.00722312
0.00733835
0.00745329
0.00756791
0.00768217
0.00779605
0.00790951
0.00802253
0.00813506
0.00824709
0.00835856
0.00846944
0.00857969
0.00868928
0.00879816
0.00890629
0.00901364
0.00912014
0.00922577
0.00933047
0.0094342
0.0095369
0.00963854
0.00973906
0.00983841
0.00993654
0.0100334
0.0101289
0.0102231
0.0103158
0.010407
0.0104967
0.0105848
0.0106712
0.010756
0.010839
0.0109201
0.0109994
0.0110767
0.0111521
0.0112254
0.0112967
0.0113658
0.0114327
0.0114974
0.0115597
0.0116197
0.0116773
0.0117325
0.0117852
0.0118353
0.0118829
0.0119279
0.0119702
0.0120098
0.0120466
0.0120807
0.0121121
0.0121406
0.0121662
0.012189
0.0122089
0.0122258
0.0122399
0.012251
0.0122591
0.0122643
0.0122665
0.0122657
0.012262
0.0122553
0.0122456
0.012233
0.0122174
0.0121988
0.0121774
0.012153
0.0121258
0.0120957
0.0120627
0.012027
0.0119884
0.0119471
0.0119031
0.0118565
0.0118072
0.0117552
0.0117008
0.0116438
0.0115843
0.0115224
0.0114582
0.0113916
0.0113227
0.0112516
0.0111783
0.0111029
0.0110254
0.0109459
0.0108644
0.010781
0.0106957
0.0106087
0.0105198
0.0104293
0.0103372
0.0102434
0.0101481
0.0100514
0.0099532
0.00985364
0.00975276
0.0096506
0.00954723
0.00944268
0.00933702
0.00923028
0.00912251
0.00901377
0.0089041
0.00879354
0.00868214
0.00856994
0.00845698
0.0083433
0.00822895
0.00811395
0.00799835
0.00788219
0.0077655
0.00764832
0.00753067
0.00741259
0.00729411
0.00717526
0.00705607
0.00693656
0.00681677
0.00669671
0.00657642
0.00645591
0.00633521
0.00621434
0.00609332
0.00597216
0.00585089
0.00572952
0.00560808
0.00548656
0.005365
0.00524339
0.00512177
0.00500013
0.00487848
0.00475685
0.00463523
0.00451364
0.00439209
0.00427057
0.00414911
0.00402769
0.00390634
0.00378505
0.00366383
0.00354268
0.0034216
0.0033006
0.00317968
0.00305884
0.00293808
0.0028174
0.0026968
0.00257628
0.00245584
0.00233548
0.0022152
0.00209499
0.00197485
0.00185479
0.00173479
0.00161485
0.00149498
0.00137516
0.00125539
0.00113568
0.00101601
0.000896382
0.00077679
0.000657229
0.000537696
0.000418185
0.000298691
0.00017921
5.97357e-05
7.31321e-05
0.0002194
0.000365678
0.000511974
0.000658294
0.000804645
0.000951035
0.00109747
0.00124396
0.0013905
0.00153711
0.00168379
0.00183054
0.00197738
0.00212431
0.00227133
0.00241845
0.00256567
0.002713
0.00286044
0.003008
0.00315568
0.00330349
0.00345142
0.00359948
0.00374768
0.00389601
0.00404447
0.00419307
0.0043418
0.00449067
0.00463967
0.00478881
0.00493808
0.00508748
0.005237
0.00538665
0.00553642
0.00568629
0.00583627
0.00598635
0.00613653
0.00628678
0.00643711
0.0065875
0.00673794
0.00688843
0.00703894
0.00718946
0.00733997
0.00749047
0.00764093
0.00779134
0.00794166
0.0080919
0.00824201
0.00839198
0.00854178
0.00869139
0.00884078
0.00898992
0.00913878
0.00928733
0.00943553
0.00958336
0.00973077
0.00987773
0.0100242
0.0101701
0.0103155
0.0104603
0.0106043
0.0107477
0.0108903
0.0110322
0.0111731
0.0113132
0.0114523
0.0115904
0.0117274
0.0118633
0.011998
0.0121314
0.0122636
0.0123943
0.0125237
0.0126515
0.0127777
0.0129023
0.0130253
0.0131464
0.0132657
0.0133831
0.0134985
0.0136119
0.0137231
0.0138321
0.0139389
0.0140433
0.0141454
0.0142449
0.0143419
0.0144363
0.014528
0.0146169
0.014703
0.0147862
0.0148665
0.0149437
0.0150179
0.0150889
0.0151567
0.0152213
0.0152825
0.0153404
0.0153948
0.0154458
0.0154933
0.0155372
0.0155775
0.0156142
0.0156472
0.0156765
0.0157021
0.015724
0.015742
0.0157563
0.0157668
0.0157735
0.0157763
0.0157753
0.0157705
0.0157619
0.0157494
0.0157331
0.0157131
0.0156892
0.0156616
0.0156302
0.0155952
0.0155564
0.015514
0.015468
0.0154184
0.0153653
0.0153086
0.0152486
0.0151851
0.0151183
0.0150482
0.0149748
0.0148983
0.0148186
0.0147359
0.0146502
0.0145616
0.01447
0.0143757
0.0142787
0.0141789
0.0140766
0.0139718
0.0138644
0.0137547
0.0136427
0.0135284
0.0134119
0.0132934
0.0131727
0.0130502
0.0129257
0.0127993
0.0126712
0.0125414
0.01241
0.012277
0.0121425
0.0120066
0.0118693
0.0117306
0.0115907
0.0114497
0.0113074
0.0111641
0.0110198
0.0108745
0.0107283
0.0105812
0.0104333
0.0102846
0.0101352
0.00998507
0.00983434
0.00968303
0.00953116
0.00937878
0.00922592
0.00907263
0.00891893
0.00876487
0.00861047
0.00845577
0.00830079
0.00814557
0.00799013
0.00783449
0.00767869
0.00752274
0.00736667
0.0072105
0.00705424
0.00689792
0.00674155
0.00658515
0.00642874
0.00627232
0.00611592
0.00595954
0.0058032
0.0056469
0.00549065
0.00533447
0.00517836
0.00502233
0.00486638
0.00471052
0.00455475
0.00439907
0.0042435
0.00408803
0.00393266
0.00377739
0.00362223
0.00346718
0.00331223
0.00315738
0.00300263
0.00284798
0.00269343
0.00253898
0.00238461
0.00223033
0.00207613
0.00192201
0.00176797
0.00161399
0.00146008
0.00130623
0.00115243
0.000998676
0.000844963
0.000691285
0.000537636
0.00038401
0.0002304
7.67988e-05
8.93765e-05
0.000268134
0.000446904
0.000625696
0.000804517
0.000983377
0.00116228
0.00134125
0.00152027
0.00169937
0.00187854
0.0020578
0.00223716
0.00241662
0.00259618
0.00277586
0.00295567
0.00313559
0.00331566
0.00349586
0.0036762
0.00385669
0.00403734
0.00421814
0.0043991
0.00458022
0.00476151
0.00494296
0.00512458
0.00530637
0.00548832
0.00567044
0.00585272
0.00603517
0.00621777
0.00640053
0.00658344
0.0067665
0.00694969
0.00713302
0.00731647
0.00750003
0.00768369
0.00786745
0.00805128
0.00823518
0.00841913
0.00860312
0.00878712
0.00897112
0.00915509
0.00933903
0.0095229
0.00970667
0.00989034
0.0100739
0.0102572
0.0104403
0.0106233
0.0108059
0.0109882
0.0111703
0.0113519
0.0115331
0.0117138
0.0118941
0.0120738
0.0122529
0.0124313
0.0126091
0.0127861
0.0129623
0.0131376
0.0133121
0.0134855
0.0136579
0.0138292
0.0139993
0.0141682
0.0143358
0.014502
0.0146667
0.01483
0.0149916
0.0151515
0.0153097
0.0154661
0.0156206
0.015773
0.0159234
0.0160716
0.0162175
0.0163611
0.0165023
0.016641
0.0167771
0.0169106
0.0170412
0.017169
0.0172938
0.0174157
0.0175343
0.0176498
0.017762
0.0178709
0.0179763
0.0180781
0.0181763
0.0182709
0.0183616
0.0184485
0.0185315
0.0186105
0.0186855
0.0187563
0.0188229
0.0188853
0.0189434
0.0189972
0.0190465
0.0190915
0.0191319
0.0191678
0.0191991
0.0192259
0.019248
0.0192655
0.0192783
0.0192865
0.01929
0.0192888
0.0192829
0.0192723
0.019257
0.0192371
0.0192126
0.0191834
0.0191496
0.0191112
0.0190683
0.0190208
0.0189689
0.0189126
0.0188519
0.0187869
0.0187176
0.018644
0.0185664
0.0184846
0.0183988
0.018309
0.0182154
0.0181179
0.0180167
0.0179118
0.0178033
0.0176913
0.0175759
0.0174571
0.0173351
0.0172099
0.0170816
0.0169503
0.0168161
0.016679
0.0165392
0.0163967
0.0162516
0.016104
0.0159541
0.0158018
0.0156472
0.0154905
0.0153318
0.015171
0.0150083
0.0148438
0.0146775
0.0145096
0.01434
0.0141689
0.0139963
0.0138224
0.0136471
0.0134706
0.0132929
0.0131141
0.0129342
0.0127533
0.0125715
0.0123888
0.0122053
0.012021
0.0118359
0.0116502
0.0114639
0.011277
0.0110896
0.0109017
0.0107133
0.0105245
0.0103354
0.0101459
0.00995615
0.00976611
0.00957584
0.00938537
0.00919472
0.00900392
0.008813
0.00862198
0.00843089
0.00823974
0.00804856
0.00785735
0.00766615
0.00747497
0.00728382
0.00709271
0.00690166
0.00671067
0.00651977
0.00632895
0.00613823
0.00594762
0.00575711
0.00556672
0.00537644
0.00518629
0.00499627
0.00480637
0.0046166
0.00442696
0.00423745
0.00404807
0.00385881
0.00366968
0.00348067
0.00329178
0.00310301
0.00291435
0.00272579
0.00253734
0.00234898
0.00216071
0.00197253
0.00178443
0.0015964
0.00140843
0.00122052
0.00103266
0.000844846
0.000657066
0.000469313
0.00028158
9.38587e-05
0.000105617
0.000316855
0.000528108
0.000739387
0.000950702
0.00116206
0.00137348
0.00158496
0.00179652
0.00200816
0.00221989
0.00243173
0.00264368
0.00285575
0.00306794
0.00328028
0.00349276
0.00370539
0.00391818
0.00413113
0.00434425
0.00455755
0.00477103
0.0049847
0.00519855
0.0054126
0.00562684
0.00584128
0.00605592
0.00627076
0.0064858
0.00670104
0.00691647
0.00713209
0.00734791
0.00756391
0.00778009
0.00799644
0.00821296
0.00842964
0.00864647
0.00886343
0.00908051
0.00929771
0.009515
0.00973237
0.0099498
0.0101673
0.0103848
0.0106023
0.0108198
0.0110372
0.0112545
0.0114718
0.0116889
0.0119059
0.0121226
0.0123391
0.0125554
0.0127713
0.0129869
0.0132021
0.0134168
0.0136311
0.0138448
0.0140579
0.0142704
0.0144822
0.0146932
0.0149034
0.0151127
0.0153211
0.0155285
0.0157348
0.0159399
0.0161438
0.0163464
0.0165476
0.0167473
0.0169456
0.0171421
0.017337
0.0175301
0.0177213
0.0179105
0.0180977
0.0182826
0.0184654
0.0186457
0.0188236
0.018999
0.0191717
0.0193416
0.0195087
0.0196728
0.0198339
0.0199917
0.0201464
0.0202976
0.0204453
0.0205895
0.02073
0.0208667
0.0209995
0.0211283
0.021253
0.0213736
0.0214898
0.0216017
0.0217092
0.021812
0.0219103
0.0220038
0.0220925
0.0221764
0.0222553
0.0223292
0.022398
0.0224616
0.02252
0.0225732
0.0226211
0.0226636
0.0227007
0.0227324
0.0227586
0.0227793
0.0227945
0.0228042
0.0228083
0.0228069
0.0227999
0.0227874
0.0227693
0.0227457
0.0227167
0.0226821
0.0226421
0.0225967
0.0225459
0.0224897
0.0224283
0.0223616
0.0222897
0.0222128
0.0221307
0.0220437
0.0219517
0.0218549
0.0217534
0.0216471
0.0215363
0.0214209
0.0213011
0.021177
0.0210486
0.020916
0.0207794
0.0206389
0.0204945
0.0203463
0.0201945
0.0200391
0.0198802
0.019718
0.0195526
0.019384
0.0192123
0.0190377
0.0188603
0.0186801
0.0184973
0.0183119
0.0181241
0.0179339
0.0177414
0.0175468
0.0173501
0.0171515
0.0169509
0.0167485
0.0165444
0.0163387
0.0161314
0.0159226
0.0157125
0.015501
0.0152883
0.0150744
0.0148593
0.0146433
0.0144262
0.0142083
0.0139895
0.0137699
0.0135496
0.0133287
0.013107
0.0128849
0.0126622
0.012439
0.0122153
0.0119913
0.011767
0.0115423
0.0113174
0.0110922
0.0108668
0.0106413
0.0104156
0.0101898
0.00996392
0.00973796
0.00951198
0.00928597
0.00905997
0.00883399
0.00860805
0.00838216
0.00815635
0.00793062
0.00770498
0.00747945
0.00725404
0.00702875
0.00680359
0.00657857
0.00635369
0.00612896
0.00590438
0.00567995
0.00545568
0.00523156
0.0050076
0.00478378
0.00456012
0.00433661
0.00411324
0.00389002
0.00366693
0.00344398
0.00322115
0.00299844
0.00277585
0.00255337
0.00233099
0.0021087
0.0018865
0.00166437
0.00144231
0.00122032
0.000998371
0.000776467
0.000554596
0.000332748
0.000110915
0.000121851
0.00036556
0.000609287
0.000853043
0.00109684
0.00134069
0.00158461
0.0018286
0.00207267
0.00231685
0.00256114
0.00280554
0.00305007
0.00329475
0.00353957
0.00378455
0.0040297
0.00427502
0.00452053
0.00476623
0.00501212
0.00525822
0.00550454
0.00575106
0.00599781
0.00624478
0.00649198
0.00673941
0.00698707
0.00723496
0.00748308
0.00773144
0.00798002
0.00822883
0.00847786
0.00872711
0.00897656
0.00922622
0.00947608
0.00972612
0.00997633
0.0102267
0.0104772
0.0107279
0.0109786
0.0112295
0.0114804
0.0117314
0.0119824
0.0122335
0.0124845
0.0127354
0.0129863
0.0132371
0.0134877
0.0137381
0.0139883
0.0142382
0.0144878
0.0147371
0.014986
0.0152344
0.0154823
0.0157296
0.0159764
0.0162224
0.0164678
0.0167123
0.0169559
0.0171986
0.0174403
0.0176809
0.0179204
0.0181586
0.0183955
0.0186309
0.0188649
0.0190973
0.019328
0.0195569
0.019784
0.0200091
0.0202321
0.020453
0.0206716
0.0208878
0.0211015
0.0213125
0.0215209
0.0217265
0.0219291
0.0221286
0.022325
0.022518
0.0227077
0.0228938
0.0230762
0.0232549
0.0234296
0.0236004
0.023767
0.0239294
0.0240874
0.0242409
0.0243898
0.024534
0.0246733
0.0248077
0.0249371
0.0250613
0.0251802
0.0252938
0.0254019
0.0255045
0.0256015
0.0256927
0.0257781
0.0258576
0.0259312
0.0259988
0.0260603
0.0261156
0.0261648
0.0262077
0.0262443
0.0262746
0.0262986
0.0263162
0.0263274
0.0263322
0.0263305
0.0263225
0.026308
0.0262871
0.0262599
0.0262263
0.0261863
0.0261401
0.0260875
0.0260288
0.0259639
0.0258929
0.0258158
0.0257327
0.0256437
0.0255489
0.0254483
0.025342
0.0252301
0.0251127
0.0249898
0.0248617
0.0247283
0.0245899
0.0244464
0.024298
0.0241448
0.0239869
0.0238245
0.0236576
0.0234864
0.0233109
0.0231313
0.0229478
0.0227603
0.0225692
0.0223744
0.022176
0.0219743
0.0217693
0.0215611
0.0213499
0.0211357
0.0209187
0.020699
0.0204767
0.0202519
0.0200247
0.0197953
0.0195636
0.0193299
0.0190941
0.0188565
0.0186171
0.0183761
0.0181334
0.0178891
0.0176435
0.0173965
0.0171482
0.0168987
0.0166481
0.0163965
0.0161439
0.0158904
0.015636
0.0153809
0.0151251
0.0148686
0.0146115
0.0143538
0.0140957
0.0138371
0.0135781
0.0133188
0.0130592
0.0127993
0.0125391
0.0122788
0.0120183
0.0117577
0.011497
0.0112362
0.0109754
0.0107146
0.0104538
0.010193
0.00993222
0.00967155
0.00941095
0.00915046
0.00889009
0.00862983
0.00836972
0.00810975
0.00784993
0.00759028
0.0073308
0.00707148
0.00681235
0.00655339
0.00629461
0.00603601
0.00577759
0.00551935
0.00526128
0.00500339
0.00474567
0.00448812
0.00423072
0.00397348
0.00371639
0.00345944
0.00320262
0.00294593
0.00268935
0.00243289
0.00217652
0.00192025
0.00166405
0.00140792
0.00115185
0.000895836
0.000639856
0.000383903
0.000127966
0.00013808
0.000414248
0.000690436
0.000966658
0.00124293
0.00151926
0.00179566
0.00207215
0.00234874
0.00262544
0.00290226
0.00317922
0.00345633
0.00373359
0.00401103
0.00428865
0.00456646
0.00484447
0.00512269
0.00540113
0.00567979
0.00595869
0.00623782
0.00651721
0.00679684
0.00707674
0.00735689
0.0076373
0.00791798
0.00819892
0.00848013
0.00876161
0.00904334
0.00932534
0.00960759
0.00989009
0.0101728
0.0104558
0.010739
0.0110224
0.011306
0.0115898
0.0118738
0.0121579
0.0124422
0.0127265
0.013011
0.0132955
0.0135801
0.0138647
0.0141492
0.0144337
0.0147182
0.0150025
0.0152866
0.0155705
0.0158542
0.0161376
0.0164206
0.0167033
0.0169855
0.0172672
0.0175483
0.0178288
0.0181086
0.0183877
0.0186659
0.0189432
0.0192196
0.0194949
0.019769
0.0200419
0.0203135
0.0205838
0.0208525
0.0211196
0.021385
0.0216487
0.0219104
0.0221702
0.0224278
0.0226833
0.0229363
0.0231869
0.023435
0.0236803
0.0239229
0.0241624
0.0243989
0.0246322
0.0248622
0.0250887
0.0253116
0.0255307
0.025746
0.0259573
0.0261644
0.0263673
0.0265657
0.0267596
0.0269488
0.0271332
0.0273126
0.0274869
0.027656
0.0278197
0.027978
0.0281306
0.0282776
0.0284186
0.0285537
0.0286827
0.0288056
0.0289221
0.0290322
0.0291359
0.0292329
0.0293233
0.0294069
0.0294836
0.0295535
0.0296164
0.0296722
0.029721
0.0297626
0.0297971
0.0298243
0.0298443
0.029857
0.0298624
0.0298606
0.0298515
0.029835
0.0298113
0.0297804
0.0297422
0.0296968
0.0296443
0.0295846
0.0295179
0.0294442
0.0293635
0.0292759
0.0291816
0.0290805
0.0289728
0.0288585
0.0287378
0.0286107
0.0284774
0.0283379
0.0281923
0.0280409
0.0278836
0.0277207
0.0275522
0.0273782
0.027199
0.0270145
0.026825
0.0266306
0.0264314
0.0262276
0.0260192
0.0258064
0.0255894
0.0253682
0.0251431
0.0249141
0.0246814
0.0244452
0.0242054
0.0239624
0.0237161
0.0234668
0.0232145
0.0229594
0.0227016
0.0224412
0.0221784
0.0219132
0.0216457
0.0213762
0.0211046
0.0208311
0.0205558
0.0202787
0.0200001
0.0197199
0.0194383
0.0191553
0.0188711
0.0185857
0.0182992
0.0180117
0.0177232
0.0174339
0.0171437
0.0168529
0.0165613
0.0162692
0.0159765
0.0156833
0.0153896
0.0150956
0.0148012
0.0145066
0.0142116
0.0139165
0.0136212
0.0133257
0.0130302
0.0127345
0.0124389
0.0121432
0.0118475
0.0115519
0.0112563
0.0109608
0.0106655
0.0103702
0.0100751
0.00978008
0.00948525
0.0091906
0.00889612
0.00860183
0.00830773
0.00801383
0.00772013
0.00742664
0.00713335
0.00684027
0.0065474
0.00625474
0.00596227
0.00567001
0.00537794
0.00508606
0.00479436
0.00450284
0.00421149
0.0039203
0.00362926
0.00333837
0.00304761
0.00275698
0.00246646
0.00217604
0.00188571
0.00159547
0.00130529
0.00101517
0.000725088
0.00043504
0.000145011
0.000154303
0.000462916
0.000771551
0.00108023
0.00138895
0.00169775
0.00200662
0.0023156
0.00262468
0.0029339
0.00324325
0.00355275
0.00386242
0.00417227
0.00448231
0.00479256
0.00510302
0.00541371
0.00572463
0.0060358
0.00634722
0.00665891
0.00697087
0.0072831
0.00759562
0.00790843
0.00822153
0.00853493
0.00884862
0.00916262
0.00947692
0.00979151
0.0101064
0.0104216
0.0107371
0.0110528
0.0113689
0.0116852
0.0120017
0.0123185
0.0126355
0.0129528
0.0132702
0.0135878
0.0139056
0.0142235
0.0145415
0.0148596
0.0151777
0.0154959
0.015814
0.0161321
0.0164501
0.016768
0.0170857
0.0174032
0.0177204
0.0180373
0.0183538
0.0186699
0.0189855
0.0193005
0.0196149
0.0199287
0.0202416
0.0205537
0.0208649
0.0211751
0.0214843
0.0217922
0.0220989
0.0224042
0.0227081
0.0230104
0.0233111
0.02361
0.023907
0.024202
0.0244949
0.0247856
0.0250739
0.0253597
0.025643
0.0259235
0.0262011
0.0264757
0.0267472
0.0270154
0.0272801
0.0275413
0.0277988
0.0280524
0.0283019
0.0285473
0.0287884
0.029025
0.0292569
0.0294841
0.0297064
0.0299235
0.0301354
0.0303419
0.0305429
0.0307381
0.0309276
0.031111
0.0312883
0.0314593
0.0316239
0.0317819
0.0319333
0.0320779
0.0322155
0.0323461
0.0324695
0.0325856
0.0326944
0.0327957
0.0328894
0.0329754
0.0330537
0.0331242
0.0331868
0.0332414
0.0332881
0.0333267
0.0333572
0.0333796
0.0333939
0.0334
0.033398
0.0333877
0.0333693
0.0333428
0.0333081
0.0332653
0.0332145
0.0331556
0.0330888
0.033014
0.0329314
0.032841
0.0327429
0.0326372
0.0325239
0.0324032
0.0322752
0.0321399
0.0319976
0.0318482
0.0316919
0.0315289
0.0313592
0.0311831
0.0310006
0.0308118
0.030617
0.0304162
0.0302096
0.0299974
0.0297797
0.0295566
0.0293283
0.029095
0.0288567
0.0286137
0.0283661
0.028114
0.0278577
0.0275972
0.0273327
0.0270643
0.0267922
0.0265166
0.0262375
0.0259551
0.0256696
0.0253811
0.0250897
0.0247955
0.0244988
0.0241995
0.0238978
0.0235939
0.0232879
0.0229799
0.0226699
0.0223582
0.0220447
0.0217297
0.0214131
0.0210952
0.0207759
0.0204555
0.0201339
0.0198113
0.0194877
0.0191632
0.0188379
0.0185118
0.0181851
0.0178578
0.0175299
0.0172015
0.0168728
0.0165436
0.0162141
0.0158843
0.0155543
0.0152242
0.0148938
0.0145634
0.0142329
0.0139023
0.0135718
0.0132412
0.0129108
0.0125804
0.01225
0.0119199
0.0115898
0.0112599
0.0109302
0.0106006
0.0102713
0.00994211
0.00961318
0.00928446
0.00895597
0.00862771
0.00829968
0.00797189
0.00764434
0.00731701
0.00698992
0.00666306
0.00633643
0.00601001
0.00568381
0.00535782
0.00503202
0.00470642
0.004381
0.00405576
0.00373068
0.00340574
0.00308095
0.00275629
0.00243174
0.0021073
0.00178295
0.00145867
0.00113445
0.000810289
0.00048616
0.000162051
0.000170517
0.00051156
0.000852628
0.00119374
0.00153491
0.00187615
0.00221749
0.00255894
0.00290051
0.00324222
0.00358408
0.00392612
0.00426834
0.00461076
0.00495339
0.00529625
0.00563935
0.00598271
0.00632632
0.00667021
0.00701439
0.00735886
0.00770363
0.00804871
0.0083941
0.00873983
0.00908587
0.00943225
0.00977897
0.010126
0.0104734
0.0108211
0.0111692
0.0115176
0.0118663
0.0122153
0.0125646
0.0129143
0.0132642
0.0136144
0.0139648
0.0143155
0.0146664
0.0150176
0.0153689
0.0157203
0.0160719
0.0164236
0.0167753
0.0171271
0.0174789
0.0178306
0.0181822
0.0185337
0.0188851
0.0192361
0.0195869
0.0199374
0.0202874
0.020637
0.0209861
0.0213345
0.0216823
0.0220293
0.0223755
0.0227207
0.023065
0.0234081
0.0237501
0.0240908
0.0244301
0.024768
0.0251042
0.0254387
0.0257714
0.0261022
0.0264309
0.0267574
0.0270815
0.0274033
0.0277224
0.0280388
0.0283524
0.0286629
0.0289702
0.0292743
0.0295748
0.0298718
0.0301649
0.0304541
0.0307393
0.0310201
0.0312965
0.0315682
0.0318352
0.0320973
0.0323542
0.0326059
0.0328521
0.0330926
0.0333274
0.0335562
0.0337789
0.0339952
0.0342051
0.0344084
0.0346048
0.0347944
0.0349768
0.0351519
0.0353197
0.0354799
0.0356325
0.0357772
0.035914
0.0360428
0.0361633
0.0362756
0.0363795
0.0364749
0.0365617
0.0366398
0.0367093
0.0367699
0.0368216
0.0368644
0.0368983
0.0369231
0.036939
0.0369458
0.0369435
0.0369322
0.0369118
0.0368824
0.0368439
0.0367965
0.0367402
0.0366749
0.0366008
0.036518
0.0364264
0.0363262
0.0362175
0.0361003
0.0359748
0.035841
0.0356991
0.0355492
0.0353915
0.0352259
0.0350528
0.0348721
0.0346841
0.0344889
0.0342867
0.0340776
0.0338617
0.0336393
0.0334104
0.0331753
0.0329341
0.032687
0.0324341
0.0321756
0.0319118
0.0316426
0.0313684
0.0310893
0.0308054
0.0305169
0.030224
0.0299269
0.0296256
0.0293204
0.0290115
0.0286989
0.0283828
0.0280634
0.0277409
0.0274153
0.0270868
0.0267556
0.0264218
0.0260854
0.0257468
0.0254059
0.0250629
0.024718
0.0243711
0.0240226
0.0236723
0.0233206
0.0229674
0.0226129
0.0222572
0.0219003
0.0215423
0.0211834
0.0208236
0.020463
0.0201016
0.0197396
0.019377
0.0190139
0.0186503