/*--------------------------------*- C++ -*----------------------------------*\
| =========                 |                                                 |
| \\      /  F ield         | OpenFOAM: The Open Source CFD Toolbox           |
|  \\    /   O peration     | Version:  v2012                                 |
|   \\  /    A nd           | Website:  www.openfoam.com                      |
|    \\/     M anipulation  |                                                 |
\*---------------------------------------------------------------------------*/
FoamFile
{
    version     2.0;
    format      ascii;
    class       volVectorField;
    location    "18.1";
    object      U;
}
// * * * * * * * * * * * * * * * * * * * * * * * * * * * * * * * * * * * * * //

dimensions      [0 1 -1 0 0 0 0];


internalField   nonuniform List<vector> 
65536
(
(0.000663056 -0.00066307 0)
(0.0019892 -0.000663104 0)
(0.00331544 -0.000663168 0)
(0.00464185 -0.000663263 0)
(0.00596847 -0.00066339 0)
(0.00729538 -0.000663548 0)
(0.00862264 -0.000663737 0)
(0.0099503 -0.000663957 0)
(0.0112784 -0.000664206 0)
(0.0126071 -0.000664485 0)
(0.0139364 -0.000664792 0)
(0.0152662 -0.000665127 0)
(0.0165968 -0.000665489 0)
(0.0179282 -0.000665878 0)
(0.0192603 -0.000666291 0)
(0.0205933 -0.000666729 0)
(0.0219272 -0.00066719 0)
(0.0232621 -0.000667673 0)
(0.0245979 -0.000668176 0)
(0.0259348 -0.000668699 0)
(0.0272727 -0.000669239 0)
(0.0286117 -0.000669795 0)
(0.0299518 -0.000670365 0)
(0.0312932 -0.000670948 0)
(0.0326356 -0.000671542 0)
(0.0339793 -0.000672144 0)
(0.0353242 -0.000672754 0)
(0.0366703 -0.000673368 0)
(0.0380177 -0.000673984 0)
(0.0393663 -0.0006746 0)
(0.0407161 -0.000675214 0)
(0.0420671 -0.000675823 0)
(0.0434194 -0.000676424 0)
(0.0447728 -0.000677014 0)
(0.0461275 -0.00067759 0)
(0.0474832 -0.00067815 0)
(0.0488401 -0.000678691 0)
(0.050198 -0.000679208 0)
(0.051557 -0.000679698 0)
(0.0529168 -0.000680159 0)
(0.0542776 -0.000680586 0)
(0.0556392 -0.000680975 0)
(0.0570016 -0.000681323 0)
(0.0583646 -0.000681625 0)
(0.0597281 -0.000681877 0)
(0.0610921 -0.000682075 0)
(0.0624565 -0.000682215 0)
(0.0638211 -0.000682292 0)
(0.0651857 -0.0006823 0)
(0.0665503 -0.000682236 0)
(0.0679147 -0.000682093 0)
(0.0692788 -0.000681868 0)
(0.0706423 -0.000681555 0)
(0.0720051 -0.000681147 0)
(0.073367 -0.000680641 0)
(0.0747278 -0.00068003 0)
(0.0760872 -0.000679308 0)
(0.0774451 -0.000678469 0)
(0.0788012 -0.000677508 0)
(0.0801553 -0.000676418 0)
(0.081507 -0.000675193 0)
(0.0828562 -0.000673827 0)
(0.0842025 -0.000672314 0)
(0.0855456 -0.000670646 0)
(0.0868853 -0.000668818 0)
(0.0882211 -0.000666822 0)
(0.0895527 -0.000664652 0)
(0.0908799 -0.000662302 0)
(0.0922021 -0.000659764 0)
(0.0935191 -0.000657032 0)
(0.0948304 -0.000654099 0)
(0.0961357 -0.000650958 0)
(0.0974345 -0.000647603 0)
(0.0987263 -0.000644026 0)
(0.100011 -0.000640222 0)
(0.101287 -0.000636183 0)
(0.102556 -0.000631903 0)
(0.103815 -0.000627376 0)
(0.105066 -0.000622594 0)
(0.106306 -0.000617553 0)
(0.107536 -0.000612246 0)
(0.108755 -0.000606668 0)
(0.109963 -0.000600812 0)
(0.111159 -0.000594673 0)
(0.112342 -0.000588246 0)
(0.113512 -0.000581527 0)
(0.114668 -0.000574511 0)
(0.11581 -0.000567193 0)
(0.116937 -0.000559569 0)
(0.118049 -0.000551637 0)
(0.119144 -0.000543392 0)
(0.120223 -0.000534832 0)
(0.121284 -0.000525954 0)
(0.122327 -0.000516758 0)
(0.123351 -0.00050724 0)
(0.124356 -0.0004974 0)
(0.125341 -0.000487239 0)
(0.126306 -0.000476755 0)
(0.127249 -0.000465949 0)
(0.12817 -0.000454823 0)
(0.129068 -0.000443378 0)
(0.129943 -0.000431617 0)
(0.130795 -0.000419542 0)
(0.131622 -0.000407157 0)
(0.132424 -0.000394466 0)
(0.1332 -0.000381474 0)
(0.13395 -0.000368186 0)
(0.134673 -0.000354608 0)
(0.135369 -0.000340748 0)
(0.136036 -0.000326611 0)
(0.136675 -0.000312206 0)
(0.137285 -0.000297542 0)
(0.137866 -0.000282627 0)
(0.138416 -0.000267472 0)
(0.138936 -0.000252086 0)
(0.139425 -0.00023648 0)
(0.139882 -0.000220666 0)
(0.140308 -0.000204656 0)
(0.140701 -0.000188461 0)
(0.141062 -0.000172096 0)
(0.141389 -0.000155572 0)
(0.141684 -0.000138904 0)
(0.141945 -0.000122106 0)
(0.142173 -0.000105192 0)
(0.142366 -8.81776e-05 0)
(0.142525 -7.10765e-05 0)
(0.14265 -5.39045e-05 0)
(0.142741 -3.66768e-05 0)
(0.142797 -1.9409e-05 0)
(0.142819 -2.11678e-06 0)
(0.142806 1.51843e-05 0)
(0.142758 3.24787e-05 0)
(0.142676 4.97505e-05 0)
(0.142559 6.69844e-05 0)
(0.142408 8.41647e-05 0)
(0.142222 0.000101276 0)
(0.142003 0.000118304 0)
(0.141749 0.000135233 0)
(0.141461 0.000152049 0)
(0.141141 0.000168737 0)
(0.140786 0.000185284 0)
(0.140399 0.000201676 0)
(0.13998 0.0002179 0)
(0.139527 0.000233943 0)
(0.139044 0.000249793 0)
(0.138528 0.000265438 0)
(0.137982 0.000280868 0)
(0.137404 0.000296071 0)
(0.136797 0.000311038 0)
(0.13616 0.000325758 0)
(0.135494 0.000340224 0)
(0.134799 0.000354426 0)
(0.134076 0.000368358 0)
(0.133325 0.000382012 0)
(0.132547 0.000395381 0)
(0.131743 0.000408459 0)
(0.130913 0.000421242 0)
(0.130058 0.000433725 0)
(0.129178 0.000445904 0)
(0.128274 0.000457774 0)
(0.127347 0.000469335 0)
(0.126396 0.000480582 0)
(0.125424 0.000491515 0)
(0.12443 0.000502132 0)
(0.123415 0.000512433 0)
(0.12238 0.000522418 0)
(0.121325 0.000532087 0)
(0.120251 0.00054144 0)
(0.119159 0.00055048 0)
(0.118049 0.000559208 0)
(0.116922 0.000567627 0)
(0.115778 0.000575738 0)
(0.114619 0.000583546 0)
(0.113444 0.000591053 0)
(0.112254 0.000598263 0)
(0.11105 0.00060518 0)
(0.109833 0.000611808 0)
(0.108603 0.000618153 0)
(0.10736 0.000624219 0)
(0.106106 0.000630011 0)
(0.10484 0.000635534 0)
(0.103563 0.000640794 0)
(0.102277 0.000645797 0)
(0.10098 0.000650548 0)
(0.0996741 0.000655054 0)
(0.0983595 0.00065932 0)
(0.0970366 0.000663353 0)
(0.0957059 0.000667159 0)
(0.0943677 0.000670744 0)
(0.0930227 0.000674115 0)
(0.0916711 0.000677279 0)
(0.0903133 0.000680241 0)
(0.0889499 0.000683009 0)
(0.0875811 0.000685588 0)
(0.0862074 0.000687986 0)
(0.084829 0.000690209 0)
(0.0834464 0.000692263 0)
(0.0820598 0.000694154 0)
(0.0806696 0.00069589 0)
(0.0792761 0.000697475 0)
(0.0778795 0.000698918 0)
(0.0764803 0.000700223 0)
(0.0750785 0.000701396 0)
(0.0736746 0.000702445 0)
(0.0722686 0.000703374 0)
(0.070861 0.00070419 0)
(0.0694518 0.000704898 0)
(0.0680413 0.000705504 0)
(0.0666296 0.000706014 0)
(0.0652171 0.000706432 0)
(0.0638038 0.000706764 0)
(0.06239 0.000707015 0)
(0.0609757 0.00070719 0)
(0.0595611 0.000707295 0)
(0.0581465 0.000707333 0)
(0.0567318 0.000707311 0)
(0.0553172 0.000707231 0)
(0.0539028 0.000707099 0)
(0.0524887 0.000706918 0)
(0.0510751 0.000706694 0)
(0.0496619 0.00070643 0)
(0.0482493 0.00070613 0)
(0.0468373 0.000705798 0)
(0.0454261 0.000705437 0)
(0.0440156 0.000705052 0)
(0.0426059 0.000704644 0)
(0.041197 0.000704219 0)
(0.039789 0.000703779 0)
(0.0383819 0.000703326 0)
(0.0369757 0.000702865 0)
(0.0355704 0.000702397 0)
(0.0341661 0.000701926 0)
(0.0327627 0.000701454 0)
(0.0313603 0.000700984 0)
(0.0299588 0.000700518 0)
(0.0285582 0.000700057 0)
(0.0271585 0.000699605 0)
(0.0257598 0.000699164 0)
(0.0243619 0.000698734 0)
(0.0229649 0.000698319 0)
(0.0215686 0.00069792 0)
(0.0201732 0.000697537 0)
(0.0187785 0.000697174 0)
(0.0173845 0.000696831 0)
(0.0159912 0.000696509 0)
(0.0145985 0.000696211 0)
(0.0132064 0.000695936 0)
(0.0118148 0.000695685 0)
(0.0104237 0.000695461 0)
(0.00903299 0.000695262 0)
(0.00764267 0.000695091 0)
(0.00625266 0.000694947 0)
(0.00486291 0.000694832 0)
(0.00347336 0.000694745 0)
(0.00208396 0.000694687 0)
(0.000694644 0.000694658 0)
(0.000663027 -0.00198919 0)
(0.00198911 -0.00198928 0)
(0.00331529 -0.00198948 0)
(0.00464163 -0.00198976 0)
(0.0059682 -0.00199014 0)
(0.00729505 -0.00199062 0)
(0.00862224 -0.00199119 0)
(0.00994985 -0.00199184 0)
(0.0112779 -0.00199259 0)
(0.0126065 -0.00199343 0)
(0.0139357 -0.00199435 0)
(0.0152656 -0.00199536 0)
(0.0165961 -0.00199645 0)
(0.0179274 -0.00199761 0)
(0.0192595 -0.00199885 0)
(0.0205925 -0.00200017 0)
(0.0219263 -0.00200155 0)
(0.0232611 -0.002003 0)
(0.0245969 -0.00200451 0)
(0.0259337 -0.00200608 0)
(0.0272716 -0.0020077 0)
(0.0286106 -0.00200937 0)
(0.0299507 -0.00201109 0)
(0.031292 -0.00201284 0)
(0.0326345 -0.00201462 0)
(0.0339782 -0.00201643 0)
(0.035323 -0.00201826 0)
(0.0366692 -0.00202011 0)
(0.0380165 -0.00202196 0)
(0.0393651 -0.00202381 0)
(0.0407149 -0.00202565 0)
(0.042066 -0.00202748 0)
(0.0434183 -0.00202929 0)
(0.0447717 -0.00203106 0)
(0.0461264 -0.00203279 0)
(0.0474822 -0.00203447 0)
(0.0488391 -0.0020361 0)
(0.0501971 -0.00203765 0)
(0.0515561 -0.00203913 0)
(0.052916 -0.00204051 0)
(0.0542769 -0.0020418 0)
(0.0556386 -0.00204297 0)
(0.057001 -0.00204402 0)
(0.0583641 -0.00204493 0)
(0.0597278 -0.00204569 0)
(0.0610919 -0.00204629 0)
(0.0624564 -0.00204671 0)
(0.0638211 -0.00204695 0)
(0.0651859 -0.00204698 0)
(0.0665506 -0.00204679 0)
(0.0679152 -0.00204637 0)
(0.0692794 -0.0020457 0)
(0.0706431 -0.00204476 0)
(0.0720061 -0.00204354 0)
(0.0733682 -0.00204203 0)
(0.0747292 -0.0020402 0)
(0.0760889 -0.00203804 0)
(0.077447 -0.00203553 0)
(0.0788034 -0.00203265 0)
(0.0801577 -0.00202939 0)
(0.0815097 -0.00202572 0)
(0.0828592 -0.00202163 0)
(0.0842058 -0.0020171 0)
(0.0855492 -0.0020121 0)
(0.0868892 -0.00200662 0)
(0.0882253 -0.00200064 0)
(0.0895573 -0.00199414 0)
(0.0908848 -0.00198709 0)
(0.0922075 -0.00197949 0)
(0.0935249 -0.0019713 0)
(0.0948366 -0.00196251 0)
(0.0961423 -0.00195309 0)
(0.0974415 -0.00194303 0)
(0.0987338 -0.00193231 0)
(0.100019 -0.0019209 0)
(0.101296 -0.00190879 0)
(0.102565 -0.00189596 0)
(0.103825 -0.00188238 0)
(0.105075 -0.00186804 0)
(0.106316 -0.00185293 0)
(0.107547 -0.00183701 0)
(0.108767 -0.00182028 0)
(0.109975 -0.00180272 0)
(0.111171 -0.00178431 0)
(0.112355 -0.00176503 0)
(0.113526 -0.00174488 0)
(0.114683 -0.00172383 0)
(0.115825 -0.00170188 0)
(0.116953 -0.00167902 0)
(0.118065 -0.00165522 0)
(0.119161 -0.00163049 0)
(0.12024 -0.00160481 0)
(0.121302 -0.00157818 0)
(0.122346 -0.00155059 0)
(0.123371 -0.00152204 0)
(0.124376 -0.00149252 0)
(0.125362 -0.00146204 0)
(0.126327 -0.00143058 0)
(0.127271 -0.00139817 0)
(0.128192 -0.00136479 0)
(0.129091 -0.00133045 0)
(0.129967 -0.00129516 0)
(0.130819 -0.00125893 0)
(0.131647 -0.00122177 0)
(0.13245 -0.0011837 0)
(0.133226 -0.00114471 0)
(0.133977 -0.00110484 0)
(0.134701 -0.00106411 0)
(0.135397 -0.00102252 0)
(0.136065 -0.000980097 0)
(0.136705 -0.000936874 0)
(0.137315 -0.000892872 0)
(0.137896 -0.000848118 0)
(0.138447 -0.000802642 0)
(0.138967 -0.000756473 0)
(0.139456 -0.000709644 0)
(0.139914 -0.000662191 0)
(0.14034 -0.000614147 0)
(0.140734 -0.000565551 0)
(0.141095 -0.000516441 0)
(0.141423 -0.000466856 0)
(0.141718 -0.000416839 0)
(0.141979 -0.00036643 0)
(0.142207 -0.000315674 0)
(0.1424 -0.000264614 0)
(0.14256 -0.000213296 0)
(0.142685 -0.000161764 0)
(0.142776 -0.000110066 0)
(0.142832 -5.82471e-05 0)
(0.142853 -6.3546e-06 0)
(0.14284 4.55645e-05 0)
(0.142793 9.7463e-05 0)
(0.14271 0.000149294 0)
(0.142593 0.000201011 0)
(0.142442 0.000252568 0)
(0.142256 0.000303917 0)
(0.142037 0.000355016 0)
(0.141783 0.000405817 0)
(0.141495 0.000456279 0)
(0.141174 0.000506358 0)
(0.140819 0.000556012 0)
(0.140432 0.0006052 0)
(0.140012 0.000653884 0)
(0.139559 0.000702025 0)
(0.139075 0.000749587 0)
(0.138559 0.000796535 0)
(0.138012 0.000842834 0)
(0.137435 0.000888454 0)
(0.136827 0.000933363 0)
(0.136189 0.000977534 0)
(0.135522 0.00102094 0)
(0.134827 0.00106355 0)
(0.134103 0.00110536 0)
(0.133352 0.00114632 0)
(0.132574 0.00118644 0)
(0.131769 0.00122568 0)
(0.130939 0.00126403 0)
(0.130083 0.00130148 0)
(0.129202 0.00133802 0)
(0.128298 0.00137364 0)
(0.127369 0.00140832 0)
(0.126419 0.00144206 0)
(0.125446 0.00147486 0)
(0.124451 0.00150672 0)
(0.123435 0.00153762 0)
(0.1224 0.00156757 0)
(0.121344 0.00159658 0)
(0.12027 0.00162464 0)
(0.119177 0.00165176 0)
(0.118066 0.00167794 0)
(0.116938 0.00170319 0)
(0.115794 0.00172752 0)
(0.114634 0.00175094 0)
(0.113458 0.00177346 0)
(0.112268 0.00179508 0)
(0.111064 0.00181583 0)
(0.109846 0.00183571 0)
(0.108615 0.00185474 0)
(0.107372 0.00187293 0)
(0.106117 0.0018903 0)
(0.104851 0.00190687 0)
(0.103574 0.00192264 0)
(0.102286 0.00193764 0)
(0.100989 0.00195189 0)
(0.0996828 0.0019654 0)
(0.0983677 0.00197819 0)
(0.0970444 0.00199029 0)
(0.0957132 0.0020017 0)
(0.0943746 0.00201245 0)
(0.0930292 0.00202256 0)
(0.0916771 0.00203204 0)
(0.090319 0.00204092 0)
(0.0889552 0.00204922 0)
(0.087586 0.00205695 0)
(0.0862119 0.00206413 0)
(0.0848332 0.0020708 0)
(0.0834503 0.00207695 0)
(0.0820634 0.00208262 0)
(0.0806729 0.00208782 0)
(0.0792791 0.00209257 0)
(0.0778822 0.00209689 0)
(0.0764827 0.0021008 0)
(0.0750807 0.00210431 0)
(0.0736765 0.00210745 0)
(0.0722703 0.00211024 0)
(0.0708624 0.00211268 0)
(0.069453 0.0021148 0)
(0.0680423 0.00211661 0)
(0.0666305 0.00211813 0)
(0.0652178 0.00211938 0)
(0.0638044 0.00212037 0)
(0.0623904 0.00212112 0)
(0.0609759 0.00212164 0)
(0.0595612 0.00212195 0)
(0.0581464 0.00212206 0)
(0.0567316 0.00212199 0)
(0.0553169 0.00212174 0)
(0.0539024 0.00212134 0)
(0.0524883 0.0021208 0)
(0.0510745 0.00212012 0)
(0.0496613 0.00211932 0)
(0.0482486 0.00211842 0)
(0.0468366 0.00211742 0)
(0.0454253 0.00211633 0)
(0.0440147 0.00211517 0)
(0.042605 0.00211395 0)
(0.0411961 0.00211267 0)
(0.039788 0.00211135 0)
(0.0383809 0.00210999 0)
(0.0369747 0.0021086 0)
(0.0355694 0.00210719 0)
(0.0341651 0.00210578 0)
(0.0327617 0.00210436 0)
(0.0313593 0.00210295 0)
(0.0299578 0.00210154 0)
(0.0285573 0.00210016 0)
(0.0271576 0.0020988 0)
(0.0257589 0.00209748 0)
(0.024361 0.00209619 0)
(0.022964 0.00209494 0)
(0.0215678 0.00209374 0)
(0.0201724 0.00209259 0)
(0.0187778 0.0020915 0)
(0.0173839 0.00209047 0)
(0.0159906 0.0020895 0)
(0.0145979 0.00208861 0)
(0.0132059 0.00208778 0)
(0.0118143 0.00208703 0)
(0.0104233 0.00208635 0)
(0.00903261 0.00208576 0)
(0.00764235 0.00208524 0)
(0.00625239 0.00208481 0)
(0.0048627 0.00208446 0)
(0.00347322 0.0020842 0)
(0.00208387 0.00208403 0)
(0.000694614 0.00208395 0)
(0.000662962 -0.00331521 0)
(0.00198892 -0.00331537 0)
(0.00331497 -0.00331569 0)
(0.00464118 -0.00331617 0)
(0.00596762 -0.0033168 0)
(0.00729434 -0.0033176 0)
(0.00862142 -0.00331854 0)
(0.0099489 -0.00331964 0)
(0.0112769 -0.00332089 0)
(0.0126054 -0.00332229 0)
(0.0139344 -0.00332383 0)
(0.0152642 -0.00332551 0)
(0.0165946 -0.00332732 0)
(0.0179258 -0.00332927 0)
(0.0192578 -0.00333134 0)
(0.0205906 -0.00333354 0)
(0.0219244 -0.00333585 0)
(0.0232591 -0.00333827 0)
(0.0245948 -0.00334079 0)
(0.0259316 -0.00334341 0)
(0.0272694 -0.00334612 0)
(0.0286083 -0.00334891 0)
(0.0299484 -0.00335177 0)
(0.0312896 -0.00335469 0)
(0.0326321 -0.00335767 0)
(0.0339757 -0.0033607 0)
(0.0353206 -0.00336375 0)
(0.0366667 -0.00336684 0)
(0.038014 -0.00336993 0)
(0.0393626 -0.00337302 0)
(0.0407124 -0.0033761 0)
(0.0420635 -0.00337916 0)
(0.0434158 -0.00338218 0)
(0.0447694 -0.00338514 0)
(0.0461241 -0.00338804 0)
(0.0474799 -0.00339086 0)
(0.0488369 -0.00339358 0)
(0.050195 -0.00339618 0)
(0.0515541 -0.00339865 0)
(0.0529142 -0.00340097 0)
(0.0542752 -0.00340312 0)
(0.055637 -0.00340509 0)
(0.0569996 -0.00340685 0)
(0.0583629 -0.00340838 0)
(0.0597268 -0.00340966 0)
(0.0610911 -0.00341068 0)
(0.0624559 -0.0034114 0)
(0.0638208 -0.0034118 0)
(0.0651859 -0.00341187 0)
(0.066551 -0.00341157 0)
(0.0679159 -0.00341089 0)
(0.0692804 -0.00340979 0)
(0.0706445 -0.00340825 0)
(0.0720079 -0.00340624 0)
(0.0733704 -0.00340373 0)
(0.0747318 -0.00340071 0)
(0.0760919 -0.00339713 0)
(0.0774506 -0.00339296 0)
(0.0788074 -0.00338819 0)
(0.0801623 -0.00338277 0)
(0.0815148 -0.00337668 0)
(0.0828649 -0.00336988 0)
(0.0842121 -0.00336234 0)
(0.0855561 -0.00335404 0)
(0.0868967 -0.00334493 0)
(0.0882336 -0.00333498 0)
(0.0895663 -0.00332417 0)
(0.0908945 -0.00331245 0)
(0.0922179 -0.00329979 0)
(0.0935361 -0.00328617 0)
(0.0948487 -0.00327154 0)
(0.0961552 -0.00325587 0)
(0.0974553 -0.00323912 0)
(0.0987485 -0.00322127 0)
(0.100034 -0.00320228 0)
(0.101312 -0.00318212 0)
(0.102582 -0.00316075 0)
(0.103843 -0.00313815 0)
(0.105095 -0.00311427 0)
(0.106337 -0.0030891 0)
(0.107569 -0.00306259 0)
(0.10879 -0.00303472 0)
(0.109999 -0.00300547 0)
(0.111196 -0.0029748 0)
(0.112381 -0.00294269 0)
(0.113553 -0.00290912 0)
(0.114711 -0.00287406 0)
(0.115855 -0.00283749 0)
(0.116984 -0.00279939 0)
(0.118098 -0.00275974 0)
(0.119195 -0.00271853 0)
(0.120275 -0.00267574 0)
(0.121338 -0.00263137 0)
(0.122383 -0.00258539 0)
(0.123409 -0.00253781 0)
(0.124416 -0.00248861 0)
(0.125403 -0.0024378 0)
(0.126369 -0.00238538 0)
(0.127314 -0.00233134 0)
(0.128237 -0.0022757 0)
(0.129138 -0.00221847 0)
(0.130015 -0.00215965 0)
(0.130868 -0.00209925 0)
(0.131697 -0.00203731 0)
(0.132501 -0.00197383 0)
(0.133279 -0.00190884 0)
(0.134031 -0.00184237 0)
(0.134756 -0.00177445 0)
(0.135453 -0.00170511 0)
(0.136122 -0.00163439 0)
(0.136763 -0.00156232 0)
(0.137374 -0.00148896 0)
(0.137956 -0.00141433 0)
(0.138508 -0.0013385 0)
(0.139029 -0.00126152 0)
(0.139519 -0.00118343 0)
(0.139978 -0.00110431 0)
(0.140404 -0.00102419 0)
(0.140799 -0.000943155 0)
(0.14116 -0.000861261 0)
(0.141489 -0.000778574 0)
(0.141785 -0.000695165 0)
(0.142046 -0.000611103 0)
(0.142275 -0.00052646 0)
(0.142469 -0.000441311 0)
(0.142628 -0.000355729 0)
(0.142754 -0.000269792 0)
(0.142845 -0.000183576 0)
(0.142901 -9.71593e-05 0)
(0.142923 -1.06196e-05 0)
(0.14291 7.59645e-05 0)
(0.142862 0.000162514 0)
(0.142779 0.000248951 0)
(0.142662 0.000335198 0)
(0.142511 0.000421176 0)
(0.142325 0.00050681 0)
(0.142104 0.000592023 0)
(0.14185 0.000676741 0)
(0.141562 0.000760892 0)
(0.14124 0.000844402 0)
(0.140885 0.000927204 0)
(0.140497 0.00100923 0)
(0.140076 0.00109041 0)
(0.139623 0.00117069 0)
(0.139138 0.00125 0)
(0.138621 0.00132828 0)
(0.138074 0.00140548 0)
(0.137495 0.00148155 0)
(0.136886 0.00155643 0)
(0.136248 0.00163007 0)
(0.13558 0.00170244 0)
(0.134883 0.0017735 0)
(0.134159 0.00184319 0)
(0.133406 0.00191149 0)
(0.132627 0.00197836 0)
(0.131821 0.00204378 0)
(0.130989 0.00210772 0)
(0.130132 0.00217015 0)
(0.12925 0.00223106 0)
(0.128344 0.00229043 0)
(0.127415 0.00234825 0)
(0.126463 0.00240449 0)
(0.125489 0.00245916 0)
(0.124493 0.00251225 0)
(0.123476 0.00256376 0)
(0.122439 0.00261368 0)
(0.121382 0.00266202 0)
(0.120307 0.00270878 0)
(0.119212 0.00275397 0)
(0.118101 0.0027976 0)
(0.116972 0.00283968 0)
(0.115826 0.00288022 0)
(0.114665 0.00291924 0)
(0.113488 0.00295675 0)
(0.112297 0.00299278 0)
(0.111091 0.00302735 0)
(0.109872 0.00306047 0)
(0.10864 0.00309217 0)
(0.107396 0.00312247 0)
(0.10614 0.0031514 0)
(0.104872 0.00317899 0)
(0.103594 0.00320526 0)
(0.102306 0.00323024 0)
(0.101008 0.00325397 0)
(0.0997004 0.00327647 0)
(0.0983843 0.00329777 0)
(0.0970601 0.0033179 0)
(0.095728 0.0033369 0)
(0.0943886 0.00335479 0)
(0.0930422 0.00337162 0)
(0.0916894 0.0033874 0)
(0.0903305 0.00340218 0)
(0.0889659 0.00341599 0)
(0.087596 0.00342885 0)
(0.0862212 0.00344081 0)
(0.0848418 0.00345189 0)
(0.0834581 0.00346213 0)
(0.0820706 0.00347155 0)
(0.0806795 0.0034802 0)
(0.0792851 0.00348809 0)
(0.0778877 0.00349527 0)
(0.0764877 0.00350177 0)
(0.0750851 0.00350761 0)
(0.0736804 0.00351282 0)
(0.0722738 0.00351744 0)
(0.0708655 0.00352149 0)
(0.0694556 0.003525 0)
(0.0680445 0.003528 0)
(0.0666324 0.00353052 0)
(0.0652193 0.00353259 0)
(0.0638055 0.00353422 0)
(0.0623912 0.00353545 0)
(0.0609765 0.0035363 0)
(0.0595615 0.0035368 0)
(0.0581465 0.00353697 0)
(0.0567314 0.00353683 0)
(0.0553165 0.00353641 0)
(0.0539018 0.00353573 0)
(0.0524875 0.00353481 0)
(0.0510736 0.00353367 0)
(0.0496602 0.00353233 0)
(0.0482474 0.00353081 0)
(0.0468352 0.00352913 0)
(0.0454238 0.00352731 0)
(0.0440132 0.00352536 0)
(0.0426033 0.00352331 0)
(0.0411943 0.00352117 0)
(0.0397863 0.00351895 0)
(0.0383791 0.00351667 0)
(0.0369728 0.00351435 0)
(0.0355675 0.003512 0)
(0.0341632 0.00350963 0)
(0.0327598 0.00350726 0)
(0.0313574 0.0035049 0)
(0.029956 0.00350255 0)
(0.0285554 0.00350024 0)
(0.0271558 0.00349797 0)
(0.0257571 0.00349575 0)
(0.0243593 0.0034936 0)
(0.0229624 0.00349151 0)
(0.0215663 0.00348951 0)
(0.020171 0.00348759 0)
(0.0187764 0.00348576 0)
(0.0173825 0.00348404 0)
(0.0159893 0.00348243 0)
(0.0145968 0.00348093 0)
(0.0132048 0.00347955 0)
(0.0118134 0.00347829 0)
(0.0104224 0.00347717 0)
(0.00903188 0.00347617 0)
(0.00764172 0.00347531 0)
(0.00625188 0.00347459 0)
(0.0048623 0.00347401 0)
(0.00347292 0.00347358 0)
(0.0020837 0.00347329 0)
(0.000694556 0.00347314 0)
(0.000662865 -0.00464107 0)
(0.00198863 -0.00464129 0)
(0.00331449 -0.00464174 0)
(0.00464051 -0.00464241 0)
(0.00596675 -0.00464331 0)
(0.00729329 -0.00464442 0)
(0.00862018 -0.00464575 0)
(0.00994748 -0.00464729 0)
(0.0112753 -0.00464904 0)
(0.0126036 -0.004651 0)
(0.0139325 -0.00465316 0)
(0.015262 -0.00465552 0)
(0.0165923 -0.00465807 0)
(0.0179233 -0.0046608 0)
(0.0192552 -0.00466371 0)
(0.0205879 -0.00466679 0)
(0.0219215 -0.00467004 0)
(0.0232561 -0.00467343 0)
(0.0245917 -0.00467698 0)
(0.0259284 -0.00468065 0)
(0.0272661 -0.00468445 0)
(0.0286049 -0.00468837 0)
(0.0299449 -0.00469239 0)
(0.031286 -0.0046965 0)
(0.0326284 -0.00470068 0)
(0.033972 -0.00470493 0)
(0.0353168 -0.00470922 0)
(0.0366629 -0.00471355 0)
(0.0380102 -0.0047179 0)
(0.0393588 -0.00472225 0)
(0.0407087 -0.00472658 0)
(0.0420598 -0.00473088 0)
(0.0434122 -0.00473512 0)
(0.0447658 -0.0047393 0)
(0.0461206 -0.00474337 0)
(0.0474766 -0.00474734 0)
(0.0488337 -0.00475117 0)
(0.0501919 -0.00475483 0)
(0.0515512 -0.00475832 0)
(0.0529114 -0.00476159 0)
(0.0542727 -0.00476463 0)
(0.0556347 -0.00476741 0)
(0.0569976 -0.0047699 0)
(0.0583612 -0.00477208 0)
(0.0597253 -0.00477391 0)
(0.06109 -0.00477536 0)
(0.0624551 -0.0047764 0)
(0.0638205 -0.004777 0)
(0.065186 -0.00477713 0)
(0.0665515 -0.00477675 0)
(0.0679168 -0.00477582 0)
(0.0692819 -0.00477432 0)
(0.0706465 -0.0047722 0)
(0.0720105 -0.00476943 0)
(0.0733736 -0.00476596 0)
(0.0747357 -0.00476176 0)
(0.0760965 -0.00475679 0)
(0.0774558 -0.004751 0)
(0.0788134 -0.00474436 0)
(0.0801691 -0.00473682 0)
(0.0815225 -0.00472833 0)
(0.0828734 -0.00471886 0)
(0.0842215 -0.00470836 0)
(0.0855665 -0.00469678 0)
(0.0869081 -0.00468407 0)
(0.0882459 -0.00467019 0)
(0.0895797 -0.0046551 0)
(0.0909091 -0.00463874 0)
(0.0922336 -0.00462107 0)
(0.093553 -0.00460204 0)
(0.0948668 -0.00458161 0)
(0.0961746 -0.00455971 0)
(0.097476 -0.00453632 0)
(0.0987705 -0.00451138 0)
(0.100058 -0.00448484 0)
(0.101337 -0.00445666 0)
(0.102609 -0.00442679 0)
(0.103871 -0.00439518 0)
(0.105124 -0.0043618 0)
(0.106368 -0.0043266 0)
(0.107601 -0.00428953 0)
(0.108824 -0.00425056 0)
(0.110035 -0.00420964 0)
(0.111234 -0.00416674 0)
(0.112421 -0.00412182 0)
(0.113594 -0.00407485 0)
(0.114754 -0.0040258 0)
(0.1159 -0.00397463 0)
(0.117031 -0.00392131 0)
(0.118146 -0.00386583 0)
(0.119245 -0.00380815 0)
(0.120327 -0.00374827 0)
(0.121392 -0.00368615 0)
(0.122439 -0.00362179 0)
(0.123467 -0.00355518 0)
(0.124476 -0.00348631 0)
(0.125465 -0.00341518 0)
(0.126433 -0.00334178 0)
(0.12738 -0.00326613 0)
(0.128305 -0.00318822 0)
(0.129207 -0.00310808 0)
(0.130087 -0.00302571 0)
(0.130942 -0.00294113 0)
(0.131772 -0.00285438 0)
(0.132578 -0.00276548 0)
(0.133358 -0.00267446 0)
(0.134111 -0.00258136 0)
(0.134838 -0.00248622 0)
(0.135537 -0.00238909 0)
(0.136208 -0.00229002 0)
(0.13685 -0.00218907 0)
(0.137463 -0.00208629 0)
(0.138046 -0.00198176 0)
(0.1386 -0.00187552 0)
(0.139122 -0.00176767 0)
(0.139613 -0.00165827 0)
(0.140073 -0.00154741 0)
(0.140501 -0.00143516 0)
(0.140896 -0.00132162 0)
(0.141259 -0.00120687 0)
(0.141589 -0.00109102 0)
(0.141885 -0.000974145 0)
(0.142148 -0.000856357 0)
(0.142376 -0.000737754 0)
(0.142571 -0.00061844 0)
(0.142731 -0.00049852 0)
(0.142857 -0.0003781 0)
(0.142948 -0.000257289 0)
(0.143005 -0.000136196 0)
(0.143027 -1.49304e-05 0)
(0.143013 0.000106397 0)
(0.142966 0.000227677 0)
(0.142883 0.000348798 0)
(0.142766 0.000469651 0)
(0.142614 0.000590128 0)
(0.142427 0.000710121 0)
(0.142207 0.000829524 0)
(0.141952 0.000948232 0)
(0.141663 0.00106614 0)
(0.14134 0.00118315 0)
(0.140984 0.00129917 0)
(0.140595 0.0014141 0)
(0.140173 0.00152784 0)
(0.139719 0.00164031 0)
(0.139233 0.00175143 0)
(0.138715 0.0018611 0)
(0.138166 0.00196926 0)
(0.137586 0.00207582 0)
(0.136975 0.00218072 0)
(0.136335 0.00228389 0)
(0.135666 0.00238527 0)
(0.134968 0.00248479 0)
(0.134241 0.00258241 0)
(0.133487 0.00267808 0)
(0.132706 0.00277174 0)
(0.131899 0.00286337 0)
(0.131065 0.00295291 0)
(0.130206 0.00304035 0)
(0.129322 0.00312565 0)
(0.128415 0.00320878 0)
(0.127484 0.00328974 0)
(0.12653 0.00336849 0)
(0.125553 0.00344504 0)
(0.124556 0.00351937 0)
(0.123537 0.00359147 0)
(0.122498 0.00366136 0)
(0.121439 0.00372903 0)
(0.120362 0.00379449 0)
(0.119266 0.00385774 0)
(0.118152 0.0039188 0)
(0.117021 0.0039777 0)
(0.115874 0.00403443 0)
(0.114711 0.00408904 0)
(0.113532 0.00414153 0)
(0.112339 0.00419195 0)
(0.111132 0.00424031 0)
(0.109911 0.00428664 0)
(0.108677 0.00433099 0)
(0.107431 0.00437337 0)
(0.106174 0.00441384 0)
(0.104905 0.00445243 0)
(0.103625 0.00448917 0)
(0.102335 0.0045241 0)
(0.101035 0.00455728 0)
(0.0997266 0.00458873 0)
(0.0984092 0.00461851 0)
(0.0970835 0.00464665 0)
(0.0957501 0.0046732 0)
(0.0944094 0.00469821 0)
(0.0930618 0.00472172 0)
(0.0917077 0.00474377 0)
(0.0903476 0.00476442 0)
(0.0889819 0.0047837 0)
(0.0876109 0.00480166 0)
(0.086235 0.00481836 0)
(0.0848546 0.00483383 0)
(0.0834699 0.00484811 0)
(0.0820815 0.00486126 0)
(0.0806894 0.00487332 0)
(0.0792942 0.00488434 0)
(0.0778959 0.00489434 0)
(0.0764951 0.00490339 0)
(0.0750918 0.00491153 0)
(0.0736863 0.00491878 0)
(0.072279 0.00492521 0)
(0.07087 0.00493084 0)
(0.0694596 0.00493572 0)
(0.0680479 0.00493988 0)
(0.0666351 0.00494337 0)
(0.0652215 0.00494622 0)
(0.0638073 0.00494847 0)
(0.0623925 0.00495016 0)
(0.0609773 0.00495132 0)
(0.0595619 0.00495199 0)
(0.0581465 0.00495219 0)
(0.0567311 0.00495197 0)
(0.0553158 0.00495135 0)
(0.0539008 0.00495036 0)
(0.0524862 0.00494904 0)
(0.0510721 0.00494741 0)
(0.0496585 0.00494551 0)
(0.0482455 0.00494336 0)
(0.0468331 0.00494098 0)
(0.0454216 0.0049384 0)
(0.0440108 0.00493566 0)
(0.0426008 0.00493276 0)
(0.0411917 0.00492974 0)
(0.0397836 0.00492661 0)
(0.0383763 0.0049234 0)
(0.03697 0.00492014 0)
(0.0355647 0.00491682 0)
(0.0341604 0.00491349 0)
(0.032757 0.00491015 0)
(0.0313546 0.00490683 0)
(0.0299532 0.00490353 0)
(0.0285527 0.00490028 0)
(0.0271531 0.00489709 0)
(0.0257545 0.00489397 0)
(0.0243568 0.00489094 0)
(0.0229599 0.00488801 0)
(0.0215639 0.00488519 0)
(0.0201687 0.00488249 0)
(0.0187743 0.00487993 0)
(0.0173805 0.00487751 0)
(0.0159875 0.00487524 0)
(0.0145951 0.00487313 0)
(0.0132032 0.00487119 0)
(0.0118119 0.00486943 0)
(0.0104211 0.00486785 0)
(0.00903076 0.00486645 0)
(0.00764077 0.00486524 0)
(0.0062511 0.00486423 0)
(0.00486169 0.00486342 0)
(0.00347249 0.00486281 0)
(0.00208343 0.0048624 0)
(0.000694468 0.0048622 0)
(0.000662735 -0.0059667 0)
(0.00198824 -0.00596699 0)
(0.00331384 -0.00596757 0)
(0.0046396 -0.00596843 0)
(0.0059656 -0.00596959 0)
(0.00729188 -0.00597102 0)
(0.00861852 -0.00597273 0)
(0.00994558 -0.00597472 0)
(0.0112731 -0.00597698 0)
(0.0126012 -0.00597951 0)
(0.0139299 -0.0059823 0)
(0.0152592 -0.00598534 0)
(0.0165893 -0.00598863 0)
(0.0179201 -0.00599215 0)
(0.0192517 -0.00599591 0)
(0.0205843 -0.00599988 0)
(0.0219177 -0.00600407 0)
(0.0232521 -0.00600845 0)
(0.0245875 -0.00601302 0)
(0.025924 -0.00601777 0)
(0.0272616 -0.00602267 0)
(0.0286003 -0.00602773 0)
(0.0299402 -0.00603291 0)
(0.0312813 -0.00603822 0)
(0.0326235 -0.00604362 0)
(0.0339671 -0.00604911 0)
(0.0353118 -0.00605466 0)
(0.0366579 -0.00606025 0)
(0.0380052 -0.00606587 0)
(0.0393538 -0.00607149 0)
(0.0407037 -0.00607709 0)
(0.0420549 -0.00608265 0)
(0.0434073 -0.00608814 0)
(0.044761 -0.00609354 0)
(0.0461159 -0.00609882 0)
(0.047472 -0.00610395 0)
(0.0488293 -0.00610892 0)
(0.0501877 -0.00611367 0)
(0.0515472 -0.00611819 0)
(0.0529077 -0.00612245 0)
(0.0542692 -0.0061264 0)
(0.0556316 -0.00613003 0)
(0.0569948 -0.00613328 0)
(0.0583588 -0.00613612 0)
(0.0597234 -0.00613852 0)
(0.0610885 -0.00614044 0)
(0.0624541 -0.00614184 0)
(0.0638199 -0.00614267 0)
(0.065186 -0.00614289 0)
(0.0665521 -0.00614246 0)
(0.0679181 -0.00614134 0)
(0.0692839 -0.00613947 0)
(0.0706492 -0.00613681 0)
(0.0720139 -0.00613331 0)
(0.0733779 -0.00612892 0)
(0.0747408 -0.00612359 0)
(0.0761025 -0.00611727 0)
(0.0774628 -0.0061099 0)
(0.0788214 -0.00610144 0)
(0.0801781 -0.00609181 0)
(0.0815326 -0.00608098 0)
(0.0828846 -0.00606888 0)
(0.084234 -0.00605545 0)
(0.0855802 -0.00604064 0)
(0.0869231 -0.00602438 0)
(0.0882623 -0.00600662 0)
(0.0895975 -0.00598729 0)
(0.0909284 -0.00596634 0)
(0.0922544 -0.00594371 0)
(0.0935754 -0.00591932 0)
(0.0948908 -0.00589313 0)
(0.0962003 -0.00586506 0)
(0.0975034 -0.00583507 0)
(0.0987998 -0.00580308 0)
(0.100089 -0.00576904 0)
(0.10137 -0.00573288 0)
(0.102644 -0.00569455 0)
(0.103908 -0.005654 0)
(0.105163 -0.00561115 0)
(0.106409 -0.00556596 0)
(0.107645 -0.00551837 0)
(0.108869 -0.00546833 0)
(0.110083 -0.00541579 0)
(0.111284 -0.0053607 0)
(0.112473 -0.005303 0)
(0.113649 -0.00524267 0)
(0.114811 -0.00517965 0)
(0.11596 -0.00511391 0)
(0.117093 -0.0050454 0)
(0.118211 -0.0049741 0)
(0.119312 -0.00489998 0)
(0.120397 -0.00482302 0)
(0.121465 -0.00474318 0)
(0.122514 -0.00466045 0)
(0.123545 -0.00457482 0)
(0.124556 -0.00448628 0)
(0.125548 -0.00439482 0)
(0.126518 -0.00430045 0)
(0.127468 -0.00420317 0)
(0.128395 -0.00410298 0)
(0.1293 -0.00399991 0)
(0.130182 -0.00389397 0)
(0.13104 -0.00378519 0)
(0.131873 -0.0036736 0)
(0.132681 -0.00355924 0)
(0.133463 -0.00344215 0)
(0.134219 -0.00332238 0)
(0.134948 -0.00319998 0)
(0.135649 -0.00307501 0)
(0.136322 -0.00294755 0)
(0.136966 -0.00281765 0)
(0.137582 -0.0026854 0)
(0.138167 -0.00255087 0)
(0.138722 -0.00241417 0)
(0.139246 -0.00227537 0)
(0.139739 -0.00213457 0)
(0.140201 -0.00199189 0)
(0.14063 -0.00184743 0)
(0.141027 -0.00170129 0)
(0.141391 -0.0015536 0)
(0.141722 -0.00140448 0)
(0.142019 -0.00125404 0)
(0.142283 -0.00110243 0)
(0.142512 -0.000949761 0)
(0.142708 -0.000796177 0)
(0.142869 -0.000641811 0)
(0.142995 -0.000486801 0)
(0.143087 -0.000331285 0)