/*--------------------------------*- C++ -*----------------------------------*\
| =========                 |                                                 |
| \\      /  F ield         | OpenFOAM: The Open Source CFD Toolbox           |
|  \\    /   O peration     | Version:  v2012                                 |
|   \\  /    A nd           | Website:  www.openfoam.com                      |
|    \\/     M anipulation  |                                                 |
\*---------------------------------------------------------------------------*/
FoamFile
{
    version     2.0;
    format      ascii;
    class       volScalarField;
    location    "18.1";
    object      W;
}
// * * * * * * * * * * * * * * * * * * * * * * * * * * * * * * * * * * * * * //

dimensions      [0 0 -1 0 0 0 0];


internalField   nonuniform List<scalar> 
65536
(
5.22503e-15
1.57266e-14
2.63842e-14
3.73055e-14
4.86006e-14
6.03835e-14
7.27722e-14
8.58905e-14
9.98686e-14
1.14844e-13
1.30965e-13
1.48388e-13
1.6728e-13
1.87825e-13
2.10218e-13
2.3467e-13
2.61411e-13
2.90689e-13
3.22775e-13
3.57961e-13
3.96565e-13
4.38933e-13
4.85441e-13
5.36496e-13
5.92543e-13
6.5406e-13
7.21572e-13
7.95642e-13
8.76886e-13
9.65966e-13
1.0636e-12
1.17057e-12
1.28771e-12
1.41594e-12
1.55621e-12
1.7096e-12
1.87722e-12
2.06031e-12
2.26015e-12
2.47816e-12
2.71584e-12
2.97477e-12
3.25669e-12
3.56341e-12
3.89687e-12
4.25915e-12
4.65242e-12
5.07901e-12
5.54138e-12
6.04211e-12
6.58392e-12
7.16969e-12
7.80242e-12
8.48524e-12
9.22145e-12
1.00144e-11
1.08678e-11
1.17851e-11
1.27702e-11
1.38271e-11
1.49595e-11
1.61717e-11
1.74678e-11
1.88519e-11
2.03282e-11
2.1901e-11
2.35745e-11
2.53527e-11
2.72398e-11
2.92396e-11
3.1356e-11
3.35924e-11
3.59523e-11
3.84387e-11
4.10542e-11
4.38012e-11
4.66816e-11
4.96967e-11
5.28474e-11
5.61337e-11
5.95554e-11
6.31112e-11
6.67991e-11
7.06164e-11
7.45593e-11
7.86232e-11
8.28026e-11
8.70909e-11
9.14804e-11
9.59624e-11
1.00527e-10
1.05164e-10
1.0986e-10
1.14604e-10
1.1938e-10
1.24174e-10
1.2897e-10
1.33751e-10
1.38498e-10
1.43195e-10
1.47821e-10
1.52358e-10
1.56784e-10
1.61081e-10
1.65228e-10
1.69204e-10
1.7299e-10
1.76566e-10
1.79914e-10
1.83015e-10
1.85851e-10
1.88408e-10
1.90669e-10
1.92622e-10
1.94254e-10
1.95556e-10
1.96519e-10
1.97137e-10
1.97404e-10
1.9732e-10
1.96883e-10
1.96095e-10
1.94961e-10
1.93487e-10
1.9168e-10
1.89551e-10
1.87111e-10
1.84375e-10
1.81357e-10
1.78074e-10
1.74545e-10
1.70788e-10
1.66824e-10
1.62673e-10
1.58357e-10
1.53896e-10
1.49314e-10
1.44631e-10
1.39869e-10
1.35049e-10
1.30191e-10
1.25315e-10
1.2044e-10
1.15584e-10
1.10762e-10
1.05992e-10
1.01286e-10
9.66583e-11
9.21202e-11
8.7682e-11
8.33528e-11
7.91403e-11
7.5051e-11
7.10901e-11
6.72615e-11
6.35684e-11
6.00126e-11
5.65951e-11
5.3316e-11
5.01746e-11
4.71695e-11
4.42988e-11
4.15598e-11
3.89497e-11
3.6465e-11
3.4102e-11
3.1857e-11
2.97258e-11
2.77043e-11
2.57884e-11
2.39738e-11
2.22564e-11
2.06322e-11
1.90971e-11
1.76475e-11
1.62796e-11
1.49899e-11
1.37752e-11
1.26323e-11
1.15583e-11
1.05503e-11
9.60582e-12
8.72234e-12
7.89752e-12
7.12914e-12
6.41509e-12
5.75331e-12
5.14181e-12
4.57864e-12
4.06187e-12
3.58956e-12
3.15978e-12
2.77056e-12
2.4199e-12
2.10576e-12
1.8261e-12
1.57879e-12
1.3617e-12
1.17267e-12
1.00951e-12
8.70055e-13
7.52116e-13
6.5354e-13
5.72205e-13
5.06041e-13
4.53043e-13
4.11283e-13
3.78931e-13
3.54263e-13
3.35679e-13
3.21715e-13
3.1105e-13
3.02525e-13
2.95138e-13
2.8806e-13
2.80628e-13
2.72347e-13
2.62883e-13
2.52048e-13
2.39793e-13
2.26184e-13
2.11385e-13
1.95635e-13
1.79223e-13
1.62468e-13
1.45694e-13
1.29216e-13
1.13317e-13
9.82444e-14
8.41945e-14
7.13117e-14
5.96876e-14
4.93629e-14
4.03333e-14
3.25556e-14
2.59563e-14
2.04396e-14
1.58955e-14
1.2207e-14
9.25635e-15
6.92986e-15
5.12185e-15
3.73688e-15
2.69113e-15
1.91279e-15
1.34173e-15
9.28719e-16
6.34263e-16
4.27294e-16
2.83832e-16
1.85697e-16
1.19322e-16
7.47125e-17
4.45531e-17
2.34499e-17
7.29307e-18
1.78147e-14
5.36205e-14
8.99614e-14
1.27206e-13
1.65732e-13
2.0593e-13
2.48204e-13
2.92979e-13
3.40702e-13
3.91846e-13
4.46915e-13
5.0645e-13
5.71028e-13
6.41275e-13
7.17863e-13
8.0152e-13
8.93036e-13
9.93265e-13
1.10314e-12
1.22366e-12
1.35593e-12
1.50114e-12
1.66059e-12
1.83567e-12
2.02793e-12
2.23901e-12
2.47072e-12
2.72502e-12
3.00402e-12
3.31002e-12
3.6455e-12
4.01314e-12
4.41585e-12
4.85677e-12
5.33927e-12
5.86699e-12
6.44386e-12
7.07407e-12
7.76216e-12
8.51297e-12
9.33169e-12
1.02239e-11
1.11954e-11
1.22527e-11
1.34024e-11
1.46517e-11
1.60082e-11
1.74799e-11
1.90753e-11
2.08033e-11
2.26735e-11
2.46957e-11
2.68803e-11
2.92382e-11
3.17807e-11
3.45196e-11
3.74673e-11
4.06362e-11
4.40396e-11
4.76908e-11
5.16035e-11
5.57917e-11
6.02697e-11
6.50517e-11
7.01523e-11
7.55858e-11
8.13665e-11
8.75084e-11
9.40254e-11
1.00931e-10
1.08237e-10
1.15956e-10
1.241e-10
1.32677e-10
1.41697e-10
1.51168e-10
1.61094e-10
1.7148e-10
1.82329e-10
1.93639e-10
2.05408e-10
2.17632e-10
2.30301e-10
2.43406e-10
2.56932e-10
2.70862e-10
2.85176e-10
2.99848e-10
3.14852e-10
3.30156e-10
3.45724e-10
3.61517e-10
3.77494e-10
3.93606e-10
4.09805e-10
4.26037e-10
4.42245e-10
4.58371e-10
4.74351e-10
4.90123e-10
5.05618e-10
5.20771e-10
5.35511e-10
5.49769e-10
5.63477e-10
5.76565e-10
5.88966e-10
6.00614e-10
6.11446e-10
6.21401e-10
6.30422e-10
6.38456e-10
6.45455e-10
6.51376e-10
6.56183e-10
6.59844e-10
6.62335e-10
6.63637e-10
6.63741e-10
6.62642e-10
6.60346e-10
6.56863e-10
6.52211e-10
6.46416e-10
6.39511e-10
6.31534e-10
6.22531e-10
6.12553e-10
6.01656e-10
5.89899e-10
5.77349e-10
5.64072e-10
5.50141e-10
5.35626e-10
5.20604e-10
5.05147e-10
4.89331e-10
4.73229e-10
4.56915e-10
4.40458e-10
4.23927e-10
4.07388e-10
3.90902e-10
3.74527e-10
3.58317e-10
3.42324e-10
3.26592e-10
3.11162e-10
2.9607e-10
2.8135e-10
2.67028e-10
2.53126e-10
2.39665e-10
2.26658e-10
2.14115e-10
2.02046e-10
1.90452e-10
1.79335e-10
1.68692e-10
1.58519e-10
1.48809e-10
1.39554e-10
1.30743e-10
1.22363e-10
1.14404e-10
1.0685e-10
9.96876e-11
9.29022e-11
8.64788e-11
8.04025e-11
7.46585e-11
6.92324e-11
6.41099e-11
5.92773e-11
5.47215e-11
5.04298e-11
4.63902e-11
4.25915e-11
3.90229e-11
3.56742e-11
3.25362e-11
2.95998e-11
2.68566e-11
2.42989e-11
2.19192e-11
1.97102e-11
1.76653e-11
1.57777e-11
1.4041e-11
1.2449e-11
1.09952e-11
9.67346e-12
8.4774e-12
7.40066e-12
6.43678e-12
5.57921e-12
4.82133e-12
4.15644e-12
3.57778e-12
3.07858e-12
2.65206e-12
2.29149e-12
1.9902e-12
1.74168e-12
1.53955e-12
1.37765e-12
1.25008e-12
1.15124e-12
1.07586e-12
1.01904e-12
9.76331e-13
9.43698e-13
9.17604e-13
8.95008e-13
8.73382e-13
8.50711e-13
8.2549e-13
7.96699e-13
7.63774e-13
7.26559e-13
6.85257e-13
6.40362e-13
5.92597e-13
5.42839e-13
4.9205e-13
4.41215e-13
3.91282e-13
3.43115e-13
2.97456e-13
2.549e-13
2.15883e-13
1.80682e-13
1.49419e-13
1.2208e-13
9.85333e-14
7.85556e-14
6.18566e-14
4.81025e-14
3.69388e-14
2.80087e-14
2.09681e-14
1.54969e-14
1.1306e-14
8.1418e-15
5.78678e-15
4.05901e-15
2.80949e-15
1.91867e-15
1.29254e-15
8.58556e-16
5.61697e-16
3.60918e-16
2.25982e-16
1.34757e-16
7.09273e-17
2.20592e-17
3.75371e-14
1.12987e-13
1.89575e-13
2.68084e-13
3.49318e-13
4.34106e-13
5.2331e-13
6.17832e-13
7.18624e-13
8.26695e-13
9.43121e-13
1.06905e-12
1.20572e-12
1.35447e-12
1.51673e-12
1.69406e-12
1.88815e-12
2.10084e-12
2.3341e-12
2.59011e-12
2.87121e-12
3.17997e-12
3.51916e-12
3.89181e-12
4.3012e-12
4.7509e-12
5.2448e-12
5.78709e-12
6.38235e-12
7.03551e-12
7.75193e-12
8.53742e-12
9.39823e-12
1.03411e-11
1.13734e-11
1.25029e-11
1.37382e-11
1.50883e-11
1.6563e-11
1.81728e-11
1.99289e-11
2.18434e-11
2.3929e-11
2.61995e-11
2.86694e-11
3.13542e-11
3.42703e-11
3.74352e-11
4.08672e-11
4.45858e-11
4.86113e-11
5.29652e-11
5.767e-11
6.27493e-11
6.82274e-11
7.413e-11
8.04834e-11
8.73148e-11
9.46525e-11
1.02525e-10
1.10963e-10
1.19994e-10
1.29651e-10
1.39964e-10
1.50962e-10
1.62678e-10
1.7514e-10
1.8838e-10
2.02425e-10
2.17303e-10
2.3304e-10
2.49661e-10
2.67189e-10
2.85643e-10
3.0504e-10
3.25393e-10
3.46714e-10
3.69008e-10
3.92275e-10
4.16514e-10
4.41713e-10
4.6786e-10
4.94933e-10
5.22903e-10
5.51737e-10
5.81393e-10
6.11821e-10
6.42964e-10
6.74756e-10
7.07125e-10
7.39989e-10
7.73258e-10
8.06835e-10
8.40616e-10
8.74488e-10
9.0833e-10
9.42018e-10
9.7542e-10
1.0084e-09
1.04081e-09
1.07252e-09
1.10337e-09
1.13322e-09
1.16191e-09
1.18931e-09
1.21526e-09
1.23962e-09
1.26227e-09
1.28306e-09
1.30188e-09
1.31861e-09
1.33315e-09
1.34541e-09
1.35531e-09
1.36278e-09
1.36777e-09
1.37025e-09
1.37018e-09
1.36757e-09
1.36242e-09
1.35476e-09
1.34463e-09
1.33209e-09
1.31721e-09
1.30007e-09
1.28077e-09
1.25942e-09
1.23615e-09
1.21108e-09
1.18436e-09
1.15613e-09
1.12655e-09
1.09577e-09
1.06396e-09
1.03127e-09
9.97861e-10
9.63898e-10
9.29532e-10
8.94914e-10
8.60191e-10
8.255e-10
7.90972e-10
7.56731e-10
7.22891e-10
6.89556e-10
6.56822e-10
6.24773e-10
5.93485e-10
5.63023e-10
5.33442e-10
5.04788e-10
4.77098e-10
4.504e-10
4.24713e-10
4.00049e-10
3.76413e-10
3.53803e-10
3.32212e-10
3.11626e-10
2.92029e-10
2.73398e-10
2.55708e-10
2.38934e-10
2.23043e-10
2.08006e-10
1.9379e-10
1.8036e-10
1.67684e-10
1.55728e-10
1.44458e-10
1.33843e-10
1.23849e-10
1.14446e-10
1.05605e-10
9.7297e-11
8.94956e-11
8.21751e-11
7.53116e-11
6.88826e-11
6.2867e-11
5.7245e-11
5.19981e-11
4.71089e-11
4.25613e-11
3.83399e-11
3.44303e-11
3.08186e-11
2.74916e-11
2.44366e-11
2.1641e-11
1.90928e-11
1.67798e-11
1.469e-11
1.28114e-11
1.1132e-11
9.63979e-12
8.32261e-12
7.16831e-12
6.16476e-12
5.2998e-12
4.56139e-12
3.9376e-12
3.4167e-12
2.98723e-12
2.63806e-12
2.35844e-12
2.13811e-12
1.96736e-12
1.83706e-12
1.73879e-12
1.66484e-12
1.60829e-12
1.56306e-12
1.52393e-12
1.48657e-12
1.44752e-12
1.40421e-12
1.35489e-12
1.2986e-12
1.23506e-12
1.16463e-12
1.08812e-12
1.00678e-12
9.22093e-13
8.35686e-13
7.49235e-13
6.64346e-13
5.82482e-13
5.04901e-13
4.3261e-13
3.66346e-13
3.06574e-13
2.53499e-13
2.07093e-13
1.6713e-13
1.33231e-13
1.04899e-13
8.15661e-14
6.26304e-14
4.7485e-14
3.55457e-14
2.62686e-14
1.91633e-14
1.3799e-14
9.80697e-15
6.87844e-15
4.76069e-15
3.25101e-15
2.18998e-15
1.45459e-15
9.51602e-16
6.11426e-16
3.82819e-16
2.28276e-16
1.20147e-16
3.73672e-17
7.17061e-14
2.15844e-13
3.62182e-13
5.12231e-13
6.67543e-13
8.2972e-13
1.00043e-12
1.18141e-12
1.37452e-12
1.5817e-12
1.80503e-12
2.04676e-12
2.30928e-12
2.59519e-12
2.90727e-12
3.24856e-12
3.62235e-12
4.03221e-12
4.48202e-12
4.976e-12
5.51875e-12
6.11527e-12
6.77099e-12
7.49183e-12
8.28423e-12
9.15518e-12
1.01123e-11
1.11638e-11
1.23187e-11
1.35867e-11
1.49784e-11
1.6505e-11
1.8179e-11
2.00137e-11
2.20234e-11
2.42237e-11
2.66313e-11
2.92641e-11
3.21414e-11
3.52839e-11
3.87138e-11
4.24549e-11
4.65325e-11
5.09736e-11
5.5807e-11
6.10635e-11
6.67753e-11
7.2977e-11
7.97049e-11
8.69973e-11
9.48948e-11
1.0344e-10
1.12676e-10
1.22651e-10
1.33412e-10
1.4501e-10
1.57497e-10
1.70926e-10
1.85353e-10
2.00834e-10
2.17428e-10
2.35193e-10
2.54187e-10
2.74472e-10
2.96106e-10
3.19149e-10
3.43658e-10
3.69691e-10
3.97302e-10
4.26544e-10
4.57466e-10
4.90113e-10
5.24526e-10
5.60739e-10
5.98783e-10
6.38679e-10
6.80442e-10
7.24078e-10
7.69582e-10
8.1694e-10
8.66128e-10
9.17107e-10
9.69827e-10
1.02422e-09
1.08022e-09
1.13772e-09
1.19663e-09
1.2568e-09
1.31811e-09
1.3804e-09
1.44349e-09
1.5072e-09
1.57133e-09
1.63566e-09
1.69995e-09
1.76396e-09
1.82744e-09
1.89011e-09
1.95171e-09
2.01195e-09
2.07054e-09
2.12719e-09
2.18161e-09
2.23352e-09
2.28262e-09
2.32865e-09
2.37134e-09
2.41043e-09
2.44568e-09
2.47687e-09
2.50381e-09
2.52631e-09
2.54422e-09
2.55741e-09
2.56579e-09
2.56928e-09
2.56785e-09
2.56149e-09
2.55022e-09
2.5341e-09
2.51323e-09
2.4877e-09
2.45769e-09
2.42335e-09
2.38488e-09
2.34253e-09
2.29652e-09
2.24713e-09
2.19464e-09
2.13935e-09
2.08155e-09
2.02156e-09
1.95971e-09
1.89629e-09
1.83164e-09
1.76607e-09
1.69987e-09
1.63334e-09
1.56676e-09
1.50041e-09
1.43453e-09
1.36935e-09
1.3051e-09
1.24198e-09
1.18015e-09
1.11979e-09
1.06101e-09
1.00395e-09
9.48706e-10
8.95348e-10
8.43942e-10
7.94532e-10
7.47145e-10
7.01795e-10
6.58481e-10
6.17189e-10
5.77896e-10
5.40568e-10
5.05162e-10
4.71629e-10
4.39912e-10
4.09951e-10
3.81683e-10
3.55039e-10
3.29951e-10
3.06349e-10
2.84163e-10
2.63323e-10
2.43761e-10
2.25409e-10
2.08203e-10
1.9208e-10
1.76979e-10
1.62844e-10
1.49619e-10
1.37254e-10
1.257e-10
1.14911e-10
1.04846e-10
9.54642e-11
8.67293e-11
7.86067e-11
7.10647e-11
6.40732e-11
5.76043e-11
5.16319e-11
4.61311e-11
4.10785e-11
3.64515e-11
3.22285e-11
2.83886e-11
2.49113e-11
2.17765e-11
1.89644e-11
1.64554e-11
1.42302e-11
1.22693e-11
1.05537e-11
9.06427e-12
7.78228e-12
6.68915e-12
5.76667e-12
4.99705e-12
4.36296e-12
3.84769e-12
3.43517e-12
3.11014e-12
2.85816e-12
2.66575e-12
2.52048e-12
2.41102e-12
2.32722e-12
2.26017e-12
2.20224e-12
2.1471e-12
2.08973e-12
2.02637e-12
1.95447e-12
1.87264e-12
1.78046e-12
1.67843e-12
1.56775e-12
1.45018e-12
1.32787e-12
1.20316e-12
1.07845e-12
9.56052e-13
8.38069e-13
7.26301e-13
6.22189e-13
5.26789e-13
4.40761e-13
3.64392e-13
2.97636e-13
2.40163e-13
1.91421e-13
1.50692e-13
1.17157e-13
8.99467e-14
6.81868e-14
5.1036e-14
3.77116e-14
2.7508e-14
1.98057e-14
1.40745e-14
9.87069e-15
6.83106e-15
4.66443e-15
3.14185e-15
2.08668e-15
1.36502e-15
8.77005e-16
5.49071e-16
3.27398e-16
1.72313e-16
5.35907e-17
1.32131e-13
3.97747e-13
6.67467e-13
9.4411e-13
1.23057e-12
1.52984e-12
1.84502e-12
2.17938e-12
2.53637e-12
2.91964e-12
3.33309e-12
3.78092e-12
4.26761e-12
4.79805e-12
5.37747e-12
6.01159e-12
6.70659e-12
7.4692e-12
8.30673e-12
9.22716e-12
1.02391e-11
1.13522e-11
1.25765e-11
1.39233e-11
1.54048e-11
1.70342e-11
1.88261e-11
2.07959e-11
2.29609e-11
2.53394e-11
2.79514e-11
3.08188e-11
3.39648e-11
3.7415e-11
4.11967e-11
4.53396e-11
4.98754e-11
5.48385e-11
6.02658e-11
6.61967e-11
7.26739e-11
7.97425e-11
8.74512e-11
9.58517e-11
1.04999e-10
1.14952e-10
1.25773e-10
1.37527e-10
1.50285e-10
1.64119e-10
1.79108e-10
1.95332e-10
2.12876e-10
2.31829e-10
2.52284e-10
2.74336e-10
2.98086e-10
3.23635e-10
3.51089e-10
3.80555e-10
4.12144e-10
4.45967e-10
4.82136e-10
5.20764e-10
5.61963e-10
6.05844e-10
6.52515e-10
7.02083e-10
7.54648e-10
8.10307e-10
8.69148e-10
9.31252e-10
9.96691e-10
1.06553e-09
1.1378e-09
1.21356e-09
1.2928e-09
1.37554e-09
1.46176e-09
1.5514e-09
1.64442e-09
1.74072e-09
1.8402e-09
1.9427e-09
2.04807e-09
2.1561e-09
2.26657e-09
2.37923e-09
2.49378e-09
2.6099e-09
2.72725e-09
2.84544e-09
2.96407e-09
3.0827e-09
3.20087e-09
3.31809e-09
3.43387e-09
3.54767e-09
3.65896e-09
3.7672e-09
3.87183e-09
3.9723e-09
4.06805e-09
4.15856e-09
4.24328e-09
4.32171e-09
4.39336e-09
4.45778e-09
4.51455e-09
4.56328e-09
4.60363e-09
4.63532e-09
4.6581e-09
4.67179e-09
4.67626e-09
4.67144e-09
4.65734e-09
4.634e-09
4.60154e-09
4.56014e-09
4.51003e-09
4.45152e-09
4.38494e-09
4.31069e-09
4.22922e-09
4.141e-09
4.04657e-09
3.94647e-09
3.84128e-09
3.73158e-09
3.61799e-09
3.50111e-09
3.38157e-09
3.25996e-09
3.13688e-09
3.01292e-09
2.88863e-09
2.76454e-09
2.64116e-09
2.51897e-09
2.3984e-09
2.27984e-09
2.16367e-09
2.05021e-09
1.93974e-09
1.83251e-09
1.72871e-09
1.62853e-09
1.53208e-09
1.43947e-09
1.35075e-09
1.26597e-09
1.18512e-09
1.10818e-09
1.03512e-09
9.6587e-10
9.00343e-10
8.38446e-10
7.80069e-10
7.25092e-10
6.73388e-10
6.24822e-10
5.79257e-10
5.36552e-10
4.96566e-10
4.59158e-10
4.2419e-10
3.91524e-10
3.6103e-10
3.32579e-10
3.06047e-10
2.81318e-10
2.5828e-10
2.36826e-10
2.16858e-10
1.98282e-10
1.8101e-10
1.64961e-10
1.50059e-10
1.36233e-10
1.23418e-10
1.11554e-10
1.00585e-10
9.04577e-11
8.11247e-11
7.25408e-11
6.46636e-11
5.74536e-11
5.08732e-11
4.48866e-11
3.94596e-11
3.45594e-11
3.0154e-11
2.62124e-11
2.27043e-11
1.96001e-11
1.68706e-11
1.44872e-11
1.24219e-11
1.06472e-11
9.13629e-12
7.86293e-12
6.80177e-12
5.92829e-12
5.21895e-12
4.6513e-12
4.20403e-12
3.85717e-12
3.59211e-12
3.39173e-12
3.24051e-12
3.12457e-12
3.03176e-12
2.95171e-12
2.87583e-12
2.7973e-12
2.71104e-12
2.6136e-12
2.50308e-12
2.37891e-12
2.24175e-12
2.09318e-12
1.93557e-12
1.77175e-12
1.60486e-12
1.4381e-12
1.27453e-12
1.11694e-12
9.67728e-13
8.28802e-13
7.01553e-13
5.86847e-13
4.85058e-13
3.96111e-13
3.19556e-13
2.5465e-13
2.00429e-13
1.55797e-13
1.19591e-13
9.06445e-14
6.7834e-14
5.01163e-14
3.6551e-14
2.63131e-14
1.86963e-14
1.31104e-14
9.07205e-15
6.19396e-15
4.17168e-15
2.77038e-15
1.81211e-15
1.16416e-15
7.288e-16
4.34541e-16
2.28694e-16
7.11244e-17
2.3834e-13
7.17494e-13
1.20415e-12
1.70345e-12
2.22068e-12
2.76132e-12
3.33105e-12
3.93584e-12
4.58199e-12
5.27623e-12
6.0257e-12
6.8381e-12
7.72169e-12
8.68543e-12
9.73899e-12
1.08929e-11
1.21585e-11
1.35483e-11
1.50758e-11
1.67557e-11
1.8604e-11
2.06383e-11
2.28777e-11
2.53429e-11
2.80565e-11
3.10432e-11
3.43298e-11
3.79455e-11
4.1922e-11
4.62936e-11
5.10978e-11
5.63751e-11
6.21691e-11
6.85275e-11
7.55014e-11
8.31462e-11
9.15215e-11
1.00692e-10
1.10725e-10
1.21697e-10
1.33687e-10
1.46779e-10
1.61066e-10
1.76643e-10
1.93615e-10
2.12092e-10
2.3219e-10
2.54034e-10
2.77755e-10
3.0349e-10
3.31386e-10
3.61595e-10
3.94276e-10
4.29597e-10
4.67731e-10
5.08859e-10
5.53167e-10
6.00848e-10
6.52098e-10
7.07121e-10
7.6612e-10
8.29305e-10
8.96884e-10
9.69067e-10
1.04606e-09
1.12807e-09
1.2153e-09
1.30794e-09
1.40617e-09
1.51017e-09
1.6201e-09
1.7361e-09
1.85829e-09
1.98677e-09
2.12163e-09
2.2629e-09
2.41061e-09
2.56473e-09
2.72521e-09
2.89195e-09
3.0648e-09
3.24359e-09
3.42805e-09
3.61791e-09
3.81282e-09
4.01237e-09
4.21611e-09
4.42351e-09
4.634e-09
4.84694e-09
5.06163e-09
5.27734e-09
5.49325e-09
5.70852e-09
5.92225e-09
6.1335e-09
6.34131e-09
6.54466e-09
6.74254e-09
6.93391e-09
7.11773e-09
7.29297e-09
7.4586e-09
7.61363e-09
7.7571e-09
7.88807e-09
8.0057e-09
8.10917e-09
8.19776e-09
8.27082e-09
8.3278e-09
8.36824e-09
8.39179e-09
8.3982e-09
8.38736e-09
8.35924e-09
8.31396e-09
8.25173e-09
8.17291e-09
8.07793e-09
7.96738e-09
7.8419e-09
7.70227e-09
7.54933e-09
7.38402e-09
7.20732e-09
7.02029e-09
6.82402e-09
6.61967e-09
6.40836e-09
6.19129e-09
5.96959e-09
5.74444e-09
5.51695e-09
5.28823e-09
5.05931e-09
4.83121e-09
4.60487e-09
4.38116e-09
4.1609e-09
3.94482e-09
3.73359e-09
3.52779e-09
3.32793e-09
3.13444e-09
2.94769e-09
2.76794e-09
2.59543e-09
2.43029e-09
2.27262e-09
2.12245e-09
1.97974e-09
1.84443e-09
1.71642e-09
1.59554e-09
1.48162e-09
1.37445e-09
1.27381e-09
1.17943e-09
1.09108e-09
1.00846e-09
9.31312e-10
8.59354e-10
7.92306e-10
7.29895e-10
6.71849e-10
6.17904e-10
5.67807e-10
5.21311e-10
4.7818e-10
4.38192e-10
4.01133e-10
3.66804e-10
3.35016e-10
3.05594e-10
2.78372e-10
2.53199e-10
2.29932e-10
2.08441e-10
1.88603e-10
1.70308e-10
1.53453e-10
1.37942e-10
1.23688e-10
1.1061e-10
9.86339e-11
8.76891e-11
7.7711e-11
6.86391e-11
6.0416e-11
5.29877e-11
4.63028e-11
4.03119e-11
3.49679e-11
3.02252e-11
2.60396e-11
2.23685e-11
1.91704e-11
1.64051e-11
1.40336e-11
1.20181e-11
1.03223e-11
8.91088e-12
7.7504e-12
6.80876e-12
6.05555e-12
5.46213e-12
5.00176e-12
4.64965e-12
4.38309e-12
4.18158e-12
4.02683e-12
3.90292e-12
3.79625e-12
3.69559e-12
3.59208e-12
3.47907e-12
3.3521e-12
3.20866e-12
3.04802e-12
2.87098e-12
2.67958e-12
2.47682e-12
2.26632e-12
2.0521e-12
1.83821e-12
1.62858e-12
1.42676e-12
1.23577e-12
1.05804e-12
8.95336e-13
7.48736e-13
6.18699e-13
5.05113e-13
4.0739e-13
3.24565e-13
2.55398e-13
1.98482e-13
1.52324e-13
1.1543e-13
8.63657e-14
6.37959e-14
4.65196e-14
3.34838e-14
2.37876e-14
1.6678e-14
1.15391e-14
7.87729e-15
5.30475e-15
3.52243e-15
2.30379e-15
1.47988e-15
9.26375e-16
5.52306e-16
2.90658e-16
9.03931e-17
4.22475e-13
1.27187e-12
2.13474e-12
3.02032e-12
3.93812e-12
4.89796e-12
5.91006e-12
6.98518e-12
8.13467e-12
9.37062e-12
1.0706e-11
1.21545e-11
1.37314e-11
1.54525e-11
1.73357e-11
1.93997e-11
2.16655e-11
2.41554e-11
2.68941e-11
2.99084e-11
3.32274e-11
3.68832e-11
4.09103e-11
4.53468e-11
5.0234e-11
5.56169e-11
6.15446e-11
6.80704e-11
7.52525e-11
8.31539e-11
9.18431e-11
1.01394e-10
1.11889e-10
1.23412e-10
1.36061e-10
1.49935e-10
1.65145e-10
1.81809e-10
2.00055e-10
2.2002e-10
2.4185e-10
2.65704e-10
2.91748e-10
3.20163e-10
3.51141e-10
3.84885e-10
4.21612e-10
4.61551e-10
5.04944e-10
5.52049e-10
6.03133e-10
6.58481e-10
7.18387e-10
7.83162e-10
8.53127e-10
9.28616e-10
1.00998e-09
1.09756e-09
1.19173e-09
1.29287e-09
1.40135e-09
1.51755e-09
1.64187e-09
1.77468e-09
1.91636e-09
2.0673e-09
2.22785e-09
2.39837e-09
2.57919e-09
2.77061e-09
2.97293e-09
3.18639e-09
3.4112e-09
3.64753e-09
3.8955e-09
4.15517e-09
4.42655e-09
4.70957e-09
5.00409e-09
5.30989e-09
5.62667e-09
5.95403e-09
6.29149e-09
6.63844e-09
6.9942e-09
7.35797e-09
7.72884e-09
8.10579e-09
8.48768e-09
8.87329e-09
9.26127e-09
9.65017e-09
1.00385e-08
1.04245e-08
1.08066e-08
1.1183e-08
1.15517e-08
1.19111e-08
1.2259e-08
1.25937e-08
1.29132e-08
1.32155e-08
1.34988e-08
1.37613e-08
1.40013e-08
1.42171e-08
1.44072e-08
1.45702e-08
1.47049e-08
1.48102e-08
1.48853e-08
1.49294e-08
1.49421e-08
1.4923e-08
1.48722e-08
1.47898e-08
1.46762e-08
1.45321e-08
1.43582e-08
1.41556e-08
1.39255e-08
1.36694e-08
1.33888e-08
1.30855e-08
1.27614e-08
1.24184e-08
1.20585e-08
1.1684e-08
1.1297e-08
1.08997e-08
1.04942e-08
1.00827e-08
9.66739e-09
9.25026e-09
8.83329e-09
8.41833e-09
8.00715e-09
7.60138e-09
7.20252e-09
6.81191e-09
6.43079e-09
6.06021e-09
5.70108e-09
5.35419e-09
5.02015e-09
4.69946e-09
4.39247e-09
4.09942e-09
3.82042e-09
3.55549e-09
3.30452e-09
3.06736e-09
2.84373e-09
2.63333e-09
2.43578e-09
2.25065e-09
2.07747e-09
1.91576e-09
1.765e-09
1.62466e-09
1.4942e-09
1.37307e-09
1.26076e-09
1.15672e-09
1.06045e-09
9.71434e-10
8.89197e-10
8.13276e-10
7.43227e-10
6.78632e-10
6.19095e-10
5.64243e-10
5.13727e-10
4.67222e-10
4.24424e-10
3.85053e-10
3.4885e-10
3.15573e-10
2.85004e-10
2.56939e-10
2.31192e-10
2.07594e-10
1.85987e-10
1.66228e-10
1.48185e-10
1.31738e-10
1.16775e-10
1.03192e-10
9.08939e-11
7.97908e-11
6.9799e-11
6.08398e-11
5.28387e-11
4.5725e-11
3.94315e-11
3.38937e-11
2.905e-11
2.48414e-11
2.1211e-11
1.81044e-11
1.54695e-11
1.32564e-11
1.14173e-11
9.90696e-12
8.6826e-12
7.70381e-12
6.93278e-12
6.3344e-12
5.87633e-12
5.52906e-12
5.26605e-12
5.06377e-12
4.90173e-12
4.76254e-12
4.63187e-12
4.49839e-12
4.35366e-12
4.192e-12
4.01021e-12
3.80733e-12
3.58433e-12
3.34375e-12
3.08929e-12
2.82551e-12
2.55735e-12
2.28988e-12
2.02795e-12
1.77597e-12
1.53768e-12
1.31607e-12
1.11331e-12
9.3072e-13
7.68837e-13
6.27499e-13
5.05952e-13
4.02975e-13
3.17014e-13
2.46303e-13
1.88977e-13
1.43173e-13
1.07098e-13
7.90934e-14
5.76627e-14
4.14963e-14
2.94744e-14
2.06616e-14
1.42929e-14
9.75568e-15
6.56875e-15
4.36117e-15
2.852e-15
1.83183e-15
1.14658e-15
6.83536e-16
3.59699e-16
1.11861e-16
7.36715e-13
2.21801e-12
3.72311e-12
5.26837e-12
6.87057e-12
8.54709e-12
1.0316e-11
1.21964e-11
1.42084e-11
1.63734e-11
1.87144e-11
2.1256e-11
2.40249e-11
2.70498e-11
3.0362e-11
3.39954e-11
3.7987e-11
4.23771e-11
4.72096e-11
5.25326e-11
5.83983e-11
6.48639e-11
7.19919e-11
7.98504e-11
8.85136e-11
9.80626e-11
1.08586e-10
1.20179e-10
1.32948e-10
1.47006e-10
1.62476e-10
1.79494e-10
1.98204e-10
2.18765e-10
2.41347e-10
2.66136e-10
2.93331e-10
3.23145e-10
3.55812e-10
3.9158e-10
4.30715e-10
4.73505e-10
5.20255e-10
5.71294e-10
6.26971e-10
6.87656e-10
7.53746e-10
8.25658e-10
9.03836e-10
9.88747e-10
1.08088e-09
1.18076e-09
1.28892e-09
1.40593e-09
1.53238e-09
1.66887e-09
1.81604e-09
1.97454e-09
2.14503e-09
2.3282e-09
2.52473e-09
2.73532e-09
2.96068e-09
3.2015e-09
3.45847e-09
3.73228e-09
4.02357e-09
4.33299e-09
4.66112e-09
5.00851e-09
5.37567e-09
5.76303e-09
6.17094e-09
6.5997e-09
7.04948e-09
7.52037e-09
8.01232e-09
8.52517e-09
9.05861e-09
9.61218e-09
1.01853e-08
1.07771e-08
1.13867e-08
1.20128e-08
1.26543e-08
1.33094e-08
1.39765e-08
1.46535e-08
1.53384e-08
1.60288e-08
1.67221e-08
1.74157e-08
1.81065e-08
1.87915e-08
1.94676e-08
2.01314e-08
2.07795e-08
2.14084e-08
2.20146e-08
2.25945e-08
2.31446e-08
2.36615e-08
2.41418e-08
2.45823e-08
2.49798e-08
2.53316e-08
2.56349e-08
2.58875e-08
2.60872e-08
2.62323e-08
2.63214e-08
2.63536e-08
2.63282e-08
2.62451e-08
2.61044e-08
2.59068e-08
2.56534e-08
2.53455e-08
2.49852e-08
2.45745e-08
2.4116e-08
2.36127e-08
2.30677e-08
2.24844e-08
2.18666e-08
2.12179e-08
2.05423e-08
1.98439e-08
1.91267e-08
1.83948e-08
1.76522e-08
1.69027e-08
1.61503e-08
1.53986e-08
1.4651e-08
1.39108e-08
1.3181e-08
1.24644e-08
1.17635e-08
1.10805e-08
1.04173e-08
9.77573e-09
9.15704e-09
8.5624e-09
7.99267e-09
7.44845e-09
6.93013e-09
6.43786e-09
5.97161e-09
5.53115e-09
5.11609e-09
4.72592e-09
4.35999e-09
4.01753e-09
3.69772e-09
3.39964e-09
3.12235e-09
2.86484e-09
2.6261e-09
2.40511e-09
2.20083e-09
2.01226e-09
1.8384e-09
1.67828e-09
1.53096e-09
1.39554e-09
1.27117e-09
1.15701e-09
1.0523e-09
9.56307e-10
8.6835e-10
7.87788e-10
7.14029e-10
6.4652e-10
5.84753e-10
5.28257e-10
4.76602e-10
4.29391e-10
3.86261e-10
3.46882e-10
3.10951e-10
2.78191e-10
2.4835e-10
2.212e-10
1.96531e-10
1.74151e-10
1.53884e-10
1.35569e-10
1.19059e-10
1.04215e-10
9.09108e-11
7.90272e-11
6.84536e-11
5.90856e-11
5.08252e-11
4.35796e-11
3.7261e-11
3.1786e-11
2.70754e-11
2.30541e-11
1.96507e-11
1.67974e-11
1.44304e-11
1.24892e-11
1.09171e-11
9.66119e-12
8.67205e-12
7.90417e-12
7.31583e-12
6.86917e-12
6.5303e-12
6.26926e-12
6.06011e-12
5.88087e-12
5.71348e-12
5.54371e-12
5.36098e-12
5.15813e-12
4.93114e-12
4.67879e-12
4.40223e-12
4.10453e-12
3.79025e-12
3.46491e-12
3.13461e-12
2.8055e-12
2.48352e-12
2.17403e-12
1.88157e-12
1.60978e-12
1.36126e-12
1.13759e-12
9.394e-13
7.66449e-13
6.17788e-13
4.91896e-13
3.86851e-13
3.00476e-13
2.30478e-13
1.74569e-13
1.30551e-13
9.63904e-14
7.02569e-14
5.05485e-14
3.58967e-14
2.51587e-14
1.74007e-14
1.18749e-14
7.99439e-15
5.3069e-15
3.46998e-15
2.22849e-15
1.3947e-15
8.31383e-16
4.37472e-16
1.36043e-16
1.26434e-12
3.8067e-12
6.3905e-12
9.04418e-12
1.1797e-11
1.46791e-11
1.77221e-11
2.09592e-11
2.44255e-11
2.81584e-11
3.21982e-11
3.65878e-11
4.1374e-11
4.66073e-11
5.23423e-11
5.86389e-11
6.55619e-11
7.31823e-11
8.15775e-11
9.0832e-11
1.01038e-10
1.12297e-10
1.24719e-10
1.38425e-10
1.53546e-10
1.70225e-10
1.8862e-10
2.08901e-10
2.31255e-10
2.55883e-10
2.83007e-10
3.12865e-10
3.45716e-10
3.81844e-10
4.21552e-10
4.6517e-10
5.13055e-10
5.65591e-10
6.23192e-10
6.86305e-10
7.55408e-10
8.31014e-10
9.13674e-10
1.00398e-09
1.10255e-09
1.21005e-09
1.32721e-09
1.45477e-09
1.59352e-09
1.74432e-09
1.90804e-09
2.08562e-09
2.27803e-09
2.4863e-09
2.71148e-09
2.95468e-09
3.21703e-09
3.4997e-09
3.8039e-09
4.13086e-09
4.48181e-09
4.85801e-09
5.26073e-09
5.69123e-09
6.15073e-09
6.64046e-09
7.16159e-09
7.71525e-09
8.30249e-09
8.92428e-09
9.5815e-09
1.02749e-08
1.10051e-08
1.17726e-08
1.25776e-08
1.34203e-08
1.43005e-08
1.52178e-08
1.61716e-08
1.7161e-08
1.81848e-08
1.92415e-08
2.03291e-08
2.14456e-08
2.25883e-08
2.37543e-08
2.49403e-08
2.61426e-08
2.73572e-08
2.85797e-08
2.98054e-08
3.10291e-08
3.22456e-08
3.3449e-08
3.46336e-08
3.57933e-08
3.69217e-08
3.80126e-08
3.90595e-08
4.00559e-08
4.09957e-08
4.18725e-08
4.26804e-08
4.34136e-08
4.40668e-08
4.4635e-08
4.51136e-08
4.54986e-08
4.57867e-08
4.59751e-08
4.60617e-08
4.60452e-08
4.59248e-08
4.57007e-08
4.53739e-08
4.49459e-08
4.44192e-08
4.3797e-08
4.30832e-08
4.22821e-08
4.1399e-08
4.04396e-08
3.94099e-08
3.83167e-08
3.71667e-08
3.59671e-08
3.47253e-08
3.34487e-08
3.21448e-08
3.08209e-08
2.94843e-08
2.8142e-08
2.68007e-08
2.54668e-08
2.41463e-08
2.28448e-08
2.15675e-08
2.03189e-08
1.91031e-08
1.79238e-08
1.6784e-08
1.56863e-08
1.46327e-08
1.36247e-08
1.26634e-08
1.17496e-08
1.08834e-08
1.00646e-08
9.29295e-09
8.56753e-09
7.88736e-09
7.25116e-09
6.65751e-09
6.10479e-09
5.59129e-09
5.11519e-09
4.67462e-09
4.26766e-09
3.8924e-09
3.54691e-09
3.22931e-09
2.93774e-09
2.67041e-09
2.42558e-09
2.2016e-09
1.99688e-09
1.80992e-09
1.63931e-09
1.48371e-09
1.34189e-09
1.21269e-09
1.09504e-09
9.87939e-10
8.9048e-10
8.01822e-10
7.21193e-10
6.4789e-10
5.8127e-10
5.20748e-10
4.65792e-10
4.15918e-10
3.70688e-10
3.29705e-10
2.92607e-10
2.59067e-10
2.28788e-10
2.01497e-10
1.76949e-10
1.54917e-10
1.35194e-10
1.1759e-10
1.01928e-10
8.80455e-11
7.57907e-11
6.50222e-11
5.56076e-11
4.74229e-11
4.03516e-11
3.4284e-11
2.91172e-11
2.47542e-11
2.11039e-11
1.80809e-11
1.56055e-11
1.3603e-11
1.20044e-11
1.07457e-11
9.76841e-12
9.01898e-12
8.44927e-12
8.01632e-12
7.68234e-12
7.41472e-12
7.18593e-12
6.97342e-12
6.75945e-12
6.53087e-12
6.27878e-12
5.99815e-12
5.68741e-12
5.34791e-12
4.98335e-12
4.59923e-12
4.20224e-12
3.79972e-12
3.39913e-12
3.00762e-12
2.63162e-12
2.27662e-12
1.94695e-12
1.6457e-12
1.37476e-12
1.13482e-12
9.25551e-13
7.45768e-13
5.93596e-13
4.66681e-13
3.62368e-13
2.77869e-13
2.10403e-13
1.57307e-13
1.16115e-13
8.46125e-14
6.08628e-14
4.32117e-14
3.02791e-14
2.0938e-14
1.42862e-14
9.61605e-15
6.38238e-15
4.17258e-15
2.67935e-15
1.67668e-15
9.99375e-16
5.25833e-16
1.63516e-16
2.13592e-12
6.4312e-12
1.07975e-11
1.52835e-11
1.99394e-11
2.48169e-11
2.99702e-11
3.54564e-11
4.13356e-11
4.76725e-11
5.45361e-11
6.20006e-11
7.01466e-11
7.90611e-11
8.8839e-11
9.95833e-11
1.11407e-10
1.24432e-10
1.38794e-10
1.54639e-10
1.72127e-10
1.91435e-10
2.12754e-10
2.36295e-10
2.62286e-10
2.9098e-10
3.22649e-10
3.57592e-10
3.96135e-10
4.38633e-10
4.85472e-10
5.37071e-10
5.93886e-10
6.56413e-10
7.25188e-10
8.0079e-10
8.83849e-10
9.75041e-10
1.0751e-09
1.1848e-09
1.30501e-09
1.43662e-09
1.58061e-09
1.73802e-09
1.90995e-09
2.09761e-09
2.30223e-09
2.52517e-09
2.76784e-09
3.03173e-09
3.31841e-09
3.62956e-09
3.96689e-09
4.33223e-09
4.72746e-09
5.15454e-09
5.6155e-09
6.11243e-09
6.64746e-09
7.22279e-09
7.84062e-09
8.5032e-09
9.21276e-09
9.97155e-09
1.07818e-08
1.16456e-08
1.2565e-08
1.35421e-08
1.45788e-08
1.56766e-08
1.68372e-08
1.80618e-08
1.93516e-08
2.07073e-08
2.21292e-08
2.36176e-08
2.51721e-08
2.67919e-08
2.84758e-08
3.02221e-08
3.20284e-08
3.3892e-08
3.58092e-08
3.77761e-08
3.97878e-08
4.1839e-08
4.39235e-08
4.60347e-08
4.8165e-08
5.03064e-08
5.24502e-08
5.45872e-08
5.67076e-08
5.88011e-08
6.08569e-08
6.28641e-08
6.48113e-08
6.66872e-08
6.84802e-08
7.01789e-08
7.1772e-08
7.32485e-08
7.45979e-08
7.58101e-08
7.68759e-08
7.77865e-08
7.85344e-08
7.91129e-08
7.95164e-08
7.97405e-08
7.97822e-08
7.96397e-08
7.93126e-08
7.88019e-08
7.811e-08
7.72407e-08
7.61991e-08
7.49916e-08
7.3626e-08
7.21111e-08
7.04568e-08
6.86739e-08
6.6774e-08
6.47694e-08
6.2673e-08
6.04979e-08
5.82576e-08
5.59655e-08
5.36349e-08
5.12792e-08
4.89111e-08
4.65429e-08
4.41863e-08
4.18525e-08
3.95518e-08
3.72934e-08
3.5086e-08
3.29372e-08
3.08536e-08
2.88409e-08
2.69038e-08
2.50461e-08
2.32707e-08
2.15795e-08
1.99738e-08
1.84541e-08
1.702e-08
1.56707e-08