/*--------------------------------*- C++ -*----------------------------------*\
| =========                 |                                                 |
| \\      /  F ield         | OpenFOAM: The Open Source CFD Toolbox           |
|  \\    /   O peration     | Version:  v2012                                 |
|   \\  /    A nd           | Website:  www.openfoam.com                      |
|    \\/     M anipulation  |                                                 |
\*---------------------------------------------------------------------------*/
FoamFile
{
    version     2.0;
    format      ascii;
    class       volVectorField;
    location    "9.2";
    object      Psi;
}
// * * * * * * * * * * * * * * * * * * * * * * * * * * * * * * * * * * * * * //

dimensions      [0 2 -1 0 0 0 0];


internalField   nonuniform List<vector> 
65536
(
(0 0 9.23354e-06)
(0 0 2.77007e-05)
(0 0 4.61683e-05)
(0 0 6.46363e-05)
(0 0 8.31051e-05)
(0 0 0.000101575)
(0 0 0.000120045)
(0 0 0.000138517)
(0 0 0.000156991)
(0 0 0.000175465)
(0 0 0.000193941)
(0 0 0.000212419)
(0 0 0.000230898)
(0 0 0.000249379)
(0 0 0.00026786)
(0 0 0.000286343)
(0 0 0.000304827)
(0 0 0.000323311)
(0 0 0.000341796)
(0 0 0.00036028)
(0 0 0.000378764)
(0 0 0.000397246)
(0 0 0.000415727)
(0 0 0.000434205)
(0 0 0.000452679)
(0 0 0.000471149)
(0 0 0.000489614)
(0 0 0.000508072)
(0 0 0.000526522)
(0 0 0.000544964)
(0 0 0.000563395)
(0 0 0.000581814)
(0 0 0.000600219)
(0 0 0.000618609)
(0 0 0.000636982)
(0 0 0.000655336)
(0 0 0.000673668)
(0 0 0.000691976)
(0 0 0.000710258)
(0 0 0.000728511)
(0 0 0.000746733)
(0 0 0.000764921)
(0 0 0.000783072)
(0 0 0.000801182)
(0 0 0.000819249)
(0 0 0.000837269)
(0 0 0.000855239)
(0 0 0.000873154)
(0 0 0.000891012)
(0 0 0.000908807)
(0 0 0.000926536)
(0 0 0.000944195)
(0 0 0.000961779)
(0 0 0.000979284)
(0 0 0.000996705)
(0 0 0.00101404)
(0 0 0.00103127)
(0 0 0.00104841)
(0 0 0.00106545)
(0 0 0.00108237)
(0 0 0.00109918)
(0 0 0.00111587)
(0 0 0.00113243)
(0 0 0.00114886)
(0 0 0.00116515)
(0 0 0.00118129)
(0 0 0.00119729)
(0 0 0.00121312)
(0 0 0.0012288)
(0 0 0.0012443)
(0 0 0.00125963)
(0 0 0.00127477)
(0 0 0.00128972)
(0 0 0.00130448)
(0 0 0.00131904)
(0 0 0.00133338)
(0 0 0.00134751)
(0 0 0.00136142)
(0 0 0.00137509)
(0 0 0.00138853)
(0 0 0.00140173)
(0 0 0.00141468)
(0 0 0.00142737)
(0 0 0.0014398)
(0 0 0.00145195)
(0 0 0.00146384)
(0 0 0.00147544)
(0 0 0.00148676)
(0 0 0.00149778)
(0 0 0.0015085)
(0 0 0.00151891)
(0 0 0.00152902)
(0 0 0.00153881)
(0 0 0.00154828)
(0 0 0.00155742)
(0 0 0.00156623)
(0 0 0.0015747)
(0 0 0.00158284)
(0 0 0.00159063)
(0 0 0.00159807)
(0 0 0.00160516)
(0 0 0.0016119)
(0 0 0.00161827)
(0 0 0.00162429)
(0 0 0.00162994)
(0 0 0.00163522)
(0 0 0.00164014)
(0 0 0.00164468)
(0 0 0.00164886)
(0 0 0.00165266)
(0 0 0.00165608)
(0 0 0.00165913)
(0 0 0.0016618)
(0 0 0.0016641)
(0 0 0.00166602)
(0 0 0.00166757)
(0 0 0.00166874)
(0 0 0.00166954)
(0 0 0.00166997)
(0 0 0.00167002)
(0 0 0.00166971)
(0 0 0.00166903)
(0 0 0.00166798)
(0 0 0.00166657)
(0 0 0.0016648)
(0 0 0.00166268)
(0 0 0.0016602)
(0 0 0.00165737)
(0 0 0.00165419)
(0 0 0.00165067)
(0 0 0.00164681)
(0 0 0.00164262)
(0 0 0.00163809)
(0 0 0.00163325)
(0 0 0.00162807)
(0 0 0.00162259)
(0 0 0.00161679)
(0 0 0.00161068)
(0 0 0.00160428)
(0 0 0.00159758)
(0 0 0.00159058)
(0 0 0.00158331)
(0 0 0.00157575)
(0 0 0.00156792)
(0 0 0.00155982)
(0 0 0.00155146)
(0 0 0.00154284)
(0 0 0.00153397)
(0 0 0.00152486)
(0 0 0.0015155)
(0 0 0.00150592)
(0 0 0.0014961)
(0 0 0.00148607)
(0 0 0.00147581)
(0 0 0.00146535)
(0 0 0.00145468)
(0 0 0.00144382)
(0 0 0.00143276)
(0 0 0.00142152)
(0 0 0.00141009)
(0 0 0.00139849)
(0 0 0.00138671)
(0 0 0.00137477)
(0 0 0.00136268)
(0 0 0.00135042)
(0 0 0.00133802)
(0 0 0.00132548)
(0 0 0.00131279)
(0 0 0.00129998)
(0 0 0.00128703)
(0 0 0.00127396)
(0 0 0.00126077)
(0 0 0.00124746)
(0 0 0.00123404)
(0 0 0.00122052)
(0 0 0.0012069)
(0 0 0.00119318)
(0 0 0.00117936)
(0 0 0.00116546)
(0 0 0.00115147)
(0 0 0.0011374)
(0 0 0.00112325)
(0 0 0.00110903)
(0 0 0.00109474)
(0 0 0.00108038)
(0 0 0.00106595)
(0 0 0.00105147)
(0 0 0.00103693)
(0 0 0.00102233)
(0 0 0.00100769)
(0 0 0.00099299)
(0 0 0.000978248)
(0 0 0.000963464)
(0 0 0.000948638)
(0 0 0.000933775)
(0 0 0.000918876)
(0 0 0.000903943)
(0 0 0.000888979)
(0 0 0.000873986)
(0 0 0.000858966)
(0 0 0.000843921)
(0 0 0.000828852)
(0 0 0.000813762)
(0 0 0.000798652)
(0 0 0.000783524)
(0 0 0.00076838)
(0 0 0.00075322)
(0 0 0.000738047)
(0 0 0.000722861)
(0 0 0.000707664)
(0 0 0.000692458)
(0 0 0.000677242)
(0 0 0.00066202)
(0 0 0.00064679)
(0 0 0.000631555)
(0 0 0.000616315)
(0 0 0.000601071)
(0 0 0.000585824)
(0 0 0.000570575)
(0 0 0.000555324)
(0 0 0.000540072)
(0 0 0.000524819)
(0 0 0.000509567)
(0 0 0.000494315)
(0 0 0.000479064)
(0 0 0.000463814)
(0 0 0.000448566)
(0 0 0.00043332)
(0 0 0.000418077)
(0 0 0.000402836)
(0 0 0.000387598)
(0 0 0.000372363)
(0 0 0.00035713)
(0 0 0.000341901)
(0 0 0.000326676)
(0 0 0.000311453)
(0 0 0.000296235)
(0 0 0.000281019)
(0 0 0.000265807)
(0 0 0.000250598)
(0 0 0.000235392)
(0 0 0.000220189)
(0 0 0.000204989)
(0 0 0.000189793)
(0 0 0.000174599)
(0 0 0.000159407)
(0 0 0.000144218)
(0 0 0.000129031)
(0 0 0.000113846)
(0 0 9.86628e-05)
(0 0 8.34812e-05)
(0 0 6.8301e-05)
(0 0 5.31218e-05)
(0 0 3.79435e-05)
(0 0 2.27659e-05)
(0 0 7.58859e-06)
(0 0 2.77005e-05)
(0 0 8.31019e-05)
(0 0 0.000138504)
(0 0 0.000193908)
(0 0 0.000249314)
(0 0 0.000304723)
(0 0 0.000360135)
(0 0 0.000415551)
(0 0 0.000470971)
(0 0 0.000526395)
(0 0 0.000581823)
(0 0 0.000637256)
(0 0 0.000692693)
(0 0 0.000748135)
(0 0 0.00080358)
(0 0 0.000859029)
(0 0 0.00091448)
(0 0 0.000969934)
(0 0 0.00102539)
(0 0 0.00108084)
(0 0 0.00113629)
(0 0 0.00119174)
(0 0 0.00124718)
(0 0 0.00130262)
(0 0 0.00135804)
(0 0 0.00141345)
(0 0 0.00146885)
(0 0 0.00152422)
(0 0 0.00157958)
(0 0 0.0016349)
(0 0 0.0016902)
(0 0 0.00174546)
(0 0 0.00180067)
(0 0 0.00185585)
(0 0 0.00191097)
(0 0 0.00196603)
(0 0 0.00202103)
(0 0 0.00207595)
(0 0 0.0021308)
(0 0 0.00218557)
(0 0 0.00224023)
(0 0 0.0022948)
(0 0 0.00234926)
(0 0 0.00240359)
(0 0 0.00245779)
(0 0 0.00251186)
(0 0 0.00256577)
(0 0 0.00261952)
(0 0 0.0026731)
(0 0 0.00272649)
(0 0 0.00277968)
(0 0 0.00283266)
(0 0 0.00288542)
(0 0 0.00293794)
(0 0 0.0029902)
(0 0 0.0030422)
(0 0 0.00309392)
(0 0 0.00314534)
(0 0 0.00319645)
(0 0 0.00324722)
(0 0 0.00329766)
(0 0 0.00334773)
(0 0 0.00339741)
(0 0 0.00344671)
(0 0 0.00349558)
(0 0 0.00354402)
(0 0 0.00359201)
(0 0 0.00363953)
(0 0 0.00368655)
(0 0 0.00373307)
(0 0 0.00377906)
(0 0 0.0038245)
(0 0 0.00386937)
(0 0 0.00391365)
(0 0 0.00395732)
(0 0 0.00400036)
(0 0 0.00404275)
(0 0 0.00408448)
(0 0 0.00412551)
(0 0 0.00416584)
(0 0 0.00420544)
(0 0 0.00424428)
(0 0 0.00428236)
(0 0 0.00431965)
(0 0 0.00435614)
(0 0 0.00439179)
(0 0 0.00442661)
(0 0 0.00446056)
(0 0 0.00449363)
(0 0 0.0045258)
(0 0 0.00455705)
(0 0 0.00458737)
(0 0 0.00461674)
(0 0 0.00464515)
(0 0 0.00467258)
(0 0 0.00469902)
(0 0 0.00472445)
(0 0 0.00474886)
(0 0 0.00477223)
(0 0 0.00479456)
(0 0 0.00481584)
(0 0 0.00483605)
(0 0 0.00485518)
(0 0 0.00487323)
(0 0 0.00489018)
(0 0 0.00490604)
(0 0 0.00492078)
(0 0 0.00493442)
(0 0 0.00494694)
(0 0 0.00495834)
(0 0 0.00496861)
(0 0 0.00497776)
(0 0 0.00498578)
(0 0 0.00499268)
(0 0 0.00499844)
(0 0 0.00500308)
(0 0 0.0050066)
(0 0 0.00500899)
(0 0 0.00501027)
(0 0 0.00501043)
(0 0 0.00500949)
(0 0 0.00500744)
(0 0 0.0050043)
(0 0 0.00500007)
(0 0 0.00499476)
(0 0 0.00498838)
(0 0 0.00498093)
(0 0 0.00497244)
(0 0 0.00496291)
(0 0 0.00495234)
(0 0 0.00494076)
(0 0 0.00492818)
(0 0 0.00491461)
(0 0 0.00490005)
(0 0 0.00488454)
(0 0 0.00486807)
(0 0 0.00485067)
(0 0 0.00483235)
(0 0 0.00481313)
(0 0 0.00479302)
(0 0 0.00477203)
(0 0 0.0047502)
(0 0 0.00472752)
(0 0 0.00470402)
(0 0 0.00467972)
(0 0 0.00465463)
(0 0 0.00462877)
(0 0 0.00460215)
(0 0 0.00457481)
(0 0 0.00454674)
(0 0 0.00451797)
(0 0 0.00448852)
(0 0 0.00445841)
(0 0 0.00442764)
(0 0 0.00439625)
(0 0 0.00436425)
(0 0 0.00433164)
(0 0 0.00429846)
(0 0 0.00426472)
(0 0 0.00423044)
(0 0 0.00419562)
(0 0 0.0041603)
(0 0 0.00412448)
(0 0 0.00408818)
(0 0 0.00405142)
(0 0 0.00401421)
(0 0 0.00397657)
(0 0 0.00393851)
(0 0 0.00390005)
(0 0 0.0038612)
(0 0 0.00382199)
(0 0 0.00378241)
(0 0 0.00374249)
(0 0 0.00370223)
(0 0 0.00366166)
(0 0 0.00362079)
(0 0 0.00357962)
(0 0 0.00353817)
(0 0 0.00349646)
(0 0 0.00345449)
(0 0 0.00341227)
(0 0 0.00336982)
(0 0 0.00332715)
(0 0 0.00328427)
(0 0 0.00324119)
(0 0 0.00319792)
(0 0 0.00315446)
(0 0 0.00311084)
(0 0 0.00306705)
(0 0 0.0030231)
(0 0 0.00297901)
(0 0 0.00293478)
(0 0 0.00289043)
(0 0 0.00284595)
(0 0 0.00280136)
(0 0 0.00275666)
(0 0 0.00271186)
(0 0 0.00266696)
(0 0 0.00262198)
(0 0 0.00257692)
(0 0 0.00253178)
(0 0 0.00248658)
(0 0 0.0024413)
(0 0 0.00239597)
(0 0 0.00235059)
(0 0 0.00230515)
(0 0 0.00225967)
(0 0 0.00221415)
(0 0 0.00216859)
(0 0 0.002123)
(0 0 0.00207738)
(0 0 0.00203173)
(0 0 0.00198606)
(0 0 0.00194037)
(0 0 0.00189467)
(0 0 0.00184895)
(0 0 0.00180322)
(0 0 0.00175747)
(0 0 0.00171173)
(0 0 0.00166597)
(0 0 0.00162021)
(0 0 0.00157446)
(0 0 0.0015287)
(0 0 0.00148294)
(0 0 0.00143719)
(0 0 0.00139144)
(0 0 0.0013457)
(0 0 0.00129996)
(0 0 0.00125423)
(0 0 0.0012085)
(0 0 0.00116279)
(0 0 0.00111708)
(0 0 0.00107139)
(0 0 0.0010257)
(0 0 0.000980023)
(0 0 0.000934356)
(0 0 0.000888699)
(0 0 0.000843053)
(0 0 0.000797416)
(0 0 0.000751789)
(0 0 0.000706172)
(0 0 0.000660564)
(0 0 0.000614965)
(0 0 0.000569375)
(0 0 0.000523793)
(0 0 0.000478218)
(0 0 0.000432651)
(0 0 0.00038709)
(0 0 0.000341536)
(0 0 0.000295987)
(0 0 0.000250442)
(0 0 0.000204902)
(0 0 0.000159364)
(0 0 0.00011383)
(0 0 6.82972e-05)
(0 0 2.27656e-05)
(0 0 4.61672e-05)
(0 0 0.000138502)
(0 0 0.000230839)
(0 0 0.000323178)
(0 0 0.000415521)
(0 0 0.000507868)
(0 0 0.000600221)
(0 0 0.00069258)
(0 0 0.000784946)
(0 0 0.000877319)
(0 0 0.0009697)
(0 0 0.00106209)
(0 0 0.00115448)
(0 0 0.00124689)
(0 0 0.0013393)
(0 0 0.00143171)
(0 0 0.00152413)
(0 0 0.00161656)
(0 0 0.00170898)
(0 0 0.0018014)
(0 0 0.00189383)
(0 0 0.00198624)
(0 0 0.00207865)
(0 0 0.00217104)
(0 0 0.00226342)
(0 0 0.00235577)
(0 0 0.0024481)
(0 0 0.0025404)
(0 0 0.00263266)
(0 0 0.00272487)
(0 0 0.00281703)
(0 0 0.00290914)
(0 0 0.00300117)
(0 0 0.00309313)
(0 0 0.00318501)
(0 0 0.00327678)
(0 0 0.00336846)
(0 0 0.00346001)
(0 0 0.00355143)
(0 0 0.00364271)
(0 0 0.00373384)
(0 0 0.00382479)
(0 0 0.00391556)
(0 0 0.00400613)
(0 0 0.00409648)
(0 0 0.0041866)
(0 0 0.00427646)
(0 0 0.00436606)
(0 0 0.00445537)
(0 0 0.00454437)
(0 0 0.00463303)
(0 0 0.00472135)
(0 0 0.00480929)
(0 0 0.00489684)
(0 0 0.00498397)
(0 0 0.00507065)
(0 0 0.00515686)
(0 0 0.00524258)
(0 0 0.00532778)
(0 0 0.00541243)
(0 0 0.0054965)
(0 0 0.00557997)
(0 0 0.0056628)
(0 0 0.00574497)
(0 0 0.00582645)
(0 0 0.00590721)
(0 0 0.00598721)
(0 0 0.00606642)
(0 0 0.00614482)
(0 0 0.00622237)
(0 0 0.00629904)
(0 0 0.00637479)
(0 0 0.0064496)
(0 0 0.00652342)
(0 0 0.00659623)
(0 0 0.00666799)
(0 0 0.00673867)
(0 0 0.00680823)
(0 0 0.00687664)
(0 0 0.00694387)
(0 0 0.00700989)
(0 0 0.00707466)
(0 0 0.00713815)
(0 0 0.00720032)
(0 0 0.00726115)
(0 0 0.0073206)
(0 0 0.00737864)
(0 0 0.00743524)
(0 0 0.00749037)
(0 0 0.00754401)
(0 0 0.00759612)
(0 0 0.00764667)
(0 0 0.00769565)
(0 0 0.00774301)
(0 0 0.00778874)
(0 0 0.00783282)
(0 0 0.00787522)
(0 0 0.00791591)
(0 0 0.00795488)
(0 0 0.00799211)
(0 0 0.00802758)
(0 0 0.00806127)
(0 0 0.00809317)
(0 0 0.00812326)
(0 0 0.00815152)
(0 0 0.00817796)
(0 0 0.00820254)
(0 0 0.00822527)
(0 0 0.00824614)
(0 0 0.00826514)
(0 0 0.00828227)
(0 0 0.00829752)
(0 0 0.00831089)
(0 0 0.00832238)
(0 0 0.00833199)
(0 0 0.00833972)
(0 0 0.00834558)
(0 0 0.00834956)
(0 0 0.00835169)
(0 0 0.00835195)
(0 0 0.00835037)
(0 0 0.00834695)
(0 0 0.0083417)
(0 0 0.00833464)
(0 0 0.00832578)
(0 0 0.00831514)
(0 0 0.00830272)
(0 0 0.00828855)
(0 0 0.00827265)
(0 0 0.00825503)
(0 0 0.00823572)
(0 0 0.00821473)
(0 0 0.00819209)
(0 0 0.00816782)
(0 0 0.00814195)
(0 0 0.00811449)
(0 0 0.00808547)
(0 0 0.00805492)
(0 0 0.00802287)
(0 0 0.00798933)
(0 0 0.00795434)
(0 0 0.00791792)
(0 0 0.00788011)
(0 0 0.00784093)
(0 0 0.00780041)
(0 0 0.00775857)
(0 0 0.00771545)
(0 0 0.00767107)
(0 0 0.00762547)
(0 0 0.00757867)
(0 0 0.00753071)
(0 0 0.00748161)
(0 0 0.0074314)
(0 0 0.00738011)
(0 0 0.00732777)
(0 0 0.0072744)
(0 0 0.00722005)
(0 0 0.00716473)
(0 0 0.00710848)
(0 0 0.00705132)
(0 0 0.00699327)
(0 0 0.00693438)
(0 0 0.00687466)
(0 0 0.00681415)
(0 0 0.00675286)
(0 0 0.00669083)
(0 0 0.00662808)
(0 0 0.00656463)
(0 0 0.00650051)
(0 0 0.00643575)
(0 0 0.00637037)
(0 0 0.00630439)
(0 0 0.00623784)
(0 0 0.00617074)
(0 0 0.00610311)
(0 0 0.00603497)
(0 0 0.00596634)
(0 0 0.00589725)
(0 0 0.00582771)
(0 0 0.00575775)
(0 0 0.00568738)
(0 0 0.00561662)
(0 0 0.00554549)
(0 0 0.00547401)
(0 0 0.0054022)
(0 0 0.00533006)
(0 0 0.00525763)
(0 0 0.00518491)
(0 0 0.00511191)
(0 0 0.00503866)
(0 0 0.00496517)
(0 0 0.00489145)
(0 0 0.00481752)
(0 0 0.00474338)
(0 0 0.00466905)
(0 0 0.00459454)
(0 0 0.00451987)
(0 0 0.00444504)
(0 0 0.00437006)
(0 0 0.00429495)
(0 0 0.00421971)
(0 0 0.00414436)
(0 0 0.0040689)
(0 0 0.00399335)
(0 0 0.0039177)
(0 0 0.00384197)
(0 0 0.00376616)
(0 0 0.00369029)
(0 0 0.00361436)
(0 0 0.00353837)
(0 0 0.00346233)
(0 0 0.00338625)
(0 0 0.00331013)
(0 0 0.00323398)
(0 0 0.00315779)
(0 0 0.00308159)
(0 0 0.00300537)
(0 0 0.00292913)
(0 0 0.00285288)
(0 0 0.00277662)
(0 0 0.00270036)
(0 0 0.00262409)
(0 0 0.00254783)
(0 0 0.00247157)
(0 0 0.00239531)
(0 0 0.00231906)
(0 0 0.00224282)
(0 0 0.00216659)
(0 0 0.00209037)
(0 0 0.00201416)
(0 0 0.00193797)
(0 0 0.0018618)
(0 0 0.00178563)
(0 0 0.00170949)
(0 0 0.00163336)
(0 0 0.00155725)
(0 0 0.00148115)
(0 0 0.00140508)
(0 0 0.00132902)
(0 0 0.00125297)
(0 0 0.00117694)
(0 0 0.00110093)
(0 0 0.00102493)
(0 0 0.000948948)
(0 0 0.000872979)
(0 0 0.000797022)
(0 0 0.000721078)
(0 0 0.000645144)
(0 0 0.00056922)
(0 0 0.000493306)
(0 0 0.000417399)
(0 0 0.000341499)
(0 0 0.000265605)
(0 0 0.000189714)
(0 0 0.000113827)
(0 0 3.79423e-05)
(0 0 6.46333e-05)
(0 0 0.000193901)
(0 0 0.000323171)
(0 0 0.000452444)
(0 0 0.000581723)
(0 0 0.000711008)
(0 0 0.000840301)
(0 0 0.000969603)
(0 0 0.00109891)
(0 0 0.00122824)
(0 0 0.00135757)
(0 0 0.00148691)
(0 0 0.00161627)
(0 0 0.00174563)
(0 0 0.00187501)
(0 0 0.00200439)
(0 0 0.00213378)
(0 0 0.00226318)
(0 0 0.00239257)
(0 0 0.00252197)
(0 0 0.00265136)
(0 0 0.00278075)
(0 0 0.00291012)
(0 0 0.00303948)
(0 0 0.00316881)
(0 0 0.00329812)
(0 0 0.00342739)
(0 0 0.00355661)
(0 0 0.00368578)
(0 0 0.00381489)
(0 0 0.00394393)
(0 0 0.00407289)
(0 0 0.00420175)
(0 0 0.00433051)
(0 0 0.00445914)
(0 0 0.00458765)
(0 0 0.004716)
(0 0 0.0048442)
(0 0 0.00497221)
(0 0 0.00510002)
(0 0 0.00522761)
(0 0 0.00535497)
(0 0 0.00548207)
(0 0 0.00560888)
(0 0 0.0057354)
(0 0 0.00586159)
(0 0 0.00598743)
(0 0 0.00611289)
(0 0 0.00623795)
(0 0 0.00636257)
(0 0 0.00648674)
(0 0 0.00661041)
(0 0 0.00673357)
(0 0 0.00685616)
(0 0 0.00697818)
(0 0 0.00709957)
(0 0 0.0072203)
(0 0 0.00734034)
(0 0 0.00745966)
(0 0 0.0075782)
(0 0 0.00769594)
(0 0 0.00781284)
(0 0 0.00792885)
(0 0 0.00804393)
(0 0 0.00815804)
(0 0 0.00827115)
(0 0 0.00838319)
(0 0 0.00849414)
(0 0 0.00860394)
(0 0 0.00871256)
(0 0 0.00881994)
(0 0 0.00892604)
(0 0 0.00903081)
(0 0 0.00913421)
(0 0 0.00923619)
(0 0 0.0093367)
(0 0 0.00943569)
(0 0 0.00953313)
(0 0 0.00962896)
(0 0 0.00972313)
(0 0 0.0098156)
(0 0 0.00990632)
(0 0 0.00999524)
(0 0 0.0100823)
(0 0 0.0101675)
(0 0 0.0102508)
(0 0 0.0103321)
(0 0 0.0104114)
(0 0 0.0104886)
(0 0 0.0105638)
(0 0 0.0106367)
(0 0 0.0107076)
(0 0 0.0107762)
(0 0 0.0108425)
(0 0 0.0109066)
(0 0 0.0109683)
(0 0 0.0110277)
(0 0 0.0110847)
(0 0 0.0111393)
(0 0 0.0111914)
(0 0 0.0112411)
(0 0 0.0112883)
(0 0 0.011333)
(0 0 0.0113751)
(0 0 0.0114147)
(0 0 0.0114517)
(0 0 0.0114862)
(0 0 0.011518)
(0 0 0.0115472)
(0 0 0.0115738)
(0 0 0.0115978)
(0 0 0.0116192)
(0 0 0.0116379)
(0 0 0.011654)
(0 0 0.0116674)
(0 0 0.0116782)
(0 0 0.0116864)
(0 0 0.011692)
(0 0 0.011695)
(0 0 0.0116953)
(0 0 0.0116931)
(0 0 0.0116883)
(0 0 0.0116809)
(0 0 0.011671)
(0 0 0.0116586)
(0 0 0.0116437)
(0 0 0.0116263)
(0 0 0.0116064)
(0 0 0.0115841)
(0 0 0.0115594)
(0 0 0.0115324)
(0 0 0.0115029)
(0 0 0.0114712)
(0 0 0.0114372)
(0 0 0.0114009)
(0 0 0.0113625)
(0 0 0.0113218)
(0 0 0.011279)
(0 0 0.0112341)
(0 0 0.0111871)
(0 0 0.0111381)
(0 0 0.0110871)
(0 0 0.0110341)
(0 0 0.0109792)
(0 0 0.0109224)
(0 0 0.0108638)
(0 0 0.0108034)
(0 0 0.0107412)
(0 0 0.0106773)
(0 0 0.0106118)
(0 0 0.0105446)
(0 0 0.0104758)
(0 0 0.0104055)
(0 0 0.0103336)
(0 0 0.0102603)
(0 0 0.0101856)
(0 0 0.0101094)
(0 0 0.0100319)
(0 0 0.00995314)
(0 0 0.00987307)
(0 0 0.00979178)
(0 0 0.00970929)
(0 0 0.00962565)
(0 0 0.00954089)
(0 0 0.00945505)
(0 0 0.00936817)
(0 0 0.00928028)
(0 0 0.00919142)
(0 0 0.00910162)
(0 0 0.00901092)
(0 0 0.00891936)
(0 0 0.00882696)
(0 0 0.00873375)
(0 0 0.00863978)
(0 0 0.00854506)
(0 0 0.00844964)
(0 0 0.00835353)
(0 0 0.00825677)
(0 0 0.00815939)
(0 0 0.00806142)
(0 0 0.00796287)
(0 0 0.00786379)
(0 0 0.00776418)
(0 0 0.00766409)
(0 0 0.00756352)
(0 0 0.00746251)
(0 0 0.00736108)
(0 0 0.00725925)
(0 0 0.00715704)
(0 0 0.00705447)
(0 0 0.00695156)
(0 0 0.00684833)
(0 0 0.00674481)
(0 0 0.00664099)
(0 0 0.00653692)
(0 0 0.00643259)
(0 0 0.00632803)
(0 0 0.00622325)
(0 0 0.00611827)
(0 0 0.00601311)
(0 0 0.00590776)
(0 0 0.00580226)
(0 0 0.0056966)
(0 0 0.00559081)
(0 0 0.0054849)
(0 0 0.00537886)
(0 0 0.00527273)
(0 0 0.00516649)
(0 0 0.00506018)
(0 0 0.00495378)
(0 0 0.00484732)
(0 0 0.0047408)
(0 0 0.00463422)
(0 0 0.0045276)
(0 0 0.00442095)
(0 0 0.00431426)
(0 0 0.00420754)
(0 0 0.0041008)
(0 0 0.00399404)
(0 0 0.00388728)
(0 0 0.00378051)
(0 0 0.00367373)
(0 0 0.00356696)
(0 0 0.00346019)
(0 0 0.00335342)
(0 0 0.00324667)
(0 0 0.00313993)
(0 0 0.00303321)
(0 0 0.0029265)
(0 0 0.00281981)
(0 0 0.00271314)
(0 0 0.00260649)
(0 0 0.00249987)
(0 0 0.00239326)
(0 0 0.00228668)
(0 0 0.00218013)
(0 0 0.00207359)
(0 0 0.00196708)
(0 0 0.0018606)
(0 0 0.00175414)
(0 0 0.0016477)
(0 0 0.00154128)
(0 0 0.00143488)
(0 0 0.00132851)
(0 0 0.00122215)
(0 0 0.00111581)
(0 0 0.00100949)
(0 0 0.000903188)
(0 0 0.000796896)
(0 0 0.000690617)
(0 0 0.000584349)
(0 0 0.000478091)
(0 0 0.00037184)
(0 0 0.000265596)
(0 0 0.000159356)
(0 0 5.31183e-05)
(0 0 8.30987e-05)
(0 0 0.000249297)
(0 0 0.000415499)
(0 0 0.000581705)
(0 0 0.000747918)
(0 0 0.00091414)
(0 0 0.00108037)
(0 0 0.00124662)
(0 0 0.00141287)
(0 0 0.00157914)
(0 0 0.00174543)
(0 0 0.00191173)
(0 0 0.00207804)
(0 0 0.00224437)
(0 0 0.00241071)
(0 0 0.00257706)
(0 0 0.00274342)
(0 0 0.00290979)
(0 0 0.00307617)
(0 0 0.00324254)
(0 0 0.00340891)
(0 0 0.00357527)
(0 0 0.00374162)
(0 0 0.00390794)
(0 0 0.00407424)
(0 0 0.0042405)
(0 0 0.00440672)
(0 0 0.00457288)
(0 0 0.00473897)
(0 0 0.00490499)
(0 0 0.00507091)
(0 0 0.00523673)
(0 0 0.00540243)
(0 0 0.005568)
(0 0 0.00573342)
(0 0 0.00589866)
(0 0 0.00606372)
(0 0 0.00622856)
(0 0 0.00639318)
(0 0 0.00655754)
(0 0 0.00672162)
(0 0 0.0068854)
(0 0 0.00704885)
(0 0 0.00721194)
(0 0 0.00737465)
(0 0 0.00753693)
(0 0 0.00769877)
(0 0 0.00786012)
(0 0 0.00802096)
(0 0 0.00818124)
(0 0 0.00834094)
(0 0 0.0085)
(0 0 0.00865839)
(0 0 0.00881608)
(0 0 0.00897301)
(0 0 0.00912914)
(0 0 0.00928443)
(0 0 0.00943884)
(0 0 0.0095923)
(0 0 0.00974479)
(0 0 0.00989624)
(0 0 0.0100466)
(0 0 0.0101958)
(0 0 0.0103439)
(0 0 0.0104907)
(0 0 0.0106361)
(0 0 0.0107803)
(0 0 0.010923)
(0 0 0.0110643)
(0 0 0.011204)
(0 0 0.0113421)
(0 0 0.0114786)
(0 0 0.0116134)
(0 0 0.0117464)
(0 0 0.0118776)
(0 0 0.0120069)
(0 0 0.0121343)
(0 0 0.0122596)
(0 0 0.0123829)
(0 0 0.0125041)
(0 0 0.0126231)
(0 0 0.0127398)
(0 0 0.0128542)
(0 0 0.0129662)
(0 0 0.0130759)
(0 0 0.013183)
(0 0 0.0132876)
(0 0 0.0133896)
(0 0 0.013489)
(0 0 0.0135856)
(0 0 0.0136795)
(0 0 0.0137707)
(0 0 0.0138589)
(0 0 0.0139443)
(0 0 0.0140267)
(0 0 0.0141061)
(0 0 0.0141825)
(0 0 0.0142559)
(0 0 0.0143261)
(0 0 0.0143932)
(0 0 0.0144571)
(0 0 0.0145178)
(0 0 0.0145753)
(0 0 0.0146295)
(0 0 0.0146805)
(0 0 0.0147281)
(0 0 0.0147724)
(0 0 0.0148133)
(0 0 0.0148509)
(0 0 0.0148851)
(0 0 0.014916)
(0 0 0.0149434)
(0 0 0.0149675)
(0 0 0.0149882)
(0 0 0.0150055)
(0 0 0.0150194)
(0 0 0.0150299)
(0 0 0.015037)
(0 0 0.0150408)
(0 0 0.0150413)
(0 0 0.0150384)
(0 0 0.0150322)
(0 0 0.0150227)
(0 0 0.0150099)
(0 0 0.0149939)
(0 0 0.0149747)
(0 0 0.0149523)
(0 0 0.0149267)
(0 0 0.014898)
(0 0 0.0148662)
(0 0 0.0148313)
(0 0 0.0147935)
(0 0 0.0147526)
(0 0 0.0147088)
(0 0 0.0146622)
(0 0 0.0146126)
(0 0 0.0145603)
(0 0 0.0145052)
(0 0 0.0144474)
(0 0 0.0143869)
(0 0 0.0143238)
(0 0 0.0142581)
(0 0 0.01419)
(0 0 0.0141193)
(0 0 0.0140462)
(0 0 0.0139708)
(0 0 0.0138931)
(0 0 0.0138131)
(0 0 0.0137309)
(0 0 0.0136465)
(0 0 0.0135601)
(0 0 0.0134716)
(0 0 0.0133811)
(0 0 0.0132886)
(0 0 0.0131943)
(0 0 0.0130981)
(0 0 0.0130001)
(0 0 0.0129004)
(0 0 0.0127991)
(0 0 0.0126961)
(0 0 0.0125915)
(0 0 0.0124854)
(0 0 0.0123777)
(0 0 0.0122687)
(0 0 0.0121583)
(0 0 0.0120465)
(0 0 0.0119335)
(0 0 0.0118191)
(0 0 0.0117036)
(0 0 0.011587)
(0 0 0.0114692)
(0 0 0.0113503)
(0 0 0.0112304)
(0 0 0.0111096)
(0 0 0.0109877)
(0 0 0.010865)
(0 0 0.0107414)
(0 0 0.0106169)
(0 0 0.0104917)
(0 0 0.0103657)
(0 0 0.0102389)
(0 0 0.0101115)
(0 0 0.00998337)
(0 0 0.00985463)
(0 0 0.00972529)
(0 0 0.00959539)
(0 0 0.00946494)
(0 0 0.00933397)
(0 0 0.00920253)
(0 0 0.00907062)
(0 0 0.00893827)
(0 0 0.00880552)
(0 0 0.00867238)
(0 0 0.00853888)
(0 0 0.00840504)
(0 0 0.00827087)
(0 0 0.00813642)
(0 0 0.00800168)
(0 0 0.00786668)
(0 0 0.00773144)
(0 0 0.00759598)
(0 0 0.0074603)
(0 0 0.00732444)
(0 0 0.00718841)
(0 0 0.00705221)
(0 0 0.00691586)
(0 0 0.00677938)
(0 0 0.00664278)
(0 0 0.00650607)
(0 0 0.00636927)
(0 0 0.00623237)
(0 0 0.0060954)
(0 0 0.00595837)
(0 0 0.00582127)
(0 0 0.00568413)
(0 0 0.00554695)
(0 0 0.00540973)
(0 0 0.00527249)
(0 0 0.00513522)
(0 0 0.00499794)
(0 0 0.00486066)
(0 0 0.00472337)
(0 0 0.00458608)
(0 0 0.0044488)
(0 0 0.00431153)
(0 0 0.00417427)
(0 0 0.00403703)
(0 0 0.00389981)
(0 0 0.00376261)
(0 0 0.00362544)
(0 0 0.00348829)
(0 0 0.00335117)
(0 0 0.00321407)
(0 0 0.00307701)
(0 0 0.00293998)
(0 0 0.00280298)
(0 0 0.00266601)
(0 0 0.00252907)
(0 0 0.00239216)
(0 0 0.00225528)
(0 0 0.00211843)
(0 0 0.00198161)
(0 0 0.00184482)
(0 0 0.00170805)
(0 0 0.00157131)
(0 0 0.00143459)
(0 0 0.00129789)
(0 0 0.00116122)
(0 0 0.00102456)
(0 0 0.000887917)
(0 0 0.00075129)
(0 0 0.000614675)
(0 0 0.00047807)
(0 0 0.000341473)
(0 0 0.000204882)
(0 0 6.82935e-05)
(0 0 0.000101563)
(0 0 0.00030469)
(0 0 0.000507822)
(0 0 0.000710959)
(0 0 0.000914105)
(0 0 0.00111726)
(0 0 0.00132043)
(0 0 0.00152362)
(0 0 0.00172682)
(0 0 0.00193004)
(0 0 0.00213327)
(0 0 0.00233653)
(0 0 0.0025398)
(0 0 0.00274309)
(0 0 0.0029464)
(0 0 0.00314972)
(0 0 0.00335306)
(0 0 0.00355641)
(0 0 0.00375976)
(0 0 0.00396311)
(0 0 0.00416647)
(0 0 0.00436981)
(0 0 0.00457313)
(0 0 0.00477644)
(0 0 0.0049797)
(0 0 0.00518293)
(0 0 0.0053861)
(0 0 0.00558921)
(0 0 0.00579223)
(0 0 0.00599517)
(0 0 0.00619799)
(0 0 0.00640069)
(0 0 0.00660325)
(0 0 0.00680565)
(0 0 0.00700786)
(0 0 0.00720986)
(0 0 0.00741164)
(0 0 0.00761316)
(0 0 0.00781441)
(0 0 0.00801534)
(0 0 0.00821594)
(0 0 0.00841617)
(0 0 0.008616)
(0 0 0.00881539)
(0 0 0.00901431)
(0 0 0.00921273)
(0 0 0.0094106)
(0 0 0.00960788)
(0 0 0.00980453)
(0 0 0.0100005)
(0 0 0.0101958)
(0 0 0.0103903)
(0 0 0.0105839)
(0 0 0.0107767)
(0 0 0.0109686)
(0 0 0.0111596)
(0 0 0.0113495)
(0 0 0.0115383)
(0 0 0.0117259)
(0 0 0.0119124)
(0 0 0.0120976)
(0 0 0.0122815)
(0 0 0.012464)
(0 0 0.012645)
(0 0 0.0128246)
(0 0 0.0130025)
(0 0 0.0131788)
(0 0 0.0133533)
(0 0 0.0135261)
(0 0 0.013697)
(0 0 0.0138659)
(0 0 0.0140329)
(0 0 0.0141977)
(0 0 0.0143605)
(0 0 0.0145209)
(0 0 0.0146791)
(0 0 0.0148349)
(0 0 0.0149882)
(0 0 0.015139)
(0 0 0.0152872)
(0 0 0.0154328)
(0 0 0.0155755)
(0 0 0.0157155)
(0 0 0.0158526)
(0 0 0.0159867)
(0 0 0.0161177)
(0 0 0.0162457)
(0 0 0.0163705)
(0 0 0.016492)
(0 0 0.0166103)
(0 0 0.0167252)
(0 0 0.0168366)
(0 0 0.0169446)
(0 0 0.017049)
(0 0 0.0171498)
(0 0 0.017247)
(0 0 0.0173405)
(0 0 0.0174302)
(0 0 0.0175161)
(0 0 0.0175982)
(0 0 0.0176763)
(0 0 0.0177506)
(0 0 0.0178209)
(0 0 0.0178872)
(0 0 0.0179495)
(0 0 0.0180078)
(0 0 0.0180619)
(0 0 0.018112)
(0 0 0.018158)
(0 0 0.0181998)
(0 0 0.0182375)
(0 0 0.0182711)
(0 0 0.0183005)
(0 0 0.0183258)
(0 0 0.0183469)
(0 0 0.0183639)
(0 0 0.0183767)
(0 0 0.0183855)
(0 0 0.0183901)
(0 0 0.0183906)
(0 0 0.018387)
(0 0 0.0183794)
(0 0 0.0183677)
(0 0 0.0183521)
(0 0 0.0183325)
(0 0 0.0183089)
(0 0 0.0182814)
(0 0 0.0182501)
(0 0 0.0182149)
(0 0 0.018176)
(0 0 0.0181333)
(0 0 0.018087)
(0 0 0.018037)
(0 0 0.0179834)
(0 0 0.0179262)
(0 0 0.0178656)
(0 0 0.0178015)
(0 0 0.0177341)
(0 0 0.0176633)
(0 0 0.0175893)
(0 0 0.0175121)
(0 0 0.0174317)
(0 0 0.0173483)
(0 0 0.0172619)
(0 0 0.0171725)
(0 0 0.0170802)
(0 0 0.016985)
(0 0 0.0168872)
(0 0 0.0167866)
(0 0 0.0166834)
(0 0 0.0165776)
(0 0 0.0164693)
(0 0 0.0163586)
(0 0 0.0162455)
(0 0 0.0161301)
(0 0 0.0160124)
(0 0 0.0158926)
(0 0 0.0157706)
(0 0 0.0156466)
(0 0 0.0155206)
(0 0 0.0153927)
(0 0 0.0152629)
(0 0 0.0151313)
(0 0 0.0149979)
(0 0 0.0148629)
(0 0 0.0147262)
(0 0 0.0145879)
(0 0 0.0144481)
(0 0 0.0143068)
(0 0 0.0141641)
(0 0 0.0140201)
(0 0 0.0138747)
(0 0 0.0137281)
(0 0 0.0135803)
(0 0 0.0134313)
(0 0 0.0132812)
(0 0 0.0131301)
(0 0 0.0129779)
(0 0 0.0128247)
(0 0 0.0126706)
(0 0 0.0125156)
(0 0 0.0123598)
(0 0 0.0122032)
(0 0 0.0120458)
(0 0 0.0118876)
(0 0 0.0117288)
(0 0 0.0115693)
(0 0 0.0114092)
(0 0 0.0112485)
(0 0 0.0110872)
(0 0 0.0109254)
(0 0 0.0107631)
(0 0 0.0106003)
(0 0 0.0104371)
(0 0 0.0102735)
(0 0 0.0101095)
(0 0 0.00994508)
(0 0 0.00978036)
(0 0 0.00961532)
(0 0 0.00945)
(0 0 0.0092844)
(0 0 0.00911854)
(0 0 0.00895246)
(0 0 0.00878616)
(0 0 0.00861967)
(0 0 0.008453)
(0 0 0.00828616)
(0 0 0.00811918)
(0 0 0.00795207)
(0 0 0.00778484)
(0 0 0.0076175)
(0 0 0.00745008)
(0 0 0.00728257)
(0 0 0.00711499)
(0 0 0.00694736)
(0 0 0.00677967)
(0 0 0.00661195)
(0 0 0.00644419)
(0 0 0.00627641)
(0 0 0.00610862)
(0 0 0.00594081)
(0 0 0.005773)
(0 0 0.0056052)
(0 0 0.0054374)
(0 0 0.00526962)
(0 0 0.00510186)
(0 0 0.00493411)
(0 0 0.00476639)
(0 0 0.0045987)
(0 0 0.00443104)
(0 0 0.00426341)
(0 0 0.00409581)
(0 0 0.00392825)
(0 0 0.00376073)
(0 0 0.00359325)
(0 0 0.0034258)
(0 0 0.00325839)
(0 0 0.00309102)
(0 0 0.00292369)
(0 0 0.00275639)
(0 0 0.00258914)
(0 0 0.00242191)
(0 0 0.00225472)
(0 0 0.00208757)
(0 0 0.00192044)
(0 0 0.00175334)
(0 0 0.00158627)
(0 0 0.00141923)
(0 0 0.00125221)
(0 0 0.0010852)
(0 0 0.000918219)
(0 0 0.000751249)
(0 0 0.000584292)
(0 0 0.000417344)
(0 0 0.000250404)
(0 0 8.34675e-05)
(0 0 0.000120026)
(0 0 0.00036008)
(0 0 0.000600138)
(0 0 0.000840204)
(0 0 0.00108028)
(0 0 0.00132037)
(0 0 0.00156048)
(0 0 0.0018006)
(0 0 0.00204074)
(0 0 0.00228091)
(0 0 0.0025211)
(0 0 0.00276131)
(0 0 0.00300154)
(0 0 0.0032418)
(0 0 0.00348208)
(0 0 0.00372237)
(0 0 0.00396269)
(0 0 0.00420301)
(0 0 0.00444335)
(0 0 0.00468369)
(0 0 0.00492403)
(0 0 0.00516436)
(0 0 0.00540467)
(0 0 0.00564496)
(0 0 0.00588521)
(0 0 0.00612541)
(0 0 0.00636555)
(0 0 0.00660562)
(0 0 0.00684559)
(0 0 0.00708546)
(0 0 0.0073252)
(0 0 0.0075648)
(0 0 0.00780423)
(0 0 0.00804347)
(0 0 0.0082825)
(0 0 0.00852129)
(0 0 0.00875982)
(0 0 0.00899804)
(0 0 0.00923594)
(0 0 0.00947348)
(0 0 0.00971062)
(0 0 0.00994733)
(0 0 0.0101836)
(0 0 0.0104193)
(0 0 0.0106545)
(0 0 0.0108891)
(0 0 0.011123)
(0 0 0.0113563)
(0 0 0.0115888)
(0 0 0.0118205)
(0 0 0.0120514)
(0 0 0.0122813)
(0 0 0.0125103)
(0 0 0.0127383)
(0 0 0.0129652)
(0 0 0.013191)
(0 0 0.0134156)
(0 0 0.0136388)
(0 0 0.0138608)
(0 0 0.0140813)
(0 0 0.0143003)
(0 0 0.0145178)
(0 0 0.0147336)
(0 0 0.0149477)
(0 0 0.0151601)
(0 0 0.0153705)
(0 0 0.015579)
(0 0 0.0157855)
(0 0 0.0159898)
(0 0 0.0161919)
(0 0 0.0163918)
(0 0 0.0165893)
(0 0 0.0167843)
(0 0 0.0169767)
(0 0 0.0171665)
(0 0 0.0173537)
(0 0 0.0175379)
(0 0 0.0177193)
(0 0 0.0178977)
(0 0 0.018073)
(0 0 0.0182452)
(0 0 0.0184141)
(0 0 0.0185797)
(0 0 0.0187418)
(0 0 0.0189005)
(0 0 0.0190555)
(0 0 0.0192069)
(0 0 0.0193546)
(0 0 0.0194984)
(0 0 0.0196383)
(0 0 0.0197742)
(0 0 0.019906)
(0 0 0.0200338)
(0 0 0.0201573)
(0 0 0.0202766)
(0 0 0.0203916)
(0 0 0.0205021)
(0 0 0.0206083)
(0 0 0.0207099)
(0 0 0.020807)
(0 0 0.0208995)
(0 0 0.0209873)
(0 0 0.0210705)
(0 0 0.0211489)
(0 0 0.0212226)
(0 0 0.0212915)
(0 0 0.0213556)
(0 0 0.0214148)
(0 0 0.0214692)
(0 0 0.0215187)
(0 0 0.0215632)
(0 0 0.0216029)
(0 0 0.0216377)
(0 0 0.0216676)
(0 0 0.0216925)
(0 0 0.0217126)
(0 0 0.0217277)
(0 0 0.021738)
(0 0 0.0217434)
(0 0 0.0217439)
(0 0 0.0217397)
(0 0 0.0217306)
(0 0 0.0217168)
(0 0 0.0216982)
(0 0 0.0216749)
(0 0 0.021647)
(0 0 0.0216145)
(0 0 0.0215773)
(0 0 0.0215357)
(0 0 0.0214896)
(0 0 0.021439)
(0 0 0.0213841)
(0 0 0.0213249)
(0 0 0.0212614)
(0 0 0.0211938)
(0 0 0.021122)
(0 0 0.0210462)
(0 0 0.0209663)
(0 0 0.0208826)
(0 0 0.0207949)
(0 0 0.0207035)
(0 0 0.0206084)
(0 0 0.0205097)
(0 0 0.0204074)
(0 0 0.0203016)
(0 0 0.0201923)
(0 0 0.0200798)
(0 0 0.0199639)
(0 0 0.0198449)
(0 0 0.0197228)
(0 0 0.0195976)
(0 0 0.0194695)
(0 0 0.0193385)
(0 0 0.0192047)
(0 0 0.0190681)
(0 0 0.0189289)
(0 0 0.0187872)
(0 0 0.0186429)
(0 0 0.0184962)
(0 0 0.0183472)
(0 0 0.0181958)
(0 0 0.0180423)
(0 0 0.0178866)
(0 0 0.0177288)
(0 0 0.0175691)
(0 0 0.0174074)
(0 0 0.0172438)
(0 0 0.0170785)
(0 0 0.0169114)
(0 0 0.0167426)
(0 0 0.0165723)
(0 0 0.0164004)
(0 0 0.016227)
(0 0 0.0160522)
(0 0 0.015876)
(0 0 0.0156985)
(0 0 0.0155198)
(0 0 0.0153398)
(0 0 0.0151587)
(0 0 0.0149765)
(0 0 0.0147932)
(0 0 0.014609)
(0 0 0.0144238)
(0 0 0.0142377)
(0 0 0.0140507)
(0 0 0.0138629)
(0 0 0.0136743)
(0 0 0.013485)
(0 0 0.013295)
(0 0 0.0131043)
(0 0 0.012913)
(0 0 0.0127211)
(0 0 0.0125287)
(0 0 0.0123357)
(0 0 0.0121423)
(0 0 0.0119484)
(0 0 0.0117541)
(0 0 0.0115594)
(0 0 0.0113643)
(0 0 0.0111688)
(0 0 0.0109731)
(0 0 0.010777)
(0 0 0.0105807)
(0 0 0.0103841)
(0 0 0.0101873)