/*--------------------------------*- C++ -*----------------------------------*\
| =========                 |                                                 |
| \\      /  F ield         | OpenFOAM: The Open Source CFD Toolbox           |
|  \\    /   O peration     | Version:  v2012                                 |
|   \\  /    A nd           | Website:  www.openfoam.com                      |
|    \\/     M anipulation  |                                                 |
\*---------------------------------------------------------------------------*/
FoamFile
{
    version     2.0;
    format      ascii;
    class       volVectorField;
    location    "12.2";
    object      Psi;
}
// * * * * * * * * * * * * * * * * * * * * * * * * * * * * * * * * * * * * * //

dimensions      [0 2 -1 0 0 0 0];


internalField   nonuniform List<vector> 
65536
(
(0 0 8.93065e-06)
(0 0 2.67924e-05)
(0 0 4.46554e-05)
(0 0 6.25204e-05)
(0 0 8.03883e-05)
(0 0 9.82597e-05)
(0 0 0.000116136)
(0 0 0.000134017)
(0 0 0.000151904)
(0 0 0.000169797)
(0 0 0.000187698)
(0 0 0.000205607)
(0 0 0.000223524)
(0 0 0.000241451)
(0 0 0.000259387)
(0 0 0.000277333)
(0 0 0.00029529)
(0 0 0.000313258)
(0 0 0.000331237)
(0 0 0.000349228)
(0 0 0.00036723)
(0 0 0.000385245)
(0 0 0.000403271)
(0 0 0.000421309)
(0 0 0.00043936)
(0 0 0.000457421)
(0 0 0.000475494)
(0 0 0.000493579)
(0 0 0.000511674)
(0 0 0.000529778)
(0 0 0.000547893)
(0 0 0.000566016)
(0 0 0.000584146)
(0 0 0.000602284)
(0 0 0.000620427)
(0 0 0.000638574)
(0 0 0.000656725)
(0 0 0.000674877)
(0 0 0.000693029)
(0 0 0.000711179)
(0 0 0.000729326)
(0 0 0.000747467)
(0 0 0.0007656)
(0 0 0.000783722)
(0 0 0.000801832)
(0 0 0.000819927)
(0 0 0.000838003)
(0 0 0.000856058)
(0 0 0.000874088)
(0 0 0.000892091)
(0 0 0.000910063)
(0 0 0.000928)
(0 0 0.000945898)
(0 0 0.000963753)
(0 0 0.000981562)
(0 0 0.000999319)
(0 0 0.00101702)
(0 0 0.00103466)
(0 0 0.00105224)
(0 0 0.00106974)
(0 0 0.00108717)
(0 0 0.00110452)
(0 0 0.00112178)
(0 0 0.00113895)
(0 0 0.00115602)
(0 0 0.00117299)
(0 0 0.00118984)
(0 0 0.00120658)
(0 0 0.0012232)
(0 0 0.00123968)
(0 0 0.00125603)
(0 0 0.00127223)
(0 0 0.00128828)
(0 0 0.00130418)
(0 0 0.0013199)
(0 0 0.00133546)
(0 0 0.00135083)
(0 0 0.00136602)
(0 0 0.00138101)
(0 0 0.00139579)
(0 0 0.00141037)
(0 0 0.00142472)
(0 0 0.00143885)
(0 0 0.00145274)
(0 0 0.00146639)
(0 0 0.00147979)
(0 0 0.00149293)
(0 0 0.00150581)
(0 0 0.00151841)
(0 0 0.00153073)
(0 0 0.00154276)
(0 0 0.00155449)
(0 0 0.00156592)
(0 0 0.00157704)
(0 0 0.00158784)
(0 0 0.00159832)
(0 0 0.00160846)
(0 0 0.00161827)
(0 0 0.00162773)
(0 0 0.00163684)
(0 0 0.0016456)
(0 0 0.00165399)
(0 0 0.00166201)
(0 0 0.00166966)
(0 0 0.00167694)
(0 0 0.00168383)
(0 0 0.00169033)
(0 0 0.00169645)
(0 0 0.00170216)
(0 0 0.00170748)
(0 0 0.0017124)
(0 0 0.00171692)
(0 0 0.00172103)
(0 0 0.00172473)
(0 0 0.00172802)
(0 0 0.0017309)
(0 0 0.00173337)
(0 0 0.00173542)
(0 0 0.00173707)
(0 0 0.00173829)
(0 0 0.00173911)
(0 0 0.00173951)
(0 0 0.0017395)
(0 0 0.00173909)
(0 0 0.00173826)
(0 0 0.00173703)
(0 0 0.0017354)
(0 0 0.00173336)
(0 0 0.00173093)
(0 0 0.0017281)
(0 0 0.00172488)
(0 0 0.00172128)
(0 0 0.00171729)
(0 0 0.00171293)
(0 0 0.00170819)
(0 0 0.00170308)
(0 0 0.00169761)
(0 0 0.00169178)
(0 0 0.0016856)
(0 0 0.00167907)
(0 0 0.0016722)
(0 0 0.00166499)
(0 0 0.00165746)
(0 0 0.0016496)
(0 0 0.00164143)
(0 0 0.00163295)
(0 0 0.00162416)
(0 0 0.00161508)
(0 0 0.00160572)
(0 0 0.00159606)
(0 0 0.00158614)
(0 0 0.00157594)
(0 0 0.00156549)
(0 0 0.00155478)
(0 0 0.00154382)
(0 0 0.00153263)
(0 0 0.0015212)
(0 0 0.00150954)
(0 0 0.00149767)
(0 0 0.00148559)
(0 0 0.0014733)
(0 0 0.00146081)
(0 0 0.00144813)
(0 0 0.00143526)
(0 0 0.00142222)
(0 0 0.00140901)
(0 0 0.00139563)
(0 0 0.00138209)
(0 0 0.00136841)
(0 0 0.00135457)
(0 0 0.0013406)
(0 0 0.00132649)
(0 0 0.00131225)
(0 0 0.00129789)
(0 0 0.00128342)
(0 0 0.00126883)
(0 0 0.00125414)
(0 0 0.00123934)
(0 0 0.00122445)
(0 0 0.00120947)
(0 0 0.0011944)
(0 0 0.00117926)
(0 0 0.00116403)
(0 0 0.00114874)
(0 0 0.00113337)
(0 0 0.00111794)
(0 0 0.00110245)
(0 0 0.00108691)
(0 0 0.00107131)
(0 0 0.00105567)
(0 0 0.00103998)
(0 0 0.00102425)
(0 0 0.00100848)
(0 0 0.000992676)
(0 0 0.000976839)
(0 0 0.000960973)
(0 0 0.00094508)
(0 0 0.000929164)
(0 0 0.000913226)
(0 0 0.000897269)
(0 0 0.000881296)
(0 0 0.000865308)
(0 0 0.000849307)
(0 0 0.000833296)
(0 0 0.000817277)
(0 0 0.000801251)
(0 0 0.000785219)
(0 0 0.000769185)
(0 0 0.000753148)
(0 0 0.00073711)
(0 0 0.000721073)
(0 0 0.000705038)
(0 0 0.000689005)
(0 0 0.000672977)
(0 0 0.000656954)
(0 0 0.000640936)
(0 0 0.000624925)
(0 0 0.000608922)
(0 0 0.000592926)
(0 0 0.000576939)
(0 0 0.000560962)
(0 0 0.000544993)
(0 0 0.000529035)
(0 0 0.000513088)
(0 0 0.00049715)
(0 0 0.000481224)
(0 0 0.000465309)
(0 0 0.000449405)
(0 0 0.000433512)
(0 0 0.00041763)
(0 0 0.00040176)
(0 0 0.000385901)
(0 0 0.000370052)
(0 0 0.000354215)
(0 0 0.000338388)
(0 0 0.000322572)
(0 0 0.000306766)
(0 0 0.00029097)
(0 0 0.000275183)
(0 0 0.000259406)
(0 0 0.000243638)
(0 0 0.000227878)
(0 0 0.000212126)
(0 0 0.000196381)
(0 0 0.000180644)
(0 0 0.000164913)
(0 0 0.000149188)
(0 0 0.000133469)
(0 0 0.000117755)
(0 0 0.000102045)
(0 0 8.63393e-05)
(0 0 7.06368e-05)
(0 0 5.49369e-05)
(0 0 3.92391e-05)
(0 0 2.35429e-05)
(0 0 7.84753e-06)
(0 0 2.67916e-05)
(0 0 8.03761e-05)
(0 0 0.000133964)
(0 0 0.000187559)
(0 0 0.000241161)
(0 0 0.000294775)
(0 0 0.000348402)
(0 0 0.000402045)
(0 0 0.000455705)
(0 0 0.000509385)
(0 0 0.000563087)
(0 0 0.000616813)
(0 0 0.000670564)
(0 0 0.000724343)
(0 0 0.000778151)
(0 0 0.00083199)
(0 0 0.00088586)
(0 0 0.000939764)
(0 0 0.000993701)
(0 0 0.00104767)
(0 0 0.00110168)
(0 0 0.00115572)
(0 0 0.0012098)
(0 0 0.00126392)
(0 0 0.00131807)
(0 0 0.00137225)
(0 0 0.00142647)
(0 0 0.00148073)
(0 0 0.00153501)
(0 0 0.00158933)
(0 0 0.00164367)
(0 0 0.00169804)
(0 0 0.00175243)
(0 0 0.00180685)
(0 0 0.00186128)
(0 0 0.00191572)
(0 0 0.00197017)
(0 0 0.00202463)
(0 0 0.00207909)
(0 0 0.00213354)
(0 0 0.00218798)
(0 0 0.00224241)
(0 0 0.00229681)
(0 0 0.00235118)
(0 0 0.00240551)
(0 0 0.0024598)
(0 0 0.00251403)
(0 0 0.0025682)
(0 0 0.00262229)
(0 0 0.00267631)
(0 0 0.00273023)
(0 0 0.00278404)
(0 0 0.00283774)
(0 0 0.00289131)
(0 0 0.00294474)
(0 0 0.00299802)
(0 0 0.00305113)
(0 0 0.00310405)
(0 0 0.00315679)
(0 0 0.00320931)
(0 0 0.0032616)
(0 0 0.00331365)
(0 0 0.00336544)
(0 0 0.00341696)
(0 0 0.00346817)
(0 0 0.00351908)
(0 0 0.00356965)
(0 0 0.00361987)
(0 0 0.00366973)
(0 0 0.00371919)
(0 0 0.00376823)
(0 0 0.00381685)
(0 0 0.00386501)
(0 0 0.0039127)
(0 0 0.00395989)
(0 0 0.00400656)
(0 0 0.00405269)
(0 0 0.00409825)
(0 0 0.00414322)
(0 0 0.00418759)
(0 0 0.00423132)
(0 0 0.00427439)
(0 0 0.00431678)
(0 0 0.00435847)
(0 0 0.00439942)
(0 0 0.00443963)
(0 0 0.00447906)
(0 0 0.00451769)
(0 0 0.0045555)
(0 0 0.00459247)
(0 0 0.00462857)
(0 0 0.00466378)
(0 0 0.00469808)
(0 0 0.00473144)
(0 0 0.00476385)
(0 0 0.00479529)
(0 0 0.00482573)
(0 0 0.00485516)
(0 0 0.00488355)
(0 0 0.00491089)
(0 0 0.00493715)
(0 0 0.00496234)
(0 0 0.00498641)
(0 0 0.00500937)
(0 0 0.00503119)
(0 0 0.00505187)
(0 0 0.00507139)
(0 0 0.00508973)
(0 0 0.00510689)
(0 0 0.00512285)
(0 0 0.00513761)
(0 0 0.00515116)
(0 0 0.00516349)
(0 0 0.0051746)
(0 0 0.00518447)
(0 0 0.00519311)
(0 0 0.00520052)
(0 0 0.00520668)
(0 0 0.00521161)
(0 0 0.00521529)
(0 0 0.00521774)
(0 0 0.00521895)
(0 0 0.00521892)
(0 0 0.00521767)
(0 0 0.00521519)
(0 0 0.00521149)
(0 0 0.00520659)
(0 0 0.00520048)
(0 0 0.00519318)
(0 0 0.00518469)
(0 0 0.00517504)
(0 0 0.00516422)
(0 0 0.00515225)
(0 0 0.00513915)
(0 0 0.00512493)
(0 0 0.0051096)
(0 0 0.00509318)
(0 0 0.00507569)
(0 0 0.00505713)
(0 0 0.00503754)
(0 0 0.00501692)
(0 0 0.0049953)
(0 0 0.00497269)
(0 0 0.00494912)
(0 0 0.0049246)
(0 0 0.00489915)
(0 0 0.00487279)
(0 0 0.00484554)
(0 0 0.00481743)
(0 0 0.00478847)
(0 0 0.00475868)
(0 0 0.00472809)
(0 0 0.00469672)
(0 0 0.00466458)
(0 0 0.00463171)
(0 0 0.00459811)
(0 0 0.00456382)
(0 0 0.00452885)
(0 0 0.00449322)
(0 0 0.00445696)
(0 0 0.00442008)
(0 0 0.00438261)
(0 0 0.00434457)
(0 0 0.00430597)
(0 0 0.00426683)
(0 0 0.00422719)
(0 0 0.00418705)
(0 0 0.00414643)
(0 0 0.00410536)
(0 0 0.00406385)
(0 0 0.00402192)
(0 0 0.00397959)
(0 0 0.00393687)
(0 0 0.00389379)
(0 0 0.00385036)
(0 0 0.00380659)
(0 0 0.0037625)
(0 0 0.00371812)
(0 0 0.00367344)
(0 0 0.00362849)
(0 0 0.00358329)
(0 0 0.00353784)
(0 0 0.00349216)
(0 0 0.00344627)
(0 0 0.00340017)
(0 0 0.00335388)
(0 0 0.00330742)
(0 0 0.00326078)
(0 0 0.00321399)
(0 0 0.00316705)
(0 0 0.00311998)
(0 0 0.00307278)
(0 0 0.00302547)
(0 0 0.00297806)
(0 0 0.00293054)
(0 0 0.00288294)
(0 0 0.00283526)
(0 0 0.00278751)
(0 0 0.00273969)
(0 0 0.00269182)
(0 0 0.0026439)
(0 0 0.00259593)
(0 0 0.00254793)
(0 0 0.0024999)
(0 0 0.00245184)
(0 0 0.00240375)
(0 0 0.00235566)
(0 0 0.00230755)
(0 0 0.00225944)
(0 0 0.00221133)
(0 0 0.00216321)
(0 0 0.00211511)
(0 0 0.00206701)
(0 0 0.00201892)
(0 0 0.00197085)
(0 0 0.0019228)
(0 0 0.00187477)
(0 0 0.00182676)
(0 0 0.00177877)
(0 0 0.00173081)
(0 0 0.00168287)
(0 0 0.00163497)
(0 0 0.00158709)
(0 0 0.00153925)
(0 0 0.00149144)
(0 0 0.00144366)
(0 0 0.00139591)
(0 0 0.0013482)
(0 0 0.00130052)
(0 0 0.00125288)
(0 0 0.00120527)
(0 0 0.00115769)
(0 0 0.00111014)
(0 0 0.00106263)
(0 0 0.00101515)
(0 0 0.000967704)
(0 0 0.000920287)
(0 0 0.000872899)
(0 0 0.00082554)
(0 0 0.000778208)
(0 0 0.000730903)
(0 0 0.000683624)
(0 0 0.000636368)
(0 0 0.000589136)
(0 0 0.000541924)
(0 0 0.000494732)
(0 0 0.000447559)
(0 0 0.000400402)
(0 0 0.00035326)
(0 0 0.000306131)
(0 0 0.000259014)
(0 0 0.000211907)
(0 0 0.000164808)
(0 0 0.000117716)
(0 0 7.06277e-05)
(0 0 2.35423e-05)
(0 0 4.46514e-05)
(0 0 0.000133956)
(0 0 0.000223267)
(0 0 0.000312588)
(0 0 0.000401924)
(0 0 0.000491277)
(0 0 0.000580653)
(0 0 0.000670055)
(0 0 0.000759486)
(0 0 0.000848951)
(0 0 0.000938452)
(0 0 0.00102799)
(0 0 0.00111758)
(0 0 0.00120721)
(0 0 0.00129689)
(0 0 0.00138661)
(0 0 0.0014764)
(0 0 0.00156624)
(0 0 0.00165613)
(0 0 0.00174608)
(0 0 0.00183609)
(0 0 0.00192617)
(0 0 0.0020163)
(0 0 0.00210649)
(0 0 0.00219674)
(0 0 0.00228705)
(0 0 0.00237742)
(0 0 0.00246784)
(0 0 0.00255832)
(0 0 0.00264885)
(0 0 0.00273942)
(0 0 0.00283004)
(0 0 0.0029207)
(0 0 0.00301139)
(0 0 0.00310211)
(0 0 0.00319286)
(0 0 0.00328362)
(0 0 0.00337439)
(0 0 0.00346516)
(0 0 0.00355592)
(0 0 0.00364666)
(0 0 0.00373738)
(0 0 0.00382805)
(0 0 0.00391868)
(0 0 0.00400924)
(0 0 0.00409973)
(0 0 0.00419012)
(0 0 0.00428041)
(0 0 0.00437058)
(0 0 0.00446061)
(0 0 0.00455049)
(0 0 0.00464019)
(0 0 0.00472971)
(0 0 0.004819)
(0 0 0.00490807)
(0 0 0.00499688)
(0 0 0.00508541)
(0 0 0.00517364)
(0 0 0.00526154)
(0 0 0.0053491)
(0 0 0.00543627)
(0 0 0.00552304)
(0 0 0.00560938)
(0 0 0.00569525)
(0 0 0.00578064)
(0 0 0.0058655)
(0 0 0.00594981)
(0 0 0.00603354)
(0 0 0.00611664)
(0 0 0.0061991)
(0 0 0.00628087)
(0 0 0.00636192)
(0 0 0.00644221)
(0 0 0.00652172)
(0 0 0.00660039)
(0 0 0.0066782)
(0 0 0.0067551)
(0 0 0.00683107)
(0 0 0.00690605)
(0 0 0.00698002)
(0 0 0.00705293)
(0 0 0.00712474)
(0 0 0.00719542)
(0 0 0.00726492)
(0 0 0.00733321)
(0 0 0.00740024)
(0 0 0.00746599)
(0 0 0.0075304)
(0 0 0.00759345)
(0 0 0.00765508)
(0 0 0.00771527)
(0 0 0.00777398)
(0 0 0.00783117)
(0 0 0.0078868)
(0 0 0.00794084)
(0 0 0.00799326)
(0 0 0.00804401)
(0 0 0.00809308)
(0 0 0.00814041)
(0 0 0.008186)
(0 0 0.0082298)
(0 0 0.00827178)
(0 0 0.00831193)
(0 0 0.00835021)
(0 0 0.0083866)
(0 0 0.00842107)
(0 0 0.00845361)
(0 0 0.0084842)
(0 0 0.00851281)
(0 0 0.00853942)
(0 0 0.00856403)
(0 0 0.00858662)
(0 0 0.00860718)
(0 0 0.0086257)
(0 0 0.00864216)
(0 0 0.00865656)
(0 0 0.00866891)
(0 0 0.00867918)
(0 0 0.00868739)
(0 0 0.00869353)
(0 0 0.0086976)
(0 0 0.00869961)
(0 0 0.00869957)
(0 0 0.00869747)
(0 0 0.00869333)
(0 0 0.00868717)
(0 0 0.00867898)
(0 0 0.00866879)
(0 0 0.00865661)
(0 0 0.00864246)
(0 0 0.00862635)
(0 0 0.0086083)
(0 0 0.00858835)
(0 0 0.0085665)
(0 0 0.00854278)
(0 0 0.00851721)
(0 0 0.00848983)
(0 0 0.00846065)
(0 0 0.00842971)
(0 0 0.00839704)
(0 0 0.00836266)
(0 0 0.0083266)
(0 0 0.0082889)
(0 0 0.00824959)
(0 0 0.00820869)
(0 0 0.00816625)
(0 0 0.0081223)
(0 0 0.00807686)
(0 0 0.00802998)
(0 0 0.00798169)
(0 0 0.00793203)
(0 0 0.00788102)
(0 0 0.00782871)
(0 0 0.00777513)
(0 0 0.00772031)
(0 0 0.0076643)
(0 0 0.00760712)
(0 0 0.00754881)
(0 0 0.00748941)
(0 0 0.00742895)
(0 0 0.00736746)
(0 0 0.00730499)
(0 0 0.00724156)
(0 0 0.0071772)
(0 0 0.00711196)
(0 0 0.00704586)
(0 0 0.00697894)
(0 0 0.00691123)
(0 0 0.00684275)
(0 0 0.00677355)
(0 0 0.00670365)
(0 0 0.00663308)
(0 0 0.00656186)
(0 0 0.00649004)
(0 0 0.00641763)
(0 0 0.00634467)
(0 0 0.00627117)
(0 0 0.00619718)
(0 0 0.0061227)
(0 0 0.00604778)
(0 0 0.00597242)
(0 0 0.00589666)
(0 0 0.00582051)
(0 0 0.00574401)
(0 0 0.00566717)
(0 0 0.00559)
(0 0 0.00551254)
(0 0 0.00543481)
(0 0 0.00535681)
(0 0 0.00527857)
(0 0 0.0052001)
(0 0 0.00512143)
(0 0 0.00504257)
(0 0 0.00496353)
(0 0 0.00488433)
(0 0 0.00480499)
(0 0 0.00472552)
(0 0 0.00464592)
(0 0 0.00456622)
(0 0 0.00448642)
(0 0 0.00440655)
(0 0 0.00432659)
(0 0 0.00424658)
(0 0 0.00416652)
(0 0 0.00408641)
(0 0 0.00400627)
(0 0 0.00392611)
(0 0 0.00384593)
(0 0 0.00376574)
(0 0 0.00368554)
(0 0 0.00360535)
(0 0 0.00352517)
(0 0 0.003445)
(0 0 0.00336486)
(0 0 0.00328474)
(0 0 0.00320464)
(0 0 0.00312459)
(0 0 0.00304456)
(0 0 0.00296458)
(0 0 0.00288465)
(0 0 0.00280476)
(0 0 0.00272491)
(0 0 0.00264512)
(0 0 0.00256538)
(0 0 0.00248569)
(0 0 0.00240606)
(0 0 0.00232649)
(0 0 0.00224696)
(0 0 0.0021675)
(0 0 0.00208809)
(0 0 0.00200874)
(0 0 0.00192944)
(0 0 0.0018502)
(0 0 0.00177102)
(0 0 0.00169189)
(0 0 0.00161281)
(0 0 0.00153378)
(0 0 0.0014548)
(0 0 0.00137587)
(0 0 0.00129698)
(0 0 0.00121814)
(0 0 0.00113935)
(0 0 0.00106059)
(0 0 0.000981869)
(0 0 0.000903185)
(0 0 0.000824534)
(0 0 0.000745913)
(0 0 0.00066732)
(0 0 0.000588752)
(0 0 0.000510206)
(0 0 0.00043168)
(0 0 0.00035317)
(0 0 0.000274674)
(0 0 0.000196188)
(0 0 0.00011771)
(0 0 3.92361e-05)
(0 0 6.2509e-05)
(0 0 0.00018753)
(0 0 0.00031256)
(0 0 0.000437604)
(0 0 0.000562668)
(0 0 0.000687757)
(0 0 0.000812878)
(0 0 0.000938035)
(0 0 0.00106323)
(0 0 0.00118848)
(0 0 0.00131378)
(0 0 0.00143913)
(0 0 0.00156454)
(0 0 0.00169002)
(0 0 0.00181557)
(0 0 0.00194119)
(0 0 0.00206688)
(0 0 0.00219265)
(0 0 0.0023185)
(0 0 0.00244443)
(0 0 0.00257045)
(0 0 0.00269655)
(0 0 0.00282273)
(0 0 0.002949)
(0 0 0.00307536)
(0 0 0.00320179)
(0 0 0.00332831)
(0 0 0.00345491)
(0 0 0.00358158)
(0 0 0.00370832)
(0 0 0.00383513)
(0 0 0.003962)
(0 0 0.00408893)
(0 0 0.00421591)
(0 0 0.00434293)
(0 0 0.00446998)
(0 0 0.00459705)
(0 0 0.00472414)
(0 0 0.00485123)
(0 0 0.00497831)
(0 0 0.00510536)
(0 0 0.00523238)
(0 0 0.00535934)
(0 0 0.00548624)
(0 0 0.00561304)
(0 0 0.00573974)
(0 0 0.00586632)
(0 0 0.00599275)
(0 0 0.00611901)
(0 0 0.00624508)
(0 0 0.00637093)
(0 0 0.00649654)
(0 0 0.00662189)
(0 0 0.00674693)
(0 0 0.00687165)
(0 0 0.00699602)
(0 0 0.00712)
(0 0 0.00724355)
(0 0 0.00736665)
(0 0 0.00748926)
(0 0 0.00761135)
(0 0 0.00773286)
(0 0 0.00785378)
(0 0 0.00797404)
(0 0 0.00809363)
(0 0 0.00821248)
(0 0 0.00833056)
(0 0 0.00844782)
(0 0 0.00856421)
(0 0 0.0086797)
(0 0 0.00879423)
(0 0 0.00890775)
(0 0 0.00902021)
(0 0 0.00913156)
(0 0 0.00924176)
(0 0 0.00935074)
(0 0 0.00945846)
(0 0 0.00956487)
(0 0 0.0096699)
(0 0 0.0097735)
(0 0 0.00987563)
(0 0 0.00997622)
(0 0 0.0100752)
(0 0 0.0101726)
(0 0 0.0102682)
(0 0 0.0103622)
(0 0 0.0104542)
(0 0 0.0105445)
(0 0 0.0106328)
(0 0 0.0107191)
(0 0 0.0108035)
(0 0 0.0108857)
(0 0 0.0109658)
(0 0 0.0110437)
(0 0 0.0111195)
(0 0 0.0111929)
(0 0 0.011264)
(0 0 0.0113327)
(0 0 0.011399)
(0 0 0.0114629)
(0 0 0.0115243)
(0 0 0.0115831)
(0 0 0.0116393)
(0 0 0.0116929)
(0 0 0.0117439)
(0 0 0.0117922)
(0 0 0.0118378)
(0 0 0.0118806)
(0 0 0.0119207)
(0 0 0.011958)
(0 0 0.0119925)
(0 0 0.0120241)
(0 0 0.0120529)
(0 0 0.0120788)
(0 0 0.0121019)
(0 0 0.0121221)
(0 0 0.0121394)
(0 0 0.0121537)
(0 0 0.0121652)
(0 0 0.0121738)
(0 0 0.0121795)
(0 0 0.0121823)
(0 0 0.0121823)
(0 0 0.0121793)
(0 0 0.0121735)
(0 0 0.0121649)
(0 0 0.0121534)
(0 0 0.0121391)
(0 0 0.012122)
(0 0 0.0121022)
(0 0 0.0120796)
(0 0 0.0120543)
(0 0 0.0120263)
(0 0 0.0119957)
(0 0 0.0119625)
(0 0 0.0119266)
(0 0 0.0118883)
(0 0 0.0118474)
(0 0 0.011804)
(0 0 0.0117582)
(0 0 0.0117101)
(0 0 0.0116595)
(0 0 0.0116067)
(0 0 0.0115516)
(0 0 0.0114943)
(0 0 0.0114349)
(0 0 0.0113733)
(0 0 0.0113096)
(0 0 0.011244)
(0 0 0.0111763)
(0 0 0.0111067)
(0 0 0.0110353)
(0 0 0.010962)
(0 0 0.0108869)
(0 0 0.0108101)
(0 0 0.0107316)
(0 0 0.0106515)
(0 0 0.0105699)
(0 0 0.0104867)
(0 0 0.010402)
(0 0 0.0103158)
(0 0 0.0102283)
(0 0 0.0101395)
(0 0 0.0100493)
(0 0 0.00995795)
(0 0 0.00986536)
(0 0 0.00977163)
(0 0 0.00967678)
(0 0 0.00958088)
(0 0 0.00948395)
(0 0 0.00938604)
(0 0 0.0092872)
(0 0 0.00918747)
(0 0 0.00908687)
(0 0 0.00898546)
(0 0 0.00888328)
(0 0 0.00878035)
(0 0 0.00867672)
(0 0 0.00857242)
(0 0 0.00846749)
(0 0 0.00836196)
(0 0 0.00825586)
(0 0 0.00814923)
(0 0 0.00804209)
(0 0 0.00793448)
(0 0 0.00782642)
(0 0 0.00771795)
(0 0 0.00760909)
(0 0 0.00749987)
(0 0 0.00739031)
(0 0 0.00728044)
(0 0 0.00717027)
(0 0 0.00705984)
(0 0 0.00694917)
(0 0 0.00683827)
(0 0 0.00672717)
(0 0 0.00661589)
(0 0 0.00650444)
(0 0 0.00639284)
(0 0 0.00628111)
(0 0 0.00616926)
(0 0 0.00605732)
(0 0 0.00594529)
(0 0 0.00583319)
(0 0 0.00572103)
(0 0 0.00560882)
(0 0 0.00549658)
(0 0 0.00538431)
(0 0 0.00527204)
(0 0 0.00515975)
(0 0 0.00504748)
(0 0 0.00493522)
(0 0 0.00482298)
(0 0 0.00471076)
(0 0 0.00459859)
(0 0 0.00448645)
(0 0 0.00437437)
(0 0 0.00426233)
(0 0 0.00415036)
(0 0 0.00403844)
(0 0 0.00392659)
(0 0 0.00381481)
(0 0 0.0037031)
(0 0 0.00359146)
(0 0 0.0034799)
(0 0 0.00336841)
(0 0 0.003257)
(0 0 0.00314567)
(0 0 0.00303442)
(0 0 0.00292325)
(0 0 0.00281216)
(0 0 0.00270115)
(0 0 0.00259021)
(0 0 0.00247935)
(0 0 0.00236857)
(0 0 0.00225786)
(0 0 0.00214722)
(0 0 0.00203665)
(0 0 0.00192615)
(0 0 0.00181572)
(0 0 0.00170534)
(0 0 0.00159503)
(0 0 0.00148477)
(0 0 0.00137457)
(0 0 0.00126441)
(0 0 0.0011543)
(0 0 0.00104424)
(0 0 0.000934213)
(0 0 0.000824221)
(0 0 0.000714261)
(0 0 0.000604329)
(0 0 0.000494419)
(0 0 0.000384528)
(0 0 0.000274653)
(0 0 0.000164787)
(0 0 5.49284e-05)
(0 0 8.03638e-05)
(0 0 0.000241095)
(0 0 0.000401838)
(0 0 0.000562599)
(0 0 0.000723386)
(0 0 0.000884206)
(0 0 0.00104507)
(0 0 0.00120597)
(0 0 0.00136694)
(0 0 0.00152796)
(0 0 0.00168905)
(0 0 0.00185021)
(0 0 0.00201145)
(0 0 0.00217277)
(0 0 0.00233418)
(0 0 0.00249568)
(0 0 0.00265728)
(0 0 0.00281898)
(0 0 0.00298079)
(0 0 0.0031427)
(0 0 0.00330472)
(0 0 0.00346685)
(0 0 0.00362908)
(0 0 0.00379143)
(0 0 0.00395389)
(0 0 0.00411645)
(0 0 0.00427912)
(0 0 0.00444189)
(0 0 0.00460476)
(0 0 0.00476773)
(0 0 0.00493078)
(0 0 0.00509391)
(0 0 0.00525711)
(0 0 0.00542038)
(0 0 0.00558371)
(0 0 0.00574708)
(0 0 0.00591047)
(0 0 0.00607389)
(0 0 0.00623731)
(0 0 0.00640072)
(0 0 0.0065641)
(0 0 0.00672744)
(0 0 0.0068907)
(0 0 0.00705388)
(0 0 0.00721695)
(0 0 0.00737989)
(0 0 0.00754266)
(0 0 0.00770525)
(0 0 0.00786763)
(0 0 0.00802976)
(0 0 0.00819161)
(0 0 0.00835316)
(0 0 0.00851436)
(0 0 0.00867519)
(0 0 0.0088356)
(0 0 0.00899555)
(0 0 0.009155)
(0 0 0.00931392)
(0 0 0.00947225)
(0 0 0.00962996)
(0 0 0.00978699)
(0 0 0.00994329)
(0 0 0.0100988)
(0 0 0.0102535)
(0 0 0.0104073)
(0 0 0.0105602)
(0 0 0.0107121)
(0 0 0.010863)
(0 0 0.0110127)
(0 0 0.0111613)
(0 0 0.0113086)
(0 0 0.0114546)
(0 0 0.0115993)
(0 0 0.0117426)
(0 0 0.0118843)
(0 0 0.0120246)
(0 0 0.0121631)
(0 0 0.0123)
(0 0 0.0124352)
(0 0 0.0125685)
(0 0 0.0126999)
(0 0 0.0128293)
(0 0 0.0129567)
(0 0 0.013082)
(0 0 0.013205)
(0 0 0.0133259)
(0 0 0.0134444)
(0 0 0.0135605)
(0 0 0.0136741)
(0 0 0.0137852)
(0 0 0.0138937)
(0 0 0.0139995)
(0 0 0.0141026)
(0 0 0.0142029)
(0 0 0.0143003)
(0 0 0.0143948)
(0 0 0.0144863)
(0 0 0.0145748)
(0 0 0.0146601)
(0 0 0.0147423)
(0 0 0.0148213)
(0 0 0.0148969)
(0 0 0.0149693)
(0 0 0.0150383)
(0 0 0.0151039)
(0 0 0.0151661)
(0 0 0.0152247)
(0 0 0.0152799)
(0 0 0.0153314)
(0 0 0.0153794)
(0 0 0.0154238)
(0 0 0.0154645)
(0 0 0.0155015)
(0 0 0.0155349)
(0 0 0.0155645)
(0 0 0.0155905)
(0 0 0.0156127)
(0 0 0.0156312)
(0 0 0.015646)
(0 0 0.015657)
(0 0 0.0156643)
(0 0 0.0156679)
(0 0 0.0156678)
(0 0 0.015664)
(0 0 0.0156565)
(0 0 0.0156454)
(0 0 0.0156306)
(0 0 0.0156122)
(0 0 0.0155902)
(0 0 0.0155646)
(0 0 0.0155356)
(0 0 0.015503)
(0 0 0.015467)
(0 0 0.0154275)
(0 0 0.0153847)
(0 0 0.0153386)
(0 0 0.0152892)
(0 0 0.0152366)
(0 0 0.0151808)
(0 0 0.0151218)
(0 0 0.0150598)
(0 0 0.0149948)
(0 0 0.0149268)
(0 0 0.0148559)
(0 0 0.0147821)
(0 0 0.0147056)
(0 0 0.0146264)
(0 0 0.0145444)
(0 0 0.0144599)
(0 0 0.0143728)
(0 0 0.0142833)
(0 0 0.0141913)
(0 0 0.014097)
(0 0 0.0140004)
(0 0 0.0139016)
(0 0 0.0138006)
(0 0 0.0136976)
(0 0 0.0135925)
(0 0 0.0134854)
(0 0 0.0133764)
(0 0 0.0132656)
(0 0 0.013153)
(0 0 0.0130387)
(0 0 0.0129227)
(0 0 0.0128051)
(0 0 0.012686)
(0 0 0.0125654)
(0 0 0.0124434)
(0 0 0.01232)
(0 0 0.0121953)
(0 0 0.0120694)
(0 0 0.0119422)
(0 0 0.0118139)
(0 0 0.0116845)
(0 0 0.0115541)
(0 0 0.0114226)
(0 0 0.0112902)
(0 0 0.0111569)
(0 0 0.0110228)
(0 0 0.0108878)
(0 0 0.0107521)
(0 0 0.0106156)
(0 0 0.0104784)
(0 0 0.0103406)
(0 0 0.0102022)
(0 0 0.0100633)
(0 0 0.00992375)
(0 0 0.00978374)
(0 0 0.00964327)
(0 0 0.00950236)
(0 0 0.00936106)
(0 0 0.00921938)
(0 0 0.00907736)
(0 0 0.00893503)
(0 0 0.00879242)
(0 0 0.00864954)
(0 0 0.00850643)
(0 0 0.0083631)
(0 0 0.00821959)
(0 0 0.00807591)
(0 0 0.00793208)
(0 0 0.00778813)
(0 0 0.00764407)
(0 0 0.00749991)
(0 0 0.00735569)
(0 0 0.0072114)
(0 0 0.00706707)
(0 0 0.00692271)
(0 0 0.00677834)
(0 0 0.00663396)
(0 0 0.00648959)
(0 0 0.00634524)
(0 0 0.00620092)
(0 0 0.00605664)
(0 0 0.0059124)
(0 0 0.00576822)
(0 0 0.0056241)
(0 0 0.00548005)
(0 0 0.00533607)
(0 0 0.00519217)
(0 0 0.00504836)
(0 0 0.00490463)
(0 0 0.004761)
(0 0 0.00461746)
(0 0 0.00447402)
(0 0 0.00433068)
(0 0 0.00418744)
(0 0 0.0040443)
(0 0 0.00390126)
(0 0 0.00375833)
(0 0 0.0036155)
(0 0 0.00347277)
(0 0 0.00333014)
(0 0 0.00318761)
(0 0 0.00304518)
(0 0 0.00290284)
(0 0 0.00276059)
(0 0 0.00261844)
(0 0 0.00247637)
(0 0 0.00233439)
(0 0 0.00219248)
(0 0 0.00205065)
(0 0 0.0019089)
(0 0 0.00176722)
(0 0 0.00162559)
(0 0 0.00148403)
(0 0 0.00134253)
(0 0 0.00120107)
(0 0 0.00105966)
(0 0 0.00091829)
(0 0 0.000776954)
(0 0 0.000635649)
(0 0 0.000494368)
(0 0 0.000353107)
(0 0 0.000211858)
(0 0 7.06186e-05)
(0 0 9.82148e-05)
(0 0 0.000294649)
(0 0 0.000491097)
(0 0 0.000687568)
(0 0 0.000884071)
(0 0 0.00108061)
(0 0 0.00127721)
(0 0 0.00147386)
(0 0 0.00167058)
(0 0 0.00186737)
(0 0 0.00206424)
(0 0 0.0022612)
(0 0 0.00245826)
(0 0 0.00265543)
(0 0 0.0028527)
(0 0 0.00305008)
(0 0 0.00324759)
(0 0 0.00344521)
(0 0 0.00364297)
(0 0 0.00384086)
(0 0 0.00403888)
(0 0 0.00423703)
(0 0 0.00443532)
(0 0 0.00463375)
(0 0 0.00483231)
(0 0 0.005031)
(0 0 0.00522983)
(0 0 0.00542878)
(0 0 0.00562785)
(0 0 0.00582704)
(0 0 0.00602634)
(0 0 0.00622574)
(0 0 0.00642523)
(0 0 0.0066248)
(0 0 0.00682444)
(0 0 0.00702414)
(0 0 0.00722388)
(0 0 0.00742364)
(0 0 0.00762341)
(0 0 0.00782317)
(0 0 0.00802289)
(0 0 0.00822256)
(0 0 0.00842215)
(0 0 0.00862164)
(0 0 0.00882099)
(0 0 0.00902019)
(0 0 0.00921919)
(0 0 0.00941797)
(0 0 0.00961649)
(0 0 0.00981471)
(0 0 0.0100126)
(0 0 0.0102101)
(0 0 0.0104072)
(0 0 0.0106039)
(0 0 0.0108)
(0 0 0.0109956)
(0 0 0.0111905)
(0 0 0.0113849)
(0 0 0.0115785)
(0 0 0.0117713)
(0 0 0.0119634)
(0 0 0.0121545)
(0 0 0.0123447)
(0 0 0.0125339)
(0 0 0.012722)
(0 0 0.012909)
(0 0 0.0130947)
(0 0 0.0132792)
(0 0 0.0134623)
(0 0 0.013644)
(0 0 0.0138243)
(0 0 0.0140029)
(0 0 0.0141798)
(0 0 0.0143551)
(0 0 0.0145285)
(0 0 0.0147)
(0 0 0.0148695)
(0 0 0.015037)
(0 0 0.0152023)
(0 0 0.0153653)
(0 0 0.0155261)
(0 0 0.0156844)
(0 0 0.0158403)
(0 0 0.0159935)
(0 0 0.0161441)
(0 0 0.0162919)
(0 0 0.0164369)
(0 0 0.0165789)
(0 0 0.016718)
(0 0 0.0168539)
(0 0 0.0169867)
(0 0 0.0171161)
(0 0 0.0172423)
(0 0 0.017365)
(0 0 0.0174842)
(0 0 0.0175998)
(0 0 0.0177117)
(0 0 0.0178199)
(0 0 0.0179244)
(0 0 0.0180249)
(0 0 0.0181215)
(0 0 0.0182141)
(0 0 0.0183027)
(0 0 0.0183871)
(0 0 0.0184674)
(0 0 0.0185434)
(0 0 0.0186152)
(0 0 0.0186826)
(0 0 0.0187457)
(0 0 0.0188044)
(0 0 0.0188587)
(0 0 0.0189085)
(0 0 0.0189538)
(0 0 0.0189946)
(0 0 0.0190309)
(0 0 0.0190626)
(0 0 0.0190898)
(0 0 0.0191124)
(0 0 0.0191305)
(0 0 0.019144)
(0 0 0.0191529)
(0 0 0.0191573)
(0 0 0.0191571)
(0 0 0.0191524)
(0 0 0.0191432)
(0 0 0.0191295)
(0 0 0.0191114)
(0 0 0.0190889)
(0 0 0.0190619)
(0 0 0.0190306)
(0 0 0.018995)
(0 0 0.0189551)
(0 0 0.018911)
(0 0 0.0188628)
(0 0 0.0188104)
(0 0 0.0187539)
(0 0 0.0186934)
(0 0 0.018629)
(0 0 0.0185607)
(0 0 0.0184885)
(0 0 0.0184126)
(0 0 0.018333)
(0 0 0.0182498)
(0 0 0.018163)
(0 0 0.0180727)
(0 0 0.0179791)
(0 0 0.0178821)
(0 0 0.0177818)
(0 0 0.0176784)
(0 0 0.0175718)
(0 0 0.0174623)
(0 0 0.0173497)
(0 0 0.0172343)
(0 0 0.0171162)
(0 0 0.0169952)
(0 0 0.0168717)
(0 0 0.0167456)
(0 0 0.016617)
(0 0 0.016486)
(0 0 0.0163527)
(0 0 0.0162171)
(0 0 0.0160794)
(0 0 0.0159395)
(0 0 0.0157977)
(0 0 0.0156539)
(0 0 0.0155082)
(0 0 0.0153606)
(0 0 0.0152114)
(0 0 0.0150605)
(0 0 0.014908)
(0 0 0.0147539)
(0 0 0.0145984)
(0 0 0.0144415)
(0 0 0.0142832)
(0 0 0.0141237)
(0 0 0.0139629)
(0 0 0.013801)
(0 0 0.013638)
(0 0 0.0134739)
(0 0 0.0133089)
(0 0 0.0131429)
(0 0 0.012976)
(0 0 0.0128083)
(0 0 0.0126398)
(0 0 0.0124706)
(0 0 0.0123006)
(0 0 0.0121301)
(0 0 0.0119589)
(0 0 0.0117871)
(0 0 0.0116148)
(0 0 0.0114421)
(0 0 0.0112688)
(0 0 0.0110952)
(0 0 0.0109212)
(0 0 0.0107468)
(0 0 0.0105721)
(0 0 0.0103972)
(0 0 0.010222)
(0 0 0.0100465)
(0 0 0.00987086)
(0 0 0.00969503)
(0 0 0.00951905)
(0 0 0.00934294)
(0 0 0.00916672)
(0 0 0.00899041)
(0 0 0.00881403)
(0 0 0.0086376)
(0 0 0.00846113)
(0 0 0.00828465)
(0 0 0.00810816)
(0 0 0.00793169)
(0 0 0.00775524)
(0 0 0.00757883)
(0 0 0.00740246)
(0 0 0.00722616)
(0 0 0.00704992)
(0 0 0.00687376)
(0 0 0.00669769)
(0 0 0.0065217)
(0 0 0.00634582)
(0 0 0.00617004)
(0 0 0.00599437)
(0 0 0.00581881)
(0 0 0.00564337)
(0 0 0.00546805)
(0 0 0.00529285)
(0 0 0.00511778)
(0 0 0.00494283)
(0 0 0.00476801)
(0 0 0.00459331)
(0 0 0.00441874)
(0 0 0.00424429)
(0 0 0.00406997)
(0 0 0.00389577)
(0 0 0.00372169)
(0 0 0.00354772)
(0 0 0.00337387)
(0 0 0.00320014)
(0 0 0.0030265)
(0 0 0.00285297)
(0 0 0.00267954)
(0 0 0.00250621)
(0 0 0.00233296)
(0 0 0.0021598)
(0 0 0.00198672)
(0 0 0.00181371)
(0 0 0.00164076)
(0 0 0.00146788)
(0 0 0.00129506)
(0 0 0.00112228)
(0 0 0.00094955)
(0 0 0.000776855)
(0 0 0.000604189)
(0 0 0.000431547)
(0 0 0.000258921)
(0 0 8.6306e-05)
(0 0 0.000116061)
(0 0 0.000348189)
(0 0 0.000580334)
(0 0 0.000812505)
(0 0 0.00104472)
(0 0 0.00127697)
(0 0 0.00150929)
(0 0 0.00174168)
(0 0 0.00197414)
(0 0 0.0022067)
(0 0 0.00243935)
(0 0 0.00267211)
(0 0 0.00290498)
(0 0 0.00313797)
(0 0 0.0033711)
(0 0 0.00360436)
(0 0 0.00383777)
(0 0 0.00407132)
(0 0 0.00430502)
(0 0 0.00453888)
(0 0 0.0047729)
(0 0 0.00500708)
(0 0 0.00524143)
(0 0 0.00547593)
(0 0 0.0057106)
(0 0 0.00594543)
(0 0 0.00618041)
(0 0 0.00641555)
(0 0 0.00665083)
(0 0 0.00688625)
(0 0 0.0071218)
(0 0 0.00735748)
(0 0 0.00759327)
(0 0 0.00782915)
(0 0 0.00806512)
(0 0 0.00830116)
(0 0 0.00853726)
(0 0 0.00877338)
(0 0 0.00900952)
(0 0 0.00924564)
(0 0 0.00948173)
(0 0 0.00971776)
(0 0 0.00995371)
(0 0 0.0101895)
(0 0 0.0104252)
(0 0 0.0106607)
(0 0 0.0108959)
(0 0 0.0111309)
(0 0 0.0113656)
(0 0 0.0116)
(0 0 0.011834)
(0 0 0.0120675)
(0 0 0.0123005)
(0 0 0.012533)
(0 0 0.0127649)
(0 0 0.0129962)
(0 0 0.0132268)
(0 0 0.0134565)
(0 0 0.0136855)
(0 0 0.0139135)
(0 0 0.0141406)
(0 0 0.0143666)
(0 0 0.0145916)
(0 0 0.0148153)
(0 0 0.0150378)
(0 0 0.0152589)
(0 0 0.0154786)
(0 0 0.0156968)
(0 0 0.0159134)
(0 0 0.0161283)
(0 0 0.0163415)
(0 0 0.0165528)
(0 0 0.0167621)
(0 0 0.0169694)
(0 0 0.0171745)
(0 0 0.0173774)
(0 0 0.0175779)
(0 0 0.0177761)
(0 0 0.0179716)
(0 0 0.0181645)
(0 0 0.0183547)
(0 0 0.018542)
(0 0 0.0187264)
(0 0 0.0189077)
(0 0 0.0190859)
(0 0 0.0192608)
(0 0 0.0194323)
(0 0 0.0196004)
(0 0 0.0197649)
(0 0 0.0199258)
(0 0 0.0200829)
(0 0 0.0202361)
(0 0 0.0203853)
(0 0 0.0205305)
(0 0 0.0206716)
(0 0 0.0208084)
(0 0 0.0209409)
(0 0 0.0210689)
(0 0 0.0211925)
(0 0 0.0213115)
(0 0 0.0214258)
(0 0 0.0215354)
(0 0 0.0216402)
(0 0 0.0217401)
(0 0 0.0218351)
(0 0 0.021925)
(0 0 0.0220099)
(0 0 0.0220898)
(0 0 0.0221644)
(0 0 0.0222338)
(0 0 0.022298)
(0 0 0.022357)
(0 0 0.0224106)
(0 0 0.0224589)
(0 0 0.0225018)
(0 0 0.0225393)
(0 0 0.0225714)
(0 0 0.0225982)
(0 0 0.0226195)
(0 0 0.0226354)
(0 0 0.022646)
(0 0 0.0226511)
(0 0 0.0226509)
(0 0 0.0226453)
(0 0 0.0226344)
(0 0 0.0226182)
(0 0 0.0225967)
(0 0 0.0225699)
(0 0 0.022538)
(0 0 0.0225009)
(0 0 0.0224587)
(0 0 0.0224115)
(0 0 0.0223593)
(0 0 0.0223021)
(0 0 0.02224)
(0 0 0.0221732)
(0 0 0.0221015)
(0 0 0.0220252)
(0 0 0.0219444)
(0 0 0.0218589)
(0 0 0.0217691)
(0 0 0.0216748)
(0 0 0.0215763)
(0 0 0.0214736)
(0 0 0.0213668)
(0 0 0.0212559)
(0 0 0.0211411)
(0 0 0.0210224)
(0 0 0.0209)
(0 0 0.0207739)
(0 0 0.0206442)
(0 0 0.020511)
(0 0 0.0203745)
(0 0 0.0202346)
(0 0 0.0200915)
(0 0 0.0199453)
(0 0 0.0197961)
(0 0 0.019644)
(0 0 0.019489)
(0 0 0.0193312)
(0 0 0.0191708)
(0 0 0.0190079)
(0 0 0.0188424)
(0 0 0.0186746)
(0 0 0.0185045)
(0 0 0.0183321)
(0 0 0.0181576)
(0 0 0.0179811)
(0 0 0.0178025)
(0 0 0.0176221)
(0 0 0.0174399)
(0 0 0.017256)
(0 0 0.0170704)
(0 0 0.0168832)
(0 0 0.0166945)
(0 0 0.0165044)
(0 0 0.0163129)
(0 0 0.0161201)
(0 0 0.0159261)
(0 0 0.0157309)
(0 0 0.0155346)
(0 0 0.0153373)
(0 0 0.015139)
(0 0 0.0149397)
(0 0 0.0147396)
(0 0 0.0145387)
(0 0 0.014337)
(0 0 0.0141345)
(0 0 0.0139315)
(0 0 0.0137278)
(0 0 0.0135235)
(0 0 0.0133187)
(0 0 0.0131134)
(0 0 0.0129077)
(0 0 0.0127015)
(0 0 0.012495)
(0 0 0.0122882)
(0 0 0.012081)
(0 0 0.0118736)
(0 0 0.011666)
(0 0 0.0114581)
(0 0 0.0112501)
(0 0 0.0110419)
(0 0 0.0108336)
(0 0 0.0106252)
(0 0 0.0104167)
(0 0 0.0102082)