/*--------------------------------*- C++ -*----------------------------------*\
| =========                 |                                                 |
| \\      /  F ield         | OpenFOAM: The Open Source CFD Toolbox           |
|  \\    /   O peration     | Version:  v2012                                 |
|   \\  /    A nd           | Website:  www.openfoam.com                      |
|    \\/     M anipulation  |                                                 |
\*---------------------------------------------------------------------------*/
FoamFile
{
    version     2.0;
    format      ascii;
    class       surfaceScalarField;
    location    "14";
    object      phi;
}
// * * * * * * * * * * * * * * * * * * * * * * * * * * * * * * * * * * * * * //

dimensions      [0 3 -1 0 0 0 0];
oriented        oriented;


internalField   nonuniform List<scalar> 
130560
(
3.47247e-06
-3.47247e-06
6.94514e-06
-3.47267e-06
1.04182e-05
-3.47306e-06
1.38918e-05
-3.47363e-06
1.73662e-05
-3.47439e-06
2.08416e-05
-3.47534e-06
2.4318e-05
-3.47648e-06
2.77958e-05
-3.47779e-06
3.12751e-05
-3.47928e-06
3.47561e-05
-3.48095e-06
3.82388e-05
-3.48278e-06
4.17236e-05
-3.48477e-06
4.52105e-05
-3.48692e-06
4.86997e-05
-3.48921e-06
5.21914e-05
-3.49164e-06
5.56856e-05
-3.49421e-06
5.91825e-05
-3.4969e-06
6.26822e-05
-3.49971e-06
6.61848e-05
-3.50261e-06
6.96904e-05
-3.50561e-06
7.31991e-05
-3.5087e-06
7.6711e-05
-3.51185e-06
8.0226e-05
-3.51506e-06
8.37443e-05
-3.51831e-06
8.72659e-05
-3.52159e-06
9.07908e-05
-3.52489e-06
9.4319e-05
-3.52818e-06
9.78505e-05
-3.53146e-06
0.000101385
-3.5347e-06
0.000104923
-3.53789e-06
0.000108464
-3.54101e-06
0.000112008
-3.54403e-06
0.000115555
-3.54695e-06
0.000119105
-3.54973e-06
0.000122657
-3.55237e-06
0.000126212
-3.55482e-06
0.000129769
-3.55708e-06
0.000133328
-3.55911e-06
0.000136889
-3.5609e-06
0.000140451
-3.56241e-06
0.000144015
-3.56362e-06
0.00014758
-3.56451e-06
0.000151145
-3.56504e-06
0.00015471
-3.56519e-06
0.000158275
-3.56492e-06
0.000161839
-3.56421e-06
0.000165402
-3.56303e-06
0.000168963
-3.56134e-06
0.000172522
-3.55912e-06
0.000176079
-3.55632e-06
0.000179632
-3.55292e-06
0.000183181
-3.54888e-06
0.000186725
-3.54417e-06
0.000190263
-3.53876e-06
0.000193796
-3.5326e-06
0.000197322
-3.52566e-06
0.00020084
-3.51791e-06
0.000204349
-3.50931e-06
0.000207849
-3.49982e-06
0.000211338
-3.4894e-06
0.000214816
-3.47803e-06
0.000218282
-3.46566e-06
0.000221734
-3.45225e-06
0.000225172
-3.43778e-06
0.000228594
-3.42219e-06
0.000232
-3.40546e-06
0.000235387
-3.38756e-06
0.000238756
-3.36844e-06
0.000242104
-3.34807e-06
0.00024543
-3.32642e-06
0.000248733
-3.30346e-06
0.000252013
-3.27915e-06
0.000255266
-3.25346e-06
0.000258492
-3.22636e-06
0.00026169
-3.19783e-06
0.000264858
-3.16784e-06
0.000267994
-3.13636e-06
0.000271098
-3.10337e-06
0.000274167
-3.06884e-06
0.000277199
-3.03276e-06
0.000280195
-2.99511e-06
0.00028315
-2.95586e-06
0.000286065
-2.91502e-06
0.000288938
-2.87256e-06
0.000291766
-2.82848e-06
0.000294549
-2.78277e-06
0.000297285
-2.73542e-06
0.000299971
-2.68644e-06
0.000302607
-2.63582e-06
0.00030519
-2.58357e-06
0.00030772
-2.5297e-06
0.000310194
-2.47421e-06
0.000312612
-2.41712e-06
0.00031497
-2.35845e-06
0.000317268
-2.29821e-06
0.000319505
-2.23643e-06
0.000321678
-2.17313e-06
0.000323786
-2.10833e-06
0.000325828
-2.04208e-06
0.000327803
-1.97441e-06
0.000329708
-1.90535e-06
0.000331543
-1.83494e-06
0.000333306
-1.76323e-06
0.000334996
-1.69026e-06
0.000336612
-1.61609e-06
0.000338153
-1.54076e-06
0.000339617
-1.46432e-06
0.000341004
-1.38685e-06
0.000342313
-1.30839e-06
0.000343542
-1.22901e-06
0.00034469
-1.14876e-06
0.000345758
-1.06773e-06
0.000346744
-9.85964e-07
0.000347648
-9.03543e-07
0.000348468
-8.20534e-07
0.000349205
-7.3701e-07
0.000349858
-6.53043e-07
0.000350427
-5.68706e-07
0.000350911
-4.84074e-07
0.00035131
-3.99221e-07
0.000351625
-3.14223e-07
0.000351854
-2.29155e-07
0.000351998
-1.44091e-07
0.000352057
-5.91074e-08
0.000352031
2.57223e-08
0.000351921
1.10324e-07
0.000351726
1.94626e-07
0.000351448
2.78555e-07
0.000351086
3.62041e-07
0.000350641
4.45015e-07
0.000350113
5.2741e-07
0.000349504
6.09158e-07
0.000348814
6.90196e-07
0.000348043
7.70462e-07
0.000347193
8.49896e-07
0.000346265
9.28439e-07
0.000345259
1.00604e-06
0.000344176
1.08263e-06
0.000343018
1.15818e-06
0.000341786
1.23263e-06
0.00034048
1.30593e-06
0.000339102
1.37805e-06
0.000337653
1.44894e-06
0.000336134
1.51857e-06
0.000334547
1.5869e-06
0.000332893
1.6539e-06
0.000331174
1.71953e-06
0.00032939
1.78378e-06
0.000327543
1.84662e-06
0.000325635
1.90803e-06
0.000323667
1.968e-06
0.000321641
2.02649e-06
0.000319557
2.08351e-06
0.000317418
2.13905e-06
0.000315225
2.19309e-06
0.00031298
2.24563e-06
0.000310683
2.29666e-06
0.000308337
2.3462e-06
0.000305942
2.39423e-06
0.000303502
2.44076e-06
0.000301016
2.48581e-06
0.000298487
2.52937e-06
0.000295915
2.57145e-06
0.000293303
2.61208e-06
0.000290652
2.65125e-06
0.000287963
2.68899e-06
0.000285237
2.72532e-06
0.000282477
2.76024e-06
0.000279683
2.79378e-06
0.000276857
2.82597e-06
0.000274001
2.85681e-06
0.000271114
2.88634e-06
0.0002682
2.91458e-06
0.000265258
2.94155e-06
0.000262291
2.96728e-06
0.000259299
2.99179e-06
0.000256284
3.01511e-06
0.000253247
3.03728e-06
0.000250188
3.0583e-06
0.00024711
3.07822e-06
0.000244013
3.09707e-06
0.000240898
3.11486e-06
0.000237767
3.13164e-06
0.000234619
3.14742e-06
0.000231457
3.16224e-06
0.000228281
3.17614e-06
0.000225092
3.18913e-06
0.00022189
3.20124e-06
0.000218678
3.21252e-06
0.000215455
3.22298e-06
0.000212222
3.23265e-06
0.000208981
3.24157e-06
0.000205731
3.24975e-06
0.000202474
3.25724e-06
0.00019921
3.26406e-06
0.000195939
3.27023e-06
0.000192664
3.27578e-06
0.000189383
3.28075e-06
0.000186098
3.28514e-06
0.000182809
3.289e-06
0.000179516
3.29235e-06
0.000176221
3.29521e-06
0.000172924
3.2976e-06
0.000169624
3.29956e-06
0.000166323
3.3011e-06
0.000163021
3.30224e-06
0.000159718
3.30302e-06
0.000156414
3.30345e-06
0.000153111
3.30355e-06
0.000149807
3.30335e-06
0.000146504
3.30286e-06
0.000143202
3.3021e-06
0.000139901
3.3011e-06
0.000136601
3.29988e-06
0.000133303
3.29844e-06
0.000130006
3.29681e-06
0.000126711
3.29501e-06
0.000123418
3.29305e-06
0.000120127
3.29096e-06
0.000116838
3.28873e-06
0.000113552
3.2864e-06
0.000110268
3.28397e-06
0.000106987
3.28146e-06
0.000103708
3.27889e-06
0.000100431
3.27626e-06
9.71578e-05
3.27359e-06
9.38869e-05
3.27089e-06
9.06188e-05
3.26817e-06
8.73533e-05
3.26545e-06
8.40906e-05
3.26273e-06
8.08306e-05
3.26003e-06
7.75732e-05
3.25735e-06
7.43185e-05
3.25471e-06
7.10664e-05
3.25211e-06
6.78168e-05
3.24957e-06
6.45697e-05
3.24708e-06
6.13251e-05
3.24467e-06
5.80827e-05
3.24233e-06
5.48427e-05
3.24007e-06
5.16048e-05
3.23791e-06
4.83689e-05
3.23584e-06
4.51351e-05
3.23387e-06
4.19031e-05
3.23201e-06
3.86728e-05
3.23026e-06
3.54442e-05
3.22863e-06
3.22171e-05
3.22712e-06
2.89913e-05
3.22573e-06
2.57668e-05
3.22447e-06
2.25435e-05
3.22335e-06
1.93211e-05
3.22236e-06
1.60996e-05
3.2215e-06
1.28789e-05
3.22079e-06
9.65864e-06
3.22021e-06
6.43886e-06
3.21978e-06
3.21936e-06
3.2195e-06
3.21936e-06
3.47229e-06
-6.94477e-06
6.94478e-06
-6.94516e-06
1.04177e-05
-6.94593e-06
1.38911e-05
-6.94708e-06
1.73653e-05
-6.94861e-06
2.08405e-05
-6.95051e-06
2.43168e-05
-6.95278e-06
2.77944e-05
-6.95542e-06
3.12735e-05
-6.9584e-06
3.47543e-05
-6.96173e-06
3.82369e-05
-6.9654e-06
4.17216e-05
-6.96939e-06
4.52083e-05
-6.97369e-06
4.86974e-05
-6.97829e-06
5.21889e-05
-6.98316e-06
5.5683e-05
-6.98831e-06
5.91798e-05
-6.99369e-06
6.26794e-05
-6.99931e-06
6.61819e-05
-7.00514e-06
6.96875e-05
-7.01115e-06
7.31961e-05
-7.01733e-06
7.67079e-05
-7.02365e-06
8.02229e-05
-7.03008e-06
8.37412e-05
-7.03659e-06
8.72628e-05
-7.04317e-06
9.07877e-05
-7.04978e-06
9.43159e-05
-7.05638e-06
9.78474e-05
-7.06295e-06
0.000101382
-7.06945e-06
0.00010492
-7.07585e-06
0.000108461
-7.0821e-06
0.000112005
-7.08818e-06
0.000115552
-7.09403e-06
0.000119102
-7.09962e-06
0.000122655
-7.10491e-06
0.00012621
-7.10984e-06
0.000129767
-7.11438e-06
0.000133327
-7.11847e-06
0.000136888
-7.12207e-06
0.00014045
-7.12512e-06
0.000144014
-7.12758e-06
0.000147579
-7.12937e-06
0.000151145
-7.13046e-06
0.00015471
-7.13079e-06
0.000158276
-7.13029e-06
0.00016184
-7.1289e-06
0.000165404
-7.12657e-06
0.000168966
-7.12322e-06
0.000172525
-7.1188e-06
0.000176082
-7.11324e-06
0.000179636
-7.10648e-06
0.000183185
-7.09844e-06
0.00018673
-7.08905e-06
0.00019027
-7.07826e-06
0.000193803
-7.06597e-06
0.00019733
-7.05213e-06
0.000200848
-7.03667e-06
0.000204359
-7.0195e-06
0.000207859
-7.00056e-06
0.00021135
-6.97977e-06
0.000214829
-6.95706e-06
0.000218295
-6.93235e-06
0.000221749
-6.90557e-06
0.000225188
-6.87666e-06
0.000228611
-6.84552e-06
0.000232018
-6.8121e-06
0.000235406
-6.77633e-06
0.000238776
-6.73812e-06
0.000242125
-6.69742e-06
0.000245453
-6.65415e-06
0.000248758
-6.60826e-06
0.000252039
-6.55967e-06
0.000255293
-6.50832e-06
0.000258521
-6.45416e-06
0.00026172
-6.39712e-06
0.00026489
-6.33716e-06
0.000268028
-6.27423e-06
0.000271133
-6.20826e-06
0.000274203
-6.13923e-06
0.000277237
-6.06708e-06
0.000280234
-5.99179e-06
0.000283191
-5.91333e-06
0.000286108
-5.83165e-06
0.000288982
-5.74674e-06
0.000291812
-5.65858e-06
0.000294597
-5.56716e-06
0.000297334
-5.47247e-06
0.000300022
-5.3745e-06
0.000302659
-5.27326e-06
0.000305244
-5.16876e-06
0.000307776
-5.061e-06
0.000310252
-4.95002e-06
0.00031267
-4.83582e-06
0.00031503
-4.71846e-06
0.00031733
-4.59796e-06
0.000319568
-4.47437e-06
0.000321743
-4.34774e-06
0.000323852
-4.21812e-06
0.000325896
-4.08559e-06
0.000327872
-3.9502e-06
0.000329778
-3.81203e-06
0.000331615
-3.67117e-06
0.000333379
-3.5277e-06
0.000335071
-3.38172e-06
0.000336688
-3.23332e-06
0.00033823
-3.0826e-06
0.000339695
-2.92969e-06
0.000341083
-2.77468e-06
0.000342392
-2.6177e-06
0.000343622
-2.45887e-06
0.000344772
-2.29832e-06
0.00034584
-2.13617e-06
0.000346827
-1.97258e-06
0.000347731
-1.80767e-06
0.000348552
-1.64158e-06
0.000349289
-1.47446e-06
0.000349943
-1.30645e-06
0.000350512
-1.1377e-06
0.000350996
-9.68361e-07
0.000351395
-7.9858e-07
0.00035171
-6.28509e-07
0.000351939
-4.58297e-07
0.000352083
-2.88096e-07
0.000352142
-1.18054e-07
0.000352116
5.16788e-08
0.000352005
2.20956e-07
0.00035181
3.8963e-07
0.000351531
5.57559e-07
0.000351168
7.24601e-07
0.000350723
8.90617e-07
0.000350195
1.05547e-06
0.000349585
1.21903e-06
0.000348894
1.38117e-06
0.000348123
1.54176e-06
0.000347272
1.70069e-06
0.000346342
1.85783e-06
0.000345335
2.01308e-06
0.000344252
2.16632e-06
0.000343092
2.31747e-06
0.000341859
2.46641e-06
0.000340552
2.61306e-06
0.000339172
2.75734e-06
0.000337722
2.89916e-06
0.000336202
3.03845e-06
0.000334614
3.17513e-06
0.000332959
3.30916e-06
0.000331238
3.44046e-06
0.000329453
3.56898e-06
0.000327605
3.69468e-06
0.000325695
3.81752e-06
0.000323726
3.93746e-06
0.000321698
4.05447e-06
0.000319613
4.16852e-06
0.000317472
4.27959e-06
0.000315277
4.38768e-06
0.00031303
4.49276e-06
0.000310732
4.59483e-06
0.000308384
4.6939e-06
0.000305989
4.78996e-06
0.000303546
4.88302e-06
0.000301059
4.9731e-06
0.000298528
5.06021e-06
0.000295955
5.14437e-06
0.000293342
5.2256e-06
0.000290689
5.30394e-06
0.000287999
5.37941e-06
0.000285272
5.45203e-06
0.00028251
5.52186e-06
0.000279715
5.58893e-06
0.000276888
5.65328e-06
0.00027403
5.71494e-06
0.000271142
5.77398e-06
0.000268226
5.83043e-06
0.000265284
5.88434e-06
0.000262315
5.93578e-06
0.000259322
5.98477e-06
0.000256306
6.03139e-06
0.000253267
6.07569e-06
0.000250208
6.11771e-06
0.000247129
6.15752e-06
0.000244031
6.19518e-06
0.000240915
6.23074e-06
0.000237782
6.26426e-06
0.000234634
6.2958e-06
0.000231471
6.32542e-06
0.000228293
6.35317e-06
0.000225103
6.37912e-06
0.000221901
6.40333e-06
0.000218688
6.42585e-06
0.000215464
6.44674e-06
0.000212231
6.46605e-06
0.000208989
6.48386e-06
0.000205738
6.50021e-06
0.00020248
6.51516e-06
0.000199216
6.52876e-06
0.000195945
6.54107e-06
0.000192668
6.55215e-06
0.000189387
6.56205e-06
0.000186101
6.57082e-06
0.000182812
6.57851e-06
0.000179519
6.58518e-06
0.000176223
6.59087e-06
0.000172925
6.59564e-06
0.000169625
6.59953e-06
0.000166324
6.60258e-06
0.000163021
6.60485e-06
0.000159718
6.60639e-06
0.000156414
6.60722e-06
0.00015311
6.6074e-06
0.000149807
6.60697e-06
0.000146503
6.60598e-06
0.000143201
6.60445e-06
0.0001399
6.60243e-06
0.0001366
6.59995e-06
0.000133301
6.59706e-06
0.000130004
6.59379e-06
0.000126709
6.59017e-06
0.000123416
6.58624e-06
0.000120125
6.58203e-06
0.000116836
6.57757e-06
0.000113549
6.57289e-06
0.000110265
6.56802e-06
0.000106984
6.56299e-06
0.000103705
6.55782e-06
0.000100429
6.55255e-06
9.7155e-05
6.5472e-06
9.38841e-05
6.54179e-06
9.06159e-05
6.53634e-06
8.73505e-05
6.53088e-06
8.40878e-05
6.52544e-06
8.08278e-05
6.52002e-06
7.75704e-05
6.51466e-06
7.43158e-05
6.50937e-06
7.10637e-05
6.50417e-06
6.78142e-05
6.49907e-06
6.45672e-05
6.49409e-06
6.13226e-05
6.48925e-06
5.80804e-05
6.48457e-06
5.48404e-05
6.48005e-06
5.16026e-05
6.47571e-06
4.83669e-05
6.47157e-06
4.51331e-05
6.46763e-06
4.19012e-05
6.4639e-06
3.86711e-05
6.46039e-06
3.54426e-05
6.45713e-06
3.22156e-05
6.4541e-06
2.899e-05
6.45132e-06
2.57657e-05
6.44881e-06
2.25425e-05
6.44655e-06
1.93203e-05
6.44457e-06
1.60989e-05
6.44286e-06
1.28783e-05
6.44143e-06
9.6582e-06
6.44028e-06
6.43856e-06
6.43942e-06
3.21921e-06
6.43885e-06
6.43857e-06
3.4719e-06
-1.04167e-05
6.944e-06
-1.04173e-05
1.04165e-05
-1.04184e-05
1.38896e-05
-1.04201e-05
1.73634e-05
-1.04224e-05
2.08382e-05
-1.04253e-05
2.43141e-05
-1.04287e-05
2.77914e-05
-1.04327e-05
3.12702e-05
-1.04372e-05
3.47506e-05
-1.04422e-05
3.82329e-05
-1.04477e-05
4.17172e-05
-1.04537e-05
4.52037e-05
-1.04602e-05
4.86925e-05
-1.04671e-05
5.21837e-05
-1.04744e-05
5.56776e-05
-1.04821e-05
5.91741e-05
-1.04903e-05
6.26735e-05
-1.04987e-05
6.61759e-05
-1.05075e-05
6.96812e-05
-1.05165e-05
7.31897e-05
-1.05258e-05
7.67014e-05
-1.05353e-05
8.02163e-05
-1.0545e-05
8.37346e-05
-1.05548e-05
8.72561e-05
-1.05647e-05
9.0781e-05
-1.05747e-05
9.43093e-05
-1.05846e-05
9.78408e-05
-1.05945e-05
0.000101376
-1.06043e-05
0.000104914
-1.0614e-05
0.000108455
-1.06234e-05
0.000111999
-1.06325e-05
0.000115547
-1.06414e-05
0.000119097
-1.06498e-05
0.00012265
-1.06578e-05
0.000126205
-1.06653e-05
0.000129763
-1.06721e-05
0.000133323
-1.06783e-05
0.000136885
-1.06838e-05
0.000140448
-1.06884e-05
0.000144013
-1.06922e-05
0.000147578
-1.06949e-05
0.000151144
-1.06967e-05
0.000154711
-1.06972e-05
0.000158277
-1.06965e-05
0.000161843
-1.06945e-05
0.000165407
-1.06911e-05
0.00016897
-1.06862e-05
0.000172531
-1.06796e-05
0.000176089
-1.06714e-05
0.000179644
-1.06613e-05
0.000183195
-1.06493e-05
0.000186741
-1.06353e-05
0.000190282
-1.06192e-05
0.000193817
-1.06009e-05
0.000197345
-1.05802e-05
0.000200866
-1.05571e-05
0.000204378
-1.05315e-05
0.00020788
-1.05031e-05
0.000211372
-1.04721e-05
0.000214853
-1.04381e-05
0.000218322
-1.04011e-05
0.000221778
-1.0361e-05
0.000225219
-1.03178e-05
0.000228644
-1.02711e-05
0.000232053
-1.02211e-05
0.000235445
-1.01675e-05
0.000238817
-1.01103e-05
0.000242169
-1.00493e-05
0.000245499
-9.98452e-06
0.000248807
-9.91576e-06
0.00025209
-9.84295e-06
0.000255347
-9.766e-06
0.000258578
-9.68483e-06
0.00026178
-9.59934e-06
0.000264953
-9.50947e-06
0.000268094
-9.41512e-06
0.000271202
-9.31623e-06
0.000274275
-9.21273e-06
0.000277313
-9.10456e-06
0.000280312
-8.99167e-06
0.000283273
-8.874e-06
0.000286193
-8.75151e-06
0.00028907
-8.62417e-06
0.000291904
-8.49195e-06
0.000294691
-8.35483e-06
0.000297432
-8.2128e-06
0.000300123
-8.06584e-06
0.000302764
-7.91397e-06
0.000305352
-7.7572e-06
0.000307887
-7.59554e-06
0.000310366
-7.42903e-06
0.000312788
-7.2577e-06
0.000315151
-7.08161e-06
0.000317454
-6.9008e-06
0.000319695
-6.71535e-06
0.000321872
-6.52533e-06
0.000323985
-6.33083e-06
0.000326031
-6.13194e-06
0.00032801
-5.92877e-06
0.000329919
-5.72142e-06
0.000331758
-5.51002e-06
0.000333525
-5.2947e-06
0.000335219
-5.0756e-06
0.000336839
-4.85287e-06
0.000338383
-4.62666e-06
0.00033985
-4.39714e-06
0.00034124
-4.16448e-06
0.000342551
-3.92885e-06
0.000343783
-3.69045e-06
0.000344934
-3.44946e-06
0.000346004
-3.20608e-06
0.000346992
-2.96051e-06
0.000347897
-2.71297e-06
0.000348719
-2.46366e-06
0.000349457
-2.21279e-06
0.000350111
-1.9606e-06
0.000350681
-1.70729e-06
0.000351166
-1.45309e-06
0.000351565
-1.19823e-06
0.00035188
-9.42939e-07
0.000352109
-6.87433e-07
0.000352253
-4.31944e-07
0.000352311
-1.76695e-07
0.000352285
7.80889e-08
0.000352174
3.32186e-07
0.000351978
5.85378e-07
0.000351698
8.37448e-07
0.000351335
1.08818e-06
0.000350888
1.33738e-06
0.000350358
1.58482e-06
0.000349747
1.83033e-06
0.000349055
2.07369e-06
0.000348282
2.31473e-06
0.000347429
2.55326e-06
0.000346498
2.78911e-06
0.000345489
3.02212e-06
0.000344403
3.25211e-06
0.000343242
3.47895e-06
0.000342005
3.70248e-06
0.000340696
3.92256e-06
0.000339314
4.13908e-06
0.000337861
4.3519e-06
0.000336339
4.56092e-06
0.000334748
4.76603e-06
0.00033309
4.96714e-06
0.000331366
5.16415e-06
0.000329578
5.357e-06
0.000327727
5.5456e-06
0.000325815
5.72991e-06
0.000323843
5.90985e-06
0.000321812
6.08539e-06
0.000319724
6.2565e-06
0.00031758
6.42313e-06
0.000315383
6.58527e-06
0.000313133
6.7429e-06
0.000310831
6.89601e-06
0.000308481
7.0446e-06
0.000306082
7.18868e-06
0.000303637
7.32826e-06
0.000301146
7.46336e-06
0.000298613
7.594e-06
0.000296037
7.72021e-06
0.00029342
7.84203e-06
0.000290765
7.9595e-06
0.000288072
8.07265e-06
0.000285342
8.18155e-06
0.000282578
8.28625e-06
0.00027978
8.3868e-06
0.00027695
8.48326e-06
0.000274089
8.57571e-06
0.000271199
8.6642e-06
0.00026828
8.74881e-06
0.000265335
8.82962e-06
0.000262364
8.9067e-06
0.000259369
8.98013e-06
0.00025635
9.04999e-06
0.00025331
9.11636e-06
0.000250248
9.17933e-06
0.000247166
9.23898e-06
0.000244066
9.29539e-06
0.000240948
9.34866e-06
0.000237814
9.39887e-06
0.000234663
9.4461e-06
0.000231498
9.49046e-06
0.00022832
9.53202e-06
0.000225128
9.57087e-06
0.000221924
9.6071e-06
0.000218709
9.64081e-06
0.000215484
9.67207e-06
0.000212249
9.70097e-06
0.000209005
9.72761e-06
0.000205753
9.75206e-06
0.000202494
9.77441e-06
0.000199228
9.79475e-06
0.000195956
9.81315e-06
0.000192678
9.82971e-06
0.000189396
9.84449e-06
0.000186109
9.85758e-06
0.000182819
9.86905e-06
0.000179525
9.87899e-06
0.000176228
9.88747e-06
0.000172929
9.89456e-06
0.000169628
9.90033e-06
0.000166326
9.90486e-06
0.000163023
9.90821e-06
0.000159719
9.91045e-06
0.000156414
9.91165e-06
0.00015311
9.91187e-06
0.000149806
9.91117e-06
0.000146502
9.90963e-06
0.000143199
9.90729e-06
0.000139897
9.90421e-06
0.000136597
9.90045e-06
0.000133298
9.89607e-06
0.000130001
9.89112e-06
0.000126705
9.88565e-06
0.000123412
9.87972e-06
0.00012012
9.87336e-06
0.000116831
9.86663e-06
0.000113545
9.85957e-06
0.00011026
9.85223e-06
0.000106979
9.84465e-06
0.0001037
9.83687e-06
0.000100423
9.82893e-06
9.71496e-05
9.82087e-06
9.38787e-05
9.81272e-06
9.06105e-05
9.80452e-06
8.73451e-05
9.79631e-06
8.40824e-05
9.78812e-06
8.08224e-05
9.77997e-06
7.75652e-05
9.7719e-06
7.43106e-05
9.76394e-06
7.10587e-05
9.75612e-06
6.78093e-05
9.74845e-06
6.45624e-05
9.74097e-06
6.1318e-05
9.73369e-06
5.80759e-05
9.72665e-06
5.48361e-05
9.71985e-06
5.15985e-05
9.71333e-06
4.8363e-05
9.7071e-06
4.51294e-05
9.70117e-06
4.18978e-05
9.69556e-06
3.86679e-05
9.6903e-06
3.54396e-05
9.68538e-06
3.22129e-05
9.68084e-06
2.89875e-05
9.67666e-06
2.57634e-05
9.67288e-06
2.25405e-05
9.66949e-06
1.93186e-05
9.66651e-06
1.60975e-05
9.66394e-06
1.28771e-05
9.66179e-06
9.65734e-06
9.66006e-06
6.43799e-06
9.65877e-06
3.21892e-06
9.65792e-06
9.65749e-06
3.47132e-06
-1.3888e-05
6.94284e-06
-1.38888e-05
1.04147e-05
-1.38903e-05
1.38872e-05
-1.38926e-05
1.73605e-05
-1.38957e-05
2.08347e-05
-1.38995e-05
2.43101e-05
-1.39041e-05
2.77869e-05
-1.39094e-05
3.12651e-05
-1.39154e-05
3.47451e-05
-1.39221e-05
3.82269e-05
-1.39295e-05
4.17107e-05
-1.39375e-05
4.51967e-05
-1.39462e-05
4.86851e-05
-1.39554e-05
5.21759e-05
-1.39653e-05
5.56694e-05
-1.39756e-05
5.91656e-05
-1.39865e-05
6.26647e-05
-1.39978e-05
6.61668e-05
-1.40095e-05
6.96719e-05
-1.40216e-05
7.31801e-05
-1.40341e-05
7.66917e-05
-1.40468e-05
8.02064e-05
-1.40598e-05
8.37246e-05
-1.4073e-05
8.72461e-05
-1.40862e-05
9.0771e-05
-1.40996e-05
9.42993e-05
-1.41129e-05
9.78309e-05
-1.41262e-05
0.000101366
-1.41393e-05
0.000104904
-1.41523e-05
0.000108446
-1.41649e-05
0.00011199
-1.41772e-05
0.000115538
-1.41891e-05
0.000119089
-1.42005e-05
0.000122642
-1.42112e-05
0.000126198
-1.42213e-05
0.000129757
-1.42305e-05
0.000133317
-1.42389e-05
0.00013688
-1.42463e-05
0.000140444
-1.42526e-05
0.00014401
-1.42578e-05
0.000147576
-1.42616e-05
0.000151144
-1.4264e-05
0.000154711
-1.42649e-05
0.000158279
-1.42641e-05
0.000161846
-1.42616e-05
0.000165412
-1.42572e-05
0.000168977
-1.42507e-05
0.000172539
-1.42422e-05
0.000176099
-1.42313e-05
0.000179656
-1.42181e-05
0.000183209
-1.42022e-05
0.000186757
-1.41838e-05
0.0001903
-1.41624e-05
0.000193838
-1.41382e-05
0.000197368
-1.41108e-05
0.000200891
-1.40801e-05
0.000204406
-1.40461e-05
0.000207911
-1.40085e-05
0.000211406
-1.39672e-05
0.00021489
-1.39221e-05
0.000218362
-1.3873e-05
0.000221821
-1.38197e-05
0.000225265
-1.37622e-05
0.000228694
-1.37002e-05
0.000232107
-1.36336e-05
0.000235502
-1.35624e-05
0.000238878
-1.34862e-05
0.000242233
-1.34051e-05
0.000245568
-1.33188e-05
0.000248879
-1.32273e-05
0.000252167
-1.31304e-05
0.000255429
-1.30279e-05
0.000258664
-1.29198e-05
0.00026187
-1.2806e-05
0.000265047
-1.26862e-05
0.000268192
-1.25606e-05
0.000271305
-1.24288e-05
0.000274383
-1.22909e-05
0.000277425
-1.21468e-05
0.00028043
-1.19963e-05
0.000283395
-1.18395e-05
0.00028632
-1.16762e-05
0.000289202
-1.15065e-05
0.000292041
-1.13302e-05
0.000294833
-1.11474e-05
0.000297579
-1.0958e-05
0.000300275
-1.07621e-05
0.00030292
-1.05596e-05
0.000305514
-1.03505e-05
0.000308053
-1.01349e-05
0.000310537
-9.91286e-06
0.000312964
-9.68435e-06
0.000315332
-9.44947e-06
0.000317639
-9.20829e-06
0.000319885
-8.96091e-06
0.000322067
-8.70742e-06
0.000324184
-8.44794e-06
0.000326234
-8.18259e-06
0.000328217
-7.91151e-06
0.000330131
-7.63486e-06
0.000331973
-7.35279e-06
0.000333744
-7.06548e-06
0.000335442
-6.77312e-06
0.000337065
-6.4759e-06
0.000338612
-6.17404e-06
0.000340083
-5.86774e-06
0.000341475
-5.55725e-06
0.000342789
-5.24279e-06
0.000344024
-4.92462e-06
0.000345177
-4.603e-06
0.000346249
-4.27818e-06
0.000347239
-3.95043e-06
0.000348146
-3.62004e-06
0.00034897
-3.28729e-06
0.00034971
-2.95247e-06
0.000350365
-2.61586e-06
0.000350935
-2.27777e-06
0.000351421
-1.93849e-06
0.000351821
-1.59833e-06
0.000352135
-1.25758e-06
0.000352365
-9.16557e-07
0.000352508
-5.75555e-07
0.000352566
-2.34875e-07
0.000352539
1.05181e-07
0.000352427
4.44319e-07
0.00035223
7.82244e-07
0.000351949
1.11867e-06
0.000351584
1.45331e-06
0.000351135
1.78588e-06
0.000350604
2.11612e-06
0.000349991
2.44375e-06
0.000349296
2.76853e-06
0.00034852
3.0902e-06
0.000347665
3.40851e-06
0.000346731
3.72324e-06
0.000345719
4.03416e-06
0.00034463
4.34106e-06
0.000343465
4.64373e-06
0.000342226
4.94198e-06
0.000340913
5.23563e-06
0.000339527
5.52451e-06
0.000338071
5.80845e-06
0.000336544
6.0873e-06
0.000334949
6.36093e-06
0.000333287
6.62921e-06
0.000331559
6.89202e-06
0.000329767
7.14926e-06
0.000327912
7.40083e-06
0.000325995
7.64665e-06
0.000324018
7.88665e-06
0.000321983
8.12076e-06
0.000319891
8.34895e-06
0.000317743
8.57116e-06
0.00031554
8.78737e-06
0.000313286
8.99755e-06
0.00031098
9.2017e-06
0.000308625
9.39982e-06
0.000306222
9.59191e-06
0.000303772
9.77799e-06
0.000301277
9.95808e-06
0.000298739
1.01322e-05
0.000296159
1.03004e-05
0.000293538
1.04628e-05
0.000290878
1.06194e-05
0.000288181
1.07702e-05
0.000285447
1.09153e-05
0.000282678
1.10548e-05
0.000279876
1.11887e-05
0.000277042
1.13173e-05
0.000274178
1.14404e-05
0.000271284
1.15583e-05
0.000268361
1.1671e-05
0.000265412
1.17786e-05
0.000262438
1.18813e-05
0.000259439
1.19791e-05
0.000256417
1.20721e-05
0.000253373
1.21604e-05
0.000250308
1.22443e-05
0.000247223
1.23237e-05
0.00024412
1.23988e-05
0.000240999
1.24696e-05
0.000237861
1.25364e-05
0.000234708
1.25993e-05
0.00023154
1.26583e-05
0.000228359
1.27136e-05
0.000225164
1.27652e-05
0.000221958
1.28134e-05
0.000218741
1.28582e-05
0.000215513
1.28998e-05
0.000212276
1.29382e-05
0.00020903
1.29735e-05
0.000205776
1.3006e-05
0.000202514
1.30357e-05
0.000199247
1.30627e-05
0.000195973
1.30871e-05
0.000192693
1.3109e-05
0.000189409
1.31286e-05
0.000186121
1.3146e-05
0.000182829
1.31611e-05
0.000179533
1.31743e-05
0.000176235
1.31855e-05
0.000172935
1.31948e-05
0.000169633
1.32024e-05
0.00016633
1.32083e-05
0.000163025
1.32127e-05
0.00015972
1.32156e-05
0.000156415
1.32171e-05
0.000153109
1.32173e-05
0.000149804
1.32162e-05
0.0001465
1.32141e-05
0.000143196
1.32109e-05
0.000139894
1.32067e-05
0.000136593
1.32016e-05
0.000133293
1.31957e-05
0.000129995
1.3189e-05
0.000126699
1.31816e-05
0.000123405
1.31736e-05
0.000120114
1.31651e-05
0.000116824
1.3156e-05
0.000113537
1.31465e-05
0.000110253
1.31367e-05
0.000106971
1.31265e-05
0.000103692
1.31161e-05
0.000100415
1.31054e-05
9.71416e-05
1.30946e-05
9.38706e-05
1.30837e-05
9.06024e-05
1.30727e-05
8.7337e-05
1.30617e-05
8.40743e-05
1.30508e-05
8.08145e-05
1.30398e-05
7.75573e-05
1.3029e-05
7.43029e-05
1.30184e-05
7.10511e-05
1.30079e-05
6.78019e-05
1.29976e-05
6.45552e-05
1.29876e-05
6.1311e-05
1.29779e-05
5.80692e-05
1.29685e-05
5.48296e-05
1.29594e-05
5.15923e-05
1.29507e-05
4.83571e-05
1.29423e-05
4.51239e-05
1.29344e-05
4.18925e-05
1.29269e-05
3.8663e-05
1.29199e-05
3.54351e-05
1.29133e-05
3.22087e-05
1.29072e-05
2.89838e-05
1.29016e-05
2.57601e-05
1.28966e-05
2.25375e-05
1.2892e-05
1.9316e-05
1.2888e-05
1.60953e-05
1.28846e-05
1.28754e-05
1.28817e-05
9.65605e-06
1.28794e-05
6.43712e-06
1.28777e-05
3.21849e-06
1.28766e-05
1.2876e-05
3.47054e-06
-1.73585e-05
6.94128e-06
-1.73595e-05
1.04124e-05
-1.73615e-05
1.38841e-05
-1.73644e-05
1.73567e-05
-1.73682e-05
2.08301e-05
-1.7373e-05
2.43048e-05
-1.73788e-05
2.77808e-05
-1.73854e-05
3.12584e-05
-1.7393e-05
3.47376e-05
-1.74014e-05
3.82188e-05
-1.74107e-05
4.1702e-05
-1.74207e-05
4.51874e-05
-1.74316e-05
4.86752e-05
-1.74432e-05
5.21655e-05
-1.74556e-05
5.56585e-05
-1.74686e-05
5.91542e-05
-1.74822e-05
6.26529e-05
-1.74964e-05
6.61546e-05
-1.75112e-05
6.96593e-05
-1.75264e-05
7.31673e-05
-1.75421e-05
7.66786e-05
-1.75581e-05
8.01932e-05
-1.75744e-05
8.37112e-05
-1.7591e-05
8.72326e-05
-1.76077e-05
9.07575e-05
-1.76244e-05
9.42859e-05
-1.76412e-05
9.78177e-05
-1.7658e-05
0.000101353
-1.76745e-05
0.000104891
-1.76909e-05
0.000108433
-1.77068e-05
0.000111978
-1.77224e-05
0.000115527
-1.77374e-05
0.000119078
-1.77517e-05
0.000122632
-1.77653e-05
0.000126189
-1.77781e-05
0.000129748
-1.77898e-05
0.00013331
-1.78005e-05
0.000136873
-1.78099e-05
0.000140439
-1.7818e-05
0.000144006
-1.78246e-05
0.000147574
-1.78296e-05
0.000151143
-1.78329e-05
0.000154712
-1.78342e-05
0.000158281
-1.78335e-05
0.00016185
-1.78305e-05
0.000165418
-1.78252e-05
0.000168985
-1.78174e-05
0.00017255
-1.7807e-05
0.000176112
-1.77937e-05
0.000179671
-1.77773e-05
0.000183227
-1.77578e-05
0.000186778
-1.7735e-05
0.000190324
-1.77086e-05
0.000193865
-1.76785e-05
0.000197399
-1.76446e-05
0.000200925
-1.76066e-05
0.000204443
-1.75643e-05
0.000207952
-1.75176e-05
0.000211451
-1.74662e-05
0.000214939
-1.74101e-05
0.000218415
-1.7349e-05
0.000221878
-1.72827e-05
0.000225327
-1.7211e-05
0.000228761
-1.71338e-05
0.000232178
-1.70509e-05
0.000235578
-1.69621e-05
0.000238959
-1.68672e-05
0.00024232
-1.6766e-05
0.000245659
-1.66584e-05
0.000248976
-1.65442e-05
0.000252269
-1.64233e-05
0.000255537
-1.62955e-05
0.000258777
-1.61606e-05
0.00026199
-1.60184e-05
0.000265173
-1.5869e-05
0.000268324
-1.57121e-05
0.000271443
-1.55475e-05
0.000274527
-1.53753e-05
0.000277576
-1.51953e-05
0.000280587
-1.50073e-05
0.000283559
-1.48114e-05
0.00028649
-1.46074e-05
0.000289379
-1.43953e-05
0.000292224
-1.41751e-05
0.000295023
-1.39466e-05
0.000297775
-1.37099e-05
0.000300477
-1.34649e-05
0.00030313
-1.32118e-05
0.000305729
-1.29504e-05
0.000308275
-1.26808e-05
0.000310766
-1.24031e-05
0.000313199
-1.21174e-05
0.000315573
-1.18236e-05
0.000317886
-1.1522e-05
0.000320138
-1.12126e-05
0.000322326
-1.08955e-05
0.000324449
-1.05709e-05
0.000326506
-1.0239e-05
0.000328494
-9.89984e-06
0.000330413
-9.55372e-06
0.000332261
-9.20081e-06
0.000334037
-8.84132e-06
0.000335739
-8.4755e-06
0.000337367
-8.10359e-06
0.000338918
-7.72584e-06
0.000340393
-7.34255e-06
0.00034179
-6.95398e-06
0.000343108
-6.56045e-06
0.000344345
-6.16226e-06
0.000345502
-5.75973e-06
0.000346577
-5.3532e-06
0.00034757
-4.943e-06
0.000348479
-4.52948e-06
0.000349305
-4.11301e-06
0.000350046
-3.69393e-06
0.000350703
-3.27261e-06
0.000351275
-2.84944e-06
0.000351761
-2.42478e-06
0.000352162
-1.99901e-06
0.000352477
-1.57251e-06
0.000352706
-1.14566e-06
0.000352849
-7.18846e-07
0.000352906
-2.92437e-07
0.000352878
1.33189e-07
0.000352765
5.5766e-07
0.000352567
9.80607e-07
0.000352284
1.40167e-06
0.000351917
1.82049e-06
0.000351466
2.23672e-06
0.000350932
2.65001e-06
0.000350316
3.06004e-06
0.000349618
3.46648e-06
0.000348839
3.86901e-06
0.00034798
4.26734e-06
0.000347042
4.66117e-06
0.000346026
5.05023e-06
0.000344933
5.43423e-06
0.000343764
5.81293e-06
0.00034252
6.18609e-06
0.000341202
6.55348e-06
0.000339811
6.91487e-06
0.00033835
7.27008e-06
0.000336818
7.6189e-06
0.000335218
7.96118e-06
0.00033355
8.29675e-06
0.000331817
8.62546e-06
0.000330019
8.94718e-06
0.000328158
9.2618e-06
0.000326235
9.56921e-06
0.000324253
9.86932e-06
0.000322211
1.01621e-05
0.000320113
1.04474e-05
0.000317959
1.07252e-05
0.000315751
1.09955e-05
0.00031349
1.12582e-05
0.000311178
1.15134e-05
0.000308817
1.17611e-05
0.000306408
1.20011e-05
0.000303952
1.22337e-05
0.000301452
1.24588e-05
0.000298907
1.26764e-05
0.000296321
1.28866e-05
0.000293695
1.30894e-05
0.000291029
1.3285e-05
0.000288326
1.34733e-05
0.000285587
1.36546e-05
0.000282813
1.38288e-05
0.000280005
1.39961e-05
0.000277166
1.41566e-05
0.000274296
1.43104e-05
0.000271397
1.44576e-05
0.000268469
1.45983e-05
0.000265515
1.47326e-05
0.000262536
1.48607e-05
0.000259532