/*--------------------------------*- C++ -*----------------------------------*\
| =========                 |                                                 |
| \\      /  F ield         | OpenFOAM: The Open Source CFD Toolbox           |
|  \\    /   O peration     | Version:  v2012                                 |
|   \\  /    A nd           | Website:  www.openfoam.com                      |
|    \\/     M anipulation  |                                                 |
\*---------------------------------------------------------------------------*/
FoamFile
{
    version     2.0;
    format      ascii;
    class       volVectorField;
    location    "14";
    object      Psi;
}
// * * * * * * * * * * * * * * * * * * * * * * * * * * * * * * * * * * * * * //

dimensions      [0 2 -1 0 0 0 0];


internalField   nonuniform List<vector> 
65536
(
(0 0 8.66598e-06)
(0 0 2.59985e-05)
(0 0 4.33326e-05)
(0 0 6.0669e-05)
(0 0 7.80088e-05)
(0 0 9.53529e-05)
(0 0 0.000112702)
(0 0 0.000130058)
(0 0 0.00014742)
(0 0 0.000164791)
(0 0 0.00018217)
(0 0 0.000199559)
(0 0 0.000216958)
(0 0 0.000234368)
(0 0 0.000251791)
(0 0 0.000269225)
(0 0 0.000286673)
(0 0 0.000304135)
(0 0 0.000321612)
(0 0 0.000339103)
(0 0 0.000356609)
(0 0 0.000374131)
(0 0 0.00039167)
(0 0 0.000409224)
(0 0 0.000426795)
(0 0 0.000444383)
(0 0 0.000461987)
(0 0 0.000479608)
(0 0 0.000497245)
(0 0 0.000514899)
(0 0 0.000532569)
(0 0 0.000550254)
(0 0 0.000567954)
(0 0 0.000585669)
(0 0 0.000603398)
(0 0 0.00062114)
(0 0 0.000638894)
(0 0 0.000656659)
(0 0 0.000674435)
(0 0 0.000692218)
(0 0 0.00071001)
(0 0 0.000727806)
(0 0 0.000745607)
(0 0 0.00076341)
(0 0 0.000781214)
(0 0 0.000799015)
(0 0 0.000816813)
(0 0 0.000834604)
(0 0 0.000852385)
(0 0 0.000870155)
(0 0 0.000887911)
(0 0 0.000905648)
(0 0 0.000923364)
(0 0 0.000941056)
(0 0 0.00095872)
(0 0 0.000976352)
(0 0 0.000993949)
(0 0 0.00101151)
(0 0 0.00102902)
(0 0 0.00104648)
(0 0 0.00106389)
(0 0 0.00108124)
(0 0 0.00109853)
(0 0 0.00111575)
(0 0 0.0011329)
(0 0 0.00114996)
(0 0 0.00116695)
(0 0 0.00118384)
(0 0 0.00120063)
(0 0 0.00121732)
(0 0 0.0012339)
(0 0 0.00125036)
(0 0 0.0012667)
(0 0 0.00128291)
(0 0 0.00129898)
(0 0 0.00131491)
(0 0 0.00133068)
(0 0 0.00134629)
(0 0 0.00136174)
(0 0 0.00137701)
(0 0 0.0013921)
(0 0 0.001407)
(0 0 0.0014217)
(0 0 0.0014362)
(0 0 0.00145048)
(0 0 0.00146454)
(0 0 0.00147836)
(0 0 0.00149195)
(0 0 0.00150529)
(0 0 0.00151837)
(0 0 0.00153119)
(0 0 0.00154374)
(0 0 0.00155601)
(0 0 0.00156799)
(0 0 0.00157967)
(0 0 0.00159105)
(0 0 0.00160212)
(0 0 0.00161287)
(0 0 0.0016233)
(0 0 0.00163339)
(0 0 0.00164314)
(0 0 0.00165254)
(0 0 0.00166159)
(0 0 0.00167028)
(0 0 0.0016786)
(0 0 0.00168655)
(0 0 0.00169412)
(0 0 0.0017013)
(0 0 0.0017081)
(0 0 0.0017145)
(0 0 0.0017205)
(0 0 0.00172611)
(0 0 0.0017313)
(0 0 0.00173608)
(0 0 0.00174045)
(0 0 0.00174441)
(0 0 0.00174795)
(0 0 0.00175106)
(0 0 0.00175375)
(0 0 0.00175602)
(0 0 0.00175787)
(0 0 0.00175928)
(0 0 0.00176028)
(0 0 0.00176084)
(0 0 0.00176098)
(0 0 0.0017607)
(0 0 0.00176)
(0 0 0.00175887)
(0 0 0.00175732)
(0 0 0.00175536)
(0 0 0.00175298)
(0 0 0.00175019)
(0 0 0.00174699)
(0 0 0.00174339)
(0 0 0.00173939)
(0 0 0.00173499)
(0 0 0.0017302)
(0 0 0.00172502)
(0 0 0.00171946)
(0 0 0.00171352)
(0 0 0.00170722)
(0 0 0.00170054)
(0 0 0.00169351)
(0 0 0.00168613)
(0 0 0.0016784)
(0 0 0.00167033)
(0 0 0.00166192)
(0 0 0.00165319)
(0 0 0.00164414)
(0 0 0.00163478)
(0 0 0.00162512)
(0 0 0.00161515)
(0 0 0.0016049)
(0 0 0.00159436)
(0 0 0.00158354)
(0 0 0.00157246)
(0 0 0.00156112)
(0 0 0.00154952)
(0 0 0.00153768)
(0 0 0.0015256)
(0 0 0.0015133)
(0 0 0.00150076)
(0 0 0.00148802)
(0 0 0.00147506)
(0 0 0.0014619)
(0 0 0.00144855)
(0 0 0.00143502)
(0 0 0.0014213)
(0 0 0.00140741)
(0 0 0.00139336)
(0 0 0.00137914)
(0 0 0.00136478)
(0 0 0.00135027)
(0 0 0.00133562)
(0 0 0.00132083)
(0 0 0.00130592)
(0 0 0.0012909)
(0 0 0.00127575)
(0 0 0.0012605)
(0 0 0.00124514)
(0 0 0.00122969)
(0 0 0.00121414)
(0 0 0.00119851)
(0 0 0.00118279)
(0 0 0.001167)
(0 0 0.00115113)
(0 0 0.0011352)
(0 0 0.0011192)
(0 0 0.00110315)
(0 0 0.00108704)
(0 0 0.00107087)
(0 0 0.00105467)
(0 0 0.00103842)
(0 0 0.00102212)
(0 0 0.0010058)
(0 0 0.000989437)
(0 0 0.000973047)
(0 0 0.000956631)
(0 0 0.000940191)
(0 0 0.000923731)
(0 0 0.000907252)
(0 0 0.000890757)
(0 0 0.000874249)
(0 0 0.00085773)
(0 0 0.000841202)
(0 0 0.000824667)
(0 0 0.000808128)
(0 0 0.000791585)
(0 0 0.000775041)
(0 0 0.000758497)
(0 0 0.000741955)
(0 0 0.000725415)
(0 0 0.000708881)
(0 0 0.000692351)
(0 0 0.000675829)
(0 0 0.000659314)
(0 0 0.000642807)
(0 0 0.00062631)
(0 0 0.000609824)
(0 0 0.000593348)
(0 0 0.000576883)
(0 0 0.00056043)
(0 0 0.00054399)
(0 0 0.000527563)
(0 0 0.000511149)
(0 0 0.000494748)
(0 0 0.00047836)
(0 0 0.000461986)
(0 0 0.000445626)
(0 0 0.000429279)
(0 0 0.000412946)
(0 0 0.000396627)
(0 0 0.000380321)
(0 0 0.000364028)
(0 0 0.000347748)
(0 0 0.000331481)
(0 0 0.000315226)
(0 0 0.000298983)
(0 0 0.000282751)
(0 0 0.000266531)
(0 0 0.000250321)
(0 0 0.000234122)
(0 0 0.000217932)
(0 0 0.000201751)
(0 0 0.000185579)
(0 0 0.000169414)
(0 0 0.000153257)
(0 0 0.000137107)
(0 0 0.000120962)
(0 0 0.000104823)
(0 0 8.86884e-05)
(0 0 7.25578e-05)
(0 0 5.64305e-05)
(0 0 4.03057e-05)
(0 0 2.41827e-05)
(0 0 8.06078e-06)
(0 0 2.59977e-05)
(0 0 7.79946e-05)
(0 0 0.000129996)
(0 0 0.000182004)
(0 0 0.000234023)
(0 0 0.000286054)
(0 0 0.000338102)
(0 0 0.000390167)
(0 0 0.000442254)
(0 0 0.000494365)
(0 0 0.000546502)
(0 0 0.000598667)
(0 0 0.000650864)
(0 0 0.000703095)
(0 0 0.000755361)
(0 0 0.000807665)
(0 0 0.000860009)
(0 0 0.000912394)
(0 0 0.000964823)
(0 0 0.0010173)
(0 0 0.00106981)
(0 0 0.00112238)
(0 0 0.001175)
(0 0 0.00122766)
(0 0 0.00128037)
(0 0 0.00133313)
(0 0 0.00138595)
(0 0 0.00143881)
(0 0 0.00149172)
(0 0 0.00154468)
(0 0 0.00159769)
(0 0 0.00165075)
(0 0 0.00170385)
(0 0 0.001757)
(0 0 0.00181019)
(0 0 0.00186341)
(0 0 0.00191668)
(0 0 0.00196997)
(0 0 0.0020233)
(0 0 0.00207665)
(0 0 0.00213003)
(0 0 0.00218342)
(0 0 0.00223682)
(0 0 0.00229024)
(0 0 0.00234365)
(0 0 0.00239706)
(0 0 0.00245045)
(0 0 0.00250383)
(0 0 0.00255717)
(0 0 0.00261049)
(0 0 0.00266375)
(0 0 0.00271697)
(0 0 0.00277012)
(0 0 0.0028232)
(0 0 0.0028762)
(0 0 0.0029291)
(0 0 0.00298189)
(0 0 0.00303456)
(0 0 0.00308711)
(0 0 0.0031395)
(0 0 0.00319174)
(0 0 0.0032438)
(0 0 0.00329567)
(0 0 0.00334733)
(0 0 0.00339878)
(0 0 0.00344998)
(0 0 0.00350094)
(0 0 0.00355161)
(0 0 0.003602)
(0 0 0.00365207)
(0 0 0.00370182)
(0 0 0.00375121)
(0 0 0.00380023)
(0 0 0.00384887)
(0 0 0.00389709)
(0 0 0.00394487)
(0 0 0.0039922)
(0 0 0.00403906)
(0 0 0.00408541)
(0 0 0.00413123)
(0 0 0.00417651)
(0 0 0.00422121)
(0 0 0.00426532)
(0 0 0.00430882)
(0 0 0.00435166)
(0 0 0.00439384)
(0 0 0.00443533)
(0 0 0.00447609)
(0 0 0.00451612)
(0 0 0.00455538)
(0 0 0.00459385)
(0 0 0.0046315)
(0 0 0.00466831)
(0 0 0.00470426)
(0 0 0.00473932)
(0 0 0.00477347)
(0 0 0.00480669)
(0 0 0.00483895)
(0 0 0.00487023)
(0 0 0.00490051)
(0 0 0.00492976)
(0 0 0.00495798)
(0 0 0.00498513)
(0 0 0.0050112)
(0 0 0.00503617)
(0 0 0.00506002)
(0 0 0.00508273)
(0 0 0.00510429)
(0 0 0.00512469)
(0 0 0.0051439)
(0 0 0.00516192)
(0 0 0.00517872)
(0 0 0.00519431)
(0 0 0.00520866)
(0 0 0.00522178)
(0 0 0.00523365)
(0 0 0.00524426)
(0 0 0.0052536)
(0 0 0.00526168)
(0 0 0.00526849)
(0 0 0.00527402)
(0 0 0.00527827)
(0 0 0.00528125)
(0 0 0.00528295)
(0 0 0.00528337)
(0 0 0.00528252)
(0 0 0.00528041)
(0 0 0.00527702)
(0 0 0.00527238)
(0 0 0.00526648)
(0 0 0.00525935)
(0 0 0.00525097)
(0 0 0.00524138)
(0 0 0.00523057)
(0 0 0.00521855)
(0 0 0.00520535)
(0 0 0.00519097)
(0 0 0.00517543)
(0 0 0.00515875)
(0 0 0.00514094)
(0 0 0.00512201)
(0 0 0.00510199)
(0 0 0.00508089)
(0 0 0.00505873)
(0 0 0.00503553)
(0 0 0.00501131)
(0 0 0.00498609)
(0 0 0.00495989)
(0 0 0.00493274)
(0 0 0.00490465)
(0 0 0.00487564)
(0 0 0.00484574)
(0 0 0.00481496)
(0 0 0.00478334)
(0 0 0.00475089)
(0 0 0.00471764)
(0 0 0.0046836)
(0 0 0.00464881)
(0 0 0.00461328)
(0 0 0.00457704)
(0 0 0.0045401)
(0 0 0.0045025)
(0 0 0.00446425)
(0 0 0.00442537)
(0 0 0.00438589)
(0 0 0.00434584)
(0 0 0.00430522)
(0 0 0.00426406)
(0 0 0.00422239)
(0 0 0.00418022)
(0 0 0.00413757)
(0 0 0.00409447)
(0 0 0.00405093)
(0 0 0.00400698)
(0 0 0.00396262)
(0 0 0.00391789)
(0 0 0.00387279)
(0 0 0.00382735)
(0 0 0.00378159)
(0 0 0.00373551)
(0 0 0.00368915)
(0 0 0.0036425)
(0 0 0.00359559)
(0 0 0.00354844)
(0 0 0.00350106)
(0 0 0.00345346)
(0 0 0.00340565)
(0 0 0.00335766)
(0 0 0.00330949)
(0 0 0.00326115)
(0 0 0.00321266)
(0 0 0.00316404)
(0 0 0.00311528)
(0 0 0.0030664)
(0 0 0.00301742)
(0 0 0.00296833)
(0 0 0.00291916)
(0 0 0.00286991)
(0 0 0.00282059)
(0 0 0.0027712)
(0 0 0.00272177)
(0 0 0.00267228)
(0 0 0.00262275)
(0 0 0.00257319)
(0 0 0.00252361)
(0 0 0.002474)
(0 0 0.00242438)
(0 0 0.00237475)
(0 0 0.00232512)
(0 0 0.00227548)
(0 0 0.00222586)
(0 0 0.00217624)
(0 0 0.00212663)
(0 0 0.00207704)
(0 0 0.00202747)
(0 0 0.00197793)
(0 0 0.00192841)
(0 0 0.00187892)
(0 0 0.00182946)
(0 0 0.00178003)
(0 0 0.00173063)
(0 0 0.00168128)
(0 0 0.00163195)
(0 0 0.00158267)
(0 0 0.00153343)
(0 0 0.00148423)
(0 0 0.00143506)
(0 0 0.00138594)
(0 0 0.00133686)
(0 0 0.00128782)
(0 0 0.00123882)
(0 0 0.00118986)
(0 0 0.00114095)
(0 0 0.00109207)
(0 0 0.00104323)
(0 0 0.000994427)
(0 0 0.000945663)
(0 0 0.000896934)
(0 0 0.00084824)
(0 0 0.00079958)
(0 0 0.000750951)
(0 0 0.000702354)
(0 0 0.000653784)
(0 0 0.000605243)
(0 0 0.000556726)
(0 0 0.000508234)
(0 0 0.000459763)
(0 0 0.000411313)
(0 0 0.00036288)
(0 0 0.000314463)
(0 0 0.000266061)
(0 0 0.00021767)
(0 0 0.000169289)
(0 0 0.000120915)
(0 0 7.2547e-05)
(0 0 2.41819e-05)
(0 0 4.33279e-05)
(0 0 0.000129986)
(0 0 0.000216652)
(0 0 0.000303329)
(0 0 0.000390024)
(0 0 0.00047674)
(0 0 0.000563482)
(0 0 0.000650256)
(0 0 0.000737064)
(0 0 0.000823912)
(0 0 0.000910804)
(0 0 0.000997745)
(0 0 0.00108474)
(0 0 0.00117179)
(0 0 0.00125889)
(0 0 0.00134607)
(0 0 0.0014333)
(0 0 0.00152061)
(0 0 0.00160799)
(0 0 0.00169544)
(0 0 0.00178297)
(0 0 0.00187058)
(0 0 0.00195827)
(0 0 0.00204604)
(0 0 0.0021339)
(0 0 0.00222184)
(0 0 0.00230986)
(0 0 0.00239796)
(0 0 0.00248615)
(0 0 0.00257442)
(0 0 0.00266277)
(0 0 0.0027512)
(0 0 0.00283971)
(0 0 0.00292829)
(0 0 0.00301693)
(0 0 0.00310565)
(0 0 0.00319442)
(0 0 0.00328326)
(0 0 0.00337214)
(0 0 0.00346106)
(0 0 0.00355003)
(0 0 0.00363902)
(0 0 0.00372803)
(0 0 0.00381706)
(0 0 0.00390609)
(0 0 0.00399511)
(0 0 0.00408411)
(0 0 0.00417307)
(0 0 0.004262)
(0 0 0.00435086)
(0 0 0.00443965)
(0 0 0.00452836)
(0 0 0.00461695)
(0 0 0.00470543)
(0 0 0.00479377)
(0 0 0.00488195)
(0 0 0.00496995)
(0 0 0.00505776)
(0 0 0.00514534)
(0 0 0.00523268)
(0 0 0.00531976)
(0 0 0.00540654)
(0 0 0.00549301)
(0 0 0.00557914)
(0 0 0.0056649)
(0 0 0.00575026)
(0 0 0.0058352)
(0 0 0.00591968)
(0 0 0.00600368)
(0 0 0.00608715)
(0 0 0.00617008)
(0 0 0.00625243)
(0 0 0.00633416)
(0 0 0.00641524)
(0 0 0.00649563)
(0 0 0.0065753)
(0 0 0.00665421)
(0 0 0.00673232)
(0 0 0.00680959)
(0 0 0.00688599)
(0 0 0.00696148)
(0 0 0.00703602)
(0 0 0.00710956)
(0 0 0.00718208)
(0 0 0.00725351)
(0 0 0.00732384)
(0 0 0.00739301)
(0 0 0.00746098)
(0 0 0.00752772)
(0 0 0.00759318)
(0 0 0.00765732)
(0 0 0.0077201)
(0 0 0.00778148)
(0 0 0.00784142)
(0 0 0.00789988)
(0 0 0.00795682)
(0 0 0.00801221)
(0 0 0.008066)
(0 0 0.00811816)
(0 0 0.00816865)
(0 0 0.00821743)
(0 0 0.00826448)
(0 0 0.00830975)
(0 0 0.00835322)
(0 0 0.00839486)
(0 0 0.00843463)
(0 0 0.0084725)
(0 0 0.00850846)
(0 0 0.00854246)
(0 0 0.0085745)
(0 0 0.00860454)
(0 0 0.00863256)
(0 0 0.00865855)
(0 0 0.00868249)
(0 0 0.00870435)
(0 0 0.00872414)
(0 0 0.00874183)
(0 0 0.00875741)
(0 0 0.00877088)
(0 0 0.00878223)
(0 0 0.00879145)
(0 0 0.00879854)
(0 0 0.0088035)
(0 0 0.00880634)
(0 0 0.00880704)
(0 0 0.00880562)
(0 0 0.00880208)
(0 0 0.00879643)
(0 0 0.00878869)
(0 0 0.00877886)
(0 0 0.00876695)
(0 0 0.00875298)
(0 0 0.00873698)
(0 0 0.00871894)
(0 0 0.00869891)
(0 0 0.00867689)
(0 0 0.00865291)
(0 0 0.008627)
(0 0 0.00859917)
(0 0 0.00856946)
(0 0 0.0085379)
(0 0 0.00850451)
(0 0 0.00846932)
(0 0 0.00843237)
(0 0 0.00839368)
(0 0 0.00835329)
(0 0 0.00831124)
(0 0 0.00826755)
(0 0 0.00822227)
(0 0 0.00817543)
(0 0 0.00812705)
(0 0 0.00807719)
(0 0 0.00802588)
(0 0 0.00797315)
(0 0 0.00791905)
(0 0 0.0078636)
(0 0 0.00780685)
(0 0 0.00774884)
(0 0 0.00768959)
(0 0 0.00762916)
(0 0 0.00756758)
(0 0 0.00750488)
(0 0 0.00744111)
(0 0 0.00737629)
(0 0 0.00731047)
(0 0 0.00724368)
(0 0 0.00717596)
(0 0 0.00710734)
(0 0 0.00703786)
(0 0 0.00696756)
(0 0 0.00689646)
(0 0 0.0068246)
(0 0 0.00675202)
(0 0 0.00667873)
(0 0 0.00660479)
(0 0 0.00653021)
(0 0 0.00645504)
(0 0 0.00637929)
(0 0 0.00630299)
(0 0 0.00622618)
(0 0 0.00614888)
(0 0 0.00607112)
(0 0 0.00599293)
(0 0 0.00591433)
(0 0 0.00583534)
(0 0 0.00575599)
(0 0 0.0056763)
(0 0 0.00559629)
(0 0 0.00551599)
(0 0 0.00543542)
(0 0 0.0053546)
(0 0 0.00527354)
(0 0 0.00519226)
(0 0 0.00511079)
(0 0 0.00502914)
(0 0 0.00494732)
(0 0 0.00486536)
(0 0 0.00478326)
(0 0 0.00470105)
(0 0 0.00461873)
(0 0 0.00453633)
(0 0 0.00445384)
(0 0 0.00437129)
(0 0 0.00428868)
(0 0 0.00420603)
(0 0 0.00412335)
(0 0 0.00404064)
(0 0 0.00395792)
(0 0 0.00387519)
(0 0 0.00379247)
(0 0 0.00370975)
(0 0 0.00362705)
(0 0 0.00354437)
(0 0 0.00346171)
(0 0 0.0033791)
(0 0 0.00329652)
(0 0 0.00321398)
(0 0 0.00313149)
(0 0 0.00304906)
(0 0 0.00296667)
(0 0 0.00288435)
(0 0 0.00280208)
(0 0 0.00271988)
(0 0 0.00263774)
(0 0 0.00255567)
(0 0 0.00247366)
(0 0 0.00239173)
(0 0 0.00230986)
(0 0 0.00222805)
(0 0 0.00214632)
(0 0 0.00206466)
(0 0 0.00198306)
(0 0 0.00190153)
(0 0 0.00182007)
(0 0 0.00173867)
(0 0 0.00165734)
(0 0 0.00157606)
(0 0 0.00149485)
(0 0 0.0014137)
(0 0 0.0013326)
(0 0 0.00125155)
(0 0 0.00117056)
(0 0 0.00108961)
(0 0 0.00100871)
(0 0 0.000927851)
(0 0 0.000847032)
(0 0 0.00076625)
(0 0 0.000685501)
(0 0 0.000604782)
(0 0 0.00052409)
(0 0 0.000443421)
(0 0 0.000362772)
(0 0 0.000282139)
(0 0 0.000201519)
(0 0 0.000120908)
(0 0 4.0302e-05)
(0 0 6.06557e-05)
(0 0 0.000181971)
(0 0 0.000303296)
(0 0 0.000424638)
(0 0 0.000546003)
(0 0 0.000667399)
(0 0 0.000788832)
(0 0 0.000910308)
(0 0 0.00103183)
(0 0 0.00115342)
(0 0 0.00127506)
(0 0 0.00139677)
(0 0 0.00151855)
(0 0 0.00164042)
(0 0 0.00176236)
(0 0 0.0018844)
(0 0 0.00200653)
(0 0 0.00212875)
(0 0 0.00225108)
(0 0 0.00237351)
(0 0 0.00249605)
(0 0 0.0026187)
(0 0 0.00274147)
(0 0 0.00286435)
(0 0 0.00298734)
(0 0 0.00311045)
(0 0 0.00323368)
(0 0 0.00335703)
(0 0 0.0034805)
(0 0 0.00360408)
(0 0 0.00372777)
(0 0 0.00385158)
(0 0 0.00397549)
(0 0 0.0040995)
(0 0 0.00422362)
(0 0 0.00434782)
(0 0 0.00447212)
(0 0 0.00459649)
(0 0 0.00472093)
(0 0 0.00484544)
(0 0 0.00497)
(0 0 0.0050946)
(0 0 0.00521923)
(0 0 0.00534388)
(0 0 0.00546853)
(0 0 0.00559318)
(0 0 0.00571779)
(0 0 0.00584236)
(0 0 0.00596688)
(0 0 0.00609131)
(0 0 0.00621564)
(0 0 0.00633984)
(0 0 0.00646391)
(0 0 0.0065878)
(0 0 0.0067115)
(0 0 0.00683498)
(0 0 0.00695821)
(0 0 0.00708117)
(0 0 0.00720381)
(0 0 0.00732612)
(0 0 0.00744806)
(0 0 0.0075696)
(0 0 0.00769069)
(0 0 0.00781131)
(0 0 0.00793141)
(0 0 0.00805096)
(0 0 0.00816991)
(0 0 0.00828823)
(0 0 0.00840587)
(0 0 0.00852278)
(0 0 0.00863893)
(0 0 0.00875426)
(0 0 0.00886873)
(0 0 0.00898229)
(0 0 0.00909489)
(0 0 0.00920648)
(0 0 0.009317)
(0 0 0.00942641)
(0 0 0.00953465)
(0 0 0.00964167)
(0 0 0.00974741)
(0 0 0.00985182)
(0 0 0.00995484)
(0 0 0.0100564)
(0 0 0.0101565)
(0 0 0.010255)
(0 0 0.0103519)
(0 0 0.0104471)
(0 0 0.0105406)
(0 0 0.0106323)
(0 0 0.0107221)
(0 0 0.0108101)
(0 0 0.0108961)
(0 0 0.0109801)
(0 0 0.011062)
(0 0 0.0111417)
(0 0 0.0112193)
(0 0 0.0112947)
(0 0 0.0113678)
(0 0 0.0114385)
(0 0 0.0115068)
(0 0 0.0115728)
(0 0 0.0116362)
(0 0 0.0116971)
(0 0 0.0117554)
(0 0 0.0118111)
(0 0 0.0118642)
(0 0 0.0119146)
(0 0 0.0119622)
(0 0 0.0120071)
(0 0 0.0120492)
(0 0 0.0120884)
(0 0 0.0121248)
(0 0 0.0121584)
(0 0 0.012189)
(0 0 0.0122167)
(0 0 0.0122415)
(0 0 0.0122633)
(0 0 0.0122822)
(0 0 0.0122981)
(0 0 0.012311)
(0 0 0.0123209)
(0 0 0.0123279)
(0 0 0.0123318)
(0 0 0.0123328)
(0 0 0.0123308)
(0 0 0.0123259)
(0 0 0.0123179)
(0 0 0.0123071)
(0 0 0.0122933)
(0 0 0.0122766)
(0 0 0.012257)
(0 0 0.0122346)
(0 0 0.0122093)
(0 0 0.0121812)
(0 0 0.0121504)
(0 0 0.0121168)
(0 0 0.0120805)
(0 0 0.0120415)
(0 0 0.0119998)
(0 0 0.0119556)
(0 0 0.0119088)
(0 0 0.0118595)
(0 0 0.0118077)
(0 0 0.0117535)
(0 0 0.0116969)
(0 0 0.011638)
(0 0 0.0115768)
(0 0 0.0115134)
(0 0 0.0114477)
(0 0 0.01138)
(0 0 0.0113101)
(0 0 0.0112382)
(0 0 0.0111643)
(0 0 0.0110885)
(0 0 0.0110109)
(0 0 0.0109314)
(0 0 0.0108501)
(0 0 0.0107671)
(0 0 0.0106824)
(0 0 0.0105962)
(0 0 0.0105083)
(0 0 0.010419)
(0 0 0.0103282)
(0 0 0.010236)
(0 0 0.0101425)
(0 0 0.0100476)
(0 0 0.00995149)
(0 0 0.00985417)
(0 0 0.00975569)
(0 0 0.00965611)
(0 0 0.00955546)
(0 0 0.0094538)
(0 0 0.00935116)
(0 0 0.00924759)
(0 0 0.00914314)
(0 0 0.00903785)
(0 0 0.00893176)
(0 0 0.00882491)
(0 0 0.00871734)
(0 0 0.00860908)
(0 0 0.00850018)
(0 0 0.00839068)
(0 0 0.0082806)
(0 0 0.00816998)
(0 0 0.00805886)
(0 0 0.00794726)
(0 0 0.00783522)
(0 0 0.00772278)
(0 0 0.00760995)
(0 0 0.00749676)
(0 0 0.00738325)
(0 0 0.00726944)
(0 0 0.00715536)
(0 0 0.00704102)
(0 0 0.00692646)
(0 0 0.00681169)
(0 0 0.00669673)
(0 0 0.00658162)
(0 0 0.00646635)
(0 0 0.00635097)
(0 0 0.00623547)
(0 0 0.00611988)
(0 0 0.00600422)
(0 0 0.0058885)
(0 0 0.00577273)
(0 0 0.00565692)
(0 0 0.0055411)
(0 0 0.00542527)
(0 0 0.00530944)
(0 0 0.00519363)
(0 0 0.00507783)
(0 0 0.00496207)
(0 0 0.00484635)
(0 0 0.00473068)
(0 0 0.00461506)
(0 0 0.00449951)
(0 0 0.00438402)
(0 0 0.0042686)
(0 0 0.00415326)
(0 0 0.004038)
(0 0 0.00392283)
(0 0 0.00380774)
(0 0 0.00369275)
(0 0 0.00357784)
(0 0 0.00346303)
(0 0 0.00334832)
(0 0 0.0032337)
(0 0 0.00311918)
(0 0 0.00300476)
(0 0 0.00289043)
(0 0 0.00277619)
(0 0 0.00266205)
(0 0 0.00254801)
(0 0 0.00243405)
(0 0 0.00232019)
(0 0 0.00220641)
(0 0 0.00209271)
(0 0 0.0019791)
(0 0 0.00186556)
(0 0 0.0017521)
(0 0 0.00163871)
(0 0 0.00152539)
(0 0 0.00141213)
(0 0 0.00129894)
(0 0 0.00118579)
(0 0 0.0010727)
(0 0 0.000959659)
(0 0 0.000846658)
(0 0 0.000733694)
(0 0 0.000620762)
(0 0 0.000507858)
(0 0 0.000394977)
(0 0 0.000282114)
(0 0 0.000169263)
(0 0 5.64203e-05)
(0 0 7.798e-05)
(0 0 0.000233945)
(0 0 0.000389922)
(0 0 0.000545922)
(0 0 0.000701952)
(0 0 0.000858021)
(0 0 0.00101414)
(0 0 0.00117031)
(0 0 0.00132655)
(0 0 0.00148286)
(0 0 0.00163924)
(0 0 0.00179572)
(0 0 0.00195229)
(0 0 0.00210896)
(0 0 0.00226574)
(0 0 0.00242264)
(0 0 0.00257965)
(0 0 0.00273679)
(0 0 0.00289406)
(0 0 0.00305147)
(0 0 0.00320902)
(0 0 0.00336671)
(0 0 0.00352454)
(0 0 0.00368253)
(0 0 0.00384066)
(0 0 0.00399895)
(0 0 0.00415739)
(0 0 0.00431598)
(0 0 0.00447473)
(0 0 0.00463362)
(0 0 0.00479266)
(0 0 0.00495184)
(0 0 0.00511116)
(0 0 0.00527062)
(0 0 0.0054302)
(0 0 0.00558991)
(0 0 0.00574973)
(0 0 0.00590965)
(0 0 0.00606966)
(0 0 0.00622976)
(0 0 0.00638992)
(0 0 0.00655015)
(0 0 0.00671041)
(0 0 0.0068707)
(0 0 0.00703099)
(0 0 0.00719127)
(0 0 0.00735152)
(0 0 0.00751172)
(0 0 0.00767183)
(0 0 0.00783185)
(0 0 0.00799174)
(0 0 0.00815147)
(0 0 0.00831102)
(0 0 0.00847036)
(0 0 0.00862945)
(0 0 0.00878825)
(0 0 0.00894674)
(0 0 0.00910488)
(0 0 0.00926263)
(0 0 0.00941994)
(0 0 0.00957678)
(0 0 0.00973309)
(0 0 0.00988885)
(0 0 0.010044)
(0 0 0.0101985)
(0 0 0.0103523)
(0 0 0.0105053)
(0 0 0.0106575)
(0 0 0.0108088)
(0 0 0.0109592)
(0 0 0.0111086)
(0 0 0.011257)
(0 0 0.0114042)
(0 0 0.0115503)
(0 0 0.0116952)
(0 0 0.0118387)
(0 0 0.0119809)
(0 0 0.0121217)
(0 0 0.0122609)
(0 0 0.0123986)
(0 0 0.0125347)
(0 0 0.012669)
(0 0 0.0128016)
(0 0 0.0129322)
(0 0 0.013061)
(0 0 0.0131878)
(0 0 0.0133124)
(0 0 0.013435)
(0 0 0.0135553)
(0 0 0.0136733)
(0 0 0.0137889)
(0 0 0.0139021)
(0 0 0.0140127)
(0 0 0.0141208)
(0 0 0.0142262)
(0 0 0.0143288)
(0 0 0.0144287)
(0 0 0.0145257)
(0 0 0.0146197)
(0 0 0.0147107)
(0 0 0.0147987)
(0 0 0.0148835)
(0 0 0.0149651)
(0 0 0.0150435)
(0 0 0.0151186)
(0 0 0.0151903)
(0 0 0.0152586)
(0 0 0.0153234)
(0 0 0.0153847)
(0 0 0.0154425)
(0 0 0.0154966)
(0 0 0.0155472)
(0 0 0.015594)
(0 0 0.0156372)
(0 0 0.0156766)
(0 0 0.0157123)
(0 0 0.0157441)
(0 0 0.0157722)
(0 0 0.0157965)
(0 0 0.015817)
(0 0 0.0158336)
(0 0 0.0158463)
(0 0 0.0158553)
(0 0 0.0158603)
(0 0 0.0158616)
(0 0 0.015859)
(0 0 0.0158526)
(0 0 0.0158424)
(0 0 0.0158284)
(0 0 0.0158107)
(0 0 0.0157892)
(0 0 0.015764)
(0 0 0.0157351)
(0 0 0.0157025)
(0 0 0.0156664)
(0 0 0.0156266)
(0 0 0.0155834)
(0 0 0.0155366)
(0 0 0.0154864)
(0 0 0.0154328)
(0 0 0.0153759)
(0 0 0.0153157)
(0 0 0.0152522)
(0 0 0.0151855)
(0 0 0.0151158)
(0 0 0.0150429)
(0 0 0.0149671)
(0 0 0.0148883)
(0 0 0.0148067)
(0 0 0.0147222)
(0 0 0.014635)
(0 0 0.0145451)
(0 0 0.0144525)
(0 0 0.0143575)
(0 0 0.0142599)
(0 0 0.01416)
(0 0 0.0140576)
(0 0 0.0139531)
(0 0 0.0138463)
(0 0 0.0137373)
(0 0 0.0136263)
(0 0 0.0135133)
(0 0 0.0133984)
(0 0 0.0132815)
(0 0 0.0131629)
(0 0 0.0130425)
(0 0 0.0129205)
(0 0 0.0127968)
(0 0 0.0126716)
(0 0 0.0125449)
(0 0 0.0124168)
(0 0 0.0122873)
(0 0 0.0121566)
(0 0 0.0120245)
(0 0 0.0118913)
(0 0 0.0117569)
(0 0 0.0116215)
(0 0 0.011485)
(0 0 0.0113476)
(0 0 0.0112092)
(0 0 0.0110699)
(0 0 0.0109299)
(0 0 0.010789)
(0 0 0.0106474)
(0 0 0.0105051)
(0 0 0.0103622)
(0 0 0.0102187)
(0 0 0.0100746)
(0 0 0.00992994)
(0 0 0.00978483)
(0 0 0.00963926)
(0 0 0.00949327)
(0 0 0.0093469)
(0 0 0.00920018)
(0 0 0.00905313)
(0 0 0.0089058)
(0 0 0.0087582)
(0 0 0.00861037)
(0 0 0.00846233)
(0 0 0.0083141)
(0 0 0.00816572)
(0 0 0.00801719)
(0 0 0.00786855)
(0 0 0.00771982)
(0 0 0.00757101)
(0 0 0.00742214)
(0 0 0.00727323)
(0 0 0.00712429)
(0 0 0.00697534)
(0 0 0.0068264)
(0 0 0.00667748)
(0 0 0.00652859)
(0 0 0.00637974)
(0 0 0.00623095)
(0 0 0.00608221)
(0 0 0.00593355)
(0 0 0.00578497)
(0 0 0.00563647)
(0 0 0.00548807)
(0 0 0.00533977)
(0 0 0.00519158)
(0 0 0.00504349)
(0 0 0.00489552)
(0 0 0.00474766)
(0 0 0.00459993)
(0 0 0.00445231)
(0 0 0.00430482)
(0 0 0.00415745)
(0 0 0.00401021)
(0 0 0.00386309)
(0 0 0.0037161)
(0 0 0.00356923)
(0 0 0.00342248)
(0 0 0.00327585)
(0 0 0.00312934)
(0 0 0.00298295)
(0 0 0.00283666)
(0 0 0.00269049)
(0 0 0.00254442)
(0 0 0.00239845)
(0 0 0.00225258)
(0 0 0.0021068)
(0 0 0.00196111)
(0 0 0.0018155)
(0 0 0.00166997)
(0 0 0.0015245)
(0 0 0.00137911)
(0 0 0.00123378)
(0 0 0.0010885)
(0 0 0.000943265)
(0 0 0.000798075)
(0 0 0.000652922)
(0 0 0.000507798)
(0 0 0.000362696)
(0 0 0.000217611)
(0 0 7.2536e-05)
(0 0 9.53e-05)
(0 0 0.000285905)
(0 0 0.000476527)
(0 0 0.000667176)
(0 0 0.000857861)
(0 0 0.0010486)
(0 0 0.00123939)
(0 0 0.00143025)
(0 0 0.00162119)
(0 0 0.00181222)
(0 0 0.00200334)
(0 0 0.00219458)
(0 0 0.00238593)
(0 0 0.0025774)
(0 0 0.00276901)
(0 0 0.00296076)
(0 0 0.00315265)
(0 0 0.0033447)
(0 0 0.00353691)
(0 0 0.00372929)
(0 0 0.00392184)
(0 0 0.00411457)
(0 0 0.00430747)
(0 0 0.00450056)
(0 0 0.00469384)
(0 0 0.0048873)
(0 0 0.00508095)
(0 0 0.00527478)
(0 0 0.0054688)
(0 0 0.00566301)
(0 0 0.0058574)
(0 0 0.00605196)
(0 0 0.0062467)
(0 0 0.00644161)
(0 0 0.00663667)
(0 0 0.00683188)
(0 0 0.00702723)
(0 0 0.00722271)
(0 0 0.00741831)
(0 0 0.00761401)
(0 0 0.00780979)
(0 0 0.00800565)
(0 0 0.00820156)
(0 0 0.0083975)
(0 0 0.00859346)
(0 0 0.0087894)
(0 0 0.0089853)
(0 0 0.00918114)
(0 0 0.00937689)
(0 0 0.00957252)
(0 0 0.009768)
(0 0 0.00996329)
(0 0 0.0101584)
(0 0 0.0103532)
(0 0 0.0105477)
(0 0 0.0107418)
(0 0 0.0109356)
(0 0 0.011129)
(0 0 0.0113219)
(0 0 0.0115142)
(0 0 0.011706)
(0 0 0.0118972)
(0 0 0.0120876)
(0 0 0.0122773)
(0 0 0.0124663)
(0 0 0.0126543)
(0 0 0.0128414)
(0 0 0.0130276)
(0 0 0.0132126)
(0 0 0.0133966)
(0 0 0.0135793)
(0 0 0.0137608)
(0 0 0.0139409)
(0 0 0.0141196)
(0 0 0.0142967)
(0 0 0.0144723)
(0 0 0.0146463)
(0 0 0.0148184)
(0 0 0.0149888)
(0 0 0.0151572)
(0 0 0.0153236)
(0 0 0.015488)
(0 0 0.0156501)
(0 0 0.01581)
(0 0 0.0159675)
(0 0 0.0161226)
(0 0 0.0162751)
(0 0 0.016425)
(0 0 0.0165722)
(0 0 0.0167166)
(0 0 0.0168581)
(0 0 0.0169965)
(0 0 0.0171319)
(0 0 0.0172641)
(0 0 0.0173931)
(0 0 0.0175187)
(0 0 0.0176409)
(0 0 0.0177596)
(0 0 0.0178746)
(0 0 0.017986)
(0 0 0.0180937)
(0 0 0.0181975)
(0 0 0.0182973)
(0 0 0.0183933)
(0 0 0.0184851)
(0 0 0.0185729)
(0 0 0.0186564)
(0 0 0.0187357)
(0 0 0.0188108)
(0 0 0.0188815)
(0 0 0.0189477)
(0 0 0.0190096)
(0 0 0.0190669)
(0 0 0.0191197)
(0 0 0.0191679)
(0 0 0.0192116)
(0 0 0.0192506)
(0 0 0.0192849)
(0 0 0.0193146)
(0 0 0.0193396)
(0 0 0.01936)
(0 0 0.0193756)
(0 0 0.0193865)
(0 0 0.0193927)
(0 0 0.0193942)
(0 0 0.019391)
(0 0 0.0193832)
(0 0 0.0193706)
(0 0 0.0193535)
(0 0 0.0193318)
(0 0 0.0193054)
(0 0 0.0192746)
(0 0 0.0192392)
(0 0 0.0191993)
(0 0 0.0191551)
(0 0 0.0191064)
(0 0 0.0190535)
(0 0 0.0189962)
(0 0 0.0189348)
(0 0 0.0188692)
(0 0 0.0187995)
(0 0 0.0187257)
(0 0 0.0186481)
(0 0 0.0185665)
(0 0 0.0184811)
(0 0 0.0183919)
(0 0 0.0182991)
(0 0 0.0182027)
(0 0 0.0181028)
(0 0 0.0179994)
(0 0 0.0178926)
(0 0 0.0177826)
(0 0 0.0176694)
(0 0 0.0175531)
(0 0 0.0174337)
(0 0 0.0173114)
(0 0 0.0171862)
(0 0 0.0170582)
(0 0 0.0169276)
(0 0 0.0167943)
(0 0 0.0166585)
(0 0 0.0165202)
(0 0 0.0163796)
(0 0 0.0162367)
(0 0 0.0160916)
(0 0 0.0159443)
(0 0 0.015795)
(0 0 0.0156437)
(0 0 0.0154906)
(0 0 0.0153356)
(0 0 0.0151789)
(0 0 0.0150205)
(0 0 0.0148606)
(0 0 0.0146991)
(0 0 0.0145361)
(0 0 0.0143718)
(0 0 0.0142061)
(0 0 0.0140392)
(0 0 0.0138711)
(0 0 0.0137019)
(0 0 0.0135316)
(0 0 0.0133603)
(0 0 0.0131881)
(0 0 0.0130149)
(0 0 0.0128409)
(0 0 0.0126662)
(0 0 0.0124906)
(0 0 0.0123144)
(0 0 0.0121376)
(0 0 0.0119602)
(0 0 0.0117822)
(0 0 0.0116037)
(0 0 0.0114247)
(0 0 0.0112453)
(0 0 0.0110655)
(0 0 0.0108854)
(0 0 0.010705)
(0 0 0.0105242)
(0 0 0.0103432)
(0 0 0.010162)
(0 0 0.00998061)
(0 0 0.00979903)
(0 0 0.00961732)
(0 0 0.00943549)
(0 0 0.00925358)
(0 0 0.00907159)
(0 0 0.00888955)
(0 0 0.00870749)
(0 0 0.00852542)
(0 0 0.00834335)
(0 0 0.00816131)
(0 0 0.00797931)
(0 0 0.00779736)
(0 0 0.00761548)
(0 0 0.00743367)
(0 0 0.00725196)
(0 0 0.00707034)
(0 0 0.00688884)
(0 0 0.00670744)
(0 0 0.00652618)
(0 0 0.00634504)
(0 0 0.00616404)
(0 0 0.00598317)
(0 0 0.00580246)
(0 0 0.00562189)
(0 0 0.00544147)
(0 0 0.0052612)
(0 0 0.00508108)
(0 0 0.00490112)
(0 0 0.00472131)
(0 0 0.00454165)
(0 0 0.00436215)
(0 0 0.00418279)
(0 0 0.00400358)
(0 0 0.00382452)
(0 0 0.0036456)
(0 0 0.00346682)
(0 0 0.00328816)
(0 0 0.00310964)
(0 0 0.00293125)
(0 0 0.00275297)
(0 0 0.0025748)
(0 0 0.00239674)
(0 0 0.00221879)
(0 0 0.00204092)
(0 0 0.00186315)
(0 0 0.00168546)
(0 0 0.00150784)
(0 0 0.00133029)
(0 0 0.00115279)
(0 0 0.000975353)
(0 0 0.000797956)
(0 0 0.000620595)
(0 0 0.000443262)
(0 0 0.000265949)
(0 0 8.86485e-05)
(0 0 0.000112614)
(0 0 0.00033785)
(0 0 0.000563105)
(0 0 0.000788391)
(0 0 0.00101372)
(0 0 0.00123911)
(0 0 0.00146457)
(0 0 0.00169011)
(0 0 0.00191574)
(0 0 0.00214148)
(0 0 0.00236733)
(0 0 0.00259332)
(0 0 0.00281944)
(0 0 0.0030457)
(0 0 0.00327213)
(0 0 0.00349872)
(0 0 0.00372549)
(0 0 0.00395245)
(0 0 0.00417959)
(0 0 0.00440694)
(0 0 0.00463449)
(0 0 0.00486224)
(0 0 0.00509022)
(0 0 0.00531841)
(0 0 0.00554682)
(0 0 0.00577545)
(0 0 0.00600431)
(0 0 0.00623339)
(0 0 0.0064627)
(0 0 0.00669222)
(0 0 0.00692196)
(0 0 0.00715192)
(0 0 0.00738207)
(0 0 0.00761243)
(0 0 0.00784298)
(0 0 0.00807371)
(0 0 0.00830461)
(0 0 0.00853566)
(0 0 0.00876685)
(0 0 0.00899817)
(0 0 0.00922959)
(0 0 0.0094611)
(0 0 0.00969268)
(0 0 0.0099243)
(0 0 0.0101559)
(0 0 0.0103876)
(0 0 0.0106191)
(0 0 0.0108507)
(0 0 0.0110821)
(0 0 0.0113133)
(0 0 0.0115444)
(0 0 0.0117753)
(0 0 0.0120059)
(0 0 0.0122363)
(0 0 0.0124662)
(0 0 0.0126958)
(0 0 0.0129249)
(0 0 0.0131536)
(0 0 0.0133816)
(0 0 0.0136091)
(0 0 0.0138359)
(0 0 0.0140619)
(0 0 0.0142871)
(0 0 0.0145115)
(0 0 0.0147349)
(0 0 0.0149573)
(0 0 0.0151786)
(0 0 0.0153987)
(0 0 0.0156176)
(0 0 0.0158351)
(0 0 0.0160513)
(0 0 0.0162659)
(0 0 0.016479)
(0 0 0.0166903)
(0 0 0.0168999)
(0 0 0.0171076)
(0 0 0.0173134)
(0 0 0.017517)
(0 0 0.0177186)
(0 0 0.0179178)
(0 0 0.0181147)
(0 0 0.0183091)
(0 0 0.018501)
(0 0 0.0186901)
(0 0 0.0188765)
(0 0 0.01906)
(0 0 0.0192405)
(0 0 0.0194178)
(0 0 0.019592)
(0 0 0.0197628)
(0 0 0.0199302)
(0 0 0.0200941)
(0 0 0.0202543)
(0 0 0.0204108)
(0 0 0.0205634)
(0 0 0.020712)
(0 0 0.0208566)
(0 0 0.0209971)
(0 0 0.0211333)
(0 0 0.0212651)
(0 0 0.0213925)
(0 0 0.0215153)
(0 0 0.0216335)
(0 0 0.021747)
(0 0 0.0218558)
(0 0 0.0219596)
(0 0 0.0220585)
(0 0 0.0221524)
(0 0 0.0222412)
(0 0 0.0223248)
(0 0 0.0224033)
(0 0 0.0224764)
(0 0 0.0225443)
(0 0 0.0226068)
(0 0 0.0226639)
(0 0 0.0227155)
(0 0 0.0227617)
(0 0 0.0228023)
(0 0 0.0228374)
(0 0 0.022867)
(0 0 0.022891)
(0 0 0.0229095)
(0 0 0.0229224)
(0 0 0.0229297)
(0 0 0.0229315)
(0 0 0.0229277)
(0 0 0.0229184)
(0 0 0.0229035)
(0 0 0.0228832)
(0 0 0.0228574)
(0 0 0.0228262)
(0 0 0.0227897)
(0 0 0.0227478)
(0 0 0.0227006)
(0 0 0.0226481)
(0 0 0.0225905)
(0 0 0.0225278)
(0 0 0.02246)
(0 0 0.0223873)
(0 0 0.0223096)
(0 0 0.0222271)
(0 0 0.0221398)
(0 0 0.0220478)
(0 0 0.0219512)
(0 0 0.0218501)
(0 0 0.0217446)
(0 0 0.0216347)
(0 0 0.0215206)
(0 0 0.0214023)
(0 0 0.0212799)
(0 0 0.0211536)
(0 0 0.0210234)
(0 0 0.0208894)
(0 0 0.0207517)
(0 0 0.0206104)
(0 0 0.0204657)
(0 0 0.0203176)
(0 0 0.0201661)
(0 0 0.0200115)
(0 0 0.0198538)
(0 0 0.0196931)
(0 0 0.0195295)
(0 0 0.0193631)
(0 0 0.019194)
(0 0 0.0190223)
(0 0 0.0188481)
(0 0 0.0186715)
(0 0 0.0184925)
(0 0 0.0183114)
(0 0 0.018128)
(0 0 0.0179427)
(0 0 0.0177553)
(0 0 0.0175661)
(0 0 0.0173751)
(0 0 0.0171823)
(0 0 0.016988)
(0 0 0.016792)
(0 0 0.0165946)
(0 0 0.0163958)
(0 0 0.0161957)
(0 0 0.0159943)
(0 0 0.0157917)
(0 0 0.015588)
(0 0 0.0153833)
(0 0 0.0151775)
(0 0 0.0149708)
(0 0 0.0147633)
(0 0 0.014555)
(0 0 0.0143459)
(0 0 0.014136)
(0 0 0.0139256)
(0 0 0.0137146)
(0 0 0.013503)
(0 0 0.0132909)
(0 0 0.0130783)
(0 0 0.0128653)
(0 0 0.012652)
(0 0 0.0124383)
(0 0 0.0122243)
(0 0 0.0120101)
(0 0 0.0117957)
(0 0 0.011581)
(0 0 0.0113662)
(0 0 0.0111513)
(0 0 0.0109362)
(0 0 0.0107211)
(0 0 0.0105059)
(0 0 0.0102907)