/*--------------------------------*- C++ -*----------------------------------*\
| =========                 |                                                 |
| \\      /  F ield         | OpenFOAM: The Open Source CFD Toolbox           |
|  \\    /   O peration     | Version:  v2012                                 |
|   \\  /    A nd           | Website:  www.openfoam.com                      |
|    \\/     M anipulation  |                                                 |
\*---------------------------------------------------------------------------*/
FoamFile
{
    version     2.0;
    format      ascii;
    class       volVectorField;
    location    "14";
    object      U;
}
// * * * * * * * * * * * * * * * * * * * * * * * * * * * * * * * * * * * * * //

dimensions      [0 1 -1 0 0 0 0];


internalField   nonuniform List<vector> 
65536
(
(0.000707396 -0.000707413 0)
(0.00212223 -0.000707455 0)
(0.00353718 -0.000707533 0)
(0.00495233 -0.00070765 0)
(0.00636775 -0.000707806 0)
(0.00778352 -0.000707999 0)
(0.00919972 -0.00070823 0)
(0.0106164 -0.000708498 0)
(0.0120337 -0.000708801 0)
(0.0134516 -0.00070914 0)
(0.0148702 -0.000709513 0)
(0.0162896 -0.000709918 0)
(0.0177099 -0.000710355 0)
(0.019131 -0.000710822 0)
(0.0205531 -0.000711317 0)
(0.0219763 -0.00071184 0)
(0.0234005 -0.000712387 0)
(0.0248258 -0.000712958 0)
(0.0262523 -0.00071355 0)
(0.02768 -0.000714161 0)
(0.0291089 -0.000714788 0)
(0.0305391 -0.00071543 0)
(0.0319706 -0.000716083 0)
(0.0334034 -0.000716744 0)
(0.0348376 -0.000717412 0)
(0.0362731 -0.000718083 0)
(0.0377099 -0.000718753 0)
(0.0391481 -0.00071942 0)
(0.0405876 -0.000720079 0)
(0.0420284 -0.000720728 0)
(0.0434705 -0.000721362 0)
(0.0449139 -0.000721978 0)
(0.0463585 -0.000722571 0)
(0.0478042 -0.000723137 0)
(0.0492511 -0.000723672 0)
(0.050699 -0.000724171 0)
(0.0521478 -0.00072463 0)
(0.0535975 -0.000725043 0)
(0.055048 -0.000725405 0)
(0.0564992 -0.000725712 0)
(0.0579509 -0.000725958 0)
(0.0594031 -0.000726137 0)
(0.0608556 -0.000726244 0)
(0.0623082 -0.000726272 0)
(0.0637607 -0.000726217 0)
(0.0652131 -0.000726071 0)
(0.0666651 -0.000725828 0)
(0.0681165 -0.000725483 0)
(0.0695672 -0.000725028 0)
(0.0710168 -0.000724456 0)
(0.0724651 -0.000723762 0)
(0.0739119 -0.000722938 0)
(0.075357 -0.000721977 0)
(0.0768 -0.000720872 0)
(0.0782406 -0.000719615 0)
(0.0796786 -0.0007182 0)
(0.0811136 -0.000716619 0)
(0.0825453 -0.000714865 0)
(0.0839732 -0.00071293 0)
(0.0853972 -0.000710807 0)
(0.0868167 -0.000708488 0)
(0.0882313 -0.000705966 0)
(0.0896407 -0.000703233 0)
(0.0910445 -0.000700282 0)
(0.0924421 -0.000697105 0)
(0.0938331 -0.000693696 0)
(0.0952171 -0.000690046 0)
(0.0965936 -0.00068615 0)
(0.097962 -0.000681999 0)
(0.0993218 -0.000677587 0)
(0.100673 -0.000672907 0)
(0.102014 -0.000667953 0)
(0.103345 -0.000662718 0)
(0.104665 -0.000657197 0)
(0.105974 -0.000651384 0)
(0.107271 -0.000645272 0)
(0.108555 -0.000638858 0)
(0.109826 -0.000632135 0)
(0.111084 -0.000625101 0)
(0.112327 -0.000617749 0)
(0.113555 -0.000610078 0)
(0.114768 -0.000602083 0)
(0.115964 -0.000593762 0)
(0.117143 -0.000585112 0)
(0.118305 -0.000576131 0)
(0.119448 -0.000566819 0)
(0.120572 -0.000557173 0)
(0.121677 -0.000547194 0)
(0.122761 -0.000536883 0)
(0.123825 -0.000526239 0)
(0.124867 -0.000515265 0)
(0.125886 -0.000503962 0)
(0.126883 -0.000492333 0)
(0.127856 -0.000480381 0)
(0.128805 -0.00046811 0)
(0.129729 -0.000455525 0)
(0.130627 -0.000442631 0)
(0.131499 -0.000429434 0)
(0.132345 -0.000415939 0)
(0.133164 -0.000402154 0)
(0.133954 -0.000388087 0)
(0.134716 -0.000373746 0)
(0.135449 -0.000359139 0)
(0.136153 -0.000344277 0)
(0.136827 -0.000329169 0)
(0.13747 -0.000313826 0)
(0.138082 -0.000298258 0)
(0.138663 -0.000282478 0)
(0.139212 -0.000266498 0)
(0.139729 -0.000250329 0)
(0.140214 -0.000233985 0)
(0.140665 -0.00021748 0)
(0.141084 -0.000200827 0)
(0.141469 -0.00018404 0)
(0.14182 -0.000167133 0)
(0.142137 -0.000150121 0)
(0.142421 -0.00013302 0)
(0.14267 -0.000115842 0)
(0.142884 -9.8605e-05 0)
(0.143064 -8.13228e-05 0)
(0.143209 -6.40109e-05 0)
(0.14332 -4.66848e-05 0)
(0.143396 -2.93596e-05 0)
(0.143437 -1.20506e-05 0)
(0.143444 5.22701e-06 0)
(0.143417 2.24583e-05 0)
(0.143354 3.96284e-05 0)
(0.143258 5.67228e-05 0)
(0.143127 7.37269e-05 0)
(0.142963 9.06269e-05 0)
(0.142765 0.000107409 0)
(0.142533 0.000124059 0)
(0.142268 0.000140565 0)
(0.141971 0.000156914 0)
(0.141641 0.000173093 0)
(0.141278 0.000189091 0)
(0.140884 0.000204896 0)
(0.140458 0.000220498 0)
(0.140002 0.000235886 0)
(0.139515 0.00025105 0)
(0.138997 0.000265981 0)
(0.13845 0.000280671 0)
(0.137874 0.000295111 0)
(0.13727 0.000309294 0)
(0.136637 0.000323212 0)
(0.135977 0.000336859 0)
(0.135289 0.000350229 0)
(0.134575 0.000363317 0)
(0.133836 0.000376117 0)
(0.133071 0.000388627 0)
(0.132281 0.000400841 0)
(0.131467 0.000412758 0)
(0.13063 0.000424373 0)
(0.129769 0.000435686 0)
(0.128886 0.000446695 0)
(0.127982 0.000457398 0)
(0.127057 0.000467795 0)
(0.126111 0.000477886 0)
(0.125145 0.000487671 0)
(0.12416 0.000497152 0)
(0.123156 0.000506328 0)
(0.122134 0.000515203 0)
(0.121095 0.000523777 0)
(0.120039 0.000532054 0)
(0.118966 0.000540035 0)
(0.117878 0.000547725 0)
(0.116775 0.000555125 0)
(0.115657 0.000562241 0)
(0.114526 0.000569075 0)
(0.113381 0.000575633 0)
(0.112223 0.000581918 0)
(0.111053 0.000587935 0)
(0.109871 0.000593689 0)
(0.108678 0.000599184 0)
(0.107474 0.000604427 0)
(0.10626 0.000609422 0)
(0.105036 0.000614175 0)
(0.103803 0.000618691 0)
(0.102561 0.000622976 0)
(0.101311 0.000627036 0)
(0.100053 0.000630876 0)
(0.0987871 0.000634502 0)
(0.0975145 0.000637921 0)
(0.0962352 0.000641139 0)
(0.0949497 0.00064416 0)
(0.0936584 0.000646992 0)
(0.0923616 0.000649639 0)
(0.0910596 0.000652109 0)
(0.0897529 0.000654408 0)
(0.0884418 0.00065654 0)
(0.0871266 0.000658512 0)
(0.0858076 0.00066033 0)
(0.0844852 0.000661999 0)
(0.0831595 0.000663526 0)
(0.0818309 0.000664916 0)
(0.0804997 0.000666175 0)
(0.0791661 0.000667307 0)
(0.0778304 0.00066832 0)
(0.0764927 0.000669217 0)
(0.0751534 0.000670005 0)
(0.0738126 0.000670688 0)
(0.0724705 0.000671271 0)
(0.0711274 0.00067176 0)
(0.0697834 0.00067216 0)
(0.0684387 0.000672475 0)
(0.0670934 0.00067271 0)
(0.0657478 0.000672869 0)
(0.0644019 0.000672957 0)
(0.0630559 0.000672979 0)
(0.0617099 0.000672939 0)
(0.0603641 0.00067284 0)
(0.0590185 0.000672687 0)
(0.0576733 0.000672484 0)
(0.0563285 0.000672235 0)
(0.0549843 0.000671944 0)
(0.0536407 0.000671613 0)
(0.0522978 0.000671247 0)
(0.0509557 0.000670849 0)
(0.0496144 0.000670423 0)
(0.048274 0.00066997 0)
(0.0469345 0.000669496 0)
(0.045596 0.000669002 0)
(0.0442585 0.000668492 0)
(0.042922 0.000667968 0)
(0.0415866 0.000667433 0)
(0.0402523 0.000666889 0)
(0.038919 0.00066634 0)
(0.0375869 0.000665787 0)
(0.0362559 0.000665233 0)
(0.034926 0.00066468 0)
(0.0335972 0.00066413 0)
(0.0322695 0.000663585 0)
(0.0309429 0.000663047 0)
(0.0296173 0.000662519 0)
(0.0282928 0.000662001 0)
(0.0269693 0.000661495 0)
(0.0256468 0.000661003 0)
(0.0243253 0.000660527 0)
(0.0230048 0.000660068 0)
(0.0216851 0.000659627 0)
(0.0203663 0.000659206 0)
(0.0190483 0.000658805 0)
(0.0177311 0.000658426 0)
(0.0164146 0.00065807 0)
(0.0150988 0.000657738 0)
(0.0137837 0.00065743 0)
(0.0124691 0.000657148 0)
(0.0111551 0.000656892 0)
(0.0098416 0.000656663 0)
(0.0085285 0.000656461 0)
(0.00721578 0.000656288 0)
(0.00590338 0.000656142 0)
(0.00459125 0.000656025 0)
(0.00327932 0.000655938 0)
(0.00196753 0.000655879 0)
(0.000655835 0.00065585 0)
(0.00070736 -0.00212221 0)
(0.00212212 -0.00212233 0)
(0.003537 -0.00212257 0)
(0.00495207 -0.00212292 0)
(0.00636742 -0.00212339 0)
(0.00778311 -0.00212397 0)
(0.00919924 -0.00212466 0)
(0.0106159 -0.00212546 0)
(0.0120331 -0.00212637 0)
(0.0134509 -0.00212739 0)
(0.0148695 -0.00212851 0)
(0.0162888 -0.00212973 0)
(0.017709 -0.00213104 0)
(0.0191301 -0.00213244 0)
(0.0205521 -0.00213393 0)
(0.0219752 -0.0021355 0)
(0.0233994 -0.00213714 0)
(0.0248247 -0.00213886 0)
(0.0262511 -0.00214064 0)
(0.0276788 -0.00214247 0)
(0.0291077 -0.00214436 0)
(0.0305379 -0.00214628 0)
(0.0319694 -0.00214824 0)
(0.0334022 -0.00215023 0)
(0.0348363 -0.00215224 0)
(0.0362718 -0.00215425 0)
(0.0377087 -0.00215627 0)
(0.0391468 -0.00215827 0)
(0.0405864 -0.00216025 0)
(0.0420272 -0.0021622 0)
(0.0434694 -0.00216411 0)
(0.0449128 -0.00216596 0)
(0.0463574 -0.00216774 0)
(0.0478032 -0.00216945 0)
(0.0492501 -0.00217106 0)
(0.0506981 -0.00217256 0)
(0.052147 -0.00217394 0)
(0.0535968 -0.00217518 0)
(0.0550474 -0.00217627 0)
(0.0564987 -0.0021772 0)
(0.0579506 -0.00217794 0)
(0.0594029 -0.00217849 0)
(0.0608555 -0.00217881 0)
(0.0623083 -0.0021789 0)
(0.063761 -0.00217874 0)
(0.0652136 -0.00217831 0)
(0.0666658 -0.00217759 0)
(0.0681174 -0.00217656 0)
(0.0695683 -0.0021752 0)
(0.0710181 -0.00217349 0)
(0.0724667 -0.00217142 0)
(0.0739138 -0.00216895 0)
(0.0753592 -0.00216607 0)
(0.0768024 -0.00216277 0)
(0.0782434 -0.002159 0)
(0.0796817 -0.00215477 0)
(0.081117 -0.00215003 0)
(0.082549 -0.00214478 0)
(0.0839774 -0.00213898 0)
(0.0854017 -0.00213262 0)
(0.0868216 -0.00212567 0)
(0.0882367 -0.00211811 0)
(0.0896465 -0.00210992 0)
(0.0910507 -0.00210107 0)
(0.0924488 -0.00209155 0)
(0.0938403 -0.00208133 0)
(0.0952247 -0.00207038 0)
(0.0966017 -0.0020587 0)
(0.0979706 -0.00204625 0)
(0.099331 -0.00203303 0)
(0.100682 -0.00201899 0)
(0.102024 -0.00200414 0)
(0.103355 -0.00198844 0)
(0.104676 -0.00197188 0)
(0.105986 -0.00195444 0)
(0.107283 -0.00193612 0)
(0.108568 -0.00191688 0)
(0.10984 -0.00189671 0)
(0.111098 -0.00187561 0)
(0.112342 -0.00185356 0)
(0.113571 -0.00183055 0)
(0.114784 -0.00180657 0)
(0.115981 -0.00178161 0)
(0.117161 -0.00175566 0)
(0.118323 -0.00172872 0)
(0.119467 -0.00170078 0)
(0.120592 -0.00167185 0)
(0.121697 -0.00164191 0)
(0.122782 -0.00161098 0)
(0.123847 -0.00157904 0)
(0.124889 -0.00154612 0)
(0.125909 -0.00151221 0)
(0.126907 -0.00147732 0)
(0.12788 -0.00144146 0)
(0.12883 -0.00140464 0)
(0.129754 -0.00136688 0)
(0.130653 -0.00132819 0)
(0.131526 -0.00128859 0)
(0.132372 -0.0012481 0)
(0.133191 -0.00120674 0)
(0.133982 -0.00116453 0)
(0.134745 -0.0011215 0)
(0.135479 -0.00107767 0)
(0.136183 -0.00103307 0)
(0.136857 -0.000987736 0)
(0.137501 -0.000941695 0)
(0.138114 -0.000894981 0)
(0.138695 -0.000847628 0)
(0.139244 -0.000799674 0)
(0.139762 -0.000751156 0)
(0.140247 -0.000702112 0)
(0.140699 -0.000652582 0)
(0.141117 -0.000602609 0)
(0.141502 -0.000552233 0)
(0.141854 -0.000501498 0)
(0.142172 -0.000450448 0)
(0.142455 -0.000399127 0)
(0.142704 -0.000347581 0)
(0.142919 -0.000295854 0)
(0.143099 -0.000243992 0)
(0.143244 -0.000192041 0)
(0.143355 -0.000140047 0)
(0.143431 -8.80564e-05 0)
(0.143472 -3.61145e-05 0)
(0.143479 1.57334e-05 0)
(0.143451 6.7442e-05 0)
(0.143389 0.000118967 0)
(0.143292 0.000170264 0)
(0.143161 0.000221291 0)
(0.142997 0.000272004 0)
(0.142798 0.000322363 0)
(0.142566 0.000372327 0)
(0.142301 0.000421858 0)
(0.142003 0.000470916 0)
(0.141673 0.000519465 0)
(0.14131 0.000567469 0)
(0.140915 0.000614896 0)
(0.140489 0.000661711 0)
(0.140032 0.000707885 0)
(0.139545 0.000753387 0)
(0.139027 0.00079819 0)
(0.138479 0.000842268 0)
(0.137903 0.000885595 0)
(0.137298 0.00092815 0)
(0.136664 0.00096991 0)
(0.136004 0.00101086 0)
(0.135316 0.00105097 0)
(0.134601 0.00109024 0)
(0.133861 0.00112865 0)
(0.133095 0.00116618 0)
(0.132305 0.00120283 0)
(0.13149 0.00123858 0)
(0.130652 0.00127343 0)
(0.129791 0.00130737 0)
(0.128908 0.00134039 0)
(0.128003 0.0013725 0)
(0.127077 0.00140369 0)
(0.12613 0.00143397 0)
(0.125164 0.00146332 0)
(0.124178 0.00149176 0)
(0.123174 0.00151929 0)
(0.122151 0.00154591 0)
(0.121111 0.00157163 0)
(0.120055 0.00159646 0)
(0.118982 0.0016204 0)
(0.117893 0.00164346 0)
(0.116789 0.00166566 0)
(0.115671 0.00168701 0)
(0.114539 0.0017075 0)
(0.113393 0.00172717 0)
(0.112235 0.00174602 0)
(0.111064 0.00176407 0)
(0.109882 0.00178133 0)
(0.108688 0.00179781 0)
(0.107484 0.00181353 0)
(0.106269 0.00182851 0)
(0.105045 0.00184276 0)
(0.103812 0.0018563 0)
(0.102569 0.00186915 0)
(0.101319 0.00188133 0)
(0.10006 0.00189284 0)
(0.098794 0.00190371 0)
(0.097521 0.00191397 0)
(0.0962413 0.00192361 0)
(0.0949554 0.00193267 0)
(0.0936637 0.00194116 0)
(0.0923665 0.00194909 0)
(0.0910643 0.0019565 0)
(0.0897573 0.00196339 0)
(0.0884458 0.00196978 0)
(0.0871303 0.00197569 0)
(0.085811 0.00198114 0)
(0.0844882 0.00198614 0)
(0.0831623 0.00199071 0)
(0.0818335 0.00199488 0)
(0.080502 0.00199865 0)
(0.0791681 0.00200204 0)
(0.0778322 0.00200507 0)
(0.0764943 0.00200776 0)
(0.0751547 0.00201012 0)
(0.0738137 0.00201216 0)
(0.0724715 0.00201391 0)
(0.0711282 0.00201537 0)
(0.069784 0.00201656 0)
(0.0684391 0.0020175 0)
(0.0670937 0.0020182 0)
(0.0657479 0.00201867 0)
(0.0644019 0.00201893 0)
(0.0630558 0.002019 0)
(0.0617097 0.00201887 0)
(0.0603637 0.00201857 0)
(0.0590181 0.00201811 0)
(0.0576727 0.0020175 0)
(0.0563279 0.00201674 0)
(0.0549836 0.00201587 0)
(0.0536399 0.00201487 0)
(0.052297 0.00201377 0)
(0.0509548 0.00201257 0)
(0.0496134 0.00201129 0)
(0.048273 0.00200993 0)
(0.0469335 0.0020085 0)
(0.0455949 0.00200702 0)
(0.0442574 0.00200548 0)
(0.0429209 0.00200391 0)
(0.0415855 0.0020023 0)
(0.0402511 0.00200067 0)
(0.0389179 0.00199902 0)
(0.0375857 0.00199736 0)
(0.0362547 0.00199569 0)
(0.0349248 0.00199403 0)
(0.033596 0.00199238 0)
(0.0322683 0.00199074 0)
(0.0309417 0.00198913 0)
(0.0296162 0.00198754 0)
(0.0282917 0.00198598 0)
(0.0269683 0.00198447 0)
(0.0256458 0.00198299 0)
(0.0243244 0.00198156 0)
(0.0230038 0.00198018 0)
(0.0216842 0.00197886 0)
(0.0203654 0.00197759 0)
(0.0190475 0.00197639 0)
(0.0177303 0.00197525 0)
(0.0164139 0.00197418 0)
(0.0150982 0.00197318 0)
(0.0137831 0.00197226 0)
(0.0124686 0.00197141 0)
(0.0111546 0.00197064 0)
(0.00984115 0.00196996 0)
(0.00852811 0.00196935 0)
(0.00721545 0.00196883 0)
(0.00590311 0.00196839 0)
(0.00459104 0.00196804 0)
(0.00327917 0.00196778 0)
(0.00196744 0.0019676 0)
(0.000655805 0.00196752 0)
(0.000707281 -0.00353689 0)
(0.00212188 -0.00353709 0)
(0.0035366 -0.00353748 0)
(0.00495152 -0.00353807 0)
(0.00636671 -0.00353885 0)
(0.00778225 -0.00353982 0)
(0.00919823 -0.00354098 0)
(0.0106147 -0.00354232 0)
(0.0120318 -0.00354384 0)
(0.0134495 -0.00354554 0)
(0.0148679 -0.00354741 0)
(0.0162871 -0.00354944 0)
(0.0177072 -0.00355163 0)
(0.0191281 -0.00355398 0)
(0.0205501 -0.00355646 0)
(0.0219731 -0.00355908 0)
(0.0233971 -0.00356183 0)
(0.0248223 -0.00356469 0)
(0.0262487 -0.00356766 0)
(0.0276763 -0.00357073 0)
(0.0291051 -0.00357388 0)
(0.0305352 -0.0035771 0)
(0.0319667 -0.00358038 0)
(0.0333995 -0.0035837 0)
(0.0348336 -0.00358705 0)
(0.0362691 -0.00359042 0)
(0.0377059 -0.00359379 0)
(0.0391442 -0.00359714 0)
(0.0405837 -0.00360046 0)
(0.0420246 -0.00360372 0)
(0.0434668 -0.00360691 0)
(0.0449103 -0.00361001 0)
(0.046355 -0.003613 0)
(0.0478009 -0.00361585 0)
(0.049248 -0.00361855 0)
(0.0506961 -0.00362107 0)
(0.0521452 -0.00362338 0)
(0.0535952 -0.00362547 0)
(0.055046 -0.00362731 0)
(0.0564976 -0.00362887 0)
(0.0579497 -0.00363013 0)
(0.0594023 -0.00363105 0)
(0.0608552 -0.00363161 0)
(0.0623083 -0.00363179 0)
(0.0637614 -0.00363154 0)
(0.0652143 -0.00363084 0)
(0.0666669 -0.00362966 0)
(0.068119 -0.00362796 0)
(0.0695703 -0.00362572 0)
(0.0710206 -0.0036229 0)
(0.0724697 -0.00361946 0)
(0.0739173 -0.00361538 0)
(0.0753632 -0.00361061 0)
(0.0768071 -0.00360511 0)
(0.0782487 -0.00359887 0)
(0.0796876 -0.00359183 0)
(0.0811236 -0.00358396 0)
(0.0825564 -0.00357523 0)
(0.0839854 -0.00356559 0)
(0.0854105 -0.00355501 0)
(0.0868312 -0.00354345 0)
(0.0882471 -0.00353088 0)
(0.0896578 -0.00351725 0)
(0.0910629 -0.00350253 0)
(0.0924619 -0.00348669 0)
(0.0938543 -0.00346968 0)
(0.0952398 -0.00345146 0)
(0.0966177 -0.00343202 0)
(0.0979877 -0.00341129 0)
(0.0993491 -0.00338927 0)
(0.100701 -0.0033659 0)
(0.102044 -0.00334116 0)
(0.103377 -0.00331502 0)
(0.104699 -0.00328744 0)
(0.10601 -0.0032584 0)
(0.107308 -0.00322787 0)
(0.108595 -0.00319582 0)
(0.109868 -0.00316223 0)
(0.111127 -0.00312708 0)
(0.112372 -0.00309034 0)
(0.113602 -0.003052 0)
(0.114817 -0.00301204 0)
(0.116015 -0.00297044 0)
(0.117196 -0.0029272 0)
(0.11836 -0.00288231 0)
(0.119505 -0.00283575 0)
(0.120631 -0.00278752 0)
(0.121738 -0.00273763 0)
(0.122824 -0.00268607 0)
(0.12389 -0.00263284 0)
(0.124934 -0.00257796 0)
(0.125955 -0.00252143 0)
(0.126954 -0.00246327 0)
(0.127929 -0.00240349 0)
(0.128879 -0.00234211 0)
(0.129805 -0.00227916 0)
(0.130705 -0.00221466 0)
(0.13158 -0.00214864 0)
(0.132427 -0.00208113 0)
(0.133247 -0.00201217 0)
(0.134039 -0.00194179 0)
(0.134803 -0.00187004 0)
(0.135538 -0.00179696 0)
(0.136243 -0.0017226 0)
(0.136918 -0.00164701 0)
(0.137563 -0.00157024 0)
(0.138176 -0.00149234 0)
(0.138758 -0.00141338 0)
(0.139309 -0.00133342 0)
(0.139827 -0.00125251 0)
(0.140312 -0.00117072 0)
(0.140765 -0.00108813 0)
(0.141184 -0.00100479 0)
(0.14157 -0.000920786 0)
(0.141922 -0.000836179 0)
(0.14224 -0.000751047 0)
(0.142524 -0.000665462 0)
(0.142773 -0.0005795 0)
(0.142988 -0.000493238 0)
(0.143168 -0.00040675 0)
(0.143313 -0.000320114 0)
(0.143424 -0.000233407 0)
(0.1435 -0.000146705 0)
(0.143541 -6.00847e-05 0)
(0.143548 2.63783e-05 0)
(0.14352 0.000112609 0)
(0.143457 0.000198532 0)
(0.14336 0.000284076 0)
(0.143229 0.000369167 0)
(0.143064 0.000453736 0)
(0.142865 0.000537712 0)
(0.142633 0.000621029 0)
(0.142367 0.000703622 0)
(0.142068 0.000785426 0)
(0.141737 0.00086638 0)
(0.141374 0.000946426 0)
(0.140978 0.00102551 0)
(0.140551 0.00110357 0)
(0.140093 0.00118056 0)
(0.139605 0.00125642 0)
(0.139086 0.00133112 0)
(0.138538 0.00140461 0)
(0.13796 0.00147685 0)
(0.137354 0.0015478 0)
(0.13672 0.00161742 0)
(0.136058 0.00168569 0)
(0.135369 0.00175256 0)
(0.134653 0.00181803 0)
(0.133912 0.00188205 0)
(0.133145 0.00194462 0)
(0.132353 0.0020057 0)
(0.131538 0.0020653 0)
(0.130698 0.00212339 0)
(0.129836 0.00217996 0)
(0.128952 0.00223501 0)
(0.128045 0.00228853 0)
(0.127118 0.00234051 0)
(0.12617 0.00239096 0)
(0.125202 0.00243989 0)
(0.124216 0.00248728 0)
(0.12321 0.00253316 0)
(0.122186 0.00257752 0)
(0.121145 0.00262038 0)
(0.120087 0.00266175 0)
(0.119013 0.00270164 0)
(0.117923 0.00274007 0)
(0.116818 0.00277705 0)
(0.115699 0.00281261 0)
(0.114566 0.00284676 0)
(0.113419 0.00287953 0)
(0.11226 0.00291093 0)
(0.111088 0.00294099 0)
(0.109905 0.00296974 0)
(0.10871 0.00299719 0)
(0.107505 0.00302338 0)
(0.106289 0.00304832 0)
(0.105064 0.00307206 0)
(0.103829 0.00309461 0)
(0.102586 0.00311601 0)
(0.101334 0.00313628 0)
(0.100075 0.00315545 0)
(0.0988081 0.00317355 0)
(0.0975343 0.00319061 0)
(0.0962538 0.00320667 0)
(0.0949672 0.00322175 0)
(0.0936747 0.00323587 0)
(0.0923768 0.00324908 0)
(0.0910738 0.0032614 0)
(0.0897661 0.00327286 0)
(0.0884541 0.0032835 0)
(0.0871379 0.00329333 0)
(0.085818 0.00330239 0)
(0.0844947 0.00331071 0)
(0.0831682 0.00331831 0)
(0.0818388 0.00332523 0)
(0.0805068 0.0033315 0)
(0.0791724 0.00333713 0)
(0.077836 0.00334217 0)
(0.0764977 0.00334663 0)
(0.0751577 0.00335054 0)
(0.0738163 0.00335393 0)
(0.0724737 0.00335682 0)
(0.07113 0.00335924 0)
(0.0697855 0.00336122 0)
(0.0684403 0.00336277 0)
(0.0670945 0.00336392 0)
(0.0657484 0.00336469 0)
(0.0644021 0.00336511 0)
(0.0630558 0.0033652 0)
(0.0617094 0.00336498 0)
(0.0603633 0.00336446 0)
(0.0590174 0.00336368 0)
(0.0576719 0.00336265 0)
(0.0563268 0.00336138 0)
(0.0549824 0.00335991 0)
(0.0536386 0.00335824 0)
(0.0522955 0.00335639 0)
(0.0509532 0.00335438 0)
(0.0496117 0.00335223 0)
(0.0482711 0.00334996 0)
(0.0469315 0.00334757 0)
(0.0455929 0.00334508 0)
(0.0442553 0.00334252 0)
(0.0429188 0.00333988 0)
(0.0415833 0.0033372 0)
(0.0402489 0.00333447 0)
(0.0389157 0.00333171 0)
(0.0375835 0.00332893 0)
(0.0362525 0.00332615 0)
(0.0349226 0.00332337 0)
(0.0335939 0.00332061 0)
(0.0322662 0.00331788 0)
(0.0309396 0.00331518 0)
(0.0296141 0.00331253 0)
(0.0282897 0.00330993 0)
(0.0269663 0.0033074 0)
(0.0256439 0.00330493 0)
(0.0243225 0.00330254 0)
(0.023002 0.00330024 0)
(0.0216825 0.00329803 0)
(0.0203638 0.00329592 0)
(0.0190459 0.00329391 0)
(0.0177288 0.00329201 0)
(0.0164125 0.00329022 0)
(0.0150969 0.00328856 0)
(0.0137819 0.00328701 0)
(0.0124675 0.0032856 0)
(0.0111537 0.00328432 0)
(0.00984029 0.00328317 0)
(0.00852736 0.00328216 0)
(0.00721482 0.00328129 0)
(0.00590259 0.00328056 0)
(0.00459063 0.00327997 0)
(0.00327888 0.00327953 0)
(0.00196727 0.00327924 0)
(0.000655746 0.0032791 0)
(0.000707161 -0.00495137 0)
(0.00212152 -0.00495165 0)
(0.00353601 -0.0049522 0)
(0.00495069 -0.00495303 0)
(0.00636565 -0.00495412 0)
(0.00778096 -0.00495548 0)
(0.00919671 -0.00495711 0)
(0.010613 -0.00495899 0)
(0.0120298 -0.00496113 0)
(0.0134473 -0.00496352 0)
(0.0148655 -0.00496614 0)
(0.0162845 -0.004969 0)
(0.0177044 -0.00497208 0)
(0.0191252 -0.00497537 0)
(0.020547 -0.00497886 0)
(0.0219698 -0.00498254 0)
(0.0233937 -0.0049864 0)
(0.0248188 -0.00499042 0)
(0.026245 -0.0049946 0)
(0.0276725 -0.0049989 0)
(0.0291012 -0.00500333 0)
(0.0305313 -0.00500786 0)
(0.0319627 -0.00501247 0)
(0.0333954 -0.00501714 0)
(0.0348295 -0.00502186 0)
(0.036265 -0.00502659 0)
(0.0377019 -0.00503133 0)
(0.0391401 -0.00503605 0)
(0.0405797 -0.00504071 0)
(0.0420207 -0.00504531 0)
(0.043463 -0.0050498 0)
(0.0449066 -0.00505417 0)
(0.0463515 -0.00505838 0)
(0.0477975 -0.00506241 0)
(0.0492448 -0.00506621 0)
(0.0506931 -0.00506977 0)
(0.0521425 -0.00507305 0)
(0.0535928 -0.00507601 0)
(0.0550439 -0.00507862 0)
(0.0564958 -0.00508085 0)
(0.0579483 -0.00508264 0)
(0.0594013 -0.00508398 0)
(0.0608547 -0.00508481 0)
(0.0623082 -0.00508509 0)
(0.0637618 -0.00508478 0)
(0.0652153 -0.00508385 0)
(0.0666685 -0.00508224 0)
(0.0681212 -0.00507992 0)
(0.0695732 -0.00507682 0)
(0.0710242 -0.00507292 0)
(0.0724741 -0.00506816 0)
(0.0739225 -0.00506248 0)
(0.0753693 -0.00505586 0)
(0.0768141 -0.00504822 0)
(0.0782566 -0.00503953 0)
(0.0796965 -0.00502972 0)
(0.0811335 -0.00501876 0)
(0.0825673 -0.00500658 0)
(0.0839975 -0.00499314 0)
(0.0854237 -0.00497839 0)
(0.0868456 -0.00496226 0)
(0.0882627 -0.00494471 0)
(0.0896747 -0.00492568 0)
(0.0910811 -0.00490513 0)
(0.0924815 -0.00488299 0)
(0.0938754 -0.00485923 0)
(0.0952623 -0.00483378 0)
(0.0966417 -0.0048066 0)
(0.0980132 -0.00477764 0)
(0.0993763 -0.00474685 0)
(0.10073 -0.00471418 0)
(0.102075 -0.00467959 0)
(0.103409 -0.00464303 0)
(0.104733 -0.00460447 0)
(0.106045 -0.00456385 0)
(0.107346 -0.00452114 0)
(0.108634 -0.00447631 0)
(0.109909 -0.00442931 0)
(0.11117 -0.00438013 0)
(0.112417 -0.00432872 0)
(0.113649 -0.00427507 0)
(0.114866 -0.00421914 0)
(0.116066 -0.00416093 0)
(0.117249 -0.0041004 0)
(0.118414 -0.00403756 0)
(0.119562 -0.00397238 0)
(0.12069 -0.00390487 0)
(0.121799 -0.00383501 0)
(0.122887 -0.00376282 0)
(0.123955 -0.00368829 0)
(0.125 -0.00361145 0)
(0.126024 -0.00353229 0)
(0.127024 -0.00345084 0)
(0.128001 -0.00336712 0)
(0.128954 -0.00328116 0)
(0.129882 -0.003193 0)
(0.130784 -0.00310266 0)
(0.13166 -0.00301018 0)
(0.132509 -0.00291562 0)
(0.133331 -0.00281902 0)
(0.134125 -0.00272044 0)
(0.13489 -0.00261992 0)
(0.135626 -0.00251755 0)
(0.136333 -0.00241337 0)
(0.13701 -0.00230746 0)
(0.137656 -0.00219991 0)
(0.13827 -0.00209077 0)
(0.138854 -0.00198014 0)
(0.139405 -0.0018681 0)
(0.139925 -0.00175474 0)
(0.140411 -0.00164015 0)
(0.140865 -0.00152442 0)
(0.141285 -0.00140765 0)
(0.141671 -0.00128994 0)
(0.142024 -0.00117139 0)
(0.142342 -0.0010521 0)
(0.142627 -0.000932175 0)
(0.142876 -0.000811723 0)
(0.143091 -0.000690848 0)
(0.143272 -0.000569658 0)
(0.143417 -0.000448261 0)
(0.143528 -0.000326764 0)
(0.143604 -0.000205274 0)
(0.143645 -8.38993e-05 0)
(0.143652 3.72542e-05 0)
(0.143623 0.000158081 0)
(0.14356 0.000278477 0)
(0.143463 0.000398338 0)
(0.143331 0.000517565 0)
(0.143165 0.000636057 0)
(0.142966 0.000753719 0)
(0.142732 0.000870455 0)
(0.142466 0.000986173 0)
(0.142166 0.00110078 0)
(0.141834 0.0012142 0)
(0.141469 0.00132635 0)
(0.141073 0.00143714 0)
(0.140645 0.00154649 0)
(0.140185 0.00165435 0)
(0.139695 0.00176063 0)
(0.139175 0.00186527 0)
(0.138625 0.00196821 0)
(0.138046 0.0020694 0)
(0.137438 0.00216877 0)
(0.136802 0.00226629 0)
(0.136139 0.0023619 0)
(0.135448 0.00245557 0)
(0.134731 0.00254725 0)
(0.133988 0.00263691 0)
(0.133219 0.00272453 0)
(0.132426 0.00281008 0)
(0.131608 0.00289353 0)
(0.130767 0.00297487 0)
(0.129903 0.00305408 0)
(0.129017 0.00313115 0)
(0.128109 0.00320608 0)
(0.12718 0.00327886 0)
(0.12623 0.00334949 0)
(0.12526 0.00341798 0)
(0.124272 0.00348432 0)
(0.123264 0.00354854 0)
(0.122239 0.00361063 0)
(0.121196 0.00367062 0)
(0.120136 0.00372851 0)
(0.11906 0.00378434 0)
(0.117969 0.00383812 0)
(0.116862 0.00388987 0)
(0.115741 0.00393963 0)
(0.114606 0.00398741 0)
(0.113458 0.00403325 0)
(0.112297 0.00407718 0)
(0.111123 0.00411923 0)
(0.109938 0.00415944 0)
(0.108742 0.00419784 0)
(0.107535 0.00423446 0)
(0.106318 0.00426935 0)
(0.105092 0.00430254 0)
(0.103856 0.00433407 0)
(0.102611 0.00436399 0)
(0.101358 0.00439232 0)
(0.100097 0.00441912 0)
(0.0988293 0.00444442 0)
(0.0975542 0.00446827 0)
(0.0962725 0.00449071 0)
(0.0949847 0.00451177 0)
(0.0936912 0.00453151 0)
(0.0923922 0.00454996 0)
(0.0910882 0.00456717 0)
(0.0897794 0.00458317 0)
(0.0884664 0.00459801 0)
(0.0871493 0.00461174 0)
(0.0858285 0.00462438 0)
(0.0845043 0.00463599 0)
(0.0831769 0.0046466 0)
(0.0818467 0.00465625 0)
(0.080514 0.00466498 0)
(0.0791789 0.00467283 0)
(0.0778417 0.00467984 0)
(0.0765027 0.00468605 0)
(0.0751621 0.00469149 0)
(0.0738201 0.0046962 0)
(0.0724769 0.00470021 0)
(0.0711327 0.00470357 0)
(0.0697876 0.0047063 0)
(0.0684419 0.00470844 0)
(0.0670957 0.00471001 0)
(0.0657492 0.00471107 0)
(0.0644025 0.00471162 0)
(0.0630557 0.00471172 0)
(0.061709 0.00471137 0)
(0.0603625 0.00471063 0)
(0.0590163 0.0047095 0)
(0.0576705 0.00470803 0)
(0.0563252 0.00470623 0)
(0.0549805 0.00470414 0)
(0.0536365 0.00470178 0)
(0.0522932 0.00469917 0)
(0.0509507 0.00469634 0)
(0.0496091 0.0046933 0)
(0.0482684 0.0046901 0)
(0.0469286 0.00468673 0)
(0.0455899 0.00468323 0)
(0.0442522 0.00467962 0)
(0.0429156 0.00467592 0)
(0.0415801 0.00467213 0)
(0.0402457 0.00466829 0)
(0.0389124 0.00466442 0)
(0.0375802 0.00466051 0)
(0.0362492 0.0046566 0)
(0.0349193 0.0046527 0)
(0.0335906 0.00464882 0)
(0.032263 0.00464498 0)
(0.0309364 0.00464119 0)
(0.029611 0.00463747 0)
(0.0282866 0.00463382 0)
(0.0269633 0.00463026 0)
(0.025641 0.00462679 0)
(0.0243197 0.00462344 0)
(0.0229993 0.00462021 0)
(0.0216799 0.0046171 0)
(0.0203613 0.00461414 0)
(0.0190436 0.00461132 0)
(0.0177266 0.00460865 0)
(0.0164105 0.00460614 0)
(0.015095 0.00460381 0)
(0.0137801 0.00460164 0)
(0.0124659 0.00459966 0)
(0.0111522 0.00459786 0)
(0.009839 0.00459624 0)
(0.00852624 0.00459483 0)
(0.00721386 0.0045936 0)
(0.00590181 0.00459258 0)
(0.00459002 0.00459176 0)
(0.00327844 0.00459114 0)
(0.001967 0.00459074 0)
(0.000655658 0.00459053 0)
(0.000707002 -0.00636558 0)
(0.00212105 -0.00636594 0)
(0.00353521 -0.00636665 0)
(0.00494958 -0.00636771 0)
(0.00636423 -0.00636912 0)
(0.00777924 -0.00637088 0)
(0.00919469 -0.00637298 0)
(0.0106106 -0.00637541 0)
(0.0120272 -0.00637817 0)
(0.0134444 -0.00638125 0)
(0.0148624 -0.00638464 0)
(0.0162811 -0.00638833 0)
(0.0177007 -0.0063923 0)
(0.0191213 -0.00639655 0)
(0.0205428 -0.00640106 0)
(0.0219654 -0.00640582 0)
(0.0233892 -0.0064108 0)
(0.024814 -0.006416 0)
(0.0262401 -0.00642139 0)
(0.0276675 -0.00642696 0)
(0.0290961 -0.00643268 0)
(0.030526 -0.00643853 0)
(0.0319573 -0.00644449 0)
(0.03339 -0.00645053 0)
(0.034824 -0.00645663 0)
(0.0362595 -0.00646276 0)
(0.0376964 -0.0064689 0)
(0.0391347 -0.006475 0)
(0.0405743 -0.00648104 0)
(0.0420154 -0.00648699 0)
(0.0434578 -0.00649282 0)
(0.0449016 -0.00649848 0)
(0.0463467 -0.00650395 0)
(0.047793 -0.00650918 0)
(0.0492405 -0.00651413 0)
(0.0506891 -0.00651876 0)
(0.0521388 -0.00652304 0)
(0.0535895 -0.00652691 0)
(0.0550411 -0.00653033 0)
(0.0564934 -0.00653325 0)
(0.0579464 -0.00653562 0)
(0.0594 -0.00653741 0)
(0.0608539 -0.00653854 0)
(0.0623081 -0.00653898 0)
(0.0637624 -0.00653866 0)
(0.0652167 -0.00653754 0)
(0.0666707 -0.00653554 0)
(0.0681242 -0.00653263 0)
(0.0695771 -0.00652874 0)
(0.0710291 -0.0065238 0)
(0.07248 -0.00651776 0)
(0.0739295 -0.00651055 0)
(0.0753773 -0.00650211 0)
(0.0768233 -0.00649238 0)
(0.078267 -0.00648129 0)
(0.0797082 -0.00646878 0)
(0.0811466 -0.00645477 0)
(0.0825818 -0.00643921 0)
(0.0840135 -0.00642202 0)
(0.0854412 -0.00640313 0)
(0.0868647 -0.00638249 0)
(0.0882835 -0.00636001 0)
(0.0896972 -0.00633564 0)
(0.0911054 -0.0063093 0)
(0.0925076 -0.00628093 0)
(0.0939034 -0.00625046 0)
(0.0952922 -0.00621783 0)
(0.0966737 -0.00618297 0)
(0.0980473 -0.00614582 0)
(0.0994124 -0.00610631 0)
(0.100769 -0.00606439 0)
(0.102115 -0.00601999 0)
(0.103452 -0.00597306 0)
(0.104778 -0.00592354 0)
(0.106093 -0.00587139 0)
(0.107396 -0.00581654 0)
(0.108686 -0.00575896 0)
(0.109964 -0.00569859 0)
(0.111228 -0.0056354 0)
(0.112477 -0.00556935 0)
(0.113712 -0.00550041 0)
(0.114931 -0.00542854 0)
(0.116134 -0.00535372 0)
(0.117319 -0.00527593 0)
(0.118488 -0.00519514 0)
(0.119638 -0.00511135 0)
(0.120769 -0.00502455 0)
(0.12188 -0.00493474 0)
(0.122971 -0.00484191 0)
(0.124041 -0.00474607 0)
(0.12509 -0.00464724 0)
(0.126116 -0.00454544 0)
(0.127119 -0.00444068 0)
(0.128098 -0.004333 0)
(0.129053 -0.00422243 0)
(0.129984 -0.00410901 0)
(0.130888 -0.00399279 0)
(0.131767 -0.00387381 0)
(0.132618 -0.00375215 0)
(0.133442 -0.00362786 0)
(0.134238 -0.00350101 0)
(0.135006 -0.00337167 0)
(0.135744 -0.00323993 0)
(0.136453 -0.00310587 0)
(0.137132 -0.00296958 0)
(0.137779 -0.00283115 0)
(0.138396 -0.0026907 0)
(0.138981 -0.00254831 0)
(0.139534 -0.00240411 0)
(0.140055 -0.0022582 0)
(0.140543 -0.00211071 0)
(0.140998 -0.00196175 0)
(0.141419 -0.00181145 0)
(0.141806 -0.00165994 0)
(0.14216 -0.00150734 0)
(0.142479 -0.00135379 0)
(0.142764 -0.00119942 0)
(0.143014 -0.00104437 0)
(0.14323 -0.000888776 0)
(0.143411 -0.000732776 0)
(0.143556 -0.000576509 0)
(0.143667 -0.000420114 0)
(0.143743 -0.00026373 0)
(0.143784 -0.000107494 0)
(0.14379 4.84553e-05 0)
(0.143761 0.000203983 0)
(0.143698 0.000358953 0)
(0.1436 0.000513234 0)
(0.143467 0.000666695 0)
(0.1433 0.000819209 0)