/*--------------------------------*- C++ -*----------------------------------*\
| =========                 |                                                 |
| \\      /  F ield         | OpenFOAM: The Open Source CFD Toolbox           |
|  \\    /   O peration     | Version:  v2012                                 |
|   \\  /    A nd           | Website:  www.openfoam.com                      |
|    \\/     M anipulation  |                                                 |
\*---------------------------------------------------------------------------*/
FoamFile
{
    version     2.0;
    format      ascii;
    class       volScalarField;
    location    "14";
    object      W;
}
// * * * * * * * * * * * * * * * * * * * * * * * * * * * * * * * * * * * * * //

dimensions      [0 0 -1 0 0 0 0];


internalField   nonuniform List<scalar> 
65536
(
8.54187e-17
2.57515e-16
4.33428e-16
6.15793e-16
8.07344e-16
1.01094e-15
1.22958e-15
1.46649e-15
1.72511e-15
2.00917e-15
2.32271e-15
2.67017e-15
3.05639e-15
3.48671e-15
3.96698e-15
4.5037e-15
5.104e-15
5.77577e-15
6.52775e-15
7.36956e-15
8.31185e-15
9.36638e-15
1.05461e-14
1.18654e-14
1.33399e-14
1.49872e-14
1.68262e-14
1.8878e-14
2.11657e-14
2.37145e-14
2.65522e-14
2.97091e-14
3.32185e-14
3.71163e-14
4.14423e-14
4.62392e-14
5.15537e-14
5.74366e-14
6.39429e-14
7.11318e-14
7.90678e-14
8.782e-14
9.74632e-14
1.08077e-13
1.19749e-13
1.3257e-13
1.46639e-13
1.62062e-13
1.78949e-13
1.97421e-13
2.17603e-13
2.3963e-13
2.63641e-13
2.89785e-13
3.18218e-13
3.49103e-13
3.82609e-13
4.18915e-13
4.58204e-13
5.00666e-13
5.46498e-13
5.95902e-13
6.49082e-13
7.0625e-13
7.67618e-13
8.33402e-13
9.03818e-13
9.79081e-13
1.05941e-12
1.145e-12
1.23608e-12
1.33283e-12
1.43545e-12
1.54412e-12
1.65901e-12
1.78027e-12
1.90804e-12
2.04244e-12
2.18357e-12
2.3315e-12
2.48628e-12
2.64794e-12
2.81646e-12
2.99182e-12
3.17392e-12
3.36268e-12
3.55794e-12
3.75952e-12
3.96719e-12
4.18071e-12
4.39977e-12
4.62402e-12
4.85309e-12
5.08654e-12
5.32392e-12
5.56473e-12
5.80843e-12
6.05445e-12
6.30219e-12
6.551e-12
6.80024e-12
7.04921e-12
7.29721e-12
7.54352e-12
7.7874e-12
8.02812e-12
8.26491e-12
8.49705e-12
8.72377e-12
8.94435e-12
9.15807e-12
9.36422e-12
9.56211e-12
9.75109e-12
9.93053e-12
1.00998e-11
1.02584e-11
1.04057e-11
1.05414e-11
1.06648e-11
1.07757e-11
1.08736e-11
1.09583e-11
1.10294e-11
1.10868e-11
1.11303e-11
1.11598e-11
1.11751e-11
1.11762e-11
1.11631e-11
1.11359e-11
1.10947e-11
1.10394e-11
1.09704e-11
1.08878e-11
1.07918e-11
1.06826e-11
1.05606e-11
1.04261e-11
1.02794e-11
1.01208e-11
9.95083e-12
9.76984e-12
9.57828e-12
9.37663e-12
9.16538e-12
8.94506e-12
8.71621e-12
8.47939e-12
8.23522e-12
7.98431e-12
7.7273e-12
7.46487e-12
7.19773e-12
6.92659e-12
6.65219e-12
6.37532e-12
6.09675e-12
5.81729e-12
5.53777e-12
5.25901e-12
4.98187e-12
4.70717e-12
4.43576e-12
4.16848e-12
3.90614e-12
3.64953e-12
3.39943e-12
3.15656e-12
2.92162e-12
2.69524e-12
2.47802e-12
2.27046e-12
2.07304e-12
1.88612e-12
1.71002e-12
1.54495e-12
1.39106e-12
1.24842e-12
1.117e-12
9.96697e-13
8.87337e-13
7.88666e-13
7.00361e-13
6.22035e-13
5.53242e-13
4.93487e-13
4.42225e-13
3.98877e-13
3.62828e-13
3.33441e-13
3.10061e-13
2.92022e-13
2.78653e-13
2.69286e-13
2.63261e-13
2.59936e-13
2.5869e-13
2.58931e-13
2.60105e-13
2.61698e-13
2.63247e-13
2.64341e-13
2.6463e-13
2.63826e-13
2.61709e-13
2.58125e-13
2.52985e-13
2.46268e-13
2.38013e-13
2.28314e-13
2.17313e-13
2.05192e-13
1.92164e-13
1.78462e-13
1.6433e-13
1.50012e-13
1.35743e-13
1.21743e-13
1.08208e-13
9.53059e-14
8.31734e-14
7.19142e-14
6.15988e-14
5.22664e-14
4.39268e-14
3.65647e-14
3.01429e-14
2.46075e-14
1.98921e-14
1.59218e-14
1.26175e-14
9.89912e-15
7.68835e-15
5.91092e-15
4.49818e-15
3.38805e-15
2.52563e-15
1.86325e-15
1.36028e-15
9.82693e-16
7.02446e-16
4.96811e-16
3.47638e-16
2.40657e-16
1.64807e-16
1.11643e-16
7.48027e-17
4.95625e-17
3.24603e-17
2.09916e-17
1.33652e-17
8.31165e-18
4.9334e-18
2.58935e-18
8.04264e-19
2.96262e-16
8.93159e-16
1.50332e-15
2.13591e-15
2.80043e-15
3.5068e-15
4.26549e-15
5.08766e-15
5.98529e-15
6.97134e-15
8.05991e-15
9.26639e-15
1.06077e-14
1.21023e-14
1.37706e-14
1.56353e-14
1.77212e-14
2.00557e-14
2.26693e-14
2.55955e-14
2.88714e-14
3.25379e-14
3.66403e-14
4.12284e-14
4.63571e-14
5.20871e-14
5.84848e-14
6.56236e-14
7.35837e-14
8.24535e-14
9.23293e-14
1.03317e-13
1.15532e-13
1.29101e-13
1.4416e-13
1.6086e-13
1.79363e-13
1.99846e-13
2.22499e-13
2.4753e-13
2.75162e-13
3.05635e-13
3.39211e-13
3.76166e-13
4.16801e-13
4.61435e-13
5.10411e-13
5.64092e-13
6.22868e-13
6.8715e-13
7.57374e-13
8.34003e-13
9.17521e-13
1.00844e-12
1.1073e-12
1.21465e-12
1.33109e-12
1.45722e-12
1.59367e-12
1.74109e-12
1.90015e-12
2.07154e-12
2.25595e-12
2.45409e-12
2.66669e-12
2.89447e-12
3.13815e-12
3.39845e-12
3.67607e-12
3.97172e-12
4.28607e-12
4.61976e-12
4.97341e-12
5.3476e-12
5.74285e-12
6.15963e-12
6.59836e-12
7.05937e-12
7.54293e-12
8.04923e-12
8.57835e-12
9.13027e-12
9.70488e-12
1.0302e-11
1.09211e-11
1.1562e-11
1.22238e-11
1.2906e-11
1.36076e-11
1.43276e-11
1.5065e-11
1.58183e-11
1.65862e-11
1.73672e-11
1.81595e-11
1.89613e-11
1.97708e-11
2.05859e-11
2.14045e-11
2.22243e-11
2.3043e-11
2.38583e-11
2.46678e-11
2.54689e-11
2.62592e-11
2.70363e-11
2.77975e-11
2.85404e-11
2.92625e-11
2.99615e-11
3.06351e-11
3.12808e-11
3.18967e-11
3.24805e-11
3.30305e-11
3.35446e-11
3.40212e-11
3.44588e-11
3.48559e-11
3.52113e-11
3.55239e-11
3.57926e-11
3.60167e-11
3.61956e-11
3.63288e-11
3.6416e-11
3.64569e-11
3.64516e-11
3.64001e-11
3.63028e-11
3.616e-11
3.59722e-11
3.574e-11
3.54641e-11
3.51455e-11
3.4785e-11
3.43836e-11
3.39425e-11
3.34629e-11
3.2946e-11
3.23932e-11
3.18059e-11
3.11856e-11
3.05337e-11
2.9852e-11
2.91422e-11
2.84058e-11
2.76449e-11
2.68611e-11
2.60565e-11
2.52331e-11
2.43929e-11
2.35381e-11
2.26708e-11
2.17934e-11
2.09081e-11
2.00173e-11
1.91235e-11
1.82291e-11
1.73366e-11
1.64486e-11
1.55677e-11
1.46963e-11
1.3837e-11
1.29924e-11
1.21648e-11
1.13566e-11
1.05702e-11
9.80766e-12
9.07106e-12
8.36227e-12
7.683e-12
7.03477e-12
6.41887e-12
5.83639e-12
5.28817e-12
4.77482e-12
4.29668e-12
3.85385e-12
3.4462e-12
3.07332e-12
2.73459e-12
2.42917e-12
2.156e-12
1.91383e-12
1.70124e-12
1.51665e-12
1.35834e-12
1.2245e-12
1.1132e-12
1.02246e-12
9.50238e-13
8.94473e-13
8.53087e-13
8.24016e-13
8.05228e-13
7.94742e-13
7.90649e-13
7.91134e-13
7.94492e-13
7.99153e-13
8.03694e-13
8.06862e-13
8.07585e-13
8.04985e-13
7.98388e-13
7.87324e-13
7.71528e-13
7.50934e-13
7.25659e-13
6.95992e-13
6.62369e-13
6.25345e-13
5.85569e-13
5.43752e-13
5.00635e-13
4.56964e-13
4.13454e-13
3.70774e-13
3.29519e-13
2.90201e-13
2.53234e-13
2.18933e-13
1.87513e-13
1.5909e-13
1.33695e-13
1.11279e-13
9.1728e-14
7.48778e-14
6.05249e-14
4.84413e-14
3.83856e-14
3.01137e-14
2.33869e-14
1.79792e-14
1.36813e-14
1.03043e-14
7.68095e-15
5.66624e-15
4.13649e-15
2.98814e-15
2.13589e-15
1.51056e-15
1.05696e-15
7.31668e-16
5.01046e-16
3.39406e-16
2.27402e-16
1.50667e-16
9.8675e-17
6.38101e-17
4.06268e-17
2.52649e-17
1.49959e-17
7.8707e-18
2.44472e-18
6.43213e-16
1.93917e-15
3.26403e-15
4.63778e-15
6.08108e-15
7.61556e-15
9.26405e-15
1.10509e-14
1.30022e-14
1.51462e-14
1.75137e-14
2.01383e-14
2.30569e-14
2.63099e-14
2.9942e-14
3.40025e-14
3.85457e-14
4.36317e-14
4.93269e-14
5.57047e-14
6.28463e-14
7.08413e-14
7.97885e-14
8.97972e-14
1.00987e-13
1.13492e-13
1.27456e-13
1.43041e-13
1.60422e-13
1.79792e-13
2.01363e-13
2.25366e-13
2.52054e-13
2.81703e-13
3.14613e-13
3.51112e-13
3.91555e-13
4.36328e-13
4.85848e-13
5.40569e-13
6.00977e-13
6.67599e-13
7.41e-13
8.21787e-13
9.10612e-13
1.00817e-12
1.11521e-12
1.23252e-12
1.36093e-12
1.50136e-12
1.65472e-12
1.82204e-12
2.00434e-12
2.20274e-12
2.41838e-12
2.65247e-12
2.90626e-12
3.18103e-12
3.47814e-12
3.79895e-12
4.14488e-12
4.51737e-12
4.91789e-12
5.34792e-12
5.80894e-12
6.30244e-12
6.8299e-12
7.39277e-12
7.99249e-12
8.63042e-12
9.3079e-12
1.00262e-11
1.07864e-11
1.15896e-11
1.24367e-11
1.33286e-11
1.4266e-11
1.52492e-11
1.62786e-11
1.73543e-11
1.84762e-11
1.9644e-11
2.08571e-11
2.21146e-11
2.34154e-11
2.47583e-11
2.61414e-11
2.75629e-11
2.90205e-11
3.05117e-11
3.20337e-11
3.35834e-11
3.51574e-11
3.67519e-11
3.83632e-11
3.99871e-11
4.16192e-11
4.3255e-11
4.48897e-11
4.65184e-11
4.81361e-11
4.97377e-11
5.13181e-11
5.2872e-11
5.43943e-11
5.58798e-11
5.73235e-11
5.87204e-11
6.00656e-11
6.13545e-11
6.25826e-11
6.37457e-11
6.48398e-11
6.58612e-11
6.68064e-11
6.76723e-11
6.84561e-11
6.91555e-11
6.97682e-11
7.02926e-11
7.07271e-11
7.10708e-11
7.1323e-11
7.14831e-11
7.15513e-11
7.15278e-11
7.1413e-11
7.1208e-11
7.09138e-11
7.05317e-11
7.00635e-11
6.9511e-11
6.88761e-11
6.81612e-11
6.73686e-11
6.65008e-11
6.55606e-11
6.45506e-11
6.34739e-11
6.23333e-11
6.11321e-11
5.98733e-11
5.85602e-11
5.71961e-11
5.57843e-11
5.43284e-11
5.28318e-11
5.1298e-11
4.97308e-11
4.81338e-11
4.65109e-11
4.48657e-11
4.32024e-11
4.15247e-11
3.9837e-11
3.81431e-11
3.64474e-11
3.47541e-11
3.30674e-11
3.13917e-11
2.97313e-11
2.80906e-11
2.64738e-11
2.48851e-11
2.33288e-11
2.18089e-11
2.03293e-11
1.88937e-11
1.75055e-11
1.61682e-11
1.48846e-11
1.36574e-11
1.2489e-11
1.13813e-11
1.03359e-11
9.35385e-12
8.43598e-12
7.58257e-12
6.7935e-12
6.06822e-12
5.40579e-12
4.80486e-12
4.26369e-12
3.78021e-12
3.35205e-12
2.97652e-12
2.65069e-12
2.37143e-12
2.13541e-12
1.93918e-12
1.77916e-12
1.65171e-12
1.55316e-12
1.47983e-12
1.42808e-12
1.39433e-12
1.37512e-12
1.36708e-12
1.36707e-12
1.37211e-12
1.37947e-12
1.38667e-12
1.39156e-12
1.39227e-12
1.38729e-12
1.37546e-12
1.35597e-12
1.32836e-12
1.29253e-12
1.24868e-12
1.19731e-12
1.13918e-12
1.07523e-12
1.0066e-12
9.34498e-13
8.60203e-13
7.84994e-13
7.10101e-13
6.36667e-13
5.65715e-13
4.98118e-13
4.34585e-13
3.75652e-13
3.21684e-13
2.72878e-13
2.29282e-13
1.90809e-13
1.57261e-13
1.28354e-13
1.03736e-13
8.30138e-14
6.57727e-14
5.15925e-14
4.0063e-14
3.07957e-14
2.34314e-14
1.76458e-14
1.31521e-14
9.70139e-15
7.08159e-15
5.11519e-15
3.65597e-15
2.58541e-15
1.80891e-15
1.25211e-15
8.57389e-16
5.80755e-16
3.89083e-16
2.57777e-16
1.68816e-16
1.09163e-16
6.94997e-17
4.32189e-17
2.56518e-17
1.34634e-17
4.18188e-18
1.27595e-15
3.84686e-15
6.47538e-15
9.20129e-15
1.20658e-14
1.5112e-14
1.83854e-14
2.19346e-14
2.58116e-14
3.00729e-14
3.47798e-14
3.99997e-14
4.58059e-14
5.22796e-14
5.95099e-14
6.75955e-14
7.6645e-14
8.67787e-14
9.81297e-14
1.10845e-13
1.25087e-13
1.41035e-13
1.58887e-13
1.78863e-13
2.01203e-13
2.26173e-13
2.54065e-13
2.85201e-13
3.19934e-13
3.5865e-13
4.01773e-13
4.49769e-13
5.03142e-13
5.62448e-13
6.28288e-13
7.01318e-13
7.8225e-13
8.71857e-13
9.70975e-13
1.08051e-12
1.20143e-12
1.3348e-12
1.48174e-12
1.64347e-12
1.82127e-12
2.01655e-12
2.23078e-12
2.46553e-12
2.72247e-12
3.00338e-12
3.31011e-12
3.64465e-12
4.00905e-12
4.40548e-12
4.83619e-12
5.30355e-12
5.80998e-12
6.35802e-12
6.95024e-12
7.58931e-12
8.27795e-12
9.01891e-12
9.81497e-12
1.06689e-11
1.15836e-11
1.25617e-11
1.3606e-11
1.47191e-11
1.59036e-11
1.7162e-11
1.84965e-11
1.99093e-11
2.14022e-11
2.29769e-11
2.46348e-11
2.63771e-11
2.82045e-11
3.01173e-11
3.21157e-11
3.4199e-11
3.63666e-11
3.86169e-11
4.09481e-11
4.33577e-11
4.5843e-11
4.84002e-11
5.10254e-11
5.37139e-11
5.64605e-11
5.92593e-11
6.21042e-11
6.49882e-11
6.7904e-11
7.08437e-11
7.3799e-11
7.67613e-11
7.97216e-11
8.26704e-11
8.55983e-11
8.84955e-11
9.13521e-11
9.41582e-11
9.69038e-11
9.95792e-11
1.02175e-10
1.04681e-10
1.07088e-10
1.09388e-10
1.11572e-10
1.13633e-10
1.15562e-10
1.17353e-10
1.19e-10
1.20497e-10
1.2184e-10
1.23023e-10
1.24044e-10
1.249e-10
1.25588e-10
1.26109e-10
1.26459e-10
1.26641e-10
1.26654e-10
1.26501e-10
1.26182e-10
1.25701e-10
1.2506e-10
1.24264e-10
1.23315e-10
1.2222e-10
1.20981e-10
1.19605e-10
1.18097e-10
1.16462e-10
1.14705e-10
1.12834e-10
1.10854e-10
1.08771e-10
1.06591e-10
1.04321e-10
1.01967e-10
9.95341e-11
9.703e-11
9.44604e-11
9.18316e-11
8.91498e-11
8.64212e-11
8.3652e-11
8.08484e-11
7.80166e-11
7.51626e-11
7.22928e-11
6.94133e-11
6.65304e-11
6.36501e-11
6.07789e-11
5.79228e-11
5.50883e-11
5.22815e-11
4.95087e-11
4.6776e-11
4.40896e-11
4.14554e-11
3.88794e-11
3.63672e-11
3.39244e-11
3.15562e-11
2.92675e-11
2.70629e-11
2.49466e-11
2.29224e-11
2.09936e-11
1.91628e-11
1.74324e-11
1.58038e-11
1.42783e-11
1.2856e-11
1.15368e-11
1.032e-11
9.20388e-12
8.18659e-12
7.26549e-12
6.43746e-12
5.6989e-12
5.04579e-12
4.47369e-12
3.97786e-12
3.55324e-12
3.19459e-12
2.89645e-12
2.65326e-12
2.45939e-12
2.30919e-12
2.19703e-12
2.11738e-12
2.06481e-12
2.03408e-12
2.02018e-12
2.01835e-12
2.02416e-12
2.03354e-12
2.04282e-12
2.04879e-12
2.0487e-12
2.04032e-12
2.02194e-12
1.99237e-12
1.95096e-12
1.89753e-12
1.83242e-12
1.75636e-12
1.67046e-12
1.57613e-12
1.475e-12
1.36889e-12
1.25965e-12
1.14915e-12
1.03919e-12
9.31449e-13
8.27406e-13
7.28335e-13
6.35267e-13
5.48977e-13
4.69988e-13
3.98584e-13
3.34824e-13
2.78577e-13
2.29548e-13
1.87312e-13
1.51355e-13
1.21097e-13
9.5928e-14
7.52326e-14
5.84099e-14
4.4891e-14
3.41505e-14
2.57142e-14
1.9163e-14
1.41332e-14
1.03152e-14
7.44996e-15
5.32405e-15
3.76461e-15
2.63367e-15
1.82281e-15
1.24806e-15
8.45303e-16
5.66274e-16
3.75142e-16
2.4566e-16
1.58844e-16
1.01124e-16
6.28816e-17
3.73208e-17
1.95874e-17
6.08403e-18
2.45262e-15
7.39458e-15
1.24478e-14
1.76893e-14
2.31985e-14
2.90588e-14
3.53581e-14
4.21903e-14
4.96563e-14
5.78653e-14
6.69362e-14
7.69991e-14
8.81967e-14
1.00686e-13
1.1464e-13
1.3025e-13
1.47727e-13
1.67305e-13
1.89242e-13
2.13823e-13
2.41365e-13
2.72217e-13
3.06764e-13
3.45431e-13
3.88688e-13
4.37051e-13
4.91091e-13
5.51431e-13
6.1876e-13
6.93831e-13
7.77469e-13
8.70578e-13
9.74145e-13
1.08925e-12
1.21706e-12
1.35885e-12
1.51601e-12
1.69004e-12
1.88258e-12
2.09536e-12
2.3303e-12
2.58944e-12
2.87495e-12
3.1892e-12
3.53469e-12
3.91413e-12
4.33035e-12
4.7864e-12
5.28551e-12
5.83108e-12
6.4267e-12
7.07613e-12
7.78335e-12
8.55249e-12
9.38784e-12
1.02939e-11
1.12752e-11
1.23367e-11
1.3483e-11
1.47193e-11
1.60506e-11
1.7482e-11
1.90186e-11
2.06655e-11
2.24278e-11
2.43105e-11
2.63184e-11
2.84562e-11
3.07282e-11
3.31387e-11
3.56914e-11
3.83897e-11
4.12365e-11
4.42342e-11
4.73846e-11
5.06889e-11
5.41474e-11
5.77599e-11
6.15251e-11
6.5441e-11
6.95045e-11
7.37118e-11
7.80578e-11
8.25364e-11
8.71405e-11
9.18619e-11
9.66913e-11
1.01618e-10
1.06631e-10
1.11718e-10
1.16865e-10
1.22058e-10
1.27281e-10
1.32519e-10
1.37754e-10
1.4297e-10
1.48147e-10
1.53269e-10
1.58316e-10
1.6327e-10
1.68112e-10
1.72824e-10
1.77387e-10
1.81783e-10
1.85996e-10
1.90009e-10
1.93805e-10
1.97371e-10
2.00693e-10
2.03757e-10
2.06553e-10
2.09071e-10
2.11302e-10
2.13238e-10
2.14874e-10
2.16206e-10
2.1723e-10
2.17946e-10
2.18353e-10
2.18452e-10
2.18247e-10
2.17742e-10
2.16941e-10
2.15851e-10
2.1448e-10
2.12835e-10
2.10925e-10
2.08762e-10
2.06354e-10
2.03714e-10
2.00852e-10
1.97781e-10
1.94513e-10
1.91059e-10
1.87433e-10
1.83647e-10
1.79712e-10
1.75643e-10
1.71449e-10
1.67144e-10
1.6274e-10
1.58247e-10
1.53677e-10
1.49042e-10
1.44351e-10
1.39615e-10
1.34845e-10
1.30051e-10
1.25242e-10
1.20428e-10
1.15618e-10
1.10822e-10
1.06047e-10
1.01305e-10
9.66016e-11
9.19471e-11
8.73496e-11
8.28175e-11
7.83589e-11
7.39818e-11
6.96941e-11
6.55036e-11
6.14177e-11
5.74436e-11
5.35881e-11
4.98578e-11
4.62587e-11
4.27966e-11
3.94764e-11
3.63028e-11
3.32797e-11
3.04102e-11
2.76968e-11
2.51412e-11
2.27443e-11
2.05063e-11
1.84262e-11
1.65027e-11
1.47332e-11
1.31146e-11
1.1643e-11
1.03135e-11
9.12101e-12
8.05946e-12
7.1224e-12
6.30288e-12
5.59355e-12
4.98676e-12
4.47459e-12
4.04895e-12
3.70167e-12
3.42451e-12
3.2093e-12
3.04793e-12
2.93248e-12
2.85525e-12
2.8088e-12
2.78607e-12
2.78038e-12
2.78555e-12
2.79589e-12
2.80631e-12
2.81237e-12
2.81027e-12
2.79694e-12
2.77004e-12
2.72794e-12
2.66975e-12
2.59527e-12
2.50494e-12
2.39979e-12
2.28133e-12
2.15152e-12
2.01259e-12
1.86699e-12
1.71728e-12
1.56601e-12
1.41561e-12
1.26836e-12
1.12627e-12
9.91058e-13
8.64119e-13
7.46493e-13
6.38878e-13
5.41644e-13
4.54862e-13
3.78338e-13
3.11662e-13
2.54249e-13
2.05388e-13
1.64286e-13
1.30109e-13
1.02015e-13
7.91857e-14
6.0845e-14
4.62778e-14
3.48388e-14
2.59579e-14
1.91412e-14
1.39679e-14
1.00864e-14
7.20706e-15
5.09532e-15
3.56412e-15
2.46648e-15
1.68857e-15
1.14353e-15
7.65975e-16
5.0739e-16
3.32232e-16
2.14805e-16
1.3674e-16
8.50236e-17
5.04599e-17
2.64824e-17
8.22557e-18
4.62851e-15
1.39552e-14
2.34931e-14
3.33881e-14
4.37913e-14
5.48608e-14
6.67638e-14
7.96784e-14
9.37965e-14
1.09326e-13
1.26493e-13
1.45544e-13
1.66753e-13
1.90418e-13
2.16868e-13
2.46469e-13
2.79623e-13
3.16777e-13
3.58423e-13
4.05106e-13
4.57432e-13
5.16066e-13
5.81745e-13
6.55284e-13
7.37579e-13
8.2962e-13
9.32496e-13
1.0474e-12
1.17566e-12
1.31871e-12
1.47812e-12
1.65564e-12
1.85315e-12
2.07271e-12
2.31657e-12
2.58717e-12
2.88717e-12
3.21943e-12
3.58708e-12
3.99347e-12
4.44223e-12
4.93724e-12
5.48271e-12
6.08311e-12
6.74325e-12
7.46823e-12
8.2635e-12
9.13483e-12
1.00883e-11
1.11305e-11
1.22681e-11
1.35082e-11
1.48584e-11
1.63265e-11
1.79204e-11
1.96486e-11
2.15196e-11
2.35425e-11
2.57261e-11
2.80797e-11
3.06125e-11
3.3334e-11
3.62533e-11
3.93798e-11
4.27224e-11
4.629e-11
5.00909e-11
5.41333e-11
5.84245e-11
6.29714e-11
6.778e-11
7.28555e-11
7.8202e-11
8.38226e-11
8.97192e-11
9.5892e-11
1.0234e-10
1.09061e-10
1.1605e-10
1.23302e-10
1.30807e-10
1.38557e-10
1.4654e-10
1.54741e-10
1.63145e-10
1.71733e-10
1.80485e-10
1.8938e-10
1.98392e-10
2.07497e-10
2.16667e-10
2.25872e-10
2.35081e-10
2.44263e-10
2.53385e-10
2.62412e-10
2.71311e-10
2.80046e-10
2.88583e-10
2.96886e-10
3.04921e-10
3.12656e-10
3.20057e-10
3.27093e-10
3.33734e-10
3.39953e-10
3.45723e-10
3.51022e-10
3.55827e-10
3.6012e-10
3.63885e-10
3.67109e-10
3.69781e-10
3.71895e-10
3.73445e-10
3.7443e-10
3.74851e-10
3.74713e-10
3.74022e-10
3.72787e-10
3.71021e-10
3.68736e-10
3.65949e-10
3.62677e-10
3.58941e-10
3.54761e-10
3.50158e-10
3.45156e-10
3.39779e-10
3.3405e-10
3.27996e-10
3.2164e-10
3.15008e-10
3.08125e-10
3.01014e-10
2.93701e-10
2.86209e-10
2.78561e-10
2.70779e-10
2.62885e-10
2.549e-10
2.46844e-10
2.38735e-10
2.30593e-10
2.22435e-10
2.14277e-10
2.06135e-10
1.98025e-10
1.89961e-10
1.81957e-10
1.74026e-10
1.66181e-10
1.58433e-10
1.50795e-10
1.43278e-10
1.35892e-10
1.28647e-10
1.21555e-10
1.14624e-10
1.07863e-10
1.01283e-10
9.48901e-11
8.86937e-11
8.27011e-11
7.69195e-11
7.13554e-11
6.60147e-11
6.09026e-11
5.60237e-11
5.13816e-11
4.69792e-11
4.28184e-11
3.89e-11
3.52241e-11
3.17894e-11
2.85939e-11
2.56342e-11
2.29062e-11
2.04046e-11
1.8123e-11
1.60543e-11
1.41905e-11
1.25227e-11
1.10414e-11
9.73644e-12
8.59726e-12
7.61278e-12
6.77163e-12
6.06226e-12
5.47295e-12
4.992e-12
4.60772e-12
4.3086e-12
4.08333e-12
3.92089e-12
3.81067e-12
3.74247e-12
3.70664e-12
3.69413e-12
3.69656e-12
3.70628e-12
3.71646e-12
3.72115e-12
3.7153e-12
3.69484e-12
3.65665e-12
3.59861e-12
3.51956e-12
3.41924e-12
3.29825e-12
3.15797e-12
3.00042e-12
2.82815e-12
2.64414e-12
2.45162e-12
2.25392e-12
2.0544e-12
1.85623e-12
1.6624e-12
1.47552e-12
1.29784e-12
1.13114e-12
9.76777e-13
8.35642e-13
7.08198e-13
5.94516e-13
4.94326e-13
4.07071e-13
3.31974e-13
2.68092e-13
2.14377e-13
1.6973e-13
1.33044e-13
1.03243e-13
7.93097e-14
6.03068e-14
4.53894e-14
3.38114e-14
2.49268e-14
1.81862e-14
1.31299e-14
9.38001e-15
6.63042e-15
4.63715e-15
3.20855e-15
2.19628e-15
1.48716e-15
9.96027e-16
6.59703e-16
4.3192e-16
2.79231e-16
1.77737e-16
1.10507e-16
6.55803e-17
3.44166e-17
1.06898e-17
8.60303e-15
2.59394e-14
4.36707e-14
6.20698e-14
8.14192e-14
1.02015e-13
1.24169e-13
1.48216e-13
1.74516e-13
2.03456e-13
2.35462e-13
2.70998e-13
3.10575e-13
3.54753e-13
4.04154e-13
4.59462e-13
5.21435e-13
5.90912e-13
6.68821e-13
7.5619e-13
8.54155e-13
9.63975e-13
1.08704e-12
1.22488e-12
1.37919e-12
1.55184e-12
1.74488e-12
1.96057e-12
2.2014e-12
2.4701e-12
2.76964e-12
3.10329e-12
3.47463e-12
3.88756e-12
4.34631e-12
4.8555e-12
5.42014e-12
6.04566e-12
6.73794e-12
7.50333e-12
8.34865e-12
9.28128e-12
1.03091e-11
1.14405e-11
1.26847e-11
1.40511e-11
1.55501e-11
1.71924e-11
1.89896e-11
2.09538e-11
2.30976e-11
2.54345e-11
2.79782e-11
3.07434e-11
3.37451e-11
3.69986e-11
4.052e-11
4.43256e-11
4.84319e-11
5.28556e-11
5.76138e-11
6.27232e-11
6.82006e-11
7.40623e-11
8.03244e-11
8.70022e-11
9.41102e-11
1.01662e-10
1.0967e-10
1.18145e-10
1.27097e-10
1.36533e-10
1.46458e-10
1.56876e-10
1.67787e-10
1.79189e-10
1.91077e-10
2.03443e-10
2.16274e-10
2.29556e-10
2.43271e-10
2.57394e-10
2.71901e-10
2.8676e-10
3.01938e-10
3.17397e-10
3.33095e-10
3.48986e-10
3.65021e-10
3.8115e-10
3.97316e-10
4.13461e-10
4.29527e-10
4.4545e-10
4.61168e-10
4.76616e-10
4.9173e-10
5.06444e-10
5.20694e-10
5.34417e-10
5.47552e-10
5.60039e-10
5.71822e-10
5.82847e-10
5.93065e-10
6.02429e-10
6.109e-10
6.1844e-10
6.25019e-10
6.30611e-10
6.35196e-10
6.3876e-10
6.41294e-10
6.42795e-10
6.43266e-10
6.42715e-10
6.41157e-10
6.38608e-10
6.35094e-10
6.30641e-10
6.25283e-10
6.19053e-10
6.11992e-10
6.04141e-10
5.95545e-10
5.86249e-10
5.76301e-10
5.65749e-10
5.54643e-10
5.43033e-10
5.30967e-10
5.18496e-10
5.05666e-10
4.92526e-10
4.79121e-10
4.65496e-10
4.51693e-10
4.37753e-10
4.23716e-10
4.09617e-10
3.95493e-10
3.81376e-10
3.67298e-10
3.53286e-10
3.39368e-10
3.25569e-10
3.11913e-10
2.98421e-10
2.85112e-10
2.72006e-10
2.5912e-10
2.4647e-10
2.3407e-10
2.21934e-10
2.10075e-10
1.98504e-10
1.87233e-10
1.76272e-10
1.65631e-10
1.55317e-10
1.4534e-10
1.35708e-10
1.26426e-10
1.175e-10
1.08937e-10
1.00741e-10
9.29154e-11
8.54628e-11
7.83851e-11
7.16831e-11
6.53564e-11
5.94034e-11
5.38214e-11
4.86063e-11
4.37528e-11
3.92544e-11
3.51034e-11
3.12905e-11
2.78056e-11
2.46373e-11
2.17733e-11
1.92001e-11
1.69036e-11
1.48689e-11
1.30804e-11
1.15222e-11
1.01778e-11
9.03069e-12
8.06422e-12
7.2617e-12
6.60658e-12
6.08256e-12
5.67366e-12
5.36433e-12
5.13953e-12
4.98485e-12
4.88654e-12
4.83167e-12
4.80814e-12
4.80484e-12
4.81165e-12
4.81959e-12
4.82084e-12
4.80882e-12
4.77822e-12
4.72502e-12
4.64646e-12
4.54108e-12
4.40856e-12
4.24972e-12
4.06633e-12
3.86104e-12
3.63717e-12
3.39853e-12
3.14928e-12
2.89373e-12
2.63614e-12
2.38063e-12
2.13096e-12
1.89048e-12
1.66203e-12
1.44789e-12
1.24974e-12
1.0687e-12
9.05331e-13
7.59696e-13
6.3142e-13
5.19769e-13
4.23726e-13
3.42066e-13
2.73436e-13
2.16417e-13
1.69587e-13
1.3156e-13
1.01033e-13
7.68038e-14
5.77902e-14
4.3038e-14
3.17212e-14
2.31379e-14
1.67012e-14
1.19289e-14
8.43045e-15
5.89495e-15
4.07814e-15
2.79106e-15
1.88961e-15
1.2654e-15
8.38007e-16
5.48593e-16
3.54621e-16
2.25704e-16
1.40319e-16
8.32665e-17
4.36963e-17
1.35717e-17
1.57625e-14
4.75278e-14
8.00215e-14
1.13747e-13
1.49224e-13
1.87e-13
2.27652e-13
2.71796e-13
3.20096e-13
3.73271e-13
4.32108e-13
4.97464e-13
5.70285e-13
6.51611e-13
7.42593e-13
8.445e-13
9.5874e-13
1.08687e-12
1.23061e-12
1.39187e-12
1.57277e-12
1.77565e-12
2.00308e-12
2.25793e-12
2.54335e-12
2.8628e-12
3.22013e-12
3.61955e-12
4.06568e-12
4.56361e-12
5.1189e-12
5.73764e-12
6.42651e-12
7.19277e-12
8.04433e-12
8.98981e-12
1.00386e-11
1.12007e-11
1.24872e-11
1.39099e-11
1.54815e-11
1.72159e-11
1.91275e-11
2.12323e-11
2.3547e-11
2.60895e-11
2.88789e-11
3.19353e-11
3.528e-11
3.89355e-11
4.29252e-11
4.72739e-11
5.20072e-11
5.71518e-11
6.27353e-11
6.87861e-11
7.53334e-11
8.24068e-11
9.00365e-11
9.82529e-11
1.07086e-10
1.16567e-10
1.26725e-10
1.37588e-10
1.49186e-10
1.61544e-10
1.74687e-10
1.88639e-10
2.03419e-10
2.19044e-10
2.35529e-10
2.52884e-10
2.71114e-10
2.90222e-10
3.10203e-10
3.31049e-10
3.52745e-10
3.75269e-10
3.98594e-10
4.22685e-10
4.47502e-10
4.72996e-10
4.99112e-10
5.25785e-10
5.52947e-10
5.8052e-10
6.08421e-10
6.36559e-10
6.64837e-10
6.93154e-10
7.21403e-10
7.49472e-10
7.77248e-10
8.04613e-10
8.31447e-10
8.57632e-10
8.83048e-10
9.07576e-10
9.311e-10
9.53508e-10
9.74693e-10
9.9455e-10
1.01298e-09
1.02991e-09
1.04524e-09
1.0589e-09
1.07084e-09
1.08099e-09
1.08933e-09
1.09581e-09
1.10043e-09
1.10316e-09
1.10401e-09
1.103e-09
1.10015e-09
1.09549e-09
1.08906e-09
1.08092e-09
1.07113e-09
1.05976e-09
1.04688e-09
1.03257e-09
1.01691e-09
1e-09
9.8193e-10
9.6279e-10
9.4268e-10
9.21694e-10
8.99929e-10
8.77481e-10
8.54443e-10
8.30906e-10
8.0696e-10
7.82689e-10
7.58176e-10
7.33498e-10
7.08729e-10
6.83939e-10
6.59192e-10
6.3455e-10
6.10068e-10
5.85798e-10
5.61787e-10
5.38079e-10
5.14713e-10
4.91723e-10
4.69142e-10
4.46997e-10
4.25315e-10
4.04118e-10
3.83425e-10
3.63253e-10
3.43618e-10
3.24532e-10
3.06008e-10
2.88054e-10
2.70679e-10
2.5389e-10
2.37692e-10
2.22092e-10
2.07091e-10
1.92693e-10
1.789e-10
1.65712e-10
1.53129e-10
1.41149e-10
1.29771e-10
1.1899e-10
1.08802e-10
9.92011e-11
9.01799e-11
8.17297e-11
7.38405e-11
6.65009e-11
5.96978e-11
5.34171e-11
4.76429e-11
4.23582e-11
3.75447e-11
3.31828e-11
2.9252e-11
2.57308e-11
2.25967e-11
1.9827e-11
1.7398e-11
1.52861e-11
1.34674e-11
1.19178e-11
1.06135e-11
9.53109e-12
8.64736e-12
7.93972e-12
7.38624e-12
6.96571e-12
6.6578e-12
6.44311e-12
6.30332e-12
6.22123e-12
6.18087e-12
6.16763e-12
6.16829e-12
6.17115e-12
6.16608e-12
6.14457e-12
6.09981e-12
6.02662e-12
5.92154e-12
5.78268e-12
5.6097e-12
5.40366e-12
5.16686e-12
4.9027e-12
4.6154e-12
4.30983e-12
3.99129e-12
3.66521e-12
3.33702e-12
3.01186e-12
2.69451e-12
2.38916e-12
2.09936e-12
1.82795e-12
1.57702e-12
1.34793e-12
1.14136e-12
9.57327e-13
7.95339e-13
6.54431e-13
5.33291e-13
4.30349e-13
3.43878e-13
2.72073e-13
2.13125e-13
1.65281e-13
1.26889e-13
9.64292e-14
7.25358e-14
5.40043e-14
3.97934e-14
2.90185e-14
2.09409e-14
1.49536e-14
1.05658e-14
7.38661e-15
5.1091e-15
3.49603e-15
2.3665e-15
1.5845e-15
1.04919e-15
6.86751e-16
4.43878e-16
2.82483e-16
1.75603e-16
1.04197e-16
5.46775e-17
1.6982e-17
2.84759e-14
8.5865e-14
1.44579e-13
2.05533e-13
2.69676e-13
3.38e-13
4.11557e-13
4.9147e-13
5.7895e-13
6.75308e-13
7.81977e-13
9.00527e-13
1.03268e-12
1.18035e-12
1.34563e-12
1.53084e-12
1.73857e-12
1.97166e-12
2.23328e-12
2.52693e-12
2.85648e-12
3.22623e-12
3.64093e-12
4.10581e-12
4.62668e-12
5.20993e-12
5.86259e-12
6.59243e-12
7.40795e-12
8.31853e-12
9.3344e-12
1.04668e-11
1.1728e-11
1.31314e-11
1.46916e-11
1.64244e-11
1.83472e-11
2.04785e-11
2.28386e-11
2.54493e-11
2.83341e-11
3.15182e-11
3.50288e-11
3.88948e-11
4.31472e-11
4.7819e-11
5.2945e-11
5.85625e-11
6.47103e-11
7.14298e-11
7.8764e-11
8.6758e-11
9.54588e-11
1.04915e-10
1.15177e-10
1.26296e-10
1.38325e-10
1.51318e-10
1.6533e-10
1.80413e-10
1.96624e-10
2.14015e-10
2.32639e-10
2.52546e-10
2.73786e-10
2.96404e-10
3.20442e-10
3.45937e-10
3.72922e-10
4.01424e-10
4.31462e-10
4.6305e-10
4.96192e-10
5.30883e-10
5.67108e-10
6.04843e-10
6.4405e-10
6.84683e-10
7.26681e-10
7.6997e-10
8.14464e-10
8.60064e-10
9.06656e-10
9.54114e-10
1.0023e-09
1.05106e-09
1.10023e-09
1.14963e-09
1.19909e-09
1.24839e-09
1.29735e-09
1.34575e-09
1.39338e-09
1.44002e-09
1.48544e-09
1.52944e-09
1.57179e-09
1.61229e-09
1.65072e-09
1.68689e-09
1.72061e-09
1.75172e-09
1.78004e-09
1.80543e-09
1.82778e-09
1.84696e-09
1.86288e-09
1.87549e-09
1.88472e-09
1.89056e-09
1.89299e-09
1.89202e-09
1.8877e-09
1.88008e-09
1.86922e-09
1.85523e-09
1.83821e-09
1.81828e-09
1.79558e-09
1.77026e-09
1.74248e-09
1.71241e-09
1.68021e-09
1.64608e-09
1.61019e-09
1.57273e-09
1.53388e-09
1.49383e-09
1.45275e-09
1.41083e-09
1.36822e-09
1.3251e-09
1.28163e-09
1.23794e-09
1.19419e-09
1.15049e-09
1.10699e-09
1.06378e-09
1.02098e-09
9.78674e-10
9.36953e-10
8.95894e-10
8.55563e-10
8.16023e-10
7.77326e-10
7.39517e-10
7.02636e-10
6.66715e-10
6.31781e-10
5.97856e-10
5.64958e-10
5.33099e-10
5.02288e-10
4.72533e-10
4.43835e-10
4.16196e-10
3.89614e-10
3.64085e-10
3.39603e-10
3.16163e-10
2.93755e-10
2.7237e-10
2.51998e-10
2.32627e-10
2.14243e-10
1.96832e-10
1.8038e-10
1.6487e-10
1.50285e-10
1.36604e-10
1.23809e-10
1.11877e-10
1.00786e-10
9.05105e-11
8.10249e-11
7.23017e-11
6.43123e-11
5.70266e-11
5.04135e-11
4.44407e-11
3.90752e-11
3.4283e-11
3.00297e-11
2.62805e-11
2.30005e-11
2.01547e-11
1.77085e-11
1.56274e-11
1.38778e-11
1.24267e-11
1.12418e-11
1.02922e-11
9.5478e-12
8.97991e-12
8.56116e-12
8.26566e-12
8.06904e-12
7.94863e-12
7.88347e-12
7.85446e-12
7.84444e-12
7.83827e-12
7.8229e-12
7.78743e-12
7.72314e-12
7.62348e-12
7.48404e-12
7.3025e-12
7.07844e-12
6.81325e-12
6.50989e-12
6.17265e-12
5.80692e-12
5.41884e-12
5.01506e-12
4.60243e-12
4.18773e-12
3.77743e-12
3.37744e-12
2.99301e-12
2.62852e-12
2.28748e-12
1.97245e-12
1.68507e-12
1.42613e-12
1.19562e-12
9.92859e-13
8.16596e-13
6.65154e-13
5.36537e-13
4.28559e-13
3.38941e-13
2.65407e-13
2.05754e-13
1.57907e-13
1.19962e-13
9.02096e-14
6.71428e-14
4.94605e-14
3.60582e-14
2.60143e-14
1.8572e-14
1.31195e-14
9.16988e-15
6.34124e-15
4.33833e-15
2.93614e-15
1.96559e-15
1.30133e-15
8.51678e-16
5.5041e-16
3.50242e-16
2.17705e-16
1.29169e-16
6.7778e-17
2.10502e-17
5.07304e-14
1.52976e-13
2.57599e-13
3.66243e-13
4.80609e-13
6.02481e-13
7.33747e-13
8.76428e-13
1.0327e-12
1.20492e-12
1.39568e-12
1.60779e-12
1.84438e-12
2.10887e-12
2.40506e-12
2.73715e-12
3.1098e-12
3.52816e-12
3.99796e-12
4.52553e-12
5.11789e-12
5.78282e-12
6.52893e-12
7.36574e-12
8.30375e-12
9.35458e-12
1.0531e-11
1.18471e-11
1.33184e-11
1.49619e-11
1.67962e-11
1.88418e-11
2.1121e-11
2.36582e-11
2.64799e-11
2.96151e-11
3.30951e-11
3.69539e-11
4.12285e-11
4.59585e-11
5.11867e-11
5.69591e-11
6.33251e-11
7.03375e-11
7.80525e-11
8.65302e-11
9.58342e-11
1.06032e-10
1.17194e-10
1.29395e-10
1.42714e-10
1.57232e-10
1.73034e-10
1.90209e-10
2.08845e-10
2.29038e-10
2.5088e-10
2.7447e-10
2.99902e-10
3.27275e-10
3.56685e-10
3.88226e-10
4.2199e-10
4.58065e-10
4.96535e-10
5.37478e-10
5.80965e-10
6.27056e-10
6.75803e-10
7.27248e-10
7.81416e-10
8.38321e-10
8.9796e-10
9.60312e-10
1.02534e-09
1.09298e-09
1.16315e-09
1.23576e-09
1.31067e-09
1.38774e-09
1.46679e-09
1.54763e-09
1.63003e-09
1.71374e-09
1.79849e-09
1.884e-09
1.96994e-09
2.05598e-09
2.14178e-09
2.22696e-09
2.31115e-09
2.39396e-09
2.47499e-09
2.55384e-09
2.63013e-09
2.70344e-09
2.77341e-09
2.83965e-09
2.9018e-09
2.95953e-09
3.01252e-09
3.06048e-09
3.10314e-09
3.14029e-09
3.17171e-09
3.19726e-09
3.21682e-09
3.23029e-09
3.23764e-09
3.23887e-09
3.23402e-09
3.22315e-09
3.20638e-09
3.18387e-09
3.15578e-09
3.12234e-09
3.08378e-09
3.04038e-09
2.99241e-09
2.94019e-09
2.88404e-09
2.82428e-09
2.76127e-09
2.69534e-09
2.62686e-09
2.55615e-09
2.48357e-09
2.40944e-09
2.3341e-09
2.25786e-09
2.18101e-09
2.10385e-09
2.02663e-09
1.94962e-09
1.87305e-09
1.79713e-09
1.72206e-09
1.64801e-09
1.57516e-09
1.50363e-09
1.43355e-09
1.36504e-09
1.29819e-09
1.23306e-09
1.16974e-09
1.10826e-09
1.04867e-09