/*--------------------------------*- C++ -*----------------------------------*\
| =========                 |                                                 |
| \\      /  F ield         | OpenFOAM: The Open Source CFD Toolbox           |
|  \\    /   O peration     | Version:  v2012                                 |
|   \\  /    A nd           | Website:  www.openfoam.com                      |
|    \\/     M anipulation  |                                                 |
\*---------------------------------------------------------------------------*/
FoamFile
{
    version     2.0;
    format      ascii;
    class       volVectorField;
    location    "10.7";
    object      U;
}
// * * * * * * * * * * * * * * * * * * * * * * * * * * * * * * * * * * * * * //

dimensions      [0 1 -1 0 0 0 0];


internalField   nonuniform List<vector> 
65536
(
(0.000743654 -0.000743664 0)
(0.00223098 -0.000743687 0)
(0.00371838 -0.000743731 0)
(0.00520589 -0.000743796 0)
(0.00669355 -0.000743883 0)
(0.0081814 -0.00074399 0)
(0.00966949 -0.000744117 0)
(0.0111578 -0.000744263 0)
(0.0126465 -0.000744426 0)
(0.0141355 -0.000744606 0)
(0.0156249 -0.000744801 0)
(0.0171147 -0.00074501 0)
(0.018605 -0.00074523 0)
(0.0200956 -0.000745461 0)
(0.0215868 -0.0007457 0)
(0.0230784 -0.000745945 0)
(0.0245706 -0.000746193 0)
(0.0260632 -0.000746443 0)
(0.0275563 -0.000746691 0)
(0.02905 -0.000746934 0)
(0.0305441 -0.000747171 0)
(0.0320387 -0.000747397 0)
(0.0335337 -0.000747609 0)
(0.0350291 -0.000747804 0)
(0.0365249 -0.000747979 0)
(0.0380211 -0.000748129 0)
(0.0395175 -0.000748251 0)
(0.0410141 -0.00074834 0)
(0.0425109 -0.000748393 0)
(0.0440077 -0.000748405 0)
(0.0455045 -0.000748371 0)
(0.0470013 -0.000748287 0)
(0.0484977 -0.000748148 0)
(0.0499939 -0.000747949 0)
(0.0514896 -0.000747685 0)
(0.0529847 -0.00074735 0)
(0.0544791 -0.00074694 0)
(0.0559726 -0.000746447 0)
(0.057465 -0.000745868 0)
(0.0589561 -0.000745196 0)
(0.0604458 -0.000744425 0)
(0.0619339 -0.00074355 0)
(0.0634202 -0.000742563 0)
(0.0649043 -0.000741459 0)
(0.0663861 -0.000740232 0)
(0.0678654 -0.000738875 0)
(0.0693418 -0.000737381 0)
(0.070815 -0.000735744 0)
(0.0722849 -0.000733958 0)
(0.073751 -0.000732016 0)
(0.0752131 -0.00072991 0)
(0.0766708 -0.000727635 0)
(0.0781238 -0.000725184 0)
(0.0795717 -0.00072255 0)
(0.0810142 -0.000719727 0)
(0.0824508 -0.000716707 0)
(0.0838812 -0.000713485 0)
(0.085305 -0.000710053 0)
(0.0867217 -0.000706406 0)
(0.0881308 -0.000702536 0)
(0.089532 -0.000698439 0)
(0.0909248 -0.000694107 0)
(0.0923087 -0.000689536 0)
(0.0936832 -0.000684718 0)
(0.0950478 -0.000679649 0)
(0.0964021 -0.000674324 0)
(0.0977454 -0.000668737 0)
(0.0990773 -0.000662884 0)
(0.100397 -0.000656759 0)
(0.101705 -0.00065036 0)
(0.102999 -0.000643681 0)
(0.10428 -0.000636719 0)
(0.105546 -0.000629472 0)
(0.106798 -0.000621936 0)
(0.108034 -0.000614108 0)
(0.109254 -0.000605987 0)
(0.110458 -0.000597571 0)
(0.111645 -0.000588858 0)
(0.112814 -0.000579849 0)
(0.113965 -0.000570542 0)
(0.115097 -0.000560938 0)
(0.116209 -0.000551038 0)
(0.117301 -0.000540842 0)
(0.118372 -0.000530352 0)
(0.119423 -0.000519571 0)
(0.120451 -0.000508502 0)
(0.121457 -0.000497146 0)
(0.12244 -0.000485509 0)
(0.123399 -0.000473595 0)
(0.124335 -0.000461408 0)
(0.125245 -0.000448954 0)
(0.126131 -0.000436238 0)
(0.12699 -0.000423267 0)
(0.127824 -0.000410049 0)
(0.128631 -0.000396589 0)
(0.129411 -0.000382897 0)
(0.130163 -0.000368981 0)
(0.130887 -0.000354848 0)
(0.131582 -0.00034051 0)
(0.132249 -0.000325975 0)
(0.132886 -0.000311254 0)
(0.133494 -0.000296356 0)
(0.134072 -0.000281294 0)
(0.134619 -0.000266077 0)
(0.135136 -0.000250718 0)
(0.135622 -0.000235228 0)
(0.136077 -0.000219619 0)
(0.136501 -0.000203904 0)
(0.136893 -0.000188095 0)
(0.137253 -0.000172204 0)
(0.137582 -0.000156244 0)
(0.137878 -0.000140228 0)
(0.138143 -0.00012417 0)
(0.138375 -0.000108081 0)
(0.138575 -9.1975e-05 0)
(0.138743 -7.58647e-05 0)
(0.138879 -5.9763e-05 0)
(0.138982 -4.36828e-05 0)
(0.139053 -2.76365e-05 0)
(0.139093 -1.16369e-05 0)
(0.1391 4.30387e-06 0)
(0.139075 2.01735e-05 0)
(0.139019 3.59602e-05 0)
(0.138931 5.16522e-05 0)
(0.138812 6.72382e-05 0)
(0.138662 8.27069e-05 0)
(0.138481 9.80477e-05 0)
(0.13827 0.00011325 0)
(0.138028 0.000128304 0)
(0.137757 0.0001432 0)
(0.137455 0.000157928 0)
(0.137125 0.00017248 0)
(0.136765 0.000186846 0)
(0.136377 0.00020102 0)
(0.135961 0.000214993 0)
(0.135517 0.000228758 0)
(0.135046 0.000242308 0)
(0.134547 0.000255637 0)
(0.134023 0.000268739 0)
(0.133472 0.000281609 0)
(0.132896 0.000294241 0)
(0.132295 0.000306632 0)
(0.131669 0.000318776 0)
(0.13102 0.000330671 0)
(0.130347 0.000342314 0)
(0.12965 0.0003537 0)
(0.128931 0.000364829 0)
(0.128191 0.000375698 0)
(0.127428 0.000386306 0)
(0.126645 0.000396652 0)
(0.125842 0.000406734 0)
(0.125018 0.000416553 0)
(0.124175 0.000426108 0)
(0.123313 0.0004354 0)
(0.122433 0.00044443 0)
(0.121535 0.000453198 0)
(0.12062 0.000461706 0)
(0.119688 0.000469955 0)
(0.11874 0.000477948 0)
(0.117776 0.000485686 0)
(0.116797 0.000493173 0)
(0.115803 0.00050041 0)
(0.114795 0.0005074 0)
(0.113773 0.000514147 0)
(0.112738 0.000520653 0)
(0.111691 0.000526923 0)
(0.11063 0.00053296 0)
(0.109558 0.000538767 0)
(0.108475 0.00054435 0)
(0.107381 0.00054971 0)
(0.106276 0.000554854 0)
(0.105161 0.000559785 0)
(0.104037 0.000564507 0)
(0.102903 0.000569026 0)
(0.10176 0.000573344 0)
(0.100609 0.000577468 0)
(0.0994504 0.000581402 0)
(0.0982836 0.00058515 0)
(0.0971096 0.000588717 0)
(0.0959286 0.000592108 0)
(0.094741 0.000595328 0)
(0.0935471 0.000598381 0)
(0.0923473 0.000601272 0)
(0.0911419 0.000604007 0)
(0.0899311 0.000606588 0)
(0.0887154 0.000609023 0)
(0.0874949 0.000611314 0)
(0.08627 0.000613467 0)
(0.0850409 0.000615486 0)
(0.0838079 0.000617376 0)
(0.0825713 0.000619142 0)
(0.0813312 0.000620787 0)
(0.080088 0.000622317 0)
(0.0788418 0.000623735 0)
(0.0775929 0.000625047 0)
(0.0763415 0.000626256 0)
(0.0750878 0.000627366 0)
(0.073832 0.000628382 0)
(0.0725742 0.000629308 0)
(0.0713147 0.000630147 0)
(0.0700535 0.000630903 0)
(0.068791 0.000631581 0)
(0.0675271 0.000632184 0)
(0.0662622 0.000632715 0)
(0.0649962 0.000633179 0)
(0.0637294 0.000633578 0)
(0.0624618 0.000633917 0)
(0.0611937 0.000634198 0)
(0.059925 0.000634426 0)
(0.0586559 0.000634602 0)
(0.0573865 0.00063473 0)
(0.056117 0.000634813 0)
(0.0548473 0.000634854 0)
(0.0535775 0.000634856 0)
(0.0523078 0.000634822 0)
(0.0510382 0.000634754 0)
(0.0497688 0.000634656 0)
(0.0484995 0.000634528 0)
(0.0472306 0.000634375 0)
(0.045962 0.000634198 0)
(0.0446938 0.000634 0)
(0.043426 0.000633783 0)
(0.0421587 0.000633549 0)
(0.0408918 0.000633301 0)
(0.0396254 0.000633039 0)
(0.0383596 0.000632767 0)
(0.0370944 0.000632486 0)
(0.0358297 0.000632197 0)
(0.0345656 0.000631903 0)
(0.0333021 0.000631606 0)
(0.0320392 0.000631306 0)
(0.0307768 0.000631006 0)
(0.0295151 0.000630706 0)
(0.028254 0.000630409 0)
(0.0269935 0.000630116 0)
(0.0257336 0.000629827 0)
(0.0244742 0.000629544 0)
(0.0232154 0.000629269 0)
(0.0219571 0.000629001 0)
(0.0206994 0.000628744 0)
(0.0194422 0.000628496 0)
(0.0181854 0.000628259 0)
(0.0169292 0.000628035 0)
(0.0156733 0.000627823 0)
(0.0144179 0.000627625 0)
(0.0131628 0.000627441 0)
(0.0119081 0.000627272 0)
(0.0106538 0.000627119 0)
(0.00939967 0.000626981 0)
(0.00814585 0.000626859 0)
(0.00689225 0.000626754 0)
(0.00563885 0.000626666 0)
(0.00438561 0.000626595 0)
(0.00313249 0.000626542 0)
(0.00187946 0.000626507 0)
(0.00062648 0.000626489 0)
(0.000743633 -0.00223097 0)
(0.00223092 -0.00223104 0)
(0.00371827 -0.00223117 0)
(0.00520574 -0.00223137 0)
(0.00669336 -0.00223163 0)
(0.00818117 -0.00223195 0)
(0.00966922 -0.00223233 0)
(0.0111575 -0.00223277 0)
(0.0126462 -0.00223326 0)
(0.0141352 -0.0022338 0)
(0.0156245 -0.00223439 0)
(0.0171143 -0.00223502 0)
(0.0186045 -0.00223568 0)
(0.0200952 -0.00223638 0)
(0.0215863 -0.0022371 0)
(0.023078 -0.00223783 0)
(0.0245701 -0.00223858 0)
(0.0260627 -0.00223933 0)
(0.0275559 -0.00224008 0)
(0.0290495 -0.00224081 0)
(0.0305436 -0.00224152 0)
(0.0320382 -0.0022422 0)
(0.0335333 -0.00224284 0)
(0.0350288 -0.00224343 0)
(0.0365246 -0.00224396 0)
(0.0380208 -0.00224442 0)
(0.0395173 -0.00224479 0)
(0.041014 -0.00224506 0)
(0.0425108 -0.00224522 0)
(0.0440078 -0.00224526 0)
(0.0455047 -0.00224516 0)
(0.0470015 -0.00224492 0)
(0.0484981 -0.00224451 0)
(0.0499944 -0.00224391 0)
(0.0514902 -0.00224313 0)
(0.0529855 -0.00224213 0)
(0.05448 -0.0022409 0)
(0.0559736 -0.00223943 0)
(0.0574662 -0.0022377 0)
(0.0589576 -0.00223569 0)
(0.0604475 -0.00223338 0)
(0.0619358 -0.00223076 0)
(0.0634223 -0.00222781 0)
(0.0649066 -0.0022245 0)
(0.0663887 -0.00222082 0)
(0.0678682 -0.00221676 0)
(0.0693449 -0.00221228 0)
(0.0708185 -0.00220738 0)
(0.0722886 -0.00220203 0)
(0.0737551 -0.00219621 0)
(0.0752175 -0.0021899 0)
(0.0766755 -0.00218308 0)
(0.0781289 -0.00217573 0)
(0.0795772 -0.00216784 0)
(0.0810201 -0.00215938 0)
(0.0824571 -0.00215032 0)
(0.0838879 -0.00214066 0)
(0.0853121 -0.00213037 0)
(0.0867292 -0.00211944 0)
(0.0881388 -0.00210784 0)
(0.0895405 -0.00209555 0)
(0.0909337 -0.00208256 0)
(0.0923181 -0.00206885 0)
(0.0936931 -0.0020544 0)
(0.0950582 -0.0020392 0)
(0.096413 -0.00202323 0)
(0.0977568 -0.00200648 0)
(0.0990892 -0.00198892 0)
(0.10041 -0.00197055 0)
(0.101718 -0.00195136 0)
(0.103013 -0.00193132 0)
(0.104294 -0.00191044 0)
(0.105561 -0.0018887 0)
(0.106813 -0.0018661 0)
(0.10805 -0.00184261 0)
(0.109271 -0.00181825 0)
(0.110475 -0.00179301 0)
(0.111663 -0.00176687 0)
(0.112832 -0.00173984 0)
(0.113984 -0.00171192 0)
(0.115116 -0.00168311 0)
(0.116229 -0.00165341 0)
(0.117322 -0.00162282 0)
(0.118394 -0.00159135 0)
(0.119445 -0.001559 0)
(0.120473 -0.00152579 0)
(0.12148 -0.00149172 0)
(0.122463 -0.0014568 0)
(0.123423 -0.00142105 0)
(0.124359 -0.00138449 0)
(0.12527 -0.00134712 0)
(0.126156 -0.00130897 0)
(0.127017 -0.00127005 0)
(0.127851 -0.00123038 0)
(0.128658 -0.00119 0)
(0.129438 -0.00114891 0)
(0.130191 -0.00110715 0)
(0.130915 -0.00106475 0)
(0.131611 -0.00102172 0)
(0.132278 -0.00097811 0)
(0.132916 -0.000933935 0)
(0.133524 -0.000889232 0)
(0.134102 -0.000844033 0)
(0.13465 -0.000798371 0)
(0.135167 -0.000752282 0)
(0.135653 -0.0007058 0)
(0.136109 -0.000658962 0)
(0.136532 -0.000611804 0)
(0.136925 -0.000564363 0)
(0.137285 -0.000516678 0)
(0.137614 -0.000468786 0)
(0.137911 -0.000420726 0)
(0.138175 -0.000372537 0)
(0.138407 -0.000324258 0)
(0.138607 -0.000275927 0)
(0.138775 -0.000227583 0)
(0.138911 -0.000179266 0)
(0.139014 -0.000131012 0)
(0.139085 -8.2861e-05 0)
(0.139125 -3.48497e-05 0)
(0.139132 1.29846e-05 0)
(0.139107 6.06055e-05 0)
(0.139051 0.000107977 0)
(0.138963 0.000155065 0)
(0.138843 0.000201833 0)
(0.138693 0.00024825 0)
(0.138512 0.000294283 0)
(0.1383 0.0003399 0)
(0.138058 0.000385072 0)
(0.137786 0.000429768 0)
(0.137485 0.000473962 0)
(0.137154 0.000517625 0)
(0.136794 0.000560733 0)
(0.136405 0.000603261 0)
(0.135989 0.000645187 0)
(0.135544 0.000686489 0)
(0.135072 0.000727145 0)
(0.134574 0.000767138 0)
(0.134049 0.00080645 0)
(0.133498 0.000845064 0)
(0.132921 0.000882966 0)
(0.13232 0.000920142 0)
(0.131693 0.000956579 0)
(0.131043 0.000992267 0)
(0.130369 0.0010272 0)
(0.129673 0.00106136 0)
(0.128953 0.00109475 0)
(0.128212 0.00112736 0)
(0.127449 0.00115918 0)
(0.126666 0.00119022 0)
(0.125861 0.00122047 0)
(0.125037 0.00124992 0)
(0.124194 0.00127859 0)
(0.123332 0.00130646 0)
(0.122451 0.00133355 0)
(0.121552 0.00135985 0)
(0.120637 0.00138538 0)
(0.119704 0.00141012 0)
(0.118756 0.0014341 0)
(0.117791 0.00145731 0)
(0.116812 0.00147977 0)
(0.115817 0.00150147 0)
(0.114809 0.00152244 0)
(0.113787 0.00154268 0)
(0.112751 0.0015622 0)
(0.111703 0.001581 0)
(0.110642 0.00159911 0)
(0.10957 0.00161653 0)
(0.108486 0.00163327 0)
(0.107391 0.00164935 0)
(0.106286 0.00166477 0)
(0.105171 0.00167956 0)
(0.104046 0.00169372 0)
(0.102912 0.00170728 0)
(0.101769 0.00172023 0)
(0.100617 0.00173259 0)
(0.099458 0.00174439 0)
(0.0982909 0.00175563 0)
(0.0971165 0.00176633 0)
(0.0959351 0.0017765 0)
(0.0947472 0.00178615 0)
(0.093553 0.0017953 0)
(0.0923528 0.00180397 0)
(0.0911471 0.00181217 0)
(0.0899361 0.00181991 0)
(0.08872 0.00182721 0)
(0.0874993 0.00183408 0)
(0.0862741 0.00184053 0)
(0.0850447 0.00184658 0)
(0.0838115 0.00185225 0)
(0.0825746 0.00185754 0)
(0.0813343 0.00186247 0)
(0.0800909 0.00186706 0)
(0.0788445 0.00187131 0)
(0.0775954 0.00187524 0)
(0.0763438 0.00187886 0)
(0.0750899 0.00188219 0)
(0.0738339 0.00188523 0)
(0.0725759 0.00188801 0)
(0.0713162 0.00189052 0)
(0.0700549 0.00189279 0)
(0.0687922 0.00189482 0)
(0.0675282 0.00189662 0)
(0.0662631 0.00189821 0)
(0.064997 0.0018996 0)
(0.0637301 0.00190079 0)
(0.0624624 0.00190181 0)
(0.0611941 0.00190265 0)
(0.0599254 0.00190333 0)
(0.0586562 0.00190385 0)
(0.0573867 0.00190423 0)
(0.056117 0.00190448 0)
(0.0548473 0.0019046 0)
(0.0535774 0.0019046 0)
(0.0523077 0.0019045 0)
(0.051038 0.00190429 0)
(0.0497685 0.00190399 0)
(0.0484992 0.00190361 0)
(0.0472302 0.00190315 0)
(0.0459616 0.00190261 0)
(0.0446934 0.00190202 0)
(0.0434255 0.00190136 0)
(0.0421581 0.00190066 0)
(0.0408912 0.00189991 0)
(0.0396249 0.00189913 0)
(0.038359 0.00189831 0)
(0.0370938 0.00189746 0)
(0.0358291 0.00189659 0)
(0.034565 0.00189571 0)
(0.0333014 0.00189482 0)
(0.0320385 0.00189392 0)
(0.0307762 0.00189301 0)
(0.0295145 0.00189211 0)
(0.0282534 0.00189122 0)
(0.0269929 0.00189034 0)
(0.025733 0.00188947 0)
(0.0244736 0.00188862 0)
(0.0232148 0.0018878 0)
(0.0219566 0.00188699 0)
(0.0206989 0.00188622 0)
(0.0194417 0.00188547 0)
(0.018185 0.00188476 0)
(0.0169287 0.00188409 0)
(0.0156729 0.00188345 0)
(0.0144175 0.00188286 0)
(0.0131625 0.00188231 0)
(0.0119078 0.0018818 0)
(0.0106535 0.00188134 0)
(0.0093994 0.00188092 0)
(0.00814562 0.00188056 0)
(0.00689205 0.00188024 0)
(0.00563869 0.00187998 0)
(0.00438548 0.00187977 0)
(0.0031324 0.00187961 0)
(0.0018794 0.0018795 0)
(0.000626462 0.00187945 0)
(0.000743588 -0.00371822 0)
(0.00223079 -0.00371833 0)
(0.00371805 -0.00371855 0)
(0.00520543 -0.00371888 0)
(0.00669296 -0.00371931 0)
(0.0081807 -0.00371985 0)
(0.00966867 -0.00372049 0)
(0.0111569 -0.00372123 0)
(0.0126455 -0.00372205 0)
(0.0141344 -0.00372296 0)
(0.0156237 -0.00372394 0)
(0.0171134 -0.00372499 0)
(0.0186036 -0.0037261 0)
(0.0200942 -0.00372727 0)
(0.0215853 -0.00372847 0)
(0.023077 -0.00372971 0)
(0.0245691 -0.00373096 0)
(0.0260617 -0.00373222 0)
(0.0275549 -0.00373348 0)
(0.0290485 -0.00373471 0)
(0.0305427 -0.00373591 0)
(0.0320373 -0.00373705 0)
(0.0335325 -0.00373813 0)
(0.035028 -0.00373913 0)
(0.0365239 -0.00374002 0)
(0.0380202 -0.00374079 0)
(0.0395168 -0.00374142 0)
(0.0410137 -0.00374189 0)
(0.0425107 -0.00374217 0)
(0.0440078 -0.00374225 0)
(0.0455049 -0.00374211 0)
(0.0470019 -0.00374171 0)
(0.0484987 -0.00374104 0)
(0.0499953 -0.00374007 0)
(0.0514914 -0.00373878 0)
(0.0529869 -0.00373713 0)
(0.0544818 -0.0037351 0)
(0.0559758 -0.00373267 0)
(0.0574687 -0.00372981 0)
(0.0589604 -0.00372647 0)
(0.0604508 -0.00372265 0)
(0.0619395 -0.0037183 0)
(0.0634264 -0.0037134 0)
(0.0649113 -0.00370791 0)
(0.0663939 -0.00370181 0)
(0.0678739 -0.00369505 0)
(0.0693511 -0.00368762 0)
(0.0708253 -0.00367947 0)
(0.072296 -0.00367057 0)
(0.0737631 -0.00366089 0)
(0.0752262 -0.0036504 0)
(0.076685 -0.00363906 0)
(0.0781391 -0.00362683 0)
(0.0795881 -0.0036137 0)
(0.0810317 -0.00359961 0)
(0.0824695 -0.00358455 0)
(0.0839012 -0.00356847 0)
(0.0853262 -0.00355134 0)
(0.0867442 -0.00353314 0)
(0.0881547 -0.00351382 0)
(0.0895573 -0.00349336 0)
(0.0909515 -0.00347173 0)
(0.0923369 -0.0034489 0)
(0.0937128 -0.00342484 0)
(0.095079 -0.00339953 0)
(0.0964348 -0.00337293 0)
(0.0977797 -0.00334501 0)
(0.0991132 -0.00331577 0)
(0.100435 -0.00328517 0)
(0.101744 -0.00325319 0)
(0.10304 -0.00321981 0)
(0.104322 -0.00318502 0)
(0.10559 -0.0031488 0)
(0.106844 -0.00311113 0)
(0.108082 -0.003072 0)
(0.109304 -0.00303141 0)
(0.11051 -0.00298933 0)
(0.111698 -0.00294577 0)
(0.112869 -0.00290073 0)
(0.114021 -0.00285419 0)
(0.115155 -0.00280617 0)
(0.116269 -0.00275666 0)
(0.117363 -0.00270567 0)
(0.118436 -0.00265322 0)
(0.119488 -0.0025993 0)
(0.120518 -0.00254393 0)
(0.121526 -0.00248714 0)
(0.122511 -0.00242893 0)
(0.123472 -0.00236933 0)
(0.124408 -0.00230837 0)
(0.125321 -0.00224607 0)
(0.126208 -0.00218246 0)
(0.127069 -0.00211757 0)
(0.127904 -0.00205144 0)
(0.128712 -0.00198411 0)
(0.129493 -0.0019156 0)
(0.130247 -0.00184598 0)
(0.130972 -0.00177527 0)
(0.131669 -0.00170353 0)
(0.132337 -0.0016308 0)
(0.132975 -0.00155714 0)
(0.133584 -0.0014826 0)
(0.134163 -0.00140723 0)
(0.134711 -0.00133109 0)
(0.135229 -0.00125424 0)
(0.135716 -0.00117673 0)
(0.136171 -0.00109862 0)
(0.136596 -0.00101999 0)
(0.136988 -0.000940876 0)
(0.137349 -0.000861358 0)
(0.137678 -0.000781496 0)
(0.137975 -0.000701353 0)
(0.138239 -0.000620995 0)
(0.138472 -0.000540486 0)
(0.138672 -0.000459892 0)
(0.13884 -0.000379276 0)
(0.138975 -0.000298704 0)
(0.139079 -0.00021824 0)
(0.13915 -0.000137946 0)
(0.139188 -5.78858e-05 0)
(0.139195 2.18786e-05 0)
(0.13917 0.000101286 0)
(0.139114 0.000180278 0)
(0.139025 0.000258795 0)
(0.138906 0.00033678 0)
(0.138755 0.000414178 0)
(0.138573 0.000490934 0)
(0.138361 0.000566997 0)
(0.138118 0.000642315 0)
(0.137845 0.00071684 0)
(0.137543 0.000790525 0)
(0.137211 0.000863326 0)
(0.136851 0.0009352 0)
(0.136462 0.00100611 0)
(0.136044 0.00107601 0)
(0.135599 0.00114486 0)
(0.135126 0.00121265 0)
(0.134627 0.00127932 0)
(0.134101 0.00134486 0)
(0.133549 0.00140923 0)
(0.132971 0.00147242 0)
(0.132369 0.00153439 0)
(0.131742 0.00159513 0)
(0.13109 0.00165462 0)
(0.130416 0.00171285 0)
(0.129718 0.00176979 0)
(0.128997 0.00182545 0)
(0.128255 0.0018798 0)
(0.127491 0.00193284 0)
(0.126706 0.00198458 0)
(0.125901 0.00203499 0)
(0.125076 0.00208408 0)
(0.124232 0.00213186 0)
(0.123368 0.00217831 0)
(0.122487 0.00222346 0)
(0.121587 0.00226729 0)
(0.12067 0.00230982 0)
(0.119737 0.00235106 0)
(0.118787 0.00239101 0)
(0.117822 0.00242969 0)
(0.116841 0.00246711 0)
(0.115846 0.00250328 0)
(0.114836 0.00253822 0)
(0.113813 0.00257193 0)
(0.112777 0.00260445 0)
(0.111727 0.00263578 0)
(0.110666 0.00266595 0)
(0.109593 0.00269496 0)
(0.108508 0.00272285 0)
(0.107412 0.00274964 0)
(0.106306 0.00277533 0)
(0.10519 0.00279997 0)
(0.104064 0.00282355 0)
(0.102929 0.00284612 0)
(0.101786 0.00286769 0)
(0.100634 0.00288829 0)
(0.0994734 0.00290794 0)
(0.0983055 0.00292665 0)
(0.0971304 0.00294446 0)
(0.0959484 0.0029614 0)
(0.0947597 0.00297747 0)
(0.0935649 0.00299271 0)
(0.0923641 0.00300715 0)
(0.0911578 0.00302079 0)
(0.0899461 0.00303368 0)
(0.0887295 0.00304582 0)
(0.0875082 0.00305726 0)
(0.0862824 0.003068 0)
(0.0850526 0.00307807 0)
(0.0838188 0.0030875 0)
(0.0825814 0.0030963 0)
(0.0813407 0.00310451 0)
(0.0800968 0.00311214 0)
(0.07885 0.00311921 0)
(0.0776005 0.00312575 0)
(0.0763485 0.00313177 0)
(0.0750942 0.0031373 0)
(0.0738378 0.00314236 0)
(0.0725795 0.00314697 0)
(0.0713194 0.00315114 0)
(0.0700578 0.00315491 0)
(0.0687948 0.00315828 0)
(0.0675305 0.00316127 0)
(0.0662651 0.00316391 0)
(0.0649988 0.00316621 0)
(0.0637316 0.00316819 0)
(0.0624637 0.00316987 0)
(0.0611952 0.00317126 0)
(0.0599262 0.00317238 0)
(0.0586568 0.00317324 0)
(0.0573871 0.00317387 0)
(0.0561173 0.00317427 0)
(0.0548474 0.00317446 0)
(0.0535774 0.00317446 0)
(0.0523075 0.00317427 0)
(0.0510377 0.00317392 0)
(0.049768 0.00317342 0)
(0.0484987 0.00317277 0)
(0.0472296 0.00317199 0)
(0.0459609 0.00317109 0)
(0.0446925 0.00317009 0)
(0.0434246 0.003169 0)
(0.0421572 0.00316782 0)
(0.0408902 0.00316656 0)
(0.0396238 0.00316525 0)
(0.0383579 0.00316387 0)
(0.0370926 0.00316246 0)
(0.0358279 0.00316101 0)
(0.0345638 0.00315953 0)
(0.0333003 0.00315804 0)
(0.0320373 0.00315653 0)
(0.030775 0.00315502 0)
(0.0295133 0.00315352 0)
(0.0282522 0.00315202 0)
(0.0269917 0.00315055 0)
(0.0257318 0.0031491 0)
(0.0244725 0.00314768 0)
(0.0232138 0.0031463 0)
(0.0219555 0.00314496 0)
(0.0206979 0.00314366 0)
(0.0194407 0.00314242 0)
(0.018184 0.00314123 0)
(0.0169278 0.00314011 0)
(0.0156721 0.00313905 0)
(0.0144167 0.00313805 0)
(0.0131618 0.00313713 0)
(0.0119071 0.00313628 0)
(0.0106529 0.00313551 0)
(0.00939889 0.00313482 0)
(0.00814516 0.00313421 0)
(0.00689167 0.00313368 0)
(0.00563837 0.00313324 0)
(0.00438523 0.00313288 0)
(0.00313222 0.00313262 0)
(0.0018793 0.00313244 0)
(0.000626426 0.00313236 0)
(0.000743521 -0.00520535 0)
(0.00223059 -0.0052055 0)
(0.00371772 -0.00520582 0)
(0.00520497 -0.00520628 0)
(0.00669237 -0.0052069 0)
(0.00817998 -0.00520766 0)
(0.00966784 -0.00520856 0)
(0.011156 -0.00520959 0)
(0.0126444 -0.00521075 0)
(0.0141333 -0.00521203 0)
(0.0156225 -0.00521342 0)
(0.0171121 -0.0052149 0)
(0.0186022 -0.00521647 0)
(0.0200928 -0.00521812 0)
(0.0215839 -0.00521982 0)
(0.0230754 -0.00522156 0)
(0.0245675 -0.00522334 0)
(0.0260602 -0.00522512 0)
(0.0275534 -0.0052269 0)
(0.0290471 -0.00522864 0)
(0.0305413 -0.00523034 0)
(0.032036 -0.00523197 0)
(0.0335312 -0.0052335 0)
(0.0350269 -0.00523492 0)
(0.0365229 -0.0052362 0)
(0.0380194 -0.0052373 0)
(0.0395161 -0.00523821 0)
(0.0410132 -0.0052389 0)
(0.0425104 -0.00523933 0)
(0.0440078 -0.00523947 0)
(0.0455052 -0.0052393 0)
(0.0470025 -0.00523878 0)
(0.0484997 -0.00523788 0)
(0.0499966 -0.00523656 0)
(0.0514931 -0.00523478 0)
(0.0529891 -0.00523251 0)
(0.0544844 -0.00522972 0)
(0.0559789 -0.00522635 0)
(0.0574724 -0.00522238 0)
(0.0589647 -0.00521776 0)
(0.0604556 -0.00521244 0)
(0.061945 -0.0052064 0)
(0.0634326 -0.00519958 0)
(0.0649182 -0.00519194 0)
(0.0664015 -0.00518344 0)
(0.0678824 -0.00517403 0)
(0.0693604 -0.00516367 0)
(0.0708355 -0.0051523 0)
(0.0723072 -0.00513989 0)
(0.0737752 -0.00512639 0)
(0.0752393 -0.00511174 0)
(0.0766991 -0.00509591 0)
(0.0781542 -0.00507885 0)
(0.0796044 -0.0050605 0)
(0.0810492 -0.00504083 0)
(0.0824882 -0.00501979 0)
(0.0839211 -0.00499732 0)
(0.0853474 -0.00497339 0)
(0.0867667 -0.00494794 0)
(0.0881786 -0.00492095 0)
(0.0895825 -0.00489235 0)
(0.0909782 -0.00486211 0)
(0.092365 -0.00483019 0)
(0.0937425 -0.00479654 0)
(0.0951101 -0.00476114 0)
(0.0964675 -0.00472393 0)
(0.097814 -0.00468489 0)
(0.0991491 -0.00464398 0)
(0.100472 -0.00460117 0)
(0.101783 -0.00455642 0)
(0.103081 -0.00450972 0)
(0.104365 -0.00446104 0)
(0.105635 -0.00441034 0)
(0.10689 -0.00435763 0)
(0.10813 -0.00430286 0)
(0.109354 -0.00424604 0)
(0.110561 -0.00418714 0)
(0.111751 -0.00412617 0)
(0.112924 -0.0040631 0)
(0.114078 -0.00399795 0)
(0.115214 -0.00393072 0)
(0.116329 -0.0038614 0)
(0.117425 -0.00379 0)
(0.1185 -0.00371654 0)
(0.119554 -0.00364104 0)
(0.120586 -0.00356351 0)
(0.121595 -0.00348397 0)
(0.122581 -0.00340245 0)
(0.123544 -0.00331898 0)
(0.124483 -0.00323359 0)
(0.125396 -0.00314633 0)
(0.126285 -0.00305723 0)
(0.127148 -0.00296634 0)
(0.127984 -0.00287371 0)
(0.128794 -0.00277938 0)
(0.129576 -0.00268342 0)
(0.130331 -0.00258588 0)
(0.131058 -0.00248682 0)
(0.131756 -0.00238632 0)
(0.132425 -0.00228443 0)
(0.133064 -0.00218124 0)
(0.133674 -0.0020768 0)
(0.134254 -0.00197121 0)
(0.134803 -0.00186453 0)
(0.135322 -0.00175685 0)
(0.135809 -0.00164825 0)
(0.136266 -0.00153882 0)
(0.13669 -0.00142864 0)
(0.137084 -0.0013178 0)
(0.137445 -0.00120638 0)
(0.137774 -0.00109449 0)
(0.138071 -0.000982197 0)
(0.138336 -0.000869605 0)
(0.138569 -0.000756802 0)
(0.138769 -0.000643879 0)
(0.138937 -0.000530927 0)
(0.139072 -0.000418036 0)
(0.139175 -0.000305297 0)
(0.139246 -0.000192798 0)
(0.139284 -8.06269e-05 0)
(0.139291 3.11285e-05 0)
(0.139265 0.000142383 0)
(0.139208 0.000253053 0)
(0.139119 0.000363057 0)
(0.138999 0.000472314 0)
(0.138847 0.000580747 0)
(0.138665 0.000688278 0)
(0.138452 0.000794837 0)
(0.138208 0.00090035 0)
(0.137935 0.00100475 0)
(0.137631 0.00110797 0)
(0.137298 0.00120995 0)
(0.136937 0.00131063 0)
(0.136546 0.00140996 0)
(0.136127 0.00150787 0)
(0.135681 0.00160432 0)
(0.135207 0.00169926 0)
(0.134706 0.00179264 0)
(0.134179 0.00188443 0)
(0.133625 0.00197459 0)
(0.133046 0.00206308 0)
(0.132442 0.00214987 0)
(0.131814 0.00223493 0)
(0.131161 0.00231824 0)
(0.130485 0.00239978 0)
(0.129785 0.00247952 0)
(0.129063 0.00255745 0)
(0.12832 0.00263355 0)
(0.127554 0.00270782 0)
(0.126768 0.00278025 0)
(0.125961 0.00285083 0)
(0.125134 0.00291956 0)
(0.124288 0.00298644 0)
(0.123423 0.00305148 0)
(0.12254 0.00311467 0)
(0.121639 0.00317603 0)
(0.120721 0.00323556 0)
(0.119786 0.00329328 0)
(0.118834 0.0033492 0)
(0.117868 0.00340334 0)
(0.116885 0.0034557 0)
(0.115889 0.00350632 0)
(0.114878 0.00355521 0)
(0.113853 0.00360239 0)
(0.112815 0.00364789 0)
(0.111764 0.00369173 0)
(0.110701 0.00373393 0)
(0.109627 0.00377453 0)
(0.108541 0.00381354 0)
(0.107444 0.00385101 0)
(0.106336 0.00388696 0)
(0.105219 0.00392141 0)
(0.104092 0.00395441 0)
(0.102956 0.00398597 0)
(0.101811 0.00401614 0)
(0.100658 0.00404494 0)
(0.0994964 0.00407241 0)
(0.0983275 0.00409858 0)
(0.0971513 0.00412348 0)
(0.0959682 0.00414715 0)
(0.0947786 0.00416963 0)
(0.0935827 0.00419093 0)
(0.092381 0.0042111 0)
(0.0911737 0.00423018 0)
(0.0899612 0.00424818 0)
(0.0887437 0.00426516 0)
(0.0875215 0.00428113 0)
(0.0862949 0.00429613 0)
(0.0850643 0.0043102 0)
(0.0838298 0.00432337 0)
(0.0825917 0.00433567 0)
(0.0813502 0.00434712 0)
(0.0801056 0.00435777 0)
(0.0788582 0.00436764 0)
(0.077608 0.00437676 0)
(0.0763554 0.00438517 0)
(0.0751005 0.00439288 0)
(0.0738436 0.00439994 0)
(0.0725848 0.00440636 0)
(0.0713242 0.00441218 0)
(0.0700621 0.00441742 0)
(0.0687986 0.00442211 0)
(0.0675339 0.00442628 0)
(0.0662681 0.00442995 0)
(0.0650014 0.00443315 0)
(0.0637338 0.0044359 0)
(0.0624655 0.00443822 0)
(0.0611967 0.00444014 0)
(0.0599274 0.00444169 0)
(0.0586577 0.00444288 0)
(0.0573878 0.00444373 0)
(0.0561177 0.00444427 0)
(0.0548475 0.00444452 0)
(0.0535773 0.0044445 0)
(0.0523072 0.00444422 0)
(0.0510372 0.00444371 0)
(0.0497674 0.00444298 0)
(0.0484978 0.00444206 0)
(0.0472286 0.00444095 0)
(0.0459597 0.00443968 0)
(0.0446913 0.00443826 0)
(0.0434233 0.00443671 0)
(0.0421557 0.00443505 0)
(0.0408887 0.00443328 0)
(0.0396222 0.00443142 0)
(0.0383563 0.00442949 0)
(0.0370909 0.00442749 0)
(0.0358262 0.00442545 0)
(0.034562 0.00442337 0)
(0.0332985 0.00442126 0)
(0.0320355 0.00441915 0)
(0.0307732 0.00441702 0)
(0.0295115 0.00441491 0)
(0.0282505 0.00441281 0)
(0.02699 0.00441073 0)
(0.0257301 0.0044087 0)
(0.0244708 0.0044067 0)
(0.0232121 0.00440476 0)
(0.021954 0.00440287 0)
(0.0206964 0.00440106 0)
(0.0194393 0.00439931 0)
(0.0181827 0.00439764 0)
(0.0169265 0.00439606 0)
(0.0156708 0.00439457 0)
(0.0144156 0.00439317 0)
(0.0131607 0.00439188 0)
(0.0119062 0.00439069 0)
(0.010652 0.0043896 0)
(0.00939811 0.00438863 0)
(0.00814448 0.00438777 0)
(0.00689109 0.00438703 0)
(0.0056379 0.00438641 0)
(0.00438486 0.00438592 0)
(0.00313195 0.00438554 0)
(0.00187914 0.0043853 0)
(0.000626373 0.00438517 0)
(0.000743431 -0.00669232 0)
(0.00223032 -0.00669253 0)
(0.00371727 -0.00669293 0)
(0.00520434 -0.00669353 0)
(0.00669158 -0.00669433 0)
(0.00817903 -0.00669532 0)
(0.00966672 -0.00669649 0)
(0.0111547 -0.00669783 0)
(0.012643 -0.00669934 0)
(0.0141317 -0.006701 0)
(0.0156208 -0.0067028 0)
(0.0171104 -0.00670473 0)
(0.0186004 -0.00670677 0)
(0.0200909 -0.00670891 0)
(0.0215819 -0.00671112 0)
(0.0230734 -0.00671339 0)
(0.0245655 -0.0067157 0)
(0.0260581 -0.00671803 0)
(0.0275513 -0.00672034 0)
(0.0290451 -0.00672263 0)
(0.0305393 -0.00672485 0)
(0.0320342 -0.00672698 0)
(0.0335295 -0.00672899 0)
(0.0350253 -0.00673086 0)
(0.0365215 -0.00673254 0)
(0.0380182 -0.00673401 0)
(0.0395152 -0.00673523 0)
(0.0410125 -0.00673616 0)
(0.0425101 -0.00673677 0)
(0.0440078 -0.00673701 0)
(0.0455055 -0.00673685 0)
(0.0470033 -0.00673624 0)
(0.0485009 -0.00673513 0)
(0.0499983 -0.0067335 0)
(0.0514954 -0.00673128 0)
(0.052992 -0.00672842 0)
(0.0544879 -0.0067249 0)
(0.055983 -0.00672064 0)
(0.0574773 -0.0067156 0)
(0.0589703 -0.00670973 0)
(0.0604621 -0.00670297 0)
(0.0619523 -0.00669527 0)
(0.0634408 -0.00668658 0)
(0.0649274 -0.00667684 0)
(0.0664117 -0.00666598 0)
(0.0678936 -0.00665396 0)
(0.0693728 -0.00664071 0)
(0.070849 -0.00662618 0)
(0.0723219 -0.0066103 0)
(0.0737912 -0.00659302 0)
(0.0752567 -0.00657428 0)
(0.0767178 -0.006554 0)
(0.0781744 -0.00653215 0)
(0.0796261 -0.00650864 0)
(0.0810724 -0.00648343 0)
(0.082513 -0.00645645 0)
(0.0839475 -0.00642764 0)
(0.0853756 -0.00639695 0)
(0.0867966 -0.00636431 0)
(0.0882103 -0.00632967 0)
(0.0896161 -0.00629298 0)
(0.0910137 -0.00625417 0)
(0.0924024 -0.0062132 0)
(0.0937819 -0.00617 0)
(0.0951516 -0.00612454 0)
(0.096511 -0.00607677 0)
(0.0978596 -0.00602663 0)
(0.0991969 -0.00597409 0)
(0.100522 -0.00591909 0)
(0.101835 -0.00586161 0)
(0.103135 -0.00580161 0)
(0.104422 -0.00573906 0)
(0.105694 -0.00567392 0)
(0.106951 -0.00560617 0)
(0.108194 -0.00553578 0)
(0.10942 -0.00546274 0)
(0.11063 -0.00538703 0)
(0.111822 -0.00530864 0)
(0.112997 -0.00522757 0)
(0.114154 -0.0051438 0)
(0.115292 -0.00505735 0)
(0.11641 -0.00496821 0)
(0.117508 -0.00487639 0)
(0.118585 -0.00478192 0)
(0.119641 -0.00468481 0)
(0.120675 -0.00458509 0)
(0.121687 -0.00448278 0)
(0.122676 -0.00437792 0)
(0.123641 -0.00427054 0)
(0.124581 -0.0041607 0)
(0.125497 -0.00404843 0)
(0.126388 -0.0039338 0)
(0.127253 -0.00381685 0)
(0.128091 -0.00369766 0)
(0.128903 -0.00357629 0)
(0.129687 -0.00345281 0)
(0.130444 -0.0033273 0)
(0.131172 -0.00319983 0)
(0.131871 -0.00307049 0)
(0.132542 -0.00293938 0)
(0.133183 -0.00280657 0)
(0.133794 -0.00267216 0)
(0.134375 -0.00253627 0)
(0.134926 -0.00239897 0)
(0.135445 -0.00226038 0)
(0.135934 -0.00212061 0)
(0.136391 -0.00197977 0)
(0.136817 -0.00183796 0)
(0.137211 -0.00169529 0)
(0.137573 -0.00155189 0)
(0.137902 -0.00140787 0)
(0.1382 -0.00126334 0)
(0.138465 -0.00111843 0)
(0.138698 -0.000973237 0)
(0.138898 -0.000827895 0)
(0.139066 -0.000682516 0)
(0.139201 -0.000537217 0)
(0.139304 -0.000392114 0)
(0.139374 -0.000247321 0)
(0.139413 -0.000102953 0)
(0.139419 4.08785e-05 0)
(0.139392 0.000184064 0)
(0.139334 0.000326495 0)
(0.139245 0.000468065 0)
(0.139123 0.000608672 0)
(0.138971 0.000748215 0)
(0.138787 0.000886596 0)
(0.138573 0.00102372 0)
(0.138328 0.0011595 0)
(0.138053 0.00129384 0)