/*--------------------------------*- C++ -*----------------------------------*\
| =========                 |                                                 |
| \\      /  F ield         | OpenFOAM: The Open Source CFD Toolbox           |
|  \\    /   O peration     | Version:  v2012                                 |
|   \\  /    A nd           | Website:  www.openfoam.com                      |
|    \\/     M anipulation  |                                                 |
\*---------------------------------------------------------------------------*/
FoamFile
{
    version     2.0;
    format      ascii;
    class       volScalarField;
    location    "17.3";
    object      Psi_z;
}
// * * * * * * * * * * * * * * * * * * * * * * * * * * * * * * * * * * * * * //

dimensions      [0 2 -1 0 0 0 0];


internalField   nonuniform List<scalar> 
65536
(
8.21214e-06
2.46369e-05
4.1063e-05
5.74913e-05
7.39225e-05
9.03575e-05
0.000106797
0.000123242
0.000139693
0.000156152
0.000172618
0.000189093
0.000205577
0.000222071
0.000238576
0.000255092
0.00027162
0.000288161
0.000304715
0.000321283
0.000337865
0.000354461
0.000371073
0.0003877
0.000404343
0.000421002
0.000437677
0.000454368
0.000471076
0.000487801
0.000504542
0.000521299
0.000538073
0.000554863
0.000571668
0.000588489
0.000605325
0.000622175
0.000639038
0.000655915
0.000672803
0.000689703
0.000706613
0.000723532
0.000740458
0.000757391
0.000774329
0.00079127
0.000808213
0.000825155
0.000842095
0.000859031
0.00087596
0.00089288
0.000909789
0.000926683
0.00094356
0.000960417
0.000977251
0.000994059
0.00101084
0.00102758
0.00104429
0.00106095
0.00107757
0.00109414
0.00111066
0.00112712
0.00114351
0.00115984
0.00117609
0.00119226
0.00120835
0.00122435
0.00124025
0.00125605
0.00127174
0.00128732
0.00130277
0.0013181
0.0013333
0.00134835
0.00136325
0.001378
0.00139259
0.00140701
0.00142125
0.0014353
0.00144916
0.00146282
0.00147627
0.0014895
0.00150251
0.00151529
0.00152782
0.00154011
0.00155214
0.0015639
0.00157539
0.0015866
0.00159752
0.00160815
0.00161847
0.00162848
0.00163817
0.00164753
0.00165655
0.00166524
0.00167358
0.00168156
0.00168918
0.00169643
0.00170331
0.00170981
0.00171593
0.00172165
0.00172698
0.00173191
0.00173644
0.00174055
0.00174426
0.00174755
0.00175042
0.00175288
0.00175491
0.00175651
0.0017577
0.00175845
0.00175878
0.00175868
0.00175815
0.00175719
0.00175581
0.00175401
0.00175178
0.00174913
0.00174606
0.00174258
0.00173869
0.00173438
0.00172967
0.00172456
0.00171905
0.00171315
0.00170686
0.00170019
0.00169315
0.00168573
0.00167795
0.00166982
0.00166133
0.00165249
0.00164332
0.00163382
0.00162399
0.00161385
0.0016034
0.00159264
0.00158159
0.00157026
0.00155864
0.00154676
0.00153461
0.00152221
0.00150955
0.00149666
0.00148354
0.00147019
0.00145663
0.00144285
0.00142888
0.00141471
0.00140035
0.00138582
0.00137111
0.00135624
0.00134121
0.00132603
0.00131071
0.00129524
0.00127965
0.00126393
0.0012481
0.00123215
0.00121609
0.00119994
0.00118369
0.00116735
0.00115092
0.00113442
0.00111784
0.0011012
0.00108449
0.00106772
0.00105089
0.00103401
0.00101709
0.00100012
0.000983108
0.000966063
0.000948986
0.000931879
0.000914746
0.00089759
0.000880413
0.000863218
0.000846008
0.000828786
0.000811553
0.000794312
0.000777064
0.000759812
0.000742558
0.000725303
0.000708048
0.000690796
0.000673547
0.000656303
0.000639065
0.000621834
0.000604611
0.000587396
0.00057019
0.000552995
0.000535811
0.000518637
0.000501475
0.000484325
0.000467187
0.000450062
0.000432949
0.000415848
0.00039876
0.000381685
0.000364621
0.00034757
0.000330531
0.000313503
0.000296487
0.000279482
0.000262487
0.000245502
0.000228527
0.000211561
0.000194603
0.000177654
0.000160712
0.000143776
0.000126847
0.000109923
9.30035e-05
7.60882e-05
5.91763e-05
4.2267e-05
2.53594e-05
8.45302e-06
2.46362e-05
7.39099e-05
0.000123187
0.000172471
0.000221764
0.000271069
0.000320387
0.000369721
0.000419075
0.000468449
0.000517847
0.000567271
0.000616722
0.000666204
0.000715718
0.000765266
0.00081485
0.000864472
0.000914134
0.000963836
0.00101358
0.00106337
0.00111321
0.00116309
0.00121302
0.00126299
0.00131302
0.00136309
0.00141322
0.00146339
0.00151361
0.00156389
0.00161421
0.00166458
0.00171499
0.00176546
0.00181596
0.00186651
0.00191711
0.00196774
0.0020184
0.0020691
0.00211983
0.00217059
0.00222137
0.00227217
0.00232299
0.00237381
0.00242464
0.00247547
0.0025263
0.00257711
0.00262789
0.00267866
0.00272939
0.00278007
0.00283071
0.00288128
0.00293179
0.00298221
0.00303255
0.00308278
0.00313291
0.00318291
0.00323277
0.00328249
0.00333204
0.00338142
0.00343061
0.00347959
0.00352835
0.00357687
0.00362514
0.00367314
0.00372085
0.00376826
0.00381534
0.00386208
0.00390845
0.00395445
0.00400004
0.0040452
0.00408993
0.00413418
0.00417795
0.00422121
0.00426393
0.0043061
0.00434768
0.00438867
0.00442903
0.00446874
0.00450777
0.00454611
0.00458372
0.00462059
0.00465668
0.00469198
0.00472647
0.0047601
0.00479288
0.00482476
0.00485573
0.00488576
0.00491483
0.00494292
0.00497001
0.00499607
0.00502109
0.00504504
0.00506791
0.00508968
0.00511032
0.00512982
0.00514817
0.00516535
0.00518134
0.00519614
0.00520972
0.00522207
0.00523319
0.00524307
0.00525169
0.00525906
0.00526515
0.00526997
0.00527352
0.00527578
0.00527676
0.00527646
0.00527488
0.00527201
0.00526787
0.00526245
0.00525576
0.00524782
0.00523861
0.00522816
0.00521647
0.00520355
0.00518941
0.00517407
0.00515754
0.00513984
0.00512097
0.00510096
0.00507982
0.00505757
0.00503422
0.0050098
0.00498433
0.00495782
0.00493029
0.00490178
0.00487229
0.00484185
0.00481049
0.00477822
0.00474506
0.00471105
0.0046762
0.00464054
0.00460408
0.00456686
0.0045289
0.00449022
0.00445084
0.00441079
0.00437009
0.00432876
0.00428683
0.00424431
0.00420124
0.00415763
0.0041135
0.00406888
0.00402378
0.00397824
0.00393226
0.00388586
0.00383908
0.00379192
0.0037444
0.00369655
0.00364838
0.00359991
0.00355115
0.00350213
0.00345285
0.00340333
0.0033536
0.00330365
0.00325351
0.0032032
0.00315271
0.00310208
0.0030513
0.00300039
0.00294936
0.00289822
0.00284698
0.00279566
0.00274426
0.00269279
0.00264125
0.00258967
0.00253804
0.00248637
0.00243466
0.00238294
0.00233119
0.00227944
0.00222767
0.00217591
0.00212414
0.00207238
0.00202063
0.0019689
0.00191719
0.00186549
0.00181382
0.00176218
0.00171056
0.00165897
0.00160742
0.0015559
0.00150441
0.00145296
0.00140155
0.00135017
0.00129883
0.00124753
0.00119627
0.00114504
0.00109385
0.0010427
0.000991579
0.000940497
0.000889449
0.000838433
0.000787449
0.000736495
0.000685571
0.000634673
0.000583801
0.000532953
0.000482127
0.000431322
0.000380534
0.000329763
0.000279006
0.000228261
0.000177526
0.000126799
7.60772e-05
2.53587e-05
4.10589e-05
0.000123179
0.000205305
0.000287443
0.000369595
0.000451766
0.00053396
0.000616181
0.000698434
0.000780723
0.00086305
0.00094542
0.00102784
0.0011103
0.00119283
0.0012754
0.00135804
0.00144074
0.00152351
0.00160635
0.00168925
0.00177224
0.00185529
0.00193843
0.00202164
0.00210493
0.00218831
0.00227176
0.0023553
0.00243893
0.00252263
0.00260642
0.00269029
0.00277424
0.00285827
0.00294238
0.00302656
0.00311081
0.00319514
0.00327952
0.00336397
0.00344847
0.00353303
0.00361763
0.00370227
0.00378694
0.00387164
0.00395635
0.00404108
0.0041258
0.00421051
0.0042952
0.00437986
0.00446447
0.00454902
0.00463351
0.00471791
0.00480221
0.0048864
0.00497045
0.00505436
0.0051381
0.00522165
0.005305
0.00538812
0.005471
0.0055536
0.00563591
0.00571791
0.00579956
0.00588084
0.00596173
0.0060422
0.00612222
0.00620176
0.00628079
0.00635928
0.0064372
0.00651452
0.00659119
0.0066672
0.0067425
0.00681706
0.00689085
0.00696382
0.00703594
0.00710717
0.00717747
0.00724681
0.00731515
0.00738244
0.00744864
0.00751373
0.00757765
0.00764036
0.00770184
0.00776202
0.00782088
0.00787838
0.00793447
0.00798912
0.00804228
0.00809392
0.008144
0.00819247
0.00823932
0.00828449
0.00832795
0.00836967
0.00840961
0.00844774
0.00848404
0.00851846
0.00855099
0.00858159
0.00861024
0.0086369
0.00866157
0.00868422
0.00870483
0.00872337
0.00873984
0.00875422
0.0087665
0.00877666
0.0087847
0.00879062
0.00879439
0.00879603
0.00879552
0.00879288
0.00878811
0.0087812
0.00877216
0.00876101
0.00874775
0.0087324
0.00871497
0.00869547
0.00867393
0.00865036
0.00862478
0.00859721
0.00856769
0.00853623
0.00850285
0.0084676
0.00843049
0.00839156
0.00835084
0.00830836
0.00826416
0.00821826
0.00817071
0.00812154
0.00807078
0.00801848
0.00796467
0.00790939
0.00785268
0.00779457
0.0077351
0.00767432
0.00761227
0.00754897
0.00748447
0.00741882
0.00735204
0.00728418
0.00721527
0.00714536
0.00707448
0.00700266
0.00692995
0.00685638
0.00678199
0.00670681
0.00663087
0.00655422
0.00647687
0.00639888
0.00632026
0.00624104
0.00616127
0.00608097
0.00600016
0.00591888
0.00583716
0.00575501
0.00567247
0.00558956
0.0055063
0.00542272
0.00533885
0.00525469
0.00517028
0.00508564
0.00500078
0.00491571
0.00483047
0.00474507
0.00465952
0.00457384
0.00448804
0.00440215
0.00431616
0.0042301
0.00414398
0.0040578
0.00397158
0.00388534
0.00379907
0.00371279
0.00362651
0.00354023
0.00345396
0.00336771
0.00328148
0.00319529
0.00310913
0.003023
0.00293693
0.0028509
0.00276492
0.00267899
0.00259312
0.00250731
0.00242156
0.00233587
0.00225024
0.00216468
0.00207917
0.00199374
0.00190836
0.00182304
0.00173779
0.00165259
0.00156746
0.00148238
0.00139735
0.00131238
0.00122746
0.00114259
0.00105776
0.000972975
0.000888231
0.000803523
0.000718849
0.000634206
0.000549589
0.000464997
0.000380424
0.000295868
0.000211325
0.000126791
4.22632e-05
5.74795e-05
0.000172442
0.000287413
0.000402399
0.000517406
0.000632439
0.000747505
0.00086261
0.000977758
0.00109296
0.00120821
0.00132352
0.0014389
0.00155435
0.00166988
0.00178548
0.00190117
0.00201695
0.00213282
0.00224879
0.00236485
0.00248102
0.0025973
0.00271369
0.00283018
0.00294679
0.00306351
0.00318035
0.00329731
0.00341438
0.00353157
0.00364888
0.0037663
0.00388383
0.00400147
0.00411922
0.00423708
0.00435504
0.0044731
0.00459124
0.00470948
0.00482779
0.00494618
0.00506463
0.00518313
0.00530168
0.00542027
0.00553888
0.00565751
0.00577613
0.00589474
0.00601332
0.00613186
0.00625034
0.00636873
0.00648703
0.00660521
0.00672326
0.00684114
0.00695884
0.00707634
0.0071936
0.0073106
0.00742732
0.00754372
0.00765977
0.00777545
0.00789072
0.00800555
0.00811989
0.00823373
0.00834702
0.00845971
0.00857178
0.00868318
0.00879386
0.00890379
0.00901293
0.00912121
0.00922861
0.00933507
0.00944054
0.00954497
0.00964832
0.00975053
0.00985155
0.00995133
0.0100498
0.0101469
0.0102427
0.0103369
0.0104297
0.0105208
0.0106104
0.0106983
0.0107844
0.0108687
0.0109511
0.0110317
0.0111103
0.0111868
0.0112613
0.0113337
0.0114038
0.0114718
0.0115374
0.0116007
0.0116616
0.01172
0.011776
0.0118294
0.0118803
0.0119285
0.0119741
0.012017
0.0120571
0.0120945
0.012129
0.0121608
0.0121896
0.0122156
0.0122387
0.0122589
0.0122761
0.0122903
0.0123016
0.0123098
0.0123151
0.0123174
0.0123167
0.012313
0.0123063
0.0122966
0.012284
0.0122684
0.0122498
0.0122283
0.0122039
0.0121765
0.0121463
0.0121133
0.0120775
0.0120388
0.0119975
0.0119534
0.0119066
0.0118572
0.0118052
0.0117507
0.0116936
0.0116341
0.0115722
0.0115079
0.0114413
0.0113724
0.0113013
0.011228
0.0111526
0.0110752
0.0109957
0.0109143
0.010831
0.0107458
0.0106589
0.0105702
0.0104799
0.0103879
0.0102944
0.0101993
0.0101028
0.0100049
0.00990558
0.00980499
0.00970314
0.00960009
0.00949589
0.00939059
0.00928423
0.00917687
0.00906854
0.0089593
0.00884919
0.00873825
0.00862652
0.00851406
0.00840089
0.00828706
0.00817261
0.00805756
0.00794197
0.00782586
0.00770927
0.00759223
0.00747478
0.00735693
0.00723873
0.0071202
0.00700136
0.00688225
0.00676289
0.0066433
0.00652351
0.00640354
0.00628341
0.00616313
0.00604273
0.00592223
0.00580164
0.00568098
0.00556026
0.0054395
0.00531871
0.00519791
0.0050771
0.0049563
0.00483552
0.00471476
0.00459403
0.00447335
0.00435272
0.00423215
0.00411163
0.00399119
0.00387081
0.00375051
0.00363029
0.00351015
0.0033901
0.00327013
0.00315025
0.00303046
0.00291076
0.00279114
0.00267161
0.00255217
0.00243282
0.00231355
0.00219436
0.00207525
0.00195622
0.00183726
0.00171838
0.00159956
0.0014808
0.00136211
0.00124347
0.00112489
0.00100635
0.00088785
0.000769392
0.000650967
0.000532571
0.000414197
0.000295842
0.0001775
5.91659e-05
7.38971e-05
0.000221695
0.000369505
0.000517334
0.00066519
0.00081308
0.000961012
0.00110899
0.00125703
0.00140514
0.00155331
0.00170156
0.0018499
0.00199832
0.00214685
0.00229547
0.00244421
0.00259306
0.00274203
0.00289112
0.00304035
0.0031897
0.0033392
0.00348883
0.00363861
0.00378853
0.00393861
0.00408883
0.0042392
0.00438972
0.00454039
0.00469121
0.00484218
0.0049933
0.00514456
0.00529596
0.0054475
0.00559917
0.00575097
0.00590288
0.00605491
0.00620704
0.00635926
0.00651157
0.00666395
0.00681639
0.00696887
0.0071214
0.00727394
0.00742648
0.007579
0.00773149
0.00788392
0.00803628
0.00818854
0.00834067
0.00849265
0.00864446
0.00879607
0.00894744
0.00909854
0.00924935
0.00939983
0.00954995
0.00969965
0.00984892
0.00999771
0.010146
0.0102937
0.0104407
0.0105872
0.0107329
0.0108778
0.011022
0.0111653
0.0113077
0.0114491
0.0115895
0.0117288
0.011867
0.0120039
0.0121396
0.012274
0.0124069
0.0125384
0.0126684
0.0127968
0.0129235
0.0130485
0.0131716
0.0132929
0.0134123
0.0135296
0.0136448
0.0137579
0.0138687
0.0139772
0.0140833
0.014187
0.0142881
0.0143866
0.0144825
0.0145756
0.0146659
0.0147533
0.0148378
0.0149192
0.0149976
0.0150729
0.0151449
0.0152137
0.0152791
0.0153412
0.0153999
0.0154551
0.0155067
0.0155548
0.0155993
0.0156402
0.0156773
0.0157108
0.0157405
0.0157664
0.0157886
0.0158069
0.0158214
0.0158321
0.0158389
0.0158418
0.0158409
0.0158362
0.0158275
0.0158151
0.0157988
0.0157787
0.0157548
0.0157271
0.0156956
0.0156605
0.0156216
0.0155791
0.0155329
0.0154832
0.01543
0.0153732
0.015313
0.0152495
0.0151825
0.0151123
0.0150389
0.0149623
0.0148826
0.0147998
0.0147141
0.0146254
0.0145339
0.0144396
0.0143426
0.0142429
0.0141407
0.0140359
0.0139287
0.0138191
0.0137073
0.0135932
0.0134769
0.0133586
0.0132382
0.0131159
0.0129917
0.0128657
0.012738
0.0126086
0.0124775
0.012345
0.0122109
0.0120754
0.0119386
0.0118005
0.0116611
0.0115206
0.0113789
0.0112362
0.0110925
0.0109479
0.0108023
0.0106559
0.0105086
0.0103607
0.010212
0.0100627
0.00991269
0.00976216
0.00961109
0.00945953
0.0093075
0.00915506
0.00900223
0.00884904
0.00869554
0.00854174
0.00838769
0.0082334
0.00807891
0.00792424
0.00776941
0.00761445
0.00745937
0.00730421
0.00714898
0.0069937
0.00683838
0.00668304
0.00652769
0.00637236
0.00621705
0.00606177
0.00590654
0.00575137
0.00559626
0.00544122
0.00528627
0.0051314
0.00497663
0.00482195
0.00466738
0.00451291
0.00435855
0.00420431
0.00405018
0.00389616
0.00374225
0.00358846
0.00343478
0.00328122
0.00312777
0.00297442
0.00282118
0.00266805
0.00251501
0.00236207
0.00220923
0.00205647
0.00190379
0.00175119
0.00159866
0.0014462
0.0012938
0.00114146
0.000989161
0.000836909
0.000684694
0.000532509
0.000380347
0.000228201
7.6066e-05
9.03108e-05
0.000270937
0.000451578
0.000632242
0.000812939
0.000993679
0.00117447
0.00135532
0.00153624
0.00171724
0.00189833
0.00207951
0.0022608
0.00244219
0.00262371
0.00280535
0.00298713
0.00316905
0.00335111
0.00353333
0.00371571
0.00389825
0.00408096
0.00426384
0.00444689
0.00463013
0.00481355
0.00499715
0.00518093
0.0053649
0.00554906
0.0057334
0.00591793
0.00610263
0.00628751
0.00647257
0.00665779
0.00684317
0.00702871
0.0072144
0.00740023
0.00758618
0.00777225
0.00795843
0.0081447
0.00833104
0.00851744
0.00870389
0.00889036
0.00907684
0.00926329
0.00944971
0.00963606
0.00982232
0.0100085
0.0101945
0.0103803
0.0105659
0.0107512
0.0109363
0.011121
0.0113054
0.0114894
0.011673
0.011856
0.0120386
0.0122205
0.0124018
0.0125824
0.0127622
0.0129413
0.0131195
0.0132968
0.0134731
0.0136483
0.0138225
0.0139954
0.0141671
0.0143375
0.0145065
0.014674
0.01484
0.0150044
0.015167
0.0153279
0.0154869
0.0156439
0.0157989
0.0159518
0.0161025
0.0162509
0.0163969
0.0165404
0.0166814
0.0168197
0.0169553
0.0170881
0.017218
0.0173448
0.0174685
0.0175891
0.0177064
0.0178204
0.0179309
0.0180378
0.0181412
0.0182409
0.0183368
0.0184289
0.0185171
0.0186012
0.0186813
0.0187573
0.0188291
0.0188967
0.0189599
0.0190188
0.0190733
0.0191233
0.0191688
0.0192097
0.0192461
0.0192778
0.0193049
0.0193274
0.0193451
0.0193582
0.0193665
0.0193701
0.019369
0.0193632
0.0193526
0.0193373
0.0193174
0.0192928
0.0192635
0.0192296
0.0191911
0.0191481
0.0191005
0.0190485
0.018992
0.0189311
0.018866
0.0187965
0.0187228
0.018645
0.0185631
0.0184772
0.0183873
0.0182936
0.018196
0.0180948
0.0179898
0.0178813
0.0177693
0.0176539
0.0175352
0.0174133
0.0172882
0.01716
0.0170288
0.0168948
0.0167579
0.0166183
0.0164761
0.0163313
0.016184
0.0160344
0.0158825
0.0157283
0.0155721
0.0154137
0.0152535
0.0150913
0.0149273
0.0147616
0.0145943
0.0144253
0.0142549
0.014083
0.0139098
0.0137352
0.0135595
0.0133825
0.0132045
0.0130255
0.0128454
0.0126645
0.0124827
0.0123001
0.0121167
0.0119326
0.0117479
0.0115626
0.0113767
0.0111903
0.0110034
0.0108162
0.0106285
0.0104404
0.0102521
0.0100635
0.00987459
0.0096855
0.00949622
0.00930678
0.0091172
0.00892752
0.00873775
0.00854793
0.00835806
0.00816817
0.00797828
0.0077884
0.00759855
0.00740874
0.007219
0.00702932
0.00683973
0.00665022
0.00646082
0.00627153
0.00608235
0.00589329
0.00570436
0.00551556
0.0053269
0.00513837
0.00494998
0.00476174
0.00457363
0.00438567
0.00419784
0.00401016
0.00382261
0.00363519
0.00344791
0.00326075
0.00307371
0.00288679
0.00269999
0.00251329
0.00232669
0.00214019
0.00195378
0.00176745
0.0015812
0.00139501
0.00120889
0.00102282
0.000836787
0.000650796
0.000464834
0.000278892
9.29627e-05
0.00010672
0.000320165
0.000533627
0.000747117
0.000960646
0.00117423
0.00138787
0.00160158
0.00181537
0.00202926
0.00224325
0.00245736
0.00267159
0.00288595
0.00310045
0.0033151
0.00352991
0.00374489
0.00396005
0.00417538
0.0043909
0.00460662
0.00482254
0.00503866
0.00525499
0.00547154
0.0056883
0.00590528
0.00612248
0.0063399
0.00655754
0.0067754
0.00699348
0.00721178
0.00743029
0.007649
0.00786791
0.00808702
0.00830631
0.00852578
0.00874542
0.00896521
0.00918514
0.0094052
0.00962537
0.00984563
0.010066
0.0102864
0.0105068
0.0107272
0.0109476
0.011168
0.0113883
0.0116085
0.0118285
0.0120484
0.0122681
0.0124875
0.0127067
0.0129255
0.0131439
0.0133619
0.0135795
0.0137965
0.0140129
0.0142288
0.0144439
0.0146583
0.0148719
0.0150846
0.0152963
0.0155071
0.0157167
0.0159252
0.0161325
0.0163384
0.016543
0.0167461
0.0169476
0.0171475
0.0173457
0.017542
0.0177365
0.0179289
0.0181192
0.0183073
0.0184931
0.0186765
0.0188574
0.0190356
0.0192112
0.019384
0.0195538
0.0197207
0.0198843
0.0200448
0.0202019
0.0203556
0.0205057
0.0206522
0.0207949
0.0209337
0.0210685
0.0211993
0.021326
0.0214483
0.0215663
0.0216799
0.0217889
0.0218932
0.0219929
0.0220877
0.0221776
0.0222626
0.0223426
0.0224175
0.0224872
0.0225517
0.0226109
0.0226647
0.0227132
0.0227562
0.0227938
0.0228259
0.0228525
0.0228735
0.0228889
0.0228988
0.0229031
0.0229018
0.0228949
0.0228824
0.0228643
0.0228407
0.0228115
0.0227769
0.0227367
0.0226912
0.0226402
0.0225839
0.0225223
0.0224554
0.0223834
0.0223062
0.022224
0.0221368
0.0220447
0.0219477
0.021846
0.0217396
0.0216287
0.0215132
0.0213933
0.0212691
0.0211407
0.0210082
0.0208716
0.0207311
0.0205868
0.0204387
0.020287
0.0201318
0.0199732
0.0198112
0.019646
0.0194777
0.0193064
0.0191322
0.0189552
0.0187754
0.0185931
0.0184082
0.0182209
0.0180313
0.0178394
0.0176455
0.0174495
0.0172515
0.0170517
0.0168501
0.0166468
0.0164419
0.0162355
0.0160276
0.0158183
0.0156078
0.0153961
0.0151831
0.0149692
0.0147542
0.0145382
0.0143214
0.0141037
0.0138853
0.0136662
0.0134464
0.013226
0.0130051
0.0127837
0.0125618
0.0123395
0.0121168
0.0118938
0.0116705
0.0114469
0.0112232
0.0109992
0.0107751
0.0105509
0.0103266
0.0101022
0.00987776
0.0096533
0.00942884
0.0092044
0.00898
0.00875566
0.00853138
0.00830719
0.0080831
0.00785912
0.00763527
0.00741154
0.00718795
0.0069645
0.00674121
0.00651808
0.0062951
0.0060723
0.00584965
0.00562718
0.00540487
0.00518273
0.00496076
0.00473896
0.00451731
0.00429583
0.0040745
0.00385332
0.00363229
0.0034114
0.00319064
0.00297001
0.00274951
0.00252911
0.00230882
0.00208863
0.00186853
0.00164851
0.00142856
0.00120868
0.000988844
0.000769055
0.000549301
0.000329571
0.000109855
0.000123123
0.000369375
0.000615647
0.000861952
0.0011083
0.00135471
0.00160119
0.00184775
0.00209441
0.00234118
0.00258806
0.00283508
0.00308224
0.00332956
0.00357704
0.00382469
0.00407253
0.00432056
0.00456879
0.00481724
0.0050659
0.00531479
0.00556392
0.00581328
0.00606288
0.00631273
0.00656284
0.00681319
0.00706381
0.00731468
0.00756581
0.00781719
0.00806883
0.00832072
0.00857285
0.00882523
0.00907784
0.00933068
0.00958374
0.009837
0.0100905
0.0103441
0.0105979
0.0108519
0.0111059
0.0113601
0.0116144
0.0118688
0.0121232
0.0123776
0.012632
0.0128863
0.0131406
0.0133948
0.0136488
0.0139026
0.0141562
0.0144095
0.0146624
0.014915
0.0151672
0.0154189
0.01567
0.0159206
0.0161705
0.0164197
0.0166681
0.0169156
0.0171622
0.0174078
0.0176523
0.0178957
0.0181378
0.0183786
0.0186179
0.0188558
0.0190921
0.0193266
0.0195594
0.0197903
0.0200192
0.020246
0.0204706
0.0206928
0.0209127
0.02113
0.0213446
0.0215565
0.0217655
0.0219715
0.0221744
0.022374
0.0225702
0.022763
0.0229522
0.0231376
0.0233192
0.0234968
0.0236703
0.0238395
0.0240045
0.0241649
0.0243208
0.024472
0.0246183
0.0247598
0.0248962
0.0250274
0.0251534
0.0252741
0.0253893
0.0254989
0.0256029
0.0257012
0.0257936
0.0258802
0.0259608
0.0260353
0.0261038
0.026166
0.0262221
0.0262719
0.0263153
0.0263524
0.0263832
0.0264075
0.0264253
0.0264367
0.0264417
0.0264401
0.0264321
0.0264177
0.0263968
0.0263695
0.0263358
0.0262957
0.0262493
0.0261966
0.0261377
0.0260726
0.0260013
0.025924
0.0258408
0.0257515
0.0256565
0.0255557
0.0254492
0.0253371
0.0252195
0.0250965
0.0249683
0.0248348
0.0246962
0.0245527
0.0244042
0.024251
0.0240932
0.0239308
0.023764
0.0235929
0.0234176
0.0232382
0.0230549
0.0228678
0.0226769
0.0224824
0.0222845
0.0220832
0.0218787
0.021671
0.0214603
0.0212467
0.0210304
0.0208113
0.0205897
0.0203657
0.0201393
0.0199106
0.0196798
0.019447
0.0192122
0.0189755
0.0187371
0.0184971
0.0182554
0.0180123
0.0177678
0.0175219
0.0172749
0.0170266
0.0167773
0.0165269
0.0162756
0.0160234
0.0157705
0.0155167
0.0152623
0.0150072
0.0147516
0.0144955
0.0142388
0.0139818
0.0137244
0.0134667
0.0132086
0.0129503
0.0126919
0.0124332
0.0121744
0.0119155
0.0116565
0.0113975
0.0111384
0.0108794
0.0106204
0.0103614
0.0101025
0.00984368
0.00958497
0.00932637
0.0090679
0.00880958
0.00855141
0.0082934
0.00803556
0.00777791
0.00752043
0.00726315
0.00700605
0.00674915
0.00649245
0.00623595
0.00597964
0.00572352
0.0054676
0.00521186
0.00495631
0.00470094
0.00444575
0.00419073
0.00393587
0.00368117
0.00342662
0.0031722
0.00291792
0.00266377
0.00240972
0.00215578
0.00190194
0.00164817
0.00139448
0.00114086
0.00088728
0.000633743
0.000380235
0.000126743
0.00013952
0.000418566
0.000697636
0.000976742
0.0012559
0.00153512
0.00181443
0.00209383
0.00237334
0.00265297
0.00293274
0.00321266
0.00349274
0.003773
0.00405345
0.00433409
0.00461495
0.00489602
0.00517733
0.00545888
0.00574068
0.00602273
0.00630505
0.00658765
0.00687052
0.00715367
0.00743712
0.00772085
0.00800487
0.00828919
0.00857381
0.00885872
0.00914392
0.0094294
0.00971517
0.0100012
0.0102875
0.0105741
0.0108609
0.011148
0.0114353
0.0117228
0.0120105
0.0122984
0.0125864
0.0128746
0.0131628
0.0134512
0.0137396
0.014028
0.0143164
0.0146048
0.0148931
0.0151812
0.0154692
0.015757
0.0160445
0.0163317
0.0166186
0.016905
0.0171909
0.0174764
0.0177612
0.0180453
0.0183287
0.0186113
0.0188931
0.0191738
0.0194535
0.0197321
0.0200095
0.0202855
0.0205602
0.0208333
0.0211049
0.0213748
0.0216428
0.021909
0.0221731
0.022435
0.0226948
0.0229521
0.023207
0.0234592
0.0237087
0.0239553
0.0241989
0.0244394
0.0246766
0.0249105
0.0251407
0.0253674
0.0255902
0.025809
0.0260237
0.0262343
0.0264404
0.0266421
0.026839
0.0270312
0.0272185
0.0274007
0.0275778
0.0277494
0.0279157
0.0280763
0.0282312
0.0283803
0.0285234
0.0286604
0.0287913
0.0289158
0.0290339
0.0291455
0.0292506
0.0293489
0.0294404
0.0295251
0.0296029
0.0296736
0.0297373
0.0297938
0.0298432
0.0298854
0.0299202
0.0299478
0.0299681
0.0299811
0.0299867
0.029985
0.0299759
0.0299595
0.0299357
0.0299047
0.0298664
0.0298209
0.0297682
0.0297083
0.0296414
0.0295674
0.0294865
0.0293987
0.029304
0.0292027
0.0290947
0.0289802
0.0288593
0.0287319
0.0285984
0.0284587
0.028313
0.0281615
0.0280041
0.0278411
0.0276725
0.0274986
0.0273193
0.027135
0.0269456
0.0267513
0.0265522
0.0263486
0.0261405
0.025928
0.0257114
0.0254906
0.0252659
0.0250374
0.0248053
0.0245696
0.0243305
0.0240881
0.0238425
0.0235939
0.0233425
0.0230882
0.0228313
0.0225719
0.02231
0.0220458
0.0217794
0.0215109
0.0212405
0.0209681
0.020694
0.0204182
0.0201408
0.019862
0.0195817
0.0193001
0.0190173
0.0187334
0.0184484
0.0181624
0.0178755
0.0175877
0.0172992
0.01701
0.0167201
0.0164296
0.0161387
0.0158472
0.0155553
0.0152631
0.0149705
0.0146777
0.0143846
0.0140914
0.013798
0.0135045
0.0132109
0.0129172
0.0126236
0.0123299
0.0120363
0.0117427
0.0114493
0.0111559
0.0108626
0.0105695
0.0102765
0.00998374
0.00969112
0.00939868
0.00910645
0.00881442
0.0085226
0.008231
0.00793962
0.00764846
0.00735753
0.00706682
0.00677634
0.00648608
0.00619605
0.00590622
0.00561662
0.00532721
0.00503801
0.00474901
0.00446019
0.00417155
0.00388308
0.00359477
0.00330661
0.0030186
0.00273071
0.00244294
0.00215528
0.00186771
0.00158023
0.00129282
0.00100546
0.000718157
0.000430881
0.000143625
0.000155909
0.000467735
0.000779586
0.00109148
0.00140343
0.00171546
0.00202757
0.0023398
0.00265214
0.00296463
0.00327727
0.00359008
0.00390307
0.00421626
0.00452966
0.00484328
0.00515714
0.00547125
0.00578562
0.00610027
0.00641519
0.0067304
0.00704592
0.00736174
0.00767787
0.00799433
0.0083111
0.00862821
0.00894565
0.00926342
0.00958152
0.00989995
0.0102187
0.0105378
0.0108572
0.0111769
0.011497
0.0118173
0.0121379
0.0124588
0.01278
0.0131013
0.0134229
0.0137448
0.0140667
0.0143889
0.0147112
0.0150335
0.015356
0.0156784
0.0160009
0.0163233
0.0166456
0.0169678
0.0172898
0.0176116
0.0179331
0.0182543
0.0185751
0.0188954
0.0192152
0.0195344
0.019853
0.0201708
0.0204878
0.0208039
0.021119
0.0214331
0.021746
0.0220577
0.022368
0.0226768
0.0229841
0.0232897
0.0235936
0.0238955
0.0241955
0.0244933
0.0247889
0.025082
0.0253727
0.0256607
0.025946
0.0262283
0.0265076
0.0267837
0.0270564
0.0273256
0.0275912
0.027853
0.0281108
0.0283645
0.028614
0.0288591
0.0290995
0.0293353
0.0295662
0.029792
0.0300126
0.0302279
0.0304377
0.0306417
0.03084
0.0310324
0.0312186
0.0313985
0.0315721
0.0317391
0.0318994
0.0320529
0.0321995
0.0323391
0.0324714
0.0325965
0.0327142
0.0328244
0.0329269
0.0330218
0.033109
0.0331882
0.0332596
0.033323
0.0333783
0.0334255
0.0334646
0.0334956
0.0335183
0.0335328
0.0335391
0.0335371
0.033527
0.0335086
0.033482
0.0334472
0.0334043
0.0333532
0.0332942
0.0332271
0.0331521
0.0330692
0.0329785
0.0328801
0.0327741
0.0326605
0.0325395
0.0324112
0.0322757
0.032133
0.0319834
0.0318269
0.0316637
0.0314939
0.0313176
0.031135
0.0309462
0.0307514
0.0305506
0.0303441
0.030132
0.0299144
0.0296915
0.0294635
0.0292304
0.0289925
0.0287499
0.0285027
0.0282512
0.0279954
0.0277354
0.0274716
0.0272039
0.0269326
0.0266577
0.0263795
0.026098
0.0258134
0.0255259
0.0252355
0.0249425
0.0246468
0.0243487
0.0240483
0.0237457
0.023441
0.0231343
0.0228257
0.0225154
0.0222034
0.0218899
0.0215749
0.0212585
0.0209409
0.0206221
0.0203022
0.0199813
0.0196595
0.0193368
0.0190133
0.0186892
0.0183643
0.0180389
0.017713
0.0173866
0.0170599
0.0167327
0.0164053
0.0160776
0.0157497
0.0154217
0.0150935
0.0147653
0.014437
0.0141087
0.0137804
0.0134522
0.013124
0.0127959
0.012468
0.0121401
0.0118125
0.011485
0.0111577
0.0108306
0.0105038
0.0101771
0.00985072
0.00952455
0.00919863
0.00887296
0.00854754
0.00822238
0.00789748
0.00757283
0.00724843
0.00692428
0.00660037
0.00627671
0.00595328
0.00563008
0.0053071
0.00498433
0.00466176
0.00433938
0.00401719
0.00369516
0.0033733
0.00305158
0.00272999
0.00240853
0.00208717
0.00176591
0.00144472
0.0011236
0.000802538
0.000481508
0.0001605
0.00017229
0.000516879
0.000861495
0.00120616
0.00155089
0.0018957
0.00224061
0.00258564
0.00293081
0.00327613
0.00362163
0.00396731
0.0043132
0.0046593
0.00500564
0.00535223
0.00569909
0.00604622
0.00639365
0.00674137
0.00708941
0.00743778
0.00778647
0.00813551
0.0084849
0.00883465
0.00918476
0.00953524
0.00988608
0.0102373
0.0105889
0.0109409
0.0112932
0.0116459
0.0119989
0.0123524
0.0127061
0.0130602
0.0134146
0.0137693
0.0141243
0.0144796
0.0148352
0.0151909
0.0155469
0.0159031
0.0162594
0.0166158
0.0169723
0.0173288
0.0176854
0.0180419
0.0183983
0.0187546
0.0191107
0.0194666
0.0198221
0.0201773
0.0205321
0.0208864
0.0212401
0.0215932
0.0219455
0.0222971
0.0226478
0.0229975
0.0233461
0.0236935
0.0240397
0.0243845
0.0247279
0.0250696
0.0254096
0.0257479
0.0260841
0.0264183
0.0267502
0.0270799
0.027407
0.0277315
0.0280533
0.0283722
0.0286879
0.0290005
0.0293097
0.0296154
0.0299173
0.0302154
0.0305095
0.0307994
0.031085
0.031366
0.0316423
0.0319137
0.0321801
0.0324412
0.032697
0.0329471
0.0331915
0.03343
0.0336624
0.0338886
0.0341083
0.0343214
0.0345277
0.0347271
0.0349194
0.0351045
0.0352822
0.0354524
0.0356149
0.0357695
0.0359162
0.0360549
0.0361853
0.0363074
0.0364211
0.0365263
0.0366229
0.0367108
0.0367899
0.0368601
0.0369215
0.0369738
0.0370172
0.0370515
0.0370767
0.0370928
0.0370997
0.0370976
0.0370863
0.0370659
0.0370364
0.0369978
0.0369502
0.0368936
0.0368281
0.0367538
0.0366706
0.0365787
0.0364782
0.0363691
0.0362516
0.0361257
0.0359916
0.0358494
0.0356992
0.0355411
0.0353753
0.0352019
0.035021
0.0348328
0.0346375
0.0344352
0.034226
0.0340101
0.0337876
0.0335589
0.0333239
0.0330828
0.0328359
0.0325833
0.0323252
0.0320617
0.031793
0.0315192
0.0312407
0.0309574
0.0306695
0.0303774
0.030081
0.0297806
0.0294763
0.0291682
0.0288566
0.0285416
0.0282233
0.0279019
0.0275775
0.0272503
0.0269204
0.0265879
0.026253
0.0259158
0.0255764
0.025235
0.0248916
0.0245464
0.0241995
0.023851
0.023501
0.0231496
0.022797
0.0224431
0.0220881
0.0217321
0.0213752
0.0210174
0.0206589
0.0202996
0.0199397
0.0195793
0.0192183
0.018857
0.0184952
0.0181332
0.0177708