/*--------------------------------*- C++ -*----------------------------------*\
| =========                 |                                                 |
| \\      /  F ield         | OpenFOAM: The Open Source CFD Toolbox           |
|  \\    /   O peration     | Version:  v2012                                 |
|   \\  /    A nd           | Website:  www.openfoam.com                      |
|    \\/     M anipulation  |                                                 |
\*---------------------------------------------------------------------------*/
FoamFile
{
    version     2.0;
    format      ascii;
    class       surfaceScalarField;
    location    "18.3";
    object      phi;
}
// * * * * * * * * * * * * * * * * * * * * * * * * * * * * * * * * * * * * * //

dimensions      [0 3 -1 0 0 0 0];
oriented        oriented;


internalField   nonuniform List<scalar> 
130560
(
3.24693e-06
-3.24693e-06
6.49401e-06
-3.24708e-06
9.74139e-06
-3.24739e-06
1.29892e-05
-3.24784e-06
1.62377e-05
-3.24845e-06
1.94869e-05
-3.24921e-06
2.2737e-05
-3.25011e-06
2.59882e-05
-3.25116e-06
2.92405e-05
-3.25235e-06
3.24942e-05
-3.25368e-06
3.57493e-05
-3.25515e-06
3.90061e-05
-3.25675e-06
4.22646e-05
-3.25848e-06
4.55249e-05
-3.26034e-06
4.87872e-05
-3.26231e-06
5.20516e-05
-3.2644e-06
5.53182e-05
-3.2666e-06
5.85871e-05
-3.26891e-06
6.18584e-05
-3.27131e-06
6.51322e-05
-3.27381e-06
6.84086e-05
-3.27638e-06
7.16877e-05
-3.27904e-06
7.49694e-05
-3.28176e-06
7.8254e-05
-3.28454e-06
8.15413e-05
-3.28737e-06
8.48316e-05
-3.29024e-06
8.81247e-05
-3.29315e-06
9.14208e-05
-3.29608e-06
9.47198e-05
-3.29901e-06
9.80218e-05
-3.30195e-06
0.000101327
-3.30487e-06
0.000104634
-3.30776e-06
0.000107945
-3.31062e-06
0.000111258
-3.31343e-06
0.000114575
-3.31617e-06
0.000117893
-3.31882e-06
0.000121215
-3.32139e-06
0.000124539
-3.32384e-06
0.000127865
-3.32616e-06
0.000131193
-3.32833e-06
0.000134523
-3.33035e-06
0.000137856
-3.33218e-06
0.000141189
-3.33381e-06
0.000144525
-3.33522e-06
0.000147861
-3.33639e-06
0.000151198
-3.3373e-06
0.000154536
-3.33792e-06
0.000157875
-3.33825e-06
0.000161213
-3.33824e-06
0.000164551
-3.33788e-06
0.000167888
-3.33715e-06
0.000171224
-3.33602e-06
0.000174558
-3.33446e-06
0.000177891
-3.33245e-06
0.000181221
-3.32996e-06
0.000184548
-3.32697e-06
0.000187871
-3.32344e-06
0.00019119
-3.31935e-06
0.000194505
-3.31467e-06
0.000197814
-3.30937e-06
0.000201118
-3.30342e-06
0.000204415
-3.29679e-06
0.000207704
-3.28945e-06
0.000210986
-3.28136e-06
0.000214258
-3.2725e-06
0.000217521
-3.26284e-06
0.000220773
-3.25233e-06
0.000224014
-3.24095e-06
0.000227243
-3.22867e-06
0.000230458
-3.21545e-06
0.00023366
-3.20126e-06
0.000236846
-3.18607e-06
0.000240015
-3.16985e-06
0.000243168
-3.15255e-06
0.000246302
-3.13416e-06
0.000249417
-3.11463e-06
0.000252511
-3.09393e-06
0.000255583
-3.07204e-06
0.000258632
-3.04893e-06
0.000261656
-3.02455e-06
0.000264655
-2.99889e-06
0.000267627
-2.97192e-06
0.000270571
-2.9436e-06
0.000273485
-2.91391e-06
0.000276367
-2.88283e-06
0.000279218
-2.85032e-06
0.000282034
-2.81638e-06
0.000284815
-2.78097e-06
0.000287559
-2.74408e-06
0.000290265
-2.70569e-06
0.000292931
-2.66578e-06
0.000295555
-2.62434e-06
0.000298136
-2.58136e-06
0.000300673
-2.53682e-06
0.000303164
-2.49071e-06
0.000305607
-2.44304e-06
0.000308001
-2.3938e-06
0.000310344
-2.34298e-06
0.000312634
-2.29059e-06
0.000314871
-2.23664e-06
0.000317052
-2.18112e-06
0.000319176
-2.12406e-06
0.000321242
-2.06546e-06
0.000323247
-2.00534e-06
0.000325191
-1.94372e-06
0.000327071
-1.88062e-06
0.000328887
-1.81606e-06
0.000330637
-1.75008e-06
0.00033232
-1.6827e-06
0.000333934
-1.61396e-06
0.000335478
-1.54389e-06
0.00033695
-1.47254e-06
0.00033835
-1.39994e-06
0.000339677
-1.32615e-06
0.000340928
-1.25122e-06
0.000342103
-1.17519e-06
0.000343201
-1.09812e-06
0.000344221
-1.02006e-06
0.000345162
-9.41081e-07
0.000346023
-8.61239e-07
0.000346804
-7.80599e-07
0.000347503
-6.99225e-07
0.00034812
-6.17187e-07
0.000348655
-5.34555e-07
0.000349106
-4.51398e-07
0.000349474
-3.6779e-07
0.000349758
-2.83806e-07
0.000349958
-1.99518e-07
0.000350073
-1.15004e-07
0.000350103
-3.03391e-08
0.000350048
5.43999e-08
0.000349909
1.39137e-07
0.000349686
2.23794e-07
0.000349377
3.08296e-07
0.000348985
3.92566e-07
0.000348508
4.7653e-07
0.000347948
5.60112e-07
0.000347305
6.4324e-07
0.000346579
7.25842e-07
0.000345771
8.07847e-07
0.000344882
8.89186e-07
0.000343912
9.69792e-07
0.000342863
1.0496e-06
0.000341734
1.12855e-06
0.000340527
1.20657e-06
0.000339244
1.28362e-06
0.000337884
1.35962e-06
0.00033645
1.43454e-06
0.000334941
1.50832e-06
0.00033336
1.58092e-06
0.000331708
1.65227e-06
0.000329986
1.72236e-06
0.000328195
1.79113e-06
0.000326336
1.85855e-06
0.000324411
1.92459e-06
0.000322422
1.98922e-06
0.00032037
2.05241e-06
0.000318256
2.11413e-06
0.000316081
2.17437e-06
0.000313848
2.23311e-06
0.000311558
2.29033e-06
0.000309212
2.34602e-06
0.000306812
2.40018e-06
0.000304359
2.45278e-06
0.000301855
2.50384e-06
0.000299302
2.55335e-06
0.0002967
2.60131e-06
0.000294053
2.64772e-06
0.00029136
2.69259e-06
0.000288624
2.73592e-06
0.000285846
2.77774e-06
0.000283028
2.81804e-06
0.000280172
2.85685e-06
0.000277277
2.89418e-06
0.000274347
2.93005e-06
0.000271383
2.96447e-06
0.000268385
2.99747e-06
0.000265356
3.02908e-06
0.000262297
3.0593e-06
0.000259209
3.08817e-06
0.000256093
3.11572e-06
0.000252951
3.14197e-06
0.000249784
3.16694e-06
0.000246594
3.19067e-06
0.00024338
3.21319e-06
0.000240146
3.23452e-06
0.000236891
3.2547e-06
0.000233617
3.27376e-06
0.000230326
3.29172e-06
0.000227017
3.30863e-06
0.000223692
3.3245e-06
0.000220353
3.33938e-06
0.000217
3.35329e-06
0.000213634
3.36627e-06
0.000210255
3.37834e-06
0.000206866
3.38955e-06
0.000203466
3.39992e-06
0.000200056
3.40948e-06
0.000196638
3.41827e-06
0.000193212
3.42631e-06
0.000189778
3.43364e-06
0.000186338
3.44029e-06
0.000182891
3.44629e-06
0.00017944
3.45166e-06
0.000175983
3.45644e-06
0.000172523
3.46065e-06
0.000169058
3.46432e-06
0.000165591
3.46749e-06
0.000162121
3.47017e-06
0.000158648
3.4724e-06
0.000155174
3.4742e-06
0.000151699
3.4756e-06
0.000148222
3.47662e-06
0.000144745
3.47728e-06
0.000141267
3.47761e-06
0.000137789
3.47763e-06
0.000134312
3.47737e-06
0.000130835
3.47685e-06
0.000127359
3.47608e-06
0.000123884
3.47509e-06
0.00012041
3.4739e-06
0.000116938
3.47253e-06
0.000113467
3.471e-06
0.000109997
3.46932e-06
0.00010653
3.46751e-06
0.000103064
3.46559e-06
9.96006e-05
3.46358e-06
9.61391e-05
3.4615e-06
9.26798e-05
3.45935e-06
8.92226e-05
3.45715e-06
8.57677e-05
3.45492e-06
8.2315e-05
3.45266e-06
7.88646e-05
3.4504e-06
7.54165e-05
3.44814e-06
7.19706e-05
3.4459e-06
6.85269e-05
3.44369e-06
6.50854e-05
3.44151e-06
6.1646e-05
3.43939e-06
5.82087e-05
3.43732e-06
5.47734e-05
3.43531e-06
5.134e-05
3.43338e-06
4.79085e-05
3.43154e-06
4.44787e-05
3.42978e-06
4.10506e-05
3.42812e-06
3.7624e-05
3.42657e-06
3.41989e-05
3.42512e-06
3.07751e-05
3.42379e-06
2.73525e-05
3.42257e-06
2.3931e-05
3.42149e-06
2.05105e-05
3.42053e-06
1.70908e-05
3.4197e-06
1.36718e-05
3.419e-06
1.02534e-05
3.41844e-06
6.83534e-06
3.41802e-06
3.4176e-06
3.41774e-06
3.4176e-06
3.24678e-06
-6.49371e-06
6.49372e-06
-6.49402e-06
9.74096e-06
-6.49463e-06
1.29887e-05
-6.49554e-06
1.6237e-05
-6.49676e-06
1.9486e-05
-6.49827e-06
2.2736e-05
-6.50008e-06
2.5987e-05
-6.50218e-06
2.92392e-05
-6.50456e-06
3.24928e-05
-6.50723e-06
3.57478e-05
-6.51017e-06
3.90044e-05
-6.51337e-06
4.22628e-05
-6.51684e-06
4.5523e-05
-6.52055e-06
4.87852e-05
-6.52451e-06
5.20495e-05
-6.5287e-06
5.5316e-05
-6.53311e-06
5.85848e-05
-6.53772e-06
6.1856e-05
-6.54254e-06
6.51298e-05
-6.54753e-06
6.84061e-05
-6.55269e-06
7.1685e-05
-6.55801e-06
7.49667e-05
-6.56346e-06
7.82512e-05
-6.56903e-06
8.15386e-05
-6.57471e-06
8.48288e-05
-6.58046e-06
8.81219e-05
-6.58628e-06
9.1418e-05
-6.59214e-06
9.4717e-05
-6.59803e-06
9.8019e-05
-6.60391e-06
0.000101324
-6.60977e-06
0.000104632
-6.61557e-06
0.000107942
-6.6213e-06
0.000111256
-6.62692e-06
0.000114572
-6.63242e-06
0.000117891
-6.63775e-06
0.000121213
-6.64289e-06
0.000124537
-6.64781e-06
0.000127863
-6.65247e-06
0.000131191
-6.65684e-06
0.000134522
-6.66088e-06
0.000137854
-6.66456e-06
0.000141188
-6.66784e-06
0.000144524
-6.67068e-06
0.00014786
-6.67304e-06
0.000151198
-6.67488e-06
0.000154536
-6.67616e-06
0.000157875
-6.67682e-06
0.000161213
-6.67683e-06
0.000164552
-6.67614e-06
0.000167889
-6.6747e-06
0.000171226
-6.67246e-06
0.000174561
-6.66937e-06
0.000177893
-6.66538e-06
0.000181224
-6.66043e-06
0.000184551
-6.65447e-06
0.000187875
-6.64744e-06
0.000191195
-6.63929e-06
0.000194511
-6.62996e-06
0.000197821
-6.61939e-06
0.000201125
-6.60752e-06
0.000204422
-6.59429e-06
0.000207712
-6.57964e-06
0.000210995
-6.5635e-06
0.000214268
-6.54581e-06
0.000217532
-6.52651e-06
0.000220785
-6.50553e-06
0.000224027
-6.48281e-06
0.000227256
-6.45828e-06
0.000230473
-6.43188e-06
0.000233675
-6.40353e-06
0.000236862
-6.37318e-06
0.000240033
-6.34076e-06
0.000243187
-6.30621e-06
0.000246322
-6.26945e-06
0.000249438
-6.23042e-06
0.000252533
-6.18906e-06
0.000255606
-6.14531e-06
0.000258656
-6.09911e-06
0.000261682
-6.05039e-06
0.000264682
-5.9991e-06
0.000267656
-5.94517e-06
0.000270601
-5.88856e-06
0.000273516
-5.82921e-06
0.0002764
-5.76707e-06
0.000279252
-5.70209e-06
0.00028207
-5.63422e-06
0.000284852
-5.56343e-06
0.000287598
-5.48967e-06
0.000290305
-5.4129e-06
0.000292972
-5.3331e-06
0.000295598
-5.25023e-06
0.000298181
-5.16426e-06
0.000300719
-5.07519e-06
0.000303212
-4.98299e-06
0.000305656
-4.88765e-06
0.000308052
-4.78916e-06
0.000310396
-4.68753e-06
0.000312688
-4.58275e-06
0.000314927
-4.47483e-06
0.000317109
-4.3638e-06
0.000319235
-4.24966e-06
0.000321302
-4.13244e-06
0.000323309
-4.01218e-06
0.000325254
-3.88892e-06
0.000327136
-3.76269e-06
0.000328953
-3.63355e-06
0.000330705
-3.50155e-06
0.000332389
-3.36676e-06
0.000334004
-3.22923e-06
0.000335549
-3.08906e-06
0.000337023
-2.94631e-06
0.000338424
-2.80108e-06
0.000339752
-2.65345e-06
0.000341004
-2.50353e-06
0.00034218
-2.35141e-06
0.000343279
-2.19721e-06
0.0003443
-2.04104e-06
0.000345242
-1.88302e-06
0.000346104
-1.72327e-06
0.000346886
-1.56193e-06
0.000347585
-1.39911e-06
0.000348203
-1.23497e-06
0.000348738
-1.06963e-06
0.00034919
-9.03243e-07
0.000349558
-7.35953e-07
0.000349842
-5.67909e-07
0.000350042
-3.99259e-07
0.000350157
-2.30154e-07
0.000350188
-6.07477e-08
0.000350133
1.08807e-07
0.000349994
2.78357e-07
0.00034977
4.47748e-07
0.000349462
6.16828e-07
0.000349069
7.85444e-07
0.000348592
9.53445e-07
0.000348031
1.12068e-06
0.000347387
1.28701e-06
0.000346661
1.45229e-06
0.000345853
1.61636e-06
0.000344963
1.77911e-06
0.000343992
1.94039e-06
0.000342942
2.10006e-06
0.000341812
2.25802e-06
0.000340605
2.41413e-06
0.00033932
2.56827e-06
0.000337959
2.72034e-06
0.000336523
2.87023e-06
0.000335014
3.01784e-06
0.000333432
3.16307e-06
0.000331778
3.30583e-06
0.000330055
3.44604e-06
0.000328262
3.58362e-06
0.000326402
3.71849e-06
0.000324476
3.8506e-06
0.000322485
3.97988e-06
0.000320432
4.10628e-06
0.000318316
4.22975e-06
0.00031614
4.35025e-06
0.000313905
4.46775e-06
0.000311614
4.5822e-06
0.000309266
4.69359e-06
0.000306864
4.8019e-06
0.00030441
4.90712e-06
0.000301905
5.00924e-06
0.00029935
5.10825e-06
0.000296747
5.20416e-06
0.000294098
5.29698e-06
0.000291403
5.38671e-06
0.000288666
5.47337e-06
0.000285887
5.55699e-06
0.000283067
5.63759e-06
0.000280209
5.71519e-06
0.000277313
5.78983e-06
0.000274382
5.86154e-06
0.000271416
5.93037e-06
0.000268417
5.99635e-06
0.000265386
6.05953e-06
0.000262326
6.11995e-06
0.000259236
6.17767e-06
0.000256119
6.23274e-06
0.000252976
6.28521e-06
0.000249808
6.33513e-06
0.000246616
6.38256e-06
0.000243402
6.42757e-06
0.000240166
6.47021e-06
0.00023691
6.51053e-06
0.000233635
6.54861e-06
0.000230342
6.58451e-06
0.000227033
6.61828e-06
0.000223707
6.65e-06
0.000220367
6.67972e-06
0.000217013
6.70751e-06
0.000213646
6.73343e-06
0.000210266
6.75755e-06
0.000206876
6.77994e-06
0.000203475
6.80064e-06
0.000200065
6.81974e-06
0.000196646
6.83728e-06
0.000193219
6.85334e-06
0.000189785
6.86797e-06
0.000186344
6.88123e-06
0.000182897
6.89319e-06
0.000179445
6.90391e-06
0.000175988
6.91344e-06
0.000172526
6.92183e-06
0.000169061
6.92916e-06
0.000165594
6.93546e-06
0.000162123
6.9408e-06
0.00015865
6.94524e-06
0.000155175
6.94881e-06
0.000151699
6.95158e-06
0.000148222
6.95358e-06
0.000144745
6.95488e-06
0.000141267
6.95552e-06
0.000137789
6.95555e-06
0.000134311
6.955e-06
0.000130834
6.95393e-06
0.000127358
6.95238e-06
0.000123883
6.95038e-06
0.000120409
6.94798e-06
0.000116936
6.94522e-06
0.000113465
6.94213e-06
0.000109995
6.93876e-06
0.000106528
6.93513e-06
0.000103062
6.93128e-06
9.95984e-05
6.92725e-06
9.61369e-05
6.92305e-06
9.26775e-05
6.91874e-06
8.92203e-05
6.91433e-06
8.57654e-05
6.90985e-06
8.23127e-05
6.90533e-06
7.88623e-05
6.90079e-06
7.54142e-05
6.89627e-06
7.19683e-05
6.89177e-06
6.85247e-05
6.88734e-06
6.50832e-05
6.88298e-06
6.16439e-05
6.87871e-06
5.82066e-05
6.87456e-06
5.47714e-05
6.87054e-06
5.13381e-05
6.86668e-06
4.79067e-05
6.86298e-06
4.4477e-05
6.85946e-06
4.1049e-05
6.85614e-06
3.76225e-05
6.85302e-06
3.41975e-05
6.85012e-06
3.07738e-05
6.84745e-06
2.73514e-05
6.84502e-06
2.393e-05
6.84284e-06
2.05097e-05
6.84092e-06
1.70901e-05
6.83925e-06
1.36712e-05
6.83786e-06
1.02529e-05
6.83674e-06
6.83506e-06
6.8359e-06
3.41746e-06
6.83534e-06
6.83506e-06
3.24647e-06
-9.74018e-06
6.4931e-06
-9.74064e-06
9.74004e-06
-9.74156e-06
1.29874e-05
-9.74294e-06
1.62354e-05
-9.74476e-06
1.94842e-05
-9.74703e-06
2.27339e-05
-9.74975e-06
2.59846e-05
-9.75291e-06
2.92365e-05
-9.75649e-06
3.24898e-05
-9.7605e-06
3.57446e-05
-9.76492e-06
3.90009e-05
-9.76974e-06
4.2259e-05
-9.77494e-06
4.5519e-05
-9.78053e-06
4.8781e-05
-9.78648e-06
5.2045e-05
-9.79278e-06
5.53113e-05
-9.7994e-06
5.858e-05
-9.80634e-06
6.1851e-05
-9.81358e-06
6.51246e-05
-9.82109e-06
6.84007e-05
-9.82885e-06
7.16795e-05
-9.83684e-06
7.49611e-05
-9.84504e-06
7.82455e-05
-9.85342e-06
8.15328e-05
-9.86195e-06
8.48229e-05
-9.87061e-06
8.8116e-05
-9.87937e-06
9.1412e-05
-9.88819e-06
9.47111e-05
-9.89704e-06
9.8013e-05
-9.9059e-06
0.000101318
-9.91471e-06
0.000104626
-9.92345e-06
0.000107937
-9.93208e-06
0.00011125
-9.94055e-06
0.000114567
-9.94883e-06
0.000117886
-9.95686e-06
0.000121208
-9.96461e-06
0.000124532
-9.97203e-06
0.000127858
-9.97906e-06
0.000131187
-9.98566e-06
0.000134518
-9.99177e-06
0.000137851
-9.99734e-06
0.000141185
-1.00023e-05
0.000144521
-1.00066e-05
0.000147858
-1.00102e-05
0.000151197
-1.0013e-05
0.000154535
-1.0015e-05
0.000157875
-1.00161e-05
0.000161214
-1.00161e-05
0.000164553
-1.00152e-05
0.000167891
-1.00131e-05
0.000171229
-1.00098e-05
0.000174564
-1.00052e-05
0.000177898
-9.99926e-06
0.00018123
-9.9919e-06
0.000184558
-9.98303e-06
0.000187883
-9.97257e-06
0.000191205
-9.96041e-06
0.000194521
-9.94649e-06
0.000197832
-9.93071e-06
0.000201138
-9.91299e-06
0.000204437
-9.89322e-06
0.000207729
-9.87132e-06
0.000211012
-9.84719e-06
0.000214287
-9.82073e-06
0.000217552
-9.79186e-06
0.000220807
-9.76048e-06
0.000224051
-9.72648e-06
0.000227283
-9.68976e-06
0.000230501
-9.65024e-06
0.000233705
-9.60781e-06
0.000236894
-9.56237e-06
0.000240067
-9.51382e-06
0.000243223
-9.46206e-06
0.000246361
-9.407e-06
0.000249479
-9.34854e-06
0.000252576
-9.28659e-06
0.000255652
-9.22104e-06
0.000258705
-9.15181e-06
0.000261733
-9.0788e-06
0.000264736
-9.00194e-06
0.000267712
-8.92112e-06
0.00027066
-8.83627e-06
0.000273578
-8.74731e-06
0.000276465
-8.65416e-06
0.00027932
-8.55674e-06
0.00028214
-8.455e-06
0.000284926
-8.34885e-06
0.000287674
-8.23826e-06
0.000290385
-8.12315e-06
0.000293055
-8.00348e-06
0.000295684
-7.8792e-06
0.00029827
-7.75029e-06
0.000300812
-7.6167e-06
0.000303307
-7.47841e-06
0.000305755
-7.33541e-06
0.000308153
-7.18768e-06
0.000310501
-7.03522e-06
0.000312796
-6.87804e-06
0.000315038
-6.71615e-06
0.000317223
-6.54957e-06
0.000319352
-6.37833e-06
0.000321422
-6.20247e-06
0.000323432
-6.02203e-06
0.00032538
-5.83708e-06
0.000327265
-5.64768e-06
0.000329085
-5.45389e-06
0.00033084
-5.25582e-06
0.000332526
-5.05354e-06
0.000334144
-4.84717e-06
0.000335692
-4.6368e-06
0.000337168
-4.42258e-06
0.000338572
-4.20461e-06
0.000339902
-3.98305e-06
0.000341156
-3.75803e-06
0.000342334
-3.52972e-06
0.000343435
-3.29828e-06
0.000344458
-3.06388e-06
0.000345402
-2.82669e-06
0.000346266
-2.58691e-06
0.000347048
-2.34472e-06
0.00034775
-2.10033e-06
0.000348369
-1.85394e-06
0.000348905
-1.60575e-06
0.000349357
-1.35599e-06
0.000349726
-1.10487e-06
0.000350011
-8.52621e-07
0.000350211
-5.99456e-07
0.000350327
-3.45608e-07
0.000350357
-9.13073e-08
0.000350303
1.63217e-07
0.000350163
4.17734e-07
0.000349939
6.72012e-07
0.00034963
9.25821e-07
0.000349237
1.17893e-06
0.000348759
1.43112e-06
0.000348198
1.68216e-06
0.000347553
1.93183e-06
0.000346825
2.17992e-06
0.000346015
2.42621e-06
0.000345124
2.6705e-06
0.000344152
2.91258e-06
0.000343099
3.15225e-06
0.000341968
3.38934e-06
0.000340759
3.62364e-06
0.000339472
3.855e-06
0.000338109
4.08324e-06
0.000336671
4.3082e-06
0.000335159
4.52973e-06
0.000333575
4.74769e-06
0.000331918
4.96193e-06
0.000330192
5.17234e-06
0.000328397
5.3788e-06
0.000326534
5.5812e-06
0.000324605
5.77944e-06
0.000322612
5.97343e-06
0.000320555
6.16309e-06
0.000318436
6.34835e-06
0.000316258
6.52914e-06
0.00031402
6.70541e-06
0.000311725
6.87713e-06
0.000309374
7.04424e-06
0.00030697
7.20672e-06
0.000304512
7.36456e-06
0.000302004
7.51774e-06
0.000299446
7.66625e-06
0.00029684
7.81011e-06
0.000294187
7.94932e-06
0.00029149
8.08389e-06
0.00028875
8.21387e-06
0.000285967
8.33926e-06
0.000283145
8.46012e-06
0.000280283
8.57648e-06
0.000277385
8.6884e-06
0.000274451
8.79592e-06
0.000271482
8.89911e-06
0.00026848
8.99803e-06
0.000265447
9.09274e-06
0.000262384
9.18331e-06
0.000259291
9.26983e-06
0.000256172
9.35236e-06
0.000253026
9.43099e-06
0.000249855
9.5058e-06
0.000246661
9.57688e-06
0.000243444
9.64432e-06
0.000240206
9.70819e-06
0.000236948
9.76861e-06
0.000233671
9.82565e-06
0.000230376
9.87942e-06
0.000227065
9.93e-06
0.000223737
9.97749e-06
0.000220395
1.0022e-05
0.000217039
1.00636e-05
0.00021367
1.01024e-05
0.000210289
1.01385e-05
0.000206897
1.0172e-05
0.000203494
1.0203e-05
0.000200083
1.02315e-05
0.000196662
1.02578e-05
0.000193234
1.02818e-05
0.000189798
1.03037e-05
0.000186356
1.03235e-05
0.000182908
1.03413e-05
0.000179454
1.03573e-05
0.000175996
1.03716e-05
0.000172534
1.03841e-05
0.000169068
1.0395e-05
0.000165599
1.04044e-05
0.000162127
1.04123e-05
0.000158654
1.04189e-05
0.000155178
1.04242e-05
0.000151702
1.04283e-05
0.000148224
1.04313e-05
0.000144746
1.04332e-05
0.000141267
1.04341e-05
0.000137789
1.0434e-05
0.00013431
1.04332e-05
0.000130833
1.04315e-05
0.000127356
1.04291e-05
0.00012388
1.04261e-05
0.000120406
1.04224e-05
0.000116933
1.04182e-05
0.000113462
1.04136e-05
0.000109992
1.04085e-05
0.000106524
1.0403e-05
0.000103058
1.03972e-05
9.95943e-05
1.03911e-05
9.61326e-05
1.03847e-05
9.26731e-05
1.03782e-05
8.92159e-05
1.03716e-05
8.57609e-05
1.03648e-05
8.23082e-05
1.0358e-05
7.88578e-05
1.03512e-05
7.54097e-05
1.03444e-05
7.19639e-05
1.03376e-05
6.85203e-05
1.03309e-05
6.5079e-05
1.03243e-05
6.16397e-05
1.03179e-05
5.82026e-05
1.03117e-05
5.47676e-05
1.03056e-05
5.13344e-05
1.02998e-05
4.79032e-05
1.02942e-05
4.44737e-05
1.02889e-05
4.10459e-05
1.02839e-05
3.76196e-05
1.02793e-05
3.41949e-05
1.02749e-05
3.07714e-05
1.02709e-05
2.73492e-05
1.02672e-05
2.39281e-05
1.02639e-05
2.0508e-05
1.0261e-05
1.70887e-05
1.02585e-05
1.36701e-05
1.02564e-05
1.02521e-05
1.02548e-05
6.83449e-06
1.02535e-05
3.41718e-06
1.02527e-05
1.02522e-05
3.24601e-06
-1.29862e-05
6.49218e-06
-1.29868e-05
9.73865e-06
-1.2988e-05
1.29856e-05
-1.29899e-05
1.62331e-05
-1.29923e-05
1.94815e-05
-1.29954e-05
2.27307e-05
-1.2999e-05
2.5981e-05
-1.30032e-05
2.92325e-05
-1.3008e-05
3.24853e-05
-1.30134e-05
3.57397e-05
-1.30193e-05
3.89957e-05
-1.30257e-05
4.22534e-05
-1.30327e-05
4.5513e-05
-1.30401e-05
4.87746e-05
-1.30481e-05
5.20384e-05
-1.30565e-05
5.53043e-05
-1.30654e-05
5.85727e-05
-1.30747e-05
6.18434e-05
-1.30843e-05
6.51167e-05
-1.30944e-05
6.83926e-05
-1.31048e-05
7.16713e-05
-1.31155e-05
7.49527e-05
-1.31264e-05
7.82369e-05
-1.31377e-05
8.1524e-05
-1.31491e-05
8.48141e-05
-1.31607e-05
8.81071e-05
-1.31724e-05
9.14031e-05
-1.31842e-05
9.47021e-05
-1.31961e-05
9.80041e-05
-1.32079e-05
0.000101309
-1.32197e-05
0.000104617
-1.32314e-05
0.000107928
-1.3243e-05
0.000111242
-1.32544e-05
0.000114559
-1.32655e-05
0.000117878
-1.32763e-05
0.0001212
-1.32867e-05
0.000124525
-1.32966e-05
0.000127852
-1.33061e-05
0.000131181
-1.3315e-05
0.000134512
-1.33232e-05
0.000137846
-1.33307e-05
0.000141181
-1.33374e-05
0.000144518
-1.33433e-05
0.000147855
-1.33482e-05
0.000151194
-1.3352e-05
0.000154534
-1.33547e-05
0.000157874
-1.33563e-05
0.000161215
-1.33565e-05
0.000164555
-1.33553e-05
0.000167894
-1.33526e-05
0.000171233
-1.33483e-05
0.00017457
-1.33423e-05
0.000177905
-1.33346e-05
0.000181238
-1.33249e-05
0.000184569
-1.33132e-05
0.000187895
-1.32994e-05
0.000191218
-1.32833e-05
0.000194537
-1.32649e-05
0.00019785
-1.3244e-05
0.000201157
-1.32205e-05
0.000204459
-1.31943e-05
0.000207752
-1.31652e-05
0.000211038
-1.31332e-05
0.000214316
-1.30981e-05
0.000217584
-1.30597e-05
0.000220841
-1.3018e-05
0.000224088
-1.29729e-05
0.000227322
-1.29241e-05
0.000230543
-1.28715e-05
0.00023375
-1.28151e-05
0.000236943
-1.27547e-05
0.000240119
-1.26901e-05
0.000243278
-1.26212e-05
0.000246419
-1.2548e-05
0.000249541
-1.24702e-05
0.000252642
-1.23877e-05
0.000255721
-1.23004e-05
0.000258778
-1.22083e-05
0.00026181
-1.21111e-05
0.000264817
-1.20087e-05
0.000267797
-1.19011e-05
0.000270749
-1.17881e-05
0.000273671
-1.16696e-05
0.000276562
-1.15455e-05
0.000279421
-1.14157e-05
0.000282246
-1.12802e-05
0.000285036
-1.11387e-05
0.000287789
-1.09914e-05
0.000290504
-1.0838e-05
0.000293179
-1.06785e-05
0.000295813
-1.05128e-05
0.000298403
-1.0341e-05
0.00030095
-1.01629e-05
0.00030345
-9.97855e-06
0.000305902
-9.78789e-06
0.000308306
-9.59093e-06
0.000310658
-9.38764e-06
0.000312958
-9.17805e-06
0.000315204
-8.96216e-06
0.000317394
-8.74001e-06
0.000319528
-8.51163e-06
0.000321602
-8.27707e-06
0.000323617
-8.0364e-06
0.000325569
-7.7897e-06
0.000327459
-7.53704e-06
0.000329283
-7.27854e-06
0.000331042
-7.01429e-06
0.000332733
-6.74443e-06
0.000334355
-6.46909e-06
0.000335906
-6.18842e-06
0.000337386
-5.90258e-06
0.000338793
-5.61174e-06
0.000340126
-5.3161e-06
0.000341384
-5.01584e-06
0.000342566
-4.71117e-06
0.00034367
-4.40231e-06
0.000344695
-4.0895e-06
0.000345642
-3.77296e-06
0.000346508
-3.45295e-06
0.000347293
-3.12973e-06
0.000347996
-2.80355e-06
0.000348617
-2.4747e-06
0.000349154
-2.14346e-06
0.000349608
-1.8101e-06
0.000349978
-1.47493e-06
0.000350264
-1.13825e-06
0.000350465
-8.0034e-07
0.000350581
-4.6152e-07
0.000350612
-1.22094e-07
0.000350557
2.17631e-07
0.000350418
5.57345e-07
0.000350193
8.9674e-07
0.000349883
1.23551e-06
0.000349489
1.57334e-06
0.00034901
1.90994e-06
0.000348447
2.24501e-06
0.000347801
2.57824e-06
0.000347071
2.90935e-06
0.000346259
3.23806e-06
0.000345366
3.56409e-06
0.000344391
3.88717e-06
0.000343337
4.20703e-06
0.000342202
4.52342e-06
0.00034099
4.83611e-06
0.0003397
5.14485e-06
0.000338334
5.44941e-06
0.000336893
5.7496e-06
0.000335377
6.04519e-06
0.000333789
6.33601e-06
0.000332129
6.62187e-06
0.000330399
6.9026e-06
0.000328599
7.17804e-06
0.000326732
7.44806e-06
0.000324799
7.71252e-06
0.000322802
7.9713e-06
0.00032074
8.22429e-06
0.000318617
8.4714e-06
0.000316434
8.71254e-06
0.000314192
8.94764e-06
0.000311892
9.17665e-06
0.000309537
9.39951e-06
0.000307127
9.61619e-06
0.000304665
9.82666e-06
0.000302152
1.00309e-05
0.000299589
1.02289e-05
0.000296979
1.04207e-05
0.000294322
1.06063e-05
0.00029162
1.07857e-05
0.000288875
1.09589e-05
0.000286088
1.11261e-05
0.000283261
1.12871e-05
0.000280395
1.14422e-05
0.000277492
1.15914e-05
0.000274554
1.17346e-05
0.000271581
1.18721e-05
0.000268575
1.20039e-05
0.000265538
1.21301e-05
0.00026247
1.22507e-05
0.000259374
1.2366e-05
0.00025625
1.24759e-05
0.000253101
1.25806e-05
0.000249926
1.26802e-05
0.000246729
1.27748e-05
0.000243508
1.28646e-05
0.000240267
1.29496e-05
0.000237005
1.30301e-05
0.000233725
1.3106e-05
0.000230427
1.31775e-05
0.000227112
1.32448e-05
0.000223782
1.3308e-05
0.000220436
1.33672e-05
0.000217078
1.34225e-05
0.000213706
1.34741e-05
0.000210322
1.35221e-05
0.000206928
1.35666e-05
0.000203523
1.36077e-05
0.000200109
1.36457e-05
0.000196686
1.36805e-05
0.000193256
1.37124e-05
0.000189818
1.37414e-05
0.000186374
1.37677e-05
0.000182924
1.37914e-05
0.000179468
1.38126e-05
0.000176009
1.38314e-05
0.000172545
1.3848e-05
0.000169077
1.38624e-05
0.000165607
1.38748e-05
0.000162134
1.38853e-05
0.000158659
1.38939e-05
0.000155182
1.39008e-05
0.000151705
1.39062e-05
0.000148226
1.391e-05
0.000144747
1.39124e-05
0.000141267
1.39135e-05
0.000137788
1.39134e-05
0.000134309
1.39121e-05
0.000130831
1.39098e-05
0.000127353
1.39065e-05
0.000123877
1.39024e-05
0.000120402
1.38974e-05
0.000116928
1.38917e-05
0.000113456
1.38854e-05
0.000109986
1.38785e-05
0.000106518
1.38711e-05
0.000103052
1.38633e-05
9.9588e-05
1.38551e-05
9.61261e-05
1.38466e-05
9.26665e-05
1.38379e-05
8.92091e-05
1.38289e-05
8.57541e-05
1.38199e-05
8.23014e-05
1.38107e-05
7.8851e-05
1.38015e-05
7.5403e-05
1.37924e-05
7.19573e-05
1.37833e-05
6.85138e-05
1.37744e-05
6.50726e-05
1.37656e-05
6.16335e-05
1.3757e-05
5.81966e-05
1.37486e-05
5.47618e-05
1.37405e-05
5.13289e-05
1.37327e-05
4.78979e-05
1.37252e-05
4.44687e-05
1.37181e-05
4.10412e-05
1.37114e-05
3.76153e-05
1.37052e-05
3.41909e-05
1.36993e-05
3.07678e-05
1.36939e-05
2.7346e-05
1.36891e-05
2.39252e-05
1.36847e-05
2.05055e-05
1.36808e-05
1.70866e-05
1.36774e-05
1.36684e-05
1.36746e-05
1.02508e-05
1.36724e-05
6.83365e-06
1.36707e-05
3.41675e-06
1.36695e-05
1.3669e-05
3.24539e-06
-1.62316e-05
6.49094e-06
-1.62324e-05
9.7368e-06
-1.62339e-05
1.29831e-05
-1.62362e-05
1.62301e-05
-1.62393e-05
1.94778e-05
-1.62431e-05
2.27264e-05
-1.62476e-05
2.59762e-05
-1.62529e-05
2.92271e-05
-1.62589e-05
3.24794e-05
-1.62657e-05
3.57332e-05
-1.62731e-05
3.89886e-05
-1.62811e-05
4.22459e-05
-1.62899e-05
4.5505e-05
-1.62993e-05
4.87661e-05
-1.63092e-05
5.20294e-05
-1.63198e-05
5.5295e-05
-1.63309e-05
5.85629e-05
-1.63426e-05
6.18333e-05
-1.63547e-05
6.51062e-05
-1.63673e-05
6.83819e-05
-1.63804e-05
7.16602e-05
-1.63938e-05
7.49413e-05
-1.64076e-05
7.82254e-05
-1.64217e-05
8.15123e-05
-1.6436e-05
8.48022e-05
-1.64506e-05
8.80952e-05
-1.64653e-05
9.13911e-05
-1.64802e-05
9.46901e-05
-1.64951e-05
9.79922e-05
-1.651e-05
0.000101297
-1.65248e-05
0.000104605
-1.65396e-05
0.000107917
-1.65541e-05
0.000111231
-1.65684e-05
0.000114548
-1.65824e-05
0.000117867
-1.6596e-05
0.00012119
-1.66092e-05
0.000124515
-1.66217e-05
0.000127843
-1.66337e-05
0.000131173
-1.66449e-05
0.000134505
-1.66554e-05
0.000137839
-1.66649e-05
0.000141175
-1.66734e-05
0.000144512
-1.66809e-05
0.000147851
-1.66872e-05
0.000151192
-1.66921e-05
0.000154533
-1.66957e-05
0.000157874
-1.66978e-05
0.000161216
-1.66982e-05
0.000164557
-1.66969e-05
0.000167899
-1.66937e-05
0.000171239
-1.66886e-05
0.000174578
-1.66813e-05
0.000177915
-1.66718e-05
0.00018125
-1.66599e-05
0.000184582
-1.66455e-05
0.000187911
-1.66284e-05
0.000191237
-1.66086e-05
0.000194557
-1.65857e-05
0.000197873
-1.65598e-05
0.000201183
-1.65307e-05
0.000204487
-1.64982e-05
0.000207784
-1.64621e-05
0.000211073
-1.64223e-05
0.000214354
-1.63786e-05
0.000217625
-1.6331e-05
0.000220886
-1.62791e-05
0.000224136
-1.62228e-05
0.000227374
-1.61621e-05
0.000230599
-1.60967e-05
0.000233811
-1.60264e-05
0.000237007
-1.59511e-05
0.000240188
-1.58706e-05
0.000243351
-1.57848e-05
0.000246497
-1.56934e-05
0.000249623
-1.55964e-05
0.000252729
-1.54936e-05
0.000255813
-1.53848e-05
0.000258875
-1.52698e-05
0.000261912
-1.51485e-05
0.000264924
-1.50208e-05
0.00026791
-1.48865e-05
0.000270867
-1.47454e-05
0.000273795
-1.45975e-05
0.000276692
-1.44425e-05
0.000279557
-1.42805e-05
0.000282388
-1.41112e-05
0.000285183
-1.39346e-05
0.000287943
-1.37505e-05
0.000290663
-1.35589e-05
0.000293345
-1.33596e-05
0.000295984
-1.31526e-05
0.000298581
-1.29379e-05
0.000301134
-1.27154e-05
0.00030364
-1.2485e-05
0.000306099
-1.22467e-05
0.000308509
-1.20005e-05
0.000310867
-1.17464e-05
0.000313174
-1.14844e-05
0.000315426
-1.12144e-05
0.000317623
-1.09367e-05
0.000319762
-1.06511e-05
0.000321843
-1.03578e-05
0.000323863
-1.00568e-05
0.000325822
-9.74827e-06
0.000327717
-9.43226e-06
0.000329547
-9.10892e-06
0.000331311
-8.77838e-06
0.000333008
-8.4408e-06
0.000334635
-8.09634e-06
0.000336192
-7.7452e-06
0.000337677
-7.38758e-06
0.000339089
-7.02369e-06
0.000340427
-6.65377e-06
0.000341689
-6.27805e-06
0.000342874
-5.89681e-06
0.000343982
-5.51031e-06
0.000345012
-5.11884e-06
0.000345961
-4.72271e-06
0.000346831
-4.32221e-06
0.000347619
-3.91768e-06
0.000348325
-3.50946e-06
0.000348948
-3.09787e-06
0.000349488
-2.68328e-06
0.000349943
-2.26604e-06
0.000350315
-1.84652e-06
0.000350602
-1.42509e-06
0.000350804
-1.00214e-06
0.00035092
-5.78042e-07
0.000350951
-1.53182e-07
0.000350897
2.72052e-07
0.000350757
6.97272e-07
0.000350532
1.12209e-06
0.000350221
1.54612e-06
0.000349825
1.96898e-06
0.000349345
2.39029e-06
0.00034878
2.80968e-06
0.000348132
3.22676e-06
0.0003474
3.64118e-06
0.000346585
4.05259e-06
0.000345689
4.46063e-06
0.000344711
4.86497e-06
0.000343653
5.26527e-06
0.000342515
5.66122e-06
0.000341299
6.05251e-06
0.000340005
6.43886e-06
0.000338634
6.81997e-06
0.000337188
7.19558e-06
0.000335668
7.56543e-06
0.000334075
7.92929e-06
0.00033241
8.28693e-06
0.000330674
8.63813e-06
0.000328869
8.98271e-06
0.000326997
9.32048e-06
0.000325058
9.65128e-06
0.000323055
9.97495e-06
0.000320987
1.02914e-05
0.000318858
1.06004e-05
0.000316669
1.0902e-05
0.000314421
1.1196e-05
0.000312115
1.14823e-05
0.000309754
1.1761e-05
0.000307338
1.20319e-05
0.00030487
1.2295e-05
0.00030235
1.25503e-05
0.000299781
1.27978e-05
0.000297164
1.30375e-05
0.000294501
1.32694e-05
0.000291793
1.34936e-05
0.000289042
1.37101e-05
0.000286249
1.39189e-05
0.000283416
1.41202e-05
0.000280545
1.43139e-05
0.000277636
1.45002e-05