/*--------------------------------*- C++ -*----------------------------------*\
| =========                 |                                                 |
| \\      /  F ield         | OpenFOAM: The Open Source CFD Toolbox           |
|  \\    /   O peration     | Version:  v2012                                 |
|   \\  /    A nd           | Website:  www.openfoam.com                      |
|    \\/     M anipulation  |                                                 |
\*---------------------------------------------------------------------------*/
FoamFile
{
    version     2.0;
    format      ascii;
    class       surfaceScalarField;
    location    "19.1";
    object      phi;
}
// * * * * * * * * * * * * * * * * * * * * * * * * * * * * * * * * * * * * * //

dimensions      [0 3 -1 0 0 0 0];
oriented        oriented;


internalField   nonuniform List<scalar> 
130560
(
3.21865e-06
-3.21865e-06
6.43743e-06
-3.21878e-06
9.65648e-06
-3.21905e-06
1.28759e-05
-3.21946e-06
1.60959e-05
-3.21999e-06
1.93166e-05
-3.22066e-06
2.2538e-05
-3.22145e-06
2.57604e-05
-3.22238e-06
2.89839e-05
-3.22343e-06
3.22085e-05
-3.2246e-06
3.54343e-05
-3.22589e-06
3.86616e-05
-3.2273e-06
4.18905e-05
-3.22882e-06
4.51209e-05
-3.23045e-06
4.83531e-05
-3.23219e-06
5.15871e-05
-3.23402e-06
5.48231e-05
-3.23595e-06
5.80611e-05
-3.23797e-06
6.13011e-05
-3.24008e-06
6.45434e-05
-3.24225e-06
6.77879e-05
-3.2445e-06
7.10347e-05
-3.24682e-06
7.42839e-05
-3.24919e-06
7.75355e-05
-3.2516e-06
8.07896e-05
-3.25406e-06
8.40461e-05
-3.25655e-06
8.73052e-05
-3.25906e-06
9.05667e-05
-3.26158e-06
9.38309e-05
-3.2641e-06
9.70975e-05
-3.26662e-06
0.000100367
-3.26911e-06
0.000103638
-3.27158e-06
0.000106912
-3.274e-06
0.000110189
-3.27637e-06
0.000113467
-3.27866e-06
0.000116748
-3.28088e-06
0.000120031
-3.283e-06
0.000123316
-3.28501e-06
0.000126603
-3.28689e-06
0.000129892
-3.28863e-06
0.000133182
-3.29022e-06
0.000136473
-3.29163e-06
0.000139766
-3.29284e-06
0.00014306
-3.29385e-06
0.000146355
-3.29463e-06
0.00014965
-3.29516e-06
0.000152945
-3.29542e-06
0.000156241
-3.29539e-06
0.000159536
-3.29505e-06
0.00016283
-3.29439e-06
0.000166124
-3.29337e-06
0.000169416
-3.29197e-06
0.000172706
-3.29017e-06
0.000175994
-3.28796e-06
0.000179279
-3.28529e-06
0.000182561
-3.28215e-06
0.00018584
-3.27851e-06
0.000189114
-3.27434e-06
0.000192384
-3.26963e-06
0.000195648
-3.26433e-06
0.000198906
-3.25843e-06
0.000202158
-3.25189e-06
0.000205403
-3.24469e-06
0.00020864
-3.23679e-06
0.000211868
-3.22817e-06
0.000215087
-3.2188e-06
0.000218295
-3.20865e-06
0.000221493
-3.19768e-06
0.000224679
-3.18587e-06
0.000227852
-3.17318e-06
0.000231012
-3.15958e-06
0.000234157
-3.14505e-06
0.000237286
-3.12955e-06
0.000240399
-3.11305e-06
0.000243495
-3.09552e-06
0.000246572
-3.07693e-06
0.000249629
-3.05725e-06
0.000252665
-3.03644e-06
0.00025568
-3.01448e-06
0.000258671
-2.99134e-06
0.000261638
-2.96699e-06
0.00026458
-2.9414e-06
0.000267494
-2.91454e-06
0.000270381
-2.88639e-06
0.000273237
-2.85692e-06
0.000276064
-2.8261e-06
0.000278857
-2.79392e-06
0.000281618
-2.76035e-06
0.000284343
-2.72537e-06
0.000287032
-2.68896e-06
0.000289683
-2.6511e-06
0.000292295
-2.61178e-06
0.000294866
-2.57097e-06
0.000297395
-2.52867e-06
0.00029988
-2.48487e-06
0.000302319
-2.43956e-06
0.000304712
-2.39272e-06
0.000307056
-2.34436e-06
0.000309351
-2.29448e-06
0.000311594
-2.24307e-06
0.000313784
-2.19014e-06
0.00031592
-2.13568e-06
0.000317999
-2.07972e-06
0.000320022
-2.02226e-06
0.000321985
-1.96331e-06
0.000323888
-1.9029e-06
0.000325729
-1.84103e-06
0.000327507
-1.77774e-06
0.00032922
-1.71304e-06
0.000330867
-1.64696e-06
0.000332446
-1.57954e-06
0.000333957
-1.51082e-06
0.000335398
-1.44082e-06
0.000336767
-1.36958e-06
0.000338064
-1.29715e-06
0.000339288
-1.22358e-06
0.000340437
-1.14892e-06
0.00034151
-1.0732e-06
0.000342507
-9.96496e-07
0.000343425
-9.18854e-07
0.000344266
-8.40335e-07
0.000345027
-7.60999e-07
0.000345708
-6.8091e-07
0.000346308
-6.00132e-07
0.000346827
-5.18733e-07
0.000347263
-4.36781e-07
0.000347618
-3.54346e-07
0.000347889
-2.71499e-07
0.000348078
-1.88314e-07
0.000348182
-1.04863e-07
0.000348204
-2.12216e-08
0.000348141
6.25361e-08
0.000347995
1.46335e-07
0.000347765
2.30099e-07
0.000347451
3.13753e-07
0.000347054
3.97223e-07
0.000346573
4.80433e-07
0.00034601
5.63311e-07
0.000345364
6.45782e-07
0.000344636
7.27775e-07
0.000343827
8.0922e-07
0.000342937
8.90047e-07
0.000341967
9.70189e-07
0.000340917
1.04958e-06
0.000339789
1.12816e-06
0.000338583
1.20586e-06
0.000337301
1.28263e-06
0.000335942
1.3584e-06
0.000334509
1.43313e-06
0.000333002
1.50676e-06
0.000331423
1.57924e-06
0.000329773
1.65053e-06
0.000328052
1.72058e-06
0.000326263
1.78936e-06
0.000324406
1.85682e-06
0.000322483
1.92293e-06
0.000320495
1.98765e-06
0.000318444
2.05097e-06
0.000316331
2.11286e-06
0.000314158
2.17328e-06
0.000311926
2.23223e-06
0.000309636
2.28969e-06
0.000307291
2.34563e-06
0.000304891
2.40006e-06
0.000302438
2.45296e-06
0.000299933
2.50433e-06
0.000297379
2.55416e-06
0.000294777
2.60246e-06
0.000292127
2.64922e-06
0.000289433
2.69445e-06
0.000286695
2.73816e-06
0.000283914
2.78036e-06
0.000281093
2.82106e-06
0.000278233
2.86026e-06
0.000275335
2.898e-06
0.000272401
2.93427e-06
0.000269432
2.96911e-06
0.000266429
3.00252e-06
0.000263395
3.03454e-06
0.00026033
3.06518e-06
0.000257235
3.09448e-06
0.000254113
3.12244e-06
0.000250964
3.14911e-06
0.000247789
3.1745e-06
0.00024459
3.19865e-06
0.000241369
3.22158e-06
0.000238125
3.24333e-06
0.000234862
3.26392e-06
0.000231578
3.28338e-06
0.000228276
3.30175e-06
0.000224957
3.31905e-06
0.000221622
3.33532e-06
0.000218271
3.35059e-06
0.000214907
3.36489e-06
0.000211528
3.37825e-06
0.000208138
3.39071e-06
0.000204735
3.40229e-06
0.000201322
3.41303e-06
0.000197899
3.42296e-06
0.000194467
3.43212e-06
0.000191027
3.44052e-06
0.000187578
3.4482e-06
0.000184123
3.4552e-06
0.000180662
3.46154e-06
0.000177194
3.46726e-06
0.000173722
3.47237e-06
0.000170245
3.47692e-06
0.000166764
3.48093e-06
0.00016328
3.48442e-06
0.000159792
3.48743e-06
0.000156302
3.48997e-06
0.00015281
3.49209e-06
0.000149317
3.4938e-06
0.000145821
3.49512e-06
0.000142325
3.49609e-06
0.000138829
3.49672e-06
0.000135332
3.49704e-06
0.000131834
3.49708e-06
0.000128338
3.49684e-06
0.000124841
3.49637e-06
0.000121346
3.49567e-06
0.000117851
3.49476e-06
0.000114357
3.49367e-06
0.000110865
3.49242e-06
0.000107374
3.49102e-06
0.000103884
3.48948e-06
0.000100396
3.48784e-06
9.69103e-05
3.4861e-06
9.3426e-05
3.48428e-06
8.99437e-05
3.48239e-06
8.64632e-05
3.48045e-06
8.29847e-05
3.47848e-06
7.95082e-05
3.47648e-06
7.60338e-05
3.47448e-06
7.25613e-05
3.47247e-06
6.90908e-05
3.47048e-06
6.56223e-05
3.46851e-06
6.21557e-05
3.46657e-06
5.8691e-05
3.46469e-06
5.52282e-05
3.46285e-06
5.17671e-05
3.46108e-06
4.83077e-05
3.45938e-06
4.485e-05
3.45776e-06
4.13938e-05
3.45622e-06
3.7939e-05
3.45478e-06
3.44855e-05
3.45344e-06
3.10333e-05
3.4522e-06
2.75823e-05
3.45107e-06
2.41322e-05
3.45005e-06
2.06831e-05
3.44915e-06
1.72347e-05
3.44838e-06
1.3787e-05
3.44773e-06
1.03398e-05
3.4472e-06
6.89296e-06
3.44681e-06
3.44642e-06
3.44655e-06
3.44642e-06
3.21852e-06
-6.43717e-06
6.43717e-06
-6.43744e-06
9.6561e-06
-6.43798e-06
1.28754e-05
-6.43878e-06
1.60953e-05
-6.43986e-06
1.93158e-05
-6.44119e-06
2.25372e-05
-6.44278e-06
2.57594e-05
-6.44463e-06
2.89827e-05
-6.44674e-06
3.22072e-05
-6.44908e-06
3.5433e-05
-6.45167e-06
3.86602e-05
-6.45449e-06
4.18889e-05
-6.45754e-06
4.51192e-05
-6.46081e-06
4.83513e-05
-6.46428e-06
5.15853e-05
-6.46796e-06
5.48211e-05
-6.47182e-06
5.8059e-05
-6.47587e-06
6.1299e-05
-6.48008e-06
6.45412e-05
-6.48444e-06
6.77857e-05
-6.48895e-06
7.10324e-05
-6.49358e-06
7.42816e-05
-6.49833e-06
7.75331e-05
-6.50317e-06
8.07872e-05
-6.50809e-06
8.40437e-05
-6.51308e-06
8.73028e-05
-6.51811e-06
9.05643e-05
-6.52316e-06
9.38285e-05
-6.52822e-06
9.70951e-05
-6.53326e-06
0.000100364
-6.53826e-06
0.000103636
-6.5432e-06
0.00010691
-6.54806e-06
0.000110186
-6.55281e-06
0.000113465
-6.55742e-06
0.000116746
-6.56186e-06
0.000120029
-6.56612e-06
0.000123314
-6.57015e-06
0.000126601
-6.57393e-06
0.00012989
-6.57743e-06
0.000133181
-6.58061e-06
0.000136472
-6.58345e-06
0.000139765
-6.5859e-06
0.00014306
-6.58793e-06
0.000146354
-6.58951e-06
0.00014965
-6.59058e-06
0.000152946
-6.59113e-06
0.000156241
-6.59109e-06
0.000159537
-6.59044e-06
0.000162831
-6.58913e-06
0.000166125
-6.58711e-06
0.000169418
-6.58434e-06
0.000172708
-6.58078e-06
0.000175997
-6.57636e-06
0.000179282
-6.57105e-06
0.000182565
-6.5648e-06
0.000185844
-6.55755e-06
0.000189119
-6.54924e-06
0.000192389
-6.53984e-06
0.000195654
-6.52927e-06
0.000198913
-6.5175e-06
0.000202166
-6.50445e-06
0.000205411
-6.49007e-06
0.000208649
-6.47431e-06
0.000211877
-6.4571e-06
0.000215097
-6.43839e-06
0.000218307
-6.41811e-06
0.000221505
-6.3962e-06
0.000224692
-6.37261e-06
0.000227866
-6.34726e-06
0.000231026
-6.32011e-06
0.000234172
-6.29108e-06
0.000237303
-6.26011e-06
0.000240417
-6.22714e-06
0.000243514
-6.19211e-06
0.000246592
-6.15495e-06
0.00024965
-6.11562e-06
0.000252688
-6.07403e-06
0.000255703
-6.03014e-06
0.000258696
-5.98389e-06
0.000261664
-5.93521e-06
0.000264607
-5.88406e-06
0.000267523
-5.83037e-06
0.00027041
-5.77409e-06
0.000273269
-5.71518e-06
0.000276096
-5.65358e-06
0.000278891
-5.58924e-06
0.000281653
-5.52212e-06
0.00028438
-5.45218e-06
0.00028707
-5.37937e-06
0.000289723
-5.30367e-06
0.000292336
-5.22503e-06
0.000294909
-5.14343e-06
0.000297439
-5.05885e-06
0.000299925
-4.97125e-06
0.000302366
-4.88063e-06
0.00030476
-4.78697e-06
0.000307106
-4.69025e-06
0.000309402
-4.59048e-06
0.000311647
-4.48766e-06
0.000313839
-4.38179e-06
0.000315976
-4.27288e-06
0.000318057
-4.16094e-06
0.000320081
-4.04601e-06
0.000322046
-3.9281e-06
0.00032395
-3.80724e-06
0.000325792
-3.68349e-06
0.000327571
-3.55687e-06
0.000329286
-3.42745e-06
0.000330934
-3.29527e-06
0.000332515
-3.1604e-06
0.000334027
-3.0229e-06
0.000335469
-2.88286e-06
0.00033684
-2.74035e-06
0.000338138
-2.59545e-06
0.000339363
-2.44826e-06
0.000340513
-2.29887e-06
0.000341587
-2.14739e-06
0.000342584
-1.99392e-06
0.000343504
-1.83858e-06
0.000344345
-1.68148e-06
0.000345107
-1.52275e-06
0.000345789
-1.3625e-06
0.000346389
-1.20088e-06
0.000346909
-1.03802e-06
0.000347346
-8.74041e-07
0.000347701
-7.09099e-07
0.000347973
-5.43333e-07
0.000348161
-3.76889e-07
0.000348266
-2.09913e-07
0.000348288
-4.25552e-08
0.000348225
1.25035e-07
0.000348079
2.92708e-07
0.000347848
4.60312e-07
0.000347535
6.27696e-07
0.000347137
7.9471e-07
0.000346656
9.61204e-07
0.000346093
1.12703e-06
0.000345446
1.29205e-06
0.000344718
1.4561e-06
0.000343908
1.61906e-06
0.000343017
1.78078e-06
0.000342046
1.94113e-06
0.000340996
2.09998e-06
0.000339867
2.2572e-06
0.00033866
2.41266e-06
0.000337377
2.56625e-06
0.000336017
2.71785e-06
0.000334583
2.86736e-06
0.000333075
3.01467e-06
0.000331495
3.15968e-06
0.000329843
3.3023e-06
0.000328121
3.44244e-06
0.00032633
3.58003e-06
0.000324472
3.71498e-06
0.000322548
3.84724e-06
0.000320559
3.97672e-06
0.000318506
4.10339e-06
0.000316392
4.22718e-06
0.000314217
4.34805e-06
0.000311983
4.46596e-06
0.000309692
4.58088e-06
0.000307345
4.69279e-06
0.000304944
4.80165e-06
0.000302489
4.90746e-06
0.000299983
5.01019e-06
0.000297427
5.10986e-06
0.000294823
5.20645e-06
0.000292173
5.29997e-06
0.000289477
5.39043e-06
0.000286737
5.47784e-06
0.000283955
5.56223e-06
0.000281133
5.64361e-06
0.000278271
5.722e-06
0.000275371
5.79745e-06
0.000272436
5.86998e-06
0.000269465
5.93963e-06
0.000266461
6.00645e-06
0.000263425
6.07046e-06
0.000260359
6.13172e-06
0.000257263
6.19028e-06
0.000254139
6.24619e-06
0.000250989
6.29949e-06
0.000247813
6.35025e-06
0.000244613
6.39852e-06
0.00024139
6.44436e-06
0.000238146
6.48782e-06
0.000234881
6.52896e-06
0.000231596
6.56786e-06
0.000228294
6.60456e-06
0.000224974
6.63914e-06
0.000221637
6.67165e-06
0.000218286
6.70215e-06
0.00021492
6.73072e-06
0.000211541
6.75741e-06
0.000208149
6.7823e-06
0.000204746
6.80543e-06
0.000201332
6.82688e-06
0.000197908
6.84671e-06
0.000194476
6.86498e-06
0.000191034
6.88175e-06
0.000187585
6.89709e-06
0.00018413
6.91106e-06
0.000180667
6.92371e-06
0.0001772
6.93511e-06
0.000173727
6.94532e-06
0.000170249
6.95438e-06
0.000166768
6.96237e-06
0.000163283
6.96932e-06
0.000159795
6.97531e-06
0.000156304
6.98038e-06
0.000152812
6.98458e-06
0.000149318
6.98797e-06
0.000145822
6.9906e-06
0.000142326
6.99251e-06
0.000138829
6.99375e-06
0.000135332
6.99437e-06
0.000131834
6.99442e-06
0.000128337
6.99393e-06
0.000124841
6.99296e-06
0.000121345
6.99154e-06
0.00011785
6.98971e-06
0.000114356
6.98751e-06
0.000110863
6.98498e-06
0.000107372
6.98216e-06
0.000103883
6.97908e-06
0.000100395
6.97577e-06
9.69084e-05
6.97228e-06
9.34241e-05
6.96862e-06
8.99417e-05
6.96483e-06
8.64612e-05
6.96094e-06
8.29827e-05
6.95698e-06
7.95062e-05
6.95297e-06
7.60317e-05
6.94895e-06
7.25593e-05
6.94492e-06
6.90888e-05
6.94093e-06
6.56203e-05
6.93698e-06
6.21538e-05
6.9331e-06
5.86892e-05
6.92932e-06
5.52264e-05
6.92564e-06
5.17654e-05
6.92209e-06
4.83061e-05
6.91868e-06
4.48484e-05
6.91543e-06
4.13923e-05
6.91235e-06
3.79376e-05
6.90946e-06
3.44843e-05
6.90676e-06
3.10322e-05
6.90428e-06
2.75813e-05
6.90202e-06
2.41313e-05
6.89998e-06
2.06823e-05
6.89818e-06
1.7234e-05
6.89663e-06
1.37864e-05
6.89532e-06
1.03394e-05
6.89427e-06
6.8927e-06
6.89349e-06
3.44628e-06
6.89296e-06
6.8927e-06
3.21825e-06
-9.65541e-06
6.43663e-06
-9.65582e-06
9.65529e-06
-9.65663e-06
1.28743e-05
-9.65784e-06
1.60939e-05
-9.65945e-06
1.93142e-05
-9.66146e-06
2.25353e-05
-9.66386e-06
2.57573e-05
-9.66664e-06
2.89803e-05
-9.6698e-06
3.22046e-05
-9.67333e-06
3.54301e-05
-9.67722e-06
3.86571e-05
-9.68146e-06
4.18856e-05
-9.68604e-06
4.51157e-05
-9.69095e-06
4.83476e-05
-9.69618e-06
5.15814e-05
-9.7017e-06
5.48171e-05
-9.70751e-06
5.80548e-05
-9.71359e-06
6.12946e-05
-9.71992e-06
6.45367e-05
-9.72649e-06
6.7781e-05
-9.73327e-06
7.10276e-05
-9.74023e-06
7.42767e-05
-9.74737e-06
7.75282e-05
-9.75466e-06
8.07821e-05
-9.76206e-06
8.40386e-05
-9.76956e-06
8.72976e-05
-9.77713e-06
9.05592e-05
-9.78473e-06
9.38234e-05
-9.79235e-06
9.709e-05
-9.79994e-06
0.000100359
-9.80747e-06
0.000103631
-9.81491e-06
0.000106905
-9.82223e-06
0.000110182
-9.82938e-06
0.000113461
-9.83633e-06
0.000116742
-9.84303e-06
0.000120025
-9.84945e-06
0.00012331
-9.85554e-06
0.000126598
-9.86125e-06
0.000129887
-9.86654e-06
0.000133178
-9.87136e-06
0.00013647
-9.87565e-06
0.000139763
-9.87938e-06
0.000143058
-9.88247e-06
0.000146353
-9.88488e-06
0.000149649
-9.88655e-06
0.000152946
-9.88741e-06
0.000156242
-9.88741e-06
0.000159538
-9.88649e-06
0.000162833
-9.88458e-06
0.000166128
-9.88161e-06
0.000169421
-9.87751e-06
0.000172712
-9.87222e-06
0.000176002
-9.86566e-06
0.000179288
-9.85776e-06
0.000182572
-9.84844e-06
0.000185852
-9.83763e-06
0.000189128
-9.82524e-06
0.0001924
-9.8112e-06
0.000195666
-9.79543e-06
0.000198926
-9.77783e-06
0.00020218
-9.75833e-06
0.000205427
-9.73684e-06
0.000208666
-9.71327e-06
0.000211896
-9.68753e-06
0.000215117
-9.65954e-06
0.000218328
-9.6292e-06
0.000221529
-9.59641e-06
0.000224717
-9.5611e-06
0.000227893
-9.52316e-06
0.000231055
-9.4825e-06
0.000234203
-9.43903e-06
0.000237336
-9.39266e-06
0.000240452
-9.34328e-06
0.000243551
-9.29081e-06
0.000246631
-9.23516e-06
0.000249691
-9.17623e-06
0.000252731
-9.11393e-06
0.000255749
-9.04817e-06
0.000258744
-8.97886e-06
0.000261715
-8.90592e-06
0.00026466
-8.82926e-06
0.000267579
-8.74879e-06
0.000270469
-8.66444e-06
0.00027333
-8.57613e-06
0.00027616
-8.48378e-06
0.000278958
-8.38733e-06
0.000281723
-8.28671e-06
0.000284453
-8.18184e-06
0.000287146
-8.07268e-06
0.000289801
-7.95916e-06
0.000292418
-7.84125e-06
0.000294993
-7.71888e-06
0.000297526
-7.59203e-06
0.000300016
-7.46066e-06
0.00030246
-7.32474e-06
0.000304857
-7.18426e-06
0.000307206
-7.0392e-06
0.000309505
-6.88954e-06
0.000311753
-6.7353e-06
0.000313947
-6.57648e-06
0.000316088
-6.41309e-06
0.000318172
-6.24516e-06
0.000320199
-6.07273e-06
0.000322166
-5.89582e-06
0.000324074
-5.71449e-06
0.000325919
-5.5288e-06
0.000327701
-5.33882e-06
0.000329418
-5.14461e-06
0.000331069
-4.94626e-06
0.000332652
-4.74387e-06
0.000334167
-4.53754e-06
0.000335612
-4.32738e-06
0.000336985
-4.1135e-06
0.000338285
-3.89604e-06
0.000339512
-3.67514e-06
0.000340664
-3.45093e-06
0.00034174
-3.22357e-06
0.00034274
-2.99323e-06
0.000343661
-2.76007e-06
0.000344504
-2.52427e-06
0.000345267
-2.28601e-06
0.00034595
-2.04548e-06
0.000346552
-1.80288e-06
0.000347073
-1.55841e-06
0.000347511
-1.31227e-06
0.000347866
-1.06468e-06
0.000348139
-8.15848e-07
0.000348328
-5.65998e-07
0.000348433
-3.15348e-07
0.000348455
-6.41237e-08
0.000348393
1.87451e-07
0.000348246
4.39148e-07
0.000348016
6.90742e-07
0.000347701
9.42006e-07
0.000347303
1.19271e-06
0.000346822
1.44264e-06
0.000346257
1.69156e-06
0.00034561
1.93926e-06
0.000344881
2.18553e-06
0.00034407
2.43014e-06
0.000343178
2.67289e-06
0.000342205
2.91358e-06
0.000341153
3.15201e-06
0.000340022
3.38799e-06
0.000338814
3.62133e-06
0.000337528
3.85185e-06
0.000336167
4.0794e-06
0.00033473
4.30379e-06
0.00033322
4.52487e-06
0.000331637
4.7425e-06
0.000329983
4.95654e-06
0.000328258
5.16686e-06
0.000326465
5.37334e-06
0.000324604
5.57585e-06
0.000322677
5.77431e-06
0.000320685
5.96861e-06
0.00031863
6.15867e-06
0.000316513
6.34441e-06
0.000314335
6.52577e-06
0.000312098
6.70268e-06
0.000309804
6.8751e-06
0.000307454
7.04298e-06
0.000305049
7.2063e-06
0.000302592
7.36502e-06
0.000300083
7.51913e-06
0.000297524
7.66863e-06
0.000294917
7.81351e-06
0.000292263
7.95378e-06
0.000289564
8.08945e-06
0.000286821
8.22055e-06
0.000284037
8.3471e-06
0.000281211
8.46913e-06
0.000278346
8.58669e-06
0.000275444
8.69982e-06
0.000272505
8.80857e-06
0.000269532
8.913e-06
0.000266525
9.01316e-06
0.000263487
9.10913e-06
0.000260417
9.20096e-06
0.000257319
9.28874e-06
0.000254193
9.37253e-06
0.00025104
9.45242e-06
0.000247861
9.52849e-06
0.000244659
9.60082e-06
0.000241434
9.6695e-06
0.000238187
9.73462e-06
0.00023492
9.79626e-06
0.000231633
9.85453e-06
0.000228328
9.9095e-06
0.000225006
9.96129e-06
0.000221668
1.001e-05
0.000218314
1.00557e-05
0.000214947
1.00984e-05
0.000211566
1.01384e-05
0.000208172
1.01756e-05
0.000204767
1.02102e-05
0.000201352
1.02423e-05
0.000197927
1.0272e-05
0.000194492
1.02993e-05
0.00019105
1.03244e-05
0.000187599
1.03474e-05
0.000184142
1.03682e-05
0.000180679
1.03871e-05
0.00017721
1.04042e-05
0.000173736
1.04194e-05
0.000170257
1.04329e-05
0.000166775
1.04448e-05
0.000163289
1.04552e-05
0.0001598
1.04641e-05
0.000156309
1.04717e-05
0.000152815
1.04779e-05
0.00014932
1.04829e-05
0.000145824
1.04868e-05
0.000142327
1.04896e-05
0.00013883
1.04914e-05
0.000135332
1.04923e-05
0.000131834
1.04923e-05
0.000128336
1.04915e-05
0.000124839
1.049e-05
0.000121343
1.04878e-05
0.000117848
1.0485e-05
0.000114353
1.04817e-05
0.000110861
1.04778e-05
0.000107369
1.04736e-05
0.000103879
1.04689e-05
0.000100391
1.04639e-05
9.69048e-05
1.04586e-05
9.34203e-05
1.04531e-05
8.99378e-05
1.04474e-05
8.64572e-05
1.04415e-05
8.29787e-05
1.04355e-05
7.95022e-05
1.04295e-05
7.60277e-05
1.04234e-05
7.25553e-05
1.04174e-05
6.90849e-05
1.04113e-05
6.56165e-05
1.04054e-05
6.215e-05
1.03995e-05
5.86855e-05
1.03938e-05
5.52229e-05
1.03883e-05
5.1762e-05
1.03829e-05
4.83028e-05
1.03778e-05
4.48454e-05
1.03729e-05
4.13894e-05
1.03683e-05
3.79349e-05
1.03639e-05
3.44818e-05
1.03599e-05
3.10299e-05
1.03561e-05
2.75792e-05
1.03527e-05
2.41295e-05
1.03497e-05
2.06807e-05
1.0347e-05
1.72327e-05
1.03446e-05
1.37854e-05
1.03427e-05
1.03386e-05
1.03411e-05
6.89217e-06
1.03399e-05
3.44602e-06
1.03391e-05
1.03387e-05
3.21784e-06
-1.28733e-05
6.43581e-06
-1.28738e-05
9.65406e-06
-1.28749e-05
1.28727e-05
-1.28765e-05
1.60919e-05
-1.28787e-05
1.93118e-05
-1.28813e-05
2.25325e-05
-1.28845e-05
2.57541e-05
-1.28883e-05
2.89768e-05
-1.28925e-05
3.22007e-05
-1.28972e-05
3.54259e-05
-1.29024e-05
3.86525e-05
-1.29081e-05
4.18806e-05
-1.29142e-05
4.51105e-05
-1.29208e-05
4.83421e-05
-1.29278e-05
5.15755e-05
-1.29352e-05
5.48109e-05
-1.29429e-05
5.80484e-05
-1.29511e-05
6.1288e-05
-1.29595e-05
6.45298e-05
-1.29683e-05
6.7774e-05
-1.29774e-05
7.10204e-05
-1.29867e-05
7.42693e-05
-1.29963e-05
7.75207e-05
-1.3006e-05
8.07746e-05
-1.30159e-05
8.4031e-05
-1.3026e-05
8.729e-05
-1.30361e-05
9.05515e-05
-1.30463e-05
9.38157e-05
-1.30565e-05
9.70824e-05
-1.30667e-05
0.000100352
-1.30768e-05
0.000103624
-1.30867e-05
0.000106898
-1.30966e-05
0.000110175
-1.31062e-05
0.000113454
-1.31155e-05
0.000116735
-1.31245e-05
0.000120019
-1.31331e-05
0.000123305
-1.31413e-05
0.000126592
-1.3149e-05
0.000129882
-1.31561e-05
0.000133173
-1.31626e-05
0.000136466
-1.31684e-05
0.00013976
-1.31735e-05
0.000143055
-1.31777e-05
0.000146351
-1.3181e-05
0.000149648
-1.31833e-05
0.000152945
-1.31846e-05
0.000156243
-1.31847e-05
0.00015954
-1.31835e-05
0.000162836
-1.31811e-05
0.000166132
-1.31772e-05
0.000169426
-1.31719e-05
0.000172719
-1.31649e-05
0.000176009
-1.31563e-05
0.000179298
-1.31459e-05
0.000182583
-1.31336e-05
0.000185864
-1.31193e-05
0.000189142
-1.31029e-05
0.000192415
-1.30843e-05
0.000195683
-1.30634e-05
0.000198945
-1.30401e-05
0.000202201
-1.30142e-05
0.00020545
-1.29857e-05
0.000208691
-1.29544e-05
0.000211924
-1.29202e-05
0.000215147
-1.2883e-05
0.000218361
-1.28427e-05
0.000221564
-1.27992e-05
0.000224755
-1.27522e-05
0.000227933
-1.27018e-05
0.000231099
-1.26477e-05
0.000234249
-1.25899e-05
0.000237385
-1.25282e-05
0.000240504
-1.24625e-05
0.000243606
-1.23927e-05
0.00024669
-1.23186e-05
0.000249754
-1.22402e-05
0.000252797
-1.21573e-05
0.000255819
-1.20697e-05
0.000258817
-1.19775e-05
0.000261792
-1.18803e-05
0.000264741
-1.17783e-05
0.000267663
-1.16711e-05
0.000270557
-1.15587e-05
0.000273422
-1.14411e-05
0.000276256
-1.13181e-05
0.000279059
-1.11896e-05
0.000281828
-1.10555e-05
0.000284562
-1.09158e-05
0.000287259
-1.07703e-05
0.000289919
-1.06191e-05
0.00029254
-1.04619e-05
0.00029512
-1.02988e-05
0.000297657
-1.01297e-05
0.000300151
-9.95462e-06
0.0003026
-9.77343e-06
0.000305002
-9.58614e-06
0.000307355
-9.39273e-06
0.000309659
-9.19319e-06
0.000311911
-8.98752e-06
0.000314111
-8.77574e-06
0.000316255
-8.55785e-06
0.000318344
-8.3339e-06
0.000320375
-8.10392e-06
0.000322347
-7.86797e-06
0.000324259
-7.62611e-06
0.000326109
-7.37842e-06
0.000327895
-7.12499e-06
0.000329616
-6.86591e-06
0.000331271
-6.60131e-06
0.000332859
-6.3313e-06
0.000334377
-6.05602e-06
0.000335825
-5.77561e-06
0.000337202
-5.49024e-06
0.000338506
-5.20008e-06
0.000339736
-4.90531e-06
0.000340891
-4.60613e-06
0.000341971
-4.30274e-06
0.000342973
-3.99535e-06
0.000343897
-3.6842e-06
0.000344742
-3.36951e-06
0.000345508
-3.05154e-06
0.000346193
-2.73053e-06
0.000346797
-2.40675e-06
0.000347319
-2.08047e-06
0.000347758
-1.75196e-06
0.000348115
-1.4215e-06
0.000348389
-1.08939e-06
0.000348579
-7.55909e-07
0.000348685
-4.21362e-07
0.000348707
-8.60453e-08
0.000348644
2.49739e-07
0.000348498
5.85689e-07
0.000348267
9.21499e-07
0.000347952
1.25687e-06
0.000347553
1.59149e-06
0.000347071
1.92507e-06
0.000346505
2.25731e-06
0.000345856
2.58792e-06
0.000345125
2.9166e-06
0.000344312
3.24307e-06
0.000343418
3.56706e-06
0.000342444
3.88828e-06
0.000341389
4.20649e-06
0.000340256
4.52141e-06
0.000339044
4.83281e-06
0.000337756
5.14044e-06
0.000336391
5.44409e-06
0.000334951
5.74352e-06
0.000333438
6.03853e-06
0.000331851
6.32892e-06
0.000330193
6.61451e-06
0.000328465
6.89512e-06
0.000326668
7.1706e-06
0.000324803
7.44078e-06
0.000322871
7.70554e-06
0.000320875
7.96474e-06
0.000318816
8.21827e-06
0.000316694
8.46603e-06
0.000314512
8.70793e-06
0.000312271
8.94389e-06
0.000309972
9.17385e-06
0.000307617
9.39774e-06
0.000305208
9.61553e-06
0.000302746
9.82719e-06
0.000300232
1.00327e-05
0.000297669
1.0232e-05
0.000295057
1.04252e-05
0.000292399
1.06122e-05
0.000289695
1.0793e-05
0.000286948
1.09678e-05
0.000284159
1.11365e-05
0.000281329
1.12991e-05
0.000278459
1.14558e-05
0.000275553
1.16066e-05
0.00027261
1.17515e-05
0.000269632
1.18906e-05
0.000266621
1.20241e-05
0.000263578
1.21519e-05
0.000260505
1.22743e-05
0.000257403
1.23912e-05
0.000254273
1.25028e-05
0.000251116
1.26092e-05
0.000247934
1.27105e-05
0.000244728
1.28068e-05
0.000241499
1.28982e-05
0.000238249
1.29849e-05
0.000234978
1.30669e-05
0.000231688
1.31445e-05
0.00022838
1.32176e-05
0.000225055
1.32865e-05
0.000221714
1.33513e-05
0.000218357
1.34121e-05
0.000214987
1.34689e-05
0.000211603
1.35221e-05
0.000208207
1.35716e-05
0.0002048
1.36176e-05
0.000201382
1.36602e-05
0.000197954
1.36997e-05
0.000194517
1.37359e-05
0.000191073
1.37692e-05
0.00018762
1.37997e-05
0.000184161
1.38274e-05
0.000180696
1.38524e-05
0.000177225
1.3875e-05
0.000173749
1.38952e-05
0.000170269
1.39131e-05
0.000166785
1.39288e-05
0.000163298
1.39425e-05
0.000159808
1.39543e-05
0.000156315
1.39642e-05
0.00015282
1.39724e-05
0.000149324
1.3979e-05
0.000145827
1.39841e-05
0.000142329
1.39877e-05
0.00013883
1.399e-05
0.000135332
1.3991e-05
0.000131833
1.3991e-05
0.000128335
1.39898e-05
0.000124837
1.39877e-05
0.00012134
1.39847e-05
0.000117844
1.39809e-05
0.00011435
1.39763e-05
0.000110856
1.39711e-05
0.000107364
1.39654e-05
0.000103874
1.39591e-05
0.000100386
1.39523e-05
9.68993e-05
1.39452e-05
9.34147e-05
1.39378e-05
8.9932e-05
1.39301e-05
8.64513e-05
1.39222e-05
8.29727e-05
1.39141e-05
7.94961e-05
1.3906e-05
7.60217e-05
1.38979e-05
7.25493e-05
1.38897e-05
6.9079e-05
1.38817e-05
6.56107e-05
1.38737e-05
6.21444e-05
1.38658e-05
5.868e-05
1.38582e-05
5.52175e-05
1.38508e-05
5.17569e-05
1.38436e-05
4.8298e-05
1.38367e-05
4.48407e-05
1.38302e-05
4.13851e-05
1.3824e-05
3.79309e-05
1.38181e-05
3.44781e-05
1.38127e-05
3.10265e-05
1.38077e-05
2.75762e-05
1.38031e-05
2.41268e-05
1.3799e-05
2.06784e-05
1.37954e-05
1.72308e-05
1.37923e-05
1.37838e-05
1.37896e-05
1.03374e-05
1.37875e-05
6.89137e-06
1.37859e-05
3.44562e-06
1.37849e-05
1.37843e-05
3.21729e-06
-1.60905e-05
6.43472e-06
-1.60912e-05
9.65243e-06
-1.60926e-05
1.28705e-05
-1.60946e-05
1.60892e-05
-1.60973e-05
1.93086e-05
-1.61007e-05
2.25287e-05
-1.61047e-05
2.57498e-05
-1.61094e-05
2.8972e-05
-1.61147e-05
3.21954e-05
-1.61206e-05
3.54201e-05
-1.61271e-05
3.86463e-05
-1.61342e-05
4.1874e-05
-1.61419e-05
4.51034e-05
-1.61502e-05
4.83346e-05
-1.61589e-05
5.15677e-05
-1.61682e-05
5.48027e-05
-1.6178e-05
5.80399e-05
-1.61882e-05
6.12792e-05
-1.61988e-05
6.45207e-05
-1.62099e-05
6.77646e-05
-1.62212e-05
7.10108e-05
-1.6233e-05
7.42595e-05
-1.6245e-05
7.75107e-05
-1.62572e-05
8.07644e-05
-1.62697e-05
8.40207e-05
-1.62823e-05
8.72797e-05
-1.6295e-05
9.05412e-05
-1.63078e-05
9.38054e-05
-1.63207e-05
9.70722e-05
-1.63335e-05
0.000100342
-1.63462e-05
0.000103614
-1.63587e-05
0.000106888
-1.63711e-05
0.000110165
-1.63832e-05
0.000113445
-1.6395e-05
0.000116726
-1.64063e-05
0.000120011
-1.64172e-05
0.000123297
-1.64276e-05
0.000126585
-1.64373e-05
0.000129875
-1.64463e-05
0.000133167
-1.64546e-05
0.000136461
-1.6462e-05
0.000139756
-1.64684e-05
0.000143052
-1.64738e-05
0.000146349
-1.64781e-05
0.000149647
-1.64811e-05
0.000152945
-1.64828e-05
0.000156244
-1.64831e-05
0.000159542
-1.64819e-05
0.00016284
-1.6479e-05
0.000166137
-1.64743e-05
0.000169433
-1.64678e-05
0.000172727
-1.64593e-05
0.00017602
-1.64487e-05
0.00017931
-1.64359e-05
0.000182597
-1.64207e-05
0.000185881
-1.6403e-05
0.00018916
-1.63827e-05
0.000192436
-1.63597e-05
0.000195706
-1.63338e-05
0.000198971
-1.63048e-05
0.00020223
-1.62727e-05
0.000205481
-1.62373e-05
0.000208725
-1.61984e-05
0.000211961
-1.61559e-05
0.000215187
-1.61097e-05
0.000218404
-1.60595e-05
0.00022161
-1.60053e-05
0.000224805
-1.59468e-05
0.000227987
-1.5884e-05
0.000231156
-1.58167e-05
0.000234311
-1.57446e-05
0.00023745
-1.56678e-05
0.000240574
-1.55859e-05
0.00024368
-1.54988e-05
0.000246768
-1.54065e-05
0.000249836
-1.53087e-05
0.000252884
-1.52053e-05
0.000255911
-1.5096e-05
0.000258914
-1.49809e-05
0.000261893
-1.48597e-05
0.000264848
-1.47323e-05
0.000267775
-1.45986e-05
0.000270675
-1.44583e-05
0.000273545
-1.43115e-05
0.000276385
-1.41579e-05
0.000279193
-1.39974e-05
0.000281967
-1.383e-05
0.000284707
-1.36555e-05
0.00028741
-1.34738e-05
0.000290076
-1.32848e-05
0.000292703
-1.30885e-05
0.000295289
-1.28847e-05
0.000297832
-1.26735e-05
0.000300332
-1.24546e-05
0.000302787
-1.22282e-05
0.000305195
-1.19941e-05
0.000307555
-1.17524e-05
0.000309865
-1.1503e-05
0.000312123
-1.12459e-05
0.000314328
-1.09811e-05
0.000316479
-1.07087e-05
0.000318574
-1.04287e-05
0.000320611
-1.01411e-05
0.000322589
-9.84602e-06
0.000324507
-9.54356e-06
0.000326362
-9.23378e-06
0.000328154
-8.9168e-06
0.000329881
-8.59275e-06
0.000331541
-8.26176e-06
0.000333134
-7.92399e-06
0.000334657
-7.57961e-06
0.00033611
-7.22881e-06
0.000337492
-6.87178e-06
0.000338801
-6.50874e-06
0.000340035
-6.13991e-06
0.000341195
-5.76555e-06
0.000342278
-5.38591e-06
0.000343284
-5.00125e-06
0.000344211
-4.61187e-06
0.00034506
-4.21805e-06
0.000345829
-3.82011e-06
0.000346516
-3.41836e-06
0.000347123
-3.01313e-06
0.000347647
-2.60476e-06
0.000348089
-2.19359e-06
0.000348447
-1.77998e-06
0.000348722
-1.36429e-06
0.000348913
-9.46892e-07
0.00034902
-5.28148e-07
0.000349042
-1.08438e-07
0.00034898
3.11859e-07
0.000348833
7.32364e-07
0.000348602
1.15269e-06
0.000348287
1.57247e-06
0.000347887
1.99131e-06
0.000347403
2.40885e-06
0.000346836
2.8247e-06
0.000346185
3.23849e-06
0.000345452
3.64988e-06
0.000344636
4.05849e-06
0.000343739
4.46398e-06
0.000342762
4.866e-06
0.000341704
5.26424e-06
0.000340567
5.65836e-06
0.000339352
6.04805e-06
0.000338059
6.43302e-06
0.00033669
6.81299e-06
0.000335246
7.18766e-06
0.000333728
7.55679e-06
0.000332137
7.92013e-06
0.000330474
8.27745e-06
0.00032874
8.62852e-06
0.000326938
8.97314e-06
0.000325067
9.31113e-06
0.000323131
9.64232e-06
0.000321129
9.96653e-06
0.000319064
1.02836e-05
0.000316936
1.05935e-05
0.000314748
1.0896e-05
0.000312501
1.11911e-05
0.000310196
1.14787e-05
0.000307835
1.17586e-05
0.00030542
1.20309e-05
0.000302951
1.22955e-05
0.000300432
1.25524e-05
0.000297862
1.28016e-05
0.000295244
1.3043e-05
0.00029258
1.32767e-05
0.00028987
1.35028e-05
0.000287117
1.37211e-05
0.000284321
1.39319e-05
0.000281485
1.41351e-05
0.00027861