/*--------------------------------*- C++ -*----------------------------------*\
| =========                 |                                                 |
| \\      /  F ield         | OpenFOAM: The Open Source CFD Toolbox           |
|  \\    /   O peration     | Version:  v2012                                 |
|   \\  /    A nd           | Website:  www.openfoam.com                      |
|    \\/     M anipulation  |                                                 |
\*---------------------------------------------------------------------------*/
FoamFile
{
    version     2.0;
    format      ascii;
    class       volVectorField;
    location    "19.1";
    object      U;
}
// * * * * * * * * * * * * * * * * * * * * * * * * * * * * * * * * * * * * * //

dimensions      [0 1 -1 0 0 0 0];


internalField   nonuniform List<vector> 
65536
(
(0.00065569 -0.000655702 0)
(0.0019671 -0.000655731 0)
(0.00327859 -0.000655786 0)
(0.00459022 -0.000655868 0)
(0.00590204 -0.000655977 0)
(0.00721411 -0.000656113 0)
(0.00852647 -0.000656275 0)
(0.00983918 -0.000656463 0)
(0.0111523 -0.000656677 0)
(0.0124659 -0.000656915 0)
(0.0137799 -0.000657178 0)
(0.0150946 -0.000657465 0)
(0.0164098 -0.000657775 0)
(0.0177256 -0.000658107 0)
(0.0190422 -0.00065846 0)
(0.0203595 -0.000658834 0)
(0.0216775 -0.000659227 0)
(0.0229964 -0.000659638 0)
(0.0243161 -0.000660066 0)
(0.0256366 -0.000660509 0)
(0.0269581 -0.000660967 0)
(0.0282805 -0.000661438 0)
(0.0296038 -0.00066192 0)
(0.0309281 -0.000662412 0)
(0.0322535 -0.000662912 0)
(0.0335798 -0.000663419 0)
(0.0349071 -0.000663929 0)
(0.0362355 -0.000664443 0)
(0.0375649 -0.000664956 0)
(0.0388953 -0.000665468 0)
(0.0402268 -0.000665976 0)
(0.0415593 -0.000666477 0)
(0.0428927 -0.00066697 0)
(0.0442272 -0.000667452 0)
(0.0455625 -0.000667919 0)
(0.0468988 -0.00066837 0)
(0.048236 -0.000668801 0)
(0.0495741 -0.000669209 0)
(0.0509129 -0.000669592 0)
(0.0522525 -0.000669946 0)
(0.0535927 -0.000670268 0)
(0.0549336 -0.000670554 0)
(0.056275 -0.000670801 0)
(0.0576168 -0.000671005 0)
(0.0589591 -0.000671162 0)
(0.0603015 -0.000671269 0)
(0.0616442 -0.000671321 0)
(0.0629869 -0.000671315 0)
(0.0643295 -0.000671245 0)
(0.0656719 -0.000671108 0)
(0.067014 -0.000670899 0)
(0.0683556 -0.000670614 0)
(0.0696966 -0.000670247 0)
(0.0710367 -0.000669793 0)
(0.0723758 -0.000669249 0)
(0.0737138 -0.000668608 0)
(0.0750504 -0.000667865 0)
(0.0763854 -0.000667015 0)
(0.0777185 -0.000666053 0)
(0.0790497 -0.000664973 0)
(0.0803786 -0.000663769 0)
(0.0817049 -0.000662435 0)
(0.0830284 -0.000660966 0)
(0.0843489 -0.000659356 0)
(0.085666 -0.000657599 0)
(0.0869795 -0.000655688 0)
(0.0882889 -0.000653618 0)
(0.0895941 -0.000651382 0)
(0.0908946 -0.000648974 0)
(0.0921902 -0.000646388 0)
(0.0934804 -0.000643617 0)
(0.0947648 -0.000640655 0)
(0.0960432 -0.000637496 0)
(0.097315 -0.000634133 0)
(0.0985799 -0.00063056 0)
(0.0998375 -0.000626771 0)
(0.101087 -0.00062276 0)
(0.102329 -0.000618519 0)
(0.103562 -0.000614044 0)
(0.104785 -0.000609329 0)
(0.105999 -0.000604366 0)
(0.107203 -0.000599152 0)
(0.108396 -0.000593679 0)
(0.109578 -0.000587943 0)
(0.110748 -0.000581938 0)
(0.111906 -0.00057566 0)
(0.113051 -0.000569103 0)
(0.114183 -0.000562263 0)
(0.1153 -0.000555136 0)
(0.116403 -0.000547717 0)
(0.117491 -0.000540003 0)
(0.118564 -0.000531991 0)
(0.11962 -0.000523678 0)
(0.120659 -0.00051506 0)
(0.12168 -0.000506137 0)
(0.122684 -0.000496905 0)
(0.123668 -0.000487364 0)
(0.124633 -0.000477512 0)
(0.125579 -0.00046735 0)
(0.126503 -0.000456877 0)
(0.127406 -0.000446094 0)
(0.128288 -0.000435002 0)
(0.129147 -0.000423602 0)
(0.129982 -0.000411897 0)
(0.130795 -0.000399889 0)
(0.131582 -0.000387582 0)
(0.132345 -0.00037498 0)
(0.133083 -0.000362086 0)
(0.133794 -0.000348908 0)
(0.134478 -0.000335449 0)
(0.135136 -0.000321716 0)
(0.135766 -0.000307717 0)
(0.136367 -0.000293458 0)
(0.13694 -0.000278949 0)
(0.137483 -0.000264197 0)
(0.137997 -0.000249211 0)
(0.13848 -0.000234003 0)
(0.138933 -0.000218581 0)
(0.139355 -0.000202958 0)
(0.139745 -0.000187144 0)
(0.140103 -0.000171151 0)
(0.14043 -0.000154992 0)
(0.140723 -0.00013868 0)
(0.140985 -0.000122227 0)
(0.141213 -0.000105648 0)
(0.141407 -8.89566e-05 0)
(0.141568 -7.21667e-05 0)
(0.141696 -5.52931e-05 0)
(0.14179 -3.83504e-05 0)
(0.141849 -2.13538e-05 0)
(0.141875 -4.3183e-06 0)
(0.141867 1.27408e-05 0)
(0.141824 2.98083e-05 0)
(0.141747 4.68688e-05 0)
(0.141637 6.39069e-05 0)
(0.141492 8.09074e-05 0)
(0.141313 9.78551e-05 0)
(0.1411 0.000114735 0)
(0.140854 0.000131532 0)
(0.140574 0.000148232 0)
(0.140261 0.00016482 0)
(0.139915 0.000181283 0)
(0.139536 0.000197606 0)
(0.139124 0.000213776 0)
(0.13868 0.000229781 0)
(0.138205 0.000245607 0)
(0.137698 0.000261243 0)
(0.13716 0.000276677 0)
(0.136591 0.000291898 0)
(0.135992 0.000306895 0)
(0.135363 0.000321658 0)
(0.134705 0.000336179 0)
(0.134018 0.000350448 0)
(0.133303 0.000364457 0)
(0.13256 0.000378198 0)
(0.13179 0.000391664 0)
(0.130993 0.000404849 0)
(0.13017 0.000417747 0)
(0.129322 0.000430353 0)
(0.128448 0.000442661 0)
(0.127551 0.00045467 0)
(0.126629 0.000466373 0)
(0.125685 0.00047777 0)
(0.124718 0.000488858 0)
(0.123729 0.000499634 0)
(0.122719 0.000510098 0)
(0.121688 0.00052025 0)
(0.120638 0.000530089 0)
(0.119568 0.000539616 0)
(0.118479 0.000548831 0)
(0.117372 0.000557736 0)
(0.116248 0.000566333 0)
(0.115107 0.000574624 0)
(0.113949 0.000582612 0)
(0.112776 0.0005903 0)
(0.111587 0.000597691 0)
(0.110385 0.000604788 0)
(0.109168 0.000611597 0)
(0.107938 0.000618121 0)
(0.106695 0.000624365 0)
(0.10544 0.000630333 0)
(0.104174 0.000636032 0)
(0.102896 0.000641466 0)
(0.101608 0.00064664 0)
(0.100309 0.000651561 0)
(0.0990011 0.000656235 0)
(0.0976839 0.000660666 0)
(0.0963582 0.000664862 0)
(0.0950242 0.000668829 0)
(0.0936826 0.000672572 0)
(0.0923337 0.000676099 0)
(0.090978 0.000679415 0)
(0.0896159 0.000682527 0)
(0.0882477 0.000685442 0)
(0.0868739 0.000688166 0)
(0.0854949 0.000690705 0)
(0.0841109 0.000693066 0)
(0.0827224 0.000695256 0)
(0.0813297 0.000697281 0)
(0.0799331 0.000699147 0)
(0.078533 0.00070086 0)
(0.0771296 0.000702427 0)
(0.0757231 0.000703854 0)
(0.074314 0.000705148 0)
(0.0729024 0.000706313 0)
(0.0714886 0.000707357 0)
(0.0700729 0.000708285 0)
(0.0686554 0.000709102 0)
(0.0672364 0.000709815 0)
(0.065816 0.000710429 0)
(0.0643945 0.00071095 0)
(0.0629721 0.000711382 0)
(0.0615489 0.000711731 0)
(0.0601251 0.000712002 0)
(0.0587009 0.0007122 0)
(0.0572763 0.00071233 0)
(0.0558515 0.000712397 0)
(0.0544266 0.000712405 0)
(0.0530018 0.000712359 0)
(0.0515771 0.000712263 0)
(0.0501527 0.000712121 0)
(0.0487286 0.000711938 0)
(0.0473049 0.000711717 0)
(0.0458817 0.000711462 0)
(0.044459 0.000711178 0)
(0.043037 0.000710866 0)
(0.0416155 0.000710532 0)
(0.0401948 0.000710178 0)
(0.0387748 0.000709808 0)
(0.0373556 0.000709425 0)
(0.0359371 0.000709031 0)
(0.0345194 0.000708629 0)
(0.0331026 0.000708223 0)
(0.0316866 0.000707815 0)
(0.0302713 0.000707407 0)
(0.0288569 0.000707001 0)
(0.0274433 0.000706601 0)
(0.0260305 0.000706208 0)
(0.0246185 0.000705823 0)
(0.0232073 0.00070545 0)
(0.0217967 0.000705089 0)
(0.0203869 0.000704743 0)
(0.0189778 0.000704413 0)
(0.0175693 0.000704101 0)
(0.0161614 0.000703807 0)
(0.0147541 0.000703534 0)
(0.0133473 0.000703282 0)
(0.011941 0.000703052 0)
(0.0105351 0.000702845 0)
(0.00912961 0.000702663 0)
(0.00772447 0.000702505 0)
(0.00631962 0.000702372 0)
(0.00491501 0.000702265 0)
(0.00351059 0.000702185 0)
(0.0021063 0.000702132 0)
(0.000702091 0.000702105 0)
(0.000655665 -0.00196709 0)
(0.00196702 -0.00196717 0)
(0.00327846 -0.00196734 0)
(0.00459004 -0.00196758 0)
(0.0059018 -0.00196791 0)
(0.00721382 -0.00196832 0)
(0.00852613 -0.0019688 0)
(0.00983879 -0.00196937 0)
(0.0111519 -0.00197001 0)
(0.0124654 -0.00197073 0)
(0.0137794 -0.00197152 0)
(0.015094 -0.00197238 0)
(0.0164092 -0.00197331 0)
(0.017725 -0.0019743 0)
(0.0190415 -0.00197536 0)
(0.0203587 -0.00197649 0)
(0.0216767 -0.00197767 0)
(0.0229956 -0.0019789 0)
(0.0243152 -0.00198019 0)
(0.0256357 -0.00198152 0)
(0.0269572 -0.00198289 0)
(0.0282796 -0.00198431 0)
(0.0296029 -0.00198575 0)
(0.0309272 -0.00198723 0)
(0.0322525 -0.00198873 0)
(0.0335788 -0.00199025 0)
(0.0349062 -0.00199179 0)
(0.0362345 -0.00199333 0)
(0.0375639 -0.00199487 0)
(0.0388944 -0.00199641 0)
(0.0402258 -0.00199794 0)
(0.0415583 -0.00199944 0)
(0.0428918 -0.00200093 0)
(0.0442263 -0.00200237 0)
(0.0455617 -0.00200378 0)
(0.046898 -0.00200513 0)
(0.0482353 -0.00200643 0)
(0.0495733 -0.00200766 0)
(0.0509122 -0.00200881 0)
(0.0522519 -0.00200987 0)
(0.0535922 -0.00201084 0)
(0.0549331 -0.0020117 0)
(0.0562746 -0.00201245 0)
(0.0576165 -0.00201307 0)
(0.0589589 -0.00201354 0)
(0.0603015 -0.00201387 0)
(0.0616442 -0.00201403 0)
(0.062987 -0.00201401 0)
(0.0643298 -0.00201381 0)
(0.0656724 -0.0020134 0)
(0.0670146 -0.00201278 0)
(0.0683563 -0.00201193 0)
(0.0696975 -0.00201083 0)
(0.0710378 -0.00200947 0)
(0.0723771 -0.00200785 0)
(0.0737153 -0.00200593 0)
(0.075052 -0.0020037 0)
(0.0763873 -0.00200116 0)
(0.0777207 -0.00199828 0)
(0.0790521 -0.00199504 0)
(0.0803812 -0.00199144 0)
(0.0817078 -0.00198744 0)
(0.0830316 -0.00198304 0)
(0.0843524 -0.00197822 0)
(0.0856698 -0.00197295 0)
(0.0869835 -0.00196723 0)
(0.0882933 -0.00196102 0)
(0.0895988 -0.00195432 0)
(0.0908997 -0.0019471 0)
(0.0921956 -0.00193935 0)
(0.0934862 -0.00193104 0)
(0.0947711 -0.00192216 0)
(0.0960498 -0.00191269 0)
(0.0973221 -0.00190261 0)
(0.0985874 -0.0018919 0)
(0.0998454 -0.00188054 0)
(0.101096 -0.00186851 0)
(0.102338 -0.00185579 0)
(0.103571 -0.00184237 0)
(0.104795 -0.00182823 0)
(0.106009 -0.00181335 0)
(0.107214 -0.00179771 0)
(0.108407 -0.0017813 0)
(0.10959 -0.0017641 0)
(0.11076 -0.00174609 0)
(0.111919 -0.00172726 0)
(0.113064 -0.00170759 0)
(0.114197 -0.00168708 0)
(0.115315 -0.0016657 0)
(0.116419 -0.00164345 0)
(0.117507 -0.00162031 0)
(0.11858 -0.00159627 0)
(0.119637 -0.00157134 0)
(0.120676 -0.00154549 0)
(0.121699 -0.00151872 0)
(0.122702 -0.00149102 0)
(0.123688 -0.0014624 0)
(0.124653 -0.00143285 0)
(0.125599 -0.00140236 0)
(0.126524 -0.00137094 0)
(0.127428 -0.00133859 0)
(0.12831 -0.00130531 0)
(0.12917 -0.00127111 0)
(0.130006 -0.00123599 0)
(0.130819 -0.00119996 0)
(0.131607 -0.00116304 0)
(0.132371 -0.00112523 0)
(0.133109 -0.00108654 0)
(0.133821 -0.001047 0)
(0.134506 -0.00100662 0)
(0.135164 -0.000965413 0)
(0.135794 -0.000923407 0)
(0.136396 -0.000880623 0)
(0.136969 -0.000837086 0)
(0.137513 -0.00079282 0)
(0.138027 -0.000747854 0)
(0.138511 -0.000702218 0)
(0.138964 -0.000655942 0)
(0.139386 -0.00060906 0)
(0.139777 -0.000561606 0)
(0.140136 -0.000513615 0)
(0.140462 -0.000465126 0)
(0.140756 -0.000416176 0)
(0.141018 -0.000366805 0)
(0.141246 -0.000317053 0)
(0.141441 -0.000266964 0)
(0.141602 -0.00021658 0)
(0.14173 -0.000165944 0)
(0.141824 -0.000115102 0)
(0.141884 -6.40964e-05 0)
(0.141909 -1.29746e-05 0)
(0.141901 3.82182e-05 0)
(0.141858 8.9436e-05 0)
(0.141782 0.000140633 0)
(0.141671 0.000191762 0)
(0.141526 0.000242779 0)
(0.141347 0.000293637 0)
(0.141134 0.000344292 0)
(0.140888 0.000394698 0)
(0.140607 0.000444812 0)
(0.140294 0.000494591 0)
(0.139948 0.000543993 0)
(0.139568 0.000592975 0)
(0.139156 0.000641499 0)
(0.138712 0.000689525 0)
(0.138236 0.000737016 0)
(0.137729 0.000783935 0)
(0.13719 0.000830247 0)
(0.136621 0.00087592 0)
(0.136022 0.000920922 0)
(0.135392 0.000965222 0)
(0.134734 0.00100879 0)
(0.134046 0.00105161 0)
(0.133331 0.00109364 0)
(0.132587 0.00113487 0)
(0.131816 0.00117528 0)
(0.131019 0.00121484 0)
(0.130196 0.00125354 0)
(0.129347 0.00129136 0)
(0.128473 0.00132829 0)
(0.127574 0.00136432 0)
(0.126653 0.00139943 0)
(0.125707 0.00143362 0)
(0.12474 0.00146689 0)
(0.12375 0.00149922 0)
(0.12274 0.00153061 0)
(0.121708 0.00156107 0)
(0.120657 0.00159058 0)
(0.119587 0.00161916 0)
(0.118497 0.00164681 0)
(0.11739 0.00167352 0)
(0.116265 0.00169931 0)
(0.115123 0.00172418 0)
(0.113965 0.00174814 0)
(0.112791 0.0017712 0)
(0.111602 0.00179337 0)
(0.110399 0.00181466 0)
(0.109181 0.00183508 0)
(0.107951 0.00185465 0)
(0.106707 0.00187337 0)
(0.105452 0.00189127 0)
(0.104185 0.00190836 0)
(0.102907 0.00192466 0)
(0.101618 0.00194018 0)
(0.100319 0.00195493 0)
(0.0990101 0.00196895 0)
(0.0976925 0.00198224 0)
(0.0963663 0.00199482 0)
(0.0950319 0.00200671 0)
(0.0936899 0.00201793 0)
(0.0923405 0.00202851 0)
(0.0909844 0.00203845 0)
(0.0896219 0.00204778 0)
(0.0882533 0.00205652 0)
(0.0868791 0.00206468 0)
(0.0854997 0.00207229 0)
(0.0841154 0.00207937 0)
(0.0827266 0.00208593 0)
(0.0813336 0.002092 0)
(0.0799367 0.00209759 0)
(0.0785362 0.00210273 0)
(0.0771325 0.00210742 0)
(0.0757258 0.0021117 0)
(0.0743164 0.00211557 0)
(0.0729046 0.00211906 0)
(0.0714906 0.00212219 0)
(0.0700746 0.00212496 0)
(0.0686569 0.00212741 0)
(0.0672376 0.00212954 0)
(0.0658171 0.00213138 0)
(0.0643955 0.00213294 0)
(0.0629729 0.00213423 0)
(0.0615495 0.00213527 0)
(0.0601256 0.00213608 0)
(0.0587012 0.00213667 0)
(0.0572764 0.00213705 0)
(0.0558515 0.00213725 0)
(0.0544265 0.00213727 0)
(0.0530016 0.00213713 0)
(0.0515769 0.00213683 0)
(0.0501523 0.0021364 0)
(0.0487282 0.00213585 0)
(0.0473044 0.00213518 0)
(0.0458811 0.00213442 0)
(0.0444584 0.00213356 0)
(0.0430363 0.00213262 0)
(0.0416148 0.00213162 0)
(0.0401941 0.00213055 0)
(0.038774 0.00212944 0)
(0.0373548 0.00212828 0)
(0.0359363 0.0021271 0)
(0.0345186 0.00212589 0)
(0.0331018 0.00212467 0)
(0.0316857 0.00212344 0)
(0.0302705 0.00212222 0)
(0.0288561 0.002121 0)
(0.0274425 0.00211979 0)
(0.0260297 0.00211861 0)
(0.0246177 0.00211746 0)
(0.0232065 0.00211634 0)
(0.021796 0.00211525 0)
(0.0203862 0.00211421 0)
(0.0189771 0.00211322 0)
(0.0175687 0.00211228 0)
(0.0161608 0.0021114 0)
(0.0147535 0.00211058 0)
(0.0133468 0.00210982 0)
(0.0119405 0.00210913 0)
(0.0105347 0.00210851 0)
(0.00912927 0.00210796 0)
(0.00772418 0.00210749 0)
(0.00631938 0.00210709 0)
(0.00491482 0.00210677 0)
(0.00351045 0.00210653 0)
(0.00210622 0.00210637 0)
(0.000702064 0.00210629 0)
(0.000655609 -0.00327839 0)
(0.00196685 -0.00327853 0)
(0.00327818 -0.0032788 0)
(0.00458965 -0.00327921 0)
(0.00590131 -0.00327976 0)
(0.00721322 -0.00328044 0)
(0.00852542 -0.00328125 0)
(0.00983798 -0.00328219 0)
(0.0111509 -0.00328326 0)
(0.0124644 -0.00328446 0)
(0.0137783 -0.00328578 0)
(0.0150928 -0.00328722 0)
(0.0164079 -0.00328877 0)
(0.0177236 -0.00329044 0)
(0.01904 -0.00329221 0)
(0.0203572 -0.00329408 0)
(0.0216751 -0.00329605 0)
(0.0229939 -0.00329811 0)
(0.0243134 -0.00330026 0)
(0.0256339 -0.00330248 0)
(0.0269553 -0.00330478 0)
(0.0282776 -0.00330714 0)
(0.0296009 -0.00330956 0)
(0.0309252 -0.00331203 0)
(0.0322505 -0.00331454 0)
(0.0335768 -0.00331708 0)
(0.0349041 -0.00331964 0)
(0.0362324 -0.00332222 0)
(0.0375618 -0.0033248 0)
(0.0388923 -0.00332737 0)
(0.0402238 -0.00332992 0)
(0.0415563 -0.00333244 0)
(0.0428898 -0.00333491 0)
(0.0442243 -0.00333733 0)
(0.0455598 -0.00333969 0)
(0.0468962 -0.00334195 0)
(0.0482335 -0.00334412 0)
(0.0495717 -0.00334618 0)
(0.0509107 -0.00334811 0)
(0.0522505 -0.0033499 0)
(0.0535909 -0.00335152 0)
(0.054932 -0.00335297 0)
(0.0562736 -0.00335423 0)
(0.0576158 -0.00335526 0)
(0.0589583 -0.00335607 0)
(0.0603011 -0.00335663 0)
(0.0616441 -0.00335691 0)
(0.0629871 -0.0033569 0)
(0.0643302 -0.00335657 0)
(0.065673 -0.00335591 0)
(0.0670155 -0.00335489 0)
(0.0683576 -0.00335348 0)
(0.069699 -0.00335167 0)
(0.0710397 -0.00334943 0)
(0.0723794 -0.00334673 0)
(0.073718 -0.00334355 0)
(0.0750552 -0.00333986 0)
(0.0763908 -0.00333564 0)
(0.0777247 -0.00333086 0)
(0.0790566 -0.00332549 0)
(0.0803862 -0.0033195 0)
(0.0817133 -0.00331286 0)
(0.0830377 -0.00330554 0)
(0.084359 -0.00329752 0)
(0.085677 -0.00328877 0)
(0.0869914 -0.00327924 0)
(0.0883019 -0.00326892 0)
(0.089608 -0.00325777 0)
(0.0909096 -0.00324577 0)
(0.0922063 -0.00323287 0)
(0.0934976 -0.00321904 0)
(0.0947832 -0.00320426 0)
(0.0960628 -0.0031885 0)
(0.0973359 -0.00317172 0)
(0.098602 -0.00315388 0)
(0.0998609 -0.00313497 0)
(0.101112 -0.00311494 0)
(0.102355 -0.00309377 0)
(0.103589 -0.00307143 0)
(0.104814 -0.00304788 0)
(0.10603 -0.00302309 0)
(0.107235 -0.00299705 0)
(0.10843 -0.00296971 0)
(0.109613 -0.00294106 0)
(0.110785 -0.00291106 0)
(0.111944 -0.00287969 0)
(0.113091 -0.00284693 0)
(0.114225 -0.00281275 0)
(0.115344 -0.00277713 0)
(0.116449 -0.00274006 0)
(0.117539 -0.00270151 0)
(0.118613 -0.00266146 0)
(0.119671 -0.00261991 0)
(0.120711 -0.00257683 0)
(0.121735 -0.00253222 0)
(0.12274 -0.00248607 0)
(0.123726 -0.00243837 0)
(0.124693 -0.00238911 0)
(0.12564 -0.0023383 0)
(0.126567 -0.00228593 0)
(0.127472 -0.00223201 0)
(0.128355 -0.00217654 0)
(0.129216 -0.00211953 0)
(0.130054 -0.00206099 0)
(0.130868 -0.00200094 0)
(0.131657 -0.00193938 0)
(0.132422 -0.00187635 0)
(0.133161 -0.00181186 0)
(0.133874 -0.00174593 0)
(0.13456 -0.00167861 0)
(0.135219 -0.00160991 0)
(0.13585 -0.00153988 0)
(0.136453 -0.00146854 0)
(0.137028 -0.00139595 0)
(0.137572 -0.00132214 0)
(0.138087 -0.00124717 0)
(0.138572 -0.00117107 0)
(0.139026 -0.00109391 0)
(0.139449 -0.00101574 0)
(0.13984 -0.000936605 0)
(0.1402 -0.00085658 0)
(0.140527 -0.000775721 0)
(0.140822 -0.000694093 0)
(0.141084 -0.000611762 0)
(0.141312 -0.000528797 0)
(0.141508 -0.000445268 0)
(0.14167 -0.000361246 0)
(0.141798 -0.000276803 0)
(0.141892 -0.000192015 0)
(0.141952 -0.000106956 0)
(0.141978 -2.17025e-05 0)
(0.141969 6.36699e-05 0)
(0.141927 0.000149084 0)
(0.14185 0.000234463 0)
(0.141739 0.00031973 0)
(0.141594 0.000404809 0)
(0.141415 0.000489622 0)
(0.141201 0.000574096 0)
(0.140955 0.000658156 0)
(0.140674 0.000741727 0)
(0.14036 0.000824739 0)
(0.140013 0.000907121 0)
(0.139633 0.000988803 0)
(0.139221 0.00106972 0)
(0.138776 0.0011498 0)
(0.138299 0.001229 0)
(0.137791 0.00130723 0)
(0.137252 0.00138446 0)
(0.136682 0.00146061 0)
(0.136081 0.00153565 0)
(0.135451 0.00160952 0)
(0.134791 0.00168216 0)
(0.134103 0.00175355 0)
(0.133386 0.00182363 0)
(0.132642 0.00189237 0)
(0.13187 0.00195973 0)
(0.131071 0.00202569 0)
(0.130247 0.0020902 0)
(0.129396 0.00215325 0)
(0.128521 0.00221482 0)
(0.127622 0.00227488 0)
(0.126699 0.00233341 0)
(0.125752 0.0023904 0)
(0.124784 0.00244585 0)
(0.123793 0.00249974 0)
(0.122781 0.00255206 0)
(0.121748 0.00260282 0)
(0.120696 0.00265201 0)
(0.119624 0.00269964 0)
(0.118533 0.00274571 0)
(0.117425 0.00279023 0)
(0.116298 0.0028332 0)
(0.115155 0.00287464 0)
(0.113996 0.00291457 0)
(0.112821 0.00295299 0)
(0.111631 0.00298992 0)
(0.110426 0.00302539 0)
(0.109208 0.00305941 0)
(0.107976 0.00309201 0)
(0.106732 0.0031232 0)
(0.105475 0.00315302 0)
(0.104207 0.00318149 0)
(0.102928 0.00320863 0)
(0.101638 0.00323447 0)
(0.100338 0.00325905 0)
(0.0990283 0.00328239 0)
(0.0977098 0.00330451 0)
(0.0963826 0.00332546 0)
(0.0950473 0.00334526 0)
(0.0937044 0.00336395 0)
(0.0923542 0.00338155 0)
(0.0909973 0.0033981 0)
(0.0896339 0.00341362 0)
(0.0882646 0.00342817 0)
(0.0868897 0.00344175 0)
(0.0855095 0.00345442 0)
(0.0841245 0.00346619 0)
(0.082735 0.00347711 0)
(0.0813413 0.0034872 0)
(0.0799438 0.0034965 0)
(0.0785428 0.00350503 0)
(0.0771385 0.00351284 0)
(0.0757312 0.00351994 0)
(0.0743213 0.00352638 0)
(0.072909 0.00353218 0)
(0.0714945 0.00353737 0)
(0.0700781 0.00354198 0)
(0.0686599 0.00354603 0)
(0.0672403 0.00354957 0)
(0.0658194 0.00355261 0)
(0.0643974 0.00355519 0)
(0.0629744 0.00355732 0)
(0.0615508 0.00355904 0)
(0.0601265 0.00356037 0)
(0.0587018 0.00356134 0)
(0.0572768 0.00356197 0)
(0.0558517 0.00356228 0)
(0.0544265 0.0035623 0)
(0.0530013 0.00356204 0)
(0.0515764 0.00356154 0)
(0.0501517 0.00356081 0)
(0.0487274 0.00355988 0)
(0.0473035 0.00355875 0)
(0.0458801 0.00355746 0)
(0.0444572 0.00355602 0)
(0.043035 0.00355444 0)
(0.0416135 0.00355276 0)
(0.0401926 0.00355097 0)
(0.0387725 0.0035491 0)
(0.0373532 0.00354717 0)
(0.0359347 0.00354519 0)
(0.034517 0.00354317 0)
(0.0331001 0.00354112 0)
(0.0316841 0.00353907 0)
(0.0302689 0.00353702 0)
(0.0288545 0.00353498 0)
(0.0274409 0.00353297 0)
(0.0260282 0.00353099 0)
(0.0246162 0.00352906 0)
(0.023205 0.00352718 0)
(0.0217946 0.00352537 0)
(0.0203849 0.00352363 0)
(0.0189758 0.00352198 0)
(0.0175674 0.00352041 0)
(0.0161597 0.00351893 0)
(0.0147525 0.00351756 0)
(0.0133458 0.00351629 0)
(0.0119397 0.00351514 0)
(0.0105339 0.0035141 0)
(0.00912859 0.00351318 0)
(0.0077236 0.00351239 0)
(0.0063189 0.00351173 0)
(0.00491445 0.00351119 0)
(0.00351019 0.00351079 0)
(0.00210606 0.00351052 0)
(0.00070201 0.00351039 0)
(0.000655526 -0.00458955 0)
(0.0019666 -0.00458974 0)
(0.00327777 -0.00459013 0)
(0.00458907 -0.00459071 0)
(0.00590057 -0.00459147 0)
(0.00721231 -0.00459243 0)
(0.00852436 -0.00459357 0)
(0.00983676 -0.00459489 0)
(0.0111496 -0.00459639 0)
(0.0124628 -0.00459807 0)
(0.0137766 -0.00459993 0)
(0.015091 -0.00460194 0)
(0.0164059 -0.00460412 0)
(0.0177215 -0.00460646 0)
(0.0190378 -0.00460895 0)
(0.0203548 -0.00461158 0)
(0.0216727 -0.00461434 0)
(0.0229913 -0.00461724 0)
(0.0243108 -0.00462025 0)
(0.0256312 -0.00462337 0)
(0.0269525 -0.0046266 0)
(0.0282747 -0.00462992 0)
(0.0295979 -0.00463331 0)
(0.0309222 -0.00463678 0)
(0.0322474 -0.00464031 0)
(0.0335736 -0.00464388 0)
(0.034901 -0.00464748 0)
(0.0362293 -0.0046511 0)
(0.0375587 -0.00465473 0)
(0.0388892 -0.00465834 0)
(0.0402207 -0.00466193 0)
(0.0415532 -0.00466547 0)
(0.0428868 -0.00466896 0)
(0.0442214 -0.00467236 0)
(0.045557 -0.00467568 0)
(0.0468935 -0.00467887 0)
(0.0482309 -0.00468193 0)
(0.0495693 -0.00468483 0)
(0.0509084 -0.00468756 0)
(0.0522484 -0.00469008 0)
(0.053589 -0.00469238 0)
(0.0549303 -0.00469443 0)
(0.0562722 -0.00469621 0)
(0.0576146 -0.0046977 0)
(0.0589574 -0.00469885 0)
(0.0603005 -0.00469966 0)
(0.0616438 -0.00470008 0)
(0.0629873 -0.00470009 0)
(0.0643307 -0.00469967 0)
(0.0656739 -0.00469877 0)
(0.0670169 -0.00469737 0)
(0.0683594 -0.00469544 0)
(0.0697014 -0.00469294 0)
(0.0710426 -0.00468984 0)
(0.0723828 -0.0046861 0)
(0.073722 -0.00468168 0)
(0.0750598 -0.00467656 0)
(0.0763961 -0.00467069 0)
(0.0777307 -0.00466403 0)
(0.0790633 -0.00465655 0)
(0.0803937 -0.0046482 0)
(0.0817216 -0.00463895 0)
(0.0830468 -0.00462875 0)
(0.084369 -0.00461756 0)
(0.0856879 -0.00460535 0)
(0.0870032 -0.00459206 0)
(0.0883146 -0.00457765 0)
(0.0896218 -0.00456209 0)
(0.0909245 -0.00454532 0)
(0.0922222 -0.0045273 0)
(0.0935146 -0.004508 0)
(0.0948014 -0.00448735 0)
(0.0960822 -0.00446533 0)
(0.0973565 -0.00444187 0)
(0.098624 -0.00441695 0)
(0.0998842 -0.00439052 0)
(0.101137 -0.00436252 0)
(0.102381 -0.00433292 0)
(0.103617 -0.00430168 0)
(0.104843 -0.00426876 0)
(0.10606 -0.0042341 0)
(0.107267 -0.00419768 0)
(0.108463 -0.00415944 0)
(0.109648 -0.00411936 0)
(0.110822 -0.0040774 0)
(0.111983 -0.00403352 0)
(0.113131 -0.00398768 0)
(0.114266 -0.00393986 0)
(0.115387 -0.00389003 0)
(0.116494 -0.00383815 0)
(0.117586 -0.0037842 0)
(0.118662 -0.00372816 0)
(0.119721 -0.00367 0)
(0.120764 -0.00360971 0)
(0.121789 -0.00354727 0)
(0.122796 -0.00348267 0)
(0.123784 -0.00341589 0)
(0.124753 -0.00334694 0)
(0.125702 -0.0032758 0)
(0.126631 -0.00320248 0)
(0.127538 -0.00312698 0)
(0.128423 -0.00304931 0)
(0.129285 -0.00296949 0)
(0.130125 -0.00288751 0)
(0.13094 -0.00280341 0)
(0.131732 -0.00271721 0)
(0.132498 -0.00262893 0)
(0.133239 -0.0025386 0)
(0.133954 -0.00244627 0)
(0.134642 -0.00235197 0)
(0.135302 -0.00225575 0)
(0.135935 -0.00215765 0)
(0.13654 -0.00205772 0)
(0.137115 -0.00195603 0)
(0.137662 -0.00185264 0)
(0.138178 -0.0017476 0)
(0.138664 -0.001641 0)
(0.139119 -0.00153289 0)
(0.139543 -0.00142337 0)
(0.139936 -0.0013125 0)
(0.140296 -0.00120038 0)
(0.140625 -0.00108709 0)
(0.14092 -0.000972714 0)
(0.141183 -0.000857356 0)
(0.141412 -0.000741107 0)
(0.141608 -0.000624066 0)
(0.141771 -0.000506332 0)
(0.141899 -0.00038801 0)
(0.141994 -0.000269201 0)
(0.142054 -0.000150013 0)
(0.14208 -3.05502e-05 0)
(0.142072 8.90786e-05 0)
(0.142029 0.000208766 0)
(0.141952 0.000328404 0)
(0.141841 0.000447885 0)
(0.141696 0.000567101 0)
(0.141516 0.000685946 0)
(0.141303 0.000804314 0)
(0.141055 0.000922099 0)
(0.140774 0.0010392 0)
(0.140459 0.00115552 0)
(0.140112 0.00127095 0)
(0.139731 0.0013854 0)
(0.139317 0.00149877 0)
(0.138872 0.00161098 0)
(0.138394 0.00172193 0)
(0.137884 0.00183154 0)
(0.137344 0.00193973 0)
(0.136772 0.00204643 0)
(0.136171 0.00215155 0)
(0.135539 0.00225502 0)
(0.134878 0.00235679 0)
(0.134188 0.00245679 0)
(0.133469 0.00255496 0)
(0.132723 0.00265124 0)
(0.13195 0.0027456 0)
(0.13115 0.00283797 0)
(0.130323 0.00292833 0)
(0.129471 0.00301664 0)
(0.128594 0.00310286 0)
(0.127693 0.00318696 0)
(0.126768 0.00326893 0)
(0.12582 0.00334873 0)
(0.124849 0.00342637 0)
(0.123857 0.00350182 0)
(0.122843 0.00357508 0)
(0.121808 0.00364614 0)
(0.120754 0.00371501 0)
(0.11968 0.00378168 0)
(0.118588 0.00384617 0)
(0.117477 0.00390848 0)
(0.116349 0.00396863 0)
(0.115204 0.00402663 0)
(0.114043 0.0040825 0)
(0.112866 0.00413626 0)
(0.111674 0.00418795 0)
(0.110468 0.00423757 0)
(0.109248 0.00428517 0)
(0.108015 0.00433078 0)
(0.106768 0.00437441 0)
(0.10551 0.00441612 0)
(0.10424 0.00445594 0)
(0.102959 0.0044939 0)
(0.101668 0.00453004 0)
(0.100367 0.0045644 0)
(0.0990556 0.00459703 0)
(0.0977356 0.00462797 0)
(0.096407 0.00465725 0)
(0.0950704 0.00468493 0)
(0.0937261 0.00471104 0)
(0.0923747 0.00473564 0)
(0.0910165 0.00475876 0)
(0.0896519 0.00478046 0)
(0.0882814 0.00480077 0)
(0.0869054 0.00481975 0)
(0.0855242 0.00483743 0)
(0.0841381 0.00485387 0)
(0.0827476 0.00486911 0)
(0.081353 0.00488319 0)
(0.0799545 0.00489616 0)
(0.0785526 0.00490807 0)
(0.0771474 0.00491895 0)
(0.0757394 0.00492886 0)
(0.0743287 0.00493782 0)
(0.0729156 0.0049459 0)
(0.0715004 0.00495312 0)
(0.0700833 0.00495954 0)
(0.0686645 0.00496518 0)
(0.0672442 0.00497009 0)
(0.0658227 0.00497431 0)
(0.0644002 0.00497788 0)
(0.0629767 0.00498083 0)
(0.0615526 0.0049832 0)
(0.0601279 0.00498503 0)
(0.0587028 0.00498635 0)
(0.0572774 0.0049872 0)
(0.0558519 0.0049876 0)
(0.0544263 0.00498759 0)
(0.0530009 0.00498721 0)
(0.0515756 0.00498648 0)
(0.0501507 0.00498543 0)
(0.0487261 0.00498409 0)
(0.047302 0.00498249 0)
(0.0458784 0.00498065 0)
(0.0444554 0.00497861 0)
(0.043033 0.00497638 0)
(0.0416114 0.004974 0)
(0.0401904 0.00497147 0)
(0.0387702 0.00496884 0)
(0.0373509 0.00496611 0)
(0.0359323 0.00496332 0)
(0.0345146 0.00496047 0)
(0.0330977 0.00495759 0)
(0.0316816 0.00495469 0)
(0.0302664 0.0049518 0)
(0.0288521 0.00494894 0)
(0.0274385 0.0049461 0)
(0.0260258 0.00494332 0)
(0.0246139 0.0049406 0)
(0.0232028 0.00493796 0)
(0.0217925 0.00493542 0)
(0.0203828 0.00493297 0)
(0.0189739 0.00493064 0)
(0.0175656 0.00492844 0)
(0.016158 0.00492636 0)
(0.0147509 0.00492443 0)
(0.0133444 0.00492265 0)
(0.0119383 0.00492103 0)
(0.0105327 0.00491957 0)
(0.00912756 0.00491828 0)
(0.00772272 0.00491717 0)
(0.00631818 0.00491624 0)
(0.00491389 0.00491548 0)
(0.00350978 0.00491492 0)
(0.00210581 0.00491454 0)
(0.000701929 0.00491436 0)
(0.000655414 -0.00590052 0)
(0.00196627 -0.00590077 0)
(0.00327721 -0.00590127 0)
(0.00458829 -0.00590201 0)
(0.00589957 -0.005903 0)
(0.0072111 -0.00590423 0)
(0.00852293 -0.0059057 0)
(0.00983513 -0.00590741 0)
(0.0111477 -0.00590935 0)
(0.0124608 -0.00591151 0)
(0.0137744 -0.0059139 0)
(0.0150885 -0.00591651 0)
(0.0164033 -0.00591932 0)
(0.0177187 -0.00592233 0)
(0.0190349 -0.00592554 0)
(0.0203517 -0.00592894 0)
(0.0216694 -0.0059325 0)
(0.0229879 -0.00593624 0)
(0.0243072 -0.00594013 0)
(0.0256275 -0.00594416 0)
(0.0269487 -0.00594833 0)
(0.0282708 -0.00595261 0)
(0.029594 -0.005957 0)
(0.0309181 -0.00596148 0)
(0.0322433 -0.00596603 0)
(0.0335695 -0.00597064 0)
(0.0348968 -0.0059753 0)
(0.0362251 -0.00597998 0)
(0.0375545 -0.00598466 0)
(0.038885 -0.00598934 0)
(0.0402165 -0.00599398 0)
(0.0415492 -0.00599857 0)
(0.0428828 -0.00600308 0)
(0.0442175 -0.00600749 0)
(0.0455532 -0.00601178 0)
(0.0468898 -0.00601592 0)
(0.0482275 -0.00601989 0)
(0.049566 -0.00602366 0)
(0.0509053 -0.0060272 0)
(0.0522455 -0.00603049 0)
(0.0535864 -0.00603349 0)
(0.054928 -0.00603617 0)
(0.0562702 -0.0060385 0)
(0.057613 -0.00604045 0)
(0.0589562 -0.00604198 0)
(0.0602997 -0.00604307 0)
(0.0616435 -0.00604366 0)
(0.0629874 -0.00604373 0)
(0.0643313 -0.00604324 0)
(0.0656751 -0.00604214 0)
(0.0670187 -0.0060404 0)
(0.0683619 -0.00603797 0)
(0.0697045 -0.00603481 0)
(0.0710464 -0.00603088 0)
(0.0723874 -0.00602613 0)
(0.0737273 -0.00602052 0)
(0.075066 -0.006014 0)
(0.0764032 -0.00600651 0)
(0.0777386 -0.00599802 0)
(0.0790722 -0.00598847 0)
(0.0804036 -0.00597781 0)
(0.0817326 -0.00596598 0)
(0.0830589 -0.00595294 0)
(0.0843822 -0.00593863 0)
(0.0857023 -0.005923 0)
(0.0870189 -0.00590599 0)
(0.0883316 -0.00588754 0)
(0.0896402 -0.0058676 0)
(0.0909442 -0.00584612 0)
(0.0922434 -0.00582303 0)
(0.0935373 -0.00579829 0)
(0.0948257 -0.00577182 0)
(0.096108 -0.00574358 0)
(0.097384 -0.0057135 0)
(0.0986532 -0.00568153 0)
(0.0999151 -0.00564762 0)
(0.101169 -0.0056117 0)
(0.102416 -0.00557372 0)
(0.103653 -0.00553363 0)
(0.104882 -0.00549136 0)
(0.106101 -0.00544687 0)
(0.107309 -0.00540011 0)
(0.108508 -0.00535102 0)
(0.109695 -0.00529955 0)
(0.110871 -0.00524566 0)
(0.112034 -0.0051893 0)
(0.113185 -0.00513042 0)
(0.114322 -0.00506899 0)
(0.115445 -0.00500497 0)
(0.116554 -0.00493831 0)
(0.117648 -0.00486899 0)
(0.118727 -0.00479697 0)
(0.119789 -0.00472223 0)
(0.120834 -0.00464474 0)
(0.121862 -0.00456448 0)
(0.122871 -0.00448144 0)
(0.123862 -0.0043956 0)
(0.124833 -0.00430695 0)
(0.125785 -0.00421548 0)
(0.126716 -0.00412121 0)
(0.127625 -0.00402413 0)
(0.128513 -0.00392425 0)
(0.129378 -0.00382158 0)
(0.13022 -0.00371616 0)
(0.131038 -0.00360799 0)
(0.131831 -0.00349711 0)
(0.1326 -0.00338355 0)
(0.133343 -0.00326736 0)
(0.13406 -0.00314858 0)
(0.134751 -0.00302726 0)
(0.135413 -0.00290346 0)
(0.136048 -0.00277724 0)
(0.136655 -0.00264867 0)
(0.137233 -0.00251782 0)
(0.137781 -0.00238477 0)
(0.138299 -0.00224961 0)
(0.138787 -0.00211242 0)
(0.139244 -0.0019733 0)
(0.139669 -0.00183234 0)
(0.140063 -0.00168966 0)
(0.140425 -0.00154535 0)
(0.140755 -0.00139953 0)
(0.141052 -0.00125232 0)
(0.141315 -0.00110384 0)
(0.141546 -0.00095421 0)
(0.141743 -0.000803557 0)
(0.141906 -0.00065201 0)
(0.142035 -0.000499703 0)