/*--------------------------------*- C++ -*----------------------------------*\
| =========                 |                                                 |
| \\      /  F ield         | OpenFOAM: The Open Source CFD Toolbox           |
|  \\    /   O peration     | Version:  v2012                                 |
|   \\  /    A nd           | Website:  www.openfoam.com                      |
|    \\/     M anipulation  |                                                 |
\*---------------------------------------------------------------------------*/
FoamFile
{
    version     2.0;
    format      ascii;
    class       volVectorField;
    location    "5.5";
    object      Psi;
}
// * * * * * * * * * * * * * * * * * * * * * * * * * * * * * * * * * * * * * //

dimensions      [0 2 -1 0 0 0 0];


internalField   nonuniform List<vector> 
65536
(
(0 0 9.13011e-06)
(0 0 2.73899e-05)
(0 0 4.56487e-05)
(0 0 6.39058e-05)
(0 0 8.21604e-05)
(0 0 0.000100412)
(0 0 0.00011866)
(0 0 0.000136903)
(0 0 0.000155141)
(0 0 0.000173372)
(0 0 0.000191597)
(0 0 0.000209814)
(0 0 0.000228022)
(0 0 0.000246221)
(0 0 0.000264409)
(0 0 0.000282586)
(0 0 0.00030075)
(0 0 0.0003189)
(0 0 0.000337035)
(0 0 0.000355154)
(0 0 0.000373255)
(0 0 0.000391338)
(0 0 0.0004094)
(0 0 0.000427441)
(0 0 0.000445459)
(0 0 0.000463451)
(0 0 0.000481417)
(0 0 0.000499354)
(0 0 0.000517262)
(0 0 0.000535136)
(0 0 0.000552977)
(0 0 0.000570781)
(0 0 0.000588547)
(0 0 0.000606271)
(0 0 0.000623952)
(0 0 0.000641587)
(0 0 0.000659174)
(0 0 0.00067671)
(0 0 0.000694191)
(0 0 0.000711616)
(0 0 0.000728981)
(0 0 0.000746282)
(0 0 0.000763518)
(0 0 0.000780684)
(0 0 0.000797778)
(0 0 0.000814795)
(0 0 0.000831732)
(0 0 0.000848586)
(0 0 0.000865353)
(0 0 0.000882028)
(0 0 0.000898608)
(0 0 0.000915089)
(0 0 0.000931466)
(0 0 0.000947736)
(0 0 0.000963894)
(0 0 0.000979936)
(0 0 0.000995857)
(0 0 0.00101165)
(0 0 0.00102732)
(0 0 0.00104285)
(0 0 0.00105824)
(0 0 0.00107349)
(0 0 0.00108859)
(0 0 0.00110354)
(0 0 0.00111832)
(0 0 0.00113295)
(0 0 0.0011474)
(0 0 0.00116168)
(0 0 0.00117579)
(0 0 0.00118971)
(0 0 0.00120344)
(0 0 0.00121697)
(0 0 0.00123031)
(0 0 0.00124345)
(0 0 0.00125637)
(0 0 0.00126908)
(0 0 0.00128158)
(0 0 0.00129385)
(0 0 0.00130589)
(0 0 0.0013177)
(0 0 0.00132927)
(0 0 0.0013406)
(0 0 0.00135168)
(0 0 0.00136251)
(0 0 0.00137309)
(0 0 0.0013834)
(0 0 0.00139345)
(0 0 0.00140324)
(0 0 0.00141275)
(0 0 0.00142198)
(0 0 0.00143094)
(0 0 0.00143961)
(0 0 0.001448)
(0 0 0.0014561)
(0 0 0.0014639)
(0 0 0.00147141)
(0 0 0.00147862)
(0 0 0.00148554)
(0 0 0.00149214)
(0 0 0.00149845)
(0 0 0.00150444)
(0 0 0.00151013)
(0 0 0.00151551)
(0 0 0.00152057)
(0 0 0.00152532)
(0 0 0.00152976)
(0 0 0.00153388)
(0 0 0.00153769)
(0 0 0.00154118)
(0 0 0.00154435)
(0 0 0.00154721)
(0 0 0.00154975)
(0 0 0.00155197)
(0 0 0.00155388)
(0 0 0.00155547)
(0 0 0.00155674)
(0 0 0.0015577)
(0 0 0.00155835)
(0 0 0.00155869)
(0 0 0.00155872)
(0 0 0.00155844)
(0 0 0.00155785)
(0 0 0.00155696)
(0 0 0.00155577)
(0 0 0.00155428)
(0 0 0.00155249)
(0 0 0.0015504)
(0 0 0.00154802)
(0 0 0.00154535)
(0 0 0.0015424)
(0 0 0.00153916)
(0 0 0.00153564)
(0 0 0.00153184)
(0 0 0.00152777)
(0 0 0.00152342)
(0 0 0.00151881)
(0 0 0.00151394)
(0 0 0.0015088)
(0 0 0.00150341)
(0 0 0.00149776)
(0 0 0.00149187)
(0 0 0.00148573)
(0 0 0.00147935)
(0 0 0.00147273)
(0 0 0.00146588)
(0 0 0.00145879)
(0 0 0.00145148)
(0 0 0.00144395)
(0 0 0.00143621)
(0 0 0.00142825)
(0 0 0.00142008)
(0 0 0.0014117)
(0 0 0.00140312)
(0 0 0.00139435)
(0 0 0.00138538)
(0 0 0.00137622)
(0 0 0.00136688)
(0 0 0.00135735)
(0 0 0.00134765)
(0 0 0.00133777)
(0 0 0.00132773)
(0 0 0.00131752)
(0 0 0.00130715)
(0 0 0.00129661)
(0 0 0.00128593)
(0 0 0.00127509)
(0 0 0.00126411)
(0 0 0.00125298)
(0 0 0.00124172)
(0 0 0.00123031)
(0 0 0.00121878)
(0 0 0.00120711)
(0 0 0.00119532)
(0 0 0.00118341)
(0 0 0.00117138)
(0 0 0.00115923)
(0 0 0.00114697)
(0 0 0.0011346)
(0 0 0.00112212)
(0 0 0.00110954)
(0 0 0.00109686)
(0 0 0.00108408)
(0 0 0.00107121)
(0 0 0.00105825)
(0 0 0.00104519)
(0 0 0.00103205)
(0 0 0.00101883)
(0 0 0.00100552)
(0 0 0.000992142)
(0 0 0.000978683)
(0 0 0.00096515)
(0 0 0.000951547)
(0 0 0.000937874)
(0 0 0.000924136)
(0 0 0.000910332)
(0 0 0.000896467)
(0 0 0.000882542)
(0 0 0.000868559)
(0 0 0.000854521)
(0 0 0.000840428)
(0 0 0.000826284)
(0 0 0.00081209)
(0 0 0.000797848)
(0 0 0.000783559)
(0 0 0.000769226)
(0 0 0.00075485)
(0 0 0.000740433)
(0 0 0.000725976)
(0 0 0.000711481)
(0 0 0.00069695)
(0 0 0.000682383)
(0 0 0.000667783)
(0 0 0.000653151)
(0 0 0.000638488)
(0 0 0.000623795)
(0 0 0.000609074)
(0 0 0.000594326)
(0 0 0.000579552)
(0 0 0.000564754)
(0 0 0.000549932)
(0 0 0.000535087)
(0 0 0.000520221)
(0 0 0.000505335)
(0 0 0.000490429)
(0 0 0.000475504)
(0 0 0.000460562)
(0 0 0.000445604)
(0 0 0.000430629)
(0 0 0.000415639)
(0 0 0.000400635)
(0 0 0.000385618)
(0 0 0.000370588)
(0 0 0.000355546)
(0 0 0.000340492)
(0 0 0.000325428)
(0 0 0.000310354)
(0 0 0.00029527)
(0 0 0.000280178)
(0 0 0.000265077)
(0 0 0.000249969)
(0 0 0.000234853)
(0 0 0.000219731)
(0 0 0.000204603)
(0 0 0.000189469)
(0 0 0.00017433)
(0 0 0.000159186)
(0 0 0.000144038)
(0 0 0.000128886)
(0 0 0.000113731)
(0 0 9.85727e-05)
(0 0 8.34119e-05)
(0 0 6.8249e-05)
(0 0 5.30844e-05)
(0 0 3.79184e-05)
(0 0 2.27514e-05)
(0 0 7.58387e-06)
(0 0 2.73905e-05)
(0 0 8.21705e-05)
(0 0 0.000136947)
(0 0 0.000191719)
(0 0 0.000246484)
(0 0 0.000301239)
(0 0 0.000355983)
(0 0 0.000410713)
(0 0 0.000465427)
(0 0 0.000520123)
(0 0 0.000574798)
(0 0 0.00062945)
(0 0 0.000684076)
(0 0 0.000738673)
(0 0 0.000793238)
(0 0 0.000847768)
(0 0 0.000902261)
(0 0 0.000956712)
(0 0 0.00101112)
(0 0 0.00106548)
(0 0 0.00111978)
(0 0 0.00117403)
(0 0 0.00122822)
(0 0 0.00128234)
(0 0 0.0013364)
(0 0 0.00139038)
(0 0 0.00144428)
(0 0 0.00149809)
(0 0 0.00155181)
(0 0 0.00160544)
(0 0 0.00165897)
(0 0 0.00171238)
(0 0 0.00176568)
(0 0 0.00181885)
(0 0 0.0018719)
(0 0 0.00192481)
(0 0 0.00197757)
(0 0 0.00203018)
(0 0 0.00208263)
(0 0 0.0021349)
(0 0 0.002187)
(0 0 0.00223891)
(0 0 0.00229062)
(0 0 0.00234212)
(0 0 0.00239341)
(0 0 0.00244446)
(0 0 0.00249528)
(0 0 0.00254584)
(0 0 0.00259614)
(0 0 0.00264617)
(0 0 0.00269592)
(0 0 0.00274537)
(0 0 0.0027945)
(0 0 0.00284332)
(0 0 0.00289179)
(0 0 0.00293992)
(0 0 0.00298769)
(0 0 0.00303508)
(0 0 0.00308209)
(0 0 0.00312869)
(0 0 0.00317487)
(0 0 0.00322062)
(0 0 0.00326592)
(0 0 0.00331076)
(0 0 0.00335513)
(0 0 0.00339901)
(0 0 0.00344238)
(0 0 0.00348523)
(0 0 0.00352754)
(0 0 0.0035693)
(0 0 0.0036105)
(0 0 0.00365111)
(0 0 0.00369113)
(0 0 0.00373054)
(0 0 0.00376932)
(0 0 0.00380747)
(0 0 0.00384495)
(0 0 0.00388177)
(0 0 0.0039179)
(0 0 0.00395333)
(0 0 0.00398805)
(0 0 0.00402204)
(0 0 0.00405529)
(0 0 0.00408779)
(0 0 0.00411951)
(0 0 0.00415046)
(0 0 0.00418062)
(0 0 0.00420997)
(0 0 0.00423851)
(0 0 0.00426622)
(0 0 0.00429309)
(0 0 0.00431912)
(0 0 0.00434428)
(0 0 0.00436858)
(0 0 0.004392)
(0 0 0.00441453)
(0 0 0.00443617)
(0 0 0.0044569)
(0 0 0.00447673)
(0 0 0.00449564)
(0 0 0.00451364)
(0 0 0.0045307)
(0 0 0.00454683)
(0 0 0.00456203)
(0 0 0.00457628)
(0 0 0.00458959)
(0 0 0.00460196)
(0 0 0.00461338)
(0 0 0.00462385)
(0 0 0.00463337)
(0 0 0.00464193)
(0 0 0.00464955)
(0 0 0.00465622)
(0 0 0.00466194)
(0 0 0.00466671)
(0 0 0.00467053)
(0 0 0.00467342)
(0 0 0.00467537)
(0 0 0.00467638)
(0 0 0.00467646)
(0 0 0.00467562)
(0 0 0.00467386)
(0 0 0.00467119)
(0 0 0.00466761)
(0 0 0.00466312)
(0 0 0.00465775)
(0 0 0.00465149)
(0 0 0.00464435)
(0 0 0.00463634)
(0 0 0.00462747)
(0 0 0.00461775)
(0 0 0.00460718)
(0 0 0.00459579)
(0 0 0.00458356)
(0 0 0.00457053)
(0 0 0.00455669)
(0 0 0.00454206)
(0 0 0.00452665)
(0 0 0.00451047)
(0 0 0.00449353)
(0 0 0.00447585)
(0 0 0.00445742)
(0 0 0.00443827)
(0 0 0.00441841)
(0 0 0.00439785)
(0 0 0.0043766)
(0 0 0.00435467)
(0 0 0.00433208)
(0 0 0.00430883)
(0 0 0.00428495)
(0 0 0.00426043)
(0 0 0.0042353)
(0 0 0.00420956)
(0 0 0.00418323)
(0 0 0.00415632)
(0 0 0.00412884)
(0 0 0.00410081)
(0 0 0.00407223)
(0 0 0.00404312)
(0 0 0.00401349)
(0 0 0.00398335)
(0 0 0.00395271)
(0 0 0.00392159)
(0 0 0.00388999)
(0 0 0.00385793)
(0 0 0.00382542)
(0 0 0.00379247)
(0 0 0.00375908)
(0 0 0.00372528)
(0 0 0.00369107)
(0 0 0.00365646)
(0 0 0.00362147)
(0 0 0.00358609)
(0 0 0.00355035)
(0 0 0.00351425)
(0 0 0.0034778)
(0 0 0.00344102)
(0 0 0.0034039)
(0 0 0.00336647)
(0 0 0.00332873)
(0 0 0.00329068)
(0 0 0.00325235)
(0 0 0.00321372)
(0 0 0.00317483)
(0 0 0.00313566)
(0 0 0.00309624)
(0 0 0.00305657)
(0 0 0.00301665)
(0 0 0.0029765)
(0 0 0.00293612)
(0 0 0.00289552)
(0 0 0.00285471)
(0 0 0.00281369)
(0 0 0.00277247)
(0 0 0.00273106)
(0 0 0.00268946)
(0 0 0.00264768)
(0 0 0.00260573)
(0 0 0.00256362)
(0 0 0.00252134)
(0 0 0.0024789)
(0 0 0.00243632)
(0 0 0.00239359)
(0 0 0.00235072)
(0 0 0.00230772)
(0 0 0.00226459)
(0 0 0.00222134)
(0 0 0.00217797)
(0 0 0.00213448)
(0 0 0.00209088)
(0 0 0.00204718)
(0 0 0.00200338)
(0 0 0.00195948)
(0 0 0.00191549)
(0 0 0.00187141)
(0 0 0.00182725)
(0 0 0.001783)
(0 0 0.00173868)
(0 0 0.00169429)
(0 0 0.00164982)
(0 0 0.00160528)
(0 0 0.00156068)
(0 0 0.00151602)
(0 0 0.00147131)
(0 0 0.00142653)
(0 0 0.0013817)
(0 0 0.00133683)
(0 0 0.0012919)
(0 0 0.00124693)
(0 0 0.00120192)
(0 0 0.00115687)
(0 0 0.00111178)
(0 0 0.00106665)
(0 0 0.00102149)
(0 0 0.000976295)
(0 0 0.000931072)
(0 0 0.00088582)
(0 0 0.000840542)
(0 0 0.00079524)
(0 0 0.000749914)
(0 0 0.000704567)
(0 0 0.0006592)
(0 0 0.000613814)
(0 0 0.000568412)
(0 0 0.000522994)
(0 0 0.000477563)
(0 0 0.000432118)
(0 0 0.000386662)
(0 0 0.000341196)
(0 0 0.000295721)
(0 0 0.000250238)
(0 0 0.000204749)
(0 0 0.000159255)
(0 0 0.000113756)
(0 0 6.82548e-05)
(0 0 2.27518e-05)
(0 0 4.5652e-05)
(0 0 0.000136954)
(0 0 0.000228251)
(0 0 0.00031954)
(0 0 0.000410817)
(0 0 0.000502078)
(0 0 0.00059332)
(0 0 0.00068454)
(0 0 0.000775733)
(0 0 0.000866895)
(0 0 0.000958023)
(0 0 0.00104911)
(0 0 0.00114016)
(0 0 0.00123116)
(0 0 0.0013221)
(0 0 0.00141299)
(0 0 0.00150381)
(0 0 0.00159457)
(0 0 0.00168525)
(0 0 0.00177585)
(0 0 0.00186637)
(0 0 0.00195679)
(0 0 0.00204711)
(0 0 0.00213732)
(0 0 0.00222741)
(0 0 0.00231738)
(0 0 0.00240722)
(0 0 0.00249692)
(0 0 0.00258646)
(0 0 0.00267585)
(0 0 0.00276506)
(0 0 0.00285409)
(0 0 0.00294293)
(0 0 0.00303157)
(0 0 0.00311999)
(0 0 0.00320817)
(0 0 0.00329612)
(0 0 0.00338381)
(0 0 0.00347123)
(0 0 0.00355837)
(0 0 0.00364521)
(0 0 0.00373174)
(0 0 0.00381793)
(0 0 0.00390378)
(0 0 0.00398926)
(0 0 0.00407437)
(0 0 0.00415907)
(0 0 0.00424336)
(0 0 0.00432721)
(0 0 0.00441061)
(0 0 0.00449353)
(0 0 0.00457595)
(0 0 0.00465786)
(0 0 0.00473923)
(0 0 0.00482004)
(0 0 0.00490028)
(0 0 0.0049799)
(0 0 0.00505891)
(0 0 0.00513726)
(0 0 0.00521494)
(0 0 0.00529193)
(0 0 0.00536819)
(0 0 0.00544371)
(0 0 0.00551847)
(0 0 0.00559243)
(0 0 0.00566557)
(0 0 0.00573787)
(0 0 0.0058093)
(0 0 0.00587984)
(0 0 0.00594946)
(0 0 0.00601814)
(0 0 0.00608585)
(0 0 0.00615257)
(0 0 0.00621827)
(0 0 0.00628292)
(0 0 0.0063465)
(0 0 0.006409)
(0 0 0.00647037)
(0 0 0.0065306)
(0 0 0.00658967)
(0 0 0.00664755)
(0 0 0.00670422)
(0 0 0.00675965)
(0 0 0.00681383)
(0 0 0.00686672)
(0 0 0.00691832)
(0 0 0.0069686)
(0 0 0.00701753)
(0 0 0.00706511)
(0 0 0.0071113)
(0 0 0.0071561)
(0 0 0.00719948)
(0 0 0.00724143)
(0 0 0.00728194)
(0 0 0.00732098)
(0 0 0.00735854)
(0 0 0.00739461)
(0 0 0.00742918)
(0 0 0.00746224)
(0 0 0.00749376)
(0 0 0.00752375)
(0 0 0.0075522)
(0 0 0.00757909)
(0 0 0.00760442)
(0 0 0.00762818)
(0 0 0.00765037)
(0 0 0.00767099)
(0 0 0.00769002)
(0 0 0.00770747)
(0 0 0.00772333)
(0 0 0.00773761)
(0 0 0.00775031)
(0 0 0.00776142)
(0 0 0.00777094)
(0 0 0.00777889)
(0 0 0.00778527)
(0 0 0.00779007)
(0 0 0.00779331)
(0 0 0.007795)
(0 0 0.00779513)
(0 0 0.00779372)
(0 0 0.00779078)
(0 0 0.00778632)
(0 0 0.00778034)
(0 0 0.00777286)
(0 0 0.0077639)
(0 0 0.00775345)
(0 0 0.00774154)
(0 0 0.00772819)
(0 0 0.00771339)
(0 0 0.00769718)
(0 0 0.00767956)
(0 0 0.00766056)
(0 0 0.00764018)
(0 0 0.00761844)
(0 0 0.00759537)
(0 0 0.00757097)
(0 0 0.00754528)
(0 0 0.0075183)
(0 0 0.00749005)
(0 0 0.00746056)
(0 0 0.00742984)
(0 0 0.00739792)
(0 0 0.0073648)
(0 0 0.00733052)
(0 0 0.00729509)
(0 0 0.00725853)
(0 0 0.00722086)
(0 0 0.0071821)
(0 0 0.00714227)
(0 0 0.0071014)
(0 0 0.0070595)
(0 0 0.00701659)
(0 0 0.0069727)
(0 0 0.00692783)
(0 0 0.00688203)
(0 0 0.00683529)
(0 0 0.00678765)
(0 0 0.00673912)
(0 0 0.00668972)
(0 0 0.00663947)
(0 0 0.0065884)
(0 0 0.00653651)
(0 0 0.00648384)
(0 0 0.00643039)
(0 0 0.00637619)
(0 0 0.00632126)
(0 0 0.00626561)
(0 0 0.00620926)
(0 0 0.00615223)
(0 0 0.00609453)
(0 0 0.00603619)
(0 0 0.00597723)
(0 0 0.00591765)
(0 0 0.00585747)
(0 0 0.00579671)
(0 0 0.00573539)
(0 0 0.00567353)
(0 0 0.00561113)
(0 0 0.00554821)
(0 0 0.0054848)
(0 0 0.00542089)
(0 0 0.00535651)
(0 0 0.00529168)
(0 0 0.0052264)
(0 0 0.00516068)
(0 0 0.00509455)
(0 0 0.00502802)
(0 0 0.00496109)
(0 0 0.00489378)
(0 0 0.00482611)
(0 0 0.00475808)
(0 0 0.0046897)
(0 0 0.004621)
(0 0 0.00455197)
(0 0 0.00448264)
(0 0 0.004413)
(0 0 0.00434308)
(0 0 0.00427287)
(0 0 0.0042024)
(0 0 0.00413167)
(0 0 0.00406069)
(0 0 0.00398947)
(0 0 0.00391802)
(0 0 0.00384634)
(0 0 0.00377446)
(0 0 0.00370236)
(0 0 0.00363007)
(0 0 0.00355759)
(0 0 0.00348492)
(0 0 0.00341208)
(0 0 0.00333908)
(0 0 0.00326591)
(0 0 0.00319259)
(0 0 0.00311912)
(0 0 0.00304551)
(0 0 0.00297176)
(0 0 0.00289789)
(0 0 0.00282389)
(0 0 0.00274977)
(0 0 0.00267554)
(0 0 0.00260121)
(0 0 0.00252677)
(0 0 0.00245224)
(0 0 0.00237761)
(0 0 0.0023029)
(0 0 0.0022281)
(0 0 0.00215322)
(0 0 0.00207827)
(0 0 0.00200325)
(0 0 0.00192815)
(0 0 0.001853)
(0 0 0.00177779)
(0 0 0.00170252)
(0 0 0.00162719)
(0 0 0.00155182)
(0 0 0.0014764)
(0 0 0.00140093)
(0 0 0.00132543)
(0 0 0.00124988)
(0 0 0.0011743)
(0 0 0.00109869)
(0 0 0.00102304)
(0 0 0.000947371)
(0 0 0.000871673)
(0 0 0.000795952)
(0 0 0.000720209)
(0 0 0.000644448)
(0 0 0.00056867)
(0 0 0.000492876)
(0 0 0.000417071)
(0 0 0.000341254)
(0 0 0.000265429)
(0 0 0.000189597)
(0 0 0.00011376)
(0 0 3.79203e-05)
(0 0 6.39151e-05)
(0 0 0.000191743)
(0 0 0.000319564)
(0 0 0.000447373)
(0 0 0.000575165)
(0 0 0.000702936)
(0 0 0.00083068)
(0 0 0.000958393)
(0 0 0.00108607)
(0 0 0.0012137)
(0 0 0.00134129)
(0 0 0.00146882)
(0 0 0.00159629)
(0 0 0.00172369)
(0 0 0.00185102)
(0 0 0.00197827)
(0 0 0.00210544)
(0 0 0.0022325)
(0 0 0.00235947)
(0 0 0.00248632)
(0 0 0.00261305)
(0 0 0.00273964)
(0 0 0.0028661)
(0 0 0.00299241)
(0 0 0.00311855)
(0 0 0.00324452)
(0 0 0.00337031)
(0 0 0.0034959)
(0 0 0.00362128)
(0 0 0.00374643)
(0 0 0.00387134)
(0 0 0.003996)
(0 0 0.00412039)
(0 0 0.0042445)
(0 0 0.0043683)
(0 0 0.00449178)
(0 0 0.00461493)
(0 0 0.00473771)
(0 0 0.00486013)
(0 0 0.00498214)
(0 0 0.00510374)
(0 0 0.00522489)
(0 0 0.00534559)
(0 0 0.0054658)
(0 0 0.0055855)
(0 0 0.00570467)
(0 0 0.00582329)
(0 0 0.00594132)
(0 0 0.00605873)
(0 0 0.00617552)
(0 0 0.00629163)
(0 0 0.00640706)
(0 0 0.00652176)
(0 0 0.00663571)
(0 0 0.00674888)
(0 0 0.00686123)
(0 0 0.00697274)
(0 0 0.00708338)
(0 0 0.00719311)
(0 0 0.00730189)
(0 0 0.00740971)
(0 0 0.00751651)
(0 0 0.00762228)
(0 0 0.00772697)
(0 0 0.00783055)
(0 0 0.00793298)
(0 0 0.00803424)
(0 0 0.00813428)
(0 0 0.00823307)
(0 0 0.00833057)
(0 0 0.00842676)
(0 0 0.00852159)
(0 0 0.00861502)
(0 0 0.00870703)
(0 0 0.00879758)
(0 0 0.00888664)
(0 0 0.00897416)
(0 0 0.00906012)
(0 0 0.00914448)
(0 0 0.00922721)
(0 0 0.00930827)
(0 0 0.00938764)
(0 0 0.00946527)
(0 0 0.00954115)
(0 0 0.00961523)
(0 0 0.0096875)
(0 0 0.00975791)
(0 0 0.00982645)
(0 0 0.00989308)
(0 0 0.00995778)
(0 0 0.0100205)
(0 0 0.0100813)
(0 0 0.01014)
(0 0 0.0101968)
(0 0 0.0102514)
(0 0 0.010304)
(0 0 0.0103546)
(0 0 0.010403)
(0 0 0.0104493)
(0 0 0.0104934)
(0 0 0.0105354)
(0 0 0.0105753)
(0 0 0.0106129)
(0 0 0.0106484)
(0 0 0.0106817)
(0 0 0.0107127)
(0 0 0.0107416)
(0 0 0.0107682)
(0 0 0.0107927)
(0 0 0.0108149)
(0 0 0.0108349)
(0 0 0.0108526)
(0 0 0.0108682)
(0 0 0.0108815)
(0 0 0.0108927)
(0 0 0.0109016)
(0 0 0.0109083)
(0 0 0.0109128)
(0 0 0.0109152)
(0 0 0.0109153)
(0 0 0.0109134)
(0 0 0.0109092)
(0 0 0.010903)
(0 0 0.0108946)
(0 0 0.0108841)
(0 0 0.0108715)
(0 0 0.0108569)
(0 0 0.0108402)
(0 0 0.0108215)
(0 0 0.0108007)
(0 0 0.010778)
(0 0 0.0107533)
(0 0 0.0107267)
(0 0 0.0106981)
(0 0 0.0106677)
(0 0 0.0106354)
(0 0 0.0106012)
(0 0 0.0105652)
(0 0 0.0105274)
(0 0 0.0104878)
(0 0 0.0104465)
(0 0 0.0104035)
(0 0 0.0103587)
(0 0 0.0103124)
(0 0 0.0102643)
(0 0 0.0102147)
(0 0 0.0101635)
(0 0 0.0101107)
(0 0 0.0100564)
(0 0 0.0100007)
(0 0 0.0099434)
(0 0 0.00988471)
(0 0 0.00982461)
(0 0 0.00976313)
(0 0 0.00970029)
(0 0 0.00963613)
(0 0 0.00957068)
(0 0 0.00950395)
(0 0 0.00943598)
(0 0 0.00936679)
(0 0 0.00929642)
(0 0 0.00922489)
(0 0 0.00915223)
(0 0 0.00907845)
(0 0 0.0090036)
(0 0 0.0089277)
(0 0 0.00885076)
(0 0 0.00877283)
(0 0 0.00869391)
(0 0 0.00861405)
(0 0 0.00853325)
(0 0 0.00845155)
(0 0 0.00836897)
(0 0 0.00828554)
(0 0 0.00820127)
(0 0 0.00811619)
(0 0 0.00803032)
(0 0 0.00794368)
(0 0 0.0078563)
(0 0 0.0077682)
(0 0 0.0076794)
(0 0 0.00758991)
(0 0 0.00749976)
(0 0 0.00740897)
(0 0 0.00731756)
(0 0 0.00722554)
(0 0 0.00713294)
(0 0 0.00703977)
(0 0 0.00694606)
(0 0 0.00685181)
(0 0 0.00675705)
(0 0 0.00666179)
(0 0 0.00656605)
(0 0 0.00646985)
(0 0 0.0063732)
(0 0 0.00627611)
(0 0 0.00617861)
(0 0 0.0060807)
(0 0 0.0059824)
(0 0 0.00588373)
(0 0 0.00578469)
(0 0 0.0056853)
(0 0 0.00558558)
(0 0 0.00548554)
(0 0 0.00538518)
(0 0 0.00528453)
(0 0 0.00518358)
(0 0 0.00508236)
(0 0 0.00498088)
(0 0 0.00487914)
(0 0 0.00477715)
(0 0 0.00467493)
(0 0 0.00457249)
(0 0 0.00446983)
(0 0 0.00436696)
(0 0 0.0042639)
(0 0 0.00416065)
(0 0 0.00405721)
(0 0 0.00395361)
(0 0 0.00384984)
(0 0 0.00374591)
(0 0 0.00364184)
(0 0 0.00353762)
(0 0 0.00343326)
(0 0 0.00332878)
(0 0 0.00322417)
(0 0 0.00311945)
(0 0 0.00301461)
(0 0 0.00290968)
(0 0 0.00280464)
(0 0 0.00269951)
(0 0 0.00259429)
(0 0 0.00248898)
(0 0 0.0023836)
(0 0 0.00227814)
(0 0 0.00217261)
(0 0 0.00206702)
(0 0 0.00196136)
(0 0 0.00185565)
(0 0 0.00174988)
(0 0 0.00164407)
(0 0 0.0015382)
(0 0 0.0014323)
(0 0 0.00132636)
(0 0 0.00122038)
(0 0 0.00111436)
(0 0 0.00100832)
(0 0 0.000902251)
(0 0 0.000796158)
(0 0 0.000690045)
(0 0 0.000583914)
(0 0 0.000477768)
(0 0 0.00037161)
(0 0 0.000265442)
(0 0 0.000159268)
(0 0 5.30898e-05)
(0 0 8.21807e-05)
(0 0 0.000246539)
(0 0 0.000410888)
(0 0 0.000575222)
(0 0 0.000739535)
(0 0 0.000903821)
(0 0 0.00106807)
(0 0 0.00123228)
(0 0 0.00139645)
(0 0 0.00156056)
(0 0 0.00172461)
(0 0 0.00188858)
(0 0 0.00205249)
(0 0 0.0022163)
(0 0 0.00238003)
(0 0 0.00254365)
(0 0 0.00270715)
(0 0 0.00287054)
(0 0 0.00303379)
(0 0 0.0031969)
(0 0 0.00335986)
(0 0 0.00352264)
(0 0 0.00368525)
(0 0 0.00384766)
(0 0 0.00400987)
(0 0 0.00417185)
(0 0 0.0043336)
(0 0 0.00449509)
(0 0 0.00465631)
(0 0 0.00481725)
(0 0 0.00497788)
(0 0 0.00513818)
(0 0 0.00529814)
(0 0 0.00545773)
(0 0 0.00561694)
(0 0 0.00577573)
(0 0 0.00593409)
(0 0 0.006092)
(0 0 0.00624942)
(0 0 0.00640633)
(0 0 0.0065627)
(0 0 0.00671852)
(0 0 0.00687374)
(0 0 0.00702833)
(0 0 0.00718228)
(0 0 0.00733554)
(0 0 0.00748809)
(0 0 0.00763988)
(0 0 0.0077909)
(0 0 0.00794109)
(0 0 0.00809043)
(0 0 0.00823889)
(0 0 0.00838641)
(0 0 0.00853297)
(0 0 0.00867852)
(0 0 0.00882303)
(0 0 0.00896646)
(0 0 0.00910876)
(0 0 0.0092499)
(0 0 0.00938982)
(0 0 0.0095285)
(0 0 0.00966588)
(0 0 0.00980192)
(0 0 0.00993658)
(0 0 0.0100698)
(0 0 0.0102016)
(0 0 0.0103318)
(0 0 0.0104605)
(0 0 0.0105876)
(0 0 0.010713)
(0 0 0.0108367)
(0 0 0.0109587)
(0 0 0.0110789)
(0 0 0.0111973)
(0 0 0.0113137)
(0 0 0.0114283)
(0 0 0.0115409)
(0 0 0.0116515)
(0 0 0.01176)
(0 0 0.0118664)
(0 0 0.0119707)
(0 0 0.0120728)
(0 0 0.0121727)
(0 0 0.0122703)
(0 0 0.0123656)
(0 0 0.0124585)
(0 0 0.0125491)
(0 0 0.0126373)
(0 0 0.012723)
(0 0 0.0128062)
(0 0 0.0128869)
(0 0 0.0129651)
(0 0 0.0130407)
(0 0 0.0131136)
(0 0 0.013184)
(0 0 0.0132516)
(0 0 0.0133166)
(0 0 0.0133789)
(0 0 0.0134384)
(0 0 0.0134952)
(0 0 0.0135493)
(0 0 0.0136005)
(0 0 0.0136489)
(0 0 0.0136945)
(0 0 0.0137373)
(0 0 0.0137773)
(0 0 0.0138144)
(0 0 0.0138487)
(0 0 0.0138801)
(0 0 0.0139087)
(0 0 0.0139344)
(0 0 0.0139572)
(0 0 0.0139772)
(0 0 0.0139943)
(0 0 0.0140086)
(0 0 0.0140201)
(0 0 0.0140287)
(0 0 0.0140345)
(0 0 0.0140375)
(0 0 0.0140377)
(0 0 0.0140351)
(0 0 0.0140298)
(0 0 0.0140217)
(0 0 0.0140109)
(0 0 0.0139974)
(0 0 0.0139812)
(0 0 0.0139624)
(0 0 0.0139409)
(0 0 0.0139168)
(0 0 0.0138901)
(0 0 0.0138608)
(0 0 0.0138291)
(0 0 0.0137948)
(0 0 0.013758)
(0 0 0.0137188)
(0 0 0.0136772)
(0 0 0.0136332)
(0 0 0.0135869)
(0 0 0.0135383)
(0 0 0.0134873)
(0 0 0.0134342)
(0 0 0.0133788)
(0 0 0.0133212)
(0 0 0.0132616)
(0 0 0.0131998)
(0 0 0.0131359)
(0 0 0.01307)
(0 0 0.0130021)
(0 0 0.0129323)
(0 0 0.0128605)
(0 0 0.0127868)
(0 0 0.0127113)
(0 0 0.012634)
(0 0 0.0125549)
(0 0 0.0124741)
(0 0 0.0123915)
(0 0 0.0123073)
(0 0 0.0122215)
(0 0 0.0121341)
(0 0 0.0120451)
(0 0 0.0119545)
(0 0 0.0118625)
(0 0 0.011769)
(0 0 0.0116742)
(0 0 0.0115779)
(0 0 0.0114802)
(0 0 0.0113813)
(0 0 0.011281)
(0 0 0.0111795)
(0 0 0.0110768)
(0 0 0.0109729)
(0 0 0.0108678)
(0 0 0.0107616)
(0 0 0.0106543)
(0 0 0.0105459)
(0 0 0.0104365)
(0 0 0.010326)
(0 0 0.0102146)
(0 0 0.0101022)
(0 0 0.00998889)
(0 0 0.00987468)
(0 0 0.00975959)
(0 0 0.00964365)
(0 0 0.00952689)
(0 0 0.00940932)
(0 0 0.00929098)
(0 0 0.00917189)
(0 0 0.00905208)
(0 0 0.00893155)
(0 0 0.00881035)
(0 0 0.00868849)
(0 0 0.00856598)
(0 0 0.00844286)
(0 0 0.00831915)
(0 0 0.00819485)
(0 0 0.00807)
(0 0 0.00794461)
(0 0 0.00781871)
(0 0 0.0076923)
(0 0 0.00756541)
(0 0 0.00743806)
(0 0 0.00731025)
(0 0 0.00718202)
(0 0 0.00705337)
(0 0 0.00692432)
(0 0 0.00679489)
(0 0 0.00666508)
(0 0 0.00653492)
(0 0 0.00640442)
(0 0 0.0062736)
(0 0 0.00614246)
(0 0 0.00601101)
(0 0 0.00587928)
(0 0 0.00574728)
(0 0 0.005615)
(0 0 0.00548248)
(0 0 0.00534971)
(0 0 0.00521671)
(0 0 0.00508349)
(0 0 0.00495006)
(0 0 0.00481643)
(0 0 0.0046826)
(0 0 0.0045486)
(0 0 0.00441441)
(0 0 0.00428007)
(0 0 0.00414556)
(0 0 0.00401091)
(0 0 0.00387611)
(0 0 0.00374118)
(0 0 0.00360612)
(0 0 0.00347095)
(0 0 0.00333565)
(0 0 0.00320025)
(0 0 0.00306475)
(0 0 0.00292916)
(0 0 0.00279347)
(0 0 0.0026577)
(0 0 0.00252185)
(0 0 0.00238593)
(0 0 0.00224993)
(0 0 0.00211388)
(0 0 0.00197776)
(0 0 0.0018416)
(0 0 0.00170538)
(0 0 0.00156911)
(0 0 0.0014328)
(0 0 0.00129646)
(0 0 0.00116008)
(0 0 0.00102367)
(0 0 0.000887231)
(0 0 0.000750772)
(0 0 0.000614294)
(0 0 0.0004778)
(0 0 0.000341294)
(0 0 0.00020478)
(0 0 6.82606e-05)
(0 0 0.000100449)
(0 0 0.000301344)
(0 0 0.000502228)
(0 0 0.000703093)
(0 0 0.000903933)
(0 0 0.00110474)
(0 0 0.00130551)
(0 0 0.00150622)
(0 0 0.00170688)
(0 0 0.00190747)
(0 0 0.00210799)
(0 0 0.00230843)
(0 0 0.00250877)
(0 0 0.00270901)
(0 0 0.00290913)
(0 0 0.00310913)
(0 0 0.003309)
(0 0 0.00350871)
(0 0 0.00370826)
(0 0 0.00390764)
(0 0 0.00410683)
(0 0 0.00430582)
(0 0 0.00450459)
(0 0 0.00470312)
(0 0 0.0049014)
(0 0 0.00509942)
(0 0 0.00529714)
(0 0 0.00549455)
(0 0 0.00569164)
(0 0 0.00588838)
(0 0 0.00608474)
(0 0 0.00628071)
(0 0 0.00647625)
(0 0 0.00667136)
(0 0 0.00686599)
(0 0 0.00706011)
(0 0 0.00725372)
(0 0 0.00744676)
(0 0 0.00763922)
(0 0 0.00783105)
(0 0 0.00802223)
(0 0 0.00821273)
(0 0 0.0084025)
(0 0 0.00859152)
(0 0 0.00877974)
(0 0 0.00896712)
(0 0 0.00915364)
(0 0 0.00933924)
(0 0 0.00952388)
(0 0 0.00970752)
(0 0 0.00989013)
(0 0 0.0100716)
(0 0 0.010252)
(0 0 0.0104312)
(0 0 0.0106092)
(0 0 0.0107859)
(0 0 0.0109613)
(0 0 0.0111353)
(0 0 0.0113079)
(0 0 0.011479)
(0 0 0.0116486)
(0 0 0.0118166)
(0 0 0.0119829)
(0 0 0.0121476)
(0 0 0.0123105)
(0 0 0.0124717)
(0 0 0.012631)
(0 0 0.0127883)
(0 0 0.0129437)
(0 0 0.0130971)
(0 0 0.0132484)
(0 0 0.0133976)
(0 0 0.0135446)
(0 0 0.0136894)
(0 0 0.0138318)
(0 0 0.0139719)
(0 0 0.0141096)
(0 0 0.0142449)
(0 0 0.0143776)
(0 0 0.0145078)
(0 0 0.0146353)
(0 0 0.0147602)
(0 0 0.0148823)
(0 0 0.0150017)
(0 0 0.0151182)
(0 0 0.0152319)
(0 0 0.0153427)
(0 0 0.0154506)
(0 0 0.0155554)
(0 0 0.0156572)
(0 0 0.0157559)
(0 0 0.0158515)
(0 0 0.0159439)
(0 0 0.0160331)
(0 0 0.0161192)
(0 0 0.0162019)
(0 0 0.0162814)
(0 0 0.0163576)
(0 0 0.0164304)
(0 0 0.0164998)
(0 0 0.0165659)
(0 0 0.0166285)
(0 0 0.0166878)
(0 0 0.0167435)
(0 0 0.0167959)
(0 0 0.0168447)
(0 0 0.0168901)
(0 0 0.016932)
(0 0 0.0169704)
(0 0 0.0170053)
(0 0 0.0170367)
(0 0 0.0170646)
(0 0 0.017089)
(0 0 0.01711)
(0 0 0.0171274)
(0 0 0.0171414)
(0 0 0.0171519)
(0 0 0.017159)
(0 0 0.0171627)
(0 0 0.0171629)
(0 0 0.0171597)
(0 0 0.0171531)
(0 0 0.0171432)
(0 0 0.01713)
(0 0 0.0171134)
(0 0 0.0170936)
(0 0 0.0170705)
(0 0 0.0170442)
(0 0 0.0170147)
(0 0 0.016982)
(0 0 0.0169462)
(0 0 0.0169073)
(0 0 0.0168653)
(0 0 0.0168203)
(0 0 0.0167724)
(0 0 0.0167214)
(0 0 0.0166676)
(0 0 0.0166109)
(0 0 0.0165514)
(0 0 0.0164891)
(0 0 0.016424)
(0 0 0.0163563)
(0 0 0.0162859)
(0 0 0.0162129)
(0 0 0.0161373)
(0 0 0.0160591)
(0 0 0.0159785)
(0 0 0.0158955)
(0 0 0.01581)
(0 0 0.0157222)
(0 0 0.0156321)
(0 0 0.0155398)
(0 0 0.0154452)
(0 0 0.0153484)
(0 0 0.0152496)
(0 0 0.0151486)
(0 0 0.0150456)
(0 0 0.0149406)
(0 0 0.0148337)
(0 0 0.0147248)
(0 0 0.0146141)
(0 0 0.0145016)
(0 0 0.0143873)
(0 0 0.0142712)
(0 0 0.0141535)
(0 0 0.0140341)
(0 0 0.0139131)
(0 0 0.0137905)
(0 0 0.0136664)
(0 0 0.0135407)
(0 0 0.0134137)
(0 0 0.0132852)
(0 0 0.0131553)
(0 0 0.0130241)
(0 0 0.0128915)
(0 0 0.0127577)
(0 0 0.0126227)
(0 0 0.0124864)
(0 0 0.012349)
(0 0 0.0122105)
(0 0 0.0120708)
(0 0 0.0119301)
(0 0 0.0117884)
(0 0 0.0116456)
(0 0 0.0115019)
(0 0 0.0113572)
(0 0 0.0112116)
(0 0 0.0110651)
(0 0 0.0109177)
(0 0 0.0107696)
(0 0 0.0106206)
(0 0 0.0104708)
(0 0 0.0103203)
(0 0 0.010169)
(0 0 0.0100171)
(0 0 0.00986443)
(0 0 0.00971114)
(0 0 0.00955722)
(0 0 0.00940269)
(0 0 0.00924756)
(0 0 0.00909187)
(0 0 0.00893564)
(0 0 0.00877887)
(0 0 0.0086216)
(0 0 0.00846384)
(0 0 0.00830561)
(0 0 0.00814694)
(0 0 0.00798783)
(0 0 0.0078283)
(0 0 0.00766837)
(0 0 0.00750806)
(0 0 0.00734738)
(0 0 0.00718636)
(0 0 0.00702499)
(0 0 0.0068633)
(0 0 0.0067013)
(0 0 0.00653901)
(0 0 0.00637643)
(0 0 0.00621359)
(0 0 0.00605049)
(0 0 0.00588714)
(0 0 0.00572356)
(0 0 0.00555975)
(0 0 0.00539573)
(0 0 0.00523152)
(0 0 0.0050671)
(0 0 0.00490251)
(0 0 0.00473775)
(0 0 0.00457282)
(0 0 0.00440773)
(0 0 0.0042425)
(0 0 0.00407713)
(0 0 0.00391163)
(0 0 0.003746)
(0 0 0.00358026)
(0 0 0.00341441)
(0 0 0.00324846)
(0 0 0.00308241)
(0 0 0.00291627)
(0 0 0.00275005)
(0 0 0.00258375)
(0 0 0.00241738)
(0 0 0.00225094)
(0 0 0.00208444)
(0 0 0.00191789)
(0 0 0.00175128)
(0 0 0.00158463)
(0 0 0.00141793)
(0 0 0.0012512)
(0 0 0.00108444)
(0 0 0.000917649)
(0 0 0.000750836)
(0 0 0.000584003)
(0 0 0.000417155)
(0 0 0.000250297)
(0 0 8.34331e-05)
(0 0 0.000118721)
(0 0 0.00035616)
(0 0 0.000593586)
(0 0 0.00083099)
(0 0 0.00106836)
(0 0 0.0013057)
(0 0 0.00154299)
(0 0 0.00178022)
(0 0 0.00201738)
(0 0 0.00225447)
(0 0 0.00249147)
(0 0 0.00272837)
(0 0 0.00296516)
(0 0 0.00320183)
(0 0 0.00343836)
(0 0 0.00367476)
(0 0 0.00391099)
(0 0 0.00414704)
(0 0 0.00438291)
(0 0 0.00461857)
(0 0 0.00485402)
(0 0 0.00508922)
(0 0 0.00532417)
(0 0 0.00555884)
(0 0 0.00579321)
(0 0 0.00602727)
(0 0 0.00626099)
(0 0 0.00649435)
(0 0 0.00672732)
(0 0 0.00695988)
(0 0 0.007192)
(0 0 0.00742365)
(0 0 0.00765482)
(0 0 0.00788545)
(0 0 0.00811553)
(0 0 0.00834503)
(0 0 0.0085739)
(0 0 0.00880212)
(0 0 0.00902964)
(0 0 0.00925643)
(0 0 0.00948245)
(0 0 0.00970767)
(0 0 0.00993203)
(0 0 0.0101555)
(0 0 0.010378)
(0 0 0.0105996)
(0 0 0.0108201)
(0 0 0.0110395)
(0 0 0.0112579)
(0 0 0.011475)
(0 0 0.0116909)
(0 0 0.0119055)
(0 0 0.0121188)
(0 0 0.0123307)
(0 0 0.0125412)
(0 0 0.0127501)
(0 0 0.0129575)
(0 0 0.0131633)
(0 0 0.0133674)
(0 0 0.0135697)
(0 0 0.0137703)
(0 0 0.0139689)
(0 0 0.0141657)
(0 0 0.0143604)
(0 0 0.0145531)
(0 0 0.0147436)
(0 0 0.014932)
(0 0 0.0151181)
(0 0 0.0153019)
(0 0 0.0154833)
(0 0 0.0156623)
(0 0 0.0158387)
(0 0 0.0160126)
(0 0 0.0161838)
(0 0 0.0163523)
(0 0 0.016518)
(0 0 0.0166808)
(0 0 0.0168408)
(0 0 0.0169978)
(0 0 0.0171517)
(0 0 0.0173026)
(0 0 0.0174503)
(0 0 0.0175947)
(0 0 0.0177359)
(0 0 0.0178738)
(0 0 0.0180083)
(0 0 0.0181393)
(0 0 0.0182668)
(0 0 0.0183908)
(0 0 0.0185112)
(0 0 0.018628)
(0 0 0.018741)
(0 0 0.0188503)
(0 0 0.0189559)
(0 0 0.0190576)
(0 0 0.0191555)
(0 0 0.0192495)
(0 0 0.0193396)
(0 0 0.0194257)
(0 0 0.0195078)
(0 0 0.0195859)
(0 0 0.01966)
(0 0 0.01973)
(0 0 0.019796)
(0 0 0.0198579)
(0 0 0.0199156)
(0 0 0.0199693)
(0 0 0.0200188)
(0 0 0.0200642)
(0 0 0.0201054)
(0 0 0.0201426)
(0 0 0.0201755)
(0 0 0.0202044)
(0 0 0.0202291)
(0 0 0.0202497)
(0 0 0.0202662)
(0 0 0.0202786)
(0 0 0.0202869)
(0 0 0.0202912)
(0 0 0.0202914)
(0 0 0.0202876)
(0 0 0.0202798)
(0 0 0.0202681)
(0 0 0.0202523)
(0 0 0.0202327)
(0 0 0.0202092)
(0 0 0.0201818)
(0 0 0.0201507)
(0 0 0.0201157)
(0 0 0.020077)
(0 0 0.0200346)
(0 0 0.0199886)
(0 0 0.0199389)
(0 0 0.0198856)
(0 0 0.0198288)
(0 0 0.0197686)
(0 0 0.0197049)
(0 0 0.0196378)
(0 0 0.0195673)
(0 0 0.0194936)
(0 0 0.0194166)
(0 0 0.0193365)
(0 0 0.0192531)
(0 0 0.0191667)
(0 0 0.0190773)
(0 0 0.0189848)
(0 0 0.0188895)
(0 0 0.0187912)
(0 0 0.0186901)
(0 0 0.0185863)
(0 0 0.0184797)
(0 0 0.0183704)
(0 0 0.0182585)
(0 0 0.0181441)
(0 0 0.0180271)
(0 0 0.0179077)
(0 0 0.0177859)
(0 0 0.0176617)
(0 0 0.0175352)
(0 0 0.0174065)
(0 0 0.0172756)
(0 0 0.0171425)
(0 0 0.0170073)
(0 0 0.01687)
(0 0 0.0167308)
(0 0 0.0165896)
(0 0 0.0164465)
(0 0 0.0163015)
(0 0 0.0161547)
(0 0 0.0160061)
(0 0 0.0158559)
(0 0 0.0157039)
(0 0 0.0155503)
(0 0 0.0153952)
(0 0 0.0152385)
(0 0 0.0150802)
(0 0 0.0149206)
(0 0 0.0147595)
(0 0 0.014597)
(0 0 0.0144332)
(0 0 0.0142681)
(0 0 0.0141017)
(0 0 0.0139341)
(0 0 0.0137653)
(0 0 0.0135954)
(0 0 0.0134243)
(0 0 0.0132521)
(0 0 0.013079)
(0 0 0.0129047)
(0 0 0.0127296)
(0 0 0.0125534)
(0 0 0.0123764)
(0 0 0.0121984)
(0 0 0.0120196)
(0 0 0.01184)
(0 0 0.0116595)
(0 0 0.0114783)
(0 0 0.0112963)
(0 0 0.0111137)
(0 0 0.0109303)
(0 0 0.0107462)
(0 0 0.0105615)
(0 0 0.0103762)
(0 0 0.0101903)
(0 0 0.0100038)