/*--------------------------------*- C++ -*----------------------------------*\
| =========                 |                                                 |
| \\      /  F ield         | OpenFOAM: The Open Source CFD Toolbox           |
|  \\    /   O peration     | Version:  v2012                                 |
|   \\  /    A nd           | Website:  www.openfoam.com                      |
|    \\/     M anipulation  |                                                 |
\*---------------------------------------------------------------------------*/
FoamFile
{
    version     2.0;
    format      ascii;
    class       volVectorField;
    location    "5.5";
    object      U;
}
// * * * * * * * * * * * * * * * * * * * * * * * * * * * * * * * * * * * * * //

dimensions      [0 1 -1 0 0 0 0];


internalField   nonuniform List<vector> 
65536
(
(0.000743165 -0.000743153 0)
(0.00222947 -0.000743123 0)
(0.00371568 -0.000743065 0)
(0.00520175 -0.000742979 0)
(0.00668762 -0.000742864 0)
(0.00817323 -0.000742719 0)
(0.00965853 -0.000742543 0)
(0.0111434 -0.000742336 0)
(0.0126279 -0.000742096 0)
(0.0141119 -0.000741823 0)
(0.0155952 -0.000741515 0)
(0.0170779 -0.000741171 0)
(0.0185599 -0.00074079 0)
(0.0200411 -0.000740369 0)
(0.0215215 -0.000739907 0)
(0.0230008 -0.000739402 0)
(0.0244791 -0.000738852 0)
(0.0259563 -0.000738254 0)
(0.0274322 -0.000737607 0)
(0.0289067 -0.000736909 0)
(0.0303799 -0.000736155 0)
(0.0318514 -0.000735345 0)
(0.0333213 -0.000734475 0)
(0.0347894 -0.000733543 0)
(0.0362555 -0.000732544 0)
(0.0377196 -0.000731477 0)
(0.0391815 -0.000730338 0)
(0.040641 -0.000729125 0)
(0.0420981 -0.000727832 0)
(0.0435524 -0.000726458 0)
(0.045004 -0.000724998 0)
(0.0464525 -0.000723449 0)
(0.0478979 -0.000721808 0)
(0.0493398 -0.00072007 0)
(0.0507782 -0.000718232 0)
(0.0522129 -0.000716289 0)
(0.0536435 -0.00071424 0)
(0.0550699 -0.000712078 0)
(0.0564919 -0.0007098 0)
(0.0579093 -0.000707403 0)
(0.0593217 -0.000704882 0)
(0.0607289 -0.000702234 0)
(0.0621307 -0.000699453 0)
(0.0635269 -0.000696537 0)
(0.064917 -0.000693482 0)
(0.0663009 -0.000690283 0)
(0.0676783 -0.000686936 0)
(0.0690488 -0.000683439 0)
(0.0704122 -0.000679786 0)
(0.0717681 -0.000675974 0)
(0.0731163 -0.000672 0)
(0.0744563 -0.00066786 0)
(0.0757879 -0.000663551 0)
(0.0771107 -0.000659068 0)
(0.0784243 -0.00065441 0)
(0.0797285 -0.000649573 0)
(0.0810228 -0.000644553 0)
(0.0823069 -0.000639349 0)
(0.0835804 -0.000633957 0)
(0.0848429 -0.000628374 0)
(0.086094 -0.0006226 0)
(0.0873335 -0.000616631 0)
(0.0885608 -0.000610466 0)
(0.0897755 -0.000604102 0)
(0.0909774 -0.000597539 0)
(0.0921659 -0.000590775 0)
(0.0933407 -0.00058381 0)
(0.0945013 -0.000576641 0)
(0.0956474 -0.00056927 0)
(0.0967786 -0.000561695 0)
(0.0978944 -0.000553917 0)
(0.0989945 -0.000545936 0)
(0.100078 -0.000537752 0)
(0.101146 -0.000529366 0)
(0.102196 -0.00052078 0)
(0.103229 -0.000511995 0)
(0.104244 -0.000503013 0)
(0.105241 -0.000493834 0)
(0.10622 -0.000484463 0)
(0.107179 -0.000474901 0)
(0.10812 -0.000465152 0)
(0.10904 -0.000455218 0)
(0.109941 -0.000445103 0)
(0.110821 -0.00043481 0)
(0.11168 -0.000424345 0)
(0.112518 -0.00041371 0)
(0.113335 -0.000402911 0)
(0.11413 -0.000391953 0)
(0.114903 -0.00038084 0)
(0.115654 -0.000369578 0)
(0.116381 -0.000358172 0)
(0.117086 -0.000346629 0)
(0.117768 -0.000334954 0)
(0.118426 -0.000323154 0)
(0.119061 -0.000311235 0)
(0.119671 -0.000299203 0)
(0.120258 -0.000287066 0)
(0.12082 -0.00027483 0)
(0.121357 -0.000262502 0)
(0.12187 -0.00025009 0)
(0.122358 -0.000237601 0)
(0.12282 -0.000225042 0)
(0.123258 -0.000212421 0)
(0.12367 -0.000199745 0)
(0.124057 -0.000187023 0)
(0.124418 -0.000174261 0)
(0.124754 -0.000161467 0)
(0.125064 -0.000148649 0)
(0.125349 -0.000135815 0)
(0.125607 -0.000122971 0)
(0.12584 -0.000110127 0)
(0.126048 -9.72889e-05 0)
(0.12623 -8.44644e-05 0)
(0.126386 -7.16611e-05 0)
(0.126516 -5.8886e-05 0)
(0.126621 -4.61464e-05 0)
(0.126701 -3.34493e-05 0)
(0.126755 -2.08016e-05 0)
(0.126784 -8.20994e-06 0)
(0.126788 4.31899e-06 0)
(0.126767 1.67788e-05 0)
(0.126721 2.91633e-05 0)
(0.12665 4.14664e-05 0)
(0.126555 5.36822e-05 0)
(0.126435 6.58052e-05 0)
(0.126291 7.78298e-05 0)
(0.126124 8.97509e-05 0)
(0.125932 0.000101563 0)
(0.125717 0.000113262 0)
(0.125479 0.000124844 0)
(0.125218 0.000136302 0)
(0.124934 0.000147635 0)
(0.124627 0.000158837 0)
(0.124298 0.000169905 0)
(0.123947 0.000180836 0)
(0.123575 0.000191626 0)
(0.123181 0.000202273 0)
(0.122765 0.000212773 0)
(0.122329 0.000223125 0)
(0.121873 0.000233326 0)
(0.121396 0.000243373 0)
(0.120899 0.000253266 0)
(0.120383 0.000263002 0)
(0.119847 0.00027258 0)
(0.119292 0.000281998 0)
(0.118719 0.000291257 0)
(0.118127 0.000300354 0)
(0.117517 0.000309289 0)
(0.11689 0.000318062 0)
(0.116245 0.000326673 0)
(0.115583 0.000335121 0)
(0.114904 0.000343406 0)
(0.114209 0.000351528 0)
(0.113498 0.000359488 0)
(0.112771 0.000367287 0)
(0.112029 0.000374924 0)
(0.111271 0.000382401 0)
(0.110499 0.000389718 0)
(0.109712 0.000396876 0)
(0.108911 0.000403877 0)
(0.108096 0.000410722 0)
(0.107268 0.000417411 0)
(0.106427 0.000423946 0)
(0.105572 0.000430329 0)
(0.104705 0.000436561 0)
(0.103826 0.000442644 0)
(0.102934 0.000448579 0)
(0.102031 0.000454369 0)
(0.101117 0.000460014 0)
(0.100191 0.000465517 0)
(0.0992547 0.000470879 0)
(0.0983075 0.000476103 0)
(0.0973501 0.00048119 0)
(0.0963826 0.000486143 0)
(0.0954054 0.000490963 0)
(0.0944187 0.000495652 0)
(0.0934227 0.000500213 0)
(0.0924177 0.000504648 0)
(0.091404 0.000508958 0)
(0.0903817 0.000513147 0)
(0.0893513 0.000517215 0)
(0.0883128 0.000521165 0)
(0.0872665 0.000525 0)
(0.0862127 0.00052872 0)
(0.0851515 0.00053233 0)
(0.0840832 0.00053583 0)
(0.0830081 0.000539223 0)
(0.0819262 0.00054251 0)
(0.0808379 0.000545695 0)
(0.0797434 0.000548779 0)
(0.0786427 0.000551765 0)
(0.0775362 0.000554653 0)
(0.076424 0.000557448 0)
(0.0753063 0.00056015 0)
(0.0741833 0.000562761 0)
(0.0730552 0.000565284 0)
(0.0719221 0.000567721 0)
(0.0707842 0.000570074 0)
(0.0696417 0.000572345 0)
(0.0684948 0.000574535 0)
(0.0673435 0.000576647 0)
(0.0661881 0.000578682 0)
(0.0650287 0.000580643 0)
(0.0638655 0.000582532 0)
(0.0626985 0.00058435 0)
(0.061528 0.000586099 0)
(0.060354 0.000587781 0)
(0.0591768 0.000589398 0)
(0.0579964 0.000590951 0)
(0.0568129 0.000592443 0)
(0.0556266 0.000593875 0)
(0.0544374 0.000595249 0)
(0.0532455 0.000596567 0)
(0.0520511 0.000597829 0)
(0.0508541 0.000599038 0)
(0.0496548 0.000600196 0)
(0.0484533 0.000601304 0)
(0.0472496 0.000602363 0)
(0.0460438 0.000603375 0)
(0.044836 0.000604341 0)
(0.0436264 0.000605264 0)
(0.0424149 0.000606143 0)
(0.0412018 0.000606982 0)
(0.039987 0.000607781 0)
(0.0387706 0.00060854 0)
(0.0375528 0.000609263 0)
(0.0363335 0.00060995 0)
(0.0351129 0.000610601 0)
(0.0338911 0.00061122 0)
(0.032668 0.000611805 0)
(0.0314438 0.000612359 0)
(0.0302186 0.000612883 0)
(0.0289923 0.000613378 0)
(0.027765 0.000613844 0)
(0.0265369 0.000614283 0)
(0.0253079 0.000614695 0)
(0.0240781 0.000615082 0)
(0.0228475 0.000615445 0)
(0.0216163 0.000615783 0)
(0.0203844 0.000616099 0)
(0.0191518 0.000616392 0)
(0.0179188 0.000616663 0)
(0.0166852 0.000616914 0)
(0.0154511 0.000617144 0)
(0.0142166 0.000617354 0)
(0.0129817 0.000617544 0)
(0.0117464 0.000617716 0)
(0.0105108 0.00061787 0)
(0.00927488 0.000618005 0)
(0.00803873 0.000618123 0)
(0.00680237 0.000618223 0)
(0.00556582 0.000618306 0)
(0.00432913 0.000618372 0)
(0.00309232 0.000618422 0)
(0.00185542 0.000618455 0)
(0.000618479 0.000618471 0)
(0.000743192 -0.00222948 0)
(0.00222955 -0.00222939 0)
(0.00371582 -0.00222922 0)
(0.00520195 -0.00222896 0)
(0.00668787 -0.00222862 0)
(0.00817354 -0.00222818 0)
(0.0096589 -0.00222766 0)
(0.0111439 -0.00222704 0)
(0.0126284 -0.00222632 0)
(0.0141124 -0.0022255 0)
(0.0155959 -0.00222458 0)
(0.0170787 -0.00222355 0)
(0.0185607 -0.00222241 0)
(0.020042 -0.00222114 0)
(0.0215224 -0.00221976 0)
(0.0230018 -0.00221825 0)
(0.0244802 -0.0022166 0)
(0.0259575 -0.00221481 0)
(0.0274335 -0.00221287 0)
(0.0289082 -0.00221078 0)
(0.0303814 -0.00220852 0)
(0.0318531 -0.00220609 0)
(0.0333231 -0.00220349 0)
(0.0347913 -0.00220069 0)
(0.0362575 -0.0021977 0)
(0.0377218 -0.0021945 0)
(0.0391838 -0.00219109 0)
(0.0406435 -0.00218745 0)
(0.0421007 -0.00218357 0)
(0.0435552 -0.00217946 0)
(0.0450069 -0.00217508 0)
(0.0464557 -0.00217044 0)
(0.0479012 -0.00216552 0)
(0.0493434 -0.00216031 0)
(0.050782 -0.0021548 0)
(0.0522168 -0.00214897 0)
(0.0536477 -0.00214283 0)
(0.0550743 -0.00213635 0)
(0.0564965 -0.00212952 0)
(0.0579141 -0.00212233 0)
(0.0593268 -0.00211477 0)
(0.0607343 -0.00210683 0)
(0.0621364 -0.00209849 0)
(0.0635328 -0.00208975 0)
(0.0649232 -0.00208059 0)
(0.0663074 -0.00207099 0)
(0.0676851 -0.00206096 0)
(0.0690559 -0.00205047 0)
(0.0704196 -0.00203951 0)
(0.0717758 -0.00202808 0)
(0.0731243 -0.00201616 0)
(0.0744647 -0.00200375 0)
(0.0757966 -0.00199082 0)
(0.0771197 -0.00197738 0)
(0.0784337 -0.00196341 0)
(0.0797382 -0.0019489 0)
(0.0810329 -0.00193384 0)
(0.0823174 -0.00191823 0)
(0.0835912 -0.00190206 0)
(0.0848542 -0.00188531 0)
(0.0861057 -0.00186799 0)
(0.0873455 -0.00185009 0)
(0.0885732 -0.00183159 0)
(0.0897884 -0.0018125 0)
(0.0909906 -0.00179282 0)
(0.0921795 -0.00177253 0)
(0.0933547 -0.00175163 0)
(0.0945158 -0.00173013 0)
(0.0956623 -0.00170801 0)
(0.0967939 -0.00168529 0)
(0.0979101 -0.00166195 0)
(0.0990105 -0.00163801 0)
(0.100095 -0.00161346 0)
(0.101163 -0.0015883 0)
(0.102213 -0.00156254 0)
(0.103247 -0.00153618 0)
(0.104262 -0.00150923 0)
(0.10526 -0.0014817 0)
(0.106239 -0.00145358 0)
(0.107199 -0.00142489 0)
(0.108139 -0.00139564 0)
(0.10906 -0.00136583 0)
(0.109961 -0.00133548 0)
(0.110841 -0.0013046 0)
(0.111701 -0.0012732 0)
(0.11254 -0.00124129 0)
(0.113357 -0.00120889 0)
(0.114152 -0.00117601 0)
(0.114925 -0.00114267 0)
(0.115676 -0.00110888 0)
(0.116404 -0.00107466 0)
(0.117109 -0.00104002 0)
(0.117791 -0.00100499 0)
(0.11845 -0.000969581 0)
(0.119085 -0.000933817 0)
(0.119695 -0.000897715 0)
(0.120282 -0.000861296 0)
(0.120844 -0.000824581 0)
(0.121382 -0.000787591 0)
(0.121895 -0.000750348 0)
(0.122383 -0.000712873 0)
(0.122845 -0.000675189 0)
(0.123283 -0.000637319 0)
(0.123695 -0.000599284 0)
(0.124082 -0.000561109 0)
(0.124444 -0.000522815 0)
(0.124779 -0.000484426 0)
(0.12509 -0.000445965 0)
(0.125374 -0.000407454 0)
(0.125633 -0.000368917 0)
(0.125866 -0.000330376 0)
(0.126073 -0.000291855 0)
(0.126255 -0.000253374 0)
(0.126411 -0.000214957 0)
(0.126542 -0.000176624 0)
(0.126647 -0.000138399 0)
(0.126726 -0.0001003 0)
(0.12678 -6.23505e-05 0)
(0.126809 -2.45692e-05 0)
(0.126813 1.30239e-05 0)
(0.126791 5.04096e-05 0)
(0.126745 8.7569e-05 0)
(0.126674 0.000124484 0)
(0.126579 0.000161137 0)
(0.126459 0.000197511 0)
(0.126315 0.000233591 0)
(0.126147 0.000269359 0)
(0.125956 0.000304801 0)
(0.12574 0.000339902 0)
(0.125502 0.00037465 0)
(0.12524 0.000409031 0)
(0.124956 0.000443032 0)
(0.124649 0.000476642 0)
(0.12432 0.000509849 0)
(0.123969 0.000542645 0)
(0.123596 0.000575019 0)
(0.123202 0.000606962 0)
(0.122786 0.000638465 0)
(0.12235 0.000669523 0)
(0.121893 0.000700127 0)
(0.121416 0.000730271 0)
(0.120919 0.000759951 0)
(0.120402 0.00078916 0)
(0.119866 0.000817895 0)
(0.119311 0.000846152 0)
(0.118737 0.000873928 0)
(0.118145 0.00090122 0)
(0.117535 0.000928027 0)
(0.116907 0.000954347 0)
(0.116262 0.000980178 0)
(0.1156 0.00100552 0)
(0.114921 0.00103038 0)
(0.114225 0.00105474 0)
(0.113514 0.00107862 0)
(0.112786 0.00110202 0)
(0.112044 0.00112493 0)
(0.111286 0.00114736 0)
(0.110513 0.00116931 0)
(0.109726 0.00119078 0)
(0.108925 0.00121178 0)
(0.10811 0.00123232 0)
(0.107281 0.00125238 0)
(0.10644 0.00127199 0)
(0.105585 0.00129114 0)
(0.104717 0.00130983 0)
(0.103838 0.00132808 0)
(0.102946 0.00134588 0)
(0.102043 0.00136325 0)
(0.101128 0.00138018 0)
(0.100202 0.00139669 0)
(0.0992652 0.00141277 0)
(0.0983178 0.00142844 0)
(0.0973601 0.0014437 0)
(0.0963924 0.00145856 0)
(0.0954149 0.00147302 0)
(0.0944279 0.00148708 0)
(0.0934317 0.00150076 0)
(0.0924264 0.00151407 0)
(0.0914124 0.001527 0)
(0.09039 0.00153956 0)
(0.0893593 0.00155176 0)
(0.0883205 0.00156361 0)
(0.087274 0.00157511 0)
(0.08622 0.00158627 0)
(0.0851586 0.0015971 0)
(0.0840901 0.00160759 0)
(0.0830147 0.00161777 0)
(0.0819327 0.00162763 0)
(0.0808442 0.00163718 0)
(0.0797494 0.00164643 0)
(0.0786486 0.00165539 0)
(0.0775419 0.00166405 0)
(0.0764295 0.00167243 0)
(0.0753116 0.00168054 0)
(0.0741885 0.00168837 0)
(0.0730601 0.00169594 0)
(0.0719269 0.00170325 0)
(0.0707888 0.0017103 0)
(0.0696462 0.00171711 0)
(0.0684991 0.00172368 0)
(0.0673477 0.00173002 0)
(0.0661921 0.00173612 0)
(0.0650326 0.001742 0)
(0.0638692 0.00174767 0)
(0.0627021 0.00175312 0)
(0.0615314 0.00175836 0)
(0.0603573 0.00176341 0)
(0.05918 0.00176826 0)
(0.0579994 0.00177292 0)
(0.0568159 0.00177739 0)
(0.0556294 0.00178168 0)
(0.0544401 0.0017858 0)
(0.0532481 0.00178975 0)
(0.0520535 0.00179354 0)
(0.0508565 0.00179717 0)
(0.0496571 0.00180064 0)
(0.0484555 0.00180396 0)
(0.0472517 0.00180713 0)
(0.0460458 0.00181017 0)
(0.0448379 0.00181307 0)
(0.0436282 0.00181583 0)
(0.0424167 0.00181847 0)
(0.0412034 0.00182099 0)
(0.0399885 0.00182338 0)
(0.0387721 0.00182566 0)
(0.0375542 0.00182783 0)
(0.0363349 0.00182988 0)
(0.0351142 0.00183184 0)
(0.0338923 0.00183369 0)
(0.0326692 0.00183545 0)
(0.0314449 0.00183711 0)
(0.0302196 0.00183868 0)
(0.0289932 0.00184016 0)
(0.0277659 0.00184156 0)
(0.0265377 0.00184288 0)
(0.0253087 0.00184411 0)
(0.0240788 0.00184527 0)
(0.0228482 0.00184636 0)
(0.0216169 0.00184737 0)
(0.020385 0.00184832 0)
(0.0191524 0.0018492 0)
(0.0179193 0.00185001 0)
(0.0166857 0.00185076 0)
(0.0154515 0.00185145 0)
(0.014217 0.00185208 0)
(0.012982 0.00185265 0)
(0.0117467 0.00185317 0)
(0.0105111 0.00185363 0)
(0.00927513 0.00185403 0)
(0.00803895 0.00185439 0)
(0.00680255 0.00185469 0)
(0.00556597 0.00185494 0)
(0.00432924 0.00185513 0)
(0.0030924 0.00185528 0)
(0.00185547 0.00185538 0)
(0.000618496 0.00185543 0)
(0.000743249 -0.00371589 0)
(0.00222972 -0.00371575 0)
(0.00371611 -0.00371546 0)
(0.00520235 -0.00371504 0)
(0.0066884 -0.00371446 0)
(0.00817419 -0.00371374 0)
(0.00965967 -0.00371287 0)
(0.0111448 -0.00371184 0)
(0.0126294 -0.00371064 0)
(0.0141136 -0.00370928 0)
(0.0155972 -0.00370775 0)
(0.0170801 -0.00370604 0)
(0.0185623 -0.00370414 0)
(0.0200438 -0.00370204 0)
(0.0215243 -0.00369974 0)
(0.023004 -0.00369723 0)
(0.0244825 -0.00369449 0)
(0.02596 -0.00369151 0)
(0.0274362 -0.00368829 0)
(0.0289111 -0.00368481 0)
(0.0303845 -0.00368106 0)
(0.0318564 -0.00367702 0)
(0.0333267 -0.00367268 0)
(0.0347951 -0.00366804 0)
(0.0362617 -0.00366306 0)
(0.0377262 -0.00365774 0)
(0.0391885 -0.00365206 0)
(0.0406485 -0.00364601 0)
(0.042106 -0.00363956 0)
(0.0435609 -0.00363271 0)
(0.045013 -0.00362543 0)
(0.0464621 -0.0036177 0)
(0.047908 -0.00360951 0)
(0.0493505 -0.00360084 0)
(0.0507895 -0.00359167 0)
(0.0522248 -0.00358198 0)
(0.0536561 -0.00357175 0)
(0.0550832 -0.00356096 0)
(0.0565059 -0.00354959 0)
(0.057924 -0.00353763 0)
(0.0593371 -0.00352504 0)
(0.0607452 -0.00351182 0)
(0.0621478 -0.00349794 0)
(0.0635447 -0.00348338 0)
(0.0649357 -0.00346812 0)
(0.0663205 -0.00345215 0)
(0.0676988 -0.00343543 0)
(0.0690702 -0.00341796 0)
(0.0704345 -0.00339972 0)
(0.0717914 -0.00338068 0)
(0.0731405 -0.00336083 0)
(0.0744816 -0.00334014 0)
(0.0758142 -0.00331861 0)
(0.077138 -0.00329622 0)
(0.0784527 -0.00327294 0)
(0.079758 -0.00324877 0)
(0.0810534 -0.00322369 0)
(0.0823386 -0.00319768 0)
(0.0836132 -0.00317073 0)
(0.0848769 -0.00314283 0)
(0.0861292 -0.00311397 0)
(0.0873698 -0.00308413 0)
(0.0885983 -0.00305331 0)
(0.0898143 -0.0030215 0)
(0.0910173 -0.0029887 0)
(0.092207 -0.00295488 0)
(0.093383 -0.00292006 0)
(0.0945449 -0.00288422 0)
(0.0956922 -0.00284736 0)
(0.0968246 -0.00280949 0)
(0.0979417 -0.0027706 0)
(0.0990429 -0.00273069 0)
(0.100128 -0.00268977 0)
(0.101197 -0.00264783 0)
(0.102248 -0.0026049 0)
(0.103282 -0.00256096 0)
(0.104299 -0.00251604 0)
(0.105297 -0.00247014 0)
(0.106277 -0.00242327 0)
(0.107237 -0.00237544 0)
(0.108179 -0.00232668 0)
(0.1091 -0.00227699 0)
(0.110002 -0.0022264 0)
(0.110883 -0.00217492 0)
(0.111743 -0.00212257 0)
(0.112582 -0.00206937 0)
(0.1134 -0.00201535 0)
(0.114196 -0.00196054 0)
(0.11497 -0.00190495 0)
(0.115722 -0.00184861 0)
(0.11645 -0.00179155 0)
(0.117156 -0.0017338 0)
(0.117838 -0.0016754 0)
(0.118497 -0.00161637 0)
(0.119133 -0.00155674 0)
(0.119744 -0.00149654 0)
(0.120331 -0.00143582 0)
(0.120893 -0.00137461 0)
(0.121431 -0.00131293 0)
(0.121945 -0.00125084 0)
(0.122433 -0.00118835 0)
(0.122896 -0.00112552 0)
(0.123334 -0.00106238 0)
(0.123746 -0.000998965 0)
(0.124133 -0.000935313 0)
(0.124495 -0.000871465 0)
(0.124831 -0.000807457 0)
(0.125141 -0.00074333 0)
(0.125426 -0.00067912 0)
(0.125684 -0.000614866 0)
(0.125917 -0.000550607 0)
(0.126125 -0.000486379 0)
(0.126306 -0.00042222 0)
(0.126462 -0.000358167 0)
(0.126593 -0.000294256 0)
(0.126697 -0.000230523 0)
(0.126777 -0.000167003 0)
(0.126831 -0.000103731 0)
(0.126859 -4.074e-05 0)
(0.126863 2.19366e-05 0)
(0.126841 8.42668e-05 0)
(0.126795 0.000146219 0)
(0.126723 0.000207764 0)
(0.126628 0.000268871 0)
(0.126507 0.000329513 0)
(0.126363 0.000389662 0)
(0.126195 0.000449293 0)
(0.126003 0.000508379 0)
(0.125787 0.000566897 0)
(0.125548 0.000624824 0)
(0.125286 0.000682139 0)
(0.125001 0.00073882 0)
(0.124694 0.000794849 0)
(0.124364 0.000850207 0)
(0.124012 0.000904876 0)
(0.123639 0.000958842 0)
(0.123244 0.00101209 0)
(0.122828 0.0010646 0)
(0.122391 0.00111637 0)
(0.121934 0.00116739 0)
(0.121456 0.00121763 0)
(0.120958 0.00126711 0)
(0.120441 0.00131579 0)
(0.119904 0.00136369 0)
(0.119348 0.00141079 0)
(0.118774 0.00145708 0)
(0.118181 0.00150257 0)
(0.11757 0.00154725 0)
(0.116942 0.00159112 0)
(0.116296 0.00163417 0)
(0.115633 0.00167641 0)
(0.114953 0.00171784 0)
(0.114257 0.00175845 0)
(0.113545 0.00179824 0)
(0.112817 0.00183723 0)
(0.112074 0.00187542 0)
(0.111316 0.0019128 0)
(0.110542 0.00194938 0)
(0.109755 0.00198516 0)
(0.108953 0.00202016 0)
(0.108137 0.00205438 0)
(0.107308 0.00208782 0)
(0.106465 0.00212049 0)
(0.10561 0.0021524 0)
(0.104742 0.00218355 0)
(0.103862 0.00221395 0)
(0.10297 0.00224362 0)
(0.102066 0.00227256 0)
(0.10115 0.00230078 0)
(0.100224 0.00232828 0)
(0.0992864 0.00235508 0)
(0.0983385 0.00238119 0)
(0.0973802 0.00240662 0)
(0.096412 0.00243137 0)
(0.0954339 0.00245546 0)
(0.0944464 0.0024789 0)
(0.0934497 0.00250169 0)
(0.0924439 0.00252386 0)
(0.0914294 0.0025454 0)
(0.0904065 0.00256633 0)
(0.0893753 0.00258666 0)
(0.0883361 0.0026064 0)
(0.0872891 0.00262556 0)
(0.0862346 0.00264416 0)
(0.0851728 0.00266219 0)
(0.0841039 0.00267968 0)
(0.0830281 0.00269663 0)
(0.0819456 0.00271306 0)
(0.0808567 0.00272898 0)
(0.0797616 0.00274439 0)
(0.0786603 0.0027593 0)
(0.0775532 0.00277374 0)
(0.0764405 0.0027877 0)
(0.0753223 0.0028012 0)
(0.0741987 0.00281424 0)
(0.0730701 0.00282685 0)
(0.0719365 0.00283902 0)
(0.0707981 0.00285078 0)
(0.0696551 0.00286212 0)
(0.0685077 0.00287306 0)
(0.0673559 0.00288361 0)
(0.0662001 0.00289378 0)
(0.0650403 0.00290358 0)
(0.0638766 0.00291301 0)
(0.0627092 0.00292209 0)
(0.0615383 0.00293083 0)
(0.0603639 0.00293923 0)
(0.0591863 0.00294731 0)
(0.0580055 0.00295506 0)
(0.0568217 0.00296252 0)
(0.055635 0.00296967 0)
(0.0544455 0.00297653 0)
(0.0532532 0.00298311 0)
(0.0520585 0.00298941 0)
(0.0508612 0.00299545 0)
(0.0496616 0.00300123 0)
(0.0484598 0.00300676 0)
(0.0472558 0.00301205 0)
(0.0460497 0.0030171 0)
(0.0448417 0.00302193 0)
(0.0436318 0.00302653 0)
(0.0424201 0.00303092 0)
(0.0412067 0.00303511 0)
(0.0399917 0.0030391 0)
(0.0387751 0.00304289 0)
(0.037557 0.0030465 0)
(0.0363375 0.00304992 0)
(0.0351168 0.00305318 0)
(0.0338947 0.00305626 0)
(0.0326715 0.00305918 0)
(0.0314471 0.00306195 0)
(0.0302216 0.00306456 0)
(0.0289952 0.00306703 0)
(0.0277677 0.00306936 0)
(0.0265394 0.00307155 0)
(0.0253103 0.00307361 0)
(0.0240803 0.00307554 0)
(0.0228496 0.00307734 0)
(0.0216182 0.00307903 0)
(0.0203862 0.00308061 0)
(0.0191535 0.00308207 0)
(0.0179203 0.00308342 0)
(0.0166866 0.00308467 0)
(0.0154524 0.00308582 0)
(0.0142178 0.00308687 0)
(0.0129827 0.00308782 0)
(0.0117474 0.00308867 0)
(0.0105116 0.00308944 0)
(0.00927564 0.00309011 0)
(0.00803939 0.0030907 0)
(0.00680292 0.0030912 0)
(0.00556627 0.00309162 0)
(0.00432948 0.00309195 0)
(0.00309256 0.00309219 0)
(0.00185557 0.00309236 0)
(0.000618529 0.00309244 0)
(0.000743335 -0.00520245 0)
(0.00222998 -0.00520225 0)
(0.00371653 -0.00520185 0)
(0.00520295 -0.00520126 0)
(0.00668918 -0.00520046 0)
(0.00817515 -0.00519945 0)
(0.00966081 -0.00519823 0)
(0.0111461 -0.0051968 0)
(0.012631 -0.00519514 0)
(0.0141153 -0.00519324 0)
(0.0155991 -0.00519111 0)
(0.0170823 -0.00518872 0)
(0.0185647 -0.00518607 0)
(0.0200464 -0.00518315 0)
(0.0215272 -0.00517994 0)
(0.0230071 -0.00517643 0)
(0.024486 -0.00517261 0)
(0.0259637 -0.00516846 0)
(0.0274402 -0.00516397 0)
(0.0289154 -0.00515911 0)
(0.0303892 -0.00515388 0)
(0.0318615 -0.00514825 0)
(0.0333321 -0.0051422 0)
(0.0348009 -0.00513571 0)
(0.0362679 -0.00512876 0)
(0.0377328 -0.00512134 0)
(0.0391956 -0.00511341 0)
(0.040656 -0.00510496 0)
(0.042114 -0.00509596 0)
(0.0435694 -0.00508639 0)
(0.045022 -0.00507622 0)
(0.0464716 -0.00506543 0)
(0.0479181 -0.00505399 0)
(0.0493613 -0.00504188 0)
(0.0508009 -0.00502907 0)
(0.0522368 -0.00501553 0)
(0.0536687 -0.00500123 0)
(0.0550965 -0.00498616 0)
(0.0565199 -0.00497027 0)
(0.0579387 -0.00495355 0)
(0.0593526 -0.00493595 0)
(0.0607614 -0.00491747 0)
(0.0621649 -0.00489806 0)
(0.0635627 -0.00487771 0)
(0.0649545 -0.00485638 0)
(0.0663402 -0.00483404 0)
(0.0677193 -0.00481067 0)
(0.0690917 -0.00478623 0)
(0.070457 -0.00476072 0)
(0.0718148 -0.00473409 0)
(0.0731649 -0.00470632 0)
(0.074507 -0.00467739 0)
(0.0758406 -0.00464727 0)
(0.0771655 -0.00461594 0)
(0.0784813 -0.00458337 0)
(0.0797876 -0.00454955 0)
(0.0810841 -0.00451446 0)
(0.0823704 -0.00447806 0)
(0.0836462 -0.00444035 0)
(0.084911 -0.00440131 0)
(0.0861645 -0.00436092 0)
(0.0874063 -0.00431916 0)
(0.0886359 -0.00427603 0)
(0.0898531 -0.00423151 0)
(0.0910574 -0.00418558 0)
(0.0922483 -0.00413825 0)
(0.0934255 -0.0040895 0)
(0.0945886 -0.00403933 0)
(0.0957372 -0.00398773 0)
(0.0968708 -0.00393471 0)
(0.097989 -0.00388026 0)
(0.0990915 -0.00382438 0)
(0.100178 -0.00376709 0)
(0.101248 -0.00370837 0)
(0.1023 -0.00364825 0)
(0.103336 -0.00358673 0)
(0.104353 -0.00352382 0)
(0.105353 -0.00345954 0)
(0.106333 -0.00339391 0)
(0.107295 -0.00332694 0)
(0.108238 -0.00325865 0)
(0.10916 -0.00318906 0)
(0.110063 -0.0031182 0)
(0.110945 -0.0030461 0)
(0.111807 -0.00297278 0)
(0.112647 -0.00289827 0)
(0.113466 -0.00282261 0)
(0.114263 -0.00274583 0)
(0.115037 -0.00266797 0)
(0.11579 -0.00258906 0)
(0.116519 -0.00250914 0)
(0.117226 -0.00242825 0)
(0.117909 -0.00234644 0)
(0.118569 -0.00226375 0)
(0.119205 -0.00218022 0)
(0.119817 -0.0020959 0)
(0.120404 -0.00201084 0)
(0.120967 -0.00192509 0)
(0.121506 -0.0018387 0)
(0.122019 -0.00175171 0)
(0.122508 -0.00166418 0)
(0.122972 -0.00157617 0)
(0.12341 -0.00148772 0)
(0.123823 -0.00139888 0)
(0.12421 -0.00130971 0)
(0.124572 -0.00122027 0)
(0.124908 -0.00113061 0)
(0.125218 -0.00104078 0)
(0.125503 -0.000950829 0)
(0.125762 -0.000860821 0)
(0.125995 -0.000770805 0)
(0.126202 -0.000680834 0)
(0.126383 -0.00059096 0)
(0.126539 -0.000501234 0)
(0.126669 -0.000411709 0)
(0.126774 -0.000322434 0)
(0.126853 -0.000233457 0)
(0.126906 -0.000144829 0)
(0.126935 -5.65958e-05 0)
(0.126938 3.11963e-05 0)
(0.126916 0.000118502 0)
(0.126869 0.000205278 0)
(0.126797 0.000291482 0)
(0.126701 0.000377072 0)
(0.12658 0.000462009 0)
(0.126435 0.000546254 0)
(0.126266 0.000629772 0)
(0.126073 0.000712526 0)
(0.125857 0.000794483 0)
(0.125617 0.000875612 0)
(0.125355 0.000955881 0)
(0.125069 0.00103526 0)
(0.124761 0.00111373 0)
(0.12443 0.00119125 0)
(0.124078 0.00126781 0)
(0.123703 0.00134339 0)
(0.123308 0.00141795 0)
(0.122891 0.00149149 0)
(0.122453 0.00156398 0)
(0.121994 0.00163542 0)
(0.121516 0.00170578 0)
(0.121017 0.00177505 0)
(0.120499 0.00184322 0)
(0.119961 0.00191028 0)
(0.119404 0.00197623 0)
(0.118829 0.00204105 0)
(0.118235 0.00210474 0)
(0.117624 0.00216729 0)
(0.116994 0.00222871 0)
(0.116347 0.00228898 0)
(0.115683 0.00234812 0)
(0.115003 0.00240611 0)
(0.114306 0.00246296 0)
(0.113593 0.00251868 0)
(0.112864 0.00257326 0)
(0.112119 0.00262671 0)
(0.11136 0.00267903 0)
(0.110586 0.00273024 0)
(0.109797 0.00278033 0)
(0.108994 0.00282932 0)
(0.108178 0.00287722 0)
(0.107348 0.00292402 0)
(0.106504 0.00296975 0)
(0.105648 0.00301441 0)
(0.104779 0.00305801 0)
(0.103898 0.00310057 0)
(0.103005 0.00314209 0)
(0.1021 0.00318259 0)
(0.101184 0.00322208 0)
(0.100256 0.00326058 0)
(0.0993182 0.00329809 0)
(0.0983694 0.00333463 0)
(0.0974103 0.00337021 0)
(0.0964413 0.00340485 0)
(0.0954625 0.00343856 0)
(0.0944742 0.00347136 0)
(0.0934766 0.00350326 0)
(0.0924701 0.00353427 0)
(0.0914549 0.00356441 0)
(0.0904313 0.0035937 0)
(0.0893994 0.00362215 0)
(0.0883595 0.00364977 0)
(0.0873118 0.00367658 0)
(0.0862566 0.0037026 0)
(0.0851941 0.00372783 0)
(0.0841246 0.0037523 0)
(0.0830481 0.00377602 0)
(0.0819651 0.00379901 0)
(0.0808755 0.00382127 0)
(0.0797798 0.00384283 0)
(0.0786779 0.0038637 0)
(0.0775703 0.00388389 0)
(0.076457 0.00390342 0)
(0.0753382 0.00392231 0)
(0.0742141 0.00394056 0)
(0.0730849 0.00395819 0)
(0.0719508 0.00397522 0)
(0.0708119 0.00399167 0)
(0.0696685 0.00400753 0)
(0.0685206 0.00402284 0)
(0.0673684 0.00403759 0)
(0.0662121 0.00405181 0)
(0.0650518 0.00406552 0)
(0.0638877 0.00407871 0)
(0.0627199 0.00409141 0)
(0.0615486 0.00410363 0)
(0.0603738 0.00411538 0)
(0.0591958 0.00412667 0)
(0.0580146 0.00413752 0)
(0.0568305 0.00414794 0)
(0.0556434 0.00415794 0)
(0.0544535 0.00416753 0)
(0.053261 0.00417673 0)
(0.0520659 0.00418555 0)
(0.0508683 0.00419399 0)
(0.0496684 0.00420207 0)
(0.0484663 0.0042098 0)
(0.047262 0.0042172 0)
(0.0460557 0.00422426 0)
(0.0448474 0.00423101 0)
(0.0436372 0.00423744 0)
(0.0424252 0.00424358 0)
(0.0412116 0.00424943 0)
(0.0399963 0.004255 0)
(0.0387795 0.00426031 0)
(0.0375612 0.00426535 0)
(0.0363415 0.00427014 0)
(0.0351206 0.00427468 0)
(0.0338983 0.00427899 0)
(0.0326749 0.00428308 0)
(0.0314503 0.00428694 0)
(0.0302247 0.00429059 0)
(0.028998 0.00429404 0)
(0.0277704 0.00429729 0)
(0.026542 0.00430035 0)
(0.0253127 0.00430323 0)
(0.0240826 0.00430592 0)
(0.0228517 0.00430845 0)
(0.0216202 0.00431081 0)
(0.020388 0.00431301 0)
(0.0191552 0.00431505 0)
(0.0179219 0.00431694 0)
(0.016688 0.00431868 0)
(0.0154537 0.00432028 0)
(0.014219 0.00432175 0)
(0.0129838 0.00432308 0)
(0.0117483 0.00432427 0)
(0.0105125 0.00432534 0)
(0.00927639 0.00432628 0)
(0.00804004 0.0043271 0)
(0.00680347 0.0043278 0)
(0.00556672 0.00432838 0)
(0.00432982 0.00432884 0)
(0.00309281 0.00432919 0)
(0.00185572 0.00432942 0)
(0.000618578 0.00432953 0)
(0.000743448 -0.0066892 0)
(0.00223032 -0.00668895 0)
(0.0037171 -0.00668844 0)
(0.00520375 -0.00668768 0)
(0.00669021 -0.00668666 0)
(0.00817643 -0.00668538 0)
(0.00966234 -0.00668382 0)
(0.0111479 -0.00668198 0)
(0.012633 -0.00667986 0)
(0.0141176 -0.00667744 0)
(0.0156017 -0.00667471 0)
(0.0170852 -0.00667166 0)
(0.0185679 -0.00666828 0)
(0.0200499 -0.00666454 0)
(0.0215311 -0.00666044 0)
(0.0230113 -0.00665595 0)
(0.0244905 -0.00665107 0)
(0.0259686 -0.00664576 0)
(0.0274456 -0.00664001 0)
(0.0289212 -0.0066338 0)
(0.0303954 -0.0066271 0)
(0.0318682 -0.00661989 0)
(0.0333393 -0.00661215 0)
(0.0348086 -0.00660384 0)
(0.0362761 -0.00659495 0)
(0.0377416 -0.00658544 0)
(0.039205 -0.00657529 0)
(0.040666 -0.00656446 0)
(0.0421247 -0.00655294 0)
(0.0435807 -0.00654067 0)
(0.045034 -0.00652764 0)
(0.0464843 -0.00651381 0)
(0.0479316 -0.00649915 0)
(0.0493755 -0.00648362 0)
(0.050816 -0.0064672 0)
(0.0522527 -0.00644983 0)
(0.0536856 -0.0064315 0)
(0.0551143 -0.00641216 0)
(0.0565386 -0.00639179 0)
(0.0579584 -0.00637033 0)
(0.0593733 -0.00634776 0)
(0.0607831 -0.00632404 0)
(0.0621876 -0.00629914 0)
(0.0635865 -0.00627302 0)
(0.0649795 -0.00624564 0)
(0.0663663 -0.00621696 0)
(0.0677467 -0.00618696 0)
(0.0691203 -0.00615559 0)
(0.0704868 -0.00612283 0)
(0.0718459 -0.00608864 0)
(0.0731974 -0.00605298 0)
(0.0745407 -0.00601582 0)
(0.0758758 -0.00597714 0)
(0.077202 -0.00593689 0)
(0.0785193 -0.00589506 0)
(0.079827 -0.00585161 0)
(0.081125 -0.00580652 0)
(0.0824128 -0.00575976 0)
(0.0836901 -0.00571131 0)
(0.0849565 -0.00566114 0)
(0.0862115 -0.00560923 0)
(0.0874549 -0.00555557 0)
(0.0886861 -0.00550013 0)
(0.0899049 -0.00544291 0)
(0.0911107 -0.00538388 0)
(0.0923033 -0.00532303 0)
(0.0934821 -0.00526037 0)
(0.0946468 -0.00519587 0)
(0.095797 -0.00512953 0)
(0.0969323 -0.00506136 0)
(0.0980522 -0.00499135 0)
(0.0991563 -0.0049195 0)
(0.100244 -0.00484582 0)
(0.101316 -0.00477032 0)
(0.10237 -0.004693 0)
(0.103407 -0.00461388 0)
(0.104426 -0.00453298 0)
(0.105427 -0.00445031 0)
(0.106409 -0.00436589 0)
(0.107373 -0.00427975 0)
(0.108317 -0.00419191 0)
(0.109241 -0.0041024 0)
(0.110145 -0.00401125 0)
(0.111029 -0.0039185 0)
(0.111891 -0.00382418 0)
(0.112733 -0.00372833 0)
(0.113553 -0.00363099 0)
(0.114351 -0.00353222 0)
(0.115127 -0.00343204 0)
(0.115881 -0.00333051 0)
(0.116611 -0.00322769 0)
(0.117319 -0.00312362 0)
(0.118003 -0.00301836 0)
(0.118664 -0.00291196 0)
(0.119301 -0.00280449 0)
(0.119913 -0.002696 0)
(0.120502 -0.00258656 0)
(0.121066 -0.00247622 0)
(0.121605 -0.00236506 0)
(0.122119 -0.00225313 0)
(0.122608 -0.0021405 0)
(0.123073 -0.00202725 0)
(0.123511 -0.00191343 0)
(0.123924 -0.00179912 0)
(0.124312 -0.00168439 0)
(0.124674 -0.0015693 0)
(0.12501 -0.00145393 0)
(0.125321 -0.00133834 0)
(0.125606 -0.0012226 0)
(0.125865 -0.00110678 0)
(0.126098 -0.000990958 0)
(0.126305 -0.000875191 0)
(0.126486 -0.00075955 0)
(0.126642 -0.000644101 0)
(0.126772 -0.000528911 0)
(0.126876 -0.000414044 0)
(0.126955 -0.000299564 0)
(0.127008 -0.000185532 0)
(0.127035 -7.20097e-05 0)
(0.127038 4.0943e-05 0)
(0.127015 0.000153268 0)
(0.126968 0.00026491 0)
(0.126895 0.000375814 0)
(0.126798 0.000485926 0)
(0.126677 0.000595196 0)
(0.126531 0.000703575 0)
(0.126361 0.000811015 0)