/*--------------------------------*- C++ -*----------------------------------*\
| =========                 |                                                 |
| \\      /  F ield         | OpenFOAM: The Open Source CFD Toolbox           |
|  \\    /   O peration     | Version:  v2012                                 |
|   \\  /    A nd           | Website:  www.openfoam.com                      |
|    \\/     M anipulation  |                                                 |
\*---------------------------------------------------------------------------*/
FoamFile
{
    version     2.0;
    format      ascii;
    class       surfaceScalarField;
    location    "10.8";
    object      phi;
}
// * * * * * * * * * * * * * * * * * * * * * * * * * * * * * * * * * * * * * //

dimensions      [0 3 -1 0 0 0 0];
oriented        oriented;


internalField   nonuniform List<scalar> 
130560
(
3.64632e-06
-3.64632e-06
7.29275e-06
-3.64643e-06
1.09394e-05
-3.64666e-06
1.45864e-05
-3.64699e-06
1.82338e-05
-3.64743e-06
2.18818e-05
-3.64798e-06
2.55304e-05
-3.64863e-06
2.91798e-05
-3.64938e-06
3.283e-05
-3.65021e-06
3.64812e-05
-3.65114e-06
4.01333e-05
-3.65214e-06
4.37865e-05
-3.65321e-06
4.74409e-05
-3.65435e-06
5.10964e-05
-3.65554e-06
5.47532e-05
-3.65677e-06
5.84112e-05
-3.65804e-06
6.20706e-05
-3.65933e-06
6.57312e-05
-3.66064e-06
6.93931e-05
-3.66194e-06
7.30563e-05
-3.66322e-06
7.67208e-05
-3.66447e-06
8.03865e-05
-3.66568e-06
8.40533e-05
-3.66682e-06
8.77212e-05
-3.66789e-06
9.13901e-05
-3.66886e-06
9.50598e-05
-3.66971e-06
9.87302e-05
-3.67043e-06
0.000102401
-3.671e-06
0.000106073
-3.67139e-06
0.000109744
-3.67159e-06
0.000113416
-3.67157e-06
0.000117087
-3.67131e-06
0.000120758
-3.67078e-06
0.000124428
-3.66997e-06
0.000128097
-3.66884e-06
0.000131764
-3.66736e-06
0.00013543
-3.66553e-06
0.000139093
-3.6633e-06
0.000142753
-3.66064e-06
0.000146411
-3.65754e-06
0.000150065
-3.65395e-06
0.000153715
-3.64986e-06
0.00015736
-3.64523e-06
0.000161
-3.64003e-06
0.000164634
-3.63422e-06
0.000168262
-3.62779e-06
0.000171883
-3.62069e-06
0.000175496
-3.61289e-06
0.0001791
-3.60436e-06
0.000182695
-3.59507e-06
0.00018628
-3.58499e-06
0.000189854
-3.57408e-06
0.000193416
-3.5623e-06
0.000196966
-3.54964e-06
0.000200502
-3.53604e-06
0.000204024
-3.52149e-06
0.00020753
-3.50594e-06
0.000211019
-3.48937e-06
0.000214491
-3.47174e-06
0.000217944
-3.45303e-06
0.000221377
-3.43319e-06
0.000224789
-3.41221e-06
0.000228179
-3.39005e-06
0.000231546
-3.36668e-06
0.000234888
-3.34208e-06
0.000238204
-3.31622e-06
0.000241493
-3.28908e-06
0.000244754
-3.26062e-06
0.000247985
-3.23084e-06
0.000251184
-3.19969e-06
0.000254352
-3.16718e-06
0.000257485
-3.13327e-06
0.000260583
-3.09796e-06
0.000263644
-3.06122e-06
0.000266667
-3.02305e-06
0.000269651
-2.98343e-06
0.000272593
-2.94236e-06
0.000275493
-2.89983e-06
0.000278349
-2.85583e-06
0.000281159
-2.81036e-06
0.000283922
-2.76342e-06
0.000286637
-2.71502e-06
0.000289303
-2.66516e-06
0.000291916
-2.61385e-06
0.000294477
-2.5611e-06
0.000296984
-2.50691e-06
0.000299436
-2.45132e-06
0.00030183
-2.39432e-06
0.000304166
-2.33596e-06
0.000306442
-2.27624e-06
0.000308657
-2.2152e-06
0.00031081
-2.15286e-06
0.0003129
-2.08925e-06
0.000314924
-2.02441e-06
0.000316882
-1.95838e-06
0.000318773
-1.89118e-06
0.000320596
-1.82287e-06
0.00032235
-1.75349e-06
0.000324033
-1.68308e-06
0.000325645
-1.61169e-06
0.000327184
-1.53936e-06
0.00032865
-1.46616e-06
0.000330042
-1.39213e-06
0.00033136
-1.31733e-06
0.000332601
-1.24181e-06
0.000333767
-1.16564e-06
0.000334856
-1.08887e-06
0.000335867
-1.01156e-06
0.000336801
-9.3377e-07
0.000337657
-8.55569e-07
0.000338434
-7.77018e-07
0.000339132
-6.98178e-07
0.000339751
-6.19114e-07
0.000340291
-5.39889e-07
0.000340752
-4.60568e-07
0.000341133
-3.81215e-07
0.000341435
-3.01893e-07
0.000341657
-2.22666e-07
0.000341801
-1.43597e-07
0.000341866
-6.47466e-08
0.000341852
1.38225e-08
0.00034176
9.20505e-08
0.00034159
1.69878e-07
0.000341343
2.47247e-07
0.000341019
3.24102e-07
0.000340618
4.00385e-07
0.000340142
4.76046e-07
0.000339591
5.5103e-07
0.000338966
6.25288e-07
0.000338267
6.98771e-07
0.000337496
7.71434e-07
0.000336652
8.43231e-07
0.000335738
9.1412e-07
0.000334754
9.8406e-07
0.000333701
1.05301e-06
0.00033258
1.12095e-06
0.000331392
1.18782e-06
0.000330139
1.25361e-06
0.000328821
1.31828e-06
0.000327439
1.3818e-06
0.000325995
1.44415e-06
0.000324489
1.50532e-06
0.000322924
1.56527e-06
0.0003213
1.62398e-06
0.000319619
1.68145e-06
0.000317881
1.73766e-06
0.000316088
1.7926e-06
0.000314242
1.84626e-06
0.000312343
1.89862e-06
0.000310394
1.94969e-06
0.000308394
1.99945e-06
0.000306346
2.04792e-06
0.000304251
2.09508e-06
0.00030211
2.14094e-06
0.000299925
2.18551e-06
0.000297696
2.22878e-06
0.000295425
2.27076e-06
0.000293114
2.31147e-06
0.000290763
2.35091e-06
0.000288374
2.38909e-06
0.000285948
2.42602e-06
0.000283486
2.46172e-06
0.00028099
2.4962e-06
0.00027846
2.52947e-06
0.000275899
2.56156e-06
0.000273306
2.59247e-06
0.000270684
2.62223e-06
0.000268033
2.65086e-06
0.000265355
2.67837e-06
0.00026265
2.70479e-06
0.00025992
2.73013e-06
0.000257166
2.75442e-06
0.000254388
2.77767e-06
0.000251588
2.79992e-06
0.000248767
2.82118e-06
0.000245925
2.84148e-06
0.000243065
2.86083e-06
0.000240185
2.87927e-06
0.000237288
2.89681e-06
0.000234375
2.91348e-06
0.000231446
2.92931e-06
0.000228501
2.9443e-06
0.000225543
2.9585e-06
0.000222571
2.97192e-06
0.000219586
2.98459e-06
0.00021659
2.99653e-06
0.000213582
3.00776e-06
0.000210564
3.01831e-06
0.000207536
3.02819e-06
0.000204498
3.03744e-06
0.000201452
3.04607e-06
0.000198398
3.05411e-06
0.000195336
3.06158e-06
0.000192268
3.06849e-06
0.000189193
3.07488e-06
0.000186112
3.08077e-06
0.000183026
3.08616e-06
0.000179935
3.09109e-06
0.000176839
3.09557e-06
0.00017374
3.09963e-06
0.000170636
3.10328e-06
0.00016753
3.10654e-06
0.00016442
3.10943e-06
0.000161309
3.11197e-06
0.000158194
3.11417e-06
0.000155078
3.11606e-06
0.000151961
3.11765e-06
0.000148842
3.11896e-06
0.000145722
3.12e-06
0.000142601
3.12079e-06
0.00013948
3.12134e-06
0.000136358
3.12167e-06
0.000133236
3.1218e-06
0.000130114
3.12174e-06
0.000126993
3.12149e-06
0.000123872
3.12109e-06
0.000120751
3.12053e-06
0.000117631
3.11983e-06
0.000114512
3.119e-06
0.000111394
3.11806e-06
0.000108277
3.11702e-06
0.000105161
3.11588e-06
0.000102047
3.11466e-06
9.89334e-05
3.11337e-06
9.58214e-05
3.11202e-06
9.27108e-05
3.11062e-06
8.96016e-05
3.10917e-06
8.64939e-05
3.10769e-06
8.33877e-05
3.10619e-06
8.02831e-05
3.10467e-06
7.71799e-05
3.10314e-06
7.40783e-05
3.10161e-06
7.09782e-05
3.10009e-06
6.78796e-05
3.09857e-06
6.47826e-05
3.09708e-06
6.16869e-05
3.09562e-06
5.85928e-05
3.09418e-06
5.55e-05
3.09278e-06
5.24085e-05
3.09143e-06
4.93184e-05
3.09012e-06
4.62296e-05
3.08887e-06
4.31419e-05
3.08767e-06
4.00553e-05
3.08654e-06
3.69699e-05
3.08547e-06
3.38854e-05
3.08447e-06
3.08019e-05
3.08354e-06
2.77192e-05
3.08268e-06
2.46373e-05
3.0819e-06
2.15561e-05
3.08121e-06
1.84755e-05
3.08059e-06
1.53954e-05
3.08006e-06
1.23158e-05
3.07962e-06
9.23654e-06
3.07926e-06
6.15755e-06
3.07899e-06
3.07873e-06
3.07882e-06
3.07873e-06
3.64621e-06
-7.29253e-06
7.29253e-06
-7.29275e-06
1.09391e-05
-7.29321e-06
1.4586e-05
-7.29388e-06
1.82333e-05
-7.29476e-06
2.18812e-05
-7.29586e-06
2.55297e-05
-7.29716e-06
2.9179e-05
-7.29866e-06
3.28291e-05
-7.30034e-06
3.64802e-05
-7.3022e-06
4.01323e-05
-7.30421e-06
4.37854e-05
-7.30636e-06
4.74397e-05
-7.30864e-06
5.10952e-05
-7.31103e-06
5.47519e-05
-7.31352e-06
5.841e-05
-7.31606e-06
6.20693e-05
-7.31866e-06
6.57299e-05
-7.32128e-06
6.93919e-05
-7.32389e-06
7.30551e-05
-7.32647e-06
7.67196e-05
-7.32899e-06
8.03854e-05
-7.33142e-06
8.40523e-05
-7.33372e-06
8.77203e-05
-7.33587e-06
9.13892e-05
-7.33783e-06
9.50591e-05
-7.33956e-06
9.87297e-05
-7.34102e-06
0.000102401
-7.34218e-06
0.000106072
-7.34298e-06
0.000109744
-7.3434e-06
0.000113416
-7.34338e-06
0.000117088
-7.34288e-06
0.000120759
-7.34185e-06
0.000124429
-7.34025e-06
0.000128098
-7.33801e-06
0.000131766
-7.3351e-06
0.000135432
-7.33145e-06
0.000139096
-7.32701e-06
0.000142757
-7.32173e-06
0.000146415
-7.31555e-06
0.000150069
-7.30842e-06
0.00015372
-7.30026e-06
0.000157365
-7.29103e-06
0.000161006
-7.28066e-06
0.000164641
-7.26908e-06
0.000168269
-7.25624e-06
0.000171891
-7.24207e-06
0.000175504
-7.22651e-06
0.000179109
-7.20949e-06
0.000182705
-7.19094e-06
0.000186291
-7.17081e-06
0.000189866
-7.14902e-06
0.000193429
-7.1255e-06
0.00019698
-7.1002e-06
0.000200517
-7.07304e-06
0.000204039
-7.04397e-06
0.000207546
-7.0129e-06
0.000211037
-6.97979e-06
0.000214509
-6.94457e-06
0.000217964
-6.90717e-06
0.000221398
-6.86753e-06
0.000224811
-6.8256e-06
0.000228203
-6.7813e-06
0.00023157
-6.7346e-06
0.000234914
-6.68542e-06
0.000238231
-6.63373e-06
0.000241522
-6.57946e-06
0.000244784
-6.52258e-06
0.000248016
-6.46302e-06
0.000251217
-6.40076e-06
0.000254385
-6.33575e-06
0.00025752
-6.26796e-06
0.00026062
-6.19734e-06
0.000263682
-6.12388e-06
0.000266707
-6.04755e-06
0.000269692
-5.96832e-06
0.000272635
-5.88618e-06
0.000275537
-5.80112e-06
0.000278394
-5.71312e-06
0.000281206
-5.62218e-06
0.000283971
-5.52831e-06
0.000286687
-5.4315e-06
0.000289354
-5.33177e-06
0.000291969
-5.22914e-06
0.000294532
-5.12362e-06
0.00029704
-5.01524e-06
0.000299493
-4.90403e-06
0.000301888
-4.79002e-06
0.000304226
-4.67327e-06
0.000306503
-4.5538e-06
0.00030872
-4.43169e-06
0.000310874
-4.30698e-06
0.000312964
-4.17973e-06
0.00031499
-4.05001e-06
0.000316949
-3.91791e-06
0.000318842
-3.78348e-06
0.000320666
-3.64682e-06
0.00032242
-3.508e-06
0.000324104
-3.36713e-06
0.000325717
-3.2243e-06
0.000327257
-3.0796e-06
0.000328724
-2.93314e-06
0.000330117
-2.78503e-06
0.000331435
-2.63537e-06
0.000332677
-2.48428e-06
0.000333844
-2.33187e-06
0.000334933
-2.17827e-06
0.000335945
-2.02359e-06
0.000336879
-1.86795e-06
0.000337735
-1.71149e-06
0.000338513
-1.55432e-06
0.000339211
-1.39658e-06
0.00033983
-1.23839e-06
0.00034037
-1.07987e-06
0.000340831
-9.21167e-07
0.000341212
-7.62397e-07
0.000341514
-6.0369e-07
0.000341736
-4.45173e-07
0.00034188
-2.86972e-07
0.000341944
-1.2921e-07
0.00034193
2.79884e-08
0.000341838
1.84504e-07
0.000341667
3.40217e-07
0.000341419
4.95012e-07
0.000341095
6.48775e-07
0.000340694
8.01397e-07
0.000340217
9.52769e-07
0.000339665
1.10279e-06
0.000339039
1.25135e-06
0.00033834
1.39837e-06
0.000337567
1.54373e-06
0.000336723
1.68737e-06
0.000335808
1.82919e-06
0.000334823
1.96911e-06
0.000333769
2.10705e-06
0.000332647
2.24295e-06
0.000331458
2.37673e-06
0.000330203
2.50833e-06
0.000328884
2.6377e-06
0.000327501
2.76477e-06
0.000326056
2.8895e-06
0.000324549
3.01185e-06
0.000322983
3.13176e-06
0.000321357
3.24922e-06
0.000319675
3.36417e-06
0.000317936
3.4766e-06
0.000316142
3.58649e-06
0.000314294
3.6938e-06
0.000312394
3.79853e-06
0.000310443
3.90067e-06
0.000308443
4.00021e-06
0.000306393
4.09714e-06
0.000304297
4.19146e-06
0.000302155
4.28318e-06
0.000299968
4.37231e-06
0.000297738
4.45884e-06
0.000295466
4.54281e-06
0.000293153
4.62421e-06
0.000290801
4.70308e-06
0.000288411
4.77942e-06
0.000285983
4.85327e-06
0.00028352
4.92466e-06
0.000281023
4.9936e-06
0.000278492
5.06013e-06
0.00027593
5.12428e-06
0.000273336
5.1861e-06
0.000270713
5.2456e-06
0.000268061
5.30283e-06
0.000265381
5.35784e-06
0.000262675
5.41065e-06
0.000259944
5.46131e-06
0.000257189
5.50987e-06
0.00025441
5.55636e-06
0.000251609
5.60083e-06
0.000248787
5.64333e-06
0.000245945
5.6839e-06
0.000243083
5.72258e-06
0.000240203
5.75943e-06
0.000237305
5.79449e-06
0.000234391
5.82781e-06
0.00023146
5.85943e-06
0.000228515
5.88941e-06
0.000225556
5.91778e-06
0.000222583
5.9446e-06
0.000219598
5.96991e-06
0.000216601
5.99376e-06
0.000213592
6.0162e-06
0.000210573
6.03727e-06
0.000207545
6.05702e-06
0.000204507
6.07549e-06
0.00020146
6.09273e-06
0.000198405
6.10879e-06
0.000195343
6.1237e-06
0.000192274
6.13752e-06
0.000189199
6.15027e-06
0.000186117
6.16202e-06
0.000183031
6.17279e-06
0.000179939
6.18262e-06
0.000176843
6.19157e-06
0.000173743
6.19966e-06
0.00017064
6.20694e-06
0.000167533
6.21344e-06
0.000164423
6.21921e-06
0.000161311
6.22427e-06
0.000158196
6.22866e-06
0.00015508
6.23242e-06
0.000151962
6.23559e-06
0.000148843
6.23818e-06
0.000145722
6.24025e-06
0.000142601
6.24181e-06
0.00013948
6.2429e-06
0.000136358
6.24355e-06
0.000133236
6.24379e-06
0.000130114
6.24365e-06
0.000126992
6.24315e-06
0.000123871
6.24232e-06
0.00012075
6.24119e-06
0.00011763
6.23978e-06
0.000114511
6.23812e-06
0.000111393
6.23622e-06
0.000108276
6.23412e-06
0.00010516
6.23184e-06
0.000102045
6.22939e-06
9.8932e-05
6.2268e-06
9.58199e-05
6.22409e-06
9.27093e-05
6.22128e-06
8.96001e-05
6.21838e-06
8.64923e-05
6.21541e-06
8.33861e-05
6.2124e-06
8.02815e-05
6.20935e-06
7.71783e-05
6.20628e-06
7.40767e-05
6.20321e-06
7.09767e-05
6.20016e-06
6.78781e-05
6.19713e-06
6.4781e-05
6.19413e-06
6.16855e-05
6.1912e-06
5.85913e-05
6.18832e-06
5.54986e-05
6.18552e-06
5.24072e-05
6.18281e-06
4.93171e-05
6.18019e-06
4.62283e-05
6.17768e-06
4.31407e-05
6.17528e-06
4.00542e-05
6.17301e-06
3.69689e-05
6.17086e-06
3.38845e-05
6.16886e-06
3.0801e-05
6.16699e-06
2.77184e-05
6.16528e-06
2.46366e-05
6.16373e-06
2.15555e-05
6.16233e-06
1.84749e-05
6.1611e-06
1.5395e-05
6.16004e-06
1.23154e-05
6.15915e-06
9.23627e-06
6.15843e-06
6.15736e-06
6.1579e-06
3.07864e-06
6.15754e-06
6.15737e-06
3.64598e-06
-1.09385e-05
7.29208e-06
-1.09389e-05
1.09384e-05
-1.09395e-05
1.45851e-05
-1.09405e-05
1.82322e-05
-1.09419e-05
2.18799e-05
-1.09435e-05
2.55282e-05
-1.09455e-05
2.91773e-05
-1.09478e-05
3.28273e-05
-1.09503e-05
3.64782e-05
-1.09531e-05
4.01301e-05
-1.09561e-05
4.37831e-05
-1.09594e-05
4.74373e-05
-1.09628e-05
5.10927e-05
-1.09664e-05
5.47494e-05
-1.09702e-05
5.84074e-05
-1.0974e-05
6.20667e-05
-1.0978e-05
6.57273e-05
-1.09819e-05
6.93893e-05
-1.09859e-05
7.30526e-05
-1.09898e-05
7.67172e-05
-1.09936e-05
8.03831e-05
-1.09973e-05
8.40501e-05
-1.10008e-05
8.77183e-05
-1.1004e-05
9.13875e-05
-1.1007e-05
9.50576e-05
-1.10097e-05
9.87285e-05
-1.10119e-05
0.0001024
-1.10137e-05
0.000106072
-1.1015e-05
0.000109744
-1.10156e-05
0.000113417
-1.10157e-05
0.000117089
-1.1015e-05
0.00012076
-1.10135e-05
0.000124431
-1.10112e-05
0.000128101
-1.10079e-05
0.00013177
-1.10036e-05
0.000135436
-1.09982e-05
0.000139101
-1.09916e-05
0.000142763
-1.09837e-05
0.000146422
-1.09745e-05
0.000150077
-1.09639e-05
0.000153729
-1.09517e-05
0.000157376
-1.0938e-05
0.000161018
-1.09225e-05
0.000164654
-1.09052e-05
0.000168283
-1.0886e-05
0.000171906
-1.08648e-05
0.000175521
-1.08416e-05
0.000179128
-1.08161e-05
0.000182725
-1.07884e-05
0.000186313
-1.07583e-05
0.00018989
-1.07257e-05
0.000193454
-1.06905e-05
0.000197007
-1.06526e-05
0.000200546
-1.0612e-05
0.00020407
-1.05684e-05
0.000207579
-1.05219e-05
0.000211072
-1.04723e-05
0.000214547
-1.04196e-05
0.000218003
-1.03635e-05
0.00022144
-1.03042e-05
0.000224856
-1.02413e-05
0.000228249
-1.0175e-05
0.00023162
-1.0105e-05
0.000234966
-1.00313e-05
0.000238286
-9.95381e-06
0.000241579
-9.87247e-06
0.000244843
-9.7872e-06
0.000248078
-9.69792e-06
0.000251282
-9.60458e-06
0.000254453
-9.50711e-06
0.000257591
-9.40546e-06
0.000260693
-9.29957e-06
0.000263759
-9.18941e-06
0.000266786
-9.07494e-06
0.000269774
-8.95612e-06
0.000272721
-8.83293e-06
0.000275625
-8.70534e-06
0.000278485
-8.57335e-06
0.0002813
-8.43694e-06
0.000284068
-8.29613e-06
0.000286787
-8.1509e-06
0.000289456
-8.00129e-06
0.000292075
-7.84732e-06
0.00029464
-7.689e-06
0.000297151
-7.52639e-06
0.000299607
-7.35953e-06
0.000302005
-7.18847e-06
0.000304345
-7.01328e-06
0.000306625
-6.83402e-06
0.000308844
-6.65078e-06
0.000311001
-6.46363e-06
0.000313094
-6.27268e-06
0.000315122
-6.07801e-06
0.000317084
-5.87975e-06
0.000318978
-5.67801e-06
0.000320805
-5.47291e-06
0.000322561
-5.26458e-06
0.000324247
-5.05315e-06
0.000325862
-4.83878e-06
0.000327404
-4.6216e-06
0.000328872
-4.40178e-06
0.000330267
-4.17947e-06
0.000331586
-3.95484e-06
0.00033283
-3.72806e-06
0.000333997
-3.4993e-06
0.000335088
-3.26874e-06
0.000336101
-3.03657e-06
0.000337036
-2.80296e-06
0.000337892
-2.56811e-06
0.00033867
-2.3322e-06
0.000339369
-2.09543e-06
0.000339989
-1.85798e-06
0.000340529
-1.62005e-06
0.00034099
-1.38183e-06
0.000341371
-1.14352e-06
0.000341672
-9.05297e-07
0.000341895
-6.67365e-07
0.000342038
-4.29907e-07
0.000342101
-1.93112e-07
0.000342087
4.28368e-08
0.000341993
2.77758e-07
0.000341822
5.11473e-07
0.000341573
7.43807e-07
0.000341247
9.7459e-07
0.000340845
1.20366e-06
0.000340367
1.43084e-06
0.000339814
1.656e-06
0.000339186
1.87897e-06
0.000338485
2.0996e-06
0.000337711
2.31777e-06
0.000336865
2.53333e-06
0.000335948
2.74616e-06
0.000334961
2.95613e-06
0.000333905
3.16314e-06
0.000332781
3.36707e-06
0.00033159
3.56782e-06
0.000330333
3.7653e-06
0.000329011
3.95941e-06
0.000327626
4.15008e-06
0.000326178
4.33724e-06
0.000324669
4.52081e-06
0.0003231
4.70073e-06
0.000321472
4.87694e-06
0.000319787
5.04941e-06
0.000318046
5.21809e-06
0.000316249
5.38294e-06
0.000314399
5.54393e-06
0.000312497
5.70104e-06
0.000310543
5.85426e-06
0.00030854
6.00357e-06
0.000306488
6.14897e-06
0.000304389
6.29045e-06
0.000302244
6.42802e-06
0.000300055
6.5617e-06
0.000297822
6.69149e-06
0.000295547
6.81741e-06
0.000293232
6.93949e-06
0.000290877
7.05776e-06
0.000288485
7.17225e-06
0.000286055
7.283e-06
0.000283589
7.39003e-06
0.00028109
7.49341e-06
0.000278557
7.59317e-06
0.000275992
7.68936e-06
0.000273396
7.78203e-06
0.00027077
7.87124e-06
0.000268116
7.95704e-06
0.000265434
8.03949e-06
0.000262726
8.11866e-06
0.000259993
8.1946e-06
0.000257235
8.26738e-06
0.000254455
8.33706e-06
0.000251652
8.40371e-06
0.000248828
8.46741e-06
0.000245983
8.5282e-06
0.00024312
8.58617e-06
0.000240238
8.64139e-06
0.000237338
8.69392e-06
0.000234422
8.74384e-06
0.000231491
8.79121e-06
0.000228544
8.83611e-06
0.000225583
8.87861e-06
0.000222609
8.91878e-06
0.000219622
8.95669e-06
0.000216623
8.99241e-06
0.000213614
9.02601e-06
0.000210593
9.05756e-06
0.000207563
9.08712e-06
0.000204524
9.11478e-06
0.000201476
9.14059e-06
0.00019842
9.16461e-06
0.000195357
9.18693e-06
0.000192287
9.2076e-06
0.000189211
9.22668e-06
0.000186128
9.24424e-06
0.000183041
9.26034e-06
0.000179948
9.27505e-06
0.000176851
9.28842e-06
0.000173751
9.30051e-06
0.000170646
9.31138e-06
0.000167539
9.32109e-06
0.000164428
9.32969e-06
0.000161315
9.33724e-06
0.0001582
9.34378e-06
0.000155083
9.34938e-06
0.000151964
9.35409e-06
0.000148845
9.35794e-06
0.000145724
9.361e-06
0.000142602
9.3633e-06
0.00013948
9.3649e-06
0.000136358
9.36584e-06
0.000133236
9.36617e-06
0.000130114
9.36592e-06
0.000126992
9.36513e-06
0.00012387
9.36386e-06
0.000120749
9.36213e-06
0.000117629
9.35998e-06
0.00011451
9.35746e-06
0.000111391
9.35459e-06
0.000108274
9.35142e-06
0.000105158
9.34796e-06
0.000102043
9.34427e-06
9.89293e-05
9.34036e-06
9.58171e-05
9.33627e-06
9.27064e-05
9.33202e-06
8.95971e-05
9.32765e-06
8.64894e-05
9.32318e-06
8.33831e-05
9.31863e-06
8.02784e-05
9.31404e-06
7.71753e-05
9.30942e-06
7.40737e-05
9.3048e-06
7.09736e-05
9.3002e-06
6.78751e-05
9.29564e-06
6.47781e-05
9.29114e-06
6.16826e-05
9.28672e-06
5.85885e-05
9.28239e-06
5.54959e-05
9.27818e-06
5.24046e-05
9.27409e-06
4.93146e-05
9.27016e-06
4.62259e-05
9.26638e-06
4.31385e-05
9.26277e-06
4.00521e-05
9.25935e-06
3.69669e-05
9.25612e-06
3.38826e-05
9.25311e-06
3.07993e-05
9.2503e-06
2.77169e-05
9.24773e-06
2.46352e-05
9.24539e-06
2.15542e-05
9.24329e-06
1.84739e-05
9.24144e-06
1.53941e-05
9.23984e-06
1.23147e-05
9.23851e-06
9.23573e-06
9.23743e-06
6.15701e-06
9.23663e-06
3.07846e-06
9.23609e-06
9.23582e-06
3.64564e-06
-1.45842e-05
7.2914e-06
-1.45846e-05
1.09374e-05
-1.45855e-05
1.45837e-05
-1.45869e-05
1.82305e-05
-1.45887e-05
2.18779e-05
-1.45909e-05
2.55259e-05
-1.45936e-05
2.91748e-05
-1.45966e-05
3.28245e-05
-1.46e-05
3.64751e-05
-1.46038e-05
4.01268e-05
-1.46078e-05
4.37797e-05
-1.46122e-05
4.74337e-05
-1.46168e-05
5.10889e-05
-1.46217e-05
5.47455e-05
-1.46268e-05
5.84034e-05
-1.46319e-05
6.20627e-05
-1.46372e-05
6.57233e-05
-1.46426e-05
6.93854e-05
-1.46479e-05
7.30488e-05
-1.46532e-05
7.67135e-05
-1.46583e-05
8.03796e-05
-1.46633e-05
8.40468e-05
-1.46681e-05
8.77153e-05
-1.46725e-05
9.13848e-05
-1.46766e-05
9.50554e-05
-1.46802e-05
9.87267e-05
-1.46833e-05
0.000102399
-1.46857e-05
0.000106071
-1.46875e-05
0.000109744
-1.46885e-05
0.000113417
-1.46887e-05
0.00011709
-1.46879e-05
0.000120763
-1.4686e-05
0.000124434
-1.4683e-05
0.000128105
-1.46787e-05
0.000131775
-1.46731e-05
0.000135443
-1.4666e-05
0.000139109
-1.46574e-05
0.000142772
-1.46471e-05
0.000146432
-1.46349e-05
0.000150089
-1.46209e-05
0.000153742
-1.46048e-05
0.000157391
-1.45866e-05
0.000161035
-1.45661e-05
0.000164673
-1.45432e-05
0.000168305
-1.45178e-05
0.000171929
-1.44897e-05
0.000175547
-1.44589e-05
0.000179156
-1.44251e-05
0.000182755
-1.43882e-05
0.000186345
-1.43482e-05
0.000189925
-1.43049e-05
0.000193492
-1.42582e-05
0.000197048
-1.42078e-05
0.000200589
-1.41538e-05
0.000204117
-1.40959e-05
0.000207629
-1.4034e-05
0.000211125
-1.3968e-05
0.000214603
-1.38978e-05
0.000218063
-1.38233e-05
0.000221503
-1.37443e-05
0.000224922
-1.36606e-05
0.000228319
-1.35723e-05
0.000231693
-1.34791e-05
0.000235043
-1.33809e-05
0.000238367
-1.32778e-05
0.000241664
-1.31694e-05
0.000244933
-1.30558e-05
0.000248172
-1.29369e-05
0.000251379
-1.28125e-05
0.000254555
-1.26826e-05
0.000257697
-1.25472e-05
0.000260803
-1.24061e-05
0.000263873
-1.22593e-05
0.000266905
-1.21067e-05
0.000269897
-1.19483e-05
0.000272848
-1.17841e-05
0.000275757
-1.1614e-05
0.000278621
-1.1438e-05
0.000281441
-1.12561e-05
0.000284213
-1.10684e-05
0.000286937
-1.08747e-05
0.000289611
-1.06752e-05
0.000292233
-1.04698e-05
0.000294803
-1.02587e-05
0.000297318
-1.00418e-05
0.000299778
-9.81923e-06
0.00030218
-9.59106e-06
0.000304524
-9.35736e-06
0.000306809
-9.11823e-06
0.000309032
-8.87377e-06
0.000311192
-8.6241e-06
0.000313289
-8.36933e-06
0.00031532
-8.10962e-06
0.000317286
-7.84509e-06
0.000319184
-7.57591e-06
0.000321013
-7.30224e-06
0.000322773
-7.02425e-06
0.000324462
-6.74213e-06
0.000326079
-6.45606e-06
0.000327624
-6.16625e-06
0.000329095
-5.87291e-06
0.000330491
-5.57624e-06
0.000331813
-5.27647e-06
0.000333059
-4.97382e-06
0.000334228
-4.66853e-06
0.00033532
-4.36084e-06
0.000336335
-4.05099e-06
0.000337271
-3.73922e-06
0.000338129
-3.42579e-06
0.000338907
-3.11095e-06
0.000339607
-2.79495e-06
0.000340227
-2.47806e-06
0.000340767
-2.16052e-06
0.000341228
-1.84259e-06
0.000341609
-1.52454e-06
0.00034191
-1.20662e-06
0.000342132
-8.89083e-07
0.000342274
-5.72182e-07
0.000342337
-2.56169e-07
0.000342322
5.87118e-08
0.000342227
3.72217e-07
0.000342055
6.84108e-07
0.000341804
9.94152e-07
0.000341477
1.30212e-06
0.000341073
1.60779e-06
0.000340592
1.91095e-06
0.000340037
2.21139e-06
0.000339407
2.50891e-06
0.000338703
2.80331e-06
0.000337927
3.09441e-06
0.000337078
3.38202e-06
0.000336158
3.66598e-06
0.000335168
3.94612e-06
0.000334109
4.2223e-06
0.000332982
4.49436e-06
0.000331787
4.76218e-06
0.000330527
5.02562e-06
0.000329202
5.28457e-06
0.000327813
5.53891e-06
0.000326362
5.78856e-06
0.000324849
6.03341e-06
0.000323276
6.27339e-06
0.000321645
6.50842e-06
0.000319956
6.73845e-06
0.000318211
6.9634e-06
0.00031641
7.18325e-06
0.000314556
7.39794e-06
0.00031265
7.60745e-06
0.000310692
7.81176e-06
0.000308685
8.01085e-06
0.000306629
8.20471e-06
0.000304527
8.39334e-06
0.000302378
8.57676e-06
0.000300185
8.75497e-06
0.000297948
8.92799e-06
0.00029567
9.09585e-06
0.00029335
9.25859e-06
0.000290992
9.41623e-06
0.000288595
9.56883e-06
0.000286162
9.71643e-06
0.000283693
9.85908e-06
0.00028119
9.99684e-06
0.000278653
1.01298e-05
0.000276084
1.02579e-05
0.000273485
1.03814e-05
0.000270856
1.05003e-05
0.000268198
1.06146e-05
0.000265513
1.07244e-05
0.000262802
1.08299e-05
0.000260066
1.09311e-05
0.000257305
1.1028e-05
0.000254521
1.11208e-05
0.000251716
1.12096e-05
0.000248889
1.12944e-05
0.000246041
1.13753e-05
0.000243175
1.14525e-05
0.00024029
1.1526e-05
0.000237388
1.1596e-05
0.00023447
1.16624e-05
0.000231536
1.17255e-05
0.000228586
1.17852e-05
0.000225623
1.18418e-05
0.000222647
1.18952e-05
0.000219658
1.19457e-05
0.000216657
1.19932e-05
0.000213645
1.20379e-05
0.000210623
1.20798e-05
0.000207591
1.21191e-05
0.00020455
1.21559e-05
0.0002015
1.21902e-05
0.000198443
1.22222e-05
0.000195378
1.22518e-05
0.000192306
1.22793e-05
0.000189228
1.23046e-05
0.000186145
1.23279e-05
0.000183056
1.23493e-05
0.000179962
1.23688e-05
0.000176864
1.23866e-05
0.000173762
1.24026e-05
0.000170656
1.2417e-05
0.000167547
1.24298e-05
0.000164436
1.24412e-05
0.000161322
1.24512e-05
0.000158206
1.24599e-05
0.000155088
1.24672e-05
0.000151968
1.24734e-05
0.000148848
1.24785e-05
0.000145726
1.24825e-05
0.000142604
1.24855e-05
0.000139482
1.24876e-05
0.000136359
1.24888e-05
0.000133236
1.24891e-05
0.000130113
1.24887e-05
0.00012699
1.24876e-05
0.000123868
1.24859e-05
0.000120747
1.24835e-05
0.000117626
1.24806e-05
0.000114507
1.24772e-05
0.000111388
1.24733e-05
0.00010827
1.2469e-05
0.000105154
1.24643e-05
0.000102039
1.24594e-05
9.89253e-05
1.24541e-05
9.5813e-05
1.24486e-05
9.27021e-05
1.24429e-05
8.95927e-05
1.2437e-05
8.64849e-05
1.2431e-05
8.33786e-05
1.24249e-05
8.02739e-05
1.24188e-05
7.71707e-05
1.24126e-05
7.40691e-05
1.24064e-05
7.09691e-05
1.24002e-05
6.78707e-05
1.23941e-05
6.47737e-05
1.23881e-05
6.16783e-05
1.23821e-05
5.85844e-05
1.23763e-05
5.54918e-05
1.23707e-05
5.24007e-05
1.23652e-05
4.93109e-05
1.236e-05
4.62224e-05
1.23549e-05
4.31351e-05
1.23501e-05
4.00489e-05
1.23455e-05
3.69639e-05
1.23412e-05
3.38798e-05
1.23371e-05
3.07967e-05
1.23334e-05
2.77145e-05
1.23299e-05
2.46331e-05
1.23268e-05
2.15524e-05
1.2324e-05
1.84723e-05
1.23215e-05
1.53928e-05
1.23194e-05
1.23137e-05
1.23176e-05
9.23493e-06
1.23162e-05
6.15647e-06
1.23151e-05
3.07819e-06
1.23144e-05
1.2314e-05
3.64518e-06
-1.82293e-05
7.29049e-06
-1.82299e-05
1.0936e-05
-1.82311e-05
1.45819e-05
-1.82328e-05
1.82283e-05
-1.82351e-05
2.18753e-05
-1.82379e-05
2.55229e-05
-1.82412e-05
2.91714e-05
-1.8245e-05
3.28207e-05
-1.82493e-05
3.6471e-05
-1.82541e-05
4.01224e-05
-1.82592e-05
4.3775e-05
-1.82648e-05
4.74288e-05
-1.82706e-05
5.10839e-05
-1.82768e-05
5.47403e-05
-1.82832e-05
5.83981e-05
-1.82898e-05
6.20573e-05
-1.82965e-05
6.5718e-05
-1.83032e-05
6.93801e-05
-1.831e-05
7.30436e-05
-1.83167e-05
7.67085e-05
-1.83233e-05
8.03748e-05
-1.83296e-05
8.40424e-05
-1.83357e-05
8.77112e-05
-1.83413e-05
9.13812e-05
-1.83466e-05
9.50523e-05
-1.83512e-05
9.87242e-05
-1.83552e-05
0.000102397
-1.83585e-05
0.00010607
-1.83609e-05
0.000109744
-1.83623e-05
0.000113418
-1.83627e-05
0.000117092
-1.83618e-05
0.000120766
-1.83597e-05
0.000124439
-1.83561e-05
0.000128111
-1.8351e-05
0.000131782
-1.83441e-05
0.000135451
-1.83355e-05
0.000139119
-1.83249e-05
0.000142784
-1.83122e-05
0.000146446
-1.82973e-05
0.000150105
-1.82799e-05
0.000153761
-1.82601e-05
0.000157412
-1.82375e-05
0.000161058
-1.82122e-05
0.000164698
-1.81838e-05
0.000168333
-1.81522e-05
0.00017196
-1.81174e-05
0.00017558
-1.8079e-05
0.000179192
-1.80371e-05
0.000182796
-1.79913e-05
0.000186389
-1.79415e-05
0.000189971
-1.78876e-05
0.000193543
-1.78294e-05
0.000197102
-1.77667e-05
0.000200647
-1.76994e-05
0.000204179
-1.76273e-05
0.000207695
-1.75502e-05
0.000211195
-1.7468e-05
0.000214677
-1.73805e-05
0.000218142
-1.72875e-05
0.000221586
-1.71889e-05
0.00022501
-1.70846e-05
0.000228413
-1.69744e-05
0.000231792
-1.68581e-05
0.000235146
-1.67356e-05
0.000238475
-1.66069e-05
0.000241778
-1.64716e-05
0.000245052
-1.63298e-05
0.000248296
-1.61813e-05
0.000251509
-1.6026e-05
0.000254691
-1.58638e-05
0.000257838
-1.56946e-05
0.00026095
-1.55183e-05
0.000264026
-1.53349e-05
0.000267063
-1.51442e-05
0.000270061
-1.49463e-05
0.000273018
-1.47411e-05
0.000275933
-1.45285e-05
0.000278803
-1.43085e-05
0.000281628
-1.40812e-05
0.000284407
-1.38465e-05
0.000287136
-1.36044e-05
0.000289816
-1.33549e-05
0.000292444
-1.30981e-05
0.00029502
-1.28341e-05
0.000297541
-1.25629e-05
0.000300006
-1.22845e-05
0.000302414
-1.19992e-05
0.000304764
-1.17069e-05
0.000307053
-1.14078e-05
0.000309281
-1.1102e-05
0.000311447
-1.07897e-05
0.000313549
-1.04709e-05
0.000315585
-1.0146e-05
0.000317555
-9.81508e-06
0.000319457
-9.4783e-06
0.000321291
-9.13588e-06
0.000323055
-8.78805e-06
0.000324748
-8.43504e-06
0.000326369
-8.07709e-06
0.000327917
-7.71444e-06
0.000329391
-7.34736e-06
0.000330791
-6.97611e-06
0.000332116
-6.60097e-06
0.000333364
-6.22222e-06
0.000334536
-5.84017e-06
0.00033563
-5.4551e-06
0.000336646
-5.06732e-06
0.000337584
-4.67715e-06
0.000338443
-4.28489e-06
0.000339223
-3.89086e-06
0.000339924
-3.49538e-06
0.000340545
-3.09878e-06
0.000341085
-2.70137e-06
0.000341546
-2.30348e-06
0.000341927
-1.90544e-06
0.000342228
-1.50756e-06
0.000342449
-1.11017e-06
0.000342591
-7.13572e-07
0.000342653
-3.18094e-07
0.000342635
7.59611e-08
0.000342539
4.68288e-07
0.000342365
8.58589e-07
0.000342112
1.24657e-06
0.000341782
1.63195e-06
0.000341376
2.01444e-06
0.000340893
2.39378e-06
0.000340335
2.76971e-06
0.000339702
3.14197e-06
0.000338995
3.51032e-06
0.000338214
3.87452e-06
0.000337362
4.23436e-06
0.000336439
4.58961e-06
0.000335445
4.94008e-06
0.000334381
5.28558e-06
0.00033325
5.62591e-06
0.000332051
5.96092e-06
0.000330786
6.29044e-06
0.000329456
6.61433e-06
0.000328063
6.93244e-06
0.000326607
7.24467e-06
0.000325089
7.55089e-06
0.000323512
7.851e-06
0.000321875
8.14491e-06
0.000320181
8.43254e-06
0.000318431
8.71383e-06
0.000316625
8.98871e-06
0.000314766
9.25713e-06
0.000312854
9.51906e-06
0.000310892
9.77447e-06
0.000308879
1.00233e-05
0.000306818
1.02657e-05
0.00030471
1.05015e-05
0.000302556
1.07307e-05
0.000300358
1.09534e-05
0.000298116
1.11697e-05
0.000295832
1.13794e-05
0.000293508
1.15828e-05
0.000291145
1.17797e-05
0.000288743
1.19704e-05
0.000286305
1.21548e-05
0.000283831
1.2333e-05
0.000281323
1.25051e-05
0.000278781
1.26711e-05
0.000276208
1.28312e-05
0.000273604
1.29854e-05
0.00027097
1.31339e-05
0.000268308
1.32766e-05
0.000265619
1.34138e-05
0.000262903
1.35454e-05
0.000260163
1.36717e-05
0.000257398
1.37927e-05
0.00025461
1.39086e-05
0.0002518
1.40194e-05
0.00024897
1.41252e-05
0.000246119
1.42262e-05
0.000243249