/*--------------------------------*- C++ -*----------------------------------*\
| =========                 |                                                 |
| \\      /  F ield         | OpenFOAM: The Open Source CFD Toolbox           |
|  \\    /   O peration     | Version:  v2012                                 |
|   \\  /    A nd           | Website:  www.openfoam.com                      |
|    \\/     M anipulation  |                                                 |
\*---------------------------------------------------------------------------*/
FoamFile
{
    version     2.0;
    format      ascii;
    class       volVectorField;
    location    "10.8";
    object      Psi;
}
// * * * * * * * * * * * * * * * * * * * * * * * * * * * * * * * * * * * * * //

dimensions      [0 2 -1 0 0 0 0];


internalField   nonuniform List<vector> 
65536
(
(0 0 9.1052e-06)
(0 0 2.73159e-05)
(0 0 4.55275e-05)
(0 0 6.37405e-05)
(0 0 8.19556e-05)
(0 0 0.000100173)
(0 0 0.000118394)
(0 0 0.000136618)
(0 0 0.000154847)
(0 0 0.00017308)
(0 0 0.000191318)
(0 0 0.000209561)
(0 0 0.000227811)
(0 0 0.000246066)
(0 0 0.000264327)
(0 0 0.000282596)
(0 0 0.000300871)
(0 0 0.000319152)
(0 0 0.000337441)
(0 0 0.000355737)
(0 0 0.000374039)
(0 0 0.000392348)
(0 0 0.000410663)
(0 0 0.000428984)
(0 0 0.000447311)
(0 0 0.000465643)
(0 0 0.000483979)
(0 0 0.00050232)
(0 0 0.000520663)
(0 0 0.000539008)
(0 0 0.000557355)
(0 0 0.000575701)
(0 0 0.000594047)
(0 0 0.000612389)
(0 0 0.000630728)
(0 0 0.000649061)
(0 0 0.000667386)
(0 0 0.000685702)
(0 0 0.000704007)
(0 0 0.000722299)
(0 0 0.000740574)
(0 0 0.000758831)
(0 0 0.000777068)
(0 0 0.000795281)
(0 0 0.000813468)
(0 0 0.000831625)
(0 0 0.000849749)
(0 0 0.000867837)
(0 0 0.000885885)
(0 0 0.000903891)
(0 0 0.000921848)
(0 0 0.000939755)
(0 0 0.000957606)
(0 0 0.000975397)
(0 0 0.000993124)
(0 0 0.00101078)
(0 0 0.00102837)
(0 0 0.00104587)
(0 0 0.00106329)
(0 0 0.00108062)
(0 0 0.00109786)
(0 0 0.00111499)
(0 0 0.00113202)
(0 0 0.00114894)
(0 0 0.00116574)
(0 0 0.00118241)
(0 0 0.00119895)
(0 0 0.00121536)
(0 0 0.00123162)
(0 0 0.00124773)
(0 0 0.00126368)
(0 0 0.00127947)
(0 0 0.00129508)
(0 0 0.00131052)
(0 0 0.00132577)
(0 0 0.00134083)
(0 0 0.00135568)
(0 0 0.00137033)
(0 0 0.00138477)
(0 0 0.00139898)
(0 0 0.00141296)
(0 0 0.0014267)
(0 0 0.0014402)
(0 0 0.00145345)
(0 0 0.00146644)
(0 0 0.00147916)
(0 0 0.00149161)
(0 0 0.00150378)
(0 0 0.00151566)
(0 0 0.00152724)
(0 0 0.00153852)
(0 0 0.0015495)
(0 0 0.00156016)
(0 0 0.0015705)
(0 0 0.00158052)
(0 0 0.0015902)
(0 0 0.00159954)
(0 0 0.00160854)
(0 0 0.00161719)
(0 0 0.00162548)
(0 0 0.00163341)
(0 0 0.00164098)
(0 0 0.00164819)
(0 0 0.00165502)
(0 0 0.00166147)
(0 0 0.00166754)
(0 0 0.00167323)
(0 0 0.00167854)
(0 0 0.00168346)
(0 0 0.00168798)
(0 0 0.00169211)
(0 0 0.00169585)
(0 0 0.00169919)
(0 0 0.00170214)
(0 0 0.00170469)
(0 0 0.00170684)
(0 0 0.00170859)
(0 0 0.00170995)
(0 0 0.0017109)
(0 0 0.00171146)
(0 0 0.00171163)
(0 0 0.0017114)
(0 0 0.00171078)
(0 0 0.00170977)
(0 0 0.00170838)
(0 0 0.0017066)
(0 0 0.00170444)
(0 0 0.0017019)
(0 0 0.00169898)
(0 0 0.0016957)
(0 0 0.00169204)
(0 0 0.00168803)
(0 0 0.00168365)
(0 0 0.00167892)
(0 0 0.00167384)
(0 0 0.00166842)
(0 0 0.00166266)
(0 0 0.00165657)
(0 0 0.00165015)
(0 0 0.0016434)
(0 0 0.00163634)
(0 0 0.00162897)
(0 0 0.0016213)
(0 0 0.00161332)
(0 0 0.00160506)
(0 0 0.00159651)
(0 0 0.00158768)
(0 0 0.00157857)
(0 0 0.0015692)
(0 0 0.00155957)
(0 0 0.00154969)
(0 0 0.00153956)
(0 0 0.00152918)
(0 0 0.00151858)
(0 0 0.00150775)
(0 0 0.00149669)
(0 0 0.00148543)
(0 0 0.00147395)
(0 0 0.00146227)
(0 0 0.0014504)
(0 0 0.00143834)
(0 0 0.0014261)
(0 0 0.00141368)
(0 0 0.00140109)
(0 0 0.00138833)
(0 0 0.00137542)
(0 0 0.00136236)
(0 0 0.00134914)
(0 0 0.00133579)
(0 0 0.0013223)
(0 0 0.00130869)
(0 0 0.00129494)
(0 0 0.00128108)
(0 0 0.00126711)
(0 0 0.00125302)
(0 0 0.00123883)
(0 0 0.00122454)
(0 0 0.00121016)
(0 0 0.00119569)
(0 0 0.00118113)
(0 0 0.00116649)
(0 0 0.00115177)
(0 0 0.00113698)
(0 0 0.00112212)
(0 0 0.00110719)
(0 0 0.00109221)
(0 0 0.00107716)
(0 0 0.00106206)
(0 0 0.00104691)
(0 0 0.00103172)
(0 0 0.00101647)
(0 0 0.00100119)
(0 0 0.000985868)
(0 0 0.00097051)
(0 0 0.000955119)
(0 0 0.000939697)
(0 0 0.000924247)
(0 0 0.000908772)
(0 0 0.000893273)
(0 0 0.000877753)
(0 0 0.000862215)
(0 0 0.000846659)
(0 0 0.000831088)
(0 0 0.000815504)
(0 0 0.000799909)
(0 0 0.000784303)
(0 0 0.00076869)
(0 0 0.000753069)
(0 0 0.000737443)
(0 0 0.000721812)
(0 0 0.000706179)
(0 0 0.000690543)
(0 0 0.000674907)
(0 0 0.000659271)
(0 0 0.000643636)
(0 0 0.000628003)
(0 0 0.000612373)
(0 0 0.000596747)
(0 0 0.000581124)
(0 0 0.000565506)
(0 0 0.000549894)
(0 0 0.000534287)
(0 0 0.000518687)
(0 0 0.000503093)
(0 0 0.000487506)
(0 0 0.000471927)
(0 0 0.000456355)
(0 0 0.00044079)
(0 0 0.000425233)
(0 0 0.000409684)
(0 0 0.000394143)
(0 0 0.00037861)
(0 0 0.000363084)
(0 0 0.000347567)
(0 0 0.000332057)
(0 0 0.000316555)
(0 0 0.000301061)
(0 0 0.000285573)
(0 0 0.000270093)
(0 0 0.00025462)
(0 0 0.000239153)
(0 0 0.000223693)
(0 0 0.000208238)
(0 0 0.000192789)
(0 0 0.000177346)
(0 0 0.000161907)
(0 0 0.000146473)
(0 0 0.000131044)
(0 0 0.000115618)
(0 0 0.000100195)
(0 0 8.47754e-05)
(0 0 6.93583e-05)
(0 0 5.39432e-05)
(0 0 3.85297e-05)
(0 0 2.31174e-05)
(0 0 7.70571e-06)
(0 0 2.73154e-05)
(0 0 8.1947e-05)
(0 0 0.000136581)
(0 0 0.00019122)
(0 0 0.000245864)
(0 0 0.000300517)
(0 0 0.000355179)
(0 0 0.000409851)
(0 0 0.000464536)
(0 0 0.000519235)
(0 0 0.000573949)
(0 0 0.000628679)
(0 0 0.000683426)
(0 0 0.000738192)
(0 0 0.000792976)
(0 0 0.000847781)
(0 0 0.000902606)
(0 0 0.000957451)
(0 0 0.00101232)
(0 0 0.0010672)
(0 0 0.00112211)
(0 0 0.00117704)
(0 0 0.00123198)
(0 0 0.00128695)
(0 0 0.00134193)
(0 0 0.00139692)
(0 0 0.00145193)
(0 0 0.00150696)
(0 0 0.00156199)
(0 0 0.00161702)
(0 0 0.00167207)
(0 0 0.00172711)
(0 0 0.00178214)
(0 0 0.00183717)
(0 0 0.00189219)
(0 0 0.00194719)
(0 0 0.00200217)
(0 0 0.00205712)
(0 0 0.00211204)
(0 0 0.00216691)
(0 0 0.00222174)
(0 0 0.00227652)
(0 0 0.00233123)
(0 0 0.00238587)
(0 0 0.00244043)
(0 0 0.00249491)
(0 0 0.00254928)
(0 0 0.00260355)
(0 0 0.0026577)
(0 0 0.00271172)
(0 0 0.0027656)
(0 0 0.00281932)
(0 0 0.00287288)
(0 0 0.00292626)
(0 0 0.00297944)
(0 0 0.00303242)
(0 0 0.00308518)
(0 0 0.0031377)
(0 0 0.00318997)
(0 0 0.00324196)
(0 0 0.00329368)
(0 0 0.00334509)
(0 0 0.00339618)
(0 0 0.00344694)
(0 0 0.00349734)
(0 0 0.00354737)
(0 0 0.003597)
(0 0 0.00364622)
(0 0 0.00369501)
(0 0 0.00374335)
(0 0 0.00379121)
(0 0 0.00383858)
(0 0 0.00388543)
(0 0 0.00393174)
(0 0 0.0039775)
(0 0 0.00402268)
(0 0 0.00406726)
(0 0 0.00411121)
(0 0 0.00415452)
(0 0 0.00419716)
(0 0 0.00423911)
(0 0 0.00428035)
(0 0 0.00432086)
(0 0 0.00436061)
(0 0 0.00439958)
(0 0 0.00443775)
(0 0 0.0044751)
(0 0 0.00451161)
(0 0 0.00454726)
(0 0 0.00458202)
(0 0 0.00461588)
(0 0 0.00464881)
(0 0 0.0046808)
(0 0 0.00471183)
(0 0 0.00474188)
(0 0 0.00477093)
(0 0 0.00479896)
(0 0 0.00482596)
(0 0 0.00485191)
(0 0 0.0048768)
(0 0 0.0049006)
(0 0 0.00492332)
(0 0 0.00494493)
(0 0 0.00496542)
(0 0 0.00498479)
(0 0 0.00500301)
(0 0 0.00502009)
(0 0 0.005036)
(0 0 0.00505075)
(0 0 0.00506433)
(0 0 0.00507673)
(0 0 0.00508795)
(0 0 0.00509798)
(0 0 0.00510681)
(0 0 0.00511446)
(0 0 0.00512091)
(0 0 0.00512617)
(0 0 0.00513023)
(0 0 0.0051331)
(0 0 0.00513478)
(0 0 0.00513528)
(0 0 0.0051346)
(0 0 0.00513274)
(0 0 0.00512971)
(0 0 0.00512552)
(0 0 0.00512017)
(0 0 0.00511369)
(0 0 0.00510606)
(0 0 0.00509731)
(0 0 0.00508745)
(0 0 0.00507649)
(0 0 0.00506443)
(0 0 0.0050513)
(0 0 0.00503711)
(0 0 0.00502187)
(0 0 0.0050056)
(0 0 0.00498832)
(0 0 0.00497003)
(0 0 0.00495076)
(0 0 0.00493052)
(0 0 0.00490934)
(0 0 0.00488722)
(0 0 0.00486418)
(0 0 0.00484026)
(0 0 0.00481545)
(0 0 0.00478979)
(0 0 0.00476329)
(0 0 0.00473598)
(0 0 0.00470786)
(0 0 0.00467896)
(0 0 0.0046493)
(0 0 0.0046189)
(0 0 0.00458778)
(0 0 0.00455596)
(0 0 0.00452345)
(0 0 0.00449029)
(0 0 0.00445648)
(0 0 0.00442205)
(0 0 0.00438701)
(0 0 0.00435139)
(0 0 0.0043152)
(0 0 0.00427846)
(0 0 0.0042412)
(0 0 0.00420342)
(0 0 0.00416515)
(0 0 0.00412641)
(0 0 0.00408721)
(0 0 0.00404757)
(0 0 0.00400751)
(0 0 0.00396704)
(0 0 0.00392618)
(0 0 0.00388495)
(0 0 0.00384336)
(0 0 0.00380143)
(0 0 0.00375917)
(0 0 0.0037166)
(0 0 0.00367373)
(0 0 0.00363057)
(0 0 0.00358715)
(0 0 0.00354346)
(0 0 0.00349954)
(0 0 0.00345538)
(0 0 0.00341101)
(0 0 0.00336642)
(0 0 0.00332164)
(0 0 0.00327668)
(0 0 0.00323154)
(0 0 0.00318624)
(0 0 0.00314079)
(0 0 0.00309519)
(0 0 0.00304946)
(0 0 0.00300361)
(0 0 0.00295764)
(0 0 0.00291156)
(0 0 0.00286538)
(0 0 0.00281912)
(0 0 0.00277276)
(0 0 0.00272634)
(0 0 0.00267984)
(0 0 0.00263328)
(0 0 0.00258666)
(0 0 0.00253999)
(0 0 0.00249328)
(0 0 0.00244652)
(0 0 0.00239973)
(0 0 0.00235292)
(0 0 0.00230607)
(0 0 0.00225921)
(0 0 0.00221233)
(0 0 0.00216544)
(0 0 0.00211854)
(0 0 0.00207163)
(0 0 0.00202472)
(0 0 0.00197781)
(0 0 0.0019309)
(0 0 0.00188401)
(0 0 0.00183711)
(0 0 0.00179023)
(0 0 0.00174337)
(0 0 0.00169651)
(0 0 0.00164967)
(0 0 0.00160285)
(0 0 0.00155605)
(0 0 0.00150927)
(0 0 0.00146251)
(0 0 0.00141577)
(0 0 0.00136905)
(0 0 0.00132236)
(0 0 0.00127569)
(0 0 0.00122904)
(0 0 0.00118242)
(0 0 0.00113582)
(0 0 0.00108924)
(0 0 0.00104269)
(0 0 0.000996163)
(0 0 0.000949657)
(0 0 0.000903173)
(0 0 0.000856712)
(0 0 0.000810272)
(0 0 0.000763852)
(0 0 0.000717452)
(0 0 0.000671071)
(0 0 0.000624708)
(0 0 0.000578362)
(0 0 0.000532032)
(0 0 0.000485717)
(0 0 0.000439415)
(0 0 0.000393127)
(0 0 0.000346849)
(0 0 0.000300582)
(0 0 0.000254324)
(0 0 0.000208073)
(0 0 0.000161828)
(0 0 0.000115588)
(0 0 6.93514e-05)
(0 0 2.31169e-05)
(0 0 4.55246e-05)
(0 0 0.000136575)
(0 0 0.000227631)
(0 0 0.000318693)
(0 0 0.000409766)
(0 0 0.000500851)
(0 0 0.000591952)
(0 0 0.000683072)
(0 0 0.000774212)
(0 0 0.000865375)
(0 0 0.000956563)
(0 0 0.00104778)
(0 0 0.00113902)
(0 0 0.0012303)
(0 0 0.00132161)
(0 0 0.00141295)
(0 0 0.00150432)
(0 0 0.00159573)
(0 0 0.00168717)
(0 0 0.00177865)
(0 0 0.00187016)
(0 0 0.00196171)
(0 0 0.00205329)
(0 0 0.00214489)
(0 0 0.00223653)
(0 0 0.00232819)
(0 0 0.00241988)
(0 0 0.00251158)
(0 0 0.00260331)
(0 0 0.00269504)
(0 0 0.00278678)
(0 0 0.00287851)
(0 0 0.00297025)
(0 0 0.00306197)
(0 0 0.00315367)
(0 0 0.00324534)
(0 0 0.00333698)
(0 0 0.00342857)
(0 0 0.0035201)
(0 0 0.00361157)
(0 0 0.00370296)
(0 0 0.00379426)
(0 0 0.00388546)
(0 0 0.00397654)
(0 0 0.00406749)
(0 0 0.00415829)
(0 0 0.00424893)
(0 0 0.00433938)
(0 0 0.00442965)
(0 0 0.00451969)
(0 0 0.0046095)
(0 0 0.00469905)
(0 0 0.00478833)
(0 0 0.00487731)
(0 0 0.00496597)
(0 0 0.00505428)
(0 0 0.00514223)
(0 0 0.00522978)
(0 0 0.00531691)
(0 0 0.00540359)
(0 0 0.0054898)
(0 0 0.00557551)
(0 0 0.00566068)
(0 0 0.0057453)
(0 0 0.00582932)
(0 0 0.00591272)
(0 0 0.00599546)
(0 0 0.00607752)
(0 0 0.00615885)
(0 0 0.00623943)
(0 0 0.00631923)
(0 0 0.0063982)
(0 0 0.00647631)
(0 0 0.00655353)
(0 0 0.00662982)
(0 0 0.00670514)
(0 0 0.00677946)
(0 0 0.00685274)
(0 0 0.00692495)
(0 0 0.00699604)
(0 0 0.00706598)
(0 0 0.00713474)
(0 0 0.00720227)
(0 0 0.00726855)
(0 0 0.00733352)
(0 0 0.00739717)
(0 0 0.00745944)
(0 0 0.00752031)
(0 0 0.00757975)
(0 0 0.00763771)
(0 0 0.00769416)
(0 0 0.00774907)
(0 0 0.00780241)
(0 0 0.00785414)
(0 0 0.00790424)
(0 0 0.00795267)
(0 0 0.00799941)
(0 0 0.00804443)
(0 0 0.0080877)
(0 0 0.00812919)
(0 0 0.00816889)
(0 0 0.00820676)
(0 0 0.00824279)
(0 0 0.00827696)
(0 0 0.00830924)
(0 0 0.00833963)
(0 0 0.0083681)
(0 0 0.00839463)
(0 0 0.00841923)
(0 0 0.00844186)
(0 0 0.00846253)
(0 0 0.00848123)
(0 0 0.00849795)
(0 0 0.00851268)
(0 0 0.00852542)
(0 0 0.00853618)
(0 0 0.00854494)
(0 0 0.00855171)
(0 0 0.00855649)
(0 0 0.00855929)
(0 0 0.00856011)
(0 0 0.00855897)
(0 0 0.00855586)
(0 0 0.0085508)
(0 0 0.00854381)
(0 0 0.0085349)
(0 0 0.00852407)
(0 0 0.00851135)
(0 0 0.00849676)
(0 0 0.00848031)
(0 0 0.00846202)
(0 0 0.00844191)
(0 0 0.00842002)
(0 0 0.00839635)
(0 0 0.00837094)
(0 0 0.0083438)
(0 0 0.00831497)
(0 0 0.00828448)
(0 0 0.00825234)
(0 0 0.00821859)
(0 0 0.00818326)
(0 0 0.00814638)
(0 0 0.00810797)
(0 0 0.00806807)
(0 0 0.00802671)
(0 0 0.00798392)
(0 0 0.00793973)
(0 0 0.00789418)
(0 0 0.0078473)
(0 0 0.00779911)
(0 0 0.00774966)
(0 0 0.00769897)
(0 0 0.00764708)
(0 0 0.00759402)
(0 0 0.00753983)
(0 0 0.00748453)
(0 0 0.00742816)
(0 0 0.00737075)
(0 0 0.00731233)
(0 0 0.00725294)
(0 0 0.0071926)
(0 0 0.00713136)
(0 0 0.00706923)
(0 0 0.00700625)
(0 0 0.00694245)
(0 0 0.00687786)
(0 0 0.00681251)
(0 0 0.00674642)
(0 0 0.00667963)
(0 0 0.00661216)
(0 0 0.00654405)
(0 0 0.00647531)
(0 0 0.00640598)
(0 0 0.00633608)
(0 0 0.00626563)
(0 0 0.00619466)
(0 0 0.00612319)
(0 0 0.00605125)
(0 0 0.00597886)
(0 0 0.00590605)
(0 0 0.00583282)
(0 0 0.00575921)
(0 0 0.00568524)
(0 0 0.00561092)
(0 0 0.00553628)
(0 0 0.00546132)
(0 0 0.00538608)
(0 0 0.00531057)
(0 0 0.00523481)
(0 0 0.0051588)
(0 0 0.00508257)
(0 0 0.00500614)
(0 0 0.00492951)
(0 0 0.00485271)
(0 0 0.00477574)
(0 0 0.00469862)
(0 0 0.00462136)
(0 0 0.00454397)
(0 0 0.00446647)
(0 0 0.00438886)
(0 0 0.00431115)
(0 0 0.00423337)
(0 0 0.0041555)
(0 0 0.00407757)
(0 0 0.00399959)
(0 0 0.00392155)
(0 0 0.00384348)
(0 0 0.00376537)
(0 0 0.00368723)
(0 0 0.00360907)
(0 0 0.0035309)
(0 0 0.00345272)
(0 0 0.00337453)
(0 0 0.00329635)
(0 0 0.00321817)
(0 0 0.00314)
(0 0 0.00306184)
(0 0 0.00298371)
(0 0 0.00290559)
(0 0 0.0028275)
(0 0 0.00274944)
(0 0 0.0026714)
(0 0 0.0025934)
(0 0 0.00251543)
(0 0 0.00243749)
(0 0 0.00235959)
(0 0 0.00228173)
(0 0 0.00220391)
(0 0 0.00212612)
(0 0 0.00204838)
(0 0 0.00197067)
(0 0 0.00189301)
(0 0 0.00181538)
(0 0 0.00173779)
(0 0 0.00166025)
(0 0 0.00158274)
(0 0 0.00150526)
(0 0 0.00142783)
(0 0 0.00135043)
(0 0 0.00127306)
(0 0 0.00119573)
(0 0 0.00111843)
(0 0 0.00104116)
(0 0 0.000963919)
(0 0 0.000886703)
(0 0 0.000809513)
(0 0 0.000732345)
(0 0 0.000655198)
(0 0 0.000578071)
(0 0 0.00050096)
(0 0 0.000423864)
(0 0 0.000346781)
(0 0 0.000269708)
(0 0 0.000192643)
(0 0 0.000115583)
(0 0 3.85274e-05)
(0 0 6.37324e-05)
(0 0 0.000191199)
(0 0 0.000318673)
(0 0 0.000446156)
(0 0 0.000573654)
(0 0 0.00070117)
(0 0 0.000828708)
(0 0 0.000956271)
(0 0 0.00108386)
(0 0 0.00121149)
(0 0 0.00133915)
(0 0 0.00146685)
(0 0 0.00159459)
(0 0 0.00172237)
(0 0 0.0018502)
(0 0 0.00197808)
(0 0 0.002106)
(0 0 0.00223397)
(0 0 0.00236199)
(0 0 0.00249006)
(0 0 0.00261818)
(0 0 0.00274635)
(0 0 0.00287456)
(0 0 0.00300281)
(0 0 0.00313111)
(0 0 0.00325944)
(0 0 0.0033878)
(0 0 0.0035162)
(0 0 0.00364461)
(0 0 0.00377304)
(0 0 0.00390149)
(0 0 0.00402993)
(0 0 0.00415836)
(0 0 0.00428678)
(0 0 0.00441518)
(0 0 0.00454353)
(0 0 0.00467184)
(0 0 0.00480008)
(0 0 0.00492824)
(0 0 0.00505631)
(0 0 0.00518428)
(0 0 0.00531211)
(0 0 0.00543981)
(0 0 0.00556734)
(0 0 0.00569469)
(0 0 0.00582183)
(0 0 0.00594875)
(0 0 0.00607541)
(0 0 0.00620181)
(0 0 0.0063279)
(0 0 0.00645366)
(0 0 0.00657906)
(0 0 0.00670408)
(0 0 0.00682868)
(0 0 0.00695284)
(0 0 0.00707651)
(0 0 0.00719967)
(0 0 0.00732228)
(0 0 0.0074443)
(0 0 0.00756569)
(0 0 0.00768643)
(0 0 0.00780646)
(0 0 0.00792574)
(0 0 0.00804424)
(0 0 0.00816192)
(0 0 0.00827872)
(0 0 0.00839461)
(0 0 0.00850953)
(0 0 0.00862345)
(0 0 0.00873631)
(0 0 0.00884807)
(0 0 0.00895868)
(0 0 0.00906808)
(0 0 0.00917624)
(0 0 0.00928309)
(0 0 0.0093886)
(0 0 0.0094927)
(0 0 0.00959534)
(0 0 0.00969648)
(0 0 0.00979606)
(0 0 0.00989404)
(0 0 0.00999035)
(0 0 0.0100849)
(0 0 0.0101778)
(0 0 0.0102688)
(0 0 0.0103579)
(0 0 0.0104452)
(0 0 0.0105305)
(0 0 0.0106137)
(0 0 0.0106949)
(0 0 0.010774)
(0 0 0.0108509)
(0 0 0.0109256)
(0 0 0.0109981)
(0 0 0.0110683)
(0 0 0.0111361)
(0 0 0.0112016)
(0 0 0.0112646)
(0 0 0.0113253)
(0 0 0.0113834)
(0 0 0.011439)
(0 0 0.011492)
(0 0 0.0115425)
(0 0 0.0115904)
(0 0 0.0116356)
(0 0 0.0116782)
(0 0 0.011718)
(0 0 0.0117552)
(0 0 0.0117897)
(0 0 0.0118214)
(0 0 0.0118503)
(0 0 0.0118765)
(0 0 0.0118999)
(0 0 0.0119205)
(0 0 0.0119384)
(0 0 0.0119534)
(0 0 0.0119657)
(0 0 0.0119752)
(0 0 0.0119819)
(0 0 0.0119858)
(0 0 0.0119869)
(0 0 0.0119853)
(0 0 0.0119809)
(0 0 0.0119738)
(0 0 0.011964)
(0 0 0.0119515)
(0 0 0.0119363)
(0 0 0.0119185)
(0 0 0.0118981)
(0 0 0.011875)
(0 0 0.0118494)
(0 0 0.0118212)
(0 0 0.0117905)
(0 0 0.0117573)
(0 0 0.0117217)
(0 0 0.0116837)
(0 0 0.0116433)
(0 0 0.0116006)
(0 0 0.0115555)
(0 0 0.0115082)
(0 0 0.0114587)
(0 0 0.0114071)
(0 0 0.0113532)
(0 0 0.0112973)
(0 0 0.0112394)
(0 0 0.0111794)
(0 0 0.0111175)
(0 0 0.0110537)
(0 0 0.010988)
(0 0 0.0109205)
(0 0 0.0108513)
(0 0 0.0107802)
(0 0 0.0107076)
(0 0 0.0106332)
(0 0 0.0105573)
(0 0 0.0104798)
(0 0 0.0104009)
(0 0 0.0103205)
(0 0 0.0102386)
(0 0 0.0101554)
(0 0 0.0100709)
(0 0 0.00998513)
(0 0 0.00989811)
(0 0 0.0098099)
(0 0 0.00972054)
(0 0 0.00963007)
(0 0 0.00953853)
(0 0 0.00944598)
(0 0 0.00935243)
(0 0 0.00925794)
(0 0 0.00916254)
(0 0 0.00906627)
(0 0 0.00896917)
(0 0 0.00887127)
(0 0 0.00877261)
(0 0 0.00867322)
(0 0 0.00857313)
(0 0 0.00847238)
(0 0 0.00837101)
(0 0 0.00826903)
(0 0 0.00816649)
(0 0 0.00806341)
(0 0 0.00795982)
(0 0 0.00785575)
(0 0 0.00775122)
(0 0 0.00764626)
(0 0 0.0075409)
(0 0 0.00743516)
(0 0 0.00732906)
(0 0 0.00722263)
(0 0 0.00711589)
(0 0 0.00700887)
(0 0 0.00690157)
(0 0 0.00679402)
(0 0 0.00668625)
(0 0 0.00657826)
(0 0 0.00647008)
(0 0 0.00636172)
(0 0 0.0062532)
(0 0 0.00614453)
(0 0 0.00603573)
(0 0 0.00592682)
(0 0 0.0058178)
(0 0 0.00570869)
(0 0 0.00559949)
(0 0 0.00549023)
(0 0 0.00538092)
(0 0 0.00527155)
(0 0 0.00516215)
(0 0 0.00505272)
(0 0 0.00494327)
(0 0 0.00483381)
(0 0 0.00472434)
(0 0 0.00461488)
(0 0 0.00450542)
(0 0 0.00439598)
(0 0 0.00428656)
(0 0 0.00417716)
(0 0 0.0040678)
(0 0 0.00395847)
(0 0 0.00384917)
(0 0 0.00373992)
(0 0 0.00363071)
(0 0 0.00352155)
(0 0 0.00341244)
(0 0 0.00330338)
(0 0 0.00319437)
(0 0 0.00308542)
(0 0 0.00297652)
(0 0 0.00286767)
(0 0 0.00275889)
(0 0 0.00265015)
(0 0 0.00254148)
(0 0 0.00243286)
(0 0 0.00232429)
(0 0 0.00221578)
(0 0 0.00210732)
(0 0 0.00199891)
(0 0 0.00189055)
(0 0 0.00178224)
(0 0 0.00167398)
(0 0 0.00156576)
(0 0 0.00145759)
(0 0 0.00134945)
(0 0 0.00124135)
(0 0 0.00113329)
(0 0 0.00102525)
(0 0 0.000917251)
(0 0 0.000809276)
(0 0 0.000701324)
(0 0 0.000593392)
(0 0 0.000485479)
(0 0 0.00037758)
(0 0 0.000269692)
(0 0 0.000161812)
(0 0 5.39367e-05)
(0 0 8.19382e-05)
(0 0 0.000245817)
(0 0 0.000409704)
(0 0 0.000573605)
(0 0 0.000737524)
(0 0 0.000901466)
(0 0 0.00106544)
(0 0 0.00122944)
(0 0 0.00139348)
(0 0 0.00155757)
(0 0 0.0017217)
(0 0 0.00188588)
(0 0 0.00205011)
(0 0 0.0022144)
(0 0 0.00237875)
(0 0 0.00254316)
(0 0 0.00270763)
(0 0 0.00287217)
(0 0 0.00303676)
(0 0 0.00320143)
(0 0 0.00336615)
(0 0 0.00353094)
(0 0 0.00369579)
(0 0 0.00386069)
(0 0 0.00402565)
(0 0 0.00419065)
(0 0 0.0043557)
(0 0 0.00452079)
(0 0 0.0046859)
(0 0 0.00485104)
(0 0 0.00501619)
(0 0 0.00518135)
(0 0 0.0053465)
(0 0 0.00551163)
(0 0 0.00567672)
(0 0 0.00584177)
(0 0 0.00600675)
(0 0 0.00617166)
(0 0 0.00633647)
(0 0 0.00650116)
(0 0 0.00666571)
(0 0 0.00683011)
(0 0 0.00699432)
(0 0 0.00715832)
(0 0 0.00732209)
(0 0 0.0074856)
(0 0 0.00764882)
(0 0 0.00781172)
(0 0 0.00797427)
(0 0 0.00813643)
(0 0 0.00829817)
(0 0 0.00845946)
(0 0 0.00862025)
(0 0 0.00878051)
(0 0 0.00894019)
(0 0 0.00909926)
(0 0 0.00925766)
(0 0 0.00941536)
(0 0 0.00957231)
(0 0 0.00972846)
(0 0 0.00988375)
(0 0 0.0100381)
(0 0 0.0101916)
(0 0 0.010344)
(0 0 0.0104954)
(0 0 0.0106456)
(0 0 0.0107947)
(0 0 0.0109426)
(0 0 0.0110891)
(0 0 0.0112343)
(0 0 0.0113781)
(0 0 0.0115204)
(0 0 0.0116611)
(0 0 0.0118003)
(0 0 0.0119377)
(0 0 0.0120735)
(0 0 0.0122074)
(0 0 0.0123395)
(0 0 0.0124696)
(0 0 0.0125977)
(0 0 0.0127238)
(0 0 0.0128477)
(0 0 0.0129694)
(0 0 0.0130888)
(0 0 0.0132059)
(0 0 0.0133206)
(0 0 0.0134329)
(0 0 0.0135426)
(0 0 0.0136497)
(0 0 0.0137542)
(0 0 0.013856)
(0 0 0.0139549)
(0 0 0.0140511)
(0 0 0.0141443)
(0 0 0.0142346)
(0 0 0.0143219)
(0 0 0.0144062)
(0 0 0.0144873)
(0 0 0.0145653)
(0 0 0.0146401)
(0 0 0.0147116)
(0 0 0.0147799)
(0 0 0.0148449)
(0 0 0.0149064)
(0 0 0.0149646)
(0 0 0.0150194)
(0 0 0.0150707)
(0 0 0.0151185)
(0 0 0.0151628)
(0 0 0.0152036)
(0 0 0.0152409)
(0 0 0.0152745)
(0 0 0.0153047)
(0 0 0.0153312)
(0 0 0.0153541)
(0 0 0.0153735)
(0 0 0.0153892)
(0 0 0.0154014)
(0 0 0.01541)
(0 0 0.015415)
(0 0 0.0154165)
(0 0 0.0154144)
(0 0 0.0154087)
(0 0 0.0153996)
(0 0 0.0153869)
(0 0 0.0153708)
(0 0 0.0153513)
(0 0 0.0153283)
(0 0 0.015302)
(0 0 0.0152723)
(0 0 0.0152393)
(0 0 0.015203)
(0 0 0.0151635)
(0 0 0.0151208)
(0 0 0.0150749)
(0 0 0.015026)
(0 0 0.014974)
(0 0 0.014919)
(0 0 0.014861)
(0 0 0.0148001)
(0 0 0.0147364)
(0 0 0.0146699)
(0 0 0.0146006)
(0 0 0.0145287)
(0 0 0.0144541)
(0 0 0.0143769)
(0 0 0.0142973)
(0 0 0.0142151)
(0 0 0.0141306)
(0 0 0.0140437)
(0 0 0.0139546)
(0 0 0.0138632)
(0 0 0.0137697)
(0 0 0.013674)
(0 0 0.0135763)
(0 0 0.0134767)
(0 0 0.013375)
(0 0 0.0132716)
(0 0 0.0131663)
(0 0 0.0130593)
(0 0 0.0129505)
(0 0 0.0128401)
(0 0 0.0127282)
(0 0 0.0126147)
(0 0 0.0124997)
(0 0 0.0123833)
(0 0 0.0122656)
(0 0 0.0121465)
(0 0 0.0120262)
(0 0 0.0119046)
(0 0 0.0117819)
(0 0 0.0116581)
(0 0 0.0115332)
(0 0 0.0114072)
(0 0 0.0112803)
(0 0 0.0111525)
(0 0 0.0110237)
(0 0 0.0108941)
(0 0 0.0107638)
(0 0 0.0106326)
(0 0 0.0105007)
(0 0 0.0103681)
(0 0 0.0102349)
(0 0 0.010101)
(0 0 0.00996659)
(0 0 0.0098316)
(0 0 0.00969609)
(0 0 0.0095601)
(0 0 0.00942365)
(0 0 0.00928678)
(0 0 0.00914951)
(0 0 0.00901186)
(0 0 0.00887388)
(0 0 0.00873557)
(0 0 0.00859697)
(0 0 0.0084581)
(0 0 0.00831898)
(0 0 0.00817963)
(0 0 0.00804008)
(0 0 0.00790034)
(0 0 0.00776043)
(0 0 0.00762037)
(0 0 0.00748018)
(0 0 0.00733988)
(0 0 0.00719947)
(0 0 0.00705897)
(0 0 0.0069184)
(0 0 0.00677778)
(0 0 0.0066371)
(0 0 0.00649639)
(0 0 0.00635565)
(0 0 0.0062149)
(0 0 0.00607415)
(0 0 0.0059334)
(0 0 0.00579266)
(0 0 0.00565194)
(0 0 0.00551125)
(0 0 0.00537059)
(0 0 0.00522997)
(0 0 0.00508939)
(0 0 0.00494887)
(0 0 0.00480839)
(0 0 0.00466798)
(0 0 0.00452763)
(0 0 0.00438734)
(0 0 0.00424711)
(0 0 0.00410696)
(0 0 0.00396687)
(0 0 0.00382686)
(0 0 0.00368691)
(0 0 0.00354704)
(0 0 0.00340725)
(0 0 0.00326752)
(0 0 0.00312787)
(0 0 0.00298828)
(0 0 0.00284877)
(0 0 0.00270932)
(0 0 0.00256994)
(0 0 0.00243063)
(0 0 0.00229138)
(0 0 0.00215219)
(0 0 0.00201305)
(0 0 0.00187397)
(0 0 0.00173494)
(0 0 0.00159596)
(0 0 0.00145703)
(0 0 0.00131813)
(0 0 0.00117928)
(0 0 0.00104046)
(0 0 0.000901667)
(0 0 0.000762903)
(0 0 0.000624162)
(0 0 0.00048544)
(0 0 0.000346733)
(0 0 0.000208035)
(0 0 6.93445e-05)
(0 0 0.000100141)
(0 0 0.000300427)
(0 0 0.000500723)
(0 0 0.000701035)
(0 0 0.00090137)
(0 0 0.00110173)
(0 0 0.00130213)
(0 0 0.00150257)
(0 0 0.00170306)
(0 0 0.0019036)
(0 0 0.0021042)
(0 0 0.00230486)
(0 0 0.00250558)
(0 0 0.00270637)
(0 0 0.00290724)
(0 0 0.00310818)
(0 0 0.0033092)
(0 0 0.0035103)
(0 0 0.00371147)
(0 0 0.00391273)
(0 0 0.00411406)
(0 0 0.00431547)
(0 0 0.00451696)
(0 0 0.00471851)
(0 0 0.00492013)
(0 0 0.00512182)
(0 0 0.00532356)
(0 0 0.00552534)
(0 0 0.00572717)
(0 0 0.00592902)
(0 0 0.0061309)
(0 0 0.00633278)
(0 0 0.00653465)
(0 0 0.0067365)
(0 0 0.00693831)
(0 0 0.00714007)
(0 0 0.00734175)
(0 0 0.00754334)
(0 0 0.00774481)
(0 0 0.00794614)
(0 0 0.00814731)
(0 0 0.00834828)
(0 0 0.00854904)
(0 0 0.00874954)
(0 0 0.00894976)
(0 0 0.00914966)
(0 0 0.00934921)
(0 0 0.00954838)
(0 0 0.00974712)
(0 0 0.00994538)
(0 0 0.0101431)
(0 0 0.0103403)
(0 0 0.0105369)
(0 0 0.0107329)
(0 0 0.0109282)
(0 0 0.0111227)
(0 0 0.0113164)
(0 0 0.0115092)
(0 0 0.0117011)
(0 0 0.0118921)
(0 0 0.012082)
(0 0 0.0122708)
(0 0 0.0124584)
(0 0 0.0126449)
(0 0 0.01283)
(0 0 0.0130137)
(0 0 0.0131961)
(0 0 0.0133769)
(0 0 0.0135561)
(0 0 0.0137337)
(0 0 0.0139095)
(0 0 0.0140836)
(0 0 0.0142557)
(0 0 0.0144259)
(0 0 0.0145941)
(0 0 0.0147601)
(0 0 0.014924)
(0 0 0.0150855)
(0 0 0.0152447)
(0 0 0.0154014)
(0 0 0.0155556)
(0 0 0.0157072)
(0 0 0.0158561)
(0 0 0.0160022)
(0 0 0.0161455)
(0 0 0.0162858)
(0 0 0.0164231)
(0 0 0.0165574)
(0 0 0.0166884)
(0 0 0.0168162)
(0 0 0.0169407)
(0 0 0.0170618)
(0 0 0.0171794)
(0 0 0.0172935)
(0 0 0.017404)
(0 0 0.0175108)
(0 0 0.0176139)
(0 0 0.0177131)
(0 0 0.0178086)
(0 0 0.0179001)
(0 0 0.0179876)
(0 0 0.0180711)
(0 0 0.0181506)
(0 0 0.0182259)
(0 0 0.0182971)
(0 0 0.0183641)
(0 0 0.0184268)
(0 0 0.0184853)
(0 0 0.0185395)
(0 0 0.0185894)
(0 0 0.018635)
(0 0 0.0186762)
(0 0 0.018713)
(0 0 0.0187454)
(0 0 0.0187735)
(0 0 0.0187971)
(0 0 0.0188164)
(0 0 0.0188313)
(0 0 0.0188417)
(0 0 0.0188478)
(0 0 0.0188496)
(0 0 0.018847)
(0 0 0.0188401)
(0 0 0.0188288)
(0 0 0.0188133)
(0 0 0.0187936)
(0 0 0.0187696)
(0 0 0.0187415)
(0 0 0.0187092)
(0 0 0.0186729)
(0 0 0.0186324)
(0 0 0.018588)
(0 0 0.0185396)
(0 0 0.0184874)
(0 0 0.0184312)
(0 0 0.0183713)
(0 0 0.0183076)
(0 0 0.0182403)
(0 0 0.0181693)
(0 0 0.0180948)
(0 0 0.0180169)
(0 0 0.0179354)
(0 0 0.0178507)
(0 0 0.0177626)
(0 0 0.0176713)
(0 0 0.0175769)
(0 0 0.0174794)
(0 0 0.0173789)
(0 0 0.0172755)
(0 0 0.0171692)
(0 0 0.0170601)
(0 0 0.0169483)
(0 0 0.0168339)
(0 0 0.0167169)
(0 0 0.0165973)
(0 0 0.0164754)
(0 0 0.0163511)
(0 0 0.0162245)
(0 0 0.0160957)
(0 0 0.0159648)
(0 0 0.0158318)
(0 0 0.0156967)
(0 0 0.0155598)
(0 0 0.015421)
(0 0 0.0152804)
(0 0 0.015138)
(0 0 0.014994)
(0 0 0.0148483)
(0 0 0.0147011)
(0 0 0.0145525)
(0 0 0.0144024)
(0 0 0.0142509)
(0 0 0.0140982)
(0 0 0.0139442)
(0 0 0.013789)
(0 0 0.0136326)
(0 0 0.0134752)
(0 0 0.0133167)
(0 0 0.0131573)
(0 0 0.0129969)
(0 0 0.0128356)
(0 0 0.0126735)
(0 0 0.0125106)
(0 0 0.0123469)
(0 0 0.0121825)
(0 0 0.0120175)
(0 0 0.0118518)
(0 0 0.0116855)
(0 0 0.0115187)
(0 0 0.0113513)
(0 0 0.0111835)
(0 0 0.0110152)
(0 0 0.0108465)
(0 0 0.0106774)
(0 0 0.010508)
(0 0 0.0103382)
(0 0 0.0101681)
(0 0 0.00999775)
(0 0 0.00982715)
(0 0 0.00965632)
(0 0 0.00948528)
(0 0 0.00931407)
(0 0 0.00914269)
(0 0 0.00897117)
(0 0 0.00879953)
(0 0 0.00862778)
(0 0 0.00845595)
(0 0 0.00828405)
(0 0 0.00811209)
(0 0 0.00794009)
(0 0 0.00776806)
(0 0 0.00759601)
(0 0 0.00742396)
(0 0 0.00725191)
(0 0 0.00707988)
(0 0 0.00690787)
(0 0 0.0067359)
(0 0 0.00656397)
(0 0 0.00639209)
(0 0 0.00622027)
(0 0 0.00604851)
(0 0 0.00587681)
(0 0 0.00570519)
(0 0 0.00553364)
(0 0 0.00536217)
(0 0 0.00519078)
(0 0 0.00501947)
(0 0 0.00484826)
(0 0 0.00467712)
(0 0 0.00450608)
(0 0 0.00433513)
(0 0 0.00416427)
(0 0 0.00399349)
(0 0 0.0038228)
(0 0 0.0036522)
(0 0 0.00348169)
(0 0 0.00331126)
(0 0 0.00314091)
(0 0 0.00297064)
(0 0 0.00280045)
(0 0 0.00263033)
(0 0 0.00246028)
(0 0 0.0022903)
(0 0 0.00212039)
(0 0 0.00195053)
(0 0 0.00178073)
(0 0 0.00161097)
(0 0 0.00144127)
(0 0 0.00127161)
(0 0 0.00110198)
(0 0 0.000932391)
(0 0 0.000762827)
(0 0 0.000593286)
(0 0 0.000423763)
(0 0 0.000254253)
(0 0 8.47501e-05)
(0 0 0.000118341)
(0 0 0.000355027)
(0 0 0.000591725)
(0 0 0.000828442)
(0 0 0.00106519)
(0 0 0.00130197)
(0 0 0.00153879)
(0 0 0.00177566)
(0 0 0.00201259)
(0 0 0.00224958)
(0 0 0.00248663)
(0 0 0.00272377)
(0 0 0.00296098)
(0 0 0.00319827)
(0 0 0.00343565)
(0 0 0.00367312)
(0 0 0.00391069)
(0 0 0.00414835)
(0 0 0.0043861)
(0 0 0.00462395)
(0 0 0.00486189)
(0 0 0.00509993)
(0 0 0.00533806)
(0 0 0.00557627)
(0 0 0.00581456)
(0 0 0.00605293)
(0 0 0.00629137)
(0 0 0.00652986)
(0 0 0.00676841)
(0 0 0.00700699)
(0 0 0.0072456)
(0 0 0.00748421)
(0 0 0.00772282)
(0 0 0.00796141)
(0 0 0.00819996)
(0 0 0.00843845)
(0 0 0.00867685)
(0 0 0.00891514)
(0 0 0.0091533)
(0 0 0.00939129)
(0 0 0.0096291)
(0 0 0.00986668)
(0 0 0.010104)
(0 0 0.010341)
(0 0 0.0105777)
(0 0 0.0108141)
(0 0 0.01105)
(0 0 0.0112855)
(0 0 0.0115204)
(0 0 0.0117548)
(0 0 0.0119887)
(0 0 0.0122218)
(0 0 0.0124543)
(0 0 0.012686)
(0 0 0.0129169)
(0 0 0.0131469)
(0 0 0.0133759)
(0 0 0.013604)
(0 0 0.0138309)
(0 0 0.0140567)
(0 0 0.0142813)
(0 0 0.0145046)
(0 0 0.0147265)
(0 0 0.014947)
(0 0 0.0151659)
(0 0 0.0153833)
(0 0 0.0155989)
(0 0 0.0158128)
(0 0 0.0160248)
(0 0 0.0162348)
(0 0 0.0164428)
(0 0 0.0166487)
(0 0 0.0168523)
(0 0 0.0170537)
(0 0 0.0172526)
(0 0 0.017449)
(0 0 0.0176428)
(0 0 0.0178339)
(0 0 0.0180222)
(0 0 0.0182076)
(0 0 0.0183901)
(0 0 0.0185694)
(0 0 0.0187456)
(0 0 0.0189185)
(0 0 0.019088)
(0 0 0.019254)
(0 0 0.0194165)
(0 0 0.0195753)
(0 0 0.0197303)
(0 0 0.0198816)
(0 0 0.0200289)
(0 0 0.0201721)
(0 0 0.0203113)
(0 0 0.0204463)
(0 0 0.020577)
(0 0 0.0207034)
(0 0 0.0208254)
(0 0 0.0209428)
(0 0 0.0210557)
(0 0 0.021164)
(0 0 0.0212676)
(0 0 0.0213664)
(0 0 0.0214604)
(0 0 0.0215495)
(0 0 0.0216337)
(0 0 0.021713)
(0 0 0.0217872)
(0 0 0.0218564)
(0 0 0.0219205)
(0 0 0.0219795)
(0 0 0.0220334)
(0 0 0.0220821)
(0 0 0.0221257)
(0 0 0.0221641)
(0 0 0.0221972)
(0 0 0.0222252)
(0 0 0.0222479)
(0 0 0.0222655)
(0 0 0.0222778)
(0 0 0.022285)
(0 0 0.0222871)
(0 0 0.0222839)
(0 0 0.0222757)
(0 0 0.0222624)
(0 0 0.022244)
(0 0 0.0222206)
(0 0 0.0221922)
(0 0 0.0221588)
(0 0 0.0221206)
(0 0 0.0220775)
(0 0 0.0220296)
(0 0 0.021977)
(0 0 0.0219197)
(0 0 0.0218578)
(0 0 0.0217913)
(0 0 0.0217204)
(0 0 0.021645)
(0 0 0.0215653)
(0 0 0.0214813)
(0 0 0.0213931)
(0 0 0.0213007)
(0 0 0.0212044)
(0 0 0.021104)
(0 0 0.0209998)
(0 0 0.0208918)
(0 0 0.02078)
(0 0 0.0206646)
(0 0 0.0205457)
(0 0 0.0204233)
(0 0 0.0202975)
(0 0 0.0201684)
(0 0 0.0200361)
(0 0 0.0199007)
(0 0 0.0197622)
(0 0 0.0196208)
(0 0 0.0194765)
(0 0 0.0193294)
(0 0 0.0191797)
(0 0 0.0190273)
(0 0 0.0188724)
(0 0 0.018715)
(0 0 0.0185553)
(0 0 0.0183933)
(0 0 0.0182291)
(0 0 0.0180627)
(0 0 0.0178943)
(0 0 0.0177239)
(0 0 0.0175517)
(0 0 0.0173776)
(0 0 0.0172018)
(0 0 0.0170242)
(0 0 0.0168451)
(0 0 0.0166644)
(0 0 0.0164823)
(0 0 0.0162988)
(0 0 0.0161139)
(0 0 0.0159277)
(0 0 0.0157403)
(0 0 0.0155517)
(0 0 0.0153621)
(0 0 0.0151713)
(0 0 0.0149796)
(0 0 0.014787)
(0 0 0.0145935)
(0 0 0.0143991)
(0 0 0.0142039)
(0 0 0.0140081)
(0 0 0.0138115)
(0 0 0.0136142)
(0 0 0.0134164)
(0 0 0.0132179)
(0 0 0.013019)
(0 0 0.0128195)
(0 0 0.0126196)
(0 0 0.0124193)
(0 0 0.0122186)
(0 0 0.0120175)
(0 0 0.0118161)
(0 0 0.0116144)
(0 0 0.0114125)
(0 0 0.0112103)
(0 0 0.0110079)
(0 0 0.0108053)
(0 0 0.0106026)
(0 0 0.0103997)