/*--------------------------------*- C++ -*----------------------------------*\
| =========                 |                                                 |
| \\      /  F ield         | OpenFOAM: The Open Source CFD Toolbox           |
|  \\    /   O peration     | Version:  v2012                                 |
|   \\  /    A nd           | Website:  www.openfoam.com                      |
|    \\/     M anipulation  |                                                 |
\*---------------------------------------------------------------------------*/
FoamFile
{
    version     2.0;
    format      ascii;
    class       volScalarField;
    location    "8.8";
    object      Psi_z;
}
// * * * * * * * * * * * * * * * * * * * * * * * * * * * * * * * * * * * * * //

dimensions      [0 2 -1 0 0 0 0];


internalField   nonuniform List<scalar> 
65536
(
9.25021e-06
2.77507e-05
4.62513e-05
6.47522e-05
8.32535e-05
0.000101755
0.000120257
0.00013876
0.000157263
0.000175767
0.000194272
0.000212776
0.000231281
0.000249786
0.000268291
0.000286796
0.0003053
0.000323803
0.000342304
0.000360803
0.0003793
0.000397793
0.000416282
0.000434766
0.000453244
0.000471715
0.000490178
0.000508632
0.000527076
0.000545508
0.000563926
0.000582329
0.000600715
0.000619083
0.00063743
0.000655754
0.000674053
0.000692325
0.000710567
0.000728777
0.000746951
0.000765087
0.000783182
0.000801233
0.000819236
0.000837188
0.000855085
0.000872924
0.0008907
0.00090841
0.00092605
0.000943614
0.0009611
0.000978501
0.000995814
0.00101303
0.00103015
0.00104717
0.00106408
0.00108087
0.00109755
0.0011141
0.00113052
0.0011468
0.00116294
0.00117893
0.00119476
0.00121044
0.00122594
0.00124128
0.00125643
0.0012714
0.00128617
0.00130075
0.00131511
0.00132927
0.00134321
0.00135692
0.0013704
0.00138364
0.00139664
0.00140939
0.00142187
0.0014341
0.00144605
0.00145773
0.00146913
0.00148024
0.00149106
0.00150157
0.00151179
0.00152169
0.00153128
0.00154054
0.00154949
0.0015581
0.00156638
0.00157433
0.00158193
0.00158919
0.00159609
0.00160265
0.00160885
0.0016147
0.00162018
0.00162531
0.00163007
0.00163446
0.00163849
0.00164214
0.00164543
0.00164835
0.0016509
0.00165309
0.0016549
0.00165634
0.00165741
0.00165812
0.00165846
0.00165844
0.00165805
0.00165731
0.0016562
0.00165474
0.00165293
0.00165077
0.00164826
0.0016454
0.00164221
0.00163868
0.00163482
0.00163063
0.00162612
0.00162129
0.00161614
0.00161069
0.00160493
0.00159887
0.00159251
0.00158586
0.00157893
0.00157172
0.00156424
0.00155648
0.00154847
0.00154019
0.00153167
0.0015229
0.00151388
0.00150464
0.00149516
0.00148546
0.00147554
0.00146541
0.00145507
0.00144453
0.0014338
0.00142287
0.00141176
0.00140048
0.00138901
0.00137738
0.00136559
0.00135364
0.00134153
0.00132928
0.00131689
0.00130435
0.00129169
0.00127889
0.00126597
0.00125294
0.00123978
0.00122652
0.00121315
0.00119968
0.00118611
0.00117245
0.0011587
0.00114486
0.00113094
0.00111694
0.00110287
0.00108872
0.00107451
0.00106023
0.00104589
0.00103149
0.00101704
0.00100253
0.000987968
0.000973362
0.000958711
0.000944017
0.000929283
0.000914512
0.000899705
0.000884865
0.000869994
0.000855093
0.000840166
0.000825213
0.000810236
0.000795238
0.000780219
0.000765181
0.000750127
0.000735056
0.000719971
0.000704873
0.000689762
0.000674641
0.000659511
0.000644371
0.000629224
0.00061407
0.000598911
0.000583746
0.000568576
0.000553403
0.000538228
0.000523049
0.000507869
0.000492688
0.000477506
0.000462324
0.000447142
0.00043196
0.000416779
0.000401599
0.00038642
0.000371243
0.000356067
0.000340894
0.000325722
0.000310552
0.000295385
0.00028022
0.000265057
0.000249896
0.000234738
0.000219582
0.000204428
0.000189276
0.000174126
0.000158977
0.000143831
0.000128686
0.000113543
9.84013e-05
8.32606e-05
6.81209e-05
5.29821e-05
3.78439e-05
2.27061e-05
7.56868e-06
2.77506e-05
8.32519e-05
0.000138754
0.000194256
0.00024976
0.000305265
0.000360772
0.00041628
0.00047179
0.000527301
0.000582814
0.000638329
0.000693844
0.000749359
0.000804875
0.000860389
0.000915901
0.00097141
0.00102691
0.00108241
0.0011379
0.00119338
0.00124885
0.0013043
0.00135974
0.00141515
0.00147054
0.00152591
0.00158124
0.00163654
0.00169179
0.001747
0.00180216
0.00185727
0.00191231
0.00196729
0.00202219
0.002077
0.00213173
0.00218636
0.00224089
0.0022953
0.00234959
0.00240375
0.00245776
0.00251162
0.00256531
0.00261883
0.00267217
0.0027253
0.00277822
0.00283092
0.00288338
0.00293559
0.00298753
0.0030392
0.00309057
0.00314162
0.00319235
0.00324274
0.00329277
0.00334243
0.00339169
0.00344054
0.00348896
0.00353694
0.00358445
0.00363148
0.003678
0.00372401
0.00376947
0.00381438
0.00385871
0.00390244
0.00394555
0.00398803
0.00402985
0.00407099
0.00411144
0.00415117
0.00419017
0.00422841
0.00426588
0.00430256
0.00433844
0.00437348
0.00440768
0.00444101
0.00447346
0.00450502
0.00453566
0.00456537
0.00459414
0.00462195
0.00464879
0.00467464
0.00469948
0.00472332
0.00474613
0.0047679
0.00478863
0.00480831
0.00482692
0.00484445
0.00486091
0.00487628
0.00489056
0.00490374
0.00491582
0.0049268
0.00493667
0.00494543
0.00495308
0.00495962
0.00496505
0.00496938
0.0049726
0.00497472
0.00497574
0.00497567
0.00497451
0.00497227
0.00496895
0.00496457
0.00495913
0.00495264
0.00494511
0.00493654
0.00492696
0.00491637
0.00490479
0.00489222
0.00487868
0.00486418
0.00484874
0.00483236
0.00481507
0.00479689
0.00477781
0.00475787
0.00473707
0.00471543
0.00469297
0.00466971
0.00464565
0.00462083
0.00459524
0.00456892
0.00454188
0.00451413
0.00448569
0.00445659
0.00442683
0.00439643
0.00436541
0.00433379
0.00430158
0.0042688
0.00423547
0.0042016
0.0041672
0.00413231
0.00409692
0.00406106
0.00402474
0.00398798
0.00395079
0.00391319
0.00387518
0.00383679
0.00379803
0.00375892
0.00371945
0.00367966
0.00363955
0.00359914
0.00355843
0.00351744
0.00347618
0.00343466
0.0033929
0.0033509
0.00330868
0.00326624
0.00322359
0.00318075
0.00313773
0.00309453
0.00305116
0.00300763
0.00296395
0.00292013
0.00287617
0.00283209
0.00278789
0.00274357
0.00269915
0.00265462
0.00261001
0.00256531
0.00252052
0.00247566
0.00243073
0.00238573
0.00234067
0.00229556
0.00225039
0.00220518
0.00215992
0.00211463
0.0020693
0.00202393
0.00197854
0.00193312
0.00188768
0.00184222
0.00179673
0.00175124
0.00170573
0.00166021
0.00161468
0.00156915
0.00152361
0.00147806
0.00143252
0.00138697
0.00134142
0.00129588
0.00125033
0.00120479
0.00115926
0.00111373
0.0010682
0.00102268
0.000977163
0.000931654
0.000886152
0.000840656
0.000795168
0.000749686
0.000704211
0.000658742
0.00061328
0.000567824
0.000522374
0.00047693
0.000431491
0.000386057
0.000340628
0.000295202
0.000249781
0.000204362
0.000158945
0.000113531
6.81181e-05
2.27059e-05
4.62508e-05
0.000138753
0.000231255
0.000323759
0.000416265
0.000508773
0.000601284
0.000693798
0.000786314
0.000878834
0.000971356
0.00106388
0.00115641
0.00124893
0.00134146
0.00143398
0.00152651
0.00161902
0.00171153
0.00180403
0.00189651
0.00198898
0.00208143
0.00217386
0.00226625
0.00235862
0.00245094
0.00254321
0.00263544
0.0027276
0.0028197
0.00291173
0.00300367
0.00309552
0.00318726
0.00327889
0.0033704
0.00346177
0.003553
0.00364406
0.00373494
0.00382564
0.00391613
0.0040064
0.00409643
0.00418621
0.00427571
0.00436493
0.00445383
0.0045424
0.00463062
0.00471847
0.00480592
0.00489295
0.00497954
0.00506566
0.00515129
0.0052364
0.00532097
0.00540497
0.00548837
0.00557115
0.00565327
0.0057347
0.00581543
0.00589541
0.00597462
0.00605302
0.00613058
0.00620728
0.00628308
0.00635794
0.00643185
0.00650475
0.00657663
0.00664744
0.00671716
0.00678576
0.00685319
0.00691943
0.00698445
0.00704821
0.00711069
0.00717184
0.00723164
0.00729007
0.00734708
0.00740266
0.00745677
0.00750938
0.00756047
0.00761001
0.00765797
0.00770434
0.00774908
0.00779217
0.0078336
0.00787333
0.00791136
0.00794767
0.00798223
0.00801502
0.00804605
0.00807529
0.00810272
0.00812835
0.00815215
0.00817412
0.00819426
0.00821256
0.00822901
0.00824361
0.00825636
0.00826727
0.00827632
0.00828353
0.00828889
0.00829242
0.00829411
0.00829399
0.00829205
0.00828831
0.00828277
0.00827546
0.00826638
0.00825555
0.00824299
0.00822871
0.00821272
0.00819506
0.00817574
0.00815478
0.00813219
0.00810801
0.00808226
0.00805496
0.00802612
0.00799579
0.00796398
0.00793073
0.00789604
0.00785996
0.00782251
0.00778372
0.00774361
0.00770222
0.00765956
0.00761567
0.00757058
0.00752431
0.0074769
0.00742837
0.00737875
0.00732807
0.00727635
0.00722363
0.00716993
0.00711528
0.00705971
0.00700324
0.0069459
0.00688772
0.00682873
0.00676894
0.0067084
0.00664711
0.00658511
0.00652242
0.00645906
0.00639507
0.00633045
0.00626524
0.00619946
0.00613312
0.00606626
0.00599889
0.00593103
0.0058627
0.00579392
0.00572471
0.00565509
0.00558508
0.0055147
0.00544395
0.00537287
0.00530146
0.00522974
0.00515773
0.00508544
0.00501288
0.00494007
0.00486703
0.00479376
0.00472028
0.0046466
0.00457273
0.00449869
0.00442448
0.00435011
0.0042756
0.00420095
0.00412618
0.00405129
0.00397629
0.00390118
0.00382599
0.00375071
0.00367535
0.00359992
0.00352442
0.00344886
0.00337325
0.00329759
0.00322189
0.00314615
0.00307038
0.00299457
0.00291875
0.0028429
0.00276703
0.00269115
0.00261525
0.00253935
0.00246344
0.00238753
0.00231162
0.0022357
0.00215979
0.00208389
0.00200798
0.00193209
0.0018562
0.00178032
0.00170446
0.0016286
0.00155275
0.00147691
0.00140109
0.00132527
0.00124947
0.00117368
0.0010979
0.00102213
0.000946367
0.000870618
0.000794878
0.000719147
0.000643424
0.000567709
0.000492
0.000416298
0.0003406
0.000264907
0.000189217
0.000113529
3.78429e-05
6.47507e-05
0.000194252
0.000323755
0.00045326
0.000582768
0.000712279
0.000841794
0.000971313
0.00110084
0.00123036
0.0013599
0.00148943
0.00161897
0.00174851
0.00187805
0.00200758
0.00213711
0.00226664
0.00239616
0.00252566
0.00265514
0.00278461
0.00291404
0.00304344
0.0031728
0.00330212
0.00343138
0.00356057
0.0036897
0.00381874
0.00394769
0.00407654
0.00420527
0.00433387
0.00446233
0.00459063
0.00471875
0.00484669
0.00497442
0.00510193
0.00522919
0.00535618
0.00548289
0.00560929
0.00573536
0.00586108
0.00598641
0.00611133
0.00623583
0.00635985
0.00648339
0.00660641
0.00672887
0.00685075
0.006972
0.00709261
0.00721253
0.00733172
0.00745016
0.0075678
0.0076846
0.00780052
0.00791553
0.00802959
0.00814264
0.00825466
0.00836559
0.00847539
0.00858403
0.00869145
0.00879761
0.00890247
0.00900598
0.00910809
0.00920877
0.00930795
0.00940561
0.00950168
0.00959614
0.00968892
0.00977999
0.0098693
0.00995681
0.0100425
0.0101262
0.0102081
0.0102879
0.0103658
0.0104416
0.0105153
0.0105868
0.0106562
0.0107234
0.0107883
0.010851
0.0109114
0.0109694
0.0110251
0.0110783
0.0111292
0.0111776
0.0112235
0.011267
0.0113079
0.0113463
0.0113822
0.0114156
0.0114463
0.0114745
0.0115002
0.0115232
0.0115436
0.0115615
0.0115768
0.0115894
0.0115995
0.011607
0.0116119
0.0116143
0.0116141
0.0116114
0.0116061
0.0115984
0.0115881
0.0115754
0.0115602
0.0115426
0.0115226
0.0115002
0.0114754
0.0114483
0.011419
0.0113873
0.0113534
0.0113173
0.0112791
0.0112387
0.0111962
0.0111516
0.011105
0.0110564
0.0110059
0.0109534
0.0108991
0.0108429
0.0107849
0.0107251
0.0106636
0.0106005
0.0105356
0.0104692
0.0104012
0.0103317
0.0102607
0.0101883
0.0101144
0.0100392
0.00996268
0.00988484
0.00980575
0.00972544
0.00964395
0.00956133
0.00947759
0.00939279
0.00930695
0.00922012
0.00913232
0.00904359
0.00895396
0.00886347
0.00877214
0.00868001
0.00858712
0.00849348
0.00839913
0.00830409
0.0082084
0.00811209
0.00801517
0.00791768
0.00781964
0.00772108
0.00762201
0.00752247
0.00742248
0.00732205
0.00722121
0.00711998
0.00701839
0.00691644
0.00681416
0.00671156
0.00660867
0.0065055
0.00640207
0.0062984
0.00619449
0.00609036
0.00598603
0.00588151
0.00577681
0.00567195
0.00556694
0.00546179
0.0053565
0.0052511
0.00514559
0.00503998
0.00493427
0.00482848
0.00472262
0.00461669
0.0045107
0.00440466
0.00429857
0.00419244
0.00408628
0.00398008
0.00387386
0.00376762
0.00366137
0.0035551
0.00344883
0.00334255
0.00323626
0.00312998
0.00302371
0.00291743
0.00281117
0.00270492
0.00259867
0.00249244
0.00238622
0.00228002
0.00217383
0.00206766
0.0019615
0.00185536
0.00174924
0.00164313
0.00153704
0.00143096
0.0013249
0.00121885
0.00111282
0.00100679
0.000900783
0.000794783
0.000688792
0.00058281
0.000476834
0.000370865
0.0002649
0.000158939
5.29794e-05
8.32501e-05
0.000249751
0.000416254
0.000582759
0.000749268
0.000915781
0.0010823
0.00124882
0.00141535
0.00158189
0.00174843
0.00191498
0.00208153
0.00224808
0.00241463
0.00258118
0.00274773
0.00291427
0.0030808
0.00324731
0.0034138
0.00358026
0.00374668
0.00391306
0.0040794
0.00424567
0.00441188
0.004578
0.00474404
0.00490997
0.00507578
0.00524146
0.00540699
0.00557236
0.00573755
0.00590253
0.0060673
0.00623182
0.00639607
0.00656004
0.0067237
0.00688701
0.00704996
0.00721252
0.00737465
0.00753632
0.00769751
0.00785818
0.00801828
0.0081778
0.00833669
0.0084949
0.00865241
0.00880916
0.00896512
0.00912025
0.00927449
0.00942781
0.00958015
0.00973146
0.0098817
0.0100308
0.0101788
0.0103255
0.0104709
0.010615
0.0107577
0.0108989
0.0110387
0.0111769
0.0113135
0.0114484
0.0115815
0.0117129
0.0118424
0.01197
0.0120956
0.0122192
0.0123408
0.0124601
0.0125773
0.0126922
0.0128048
0.012915
0.0130228
0.0131281
0.0132308
0.013331
0.0134285
0.0135233
0.0136154
0.0137046
0.0137911
0.0138746
0.0139553
0.0140329
0.0141076
0.0141792
0.0142477
0.0143131
0.0143754
0.0144345
0.0144904
0.0145431
0.0145925
0.0146387
0.0146816
0.0147211
0.0147574
0.0147904
0.01482
0.0148463
0.0148692
0.0148888
0.0149051
0.0149181
0.0149277
0.014934
0.0149371
0.0149368
0.0149333
0.0149265
0.0149165
0.0149032
0.0148868
0.0148673
0.0148446
0.0148188
0.01479
0.0147581
0.0147232
0.0146854
0.0146447
0.014601
0.0145546
0.0145053
0.0144533
0.0143986
0.0143413
0.0142813
0.0142188
0.0141537
0.0140862
0.0140162
0.0139439
0.0138693
0.0137924
0.0137133
0.013632
0.0135486
0.0134631
0.0133756
0.0132862
0.0131949
0.0131017
0.0130066
0.0129099
0.0128114
0.0127112
0.0126095
0.0125062
0.0124013
0.012295
0.0121873
0.0120782
0.0119678
0.0118561
0.0117432
0.011629
0.0115137
0.0113973
0.0112798
0.0111613
0.0110419
0.0109214
0.0108
0.0106778
0.0105547
0.0104309
0.0103062
0.0101808
0.0100547
0.00992796
0.00980055
0.00967253
0.00954393
0.00941477
0.00928509
0.0091549
0.00902424
0.00889313
0.0087616
0.00862966
0.00849735
0.00836467
0.00823166
0.00809834
0.00796471
0.00783081
0.00769665
0.00756225
0.00742761
0.00729277
0.00715774
0.00702252
0.00688714
0.00675161
0.00661593
0.00648013
0.00634421
0.00620818
0.00607206
0.00593585
0.00579957
0.00566322
0.0055268
0.00539034
0.00525384
0.00511729
0.00498072
0.00484411
0.00470749
0.00457086
0.00443421
0.00429756
0.00416091
0.00402426
0.00388761
0.00375097
0.00361435
0.00347773
0.00334113
0.00320455
0.00306798
0.00293143
0.0027949
0.00265839
0.00252191
0.00238544
0.002249
0.00211257
0.00197617
0.00183978
0.00170342
0.00156707
0.00143074
0.00129443
0.00115813
0.00102185
0.000885576
0.000749314
0.000613063
0.000476818
0.00034058
0.000204347
6.81152e-05
0.000101749
0.000305248
0.000508749
0.000712254
0.000915763
0.00111928
0.0013228
0.00152633
0.00172987
0.00193341
0.00213696
0.00234052
0.00254409
0.00274765
0.00295122
0.00315479
0.00335836
0.00356191
0.00376545
0.00396898
0.00417247
0.00437594
0.00457936
0.00478274
0.00498605
0.0051893
0.00539246
0.00559553
0.00579848
0.00600132
0.006204
0.00640654
0.00660889
0.00681104
0.00701297
0.00721466
0.00741608
0.00761721
0.00781801
0.00801847
0.00821855
0.00841821
0.00861743
0.00881617
0.00901439
0.00921206
0.00940914
0.00960558
0.00980134
0.00999638
0.0101906
0.0103841
0.0105767
0.0107684
0.0109591
0.0111488
0.0113374
0.0115249
0.0117112
0.0118962
0.0120799
0.0122623
0.0124432
0.0126226
0.0128005
0.0129767
0.0131512
0.013324
0.0134949
0.0136639
0.013831
0.013996
0.0141588
0.0143195
0.0144779
0.014634
0.0147877
0.0149389
0.0150875
0.0152335
0.0153769
0.0155174
0.0156551
0.0157899
0.0159218
0.0160506
0.0161763
0.0162988
0.0164181
0.0165341
0.0166467
0.0167559
0.0168616
0.0169638
0.0170625
0.0171575
0.0172488
0.0173364
0.0174202
0.0175002
0.0175764
0.0176487
0.0177171
0.0177815
0.0178419
0.0178984
0.0179508
0.0179992
0.0180436
0.0180839
0.0181201
0.0181522
0.0181803
0.0182043
0.0182242
0.01824
0.0182517
0.0182594
0.0182631
0.0182628
0.0182584
0.0182501
0.0182378
0.0182216
0.0182015
0.0181775
0.0181497
0.0181181
0.0180828
0.0180438
0.0180011
0.0179548
0.0179049
0.0178515
0.0177946
0.0177343
0.0176707
0.0176037
0.0175335
0.0174601
0.0173836
0.017304
0.0172214
0.0171358
0.0170473
0.016956
0.0168619
0.0167651
0.0166656
0.0165636
0.016459
0.016352
0.0162426
0.0161309
0.0160168
0.0159006
0.0157822
0.0156617
0.0155392
0.0154148
0.0152884
0.0151602
0.0150302
0.0148984
0.014765
0.0146299
0.0144933
0.0143552
0.0142156
0.0140746
0.0139322
0.0137886
0.0136437
0.0134975
0.0133503
0.0132019
0.0130524
0.0129019
0.0127504
0.012598
0.0124447
0.0122905
0.0121355
0.0119797
0.0118232
0.0116659
0.011508
0.0113495
0.0111903
0.0110305
0.0108703
0.0107094
0.0105481
0.0103864
0.0102242
0.0100616
0.00989857
0.00973522
0.00957152
0.00940751
0.00924321
0.00907863
0.00891379
0.00874872
0.00858343
0.00841793
0.00825225
0.0080864
0.0079204
0.00775425
0.00758797
0.00742158
0.00725509
0.0070885
0.00692183
0.00675509
0.00658829
0.00642143
0.00625453
0.00608759
0.00592063
0.00575364
0.00558663
0.00541961
0.00525258
0.00508555
0.00491853
0.00475151
0.0045845
0.00441751
0.00425053
0.00408357
0.00391663
0.00374971
0.00358282
0.00341595
0.00324911
0.00308229
0.0029155
0.00274873
0.00258199
0.00241528
0.00224859
0.00208192
0.00191528
0.00174865
0.00158205
0.00141547
0.0012489
0.00108235
0.00091581
0.000749283
0.000582766
0.000416256
0.000249752
8.32502e-05
0.000120247
0.000360743
0.000601241
0.000841744
0.00108225
0.00132277
0.00156329
0.00180383
0.00204437
0.00228492
0.00252549
0.00276606
0.00300664
0.00324723
0.00348781
0.0037284
0.00396899
0.00420957
0.00445013
0.00469067
0.00493119
0.00517167
0.0054121
0.00565247
0.00589278
0.00613301
0.00637314
0.00661316
0.00685305
0.0070928
0.00733239
0.00757179
0.00781098
0.00804994
0.00828864
0.00852706
0.00876516
0.00900292
0.00924031
0.00947728
0.00971381
0.00994985
0.0101854
0.0104203
0.0106547
0.0108884
0.0111214
0.0113537
0.0115851
0.0118157
0.0120454
0.0122742
0.0125019
0.0127286
0.0129541
0.0131784
0.0134014
0.0136231
0.0138434
0.0140622
0.0142795
0.0144952
0.0147092
0.0149214
0.0151317
0.0153401
0.0155466
0.0157509
0.0159531
0.016153
0.0163505
0.0165457
0.0167384
0.0169284
0.0171158
0.0173004
0.0174822
0.0176611
0.0178369
0.0180096
0.0181792
0.0183455
0.0185084
0.0186679
0.0188238
0.0189762
0.0191249
0.0192698
0.019411
0.0195482
0.0196814
0.0198106
0.0199357
0.0200566
0.0201733
0.0202857
0.0203937
0.0204974
0.0205965
0.0206912
0.0207813
0.0208668
0.0209477
0.0210239
0.0210954
0.0211621
0.0212242
0.0212814
0.0213339
0.0213815
0.0214243
0.0214623
0.0214955
0.0215238
0.0215473
0.0215659
0.0215798
0.0215889
0.0215932
0.0215927
0.0215875
0.0215776
0.021563
0.0215438
0.0215199
0.0214915
0.0214586
0.0214212
0.0213793
0.0213331
0.0212825
0.0212277
0.0211686
0.0211054
0.0210381
0.0209667
0.0208914
0.0208121
0.020729
0.0206421
0.0205515
0.0204573
0.0203595
0.0202582
0.0201535
0.0200454
0.0199341
0.0198195
0.0197019
0.0195811
0.0194574
0.0193308
0.0192013
0.0190691
0.0189342
0.0187967
0.0186566
0.0185141
0.0183692
0.018222
0.0180725
0.0179208
0.017767
0.0176112
0.0174534
0.0172936
0.017132
0.0169687
0.0168036
0.0166368
0.0164685
0.0162986
0.0161272
0.0159544
0.0157802
0.0156047
0.015428
0.01525
0.0150709
0.0148907
0.0147094
0.0145271
0.0143438
0.0141596
0.0139745
0.0137886
0.0136019
0.0134145
0.0132263
0.0130374
0.0128479
0.0126578
0.0124671
0.0122758
0.0120841
0.0118919
0.0116992
0.0115061
0.0113126
0.0111187
0.0109244
0.0107299
0.010535
0.0103399
0.0101445
0.00994891
0.00975307
0.00955703
0.00936081
0.00916442
0.00896788
0.00877121
0.00857442
0.00837752
0.00818052
0.00798344
0.00778629
0.00758908
0.00739181
0.0071945
0.00699716
0.00679979
0.00660241
0.00640501
0.0062076
0.0060102
0.00581279
0.0056154
0.00541802
0.00522066
0.00502331
0.00482599
0.0046287
0.00443143
0.00423419
0.00403698
0.0038398
0.00364265
0.00344553
0.00324844
0.00305139
0.00285436
0.00265737
0.0024604
0.00226346
0.00206654
0.00186965
0.00167279
0.00147594
0.00127911
0.00108229
0.000885495
0.000688706
0.000491927
0.000295153
9.83841e-05
0.000138745
0.000416235
0.000693729
0.000971228
0.00124873
0.00152625
0.00180378
0.00208131
0.00235886
0.00263643
0.002914
0.00319159
0.00346919
0.00374679
0.00402441
0.00430202
0.00457963
0.00485724
0.00513483
0.0054124
0.00568994
0.00596744
0.00624489
0.00652228
0.00679959
0.00707681
0.00735393
0.00763092
0.00790777
0.00818446
0.00846096
0.00873725
0.0090133
0.00928909
0.00956459
0.00983977
0.0101146
0.010389
0.010663
0.0109365
0.0112096
0.011482
0.0117539
0.0120251
0.0122956
0.0125654
0.0128344
0.0131025
0.0133697
0.013636
0.0139012
0.0141653
0.0144282
0.0146899
0.0149503
0.0152092
0.0154668
0.0157228
0.0159772
0.0162298
0.0164807
0.0167298
0.0169769
0.0172219
0.0174649
0.0177056
0.017944
0.01818
0.0184134
0.0186443
0.0188725
0.0190979
0.0193205
0.01954
0.0197564
0.0199697
0.0201797
0.0203863
0.0205894
0.0207889
0.0209848
0.0211769
0.0213651
0.0215493
0.0217295
0.0219055
0.0220773
0.0222447
0.0224078
0.0225663
0.0227202
0.0228695
0.023014
0.0231537
0.0232885
0.0234183
0.0235431
0.0236628
0.0237773
0.0238867
0.0239908
0.0240895
0.0241829
0.024271
0.0243535
0.0244307
0.0245023
0.0245684
0.0246289
0.0246839
0.0247333
0.0247772
0.0248154
0.0248481
0.0248752
0.0248967
0.0249127
0.0249231
0.024928
0.0249274
0.0249213
0.0249098
0.0248929
0.0248706
0.024843
0.0248101
0.024772
0.0247287
0.0246803
0.0246268
0.0245683
0.0245049
0.0244366
0.0243634
0.0242856
0.0242031
0.024116
0.0240243
0.0239283
0.0238278
0.0237231
0.0236142
0.0235012
0.0233841
0.0232631
0.0231382
0.0230095
0.0228771
0.0227411
0.0226016
0.0224587
0.0223124
0.0221628
0.0220101
0.0218542
0.0216953
0.0215336
0.0213689
0.0212015
0.0210314
0.0208588
0.0206836
0.0205059
0.0203259
0.0201437
0.0199592
0.0197726
0.0195839
0.0193932
0.0192007
0.0190062
0.0188101
0.0186122
0.0184126
0.0182115
0.0180089
0.0178048
0.0175993
0.0173925
0.0171844
0.0169751
0.0167646
0.016553
0.0163404
0.0161267
0.0159121
0.0156966
0.0154802
0.0152629
0.0150449
0.0148262
0.0146067
0.0143866
0.0141658
0.0139445
0.0137226
0.0135002
0.0132773
0.013054
0.0128302
0.012606
0.0123815
0.0121566
0.0119314
0.0117059
0.0114801
0.0112541
0.0110278
0.0108014
0.0105747
0.0103479
0.010121
0.00989385
0.00966663
0.00943929
0.00921186
0.00898435
0.00875677
0.00852913
0.00830145
0.00807373
0.00784597
0.0076182
0.00739042
0.00716263
0.00693483
0.00670705
0.00647928
0.00625152
0.00602379
0.00579607
0.00556839
0.00534074
0.00511311
0.00488552
0.00465797
0.00443045
0.00420297
0.00397553
0.00374812
0.00352075
0.00329342
0.00306612
0.00283885
0.00261161
0.00238441
0.00215723
0.00193008
0.00170296
0.00147585
0.00124876
0.00102169
0.000794638
0.000567591
0.000340552
0.000113517
0.000157241
0.000471724
0.000786211
0.0011007
0.00141521
0.00172972
0.00204425
0.00235879
0.00267335
0.00298792
0.00330251
0.00361711
0.00393173
0.00424636
0.004561
0.00487564
0.00519028
0.00550492
0.00581955
0.00613415
0.00644873
0.00676326
0.00707774
0.00739215
0.00770649
0.00802072
0.00833484
0.00864882
0.00896265
0.0092763
0.00958974
0.00990294
0.0102159
0.0105285
0.0108409
0.0111528
0.0114644
0.0117755
0.0120862
0.0123963
0.0127059
0.0130148
0.013323
0.0136306
0.0139373
0.0142433
0.0145483
0.0148523
0.0151553
0.0154573
0.015758
0.0160575
0.0163557
0.0166525
0.0169478
0.0172416
0.0175337
0.017824
0.0181126
0.0183992
0.0186838
0.0189663
0.0192466
0.0195246
0.0198002
0.0200733
0.0203438
0.0206115
0.0208764
0.0211384
0.0213973
0.0216531
0.0219056
0.0221547
0.0224003
0.0226423
0.0228805
0.023115
0.0233455
0.0235719
0.0237942
0.0240121
0.0242257
0.0244348
0.0246393
0.0248391
0.025034
0.025224
0.0254091
0.025589
0.0257637
0.0259331
0.0260971
0.0262556
0.0264086
0.0265559
0.0266975
0.0268334
0.0269634
0.0270875
0.0272056
0.0273176
0.0274236
0.0275235
0.0276172
0.0277047
0.0277859
0.0278609
0.0279295
0.0279919
0.028048
0.0280977
0.028141
0.028178
0.0282087
0.0282331
0.0282511
0.0282629
0.0282683
0.0282676
0.0282606
0.0282474
0.0282281
0.0282027
0.0281713
0.0281339
0.0280905
0.0280413
0.0279863
0.0279255
0.027859
0.0277869
0.0277093
0.0276262
0.0275378
0.027444
0.0273451
0.027241
0.0271319
0.0270178
0.0268989
0.0267752
0.0266468
0.0265139
0.0263765
0.0262347
0.0260886
0.0259383
0.025784
0.0256256
0.0254633
0.0252973
0.0251275
0.0249541
0.0247772
0.0245969
0.0244133
0.0242265
0.0240365
0.0238435
0.0236476
0.0234488
0.0232472
0.023043
0.0228362
0.0226269
0.0224151
0.0222011
0.0219848
0.0217663
0.0215458
0.0213232
0.0210988
0.0208724
0.0206443
0.0204145
0.020183
0.0199499
0.0197154
0.0194794
0.019242
0.0190033
0.0187633
0.0185222
0.0182799
0.0180365
0.0177921
0.0175467
0.0173004
0.0170532
0.0168051
0.0165563
0.0163067
0.0160564
0.0158055
0.0155539
0.0153017
0.015049
0.0147958
0.0145421
0.0142879
0.0140334
0.0137784
0.0135231
0.0132675
0.0130116
0.0127553
0.0124989
0.0122422
0.0119852
0.0117281
0.0114708
0.0112134
0.0109558
0.0106982
0.0104404
0.0101825
0.00992453
0.00966651
0.00940843
0.00915032
0.00889218
0.00863401
0.00837583
0.00811765
0.00785947
0.0076013
0.00734314
0.007085
0.00682689
0.00656881
0.00631076
0.00605274
0.00579476
0.00553683
0.00527893
0.00502107
0.00476326
0.00450549
0.00424777
0.00399008
0.00373244
0.00347483
0.00321727
0.00295974
0.00270225
0.00244479
0.00218736
0.00192995
0.00167258
0.00141522
0.00115788
0.000900559
0.000643248
0.000385945
0.000128648
0.000175736
0.000527209
0.000878687
0.00123017
0.00158167
0.00193318
0.00228471
0.00263625
0.00298781
0.00333939
0.003691
0.00404262
0.00439426
0.00474591
0.00509758
0.00544926
0.00580094
0.00615262
0.00650429
0.00685594
0.00720756
0.00755913
0.00791066
0.00826211
0.00861348
0.00896475
0.00931589
0.00966689
0.0100177
0.0103683
0.0107188
0.0110689
0.0114188
0.0117683
0.0121175
0.0124663
0.0128147
0.0131625
0.0135099
0.0138566
0.0142028
0.0145482
0.0148929
0.0152368
0.0155799
0.015922
0.0162631
0.0166031
0.016942
0.0172797
0.0176161
0.0179511
0.0182846
0.0186166
0.018947
0.0192755
0.0196023
0.0199271
0.0202499
0.0205706
0.020889
0.0212051
0.0215187
0.0218298
0.0221381
0.0224437
0.0227463
0.0230459
0.0233424
0.0236355
0.0239253
0.0242115
0.024494
0.0247728
0.0250477
0.0253186
0.0255852
0.0258476
0.0261056
0.0263591
0.0266078
0.0268518
0.0270909
0.0273249
0.0275538
0.0277774
0.0279957
0.0282084
0.0284155
0.0286169
0.0288124
0.029002
0.0291856
0.0293631
0.0295343
0.0296992
0.0298578
0.0300098
0.0301553
0.0302942
0.0304264
0.0305518
0.0306704
0.0307822
0.030887
0.0309849
0.0310758
0.0311597
0.0312365
0.0313062
0.0313689
0.0314245
0.0314729
0.0315143
0.0315485
0.0315757
0.0315958
0.0316089
0.0316149
0.0316139
0.031606
0.0315912
0.0315695
0.0315409
0.0315056
0.0314636
0.031415
0.0313597
0.031298
0.0312298
0.0311553
0.0310745
0.0309875
0.0308944
0.0307952
0.0306902
0.0305793
0.0304627
0.0303404
0.0302127
0.0300794
0.0299409
0.0297971
0.0296482
0.0294943
0.0293355
0.0291719
0.0290036
0.0288308
0.0286534
0.0284718
0.0282858
0.0280958
0.0279017
0.0277037
0.0275018
0.0272963
0.0270872
0.0268745
0.0266585
0.0264392
0.0262167
0.0259912
0.0257626
0.0255312
0.025297
0.0250601
0.0248205
0.0245785
0.0243341
0.0240874
0.0238384
0.0235872
0.023334
0.0230788
0.0228217
0.0225627
0.0223021
0.0220397
0.0217757
0.0215102
0.0212432
0.0209748
0.0207051
0.0204341
0.0201619
0.0198886
0.0196142
0.0193387
0.0190622
0.0187849
0.0185066
0.0182275
0.0179476
0.017667
0.0173857
0.0171038
0.0168212
0.0165381
0.0162544
0.0159703
0.0156857
0.0154006
0.0151152
0.0148294
0.0145433
0.0142568
0.0139701
0.0136831
0.0133959
0.0131085
0.0128209
0.0125331
0.0122452
0.0119571
0.011669
0.0113807
0.0110923
0.0108039
0.0105155
0.0102269
0.0099384
0.00964983
0.00936125
0.00907267
0.00878409
0.00849553
0.00820698
0.00791846
0.00762997
0.00734151
0.00705309
0.00676471
0.00647638
0.00618809
0.00589985
0.00561165
0.00532351
0.00503541
0.00474737
0.00445937
0.00417142
0.00388351
0.00359565
0.00330783
0.00302005
0.00273231
0.0024446
0.00215693
0.00186928
0.00158166
0.00129405
0.00100647
0.000718896
0.000431334
0.000143777
0.000194229
0.000582689
0.000971155
0.00135963
0.00174812
0.00213662
0.00252515
0.00291369
0.00330226
0.00369085
0.00407946
0.00446811
0.00485677
0.00524545
0.00563416
0.00602287
0.0064116
0.00680033
0.00718905
0.00757775
0.00796643
0.00835506
0.00874365
0.00913216
0.00952058
0.0099089
0.0102971
0.0106851
0.011073
0.0114606
0.011848
0.0122352
0.012622
0.0130085
0.0133945
0.0137802
0.0141654
0.0145501
0.0149341
0.0153176
0.0157004
0.0160824
0.0164636
0.016844
0.0172233
0.0176017
0.017979
0.0183551
0.01873
0.0191035
0.0194756
0.0198462
0.0202151
0.0205824
0.0209478
0.0213114
0.0216729
0.0220323
0.0223894
0.0227442
0.0230966
0.0234463
0.0237934
0.0241376
0.0244788
0.024817
0.0251519
0.0254835
0.0258116
0.026136
0.0264567
0.0267735
0.0270863
0.0273949
0.0276992
0.027999
0.0282942
0.0285847
0.0288703
0.0291509
0.0294263
0.0296964
0.0299611
0.0302202
0.0304736
0.0307212
0.0309628
0.0311983
0.0314276
0.0316506
0.0318671
0.0320771
0.0322803
0.0324768
0.0326664
0.032849
0.0330245
0.0331928
0.0333539
0.0335076
0.033654
0.0337928
0.0339241
0.0340478
0.0341638
0.0342721
0.0343727
0.0344655
0.0345505
0.0346277
0.034697
0.0347584
0.034812
0.0348576
0.0348955
0.0349255
0.0349476
0.0349619
0.0349685
0.0349673
0.0349584
0.0349418
0.0349176
0.0348859
0.0348467
0.0348
0.034746
0.0346847
0.0346162
0.0345406
0.0344579
0.0343683
0.0342718
0.0341685
0.0340587
0.0339422
0.0338193
0.03369
0.0335545
0.0334129
0.0332653
0.0331118
0.0329525
0.0327875
0.0326171
0.0324411
0.0322599
0.0320735
0.0318821
0.0316857
0.0314845
0.0312786
0.0310681
0.0308532
0.0306339
0.0304104
0.0301829
0.0299513
0.0297159
0.0294768
0.029234
0.0289878
0.0287381
0.0284851
0.028229
0.0279698
0.0277076
0.0274425
0.0271747
0.0269042
0.0266312
0.0263556
0.0260777
0.0257976
0.0255152
0.0252308
0.0249443
0.0246559
0.0243656
0.0240736
0.0237799
0.0234845
0.0231877
0.0228893
0.0225896
0.0222885
0.0219862
0.0216827
0.021378
0.0210723
0.0207655
0.0204578
0.0201491
0.0198396
0.0195293
0.0192182
0.0189065
0.018594
0.018281
0.0179673
0.0176531
0.0173384
0.0170233