/*--------------------------------*- C++ -*----------------------------------*\
| =========                 |                                                 |
| \\      /  F ield         | OpenFOAM: The Open Source CFD Toolbox           |
|  \\    /   O peration     | Version:  v2012                                 |
|   \\  /    A nd           | Website:  www.openfoam.com                      |
|    \\/     M anipulation  |                                                 |
\*---------------------------------------------------------------------------*/
FoamFile
{
    version     2.0;
    format      ascii;
    class       volScalarField;
    location    "8.8";
    object      W;
}
// * * * * * * * * * * * * * * * * * * * * * * * * * * * * * * * * * * * * * //

dimensions      [0 0 -1 0 0 0 0];


internalField   nonuniform List<scalar> 
65536
(
3.23099e-19
9.79152e-19
1.66512e-18
2.40203e-18
3.21232e-18
4.12049e-18
5.15369e-18
6.34247e-18
7.7215e-18
9.33045e-18
1.1215e-17
1.34277e-17
1.60295e-17
1.90909e-17
2.26935e-17
2.69321e-17
3.1916e-17
3.77722e-17
4.46473e-17
5.27107e-17
6.21577e-17
7.32139e-17
8.61384e-17
1.01229e-16
1.18829e-16
1.3933e-16
1.63181e-16
1.90894e-16
2.23057e-16
2.60335e-16
3.03488e-16
3.53378e-16
4.10982e-16
4.77407e-16
5.53903e-16
6.41882e-16
7.42933e-16
8.58843e-16
9.91619e-16
1.14351e-15
1.31703e-15
1.51498e-15
1.7405e-15
1.99707e-15
2.28855e-15
2.61922e-15
2.99383e-15
3.4176e-15
3.89629e-15
4.43624e-15
5.0444e-15
5.72838e-15
6.49649e-15
7.35779e-15
8.32215e-15
9.40026e-15
1.06037e-14
1.1945e-14
1.34376e-14
1.50961e-14
1.69359e-14
1.89737e-14
2.12272e-14
2.37152e-14
2.64578e-14
2.9476e-14
3.27922e-14
3.64296e-14
4.0413e-14
4.47677e-14
4.95204e-14
5.46986e-14
6.03306e-14
6.64458e-14
7.30738e-14
8.02449e-14
8.79898e-14
9.63393e-14
1.05324e-13
1.14975e-13
1.25322e-13
1.36393e-13
1.48219e-13
1.60824e-13
1.74234e-13
1.88472e-13
2.0356e-13
2.19513e-13
2.36348e-13
2.54074e-13
2.727e-13
2.92226e-13
3.12651e-13
3.33966e-13
3.56159e-13
3.7921e-13
4.03092e-13
4.27772e-13
4.5321e-13
4.7936e-13
5.06164e-13
5.33562e-13
5.6148e-13
5.89841e-13
6.18558e-13
6.47535e-13
6.76669e-13
7.0585e-13
7.34962e-13
7.63879e-13
7.92472e-13
8.20604e-13
8.48136e-13
8.74922e-13
9.00816e-13
9.25667e-13
9.49327e-13
9.71645e-13
9.92474e-13
1.01167e-12
1.02909e-12
1.0446e-12
1.05807e-12
1.0694e-12
1.07846e-12
1.08516e-12
1.08943e-12
1.09119e-12
1.09039e-12
1.08699e-12
1.08099e-12
1.07237e-12
1.06116e-12
1.0474e-12
1.03114e-12
1.01248e-12
9.91491e-13
9.68305e-13
9.43053e-13
9.15885e-13
8.86968e-13
8.56482e-13
8.2462e-13
7.91584e-13
7.57586e-13
7.22842e-13
6.87574e-13
6.52004e-13
6.16353e-13
5.80841e-13
5.45679e-13
5.11073e-13
4.77218e-13
4.44299e-13
4.12485e-13
3.81935e-13
3.52787e-13
3.25166e-13
2.99178e-13
2.74911e-13
2.52436e-13
2.31803e-13
2.13048e-13
1.96186e-13
1.81217e-13
1.68123e-13
1.56873e-13
1.47417e-13
1.39695e-13
1.33632e-13
1.29141e-13
1.26124e-13
1.24473e-13
1.2407e-13
1.2479e-13
1.26501e-13
1.29063e-13
1.32334e-13
1.36165e-13
1.40408e-13
1.44914e-13
1.49535e-13
1.54124e-13
1.58542e-13
1.62654e-13
1.66337e-13
1.69476e-13
1.7197e-13
1.73732e-13
1.7469e-13
1.74793e-13
1.74003e-13
1.72304e-13
1.69698e-13
1.66206e-13
1.61865e-13
1.56731e-13
1.50871e-13
1.44369e-13
1.37315e-13
1.29811e-13
1.21961e-13
1.13871e-13
1.05648e-13
9.73948e-14
8.92099e-14
8.11831e-14
7.33953e-14
6.59168e-14
5.88064e-14
5.21111e-14
4.5866e-14
4.00944e-14
3.48087e-14
3.0011e-14
2.56945e-14
2.18448e-14
1.8441e-14
1.54572e-14
1.28637e-14
1.06285e-14
8.71832e-15
7.09952e-15
5.73911e-15
4.60535e-15
3.66832e-15
2.9003e-15
2.27602e-15
1.77276e-15
1.37041e-15
1.05139e-15
8.00529e-16
6.04892e-16
4.5358e-16
3.37514e-16
2.4922e-16
1.82605e-16
1.32761e-16
9.57744e-17
6.85547e-17
4.86883e-17
3.43085e-17
2.39862e-17
1.66377e-17
1.14496e-17
7.81697e-18
5.29441e-18
3.55706e-18
2.3701e-18
1.56539e-18
1.0235e-18
6.60242e-19
4.16486e-19
2.50654e-19
1.33053e-19
4.15934e-20
1.10878e-18
3.36011e-18
5.714e-18
8.24247e-18
1.10225e-17
1.4138e-17
1.7682e-17
2.17591e-17
2.64881e-17
3.20049e-17
3.84657e-17
4.60508e-17
5.49686e-17
6.54603e-17
7.78054e-17
9.23276e-17
1.09402e-16
1.29461e-16
1.53007e-16
1.80619e-16
2.12965e-16
2.50814e-16
2.95053e-16
3.46699e-16
4.06921e-16
4.77057e-16
5.58639e-16
6.53419e-16
7.63391e-16
8.90831e-16
1.03832e-15
1.20881e-15
1.40561e-15
1.63249e-15
1.89371e-15
2.19406e-15
2.53896e-15
2.93446e-15
3.38738e-15
3.90536e-15
4.49691e-15
5.17156e-15
5.9399e-15
6.81372e-15
7.80609e-15
8.9315e-15
1.02059e-14
1.16471e-14
1.32743e-14
1.5109e-14
1.71746e-14
1.94966e-14
2.2103e-14
2.50242e-14
2.82933e-14
3.19461e-14
3.60213e-14
4.05608e-14
4.56096e-14
5.12159e-14
5.74316e-14
6.43117e-14
7.19152e-14
8.03044e-14
8.95455e-14
9.97082e-14
1.10866e-13
1.23096e-13
1.36478e-13
1.51096e-13
1.67037e-13
1.84391e-13
2.0325e-13
2.23708e-13
2.45862e-13
2.6981e-13
2.95649e-13
3.23479e-13
3.53397e-13
3.855e-13
4.19882e-13
4.56635e-13
4.95846e-13
5.37598e-13
5.81967e-13
6.29023e-13
6.78824e-13
7.31424e-13
7.8686e-13
8.45161e-13
9.06341e-13
9.70397e-13
1.03731e-12
1.10706e-12
1.17957e-12
1.25478e-12
1.33259e-12
1.41288e-12
1.49552e-12
1.58034e-12
1.66715e-12
1.75573e-12
1.84585e-12
1.93725e-12
2.02963e-12
2.12267e-12
2.21605e-12
2.3094e-12
2.40233e-12
2.49445e-12
2.58532e-12
2.67452e-12
2.7616e-12
2.84608e-12
2.9275e-12
3.00538e-12
3.07926e-12
3.14865e-12
3.2131e-12
3.27216e-12
3.32538e-12
3.37235e-12
3.41269e-12
3.44603e-12
3.47206e-12
3.49047e-12
3.50104e-12
3.50356e-12
3.4979e-12
3.48395e-12
3.46169e-12
3.43115e-12
3.3924e-12
3.34559e-12
3.29094e-12
3.2287e-12
3.15922e-12
3.08287e-12
3.0001e-12
2.9114e-12
2.81731e-12
2.71841e-12
2.61532e-12
2.50869e-12
2.3992e-12
2.28753e-12
2.17438e-12
2.06046e-12
1.94646e-12
1.83307e-12
1.72095e-12
1.61075e-12
1.50308e-12
1.39849e-12
1.29754e-12
1.20068e-12
1.10836e-12
1.02096e-12
9.38786e-13
8.62114e-13
7.9115e-13
7.26044e-13
6.66892e-13
6.13734e-13
5.66556e-13
5.25294e-13
4.89837e-13
4.60025e-13
4.35658e-13
4.16494e-13
4.02256e-13
3.9263e-13
3.87275e-13
3.85818e-13
3.87865e-13
3.92998e-13
4.00782e-13
4.10768e-13
4.22498e-13
4.35508e-13
4.49331e-13
4.63507e-13
4.77585e-13
4.91129e-13
5.03726e-13
5.14991e-13
5.24571e-13
5.32154e-13
5.37472e-13
5.40308e-13
5.40497e-13
5.37931e-13
5.3256e-13
5.24392e-13
5.13491e-13
4.99977e-13
4.84018e-13
4.65831e-13
4.45668e-13
4.23814e-13
4.00579e-13
3.76286e-13
3.51264e-13
3.25842e-13
3.00339e-13
2.75054e-13
2.50266e-13
2.26224e-13
2.03142e-13
1.81203e-13
1.6055e-13
1.4129e-13
1.23494e-13
1.072e-13
9.24124e-14
7.91112e-14
6.72504e-14
5.67651e-14
4.75749e-14
3.95883e-14
3.2706e-14
2.68253e-14
2.18423e-14
1.76552e-14
1.41661e-14
1.12828e-14
8.91986e-15
6.99931e-15
5.45123e-15
4.21369e-15
3.23256e-15
2.46111e-15
1.85953e-15
1.39429e-15
1.03745e-15
7.66005e-16
5.61227e-16
4.08015e-16
2.9433e-16
2.1067e-16
1.49614e-16
1.05423e-16
7.37018e-17
5.11207e-17
3.51787e-17
2.40168e-17
1.62662e-17
1.09282e-17
7.28142e-18
4.80911e-18
3.14432e-18
2.02831e-18
1.27947e-18
7.70018e-19
4.08745e-19
1.2778e-19
2.36711e-18
7.1733e-18
1.2198e-17
1.75948e-17
2.35274e-17
3.01747e-17
3.77347e-17
4.64301e-17
5.65137e-17
6.82745e-17
8.2045e-17
9.82083e-17
1.17207e-16
1.39555e-16
1.65845e-16
1.96764e-16
2.33109e-16
2.75799e-16
3.25897e-16
3.84633e-16
4.53421e-16
5.33893e-16
6.27926e-16
7.37674e-16
8.65609e-16
1.01456e-15
1.18778e-15
1.38895e-15
1.62229e-15
1.8926e-15
2.20534e-15
2.56669e-15
2.98367e-15
3.4642e-15
4.01722e-15
4.65283e-15
5.38237e-15
6.21858e-15
7.17573e-15
8.26981e-15
9.51865e-15
1.09422e-14
1.25624e-14
1.44041e-14
1.64943e-14
1.88633e-14
2.15442e-14
2.45738e-14
2.79921e-14
3.18435e-14
3.61762e-14
4.10431e-14
4.65016e-14
5.26143e-14
5.94489e-14
6.70788e-14
7.55833e-14
8.50475e-14
9.5563e-14
1.07228e-13
1.20147e-13
1.34431e-13
1.50199e-13
1.67577e-13
1.86696e-13
2.07696e-13
2.30722e-13
2.55928e-13
2.83472e-13
3.13519e-13
3.46238e-13
3.81805e-13
4.20398e-13
4.622e-13
5.07396e-13
5.56171e-13
6.08712e-13
6.65204e-13
7.25829e-13
7.90765e-13
8.60184e-13
9.34253e-13
1.01312e-12
1.09694e-12
1.18584e-12
1.27992e-12
1.37929e-12
1.48401e-12
1.59415e-12
1.70971e-12
1.83071e-12
1.9571e-12
2.08883e-12
2.22578e-12
2.36782e-12
2.51477e-12
2.6664e-12
2.82247e-12
2.98265e-12
3.1466e-12
3.31391e-12
3.48414e-12
3.6568e-12
3.83135e-12
4.00721e-12
4.18374e-12
4.36028e-12
4.53611e-12
4.71049e-12
4.88264e-12
5.05174e-12
5.21696e-12
5.37744e-12
5.53232e-12
5.68072e-12
5.82175e-12
5.95454e-12
6.07822e-12
6.19197e-12
6.29496e-12
6.38643e-12
6.46563e-12
6.5319e-12
6.58462e-12
6.62325e-12
6.64732e-12
6.65644e-12
6.65033e-12
6.62879e-12
6.59173e-12
6.53915e-12
6.47119e-12
6.38808e-12
6.29017e-12
6.17791e-12
6.05187e-12
5.91274e-12
5.76128e-12
5.59836e-12
5.42497e-12
5.24213e-12
5.05096e-12
4.85263e-12
4.64838e-12
4.43946e-12
4.22715e-12
4.01276e-12
3.79756e-12
3.58284e-12
3.36984e-12
3.15978e-12
2.95379e-12
2.75297e-12
2.55834e-12
2.37082e-12
2.19127e-12
2.02042e-12
1.85893e-12
1.70733e-12
1.56609e-12
1.43552e-12
1.31587e-12
1.20727e-12
1.10975e-12
1.02324e-12
9.47604e-13
8.82596e-13
8.279e-13
7.83124e-13
7.47806e-13
7.21419e-13
7.03379e-13
6.9305e-13
6.89748e-13
6.92747e-13
7.01288e-13
7.1458e-13
7.31813e-13
7.52158e-13
7.74783e-13
7.98854e-13
8.23548e-13
8.48061e-13
8.7162e-13
8.93493e-13
9.12996e-13
9.29508e-13
9.42482e-13
9.51447e-13
9.56023e-13
9.55926e-13
9.50969e-13
9.41069e-13
9.26247e-13
9.06621e-13
8.82407e-13
8.53909e-13
8.21509e-13
7.85658e-13
7.46861e-13
7.05665e-13
6.6264e-13
6.18368e-13
5.73426e-13
5.28375e-13
4.83741e-13
4.40012e-13
3.97622e-13
3.5695e-13
3.1831e-13
2.81952e-13
2.48062e-13
2.16762e-13
1.88114e-13
1.62126e-13
1.38757e-13
1.17927e-13
9.95182e-14
8.33884e-14
6.9375e-14
5.73028e-14
4.69902e-14
3.82542e-14
3.09154e-14
2.48015e-14
1.97502e-14
1.56113e-14
1.22481e-14
9.5377e-15
7.37139e-15
5.65422e-15
4.30428e-15
3.25176e-15
2.4379e-15
1.81376e-15
1.33906e-15
9.80984e-16
7.13113e-16
5.14372e-16
3.68136e-16
2.61423e-16
1.84193e-16
1.28762e-16
8.93058e-17
6.14523e-17
4.19519e-17
2.84119e-17
1.90874e-17
1.27174e-17
8.3991e-18
5.4914e-18
3.54228e-18
2.23444e-18
1.34474e-18
7.1382e-19
2.23153e-19
4.61236e-18
1.3977e-17
2.37665e-17
3.4279e-17
4.58332e-17
5.87763e-17
7.34931e-17
9.0416e-17
1.10036e-16
1.32913e-16
1.59693e-16
1.91118e-16
2.28048e-16
2.71476e-16
3.22552e-16
3.82606e-16
4.53179e-16
5.36052e-16
6.33281e-16
7.47239e-16
8.80664e-16
1.0367e-15
1.21898e-15
1.43166e-15
1.6795e-15
1.96795e-15
2.30327e-15
2.69256e-15
3.14393e-15
3.66661e-15
4.27107e-15
4.96919e-15
5.77441e-15
6.70192e-15
7.76885e-15
8.99447e-15
1.04005e-14
1.20111e-14
1.38537e-14
1.59586e-14
1.83598e-14
2.10949e-14
2.42062e-14
2.77399e-14
3.17478e-14
3.62866e-14
4.1419e-14
4.72141e-14
5.37474e-14
6.11018e-14
6.93677e-14
7.86438e-14
8.90372e-14
1.00664e-13
1.13651e-13
1.28133e-13
1.44256e-13
1.62178e-13
1.82066e-13
2.041e-13
2.28471e-13
2.55382e-13
2.85047e-13
3.17692e-13
3.53557e-13
3.92889e-13
4.35949e-13
4.83008e-13
5.34347e-13
5.90253e-13
6.51025e-13
7.16966e-13
7.88384e-13
8.65591e-13
9.48901e-13
1.03863e-12
1.13508e-12
1.23856e-12
1.34937e-12
1.46779e-12
1.5941e-12
1.72855e-12
1.87137e-12
2.02277e-12
2.18293e-12
2.35199e-12
2.53008e-12
2.71726e-12
2.91355e-12
3.11894e-12
3.33335e-12
3.55665e-12
3.78865e-12
4.0291e-12
4.27767e-12
4.53398e-12
4.79758e-12
5.06792e-12
5.34439e-12
5.62632e-12
5.91294e-12
6.20341e-12
6.49683e-12
6.79221e-12
7.08848e-12
7.38454e-12
7.67919e-12
7.97119e-12
8.25924e-12
8.54199e-12
8.81808e-12
9.08608e-12
9.34458e-12
9.59212e-12
9.82727e-12
1.00486e-11
1.02547e-11
1.04442e-11
1.06158e-11
1.07683e-11
1.09003e-11
1.1011e-11
1.10992e-11
1.11641e-11
1.12049e-11
1.1221e-11
1.1212e-11
1.11775e-11
1.11174e-11
1.10317e-11
1.09205e-11
1.07843e-11
1.06237e-11
1.04392e-11
1.02319e-11
1.00029e-11
9.75331e-12
9.48459e-12
9.19829e-12
8.89606e-12
8.57971e-12
8.25112e-12
7.91226e-12
7.56516e-12
7.2119e-12
6.85458e-12
6.49529e-12
6.13611e-12
5.77907e-12
5.42615e-12
5.07924e-12
4.74015e-12
4.41054e-12
4.09198e-12
3.78588e-12
3.4935e-12
3.21596e-12
2.9542e-12
2.70899e-12
2.48094e-12
2.2705e-12
2.07795e-12
1.90341e-12
1.74684e-12
1.60807e-12
1.48677e-12
1.3825e-12
1.29469e-12
1.22267e-12
1.16563e-12
1.12272e-12
1.09295e-12
1.07531e-12
1.06868e-12
1.0719e-12
1.08375e-12
1.103e-12
1.12837e-12
1.15854e-12
1.19224e-12
1.22816e-12
1.26503e-12
1.30161e-12
1.33671e-12
1.36921e-12
1.39807e-12
1.42235e-12
1.44121e-12
1.45394e-12
1.45998e-12
1.45891e-12
1.45044e-12
1.43448e-12
1.41105e-12
1.38036e-12
1.34273e-12
1.29865e-12
1.24871e-12
1.19358e-12
1.13406e-12
1.07097e-12
1.00518e-12
9.37575e-13
8.69029e-13
8.00389e-13
7.32453e-13
6.65953e-13
6.01543e-13
5.3979e-13
4.81165e-13
4.26041e-13
3.7469e-13
3.27291e-13
2.83933e-13
2.44622e-13
2.09293e-13
1.77815e-13
1.5001e-13
1.25658e-13
1.0451e-13
8.62992e-14
7.07485e-14
5.75801e-14
4.65217e-14
3.73121e-14
2.97056e-14
2.34751e-14
1.84136e-14
1.43358e-14
1.10774e-14
8.49524e-15
6.46579e-15
4.88385e-15
3.66088e-15
2.7232e-15
2.01017e-15
1.47242e-15
1.07021e-15
7.71848e-16
5.52346e-16
3.92191e-16
2.76301e-16
1.93132e-16
1.33939e-16
9.21574e-17
6.29088e-17
4.26021e-17
2.86188e-17
1.90669e-17
1.2592e-17
8.23247e-18
5.31027e-18
3.34961e-18
2.01584e-18
1.07005e-18
3.34517e-19
8.72788e-18
2.64477e-17
4.49696e-17
6.48563e-17
8.67092e-17
1.11183e-16
1.39004e-16
1.70988e-16
2.08059e-16
2.51275e-16
3.01849e-16
3.61182e-16
4.3089e-16
5.12842e-16
6.09202e-16
7.22472e-16
8.55547e-16
1.01177e-15
1.19501e-15
1.40971e-15
1.66101e-15
1.95482e-15
2.29793e-15
2.69812e-15
3.16432e-15
3.70673e-15
4.33702e-15
5.06849e-15
5.91627e-15
6.89758e-15
8.03194e-15
9.34148e-15
1.08512e-14
1.25894e-14
1.45878e-14
1.68822e-14
1.95128e-14
2.25246e-14
2.59681e-14
2.98992e-14
3.43808e-14
3.94823e-14
4.5281e-14
5.18624e-14
5.93209e-14
6.77609e-14
7.72968e-14
8.80544e-14
1.00172e-13
1.13799e-13
1.291e-13
1.46254e-13
1.65454e-13
1.86909e-13
2.10846e-13
2.37508e-13
2.67156e-13
3.0007e-13
3.36547e-13
3.76906e-13
4.21483e-13
4.70634e-13
5.24735e-13
5.8418e-13
6.49382e-13
7.20771e-13
7.98794e-13
8.83913e-13
9.76605e-13
1.07736e-12
1.18667e-12
1.30504e-12
1.43298e-12
1.57101e-12
1.71962e-12
1.87933e-12
2.05061e-12
2.23395e-12
2.4298e-12
2.63859e-12
2.86071e-12
3.09653e-12
3.34636e-12
3.61048e-12
3.88908e-12
4.18233e-12
4.49031e-12
4.81302e-12
5.15039e-12
5.50226e-12
5.86837e-12
6.24837e-12
6.6418e-12
7.0481e-12
7.46659e-12
7.89647e-12
8.33684e-12
8.78667e-12
9.2448e-12
9.70997e-12
1.01808e-11
1.06557e-11
1.11332e-11
1.16115e-11
1.20887e-11
1.25629e-11
1.30322e-11
1.34945e-11
1.39475e-11
1.43891e-11
1.48171e-11
1.52291e-11
1.5623e-11
1.59965e-11
1.63472e-11
1.66731e-11
1.6972e-11
1.72419e-11
1.74808e-11
1.7687e-11
1.78587e-11
1.79945e-11
1.80929e-11
1.8153e-11
1.81738e-11
1.81546e-11
1.8095e-11
1.79947e-11
1.78539e-11
1.7673e-11
1.74524e-11
1.71931e-11
1.68964e-11
1.65635e-11
1.61963e-11
1.57966e-11
1.53667e-11
1.49089e-11
1.44259e-11
1.39203e-11
1.33953e-11
1.28537e-11
1.22988e-11
1.17338e-11
1.11619e-11
1.05864e-11
1.00104e-11
9.43724e-12
8.86989e-12
8.31132e-12
7.76435e-12
7.2316e-12
6.71552e-12
6.21834e-12
5.74207e-12
5.28847e-12
4.85905e-12
4.45508e-12
4.07756e-12
3.72725e-12
3.40463e-12
3.10996e-12
2.84327e-12
2.60435e-12
2.39277e-12
2.20793e-12
2.04901e-12
1.91504e-12
1.8049e-12
1.71732e-12
1.65089e-12
1.6041e-12
1.57535e-12
1.56294e-12
1.5651e-12
1.57999e-12
1.60575e-12
1.64048e-12
1.68224e-12
1.72912e-12
1.77923e-12
1.83071e-12
1.88175e-12
1.93063e-12
1.97574e-12
2.01558e-12
2.0488e-12
2.07422e-12
2.09083e-12
2.09785e-12
2.09467e-12
2.08094e-12
2.05651e-12
2.02146e-12
1.97609e-12
1.9209e-12
1.85658e-12
1.78399e-12
1.70414e-12
1.61814e-12
1.52717e-12
1.43249e-12
1.33536e-12
1.23702e-12
1.13868e-12
1.04146e-12
9.46395e-13
8.54417e-13
7.66316e-13
6.82751e-13
6.0424e-13
5.31161e-13
4.63757e-13
4.02143e-13
3.46317e-13
2.96176e-13
2.51529e-13
2.12114e-13
1.77612e-13
1.47666e-13
1.21891e-13
9.98926e-14
8.12724e-14
6.56426e-14
5.26314e-14
4.18893e-14
3.30938e-14
2.59512e-14
2.01987e-14
1.56038e-14
1.19636e-14
9.10347e-15
6.87466e-15
5.15208e-15
3.83167e-15
2.82786e-15
2.071e-15
1.50502e-15
1.08526e-15
7.76514e-16
5.51283e-16
3.88331e-16
2.71408e-16
1.88203e-16
1.29481e-16
8.83784e-17
5.98453e-17
4.01993e-17
2.67805e-17
1.76852e-17
1.15618e-17
7.45753e-18
4.70392e-18
2.83083e-18
1.50264e-18
4.69754e-19
1.62758e-17
4.93187e-17
8.38537e-17
1.20928e-16
1.6166e-16
2.07267e-16
2.591e-16
3.18674e-16
3.87707e-16
4.68163e-16
5.62297e-16
6.72706e-16
8.0239e-16
9.54817e-16
1.134e-15
1.34457e-15
1.5919e-15
1.88217e-15
2.22255e-15
2.62127e-15
3.08783e-15
3.63315e-15
4.26976e-15
5.01206e-15
5.87651e-15
6.88193e-15
8.04984e-15
9.40471e-15
1.09744e-14
1.27906e-14
1.48893e-14
1.73109e-14
2.01014e-14
2.33127e-14
2.70028e-14
3.12374e-14
3.60899e-14
4.16424e-14
4.79868e-14
5.52253e-14
6.3472e-14
7.28531e-14
8.35089e-14
9.55941e-14
1.0928e-13
1.24753e-13
1.42222e-13
1.61912e-13
1.8407e-13
2.08967e-13
2.36894e-13
2.68172e-13
3.03143e-13
3.4218e-13
3.85684e-13
4.34082e-13
4.87835e-13
5.47433e-13
6.13398e-13
6.86283e-13
7.66672e-13
8.55182e-13
9.52458e-13
1.05918e-12
1.17604e-12
1.30378e-12
1.44315e-12
1.59493e-12
1.7599e-12
1.93889e-12
2.13269e-12
2.34214e-12
2.56805e-12
2.81124e-12
3.07251e-12
3.35264e-12
3.65238e-12
3.97244e-12
4.31349e-12
4.67614e-12
5.06094e-12
5.46836e-12
5.89879e-12
6.35253e-12
6.82976e-12
7.33056e-12
7.85487e-12
8.40251e-12
8.97314e-12
9.56627e-12
1.01813e-11
1.08173e-11
1.14734e-11
1.21484e-11
1.28409e-11
1.35494e-11
1.42721e-11
1.50071e-11
1.57524e-11
1.65055e-11
1.72642e-11
1.80256e-11
1.8787e-11
1.95455e-11
2.02979e-11
2.1041e-11
2.17716e-11
2.24861e-11
2.31812e-11
2.38533e-11
2.44989e-11
2.51144e-11
2.56963e-11
2.62413e-11
2.67458e-11
2.72068e-11
2.76211e-11
2.79857e-11
2.82981e-11
2.85556e-11
2.87561e-11
2.88977e-11
2.89787e-11
2.89978e-11
2.89542e-11
2.88472e-11
2.86768e-11
2.84431e-11
2.81469e-11
2.77891e-11
2.73712e-11
2.68952e-11
2.63633e-11
2.57782e-11
2.51429e-11
2.44609e-11
2.37359e-11
2.29718e-11
2.2173e-11
2.1344e-11
2.04894e-11
1.9614e-11
1.87228e-11
1.78208e-11
1.69128e-11
1.60038e-11
1.50987e-11
1.42021e-11
1.33185e-11
1.24522e-11
1.16072e-11
1.07873e-11
9.99596e-12
9.23618e-12
8.51071e-12
7.82189e-12
7.17171e-12
6.56173e-12
5.99316e-12
5.46681e-12
4.98315e-12
4.54225e-12
4.14389e-12
3.78751e-12
3.47223e-12
3.19694e-12
2.96023e-12
2.76049e-12
2.5959e-12
2.46444e-12
2.36393e-12
2.29206e-12
2.24637e-12
2.22433e-12
2.22329e-12
2.24057e-12
2.27341e-12
2.31905e-12
2.37471e-12
2.43764e-12
2.50512e-12
2.57453e-12
2.64329e-12
2.70901e-12
2.7694e-12
2.82239e-12
2.8661e-12
2.89891e-12
2.91943e-12
2.92659e-12
2.91959e-12
2.89796e-12
2.86153e-12
2.81046e-12
2.74517e-12
2.66641e-12
2.57515e-12
2.47262e-12
2.36021e-12
2.23948e-12
2.11211e-12
1.9798e-12
1.84432e-12
1.70738e-12
1.57064e-12
1.43564e-12
1.3038e-12
1.17639e-12
1.05447e-12
9.38955e-13
8.30525e-13
7.29687e-13
6.36757e-13
5.51878e-13
4.75031e-13
4.06059e-13
3.44687e-13
2.90542e-13
2.43177e-13
2.0209e-13
1.66748e-13
1.36599e-13
1.11094e-13
8.96956e-14
7.1891e-14
5.71983e-14
4.51733e-14
3.54123e-14
2.75542e-14
2.12797e-14
1.63108e-14
1.2408e-14
9.36775e-15
7.01876e-15
5.21874e-15
3.85069e-15
2.81948e-15
2.04855e-15
1.47693e-15
1.05657e-15
7.49985e-16
5.28219e-16
3.69125e-16
2.5593e-16
1.76055e-16
1.20156e-16
8.13554e-17
5.46433e-17
3.64004e-17
2.40364e-17
1.5713e-17
1.01347e-17
6.39237e-18
3.84685e-18
2.04194e-18
6.38343e-19
3.00229e-17
9.0973e-17
1.54669e-16
2.2304e-16
2.98142e-16
3.82218e-16
4.7775e-16
5.87524e-16
7.14701e-16
8.62889e-16
1.03623e-15
1.2395e-15
1.4782e-15
1.7587e-15
2.08836e-15
2.47569e-15
2.93052e-15
3.4642e-15
4.08984e-15
4.82254e-15
5.67967e-15
6.68122e-15
7.85012e-15
9.21267e-15
1.07989e-14
1.26433e-14
1.47851e-14
1.72688e-14
2.01453e-14
2.34723e-14
2.73151e-14
3.17475e-14
3.68529e-14
4.27253e-14
4.94704e-14
5.72068e-14
6.60674e-14
7.62007e-14
8.77726e-14
1.00968e-13
1.15991e-13
1.3307e-13
1.52457e-13
1.74429e-13
1.99292e-13
2.27382e-13
2.59068e-13
2.94754e-13
3.34878e-13
3.7992e-13
4.30398e-13
4.86875e-13
5.49958e-13
6.20301e-13
6.98604e-13
7.85618e-13
8.82145e-13
9.89035e-13
1.10719e-12
1.23757e-12
1.38118e-12
1.53906e-12
1.71233e-12
1.90212e-12
2.10962e-12
2.33607e-12
2.58271e-12
2.85083e-12
3.14174e-12
3.45676e-12
3.7972e-12
4.16438e-12
4.55961e-12
4.98417e-12
5.43927e-12
5.92612e-12
6.44583e-12
6.99944e-12
7.58788e-12
8.21199e-12
8.87246e-12
9.56987e-12
1.03046e-11
1.10769e-11
1.18867e-11
1.27339e-11
1.36181e-11
1.45387e-11
1.54947e-11
1.64849e-11
1.7508e-11
1.85622e-11
1.96455e-11
2.07555e-11
2.18898e-11
2.30454e-11
2.4219e-11
2.54072e-11
2.66063e-11
2.78121e-11
2.90204e-11
3.02267e-11
3.1426e-11
3.26136e-11
3.37843e-11
3.49328e-11
3.60536e-11
3.71414e-11
3.81905e-11
3.91956e-11
4.01511e-11
4.10516e-11
4.18918e-11
4.26666e-11
4.33711e-11
4.40006e-11
4.45509e-11
4.50177e-11
4.53976e-11
4.56873e-11
4.5884e-11
4.59855e-11
4.599e-11
4.58964e-11
4.57039e-11
4.54128e-11
4.50234e-11
4.45371e-11
4.39556e-11
4.32816e-11
4.25179e-11
4.16684e-11
4.07372e-11
3.97292e-11
3.86496e-11
3.75043e-11
3.62994e-11
3.50415e-11
3.37376e-11
3.23947e-11
3.10202e-11
2.96216e-11
2.82065e-11
2.67824e-11
2.53566e-11
2.39366e-11
2.25295e-11
2.11419e-11
1.97805e-11
1.84513e-11
1.71601e-11
1.59119e-11
1.47114e-11
1.35629e-11
1.24699e-11
1.14353e-11
1.04617e-11
9.55091e-12
8.70415e-12
7.92222e-12
7.20531e-12
6.55313e-12
5.96491e-12
5.43944e-12
4.9751e-12
4.56988e-12
4.22144e-12
3.92716e-12
3.68412e-12
3.48918e-12
3.33899e-12
3.23004e-12
3.15865e-12
3.12106e-12
3.11339e-12
3.13171e-12
3.17205e-12
3.23044e-12
3.30292e-12
3.38558e-12
3.4746e-12
3.56629e-12
3.65708e-12
3.74362e-12
3.82278e-12
3.8917e-12
3.94783e-12
3.98894e-12
4.0132e-12
4.01915e-12
4.00575e-12
3.97241e-12
3.91894e-12
3.84559e-12
3.75302e-12
3.64226e-12
3.51469e-12
3.37201e-12
3.21617e-12
3.04929e-12
2.87367e-12
2.69166e-12
2.50565e-12
2.31796e-12
2.13083e-12
1.94636e-12
1.76645e-12
1.5928e-12
1.42683e-12
1.26974e-12
1.12244e-12
9.8558e-13
8.59572e-13
7.44578e-13
6.40553e-13
5.47262e-13
4.64312e-13
3.91183e-13
3.27254e-13
2.71836e-13
2.24195e-13
1.83579e-13
1.49239e-13
1.20445e-13
9.64986e-14
7.67477e-14
6.05907e-14
4.74817e-14
3.69329e-14
2.85135e-14
2.18487e-14
1.6616e-14
1.25411e-14
9.39385e-15
6.98293e-15
5.15117e-15
3.77083e-15
2.73917e-15
1.97444e-15
1.41221e-15
1.00225e-15
7.05774e-16
4.93127e-16
3.41858e-16
2.35135e-16
1.60458e-16
1.08632e-16
7.29569e-17
4.85959e-17
3.20873e-17
2.09748e-17
1.35278e-17
8.53222e-18
5.13445e-18
2.72536e-18
8.51988e-19
5.48362e-17
1.66157e-16
2.82485e-16
4.07332e-16
5.44451e-16
6.97926e-16
8.72281e-16
1.07259e-15
1.30461e-15
1.57491e-15
1.89103e-15
2.26165e-15
2.69679e-15
3.20803e-15
3.80874e-15
4.51439e-15
5.34285e-15
6.31473e-15
7.45382e-15
8.78751e-15
1.03473e-14
1.21695e-14
1.42957e-14
1.67733e-14
1.9657e-14
2.3009e-14
2.69001e-14
3.14112e-14
3.66339e-14
4.26724e-14
4.96444e-14
5.76831e-14
6.69387e-14
7.75802e-14
8.97977e-14
1.03804e-13
1.19838e-13
1.38166e-13
1.59085e-13
1.82924e-13
2.10051e-13
2.40871e-13
2.75833e-13
3.1543e-13
3.60206e-13
4.10757e-13
4.67736e-13
5.31855e-13
6.0389e-13
6.84683e-13
7.75146e-13
8.76265e-13
9.89101e-13
1.11479e-12
1.25456e-12
1.4097e-12
1.58161e-12
1.77175e-12
1.98167e-12
2.213e-12
2.46745e-12
2.74683e-12
3.05297e-12
3.38782e-12
3.75335e-12
4.1516e-12
4.58466e-12
5.05462e-12
5.56362e-12
6.11378e-12
6.70721e-12
7.34601e-12
8.0322e-12
8.76775e-12
9.55453e-12
1.03943e-11
1.12887e-11
1.22391e-11
1.32468e-11
1.4313e-11
1.54382e-11
1.66232e-11
1.78681e-11
1.91729e-11
2.05371e-11
2.19598e-11
2.344e-11
2.49759e-11
2.65656e-11
2.82065e-11
2.98957e-11
3.16298e-11
3.34048e-11
3.52165e-11
3.70599e-11
3.89298e-11
4.08204e-11
4.27255e-11
4.46386e-11
4.65525e-11
4.846e-11
5.03535e-11
5.22248e-11
5.40659e-11
5.58683e-11
5.76235e-11
5.9323e-11
6.0958e-11
6.25199e-11
6.40003e-11
6.53908e-11
6.66834e-11
6.78701e-11
6.89437e-11
6.9897e-11
7.07235e-11
7.14174e-11
7.19734e-11
7.23866e-11
7.26534e-11
7.27705e-11
7.27357e-11
7.25476e-11
7.22055e-11
7.17098e-11
7.1062e-11
7.02642e-11
6.93197e-11
6.82325e-11
6.70077e-11
6.56512e-11
6.41697e-11
6.25709e-11
6.08631e-11
5.90553e-11
5.7157e-11
5.51784e-11
5.31301e-11
5.10231e-11
4.88685e-11
4.66779e-11
4.44625e-11
4.22339e-11
4.00033e-11
3.77817e-11
3.55799e-11
3.34082e-11
3.12764e-11
2.91936e-11
2.71683e-11
2.52085e-11
2.33212e-11
2.15126e-11
1.97881e-11
1.81523e-11
1.66089e-11
1.51607e-11
1.38097e-11
1.25571e-11
1.14032e-11
1.03477e-11
9.38944e-12
8.52674e-12
7.75723e-12
7.078e-12
6.48565e-12
5.97632e-12
5.54581e-12
5.18952e-12
4.90262e-12
4.68001e-12
4.5164e-12
4.40633e-12
4.34425e-12
4.3245e-12
4.34141e-12
4.38927e-12
4.46241e-12
4.55523e-12
4.66224e-12
4.77808e-12
4.89762e-12
5.01593e-12
5.1284e-12
5.23074e-12
5.31906e-12
5.38989e-12
5.44027e-12
5.46771e-12
5.47032e-12
5.44675e-12
5.39623e-12
5.3186e-12
5.21427e-12
5.08417e-12
4.92978e-12
4.75302e-12
4.55622e-12
4.34205e-12
4.11342e-12
3.87343e-12
3.62529e-12
3.37219e-12
3.11727e-12
2.86353e-12
2.61377e-12
2.37053e-12
2.13604e-12
1.9122e-12
1.70057e-12
1.50234e-12
1.31835e-12
1.14911e-12
9.94802e-13
8.55332e-13
7.30357e-13
6.19323e-13
5.21508e-13
4.3606e-13
3.62039e-13
2.98447e-13
2.44268e-13
1.98487e-13
1.60122e-13
1.28234e-13
1.01947e-13
8.04537e-14
6.3024e-14
4.90047e-14
3.78205e-14
2.89708e-14
2.20253e-14
1.66189e-14
1.24448e-14
9.24832e-15
6.82055e-15
4.99165e-15
3.62516e-15
2.61251e-15
1.8682e-15
1.32562e-15
9.33322e-16
6.52008e-16
4.51934e-16
3.10804e-16
2.12068e-16
1.43556e-16
9.64026e-17
6.42072e-17
4.2392e-17
2.7709e-17
1.78702e-17
1.12706e-17
6.78212e-18
3.59988e-18
1.12537e-18
9.9198e-17
3.00571e-16
5.10986e-16
7.36787e-16
9.84749e-16
1.26225e-15
1.57744e-15
1.9395e-15
2.3588e-15
2.84719e-15
3.41828e-15
4.08771e-15
4.87355e-15
5.79665e-15
6.88113e-15
8.15482e-15
9.64989e-15
1.14035e-14
1.34583e-14
1.58638e-14
1.86765e-14
2.19615e-14
2.57937e-14
3.02583e-14
3.54534e-14
4.14903e-14
4.84964e-14
5.66164e-14
6.60144e-14
7.68769e-14
8.94145e-14
1.03865e-13
1.20497e-13
1.39612e-13
1.61549e-13
1.86687e-13
2.15451e-13
2.48315e-13
2.85805e-13
3.28508e-13
3.77072e-13
4.32217e-13
4.94733e-13
5.65495e-13
6.45458e-13
7.35673e-13
8.37286e-13
9.51546e-13
1.07981e-12
1.22355e-12
1.38436e-12
1.56394e-12
1.76415e-12
1.98695e-12
2.23444e-12
2.50888e-12
2.81263e-12
3.14821e-12
3.51826e-12
3.92555e-12
4.37298e-12
4.86356e-12
5.40041e-12
5.98674e-12
6.62584e-12
7.32107e-12
8.07583e-12
8.89356e-12
9.77767e-12
1.07316e-11
1.17586e-11
1.2862e-11
1.40449e-11
1.53103e-11
1.6661e-11
1.80994e-11
1.96279e-11
2.12484e-11
2.29625e-11
2.47713e-11
2.66755e-11
2.86754e-11
3.07706e-11
3.29603e-11
3.52429e-11
3.76163e-11
4.00776e-11
4.26233e-11
4.52492e-11
4.79502e-11
5.07205e-11
5.35537e-11
5.64425e-11
5.93789e-11
6.2354e-11
6.53586e-11
6.83823e-11
7.14146e-11
7.44439e-11
7.74585e-11
8.04459e-11
8.33935e-11
8.62881e-11
8.91163e-11
9.18647e-11
9.45196e-11
9.70677e-11
9.94953e-11
1.01789e-10
1.03937e-10
1.05925e-10
1.07743e-10
1.09379e-10
1.10822e-10
1.12063e-10
1.13092e-10
1.13903e-10
1.14489e-10
1.14843e-10
1.14962e-10
1.14843e-10
1.14485e-10
1.13886e-10
1.13049e-10
1.11976e-10
1.10671e-10
1.0914e-10
1.07388e-10
1.05426e-10
1.03262e-10
1.00906e-10
9.83721e-11
9.56719e-11
9.28197e-11
8.98305e-11
8.67201e-11
8.35046e-11
8.02009e-11
7.68261e-11
7.33976e-11
6.99329e-11
6.64492e-11
6.29636e-11
5.94928e-11
5.60531e-11
5.26598e-11
4.93278e-11
4.6071e-11
4.2902e-11
3.98329e-11
3.6874e-11
3.4035e-11
3.13238e-11
2.87474e-11
2.63113e-11
2.40199e-11
2.18761e-11
1.98817e-11
1.80374e-11
1.63427e-11
1.47959e-11
1.33946e-11
1.21353e-11
1.10136e-11
1.00248e-11
9.16298e-12
8.42208e-12
7.79538e-12
7.27578e-12
6.85587e-12
6.52793e-12
6.28408e-12
6.11626e-12
6.01631e-12
5.97605e-12
5.98727e-12
6.04185e-12
6.13173e-12
6.24902e-12
6.38602e-12
6.53528e-12
6.68967e-12
6.84242e-12
6.98721e-12
7.11821e-12
7.23013e-12
7.31832e-12
7.37879e-12
7.40827e-12
7.40425e-12
7.365e-12
7.28959e-12
7.17788e-12
7.03051e-12
6.84883e-12
6.6349e-12
6.39138e-12
6.12147e-12
5.8288e-12
5.51732e-12
5.19122e-12
4.8548e-12
4.51236e-12
4.16808e-12
3.82596e-12
3.48972e-12
3.16271e-12
2.84787e-12
2.54771e-12
2.26424e-12
1.99901e-12
1.75309e-12
1.5271e-12
1.32124e-12
1.13534e-12
9.68904e-13
8.2115e-13
6.91088e-13
5.77554e-13
4.79271e-13
3.94894e-13
3.23052e-13
2.62386e-13
2.11575e-13
1.69368e-13
1.34593e-13
1.06175e-13
8.31408e-14
6.46228e-14
4.98564e-14
3.81774e-14
2.90154e-14
2.18864e-14
1.63844e-14
1.21726e-14
8.97478e-15
6.56657e-15
4.7678e-15
3.43519e-15
2.45599e-15
1.74235e-15
1.2265e-15
8.56674e-16
5.93702e-16
4.08242e-16
2.78516e-16
1.88515e-16
1.26581e-16
8.42992e-17
5.56531e-17
3.63745e-17
2.34575e-17
1.47938e-17
8.90199e-18
4.725e-18
1.47708e-18
1.77744e-16
5.38557e-16
9.15548e-16
1.32007e-15
1.76424e-15
2.26125e-15
2.82571e-15
3.47399e-15
4.22465e-15
5.09889e-15
6.12099e-15
7.31894e-15
8.725e-15
1.03764e-14
1.23162e-14
1.45942e-14
1.72676e-14
2.04027e-14
2.40759e-14
2.8375e-14
3.34011e-14
3.92701e-14
4.61151e-14
5.40883e-14
6.33636e-14
7.41397e-14
8.66426e-14
1.01129e-13
1.17892e-13
1.37261e-13
1.5961e-13
1.8536e-13
2.14988e-13
2.49027e-13
2.88076e-13
3.32806e-13
3.83967e-13
4.42393e-13
5.09014e-13
5.84861e-13
6.71075e-13
7.68917e-13
8.79778e-13
1.00519e-12
1.14681e-12
1.30649e-12
1.48623e-12
1.68819e-12
1.91473e-12
2.16841e-12
2.45197e-12
2.76839e-12
3.12082e-12
3.51266e-12
3.94751e-12
4.42921e-12
4.9618e-12
5.54955e-12
6.19692e-12
6.90861e-12
7.68946e-12
8.54451e-12
9.47896e-12
1.04981e-11
1.16074e-11
1.28123e-11
1.41183e-11
1.5531e-11
1.70558e-11
1.86981e-11
2.04631e-11
2.23558e-11
2.4381e-11
2.65431e-11
2.88461e-11
3.12935e-11
3.38883e-11
3.6633e-11
3.95292e-11
4.2578e-11
4.57794e-11
4.91328e-11
5.26364e-11
5.62875e-11
6.00825e-11
6.40164e-11
6.80832e-11
7.22757e-11
7.65856e-11
8.10031e-11
8.55176e-11
9.01169e-11
9.47879e-11
9.95161e-11
1.04286e-10
1.09081e-10
1.13885e-10
1.18677e-10
1.2344e-10
1.28152e-10
1.32795e-10
1.37347e-10
1.41786e-10
1.46092e-10
1.50242e-10
1.54216e-10
1.57993e-10
1.61551e-10
1.64872e-10
1.67936e-10
1.70724e-10
1.7322e-10
1.75408e-10
1.77273e-10
1.78802e-10
1.79984e-10
1.8081e-10
1.81272e-10
1.81364e-10
1.81083e-10
1.80428e-10
1.79398e-10
1.77997e-10
1.76229e-10
1.74103e-10
1.71627e-10
1.68812e-10
1.65673e-10
1.62225e-10
1.58485e-10
1.54471e-10
1.50205e-10
1.45709e-10
1.41005e-10
1.36118e-10
1.31073e-10
1.25896e-10
1.20613e-10
1.1525e-10
1.09835e-10
1.04394e-10
9.89515e-11
9.35339e-11
8.81655e-11
8.28696e-11
7.76684e-11