/*--------------------------------*- C++ -*----------------------------------*\
| =========                 |                                                 |
| \\      /  F ield         | OpenFOAM: The Open Source CFD Toolbox           |
|  \\    /   O peration     | Version:  v2012                                 |
|   \\  /    A nd           | Website:  www.openfoam.com                      |
|    \\/     M anipulation  |                                                 |
\*---------------------------------------------------------------------------*/
FoamFile
{
    version     2.0;
    format      ascii;
    class       surfaceScalarField;
    location    "11.4";
    object      phi;
}
// * * * * * * * * * * * * * * * * * * * * * * * * * * * * * * * * * * * * * //

dimensions      [0 3 -1 0 0 0 0];
oriented        oriented;


internalField   nonuniform List<scalar> 
130560
(
3.61924e-06
-3.61924e-06
7.23862e-06
-3.61938e-06
1.08583e-05
-3.61965e-06
1.44783e-05
-3.62005e-06
1.80989e-05
-3.62059e-06
2.17202e-05
-3.62125e-06
2.53422e-05
-3.62204e-06
2.89651e-05
-3.62295e-06
3.25891e-05
-3.62397e-06
3.62142e-05
-3.62511e-06
3.98406e-05
-3.62634e-06
4.34682e-05
-3.62768e-06
4.70973e-05
-3.6291e-06
5.07279e-05
-3.6306e-06
5.43601e-05
-3.63217e-06
5.79939e-05
-3.6338e-06
6.16294e-05
-3.63548e-06
6.52666e-05
-3.6372e-06
6.89055e-05
-3.63894e-06
7.25462e-05
-3.64069e-06
7.61886e-05
-3.64243e-06
7.98328e-05
-3.64416e-06
8.34787e-05
-3.64586e-06
8.71262e-05
-3.64751e-06
9.07753e-05
-3.64909e-06
9.44259e-05
-3.65058e-06
9.80778e-05
-3.65197e-06
0.000101731
-3.65324e-06
0.000105385
-3.65437e-06
0.000109041
-3.65533e-06
0.000112697
-3.6561e-06
0.000116354
-3.65666e-06
0.000120011
-3.657e-06
0.000123668
-3.65707e-06
0.000127324
-3.65686e-06
0.000130981
-3.65635e-06
0.000134636
-3.6555e-06
0.000138291
-3.65429e-06
0.000141943
-3.65269e-06
0.000145594
-3.65068e-06
0.000149242
-3.64822e-06
0.000152887
-3.64528e-06
0.000156529
-3.64184e-06
0.000160167
-3.63786e-06
0.0001638
-3.63331e-06
0.000167429
-3.62816e-06
0.000171051
-3.62238e-06
0.000174667
-3.61593e-06
0.000178276
-3.60878e-06
0.000181877
-3.6009e-06
0.000185469
-3.59225e-06
0.000189052
-3.58281e-06
0.000192624
-3.57253e-06
0.000196186
-3.56138e-06
0.000199735
-3.54933e-06
0.000203271
-3.53634e-06
0.000206794
-3.52238e-06
0.000210301
-3.50742e-06
0.000213792
-3.49142e-06
0.000217267
-3.47435e-06
0.000220723
-3.45617e-06
0.00022416
-3.43686e-06
0.000227576
-3.41639e-06
0.000230971
-3.39471e-06
0.000234343
-3.37181e-06
0.00023769
-3.34765e-06
0.000241013
-3.32221e-06
0.000244308
-3.29545e-06
0.000247575
-3.26736e-06
0.000250813
-3.23791e-06
0.00025402
-3.20707e-06
0.000257195
-3.17483e-06
0.000260336
-3.14116e-06
0.000263442
-3.10605e-06
0.000266512
-3.06948e-06
0.000269543
-3.03144e-06
0.000272535
-2.99191e-06
0.000275486
-2.95089e-06
0.000278395
-2.90837e-06
0.000281259
-2.86433e-06
0.000284078
-2.81879e-06
0.000286849
-2.77174e-06
0.000289573
-2.72317e-06
0.000292246
-2.6731e-06
0.000294867
-2.62153e-06
0.000297436
-2.56847e-06
0.00029995
-2.51393e-06
0.000302408
-2.45793e-06
0.000304808
-2.40049e-06
0.00030715
-2.34162e-06
0.000309431
-2.28135e-06
0.000311651
-2.2197e-06
0.000313807
-2.15671e-06
0.0003159
-2.09241e-06
0.000317927
-2.02682e-06
0.000319887
-1.95999e-06
0.000321779
-1.89196e-06
0.000323601
-1.82276e-06
0.000325354
-1.75244e-06
0.000327035
-1.68105e-06
0.000328643
-1.60864e-06
0.000330179
-1.53525e-06
0.00033164
-1.46095e-06
0.000333025
-1.38577e-06
0.000334335
-1.30979e-06
0.000335568
-1.23306e-06
0.000336724
-1.15564e-06
0.000337802
-1.07759e-06
0.0003388
-9.98977e-07
0.00033972
-9.19858e-07
0.000340561
-8.40301e-07
0.000341321
-7.6037e-07
0.000342001
-6.80133e-07
0.000342601
-5.99655e-07
0.00034312
-5.19002e-07
0.000343558
-4.38242e-07
0.000343915
-3.57441e-07
0.000344192
-2.76666e-07
0.000344388
-1.95983e-07
0.000344504
-1.15457e-07
0.000344539
-3.51527e-08
0.000344494
4.48652e-08
0.000344369
1.24534e-07
0.000344166
2.03792e-07
0.000343883
2.82578e-07
0.000343522
3.60833e-07
0.000343084
4.38499e-07
0.000342568
5.15521e-07
0.000341976
5.91843e-07
0.000341309
6.67414e-07
0.000340567
7.42183e-07
0.000339751
8.161e-07
0.000338861
8.89121e-07
0.0003379
9.61199e-07
0.000336868
1.03229e-06
0.000335766
1.10236e-06
0.000334594
1.17137e-06
0.000333355
1.23928e-06
0.000332049
1.30607e-06
0.000330677
1.37169e-06
0.000329241
1.43612e-06
0.000327742
1.49934e-06
0.00032618
1.56132e-06
0.000324558
1.62204e-06
0.000322877
1.68148e-06
0.000321137
1.73962e-06
0.000319341
1.79646e-06
0.000317489
1.85198e-06
0.000315583
1.90616e-06
0.000313624
1.95901e-06
0.000311613
2.01051e-06
0.000309553
2.06066e-06
0.000307443
2.10947e-06
0.000305286
2.15692e-06
0.000303083
2.20303e-06
0.000300835
2.24779e-06
0.000298544
2.29122e-06
0.000296211
2.33331e-06
0.000293837
2.37408e-06
0.000291423
2.41354e-06
0.000288971
2.45169e-06
0.000286483
2.48856e-06
0.000283959
2.52415e-06
0.0002814
2.55849e-06
0.000278809
2.59158e-06
0.000276185
2.62345e-06
0.000273531
2.65411e-06
0.000270848
2.68358e-06
0.000268136
2.71189e-06
0.000265397
2.73905e-06
0.000262632
2.76508e-06
0.000259842
2.79001e-06
0.000257028
2.81386e-06
0.000254191
2.83665e-06
0.000251333
2.85841e-06
0.000248453
2.87915e-06
0.000245555
2.89891e-06
0.000242637
2.91771e-06
0.000239701
2.93557e-06
0.000236749
2.95251e-06
0.00023378
2.96857e-06
0.000230796
2.98377e-06
0.000227798
2.99812e-06
0.000224787
3.01166e-06
0.000221762
3.02442e-06
0.000218726
3.03641e-06
0.000215678
3.04766e-06
0.00021262
3.05819e-06
0.000209552
3.06804e-06
0.000206475
3.07722e-06
0.000203389
3.08575e-06
0.000200295
3.09367e-06
0.000197194
3.10099e-06
0.000194087
3.10774e-06
0.000190973
3.11393e-06
0.000187853
3.1196e-06
0.000184728
3.12476e-06
0.000181599
3.12944e-06
0.000178465
3.13366e-06
0.000175328
3.13743e-06
0.000172187
3.14078e-06
0.000169043
3.14373e-06
0.000165897
3.1463e-06
0.000162748
3.14851e-06
0.000159598
3.15037e-06
0.000156446
3.1519e-06
0.000153293
3.15313e-06
0.000150139
3.15407e-06
0.000146984
3.15474e-06
0.000143829
3.15514e-06
0.000140674
3.15531e-06
0.000137518
3.15526e-06
0.000134363
3.155e-06
0.000131209
3.15454e-06
0.000128055
3.15391e-06
0.000124902
3.15311e-06
0.00012175
3.15216e-06
0.000118599
3.15107e-06
0.000115449
3.14986e-06
0.0001123
3.14853e-06
0.000109153
3.14711e-06
0.000106008
3.1456e-06
0.000102864
3.14401e-06
9.97212e-05
3.14235e-06
9.65806e-05
3.14064e-06
9.34417e-05
3.13888e-06
9.03046e-05
3.13709e-06
8.71693e-05
3.13527e-06
8.40359e-05
3.13344e-06
8.09043e-05
3.13159e-06
7.77745e-05
3.12975e-06
7.46466e-05
3.12791e-06
7.15205e-05
3.12609e-06
6.83962e-05
3.12429e-06
6.52737e-05
3.12252e-06
6.21529e-05
3.12079e-06
5.90338e-05
3.1191e-06
5.59164e-05
3.11746e-06
5.28005e-05
3.11587e-06
4.96861e-05
3.11435e-06
4.65733e-05
3.11288e-06
4.34618e-05
3.11149e-06
4.03516e-05
3.11017e-06
3.72427e-05
3.10893e-06
3.41349e-05
3.10777e-06
3.10282e-05
3.10669e-06
2.79225e-05
3.1057e-06
2.48177e-05
3.1048e-06
2.17137e-05
3.104e-06
1.86104e-05
3.10329e-06
1.55077e-05
3.10268e-06
1.24056e-05
3.10217e-06
9.30382e-06
3.10175e-06
6.20238e-06
3.10145e-06
3.10114e-06
3.10124e-06
3.10114e-06
3.61911e-06
-7.23835e-06
7.23835e-06
-7.23862e-06
1.08579e-05
-7.23916e-06
1.44778e-05
-7.23997e-06
1.80983e-05
-7.24105e-06
2.17194e-05
-7.24238e-06
2.53413e-05
-7.24396e-06
2.89641e-05
-7.24578e-06
3.2588e-05
-7.24784e-06
3.6213e-05
-7.25011e-06
3.98393e-05
-7.25259e-06
4.34668e-05
-7.25527e-06
4.70959e-05
-7.25812e-06
5.07264e-05
-7.26113e-06
5.43585e-05
-7.26428e-06
5.79923e-05
-7.26756e-06
6.16277e-05
-7.27092e-06
6.52649e-05
-7.27437e-06
6.89038e-05
-7.27786e-06
7.25445e-05
-7.28138e-06
7.6187e-05
-7.28489e-06
7.98312e-05
-7.28836e-06
8.34771e-05
-7.29177e-06
8.71246e-05
-7.29508e-06
9.07738e-05
-7.29826e-06
9.44245e-05
-7.30127e-06
9.80766e-05
-7.30407e-06
0.00010173
-7.30663e-06
0.000105385
-7.3089e-06
0.00010904
-7.31084e-06
0.000112696
-7.31241e-06
0.000116353
-7.31356e-06
0.00012001
-7.31425e-06
0.000123668
-7.31442e-06
0.000127325
-7.31403e-06
0.000130982
-7.31303e-06
0.000134638
-7.31136e-06
0.000138292
-7.30897e-06
0.000141945
-7.30581e-06
0.000145596
-7.3018e-06
0.000149245
-7.29691e-06
0.000152891
-7.29107e-06
0.000156533
-7.28421e-06
0.000160172
-7.27628e-06
0.000163806
-7.26722e-06
0.000167434
-7.25695e-06
0.000171058
-7.24542e-06
0.000174674
-7.23255e-06
0.000178284
-7.21829e-06
0.000181885
-7.20256e-06
0.000185478
-7.18531e-06
0.000189062
-7.16645e-06
0.000192635
-7.14592e-06
0.000196198
-7.12366e-06
0.000199748
-7.09959e-06
0.000203285
-7.07365e-06
0.000206809
-7.04577e-06
0.000210317
-7.01588e-06
0.00021381
-6.98391e-06
0.000217285
-6.9498e-06
0.000220742
-6.91348e-06
0.00022418
-6.87489e-06
0.000227598
-6.83397e-06
0.000230994
-6.79065e-06
0.000234367
-6.74487e-06
0.000237716
-6.69658e-06
0.000241039
-6.64572e-06
0.000244336
-6.59224e-06
0.000247605
-6.53608e-06
0.000250844
-6.47719e-06
0.000254053
-6.41554e-06
0.000257229
-6.35107e-06
0.000260372
-6.28376e-06
0.000263479
-6.21355e-06
0.00026655
-6.14043e-06
0.000269583
-6.06436e-06
0.000272576
-5.98532e-06
0.000275529
-5.90328e-06
0.000278439
-5.81824e-06
0.000281304
-5.73018e-06
0.000284125
-5.63909e-06
0.000286898
-5.54498e-06
0.000289623
-5.44784e-06
0.000292297
-5.34769e-06
0.00029492
-5.24454e-06
0.00029749
-5.13841e-06
0.000300006
-5.02932e-06
0.000302465
-4.9173e-06
0.000304867
-4.80239e-06
0.00030721
-4.68463e-06
0.000309493
-4.56407e-06
0.000311714
-4.44075e-06
0.000313872
-4.31474e-06
0.000315965
-4.1861e-06
0.000317993
-4.05489e-06
0.000319955
-3.92119e-06
0.000321848
-3.78508e-06
0.000323672
-3.64664e-06
0.000325425
-3.50595e-06
0.000327107
-3.36313e-06
0.000328717
-3.21825e-06
0.000330253
-3.07142e-06
0.000331715
-2.92275e-06
0.000333101
-2.77235e-06
0.000334412
-2.62033e-06
0.000335646
-2.46681e-06
0.000336802
-2.31191e-06
0.00033788
-2.15575e-06
0.00033888
-1.99845e-06
0.0003398
-1.84015e-06
0.00034064
-1.68097e-06
0.000341401
-1.52105e-06
0.000342082
-1.3605e-06
0.000342681
-1.19948e-06
0.0003432
-1.03811e-06
0.000343639
-8.76523e-07
0.000343996
-7.14855e-07
0.000344273
-5.53239e-07
0.000344469
-3.91806e-07
0.000344584
-2.30689e-07
0.000344619
-7.0017e-08
0.000344573
9.00819e-08
0.000344448
2.49481e-07
0.000344244
4.08057e-07
0.000343961
5.65689e-07
0.0003436
7.22256e-07
0.000343161
8.77645e-07
0.000342644
1.03174e-06
0.000342052
1.18444e-06
0.000341384
1.33563e-06
0.00034064
1.48522e-06
0.000339823
1.6331e-06
0.000338933
1.77918e-06
0.000337971
1.92338e-06
0.000336938
2.06561e-06
0.000335834
2.20579e-06
0.000334662
2.34384e-06
0.000333422
2.4797e-06
0.000332114
2.61329e-06
0.000330741
2.74456e-06
0.000329304
2.87345e-06
0.000327804
2.99991e-06
0.000326241
3.12389e-06
0.000324618
3.24535e-06
0.000322935
3.36425e-06
0.000321194
3.48056e-06
0.000319396
3.59425e-06
0.000317543
3.70529e-06
0.000315635
3.81367e-06
0.000313675
3.91936e-06
0.000311663
4.02237e-06
0.000309601
4.12268e-06
0.00030749
4.22029e-06
0.000305332
4.31519e-06
0.000303128
4.4074e-06
0.000300879
4.49692e-06
0.000298586
4.58376e-06
0.000296251
4.66794e-06
0.000293876
4.74947e-06
0.000291461
4.82837e-06
0.000289008
4.90467e-06
0.000286518
4.97839e-06
0.000283993
5.04957e-06
0.000281433
5.11822e-06
0.00027884
5.18439e-06
0.000276216
5.24811e-06
0.00027356
5.30941e-06
0.000270876
5.36834e-06
0.000268163
5.42493e-06
0.000265422
5.47922e-06
0.000262656
5.53127e-06
0.000259865
5.5811e-06
0.00025705
5.62878e-06
0.000254213
5.67434e-06
0.000251353
5.71783e-06
0.000248473
5.75929e-06
0.000245573
5.79879e-06
0.000242655
5.83635e-06
0.000239718
5.87205e-06
0.000236765
5.90591e-06
0.000233795
5.93801e-06
0.000230811
5.96837e-06
0.000227812
5.99706e-06
0.000224799
6.02412e-06
0.000221774
6.0496e-06
0.000218737
6.07355e-06
0.000215689
6.09603e-06
0.00021263
6.11708e-06
0.000209561
6.13674e-06
0.000206483
6.15507e-06
0.000203397
6.17212e-06
0.000200302
6.18793e-06
0.000197201
6.20255e-06
0.000194093
6.21602e-06
0.000190978
6.22839e-06
0.000187858
6.23971e-06
0.000184733
6.25001e-06
0.000181603
6.25935e-06
0.000178469
6.26776e-06
0.000175331
6.27528e-06
0.00017219
6.28197e-06
0.000169046
6.28784e-06
0.000165899
6.29296e-06
0.00016275
6.29735e-06
0.000159599
6.30106e-06
0.000156447
6.30411e-06
0.000153294
6.30655e-06
0.000150139
6.30841e-06
0.000146984
6.30972e-06
0.000143829
6.31053e-06
0.000140674
6.31085e-06
0.000137518
6.31073e-06
0.000134363
6.31019e-06
0.000131208
6.30926e-06
0.000128054
6.30798e-06
0.000124901
6.30637e-06
0.000121749
6.30445e-06
0.000118597
6.30227e-06
0.000115447
6.29983e-06
0.000112299
6.29717e-06
0.000109152
6.29431e-06
0.000106006
6.29127e-06
0.000102862
6.28808e-06
9.97194e-05
6.28476e-06
9.65787e-05
6.28132e-06
9.34398e-05
6.2778e-06
9.03027e-05
6.27421e-06
8.71674e-05
6.27056e-06
8.4034e-05
6.26688e-06
8.09024e-05
6.26318e-06
7.77726e-05
6.25949e-06
7.46447e-05
6.25581e-06
7.15187e-05
6.25216e-06
6.83944e-05
6.24855e-06
6.52719e-05
6.24501e-06
6.21512e-05
6.24154e-06
5.90321e-05
6.23815e-06
5.59147e-05
6.23487e-06
5.27989e-05
6.23169e-06
4.96846e-05
6.22863e-06
4.65718e-05
6.2257e-06
4.34604e-05
6.22291e-06
4.03503e-05
6.22026e-06
3.72415e-05
6.21777e-06
3.41338e-05
6.21544e-06
3.10272e-05
6.21329e-06
2.79216e-05
6.21131e-06
2.48169e-05
6.20951e-06
2.1713e-05
6.2079e-06
1.86098e-05
6.20648e-06
1.55072e-05
6.20525e-06
1.24052e-05
6.20423e-06
9.30351e-06
6.2034e-06
6.20217e-06
6.20279e-06
3.10103e-06
6.20238e-06
6.20217e-06
3.61883e-06
-1.08572e-05
7.23781e-06
-1.08576e-05
1.08571e-05
-1.08584e-05
1.44767e-05
-1.08596e-05
1.80969e-05
-1.08612e-05
2.17178e-05
-1.08633e-05
2.53395e-05
-1.08656e-05
2.89621e-05
-1.08684e-05
3.25857e-05
-1.08715e-05
3.62105e-05
-1.08749e-05
3.98366e-05
-1.08787e-05
4.3464e-05
-1.08827e-05
4.70928e-05
-1.0887e-05
5.07232e-05
-1.08915e-05
5.43552e-05
-1.08963e-05
5.79889e-05
-1.09012e-05
6.16243e-05
-1.09063e-05
6.52614e-05
-1.09115e-05
6.89003e-05
-1.09168e-05
7.2541e-05
-1.09221e-05
7.61835e-05
-1.09274e-05
7.98277e-05
-1.09326e-05
8.34737e-05
-1.09378e-05
8.71215e-05
-1.09428e-05
9.07708e-05
-1.09476e-05
9.44217e-05
-1.09522e-05
9.8074e-05
-1.09564e-05
0.000101728
-1.09603e-05
0.000105383
-1.09638e-05
0.000109038
-1.09667e-05
0.000112695
-1.09691e-05
0.000116353
-1.09709e-05
0.00012001
-1.0972e-05
0.000123668
-1.09723e-05
0.000127326
-1.09718e-05
0.000130983
-1.09704e-05
0.00013464
-1.09679e-05
0.000138295
-1.09644e-05
0.000141949
-1.09598e-05
0.000145601
-1.09538e-05
0.000149251
-1.09466e-05
0.000152898
-1.09379e-05
0.000156541
-1.09277e-05
0.000160181
-1.09158e-05
0.000163816
-1.09023e-05
0.000167446
-1.0887e-05
0.00017107
-1.08698e-05
0.000174688
-1.08506e-05
0.000178299
-1.08293e-05
0.000181903
-1.08058e-05
0.000185497
-1.078e-05
0.000189083
-1.07518e-05
0.000192658
-1.07211e-05
0.000196222
-1.06877e-05
0.000199774
-1.06517e-05
0.000203313
-1.06129e-05
0.000206839
-1.05712e-05
0.000210349
-1.05264e-05
0.000213844
-1.04785e-05
0.000217321
-1.04275e-05
0.000220781
-1.03731e-05
0.000224221
-1.03153e-05
0.000227641
-1.0254e-05
0.00023104
-1.0189e-05
0.000234415
-1.01205e-05
0.000237767
-1.00481e-05
0.000241093
-9.97186e-06
0.000244392
-9.8917e-06
0.000247664
-9.80752e-06
0.000250906
-9.71925e-06
0.000254117
-9.62683e-06
0.000257296
-9.53018e-06
0.000260442
-9.42925e-06
0.000263552
-9.32398e-06
0.000266626
-9.21433e-06
0.000269662
-9.10025e-06
0.000272658
-8.98171e-06
0.000275614
-8.85868e-06
0.000278527
-8.73113e-06
0.000281396
-8.59905e-06
0.000284219
-8.46242e-06
0.000286995
-8.32125e-06
0.000289723
-8.17553e-06
0.0002924
-8.02529e-06
0.000295026
-7.87054e-06
0.000297599
-7.71131e-06
0.000300118
-7.54763e-06
0.00030258
-7.37956e-06
0.000304985
-7.20715e-06
0.00030733
-7.03045e-06
0.000309616
-6.84954e-06
0.00031184
-6.6645e-06
0.000314
-6.4754e-06
0.000316097
-6.28235e-06
0.000318127
-6.08544e-06
0.000320091
-5.8848e-06
0.000321986
-5.68053e-06
0.000323812
-5.47275e-06
0.000325568
-5.26162e-06
0.000327252
-5.04725e-06
0.000328864
-4.82981e-06
0.000330402
-4.60943e-06
0.000331865
-4.38629e-06
0.000333253
-4.16055e-06
0.000334565
-3.93238e-06
0.000335801
-3.70195e-06
0.000336958
-3.46944e-06
0.000338037
-3.23504e-06
0.000339038
-2.99894e-06
0.000339959
-2.76132e-06
0.0003408
-2.52239e-06
0.000341562
-2.28234e-06
0.000342243
-2.04136e-06
0.000342843
-1.79966e-06
0.000343362
-1.55743e-06
0.0003438
-1.31489e-06
0.000344158
-1.07222e-06
0.000344434
-8.29628e-07
0.00034463
-5.87315e-07
0.000344745
-3.45477e-07
0.000344779
-1.04309e-07
0.000344733
1.35997e-07
0.000344607
3.75251e-07
0.000344402
6.13267e-07
0.000344118
8.49862e-07
0.000343755
1.08486e-06
0.000343315
1.31808e-06
0.000342797
1.54936e-06
0.000342203
1.77854e-06
0.000341533
2.00546e-06
0.000340788
2.22996e-06
0.00033997
2.4519e-06
0.000339078
2.67113e-06
0.000338114
2.88754e-06
0.000337078
3.10098e-06
0.000335973
3.31134e-06
0.000334798
3.51851e-06
0.000333555
3.72238e-06
0.000332246
3.92284e-06
0.00033087
4.11982e-06
0.000329431
4.31322e-06
0.000327928
4.50297e-06
0.000326363
4.68899e-06
0.000324737
4.87122e-06
0.000323051
5.04962e-06
0.000321308
5.22411e-06
0.000319507
5.39467e-06
0.000317651
5.56126e-06
0.000315741
5.72385e-06
0.000313778
5.88241e-06
0.000311764
6.03693e-06
0.000309699
6.1874e-06
0.000307585
6.33381e-06
0.000305424
6.47616e-06
0.000303217
6.61446e-06
0.000300965
6.74873e-06
0.00029867
6.87897e-06
0.000296333
7.00522e-06
0.000293955
7.12749e-06
0.000291538
7.24581e-06
0.000289082
7.36023e-06
0.00028659
7.47078e-06
0.000284062
7.5775e-06
0.000281499
7.68044e-06
0.000278904
7.77965e-06
0.000276277
7.87518e-06
0.000273619
7.96708e-06
0.000270932
8.05542e-06
0.000268217
8.14026e-06
0.000265475
8.22165e-06
0.000262706
8.29966e-06
0.000259913
8.37436e-06
0.000257096
8.44581e-06
0.000254256
8.51409e-06
0.000251395
8.57927e-06
0.000248513
8.64141e-06
0.000245611
8.70058e-06
0.00024269
8.75688e-06
0.000239752
8.81036e-06
0.000236797
8.86109e-06
0.000233826
8.90917e-06
0.000230839
8.95465e-06
0.000227839
8.99762e-06
0.000224825
9.03815e-06
0.000221798
9.07631e-06
0.000218759
9.11218e-06
0.00021571
9.14583e-06
0.000212649
9.17734e-06
0.000209579
9.20678e-06
0.0002065
9.23422e-06
0.000203413
9.25973e-06
0.000200317
9.28339e-06
0.000197214
9.30525e-06
0.000194105
9.3254e-06
0.00019099
9.34391e-06
0.000187868
9.36082e-06
0.000184742
9.37623e-06
0.000181611
9.39018e-06
0.000178476
9.40274e-06
0.000175338
9.41398e-06
0.000172196
9.42395e-06
0.000169051
9.43272e-06
0.000165903
9.44035e-06
0.000162754
9.44689e-06
0.000159603
9.4524e-06
0.00015645
9.45693e-06
0.000153296
9.46055e-06
0.000150141
9.4633e-06
0.000146985
9.46523e-06
0.000143829
9.46639e-06
0.000140673
9.46684e-06
0.000137518
9.46661e-06
0.000134362
9.46577e-06
0.000131207
9.46434e-06
0.000128053
9.46238e-06
0.000124899
9.45993e-06
0.000121746
9.45702e-06
0.000118595
9.45371e-06
0.000115445
9.45002e-06
0.000112296
9.446e-06
0.000109149
9.44168e-06
0.000106003
9.4371e-06
0.000102859
9.43228e-06
9.9716e-05
9.42727e-06
9.65752e-05
9.4221e-06
9.34363e-05
9.41679e-06
9.02991e-05
9.41137e-06
8.71638e-05
9.40588e-06
8.40303e-05
9.40034e-06
8.08987e-05
9.39477e-06
7.7769e-05
9.38921e-06
7.46411e-05
9.38367e-06
7.15151e-05
9.37818e-06
6.83909e-05
9.37276e-06
6.52685e-05
9.36742e-06
6.21478e-05
9.3622e-06
5.90289e-05
9.35711e-06
5.59116e-05
9.35216e-06
5.27959e-05
9.34738e-06
4.96817e-05
9.34278e-06
4.6569e-05
9.33837e-06
4.34578e-05
9.33417e-06
4.03478e-05
9.3302e-06
3.72392e-05
9.32645e-06
3.41317e-05
9.32295e-06
3.10252e-05
9.31971e-06
2.79198e-05
9.31673e-06
2.48153e-05
9.31403e-06
2.17116e-05
9.31161e-06
1.86086e-05
9.30947e-06
1.55062e-05
9.30763e-06
1.24043e-05
9.30609e-06
9.30289e-06
9.30485e-06
6.20176e-06
9.30392e-06
3.10083e-06
9.30331e-06
9.303e-06
3.61842e-06
-1.44756e-05
7.23699e-06
-1.44762e-05
1.08558e-05
-1.44773e-05
1.44751e-05
-1.44789e-05
1.80949e-05
-1.44811e-05
2.17154e-05
-1.44838e-05
2.53367e-05
-1.44869e-05
2.8959e-05
-1.44906e-05
3.25823e-05
-1.44948e-05
3.62068e-05
-1.44994e-05
3.98325e-05
-1.45044e-05
4.34597e-05
-1.45098e-05
4.70883e-05
-1.45156e-05
5.07185e-05
-1.45217e-05
5.43503e-05
-1.45281e-05
5.79838e-05
-1.45347e-05
6.1619e-05
-1.45415e-05
6.52561e-05
-1.45485e-05
6.8895e-05
-1.45556e-05
7.25357e-05
-1.45628e-05
7.61782e-05
-1.45699e-05
7.98226e-05
-1.4577e-05
8.34687e-05
-1.45839e-05
8.71166e-05
-1.45907e-05
9.07662e-05
-1.45972e-05
9.44174e-05
-1.46034e-05
9.80701e-05
-1.46091e-05
0.000101724
-1.46144e-05
0.00010538
-1.46191e-05
0.000109036
-1.46232e-05
0.000112693
-1.46265e-05
0.000116351
-1.4629e-05
0.00012001
-1.46305e-05
0.000123669
-1.46311e-05
0.000127327
-1.46305e-05
0.000130986
-1.46287e-05
0.000134643
-1.46256e-05
0.0001383
-1.46211e-05
0.000141955
-1.46149e-05
0.000145609
-1.46072e-05
0.00014926
-1.45976e-05
0.000152908
-1.45862e-05
0.000156553
-1.45727e-05
0.000160194
-1.45571e-05
0.000163831
-1.45392e-05
0.000167463
-1.4519e-05
0.00017109
-1.44962e-05
0.00017471
-1.44707e-05
0.000178323
-1.44424e-05
0.000181928
-1.44113e-05
0.000185525
-1.4377e-05
0.000189113
-1.43396e-05
0.000192691
-1.42988e-05
0.000196258
-1.42545e-05
0.000199813
-1.42067e-05
0.000203355
-1.41551e-05
0.000206883
-1.40996e-05
0.000210397
-1.40401e-05
0.000213895
-1.39764e-05
0.000217376
-1.39084e-05
0.000220839
-1.38361e-05
0.000224283
-1.37591e-05
0.000227706
-1.36775e-05
0.000231108
-1.35911e-05
0.000234488
-1.34998e-05
0.000237843
-1.34035e-05
0.000241173
-1.33019e-05
0.000244477
-1.31952e-05
0.000247752
-1.30831e-05
0.000250998
-1.29655e-05
0.000254214
-1.28423e-05
0.000257397
-1.27136e-05
0.000260547
-1.25791e-05
0.000263662
-1.24388e-05
0.00026674
-1.22927e-05
0.000269781
-1.21406e-05
0.000272781
-1.19826e-05
0.000275741
-1.18186e-05
0.000278659
-1.16486e-05
0.000281532
-1.14725e-05
0.00028436
-1.12903e-05
0.000287141
-1.11021e-05
0.000289873
-1.09077e-05
0.000292555
-1.07074e-05
0.000295186
-1.0501e-05
0.000297763
-1.02887e-05
0.000300286
-1.00704e-05
0.000302752
-9.84618e-06
0.000305161
-9.6162e-06
0.000307511
-9.38049e-06
0.000309801
-9.13915e-06
0.000312029
-8.89229e-06
0.000314193
-8.64002e-06
0.000316294
-8.38246e-06
0.000318328
-8.11975e-06
0.000320295
-7.85203e-06
0.000322194
-7.57948e-06
0.000324024
-7.30224e-06
0.000325782
-7.02051e-06
0.00032747
-6.73446e-06
0.000329084
-6.44429e-06
0.000330625
-6.15022e-06
0.000332091
-5.85244e-06
0.000333482
-5.55119e-06
0.000334796
-5.24668e-06
0.000336033
-4.93916e-06
0.000337193
-4.62886e-06
0.000338274
-4.31604e-06
0.000339276
-4.00094e-06
0.000340198
-3.68382e-06
0.000341041
-3.36493e-06
0.000341803
-3.04455e-06
0.000342484
-2.72294e-06
0.000343085
-2.40036e-06
0.000343605
-2.07708e-06
0.000344043
-1.75337e-06
0.000344401
-1.4295e-06
0.000344677
-1.10574e-06
0.000344872
-7.82351e-07
0.000344986
-4.59597e-07
0.000345019
-1.3774e-07
0.000344972
1.82963e-07
0.000344845
5.02257e-07
0.000344639
8.19895e-07
0.000344353
1.13563e-06
0.000343989
1.44923e-06
0.000343546
1.76046e-06
0.000343026
2.06909e-06
0.00034243
2.37491e-06
0.000341758
2.6777e-06
0.000341011
2.97726e-06
0.000340189
3.27339e-06
0.000339294
3.56592e-06
0.000338327
3.85465e-06
0.000337289
4.13943e-06
0.00033618
4.42009e-06
0.000335002
4.69647e-06
0.000333756
4.96845e-06
0.000332443
5.23588e-06
0.000331064
5.49865e-06
0.000329621
5.75664e-06
0.000328114
6.00975e-06
0.000326545
6.25787e-06
0.000324915
6.50094e-06
0.000323226
6.73887e-06
0.000321478
6.9716e-06
0.000319674
7.19907e-06
0.000317814
7.42124e-06
0.0003159
7.63806e-06
0.000313933
7.8495e-06
0.000311914
8.05554e-06
0.000309845
8.25617e-06
0.000307728
8.45138e-06
0.000305563
8.64118e-06
0.000303352
8.82557e-06
0.000301096
9.00456e-06
0.000298797
9.17818e-06
0.000296455
9.34647e-06
0.000294073
9.50945e-06
0.000291652
9.66716e-06
0.000289193
9.81966e-06
0.000286696
9.96699e-06
0.000284165
1.01092e-05
0.000281599
1.02464e-05
0.000279
1.03786e-05
0.000276369
1.05059e-05
0.000273708
1.06283e-05
0.000271017
1.0746e-05
0.000268299
1.0859e-05
0.000265553
1.09675e-05
0.000262781
1.10714e-05
0.000259985
1.11709e-05
0.000257164
1.1266e-05
0.000254321
1.1357e-05
0.000251457
1.14437e-05
0.000248572
1.15265e-05
0.000245667
1.16053e-05
0.000242744
1.16802e-05
0.000239803
1.17514e-05
0.000236845
1.18189e-05
0.000233871
1.18829e-05
0.000230882
1.19434e-05
0.000227879
1.20006e-05
0.000224863
1.20545e-05
0.000221834
1.21053e-05
0.000218793
1.2153e-05
0.000215741
1.21978e-05
0.000212679
1.22397e-05
0.000209607
1.22788e-05
0.000206526
1.23153e-05
0.000203436
1.23492e-05
0.000200339
1.23806e-05
0.000197235
1.24097e-05
0.000194124
1.24364e-05
0.000191007
1.2461e-05
0.000187884
1.24835e-05
0.000184756
1.25039e-05
0.000181624
1.25224e-05
0.000178488
1.25391e-05
0.000175348
1.25539e-05
0.000172205
1.25671e-05
0.000169059
1.25787e-05
0.00016591
1.25888e-05
0.000162759
1.25975e-05
0.000159607
1.26047e-05
0.000156453
1.26107e-05
0.000153299
1.26154e-05
0.000150143
1.2619e-05
0.000146987
1.26215e-05
0.00014383
1.2623e-05
0.000140673
1.26235e-05
0.000137517
1.26231e-05
0.000134361
1.26219e-05
0.000131205
1.262e-05
0.00012805
1.26173e-05
0.000124896
1.26139e-05
0.000121743
1.261e-05
0.000118591
1.26055e-05
0.000115441
1.26006e-05
0.000112292
1.25951e-05
0.000109144
1.25893e-05
0.000105998
1.25832e-05
0.000102854
1.25767e-05
9.97109e-05
1.257e-05
9.657e-05
1.2563e-05
9.34309e-05
1.25559e-05
9.02936e-05
1.25486e-05
8.71583e-05
1.25413e-05
8.40248e-05
1.25338e-05
8.08932e-05
1.25264e-05
7.77635e-05
1.25189e-05
7.46357e-05
1.25115e-05
7.15097e-05
1.25041e-05
6.83856e-05
1.24969e-05
6.52633e-05
1.24897e-05
6.21428e-05
1.24827e-05
5.9024e-05
1.24759e-05
5.59068e-05
1.24693e-05
5.27913e-05
1.24629e-05
4.96773e-05
1.24567e-05
4.65649e-05
1.24508e-05
4.34538e-05
1.24452e-05
4.03441e-05
1.24399e-05
3.72357e-05
1.24349e-05
3.41284e-05
1.24302e-05
3.10223e-05
1.24259e-05
2.79171e-05
1.24219e-05
2.48129e-05
1.24183e-05
2.17094e-05
1.2415e-05
1.86067e-05
1.24122e-05
1.55047e-05
1.24097e-05
1.24031e-05
1.24076e-05
9.30196e-06
1.2406e-05
6.20114e-06
1.24048e-05
3.10052e-06
1.24039e-05
1.24035e-05
3.61787e-06
-1.80935e-05
7.23589e-06
-1.80942e-05
1.08542e-05
-1.80956e-05
1.44729e-05
-1.80976e-05
1.80922e-05
-1.81004e-05
2.17122e-05
-1.81037e-05
2.5333e-05
-1.81078e-05
2.89548e-05
-1.81124e-05
3.25777e-05
-1.81177e-05
3.62017e-05
-1.81235e-05
3.98271e-05
-1.81298e-05
4.34539e-05
-1.81366e-05
4.70822e-05
-1.81439e-05
5.07121e-05
-1.81516e-05
5.43436e-05
-1.81597e-05
5.79769e-05
-1.8168e-05
6.1612e-05
-1.81766e-05
6.5249e-05
-1.81855e-05
6.88878e-05
-1.81944e-05
7.25285e-05
-1.82035e-05
7.61711e-05
-1.82125e-05
7.98156e-05
-1.82215e-05
8.34619e-05
-1.82303e-05
8.71101e-05
-1.82389e-05
9.076e-05
-1.82471e-05
9.44116e-05
-1.8255e-05
9.80648e-05
-1.82623e-05
0.000101719
-1.82691e-05
0.000105375
-1.82751e-05
0.000109033
-1.82804e-05
0.000112691
-1.82847e-05
0.00011635
-1.8288e-05
0.000120009
-1.82901e-05
0.000123669
-1.8291e-05
0.000127329
-1.82905e-05
0.000130989
-1.82884e-05
0.000134648
-1.82847e-05
0.000138306
-1.82792e-05
0.000141963
-1.82718e-05
0.000145618
-1.82623e-05
0.000149271
-1.82506e-05
0.000152921
-1.82365e-05
0.000156569
-1.82199e-05
0.000160212
-1.82007e-05
0.000163851
-1.81785e-05
0.000167486
-1.81534e-05
0.000171115
-1.81252e-05
0.000174738
-1.80936e-05
0.000178354
-1.80585e-05
0.000181963
-1.80198e-05
0.000185563
-1.79773e-05
0.000189154
-1.79307e-05
0.000192735
-1.788e-05
0.000196306
-1.78249e-05
0.000199864
-1.77654e-05
0.00020341
-1.77011e-05
0.000206943
-1.7632e-05
0.000210461
-1.75579e-05
0.000213963
-1.74785e-05
0.000217448
-1.73938e-05
0.000220916
-1.73036e-05
0.000224364
-1.72077e-05
0.000227793
-1.71059e-05
0.0002312
-1.69981e-05
0.000234584
-1.68842e-05
0.000237945
-1.6764e-05
0.00024128
-1.66373e-05
0.000244589
-1.6504e-05
0.00024787
-1.63641e-05
0.000251121
-1.62172e-05
0.000254343
-1.60635e-05
0.000257532
-1.59027e-05
0.000260687
-1.57347e-05
0.000263808
-1.55595e-05
0.000266892
-1.53769e-05
0.000269939
-1.51869e-05
0.000272945
-1.49895e-05
0.000275911
-1.47846e-05
0.000278835
-1.4572e-05
0.000281714
-1.4352e-05
0.000284548
-1.41242e-05
0.000287335
-1.38889e-05
0.000290073
-1.3646e-05
0.000292762
-1.33955e-05
0.000295398
-1.31375e-05
0.000297981
-1.28719e-05
0.00030051
-1.25989e-05
0.000302982
-1.23186e-05
0.000305397
-1.2031e-05
0.000307753
-1.17362e-05
0.000310048
-1.14343e-05
0.000312281
-1.11255e-05
0.000314451
-1.08099e-05
0.000316556
-1.04877e-05
0.000318596
-1.01591e-05
0.000320568
-9.82412e-06
0.000322471
-9.48311e-06
0.000324305
-9.13623e-06
0.000326069
-8.78371e-06
0.00032776
-8.42578e-06
0.000329378
-8.06269e-06
0.000330923
-7.6947e-06
0.000332392
-7.32207e-06
0.000333786
-6.94507e-06
0.000335104
-6.564e-06
0.000336344
-6.17915e-06
0.000337506
-5.79082e-06
0.000338589
-5.39931e-06
0.000339593
-5.00496e-06
0.000340517
-4.60807e-06
0.000341361
-4.20898e-06
0.000342125
-3.808e-06
0.000342807
-3.40549e-06
0.000343409
-3.00176e-06
0.000343929
-2.59716e-06
0.000344367
-2.19202e-06
0.000344724
-1.78669e-06
0.000345
-1.38148e-06
0.000345195
-9.76753e-07
0.000345308
-5.72822e-07
0.00034534
-1.70018e-07
0.000345292
2.31335e-07
0.000345163
6.30919e-07
0.000344955
1.02842e-06
0.000344667
1.42354e-06
0.0003443
1.81597e-06
0.000343855
2.20543e-06
0.000343332
2.59163e-06
0.000342733
2.97429e-06
0.000342058
3.35316e-06
0.000341307
3.72798e-06
0.000340482
4.0985e-06
0.000339583
4.46449e-06
0.000338612
4.82572e-06
0.000337569
5.182e-06
0.000336456
5.5331e-06
0.000335274
5.87885e-06
0.000334023
6.21907e-06
0.000332706
6.55359e-06
0.000331322
6.88226e-06
0.000329874
7.20494e-06
0.000328362
7.5215e-06
0.000326788
7.83182e-06
0.000325153
8.1358e-06
0.000323459
8.43333e-06
0.000321706
8.72435e-06
0.000319896
9.00878e-06
0.000318031
9.28656e-06
0.000316111
9.55764e-06
0.000314139
9.82198e-06
0.000312115
1.00796e-05
0.000310041
1.03304e-05
0.000307918
1.05744e-05
0.000305747
1.08116e-05
0.000303531
1.10421e-05
0.00030127
1.12658e-05
0.000298965
1.14827e-05
0.000296619
1.1693e-05
0.000294231
1.18967e-05
0.000291805
1.20937e-05
0.00028934
1.22843e-05
0.000286839
1.24683e-05
0.000284302
1.2646e-05
0.000281731
1.28173e-05
0.000279127
1.29824e-05
0.000276492
1.31414e-05
0.000273826
1.32943e-05
0.000271131
1.34413e-05
0.000268407
1.35824e-05
0.000265657
1.37178e-05
0.000262881
1.38475e-05
0.00026008
1.39717e-05
0.000257255
1.40905e-05
0.000254408
1.4204e-05
0.00025154
1.43123e-05
0.000248651
1.44155e-05