/*--------------------------------*- C++ -*----------------------------------*\
| =========                 |                                                 |
| \\      /  F ield         | OpenFOAM: The Open Source CFD Toolbox           |
|  \\    /   O peration     | Version:  v2012                                 |
|   \\  /    A nd           | Website:  www.openfoam.com                      |
|    \\/     M anipulation  |                                                 |
\*---------------------------------------------------------------------------*/
FoamFile
{
    version     2.0;
    format      ascii;
    class       volVectorField;
    location    "11.4";
    object      Psi;
}
// * * * * * * * * * * * * * * * * * * * * * * * * * * * * * * * * * * * * * //

dimensions      [0 2 -1 0 0 0 0];


internalField   nonuniform List<vector> 
65536
(
(0 0 9.03588e-06)
(0 0 2.7108e-05)
(0 0 4.51812e-05)
(0 0 6.32561e-05)
(0 0 8.13335e-05)
(0 0 9.94139e-05)
(0 0 0.000117498)
(0 0 0.000135586)
(0 0 0.00015368)
(0 0 0.000171779)
(0 0 0.000189884)
(0 0 0.000207996)
(0 0 0.000226115)
(0 0 0.000244241)
(0 0 0.000262375)
(0 0 0.000280518)
(0 0 0.000298669)
(0 0 0.000316829)
(0 0 0.000334998)
(0 0 0.000353176)
(0 0 0.000371363)
(0 0 0.000389559)
(0 0 0.000407764)
(0 0 0.000425978)
(0 0 0.000444201)
(0 0 0.000462431)
(0 0 0.00048067)
(0 0 0.000498915)
(0 0 0.000517167)
(0 0 0.000535425)
(0 0 0.000553688)
(0 0 0.000571955)
(0 0 0.000590225)
(0 0 0.000608496)
(0 0 0.000626768)
(0 0 0.000645039)
(0 0 0.000663307)
(0 0 0.00068157)
(0 0 0.000699828)
(0 0 0.000718077)
(0 0 0.000736317)
(0 0 0.000754543)
(0 0 0.000772755)
(0 0 0.000790949)
(0 0 0.000809122)
(0 0 0.000827273)
(0 0 0.000845397)
(0 0 0.000863491)
(0 0 0.000881553)
(0 0 0.000899579)
(0 0 0.000917564)
(0 0 0.000935505)
(0 0 0.000953398)
(0 0 0.000971239)
(0 0 0.000989023)
(0 0 0.00100675)
(0 0 0.0010244)
(0 0 0.00104199)
(0 0 0.0010595)
(0 0 0.00107693)
(0 0 0.00109427)
(0 0 0.00111152)
(0 0 0.00112867)
(0 0 0.00114571)
(0 0 0.00116265)
(0 0 0.00117947)
(0 0 0.00119617)
(0 0 0.00121274)
(0 0 0.00122917)
(0 0 0.00124547)
(0 0 0.00126161)
(0 0 0.00127759)
(0 0 0.00129342)
(0 0 0.00130907)
(0 0 0.00132454)
(0 0 0.00133983)
(0 0 0.00135493)
(0 0 0.00136983)
(0 0 0.00138451)
(0 0 0.00139899)
(0 0 0.00141324)
(0 0 0.00142726)
(0 0 0.00144104)
(0 0 0.00145458)
(0 0 0.00146787)
(0 0 0.00148089)
(0 0 0.00149365)
(0 0 0.00150613)
(0 0 0.00151833)
(0 0 0.00153024)
(0 0 0.00154185)
(0 0 0.00155316)
(0 0 0.00156415)
(0 0 0.00157483)
(0 0 0.00158519)
(0 0 0.00159521)
(0 0 0.0016049)
(0 0 0.00161424)
(0 0 0.00162324)
(0 0 0.00163188)
(0 0 0.00164016)
(0 0 0.00164808)
(0 0 0.00165563)
(0 0 0.00166281)
(0 0 0.0016696)
(0 0 0.00167602)
(0 0 0.00168205)
(0 0 0.00168769)
(0 0 0.00169294)
(0 0 0.00169779)
(0 0 0.00170225)
(0 0 0.0017063)
(0 0 0.00170996)
(0 0 0.00171321)
(0 0 0.00171606)
(0 0 0.0017185)
(0 0 0.00172054)
(0 0 0.00172218)
(0 0 0.00172341)
(0 0 0.00172423)
(0 0 0.00172465)
(0 0 0.00172467)
(0 0 0.00172429)
(0 0 0.00172351)
(0 0 0.00172234)
(0 0 0.00172077)
(0 0 0.0017188)
(0 0 0.00171645)
(0 0 0.00171372)
(0 0 0.0017106)
(0 0 0.00170711)
(0 0 0.00170324)
(0 0 0.001699)
(0 0 0.0016944)
(0 0 0.00168944)
(0 0 0.00168412)
(0 0 0.00167846)
(0 0 0.00167245)
(0 0 0.0016661)
(0 0 0.00165942)
(0 0 0.00165241)
(0 0 0.00164508)
(0 0 0.00163744)
(0 0 0.00162949)
(0 0 0.00162123)
(0 0 0.00161268)
(0 0 0.00160384)
(0 0 0.00159472)
(0 0 0.00158533)
(0 0 0.00157566)
(0 0 0.00156573)
(0 0 0.00155555)
(0 0 0.00154512)
(0 0 0.00153444)
(0 0 0.00152353)
(0 0 0.00151239)
(0 0 0.00150103)
(0 0 0.00148945)
(0 0 0.00147767)
(0 0 0.00146569)
(0 0 0.0014535)
(0 0 0.00144113)
(0 0 0.00142858)
(0 0 0.00141586)
(0 0 0.00140296)
(0 0 0.0013899)
(0 0 0.00137668)
(0 0 0.00136331)
(0 0 0.0013498)
(0 0 0.00133614)
(0 0 0.00132236)
(0 0 0.00130844)
(0 0 0.00129441)
(0 0 0.00128025)
(0 0 0.00126598)
(0 0 0.00125161)
(0 0 0.00123714)
(0 0 0.00122256)
(0 0 0.0012079)
(0 0 0.00119315)
(0 0 0.00117831)
(0 0 0.0011634)
(0 0 0.00114842)
(0 0 0.00113336)
(0 0 0.00111824)
(0 0 0.00110305)
(0 0 0.00108781)
(0 0 0.00107251)
(0 0 0.00105717)
(0 0 0.00104177)
(0 0 0.00102633)
(0 0 0.00101085)
(0 0 0.000995331)
(0 0 0.000979777)
(0 0 0.00096419)
(0 0 0.000948574)
(0 0 0.000932931)
(0 0 0.000917264)
(0 0 0.000901575)
(0 0 0.000885866)
(0 0 0.000870139)
(0 0 0.000854396)
(0 0 0.00083864)
(0 0 0.000822873)
(0 0 0.000807095)
(0 0 0.000791309)
(0 0 0.000775517)
(0 0 0.000759719)
(0 0 0.000743918)
(0 0 0.000728114)
(0 0 0.000712309)
(0 0 0.000696504)
(0 0 0.0006807)
(0 0 0.000664898)
(0 0 0.000649099)
(0 0 0.000633305)
(0 0 0.000617514)
(0 0 0.000601729)
(0 0 0.00058595)
(0 0 0.000570178)
(0 0 0.000554413)
(0 0 0.000538656)
(0 0 0.000522906)
(0 0 0.000507165)
(0 0 0.000491433)
(0 0 0.00047571)
(0 0 0.000459996)
(0 0 0.000444291)
(0 0 0.000428595)
(0 0 0.000412909)
(0 0 0.000397232)
(0 0 0.000381565)
(0 0 0.000365907)
(0 0 0.000350259)
(0 0 0.00033462)
(0 0 0.000318989)
(0 0 0.000303367)
(0 0 0.000287754)
(0 0 0.000272149)
(0 0 0.000256552)
(0 0 0.000240963)
(0 0 0.000225381)
(0 0 0.000209806)
(0 0 0.000194238)
(0 0 0.000178675)
(0 0 0.000163119)
(0 0 0.000147567)
(0 0 0.000132021)
(0 0 0.000116478)
(0 0 0.00010094)
(0 0 8.5405e-05)
(0 0 6.98729e-05)
(0 0 5.43431e-05)
(0 0 3.88152e-05)
(0 0 2.32886e-05)
(0 0 7.76278e-06)
(0 0 2.71074e-05)
(0 0 8.13231e-05)
(0 0 0.000135542)
(0 0 0.000189766)
(0 0 0.000243998)
(0 0 0.000298238)
(0 0 0.00035249)
(0 0 0.000406755)
(0 0 0.000461035)
(0 0 0.000515331)
(0 0 0.000569646)
(0 0 0.000623981)
(0 0 0.000678337)
(0 0 0.000732716)
(0 0 0.000787118)
(0 0 0.000841546)
(0 0 0.000895999)
(0 0 0.000950478)
(0 0 0.00100498)
(0 0 0.00105952)
(0 0 0.00111408)
(0 0 0.00116867)
(0 0 0.00122328)
(0 0 0.00127793)
(0 0 0.00133259)
(0 0 0.00138729)
(0 0 0.001442)
(0 0 0.00149674)
(0 0 0.0015515)
(0 0 0.00160627)
(0 0 0.00166106)
(0 0 0.00171586)
(0 0 0.00177067)
(0 0 0.00182549)
(0 0 0.00188031)
(0 0 0.00193512)
(0 0 0.00198993)
(0 0 0.00204472)
(0 0 0.00209949)
(0 0 0.00215424)
(0 0 0.00220896)
(0 0 0.00226365)
(0 0 0.00231828)
(0 0 0.00237287)
(0 0 0.00242739)
(0 0 0.00248185)
(0 0 0.00253622)
(0 0 0.00259051)
(0 0 0.0026447)
(0 0 0.00269878)
(0 0 0.00275274)
(0 0 0.00280656)
(0 0 0.00286025)
(0 0 0.00291377)
(0 0 0.00296713)
(0 0 0.0030203)
(0 0 0.00307328)
(0 0 0.00312604)
(0 0 0.00317857)
(0 0 0.00323086)
(0 0 0.00328289)
(0 0 0.00333465)
(0 0 0.00338611)
(0 0 0.00343725)
(0 0 0.00348807)
(0 0 0.00353854)
(0 0 0.00358864)
(0 0 0.00363836)
(0 0 0.00368767)
(0 0 0.00373655)
(0 0 0.00378498)
(0 0 0.00383295)
(0 0 0.00388042)
(0 0 0.00392738)
(0 0 0.00397381)
(0 0 0.00401969)
(0 0 0.00406499)
(0 0 0.00410968)
(0 0 0.00415376)
(0 0 0.00419719)
(0 0 0.00423995)
(0 0 0.00428202)
(0 0 0.00432338)
(0 0 0.004364)
(0 0 0.00440386)
(0 0 0.00444294)
(0 0 0.00448122)
(0 0 0.00451867)
(0 0 0.00455527)
(0 0 0.004591)
(0 0 0.00462585)
(0 0 0.00465978)
(0 0 0.00469277)
(0 0 0.00472482)
(0 0 0.00475589)
(0 0 0.00478597)
(0 0 0.00481503)
(0 0 0.00484307)
(0 0 0.00487007)
(0 0 0.004896)
(0 0 0.00492085)
(0 0 0.00494461)
(0 0 0.00496727)
(0 0 0.0049888)
(0 0 0.00500919)
(0 0 0.00502844)
(0 0 0.00504653)
(0 0 0.00506346)
(0 0 0.00507921)
(0 0 0.00509377)
(0 0 0.00510714)
(0 0 0.00511931)
(0 0 0.00513028)
(0 0 0.00514004)
(0 0 0.00514858)
(0 0 0.00515592)
(0 0 0.00516203)
(0 0 0.00516694)
(0 0 0.00517062)
(0 0 0.0051731)
(0 0 0.00517436)
(0 0 0.00517442)
(0 0 0.00517327)
(0 0 0.00517093)
(0 0 0.0051674)
(0 0 0.00516268)
(0 0 0.0051568)
(0 0 0.00514974)
(0 0 0.00514153)
(0 0 0.00513218)
(0 0 0.00512169)
(0 0 0.00511008)
(0 0 0.00509736)
(0 0 0.00508355)
(0 0 0.00506867)
(0 0 0.00505271)
(0 0 0.00503571)
(0 0 0.00501768)
(0 0 0.00499863)
(0 0 0.00497858)
(0 0 0.00495755)
(0 0 0.00493556)
(0 0 0.00491262)
(0 0 0.00488876)
(0 0 0.00486399)
(0 0 0.00483834)
(0 0 0.00481181)
(0 0 0.00478444)
(0 0 0.00475625)
(0 0 0.00472724)
(0 0 0.00469745)
(0 0 0.00466689)
(0 0 0.00463558)
(0 0 0.00460355)
(0 0 0.00457081)
(0 0 0.00453739)
(0 0 0.0045033)
(0 0 0.00446857)
(0 0 0.00443321)
(0 0 0.00439725)
(0 0 0.0043607)
(0 0 0.00432358)
(0 0 0.00428592)
(0 0 0.00424773)
(0 0 0.00420903)
(0 0 0.00416985)
(0 0 0.00413019)
(0 0 0.00409008)
(0 0 0.00404953)
(0 0 0.00400856)
(0 0 0.0039672)
(0 0 0.00392545)
(0 0 0.00388333)
(0 0 0.00384086)
(0 0 0.00379805)
(0 0 0.00375493)
(0 0 0.0037115)
(0 0 0.00366778)
(0 0 0.00362378)
(0 0 0.00357953)
(0 0 0.00353502)
(0 0 0.00349028)
(0 0 0.00344531)
(0 0 0.00340014)
(0 0 0.00335477)
(0 0 0.00330921)
(0 0 0.00326348)
(0 0 0.00321759)
(0 0 0.00317154)
(0 0 0.00312535)
(0 0 0.00307903)
(0 0 0.00303258)
(0 0 0.00298602)
(0 0 0.00293936)
(0 0 0.0028926)
(0 0 0.00284575)
(0 0 0.00279882)
(0 0 0.00275181)
(0 0 0.00270474)
(0 0 0.00265761)
(0 0 0.00261043)
(0 0 0.0025632)
(0 0 0.00251593)
(0 0 0.00246863)
(0 0 0.00242129)
(0 0 0.00237393)
(0 0 0.00232655)
(0 0 0.00227916)
(0 0 0.00223175)
(0 0 0.00218434)
(0 0 0.00213692)
(0 0 0.00208951)
(0 0 0.0020421)
(0 0 0.00199469)
(0 0 0.00194729)
(0 0 0.00189991)
(0 0 0.00185254)
(0 0 0.00180518)
(0 0 0.00175784)
(0 0 0.00171053)
(0 0 0.00166323)
(0 0 0.00161596)
(0 0 0.00156871)
(0 0 0.00152149)
(0 0 0.00147429)
(0 0 0.00142712)
(0 0 0.00137998)
(0 0 0.00133286)
(0 0 0.00128577)
(0 0 0.00123872)
(0 0 0.00119169)
(0 0 0.00114468)
(0 0 0.00109771)
(0 0 0.00105077)
(0 0 0.00100385)
(0 0 0.000956957)
(0 0 0.000910093)
(0 0 0.000863254)
(0 0 0.000816439)
(0 0 0.000769649)
(0 0 0.000722881)
(0 0 0.000676136)
(0 0 0.000629411)
(0 0 0.000582706)
(0 0 0.000536019)
(0 0 0.00048935)
(0 0 0.000442696)
(0 0 0.000396057)
(0 0 0.000349431)
(0 0 0.000302816)
(0 0 0.000256212)
(0 0 0.000209616)
(0 0 0.000163027)
(0 0 0.000116444)
(0 0 6.9865e-05)
(0 0 2.32881e-05)
(0 0 4.51778e-05)
(0 0 0.000135535)
(0 0 0.000225898)
(0 0 0.000316269)
(0 0 0.000406652)
(0 0 0.000497051)
(0 0 0.000587469)
(0 0 0.000677908)
(0 0 0.000768373)
(0 0 0.000858865)
(0 0 0.000949388)
(0 0 0.00103994)
(0 0 0.00113054)
(0 0 0.00122117)
(0 0 0.00131184)
(0 0 0.00140255)
(0 0 0.0014933)
(0 0 0.0015841)
(0 0 0.00167494)
(0 0 0.00176583)
(0 0 0.00185677)
(0 0 0.00194775)
(0 0 0.00203878)
(0 0 0.00212985)
(0 0 0.00222096)
(0 0 0.00231212)
(0 0 0.00240331)
(0 0 0.00249454)
(0 0 0.00258581)
(0 0 0.0026771)
(0 0 0.00276842)
(0 0 0.00285976)
(0 0 0.00295112)
(0 0 0.00304248)
(0 0 0.00313385)
(0 0 0.00322521)
(0 0 0.00331656)
(0 0 0.00340789)
(0 0 0.00349918)
(0 0 0.00359044)
(0 0 0.00368165)
(0 0 0.00377279)
(0 0 0.00386386)
(0 0 0.00395485)
(0 0 0.00404573)
(0 0 0.0041365)
(0 0 0.00422713)
(0 0 0.00431762)
(0 0 0.00440795)
(0 0 0.0044981)
(0 0 0.00458804)
(0 0 0.00467777)
(0 0 0.00476725)
(0 0 0.00485648)
(0 0 0.00494542)
(0 0 0.00503406)
(0 0 0.00512237)
(0 0 0.00521032)
(0 0 0.00529789)
(0 0 0.00538506)
(0 0 0.0054718)
(0 0 0.00555807)
(0 0 0.00564386)
(0 0 0.00572912)
(0 0 0.00581384)
(0 0 0.00589798)
(0 0 0.0059815)
(0 0 0.00606438)
(0 0 0.00614659)
(0 0 0.00622808)
(0 0 0.00630882)
(0 0 0.00638879)
(0 0 0.00646794)
(0 0 0.00654623)
(0 0 0.00662364)
(0 0 0.00670012)
(0 0 0.00677564)
(0 0 0.00685016)
(0 0 0.00692365)
(0 0 0.00699606)
(0 0 0.00706735)
(0 0 0.00713749)
(0 0 0.00720645)
(0 0 0.00727418)
(0 0 0.00734064)
(0 0 0.0074058)
(0 0 0.00746962)
(0 0 0.00753206)
(0 0 0.00759309)
(0 0 0.00765266)
(0 0 0.00771076)
(0 0 0.00776733)
(0 0 0.00782235)
(0 0 0.00787577)
(0 0 0.00792758)
(0 0 0.00797773)
(0 0 0.0080262)
(0 0 0.00807295)
(0 0 0.00811796)
(0 0 0.0081612)
(0 0 0.00820264)
(0 0 0.00824226)
(0 0 0.00828002)
(0 0 0.00831592)
(0 0 0.00834993)
(0 0 0.00838202)
(0 0 0.00841219)
(0 0 0.0084404)
(0 0 0.00846666)
(0 0 0.00849094)
(0 0 0.00851323)
(0 0 0.00853352)
(0 0 0.0085518)
(0 0 0.00856807)
(0 0 0.00858232)
(0 0 0.00859454)
(0 0 0.00860474)
(0 0 0.00861291)
(0 0 0.00861906)
(0 0 0.00862318)
(0 0 0.00862528)
(0 0 0.00862537)
(0 0 0.00862345)
(0 0 0.00861954)
(0 0 0.00861365)
(0 0 0.00860578)
(0 0 0.00859595)
(0 0 0.00858418)
(0 0 0.00857049)
(0 0 0.00855488)
(0 0 0.00853739)
(0 0 0.00851803)
(0 0 0.00849682)
(0 0 0.00847379)
(0 0 0.00844896)
(0 0 0.00842235)
(0 0 0.008394)
(0 0 0.00836392)
(0 0 0.00833215)
(0 0 0.00829872)
(0 0 0.00826365)
(0 0 0.00822698)
(0 0 0.00818873)
(0 0 0.00814894)
(0 0 0.00810764)
(0 0 0.00806486)
(0 0 0.00802063)
(0 0 0.00797499)
(0 0 0.00792797)
(0 0 0.00787961)
(0 0 0.00782993)
(0 0 0.00777898)
(0 0 0.00772678)
(0 0 0.00767337)
(0 0 0.00761878)
(0 0 0.00756306)
(0 0 0.00750622)
(0 0 0.00744831)
(0 0 0.00738936)
(0 0 0.00732939)
(0 0 0.00726846)
(0 0 0.00720658)
(0 0 0.00714379)
(0 0 0.00708012)
(0 0 0.0070156)
(0 0 0.00695027)
(0 0 0.00688415)
(0 0 0.00681728)
(0 0 0.00674968)
(0 0 0.00668138)
(0 0 0.00661242)
(0 0 0.00654282)
(0 0 0.0064726)
(0 0 0.0064018)
(0 0 0.00633045)
(0 0 0.00625855)
(0 0 0.00618615)
(0 0 0.00611327)
(0 0 0.00603993)
(0 0 0.00596615)
(0 0 0.00589196)
(0 0 0.00581738)
(0 0 0.00574242)
(0 0 0.00566712)
(0 0 0.00559149)
(0 0 0.00551555)
(0 0 0.00543932)
(0 0 0.00536282)
(0 0 0.00528606)
(0 0 0.00520907)
(0 0 0.00513185)
(0 0 0.00505443)
(0 0 0.00497682)
(0 0 0.00489904)
(0 0 0.00482109)
(0 0 0.004743)
(0 0 0.00466477)
(0 0 0.00458643)
(0 0 0.00450797)
(0 0 0.00442941)
(0 0 0.00435077)
(0 0 0.00427204)
(0 0 0.00419326)
(0 0 0.00411441)
(0 0 0.00403551)
(0 0 0.00395657)
(0 0 0.00387761)
(0 0 0.00379861)
(0 0 0.0037196)
(0 0 0.00364057)
(0 0 0.00356154)
(0 0 0.00348251)
(0 0 0.00340349)
(0 0 0.00332447)
(0 0 0.00324547)
(0 0 0.0031665)
(0 0 0.00308754)
(0 0 0.00300861)
(0 0 0.00292972)
(0 0 0.00285085)
(0 0 0.00277202)
(0 0 0.00269324)
(0 0 0.00261449)
(0 0 0.00253578)
(0 0 0.00245712)
(0 0 0.0023785)
(0 0 0.00229993)
(0 0 0.0022214)
(0 0 0.00214293)
(0 0 0.00206449)
(0 0 0.00198611)
(0 0 0.00190778)
(0 0 0.00182949)
(0 0 0.00175125)
(0 0 0.00167305)
(0 0 0.0015949)
(0 0 0.00151679)
(0 0 0.00143873)
(0 0 0.00136071)
(0 0 0.00128272)
(0 0 0.00120478)
(0 0 0.00112687)
(0 0 0.001049)
(0 0 0.000971156)
(0 0 0.000893346)
(0 0 0.000815565)
(0 0 0.000737811)
(0 0 0.00066008)
(0 0 0.000582372)
(0 0 0.000504683)
(0 0 0.00042701)
(0 0 0.000349352)
(0 0 0.000271706)
(0 0 0.000194069)
(0 0 0.000116439)
(0 0 3.88126e-05)
(0 0 6.32465e-05)
(0 0 0.000189742)
(0 0 0.000316245)
(0 0 0.00044276)
(0 0 0.000569292)
(0 0 0.000695845)
(0 0 0.000822426)
(0 0 0.000949037)
(0 0 0.00107568)
(0 0 0.00120237)
(0 0 0.0013291)
(0 0 0.00145587)
(0 0 0.0015827)
(0 0 0.00170958)
(0 0 0.00183651)
(0 0 0.00196351)
(0 0 0.00209056)
(0 0 0.00221768)
(0 0 0.00234486)
(0 0 0.0024721)
(0 0 0.00259941)
(0 0 0.00272679)
(0 0 0.00285423)
(0 0 0.00298173)
(0 0 0.00310929)
(0 0 0.00323691)
(0 0 0.00336459)
(0 0 0.00349232)
(0 0 0.00362009)
(0 0 0.00374791)
(0 0 0.00387576)
(0 0 0.00400364)
(0 0 0.00413155)
(0 0 0.00425947)
(0 0 0.00438739)
(0 0 0.00451531)
(0 0 0.00464321)
(0 0 0.00477108)
(0 0 0.00489891)
(0 0 0.00502669)
(0 0 0.00515439)
(0 0 0.00528201)
(0 0 0.00540953)
(0 0 0.00553693)
(0 0 0.00566418)
(0 0 0.00579128)
(0 0 0.00591819)
(0 0 0.0060449)
(0 0 0.00617138)
(0 0 0.00629761)
(0 0 0.00642356)
(0 0 0.00654921)
(0 0 0.00667452)
(0 0 0.00679947)
(0 0 0.00692402)
(0 0 0.00704814)
(0 0 0.00717181)
(0 0 0.00729498)
(0 0 0.00741762)
(0 0 0.00753969)
(0 0 0.00766116)
(0 0 0.00778199)
(0 0 0.00790213)
(0 0 0.00802154)
(0 0 0.00814019)
(0 0 0.00825803)
(0 0 0.00837501)
(0 0 0.00849109)
(0 0 0.00860622)
(0 0 0.00872035)
(0 0 0.00883345)
(0 0 0.00894545)
(0 0 0.0090563)
(0 0 0.00916597)
(0 0 0.00927439)
(0 0 0.00938152)
(0 0 0.0094873)
(0 0 0.00959168)
(0 0 0.00969461)
(0 0 0.00979604)
(0 0 0.0098959)
(0 0 0.00999416)
(0 0 0.0100907)
(0 0 0.0101856)
(0 0 0.0102787)
(0 0 0.01037)
(0 0 0.0104594)
(0 0 0.0105469)
(0 0 0.0106324)
(0 0 0.0107158)
(0 0 0.0107972)
(0 0 0.0108764)
(0 0 0.0109535)
(0 0 0.0110284)
(0 0 0.0111009)
(0 0 0.0111712)
(0 0 0.0112391)
(0 0 0.0113046)
(0 0 0.0113676)
(0 0 0.0114282)
(0 0 0.0114862)
(0 0 0.0115417)
(0 0 0.0115947)
(0 0 0.0116449)
(0 0 0.0116926)
(0 0 0.0117375)
(0 0 0.0117798)
(0 0 0.0118193)
(0 0 0.0118561)
(0 0 0.0118901)
(0 0 0.0119213)
(0 0 0.0119497)
(0 0 0.0119753)
(0 0 0.0119981)
(0 0 0.0120181)
(0 0 0.0120352)
(0 0 0.0120495)
(0 0 0.0120609)
(0 0 0.0120695)
(0 0 0.0120753)
(0 0 0.0120782)
(0 0 0.0120783)
(0 0 0.0120756)
(0 0 0.0120701)
(0 0 0.0120619)
(0 0 0.0120508)
(0 0 0.0120371)
(0 0 0.0120206)
(0 0 0.0120014)
(0 0 0.0119795)
(0 0 0.011955)
(0 0 0.0119278)
(0 0 0.0118981)
(0 0 0.0118658)
(0 0 0.011831)
(0 0 0.0117937)
(0 0 0.011754)
(0 0 0.0117119)
(0 0 0.0116673)
(0 0 0.0116205)
(0 0 0.0115714)
(0 0 0.01152)
(0 0 0.0114664)
(0 0 0.0114106)
(0 0 0.0113528)
(0 0 0.0112928)
(0 0 0.0112309)
(0 0 0.0111669)
(0 0 0.011101)
(0 0 0.0110333)
(0 0 0.0109637)
(0 0 0.0108923)
(0 0 0.0108192)
(0 0 0.0107444)
(0 0 0.0106679)
(0 0 0.0105898)
(0 0 0.0105102)
(0 0 0.0104291)
(0 0 0.0103465)
(0 0 0.0102625)
(0 0 0.0101772)
(0 0 0.0100905)
(0 0 0.0100025)
(0 0 0.00991335)
(0 0 0.00982299)
(0 0 0.00973148)
(0 0 0.00963887)
(0 0 0.00954521)
(0 0 0.00945053)
(0 0 0.00935487)
(0 0 0.00925829)
(0 0 0.0091608)
(0 0 0.00906247)
(0 0 0.00896331)
(0 0 0.00886337)
(0 0 0.00876269)
(0 0 0.00866129)
(0 0 0.00855922)
(0 0 0.00845651)
(0 0 0.00835319)
(0 0 0.00824929)
(0 0 0.00814485)
(0 0 0.00803988)
(0 0 0.00793443)
(0 0 0.00782852)
(0 0 0.00772218)
(0 0 0.00761543)
(0 0 0.0075083)
(0 0 0.00740082)
(0 0 0.007293)
(0 0 0.00718488)
(0 0 0.00707647)
(0 0 0.0069678)
(0 0 0.00685888)
(0 0 0.00674974)
(0 0 0.00664039)
(0 0 0.00653085)
(0 0 0.00642115)
(0 0 0.00631129)
(0 0 0.0062013)
(0 0 0.00609118)
(0 0 0.00598096)
(0 0 0.00587064)
(0 0 0.00576024)
(0 0 0.00564977)
(0 0 0.00553925)
(0 0 0.00542868)
(0 0 0.00531808)
(0 0 0.00520745)
(0 0 0.00509681)
(0 0 0.00498616)
(0 0 0.00487551)
(0 0 0.00476487)
(0 0 0.00465424)
(0 0 0.00454364)
(0 0 0.00443306)
(0 0 0.00432252)
(0 0 0.00421202)
(0 0 0.00410156)
(0 0 0.00399114)
(0 0 0.00388078)
(0 0 0.00377047)
(0 0 0.00366022)
(0 0 0.00355003)
(0 0 0.0034399)
(0 0 0.00332984)
(0 0 0.00321983)
(0 0 0.0031099)
(0 0 0.00300003)
(0 0 0.00289023)
(0 0 0.00278049)
(0 0 0.00267082)
(0 0 0.00256122)
(0 0 0.00245168)
(0 0 0.00234221)
(0 0 0.0022328)
(0 0 0.00212345)
(0 0 0.00201416)
(0 0 0.00190493)
(0 0 0.00179576)
(0 0 0.00168664)
(0 0 0.00157757)
(0 0 0.00146855)
(0 0 0.00135958)
(0 0 0.00125064)
(0 0 0.00114175)
(0 0 0.0010329)
(0 0 0.000924082)
(0 0 0.000815294)
(0 0 0.000706532)
(0 0 0.000597794)
(0 0 0.000489077)
(0 0 0.000380376)
(0 0 0.000271688)
(0 0 0.000163009)
(0 0 5.43357e-05)
(0 0 8.13127e-05)
(0 0 0.000243941)
(0 0 0.000406579)
(0 0 0.000569233)
(0 0 0.000731909)
(0 0 0.000894613)
(0 0 0.00105735)
(0 0 0.00122013)
(0 0 0.00138295)
(0 0 0.00154583)
(0 0 0.00170876)
(0 0 0.00187175)
(0 0 0.00203481)
(0 0 0.00219793)
(0 0 0.00236113)
(0 0 0.0025244)
(0 0 0.00268776)
(0 0 0.00285119)
(0 0 0.00301471)
(0 0 0.00317831)
(0 0 0.00334199)
(0 0 0.00350576)
(0 0 0.00366961)
(0 0 0.00383355)
(0 0 0.00399756)
(0 0 0.00416165)
(0 0 0.00432581)
(0 0 0.00449004)
(0 0 0.00465433)
(0 0 0.00481868)
(0 0 0.00498307)
(0 0 0.00514751)
(0 0 0.00531197)
(0 0 0.00547645)
(0 0 0.00564094)
(0 0 0.00580543)
(0 0 0.00596989)
(0 0 0.00613432)
(0 0 0.0062987)
(0 0 0.00646301)
(0 0 0.00662723)
(0 0 0.00679134)
(0 0 0.00695532)
(0 0 0.00711915)
(0 0 0.0072828)
(0 0 0.00744624)
(0 0 0.00760946)
(0 0 0.00777241)
(0 0 0.00793507)
(0 0 0.00809741)
(0 0 0.00825939)
(0 0 0.00842099)
(0 0 0.00858215)
(0 0 0.00874285)
(0 0 0.00890304)
(0 0 0.00906269)
(0 0 0.00922174)
(0 0 0.00938017)
(0 0 0.00953791)
(0 0 0.00969493)
(0 0 0.00985117)
(0 0 0.0100066)
(0 0 0.0101611)
(0 0 0.0103147)
(0 0 0.0104674)
(0 0 0.0106189)
(0 0 0.0107694)
(0 0 0.0109187)
(0 0 0.0110668)
(0 0 0.0112137)
(0 0 0.0113592)
(0 0 0.0115032)
(0 0 0.0116459)
(0 0 0.011787)
(0 0 0.0119264)
(0 0 0.0120643)
(0 0 0.0122004)
(0 0 0.0123347)
(0 0 0.0124671)
(0 0 0.0125976)
(0 0 0.0127261)
(0 0 0.0128525)
(0 0 0.0129768)
(0 0 0.0130988)
(0 0 0.0132186)
(0 0 0.0133361)
(0 0 0.0134511)
(0 0 0.0135636)
(0 0 0.0136736)
(0 0 0.013781)
(0 0 0.0138858)
(0 0 0.0139877)
(0 0 0.0140869)
(0 0 0.0141832)
(0 0 0.0142766)
(0 0 0.014367)
(0 0 0.0144544)
(0 0 0.0145386)
(0 0 0.0146198)
(0 0 0.0146977)
(0 0 0.0147724)
(0 0 0.0148438)
(0 0 0.0149119)
(0 0 0.0149766)
(0 0 0.0150379)
(0 0 0.0150958)
(0 0 0.0151501)
(0 0 0.015201)
(0 0 0.0152483)
(0 0 0.015292)
(0 0 0.0153322)
(0 0 0.0153688)
(0 0 0.0154017)
(0 0 0.015431)
(0 0 0.0154567)
(0 0 0.0154787)
(0 0 0.0154971)
(0 0 0.0155118)
(0 0 0.0155228)
(0 0 0.0155302)
(0 0 0.015534)
(0 0 0.0155341)
(0 0 0.0155306)
(0 0 0.0155235)
(0 0 0.0155129)
(0 0 0.0154986)
(0 0 0.0154809)
(0 0 0.0154596)
(0 0 0.0154349)
(0 0 0.0154067)
(0 0 0.0153752)
(0 0 0.0153402)
(0 0 0.0153019)
(0 0 0.0152604)
(0 0 0.0152156)
(0 0 0.0151676)
(0 0 0.0151164)
(0 0 0.0150622)
(0 0 0.0150049)
(0 0 0.0149446)
(0 0 0.0148813)
(0 0 0.0148152)
(0 0 0.0147462)
(0 0 0.0146744)
(0 0 0.0146)
(0 0 0.0145228)
(0 0 0.0144431)
(0 0 0.0143608)
(0 0 0.014276)
(0 0 0.0141888)
(0 0 0.0140993)
(0 0 0.0140074)
(0 0 0.0139133)
(0 0 0.013817)
(0 0 0.0137186)
(0 0 0.0136182)
(0 0 0.0135157)
(0 0 0.0134113)
(0 0 0.0133051)
(0 0 0.013197)
(0 0 0.0130872)
(0 0 0.0129757)
(0 0 0.0128625)
(0 0 0.0127478)
(0 0 0.0126315)
(0 0 0.0125138)
(0 0 0.0123946)
(0 0 0.0122742)
(0 0 0.0121524)
(0 0 0.0120293)
(0 0 0.011905)
(0 0 0.0117796)
(0 0 0.0116531)
(0 0 0.0115256)
(0 0 0.011397)
(0 0 0.0112675)
(0 0 0.0111371)
(0 0 0.0110058)
(0 0 0.0108737)
(0 0 0.0107408)
(0 0 0.0106072)
(0 0 0.0104728)
(0 0 0.0103378)
(0 0 0.0102022)
(0 0 0.010066)
(0 0 0.00992921)
(0 0 0.00979192)
(0 0 0.00965414)
(0 0 0.00951591)
(0 0 0.00937725)
(0 0 0.0092382)
(0 0 0.00909878)
(0 0 0.00895902)
(0 0 0.00881895)
(0 0 0.00867859)
(0 0 0.00853797)
(0 0 0.00839711)
(0 0 0.00825603)
(0 0 0.00811476)
(0 0 0.00797331)
(0 0 0.0078317)
(0 0 0.00768996)
(0 0 0.00754811)
(0 0 0.00740614)
(0 0 0.00726409)
(0 0 0.00712197)
(0 0 0.0069798)
(0 0 0.00683758)
(0 0 0.00669532)
(0 0 0.00655305)
(0 0 0.00641077)
(0 0 0.0062685)
(0 0 0.00612623)
(0 0 0.00598399)
(0 0 0.00584177)
(0 0 0.00569959)
(0 0 0.00555746)
(0 0 0.00541538)
(0 0 0.00527335)
(0 0 0.00513138)
(0 0 0.00498948)
(0 0 0.00484765)
(0 0 0.0047059)
(0 0 0.00456422)
(0 0 0.00442262)
(0 0 0.00428111)
(0 0 0.00413968)
(0 0 0.00399833)
(0 0 0.00385707)
(0 0 0.00371589)
(0 0 0.0035748)
(0 0 0.0034338)
(0 0 0.00329288)
(0 0 0.00315205)
(0 0 0.0030113)
(0 0 0.00287064)
(0 0 0.00273005)
(0 0 0.00258954)
(0 0 0.0024491)
(0 0 0.00230874)
(0 0 0.00216845)
(0 0 0.00202822)
(0 0 0.00188806)
(0 0 0.00174795)
(0 0 0.0016079)
(0 0 0.00146791)
(0 0 0.00132796)
(0 0 0.00118805)
(0 0 0.00104819)
(0 0 0.000908358)
(0 0 0.000768558)
(0 0 0.000628785)
(0 0 0.000489033)
(0 0 0.000349297)
(0 0 0.000209574)
(0 0 6.98571e-05)
(0 0 9.93757e-05)
(0 0 0.000298131)
(0 0 0.000496898)
(0 0 0.000695685)
(0 0 0.000894498)
(0 0 0.00109335)
(0 0 0.00129224)
(0 0 0.00149118)
(0 0 0.00169017)
(0 0 0.00188923)
(0 0 0.00208836)
(0 0 0.00228756)
(0 0 0.00248684)
(0 0 0.00268621)
(0 0 0.00288567)
(0 0 0.00308522)
(0 0 0.00328487)
(0 0 0.00348462)
(0 0 0.00368447)
(0 0 0.00388443)
(0 0 0.00408449)
(0 0 0.00428465)
(0 0 0.00448492)
(0 0 0.00468529)
(0 0 0.00488575)
(0 0 0.00508631)
(0 0 0.00528697)
(0 0 0.0054877)
(0 0 0.00568852)
(0 0 0.0058894)
(0 0 0.00609034)
(0 0 0.00629134)
(0 0 0.00649237)
(0 0 0.00669343)
(0 0 0.0068945)
(0 0 0.00709556)
(0 0 0.00729661)
(0 0 0.00749761)
(0 0 0.00769855)
(0 0 0.00789941)
(0 0 0.00810017)
(0 0 0.00830079)
(0 0 0.00850126)
(0 0 0.00870155)
(0 0 0.00890161)
(0 0 0.00910144)
(0 0 0.00930098)
(0 0 0.00950021)
(0 0 0.00969908)
(0 0 0.00989756)
(0 0 0.0100956)
(0 0 0.0102932)
(0 0 0.0104902)
(0 0 0.0106867)
(0 0 0.0108826)
(0 0 0.0110778)
(0 0 0.0112723)
(0 0 0.011466)
(0 0 0.0116589)
(0 0 0.0118509)
(0 0 0.012042)
(0 0 0.0122321)
(0 0 0.0124211)
(0 0 0.0126089)
(0 0 0.0127956)
(0 0 0.0129809)
(0 0 0.013165)
(0 0 0.0133476)
(0 0 0.0135287)
(0 0 0.0137083)
(0 0 0.0138863)
(0 0 0.0140625)
(0 0 0.014237)
(0 0 0.0144095)
(0 0 0.0145802)
(0 0 0.0147487)
(0 0 0.0149152)
(0 0 0.0150795)
(0 0 0.0152415)
(0 0 0.0154011)
(0 0 0.0155583)
(0 0 0.015713)
(0 0 0.015865)
(0 0 0.0160143)
(0 0 0.0161609)
(0 0 0.0163046)
(0 0 0.0164453)
(0 0 0.016583)
(0 0 0.0167176)
(0 0 0.0168489)
(0 0 0.0169771)
(0 0 0.0171018)
(0 0 0.0172232)
(0 0 0.017341)
(0 0 0.0174552)
(0 0 0.0175658)
(0 0 0.0176727)
(0 0 0.0177759)
(0 0 0.0178751)
(0 0 0.0179705)
(0 0 0.0180619)
(0 0 0.0181492)
(0 0 0.0182325)
(0 0 0.0183117)
(0 0 0.0183867)
(0 0 0.0184575)
(0 0 0.018524)
(0 0 0.0185862)
(0 0 0.0186441)
(0 0 0.0186976)
(0 0 0.0187467)
(0 0 0.0187914)
(0 0 0.0188317)
(0 0 0.0188676)
(0 0 0.0188989)
(0 0 0.0189258)
(0 0 0.0189483)
(0 0 0.0189662)
(0 0 0.0189797)
(0 0 0.0189888)
(0 0 0.0189933)
(0 0 0.0189935)
(0 0 0.0189892)
(0 0 0.0189805)
(0 0 0.0189674)
(0 0 0.01895)
(0 0 0.0189282)
(0 0 0.0189022)
(0 0 0.0188719)
(0 0 0.0188374)
(0 0 0.0187987)
(0 0 0.0187559)
(0 0 0.0187091)
(0 0 0.0186582)
(0 0 0.0186033)
(0 0 0.0185446)
(0 0 0.018482)
(0 0 0.0184155)
(0 0 0.0183454)
(0 0 0.0182716)
(0 0 0.0181942)
(0 0 0.0181132)
(0 0 0.0180288)
(0 0 0.017941)
(0 0 0.0178498)
(0 0 0.0177554)
(0 0 0.0176578)
(0 0 0.0175571)
(0 0 0.0174534)
(0 0 0.0173467)
(0 0 0.0172371)
(0 0 0.0171247)
(0 0 0.0170096)
(0 0 0.0168918)
(0 0 0.0167714)
(0 0 0.0166485)
(0 0 0.0165232)
(0 0 0.0163955)
(0 0 0.0162655)
(0 0 0.0161333)
(0 0 0.0159989)
(0 0 0.0158625)
(0 0 0.0157241)
(0 0 0.0155837)
(0 0 0.0154415)
(0 0 0.0152975)
(0 0 0.0151518)
(0 0 0.0150044)
(0 0 0.0148554)
(0 0 0.0147049)
(0 0 0.014553)
(0 0 0.0143996)
(0 0 0.0142449)
(0 0 0.0140889)
(0 0 0.0139317)
(0 0 0.0137733)
(0 0 0.0136138)
(0 0 0.0134532)
(0 0 0.0132917)
(0 0 0.0131292)
(0 0 0.0129658)
(0 0 0.0128015)
(0 0 0.0126364)
(0 0 0.0124706)
(0 0 0.012304)
(0 0 0.0121368)
(0 0 0.0119689)
(0 0 0.0118004)
(0 0 0.0116314)
(0 0 0.0114619)
(0 0 0.0112919)
(0 0 0.0111214)
(0 0 0.0109506)
(0 0 0.0107793)
(0 0 0.0106077)
(0 0 0.0104358)
(0 0 0.0102636)
(0 0 0.0100911)
(0 0 0.0099184)
(0 0 0.00974548)
(0 0 0.00957237)
(0 0 0.00939909)
(0 0 0.00922567)
(0 0 0.00905213)
(0 0 0.00887849)
(0 0 0.00870476)
(0 0 0.00853096)
(0 0 0.0083571)
(0 0 0.00818322)
(0 0 0.00800931)
(0 0 0.00783539)
(0 0 0.00766147)
(0 0 0.00748758)
(0 0 0.0073137)
(0 0 0.00713987)
(0 0 0.00696608)
(0 0 0.00679235)
(0 0 0.00661868)
(0 0 0.00644508)
(0 0 0.00627156)
(0 0 0.00609812)
(0 0 0.00592476)
(0 0 0.0057515)
(0 0 0.00557833)
(0 0 0.00540526)
(0 0 0.0052323)
(0 0 0.00505943)
(0 0 0.00488667)
(0 0 0.00471402)
(0 0 0.00454147)
(0 0 0.00436903)
(0 0 0.0041967)
(0 0 0.00402447)
(0 0 0.00385234)
(0 0 0.00368032)
(0 0 0.00350839)
(0 0 0.00333657)
(0 0 0.00316484)
(0 0 0.0029932)
(0 0 0.00282165)
(0 0 0.00265019)
(0 0 0.00247881)
(0 0 0.0023075)
(0 0 0.00213627)
(0 0 0.00196511)
(0 0 0.00179401)
(0 0 0.00162297)
(0 0 0.00145199)
(0 0 0.00128105)
(0 0 0.00111015)
(0 0 0.000939296)
(0 0 0.000768471)
(0 0 0.000597673)
(0 0 0.000426895)
(0 0 0.000256131)
(0 0 8.5376e-05)
(0 0 0.000117435)
(0 0 0.000352309)
(0 0 0.000587197)
(0 0 0.000822109)
(0 0 0.00105705)
(0 0 0.00129204)
(0 0 0.00152707)
(0 0 0.00176217)
(0 0 0.00199733)
(0 0 0.00223257)
(0 0 0.00246789)
(0 0 0.00270329)
(0 0 0.0029388)
(0 0 0.0031744)
(0 0 0.00341012)
(0 0 0.00364594)
(0 0 0.00388189)
(0 0 0.00411795)
(0 0 0.00435413)
(0 0 0.00459044)
(0 0 0.00482688)
(0 0 0.00506344)
(0 0 0.00530012)
(0 0 0.00553693)
(0 0 0.00577385)
(0 0 0.00601089)
(0 0 0.00624804)
(0 0 0.00648529)
(0 0 0.00672263)
(0 0 0.00696006)
(0 0 0.00719756)
(0 0 0.00743513)
(0 0 0.00767275)
(0 0 0.00791039)
(0 0 0.00814806)
(0 0 0.00838572)
(0 0 0.00862336)
(0 0 0.00886096)
(0 0 0.00909849)
(0 0 0.00933592)
(0 0 0.00957324)
(0 0 0.0098104)
(0 0 0.0100474)
(0 0 0.0102842)
(0 0 0.0105207)
(0 0 0.0107569)
(0 0 0.0109928)
(0 0 0.0112284)
(0 0 0.0114635)
(0 0 0.0116981)
(0 0 0.0119323)
(0 0 0.0121659)
(0 0 0.0123989)
(0 0 0.0126312)
(0 0 0.0128628)
(0 0 0.0130937)
(0 0 0.0133237)
(0 0 0.0135527)
(0 0 0.0137808)
(0 0 0.0140079)
(0 0 0.0142338)
(0 0 0.0144586)
(0 0 0.0146821)
(0 0 0.0149043)
(0 0 0.015125)
(0 0 0.0153443)
(0 0 0.015562)
(0 0 0.015778)
(0 0 0.0159922)
(0 0 0.0162046)
(0 0 0.0164151)
(0 0 0.0166236)
(0 0 0.0168299)
(0 0 0.0170341)
(0 0 0.0172359)
(0 0 0.0174353)
(0 0 0.0176323)
(0 0 0.0178266)
(0 0 0.0180183)
(0 0 0.0182071)
(0 0 0.0183931)
(0 0 0.018576)
(0 0 0.0187559)
(0 0 0.0189326)
(0 0 0.019106)
(0 0 0.019276)
(0 0 0.0194425)
(0 0 0.0196054)
(0 0 0.0197647)
(0 0 0.0199201)
(0 0 0.0200717)
(0 0 0.0202193)
(0 0 0.0203629)
(0 0 0.0205023)
(0 0 0.0206375)
(0 0 0.0207684)
(0 0 0.0208949)
(0 0 0.0210169)
(0 0 0.0211344)
(0 0 0.0212472)
(0 0 0.0213553)
(0 0 0.0214587)
(0 0 0.0215573)
(0 0 0.0216509)
(0 0 0.0217397)
(0 0 0.0218234)
(0 0 0.0219021)
(0 0 0.0219757)
(0 0 0.0220442)
(0 0 0.0221075)
(0 0 0.0221656)
(0 0 0.0222185)
(0 0 0.0222662)
(0 0 0.0223086)
(0 0 0.0223457)
(0 0 0.0223775)
(0 0 0.022404)
(0 0 0.0224252)
(0 0 0.0224411)
(0 0 0.0224518)
(0 0 0.0224572)
(0 0 0.0224573)
(0 0 0.0224522)
(0 0 0.0224418)
(0 0 0.0224263)
(0 0 0.0224056)
(0 0 0.0223798)
(0 0 0.022349)
(0 0 0.0223131)
(0 0 0.0222722)
(0 0 0.0222264)
(0 0 0.0221757)
(0 0 0.0221202)
(0 0 0.02206)
(0 0 0.021995)
(0 0 0.0219254)
(0 0 0.0218513)
(0 0 0.0217726)
(0 0 0.0216896)
(0 0 0.0216022)
(0 0 0.0215106)
(0 0 0.0214147)
(0 0 0.0213148)
(0 0 0.0212108)
(0 0 0.0211029)
(0 0 0.0209912)
(0 0 0.0208757)
(0 0 0.0207565)
(0 0 0.0206337)
(0 0 0.0205075)
(0 0 0.0203778)
(0 0 0.0202448)
(0 0 0.0201085)
(0 0 0.0199691)
(0 0 0.0198267)
(0 0 0.0196813)
(0 0 0.019533)
(0 0 0.0193819)
(0 0 0.0192281)
(0 0 0.0190716)
(0 0 0.0189127)
(0 0 0.0187513)
(0 0 0.0185876)
(0 0 0.0184215)
(0 0 0.0182533)
(0 0 0.018083)
(0 0 0.0179106)
(0 0 0.0177362)
(0 0 0.01756)
(0 0 0.017382)
(0 0 0.0172023)
(0 0 0.0170209)
(0 0 0.0168379)
(0 0 0.0166534)
(0 0 0.0164675)
(0 0 0.0162802)
(0 0 0.0160915)
(0 0 0.0159017)
(0 0 0.0157106)
(0 0 0.0155184)
(0 0 0.0153252)
(0 0 0.0151309)
(0 0 0.0149357)
(0 0 0.0147396)
(0 0 0.0145427)
(0 0 0.014345)
(0 0 0.0141465)
(0 0 0.0139473)
(0 0 0.0137475)
(0 0 0.013547)
(0 0 0.013346)
(0 0 0.0131445)
(0 0 0.0129425)
(0 0 0.01274)
(0 0 0.0125371)
(0 0 0.0123339)
(0 0 0.0121303)
(0 0 0.0119264)
(0 0 0.0117222)
(0 0 0.0115178)
(0 0 0.0113132)
(0 0 0.0111084)
(0 0 0.0109034)
(0 0 0.0106982)
(0 0 0.010493)
(0 0 0.0102876)