/*--------------------------------*- C++ -*----------------------------------*\
| =========                 |                                                 |
| \\      /  F ield         | OpenFOAM: The Open Source CFD Toolbox           |
|  \\    /   O peration     | Version:  v2012                                 |
|   \\  /    A nd           | Website:  www.openfoam.com                      |
|    \\/     M anipulation  |                                                 |
\*---------------------------------------------------------------------------*/
FoamFile
{
    version     2.0;
    format      ascii;
    class       volScalarField;
    location    "11.4";
    object      W;
}
// * * * * * * * * * * * * * * * * * * * * * * * * * * * * * * * * * * * * * //

dimensions      [0 0 -1 0 0 0 0];


internalField   nonuniform List<scalar> 
65536
(
5.09153e-18
1.538e-17
2.5988e-17
3.71374e-17
4.90608e-17
6.20052e-17
7.62362e-17
9.2043e-17
1.09743e-16
1.29688e-16
1.52269e-16
1.77923e-16
2.0714e-16
2.40472e-16
2.78538e-16
3.22036e-16
3.71754e-16
4.28577e-16
4.93505e-16
5.67661e-16
6.52312e-16
7.4888e-16
8.58964e-16
9.84359e-16
1.12708e-15
1.28937e-15
1.47376e-15
1.68307e-15
1.92043e-15
2.18936e-15
2.49375e-15
2.83795e-15
3.22675e-15
3.66551e-15
4.16013e-15
4.71714e-15
5.34374e-15
6.04788e-15
6.83829e-15
7.72458e-15
8.71727e-15
9.82789e-15
1.1069e-14
1.24545e-14
1.39992e-14
1.57195e-14
1.7633e-14
1.97589e-14
2.21179e-14
2.47325e-14
2.76265e-14
3.08261e-14
3.43589e-14
3.82546e-14
4.25451e-14
4.72642e-14
5.24477e-14
5.81341e-14
6.43635e-14
7.11786e-14
7.86243e-14
8.67478e-14
9.55983e-14
1.05227e-13
1.15688e-13
1.27037e-13
1.39331e-13
1.5263e-13
1.66994e-13
1.82485e-13
1.99168e-13
2.17106e-13
2.36364e-13
2.57007e-13
2.79101e-13
3.02711e-13
3.279e-13
3.54731e-13
3.83265e-13
4.1356e-13
4.45673e-13
4.79654e-13
5.15554e-13
5.53416e-13
5.93279e-13
6.35176e-13
6.79133e-13
7.2517e-13
7.733e-13
8.23526e-13
8.75844e-13
9.30239e-13
9.86687e-13
1.04515e-12
1.10559e-12
1.16795e-12
1.23215e-12
1.29812e-12
1.36577e-12
1.43498e-12
1.50564e-12
1.57763e-12
1.65078e-12
1.72495e-12
1.79998e-12
1.87566e-12
1.95182e-12
2.02825e-12
2.10472e-12
2.18102e-12
2.25689e-12
2.33211e-12
2.4064e-12
2.47951e-12
2.55116e-12
2.62108e-12
2.689e-12
2.75461e-12
2.81765e-12
2.87783e-12
2.93485e-12
2.98845e-12
3.03833e-12
3.08424e-12
3.1259e-12
3.16307e-12
3.19549e-12
3.22295e-12
3.24523e-12
3.26212e-12
3.27346e-12
3.27909e-12
3.27887e-12
3.2727e-12
3.2605e-12
3.24221e-12
3.21782e-12
3.18734e-12
3.1508e-12
3.10829e-12
3.05991e-12
3.00582e-12
2.9462e-12
2.88126e-12
2.81127e-12
2.73651e-12
2.6573e-12
2.574e-12
2.48699e-12
2.39667e-12
2.3035e-12
2.20791e-12
2.1104e-12
2.01143e-12
1.91151e-12
1.81114e-12
1.71083e-12
1.61106e-12
1.51232e-12
1.41509e-12
1.31983e-12
1.22695e-12
1.13687e-12
1.04995e-12
9.66534e-13
8.86917e-13
8.11361e-13
7.40081e-13
6.73253e-13
6.11009e-13
5.53436e-13
5.0058e-13
4.52446e-13
4.08996e-13
3.70157e-13
3.35818e-13
3.05837e-13
2.80038e-13
2.58221e-13
2.40157e-13
2.25599e-13
2.14277e-13
2.05908e-13
2.00193e-13
1.96826e-13
1.95491e-13
1.95867e-13
1.97636e-13
2.00479e-13
2.04083e-13
2.08144e-13
2.12373e-13
2.16497e-13
2.20261e-13
2.23436e-13
2.25822e-13
2.27247e-13
2.27574e-13
2.26699e-13
2.24555e-13
2.21114e-13
2.16381e-13
2.10397e-13
2.03234e-13
1.94994e-13
1.85803e-13
1.75806e-13
1.65165e-13
1.54048e-13
1.42629e-13
1.31078e-13
1.1956e-13
1.08228e-13
9.72207e-14
8.66577e-14
7.66397e-14
6.72462e-14
5.85354e-14
5.0545e-14
4.3293e-14
3.67799e-14
3.09905e-14
2.58968e-14
2.14604e-14
1.76351e-14
1.43696e-14
1.16094e-14
9.29946e-15
7.38516e-15
5.81429e-15
4.53781e-15
3.51065e-15
2.69216e-15
2.04628e-15
1.54157e-15
1.151e-15
8.51686e-16
6.24543e-16
4.53842e-16
3.26805e-16
2.33184e-16
1.64861e-16
1.15486e-16
8.01529e-17
5.51149e-17
3.75457e-17
2.53379e-17
1.69379e-17
1.12135e-17
7.34895e-18
4.76214e-18
3.04188e-18
1.89947e-18
1.13234e-18
5.96545e-19
1.85695e-19
1.76599e-17
5.33452e-17
9.01387e-17
1.2881e-16
1.70166e-16
2.15062e-16
2.64421e-16
3.19243e-16
3.80632e-16
4.49804e-16
5.28117e-16
6.17087e-16
7.18413e-16
8.34005e-16
9.66012e-16
1.11686e-15
1.28926e-15
1.4863e-15
1.71144e-15
1.96856e-15
2.26207e-15
2.59688e-15
2.97854e-15
3.41325e-15
3.908e-15
4.47057e-15
5.1097e-15
5.83513e-15
6.65775e-15
7.58968e-15
8.6444e-15
9.83692e-15
1.11839e-14
1.27037e-14
1.44167e-14
1.63456e-14
1.85151e-14
2.09528e-14
2.36886e-14
2.67556e-14
3.01902e-14
3.40321e-14
3.83244e-14
4.31146e-14
4.84542e-14
5.43989e-14
6.10095e-14
6.83516e-14
7.64961e-14
8.55196e-14
9.55044e-14
1.06539e-13
1.18717e-13
1.32142e-13
1.46919e-13
1.63165e-13
1.81002e-13
2.00558e-13
2.21971e-13
2.45383e-13
2.70947e-13
2.9882e-13
3.29168e-13
3.62163e-13
3.97984e-13
4.36816e-13
4.7885e-13
5.24283e-13
5.73314e-13
6.26149e-13
6.82995e-13
7.44062e-13
8.09561e-13
8.79702e-13
9.54695e-13
1.03475e-12
1.12006e-12
1.21083e-12
1.30725e-12
1.4095e-12
1.51774e-12
1.63214e-12
1.75284e-12
1.87996e-12
2.01361e-12
2.15388e-12
2.30082e-12
2.45449e-12
2.61489e-12
2.78201e-12
2.95581e-12
3.13619e-12
3.32307e-12
3.51628e-12
3.71565e-12
3.92095e-12
4.13194e-12
4.3483e-12
4.56971e-12
4.79578e-12
5.0261e-12
5.26021e-12
5.49761e-12
5.73776e-12
5.98007e-12
6.22395e-12
6.46873e-12
6.71372e-12
6.95821e-12
7.20145e-12
7.44265e-12
7.68102e-12
7.91571e-12
8.14589e-12
8.37069e-12
8.58922e-12
8.80061e-12
9.00396e-12
9.19838e-12
9.38298e-12
9.55688e-12
9.71921e-12
9.86913e-12
1.00058e-11
1.01284e-11
1.02363e-11
1.03286e-11
1.04048e-11
1.04641e-11
1.05061e-11
1.05302e-11
1.0536e-11
1.05231e-11
1.04913e-11
1.04404e-11
1.03703e-11
1.0281e-11
1.01725e-11
1.00452e-11
9.89918e-12
9.73499e-12
9.55313e-12
9.35421e-12
9.13899e-12
8.90831e-12
8.66311e-12
8.40445e-12
8.13348e-12
7.85142e-12
7.55958e-12
7.25936e-12
6.95219e-12
6.63956e-12
6.32301e-12
6.00409e-12
5.68436e-12
5.36537e-12
5.04867e-12
4.73576e-12
4.4281e-12
4.12706e-12
3.83398e-12
3.55008e-12
3.27648e-12
3.0142e-12
2.76414e-12
2.52707e-12
2.30363e-12
2.09434e-12
1.89956e-12
1.71954e-12
1.55439e-12
1.40409e-12
1.26849e-12
1.14735e-12
1.04029e-12
9.46837e-13
8.66439e-13
7.98446e-13
7.42138e-13
6.96727e-13
6.6137e-13
6.35175e-13
6.17211e-13
6.06518e-13
6.02115e-13
6.03011e-13
6.08211e-13
6.16731e-13
6.27604e-13
6.39895e-13
6.52708e-13
6.65201e-13
6.76595e-13
6.86187e-13
6.93357e-13
6.97582e-13
6.98439e-13
6.95614e-13
6.88905e-13
6.78222e-13
6.63584e-13
6.45119e-13
6.2305e-13
5.9769e-13
5.69427e-13
5.38707e-13
5.06023e-13
4.71895e-13
4.36851e-13
4.01417e-13
3.66095e-13
3.31353e-13
2.97615e-13
2.65246e-13
2.34554e-13
2.05782e-13
1.79105e-13
1.5464e-13
1.32439e-13
1.12502e-13
9.47843e-14
7.91976e-14
6.56241e-14
5.39219e-14
4.39333e-14
3.54915e-14
2.84273e-14
2.25738e-14
1.77709e-14
1.38684e-14
1.07285e-14
8.22666e-15
6.2526e-15
4.71012e-15
3.51656e-15
2.60195e-15
1.90792e-15
1.38637e-15
9.98263e-16
7.12255e-16
5.03543e-16
3.52721e-16
2.44796e-16
1.68322e-16
1.14662e-16
7.73777e-17
5.1724e-17
3.42425e-17
2.24408e-17
1.45414e-17
9.28838e-18
5.79996e-18
3.45754e-18
1.82151e-18
5.67019e-19
3.83697e-17
1.15903e-16
1.95844e-16
2.79865e-16
3.69717e-16
4.6726e-16
5.74495e-16
6.936e-16
8.26966e-16
9.7724e-16
1.14737e-15
1.34064e-15
1.56075e-15
1.81185e-15
2.09859e-15
2.42624e-15
2.80071e-15
3.22868e-15
3.71764e-15
4.27606e-15
4.91345e-15
5.6405e-15
6.46921e-15
7.41307e-15
8.48716e-15
9.7084e-15
1.10957e-14
1.26701e-14
1.44553e-14
1.64773e-14
1.87655e-14
2.13522e-14
2.42733e-14
2.75686e-14
3.12823e-14
3.54628e-14
4.01637e-14
4.54441e-14
5.13688e-14
5.80088e-14
6.5442e-14
7.37537e-14
8.30365e-14
9.33919e-14
1.0493e-13
1.1777e-13
1.32041e-13
1.47883e-13
1.65447e-13
1.84895e-13
2.06402e-13
2.30155e-13
2.56352e-13
2.85209e-13
3.16951e-13
3.5182e-13
3.9007e-13
4.31971e-13
4.77808e-13
5.27877e-13
5.82492e-13
6.41978e-13
7.06674e-13
7.76933e-13
8.53118e-13
9.35604e-13
1.02477e-12
1.12102e-12
1.22475e-12
1.33636e-12
1.45625e-12
1.58485e-12
1.72255e-12
1.86976e-12
2.02687e-12
2.19428e-12
2.37234e-12
2.56143e-12
2.76187e-12
2.97399e-12
3.19806e-12
3.43434e-12
3.68305e-12
3.94436e-12
4.21843e-12
4.50534e-12
4.80513e-12
5.11779e-12
5.44324e-12
5.78136e-12
6.13195e-12
6.49475e-12
6.86942e-12
7.25558e-12
7.65273e-12
8.06032e-12
8.47775e-12
8.90429e-12
9.33918e-12
9.78155e-12
1.02305e-11
1.0685e-11
1.11439e-11
1.16063e-11
1.20707e-11
1.2536e-11
1.30008e-11
1.34637e-11
1.39233e-11
1.43781e-11
1.48266e-11
1.52672e-11
1.56984e-11
1.61184e-11
1.65258e-11
1.69188e-11
1.72958e-11
1.76552e-11
1.79954e-11
1.83149e-11
1.8612e-11
1.88853e-11
1.91333e-11
1.93547e-11
1.9548e-11
1.97121e-11
1.98458e-11
1.99481e-11
2.00179e-11
2.00545e-11
2.00571e-11
2.00253e-11
1.99585e-11
1.98565e-11
1.97191e-11
1.95464e-11
1.93387e-11
1.90964e-11
1.88199e-11
1.85102e-11
1.81681e-11
1.77948e-11
1.73917e-11
1.69602e-11
1.65021e-11
1.60193e-11
1.55137e-11
1.49876e-11
1.44433e-11
1.38833e-11
1.33101e-11
1.27265e-11
1.21351e-11
1.15387e-11
1.09401e-11
1.03421e-11
9.74755e-12
9.15911e-12
8.57943e-12
8.01107e-12
7.45644e-12
6.91781e-12
6.39729e-12
5.89679e-12
5.41802e-12
4.96247e-12
4.53141e-12
4.12587e-12
3.74664e-12
3.39427e-12
3.06907e-12
2.77114e-12
2.50034e-12
2.2563e-12
2.03848e-12
1.84613e-12
1.67834e-12
1.53403e-12
1.41198e-12
1.31087e-12
1.22922e-12
1.16552e-12
1.11812e-12
1.08536e-12
1.06551e-12
1.0568e-12
1.05748e-12
1.06577e-12
1.07992e-12
1.09825e-12
1.11908e-12
1.14085e-12
1.16208e-12
1.18141e-12
1.1976e-12
1.20959e-12
1.21645e-12
1.21745e-12
1.21206e-12
1.19992e-12
1.18089e-12
1.15499e-12
1.12247e-12
1.08372e-12
1.03927e-12
9.89821e-13
9.36138e-13
8.79082e-13
8.19558e-13
7.58485e-13
6.96774e-13
6.35295e-13
5.7486e-13
5.16199e-13
4.59946e-13
4.0663e-13
3.56668e-13
3.10363e-13
2.6791e-13
2.294e-13
1.94829e-13
1.64113e-13
1.371e-13
1.13582e-13
9.33113e-14
7.60132e-14
6.13973e-14
4.91691e-14
3.90387e-14
3.07281e-14
2.39769e-14
1.85458e-14
1.42192e-14
1.08058e-14
8.13914e-15
6.07597e-15
4.49522e-15
3.29584e-15
2.39467e-15
1.72413e-15
1.23005e-15
8.69539e-16
6.09047e-16
4.22662e-16
2.90603e-16
1.97948e-16
1.33575e-16
8.9285e-17
5.9106e-17
3.87335e-17
2.5098e-17
1.60309e-17
1.00099e-17
5.96712e-18
3.14359e-18
9.78574e-19
7.62795e-17
2.30417e-16
3.89342e-16
5.56377e-16
7.35003e-16
9.28919e-16
1.1421e-15
1.37888e-15
1.644e-15
1.94274e-15
2.28094e-15
2.66515e-15
3.10271e-15
3.60185e-15
4.17184e-15
4.82313e-15
5.56748e-15
6.41813e-15
7.38999e-15
8.49986e-15
9.76662e-15
1.12115e-14
1.28583e-14
1.47337e-14
1.68678e-14
1.9294e-14
2.20498e-14
2.5177e-14
2.87222e-14
3.27374e-14
3.72802e-14
4.24147e-14
4.82119e-14
5.47505e-14
6.21172e-14
7.0408e-14
7.97283e-14
9.01944e-14
1.01934e-13
1.15086e-13
1.29803e-13
1.46253e-13
1.64618e-13
1.85095e-13
2.07898e-13
2.33262e-13
2.61437e-13
2.92695e-13
3.27328e-13
3.65652e-13
4.08001e-13
4.54737e-13
5.06243e-13
5.62929e-13
6.25227e-13
6.93598e-13
7.68525e-13
8.5052e-13
9.40117e-13
1.03788e-12
1.14438e-12
1.26024e-12
1.38608e-12
1.52256e-12
1.67033e-12
1.83008e-12
2.00251e-12
2.18831e-12
2.38822e-12
2.60292e-12
2.83315e-12
3.07961e-12
3.34298e-12
3.62395e-12
3.92318e-12
4.24129e-12
4.57887e-12
4.93648e-12
5.31461e-12
5.71373e-12
6.1342e-12
6.57635e-12
7.04042e-12
7.52657e-12
8.03486e-12
8.56527e-12
9.11768e-12
9.69184e-12
1.02874e-11
1.09039e-11
1.15407e-11
1.21972e-11
1.28725e-11
1.35656e-11
1.42754e-11
1.50007e-11
1.57401e-11
1.64921e-11
1.72552e-11
1.80275e-11
1.88071e-11
1.95922e-11
2.03807e-11
2.11703e-11
2.19587e-11
2.27437e-11
2.35227e-11
2.42932e-11
2.50528e-11
2.57987e-11
2.65284e-11
2.72391e-11
2.79282e-11
2.85931e-11
2.9231e-11
2.98393e-11
3.04155e-11
3.0957e-11
3.14613e-11
3.19261e-11
3.2349e-11
3.27279e-11
3.30607e-11
3.33455e-11
3.35804e-11
3.37638e-11
3.38943e-11
3.39707e-11
3.39917e-11
3.39567e-11
3.38648e-11
3.37157e-11
3.35092e-11
3.32454e-11
3.29246e-11
3.25473e-11
3.21145e-11
3.16273e-11
3.10871e-11
3.04956e-11
2.98548e-11
2.91669e-11
2.84344e-11
2.76602e-11
2.68472e-11
2.59988e-11
2.51185e-11
2.421e-11
2.32771e-11
2.23239e-11
2.13547e-11
2.03736e-11
1.9385e-11
1.83934e-11
1.74031e-11
1.64184e-11
1.54436e-11
1.44828e-11
1.35401e-11
1.26192e-11
1.17238e-11
1.08572e-11
1.00223e-11
9.222e-12
8.45865e-12
7.73431e-12
7.05068e-12
6.4091e-12
5.81053e-12
5.25556e-12
4.74444e-12
4.27704e-12
3.85292e-12
3.47131e-12
3.13114e-12
2.83109e-12
2.56956e-12
2.34474e-12
2.15461e-12
1.99699e-12
1.86954e-12
1.76978e-12
1.69517e-12
1.64305e-12
1.61073e-12
1.59548e-12
1.59458e-12
1.6053e-12
1.62498e-12
1.65101e-12
1.68088e-12
1.71222e-12
1.7428e-12
1.77055e-12
1.79364e-12
1.81046e-12
1.81964e-12
1.82009e-12
1.81103e-12
1.79194e-12
1.7626e-12
1.72309e-12
1.67376e-12
1.61521e-12
1.54826e-12
1.47393e-12
1.39339e-12
1.30791e-12
1.21885e-12
1.12757e-12
1.03543e-12
9.43711e-13
8.53622e-13
7.66241e-13
6.82503e-13
6.03185e-13
5.289e-13
4.60089e-13
3.97033e-13
3.39861e-13
2.88559e-13
2.42999e-13
2.02946e-13
1.68089e-13
1.38055e-13
1.12435e-13
9.07946e-14
7.26949e-14
5.77048e-14
4.5411e-14
3.54267e-14
2.73968e-14
2.10013e-14
1.59571e-14
1.20171e-14
8.96944e-15
6.63489e-15
4.86391e-15
3.53349e-15
2.54373e-15
1.81456e-15
1.28258e-15
8.98255e-16
6.233e-16
4.28511e-16
2.9186e-16
1.9693e-16
1.31624e-16
8.71281e-17
5.70935e-17
3.69927e-17
2.36273e-17
1.47527e-17
8.79414e-18
4.63283e-18
1.44216e-18
1.47216e-16
4.44696e-16
7.51417e-16
1.07379e-15
1.41855e-15
1.79281e-15
2.20427e-15
2.66128e-15
3.17301e-15
3.74963e-15
4.40243e-15
5.14404e-15
5.98864e-15
6.95211e-15
8.05236e-15
9.30954e-15
1.07463e-14
1.23883e-14
1.42642e-14
1.64065e-14
1.88515e-14
2.16402e-14
2.48185e-14
2.8438e-14
3.25562e-14
3.72379e-14
4.2555e-14
4.85882e-14
5.5427e-14
6.31714e-14
7.19322e-14
8.18324e-14
9.30085e-14
1.05611e-13
1.19807e-13
1.3578e-13
1.53731e-13
1.73883e-13
1.9648e-13
2.21787e-13
2.50097e-13
2.81726e-13
3.17021e-13
3.56358e-13
4.00143e-13
4.48818e-13
5.02857e-13
5.62774e-13
6.29118e-13
7.0248e-13
7.83491e-13
8.72825e-13
9.71196e-13
1.07937e-12
1.19814e-12
1.32836e-12
1.47093e-12
1.62678e-12
1.79688e-12
1.98226e-12
2.18398e-12
2.40312e-12
2.64082e-12
2.89823e-12
3.17653e-12
3.47692e-12
3.80061e-12
4.14881e-12
4.52275e-12
4.92364e-12
5.35266e-12
5.81097e-12
6.29971e-12
6.81994e-12
7.3727e-12
7.95892e-12
8.57947e-12
9.23512e-12
9.92654e-12
1.06543e-11
1.14187e-11
1.22201e-11
1.30586e-11
1.39342e-11
1.48465e-11
1.57953e-11
1.67798e-11
1.77992e-11
1.88525e-11
1.99384e-11
2.10555e-11
2.2202e-11
2.33761e-11
2.45755e-11
2.5798e-11
2.70408e-11
2.83013e-11
2.95764e-11
3.08629e-11
3.21574e-11
3.34563e-11
3.4756e-11
3.60526e-11
3.7342e-11
3.86203e-11
3.98832e-11
4.11264e-11
4.23457e-11
4.35367e-11
4.46951e-11
4.58165e-11
4.68967e-11
4.79313e-11
4.89163e-11
4.98476e-11
5.07211e-11
5.15332e-11
5.22802e-11
5.29585e-11
5.3565e-11
5.40965e-11
5.45503e-11
5.49237e-11
5.52144e-11
5.54205e-11
5.55401e-11
5.55719e-11
5.55148e-11
5.53679e-11
5.5131e-11
5.48038e-11
5.43867e-11
5.38805e-11
5.32861e-11
5.26049e-11
5.1839e-11
5.09904e-11
5.00617e-11
4.90561e-11
4.79769e-11
4.68279e-11
4.56132e-11
4.43373e-11
4.30051e-11
4.16217e-11
4.01925e-11
3.87234e-11
3.72201e-11
3.56889e-11
3.41361e-11
3.25681e-11
3.09915e-11
2.94126e-11
2.7838e-11
2.62742e-11
2.47275e-11
2.32039e-11
2.17094e-11
2.02496e-11
1.88298e-11
1.74548e-11
1.61292e-11
1.48569e-11
1.36417e-11
1.24865e-11
1.13938e-11
1.03657e-11
9.4037e-12
8.5086e-12
7.68085e-12
6.92034e-12
6.22644e-12
5.59809e-12
5.03376e-12
4.53154e-12
4.08913e-12
3.70391e-12
3.37296e-12
3.09311e-12
2.86094e-12
2.67288e-12
2.5252e-12
2.41405e-12
2.33549e-12
2.28555e-12
2.26024e-12
2.25556e-12
2.2676e-12
2.29249e-12
2.32651e-12
2.36608e-12
2.40781e-12
2.44854e-12
2.48538e-12
2.51573e-12
2.53734e-12
2.5483e-12
2.54712e-12
2.53269e-12
2.50432e-12
2.46174e-12
2.40506e-12
2.33478e-12
2.25178e-12
2.1572e-12
2.05249e-12
1.93928e-12
1.81935e-12
1.69459e-12
1.5669e-12
1.43815e-12
1.31014e-12
1.18452e-12
1.06279e-12
9.46233e-13
8.35911e-13
7.32662e-13
6.37086e-13
5.4956e-13
4.70246e-13
3.99118e-13
3.35982e-13
2.80507e-13
2.32251e-13
1.90693e-13
1.55256e-13
1.25337e-13
1.00322e-13
7.9613e-14
6.26351e-14
4.88513e-14
3.77692e-14
2.89457e-14
2.19883e-14
1.65556e-14
1.23544e-14
9.13701e-15
6.69693e-15
4.86426e-15
3.50116e-15
2.49714e-15
1.76479e-15
1.2358e-15
8.57409e-16
5.89386e-16
4.01388e-16
2.70805e-16
1.80983e-16
1.19791e-16
7.84911e-17
5.08534e-17
3.24783e-17
2.02782e-17
1.20875e-17
6.36763e-18
1.98217e-18
2.79519e-16
8.44344e-16
1.42673e-15
2.03885e-15
2.69348e-15
3.40418e-15
4.18555e-15
5.05344e-15
6.02531e-15
7.12046e-15
8.36036e-15
9.76901e-15
1.13733e-14
1.32035e-14
1.52936e-14
1.76819e-14
2.04114e-14
2.35309e-14
2.70948e-14
3.11647e-14
3.58099e-14
4.11079e-14
4.7146e-14
5.40221e-14
6.18454e-14
7.07386e-14
8.08385e-14
9.22975e-14
1.05286e-13
1.19992e-13
1.36627e-13
1.55423e-13
1.76638e-13
2.00556e-13
2.27494e-13
2.57796e-13
2.91845e-13
3.30058e-13
3.72894e-13
4.20854e-13
4.74485e-13
5.34385e-13
6.012e-13
6.75633e-13
7.58447e-13
8.50462e-13
9.52565e-13
1.06571e-12
1.19091e-12
1.32927e-12
1.48195e-12
1.65019e-12
1.83531e-12
2.03869e-12
2.26182e-12
2.50623e-12
2.77354e-12
3.06545e-12
3.38372e-12
3.73016e-12
4.10668e-12
4.5152e-12
4.95772e-12
5.43625e-12
5.95285e-12
6.50958e-12
7.10852e-12
7.75172e-12
8.44122e-12
9.17901e-12
9.96704e-12
1.08072e-11
1.17011e-11
1.26506e-11
1.36571e-11
1.47219e-11
1.58462e-11
1.7031e-11
1.8277e-11
1.95847e-11
2.09543e-11
2.23857e-11
2.38786e-11
2.54321e-11
2.70454e-11
2.87168e-11
3.04448e-11
3.22271e-11
3.40611e-11
3.59439e-11
3.78722e-11
3.98424e-11
4.18502e-11
4.38912e-11
4.59606e-11
4.80533e-11
5.01636e-11
5.22859e-11
5.4414e-11
5.65415e-11
5.8662e-11
6.07686e-11
6.28545e-11
6.49126e-11
6.69357e-11
6.89168e-11
7.08486e-11
7.2724e-11
7.45359e-11
7.62773e-11
7.79414e-11
7.95216e-11
8.10114e-11
8.24046e-11
8.36954e-11
8.48781e-11
8.59476e-11
8.68989e-11
8.77276e-11
8.84296e-11
8.90013e-11
8.94396e-11
8.97417e-11
8.99056e-11
8.99294e-11
8.98122e-11
8.95531e-11
8.91522e-11
8.86098e-11
8.7927e-11
8.71054e-11
8.61469e-11
8.50544e-11
8.38309e-11
8.24802e-11
8.10067e-11
7.94152e-11
7.7711e-11
7.59e-11
7.39885e-11
7.19834e-11
6.9892e-11
6.77218e-11
6.54811e-11
6.31782e-11
6.08219e-11
5.84212e-11
5.59853e-11
5.35236e-11
5.10456e-11
4.85609e-11
4.6079e-11
4.36093e-11
4.11611e-11
3.87436e-11
3.63655e-11
3.40351e-11
3.17607e-11
2.95496e-11
2.74088e-11
2.53447e-11
2.3363e-11
2.14688e-11
1.96663e-11
1.79592e-11
1.63501e-11
1.48412e-11
1.34336e-11
1.2128e-11
1.0924e-11
9.82077e-12
8.81666e-12
7.90947e-12
7.0964e-12
6.37411e-12
5.7388e-12
5.18626e-12
4.7119e-12
4.31082e-12
3.97787e-12
3.7077e-12
3.49478e-12
3.33348e-12
3.21811e-12
3.14295e-12
3.1023e-12
3.0905e-12
3.10204e-12
3.13151e-12
3.17373e-12
3.22373e-12
3.27684e-12
3.32872e-12
3.37542e-12
3.41341e-12
3.43964e-12
3.45154e-12
3.4471e-12
3.42485e-12
3.38388e-12
3.32386e-12
3.24498e-12
3.14796e-12
3.03397e-12
2.90461e-12
2.76183e-12
2.60785e-12
2.44507e-12
2.27604e-12
2.10331e-12
1.92939e-12
1.75669e-12
1.5874e-12
1.42353e-12
1.26676e-12
1.11851e-12
9.79887e-13
8.51664e-13
7.34325e-13
6.28069e-13
5.32842e-13
4.48367e-13
3.74186e-13
3.09695e-13
2.54184e-13
2.06874e-13
1.66948e-13
1.33584e-13
1.05975e-13
8.33489e-14
6.49872e-14
5.02302e-14
3.84849e-14
2.9227e-14
2.20002e-14
1.64134e-14
1.21362e-14
8.8932e-15
6.45817e-15
4.64749e-15
3.31413e-15
2.34177e-15
1.63956e-15
1.13737e-15
7.81722e-16
5.32304e-16
3.59088e-16
2.39957e-16
1.5881e-16
1.04048e-16
6.7406e-17
4.3047e-17
2.68754e-17
1.60192e-17
8.4386e-18
2.6268e-18
5.23812e-16
1.58229e-15
2.6737e-15
3.8209e-15
5.04784e-15
6.37995e-15
7.84461e-15
9.47161e-15
1.12937e-14
1.3347e-14
1.56719e-14
1.83134e-14
2.13221e-14
2.47546e-14
2.86748e-14
3.31546e-14
3.82748e-14
4.41266e-14
5.08126e-14
5.84482e-14
6.71632e-14
7.71033e-14
8.84322e-14
1.01333e-13
1.16012e-13
1.32697e-13
1.51646e-13
1.73145e-13
1.9751e-13
2.25098e-13
2.563e-13
2.91553e-13
3.31338e-13
3.76188e-13
4.26691e-13
4.83492e-13
5.47303e-13
6.18904e-13
6.99147e-13
7.88966e-13
8.89376e-13
1.00149e-12
1.12649e-12
1.2657e-12
1.42052e-12
1.59247e-12
1.78317e-12
1.99438e-12
2.22798e-12
2.48597e-12
2.77048e-12
3.08377e-12
3.42823e-12
3.8064e-12
4.22093e-12
4.67461e-12
5.17034e-12
5.71115e-12
6.30018e-12
6.94066e-12
7.63593e-12
8.38937e-12
9.20446e-12
1.00847e-11
1.10336e-11
1.20547e-11
1.31514e-11
1.43273e-11
1.55856e-11
1.69296e-11
1.83624e-11
1.98869e-11
2.15057e-11
2.32212e-11
2.50356e-11
2.69506e-11
2.89676e-11
3.10876e-11
3.3311e-11
3.56379e-11
3.80677e-11
4.05994e-11
4.32312e-11
4.59609e-11
4.87856e-11
5.17015e-11
5.47045e-11
5.77895e-11
6.0951e-11
6.41826e-11
6.74774e-11
7.08276e-11
7.42252e-11
7.7661e-11
8.11259e-11
8.46097e-11
8.81022e-11
9.15923e-11
9.5069e-11
9.85207e-11
1.01936e-10
1.05302e-10
1.08607e-10
1.1184e-10
1.14987e-10
1.18038e-10
1.2098e-10
1.23802e-10
1.26492e-10
1.29041e-10
1.31437e-10
1.3367e-10
1.35732e-10
1.37613e-10
1.39305e-10
1.40802e-10
1.42096e-10
1.43182e-10
1.44054e-10
1.44709e-10
1.45142e-10
1.45352e-10
1.45336e-10
1.45094e-10
1.44625e-10
1.43931e-10
1.43013e-10
1.41873e-10
1.40516e-10
1.38945e-10
1.37165e-10
1.35183e-10
1.33004e-10
1.30636e-10
1.28088e-10
1.25367e-10
1.22484e-10
1.19448e-10
1.1627e-10
1.12962e-10
1.09535e-10
1.06001e-10
1.02373e-10
9.86649e-11
9.48891e-11
9.10594e-11
8.71899e-11
8.32944e-11
7.93869e-11
7.54814e-11
7.15916e-11
6.77312e-11
6.39135e-11
6.01515e-11
5.64574e-11
5.28433e-11
4.93203e-11
4.58989e-11
4.25888e-11
3.93988e-11
3.63368e-11
3.34096e-11
3.0623e-11
2.79819e-11
2.54899e-11
2.31495e-11
2.09625e-11
1.89291e-11
1.70488e-11
1.53201e-11
1.37405e-11
1.23065e-11
1.10141e-11
9.85833e-12
8.83356e-12
7.93365e-12
7.15197e-12
6.48142e-12
5.91458e-12
5.44374e-12
5.06101e-12
4.75833e-12
4.52758e-12
4.36061e-12
4.24931e-12
4.18566e-12
4.16177e-12
4.16997e-12
4.20282e-12
4.2532e-12
4.31435e-12
4.37993e-12
4.44408e-12
4.50149e-12
4.54745e-12
4.57788e-12
4.58939e-12
4.57934e-12
4.54582e-12
4.48766e-12
4.40446e-12
4.29653e-12
4.16485e-12
4.01103e-12
3.8372e-12
3.64598e-12
3.44031e-12
3.2234e-12
2.99858e-12
2.76923e-12
2.53866e-12
2.31001e-12
2.08616e-12
1.86971e-12
1.66287e-12
1.46747e-12
1.28491e-12
1.11619e-12
9.61924e-13
8.22334e-13
6.97323e-13
5.86503e-13
4.8925e-13
4.04753e-13
3.32065e-13
2.70151e-13
2.17928e-13
1.74311e-13
1.38233e-13
1.08683e-13
8.47116e-14
6.54546e-14
5.01339e-14
3.80625e-14
2.86429e-14
2.13635e-14
1.57922e-14
1.15695e-14
8.39972e-15
6.04337e-15
4.30864e-15
3.0439e-15
2.13076e-15
1.47787e-15
1.01559e-15
6.9145e-16
4.66383e-16
3.11618e-16
2.06214e-16
1.35092e-16
8.751e-17
5.58816e-17
3.48861e-17
2.0793e-17
1.0953e-17
3.40944e-18
9.69633e-16
2.92902e-15
4.94945e-15
7.07328e-15
9.34492e-15
1.18115e-14
1.45238e-14
1.75371e-14
2.0912e-14
2.47157e-14
2.9023e-14
3.39174e-14
3.94926e-14
4.5854e-14
5.31198e-14
6.14235e-14
7.09152e-14
8.1764e-14
9.41603e-14
1.08318e-13
1.24479e-13
1.42912e-13
1.63922e-13
1.87848e-13
2.15072e-13
2.46018e-13
2.81163e-13
3.21037e-13
3.66228e-13
4.17393e-13
4.7526e-13
5.40635e-13
6.14409e-13
6.97568e-13
7.91197e-13
8.96491e-13
1.01476e-12
1.14745e-12
1.29612e-12
1.46249e-12
1.64844e-12
1.856e-12
2.08737e-12
2.34494e-12
2.63129e-12
2.94918e-12
3.30161e-12
3.69176e-12
4.12304e-12
4.5991e-12
5.12378e-12
5.70118e-12
6.33563e-12
7.03165e-12
7.79401e-12
8.62769e-12
9.53786e-12
1.05299e-11
1.16093e-11
1.27819e-11
1.40533e-11
1.54295e-11
1.69165e-11
1.85203e-11
2.02469e-11
2.21022e-11
2.4092e-11
2.62219e-11
2.84975e-11
3.09237e-11
3.35055e-11
3.62472e-11
3.91527e-11
4.22254e-11
4.54679e-11
4.88823e-11
5.24699e-11
5.6231e-11
6.01652e-11
6.4271e-11
6.8546e-11
7.29867e-11
7.75883e-11
8.23453e-11
8.72505e-11
9.22958e-11
9.74719e-11
1.02768e-10
1.08173e-10
1.13674e-10
1.19256e-10
1.24905e-10
1.30605e-10
1.36338e-10
1.42088e-10
1.47834e-10
1.53559e-10
1.59242e-10
1.64864e-10
1.70403e-10
1.7584e-10
1.81153e-10
1.86323e-10
1.91328e-10
1.9615e-10
2.00768e-10
2.05164e-10
2.0932e-10
2.13218e-10
2.16843e-10
2.2018e-10
2.23213e-10
2.25932e-10
2.28323e-10
2.30377e-10
2.32086e-10
2.33441e-10
2.34437e-10
2.3507e-10
2.35337e-10
2.35236e-10
2.34768e-10
2.33933e-10
2.32735e-10
2.31178e-10
2.29267e-10
2.27011e-10
2.24416e-10
2.21493e-10
2.18252e-10
2.14704e-10
2.10863e-10
2.06743e-10
2.02358e-10
1.97724e-10
1.92857e-10
1.87775e-10
1.82495e-10
1.77037e-10
1.71419e-10
1.6566e-10
1.59782e-10
1.53804e-10
1.47747e-10
1.41631e-10
1.35477e-10
1.29307e-10
1.23139e-10
1.16996e-10
1.10897e-10
1.04861e-10
9.89074e-11
9.30543e-11
8.73192e-11
8.17186e-11
7.62681e-11
7.09821e-11
6.58737e-11
6.09548e-11
5.62361e-11
5.17266e-11
4.7434e-11
4.33644e-11
3.95223e-11
3.59109e-11
3.25318e-11
2.93849e-11
2.64689e-11
2.37812e-11
2.13175e-11
1.90728e-11
1.70405e-11
1.52133e-11
1.35829e-11
1.21402e-11
1.08755e-11
9.77835e-12
8.83801e-12
8.04334e-12
7.38293e-12
6.84522e-12
6.41858e-12
6.09137e-12
5.85203e-12
5.68916e-12
5.59155e-12
5.54829e-12
5.54881e-12
5.58294e-12
5.641e-12
5.71385e-12
5.79298e-12
5.87055e-12
5.93949e-12
5.99354e-12
6.02736e-12
6.0365e-12
6.01752e-12
5.96796e-12
5.88635e-12
5.77222e-12
5.62604e-12
5.44915e-12
5.24371e-12
5.01257e-12
4.75917e-12
4.48739e-12
4.20143e-12
3.90565e-12
3.60446e-12
3.30214e-12
3.00277e-12
2.71007e-12
2.42738e-12
2.15755e-12
1.9029e-12
1.66522e-12
1.44577e-12
1.24528e-12
1.06401e-12
9.01803e-13
7.58113e-13
6.32102e-13
5.22692e-13
4.28632e-13
3.48561e-13
2.81064e-13
2.24719e-13
1.7814e-13
1.40006e-13
1.09087e-13
8.42594e-14
6.45157e-14
4.89658e-14
3.68367e-14
2.74669e-14
2.02984e-14
1.48668e-14
1.0791e-14
7.76196e-15
5.53268e-15
3.90782e-15
2.73497e-15
1.89659e-15
1.30311e-15
8.87069e-16
5.98241e-16
3.99667e-16
2.64449e-16
1.73224e-16
1.122e-16
7.16423e-17
4.47223e-17
2.66543e-17
1.404e-17
4.37028e-18
1.7734e-15
5.35708e-15
9.05259e-15
1.29375e-14
1.70933e-14
2.16063e-14
2.65695e-14
3.20842e-14
3.82617e-14
4.52251e-14
5.31115e-14
6.20742e-14
7.2285e-14
8.39372e-14
9.72478e-14
1.12462e-13
1.29854e-13
1.49736e-13
1.72456e-13
1.98408e-13
2.28034e-13
2.61829e-13
3.00351e-13
3.44223e-13
3.94146e-13
4.50899e-13
5.15354e-13
5.88483e-13
6.71368e-13
7.65211e-13
8.71345e-13
9.91247e-13
1.12655e-12
1.27906e-12
1.45076e-12
1.64383e-12
1.86067e-12
2.10391e-12
2.37642e-12
2.68132e-12
3.02203e-12
3.40225e-12
3.82598e-12
4.29757e-12
4.82168e-12
5.40333e-12
6.04793e-12
6.76124e-12
7.5494e-12
8.41897e-12
9.37686e-12
1.04304e-11
1.15873e-11
1.28557e-11
1.42441e-11
1.57612e-11
1.74161e-11
1.92185e-11
2.11778e-11
2.33041e-11
2.56073e-11
2.80978e-11
3.07857e-11
3.36812e-11
3.67944e-11
4.01351e-11
4.3713e-11
4.75372e-11
5.16163e-11
5.59585e-11
6.05709e-11
6.546e-11
7.06312e-11
7.60888e-11
8.18358e-11
8.7874e-11
9.42035e-11
1.00823e-10
1.07729e-10
1.14917e-10
1.2238e-10
1.30108e-10
1.38092e-10
1.46319e-10
1.54772e-10
1.63436e-10
1.7229e-10
1.81314e-10
1.90484e-10
1.99776e-10
2.09161e-10
2.18613e-10
2.28099e-10
2.37589e-10
2.4705e-10
2.56449e-10
2.6575e-10
2.74919e-10
2.83921e-10
2.9272e-10
3.01281e-10
3.09569e-10
3.1755e-10
3.2519e-10
3.32459e-10
3.39325e-10
3.45759e-10
3.51733e-10
3.57223e-10
3.62205e-10
3.66659e-10
3.70565e-10
3.73907e-10
3.76672e-10
3.78849e-10
3.80428e-10
3.81406e-10
3.81777e-10
3.81543e-10
3.80704e-10
3.79265e-10
3.77234e-10
3.74619e-10
3.71431e-10
3.67686e-10
3.63397e-10
3.58584e-10
3.53265e-10
3.47461e-10
3.41196e-10
3.34492e-10
3.27376e-10
3.19874e-10
3.12013e-10
3.03823e-10
2.95332e-10
2.8657e-10
2.77569e-10
2.68358e-10
2.5897e-10
2.49436e-10
2.39788e-10
2.30057e-10
2.20275e-10
2.10472e-10
2.00681e-10
1.90931e-10
1.81251e-10
1.71671e-10
1.62219e-10
1.52921e-10
1.43802e-10
1.34888e-10
1.26201e-10
1.17762e-10
1.09591e-10
1.01706e-10
9.4121e-11
8.68516e-11
7.99089e-11
7.33026e-11
6.70402e-11
6.1127e-11
5.55662e-11
5.03588e-11
4.55039e-11
4.09984e-11
3.68374e-11
3.30142e-11
2.95204e-11
2.63461e-11
2.34799e-11
2.09095e-11
1.8621e-11
1.66002e-11
1.48316e-11
1.32995e-11
1.19877e-11
1.08794e-11
9.958e-12
9.20672e-12
8.6088e-12
8.1477e-12
7.80709e-12
7.57103e-12
7.42395e-12
7.3508e-12
7.33712e-12
7.36906e-12
7.43355e-12
7.51828e-12
7.61186e-12
7.70389e-12
7.78499e-12
7.84694e-12
7.88271e-12
7.88655e-12
7.85399e-12
7.78188e-12
7.66839e-12
7.51298e-12
7.31635e-12
7.08032e-12
6.80777e-12
6.50245e-12
6.16889e-12
5.81215e-12
5.4377e-12
5.05121e-12
4.65836e-12
4.26468e-12
3.87541e-12
3.49535e-12
3.12873e-12
2.77919e-12
2.44967e-12
2.14243e-12
1.85901e-12
1.60031e-12
1.36662e-12
1.15766e-12
9.72701e-13
8.10617e-13
6.69984e-13
5.4916e-13
4.46372e-13
3.59776e-13
2.8753e-13
2.27838e-13
1.78995e-13
1.39413e-13
1.07644e-13
8.23924e-14
6.25128e-14
4.7013e-14
3.50441e-14
2.58905e-14
1.89573e-14
1.37564e-14
9.89254e-15
7.04969e-15
4.97821e-15
3.48339e-15
2.41513e-15
1.65909e-15
1.12921e-15
7.61422e-16
5.08613e-16
3.36493e-16
2.20391e-16
1.42737e-16
9.11329e-17
5.68852e-17
3.39014e-17
1.78567e-17
5.55822e-18
3.2049e-15
9.68148e-15
1.63606e-14
2.33828e-14
3.08955e-14
3.90552e-14
4.80305e-14
5.80048e-14
6.91798e-14
8.17789e-14
9.60506e-14
1.12273e-13
1.30758e-13
1.51855e-13
1.75959e-13
2.03514e-13
2.35021e-13
2.71041e-13
3.1221e-13
3.59242e-13
4.12937e-13
4.74199e-13
5.44037e-13
6.23584e-13
7.1411e-13
8.17031e-13
9.33931e-13
1.06657e-12
1.21692e-12
1.38715e-12
1.57968e-12
1.79719e-12
2.04265e-12
2.31931e-12
2.63078e-12
2.98101e-12
3.37433e-12
3.8155e-12
4.3097e-12
4.86259e-12
5.48032e-12
6.16955e-12
6.93752e-12
7.79201e-12
8.74144e-12
9.79482e-12
1.09618e-11
1.22528e-11
1.36786e-11
1.52511e-11
1.69825e-11
1.88859e-11
2.09749e-11
2.32639e-11
2.57677e-11
2.8502e-11
3.14825e-11
3.4726e-11
3.82491e-11
4.2069e-11
4.62031e-11
5.06686e-11
5.54831e-11
6.06637e-11
6.62271e-11
7.21896e-11
7.85668e-11
8.53735e-11
9.26231e-11
1.00328e-10
1.08499e-10
1.17145e-10
1.26273e-10
1.35888e-10
1.45992e-10
1.56585e-10
1.67664e-10
1.79223e-10
1.91253e-10
2.0374e-10
2.16669e-10
2.3002e-10
2.43769e-10
2.5789e-10
2.72352e-10
2.8712e-10
3.02156e-10
3.17419e-10
3.32865e-10
3.48445e-10
3.64108e-10
3.79802e-10
3.95472e-10
4.11059e-10
4.26505e-10
4.4175e-10
4.56733e-10
4.71393e-10
4.8567e-10
4.99504e-10
5.12835e-10
5.25605e-10
5.3776e-10
5.49247e-10
5.60014e-10
5.70015e-10
5.79207e-10
5.87548e-10
5.95004e-10
6.01543e-10
6.07138e-10
6.11766e-10
6.15409e-10
6.18054e-10
6.19693e-10
6.20323e-10
6.19943e-10
6.1856e-10
6.16183e-10
6.12827e-10
6.0851e-10
6.03254e-10
5.97084e-10
5.9003e-10
5.82123e-10
5.734e-10
5.63896e-10
5.53654e-10
5.42714e-10
5.3112e-10
5.18919e-10
5.06157e-10
4.92882e-10
4.79144e-10
4.6499e-10
4.50473e-10
4.35641e-10
4.20546e-10
4.05237e-10
3.89765e-10
3.74179e-10
3.58527e-10
3.42858e-10
3.27219e-10
3.11655e-10
2.96211e-10
2.80931e-10