/*--------------------------------*- C++ -*----------------------------------*\
| =========                 |                                                 |
| \\      /  F ield         | OpenFOAM: The Open Source CFD Toolbox           |
|  \\    /   O peration     | Version:  v2012                                 |
|   \\  /    A nd           | Website:  www.openfoam.com                      |
|    \\/     M anipulation  |                                                 |
\*---------------------------------------------------------------------------*/
FoamFile
{
    version     2.0;
    format      ascii;
    class       volScalarField;
    location    "15.3";
    object      W;
}
// * * * * * * * * * * * * * * * * * * * * * * * * * * * * * * * * * * * * * //

dimensions      [0 0 -1 0 0 0 0];


internalField   nonuniform List<scalar> 
65536
(
3.35917e-16
1.01204e-15
1.70115e-15
2.41221e-15
3.15448e-15
3.93758e-15
4.7716e-15
5.66718e-15
6.63571e-15
7.68937e-15
8.84129e-15
1.01057e-14
1.14981e-14
1.30354e-14
1.47359e-14
1.66198e-14
1.87092e-14
2.10284e-14
2.36039e-14
2.64649e-14
2.96434e-14
3.31745e-14
3.70967e-14
4.14522e-14
4.62873e-14
5.16527e-14
5.76036e-14
6.42007e-14
7.15102e-14
7.9604e-14
8.85609e-14
9.84664e-14
1.09414e-13
1.21503e-13
1.34846e-13
1.49559e-13
1.65772e-13
1.83624e-13
2.03264e-13
2.24853e-13
2.48565e-13
2.74587e-13
3.03118e-13
3.34372e-13
3.68578e-13
4.05978e-13
4.46832e-13
4.91416e-13
5.40022e-13
5.92957e-13
6.50549e-13
7.13139e-13
7.81089e-13
8.54775e-13
9.34592e-13
1.02095e-12
1.11428e-12
1.21502e-12
1.32362e-12
1.44056e-12
1.56631e-12
1.70137e-12
1.84623e-12
2.00139e-12
2.16736e-12
2.34464e-12
2.53373e-12
2.73514e-12
2.94933e-12
3.17678e-12
3.41794e-12
3.67323e-12
3.94303e-12
4.22773e-12
4.52762e-12
4.84298e-12
5.17404e-12
5.52096e-12
5.88384e-12
6.2627e-12
6.65751e-12
7.06815e-12
7.49439e-12
7.93595e-12
8.39243e-12
8.86333e-12
9.34806e-12
9.84593e-12
1.03561e-11
1.08777e-11
1.14097e-11
1.1951e-11
1.25003e-11
1.30563e-11
1.36176e-11
1.41826e-11
1.47498e-11
1.53175e-11
1.58839e-11
1.64472e-11
1.70055e-11
1.7557e-11
1.80996e-11
1.86316e-11
1.91509e-11
1.96556e-11
2.01439e-11
2.06138e-11
2.10636e-11
2.14915e-11
2.18959e-11
2.22752e-11
2.2628e-11
2.2953e-11
2.32489e-11
2.35147e-11
2.37494e-11
2.39523e-11
2.41227e-11
2.42602e-11
2.43644e-11
2.44351e-11
2.44724e-11
2.44764e-11
2.44474e-11
2.43857e-11
2.42919e-11
2.41668e-11
2.4011e-11
2.38256e-11
2.36114e-11
2.33697e-11
2.31014e-11
2.28079e-11
2.24904e-11
2.21503e-11
2.17888e-11
2.14073e-11
2.10072e-11
2.05899e-11
2.01567e-11
1.9709e-11
1.92481e-11
1.87754e-11
1.8292e-11
1.77994e-11
1.72986e-11
1.67908e-11
1.62772e-11
1.57589e-11
1.52369e-11
1.47124e-11
1.41861e-11
1.36592e-11
1.31326e-11
1.26071e-11
1.20837e-11
1.15632e-11
1.10464e-11
1.05343e-11
1.00276e-11
9.52726e-12
9.03396e-12
8.54856e-12
8.07187e-12
7.60469e-12
7.1478e-12
6.70198e-12
6.268e-12
5.8466e-12
5.43848e-12
5.04435e-12
4.66483e-12
4.30053e-12
3.95199e-12
3.61969e-12
3.30404e-12
3.00538e-12
2.72396e-12
2.45994e-12
2.21339e-12
1.98429e-12
1.77252e-12
1.57785e-12
1.39997e-12
1.23847e-12
1.09284e-12
9.62504e-13
8.46795e-13
7.4498e-13
6.56266e-13
5.79806e-13
5.1471e-13
4.60057e-13
4.14897e-13
3.78272e-13
3.49214e-13
3.26764e-13
3.09974e-13
2.9792e-13
2.89713e-13
2.84503e-13
2.8149e-13
2.79934e-13
2.7916e-13
2.78568e-13
2.77639e-13
2.75939e-13
2.73121e-13
2.68929e-13
2.63199e-13
2.5585e-13
2.46886e-13
2.36382e-13
2.24479e-13
2.11371e-13
1.97291e-13
1.82503e-13
1.67281e-13
1.51902e-13
1.36635e-13
1.21724e-13
1.07389e-13
9.38123e-14
8.11392e-14
6.94751e-14
5.88863e-14
4.94022e-14
4.10192e-14
3.37056e-14
2.74065e-14
2.205e-14
1.75523e-14
1.38228e-14
1.07688e-14
8.29866e-15
6.32549e-15
4.76863e-15
3.55531e-15
2.6213e-15
1.91109e-15
1.37766e-15
9.81912e-16
6.91901e-16
4.81978e-16
3.31888e-16
2.25893e-16
1.51955e-16
1.01004e-16
6.63117e-17
4.29544e-17
2.7375e-17
1.703e-17
1.01071e-17
5.30315e-18
1.64678e-18
1.16075e-15
3.49708e-15
5.87846e-15
8.33596e-15
1.09017e-14
1.36089e-14
1.64926e-14
1.95898e-14
2.29399e-14
2.65853e-14
3.05714e-14
3.49478e-14
3.97681e-14
4.50909e-14
5.09803e-14
5.75063e-14
6.47457e-14
7.27828e-14
8.171e-14
9.16286e-14
1.0265e-13
1.14897e-13
1.28502e-13
1.43614e-13
1.60393e-13
1.79015e-13
1.99674e-13
2.2258e-13
2.47963e-13
2.76076e-13
3.07191e-13
3.41607e-13
3.79649e-13
4.21668e-13
4.68046e-13
5.19198e-13
5.75571e-13
6.3765e-13
7.05955e-13
7.81049e-13
8.63536e-13
9.54065e-13
1.05333e-12
1.16208e-12
1.28111e-12
1.41126e-12
1.55344e-12
1.7086e-12
1.87776e-12
2.06198e-12
2.26241e-12
2.48023e-12
2.71669e-12
2.97309e-12
3.2508e-12
3.55124e-12
3.87588e-12
4.22625e-12
4.60391e-12
5.01047e-12
5.44758e-12
5.91692e-12
6.42017e-12
6.95906e-12
7.5353e-12
8.15059e-12
8.80662e-12
9.50505e-12
1.02475e-11
1.10355e-11
1.18705e-11
1.2754e-11
1.36871e-11
1.4671e-11
1.57068e-11
1.67951e-11
1.79367e-11
1.9132e-11
2.03811e-11
2.1684e-11
2.30403e-11
2.44495e-11
2.59105e-11
2.74222e-11
2.8983e-11
3.0591e-11
3.22437e-11
3.39387e-11
3.56729e-11
3.74428e-11
3.92448e-11
4.10748e-11
4.29282e-11
4.48002e-11
4.66858e-11
4.85795e-11
5.04756e-11
5.23681e-11
5.4251e-11
5.61179e-11
5.79623e-11
5.97777e-11
6.15574e-11
6.32948e-11
6.49835e-11
6.66168e-11
6.81884e-11
6.96923e-11
7.11225e-11
7.24733e-11
7.37394e-11
7.49159e-11
7.59983e-11
7.69824e-11
7.78646e-11
7.86418e-11
7.93113e-11
7.9871e-11
8.03194e-11
8.06554e-11
8.08784e-11
8.09887e-11
8.09867e-11
8.08734e-11
8.06506e-11
8.032e-11
7.98843e-11
7.93463e-11
7.87091e-11
7.79763e-11
7.71517e-11
7.62395e-11
7.52438e-11
7.41693e-11
7.30204e-11
7.18019e-11
7.05186e-11
6.91752e-11
6.77764e-11
6.63271e-11
6.4832e-11
6.32955e-11
6.17223e-11
6.01166e-11
5.84828e-11
5.68249e-11
5.51469e-11
5.34525e-11
5.17454e-11
5.00292e-11
4.8307e-11
4.65822e-11
4.48578e-11
4.31368e-11
4.14219e-11
3.9716e-11
3.80216e-11
3.63414e-11
3.46779e-11
3.30334e-11
3.14106e-11
2.98116e-11
2.82389e-11
2.66949e-11
2.51817e-11
2.37018e-11
2.22572e-11
2.08503e-11
1.94833e-11
1.81581e-11
1.68767e-11
1.56412e-11
1.44533e-11
1.33147e-11
1.22267e-11
1.11908e-11
1.0208e-11
9.27916e-12
8.4049e-12
7.58555e-12
6.82118e-12
6.11158e-12
5.45621e-12
4.85428e-12
4.30469e-12
3.80606e-12
3.35675e-12
2.95486e-12
2.59829e-12
2.28469e-12
2.01157e-12
1.77627e-12
1.576e-12
1.4079e-12
1.26901e-12
1.15636e-12
1.06697e-12
9.97872e-13
9.46145e-13
9.08952e-13
8.83557e-13
8.67353e-13
8.57892e-13
8.52906e-13
8.50335e-13
8.48343e-13
8.45344e-13
8.40013e-13
8.31294e-13
8.18409e-13
8.00854e-13
7.78387e-13
7.51017e-13
7.18975e-13
6.8269e-13
6.42751e-13
5.99872e-13
5.54848e-13
5.08518e-13
4.61724e-13
4.15277e-13
3.69925e-13
3.2633e-13
2.85049e-13
2.46521e-13
2.11066e-13
1.78883e-13
1.50061e-13
1.24588e-13
1.02367e-13
8.32309e-14
6.69594e-14
5.32979e-14
4.19707e-14
3.26956e-14
2.51946e-14
1.92031e-14
1.4476e-14
1.07922e-14
7.95665e-15
5.80063e-15
4.18137e-15
2.98011e-15
2.09984e-15
1.4627e-15
1.00718e-15
6.85495e-16
4.61107e-16
3.06489e-16
2.01213e-16
1.30336e-16
8.30618e-17
5.16719e-17
3.06663e-17
1.60904e-17
4.9966e-18
2.5035e-15
7.54271e-15
1.26796e-14
1.79816e-14
2.35183e-14
2.9362e-14
3.55884e-14
4.2278e-14
4.95163e-14
5.73953e-14
6.6014e-14
7.54799e-14
8.59098e-14
9.74314e-14
1.10184e-13
1.2432e-13
1.40007e-13
1.57429e-13
1.76787e-13
1.98302e-13
2.22218e-13
2.48801e-13
2.78344e-13
3.11168e-13
3.47625e-13
3.88101e-13
4.33016e-13
4.82833e-13
5.38056e-13
5.99233e-13
6.66965e-13
7.41905e-13
8.24761e-13
9.16305e-13
1.01737e-12
1.12887e-12
1.25178e-12
1.38716e-12
1.53615e-12
1.69998e-12
1.87997e-12
2.07755e-12
2.29423e-12
2.53164e-12
2.79153e-12
3.07572e-12
3.38621e-12
3.72507e-12
4.09451e-12
4.49686e-12
4.9346e-12
5.41029e-12
5.92666e-12
6.48653e-12
7.09285e-12
7.74868e-12
8.45721e-12
9.2217e-12
1.00455e-11
1.09321e-11
1.1885e-11
1.29077e-11
1.40039e-11
1.51771e-11
1.64309e-11
1.77689e-11
1.91946e-11
2.07113e-11
2.23224e-11
2.4031e-11
2.58399e-11
2.77519e-11
2.97693e-11
3.18942e-11
3.41284e-11
3.64731e-11
3.89293e-11
4.14972e-11
4.41767e-11
4.6967e-11
4.98669e-11
5.28741e-11
5.59861e-11
5.91993e-11
6.25096e-11
6.5912e-11
6.94007e-11
7.29692e-11
7.66102e-11
8.03155e-11
8.40761e-11
8.78825e-11
9.17242e-11
9.55902e-11
9.94688e-11
1.03348e-10
1.07214e-10
1.11055e-10
1.14856e-10
1.18604e-10
1.22285e-10
1.25885e-10
1.29389e-10
1.32784e-10
1.36057e-10
1.39193e-10
1.42179e-10
1.45005e-10
1.47657e-10
1.50126e-10
1.524e-10
1.54472e-10
1.56332e-10
1.57974e-10
1.59392e-10
1.6058e-10
1.61537e-10
1.62258e-10
1.62743e-10
1.62991e-10
1.63005e-10
1.62785e-10
1.62336e-10
1.61662e-10
1.60768e-10
1.5966e-10
1.58346e-10
1.56833e-10
1.5513e-10
1.53245e-10
1.51189e-10
1.48972e-10
1.46603e-10
1.44093e-10
1.41453e-10
1.38692e-10
1.35823e-10
1.32855e-10
1.29798e-10
1.26664e-10
1.2346e-10
1.20198e-10
1.16886e-10
1.13533e-10
1.10148e-10
1.06738e-10
1.03311e-10
9.98747e-11
9.64353e-11
9.29994e-11
8.95729e-11
8.61617e-11
8.2771e-11
7.94059e-11
7.6071e-11
7.2771e-11
6.95101e-11
6.62925e-11
6.3122e-11
6.00025e-11
5.69376e-11
5.3931e-11
5.09862e-11
4.81066e-11
4.52956e-11
4.25566e-11
3.98928e-11
3.73073e-11
3.48034e-11
3.23838e-11
3.00515e-11
2.78092e-11
2.56592e-11
2.36039e-11
2.16451e-11
1.97845e-11
1.80234e-11
1.63627e-11
1.48028e-11
1.33438e-11
1.19852e-11
1.07262e-11
9.56548e-12
8.50105e-12
7.53062e-12
6.65142e-12
5.86021e-12
5.15337e-12
4.52692e-12
3.97653e-12
3.4976e-12
3.0853e-12
2.7346e-12
2.44035e-12
2.1973e-12
2.00016e-12
1.84364e-12
1.72254e-12
1.63173e-12
1.56623e-12
1.52128e-12
1.49233e-12
1.47513e-12
1.46575e-12
1.46061e-12
1.45655e-12
1.45083e-12
1.44117e-12
1.42574e-12
1.40321e-12
1.37272e-12
1.33385e-12
1.28662e-12
1.23143e-12
1.16901e-12
1.10037e-12
1.02674e-12
9.49482e-13
8.70024e-13
7.8981e-13
7.10225e-13
6.32548e-13
5.57905e-13
4.87246e-13
4.21319e-13
3.60666e-13
3.05626e-13
2.56345e-13
2.128e-13
1.74822e-13
1.42122e-13
1.14323e-13
9.09865e-14
7.1641e-14
5.58027e-14
4.29958e-14
3.27676e-14
2.46989e-14
1.84119e-14
1.35731e-14
9.89431e-15
7.1317e-15
5.08244e-15
3.58093e-15
2.49421e-15
1.71734e-15
1.16876e-15
7.8614e-16
5.22503e-16
3.43012e-16
2.22176e-16
1.41585e-16
8.80758e-17
5.227e-17
2.74253e-17
8.51648e-18
4.92414e-15
1.48362e-14
2.49419e-14
3.53746e-14
4.62719e-14
5.77772e-14
7.00409e-14
8.32221e-14
9.74908e-14
1.13029e-13
1.30034e-13
1.4872e-13
1.69317e-13
1.92082e-13
2.17289e-13
2.45245e-13
2.76281e-13
3.10765e-13
3.49097e-13
3.91721e-13
4.3912e-13
4.91829e-13
5.50431e-13
6.15568e-13
6.87944e-13
7.6833e-13
8.57571e-13
9.56588e-13
1.06639e-12
1.18808e-12
1.32286e-12
1.47204e-12
1.63703e-12
1.81938e-12
2.02078e-12
2.24303e-12
2.48809e-12
2.75811e-12
3.05535e-12
3.38229e-12
3.74158e-12
4.13605e-12
4.56876e-12
5.04297e-12
5.56214e-12
6.12997e-12
6.75041e-12
7.42761e-12
8.16599e-12
8.97019e-12
9.84511e-12
1.07959e-11
1.18279e-11
1.29468e-11
1.41584e-11
1.54687e-11
1.6884e-11
1.84107e-11
2.00554e-11
2.18249e-11
2.3726e-11
2.57655e-11
2.79503e-11
3.02875e-11
3.27838e-11
3.54459e-11
3.82804e-11
4.12936e-11
4.44915e-11
4.78796e-11
5.1463e-11
5.52465e-11
5.92339e-11
6.34284e-11
6.78325e-11
7.24478e-11
7.72748e-11
8.2313e-11
8.75607e-11
9.30151e-11
9.86719e-11
1.04526e-10
1.10569e-10
1.16794e-10
1.2319e-10
1.29746e-10
1.36448e-10
1.43281e-10
1.5023e-10
1.57277e-10
1.64401e-10
1.71583e-10
1.788e-10
1.86029e-10
1.93245e-10
2.00423e-10
2.07537e-10
2.1456e-10
2.21464e-10
2.28223e-10
2.34808e-10
2.41192e-10
2.47347e-10
2.53249e-10
2.5887e-10
2.64187e-10
2.69175e-10
2.73814e-10
2.78083e-10
2.81964e-10
2.8544e-10
2.88496e-10
2.91122e-10
2.93307e-10
2.95044e-10
2.96329e-10
2.97158e-10
2.97532e-10
2.97453e-10
2.96925e-10
2.95957e-10
2.94557e-10
2.92736e-10
2.90508e-10
2.87887e-10
2.84889e-10
2.81533e-10
2.77836e-10
2.7382e-10
2.69504e-10
2.6491e-10
2.60059e-10
2.54974e-10
2.49676e-10
2.44187e-10
2.38529e-10
2.32722e-10
2.26787e-10
2.20745e-10
2.14614e-10
2.08414e-10
2.0216e-10
1.9587e-10
1.8956e-10
1.83244e-10
1.76936e-10
1.70649e-10
1.64394e-10
1.58182e-10
1.52024e-10
1.45928e-10
1.39903e-10
1.33956e-10
1.28094e-10
1.22325e-10
1.16653e-10
1.11084e-10
1.05623e-10
1.00275e-10
9.50443e-11
8.99348e-11
8.49505e-11
8.00951e-11
7.53724e-11
7.07857e-11
6.63385e-11
6.2034e-11
5.78755e-11
5.38658e-11
5.0008e-11
4.63046e-11
4.27582e-11
3.93707e-11
3.61441e-11
3.30798e-11
3.01789e-11
2.74417e-11
2.48685e-11
2.24585e-11
2.02106e-11
1.8123e-11
1.61932e-11
1.44182e-11
1.27941e-11
1.13165e-11
9.98055e-12
8.78048e-12
7.71023e-12
6.76317e-12
5.93229e-12
5.2102e-12
4.58924e-12
4.06153e-12
3.61903e-12
3.25364e-12
2.95725e-12
2.72181e-12
2.5394e-12
2.40228e-12
2.30298e-12
2.23434e-12
2.18959e-12
2.1624e-12
2.14692e-12
2.13787e-12
2.13058e-12
2.121e-12
2.10578e-12
2.08224e-12
2.04844e-12
2.0031e-12
1.94562e-12
1.87603e-12
1.79491e-12
1.70335e-12
1.60282e-12
1.4951e-12
1.38217e-12
1.26614e-12
1.14907e-12
1.03301e-12
9.1978e-13
8.11035e-13
7.08141e-13
6.12179e-13
5.23928e-13
4.43872e-13
3.72219e-13
3.08926e-13
2.53741e-13
2.06239e-13
1.65867e-13
1.31986e-13
1.03905e-13
8.09202e-14
6.23388e-14
4.75017e-14
3.57997e-14
2.66833e-14
1.9668e-14
1.43355e-14
1.03316e-14
7.36203e-15
5.18649e-15
3.61216e-15
2.48684e-15
1.69231e-15
1.13819e-15
7.56435e-16
4.96548e-16
3.21603e-16
2.04935e-16
1.27477e-16
7.56504e-17
3.96916e-17
1.23255e-17
9.37285e-15
2.8241e-14
4.74804e-14
6.73471e-14
8.8105e-14
1.10029e-13
1.33408e-13
1.58548e-13
1.85776e-13
2.15441e-13
2.47922e-13
2.83632e-13
3.23017e-13
3.66567e-13
4.14817e-13
4.68352e-13
5.27818e-13
5.93922e-13
6.6744e-13
7.49228e-13
8.40224e-13
9.41459e-13
1.05407e-12
1.17929e-12
1.3185e-12
1.47318e-12
1.64498e-12
1.83568e-12
2.04725e-12
2.28182e-12
2.54173e-12
2.82952e-12
3.14795e-12
3.50003e-12
3.88902e-12
4.31845e-12
4.79215e-12
5.31424e-12
5.88917e-12
6.52173e-12
7.21709e-12
7.98077e-12
8.8187e-12
9.73719e-12
1.0743e-11
1.18433e-11
1.30457e-11
1.43584e-11
1.57898e-11
1.73489e-11
1.90453e-11
2.08888e-11
2.28898e-11
2.50592e-11
2.74081e-11
2.99481e-11
3.26912e-11
3.56496e-11
3.8836e-11
4.2263e-11
4.59436e-11
4.98906e-11
5.41171e-11
5.86359e-11
6.34595e-11
6.86004e-11
7.40703e-11
7.98805e-11
8.60415e-11
9.2563e-11
9.94537e-11
1.06721e-10
1.14371e-10
1.22408e-10
1.30835e-10
1.39653e-10
1.48861e-10
1.58455e-10
1.6843e-10
1.78778e-10
1.89487e-10
2.00544e-10
2.11932e-10
2.23632e-10
2.3562e-10
2.47872e-10
2.60359e-10
2.73048e-10
2.85905e-10
2.98892e-10
3.11969e-10
3.25093e-10
3.38219e-10
3.513e-10
3.64285e-10
3.77126e-10
3.89769e-10
4.02163e-10
4.14254e-10
4.2599e-10
4.37319e-10
4.48188e-10
4.58549e-10
4.68352e-10
4.77552e-10
4.86106e-10
4.93974e-10
5.01119e-10
5.07507e-10
5.13111e-10
5.17907e-10
5.21873e-10
5.24995e-10
5.27263e-10
5.28672e-10
5.2922e-10
5.28913e-10
5.2776e-10
5.25774e-10
5.22973e-10
5.1938e-10
5.15021e-10
5.09925e-10
5.04125e-10
4.97658e-10
4.9056e-10
4.82873e-10
4.74637e-10
4.65896e-10
4.56694e-10
4.47073e-10
4.3708e-10
4.26758e-10
4.16149e-10
4.05297e-10
3.94242e-10
3.83025e-10
3.71683e-10
3.60253e-10
3.48769e-10
3.37264e-10
3.25767e-10
3.14308e-10
3.02911e-10
2.91601e-10
2.80399e-10
2.69325e-10
2.58396e-10
2.47629e-10
2.37036e-10
2.26631e-10
2.16424e-10
2.06424e-10
1.9664e-10
1.87077e-10
1.77743e-10
1.68642e-10
1.59778e-10
1.51155e-10
1.42775e-10
1.34643e-10
1.26759e-10
1.19126e-10
1.11746e-10
1.0462e-10
9.77491e-11
9.11356e-11
8.47803e-11
7.86841e-11
7.28479e-11
6.72724e-11
6.19579e-11
5.69045e-11
5.21118e-11
4.7579e-11
4.3305e-11
3.92877e-11
3.55247e-11
3.20129e-11
2.87482e-11
2.57259e-11
2.29407e-11
2.03862e-11
1.80553e-11
1.59402e-11
1.40324e-11
1.23226e-11
1.0801e-11
9.45712e-12
8.2802e-12
7.25899e-12
6.38199e-12
5.6375e-12
5.01374e-12
4.49889e-12
4.08126e-12
3.74928e-12
3.49167e-12
3.29747e-12
3.15614e-12
3.05764e-12
2.99251e-12
2.95193e-12
2.9278e-12
2.91281e-12
2.90053e-12
2.88538e-12
2.86278e-12
2.82906e-12
2.78157e-12
2.71856e-12
2.63923e-12
2.54363e-12
2.43255e-12
2.30745e-12
2.17036e-12
2.02368e-12
1.8701e-12
1.71246e-12
1.55357e-12
1.39615e-12
1.2427e-12
1.09541e-12
9.56133e-13
8.26309e-13
7.06978e-13
5.98779e-13
5.01979e-13
4.1651e-13
3.42017e-13
2.7792e-13
2.23462e-13
1.77774e-13
1.3992e-13
1.08945e-13
8.39112e-14
6.39271e-14
4.81697e-14
3.58968e-14
2.64546e-14
1.92789e-14
1.38921e-14
9.89772e-15
6.97189e-15
4.85497e-15
3.34205e-15
2.27403e-15
1.52927e-15
1.01624e-15
6.67032e-16
4.31986e-16
2.75254e-16
1.71207e-16
1.01596e-16
5.33028e-17
1.65519e-17
1.74984e-14
5.27259e-14
8.86522e-14
1.25759e-13
1.64544e-13
2.05524e-13
2.49244e-13
2.96279e-13
3.47247e-13
4.02808e-13
4.63678e-13
5.30635e-13
6.04524e-13
6.86272e-13
7.76891e-13
8.77494e-13
9.89301e-13
1.11365e-12
1.25203e-12
1.40605e-12
1.5775e-12
1.76833e-12
1.98072e-12
2.21702e-12
2.47983e-12
2.772e-12
3.09665e-12
3.4572e-12
3.8574e-12
4.30131e-12
4.7934e-12
5.33851e-12
5.94194e-12
6.60941e-12
7.34717e-12
8.16196e-12
9.06109e-12
1.00525e-11
1.11446e-11
1.23466e-11
1.36684e-11
1.51205e-11
1.67143e-11
1.84619e-11
2.0376e-11
2.24706e-11
2.476e-11
2.72598e-11
2.99862e-11
3.29564e-11
3.61883e-11
3.97009e-11
4.35137e-11
4.76474e-11
5.2123e-11
5.69626e-11
6.21886e-11
6.78241e-11
7.38927e-11
8.0418e-11
8.74242e-11
9.49352e-11
1.02975e-10
1.11567e-10
1.20734e-10
1.30498e-10
1.4088e-10
1.51901e-10
1.63579e-10
1.75929e-10
1.88966e-10
2.02701e-10
2.17144e-10
2.323e-10
2.4817e-10
2.64754e-10
2.82044e-10
3.00031e-10
3.18698e-10
3.38027e-10
3.5799e-10
3.78556e-10
3.99689e-10
4.21346e-10
4.43477e-10
4.6603e-10
4.88942e-10
5.12149e-10
5.35579e-10
5.59154e-10
5.82794e-10
6.06412e-10
6.29918e-10
6.53219e-10
6.76219e-10
6.98818e-10
7.20919e-10
7.42419e-10
7.63219e-10
7.83221e-10
8.02328e-10
8.20446e-10
8.37484e-10
8.53357e-10
8.67986e-10
8.81297e-10
8.93222e-10
9.03704e-10
9.12692e-10
9.20142e-10
9.26023e-10
9.30312e-10
9.32993e-10
9.34064e-10
9.3353e-10
9.31405e-10
9.27714e-10
9.2249e-10
9.15774e-10
9.07617e-10
8.98075e-10
8.87211e-10
8.75095e-10
8.618e-10
8.47406e-10
8.31995e-10
8.15651e-10
7.98461e-10
7.80512e-10
7.61892e-10
7.42688e-10
7.22986e-10
7.02871e-10
6.82423e-10
6.61723e-10
6.40844e-10
6.19859e-10
5.98836e-10
5.77838e-10
5.56923e-10
5.36146e-10
5.15557e-10
4.95201e-10
4.75118e-10
4.55345e-10
4.35914e-10
4.16852e-10
3.98183e-10
3.79928e-10
3.62104e-10
3.44724e-10
3.278e-10
3.11339e-10
2.95348e-10
2.79831e-10
2.64791e-10
2.50227e-10
2.36141e-10
2.2253e-10
2.09392e-10
1.96725e-10
1.84524e-10
1.72786e-10
1.61507e-10
1.50683e-10
1.40309e-10
1.30381e-10
1.20895e-10
1.11846e-10
1.03229e-10
9.50395e-11
8.7273e-11
7.9924e-11
7.2987e-11
6.64562e-11
6.03251e-11
5.45868e-11
4.92335e-11
4.4257e-11
3.9648e-11
3.53965e-11
3.14919e-11
2.79223e-11
2.46753e-11
2.17376e-11
1.90951e-11
1.67329e-11
1.46358e-11
1.27879e-11
1.11728e-11
9.77394e-12
8.57449e-12
7.55758e-12
6.70637e-12
6.00418e-12
5.43456e-12
4.98146e-12
4.62927e-12
4.36294e-12
4.16809e-12
4.03109e-12
3.93914e-12
3.8804e-12
3.844e-12
3.82022e-12
3.80045e-12
3.77735e-12
3.74481e-12
3.69805e-12
3.63353e-12
3.549e-12
3.4434e-12
3.3168e-12
3.17025e-12
3.00567e-12
2.82569e-12
2.63346e-12
2.43249e-12
2.22643e-12
2.01898e-12
1.81364e-12
1.61365e-12
1.42184e-12
1.24058e-12
1.07174e-12
9.16638e-13
7.76085e-13
6.50404e-13
5.39489e-13
4.42864e-13
3.59759e-13
2.89181e-13
2.29993e-13
1.80971e-13
1.40872e-13
1.08475e-13
8.26214e-14
6.22419e-14
4.63736e-14
3.41686e-14
2.48956e-14
1.79361e-14
1.27767e-14
8.9983e-15
6.26511e-15
4.31212e-15
2.93368e-15
1.97264e-15
1.31071e-15
8.60219e-16
5.57043e-16
3.54907e-16
2.20734e-16
1.30978e-16
6.87149e-17
2.13373e-17
3.21481e-14
9.68716e-14
1.6289e-13
2.31096e-13
3.02412e-13
3.77797e-13
4.5826e-13
5.44872e-13
6.38775e-13
7.41201e-13
8.5348e-13
9.77058e-13
1.11351e-12
1.26457e-12
1.43211e-12
1.61822e-12
1.82518e-12
2.05549e-12
2.31191e-12
2.59748e-12
2.91553e-12
3.26975e-12
3.66417e-12
4.10324e-12
4.59182e-12
5.13526e-12
5.73944e-12
6.41077e-12
7.15627e-12
7.98363e-12
8.90123e-12
9.91819e-12
1.10445e-11
1.22909e-11
1.36691e-11
1.5192e-11
1.68732e-11
1.87277e-11
2.07714e-11
2.30217e-11
2.54972e-11
2.82178e-11
3.12048e-11
3.44811e-11
3.80708e-11
4.2e-11
4.62959e-11
5.09876e-11
5.61058e-11
6.16827e-11
6.77521e-11
7.43494e-11
8.15115e-11
8.92768e-11
9.76849e-11
1.06777e-10
1.16594e-10
1.2718e-10
1.38579e-10
1.50833e-10
1.63987e-10
1.78086e-10
1.93173e-10
2.09289e-10
2.26478e-10
2.44778e-10
2.64226e-10
2.84857e-10
3.06703e-10
3.2979e-10
3.54141e-10
3.79773e-10
4.06698e-10
4.34922e-10
4.64441e-10
4.95248e-10
5.27322e-10
5.60638e-10
5.95159e-10
6.30838e-10
6.67619e-10
7.05434e-10
7.44204e-10
7.83841e-10
8.24242e-10
8.65297e-10
9.06883e-10
9.48866e-10
9.91103e-10
1.03344e-09
1.07572e-09
1.11778e-09
1.15943e-09
1.20049e-09
1.24079e-09
1.28014e-09
1.31834e-09
1.3552e-09
1.39056e-09
1.42421e-09
1.45599e-09
1.48573e-09
1.51328e-09
1.53847e-09
1.56118e-09
1.58128e-09
1.59866e-09
1.61325e-09
1.62495e-09
1.63373e-09
1.63953e-09
1.64234e-09
1.64216e-09
1.639e-09
1.63292e-09
1.62395e-09
1.61218e-09
1.59769e-09
1.58059e-09
1.56099e-09
1.53902e-09
1.51482e-09
1.48854e-09
1.46034e-09
1.43038e-09
1.39883e-09
1.36587e-09
1.33165e-09
1.29635e-09
1.26014e-09
1.22319e-09
1.18565e-09
1.14769e-09
1.10944e-09
1.07106e-09
1.03267e-09
9.94395e-10
9.56357e-10
9.18658e-10
8.81396e-10
8.44659e-10
8.08523e-10
7.73058e-10
7.38323e-10
7.0437e-10
6.71243e-10
6.38976e-10
6.07598e-10
5.77131e-10
5.47591e-10
5.18988e-10
4.91328e-10
4.64611e-10
4.38834e-10
4.13992e-10
3.90076e-10
3.67075e-10
3.44975e-10
3.23762e-10
3.0342e-10
2.83934e-10
2.65285e-10
2.47458e-10
2.30433e-10
2.14195e-10
1.98726e-10
1.84008e-10
1.70027e-10
1.56764e-10
1.44204e-10
1.32332e-10
1.21131e-10
1.10586e-10
1.00682e-10
9.14011e-11
8.27288e-11
7.46481e-11
6.7142e-11
6.0193e-11
5.37828e-11
4.78925e-11
4.25024e-11
3.75921e-11
3.31404e-11
2.91254e-11
2.55247e-11
2.23151e-11
1.94731e-11
1.69749e-11
1.47962e-11
1.29131e-11
1.13011e-11
9.93647e-12
8.79539e-12
7.85466e-12
7.0916e-12
6.4842e-12
6.01126e-12
5.65249e-12
5.38858e-12
5.20137e-12
5.07388e-12
4.99047e-12
4.93688e-12
4.90036e-12
4.86972e-12
4.8354e-12
4.78951e-12
4.72585e-12
4.6399e-12
4.52876e-12
4.39108e-12
4.22695e-12
4.03773e-12
3.82589e-12
3.59478e-12
3.34842e-12
3.09126e-12
2.82797e-12
2.56321e-12
2.30143e-12
2.0467e-12
1.80261e-12
1.57214e-12
1.3576e-12
1.16066e-12
9.82303e-13
8.22915e-13
6.82331e-13
5.59924e-13
4.54696e-13
3.65374e-13
2.90498e-13
2.28511e-13
1.77826e-13
1.36892e-13
1.04237e-13
7.85056e-14
5.84765e-14
4.3076e-14
3.13786e-14
2.26021e-14
1.60972e-14
1.13347e-14
7.89041e-15
5.42987e-15
3.69354e-15
2.48321e-15
1.64974e-15
1.08259e-15
7.0096e-16
4.46554e-16
2.7771e-16
1.64774e-16
8.64412e-17
2.6841e-17
5.81737e-14
1.75301e-13
2.94794e-13
4.18282e-13
5.47447e-13
6.84044e-13
8.29917e-13
9.87025e-13
1.15746e-12
1.34347e-12
1.54751e-12
1.77221e-12
2.02049e-12
2.2955e-12
2.60071e-12
2.93995e-12
3.31742e-12
3.73772e-12
4.20595e-12
4.72771e-12
5.30915e-12
5.95708e-12
6.67894e-12
7.48296e-12
8.37814e-12
9.3744e-12
1.04826e-11
1.17146e-11
1.30835e-11
1.46034e-11
1.629e-11
1.81602e-11
2.02325e-11
2.2527e-11
2.50654e-11
2.78714e-11
3.09707e-11
3.43909e-11
3.81619e-11
4.23159e-11
4.68874e-11
5.19135e-11
5.7434e-11
6.34913e-11
7.01306e-11
7.73999e-11
8.53504e-11
9.4036e-11
1.03514e-10
1.13843e-10
1.25087e-10
1.37312e-10
1.50585e-10
1.64979e-10
1.80565e-10
1.9742e-10
2.15621e-10
2.35247e-10
2.56377e-10
2.79093e-10
3.03474e-10
3.29601e-10
3.57552e-10
3.87405e-10
4.19232e-10
4.53103e-10
4.89085e-10
5.27236e-10
5.67609e-10
6.10249e-10
6.55191e-10
7.02461e-10
7.52072e-10
8.04025e-10
8.58307e-10
9.14888e-10
9.73725e-10
1.03476e-09
1.0979e-09
1.16305e-09
1.2301e-09
1.29891e-09
1.3693e-09
1.44111e-09
1.51413e-09
1.58813e-09
1.66287e-09
1.7381e-09
1.81353e-09
1.88886e-09
1.96379e-09
2.03798e-09
2.11112e-09
2.18284e-09
2.25282e-09
2.32069e-09
2.3861e-09
2.44872e-09
2.5082e-09
2.56423e-09
2.61647e-09
2.66464e-09
2.70847e-09
2.74769e-09
2.7821e-09
2.81148e-09
2.83567e-09
2.85454e-09
2.86799e-09
2.87595e-09
2.87841e-09
2.87536e-09
2.86685e-09
2.85297e-09
2.83382e-09
2.80955e-09
2.78035e-09
2.74641e-09
2.70797e-09
2.66528e-09
2.61862e-09
2.56828e-09
2.51458e-09
2.45781e-09
2.39832e-09
2.33642e-09
2.27244e-09
2.20672e-09
2.13957e-09
2.0713e-09
2.00223e-09
1.93263e-09
1.8628e-09
1.79298e-09
1.72343e-09
1.65437e-09
1.58602e-09
1.51855e-09
1.45215e-09
1.38697e-09
1.32314e-09
1.26077e-09
1.19997e-09
1.14082e-09
1.08338e-09
1.02771e-09
9.73837e-10
9.21793e-10
8.71592e-10
8.23235e-10
7.76718e-10
7.32027e-10
6.89141e-10
6.48033e-10
6.08673e-10
5.71023e-10
5.35046e-10
5.00701e-10
4.67943e-10
4.3673e-10
4.07015e-10
3.78756e-10
3.51905e-10
3.26421e-10
3.02258e-10
2.79376e-10
2.57733e-10
2.37288e-10
2.18004e-10
1.99842e-10
1.82766e-10
1.6674e-10
1.5173e-10
1.37701e-10
1.2462e-10
1.12453e-10
1.01168e-10
9.07317e-11
8.11107e-11
7.22721e-11
6.41823e-11
5.68075e-11
5.01135e-11
4.40657e-11
3.86293e-11
3.3769e-11
2.94494e-11
2.56352e-11
2.22909e-11
1.93814e-11
1.68717e-11
1.47275e-11
1.2915e-11
1.14012e-11
1.01541e-11
9.14262e-12
8.337e-12
7.7087e-12
7.23056e-12
6.877e-12
6.62402e-12
6.44935e-12
6.33258e-12
6.25518e-12
6.20066e-12
6.15459e-12
6.10472e-12
6.04095e-12
5.95538e-12
5.84226e-12
5.69793e-12
5.52069e-12
5.31066e-12
5.06958e-12
4.80055e-12
4.5078e-12
4.19639e-12
3.87189e-12
3.54016e-12
3.207e-12
2.87797e-12
2.55814e-12
2.25195e-12
1.9631e-12
1.69443e-12
1.44798e-12
1.22495e-12
1.02576e-12
8.50179e-13
6.9739e-13
5.66115e-13
4.5474e-13
3.61425e-13
2.84207e-13
2.21097e-13
1.7015e-13
1.29523e-13
9.75218e-14
7.26214e-14
5.34818e-14
3.89491e-14
2.80485e-14
1.99717e-14
1.406e-14
9.78563e-15
6.73284e-15
4.57907e-15
3.07806e-15
2.04463e-15
1.34154e-15
8.68519e-16
5.53238e-16
3.44023e-16
2.04104e-16
1.07068e-16
3.3245e-17
1.03716e-13
3.12552e-13
5.25645e-13
7.45927e-13
9.76429e-13
1.22031e-12
1.48089e-12
1.76171e-12
2.06653e-12
2.39943e-12
2.76481e-12
3.16748e-12
3.61266e-12
4.1061e-12
4.65409e-12
5.26356e-12
5.94212e-12
6.69816e-12
7.54092e-12
8.48059e-12
9.52839e-12
1.06967e-11
1.19991e-11
1.34505e-11
1.50675e-11
1.6868e-11
1.8872e-11
2.11012e-11
2.35793e-11
2.63325e-11
2.93892e-11
3.27806e-11
3.65403e-11
4.07053e-11
4.53155e-11
5.04144e-11
5.6049e-11
6.22701e-11
6.91325e-11
7.66953e-11
8.50221e-11
9.41811e-11
1.04245e-10
1.15292e-10
1.27406e-10
1.40674e-10
1.55191e-10
1.71055e-10
1.88371e-10
2.07249e-10
2.27805e-10
2.50159e-10
2.74436e-10
3.00766e-10
3.29283e-10
3.60126e-10
3.93435e-10
4.29354e-10
4.68029e-10
5.09604e-10
5.54226e-10
6.02038e-10
6.53182e-10
7.07794e-10
7.66005e-10
8.27938e-10
8.93707e-10
9.63413e-10
1.03714e-09
1.11497e-09
1.19696e-09
1.28313e-09
1.3735e-09
1.46806e-09
1.56676e-09
1.66954e-09
1.7763e-09
1.8869e-09
2.00118e-09
2.11893e-09
2.23991e-09
2.36383e-09
2.49038e-09
2.6192e-09
2.74989e-09
2.88203e-09
3.01513e-09
3.14869e-09
3.28219e-09
3.41505e-09
3.54669e-09
3.67649e-09
3.80383e-09
3.92806e-09
4.04856e-09
4.16467e-09
4.27575e-09
4.38118e-09
4.48036e-09
4.5727e-09
4.65764e-09
4.73469e-09
4.80336e-09
4.86325e-09
4.91397e-09
4.95523e-09
4.98676e-09
5.00841e-09
5.02003e-09
5.02159e-09
5.01312e-09
4.99469e-09
4.96646e-09
4.92866e-09
4.88156e-09
4.82551e-09
4.76091e-09
4.6882e-09
4.60787e-09
4.52044e-09
4.42648e-09
4.32656e-09
4.22129e-09
4.11129e-09
3.99717e-09
3.87956e-09
3.75907e-09
3.63631e-09
3.51187e-09
3.38631e-09
3.26017e-09
3.13397e-09
3.0082e-09
2.88329e-09
2.75967e-09
2.63772e-09
2.51777e-09
2.40012e-09
2.28506e-09
2.1728e-09
2.06354e-09
1.95745e-09
1.85466e-09
1.75526e-09
1.65933e-09
1.56691e-09
1.47803e-09
1.3927e-09
1.31089e-09
1.23257e-09
1.15769e-09
1.08619e-09
1.018e-09
9.53036e-10
8.91217e-10
8.32448e-10
7.76634e-10
7.23675e-10
6.73472e-10
6.25925e-10
5.80934e-10
5.38401e-10
4.9823e-10
4.60325e-10
4.24596e-10
3.90955e-10
3.59315e-10
3.29594e-10
3.01714e-10
2.75598e-10
2.51174e-10
2.2837e-10
2.0712e-10
1.87357e-10
1.69017e-10
1.5204e-10
1.36365e-10
1.21932e-10
1.08684e-10
9.65637e-11
8.55145e-11
7.54804e-11
6.64063e-11
5.8237e-11
5.09183e-11
4.43962e-11
3.86173e-11
3.3529e-11
2.90794e-11
2.52176e-11
2.18939e-11
1.90596e-11
1.66677e-11
1.46725e-11
1.303e-11
1.16983e-11
1.0637e-11
9.80795e-12
9.17522e-12
8.70499e-12
8.36581e-12
8.12866e-12
7.96703e-12
7.85705e-12
7.77753e-12
7.71001e-12
7.63889e-12
7.55134e-12
7.43737e-12
7.28973e-12
7.10383e-12
6.87755e-12
6.61104e-12
6.3065e-12
5.9678e-12
5.60023e-12
5.21007e-12
4.80426e-12
4.39005e-12
3.97464e-12
3.56487e-12
3.167e-12
2.78649e-12
2.42784e-12
2.09454e-12
1.78905e-12
1.51278e-12
1.26622e-12
1.04903e-12
8.60144e-13
6.97951e-13
5.60422e-13
4.45253e-13
3.5e-13
2.72186e-13
2.09396e-13
1.59348e-13
1.19941e-13
8.92904e-14
6.57394e-14
4.78633e-14
3.44593e-14
2.45306e-14
1.72655e-14
1.20141e-14
8.26448e-15
5.61971e-15
3.77693e-15
2.50846e-15
1.64563e-15
1.06525e-15
6.78474e-16
4.21857e-16
2.50261e-16
1.31273e-16
4.07596e-17
1.82212e-13
5.49128e-13
9.23597e-13
1.31082e-12
1.71618e-12
2.14528e-12
2.60403e-12
3.09869e-12
3.636e-12
4.22318e-12
4.8681e-12
5.57931e-12
6.36615e-12
7.23887e-12
8.20871e-12
9.28807e-12
1.04906e-11
1.18312e-11
1.33267e-11
1.49951e-11
1.68566e-11
1.89335e-11
2.12503e-11
2.38337e-11
2.67135e-11
2.99222e-11
3.34955e-11
3.74727e-11
4.18967e-11
4.68146e-11
5.22778e-11
5.83425e-11
6.50697e-11
7.25262e-11
8.07844e-11
8.99228e-11
1.00027e-10
1.11188e-10
1.23506e-10
1.37089e-10
1.52051e-10
1.68516e-10
1.86616e-10
2.06494e-10
2.283e-10
2.52194e-10
2.78347e-10
3.06939e-10
3.3816e-10
3.72209e-10
4.09296e-10
4.49639e-10
4.93465e-10
5.41009e-10
5.92515e-10
6.48232e-10
7.08414e-10
7.73321e-10
8.43213e-10
9.18354e-10
9.99003e-10
1.08542e-09
1.17785e-09
1.27654e-09
1.38172e-09
1.4936e-09
1.61238e-09
1.73823e-09
1.87131e-09
2.01172e-09
2.15956e-09
2.31486e-09
2.47762e-09
2.64781e-09
2.82532e-09
3.01e-09
3.20163e-09
3.39995e-09
3.60462e-09
3.81523e-09
4.03129e-09
4.25228e-09
4.47755e-09
4.70644e-09
4.93817e-09
5.17192e-09
5.4068e-09
5.64185e-09
5.87608e-09
6.10841e-09
6.33775e-09
6.56298e-09
6.78293e-09
6.99643e-09
7.20231e-09
7.3994e-09
7.58655e-09
7.76265e-09
7.92661e-09
8.07742e-09
8.21412e-09
8.33584e-09
8.44178e-09
8.53127e-09
8.6037e-09
8.65862e-09
8.69567e-09
8.71462e-09
8.71537e-09
8.69796e-09
8.66253e-09
8.60938e-09
8.5389e-09
8.45162e-09
8.34818e-09
8.2293e-09
8.09581e-09
7.94863e-09
7.78875e-09
7.61719e-09
7.43506e-09
7.24347e-09
7.04359e-09
6.83657e-09
6.62357e-09
6.40573e-09
6.18419e-09
5.96003e-09
5.73431e-09
5.50803e-09
5.28213e-09
5.05751e-09
4.83498e-09
4.6153e-09
4.39915e-09
4.18715e-09
3.97982e-09
3.77765e-09
3.58103e-09
3.39029e-09
3.20571e-09
3.02749e-09
2.85579e-09
2.69071e-09
2.5323e-09
2.38056e-09
2.23547e-09
2.09696e-09
1.96494e-09