/*--------------------------------*- C++ -*----------------------------------*\
| =========                 |                                                 |
| \\      /  F ield         | OpenFOAM: The Open Source CFD Toolbox           |
|  \\    /   O peration     | Version:  v2012                                 |
|   \\  /    A nd           | Website:  www.openfoam.com                      |
|    \\/     M anipulation  |                                                 |
\*---------------------------------------------------------------------------*/
FoamFile
{
    version     2.0;
    format      ascii;
    class       volScalarField;
    location    "0.1";
    object      Psi_z;
}
// * * * * * * * * * * * * * * * * * * * * * * * * * * * * * * * * * * * * * //

dimensions      [0 2 -1 0 0 0 0];


internalField   nonuniform List<scalar> 
65536
(
8.28967e-06
2.48674e-05
4.14432e-05
5.80162e-05
7.45854e-05
9.11495e-05
0.000107708
0.000124258
0.0001408
0.000157333
0.000173855
0.000190364
0.00020686
0.000223342
0.000239808
0.000256257
0.000272687
0.000289098
0.000305487
0.000321854
0.000338196
0.000354513
0.000370803
0.000387065
0.000403296
0.000419495
0.000435661
0.000451791
0.000467885
0.00048394
0.000499954
0.000515925
0.000531852
0.000547733
0.000563565
0.000579347
0.000595076
0.00061075
0.000626367
0.000641925
0.000657421
0.000672853
0.00068822
0.000703517
0.000718743
0.000733895
0.000748971
0.000763968
0.000778884
0.000793715
0.000808459
0.000823113
0.000837675
0.000852142
0.00086651
0.000880778
0.000894941
0.000908997
0.000922943
0.000936777
0.000950494
0.000964093
0.000977569
0.000990921
0.00100414
0.00101724
0.00103019
0.00104301
0.0010557
0.00106823
0.00108062
0.00109286
0.00110495
0.00111688
0.00112866
0.00114027
0.00115172
0.001163
0.00117411
0.00118505
0.00119581
0.00120639
0.00121679
0.001227
0.00123703
0.00124687
0.00125652
0.00126597
0.00127522
0.00128428
0.00129313
0.00130178
0.00131022
0.00131845
0.00132647
0.00133428
0.00134187
0.00134924
0.0013564
0.00136333
0.00137005
0.00137653
0.00138279
0.00138882
0.00139463
0.0014002
0.00140554
0.00141064
0.00141552
0.00142015
0.00142455
0.00142871
0.00143263
0.00143631
0.00143975
0.00144294
0.0014459
0.00144861
0.00145107
0.00145329
0.00145527
0.001457
0.00145848
0.00145972
0.00146071
0.00146145
0.00146195
0.0014622
0.0014622
0.00146195
0.00146146
0.00146072
0.00145973
0.0014585
0.00145701
0.00145529
0.00145331
0.0014511
0.00144863
0.00144592
0.00144297
0.00143978
0.00143634
0.00143267
0.00142875
0.00142459
0.0014202
0.00141556
0.00141069
0.00140559
0.00140025
0.00139468
0.00138888
0.00138285
0.00137659
0.00137011
0.0013634
0.00135647
0.00134931
0.00134194
0.00133435
0.00132655
0.00131853
0.0013103
0.00130186
0.00129321
0.00128436
0.00127531
0.00126606
0.00125661
0.00124696
0.00123712
0.0012271
0.00121688
0.00120648
0.0011959
0.00118514
0.00117421
0.0011631
0.00115182
0.00114037
0.00112876
0.00111699
0.00110506
0.00109297
0.00108073
0.00106834
0.0010558
0.00104312
0.0010303
0.00101734
0.00100425
0.000991029
0.000977678
0.000964202
0.000950603
0.000936886
0.000923052
0.000909106
0.00089505
0.000880886
0.000866619
0.00085225
0.000837783
0.000823221
0.000808566
0.000793821
0.000778989
0.000764073
0.000749075
0.000733998
0.000718845
0.000703618
0.000688319
0.000672952
0.000657519
0.000642021
0.000626462
0.000610843
0.000595168
0.000579437
0.000563654
0.00054782
0.000531938
0.000516009
0.000500036
0.00048402
0.000467963
0.000451867
0.000435735
0.000419567
0.000403365
0.000387132
0.000370868
0.000354576
0.000338257
0.000321911
0.000305542
0.00028915
0.000272737
0.000256304
0.000239853
0.000223384
0.000206899
0.0001904
0.000173888
0.000157363
0.000140828
0.000124282
0.000107728
9.11673e-05
7.45998e-05
5.80275e-05
4.14512e-05
2.48716e-05
8.29085e-06
2.48672e-05
7.45999e-05
0.000124327
0.000174046
0.000223754
0.000273446
0.00032312
0.000372771
0.000422398
0.000471995
0.00052156
0.000571089
0.000620578
0.000670023
0.000719421
0.000768767
0.000818058
0.00086729
0.000916458
0.000965558
0.00101459
0.00106354
0.00111241
0.00116119
0.00120989
0.00125848
0.00130698
0.00135537
0.00140366
0.00145182
0.00149986
0.00154778
0.00159556
0.0016432
0.0016907
0.00173805
0.00178523
0.00183226
0.00187911
0.00192579
0.00197228
0.00201857
0.00206467
0.00211057
0.00215625
0.0022017
0.00224693
0.00229193
0.00233667
0.00238117
0.0024254
0.00246937
0.00251306
0.00255646
0.00259957
0.00264237
0.00268486
0.00272703
0.00276887
0.00281038
0.00285153
0.00289233
0.00293276
0.00297282
0.00301249
0.00305177
0.00309064
0.00312911
0.00316715
0.00320476
0.00324194
0.00327866
0.00331493
0.00335073
0.00338605
0.00342089
0.00345524
0.00348908
0.00352242
0.00355523
0.00358751
0.00361926
0.00365046
0.00368111
0.0037112
0.00374072
0.00376966
0.00379802
0.00382578
0.00385295
0.0038795
0.00390545
0.00393077
0.00395547
0.00397953
0.00400296
0.00402573
0.00404786
0.00406933
0.00409013
0.00411026
0.00412973
0.00414851
0.00416661
0.00418402
0.00420073
0.00421675
0.00423207
0.00424669
0.00426059
0.00427379
0.00428627
0.00429803
0.00430907
0.00431938
0.00432897
0.00433783
0.00434596
0.00435336
0.00436002
0.00436595
0.00437114
0.00437559
0.00437931
0.00438228
0.00438451
0.00438599
0.00438674
0.00438674
0.00438601
0.00438453
0.0043823
0.00437934
0.00437564
0.00437119
0.00436601
0.00436009
0.00435343
0.00434604
0.00433792
0.00432907
0.00431948
0.00430917
0.00429814
0.00428639
0.00427392
0.00426073
0.00424683
0.00423222
0.00421691
0.0042009
0.00418419
0.00416678
0.00414869
0.00412992
0.00411046
0.00409033
0.00406953
0.00404807
0.00402595
0.00400318
0.00397977
0.00395571
0.00393102
0.0039057
0.00387976
0.0038532
0.00382604
0.00379828
0.00376993
0.003741
0.00371148
0.0036814
0.00365075
0.00361955
0.00358781
0.00355553
0.00352272
0.00348939
0.00345555
0.00342121
0.00338637
0.00335105
0.00331525
0.00327899
0.00324226
0.00320509
0.00316748
0.00312944
0.00309098
0.0030521
0.00301282
0.00297315
0.00293309
0.00289266
0.00285187
0.00281071
0.00276921
0.00272737
0.0026852
0.0026427
0.0025999
0.00255679
0.00251339
0.0024697
0.00242573
0.0023815
0.002337
0.00229225
0.00224725
0.00220202
0.00215656
0.00211088
0.00206498
0.00201888
0.00197258
0.00192608
0.0018794
0.00183255
0.00178552
0.00173833
0.00169098
0.00164347
0.00159583
0.00154804
0.00150012
0.00145207
0.0014039
0.00135561
0.00130721
0.00125871
0.0012101
0.0011614
0.00111261
0.00106373
0.00101477
0.000965738
0.00091663
0.000867454
0.000818214
0.000768915
0.00071956
0.000670154
0.0006207
0.000571203
0.000521665
0.000472091
0.000422484
0.000372848
0.000323187
0.000273503
0.000223801
0.000174084
0.000124355
7.46168e-05
2.48728e-05
4.14472e-05
0.000124338
0.000207221
0.000290089
0.000372938
0.000455762
0.000538556
0.000621313
0.000704027
0.000786693
0.000869305
0.000951857
0.00103434
0.00111676
0.00119909
0.00128134
0.00136349
0.00144555
0.0015275
0.00160934
0.00169106
0.00177265
0.0018541
0.00193542
0.00201658
0.00209758
0.00217842
0.00225908
0.00233955
0.00241983
0.00249991
0.00257977
0.00265942
0.00273883
0.002818
0.00289691
0.00297557
0.00305395
0.00313204
0.00320984
0.00328733
0.0033645
0.00344134
0.00351784
0.00359398
0.00366975
0.00374514
0.00382014
0.00389473
0.0039689
0.00404263
0.00411592
0.00418874
0.00426108
0.00433294
0.00440429
0.00447512
0.00454541
0.00461515
0.00468433
0.00475294
0.00482094
0.00488834
0.00495511
0.00502124
0.00508671
0.00515152
0.00521563
0.00527905
0.00534175
0.00540371
0.00546493
0.00552539
0.00558506
0.00564395
0.00570202
0.00575928
0.00581569
0.00587126
0.00592595
0.00597977
0.00603269
0.00608471
0.0061358
0.00618595
0.00623516
0.0062834
0.00633067
0.00637695
0.00642224
0.00646651
0.00650976
0.00655197
0.00659314
0.00663325
0.0066723
0.00671027
0.00674715
0.00678293
0.00681761
0.00685117
0.00688362
0.00691492
0.00694509
0.00697411
0.00700198
0.00702869
0.00705422
0.00707858
0.00710176
0.00712376
0.00714456
0.00716416
0.00718257
0.00719976
0.00721575
0.00723052
0.00724407
0.0072564
0.00726751
0.00727739
0.00728604
0.00729346
0.00729965
0.0073046
0.00730832
0.0073108
0.00731204
0.00731205
0.00731082
0.00730835
0.00730465
0.00729971
0.00729353
0.00728612
0.00727748
0.00726762
0.00725652
0.0072442
0.00723066
0.0072159
0.00719993
0.00718275
0.00716436
0.00714476
0.00712397
0.00710199
0.00707882
0.00705447
0.00702895
0.00700225
0.0069744
0.00694539
0.00691523
0.00688393
0.0068515
0.00681795
0.00678328
0.00674751
0.00671063
0.00667268
0.00663364
0.00659354
0.00655238
0.00651017
0.00646693
0.00642267
0.00637739
0.00633112
0.00628386
0.00623562
0.00618642
0.00613627
0.00608519
0.00603318
0.00598027
0.00592646
0.00587176
0.00581621
0.0057598
0.00570255
0.00564448
0.0055856
0.00552592
0.00546547
0.00540426
0.0053423
0.0052796
0.00521619
0.00515207
0.00508727
0.0050218
0.00495567
0.0048889
0.0048215
0.0047535
0.0046849
0.00461572
0.00454597
0.00447568
0.00440485
0.0043335
0.00426164
0.00418929
0.00411647
0.00404318
0.00396944
0.00389527
0.00382068
0.00374568
0.00367028
0.00359451
0.00351836
0.00344186
0.00336501
0.00328783
0.00321034
0.00313253
0.00305443
0.00297604
0.00289738
0.00281846
0.00273928
0.00265986
0.00258021
0.00250033
0.00242024
0.00233995
0.00225947
0.0021788
0.00209795
0.00201694
0.00193577
0.00185444
0.00177297
0.00169137
0.00160964
0.00152779
0.00144582
0.00136375
0.00128158
0.00119932
0.00111697
0.00103455
0.000952047
0.00086948
0.000786853
0.000704171
0.000621441
0.000538668
0.000455858
0.000373018
0.000290152
0.000207267
0.000124366
4.14565e-05
5.803e-05
0.000174086
0.00029013
0.000406154
0.000522151
0.000638113
0.000754032
0.0008699
0.000985708
0.00110145
0.00121712
0.0013327
0.00144819
0.00156357
0.00167885
0.00179401
0.00190903
0.00202392
0.00213867
0.00225325
0.00236767
0.00248191
0.00259595
0.0027098
0.00282344
0.00293686
0.00305004
0.00316297
0.00327565
0.00338806
0.00350018
0.003612
0.00372352
0.00383471
0.00394556
0.00405606
0.00416619
0.00427594
0.00438528
0.00449422
0.00460272
0.00471078
0.00481837
0.00492549
0.0050321
0.0051382
0.00524377
0.00534878
0.00545323
0.00555708
0.00566033
0.00576294
0.00586491
0.00596622
0.00606683
0.00616674
0.00626593
0.00636436
0.00646202
0.0065589
0.00665496
0.00675019
0.00684456
0.00693807
0.00703067
0.00712236
0.0072131
0.00730289
0.00739169
0.00747949
0.00756627
0.00765199
0.00773665
0.00782022
0.00790268
0.00798401
0.00806418
0.00814318
0.00822099
0.00829759
0.00837295
0.00844706
0.0085199
0.00859144
0.00866168
0.00873059
0.00879815
0.00886434
0.00892916
0.00899257
0.00905457
0.00911513
0.00917424
0.0092319
0.00928807
0.00934275
0.00939592
0.00944756
0.00949767
0.00954624
0.00959324
0.00963867
0.00968251
0.00972476
0.0097654
0.00980442
0.00984182
0.00987758
0.00991169
0.00994415
0.00997495
0.0100041
0.0100315
0.0100573
0.0100814
0.0101038
0.0101245
0.0101434
0.0101607
0.0101763
0.0101901
0.0102022
0.0102126
0.0102213
0.0102282
0.0102334
0.0102369
0.0102386
0.0102386
0.0102369
0.0102334
0.0102283
0.0102213
0.0102127
0.0102023
0.0101902
0.0101764
0.0101609
0.0101436
0.0101247
0.010104
0.0100816
0.0100576
0.0100318
0.0100044
0.00997525
0.00994447
0.00991203
0.00987793
0.00984218
0.0098048
0.0097658
0.00972517
0.00968294
0.00963911
0.0095937
0.00954671
0.00949816
0.00944806
0.00939643
0.00934327
0.00928861
0.00923245
0.00917481
0.00911571
0.00905515
0.00899317
0.00892977
0.00886497
0.00879878
0.00873123
0.00866234
0.00859211
0.00852057
0.00844774
0.00837364
0.00829829
0.0082217
0.0081439
0.0080649
0.00798474
0.00790342
0.00782096
0.0077374
0.00765275
0.00756702
0.00748025
0.00739246
0.00730366
0.00721388
0.00712313
0.00703145
0.00693885
0.00684535
0.00675097
0.00665574
0.00655968
0.00646281
0.00636514
0.00626671
0.00616752
0.00606761
0.00596699
0.00586569
0.00576371
0.00566109
0.00555784
0.00545398
0.00534953
0.00524451
0.00513894
0.00503284
0.00492621
0.00481909
0.00471149
0.00460342
0.00449491
0.00438597
0.00427661
0.00416685
0.00405671
0.0039462
0.00383534
0.00372413
0.00361261
0.00350077
0.00338863
0.00327621
0.00316352
0.00305057
0.00293737
0.00282394
0.00271029
0.00259642
0.00248236
0.0023681
0.00225367
0.00213907
0.00202431
0.0019094
0.00179435
0.00167917
0.00156388
0.00144847
0.00133296
0.00121736
0.00110167
0.000985909
0.000870078
0.000754188
0.000638246
0.000522261
0.000406241
0.000290193
0.000174125
5.8043e-05
7.46173e-05
0.000223846
0.000373059
0.000522247
0.000671401
0.000820509
0.000969562
0.00111855
0.00126746
0.00141629
0.00156501
0.00171363
0.00186214
0.00201051
0.00215874
0.00230681
0.00245472
0.00260245
0.00275
0.00289734
0.00304446
0.00319136
0.00333801
0.00348441
0.00363054
0.00377638
0.00392192
0.00406714
0.00421203
0.00435658
0.00450076
0.00464456
0.00478796
0.00493094
0.00507349
0.00521558
0.00535721
0.00549834
0.00563896
0.00577904
0.00591858
0.00605754
0.0061959
0.00633365
0.00647076
0.0066072
0.00674296
0.00687801
0.00701233
0.00714589
0.00727867
0.00741064
0.00754178
0.00767206
0.00780146
0.00792995
0.0080575
0.0081841
0.0083097
0.00843429
0.00855783
0.00868031
0.00880169
0.00892194
0.00904104
0.00915896
0.00927567
0.00939115
0.00950536
0.00961828
0.00972989
0.00984014
0.00994903
0.0100565
0.0101626
0.0102672
0.0103703
0.0104719
0.010572
0.0106705
0.0107674
0.0108627
0.0109564
0.0110484
0.0111388
0.0112274
0.0113143
0.0113994
0.0114828
0.0115643
0.0116441
0.011722
0.011798
0.0118722
0.0119444
0.0120147
0.0120831
0.0121495
0.012214
0.0122765
0.0123369
0.0123953
0.0124517
0.0125061
0.0125583
0.0126085
0.0126566
0.0127026
0.0127465
0.0127882
0.0128278
0.0128653
0.0129006
0.0129338
0.0129647
0.0129935
0.0130201
0.0130445
0.0130667
0.0130867
0.0131045
0.0131201
0.0131335
0.0131446
0.0131535
0.0131602
0.0131647
0.0131669
0.013167
0.0131647
0.0131603
0.0131536
0.0131447
0.0131336
0.0131203
0.0131047
0.0130869
0.013067
0.0130448
0.0130204
0.0129938
0.012965
0.0129341
0.012901
0.0128657
0.0128282
0.0127886
0.0127469
0.0127031
0.0126571
0.012609
0.0125588
0.0125066
0.0124523
0.0123959
0.0123375
0.0122771
0.0122146
0.0121502
0.0120838
0.0120154
0.0119451
0.0118729
0.0117987
0.0117227
0.0116448
0.0115651
0.0114836
0.0114002
0.0113151
0.0112282
0.0111396
0.0110493
0.0109573
0.0108636
0.0107683
0.0106714
0.0105729
0.0104728
0.0103712
0.0102681
0.0101635
0.0100575
0.00994999
0.00984111
0.00973086
0.00961926
0.00950634
0.00939214
0.00927666
0.00915996
0.00904204
0.00892294
0.00880269
0.00868131
0.00855884
0.00843529
0.00831071
0.0081851
0.00805851
0.00793095
0.00780246
0.00767305
0.00754277
0.00741162
0.00727965
0.00714686
0.0070133
0.00687897
0.00674391
0.00660815
0.00647169
0.00633458
0.00619682
0.00605845
0.00591947
0.00577993
0.00563983
0.0054992
0.00535805
0.00521642
0.00507431
0.00493174
0.00478874
0.00464533
0.00450151
0.00435732
0.00421275
0.00406784
0.0039226
0.00377704
0.00363118
0.00348503
0.00333861
0.00319194
0.00304502
0.00289787
0.00275051
0.00260294
0.00245519
0.00230725
0.00215915
0.0020109
0.0018625
0.00171397
0.00156532
0.00141657
0.00126772
0.00111878
0.000969761
0.000820678
0.000671541
0.000522358
0.00037314
0.000223895
7.46336e-05
9.12093e-05
0.000273621
0.000456014
0.000638377
0.000820697
0.00100296
0.00118516
0.00136728
0.0015493
0.00173122
0.00191303
0.0020947
0.00227622
0.00245759
0.00263878
0.00281979
0.00300059
0.00318118
0.00336154
0.00354165
0.00372149
0.00390106
0.00408033
0.00425929
0.00443792
0.0046162
0.00479412
0.00497165
0.00514877
0.00532547
0.00550173
0.00567752
0.00585282
0.00602762
0.00620188
0.00637559
0.00654873
0.00672126
0.00689317
0.00706443
0.00723502
0.0074049
0.00757406
0.00774246
0.00791009
0.0080769
0.00824288
0.00840799
0.0085722
0.00873549
0.00889783
0.00905918
0.00921951
0.0093788
0.00953701
0.00969411
0.00985006
0.0100048
0.0101584
0.0103107
0.0104618
0.0106115
0.01076
0.010907
0.0110526
0.0111968
0.0113395
0.0114807
0.0116203
0.0117584
0.0118949
0.0120297
0.0121628
0.0122942
0.0124239
0.0125518
0.0126779
0.0128022
0.0129245
0.013045
0.0131635
0.0132801
0.0133946
0.0135071
0.0136176
0.0137259
0.0138322
0.0139363
0.0140382
0.014138
0.0142355
0.0143307
0.0144237
0.0145143
0.0146027
0.0146887
0.0147723
0.0148535
0.0149323
0.0150087
0.0150826
0.0151541
0.015223
0.0152894
0.0153534
0.0154147
0.0154735
0.0155298
0.0155834
0.0156345
0.0156829
0.0157287
0.0157719
0.0158124
0.0158503
0.0158855
0.015918
0.0159479
0.015975
0.0159995
0.0160212
0.0160403
0.0160566
0.0160702
0.0160811
0.0160893
0.0160948
0.0160975
0.0160975
0.0160948
0.0160894
0.0160812
0.0160704
0.0160568
0.0160405
0.0160214
0.0159997
0.0159753
0.0159481
0.0159183
0.0158858
0.0158506
0.0158128
0.0157723
0.0157292
0.0156834
0.015635
0.0155839
0.0155303
0.0154741
0.0154153
0.015354
0.0152901
0.0152237
0.0151547
0.0150833
0.0150094
0.0149331
0.0148543
0.0147731
0.0146895
0.0146035
0.0145152
0.0144246
0.0143316
0.0142364
0.0141389
0.0140392
0.0139373
0.0138332
0.013727
0.0136186
0.0135082
0.0133957
0.0132811
0.0131646
0.0130461
0.0129256
0.0128033
0.012679
0.012553
0.0124251
0.0122954
0.012164
0.0120309
0.0118961
0.0117596
0.0116215
0.0114819
0.0113407
0.011198
0.0110538
0.0109082
0.0107612
0.0106128
0.010463
0.010312
0.0101596
0.0100061
0.00985128
0.00969532
0.00953822
0.00938001
0.00922072
0.00906038
0.00889902
0.00873668
0.00857338
0.00840916
0.00824404
0.00807805
0.00791123
0.00774359
0.00757518
0.00740601
0.00723611
0.00706551
0.00689423
0.00672231
0.00654976
0.00637661
0.00620288
0.0060286
0.00585378
0.00567846
0.00550265
0.00532637
0.00514965
0.0049725
0.00479495
0.00461701
0.0044387
0.00426005
0.00408107
0.00390177
0.00372217
0.0035423
0.00336216
0.00318177
0.00300115
0.00282032
0.00263928
0.00245806
0.00227666
0.0020951
0.0019134
0.00173157
0.00154961
0.00136755
0.0011854
0.00100317
0.000820867
0.000638511
0.000456112
0.000273681
9.12292e-05
0.000107808
0.000323416
0.000539001
0.000754551
0.00097005
0.00118548
0.00140084
0.0016161
0.00183125
0.00204628
0.00226117
0.0024759
0.00269047
0.00290484
0.00311902
0.00333297
0.00354668
0.00376014
0.00397333
0.00418622
0.00439881
0.00461107
0.00482298
0.00503452
0.00524567
0.00545641
0.00566671
0.00587657
0.00608594
0.00629482
0.00650317
0.00671098
0.00691821
0.00712483
0.00733084
0.00753619
0.00774086
0.00794482
0.00814805
0.00835051
0.00855217
0.008753
0.00895298
0.00915207
0.00935024
0.00954745
0.00974367
0.00993887
0.010133
0.0103261
0.010518
0.0107087
0.0108983
0.0110866
0.0112737
0.0114594
0.0116438
0.0118268
0.0120084
0.0121885
0.0123671
0.0125441
0.0127196
0.0128935
0.0130656
0.0132361
0.0134048
0.0135718
0.0137369
0.0139002
0.0140615
0.0142209
0.0143783
0.0145337
0.0146871
0.0148383
0.0149874
0.0151343
0.015279
0.0154214
0.0155616
0.0156994
0.0158348
0.0159679
0.0160985
0.0162266
0.0163523
0.0164754
0.0165959
0.0167138
0.0168291
0.0169417
0.0170517
0.0171589
0.0172633
0.017365
0.0174639
0.0175599
0.0176531
0.0177434
0.0178308
0.0179153
0.0179968
0.0180754
0.018151
0.0182235
0.0182931
0.0183596
0.018423
0.0184833
0.0185406
0.0185948
0.0186458
0.0186937
0.0187385
0.0187801
0.0188186
0.0188539
0.018886
0.0189149
0.0189406
0.0189632
0.0189825
0.0189986
0.0190115
0.0190212
0.0190276
0.0190309
0.0190309
0.0190277
0.0190212
0.0190116
0.0189987
0.0189827
0.0189634
0.0189409
0.0189152
0.0188863
0.0188542
0.018819
0.0187805
0.0187389
0.0186942
0.0186463
0.0185953
0.0185412
0.0184839
0.0184236
0.0183602
0.0182937
0.0182242
0.0181517
0.0180761
0.0179976
0.0179161
0.0178317
0.0177443
0.017654
0.0175608
0.0174648
0.017366
0.0172643
0.0171599
0.0170527
0.0169428
0.0168302
0.0167149
0.016597
0.0164765
0.0163534
0.0162278
0.0160997
0.0159691
0.0158361
0.0157007
0.0155629
0.0154227
0.0152803
0.0151356
0.0149887
0.0148397
0.0146884
0.0145351
0.0143797
0.0142223
0.0140629
0.0139016
0.0137383
0.0135732
0.0134063
0.0132375
0.0130671
0.0128949
0.012721
0.0125456
0.0123685
0.0121899
0.0120098
0.0118282
0.0116452
0.0114609
0.0112751
0.0110881
0.0108997
0.0107102
0.0105194
0.0103275
0.0101344
0.00994025
0.00974504
0.0095488
0.00935158
0.0091534
0.0089543
0.00875431
0.00855346
0.00835178
0.0081493
0.00794606
0.00774207
0.00753738
0.00733201
0.00712599
0.00691933
0.00671208
0.00650425
0.00629588
0.00608697
0.00587757
0.00566769
0.00545735
0.00524659
0.00503541
0.00482384
0.0046119
0.00439961
0.00418699
0.00397406
0.00376084
0.00354734
0.00333359
0.00311961
0.0029054
0.00269099
0.00247639
0.00226161
0.00204669
0.00183162
0.00161643
0.00140112
0.00118573
0.000970249
0.000754708
0.000539116
0.000323485
0.000107831
0.000124414
0.000373232
0.000622024
0.000870775
0.00111947
0.00136809
0.00161662
0.00186504
0.00211333
0.00236148
0.00260947
0.00285729
0.00310491
0.00335231
0.00359948
0.00384639
0.00409303
0.00433938
0.00458542
0.00483112
0.00507646
0.00532143
0.00556599
0.00581013
0.00605383
0.00629705
0.00653977
0.00678197
0.00702363
0.0072647
0.00750517
0.00774502
0.0079842
0.00822269
0.00846046
0.00869748
0.00893371
0.00916913
0.0094037
0.00963739
0.00987016
0.010102
0.0103328
0.0105626
0.0107914
0.011019
0.0112455
0.0114708
0.0116949
0.0119178
0.0121393
0.0123595
0.0125784
0.0127958
0.0130117
0.0132261
0.013439
0.0136502
0.0138598
0.0140677
0.0142739
0.0144783
0.0146809
0.0148816
0.0150804
0.0152772
0.015472
0.0156647
0.0158554
0.0160438
0.0162301
0.0164142
0.0165959
0.0167753
0.0169524
0.017127
0.0172991
0.0174687
0.0176358
0.0178002
0.017962
0.0181211
0.0182775
0.0184311
0.0185819
0.0187299
0.0188749
0.019017
0.0191562
0.0192923
0.0194255
0.0195555
0.0196824
0.0198062
0.0199268
0.0200442
0.0201583
0.0202692
0.0203768
0.0204811
0.020582
0.0206795
0.0207736
0.0208643
0.0209516
0.0210354
0.0211156
0.0211924
0.0212656
0.0213353
0.0214014
0.021464
0.0215229
0.0215782
0.0216299
0.021678
0.0217224
0.0217631
0.0218002
0.0218336
0.0218633
0.0218893
0.0219116
0.0219302
0.0219451
0.0219562
0.0219637
0.0219674
0.0219675
0.0219638
0.0219563
0.0219452
0.0219304
0.0219118
0.0218895
0.0218636
0.0218339
0.0218005
0.0217635
0.0217228
0.0216784
0.0216304
0.0215788
0.0215235
0.0214646
0.0214021
0.021336
0.0212664
0.0211931
0.0211164
0.0210362
0.0209524
0.0208652
0.0207745
0.0206804
0.0205829
0.0204821
0.0203778
0.0202703
0.0201594
0.0200453
0.0199279
0.0198074
0.0196836
0.0195567
0.0194267
0.0192936
0.0191575
0.0190184
0.0188763
0.0187312
0.0185833
0.0184325
0.0182789
0.0181226
0.0179635
0.0178017
0.0176373
0.0174702
0.0173006
0.0171285
0.0169539
0.0167769
0.0165975
0.0164158
0.0162317
0.0160455
0.015857
0.0156664
0.0154736
0.0152788
0.015082
0.0148833
0.0146826
0.01448
0.0142756
0.0140694
0.0138615
0.0136519
0.0134406
0.0132277
0.0130133
0.0127974
0.01258
0.0123612
0.0121409
0.0119194
0.0116965
0.0114724
0.0112471
0.0110206
0.0107929
0.0105641
0.0103343
0.0101035
0.00987164
0.00963885
0.00940514
0.00917055
0.00893511
0.00869885
0.0084618
0.00822401
0.00798549
0.00774629
0.00750642
0.00726592
0.00702481
0.00678313
0.00654089
0.00629814
0.00605488
0.00581116
0.00556698
0.00532238
0.00507738
0.00483199
0.00458626
0.00434018
0.00409379
0.00384711
0.00360015
0.00335294
0.0031055
0.00285784
0.00260998
0.00236195
0.00211375
0.00186541
0.00161694
0.00136836
0.0011197
0.000870955
0.000622155
0.000373312
0.00012444
0.000141028
0.000423073
0.000705089
0.000987059
0.00126896
0.00155078
0.0018325
0.0021141
0.00239555
0.00267685
0.00295796
0.00323887
0.00351956
0.00380001
0.00408019
0.00436009
0.00463968
0.00491894
0.00519784
0.00547637
0.0057545
0.00603219
0.00630944
0.00658621
0.00686247
0.00713819
0.00741336
0.00768793
0.00796189
0.00823519
0.00850782
0.00877972
0.00905089
0.00932127
0.00959084
0.00985955
0.0101274
0.0103943
0.0106602
0.0109252
0.0111891
0.0114519
0.0117137
0.0119742
0.0122336
0.0124917
0.0127485
0.013004
0.0132581
0.0135108
0.013762
0.0140117
0.0142598
0.0145064
0.0147512
0.0149943
0.0152357
0.0154753
0.015713
0.0159488
0.0161826
0.0164144
0.0166441
0.0168717
0.0170971
0.0173203
0.0175412
0.0177598
0.017976
0.0181897
0.018401
0.0186097
0.0188158
0.0190193
0.0192201
0.0194181
0.0196133
0.0198057
0.0199951
0.0201816
0.0203651
0.0205456
0.020723
0.0208972
0.0210682
0.021236
0.0214005
0.0215617
0.0217195
0.0218739
0.0220249
0.0221724
0.0223163
0.0224567
0.0225935
0.0227266
0.0228561
0.0229818
0.0231038
0.0232221
0.0233365
0.0234471
0.0235539
0.0236567
0.0237557
0.0238507
0.0239418
0.0240288
0.0241119
0.0241909
0.0242659
0.0243368
0.0244036
0.0244664
0.024525
0.0245795
0.0246298
0.024676
0.0247181
0.0247559
0.0247896
0.0248191
0.0248444
0.0248655
0.0248824
0.0248951
0.0249035
0.0249077
0.0249078
0.0249036
0.0248952
0.0248825
0.0248657
0.0248446
0.0248194
0.0247899
0.0247563
0.0247185
0.0246765
0.0246303
0.02458
0.0245256
0.024467
0.0244043
0.0243375
0.0242666
0.0241917
0.0241127
0.0240297
0.0239426
0.0238516
0.0237566
0.0236577
0.0235549
0.0234482
0.0233376
0.0232232
0.023105
0.022983
0.0228573
0.0227279
0.0225948
0.022458
0.0223177
0.0221737
0.0220263
0.0218754
0.021721
0.0215632
0.021402
0.0212375
0.0210698
0.0208988
0.0207246
0.0205472
0.0203668
0.0201833
0.0199968
0.0198074
0.019615
0.0194198
0.0192218
0.0190211
0.0188176
0.0186115
0.0184028
0.0181916
0.0179778
0.0177616
0.0175431
0.0173222
0.017099
0.0168736
0.016646
0.0164162
0.0161844
0.0159506
0.0157148
0.0154772
0.0152376
0.0149962
0.0147531
0.0145082
0.0142617
0.0140135
0.0137638
0.0135126
0.0132599
0.0130058
0.0127503
0.0124935
0.0122353
0.011976
0.0117154
0.0114536
0.0111908
0.0109268
0.0106619
0.0103959
0.010129
0.0098611
0.00959236
0.00932276
0.00905235
0.00878116
0.00850922
0.00823656
0.00796323
0.00768924
0.00741463
0.00713942
0.00686366
0.00658736
0.00631055
0.00603327
0.00575553
0.00547736
0.00519879
0.00491984
0.00464054
0.0043609
0.00408096
0.00380073
0.00352023
0.00323949
0.00295853
0.00267737
0.00239602
0.00211452
0.00183287
0.0015511
0.00126922
0.000987262
0.000705237
0.000423162
0.000141058
0.000157651
0.000472942
0.000788201
0.00110341
0.00141854
0.00173359
0.00204851
0.0023633
0.00267794
0.00299239
0.00330665
0.00362068
0.00393446
0.00424798
0.0045612
0.0048741
0.00518666
0.00549886
0.00581066
0.00612203
0.00643296
0.00674342
0.00705337
0.00736279
0.00767165
0.00797991
0.00828754
0.00859452
0.00890081
0.00920638
0.00951118
0.00981519
0.0101184
0.0104207
0.0107221
0.0110225
0.011322
0.0116204
0.0119178
0.0122141
0.0125092
0.012803
0.0130957
0.0133871
0.0136771
0.0139657
0.0142529
0.0145386
0.0148227
0.0151053
0.0153862
0.0156655
0.015943
0.0162186
0.0164925
0.0167644
0.0170343
0.0173022
0.0175681
0.0178318
0.0180932
0.0183525
0.0186094
0.018864
0.0191161
0.0193657
0.0196128
0.0198573
0.0200991
0.0203381
0.0205744
0.0208079
0.0210384
0.021266
0.0214906
0.021712
0.0219304
0.0221456
0.0223575
0.0225661
0.0227713
0.0229732
0.0231716
0.0233664
0.0235577
0.0237454
0.0239294
0.0241097
0.0242862
0.024459
0.0246278
0.0247928
0.0249538
0.0251108
0.0252638
0.0254127
0.0255575
0.0256982
0.0258347
0.0259669
0.0260949
0.0262186
0.026338
0.0264531
0.0265638
0.02667
0.0267719
0.0268693
0.0269621
0.0270505
0.0271344
0.0272137
0.0272885
0.0273586
0.0274242
0.0274852
0.0275415
0.0275931
0.0276402
0.0276825
0.0277202
0.0277532
0.0277815
0.027805
0.0278239
0.0278381
0.0278476
0.0278523
0.0278523
0.0278476
0.0278382
0.0278241
0.0278053
0.0277817
0.0277535
0.0277205
0.0276829
0.0276406
0.0275936
0.027542
0.0274857
0.0274248
0.0273593
0.0272892
0.0272145
0.0271352
0.0270514
0.026963
0.0268702
0.0267728
0.0266711
0.0265648
0.0264542
0.0263392
0.0262198
0.0260961
0.0259682
0.025836
0.0256995
0.0255589
0.0254141
0.0252652
0.0251123
0.0249553
0.0247943
0.0246294
0.0244606
0.0242879
0.0241114
0.0239311
0.0237471
0.0235595
0.0233682
0.0231734
0.022975
0.0227732
0.0225679
0.0223594
0.0221475
0.0219323
0.021714
0.0214925
0.021268
0.0210404
0.0208099
0.0205765
0.0203402
0.0201011
0.0198593
0.0196149
0.0193678
0.0191182
0.018866
0.0186115
0.0183546
0.0180953
0.0178338
0.0175701
0.0173043
0.0170364
0.0167664
0.0164945
0.0162207
0.015945
0.0156675
0.0153883
0.0151073
0.0148247
0.0145406
0.0142549
0.0139677
0.013679
0.013389
0.0130976
0.0128049
0.012511
0.0122159
0.0119196
0.0116222
0.0113237
0.0110243
0.0107238
0.0104223
0.01012
0.00981679
0.00951274
0.0092079
0.0089023
0.00859597
0.00828895
0.00798128
0.00767297
0.00736407
0.00705461
0.00674462
0.00643411
0.00612314
0.00581171
0.00549986
0.00518762
0.00487501
0.00456205
0.00424878
0.00393521
0.00362137
0.00330729
0.00299298
0.00267846
0.00236377
0.00204892
0.00173393
0.00141883
0.00110363
0.000788366
0.000473042
0.000157684
0.000174285
0.000522843
0.000871366
0.00121983
0.00156822
0.0019165
0.00226466
0.00261267
0.00296051
0.00330815
0.00365557
0.00400274
0.00434964
0.00469625
0.00504253
0.00538846
0.00573402
0.00607917
0.00642389
0.00676815
0.00711191
0.00745516
0.00779784
0.00813994
0.00848143
0.00882225
0.00916239
0.00950181
0.00984047
0.0101783
0.0105153
0.0108515
0.0111867
0.011521
0.0118543
0.0121865
0.0125176
0.0128476
0.0131765
0.0135041
0.0138304
0.0141554
0.014479
0.0148012
0.015122
0.0154411
0.0157587
0.0160747
0.016389
0.0167015
0.0170122
0.017321
0.0176279
0.0179328
0.0182356
0.0185364
0.0188349
0.0191313
0.0194253
0.019717
0.0200062
0.0202929
0.0205771
0.0208587
0.0211376
0.0214137
0.021687
0.0219574
0.0222249
0.0224893
0.0227507
0.023009
0.023264
0.0235157
0.0237641
0.0240091
0.0242507
0.0244887
0.0247231
0.0249539
0.025181
0.0254043
0.0256237
0.0258393
0.0260509
0.0262585
0.0264621
0.0266615
0.0268568
0.0270479
0.0272347
0.0274172
0.0275953
0.027769
0.0279382
0.028103
0.0282631
0.0284188
0.0285697
0.028716
0.0288576
0.0289945
0.0291266
0.0292538
0.0293763
0.0294938
0.0296065
0.0297142
0.0298169
0.0299147
0.0300075
0.0300952
0.0301779
0.0302555
0.0303281
0.0303955
0.0304578
0.0305149
0.0305669
0.0306138
0.0306554
0.0306919
0.0307232
0.0307493
0.0307702
0.0307859
0.0307963
0.0308016
0.0308016
0.0307964
0.030786
0.0307704
0.0307496
0.0307235
0.0306923
0.0306558
0.0306142
0.0305674
0.0305155
0.0304584
0.0303961
0.0303287
0.0302563
0.0301787
0.0300961
0.0300084
0.0299157
0.0298179
0.0297152
0.0296075
0.0294949
0.0293774
0.0292551
0.0291278
0.0289958
0.028859
0.0287174
0.0285712
0.0284202
0.0282647
0.0281045
0.0279398
0.0277706
0.0275969
0.0274189
0.0272364
0.0270496
0.0268586
0.0266634
0.0264639
0.0262604
0.0260528
0.0258412
0.0256257
0.0254063
0.025183
0.024956
0.0247252
0.0244908
0.0242528
0.0240113
0.0237663
0.0235179
0.0232662
0.0230112
0.0227529
0.0224916
0.0222271
0.0219597
0.0216893
0.021416
0.0211398
0.020861
0.0205794
0.0202952
0.0200085
0.0197193
0.0194276