/*--------------------------------*- C++ -*----------------------------------*\
| =========                 |                                                 |
| \\      /  F ield         | OpenFOAM: The Open Source CFD Toolbox           |
|  \\    /   O peration     | Version:  v2012                                 |
|   \\  /    A nd           | Website:  www.openfoam.com                      |
|    \\/     M anipulation  |                                                 |
\*---------------------------------------------------------------------------*/
FoamFile
{
    version     2.0;
    format      ascii;
    class       surfaceScalarField;
    location    "4.9";
    object      phi;
}
// * * * * * * * * * * * * * * * * * * * * * * * * * * * * * * * * * * * * * //

dimensions      [0 3 -1 0 0 0 0];
oriented        oriented;


internalField   nonuniform List<scalar> 
130560
(
3.62106e-06
-3.62106e-06
7.24196e-06
-3.6209e-06
1.08625e-05
-3.62058e-06
1.44826e-05
-3.62009e-06
1.81021e-05
-3.61944e-06
2.17207e-05
-3.61863e-06
2.53383e-05
-3.61764e-06
2.89548e-05
-3.61647e-06
3.25699e-05
-3.61513e-06
3.61836e-05
-3.61361e-06
3.97954e-05
-3.61189e-06
4.34054e-05
-3.60998e-06
4.70133e-05
-3.60786e-06
5.06188e-05
-3.60553e-06
5.42218e-05
-3.60298e-06
5.7822e-05
-3.60021e-06
6.14192e-05
-3.59719e-06
6.50131e-05
-3.59393e-06
6.86035e-05
-3.5904e-06
7.21901e-05
-3.58661e-06
7.57727e-05
-3.58254e-06
7.93508e-05
-3.57817e-06
8.29243e-05
-3.57349e-06
8.64928e-05
-3.56849e-06
9.0056e-05
-3.56316e-06
9.36135e-05
-3.55748e-06
9.71649e-05
-3.55144e-06
0.00010071
-3.54502e-06
0.000104248
-3.53821e-06
0.000107779
-3.53099e-06
0.000111302
-3.52334e-06
0.000114818
-3.51525e-06
0.000118324
-3.5067e-06
0.000121822
-3.49767e-06
0.00012531
-3.48815e-06
0.000128788
-3.47812e-06
0.000132256
-3.46757e-06
0.000135712
-3.45646e-06
0.000139157
-3.44479e-06
0.00014259
-3.43254e-06
0.000146009
-3.41968e-06
0.000149416
-3.40621e-06
0.000152808
-3.3921e-06
0.000156185
-3.37734e-06
0.000159547
-3.3619e-06
0.000162893
-3.34577e-06
0.000166222
-3.32893e-06
0.000169533
-3.31137e-06
0.000172826
-3.29306e-06
0.0001761
-3.27399e-06
0.000179354
-3.25415e-06
0.000182588
-3.23352e-06
0.0001858
-3.21208e-06
0.00018899
-3.18982e-06
0.000192156
-3.16672e-06
0.000195299
-3.14277e-06
0.000198417
-3.11796e-06
0.000201509
-3.09228e-06
0.000204575
-3.06571e-06
0.000207613
-3.03824e-06
0.000210623
-3.00987e-06
0.000213604
-2.98058e-06
0.000216554
-2.95036e-06
0.000219473
-2.91922e-06
0.00022236
-2.88714e-06
0.000225215
-2.85412e-06
0.000228035
-2.82015e-06
0.00023082
-2.78524e-06
0.000233569
-2.74937e-06
0.000236282
-2.71256e-06
0.000238957
-2.6748e-06
0.000241593
-2.63609e-06
0.000244189
-2.59644e-06
0.000246745
-2.55585e-06
0.000249259
-2.51433e-06
0.000251731
-2.47188e-06
0.00025416
-2.42852e-06
0.000256544
-2.38426e-06
0.000258883
-2.33909e-06
0.000261176
-2.29305e-06
0.000263422
-2.24614e-06
0.000265621
-2.19838e-06
0.000267771
-2.14978e-06
0.000269871
-2.10036e-06
0.000271921
-2.05014e-06
0.00027392
-1.99915e-06
0.000275868
-1.9474e-06
0.000277763
-1.89492e-06
0.000279604
-1.84172e-06
0.000281392
-1.78784e-06
0.000283125
-1.73331e-06
0.000284804
-1.67814e-06
0.000286426
-1.62236e-06
0.000287992
-1.56601e-06
0.000289501
-1.50912e-06
0.000290953
-1.45171e-06
0.000292347
-1.39382e-06
0.000293682
-1.33548e-06
0.000294959
-1.27671e-06
0.000296176
-1.21757e-06
0.000297334
-1.15807e-06
0.000298433
-1.09825e-06
0.000299471
-1.03814e-06
0.000300449
-9.77791e-07
0.000301366
-9.17223e-07
0.000302222
-8.56475e-07
0.000303018
-7.95581e-07
0.000303752
-7.34576e-07
0.000304426
-6.73495e-07
0.000305038
-6.12373e-07
0.00030559
-5.51244e-07
0.00030608
-4.90142e-07
0.000306509
-4.291e-07
0.000306877
-3.68153e-07
0.000307184
-3.07332e-07
0.000307431
-2.4667e-07
0.000307617
-1.86198e-07
0.000307743
-1.25948e-07
0.000307809
-6.59508e-08
0.000307815
-6.23479e-09
0.000307762
5.31706e-08
0.00030765
1.12237e-07
0.000307479
1.70938e-07
0.00030725
2.29247e-07
0.000306963
2.87138e-07
0.000306618
3.44587e-07
0.000306216
4.0157e-07
0.000305758
4.58065e-07
0.000305244
5.14049e-07
0.000304675
5.69504e-07
0.00030405
6.24408e-07
0.000303372
6.78744e-07
0.000302639
7.32493e-07
0.000301853
7.8564e-07
0.000301015
8.38169e-07
0.000300125
8.90065e-07
0.000299184
9.41315e-07
0.000298192
9.91907e-07
0.00029715
1.04183e-06
0.000296059
1.09107e-06
0.000294919
1.13962e-06
0.000293732
1.18747e-06
0.000292497
1.23462e-06
0.000291216
1.28105e-06
0.00028989
1.32677e-06
0.000288518
1.37176e-06
0.000287102
1.41602e-06
0.000285642
1.45955e-06
0.00028414
1.50234e-06
0.000282595
1.5444e-06
0.00028101
1.58572e-06
0.000279383
1.62631e-06
0.000277717
1.66615e-06
0.000276012
1.70526e-06
0.000274268
1.74363e-06
0.000272487
1.78127e-06
0.000270669
1.81818e-06
0.000268815
1.85436e-06
0.000266925
1.88981e-06
0.000265
1.92455e-06
0.000263042
1.95856e-06
0.00026105
1.99187e-06
0.000259025
2.02447e-06
0.000256969
2.05637e-06
0.000254881
2.08757e-06
0.000252763
2.11809e-06
0.000250615
2.14792e-06
0.000248438
2.17708e-06
0.000246233
2.20557e-06
0.000243999
2.2334e-06
0.000241739
2.26058e-06
0.000239452
2.28711e-06
0.000237139
2.313e-06
0.0002348
2.33826e-06
0.000232438
2.3629e-06
0.000230051
2.38692e-06
0.00022764
2.41034e-06
0.000225207
2.43317e-06
0.000222752
2.4554e-06
0.000220275
2.47706e-06
0.000217776
2.49814e-06
0.000215258
2.51867e-06
0.000212719
2.53864e-06
0.000210161
2.55806e-06
0.000207584
2.57695e-06
0.000204989
2.59531e-06
0.000202376
2.61316e-06
0.000199745
2.63049e-06
0.000197098
2.64733e-06
0.000194434
2.66367e-06
0.000191755
2.67953e-06
0.00018906
2.69492e-06
0.00018635
2.70985e-06
0.000183626
2.72432e-06
0.000180887
2.73834e-06
0.000178135
2.75193e-06
0.00017537
2.76508e-06
0.000172592
2.77782e-06
0.000169802
2.79015e-06
0.000167
2.80207e-06
0.000164187
2.8136e-06
0.000161362
2.82474e-06
0.000158526
2.8355e-06
0.00015568
2.8459e-06
0.000152825
2.85593e-06
0.000149959
2.86562e-06
0.000147084
2.87496e-06
0.0001442
2.88396e-06
0.000141307
2.89264e-06
0.000138406
2.901e-06
0.000135497
2.90904e-06
0.000132581
2.91678e-06
0.000129656
2.92423e-06
0.000126725
2.93138e-06
0.000123787
2.93826e-06
0.000120842
2.94486e-06
0.000117891
2.9512e-06
0.000114933
2.95727e-06
0.00011197
2.9631e-06
0.000109002
2.96868e-06
0.000106028
2.97402e-06
0.000103048
2.97913e-06
0.000100064
2.98402e-06
9.70757e-05
2.98868e-06
9.40826e-05
2.99314e-06
9.10852e-05
2.99739e-06
8.80837e-05
3.00144e-06
8.50784e-05
3.0053e-06
8.20695e-05
3.00897e-06
7.9057e-05
3.01245e-06
7.60413e-05
3.01576e-06
7.30224e-05
3.0189e-06
7.00005e-05
3.02187e-06
6.69758e-05
3.02468e-06
6.39485e-05
3.02733e-06
6.09186e-05
3.02983e-06
5.78865e-05
3.03218e-06
5.48521e-05
3.03439e-06
5.18156e-05
3.03645e-06
4.87772e-05
3.03838e-06
4.57371e-05
3.04018e-06
4.26952e-05
3.04185e-06
3.96518e-05
3.0434e-06
3.6607e-05
3.04482e-06
3.35609e-05
3.04612e-06
3.05136e-05
3.0473e-06
2.74652e-05
3.04837e-06
2.44159e-05
3.04932e-06
2.13657e-05
3.05016e-06
1.83148e-05
3.0509e-06
1.52633e-05
3.05152e-06
1.22113e-05
3.05204e-06
9.15881e-06
3.05246e-06
6.10605e-06
3.05277e-06
3.05307e-06
3.05297e-06
3.05307e-06
3.62122e-06
-7.24228e-06
7.24227e-06
-7.24196e-06
1.0863e-05
-7.24131e-06
1.44833e-05
-7.24034e-06
1.81029e-05
-7.23905e-06
2.17217e-05
-7.23742e-06
2.53395e-05
-7.23545e-06
2.89561e-05
-7.23312e-06
3.25714e-05
-7.23045e-06
3.61852e-05
-7.2274e-06
3.97973e-05
-7.22397e-06
4.34075e-05
-7.22015e-06
4.70156e-05
-7.21593e-06
5.06213e-05
-7.21128e-06
5.42245e-05
-7.20619e-06
5.78249e-05
-7.20065e-06
6.14224e-05
-7.19462e-06
6.50166e-05
-7.18811e-06
6.86072e-05
-7.18107e-06
7.21941e-05
-7.1735e-06
7.57769e-05
-7.16536e-06
7.93554e-05
-7.15663e-06
8.29292e-05
-7.1473e-06
8.6498e-05
-7.13732e-06
9.00615e-05
-7.12667e-06
9.36194e-05
-7.11533e-06
9.71712e-05
-7.10326e-06
0.000100717
-7.09043e-06
0.000104255
-7.07682e-06
0.000107787
-7.06239e-06
0.00011131
-7.04711e-06
0.000114826
-7.03095e-06
0.000118333
-7.01387e-06
0.000121831
-6.99584e-06
0.00012532
-6.97682e-06
0.000128799
-6.95677e-06
0.000132267
-6.93567e-06
0.000135724
-6.91348e-06
0.000139169
-6.89016e-06
0.000142602
-6.86567e-06
0.000146023
-6.83998e-06
0.00014943
-6.81306e-06
0.000152822
-6.78485e-06
0.0001562
-6.75534e-06
0.000159563
-6.72448e-06
0.000162909
-6.69224e-06
0.000166239
-6.65858e-06
0.000169551
-6.62347e-06
0.000172845
-6.58688e-06
0.00017612
-6.54876e-06
0.000179375
-6.50909e-06
0.000182609
-6.46784e-06
0.000185822
-6.42498e-06
0.000189013
-6.38047e-06
0.00019218
-6.33429e-06
0.000195324
-6.28641e-06
0.000198443
-6.2368e-06
0.000201536
-6.18544e-06
0.000204602
-6.13231e-06
0.000207641
-6.07739e-06
0.000210652
-6.02065e-06
0.000213634
-5.96208e-06
0.000216585
-5.90166e-06
0.000219505
-5.83938e-06
0.000222393
-5.77522e-06
0.000225248
-5.70918e-06
0.000228069
-5.64125e-06
0.000230856
-5.57142e-06
0.000233606
-5.49969e-06
0.000236319
-5.42607e-06
0.000238995
-5.35054e-06
0.000241632
-5.27312e-06
0.00024423
-5.19382e-06
0.000246786
-5.11263e-06
0.000249302
-5.02958e-06
0.000251774
-4.94468e-06
0.000254204
-4.85795e-06
0.000256589
-4.76941e-06
0.000258929
-4.67907e-06
0.000261223
-4.58697e-06
0.00026347
-4.49313e-06
0.000265669
-4.39759e-06
0.00026782
-4.30037e-06
0.000269921
-4.20152e-06
0.000271972
-4.10107e-06
0.000273972
-3.99906e-06
0.00027592
-3.89554e-06
0.000277815
-3.79054e-06
0.000279658
-3.68413e-06
0.000281446
-3.57635e-06
0.00028318
-3.46724e-06
0.000284859
-3.35687e-06
0.000286482
-3.2453e-06
0.000288049
-3.13257e-06
0.000289558
-3.01875e-06
0.00029101
-2.90391e-06
0.000292405
-2.78809e-06
0.000293741
-2.67137e-06
0.000295018
-2.55382e-06
0.000296236
-2.43549e-06
0.000297394
-2.31645e-06
0.000298492
-2.19678e-06
0.000299531
-2.07654e-06
0.000300509
-1.9558e-06
0.000301426
-1.83463e-06
0.000302283
-1.7131e-06
0.000303079
-1.59127e-06
0.000303813
-1.46923e-06
0.000304487
-1.34703e-06
0.000305099
-1.22476e-06
0.00030565
-1.10246e-06
0.00030614
-9.80226e-07
0.000306569
-8.58109e-07
0.000306938
-7.36181e-07
0.000307245
-6.14507e-07
0.000307491
-4.93151e-07
0.000307677
-3.72177e-07
0.000307803
-2.51648e-07
0.000307869
-1.31623e-07
0.000307874
-1.21618e-08
0.000307821
1.06677e-07
0.000307708
2.24838e-07
0.000307537
3.42266e-07
0.000307307
4.58908e-07
0.00030702
5.74715e-07
0.000306675
6.89636e-07
0.000306273
8.03625e-07
0.000305814
9.16636e-07
0.0003053
1.02863e-06
0.000304729
1.13955e-06
0.000304104
1.24938e-06
0.000303425
1.35807e-06
0.000302692
1.46559e-06
0.000301906
1.5719e-06
0.000301067
1.67697e-06
0.000300176
1.78077e-06
0.000299234
1.88329e-06
0.000298242
1.98448e-06
0.000297199
2.08433e-06
0.000296108
2.18283e-06
0.000294967
2.27994e-06
0.000293779
2.37565e-06
0.000292544
2.46995e-06
0.000291262
2.56282e-06
0.000289934
2.65425e-06
0.000288562
2.74424e-06
0.000287145
2.83276e-06
0.000285685
2.91982e-06
0.000284182
3.00542e-06
0.000282637
3.08954e-06
0.00028105
3.17218e-06
0.000279423
3.25335e-06
0.000277756
3.33304e-06
0.00027605
3.41125e-06
0.000274306
3.48799e-06
0.000272524
3.56327e-06
0.000270705
3.63708e-06
0.00026885
3.70944e-06
0.000266959
3.78034e-06
0.000265034
3.84981e-06
0.000263075
3.91784e-06
0.000261082
3.98444e-06
0.000259057
4.04964e-06
0.000257
4.11343e-06
0.000254912
4.17583e-06
0.000252793
4.23686e-06
0.000250645
4.29652e-06
0.000248467
4.35483e-06
0.000246261
4.4118e-06
0.000244027
4.46745e-06
0.000241765
4.52179e-06
0.000239478
4.57485e-06
0.000237164
4.62662e-06
0.000234825
4.67714e-06
0.000232462
4.72641e-06
0.000230074
4.77445e-06
0.000227663
4.82128e-06
0.000225229
4.86692e-06
0.000222773
4.91138e-06
0.000220296
4.95469e-06
0.000217797
4.99685e-06
0.000215278
5.03788e-06
0.000212739
5.07781e-06
0.00021018
5.11665e-06
0.000207603
5.15442e-06
0.000205007
5.19114e-06
0.000202393
5.22682e-06
0.000199762
5.26148e-06
0.000197114
5.29514e-06
0.00019445
5.32782e-06
0.00019177
5.35954e-06
0.000189075
5.39031e-06
0.000186364
5.42015e-06
0.00018364
5.44908e-06
0.000180901
5.47712e-06
0.000178148
5.50428e-06
0.000175383
5.53059e-06
0.000172605
5.55605e-06
0.000169814
5.58069e-06
0.000167012
5.60453e-06
0.000164198
5.62758e-06
0.000161373
5.64985e-06
0.000158537
5.67137e-06
0.000155691
5.69216e-06
0.000152834
5.71222e-06
0.000149968
5.73158e-06
0.000147093
5.75025e-06
0.000144209
5.76825e-06
0.000141316
5.7856e-06
0.000138414
5.8023e-06
0.000135505
5.81838e-06
0.000132588
5.83386e-06
0.000129663
5.84874e-06
0.000126732
5.86305e-06
0.000123793
5.87679e-06
0.000120848
5.88999e-06
0.000117897
5.90265e-06
0.000114939
5.9148e-06
0.000111976
5.92644e-06
0.000109007
5.93759e-06
0.000106033
5.94827e-06
0.000103053
5.95849e-06
0.000100069
5.96825e-06
9.70802e-05
5.97758e-06
9.40868e-05
5.98649e-06
9.10893e-05
5.99498e-06
8.80876e-05
6.00308e-06
8.50821e-05
6.01078e-06
8.2073e-05
6.01812e-06
7.90604e-05
6.02508e-06
7.60444e-05
6.0317e-06
7.30254e-05
6.03797e-06
7.00033e-05
6.0439e-06
6.69785e-05
6.04951e-06
6.3951e-05
6.05481e-06
6.0921e-05
6.05981e-06
5.78887e-05
6.06451e-06
5.48542e-05
6.06891e-06
5.18176e-05
6.07305e-06
4.87791e-05
6.0769e-06
4.57387e-05
6.0805e-06
4.26968e-05
6.08383e-06
3.96532e-05
6.08691e-06
3.66083e-05
6.08975e-06
3.35621e-05
6.09235e-06
3.05147e-05
6.09471e-06
2.74662e-05
6.09685e-06
2.44168e-05
6.09875e-06
2.13665e-05
6.10044e-06
1.83155e-05
6.1019e-06
1.52638e-05
6.10315e-06
1.22117e-05
6.10419e-06
9.15913e-06
6.10502e-06
6.10626e-06
6.10564e-06
3.05318e-06
6.10605e-06
6.10625e-06
3.62154e-06
-1.08638e-05
7.24292e-06
-1.08633e-05
1.0864e-05
-1.08624e-05
1.44846e-05
-1.08609e-05
1.81045e-05
-1.0859e-05
2.17236e-05
-1.08566e-05
2.53418e-05
-1.08536e-05
2.89588e-05
-1.08501e-05
3.25745e-05
-1.08461e-05
3.61887e-05
-1.08416e-05
3.98012e-05
-1.08365e-05
4.34117e-05
-1.08307e-05
4.70202e-05
-1.08244e-05
5.06264e-05
-1.08175e-05
5.42301e-05
-1.08099e-05
5.7831e-05
-1.08016e-05
6.14289e-05
-1.07926e-05
6.50236e-05
-1.07828e-05
6.86149e-05
-1.07723e-05
7.22023e-05
-1.0761e-05
7.57857e-05
-1.07488e-05
7.93648e-05
-1.07357e-05
8.29393e-05
-1.07217e-05
8.65087e-05
-1.07068e-05
9.0073e-05
-1.06909e-05
9.36315e-05
-1.06739e-05
9.71841e-05
-1.06558e-05
0.00010073
-1.06366e-05
0.00010427
-1.06163e-05
0.000107802
-1.05947e-05
0.000111327
-1.05718e-05
0.000114843
-1.05476e-05
0.000118351
-1.0522e-05
0.000121851
-1.0495e-05
0.00012534
-1.04665e-05
0.00012882
-1.04365e-05
0.000132289
-1.04049e-05
0.000135747
-1.03716e-05
0.000139194
-1.03367e-05
0.000142628
-1.03e-05
0.00014605
-1.02615e-05
0.000149458
-1.02212e-05
0.000152852
-1.01789e-05
0.000156231
-1.01347e-05
0.000159595
-1.00884e-05
0.000162943
-1.00401e-05
0.000166274
-9.98969e-06
0.000169588
-9.93706e-06
0.000172883
-9.88221e-06
0.000176159
-9.82508e-06
0.000179416
-9.76562e-06
0.000182652
-9.70378e-06
0.000185866
-9.63952e-06
0.000189059
-9.57279e-06
0.000192228
-9.50356e-06
0.000195373
-9.43177e-06
0.000198494
-9.35739e-06
0.000201589
-9.28038e-06
0.000204657
-9.20071e-06
0.000207698
-9.11835e-06
0.000210711
-9.03326e-06
0.000213694
-8.94542e-06
0.000216647
-8.85481e-06
0.000219569
-8.7614e-06
0.000222459
-8.66518e-06
0.000225316
-8.56613e-06
0.000228139
-8.46424e-06
0.000230927
-8.35951e-06
0.00023368
-8.25192e-06
0.000236395
-8.14147e-06
0.000239073
-8.02818e-06
0.000241712
-7.91204e-06
0.000244311
-7.79307e-06
0.00024687
-7.67128e-06
0.000249387
-7.54669e-06
0.000251861
-7.41932e-06
0.000254293
-7.28919e-06
0.000256679
-7.15635e-06
0.000259021
-7.02081e-06
0.000261317
-6.88262e-06
0.000263566
-6.74183e-06
0.000265766
-6.59847e-06
0.000267919
-6.4526e-06
0.000270021
-6.30428e-06
0.000272074
-6.15355e-06
0.000274075
-6.00048e-06
0.000276025
-5.84514e-06
0.000277922
-5.68759e-06
0.000279766
-5.52791e-06
0.000281556
-5.36617e-06
0.000283291
-5.20244e-06
0.000284971
-5.03682e-06
0.000286595
-4.86939e-06
0.000288162
-4.70022e-06
0.000289673
-4.52942e-06
0.000291126
-4.35707e-06
0.000292521
-4.18327e-06
0.000293858
-4.00811e-06
0.000295136
-3.83169e-06
0.000296355
-3.65411e-06
0.000297514
-3.47547e-06
0.000298613
-3.29588e-06
0.000299652
-3.11543e-06
0.00030063
-2.93424e-06
0.000301548
-2.75239e-06
0.000302405
-2.57001e-06
0.000303201
-2.38719e-06
0.000303936
-2.20403e-06
0.000304609
-2.02066e-06
0.000305222
-1.83715e-06
0.000305773
-1.65363e-06
0.000306263
-1.47019e-06
0.000306692
-1.28693e-06
0.000307059
-1.10395e-06
0.000307366
-9.21363e-07
0.000307612
-7.3925e-07
0.000307798
-5.57711e-07
0.000307923
-3.76841e-07
0.000307988
-1.96729e-07
0.000307993
-1.74655e-08
0.000307939
1.60863e-07
0.000307826
3.38172e-07
0.000307654
5.1438e-07
0.000307423
6.89408e-07
0.000307135
8.63179e-07
0.000306789
1.03562e-06
0.000306386
1.20666e-06
0.000305926
1.37623e-06
0.000305411
1.54427e-06
0.000304839
1.71071e-06
0.000304213
1.87549e-06
0.000303533
2.03857e-06
0.000302798
2.19989e-06
0.000302011
2.35939e-06
0.000301171
2.51703e-06
0.000300279
2.67278e-06
0.000299336
2.82658e-06
0.000298342
2.9784e-06
0.000297298
3.1282e-06
0.000296205
3.27596e-06
0.000295063
3.42165e-06
0.000293873
3.56524e-06
0.000292637
3.7067e-06
0.000291353
3.84603e-06
0.000290024
3.98319e-06
0.000288651
4.11818e-06
0.000287232
4.25097e-06
0.000285771
4.38157e-06
0.000284266
4.50997e-06
0.000282719
4.63615e-06
0.000281131
4.76011e-06
0.000279503
4.88186e-06
0.000277835
5.0014e-06
0.000276127
5.11872e-06
0.000274381
5.23383e-06
0.000272598
5.34673e-06
0.000270777
5.45744e-06
0.000268921
5.56597e-06
0.000267029
5.67232e-06
0.000265102
5.7765e-06
0.000263142
5.87853e-06
0.000261148
5.97843e-06
0.000259121
6.07621e-06
0.000257063
6.17188e-06
0.000254973
6.26547e-06
0.000252853
6.35699e-06
0.000250703
6.44646e-06
0.000248524
6.53391e-06
0.000246316
6.61935e-06
0.000244081
6.70281e-06
0.000241818
6.78431e-06
0.000239529
6.86386e-06
0.000237214
6.94151e-06
0.000234874
7.01726e-06
0.00023251
7.09114e-06
0.000230121
7.16319e-06
0.000227709
7.23342e-06
0.000225274
7.30185e-06
0.000222817
7.36852e-06
0.000220338
7.43346e-06
0.000217838
7.49668e-06
0.000215318
7.55821e-06
0.000212777
7.61808e-06
0.000210218
7.67632e-06
0.000207639
7.73295e-06
0.000205042
7.788e-06
0.000202428
7.8415e-06
0.000199796
7.89347e-06
0.000197147
7.94394e-06
0.000194482
7.99294e-06
0.000191801
8.04049e-06
0.000189105
8.08663e-06
0.000186393
8.13137e-06
0.000183668
8.17474e-06
0.000180928
8.21678e-06
0.000178175
8.2575e-06
0.000175408
8.29693e-06
0.000172629
8.33511e-06
0.000169838
8.37205e-06
0.000167035
8.40778e-06
0.00016422
8.44233e-06
0.000161394
8.47572e-06
0.000158558
8.50798e-06
0.000155711
8.53914e-06
0.000152854
8.56921e-06
0.000149987
8.59823e-06
0.000147111
8.62622e-06
0.000144226
8.6532e-06
0.000141332
8.67919e-06
0.000138431
8.70423e-06
0.000135521
8.72834e-06
0.000132603
8.75153e-06
0.000129678
8.77383e-06
0.000126746
8.79527e-06
0.000123806
8.81587e-06
0.000120861
8.83565e-06
0.000117909
8.85463e-06
0.000114951
8.87283e-06
0.000111987
8.89027e-06
0.000109018
8.90699e-06
0.000106043
8.92299e-06
0.000103063
8.93829e-06
0.000100078
8.95292e-06
9.70891e-05
8.9669e-06
9.40953e-05
8.98024e-06
9.10973e-05
8.99297e-06
8.80953e-05
9.0051e-06
8.50895e-05
9.01665e-06
8.20799e-05
9.02763e-06
7.9067e-05
9.03807e-06
7.60507e-05
9.04797e-06
7.30313e-05
9.05736e-06
7.00089e-05
9.06626e-06
6.69838e-05
9.07466e-06
6.3956e-05
9.0826e-06
6.09257e-05
9.09008e-06
5.78931e-05
9.09712e-06
5.48583e-05
9.10372e-06
5.18214e-05
9.10991e-06
4.87827e-05
9.11569e-06
4.57421e-05
9.12107e-06
4.26998e-05
9.12606e-06
3.96561e-05
9.13068e-06
3.66109e-05
9.13493e-06
3.35644e-05
9.13882e-06
3.05168e-05
9.14236e-06
2.74681e-05
9.14555e-06
2.44184e-05
9.1484e-06
2.13679e-05
9.15093e-06
1.83167e-05
9.15312e-06
1.52649e-05
9.155e-06
1.22125e-05
9.15655e-06
9.15975e-06
9.15779e-06
6.10667e-06
9.15872e-06
3.05338e-06
9.15933e-06
9.15964e-06
3.62203e-06
-1.44858e-05
7.24389e-06
-1.44852e-05
1.08654e-05
-1.44839e-05
1.44865e-05
-1.4482e-05
1.8107e-05
-1.44794e-05
2.17266e-05
-1.44762e-05
2.53453e-05
-1.44723e-05
2.89629e-05
-1.44677e-05
3.25791e-05
-1.44624e-05
3.61938e-05
-1.44563e-05
3.98069e-05
-1.44495e-05
4.34181e-05
-1.44419e-05
4.70272e-05
-1.44335e-05
5.06341e-05
-1.44243e-05
5.42384e-05
-1.44142e-05
5.78401e-05
-1.44032e-05
6.14388e-05
-1.43912e-05
6.50342e-05
-1.43783e-05
6.86263e-05
-1.43643e-05
7.22146e-05
-1.43493e-05
7.57989e-05
-1.43331e-05
7.93789e-05
-1.43157e-05
8.29543e-05
-1.42972e-05
8.65248e-05
-1.42773e-05
9.009e-05
-1.42561e-05
9.36497e-05
-1.42336e-05
9.72034e-05
-1.42095e-05
0.000100751
-1.4184e-05
0.000104291
-1.41569e-05
0.000107825
-1.41282e-05
0.000111351
-1.40978e-05
0.000114869
-1.40656e-05
0.000118379
-1.40315e-05
0.000121879
-1.39956e-05
0.00012537
-1.39577e-05
0.000128852
-1.39178e-05
0.000132323
-1.38757e-05
0.000135782
-1.38315e-05
0.000139231
-1.3785e-05
0.000142667
-1.37362e-05
0.00014609
-1.36849e-05
0.0001495
-1.36312e-05
0.000152896
-1.3575e-05
0.000156278
-1.35161e-05
0.000159644
-1.34545e-05
0.000162994
-1.33902e-05
0.000166327
-1.3323e-05
0.000169643
-1.32529e-05
0.00017294
-1.31798e-05
0.000176219
-1.31037e-05
0.000179478
-1.30245e-05
0.000182716
-1.29421e-05
0.000185933
-1.28565e-05
0.000189128
-1.27676e-05
0.0001923
-1.26754e-05
0.000195448
-1.25797e-05
0.000198571
-1.24806e-05
0.000201669
-1.2378e-05
0.00020474
-1.22718e-05
0.000207784
-1.2162e-05
0.000210799
-1.20486e-05
0.000213785
-1.19315e-05
0.000216741
-1.18108e-05
0.000219666
-1.16863e-05
0.000222559
-1.1558e-05
0.000225418
-1.14259e-05
0.000228244
-1.12901e-05
0.000231035
-1.11504e-05
0.00023379
-1.1007e-05
0.000236509
-1.08597e-05
0.000239189
-1.07087e-05
0.000241831
-1.05538e-05
0.000244433
-1.03951e-05
0.000246994
-1.02327e-05
0.000249514
-1.00666e-05
0.000251992
-9.8967e-06
0.000254426
-9.72316e-06
0.000256815
-9.54598e-06
0.00025916
-9.3652e-06
0.000261458
-9.18089e-06
0.000263709
-8.99309e-06
0.000265913
-8.80187e-06
0.000268067
-8.6073e-06
0.000270172
-8.40944e-06
0.000272227
-8.20837e-06
0.000274231
-8.00418e-06
0.000276183
-7.79695e-06
0.000278082
-7.58677e-06
0.000279928
-7.37374e-06
0.00028172
-7.15797e-06
0.000283457
-6.93954e-06
0.000285138
-6.71859e-06
0.000286764
-6.4952e-06
0.000288333
-6.26951e-06
0.000289846
-6.04163e-06
0.0002913
-5.81168e-06
0.000292697
-5.5798e-06
0.000294035
-5.3461e-06
0.000295314
-5.11072e-06
0.000296534
-4.87379e-06
0.000297694
-4.63545e-06
0.000298793
-4.39583e-06
0.000299833
-4.15508e-06
0.000300812
-3.91332e-06
0.000301731
-3.6707e-06
0.000302588
-3.42736e-06
0.000303384
-3.18343e-06
0.000304119
-2.93907e-06
0.000304793
-2.6944e-06
0.000305405
-2.44957e-06
0.000305956
-2.20471e-06
0.000306446
-1.95996e-06
0.000306875
-1.71546e-06
0.000307242
-1.47134e-06
0.000307548
-1.22774e-06
0.000307794
-9.84772e-07
0.000307979
-7.42576e-07
0.000308103
-5.01273e-07
0.000308168
-2.60985e-07
0.000308172
-2.18324e-08
0.000308117
2.1607e-07
0.000308002
4.52609e-07
0.000307829
6.87676e-07
0.000307597
9.21166e-07
0.000307307
1.15297e-06
0.00030696
1.38301e-06
0.000306556
1.61116e-06
0.000306094
1.83736e-06
0.000305577
2.0615e-06
0.000305004
2.28352e-06
0.000304377
2.50332e-06
0.000303694
2.72084e-06
0.000302958
2.936e-06
0.000302169
3.14874e-06
0.000301327
3.359e-06
0.000300433
3.56672e-06
0.000299488
3.77185e-06
0.000298492
3.97433e-06
0.000297446
4.17412e-06
0.000296351
4.37118e-06
0.000295207
4.56547e-06
0.000294015
4.75696e-06
0.000292776
4.94561e-06
0.000291491
5.1314e-06
0.00029016
5.3143e-06
0.000288783
5.49431e-06
0.000287363
5.67139e-06
0.000285899
5.84553e-06
0.000284392
6.01673e-06
0.000282844
6.18498e-06
0.000281253
6.35027e-06
0.000279623
6.5126e-06
0.000277952
6.67197e-06
0.000276242
6.82839e-06
0.000274494
6.98186e-06
0.000272709
7.13239e-06
0.000270886
7.27999e-06
0.000269027
7.42468e-06
0.000267133
7.56645e-06
0.000265204
7.70535e-06
0.000263242
7.84137e-06
0.000261245
7.97454e-06
0.000259217
8.10488e-06
0.000257156
8.23242e-06
0.000255065
8.35718e-06
0.000252942
8.47917e-06
0.00025079
8.59844e-06
0.000248609
8.715e-06
0.0002464
8.82889e-06
0.000244162
8.94013e-06
0.000241898
9.04876e-06
0.000239607
9.1548e-06
0.00023729
9.25829e-06
0.000234948
9.35925e-06
0.000232582
9.45773e-06
0.000230191
9.55375e-06
0.000227777
9.64734e-06
0.000225341
9.73855e-06
0.000222882
9.82741e-06
0.000220401
9.91394e-06
0.0002179
9.99819e-06
0.000215378
1.00802e-05
0.000212836
1.016e-05
0.000210274
1.02376e-05
0.000207694
1.03131e-05
0.000205096
1.03864e-05
0.00020248
1.04577e-05
0.000199846
1.0527e-05
0.000197196
1.05942e-05
0.000194529
1.06595e-05
0.000191847
1.07229e-05
0.000189149
1.07843e-05
0.000186437
1.0844e-05
0.00018371
1.09017e-05
0.000180969
1.09577e-05
0.000178214
1.1012e-05
0.000175447
1.10645e-05
0.000172666
1.11154e-05
0.000169874
1.11646e-05
0.000167069
1.12122e-05
0.000164253
1.12582e-05
0.000161426
1.13027e-05
0.000158589
1.13457e-05
0.000155741
1.13872e-05
0.000152883
1.14273e-05
0.000150015
1.14659e-05
0.000147138
1.15032e-05
0.000144252
1.15391e-05
0.000141357
1.15737e-05
0.000138455
1.16071e-05
0.000135544
1.16392e-05
0.000132625
1.16701e-05
0.000129699
1.16998e-05
0.000126766
1.17283e-05
0.000123826
1.17558e-05
0.00012088
1.17821e-05
0.000117927
1.18074e-05
0.000114968
1.18316e-05
0.000112004
1.18548e-05
0.000109034
1.18771e-05
0.000106058
1.18984e-05
0.000103078
1.19188e-05
0.000100092
1.19382e-05
9.71024e-05
1.19569e-05
9.4108e-05
1.19746e-05
9.11095e-05
1.19916e-05
8.81069e-05
1.20077e-05
8.51004e-05
1.20231e-05
8.20904e-05
1.20377e-05
7.90769e-05
1.20516e-05
7.60601e-05
1.20648e-05
7.30402e-05
1.20773e-05
7.00173e-05
1.20891e-05
6.69917e-05
1.21003e-05
6.39635e-05
1.21108e-05
6.09327e-05
1.21208e-05
5.78997e-05
1.21302e-05
5.48645e-05
1.21389e-05
5.18272e-05
1.21472e-05
4.8788e-05
1.21549e-05
4.57471e-05
1.2162e-05
4.27045e-05
1.21687e-05
3.96603e-05
1.21748e-05
3.66148e-05
1.21805e-05
3.3568e-05
1.21856e-05
3.052e-05
1.21903e-05
2.74709e-05
1.21946e-05
2.4421e-05
1.21984e-05
2.13701e-05
1.22017e-05
1.83186e-05
1.22047e-05
1.52664e-05
1.22072e-05
1.22138e-05
1.22092e-05
9.16067e-06
1.22109e-05
6.10728e-06
1.22121e-05
3.05369e-06
1.22129e-05
1.22133e-05
3.62267e-06
-1.81085e-05
7.24518e-06
-1.81077e-05
1.08674e-05
-1.81061e-05
1.44891e-05
-1.81037e-05
1.81102e-05
-1.81005e-05
2.17306e-05
-1.80965e-05
2.53499e-05
-1.80917e-05
2.89682e-05
-1.80859e-05
3.25852e-05
-1.80793e-05
3.62007e-05
-1.80718e-05
3.98145e-05
-1.80634e-05
4.34266e-05
-1.8054e-05
4.70365e-05
-1.80435e-05
5.06442e-05
-1.8032e-05
5.42495e-05
-1.80195e-05
5.78521e-05
-1.80058e-05
6.14518e-05
-1.79909e-05
6.50483e-05
-1.79748e-05
6.86414e-05
-1.79574e-05
7.22308e-05
-1.79387e-05
7.58163e-05
-1.79185e-05
7.93975e-05
-1.7897e-05
8.29742e-05
-1.78738e-05
8.6546e-05
-1.78491e-05
9.01127e-05
-1.78228e-05
9.36738e-05
-1.77947e-05
9.7229e-05
-1.77648e-05
0.000100778
-1.7733e-05
0.00010432
-1.76992e-05
0.000107856
-1.76634e-05
0.000111383
-1.76255e-05
0.000114903
-1.75854e-05
0.000118415
-1.7543e-05
0.000121917
-1.74982e-05
0.00012541
-1.7451e-05
0.000128894
-1.74012e-05
0.000132367
-1.73488e-05
0.000135829
-1.72936e-05
0.00013928
-1.72356e-05
0.000142718
-1.71747e-05
0.000146144
-1.71108e-05
0.000149557
-1.70438e-05
0.000152955
-1.69736e-05
0.000156339
-1.69001e-05
0.000159708
-1.68233e-05
0.000163061
-1.6743e-05
0.000166397
-1.66592e-05
0.000169716
-1.65717e-05
0.000173017
-1.64805e-05
0.000176298
-1.63855e-05
0.000179561
-1.62866e-05
0.000182802
-1.61837e-05
0.000186022
-1.60768e-05
0.000189221
-1.59658e-05
0.000192396
-1.58506e-05
0.000195547
-1.57311e-05
0.000198674
-1.56073e-05
0.000201775
-1.54791e-05
0.00020485
-1.53465e-05
0.000207897
-1.52094e-05
0.000210916
-1.50677e-05
0.000213906
-1.49214e-05
0.000216866
-1.47705e-05
0.000219794
-1.46149e-05
0.000222691
-1.44545e-05
0.000225555
-1.42895e-05
0.000228384
-1.41197e-05
0.000231179
-1.39452e-05
0.000233938
-1.37659e-05
0.00023666
-1.35818e-05
0.000239344
-1.33929e-05
0.00024199
-1.31993e-05
0.000244596
-1.3001e-05
0.000247161
-1.27979e-05
0.000249684
-1.25902e-05
0.000252165
-1.23778e-05
0.000254603
-1.21608e-05
0.000256996
-1.19392e-05
0.000259344
-1.17131e-05
0.000261646
-1.14826e-05
0.000263901
-1.12478e-05
0.000266107
-1.10086e-05
0.000268265
-1.07653e-05
0.000270374
-1.05178e-05
0.000272432
-1.02663e-05
0.000274438
-1.00109e-05
0.000276393
-9.7517e-06
0.000278295
-9.4888e-06
0.000280144
-9.22233e-06
0.000281938
-8.95241e-06
0.000283678
-8.67918e-06
0.000285362
-8.40277e-06
0.00028699
-8.12332e-06
0.000288562
-7.84099e-06
0.000290076
-7.55591e-06
0.000291532
-7.26824e-06
0.000292931
-6.97814e-06
0.00029427
-6.68577e-06
0.000295551
-6.3913e-06
0.000296772
-6.09489e-06
0.000297933
-5.79671e-06
0.000299034
-5.49693e-06
0.000300075
-5.19572e-06
0.000301055
-4.89326e-06
0.000301974
-4.58972e-06
0.000302832
-4.28528e-06
0.000303629
-3.98012e-06
0.000304364
-3.6744e-06
0.000305038
-3.3683e-06
0.00030565
-3.062e-06
0.000306201
-2.75568e-06
0.000306691
-2.44949e-06
0.000307119
-2.14362e-06
0.000307486
-1.83822e-06
0.000307792
-1.53347e-06
0.000308036
-1.22952e-06
0.00030822
-9.26544e-07
0.000308344
-6.24687e-07
0.000308407
-3.24105e-07
0.00030841
-2.49466e-08
0.000308353
2.72642e-07
0.000308238
5.68521e-07
0.000308063
8.62553e-07
0.000307829
1.15461e-06
0.000307538
1.44455e-06
0.000307188
1.73227e-06
0.000306782
2.01763e-06
0.000306319
2.30054e-06
0.000305799
2.58088e-06
0.000305224
2.85854e-06
0.000304594
3.13343e-06
0.00030391
3.40546e-06
0.000303171
3.67454e-06
0.000302379
3.94058e-06
0.000301535
4.20352e-06
0.000300638
4.46327e-06
0.00029969
4.71977e-06
0.000298692
4.97295e-06
0.000297643
5.22277e-06
0.000296545
5.46917e-06
0.000295398
5.71209e-06
0.000294204
5.95151e-06
0.000292962
6.18737e-06
0.000291674
6.41966e-06
0.00029034
6.64833e-06
0.000288961
6.87336e-06
0.000287537
7.09473e-06
0.00028607
7.31244e-06
0.000284561
7.52645e-06
0.000283009
7.73677e-06
0.000281416
7.94338e-06
0.000279782
8.1463e-06
0.000278109
8.34551e-06
0.000276396
8.54102e-06
0.000274645
8.73285e-06
0.000272856
8.92099e-06
0.000271031
9.10547e-06
0.000269169
9.28629e-06
0.000267272
9.46348e-06
0.000265341
9.63707e-06
0.000263375
9.80706e-06
0.000261376
9.97348e-06
0.000259344
1.01364e-05
0.000257281
1.02957e-05
0.000255187
1.04516e-05
0.000253062
1.06041e-05
0.000250907
1.07531e-05
0.000248723
1.08988e-05
0.000246511
1.10411e-05
0.000244271
1.11801e-05
0.000242004
1.13158e-05
0.000239711
1.14483e-05
0.000237391
1.15776e-05
0.000235047
1.17037e-05
0.000232678
1.18268e-05
0.000230285
1.19467e-05
0.000227868