/*--------------------------------*- C++ -*----------------------------------*\
| =========                 |                                                 |
| \\      /  F ield         | OpenFOAM: The Open Source CFD Toolbox           |
|  \\    /   O peration     | Version:  v2012                                 |
|   \\  /    A nd           | Website:  www.openfoam.com                      |
|    \\/     M anipulation  |                                                 |
\*---------------------------------------------------------------------------*/
FoamFile
{
    version     2.0;
    format      ascii;
    class       volScalarField;
    location    "3.9";
    object      Psi_z;
}
// * * * * * * * * * * * * * * * * * * * * * * * * * * * * * * * * * * * * * //

dimensions      [0 2 -1 0 0 0 0];


internalField   nonuniform List<scalar> 
65536
(
8.93395e-06
2.68013e-05
4.46672e-05
6.25308e-05
8.03911e-05
9.82471e-05
0.000116098
0.000133943
0.00015178
0.000169609
0.000187429
0.000205238
0.000223036
0.000240821
0.000258593
0.000276349
0.000294089
0.000311811
0.000329514
0.000347197
0.000364858
0.000382495
0.000400108
0.000417693
0.000435251
0.000452778
0.000470273
0.000487735
0.000505161
0.000522549
0.000539897
0.000557203
0.000574464
0.000591679
0.000608845
0.000625959
0.000643019
0.000660022
0.000676966
0.000693847
0.000710663
0.00072741
0.000744087
0.000760689
0.000777213
0.000793657
0.000810016
0.000826288
0.000842468
0.000858554
0.000874541
0.000890426
0.000906205
0.000921874
0.000937429
0.000952866
0.000968182
0.000983372
0.000998432
0.00101336
0.00102814
0.00104279
0.00105729
0.00107163
0.00108582
0.00109985
0.00111372
0.00112742
0.00114094
0.00115429
0.00116745
0.00118043
0.00119322
0.00120581
0.0012182
0.00123039
0.00124238
0.00125415
0.0012657
0.00127703
0.00128814
0.00129903
0.00130967
0.00132009
0.00133026
0.00134019
0.00134988
0.00135931
0.0013685
0.00137742
0.00138609
0.00139449
0.00140263
0.0014105
0.0014181
0.00142543
0.00143248
0.00143926
0.00144575
0.00145197
0.0014579
0.00146355
0.00146891
0.00147399
0.00147877
0.00148327
0.00148748
0.0014914
0.00149503
0.00149836
0.00150141
0.00150416
0.00150663
0.0015088
0.00151068
0.00151227
0.00151357
0.00151459
0.00151531
0.00151575
0.00151591
0.00151578
0.00151537
0.00151467
0.0015137
0.00151245
0.00151093
0.00150913
0.00150706
0.00150473
0.00150212
0.00149926
0.00149613
0.00149274
0.00148909
0.00148519
0.00148104
0.00147664
0.00147199
0.0014671
0.00146198
0.00145661
0.00145101
0.00144518
0.00143912
0.00143284
0.00142634
0.00141962
0.00141268
0.00140553
0.00139817
0.00139061
0.00138284
0.00137488
0.00136672
0.00135837
0.00134982
0.0013411
0.00133219
0.00132309
0.00131383
0.00130439
0.00129478
0.001285
0.00127506
0.00126496
0.0012547
0.00124428
0.00123372
0.00122301
0.00121215
0.00120115
0.00119001
0.00117873
0.00116732
0.00115578
0.00114411
0.00113232
0.00112041
0.00110837
0.00109622
0.00108396
0.00107159
0.0010591
0.00104651
0.00103382
0.00102103
0.00100814
0.000995156
0.000982078
0.00096891
0.000955653
0.00094231
0.000928885
0.000915378
0.000901792
0.00088813
0.000874394
0.000860585
0.000846707
0.00083276
0.000818748
0.000804671
0.000790533
0.000776335
0.000762079
0.000747767
0.0007334
0.000718981
0.000704512
0.000689993
0.000675427
0.000660816
0.00064616
0.000631462
0.000616724
0.000601946
0.00058713
0.000572277
0.00055739
0.00054247
0.000527517
0.000512533
0.000497519
0.000482477
0.000467408
0.000452313
0.000437194
0.00042205
0.000406884
0.000391697
0.000376489
0.000361262
0.000346017
0.000330754
0.000315474
0.00030018
0.00028487
0.000269547
0.00025421
0.000238862
0.000223503
0.000208133
0.000192753
0.000177365
0.000161969
0.000146565
0.000131155
0.000115738
0.000100317
8.4891e-05
6.94614e-05
5.40287e-05
3.85936e-05
2.31568e-05
7.71905e-06
2.68021e-05
8.0405e-05
0.000134004
0.000187595
0.000241177
0.000294746
0.000348299
0.000401834
0.000455347
0.000508835
0.000562296
0.000615725
0.000669119
0.000722476
0.000775791
0.000829061
0.000882282
0.00093545
0.000988561
0.00104161
0.00109459
0.00114751
0.00120035
0.00125311
0.00130578
0.00135836
0.00141085
0.00146324
0.00151552
0.00156768
0.00161973
0.00167165
0.00172344
0.00177508
0.00182658
0.00187793
0.00192911
0.00198012
0.00203096
0.0020816
0.00213205
0.0021823
0.00223233
0.00228214
0.00233172
0.00238105
0.00243013
0.00247895
0.00252749
0.00257576
0.00262372
0.00267138
0.00271872
0.00276573
0.0028124
0.00285872
0.00290467
0.00295024
0.00299542
0.00304021
0.00308457
0.00312851
0.00317201
0.00321505
0.00325762
0.00329972
0.00334132
0.00338242
0.003423
0.00346304
0.00350254
0.00354148
0.00357985
0.00361763
0.00365481
0.00369139
0.00372734
0.00376265
0.00379732
0.00383132
0.00386465
0.0038973
0.00392926
0.0039605
0.00399103
0.00402082
0.00404988
0.00407819
0.00410574
0.00413252
0.00415852
0.00418374
0.00420815
0.00423177
0.00425457
0.00427656
0.00429772
0.00431805
0.00433754
0.00435618
0.00437398
0.00439093
0.00440702
0.00442224
0.00443661
0.0044501
0.00446273
0.00447449
0.00448537
0.00449538
0.00450452
0.00451278
0.00452017
0.00452668
0.00453232
0.0045371
0.004541
0.00454404
0.00454622
0.00454754
0.004548
0.00454761
0.00454637
0.0045443
0.00454138
0.00453763
0.00453306
0.00452767
0.00452146
0.00451445
0.00450663
0.00449802
0.00448863
0.00447846
0.00446752
0.00445582
0.00444336
0.00443016
0.00441622
0.00440155
0.00438616
0.00437006
0.00435326
0.00433577
0.00431759
0.00429874
0.00427923
0.00425906
0.00423825
0.0042168
0.00419472
0.00417203
0.00414873
0.00412483
0.00410035
0.00407529
0.00404966
0.00402347
0.00399674
0.00396946
0.00394166
0.00391333
0.0038845
0.00385516
0.00382534
0.00379503
0.00376425
0.00373301
0.00370131
0.00366917
0.00363659
0.00360358
0.00357016
0.00353633
0.0035021
0.00346747
0.00343247
0.00339709
0.00336134
0.00332524
0.00328879
0.00325199
0.00321487
0.00317742
0.00313965
0.00310157
0.00306319
0.00302452
0.00298556
0.00294633
0.00290682
0.00286705
0.00282702
0.00278674
0.00274621
0.00270546
0.00266447
0.00262326
0.00258183
0.00254019
0.00249835
0.00245631
0.00241408
0.00237166
0.00232907
0.0022863
0.00224336
0.00220026
0.002157
0.00211359
0.00207003
0.00202633
0.00198249
0.00193852
0.00189443
0.00185021
0.00180588
0.00176143
0.00171687
0.00167221
0.00162744
0.00158258
0.00153763
0.00149259
0.00144746
0.00140225
0.00135697
0.00131161
0.00126617
0.00122068
0.00117511
0.00112949
0.00108381
0.00103807
0.000992279
0.00094644
0.000900554
0.000854624
0.000808654
0.000762644
0.000716599
0.000670519
0.000624409
0.00057827
0.000532104
0.000485914
0.000439702
0.00039347
0.00034722
0.000300955
0.000254677
0.000208387
0.000162088
0.000115783
6.94715e-05
2.31575e-05
4.46718e-05
0.000134013
0.000223347
0.000312669
0.000401976
0.00049126
0.000580519
0.000669747
0.000758939
0.000848089
0.000937194
0.00102625
0.00111524
0.00120417
0.00129304
0.00138182
0.00147053
0.00155915
0.00164767
0.00173609
0.0018244
0.0019126
0.00200067
0.0020886
0.0021764
0.00226405
0.00235153
0.00243885
0.00252599
0.00261294
0.00269969
0.00278623
0.00287255
0.00295863
0.00304448
0.00313006
0.00321537
0.0033004
0.00338513
0.00346955
0.00355365
0.0036374
0.0037208
0.00380383
0.00388646
0.0039687
0.00405051
0.00413189
0.00421281
0.00429325
0.00437321
0.00445265
0.00453156
0.00460993
0.00468772
0.00476493
0.00484153
0.0049175
0.00499282
0.00506747
0.00514143
0.00521467
0.00528718
0.00535893
0.00542991
0.00550008
0.00556943
0.00563794
0.00570559
0.00577234
0.00583819
0.0059031
0.00596706
0.00603004
0.00609203
0.006153
0.00621293
0.0062718
0.00632959
0.00638628
0.00644185
0.00649628
0.00654954
0.00660163
0.00665252
0.0067022
0.00675064
0.00679783
0.00684375
0.0068884
0.00693174
0.00697378
0.00701448
0.00705385
0.00709186
0.00712851
0.00716379
0.00719767
0.00723016
0.00726125
0.00729092
0.00731916
0.00734598
0.00737137
0.00739531
0.00741781
0.00743885
0.00745845
0.00747659
0.00749327
0.0075085
0.00752227
0.00753458
0.00754544
0.00755484
0.00756279
0.0075693
0.00757436
0.00757799
0.00758018
0.00758095
0.00758029
0.00757823
0.00757476
0.00756989
0.00756364
0.00755601
0.00754702
0.00753666
0.00752497
0.00751193
0.00749758
0.00748192
0.00746496
0.00744671
0.0074272
0.00740643
0.00738441
0.00736117
0.00733671
0.00731106
0.00728422
0.00725621
0.00722704
0.00719674
0.00716531
0.00713278
0.00709915
0.00706445
0.00702869
0.00699189
0.00695405
0.00691521
0.00687537
0.00683456
0.00679278
0.00675005
0.0067064
0.00666182
0.00661636
0.00657
0.00652279
0.00647472
0.00642582
0.0063761
0.00632557
0.00627426
0.00622218
0.00616934
0.00611576
0.00606145
0.00600644
0.00595072
0.00589433
0.00583726
0.00577955
0.0057212
0.00566222
0.00560263
0.00554245
0.00548169
0.00542036
0.00535847
0.00529605
0.00523309
0.00516962
0.00510565
0.00504119
0.00497625
0.00491085
0.00484499
0.0047787
0.00471197
0.00464483
0.00457729
0.00450935
0.00444103
0.00437233
0.00430328
0.00423388
0.00416413
0.00409406
0.00402367
0.00395297
0.00388197
0.00381068
0.00373911
0.00366727
0.00359516
0.00352281
0.00345021
0.00337737
0.0033043
0.00323102
0.00315752
0.00308382
0.00300992
0.00293583
0.00286156
0.00278712
0.00271251
0.00263774
0.00256281
0.00248774
0.00241252
0.00233717
0.00226169
0.00218609
0.00211037
0.00203453
0.00195859
0.00188255
0.00180641
0.00173017
0.00165385
0.00157745
0.00150097
0.00142442
0.0013478
0.00127111
0.00119437
0.00111757
0.00104071
0.000963812
0.000886867
0.000809881
0.000732858
0.000655803
0.000578718
0.000501607
0.000424474
0.000347322
0.000270155
0.000192977
0.000115789
3.8597e-05
6.25437e-05
0.000187628
0.000312702
0.00043776
0.000562796
0.000687801
0.00081277
0.000937696
0.00106257
0.00118739
0.00131214
0.00143683
0.00156143
0.00168594
0.00181036
0.00193467
0.00205886
0.00218294
0.00230688
0.00243068
0.00255433
0.00267781
0.00280112
0.00292424
0.00304717
0.00316989
0.00329238
0.00341464
0.00353665
0.00365839
0.00377986
0.00390103
0.0040219
0.00414243
0.00426263
0.00438246
0.00450192
0.00462098
0.00473962
0.00485783
0.00497558
0.00509286
0.00520964
0.0053259
0.00544162
0.00555677
0.00567133
0.00578528
0.00589859
0.00601124
0.0061232
0.00623445
0.00634496
0.0064547
0.00656364
0.00667176
0.00677902
0.00688541
0.00699089
0.00709543
0.007199
0.00730157
0.00740311
0.0075036
0.00760299
0.00770127
0.00779839
0.00789433
0.00798906
0.00808255
0.00817477
0.00826568
0.00835525
0.00844346
0.00853027
0.00861566
0.00869959
0.00878204
0.00886297
0.00894237
0.00902019
0.00909641
0.00917101
0.00924396
0.00931523
0.0093848
0.00945264
0.00951873
0.00958305
0.00964557
0.00970628
0.00976514
0.00982215
0.00987728
0.00993052
0.00998185
0.0100312
0.0100787
0.0101242
0.0101677
0.0102093
0.0102488
0.0102864
0.0103219
0.0103555
0.010387
0.0104164
0.0104439
0.0104693
0.0104926
0.0105139
0.0105332
0.0105504
0.0105656
0.0105788
0.0105899
0.010599
0.0106061
0.0106112
0.0106142
0.0106153
0.0106144
0.0106115
0.0106066
0.0105998
0.010591
0.0105803
0.0105677
0.0105532
0.0105368
0.0105186
0.0104984
0.0104765
0.0104527
0.0104272
0.0103998
0.0103707
0.0103399
0.0103073
0.0102731
0.0102371
0.0101995
0.0101603
0.0101195
0.010077
0.010033
0.00998742
0.00994032
0.00989171
0.00984163
0.00979008
0.00973709
0.00968269
0.00962689
0.00956973
0.00951121
0.00945137
0.00939023
0.00932781
0.00926413
0.00919922
0.00913309
0.00906578
0.00899729
0.00892766
0.00885691
0.00878505
0.00871211
0.00863812
0.00856308
0.00848703
0.00840999
0.00833196
0.00825299
0.00817308
0.00809226
0.00801055
0.00792796
0.00784452
0.00776025
0.00767516
0.00758928
0.00750262
0.0074152
0.00732705
0.00723817
0.00714859
0.00705833
0.0069674
0.00687582
0.0067836
0.00669077
0.00659734
0.00650333
0.00640875
0.00631362
0.00621796
0.00612177
0.00602508
0.0059279
0.00583025
0.00573213
0.00563357
0.00553458
0.00543516
0.00533534
0.00523513
0.00513454
0.00503358
0.00493227
0.00483062
0.00472863
0.00462633
0.00452372
0.00442081
0.00431762
0.00421415
0.00411042
0.00400644
0.00390221
0.00379774
0.00369305
0.00358815
0.00348303
0.00337772
0.00327222
0.00316654
0.00306069
0.00295467
0.00284849
0.00274217
0.0026357
0.0025291
0.00242236
0.00231551
0.00220854
0.00210146
0.00199428
0.00188701
0.00177964
0.00167219
0.00156467
0.00145707
0.0013494
0.00124167
0.00113388
0.00102605
0.000918165
0.000810241
0.000702281
0.00059429
0.000486273
0.000378234
0.000270179
0.000162112
5.40382e-05
8.0419e-05
0.000241253
0.000402074
0.000562874
0.000723645
0.000884379
0.00104507
0.0012057
0.00136626
0.00152676
0.00168717
0.00184748
0.0020077
0.0021678
0.00232778
0.00248762
0.00264732
0.00280686
0.00296623
0.00312542
0.00328442
0.0034432
0.00360176
0.00376008
0.00391815
0.00407595
0.00423347
0.00439068
0.00454757
0.00470413
0.00486032
0.00501615
0.00517157
0.00532657
0.00548114
0.00563524
0.00578886
0.00594197
0.00609455
0.00624657
0.006398
0.00654882
0.006699
0.00684852
0.00699733
0.00714543
0.00729276
0.00743931
0.00758504
0.00772992
0.00787392
0.008017
0.00815912
0.00830026
0.00844038
0.00857944
0.0087174
0.00885423
0.0089899
0.00912436
0.00925757
0.0093895
0.0095201
0.00964935
0.0097772
0.0099036
0.0100285
0.0101519
0.0102738
0.010394
0.0105127
0.0106296
0.0107448
0.0108583
0.0109699
0.0110798
0.0111877
0.0112938
0.0113979
0.0115
0.0116001
0.0116982
0.0117941
0.011888
0.0119796
0.0120691
0.0121564
0.0122414
0.0123241
0.0124046
0.0124827
0.0125584
0.0126317
0.0127026
0.0127711
0.0128371
0.0129006
0.0129617
0.0130202
0.0130762
0.0131296
0.0131805
0.0132288
0.0132745
0.0133176
0.0133581
0.013396
0.0134313
0.013464
0.013494
0.0135214
0.0135462
0.0135684
0.0135879
0.0136048
0.0136191
0.0136308
0.0136399
0.0136464
0.0136503
0.0136517
0.0136505
0.0136467
0.0136404
0.0136316
0.0136203
0.0136066
0.0135903
0.0135716
0.0135505
0.013527
0.0135011
0.0134729
0.0134423
0.0134094
0.0133742
0.0133368
0.0132971
0.0132552
0.0132111
0.0131649
0.0131165
0.013066
0.0130135
0.0129588
0.0129022
0.0128436
0.012783
0.0127205
0.012656
0.0125897
0.0125215
0.0124516
0.0123798
0.0123062
0.012231
0.012154
0.0120754
0.0119951
0.0119131
0.0118296
0.0117446
0.011658
0.0115699
0.0114804
0.0113893
0.0112969
0.0112031
0.0111079
0.0110114
0.0109136
0.0108145
0.0107142
0.0106126
0.0105098
0.0104059
0.0103008
0.0101946
0.0100872
0.00997886
0.00986943
0.00975897
0.00964752
0.0095351
0.00942173
0.00930743
0.00919222
0.00907614
0.0089592
0.00884142
0.00872283
0.00860345
0.0084833
0.0083624
0.00824077
0.00811843
0.00799541
0.00787171
0.00774737
0.0076224
0.00749682
0.00737065
0.0072439
0.0071166
0.00698876
0.0068604
0.00673154
0.00660218
0.00647236
0.00634208
0.00621136
0.00608022
0.00594867
0.00581672
0.00568439
0.0055517
0.00541865
0.00528526
0.00515155
0.00501752
0.0048832
0.00474858
0.00461369
0.00447853
0.00434311
0.00420746
0.00407157
0.00393546
0.00379913
0.00366261
0.00352589
0.00338899
0.00325191
0.00311468
0.00297728
0.00283974
0.00270206
0.00256424
0.00242631
0.00228826
0.0021501
0.00201184
0.00187349
0.00173505
0.00159653
0.00145794
0.00131928
0.00118057
0.0010418
0.000902986
0.000764132
0.000625245
0.00048633
0.000347393
0.000208442
6.94817e-05
9.82984e-05
0.00029489
0.000491467
0.000688018
0.000884533
0.001081
0.00127742
0.00147376
0.00167003
0.00186621
0.00206228
0.00225825
0.00245409
0.00264979
0.00284534
0.00304073
0.00323594
0.00343096
0.00362577
0.00382036
0.00401471
0.00420881
0.00440264
0.00459618
0.0047894
0.0049823
0.00517486
0.00536704
0.00555884
0.00575022
0.00594117
0.00613166
0.00632166
0.00651116
0.00670012
0.00688851
0.00707632
0.0072635
0.00745004
0.00763589
0.00782103
0.00800542
0.00818903
0.00837183
0.00855378
0.00873485
0.00891499
0.00909417
0.00927235
0.00944949
0.00962555
0.0098005
0.00997428
0.0101469
0.0103182
0.0104882
0.0106569
0.0108242
0.0109901
0.0111545
0.0113174
0.0114787
0.0116385
0.0117965
0.0119528
0.0121074
0.0122602
0.0124111
0.0125601
0.0127072
0.0128522
0.0129952
0.0131361
0.0132749
0.0134114
0.0135458
0.0136778
0.0138075
0.0139348
0.0140597
0.0141821
0.014302
0.0144194
0.0145341
0.0146463
0.0147557
0.0148624
0.0149664
0.0150676
0.0151659
0.0152614
0.015354
0.0154437
0.0155304
0.0156141
0.0156949
0.0157725
0.0158472
0.0159187
0.0159872
0.0160525
0.0161148
0.0161738
0.0162297
0.0162824
0.0163319
0.0163783
0.0164214
0.0164613
0.016498
0.0165315
0.0165618
0.0165889
0.0166128
0.0166334
0.0166509
0.0166652
0.0166763
0.0166842
0.016689
0.0166906
0.0166891
0.0166845
0.0166768
0.016666
0.0166521
0.0166353
0.0166154
0.0165925
0.0165667
0.0165379
0.0165062
0.0164716
0.0164342
0.016394
0.0163509
0.0163051
0.0162565
0.0162053
0.0161513
0.0160948
0.0160356
0.0159738
0.0159095
0.0158427
0.0157734
0.0157017
0.0156276
0.0155511
0.0154723
0.0153912
0.0153078
0.0152222
0.0151344
0.0150445
0.0149524
0.0148583
0.0147621
0.0146639
0.0145637
0.0144616
0.0143576
0.0142517
0.014144
0.0140345
0.0139232
0.0138102
0.0136955
0.0135791
0.0134611
0.0133415
0.0132203
0.0130976
0.0129734
0.0128477
0.0127206
0.0125921
0.0124622
0.012331
0.0121985
0.0120647
0.0119297
0.0117934
0.0116559
0.0115173
0.0113776
0.0112367
0.0110948
0.0109518
0.0108078
0.0106629
0.0105169
0.01037
0.0102222
0.0100735
0.00992393
0.00977352
0.00962231
0.00947029
0.00931751
0.00916399
0.00900974
0.00885479
0.00869916
0.00854288
0.00838596
0.00822842
0.00807029
0.00791159
0.00775233
0.00759253
0.00743221
0.00727139
0.0071101
0.00694833
0.00678612
0.00662348
0.00646043
0.00629698
0.00613314
0.00596894
0.00580438
0.00563949
0.00547427
0.00530874
0.00514292
0.00497681
0.00481043
0.0046438
0.00447691
0.00430979
0.00414245
0.0039749
0.00380714
0.0036392
0.00347107
0.00330278
0.00313433
0.00296572
0.00279698
0.0026281
0.0024591
0.00228999
0.00212077
0.00195146
0.00178206
0.00161258
0.00144302
0.00127341
0.00110373
0.000934008
0.000764244
0.000594446
0.000424623
0.000254781
8.49282e-05
0.000116183
0.000348543
0.000580885
0.000813197
0.00104547
0.00127768
0.00150983
0.0017419
0.00197388
0.00220576
0.00243751
0.00266914
0.00290061
0.00313193
0.00336307
0.00359401
0.00382475
0.00405526
0.00428553
0.00451554
0.00474527
0.0049747
0.00520381
0.00543258
0.00566098
0.005889
0.00611662
0.0063438
0.00657052
0.00679675
0.00702247
0.00724765
0.00747227
0.00769628
0.00791966
0.00814238
0.0083644
0.00858568
0.00880621
0.00902592
0.0092448
0.0094628
0.00967988
0.009896
0.0101111
0.0103252
0.0105382
0.01075
0.0109607
0.0111701
0.0113783
0.0115852
0.0117906
0.0119947
0.0121973
0.0123983
0.0125978
0.0127957
0.0129918
0.0131862
0.0133788
0.0135696
0.0137585
0.0139454
0.0141303
0.0143131
0.0144937
0.0146722
0.0148484
0.0150223
0.0151938
0.015363
0.0155296
0.0156937
0.0158552
0.016014
0.0161702
0.0163236
0.0164741
0.0166218
0.0167666
0.0169084
0.0170472
0.0171829
0.0173155
0.017445
0.0175712
0.0176941
0.0178138
0.0179301
0.018043
0.0181525
0.0182586
0.0183611
0.0184602
0.0185556
0.0186475
0.0187358
0.0188204
0.0189013
0.0189786
0.0190522
0.019122
0.0191881
0.0192504
0.0193089
0.0193637
0.0194147
0.0194619
0.0195053
0.0195449
0.0195807
0.0196126
0.0196408
0.0196652
0.0196859
0.0197027
0.0197158
0.0197251
0.0197307
0.0197326
0.0197308
0.0197253
0.0197162
0.0197034
0.019687
0.019667
0.0196434
0.0196163
0.0195857
0.0195517
0.0195142
0.0194732
0.0194289
0.0193813
0.0193303
0.0192761
0.0192187
0.019158
0.0190942
0.0190272
0.0189572
0.0188841
0.0188081
0.018729
0.0186471
0.0185623
0.0184746
0.0183841
0.0182909
0.0181949
0.0180963
0.0179951
0.0178912
0.0177849
0.017676
0.0175647
0.0174509
0.0173348
0.0172163
0.0170955
0.0169725
0.0168473
0.0167199
0.0165904
0.0164588
0.0163251
0.0161895
0.0160519
0.0159123
0.0157709
0.0156276
0.0154825
0.0153356
0.0151871
0.0150368
0.0148848
0.0147313
0.0145761
0.0144194
0.0142613
0.0141016
0.0139405
0.013778
0.0136141
0.0134488
0.0132823
0.0131145
0.0129455
0.0127752
0.0126038
0.0124313
0.0122576
0.0120829
0.0119071
0.0117303
0.0115525
0.0113737
0.011194
0.0110134
0.0108319
0.0106495
0.0104664
0.0102824
0.0100976
0.00991214
0.00972591
0.00953898
0.00935137
0.00916311
0.00897421
0.0087847
0.00859461
0.00840394
0.00821273
0.00802098
0.00782873
0.007636
0.00744279
0.00724913
0.00705503
0.00686053
0.00666562
0.00647033
0.00627467
0.00607867
0.00588233
0.00568567
0.0054887
0.00529145
0.00509392
0.00489613
0.00469808
0.0044998
0.0043013
0.00410258
0.00390366
0.00370456
0.00350528
0.00330583
0.00310623
0.00290648
0.0027066
0.0025066
0.00230648
0.00210626
0.00190594
0.00170554
0.00150507
0.00130452
0.00110392
0.000903276
0.000702589
0.000501871
0.000301131
0.000100378
0.000134073
0.000402213
0.000670333
0.000938418
0.00120646
0.00147443
0.00174233
0.00201014
0.00227784
0.00254543
0.00281288
0.00308017
0.0033473
0.00361424
0.00388098
0.0041475
0.00441379
0.00467981
0.00494555
0.005211
0.00547612
0.00574091
0.00600532
0.00626934
0.00653295
0.00679611
0.00705881
0.00732101
0.00758268
0.00784379
0.00810432
0.00836422
0.00862347
0.00888203
0.00913987
0.00939694
0.00965321
0.00990864
0.0101632
0.0104168
0.0106695
0.0109211
0.0111717
0.0114212
0.0116695
0.0119166
0.0121625
0.0124071
0.0126503
0.0128921
0.0131324
0.0133712
0.0136084
0.013844
0.0140779
0.01431
0.0145403
0.0147688
0.0149952
0.0152197
0.0154421
0.0156624
0.0158805
0.0160963
0.0163097
0.0165208
0.0167294
0.0169355
0.017139
0.0173398
0.0175379
0.0177332
0.0179256
0.0181151
0.0183016
0.018485
0.0186653
0.0188425
0.0190164
0.0191869
0.0193541
0.0195179
0.0196782
0.0198349
0.019988
0.0201375
0.0202832
0.0204252
0.0205634
0.0206977
0.0208281
0.0209545
0.021077
0.0211954
0.0213098
0.02142
0.0215261
0.021628
0.0217257
0.0218192
0.0219084
0.0219933
0.0220739
0.0221502
0.0222221
0.0222897
0.0223529
0.0224118
0.0224662
0.0225163
0.022562
0.0226033
0.0226402
0.0226727
0.0227008
0.0227246
0.022744
0.0227591
0.0227698
0.0227762
0.0227784
0.0227762
0.0227698
0.0227592
0.0227444
0.0227254
0.0227022
0.022675
0.0226437
0.0226083
0.0225689
0.0225255
0.0224782
0.022427
0.0223719
0.0223131
0.0222504
0.022184
0.0221139
0.0220402
0.0219628
0.0218819
0.0217975
0.0217096
0.0216183
0.0215236
0.0214256
0.0213244
0.0212199
0.0211122
0.0210014
0.0208875
0.0207705
0.0206506
0.0205277
0.020402
0.0202734
0.020142
0.0200079
0.0198711
0.0197317
0.0195896
0.019445
0.0192979
0.0191484
0.0189964
0.0188421
0.0186855
0.0185266
0.0183654
0.0182021
0.0180367
0.0178692
0.0176996
0.0175281
0.0173546
0.0171792
0.0170019
0.0168228
0.0166419
0.0164593
0.0162749
0.0160889
0.0159013
0.0157121
0.0155214
0.0153292
0.0151355
0.0149403
0.0147438
0.014546
0.0143468
0.0141463
0.0139446
0.0137417
0.0135376
0.0133324
0.013126
0.0129186
0.0127101
0.0125006
0.0122901
0.0120787
0.0118664
0.0116531
0.011439
0.0112241
0.0110083
0.0107918
0.0105745
0.0103565
0.0101378
0.00991839
0.00969833
0.00947764
0.00925635
0.00903447
0.00881203
0.00858905
0.00836555
0.00814155
0.00791707
0.00769213
0.00746675
0.00724095
0.00701475
0.00678816
0.00656121
0.0063339
0.00610627
0.00587831
0.00565005
0.0054215
0.00519268
0.00496361
0.00473429
0.00450474
0.00427497
0.004045
0.00381484
0.0035845
0.003354
0.00312334
0.00289254
0.0026616
0.00243055
0.00219939
0.00196814
0.00173679
0.00150537
0.00127389
0.00104235
0.000810762
0.000579141
0.000347494
0.000115833
0.000151971
0.000455905
0.000759816
0.00106369
0.00136751
0.00167126
0.00197492
0.00227848
0.00258193
0.00288523
0.00318839
0.00349138
0.00379417
0.00409676
0.00439912
0.00470124
0.00500308
0.00530464
0.00560588
0.00590678
0.00620732
0.00650748
0.00680722
0.00710653
0.00740536
0.0077037
0.0080015
0.00829875
0.0085954
0.00889143
0.00918679
0.00948145
0.00977537
0.0100685
0.0103608
0.0106523
0.0109429
0.0112325
0.0115211
0.0118087
0.0120951
0.0123805
0.0126646
0.0129475
0.0132291
0.0135093
0.0137881
0.0140655
0.0143413
0.0146155
0.014888
0.0151588
0.0154278
0.015695
0.0159603
0.0162235
0.0164847
0.0167438
0.0170007
0.0172553
0.0175075
0.0177574
0.0180047
0.0182495
0.0184916
0.0187311
0.0189677
0.0192014
0.0194322
0.01966
0.0198847
0.0201063
0.0203245
0.0205395
0.020751
0.0209591
0.0211637
0.0213646
0.0215619
0.0217554
0.021945
0.0221308
0.0223126
0.0224904
0.0226641
0.0228337
0.022999
0.0231601
0.0233168
0.0234692
0.0236171
0.0237606
0.0238995
0.0240338
0.0241635
0.0242885
0.0244089
0.0245244
0.0246353
0.0247413
0.0248424
0.0249387
0.0250301
0.0251166
0.0251982
0.0252749
0.0253465
0.0254133
0.025475
0.0255317
0.0255835
0.0256303
0.0256721
0.0257089
0.0257408
0.0257677
0.0257897
0.0258067
0.0258188
0.025826
0.0258284
0.0258259
0.0258186
0.0258065
0.0257896
0.025768
0.0257416
0.0257107
0.025675
0.0256348
0.0255901
0.0255408
0.0254871
0.0254289
0.0253664
0.0252995
0.0252284
0.025153
0.0250734
0.0249897
0.0249019
0.0248101
0.0247143
0.0246146
0.0245109
0.0244035
0.0242923
0.0241774
0.0240588
0.0239366
0.0238109
0.0236816
0.0235489
0.0234129
0.0232735
0.0231309
0.022985
0.0228359
0.0226838
0.0225286
0.0223704
0.0222093
0.0220453
0.0218784
0.0217088
0.0215364
0.0213614
0.0211837
0.0210035
0.0208207
0.0206355
0.0204479
0.0202579
0.0200656
0.0198711
0.0196743
0.0194754
0.0192743
0.0190712
0.0188661
0.018659
0.0184499
0.018239
0.0180263
0.0178118
0.0175955
0.0173775
0.0171579
0.0169366
0.0167138
0.0164894
0.0162636
0.0160363
0.0158076
0.0155775
0.0153461
0.0151134
0.0148794
0.0146442
0.0144079
0.0141703
0.0139317
0.013692
0.0134513
0.0132095
0.0129668
0.0127231
0.0124785
0.012233
0.0119867
0.0117395
0.0114915
0.0112428
0.0109934
0.0107432
0.0104923
0.0102408
0.00998861
0.00973583
0.00948246
0.00922854
0.00897407
0.00871908
0.00846359
0.00820763
0.00795122
0.00769436
0.0074371
0.00717944
0.0069214
0.006663
0.00640426
0.0061452
0.00588582
0.00562616
0.00536622
0.00510602
0.00484558
0.00458491
0.00432402
0.00406294
0.00380166
0.00354021
0.0032786
0.00301685
0.00275496
0.00249294
0.00223082
0.0019686
0.00170629
0.00144391
0.00118147
0.00091897
0.000656435
0.000393872
0.000131293
0.000169876
0.000509619
0.000849336
0.00118901
0.00152863
0.00186817
0.00220761
0.00254694
0.00288614
0.00322519
0.00356408
0.00390277
0.00424125
0.00457951
0.00491751
0.00525524
0.00559267
0.00592978
0.00626654
0.00660292
0.00693891
0.00727447
0.00760957
0.00794418
0.00827827
0.00861181
0.00894476
0.00927709
0.00960876
0.00993973
0.01027
0.0105994
0.010928
0.0112558
0.0115827
0.0119086
0.0122335
0.0125573
0.01288
0.0132016
0.0135219
0.013841
0.0141588
0.0144751
0.01479
0.0151034
0.0154152
0.0157254
0.0160338
0.0163405
0.0166453
0.0169482
0.0172491
0.017548
0.0178447
0.0181391
0.0184313
0.0187211
0.0190084
0.0192932
0.0195754
0.0198549
0.0201316
0.0204054
0.0206762
0.0209441
0.0212088
0.0214703
0.0217285
0.0219834
0.0222347
0.0224826
0.0227268
0.0229673
0.023204
0.0234368
0.0236657
0.0238905
0.0241112
0.0243276
0.0245399
0.0247477
0.0249511
0.0251501
0.0253444
0.0255341
0.0257191
0.0258993
0.0260747
0.0262451
0.0264106
0.0265711
0.0267265
0.0268768
0.0270219
0.0271618
0.0272964
0.0274257
0.0275496
0.0276682
0.0277813
0.0278891
0.0279913
0.028088
0.0281793
0.028265
0.0283451
0.0284197
0.0284887
0.0285522
0.02861
0.0286623
0.028709
0.0287502
0.0287857
0.0288158
0.0288403
0.0288592
0.0288727
0.0288807
0.0288833
0.0288804
0.0288721
0.0288585
0.0288395
0.0288152
0.0287857
0.0287509
0.028711
0.0286659
0.0286158
0.0285606
0.0285004
0.0284352
0.0283652
0.0282903
0.0282106
0.0281262
0.0280371
0.0279434
0.0278451
0.0277423
0.027635
0.0275234
0.0274074
0.0272871
0.0271627
0.027034
0.0269013
0.0267646
0.0266239
0.0264792
0.0263308
0.0261785
0.0260225
0.0258629
0.0256997
0.0255329
0.0253627
0.0251891
0.0250121
0.0248318
0.0246483
0.0244617
0.0242719
0.0240791
0.0238833
0.0236845
0.0234829
0.0232785
0.0230713
0.0228615
0.022649
0.0224339
0.0222163
0.0219962
0.0217737
0.0215488
0.0213217
0.0210922
0.0208606
0.0206268
0.020391
0.020153
0.0199131
0.0196712
0.0194275
0.0191818
0.0189344
0.0186852
0.0184343
0.0181818
0.0179276
0.0176719
0.0174146
0.0171558
0.0168956
0.016634
0.016371
0.0161068
0.0158412
0.0155744
0.0153064
0.0150372
0.0147669
0.0144955
0.014223
0.0139495
0.0136751
0.0133996
0.0131233
0.0128461
0.012568
0.0122891
0.0120094
0.0117289
0.0114477
0.0111658
0.0108832
0.0105999
0.0103161
0.0100316
0.00974652
0.00946091
0.00917477
0.00888812
0.00860098
0.00831339
0.00802535
0.00773689
0.00744803
0.00715879
0.00686919
0.00657925
0.00628899
0.00599842
0.00570756
0.00541643
0.00512504
0.00483341
0.00454156
0.0042495
0.00395725
0.00366482
0.00337223
0.00307948
0.0027866
0.0024936
0.00220049
0.00190728
0.00161399
0.00132063
0.00102722
0.000733758
0.000440267
0.000146758
0.000187789
0.000563359
0.0009389
0.0013144
0.00168983
0.00206517
0.00244041
0.00281553
0.00319051
0.00356532
0.00393995
0.00431437
0.00468857
0.00506251
0.00543617
0.00580954
0.00618258
0.00655527
0.00692757
0.00729947
0.00767093
0.00804192
0.0084124
0.00878235
0.00915174
0.00952051
0.00988864
0.0102561
0.0106228
0.0109888
0.0113539
0.0117182
0.0120816
0.012444
0.0128055
0.0131659
0.0135251
0.0138832
0.0142401
0.0145958
0.01495
0.0153029
0.0156543
0.0160042
0.0163525
0.0166991
0.017044
0.017387
0.0177282
0.0180674
0.0184046
0.0187396
0.0190725
0.0194031
0.0197313
0.020057
0.0203802
0.0207008
0.0210187
0.0213338
0.0216459
0.0219551
0.0222613
0.0225642
0.0228639
0.0231602
0.0234531
0.0237425
0.0240282
0.0243102
0.0245883
0.0248626
0.0251328
0.0253989
0.0256608
0.0259184
0.0261717
0.0264204
0.0266646
0.0269042
0.027139
0.027369
0.0275941
0.0278143
0.0280293
0.0282392
0.0284439
0.0286433
0.0288374
0.029026
0.0292091
0.0293867
0.0295587
0.0297249
0.0298855
0.0300402
0.0301892
0.0303322
0.0304694
0.0306005
0.0307257
0.0308449
0.030958
0.031065
0.0311659
0.0312606
0.0313493
0.0314317
0.031508
0.0315782
0.0316421
0.0316999
0.0317515
0.0317969
0.0318362
0.0318694
0.0318964
0.0319173
0.0319321
0.0319409
0.0319436
0.0319403
0.031931
0.0319158
0.0318947
0.0318678
0.031835
0.0317964
0.0317521
0.0317022
0.0316465
0.0315854
0.0315186
0.0314465
0.0313688
0.0312859
0.0311976
0.0311041
0.0310054
0.0309016
0.0307928
0.0306789
0.0305602
0.0304365
0.0303081
0.030175
0.0300372
0.0298948
0.0297479
0.0295965
0.0294408
0.0292807
0.0291164
0.0289479
0.0287752
0.0285986
0.028418
0.0282334
0.0280451
0.0278529
0.0276571
0.0274576
0.0272546
0.027048
0.0268381
0.0266247
0.0264081
0.0261882
0.0259652
0.025739
0.0255098
0.0252777
0.0250426
0.0248047
0.024564
0.0243205
0.0240744
0.0238257
0.0235744
0.0233206
0.0230644
0.0228058
0.0225449
0.0222818
0.0220164
0.0217489
0.0214793
0.0212076
0.020934
0.0206584
0.0203809
0.0201016
0.0198205
0.0195377
0.0192532
0.018967
0.0186793
0.01839
0.0180992
0.0178069
0.0175133
0.0172182