/*--------------------------------*- C++ -*----------------------------------*\
| =========                 |                                                 |
| \\      /  F ield         | OpenFOAM: The Open Source CFD Toolbox           |
|  \\    /   O peration     | Version:  v2012                                 |
|   \\  /    A nd           | Website:  www.openfoam.com                      |
|    \\/     M anipulation  |                                                 |
\*---------------------------------------------------------------------------*/
FoamFile
{
    version     2.0;
    format      ascii;
    class       volScalarField;
    location    "3.9";
    object      W;
}
// * * * * * * * * * * * * * * * * * * * * * * * * * * * * * * * * * * * * * //

dimensions      [0 0 -1 0 0 0 0];


internalField   nonuniform List<scalar> 
65536
(
3.53471e-21
1.08217e-20
1.87778e-20
2.79033e-20
3.87781e-20
5.20947e-20
6.86942e-20
8.96077e-20
1.16107e-19
1.49767e-19
1.9254e-19
2.46852e-19
3.15716e-19
4.0287e-19
5.12948e-19
6.51681e-19
8.26141e-19
1.04504e-18
1.31907e-18
1.66134e-18
2.08788e-18
2.61821e-18
3.27606e-18
4.09022e-18
5.0955e-18
6.33388e-18
7.85586e-18
9.72201e-18
1.20048e-17
1.47906e-17
1.81824e-17
2.23021e-17
2.72941e-17
3.33285e-17
4.06056e-17
4.93604e-17
5.98673e-17
7.24466e-17
8.74704e-17
1.0537e-16
1.26644e-16
1.51865e-16
1.81694e-16
2.16884e-16
2.58295e-16
3.06906e-16
3.63824e-16
4.30303e-16
5.07751e-16
5.97749e-16
7.02063e-16
8.2266e-16
9.61722e-16
1.12166e-15
1.30513e-15
1.51503e-15
1.75455e-15
2.02714e-15
2.33653e-15
2.68674e-15
3.08209e-15
3.52719e-15
4.0269e-15
4.58638e-15
5.21102e-15
5.90645e-15
6.6785e-15
7.53314e-15
8.47646e-15
9.51463e-15
1.06538e-14
1.19e-14
1.32593e-14
1.47373e-14
1.63394e-14
1.80705e-14
1.99351e-14
2.19369e-14
2.40789e-14
2.63633e-14
2.87911e-14
3.13624e-14
3.40759e-14
3.6929e-14
3.99178e-14
4.30365e-14
4.6278e-14
4.96335e-14
5.30923e-14
5.66422e-14
6.02689e-14
6.39568e-14
6.76883e-14
7.14444e-14
7.52045e-14
7.89468e-14
8.26482e-14
8.62847e-14
8.98316e-14
9.32636e-14
9.65552e-14
9.9681e-14
1.02616e-13
1.05336e-13
1.07817e-13
1.10038e-13
1.11978e-13
1.13619e-13
1.14944e-13
1.1594e-13
1.16596e-13
1.16904e-13
1.1686e-13
1.1646e-13
1.15708e-13
1.14609e-13
1.13169e-13
1.11402e-13
1.09322e-13
1.06946e-13
1.04296e-13
1.01394e-13
9.82652e-14
9.49375e-14
9.14396e-14
8.78018e-14
8.40552e-14
8.02317e-14
7.63631e-14
7.24814e-14
6.86179e-14
6.48032e-14
6.10669e-14
5.74371e-14
5.39405e-14
5.06019e-14
4.74444e-14
4.44888e-14
4.17537e-14
3.92556e-14
3.70087e-14
3.50245e-14
3.33127e-14
3.188e-14
3.07313e-14
2.98689e-14
2.92927e-14
2.90004e-14
2.89876e-14
2.92474e-14
2.97708e-14
3.05466e-14
3.15614e-14
3.27998e-14
3.42442e-14
3.58752e-14
3.76711e-14
3.96087e-14
4.16631e-14
4.38078e-14
4.60149e-14
4.82556e-14
5.05002e-14
5.27185e-14
5.48803e-14
5.69554e-14
5.89145e-14
6.07291e-14
6.23723e-14
6.38192e-14
6.50471e-14
6.60361e-14
6.67694e-14
6.72334e-14
6.74183e-14
6.73182e-14
6.69311e-14
6.62588e-14
6.53075e-14
6.40867e-14
6.26099e-14
6.08939e-14
5.89583e-14
5.68254e-14
5.45197e-14
5.20673e-14
4.94953e-14
4.68315e-14
4.41036e-14
4.13392e-14
3.85646e-14
3.5805e-14
3.30837e-14
3.04222e-14
2.78395e-14
2.53523e-14
2.29745e-14
2.07175e-14
1.85901e-14
1.65985e-14
1.47466e-14
1.30358e-14
1.14656e-14
1.00338e-14
8.7363e-15
7.56798e-15
6.52247e-15
5.59264e-15
4.77074e-15
4.04866e-15
3.41811e-15
2.8708e-15
2.39858e-15
1.99358e-15
1.6483e-15
1.35567e-15
1.10912e-15
9.0263e-16
7.30697e-16
5.88381e-16
4.71267e-16
3.75455e-16
2.97528e-16
2.34515e-16
1.83858e-16
1.43371e-16
1.11199e-16
8.57829e-17
6.58195e-17
5.02297e-17
3.81256e-17
2.87818e-17
2.16105e-17
1.61382e-17
1.19863e-17
8.85425e-18
6.50514e-18
4.75333e-18
3.45441e-18
2.4968e-18
1.79484e-18
1.28322e-18
9.12451e-19
6.45282e-19
4.53858e-19
3.17481e-19
2.20866e-19
1.52797e-19
1.05091e-19
7.18121e-20
4.86703e-20
3.2577e-20
2.13071e-20
1.32485e-20
7.21242e-21
2.28625e-21
1.17024e-20
3.58269e-20
6.21656e-20
9.23735e-20
1.28369e-19
1.72443e-19
2.27377e-19
2.9658e-19
3.84259e-19
4.95618e-19
6.37115e-19
8.16767e-19
1.04453e-18
1.33277e-18
1.69678e-18
2.1555e-18
2.7323e-18
3.45594e-18
4.36175e-18
5.49303e-18
6.90265e-18
8.65509e-18
1.08287e-17
1.35184e-17
1.68392e-17
2.09295e-17
2.59558e-17
3.2118e-17
3.9655e-17
4.88518e-17
6.00473e-17
7.36437e-17
9.01163e-17
1.10026e-16
1.34033e-16
1.62909e-16
1.97559e-16
2.39037e-16
2.88567e-16
3.47567e-16
4.17677e-16
5.00783e-16
5.99051e-16
7.14958e-16
8.51329e-16
1.01138e-15
1.19874e-15
1.41753e-15
1.67236e-15
1.96842e-15
2.31149e-15
2.70803e-15
3.16516e-15
3.69079e-15
4.29359e-15
4.98308e-15
5.76964e-15
6.66453e-15
7.67996e-15
8.82905e-15
1.01259e-14
1.15854e-14
1.32235e-14
1.50569e-14
1.71032e-14
1.93807e-14
2.19082e-14
2.47051e-14
2.77911e-14
3.11861e-14
3.491e-14
3.89823e-14
4.34222e-14
4.82479e-14
5.34766e-14
5.91241e-14
6.52042e-14
7.17289e-14
7.87074e-14
8.61462e-14
9.40482e-14
1.02413e-13
1.11236e-13
1.20508e-13
1.30215e-13
1.40339e-13
1.50855e-13
1.61735e-13
1.72943e-13
1.84438e-13
1.96174e-13
2.081e-13
2.20158e-13
2.32286e-13
2.44417e-13
2.5648e-13
2.684e-13
2.80099e-13
2.91497e-13
3.02513e-13
3.13065e-13
3.2307e-13
3.32448e-13
3.41121e-13
3.49014e-13
3.56057e-13
3.62186e-13
3.67341e-13
3.71473e-13
3.74537e-13
3.76501e-13
3.7734e-13
3.77039e-13
3.75595e-13
3.73015e-13
3.69316e-13
3.64527e-13
3.58686e-13
3.51842e-13
3.44054e-13
3.35388e-13
3.25921e-13
3.15734e-13
3.04916e-13
2.93561e-13
2.81766e-13
2.69633e-13
2.57262e-13
2.44758e-13
2.32221e-13
2.19754e-13
2.07452e-13
1.95411e-13
1.83721e-13
1.72466e-13
1.61726e-13
1.51572e-13
1.4207e-13
1.33281e-13
1.25254e-13
1.18035e-13
1.11659e-13
1.06156e-13
1.01547e-13
9.78462e-14
9.50595e-14
9.31861e-14
9.22178e-14
9.21391e-14
9.29276e-14
9.45538e-14
9.69812e-14
1.00167e-13
1.0406e-13
1.08606e-13
1.13741e-13
1.19397e-13
1.25499e-13
1.31968e-13
1.38721e-13
1.45667e-13
1.52717e-13
1.59776e-13
1.66749e-13
1.7354e-13
1.80054e-13
1.86199e-13
1.91884e-13
1.97027e-13
2.01547e-13
2.05374e-13
2.08445e-13
2.10709e-13
2.12123e-13
2.12657e-13
2.12293e-13
2.11024e-13
2.08858e-13
2.05814e-13
2.01923e-13
1.97228e-13
1.91782e-13
1.85647e-13
1.78895e-13
1.71602e-13
1.63851e-13
1.55727e-13
1.47318e-13
1.38711e-13
1.29993e-13
1.21246e-13
1.1255e-13
1.03978e-13
9.55974e-14
8.74673e-14
7.96398e-14
7.21589e-14
6.506e-14
5.83705e-14
5.21095e-14
4.62888e-14
4.09129e-14
3.598e-14
3.14825e-14
2.7408e-14
2.37396e-14
2.04575e-14
1.7539e-14
1.49597e-14
1.2694e-14
1.07159e-14
8.99906e-15
7.51803e-15
6.24799e-15
5.16535e-15
4.24792e-15
3.47507e-15
2.82784e-15
2.28901e-15
1.84303e-15
1.47607e-15
1.17589e-15
9.31761e-16
7.34375e-16
5.75707e-16
4.48904e-16
3.48151e-16
2.6856e-16
2.0605e-16
1.57237e-16
1.19341e-16
9.00893e-17
6.76396e-17
5.05095e-17
3.75134e-17
2.77102e-17
2.03578e-17
1.4875e-17
1.08099e-17
7.81306e-18
5.61635e-18
4.01533e-18
2.85511e-18
2.01909e-18
1.42011e-18
9.93377e-19
6.91069e-19
4.78085e-19
3.28819e-19
2.24692e-19
1.52284e-19
1.0193e-19
6.66683e-20
4.1454e-20
2.25677e-20
7.15389e-21
2.34819e-20
7.18885e-20
1.24734e-19
1.85335e-19
2.57536e-19
3.45925e-19
4.56074e-19
5.94811e-19
7.70557e-19
9.93731e-19
1.27725e-18
1.63717e-18
2.0934e-18
2.67066e-18
3.39956e-18
4.31794e-18
5.47252e-18
6.92077e-18
8.73329e-18
1.09965e-17
1.38161e-17
1.73206e-17
2.16666e-17
2.70434e-17
3.36803e-17
4.18534e-17
5.18948e-17
6.42025e-17
7.92526e-17
9.76126e-17
1.19957e-16
1.47087e-16
1.79948e-16
2.19655e-16
2.6752e-16
3.25078e-16
3.94125e-16
4.76754e-16
5.75394e-16
6.92859e-16
8.32398e-16
9.97749e-16
1.1932e-15
1.42366e-15
1.69471e-15
2.01271e-15
2.38485e-15
2.81922e-15
3.32497e-15
3.9123e-15
4.59262e-15
5.37862e-15
6.28434e-15
7.32531e-15
8.51857e-15
9.88279e-15
1.14383e-14
1.32072e-14
1.52134e-14
1.74824e-14
2.00417e-14
2.29206e-14
2.615e-14
2.97623e-14
3.37917e-14
3.82735e-14
4.32443e-14
4.87413e-14
5.48027e-14
6.14666e-14
6.8771e-14
7.67533e-14
8.54498e-14
9.48951e-14
1.05121e-13
1.16158e-13
1.28031e-13
1.40762e-13
1.54367e-13
1.68856e-13
1.84235e-13
2.00499e-13
2.17638e-13
2.35632e-13
2.54452e-13
2.74059e-13
2.94406e-13
3.15432e-13
3.37068e-13
3.59232e-13
3.81833e-13
4.0477e-13
4.2793e-13
4.5119e-13
4.74422e-13
4.97486e-13
5.20238e-13
5.42527e-13
5.64199e-13
5.85097e-13
6.05064e-13
6.23943e-13
6.41583e-13
6.57834e-13
6.72556e-13
6.85618e-13
6.96897e-13
7.06287e-13
7.13693e-13
7.19038e-13
7.22261e-13
7.23322e-13
7.22197e-13
7.18885e-13
7.13403e-13
7.05792e-13
6.96109e-13
6.84434e-13
6.70864e-13
6.55515e-13
6.3852e-13
6.20024e-13
6.00189e-13
5.79186e-13
5.57195e-13
5.34404e-13
5.11005e-13
4.87193e-13
4.63163e-13
4.3911e-13
4.15221e-13
3.91683e-13
3.68671e-13
3.46354e-13
3.2489e-13
3.04426e-13
2.85095e-13
2.67019e-13
2.50306e-13
2.35049e-13
2.21328e-13
2.09208e-13
1.9874e-13
1.89961e-13
1.82892e-13
1.77542e-13
1.73907e-13
1.71967e-13
1.71689e-13
1.7303e-13
1.75932e-13
1.80322e-13
1.86119e-13
1.93228e-13
2.01542e-13
2.10942e-13
2.21299e-13
2.32476e-13
2.44322e-13
2.56681e-13
2.6939e-13
2.82278e-13
2.95172e-13
3.07896e-13
3.20274e-13
3.32131e-13
3.43297e-13
3.53609e-13
3.62912e-13
3.71063e-13
3.77934e-13
3.83412e-13
3.87401e-13
3.89827e-13
3.90636e-13
3.89798e-13
3.87303e-13
3.83166e-13
3.77425e-13
3.70139e-13
3.61387e-13
3.51269e-13
3.39901e-13
3.27413e-13
3.13947e-13
2.99655e-13
2.84694e-13
2.69225e-13
2.53407e-13
2.37398e-13
2.2135e-13
2.05406e-13
1.89701e-13
1.74355e-13
1.59477e-13
1.45161e-13
1.31486e-13
1.18516e-13
1.06299e-13
9.48708e-14
8.42506e-14
7.44461e-14
6.5453e-14
5.72569e-14
4.98342e-14
4.31539e-14
3.7179e-14
3.18677e-14
2.71752e-14
2.30545e-14
1.94577e-14
1.63371e-14
1.36457e-14
1.13384e-14
9.37195e-15
7.70601e-15
6.30293e-15
5.12817e-15
4.15035e-15
3.34121e-15
2.67556e-15
2.13114e-15
1.68846e-15
1.3306e-15
1.04299e-15
8.13165e-16
6.30586e-16
4.86376e-16
3.73128e-16
2.84709e-16
2.16071e-16
1.63095e-16
1.22443e-16
9.14267e-17
6.78978e-17
5.01511e-17
3.68422e-17
2.69184e-17
1.9561e-17
1.41375e-17
1.01622e-17
7.26505e-18
5.16565e-18
3.65298e-18
2.56923e-18
1.79716e-18
1.25023e-18
8.64906e-19
5.94865e-19
4.06489e-19
2.75498e-19
1.84404e-19
1.20613e-19
7.49978e-20
4.08298e-20
1.29432e-20
4.24197e-20
1.29862e-19
2.25313e-19
3.34755e-19
4.65119e-19
6.24679e-19
8.23474e-19
1.07381e-18
1.39085e-18
1.79337e-18
2.30462e-18
2.9535e-18
3.77583e-18
4.81609e-18
6.12932e-18
7.78359e-18
9.86285e-18
1.24704e-17
1.5733e-17
1.9806e-17
2.48789e-17
3.11827e-17
3.89979e-17
4.86645e-17
6.05933e-17
7.52791e-17
9.33169e-17
1.1542e-16
1.42439e-16
1.75391e-16
2.15483e-16
2.64145e-16
3.23067e-16
3.94241e-16
4.80008e-16
5.83108e-16
7.06744e-16
8.54644e-16
1.03114e-15
1.24123e-15
1.4907e-15
1.7862e-15
2.13535e-15
2.54684e-15
3.03061e-15
3.5979e-15
4.26145e-15
5.03562e-15
5.93653e-15
6.98223e-15
8.19286e-15
9.59078e-15
1.12007e-14
1.30501e-14
1.51687e-14
1.75894e-14
2.03478e-14
2.34827e-14
2.70357e-14
3.10516e-14
3.55782e-14
4.06664e-14
4.63699e-14
5.27451e-14
5.98509e-14
6.77485e-14
7.65006e-14
8.61716e-14
9.68264e-14
1.0853e-13
1.21348e-13
1.35342e-13
1.50574e-13
1.67102e-13
1.8498e-13
2.04255e-13
2.24969e-13
2.47155e-13
2.7084e-13
2.96037e-13
3.22748e-13
3.50966e-13
3.80664e-13
4.11805e-13
4.44334e-13
4.78179e-13
5.13251e-13
5.49443e-13
5.86628e-13
6.24662e-13
6.63384e-13
7.02614e-13
7.42154e-13
7.81792e-13
8.21301e-13
8.60442e-13
8.98965e-13
9.3661e-13
9.73113e-13
1.00821e-12
1.04163e-12
1.0731e-12
1.10238e-12
1.12922e-12
1.15337e-12
1.17463e-12
1.19279e-12
1.20767e-12
1.21913e-12
1.22705e-12
1.23133e-12
1.23192e-12
1.22878e-12
1.22192e-12
1.2114e-12
1.19727e-12
1.17967e-12
1.15872e-12
1.13461e-12
1.10754e-12
1.07774e-12
1.04548e-12
1.01102e-12
9.74664e-13
9.3672e-13
8.97507e-13
8.57352e-13
8.16585e-13
7.75534e-13
7.34523e-13
6.9387e-13
6.53881e-13
6.14849e-13
5.7705e-13
5.40745e-13
5.06172e-13
4.73548e-13
4.4307e-13
4.1491e-13
3.89216e-13
3.66112e-13
3.45699e-13
3.28054e-13
3.13227e-13
3.0125e-13
2.92128e-13
2.85844e-13
2.82361e-13
2.81618e-13
2.83535e-13
2.88009e-13
2.9492e-13
3.04125e-13
3.15464e-13
3.28757e-13
3.43807e-13
3.604e-13
3.78307e-13
3.97282e-13
4.17069e-13
4.374e-13
4.57999e-13
4.78583e-13
4.98869e-13
5.1857e-13
5.37407e-13
5.55107e-13
5.71407e-13
5.86062e-13
5.98843e-13
6.09548e-13
6.17999e-13
6.24046e-13
6.27575e-13
6.28503e-13
6.26785e-13
6.22412e-13
6.15412e-13
6.05849e-13
5.93822e-13
5.79464e-13
5.62937e-13
5.44429e-13
5.24153e-13
5.02337e-13
4.79226e-13
4.55073e-13
4.30136e-13
4.04669e-13
3.78926e-13
3.53147e-13
3.27561e-13
3.0238e-13
2.77798e-13
2.53984e-13
2.31087e-13
2.09232e-13
1.88517e-13
1.69019e-13
1.50789e-13
1.33859e-13
1.18238e-13
1.03918e-13
9.08733e-14
7.90658e-14
6.84444e-14
5.89488e-14
5.05117e-14
4.30608e-14
3.65205e-14
3.0814e-14
2.58648e-14
2.1598e-14
1.79413e-14
1.4826e-14
1.21876e-14
9.96615e-15
8.10679e-15
6.55958e-15
5.27963e-15
4.22694e-15
3.36619e-15
2.66647e-15
2.10095e-15
1.64654e-15
1.28352e-15
9.95176e-16
7.67473e-16
5.88693e-16
4.49132e-16
3.40812e-16
2.57222e-16
1.93087e-16
1.44161e-16
1.07051e-16
7.90633e-17
5.8077e-17
4.24303e-17
3.0831e-17
2.22813e-17
1.60152e-17
1.14489e-17
8.14011e-18
5.75621e-18
4.04836e-18
2.83174e-18
1.96991e-18
1.36277e-18
9.37278e-19
6.40471e-19
4.34082e-19
2.90556e-19
1.90047e-19
1.18175e-19
6.43376e-20
2.03957e-20
7.40768e-20
2.2677e-19
3.93427e-19
5.84478e-19
8.12004e-19
1.09042e-18
1.43721e-18
1.8738e-18
2.4266e-18
3.12826e-18
4.01927e-18
5.14986e-18
6.58234e-18
8.39401e-18
1.06805e-17
1.35602e-17
1.71787e-17
2.17154e-17
2.73905e-17
3.44732e-17
4.32924e-17
5.42486e-17
6.78278e-17
8.46192e-17
1.05334e-16
1.30829e-16
1.62133e-16
2.00479e-16
2.47342e-16
3.04474e-16
3.73961e-16
4.58273e-16
5.60325e-16
6.83553e-16
8.31989e-16
1.01036e-15
1.22416e-15
1.47983e-15
1.78479e-15
2.14765e-15
2.57834e-15
3.08825e-15
3.69046e-15
4.39986e-15
5.23345e-15
6.21045e-15
7.35264e-15
8.68452e-15
1.02336e-14
1.20306e-14
1.41098e-14
1.65092e-14
1.9271e-14
2.24412e-14
2.60708e-14
3.02151e-14
3.49345e-14
4.0294e-14
4.63639e-14
5.32196e-14
6.09414e-14
6.96143e-14
7.93281e-14
9.0177e-14
1.02259e-13
1.15676e-13
1.30531e-13
1.4693e-13
1.64981e-13
1.84791e-13
2.06463e-13
2.30102e-13
2.55805e-13
2.83665e-13
3.13767e-13
3.46185e-13
3.80983e-13
4.18211e-13
4.57904e-13
5.00079e-13
5.44731e-13
5.91838e-13
6.41349e-13
6.93192e-13
7.47266e-13
8.03443e-13
8.61565e-13
9.21445e-13
9.82864e-13
1.04558e-12
1.1093e-12
1.17374e-12
1.23855e-12
1.30339e-12
1.36786e-12
1.43158e-12
1.49412e-12
1.55507e-12
1.61397e-12
1.67041e-12
1.72393e-12
1.77412e-12
1.82055e-12
1.86284e-12
1.90061e-12
1.9335e-12
1.96122e-12
1.98349e-12
2.00009e-12
2.01083e-12
2.01558e-12
2.01426e-12
2.00686e-12
1.99341e-12
1.974e-12
1.94877e-12
1.91792e-12
1.88172e-12
1.84046e-12
1.7945e-12
1.74423e-12
1.69008e-12
1.63251e-12
1.572e-12
1.50907e-12
1.44425e-12
1.37805e-12
1.31102e-12
1.24369e-12
1.17657e-12
1.11018e-12
1.04499e-12
9.8148e-13
9.20078e-13
8.6119e-13
8.05187e-13
7.52407e-13
7.03149e-13
6.57673e-13
6.16203e-13
5.78921e-13
5.45973e-13
5.17465e-13
4.93465e-13
4.74005e-13
4.5908e-13
4.48652e-13
4.42645e-13
4.40953e-13
4.43437e-13
4.49924e-13
4.60213e-13
4.74073e-13
4.91243e-13
5.11434e-13
5.34332e-13
5.59596e-13
5.86865e-13
6.15754e-13
6.4586e-13
6.76768e-13
7.08047e-13
7.39262e-13
7.69972e-13
7.99742e-13
8.2814e-13
8.54751e-13
8.79175e-13
9.0104e-13
9.20003e-13
9.35758e-13
9.48038e-13
9.56626e-13
9.61351e-13
9.62097e-13
9.58802e-13
9.51461e-13
9.40125e-13
9.24901e-13
9.05946e-13
8.8347e-13
8.57725e-13
8.29005e-13
7.97636e-13
7.63972e-13
7.28388e-13
6.9127e-13
6.53011e-13
6.13999e-13
5.74617e-13
5.35231e-13
4.96185e-13
4.578e-13
4.20364e-13
3.84133e-13
3.49329e-13
3.16136e-13
2.84701e-13
2.55135e-13
2.27513e-13
2.01879e-13
1.78242e-13
1.56588e-13
1.36875e-13
1.19042e-13
1.0301e-13
8.86845e-14
7.59631e-14
6.47343e-14
5.48827e-14
4.62911e-14
3.88431e-14
3.24249e-14
2.69267e-14
2.22444e-14
1.82805e-14
1.49443e-14
1.21528e-14
9.83085e-15
7.91059e-15
6.33178e-15
5.04124e-15
3.99244e-15
3.14503e-15
2.46429e-15
1.9206e-15
1.48886e-15
1.148e-15
8.80426e-16
6.71597e-16
5.09547e-16
3.84519e-16
2.88606e-16
2.1545e-16
1.59969e-16
1.18134e-16
8.67687e-17
6.33863e-17
4.60545e-17
3.32807e-17
2.39196e-17
1.70985e-17
1.21564e-17
8.59593e-18
6.04532e-18
4.22846e-18
2.94148e-18
2.03486e-18
1.39952e-18
9.56337e-19
6.48168e-19
4.33864e-19
2.83789e-19
1.76471e-19
9.60775e-20
3.04581e-20
1.27525e-19
3.90377e-19
6.77232e-19
1.00601e-18
1.39747e-18
1.87637e-18
2.47273e-18
3.22332e-18
4.17347e-18
5.37918e-18
6.90989e-18
8.8517e-18
1.13115e-17
1.44216e-17
1.83459e-17
2.32869e-17
2.94942e-17
3.72746e-17
4.70046e-17
5.91448e-17
7.42573e-17
9.30263e-17
1.16282e-16
1.45031e-16
1.80486e-16
2.24109e-16
2.77655e-16
3.43227e-16
4.23333e-16
5.20961e-16
6.3966e-16
7.8363e-16
9.5783e-16
1.1681e-15
1.42128e-15
1.72539e-15
2.08977e-15
2.52531e-15
3.0446e-15
3.66221e-15
4.39492e-15
5.26201e-15
6.28554e-15
7.49067e-15
8.90602e-15
1.0564e-14
1.25013e-14
1.4759e-14
1.73834e-14
2.04261e-14
2.39444e-14
2.80021e-14
3.26695e-14
3.80238e-14
4.41497e-14
5.11395e-14
5.90935e-14
6.81198e-14
7.8335e-14
8.98635e-14
1.02838e-13
1.17399e-13
1.33694e-13
1.51878e-13
1.7211e-13
1.94557e-13
2.19388e-13
2.46774e-13
2.76889e-13
3.09903e-13
3.45987e-13
3.85302e-13
4.28004e-13
4.74238e-13
5.24134e-13
5.77807e-13
6.35351e-13
6.96838e-13
7.62311e-13
8.31786e-13
9.05244e-13
9.8263e-13
1.06385e-12
1.14877e-12
1.2372e-12
1.32893e-12
1.42368e-12
1.52112e-12
1.62089e-12
1.72257e-12
1.8257e-12
1.92975e-12
2.03419e-12
2.13841e-12
2.24181e-12
2.34371e-12
2.44345e-12
2.54033e-12
2.63366e-12
2.72272e-12
2.80682e-12
2.88528e-12
2.95744e-12
3.02268e-12
3.08041e-12
3.13011e-12
3.1713e-12
3.20358e-12
3.22659e-12
3.2401e-12
3.24392e-12
3.23796e-12
3.22223e-12
3.19681e-12
3.16189e-12
3.11774e-12
3.06471e-12
3.00324e-12
2.93385e-12
2.85713e-12
2.77374e-12
2.68437e-12
2.58979e-12
2.49078e-12
2.38817e-12
2.28281e-12
2.17553e-12
2.0672e-12
1.95864e-12
1.85068e-12
1.74411e-12
1.63969e-12
1.53814e-12
1.44013e-12
1.34629e-12
1.25717e-12
1.17328e-12
1.09508e-12
1.02294e-12
9.57199e-13
8.98109e-13
8.45875e-13
8.00637e-13
7.62477e-13
7.3142e-13
7.07436e-13
6.90439e-13
6.80294e-13
6.76813e-13
6.79761e-13
6.88854e-13
7.03766e-13
7.24123e-13
7.49512e-13
7.79477e-13
8.13525e-13
8.51128e-13
8.91723e-13
9.34719e-13
9.795e-13
1.02543e-12
1.07185e-12
1.11811e-12
1.16354e-12
1.20748e-12
1.2493e-12
1.28836e-12
1.32407e-12
1.35589e-12
1.3833e-12
1.40586e-12
1.42318e-12
1.43495e-12
1.44093e-12
1.44094e-12
1.43493e-12
1.42288e-12
1.4049e-12
1.38115e-12
1.35188e-12
1.31741e-12
1.27813e-12
1.23448e-12
1.18697e-12
1.13612e-12
1.08249e-12
1.02667e-12
9.69233e-13
9.10762e-13
8.51824e-13
7.9296e-13
7.34678e-13
6.77449e-13
6.21698e-13
5.67798e-13
5.16071e-13
4.66783e-13
4.20148e-13
3.76322e-13
3.35412e-13
2.97473e-13
2.62518e-13
2.30517e-13
2.01405e-13
1.75087e-13
1.5144e-13
1.30325e-13
1.11584e-13
9.50518e-14
8.05548e-14
6.79187e-14
5.697e-14
4.75396e-14
3.94648e-14
3.25914e-14
2.67749e-14
2.18817e-14
1.77891e-14
1.4386e-14
1.15727e-14
9.26054e-15
7.37116e-15
5.83619e-15
4.59635e-15
3.60066e-15
2.80564e-15
2.1745e-15
1.67634e-15
1.28538e-15
9.80331e-16
7.43663e-16
5.61102e-16
4.21081e-16
3.14302e-16
2.33336e-16
1.72294e-16
1.26535e-16
9.24269e-17
6.71484e-17
4.85199e-17
3.48699e-17
2.49246e-17
1.77194e-17
1.2529e-17
8.81101e-18
6.16275e-18
4.28695e-18
2.96559e-18
2.03963e-18
1.39375e-18
9.4464e-19
6.32326e-19
4.13613e-19
2.57208e-19
1.40038e-19
4.4395e-20
2.17719e-19
6.6646e-19
1.15611e-18
1.71723e-18
2.38516e-18
3.20208e-18
4.21911e-18
5.49885e-18
7.11841e-18
9.1731e-18
1.1781e-17
1.50885e-17
1.92772e-17
2.4572e-17
3.12515e-17
3.96593e-17
5.02191e-17
6.34516e-17
7.99956e-17
1.00632e-16
1.26314e-16
1.58201e-16
1.97699e-16
2.46512e-16
3.06693e-16
3.80716e-16
4.71549e-16
5.82744e-16
7.18541e-16
8.83986e-16
1.08507e-15
1.32887e-15
1.62376e-15
1.97956e-15
2.40782e-15
2.92202e-15
3.53788e-15
4.27368e-15
5.15059e-15
6.19307e-15
7.42927e-15
8.89148e-15
1.06167e-14
1.26469e-14
1.50301e-14
1.78204e-14
2.10789e-14
2.48743e-14
2.92836e-14
3.43925e-14
4.02967e-14
4.71016e-14
5.49239e-14
6.38916e-14
7.41447e-14
8.58356e-14
9.91295e-14
1.14205e-13
1.31252e-13
1.50477e-13
1.72096e-13
1.96338e-13
2.23445e-13
2.53667e-13
2.87264e-13
3.24505e-13
3.65663e-13
4.11013e-13
4.60832e-13
5.15393e-13
5.74963e-13
6.398e-13
7.10146e-13
7.86224e-13
8.68234e-13
9.56346e-13
1.0507e-12
1.15139e-12
1.25847e-12
1.37194e-12
1.49175e-12
1.61779e-12
1.74989e-12
1.88778e-12
2.03117e-12
2.17965e-12
2.33276e-12
2.48995e-12
2.6506e-12
2.81401e-12
2.9794e-12
3.14594e-12
3.3127e-12
3.47874e-12
3.64303e-12
3.8045e-12
3.96207e-12
4.11463e-12
4.26104e-12
4.4002e-12
4.53099e-12
4.65235e-12
4.76324e-12
4.86271e-12
4.94984e-12
5.02383e-12
5.08397e-12
5.12965e-12
5.16039e-12
5.17582e-12
5.17573e-12
5.16002e-12
5.12877e-12
5.08216e-12
5.02055e-12
4.94443e-12
4.85441e-12
4.75124e-12
4.63579e-12
4.50904e-12
4.37205e-12
4.22598e-12
4.07206e-12
3.91156e-12
3.7458e-12
3.57611e-12
3.40385e-12
3.23033e-12
3.05689e-12
2.8848e-12
2.71529e-12
2.54954e-12
2.38863e-12
2.2336e-12
2.08539e-12
1.94485e-12
1.81273e-12
1.6897e-12
1.57631e-12
1.47303e-12
1.38022e-12
1.29817e-12
1.22704e-12
1.16692e-12
1.11782e-12
1.07964e-12
1.05223e-12
1.03533e-12
1.02864e-12
1.03175e-12
1.0442e-12
1.06547e-12
1.09497e-12
1.13205e-12
1.17599e-12
1.22602e-12
1.28134e-12
1.34109e-12
1.40435e-12
1.4702e-12
1.53768e-12
1.60579e-12
1.67355e-12
1.73998e-12
1.80408e-12
1.86491e-12
1.92155e-12
1.97312e-12
2.01882e-12
2.05791e-12
2.08974e-12
2.11376e-12
2.12952e-12
2.13667e-12
2.13501e-12
2.12444e-12
2.10498e-12
2.07679e-12
2.04015e-12
1.99543e-12
1.94312e-12
1.88383e-12
1.81821e-12
1.747e-12
1.671e-12
1.59105e-12
1.50798e-12
1.42268e-12
1.33599e-12
1.24873e-12
1.16171e-12
1.07566e-12
9.91272e-13
9.09153e-13
8.29847e-13
7.53815e-13
6.8144e-13
6.13022e-13
5.48782e-13
4.88866e-13
4.33347e-13
3.82233e-13
3.35474e-13
2.92966e-13
2.54564e-13
2.20083e-13
1.89312e-13
1.62019e-13
1.37956e-13
1.16867e-13
9.84959e-14
8.25861e-14
6.88895e-14
5.71676e-14
4.71944e-14
3.87586e-14
3.16648e-14
2.57343e-14
2.08049e-14
1.67315e-14
1.33848e-14
1.0651e-14
8.43087e-15
6.63815e-15
5.19891e-15
4.05007e-15
3.13831e-15
2.41885e-15
1.85436e-15
1.41401e-15
1.07246e-15
8.09049e-16
6.0706e-16
4.53054e-16
3.363e-16
2.48291e-16
1.82326e-16
1.33166e-16
9.67359e-17
6.98931e-17
5.02264e-17
3.58987e-17
2.55196e-17
1.80434e-17
1.26885e-17
8.87451e-18
6.17317e-18
4.27035e-18
2.93699e-18
2.00694e-18
1.36026e-18
9.10552e-19
5.95621e-19
3.70402e-19
2.01673e-19
6.39359e-20
3.69315e-19
1.13047e-18
1.96093e-18
2.91239e-18
4.04474e-18
5.42931e-18
7.1526e-18
9.3205e-18
1.20634e-17
1.55423e-17
1.99569e-17
2.55544e-17
3.26415e-17
4.15981e-17
5.28941e-17
6.71094e-17
8.49587e-17
1.0732e-16
1.3527e-16
1.70125e-16
2.1349e-16
2.67316e-16
3.33973e-16
4.16324e-16
5.17824e-16
6.42632e-16
7.95735e-16
9.83099e-16
1.21184e-15
1.49043e-15
1.82891e-15
2.23916e-15
2.73519e-15
3.33346e-15
4.05328e-15
4.9172e-15
5.95151e-15
7.18675e-15
8.65824e-15
1.04068e-14
1.24793e-14
1.49296e-14
1.78192e-14
2.12181e-14
2.52058e-14
2.98722e-14
3.53187e-14
4.16592e-14
4.9021e-14
5.7546e-14
6.73919e-14
7.87331e-14
9.17616e-14
1.06688e-13
1.23742e-13
1.43175e-13
1.65256e-13
1.90278e-13
2.18553e-13
2.50415e-13
2.86215e-13
3.26328e-13
3.71143e-13
4.21065e-13
4.76515e-13
5.37923e-13
6.05726e-13
6.80365e-13
7.62279e-13
8.519e-13
9.49649e-13
1.05593e-12
1.17111e-12
1.29554e-12
1.42952e-12
1.5733e-12
1.72707e-12
1.89096e-12
2.06504e-12
2.24926e-12
2.44351e-12
2.64756e-12
2.8611e-12
3.08369e-12
3.31478e-12
3.55369e-12
3.79963e-12
4.05168e-12
4.3088e-12
4.56983e-12
4.8335e-12
5.09841e-12
5.3631e-12
5.62598e-12
5.88542e-12
6.1397e-12
6.38707e-12
6.62576e-12
6.85398e-12
7.06996e-12
7.27197e-12
7.45833e-12
7.62744e-12
7.77782e-12
7.90809e-12
8.01702e-12
8.10356e-12
8.16681e-12
8.20609e-12
8.22091e-12
8.21102e-12
8.17636e-12
8.11712e-12
8.03372e-12
7.92678e-12
7.79717e-12
7.64595e-12
7.47438e-12
7.2839e-12
7.07611e-12
6.85277e-12
6.61573e-12
6.36696e-12
6.10851e-12
5.84246e-12
5.57093e-12
5.29603e-12
5.01986e-12
4.74445e-12
4.4718e-12
4.2038e-12
3.94223e-12
3.68879e-12
3.44501e-12
3.21232e-12
2.99198e-12
2.7851e-12
2.59266e-12
2.41545e-12
2.25414e-12
2.10923e-12
1.98108e-12
1.86989e-12
1.77575e-12
1.69859e-12
1.63822e-12
1.59434e-12
1.56652e-12
1.55422e-12
1.5568e-12
1.57352e-12
1.60353e-12
1.6459e-12
1.69962e-12
1.76357e-12
1.83659e-12
1.91742e-12
2.00475e-12
2.09721e-12
2.1934e-12
2.29187e-12
2.39114e-12
2.48974e-12
2.58621e-12
2.67909e-12
2.76697e-12
2.84852e-12
2.92245e-12
2.98759e-12
3.04287e-12
3.08737e-12
3.12028e-12
3.14098e-12
3.149e-12
3.14405e-12
3.12601e-12
3.09498e-12
3.05119e-12
2.99508e-12
2.92723e-12
2.8484e-12
2.75947e-12
2.66143e-12
2.55539e-12
2.44252e-12
2.32404e-12
2.20122e-12
2.07531e-12
1.94757e-12
1.8192e-12
1.69134e-12
1.56509e-12
1.44141e-12
1.32121e-12
1.20524e-12
1.09418e-12
9.88565e-13
8.88815e-13
7.95239e-13
7.08036e-13
6.27298e-13
5.53024e-13
4.85129e-13
4.23451e-13
3.67769e-13
3.17806e-13
2.73249e-13
2.33751e-13
1.98949e-13
1.68466e-13
1.41926e-13
1.18954e-13
9.91877e-14
8.22798e-14
6.79012e-14
5.57448e-14
4.55268e-14
3.6988e-14
2.98936e-14
2.40334e-14
1.92206e-14
1.52907e-14
1.21002e-14
9.52477e-15
7.45784e-15
5.80848e-15
4.49986e-15
3.46752e-15
2.65777e-15
2.02625e-15
1.53654e-15
1.15895e-15
8.69463e-16
6.4879e-16
4.81528e-16
3.55467e-16
2.60998e-16
1.90604e-16
1.38447e-16
1.00021e-16
7.18711e-17
5.13654e-17
3.65123e-17
2.58144e-17
1.81524e-17
1.26956e-17
8.83091e-18
6.10876e-18
4.20134e-18
2.87092e-18
1.94586e-18
1.30258e-18
8.52083e-19
5.29907e-19
2.88527e-19
9.14727e-20
6.22792e-19
1.90631e-18
3.30649e-18
4.91042e-18
6.81882e-18
9.15175e-18
1.20547e-17
1.57056e-17
2.03238e-17
2.61799e-17
3.36091e-17
4.30269e-17
5.49483e-17
7.00107e-17
8.90026e-17
1.12897e-16
1.42893e-16
1.80461e-16
2.27407e-16
2.85935e-16
3.58734e-16
4.49071e-16
5.60909e-16
6.9904e-16
8.69242e-16
1.07847e-15
1.33504e-15
1.64894e-15
2.03203e-15
2.49845e-15
3.06495e-15
3.75133e-15
4.58092e-15
5.58114e-15
6.78412e-15
8.22738e-15
9.95459e-15
1.20165e-14
1.44717e-14
1.73879e-14
2.08429e-14
2.49258e-14
2.97384e-14
3.53966e-14
4.20316e-14
4.97919e-14
5.88448e-14
6.93778e-14
8.16006e-14
9.57467e-14
1.12075e-13
1.30872e-13
1.52451e-13
1.77158e-13
2.0537e-13
2.37493e-13
2.7397e-13
3.15275e-13
3.61915e-13
4.14431e-13
4.73395e-13
5.39408e-13
6.13099e-13
6.9512e-13
7.86144e-13
8.86858e-13
9.97961e-13
1.12015e-12
1.25412e-12
1.40055e-12
1.5601e-12
1.73339e-12
1.921e-12
2.12345e-12
2.34118e-12
2.57457e-12
2.82388e-12
3.08928e-12
3.37081e-12
3.66835e-12
3.98166e-12
4.31034e-12
4.6538e-12
5.01127e-12
5.38181e-12
5.76428e-12
6.15734e-12
6.55947e-12
6.96893e-12
7.38381e-12
7.80204e-12
8.22135e-12
8.63933e-12
9.05346e-12
9.46109e-12
9.85947e-12
1.02458e-11
1.06173e-11
1.09712e-11
1.13046e-11
1.16148e-11
1.18993e-11
1.21555e-11
1.23813e-11
1.25745e-11
1.27332e-11
1.28559e-11
1.29414e-11
1.29887e-11
1.2997e-11
1.29663e-11
1.28964e-11
1.2788e-11
1.26417e-11
1.24587e-11
1.22404e-11
1.19888e-11
1.17058e-11
1.13938e-11
1.10555e-11
1.06937e-11
1.03114e-11
9.91175e-12
9.49793e-12
9.07327e-12
8.64111e-12
8.20474e-12
7.76742e-12
7.33232e-12
6.90248e-12
6.48082e-12
6.07007e-12
5.67277e-12
5.29125e-12
4.92762e-12
4.58377e-12
4.26133e-12
3.96169e-12
3.68602e-12
3.43522e-12
3.20998e-12
3.01074e-12
2.83774e-12
2.69101e-12
2.57035e-12
2.4754e-12
2.40561e-12
2.36024e-12
2.33841e-12
2.33907e-12
2.36104e-12
2.40297e-12
2.46341e-12
2.54078e-12
2.63337e-12
2.73937e-12
2.85689e-12
2.98394e-12
3.11845e-12
3.2583e-12
3.40133e-12
3.54535e-12
3.68818e-12
3.82763e-12
3.96157e-12
4.08795e-12
4.20479e-12
4.31025e-12
4.40261e-12
4.48034e-12
4.54211e-12
4.58679e-12
4.6135e-12
4.62159e-12
4.61069e-12
4.58068e-12
4.53171e-12
4.46419e-12
4.3788e-12
4.27644e-12
4.15823e-12
4.02548e-12
3.8797e-12
3.72249e-12
3.5556e-12
3.38082e-12
3.19999e-12
3.01495e-12
2.82752e-12
2.63945e-12
2.45239e-12
2.26791e-12
2.08743e-12
1.9122e-12
1.74333e-12
1.58177e-12
1.42828e-12
1.28344e-12
1.14769e-12
1.02129e-12
9.04362e-13
7.96876e-13
6.98693e-13
6.09566e-13
5.29157e-13
4.57057e-13
3.92798e-13
3.35871e-13
2.85741e-13
2.41859e-13
2.03673e-13
1.70639e-13
1.4223e-13
1.17941e-13
9.72956e-14
7.98488e-14
6.51906e-14
5.29464e-14
4.27778e-14
3.43814e-14
2.74883e-14
2.18618e-14
1.72955e-14
1.36109e-14
1.06546e-14
8.29629e-15
6.42573e-15
4.95051e-15
3.79368e-15
2.8917e-15
2.19242e-15
1.65337e-15
1.24019e-15
9.25285e-16
6.86643e-16
5.06819e-16
3.72082e-16
2.71698e-16
1.97331e-16
1.42548e-16
1.02421e-16
7.31937e-17
5.20254e-17
3.67801e-17
2.58623e-17
1.80871e-17
1.25809e-17
8.70261e-18
5.98522e-18
4.08991e-18
2.7721e-18
1.85571e-18
1.21394e-18
7.5497e-19
4.11082e-19
1.30329e-19
1.04426e-18
3.1963e-18
5.54366e-18
8.23208e-18
1.14301e-17
1.53387e-17
2.0201e-17
2.63147e-17
3.40462e-17
4.38479e-17
5.62798e-17
7.20357e-17
9.19753e-17
1.17163e-16
1.48914e-16
1.88853e-16
2.38976e-16
3.01739e-16
3.80148e-16
4.77877e-16
5.99403e-16
7.50166e-16
9.36762e-16
1.16716e-15
1.45098e-15
1.79975e-15
2.22734e-15
2.7503e-15
3.38833e-15
4.1649e-15
5.10779e-15
6.2498e-15
7.62961e-15
9.29263e-15
1.1292e-14
1.36899e-14
1.65583e-14
1.99813e-14
2.40555e-14
2.88926e-14
3.4621e-14
4.13873e-14
4.93593e-14
5.87274e-14
6.97076e-14
8.25436e-14
9.75099e-14
1.14914e-13
1.35099e-13
1.58447e-13
1.85381e-13
2.16368e-13
2.51922e-13
2.92603e-13
3.39023e-13
3.91846e-13
4.51787e-13
5.19613e-13
5.96146e-13
6.82258e-13
7.78868e-13
8.86944e-13
1.00749e-12
1.14156e-12
1.29021e-12
1.45455e-12
1.63568e-12
1.8347e-12
2.0527e-12
2.29075e-12
2.54986e-12
2.83101e-12
3.13506e-12
3.46281e-12
3.81492e-12
4.19191e-12
4.59416e-12
5.02183e-12
5.47492e-12
5.95317e-12
6.4561e-12
6.98297e-12
7.53274e-12
8.10411e-12
8.69545e-12
9.30487e-12
9.93011e-12
1.05687e-11
1.12177e-11
1.1874e-11
1.25343e-11
1.31949e-11
1.3852e-11
1.45013e-11
1.51388e-11
1.576e-11
1.63606e-11
1.69361e-11
1.7482e-11
1.79941e-11
1.84681e-11
1.89e-11
1.9286e-11
1.96226e-11
1.99068e-11
2.01357e-11
2.03071e-11
2.04192e-11
2.04706e-11
2.04606e-11
2.0389e-11
2.0256e-11
2.00626e-11
1.98102e-11
1.95008e-11
1.9137e-11
1.87218e-11
1.82586e-11
1.77512e-11
1.7204e-11
1.66215e-11
1.60084e-11
1.53698e-11
1.47107e-11
1.40363e-11
1.33519e-11
1.26626e-11
1.19734e-11
1.12891e-11
1.06146e-11
9.95413e-12
9.31193e-12
8.69181e-12
8.09727e-12
7.53143e-12
6.99708e-12
6.49658e-12
6.03197e-12
5.60485e-12
5.2165e-12
4.86781e-12
4.55932e-12
4.29126e-12
4.06352e-12
3.87569e-12
3.72707e-12
3.6167e-12