/*--------------------------------*- C++ -*----------------------------------*\
| =========                 |                                                 |
| \\      /  F ield         | OpenFOAM: The Open Source CFD Toolbox           |
|  \\    /   O peration     | Version:  v2012                                 |
|   \\  /    A nd           | Website:  www.openfoam.com                      |
|    \\/     M anipulation  |                                                 |
\*---------------------------------------------------------------------------*/
FoamFile
{
    version     2.0;
    format      ascii;
    class       volVectorField;
    location    "18.4";
    object      Psi;
}
// * * * * * * * * * * * * * * * * * * * * * * * * * * * * * * * * * * * * * //

dimensions      [0 2 -1 0 0 0 0];


internalField   nonuniform List<vector> 
65536
(
(0 0 8.09836e-06)
(0 0 2.42955e-05)
(0 0 4.04938e-05)
(0 0 5.6694e-05)
(0 0 7.28967e-05)
(0 0 8.91028e-05)
(0 0 0.000105313)
(0 0 0.000121528)
(0 0 0.000137748)
(0 0 0.000153974)
(0 0 0.000170207)
(0 0 0.000186448)
(0 0 0.000202697)
(0 0 0.000218954)
(0 0 0.000235221)
(0 0 0.000251497)
(0 0 0.000267784)
(0 0 0.000284082)
(0 0 0.000300392)
(0 0 0.000316713)
(0 0 0.000333046)
(0 0 0.000349393)
(0 0 0.000365752)
(0 0 0.000382124)
(0 0 0.000398511)
(0 0 0.000414911)
(0 0 0.000431324)
(0 0 0.000447752)
(0 0 0.000464195)
(0 0 0.000480651)
(0 0 0.000497122)
(0 0 0.000513606)
(0 0 0.000530105)
(0 0 0.000546617)
(0 0 0.000563142)
(0 0 0.000579681)
(0 0 0.000596232)
(0 0 0.000612795)
(0 0 0.000629369)
(0 0 0.000645955)
(0 0 0.00066255)
(0 0 0.000679154)
(0 0 0.000695767)
(0 0 0.000712387)
(0 0 0.000729012)
(0 0 0.000745643)
(0 0 0.000762277)
(0 0 0.000778913)
(0 0 0.000795549)
(0 0 0.000812184)
(0 0 0.000828817)
(0 0 0.000845444)
(0 0 0.000862064)
(0 0 0.000878675)
(0 0 0.000895275)
(0 0 0.000911861)
(0 0 0.000928431)
(0 0 0.000944981)
(0 0 0.00096151)
(0 0 0.000978014)
(0 0 0.00099449)
(0 0 0.00101093)
(0 0 0.00102734)
(0 0 0.00104372)
(0 0 0.00106005)
(0 0 0.00107633)
(0 0 0.00109256)
(0 0 0.00110874)
(0 0 0.00112487)
(0 0 0.00114092)
(0 0 0.00115692)
(0 0 0.00117283)
(0 0 0.00118868)
(0 0 0.00120443)
(0 0 0.0012201)
(0 0 0.00123568)
(0 0 0.00125116)
(0 0 0.00126653)
(0 0 0.00128179)
(0 0 0.00129694)
(0 0 0.00131196)
(0 0 0.00132685)
(0 0 0.0013416)
(0 0 0.00135622)
(0 0 0.00137068)
(0 0 0.00138498)
(0 0 0.00139913)
(0 0 0.0014131)
(0 0 0.00142689)
(0 0 0.0014405)
(0 0 0.00145391)
(0 0 0.00146712)
(0 0 0.00148013)
(0 0 0.00149292)
(0 0 0.00150548)
(0 0 0.00151782)
(0 0 0.00152991)
(0 0 0.00154176)
(0 0 0.00155335)
(0 0 0.00156469)
(0 0 0.00157575)
(0 0 0.00158653)
(0 0 0.00159702)
(0 0 0.00160723)
(0 0 0.00161713)
(0 0 0.00162672)
(0 0 0.001636)
(0 0 0.00164495)
(0 0 0.00165358)
(0 0 0.00166187)
(0 0 0.00166981)
(0 0 0.0016774)
(0 0 0.00168464)
(0 0 0.00169152)
(0 0 0.00169802)
(0 0 0.00170415)
(0 0 0.0017099)
(0 0 0.00171527)
(0 0 0.00172025)
(0 0 0.00172483)
(0 0 0.00172901)
(0 0 0.00173279)
(0 0 0.00173617)
(0 0 0.00173913)
(0 0 0.00174169)
(0 0 0.00174382)
(0 0 0.00174555)
(0 0 0.00174685)
(0 0 0.00174773)
(0 0 0.00174819)
(0 0 0.00174823)
(0 0 0.00174784)
(0 0 0.00174703)
(0 0 0.0017458)
(0 0 0.00174415)
(0 0 0.00174208)
(0 0 0.00173959)
(0 0 0.00173669)
(0 0 0.00173337)
(0 0 0.00172963)
(0 0 0.00172549)
(0 0 0.00172095)
(0 0 0.001716)
(0 0 0.00171066)
(0 0 0.00170492)
(0 0 0.00169879)
(0 0 0.00169228)
(0 0 0.00168539)
(0 0 0.00167813)
(0 0 0.0016705)
(0 0 0.00166251)
(0 0 0.00165416)
(0 0 0.00164547)
(0 0 0.00163643)
(0 0 0.00162706)
(0 0 0.00161735)
(0 0 0.00160733)
(0 0 0.00159699)
(0 0 0.00158635)
(0 0 0.0015754)
(0 0 0.00156417)
(0 0 0.00155265)
(0 0 0.00154085)
(0 0 0.00152878)
(0 0 0.00151645)
(0 0 0.00150387)
(0 0 0.00149104)
(0 0 0.00147797)
(0 0 0.00146467)
(0 0 0.00145115)
(0 0 0.00143742)
(0 0 0.00142347)
(0 0 0.00140933)
(0 0 0.00139499)
(0 0 0.00138047)
(0 0 0.00136577)
(0 0 0.0013509)
(0 0 0.00133586)
(0 0 0.00132067)
(0 0 0.00130533)
(0 0 0.00128985)
(0 0 0.00127422)
(0 0 0.00125847)
(0 0 0.0012426)
(0 0 0.0012266)
(0 0 0.0012105)
(0 0 0.00119429)
(0 0 0.00117798)
(0 0 0.00116157)
(0 0 0.00114508)
(0 0 0.0011285)
(0 0 0.00111184)
(0 0 0.00109511)
(0 0 0.00107831)
(0 0 0.00106145)
(0 0 0.00104452)
(0 0 0.00102755)
(0 0 0.00101051)
(0 0 0.000993438)
(0 0 0.000976317)
(0 0 0.000959156)
(0 0 0.000941959)
(0 0 0.000924729)
(0 0 0.00090747)
(0 0 0.000890184)
(0 0 0.000872875)
(0 0 0.000855544)
(0 0 0.000838196)
(0 0 0.000820832)
(0 0 0.000803454)
(0 0 0.000786066)
(0 0 0.000768669)
(0 0 0.000751265)
(0 0 0.000733856)
(0 0 0.000716443)
(0 0 0.000699029)
(0 0 0.000681615)
(0 0 0.000664202)
(0 0 0.000646792)
(0 0 0.000629386)
(0 0 0.000611984)
(0 0 0.000594588)
(0 0 0.000577199)
(0 0 0.000559818)
(0 0 0.000542444)
(0 0 0.00052508)
(0 0 0.000507725)
(0 0 0.00049038)
(0 0 0.000473044)
(0 0 0.00045572)
(0 0 0.000438406)
(0 0 0.000421103)
(0 0 0.000403811)
(0 0 0.00038653)
(0 0 0.00036926)
(0 0 0.000352001)
(0 0 0.000334752)
(0 0 0.000317514)
(0 0 0.000300287)
(0 0 0.000283069)
(0 0 0.000265861)
(0 0 0.000248662)
(0 0 0.000231472)
(0 0 0.000214291)
(0 0 0.000197117)
(0 0 0.000179951)
(0 0 0.000162791)
(0 0 0.000145638)
(0 0 0.000128491)
(0 0 0.000111348)
(0 0 9.42102e-05)
(0 0 7.70759e-05)
(0 0 5.99447e-05)
(0 0 4.28159e-05)
(0 0 2.56888e-05)
(0 0 8.56284e-06)
(0 0 2.42949e-05)
(0 0 7.28858e-05)
(0 0 0.00012148)
(0 0 0.00017008)
(0 0 0.000218687)
(0 0 0.000267305)
(0 0 0.000315935)
(0 0 0.000364578)
(0 0 0.000413239)
(0 0 0.000461917)
(0 0 0.000510616)
(0 0 0.000559337)
(0 0 0.000608083)
(0 0 0.000656855)
(0 0 0.000705654)
(0 0 0.000754484)
(0 0 0.000803344)
(0 0 0.000852238)
(0 0 0.000901165)
(0 0 0.000950129)
(0 0 0.000999129)
(0 0 0.00104817)
(0 0 0.00109724)
(0 0 0.00114636)
(0 0 0.00119552)
(0 0 0.00124472)
(0 0 0.00129396)
(0 0 0.00134325)
(0 0 0.00139257)
(0 0 0.00144194)
(0 0 0.00149135)
(0 0 0.00154081)
(0 0 0.0015903)
(0 0 0.00163984)
(0 0 0.00168942)
(0 0 0.00173903)
(0 0 0.00178869)
(0 0 0.00183838)
(0 0 0.0018881)
(0 0 0.00193786)
(0 0 0.00198764)
(0 0 0.00203746)
(0 0 0.0020873)
(0 0 0.00213716)
(0 0 0.00218704)
(0 0 0.00223693)
(0 0 0.00228683)
(0 0 0.00233674)
(0 0 0.00238665)
(0 0 0.00243656)
(0 0 0.00248646)
(0 0 0.00253634)
(0 0 0.00258621)
(0 0 0.00263604)
(0 0 0.00268584)
(0 0 0.00273561)
(0 0 0.00278532)
(0 0 0.00283497)
(0 0 0.00288456)
(0 0 0.00293408)
(0 0 0.00298351)
(0 0 0.00303284)
(0 0 0.00308208)
(0 0 0.0031312)
(0 0 0.00318019)
(0 0 0.00322905)
(0 0 0.00327775)
(0 0 0.0033263)
(0 0 0.00337467)
(0 0 0.00342285)
(0 0 0.00347083)
(0 0 0.00351859)
(0 0 0.00356611)
(0 0 0.00361339)
(0 0 0.00366041)
(0 0 0.00370715)
(0 0 0.00375359)
(0 0 0.00379971)
(0 0 0.0038455)
(0 0 0.00389094)
(0 0 0.00393601)
(0 0 0.00398069)
(0 0 0.00402496)
(0 0 0.00406881)
(0 0 0.0041122)
(0 0 0.00415512)
(0 0 0.00419756)
(0 0 0.00423948)
(0 0 0.00428086)
(0 0 0.00432169)
(0 0 0.00436194)
(0 0 0.00440159)
(0 0 0.00444061)
(0 0 0.00447899)
(0 0 0.00451669)
(0 0 0.0045537)
(0 0 0.00458999)
(0 0 0.00462555)
(0 0 0.00466033)
(0 0 0.00469433)
(0 0 0.00472752)
(0 0 0.00475987)
(0 0 0.00479137)
(0 0 0.00482199)
(0 0 0.0048517)
(0 0 0.00488049)
(0 0 0.00490833)
(0 0 0.0049352)
(0 0 0.00496108)
(0 0 0.00498595)
(0 0 0.00500979)
(0 0 0.00503257)
(0 0 0.00505429)
(0 0 0.00507492)
(0 0 0.00509444)
(0 0 0.00511284)
(0 0 0.0051301)
(0 0 0.0051462)
(0 0 0.00516114)
(0 0 0.00517489)
(0 0 0.00518744)
(0 0 0.00519879)
(0 0 0.00520892)
(0 0 0.00521782)
(0 0 0.00522548)
(0 0 0.00523189)
(0 0 0.00523706)
(0 0 0.00524097)
(0 0 0.00524361)
(0 0 0.00524499)
(0 0 0.00524511)
(0 0 0.00524395)
(0 0 0.00524153)
(0 0 0.00523784)
(0 0 0.00523288)
(0 0 0.00522667)
(0 0 0.0052192)
(0 0 0.00521048)
(0 0 0.00520051)
(0 0 0.00518932)
(0 0 0.00517689)
(0 0 0.00516325)
(0 0 0.0051484)
(0 0 0.00513236)
(0 0 0.00511514)
(0 0 0.00509676)
(0 0 0.00507722)
(0 0 0.00505655)
(0 0 0.00503475)
(0 0 0.00501186)
(0 0 0.00498788)
(0 0 0.00496283)
(0 0 0.00493674)
(0 0 0.00490962)
(0 0 0.00488149)
(0 0 0.00485238)
(0 0 0.0048223)
(0 0 0.00479128)
(0 0 0.00475934)
(0 0 0.0047265)
(0 0 0.00469278)
(0 0 0.00465821)
(0 0 0.00462281)
(0 0 0.0045866)
(0 0 0.00454961)
(0 0 0.00451185)
(0 0 0.00447336)
(0 0 0.00443415)
(0 0 0.00439425)
(0 0 0.00435368)
(0 0 0.00431246)
(0 0 0.00427062)
(0 0 0.00422818)
(0 0 0.00418516)
(0 0 0.00414159)
(0 0 0.00409748)
(0 0 0.00405286)
(0 0 0.00400775)
(0 0 0.00396217)
(0 0 0.00391613)
(0 0 0.00386967)
(0 0 0.0038228)
(0 0 0.00377554)
(0 0 0.0037279)
(0 0 0.00367992)
(0 0 0.0036316)
(0 0 0.00358296)
(0 0 0.00353402)
(0 0 0.0034848)
(0 0 0.00343531)
(0 0 0.00338557)
(0 0 0.00333559)
(0 0 0.0032854)
(0 0 0.00323499)
(0 0 0.0031844)
(0 0 0.00313362)
(0 0 0.00308268)
(0 0 0.00303159)
(0 0 0.00298035)
(0 0 0.00292899)
(0 0 0.0028775)
(0 0 0.00282591)
(0 0 0.00277422)
(0 0 0.00272243)
(0 0 0.00267057)
(0 0 0.00261864)
(0 0 0.00256665)
(0 0 0.0025146)
(0 0 0.00246251)
(0 0 0.00241037)
(0 0 0.0023582)
(0 0 0.00230601)
(0 0 0.0022538)
(0 0 0.00220157)
(0 0 0.00214933)
(0 0 0.00209709)
(0 0 0.00204484)
(0 0 0.0019926)
(0 0 0.00194037)
(0 0 0.00188815)
(0 0 0.00183594)
(0 0 0.00178376)
(0 0 0.00173159)
(0 0 0.00167944)
(0 0 0.00162732)
(0 0 0.00157523)
(0 0 0.00152316)
(0 0 0.00147113)
(0 0 0.00141912)
(0 0 0.00136715)
(0 0 0.00131521)
(0 0 0.0012633)
(0 0 0.00121142)
(0 0 0.00115958)
(0 0 0.00110777)
(0 0 0.00105599)
(0 0 0.00100424)
(0 0 0.000952531)
(0 0 0.000900849)
(0 0 0.000849196)
(0 0 0.000797573)
(0 0 0.000745977)
(0 0 0.000694407)
(0 0 0.000642863)
(0 0 0.000591343)
(0 0 0.000539845)
(0 0 0.000488367)
(0 0 0.000436908)
(0 0 0.000385467)
(0 0 0.00033404)
(0 0 0.000282626)
(0 0 0.000231224)
(0 0 0.000179831)
(0 0 0.000128446)
(0 0 7.70655e-05)
(0 0 2.56881e-05)
(0 0 4.04903e-05)
(0 0 0.000121473)
(0 0 0.000202461)
(0 0 0.000283458)
(0 0 0.000364468)
(0 0 0.000445495)
(0 0 0.000526542)
(0 0 0.000607613)
(0 0 0.000688711)
(0 0 0.000769839)
(0 0 0.000851002)
(0 0 0.000932202)
(0 0 0.00101344)
(0 0 0.00109473)
(0 0 0.00117606)
(0 0 0.00125744)
(0 0 0.00133887)
(0 0 0.00142036)
(0 0 0.0015019)
(0 0 0.00158351)
(0 0 0.00166517)
(0 0 0.0017469)
(0 0 0.0018287)
(0 0 0.00191056)
(0 0 0.00199249)
(0 0 0.00207449)
(0 0 0.00215656)
(0 0 0.0022387)
(0 0 0.00232091)
(0 0 0.00240319)
(0 0 0.00248554)
(0 0 0.00256797)
(0 0 0.00265046)
(0 0 0.00273302)
(0 0 0.00281565)
(0 0 0.00289835)
(0 0 0.00298111)
(0 0 0.00306392)
(0 0 0.0031468)
(0 0 0.00322973)
(0 0 0.00331271)
(0 0 0.00339574)
(0 0 0.00347881)
(0 0 0.00356191)
(0 0 0.00364505)
(0 0 0.0037282)
(0 0 0.00381138)
(0 0 0.00389457)
(0 0 0.00397776)
(0 0 0.00406095)
(0 0 0.00414412)
(0 0 0.00422726)
(0 0 0.00431038)
(0 0 0.00439344)
(0 0 0.00447645)
(0 0 0.0045594)
(0 0 0.00464226)
(0 0 0.00472503)
(0 0 0.00480769)
(0 0 0.00489022)
(0 0 0.00497262)
(0 0 0.00505486)
(0 0 0.00513693)
(0 0 0.0052188)
(0 0 0.00530047)
(0 0 0.00538191)
(0 0 0.0054631)
(0 0 0.00554403)
(0 0 0.00562466)
(0 0 0.00570497)
(0 0 0.00578495)
(0 0 0.00586457)
(0 0 0.0059438)
(0 0 0.00602262)
(0 0 0.006101)
(0 0 0.00617891)
(0 0 0.00625633)
(0 0 0.00633322)
(0 0 0.00640956)
(0 0 0.00648531)
(0 0 0.00656045)
(0 0 0.00663494)
(0 0 0.00670875)
(0 0 0.00678184)
(0 0 0.00685419)
(0 0 0.00692575)
(0 0 0.0069965)
(0 0 0.00706639)
(0 0 0.00713539)
(0 0 0.00720346)
(0 0 0.00727057)
(0 0 0.00733668)
(0 0 0.00740174)
(0 0 0.00746572)
(0 0 0.00752859)
(0 0 0.0075903)
(0 0 0.00765081)
(0 0 0.00771009)
(0 0 0.0077681)
(0 0 0.00782479)
(0 0 0.00788013)
(0 0 0.00793408)
(0 0 0.0079866)
(0 0 0.00803765)
(0 0 0.00808719)
(0 0 0.0081352)
(0 0 0.00818162)
(0 0 0.00822643)
(0 0 0.00826959)
(0 0 0.00831106)
(0 0 0.00835081)
(0 0 0.00838881)
(0 0 0.00842503)
(0 0 0.00845943)
(0 0 0.00849198)
(0 0 0.00852267)
(0 0 0.00855145)
(0 0 0.0085783)
(0 0 0.00860321)
(0 0 0.00862614)
(0 0 0.00864708)
(0 0 0.008666)
(0 0 0.00868289)
(0 0 0.00869774)
(0 0 0.00871051)
(0 0 0.00872121)
(0 0 0.00872983)
(0 0 0.00873635)
(0 0 0.00874076)
(0 0 0.00874306)
(0 0 0.00874325)
(0 0 0.00874133)
(0 0 0.00873729)
(0 0 0.00873114)
(0 0 0.00872287)
(0 0 0.00871251)
(0 0 0.00870005)
(0 0 0.00868551)
(0 0 0.0086689)
(0 0 0.00865022)
(0 0 0.0086295)
(0 0 0.00860675)
(0 0 0.008582)
(0 0 0.00855525)
(0 0 0.00852653)
(0 0 0.00849587)
(0 0 0.00846329)
(0 0 0.00842882)
(0 0 0.00839248)
(0 0 0.0083543)
(0 0 0.00831431)
(0 0 0.00827255)
(0 0 0.00822904)
(0 0 0.00818382)
(0 0 0.00813692)
(0 0 0.00808838)
(0 0 0.00803822)
(0 0 0.0079865)
(0 0 0.00793324)
(0 0 0.00787848)
(0 0 0.00782226)
(0 0 0.00776461)
(0 0 0.00770558)
(0 0 0.00764521)
(0 0 0.00758352)
(0 0 0.00752057)
(0 0 0.00745639)
(0 0 0.00739101)
(0 0 0.00732449)
(0 0 0.00725684)
(0 0 0.00718813)
(0 0 0.00711837)
(0 0 0.00704761)
(0 0 0.00697589)
(0 0 0.00690324)
(0 0 0.0068297)
(0 0 0.00675531)
(0 0 0.0066801)
(0 0 0.00660411)
(0 0 0.00652737)
(0 0 0.00644991)
(0 0 0.00637177)
(0 0 0.00629298)
(0 0 0.00621357)
(0 0 0.00613357)
(0 0 0.00605301)
(0 0 0.00597193)
(0 0 0.00589035)
(0 0 0.00580829)
(0 0 0.00572579)
(0 0 0.00564288)
(0 0 0.00555957)
(0 0 0.00547589)
(0 0 0.00539187)
(0 0 0.00530753)
(0 0 0.00522289)
(0 0 0.00513798)
(0 0 0.00505281)
(0 0 0.0049674)
(0 0 0.00488178)
(0 0 0.00479596)
(0 0 0.00470996)
(0 0 0.00462379)
(0 0 0.00453748)
(0 0 0.00445103)
(0 0 0.00436447)
(0 0 0.00427781)
(0 0 0.00419105)
(0 0 0.00410422)
(0 0 0.00401732)
(0 0 0.00393037)
(0 0 0.00384337)
(0 0 0.00375634)
(0 0 0.00366929)
(0 0 0.00358222)
(0 0 0.00349514)
(0 0 0.00340807)
(0 0 0.003321)
(0 0 0.00323394)
(0 0 0.0031469)
(0 0 0.00305989)
(0 0 0.0029729)
(0 0 0.00288596)
(0 0 0.00279904)
(0 0 0.00271217)
(0 0 0.00262535)
(0 0 0.00253857)
(0 0 0.00245184)
(0 0 0.00236517)
(0 0 0.00227854)
(0 0 0.00219197)
(0 0 0.00210546)
(0 0 0.002019)
(0 0 0.00193259)
(0 0 0.00184624)
(0 0 0.00175995)
(0 0 0.00167371)
(0 0 0.00158752)
(0 0 0.00150138)
(0 0 0.00141529)
(0 0 0.00132926)
(0 0 0.00124326)
(0 0 0.00115732)
(0 0 0.00107141)
(0 0 0.000985547)
(0 0 0.000899718)
(0 0 0.000813924)
(0 0 0.000728162)
(0 0 0.000642427)
(0 0 0.000556718)
(0 0 0.000471031)
(0 0 0.000385363)
(0 0 0.000299711)
(0 0 0.000214071)
(0 0 0.000128439)
(0 0 4.28124e-05)
(0 0 5.66838e-05)
(0 0 0.000170054)
(0 0 0.000283432)
(0 0 0.000396823)
(0 0 0.000510232)
(0 0 0.000623665)
(0 0 0.000737125)
(0 0 0.000850619)
(0 0 0.000964152)
(0 0 0.00107773)
(0 0 0.00119135)
(0 0 0.00130503)
(0 0 0.00141876)
(0 0 0.00153255)
(0 0 0.00164641)
(0 0 0.00176034)
(0 0 0.00187434)
(0 0 0.00198842)
(0 0 0.00210258)
(0 0 0.00221682)
(0 0 0.00233115)
(0 0 0.00244557)
(0 0 0.00256008)
(0 0 0.00267469)
(0 0 0.00278939)
(0 0 0.00290418)
(0 0 0.00301908)
(0 0 0.00313408)
(0 0 0.00324917)
(0 0 0.00336437)
(0 0 0.00347966)
(0 0 0.00359506)
(0 0 0.00371055)
(0 0 0.00382614)
(0 0 0.00394182)
(0 0 0.0040576)
(0 0 0.00417346)
(0 0 0.00428941)
(0 0 0.00440544)
(0 0 0.00452155)
(0 0 0.00463773)
(0 0 0.00475397)
(0 0 0.00487028)
(0 0 0.00498663)
(0 0 0.00510303)
(0 0 0.00521946)
(0 0 0.00533592)
(0 0 0.00545239)
(0 0 0.00556887)
(0 0 0.00568534)
(0 0 0.0058018)
(0 0 0.00591821)
(0 0 0.00603459)
(0 0 0.0061509)
(0 0 0.00626713)
(0 0 0.00638327)
(0 0 0.00649929)
(0 0 0.00661519)
(0 0 0.00673093)
(0 0 0.0068465)
(0 0 0.00696188)
(0 0 0.00707704)
(0 0 0.00719196)
(0 0 0.00730662)
(0 0 0.00742098)
(0 0 0.00753502)
(0 0 0.00764872)
(0 0 0.00776204)
(0 0 0.00787496)
(0 0 0.00798744)
(0 0 0.00809944)
(0 0 0.00821094)
(0 0 0.0083219)
(0 0 0.00843228)
(0 0 0.00854205)
(0 0 0.00865117)
(0 0 0.00875959)
(0 0 0.00886728)
(0 0 0.0089742)
(0 0 0.0090803)
(0 0 0.00918554)
(0 0 0.00928987)
(0 0 0.00939325)
(0 0 0.00949563)
(0 0 0.00959696)
(0 0 0.0096972)
(0 0 0.0097963)
(0 0 0.00989419)
(0 0 0.00999085)
(0 0 0.0100862)
(0 0 0.0101802)
(0 0 0.0102728)
(0 0 0.0103639)
(0 0 0.0104536)
(0 0 0.0105416)
(0 0 0.0106281)
(0 0 0.0107129)
(0 0 0.0107959)
(0 0 0.0108772)
(0 0 0.0109566)
(0 0 0.0110341)
(0 0 0.0111097)
(0 0 0.0111833)
(0 0 0.0112548)
(0 0 0.0113242)
(0 0 0.0113915)
(0 0 0.0114565)
(0 0 0.0115193)
(0 0 0.0115798)
(0 0 0.0116379)
(0 0 0.0116936)
(0 0 0.0117468)
(0 0 0.0117976)
(0 0 0.0118458)
(0 0 0.0118914)
(0 0 0.0119344)
(0 0 0.0119747)
(0 0 0.0120124)
(0 0 0.0120473)
(0 0 0.0120794)
(0 0 0.0121087)
(0 0 0.0121352)
(0 0 0.0121589)
(0 0 0.0121797)
(0 0 0.0121976)
(0 0 0.0122126)
(0 0 0.0122247)
(0 0 0.0122338)
(0 0 0.01224)
(0 0 0.0122432)
(0 0 0.0122435)
(0 0 0.0122408)
(0 0 0.0122352)
(0 0 0.0122265)
(0 0 0.012215)
(0 0 0.0122004)
(0 0 0.012183)
(0 0 0.0121626)
(0 0 0.0121393)
(0 0 0.0121132)
(0 0 0.0120841)
(0 0 0.0120523)
(0 0 0.0120176)
(0 0 0.0119801)
(0 0 0.0119399)
(0 0 0.0118969)
(0 0 0.0118513)
(0 0 0.011803)
(0 0 0.011752)
(0 0 0.0116986)
(0 0 0.0116425)
(0 0 0.011584)
(0 0 0.0115231)
(0 0 0.0114597)
(0 0 0.011394)
(0 0 0.011326)
(0 0 0.0112557)
(0 0 0.0111832)
(0 0 0.0111086)
(0 0 0.0110319)
(0 0 0.0109532)
(0 0 0.0108724)
(0 0 0.0107897)
(0 0 0.0107051)
(0 0 0.0106187)
(0 0 0.0105305)
(0 0 0.0104406)
(0 0 0.010349)
(0 0 0.0102558)
(0 0 0.0101611)
(0 0 0.0100648)
(0 0 0.00996712)
(0 0 0.009868)
(0 0 0.00976754)
(0 0 0.00966579)
(0 0 0.00956278)
(0 0 0.00945859)
(0 0 0.00935324)
(0 0 0.0092468)
(0 0 0.00913932)
(0 0 0.00903083)
(0 0 0.00892138)
(0 0 0.00881103)
(0 0 0.00869981)
(0 0 0.00858778)
(0 0 0.00847496)
(0 0 0.0083614)
(0 0 0.00824714)
(0 0 0.00813223)
(0 0 0.0080167)
(0 0 0.00790058)
(0 0 0.00778391)
(0 0 0.00766673)
(0 0 0.00754907)
(0 0 0.00743096)
(0 0 0.00731244)
(0 0 0.00719353)
(0 0 0.00707426)
(0 0 0.00695466)
(0 0 0.00683477)
(0 0 0.00671459)
(0 0 0.00659417)
(0 0 0.00647351)
(0 0 0.00635265)
(0 0 0.00623161)
(0 0 0.00611041)
(0 0 0.00598906)
(0 0 0.00586758)
(0 0 0.005746)
(0 0 0.00562433)
(0 0 0.00550258)
(0 0 0.00538077)
(0 0 0.00525892)
(0 0 0.00513703)
(0 0 0.00501512)
(0 0 0.0048932)
(0 0 0.00477128)
(0 0 0.00464938)
(0 0 0.00452749)
(0 0 0.00440563)
(0 0 0.0042838)
(0 0 0.00416202)
(0 0 0.00404028)
(0 0 0.0039186)
(0 0 0.00379698)
(0 0 0.00367542)
(0 0 0.00355393)
(0 0 0.00343251)
(0 0 0.00331116)
(0 0 0.00318988)
(0 0 0.00306869)
(0 0 0.00294756)
(0 0 0.00282652)
(0 0 0.00270555)
(0 0 0.00258466)
(0 0 0.00246385)
(0 0 0.00234311)
(0 0 0.00222245)
(0 0 0.00210186)
(0 0 0.00198134)
(0 0 0.00186089)
(0 0 0.00174051)
(0 0 0.00162019)
(0 0 0.00149992)
(0 0 0.00137971)
(0 0 0.00125956)
(0 0 0.00113945)
(0 0 0.00101939)
(0 0 0.000899363)
(0 0 0.000779375)
(0 0 0.000659418)
(0 0 0.000539487)
(0 0 0.000419578)
(0 0 0.000299687)
(0 0 0.000179807)
(0 0 5.99349e-05)
(0 0 7.28746e-05)
(0 0 0.000218627)
(0 0 0.00036439)
(0 0 0.00051017)
(0 0 0.000655973)
(0 0 0.000801806)
(0 0 0.000947675)
(0 0 0.00109359)
(0 0 0.00123955)
(0 0 0.00138557)
(0 0 0.00153165)
(0 0 0.00167779)
(0 0 0.00182401)
(0 0 0.00197031)
(0 0 0.0021167)
(0 0 0.00226317)
(0 0 0.00240974)
(0 0 0.0025564)
(0 0 0.00270317)
(0 0 0.00285005)
(0 0 0.00299704)
(0 0 0.00314415)
(0 0 0.00329137)
(0 0 0.00343872)
(0 0 0.00358619)
(0 0 0.00373378)
(0 0 0.0038815)
(0 0 0.00402935)
(0 0 0.00417733)
(0 0 0.00432544)
(0 0 0.00447368)
(0 0 0.00462205)
(0 0 0.00477054)
(0 0 0.00491916)
(0 0 0.0050679)
(0 0 0.00521676)
(0 0 0.00536573)
(0 0 0.00551482)
(0 0 0.00566401)
(0 0 0.0058133)
(0 0 0.00596268)
(0 0 0.00611215)
(0 0 0.0062617)
(0 0 0.00641131)
(0 0 0.00656098)
(0 0 0.00671069)
(0 0 0.00686044)
(0 0 0.00701021)
(0 0 0.00715999)
(0 0 0.00730976)
(0 0 0.00745951)
(0 0 0.00760921)
(0 0 0.00775886)
(0 0 0.00790843)
(0 0 0.0080579)
(0 0 0.00820725)
(0 0 0.00835646)
(0 0 0.0085055)
(0 0 0.00865435)
(0 0 0.00880298)
(0 0 0.00895136)
(0 0 0.00909946)
(0 0 0.00924726)
(0 0 0.00939472)
(0 0 0.0095418)
(0 0 0.00968848)
(0 0 0.00983472)
(0 0 0.00998047)
(0 0 0.0101257)
(0 0 0.0102704)
(0 0 0.0104144)
(0 0 0.0105578)
(0 0 0.0107006)
(0 0 0.0108426)
(0 0 0.0109838)
(0 0 0.0111241)
(0 0 0.0112636)
(0 0 0.0114021)
(0 0 0.0115397)
(0 0 0.0116761)
(0 0 0.0118115)
(0 0 0.0119457)
(0 0 0.0120787)
(0 0 0.0122105)
(0 0 0.0123408)
(0 0 0.0124698)
(0 0 0.0125973)
(0 0 0.0127232)
(0 0 0.0128476)
(0 0 0.0129703)
(0 0 0.0130912)
(0 0 0.0132104)
(0 0 0.0133277)
(0 0 0.013443)
(0 0 0.0135563)
(0 0 0.0136676)
(0 0 0.0137766)
(0 0 0.0138835)
(0 0 0.0139881)
(0 0 0.0140903)
(0 0 0.0141901)
(0 0 0.0142873)
(0 0 0.014382)
(0 0 0.0144741)
(0 0 0.0145634)
(0 0 0.01465)
(0 0 0.0147337)
(0 0 0.0148145)
(0 0 0.0148923)
(0 0 0.0149671)
(0 0 0.0150388)
(0 0 0.0151074)
(0 0 0.0151727)
(0 0 0.0152347)
(0 0 0.0152934)
(0 0 0.0153488)
(0 0 0.0154007)
(0 0 0.0154491)
(0 0 0.0154941)
(0 0 0.0155354)
(0 0 0.0155732)
(0 0 0.0156073)
(0 0 0.0156378)
(0 0 0.0156646)
(0 0 0.0156876)
(0 0 0.015707)
(0 0 0.0157225)
(0 0 0.0157343)
(0 0 0.0157422)
(0 0 0.0157464)
(0 0 0.0157467)
(0 0 0.0157433)
(0 0 0.015736)
(0 0 0.0157249)
(0 0 0.01571)
(0 0 0.0156913)
(0 0 0.0156689)
(0 0 0.0156426)
(0 0 0.0156127)
(0 0 0.015579)
(0 0 0.0155416)
(0 0 0.0155006)
(0 0 0.0154559)
(0 0 0.0154077)
(0 0 0.0153559)
(0 0 0.0153006)
(0 0 0.0152419)
(0 0 0.0151797)
(0 0 0.0151142)
(0 0 0.0150453)
(0 0 0.0149732)
(0 0 0.0148979)
(0 0 0.0148195)
(0 0 0.0147379)
(0 0 0.0146534)
(0 0 0.0145658)
(0 0 0.0144754)
(0 0 0.0143821)
(0 0 0.0142861)
(0 0 0.0141874)
(0 0 0.014086)
(0 0 0.0139821)
(0 0 0.0138757)
(0 0 0.0137669)
(0 0 0.0136557)
(0 0 0.0135422)
(0 0 0.0134265)
(0 0 0.0133087)
(0 0 0.0131888)
(0 0 0.0130668)
(0 0 0.012943)
(0 0 0.0128173)
(0 0 0.0126897)
(0 0 0.0125605)
(0 0 0.0124296)
(0 0 0.0122971)
(0 0 0.012163)
(0 0 0.0120275)
(0 0 0.0118905)
(0 0 0.0117523)
(0 0 0.0116127)
(0 0 0.0114719)
(0 0 0.01133)
(0 0 0.0111869)
(0 0 0.0110428)
(0 0 0.0108976)
(0 0 0.0107516)
(0 0 0.0106046)
(0 0 0.0104568)
(0 0 0.0103082)
(0 0 0.0101588)
(0 0 0.0100088)
(0 0 0.00985805)
(0 0 0.00970671)
(0 0 0.00955481)
(0 0 0.00940237)
(0 0 0.00924943)
(0 0 0.00909604)
(0 0 0.00894223)
(0 0 0.00878803)
(0 0 0.00863348)
(0 0 0.00847861)
(0 0 0.00832344)
(0 0 0.00816802)
(0 0 0.00801235)
(0 0 0.00785648)
(0 0 0.00770043)
(0 0 0.00754422)
(0 0 0.00738787)
(0 0 0.00723141)
(0 0 0.00707485)
(0 0 0.00691822)
(0 0 0.00676152)
(0 0 0.00660479)
(0 0 0.00644803)
(0 0 0.00629126)
(0 0 0.00613449)
(0 0 0.00597774)
(0 0 0.00582101)
(0 0 0.00566432)
(0 0 0.00550767)
(0 0 0.00535109)
(0 0 0.00519456)
(0 0 0.00503811)
(0 0 0.00488173)
(0 0 0.00472543)
(0 0 0.00456922)
(0 0 0.0044131)
(0 0 0.00425708)
(0 0 0.00410115)
(0 0 0.00394532)
(0 0 0.00378959)
(0 0 0.00363396)
(0 0 0.00347844)
(0 0 0.00332301)
(0 0 0.00316768)
(0 0 0.00301245)
(0 0 0.00285732)
(0 0 0.00270228)
(0 0 0.00254733)
(0 0 0.00239247)
(0 0 0.00223769)
(0 0 0.00208299)
(0 0 0.00192838)
(0 0 0.00177383)
(0 0 0.00161935)
(0 0 0.00146493)
(0 0 0.00131057)
(0 0 0.00115626)
(0 0 0.001002)
(0 0 0.000847778)
(0 0 0.000693589)
(0 0 0.000539429)
(0 0 0.000385291)
(0 0 0.000231168)
(0 0 7.7055e-05)
(0 0 8.90621e-05)
(0 0 0.000267191)
(0 0 0.000445331)
(0 0 0.000623493)
(0 0 0.000801683)
(0 0 0.00097991)
(0 0 0.00115818)
(0 0 0.00133651)
(0 0 0.00151489)
(0 0 0.00169334)
(0 0 0.00187187)
(0 0 0.00205049)
(0 0 0.00222919)
(0 0 0.00240799)
(0 0 0.00258689)
(0 0 0.0027659)
(0 0 0.00294503)
(0 0 0.00312428)
(0 0 0.00330366)
(0 0 0.00348317)
(0 0 0.00366282)
(0 0 0.00384261)
(0 0 0.00402254)
(0 0 0.00420262)
(0 0 0.00438286)
(0 0 0.00456325)
(0 0 0.0047438)
(0 0 0.0049245)
(0 0 0.00510536)
(0 0 0.00528639)
(0 0 0.00546757)
(0 0 0.00564891)
(0 0 0.0058304)
(0 0 0.00601205)
(0 0 0.00619386)
(0 0 0.0063758)
(0 0 0.00655789)
(0 0 0.00674012)
(0 0 0.00692248)
(0 0 0.00710495)
(0 0 0.00728755)
(0 0 0.00747025)
(0 0 0.00765304)
(0 0 0.00783592)
(0 0 0.00801887)
(0 0 0.00820188)
(0 0 0.00838494)
(0 0 0.00856802)
(0 0 0.00875111)
(0 0 0.0089342)
(0 0 0.00911725)
(0 0 0.00930027)
(0 0 0.00948321)
(0 0 0.00966606)
(0 0 0.00984879)
(0 0 0.0100314)
(0 0 0.0102138)
(0 0 0.010396)
(0 0 0.010578)
(0 0 0.0107597)
(0 0 0.0109411)
(0 0 0.0111222)
(0 0 0.0113029)
(0 0 0.0114832)
(0 0 0.011663)
(0 0 0.0118424)
(0 0 0.0120212)
(0 0 0.0121994)
(0 0 0.012377)
(0 0 0.0125539)
(0 0 0.0127301)
(0 0 0.0129054)
(0 0 0.01308)
(0 0 0.0132536)
(0 0 0.0134263)
(0 0 0.0135979)
(0 0 0.0137685)
(0 0 0.0139379)
(0 0 0.0141062)
(0 0 0.0142731)
(0 0 0.0144387)
(0 0 0.0146028)
(0 0 0.0147655)
(0 0 0.0149266)
(0 0 0.0150861)
(0 0 0.0152438)
(0 0 0.0153998)
(0 0 0.0155539)
(0 0 0.015706)
(0 0 0.0158561)
(0 0 0.0160041)
(0 0 0.0161498)
(0 0 0.0162933)
(0 0 0.0164344)
(0 0 0.0165731)
(0 0 0.0167092)
(0 0 0.0168426)
(0 0 0.0169734)
(0 0 0.0171014)
(0 0 0.0172264)
(0 0 0.0173485)
(0 0 0.0174675)
(0 0 0.0175834)
(0 0 0.0176961)
(0 0 0.0178054)
(0 0 0.0179113)
(0 0 0.0180138)
(0 0 0.0181127)
(0 0 0.0182079)
(0 0 0.0182995)
(0 0 0.0183872)
(0 0 0.0184711)
(0 0 0.018551)
(0 0 0.018627)
(0 0 0.0186988)
(0 0 0.0187666)
(0 0 0.0188301)
(0 0 0.0188894)
(0 0 0.0189444)
(0 0 0.0189951)
(0 0 0.0190413)
(0 0 0.0190831)
(0 0 0.0191204)
(0 0 0.0191532)
(0 0 0.0191814)
(0 0 0.019205)
(0 0 0.0192241)
(0 0 0.0192385)
(0 0 0.0192482)
(0 0 0.0192533)
(0 0 0.0192538)
(0 0 0.0192495)
(0 0 0.0192406)
(0 0 0.0192271)
(0 0 0.0192088)
(0 0 0.019186)
(0 0 0.0191585)
(0 0 0.0191264)
(0 0 0.0190897)
(0 0 0.0190485)
(0 0 0.0190028)
(0 0 0.0189525)
(0 0 0.0188979)
(0 0 0.0188389)
(0 0 0.0187755)
(0 0 0.0187078)
(0 0 0.0186359)
(0 0 0.0185598)
(0 0 0.0184796)
(0 0 0.0183954)
(0 0 0.0183071)
(0 0 0.018215)
(0 0 0.018119)
(0 0 0.0180192)
(0 0 0.0179157)
(0 0 0.0178086)
(0 0 0.0176979)
(0 0 0.0175838)
(0 0 0.0174663)
(0 0 0.0173455)
(0 0 0.0172215)
(0 0 0.0170943)
(0 0 0.0169641)
(0 0 0.016831)
(0 0 0.0166949)
(0 0 0.0165561)
(0 0 0.0164145)
(0 0 0.0162704)
(0 0 0.0161237)
(0 0 0.0159745)
(0 0 0.015823)
(0 0 0.0156692)
(0 0 0.0155132)
(0 0 0.0153551)
(0 0 0.015195)
(0 0 0.0150329)
(0 0 0.0148689)
(0 0 0.0147031)
(0 0 0.0145356)
(0 0 0.0143665)
(0 0 0.0141958)
(0 0 0.0140236)
(0 0 0.01385)
(0 0 0.013675)
(0 0 0.0134988)
(0 0 0.0133213)
(0 0 0.0131426)
(0 0 0.0129629)
(0 0 0.0127821)
(0 0 0.0126004)
(0 0 0.0124178)
(0 0 0.0122343)
(0 0 0.01205)
(0 0 0.0118649)
(0 0 0.0116792)
(0 0 0.0114928)
(0 0 0.0113058)
(0 0 0.0111182)
(0 0 0.0109302)
(0 0 0.0107417)
(0 0 0.0105527)
(0 0 0.0103633)
(0 0 0.0101736)
(0 0 0.00998361)
(0 0 0.00979331)
(0 0 0.00960275)
(0 0 0.00941197)
(0 0 0.009221)
(0 0 0.00902986)
(0 0 0.00883859)
(0 0 0.0086472)
(0 0 0.00845572)
(0 0 0.00826417)
(0 0 0.00807258)
(0 0 0.00788095)
(0 0 0.00768932)
(0 0 0.00749768)
(0 0 0.00730607)
(0 0 0.00711449)
(0 0 0.00692296)
(0 0 0.00673149)
(0 0 0.00654009)
(0 0 0.00634877)
(0 0 0.00615753)
(0 0 0.00596639)
(0 0 0.00577535)
(0 0 0.00558442)
(0 0 0.0053936)
(0 0 0.0052029)
(0 0 0.00501232)
(0 0 0.00482186)
(0 0 0.00463152)
(0 0 0.00444131)
(0 0 0.00425122)
(0 0 0.00406125)
(0 0 0.00387141)
(0 0 0.00368169)
(0 0 0.00349208)
(0 0 0.0033026)
(0 0 0.00311322)
(0 0 0.00292395)
(0 0 0.00273479)
(0 0 0.00254573)
(0 0 0.00235676)
(0 0 0.00216788)
(0 0 0.00197908)
(0 0 0.00179036)
(0 0 0.00160171)
(0 0 0.00141312)
(0 0 0.00122459)
(0 0 0.0010361)
(0 0 0.000847663)
(0 0 0.000659257)
(0 0 0.000470879)
(0 0 0.00028252)
(0 0 9.41719e-05)
(0 0 0.000105245)
(0 0 0.000315741)
(0 0 0.000526252)
(0 0 0.000736787)
(0 0 0.000947356)
(0 0 0.00115797)
(0 0 0.00136863)
(0 0 0.00157936)
(0 0 0.00179016)
(0 0 0.00200105)
(0 0 0.00221202)
(0 0 0.00242309)
(0 0 0.00263426)
(0 0 0.00284556)
(0 0 0.00305697)
(0 0 0.00326852)
(0 0 0.0034802)
(0 0 0.00369203)
(0 0 0.00390401)
(0 0 0.00411615)
(0 0 0.00432845)
(0 0 0.00454092)
(0 0 0.00475356)
(0 0 0.00496638)
(0 0 0.00517938)
(0 0 0.00539256)
(0 0 0.00560593)
(0 0 0.00581949)
(0 0 0.00603324)
(0 0 0.00624717)
(0 0 0.0064613)
(0 0 0.00667561)
(0 0 0.00689011)
(0 0 0.0071048)
(0 0 0.00731966)
(0 0 0.0075347)
(0 0 0.00774991)
(0 0 0.00796529)
(0 0 0.00818082)
(0 0 0.00839649)
(0 0 0.00861231)
(0 0 0.00882825)
(0 0 0.00904431)
(0 0 0.00926047)
(0 0 0.00947671)
(0 0 0.00969303)
(0 0 0.0099094)
(0 0 0.0101258)
(0 0 0.0103422)
(0 0 0.0105587)
(0 0 0.010775)
(0 0 0.0109914)
(0 0 0.0112076)
(0 0 0.0114238)
(0 0 0.0116398)
(0 0 0.0118557)
(0 0 0.0120713)
(0 0 0.0122867)
(0 0 0.0125019)
(0 0 0.0127167)
(0 0 0.0129312)
(0 0 0.0131453)
(0 0 0.0133589)
(0 0 0.0135721)
(0 0 0.0137848)
(0 0 0.0139968)
(0 0 0.0142082)
(0 0 0.014419)
(0 0 0.014629)
(0 0 0.0148382)
(0 0 0.0150465)
(0 0 0.0152539)
(0 0 0.0154603)
(0 0 0.0156656)
(0 0 0.0158698)
(0 0 0.0160729)
(0 0 0.0162746)
(0 0 0.016475)
(0 0 0.0166739)
(0 0 0.0168714)
(0 0 0.0170672)
(0 0 0.0172614)
(0 0 0.0174539)
(0 0 0.0176444)
(0 0 0.0178331)
(0 0 0.0180197)
(0 0 0.0182042)
(0 0 0.0183865)
(0 0 0.0185665)
(0 0 0.018744)
(0 0 0.0189191)
(0 0 0.0190916)
(0 0 0.0192613)
(0 0 0.0194283)
(0 0 0.0195924)
(0 0 0.0197534)
(0 0 0.0199114)
(0 0 0.0200661)
(0 0 0.0202175)
(0 0 0.0203655)
(0 0 0.02051)
(0 0 0.0206509)
(0 0 0.020788)
(0 0 0.0209214)
(0 0 0.0210508)
(0 0 0.0211761)
(0 0 0.0212974)
(0 0 0.0214145)
(0 0 0.0215272)
(0 0 0.0216356)
(0 0 0.0217395)
(0 0 0.0218388)
(0 0 0.0219334)
(0 0 0.0220233)
(0 0 0.0221084)
(0 0 0.0221886)
(0 0 0.0222638)
(0 0 0.022334)
(0 0 0.0223992)
(0 0 0.0224591)
(0 0 0.0225139)
(0 0 0.0225633)
(0 0 0.0226075)
(0 0 0.0226463)
(0 0 0.0226798)
(0 0 0.0227078)
(0 0 0.0227303)
(0 0 0.0227474)
(0 0 0.0227589)
(0 0 0.022765)
(0 0 0.0227655)
(0 0 0.0227605)
(0 0 0.0227499)
(0 0 0.0227339)
(0 0 0.0227123)
(0 0 0.0226852)
(0 0 0.0226527)
(0 0 0.0226147)
(0 0 0.0225713)
(0 0 0.0225225)
(0 0 0.0224684)
(0 0 0.0224089)
(0 0 0.0223443)
(0 0 0.0222744)
(0 0 0.0221993)
(0 0 0.0221192)
(0 0 0.0220341)
(0 0 0.0219441)
(0 0 0.0218491)
(0 0 0.0217494)
(0 0 0.021645)
(0 0 0.0215359)
(0 0 0.0214222)
(0 0 0.0213041)
(0 0 0.0211817)
(0 0 0.0210549)
(0 0 0.0209239)
(0 0 0.0207889)
(0 0 0.0206498)
(0 0 0.0205068)
(0 0 0.0203601)
(0 0 0.0202096)
(0 0 0.0200555)
(0 0 0.0198979)
(0 0 0.019737)
(0 0 0.0195727)
(0 0 0.0194052)
(0 0 0.0192346)
(0 0 0.019061)
(0 0 0.0188846)
(0 0 0.0187053)
(0 0 0.0185234)
(0 0 0.0183388)
(0 0 0.0181518)
(0 0 0.0179623)
(0 0 0.0177705)
(0 0 0.0175766)
(0 0 0.0173805)
(0 0 0.0171824)
(0 0 0.0169823)
(0 0 0.0167804)
(0 0 0.0165767)
(0 0 0.0163714)
(0 0 0.0161644)
(0 0 0.015956)
(0 0 0.0157461)
(0 0 0.0155348)
(0 0 0.0153222)
(0 0 0.0151085)
(0 0 0.0148936)
(0 0 0.0146776)
(0 0 0.0144606)
(0 0 0.0142427)
(0 0 0.0140239)
(0 0 0.0138042)
(0 0 0.0135838)
(0 0 0.0133627)
(0 0 0.013141)
(0 0 0.0129186)
(0 0 0.0126957)
(0 0 0.0124723)
(0 0 0.0122484)
(0 0 0.0120241)
(0 0 0.0117995)
(0 0 0.0115745)
(0 0 0.0113492)
(0 0 0.0111237)