/*--------------------------------*- C++ -*----------------------------------*\
| =========                 |                                                 |
| \\      /  F ield         | OpenFOAM: The Open Source CFD Toolbox           |
|  \\    /   O peration     | Version:  v2012                                 |
|   \\  /    A nd           | Website:  www.openfoam.com                      |
|    \\/     M anipulation  |                                                 |
\*---------------------------------------------------------------------------*/
FoamFile
{
    version     2.0;
    format      ascii;
    class       volVectorField;
    location    "18.4";
    object      U;
}
// * * * * * * * * * * * * * * * * * * * * * * * * * * * * * * * * * * * * * //

dimensions      [0 1 -1 0 0 0 0];


internalField   nonuniform List<vector> 
65536
(
(0.000660672 -0.000660685 0)
(0.00198205 -0.000660718 0)
(0.00330352 -0.000660779 0)
(0.00462514 -0.000660871 0)
(0.00594697 -0.000660993 0)
(0.00726908 -0.000661144 0)
(0.00859152 -0.000661325 0)
(0.00991436 -0.000661536 0)
(0.0112376 -0.000661775 0)
(0.0125614 -0.000662042 0)
(0.0138858 -0.000662337 0)
(0.0152108 -0.000662658 0)
(0.0165364 -0.000663005 0)
(0.0178628 -0.000663378 0)
(0.0191899 -0.000663774 0)
(0.0205178 -0.000664194 0)
(0.0218466 -0.000664635 0)
(0.0231764 -0.000665097 0)
(0.024507 -0.000665579 0)
(0.0258387 -0.000666079 0)
(0.0271713 -0.000666596 0)
(0.028505 -0.000667128 0)
(0.0298398 -0.000667674 0)
(0.0311757 -0.000668231 0)
(0.0325127 -0.000668799 0)
(0.0338509 -0.000669374 0)
(0.0351902 -0.000669956 0)
(0.0365307 -0.000670542 0)
(0.0378724 -0.00067113 0)
(0.0392153 -0.000671717 0)
(0.0405593 -0.000672302 0)
(0.0419045 -0.000672881 0)
(0.0432508 -0.000673452 0)
(0.0445983 -0.000674013 0)
(0.0459469 -0.00067456 0)
(0.0472966 -0.000675091 0)
(0.0486473 -0.000675602 0)
(0.049999 -0.00067609 0)
(0.0513517 -0.000676552 0)
(0.0527052 -0.000676985 0)
(0.0540596 -0.000677385 0)
(0.0554148 -0.000677747 0)
(0.0567707 -0.00067807 0)
(0.0581271 -0.000678347 0)
(0.0594841 -0.000678576 0)
(0.0608415 -0.000678753 0)
(0.0621992 -0.000678872 0)
(0.0635571 -0.000678929 0)
(0.064915 -0.00067892 0)
(0.0662728 -0.00067884 0)
(0.0676304 -0.000678685 0)
(0.0689876 -0.000678448 0)
(0.0703443 -0.000678125 0)
(0.0717002 -0.000677712 0)
(0.0730552 -0.000677201 0)
(0.0744091 -0.000676589 0)
(0.0757617 -0.000675869 0)
(0.0771127 -0.000675035 0)
(0.078462 -0.000674082 0)
(0.0798092 -0.000673004 0)
(0.0811541 -0.000671795 0)
(0.0824965 -0.000670448 0)
(0.0838361 -0.000668957 0)
(0.0851725 -0.000667316 0)
(0.0865055 -0.000665519 0)
(0.0878347 -0.000663559 0)
(0.0891599 -0.00066143 0)
(0.0904806 -0.000659125 0)
(0.0917966 -0.000656637 0)
(0.0931074 -0.000653959 0)
(0.0944126 -0.000651086 0)
(0.0957119 -0.00064801 0)
(0.0970049 -0.000644725 0)
(0.098291 -0.000641225 0)
(0.09957 -0.000637501 0)
(0.100841 -0.000633549 0)
(0.102104 -0.000629361 0)
(0.103359 -0.000624932 0)
(0.104604 -0.000620255 0)
(0.10584 -0.000615323 0)
(0.107066 -0.000610132 0)
(0.108281 -0.000604674 0)
(0.109485 -0.000598945 0)
(0.110677 -0.000592939 0)
(0.111857 -0.00058665 0)
(0.113024 -0.000580075 0)
(0.114178 -0.000573207 0)
(0.115317 -0.000566044 0)
(0.116442 -0.00055858 0)
(0.117552 -0.000550812 0)
(0.118646 -0.000542737 0)
(0.119723 -0.000534351 0)
(0.120783 -0.000525652 0)
(0.121826 -0.000516638 0)
(0.12285 -0.000507308 0)
(0.123855 -0.000497659 0)
(0.124841 -0.000487691 0)
(0.125807 -0.000477404 0)
(0.126751 -0.000466797 0)
(0.127674 -0.000455873 0)
(0.128575 -0.000444632 0)
(0.129453 -0.000433076 0)
(0.130307 -0.000421208 0)
(0.131138 -0.00040903 0)
(0.131944 -0.000396547 0)
(0.132724 -0.000383762 0)
(0.133479 -0.000370681 0)
(0.134207 -0.000357309 0)
(0.134909 -0.000343653 0)
(0.135582 -0.000329718 0)
(0.136228 -0.000315513 0)
(0.136845 -0.000301046 0)
(0.137432 -0.000286324 0)
(0.13799 -0.000271358 0)
(0.138518 -0.000256158 0)
(0.139015 -0.000240732 0)
(0.139481 -0.000225093 0)
(0.139916 -0.000209252 0)
(0.140318 -0.000193221 0)
(0.140689 -0.000177012 0)
(0.141027 -0.000160639 0)
(0.141331 -0.000144114 0)
(0.141603 -0.000127451 0)
(0.141841 -0.000110664 0)
(0.142046 -9.37681e-05 0)
(0.142217 -7.67775e-05 0)
(0.142353 -5.97073e-05 0)
(0.142455 -4.25726e-05 0)
(0.142523 -2.53888e-05 0)
(0.142557 -8.17116e-06 0)
(0.142556 9.06463e-06 0)
(0.142521 2.6303e-05 0)
(0.142451 4.35285e-05 0)
(0.142347 6.07254e-05 0)
(0.142208 7.78783e-05 0)
(0.142035 9.49719e-05 0)
(0.141828 0.000111991 0)
(0.141587 0.000128921 0)
(0.141312 0.000145747 0)
(0.141004 0.000162454 0)
(0.140662 0.000179028 0)
(0.140288 0.000195457 0)
(0.13988 0.000211725 0)
(0.13944 0.000227821 0)
(0.138969 0.000243733 0)
(0.138465 0.000259447 0)
(0.137931 0.000274952 0)
(0.137365 0.000290239 0)
(0.13677 0.000305295 0)
(0.136144 0.000320112 0)
(0.135489 0.00033468 0)
(0.134805 0.00034899 0)
(0.134093 0.000363035 0)
(0.133352 0.000376807 0)
(0.132585 0.000390299 0)
(0.131791 0.000403505 0)
(0.130971 0.000416419 0)
(0.130125 0.000429036 0)
(0.129254 0.000441352 0)
(0.128359 0.000453364 0)
(0.127441 0.000465067 0)
(0.126499 0.00047646 0)
(0.125534 0.00048754 0)
(0.124548 0.000498305 0)
(0.123541 0.000508756 0)
(0.122513 0.000518891 0)
(0.121465 0.00052871 0)
(0.120398 0.000538215 0)
(0.119312 0.000547407 0)
(0.118208 0.000556286 0)
(0.117086 0.000564855 0)
(0.115948 0.000573116 0)
(0.114794 0.000581072 0)
(0.113623 0.000588726 0)
(0.112438 0.000596083 0)
(0.111239 0.000603145 0)
(0.110026 0.000609916 0)
(0.108799 0.000616402 0)
(0.10756 0.000622607 0)
(0.106308 0.000628536 0)
(0.105045 0.000634194 0)
(0.103771 0.000639587 0)
(0.102487 0.000644719 0)
(0.101192 0.000649598 0)
(0.099888 0.000654228 0)
(0.0985749 0.000658617 0)
(0.0972533 0.000662769 0)
(0.0959236 0.000666691 0)
(0.0945863 0.000670391 0)
(0.0932418 0.000673873 0)
(0.0918906 0.000677144 0)
(0.090533 0.000680212 0)
(0.0891695 0.000683081 0)
(0.0878005 0.00068576 0)
(0.0864263 0.000688254 0)
(0.0850473 0.00069057 0)
(0.0836638 0.000692715 0)
(0.0822763 0.000694694 0)
(0.0808849 0.000696514 0)
(0.0794901 0.000698182 0)
(0.078092 0.000699703 0)
(0.0766911 0.000701085 0)
(0.0752876 0.000702333 0)
(0.0738816 0.000703453 0)
(0.0724736 0.000704451 0)
(0.0710637 0.000705333 0)
(0.0696522 0.000706104 0)
(0.0682392 0.000706771 0)
(0.066825 0.000707339 0)
(0.0654098 0.000707814 0)
(0.0639937 0.0007082 0)
(0.0625769 0.000708503 0)
(0.0611596 0.000708728 0)
(0.0597419 0.000708881 0)
(0.058324 0.000708965 0)
(0.056906 0.000708985 0)
(0.055488 0.000708947 0)
(0.0540701 0.000708855 0)
(0.0526525 0.000708713 0)
(0.0512352 0.000708525 0)
(0.0498184 0.000708295 0)
(0.048402 0.000708028 0)
(0.0469862 0.000707727 0)
(0.0455711 0.000707396 0)
(0.0441566 0.000707039 0)
(0.0427429 0.000706658 0)
(0.04133 0.000706258 0)
(0.0399178 0.000705842 0)
(0.0385066 0.000705413 0)
(0.0370962 0.000704973 0)
(0.0356867 0.000704526 0)
(0.0342781 0.000704074 0)
(0.0328704 0.00070362 0)
(0.0314636 0.000703166 0)
(0.0300577 0.000702716 0)
(0.0286528 0.000702271 0)
(0.0272487 0.000701833 0)
(0.0258454 0.000701404 0)
(0.0244431 0.000700987 0)
(0.0230415 0.000700584 0)
(0.0216407 0.000700195 0)
(0.0202407 0.000699822 0)
(0.0188415 0.000699468 0)
(0.0174429 0.000699133 0)
(0.016045 0.000698819 0)
(0.0146476 0.000698527 0)
(0.0132509 0.000698258 0)
(0.0118546 0.000698013 0)
(0.0104589 0.000697793 0)
(0.00906349 0.000697599 0)
(0.00766848 0.000697432 0)
(0.00627379 0.000697291 0)
(0.00487935 0.000697178 0)
(0.00348511 0.000697093 0)
(0.00209101 0.000697036 0)
(0.000696993 0.000697008 0)
(0.000660644 -0.00198203 0)
(0.00198196 -0.00198213 0)
(0.00330337 -0.00198231 0)
(0.00462493 -0.00198259 0)
(0.00594671 -0.00198295 0)
(0.00726876 -0.00198341 0)
(0.00859115 -0.00198395 0)
(0.00991392 -0.00198458 0)
(0.0112372 -0.0019853 0)
(0.0125609 -0.0019861 0)
(0.0138852 -0.00198699 0)
(0.0152101 -0.00198795 0)
(0.0165357 -0.00198899 0)
(0.017862 -0.00199011 0)
(0.0191891 -0.0019913 0)
(0.020517 -0.00199256 0)
(0.0218458 -0.00199389 0)
(0.0231754 -0.00199528 0)
(0.0245061 -0.00199672 0)
(0.0258377 -0.00199823 0)
(0.0271703 -0.00199978 0)
(0.028504 -0.00200137 0)
(0.0298388 -0.00200301 0)
(0.0311746 -0.00200469 0)
(0.0325116 -0.00200639 0)
(0.0338498 -0.00200812 0)
(0.0351891 -0.00200987 0)
(0.0365296 -0.00201163 0)
(0.0378713 -0.00201339 0)
(0.0392141 -0.00201516 0)
(0.0405582 -0.00201691 0)
(0.0419034 -0.00201866 0)
(0.0432497 -0.00202037 0)
(0.0445973 -0.00202206 0)
(0.0459459 -0.0020237 0)
(0.0472956 -0.0020253 0)
(0.0486463 -0.00202683 0)
(0.0499981 -0.0020283 0)
(0.0513508 -0.00202969 0)
(0.0527045 -0.00203099 0)
(0.054059 -0.00203219 0)
(0.0554142 -0.00203329 0)
(0.0567702 -0.00203426 0)
(0.0581267 -0.00203509 0)
(0.0594838 -0.00203579 0)
(0.0608413 -0.00203632 0)
(0.0621991 -0.00203668 0)
(0.0635571 -0.00203686 0)
(0.0649151 -0.00203683 0)
(0.0662731 -0.0020366 0)
(0.0676309 -0.00203614 0)
(0.0689883 -0.00203543 0)
(0.0703451 -0.00203447 0)
(0.0717012 -0.00203323 0)
(0.0730565 -0.00203171 0)
(0.0744106 -0.00202988 0)
(0.0757634 -0.00202772 0)
(0.0771146 -0.00202523 0)
(0.0784641 -0.00202237 0)
(0.0798116 -0.00201915 0)
(0.0811568 -0.00201552 0)
(0.0824994 -0.00201149 0)
(0.0838393 -0.00200702 0)
(0.085176 -0.00200211 0)
(0.0865093 -0.00199672 0)
(0.0878389 -0.00199085 0)
(0.0891644 -0.00198447 0)
(0.0904855 -0.00197756 0)
(0.0918018 -0.0019701 0)
(0.093113 -0.00196208 0)
(0.0944187 -0.00195346 0)
(0.0957184 -0.00194424 0)
(0.0970118 -0.00193439 0)
(0.0982984 -0.0019239 0)
(0.0995778 -0.00191273 0)
(0.10085 -0.00190088 0)
(0.102113 -0.00188833 0)
(0.103368 -0.00187504 0)
(0.104614 -0.00186102 0)
(0.10585 -0.00184623 0)
(0.107077 -0.00183066 0)
(0.108292 -0.00181429 0)
(0.109497 -0.00179711 0)
(0.110689 -0.0017791 0)
(0.11187 -0.00176024 0)
(0.113038 -0.00174052 0)
(0.114192 -0.00171992 0)
(0.115332 -0.00169843 0)
(0.116457 -0.00167604 0)
(0.117568 -0.00165274 0)
(0.118662 -0.00162852 0)
(0.11974 -0.00160336 0)
(0.120801 -0.00157727 0)
(0.121844 -0.00155023 0)
(0.122869 -0.00152224 0)
(0.123875 -0.00149329 0)
(0.124861 -0.00146339 0)
(0.125828 -0.00143253 0)
(0.126773 -0.00140071 0)
(0.127696 -0.00136793 0)
(0.128598 -0.00133421 0)
(0.129476 -0.00129954 0)
(0.130332 -0.00126393 0)
(0.131163 -0.00122739 0)
(0.131969 -0.00118994 0)
(0.13275 -0.00115158 0)
(0.133506 -0.00111233 0)
(0.134235 -0.00107221 0)
(0.134936 -0.00103123 0)
(0.135611 -0.000989422 0)
(0.136257 -0.000946799 0)
(0.136874 -0.000903388 0)
(0.137462 -0.000859214 0)
(0.13802 -0.000814307 0)
(0.138549 -0.000768694 0)
(0.139046 -0.000722407 0)
(0.139513 -0.000675478 0)
(0.139948 -0.000627943 0)
(0.140351 -0.000579837 0)
(0.140721 -0.000531198 0)
(0.14106 -0.000482064 0)
(0.141365 -0.000432474 0)
(0.141637 -0.000382471 0)
(0.141875 -0.000332097 0)
(0.14208 -0.000281395 0)
(0.142251 -0.000230408 0)
(0.142387 -0.000179182 0)
(0.14249 -0.000127763 0)
(0.142558 -7.61957e-05 0)
(0.142592 -2.45273e-05 0)
(0.142591 2.71957e-05 0)
(0.142555 7.89265e-05 0)
(0.142485 0.000130618 0)
(0.142381 0.000182225 0)
(0.142242 0.000233699 0)
(0.142069 0.000284995 0)
(0.141862 0.000336067 0)
(0.141621 0.000386871 0)
(0.141346 0.000437363 0)
(0.141037 0.000487499 0)
(0.140695 0.000537236 0)
(0.14032 0.000586534 0)
(0.139913 0.000635353 0)
(0.139473 0.000683654 0)
(0.139 0.000731399 0)
(0.138497 0.000778553 0)
(0.137962 0.000825081 0)
(0.137396 0.00087095 0)
(0.136799 0.000916129 0)
(0.136173 0.000960589 0)
(0.135518 0.0010043 0)
(0.134833 0.00104724 0)
(0.13412 0.00108938 0)
(0.13338 0.00113071 0)
(0.132612 0.00117119 0)
(0.131817 0.00121081 0)
(0.130996 0.00124956 0)
(0.13015 0.00128741 0)
(0.129279 0.00132437 0)
(0.128383 0.0013604 0)
(0.127464 0.00139552 0)
(0.126521 0.0014297 0)
(0.125556 0.00146294 0)
(0.124569 0.00149523 0)
(0.123561 0.00152659 0)
(0.122533 0.00155699 0)
(0.121484 0.00158645 0)
(0.120416 0.00161496 0)
(0.11933 0.00164253 0)
(0.118225 0.00166917 0)
(0.117103 0.00169487 0)
(0.115964 0.00171966 0)
(0.114809 0.00174352 0)
(0.113638 0.00176648 0)
(0.112453 0.00178855 0)
(0.111253 0.00180973 0)
(0.110039 0.00183004 0)
(0.108812 0.00184949 0)
(0.107572 0.0018681 0)
(0.10632 0.00188588 0)
(0.105056 0.00190285 0)
(0.103782 0.00191902 0)
(0.102497 0.00193441 0)
(0.101201 0.00194904 0)
(0.0998969 0.00196293 0)
(0.0985834 0.00197609 0)
(0.0972613 0.00198854 0)
(0.0959311 0.0020003 0)
(0.0945934 0.00201139 0)
(0.0932485 0.00202183 0)
(0.0918969 0.00203164 0)
(0.0905389 0.00204083 0)
(0.089175 0.00204944 0)
(0.0878056 0.00205747 0)
(0.0864311 0.00206494 0)
(0.0850517 0.00207188 0)
(0.0836679 0.00207831 0)
(0.08228 0.00208424 0)
(0.0808883 0.00208969 0)
(0.0794932 0.00209469 0)
(0.0780949 0.00209925 0)
(0.0766937 0.00210339 0)
(0.0752899 0.00210713 0)
(0.0738837 0.00211048 0)
(0.0724755 0.00211347 0)
(0.0710653 0.00211611 0)
(0.0696536 0.00211842 0)
(0.0682404 0.00212041 0)
(0.066826 0.00212211 0)
(0.0654106 0.00212353 0)
(0.0639943 0.00212468 0)
(0.0625774 0.00212559 0)
(0.0611599 0.00212626 0)
(0.0597421 0.00212671 0)
(0.058324 0.00212696 0)
(0.0569059 0.00212701 0)
(0.0554878 0.0021269 0)
(0.0540698 0.00212661 0)
(0.0526521 0.00212618 0)
(0.0512348 0.00212561 0)
(0.0498178 0.00212492 0)
(0.0484014 0.00212412 0)
(0.0469856 0.00212321 0)
(0.0455703 0.00212221 0)
(0.0441558 0.00212114 0)
(0.0427421 0.00211999 0)
(0.0413291 0.00211879 0)
(0.039917 0.00211754 0)
(0.0385057 0.00211625 0)
(0.0370953 0.00211492 0)
(0.0356858 0.00211358 0)
(0.0342772 0.00211222 0)
(0.0328695 0.00211086 0)
(0.0314627 0.00210949 0)
(0.0300568 0.00210814 0)
(0.0286518 0.0021068 0)
(0.0272478 0.00210549 0)
(0.0258446 0.0021042 0)
(0.0244422 0.00210295 0)
(0.0230407 0.00210173 0)
(0.02164 0.00210056 0)
(0.02024 0.00209945 0)
(0.0188408 0.00209838 0)
(0.0174422 0.00209738 0)
(0.0160443 0.00209643 0)
(0.0146471 0.00209556 0)
(0.0132504 0.00209475 0)
(0.0118542 0.00209401 0)
(0.0104584 0.00209335 0)
(0.00906312 0.00209277 0)
(0.00766817 0.00209227 0)
(0.00627353 0.00209184 0)
(0.00487915 0.0020915 0)
(0.00348496 0.00209125 0)
(0.00209092 0.00209108 0)
(0.000696965 0.00209099 0)
(0.000660581 -0.00330329 0)
(0.00198177 -0.00330344 0)
(0.00330306 -0.00330375 0)
(0.0046245 -0.00330421 0)
(0.00594616 -0.00330482 0)
(0.00726809 -0.00330558 0)
(0.00859035 -0.00330649 0)
(0.00991302 -0.00330754 0)
(0.0112361 -0.00330874 0)
(0.0125598 -0.00331008 0)
(0.0138839 -0.00331156 0)
(0.0152088 -0.00331317 0)
(0.0165342 -0.00331491 0)
(0.0178605 -0.00331677 0)
(0.0191874 -0.00331876 0)
(0.0205153 -0.00332087 0)
(0.0218439 -0.00332308 0)
(0.0231735 -0.0033254 0)
(0.0245041 -0.00332781 0)
(0.0258356 -0.00333032 0)
(0.0271682 -0.00333291 0)
(0.0285018 -0.00333558 0)
(0.0298365 -0.00333832 0)
(0.0311724 -0.00334111 0)
(0.0325093 -0.00334396 0)
(0.0338475 -0.00334685 0)
(0.0351868 -0.00334977 0)
(0.0365272 -0.00335271 0)
(0.0378689 -0.00335566 0)
(0.0392118 -0.00335861 0)
(0.0405558 -0.00336154 0)
(0.041901 -0.00336445 0)
(0.0432474 -0.00336732 0)
(0.044595 -0.00337014 0)
(0.0459437 -0.00337289 0)
(0.0472935 -0.00337556 0)
(0.0486443 -0.00337813 0)
(0.0499962 -0.00338059 0)
(0.051349 -0.00338292 0)
(0.0527028 -0.0033851 0)
(0.0540574 -0.00338711 0)
(0.0554128 -0.00338895 0)
(0.0567689 -0.00339058 0)
(0.0581256 -0.00339199 0)
(0.0594829 -0.00339315 0)
(0.0608406 -0.00339405 0)
(0.0621987 -0.00339467 0)
(0.0635569 -0.00339498 0)
(0.0649153 -0.00339496 0)
(0.0662735 -0.00339459 0)
(0.0676316 -0.00339383 0)
(0.0689893 -0.00339268 0)
(0.0703465 -0.00339109 0)
(0.071703 -0.00338905 0)
(0.0730586 -0.00338652 0)
(0.0744132 -0.00338349 0)
(0.0757664 -0.00337992 0)
(0.0771181 -0.00337578 0)
(0.0784681 -0.00337104 0)
(0.0798161 -0.00336568 0)
(0.0811618 -0.00335966 0)
(0.082505 -0.00335296 0)
(0.0838455 -0.00334554 0)
(0.0851828 -0.00333737 0)
(0.0865168 -0.00332841 0)
(0.087847 -0.00331865 0)
(0.0891732 -0.00330803 0)
(0.090495 -0.00329654 0)
(0.0918121 -0.00328413 0)
(0.093124 -0.00327078 0)
(0.0944305 -0.00325645 0)
(0.095731 -0.0032411 0)
(0.0970252 -0.00322471 0)
(0.0983127 -0.00320724 0)
(0.099593 -0.00318865 0)
(0.100866 -0.00316892 0)
(0.10213 -0.00314802 0)
(0.103386 -0.0031259 0)
(0.104633 -0.00310254 0)
(0.105871 -0.00307792 0)
(0.107098 -0.00305199 0)
(0.108315 -0.00302473 0)
(0.10952 -0.00299611 0)
(0.110714 -0.0029661 0)
(0.111896 -0.00293469 0)
(0.113064 -0.00290183 0)
(0.11422 -0.00286752 0)
(0.115361 -0.00283172 0)
(0.116488 -0.00279442 0)
(0.117599 -0.0027556 0)
(0.118695 -0.00271523 0)
(0.119774 -0.00267332 0)
(0.120836 -0.00262983 0)
(0.121881 -0.00258477 0)
(0.122907 -0.00253813 0)
(0.123914 -0.00248988 0)
(0.124902 -0.00244005 0)
(0.125869 -0.00238861 0)
(0.126816 -0.00233557 0)
(0.127741 -0.00228095 0)
(0.128643 -0.00222473 0)
(0.129523 -0.00216694 0)
(0.13038 -0.00210758 0)
(0.131212 -0.00204667 0)
(0.13202 -0.00198424 0)
(0.132802 -0.00192029 0)
(0.133559 -0.00185486 0)
(0.134289 -0.00178796 0)
(0.134992 -0.00171965 0)
(0.135667 -0.00164994 0)
(0.136314 -0.00157887 0)
(0.136932 -0.00150649 0)
(0.137521 -0.00143284 0)
(0.138081 -0.00135796 0)
(0.13861 -0.0012819 0)
(0.139108 -0.00120472 0)
(0.139576 -0.00112647 0)
(0.140011 -0.00104721 0)
(0.140415 -0.000966988 0)
(0.140787 -0.000885879 0)
(0.141125 -0.000803944 0)
(0.141431 -0.000721249 0)
(0.141704 -0.000637864 0)
(0.141942 -0.000553859 0)
(0.142148 -0.000469306 0)
(0.142319 -0.000384278 0)
(0.142456 -0.000298851 0)
(0.142558 -0.000213101 0)
(0.142627 -0.000127104 0)
(0.14266 -4.09386e-05 0)
(0.14266 4.53183e-05 0)
(0.142624 0.000131588 0)
(0.142554 0.000217793 0)
(0.14245 0.000303855 0)
(0.142311 0.000389697 0)
(0.142137 0.000475241 0)
(0.14193 0.000560411 0)
(0.141688 0.000645134 0)
(0.141413 0.000729334 0)
(0.141104 0.000812941 0)
(0.140761 0.000895883 0)
(0.140386 0.000978091 0)
(0.139977 0.0010595 0)
(0.139537 0.00114004 0)
(0.139064 0.00121966 0)
(0.138559 0.00129828 0)
(0.138023 0.00137587 0)
(0.137456 0.00145235 0)
(0.136859 0.00152768 0)
(0.136232 0.00160181 0)
(0.135576 0.0016747 0)
(0.13489 0.00174629 0)
(0.134176 0.00181655 0)
(0.133434 0.00188544 0)
(0.132665 0.00195293 0)
(0.131869 0.00201899 0)
(0.131047 0.00208359 0)
(0.1302 0.00214669 0)
(0.129327 0.00220829 0)
(0.12843 0.00226837 0)
(0.12751 0.0023269 0)
(0.126566 0.00238387 0)
(0.1256 0.00243928 0)
(0.124612 0.00249311 0)
(0.123603 0.00254536 0)
(0.122573 0.00259604 0)
(0.121523 0.00264513 0)
(0.120454 0.00269265 0)
(0.119366 0.0027386 0)
(0.11826 0.00278298 0)
(0.117137 0.00282582 0)
(0.115997 0.00286711 0)
(0.11484 0.00290687 0)
(0.113668 0.00294513 0)
(0.112482 0.00298189 0)
(0.11128 0.00301718 0)
(0.110065 0.00305102 0)
(0.108837 0.00308342 0)
(0.107596 0.00311442 0)
(0.106343 0.00314404 0)
(0.105078 0.0031723 0)
(0.103803 0.00319924 0)
(0.102517 0.00322487 0)
(0.101221 0.00324923 0)
(0.099915 0.00327236 0)
(0.0986004 0.00329427 0)
(0.0972774 0.003315 0)
(0.0959464 0.00333458 0)
(0.0946078 0.00335304 0)
(0.093262 0.00337042 0)
(0.0919095 0.00338674 0)
(0.0905508 0.00340205 0)
(0.0891861 0.00341636 0)
(0.0878159 0.00342972 0)
(0.0864407 0.00344216 0)
(0.0850606 0.00345371 0)
(0.0836762 0.0034644 0)
(0.0822876 0.00347426 0)
(0.0808953 0.00348333 0)
(0.0794996 0.00349164 0)
(0.0781007 0.00349922 0)
(0.0766989 0.00350609 0)
(0.0752946 0.0035123 0)
(0.0738879 0.00351787 0)
(0.0724792 0.00352283 0)
(0.0710686 0.00352721 0)
(0.0696564 0.00353104 0)
(0.0682429 0.00353435 0)
(0.0668281 0.00353716 0)
(0.0654123 0.00353951 0)
(0.0639957 0.00354141 0)
(0.0625784 0.0035429 0)
(0.0611606 0.00354401 0)
(0.0597425 0.00354474 0)
(0.0583242 0.00354514 0)
(0.0569059 0.00354522 0)
(0.0554875 0.00354501 0)
(0.0540694 0.00354452 0)
(0.0526515 0.00354379 0)
(0.0512339 0.00354283 0)
(0.0498168 0.00354166 0)
(0.0484003 0.00354031 0)
(0.0469843 0.00353878 0)
(0.045569 0.00353711 0)
(0.0441544 0.0035353 0)
(0.0427405 0.00353339 0)
(0.0413275 0.00353137 0)
(0.0399153 0.00352927 0)
(0.0385039 0.00352711 0)
(0.0370935 0.0035249 0)
(0.035684 0.00352265 0)
(0.0342753 0.00352037 0)
(0.0328676 0.00351809 0)
(0.0314609 0.00351581 0)
(0.030055 0.00351355 0)
(0.0286501 0.00351131 0)
(0.027246 0.00350911 0)
(0.0258429 0.00350696 0)
(0.0244406 0.00350487 0)
(0.0230391 0.00350284 0)
(0.0216384 0.00350089 0)
(0.0202385 0.00349902 0)
(0.0188394 0.00349724 0)
(0.0174409 0.00349556 0)
(0.0160431 0.00349398 0)
(0.0146459 0.00349251 0)
(0.0132493 0.00349117 0)
(0.0118532 0.00348994 0)
(0.0104576 0.00348883 0)
(0.00906239 0.00348786 0)
(0.00766755 0.00348702 0)
(0.00627302 0.00348631 0)
(0.00487875 0.00348574 0)
(0.00348468 0.00348532 0)
(0.00209075 0.00348504 0)
(0.000696907 0.00348489 0)
(0.000660488 -0.00462439 0)
(0.0019815 -0.00462461 0)
(0.0033026 -0.00462504 0)
(0.00462385 -0.00462568 0)
(0.00594533 -0.00462654 0)
(0.00726708 -0.0046276 0)
(0.00858916 -0.00462888 0)
(0.00991165 -0.00463036 0)
(0.0112346 -0.00463204 0)
(0.012558 -0.00463392 0)
(0.0138821 -0.00463599 0)
(0.0152067 -0.00463825 0)
(0.0165321 -0.0046407 0)
(0.0178581 -0.00464331 0)
(0.019185 -0.0046461 0)
(0.0205126 -0.00464906 0)
(0.0218412 -0.00465216 0)
(0.0231707 -0.00465542 0)
(0.0245011 -0.00465881 0)
(0.0258325 -0.00466233 0)
(0.027165 -0.00466597 0)
(0.0284985 -0.00466972 0)
(0.0298332 -0.00467356 0)
(0.0311689 -0.00467749 0)
(0.0325058 -0.00468149 0)
(0.0338439 -0.00468554 0)
(0.0351832 -0.00468965 0)
(0.0365236 -0.00469378 0)
(0.0378653 -0.00469792 0)
(0.0392082 -0.00470207 0)
(0.0405522 -0.0047062 0)
(0.0418975 -0.00471029 0)
(0.043244 -0.00471433 0)
(0.0445916 -0.00471829 0)
(0.0459404 -0.00472216 0)
(0.0472902 -0.00472592 0)
(0.0486412 -0.00472954 0)
(0.0499932 -0.004733 0)
(0.0513462 -0.00473629 0)
(0.0527002 -0.00473937 0)
(0.054055 -0.00474222 0)
(0.0554106 -0.00474481 0)
(0.056767 -0.00474712 0)
(0.058124 -0.00474912 0)
(0.0594816 -0.00475078 0)
(0.0608396 -0.00475208 0)
(0.062198 -0.00475297 0)
(0.0635567 -0.00475344 0)
(0.0649154 -0.00475344 0)
(0.0662741 -0.00475295 0)
(0.0676327 -0.00475193 0)
(0.0689909 -0.00475035 0)
(0.0703486 -0.00474816 0)
(0.0717057 -0.00474534 0)
(0.0730619 -0.00474184 0)
(0.074417 -0.00473764 0)
(0.0757709 -0.00473267 0)
(0.0771233 -0.00472692 0)
(0.078474 -0.00472033 0)
(0.0798228 -0.00471287 0)
(0.0811693 -0.00470449 0)
(0.0825134 -0.00469515 0)
(0.0838547 -0.0046848 0)
(0.085193 -0.00467341 0)
(0.0865279 -0.00466092 0)
(0.0878591 -0.00464729 0)
(0.0891864 -0.00463248 0)
(0.0905093 -0.00461643 0)
(0.0918274 -0.00459911 0)
(0.0931405 -0.00458046 0)
(0.0944482 -0.00456044 0)
(0.0957499 -0.004539 0)
(0.0970454 -0.0045161 0)
(0.0983342 -0.00449169 0)
(0.0996159 -0.00446572 0)
(0.10089 -0.00443814 0)
(0.102156 -0.00440892 0)
(0.103413 -0.004378 0)
(0.104662 -0.00434534 0)
(0.105901 -0.00431091 0)
(0.10713 -0.00427465 0)
(0.108348 -0.00423652 0)
(0.109555 -0.00419649 0)
(0.110751 -0.00415452 0)
(0.111934 -0.00411057 0)
(0.113105 -0.00406461 0)
(0.114262 -0.0040166 0)
(0.115405 -0.00396651 0)
(0.116533 -0.00391432 0)
(0.117647 -0.00385999 0)
(0.118744 -0.0038035 0)
(0.119825 -0.00374484 0)
(0.12089 -0.00368398 0)
(0.121936 -0.0036209 0)
(0.122964 -0.00355561 0)
(0.123973 -0.00348807 0)
(0.124963 -0.0034183 0)
(0.125932 -0.00334629 0)
(0.12688 -0.00327203 0)
(0.127807 -0.00319555 0)
(0.128712 -0.00311683 0)
(0.129593 -0.00303591 0)
(0.130452 -0.00295278 0)
(0.131286 -0.00286749 0)
(0.132096 -0.00278004 0)
(0.13288 -0.00269048 0)
(0.133638 -0.00259884 0)
(0.13437 -0.00250515 0)
(0.135074 -0.00240946 0)
(0.135751 -0.00231181 0)
(0.1364 -0.00221226 0)
(0.13702 -0.00211087 0)
(0.137611 -0.00200769 0)
(0.138171 -0.00190279 0)
(0.138702 -0.00179624 0)
(0.139202 -0.00168811 0)
(0.13967 -0.00157848 0)
(0.140107 -0.00146742 0)
(0.140512 -0.00135503 0)
(0.140884 -0.00124139 0)
(0.141224 -0.00112659 0)
(0.141531 -0.00101072 0)
(0.141804 -0.000893878 0)
(0.142044 -0.00077617 0)
(0.142249 -0.000657692 0)
(0.142421 -0.000538549 0)
(0.142559 -0.000418845 0)
(0.142662 -0.000298687 0)
(0.14273 -0.000178184 0)
(0.142764 -5.74425e-05 0)
(0.142763 6.34265e-05 0)
(0.142728 0.000184314 0)
(0.142658 0.00030511 0)
(0.142553 0.000425705 0)
(0.142414 0.00054599 0)
(0.14224 0.000665858 0)
(0.142032 0.000785202 0)
(0.14179 0.000903917 0)
(0.141514 0.0010219 0)
(0.141204 0.00113905 0)
(0.14086 0.00125526 0)
(0.140484 0.00137045 0)
(0.140075 0.00148451 0)
(0.139633 0.00159735 0)
(0.139159 0.0017089 0)
(0.138653 0.00181906 0)
(0.138116 0.00192775 0)
(0.137548 0.0020349 0)
(0.136949 0.00214043 0)
(0.13632 0.00224428 0)
(0.135662 0.00234638 0)
(0.134975 0.00244667 0)
(0.13426 0.00254508 0)
(0.133516 0.00264158 0)
(0.132745 0.00273611 0)
(0.131948 0.00282863 0)
(0.131124 0.0029191 0)
(0.130275 0.00300748 0)
(0.1294 0.00309375 0)
(0.128502 0.00317787 0)
(0.127579 0.00325983 0)
(0.126634 0.00333961 0)
(0.125666 0.00341719 0)
(0.124676 0.00349256 0)
(0.123664 0.00356572 0)
(0.122633 0.00363666 0)
(0.121581 0.00370539 0)
(0.12051 0.00377191 0)
(0.11942 0.00383623 0)
(0.118312 0.00389835 0)
(0.117187 0.0039583 0)
(0.116045 0.00401609 0)
(0.114887 0.00407174 0)
(0.113714 0.00412527 0)
(0.112525 0.00417671 0)
(0.111322 0.00422608 0)
(0.110105 0.00427342 0)
(0.108875 0.00431876 0)
(0.107632 0.00436212 0)
(0.106378 0.00440355 0)
(0.105111 0.00444308 0)
(0.103834 0.00448075 0)
(0.102547 0.0045166 0)
(0.101249 0.00455067 0)
(0.099942 0.00458299 0)
(0.098626 0.00461362 0)
(0.0973016 0.0046426 0)
(0.0959692 0.00466997 0)
(0.0946293 0.00469578 0)
(0.0932822 0.00472006 0)
(0.0919285 0.00474287 0)
(0.0905685 0.00476425 0)
(0.0892027 0.00478425 0)
(0.0878314 0.00480291 0)
(0.0864551 0.00482027 0)
(0.085074 0.0048364 0)
(0.0836885 0.00485132 0)
(0.082299 0.00486508 0)
(0.0809057 0.00487773 0)
(0.0795091 0.00488932 0)
(0.0781094 0.00489988 0)
(0.0767068 0.00490947 0)
(0.0753017 0.00491812 0)
(0.0738943 0.00492587 0)
(0.0724848 0.00493278 0)
(0.0710736 0.00493887 0)
(0.0696607 0.00494419 0)
(0.0682465 0.00494878 0)
(0.0668312 0.00495268 0)
(0.0654148 0.00495593 0)
(0.0639977 0.00495856 0)
(0.06258 0.00496061 0)
(0.0611618 0.00496212 0)
(0.0597432 0.00496311 0)
(0.0583245 0.00496364 0)
(0.0569058 0.00496372 0)
(0.0554871 0.00496339 0)
(0.0540686 0.00496268 0)
(0.0526505 0.00496162 0)
(0.0512327 0.00496025 0)
(0.0498153 0.00495859 0)
(0.0483985 0.00495666 0)
(0.0469824 0.0049545 0)
(0.0455669 0.00495214 0)
(0.0441521 0.00494959 0)
(0.0427382 0.00494688 0)
(0.041325 0.00494403 0)
(0.0399127 0.00494107 0)
(0.0385013 0.00493803 0)
(0.0370908 0.00493491 0)
(0.0356813 0.00493174 0)
(0.0342726 0.00492854 0)
(0.0328649 0.00492533 0)
(0.0314581 0.00492212 0)
(0.0300523 0.00491893 0)
(0.0286474 0.00491579 0)
(0.0272434 0.00491269 0)
(0.0258403 0.00490967 0)
(0.0244381 0.00490672 0)
(0.0230367 0.00490387 0)
(0.0216361 0.00490112 0)
(0.0202364 0.0048985 0)
(0.0188373 0.004896 0)
(0.017439 0.00489363 0)
(0.0160413 0.00489142 0)
(0.0146443 0.00488936 0)
(0.0132478 0.00488746 0)
(0.0118518 0.00488574 0)
(0.0104564 0.00488419 0)
(0.00906131 0.00488282 0)
(0.00766662 0.00488164 0)
(0.00627226 0.00488064 0)
(0.00487815 0.00487985 0)
(0.00348425 0.00487925 0)
(0.00209049 0.00487885 0)
(0.000696821 0.00487865 0)
(0.000660364 -0.00594527 0)
(0.00198112 -0.00594555 0)
(0.00330198 -0.00594611 0)
(0.00462299 -0.00594694 0)
(0.00594422 -0.00594804 0)
(0.00726572 -0.00594942 0)
(0.00858757 -0.00595106 0)
(0.00990983 -0.00595297 0)
(0.0112325 -0.00595514 0)
(0.0125558 -0.00595756 0)
(0.0138796 -0.00596024 0)
(0.015204 -0.00596315 0)
(0.0165291 -0.0059663 0)
(0.017855 -0.00596968 0)
(0.0191817 -0.00597328 0)
(0.0205091 -0.00597709 0)
(0.0218375 -0.0059811 0)
(0.0231668 -0.0059853 0)
(0.0244971 -0.00598968 0)
(0.0258284 -0.00599422 0)
(0.0271607 -0.00599892 0)
(0.0284941 -0.00600375 0)
(0.0298287 -0.00600872 0)
(0.0311643 -0.00601379 0)
(0.0325012 -0.00601895 0)
(0.0338392 -0.00602419 0)
(0.0351784 -0.00602949 0)
(0.0365189 -0.00603483 0)
(0.0378605 -0.00604019 0)
(0.0392034 -0.00604555 0)
(0.0405475 -0.00605088 0)
(0.0418928 -0.00605618 0)
(0.0432393 -0.0060614 0)
(0.044587 -0.00606653 0)
(0.0459359 -0.00607154 0)
(0.047286 -0.00607641 0)
(0.0486371 -0.00608111 0)
(0.0499893 -0.0060856 0)
(0.0513425 -0.00608986 0)
(0.0526967 -0.00609386 0)
(0.0540518 -0.00609757 0)
(0.0554077 -0.00610095 0)
(0.0567644 -0.00610397 0)
(0.0581218 -0.00610659 0)
(0.0594798 -0.00610878 0)
(0.0608383 -0.00611049 0)
(0.0621972 -0.0061117 0)
(0.0635563 -0.00611235 0)
(0.0649156 -0.00611242 0)
(0.0662749 -0.00611184 0)
(0.067634 -0.00611059 0)
(0.0689929 -0.00610862 0)
(0.0703514 -0.00610587 0)
(0.0717092 -0.00610231 0)
(0.0730662 -0.00609788 0)
(0.0744221 -0.00609254 0)
(0.0757769 -0.00608623 0)
(0.0771303 -0.0060789 0)
(0.0784819 -0.0060705 0)
(0.0798317 -0.00606098 0)
(0.0811793 -0.00605028 0)
(0.0825245 -0.00603834 0)
(0.083867 -0.00602512 0)
(0.0852065 -0.00601054 0)
(0.0865427 -0.00599456 0)
(0.0878753 -0.00597712 0)
(0.0892039 -0.00595815 0)
(0.0905282 -0.0059376 0)
(0.0918479 -0.00591541 0)
(0.0931625 -0.00589151 0)
(0.0944717 -0.00586586 0)
(0.0957751 -0.00583837 0)
(0.0970723 -0.00580901 0)
(0.0983629 -0.0057777 0)
(0.0996464 -0.00574438 0)
(0.100922 -0.00570901 0)
(0.10219 -0.00567151 0)
(0.10345 -0.00563183 0)
(0.1047 -0.00558992 0)
(0.105941 -0.00554572 0)
(0.107172 -0.00549917 0)
(0.108393 -0.00545022 0)
(0.109602 -0.00539882 0)
(0.1108 -0.00534492 0)
(0.111985 -0.00528847 0)
(0.113158 -0.00522943 0)
(0.114318 -0.00516776 0)
(0.115463 -0.00510341 0)
(0.116594 -0.00503635 0)
(0.11771 -0.00496654 0)
(0.11881 -0.00489395 0)
(0.119894 -0.00481856 0)
(0.12096 -0.00474033 0)
(0.122009 -0.00465926 0)
(0.12304 -0.00457532 0)
(0.124051 -0.0044885 0)
(0.125044 -0.0043988 0)
(0.126015 -0.00430621 0)
(0.126966 -0.00421073 0)
(0.127896 -0.00411237 0)
(0.128803 -0.00401115 0)
(0.129687 -0.00390707 0)
(0.130548 -0.00380016 0)
(0.131385 -0.00369045 0)
(0.132197 -0.00357797 0)
(0.132983 -0.00346276 0)
(0.133744 -0.00334487 0)
(0.134478 -0.00322433 0)
(0.135185 -0.00310122 0)
(0.135864 -0.00297559 0)
(0.136515 -0.0028475 0)
(0.137137 -0.00271704 0)
(0.137729 -0.00258427 0)
(0.138292 -0.00244928 0)
(0.138825 -0.00231216 0)
(0.139326 -0.002173 0)
(0.139796 -0.00203191 0)
(0.140235 -0.00188898 0)
(0.140641 -0.00174432 0)
(0.141015 -0.00159806 0)
(0.141356 -0.00145029 0)
(0.141664 -0.00130115 0)
(0.141938 -0.00115076 0)
(0.142179 -0.000999252 0)
(0.142385 -0.000846746 0)
(0.142558 -0.000693382 0)
(0.142696 -0.000539295 0)
(0.142799 -0.000384621 0)