/*--------------------------------*- C++ -*----------------------------------*\
| =========                 |                                                 |
| \\      /  F ield         | OpenFOAM: The Open Source CFD Toolbox           |
|  \\    /   O peration     | Version:  v2012                                 |
|   \\  /    A nd           | Website:  www.openfoam.com                      |
|    \\/     M anipulation  |                                                 |
\*---------------------------------------------------------------------------*/
FoamFile
{
    version     2.0;
    format      ascii;
    class       surfaceScalarField;
    location    "9.1";
    object      phi;
}
// * * * * * * * * * * * * * * * * * * * * * * * * * * * * * * * * * * * * * //

dimensions      [0 3 -1 0 0 0 0];
oriented        oriented;


internalField   nonuniform List<scalar> 
130560
(
3.69709e-06
-3.69709e-06
7.3942e-06
-3.69712e-06
1.10914e-05
-3.69718e-06
1.47887e-05
-3.69728e-06
1.84861e-05
-3.6974e-06
2.21836e-05
-3.69755e-06
2.58813e-05
-3.69771e-06
2.95792e-05
-3.6979e-06
3.32773e-05
-3.69809e-06
3.69756e-05
-3.69829e-06
4.06741e-05
-3.69848e-06
4.43727e-05
-3.69867e-06
4.80716e-05
-3.69883e-06
5.17705e-05
-3.69897e-06
5.54696e-05
-3.69906e-06
5.91687e-05
-3.69911e-06
6.28678e-05
-3.6991e-06
6.65668e-05
-3.69901e-06
7.02657e-05
-3.69883e-06
7.39642e-05
-3.69855e-06
7.76624e-05
-3.69816e-06
8.136e-05
-3.69763e-06
8.50569e-05
-3.69695e-06
8.87531e-05
-3.69611e-06
9.24481e-05
-3.69509e-06
9.6142e-05
-3.69386e-06
9.98344e-05
-3.69241e-06
0.000103525
-3.69072e-06
0.000107214
-3.68877e-06
0.0001109
-3.68654e-06
0.000114584
-3.684e-06
0.000118266
-3.68113e-06
0.000121943
-3.67791e-06
0.000125618
-3.67431e-06
0.000129288
-3.67032e-06
0.000132954
-3.66589e-06
0.000136615
-3.66102e-06
0.000140271
-3.65567e-06
0.000143921
-3.64982e-06
0.000147564
-3.64344e-06
0.0001512
-3.63649e-06
0.000154829
-3.62897e-06
0.00015845
-3.62083e-06
0.000162062
-3.61204e-06
0.000165665
-3.60258e-06
0.000169257
-3.59243e-06
0.000172839
-3.58154e-06
0.000176409
-3.5699e-06
0.000179966
-3.55747e-06
0.00018351
-3.54422e-06
0.000187041
-3.53013e-06
0.000190556
-3.51516e-06
0.000194055
-3.49929e-06
0.000197538
-3.48249e-06
0.000201002
-3.46473e-06
0.000204448
-3.44599e-06
0.000207874
-3.42623e-06
0.00021128
-3.40543e-06
0.000214663
-3.38356e-06
0.000218024
-3.3606e-06
0.000221361
-3.33653e-06
0.000224672
-3.31132e-06
0.000227957
-3.28495e-06
0.000231214
-3.2574e-06
0.000234443
-3.22865e-06
0.000237642
-3.19868e-06
0.000240809
-3.16747e-06
0.000243944
-3.13501e-06
0.000247045
-3.10128e-06
0.000250112
-3.06626e-06
0.000253142
-3.02996e-06
0.000256134
-2.99235e-06
0.000259087
-2.95344e-06
0.000262001
-2.9132e-06
0.000264872
-2.87165e-06
0.000267701
-2.82877e-06
0.000270486
-2.78457e-06
0.000273225
-2.73905e-06
0.000275917
-2.69222e-06
0.000278561
-2.64407e-06
0.000281156
-2.59462e-06
0.000283699
-2.54388e-06
0.000286191
-2.49186e-06
0.00028863
-2.43857e-06
0.000291014
-2.38404e-06
0.000293342
-2.32828e-06
0.000295613
-2.27131e-06
0.000297827
-2.21316e-06
0.00029998
-2.15386e-06
0.000302074
-2.09343e-06
0.000304106
-2.0319e-06
0.000306075
-1.9693e-06
0.000307981
-1.90568e-06
0.000309822
-1.84106e-06
0.000311597
-1.77549e-06
0.000313306
-1.709e-06
0.000314948
-1.64163e-06
0.000316521
-1.57344e-06
0.000318026
-1.50447e-06
0.000319461
-1.43475e-06
0.000320825
-1.36435e-06
0.000322118
-1.29331e-06
0.00032334
-1.22167e-06
0.000324489
-1.1495e-06
0.000325566
-1.07685e-06
0.00032657
-1.00376e-06
0.0003275
-9.303e-07
0.000328357
-8.56514e-07
0.000329139
-7.82459e-07
0.000329848
-7.08193e-07
0.000330481
-6.33769e-07
0.000331041
-5.59244e-07
0.000331525
-4.84674e-07
0.000331935
-4.10113e-07
0.000332271
-3.35616e-07
0.000332532
-2.61239e-07
0.000332719
-1.87035e-07
0.000332832
-1.13057e-07
0.000332872
-3.93572e-08
0.000332838
3.40117e-08
0.000332731
1.07e-07
0.000332551
1.79557e-07
0.000332299
2.51637e-07
0.000331976
3.2319e-07
0.000331582
3.94173e-07
0.000331118
4.6454e-07
0.000330583
5.34249e-07
0.00032998
6.03259e-07
0.000329308
6.71531e-07
0.000328569
7.39027e-07
0.000327764
8.0571e-07
0.000326892
8.71548e-07
0.000325956
9.36506e-07
0.000324955
1.00056e-06
0.000323891
1.06367e-06
0.000322766
1.12581e-06
0.000321579
1.18697e-06
0.000320332
1.24711e-06
0.000319025
1.30622e-06
0.000317661
1.36427e-06
0.00031624
1.42126e-06
0.000314763
1.47715e-06
0.000313231
1.53195e-06
0.000311645
1.58563e-06
0.000310007
1.63819e-06
0.000308317
1.68961e-06
0.000306577
1.7399e-06
0.000304788
1.78904e-06
0.000302951
1.83703e-06
0.000301067
1.88387e-06
0.000299138
1.92956e-06
0.000297164
1.9741e-06
0.000295146
2.01749e-06
0.000293087
2.05973e-06
0.000290986
2.10084e-06
0.000288845
2.14081e-06
0.000286665
2.17965e-06
0.000284448
2.21737e-06
0.000282194
2.25398e-06
0.000279904
2.28949e-06
0.000277581
2.32391e-06
0.000275223
2.35726e-06
0.000272834
2.38954e-06
0.000270413
2.42077e-06
0.000267962
2.45097e-06
0.000265482
2.48014e-06
0.000262974
2.50831e-06
0.000260438
2.53549e-06
0.000257876
2.5617e-06
0.000255289
2.58696e-06
0.000252678
2.61128e-06
0.000250043
2.63468e-06
0.000247386
2.65718e-06
0.000244707
2.6788e-06
0.000242008
2.69956e-06
0.000239288
2.71947e-06
0.00023655
2.73856e-06
0.000233793
2.75684e-06
0.000231019
2.77434e-06
0.000228228
2.79108e-06
0.000225421
2.80706e-06
0.000222598
2.82232e-06
0.000219761
2.83688e-06
0.000216911
2.85075e-06
0.000214047
2.86395e-06
0.00021117
2.8765e-06
0.000208282
2.88843e-06
0.000205382
2.89974e-06
0.000202472
2.91047e-06
0.000199551
2.92062e-06
0.000196621
2.93022e-06
0.000193681
2.93928e-06
0.000190734
2.94783e-06
0.000187778
2.95588e-06
0.000184814
2.96345e-06
0.000181844
2.97056e-06
0.000178866
2.97722e-06
0.000175883
2.98345e-06
0.000172894
2.98927e-06
0.000169899
2.99469e-06
0.000166899
2.99973e-06
0.000163895
3.00441e-06
0.000160886
3.00874e-06
0.000157873
3.01274e-06
0.000154857
3.01641e-06
0.000151837
3.01979e-06
0.000148814
3.02287e-06
0.000145789
3.02568e-06
0.00014276
3.02822e-06
0.00013973
3.03052e-06
0.000136697
3.03258e-06
0.000133663
3.03441e-06
0.000130627
3.03604e-06
0.000127589
3.03746e-06
0.000124551
3.0387e-06
0.000121511
3.03976e-06
0.00011847
3.04066e-06
0.000115429
3.0414e-06
0.000112387
3.042e-06
0.000109344
3.04246e-06
0.000106302
3.0428e-06
0.000103259
3.04302e-06
0.000100216
3.04314e-06
9.71724e-05
3.04316e-06
9.41293e-05
3.0431e-06
9.10863e-05
3.04295e-06
8.80436e-05
3.04273e-06
8.50011e-05
3.04245e-06
8.1959e-05
3.04211e-06
7.89173e-05
3.04172e-06
7.5876e-05
3.04129e-06
7.28352e-05
3.04083e-06
6.97949e-05
3.04033e-06
6.6755e-05
3.03981e-06
6.37158e-05
3.03927e-06
6.06771e-05
3.03872e-06
5.76389e-05
3.03816e-06
5.46013e-05
3.0376e-06
5.15642e-05
3.03704e-06
4.85278e-05
3.03649e-06
4.54918e-05
3.03595e-06
4.24564e-05
3.03543e-06
3.94215e-05
3.03492e-06
3.6387e-05
3.03444e-06
3.3353e-05
3.03398e-06
3.03195e-05
3.03354e-06
2.72864e-05
3.03314e-06
2.42536e-05
3.03278e-06
2.12211e-05
3.03244e-06
1.8189e-05
3.03215e-06
1.51571e-05
3.03189e-06
1.21254e-05
3.03168e-06
9.09391e-06
3.03151e-06
6.06253e-06
3.03138e-06
3.03125e-06
3.03129e-06
3.03125e-06
3.69705e-06
-7.39414e-06
7.39414e-06
-7.39421e-06
1.10913e-05
-7.39434e-06
1.47885e-05
-7.39453e-06
1.84859e-05
-7.39477e-06
2.21834e-05
-7.39507e-06
2.58811e-05
-7.39541e-06
2.9579e-05
-7.39578e-06
3.32771e-05
-7.39618e-06
3.69754e-05
-7.39658e-06
4.06739e-05
-7.39698e-06
4.43726e-05
-7.39735e-06
4.80714e-05
-7.39769e-06
5.17704e-05
-7.39797e-06
5.54696e-05
-7.39818e-06
5.91687e-05
-7.39828e-06
6.28679e-05
-7.39827e-06
6.6567e-05
-7.3981e-06
7.02659e-05
-7.39776e-06
7.39646e-05
-7.39722e-06
7.76629e-05
-7.39645e-06
8.13607e-05
-7.39541e-06
8.50578e-05
-7.39407e-06
8.87541e-05
-7.39241e-06
9.24494e-05
-7.39038e-06
9.61435e-05
-7.38794e-06
9.98361e-05
-7.38507e-06
0.000103527
-7.38171e-06
0.000107216
-7.37783e-06
0.000110903
-7.37338e-06
0.000114587
-7.36832e-06
0.000118269
-7.36261e-06
0.000121947
-7.35619e-06
0.000125622
-7.34902e-06
0.000129293
-7.34105e-06
0.000132959
-7.33224e-06
0.00013662
-7.32252e-06
0.000140277
-7.31185e-06
0.000143927
-7.30017e-06
0.000147571
-7.28743e-06
0.000151208
-7.27357e-06
0.000154838
-7.25855e-06
0.000158459
-7.24229e-06
0.000162072
-7.22475e-06
0.000165675
-7.20587e-06
0.000169268
-7.18559e-06
0.00017285
-7.16384e-06
0.000176421
-7.14059e-06
0.000179979
-7.11575e-06
0.000183524
-7.08929e-06
0.000187055
-7.06113e-06
0.000190572
-7.03123e-06
0.000194072
-6.99951e-06
0.000197555
-6.96594e-06
0.000201021
-6.93045e-06
0.000204468
-6.89298e-06
0.000207895
-6.85349e-06
0.000211302
-6.81191e-06
0.000214686
-6.76821e-06
0.000218048
-6.72232e-06
0.000221386
-6.6742e-06
0.000224698
-6.6238e-06
0.000227984
-6.57109e-06
0.000231243
-6.51601e-06
0.000234473
-6.45852e-06
0.000237673
-6.3986e-06
0.000240841
-6.33619e-06
0.000243978
-6.27128e-06
0.00024708
-6.20383e-06
0.000250148
-6.13382e-06
0.000253179
-6.06122e-06
0.000256173
-5.98601e-06
0.000259127
-5.90818e-06
0.000262042
-5.82772e-06
0.000264915
-5.74462e-06
0.000267745
-5.65887e-06
0.000270531
-5.57047e-06
0.000273271
-5.47942e-06
0.000275965
-5.38574e-06
0.00027861
-5.28944e-06
0.000281206
-5.19053e-06
0.000283751
-5.08903e-06
0.000286244
-4.98498e-06
0.000288684
-4.87839e-06
0.00029107
-4.76931e-06
0.000293399
-4.65776e-06
0.000295671
-4.54381e-06
0.000297886
-4.42748e-06
0.000300041
-4.30885e-06
0.000302135
-4.18795e-06
0.000304168
-4.06486e-06
0.000306139
-3.93964e-06
0.000308045
-3.81235e-06
0.000309887
-3.68307e-06
0.000311664
-3.55188e-06
0.000313374
-3.41886e-06
0.000315016
-3.28409e-06
0.00031659
-3.14767e-06
0.000318095
-3.00967e-06
0.000319531
-2.87019e-06
0.000320896
-2.72933e-06
0.00032219
-2.5872e-06
0.000323412
-2.44388e-06
0.000324562
-2.29949e-06
0.000325639
-2.15413e-06
0.000326643
-2.0079e-06
0.000327574
-1.86092e-06
0.000328431
-1.71329e-06
0.000329213
-1.56513e-06
0.000329922
-1.41654e-06
0.000330556
-1.26764e-06
0.000331115
-1.11853e-06
0.0003316
-9.69336e-07
0.00033201
-8.20159e-07
0.000332345
-6.71112e-07
0.000332606
-5.22303e-07
0.000332793
-3.73841e-07
0.000332906
-2.25833e-07
0.000332945
-7.83828e-08
0.00033291
6.84056e-08
0.000332803
2.14431e-07
0.000332623
3.59595e-07
0.000332371
5.038e-07
0.000332047
6.46952e-07
0.000331652
7.88961e-07
0.000331187
9.29738e-07
0.000330652
1.0692e-06
0.000330048
1.20726e-06
0.000329376
1.34384e-06
0.000328636
1.47887e-06
0.000327829
1.61227e-06
0.000326957
1.74397e-06
0.00032602
1.87392e-06
0.000325018
2.00205e-06
0.000323953
2.1283e-06
0.000322827
2.25261e-06
0.000321639
2.37495e-06
0.00032039
2.49526e-06
0.000319083
2.61349e-06
0.000317718
2.72962e-06
0.000316296
2.8436e-06
0.000314817
2.95541e-06
0.000313284
3.06501e-06
0.000311697
3.17238e-06
0.000310058
3.2775e-06
0.000308367
3.38036e-06
0.000306626
3.48094e-06
0.000304836
3.57922e-06
0.000302998
3.67521e-06
0.000301113
3.7689e-06
0.000299182
3.86027e-06
0.000297207
3.94935e-06
0.000295188
4.03612e-06
0.000293127
4.12061e-06
0.000291026
4.20281e-06
0.000288884
4.28274e-06
0.000286703
4.36041e-06
0.000284484
4.43585e-06
0.000282229
4.50906e-06
0.000279939
4.58007e-06
0.000277614
4.6489e-06
0.000275255
4.71558e-06
0.000272865
4.78013e-06
0.000270443
4.84257e-06
0.000267991
4.90295e-06
0.00026551
4.96129e-06
0.000263001
5.01761e-06
0.000260464
5.07196e-06
0.000257901
5.12436e-06
0.000255314
5.17486e-06
0.000252701
5.22348e-06
0.000250066
5.27026e-06
0.000247408
5.31524e-06
0.000244728
5.35846e-06
0.000242028
5.39995e-06
0.000239307
5.43976e-06
0.000236568
5.47792e-06
0.00023381
5.51447e-06
0.000231035
5.54945e-06
0.000228243
5.58289e-06
0.000225436
5.61485e-06
0.000222613
5.64535e-06
0.000219775
5.67445e-06
0.000216924
5.70216e-06
0.000214059
5.72854e-06
0.000211182
5.75363e-06
0.000208293
5.77746e-06
0.000205393
5.80007e-06
0.000202482
5.8215e-06
0.00019956
5.84179e-06
0.00019663
5.86097e-06
0.00019369
5.87908e-06
0.000190741
5.89616e-06
0.000187785
5.91224e-06
0.000184821
5.92736e-06
0.00018185
5.94155e-06
0.000178873
5.95486e-06
0.000175889
5.9673e-06
0.000172899
5.97892e-06
0.000169904
5.98975e-06
0.000166904
5.99982e-06
0.000163899
6.00916e-06
0.00016089
6.01781e-06
0.000157877
6.02579e-06
0.00015486
6.03313e-06
0.00015184
6.03986e-06
0.000148817
6.04601e-06
0.000145791
6.05162e-06
0.000142763
6.05669e-06
0.000139732
6.06127e-06
0.000136699
6.06538e-06
0.000133665
6.06904e-06
0.000130628
6.07227e-06
0.000127591
6.07511e-06
0.000124552
6.07758e-06
0.000121512
6.07969e-06
0.000118471
6.08147e-06
0.000115429
6.08294e-06
0.000112387
6.08413e-06
0.000109345
6.08504e-06
0.000106302
6.08571e-06
0.000103259
6.08615e-06
0.000100215
6.08638e-06
9.71722e-05
6.08641e-06
9.41291e-05
6.08627e-06
9.1086e-05
6.08597e-06
8.80433e-05
6.08553e-06
8.50007e-05
6.08496e-06
8.19586e-05
6.08427e-06
7.89168e-05
6.08349e-06
7.58755e-05
6.08262e-06
7.28346e-05
6.08168e-06
6.97943e-05
6.08068e-06
6.67545e-05
6.07963e-06
6.37152e-05
6.07855e-06
6.06765e-05
6.07744e-06
5.76383e-05
6.07632e-06
5.46007e-05
6.0752e-06
5.15637e-05
6.07408e-06
4.85272e-05
6.07297e-06
4.54913e-05
6.07189e-06
4.24558e-05
6.07083e-06
3.9421e-05
6.06982e-06
3.63865e-05
6.06884e-06
3.33526e-05
6.06792e-06
3.03191e-05
6.06706e-06
2.7286e-05
6.06625e-06
2.42532e-05
6.06552e-06
2.12208e-05
6.06485e-06
1.81887e-05
6.06426e-06
1.51569e-05
6.06375e-06
1.21252e-05
6.06331e-06
9.09378e-06
6.06297e-06
6.06245e-06
6.06271e-06
3.0312e-06
6.06253e-06
6.06245e-06
3.69699e-06
-1.10911e-05
7.39401e-06
-1.10912e-05
1.10911e-05
-1.10914e-05
1.47883e-05
-1.10917e-05
1.84856e-05
-1.10921e-05
2.21831e-05
-1.10926e-05
2.58808e-05
-1.10931e-05
2.95786e-05
-1.10936e-05
3.32767e-05
-1.10943e-05
3.6975e-05
-1.10949e-05
4.06735e-05
-1.10955e-05
4.43722e-05
-1.10961e-05
4.80712e-05
-1.10966e-05
5.17702e-05
-1.10971e-05
5.54695e-05
-1.10974e-05
5.91688e-05
-1.10976e-05
6.28681e-05
-1.10976e-05
6.65673e-05
-1.10974e-05
7.02665e-05
-1.10969e-05
7.39654e-05
-1.10961e-05
7.76639e-05
-1.1095e-05
8.1362e-05
-1.10935e-05
8.50595e-05
-1.10915e-05
8.87561e-05
-1.10891e-05
9.24518e-05
-1.10861e-05
9.61463e-05
-1.10825e-05
9.98395e-05
-1.10782e-05
0.000103531
-1.10732e-05
0.000107221
-1.10674e-05
0.000110908
-1.10608e-05
0.000114593
-1.10533e-05
0.000118275
-1.10448e-05
0.000121954
-1.10352e-05
0.00012563
-1.10245e-05
0.000129301
-1.10126e-05
0.000132969
-1.09995e-05
0.000136631
-1.0985e-05
0.000140288
-1.0969e-05
0.00014394
-1.09516e-05
0.000147585
-1.09325e-05
0.000151223
-1.09118e-05
0.000154854
-1.08894e-05
0.000158477
-1.0865e-05
0.000162091
-1.08388e-05
0.000165695
-1.08106e-05
0.00016929
-1.07802e-05
0.000172874
-1.07477e-05
0.000176446
-1.07128e-05
0.000180006
-1.06757e-05
0.000183553
-1.0636e-05
0.000187085
-1.05939e-05
0.000190603
-1.05491e-05
0.000194105
-1.05016e-05
0.000197591
-1.04513e-05
0.000201058
-1.03981e-05
0.000204507
-1.0342e-05
0.000207937
-1.02828e-05
0.000211345
-1.02205e-05
0.000214732
-1.0155e-05
0.000218096
-1.00863e-05
0.000221436
-1.00141e-05
0.000224751
-9.93861e-06
0.000228039
-9.85959e-06
0.0002313
-9.77701e-06
0.000234533
-9.69083e-06
0.000237735
-9.60099e-06
0.000240906
-9.50742e-06
0.000244045
-9.41009e-06
0.00024715
-9.30895e-06
0.00025022
-9.20396e-06
0.000253254
-9.09509e-06
0.000256251
-8.9823e-06
0.000259208
-8.86557e-06
0.000262125
-8.74489e-06
0.000265001
-8.62023e-06
0.000267834
-8.49161e-06
0.000270622
-8.359e-06
0.000273365
-8.22243e-06
0.000276061
-8.0819e-06
0.000278709
-7.93742e-06
0.000281308
-7.78903e-06
0.000283855
-7.63675e-06
0.000286351
-7.48063e-06
0.000288793
-7.3207e-06
0.000291181
-7.15703e-06
0.000293513
-6.98966e-06
0.000295788
-6.81867e-06
0.000298005
-6.64412e-06
0.000300162
-6.46609e-06
0.000302258
-6.28467e-06
0.000304294
-6.09995e-06
0.000306266
-5.91203e-06
0.000308175
-5.72101e-06
0.000310019
-5.527e-06
0.000311797
-5.33012e-06
0.000313508
-5.13048e-06
0.000315153
-4.92822e-06
0.000316728
-4.72346e-06
0.000318235
-4.51634e-06
0.000319672
-4.30701e-06
0.000321038
-4.0956e-06
0.000322333
-3.88227e-06
0.000323556
-3.66717e-06
0.000324707
-3.45045e-06
0.000325786
-3.23227e-06
0.00032679
-3.0128e-06
0.000327722
-2.79219e-06
0.000328579
-2.57061e-06
0.000329362
-2.34822e-06
0.000330071
-2.1252e-06
0.000330705
-1.90171e-06
0.000331264
-1.67791e-06
0.000331749
-1.45398e-06
0.000332159
-1.23008e-06
0.000332494
-1.00637e-06
0.000332755
-7.83021e-07
0.000332941
-5.60195e-07
0.000333053
-3.38051e-07
0.000333092
-1.16747e-07
0.000333057
1.03562e-07
0.000332948
3.22724e-07
0.000332767
5.4059e-07
0.000332514
7.57015e-07
0.000332189
9.71858e-07
0.000331793
1.18498e-06
0.000331327
1.39625e-06
0.00033079
1.60555e-06
0.000330185
1.81273e-06
0.000329511
2.0177e-06
0.000328769
2.22033e-06
0.000327961
2.42052e-06
0.000327087
2.61816e-06
0.000326148
2.81316e-06
0.000325144
3.00542e-06
0.000324078
3.19486e-06
0.000322949
3.3814e-06
0.000321759
3.56496e-06
0.000320509
3.74547e-06
0.000319199
3.92288e-06
0.000317832
4.09711e-06
0.000316407
4.26812e-06
0.000314927
4.43586e-06
0.000313392
4.6003e-06
0.000311803
4.76138e-06
0.000310161
4.91909e-06
0.000308468
5.07339e-06
0.000306725
5.22427e-06
0.000304932
5.37171e-06
0.000303092
5.5157e-06
0.000301204
5.65622e-06
0.000299271
5.79329e-06
0.000297294
5.9269e-06
0.000295273
6.05705e-06
0.00029321
6.18377e-06
0.000291106
6.30705e-06
0.000288961
6.42693e-06
0.000286778
6.54342e-06
0.000284558
6.65655e-06
0.0002823
6.76634e-06
0.000280008
6.87282e-06
0.00027768
6.97604e-06
0.00027532
7.07603e-06
0.000272927
7.17282e-06
0.000270503
7.26645e-06
0.000268049
7.35698e-06
0.000265566
7.44444e-06
0.000263055
7.52889e-06
0.000260517
7.61037e-06
0.000257952
7.68893e-06
0.000255362
7.76463e-06
0.000252748
7.83751e-06
0.000250111
7.90764e-06
0.000247451
7.97507e-06
0.00024477
8.03985e-06
0.000242068
8.10204e-06
0.000239346
8.1617e-06
0.000236605
8.21889e-06
0.000233845
8.27367e-06
0.000231069
8.32608e-06
0.000228275
8.37621e-06
0.000225466
8.42409e-06
0.000222642
8.4698e-06
0.000219803
8.51339e-06
0.00021695
8.55491e-06
0.000214084
8.59444e-06
0.000211206
8.63202e-06
0.000208316
8.66771e-06
0.000205414
8.70158e-06
0.000202502
8.73368e-06
0.00019958
8.76406e-06
0.000196648
8.79279e-06
0.000193707
8.81991e-06
0.000190758
8.84548e-06
0.0001878
8.86956e-06
0.000184835
8.8922e-06
0.000181864
8.91345e-06
0.000178885
8.93336e-06
0.0001759
8.95199e-06
0.00017291
8.96938e-06
0.000169914
8.98558e-06
0.000166913
9.00065e-06
0.000163908
9.01462e-06
0.000160898
9.02755e-06
0.000157884
9.03948e-06
0.000154867
9.05045e-06
0.000151846
9.06052e-06
0.000148823
9.06971e-06
0.000145796
9.07808e-06
0.000142767
9.08566e-06
0.000139736
9.0925e-06
0.000136703
9.09862e-06
0.000133668
9.10408e-06
0.000130631
9.10891e-06
0.000127593
9.11314e-06
0.000124554
9.11681e-06
0.000121514
9.11995e-06
0.000118473
9.12259e-06
0.000115431
9.12477e-06
0.000112388
9.12652e-06
0.000109345
9.12787e-06
0.000106302
9.12885e-06
0.000103259
9.12949e-06
0.000100216
9.12981e-06
9.71721e-05
9.12984e-06
9.41288e-05
9.12961e-06
9.10856e-05
9.12914e-06
8.80427e-05
9.12845e-06
8.50001e-05
9.12758e-06
8.19578e-05
9.12653e-06
7.8916e-05
9.12534e-06
7.58746e-05
9.12402e-06
7.28337e-05
9.12259e-06
6.97933e-05
9.12108e-06
6.67534e-05
9.1195e-06
6.37141e-05
9.11786e-06
6.06754e-05
9.11619e-06
5.76372e-05
9.11449e-06
5.45996e-05
9.11279e-06
5.15626e-05
9.1111e-06
4.85261e-05
9.10943e-06
4.54902e-05
9.10779e-06
4.24548e-05
9.1062e-06
3.942e-05
9.10467e-06
3.63856e-05
9.1032e-06
3.33517e-05
9.10181e-06
3.03183e-05
9.10051e-06
2.72852e-05
9.0993e-06
2.42526e-05
9.09818e-06
2.12202e-05
9.09718e-06
1.81882e-05
9.09629e-06
1.51564e-05
9.09552e-06
1.21249e-05
9.09487e-06
9.09351e-06
9.09434e-06
6.06227e-06
9.09395e-06
3.03111e-06
9.09369e-06
9.09356e-06
3.69689e-06
-1.4788e-05
7.39381e-06
-1.47882e-05
1.10908e-05
-1.47884e-05
1.47879e-05
-1.47888e-05
1.84852e-05
-1.47893e-05
2.21826e-05
-1.479e-05
2.58802e-05
-1.47907e-05
2.9578e-05
-1.47915e-05
3.32761e-05
-1.47923e-05
3.69744e-05
-1.47932e-05
4.06729e-05
-1.4794e-05
4.43717e-05
-1.47949e-05
4.80707e-05
-1.47956e-05
5.17699e-05
-1.47963e-05
5.54693e-05
-1.47968e-05
5.91688e-05
-1.47971e-05
6.28683e-05
-1.47971e-05
6.65678e-05
-1.47969e-05
7.02673e-05
-1.47963e-05
7.39665e-05
-1.47954e-05
7.76655e-05
-1.47939e-05
8.1364e-05
-1.4792e-05
8.50619e-05
-1.47895e-05
8.87591e-05
-1.47863e-05
9.24554e-05
-1.47824e-05
9.61506e-05
-1.47777e-05
9.98445e-05
-1.47721e-05
0.000103537
-1.47655e-05
0.000107227
-1.47579e-05
0.000110916
-1.47492e-05
0.000114602
-1.47393e-05
0.000118285
-1.4728e-05
0.000121965
-1.47154e-05
0.000125642
-1.47012e-05
0.000129315
-1.46855e-05
0.000132983
-1.46681e-05
0.000136647
-1.46489e-05
0.000140306
-1.46277e-05
0.000143959
-1.46046e-05
0.000147606
-1.45793e-05
0.000151246
-1.45518e-05
0.000154878
-1.4522e-05
0.000158503
-1.44897e-05
0.000162119
-1.44549e-05
0.000165726
-1.44173e-05
0.000169323
-1.4377e-05
0.000172909
-1.43338e-05
0.000176483
-1.42875e-05
0.000180046
-1.4238e-05
0.000183595
-1.41853e-05
0.00018713
-1.41293e-05
0.000190651
-1.40697e-05
0.000194156
-1.40065e-05
0.000197644
-1.39396e-05
0.000201115
-1.38688e-05
0.000204567
-1.37941e-05
0.000207999
-1.37153e-05
0.000211411
-1.36324e-05
0.000214801
-1.35451e-05
0.000218168
-1.34536e-05
0.000221512
-1.33575e-05
0.00022483
-1.32569e-05
0.000228122
-1.31516e-05
0.000231387
-1.30416e-05
0.000234623
-1.29268e-05
0.000237829
-1.28071e-05
0.000241004
-1.26824e-05
0.000244146
-1.25527e-05
0.000247255
-1.24179e-05
0.000250329
-1.2278e-05
0.000253367
-1.21329e-05
0.000256367
-1.19825e-05
0.000259329
-1.18269e-05
0.00026225
-1.1666e-05
0.00026513
-1.14998e-05
0.000267966
-1.13283e-05
0.000270759
-1.11515e-05
0.000273506
-1.09694e-05
0.000276206
-1.0782e-05
0.000278858
-1.05893e-05
0.00028146
-1.03914e-05
0.000284012
-1.01883e-05
0.000286511
-9.98009e-06
0.000288957
-9.76677e-06
0.000291349
-9.54845e-06
0.000293684
-9.32519e-06
0.000295963
-9.09709e-06
0.000298183
-8.86423e-06
0.000300343
-8.62673e-06
0.000302443
-8.3847e-06
0.000304482
-8.13825e-06
0.000306457
-7.88753e-06
0.000308369
-7.63266e-06
0.000310216
-7.3738e-06
0.000311997
-7.1111e-06
0.000313711
-6.84472e-06
0.000315357
-6.57484e-06
0.000316936
-6.30161e-06
0.000318444
-6.02524e-06
0.000319883
-5.7459e-06
0.000321252
-5.4638e-06
0.000322548
-5.17912e-06
0.000323773
-4.89207e-06
0.000324926
-4.60287e-06
0.000326005
-4.31172e-06
0.000327011
-4.01883e-06
0.000327943
-3.72443e-06
0.000328802
-3.42873e-06
0.000329585
-3.13196e-06
0.000330294
-2.83434e-06
0.000330929
-2.53609e-06
0.000331488
-2.23743e-06
0.000331973
-1.93859e-06
0.000332383
-1.6398e-06
0.000332718
-1.34127e-06
0.000332978
-1.04322e-06
0.000333163
-7.45868e-07
0.000333275
-4.49431e-07
0.000333312
-1.54117e-07
0.000333276
1.39865e-07
0.000333166
4.32312e-07
0.000332984
7.23025e-07
0.000332729
1.01181e-06
0.000332402
1.29848e-06
0.000332005
1.58285e-06
0.000331536
1.86475e-06
0.000330998
2.144e-06
0.00033039
2.42043e-06
0.000329714
2.6939e-06
0.00032897
2.96424e-06
0.000328159
3.23132e-06
0.000327282
3.49499e-06
0.00032634
3.75513e-06
0.000325334
4.01161e-06
0.000324265
4.26433e-06
0.000323133
4.51316e-06
0.00032194
4.75802e-06
0.000320686
4.9988e-06
0.000319374
5.23543e-06
0.000318003
5.46782e-06
0.000316575
5.69591e-06
0.000315092
5.91963e-06
0.000313553
6.13893e-06
0.000311961
6.35376e-06
0.000310316
6.56408e-06
0.000308619
6.76985e-06
0.000306872
6.97105e-06
0.000305076
7.16765e-06
0.000303232
7.35964e-06
0.000301342
7.54701e-06
0.000299405
7.72977e-06
0.000297424
7.9079e-06
0.0002954
8.08142e-06
0.000293333
8.25035e-06
0.000291226
8.41471e-06
0.000289078
8.57451e-06
0.000286892
8.72979e-06
0.000284668
8.88058e-06
0.000282407
9.02692e-06
0.000280111
9.16885e-06
0.000277781
9.30642e-06
0.000275417
9.43967e-06
0.000273021
9.56866e-06
0.000270594
9.69344e-06
0.000268137
9.81407e-06
0.000265651
9.93062e-06
0.000263137
1.00431e-05
0.000260595
1.01517e-05
0.000258028
1.02564e-05
0.000255435
1.03572e-05
0.000252819
1.04543e-05
0.000250178
1.05477e-05
0.000247516
1.06375e-05
0.000244832
1.07238e-05
0.000242127
1.08067e-05
0.000239403
1.08861e-05
0.00023666
1.09623e-05
0.000233898
1.10352e-05
0.000231119
1.1105e-05
0.000228324
1.11718e-05
0.000225512
1.12355e-05
0.000222686
1.12964e-05
0.000219845
1.13544e-05
0.00021699
1.14097e-05
0.000214122
1.14623e-05
0.000211242
1.15123e-05
0.00020835
1.15598e-05
0.000205446
1.16049e-05
0.000202532
1.16476e-05
0.000199608
1.1688e-05
0.000196675
1.17262e-05
0.000193733
1.17623e-05
0.000190782
1.17963e-05
0.000187823
1.18283e-05
0.000184857
1.18584e-05
0.000181884
1.18867e-05
0.000178904
1.19131e-05
0.000175918
1.19379e-05
0.000172926
1.1961e-05
0.000169929
1.19825e-05
0.000166927
1.20026e-05
0.000163921
1.20211e-05
0.00016091
1.20383e-05
0.000157895
1.20541e-05
0.000154877
1.20687e-05
0.000151856
1.2082e-05
0.000148831
1.20942e-05
0.000145804
1.21053e-05
0.000142774
1.21154e-05
0.000139742
1.21244e-05
0.000136708
1.21325e-05
0.000133673
1.21398e-05
0.000130635
1.21461e-05
0.000127597
1.21517e-05
0.000124557
1.21566e-05
0.000121516
1.21607e-05
0.000118475
1.21642e-05
0.000115433
1.2167e-05
0.00011239
1.21693e-05
0.000109347
1.21711e-05
0.000106303
1.21723e-05
0.000103259
1.21731e-05
0.000100216
1.21735e-05
9.7172e-05
1.21735e-05
9.41284e-05
1.21732e-05
9.1085e-05
1.21725e-05
8.80419e-05
1.21716e-05
8.49991e-05
1.21704e-05
8.19567e-05
1.21689e-05
7.89147e-05
1.21673e-05
7.58732e-05
1.21655e-05
7.28322e-05
1.21636e-05
6.97917e-05
1.21616e-05
6.67518e-05
1.21594e-05
6.37125e-05
1.21572e-05
6.06737e-05
1.21549e-05
5.76355e-05
1.21527e-05
5.45979e-05
1.21504e-05
5.15609e-05
1.21481e-05
4.85245e-05
1.21459e-05
4.54886e-05
1.21437e-05
4.24533e-05
1.21415e-05
3.94185e-05
1.21395e-05
3.63843e-05
1.21375e-05
3.33505e-05
1.21356e-05
3.03171e-05
1.21339e-05
2.72842e-05
1.21322e-05
2.42516e-05
1.21307e-05
2.12194e-05
1.21294e-05
1.81875e-05
1.21282e-05
1.51558e-05
1.21272e-05
1.21244e-05
1.21263e-05
9.09312e-06
1.21256e-05
6.06201e-06
1.21251e-05
3.03098e-06
1.21247e-05
1.21245e-05
3.69675e-06
-1.84848e-05
7.39354e-06
-1.84849e-05
1.10904e-05
-1.84853e-05
1.47874e-05
-1.84858e-05
1.84845e-05
-1.84865e-05
2.21819e-05
-1.84873e-05
2.58794e-05
-1.84882e-05
2.95772e-05
-1.84893e-05
3.32752e-05
-1.84904e-05
3.69735e-05
-1.84915e-05
4.06721e-05
-1.84926e-05
4.4371e-05
-1.84937e-05
4.80701e-05
-1.84947e-05
5.17694e-05
-1.84956e-05
5.5469e-05
-1.84963e-05
5.91687e-05
-1.84968e-05
6.28685e-05
-1.8497e-05
6.65684e-05
-1.84968e-05
7.02682e-05
-1.84962e-05
7.3968e-05
-1.84951e-05
7.76674e-05
-1.84934e-05
8.13665e-05
-1.84911e-05
8.50651e-05
-1.84881e-05
8.87631e-05
-1.84842e-05
9.24602e-05
-1.84795e-05
9.61562e-05
-1.84737e-05
9.98511e-05
-1.84669e-05
0.000103544
-1.84588e-05
0.000107236
-1.84495e-05
0.000110926
-1.84388e-05
0.000114613
-1.84265e-05
0.000118297
-1.84127e-05
0.000121979
-1.8397e-05
0.000125657
-1.83795e-05
0.000129332
-1.83601e-05
0.000133002
-1.83385e-05
0.000136668
-1.83146e-05
0.000140329
-1.82884e-05
0.000143984
-1.82597e-05
0.000147633
-1.82283e-05
0.000151275
-1.81942e-05
0.00015491
-1.81571e-05
0.000158538
-1.8117e-05
0.000162157
-1.80736e-05
0.000165766
-1.80269e-05
0.000169366
-1.79767e-05
0.000172955
-1.79229e-05
0.000176533
-1.78653e-05
0.000180098
-1.78037e-05
0.000183651
-1.7738e-05
0.00018719
-1.76681e-05
0.000190714
-1.75939e-05
0.000194223
-1.75151e-05
0.000197715
-1.74317e-05
0.000201189
-1.73434e-05
0.000204646
-1.72502e-05
0.000208082
-1.71519e-05
0.000211498
-1.70485e-05
0.000214893
-1.69396e-05
0.000218265
-1.68253e-05
0.000221612
-1.67054e-05
0.000224935
-1.65798e-05
0.000228232
-1.64484e-05
0.000231502
-1.63111e-05
0.000234743
-1.61677e-05
0.000237954
-1.60182e-05
0.000241134
-1.58625e-05
0.000244281
-1.57004e-05
0.000247395
-1.5532e-05
0.000250475
-1.53572e-05
0.000253518
-1.51759e-05
0.000256523
-1.4988e-05
0.00025949
-1.47935e-05
0.000262416
-1.45925e-05
0.000265301
-1.43847e-05
0.000268143
-1.41704e-05
0.000270941
-1.39493e-05
0.000273693
-1.37217e-05
0.000276399
-1.34874e-05
0.000279056
-1.32464e-05
0.000281663
-1.2999e-05
0.00028422
-1.2745e-05
0.000286725
-1.24846e-05
0.000289176
-1.22179e-05
0.000291572
-1.19448e-05
0.000293912
-1.16656e-05
0.000296196
-1.13803e-05
0.00029842
-1.1089e-05
0.000300586
-1.07919e-05
0.00030269
-1.04891e-05
0.000304733
-1.01808e-05
0.000306712
-9.86717e-06
0.000308628
-9.54831e-06
0.000310478
-9.22445e-06
0.000312263
-8.89577e-06
0.000313981
-8.56248e-06
0.000315631
-8.22479e-06
0.000317212
-7.88292e-06
0.000318724
-7.5371e-06
0.000320166
-7.18757e-06
0.000321536
-6.83456e-06
0.000322836
-6.47834e-06
0.000324063
-6.11914e-06
0.000325217
-5.75724e-06
0.000326298
-5.39289e-06
0.000327306
-5.02638e-06
0.000328239
-4.65797e-06
0.000329099
-4.28793e-06
0.000329883
-3.91655e-06
0.000330593
-3.5441e-06
0.000331228
-3.17087e-06
0.000331787
-2.79713e-06
0.000332272
-2.42317e-06
0.000332681
-2.04926e-06
0.000333016
-1.67569e-06
0.000333275
-1.30272e-06
0.00033346
-9.30629e-07
0.00033357
-5.59687e-07
0.000333606
-1.90157e-07
0.000333569
1.77701e-07
0.000333457
5.43632e-07
0.000333273
9.07388e-07
0.000333016
1.26872e-06
0.000332687
1.62741e-06
0.000332287
1.9832e-06
0.000331816
2.33589e-06
0.000331274
2.68526e-06
0.000330664
3.0311e-06
0.000329984
3.37321e-06
0.000329237
3.71141e-06
0.000328423
4.04552e-06
0.000327543
4.37535e-06
0.000326597
4.70076e-06
0.000325587
5.02158e-06
0.000324514
5.33767e-06
0.000323378
5.6489e-06
0.000322181
5.95515e-06
0.000320923
6.25628e-06
0.000319606
6.55221e-06
0.000318231
6.84284e-06
0.000316799
7.12807e-06
0.000315311
7.40783e-06
0.000313768
7.68204e-06
0.000312171
7.95066e-06
0.000310522
8.21362e-06
0.000308821
8.47088e-06
0.000307069
8.72242e-06
0.000305269
8.9682e-06
0.00030342
9.2082e-06
0.000301525
9.44243e-06
0.000299584
9.67086e-06
0.000297598
9.89351e-06
0.000295569
1.01104e-05
0.000293498
1.03215e-05
0.000291386
1.05269e-05
0.000289234
1.07266e-05
0.000287043
1.09207e-05
0.000284814
1.11091e-05
0.000282549
1.12919e-05
0.000280249
1.14692e-05
0.000277914
1.16411e-05
0.000275546
1.18076e-05
0.000273146
1.19687e-05
0.000270715
1.21246e-05
0.000268254
1.22753e-05
0.000265764
1.24208e-05
0.000263245
1.25613e-05
0.0002607
1.26969e-05
0.000258129
1.28276e-05
0.000255533
1.29535e-05
0.000252912
1.30748e-05
0.000250268
1.31914e-05
0.000247602
1.33035e-05
0.000244915
1.34113e-05
0.000242207
1.35147e-05
0.000239479
1.36138e-05