/*--------------------------------*- C++ -*----------------------------------*\
| =========                 |                                                 |
| \\      /  F ield         | OpenFOAM: The Open Source CFD Toolbox           |
|  \\    /   O peration     | Version:  v2012                                 |
|   \\  /    A nd           | Website:  www.openfoam.com                      |
|    \\/     M anipulation  |                                                 |
\*---------------------------------------------------------------------------*/
FoamFile
{
    version     2.0;
    format      ascii;
    class       surfaceScalarField;
    location    "0.6";
    object      phi;
}
// * * * * * * * * * * * * * * * * * * * * * * * * * * * * * * * * * * * * * //

dimensions      [0 3 -1 0 0 0 0];
oriented        oriented;


internalField   nonuniform List<scalar> 
130560
(
3.34807e-06
-3.34807e-06
6.69591e-06
-3.34784e-06
1.00433e-05
-3.34739e-06
1.339e-05
-3.34671e-06
1.67358e-05
-3.34581e-06
2.00805e-05
-3.34467e-06
2.34238e-05
-3.34331e-06
2.67655e-05
-3.34171e-06
3.01054e-05
-3.33987e-06
3.34432e-05
-3.3378e-06
3.67787e-05
-3.33548e-06
4.01116e-05
-3.33291e-06
4.34417e-05
-3.33009e-06
4.67687e-05
-3.32701e-06
5.00924e-05
-3.32368e-06
5.34124e-05
-3.32007e-06
5.67286e-05
-3.31619e-06
6.00407e-05
-3.31204e-06
6.33483e-05
-3.30759e-06
6.66511e-05
-3.30286e-06
6.99489e-05
-3.29782e-06
7.32414e-05
-3.29248e-06
7.65282e-05
-3.28682e-06
7.98091e-05
-3.28084e-06
8.30836e-05
-3.27453e-06
8.63515e-05
-3.26788e-06
8.96124e-05
-3.26088e-06
9.28659e-05
-3.25353e-06
9.61117e-05
-3.24581e-06
9.93494e-05
-3.23772e-06
0.000102579
-3.22924e-06
0.000105799
-3.22037e-06
0.00010901
-3.21109e-06
0.000112212
-3.2014e-06
0.000115403
-3.19129e-06
0.000118584
-3.18075e-06
0.000121753
-3.16976e-06
0.000124912
-3.15832e-06
0.000128058
-3.14642e-06
0.000131192
-3.13405e-06
0.000134313
-3.1212e-06
0.000137421
-3.10785e-06
0.000140515
-3.09401e-06
0.000143595
-3.07965e-06
0.00014666
-3.06478e-06
0.000149709
-3.04937e-06
0.000152742
-3.03343e-06
0.000155759
-3.01694e-06
0.000158759
-2.9999e-06
0.000161742
-2.9823e-06
0.000164706
-2.96412e-06
0.000167651
-2.94537e-06
0.000170577
-2.92603e-06
0.000173483
-2.90609e-06
0.000176369
-2.88556e-06
0.000179233
-2.86443e-06
0.000182076
-2.84268e-06
0.000184896
-2.82032e-06
0.000187694
-2.79734e-06
0.000190467
-2.77373e-06
0.000193217
-2.74949e-06
0.000195941
-2.72463e-06
0.00019864
-2.69913e-06
0.000201313
-2.67299e-06
0.00020396
-2.64621e-06
0.000206578
-2.6188e-06
0.000209169
-2.59075e-06
0.000211731
-2.56205e-06
0.000214264
-2.53272e-06
0.000216767
-2.50276e-06
0.000219239
-2.47215e-06
0.00022168
-2.44092e-06
0.000224089
-2.40905e-06
0.000226465
-2.37657e-06
0.000228809
-2.34346e-06
0.000231119
-2.30973e-06
0.000233394
-2.2754e-06
0.000235634
-2.24046e-06
0.000237839
-2.20492e-06
0.000240008
-2.1688e-06
0.00024214
-2.13209e-06
0.000244235
-2.09481e-06
0.000246292
-2.05696e-06
0.000248311
-2.01856e-06
0.00025029
-1.97962e-06
0.00025223
-1.94014e-06
0.000254131
-1.90014e-06
0.00025599
-1.85963e-06
0.000257809
-1.81861e-06
0.000259586
-1.77711e-06
0.000261321
-1.73513e-06
0.000263014
-1.69269e-06
0.000264664
-1.64981e-06
0.00026627
-1.60648e-06
0.000267833
-1.56273e-06
0.000269351
-1.51858e-06
0.000270825
-1.47403e-06
0.000272254
-1.4291e-06
0.000273638
-1.3838e-06
0.000274976
-1.33815e-06
0.000276269
-1.29217e-06
0.000277514
-1.24586e-06
0.000278714
-1.19925e-06
0.000279866
-1.15235e-06
0.000280971
-1.10517e-06
0.000282029
-1.05772e-06
0.000283039
-1.01003e-06
0.000284001
-9.62109e-07
0.000284915
-9.13966e-07
0.000285781
-8.6562e-07
0.000286598
-8.17085e-07
0.000287366
-7.68374e-07
0.000288086
-7.19503e-07
0.000288756
-6.70486e-07
0.000289377
-6.21336e-07
0.000289949
-5.72066e-07
0.000290472
-5.22692e-07
0.000290945
-4.73226e-07
0.000291369
-4.23682e-07
0.000291743
-3.74072e-07
0.000292068
-3.2441e-07
0.000292342
-2.74709e-07
0.000292567
-2.24981e-07
0.000292742
-1.75238e-07
0.000292868
-1.25494e-07
0.000292944
-7.57607e-08
0.00029297
-2.60496e-08
0.000292946
2.36269e-08
0.000292873
7.32571e-08
0.00029275
1.22829e-07
0.000292578
1.72331e-07
0.000292356
2.21752e-07
0.000292085
2.7108e-07
0.000291765
3.20304e-07
0.000291395
3.69412e-07
0.000290977
4.18393e-07
0.00029051
4.67236e-07
0.000289994
5.15929e-07
0.000289429
5.64461e-07
0.000288816
6.12822e-07
0.000288155
6.60999e-07
0.000287446
7.08982e-07
0.00028669
7.5676e-07
0.000285885
8.04321e-07
0.000285034
8.51654e-07
0.000284135
8.98748e-07
0.000283189
9.45591e-07
0.000282197
9.92173e-07
0.000281159
1.03848e-06
0.000280074
1.08451e-06
0.000278944
1.13024e-06
0.000277768
1.17566e-06
0.000276547
1.22077e-06
0.000275282
1.26554e-06
0.000273972
1.30998e-06
0.000272618
1.35406e-06
0.00027122
1.39778e-06
0.000269779
1.44113e-06
0.000268295
1.4841e-06
0.000266768
1.52667e-06
0.000265199
1.56883e-06
0.000263589
1.61058e-06
0.000261937
1.6519e-06
0.000260244
1.69278e-06
0.000258511
1.73322e-06
0.000256738
1.7732e-06
0.000254925
1.81271e-06
0.000253073
1.85174e-06
0.000251183
1.89029e-06
0.000249255
1.92835e-06
0.000247289
1.9659e-06
0.000245286
2.00294e-06
0.000243246
2.03946e-06
0.000241171
2.07546e-06
0.00023906
2.11092e-06
0.000236914
2.14583e-06
0.000234734
2.1802e-06
0.00023252
2.21402e-06
0.000230273
2.24728e-06
0.000227993
2.27997e-06
0.000225681
2.31209e-06
0.000223337
2.34364e-06
0.000220962
2.37461e-06
0.000218557
2.40499e-06
0.000216123
2.4348e-06
0.000213658
2.46401e-06
0.000211166
2.49264e-06
0.000208645
2.52068e-06
0.000206097
2.54812e-06
0.000203522
2.57497e-06
0.000200921
2.60123e-06
0.000198294
2.6269e-06
0.000195642
2.65198e-06
0.000192965
2.67647e-06
0.000190265
2.70037e-06
0.000187541
2.72368e-06
0.000184795
2.74641e-06
0.000182026
2.76856e-06
0.000179236
2.79014e-06
0.000176425
2.81114e-06
0.000173594
2.83158e-06
0.000170742
2.85145e-06
0.000167871
2.87076e-06
0.000164982
2.88952e-06
0.000162074
2.90774e-06
0.000159149
2.92542e-06
0.000156206
2.94256e-06
0.000153247
2.95917e-06
0.000150272
2.97527e-06
0.000147281
2.99085e-06
0.000144275
3.00593e-06
0.000141254
3.02051e-06
0.00013822
3.0346e-06
0.000135172
3.0482e-06
0.00013211
3.06134e-06
0.000129036
3.07401e-06
0.00012595
3.08623e-06
0.000122852
3.09799e-06
0.000119743
3.10932e-06
0.000116623
3.12022e-06
0.000113492
3.13069e-06
0.000110351
3.14076e-06
0.000107201
3.15042e-06
0.000104041
3.15968e-06
0.000100872
3.16855e-06
9.76954e-05
3.17705e-06
9.45102e-05
3.18518e-06
9.13173e-05
3.19295e-06
8.81169e-05
3.20036e-06
8.49095e-05
3.20743e-06
8.16953e-05
3.21417e-06
7.84747e-05
3.22057e-06
7.52481e-05
3.22665e-06
7.20157e-05
3.23242e-06
6.87778e-05
3.23788e-06
6.55347e-05
3.24304e-06
6.22868e-05
3.24791e-06
5.90343e-05
3.2525e-06
5.57775e-05
3.2568e-06
5.25167e-05
3.26083e-06
4.92521e-05
3.26459e-06
4.5984e-05
3.26809e-06
4.27127e-05
3.27133e-06
3.94384e-05
3.27432e-06
3.61613e-05
3.27706e-06
3.28817e-05
3.27956e-06
2.95999e-05
3.28182e-06
2.63161e-05
3.28384e-06
2.30304e-05
3.28563e-06
1.97433e-05
3.28719e-06
1.64547e-05
3.28852e-06
1.31651e-05
3.28963e-06
9.8746e-06
3.29051e-06
6.58343e-06
3.29117e-06
3.29182e-06
3.29161e-06
3.29182e-06
3.34829e-06
-6.69636e-06
6.69635e-06
-6.6959e-06
1.0044e-05
-6.695e-06
1.33909e-05
-6.69365e-06
1.67369e-05
-6.69184e-06
2.00818e-05
-6.68958e-06
2.34254e-05
-6.68685e-06
2.67673e-05
-6.68365e-06
3.01074e-05
-6.67998e-06
3.34455e-05
-6.67583e-06
3.67812e-05
-6.6712e-06
4.01143e-05
-6.66607e-06
4.34447e-05
-6.66043e-06
4.67719e-05
-6.65429e-06
5.00959e-05
-6.64762e-06
5.34162e-05
-6.64041e-06
5.67327e-05
-6.63266e-06
6.0045e-05
-6.62435e-06
6.33529e-05
-6.61547e-06
6.6656e-05
-6.60601e-06
6.99542e-05
-6.59595e-06
7.3247e-05
-6.58527e-06
7.65341e-05
-6.57396e-06
7.98153e-05
-6.56201e-06
8.30901e-05
-6.5494e-06
8.63584e-05
-6.53611e-06
8.96196e-05
-6.52212e-06
9.28735e-05
-6.50742e-06
9.61197e-05
-6.49199e-06
9.93578e-05
-6.47581e-06
0.000102587
-6.45887e-06
0.000105808
-6.44113e-06
0.00010902
-6.42259e-06
0.000112221
-6.40322e-06
0.000115413
-6.38301e-06
0.000118594
-6.36194e-06
0.000121765
-6.33997e-06
0.000124923
-6.31711e-06
0.00012807
-6.29332e-06
0.000131205
-6.26858e-06
0.000134327
-6.24289e-06
0.000137435
-6.21621e-06
0.000140529
-6.18853e-06
0.00014361
-6.15982e-06
0.000146675
-6.13008e-06
0.000149725
-6.09928e-06
0.000152759
-6.06741e-06
0.000155776
-6.03444e-06
0.000158777
-6.00037e-06
0.00016176
-5.96516e-06
0.000164724
-5.92882e-06
0.00016767
-5.89132e-06
0.000170597
-5.85264e-06
0.000173504
-5.81279e-06
0.00017639
-5.77173e-06
0.000179255
-5.72946e-06
0.000182098
-5.68598e-06
0.000184919
-5.64126e-06
0.000187717
-5.5953e-06
0.000190491
-5.54809e-06
0.000193241
-5.49962e-06
0.000195967
-5.44989e-06
0.000198666
-5.39889e-06
0.00020134
-5.34661e-06
0.000203987
-5.29307e-06
0.000206606
-5.23824e-06
0.000209198
-5.18213e-06
0.00021176
-5.12475e-06
0.000214294
-5.06608e-06
0.000216797
-5.00615e-06
0.00021927
-4.94494e-06
0.000221712
-4.88247e-06
0.000224121
-4.81874e-06
0.000226498
-4.75375e-06
0.000228842
-4.68753e-06
0.000231153
-4.62007e-06
0.000233429
-4.5514e-06
0.00023567
-4.48151e-06
0.000237875
-4.41043e-06
0.000240045
-4.33817e-06
0.000242177
-4.26475e-06
0.000244273
-4.19018e-06
0.00024633
-4.11448e-06
0.000248349
-4.03767e-06
0.00025033
-3.95978e-06
0.00025227
-3.88081e-06
0.000254171
-3.80079e-06
0.000256031
-3.71976e-06
0.00025785
-3.63772e-06
0.000259628
-3.5547e-06
0.000261363
-3.47073e-06
0.000263056
-3.38584e-06
0.000264707
-3.30005e-06
0.000266314
-3.21339e-06
0.000267877
-3.12588e-06
0.000269396
-3.03755e-06
0.00027087
-2.94844e-06
0.0002723
-2.85856e-06
0.000273684
-2.76796e-06
0.000275022
-2.67665e-06
0.000276315
-2.58467e-06
0.000277561
-2.49204e-06
0.00027876
-2.3988e-06
0.000279913
-2.30498e-06
0.000281019
-2.2106e-06
0.000282077
-2.1157e-06
0.000283087
-2.0203e-06
0.000284049
-1.92444e-06
0.000284963
-1.82814e-06
0.000285829
-1.73143e-06
0.000286646
-1.63435e-06
0.000287415
-1.53691e-06
0.000288135
-1.43916e-06
0.000288805
-1.34111e-06
0.000289427
-1.24279e-06
0.000289999
-1.14424e-06
0.000290522
-1.04548e-06
0.000290995
-9.46535e-07
0.000291419
-8.47433e-07
0.000291793
-7.48201e-07
0.000292117
-6.48864e-07
0.000292392
-5.49449e-07
0.000292617
-4.4998e-07
0.000292792
-3.50483e-07
0.000292918
-2.50983e-07
0.000292993
-1.51504e-07
0.000293019
-5.20694e-08
0.000292996
4.72957e-08
0.000292923
1.46568e-07
0.0002928
2.45724e-07
0.000292627
3.4474e-07
0.000292405
4.43593e-07
0.000292134
5.4226e-07
0.000291814
6.40719e-07
0.000291444
7.38946e-07
0.000291026
8.36919e-07
0.000290558
9.34616e-07
0.000290042
1.03201e-06
0.000289478
1.12909e-06
0.000288865
1.22582e-06
0.000288203
1.32219e-06
0.000287494
1.41817e-06
0.000286737
1.51373e-06
0.000285933
1.60887e-06
0.000285081
1.70354e-06
0.000284182
1.79774e-06
0.000283236
1.89144e-06
0.000282244
1.98462e-06
0.000281205
2.07724e-06
0.00028012
2.16931e-06
0.000278989
2.26078e-06
0.000277813
2.35163e-06
0.000276592
2.44186e-06
0.000275327
2.53142e-06
0.000274016
2.6203e-06
0.000272662
2.70848e-06
0.000271264
2.79594e-06
0.000269822
2.88265e-06
0.000268338
2.96859e-06
0.000266811
3.05374e-06
0.000265241
3.13808e-06
0.00026363
3.22158e-06
0.000261978
3.30423e-06
0.000260285
3.38601e-06
0.000258551
3.46689e-06
0.000256777
3.54686e-06
0.000254964
3.62589e-06
0.000253112
3.70397e-06
0.000251221
3.78108e-06
0.000249292
3.8572e-06
0.000247326
3.93231e-06
0.000245322
4.0064e-06
0.000243282
4.07945e-06
0.000241206
4.15145e-06
0.000239095
4.22237e-06
0.000236949
4.29221e-06
0.000234768
4.36096e-06
0.000232553
4.4286e-06
0.000230305
4.49512e-06
0.000228025
4.56051e-06
0.000225712
4.62475e-06
0.000223368
4.68785e-06
0.000220993
4.7498e-06
0.000218587
4.81057e-06
0.000216152
4.87018e-06
0.000213687
4.92862e-06
0.000211194
4.98587e-06
0.000208673
5.04195e-06
0.000206124
5.09684e-06
0.000203549
5.15054e-06
0.000200947
5.20306e-06
0.000198319
5.2544e-06
0.000195667
5.30455e-06
0.00019299
5.35352e-06
0.000190289
5.40132e-06
0.000187564
5.44794e-06
0.000184817
5.4934e-06
0.000182048
5.5377e-06
0.000179258
5.58085e-06
0.000176446
5.62285e-06
0.000173614
5.66372e-06
0.000170762
5.70346e-06
0.00016789
5.74208e-06
0.000165
5.7796e-06
0.000162092
5.81602e-06
0.000159166
5.85137e-06
0.000156223
5.88564e-06
0.000153263
5.91887e-06
0.000150287
5.95105e-06
0.000147296
5.98221e-06
0.00014429
6.01235e-06
0.000141269
6.0415e-06
0.000138234
6.06968e-06
0.000135185
6.09688e-06
0.000132123
6.12315e-06
0.000129049
6.14848e-06
0.000125962
6.1729e-06
0.000122864
6.19643e-06
0.000119754
6.21907e-06
0.000116633
6.24086e-06
0.000113502
6.2618e-06
0.000110361
6.28192e-06
0.00010721
6.30123e-06
0.00010405
6.31975e-06
0.000100881
6.33749e-06
9.77036e-05
6.35448e-06
9.45181e-05
6.37073e-06
9.13248e-05
6.38625e-06
8.81241e-05
6.40107e-06
8.49163e-05
6.41521e-06
8.17018e-05
6.42866e-06
7.84809e-05
6.44146e-06
7.52539e-05
6.45362e-06
7.20212e-05
6.46515e-06
6.8783e-05
6.47607e-06
6.55397e-05
6.48638e-06
6.22915e-05
6.49612e-06
5.90387e-05
6.50528e-06
5.57816e-05
6.51388e-06
5.25205e-05
6.52193e-06
4.92557e-05
6.52945e-06
4.59873e-05
6.53644e-06
4.27157e-05
6.54292e-06
3.94411e-05
6.5489e-06
3.61638e-05
6.55438e-06
3.2884e-05
6.55937e-06
2.9602e-05
6.56388e-06
2.63179e-05
6.56792e-06
2.3032e-05
6.57149e-06
1.97446e-05
6.57461e-06
1.64559e-05
6.57727e-06
1.3166e-05
6.57948e-06
9.87527e-06
6.58125e-06
6.58387e-06
6.58256e-06
3.29205e-06
6.58343e-06
6.58387e-06
3.34874e-06
-1.00451e-05
6.69726e-06
-1.00444e-05
1.00453e-05
-1.00431e-05
1.33927e-05
-1.0041e-05
1.67392e-05
-1.00383e-05
2.00846e-05
-1.00349e-05
2.34286e-05
-1.00309e-05
2.6771e-05
-1.00261e-05
3.01116e-05
-1.00206e-05
3.34501e-05
-1.00144e-05
3.67863e-05
-1.00074e-05
4.012e-05
-9.99973e-06
4.34509e-05
-9.99129e-06
4.67787e-05
-9.98208e-06
5.01031e-05
-9.97209e-06
5.3424e-05
-9.9613e-06
5.6741e-05
-9.94969e-06
6.00539e-05
-9.93724e-06
6.33624e-05
-9.92394e-06
6.66662e-05
-9.90976e-06
6.99649e-05
-9.89469e-06
7.32583e-05
-9.87869e-06
7.65461e-05
-9.86175e-06
7.98279e-05
-9.84384e-06
8.31035e-05
-9.82495e-06
8.63724e-05
-9.80503e-06
8.96344e-05
-9.78408e-06
9.2889e-05
-9.76205e-06
9.61359e-05
-9.73893e-06
9.93748e-05
-9.71468e-06
0.000102605
-9.68928e-06
0.000105827
-9.66271e-06
0.000109039
-9.63492e-06
0.000112242
-9.60589e-06
0.000115434
-9.5756e-06
0.000118616
-9.54401e-06
0.000121788
-9.51109e-06
0.000124947
-9.47682e-06
0.000128095
-9.44116e-06
0.000131231
-9.40408e-06
0.000134353
-9.36556e-06
0.000137463
-9.32556e-06
0.000140558
-9.28406e-06
0.000143639
-9.24103e-06
0.000146706
-9.19644e-06
0.000149757
-9.15027e-06
0.000152792
-9.10248e-06
0.00015581
-9.05305e-06
0.000158812
-9.00196e-06
0.000161796
-8.94917e-06
0.000164762
-8.89467e-06
0.000167709
-8.83844e-06
0.000170637
-8.78045e-06
0.000173545
-8.72068e-06
0.000176432
-8.65911e-06
0.000179298
-8.59572e-06
0.000182143
-8.5305e-06
0.000184965
-8.46344e-06
0.000187764
-8.39451e-06
0.00019054
-8.3237e-06
0.000193291
-8.25101e-06
0.000196018
-8.17642e-06
0.000198719
-8.09992e-06
0.000201394
-8.02152e-06
0.000204042
-7.9412e-06
0.000206663
-7.85896e-06
0.000209255
-7.77479e-06
0.000211819
-7.68871e-06
0.000214354
-7.60072e-06
0.000216858
-7.51081e-06
0.000219333
-7.41899e-06
0.000221775
-7.32527e-06
0.000224186
-7.22967e-06
0.000226565
-7.13218e-06
0.00022891
-7.03283e-06
0.000231222
-6.93164e-06
0.000233499
-6.82861e-06
0.000235741
-6.72376e-06
0.000237948
-6.61712e-06
0.000240118
-6.50872e-06
0.000242252
-6.39856e-06
0.000244349
-6.28668e-06
0.000246407
-6.17311e-06
0.000248427
-6.05787e-06
0.000250409
-5.941e-06
0.00025235
-5.82252e-06
0.000254252
-5.70247e-06
0.000256113
-5.58088e-06
0.000257933
-5.45779e-06
0.000259712
-5.33324e-06
0.000261448
-5.20726e-06
0.000263142
-5.07989e-06
0.000264793
-4.95117e-06
0.000266401
-4.82114e-06
0.000267965
-4.68984e-06
0.000269485
-4.55731e-06
0.00027096
-4.42361e-06
0.00027239
-4.28876e-06
0.000273775
-4.15281e-06
0.000275114
-4.01581e-06
0.000276407
-3.8778e-06
0.000277654
-3.73883e-06
0.000278854
-3.59893e-06
0.000280008
-3.45816e-06
0.000281113
-3.31656e-06
0.000282172
-3.17417e-06
0.000283183
-3.03104e-06
0.000284145
-2.88721e-06
0.00028506
-2.74272e-06
0.000285926
-2.59762e-06
0.000286744
-2.45196e-06
0.000287513
-2.30577e-06
0.000288233
-2.1591e-06
0.000288904
-2.01199e-06
0.000289525
-1.86449e-06
0.000290098
-1.71663e-06
0.000290621
-1.56845e-06
0.000291094
-1.42e-06
0.000291518
-1.27131e-06
0.000291892
-1.12243e-06
0.000292217
-9.73395e-07
0.000292491
-8.2424e-07
0.000292717
-6.75006e-07
0.000292892
-5.2573e-07
0.000293017
-3.76448e-07
0.000293093
-2.27199e-07
0.000293119
-7.80179e-08
0.000293095
7.10594e-08
0.000293022
2.19997e-07
0.000292899
3.6876e-07
0.000292726
5.17313e-07
0.000292504
6.65621e-07
0.000292233
8.13651e-07
0.000291912
9.61367e-07
0.000291542
1.10874e-06
0.000291123
1.25572e-06
0.000290656
1.4023e-06
0.000290139
1.54842e-06
0.000289574
1.69406e-06
0.000288961
1.83919e-06
0.000288299
1.98377e-06
0.00028759
2.12776e-06
0.000286832
2.27114e-06
0.000286027
2.41387e-06
0.000285175
2.55591e-06
0.000284276
2.69724e-06
0.000283329
2.83781e-06
0.000282336
2.97761e-06
0.000281297
3.11658e-06
0.000280211
3.2547e-06
0.00027908
3.39193e-06
0.000277904
3.52825e-06
0.000276682
3.66361e-06
0.000275415
3.79798e-06
0.000274104
3.93133e-06
0.000272749
4.06363e-06
0.00027135
4.19484e-06
0.000269908
4.32493e-06
0.000268423
4.45387e-06
0.000266895
4.58162e-06
0.000265325
4.70816e-06
0.000263713
4.83344e-06
0.00026206
4.95744e-06
0.000260366
5.08013e-06
0.000258631
5.20148e-06
0.000256856
5.32145e-06
0.000255042
5.44003e-06
0.000253189
5.55717e-06
0.000251297
5.67286e-06
0.000249367
5.78706e-06
0.0002474
5.89975e-06
0.000245395
6.0109e-06
0.000243354
6.12049e-06
0.000241277
6.2285e-06
0.000239165
6.33491e-06
0.000237017
6.43969e-06
0.000234835
6.54283e-06
0.00023262
6.6443e-06
0.000230371
6.74409e-06
0.000228089
6.84218e-06
0.000225775
6.93857e-06
0.00022343
7.03323e-06
0.000221054
7.12615e-06
0.000218647
7.21732e-06
0.00021621
7.30674e-06
0.000213744
7.3944e-06
0.00021125
7.48029e-06
0.000208728
7.5644e-06
0.000206178
7.64674e-06
0.000203601
7.72729e-06
0.000200998
7.80607e-06
0.000198369
7.88307e-06
0.000195716
7.9583e-06
0.000193037
8.03175e-06
0.000190335
8.10344e-06
0.00018761
8.17338e-06
0.000184862
8.24156e-06
0.000182091
8.30799e-06
0.000179299
8.3727e-06
0.000176487
8.4357e-06
0.000173653
8.49698e-06
0.0001708
8.55658e-06
0.000167928
8.6145e-06
0.000165037
8.67076e-06
0.000162127
8.72539e-06
0.0001592
8.77839e-06
0.000156256
8.82978e-06
0.000153295
8.8796e-06
0.000150319
8.92786e-06
0.000147326
8.97457e-06
0.000144319
9.01977e-06
0.000141297
9.06348e-06
0.000138261
9.10572e-06
0.000135211
9.14651e-06
0.000132148
9.18588e-06
0.000129073
9.22386e-06
0.000125985
9.26047e-06
0.000122886
9.29574e-06
0.000119776
9.32969e-06
0.000116654
9.36234e-06
0.000113522
9.39374e-06
0.00011038
9.42389e-06
0.000107229
9.45283e-06
0.000104068
9.48059e-06
0.000100898
9.50718e-06
9.77198e-05
9.53264e-06
9.45336e-05
9.557e-06
9.13396e-05
9.58026e-06
8.81382e-05
9.60247e-06
8.49297e-05
9.62365e-06
8.17146e-05
9.64382e-06
7.8493e-05
9.663e-06
7.52654e-05
9.68121e-06
7.20321e-05
9.69849e-06
6.87933e-05
9.71485e-06
6.55494e-05
9.73031e-06
6.23006e-05
9.74489e-06
5.90473e-05
9.75861e-06
5.57897e-05
9.7715e-06
5.2528e-05
9.78357e-06
4.92626e-05
9.79483e-06
4.59938e-05
9.80531e-06
4.27217e-05
9.81501e-06
3.94466e-05
9.82396e-06
3.61688e-05
9.83217e-06
3.28885e-05
9.83965e-06
2.9606e-05
9.84641e-06
2.63215e-05
9.85246e-06
2.30351e-05
9.85782e-06
1.97473e-05
9.86248e-06
1.64581e-05
9.86647e-06
1.31678e-05
9.86978e-06
9.87659e-06
9.87242e-06
6.58475e-06
9.8744e-06
3.29248e-06
9.8757e-06
9.87635e-06
3.34942e-06
-1.33945e-05
6.69861e-06
-1.33936e-05
1.00474e-05
-1.33918e-05
1.33954e-05
-1.33891e-05
1.67426e-05
-1.33855e-05
2.00887e-05
-1.3381e-05
2.34334e-05
-1.33756e-05
2.67765e-05
-1.33692e-05
3.01178e-05
-1.33619e-05
3.34571e-05
-1.33536e-05
3.67941e-05
-1.33444e-05
4.01285e-05
-1.33342e-05
4.34601e-05
-1.33229e-05
4.67887e-05
-1.33107e-05
5.0114e-05
-1.32974e-05
5.34357e-05
-1.3283e-05
5.67536e-05
-1.32676e-05
6.00673e-05
-1.3251e-05
6.33766e-05
-1.32333e-05
6.66813e-05
-1.32144e-05
6.9981e-05
-1.31943e-05
7.32753e-05
-1.31731e-05
7.65641e-05
-1.31505e-05
7.98469e-05
-1.31267e-05
8.31235e-05
-1.31015e-05
8.63934e-05
-1.3075e-05
8.96565e-05
-1.30471e-05
9.29122e-05
-1.30178e-05
9.61603e-05
-1.2987e-05
9.94003e-05
-1.29547e-05
0.000102632
-1.29209e-05
0.000105855
-1.28855e-05
0.000109068
-1.28485e-05
0.000112272
-1.28098e-05
0.000115466
-1.27695e-05
0.000118649
-1.27274e-05
0.000121822
-1.26836e-05
0.000124983
-1.26379e-05
0.000128132
-1.25904e-05
0.000131269
-1.2541e-05
0.000134393
-1.24897e-05
0.000137504
-1.24364e-05
0.000140601
-1.23811e-05
0.000143684
-1.23238e-05
0.000146752
-1.22644e-05
0.000149805
-1.22029e-05
0.000152841
-1.21392e-05
0.000155862
-1.20733e-05
0.000158865
-1.20052e-05
0.000161851
-1.19349e-05
0.000164818
-1.18623e-05
0.000167767
-1.17873e-05
0.000170697
-1.171e-05
0.000173606
-1.16304e-05
0.000176496
-1.15483e-05
0.000179364
-1.14638e-05
0.00018221
-1.13769e-05
0.000185034
-1.12875e-05
0.000187835
-1.11956e-05
0.000190613
-1.11012e-05
0.000193366
-1.10043e-05
0.000196094
-1.09049e-05
0.000198797
-1.08029e-05
0.000201474
-1.06983e-05
0.000204124
-1.05912e-05
0.000206747
-1.04816e-05
0.000209341
-1.03694e-05
0.000211907
-1.02546e-05
0.000214444
-1.01373e-05
0.00021695
-1.00174e-05
0.000219426
-9.89494e-06
0.000221871
-9.76997e-06
0.000224284
-9.64248e-06
0.000226664
-9.51248e-06
0.000229011
-9.37999e-06
0.000231325
-9.24503e-06
0.000233604
-9.10763e-06
0.000235848
-8.9678e-06
0.000238056
-8.82559e-06
0.000240229
-8.681e-06
0.000242364
-8.53409e-06
0.000244462
-8.38488e-06
0.000246523
-8.2334e-06
0.000248544
-8.07971e-06
0.000250527
-7.92383e-06
0.00025247
-7.7658e-06
0.000254374
-7.60568e-06
0.000256236
-7.44351e-06
0.000258058
-7.27934e-06
0.000259838
-7.11321e-06
0.000261576
-6.94517e-06
0.000263271
-6.77528e-06
0.000264924
-6.60359e-06
0.000266533
-6.43015e-06
0.000268098
-6.25502e-06
0.000269619
-6.07826e-06
0.000271095
-5.89991e-06
0.000272526
-5.72005e-06
0.000273912
-5.53872e-06
0.000275252
-5.35598e-06
0.000276546
-5.1719e-06
0.000277794
-4.98653e-06
0.000278995
-4.79994e-06
0.000280149
-4.61217e-06
0.000281256
-4.4233e-06
0.000282315
-4.23338e-06
0.000283327
-4.04247e-06
0.00028429
-3.85062e-06
0.000285205
-3.65791e-06
0.000286072
-3.46438e-06
0.00028689
-3.27009e-06
0.000287659
-3.07511e-06
0.00028838
-2.87948e-06
0.000289051
-2.68328e-06
0.000289673
-2.48654e-06
0.000290246
-2.28932e-06
0.000290769
-2.09169e-06
0.000291243
-1.89369e-06
0.000291667
-1.69538e-06
0.000292041
-1.49682e-06
0.000292366
-1.29804e-06
0.000292641
-1.09911e-06
0.000292866
-9.00071e-07
0.000293041
-7.00978e-07
0.000293166
-5.01879e-07
0.000293242
-3.02823e-07
0.000293268
-1.03859e-07
0.000293244
9.49657e-08
0.00029317
2.93604e-07
0.000293047
4.92009e-07
0.000292874
6.90133e-07
0.000292652
8.87932e-07
0.00029238
1.08536e-06
0.000292059
1.28237e-06
0.000291689
1.47891e-06
0.00029127
1.67495e-06
0.000290802
1.87043e-06
0.000290285
2.06532e-06
0.000289719
2.25956e-06
0.000289106
2.45311e-06
0.000288443
2.64593e-06
0.000287733
2.83798e-06
0.000286975
3.0292e-06
0.000286169
3.21956e-06
0.000285316
3.409e-06
0.000284416
3.59749e-06
0.000283469
3.78498e-06
0.000282475
3.97142e-06
0.000281435
4.15676e-06
0.000280349
4.34098e-06
0.000279217
4.52401e-06
0.000278039
4.70581e-06
0.000276816
4.88635e-06
0.000275549
5.06556e-06
0.000274237
5.24342e-06
0.00027288
5.41987e-06
0.00027148
5.59487e-06
0.000270037
5.76838e-06
0.00026855
5.94034e-06
0.000267021
6.11073e-06
0.00026545
6.27949e-06
0.000263837
6.44658e-06
0.000262182
6.61197e-06
0.000260487
6.7756e-06
0.000258751
6.93744e-06
0.000256975
7.09745e-06
0.000255159
7.2556e-06
0.000253305
7.41183e-06
0.000251411
7.56612e-06
0.00024948
7.71843e-06
0.000247511
7.86872e-06
0.000245505
8.01696e-06
0.000243462
8.16312e-06
0.000241384
8.30717e-06
0.000239269
8.44908e-06
0.00023712
8.58882e-06
0.000234937
8.72636e-06
0.000232719
8.86168e-06
0.000230469
8.99476e-06
0.000228185
9.12557e-06
0.00022587
9.25411e-06
0.000223523
9.38033e-06
0.000221145
9.50425e-06
0.000218736
9.62583e-06
0.000216298
9.74507e-06
0.00021383
9.86195e-06
0.000211334
9.97647e-06
0.00020881
1.00886e-05
0.000206258
1.01984e-05
0.00020368
1.03058e-05
0.000201075
1.04109e-05
0.000198444
1.05135e-05
0.000195789
1.06138e-05
0.000193109
1.07118e-05
0.000190405
1.08073e-05
0.000187678
1.09006e-05
0.000184928
1.09914e-05
0.000182156
1.108e-05
0.000179362
1.11663e-05
0.000176548
1.12502e-05
0.000173713
1.13319e-05
0.000170858
1.14114e-05
0.000167984
1.14886e-05
0.000165091
1.15636e-05
0.00016218
1.16364e-05
0.000159252
1.1707e-05
0.000156306
1.17755e-05
0.000153344
1.18419e-05
0.000150365
1.19062e-05
0.000147371
1.19685e-05
0.000144362
1.20287e-05
0.000141339
1.20869e-05
0.000138301
1.21432e-05
0.00013525
1.21976e-05
0.000132186
1.225e-05
0.00012911
1.23006e-05
0.000126021
1.23494e-05
0.00012292
1.23964e-05
0.000119808
1.24416e-05
0.000116685
1.24851e-05
0.000113552
1.25269e-05
0.000110409
1.25671e-05
0.000107256
1.26056e-05
0.000104094
1.26426e-05
0.000100923
1.2678e-05
9.77441e-05
1.27119e-05
9.45568e-05
1.27443e-05
9.13617e-05
1.27753e-05
8.81593e-05
1.28049e-05
8.49498e-05
1.28331e-05
8.17337e-05
1.286e-05
7.85112e-05
1.28855e-05
7.52827e-05
1.29097e-05
7.20484e-05
1.29327e-05
6.88087e-05
1.29545e-05
6.55639e-05
1.29751e-05
6.23143e-05
1.29945e-05
5.90601e-05
1.30128e-05
5.58017e-05
1.30299e-05
5.25392e-05
1.3046e-05
4.92731e-05
1.3061e-05
4.60034e-05
1.30749e-05
4.27306e-05
1.30879e-05
3.94548e-05
1.30998e-05
3.61763e-05
1.31107e-05
3.28953e-05
1.31206e-05
2.9612e-05
1.31296e-05
2.63268e-05
1.31377e-05
2.30398e-05
1.31448e-05
1.97512e-05
1.3151e-05
1.64614e-05
1.31563e-05
1.31704e-05
1.31607e-05
9.87856e-06
1.31643e-05
6.58607e-06
1.31669e-05
3.29314e-06
1.31686e-05
1.31695e-05
3.35032e-06
-1.67448e-05
6.70042e-06
-1.67437e-05
1.00501e-05
-1.67415e-05
1.33991e-05
-1.67381e-05
1.67472e-05
-1.67336e-05
2.00941e-05
-1.6728e-05
2.34398e-05
-1.67212e-05
2.67839e-05
-1.67133e-05
3.01261e-05
-1.67042e-05
3.34664e-05
-1.66938e-05
3.68043e-05
-1.66823e-05
4.01398e-05
-1.66696e-05
4.34724e-05
-1.66556e-05
4.6802e-05
-1.66403e-05
5.01284e-05
-1.66237e-05
5.34512e-05
-1.66058e-05
5.67702e-05
-1.65865e-05
6.00851e-05
-1.65659e-05
6.33956e-05
-1.65438e-05
6.67014e-05
-1.65203e-05
7.00023e-05
-1.64952e-05
7.3298e-05
-1.64687e-05
7.6588e-05
-1.64406e-05
7.98722e-05
-1.64108e-05
8.31501e-05
-1.63794e-05
8.64214e-05
-1.63464e-05
8.96859e-05
-1.63116e-05
9.29431e-05
-1.6275e-05
9.61926e-05
-1.62365e-05
9.94342e-05
-1.61963e-05
0.000102667
-1.61541e-05
0.000105892
-1.61099e-05
0.000109107
-1.60637e-05
0.000112313
-1.60155e-05
0.000115508
-1.59651e-05
0.000118693
-1.59126e-05
0.000121868
-1.58579e-05
0.000125031
-1.58009e-05
0.000128182
-1.57416e-05
0.000131321
-1.56799e-05
0.000134447
-1.56158e-05
0.00013756
-1.55493e-05
0.000140659
-1.54803e-05
0.000143744
-1.54087e-05
0.000146814
-1.53345e-05
0.000149868
-1.52576e-05
0.000152907
-1.51781e-05
0.00015593
-1.50958e-05
0.000158935
-1.50108e-05
0.000161923
-1.49229e-05
0.000164893
-1.48322e-05
0.000167845
-1.47385e-05
0.000170776
-1.4642e-05
0.000173689
-1.45425e-05
0.00017658
-1.44399e-05
0.000179451
-1.43344e-05
0.0001823
-1.42257e-05
0.000185126
-1.4114e-05
0.00018793
-1.39992e-05
0.00019071
-1.38812e-05
0.000193466
-1.37601e-05
0.000196197
-1.36358e-05
0.000198902
-1.35084e-05
0.000201581
-1.33777e-05
0.000204234
-1.32439e-05
0.000206859
-1.31068e-05
0.000209456
-1.29665e-05
0.000212025
-1.2823e-05
0.000214564
-1.26764e-05
0.000217073
-1.25265e-05
0.000219551
-1.23734e-05
0.000221999
-1.22172e-05
0.000224414
-1.20578e-05
0.000226797
-1.18953e-05
0.000229146
-1.17296e-05
0.000231462
-1.15609e-05
0.000233744
-1.13891e-05
0.00023599
-1.12142e-05
0.000238201
-1.10364e-05
0.000240376
-1.08556e-05
0.000242513
-1.06719e-05
0.000244614
-1.04853e-05
0.000246676
-1.02959e-05
0.0002487
-1.01037e-05
0.000250685
-9.90879e-06
0.000252631
-9.71118e-06
0.000254536
-9.51095e-06
0.000256401
-9.30814e-06
0.000258224
-9.10283e-06
0.000260006
-8.89507e-06
0.000261746
-8.68493e-06
0.000263443
-8.47247e-06
0.000265097
-8.25776e-06
0.000266708
-8.04086e-06
0.000268275
-7.82184e-06
0.000269797
-7.60078e-06
0.000271275
-7.37774e-06
0.000272708
-7.1528e-06
0.000274095
-6.92603e-06
0.000275437
-6.6975e-06
0.000276732
-6.46729e-06
0.000277981
-6.23546e-06
0.000279183
-6.00211e-06
0.000280338
-5.76729e-06
0.000281446
-5.53109e-06
0.000282506
-5.29358e-06
0.000283518
-5.05482e-06
0.000284483
-4.81491e-06
0.000285399
-4.57391e-06
0.000286266
-4.33189e-06
0.000287085
-4.08892e-06
0.000287855
-3.84509e-06
0.000288576
-3.60045e-06
0.000289248
-3.35508e-06
0.00028987
-3.10905e-06
0.000290443
-2.86244e-06
0.000290967
-2.61529e-06
0.000291441
-2.3677e-06
0.000291865
-2.11971e-06
0.00029224
-1.8714e-06
0.000292565
-1.62284e-06
0.00029284
-1.37408e-06
0.000293065
-1.12519e-06
0.00029324
-8.76229e-07
0.000293366
-6.27263e-07
0.000293441
-3.78353e-07
0.000293467
-1.29558e-07
0.000293443
1.19062e-07
0.000293369
3.67448e-07
0.000293245
6.15541e-07
0.000293072
8.63283e-07
0.000292849
1.11062e-06
0.000292577
1.35749e-06
0.000292256
1.60383e-06
0.000291885
1.8496e-06
0.000291465
2.09473e-06
0.000290997
2.33917e-06
0.000290479
2.58286e-06
0.000289913
2.82574e-06
0.000289298
3.06777e-06
0.000288635
3.30888e-06
0.000287924
3.54902e-06
0.000287165
3.78813e-06
0.000286359
4.02616e-06
0.000285505
4.26305e-06
0.000284603
4.49874e-06
0.000283655
4.73319e-06
0.00028266
4.96632e-06
0.000281619
5.19809e-06
0.000280532
5.42844e-06
0.000279398
5.65731e-06
0.000278219
5.88465e-06
0.000276995
6.11041e-06
0.000275726
6.33451e-06
0.000274413
6.55691e-06
0.000273055
6.77756e-06
0.000271654
6.99639e-06
0.000270209
7.21336e-06
0.000268721
7.4284e-06
0.00026719
7.64146e-06
0.000265617
7.85249e-06
0.000264002
8.06144e-06
0.000262346
8.26824e-06
0.000260649
8.47286e-06
0.000258911
8.67524e-06
0.000257133
8.87533e-06
0.000255315
9.07307e-06
0.000253459
9.26843e-06
0.000251564
9.46136e-06
0.00024963
9.65181e-06
0.000247659
9.83974e-06
0.000245651
1.00251e-05
0.000243606
1.02079e-05
0.000241525
1.0388e-05
0.000239409
1.05654e-05
0.000237258