/*--------------------------------*- C++ -*----------------------------------*\
| =========                 |                                                 |
| \\      /  F ield         | OpenFOAM: The Open Source CFD Toolbox           |
|  \\    /   O peration     | Version:  v2012                                 |
|   \\  /    A nd           | Website:  www.openfoam.com                      |
|    \\/     M anipulation  |                                                 |
\*---------------------------------------------------------------------------*/
FoamFile
{
    version     2.0;
    format      ascii;
    class       volVectorField;
    location    "0.6";
    object      U;
}
// * * * * * * * * * * * * * * * * * * * * * * * * * * * * * * * * * * * * * //

dimensions      [0 1 -1 0 0 0 0];


internalField   nonuniform List<vector> 
65536
(
(0.000682075 -0.000682055 0)
(0.00204618 -0.000682007 0)
(0.00341014 -0.000681914 0)
(0.00477388 -0.000681776 0)
(0.00613729 -0.000681592 0)
(0.00750029 -0.000681361 0)
(0.00886278 -0.000681082 0)
(0.0102247 -0.000680756 0)
(0.0115858 -0.000680382 0)
(0.0129462 -0.000679959 0)
(0.0143057 -0.000679486 0)
(0.0156642 -0.000678963 0)
(0.0170216 -0.000678389 0)
(0.0183778 -0.000677762 0)
(0.0197327 -0.000677081 0)
(0.0210862 -0.000676347 0)
(0.0224382 -0.000675556 0)
(0.0237885 -0.000674709 0)
(0.0251371 -0.000673803 0)
(0.0264838 -0.000672838 0)
(0.0278285 -0.000671812 0)
(0.0291711 -0.000670723 0)
(0.0305114 -0.00066957 0)
(0.0318494 -0.000668352 0)
(0.0331849 -0.000667066 0)
(0.0345177 -0.000665711 0)
(0.0358478 -0.000664285 0)
(0.0371749 -0.000662786 0)
(0.038499 -0.000661213 0)
(0.0398199 -0.000659564 0)
(0.0411373 -0.000657836 0)
(0.0424513 -0.000656028 0)
(0.0437615 -0.000654138 0)
(0.0450679 -0.000652164 0)
(0.0463703 -0.000650103 0)
(0.0476684 -0.000647955 0)
(0.0489622 -0.000645716 0)
(0.0502514 -0.000643386 0)
(0.0515358 -0.000640961 0)
(0.0528153 -0.00063844 0)
(0.0540897 -0.000635821 0)
(0.0553587 -0.000633102 0)
(0.0566222 -0.000630281 0)
(0.0578799 -0.000627356 0)
(0.0591317 -0.000624325 0)
(0.0603773 -0.000621186 0)
(0.0616166 -0.000617938 0)
(0.0628492 -0.000614579 0)
(0.064075 -0.000611107 0)
(0.0652937 -0.00060752 0)
(0.0665052 -0.000603817 0)
(0.0677091 -0.000599996 0)
(0.0689053 -0.000596055 0)
(0.0700934 -0.000591994 0)
(0.0712734 -0.000587811 0)
(0.0724448 -0.000583505 0)
(0.0736075 -0.000579075 0)
(0.0747612 -0.000574519 0)
(0.0759057 -0.000569837 0)
(0.0770407 -0.000565028 0)
(0.078166 -0.00056009 0)
(0.0792812 -0.000555024 0)
(0.0803862 -0.000549829 0)
(0.0814806 -0.000544504 0)
(0.0825643 -0.00053905 0)
(0.083637 -0.000533465 0)
(0.0846983 -0.00052775 0)
(0.0857481 -0.000521905 0)
(0.0867861 -0.000515929 0)
(0.087812 -0.000509825 0)
(0.0888255 -0.00050359 0)
(0.0898264 -0.000497227 0)
(0.0908145 -0.000490736 0)
(0.0917895 -0.000484118 0)
(0.0927511 -0.000477373 0)
(0.0936991 -0.000470503 0)
(0.0946333 -0.000463509 0)
(0.0955533 -0.000456391 0)
(0.096459 -0.000449152 0)
(0.09735 -0.000441793 0)
(0.0982263 -0.000434316 0)
(0.0990874 -0.000426721 0)
(0.0999333 -0.000419012 0)
(0.100764 -0.00041119 0)
(0.101578 -0.000403257 0)
(0.102377 -0.000395215 0)
(0.103159 -0.000387067 0)
(0.103925 -0.000378814 0)
(0.104674 -0.000370459 0)
(0.105407 -0.000362005 0)
(0.106123 -0.000353454 0)
(0.106821 -0.000344809 0)
(0.107502 -0.000336073 0)
(0.108165 -0.000327247 0)
(0.108811 -0.000318336 0)
(0.109439 -0.000309341 0)
(0.110048 -0.000300266 0)
(0.11064 -0.000291114 0)
(0.111213 -0.000281887 0)
(0.111768 -0.000272588 0)
(0.112303 -0.000263221 0)
(0.11282 -0.000253789 0)
(0.113319 -0.000244294 0)
(0.113798 -0.00023474 0)
(0.114258 -0.000225129 0)
(0.114698 -0.000215464 0)
(0.11512 -0.000205749 0)
(0.115521 -0.000195987 0)
(0.115904 -0.00018618 0)
(0.116266 -0.000176332 0)
(0.116609 -0.000166445 0)
(0.116932 -0.000156523 0)
(0.117235 -0.000146568 0)
(0.117518 -0.000136582 0)
(0.117781 -0.00012657 0)
(0.118025 -0.000116534 0)
(0.118248 -0.000106476 0)
(0.11845 -9.63998e-05 0)
(0.118633 -8.63073e-05 0)
(0.118796 -7.62016e-05 0)
(0.118938 -6.60852e-05 0)
(0.11906 -5.59608e-05 0)
(0.119162 -4.58309e-05 0)
(0.119243 -3.56981e-05 0)
(0.119305 -2.5565e-05 0)
(0.119346 -1.54339e-05 0)
(0.119366 -5.30749e-06 0)
(0.119367 4.81194e-06 0)
(0.119347 1.49219e-05 0)
(0.119307 2.502e-05 0)
(0.119247 3.5104e-05 0)
(0.119167 4.51713e-05 0)
(0.119066 5.52197e-05 0)
(0.118946 6.52469e-05 0)
(0.118805 7.52505e-05 0)
(0.118645 8.52283e-05 0)
(0.118464 9.51778e-05 0)
(0.118264 0.000105097 0)
(0.118044 0.000114983 0)
(0.117804 0.000124835 0)
(0.117545 0.000134649 0)
(0.117266 0.000144423 0)
(0.116967 0.000154156 0)
(0.116649 0.000163844 0)
(0.116311 0.000173486 0)
(0.115955 0.00018308 0)
(0.115579 0.000192622 0)
(0.115184 0.000202111 0)
(0.114771 0.000211544 0)
(0.114338 0.00022092 0)
(0.113887 0.000230235 0)
(0.113417 0.000239488 0)
(0.112929 0.000248676 0)
(0.112422 0.000257797 0)
(0.111898 0.000266849 0)
(0.111355 0.00027583 0)
(0.110794 0.000284736 0)
(0.110216 0.000293567 0)
(0.10962 0.000302319 0)
(0.109006 0.00031099 0)
(0.108376 0.000319579 0)
(0.107728 0.000328083 0)
(0.107063 0.000336501 0)
(0.106382 0.000344829 0)
(0.105684 0.000353066 0)
(0.10497 0.000361209 0)
(0.104239 0.000369258 0)
(0.103493 0.00037721 0)
(0.10273 0.000385063 0)
(0.101952 0.000392815 0)
(0.101159 0.000400464 0)
(0.10035 0.00040801 0)
(0.0995266 0.000415449 0)
(0.0986883 0.000422782 0)
(0.0978354 0.000430005 0)
(0.0969682 0.000437118 0)
(0.0960868 0.00044412 0)
(0.0951916 0.000451008 0)
(0.0942827 0.000457783 0)
(0.0933603 0.000464443 0)
(0.0924248 0.000470986 0)
(0.0914763 0.000477413 0)
(0.090515 0.000483722 0)
(0.0895413 0.000489912 0)
(0.0885553 0.000495983 0)
(0.0875572 0.000501935 0)
(0.0865474 0.000507767 0)
(0.085526 0.000513478 0)
(0.0844934 0.000519069 0)
(0.0834496 0.000524539 0)
(0.0823951 0.000529889 0)
(0.08133 0.000535118 0)
(0.0802545 0.000540227 0)
(0.0791689 0.000545215 0)
(0.0780735 0.000550084 0)
(0.0769685 0.000554834 0)
(0.0758541 0.000559465 0)
(0.0747305 0.000563977 0)
(0.073598 0.000568373 0)
(0.0724569 0.000572652 0)
(0.0713073 0.000576815 0)
(0.0701495 0.000580864 0)
(0.0689837 0.000584798 0)
(0.0678102 0.000588621 0)
(0.0666291 0.000592332 0)
(0.0654408 0.000595933 0)
(0.0642453 0.000599426 0)
(0.0630429 0.000602811 0)
(0.0618339 0.00060609 0)
(0.0606185 0.000609265 0)
(0.0593968 0.000612336 0)
(0.058169 0.000615307 0)
(0.0569354 0.000618178 0)
(0.0556962 0.00062095 0)
(0.0544515 0.000623627 0)
(0.0532016 0.000626209 0)
(0.0519466 0.000628697 0)
(0.0506867 0.000631095 0)
(0.0494221 0.000633403 0)
(0.048153 0.000635623 0)
(0.0468796 0.000637758 0)
(0.0456019 0.000639808 0)
(0.0443202 0.000641776 0)
(0.0430347 0.000643664 0)
(0.0417455 0.000645473 0)
(0.0404528 0.000647204 0)
(0.0391566 0.000648861 0)
(0.0378572 0.000650443 0)
(0.0365548 0.000651954 0)
(0.0352493 0.000653395 0)
(0.0339411 0.000654767 0)
(0.0326302 0.000656072 0)
(0.0313168 0.000657311 0)
(0.0300009 0.000658487 0)
(0.0286827 0.0006596 0)
(0.0273624 0.000660652 0)
(0.0260401 0.000661644 0)
(0.0247158 0.000662578 0)
(0.0233897 0.000663455 0)
(0.0220619 0.000664276 0)
(0.0207325 0.000665043 0)
(0.0194017 0.000665756 0)
(0.0180695 0.000666417 0)
(0.016736 0.000667026 0)
(0.0154013 0.000667585 0)
(0.0140656 0.000668094 0)
(0.0127289 0.000668554 0)
(0.0113913 0.000668966 0)
(0.010053 0.00066933 0)
(0.00871393 0.000669648 0)
(0.00737432 0.000669919 0)
(0.00603421 0.000670145 0)
(0.00469369 0.000670325 0)
(0.00335286 0.000670459 0)
(0.0020118 0.000670549 0)
(0.000670616 0.000670594 0)
(0.000682119 -0.0020462 0)
(0.00204631 -0.00204606 0)
(0.00341037 -0.00204578 0)
(0.00477419 -0.00204537 0)
(0.00613769 -0.00204482 0)
(0.00750078 -0.00204413 0)
(0.00886336 -0.00204329 0)
(0.0102253 -0.00204231 0)
(0.0115866 -0.00204119 0)
(0.0129471 -0.00203992 0)
(0.0143067 -0.00203851 0)
(0.0156653 -0.00203694 0)
(0.0170228 -0.00203521 0)
(0.0183791 -0.00203333 0)
(0.0197341 -0.00203129 0)
(0.0210877 -0.00202909 0)
(0.0224398 -0.00202672 0)
(0.0237902 -0.00202418 0)
(0.0251389 -0.00202147 0)
(0.0264857 -0.00201857 0)
(0.0278305 -0.00201549 0)
(0.0291733 -0.00201223 0)
(0.0305137 -0.00200877 0)
(0.0318519 -0.00200512 0)
(0.0331875 -0.00200126 0)
(0.0345205 -0.0019972 0)
(0.0358507 -0.00199292 0)
(0.037178 -0.00198843 0)
(0.0385022 -0.00198371 0)
(0.0398232 -0.00197877 0)
(0.0411408 -0.00197358 0)
(0.0424549 -0.00196816 0)
(0.0437653 -0.00196249 0)
(0.0450719 -0.00195657 0)
(0.0463744 -0.0019504 0)
(0.0476727 -0.00194395 0)
(0.0489667 -0.00193724 0)
(0.0502561 -0.00193025 0)
(0.0515407 -0.00192298 0)
(0.0528204 -0.00191542 0)
(0.0540949 -0.00190756 0)
(0.0553642 -0.00189941 0)
(0.0566278 -0.00189094 0)
(0.0578858 -0.00188217 0)
(0.0591378 -0.00187308 0)
(0.0603836 -0.00186367 0)
(0.0616231 -0.00185392 0)
(0.0628559 -0.00184385 0)
(0.064082 -0.00183343 0)
(0.0653009 -0.00182267 0)
(0.0665126 -0.00181157 0)
(0.0677168 -0.0018001 0)
(0.0689132 -0.00178829 0)
(0.0701016 -0.0017761 0)
(0.0712818 -0.00176356 0)
(0.0724535 -0.00175064 0)
(0.0736164 -0.00173735 0)
(0.0747704 -0.00172368 0)
(0.0759151 -0.00170964 0)
(0.0770504 -0.00169521 0)
(0.0781759 -0.0016804 0)
(0.0792914 -0.0016652 0)
(0.0803966 -0.00164962 0)
(0.0814913 -0.00163364 0)
(0.0825753 -0.00161728 0)
(0.0836482 -0.00160052 0)
(0.0847098 -0.00158338 0)
(0.0857598 -0.00156584 0)
(0.0867981 -0.00154792 0)
(0.0878242 -0.0015296 0)
(0.088838 -0.0015109 0)
(0.0898392 -0.00149181 0)
(0.0908276 -0.00147234 0)
(0.0918028 -0.00145248 0)
(0.0927647 -0.00143225 0)
(0.0937129 -0.00141164 0)
(0.0946473 -0.00139065 0)
(0.0955676 -0.0013693 0)
(0.0964735 -0.00134758 0)
(0.0973648 -0.0013255 0)
(0.0982413 -0.00130307 0)
(0.0991026 -0.00128028 0)
(0.0999487 -0.00125715 0)
(0.100779 -0.00123368 0)
(0.101594 -0.00120988 0)
(0.102393 -0.00118575 0)
(0.103175 -0.00116131 0)
(0.103942 -0.00113655 0)
(0.104691 -0.00111148 0)
(0.105424 -0.00108612 0)
(0.10614 -0.00106046 0)
(0.106838 -0.00103452 0)
(0.107519 -0.00100831 0)
(0.108183 -0.000981831 0)
(0.108829 -0.000955094 0)
(0.109457 -0.000928107 0)
(0.110067 -0.000900879 0)
(0.110658 -0.000873419 0)
(0.111231 -0.000845735 0)
(0.111786 -0.000817837 0)
(0.112322 -0.000789733 0)
(0.112839 -0.000761433 0)
(0.113338 -0.000732945 0)
(0.113817 -0.000704279 0)
(0.114277 -0.000675443 0)
(0.114718 -0.000646447 0)
(0.115139 -0.000617299 0)
(0.115541 -0.00058801 0)
(0.115923 -0.000558586 0)
(0.116286 -0.000529039 0)
(0.116629 -0.000499375 0)
(0.116952 -0.000469605 0)
(0.117255 -0.000439737 0)
(0.117538 -0.000409779 0)
(0.117801 -0.000379739 0)
(0.118045 -0.000349628 0)
(0.118268 -0.000319452 0)
(0.118471 -0.00028922 0)
(0.118653 -0.00025894 0)
(0.118816 -0.00022862 0)
(0.118958 -0.000198268 0)
(0.11908 -0.000167892 0)
(0.119182 -0.0001375 0)
(0.119264 -0.000107099 0)
(0.119325 -7.66971e-05 0)
(0.119366 -4.63015e-05 0)
(0.119387 -1.59197e-05 0)
(0.119387 1.4441e-05 0)
(0.119367 4.47734e-05 0)
(0.119327 7.50702e-05 0)
(0.119267 0.000105324 0)
(0.119187 0.000135529 0)
(0.119086 0.000165676 0)
(0.118966 0.00019576 0)
(0.118825 0.000225773 0)
(0.118665 0.000255709 0)
(0.118484 0.00028556 0)
(0.118284 0.00031532 0)
(0.118064 0.000344981 0)
(0.117824 0.000374537 0)
(0.117564 0.000403982 0)
(0.117285 0.000433308 0)
(0.116986 0.000462508 0)
(0.116668 0.000491575 0)
(0.116331 0.000520504 0)
(0.115974 0.000549286 0)
(0.115598 0.000577915 0)
(0.115203 0.000606385 0)
(0.114789 0.000634687 0)
(0.114357 0.000662816 0)
(0.113905 0.000690765 0)
(0.113436 0.000718526 0)
(0.112947 0.000746093 0)
(0.112441 0.000773459 0)
(0.111916 0.000800617 0)
(0.111373 0.00082756 0)
(0.110812 0.000854282 0)
(0.110233 0.000880775 0)
(0.109637 0.000907034 0)
(0.109024 0.000933051 0)
(0.108393 0.00095882 0)
(0.107745 0.000984335 0)
(0.10708 0.00100959 0)
(0.106399 0.00103457 0)
(0.1057 0.00105929 0)
(0.104986 0.00108372 0)
(0.104255 0.00110787 0)
(0.103508 0.00113173 0)
(0.102746 0.00115529 0)
(0.101968 0.00117855 0)
(0.101174 0.0012015 0)
(0.100365 0.00122413 0)
(0.0995415 0.00124645 0)
(0.0987029 0.00126845 0)
(0.0978498 0.00129012 0)
(0.0969824 0.00131146 0)
(0.0961008 0.00133247 0)
(0.0952053 0.00135314 0)
(0.0942962 0.00137346 0)
(0.0933736 0.00139344 0)
(0.0924378 0.00141307 0)
(0.0914891 0.00143236 0)
(0.0905276 0.00145128 0)
(0.0895536 0.00146985 0)
(0.0885673 0.00148807 0)
(0.0875691 0.00150592 0)
(0.086559 0.00152342 0)
(0.0855374 0.00154055 0)
(0.0845045 0.00155733 0)
(0.0834605 0.00157374 0)
(0.0824057 0.00158979 0)
(0.0813404 0.00160547 0)
(0.0802647 0.0016208 0)
(0.0791789 0.00163577 0)
(0.0780832 0.00165037 0)
(0.0769779 0.00166462 0)
(0.0758633 0.00167851 0)
(0.0747395 0.00169205 0)
(0.0736068 0.00170524 0)
(0.0724654 0.00171807 0)
(0.0713156 0.00173056 0)
(0.0701576 0.00174271 0)
(0.0689916 0.00175451 0)
(0.0678178 0.00176598 0)
(0.0666365 0.00177711 0)
(0.0654479 0.00178791 0)
(0.0642522 0.00179839 0)
(0.0630497 0.00180854 0)
(0.0618405 0.00181838 0)
(0.0606248 0.0018279 0)
(0.0594029 0.00183711 0)
(0.0581749 0.00184602 0)
(0.0569412 0.00185463 0)
(0.0557017 0.00186295 0)
(0.0544569 0.00187098 0)
(0.0532067 0.00187872 0)
(0.0519516 0.00188619 0)
(0.0506915 0.00189338 0)
(0.0494267 0.0019003 0)
(0.0481574 0.00190696 0)
(0.0468838 0.00191336 0)
(0.045606 0.00191951 0)
(0.0443242 0.00192541 0)
(0.0430385 0.00193107 0)
(0.0417491 0.0019365 0)
(0.0404562 0.00194169 0)
(0.0391599 0.00194666 0)
(0.0378604 0.00195141 0)
(0.0365578 0.00195594 0)
(0.0352522 0.00196026 0)
(0.0339438 0.00196437 0)
(0.0326328 0.00196828 0)
(0.0313192 0.001972 0)
(0.0300032 0.00197553 0)
(0.0286849 0.00197886 0)
(0.0273645 0.00198202 0)
(0.026042 0.00198499 0)
(0.0247176 0.00198779 0)
(0.0233914 0.00199042 0)
(0.0220635 0.00199289 0)
(0.020734 0.00199519 0)
(0.0194031 0.00199732 0)
(0.0180708 0.00199931 0)
(0.0167372 0.00200113 0)
(0.0154024 0.00200281 0)
(0.0140666 0.00200433 0)
(0.0127298 0.00200571 0)
(0.0113921 0.00200695 0)
(0.0100537 0.00200804 0)
(0.00871453 0.00200899 0)
(0.00737482 0.00200981 0)
(0.00603462 0.00201048 0)
(0.00469401 0.00201102 0)
(0.00335308 0.00201143 0)
(0.00201194 0.00201169 0)
(0.000670661 0.00201183 0)
(0.000682211 -0.00341048 0)
(0.00204659 -0.00341025 0)
(0.00341083 -0.00340979 0)
(0.00477484 -0.00340911 0)
(0.00613853 -0.00340818 0)
(0.00750181 -0.00340703 0)
(0.00886458 -0.00340564 0)
(0.0102267 -0.00340402 0)
(0.0115882 -0.00340215 0)
(0.0129489 -0.00340004 0)
(0.0143087 -0.00339768 0)
(0.0156675 -0.00339506 0)
(0.0170252 -0.0033922 0)
(0.0183817 -0.00338907 0)
(0.0197369 -0.00338567 0)
(0.0210908 -0.003382 0)
(0.0224431 -0.00337806 0)
(0.0237937 -0.00337383 0)
(0.0251426 -0.00336931 0)
(0.0264897 -0.00336449 0)
(0.0278348 -0.00335937 0)
(0.0291778 -0.00335393 0)
(0.0305185 -0.00334817 0)
(0.0318569 -0.00334209 0)
(0.0331928 -0.00333567 0)
(0.034526 -0.0033289 0)
(0.0358565 -0.00332178 0)
(0.0371841 -0.0033143 0)
(0.0385086 -0.00330644 0)
(0.03983 -0.0032982 0)
(0.0411479 -0.00328957 0)
(0.0424623 -0.00328054 0)
(0.0437731 -0.0032711 0)
(0.04508 -0.00326124 0)
(0.0463829 -0.00325095 0)
(0.0476815 -0.00324022 0)
(0.0489758 -0.00322904 0)
(0.0502656 -0.00321739 0)
(0.0515506 -0.00320528 0)
(0.0528307 -0.00319269 0)
(0.0541056 -0.0031796 0)
(0.0553753 -0.00316602 0)
(0.0566394 -0.00315192 0)
(0.0578977 -0.0031373 0)
(0.0591502 -0.00312216 0)
(0.0603964 -0.00310648 0)
(0.0616363 -0.00309024 0)
(0.0628696 -0.00307346 0)
(0.0640961 -0.0030561 0)
(0.0653155 -0.00303818 0)
(0.0665277 -0.00301967 0)
(0.0677323 -0.00300057 0)
(0.0689292 -0.00298088 0)
(0.0701181 -0.00296058 0)
(0.0712988 -0.00293967 0)
(0.072471 -0.00291815 0)
(0.0736344 -0.002896 0)
(0.0747889 -0.00287323 0)
(0.0759341 -0.00284982 0)
(0.0770699 -0.00282578 0)
(0.0781959 -0.00280109 0)
(0.0793119 -0.00277577 0)
(0.0804177 -0.00274979 0)
(0.0815129 -0.00272317 0)
(0.0825974 -0.0026959 0)
(0.0836708 -0.00266798 0)
(0.084733 -0.0026394 0)
(0.0857835 -0.00261017 0)
(0.0868223 -0.0025803 0)
(0.0878489 -0.00254977 0)
(0.0888633 -0.0025186 0)
(0.089865 -0.00248678 0)
(0.0908538 -0.00245432 0)
(0.0918296 -0.00242123 0)
(0.0927919 -0.0023875 0)
(0.0937407 -0.00235314 0)
(0.0946756 -0.00231816 0)
(0.0955963 -0.00228257 0)
(0.0965027 -0.00224637 0)
(0.0973945 -0.00220956 0)
(0.0982714 -0.00217217 0)
(0.0991333 -0.00213419 0)
(0.0999798 -0.00209563 0)
(0.100811 -0.00205651 0)
(0.101626 -0.00201683 0)
(0.102425 -0.00197661 0)
(0.103208 -0.00193586 0)
(0.103975 -0.00189458 0)
(0.104725 -0.0018528 0)
(0.105458 -0.00181052 0)
(0.106174 -0.00176775 0)
(0.106873 -0.00172451 0)
(0.107555 -0.00168081 0)
(0.108219 -0.00163667 0)
(0.108865 -0.0015921 0)
(0.109493 -0.00154711 0)
(0.110103 -0.00150172 0)
(0.110695 -0.00145595 0)
(0.111269 -0.0014098 0)
(0.111824 -0.00136329 0)
(0.11236 -0.00131644 0)
(0.112877 -0.00126926 0)
(0.113376 -0.00122177 0)
(0.113855 -0.00117399 0)
(0.114315 -0.00112592 0)
(0.114756 -0.00107758 0)
(0.115178 -0.00102899 0)
(0.11558 -0.000980165 0)
(0.115963 -0.000931117 0)
(0.116325 -0.000881861 0)
(0.116668 -0.000832412 0)
(0.116992 -0.000782785 0)
(0.117295 -0.000732995 0)
(0.117578 -0.000683055 0)
(0.117842 -0.000632981 0)
(0.118085 -0.000582785 0)
(0.118308 -0.000532483 0)
(0.118511 -0.000482087 0)
(0.118694 -0.000431611 0)
(0.118856 -0.000381069 0)
(0.118999 -0.000330474 0)
(0.119121 -0.000279839 0)
(0.119223 -0.000229177 0)
(0.119304 -0.000178501 0)
(0.119365 -0.000127822 0)
(0.119406 -7.71547e-05 0)
(0.119427 -2.65103e-05 0)
(0.119428 2.40989e-05 0)
(0.119408 7.46608e-05 0)
(0.119368 0.000125163 0)
(0.119308 0.000175595 0)
(0.119227 0.000225943 0)
(0.119127 0.000276197 0)
(0.119006 0.000326345 0)
(0.118865 0.000376374 0)
(0.118705 0.000426274 0)
(0.118524 0.000476034 0)
(0.118324 0.000525641 0)
(0.118103 0.000575084 0)
(0.117863 0.000624353 0)
(0.117603 0.000673434 0)
(0.117324 0.000722318 0)
(0.117025 0.000770993 0)
(0.116707 0.000819446 0)
(0.116369 0.000867668 0)
(0.116012 0.000915646 0)
(0.115636 0.000963369 0)
(0.115241 0.00101083 0)
(0.114827 0.001058 0)
(0.114394 0.00110489 0)
(0.113943 0.00115148 0)
(0.113472 0.00119776 0)
(0.112984 0.00124371 0)
(0.112477 0.00128933 0)
(0.111952 0.0013346 0)
(0.111409 0.00137951 0)
(0.110847 0.00142406 0)
(0.110269 0.00146822 0)
(0.109672 0.00151199 0)
(0.109058 0.00155536 0)
(0.108427 0.00159832 0)
(0.107779 0.00164085 0)
(0.107114 0.00168294 0)
(0.106432 0.00172459 0)
(0.105733 0.00176579 0)
(0.105018 0.00180652 0)
(0.104287 0.00184677 0)
(0.10354 0.00188654 0)
(0.102777 0.00192581 0)
(0.101998 0.00196458 0)
(0.101204 0.00200284 0)
(0.100395 0.00204057 0)
(0.099571 0.00207778 0)
(0.098732 0.00211445 0)
(0.0978785 0.00215057 0)
(0.0970106 0.00218615 0)
(0.0961285 0.00222116 0)
(0.0952326 0.00225561 0)
(0.094323 0.00228949 0)
(0.0934 0.00232279 0)
(0.0924637 0.00235551 0)
(0.0915145 0.00238765 0)
(0.0905526 0.0024192 0)
(0.0895781 0.00245015 0)
(0.0885914 0.00248051 0)
(0.0875926 0.00251027 0)
(0.0865821 0.00253943 0)
(0.08556 0.00256799 0)
(0.0845266 0.00259595 0)
(0.0834821 0.0026233 0)
(0.0824269 0.00265005 0)
(0.081361 0.00267619 0)
(0.0802848 0.00270174 0)
(0.0791985 0.00272668 0)
(0.0781024 0.00275102 0)
(0.0769967 0.00277476 0)
(0.0758815 0.00279792 0)
(0.0747573 0.00282048 0)
(0.0736241 0.00284245 0)
(0.0724822 0.00286384 0)
(0.071332 0.00288465 0)
(0.0701735 0.00290489 0)
(0.069007 0.00292456 0)
(0.0678328 0.00294366 0)
(0.0666511 0.00296221 0)
(0.0654621 0.00298021 0)
(0.064266 0.00299767 0)
(0.063063 0.00301459 0)
(0.0618533 0.00303098 0)
(0.0606373 0.00304684 0)
(0.0594149 0.00306219 0)
(0.0581866 0.00307704 0)
(0.0569524 0.00309138 0)
(0.0557126 0.00310524 0)
(0.0544673 0.00311861 0)
(0.0532169 0.00313151 0)
(0.0519613 0.00314395 0)
(0.0507009 0.00315593 0)
(0.0494358 0.00316746 0)
(0.0481661 0.00317855 0)
(0.0468921 0.00318922 0)
(0.045614 0.00319946 0)
(0.0443318 0.00320929 0)
(0.0430458 0.00321872 0)
(0.0417561 0.00322775 0)
(0.0404629 0.0032364 0)
(0.0391663 0.00324468 0)
(0.0378665 0.00325258 0)
(0.0365636 0.00326013 0)
(0.0352578 0.00326732 0)
(0.0339492 0.00327418 0)
(0.0326379 0.00328069 0)
(0.031324 0.00328688 0)
(0.0300078 0.00329275 0)
(0.0286893 0.00329831 0)
(0.0273686 0.00330356 0)
(0.0260459 0.00330852 0)
(0.0247212 0.00331318 0)
(0.0233948 0.00331756 0)
(0.0220667 0.00332166 0)
(0.020737 0.00332549 0)
(0.0194058 0.00332905 0)
(0.0180733 0.00333235 0)
(0.0167395 0.00333539 0)
(0.0154045 0.00333818 0)
(0.0140685 0.00334072 0)
(0.0127315 0.00334302 0)
(0.0113936 0.00334507 0)
(0.010055 0.00334689 0)
(0.0087157 0.00334848 0)
(0.00737581 0.00334983 0)
(0.00603542 0.00335096 0)
(0.00469463 0.00335186 0)
(0.00335353 0.00335253 0)
(0.00201221 0.00335297 0)
(0.00067075 0.00335319 0)
(0.000682349 -0.004775 0)
(0.002047 -0.00477468 0)
(0.00341152 -0.00477404 0)
(0.00477581 -0.00477307 0)
(0.00613978 -0.00477179 0)
(0.00750334 -0.00477017 0)
(0.0088664 -0.00476823 0)
(0.0102289 -0.00476596 0)
(0.0115906 -0.00476335 0)
(0.0129516 -0.0047604 0)
(0.0143117 -0.0047571 0)
(0.0156708 -0.00475345 0)
(0.0170288 -0.00474944 0)
(0.0183857 -0.00474507 0)
(0.0197412 -0.00474032 0)
(0.0210953 -0.00473519 0)
(0.022448 -0.00472968 0)
(0.023799 -0.00472377 0)
(0.0251483 -0.00471745 0)
(0.0264957 -0.00471071 0)
(0.0278411 -0.00470355 0)
(0.0291845 -0.00469595 0)
(0.0305256 -0.0046879 0)
(0.0318644 -0.0046794 0)
(0.0332007 -0.00467042 0)
(0.0345344 -0.00466096 0)
(0.0358653 -0.004651 0)
(0.0371933 -0.00464054 0)
(0.0385183 -0.00462955 0)
(0.0398401 -0.00461803 0)
(0.0411585 -0.00460597 0)
(0.0424734 -0.00459334 0)
(0.0437847 -0.00458013 0)
(0.0450921 -0.00456634 0)
(0.0463955 -0.00455195 0)
(0.0476947 -0.00453694 0)
(0.0489896 -0.0045213 0)
(0.0502799 -0.00450501 0)
(0.0515655 -0.00448807 0)
(0.0528461 -0.00447045 0)
(0.0541217 -0.00445214 0)
(0.0553919 -0.00443314 0)
(0.0566566 -0.00441342 0)
(0.0579156 -0.00439297 0)
(0.0591687 -0.00437178 0)
(0.0604156 -0.00434983 0)
(0.0616562 -0.00432712 0)
(0.0628902 -0.00430363 0)
(0.0641173 -0.00427935 0)
(0.0653374 -0.00425426 0)
(0.0665503 -0.00422836 0)
(0.0677557 -0.00420164 0)
(0.0689533 -0.00417407 0)
(0.0701429 -0.00414567 0)
(0.0713243 -0.0041164 0)
(0.0724972 -0.00408628 0)
(0.0736614 -0.00405528 0)
(0.0748167 -0.0040234 0)
(0.0759627 -0.00399064 0)
(0.0770992 -0.00395698 0)
(0.078226 -0.00392243 0)
(0.0793428 -0.00388698 0)
(0.0804493 -0.00385062 0)
(0.0815453 -0.00381335 0)
(0.0826306 -0.00377517 0)
(0.0837048 -0.00373608 0)
(0.0847677 -0.00369607 0)
(0.085819 -0.00365515 0)
(0.0868586 -0.00361332 0)
(0.087886 -0.00357059 0)
(0.0889011 -0.00352694 0)
(0.0899036 -0.00348239 0)
(0.0908932 -0.00343694 0)
(0.0918697 -0.0033906 0)
(0.0928329 -0.00334337 0)
(0.0937824 -0.00329527 0)
(0.094718 -0.00324629 0)
(0.0956395 -0.00319645 0)
(0.0965466 -0.00314575 0)
(0.0974391 -0.00309422 0)
(0.0983167 -0.00304185 0)
(0.0991793 -0.00298866 0)
(0.100026 -0.00293467 0)
(0.100858 -0.00287989 0)
(0.101674 -0.00282433 0)
(0.102474 -0.002768 0)
(0.103258 -0.00271093 0)
(0.104025 -0.00265313 0)
(0.104775 -0.00259461 0)
(0.105509 -0.0025354 0)
(0.106226 -0.00247551 0)
(0.106925 -0.00241495 0)
(0.107607 -0.00235376 0)
(0.108272 -0.00229194 0)
(0.108918 -0.00222952 0)
(0.109547 -0.00216652 0)
(0.110158 -0.00210295 0)
(0.11075 -0.00203885 0)
(0.111324 -0.00197422 0)
(0.11188 -0.00190909 0)
(0.112416 -0.00184348 0)
(0.112934 -0.00177741 0)
(0.113433 -0.0017109 0)
(0.113913 -0.00164398 0)
(0.114373 -0.00157666 0)
(0.114815 -0.00150897 0)
(0.115236 -0.00144092 0)
(0.115639 -0.00137254 0)
(0.116022 -0.00130385 0)
(0.116385 -0.00123487 0)
(0.116728 -0.00116563 0)
(0.117051 -0.00109613 0)
(0.117355 -0.0010264 0)
(0.117638 -0.000956466 0)
(0.117902 -0.000886342 0)
(0.118145 -0.000816048 0)
(0.118368 -0.000745606 0)
(0.118572 -0.000675032 0)
(0.118754 -0.000604348 0)
(0.118917 -0.000533571 0)
(0.11906 -0.000462719 0)
(0.119182 -0.000391812 0)
(0.119283 -0.000320867 0)
(0.119365 -0.000249903 0)
(0.119426 -0.000178936 0)
(0.119467 -0.000107984 0)
(0.119488 -3.70644e-05 0)
(0.119488 3.38054e-05 0)
(0.119468 0.000104609 0)
(0.119428 0.000175329 0)
(0.119368 0.00024595 0)
(0.119287 0.000316454 0)
(0.119187 0.000386825 0)
(0.119066 0.000457048 0)
(0.118925 0.000527106 0)
(0.118764 0.000596982 0)
(0.118584 0.000666661 0)
(0.118383 0.000736127 0)
(0.118162 0.000805364 0)
(0.117922 0.000874355 0)
(0.117662 0.000943086 0)
(0.117383 0.00101154 0)
(0.117083 0.0010797 0)
(0.116765 0.00114755 0)
(0.116427 0.00121508 0)
(0.11607 0.00128226 0)
(0.115693 0.00134909 0)
(0.115298 0.00141555 0)
(0.114883 0.00148161 0)
(0.11445 0.00154727 0)
(0.113998 0.00161251 0)
(0.113528 0.00167732 0)
(0.113039 0.00174166 0)
(0.112531 0.00180554 0)
(0.112006 0.00186894 0)
(0.111462 0.00193183 0)
(0.110901 0.00199421 0)
(0.110321 0.00205606 0)
(0.109724 0.00211735 0)
(0.10911 0.00217808 0)
(0.108478 0.00223824 0)
(0.10783 0.0022978 0)
(0.107164 0.00235674 0)
(0.106481 0.00241507 0)
(0.105782 0.00247276 0)
(0.105067 0.00252979 0)
(0.104335 0.00258616 0)
(0.103587 0.00264185 0)
(0.102824 0.00269684 0)
(0.102045 0.00275113 0)
(0.10125 0.00280471 0)
(0.10044 0.00285755 0)
(0.0996153 0.00290965 0)
(0.0987757 0.00296099 0)
(0.0979214 0.00301158 0)
(0.0970529 0.00306139 0)
(0.0961702 0.00311041 0)
(0.0952736 0.00315865 0)
(0.0943633 0.00320609 0)
(0.0934396 0.00325272 0)
(0.0925026 0.00329854 0)
(0.0915527 0.00334354 0)
(0.09059 0.00338771 0)
(0.0896148 0.00343105 0)
(0.0886274 0.00347356 0)
(0.0876279 0.00351522 0)
(0.0866167 0.00355605 0)
(0.0855938 0.00359603 0)
(0.0845597 0.00363517 0)
(0.0835145 0.00367347 0)
(0.0824585 0.00371091 0)
(0.081392 0.00374751 0)
(0.0803151 0.00378327 0)
(0.0792281 0.00381819 0)
(0.0781312 0.00385226 0)
(0.0770247 0.0038855 0)
(0.0759089 0.00391791 0)
(0.0747839 0.00394949 0)
(0.0736501 0.00398024 0)
(0.0725075 0.00401018 0)
(0.0713566 0.00403931 0)
(0.0701974 0.00406764 0)
(0.0690303 0.00409517 0)
(0.0678554 0.00412191 0)
(0.066673 0.00414787 0)
(0.0654833 0.00417306 0)
(0.0642865 0.00419749 0)
(0.0630829 0.00422116 0)
(0.0618726 0.0042441 0)
(0.0606559 0.0042663 0)
(0.059433 0.00428778 0)
(0.0582041 0.00430855 0)
(0.0569693 0.00432862 0)
(0.0557289 0.00434801 0)
(0.0544831 0.00436672 0)
(0.053232 0.00438477 0)
(0.0519759 0.00440216 0)
(0.0507149 0.00441892 0)
(0.0494493 0.00443505 0)
(0.0481791 0.00445057 0)
(0.0469046 0.00446549 0)
(0.045626 0.00447982 0)
(0.0443434 0.00449357 0)
(0.0430569 0.00450676 0)
(0.0417667 0.0045194 0)
(0.0404731 0.00453149 0)
(0.039176 0.00454306 0)
(0.0378758 0.00455412 0)
(0.0365724 0.00456467 0)
(0.0352662 0.00457473 0)
(0.0339571 0.00458431 0)
(0.0326454 0.00459343 0)
(0.0313312 0.00460208 0)
(0.0300146 0.00461029 0)
(0.0286957 0.00461806 0)
(0.0273747 0.0046254 0)
(0.0260516 0.00463233 0)
(0.0247266 0.00463885 0)
(0.0233999 0.00464497 0)
(0.0220714 0.00465071 0)
(0.0207414 0.00465606 0)
(0.0194099 0.00466103 0)
(0.0180771 0.00466565 0)
(0.016743 0.0046699 0)
(0.0154077 0.0046738 0)
(0.0140714 0.00467735 0)
(0.0127341 0.00468056 0)
(0.011396 0.00468343 0)
(0.010057 0.00468598 0)
(0.00871746 0.00468819 0)
(0.00737729 0.00469009 0)
(0.00603663 0.00469166 0)
(0.00469557 0.00469292 0)
(0.0033542 0.00469385 0)
(0.00201261 0.00469447 0)
(0.000670884 0.00469478 0)
(0.000682533 -0.00613984 0)
(0.00204755 -0.00613942 0)
(0.00341244 -0.0061386 0)
(0.0047771 -0.00613737 0)
(0.00614144 -0.00613572 0)
(0.00750538 -0.00613365 0)
(0.00886881 -0.00613116 0)
(0.0102317 -0.00612824 0)
(0.0115938 -0.00612489 0)
(0.0129552 -0.00612111 0)
(0.0143157 -0.00611688 0)
(0.0156752 -0.0061122 0)
(0.0170336 -0.00610705 0)
(0.0183909 -0.00610144 0)
(0.0197469 -0.00609535 0)
(0.0211014 -0.00608878 0)
(0.0224545 -0.0060817 0)
(0.023806 -0.00607411 0)
(0.0251557 -0.00606601 0)
(0.0265036 -0.00605736 0)
(0.0278496 -0.00604817 0)
(0.0291934 -0.00603842 0)
(0.0305351 -0.00602809 0)
(0.0318744 -0.00601718 0)
(0.0332113 -0.00600565 0)
(0.0345455 -0.00599351 0)
(0.035877 -0.00598073 0)
(0.0372056 -0.0059673 0)
(0.0385312 -0.0059532 0)
(0.0398536 -0.00593841 0)
(0.0411727 -0.00592292 0)
(0.0424882 -0.00590671 0)
(0.0438001 -0.00588975 0)
(0.0451082 -0.00587205 0)
(0.0464123 -0.00585356 0)
(0.0477123 -0.00583429 0)
(0.0490078 -0.0058142 0)
(0.0502989 -0.00579329 0)
(0.0515852 -0.00577152 0)
(0.0528667 -0.0057489 0)
(0.054143 -0.00572539 0)
(0.0554141 -0.00570097 0)
(0.0566796 -0.00567564 0)
(0.0579395 -0.00564937 0)
(0.0591934 -0.00562215 0)
(0.0604412 -0.00559396 0)
(0.0616826 -0.00556478 0)
(0.0629175 -0.0055346 0)
(0.0641456 -0.0055034 0)
(0.0653666 -0.00547116 0)
(0.0665804 -0.00543788 0)
(0.0677867 -0.00540354 0)
(0.0689853 -0.00536812 0)
(0.0701759 -0.00533161 0)
(0.0713583 -0.005294 0)
(0.0725322 -0.00525528 0)
(0.0736974 -0.00521544 0)
(0.0748536 -0.00517446 0)
(0.0760007 -0.00513235 0)
(0.0771382 -0.00508909 0)
(0.078266 -0.00504467 0)
(0.0793839 -0.0049991 0)
(0.0804914 -0.00495235 0)
(0.0815885 -0.00490444 0)
(0.0826748 -0.00485535 0)
(0.08375 -0.00480509 0)
(0.084814 -0.00475366 0)
(0.0858664 -0.00470105 0)
(0.086907 -0.00464726 0)
(0.0879354 -0.00459231 0)
(0.0889516 -0.00453618 0)
(0.0899551 -0.0044789 0)
(0.0909457 -0.00442045 0)
(0.0919233 -0.00436086 0)
(0.0928874 -0.00430013 0)
(0.0938379 -0.00423826 0)
(0.0947745 -0.00417528 0)
(0.095697 -0.00411118 0)
(0.0966051 -0.00404598 0)
(0.0974985 -0.0039797 0)
(0.0983771 -0.00391235 0)
(0.0992406 -0.00384395 0)
(0.100089 -0.00377451 0)
(0.100921 -0.00370405 0)
(0.101738 -0.00363259 0)
(0.102539 -0.00356014 0)
(0.103323 -0.00348674 0)
(0.104091 -0.00341239 0)
(0.104843 -0.00333712 0)
(0.105577 -0.00326096 0)
(0.106295 -0.00318393 0)
(0.106995 -0.00310604 0)
(0.107678 -0.00302733 0)
(0.108343 -0.00294782 0)
(0.10899 -0.00286753 0)
(0.10962 -0.00278649 0)
(0.110231 -0.00270473 0)
(0.110824 -0.00262227 0)
(0.111398 -0.00253914 0)
(0.111954 -0.00245536 0)
(0.112492 -0.00237097 0)
(0.11301 -0.00228599 0)
(0.113509 -0.00220044 0)
(0.11399 -0.00211436 0)
(0.114451 -0.00202777 0)
(0.114892 -0.0019407 0)
(0.115314 -0.00185318 0)
(0.115717 -0.00176523 0)
(0.1161 -0.00167688 0)
(0.116464 -0.00158816 0)
(0.116807 -0.00149909 0)
(0.117131 -0.0014097 0)
(0.117435 -0.00132001 0)
(0.117718 -0.00123006 0)
(0.117982 -0.00113987 0)
(0.118226 -0.00104946 0)
(0.118449 -0.000958858 0)
(0.118652 -0.000868088 0)
(0.118835 -0.000777176 0)
(0.118998 -0.000686145 0)
(0.119141 -0.000595019 0)
(0.119263 -0.000503822 0)
(0.119365 -0.000412576 0)