/*--------------------------------*- C++ -*----------------------------------*\
| =========                 |                                                 |
| \\      /  F ield         | OpenFOAM: The Open Source CFD Toolbox           |
|  \\    /   O peration     | Version:  v2012                                 |
|   \\  /    A nd           | Website:  www.openfoam.com                      |
|    \\/     M anipulation  |                                                 |
\*---------------------------------------------------------------------------*/
FoamFile
{
    version     2.0;
    format      ascii;
    class       volScalarField;
    location    "0.6";
    object      W;
}
// * * * * * * * * * * * * * * * * * * * * * * * * * * * * * * * * * * * * * //

dimensions      [0 0 -1 0 0 0 0];


internalField   nonuniform List<scalar> 
65536
(
4.36584e-22
1.22353e-21
1.99336e-21
2.89915e-21
4.0886e-21
5.70869e-21
7.9314e-21
1.09777e-20
1.51399e-20
2.08068e-20
2.84947e-20
3.88864e-20
5.28818e-20
7.1662e-20
9.6771e-20
1.30219e-19
1.74612e-19
2.33317e-19
3.10664e-19
4.12196e-19
5.44989e-19
7.18026e-19
9.42673e-19
1.23325e-18
1.60771e-18
2.08848e-18
2.70346e-18
3.48719e-18
4.48226e-18
5.74094e-18
7.32713e-18
9.31855e-18
1.18093e-17
1.49131e-17
1.87659e-17
2.35307e-17
2.9401e-17
3.66059e-17
4.5415e-17
5.61447e-17
6.91637e-17
8.48998e-17
1.03847e-16
1.26573e-16
1.53725e-16
1.86039e-16
2.24349e-16
2.69587e-16
3.22799e-16
3.85141e-16
4.57891e-16
5.42451e-16
6.40343e-16
7.53215e-16
8.82834e-16
1.03108e-15
1.19993e-15
1.39147e-15
1.60784e-15
1.85124e-15
2.1239e-15
2.42803e-15
2.76582e-15
3.13936e-15
3.55064e-15
4.00148e-15
4.49345e-15
5.0279e-15
5.60582e-15
6.22781e-15
6.89409e-15
7.60433e-15
8.35772e-15
9.15286e-15
9.98773e-15
1.08597e-14
1.17654e-14
1.2701e-14
1.36617e-14
1.46422e-14
1.56368e-14
1.66388e-14
1.76413e-14
1.86369e-14
1.96178e-14
2.05759e-14
2.15028e-14
2.23905e-14
2.32306e-14
2.40151e-14
2.47364e-14
2.53872e-14
2.59609e-14
2.64514e-14
2.68536e-14
2.71632e-14
2.73768e-14
2.74922e-14
2.75083e-14
2.74248e-14
2.72427e-14
2.69644e-14
2.65928e-14
2.61324e-14
2.55883e-14
2.49666e-14
2.42743e-14
2.3519e-14
2.27088e-14
2.18524e-14
2.09588e-14
2.00374e-14
1.90973e-14
1.8148e-14
1.71987e-14
1.62584e-14
1.53359e-14
1.44395e-14
1.35771e-14
1.27563e-14
1.19838e-14
1.12659e-14
1.06085e-14
1.00167e-14
9.49483e-15
9.04691e-15
8.67618e-15
8.38528e-15
8.17627e-15
8.05058e-15
8.00907e-15
8.05198e-15
8.17897e-15
8.3891e-15
8.68082e-15
9.05197e-15
9.49978e-15
1.00208e-14
1.06111e-14
1.1266e-14
1.19801e-14
1.27475e-14
1.35616e-14
1.44154e-14
1.53012e-14
1.62107e-14
1.71353e-14
1.8066e-14
1.89935e-14
1.99082e-14
2.08006e-14
2.16611e-14
2.24801e-14
2.32487e-14
2.39579e-14
2.45996e-14
2.51662e-14
2.56509e-14
2.60477e-14
2.63518e-14
2.65592e-14
2.66672e-14
2.66743e-14
2.658e-14
2.63852e-14
2.60919e-14
2.57032e-14
2.52232e-14
2.46573e-14
2.40115e-14
2.32925e-14
2.25081e-14
2.16662e-14
2.07753e-14
1.9844e-14
1.88811e-14
1.78953e-14
1.68952e-14
1.58891e-14
1.48849e-14
1.38899e-14
1.2911e-14
1.19543e-14
1.10254e-14
1.01289e-14
9.26905e-15
8.44903e-15
7.67142e-15
6.93813e-15
6.25035e-15
5.60867e-15
5.01314e-15
4.46325e-15
3.95808e-15
3.49628e-15
3.07622e-15
2.69598e-15
2.35344e-15
2.04632e-15
1.77227e-15
1.52887e-15
1.3137e-15
1.12435e-15
9.58494e-16
8.13875e-16
6.88345e-16
5.79875e-16
4.86565e-16
4.06655e-16
3.38523e-16
2.8069e-16
2.31816e-16
1.90693e-16
1.56243e-16
1.27509e-16
1.03647e-16
8.39169e-17
6.76727e-17
5.43564e-17
4.34872e-17
3.46534e-17
2.75044e-17
2.17436e-17
1.71211e-17
1.34278e-17
1.04894e-17
8.16144e-18
6.32492e-18
4.88219e-18
3.75358e-18
2.87441e-18
2.19242e-18
1.6656e-18
1.26034e-18
9.49897e-19
7.13079e-19
5.33175e-19
3.97077e-19
2.94545e-19
2.17621e-19
1.60148e-19
1.17386e-19
8.57002e-20
6.23191e-20
4.51372e-20
3.25627e-20
2.33981e-20
1.67462e-20
1.19377e-20
8.47597e-21
5.99312e-21
4.21646e-21
2.93939e-21
1.99223e-21
1.21136e-21
4.30389e-22
1.30488e-21
3.67376e-21
5.99767e-21
8.7287e-21
1.23103e-20
1.71851e-20
2.38708e-20
3.30312e-20
4.55442e-20
6.25772e-20
8.56793e-20
1.169e-19
1.58938e-19
2.15336e-19
2.90725e-19
3.91131e-19
5.24369e-19
7.00526e-19
9.32578e-19
1.23714e-18
1.6354e-18
2.15426e-18
2.82778e-18
3.6988e-18
4.82111e-18
6.26184e-18
8.10447e-18
1.04524e-17
1.3433e-17
1.72028e-17
2.19529e-17
2.79157e-17
3.53729e-17
4.46641e-17
5.61967e-17
7.04574e-17
8.80251e-17
1.09584e-16
1.35942e-16
1.68043e-16
2.06991e-16
2.54063e-16
3.10736e-16
3.78707e-16
4.59912e-16
5.56551e-16
6.71112e-16
8.06386e-16
9.65494e-16
1.1519e-15
1.36941e-15
1.62223e-15
1.9149e-15
2.25235e-15
2.63986e-15
3.08304e-15
3.58784e-15
4.16045e-15
4.8073e-15
5.53496e-15
6.35008e-15
7.25931e-15
8.26918e-15
9.38598e-15
1.06157e-14
1.19636e-14
1.34347e-14
1.50328e-14
1.67609e-14
1.8621e-14
2.06136e-14
2.27379e-14
2.49914e-14
2.73699e-14
2.98675e-14
3.24763e-14
3.51864e-14
3.7986e-14
4.08612e-14
4.37963e-14
4.67736e-14
4.97738e-14
5.2776e-14
5.57579e-14
5.86963e-14
6.1567e-14
6.43453e-14
6.70064e-14
6.95258e-14
7.18794e-14
7.40443e-14
7.59987e-14
7.77226e-14
7.9198e-14
8.04095e-14
8.1344e-14
8.19915e-14
8.23451e-14
8.24011e-14
8.21591e-14
8.1622e-14
8.07962e-14
7.96912e-14
7.83195e-14
7.66969e-14
7.48414e-14
7.27737e-14
7.05165e-14
6.80943e-14
6.5533e-14
6.28595e-14
6.01014e-14
5.72867e-14
5.44434e-14
5.15992e-14
4.8781e-14
4.6015e-14
4.33263e-14
4.07387e-14
3.82743e-14
3.59539e-14
3.37965e-14
3.18191e-14
3.00371e-14
2.84641e-14
2.71117e-14
2.59896e-14
2.5106e-14
2.44669e-14
2.40768e-14
2.3938e-14
2.40516e-14
2.44163e-14
2.50296e-14
2.58867e-14
2.69813e-14
2.83051e-14
2.9848e-14
3.15981e-14
3.35413e-14
3.5662e-14
3.79425e-14
4.03632e-14
4.2903e-14
4.55389e-14
4.82466e-14
5.10002e-14
5.37729e-14
5.65369e-14
5.9264e-14
6.19253e-14
6.44923e-14
6.69369e-14
6.92317e-14
7.13505e-14
7.32687e-14
7.49636e-14
7.64149e-14
7.76049e-14
7.85188e-14
7.91448e-14
7.94748e-14
7.95039e-14
7.9231e-14
7.86583e-14
7.77916e-14
7.66402e-14
7.52166e-14
7.35362e-14
7.16169e-14
6.94794e-14
6.71459e-14
6.46404e-14
6.1988e-14
5.92146e-14
5.63464e-14
5.34093e-14
5.04289e-14
4.74299e-14
4.4436e-14
4.14691e-14
3.85496e-14
3.56959e-14
3.29247e-14
3.025e-14
2.7684e-14
2.52366e-14
2.29156e-14
2.07265e-14
1.86731e-14
1.67572e-14
1.49788e-14
1.33366e-14
1.18278e-14
1.04484e-14
9.19357e-15
8.05759e-15
7.03416e-15
6.11651e-15
5.2976e-15
4.57023e-15
3.92716e-15
3.36125e-15
2.86551e-15
2.43324e-15
2.058e-15
1.73374e-15
1.45479e-15
1.21589e-15
1.0122e-15
8.39287e-16
6.93157e-16
5.70199e-16
4.67193e-16
3.81276e-16
3.09925e-16
2.50926e-16
2.02352e-16
1.62533e-16
1.30031e-16
1.03616e-16
8.22384e-17
6.50122e-17
5.11901e-17
4.01465e-17
3.13602e-17
2.43996e-17
1.89084e-17
1.45948e-17
1.12205e-17
8.592e-18
6.55311e-18
4.97819e-18
3.76674e-18
2.83876e-18
2.1309e-18
1.59319e-18
1.18643e-18
8.80012e-19
6.50138e-19
4.78402e-19
3.50632e-19
2.55965e-19
1.86116e-19
1.3479e-19
9.72303e-20
6.98585e-20
4.99931e-20
3.56345e-20
2.52983e-20
1.78855e-20
1.25814e-20
8.76797e-21
5.93765e-21
3.60264e-21
1.27425e-21
2.36057e-21
6.65983e-21
1.08843e-20
1.58463e-20
2.23489e-20
3.11959e-20
4.33264e-20
5.99442e-20
8.26408e-20
1.13531e-19
1.55423e-19
2.12028e-19
2.88237e-19
3.90465e-19
5.27099e-19
7.09051e-19
9.50469e-19
1.26962e-18
1.68998e-18
2.24163e-18
2.96292e-18
3.90253e-18
5.12206e-18
6.69907e-18
8.73081e-18
1.13387e-17
1.46738e-17
1.89231e-17
2.43168e-17
3.1138e-17
3.97322e-17
5.05196e-17
6.40094e-17
8.08153e-17
1.01674e-16
1.27464e-16
1.59233e-16
1.98216e-16
2.45873e-16
3.0391e-16
3.74318e-16
4.59409e-16
5.61848e-16
6.84699e-16
8.3146e-16
1.0061e-15
1.21312e-15
1.45755e-15
1.74503e-15
2.0818e-15
2.47477e-15
2.93148e-15
3.46015e-15
4.06968e-15
4.76959e-15
5.57002e-15
6.48167e-15
7.51574e-15
8.68381e-15
9.99773e-15
1.14695e-14
1.31111e-14
1.49344e-14
1.69506e-14
1.91704e-14
2.16037e-14
2.42591e-14
2.71436e-14
3.02628e-14
3.36199e-14
3.7216e-14
4.10496e-14
4.51161e-14
4.94081e-14
5.39148e-14
5.86219e-14
6.35116e-14
6.85624e-14
7.37495e-14
7.90443e-14
8.4415e-14
8.98267e-14
9.52416e-14
1.0062e-13
1.05919e-13
1.11096e-13
1.16106e-13
1.20904e-13
1.25446e-13
1.29689e-13
1.33592e-13
1.37114e-13
1.4022e-13
1.42878e-13
1.4506e-13
1.46742e-13
1.47906e-13
1.4854e-13
1.48638e-13
1.48197e-13
1.47225e-13
1.45732e-13
1.43735e-13
1.41258e-13
1.38328e-13
1.34978e-13
1.31245e-13
1.27171e-13
1.22799e-13
1.18177e-13
1.13352e-13
1.08374e-13
1.03295e-13
9.81641e-14
9.30312e-14
8.79452e-14
8.29532e-14
7.81003e-14
7.34292e-14
6.89799e-14
6.47897e-14
6.08927e-14
5.73196e-14
5.40981e-14
5.12524e-14
4.88034e-14
4.67687e-14
4.51626e-14
4.39959e-14
4.32766e-14
4.30091e-14
4.31947e-14
4.38315e-14
4.49145e-14
4.64354e-14
4.83825e-14
5.0741e-14
5.34927e-14
5.6616e-14
6.00859e-14
6.3874e-14
6.79487e-14
7.22748e-14
7.68144e-14
8.15264e-14
8.6367e-14
9.12901e-14
9.62474e-14
1.01189e-13
1.06065e-13
1.10823e-13
1.15413e-13
1.19783e-13
1.23885e-13
1.27673e-13
1.31101e-13
1.3413e-13
1.36723e-13
1.38848e-13
1.4048e-13
1.41596e-13
1.42183e-13
1.42232e-13
1.4174e-13
1.40712e-13
1.39159e-13
1.37096e-13
1.34547e-13
1.31538e-13
1.28102e-13
1.24276e-13
1.201e-13
1.15616e-13
1.1087e-13
1.05907e-13
1.00775e-13
9.55202e-14
9.01881e-14
8.48232e-14
7.94673e-14
7.416e-14
6.89377e-14
6.38334e-14
5.88766e-14
5.40926e-14
4.95033e-14
4.51262e-14
4.09751e-14
3.70602e-14
3.3388e-14
2.99617e-14
2.67815e-14
2.38449e-14
2.11468e-14
1.86803e-14
1.64365e-14
1.44053e-14
1.25754e-14
1.09347e-14
9.4705e-15
8.17002e-15
7.02029e-15
6.00853e-15
5.12227e-15
4.34946e-15
3.67864e-15
3.09897e-15
2.60031e-15
2.17325e-15
1.80913e-15
1.50005e-15
1.23884e-15
1.01907e-15
8.34952e-16
6.81387e-16
5.5386e-16
4.48413e-16
3.61601e-16
2.90437e-16
2.32352e-16
1.85145e-16
1.46943e-16
1.1616e-16
9.14604e-17
7.17267e-17
5.60273e-17
4.35901e-17
3.3779e-17
2.6072e-17
2.00434e-17
1.53476e-17
1.17052e-17
8.8917e-18
6.72762e-18
5.07e-18
3.80561e-18
2.84519e-18
2.11869e-18
1.57143e-18
1.16089e-18
8.54199e-19
6.26033e-19
4.56989e-19
3.32266e-19
2.40623e-19
1.73564e-19
1.24697e-19
8.92324e-20
6.36004e-20
4.51498e-20
3.19183e-20
2.24507e-20
1.56434e-20
1.05894e-20
6.41893e-21
2.26631e-21
3.90301e-21
1.10204e-20
1.80191e-20
2.6238e-20
3.7005e-20
5.16512e-20
7.17307e-20
9.92357e-20
1.36799e-19
1.8792e-19
2.57241e-19
3.50903e-19
4.76993e-19
6.46122e-19
8.72155e-19
1.17314e-18
1.57246e-18
2.10032e-18
2.79554e-18
3.70782e-18
4.90055e-18
6.45422e-18
8.4706e-18
1.10779e-17
1.44367e-17
1.87478e-17
2.42606e-17
3.12839e-17
4.01985e-17
5.14715e-17
6.56735e-17
8.34989e-17
1.05788e-16
1.33555e-16
1.68015e-16
2.1062e-16
2.63098e-16
3.2749e-16
4.06202e-16
5.02052e-16
6.18326e-16
7.58837e-16
9.27984e-16
1.13082e-15
1.37311e-15
1.66142e-15
2.00315e-15
2.40661e-15
2.88108e-15
3.43687e-15
4.08535e-15
4.83896e-15
5.71125e-15
6.71685e-15
7.87148e-15
9.19182e-15
1.06955e-14
1.2401e-14
1.43272e-14
1.64938e-14
1.89205e-14
2.1627e-14
2.46325e-14
2.79559e-14
3.16145e-14
3.56246e-14
4e-14
4.47527e-14
4.98913e-14
5.54212e-14
6.13442e-14
6.76574e-14
7.43535e-14
8.14199e-14
8.88387e-14
9.65863e-14
1.04633e-13
1.12944e-13
1.21478e-13
1.30187e-13
1.39019e-13
1.47918e-13
1.56819e-13
1.65659e-13
1.74366e-13
1.8287e-13
1.91097e-13
1.98975e-13
2.06429e-13
2.13389e-13
2.19787e-13
2.25558e-13
2.30643e-13
2.3499e-13
2.38552e-13
2.41292e-13
2.4318e-13
2.44195e-13
2.44327e-13
2.43576e-13
2.4195e-13
2.39469e-13
2.3616e-13
2.32063e-13
2.27222e-13
2.21693e-13
2.15536e-13
2.0882e-13
2.01617e-13
1.94003e-13
1.86059e-13
1.77866e-13
1.69508e-13
1.61066e-13
1.52624e-13
1.4426e-13
1.36052e-13
1.28073e-13
1.20395e-13
1.13081e-13
1.06194e-13
9.97884e-14
9.39149e-14
8.86184e-14
8.39384e-14
7.99089e-14
7.65583e-14
7.39097e-14
7.19808e-14
7.07839e-14
7.03262e-14
7.06094e-14
7.16302e-14
7.338e-14
7.58448e-14
7.90055e-14
8.28375e-14
8.73107e-14
9.23896e-14
9.80332e-14
1.04195e-13
1.10823e-13
1.1786e-13
1.25243e-13
1.32906e-13
1.40777e-13
1.48781e-13
1.56839e-13
1.64871e-13
1.72792e-13
1.80521e-13
1.87973e-13
1.95067e-13
2.01722e-13
2.07864e-13
2.1342e-13
2.18324e-13
2.22518e-13
2.25951e-13
2.28579e-13
2.30369e-13
2.31297e-13
2.3135e-13
2.30524e-13
2.28827e-13
2.26275e-13
2.22897e-13
2.18728e-13
2.13813e-13
2.08206e-13
2.01966e-13
1.95159e-13
1.87853e-13
1.80123e-13
1.72043e-13
1.6369e-13
1.55139e-13
1.46465e-13
1.37739e-13
1.2903e-13
1.20401e-13
1.11912e-13
1.03617e-13
9.5562e-14
8.77895e-14
8.03343e-14
7.32249e-14
6.64835e-14
6.01266e-14
5.41644e-14
4.86022e-14
4.34401e-14
3.86738e-14
3.42953e-14
3.02929e-14
2.66524e-14
2.33571e-14
2.03886e-14
1.77273e-14
1.53526e-14
1.32435e-14
1.13791e-14
9.73856e-15
8.30162e-15
7.04872e-15
5.96126e-15
5.02162e-15
4.21335e-15
3.52119e-15
2.93107e-15
2.43019e-15
2.00692e-15
1.6508e-15
1.35249e-15
1.10369e-15
8.97086e-16
7.26263e-16
5.85634e-16
4.70361e-16
3.76278e-16
2.99818e-16
2.37946e-16
1.88092e-16
1.48092e-16
1.16136e-16
9.0713e-17
7.05739e-17
5.46876e-17
4.22089e-17
3.24481e-17
2.48453e-17
1.89483e-17
1.43935e-17
1.08901e-17
8.20665e-18
6.15987e-18
4.60519e-18
3.42921e-18
2.54338e-18
1.87888e-18
1.38247e-18
1.01318e-18
7.3958e-19
5.37721e-19
3.89404e-19
2.80876e-19
2.01791e-19
1.44398e-19
1.02918e-19
7.30599e-20
5.16482e-20
3.63275e-20
2.53116e-20
1.71325e-20
1.03831e-20
3.66465e-21
6.31851e-21
1.78471e-20
2.9187e-20
4.25027e-20
5.99441e-20
8.36667e-20
1.16188e-19
1.60733e-19
2.21564e-19
3.04348e-19
4.166e-19
5.68261e-19
7.7242e-19
1.04625e-18
1.4122e-18
1.89947e-18
2.54592e-18
3.40041e-18
4.52576e-18
6.00241e-18
7.93291e-18
1.04475e-17
1.37108e-17
1.79301e-17
2.33655e-17
3.03415e-17
3.92615e-17
5.06252e-17
6.50481e-17
8.32856e-17
1.06261e-16
1.35096e-16
1.7115e-16
2.16061e-16
2.71795e-16
3.40699e-16
4.25563e-16
5.29688e-16
6.56962e-16
8.11936e-16
9.99922e-16
1.22708e-15
1.50051e-15
1.82837e-15
2.21999e-15
2.68594e-15
3.23818e-15
3.89014e-15
4.65678e-15
5.55475e-15
6.60237e-15
7.81974e-15
9.22869e-15
1.08528e-14
1.27175e-14
1.48495e-14
1.72774e-14
2.00308e-14
2.31403e-14
2.66374e-14
3.05539e-14
3.49215e-14
3.97712e-14
4.51329e-14
5.1035e-14
5.75029e-14
6.45595e-14
7.22232e-14
8.05081e-14
8.94227e-14
9.89694e-14
1.09144e-13
1.19933e-13
1.31317e-13
1.43267e-13
1.55744e-13
1.687e-13
1.82079e-13
1.95814e-13
2.09828e-13
2.24036e-13
2.38347e-13
2.5266e-13
2.66868e-13
2.8086e-13
2.9452e-13
3.0773e-13
3.20373e-13
3.32331e-13
3.43489e-13
3.53739e-13
3.62977e-13
3.71109e-13
3.7805e-13
3.83726e-13
3.88076e-13
3.91055e-13
3.9263e-13
3.92784e-13
3.91517e-13
3.88844e-13
3.84797e-13
3.79421e-13
3.72779e-13
3.64946e-13
3.56008e-13
3.46066e-13
3.35228e-13
3.23611e-13
3.11339e-13
2.9854e-13
2.85346e-13
2.71891e-13
2.58306e-13
2.44724e-13
2.31272e-13
2.18074e-13
2.05248e-13
1.92907e-13
1.81155e-13
1.70089e-13
1.59798e-13
1.50363e-13
1.41854e-13
1.34334e-13
1.27858e-13
1.22471e-13
1.18207e-13
1.15097e-13
1.13157e-13
1.124e-13
1.12827e-13
1.14433e-13
1.17203e-13
1.21114e-13
1.26135e-13
1.32226e-13
1.39339e-13
1.47417e-13
1.56392e-13
1.66192e-13
1.76732e-13
1.87921e-13
1.99658e-13
2.11838e-13
2.24346e-13
2.37061e-13
2.49859e-13
2.6261e-13
2.75182e-13
2.87443e-13
2.9926e-13
3.10503e-13
3.21046e-13
3.30767e-13
3.39553e-13
3.47301e-13
3.53917e-13
3.5932e-13
3.63442e-13
3.66231e-13
3.6765e-13
3.67678e-13
3.66309e-13
3.63557e-13
3.59449e-13
3.5403e-13
3.47357e-13
3.39502e-13
3.30551e-13
3.20599e-13
3.09748e-13
2.98111e-13
2.85804e-13
2.72947e-13
2.59659e-13
2.46062e-13
2.32273e-13
2.18406e-13
2.0457e-13
1.90866e-13
1.77387e-13
1.64217e-13
1.51433e-13
1.391e-13
1.27273e-13
1.15996e-13
1.05305e-13
9.52253e-14
8.57734e-14
7.6957e-14
6.87761e-14
6.12236e-14
5.42866e-14
4.79465e-14
4.21803e-14
3.69617e-14
3.22612e-14
2.80476e-14
2.42883e-14
2.09499e-14
1.79991e-14
1.54029e-14
1.31291e-14
1.11468e-14
9.4264e-15
7.94e-15
6.66153e-15
5.5668e-15
4.63357e-15
3.84151e-15
3.17223e-15
2.60918e-15
2.13756e-15
1.74425e-15
1.41766e-15
1.14765e-15
9.25381e-16
7.43199e-16
5.94515e-16
4.73689e-16
3.7592e-16
2.97146e-16
2.33947e-16
1.83457e-16
1.43293e-16
1.11477e-16
8.63806e-17
6.66682e-17
5.12498e-17
3.92407e-17
2.99262e-17
2.2732e-17
1.71987e-17
1.29605e-17
9.72792e-18
7.27259e-18
5.41538e-18
4.01643e-18
2.96704e-18
2.18312e-18
1.59993e-18
1.16788e-18
8.49117e-19
6.14906e-19
4.43529e-19
3.18646e-19
2.28017e-19
1.62516e-19
1.15368e-19
8.15574e-20
5.7365e-20
3.99705e-20
2.7056e-20
1.63991e-20
5.7892e-21
1.01563e-20
2.86938e-20
4.69318e-20
6.83461e-20
9.6392e-20
1.34535e-19
1.86822e-19
2.58439e-19
3.56237e-19
4.89322e-19
6.69775e-19
9.13569e-19
1.24174e-18
1.6819e-18
2.2701e-18
3.05327e-18
4.09223e-18
5.46551e-18
7.27402e-18
9.64699e-18
1.27492e-17
1.67897e-17
2.20332e-17
2.88125e-17
3.75452e-17
4.87527e-17
6.30828e-17
8.13376e-17
1.04506e-16
1.338e-16
1.70702e-16
2.17014e-16
2.74917e-16
3.47041e-16
4.3654e-16
5.47182e-16
6.83444e-16
8.50623e-16
1.05495e-15
1.30374e-15
1.60551e-15
1.97012e-15
2.40898e-15
2.93517e-15
3.56364e-15
4.31135e-15
5.19745e-15
6.24345e-15
7.47338e-15
8.91387e-15
1.05943e-14
1.25468e-14
1.48064e-14
1.74108e-14
2.04007e-14
2.38189e-14
2.77111e-14
3.21246e-14
3.71084e-14
4.27129e-14
4.89887e-14
5.59865e-14
6.37558e-14
7.23444e-14
8.17971e-14
9.21549e-14
1.03454e-13
1.15723e-13
1.28985e-13
1.43252e-13
1.58529e-13
1.74807e-13
1.92066e-13
2.10274e-13
2.29382e-13
2.4933e-13
2.70041e-13
2.91421e-13
3.13365e-13
3.35751e-13
3.58442e-13
3.8129e-13
4.04134e-13
4.26804e-13
4.49121e-13
4.70901e-13
4.91955e-13
5.12095e-13
5.31133e-13
5.48888e-13
5.65186e-13
5.79861e-13
5.92763e-13
6.03759e-13
6.1273e-13
6.19582e-13
6.24241e-13
6.26656e-13
6.26802e-13
6.2468e-13
6.20315e-13
6.13757e-13
6.05084e-13
5.94392e-13
5.81803e-13
5.67459e-13
5.51517e-13
5.34152e-13
5.15551e-13
4.95913e-13
4.75442e-13
4.54349e-13
4.32846e-13
4.11145e-13
3.89454e-13
3.67978e-13
3.46914e-13
3.26449e-13
3.06761e-13
2.88018e-13
2.70371e-13
2.53962e-13
2.38919e-13
2.25353e-13
2.13364e-13
2.03036e-13
1.94439e-13
1.87632e-13
1.82655e-13
1.7954e-13
1.78302e-13
1.78943e-13
1.81452e-13
1.85807e-13
1.9197e-13
1.9989e-13
2.09503e-13
2.20731e-13
2.33484e-13
2.47655e-13
2.63125e-13
2.79762e-13
2.97421e-13
3.15942e-13
3.35157e-13
3.54883e-13
3.74931e-13
3.95103e-13
4.15194e-13
4.34995e-13
4.54298e-13
4.72894e-13
4.90576e-13
5.07145e-13
5.22412e-13
5.36198e-13
5.4834e-13
5.58692e-13
5.67126e-13
5.73537e-13
5.77842e-13
5.79985e-13
5.79934e-13
5.77682e-13
5.73249e-13
5.66681e-13
5.58048e-13
5.47443e-13
5.34981e-13
5.20795e-13
5.05037e-13
4.8787e-13
4.69471e-13
4.50022e-13
4.29713e-13
4.08735e-13
3.87275e-13
3.65521e-13
3.43652e-13
3.21836e-13
3.00235e-13
2.78995e-13
2.58248e-13
2.38113e-13
2.18692e-13
2.00072e-13
1.82322e-13
1.65498e-13
1.49639e-13
1.3477e-13
1.20904e-13
1.08039e-13
9.61643e-14
8.52591e-14
7.52937e-14
6.62319e-14
5.80317e-14
5.06467e-14
4.40276e-14
3.81228e-14
3.28799e-14
2.82463e-14
2.41699e-14
2.06002e-14
1.74885e-14
1.47881e-14
1.24553e-14
1.0449e-14
8.73122e-15
7.26699e-15
6.02437e-15
4.97447e-15
4.09128e-15
3.35156e-15
2.73471e-15
2.22255e-15
1.79914e-15
1.45062e-15
1.16498e-15
9.31871e-16
7.42449e-16
5.89184e-16
4.65702e-16
3.66639e-16
2.87502e-16
2.24551e-16
1.74688e-16
1.35357e-16
1.04465e-16
8.03034e-17
6.14848e-17
4.68893e-17
3.56165e-17
2.69463e-17
2.03058e-17
1.52409e-17
1.1394e-17
8.48419e-18
6.29242e-18
4.64832e-18
3.42017e-18
2.50652e-18
1.82964e-18
1.33025e-18
9.63331e-19
6.94848e-19
4.99203e-19
3.57221e-19
2.54607e-19
1.80743e-19
1.27775e-19
8.98743e-20
6.26247e-20
4.23948e-20
2.57018e-20
9.07651e-21
1.6252e-20
4.59246e-20
7.51229e-20
1.09404e-19
1.54297e-19
2.15349e-19
2.99036e-19
4.13656e-19
5.70172e-19
7.83154e-19
1.07193e-18
1.46206e-18
1.9872e-18
2.6915e-18
3.63265e-18
4.88572e-18
6.54801e-18
8.74509e-18
1.16384e-17
1.54345e-17
2.03971e-17
2.68605e-17
3.52476e-17
4.60911e-17
6.00584e-17
7.7983e-17
1.00901e-16
1.30094e-16
1.67143e-16
2.13986e-16
2.72991e-16
3.47038e-16
4.39614e-16
5.54919e-16
6.97996e-16
8.74861e-16
1.09267e-15
1.35988e-15
1.68645e-15
2.08405e-15
2.56628e-15
3.14891e-15
3.85014e-15
4.69086e-15
5.6949e-15
6.88935e-15
8.30477e-15
9.9755e-15
1.19398e-14
1.42403e-14
1.69236e-14
2.00412e-14
2.36488e-14
2.78066e-14
3.25791e-14
3.8035e-14
4.42467e-14
5.12896e-14
5.92419e-14
6.81834e-14
7.81949e-14
8.93567e-14
1.01748e-13
1.15444e-13
1.30516e-13
1.47028e-13
1.65039e-13
1.84594e-13
2.05727e-13
2.2846e-13
2.52796e-13
2.78724e-13
3.0621e-13
3.35201e-13
3.65621e-13
3.97371e-13
4.30328e-13
4.64344e-13
4.99248e-13
5.34847e-13
5.70922e-13
6.07237e-13
6.43535e-13
6.79545e-13
7.14982e-13
7.49554e-13
7.8296e-13
8.149e-13
8.45077e-13
8.73203e-13
8.99e-13
9.22208e-13
9.42588e-13
9.59929e-13
9.74046e-13
9.84787e-13
9.92038e-13
9.9572e-13
9.95795e-13
9.92265e-13
9.85172e-13
9.74599e-13
9.60667e-13
9.43535e-13
9.23397e-13
9.00477e-13
8.7503e-13
8.47333e-13
8.17685e-13
7.864e-13
7.53805e-13
7.20233e-13
6.86023e-13
6.5151e-13
6.17025e-13
5.82892e-13
5.49423e-13
5.16914e-13
4.85648e-13
4.55886e-13
4.27871e-13
4.01825e-13
3.77947e-13
3.56416e-13
3.37385e-13
3.20988e-13
3.07335e-13
2.96513e-13
2.88589e-13
2.83609e-13
2.81595e-13
2.8255e-13
2.86456e-13
2.93273e-13
3.02941e-13
3.1538e-13
3.30485e-13
3.48134e-13
3.68179e-13
3.90455e-13
4.14772e-13
4.40919e-13
4.68668e-13
4.97766e-13
5.27946e-13
5.58922e-13
5.90394e-13
6.2205e-13
6.53568e-13
6.84621e-13
7.14878e-13
7.44012e-13
7.71699e-13
7.97628e-13
8.215e-13
8.43037e-13
8.61982e-13
8.78107e-13
8.91214e-13
9.01139e-13
9.07755e-13
9.10972e-13
9.10742e-13
9.07058e-13
8.99953e-13
8.89499e-13
8.75809e-13
8.59031e-13
8.39345e-13
8.16962e-13
7.92121e-13
7.6508e-13
7.36116e-13
7.05516e-13
6.73578e-13
6.40601e-13
6.06881e-13
5.7271e-13
5.38369e-13
5.04123e-13
4.70223e-13
4.36898e-13
4.04356e-13
3.7278e-13
3.42332e-13
3.13145e-13
2.85329e-13
2.58968e-13
2.34124e-13
2.10836e-13
1.89121e-13
1.68978e-13
1.50389e-13
1.3332e-13
1.17725e-13
1.03546e-13
9.07165e-14
7.91644e-14
6.88116e-14
5.95773e-14
5.13792e-14
4.41345e-14
3.7762e-14
3.21822e-14
2.73187e-14
2.30986e-14
1.94533e-14
1.63186e-14
1.36349e-14
1.13475e-14
9.40652e-15
7.76669e-15
6.38735e-15
5.23218e-15
4.26896e-15
3.46927e-15
2.80821e-15
2.2641e-15
1.81819e-15
1.45431e-15
1.15864e-15
9.1942e-16
7.26698e-16
5.72094e-16
4.48595e-16
3.5036e-16
2.72551e-16
2.11181e-16
1.62979e-16
1.25281e-16
9.59198e-17
7.31483e-17
5.55614e-17
4.20353e-17
3.16758e-17
2.37746e-17
1.77734e-17
1.32343e-17
9.81534e-18
7.25072e-18
5.33494e-18
3.90977e-18
2.85395e-18
2.07498e-18
1.50264e-18
1.08385e-18
7.78681e-19
5.57215e-19
3.97153e-19
2.81938e-19
1.99316e-19
1.40198e-19
9.76945e-20
6.61431e-20
4.01087e-20
1.41699e-20
2.59011e-20
7.32049e-20
1.1976e-19
1.74417e-19
2.45986e-19
3.43308e-19
4.76707e-19
6.59408e-19
9.08881e-19
1.24834e-18
1.7086e-18
2.33037e-18
3.16727e-18
4.28967e-18
5.78948e-18
7.78627e-18
1.04351e-17
1.39359e-17
1.85459e-17
2.45942e-17
3.25006e-17
4.27977e-17
5.61592e-17
7.3433e-17
9.56822e-17
1.24234e-16
1.60738e-16
2.07235e-16
2.6624e-16
3.40842e-16
4.34807e-16
5.52722e-16
7.00134e-16
8.8373e-16
1.11153e-15
1.39312e-15
1.73986e-15
2.16523e-15
2.68507e-15
3.31793e-15
4.08545e-15
5.01271e-15
6.12864e-15
7.46644e-15
9.06404e-15
1.09645e-14
1.32163e-14
1.58741e-14
1.89988e-14
2.26577e-14
2.69254e-14
3.18832e-14
3.76197e-14
4.42306e-14
5.18182e-14
6.04915e-14
7.03651e-14
8.15588e-14
9.41966e-14
1.08405e-13
1.24312e-13
1.42044e-13
1.61727e-13
1.8348e-13
2.07415e-13
2.33636e-13
2.6223e-13
2.93272e-13
3.26815e-13
3.62891e-13
4.01506e-13
4.42639e-13
4.86238e-13
5.32215e-13
5.80449e-13
6.30783e-13
6.83019e-13
7.36924e-13
7.92224e-13
8.4861e-13
9.05737e-13
9.63228e-13
1.02068e-12
1.07765e-12
1.1337e-12
1.18836e-12
1.24116e-12
1.29162e-12
1.33926e-12
1.38364e-12
1.42432e-12
1.46088e-12
1.49295e-12
1.52019e-12
1.54232e-12
1.55909e-12
1.57033e-12
1.57592e-12
1.57579e-12
1.56996e-12
1.55849e-12
1.54152e-12
1.51924e-12
1.4919e-12
1.45982e-12
1.42335e-12
1.38289e-12
1.3389e-12
1.29183e-12
1.24219e-12
1.19049e-12
1.13728e-12
1.08307e-12
1.02839e-12
9.73787e-13
9.19751e-13
8.66781e-13
8.15344e-13
7.65883e-13
7.18811e-13
6.74509e-13
6.33327e-13
5.95575e-13
5.61534e-13
5.31444e-13
5.05513e-13
4.83912e-13
4.66776e-13
4.54209e-13
4.46278e-13
4.43019e-13
4.44431e-13
4.50485e-13
4.61115e-13
4.76225e-13
4.95685e-13
5.1933e-13
5.46963e-13
5.78353e-13
6.13235e-13
6.51312e-13
6.92251e-13
7.35688e-13
7.81231e-13
8.28455e-13
8.76913e-13
9.26134e-13
9.75626e-13
1.02489e-12
1.0734e-12
1.12065e-12
1.16613e-12
1.20932e-12
1.24975e-12
1.28694e-12
1.32046e-12
1.34991e-12
1.37494e-12
1.39523e-12
1.41054e-12
1.42067e-12
1.42547e-12
1.42489e-12
1.4189e-12
1.40756e-12
1.391e-12
1.36937e-12
1.34293e-12
1.31196e-12
1.27678e-12
1.23777e-12
1.19534e-12
1.14992e-12
1.10196e-12
1.05192e-12
1.00028e-12
9.47494e-13
8.9402e-13
8.40296e-13
7.86739e-13
7.33736e-13
6.81646e-13
6.30792e-13
5.81461e-13
5.339e-13
4.8832e-13
4.44889e-13
4.03739e-13
3.64964e-13
3.28623e-13
2.94744e-13
2.63322e-13
2.34329e-13
2.07711e-13
1.83395e-13
1.6129e-13
1.41292e-13
1.23287e-13
1.07154e-13
9.27661e-14
7.99937e-14
6.87084e-14
5.87827e-14
5.00926e-14
4.2519e-14
3.5948e-14
3.02726e-14
2.53926e-14
2.12151e-14
1.76549e-14
1.46341e-14
1.20821e-14
9.93578e-15
8.13839e-15
6.63977e-15
5.39566e-15
4.36731e-15
3.52095e-15
2.82736e-15
2.26141e-15
1.80157e-15
1.42955e-15
1.12985e-15
8.89446e-16
6.97415e-16
5.44675e-16
4.23699e-16
3.28285e-16
2.53348e-16
1.94741e-16
1.49098e-16
1.137e-16
8.63614e-17
6.53361e-17
4.92334e-17
3.69521e-17
2.76243e-17
2.05692e-17
1.52552e-17
1.12691e-17
8.29157e-18
6.07654e-18
4.43558e-18
3.22491e-18
2.33539e-18
1.68452e-18
1.21023e-18
8.66027e-19
6.17262e-19
4.38197e-19
3.09786e-19
2.17906e-19
1.51851e-19
1.02821e-19
6.23646e-20
2.20414e-20
4.11153e-20
1.16227e-19
1.90162e-19
2.76958e-19
3.90598e-19
5.45122e-19
7.56917e-19
1.04698e-18
1.44303e-18
1.98194e-18
2.71257e-18
3.69957e-18
5.02804e-18
6.80962e-18
9.19016e-18
1.23594e-17
1.65634e-17
2.21194e-17
2.94355e-17
3.90339e-17
5.15803e-17
6.792e-17
8.91213e-17
1.16529e-16
1.5183e-16
1.97129e-16
2.55041e-16
3.28804e-16
4.22407e-16
5.40743e-16
6.8979e-16
8.76814e-16
1.11061e-15
1.40178e-15
1.76304e-15
2.20957e-15
2.75939e-15
3.43385e-15
4.25805e-15
5.26139e-15
6.47812e-15
7.948e-15
9.71684e-15
1.18372e-14
1.43692e-14
1.73809e-14
2.09493e-14
2.51606e-14
3.01112e-14
3.5908e-14
4.26685e-14
5.05217e-14
5.96076e-14
7.00773e-14
8.20928e-14
9.58262e-14
1.11459e-13
1.2918e-13
1.49184e-13
1.71673e-13
1.96847e-13
2.24907e-13
2.5605e-13
2.90464e-13
3.28326e-13
3.69797e-13
4.15017e-13
4.641e-13
5.17131e-13
5.74158e-13
6.35191e-13
7.00192e-13
7.69077e-13
8.41709e-13
9.17892e-13
9.97377e-13
1.07985e-12
1.16494e-12
1.25221e-12
1.34118e-12
1.43129e-12
1.52196e-12
1.61253e-12
1.70233e-12
1.79064e-12
1.87674e-12
1.95986e-12
2.03926e-12
2.1142e-12
2.18396e-12
2.24786e-12
2.30523e-12
2.3555e-12
2.39814e-12
2.4327e-12
2.45879e-12
2.47615e-12
2.48459e-12
2.48402e-12
2.47445e-12
2.45599e-12
2.42887e-12
2.39338e-12
2.34995e-12
2.29905e-12
2.24125e-12
2.17719e-12
2.10757e-12
2.03315e-12
1.95469e-12
1.87303e-12
1.789e-12
1.70343e-12
1.61716e-12
1.53102e-12
1.44581e-12
1.3623e-12
1.28122e-12
1.20328e-12
1.12911e-12
1.05933e-12
9.94458e-13
9.35e-13
8.81384e-13
8.33989e-13
7.93135e-13
7.59088e-13
7.32058e-13
7.12201e-13
6.99621e-13
6.94368e-13
6.9644e-13
7.05785e-13
7.22298e-13
7.45823e-13
7.76152e-13
8.13025e-13
8.5613e-13
9.05102e-13
9.59523e-13
1.01892e-12
1.08278e-12
1.15053e-12
1.22155e-12
1.29517e-12
1.3707e-12
1.4474e-12
1.5245e-12
1.60121e-12
1.67673e-12
1.75025e-12
1.82098e-12
1.88812e-12
1.95092e-12
2.00865e-12
2.06064e-12
2.10626e-12
2.14497e-12
2.17629e-12
2.19982e-12
2.21527e-12
2.22242e-12
2.22116e-12
2.21148e-12
2.19348e-12
2.16733e-12
2.13332e-12
2.09182e-12
2.04326e-12
1.98818e-12
1.92716e-12
1.86083e-12
1.78986e-12
1.71497e-12
1.63687e-12
1.55629e-12
1.47396e-12
1.39059e-12
1.30685e-12
1.2234e-12
1.14083e-12
1.0597e-12
9.80519e-13
9.03725e-13
8.29704e-13
7.58779e-13
6.91211e-13
6.27204e-13
5.66903e-13
5.10397e-13
4.57728e-13
4.08887e-13
3.63828e-13
3.22467e-13
2.84687e-13
2.50348e-13
2.19287e-13
1.91326e-13
1.66274e-13
1.43934e-13
1.24106e-13
1.06588e-13
9.11829e-14
7.76967e-14
6.59443e-14
5.5749e-14
4.6944e-14
3.93737e-14
3.28938e-14
2.73719e-14
2.26869e-14
1.87296e-14
1.54014e-14
1.26145e-14
1.02911e-14
8.36238e-15
6.76825e-15
5.45633e-15
4.38129e-15
3.50413e-15
2.79148e-15
2.21495e-15
1.75053e-15
1.37801e-15
1.08046e-15
8.43803e-16
6.56368e-16
5.08544e-16
3.9245e-16
3.01657e-16
2.3095e-16
1.76115e-16
1.33767e-16
1.01198e-16
7.62559e-17
5.72331e-17
4.27853e-17
3.18578e-17
2.36272e-17
1.74534e-17
1.28418e-17
9.41116e-18
6.86967e-18
4.99462e-18
3.61697e-18
2.60893e-18
1.87436e-18
1.34129e-18
9.56009e-19
6.7868e-19
4.79802e-19
3.37503e-19
2.35204e-19
1.59277e-19
9.66304e-20
3.41653e-20
6.50077e-20
1.838e-19
3.00751e-19
4.38036e-19
6.17765e-19
8.62136e-19
1.19706e-18
1.65574e-18
2.28201e-18
3.13414e-18
4.28939e-18
5.84994e-18
7.95031e-18
1.0767e-17
1.45305e-17
1.95407e-17
2.61865e-17
3.49692e-17
4.65338e-17
6.17055e-17
8.15362e-17
1.07361e-16
1.40869e-16
1.84185e-16
2.39972e-16
3.11555e-16
4.03067e-16
5.19622e-16
6.67518e-16
8.54486e-16
1.08996e-15
1.38543e-15
1.75477e-15
2.21472e-15
2.78535e-15
3.49063e-15
4.35903e-15
5.42421e-15
6.72579e-15
8.31018e-15
1.02314e-14
1.25523e-14
1.53449e-14
1.86924e-14
2.26894e-14
2.74434e-14
3.30756e-14
3.97222e-14
4.7535e-14
5.66823e-14
6.73497e-14
7.97401e-14
9.40742e-14
1.1059e-13
1.29542e-13
1.51203e-13
1.75856e-13
2.03799e-13
2.35341e-13
2.70796e-13
3.1048e-13
3.54708e-13
4.0379e-13
4.58021e-13
5.17679e-13
5.83015e-13
6.54247e-13
7.31555e-13
8.15069e-13
9.04864e-13
1.00095e-12
1.10327e-12
1.21168e-12
1.32598e-12
1.44584e-12
1.57087e-12
1.70058e-12
1.83437e-12
1.97157e-12
2.11141e-12
2.25301e-12
2.39544e-12
2.53769e-12
2.67868e-12
2.81729e-12
2.95237e-12
3.08274e-12
3.20722e-12
3.32464e-12
3.43389e-12
3.53387e-12
3.62358e-12
3.70209e-12
3.76858e-12
3.82234e-12
3.8628e-12
3.88951e-12
3.90219e-12
3.90072e-12
3.88511e-12
3.85556e-12
3.8124e-12
3.75613e-12
3.68739e-12
3.60695e-12
3.51572e-12
3.4147e-12
3.30498e-12
3.18775e-12
3.06425e-12
2.93575e-12
2.80357e-12
2.66902e-12
2.53343e-12
2.39807e-12
2.26421e-12
2.13305e-12
2.00575e-12
1.88339e-12
1.76699e-12
1.65747e-12
1.55568e-12
1.46239e-12
1.37826e-12
1.30389e-12
1.23977e-12
1.18631e-12
1.14383e-12
1.11257e-12
1.09269e-12
1.08426e-12
1.08728e-12
1.10164e-12
1.1272e-12
1.16368e-12
1.21078e-12
1.26806e-12
1.33505e-12
1.41117e-12
1.49576e-12
1.58809e-12
1.68734e-12
1.79261e-12
1.90295e-12
2.01731e-12
2.1346e-12
2.25368e-12
2.37334e-12