/*--------------------------------*- C++ -*----------------------------------*\
| =========                 |                                                 |
| \\      /  F ield         | OpenFOAM: The Open Source CFD Toolbox           |
|  \\    /   O peration     | Version:  v2012                                 |
|   \\  /    A nd           | Website:  www.openfoam.com                      |
|    \\/     M anipulation  |                                                 |
\*---------------------------------------------------------------------------*/
FoamFile
{
    version     2.0;
    format      ascii;
    class       volVectorField;
    location    "14.7";
    object      U;
}
// * * * * * * * * * * * * * * * * * * * * * * * * * * * * * * * * * * * * * //

dimensions      [0 1 -1 0 0 0 0];


internalField   nonuniform List<vector> 
65536
(
(0.000698803 -0.00069882 0)
(0.00209645 -0.000698862 0)
(0.00349422 -0.000698943 0)
(0.00489219 -0.000699062 0)
(0.00629043 -0.00069922 0)
(0.00768903 -0.000699417 0)
(0.00908807 -0.000699652 0)
(0.0104876 -0.000699925 0)
(0.0118877 -0.000700234 0)
(0.0132885 -0.00070058 0)
(0.01469 -0.000700961 0)
(0.0160923 -0.000701376 0)
(0.0174955 -0.000701823 0)
(0.0188996 -0.000702302 0)
(0.0203047 -0.000702811 0)
(0.0217108 -0.000703348 0)
(0.0231181 -0.000703913 0)
(0.0245265 -0.000704502 0)
(0.025936 -0.000705115 0)
(0.0273469 -0.000705748 0)
(0.028759 -0.000706401 0)
(0.0301725 -0.00070707 0)
(0.0315873 -0.000707753 0)
(0.0330035 -0.000708448 0)
(0.0344211 -0.000709152 0)
(0.0358401 -0.000709862 0)
(0.0372605 -0.000710576 0)
(0.0386824 -0.000711289 0)
(0.0401057 -0.000711999 0)
(0.0415304 -0.000712703 0)
(0.0429565 -0.000713396 0)
(0.044384 -0.000714076 0)
(0.0458128 -0.000714738 0)
(0.047243 -0.000715378 0)
(0.0486744 -0.000715992 0)
(0.050107 -0.000716576 0)
(0.0515407 -0.000717125 0)
(0.0529755 -0.000717635 0)
(0.0544113 -0.000718101 0)
(0.055848 -0.000718518 0)
(0.0572854 -0.000718881 0)
(0.0587236 -0.000719184 0)
(0.0601623 -0.000719423 0)
(0.0616013 -0.000719591 0)
(0.0630407 -0.000719682 0)
(0.0644802 -0.000719692 0)
(0.0659196 -0.000719614 0)
(0.0673587 -0.000719441 0)
(0.0687974 -0.000719168 0)
(0.0702355 -0.000718788 0)
(0.0716727 -0.000718294 0)
(0.0731088 -0.00071768 0)
(0.0745435 -0.000716938 0)
(0.0759767 -0.000716063 0)
(0.0774079 -0.000715046 0)
(0.078837 -0.000713881 0)
(0.0802636 -0.000712561 0)
(0.0816874 -0.000711077 0)
(0.0831081 -0.000709423 0)
(0.0845253 -0.000707592 0)
(0.0859386 -0.000705575 0)
(0.0873478 -0.000703366 0)
(0.0887523 -0.000700957 0)
(0.0901518 -0.00069834 0)
(0.0915459 -0.000695508 0)
(0.0929341 -0.000692453 0)
(0.0943159 -0.000689168 0)
(0.095691 -0.000685646 0)
(0.0970588 -0.00068188 0)
(0.0984187 -0.000677862 0)
(0.0997705 -0.000673585 0)
(0.101113 -0.000669043 0)
(0.102447 -0.000664229 0)
(0.103771 -0.000659136 0)
(0.105084 -0.000653758 0)
(0.106386 -0.00064809 0)
(0.107676 -0.000642125 0)
(0.108955 -0.000635858 0)
(0.11022 -0.000629284 0)
(0.111472 -0.000622398 0)
(0.11271 -0.000615196 0)
(0.113933 -0.000607674 0)
(0.115141 -0.000599828 0)
(0.116333 -0.000591656 0)
(0.117508 -0.000583153 0)
(0.118666 -0.000574318 0)
(0.119806 -0.00056515 0)
(0.120927 -0.000555647 0)
(0.122029 -0.000545808 0)
(0.12311 -0.000535634 0)
(0.124171 -0.000525124 0)
(0.125211 -0.00051428 0)
(0.126229 -0.000503103 0)
(0.127224 -0.000491597 0)
(0.128196 -0.000479762 0)
(0.129143 -0.000467604 0)
(0.130066 -0.000455125 0)
(0.130964 -0.000442332 0)
(0.131836 -0.000429229 0)
(0.132681 -0.000415822 0)
(0.133499 -0.000402119 0)
(0.13429 -0.000388126 0)
(0.135052 -0.000373851 0)
(0.135786 -0.000359303 0)
(0.13649 -0.000344492 0)
(0.137164 -0.000329426 0)
(0.137808 -0.000314117 0)
(0.138421 -0.000298575 0)
(0.139002 -0.000282811 0)
(0.139552 -0.000266838 0)
(0.14007 -0.000250668 0)
(0.140555 -0.000234314 0)
(0.141007 -0.000217789 0)
(0.141426 -0.000201107 0)
(0.141812 -0.000184282 0)
(0.142163 -0.000167328 0)
(0.142481 -0.00015026 0)
(0.142765 -0.000133092 0)
(0.143014 -0.000115841 0)
(0.143228 -9.8521e-05 0)
(0.143408 -8.11476e-05 0)
(0.143553 -6.37364e-05 0)
(0.143663 -4.63029e-05 0)
(0.143738 -2.88628e-05 0)
(0.143778 -1.14315e-05 0)
(0.143784 5.97557e-06 0)
(0.143754 2.3343e-05 0)
(0.14369 4.06555e-05 0)
(0.143591 5.78982e-05 0)
(0.143458 7.50564e-05 0)
(0.143291 9.21153e-05 0)
(0.14309 0.000109061 0)
(0.142855 0.000125879 0)
(0.142586 0.000142557 0)
(0.142284 0.000159081 0)
(0.14195 0.000175438 0)
(0.141582 0.000191617 0)
(0.141183 0.000207605 0)
(0.140752 0.00022339 0)
(0.140289 0.000238964 0)
(0.139796 0.000254314 0)
(0.139272 0.000269432 0)
(0.138718 0.000284307 0)
(0.138134 0.000298932 0)
(0.137522 0.000313299 0)
(0.136881 0.0003274 0)
(0.136212 0.000341228 0)
(0.135516 0.000354777 0)
(0.134792 0.000368041 0)
(0.134043 0.000381015 0)
(0.133268 0.000393695 0)
(0.132468 0.000406076 0)
(0.131644 0.000418155 0)
(0.130795 0.00042993 0)
(0.129923 0.000441397 0)
(0.129029 0.000452556 0)
(0.128113 0.000463405 0)
(0.127175 0.000473943 0)
(0.126217 0.00048417 0)
(0.125238 0.000494086 0)
(0.12424 0.000503691 0)
(0.123223 0.000512988 0)
(0.122188 0.000521977 0)
(0.121135 0.000530661 0)
(0.120065 0.000539041 0)
(0.118979 0.000547121 0)
(0.117876 0.000554903 0)
(0.116759 0.00056239 0)
(0.115626 0.000569588 0)
(0.11448 0.000576498 0)
(0.11332 0.000583126 0)
(0.112147 0.000589476 0)
(0.110962 0.000595553 0)
(0.109765 0.000601362 0)
(0.108556 0.000606907 0)
(0.107337 0.000612194 0)
(0.106107 0.000617228 0)
(0.104868 0.000622016 0)
(0.103619 0.000626562 0)
(0.102361 0.000630873 0)
(0.101095 0.000634954 0)
(0.0998211 0.000638811 0)
(0.0985397 0.000642451 0)
(0.0972511 0.000645878 0)
(0.0959559 0.000649101 0)
(0.0946545 0.000652124 0)
(0.0933473 0.000654954 0)
(0.0920345 0.000657597 0)
(0.0907167 0.000660059 0)
(0.0893941 0.000662346 0)
(0.0880671 0.000664465 0)
(0.0867361 0.00066642 0)
(0.0854013 0.00066822 0)
(0.0840631 0.000669868 0)
(0.0827217 0.000671372 0)
(0.0813774 0.000672738 0)
(0.0800306 0.00067397 0)
(0.0786814 0.000675074 0)
(0.0773302 0.000676057 0)
(0.0759771 0.000676923 0)
(0.0746224 0.000677679 0)
(0.0732663 0.000678329 0)
(0.071909 0.000678879 0)
(0.0705507 0.000679334 0)
(0.0691915 0.000679699 0)
(0.0678318 0.000679979 0)
(0.0664716 0.000680178 0)
(0.065111 0.000680302 0)
(0.0637503 0.000680355 0)
(0.0623895 0.000680341 0)
(0.0610289 0.000680265 0)
(0.0596684 0.000680132 0)
(0.0583083 0.000679945 0)
(0.0569486 0.000679708 0)
(0.0555894 0.000679426 0)
(0.0542308 0.000679102 0)
(0.052873 0.00067874 0)
(0.0515158 0.000678343 0)
(0.0501596 0.000677916 0)
(0.0488042 0.00067746 0)
(0.0474497 0.000676981 0)
(0.0460962 0.00067648 0)
(0.0447438 0.000675962 0)
(0.0433924 0.000675428 0)
(0.042042 0.000674882 0)
(0.0406928 0.000674326 0)
(0.0393447 0.000673764 0)
(0.0379978 0.000673197 0)
(0.036652 0.000672628 0)
(0.0353073 0.00067206 0)
(0.0339637 0.000671494 0)
(0.0326213 0.000670933 0)
(0.03128 0.000670379 0)
(0.0299398 0.000669834 0)
(0.0286007 0.000669299 0)
(0.0272626 0.000668777 0)
(0.0259256 0.00066827 0)
(0.0245896 0.000667778 0)
(0.0232545 0.000667303 0)
(0.0219204 0.000666847 0)
(0.0205871 0.000666411 0)
(0.0192548 0.000665996 0)
(0.0179232 0.000665604 0)
(0.0165924 0.000665235 0)
(0.0152623 0.000664891 0)
(0.0139328 0.000664572 0)
(0.012604 0.00066428 0)
(0.0112758 0.000664014 0)
(0.00994799 0.000663777 0)
(0.00862068 0.000663568 0)
(0.00729376 0.000663388 0)
(0.00596717 0.000663236 0)
(0.00464085 0.000663115 0)
(0.00331474 0.000663025 0)
(0.00198878 0.000662964 0)
(0.000662918 0.000662933 0)
(0.000698766 -0.00209643 0)
(0.00209634 -0.00209655 0)
(0.00349403 -0.00209679 0)
(0.00489192 -0.00209715 0)
(0.00629009 -0.00209763 0)
(0.00768862 -0.00209822 0)
(0.00908758 -0.00209892 0)
(0.010487 -0.00209974 0)
(0.0118871 -0.00210067 0)
(0.0132878 -0.00210171 0)
(0.0146893 -0.00210285 0)
(0.0160915 -0.0021041 0)
(0.0174946 -0.00210544 0)
(0.0188986 -0.00210688 0)
(0.0203037 -0.00210841 0)
(0.0217098 -0.00211002 0)
(0.0231169 -0.00211172 0)
(0.0245253 -0.00211349 0)
(0.0259348 -0.00211533 0)
(0.0273457 -0.00211723 0)
(0.0287578 -0.00211919 0)
(0.0301712 -0.0021212 0)
(0.031586 -0.00212325 0)
(0.0330021 -0.00212534 0)
(0.0344197 -0.00212745 0)
(0.0358387 -0.00212959 0)
(0.0372592 -0.00213173 0)
(0.038681 -0.00213387 0)
(0.0401044 -0.00213601 0)
(0.0415291 -0.00213812 0)
(0.0429552 -0.00214021 0)
(0.0443827 -0.00214225 0)
(0.0458116 -0.00214424 0)
(0.0472418 -0.00214616 0)
(0.0486733 -0.00214801 0)
(0.0501059 -0.00214977 0)
(0.0515398 -0.00215142 0)
(0.0529746 -0.00215295 0)
(0.0544105 -0.00215436 0)
(0.0558473 -0.00215561 0)
(0.0572849 -0.00215671 0)
(0.0587231 -0.00215762 0)
(0.0601619 -0.00215834 0)
(0.0616012 -0.00215885 0)
(0.0630407 -0.00215913 0)
(0.0644803 -0.00215917 0)
(0.0659199 -0.00215894 0)
(0.0673592 -0.00215843 0)
(0.0687982 -0.00215761 0)
(0.0702365 -0.00215648 0)
(0.0716739 -0.002155 0)
(0.0731102 -0.00215317 0)
(0.0745452 -0.00215095 0)
(0.0759787 -0.00214833 0)
(0.0774102 -0.00214529 0)
(0.0788396 -0.0021418 0)
(0.0802665 -0.00213785 0)
(0.0816907 -0.0021334 0)
(0.0831117 -0.00212845 0)
(0.0845292 -0.00212296 0)
(0.085943 -0.00211692 0)
(0.0873525 -0.0021103 0)
(0.0887574 -0.00210308 0)
(0.0901574 -0.00209523 0)
(0.0915519 -0.00208675 0)
(0.0929405 -0.00207759 0)
(0.0943228 -0.00206774 0)
(0.0956984 -0.00205718 0)
(0.0970666 -0.00204589 0)
(0.0984271 -0.00203384 0)
(0.0997794 -0.00202102 0)
(0.101123 -0.0020074 0)
(0.102457 -0.00199296 0)
(0.103781 -0.00197769 0)
(0.105095 -0.00196156 0)
(0.106398 -0.00194456 0)
(0.107689 -0.00192667 0)
(0.108968 -0.00190788 0)
(0.110234 -0.00188816 0)
(0.111486 -0.00186751 0)
(0.112725 -0.00184591 0)
(0.113949 -0.00182334 0)
(0.115157 -0.00179981 0)
(0.11635 -0.00177529 0)
(0.117525 -0.00174979 0)
(0.118684 -0.00172328 0)
(0.119824 -0.00169578 0)
(0.120946 -0.00166727 0)
(0.122049 -0.00163776 0)
(0.123131 -0.00160723 0)
(0.124193 -0.0015757 0)
(0.125233 -0.00154317 0)
(0.126252 -0.00150964 0)
(0.127247 -0.00147511 0)
(0.12822 -0.00143961 0)
(0.129168 -0.00140313 0)
(0.130092 -0.00136569 0)
(0.13099 -0.0013273 0)
(0.131862 -0.00128799 0)
(0.132708 -0.00124776 0)
(0.133527 -0.00120664 0)
(0.134318 -0.00116465 0)
(0.135081 -0.00112182 0)
(0.135815 -0.00107817 0)
(0.13652 -0.00103372 0)
(0.137194 -0.000988517 0)
(0.137839 -0.000942578 0)
(0.138452 -0.00089594 0)
(0.139034 -0.000848637 0)
(0.139584 -0.000800706 0)
(0.140102 -0.000752183 0)
(0.140588 -0.000703107 0)
(0.14104 -0.000653518 0)
(0.14146 -0.000603458 0)
(0.141846 -0.000552967 0)
(0.142197 -0.000502091 0)
(0.142515 -0.000450872 0)
(0.142799 -0.000399355 0)
(0.143048 -0.000347586 0)
(0.143263 -0.00029561 0)
(0.143442 -0.000243474 0)
(0.143587 -0.000191225 0)
(0.143698 -0.000138909 0)
(0.143773 -8.65734e-05 0)
(0.143813 -3.4264e-05 0)
(0.143818 1.79724e-05 0)
(0.143789 7.00897e-05 0)
(0.143725 0.000122042 0)
(0.143626 0.000173785 0)
(0.143493 0.000225274 0)
(0.143325 0.000276465 0)
(0.143124 0.000327316 0)
(0.142888 0.000377785 0)
(0.142619 0.000427831 0)
(0.142317 0.000477415 0)
(0.141982 0.000526499 0)
(0.141615 0.000575046 0)
(0.141215 0.000623021 0)
(0.140783 0.000670389 0)
(0.14032 0.000717119 0)
(0.139826 0.00076318 0)
(0.139302 0.000808541 0)
(0.138747 0.000853177 0)
(0.138163 0.000897061 0)
(0.13755 0.000940168 0)
(0.136909 0.000982477 0)
(0.136239 0.00102397 0)
(0.135542 0.00106462 0)
(0.134819 0.00110442 0)
(0.134069 0.00114334 0)
(0.133293 0.00118139 0)
(0.132492 0.00121853 0)
(0.131667 0.00125477 0)
(0.130818 0.0012901 0)
(0.129946 0.0013245 0)
(0.129051 0.00135798 0)
(0.128134 0.00139053 0)
(0.127196 0.00142214 0)
(0.126237 0.00145282 0)
(0.125258 0.00148257 0)
(0.124259 0.00151139 0)
(0.123241 0.00153927 0)
(0.122206 0.00156624 0)
(0.121152 0.00159229 0)
(0.120081 0.00161743 0)
(0.118994 0.00164166 0)
(0.117891 0.001665 0)
(0.116773 0.00168746 0)
(0.11564 0.00170905 0)
(0.114493 0.00172978 0)
(0.113333 0.00174966 0)
(0.11216 0.0017687 0)
(0.110974 0.00178693 0)
(0.109776 0.00180435 0)
(0.108567 0.00182098 0)
(0.107347 0.00183683 0)
(0.106117 0.00185193 0)
(0.104877 0.00186629 0)
(0.103628 0.00187992 0)
(0.102369 0.00189285 0)
(0.101103 0.00190508 0)
(0.0998285 0.00191665 0)
(0.0985466 0.00192756 0)
(0.0972577 0.00193784 0)
(0.0959621 0.0019475 0)
(0.0946603 0.00195656 0)
(0.0933526 0.00196505 0)
(0.0920395 0.00197297 0)
(0.0907213 0.00198035 0)
(0.0893984 0.00198721 0)
(0.0880711 0.00199356 0)
(0.0867397 0.00199942 0)
(0.0854046 0.00200481 0)
(0.0840661 0.00200975 0)
(0.0827244 0.00201425 0)
(0.0813799 0.00201834 0)
(0.0800328 0.00202203 0)
(0.0786834 0.00202534 0)
(0.0773319 0.00202828 0)
(0.0759786 0.00203088 0)
(0.0746237 0.00203314 0)
(0.0732674 0.00203509 0)
(0.0719099 0.00203673 0)
(0.0705514 0.00203809 0)
(0.0691921 0.00203918 0)
(0.0678322 0.00204001 0)
(0.0664718 0.00204061 0)
(0.0651111 0.00204097 0)
(0.0637502 0.00204113 0)
(0.0623893 0.00204108 0)
(0.0610286 0.00204085 0)
(0.059668 0.00204045 0)
(0.0583078 0.00203988 0)
(0.056948 0.00203917 0)
(0.0555887 0.00203832 0)
(0.0542301 0.00203734 0)
(0.0528721 0.00203625 0)
(0.0515149 0.00203506 0)
(0.0501586 0.00203377 0)
(0.0488031 0.0020324 0)
(0.0474486 0.00203096 0)
(0.0460951 0.00202946 0)
(0.0447426 0.0020279 0)
(0.0433912 0.00202629 0)
(0.0420409 0.00202465 0)
(0.0406916 0.00202298 0)
(0.0393435 0.00202129 0)
(0.0379966 0.00201959 0)
(0.0366508 0.00201788 0)
(0.0353061 0.00201617 0)
(0.0339625 0.00201447 0)
(0.0326201 0.00201279 0)
(0.0312789 0.00201112 0)
(0.0299387 0.00200949 0)
(0.0285996 0.00200788 0)
(0.0272615 0.00200631 0)
(0.0259245 0.00200479 0)
(0.0245886 0.00200331 0)
(0.0232535 0.00200188 0)
(0.0219194 0.00200052 0)
(0.0205863 0.00199921 0)
(0.0192539 0.00199796 0)
(0.0179224 0.00199678 0)
(0.0165916 0.00199568 0)
(0.0152616 0.00199464 0)
(0.0139322 0.00199368 0)
(0.0126034 0.00199281 0)
(0.0112752 0.00199201 0)
(0.00994753 0.0019913 0)
(0.00862028 0.00199067 0)
(0.00729342 0.00199013 0)
(0.00596689 0.00198967 0)
(0.00464063 0.00198931 0)
(0.00331458 0.00198904 0)
(0.00198869 0.00198886 0)
(0.000662887 0.00198877 0)
(0.000698685 -0.00349392 0)
(0.0020961 -0.00349413 0)
(0.00349363 -0.00349453 0)
(0.00489136 -0.00349512 0)
(0.00628937 -0.00349592 0)
(0.00768774 -0.0034969 0)
(0.00908655 -0.00349808 0)
(0.0104859 -0.00349945 0)
(0.0118858 -0.003501 0)
(0.0132863 -0.00350274 0)
(0.0146876 -0.00350465 0)
(0.0160898 -0.00350672 0)
(0.0174927 -0.00350897 0)
(0.0188966 -0.00351137 0)
(0.0203016 -0.00351392 0)
(0.0217075 -0.00351662 0)
(0.0231146 -0.00351945 0)
(0.0245229 -0.0035224 0)
(0.0259323 -0.00352548 0)
(0.0273431 -0.00352866 0)
(0.0287551 -0.00353193 0)
(0.0301684 -0.00353529 0)
(0.0315832 -0.00353872 0)
(0.0329993 -0.0035422 0)
(0.0344169 -0.00354574 0)
(0.0358358 -0.0035493 0)
(0.0372563 -0.00355289 0)
(0.0386782 -0.00355647 0)
(0.0401015 -0.00356004 0)
(0.0415262 -0.00356357 0)
(0.0429524 -0.00356706 0)
(0.04438 -0.00357047 0)
(0.045809 -0.0035738 0)
(0.0472393 -0.00357702 0)
(0.0486708 -0.00358012 0)
(0.0501036 -0.00358306 0)
(0.0515376 -0.00358583 0)
(0.0529726 -0.0035884 0)
(0.0544087 -0.00359076 0)
(0.0558457 -0.00359287 0)
(0.0572835 -0.00359471 0)
(0.058722 -0.00359625 0)
(0.0601611 -0.00359747 0)
(0.0616006 -0.00359834 0)
(0.0630404 -0.00359883 0)
(0.0644804 -0.00359891 0)
(0.0659203 -0.00359854 0)
(0.0673601 -0.00359771 0)
(0.0687994 -0.00359638 0)
(0.0702381 -0.00359451 0)
(0.071676 -0.00359207 0)
(0.0731129 -0.00358904 0)
(0.0745484 -0.00358537 0)
(0.0759824 -0.00358102 0)
(0.0774145 -0.00357597 0)
(0.0788445 -0.00357019 0)
(0.080272 -0.00356362 0)
(0.0816969 -0.00355624 0)
(0.0831186 -0.00354801 0)
(0.0845369 -0.00353889 0)
(0.0859513 -0.00352884 0)
(0.0873617 -0.00351783 0)
(0.0887674 -0.00350582 0)
(0.0901682 -0.00349277 0)
(0.0915636 -0.00347865 0)
(0.0929531 -0.00346341 0)
(0.0943364 -0.00344703 0)
(0.0957129 -0.00342945 0)
(0.0970821 -0.00341065 0)
(0.0984437 -0.0033906 0)
(0.0997969 -0.00336925 0)
(0.101141 -0.00334657 0)
(0.102477 -0.00332253 0)
(0.103802 -0.0032971 0)
(0.105117 -0.00327024 0)
(0.106421 -0.00324193 0)
(0.107713 -0.00321213 0)
(0.108993 -0.00318082 0)
(0.110261 -0.00314797 0)
(0.111514 -0.00311357 0)
(0.112754 -0.00307758 0)
(0.113979 -0.00303998 0)
(0.115189 -0.00300077 0)
(0.116383 -0.00295992 0)
(0.11756 -0.00291742 0)
(0.11872 -0.00287325 0)
(0.119862 -0.00282742 0)
(0.120985 -0.0027799 0)
(0.122089 -0.00273071 0)
(0.123172 -0.00267984 0)
(0.124235 -0.00262728 0)
(0.125277 -0.00257305 0)
(0.126297 -0.00251716 0)
(0.127294 -0.00245961 0)
(0.128268 -0.00240042 0)
(0.129217 -0.00233961 0)
(0.130142 -0.00227719 0)
(0.131042 -0.0022132 0)
(0.131915 -0.00214765 0)
(0.132763 -0.00208059 0)
(0.133583 -0.00201203 0)
(0.134375 -0.00194203 0)
(0.135139 -0.00187061 0)
(0.135874 -0.00179783 0)
(0.136579 -0.00172372 0)
(0.137255 -0.00164834 0)
(0.1379 -0.00157174 0)
(0.138515 -0.00149397 0)
(0.139097 -0.00141509 0)
(0.139649 -0.00133517 0)
(0.140167 -0.00125425 0)
(0.140654 -0.00117241 0)
(0.141107 -0.00108972 0)
(0.141527 -0.00100624 0)
(0.141913 -0.00092204 0)
(0.142266 -0.000837197 0)
(0.142584 -0.000751782 0)
(0.142868 -0.00066587 0)
(0.143117 -0.000579537 0)
(0.143332 -0.00049286 0)
(0.143512 -0.000405915 0)
(0.143657 -0.000318782 0)
(0.143767 -0.000231537 0)
(0.143843 -0.000144258 0)
(0.143883 -5.70242e-05 0)
(0.143888 3.00876e-05 0)
(0.143858 0.000117001 0)
(0.143794 0.000203638 0)
(0.143695 0.000289926 0)
(0.143561 0.000375789 0)
(0.143393 0.000461155 0)
(0.143191 0.000545952 0)
(0.142955 0.000630112 0)
(0.142686 0.000713566 0)
(0.142383 0.000796249 0)
(0.142047 0.000878096 0)
(0.141679 0.000959047 0)
(0.141278 0.00103904 0)
(0.140846 0.00111803 0)
(0.140382 0.00119594 0)
(0.139887 0.00127274 0)
(0.139362 0.00134838 0)
(0.138806 0.0014228 0)
(0.138221 0.00149596 0)
(0.137607 0.00156784 0)
(0.136965 0.00163837 0)
(0.136294 0.00170754 0)
(0.135596 0.00177532 0)
(0.134871 0.00184166 0)
(0.13412 0.00190656 0)
(0.133343 0.00196997 0)
(0.132541 0.0020319 0)
(0.131715 0.00209231 0)
(0.130865 0.00215119 0)
(0.129991 0.00220854 0)
(0.129095 0.00226434 0)
(0.128177 0.00231859 0)
(0.127238 0.00237128 0)
(0.126277 0.00242241 0)
(0.125297 0.00247199 0)
(0.124297 0.00252001 0)
(0.123278 0.00256648 0)
(0.122241 0.00261142 0)
(0.121186 0.00265483 0)
(0.120114 0.00269671 0)
(0.119026 0.0027371 0)
(0.117922 0.00277599 0)
(0.116803 0.00281341 0)
(0.115669 0.00284937 0)
(0.114521 0.00288391 0)
(0.113359 0.00291702 0)
(0.112184 0.00294875 0)
(0.110997 0.00297911 0)
(0.109799 0.00300813 0)
(0.108589 0.00303583 0)
(0.107368 0.00306223 0)
(0.106137 0.00308738 0)
(0.104896 0.00311129 0)
(0.103645 0.00313399 0)
(0.102386 0.00315551 0)
(0.101119 0.00317589 0)
(0.0998435 0.00319514 0)
(0.0985608 0.00321331 0)
(0.097271 0.00323042 0)
(0.0959746 0.0032465 0)
(0.094672 0.00326159 0)
(0.0933636 0.0032757 0)
(0.0920497 0.00328889 0)
(0.0907308 0.00330117 0)
(0.0894072 0.00331257 0)
(0.0880793 0.00332313 0)
(0.0867473 0.00333288 0)
(0.0854116 0.00334185 0)
(0.0840724 0.00335006 0)
(0.0827302 0.00335755 0)
(0.0813851 0.00336435 0)
(0.0800375 0.00337048 0)
(0.0786876 0.00337598 0)
(0.0773356 0.00338086 0)
(0.0759819 0.00338517 0)
(0.0746265 0.00338892 0)
(0.0732698 0.00339214 0)
(0.0719119 0.00339487 0)
(0.070553 0.00339712 0)
(0.0691934 0.00339891 0)
(0.0678331 0.00340029 0)
(0.0664724 0.00340126 0)
(0.0651115 0.00340186 0)
(0.0637503 0.0034021 0)
(0.0623892 0.00340201 0)
(0.0610282 0.00340161 0)
(0.0596674 0.00340092 0)
(0.0583069 0.00339997 0)
(0.056947 0.00339876 0)
(0.0555875 0.00339733 0)
(0.0542287 0.00339569 0)
(0.0528706 0.00339386 0)
(0.0515133 0.00339186 0)
(0.0501569 0.00338971 0)
(0.0488013 0.00338742 0)
(0.0474467 0.003385 0)
(0.0460931 0.00338248 0)
(0.0447405 0.00337988 0)
(0.0433891 0.00337719 0)
(0.0420387 0.00337445 0)
(0.0406894 0.00337166 0)
(0.0393413 0.00336883 0)
(0.0379943 0.00336598 0)
(0.0366485 0.00336313 0)
(0.0353038 0.00336028 0)
(0.0339603 0.00335744 0)
(0.0326179 0.00335462 0)
(0.0312767 0.00335184 0)
(0.0299365 0.00334911 0)
(0.0285975 0.00334643 0)
(0.0272595 0.00334381 0)
(0.0259226 0.00334126 0)
(0.0245866 0.00333879 0)
(0.0232517 0.00333641 0)
(0.0219177 0.00333412 0)
(0.0205846 0.00333194 0)
(0.0192523 0.00332986 0)
(0.0179209 0.00332789 0)
(0.0165902 0.00332604 0)
(0.0152603 0.00332432 0)
(0.013931 0.00332272 0)
(0.0126023 0.00332125 0)
(0.0112742 0.00331992 0)
(0.00994664 0.00331873 0)
(0.0086195 0.00331768 0)
(0.00729276 0.00331678 0)
(0.00596634 0.00331602 0)
(0.0046402 0.00331542 0)
(0.00331428 0.00331496 0)
(0.00198851 0.00331466 0)
(0.000662826 0.00331451 0)
(0.000698564 -0.00489121 0)
(0.00209573 -0.0048915 0)
(0.00349302 -0.00489206 0)
(0.00489052 -0.0048929 0)
(0.00628829 -0.00489401 0)
(0.00768643 -0.00489539 0)
(0.009085 -0.00489705 0)
(0.0104841 -0.00489897 0)
(0.0118838 -0.00490115 0)
(0.0132841 -0.00490358 0)
(0.0146852 -0.00490626 0)
(0.0160871 -0.00490918 0)
(0.0174899 -0.00491233 0)
(0.0188936 -0.00491571 0)
(0.0202984 -0.00491929 0)
(0.0217042 -0.00492308 0)
(0.0231111 -0.00492705 0)
(0.0245192 -0.0049312 0)
(0.0259285 -0.00493552 0)
(0.0273391 -0.00493998 0)
(0.0287511 -0.00494458 0)
(0.0301643 -0.0049493 0)
(0.031579 -0.00495412 0)
(0.032995 -0.00495902 0)
(0.0344125 -0.00496399 0)
(0.0358315 -0.004969 0)
(0.0372519 -0.00497404 0)
(0.0386738 -0.00497908 0)
(0.0400972 -0.0049841 0)
(0.041522 -0.00498907 0)
(0.0429482 -0.00499398 0)
(0.0443759 -0.00499879 0)
(0.045805 -0.00500348 0)
(0.0472354 -0.00500801 0)
(0.0486671 -0.00501237 0)
(0.0501001 -0.00501653 0)
(0.0515343 -0.00502044 0)
(0.0529696 -0.00502407 0)
(0.0544059 -0.0050274 0)
(0.0558432 -0.00503039 0)
(0.0572814 -0.005033 0)
(0.0587202 -0.0050352 0)
(0.0601597 -0.00503695 0)
(0.0615997 -0.00503821 0)
(0.06304 -0.00503893 0)
(0.0644805 -0.00503908 0)
(0.065921 -0.00503862 0)
(0.0673613 -0.0050375 0)
(0.0688012 -0.00503568 0)
(0.0702406 -0.00503311 0)
(0.0716792 -0.00502975 0)
(0.0731168 -0.00502554 0)
(0.0745531 -0.00502045 0)
(0.0759879 -0.00501442 0)
(0.0774209 -0.0050074 0)
(0.0788518 -0.00499935 0)
(0.0802803 -0.00499021 0)
(0.0817061 -0.00497992 0)
(0.0831289 -0.00496845 0)
(0.0845483 -0.00495574 0)
(0.0859639 -0.00494172 0)
(0.0873754 -0.00492637 0)
(0.0887823 -0.0049096 0)
(0.0901844 -0.00489139 0)
(0.0915811 -0.00487167 0)
(0.092972 -0.00485039 0)
(0.0943566 -0.0048275 0)
(0.0957346 -0.00480295 0)
(0.0971054 -0.00477668 0)
(0.0984684 -0.00474865 0)
(0.0998233 -0.00471881 0)
(0.101169 -0.00468711 0)
(0.102506 -0.0046535 0)
(0.103833 -0.00461793 0)
(0.10515 -0.00458037 0)
(0.106456 -0.00454077 0)
(0.10775 -0.00449909 0)
(0.109032 -0.0044553 0)
(0.110301 -0.00440935 0)
(0.111557 -0.00436121 0)
(0.112798 -0.00431085 0)
(0.114025 -0.00425825 0)
(0.115237 -0.00420337 0)
(0.116433 -0.0041462 0)
(0.117612 -0.00408671 0)
(0.118774 -0.00402489 0)
(0.119918 -0.00396073 0)
(0.121043 -0.00389422 0)
(0.122149 -0.00382535 0)
(0.123234 -0.00375412 0)
(0.1243 -0.00368054 0)
(0.125343 -0.00360461 0)
(0.126365 -0.00352634 0)
(0.127364 -0.00344575 0)
(0.12834 -0.00336286 0)
(0.129291 -0.0032777 0)
(0.130218 -0.00319028 0)
(0.13112 -0.00310065 0)
(0.131995 -0.00300884 0)
(0.132844 -0.0029149 0)
(0.133666 -0.00281888 0)
(0.13446 -0.00272081 0)
(0.135225 -0.00262077 0)
(0.135962 -0.00251881 0)
(0.136669 -0.00241499 0)
(0.137346 -0.00230939 0)
(0.137993 -0.00220207 0)
(0.138609 -0.00209311 0)
(0.139193 -0.0019826 0)
(0.139745 -0.00187061 0)
(0.140265 -0.00175724 0)
(0.140752 -0.00164258 0)
(0.141207 -0.00152671 0)
(0.141627 -0.00140974 0)
(0.142015 -0.00129176 0)
(0.142368 -0.00117288 0)
(0.142687 -0.00105319 0)
(0.142971 -0.000932808 0)
(0.143221 -0.000811835 0)
(0.143436 -0.000690379 0)
(0.143617 -0.000568548 0)
(0.143762 -0.000446451 0)
(0.143872 -0.000324199 0)
(0.143947 -0.0002019 0)
(0.143987 -7.96641e-05 0)
(0.143992 4.24002e-05 0)
(0.143962 0.000164185 0)
(0.143898 0.000285583 0)
(0.143798 0.000406489 0)
(0.143664 0.000526799 0)
(0.143495 0.000646411 0)
(0.143293 0.000765225 0)
(0.143056 0.000883143 0)
(0.142786 0.00100007 0)
(0.142482 0.00111592 0)
(0.142145 0.00123059 0)
(0.141776 0.001344 0)
(0.141374 0.00145608 0)
(0.14094 0.00156673 0)
(0.140475 0.00167588 0)
(0.139979 0.00178347 0)
(0.139452 0.00188942 0)
(0.138895 0.00199367 0)
(0.138308 0.00209616 0)
(0.137693 0.00219683 0)
(0.137048 0.00229564 0)
(0.136376 0.00239252 0)
(0.135677 0.00248744 0)
(0.13495 0.00258036 0)
(0.134197 0.00267124 0)
(0.133419 0.00276006 0)
(0.132615 0.00284677 0)
(0.131787 0.00293137 0)
(0.130935 0.00301382 0)
(0.130059 0.00309412 0)
(0.129161 0.00317225 0)
(0.128241 0.0032482 0)
(0.1273 0.00332197 0)
(0.126338 0.00339355 0)
(0.125355 0.00346295 0)
(0.124354 0.00353018 0)
(0.123333 0.00359523 0)
(0.122294 0.00365813 0)
(0.121237 0.00371888 0)
(0.120164 0.0037775 0)
(0.119074 0.00383402 0)
(0.117968 0.00388845 0)
(0.116847 0.00394081 0)
(0.115711 0.00399113 0)
(0.114561 0.00403945 0)
(0.113398 0.00408578 0)
(0.112222 0.00413016 0)
(0.111033 0.00417263 0)
(0.109833 0.00421322 0)
(0.108621 0.00425196 0)
(0.107399 0.0042889 0)
(0.106166 0.00432406 0)
(0.104924 0.00435749 0)
(0.103672 0.00438923 0)
(0.102411 0.00441933 0)
(0.101143 0.00444781 0)
(0.099866 0.00447472 0)
(0.098582 0.00450012 0)
(0.0972909 0.00452403 0)
(0.0959933 0.0045465 0)
(0.0946896 0.00456757 0)
(0.09338 0.0045873 0)
(0.0920651 0.00460571 0)
(0.0907451 0.00462286 0)
(0.0894205 0.00463878 0)
(0.0880915 0.00465353 0)
(0.0867585 0.00466713 0)
(0.0854219 0.00467964 0)
(0.0840819 0.0046911 0)
(0.0827388 0.00470155 0)
(0.0813929 0.00471102 0)
(0.0800445 0.00471957 0)
(0.0786939 0.00472722 0)
(0.0773412 0.00473402 0)
(0.0759867 0.00474001 0)
(0.0746307 0.00474522 0)
(0.0732734 0.0047497 0)
(0.0719149 0.00475348 0)
(0.0705555 0.00475659 0)
(0.0691953 0.00475908 0)
(0.0678346 0.00476097 0)
(0.0664734 0.0047623 0)
(0.065112 0.0047631 0)
(0.0637504 0.0047634 0)
(0.0623889 0.00476325 0)
(0.0610275 0.00476266 0)
(0.0596664 0.00476166 0)
(0.0583057 0.0047603 0)
(0.0569454 0.00475859 0)
(0.0555857 0.00475656 0)
(0.0542267 0.00475424 0)
(0.0528684 0.00475165 0)
(0.0515108 0.00474883 0)
(0.0501542 0.00474579 0)
(0.0487985 0.00474255 0)
(0.0474438 0.00473915 0)
(0.0460901 0.00473561 0)
(0.0447374 0.00473193 0)
(0.0433858 0.00472816 0)
(0.0420354 0.00472429 0)
(0.0406861 0.00472037 0)
(0.0393379 0.00471639 0)
(0.0379909 0.00471239 0)
(0.0366451 0.00470838 0)
(0.0353004 0.00470437 0)
(0.0339569 0.00470038 0)
(0.0326146 0.00469642 0)
(0.0312734 0.00469252 0)
(0.0299333 0.00468867 0)
(0.0285943 0.00468491 0)
(0.0272564 0.00468123 0)
(0.0259196 0.00467765 0)
(0.0245837 0.00467419 0)
(0.0232489 0.00467084 0)
(0.021915 0.00466763 0)
(0.020582 0.00466456 0)
(0.0192499 0.00466164 0)
(0.0179186 0.00465888 0)
(0.0165881 0.00465629 0)
(0.0152583 0.00465386 0)
(0.0139292 0.00465162 0)
(0.0126007 0.00464956 0)
(0.0112727 0.0046477 0)
(0.0099453 0.00464603 0)
(0.00861834 0.00464456 0)
(0.00729176 0.00464329 0)
(0.00596553 0.00464222 0)
(0.00463957 0.00464137 0)
(0.00331382 0.00464073 0)
(0.00198823 0.00464031 0)
(0.000662734 0.0046401 0)
(0.000698402 -0.00628822 0)
(0.00209525 -0.00628859 0)
(0.00349222 -0.00628931 0)
(0.00488939 -0.00629039 0)
(0.00628685 -0.00629183 0)
(0.00768467 -0.00629362 0)
(0.00908294 -0.00629575 0)
(0.0104817 -0.00629823 0)
(0.0118811 -0.00630104 0)
(0.0132812 -0.00630418 0)
(0.014682 -0.00630764 0)
(0.0160836 -0.00631141 0)
(0.0174862 -0.00631548 0)
(0.0188896 -0.00631983 0)
(0.0202941 -0.00632446 0)
(0.0216997 -0.00632934 0)
(0.0231064 -0.00633448 0)
(0.0245143 -0.00633984 0)
(0.0259235 -0.00634541 0)
(0.0273339 -0.00635118 0)
(0.0287457 -0.00635712 0)
(0.0301588 -0.00636321 0)
(0.0315734 -0.00636944 0)
(0.0329893 -0.00637577 0)
(0.0344068 -0.00638219 0)
(0.0358257 -0.00638867 0)
(0.0372461 -0.00639519 0)
(0.038668 -0.00640171 0)
(0.0400914 -0.0064082 0)
(0.0415162 -0.00641464 0)
(0.0429426 -0.00642099 0)
(0.0443704 -0.00642722 0)
(0.0457996 -0.0064333 0)
(0.0472302 -0.00643918 0)
(0.0486622 -0.00644484 0)
(0.0500954 -0.00645023 0)
(0.0515299 -0.00645531 0)
(0.0529655 -0.00646005 0)
(0.0544022 -0.00646439 0)
(0.0558399 -0.00646829 0)
(0.0572785 -0.00647172 0)
(0.0587179 -0.00647461 0)
(0.0601579 -0.00647692 0)
(0.0615984 -0.0064786 0)
(0.0630394 -0.00647961 0)
(0.0644805 -0.00647988 0)
(0.0659217 -0.00647936 0)
(0.0673628 -0.00647799 0)
(0.0688036 -0.00647573 0)
(0.0702439 -0.0064725 0)
(0.0716834 -0.00646826 0)
(0.073122 -0.00646294 0)
(0.0745594 -0.00645647 0)
(0.0759952 -0.0064488 0)
(0.0774294 -0.00643987 0)
(0.0788615 -0.0064296 0)
(0.0802913 -0.00641793 0)
(0.0817184 -0.0064048 0)
(0.0831426 -0.00639014 0)
(0.0845634 -0.00637388 0)
(0.0859805 -0.00635596 0)
(0.0873936 -0.0063363 0)
(0.0888022 -0.00631484 0)
(0.0902059 -0.00629151 0)
(0.0916044 -0.00626625 0)
(0.0929971 -0.00623898 0)
(0.0943836 -0.00620963 0)
(0.0957635 -0.00617815 0)
(0.0971363 -0.00614447 0)
(0.0985014 -0.00610851 0)
(0.0998583 -0.00607023 0)
(0.101207 -0.00602955 0)
(0.102546 -0.00598641 0)
(0.103875 -0.00594076 0)
(0.105194 -0.00589255 0)
(0.106502 -0.0058417 0)
(0.107798 -0.00578818 0)
(0.109083 -0.00573193 0)
(0.110354 -0.00567291 0)
(0.111613 -0.00561107 0)
(0.112857 -0.00554638 0)
(0.114087 -0.00547879 0)
(0.115301 -0.00540827 0)
(0.116499 -0.00533479 0)
(0.117681 -0.00525834 0)
(0.118846 -0.00517888 0)
(0.119992 -0.0050964 0)
(0.12112 -0.00501089 0)
(0.122229 -0.00492235 0)
(0.123317 -0.00483077 0)
(0.124385 -0.00473615 0)
(0.125431 -0.0046385 0)
(0.126456 -0.00453785 0)
(0.127457 -0.0044342 0)
(0.128436 -0.00432758 0)
(0.12939 -0.00421803 0)
(0.130319 -0.00410558 0)
(0.131223 -0.00399028 0)
(0.132101 -0.00387217 0)
(0.132953 -0.00375131 0)
(0.133777 -0.00362776 0)
(0.134573 -0.00350158 0)
(0.135341 -0.00337285 0)
(0.13608 -0.00324165 0)
(0.136789 -0.00310805 0)
(0.137468 -0.00297215 0)
(0.138117 -0.00283404 0)
(0.138734 -0.00269381 0)
(0.13932 -0.00255158 0)
(0.139874 -0.00240745 0)
(0.140396 -0.00226153 0)
(0.140884 -0.00211395 0)
(0.14134 -0.00196481 0)
(0.141762 -0.00181425 0)
(0.14215 -0.00166239 0)
(0.142504 -0.00150936 0)
(0.142824 -0.0013553 0)
(0.143109 -0.00120034 0)
(0.14336 -0.00104462 0)
(0.143576 -0.000888274 0)
(0.143756 -0.000731447 0)
(0.143902 -0.000574278 0)
(0.144012 -0.000416909 0)
(0.144087 -0.000259481 0)
(0.144127 -0.000102134 0)
(0.144132 5.49906e-05 0)
(0.144102 0.000211754 0)
(0.144036 0.000368018 0)