/*--------------------------------*- C++ -*----------------------------------*\
| =========                 |                                                 |
| \\      /  F ield         | OpenFOAM: The Open Source CFD Toolbox           |
|  \\    /   O peration     | Version:  v2012                                 |
|   \\  /    A nd           | Website:  www.openfoam.com                      |
|    \\/     M anipulation  |                                                 |
\*---------------------------------------------------------------------------*/
FoamFile
{
    version     2.0;
    format      ascii;
    class       surfaceScalarField;
    location    "19";
    object      phi;
}
// * * * * * * * * * * * * * * * * * * * * * * * * * * * * * * * * * * * * * //

dimensions      [0 3 -1 0 0 0 0];
oriented        oriented;


internalField   nonuniform List<scalar> 
130560
(
3.22189e-06
-3.22189e-06
6.44393e-06
-3.22203e-06
9.66624e-06
-3.22231e-06
1.2889e-05
-3.22272e-06
1.61122e-05
-3.22326e-06
1.93362e-05
-3.22394e-06
2.25609e-05
-3.22475e-06
2.57866e-05
-3.22569e-06
2.90134e-05
-3.22676e-06
3.22413e-05
-3.22795e-06
3.54706e-05
-3.22927e-06
3.87013e-05
-3.2307e-06
4.19335e-05
-3.23225e-06
4.51674e-05
-3.23391e-06
4.84031e-05
-3.23568e-06
5.16406e-05
-3.23754e-06
5.48802e-05
-3.23951e-06
5.81217e-05
-3.24157e-06
6.13654e-05
-3.24371e-06
6.46114e-05
-3.24593e-06
6.78596e-05
-3.24822e-06
7.11102e-05
-3.25058e-06
7.43631e-05
-3.25299e-06
7.76186e-05
-3.25546e-06
8.08766e-05
-3.25796e-06
8.41371e-05
-3.2605e-06
8.74001e-05
-3.26306e-06
9.06658e-05
-3.26564e-06
9.3934e-05
-3.26822e-06
9.72048e-05
-3.27079e-06
0.000100478
-3.27334e-06
0.000103754
-3.27587e-06
0.000107032
-3.27835e-06
0.000110313
-3.28077e-06
0.000113596
-3.28313e-06
0.000116882
-3.28541e-06
0.000120169
-3.28759e-06
0.000123459
-3.28966e-06
0.00012675
-3.2916e-06
0.000130044
-3.2934e-06
0.000133339
-3.29505e-06
0.000136635
-3.29651e-06
0.000139933
-3.29779e-06
0.000143232
-3.29885e-06
0.000146532
-3.29969e-06
0.000149832
-3.30027e-06
0.000153133
-3.30059e-06
0.000156433
-3.30061e-06
0.000159734
-3.30033e-06
0.000163033
-3.29971e-06
0.000166332
-3.29873e-06
0.000169629
-3.29738e-06
0.000172925
-3.29563e-06
0.000176218
-3.29344e-06
0.000179509
-3.29081e-06
0.000182797
-3.2877e-06
0.000186081
-3.28409e-06
0.000189361
-3.27995e-06
0.000192636
-3.27525e-06
0.000195906
-3.26997e-06
0.00019917
-3.26407e-06
0.000202428
-3.25754e-06
0.000205678
-3.25033e-06
0.000208921
-3.24243e-06
0.000212154
-3.23379e-06
0.000215379
-3.2244e-06
0.000218593
-3.21422e-06
0.000221796
-3.20322e-06
0.000224988
-3.19136e-06
0.000228166
-3.17863e-06
0.000231331
-3.16498e-06
0.000234482
-3.15038e-06
0.000237616
-3.13481e-06
0.000240735
-3.11823e-06
0.000243835
-3.10061e-06
0.000246917
-3.08192e-06
0.000249979
-3.06213e-06
0.00025302
-3.0412e-06
0.00025604
-3.01912e-06
0.000259035
-2.99584e-06
0.000262007
-2.97135e-06
0.000264952
-2.9456e-06
0.000267871
-2.91858e-06
0.000270761
-2.89026e-06
0.000273622
-2.86061e-06
0.000276451
-2.8296e-06
0.000279249
-2.79722e-06
0.000282012
-2.76344e-06
0.00028474
-2.72824e-06
0.000287432
-2.6916e-06
0.000290085
-2.6535e-06
0.000292699
-2.61392e-06
0.000295272
-2.57286e-06
0.000297803
-2.5303e-06
0.000300289
-2.48623e-06
0.000302729
-2.44063e-06
0.000305123
-2.39351e-06
0.000307468
-2.34486e-06
0.000309762
-2.29467e-06
0.000312005
-2.24296e-06
0.000314195
-2.18971e-06
0.00031633
-2.13494e-06
0.000318409
-2.07866e-06
0.00032043
-2.02087e-06
0.000322391
-1.9616e-06
0.000324292
-1.90085e-06
0.000326131
-1.83865e-06
0.000327906
-1.77502e-06
0.000329616
-1.70999e-06
0.000331259
-1.64358e-06
0.000332835
-1.57583e-06
0.000334342
-1.50677e-06
0.000335778
-1.43644e-06
0.000337143
-1.36488e-06
0.000338435
-1.29214e-06
0.000339654
-1.21825e-06
0.000340797
-1.14328e-06
0.000341864
-1.06726e-06
0.000342854
-9.90258e-07
0.000343767
-9.12329e-07
0.0003446
-8.33531e-07
0.000345354
-7.53926e-07
0.000346028
-6.73577e-07
0.00034662
-5.92551e-07
0.000347131
-5.10914e-07
0.00034756
-4.28737e-07
0.000347906
-3.46088e-07
0.000348169
-2.63041e-07
0.000348349
-1.79669e-07
0.000348445
-9.60446e-08
0.000348457
-1.22434e-08
0.000348385
7.16596e-08
0.00034823
1.55589e-07
0.00034799
2.39469e-07
0.000347667
3.23225e-07
0.00034726
4.06781e-07
0.00034677
4.90062e-07
0.000346197
5.72996e-07
0.000345542
6.55508e-07
0.000344804
7.37528e-07
0.000343985
8.18984e-07
0.000343085
8.99809e-07
0.000342105
9.79934e-07
0.000341046
1.05929e-06
0.000339908
1.13783e-06
0.000338693
1.21547e-06
0.000337401
1.29216e-06
0.000336033
1.36786e-06
0.00033459
1.44249e-06
0.000333074
1.51601e-06
0.000331486
1.58837e-06
0.000329826
1.65953e-06
0.000328097
1.72944e-06
0.000326299
1.79807e-06
0.000324434
1.86537e-06
0.000322502
1.93131e-06
0.000320506
1.99587e-06
0.000318447
2.059e-06
0.000316327
2.1207e-06
0.000314146
2.18093e-06
0.000311906
2.23968e-06
0.000309609
2.29693e-06
0.000307256
2.35266e-06
0.00030485
2.40687e-06
0.00030239
2.45956e-06
0.000299879
2.5107e-06
0.000297319
2.56031e-06
0.000294711
2.60838e-06
0.000292056
2.65492e-06
0.000289356
2.69992e-06
0.000286612
2.7434e-06
0.000283827
2.78537e-06
0.000281001
2.82584e-06
0.000278136
2.86482e-06
0.000275234
2.90232e-06
0.000272296
2.93837e-06
0.000269323
2.97298e-06
0.000266317
3.00618e-06
0.000263279
3.03797e-06
0.00026021
3.0684e-06
0.000257113
3.09748e-06
0.000253987
3.12523e-06
0.000250836
3.15169e-06
0.000247659
3.17687e-06
0.000244458
3.20082e-06
0.000241235
3.22355e-06
0.000237989
3.2451e-06
0.000234724
3.2655e-06
0.000231439
3.28477e-06
0.000228136
3.30296e-06
0.000224816
3.32008e-06
0.00022148
3.33618e-06
0.000218129
3.35127e-06
0.000214763
3.36541e-06
0.000211385
3.37861e-06
0.000207994
3.39091e-06
0.000204591
3.40233e-06
0.000201178
3.41293e-06
0.000197756
3.42271e-06
0.000194324
3.43172e-06
0.000190884
3.43999e-06
0.000187437
3.44754e-06
0.000183982
3.45441e-06
0.000180521
3.46063e-06
0.000177055
3.46622e-06
0.000173584
3.47122e-06
0.000170108
3.47565e-06
0.000166629
3.47955e-06
0.000163146
3.48294e-06
0.00015966
3.48585e-06
0.000156172
3.4883e-06
0.000152681
3.49032e-06
0.000149189
3.49194e-06
0.000145696
3.49317e-06
0.000142202
3.49406e-06
0.000138708
3.49461e-06
0.000135213
3.49486e-06
0.000131718
3.49482e-06
0.000128223
3.49452e-06
0.000124729
3.49397e-06
0.000121236
3.49321e-06
0.000117744
3.49224e-06
0.000114253
3.49109e-06
0.000110763
3.48978e-06
0.000107275
3.48833e-06
0.000103788
3.48674e-06
0.000100303
3.48505e-06
9.68198e-05
3.48326e-06
9.33384e-05
3.4814e-06
8.98589e-05
3.47947e-06
8.63814e-05
3.47749e-06
8.29059e-05
3.47548e-06
7.94325e-05
3.47345e-06
7.59611e-05
3.47141e-06
7.24917e-05
3.46937e-06
6.90244e-05
3.46735e-06
6.5559e-05
3.46535e-06
6.20956e-05
3.46339e-06
5.86342e-05
3.46148e-06
5.51745e-05
3.45962e-06
5.17167e-05
3.45783e-06
4.82606e-05
3.45611e-06
4.48061e-05
3.45447e-06
4.13532e-05
3.45291e-06
3.79018e-05
3.45145e-06
3.44517e-05
3.4501e-06
3.10028e-05
3.44885e-06
2.75551e-05
3.4477e-06
2.41085e-05
3.44668e-06
2.06627e-05
3.44577e-06
1.72177e-05
3.44499e-06
1.37734e-05
3.44433e-06
1.03296e-05
3.4438e-06
6.88615e-06
3.44341e-06
3.44301e-06
3.44314e-06
3.44301e-06
3.22177e-06
-6.44366e-06
6.44367e-06
-6.44394e-06
9.66584e-06
-6.44448e-06
1.28884e-05
-6.4453e-06
1.61116e-05
-6.44639e-06
1.93354e-05
-6.44775e-06
2.256e-05
-6.44937e-06
2.57856e-05
-6.45126e-06
2.90122e-05
-6.45339e-06
3.224e-05
-6.45578e-06
3.54692e-05
-6.45842e-06
3.86998e-05
-6.46129e-06
4.19319e-05
-6.46439e-06
4.51657e-05
-6.46772e-06
4.84013e-05
-6.47125e-06
5.16388e-05
-6.475e-06
5.48782e-05
-6.47893e-06
5.81197e-05
-6.48305e-06
6.13633e-05
-6.48734e-06
6.46092e-05
-6.49179e-06
6.78573e-05
-6.49638e-06
7.11078e-05
-6.5011e-06
7.43608e-05
-6.50594e-06
7.76162e-05
-6.51088e-06
8.08741e-05
-6.5159e-06
8.41346e-05
-6.52099e-06
8.73977e-05
-6.52612e-06
9.06633e-05
-6.53128e-06
9.39315e-05
-6.53645e-06
9.72024e-05
-6.5416e-06
0.000100476
-6.54672e-06
0.000103752
-6.55178e-06
0.00010703
-6.55675e-06
0.000110311
-6.56162e-06
0.000113594
-6.56635e-06
0.00011688
-6.57091e-06
0.000120167
-6.57529e-06
0.000123457
-6.57944e-06
0.000126749
-6.58335e-06
0.000130042
-6.58697e-06
0.000133338
-6.59027e-06
0.000136634
-6.59322e-06
0.000139932
-6.59579e-06
0.000143231
-6.59794e-06
0.000146531
-6.59963e-06
0.000149832
-6.60082e-06
0.000153133
-6.60147e-06
0.000156434
-6.60154e-06
0.000159734
-6.60099e-06
0.000163034
-6.59978e-06
0.000166334
-6.59785e-06
0.000169631
-6.59517e-06
0.000172927
-6.59168e-06
0.000176221
-6.58734e-06
0.000179513
-6.5821e-06
0.000182801
-6.57591e-06
0.000186085
-6.56871e-06
0.000189366
-6.56045e-06
0.000192642
-6.55108e-06
0.000195912
-6.54055e-06
0.000199177
-6.52878e-06
0.000202435
-6.51574e-06
0.000205686
-6.50136e-06
0.000208929
-6.48558e-06
0.000212164
-6.46835e-06
0.000215389
-6.44959e-06
0.000218604
-6.42926e-06
0.000221808
-6.40729e-06
0.000225001
-6.38361e-06
0.00022818
-6.35817e-06
0.000231346
-6.3309e-06
0.000234497
-6.30174e-06
0.000237633
-6.27062e-06
0.000240752
-6.23749e-06
0.000243854
-6.20229e-06
0.000246937
-6.16494e-06
0.00025
-6.12538e-06
0.000253043
-6.08357e-06
0.000256063
-6.03943e-06
0.00025906
-5.99291e-06
0.000262033
-5.94394e-06
0.00026498
-5.89248e-06
0.0002679
-5.83847e-06
0.000270791
-5.78185e-06
0.000273653
-5.72257e-06
0.000276484
-5.66058e-06
0.000279283
-5.59584e-06
0.000282048
-5.5283e-06
0.000284777
-5.45791e-06
0.00028747
-5.38465e-06
0.000290125
-5.30847e-06
0.000292741
-5.22934e-06
0.000295315
-5.14723e-06
0.000297847
-5.06211e-06
0.000300335
-4.97397e-06
0.000302777
-4.88279e-06
0.000305172
-4.78855e-06
0.000307518
-4.69125e-06
0.000309814
-4.59088e-06
0.000312059
-4.48744e-06
0.00031425
-4.38094e-06
0.000316387
-4.2714e-06
0.000318467
-4.15882e-06
0.000320489
-4.04323e-06
0.000322452
-3.92466e-06
0.000324354
-3.80315e-06
0.000326195
-3.67873e-06
0.000327971
-3.55144e-06
0.000329682
-3.42135e-06
0.000331327
-3.2885e-06
0.000332904
-3.15297e-06
0.000334412
-3.01481e-06
0.00033585
-2.87412e-06
0.000337216
-2.73095e-06
0.000338509
-2.58541e-06
0.000339729
-2.43759e-06
0.000340873
-2.28759e-06
0.000341941
-2.1355e-06
0.000342932
-1.98144e-06
0.000343846
-1.82552e-06
0.00034468
-1.66787e-06
0.000345435
-1.50859e-06
0.000346109
-1.34783e-06
0.000346702
-1.18571e-06
0.000347214
-1.02237e-06
0.000347643
-8.5794e-07
0.000347989
-6.92571e-07
0.000348253
-5.26404e-07
0.000348433
-3.59585e-07
0.000348529
-1.92262e-07
0.000348541
-2.45845e-08
0.000348469
1.43297e-07
0.000348314
3.11232e-07
0.000348074
4.79067e-07
0.000347751
6.46654e-07
0.000347344
8.1384e-07
0.000346853
9.80477e-07
0.00034628
1.14642e-06
0.000345624
1.31151e-06
0.000344886
1.47562e-06
0.000344066
1.63861e-06
0.000343166
1.80032e-06
0.000342185
1.96064e-06
0.000341125
2.11942e-06
0.000339986
2.27655e-06
0.00033877
2.43189e-06
0.000337476
2.58534e-06
0.000336108
2.73677e-06
0.000334664
2.88609e-06
0.000333147
3.03318e-06
0.000331557
3.17795e-06
0.000329896
3.32031e-06
0.000328166
3.46018e-06
0.000326366
3.59747e-06
0.0003245
3.7321e-06
0.000322567
3.86402e-06
0.00032057
3.99316e-06
0.000318509
4.11946e-06
0.000316387
4.24287e-06
0.000314205
4.36335e-06
0.000311963
4.48086e-06
0.000309665
4.59537e-06
0.000307311
4.70685e-06
0.000304902
4.81528e-06
0.000302441
4.92065e-06
0.000299929
5.02295e-06
0.000297367
5.12216e-06
0.000294757
5.2183e-06
0.000292101
5.31137e-06
0.000289399
5.40137e-06
0.000286654
5.48833e-06
0.000283867
5.57225e-06
0.00028104
5.65317e-06
0.000278174
5.73111e-06
0.00027527
5.80611e-06
0.00027233
5.87818e-06
0.000269356
5.94739e-06
0.000266348
6.01375e-06
0.000263309
6.07732e-06
0.000260239
6.13815e-06
0.00025714
6.19628e-06
0.000254014
6.25176e-06
0.000250861
6.30464e-06
0.000247683
6.35499e-06
0.000244481
6.40285e-06
0.000241256
6.44829e-06
0.00023801
6.49136e-06
0.000234743
6.53212e-06
0.000231457
6.57064e-06
0.000228153
6.60698e-06
0.000224832
6.64119e-06
0.000221495
6.67335e-06
0.000218143
6.70352e-06
0.000214776
6.73175e-06
0.000211397
6.75812e-06
0.000208005
6.78268e-06
0.000204602
6.80551e-06
0.000201188
6.82666e-06
0.000197765
6.8462e-06
0.000194332
6.86419e-06
0.000190892
6.88069e-06
0.000187443
6.89576e-06
0.000183988
6.90947e-06
0.000180527
6.92188e-06
0.00017706
6.93304e-06
0.000173588
6.94301e-06
0.000170112
6.95185e-06
0.000166632
6.95961e-06
0.000163149
6.96636e-06
0.000159662
6.97215e-06
0.000156174
6.97702e-06
0.000152683
6.98104e-06
0.000149191
6.98425e-06
0.000145697
6.9867e-06
0.000142203
6.98845e-06
0.000138708
6.98953e-06
0.000135213
6.99e-06
0.000131718
6.9899e-06
0.000128223
6.98927e-06
0.000124729
6.98816e-06
0.000121235
6.98661e-06
0.000117743
6.98466e-06
0.000114252
6.98235e-06
0.000110762
6.97971e-06
0.000107273
6.97678e-06
0.000103786
6.97359e-06
0.000100301
6.97019e-06
9.68179e-05
6.9666e-06
9.33364e-05
6.96286e-06
8.98569e-05
6.95898e-06
8.63794e-05
6.95502e-06
8.29039e-05
6.95098e-06
7.94304e-05
6.9469e-06
7.5959e-05
6.94281e-06
7.24897e-05
6.93872e-06
6.90223e-05
6.93466e-06
6.5557e-05
6.93066e-06
6.20937e-05
6.92673e-06
5.86323e-05
6.9229e-06
5.51727e-05
6.91917e-06
5.1715e-05
6.91558e-06
4.82589e-05
6.91213e-06
4.48046e-05
6.90884e-06
4.13517e-05
6.90573e-06
3.79004e-05
6.90281e-06
3.44504e-05
6.90009e-06
3.10017e-05
6.89758e-06
2.75541e-05
6.89529e-06
2.41075e-05
6.89324e-06
2.06619e-05
6.89142e-06
1.7217e-05
6.88985e-06
1.37728e-05
6.88853e-06
1.03292e-05
6.88747e-06
6.88588e-06
6.88668e-06
3.44287e-06
6.88615e-06
6.88588e-06
3.22149e-06
-9.66515e-06
6.44311e-06
-9.66556e-06
9.66502e-06
-9.66639e-06
1.28873e-05
-9.66762e-06
1.61102e-05
-9.66926e-06
1.93337e-05
-9.6713e-06
2.25581e-05
-9.67373e-06
2.57834e-05
-9.67656e-06
2.90098e-05
-9.67978e-06
3.22374e-05
-9.68337e-06
3.54663e-05
-9.68733e-06
3.86966e-05
-9.69165e-06
4.19286e-05
-9.69631e-06
4.51622e-05
-9.70131e-06
4.83975e-05
-9.70663e-06
5.16348e-05
-9.71225e-06
5.4874e-05
-9.71817e-06
5.81153e-05
-9.72436e-06
6.13588e-05
-9.73081e-06
6.46045e-05
-9.7375e-06
6.78525e-05
-9.74441e-06
7.11029e-05
-9.75151e-06
7.43558e-05
-9.75879e-06
7.76111e-05
-9.76621e-06
8.0869e-05
-9.77377e-06
8.41294e-05
-9.78142e-06
8.73925e-05
-9.78915e-06
9.06581e-05
-9.79691e-06
9.39263e-05
-9.80469e-06
9.71972e-05
-9.81245e-06
0.000100471
-9.82015e-06
0.000103747
-9.82777e-06
0.000107025
-9.83526e-06
0.000110306
-9.84259e-06
0.000113589
-9.84972e-06
0.000116875
-9.85661e-06
0.000120163
-9.86321e-06
0.000123453
-9.86948e-06
0.000126745
-9.87537e-06
0.000130039
-9.88084e-06
0.000133335
-9.88584e-06
0.000136632
-9.89032e-06
0.00013993
-9.89422e-06
0.00014323
-9.89749e-06
0.00014653
-9.90007e-06
0.000149831
-9.9019e-06
0.000153133
-9.90293e-06
0.000156434
-9.90309e-06
0.000159736
-9.90232e-06
0.000163036
-9.90055e-06
0.000166336
-9.89772e-06
0.000169635
-9.89376e-06
0.000172932
-9.88859e-06
0.000176226
-9.88214e-06
0.000179519
-9.87435e-06
0.000182808
-9.86512e-06
0.000186094
-9.85439e-06
0.000189375
-9.84207e-06
0.000192652
-9.82808e-06
0.000195924
-9.81235e-06
0.00019919
-9.79478e-06
0.00020245
-9.77529e-06
0.000205702
-9.75379e-06
0.000208947
-9.7302e-06
0.000212183
-9.70442e-06
0.000215409
-9.67636e-06
0.000218626
-9.64594e-06
0.000221832
-9.61306e-06
0.000225026
-9.57762e-06
0.000228207
-9.53954e-06
0.000231375
-9.49871e-06
0.000234528
-9.45505e-06
0.000237666
-9.40846e-06
0.000240788
-9.35884e-06
0.000243891
-9.3061e-06
0.000246977
-9.25016e-06
0.000250042
-9.19091e-06
0.000253087
-9.12826e-06
0.00025611
-9.06212e-06
0.000259109
-8.99241e-06
0.000262084
-8.91904e-06
0.000265034
-8.84192e-06
0.000267956
-8.76096e-06
0.00027085
-8.67609e-06
0.000273715
-8.58724e-06
0.000276549
-8.49432e-06
0.00027935
-8.39726e-06
0.000282118
-8.296e-06
0.00028485
-8.19047e-06
0.000287546
-8.08062e-06
0.000290204
-7.96639e-06
0.000292823
-7.84773e-06
0.0002954
-7.72459e-06
0.000297935
-7.59695e-06
0.000300426
-7.46476e-06
0.000302871
-7.328e-06
0.000305269
-7.18666e-06
0.000307618
-7.04071e-06
0.000309918
-6.89015e-06
0.000312165
-6.73498e-06
0.00031436
-6.57522e-06
0.000316499
-6.41088e-06
0.000318582
-6.24199e-06
0.000320608
-6.06857e-06
0.000322574
-5.89068e-06
0.000324479
-5.70836e-06
0.000326322
-5.52167e-06
0.000328101
-5.33068e-06
0.000329815
-5.13547e-06
0.000331463
-4.93612e-06
0.000333042
-4.73273e-06
0.000334553
-4.5254e-06
0.000335993
-4.31425e-06
0.000337362
-4.0994e-06
0.000338657
-3.88098e-06
0.000339879
-3.65912e-06
0.000341025
-3.43398e-06
0.000342095
-3.20572e-06
0.000343088
-2.97448e-06
0.000344003
-2.74046e-06
0.000344839
-2.50382e-06
0.000345595
-2.26475e-06
0.000346271
-2.02344e-06
0.000346865
-1.78009e-06
0.000347378
-1.5349e-06
0.000347808
-1.28809e-06
0.000348155
-1.03985e-06
0.000348419
-7.90421e-07
0.0003486
-5.40008e-07
0.000348696
-2.88836e-07
0.000348709
-3.71318e-08
0.000348637
2.14879e-07
0.000348482
4.6697e-07
0.000348242
7.18913e-07
0.000347918
9.7048e-07
0.00034751
1.22145e-06
0.000347019
1.47159e-06
0.000346445
1.72068e-06
0.000345788
1.9685e-06
0.000345049
2.21484e-06
0.000344228
2.45949e-06
0.000343326
2.70223e-06
0.000342344
2.94287e-06
0.000341282
3.1812e-06
0.000340141
3.41705e-06
0.000338923
3.65021e-06
0.000337628
3.88052e-06
0.000336257
4.10781e-06
0.000334811
4.33191e-06
0.000333292
4.55267e-06
0.0003317
4.76994e-06
0.000330036
4.98359e-06
0.000328303
5.19349e-06
0.000326501
5.39951e-06
0.000324631
5.60155e-06
0.000322696
5.79951e-06
0.000320696
5.99328e-06
0.000318633
6.18279e-06
0.000316507
6.36796e-06
0.000314322
6.54873e-06
0.000312078
6.72504e-06
0.000309776
6.89684e-06
0.000307419
7.06409e-06
0.000305008
7.22675e-06
0.000302544
7.38482e-06
0.000300028
7.53827e-06
0.000297463
7.68709e-06
0.00029485
7.83129e-06
0.000292191
7.97088e-06
0.000289486
8.10587e-06
0.000286738
8.23628e-06
0.000283948
8.36214e-06
0.000281118
8.48348e-06
0.000278249
8.60036e-06
0.000275342
8.7128e-06
0.0002724
8.82087e-06
0.000269422
8.92462e-06
0.000266412
9.02412e-06
0.00026337
9.11942e-06
0.000260297
9.2106e-06
0.000257196
9.29773e-06
0.000254067
9.38088e-06
0.000250911
9.46014e-06
0.000247731
9.53559e-06
0.000244526
9.60731e-06
0.000241299
9.67539e-06
0.000238051
9.73992e-06
0.000234782
9.80099e-06
0.000231494
9.85869e-06
0.000228188
9.91312e-06
0.000224864
9.96436e-06
0.000221525
1.00125e-05
0.000218171
1.00577e-05
0.000214803
1.01e-05
0.000211421
1.01394e-05
0.000208028
1.01762e-05
0.000204623
1.02104e-05
0.000201208
1.0242e-05
0.000197783
1.02712e-05
0.000194349
1.02981e-05
0.000190907
1.03228e-05
0.000187457
1.03454e-05
0.000184001
1.03658e-05
0.000180538
1.03844e-05
0.00017707
1.0401e-05
0.000173597
1.04159e-05
0.00017012
1.04291e-05
0.000166639
1.04407e-05
0.000163155
1.04508e-05
0.000159667
1.04594e-05
0.000156178
1.04666e-05
0.000152686
1.04726e-05
0.000149193
1.04773e-05
0.000145699
1.04809e-05
0.000142204
1.04835e-05
0.000138708
1.04851e-05
0.000135213
1.04857e-05
0.000131717
1.04855e-05
0.000128222
1.04845e-05
0.000124727
1.04828e-05
0.000121233
1.04804e-05
0.000117741
1.04774e-05
0.000114249
1.04739e-05
0.000110759
1.04699e-05
0.00010727
1.04655e-05
0.000103783
1.04607e-05
0.000100298
1.04555e-05
9.68141e-05
1.04501e-05
9.33326e-05
1.04444e-05
8.98529e-05
1.04386e-05
8.63753e-05
1.04326e-05
8.28998e-05
1.04265e-05
7.94263e-05
1.04204e-05
7.59549e-05
1.04142e-05
7.24856e-05
1.0408e-05
6.90184e-05
1.04019e-05
6.55531e-05
1.03959e-05
6.20899e-05
1.039e-05
5.86286e-05
1.03842e-05
5.51691e-05
1.03786e-05
5.17115e-05
1.03732e-05
4.82557e-05
1.0368e-05
4.48015e-05
1.0363e-05
4.13488e-05
1.03584e-05
3.78977e-05
1.0354e-05
3.44479e-05
1.03499e-05
3.09994e-05
1.03461e-05
2.7552e-05
1.03426e-05
2.41057e-05
1.03396e-05
2.06603e-05
1.03368e-05
1.72157e-05
1.03345e-05
1.37718e-05
1.03325e-05
1.03284e-05
1.03309e-05
6.88535e-06
1.03297e-05
3.44261e-06
1.03289e-05
1.03285e-05
3.22107e-06
-1.28862e-05
6.44228e-06
-1.28868e-05
9.66377e-06
-1.28879e-05
1.28857e-05
-1.28895e-05
1.61081e-05
-1.28917e-05
1.93313e-05
-1.28944e-05
2.25552e-05
-1.28977e-05
2.57802e-05
-1.29015e-05
2.90062e-05
-1.29058e-05
3.22334e-05
-1.29106e-05
3.54619e-05
-1.29159e-05
3.86919e-05
-1.29217e-05
4.19235e-05
-1.29279e-05
4.51568e-05
-1.29346e-05
4.83918e-05
-1.29417e-05
5.16288e-05
-1.29492e-05
5.48678e-05
-1.29571e-05
5.81088e-05
-1.29654e-05
6.13521e-05
-1.2974e-05
6.45975e-05
-1.2983e-05
6.78454e-05
-1.29922e-05
7.10956e-05
-1.30017e-05
7.43483e-05
-1.30115e-05
7.76035e-05
-1.30214e-05
8.08613e-05
-1.30315e-05
8.41216e-05
-1.30418e-05
8.73846e-05
-1.30521e-05
9.06502e-05
-1.30625e-05
9.39185e-05
-1.30729e-05
9.71894e-05
-1.30833e-05
0.000100463
-1.30937e-05
0.000103739
-1.31039e-05
0.000107018
-1.31139e-05
0.000110299
-1.31238e-05
0.000113582
-1.31333e-05
0.000116868
-1.31426e-05
0.000120157
-1.31515e-05
0.000123447
-1.31599e-05
0.00012674
-1.31678e-05
0.000130034
-1.31752e-05
0.00013333
-1.31819e-05
0.000136628
-1.3188e-05
0.000139927
-1.31933e-05
0.000143227
-1.31977e-05
0.000146528
-1.32012e-05
0.00014983
-1.32038e-05
0.000153132
-1.32053e-05
0.000156435
-1.32056e-05
0.000159737
-1.32046e-05
0.000163039
-1.32024e-05
0.00016634
-1.31987e-05
0.00016964
-1.31936e-05
0.000172938
-1.31868e-05
0.000176234
-1.31783e-05
0.000179528
-1.3168e-05
0.000182818
-1.31558e-05
0.000186106
-1.31416e-05
0.000189389
-1.31254e-05
0.000192668
-1.31068e-05
0.000195941
-1.3086e-05
0.000199209
-1.30627e-05
0.000202471
-1.30368e-05
0.000205725
-1.30083e-05
0.000208972
-1.2977e-05
0.000212211
-1.29428e-05
0.00021544
-1.29055e-05
0.000218659
-1.28651e-05
0.000221867
-1.28214e-05
0.000225064
-1.27743e-05
0.000228248
-1.27236e-05
0.000231419
-1.26694e-05
0.000234575
-1.26113e-05
0.000237716
-1.25493e-05
0.00024084
-1.24833e-05
0.000243947
-1.24131e-05
0.000247036
-1.23387e-05
0.000250105
-1.22598e-05
0.000253153
-1.21764e-05
0.000256179
-1.20884e-05
0.000259182
-1.19956e-05
0.000262161
-1.18979e-05
0.000265114
-1.17952e-05
0.000268041
-1.16874e-05
0.000270939
-1.15743e-05
0.000273808
-1.1456e-05
0.000276646
-1.13322e-05
0.000279451
-1.12029e-05
0.000282223
-1.1068e-05
0.00028496
-1.09274e-05
0.00028766
-1.0781e-05
0.000290323
-1.06287e-05
0.000292946
-1.04706e-05
0.000295527
-1.03065e-05
0.000298067
-1.01363e-05
0.000300562
-9.96012e-06
0.000303012
-9.77781e-06
0.000305415
-9.58936e-06
0.000307769
-9.39477e-06
0.000310073
-9.19403e-06
0.000312325
-8.98713e-06
0.000314524
-8.77409e-06
0.000316668
-8.55493e-06
0.000318755
-8.32968e-06
0.000320785
-8.0984e-06
0.000322756
-7.86113e-06
0.000324665
-7.61794e-06
0.000326512
-7.36891e-06
0.000328296
-7.11414e-06
0.000330014
-6.85372e-06
0.000331666
-6.58778e-06
0.00033325
-6.31643e-06
0.000334764
-6.03982e-06
0.000336208
-5.75809e-06
0.00033758
-5.47142e-06
0.000338879
-5.17997e-06
0.000340104
-4.88394e-06
0.000341253
-4.58351e-06
0.000342326
-4.2789e-06
0.000343322
-3.97032e-06
0.00034424
-3.65801e-06
0.000345078
-3.3422e-06
0.000345837
-3.02315e-06
0.000346514
-2.70109e-06
0.00034711
-2.37631e-06
0.000347625
-2.04907e-06
0.000348056
-1.71966e-06
0.000348405
-1.38834e-06
0.00034867
-1.05542e-06
0.000348851
-7.21192e-07
0.000348948
-3.85947e-07
0.000348961
-4.99893e-08
0.000348889
2.86379e-07
0.000348733
6.22853e-07
0.000348493
9.5913e-07
0.000348169
1.2949e-06
0.00034776
1.62988e-06
0.000347268
1.96374e-06
0.000346693
2.29621e-06
0.000346034
2.62697e-06
0.000345293
2.95576e-06
0.00034447
3.28227e-06
0.000343566
3.60624e-06
0.000342582
3.9274e-06
0.000341518
4.24548e-06
0.000340375
4.56022e-06
0.000339153
4.87138e-06
0.000337855
5.17873e-06
0.000336481
5.48203e-06
0.000335032
5.78107e-06
0.000333509
6.07564e-06
0.000331913
6.36555e-06
0.000330246
6.65062e-06
0.000328509
6.93067e-06
0.000326703
7.20554e-06
0.000324829
7.47509e-06
0.00032289
7.73917e-06
0.000320885
7.99767e-06
0.000318818
8.25046e-06
0.000316688
8.49746e-06
0.000314498
8.73858e-06
0.00031225
8.97373e-06
0.000309944
9.20285e-06
0.000307582
9.4259e-06
0.000305166
9.64282e-06
0.000302697
9.8536e-06
0.000300177
1.00582e-05
0.000297607
1.02566e-05
0.00029499
1.04489e-05
0.000292326
1.0635e-05
0.000289617
1.08149e-05
0.000286864
1.09888e-05
0.00028407
1.11565e-05
0.000281235
1.13183e-05
0.000278361
1.1474e-05
0.00027545
1.16239e-05
0.000272503
1.17679e-05
0.000269522
1.19061e-05
0.000266507
1.20387e-05
0.000263461
1.21656e-05
0.000260385
1.22871e-05
0.000257279
1.24031e-05
0.000254146
1.25139e-05
0.000250987
1.26194e-05
0.000247802
1.27199e-05
0.000244594
1.28154e-05
0.000241364
1.2906e-05
0.000238112
1.29919e-05
0.000234839
1.30732e-05
0.000231548
1.315e-05
0.000228239
1.32224e-05
0.000224913
1.32906e-05
0.00022157
1.33547e-05
0.000218213
1.34148e-05
0.000214842
1.3471e-05
0.000211458
1.35234e-05
0.000208062
1.35723e-05
0.000204655
1.36177e-05
0.000201237
1.36598e-05
0.00019781
1.36986e-05
0.000194374
1.37343e-05
0.000190929
1.37671e-05
0.000187478
1.3797e-05
0.000184019
1.38242e-05
0.000180555
1.38487e-05
0.000177085
1.38708e-05
0.000173611
1.38905e-05
0.000170132
1.3908e-05
0.000166649
1.39233e-05
0.000163163
1.39366e-05
0.000159675
1.39479e-05
0.000156184
1.39575e-05
0.000152691
1.39653e-05
0.000149197
1.39715e-05
0.000145702
1.39762e-05
0.000142205
1.39795e-05
0.000138709
1.39815e-05
0.000135212
1.39823e-05
0.000131716
1.39819e-05
0.00012822
1.39805e-05
0.000124725
1.39781e-05
0.00012123
1.39748e-05
0.000117737
1.39708e-05
0.000114245
1.3966e-05
0.000110754
1.39606e-05
0.000107265
1.39546e-05
0.000103778
1.39481e-05
0.000100292
1.39411e-05
9.68085e-05
1.39338e-05
9.33268e-05
1.39262e-05
8.9847e-05
1.39184e-05
8.63693e-05
1.39103e-05
8.28937e-05
1.39021e-05
7.94202e-05
1.38939e-05
7.59488e-05
1.38856e-05
7.24795e-05
1.38773e-05
6.90123e-05
1.38691e-05
6.55472e-05
1.3861e-05
6.20841e-05
1.38531e-05
5.8623e-05
1.38453e-05
5.51637e-05
1.38378e-05
5.17064e-05
1.38306e-05
4.82507e-05
1.38236e-05
4.47968e-05
1.3817e-05
4.13445e-05
1.38107e-05
3.78936e-05
1.38048e-05
3.44441e-05
1.37993e-05
3.0996e-05
1.37943e-05
2.7549e-05
1.37897e-05
2.4103e-05
1.37855e-05
2.0658e-05
1.37819e-05
1.72137e-05
1.37787e-05
1.37702e-05
1.3776e-05
1.03272e-05
1.37739e-05
6.88455e-06
1.37723e-05
3.44221e-06
1.37712e-05
1.37707e-05
3.22052e-06
-1.61067e-05
6.44117e-06
-1.61074e-05
9.66211e-06
-1.61088e-05
1.28835e-05
-1.61109e-05
1.61054e-05
-1.61136e-05
1.9328e-05
-1.61171e-05
2.25514e-05
-1.61211e-05
2.57758e-05
-1.61259e-05
2.90013e-05
-1.61313e-05
3.2228e-05
-1.61373e-05
3.54561e-05
-1.61439e-05
3.86857e-05
-1.61512e-05
4.19168e-05
-1.6159e-05
4.51496e-05
-1.61674e-05
4.83843e-05
-1.61763e-05
5.16208e-05
-1.61858e-05
5.48594e-05
-1.61957e-05
5.81001e-05
-1.62061e-05
6.1343e-05
-1.62169e-05
6.45882e-05
-1.62282e-05
6.78358e-05
-1.62398e-05
7.10858e-05
-1.62517e-05
7.43383e-05
-1.6264e-05
7.75933e-05
-1.62765e-05
8.08509e-05
-1.62892e-05
8.41112e-05
-1.6302e-05
8.73741e-05
-1.6315e-05
9.06397e-05
-1.63281e-05
9.3908e-05
-1.63412e-05
9.71789e-05
-1.63543e-05
0.000100453
-1.63673e-05
0.000103729
-1.63802e-05
0.000107008
-1.63928e-05
0.000110289
-1.64052e-05
0.000113573
-1.64173e-05
0.000116859
-1.64289e-05
0.000120148
-1.64401e-05
0.000123439
-1.64508e-05
0.000126732
-1.64608e-05
0.000130027
-1.64702e-05
0.000133324
-1.64787e-05
0.000136622
-1.64864e-05
0.000139922
-1.64932e-05
0.000143223
-1.64989e-05
0.000146525
-1.65034e-05
0.000149828
-1.65067e-05
0.000153132
-1.65087e-05
0.000156436
-1.65093e-05
0.000159739
-1.65083e-05
0.000163042
-1.65056e-05
0.000166345
-1.65012e-05
0.000169646
-1.64949e-05
0.000172946
-1.64867e-05
0.000176244
-1.64762e-05
0.00017954
-1.64636e-05
0.000182832
-1.64486e-05
0.000186122
-1.6431e-05
0.000189407
-1.64109e-05
0.000192688
-1.63879e-05
0.000195965
-1.63621e-05
0.000199235
-1.63332e-05
0.000202499
-1.63011e-05
0.000205757
-1.62656e-05
0.000209006
-1.62267e-05
0.000212248
-1.61841e-05
0.00021548
-1.61378e-05
0.000218702
-1.60875e-05
0.000221914
-1.60331e-05
0.000225114
-1.59745e-05
0.000228302
-1.59114e-05
0.000231476
-1.58438e-05
0.000234637
-1.57714e-05
0.000237781
-1.56942e-05
0.00024091
-1.56119e-05
0.000244021
-1.55244e-05
0.000247114
-1.54316e-05
0.000250188
-1.53333e-05
0.000253241
-1.52293e-05
0.000256272
-1.51194e-05
0.00025928
-1.50036e-05
0.000262264
-1.48817e-05
0.000265222
-1.47536e-05
0.000268154
-1.4619e-05
0.000271057
-1.44779e-05
0.000273931
-1.43301e-05
0.000276775
-1.41756e-05
0.000279586
-1.40141e-05
0.000282364
-1.38456e-05
0.000285106
-1.367e-05
0.000287812
-1.34872e-05
0.000290481
-1.3297e-05
0.000293109
-1.30994e-05
0.000295697
-1.28944e-05
0.000298243
-1.26818e-05
0.000300744
-1.24616e-05
0.0003032
-1.22337e-05
0.000305609
-1.19982e-05
0.000307969
-1.1755e-05
0.000310279
-1.15041e-05
0.000312538
-1.12454e-05
0.000314743
-1.09791e-05
0.000316893
-1.07051e-05
0.000318987
-1.04234e-05
0.000321022
-1.01342e-05
0.000322999
-9.83749e-06
0.000324914
-9.53336e-06
0.000326767
-9.2219e-06
0.000328556
-8.90324e-06
0.00033028
-8.57751e-06
0.000331937
-8.24484e-06
0.000333526
-7.90539e-06
0.000335046
-7.55934e-06
0.000336494
-7.20688e-06
0.000337871
-6.84822e-06
0.000339175
-6.48356e-06
0.000340404
-6.11314e-06
0.000341558
-5.73722e-06
0.000342635
-5.35605e-06
0.000343634
-4.9699e-06
0.000344555
-4.57907e-06
0.000345397
-4.18384e-06
0.000346158
-3.78454e-06
0.000346839
-3.38148e-06
0.000347438
-2.975e-06
0.000347954
-2.56543e-06
0.000348387
-2.15312e-06
0.000348737
-1.73844e-06
0.000349004
-1.32174e-06
0.000349186
-9.03393e-07
0.000349284
-4.83774e-07
0.000349297
-6.32607e-08
0.000349226
3.57768e-07
0.00034907
7.78931e-07
0.000348829
1.19985e-06
0.000348504
1.62013e-06
0.000348094
2.03941e-06
0.000347601
2.45729e-06
0.000347023
2.87342e-06
0.000346363
3.28742e-06
0.00034562
3.69894e-06
0.000344794
4.1076e-06
0.000343888
4.51307e-06
0.0003429
4.91501e-06
0.000341832
5.31308e-06
0.000340686
5.70697e-06
0.000339461
6.09636e-06
0.000338158
6.48097e-06
0.00033678
6.8605e-06
0.000335326
7.23469e-06
0.000333799
7.60327e-06
0.000332198
7.96601e-06
0.000330526
8.32266e-06
0.000328784
8.67303e-06
0.000326972
9.01689e-06
0.000325093
9.35408e-06
0.000323148
9.68442e-06
0.000321138
1.00077e-05
0.000319065
1.03239e-05
0.000316929
1.06328e-05
0.000314733
1.09344e-05
0.000312479
1.12284e-05
0.000310167
1.15149e-05
0.000307799
1.17938e-05
0.000305377
1.2065e-05
0.000302902
1.23286e-05
0.000300375
1.25843e-05
0.0002978
1.28324e-05
0.000295176
1.30727e-05
0.000292506
1.33052e-05
0.000289791
1.35301e-05
0.000287032
1.37473e-05
0.000284232
1.3957e-05
0.000281391
1.4159e-05
0.000278511
1.43536e-05
0.000275594