/*--------------------------------*- C++ -*----------------------------------*\
| =========                 |                                                 |
| \\      /  F ield         | OpenFOAM: The Open Source CFD Toolbox           |
|  \\    /   O peration     | Version:  v2012                                 |
|   \\  /    A nd           | Website:  www.openfoam.com                      |
|    \\/     M anipulation  |                                                 |
\*---------------------------------------------------------------------------*/
FoamFile
{
    version     2.0;
    format      ascii;
    class       volVectorField;
    location    "19";
    object      Psi;
}
// * * * * * * * * * * * * * * * * * * * * * * * * * * * * * * * * * * * * * //

dimensions      [0 2 -1 0 0 0 0];


internalField   nonuniform List<vector> 
65536
(
(0 0 8.04657e-06)
(0 0 2.41401e-05)
(0 0 4.02347e-05)
(0 0 5.6331e-05)
(0 0 7.24296e-05)
(0 0 8.85312e-05)
(0 0 0.000104636)
(0 0 0.000120746)
(0 0 0.00013686)
(0 0 0.000152981)
(0 0 0.000169107)
(0 0 0.00018524)
(0 0 0.00020138)
(0 0 0.000217528)
(0 0 0.000233685)
(0 0 0.00024985)
(0 0 0.000266025)
(0 0 0.00028221)
(0 0 0.000298405)
(0 0 0.000314611)
(0 0 0.000330828)
(0 0 0.000347056)
(0 0 0.000363296)
(0 0 0.000379548)
(0 0 0.000395812)
(0 0 0.000412089)
(0 0 0.000428378)
(0 0 0.000444679)
(0 0 0.000460993)
(0 0 0.00047732)
(0 0 0.000493659)
(0 0 0.000510011)
(0 0 0.000526375)
(0 0 0.000542751)
(0 0 0.000559138)
(0 0 0.000575537)
(0 0 0.000591947)
(0 0 0.000608367)
(0 0 0.000624797)
(0 0 0.000641236)
(0 0 0.000657683)
(0 0 0.000674137)
(0 0 0.000690598)
(0 0 0.000707065)
(0 0 0.000723536)
(0 0 0.000740011)
(0 0 0.000756487)
(0 0 0.000772964)
(0 0 0.00078944)
(0 0 0.000805914)
(0 0 0.000822383)
(0 0 0.000838846)
(0 0 0.000855302)
(0 0 0.000871747)
(0 0 0.00088818)
(0 0 0.000904599)
(0 0 0.000921)
(0 0 0.000937383)
(0 0 0.000953742)
(0 0 0.000970077)
(0 0 0.000986384)
(0 0 0.00100266)
(0 0 0.0010189)
(0 0 0.00103511)
(0 0 0.00105127)
(0 0 0.00106738)
(0 0 0.00108345)
(0 0 0.00109947)
(0 0 0.00111543)
(0 0 0.00113133)
(0 0 0.00114716)
(0 0 0.00116292)
(0 0 0.00117861)
(0 0 0.00119421)
(0 0 0.00120973)
(0 0 0.00122516)
(0 0 0.0012405)
(0 0 0.00125573)
(0 0 0.00127086)
(0 0 0.00128588)
(0 0 0.00130077)
(0 0 0.00131554)
(0 0 0.00133018)
(0 0 0.00134469)
(0 0 0.00135904)
(0 0 0.00137325)
(0 0 0.0013873)
(0 0 0.00140119)
(0 0 0.0014149)
(0 0 0.00142844)
(0 0 0.00144179)
(0 0 0.00145494)
(0 0 0.0014679)
(0 0 0.00148065)
(0 0 0.00149318)
(0 0 0.0015055)
(0 0 0.00151758)
(0 0 0.00152942)
(0 0 0.00154102)
(0 0 0.00155236)
(0 0 0.00156344)
(0 0 0.00157426)
(0 0 0.0015848)
(0 0 0.00159505)
(0 0 0.00160501)
(0 0 0.00161468)
(0 0 0.00162404)
(0 0 0.00163309)
(0 0 0.00164181)
(0 0 0.00165021)
(0 0 0.00165828)
(0 0 0.00166601)
(0 0 0.00167339)
(0 0 0.00168041)
(0 0 0.00168708)
(0 0 0.00169338)
(0 0 0.00169931)
(0 0 0.00170487)
(0 0 0.00171004)
(0 0 0.00171483)
(0 0 0.00171923)
(0 0 0.00172323)
(0 0 0.00172684)
(0 0 0.00173004)
(0 0 0.00173284)
(0 0 0.00173522)
(0 0 0.0017372)
(0 0 0.00173877)
(0 0 0.00173992)
(0 0 0.00174065)
(0 0 0.00174096)
(0 0 0.00174086)
(0 0 0.00174034)
(0 0 0.0017394)
(0 0 0.00173804)
(0 0 0.00173626)
(0 0 0.00173407)
(0 0 0.00173146)
(0 0 0.00172843)
(0 0 0.001725)
(0 0 0.00172116)
(0 0 0.00171691)
(0 0 0.00171226)
(0 0 0.00170721)
(0 0 0.00170177)
(0 0 0.00169593)
(0 0 0.00168971)
(0 0 0.00168311)
(0 0 0.00167613)
(0 0 0.00166878)
(0 0 0.00166106)
(0 0 0.00165299)
(0 0 0.00164456)
(0 0 0.00163579)
(0 0 0.00162667)
(0 0 0.00161722)
(0 0 0.00160745)
(0 0 0.00159735)
(0 0 0.00158694)
(0 0 0.00157622)
(0 0 0.00156521)
(0 0 0.00155391)
(0 0 0.00154232)
(0 0 0.00153045)
(0 0 0.00151832)
(0 0 0.00150593)
(0 0 0.00149328)
(0 0 0.00148039)
(0 0 0.00146726)
(0 0 0.0014539)
(0 0 0.00144032)
(0 0 0.00142652)
(0 0 0.00141252)
(0 0 0.00139832)
(0 0 0.00138392)
(0 0 0.00136934)
(0 0 0.00135458)
(0 0 0.00133965)
(0 0 0.00132456)
(0 0 0.00130931)
(0 0 0.00129391)
(0 0 0.00127837)
(0 0 0.00126269)
(0 0 0.00124688)
(0 0 0.00123095)
(0 0 0.0012149)
(0 0 0.00119874)
(0 0 0.00118247)
(0 0 0.0011661)
(0 0 0.00114964)
(0 0 0.00113308)
(0 0 0.00111645)
(0 0 0.00109973)
(0 0 0.00108295)
(0 0 0.00106609)
(0 0 0.00104917)
(0 0 0.00103218)
(0 0 0.00101514)
(0 0 0.000998054)
(0 0 0.000980917)
(0 0 0.000963735)
(0 0 0.000946513)
(0 0 0.000929255)
(0 0 0.000911963)
(0 0 0.000894641)
(0 0 0.000877292)
(0 0 0.000859919)
(0 0 0.000842524)
(0 0 0.000825111)
(0 0 0.000807681)
(0 0 0.000790237)
(0 0 0.000772782)
(0 0 0.000755318)
(0 0 0.000737845)
(0 0 0.000720367)
(0 0 0.000702885)
(0 0 0.000685401)
(0 0 0.000667916)
(0 0 0.000650431)
(0 0 0.000632948)
(0 0 0.000615468)
(0 0 0.000597992)
(0 0 0.00058052)
(0 0 0.000563055)
(0 0 0.000545597)
(0 0 0.000528145)
(0 0 0.000510702)
(0 0 0.000493267)
(0 0 0.000475841)
(0 0 0.000458425)
(0 0 0.000441017)
(0 0 0.00042362)
(0 0 0.000406233)
(0 0 0.000388855)
(0 0 0.000371488)
(0 0 0.000354131)
(0 0 0.000336783)
(0 0 0.000319445)
(0 0 0.000302117)
(0 0 0.000284798)
(0 0 0.000267488)
(0 0 0.000250187)
(0 0 0.000232894)
(0 0 0.000215609)
(0 0 0.000198332)
(0 0 0.000181061)
(0 0 0.000163797)
(0 0 0.000146539)
(0 0 0.000129286)
(0 0 0.000112038)
(0 0 9.47945e-05)
(0 0 7.75542e-05)
(0 0 6.03169e-05)
(0 0 4.30819e-05)
(0 0 2.58484e-05)
(0 0 8.61604e-06)
(0 0 2.41395e-05)
(0 0 7.24196e-05)
(0 0 0.000120703)
(0 0 0.000168991)
(0 0 0.000217286)
(0 0 0.00026559)
(0 0 0.000313906)
(0 0 0.000362234)
(0 0 0.000410577)
(0 0 0.000458936)
(0 0 0.000507314)
(0 0 0.000555713)
(0 0 0.000604133)
(0 0 0.000652577)
(0 0 0.000701047)
(0 0 0.000749543)
(0 0 0.000798067)
(0 0 0.000846621)
(0 0 0.000895206)
(0 0 0.000943823)
(0 0 0.000992474)
(0 0 0.00104116)
(0 0 0.00108988)
(0 0 0.00113863)
(0 0 0.00118743)
(0 0 0.00123626)
(0 0 0.00128512)
(0 0 0.00133403)
(0 0 0.00138297)
(0 0 0.00143195)
(0 0 0.00148097)
(0 0 0.00153002)
(0 0 0.00157912)
(0 0 0.00162824)
(0 0 0.00167741)
(0 0 0.0017266)
(0 0 0.00177583)
(0 0 0.00182509)
(0 0 0.00187438)
(0 0 0.0019237)
(0 0 0.00197304)
(0 0 0.00202241)
(0 0 0.00207179)
(0 0 0.00212119)
(0 0 0.00217061)
(0 0 0.00222003)
(0 0 0.00226947)
(0 0 0.0023189)
(0 0 0.00236833)
(0 0 0.00241775)
(0 0 0.00246716)
(0 0 0.00251655)
(0 0 0.00256592)
(0 0 0.00261526)
(0 0 0.00266456)
(0 0 0.00271382)
(0 0 0.00276303)
(0 0 0.00281217)
(0 0 0.00286126)
(0 0 0.00291027)
(0 0 0.00295919)
(0 0 0.00300802)
(0 0 0.00305675)
(0 0 0.00310536)
(0 0 0.00315385)
(0 0 0.00320221)
(0 0 0.00325042)
(0 0 0.00329847)
(0 0 0.00334635)
(0 0 0.00339405)
(0 0 0.00344155)
(0 0 0.00348884)
(0 0 0.0035359)
(0 0 0.00358273)
(0 0 0.0036293)
(0 0 0.0036756)
(0 0 0.00372161)
(0 0 0.00376732)
(0 0 0.0038127)
(0 0 0.00385775)
(0 0 0.00390245)
(0 0 0.00394677)
(0 0 0.00399069)
(0 0 0.00403421)
(0 0 0.00407729)
(0 0 0.00411992)
(0 0 0.00416207)
(0 0 0.00420374)
(0 0 0.00424489)
(0 0 0.0042855)
(0 0 0.00432556)
(0 0 0.00436504)
(0 0 0.00440392)
(0 0 0.00444217)
(0 0 0.00447978)
(0 0 0.00451672)
(0 0 0.00455297)
(0 0 0.00458851)
(0 0 0.00462331)
(0 0 0.00465735)
(0 0 0.0046906)
(0 0 0.00472305)
(0 0 0.00475468)
(0 0 0.00478545)
(0 0 0.00481535)
(0 0 0.00484435)
(0 0 0.00487244)
(0 0 0.00489959)
(0 0 0.00492577)
(0 0 0.00495098)
(0 0 0.00497519)
(0 0 0.00499837)
(0 0 0.00502051)
(0 0 0.0050416)
(0 0 0.0050616)
(0 0 0.00508052)
(0 0 0.00509831)
(0 0 0.00511499)
(0 0 0.00513051)
(0 0 0.00514488)
(0 0 0.00515808)
(0 0 0.00517009)
(0 0 0.00518091)
(0 0 0.00519052)
(0 0 0.00519892)
(0 0 0.00520609)
(0 0 0.00521202)
(0 0 0.00521672)
(0 0 0.00522017)
(0 0 0.00522237)
(0 0 0.00522331)
(0 0 0.00522301)
(0 0 0.00522144)
(0 0 0.00521861)
(0 0 0.00521454)
(0 0 0.0052092)
(0 0 0.00520262)
(0 0 0.00519479)
(0 0 0.00518572)
(0 0 0.00517541)
(0 0 0.00516388)
(0 0 0.00515114)
(0 0 0.00513718)
(0 0 0.00512203)
(0 0 0.00510569)
(0 0 0.00508818)
(0 0 0.00506951)
(0 0 0.0050497)
(0 0 0.00502876)
(0 0 0.0050067)
(0 0 0.00498355)
(0 0 0.00495932)
(0 0 0.00493403)
(0 0 0.0049077)
(0 0 0.00488035)
(0 0 0.00485199)
(0 0 0.00482266)
(0 0 0.00479236)
(0 0 0.00476112)
(0 0 0.00472897)
(0 0 0.00469592)
(0 0 0.004662)
(0 0 0.00462723)
(0 0 0.00459163)
(0 0 0.00455522)
(0 0 0.00451803)
(0 0 0.00448009)
(0 0 0.00444141)
(0 0 0.00440201)
(0 0 0.00436193)
(0 0 0.00432117)
(0 0 0.00427978)
(0 0 0.00423776)
(0 0 0.00419514)
(0 0 0.00415195)
(0 0 0.0041082)
(0 0 0.00406392)
(0 0 0.00401912)
(0 0 0.00397384)
(0 0 0.00392808)
(0 0 0.00388188)
(0 0 0.00383524)
(0 0 0.0037882)
(0 0 0.00374077)
(0 0 0.00369296)
(0 0 0.00364481)
(0 0 0.00359631)
(0 0 0.0035475)
(0 0 0.00349839)
(0 0 0.003449)
(0 0 0.00339934)
(0 0 0.00334942)
(0 0 0.00329927)
(0 0 0.0032489)
(0 0 0.00319833)
(0 0 0.00314755)
(0 0 0.0030966)
(0 0 0.00304548)
(0 0 0.00299421)
(0 0 0.00294279)
(0 0 0.00289124)
(0 0 0.00283957)
(0 0 0.0027878)
(0 0 0.00273592)
(0 0 0.00268395)
(0 0 0.0026319)
(0 0 0.00257978)
(0 0 0.00252759)
(0 0 0.00247535)
(0 0 0.00242306)
(0 0 0.00237072)
(0 0 0.00231835)
(0 0 0.00226596)
(0 0 0.00221354)
(0 0 0.0021611)
(0 0 0.00210866)
(0 0 0.0020562)
(0 0 0.00200374)
(0 0 0.00195129)
(0 0 0.00189884)
(0 0 0.0018464)
(0 0 0.00179397)
(0 0 0.00174155)
(0 0 0.00168916)
(0 0 0.00163678)
(0 0 0.00158443)
(0 0 0.0015321)
(0 0 0.00147979)
(0 0 0.00142751)
(0 0 0.00137526)
(0 0 0.00132304)
(0 0 0.00127085)
(0 0 0.00121869)
(0 0 0.00116655)
(0 0 0.00111445)
(0 0 0.00106238)
(0 0 0.00101034)
(0 0 0.000958326)
(0 0 0.000906341)
(0 0 0.000854385)
(0 0 0.000802456)
(0 0 0.000750553)
(0 0 0.000698675)
(0 0 0.00064682)
(0 0 0.000594988)
(0 0 0.000543177)
(0 0 0.000491386)
(0 0 0.000439612)
(0 0 0.000387854)
(0 0 0.000336111)
(0 0 0.00028438)
(0 0 0.00023266)
(0 0 0.000180948)
(0 0 0.000129244)
(0 0 7.75444e-05)
(0 0 2.58478e-05)
(0 0 4.02314e-05)
(0 0 0.000120696)
(0 0 0.000201166)
(0 0 0.000281644)
(0 0 0.000362134)
(0 0 0.000442639)
(0 0 0.000523162)
(0 0 0.000603707)
(0 0 0.000684276)
(0 0 0.000764874)
(0 0 0.000845502)
(0 0 0.000926164)
(0 0 0.00100686)
(0 0 0.0010876)
(0 0 0.00116838)
(0 0 0.00124921)
(0 0 0.00133008)
(0 0 0.001411)
(0 0 0.00149198)
(0 0 0.001573)
(0 0 0.00165409)
(0 0 0.00173523)
(0 0 0.00181642)
(0 0 0.00189768)
(0 0 0.001979)
(0 0 0.00206038)
(0 0 0.00214183)
(0 0 0.00222334)
(0 0 0.00230491)
(0 0 0.00238654)
(0 0 0.00246824)
(0 0 0.00255)
(0 0 0.00263182)
(0 0 0.0027137)
(0 0 0.00279564)
(0 0 0.00287764)
(0 0 0.00295969)
(0 0 0.00304179)
(0 0 0.00312395)
(0 0 0.00320614)
(0 0 0.00328838)
(0 0 0.00337066)
(0 0 0.00345297)
(0 0 0.00353531)
(0 0 0.00361767)
(0 0 0.00370005)
(0 0 0.00378244)
(0 0 0.00386483)
(0 0 0.00394722)
(0 0 0.0040296)
(0 0 0.00411195)
(0 0 0.00419428)
(0 0 0.00427657)
(0 0 0.00435881)
(0 0 0.00444098)
(0 0 0.00452309)
(0 0 0.00460511)
(0 0 0.00468703)
(0 0 0.00476885)
(0 0 0.00485054)
(0 0 0.00493209)
(0 0 0.00501348)
(0 0 0.00509471)
(0 0 0.00517574)
(0 0 0.00525657)
(0 0 0.00533718)
(0 0 0.00541754)
(0 0 0.00549764)
(0 0 0.00557746)
(0 0 0.00565697)
(0 0 0.00573615)
(0 0 0.00581498)
(0 0 0.00589344)
(0 0 0.0059715)
(0 0 0.00604913)
(0 0 0.00612631)
(0 0 0.00620302)
(0 0 0.00627922)
(0 0 0.00635488)
(0 0 0.00642999)
(0 0 0.0065045)
(0 0 0.00657838)
(0 0 0.00665161)
(0 0 0.00672416)
(0 0 0.00679598)
(0 0 0.00686705)
(0 0 0.00693734)
(0 0 0.0070068)
(0 0 0.00707541)
(0 0 0.00714312)
(0 0 0.00720991)
(0 0 0.00727573)
(0 0 0.00734056)
(0 0 0.00740434)
(0 0 0.00746705)
(0 0 0.00752864)
(0 0 0.00758908)
(0 0 0.00764833)
(0 0 0.00770636)
(0 0 0.00776311)
(0 0 0.00781857)
(0 0 0.00787268)
(0 0 0.00792541)
(0 0 0.00797672)
(0 0 0.00802658)
(0 0 0.00807494)
(0 0 0.00812178)
(0 0 0.00816705)
(0 0 0.00821071)
(0 0 0.00825275)
(0 0 0.00829311)
(0 0 0.00833177)
(0 0 0.0083687)
(0 0 0.00840386)
(0 0 0.00843722)
(0 0 0.00846876)
(0 0 0.00849845)
(0 0 0.00852625)
(0 0 0.00855214)
(0 0 0.00857611)
(0 0 0.00859812)
(0 0 0.00861815)
(0 0 0.0086362)
(0 0 0.00865223)
(0 0 0.00866623)
(0 0 0.00867818)
(0 0 0.00868808)
(0 0 0.00869592)
(0 0 0.00870167)
(0 0 0.00870534)
(0 0 0.00870692)
(0 0 0.00870641)
(0 0 0.0087038)
(0 0 0.00869909)
(0 0 0.00869229)
(0 0 0.00868339)
(0 0 0.00867242)
(0 0 0.00865936)
(0 0 0.00864423)
(0 0 0.00862705)
(0 0 0.00860782)
(0 0 0.00858657)
(0 0 0.0085633)
(0 0 0.00853803)
(0 0 0.00851079)
(0 0 0.00848159)
(0 0 0.00845046)
(0 0 0.00841742)
(0 0 0.0083825)
(0 0 0.00834572)
(0 0 0.00830712)
(0 0 0.00826672)
(0 0 0.00822455)
(0 0 0.00818064)
(0 0 0.00813503)
(0 0 0.00808775)
(0 0 0.00803883)
(0 0 0.00798831)
(0 0 0.00793623)
(0 0 0.00788261)
(0 0 0.00782751)
(0 0 0.00777095)
(0 0 0.00771297)
(0 0 0.00765361)
(0 0 0.00759291)
(0 0 0.0075309)
(0 0 0.00746763)
(0 0 0.00740314)
(0 0 0.00733745)
(0 0 0.00727062)
(0 0 0.00720267)
(0 0 0.00713365)
(0 0 0.0070636)
(0 0 0.00699254)
(0 0 0.00692053)
(0 0 0.00684759)
(0 0 0.00677376)
(0 0 0.00669908)
(0 0 0.00662358)
(0 0 0.0065473)
(0 0 0.00647027)
(0 0 0.00639253)
(0 0 0.0063141)
(0 0 0.00623503)
(0 0 0.00615533)
(0 0 0.00607505)
(0 0 0.00599421)
(0 0 0.00591284)
(0 0 0.00583097)
(0 0 0.00574863)
(0 0 0.00566584)
(0 0 0.00558264)
(0 0 0.00549904)
(0 0 0.00541507)
(0 0 0.00533076)
(0 0 0.00524612)
(0 0 0.00516119)
(0 0 0.00507598)
(0 0 0.00499051)
(0 0 0.0049048)
(0 0 0.00481887)
(0 0 0.00473275)
(0 0 0.00464644)
(0 0 0.00455996)
(0 0 0.00447334)
(0 0 0.00438658)
(0 0 0.0042997)
(0 0 0.00421271)
(0 0 0.00412563)
(0 0 0.00403847)
(0 0 0.00395124)
(0 0 0.00386396)
(0 0 0.00377662)
(0 0 0.00368925)
(0 0 0.00360185)
(0 0 0.00351444)
(0 0 0.00342701)
(0 0 0.00333957)
(0 0 0.00325214)
(0 0 0.00316472)
(0 0 0.00307732)
(0 0 0.00298993)
(0 0 0.00290257)
(0 0 0.00281524)
(0 0 0.00272794)
(0 0 0.00264068)
(0 0 0.00255347)
(0 0 0.00246629)
(0 0 0.00237916)
(0 0 0.00229207)
(0 0 0.00220504)
(0 0 0.00211805)
(0 0 0.00203111)
(0 0 0.00194422)
(0 0 0.00185739)
(0 0 0.0017706)
(0 0 0.00168386)
(0 0 0.00159718)
(0 0 0.00151054)
(0 0 0.00142394)
(0 0 0.0013374)
(0 0 0.00125089)
(0 0 0.00116443)
(0 0 0.00107801)
(0 0 0.000991624)
(0 0 0.000905274)
(0 0 0.000818956)
(0 0 0.000732668)
(0 0 0.000646407)
(0 0 0.00056017)
(0 0 0.000473954)
(0 0 0.000387756)
(0 0 0.000301573)
(0 0 0.000215401)
(0 0 0.000129237)
(0 0 4.30785e-05)
(0 0 5.63217e-05)
(0 0 0.000168967)
(0 0 0.00028162)
(0 0 0.000394285)
(0 0 0.000506966)
(0 0 0.000619668)
(0 0 0.000732396)
(0 0 0.000845155)
(0 0 0.000957948)
(0 0 0.00107078)
(0 0 0.00118365)
(0 0 0.00129658)
(0 0 0.00140955)
(0 0 0.00152258)
(0 0 0.00163567)
(0 0 0.00174882)
(0 0 0.00186204)
(0 0 0.00197533)
(0 0 0.00208869)
(0 0 0.00220213)
(0 0 0.00231564)
(0 0 0.00242923)
(0 0 0.00254291)
(0 0 0.00265667)
(0 0 0.00277052)
(0 0 0.00288445)
(0 0 0.00299847)
(0 0 0.00311258)
(0 0 0.00322678)
(0 0 0.00334107)
(0 0 0.00345545)
(0 0 0.00356991)
(0 0 0.00368446)
(0 0 0.0037991)
(0 0 0.00391382)
(0 0 0.00402862)
(0 0 0.00414349)
(0 0 0.00425844)
(0 0 0.00437346)
(0 0 0.00448854)
(0 0 0.00460368)
(0 0 0.00471888)
(0 0 0.00483412)
(0 0 0.0049494)
(0 0 0.00506472)
(0 0 0.00518006)
(0 0 0.00529541)
(0 0 0.00541077)
(0 0 0.00552613)
(0 0 0.00564147)
(0 0 0.00575678)
(0 0 0.00587205)
(0 0 0.00598726)
(0 0 0.00610241)
(0 0 0.00621748)
(0 0 0.00633244)
(0 0 0.00644729)
(0 0 0.006562)
(0 0 0.00667656)
(0 0 0.00679094)
(0 0 0.00690514)
(0 0 0.00701911)
(0 0 0.00713285)
(0 0 0.00724633)
(0 0 0.00735951)
(0 0 0.00747239)
(0 0 0.00758493)
(0 0 0.0076971)
(0 0 0.00780887)
(0 0 0.00792021)
(0 0 0.0080311)
(0 0 0.0081415)
(0 0 0.00825137)
(0 0 0.00836069)
(0 0 0.00846941)
(0 0 0.00857751)
(0 0 0.00868493)
(0 0 0.00879165)
(0 0 0.00889762)
(0 0 0.00900281)
(0 0 0.00910717)
(0 0 0.00921065)
(0 0 0.00931322)
(0 0 0.00941483)
(0 0 0.00951543)
(0 0 0.00961498)
(0 0 0.00971342)
(0 0 0.00981072)
(0 0 0.00990682)
(0 0 0.0100017)
(0 0 0.0100952)
(0 0 0.0101874)
(0 0 0.0102782)
(0 0 0.0103676)
(0 0 0.0104554)
(0 0 0.0105417)
(0 0 0.0106264)
(0 0 0.0107094)
(0 0 0.0107907)
(0 0 0.0108702)
(0 0 0.0109479)
(0 0 0.0110237)
(0 0 0.0110976)
(0 0 0.0111694)
(0 0 0.0112393)
(0 0 0.0113071)
(0 0 0.0113727)
(0 0 0.0114361)
(0 0 0.0114973)
(0 0 0.0115562)
(0 0 0.0116127)
(0 0 0.0116669)
(0 0 0.0117187)
(0 0 0.0117679)
(0 0 0.0118147)
(0 0 0.0118589)
(0 0 0.0119005)
(0 0 0.0119394)
(0 0 0.0119757)
(0 0 0.0120093)
(0 0 0.0120401)
(0 0 0.0120682)
(0 0 0.0120935)
(0 0 0.012116)
(0 0 0.0121356)
(0 0 0.0121523)
(0 0 0.0121662)
(0 0 0.0121772)
(0 0 0.0121853)
(0 0 0.0121904)
(0 0 0.0121926)
(0 0 0.0121919)
(0 0 0.0121882)
(0 0 0.0121817)
(0 0 0.0121721)
(0 0 0.0121597)
(0 0 0.0121443)
(0 0 0.012126)
(0 0 0.0121048)
(0 0 0.0120807)
(0 0 0.0120538)
(0 0 0.012024)
(0 0 0.0119914)
(0 0 0.011956)
(0 0 0.0119178)
(0 0 0.0118769)
(0 0 0.0118333)
(0 0 0.011787)
(0 0 0.0117381)
(0 0 0.0116866)
(0 0 0.0116325)
(0 0 0.0115759)
(0 0 0.0115168)
(0 0 0.0114553)
(0 0 0.0113914)
(0 0 0.0113251)
(0 0 0.0112566)
(0 0 0.0111858)
(0 0 0.0111129)
(0 0 0.0110377)
(0 0 0.0109605)
(0 0 0.0108813)
(0 0 0.0108001)
(0 0 0.0107169)
(0 0 0.0106319)
(0 0 0.010545)
(0 0 0.0104564)
(0 0 0.0103661)
(0 0 0.010274)
(0 0 0.0101804)
(0 0 0.0100852)
(0 0 0.00998856)
(0 0 0.00989043)
(0 0 0.00979091)
(0 0 0.00969004)
(0 0 0.00958787)
(0 0 0.00948446)
(0 0 0.00937986)
(0 0 0.00927411)
(0 0 0.00916727)
(0 0 0.00905938)
(0 0 0.0089505)
(0 0 0.00884065)
(0 0 0.0087299)
(0 0 0.00861829)
(0 0 0.00850585)
(0 0 0.00839263)
(0 0 0.00827867)
(0 0 0.00816402)
(0 0 0.0080487)
(0 0 0.00793276)
(0 0 0.00781624)
(0 0 0.00769917)
(0 0 0.00758158)
(0 0 0.00746351)
(0 0 0.00734499)
(0 0 0.00722605)
(0 0 0.00710673)
(0 0 0.00698704)
(0 0 0.00686703)
(0 0 0.0067467)
(0 0 0.0066261)
(0 0 0.00650524)
(0 0 0.00638416)
(0 0 0.00626286)
(0 0 0.00614138)
(0 0 0.00601972)
(0 0 0.00589792)
(0 0 0.005776)
(0 0 0.00565396)
(0 0 0.00553182)
(0 0 0.0054096)
(0 0 0.00528732)
(0 0 0.00516499)
(0 0 0.00504262)
(0 0 0.00492023)
(0 0 0.00479781)
(0 0 0.0046754)
(0 0 0.00455299)
(0 0 0.00443059)
(0 0 0.00430821)
(0 0 0.00418587)
(0 0 0.00406356)
(0 0 0.00394129)
(0 0 0.00381907)
(0 0 0.0036969)
(0 0 0.00357479)
(0 0 0.00345274)
(0 0 0.00333076)
(0 0 0.00320883)
(0 0 0.00308698)
(0 0 0.0029652)
(0 0 0.00284349)
(0 0 0.00272184)
(0 0 0.00260027)
(0 0 0.00247877)
(0 0 0.00235734)
(0 0 0.00223598)
(0 0 0.00211469)
(0 0 0.00199346)
(0 0 0.0018723)
(0 0 0.00175119)
(0 0 0.00163015)
(0 0 0.00150916)
(0 0 0.00138822)
(0 0 0.00126734)
(0 0 0.0011465)
(0 0 0.0010257)
(0 0 0.000904937)
(0 0 0.000784209)
(0 0 0.000663511)
(0 0 0.000542838)
(0 0 0.000422186)
(0 0 0.00030155)
(0 0 0.000180925)
(0 0 6.03076e-05)
(0 0 7.24095e-05)
(0 0 0.000217232)
(0 0 0.000362063)
(0 0 0.000506909)
(0 0 0.000651777)
(0 0 0.000796672)
(0 0 0.0009416)
(0 0 0.00108657)
(0 0 0.00123158)
(0 0 0.00137664)
(0 0 0.00152176)
(0 0 0.00166694)
(0 0 0.00181219)
(0 0 0.0019575)
(0 0 0.0021029)
(0 0 0.00224837)
(0 0 0.00239393)
(0 0 0.00253958)
(0 0 0.00268533)
(0 0 0.00283117)
(0 0 0.00297711)
(0 0 0.00312316)
(0 0 0.00326931)
(0 0 0.00341557)
(0 0 0.00356194)
(0 0 0.00370843)
(0 0 0.00385503)
(0 0 0.00400174)
(0 0 0.00414857)
(0 0 0.00429551)
(0 0 0.00444257)
(0 0 0.00458974)
(0 0 0.00473702)
(0 0 0.00488441)
(0 0 0.00503191)
(0 0 0.00517952)
(0 0 0.00532722)
(0 0 0.00547502)
(0 0 0.00562291)
(0 0 0.00577088)
(0 0 0.00591893)
(0 0 0.00606705)
(0 0 0.00621523)
(0 0 0.00636346)
(0 0 0.00651174)
(0 0 0.00666005)
(0 0 0.00680837)
(0 0 0.00695671)
(0 0 0.00710505)
(0 0 0.00725336)
(0 0 0.00740164)
(0 0 0.00754987)
(0 0 0.00769803)
(0 0 0.0078461)
(0 0 0.00799407)
(0 0 0.00814191)
(0 0 0.0082896)
(0 0 0.00843712)
(0 0 0.00858444)
(0 0 0.00873155)
(0 0 0.0088784)
(0 0 0.00902498)
(0 0 0.00917126)
(0 0 0.00931719)
(0 0 0.00946277)
(0 0 0.00960794)
(0 0 0.00975268)
(0 0 0.00989694)
(0 0 0.0100407)
(0 0 0.0101839)
(0 0 0.0103265)
(0 0 0.0104685)
(0 0 0.0106099)
(0 0 0.0107505)
(0 0 0.0108903)
(0 0 0.0110294)
(0 0 0.0111676)
(0 0 0.0113048)
(0 0 0.0114412)
(0 0 0.0115765)
(0 0 0.0117107)
(0 0 0.0118438)
(0 0 0.0119758)
(0 0 0.0121065)
(0 0 0.0122359)
(0 0 0.012364)
(0 0 0.0124907)
(0 0 0.0126158)
(0 0 0.0127395)
(0 0 0.0128615)
(0 0 0.0129819)
(0 0 0.0131005)
(0 0 0.0132174)
(0 0 0.0133323)
(0 0 0.0134454)
(0 0 0.0135564)
(0 0 0.0136653)
(0 0 0.0137722)
(0 0 0.0138768)
(0 0 0.0139791)
(0 0 0.0140791)
(0 0 0.0141766)
(0 0 0.0142717)
(0 0 0.0143642)
(0 0 0.0144541)
(0 0 0.0145413)
(0 0 0.0146258)
(0 0 0.0147074)
(0 0 0.0147862)
(0 0 0.014862)
(0 0 0.0149348)
(0 0 0.0150045)
(0 0 0.0150711)
(0 0 0.0151345)
(0 0 0.0151947)
(0 0 0.0152516)
(0 0 0.0153051)
(0 0 0.0153553)
(0 0 0.015402)
(0 0 0.0154452)
(0 0 0.0154849)
(0 0 0.0155211)
(0 0 0.0155536)
(0 0 0.0155825)
(0 0 0.0156078)
(0 0 0.0156294)
(0 0 0.0156472)
(0 0 0.0156614)
(0 0 0.0156718)
(0 0 0.0156784)
(0 0 0.0156813)
(0 0 0.0156803)
(0 0 0.0156756)
(0 0 0.0156672)
(0 0 0.0156549)
(0 0 0.0156389)
(0 0 0.0156191)
(0 0 0.0155955)
(0 0 0.0155683)
(0 0 0.0155373)
(0 0 0.0155026)
(0 0 0.0154643)
(0 0 0.0154223)
(0 0 0.0153768)
(0 0 0.0153276)
(0 0 0.015275)
(0 0 0.0152188)
(0 0 0.0151593)
(0 0 0.0150963)
(0 0 0.01503)
(0 0 0.0149604)
(0 0 0.0148875)
(0 0 0.0148115)
(0 0 0.0147323)
(0 0 0.0146501)
(0 0 0.0145648)
(0 0 0.0144766)
(0 0 0.0143855)
(0 0 0.0142916)
(0 0 0.014195)
(0 0 0.0140956)
(0 0 0.0139937)
(0 0 0.0138891)
(0 0 0.0137821)
(0 0 0.0136727)
(0 0 0.0135609)
(0 0 0.0134469)
(0 0 0.0133306)
(0 0 0.0132122)
(0 0 0.0130918)
(0 0 0.0129693)
(0 0 0.0128449)
(0 0 0.0127187)
(0 0 0.0125906)
(0 0 0.0124608)
(0 0 0.0123294)
(0 0 0.0121964)
(0 0 0.0120618)
(0 0 0.0119257)
(0 0 0.0117883)
(0 0 0.0116495)
(0 0 0.0115094)
(0 0 0.0113681)
(0 0 0.0112256)
(0 0 0.0110821)
(0 0 0.0109374)
(0 0 0.0107918)
(0 0 0.0106452)
(0 0 0.0104977)
(0 0 0.0103494)
(0 0 0.0102003)
(0 0 0.0100504)
(0 0 0.00989982)
(0 0 0.00974857)
(0 0 0.00959672)
(0 0 0.00944428)
(0 0 0.00929131)
(0 0 0.00913784)
(0 0 0.00898391)
(0 0 0.00882956)
(0 0 0.00867481)
(0 0 0.00851971)
(0 0 0.00836428)
(0 0 0.00820856)
(0 0 0.00805257)
(0 0 0.00789634)
(0 0 0.0077399)
(0 0 0.00758327)
(0 0 0.00742647)
(0 0 0.00726954)
(0 0 0.00711248)
(0 0 0.00695532)
(0 0 0.00679808)
(0 0 0.00664077)
(0 0 0.00648342)
(0 0 0.00632603)
(0 0 0.00616863)
(0 0 0.00601122)
(0 0 0.00585382)
(0 0 0.00569643)
(0 0 0.00553908)
(0 0 0.00538177)
(0 0 0.0052245)
(0 0 0.00506729)
(0 0 0.00491014)
(0 0 0.00475306)
(0 0 0.00459606)
(0 0 0.00443913)
(0 0 0.00428229)
(0 0 0.00412553)
(0 0 0.00396886)
(0 0 0.00381228)
(0 0 0.00365579)
(0 0 0.00349939)
(0 0 0.00334309)
(0 0 0.00318687)
(0 0 0.00303075)
(0 0 0.00287472)
(0 0 0.00271877)
(0 0 0.00256291)
(0 0 0.00240713)
(0 0 0.00225143)
(0 0 0.00209581)
(0 0 0.00194026)
(0 0 0.00178478)
(0 0 0.00162936)
(0 0 0.001474)
(0 0 0.00131869)
(0 0 0.00116343)
(0 0 0.00100822)
(0 0 0.000853042)
(0 0 0.000697899)
(0 0 0.000542783)
(0 0 0.000387687)
(0 0 0.000232606)
(0 0 7.75344e-05)
(0 0 8.84942e-05)
(0 0 0.000265487)
(0 0 0.00044249)
(0 0 0.000619512)
(0 0 0.000796561)
(0 0 0.000973642)
(0 0 0.00115076)
(0 0 0.00132794)
(0 0 0.00150516)
(0 0 0.00168245)
(0 0 0.0018598)
(0 0 0.00203723)
(0 0 0.00221475)
(0 0 0.00239235)
(0 0 0.00257004)
(0 0 0.00274784)
(0 0 0.00292574)
(0 0 0.00310374)
(0 0 0.00328187)
(0 0 0.00346011)
(0 0 0.00363848)
(0 0 0.00381697)
(0 0 0.0039956)
(0 0 0.00417436)
(0 0 0.00435326)
(0 0 0.00453229)
(0 0 0.00471146)
(0 0 0.00489078)
(0 0 0.00507024)
(0 0 0.00524983)
(0 0 0.00542957)
(0 0 0.00560945)
(0 0 0.00578947)
(0 0 0.00596962)
(0 0 0.00614991)
(0 0 0.00633032)
(0 0 0.00651085)
(0 0 0.0066915)
(0 0 0.00687227)
(0 0 0.00705314)
(0 0 0.0072341)
(0 0 0.00741515)
(0 0 0.00759628)
(0 0 0.00777747)
(0 0 0.00795872)
(0 0 0.00814001)
(0 0 0.00832133)
(0 0 0.00850266)
(0 0 0.00868398)
(0 0 0.00886529)
(0 0 0.00904655)
(0 0 0.00922775)
(0 0 0.00940887)
(0 0 0.00958989)
(0 0 0.00977078)
(0 0 0.00995152)
(0 0 0.0101321)
(0 0 0.0103124)
(0 0 0.0104925)
(0 0 0.0106724)
(0 0 0.0108519)
(0 0 0.0110312)
(0 0 0.01121)
(0 0 0.0113884)
(0 0 0.0115664)
(0 0 0.0117439)
(0 0 0.0119209)
(0 0 0.0120973)
(0 0 0.0122731)
(0 0 0.0124482)
(0 0 0.0126226)
(0 0 0.0127962)
(0 0 0.0129691)
(0 0 0.013141)
(0 0 0.013312)
(0 0 0.0134821)
(0 0 0.0136511)
(0 0 0.013819)
(0 0 0.0139857)
(0 0 0.0141512)
(0 0 0.0143154)
(0 0 0.0144782)
(0 0 0.0146396)
(0 0 0.0147995)
(0 0 0.0149578)
(0 0 0.0151144)
(0 0 0.0152694)
(0 0 0.0154225)
(0 0 0.0155737)
(0 0 0.015723)
(0 0 0.0158703)
(0 0 0.0160154)
(0 0 0.0161584)
(0 0 0.016299)
(0 0 0.0164373)
(0 0 0.0165731)
(0 0 0.0167064)
(0 0 0.0168371)
(0 0 0.0169651)
(0 0 0.0170903)
(0 0 0.0172127)
(0 0 0.017332)
(0 0 0.0174484)
(0 0 0.0175616)
(0 0 0.0176716)
(0 0 0.0177783)
(0 0 0.0178817)
(0 0 0.0179816)
(0 0 0.018078)
(0 0 0.0181707)
(0 0 0.0182598)
(0 0 0.0183452)
(0 0 0.0184267)
(0 0 0.0185043)
(0 0 0.018578)
(0 0 0.0186476)
(0 0 0.0187131)
(0 0 0.0187745)
(0 0 0.0188317)
(0 0 0.0188846)
(0 0 0.0189332)
(0 0 0.0189775)
(0 0 0.0190173)
(0 0 0.0190528)
(0 0 0.0190837)
(0 0 0.0191101)
(0 0 0.019132)
(0 0 0.0191493)
(0 0 0.019162)
(0 0 0.0191702)
(0 0 0.0191737)
(0 0 0.0191725)
(0 0 0.0191668)
(0 0 0.0191564)
(0 0 0.0191414)
(0 0 0.0191218)
(0 0 0.0190976)
(0 0 0.0190688)
(0 0 0.0190354)
(0 0 0.0189975)
(0 0 0.0189551)
(0 0 0.0189082)
(0 0 0.0188568)
(0 0 0.0188011)
(0 0 0.0187409)
(0 0 0.0186765)
(0 0 0.0186078)
(0 0 0.0185349)
(0 0 0.0184578)
(0 0 0.0183767)
(0 0 0.0182915)
(0 0 0.0182023)
(0 0 0.0181093)
(0 0 0.0180124)
(0 0 0.0179118)
(0 0 0.0178074)
(0 0 0.0176995)
(0 0 0.0175881)
(0 0 0.0174732)
(0 0 0.0173549)
(0 0 0.0172333)
(0 0 0.0171086)
(0 0 0.0169807)
(0 0 0.0168497)
(0 0 0.0167159)
(0 0 0.0165791)
(0 0 0.0164396)
(0 0 0.0162974)
(0 0 0.0161525)
(0 0 0.0160051)
(0 0 0.0158553)
(0 0 0.0157032)
(0 0 0.0155487)
(0 0 0.0153921)
(0 0 0.0152333)
(0 0 0.0150725)
(0 0 0.0149098)
(0 0 0.0147452)
(0 0 0.0145788)
(0 0 0.0144106)
(0 0 0.0142409)
(0 0 0.0140696)
(0 0 0.0138967)
(0 0 0.0137225)
(0 0 0.0135469)
(0 0 0.01337)
(0 0 0.0131919)
(0 0 0.0130126)
(0 0 0.0128323)
(0 0 0.0126509)
(0 0 0.0124685)
(0 0 0.0122853)
(0 0 0.0121011)
(0 0 0.0119162)
(0 0 0.0117305)
(0 0 0.0115441)
(0 0 0.0113571)
(0 0 0.0111694)
(0 0 0.0109812)
(0 0 0.0107925)
(0 0 0.0106033)
(0 0 0.0104136)
(0 0 0.0102236)
(0 0 0.0100332)
(0 0 0.00984252)
(0 0 0.00965152)
(0 0 0.00946026)
(0 0 0.00926878)
(0 0 0.0090771)
(0 0 0.00888524)
(0 0 0.00869324)
(0 0 0.00850112)
(0 0 0.0083089)
(0 0 0.0081166)
(0 0 0.00792425)
(0 0 0.00773186)
(0 0 0.00753945)
(0 0 0.00734703)
(0 0 0.00715463)
(0 0 0.00696225)
(0 0 0.00676991)
(0 0 0.00657762)
(0 0 0.00638539)
(0 0 0.00619323)
(0 0 0.00600115)
(0 0 0.00580915)
(0 0 0.00561725)
(0 0 0.00542544)
(0 0 0.00523373)
(0 0 0.00504214)
(0 0 0.00485065)
(0 0 0.00465927)
(0 0 0.004468)
(0 0 0.00427685)
(0 0 0.00408581)
(0 0 0.00389488)
(0 0 0.00370407)
(0 0 0.00351337)
(0 0 0.00332277)
(0 0 0.00313228)
(0 0 0.00294189)
(0 0 0.0027516)
(0 0 0.0025614)
(0 0 0.00237129)
(0 0 0.00218126)
(0 0 0.00199132)
(0 0 0.00180144)
(0 0 0.00161163)
(0 0 0.00142188)
(0 0 0.00123219)
(0 0 0.00104254)
(0 0 0.000852934)
(0 0 0.000663358)
(0 0 0.000473809)
(0 0 0.000284278)
(0 0 9.47582e-05)
(0 0 0.000104575)
(0 0 0.00031373)
(0 0 0.000522898)
(0 0 0.000732089)
(0 0 0.000941311)
(0 0 0.00115057)
(0 0 0.00135988)
(0 0 0.00156925)
(0 0 0.00177868)
(0 0 0.00198818)
(0 0 0.00219777)
(0 0 0.00240745)
(0 0 0.00261722)
(0 0 0.0028271)
(0 0 0.00303709)
(0 0 0.00324719)
(0 0 0.00345743)
(0 0 0.00366779)
(0 0 0.00387829)
(0 0 0.00408893)
(0 0 0.00429972)
(0 0 0.00451066)
(0 0 0.00472176)
(0 0 0.00493301)
(0 0 0.00514443)
(0 0 0.00535601)
(0 0 0.00556776)
(0 0 0.00577968)
(0 0 0.00599176)
(0 0 0.00620402)
(0 0 0.00641644)
(0 0 0.00662903)
(0 0 0.00684178)
(0 0 0.00705469)
(0 0 0.00726777)
(0 0 0.00748099)
(0 0 0.00769436)
(0 0 0.00790788)
(0 0 0.00812152)
(0 0 0.0083353)
(0 0 0.00854918)
(0 0 0.00876318)
(0 0 0.00897726)
(0 0 0.00919143)
(0 0 0.00940566)
(0 0 0.00961995)
(0 0 0.00983427)
(0 0 0.0100486)
(0 0 0.0102629)
(0 0 0.0104773)
(0 0 0.0106915)
(0 0 0.0109057)
(0 0 0.0111198)
(0 0 0.0113338)
(0 0 0.0115476)
(0 0 0.0117613)
(0 0 0.0119748)
(0 0 0.012188)
(0 0 0.0124009)
(0 0 0.0126135)
(0 0 0.0128258)
(0 0 0.0130377)
(0 0 0.0132491)
(0 0 0.0134601)
(0 0 0.0136706)
(0 0 0.0138804)
(0 0 0.0140897)
(0 0 0.0142983)
(0 0 0.0145061)
(0 0 0.0147132)
(0 0 0.0149194)
(0 0 0.0151248)
(0 0 0.0153291)
(0 0 0.0155325)
(0 0 0.0157347)
(0 0 0.0159358)
(0 0 0.0161357)
(0 0 0.0163343)
(0 0 0.0165314)
(0 0 0.0167272)
(0 0 0.0169214)
(0 0 0.017114)
(0 0 0.0173049)
(0 0 0.017494)
(0 0 0.0176813)
(0 0 0.0178666)
(0 0 0.0180499)
(0 0 0.018231)
(0 0 0.01841)
(0 0 0.0185866)
(0 0 0.0187608)
(0 0 0.0189325)
(0 0 0.0191016)
(0 0 0.019268)
(0 0 0.0194317)
(0 0 0.0195924)
(0 0 0.0197502)
(0 0 0.0199048)
(0 0 0.0200563)
(0 0 0.0202044)
(0 0 0.0203492)
(0 0 0.0204905)
(0 0 0.0206282)
(0 0 0.0207622)
(0 0 0.0208924)
(0 0 0.0210187)
(0 0 0.021141)
(0 0 0.0212593)
(0 0 0.0213734)
(0 0 0.0214832)
(0 0 0.0215887)
(0 0 0.0216897)
(0 0 0.0217862)
(0 0 0.0218781)
(0 0 0.0219653)
(0 0 0.0220477)
(0 0 0.0221253)
(0 0 0.022198)
(0 0 0.0222657)
(0 0 0.0223284)
(0 0 0.0223859)
(0 0 0.0224383)
(0 0 0.0224855)
(0 0 0.0225275)
(0 0 0.0225641)
(0 0 0.0225954)
(0 0 0.0226213)
(0 0 0.0226418)
(0 0 0.0226569)
(0 0 0.0226665)
(0 0 0.0226707)
(0 0 0.0226694)
(0 0 0.0226626)
(0 0 0.0226503)
(0 0 0.0226326)
(0 0 0.0226094)
(0 0 0.0225807)
(0 0 0.0225466)
(0 0 0.0225071)
(0 0 0.0224623)
(0 0 0.022412)
(0 0 0.0223565)
(0 0 0.0222957)
(0 0 0.0222297)
(0 0 0.0221586)
(0 0 0.0220823)
(0 0 0.022001)
(0 0 0.0219147)
(0 0 0.0218235)
(0 0 0.0217274)
(0 0 0.0216266)
(0 0 0.0215211)
(0 0 0.0214109)
(0 0 0.0212963)
(0 0 0.0211771)
(0 0 0.0210537)
(0 0 0.0209259)
(0 0 0.020794)
(0 0 0.0206581)
(0 0 0.0205181)
(0 0 0.0203742)
(0 0 0.0202266)
(0 0 0.0200752)
(0 0 0.0199203)
(0 0 0.0197619)
(0 0 0.0196001)
(0 0 0.019435)
(0 0 0.0192667)
(0 0 0.0190953)
(0 0 0.0189209)
(0 0 0.0187437)
(0 0 0.0185637)
(0 0 0.0183809)
(0 0 0.0181956)
(0 0 0.0180078)
(0 0 0.0178176)
(0 0 0.0176251)
(0 0 0.0174304)
(0 0 0.0172335)
(0 0 0.0170347)
(0 0 0.0168339)
(0 0 0.0166312)
(0 0 0.0164268)
(0 0 0.0162207)
(0 0 0.016013)
(0 0 0.0158038)
(0 0 0.0155932)
(0 0 0.0153812)
(0 0 0.0151679)
(0 0 0.0149534)
(0 0 0.0147377)
(0 0 0.014521)
(0 0 0.0143032)
(0 0 0.0140846)
(0 0 0.013865)
(0 0 0.0136446)
(0 0 0.0134234)
(0 0 0.0132015)
(0 0 0.012979)
(0 0 0.0127559)
(0 0 0.0125322)
(0 0 0.012308)
(0 0 0.0120833)
(0 0 0.0118582)
(0 0 0.0116328)