/*--------------------------------*- C++ -*----------------------------------*\
| =========                 |                                                 |
| \\      /  F ield         | OpenFOAM: The Open Source CFD Toolbox           |
|  \\    /   O peration     | Version:  v2012                                 |
|   \\  /    A nd           | Website:  www.openfoam.com                      |
|    \\/     M anipulation  |                                                 |
\*---------------------------------------------------------------------------*/
FoamFile
{
    version     2.0;
    format      ascii;
    class       volVectorField;
    location    "19";
    object      U;
}
// * * * * * * * * * * * * * * * * * * * * * * * * * * * * * * * * * * * * * //

dimensions      [0 1 -1 0 0 0 0];


internalField   nonuniform List<vector> 
65536
(
(0.000656351 -0.000656364 0)
(0.00196908 -0.000656393 0)
(0.0032819 -0.000656449 0)
(0.00459486 -0.000656533 0)
(0.00590801 -0.000656643 0)
(0.00722141 -0.000656781 0)
(0.00853511 -0.000656946 0)
(0.00984917 -0.000657138 0)
(0.0111636 -0.000657355 0)
(0.0124786 -0.000657598 0)
(0.013794 -0.000657866 0)
(0.01511 -0.000658158 0)
(0.0164266 -0.000658473 0)
(0.0177439 -0.000658811 0)
(0.0190618 -0.000659171 0)
(0.0203806 -0.000659551 0)
(0.0217 -0.000659951 0)
(0.0230203 -0.00066037 0)
(0.0243415 -0.000660806 0)
(0.0256636 -0.000661258 0)
(0.0269865 -0.000661724 0)
(0.0283104 -0.000662204 0)
(0.0296353 -0.000662696 0)
(0.0309612 -0.000663198 0)
(0.0322881 -0.000663708 0)
(0.033616 -0.000664224 0)
(0.034945 -0.000664746 0)
(0.036275 -0.00066527 0)
(0.0376061 -0.000665795 0)
(0.0389382 -0.000666318 0)
(0.0402714 -0.000666837 0)
(0.0416056 -0.000667351 0)
(0.0429408 -0.000667856 0)
(0.044277 -0.000668349 0)
(0.0456142 -0.000668829 0)
(0.0469523 -0.000669292 0)
(0.0482914 -0.000669735 0)
(0.0496313 -0.000670156 0)
(0.050972 -0.000670551 0)
(0.0523135 -0.000670917 0)
(0.0536558 -0.000671251 0)
(0.0549986 -0.00067155 0)
(0.056342 -0.000671809 0)
(0.0576859 -0.000672024 0)
(0.0590301 -0.000672193 0)
(0.0603747 -0.000672312 0)
(0.0617194 -0.000672375 0)
(0.0630643 -0.000672379 0)
(0.064409 -0.00067232 0)
(0.0657536 -0.000672192 0)
(0.0670979 -0.000671993 0)
(0.0684417 -0.000671716 0)
(0.0697848 -0.000671357 0)
(0.0711272 -0.000670911 0)
(0.0724686 -0.000670374 0)
(0.0738088 -0.000669739 0)
(0.0751476 -0.000669001 0)
(0.0764849 -0.000668156 0)
(0.0778204 -0.000667198 0)
(0.0791538 -0.00066612 0)
(0.080485 -0.000664918 0)
(0.0818136 -0.000663585 0)
(0.0831394 -0.000662116 0)
(0.0844622 -0.000660504 0)
(0.0857816 -0.000658744 0)
(0.0870973 -0.000656829 0)
(0.0884091 -0.000654753 0)
(0.0897165 -0.00065251 0)
(0.0910193 -0.000650094 0)
(0.0923171 -0.000647497 0)
(0.0936095 -0.000644715 0)
(0.0948961 -0.00064174 0)
(0.0961766 -0.000638566 0)
(0.0974506 -0.000635187 0)
(0.0987176 -0.000631596 0)
(0.0999772 -0.000627787 0)
(0.101229 -0.000623753 0)
(0.102472 -0.000619489 0)
(0.103707 -0.000614989 0)
(0.104933 -0.000610246 0)
(0.106148 -0.000605254 0)
(0.107354 -0.000600008 0)
(0.108549 -0.000594502 0)
(0.109732 -0.000588731 0)
(0.110904 -0.000582689 0)
(0.112063 -0.000576372 0)
(0.11321 -0.000569774 0)
(0.114343 -0.000562891 0)
(0.115462 -0.000555719 0)
(0.116566 -0.000548253 0)
(0.117655 -0.000540491 0)
(0.118728 -0.000532429 0)
(0.119785 -0.000524063 0)
(0.120825 -0.000515392 0)
(0.121847 -0.000506413 0)
(0.122851 -0.000497124 0)
(0.123836 -0.000487524 0)
(0.124801 -0.000477613 0)
(0.125746 -0.000467389 0)
(0.126671 -0.000456854 0)
(0.127574 -0.000446007 0)
(0.128455 -0.00043485 0)
(0.129314 -0.000423385 0)
(0.130149 -0.000411614 0)
(0.13096 -0.000399539 0)
(0.131747 -0.000387165 0)
(0.132509 -0.000374495 0)
(0.133246 -0.000361534 0)
(0.133956 -0.000348287 0)
(0.134639 -0.00033476 0)
(0.135295 -0.00032096 0)
(0.135923 -0.000306893 0)
(0.136523 -0.000292568 0)
(0.137094 -0.000277992 0)
(0.137635 -0.000263175 0)
(0.138147 -0.000248126 0)
(0.138628 -0.000232854 0)
(0.139078 -0.000217371 0)
(0.139498 -0.000201687 0)
(0.139885 -0.000185815 0)
(0.140241 -0.000169765 0)
(0.140564 -0.000153552 0)
(0.140855 -0.000137186 0)
(0.141113 -0.000120683 0)
(0.141338 -0.000104056 0)
(0.14153 -8.73185e-05 0)
(0.141688 -7.04852e-05 0)
(0.141812 -5.35707e-05 0)
(0.141902 -3.659e-05 0)
(0.141958 -1.9558e-05 0)
(0.14198 -2.49002e-06 0)
(0.141968 1.45987e-05 0)
(0.141922 3.16928e-05 0)
(0.141841 4.87769e-05 0)
(0.141727 6.58356e-05 0)
(0.141578 8.28537e-05 0)
(0.141395 9.98159e-05 0)
(0.141179 0.000116707 0)
(0.140928 0.000133513 0)
(0.140644 0.000150218 0)
(0.140327 0.000166809 0)
(0.139977 0.000183271 0)
(0.139594 0.000199591 0)
(0.139179 0.000215754 0)
(0.138731 0.00023175 0)
(0.138251 0.000247564 0)
(0.13774 0.000263185 0)
(0.137198 0.000278602 0)
(0.136626 0.000293803 0)
(0.136023 0.000308779 0)
(0.13539 0.000323518 0)
(0.134729 0.000338013 0)
(0.134038 0.000352253 0)
(0.133319 0.000366231 0)
(0.132573 0.00037994 0)
(0.131799 0.000393372 0)
(0.130999 0.000406522 0)
(0.130173 0.000419383 0)
(0.129321 0.00043195 0)
(0.128445 0.000444219 0)
(0.127544 0.000456186 0)
(0.12662 0.000467848 0)
(0.125672 0.000479202 0)
(0.124703 0.000490246 0)
(0.123711 0.000500978 0)
(0.122698 0.000511397 0)
(0.121665 0.000521503 0)
(0.120612 0.000531296 0)
(0.11954 0.000540777 0)
(0.118449 0.000549945 0)
(0.11734 0.000558804 0)
(0.116213 0.000567354 0)
(0.11507 0.000575599 0)
(0.11391 0.00058354 0)
(0.112735 0.000591182 0)
(0.111545 0.000598526 0)
(0.110341 0.000605578 0)
(0.109123 0.000612342 0)
(0.107891 0.000618821 0)
(0.106647 0.00062502 0)
(0.105391 0.000630945 0)
(0.104123 0.0006366 0)
(0.102844 0.000641991 0)
(0.101555 0.000647124 0)
(0.100256 0.000652003 0)
(0.0989467 0.000656636 0)
(0.0976288 0.000661028 0)
(0.0963024 0.000665185 0)
(0.0949679 0.000669113 0)
(0.0936257 0.000672819 0)
(0.0922764 0.000676309 0)
(0.0909203 0.000679589 0)
(0.0895578 0.000682667 0)
(0.0881894 0.000685547 0)
(0.0868154 0.000688238 0)
(0.0854363 0.000690745 0)
(0.0840523 0.000693075 0)
(0.0826638 0.000695234 0)
(0.0812712 0.000697229 0)
(0.0798747 0.000699066 0)
(0.0784748 0.000700752 0)
(0.0770716 0.000702292 0)
(0.0756654 0.000703693 0)
(0.0742567 0.000704961 0)
(0.0728455 0.000706102 0)
(0.0714321 0.000707122 0)
(0.0700169 0.000708027 0)
(0.0685999 0.000708823 0)
(0.0671815 0.000709514 0)
(0.0657618 0.000710108 0)
(0.064341 0.000710608 0)
(0.0629192 0.000711021 0)
(0.0614968 0.000711352 0)
(0.0600738 0.000711606 0)
(0.0586503 0.000711787 0)
(0.0572265 0.000711901 0)
(0.0558026 0.000711952 0)
(0.0543787 0.000711945 0)
(0.0529548 0.000711885 0)
(0.0515311 0.000711775 0)
(0.0501076 0.00071162 0)
(0.0486846 0.000711424 0)
(0.0472619 0.000711191 0)
(0.0458398 0.000710925 0)
(0.0444182 0.00071063 0)
(0.0429972 0.000710308 0)
(0.0415769 0.000709964 0)
(0.0401573 0.000709601 0)
(0.0387385 0.000709222 0)
(0.0373204 0.000708829 0)
(0.0359032 0.000708428 0)
(0.0344867 0.000708018 0)
(0.0330711 0.000707605 0)
(0.0316563 0.00070719 0)
(0.0302424 0.000706775 0)
(0.0288292 0.000706364 0)
(0.0274169 0.000705958 0)
(0.0260054 0.000705559 0)
(0.0245947 0.00070517 0)
(0.0231847 0.000704792 0)
(0.0217755 0.000704427 0)
(0.020367 0.000704077 0)
(0.0189592 0.000703743 0)
(0.0175521 0.000703427 0)
(0.0161456 0.00070313 0)
(0.0147396 0.000702854 0)
(0.0133342 0.000702599 0)
(0.0119292 0.000702367 0)
(0.0105247 0.000702158 0)
(0.00912061 0.000701974 0)
(0.00771685 0.000701815 0)
(0.00631338 0.000701681 0)
(0.00491016 0.000701573 0)
(0.00350712 0.000701492 0)
(0.00210422 0.000701438 0)
(0.000701397 0.000701411 0)
(0.000656326 -0.00196907 0)
(0.001969 -0.00196916 0)
(0.00328177 -0.00196932 0)
(0.00459467 -0.00196957 0)
(0.00590777 -0.00196991 0)
(0.00722111 -0.00197032 0)
(0.00853477 -0.00197082 0)
(0.00984877 -0.00197139 0)
(0.0111632 -0.00197204 0)
(0.0124781 -0.00197277 0)
(0.0137935 -0.00197358 0)
(0.0151094 -0.00197445 0)
(0.016426 -0.0019754 0)
(0.0177432 -0.00197642 0)
(0.0190611 -0.0019775 0)
(0.0203798 -0.00197864 0)
(0.0216992 -0.00197984 0)
(0.0230195 -0.0019811 0)
(0.0243406 -0.0019824 0)
(0.0256627 -0.00198376 0)
(0.0269856 -0.00198516 0)
(0.0283095 -0.0019866 0)
(0.0296344 -0.00198808 0)
(0.0309602 -0.00198959 0)
(0.0322871 -0.00199112 0)
(0.033615 -0.00199267 0)
(0.034944 -0.00199424 0)
(0.036274 -0.00199581 0)
(0.0376051 -0.00199739 0)
(0.0389372 -0.00199896 0)
(0.0402704 -0.00200052 0)
(0.0416046 -0.00200206 0)
(0.0429398 -0.00200358 0)
(0.0442761 -0.00200506 0)
(0.0456133 -0.00200651 0)
(0.0469515 -0.0020079 0)
(0.0482906 -0.00200923 0)
(0.0496306 -0.0020105 0)
(0.0509713 -0.00201169 0)
(0.0523129 -0.00201279 0)
(0.0536552 -0.00201379 0)
(0.0549981 -0.00201469 0)
(0.0563416 -0.00201547 0)
(0.0576856 -0.00201612 0)
(0.0590299 -0.00201663 0)
(0.0603746 -0.00201699 0)
(0.0617195 -0.00201719 0)
(0.0630644 -0.0020172 0)
(0.0644093 -0.00201703 0)
(0.065754 -0.00201665 0)
(0.0670984 -0.00201606 0)
(0.0684424 -0.00201523 0)
(0.0697857 -0.00201416 0)
(0.0711282 -0.00201283 0)
(0.0724698 -0.00201122 0)
(0.0738102 -0.00200932 0)
(0.0751493 -0.00200711 0)
(0.0764868 -0.00200458 0)
(0.0778225 -0.00200171 0)
(0.0791562 -0.00199849 0)
(0.0804876 -0.00199489 0)
(0.0818165 -0.00199089 0)
(0.0831426 -0.00198649 0)
(0.0844657 -0.00198166 0)
(0.0857854 -0.00197639 0)
(0.0871014 -0.00197065 0)
(0.0884135 -0.00196443 0)
(0.0897213 -0.00195771 0)
(0.0910244 -0.00195046 0)
(0.0923226 -0.00194268 0)
(0.0936153 -0.00193434 0)
(0.0949024 -0.00192542 0)
(0.0961833 -0.0019159 0)
(0.0974577 -0.00190577 0)
(0.0987251 -0.00189501 0)
(0.0999852 -0.00188359 0)
(0.101237 -0.00187149 0)
(0.102481 -0.00185871 0)
(0.103717 -0.00184521 0)
(0.104942 -0.00183099 0)
(0.106159 -0.00181602 0)
(0.107365 -0.00180029 0)
(0.10856 -0.00178377 0)
(0.109744 -0.00176646 0)
(0.110916 -0.00174834 0)
(0.112076 -0.0017294 0)
(0.113223 -0.00170961 0)
(0.114357 -0.00168896 0)
(0.115476 -0.00166745 0)
(0.116581 -0.00164506 0)
(0.117671 -0.00162177 0)
(0.118745 -0.00159759 0)
(0.119802 -0.00157249 0)
(0.120842 -0.00154648 0)
(0.121865 -0.00151955 0)
(0.12287 -0.00149168 0)
(0.123855 -0.00146288 0)
(0.124821 -0.00143315 0)
(0.125767 -0.00140248 0)
(0.126692 -0.00137087 0)
(0.127596 -0.00133833 0)
(0.128478 -0.00130486 0)
(0.129337 -0.00127046 0)
(0.130173 -0.00123514 0)
(0.130985 -0.00119891 0)
(0.131773 -0.00116179 0)
(0.132535 -0.00112377 0)
(0.133272 -0.00108488 0)
(0.133983 -0.00104514 0)
(0.134667 -0.00100455 0)
(0.135323 -0.000963143 0)
(0.135952 -0.000920936 0)
(0.136552 -0.000877952 0)
(0.137123 -0.000834216 0)
(0.137665 -0.000789754 0)
(0.138177 -0.000744596 0)
(0.138659 -0.000698771 0)
(0.13911 -0.00065231 0)
(0.139529 -0.000605248 0)
(0.139917 -0.000557618 0)
(0.140273 -0.000509457 0)
(0.140597 -0.000460802 0)
(0.140888 -0.000411694 0)
(0.141147 -0.000362171 0)
(0.141372 -0.000312274 0)
(0.141563 -0.000262048 0)
(0.141721 -0.000211533 0)
(0.141846 -0.000160775 0)
(0.141936 -0.000109817 0)
(0.141992 -5.87062e-05 0)
(0.142014 -7.48681e-06 0)
(0.142002 4.37948e-05 0)
(0.141956 9.50925e-05 0)
(0.141876 0.00014636 0)
(0.141761 0.000197552 0)
(0.141612 0.000248621 0)
(0.141429 0.000299523 0)
(0.141212 0.000350212 0)
(0.140962 0.000400643 0)
(0.140678 0.000450774 0)
(0.14036 0.00050056 0)
(0.14001 0.000549959 0)
(0.139627 0.000598931 0)
(0.139211 0.000647436 0)
(0.138763 0.000695435 0)
(0.138283 0.00074289 0)
(0.137772 0.000789765 0)
(0.137229 0.000836026 0)
(0.136656 0.000881641 0)
(0.136053 0.000926576 0)
(0.13542 0.000970804 0)
(0.134757 0.0010143 0)
(0.134066 0.00105702 0)
(0.133347 0.00109897 0)
(0.1326 0.0011401 0)
(0.131826 0.0011804 0)
(0.131025 0.00121986 0)
(0.130198 0.00125845 0)
(0.129346 0.00129615 0)
(0.128469 0.00133296 0)
(0.127568 0.00136887 0)
(0.126643 0.00140386 0)
(0.125695 0.00143792 0)
(0.124724 0.00147105 0)
(0.123732 0.00150325 0)
(0.122719 0.00153451 0)
(0.121685 0.00156483 0)
(0.120631 0.0015942 0)
(0.119558 0.00162264 0)
(0.118467 0.00165015 0)
(0.117357 0.00167672 0)
(0.11623 0.00170237 0)
(0.115086 0.0017271 0)
(0.113926 0.00175092 0)
(0.11275 0.00177384 0)
(0.11156 0.00179587 0)
(0.110355 0.00181703 0)
(0.109136 0.00183731 0)
(0.107904 0.00185674 0)
(0.106659 0.00187534 0)
(0.105403 0.00189311 0)
(0.104134 0.00191007 0)
(0.102855 0.00192623 0)
(0.101565 0.00194163 0)
(0.100265 0.00195626 0)
(0.0989557 0.00197015 0)
(0.0976374 0.00198332 0)
(0.0963104 0.00199578 0)
(0.0949755 0.00200756 0)
(0.0936329 0.00201867 0)
(0.0922831 0.00202914 0)
(0.0909266 0.00203897 0)
(0.0895637 0.0020482 0)
(0.0881949 0.00205683 0)
(0.0868206 0.0020649 0)
(0.0854411 0.00207241 0)
(0.0840567 0.0020794 0)
(0.0826679 0.00208587 0)
(0.081275 0.00209185 0)
(0.0798782 0.00209735 0)
(0.0784779 0.0021024 0)
(0.0770745 0.00210702 0)
(0.0756681 0.00211121 0)
(0.074259 0.00211501 0)
(0.0728476 0.00211843 0)
(0.071434 0.00212148 0)
(0.0700185 0.00212419 0)
(0.0686014 0.00212657 0)
(0.0671827 0.00212864 0)
(0.0657628 0.00213042 0)
(0.0643418 0.00213191 0)
(0.0629199 0.00213315 0)
(0.0614973 0.00213413 0)
(0.0600742 0.00213489 0)
(0.0586506 0.00213543 0)
(0.0572267 0.00213577 0)
(0.0558026 0.00213591 0)
(0.0543786 0.00213589 0)
(0.0529546 0.0021357 0)
(0.0515308 0.00213537 0)
(0.0501073 0.0021349 0)
(0.0486841 0.00213431 0)
(0.0472614 0.00213361 0)
(0.0458392 0.0021328 0)
(0.0444175 0.00213191 0)
(0.0429965 0.00213095 0)
(0.0415762 0.00212991 0)
(0.0401566 0.00212882 0)
(0.0387377 0.00212768 0)
(0.0373196 0.0021265 0)
(0.0359023 0.00212529 0)
(0.0344859 0.00212406 0)
(0.0330703 0.00212282 0)
(0.0316555 0.00212157 0)
(0.0302415 0.00212032 0)
(0.0288284 0.00211908 0)
(0.0274161 0.00211786 0)
(0.0260046 0.00211667 0)
(0.0245939 0.0021155 0)
(0.023184 0.00211436 0)
(0.0217748 0.00211326 0)
(0.0203663 0.00211221 0)
(0.0189586 0.00211121 0)
(0.0175515 0.00211026 0)
(0.016145 0.00210937 0)
(0.0147391 0.00210854 0)
(0.0133337 0.00210777 0)
(0.0119288 0.00210708 0)
(0.0105243 0.00210645 0)
(0.00912026 0.00210589 0)
(0.00771655 0.00210542 0)
(0.00631314 0.00210501 0)
(0.00490997 0.00210469 0)
(0.00350698 0.00210445 0)
(0.00210414 0.00210429 0)
(0.00070137 0.00210421 0)
(0.000656269 -0.00328169 0)
(0.00196884 -0.00328184 0)
(0.00328149 -0.00328211 0)
(0.00459428 -0.00328253 0)
(0.00590726 -0.00328309 0)
(0.0072205 -0.00328378 0)
(0.00853404 -0.00328461 0)
(0.00984795 -0.00328557 0)
(0.0111623 -0.00328666 0)
(0.012477 -0.00328787 0)
(0.0137923 -0.00328922 0)
(0.0151082 -0.00329068 0)
(0.0164247 -0.00329226 0)
(0.0177418 -0.00329395 0)
(0.0190596 -0.00329576 0)
(0.0203782 -0.00329766 0)
(0.0216976 -0.00329967 0)
(0.0230178 -0.00330177 0)
(0.0243388 -0.00330395 0)
(0.0256608 -0.00330622 0)
(0.0269837 -0.00330856 0)
(0.0283075 -0.00331097 0)
(0.0296324 -0.00331344 0)
(0.0309582 -0.00331595 0)
(0.032285 -0.00331851 0)
(0.0336129 -0.00332111 0)
(0.0349419 -0.00332372 0)
(0.0362719 -0.00332635 0)
(0.037603 -0.00332899 0)
(0.0389351 -0.00333162 0)
(0.0402683 -0.00333422 0)
(0.0416025 -0.0033368 0)
(0.0429378 -0.00333934 0)
(0.0442741 -0.00334182 0)
(0.0456114 -0.00334423 0)
(0.0469496 -0.00334656 0)
(0.0482888 -0.00334879 0)
(0.0496289 -0.00335091 0)
(0.0509698 -0.00335291 0)
(0.0523115 -0.00335475 0)
(0.0536539 -0.00335644 0)
(0.0549969 -0.00335795 0)
(0.0563406 -0.00335926 0)
(0.0576847 -0.00336036 0)
(0.0590293 -0.00336123 0)
(0.0603742 -0.00336184 0)
(0.0617193 -0.00336218 0)
(0.0630644 -0.00336222 0)
(0.0644096 -0.00336194 0)
(0.0657546 -0.00336133 0)
(0.0670993 -0.00336035 0)
(0.0684436 -0.00335899 0)
(0.0697873 -0.00335723 0)
(0.0711301 -0.00335502 0)
(0.0724721 -0.00335236 0)
(0.0738129 -0.00334921 0)
(0.0751524 -0.00334555 0)
(0.0764903 -0.00334135 0)
(0.0778265 -0.00333659 0)
(0.0791607 -0.00333123 0)
(0.0804926 -0.00332525 0)
(0.081822 -0.00331861 0)
(0.0831487 -0.00331129 0)
(0.0844723 -0.00330327 0)
(0.0857927 -0.0032945 0)
(0.0871093 -0.00328495 0)
(0.0884221 -0.0032746 0)
(0.0897305 -0.00326342 0)
(0.0910344 -0.00325137 0)
(0.0923332 -0.00323842 0)
(0.0936268 -0.00322454 0)
(0.0949146 -0.0032097 0)
(0.0961963 -0.00319386 0)
(0.0974715 -0.00317699 0)
(0.0987398 -0.00315907 0)
(0.100001 -0.00314006 0)
(0.101254 -0.00311992 0)
(0.102499 -0.00309863 0)
(0.103735 -0.00307616 0)
(0.104962 -0.00305247 0)
(0.106179 -0.00302754 0)
(0.107386 -0.00300134 0)
(0.108583 -0.00297384 0)
(0.109768 -0.00294501 0)
(0.110941 -0.00291482 0)
(0.112102 -0.00288326 0)
(0.11325 -0.00285029 0)
(0.114385 -0.0028159 0)
(0.115505 -0.00278006 0)
(0.116612 -0.00274275 0)
(0.117702 -0.00270396 0)
(0.118777 -0.00266366 0)
(0.119836 -0.00262184 0)
(0.120878 -0.0025785 0)
(0.121902 -0.00253361 0)
(0.122907 -0.00248717 0)
(0.123894 -0.00243918 0)
(0.124861 -0.00238962 0)
(0.125809 -0.0023385 0)
(0.126735 -0.00228582 0)
(0.12764 -0.00223158 0)
(0.128523 -0.00217579 0)
(0.129383 -0.00211845 0)
(0.130221 -0.00205958 0)
(0.131034 -0.00199919 0)
(0.131823 -0.0019373 0)
(0.132586 -0.00187392 0)
(0.133324 -0.00180909 0)
(0.134036 -0.00174283 0)
(0.134721 -0.00167516 0)
(0.135379 -0.00160613 0)
(0.136009 -0.00153576 0)
(0.13661 -0.00146409 0)
(0.137182 -0.00139116 0)
(0.137725 -0.00131703 0)
(0.138238 -0.00124173 0)
(0.13872 -0.00116532 0)
(0.139172 -0.00108785 0)
(0.139592 -0.00100938 0)
(0.139981 -0.000929952 0)
(0.140338 -0.000849642 0)
(0.140662 -0.000768508 0)
(0.140954 -0.000686616 0)
(0.141213 -0.000604032 0)
(0.141438 -0.000520824 0)
(0.141631 -0.000437065 0)
(0.141789 -0.000352825 0)
(0.141914 -0.000268178 0)
(0.142004 -0.000183199 0)
(0.142061 -9.79631e-05 0)
(0.142083 -1.25464e-05 0)
(0.142071 7.29742e-05 0)
(0.142024 0.000158522 0)
(0.141944 0.000244019 0)
(0.141829 0.000329389 0)
(0.14168 0.000414556 0)
(0.141497 0.000499442 0)
(0.14128 0.000583973 0)
(0.141029 0.000668074 0)
(0.140744 0.000751673 0)
(0.140427 0.000834696 0)
(0.140076 0.000917074 0)
(0.139692 0.000998739 0)
(0.139275 0.00107962 0)
(0.138826 0.00115966 0)
(0.138346 0.00123879 0)
(0.137834 0.00131696 0)
(0.13729 0.0013941 0)
(0.136716 0.00147016 0)
(0.136112 0.00154508 0)
(0.135478 0.00161883 0)
(0.134815 0.00169134 0)
(0.134123 0.00176258 0)
(0.133402 0.00183251 0)
(0.132654 0.00190109 0)
(0.131879 0.00196828 0)
(0.131077 0.00203406 0)
(0.130249 0.00209839 0)
(0.129396 0.00216125 0)
(0.128518 0.00222261 0)
(0.127615 0.00228246 0)
(0.126689 0.00234079 0)
(0.12574 0.00239757 0)
(0.124768 0.00245279 0)
(0.123775 0.00250646 0)
(0.12276 0.00255856 0)
(0.121725 0.00260909 0)
(0.12067 0.00265805 0)
(0.119596 0.00270545 0)
(0.118503 0.00275128 0)
(0.117392 0.00279557 0)
(0.116264 0.00283831 0)
(0.115118 0.00287952 0)
(0.113957 0.00291921 0)
(0.11278 0.0029574 0)
(0.111589 0.0029941 0)
(0.110382 0.00302934 0)
(0.109163 0.00306313 0)
(0.107929 0.00309551 0)
(0.106684 0.00312648 0)
(0.105426 0.00315608 0)
(0.104156 0.00318432 0)
(0.102876 0.00321125 0)
(0.101585 0.00323689 0)
(0.100284 0.00326125 0)
(0.0989738 0.00328439 0)
(0.0976544 0.00330632 0)
(0.0963266 0.00332707 0)
(0.0949907 0.00334668 0)
(0.0936473 0.00336518 0)
(0.0922966 0.00338259 0)
(0.0909393 0.00339896 0)
(0.0895756 0.00341432 0)
(0.0882061 0.00342869 0)
(0.086831 0.00344211 0)
(0.0854507 0.00345461 0)
(0.0840657 0.00346623 0)
(0.0826762 0.00347699 0)
(0.0812826 0.00348694 0)
(0.0798852 0.00349609 0)
(0.0784844 0.00350449 0)
(0.0770803 0.00351216 0)
(0.0756734 0.00351913 0)
(0.0742638 0.00352544 0)
(0.0728519 0.00353112 0)
(0.0714379 0.00353619 0)
(0.0700219 0.00354068 0)
(0.0686043 0.00354463 0)
(0.0671853 0.00354806 0)
(0.065765 0.003551 0)
(0.0643436 0.00355348 0)
(0.0629214 0.00355552 0)
(0.0614985 0.00355715 0)
(0.060075 0.00355839 0)
(0.0586511 0.00355927 0)
(0.057227 0.00355982 0)
(0.0558027 0.00356005 0)
(0.0543784 0.00355999 0)
(0.0529542 0.00355967 0)
(0.0515303 0.0035591 0)
(0.0501066 0.0035583 0)
(0.0486832 0.0035573 0)
(0.0472604 0.00355612 0)
(0.045838 0.00355477 0)
(0.0444163 0.00355328 0)
(0.0429952 0.00355165 0)
(0.0415748 0.00354991 0)
(0.0401551 0.00354808 0)
(0.0387362 0.00354617 0)
(0.037318 0.00354419 0)
(0.0359007 0.00354217 0)
(0.0344842 0.00354011 0)
(0.0330686 0.00353803 0)
(0.0316538 0.00353594 0)
(0.0302399 0.00353386 0)
(0.0288267 0.00353179 0)
(0.0274145 0.00352975 0)
(0.026003 0.00352774 0)
(0.0245924 0.00352579 0)
(0.0231825 0.00352389 0)
(0.0217734 0.00352206 0)
(0.020365 0.0035203 0)
(0.0189573 0.00351862 0)
(0.0175502 0.00351703 0)
(0.0161438 0.00351554 0)
(0.014738 0.00351416 0)
(0.0133327 0.00351288 0)
(0.0119279 0.00351171 0)
(0.0105235 0.00351067 0)
(0.00911958 0.00350974 0)
(0.00771597 0.00350894 0)
(0.00631266 0.00350827 0)
(0.00490959 0.00350773 0)
(0.00350671 0.00350732 0)
(0.00210397 0.00350705 0)
(0.000701315 0.00350692 0)
(0.000656184 -0.00459418 0)
(0.00196858 -0.00459437 0)
(0.00328106 -0.00459477 0)
(0.00459369 -0.00459535 0)
(0.00590651 -0.00459613 0)
(0.00721958 -0.0045971 0)
(0.00853296 -0.00459826 0)
(0.0098467 -0.00459961 0)
(0.0111609 -0.00460114 0)
(0.0124755 -0.00460285 0)
(0.0137906 -0.00460473 0)
(0.0151063 -0.00460678 0)
(0.0164227 -0.004609 0)
(0.0177397 -0.00461138 0)
(0.0190574 -0.00461391 0)
(0.0203758 -0.00461659 0)
(0.0216951 -0.00461941 0)
(0.0230152 -0.00462235 0)
(0.0243361 -0.00462542 0)
(0.025658 -0.00462861 0)
(0.0269808 -0.00463189 0)
(0.0283046 -0.00463527 0)
(0.0296293 -0.00463874 0)
(0.0309551 -0.00464227 0)
(0.0322819 -0.00464587 0)
(0.0336098 -0.00464951 0)
(0.0349387 -0.00465319 0)
(0.0362687 -0.00465689 0)
(0.0375998 -0.00466059 0)
(0.0389319 -0.00466429 0)
(0.0402651 -0.00466796 0)
(0.0415994 -0.00467158 0)
(0.0429347 -0.00467515 0)
(0.0442711 -0.00467865 0)
(0.0456085 -0.00468204 0)
(0.0469468 -0.00468532 0)
(0.0482861 -0.00468847 0)
(0.0496263 -0.00469146 0)
(0.0509674 -0.00469427 0)
(0.0523093 -0.00469688 0)
(0.0536519 -0.00469927 0)
(0.0549952 -0.00470141 0)
(0.0563391 -0.00470327 0)
(0.0576835 -0.00470483 0)
(0.0590283 -0.00470607 0)
(0.0603735 -0.00470696 0)
(0.061719 -0.00470746 0)
(0.0630645 -0.00470755 0)
(0.0644101 -0.00470719 0)
(0.0657555 -0.00470637 0)
(0.0671006 -0.00470504 0)
(0.0684454 -0.00470317 0)
(0.0697895 -0.00470072 0)
(0.071133 -0.00469767 0)
(0.0724755 -0.00469398 0)
(0.0738169 -0.00468961 0)
(0.075157 -0.00468453 0)
(0.0764956 -0.00467869 0)
(0.0778325 -0.00467206 0)
(0.0791674 -0.00466459 0)
(0.0805001 -0.00465626 0)
(0.0818303 -0.00464701 0)
(0.0831578 -0.00463681 0)
(0.0844823 -0.00462561 0)
(0.0858035 -0.00461338 0)
(0.0871212 -0.00460006 0)
(0.0884349 -0.00458562 0)
(0.0897444 -0.00457 0)
(0.0910493 -0.00455318 0)
(0.0923492 -0.00453509 0)
(0.0936439 -0.0045157 0)
(0.0949329 -0.00449497 0)
(0.0962158 -0.00447284 0)
(0.0974923 -0.00444927 0)
(0.0987619 -0.00442423 0)
(0.100024 -0.00439765 0)
(0.101279 -0.0043695 0)
(0.102525 -0.00433974 0)
(0.103763 -0.00430832 0)
(0.104991 -0.0042752 0)
(0.10621 -0.00424034 0)
(0.107418 -0.0042037 0)
(0.108616 -0.00416523 0)
(0.109803 -0.00412491 0)
(0.110978 -0.00408269 0)
(0.112141 -0.00403853 0)
(0.11329 -0.00399241 0)
(0.114427 -0.00394429 0)
(0.115549 -0.00389414 0)
(0.116657 -0.00384193 0)
(0.11775 -0.00378764 0)
(0.118827 -0.00373125 0)
(0.119887 -0.00367272 0)
(0.12093 -0.00361205 0)
(0.121956 -0.00354922 0)
(0.122964 -0.00348422 0)
(0.123953 -0.00341704 0)
(0.124922 -0.00334766 0)
(0.125871 -0.00327609 0)
(0.126799 -0.00320234 0)
(0.127706 -0.00312639 0)
(0.128591 -0.00304827 0)
(0.129453 -0.00296798 0)
(0.130292 -0.00288554 0)
(0.131107 -0.00280097 0)
(0.131898 -0.00271429 0)
(0.132663 -0.00262554 0)
(0.133403 -0.00253473 0)
(0.134117 -0.00244193 0)
(0.134803 -0.00234715 0)
(0.135462 -0.00225045 0)
(0.136094 -0.00215187 0)
(0.136697 -0.00205148 0)
(0.13727 -0.00194933 0)
(0.137815 -0.00184547 0)
(0.138329 -0.00173999 0)
(0.138813 -0.00163294 0)
(0.139266 -0.0015244 0)
(0.139687 -0.00141445 0)
(0.140077 -0.00130317 0)
(0.140435 -0.00119065 0)
(0.14076 -0.00107697 0)
(0.141053 -0.000962231 0)
(0.141312 -0.000846517 0)
(0.141539 -0.000729928 0)
(0.141731 -0.000612563 0)
(0.14189 -0.000494525 0)
(0.142015 -0.000375915 0)
(0.142106 -0.000256839 0)
(0.142163 -0.000137402 0)
(0.142185 -1.77113e-05 0)
(0.142173 0.000102125 0)
(0.142127 0.000222 0)
(0.142046 0.000341804 0)
(0.141931 0.000461429 0)
(0.141782 0.000580769 0)
(0.141599 0.000699715 0)
(0.141381 0.000818162 0)
(0.14113 0.000936007 0)
(0.140844 0.00105315 0)
(0.140526 0.00116948 0)
(0.140174 0.0012849 0)
(0.139789 0.00139933 0)
(0.139372 0.00151265 0)
(0.138922 0.0016248 0)
(0.13844 0.00173566 0)
(0.137927 0.00184518 0)
(0.137382 0.00195325 0)
(0.136807 0.0020598 0)
(0.136201 0.00216477 0)
(0.135566 0.00226807 0)
(0.134901 0.00236966 0)
(0.134208 0.00246945 0)
(0.133486 0.00256741 0)
(0.132736 0.00266347 0)
(0.131959 0.00275758 0)
(0.131155 0.00284971 0)
(0.130326 0.0029398 0)
(0.12947 0.00302784 0)
(0.12859 0.00311377 0)
(0.127686 0.00319759 0)
(0.126758 0.00327926 0)
(0.125807 0.00335877 0)
(0.124833 0.0034361 0)
(0.123838 0.00351123 0)
(0.122822 0.00358418 0)
(0.121785 0.00365492 0)
(0.120728 0.00372346 0)
(0.119652 0.00378981 0)
(0.118557 0.00385397 0)
(0.117444 0.00391595 0)
(0.116314 0.00397577 0)
(0.115167 0.00403345 0)
(0.114004 0.00408899 0)
(0.112825 0.00414243 0)
(0.111632 0.00419379 0)
(0.110424 0.0042431 0)
(0.109202 0.00429038 0)
(0.107967 0.00433567 0)
(0.10672 0.00437899 0)
(0.10546 0.00442039 0)
(0.104189 0.0044599 0)
(0.102907 0.00449756 0)
(0.101615 0.00453341 0)
(0.100313 0.00456749 0)
(0.0990008 0.00459983 0)
(0.09768 0.00463049 0)
(0.0963508 0.0046595 0)
(0.0950136 0.00468691 0)
(0.0936688 0.00471276 0)
(0.0923169 0.0047371 0)
(0.0909583 0.00475997 0)
(0.0895935 0.00478142 0)
(0.0882227 0.0048015 0)
(0.0868465 0.00482024 0)
(0.0854652 0.0048377 0)
(0.0840791 0.00485392 0)
(0.0826886 0.00486894 0)
(0.0812941 0.00488282 0)
(0.0798958 0.00489559 0)
(0.078494 0.0049073 0)
(0.0770891 0.00491799 0)
(0.0756814 0.00492772 0)
(0.074271 0.00493651 0)
(0.0728584 0.00494441 0)
(0.0714436 0.00495147 0)
(0.070027 0.00495772 0)
(0.0686088 0.00496321 0)
(0.0671891 0.00496797 0)
(0.0657682 0.00497205 0)
(0.0643464 0.00497548 0)
(0.0629236 0.0049783 0)
(0.0615002 0.00498054 0)
(0.0600763 0.00498225 0)
(0.058652 0.00498345 0)
(0.0572275 0.00498418 0)
(0.0558028 0.00498448 0)
(0.0543782 0.00498437 0)
(0.0529537 0.00498388 0)
(0.0515294 0.00498305 0)
(0.0501055 0.00498191 0)
(0.0486819 0.00498049 0)
(0.0472589 0.0049788 0)
(0.0458363 0.00497689 0)
(0.0444144 0.00497477 0)
(0.0429932 0.00497247 0)
(0.0415726 0.00497001 0)
(0.0401528 0.00496742 0)
(0.0387338 0.00496473 0)
(0.0373156 0.00496194 0)
(0.0358983 0.00495909 0)
(0.0344818 0.00495619 0)
(0.0330661 0.00495325 0)
(0.0316513 0.00495031 0)
(0.0302374 0.00494738 0)
(0.0288243 0.00494447 0)
(0.027412 0.00494159 0)
(0.0260006 0.00493877 0)
(0.02459 0.00493602 0)
(0.0231802 0.00493335 0)
(0.0217712 0.00493077 0)
(0.0203629 0.0049283 0)
(0.0189553 0.00492594 0)
(0.0175484 0.00492371 0)
(0.0161421 0.00492162 0)
(0.0147364 0.00491967 0)
(0.0133312 0.00491787 0)
(0.0119266 0.00491623 0)
(0.0105223 0.00491476 0)
(0.00911854 0.00491346 0)
(0.00771508 0.00491234 0)
(0.00631193 0.00491139 0)
(0.00490902 0.00491063 0)
(0.00350631 0.00491006 0)
(0.00210373 0.00490968 0)
(0.000701233 0.00490949 0)
(0.000656071 -0.00590646 0)
(0.00196824 -0.00590671 0)
(0.0032805 -0.00590722 0)
(0.0045929 -0.00590798 0)
(0.0059055 -0.00590898 0)
(0.00721835 -0.00591023 0)
(0.00853151 -0.00591173 0)
(0.00984504 -0.00591347 0)
(0.011159 -0.00591544 0)
(0.0124734 -0.00591764 0)
(0.0137884 -0.00592007 0)
(0.0151039 -0.00592272 0)
(0.01642 -0.00592559 0)
(0.0177368 -0.00592866 0)
(0.0190544 -0.00593192 0)
(0.0203727 -0.00593538 0)
(0.0216918 -0.00593901 0)
(0.0230117 -0.00594281 0)
(0.0243325 -0.00594678 0)
(0.0256543 -0.00595089 0)
(0.026977 -0.00595513 0)
(0.0283006 -0.00595949 0)
(0.0296253 -0.00596397 0)
(0.030951 -0.00596853 0)
(0.0322777 -0.00597318 0)
(0.0336055 -0.00597789 0)
(0.0349344 -0.00598264 0)
(0.0362644 -0.00598742 0)
(0.0375955 -0.0059922 0)
(0.0389276 -0.00599698 0)
(0.0402609 -0.00600173 0)
(0.0415952 -0.00600642 0)
(0.0429306 -0.00601104 0)
(0.0442671 -0.00601556 0)
(0.0456046 -0.00601996 0)
(0.0469431 -0.00602422 0)
(0.0482826 -0.0060283 0)
(0.0496229 -0.00603218 0)
(0.0509642 -0.00603583 0)
(0.0523063 -0.00603923 0)
(0.0536492 -0.00604234 0)
(0.0549928 -0.00604513 0)
(0.056337 -0.00604757 0)
(0.0576818 -0.00604963 0)
(0.059027 -0.00605127 0)
(0.0603726 -0.00605246 0)
(0.0617185 -0.00605315 0)
(0.0630645 -0.00605332 0)
(0.0644106 -0.00605292 0)
(0.0657566 -0.00605191 0)
(0.0671024 -0.00605025 0)
(0.0684477 -0.00604791 0)
(0.0697926 -0.00604483 0)
(0.0711367 -0.00604097 0)
(0.07248 -0.00603628 0)
(0.0738222 -0.00603073 0)
(0.0751631 -0.00602425 0)
(0.0765026 -0.00601681 0)
(0.0778404 -0.00600835 0)
(0.0791763 -0.00599883 0)
(0.08051 -0.00598818 0)
(0.0818413 -0.00597636 0)
(0.0831699 -0.00596332 0)
(0.0844956 -0.005949 0)
(0.085818 -0.00593334 0)
(0.0871369 -0.00591629 0)
(0.0884519 -0.0058978 0)
(0.0897628 -0.0058778 0)
(0.0910691 -0.00585624 0)
(0.0923705 -0.00583307 0)
(0.0936667 -0.00580822 0)
(0.0949573 -0.00578163 0)
(0.0962418 -0.00575326 0)
(0.0975199 -0.00572304 0)
(0.0987912 -0.00569091 0)
(0.100055 -0.00565681 0)
(0.101312 -0.0056207 0)
(0.10256 -0.00558251 0)
(0.103799 -0.00554219 0)
(0.10503 -0.00549967 0)
(0.10625 -0.00545492 0)
(0.107461 -0.00540788 0)
(0.108661 -0.00535849 0)
(0.10985 -0.0053067 0)
(0.111027 -0.00525248 0)
(0.112192 -0.00519577 0)
(0.113344 -0.00513652 0)
(0.114483 -0.0050747 0)
(0.115608 -0.00501027 0)
(0.116718 -0.00494319 0)
(0.117813 -0.00487343 0)
(0.118892 -0.00480096 0)
(0.119955 -0.00472575 0)
(0.121001 -0.00464777 0)
(0.122029 -0.00456701 0)
(0.123039 -0.00448345 0)
(0.124031 -0.00439708 0)
(0.125002 -0.00430789 0)
(0.125954 -0.00421587 0)
(0.126885 -0.00412103 0)
(0.127794 -0.00402338 0)
(0.128681 -0.00392291 0)
(0.129546 -0.00381966 0)
(0.130388 -0.00371363 0)
(0.131205 -0.00360485 0)
(0.131998 -0.00349336 0)
(0.132766 -0.00337919 0)
(0.133508 -0.00326239 0)
(0.134224 -0.00314299 0)
(0.134913 -0.00302105 0)
(0.135574 -0.00289664 0)
(0.136207 -0.00276981 0)
(0.136812 -0.00264063 0)
(0.137388 -0.00250919 0)
(0.137934 -0.00237555 0)
(0.13845 -0.0022398 0)
(0.138936 -0.00210204 0)
(0.13939 -0.00196236 0)
(0.139814 -0.00182086 0)
(0.140205 -0.00167764 0)
(0.140564 -0.00153282 0)
(0.140891 -0.00138651 0)
(0.141185 -0.00123882 0)
(0.141445 -0.00108988 0)
(0.141672 -0.000939808 0)
(0.141866 -0.000788738 0)
(0.142026 -0.000636798 0)