/*--------------------------------*- C++ -*----------------------------------*\
| =========                 |                                                 |
| \\      /  F ield         | OpenFOAM: The Open Source CFD Toolbox           |
|  \\    /   O peration     | Version:  v2012                                 |
|   \\  /    A nd           | Website:  www.openfoam.com                      |
|    \\/     M anipulation  |                                                 |
\*---------------------------------------------------------------------------*/
FoamFile
{
    version     2.0;
    format      ascii;
    class       volScalarField;
    location    "19";
    object      W;
}
// * * * * * * * * * * * * * * * * * * * * * * * * * * * * * * * * * * * * * //

dimensions      [0 0 -1 0 0 0 0];


internalField   nonuniform List<scalar> 
65536
(
1.17343e-14
3.53106e-14
5.92134e-14
8.36674e-14
1.08903e-13
1.35157e-13
1.62675e-13
1.91713e-13
2.22542e-13
2.55444e-13
2.90724e-13
3.28701e-13
3.69721e-13
4.14153e-13
4.62395e-13
5.14875e-13
5.72056e-13
6.34437e-13
7.0256e-13
7.77012e-13
8.58427e-13
9.47494e-13
1.04496e-12
1.15163e-12
1.26838e-12
1.39617e-12
1.53601e-12
1.68903e-12
1.85643e-12
2.0395e-12
2.23966e-12
2.45842e-12
2.69742e-12
2.95843e-12
3.24335e-12
3.55422e-12
3.89324e-12
4.26278e-12
4.66536e-12
5.1037e-12
5.5807e-12
6.09947e-12
6.66331e-12
7.27575e-12
7.94054e-12
8.66169e-12
9.44342e-12
1.02902e-11
1.12068e-11
1.21983e-11
1.32698e-11
1.4427e-11
1.56757e-11
1.7022e-11
1.84722e-11
2.00331e-11
2.17115e-11
2.35146e-11
2.54497e-11
2.75247e-11
2.97472e-11
3.21253e-11
3.46673e-11
3.73814e-11
4.0276e-11
4.33596e-11
4.66408e-11
5.01278e-11
5.38289e-11
5.77524e-11
6.19061e-11
6.62975e-11
7.09338e-11
7.58217e-11
8.09672e-11
8.63758e-11
9.20521e-11
9.79997e-11
1.04221e-10
1.10719e-10
1.17492e-10
1.24541e-10
1.31862e-10
1.39451e-10
1.47304e-10
1.55411e-10
1.63764e-10
1.72351e-10
1.81159e-10
1.90172e-10
1.99372e-10
2.08739e-10
2.18251e-10
2.27882e-10
2.37607e-10
2.47395e-10
2.57215e-10
2.67035e-10
2.7682e-10
2.86531e-10
2.96131e-10
3.05579e-10
3.14836e-10
3.23858e-10
3.32604e-10
3.41029e-10
3.49093e-10
3.56752e-10
3.63965e-10
3.70692e-10
3.76893e-10
3.82531e-10
3.87573e-10
3.91984e-10
3.95738e-10
3.98806e-10
4.01168e-10
4.02805e-10
4.03704e-10
4.03853e-10
4.03248e-10
4.01888e-10
3.99777e-10
3.96924e-10
3.93342e-10
3.8905e-10
3.84069e-10
3.78426e-10
3.72151e-10
3.6528e-10
3.57849e-10
3.49899e-10
3.41472e-10
3.32615e-10
3.23375e-10
3.13799e-10
3.03936e-10
2.93836e-10
2.83547e-10
2.7312e-10
2.626e-10
2.52034e-10
2.41467e-10
2.30941e-10
2.20496e-10
2.10169e-10
1.99995e-10
1.90006e-10
1.8023e-10
1.70692e-10
1.61415e-10
1.52417e-10
1.43715e-10
1.35321e-10
1.27245e-10
1.19494e-10
1.12073e-10
1.04984e-10
9.8226e-11
9.17971e-11
8.56931e-11
7.99083e-11
7.44353e-11
6.92658e-11
6.43903e-11
5.97985e-11
5.54796e-11
5.14222e-11
4.76148e-11
4.40453e-11
4.07022e-11
3.75735e-11
3.46479e-11
3.19139e-11
2.93607e-11
2.69777e-11
2.47549e-11
2.26828e-11
2.07522e-11
1.89547e-11
1.72821e-11
1.57271e-11
1.42826e-11
1.29422e-11
1.16997e-11
1.05497e-11
9.48686e-12
8.50641e-12
7.60383e-12
6.77489e-12
6.01561e-12
5.32222e-12
4.69114e-12
4.1189e-12
3.60217e-12
3.1377e-12
2.72232e-12
2.35288e-12
2.02631e-12
1.73956e-12
1.48961e-12
1.27348e-12
1.08823e-12
9.30974e-13
7.98884e-13
6.89205e-13
5.99267e-13
5.26503e-13
4.68464e-13
4.2283e-13
3.87431e-13
3.60259e-13
3.39479e-13
3.23444e-13
3.10706e-13
3.00019e-13
2.90344e-13
2.80849e-13
2.70906e-13
2.60076e-13
2.48101e-13
2.34881e-13
2.20455e-13
2.04971e-13
1.88665e-13
1.71829e-13
1.54784e-13
1.3786e-13
1.21371e-13
1.05597e-13
9.07739e-14
7.70854e-14
6.4657e-14
5.35588e-14
4.38089e-14
3.53801e-14
2.8208e-14
2.22001e-14
1.7245e-14
1.32207e-14
1.00019e-14
7.46643e-15
5.49922e-15
3.99583e-15
2.86412e-15
2.02493e-15
1.41195e-15
9.70856e-16
6.58145e-16
4.39663e-16
2.89116e-16
1.86607e-16
1.17287e-16
7.01537e-17
3.70037e-17
1.15213e-17
3.98017e-14
1.19772e-13
2.00857e-13
2.83823e-13
3.69454e-13
4.58559e-13
5.51977e-13
6.50582e-13
7.55294e-13
8.67084e-13
9.86986e-13
1.1161e-12
1.2556e-12
1.40675e-12
1.57091e-12
1.74956e-12
1.94426e-12
2.15674e-12
2.38885e-12
2.64261e-12
2.92018e-12
3.22393e-12
3.55641e-12
3.92042e-12
4.31895e-12
4.75526e-12
5.23289e-12
5.75566e-12
6.32772e-12
6.95353e-12
7.63794e-12
8.38616e-12
9.20385e-12
1.00971e-11
1.10724e-11
1.21368e-11
1.3298e-11
1.4564e-11
1.59436e-11
1.74461e-11
1.90815e-11
2.08606e-11
2.27947e-11
2.4896e-11
2.71775e-11
2.96529e-11
3.23369e-11
3.5245e-11
3.83935e-11
4.17996e-11
4.54817e-11
4.94589e-11
5.37512e-11
5.83797e-11
6.33665e-11
6.87344e-11
7.45072e-11
8.07096e-11
8.73672e-11
9.45062e-11
1.02154e-10
1.10337e-10
1.19085e-10
1.28425e-10
1.38387e-10
1.48999e-10
1.60291e-10
1.7229e-10
1.85026e-10
1.98525e-10
2.12815e-10
2.27921e-10
2.43867e-10
2.60675e-10
2.78365e-10
2.96956e-10
3.1646e-10
3.36891e-10
3.58256e-10
3.8056e-10
4.03801e-10
4.27975e-10
4.53071e-10
4.79074e-10
5.05961e-10
5.33703e-10
5.62267e-10
5.91609e-10
6.21682e-10
6.52427e-10
6.8378e-10
7.15671e-10
7.48017e-10
7.80733e-10
8.13722e-10
8.46881e-10
8.80102e-10
9.13266e-10
9.46251e-10
9.78927e-10
1.01116e-09
1.04281e-09
1.07374e-09
1.10381e-09
1.13286e-09
1.16075e-09
1.18733e-09
1.21247e-09
1.23602e-09
1.25784e-09
1.27781e-09
1.2958e-09
1.3117e-09
1.32541e-09
1.33682e-09
1.34587e-09
1.35247e-09
1.35658e-09
1.35816e-09
1.35717e-09
1.35362e-09
1.34751e-09
1.33886e-09
1.32771e-09
1.31411e-09
1.29814e-09
1.27989e-09
1.25944e-09
1.23692e-09
1.21245e-09
1.18616e-09
1.1582e-09
1.12871e-09
1.09786e-09
1.06582e-09
1.03274e-09
9.98795e-10
9.64156e-10
9.28988e-10
8.93455e-10
8.57718e-10
8.21929e-10
7.86237e-10
7.5078e-10
7.1569e-10
6.81088e-10
6.47085e-10
6.13782e-10
5.8127e-10
5.49627e-10
5.18921e-10
4.89211e-10
4.60543e-10
4.32953e-10
4.06469e-10
3.81107e-10
3.56878e-10
3.33783e-10
3.11814e-10
2.90959e-10
2.71201e-10
2.52514e-10
2.34871e-10
2.18241e-10
2.02588e-10
1.87876e-10
1.74065e-10
1.61115e-10
1.48987e-10
1.37639e-10
1.2703e-10
1.17119e-10
1.07869e-10
9.92404e-11
9.11964e-11
8.37016e-11
7.67225e-11
7.02271e-11
6.41852e-11
5.85684e-11
5.33502e-11
4.85058e-11
4.40123e-11
3.98482e-11
3.59937e-11
3.24305e-11
2.91417e-11
2.61113e-11
2.33247e-11
2.07683e-11
1.84291e-11
1.62951e-11
1.43545e-11
1.25965e-11
1.10104e-11
9.58572e-12
8.31257e-12
7.18104e-12
6.18144e-12
5.30424e-12
4.54004e-12
3.87958e-12
3.31375e-12
2.83363e-12
2.43048e-12
2.09584e-12
1.8215e-12
1.59959e-12
1.4226e-12
1.28346e-12
1.17551e-12
1.09265e-12
1.02926e-12
9.80351e-13
9.41494e-13
9.08903e-13
8.79422e-13
8.50521e-13
8.20289e-13
7.87396e-13
7.51054e-13
7.10962e-13
6.67231e-13
6.20314e-13
5.70919e-13
5.19929e-13
4.6832e-13
4.17085e-13
3.67172e-13
3.19431e-13
2.74575e-13
2.33156e-13
1.95553e-13
1.61978e-13
1.32484e-13
1.06989e-13
8.52963e-14
6.71262e-14
5.21411e-14
3.99716e-14
3.02388e-14
2.25723e-14
1.66245e-14
1.20792e-14
8.65781e-15
6.12088e-15
4.26784e-15
2.93449e-15
1.98924e-15
1.32885e-15
8.7381e-16
5.6398e-16
3.54469e-16
2.12018e-16
1.11832e-16
3.48199e-17
8.31143e-14
2.50118e-13
4.19472e-13
5.92793e-13
7.71734e-13
9.58001e-13
1.15336e-12
1.35967e-12
1.57885e-12
1.81298e-12
2.06422e-12
2.33491e-12
2.62754e-12
2.94479e-12
3.28954e-12
3.6649e-12
4.07424e-12
4.52119e-12
5.00971e-12
5.54405e-12
6.12886e-12
6.76916e-12
7.47041e-12
8.23853e-12
9.07993e-12
1.00016e-11
1.1011e-11
1.21164e-11
1.33266e-11
1.46512e-11
1.61005e-11
1.76858e-11
1.9419e-11
2.13133e-11
2.33827e-11
2.56422e-11
2.81081e-11
3.0798e-11
3.37305e-11
3.69257e-11
4.04051e-11
4.41918e-11
4.83102e-11
5.27865e-11
5.76487e-11
6.29263e-11
6.86507e-11
7.48553e-11
8.15753e-11
8.88479e-11
9.67123e-11
1.0521e-10
1.14383e-10
1.24278e-10
1.34942e-10
1.46424e-10
1.58774e-10
1.72047e-10
1.86297e-10
2.0158e-10
2.17954e-10
2.35477e-10
2.54211e-10
2.74215e-10
2.95551e-10
3.18281e-10
3.42465e-10
3.68164e-10
3.95438e-10
4.24344e-10
4.54937e-10
4.87271e-10
5.21394e-10
5.57351e-10
5.95184e-10
6.34925e-10
6.76603e-10
7.20238e-10
7.65844e-10
8.13423e-10
8.6297e-10
9.14466e-10
9.67884e-10
1.02318e-09
1.0803e-09
1.13918e-09
1.19973e-09
1.26185e-09
1.32544e-09
1.39035e-09
1.45644e-09
1.52354e-09
1.59148e-09
1.66006e-09
1.72906e-09
1.79826e-09
1.8674e-09
1.93624e-09
2.00449e-09
2.07189e-09
2.13812e-09
2.20291e-09
2.26593e-09
2.32688e-09
2.38545e-09
2.44133e-09
2.49421e-09
2.54379e-09
2.58978e-09
2.6319e-09
2.6699e-09
2.70352e-09
2.73253e-09
2.75675e-09
2.77598e-09
2.79009e-09
2.79894e-09
2.80247e-09
2.8006e-09
2.79332e-09
2.78065e-09
2.76262e-09
2.73933e-09
2.71088e-09
2.67743e-09
2.63916e-09
2.59628e-09
2.54903e-09
2.49768e-09
2.4425e-09
2.38382e-09
2.32195e-09
2.25723e-09
2.19001e-09
2.12065e-09
2.04951e-09
1.97694e-09
1.9033e-09
1.82893e-09
1.75419e-09
1.67938e-09
1.60484e-09
1.53084e-09
1.45767e-09
1.38558e-09
1.31481e-09
1.24556e-09
1.17804e-09
1.11239e-09
1.04876e-09
9.87276e-10
9.28025e-10
8.71082e-10
8.16501e-10
7.64314e-10
7.14537e-10
6.67168e-10
6.22189e-10
5.79569e-10
5.39266e-10
5.01224e-10
4.65382e-10
4.31668e-10
4.00005e-10
3.70314e-10
3.42507e-10
3.16499e-10
2.922e-10
2.69522e-10
2.48377e-10
2.28677e-10
2.10339e-10
1.93279e-10
1.77418e-10
1.6268e-10
1.48993e-10
1.36288e-10
1.245e-10
1.13568e-10
1.03435e-10
9.4049e-11
8.53596e-11
7.73215e-11
6.98923e-11
6.30331e-11
5.67079e-11
5.08834e-11
4.5529e-11
4.06161e-11
3.61183e-11
3.20109e-11
2.82708e-11
2.4876e-11
2.18057e-11
1.90399e-11
1.65597e-11
1.43463e-11
1.23817e-11
1.06484e-11
9.12909e-12
7.80692e-12
6.66537e-12
5.68826e-12
4.85982e-12
4.16471e-12
3.58806e-12
3.11556e-12
2.73351e-12
2.42888e-12
2.1894e-12
2.00362e-12
1.86096e-12
1.75182e-12
1.66757e-12
1.60065e-12
1.54455e-12
1.49388e-12
1.44431e-12
1.39258e-12
1.3364e-12
1.27443e-12
1.20615e-12
1.13175e-12
1.05198e-12
9.68057e-13
8.81461e-13
7.93848e-13
7.069e-13
6.22221e-13
5.41248e-13
4.65186e-13
3.94965e-13
3.31228e-13
2.74328e-13
2.24354e-13
1.8116e-13
1.44415e-13
1.1364e-13
8.82636e-14
6.76574e-14
5.1179e-14
3.82006e-14
2.81325e-14
2.04394e-14
1.4649e-14
1.03559e-14
7.22028e-15
4.96424e-15
3.365e-15
2.24776e-15
1.478e-15
9.53897e-16
5.99514e-16
3.58577e-16
1.89133e-16
5.88884e-17
1.56997e-13
4.72474e-13
7.92447e-13
1.12e-12
1.45831e-12
1.81061e-12
2.18031e-12
2.57094e-12
2.98622e-12
3.43008e-12
3.90671e-12
4.42059e-12
4.9765e-12
5.5796e-12
6.23543e-12
6.94999e-12
7.72976e-12
8.58177e-12
9.51363e-12
1.05336e-11
1.16506e-11
1.28745e-11
1.42157e-11
1.56857e-11
1.7297e-11
1.90631e-11
2.09987e-11
2.31196e-11
2.5443e-11
2.79876e-11
3.07735e-11
3.38225e-11
3.71583e-11
4.08061e-11
4.47933e-11
4.91496e-11
5.39066e-11
5.90985e-11
6.4762e-11
7.09362e-11
7.76635e-11
8.49886e-11
9.29598e-11
1.01628e-10
1.11049e-10
1.21279e-10
1.32381e-10
1.4442e-10
1.57466e-10
1.7159e-10
1.8687e-10
2.03387e-10
2.21225e-10
2.40473e-10
2.61224e-10
2.83575e-10
3.07625e-10
3.33478e-10
3.61241e-10
3.91024e-10
4.2294e-10
4.57103e-10
4.93631e-10
5.32642e-10
5.74254e-10
6.18586e-10
6.65756e-10
7.15879e-10
7.69071e-10
8.25439e-10
8.85089e-10
9.4812e-10
1.01462e-09
1.08468e-09
1.15836e-09
1.23573e-09
1.31683e-09
1.40169e-09
1.49034e-09
1.58275e-09
1.67891e-09
1.77877e-09
1.88227e-09
1.98929e-09
2.09972e-09
2.21341e-09
2.33018e-09
2.4498e-09
2.57205e-09
2.69663e-09
2.82324e-09
2.95154e-09
3.08115e-09
3.21167e-09
3.34265e-09
3.47363e-09
3.60411e-09
3.73357e-09
3.86146e-09
3.98723e-09
4.11028e-09
4.23003e-09
4.34588e-09
4.45722e-09
4.56344e-09
4.66395e-09
4.75817e-09
4.84552e-09
4.92548e-09
4.99751e-09
5.06115e-09
5.11595e-09
5.16152e-09
5.19752e-09
5.22365e-09
5.23968e-09
5.24546e-09
5.24086e-09
5.22585e-09
5.20047e-09
5.16481e-09
5.11904e-09
5.06338e-09
4.99815e-09
4.92369e-09
4.84043e-09
4.74884e-09
4.64944e-09
4.54281e-09
4.42955e-09
4.3103e-09
4.18572e-09
4.0565e-09
3.92334e-09
3.78693e-09
3.64798e-09
3.50717e-09
3.36518e-09
3.22267e-09
3.08028e-09
2.93859e-09
2.79818e-09
2.65957e-09
2.52326e-09
2.38967e-09
2.25922e-09
2.13224e-09
2.00905e-09
1.88991e-09
1.77501e-09
1.66454e-09
1.55863e-09
1.45734e-09
1.36074e-09
1.26883e-09
1.1816e-09
1.09899e-09
1.02094e-09
9.47343e-10
8.78083e-10
8.13026e-10
7.52026e-10
6.94924e-10
6.41554e-10
5.91744e-10
5.45317e-10
5.02098e-10
4.6191e-10
4.24577e-10
3.89928e-10
3.57797e-10
3.28021e-10
3.00447e-10
2.74925e-10
2.51315e-10
2.29484e-10
2.09306e-10
1.90663e-10
1.73445e-10
1.57552e-10
1.42887e-10
1.29364e-10
1.16901e-10
1.05425e-10
9.48669e-11
8.51642e-11
7.62593e-11
6.80991e-11
6.06348e-11
5.38213e-11
4.76166e-11
4.19819e-11
3.68805e-11
3.22778e-11
2.81413e-11
2.44398e-11
2.11433e-11
1.8223e-11
1.56511e-11
1.34006e-11
1.14451e-11
9.7591e-12
8.31788e-12
7.09739e-12
6.07437e-12
5.22646e-12
4.5322e-12
3.97116e-12
3.52397e-12
3.17248e-12
2.89979e-12
2.69035e-12
2.53004e-12
2.40626e-12
2.30793e-12
2.2256e-12
2.15139e-12
2.079e-12
2.00368e-12
1.92214e-12
1.83241e-12
1.73371e-12
1.62632e-12
1.5113e-12
1.3904e-12
1.26573e-12
1.13968e-12
1.01464e-12
8.92918e-13
7.7657e-13
6.67315e-13
5.66483e-13
4.74987e-13
3.93327e-13
3.21624e-13
2.59664e-13
2.06965e-13
1.62839e-13
1.26459e-13
9.69232e-14
7.33079e-14
5.47115e-14
4.02874e-14
2.92673e-14
2.09739e-14
1.48257e-14
1.03358e-14
7.10568e-15
4.81618e-15
3.21689e-15
2.11509e-15
1.365e-15
8.57839e-16
5.13062e-16
2.70608e-16
8.42556e-17
2.85735e-13
8.59943e-13
1.44244e-12
2.03893e-12
2.65524e-12
3.29738e-12
3.9716e-12
4.68444e-12
5.44277e-12
6.25388e-12
7.12553e-12
8.066e-12
9.08417e-12
1.01896e-11
1.13926e-11
1.27044e-11
1.41369e-11
1.57033e-11
1.74178e-11
1.92958e-11
2.1354e-11
2.36107e-11
2.60855e-11
2.88e-11
3.17774e-11
3.50432e-11
3.86248e-11
4.2552e-11
4.68572e-11
5.15754e-11
5.67446e-11
6.24058e-11
6.86033e-11
7.53852e-11
8.2803e-11
9.09125e-11
9.97737e-11
1.09451e-10
1.20014e-10
1.31537e-10
1.44099e-10
1.57787e-10
1.7269e-10
1.88906e-10
2.0654e-10
2.257e-10
2.46503e-10
2.69075e-10
2.93546e-10
3.20054e-10
3.48746e-10
3.79774e-10
4.133e-10
4.49493e-10
4.88527e-10
5.30586e-10
5.75861e-10
6.24546e-10
6.76846e-10
7.32967e-10
7.93124e-10
8.57533e-10
9.26415e-10
9.99991e-10
1.07849e-09
1.16212e-09
1.25111e-09
1.34568e-09
1.44604e-09
1.55239e-09
1.66491e-09
1.7838e-09
1.90921e-09
2.04129e-09
2.18016e-09
2.32593e-09
2.47866e-09
2.6384e-09
2.80515e-09
2.97889e-09
3.15955e-09
3.34701e-09
3.54111e-09
3.74163e-09
3.94832e-09
4.16085e-09
4.37884e-09
4.60185e-09
4.82938e-09
5.06087e-09
5.29569e-09
5.53316e-09
5.77252e-09
6.01296e-09
6.25362e-09
6.49356e-09
6.73183e-09
6.96741e-09
7.19922e-09
7.4262e-09
7.64721e-09
7.86112e-09
8.0668e-09
8.2631e-09
8.44889e-09
8.62307e-09
8.78455e-09
8.93231e-09
9.06537e-09
9.18281e-09
9.28379e-09
9.36757e-09
9.43348e-09
9.48098e-09
9.50962e-09
9.51907e-09
9.50915e-09
9.47978e-09
9.43101e-09
9.36303e-09
9.27617e-09
9.17088e-09
9.04773e-09
8.9074e-09
8.75072e-09
8.57858e-09
8.39199e-09
8.19204e-09
7.9799e-09
7.7568e-09
7.52399e-09
7.28278e-09
7.03451e-09
6.78051e-09
6.5221e-09
6.2606e-09
5.99729e-09
5.7334e-09
5.47013e-09
5.20859e-09
4.94985e-09
4.69489e-09
4.4446e-09
4.1998e-09
3.96122e-09
3.72949e-09
3.50516e-09
3.28869e-09
3.08044e-09
2.8807e-09
2.68968e-09
2.50751e-09
2.33423e-09
2.16985e-09
2.01429e-09
1.86743e-09
1.7291e-09
1.5991e-09
1.47717e-09
1.36305e-09
1.25642e-09
1.15698e-09
1.06439e-09
9.78323e-10
8.98423e-10
8.2435e-10
7.55763e-10
6.92326e-10
6.3371e-10
5.79597e-10
5.29681e-10
4.83668e-10
4.4128e-10
4.0225e-10
3.6633e-10
3.33286e-10
3.02897e-10
2.74961e-10
2.49288e-10
2.25703e-10
2.04045e-10
1.84165e-10
1.65927e-10
1.49207e-10
1.33891e-10
1.19875e-10
1.07063e-10
9.53685e-11
8.47116e-11
7.5019e-11
6.62232e-11
5.82618e-11
5.10768e-11
4.46138e-11
3.8822e-11
3.36533e-11
2.9062e-11
2.50045e-11
2.14391e-11
1.83258e-11
1.56259e-11
1.33025e-11
1.13195e-11
9.64282e-12
8.23925e-12
7.07725e-12
6.12672e-12
5.35913e-12
4.74762e-12
4.26708e-12
3.89425e-12
3.60781e-12
3.38847e-12
3.21903e-12
3.08446e-12
2.97191e-12
2.87073e-12
2.77241e-12
2.67052e-12
2.56061e-12
2.44002e-12
2.30769e-12
2.16397e-12
2.01026e-12
1.84885e-12
1.68258e-12
1.51458e-12
1.34805e-12
1.18603e-12
1.03123e-12
8.85935e-13
7.51896e-13
6.30313e-13
5.21839e-13
4.2662e-13
3.44366e-13
2.74425e-13
2.15877e-13
1.67618e-13
1.28448e-13
9.7136e-14
7.24839e-14
5.33665e-14
3.87635e-14
2.77755e-14
1.96311e-14
1.36843e-14
9.40666e-15
6.37511e-15
4.25774e-15
2.7992e-15
1.80634e-15
1.13513e-15
6.78864e-16
3.58044e-16
1.11477e-16
5.0877e-13
1.53125e-12
2.56871e-12
3.63142e-12
4.72991e-12
5.87505e-12
7.07813e-12
8.35097e-12
9.70602e-12
1.11565e-11
1.27164e-11
1.44008e-11
1.62259e-11
1.8209e-11
2.03689e-11
2.27259e-11
2.5302e-11
2.8121e-11
3.1209e-11
3.45941e-11
3.83068e-11
4.23806e-11
4.68516e-11
5.17592e-11
5.71463e-11
6.30593e-11
6.95488e-11
7.66698e-11
8.44817e-11
9.30492e-11
1.02442e-10
1.12736e-10
1.24014e-10
1.36363e-10
1.49879e-10
1.64666e-10
1.80834e-10
1.98504e-10
2.17803e-10
2.3887e-10
2.61852e-10
2.86908e-10
3.14207e-10
3.43929e-10
3.76268e-10
4.11429e-10
4.49628e-10
4.91097e-10
5.36081e-10
5.84836e-10
6.37635e-10
6.94764e-10
7.56523e-10
8.23225e-10
8.95198e-10
9.72783e-10
1.05633e-09
1.14622e-09
1.24281e-09
1.34649e-09
1.45767e-09
1.57674e-09
1.70411e-09
1.8402e-09
1.98541e-09
2.14016e-09
2.30485e-09
2.47988e-09
2.66562e-09
2.86246e-09
3.07072e-09
3.29075e-09
3.52281e-09
3.76718e-09
4.02406e-09
4.29361e-09
4.57594e-09
4.87111e-09
5.1791e-09
5.49981e-09
5.83308e-09
6.17866e-09
6.53619e-09
6.90523e-09
7.28524e-09
7.67557e-09
8.07544e-09
8.48399e-09
8.90021e-09
9.323e-09
9.75112e-09
1.01832e-08
1.06178e-08
1.10534e-08
1.14883e-08
1.19206e-08
1.23486e-08
1.27703e-08
1.31836e-08
1.35866e-08
1.39771e-08
1.4353e-08
1.47122e-08
1.50526e-08
1.5372e-08
1.56685e-08
1.59401e-08
1.61851e-08
1.64015e-08
1.65879e-08
1.67429e-08
1.68651e-08
1.69536e-08
1.70074e-08
1.70259e-08
1.70088e-08
1.69559e-08
1.68671e-08
1.6743e-08
1.65841e-08
1.63912e-08
1.61653e-08
1.59078e-08
1.56201e-08
1.5304e-08
1.49614e-08
1.45942e-08
1.42047e-08
1.37952e-08
1.3368e-08
1.29257e-08
1.24706e-08
1.20054e-08
1.15324e-08
1.10543e-08
1.05732e-08
1.00916e-08
9.61169e-09
9.13553e-09
8.6651e-09
8.20219e-09
7.74848e-09
7.30545e-09
6.87443e-09
6.45656e-09
6.05282e-09
5.66403e-09
5.29082e-09
4.93368e-09
4.59295e-09
4.26881e-09
3.96132e-09
3.67041e-09
3.39591e-09
3.13753e-09
2.89493e-09
2.66766e-09
2.45523e-09
2.25708e-09
2.07263e-09
1.90126e-09
1.74231e-09
1.59515e-09
1.4591e-09
1.33351e-09
1.21774e-09
1.11114e-09
1.0131e-09
9.23021e-10
8.40332e-10
7.64485e-10
6.94963e-10
6.31275e-10
5.72962e-10
5.19593e-10
4.70768e-10
4.26114e-10
3.85286e-10
3.47967e-10
3.13866e-10
2.82714e-10
2.54267e-10
2.28301e-10
2.04615e-10
1.83021e-10
1.63352e-10
1.45456e-10
1.29192e-10
1.14435e-10
1.01069e-10
8.89871e-11
7.80931e-11
6.82971e-11
5.95163e-11
5.16734e-11
4.46962e-11
3.85169e-11
3.30714e-11
2.8299e-11
2.4142e-11
2.05454e-11
1.74567e-11
1.48259e-11
1.26052e-11
1.07493e-11
9.21479e-12
7.96099e-12
6.9494e-12
6.14398e-12
5.51125e-12
5.02033e-12
4.64305e-12
4.35399e-12
4.13062e-12
3.95324e-12
3.80511e-12
3.67234e-12
3.54388e-12
3.4114e-12
3.2691e-12
3.11353e-12
2.94329e-12
2.75878e-12
2.56179e-12
2.35521e-12
2.14263e-12
1.92804e-12
1.71548e-12
1.50882e-12
1.3115e-12
1.12639e-12
9.55707e-13
8.00952e-13
6.6294e-13
5.41841e-13
4.37267e-13
3.48378e-13
2.73991e-13
2.12696e-13
1.62959e-13
1.2321e-13
9.19237e-14
6.76672e-14
4.91427e-14
3.5207e-14
2.48797e-14
1.73405e-14
1.19184e-14
8.07634e-15
5.39331e-15
3.54538e-15
2.28764e-15
1.43745e-15
8.5961e-16
4.5335e-16
1.41147e-16
8.89887e-13
2.67843e-12
4.49356e-12
6.35348e-12
8.27689e-12
1.02831e-11
1.23921e-11
1.4625e-11
1.70039e-11
1.95523e-11
2.22952e-11
2.52595e-11
2.8474e-11
3.19697e-11
3.57802e-11
3.9942e-11
4.44944e-11
4.94801e-11
5.49459e-11
6.09423e-11
6.75244e-11
7.47522e-11
8.26909e-11
9.14115e-11
1.00991e-10
1.11515e-10
1.23072e-10
1.35764e-10
1.49698e-10
1.6499e-10
1.81768e-10
2.0017e-10
2.20343e-10
2.42449e-10
2.66662e-10
2.93169e-10
3.22174e-10
3.53893e-10
3.88561e-10
4.2643e-10
4.67769e-10
5.12869e-10
5.62039e-10
6.15609e-10
6.73932e-10
7.37382e-10
8.06359e-10
8.81286e-10
9.6261e-10
1.05081e-09
1.14637e-09
1.24983e-09
1.36173e-09
1.48265e-09
1.61319e-09
1.75399e-09
1.90567e-09
2.06892e-09
2.24444e-09
2.43292e-09
2.63509e-09
2.8517e-09
3.08348e-09
3.33119e-09
3.59559e-09
3.87741e-09
4.1774e-09
4.49627e-09
4.83471e-09
5.19339e-09
5.57293e-09
5.97389e-09
6.39678e-09
6.84205e-09
7.31005e-09
7.80105e-09
8.31522e-09
8.85259e-09
9.41309e-09
9.99649e-09
1.06024e-08
1.12304e-08
1.18796e-08
1.25493e-08
1.32382e-08
1.39452e-08
1.46688e-08
1.54071e-08
1.61584e-08
1.69204e-08
1.76908e-08
1.8467e-08
1.92463e-08
2.00255e-08
2.08017e-08
2.15713e-08
2.23309e-08
2.30769e-08
2.38056e-08
2.4513e-08
2.51953e-08
2.58486e-08
2.64689e-08
2.70526e-08
2.75957e-08
2.80948e-08
2.85462e-08
2.89468e-08
2.92935e-08
2.95837e-08
2.98149e-08
2.99851e-08
3.00926e-08
3.01361e-08
3.01148e-08
3.00283e-08
2.98766e-08
2.96603e-08
2.93804e-08
2.90383e-08
2.8636e-08
2.81756e-08
2.76601e-08
2.70923e-08
2.6476e-08
2.58146e-08
2.51124e-08
2.43735e-08
2.36023e-08
2.28034e-08
2.19814e-08
2.11409e-08
2.02866e-08
1.94229e-08
1.85544e-08
1.76853e-08
1.68198e-08
1.59616e-08
1.51144e-08
1.42816e-08
1.34662e-08
1.26709e-08
1.18982e-08
1.11501e-08
1.04284e-08
9.73465e-09
9.06986e-09
8.4349e-09
7.83034e-09
7.25647e-09
6.71332e-09
6.2007e-09
5.71823e-09
5.26534e-09
4.84129e-09
4.44523e-09
4.07617e-09
3.73306e-09
3.41474e-09
3.12004e-09
2.84772e-09
2.59655e-09
2.36528e-09
2.15267e-09
1.95752e-09
1.77862e-09
1.61484e-09
1.46507e-09
1.32825e-09
1.20336e-09
1.08947e-09
9.85681e-10
8.91147e-10
8.05088e-10
7.26778e-10
6.55544e-10
5.90767e-10
5.31876e-10
4.78349e-10
4.29709e-10
3.8552e-10
3.45386e-10
3.0895e-10
2.75884e-10
2.45896e-10
2.18718e-10
1.9411e-10
1.71854e-10
1.51752e-10
1.33625e-10
1.17312e-10
1.02663e-10
8.95432e-11
7.78277e-11
6.74016e-11
5.81586e-11
4.99994e-11
4.28316e-11
3.65681e-11
3.11273e-11
2.64321e-11
2.24096e-11
1.89908e-11
1.61108e-11
1.3708e-11
1.17244e-11
1.01058e-11
8.80112e-12
7.7631e-12
6.94795e-12
6.31552e-12
5.82933e-12
5.45665e-12
5.16854e-12
4.93983e-12
4.74914e-12
4.5788e-12
4.41479e-12
4.24653e-12
4.06668e-12
3.87083e-12
3.6572e-12
3.42622e-12
3.18009e-12
2.92237e-12
2.6575e-12
2.3904e-12
2.12607e-12
1.86927e-12
1.62424e-12
1.39453e-12
1.18283e-12
9.90991e-13
8.19988e-13
6.70008e-13
5.40549e-13
4.30549e-13
3.38531e-13
2.62733e-13
2.01248e-13
1.52126e-13
1.13472e-13
8.35127e-14
6.06385e-14
4.34348e-14
3.06887e-14
2.13857e-14
1.46964e-14
9.95739e-15
6.64856e-15
4.36999e-15
2.81939e-15
1.77141e-15
1.05923e-15
5.58596e-16
1.7391e-16
1.53082e-12
4.60778e-12
7.73113e-12
1.09327e-11
1.42451e-11
1.7702e-11
2.13385e-11
2.51913e-11
2.92992e-11
3.37034e-11
3.84478e-11
4.35795e-11
4.9149e-11
5.52111e-11
6.18248e-11
6.90542e-11
7.69688e-11
8.56442e-11
9.51626e-11
1.05614e-10
1.17095e-10
1.29712e-10
1.43582e-10
1.5883e-10
1.75593e-10
1.94021e-10
2.14276e-10
2.36536e-10
2.60992e-10
2.87853e-10
3.17346e-10
3.49716e-10
3.8523e-10
4.24174e-10
4.66862e-10
5.13628e-10
5.64836e-10
6.20877e-10
6.82172e-10
7.49173e-10
8.22365e-10
9.0227e-10
9.89444e-10
1.08448e-09
1.18802e-09
1.30074e-09
1.42335e-09
1.55663e-09
1.70137e-09
1.85844e-09
2.02873e-09
2.2132e-09
2.41284e-09
2.62869e-09
2.86184e-09
3.11342e-09
3.38461e-09
3.67663e-09
3.99072e-09
4.32816e-09
4.69028e-09
5.0784e-09
5.49388e-09
5.93806e-09
6.41232e-09
6.91798e-09
7.45638e-09
8.0288e-09
8.63649e-09
9.28062e-09
9.96229e-09
1.06825e-08
1.14422e-08
1.2242e-08
1.30827e-08
1.39646e-08
1.48879e-08
1.58528e-08
1.68589e-08
1.79058e-08
1.89927e-08
2.01186e-08
2.12821e-08
2.24814e-08
2.37144e-08
2.49787e-08
2.62715e-08
2.75894e-08
2.89288e-08
3.02857e-08
3.16557e-08
3.30338e-08
3.4415e-08
3.57935e-08
3.71636e-08
3.85189e-08
3.98531e-08
4.11594e-08
4.24309e-08
4.36607e-08
4.48415e-08
4.59665e-08
4.70284e-08
4.80204e-08
4.89359e-08
4.97683e-08
5.05117e-08
5.11602e-08
5.17089e-08
5.2153e-08
5.24885e-08
5.27122e-08
5.28214e-08
5.28145e-08
5.26903e-08
5.24486e-08
5.20903e-08
5.16169e-08
5.10307e-08
5.0335e-08
4.95337e-08
4.86318e-08
4.76347e-08
4.65485e-08
4.538e-08
4.41365e-08
4.28256e-08
4.14554e-08
4.0034e-08
3.857e-08
3.70718e-08
3.55479e-08
3.40067e-08
3.24563e-08
3.09046e-08
2.93591e-08
2.7827e-08
2.63149e-08
2.4829e-08
2.33749e-08
2.19577e-08
2.05817e-08
1.92509e-08
1.79684e-08
1.67369e-08
1.55584e-08
1.44344e-08
1.3366e-08
1.23535e-08
1.1397e-08
1.04961e-08
9.65002e-09
8.8576e-09
8.11747e-09
7.42797e-09
6.78724e-09
6.19327e-09
5.64391e-09
5.13692e-09
4.67002e-09
4.24089e-09
3.84722e-09
3.4867e-09
3.1571e-09
2.85621e-09
2.58194e-09
2.33224e-09
2.10518e-09
1.89893e-09
1.71175e-09
1.54202e-09
1.38824e-09
1.24897e-09
1.12292e-09
1.00889e-09
9.05755e-10
8.1251e-10
7.28224e-10
6.52052e-10
5.83226e-10
5.21049e-10
4.64893e-10
4.14189e-10
3.68424e-10
3.27139e-10
2.89917e-10
2.56385e-10
2.26209e-10
1.99085e-10
1.74741e-10
1.52931e-10
1.33432e-10
1.16041e-10
1.00575e-10
8.68643e-11
7.47541e-11
6.41016e-11
5.47745e-11
4.665e-11
3.96134e-11
3.35579e-11
2.83833e-11
2.39959e-11
2.03077e-11
1.72366e-11
1.47056e-11
1.26432e-11
1.09827e-11
9.66265e-12
8.62647e-12
7.82261e-12
7.20449e-12
6.73048e-12
6.3639e-12
6.07301e-12
5.8309e-12
5.61544e-12
5.40904e-12
5.19849e-12
4.97461e-12
4.73188e-12
4.46803e-12
4.1835e-12
3.88096e-12
3.56469e-12
3.24011e-12
2.91317e-12
2.58994e-12
2.27619e-12
1.97706e-12
1.69681e-12
1.43871e-12
1.20495e-12
9.96693e-13
8.14131e-13
6.56621e-13
5.22845e-13
4.10983e-13
3.18876e-13
2.44187e-13
1.84538e-13
1.37616e-13
1.01259e-13
7.35078e-14
5.26421e-14
3.71868e-14
2.59091e-14
1.78019e-14
1.20595e-14
8.05092e-15
5.291e-15
3.41317e-15
2.14424e-15
1.28205e-15
6.76058e-16
2.10472e-16
2.59105e-12
7.79949e-12
1.30876e-11
1.85102e-11
2.41231e-11
2.99844e-11
3.61543e-11
4.26962e-11
4.96768e-11
5.71671e-11
6.5243e-11
7.39857e-11
8.34828e-11
9.38289e-11
1.05126e-10
1.17486e-10
1.3103e-10
1.45888e-10
1.62203e-10
1.80132e-10
1.99845e-10
2.21526e-10
2.45378e-10
2.71621e-10
3.00496e-10
3.32263e-10
3.67208e-10
4.05641e-10
4.47898e-10
4.94348e-10
5.45387e-10
6.01447e-10
6.62998e-10
7.30547e-10
8.04642e-10
8.85878e-10
9.74895e-10
1.07238e-09
1.17909e-09
1.29581e-09
1.42342e-09
1.56282e-09
1.71501e-09
1.88105e-09
2.06206e-09
2.25925e-09
2.47389e-09
2.70735e-09
2.96107e-09
3.23657e-09
3.53545e-09
3.85942e-09
4.21023e-09
4.58976e-09
4.99994e-09
5.4428e-09
5.92044e-09
6.43502e-09
6.98878e-09
7.58403e-09
8.22309e-09
8.90835e-09
9.64223e-09
1.04271e-08
1.12655e-08
1.21597e-08
1.31121e-08
1.4125e-08
1.52006e-08
1.6341e-08
1.75481e-08
1.88237e-08
2.01693e-08
2.15862e-08
2.30755e-08
2.46378e-08
2.62736e-08
2.79827e-08
2.97647e-08
3.16185e-08
3.35428e-08
3.55353e-08
3.75936e-08
3.97142e-08
4.18933e-08
4.41263e-08
4.64079e-08
4.8732e-08
5.10918e-08
5.34799e-08
5.58881e-08
5.83075e-08
6.07285e-08
6.31409e-08
6.5534e-08
6.78963e-08
7.02162e-08
7.24814e-08
7.46795e-08
7.67978e-08
7.88237e-08
8.07444e-08
8.25474e-08
8.42205e-08
8.57518e-08
8.71301e-08
8.83447e-08
8.9386e-08
9.02451e-08
9.09143e-08
9.1387e-08
9.16581e-08
9.17235e-08
9.15808e-08
9.12292e-08
9.06692e-08
8.9903e-08
8.89342e-08
8.77682e-08
8.64115e-08
8.48725e-08
8.31605e-08
8.12864e-08
7.92618e-08
7.70996e-08
7.48135e-08
7.24178e-08
6.99272e-08
6.7357e-08
6.47225e-08
6.20391e-08
5.93219e-08
5.65857e-08
5.3845e-08
5.11136e-08
4.84045e-08
4.573e-08
4.31014e-08
4.05289e-08
3.80219e-08
3.55886e-08
3.3236e-08
3.09701e-08
2.87957e-08
2.67168e-08
2.47359e-08
2.28549e-08
2.10747e-08
1.93954e-08
1.7816e-08
1.63353e-08
1.4951e-08
1.36607e-08
1.24612e-08
1.13491e-08
1.03208e-08
9.37216e-09
8.49915e-09
7.69755e-09
6.96309e-09
6.29154e-09
5.67867e-09
5.12039e-09
4.6127e-09
4.15174e-09
3.73381e-09
3.35542e-09
3.01324e-09
2.70414e-09
2.4252e-09
2.1737e-09
1.9471e-09
1.74306e-09
1.55945e-09
1.39428e-09
1.24576e-09
1.11225e-09
9.92254e-10
8.84429e-10
7.87555e-10
7.00533e-10
6.22376e-10
5.52197e-10
4.892e-10
4.32674e-10
3.8198e-10
3.36548e-10
2.95869e-10
2.59484e-10
2.26986e-10
1.98005e-10
1.72212e-10
1.49308e-10
1.29024e-10
1.11114e-10
9.53557e-11
8.1545e-11
6.94947e-11
5.90327e-11
4.99999e-11
4.22491e-11
3.56439e-11
3.00575e-11
2.53722e-11
2.14787e-11
1.82758e-11
1.56698e-11
1.35743e-11
1.19098e-11
1.0604e-11
9.59108e-12
8.81209e-12
8.21448e-12
7.75221e-12
7.38556e-12
7.08098e-12
6.81096e-12
6.55368e-12
6.29279e-12
6.0169e-12
5.71917e-12
5.39671e-12
5.04999e-12
4.68214e-12
4.29831e-12
3.90496e-12
3.50925e-12
3.11846e-12
2.73948e-12
2.37846e-12
2.04048e-12
1.72942e-12
1.44788e-12
1.1972e-12
9.77568e-13
7.88171e-13
6.2739e-13
4.93007e-13
3.82402e-13
2.9275e-13
2.21177e-13
1.64896e-13
1.21301e-13
8.80363e-14
6.30323e-14
4.4517e-14
3.10101e-14
2.13026e-14
1.44284e-14
9.63085e-15
6.32836e-15
4.0818e-15
2.56398e-15
1.53287e-15
8.0826e-16
2.51621e-16
4.3161e-12
1.29929e-11
2.18045e-11
3.08434e-11
4.02043e-11
4.99855e-11
6.02888e-11
7.12217e-11
8.28974e-11
9.54365e-11
1.08968e-10
1.2363e-10
1.39571e-10
1.56954e-10
1.75952e-10
1.96755e-10
2.1957e-10
2.44621e-10
2.72154e-10
3.02436e-10
3.35759e-10
3.7244e-10
4.12827e-10
4.573e-10
5.06271e-10
5.60192e-10
6.19554e-10
6.84893e-10
7.56791e-10
8.35883e-10
9.22859e-10
1.01847e-09
1.12352e-09
1.23889e-09
1.36555e-09
1.50451e-09
1.65691e-09
1.82393e-09
2.00688e-09
2.20715e-09
2.42624e-09
2.66577e-09
2.92747e-09
3.21318e-09
3.52488e-09
3.86467e-09
4.2348e-09
4.63765e-09
5.07576e-09
5.55178e-09
6.06856e-09
6.62906e-09
7.2364e-09
7.89386e-09
8.60486e-09
9.37297e-09
1.02019e-08
1.10954e-08
1.20575e-08
1.30922e-08
1.42037e-08
1.53961e-08
1.66737e-08
1.80408e-08
1.95017e-08
2.10605e-08
2.27214e-08
2.44885e-08
2.63656e-08
2.83563e-08
3.04641e-08
3.2692e-08
3.50428e-08
3.75186e-08
4.01212e-08
4.28518e-08
4.57109e-08
4.86982e-08
5.18128e-08
5.50527e-08
5.84152e-08
6.18965e-08
6.54916e-08
6.91945e-08
7.2998e-08
7.68937e-08
8.08719e-08
8.49216e-08
8.90306e-08
9.31853e-08
9.73708e-08
1.01571e-07
1.05769e-07
1.09946e-07
1.14082e-07
1.18159e-07
1.22153e-07
1.26044e-07
1.29809e-07
1.33426e-07
1.36873e-07
1.40126e-07
1.43164e-07
1.45966e-07
1.4851e-07
1.50777e-07
1.52749e-07
1.5441e-07
1.55744e-07
1.56738e-07
1.57383e-07
1.57669e-07
1.57591e-07
1.57146e-07
1.56333e-07
1.55155e-07
1.53618e-07
1.51728e-07
1.49498e-07
1.46939e-07
1.44069e-07
1.40905e-07
1.37467e-07
1.33778e-07
1.29861e-07
1.25741e-07
1.21445e-07
1.16999e-07
1.12431e-07
1.07768e-07
1.03037e-07
9.82656e-08
9.34792e-08
8.87029e-08
8.39606e-08
7.92746e-08
7.46656e-08
7.01525e-08
6.57525e-08
6.14805e-08
5.73498e-08
5.33715e-08
4.95545e-08
4.59062e-08
4.24317e-08
3.91346e-08
3.60165e-08
3.30776e-08