/*--------------------------------*- C++ -*----------------------------------*\
| =========                 |                                                 |
| \\      /  F ield         | OpenFOAM: The Open Source CFD Toolbox           |
|  \\    /   O peration     | Version:  v2012                                 |
|   \\  /    A nd           | Website:  www.openfoam.com                      |
|    \\/     M anipulation  |                                                 |
\*---------------------------------------------------------------------------*/
FoamFile
{
    version     2.0;
    format      ascii;
    class       volScalarField;
    location    "13.7";
    object      W;
}
// * * * * * * * * * * * * * * * * * * * * * * * * * * * * * * * * * * * * * //

dimensions      [0 0 -1 0 0 0 0];


internalField   nonuniform List<scalar> 
65536
(
6.19119e-17
1.86682e-16
3.14318e-16
4.46803e-16
5.86192e-16
7.34636e-16
8.9441e-16
1.06794e-15
1.25784e-15
1.46693e-15
1.69831e-15
1.95534e-15
2.24173e-15
2.56158e-15
2.91937e-15
3.32011e-15
3.76928e-15
4.27299e-15
4.83798e-15
5.47173e-15
6.1825e-15
6.97944e-15
7.87265e-15
8.87331e-15
9.99374e-15
1.12475e-14
1.26497e-14
1.42167e-14
1.59668e-14
1.79197e-14
2.00975e-14
2.25241e-14
2.52256e-14
2.82309e-14
3.15711e-14
3.52804e-14
3.9396e-14
4.39582e-14
4.90109e-14
5.46015e-14
6.07815e-14
6.76062e-14
7.51357e-14
8.34343e-14
9.25713e-14
1.02621e-13
1.13663e-13
1.25781e-13
1.39068e-13
1.53618e-13
1.69535e-13
1.86926e-13
2.05907e-13
2.26598e-13
2.49126e-13
2.73624e-13
3.00231e-13
3.29094e-13
3.60362e-13
3.94194e-13
4.30749e-13
4.70196e-13
5.12704e-13
5.58449e-13
6.07608e-13
6.6036e-13
7.16888e-13
7.77371e-13
8.41991e-13
9.10928e-13
9.84356e-13
1.06245e-12
1.14537e-12
1.23327e-12
1.32631e-12
1.42463e-12
1.52834e-12
1.63756e-12
1.75239e-12
1.8729e-12
1.99915e-12
2.13117e-12
2.26898e-12
2.41257e-12
2.5619e-12
2.7169e-12
2.87748e-12
3.04351e-12
3.21483e-12
3.39125e-12
3.57255e-12
3.75848e-12
3.94874e-12
4.14301e-12
4.34094e-12
4.54215e-12
4.7462e-12
4.95266e-12
5.16105e-12
5.37086e-12
5.58158e-12
5.79264e-12
6.00349e-12
6.21354e-12
6.42219e-12
6.62883e-12
6.83284e-12
7.03361e-12
7.23051e-12
7.42293e-12
7.61024e-12
7.79186e-12
7.96718e-12
8.13563e-12
8.29665e-12
8.4497e-12
8.59427e-12
8.72988e-12
8.85606e-12
8.97238e-12
9.07845e-12
9.1739e-12
9.2584e-12
9.33165e-12
9.39339e-12
9.4434e-12
9.48148e-12
9.50748e-12
9.52128e-12
9.5228e-12
9.51199e-12
9.48884e-12
9.45337e-12
9.40563e-12
9.34571e-12
9.27373e-12
9.18983e-12
9.0942e-12
8.98704e-12
8.86861e-12
8.73917e-12
8.59903e-12
8.44852e-12
8.28799e-12
8.11786e-12
7.93853e-12
7.75046e-12
7.55414e-12
7.35008e-12
7.13883e-12
6.92097e-12
6.69711e-12
6.46789e-12
6.23397e-12
5.99606e-12
5.75486e-12
5.51113e-12
5.26564e-12
5.01917e-12
4.77252e-12
4.5265e-12
4.28193e-12
4.03961e-12
3.80036e-12
3.56497e-12
3.33423e-12
3.10887e-12
2.88962e-12
2.67716e-12
2.47212e-12
2.27508e-12
2.08656e-12
1.90701e-12
1.73683e-12
1.57632e-12
1.42573e-12
1.28523e-12
1.15489e-12
1.03472e-12
9.2466e-13
8.24564e-13
7.34221e-13
6.53354e-13
5.81624e-13
5.18639e-13
4.63955e-13
4.17084e-13
3.77503e-13
3.44656e-13
3.17964e-13
2.96829e-13
2.8064e-13
2.68782e-13
2.60639e-13
2.55603e-13
2.53077e-13
2.52483e-13
2.53271e-13
2.5492e-13
2.56947e-13
2.58913e-13
2.60429e-13
2.61158e-13
2.60823e-13
2.59208e-13
2.56158e-13
2.51581e-13
2.45448e-13
2.37787e-13
2.2868e-13
2.18254e-13
2.0668e-13
1.94155e-13
1.80901e-13
1.67152e-13
1.53145e-13
1.39111e-13
1.25267e-13
1.11811e-13
9.89157e-14
8.6723e-14
7.5345e-14
6.48618e-14
5.53226e-14
4.67478e-14
3.91319e-14
3.24474e-14
2.66487e-14
2.16766e-14
1.7462e-14
1.39302e-14
1.1004e-14
8.60694e-15
6.66534e-15
5.11029e-15
3.87876e-15
2.91433e-15
2.1675e-15
1.59561e-15
1.16257e-15
8.38328e-16
5.98253e-16
4.22484e-16
2.95235e-16
2.04141e-16
1.39662e-16
9.45313e-17
6.32968e-17
4.19193e-17
2.74464e-17
1.77469e-17
1.12996e-17
7.02817e-18
4.17253e-18
2.19048e-18
6.8047e-19
2.14849e-16
6.47833e-16
1.09078e-15
1.55059e-15
2.03441e-15
2.5497e-15
3.10438e-15
3.70688e-15
4.36629e-15
5.09245e-15
5.89609e-15
6.78895e-15
7.78393e-15
8.89526e-15
1.01386e-14
1.15313e-14
1.30926e-14
1.48436e-14
1.68078e-14
1.90114e-14
2.1483e-14
2.42545e-14
2.73612e-14
3.08419e-14
3.47395e-14
3.91016e-14
4.39803e-14
4.9433e-14
5.55229e-14
6.23196e-14
6.98992e-14
7.83451e-14
8.77487e-14
9.82098e-14
1.09837e-13
1.2275e-13
1.37078e-13
1.5296e-13
1.7055e-13
1.90013e-13
2.11527e-13
2.35285e-13
2.61495e-13
2.90381e-13
3.22182e-13
3.57157e-13
3.95581e-13
4.37749e-13
4.83973e-13
5.34587e-13
5.89944e-13
6.50419e-13
7.16406e-13
7.88322e-13
8.66603e-13
9.51708e-13
1.04411e-12
1.14432e-12
1.25284e-12
1.3702e-12
1.49697e-12
1.63371e-12
1.78099e-12
1.9394e-12
2.10955e-12
2.29204e-12
2.48746e-12
2.69643e-12
2.91955e-12
3.1574e-12
3.41055e-12
3.67958e-12
3.965e-12
4.26731e-12
4.587e-12
4.92448e-12
5.28013e-12
5.65427e-12
6.04718e-12
6.45905e-12
6.89001e-12
7.34011e-12
7.80933e-12
8.29753e-12
8.8045e-12
9.32993e-12
9.87339e-12
1.04344e-11
1.10122e-11
1.16063e-11
1.22156e-11
1.28392e-11
1.3476e-11
1.41249e-11
1.47846e-11
1.54536e-11
1.61305e-11
1.68136e-11
1.75013e-11
1.81918e-11
1.88832e-11
1.95737e-11
2.02614e-11
2.09441e-11
2.162e-11
2.22868e-11
2.29426e-11
2.35853e-11
2.42129e-11
2.48233e-11
2.54146e-11
2.59847e-11
2.65318e-11
2.70542e-11
2.75499e-11
2.80175e-11
2.84553e-11
2.88619e-11
2.92358e-11
2.9576e-11
2.98811e-11
3.01503e-11
3.03826e-11
3.05772e-11
3.07335e-11
3.0851e-11
3.09292e-11
3.09679e-11
3.09669e-11
3.09262e-11
3.08457e-11
3.07257e-11
3.05665e-11
3.03684e-11
3.01318e-11
2.98575e-11
2.95459e-11
2.91979e-11
2.88144e-11
2.83962e-11
2.79443e-11
2.746e-11
2.69443e-11
2.63985e-11
2.5824e-11
2.52222e-11
2.45947e-11
2.39431e-11
2.32689e-11
2.25741e-11
2.18605e-11
2.113e-11
2.03847e-11
1.96266e-11
1.8858e-11
1.80811e-11
1.72982e-11
1.65117e-11
1.57239e-11
1.49375e-11
1.41547e-11
1.33782e-11
1.26103e-11
1.18536e-11
1.11104e-11
1.03831e-11
9.67388e-12
8.98493e-12
8.31826e-12
7.67574e-12
7.05908e-12
6.4698e-12
5.90921e-12
5.37844e-12
4.87837e-12
4.40966e-12
3.97272e-12
3.56775e-12
3.1947e-12
2.85327e-12
2.54298e-12
2.26311e-12
2.01273e-12
1.79077e-12
1.59595e-12
1.42687e-12
1.28199e-12
1.15967e-12
1.05816e-12
9.75651e-13
9.10289e-13
8.60179e-13
8.23411e-13
7.98085e-13
7.8232e-13
7.7428e-13
7.72188e-13
7.74348e-13
7.79163e-13
7.85153e-13
7.90973e-13
7.9543e-13
7.97497e-13
7.96325e-13
7.91253e-13
7.81811e-13
7.67721e-13
7.48892e-13
7.25412e-13
6.9753e-13
6.65639e-13
6.30255e-13
5.91985e-13
5.51506e-13
5.0953e-13
4.66778e-13
4.23955e-13
3.81724e-13
3.40685e-13
3.01361e-13
2.64189e-13
2.29505e-13
1.97555e-13
1.68485e-13
1.42358e-13
1.19156e-13
9.87939e-14
8.11323e-14
6.59897e-14
5.31555e-14
4.24014e-14
3.34923e-14
2.61948e-14
2.02843e-14
1.5551e-14
1.18027e-14
8.86756e-15
6.59479e-15
4.85454e-15
3.53688e-15
2.55032e-15
1.8199e-15
1.28516e-15
8.98043e-16
6.20934e-16
4.24793e-16
2.87516e-16
1.92511e-16
1.2749e-16
8.34713e-17
5.39716e-17
3.43637e-17
2.13733e-17
1.26889e-17
6.66135e-18
2.06938e-18
4.66921e-16
1.40793e-15
2.37067e-15
3.37016e-15
4.42198e-15
5.54243e-15
6.74873e-15
8.05931e-15
9.49397e-15
1.10742e-14
1.28234e-14
1.47673e-14
1.69339e-14
1.93544e-14
2.20631e-14
2.50977e-14
2.85003e-14
3.23172e-14
3.65999e-14
4.14052e-14
4.67961e-14
5.28422e-14
5.96207e-14
6.72166e-14
7.5724e-14
8.52465e-14
9.58983e-14
1.07805e-13
1.21106e-13
1.35952e-13
1.5251e-13
1.70962e-13
1.91509e-13
2.14369e-13
2.3978e-13
2.68001e-13
2.99316e-13
3.3403e-13
3.72477e-13
4.15017e-13
4.6204e-13
5.13965e-13
5.71246e-13
6.3437e-13
7.03859e-13
7.80272e-13
8.64208e-13
9.56304e-13
1.05724e-12
1.16773e-12
1.28855e-12
1.4205e-12
1.56442e-12
1.72122e-12
1.89182e-12
2.07722e-12
2.27842e-12
2.49648e-12
2.73251e-12
2.98762e-12
3.26299e-12
3.55979e-12
3.87923e-12
4.22255e-12
4.59097e-12
4.98574e-12
5.40808e-12
5.85922e-12
6.34036e-12
6.85266e-12
7.39726e-12
7.97523e-12
8.58756e-12
9.2352e-12
9.91898e-12
1.06396e-11
1.13978e-11
1.2194e-11
1.30285e-11
1.39015e-11
1.48131e-11
1.57631e-11
1.67512e-11
1.77768e-11
1.88391e-11
1.99373e-11
2.107e-11
2.22358e-11
2.34332e-11
2.46601e-11
2.59144e-11
2.71938e-11
2.84957e-11
2.98172e-11
3.11553e-11
3.25067e-11
3.3868e-11
3.52357e-11
3.6606e-11
3.79749e-11
3.93385e-11
4.06927e-11
4.20333e-11
4.33562e-11
4.46569e-11
4.59314e-11
4.71755e-11
4.8385e-11
4.95558e-11
5.0684e-11
5.17658e-11
5.27976e-11
5.37758e-11
5.46971e-11
5.55585e-11
5.6357e-11
5.70901e-11
5.77554e-11
5.83507e-11
5.88742e-11
5.93243e-11
5.96996e-11
5.99991e-11
6.0222e-11
6.03678e-11
6.0436e-11
6.04268e-11
6.03403e-11
6.01769e-11
5.99373e-11
5.96224e-11
5.92331e-11
5.87707e-11
5.82366e-11
5.76325e-11
5.696e-11
5.62211e-11
5.54177e-11
5.4552e-11
5.36263e-11
5.2643e-11
5.16046e-11
5.05138e-11
4.93733e-11
4.81859e-11
4.69547e-11
4.56827e-11
4.43732e-11
4.30293e-11
4.16546e-11
4.02525e-11
3.88267e-11
3.7381e-11
3.59192e-11
3.44451e-11
3.29629e-11
3.14767e-11
2.99906e-11
2.85088e-11
2.70356e-11
2.55753e-11
2.41321e-11
2.27101e-11
2.13135e-11
1.99464e-11
1.86127e-11
1.7316e-11
1.60598e-11
1.48475e-11
1.36821e-11
1.25663e-11
1.15025e-11
1.04927e-11
9.53854e-12
8.64134e-12
7.80196e-12
7.02087e-12
6.29811e-12
5.63334e-12
5.02582e-12
4.47444e-12
3.97772e-12
3.53388e-12
3.14079e-12
2.79608e-12
2.49713e-12
2.24112e-12
2.02502e-12
1.84571e-12
1.69992e-12
1.58432e-12
1.49554e-12
1.43019e-12
1.38492e-12
1.35641e-12
1.34143e-12
1.33688e-12
1.33978e-12
1.34735e-12
1.35702e-12
1.36645e-12
1.37357e-12
1.37659e-12
1.37407e-12
1.36484e-12
1.34812e-12
1.32341e-12
1.29057e-12
1.24974e-12
1.20138e-12
1.14615e-12
1.08494e-12
1.01881e-12
9.48913e-13
8.76484e-13
8.02761e-13
7.28955e-13
6.56202e-13
5.85533e-13
5.17845e-13
4.53881e-13
3.94221e-13
3.39277e-13
2.89303e-13
2.44399e-13
2.04532e-13
1.69554e-13
1.39221e-13
1.1322e-13
9.1187e-14
7.27287e-14
5.74398e-14
4.49187e-14
3.47793e-14
2.66605e-14
2.02322e-14
1.51991e-14
1.13024e-14
8.3191e-15
6.06051e-15
4.36964e-15
3.1179e-15
2.20159e-15
1.53831e-15
1.06356e-15
7.27557e-16
4.92409e-16
3.29682e-16
2.1832e-16
1.42933e-16
9.24151e-17
5.88385e-17
3.65947e-17
2.1725e-17
1.1405e-17
3.54301e-18
9.27477e-16
2.79672e-15
4.70932e-15
6.6952e-15
8.78542e-15
1.10125e-14
1.34108e-14
1.60171e-14
1.8871e-14
2.20153e-14
2.54968e-14
2.93668e-14
3.36816e-14
3.85032e-14
4.39004e-14
4.99487e-14
5.67322e-14
6.43438e-14
7.28862e-14
8.24736e-14
9.3232e-14
1.05301e-13
1.18835e-13
1.34005e-13
1.50998e-13
1.70024e-13
1.9131e-13
2.15109e-13
2.41699e-13
2.71383e-13
3.04496e-13
3.41404e-13
3.82506e-13
4.28242e-13
4.79086e-13
5.35561e-13
5.9823e-13
6.67707e-13
7.44659e-13
8.29805e-13
9.23923e-13
1.02785e-12
1.1425e-12
1.26883e-12
1.40788e-12
1.56077e-12
1.72868e-12
1.91289e-12
2.11473e-12
2.33563e-12
2.5771e-12
2.84072e-12
3.12818e-12
3.44121e-12
3.78165e-12
4.15142e-12
4.55249e-12
4.98692e-12
5.45683e-12
5.96438e-12
6.5118e-12
7.10136e-12
7.73534e-12
8.41604e-12
9.14578e-12
9.92686e-12
1.07615e-11
1.1652e-11
1.26005e-11
1.3609e-11
1.46795e-11
1.58138e-11
1.70136e-11
1.82804e-11
1.96153e-11
2.10196e-11
2.24939e-11
2.40387e-11
2.56542e-11
2.73403e-11
2.90965e-11
3.09218e-11
3.28149e-11
3.47742e-11
3.67974e-11
3.8882e-11
4.1025e-11
4.32228e-11
4.54715e-11
4.77667e-11
5.01035e-11
5.24765e-11
5.48802e-11
5.73084e-11
5.97547e-11
6.22121e-11
6.46736e-11
6.71319e-11
6.95793e-11
7.2008e-11
7.44102e-11
7.67778e-11
7.91028e-11
8.13773e-11
8.35933e-11
8.57431e-11
8.7819e-11
8.98138e-11
9.17202e-11
9.35317e-11
9.52417e-11
9.68443e-11
9.83341e-11
9.97059e-11
1.00955e-10
1.02078e-10
1.03071e-10
1.0393e-10
1.04655e-10
1.05242e-10
1.0569e-10
1.06e-10
1.06169e-10
1.062e-10
1.06091e-10
1.05846e-10
1.05464e-10
1.04949e-10
1.04303e-10
1.03528e-10
1.02628e-10
1.01606e-10
1.00466e-10
9.92119e-11
9.78473e-11
9.6377e-11
9.48052e-11
9.31369e-11
9.13765e-11
8.95292e-11
8.75999e-11
8.55936e-11
8.35156e-11
8.13711e-11
7.91655e-11
7.69042e-11
7.45926e-11
7.22364e-11
6.98413e-11
6.74128e-11
6.49569e-11
6.24795e-11
5.99864e-11
5.74838e-11
5.49778e-11
5.24745e-11
4.99801e-11
4.75008e-11
4.50429e-11
4.26126e-11
4.02161e-11
3.78594e-11
3.55486e-11
3.32894e-11
3.10874e-11
2.8948e-11
2.68763e-11
2.48771e-11
2.29546e-11
2.11128e-11
1.93551e-11
1.76847e-11
1.61037e-11
1.46142e-11
1.32173e-11
1.19138e-11
1.07038e-11
9.58667e-12
8.56141e-12
7.62635e-12
6.7793e-12
6.01756e-12
5.33798e-12
4.73698e-12
4.21061e-12
3.75459e-12
3.36436e-12
3.03515e-12
2.76199e-12
2.5398e-12
2.36341e-12
2.22762e-12
2.12726e-12
2.05718e-12
2.01236e-12
1.98793e-12
1.9792e-12
1.98171e-12
1.99129e-12
2.00412e-12
2.0167e-12
2.02596e-12
2.02928e-12
2.02448e-12
2.0099e-12
1.98433e-12
1.94708e-12
1.89794e-12
1.83715e-12
1.76534e-12
1.68354e-12
1.59304e-12
1.4954e-12
1.39232e-12
1.28561e-12
1.17709e-12
1.06853e-12
9.61586e-13
8.57773e-13
7.58393e-13
6.6453e-13
5.77024e-13
4.96472e-13
4.23236e-13
3.57455e-13
2.99075e-13
2.47871e-13
2.03482e-13
1.65444e-13
1.3322e-13
1.06232e-13
8.38844e-14
6.55866e-14
5.07729e-14
3.8914e-14
2.95263e-14
2.21778e-14
1.64895e-14
1.21353e-14
8.83942e-15
6.37243e-15
4.54642e-15
3.20992e-15
2.24262e-15
1.55035e-15
1.06046e-15
7.17652e-16
4.8045e-16
3.18137e-16
2.08269e-16
1.3465e-16
8.57237e-17
5.33136e-17
3.16493e-17
1.66145e-17
5.16134e-18
1.78564e-15
5.38458e-15
9.06734e-15
1.28918e-14
1.69181e-14
2.12091e-14
2.58313e-14
3.08559e-14
3.63594e-14
4.2425e-14
4.91434e-14
5.66139e-14
6.49457e-14
7.42593e-14
8.46878e-14
9.63783e-14
1.09494e-13
1.24215e-13
1.40741e-13
1.59294e-13
1.8012e-13
2.03489e-13
2.29701e-13
2.5909e-13
2.92021e-13
3.28899e-13
3.7017e-13
4.16323e-13
4.679e-13
5.25492e-13
5.89749e-13
6.61385e-13
7.41177e-13
8.29978e-13
9.28714e-13
1.0384e-12
1.16013e-12
1.29509e-12
1.44459e-12
1.61002e-12
1.79289e-12
1.99483e-12
2.21758e-12
2.46302e-12
2.73318e-12
3.03018e-12
3.35634e-12
3.71408e-12
4.10599e-12
4.53482e-12
5.00345e-12
5.51493e-12
6.07244e-12
6.67933e-12
7.33908e-12
8.05531e-12
8.83177e-12
9.67232e-12
1.05809e-11
1.15616e-11
1.26186e-11
1.3756e-11
1.4978e-11
1.62888e-11
1.76927e-11
1.91936e-11
2.07957e-11
2.25028e-11
2.43187e-11
2.62467e-11
2.82901e-11
3.0452e-11
3.27347e-11
3.51404e-11
3.76709e-11
4.03274e-11
4.31103e-11
4.60199e-11
4.90553e-11
5.22154e-11
5.54979e-11
5.89002e-11
6.24184e-11
6.60482e-11
6.97841e-11
7.362e-11
7.75488e-11
8.15626e-11
8.56525e-11
8.9809e-11
9.40215e-11
9.82789e-11
1.02569e-10
1.0688e-10
1.11198e-10
1.15509e-10
1.198e-10
1.24055e-10
1.28261e-10
1.32402e-10
1.36463e-10
1.40429e-10
1.44286e-10
1.48019e-10
1.51615e-10
1.55058e-10
1.58337e-10
1.61439e-10
1.64353e-10
1.67067e-10
1.69572e-10
1.71858e-10
1.73919e-10
1.75747e-10
1.77336e-10
1.78683e-10
1.79782e-10
1.80633e-10
1.81233e-10
1.81582e-10
1.81682e-10
1.81534e-10
1.81141e-10
1.80507e-10
1.79635e-10
1.78532e-10
1.77204e-10
1.75657e-10
1.73898e-10
1.71935e-10
1.69777e-10
1.67432e-10
1.64908e-10
1.62216e-10
1.59363e-10
1.56361e-10
1.53217e-10
1.49943e-10
1.46547e-10
1.43038e-10
1.39428e-10
1.35724e-10
1.31938e-10
1.28077e-10
1.24151e-10
1.2017e-10
1.16143e-10
1.12078e-10
1.07986e-10
1.03874e-10
9.97515e-11
9.56277e-11
9.15112e-11
8.74109e-11
8.33354e-11
7.92933e-11
7.52933e-11
7.13438e-11
6.74533e-11
6.36299e-11
5.98818e-11
5.62169e-11
5.26427e-11
4.91665e-11
4.57954e-11
4.25359e-11
3.93941e-11
3.63755e-11
3.34851e-11
3.07273e-11
2.81057e-11
2.56234e-11
2.32825e-11
2.10844e-11
1.90297e-11
1.71183e-11
1.53492e-11
1.37204e-11
1.22295e-11
1.0873e-11
9.6471e-12
8.547e-12
7.56747e-12
6.70272e-12
5.94651e-12
5.29222e-12
4.73287e-12
4.26128e-12
3.87004e-12
3.55164e-12
3.29853e-12
3.10314e-12
2.958e-12
2.85575e-12
2.78922e-12
2.75148e-12
2.73592e-12
2.73627e-12
2.74669e-12
2.76182e-12
2.77682e-12
2.78742e-12
2.78999e-12
2.78153e-12
2.75975e-12
2.72302e-12
2.67038e-12
2.60157e-12
2.51692e-12
2.41732e-12
2.30418e-12
2.17929e-12
2.04478e-12
1.90299e-12
1.75639e-12
1.60745e-12
1.45861e-12
1.31211e-12
1.17001e-12
1.03407e-12
9.05763e-13
7.86218e-13
6.76235e-13
5.76294e-13
4.86571e-13
4.0698e-13
3.37202e-13
2.76736e-13
2.24943e-13
1.81083e-13
1.44362e-13
1.13965e-13
8.90844e-14
6.89478e-14
5.28323e-14
4.00786e-14
3.00978e-14
2.23739e-14
1.64629e-14
1.19896e-14
8.64203e-15
6.16472e-15
4.35185e-15
3.04002e-15
2.10133e-15
1.43716e-15
9.72471e-16
6.50977e-16
4.31012e-16
2.82138e-16
1.82394e-16
1.16111e-16
7.22081e-17
4.28639e-17
2.2501e-17
6.98989e-18
3.37601e-15
1.01806e-14
1.71444e-14
2.43775e-14
3.1994e-14
4.01136e-14
4.88626e-14
5.83764e-14
6.88008e-14
8.02941e-14
9.30288e-14
1.07194e-13
1.22999e-13
1.40672e-13
1.60468e-13
1.82667e-13
2.07581e-13
2.35554e-13
2.66968e-13
3.02246e-13
3.41858e-13
3.86322e-13
4.36213e-13
4.92165e-13
5.5488e-13
6.25132e-13
7.03774e-13
7.91745e-13
8.90078e-13
9.99908e-13
1.12248e-12
1.25916e-12
1.41143e-12
1.58093e-12
1.76943e-12
1.97887e-12
2.21134e-12
2.46914e-12
2.75472e-12
3.07077e-12
3.42017e-12
3.80602e-12
4.23165e-12
4.70066e-12
5.21687e-12
5.78436e-12
6.40751e-12
7.09092e-12
7.83952e-12
8.65848e-12
9.55326e-12
1.05296e-11
1.15935e-11
1.27513e-11
1.40094e-11
1.53746e-11
1.6854e-11
1.84546e-11
2.01838e-11
2.20491e-11
2.40579e-11
2.6218e-11
2.85369e-11
3.10222e-11
3.36812e-11
3.65213e-11
3.95493e-11
4.2772e-11
4.61956e-11
4.98259e-11
5.36678e-11
5.7726e-11
6.20041e-11
6.6505e-11
7.12304e-11
7.61811e-11
8.13568e-11
8.67558e-11
9.23753e-11
9.82107e-11
1.04256e-10
1.10505e-10
1.16947e-10
1.23573e-10
1.3037e-10
1.37324e-10
1.4442e-10
1.5164e-10
1.58967e-10
1.6638e-10
1.73857e-10
1.81376e-10
1.88912e-10
1.96441e-10
2.03936e-10
2.11371e-10
2.18719e-10
2.25952e-10
2.33042e-10
2.39961e-10
2.46682e-10
2.53178e-10
2.59423e-10
2.65392e-10
2.71059e-10
2.76403e-10
2.81401e-10
2.86033e-10
2.90283e-10
2.94132e-10
2.97568e-10
3.00579e-10
3.03153e-10
3.05284e-10
3.06966e-10
3.08196e-10
3.08973e-10
3.09298e-10
3.09175e-10
3.08607e-10
3.07604e-10
3.06172e-10
3.04324e-10
3.0207e-10
2.99425e-10
2.96403e-10
2.93019e-10
2.8929e-10
2.85234e-10
2.80868e-10
2.76211e-10
2.71281e-10
2.66098e-10
2.60679e-10
2.55045e-10
2.49214e-10
2.43204e-10
2.37035e-10
2.30723e-10
2.24287e-10
2.17743e-10
2.11109e-10
2.04401e-10
1.97635e-10
1.90825e-10
1.83987e-10
1.77136e-10
1.70284e-10
1.63447e-10
1.56637e-10
1.49866e-10
1.43149e-10
1.36495e-10
1.29919e-10
1.2343e-10
1.17041e-10
1.10763e-10
1.04605e-10
9.85788e-11
9.2694e-11
8.69604e-11
8.1387e-11
7.59827e-11
7.07556e-11
6.57135e-11
6.08632e-11
5.62112e-11
5.1763e-11
4.75232e-11
4.34958e-11
3.96836e-11
3.60886e-11
3.27116e-11
2.95525e-11
2.66101e-11
2.38823e-11
2.13656e-11
1.90559e-11
1.69478e-11
1.50352e-11
1.33111e-11
1.17677e-11
1.03965e-11
9.18834e-12
8.13371e-12
7.22256e-12
6.44452e-12
5.78903e-12
5.24533e-12
4.80266e-12
4.45022e-12
4.17737e-12
3.97361e-12
3.82869e-12
3.7327e-12
3.67612e-12
3.64989e-12
3.64547e-12
3.65496e-12
3.6711e-12
3.68739e-12
3.69811e-12
3.69841e-12
3.68431e-12
3.65276e-12
3.60161e-12
3.52964e-12
3.43649e-12
3.32262e-12
3.18925e-12
3.03823e-12
2.87195e-12
2.69324e-12
2.50517e-12
2.31101e-12
2.11401e-12
1.91734e-12
1.72397e-12
1.53657e-12
1.35745e-12
1.18851e-12
1.03123e-12
8.86617e-13
7.55292e-13
6.37463e-13
5.32997e-13
4.41458e-13
3.62176e-13
2.94296e-13
2.36839e-13
1.88754e-13
1.48966e-13
1.16412e-13
9.00741e-14
6.90028e-14
5.23327e-14
3.9291e-14
2.92012e-14
2.14819e-14
1.56417e-14
1.12722e-14
8.03945e-15
5.6743e-15
3.96318e-15
2.73902e-15
1.87302e-15
1.26724e-15
8.48189e-16
5.61523e-16
3.67532e-16
2.37576e-16
1.51228e-16
9.40399e-17
5.58204e-17
2.93012e-17
9.10222e-18
6.2879e-15
1.89621e-14
3.19346e-14
4.54113e-14
5.96061e-14
7.47429e-14
9.10589e-14
1.08808e-13
1.28263e-13
1.49721e-13
1.73507e-13
1.99976e-13
2.29519e-13
2.62568e-13
2.99601e-13
3.41146e-13
3.87789e-13
4.40178e-13
4.99034e-13
5.65153e-13
6.39421e-13
7.22815e-13
8.16419e-13
9.21432e-13
1.03918e-12
1.17111e-12
1.31885e-12
1.48417e-12
1.66902e-12
1.87553e-12
2.10607e-12
2.36321e-12
2.64977e-12
2.96882e-12
3.32372e-12
3.71812e-12
4.156e-12
4.64165e-12
5.17975e-12
5.77534e-12
6.43384e-12
7.16113e-12
7.96348e-12
8.84764e-12
9.82081e-12
1.08907e-11
1.20654e-11
1.33537e-11
1.47648e-11
1.63083e-11
1.79945e-11
1.9834e-11
2.1838e-11
2.40182e-11
2.63867e-11
2.89559e-11
3.17387e-11
3.47483e-11
3.7998e-11
4.15014e-11
4.52722e-11
4.93242e-11
5.36708e-11
5.83255e-11
6.33014e-11
6.86109e-11
7.42662e-11
8.02783e-11
8.66578e-11
9.34136e-11
1.00554e-10
1.08085e-10
1.16012e-10
1.24338e-10
1.33063e-10
1.42188e-10
1.51708e-10
1.61618e-10
1.71909e-10
1.82569e-10
1.93586e-10
2.0494e-10
2.16614e-10
2.28582e-10
2.40819e-10
2.53296e-10
2.6598e-10
2.78836e-10
2.91827e-10
3.0491e-10
3.18044e-10
3.31183e-10
3.44281e-10
3.57288e-10
3.70155e-10
3.82831e-10
3.95264e-10
4.07404e-10
4.19199e-10
4.306e-10
4.41556e-10
4.5202e-10
4.61947e-10
4.71293e-10
4.80017e-10
4.88083e-10
4.95455e-10
5.02104e-10
5.08002e-10
5.13127e-10
5.17461e-10
5.20989e-10
5.23702e-10
5.25595e-10
5.26666e-10
5.2692e-10
5.26362e-10
5.25005e-10
5.22864e-10
5.19958e-10
5.16307e-10
5.11938e-10
5.06878e-10
5.01156e-10
4.94804e-10
4.87857e-10
4.80348e-10
4.72315e-10
4.63794e-10
4.54822e-10
4.45437e-10
4.35677e-10
4.25577e-10
4.15176e-10
4.04509e-10
3.93611e-10
3.82517e-10
3.71258e-10
3.59868e-10
3.48376e-10
3.36812e-10
3.25204e-10
3.13578e-10
3.0196e-10
2.90374e-10
2.78841e-10
2.67385e-10
2.56025e-10
2.44781e-10
2.33671e-10
2.22712e-10
2.11921e-10
2.01314e-10
1.90905e-10
1.80708e-10
1.70737e-10
1.61005e-10
1.51523e-10
1.42303e-10
1.33356e-10
1.24692e-10
1.16319e-10
1.08247e-10
1.00484e-10
9.30352e-11
8.59076e-11
7.9106e-11
7.26342e-11
6.64949e-11
6.06898e-11
5.52191e-11
5.0082e-11
4.52762e-11
4.07982e-11
3.66431e-11
3.28049e-11
2.92761e-11
2.6048e-11
2.3111e-11
2.04543e-11
1.8066e-11
1.59336e-11
1.40436e-11
1.23819e-11
1.09342e-11
9.68541e-12
8.62044e-12
7.72394e-12
6.98057e-12
6.37504e-12
5.89225e-12
5.51737e-12
5.23591e-12
5.03385e-12
4.89768e-12
4.81453e-12
4.77221e-12
4.7593e-12
4.76527e-12
4.7805e-12
4.79641e-12
4.80549e-12
4.80138e-12
4.7789e-12
4.73407e-12
4.66414e-12
4.56753e-12
4.44381e-12
4.29361e-12
4.11852e-12
3.92098e-12
3.70409e-12
3.4715e-12
3.2272e-12
2.97538e-12
2.72024e-12
2.46585e-12
2.21601e-12
1.97413e-12
1.74314e-12
1.52548e-12
1.32299e-12
1.13695e-12
9.68129e-13
8.16753e-13
6.82627e-13
5.65168e-13
4.63492e-13
3.76485e-13
3.02874e-13
2.413e-13
1.90373e-13
1.48723e-13
1.1504e-13
8.81025e-14
6.67995e-14
5.01391e-14
3.72541e-14
2.73993e-14
1.99457e-14
1.43708e-14
1.02473e-14
7.23118e-15
5.04963e-15
3.48929e-15
2.38569e-15
1.61385e-15
1.08004e-15
7.1492e-16
4.67879e-16
3.0241e-16
1.92479e-16
1.19683e-16
7.10369e-17
3.7287e-17
1.15827e-17
1.15468e-14
3.48223e-14
5.86486e-14
8.34065e-14
1.09491e-13
1.37315e-13
1.67319e-13
1.9997e-13
2.35775e-13
2.75284e-13
3.19097e-13
3.67874e-13
4.22339e-13
4.83294e-13
5.51625e-13
6.28313e-13
7.14446e-13
8.11231e-13
9.20004e-13
1.04225e-12
1.17962e-12
1.33392e-12
1.50718e-12
1.70163e-12
1.91973e-12
2.16421e-12
2.43806e-12
2.74461e-12
3.08748e-12
3.47067e-12
3.89858e-12
4.376e-12
4.90819e-12
5.5009e-12
6.16038e-12
6.89346e-12
7.70753e-12
8.61064e-12
9.61149e-12
1.07195e-11
1.19447e-11
1.32981e-11
1.47915e-11
1.64372e-11
1.82488e-11
2.02405e-11
2.24275e-11
2.4826e-11
2.74529e-11
3.03262e-11
3.34647e-11
3.68883e-11
4.06175e-11
4.46736e-11
4.9079e-11
5.38564e-11
5.90292e-11
6.46214e-11
7.06573e-11
7.71613e-11
8.41581e-11
9.1672e-11
9.9727e-11
1.08347e-10
1.17554e-10
1.27371e-10
1.37817e-10
1.48911e-10
1.6067e-10
1.73109e-10
1.86239e-10
2.00069e-10
2.14605e-10
2.29849e-10
2.45798e-10
2.62448e-10
2.79786e-10
2.97797e-10
3.16461e-10
3.35751e-10
3.55635e-10
3.76077e-10
3.97034e-10
4.18456e-10
4.4029e-10
4.62475e-10
4.84947e-10
5.07635e-10
5.30464e-10
5.53354e-10
5.76222e-10
5.98981e-10
6.2154e-10
6.43808e-10
6.6569e-10
6.87094e-10
7.07924e-10
7.28087e-10
7.47491e-10
7.66046e-10
7.83666e-10
8.00269e-10
8.15778e-10
8.30119e-10
8.43228e-10
8.55044e-10
8.65516e-10
8.746e-10
8.82259e-10
8.88464e-10
8.93196e-10
8.96444e-10
8.98204e-10
8.98483e-10
8.97292e-10
8.94655e-10
8.906e-10
8.85161e-10
8.78383e-10
8.70312e-10
8.61003e-10
8.50513e-10
8.38905e-10
8.26245e-10
8.126e-10
7.98043e-10
7.82644e-10
7.66476e-10
7.49613e-10
7.32127e-10
7.1409e-10
6.95573e-10
6.76645e-10
6.57374e-10
6.37823e-10
6.18056e-10
5.98131e-10
5.78106e-10
5.58033e-10
5.37964e-10
5.17945e-10
4.98022e-10
4.78234e-10
4.58622e-10
4.3922e-10
4.20061e-10
4.01176e-10
3.82591e-10
3.64334e-10
3.46426e-10
3.2889e-10
3.11746e-10
2.9501e-10
2.787e-10
2.62829e-10
2.47413e-10
2.32463e-10
2.17989e-10
2.04003e-10
1.90513e-10
1.77526e-10
1.65049e-10
1.53088e-10
1.41647e-10
1.30729e-10
1.20335e-10
1.10467e-10
1.01124e-10
9.23023e-11
8.39995e-11
7.62098e-11
6.89266e-11
6.21414e-11
5.58444e-11
5.0024e-11
4.46674e-11
3.976e-11
3.52861e-11
3.12288e-11
2.75698e-11
2.42901e-11
2.13695e-11
1.87874e-11
1.65225e-11
1.45531e-11
1.28573e-11
1.1413e-11
1.01983e-11
9.19144e-12
8.371e-12
7.71595e-12
7.20586e-12
6.82091e-12
6.54206e-12
6.35111e-12
6.23079e-12
6.16487e-12
6.13824e-12
6.13699e-12
6.14853e-12
6.16165e-12
6.16658e-12
6.15509e-12
6.1205e-12
6.05771e-12
5.9632e-12
5.83499e-12
5.67257e-12
5.47678e-12
5.24969e-12
4.99443e-12
4.71499e-12
4.41604e-12
4.10268e-12
3.78022e-12
3.454e-12
3.12917e-12
2.81053e-12
2.50238e-12
2.20842e-12
1.93166e-12
1.6744e-12
1.43826e-12
1.22411e-12
1.03224e-12
8.62342e-13
7.13654e-13
5.85022e-13
4.7501e-13
3.81988e-13
3.04217e-13
2.39925e-13
1.87369e-13
1.44885e-13
1.10924e-13
8.40773e-14
6.30893e-14
4.68632e-14
3.44574e-14
2.50774e-14
1.80638e-14
1.28777e-14
9.08545e-15
6.34322e-15
4.38233e-15
2.99575e-15
2.0262e-15
1.35579e-15
8.97328e-16
5.87182e-16
3.79477e-16
2.41507e-16
1.50155e-16
8.91174e-17
4.67751e-17
1.45297e-17
2.09116e-14
6.30661e-14
1.06225e-13
1.51081e-13
1.98355e-13
2.48801e-13
3.03218e-13
3.62465e-13
4.27463e-13
4.99218e-13
5.78828e-13
6.67497e-13
7.66553e-13
8.77464e-13
1.00185e-12
1.14152e-12
1.29845e-12
1.47487e-12
1.67322e-12
1.89624e-12
2.14694e-12
2.42868e-12
2.74515e-12
3.10047e-12
3.49917e-12
3.94626e-12
4.44727e-12
5.0083e-12
5.63603e-12
6.33784e-12
7.12181e-12
7.99679e-12
8.97248e-12
1.00595e-11
1.12693e-11
1.26145e-11
1.41088e-11
1.5767e-11
1.7605e-11
1.96403e-11
2.18916e-11
2.43788e-11
2.71235e-11
3.0149e-11
3.34797e-11
3.7142e-11
4.11639e-11
4.55748e-11
5.04059e-11
5.56903e-11
6.14623e-11
6.77581e-11
7.46152e-11
8.20726e-11
9.01706e-11
9.89505e-11
1.08455e-10
1.18727e-10
1.2981e-10
1.41747e-10
1.54584e-10
1.68362e-10
1.83124e-10
1.98912e-10
2.15764e-10
2.33717e-10
2.52806e-10
2.73062e-10
2.94511e-10
3.17175e-10
3.41072e-10
3.66212e-10
3.92601e-10
4.20235e-10
4.49104e-10
4.7919e-10
5.10466e-10
5.42894e-10
5.76429e-10
6.11014e-10
6.46582e-10
6.83055e-10
7.20347e-10
7.58359e-10
7.96983e-10
8.36099e-10
8.75579e-10
9.15288e-10
9.55079e-10
9.94799e-10
1.03429e-09
1.07339e-09
1.11193e-09
1.14973e-09
1.18663e-09
1.22245e-09
1.25703e-09
1.29019e-09
1.32177e-09
1.35162e-09
1.37959e-09
1.40553e-09
1.42933e-09
1.45086e-09
1.47002e-09
1.48671e-09
1.50087e-09
1.51244e-09
1.52136e-09
1.52761e-09
1.53118e-09
1.53208e-09
1.53032e-09
1.52593e-09
1.51897e-09
1.5095e-09
1.4976e-09
1.48335e-09
1.46686e-09
1.44823e-09
1.42758e-09
1.40504e-09
1.38073e-09
1.35479e-09
1.32736e-09
1.29858e-09
1.26858e-09
1.2375e-09
1.20549e-09
1.17268e-09
1.13919e-09
1.10517e-09
1.07073e-09
1.03599e-09
1.00106e-09
9.66045e-10
9.3105e-10
8.96165e-10
8.61478e-10
8.27067e-10
7.93006e-10
7.59364e-10
7.26199e-10
6.93568e-10
6.6152e-10
6.301e-10
5.99345e-10
5.69292e-10
5.39969e-10
5.11404e-10
4.83618e-10
4.56632e-10
4.30461e-10
4.05119e-10
3.80618e-10
3.56965e-10
3.34168e-10
3.12232e-10
2.91159e-10
2.70951e-10
2.51609e-10
2.3313e-10
2.15511e-10
1.98748e-10
1.82835e-10
1.67763e-10
1.53524e-10
1.40108e-10
1.275e-10
1.15687e-10
1.04654e-10
9.43819e-11
8.48521e-11
7.60433e-11
6.79327e-11
6.0496e-11
5.37074e-11
4.75398e-11
4.19646e-11
3.69524e-11
3.24728e-11
2.84948e-11
2.49868e-11
2.19168e-11
1.92528e-11
1.6963e-11
1.50156e-11
1.33794e-11
1.20238e-11
1.09189e-11
1.00356e-11
9.34592e-12
8.82294e-12
8.44094e-12
8.17551e-12
8.00364e-12
7.90385e-12
7.85622e-12
7.84256e-12
7.84645e-12
7.85332e-12
7.85059e-12
7.82764e-12
7.77595e-12
7.68901e-12
7.56237e-12
7.39355e-12
7.18193e-12
6.92864e-12
6.63636e-12
6.30907e-12
5.95188e-12
5.57068e-12
5.17193e-12
4.76234e-12
4.34863e-12
3.93725e-12
3.53422e-12
3.1449e-12
2.77389e-12
2.42493e-12
2.10087e-12
1.80365e-12
1.53433e-12
1.2932e-12
1.07985e-12
8.93248e-13
7.31923e-13
5.94034e-13
4.77507e-13
3.80138e-13
2.99687e-13
2.33954e-13
1.80844e-13
1.38407e-13
1.04875e-13
7.86705e-14
5.84197e-14
4.29425e-14
3.12443e-14
2.25002e-14
1.60366e-14
1.13115e-14
7.8957e-15
5.45379e-15
3.7275e-15
2.52069e-15
1.68639e-15
1.11597e-15
7.30159e-16
4.71821e-16
3.00245e-16
1.86658e-16
1.10774e-16
5.81391e-17
1.80592e-17
3.73538e-14
1.12657e-13
1.89766e-13
2.69928e-13
3.54438e-13
4.44653e-13
5.42014e-13
6.48063e-13
7.64465e-13
8.93031e-13
1.03574e-12
1.19477e-12
1.37252e-12
1.57164e-12
1.79506e-12
2.04604e-12
2.32818e-12
2.64551e-12
3.00246e-12
3.40397e-12
3.85553e-12
4.3632e-12
4.93373e-12
5.57456e-12
6.29393e-12
7.10096e-12
8.00568e-12
9.01919e-12
1.01537e-11
1.14225e-11
1.28405e-11
1.44236e-11
1.61897e-11
1.81579e-11
2.03492e-11
2.27866e-11
2.5495e-11
2.85014e-11
3.18348e-11
3.55271e-11
3.96121e-11
4.41264e-11
4.91093e-11
5.46029e-11
6.0652e-11
6.73044e-11
7.46109e-11
8.26251e-11
9.14037e-11
1.01006e-10
1.11495e-10
1.22936e-10
1.35397e-10
1.48948e-10
1.63661e-10
1.79611e-10
1.96874e-10
2.15526e-10
2.35646e-10
2.57312e-10
2.80599e-10
3.05585e-10
3.32343e-10
3.60945e-10
3.91457e-10
4.23942e-10
4.58458e-10
4.95054e-10
5.33772e-10
5.74646e-10
6.17699e-10
6.62942e-10
7.10373e-10
7.59979e-10
8.1173e-10
8.65581e-10
9.21469e-10
9.79315e-10
1.03902e-09
1.10047e-09
1.16353e-09
1.22805e-09
1.29384e-09
1.36072e-09
1.42848e-09
1.49688e-09
1.56568e-09
1.63463e-09
1.70343e-09
1.77182e-09
1.83949e-09
1.90614e-09
1.97146e-09
2.03514e-09
2.09686e-09
2.15631e-09
2.2132e-09
2.26722e-09
2.3181e-09
2.36557e-09
2.40937e-09
2.44927e-09
2.48507e-09
2.51659e-09
2.54365e-09
2.56613e-09
2.58394e-09
2.59699e-09
2.60525e-09
2.60869e-09
2.60735e-09
2.60127e-09
2.59053e-09
2.57522e-09
2.55549e-09
2.53148e-09
2.50336e-09
2.47134e-09
2.43563e-09
2.39646e-09
2.35406e-09
2.30868e-09
2.26058e-09
2.21003e-09
2.15729e-09
2.10261e-09
2.04627e-09
1.98851e-09
1.92959e-09
1.86976e-09
1.80924e-09
1.74826e-09
1.68704e-09
1.62576e-09
1.56463e-09
1.50381e-09
1.44346e-09
1.38373e-09
1.32477e-09
1.26667e-09
1.20957e-09
1.15355e-09
1.09869e-09
1.04508e-09
9.92772e-10
9.41822e-10