/*--------------------------------*- C++ -*----------------------------------*\
| =========                 |                                                 |
| \\      /  F ield         | OpenFOAM: The Open Source CFD Toolbox           |
|  \\    /   O peration     | Version:  v2012                                 |
|   \\  /    A nd           | Website:  www.openfoam.com                      |
|    \\/     M anipulation  |                                                 |
\*---------------------------------------------------------------------------*/
FoamFile
{
    version     2.0;
    format      ascii;
    class       surfaceScalarField;
    location    "6";
    object      phi;
}
// * * * * * * * * * * * * * * * * * * * * * * * * * * * * * * * * * * * * * //

dimensions      [0 3 -1 0 0 0 0];
oriented        oriented;


internalField   nonuniform List<scalar> 
130560
(
3.66695e-06
-3.66695e-06
7.33377e-06
-3.66682e-06
1.10004e-05
-3.66658e-06
1.46666e-05
-3.66622e-06
1.83323e-05
-3.66573e-06
2.19974e-05
-3.66512e-06
2.56618e-05
-3.66438e-06
2.93253e-05
-3.6635e-06
3.29878e-05
-3.66248e-06
3.66491e-05
-3.66132e-06
4.03091e-05
-3.66001e-06
4.39676e-05
-3.65853e-06
4.76245e-05
-3.65689e-06
5.12796e-05
-3.65508e-06
5.49327e-05
-3.65308e-06
5.85836e-05
-3.65089e-06
6.22321e-05
-3.64849e-06
6.58779e-05
-3.64588e-06
6.9521e-05
-3.64304e-06
7.31609e-05
-3.63996e-06
7.67976e-05
-3.63663e-06
8.04306e-05
-3.63304e-06
8.40598e-05
-3.62916e-06
8.76848e-05
-3.62499e-06
9.13053e-05
-3.62051e-06
9.4921e-05
-3.61571e-06
9.85315e-05
-3.61056e-06
0.000102137
-3.60506e-06
0.000105736
-3.59918e-06
0.000109329
-3.59291e-06
0.000112915
-3.58622e-06
0.000116494
-3.57911e-06
0.000120066
-3.57155e-06
0.000123629
-3.56352e-06
0.000127184
-3.555e-06
0.00013073
-3.54598e-06
0.000134267
-3.53643e-06
0.000137793
-3.52633e-06
0.000141308
-3.51566e-06
0.000144813
-3.5044e-06
0.000148305
-3.49253e-06
0.000151785
-3.48004e-06
0.000155252
-3.46689e-06
0.000158705
-3.45307e-06
0.000162144
-3.43855e-06
0.000165567
-3.42332e-06
0.000168975
-3.40736e-06
0.000172365
-3.39065e-06
0.000175738
-3.37316e-06
0.000179093
-3.35487e-06
0.000182429
-3.33577e-06
0.000185745
-3.31584e-06
0.00018904
-3.29506e-06
0.000192313
-3.27341e-06
0.000195564
-3.25087e-06
0.000198792
-3.22744e-06
0.000201995
-3.20308e-06
0.000205173
-3.17778e-06
0.000208324
-3.15154e-06
0.000211448
-3.12434e-06
0.000214545
-3.09616e-06
0.000217612
-3.06699e-06
0.000220648
-3.03683e-06
0.000223654
-3.00566e-06
0.000226628
-2.97347e-06
0.000229568
-2.94026e-06
0.000232474
-2.90602e-06
0.000235345
-2.87075e-06
0.000238179
-2.83444e-06
0.000240976
-2.79709e-06
0.000243735
-2.75869e-06
0.000246454
-2.71926e-06
0.000249133
-2.67879e-06
0.00025177
-2.63728e-06
0.000254365
-2.59474e-06
0.000256916
-2.55117e-06
0.000259423
-2.5066e-06
0.000261884
-2.46101e-06
0.000264298
-2.41443e-06
0.000266665
-2.36686e-06
0.000268983
-2.31833e-06
0.000271252
-2.26884e-06
0.000273471
-2.21841e-06
0.000275638
-2.16707e-06
0.000277752
-2.11483e-06
0.000279814
-2.06171e-06
0.000281822
-2.00775e-06
0.000283775
-1.95295e-06
0.000285672
-1.89735e-06
0.000287513
-1.84097e-06
0.000289297
-1.78385e-06
0.000291023
-1.72601e-06
0.000292691
-1.66748e-06
0.000294299
-1.6083e-06
0.000295847
-1.54849e-06
0.000297335
-1.4881e-06
0.000298763
-1.42716e-06
0.000300128
-1.3657e-06
0.000301432
-1.30376e-06
0.000302673
-1.24137e-06
0.000303852
-1.17858e-06
0.000304967
-1.11543e-06
0.000306019
-1.05194e-06
0.000307008
-9.88172e-07
0.000307932
-9.2415e-07
0.000308792
-8.5992e-07
0.000309587
-7.9552e-07
0.000310318
-7.30991e-07
0.000310984
-6.66373e-07
0.000311586
-6.01705e-07
0.000312123
-5.37027e-07
0.000312596
-4.72379e-07
0.000313003
-4.07799e-07
0.000313347
-3.43326e-07
0.000313626
-2.78998e-07
0.000313841
-2.14853e-07
0.000313991
-1.50928e-07
0.000314079
-8.72585e-08
0.000314103
-2.38802e-08
0.000314063
3.91723e-08
0.000313962
1.01865e-07
0.000313797
1.64166e-07
0.000313571
2.26042e-07
0.000313284
2.87463e-07
0.000312936
3.484e-07
0.000312527
4.08822e-07
0.000312058
4.68704e-07
0.00031153
5.28018e-07
0.000310943
5.86739e-07
0.000310298
6.44843e-07
0.000309596
7.02307e-07
0.000308837
7.59109e-07
0.000308022
8.1523e-07
0.000307151
8.70649e-07
0.000306226
9.25349e-07
0.000305246
9.79314e-07
0.000304214
1.03253e-06
0.000303129
1.08497e-06
0.000301992
1.13664e-06
0.000300805
1.18752e-06
0.000299567
1.23759e-06
0.00029828
1.28686e-06
0.000296945
1.3353e-06
0.000295562
1.38292e-06
0.000294132
1.42971e-06
0.000292657
1.47565e-06
0.000291136
1.52076e-06
0.000289571
1.56502e-06
0.000287963
1.60843e-06
0.000286312
1.65099e-06
0.000284619
1.6927e-06
0.000282885
1.73356e-06
0.000281112
1.77358e-06
0.000279299
1.81274e-06
0.000277448
1.85107e-06
0.000275559
1.88856e-06
0.000273634
1.92521e-06
0.000271673
1.96103e-06
0.000269677
1.99603e-06
0.000267647
2.03021e-06
0.000265583
2.06358e-06
0.000263487
2.09614e-06
0.000261359
2.12791e-06
0.0002592
2.15889e-06
0.000257011
2.18909e-06
0.000254793
2.21852e-06
0.000252546
2.24719e-06
0.00025027
2.2751e-06
0.000247968
2.30228e-06
0.000245639
2.32872e-06
0.000243285
2.35444e-06
0.000240906
2.37946e-06
0.000238502
2.40377e-06
0.000236074
2.4274e-06
0.000233624
2.45035e-06
0.000231151
2.47263e-06
0.000228657
2.49426e-06
0.000226142
2.51525e-06
0.000223606
2.53561e-06
0.000221051
2.55535e-06
0.000218476
2.57449e-06
0.000215883
2.59303e-06
0.000213272
2.61099e-06
0.000210644
2.62837e-06
0.000207999
2.6452e-06
0.000205337
2.66148e-06
0.00020266
2.67723e-06
0.000199968
2.69245e-06
0.000197261
2.70716e-06
0.000194539
2.72136e-06
0.000191804
2.73508e-06
0.000189056
2.74833e-06
0.000186295
2.7611e-06
0.000183521
2.77343e-06
0.000180736
2.78531e-06
0.000177939
2.79675e-06
0.000175131
2.80778e-06
0.000172313
2.8184e-06
0.000169484
2.82861e-06
0.000166646
2.83844e-06
0.000163798
2.84789e-06
0.000160941
2.85697e-06
0.000158075
2.86569e-06
0.000155201
2.87407e-06
0.000152319
2.8821e-06
0.000149429
2.88981e-06
0.000146532
2.89721e-06
0.000143628
2.90429e-06
0.000140717
2.91107e-06
0.000137799
2.91756e-06
0.000134875
2.92378e-06
0.000131946
2.92972e-06
0.00012901
2.93539e-06
0.00012607
2.94081e-06
0.000123124
2.94599e-06
0.000120173
2.95092e-06
0.000117217
2.95563e-06
0.000114257
2.96011e-06
0.000111293
2.96438e-06
0.000108324
2.96845e-06
0.000105352
2.97231e-06
0.000102376
2.97598e-06
9.93963e-05
2.97946e-06
9.64135e-05
2.98277e-06
9.34276e-05
2.9859e-06
9.04388e-05
2.98887e-06
8.74471e-05
2.99168e-06
8.44527e-05
2.99434e-06
8.14559e-05
2.99685e-06
7.84567e-05
2.99922e-06
7.54552e-05
3.00145e-06
7.24517e-05
3.00355e-06
6.94461e-05
3.00553e-06
6.64388e-05
3.00739e-06
6.34296e-05
3.00913e-06
6.04189e-05
3.01076e-06
5.74066e-05
3.01228e-06
5.43929e-05
3.0137e-06
5.13779e-05
3.01503e-06
4.83616e-05
3.01626e-06
4.53442e-05
3.0174e-06
4.23258e-05
3.01845e-06
3.93063e-05
3.01941e-06
3.6286e-05
3.0203e-06
3.32649e-05
3.0211e-06
3.02431e-05
3.02183e-06
2.72206e-05
3.02249e-06
2.41975e-05
3.02307e-06
2.1174e-05
3.02359e-06
1.81499e-05
3.02403e-06
1.51255e-05
3.02441e-06
1.21008e-05
3.02473e-06
9.07581e-06
3.02498e-06
6.05064e-06
3.02517e-06
3.02535e-06
3.02529e-06
3.02535e-06
3.66706e-06
-7.334e-06
7.334e-06
-7.33376e-06
1.10007e-05
-7.33328e-06
1.4667e-05
-7.33256e-06
1.83329e-05
-7.33159e-06
2.19981e-05
-7.33037e-06
2.56627e-05
-7.32889e-06
2.93263e-05
-7.32714e-06
3.29889e-05
-7.32511e-06
3.66504e-05
-7.32279e-06
4.03106e-05
-7.32017e-06
4.39692e-05
-7.31723e-06
4.76263e-05
-7.31396e-06
5.12816e-05
-7.31033e-06
5.49348e-05
-7.30635e-06
5.85859e-05
-7.30197e-06
6.22346e-05
-7.29719e-06
6.58807e-05
-7.29198e-06
6.9524e-05
-7.28631e-06
7.31642e-05
-7.28017e-06
7.68011e-05
-7.27352e-06
8.04344e-05
-7.26635e-06
8.40639e-05
-7.25861e-06
8.76892e-05
-7.25029e-06
9.131e-05
-7.24135e-06
9.4926e-05
-7.23176e-06
9.8537e-05
-7.22148e-06
0.000102142
-7.21049e-06
0.000105742
-7.19875e-06
0.000109335
-7.18622e-06
0.000112922
-7.17288e-06
0.000116501
-7.15867e-06
0.000120073
-7.14356e-06
0.000123638
-7.12752e-06
0.000127193
-7.11051e-06
0.00013074
-7.09248e-06
0.000134276
-7.0734e-06
0.000137803
-7.05322e-06
0.00014132
-7.0319e-06
0.000144825
-7.00941e-06
0.000148318
-6.98569e-06
0.000151798
-6.96072e-06
0.000155266
-6.93444e-06
0.00015872
-6.90682e-06
0.000162159
-6.87781e-06
0.000165583
-6.84738e-06
0.000168991
-6.81548e-06
0.000172383
-6.78207e-06
0.000175757
-6.7471e-06
0.000179112
-6.71055e-06
0.000182449
-6.67238e-06
0.000185766
-6.63253e-06
0.000189061
-6.59099e-06
0.000192336
-6.54771e-06
0.000195588
-6.50265e-06
0.000198816
-6.45579e-06
0.00020202
-6.40709e-06
0.000205199
-6.35651e-06
0.000208351
-6.30405e-06
0.000211476
-6.24965e-06
0.000214574
-6.1933e-06
0.000217642
-6.13498e-06
0.000220679
-6.07467e-06
0.000223686
-6.01233e-06
0.000226661
-5.94797e-06
0.000229602
-5.88155e-06
0.000232509
-5.81308e-06
0.000235381
-5.74254e-06
0.000238216
-5.66991e-06
0.000241014
-5.59521e-06
0.000243774
-5.51842e-06
0.000246494
-5.43955e-06
0.000249174
-5.3586e-06
0.000251812
-5.27558e-06
0.000254408
-5.1905e-06
0.00025696
-5.10336e-06
0.000259468
-5.0142e-06
0.00026193
-4.92301e-06
0.000264345
-4.82984e-06
0.000266713
-4.73469e-06
0.000269033
-4.63761e-06
0.000271302
-4.53861e-06
0.000273522
-4.43774e-06
0.00027569
-4.33504e-06
0.000277805
-4.23054e-06
0.000279868
-4.12428e-06
0.000281876
-4.01632e-06
0.00028383
-3.9067e-06
0.000285728
-3.79547e-06
0.00028757
-3.68269e-06
0.000289355
-3.56841e-06
0.000291081
-3.4527e-06
0.000292749
-3.33561e-06
0.000294358
-3.21722e-06
0.000295907
-3.09757e-06
0.000297396
-2.97676e-06
0.000298824
-2.85483e-06
0.00030019
-2.73188e-06
0.000301494
-2.60796e-06
0.000302736
-2.48315e-06
0.000303915
-2.35753e-06
0.000305031
-2.23118e-06
0.000306083
-2.10418e-06
0.000307071
-1.97659e-06
0.000307996
-1.84851e-06
0.000308856
-1.72001e-06
0.000309651
-1.59117e-06
0.000310382
-1.46207e-06
0.000311049
-1.3328e-06
0.000311651
-1.20342e-06
0.000312188
-1.07403e-06
0.00031266
-9.4469e-07
0.000313068
-8.15492e-07
0.000313411
-6.86508e-07
0.00031369
-5.57815e-07
0.000313904
-4.29489e-07
0.000314055
-3.01602e-07
0.000314142
-1.74228e-07
0.000314165
-4.74364e-08
0.000314126
7.87023e-08
0.000314024
2.04121e-07
0.000313859
3.28754e-07
0.000313633
4.52537e-07
0.000313345
5.75409e-07
0.000312996
6.9731e-07
0.000312586
8.18183e-07
0.000312117
9.37973e-07
0.000311588
1.05663e-06
0.000311001
1.17409e-06
0.000310356
1.29032e-06
0.000309653
1.40527e-06
0.000308893
1.5189e-06
0.000308077
1.63116e-06
0.000307206
1.74201e-06
0.00030628
1.85143e-06
0.000305299
1.95938e-06
0.000304266
2.06582e-06
0.00030318
2.17072e-06
0.000302043
2.27407e-06
0.000300855
2.37584e-06
0.000299616
2.476e-06
0.000298329
2.57454e-06
0.000296992
2.67143e-06
0.000295609
2.76668e-06
0.000294178
2.86025e-06
0.000292702
2.95215e-06
0.00029118
3.04236e-06
0.000289614
3.13088e-06
0.000288005
3.2177e-06
0.000286353
3.30282e-06
0.00028466
3.38624e-06
0.000282925
3.46797e-06
0.000281151
3.54799e-06
0.000279337
3.62633e-06
0.000277485
3.70298e-06
0.000275596
3.77795e-06
0.00027367
3.85125e-06
0.000271708
3.92288e-06
0.000269711
3.99287e-06
0.00026768
4.06123e-06
0.000265616
4.12796e-06
0.000263519
4.19308e-06
0.00026139
4.2566e-06
0.00025923
4.31855e-06
0.000257041
4.37894e-06
0.000254821
4.43779e-06
0.000252573
4.49512e-06
0.000250298
4.55094e-06
0.000247995
4.60528e-06
0.000245665
4.65816e-06
0.00024331
4.70959e-06
0.00024093
4.75961e-06
0.000238525
4.80823e-06
0.000236097
4.85547e-06
0.000233646
4.90136e-06
0.000231173
4.94592e-06
0.000228678
4.98917e-06
0.000226162
5.03114e-06
0.000223626
5.07184e-06
0.00022107
5.11131e-06
0.000218495
5.14957e-06
0.000215901
5.18664e-06
0.00021329
5.22254e-06
0.000210661
5.2573e-06
0.000208015
5.29095e-06
0.000205353
5.32349e-06
0.000202675
5.35497e-06
0.000199982
5.3854e-06
0.000197275
5.41481e-06
0.000194553
5.44322e-06
0.000191817
5.47064e-06
0.000189068
5.49712e-06
0.000186307
5.52266e-06
0.000183533
5.5473e-06
0.000180747
5.57104e-06
0.00017795
5.59393e-06
0.000175142
5.61597e-06
0.000172323
5.63719e-06
0.000169494
5.65761e-06
0.000166655
5.67726e-06
0.000163807
5.69614e-06
0.00016095
5.71429e-06
0.000158084
5.73173e-06
0.000155209
5.74847e-06
0.000152327
5.76454e-06
0.000149437
5.77995e-06
0.000146539
5.79472e-06
0.000143635
5.80888e-06
0.000140723
5.82243e-06
0.000137805
5.83541e-06
0.000134881
5.84782e-06
0.000131951
5.8597e-06
0.000129016
5.87104e-06
0.000126075
5.88187e-06
0.000123129
5.89221e-06
0.000120177
5.90208e-06
0.000117221
5.91148e-06
0.000114261
5.92044e-06
0.000111297
5.92897e-06
0.000108328
5.93709e-06
0.000105355
5.94481e-06
0.000102379
5.95214e-06
9.93996e-05
5.9591e-06
9.64167e-05
5.96571e-06
9.34306e-05
5.97197e-06
9.04416e-05
5.9779e-06
8.74497e-05
5.98352e-06
8.44553e-05
5.98883e-06
8.14583e-05
5.99384e-06
7.84589e-05
5.99857e-06
7.54573e-05
6.00303e-06
7.24537e-05
6.00723e-06
6.9448e-05
6.01118e-06
6.64405e-05
6.01489e-06
6.34313e-05
6.01837e-06
6.04204e-05
6.02162e-06
5.7408e-05
6.02467e-06
5.43942e-05
6.02751e-06
5.13791e-05
6.03015e-06
4.83627e-05
6.03261e-06
4.53453e-05
6.03488e-06
4.23267e-05
6.03698e-06
3.93072e-05
6.03891e-06
3.62869e-05
6.04067e-06
3.32657e-05
6.04228e-06
3.02438e-05
6.04374e-06
2.72212e-05
6.04505e-06
2.41981e-05
6.04622e-06
2.11744e-05
6.04724e-06
1.81503e-05
6.04813e-06
1.51258e-05
6.04889e-06
1.2101e-05
6.04952e-06
9.07599e-06
6.05002e-06
6.05077e-06
6.05039e-06
3.02541e-06
6.05064e-06
6.05076e-06
3.6673e-06
-1.10013e-05
7.33448e-06
-1.10009e-05
1.10014e-05
-1.10002e-05
1.4668e-05
-1.09992e-05
1.83341e-05
-1.09977e-05
2.19996e-05
-1.09959e-05
2.56644e-05
-1.09937e-05
2.93283e-05
-1.09911e-05
3.29913e-05
-1.0988e-05
3.6653e-05
-1.09846e-05
4.03135e-05
-1.09806e-05
4.39725e-05
-1.09763e-05
4.763e-05
-1.09714e-05
5.12856e-05
-1.0966e-05
5.49392e-05
-1.096e-05
5.85907e-05
-1.09535e-05
6.22399e-05
-1.09463e-05
6.58864e-05
-1.09385e-05
6.95302e-05
-1.09301e-05
7.31709e-05
-1.09209e-05
7.68083e-05
-1.09109e-05
8.04422e-05
-1.09002e-05
8.40722e-05
-1.08887e-05
8.76981e-05
-1.08762e-05
9.13196e-05
-1.08628e-05
9.49364e-05
-1.08485e-05
9.8548e-05
-1.08331e-05
0.000102154
-1.08167e-05
0.000105755
-1.07991e-05
0.000109349
-1.07804e-05
0.000112936
-1.07604e-05
0.000116517
-1.07391e-05
0.00012009
-1.07165e-05
0.000123655
-1.06925e-05
0.000127211
-1.0667e-05
0.000130759
-1.064e-05
0.000134297
-1.06115e-05
0.000137825
-1.05812e-05
0.000141342
-1.05493e-05
0.000144848
-1.05156e-05
0.000148343
-1.04801e-05
0.000151825
-1.04427e-05
0.000155294
-1.04033e-05
0.000158749
-1.0362e-05
0.00016219
-1.03185e-05
0.000165615
-1.02729e-05
0.000169025
-1.02251e-05
0.000172418
-1.0175e-05
0.000175793
-1.01226e-05
0.000179151
-1.00679e-05
0.000182489
-1.00106e-05
0.000185807
-9.95093e-06
0.000189105
-9.88866e-06
0.000192381
-9.82378e-06
0.000195635
-9.75623e-06
0.000198865
-9.68598e-06
0.000202071
-9.61296e-06
0.000205251
-9.53714e-06
0.000208406
-9.45848e-06
0.000211533
-9.37691e-06
0.000214632
-9.29243e-06
0.000217702
-9.20497e-06
0.000220742
-9.11452e-06
0.000223751
-9.02104e-06
0.000226727
-8.92451e-06
0.00022967
-8.82491e-06
0.00023258
-8.72221e-06
0.000235453
-8.6164e-06
0.000238291
-8.50747e-06
0.000241091
-8.39542e-06
0.000243853
-8.28024e-06
0.000246575
-8.16193e-06
0.000249257
-8.0405e-06
0.000251898
-7.91595e-06
0.000254495
-7.78831e-06
0.00025705
-7.65759e-06
0.000259559
-7.52381e-06
0.000262023
-7.38701e-06
0.000264441
-7.24721e-06
0.00026681
-7.10446e-06
0.000269132
-6.95879e-06
0.000271403
-6.81026e-06
0.000273624
-6.65891e-06
0.000275794
-6.5048e-06
0.000277912
-6.348e-06
0.000279976
-6.18856e-06
0.000281986
-6.02655e-06
0.000283942
-5.86205e-06
0.000285841
-5.69514e-06
0.000287684
-5.5259e-06
0.00028947
-5.35441e-06
0.000291199
-5.18077e-06
0.000292868
-5.00506e-06
0.000294478
-4.82738e-06
0.000296028
-4.64783e-06
0.000297518
-4.46652e-06
0.000298947
-4.28354e-06
0.000300314
-4.09902e-06
0.000301619
-3.91304e-06
0.000302862
-3.72574e-06
0.000304041
-3.53722e-06
0.000305158
-3.3476e-06
0.000306211
-3.15699e-06
0.0003072
-2.96551e-06
0.000308124
-2.77329e-06
0.000308985
-2.58044e-06
0.000309781
-2.38708e-06
0.000310512
-2.19333e-06
0.000311178
-1.99932e-06
0.00031178
-1.80516e-06
0.000312317
-1.61096e-06
0.000312789
-1.41686e-06
0.000313197
-1.22297e-06
0.00031354
-1.0294e-06
0.000313818
-8.36266e-07
0.000314032
-6.43684e-07
0.000314182
-4.51763e-07
0.000314269
-2.60613e-07
0.000314292
-7.03391e-08
0.000314251
1.18953e-07
0.000314148
3.07163e-07
0.000313983
4.94192e-07
0.000313756
6.79944e-07
0.000313467
8.64327e-07
0.000313117
1.04725e-06
0.000312706
1.22863e-06
0.000312236
1.40838e-06
0.000311706
1.58642e-06
0.000311117
1.76268e-06
0.000310471
1.93708e-06
0.000309766
2.10956e-06
0.000309005
2.28005e-06
0.000308188
2.44849e-06
0.000307315
2.61482e-06
0.000306388
2.77899e-06
0.000305406
2.94094e-06
0.000304371
3.10064e-06
0.000303284
3.25803e-06
0.000302145
3.41308e-06
0.000300955
3.56576e-06
0.000299715
3.71603e-06
0.000298426
3.86385e-06
0.000297088
4.00922e-06
0.000295702
4.1521e-06
0.00029427
4.29247e-06
0.000292792
4.43033e-06
0.000291269
4.56565e-06
0.000289701
4.69844e-06
0.00028809
4.82867e-06
0.000286437
4.95636e-06
0.000284741
5.08149e-06
0.000283005
5.20407e-06
0.000281229
5.32411e-06
0.000279414
5.4416e-06
0.00027756
5.55657e-06
0.000275669
5.66901e-06
0.000273742
5.77894e-06
0.000271778
5.88639e-06
0.00026978
5.99136e-06
0.000267747
6.09387e-06
0.000265681
6.19394e-06
0.000263582
6.2916e-06
0.000261452
6.38687e-06
0.000259291
6.47978e-06
0.000257099
6.57034e-06
0.000254879
6.65859e-06
0.000252629
6.74456e-06
0.000250352
6.82827e-06
0.000248047
6.90975e-06
0.000245717
6.98904e-06
0.00024336
7.06617e-06
0.000240978
7.14116e-06
0.000238573
7.21406e-06
0.000236143
7.2849e-06
0.000233691
7.3537e-06
0.000231216
7.42051e-06
0.00022872
7.48536e-06
0.000226203
7.54828e-06
0.000223665
7.60931e-06
0.000221108
7.66849e-06
0.000218532
7.72584e-06
0.000215937
7.78142e-06
0.000213325
7.83524e-06
0.000210694
7.88735e-06
0.000208048
7.93779e-06
0.000205385
7.98658e-06
0.000202706
8.03377e-06
0.000200012
8.07938e-06
0.000197303
8.12346e-06
0.00019458
8.16604e-06
0.000191844
8.20716e-06
0.000189094
8.24684e-06
0.000186332
8.28513e-06
0.000183557
8.32205e-06
0.00018077
8.35765e-06
0.000177972
8.39194e-06
0.000175163
8.42498e-06
0.000172344
8.45678e-06
0.000169514
8.48739e-06
0.000166674
8.51683e-06
0.000163825
8.54513e-06
0.000160967
8.57234e-06
0.0001581
8.59847e-06
0.000155225
8.62355e-06
0.000152342
8.64762e-06
0.000149452
8.67072e-06
0.000146553
8.69285e-06
0.000143648
8.71406e-06
0.000140736
8.73437e-06
0.000137818
8.75382e-06
0.000134893
8.77242e-06
0.000131963
8.7902e-06
0.000129027
8.8072e-06
0.000126085
8.82343e-06
0.000123138
8.83892e-06
0.000120187
8.85369e-06
0.00011723
8.86778e-06
0.00011427
8.8812e-06
0.000111305
8.89398e-06
0.000108336
8.90614e-06
0.000105363
8.91769e-06
0.000102386
8.92868e-06
9.94062e-05
8.9391e-06
9.6423e-05
8.949e-06
9.34366e-05
8.95837e-06
9.04472e-05
8.96725e-06
8.74551e-05
8.97566e-06
8.44603e-05
8.98361e-06
8.1463e-05
8.99111e-06
7.84634e-05
8.9982e-06
7.54615e-05
9.00487e-06
7.24576e-05
9.01116e-06
6.94517e-05
9.01707e-06
6.6444e-05
9.02262e-06
6.34345e-05
9.02783e-06
6.04234e-05
9.0327e-06
5.74109e-05
9.03726e-06
5.43969e-05
9.04151e-06
5.13815e-05
9.04546e-06
4.8365e-05
9.04914e-06
4.53474e-05
9.05254e-06
4.23287e-05
9.05568e-06
3.9309e-05
9.05856e-06
3.62885e-05
9.06121e-06
3.32671e-05
9.06361e-06
3.02451e-05
9.06579e-06
2.72224e-05
9.06775e-06
2.41991e-05
9.0695e-06
2.11753e-05
9.07104e-06
1.81511e-05
9.07237e-06
1.51265e-05
9.0735e-06
1.21015e-05
9.07444e-06
9.07637e-06
9.07519e-06
6.05101e-06
9.07575e-06
3.02554e-06
9.07612e-06
9.0763e-06
3.66766e-06
-1.4669e-05
7.3352e-06
-1.46685e-05
1.10025e-05
-1.46675e-05
1.46695e-05
-1.46661e-05
1.8336e-05
-1.46642e-05
2.20019e-05
-1.46618e-05
2.56671e-05
-1.46589e-05
2.93314e-05
-1.46554e-05
3.29948e-05
-1.46514e-05
3.6657e-05
-1.46468e-05
4.03179e-05
-1.46416e-05
4.39775e-05
-1.46358e-05
4.76354e-05
-1.46293e-05
5.12916e-05
-1.46221e-05
5.49458e-05
-1.46142e-05
5.85979e-05
-1.46056e-05
6.22477e-05
-1.45961e-05
6.5895e-05
-1.45858e-05
6.95394e-05
-1.45745e-05
7.31809e-05
-1.45624e-05
7.68191e-05
-1.45492e-05
8.04538e-05
-1.45349e-05
8.40848e-05
-1.45196e-05
8.77116e-05
-1.45031e-05
9.13341e-05
-1.44853e-05
9.49518e-05
-1.44662e-05
9.85645e-05
-1.44458e-05
0.000102172
-1.4424e-05
0.000105773
-1.44006e-05
0.000109369
-1.43757e-05
0.000112958
-1.43492e-05
0.000116539
-1.43209e-05
0.000120114
-1.42909e-05
0.00012368
-1.42589e-05
0.000127238
-1.42251e-05
0.000130787
-1.41892e-05
0.000134327
-1.41512e-05
0.000137857
-1.4111e-05
0.000141376
-1.40685e-05
0.000144884
-1.40237e-05
0.00014838
-1.39764e-05
0.000151864
-1.39267e-05
0.000155335
-1.38743e-05
0.000158792
-1.38192e-05
0.000162235
-1.37613e-05
0.000165663
-1.37006e-05
0.000169075
-1.3637e-05
0.00017247
-1.35703e-05
0.000175848
-1.35006e-05
0.000179208
-1.34276e-05
0.000182549
-1.33514e-05
0.00018587
-1.32719e-05
0.00018917
-1.31889e-05
0.000192449
-1.31025e-05
0.000195705
-1.30125e-05
0.000198938
-1.29189e-05
0.000202147
-1.28217e-05
0.00020533
-1.27206e-05
0.000208487
-1.26158e-05
0.000211618
-1.25071e-05
0.00021472
-1.23945e-05
0.000217793
-1.2278e-05
0.000220836
-1.21574e-05
0.000223847
-1.20328e-05
0.000226827
-1.19041e-05
0.000229773
-1.17714e-05
0.000232686
-1.16344e-05
0.000235563
-1.14934e-05
0.000238403
-1.13482e-05
0.000241207
-1.11988e-05
0.000243972
-1.10452e-05
0.000246697
-1.08874e-05
0.000249382
-1.07255e-05
0.000252026
-1.05594e-05
0.000254626
-1.03892e-05
0.000257184
-1.02149e-05
0.000259696
-1.00365e-05
0.000262163
-9.854e-06
0.000264584
-9.66755e-06
0.000266956
-9.47715e-06
0.00026928
-9.28285e-06
0.000271555
-9.08473e-06
0.000273779
-8.88284e-06
0.000275951
-8.67727e-06
0.000278071
-8.46809e-06
0.000280138
-8.2554e-06
0.000282151
-8.03927e-06
0.000284109
-7.81982e-06
0.000286011
-7.59715e-06
0.000287856
-7.37136e-06
0.000289644
-7.14257e-06
0.000291374
-6.9109e-06
0.000293046
-6.67647e-06
0.000294658
-6.43941e-06
0.00029621
-6.19986e-06
0.000297701
-5.95794e-06
0.000299132
-5.71381e-06
0.0003005
-5.4676e-06
0.000301807
-5.21946e-06
0.00030305
-4.96955e-06
0.000304231
-4.71801e-06
0.000305349
-4.46499e-06
0.000306402
-4.21066e-06
0.000307392
-3.95518e-06
0.000308317
-3.6987e-06
0.000309178
-3.44137e-06
0.000309975
-3.18337e-06
0.000310706
-2.92486e-06
0.000311373
-2.66599e-06
0.000311975
-2.40692e-06
0.000312511
-2.14781e-06
0.000312983
-1.88883e-06
0.000313391
-1.63012e-06
0.000313733
-1.37185e-06
0.000314011
-1.11416e-06
0.000314224
-8.57216e-07
0.000314374
-6.01152e-07
0.000314459
-3.46119e-07
0.000314481
-9.22596e-08
0.00031444
1.60288e-07
0.000314336
4.11388e-07
0.000314169
6.60909e-07
0.00031394
9.08723e-07
0.00031365
1.15471e-06
0.000313298
1.39874e-06
0.000312886
1.6407e-06
0.000312414
1.8805e-06
0.000311883
2.118e-06
0.000311292
2.35313e-06
0.000310643
2.58577e-06
0.000309937
2.81585e-06
0.000309174
3.04326e-06
0.000308354
3.26793e-06
0.000307479
3.48979e-06
0.00030655
3.70876e-06
0.000305566
3.92477e-06
0.000304529
4.13777e-06
0.000303439
4.34769e-06
0.000302298
4.55448e-06
0.000301105
4.75809e-06
0.000299863
4.95849e-06
0.000298571
5.15564e-06
0.000297231
5.34949e-06
0.000295843
5.54003e-06
0.000294408
5.72722e-06
0.000292927
5.91105e-06
0.000291402
6.09149e-06
0.000289831
6.26855e-06
0.000288218
6.4422e-06
0.000286562
6.61245e-06
0.000284864
6.77929e-06
0.000283125
6.94273e-06
0.000281347
7.10276e-06
0.000279529
7.25941e-06
0.000277673
7.41268e-06
0.000275779
7.56258e-06
0.000273849
7.70914e-06
0.000271883
7.85237e-06
0.000269882
7.9923e-06
0.000267847
8.12895e-06
0.000265779
8.26235e-06
0.000263678
8.39253e-06
0.000261545
8.51952e-06
0.000259382
8.64335e-06
0.000257188
8.76406e-06
0.000254965
8.88168e-06
0.000252713
8.99625e-06
0.000250433
9.10782e-06
0.000248127
9.21642e-06
0.000245794
9.32209e-06
0.000243435
9.42487e-06
0.000241051
9.52482e-06
0.000238644
9.62196e-06
0.000236212
9.71635e-06
0.000233758
9.80804e-06
0.000231281
9.89706e-06
0.000228783
9.98347e-06
0.000226264
1.00673e-05
0.000223725
1.01486e-05
0.000221166
1.02275e-05
0.000218588
1.03039e-05
0.000215991
1.03779e-05
0.000213377
1.04497e-05
0.000210745
1.05191e-05
0.000208096
1.05863e-05
0.000205432
1.06513e-05
0.000202751
1.07141e-05
0.000200056
1.07749e-05
0.000197346
1.08336e-05
0.000194621
1.08903e-05
0.000191884
1.09451e-05
0.000189132
1.0998e-05
0.000186369
1.1049e-05
0.000183592
1.10981e-05
0.000180805
1.11455e-05
0.000178005
1.11912e-05
0.000175195
1.12352e-05
0.000172374
1.12776e-05
0.000169543
1.13183e-05
0.000166703
1.13575e-05
0.000163852
1.13952e-05
0.000160993
1.14315e-05
0.000158126
1.14662e-05
0.00015525
1.14996e-05
0.000152365
1.15317e-05
0.000149474
1.15624e-05
0.000146575
1.15919e-05
0.000143669
1.16201e-05
0.000140756
1.16472e-05
0.000137837
1.16731e-05
0.000134911
1.16978e-05
0.00013198
1.17215e-05
0.000129043
1.17441e-05
0.000126101
1.17657e-05
0.000123153
1.17863e-05
0.000120201
1.1806e-05
0.000117244
1.18247e-05
0.000114282
1.18426e-05
0.000111317
1.18596e-05
0.000108347
1.18758e-05
0.000105374
1.18912e-05
0.000102397
1.19058e-05
9.94161e-05
1.19196e-05
9.64323e-05
1.19328e-05
9.34454e-05
1.19453e-05
9.04556e-05
1.19571e-05
8.7463e-05
1.19683e-05
8.44678e-05
1.19788e-05
8.14701e-05
1.19888e-05
7.84701e-05
1.19982e-05
7.54678e-05
1.20071e-05
7.24635e-05
1.20155e-05
6.94573e-05
1.20233e-05
6.64492e-05
1.20307e-05
6.34394e-05
1.20376e-05
6.0428e-05
1.20441e-05
5.74151e-05
1.20502e-05
5.44008e-05
1.20558e-05
5.13852e-05
1.20611e-05
4.83684e-05
1.20659e-05
4.53505e-05
1.20705e-05
4.23315e-05
1.20746e-05
3.93116e-05
1.20785e-05
3.62909e-05
1.2082e-05
3.32693e-05
1.20852e-05
3.0247e-05
1.20881e-05
2.72241e-05
1.20907e-05
2.42006e-05
1.2093e-05
2.11766e-05
1.2095e-05
1.81522e-05
1.20968e-05
1.51274e-05
1.20983e-05
1.21023e-05
1.20996e-05
9.07693e-06
1.21005e-05
6.05139e-06
1.21013e-05
3.02572e-06
1.21018e-05
1.2102e-05
3.66814e-06
-1.83371e-05
7.33616e-06
-1.83365e-05
1.1004e-05
-1.83353e-05
1.46714e-05
-1.83336e-05
1.83384e-05
-1.83312e-05
2.20048e-05
-1.83282e-05
2.56706e-05
-1.83246e-05
2.93354e-05
-1.83203e-05
3.29994e-05
-1.83153e-05
3.66622e-05
-1.83096e-05
4.03238e-05
-1.83032e-05
4.3984e-05
-1.8296e-05
4.76426e-05
-1.82879e-05
5.12995e-05
-1.82791e-05
5.49546e-05
-1.82693e-05
5.86075e-05
-1.82585e-05
6.22581e-05
-1.82467e-05
6.59062e-05
-1.82339e-05
6.95517e-05
-1.822e-05
7.31942e-05
-1.82048e-05
7.68334e-05
-1.81885e-05
8.04693e-05
-1.81708e-05
8.41014e-05
-1.81517e-05
8.77294e-05
-1.81311e-05
9.13532e-05
-1.81091e-05
9.49723e-05
-1.80854e-05
9.85865e-05
-1.806e-05
0.000102195
-1.80328e-05
0.000105798
-1.80038e-05
0.000109395
-1.79728e-05
0.000112986
-1.79397e-05
0.00011657
-1.79045e-05
0.000120146
-1.78671e-05
0.000123714
-1.78273e-05
0.000127274
-1.77852e-05
0.000130825
-1.77404e-05
0.000134367
-1.76931e-05
0.000137899
-1.7643e-05
0.000141421
-1.75901e-05
0.000144931
-1.75342e-05
0.00014843
-1.74753e-05
0.000151917
-1.74132e-05
0.00015539
-1.73479e-05
0.00015885
-1.72792e-05
0.000162296
-1.7207e-05
0.000165727
-1.71313e-05
0.000169142
-1.70519e-05
0.00017254
-1.69687e-05
0.000175921
-1.68817e-05
0.000179284
-1.67906e-05
0.000182628
-1.66955e-05
0.000185953
-1.65962e-05
0.000189257
-1.64927e-05
0.000192539
-1.63848e-05
0.000195799
-1.62724e-05
0.000199035
-1.61556e-05
0.000202248
-1.60341e-05
0.000205435
-1.59079e-05
0.000208596
-1.5777e-05
0.00021173
-1.56412e-05
0.000214836
-1.55006e-05
0.000217913
-1.53549e-05
0.00022096
-1.52043e-05
0.000223976
-1.50486e-05
0.00022696
-1.48879e-05
0.00022991
-1.47219e-05
0.000232827
-1.45508e-05
0.000235708
-1.43745e-05
0.000238553
-1.4193e-05
0.00024136
-1.40063e-05
0.00024413
-1.38143e-05
0.000246859
-1.36171e-05
0.000249548
-1.34147e-05
0.000252196
-1.3207e-05
0.000254801
-1.29942e-05
0.000257362
-1.27762e-05
0.000259879
-1.25531e-05
0.00026235
-1.2325e-05
0.000264774
-1.20918e-05
0.000267151
-1.18537e-05
0.000269479
-1.16107e-05
0.000271757
-1.1363e-05
0.000273985
-1.11105e-05
0.000276161
-1.08533e-05
0.000278284
-1.05917e-05
0.000280355
-1.03257e-05
0.000282371
-1.00553e-05
0.000284332
-9.78082e-06
0.000286237
-9.50227e-06
0.000288085
-9.21982e-06
0.000289876
-8.93361e-06
0.000291609
-8.64379e-06
0.000293283
-8.35051e-06
0.000294898
-8.05394e-06
0.000296452
-7.75424e-06
0.000297946
-7.45158e-06
0.000299378
-7.14615e-06
0.000300749
-6.83811e-06
0.000302057
-6.52766e-06
0.000303302
-6.21498e-06
0.000304484
-5.90026e-06
0.000305603
-5.5837e-06
0.000306658
-5.2655e-06
0.000307649
-4.94584e-06
0.000308575
-4.62494e-06
0.000309437
-4.30299e-06
0.000310233
-3.98019e-06
0.000310965
-3.65674e-06
0.000311632
-3.33285e-06
0.000312234
-3.00872e-06
0.000312771
-2.68454e-06
0.000313242
-2.36051e-06
0.000313649
-2.03684e-06
0.000313991
-1.71371e-06
0.000314268
-1.39132e-06
0.000314481
-1.06986e-06
0.000314629
-7.49509e-07
0.000314713
-4.30452e-07
0.000314734
-1.12867e-07
0.000314691
2.03072e-07
0.000314585
5.17194e-07
0.000314417
8.29335e-07
0.000314186
1.13933e-06
0.000313894
1.44704e-06
0.00031354
1.75229e-06
0.000313126
2.05496e-06
0.000312652
2.3549e-06
0.000312118
2.65197e-06
0.000311525
2.94606e-06
0.000310874
3.23704e-06
0.000310165
3.52479e-06
0.000309399
3.80921e-06
0.000308576
4.0902e-06
0.000307699
4.36765e-06
0.000306766
4.64149e-06
0.000305779
4.91162e-06
0.000304739
5.17797e-06
0.000303646
5.44047e-06
0.000302501
5.69905e-06
0.000301306
5.95365e-06
0.00030006
6.20422e-06
0.000298765
6.45071e-06
0.000297422
6.69308e-06
0.00029603
6.9313e-06
0.000294592
7.16533e-06
0.000293108
7.39514e-06
0.000291579
7.62073e-06
0.000290005
7.84206e-06
0.000288388
8.05914e-06
0.000286729
8.27195e-06
0.000285028
8.4805e-06
0.000283286
8.68478e-06
0.000281504
8.88481e-06
0.000279682
9.08059e-06
0.000277823
9.27215e-06
0.000275926
9.4595e-06
0.000273992
9.64266e-06
0.000272023
9.82166e-06
0.000270019
9.99652e-06
0.000267981
1.01673e-05
0.000265909
1.0334e-05
0.000263805
1.04966e-05
0.000261669
1.06553e-05
0.000259502
1.081e-05
0.000257306
1.09609e-05
0.000255079
1.11078e-05
0.000252825
1.1251e-05
0.000250542
1.13903e-05
0.000248233
1.1526e-05
0.000245897
1.1658e-05
0.000243535
1.17864e-05
0.000241149
1.19113e-05
0.000238738
1.20326e-05
0.000236304
1.21505e-05
0.000233847
1.2265e-05
0.000231368
1.23762e-05
0.000228867
1.24842e-05