/*--------------------------------*- C++ -*----------------------------------*\
| =========                 |                                                 |
| \\      /  F ield         | OpenFOAM: The Open Source CFD Toolbox           |
|  \\    /   O peration     | Version:  v2012                                 |
|   \\  /    A nd           | Website:  www.openfoam.com                      |
|    \\/     M anipulation  |                                                 |
\*---------------------------------------------------------------------------*/
FoamFile
{
    version     2.0;
    format      ascii;
    class       volScalarField;
    location    "6";
    object      Psi_z;
}
// * * * * * * * * * * * * * * * * * * * * * * * * * * * * * * * * * * * * * //

dimensions      [0 2 -1 0 0 0 0];


internalField   nonuniform List<scalar> 
65536
(
9.17587e-06
2.75273e-05
4.58778e-05
6.42268e-05
8.25738e-05
0.000100918
0.000119259
0.000137596
0.000155929
0.000174256
0.000192578
0.000210892
0.000229199
0.000247498
0.000265787
0.000284066
0.000302334
0.00032059
0.000338833
0.000357061
0.000375273
0.000393469
0.000411646
0.000429804
0.00044794
0.000466054
0.000484143
0.000502206
0.000520241
0.000538247
0.00055622
0.00057416
0.000592063
0.000609928
0.000627752
0.000645532
0.000663267
0.000680953
0.000698588
0.000716169
0.000733692
0.000751155
0.000768555
0.000785887
0.00080315
0.000820338
0.000837449
0.000854479
0.000871424
0.00088828
0.000905042
0.000921708
0.000938273
0.000954732
0.00097108
0.000987315
0.00100343
0.00101942
0.00103528
0.00105101
0.0010666
0.00108205
0.00109735
0.0011125
0.00112749
0.00114231
0.00115697
0.00117145
0.00118576
0.00119988
0.00121381
0.00122754
0.00124108
0.00125441
0.00126753
0.00128043
0.00129311
0.00130557
0.0013178
0.00132979
0.00134154
0.00135304
0.0013643
0.0013753
0.00138604
0.00139651
0.00140672
0.00141665
0.00142631
0.00143568
0.00144477
0.00145357
0.00146208
0.0014703
0.00147821
0.00148583
0.00149314
0.00150014
0.00150683
0.00151321
0.00151928
0.00152503
0.00153046
0.00153557
0.00154036
0.00154483
0.00154898
0.0015528
0.00155629
0.00155947
0.00156231
0.00156483
0.00156703
0.00156891
0.00157045
0.00157168
0.00157259
0.00157317
0.00157344
0.00157338
0.00157301
0.00157233
0.00157134
0.00157003
0.00156842
0.00156651
0.00156429
0.00156177
0.00155896
0.00155585
0.00155245
0.00154876
0.0015448
0.00154055
0.00153602
0.00153123
0.00152616
0.00152083
0.00151523
0.00150938
0.00150328
0.00149693
0.00149033
0.00148349
0.00147642
0.00146911
0.00146158
0.00145382
0.00144584
0.00143764
0.00142924
0.00142063
0.00141181
0.0014028
0.00139359
0.0013842
0.00137461
0.00136485
0.00135491
0.0013448
0.00133452
0.00132407
0.00131347
0.0013027
0.00129179
0.00128072
0.00126951
0.00125816
0.00124668
0.00123505
0.0012233
0.00121143
0.00119943
0.00118731
0.00117507
0.00116272
0.00115027
0.0011377
0.00112504
0.00111227
0.00109941
0.00108646
0.00107341
0.00106028
0.00104706
0.00103376
0.00102039
0.00100693
0.000993403
0.000979803
0.000966133
0.000952398
0.000938598
0.000924736
0.000910815
0.000896836
0.000882802
0.000868715
0.000854576
0.000840389
0.000826154
0.000811873
0.000797549
0.000783183
0.000768777
0.000754333
0.000739851
0.000725334
0.000710784
0.000696201
0.000681587
0.000666943
0.000652271
0.000637572
0.000622848
0.000608099
0.000593326
0.000578531
0.000563715
0.000548879
0.000534024
0.00051915
0.00050426
0.000489353
0.00047443
0.000459493
0.000444541
0.000429577
0.000414601
0.000399612
0.000384613
0.000369603
0.000354583
0.000339555
0.000324518
0.000309472
0.00029442
0.00027936
0.000264294
0.000249221
0.000234143
0.00021906
0.000203972
0.00018888
0.000173784
0.000158684
0.000143581
0.000128475
0.000113366
9.82549e-05
8.3142e-05
6.80275e-05
5.29116e-05
3.77948e-05
2.26771e-05
7.5591e-06
2.75278e-05
8.25824e-05
0.000137634
0.000192682
0.000247724
0.000302757
0.000357781
0.000412793
0.000467792
0.000522774
0.000577739
0.000632683
0.000687605
0.000742501
0.00079737
0.000852209
0.000907014
0.000961782
0.00101651
0.0010712
0.00112584
0.00118042
0.00123496
0.00128943
0.00134384
0.00139818
0.00145245
0.00150664
0.00156075
0.00161477
0.00166869
0.00172251
0.00177622
0.00182982
0.0018833
0.00193664
0.00198985
0.00204291
0.00209582
0.00214856
0.00220113
0.00225353
0.00230573
0.00235773
0.00240952
0.00246109
0.00251242
0.00256352
0.00261436
0.00266493
0.00271522
0.00276522
0.00281492
0.0028643
0.00291335
0.00296206
0.00301041
0.00305839
0.00310598
0.00315317
0.00319995
0.0032463
0.00329221
0.00333765
0.00338262
0.0034271
0.00347108
0.00351453
0.00355745
0.00359981
0.00364161
0.00368282
0.00372343
0.00376343
0.00380279
0.00384151
0.00387956
0.00391694
0.00395363
0.0039896
0.00402486
0.00405938
0.00409314
0.00412614
0.00415836
0.00418979
0.00422042
0.00425022
0.00427919
0.00430732
0.0043346
0.00436101
0.00438654
0.00441119
0.00443494
0.00445779
0.00447972
0.00450073
0.00452081
0.00453995
0.00455815
0.0045754
0.00459169
0.00460703
0.0046214
0.00463481
0.00464724
0.00465871
0.0046692
0.00467872
0.00468726
0.00469482
0.00470141
0.00470703
0.00471168
0.00471536
0.00471807
0.00471983
0.00472062
0.00472046
0.00471935
0.0047173
0.00471432
0.0047104
0.00470557
0.00469982
0.00469316
0.0046856
0.00467715
0.00466783
0.00465763
0.00464657
0.00463466
0.00462192
0.00460834
0.00459394
0.00457874
0.00456274
0.00454596
0.0045284
0.00451009
0.00449103
0.00447123
0.00445071
0.00442948
0.00440756
0.00438495
0.00436167
0.00433772
0.00431314
0.00428792
0.00426208
0.00423563
0.00420859
0.00418096
0.00415277
0.00412402
0.00409473
0.00406491
0.00403457
0.00400372
0.00397238
0.00394055
0.00390826
0.00387551
0.00384231
0.00380868
0.00377462
0.00374016
0.00370529
0.00367003
0.0036344
0.00359839
0.00356203
0.00352532
0.00348828
0.0034509
0.00341321
0.00337522
0.00333692
0.00329833
0.00325947
0.00322033
0.00318093
0.00314127
0.00310137
0.00306124
0.00302087
0.00298028
0.00293948
0.00289847
0.00285726
0.00281585
0.00277427
0.0027325
0.00269056
0.00264846
0.00260619
0.00256378
0.00252121
0.00247851
0.00243566
0.00239269
0.00234959
0.00230637
0.00226303
0.00221959
0.00217604
0.00213238
0.00208863
0.00204479
0.00200086
0.00195684
0.00191274
0.00186857
0.00182432
0.00178
0.00173561
0.00169117
0.00164666
0.00160209
0.00155747
0.0015128
0.00146807
0.0014233
0.00137849
0.00133364
0.00128874
0.00124381
0.00119885
0.00115385
0.00110882
0.00106376
0.00101867
0.000973561
0.000928425
0.000883266
0.000838086
0.000792887
0.000747669
0.000702435
0.000657185
0.000611921
0.000566644
0.000521355
0.000476055
0.000430745
0.000385426
0.0003401
0.000294767
0.000249428
0.000204084
0.000158736
0.000113385
6.80319e-05
2.26774e-05
4.58806e-05
0.00013764
0.000229396
0.000321144
0.000412882
0.000504606
0.000596315
0.000688004
0.00077967
0.00087131
0.00096292
0.0010545
0.00114604
0.00123753
0.00132898
0.00142039
0.00151173
0.00160301
0.00169423
0.00178538
0.00187645
0.00196743
0.00205833
0.00214912
0.00223981
0.00233039
0.00242084
0.00251117
0.00260135
0.00269139
0.00278127
0.00287097
0.0029605
0.00304984
0.00313897
0.00322789
0.00331657
0.00340502
0.00349321
0.00358112
0.00366876
0.00375609
0.0038431
0.00392978
0.00401611
0.00410207
0.00418764
0.00427281
0.00435756
0.00444186
0.00452569
0.00460904
0.00469188
0.0047742
0.00485597
0.00493716
0.00501776
0.00509774
0.00517708
0.00525575
0.00533373
0.00541099
0.00548752
0.00556328
0.00563825
0.0057124
0.00578571
0.00585815
0.00592969
0.00600032
0.00606999
0.0061387
0.0062064
0.00627308
0.0063387
0.00640325
0.00646669
0.006529
0.00659016
0.00665014
0.00670892
0.00676646
0.00682275
0.00687777
0.00693149
0.00698388
0.00703494
0.00708462
0.00713292
0.00717982
0.00722529
0.00726932
0.00731189
0.00735298
0.00739257
0.00743066
0.00746722
0.00750224
0.00753571
0.00756763
0.00759796
0.00762672
0.00765388
0.00767945
0.00770341
0.00772575
0.00774648
0.00776559
0.00778308
0.00779894
0.00781318
0.00782579
0.00783677
0.00784613
0.00785388
0.00786001
0.00786453
0.00786744
0.00786876
0.00786849
0.00786664
0.00786321
0.00785823
0.0078517
0.00784363
0.00783403
0.00782293
0.00781032
0.00779623
0.00778068
0.00776367
0.00774523
0.00772537
0.00770411
0.00768147
0.00765747
0.00763211
0.00760544
0.00757745
0.00754818
0.00751765
0.00748586
0.00745286
0.00741864
0.00738325
0.00734669
0.00730899
0.00727017
0.00723026
0.00718926
0.00714722
0.00710413
0.00706004
0.00701496
0.0069689
0.0069219
0.00687397
0.00682514
0.00677542
0.00672484
0.00667341
0.00662116
0.00656811
0.00651427
0.00645968
0.00640433
0.00634827
0.0062915
0.00623404
0.00617592
0.00611714
0.00605774
0.00599772
0.00593711
0.00587591
0.00581416
0.00575186
0.00568903
0.00562569
0.00556185
0.00549753
0.00543274
0.0053675
0.00530183
0.00523573
0.00516922
0.00510231
0.00503503
0.00496737
0.00489936
0.004831
0.00476231
0.0046933
0.00462398
0.00455436
0.00448446
0.00441427
0.00434383
0.00427313
0.00420218
0.00413099
0.00405958
0.00398796
0.00391612
0.00384408
0.00377185
0.00369943
0.00362684
0.00355408
0.00348116
0.00340808
0.00333486
0.00326149
0.00318799
0.00311436
0.00304061
0.00296674
0.00289276
0.00281868
0.00274449
0.00267021
0.00259584
0.00252138
0.00244684
0.00237222
0.00229753
0.00222277
0.00214795
0.00207306
0.00199812
0.00192312
0.00184806
0.00177296
0.00169782
0.00162263
0.0015474
0.00147213
0.00139683
0.0013215
0.00124613
0.00117074
0.00109532
0.00101988
0.00094442
0.000868937
0.000793435
0.000717918
0.000642386
0.000566841
0.000491284
0.000415718
0.000340144
0.000264563
0.000188977
0.000113388
3.77962e-05
6.42348e-05
0.000192702
0.000321164
0.000449615
0.000578053
0.000706472
0.000834868
0.000963237
0.00109157
0.00121988
0.00134814
0.00147635
0.00160451
0.00173261
0.00186065
0.00198862
0.00211651
0.00224431
0.00237203
0.00249964
0.00262715
0.00275453
0.00288179
0.00300892
0.00313589
0.00326271
0.00338936
0.00351583
0.0036421
0.00376817
0.00389401
0.00401962
0.00414497
0.00427006
0.00439486
0.00451936
0.00464354
0.00476739
0.00489087
0.00501398
0.00513668
0.00525897
0.00538081
0.00550219
0.00562307
0.00574344
0.00586327
0.00598253
0.0061012
0.00621925
0.00633665
0.00645337
0.00656938
0.00668465
0.00679916
0.00691286
0.00702573
0.00713774
0.00724884
0.00735902
0.00746822
0.00757643
0.0076836
0.0077897
0.00789469
0.00799854
0.00810121
0.00820266
0.00830286
0.00840177
0.00849936
0.00859558
0.0086904
0.00878378
0.00887569
0.00896609
0.00905495
0.00914222
0.00922788
0.00931189
0.0093942
0.0094748
0.00955364
0.0096307
0.00970593
0.00977932
0.00985082
0.00992041
0.00998806
0.0100537
0.0101174
0.0101791
0.0102387
0.0102963
0.0103517
0.0104051
0.0104563
0.0105053
0.0105522
0.0105969
0.0106394
0.0106796
0.0107177
0.0107535
0.010787
0.0108183
0.0108473
0.0108741
0.0108986
0.0109208
0.0109407
0.0109584
0.0109738
0.0109869
0.0109977
0.0110063
0.0110126
0.0110167
0.0110185
0.0110181
0.0110155
0.0110107
0.0110037
0.0109945
0.0109832
0.0109698
0.0109542
0.0109365
0.0109168
0.010895
0.0108712
0.0108453
0.0108175
0.0107877
0.010756
0.0107223
0.0106868
0.0106494
0.0106102
0.0105692
0.0105265
0.0104819
0.0104357
0.0103878
0.0103382
0.010287
0.0102342
0.0101798
0.0101239
0.0100664
0.0100076
0.00994721
0.00988545
0.0098223
0.00975779
0.00969196
0.00962483
0.00955643
0.0094868
0.00941595
0.00934393
0.00927075
0.00919645
0.00912105
0.00904459
0.00896708
0.00888856
0.00880906
0.00872859
0.00864719
0.00856489
0.00848169
0.00839764
0.00831276
0.00822707
0.00814059
0.00805335
0.00796536
0.00787666
0.00778727
0.0076972
0.00760647
0.00751512
0.00742315
0.00733059
0.00723746
0.00714377
0.00704955
0.00695482
0.00685958
0.00676386
0.00666768
0.00657105
0.00647398
0.00637651
0.00627862
0.00618036
0.00608172
0.00598272
0.00588338
0.00578371
0.00568372
0.00558343
0.00548285
0.00538198
0.00528085
0.00517945
0.00507781
0.00497594
0.00487384
0.00477152
0.004669
0.00456628
0.00446337
0.00436028
0.00425702
0.00415359
0.00405002
0.00394629
0.00384242
0.00373842
0.00363429
0.00353005
0.00342569
0.00332122
0.00321664
0.00311197
0.00300721
0.00290237
0.00279744
0.00269243
0.00258736
0.00248221
0.002377
0.00227174
0.00216641
0.00206104
0.00195561
0.00185014
0.00174463
0.00163908
0.00153349
0.00142787
0.00132222
0.00121654
0.00111083
0.00100511
0.000899358
0.000793593
0.000687812
0.000582017
0.000476211
0.000370396
0.000264574
0.000158746
5.29157e-05
8.25911e-05
0.000247771
0.000412942
0.000578101
0.000743242
0.00090836
0.00107345
0.0012385
0.00140352
0.00156848
0.0017334
0.00189825
0.00206304
0.00222775
0.00239239
0.00255693
0.00272137
0.0028857
0.00304992
0.00321401
0.00337796
0.00354176
0.0037054
0.00386886
0.00403214
0.00419521
0.00435806
0.00452069
0.00468306
0.00484517
0.00500699
0.00516851
0.00532971
0.00549056
0.00565105
0.00581116
0.00597085
0.00613011
0.00628891
0.00644723
0.00660503
0.00676229
0.00691899
0.00707508
0.00723055
0.00738535
0.00753947
0.00769285
0.00784547
0.00799729
0.00814828
0.0082984
0.00844761
0.00859587
0.00874315
0.00888939
0.00903457
0.00917863
0.00932154
0.00946325
0.00960372
0.0097429
0.00988076
0.0100172
0.0101523
0.0102859
0.0104179
0.0105484
0.0106773
0.0108046
0.0109301
0.0110539
0.0111758
0.011296
0.0114142
0.0115305
0.0116448
0.0117571
0.0118673
0.0119753
0.0120812
0.0121849
0.0122863
0.0123854
0.0124822
0.0125766
0.0126686
0.0127581
0.0128452
0.0129297
0.0130116
0.0130909
0.0131676
0.0132416
0.013313
0.0133816
0.0134475
0.0135106
0.0135709
0.0136283
0.013683
0.0137348
0.0137837
0.0138298
0.0138729
0.0139132
0.0139505
0.0139849
0.0140164
0.0140449
0.0140706
0.0140932
0.014113
0.0141298
0.0141438
0.0141548
0.0141629
0.0141681
0.0141704
0.0141699
0.0141665
0.0141603
0.0141513
0.0141395
0.0141249
0.0141076
0.0140876
0.0140648
0.0140394
0.0140113
0.0139806
0.0139474
0.0139116
0.0138732
0.0138324
0.0137891
0.0137434
0.0136953
0.0136448
0.0135921
0.013537
0.0134797
0.0134202
0.0133585
0.0132947
0.0132288
0.0131609
0.0130909
0.013019
0.0129451
0.0128693
0.0127917
0.0127122
0.012631
0.012548
0.0124633
0.012377
0.012289
0.0121994
0.0121083
0.0120156
0.0119215
0.0118259
0.0117289
0.0116305
0.0115308
0.0114298
0.0113276
0.0112241
0.0111194
0.0110135
0.0109065
0.0107984
0.0106892
0.010579
0.0104678
0.0103556
0.0102424
0.0101283
0.0100134
0.00989752
0.00978084
0.00966335
0.00954507
0.00942603
0.00930626
0.00918577
0.0090646
0.00894276
0.00882029
0.00869719
0.0085735
0.00844923
0.00832441
0.00819905
0.00807318
0.00794681
0.00781997
0.00769266
0.00756491
0.00743674
0.00730817
0.0071792
0.00704985
0.00692015
0.0067901
0.00665972
0.00652902
0.00639802
0.00626673
0.00613517
0.00600333
0.00587125
0.00573892
0.00560636
0.00547359
0.0053406
0.00520742
0.00507404
0.00494049
0.00480676
0.00467287
0.00453883
0.00440464
0.00427031
0.00413585
0.00400127
0.00386657
0.00373176
0.00359684
0.00346183
0.00332672
0.00319153
0.00305625
0.0029209
0.00278548
0.00264999
0.00251443
0.00237882
0.00224316
0.00210745
0.00197168
0.00183588
0.00170004
0.00156416
0.00142825
0.00129231
0.00115635
0.00102036
0.000884352
0.000748327
0.000612287
0.000476236
0.000340175
0.000204107
6.80362e-05
0.00010095
0.000302846
0.000504734
0.000706606
0.000908456
0.00111028
0.00131206
0.00151381
0.00171551
0.00191714
0.00211872
0.00232022
0.00252165
0.00272298
0.00292421
0.00312534
0.00332634
0.00352721
0.00372795
0.00392852
0.00412893
0.00432915
0.00452918
0.004729
0.00492858
0.00512792
0.005327
0.0055258
0.00572429
0.00592245
0.00612028
0.00631773
0.00651479
0.00671144
0.00690764
0.00710337
0.0072986
0.0074933
0.00768744
0.00788099
0.00807392
0.00826619
0.00845777
0.00864861
0.00883869
0.00902796
0.00921639
0.00940393
0.00959054
0.00977617
0.00996079
0.0101443
0.0103268
0.0105081
0.0106882
0.010867
0.0110445
0.0112207
0.0113954
0.0115687
0.0117405
0.0119107
0.0120793
0.0122462
0.0124113
0.0125747
0.0127362
0.0128958
0.0130534
0.013209
0.0133626
0.0135139
0.0136631
0.01381
0.0139546
0.0140969
0.0142367
0.014374
0.0145088
0.0146409
0.0147704
0.0148973
0.0150213
0.0151425
0.0152609
0.0153764
0.0154889
0.0155984
0.0157048
0.0158082
0.0159084
0.0160054
0.0160992
0.0161897
0.016277
0.0163609
0.0164414
0.0165186
0.0165923
0.0166626
0.0167295
0.0167928
0.0168526
0.0169089
0.0169617
0.0170109
0.0170565
0.0170986
0.0171371
0.017172
0.0172033
0.017231
0.0172552
0.0172758
0.0172928
0.0173062
0.0173161
0.0173224
0.0173253
0.0173246
0.0173204
0.0173128
0.0173018
0.0172873
0.0172694
0.0172482
0.0172236
0.0171958
0.0171646
0.0171303
0.0170927
0.017052
0.0170082
0.0169612
0.0169113
0.0168583
0.0168023
0.0167435
0.0166817
0.0166172
0.0165498
0.0164797
0.0164069
0.0163314
0.0162534
0.0161728
0.0160896
0.0160041
0.015916
0.0158257
0.015733
0.015638
0.0155408
0.0154414
0.0153399
0.0152363
0.0151307
0.0150231
0.0149135
0.0148021
0.0146888
0.0145736
0.0144567
0.0143381
0.0142178
0.0140959
0.0139724
0.0138473
0.0137208
0.0135927
0.0134633
0.0133324
0.0132002
0.0130667
0.012932
0.012796
0.0126587
0.0125204
0.0123809
0.0122403
0.0120987
0.011956
0.0118124
0.0116677
0.0115222
0.0113758
0.0112285
0.0110803
0.0109314
0.0107816
0.0106311
0.0104799
0.010328
0.0101754
0.0100221
0.00986823
0.00971374
0.00955867
0.00940304
0.00924687
0.00909019
0.008933
0.00877534
0.00861722
0.00845867
0.00829969
0.0081403
0.00798054
0.0078204
0.00765991
0.00749908
0.00733793
0.00717646
0.00701471
0.00685267
0.00669037
0.00652781
0.00636501
0.00620197
0.00603872
0.00587526
0.0057116
0.00554775
0.00538373
0.00521954
0.00505518
0.00489068
0.00472603
0.00456125
0.00439634
0.00423131
0.00406617
0.00390092
0.00373557
0.00357013
0.00340461
0.003239
0.00307332
0.00290756
0.00274174
0.00257586
0.00240992
0.00224393
0.0020779
0.00191182
0.0017457
0.00157955
0.00141336
0.00124715
0.00108091
0.000914652
0.000748375
0.000582084
0.000415782
0.000249473
8.31581e-05
0.000119312
0.000357932
0.000596541
0.000835132
0.0010737
0.00131223
0.00155072
0.00178916
0.00202755
0.00226587
0.00250412
0.00274228
0.00298034
0.0032183
0.00345615
0.00369387
0.00393144
0.00416887
0.00440612
0.0046432
0.00488008
0.00511674
0.00535318
0.00558936
0.00582528
0.0060609
0.00629622
0.00653121
0.00676584
0.00700009
0.00723393
0.00746734
0.00770029
0.00793275
0.00816469
0.00839607
0.00862687
0.00885705
0.00908656
0.00931538
0.00954347
0.00977078
0.00999727
0.0102229
0.0104476
0.0106714
0.0108942
0.0111159
0.0113366
0.0115561
0.0117744
0.0119914
0.0122071
0.0124215
0.0126344
0.0128459
0.0130558
0.0132641
0.0134708
0.0136757
0.0138789
0.0140801
0.0142795
0.0144769
0.0146722
0.0148654
0.0150564
0.0152452
0.0154316
0.0156156
0.0157972
0.0159762
0.0161527
0.0163264
0.0164975
0.0166657
0.016831
0.0169935
0.0171529
0.0173092
0.0174624
0.0176124
0.0177591
0.0179025
0.0180425
0.0181791
0.0183122
0.0184417
0.0185676
0.0186898
0.0188083
0.0189231
0.019034
0.0191411
0.0192443
0.0193435
0.0194388
0.0195301
0.0196173
0.0197004
0.0197794
0.0198543
0.0199251
0.0199917
0.020054
0.0201122
0.0201662
0.0202159
0.0202614
0.0203027
0.0203397
0.0203724
0.020401
0.0204252
0.0204453
0.0204612
0.0204728
0.0204803
0.0204836
0.0204828
0.0204778
0.0204687
0.0204556
0.0204384
0.0204173
0.0203921
0.020363
0.02033
0.0202931
0.0202524
0.020208
0.0201598
0.0201078
0.0200523
0.0199931
0.0199304
0.0198642
0.0197945
0.0197215
0.0196451
0.0195653
0.0194824
0.0193962
0.019307
0.0192146
0.0191192
0.0190209
0.0189196
0.0188155
0.0187086
0.0185989
0.0184866
0.0183716
0.018254
0.0181339
0.0180114
0.0178865
0.0177592
0.0176296
0.0174977
0.0173637
0.0172276
0.0170893
0.016949
0.0168068
0.0166626
0.0165165
0.0163686
0.0162189
0.0160675
0.0159144
0.0157597
0.0156034
0.0154455
0.0152861
0.0151253
0.0149631
0.0147995
0.0146346
0.0144683
0.0143009
0.0141322
0.0139623
0.0137914
0.0136193
0.0134461
0.013272
0.0130968
0.0129207
0.0127437
0.0125658
0.012387
0.0122074
0.012027
0.0118458
0.0116639
0.0114813
0.0112979
0.011114
0.0109293
0.0107441
0.0105583
0.0103719
0.010185
0.0099976
0.00980968
0.00962128
0.00943242
0.00924313
0.00905342
0.00886331
0.00867282
0.00848197
0.00829078
0.00809925
0.0079074
0.00771526
0.00752283
0.00733013
0.00713717
0.00694396
0.00675052
0.00655686
0.00636299
0.00616892
0.00597466
0.00578023
0.00558563
0.00539087
0.00519596
0.00500091
0.00480572
0.00461042
0.00441499
0.00421946
0.00402382
0.00382809
0.00363227
0.00343637
0.00324038
0.00304433
0.00284821
0.00265204
0.0024558
0.00225952
0.00206319
0.00186681
0.0016704
0.00147396
0.00127749
0.00108099
0.000884478
0.000687944
0.000491398
0.000294843
9.82815e-05
0.000137677
0.000413028
0.000688366
0.000963684
0.00123897
0.00151422
0.00178943
0.00206458
0.00233966
0.00261467
0.0028896
0.00316442
0.00343914
0.00371375
0.00398821
0.00426254
0.0045367
0.00481069
0.00508449
0.00535808
0.00563144
0.00590456
0.00617742
0.00644999
0.00672226
0.00699419
0.00726578
0.00753698
0.00780777
0.00807813
0.00834802
0.00861742
0.00888629
0.00915459
0.0094223
0.00968937
0.00995577
0.0102215
0.0104864
0.0107505
0.0110138
0.0112762
0.0115376
0.0117981
0.0120575
0.0123159
0.0125731
0.012829
0.0130838
0.0133372
0.0135892
0.0138398
0.0140888
0.0143363
0.0145822
0.0148264
0.0150687
0.0153093
0.0155479
0.0157845
0.0160191
0.0162515
0.0164817
0.0167096
0.0169352
0.0171583
0.0173789
0.0175968
0.0178121
0.0180247
0.0182344
0.0184411
0.0186449
0.0188456
0.0190431
0.0192374
0.0194284
0.0196159
0.0198
0.0199806
0.0201575
0.0203308
0.0205002
0.0206658
0.0208276
0.0209853
0.021139
0.0212886
0.021434
0.0215752
0.021712
0.0218446
0.0219727
0.0220964
0.0222155
0.0223302
0.0224402
0.0225456
0.0226463
0.0227423
0.0228335
0.02292
0.0230017
0.0230786
0.0231506
0.0232178
0.0232801
0.0233374
0.02339
0.0234376
0.0234803
0.0235181
0.0235509
0.023579
0.0236021
0.0236203
0.0236337
0.0236423
0.0236461
0.023645
0.0236392
0.0236287
0.0236135
0.0235936
0.0235691
0.0235399
0.0235063
0.0234681
0.0234254
0.0233784
0.023327
0.0232712
0.0232112
0.023147
0.0230786
0.0230061
0.0229295
0.022849
0.0227646
0.0226762
0.0225841
0.0224883
0.0223887
0.0222855
0.0221788
0.0220686
0.021955
0.021838
0.0217177
0.0215942
0.0214675
0.0213377
0.0212049
0.0210691
0.0209304
0.0207889
0.0206446
0.0204976
0.0203479
0.0201956
0.0200408
0.0198836
0.0197239
0.0195619
0.0193976
0.0192311
0.0190624
0.0188916
0.0187188
0.018544
0.0183672
0.0181886
0.0180081
0.0178258
0.0176418
0.0174561
0.0172688
0.0170799
0.0168895
0.0166976
0.0165043
0.0163095
0.0161134
0.0159161
0.0157174
0.0155175
0.0153165
0.0151143
0.014911
0.0147067
0.0145013
0.0142949
0.0140876
0.0138794
0.0136702
0.0134603
0.0132495
0.0130379
0.0128255
0.0126124
0.0123987
0.0121842
0.0119691
0.0117534
0.011537
0.0113201
0.0111027
0.0108847
0.0106663
0.0104473
0.0102279
0.0100081
0.00978783
0.00956717
0.00934614
0.00912474
0.008903
0.00868092
0.00845854
0.00823586
0.00801289
0.00778966
0.00756618
0.00734245
0.00711849
0.00689432
0.00666995
0.00644538
0.00622064
0.00599572
0.00577063
0.0055454
0.00532003
0.00509452
0.00486888
0.00464313
0.00441727
0.0041913
0.00396525
0.0037391
0.00351287
0.00328657
0.00306019
0.00283375
0.00260726
0.00238071
0.00215412
0.00192748
0.0017008
0.00147409
0.00124736
0.0010206
0.000793817
0.000567023
0.000340218
0.000113407
0.000156047
0.000468136
0.000780212
0.00109226
0.00140429
0.00171626
0.00202819
0.00234006
0.00265185
0.00296356
0.00327517
0.00358668
0.00389807
0.00420932
0.00452043
0.00483137
0.00514213
0.0054527
0.00576306
0.00607318
0.00638305
0.00669265
0.00700195
0.00731093
0.00761957
0.00792784
0.00823571
0.00854315
0.00885014
0.00915664
0.00946261
0.00976803
0.0100728
0.010377
0.0106805
0.0109833
0.0112854
0.0115866
0.011887
0.0121865
0.012485
0.0127825
0.013079
0.0133744
0.0136685
0.0139615
0.0142531
0.0145434
0.0148323
0.0151197
0.0154055
0.0156897
0.0159721
0.0162528
0.0165317
0.0168086
0.0170835
0.0173563
0.017627
0.0178954
0.0181614
0.0184251
0.0186862
0.0189448
0.0192006
0.0194537
0.0197039
0.0199512
0.0201954
0.0204365
0.0206744
0.020909
0.0211402
0.0213679
0.021592
0.0218124
0.0220291
0.0222419
0.0224508
0.0226556
0.0228564
0.0230529
0.0232452
0.0234331
0.0236166
0.0237956
0.0239699
0.0241397
0.0243046
0.0244648
0.0246201
0.0247705
0.0249158
0.0250561
0.0251913
0.0253214
0.0254462
0.0255657
0.02568
0.0257889
0.0258924
0.0259905
0.0260832
0.0261703
0.026252
0.0263282
0.0263988
0.0264639
0.0265234
0.0265774
0.0266258
0.0266686
0.0267058
0.0267376
0.0267637
0.0267844
0.0267995
0.0268092
0.0268133
0.0268121
0.0268054
0.0267934
0.0267761
0.0267534
0.0267255
0.0266924
0.0266541
0.0266107
0.0265622
0.0265087
0.0264503
0.0263869
0.0263187
0.0262458
0.0261681
0.0260858
0.0259989
0.0259074
0.0258115
0.0257112
0.0256067
0.0254978
0.0253848
0.0252677
0.0251466
0.0250215
0.0248925
0.0247597
0.0246232
0.024483
0.0243392
0.0241919
0.0240412
0.0238871
0.0237297
0.0235691
0.0234054
0.0232386
0.0230688
0.022896
0.0227204
0.022542
0.0223608
0.0221771
0.0219907
0.0218018
0.0216105
0.0214167
0.0212207
0.0210224
0.0208219
0.0206192
0.0204145
0.0202078
0.0199991
0.0197885
0.0195761
0.0193619
0.0191459
0.0189283
0.018709
0.0184882
0.0182659
0.018042
0.0178168
0.0175901
0.0173622
0.0171329
0.0169024
0.0166707
0.0164378
0.0162038
0.0159687
0.0157326
0.0154955
0.0152575
0.0150185
0.0147786
0.0145378
0.0142962
0.0140539
0.0138107
0.0135669
0.0133223
0.013077
0.0128312
0.0125847
0.0123376
0.0120899
0.0118417
0.011593
0.0113438
0.0110941
0.010844
0.0105934
0.0103424
0.0100911
0.00983933
0.00958725
0.00933483
0.00908209
0.00882906
0.00857573
0.00832214
0.00806828
0.00781419
0.00755986
0.00730532
0.00705058
0.00679564
0.00654052
0.00628522
0.00602977
0.00577417
0.00551842
0.00526255
0.00500655
0.00475044
0.00449422
0.0042379
0.00398148
0.00372499
0.00346841
0.00321177
0.00295505
0.00269828
0.00244146
0.00218459
0.00192768
0.00167073
0.00141374
0.00115674
0.000899705
0.000642659
0.0003856
0.000128534
0.000174421
0.000523259
0.000872081
0.00122088
0.00156964
0.00191836
0.00226702
0.00261561
0.00296412
0.00331254
0.00366086
0.00400906
0.00435712
0.00470504
0.0050528
0.00540038
0.00574776
0.00609493
0.00644186
0.00678854
0.00713494
0.00748103
0.0078268
0.00817222
0.00851726
0.00886189
0.00920607
0.00954979
0.009893
0.0102357
0.0105778
0.0109192
0.01126
0.0116001
0.0119395
0.0122781
0.0126158
0.0129526
0.0132885
0.0136234
0.0139572
0.0142899
0.0146215
0.0149518
0.0152808
0.0156084
0.0159346
0.0162592
0.0165823
0.0169037
0.0172234
0.0175412
0.0178572
0.0181712
0.0184831
0.0187928
0.0191004
0.0194056
0.0197083
0.0200086
0.0203062
0.0206012
0.0208933
0.0211826
0.0214688
0.021752
0.0220319
0.0223086
0.0225819
0.0228517
0.0231178
0.0233803
0.023639
0.0238938
0.0241445
0.0243912
0.0246336
0.0248718
0.0251055
0.0253348
0.0255594
0.0257794
0.0259945
0.0262048
0.0264101
0.0266104
0.0268056
0.0269955
0.0271801
0.0273593
0.0275331
0.0277014
0.027864
0.028021
0.0281723
0.0283178
0.0284575
0.0285912
0.0287191
0.0288409
0.0289567
0.0290665
0.0291701
0.0292676
0.029359
0.0294441
0.0295231
0.0295959
0.0296624
0.0297227
0.0297768
0.0298247
0.0298663
0.0299017
0.0299309
0.0299539
0.0299708
0.0299815
0.0299861
0.0299846
0.029977
0.0299634
0.0299439
0.0299185
0.0298871
0.0298499
0.029807
0.0297583
0.0297039
0.029644
0.0295785
0.0295075
0.0294311
0.0293493
0.0292623
0.0291701
0.0290727
0.0289703
0.0288629
0.0287506
0.0286334
0.0285116
0.028385
0.0282539
0.0281182
0.0279782
0.0278338
0.0276851
0.0275323
0.0273754
0.0272144
0.0270496
0.0268809
0.0267084
0.0265323
0.0263525
0.0261693
0.0259826
0.0257926
0.0255993
0.0254027
0.0252031
0.0250005
0.0247948
0.0245863
0.024375
0.0241609
0.0239442
0.0237248
0.023503
0.0232787
0.023052
0.022823
0.0225918
0.0223583
0.0221228
0.0218852
0.0216456
0.021404
0.0211606
0.0209154
0.0206684
0.0204197
0.0201694
0.0199175
0.019664
0.0194091
0.0191527
0.0188949
0.0186358
0.0183754
0.0181138
0.0178509
0.0175869
0.0173218
0.0170556
0.0167883
0.0165201
0.0162509
0.0159808
0.0157098
0.015438
0.0151653
0.0148919
0.0146177
0.0143428
0.0140672
0.0137909
0.0135141
0.0132366
0.0129585
0.0126799
0.0124008
0.0121212
0.0118411
0.0115605
0.0112795
0.0109981
0.0107163
0.0104341
0.0101516
0.00986874
0.00958556
0.00930208
0.00901832
0.00873428
0.00845
0.00816547
0.00788071
0.00759574
0.00731057
0.00702521
0.00673967
0.00645396
0.0061681
0.00588209
0.00559595
0.00530967
0.00502328
0.00473678
0.00445018
0.00416349
0.0038767
0.00358984
0.00330291
0.00301591
0.00272885
0.00244174
0.00215459
0.00186739
0.00158016
0.0012929
0.00100561
0.000718306
0.000430989
0.000143664
0.0001928
0.000578396
0.000963975
0.00134953
0.00173504
0.00212051
0.00250591
0.00289124
0.00327648
0.00366163
0.00404666
0.00443157
0.00481633
0.00520093
0.00558536
0.00596959
0.00635361
0.00673739
0.00712092
0.00750417
0.00788712
0.00826974
0.00865201
0.00903389
0.00941535
0.00979637
0.0101769
0.0105569
0.0109364
0.0113153
0.0116935
0.0120711
0.0124479
0.012824
0.0131993
0.0135737
0.0139471
0.0143196
0.014691
0.0150614
0.0154306
0.0157985
0.0161652
0.0165305
0.0168944
0.0172567
0.0176175
0.0179766
0.018334
0.0186895
0.0190431
0.0193947
0.0197442
0.0200916
0.0204366
0.0207793
0.0211196
0.0214572
0.0217922
0.0221244
0.0224537
0.0227801
0.0231033
0.0234234
0.0237401
0.0240535
0.0243633
0.0246694
0.0249718
0.0252704
0.0255649
0.0258554
0.0261417
0.0264236
0.0267012
0.0269742
0.0272425
0.0275061
0.0277648
0.0280185
0.0282671
0.0285106
0.0287487
0.0289815
0.0292087
0.0294304
0.0296464
0.0298566
0.0300609
0.0302593
0.0304517
0.0306379
0.0308179
0.0309917
0.0311591
0.0313201
0.0314747
0.0316227
0.0317641
0.0318989
0.0320271
0.0321485
0.0322632
0.032371
0.0324721
0.0325663
0.0326536
0.0327341
0.0328077
0.0328744
0.0329341
0.032987
0.033033
0.033072
0.0331043
0.0331296
0.0331482
0.0331599
0.0331649
0.0331631
0.0331546
0.0331395
0.0331177
0.0330894
0.0330546
0.0330133
0.0329656
0.0329116
0.0328513
0.0327848
0.0327122
0.0326335
0.0325488
0.0324581
0.0323617
0.0322595
0.0321516
0.0320381
0.0319191
0.0317947
0.031665
0.03153
0.0313898
0.0312446
0.0310944
0.0309392
0.0307793
0.0306147
0.0304455
0.0302718
0.0300936
0.0299111
0.0297243
0.0295334
0.0293384
0.0291395
0.0289366
0.02873
0.0285197
0.0283057
0.0280882
0.0278673
0.027643
0.0274155
0.0271847
0.0269509
0.026714
0.0264742
0.0262315
0.0259861
0.0257379
0.0254871
0.0252338
0.0249779
0.0247197
0.0244591
0.0241962
0.0239312
0.023664
0.0233948
0.0231235
0.0228503
0.0225753
0.0222984
0.0220198
0.0217395
0.0214575
0.0211739
0.0208888
0.0206023
0.0203143
0.0200249
0.0197343
0.0194423
0.0191491
0.0188547
0.0185592
0.0182626
0.017965
0.0176663