/*--------------------------------*- C++ -*----------------------------------*\
| =========                 |                                                 |
| \\      /  F ield         | OpenFOAM: The Open Source CFD Toolbox           |
|  \\    /   O peration     | Version:  v2012                                 |
|   \\  /    A nd           | Website:  www.openfoam.com                      |
|    \\/     M anipulation  |                                                 |
\*---------------------------------------------------------------------------*/
FoamFile
{
    version     2.0;
    format      ascii;
    class       volVectorField;
    location    "6";
    object      U;
}
// * * * * * * * * * * * * * * * * * * * * * * * * * * * * * * * * * * * * * //

dimensions      [0 1 -1 0 0 0 0];


internalField   nonuniform List<vector> 
65536
(
(0.000747031 -0.00074702 0)
(0.00224107 -0.000746994 0)
(0.00373503 -0.000746945 0)
(0.00522887 -0.000746871 0)
(0.00672253 -0.000746772 0)
(0.00821597 -0.000746647 0)
(0.00970914 -0.000746495 0)
(0.011202 -0.000746316 0)
(0.0126944 -0.000746108 0)
(0.0141864 -0.000745871 0)
(0.0156779 -0.000745603 0)
(0.0171689 -0.000745302 0)
(0.0186592 -0.000744968 0)
(0.0201488 -0.000744598 0)
(0.0216376 -0.00074419 0)
(0.0231256 -0.000743743 0)
(0.0246126 -0.000743254 0)
(0.0260986 -0.000742721 0)
(0.0275835 -0.000742142 0)
(0.0290672 -0.000741515 0)
(0.0305497 -0.000740836 0)
(0.0320306 -0.000740102 0)
(0.0335101 -0.000739312 0)
(0.0349879 -0.000738462 0)
(0.036464 -0.000737549 0)
(0.0379382 -0.000736569 0)
(0.0394104 -0.00073552 0)
(0.0408804 -0.000734398 0)
(0.042348 -0.0007332 0)
(0.0438132 -0.000731921 0)
(0.0452758 -0.000730559 0)
(0.0467356 -0.000729109 0)
(0.0481923 -0.000727567 0)
(0.0496459 -0.00072593 0)
(0.0510961 -0.000724194 0)
(0.0525428 -0.000722354 0)
(0.0539857 -0.000720408 0)
(0.0554245 -0.000718349 0)
(0.0568592 -0.000716175 0)
(0.0582893 -0.00071388 0)
(0.0597148 -0.000711462 0)
(0.0611353 -0.000708915 0)
(0.0625506 -0.000706235 0)
(0.0639604 -0.000703418 0)
(0.0653644 -0.00070046 0)
(0.0667624 -0.000697357 0)
(0.068154 -0.000694105 0)
(0.0695389 -0.000690698 0)
(0.0709169 -0.000687134 0)
(0.0722876 -0.000683408 0)
(0.0736507 -0.000679517 0)
(0.0750059 -0.000675455 0)
(0.0763527 -0.000671221 0)
(0.0776909 -0.000666809 0)
(0.0790201 -0.000662217 0)
(0.08034 -0.000657442 0)
(0.0816501 -0.000652479 0)
(0.0829501 -0.000647325 0)
(0.0842396 -0.000641979 0)
(0.0855182 -0.000636436 0)
(0.0867855 -0.000630695 0)
(0.0880412 -0.000624753 0)
(0.0892847 -0.000618607 0)
(0.0905158 -0.000612257 0)
(0.091734 -0.000605699 0)
(0.0929388 -0.000598934 0)
(0.0941299 -0.000591958 0)
(0.0953068 -0.000584772 0)
(0.0964692 -0.000577375 0)
(0.0976166 -0.000569765 0)
(0.0987485 -0.000561944 0)
(0.0998645 -0.00055391 0)
(0.100964 -0.000545665 0)
(0.102047 -0.00053721 0)
(0.103113 -0.000528544 0)
(0.104162 -0.00051967 0)
(0.105192 -0.000510589 0)
(0.106204 -0.000501302 0)
(0.107198 -0.000491813 0)
(0.108172 -0.000482124 0)
(0.109126 -0.000472237 0)
(0.110061 -0.000462157 0)
(0.110975 -0.000451885 0)
(0.111869 -0.000441427 0)
(0.112741 -0.000430785 0)
(0.113592 -0.000419966 0)
(0.114421 -0.000408973 0)
(0.115228 -0.00039781 0)
(0.116013 -0.000386485 0)
(0.116774 -0.000375002 0)
(0.117513 -0.000363366 0)
(0.118228 -0.000351584 0)
(0.118919 -0.000339663 0)
(0.119587 -0.000327608 0)
(0.12023 -0.000315427 0)
(0.120848 -0.000303126 0)
(0.121442 -0.000290712 0)
(0.122011 -0.000278193 0)
(0.122555 -0.000265577 0)
(0.123074 -0.00025287 0)
(0.123567 -0.00024008 0)
(0.124034 -0.000227216 0)
(0.124476 -0.000214285 0)
(0.124891 -0.000201296 0)
(0.125281 -0.000188256 0)
(0.125644 -0.000175173 0)
(0.125982 -0.000162055 0)
(0.126293 -0.000148912 0)
(0.126577 -0.00013575 0)
(0.126836 -0.000122578 0)
(0.127068 -0.000109403 0)
(0.127273 -9.62354e-05 0)
(0.127453 -8.30812e-05 0)
(0.127606 -6.99488e-05 0)
(0.127732 -5.6846e-05 0)
(0.127833 -4.37804e-05 0)
(0.127907 -3.07595e-05 0)
(0.127956 -1.77906e-05 0)
(0.127978 -4.88101e-06 0)
(0.127975 7.96224e-06 0)
(0.127947 2.07323e-05 0)
(0.127892 3.34224e-05 0)
(0.127813 4.60262e-05 0)
(0.127708 5.85373e-05 0)
(0.127579 7.09497e-05 0)
(0.127424 8.32576e-05 0)
(0.127245 9.54552e-05 0)
(0.127042 0.000107537 0)
(0.126815 0.000119499 0)
(0.126564 0.000131334 0)
(0.12629 0.00014304 0)
(0.125992 0.00015461 0)
(0.125671 0.000166042 0)
(0.125328 0.000177331 0)
(0.124962 0.000188474 0)
(0.124574 0.000199467 0)
(0.124164 0.000210306 0)
(0.123732 0.00022099 0)
(0.12328 0.000231515 0)
(0.122806 0.000241879 0)
(0.122312 0.00025208 0)
(0.121797 0.000262116 0)
(0.121263 0.000271985 0)
(0.120709 0.000281685 0)
(0.120136 0.000291216 0)
(0.119544 0.000300576 0)
(0.118934 0.000309764 0)
(0.118305 0.00031878 0)
(0.117659 0.000327624 0)
(0.116994 0.000336294 0)
(0.116313 0.000344791 0)
(0.115615 0.000353116 0)
(0.114901 0.000361268 0)
(0.11417 0.000369247 0)
(0.113423 0.000377055 0)
(0.112661 0.000384692 0)
(0.111884 0.000392159 0)
(0.111093 0.000399457 0)
(0.110286 0.000406587 0)
(0.109466 0.00041355 0)
(0.108632 0.000420348 0)
(0.107785 0.000426983 0)
(0.106924 0.000433455 0)
(0.106051 0.000439766 0)
(0.105165 0.000445919 0)
(0.104267 0.000451915 0)
(0.103357 0.000457755 0)
(0.102436 0.000463443 0)
(0.101503 0.000468979 0)
(0.10056 0.000474367 0)
(0.0996055 0.000479608 0)
(0.098641 0.000484704 0)
(0.0976665 0.000489658 0)
(0.0966822 0.000494472 0)
(0.0956885 0.000499148 0)
(0.0946855 0.000503688 0)
(0.0936736 0.000508095 0)
(0.092653 0.000512372 0)
(0.091624 0.00051652 0)
(0.0905868 0.000520542 0)
(0.0895417 0.000524441 0)
(0.0884889 0.000528219 0)
(0.0874287 0.000531877 0)
(0.0863613 0.00053542 0)
(0.0852869 0.000538848 0)
(0.0842058 0.000542166 0)
(0.0831181 0.000545374 0)
(0.0820242 0.000548475 0)
(0.0809241 0.000551472 0)
(0.0798182 0.000554367 0)
(0.0787066 0.000557163 0)
(0.0775894 0.000559861 0)
(0.076467 0.000562465 0)
(0.0753395 0.000564976 0)
(0.074207 0.000567396 0)
(0.0730698 0.000569729 0)
(0.071928 0.000571976 0)
(0.0707818 0.000574139 0)
(0.0696314 0.000576221 0)
(0.0684769 0.000578223 0)
(0.0673184 0.000580149 0)
(0.0661562 0.000581999 0)
(0.0649904 0.000583777 0)
(0.063821 0.000585483 0)
(0.0626484 0.000587121 0)
(0.0614725 0.000588692 0)
(0.0602935 0.000590199 0)
(0.0591116 0.000591642 0)
(0.0579269 0.000593024 0)
(0.0567395 0.000594347 0)
(0.0555495 0.000595613 0)
(0.054357 0.000596824 0)
(0.0531621 0.00059798 0)
(0.051965 0.000599085 0)
(0.0507657 0.00060014 0)
(0.0495644 0.000601146 0)
(0.0483611 0.000602105 0)
(0.0471559 0.000603019 0)
(0.045949 0.000603889 0)
(0.0447403 0.000604717 0)
(0.0435301 0.000605504 0)
(0.0423183 0.000606252 0)
(0.041105 0.000606962 0)
(0.0398904 0.000607636 0)
(0.0386744 0.000608275 0)
(0.0374572 0.00060888 0)
(0.0362389 0.000609453 0)
(0.0350194 0.000609994 0)
(0.0337989 0.000610506 0)
(0.0325774 0.000610989 0)
(0.0313549 0.000611444 0)
(0.0301316 0.000611872 0)
(0.0289074 0.000612275 0)
(0.0276824 0.000612654 0)
(0.0264567 0.000613009 0)
(0.0252304 0.000613341 0)
(0.0240034 0.000613652 0)
(0.0227757 0.000613942 0)
(0.0215476 0.000614212 0)
(0.0203189 0.000614462 0)
(0.0190897 0.000614694 0)
(0.0178601 0.000614908 0)
(0.01663 0.000615105 0)
(0.0153996 0.000615286 0)
(0.0141689 0.00061545 0)
(0.0129378 0.000615599 0)
(0.0117065 0.000615733 0)
(0.0104749 0.000615852 0)
(0.00924306 0.000615957 0)
(0.00801104 0.000616048 0)
(0.00677885 0.000616125 0)
(0.00554652 0.000616189 0)
(0.00431408 0.00061624 0)
(0.00308155 0.000616278 0)
(0.00184896 0.000616304 0)
(0.000616323 0.000616316 0)
(0.000747053 -0.00224108 0)
(0.00224114 -0.002241 0)
(0.00373514 -0.00224086 0)
(0.00522903 -0.00224063 0)
(0.00672275 -0.00224034 0)
(0.00821624 -0.00223996 0)
(0.00970946 -0.00223951 0)
(0.0112024 -0.00223897 0)
(0.0126949 -0.00223835 0)
(0.0141869 -0.00223764 0)
(0.0156785 -0.00223684 0)
(0.0171695 -0.00223594 0)
(0.0186599 -0.00223494 0)
(0.0201495 -0.00223383 0)
(0.0216384 -0.00223261 0)
(0.0231265 -0.00223127 0)
(0.0246136 -0.0022298 0)
(0.0260997 -0.00222821 0)
(0.0275847 -0.00222647 0)
(0.0290685 -0.00222459 0)
(0.030551 -0.00222256 0)
(0.0320321 -0.00222036 0)
(0.0335117 -0.00221799 0)
(0.0349897 -0.00221545 0)
(0.0364659 -0.00221271 0)
(0.0379402 -0.00220977 0)
(0.0394125 -0.00220663 0)
(0.0408826 -0.00220327 0)
(0.0423505 -0.00219968 0)
(0.0438158 -0.00219584 0)
(0.0452786 -0.00219176 0)
(0.0467385 -0.00218741 0)
(0.0481955 -0.00218279 0)
(0.0496492 -0.00217789 0)
(0.0510997 -0.00217268 0)
(0.0525465 -0.00216717 0)
(0.0539896 -0.00216133 0)
(0.0554287 -0.00215516 0)
(0.0568636 -0.00214864 0)
(0.058294 -0.00214176 0)
(0.0597197 -0.00213451 0)
(0.0611405 -0.00212687 0)
(0.062556 -0.00211884 0)
(0.0639661 -0.00211039 0)
(0.0653704 -0.00210152 0)
(0.0667687 -0.00209222 0)
(0.0681606 -0.00208246 0)
(0.0695458 -0.00207225 0)
(0.0709242 -0.00206156 0)
(0.0722952 -0.00205039 0)
(0.0736586 -0.00203872 0)
(0.0750141 -0.00202654 0)
(0.0763613 -0.00201384 0)
(0.0776999 -0.00200061 0)
(0.0790294 -0.00198683 0)
(0.0803496 -0.00197251 0)
(0.0816601 -0.00195762 0)
(0.0829605 -0.00194217 0)
(0.0842504 -0.00192613 0)
(0.0855294 -0.0019095 0)
(0.0867971 -0.00189228 0)
(0.0880532 -0.00187446 0)
(0.0892971 -0.00185602 0)
(0.0905286 -0.00183698 0)
(0.0917472 -0.0018173 0)
(0.0929525 -0.00179701 0)
(0.094144 -0.00177608 0)
(0.0953213 -0.00175453 0)
(0.0964841 -0.00173233 0)
(0.0976319 -0.00170951 0)
(0.0987642 -0.00168604 0)
(0.0998807 -0.00166194 0)
(0.100981 -0.00163721 0)
(0.102064 -0.00161184 0)
(0.103131 -0.00158584 0)
(0.10418 -0.00155921 0)
(0.105211 -0.00153197 0)
(0.106223 -0.00150411 0)
(0.107217 -0.00147564 0)
(0.108191 -0.00144657 0)
(0.109146 -0.00141691 0)
(0.110081 -0.00138666 0)
(0.110996 -0.00135584 0)
(0.11189 -0.00132446 0)
(0.112762 -0.00129253 0)
(0.113614 -0.00126007 0)
(0.114443 -0.00122709 0)
(0.11525 -0.00119359 0)
(0.116035 -0.00115961 0)
(0.116797 -0.00112516 0)
(0.117536 -0.00109024 0)
(0.118251 -0.00105489 0)
(0.118943 -0.00101912 0)
(0.119611 -0.00098295 0)
(0.120254 -0.0009464 0)
(0.120873 -0.000909489 0)
(0.121467 -0.000872242 0)
(0.122036 -0.000834678 0)
(0.12258 -0.00079682 0)
(0.123099 -0.000758692 0)
(0.123592 -0.000720316 0)
(0.12406 -0.000681716 0)
(0.124502 -0.000642916 0)
(0.124917 -0.000603939 0)
(0.125307 -0.00056481 0)
(0.12567 -0.000525553 0)
(0.126008 -0.000486193 0)
(0.126319 -0.000446754 0)
(0.126604 -0.00040726 0)
(0.126862 -0.000367736 0)
(0.127094 -0.000328205 0)
(0.127299 -0.000288693 0)
(0.127479 -0.000249223 0)
(0.127632 -0.000209818 0)
(0.127758 -0.000170502 0)
(0.127859 -0.000131298 0)
(0.127933 -9.22278e-05 0)
(0.127982 -5.33141e-05 0)
(0.128004 -1.45783e-05 0)
(0.128001 2.39582e-05 0)
(0.127972 6.2275e-05 0)
(0.127918 0.000100352 0)
(0.127838 0.000138169 0)
(0.127733 0.000175709 0)
(0.127603 0.000212952 0)
(0.127449 0.000249881 0)
(0.12727 0.000286479 0)
(0.127066 0.00032273 0)
(0.126839 0.000358619 0)
(0.126588 0.000394131 0)
(0.126313 0.000429251 0)
(0.126015 0.000463967 0)
(0.125694 0.000498267 0)
(0.12535 0.000532138 0)
(0.124984 0.000565569 0)
(0.124595 0.00059855 0)
(0.124185 0.000631072 0)
(0.123753 0.000663126 0)
(0.1233 0.000694704 0)
(0.122826 0.000725798 0)
(0.122332 0.000756403 0)
(0.121817 0.000786512 0)
(0.121283 0.00081612 0)
(0.120729 0.000845222 0)
(0.120155 0.000873815 0)
(0.119563 0.000901896 0)
(0.118952 0.000929461 0)
(0.118323 0.00095651 0)
(0.117676 0.000983041 0)
(0.117012 0.00100905 0)
(0.11633 0.00103454 0)
(0.115632 0.00105952 0)
(0.114917 0.00108397 0)
(0.114186 0.00110791 0)
(0.113439 0.00113133 0)
(0.112677 0.00115424 0)
(0.111899 0.00117664 0)
(0.111107 0.00119854 0)
(0.110301 0.00121992 0)
(0.10948 0.00124081 0)
(0.108645 0.00126121 0)
(0.107798 0.00128111 0)
(0.106937 0.00130052 0)
(0.106063 0.00131945 0)
(0.105177 0.00133791 0)
(0.104279 0.0013559 0)
(0.103368 0.00137342 0)
(0.102447 0.00139048 0)
(0.101514 0.00140708 0)
(0.10057 0.00142325 0)
(0.0996158 0.00143897 0)
(0.098651 0.00145425 0)
(0.0976762 0.00146911 0)
(0.0966917 0.00148355 0)
(0.0956977 0.00149758 0)
(0.0946944 0.00151119 0)
(0.0936822 0.00152441 0)
(0.0926614 0.00153724 0)
(0.0916321 0.00154968 0)
(0.0905947 0.00156175 0)
(0.0895493 0.00157344 0)
(0.0884963 0.00158477 0)
(0.0874359 0.00159575 0)
(0.0863682 0.00160637 0)
(0.0852936 0.00161665 0)
(0.0842123 0.0016266 0)
(0.0831244 0.00163623 0)
(0.0820303 0.00164553 0)
(0.08093 0.00165452 0)
(0.0798239 0.0016632 0)
(0.078712 0.00167158 0)
(0.0775947 0.00167968 0)
(0.0764721 0.00168749 0)
(0.0753444 0.00169502 0)
(0.0742118 0.00170228 0)
(0.0730744 0.00170927 0)
(0.0719324 0.00171601 0)
(0.0707861 0.0017225 0)
(0.0696355 0.00172874 0)
(0.0684808 0.00173475 0)
(0.0673222 0.00174052 0)
(0.0661598 0.00174607 0)
(0.0649938 0.0017514 0)
(0.0638244 0.00175652 0)
(0.0626516 0.00176143 0)
(0.0614756 0.00176614 0)
(0.0602965 0.00177066 0)
(0.0591145 0.00177499 0)
(0.0579296 0.00177913 0)
(0.0567421 0.0017831 0)
(0.0555519 0.00178689 0)
(0.0543593 0.00179052 0)
(0.0531644 0.00179399 0)
(0.0519672 0.00179731 0)
(0.0507678 0.00180047 0)
(0.0495664 0.00180348 0)
(0.048363 0.00180636 0)
(0.0471577 0.0018091 0)
(0.0459507 0.00181171 0)
(0.0447419 0.00181419 0)
(0.0435316 0.00181655 0)
(0.0423197 0.00181879 0)
(0.0411064 0.00182092 0)
(0.0398917 0.00182294 0)
(0.0386757 0.00182486 0)
(0.0374584 0.00182667 0)
(0.03624 0.00182839 0)
(0.0350205 0.00183001 0)
(0.0337999 0.00183155 0)
(0.0325783 0.00183299 0)
(0.0313558 0.00183436 0)
(0.0301324 0.00183564 0)
(0.0289082 0.00183685 0)
(0.0276832 0.00183799 0)
(0.0264574 0.00183905 0)
(0.025231 0.00184005 0)
(0.024004 0.00184098 0)
(0.0227763 0.00184185 0)
(0.0215481 0.00184265 0)
(0.0203194 0.00184341 0)
(0.0190901 0.0018441 0)
(0.0178605 0.00184474 0)
(0.0166304 0.00184533 0)
(0.0154 0.00184587 0)
(0.0141692 0.00184637 0)
(0.0129381 0.00184681 0)
(0.0117067 0.00184721 0)
(0.0104751 0.00184757 0)
(0.00924325 0.00184788 0)
(0.00801121 0.00184816 0)
(0.00677899 0.00184839 0)
(0.00554664 0.00184858 0)
(0.00431417 0.00184873 0)
(0.00308161 0.00184885 0)
(0.00184899 0.00184892 0)
(0.000616335 0.00184896 0)
(0.000747102 -0.00373521 0)
(0.00224128 -0.00373509 0)
(0.00373539 -0.00373484 0)
(0.00522938 -0.00373447 0)
(0.0067232 -0.00373398 0)
(0.0082168 -0.00373336 0)
(0.00971013 -0.00373261 0)
(0.0112031 -0.00373172 0)
(0.0126958 -0.00373068 0)
(0.0141879 -0.0037295 0)
(0.0156796 -0.00372817 0)
(0.0171708 -0.00372668 0)
(0.0186613 -0.00372501 0)
(0.0201511 -0.00372317 0)
(0.0216402 -0.00372114 0)
(0.0231284 -0.00371892 0)
(0.0246157 -0.00371648 0)
(0.0261019 -0.00371383 0)
(0.0275871 -0.00371095 0)
(0.0290711 -0.00370782 0)
(0.0305539 -0.00370444 0)
(0.0320352 -0.00370079 0)
(0.033515 -0.00369686 0)
(0.0349932 -0.00369262 0)
(0.0364697 -0.00368807 0)
(0.0379443 -0.00368319 0)
(0.0394168 -0.00367796 0)
(0.0408873 -0.00367237 0)
(0.0423554 -0.00366639 0)
(0.0438211 -0.00366002 0)
(0.0452842 -0.00365322 0)
(0.0467445 -0.00364599 0)
(0.0482018 -0.00363831 0)
(0.049656 -0.00363014 0)
(0.0511068 -0.00362148 0)
(0.0525541 -0.0036123 0)
(0.0539976 -0.00360259 0)
(0.0554372 -0.00359232 0)
(0.0568725 -0.00358147 0)
(0.0583034 -0.00357002 0)
(0.0597297 -0.00355794 0)
(0.061151 -0.00354523 0)
(0.062567 -0.00353185 0)
(0.0639777 -0.00351779 0)
(0.0653825 -0.00350302 0)
(0.0667814 -0.00348753 0)
(0.0681739 -0.00347129 0)
(0.0695598 -0.00345427 0)
(0.0709388 -0.00343647 0)
(0.0723104 -0.00341786 0)
(0.0736745 -0.00339843 0)
(0.0750307 -0.00337814 0)
(0.0763786 -0.00335698 0)
(0.0777179 -0.00333494 0)
(0.0790482 -0.003312 0)
(0.0803691 -0.00328814 0)
(0.0816804 -0.00326334 0)
(0.0829815 -0.00323759 0)
(0.0842722 -0.00321087 0)
(0.085552 -0.00318317 0)
(0.0868205 -0.00315448 0)
(0.0880774 -0.00312478 0)
(0.0893222 -0.00309406 0)
(0.0905545 -0.00306231 0)
(0.0917739 -0.00302954 0)
(0.09298 -0.00299571 0)
(0.0941723 -0.00296084 0)
(0.0953506 -0.00292491 0)
(0.0965142 -0.00288793 0)
(0.0976628 -0.00284988 0)
(0.098796 -0.00281077 0)
(0.0999133 -0.00277061 0)
(0.101014 -0.00272938 0)
(0.102099 -0.00268709 0)
(0.103166 -0.00264376 0)
(0.104216 -0.00259938 0)
(0.105247 -0.00255397 0)
(0.106261 -0.00250752 0)
(0.107255 -0.00246007 0)
(0.108231 -0.0024116 0)
(0.109186 -0.00236216 0)
(0.110122 -0.00231173 0)
(0.111037 -0.00226036 0)
(0.111932 -0.00220805 0)
(0.112805 -0.00215482 0)
(0.113657 -0.0021007 0)
(0.114488 -0.0020457 0)
(0.115295 -0.00198987 0)
(0.116081 -0.00193321 0)
(0.116843 -0.00187577 0)
(0.117583 -0.00181756 0)
(0.118299 -0.00175862 0)
(0.118991 -0.00169898 0)
(0.119659 -0.00163867 0)
(0.120303 -0.00157773 0)
(0.120923 -0.00151619 0)
(0.121517 -0.00145409 0)
(0.122087 -0.00139146 0)
(0.122631 -0.00132833 0)
(0.12315 -0.00126476 0)
(0.123644 -0.00120078 0)
(0.124111 -0.00113642 0)
(0.124553 -0.00107172 0)
(0.124969 -0.00100673 0)
(0.125359 -0.000941492 0)
(0.125723 -0.000876037 0)
(0.12606 -0.000810409 0)
(0.126372 -0.00074465 0)
(0.126656 -0.0006788 0)
(0.126915 -0.0006129 0)
(0.127147 -0.000546989 0)
(0.127352 -0.000481109 0)
(0.127531 -0.000415299 0)
(0.127684 -0.000349599 0)
(0.127811 -0.000284047 0)
(0.127911 -0.000218681 0)
(0.127985 -0.00015354 0)
(0.128034 -8.86593e-05 0)
(0.128056 -2.40763e-05 0)
(0.128052 4.01742e-05 0)
(0.128023 0.000104058 0)
(0.127968 0.000167541 0)
(0.127888 0.000230591 0)
(0.127783 0.000293177 0)
(0.127653 0.000355268 0)
(0.127498 0.000416835 0)
(0.127318 0.00047785 0)
(0.127114 0.000538286 0)
(0.126887 0.000598117 0)
(0.126635 0.000657319 0)
(0.126359 0.000715868 0)
(0.126061 0.000773742 0)
(0.125739 0.00083092 0)
(0.125395 0.000887384 0)
(0.125028 0.000943114 0)
(0.124639 0.000998093 0)
(0.124228 0.00105231 0)
(0.123796 0.00110574 0)
(0.123342 0.00115838 0)
(0.122868 0.00121021 0)
(0.122373 0.00126122 0)
(0.121857 0.00131141 0)
(0.121322 0.00136076 0)
(0.120767 0.00140927 0)
(0.120193 0.00145693 0)
(0.1196 0.00150373 0)
(0.118988 0.00154968 0)
(0.118359 0.00159476 0)
(0.117711 0.00163898 0)
(0.117046 0.00168233 0)
(0.116364 0.00172482 0)
(0.115665 0.00176644 0)
(0.114949 0.00180719 0)
(0.114217 0.00184709 0)
(0.11347 0.00188612 0)
(0.112707 0.0019243 0)
(0.111929 0.00196163 0)
(0.111136 0.00199812 0)
(0.110329 0.00203376 0)
(0.109507 0.00206857 0)
(0.108672 0.00210255 0)
(0.107824 0.00213572 0)
(0.106962 0.00216807 0)
(0.106088 0.00219962 0)
(0.105201 0.00223037 0)
(0.104302 0.00226034 0)
(0.103392 0.00228954 0)
(0.102469 0.00231796 0)
(0.101536 0.00234564 0)
(0.100591 0.00237256 0)
(0.0996364 0.00239876 0)
(0.0986711 0.00242423 0)
(0.0976958 0.00244899 0)
(0.0967107 0.00247304 0)
(0.0957161 0.00249641 0)
(0.0947123 0.0025191 0)
(0.0936996 0.00254113 0)
(0.0926783 0.0025625 0)
(0.0916485 0.00258323 0)
(0.0906105 0.00260332 0)
(0.0895647 0.00262281 0)
(0.0885112 0.00264168 0)
(0.0874503 0.00265996 0)
(0.0863822 0.00267766 0)
(0.0853071 0.0026948 0)
(0.0842253 0.00271137 0)
(0.0831371 0.0027274 0)
(0.0820425 0.00274289 0)
(0.0809418 0.00275787 0)
(0.0798353 0.00277233 0)
(0.078723 0.0027863 0)
(0.0776053 0.00279978 0)
(0.0764824 0.00281278 0)
(0.0753543 0.00282533 0)
(0.0742213 0.00283742 0)
(0.0730836 0.00284907 0)
(0.0719413 0.00286029 0)
(0.0707946 0.0028711 0)
(0.0696436 0.0028815 0)
(0.0684887 0.0028915 0)
(0.0673298 0.00290112 0)
(0.0661671 0.00291036 0)
(0.0650008 0.00291923 0)
(0.0638311 0.00292776 0)
(0.062658 0.00293594 0)
(0.0614817 0.00294378 0)
(0.0603024 0.0029513 0)
(0.0591201 0.00295851 0)
(0.057935 0.00296541 0)
(0.0567472 0.00297202 0)
(0.0555569 0.00297834 0)
(0.0543641 0.00298439 0)
(0.0531689 0.00299016 0)
(0.0519715 0.00299568 0)
(0.0507719 0.00300094 0)
(0.0495703 0.00300596 0)
(0.0483667 0.00301075 0)
(0.0471613 0.00301531 0)
(0.0459541 0.00301965 0)
(0.0447452 0.00302379 0)
(0.0435347 0.00302772 0)
(0.0423226 0.00303145 0)
(0.0411092 0.00303499 0)
(0.0398943 0.00303836 0)
(0.0386782 0.00304154 0)
(0.0374608 0.00304456 0)
(0.0362422 0.00304742 0)
(0.0350226 0.00305012 0)
(0.0338019 0.00305267 0)
(0.0325802 0.00305508 0)
(0.0313575 0.00305735 0)
(0.030134 0.00305949 0)
(0.0289097 0.0030615 0)
(0.0276846 0.00306339 0)
(0.0264588 0.00306516 0)
(0.0252323 0.00306682 0)
(0.0240052 0.00306836 0)
(0.0227774 0.00306981 0)
(0.0215491 0.00307116 0)
(0.0203203 0.0030724 0)
(0.019091 0.00307356 0)
(0.0178613 0.00307463 0)
(0.0166312 0.00307561 0)
(0.0154007 0.00307651 0)
(0.0141698 0.00307733 0)
(0.0129387 0.00307807 0)
(0.0117072 0.00307874 0)
(0.0104756 0.00307933 0)
(0.00924364 0.00307985 0)
(0.00801154 0.00308031 0)
(0.00677928 0.00308069 0)
(0.00554687 0.00308101 0)
(0.00431435 0.00308127 0)
(0.00308174 0.00308146 0)
(0.00184907 0.00308158 0)
(0.000616361 0.00308165 0)
(0.000747176 -0.00522946 0)
(0.0022415 -0.00522929 0)
(0.00373576 -0.00522895 0)
(0.0052299 -0.00522844 0)
(0.00672387 -0.00522776 0)
(0.00821763 -0.00522689 0)
(0.00971112 -0.00522584 0)
(0.0112043 -0.0052246 0)
(0.0126971 -0.00522317 0)
(0.0141895 -0.00522152 0)
(0.0156813 -0.00521967 0)
(0.0171727 -0.00521758 0)
(0.0186634 -0.00521527 0)
(0.0201534 -0.0052127 0)
(0.0216427 -0.00520987 0)
(0.0231312 -0.00520677 0)
(0.0246187 -0.00520338 0)
(0.0261053 -0.00519969 0)
(0.0275908 -0.00519567 0)
(0.0290751 -0.00519131 0)
(0.0305581 -0.0051866 0)
(0.0320398 -0.00518151 0)
(0.0335199 -0.00517602 0)
(0.0349985 -0.00517011 0)
(0.0364753 -0.00516376 0)
(0.0379503 -0.00515695 0)
(0.0394234 -0.00514966 0)
(0.0408942 -0.00514185 0)
(0.0423629 -0.00513351 0)
(0.043829 -0.00512461 0)
(0.0452926 -0.00511513 0)
(0.0467535 -0.00510503 0)
(0.0482114 -0.0050943 0)
(0.0496661 -0.00508289 0)
(0.0511176 -0.0050708 0)
(0.0525655 -0.00505798 0)
(0.0540097 -0.00504441 0)
(0.0554499 -0.00503006 0)
(0.0568859 -0.00501489 0)
(0.0583176 -0.00499889 0)
(0.0597446 -0.00498202 0)
(0.0611666 -0.00496425 0)
(0.0625835 -0.00494555 0)
(0.063995 -0.0049259 0)
(0.0654007 -0.00490525 0)
(0.0668005 -0.00488359 0)
(0.0681939 -0.00486088 0)
(0.0695807 -0.00483709 0)
(0.0709606 -0.0048122 0)
(0.0723333 -0.00478617 0)
(0.0736984 -0.00475898 0)
(0.0750556 -0.00473061 0)
(0.0764046 -0.00470102 0)
(0.0777449 -0.00467019 0)
(0.0790763 -0.00463809 0)
(0.0803984 -0.00460471 0)
(0.0817108 -0.00457001 0)
(0.0830131 -0.00453398 0)
(0.0843049 -0.00449659 0)
(0.0855859 -0.00445783 0)
(0.0868556 -0.00441767 0)
(0.0881137 -0.00437611 0)
(0.0893597 -0.00433312 0)
(0.0905933 -0.00428869 0)
(0.0918139 -0.00424281 0)
(0.0930213 -0.00419547 0)
(0.0942149 -0.00414665 0)
(0.0953944 -0.00409636 0)
(0.0965593 -0.00404458 0)
(0.0977092 -0.00399132 0)
(0.0988436 -0.00393657 0)
(0.0999623 -0.00388033 0)
(0.101065 -0.00382261 0)
(0.10215 -0.0037634 0)
(0.103219 -0.00370273 0)
(0.10427 -0.00364058 0)
(0.105303 -0.00357699 0)
(0.106317 -0.00351195 0)
(0.107313 -0.0034455 0)
(0.108289 -0.00337763 0)
(0.109246 -0.00330838 0)
(0.110183 -0.00323777 0)
(0.1111 -0.00316581 0)
(0.111995 -0.00309255 0)
(0.11287 -0.003018 0)
(0.113723 -0.00294219 0)
(0.114554 -0.00286517 0)
(0.115363 -0.00278696 0)
(0.116149 -0.00270761 0)
(0.116913 -0.00262714 0)
(0.117653 -0.00254561 0)
(0.11837 -0.00246305 0)
(0.119063 -0.00237951 0)
(0.119732 -0.00229503 0)
(0.120377 -0.00220966 0)
(0.120997 -0.00212346 0)
(0.121592 -0.00203646 0)
(0.122162 -0.00194872 0)
(0.122707 -0.0018603 0)
(0.123227 -0.00177124 0)
(0.123721 -0.00168161 0)
(0.124189 -0.00159145 0)
(0.124631 -0.00150082 0)
(0.125048 -0.00140978 0)
(0.125438 -0.00131839 0)
(0.125802 -0.00122669 0)
(0.126139 -0.00113476 0)
(0.126451 -0.00104264 0)
(0.126735 -0.00095039 0)
(0.126994 -0.000858073 0)
(0.127226 -0.000765742 0)
(0.127431 -0.000673455 0)
(0.12761 -0.000581266 0)
(0.127763 -0.000489231 0)
(0.127889 -0.000397404 0)
(0.12799 -0.00030584 0)
(0.128063 -0.00021459 0)
(0.128111 -0.000123707 0)
(0.128133 -3.32412e-05 0)
(0.128129 5.67577e-05 0)
(0.128099 0.000146241 0)
(0.128044 0.000235163 0)
(0.127964 0.000323478 0)
(0.127858 0.00041114 0)
(0.127727 0.000498109 0)
(0.127571 0.000584342 0)
(0.127391 0.000669801 0)
(0.127187 0.000754447 0)
(0.126958 0.000838245 0)
(0.126706 0.00092116 0)
(0.126429 0.00100316 0)
(0.12613 0.00108421 0)
(0.125808 0.00116429 0)
(0.125462 0.00124336 0)
(0.125095 0.00132141 0)
(0.124705 0.0013984 0)
(0.124293 0.00147432 0)
(0.123859 0.00154915 0)
(0.123405 0.00162286 0)
(0.122929 0.00169544 0)
(0.122433 0.00176687 0)
(0.121917 0.00183714 0)
(0.121381 0.00190624 0)
(0.120825 0.00197417 0)
(0.12025 0.0020409 0)
(0.119656 0.00210643 0)
(0.119043 0.00217075 0)
(0.118412 0.00223387 0)
(0.117764 0.00229578 0)
(0.117097 0.00235647 0)
(0.116414 0.00241595 0)
(0.115714 0.00247422 0)
(0.114997 0.00253128 0)
(0.114265 0.00258713 0)
(0.113516 0.00264177 0)
(0.112752 0.00269522 0)
(0.111973 0.00274747 0)
(0.111179 0.00279854 0)
(0.110371 0.00284843 0)
(0.109549 0.00289716 0)
(0.108713 0.00294472 0)
(0.107863 0.00299114 0)
(0.107001 0.00303642 0)
(0.106125 0.00308058 0)
(0.105238 0.00312362 0)
(0.104338 0.00316557 0)
(0.103426 0.00320642 0)
(0.102503 0.00324621 0)
(0.101569 0.00328494 0)
(0.100623 0.00332262 0)
(0.0996675 0.00335927 0)
(0.0987013 0.00339492 0)
(0.0977251 0.00342956 0)
(0.0967392 0.00346322 0)
(0.0957438 0.00349592 0)
(0.0947392 0.00352767 0)
(0.0937257 0.00355849 0)
(0.0927035 0.00358839 0)
(0.091673 0.0036174 0)
(0.0906343 0.00364552 0)
(0.0895877 0.00367278 0)
(0.0885335 0.00369919 0)
(0.0874719 0.00372476 0)
(0.0864031 0.00374953 0)
(0.0853274 0.00377349 0)
(0.0842449 0.00379668 0)
(0.083156 0.0038191 0)
(0.0820608 0.00384078 0)
(0.0809595 0.00386173 0)
(0.0798523 0.00388196 0)
(0.0787395 0.0039015 0)
(0.0776212 0.00392035 0)
(0.0764977 0.00393855 0)
(0.0753691 0.00395609 0)
(0.0742355 0.003973 0)
(0.0730973 0.0039893 0)
(0.0719545 0.004005 0)
(0.0708073 0.00402011 0)
(0.0696559 0.00403465 0)
(0.0685004 0.00404864 0)
(0.0673411 0.00406209 0)
(0.066178 0.00407501 0)
(0.0650112 0.00408742 0)
(0.0638411 0.00409934 0)
(0.0626676 0.00411078 0)
(0.0614909 0.00412175 0)
(0.0603112 0.00413227 0)
(0.0591286 0.00414234 0)
(0.0579431 0.00415199 0)
(0.056755 0.00416123 0)
(0.0555643 0.00417007 0)
(0.0543712 0.00417852 0)
(0.0531757 0.00418659 0)
(0.0519779 0.0041943 0)
(0.0507781 0.00420166 0)
(0.0495762 0.00420868 0)
(0.0483723 0.00421537 0)
(0.0471666 0.00422174 0)
(0.0459591 0.00422781 0)
(0.04475 0.00423359 0)
(0.0435393 0.00423908 0)
(0.042327 0.00424429 0)
(0.0411133 0.00424924 0)
(0.0398982 0.00425394 0)
(0.0386819 0.0042584 0)
(0.0374643 0.00426261 0)
(0.0362456 0.00426661 0)
(0.0350257 0.00427038 0)
(0.0338048 0.00427394 0)
(0.032583 0.00427731 0)
(0.0313602 0.00428048 0)
(0.0301365 0.00428346 0)
(0.0289121 0.00428627 0)
(0.0276868 0.00428891 0)
(0.0264609 0.00429138 0)
(0.0252342 0.00429369 0)
(0.024007 0.00429586 0)
(0.0227791 0.00429787 0)
(0.0215507 0.00429975 0)
(0.0203218 0.0043015 0)
(0.0190924 0.00430311 0)
(0.0178625 0.0043046 0)
(0.0166323 0.00430597 0)
(0.0154017 0.00430723 0)
(0.0141708 0.00430837 0)
(0.0129395 0.0043094 0)
(0.011708 0.00431033 0)
(0.0104762 0.00431116 0)
(0.00924423 0.00431189 0)
(0.00801205 0.00431252 0)
(0.0067797 0.00431306 0)
(0.00554721 0.00431351 0)
(0.00431462 0.00431386 0)
(0.00308193 0.00431413 0)
(0.00184918 0.0043143 0)
(0.000616398 0.00431439 0)
(0.000747272 -0.00672389 0)
(0.00224179 -0.00672367 0)
(0.00373625 -0.00672324 0)
(0.00523058 -0.00672258 0)
(0.00672476 -0.00672171 0)
(0.00821872 -0.00672061 0)
(0.00971243 -0.00671927 0)
(0.0112058 -0.00671769 0)
(0.0126989 -0.00671585 0)
(0.0141915 -0.00671376 0)
(0.0156836 -0.00671139 0)
(0.0171752 -0.00670873 0)
(0.0186662 -0.00670577 0)
(0.0201565 -0.00670249 0)
(0.0216461 -0.00669888 0)
(0.0231349 -0.00669492 0)
(0.0246228 -0.00669059 0)
(0.0261097 -0.00668587 0)
(0.0275955 -0.00668073 0)
(0.0290803 -0.00667516 0)
(0.0305637 -0.00666913 0)
(0.0320458 -0.00666262 0)
(0.0335264 -0.0066556 0)
(0.0350055 -0.00664804 0)
(0.0364829 -0.00663992 0)
(0.0379584 -0.0066312 0)
(0.039432 -0.00662186 0)
(0.0409035 -0.00661187 0)
(0.0423727 -0.00660119 0)
(0.0438396 -0.00658979 0)
(0.0453038 -0.00657764 0)
(0.0467654 -0.00656471 0)
(0.048224 -0.00655095 0)
(0.0496796 -0.00653634 0)
(0.0511318 -0.00652084 0)
(0.0525806 -0.00650441 0)
(0.0540256 -0.00648701 0)
(0.0554668 -0.00646861 0)
(0.0569038 -0.00644916 0)
(0.0583364 -0.00642864 0)
(0.0597644 -0.006407 0)
(0.0611875 -0.0063842 0)
(0.0626055 -0.00636022 0)
(0.0640181 -0.00633499 0)
(0.0654249 -0.0063085 0)
(0.0668259 -0.0062807 0)
(0.0682205 -0.00625155 0)
(0.0696086 -0.00622101 0)
(0.0709898 -0.00618905 0)
(0.0723638 -0.00615564 0)
(0.0737302 -0.00612073 0)
(0.0750888 -0.00608429 0)
(0.0764391 -0.00604629 0)
(0.0777809 -0.0060067 0)
(0.0791138 -0.00596547 0)
(0.0804374 -0.00592259 0)
(0.0817512 -0.00587801 0)
(0.0830551 -0.00583172 0)
(0.0843485 -0.00578369 0)
(0.085631 -0.00573388 0)
(0.0869024 -0.00568228 0)
(0.0881621 -0.00562887 0)
(0.0894097 -0.00557362 0)
(0.0906449 -0.00551652 0)
(0.0918673 -0.00545755 0)
(0.0930763 -0.00539669 0)
(0.0942716 -0.00533394 0)
(0.0954528 -0.00526929 0)
(0.0966194 -0.00520273 0)
(0.097771 -0.00513425 0)
(0.0989072 -0.00506385 0)
(0.100027 -0.00499154 0)
(0.101131 -0.00491732 0)
(0.102219 -0.00484119 0)
(0.103289 -0.00476316 0)
(0.104342 -0.00468324 0)
(0.105376 -0.00460145 0)
(0.106392 -0.00451781 0)
(0.10739 -0.00443233 0)
(0.108368 -0.00434504 0)
(0.109326 -0.00425597 0)
(0.110265 -0.00416514 0)
(0.111183 -0.00407258 0)
(0.11208 -0.00397833 0)
(0.112956 -0.00388243 0)
(0.11381 -0.00378491 0)
(0.114643 -0.00368582 0)
(0.115453 -0.0035852 0)
(0.116241 -0.00348311 0)
(0.117006 -0.00337958 0)
(0.117747 -0.00327468 0)
(0.118465 -0.00316846 0)
(0.119159 -0.00306097 0)
(0.119829 -0.00295227 0)
(0.120475 -0.00284243 0)
(0.121096 -0.00273151 0)
(0.121692 -0.00261957 0)
(0.122263 -0.00250668 0)
(0.122809 -0.0023929 0)
(0.123329 -0.00227831 0)
(0.123824 -0.00216297 0)
(0.124293 -0.00204695 0)
(0.124735 -0.00193034 0)
(0.125152 -0.00181319 0)
(0.125543 -0.00169558 0)
(0.125907 -0.00157759 0)
(0.126245 -0.00145929 0)
(0.126556 -0.00134075 0)
(0.126841 -0.00122205 0)
(0.1271 -0.00110326 0)
(0.127331 -0.000984452 0)
(0.127537 -0.000865701 0)
(0.127716 -0.000747078 0)
(0.127868 -0.000628654 0)
(0.127994 -0.000510499 0)
(0.128094 -0.000392683 0)
(0.128168 -0.000275273 0)
(0.128215 -0.000158337 0)
(0.128236 -4.19387e-05 0)
(0.128232 7.38568e-05 0)
(0.128202 0.000188988 0)
(0.128146 0.000303394 0)
(0.128064 0.000417016 0)
(0.127958 0.000529799 0)
(0.127826 0.000641685 0)
(0.12767 0.000752624 0)