/*--------------------------------*- C++ -*----------------------------------*\
| =========                 |                                                 |
| \\      /  F ield         | OpenFOAM: The Open Source CFD Toolbox           |
|  \\    /   O peration     | Version:  v2012                                 |
|   \\  /    A nd           | Website:  www.openfoam.com                      |
|    \\/     M anipulation  |                                                 |
\*---------------------------------------------------------------------------*/
FoamFile
{
    version     2.0;
    format      ascii;
    class       volScalarField;
    location    "6";
    object      W;
}
// * * * * * * * * * * * * * * * * * * * * * * * * * * * * * * * * * * * * * //

dimensions      [0 0 -1 0 0 0 0];


internalField   nonuniform List<scalar> 
65536
(
2.15368e-20
6.56132e-20
1.12748e-19
1.65143e-19
2.25234e-19
2.95798e-19
3.8006e-19
4.81821e-19
6.056e-19
7.56801e-19
9.41907e-19
1.16871e-18
1.44658e-18
1.78679e-18
2.20288e-18
2.71112e-18
3.331e-18
4.08589e-18
5.0037e-18
6.11776e-18
7.46777e-18
9.10093e-18
1.10732e-17
1.3451e-17
1.63127e-17
1.97509e-17
2.38742e-17
2.88108e-17
3.47105e-17
4.17488e-17
5.01305e-17
6.0094e-17
7.19169e-17
8.59206e-17
1.02477e-16
1.22017e-16
1.45035e-16
1.72101e-16
2.03867e-16
2.41081e-16
2.84595e-16
3.35382e-16
3.94546e-16
4.63337e-16
5.4317e-16
6.35641e-16
7.42546e-16
8.65897e-16
1.00795e-15
1.17122e-15
1.35851e-15
1.57294e-15
1.81793e-15
2.09731e-15
2.41524e-15
2.77632e-15
3.18559e-15
3.64851e-15
4.17105e-15
4.75966e-15
5.42132e-15
6.16354e-15
6.99435e-15
7.92235e-15
8.95669e-15
1.01071e-14
1.13837e-14
1.27973e-14
1.43591e-14
1.60808e-14
1.79745e-14
2.00525e-14
2.23275e-14
2.48124e-14
2.75202e-14
3.04637e-14
3.36558e-14
3.71089e-14
4.08351e-14
4.48458e-14
4.91517e-14
5.37625e-14
5.86867e-14
6.39314e-14
6.95022e-14
7.54027e-14
8.16347e-14
8.81975e-14
9.50881e-14
1.02301e-13
1.09827e-13
1.17654e-13
1.25768e-13
1.34151e-13
1.42779e-13
1.51629e-13
1.60671e-13
1.69872e-13
1.79196e-13
1.88603e-13
1.98052e-13
2.07494e-13
2.16882e-13
2.26163e-13
2.35285e-13
2.44191e-13
2.52825e-13
2.6113e-13
2.69046e-13
2.76517e-13
2.83487e-13
2.89899e-13
2.95703e-13
3.00847e-13
3.05287e-13
3.08979e-13
3.11888e-13
3.13982e-13
3.15236e-13
3.1563e-13
3.15153e-13
3.13799e-13
3.11571e-13
3.08478e-13
3.0454e-13
2.99779e-13
2.9423e-13
2.8793e-13
2.80927e-13
2.73273e-13
2.65025e-13
2.56247e-13
2.47006e-13
2.37372e-13
2.2742e-13
2.17225e-13
2.06863e-13
1.96412e-13
1.85947e-13
1.75545e-13
1.65277e-13
1.55213e-13
1.4542e-13
1.3596e-13
1.2689e-13
1.18265e-13
1.1013e-13
1.02528e-13
9.5494e-14
8.90592e-14
8.32473e-14
7.80763e-14
7.35584e-14
6.97001e-14
6.6502e-14
6.3959e-14
6.20609e-14
6.0792e-14
6.01316e-14
6.0054e-14
6.05288e-14
6.15211e-14
6.29917e-14
6.48974e-14
6.71908e-14
6.98215e-14
7.27355e-14
7.58762e-14
7.91847e-14
8.26002e-14
8.6061e-14
8.95046e-14
9.28689e-14
9.60927e-14
9.91169e-14
1.01885e-13
1.04344e-13
1.06445e-13
1.08146e-13
1.0941e-13
1.10206e-13
1.10512e-13
1.10313e-13
1.09602e-13
1.0838e-13
1.06658e-13
1.04452e-13
1.01789e-13
9.86989e-14
9.52212e-14
9.13989e-14
8.72796e-14
8.29142e-14
7.83555e-14
7.36572e-14
6.88727e-14
6.40541e-14
5.92511e-14
5.45103e-14
4.98742e-14
4.53807e-14
4.10628e-14
3.6948e-14
3.30585e-14
2.9411e-14
2.60169e-14
2.28825e-14
2.00098e-14
1.73963e-14
1.5036e-14
1.29198e-14
1.10361e-14
9.37115e-15
7.91009e-15
6.63692e-15
5.53524e-15
4.58859e-15
3.78081e-15
3.09629e-15
2.52022e-15
2.03876e-15
1.63914e-15
1.30971e-15
1.04001e-15
8.20716e-16
6.43625e-16
5.01591e-16
3.88451e-16
2.9894e-16
2.28605e-16
1.73714e-16
1.31168e-16
9.84134e-17
7.33687e-17
5.4349e-17
4.00029e-17
2.92554e-17
2.12584e-17
1.53484e-17
1.10102e-17
7.84745e-18
5.55721e-18
3.91001e-18
2.73332e-18
1.8984e-18
1.30997e-18
8.98048e-19
6.11584e-19
4.13643e-19
2.77677e-19
1.84725e-19
1.21313e-19
7.78824e-20
4.76213e-20
2.55907e-20
8.05419e-21
7.24835e-20
2.20822e-19
3.79444e-19
5.5575e-19
7.57933e-19
9.9532e-19
1.27875e-18
1.62099e-18
2.03723e-18
2.54562e-18
3.16793e-18
3.93031e-18
4.86424e-18
6.00753e-18
7.40563e-18
9.11311e-18
1.11954e-17
1.37309e-17
1.68131e-17
2.05538e-17
2.50861e-17
3.05681e-17
3.71875e-17
4.51666e-17
5.47678e-17
6.63009e-17
8.01304e-17
9.66842e-17
1.16464e-16
1.40057e-16
1.68147e-16
2.01532e-16
2.41139e-16
2.88041e-16
3.43483e-16
4.08898e-16
4.85939e-16
5.76506e-16
6.82776e-16
8.07239e-16
9.52737e-16
1.12251e-15
1.32022e-15
1.55004e-15
1.81667e-15
2.12542e-15
2.48225e-15
2.89384e-15
3.36768e-15
3.91211e-15
4.53641e-15
5.2509e-15
6.06695e-15
6.99716e-15
8.05534e-15
9.25667e-15
1.06177e-14
1.21566e-14
1.38928e-14
1.58478e-14
1.80444e-14
2.05072e-14
2.32627e-14
2.6339e-14
2.97661e-14
3.35756e-14
3.7801e-14
4.24773e-14
4.7641e-14
5.33301e-14
5.95837e-14
6.64421e-14
7.39462e-14
8.21375e-14
9.10578e-14
1.00748e-13
1.1125e-13
1.22603e-13
1.34846e-13
1.48014e-13
1.62141e-13
1.77257e-13
1.93388e-13
2.10556e-13
2.28777e-13
2.48062e-13
2.68412e-13
2.89826e-13
3.12289e-13
3.35781e-13
3.60272e-13
3.85721e-13
4.12077e-13
4.39277e-13
4.67248e-13
4.95906e-13
5.25154e-13
5.54884e-13
5.84978e-13
6.15304e-13
6.45721e-13
6.76081e-13
7.06222e-13
7.35978e-13
7.65174e-13
7.93632e-13
8.21168e-13
8.47597e-13
8.72733e-13
8.96394e-13
9.18397e-13
9.3857e-13
9.56746e-13
9.72769e-13
9.86493e-13
9.97789e-13
1.00654e-12
1.01266e-12
1.01606e-12
1.01669e-12
1.01451e-12
1.00952e-12
1.00173e-12
9.91179e-13
9.77921e-13
9.62046e-13
9.43663e-13
9.22901e-13
8.99914e-13
8.74872e-13
8.47965e-13
8.19396e-13
7.89384e-13
7.58158e-13
7.25953e-13
6.93013e-13
6.59582e-13
6.25907e-13
5.92229e-13
5.58787e-13
5.25812e-13
4.93524e-13
4.62133e-13
4.31835e-13
4.0281e-13
3.75225e-13
3.49226e-13
3.24943e-13
3.02487e-13
2.8195e-13
2.63405e-13
2.46908e-13
2.32492e-13
2.20175e-13
2.09955e-13
2.01815e-13
1.95719e-13
1.91615e-13
1.89433e-13
1.89093e-13
1.90494e-13
1.93526e-13
1.98064e-13
2.03968e-13
2.11089e-13
2.19268e-13
2.28334e-13
2.38107e-13
2.48403e-13
2.59031e-13
2.69796e-13
2.80502e-13
2.90956e-13
3.00966e-13
3.10346e-13
3.18921e-13
3.26526e-13
3.3301e-13
3.3824e-13
3.42101e-13
3.44501e-13
3.45368e-13
3.44659e-13
3.42353e-13
3.38456e-13
3.32998e-13
3.26036e-13
3.1765e-13
3.07939e-13
2.97023e-13
2.85039e-13
2.72135e-13
2.5847e-13
2.4421e-13
2.29521e-13
2.14571e-13
1.99521e-13
1.84526e-13
1.69731e-13
1.55268e-13
1.41254e-13
1.27792e-13
1.14968e-13
1.02849e-13
9.14864e-14
8.09162e-14
7.11574e-14
6.22151e-14
5.40815e-14
4.67374e-14
4.01541e-14
3.4295e-14
2.91176e-14
2.45749e-14
2.0617e-14
1.71927e-14
1.42508e-14
1.17408e-14
9.61415e-15
7.82465e-15
6.32923e-15
5.08814e-15
4.06518e-15
3.22779e-15
2.54697e-15
1.99724e-15
1.55638e-15
1.20523e-15
9.27442e-16
7.09186e-16
5.38869e-16
4.06864e-16
3.05247e-16
2.27554e-16
1.68556e-16
1.24058e-16
9.07235e-17
6.59215e-17
4.75928e-17
3.41397e-17
2.4332e-17
1.72304e-17
1.21228e-17
8.47433e-18
5.88564e-18
4.06127e-18
2.78414e-18
1.89602e-18
1.28235e-18
8.60833e-19
5.72669e-19
3.76084e-19
2.41444e-19
1.47632e-19
7.9335e-20
2.49698e-20
1.49683e-19
4.56e-19
7.83518e-19
1.14749e-18
1.56479e-18
2.05464e-18
2.63937e-18
3.34526e-18
4.20357e-18
5.25165e-18
6.53428e-18
8.10526e-18
1.00293e-17
1.23841e-17
1.5263e-17
1.87782e-17
2.3064e-17
2.82811e-17
3.46218e-17
4.23151e-17
5.16339e-17
6.29025e-17
7.65052e-17
9.28973e-17
1.12616e-16
1.36296e-16
1.64681e-16
1.98648e-16
2.39221e-16
2.87599e-16
3.4518e-16
4.1359e-16
4.94719e-16
5.90757e-16
7.04235e-16
8.38074e-16
9.95636e-16
1.18078e-15
1.39793e-15
1.65215e-15
1.94919e-15
2.29562e-15
2.69887e-15
3.16737e-15
3.71064e-15
4.33937e-15
5.06562e-15
5.90285e-15
6.86614e-15
7.97227e-15
9.23991e-15
1.06897e-14
1.23446e-14
1.42296e-14
1.63726e-14
1.88037e-14
2.1556e-14
2.46655e-14
2.81712e-14
3.21154e-14
3.65435e-14
4.15041e-14
4.70496e-14
5.32353e-14
6.01202e-14
6.77664e-14
7.62393e-14
8.56072e-14
9.59414e-14
1.07316e-13
1.19805e-13
1.33489e-13
1.48444e-13
1.64751e-13
1.82489e-13
2.01736e-13
2.2257e-13
2.45066e-13
2.69293e-13
2.95319e-13
3.23205e-13
3.53003e-13
3.8476e-13
4.18511e-13
4.54281e-13
4.92084e-13
5.31919e-13
5.73769e-13
6.17603e-13
6.63373e-13
7.11009e-13
7.60425e-13
8.11514e-13
8.64145e-13
9.1817e-13
9.73415e-13
1.02969e-12
1.08677e-12
1.14443e-12
1.2024e-12
1.26041e-12
1.31817e-12
1.37536e-12
1.43167e-12
1.48675e-12
1.54026e-12
1.59186e-12
1.64119e-12
1.68789e-12
1.73164e-12
1.77208e-12
1.80889e-12
1.84177e-12
1.87044e-12
1.89462e-12
1.91409e-12
1.92864e-12
1.93811e-12
1.94237e-12
1.94134e-12
1.93496e-12
1.92324e-12
1.90623e-12
1.884e-12
1.8567e-12
1.82451e-12
1.78764e-12
1.74637e-12
1.70099e-12
1.65184e-12
1.59929e-12
1.54373e-12
1.48558e-12
1.42529e-12
1.36329e-12
1.30006e-12
1.23605e-12
1.17171e-12
1.10752e-12
1.0439e-12
9.81295e-13
9.20099e-13
8.607e-13
8.03457e-13
7.48698e-13
6.96721e-13
6.47791e-13
6.02138e-13
5.59956e-13
5.21406e-13
4.86612e-13
4.55664e-13
4.28614e-13
4.05485e-13
3.86263e-13
3.70903e-13
3.59331e-13
3.51441e-13
3.47099e-13
3.46144e-13
3.48389e-13
3.53622e-13
3.61607e-13
3.72086e-13
3.84781e-13
3.99395e-13
4.15615e-13
4.3311e-13
4.51543e-13
4.70564e-13
4.89819e-13
5.08953e-13
5.27613e-13
5.45454e-13
5.62142e-13
5.7736e-13
5.90812e-13
6.02229e-13
6.11373e-13
6.18041e-13
6.22068e-13
6.23332e-13
6.21756e-13
6.17307e-13
6.09999e-13
5.99892e-13
5.87091e-13
5.7174e-13
5.54025e-13
5.34163e-13
5.12401e-13
4.89008e-13
4.64271e-13
4.38487e-13
4.11957e-13
3.84981e-13
3.57849e-13
3.30838e-13
3.04206e-13
2.7819e-13
2.52998e-13
2.28813e-13
2.05786e-13
1.84037e-13
1.63656e-13
1.44705e-13
1.27217e-13
1.11199e-13
9.66355e-14
8.34908e-14
7.17122e-14
6.12331e-14
5.19765e-14
4.38572e-14
3.67854e-14
3.06691e-14
2.54158e-14
2.0935e-14
1.71395e-14
1.39466e-14
1.12791e-14
9.06581e-15
7.24192e-15
5.74919e-15
4.53584e-15
3.5563e-15
2.77089e-15
2.14543e-15
1.65072e-15
1.2621e-15
9.58879e-16
7.23903e-16
5.43046e-16
4.04786e-16
2.99808e-16
2.2064e-16
1.61341e-16
1.17224e-16
8.46254e-17
6.07002e-17
4.32596e-17
3.06319e-17
2.15508e-17
1.50641e-17
1.0462e-17
7.21886e-18
4.94865e-18
3.36998e-18
2.27921e-18
1.52999e-18
1.01782e-18
6.68421e-19
4.29123e-19
2.6239e-19
1.41006e-19
4.43807e-20
2.80204e-19
8.53594e-19
1.46658e-18
2.14765e-18
2.92832e-18
3.84445e-18
4.93769e-18
6.25708e-18
7.86088e-18
9.81871e-18
1.2214e-17
1.51469e-17
1.8738e-17
2.31317e-17
2.85019e-17
3.5057e-17
4.30466e-17
5.27696e-17
6.45827e-17
7.89113e-17
9.62618e-17
1.17235e-16
1.42545e-16
1.73033e-16
2.09696e-16
2.53707e-16
3.06444e-16
3.69526e-16
4.44846e-16
5.34617e-16
6.41419e-16
7.68252e-16
9.18599e-16
1.09649e-15
1.30659e-15
1.55426e-15
1.84568e-15
2.18794e-15
2.58914e-15
3.05856e-15
3.60675e-15
4.2457e-15
4.989e-15
5.85203e-15
6.85213e-15
8.0088e-15
9.34393e-15
1.0882e-14
1.26504e-14
1.46795e-14
1.7003e-14
1.96584e-14
2.26867e-14
2.61335e-14
3.00484e-14
3.44857e-14
3.95048e-14
4.51699e-14
5.15507e-14
5.87223e-14
6.67655e-14
7.57668e-14
8.58183e-14
9.7018e-14
1.09469e-13
1.23282e-13
1.38569e-13
1.55451e-13
1.7405e-13
1.94495e-13
2.16916e-13
2.41446e-13
2.6822e-13
2.97372e-13
3.29036e-13
3.63345e-13
4.00425e-13
4.404e-13
4.83385e-13
5.29486e-13
5.78798e-13
6.31403e-13
6.87368e-13
7.46742e-13
8.09553e-13
8.75808e-13
9.4549e-13
1.01855e-12
1.09493e-12
1.17451e-12
1.25715e-12
1.3427e-12
1.43094e-12
1.52164e-12
1.61451e-12
1.70924e-12
1.80548e-12
1.90284e-12
2.00091e-12
2.09921e-12
2.19728e-12
2.2946e-12
2.39062e-12
2.4848e-12
2.57655e-12
2.66529e-12
2.75044e-12
2.8314e-12
2.90758e-12
2.97842e-12
3.04335e-12
3.10186e-12
3.15345e-12
3.19766e-12
3.23407e-12
3.26234e-12
3.28215e-12
3.29327e-12
3.29551e-12
3.28877e-12
3.27303e-12
3.24831e-12
3.21474e-12
3.1725e-12
3.12187e-12
3.06319e-12
2.99686e-12
2.92336e-12
2.84323e-12
2.75705e-12
2.66547e-12
2.56916e-12
2.46885e-12
2.36527e-12
2.25918e-12
2.15136e-12
2.04256e-12
1.93356e-12
1.82509e-12
1.71789e-12
1.61264e-12
1.51e-12
1.41059e-12
1.31498e-12
1.2237e-12
1.13719e-12
1.05589e-12
9.80132e-13
9.10218e-13
8.46383e-13
7.88804e-13
7.37601e-13
6.92837e-13
6.54521e-13
6.22609e-13
5.97006e-13
5.7757e-13
5.64109e-13
5.56389e-13
5.54134e-13
5.57025e-13
5.64708e-13
5.76791e-13
5.92851e-13
6.12432e-13
6.3505e-13
6.602e-13
6.87352e-13
7.15962e-13
7.45474e-13
7.75324e-13
8.04951e-13
8.33798e-13
8.6132e-13
8.86994e-13
9.10324e-13
9.30851e-13
9.48157e-13
9.61874e-13
9.71689e-13
9.77355e-13
9.78686e-13
9.75569e-13
9.67963e-13
9.55897e-13
9.39474e-13
9.18864e-13
8.94302e-13
8.66081e-13
8.34549e-13
8.00095e-13
7.63143e-13
7.24143e-13
6.83561e-13
6.41868e-13
5.99528e-13
5.56996e-13
5.147e-13
4.7304e-13
4.32381e-13
3.93046e-13
3.55314e-13
3.19415e-13
2.85534e-13
2.53808e-13
2.24326e-13
1.97137e-13
1.72249e-13
1.49633e-13
1.29232e-13
1.10961e-13
9.47139e-14
8.03689e-14
6.77922e-14
5.68431e-14
4.73772e-14
3.92504e-14
3.23213e-14
2.64542e-14
2.15203e-14
1.73997e-14
1.39819e-14
1.11663e-14
8.8626e-15
6.99062e-15
5.47979e-15
4.26872e-15
3.30451e-15
2.54207e-15
1.94326e-15
1.47614e-15
1.11423e-15
8.3573e-16
6.22865e-16
4.61268e-16
3.39422e-16
2.4817e-16
1.80291e-16
1.30141e-16
9.33391e-17
6.65149e-17
4.70952e-17
3.3131e-17
2.31574e-17
1.60819e-17
1.10961e-17
7.60623e-18
5.1796e-18
3.50302e-18
2.35147e-18
1.56428e-18
1.02729e-18
6.59514e-19
4.03267e-19
2.16713e-19
6.82098e-20
5.08438e-19
1.54881e-18
2.66087e-18
3.89614e-18
5.31166e-18
6.97229e-18
8.95334e-18
1.13434e-17
1.42478e-17
1.77922e-17
2.21272e-17
2.74337e-17
3.39287e-17
4.18732e-17
5.15801e-17
6.34251e-17
7.78576e-17
9.54155e-17
1.16741e-16
1.42598e-16
1.73897e-16
2.11719e-16
2.57342e-16
3.1228e-16
3.78319e-16
4.57561e-16
5.52476e-16
6.6596e-16
8.01402e-16
9.62759e-16
1.15464e-15
1.3824e-15
1.65225e-15
1.97137e-15
2.34808e-15
2.79191e-15
3.31386e-15
3.92651e-15
4.64426e-15
5.48353e-15
6.46302e-15
7.60394e-15
8.93031e-15
1.04693e-14
1.22514e-14
1.4311e-14
1.66867e-14
1.94213e-14
2.25629e-14
2.61647e-14
3.02856e-14
3.4991e-14
4.03526e-14
4.64494e-14
5.33675e-14
6.12013e-14
7.00531e-14
8.00341e-14
9.12641e-14
1.03872e-13
1.17997e-13
1.33785e-13
1.51395e-13
1.70993e-13
1.92754e-13
2.16863e-13
2.43511e-13
2.72898e-13
3.05232e-13
3.40723e-13
3.79587e-13
4.22045e-13
4.68315e-13
5.18616e-13
5.73165e-13
6.32171e-13
6.95838e-13
7.64356e-13
8.37903e-13
9.16638e-13
1.0007e-12
1.09021e-12
1.18525e-12
1.28587e-12
1.3921e-12
1.50392e-12
1.62127e-12
1.74405e-12
1.87209e-12
2.00519e-12
2.14308e-12
2.28546e-12
2.43195e-12
2.58211e-12
2.73544e-12
2.89139e-12
3.04935e-12
3.20866e-12
3.36858e-12
3.52835e-12
3.68715e-12
3.84412e-12
3.99836e-12
4.14895e-12
4.29496e-12
4.43542e-12
4.56939e-12
4.69592e-12
4.81407e-12
4.92294e-12
5.02166e-12
5.10943e-12
5.18549e-12
5.24914e-12
5.29978e-12
5.33689e-12
5.36005e-12
5.36894e-12
5.36334e-12
5.34318e-12
5.30846e-12
5.25933e-12
5.19607e-12
5.11905e-12
5.02878e-12
4.92587e-12
4.81105e-12
4.68514e-12
4.54906e-12
4.40379e-12
4.25042e-12
4.09005e-12
3.92386e-12
3.75306e-12
3.57887e-12
3.40251e-12
3.22521e-12
3.04816e-12
2.87255e-12
2.69949e-12
2.53006e-12
2.36526e-12
2.20604e-12
2.05325e-12
1.90768e-12
1.77001e-12
1.64084e-12
1.52067e-12
1.40992e-12
1.30891e-12
1.21786e-12
1.13692e-12
1.06614e-12
1.00549e-12
9.54856e-13
9.14052e-13
8.8282e-13
8.60829e-13
8.47684e-13
8.42931e-13
8.46054e-13
8.56485e-13
8.73603e-13
8.96742e-13
9.25194e-13
9.58209e-13
9.95007e-13
1.03478e-12
1.0767e-12
1.11992e-12
1.1636e-12
1.20688e-12
1.24895e-12
1.28897e-12
1.32618e-12
1.35985e-12
1.3893e-12
1.41391e-12
1.43316e-12
1.44658e-12
1.45383e-12
1.45465e-12
1.44887e-12
1.43646e-12
1.41748e-12
1.39209e-12
1.36055e-12
1.32322e-12
1.28056e-12
1.23308e-12
1.18136e-12
1.12605e-12
1.0678e-12
1.00731e-12
9.45273e-13
8.82374e-13
8.19278e-13
7.56616e-13
6.94971e-13
6.34876e-13
5.76799e-13
5.21143e-13
4.68241e-13
4.18357e-13
3.71684e-13
3.28348e-13
2.88412e-13
2.51882e-13
2.18711e-13
1.88808e-13
1.62043e-13
1.38258e-13
1.1727e-13
9.88799e-14
8.28779e-14
6.90508e-14
5.71855e-14
4.70738e-14
3.85156e-14
3.1322e-14
2.53167e-14
2.03375e-14
1.62373e-14
1.28838e-14
1.01597e-14
7.96193e-15
6.20075e-15
4.79901e-15
3.69091e-15
2.82086e-15
2.14235e-15
1.61679e-15
1.21245e-15
9.03478e-16
6.6897e-16
4.92183e-16
3.5981e-16
2.61361e-16
1.88637e-16
1.35278e-16
9.6391e-17
6.82423e-17
4.80037e-17
3.35503e-17
2.32978e-17
1.60739e-17
1.10179e-17
7.50255e-18
5.07389e-18
3.40587e-18
2.26568e-18
1.4879e-18
9.55222e-19
5.84083e-19
3.13885e-19
9.87953e-20
9.09807e-19
2.77137e-18
4.76087e-18
6.97029e-18
9.50138e-18
1.24698e-17
1.60099e-17
2.02796e-17
2.54663e-17
3.17939e-17
3.95306e-17
4.8998e-17
6.05824e-17
7.47476e-17
9.20498e-17
1.13156e-16
1.38865e-16
1.7013e-16
2.08091e-16
2.54103e-16
3.0978e-16
3.77034e-16
4.58131e-16
5.55748e-16
6.73042e-16
8.1373e-16
9.82173e-16
1.18348e-15
1.42364e-15
1.70962e-15
2.04953e-15
2.4528e-15
2.93037e-15
3.49485e-15
4.16083e-15
4.94506e-15
5.86679e-15
6.94807e-15
8.21409e-15
9.69353e-15
1.1419e-14
1.34276e-14
1.57611e-14
1.84667e-14
2.15976e-14
2.52133e-14
2.93805e-14
3.41738e-14
3.96758e-14
4.59784e-14
5.31834e-14
6.14029e-14
7.07601e-14
8.13901e-14
9.34407e-14
1.07073e-13
1.2246e-13
1.39792e-13
1.59272e-13
1.81117e-13
2.05562e-13
2.32855e-13
2.63259e-13
2.97053e-13
3.34529e-13
3.75992e-13
4.21762e-13
4.72166e-13
5.27544e-13
5.88241e-13
6.54608e-13
7.26998e-13
8.05764e-13
8.91253e-13
9.83807e-13
1.08375e-12
1.1914e-12
1.30705e-12
1.43096e-12
1.56335e-12
1.70443e-12
1.85435e-12
2.01321e-12
2.18105e-12
2.35786e-12
2.54357e-12
2.73801e-12
2.94096e-12
3.15211e-12
3.37106e-12
3.59732e-12
3.83032e-12
4.06937e-12
4.31372e-12
4.56249e-12
4.81474e-12
5.06942e-12
5.32539e-12
5.58144e-12
5.83629e-12
6.08857e-12
6.33688e-12
6.57976e-12
6.81572e-12
7.04324e-12
7.2608e-12
7.46689e-12
7.66003e-12
7.83877e-12
8.0017e-12
8.14753e-12
8.27501e-12
8.38303e-12
8.47059e-12
8.53681e-12
8.581e-12
8.60259e-12
8.6012e-12
8.57663e-12
8.52886e-12
8.45806e-12
8.36458e-12
8.24899e-12
8.11202e-12
7.95458e-12
7.77776e-12
7.58281e-12
7.37113e-12
7.14424e-12
6.90378e-12
6.65151e-12
6.38922e-12
6.11882e-12
5.8422e-12
5.56129e-12
5.27803e-12
4.99431e-12
4.71199e-12
4.43286e-12
4.15863e-12
3.89093e-12
3.63126e-12
3.38102e-12
3.14147e-12
2.91373e-12
2.6988e-12
2.49752e-12
2.31058e-12
2.13854e-12
1.9818e-12
1.84065e-12
1.71521e-12
1.60548e-12
1.51135e-12
1.43259e-12
1.36883e-12
1.31962e-12
1.28441e-12
1.26255e-12
1.2533e-12
1.25585e-12
1.26929e-12
1.29268e-12
1.32499e-12
1.36512e-12
1.41196e-12
1.46432e-12
1.52099e-12
1.58074e-12
1.64233e-12
1.7045e-12
1.766e-12
1.82564e-12
1.88221e-12
1.93462e-12
1.98178e-12
2.02275e-12
2.05663e-12
2.08269e-12
2.10027e-12
2.1089e-12
2.10822e-12
2.09802e-12
2.07827e-12
2.04908e-12
2.01071e-12
1.96356e-12
1.90816e-12
1.84519e-12
1.7754e-12
1.69965e-12
1.61886e-12
1.534e-12
1.44607e-12
1.35605e-12
1.26495e-12
1.1737e-12
1.08321e-12
9.94314e-13
9.07757e-13
8.24205e-13
7.44224e-13
6.6828e-13
5.96739e-13
5.29864e-13
4.67827e-13
4.10705e-13
3.58496e-13
3.11125e-13
2.68453e-13
2.30287e-13
1.96392e-13
1.66503e-13
1.40329e-13
1.17568e-13
9.79124e-14
8.10547e-14
6.66961e-14
5.45498e-14
4.43452e-14
3.58302e-14
2.87734e-14
2.29649e-14
1.82162e-14
1.43603e-14
1.12505e-14
8.75945e-15
6.77748e-15
5.21121e-15
3.98183e-15
3.02337e-15
2.28118e-15
1.71033e-15
1.27423e-15
9.43312e-16
6.93905e-16
5.07196e-16
3.68365e-16
2.6583e-16
1.90611e-16
1.35802e-16
9.61338e-17
6.76168e-17
4.7254e-17
3.28113e-17
2.26361e-17
1.55152e-17
1.05644e-17
7.14434e-18
4.79554e-18
3.19007e-18
2.09494e-18
1.34494e-18
8.22385e-19
4.41952e-19
1.39105e-19
1.61332e-18
4.91415e-18
8.44129e-18
1.23574e-17
1.68424e-17
2.21008e-17
2.83698e-17
3.59283e-17
4.51075e-17
5.63022e-17
6.99856e-17
8.67249e-17
1.07201e-16
1.32231e-16
1.62794e-16
2.00066e-16
2.4545e-16
3.00626e-16
3.67595e-16
4.4874e-16
5.46895e-16
6.65417e-16
8.08282e-16
9.80185e-16
1.18666e-15
1.43421e-15
1.73048e-15
2.08441e-15
2.50646e-15
3.0088e-15
3.6056e-15
4.31332e-15
5.151e-15
6.14064e-15
7.3076e-15
8.68104e-15
1.02944e-14
1.21859e-14
1.43993e-14
1.69842e-14
1.99972e-14
2.35022e-14
2.75714e-14
3.22863e-14
3.77383e-14
4.403e-14
5.12759e-14
5.96037e-14
6.91553e-14
8.00877e-14
9.25746e-14
1.06807e-13
1.22995e-13
1.41367e-13
1.62175e-13
1.85689e-13
2.12205e-13
2.4204e-13
2.75535e-13
3.13057e-13
3.54995e-13
4.01764e-13
4.53801e-13
5.11567e-13
5.75545e-13
6.46238e-13
7.24166e-13
8.09866e-13
9.03887e-13
1.00679e-12
1.11913e-12
1.24148e-12
1.3744e-12
1.51842e-12
1.67409e-12
1.8419e-12
2.02233e-12
2.2158e-12
2.42271e-12
2.64338e-12
2.87806e-12
3.12694e-12
3.39012e-12
3.66758e-12
3.95925e-12
4.26489e-12
4.58417e-12
4.91662e-12
5.26166e-12
5.61852e-12
5.98634e-12
6.36407e-12
6.75053e-12
7.14439e-12
7.54416e-12
7.94821e-12
8.35479e-12
8.76199e-12
9.16781e-12
9.57011e-12
9.96669e-12
1.03553e-11
1.07335e-11
1.10989e-11
1.14492e-11
1.1782e-11
1.20948e-11
1.23854e-11
1.26516e-11
1.28913e-11
1.31024e-11
1.32832e-11
1.3432e-11
1.35475e-11
1.36283e-11
1.36737e-11
1.36829e-11
1.36555e-11
1.35914e-11
1.34907e-11
1.33541e-11
1.31821e-11
1.2976e-11
1.2737e-11
1.24669e-11
1.21674e-11
1.18407e-11
1.14891e-11
1.11151e-11
1.07215e-11
1.0311e-11
9.88646e-12
9.45096e-12
9.00748e-12
8.55901e-12
8.10855e-12
7.65901e-12
7.21321e-12
6.77389e-12
6.3436e-12
5.92475e-12
5.51959e-12
5.13013e-12
4.75821e-12
4.40544e-12
4.07319e-12
3.76263e-12
3.4747e-12
3.2101e-12
2.96932e-12
2.75267e-12
2.5602e-12
2.39182e-12
2.24722e-12
2.12593e-12
2.02734e-12
1.95065e-12
1.89495e-12
1.85919e-12
1.84218e-12
1.84266e-12
1.85924e-12
1.89043e-12
1.93468e-12
1.99035e-12
2.05575e-12
2.12913e-12
2.20869e-12
2.29262e-12
2.37909e-12
2.46629e-12
2.5524e-12
2.63569e-12
2.71446e-12
2.7871e-12
2.85211e-12
2.90812e-12
2.9539e-12
2.9884e-12
3.01074e-12
3.02025e-12
3.01646e-12
2.99913e-12
2.96823e-12
2.92394e-12
2.86668e-12
2.79705e-12
2.71586e-12
2.62405e-12
2.52275e-12
2.41318e-12
2.29666e-12
2.17459e-12
2.04838e-12
1.91944e-12
1.78918e-12
1.65893e-12
1.52995e-12
1.40342e-12
1.28039e-12
1.16177e-12
1.04836e-12
9.40784e-13
8.39551e-13
7.45016e-13
6.574e-13
5.76799e-13
5.03195e-13
4.36465e-13
3.76401e-13
3.2272e-13
2.75082e-13
2.33102e-13
1.96365e-13
1.6444e-13
1.36886e-13
1.13269e-13
9.31644e-14
7.61668e-14
6.18939e-14
4.99903e-14
4.013e-14
3.20175e-14
2.53883e-14
2.00077e-14
1.56701e-14
1.21968e-14
9.43432e-15
7.25208e-15
5.53978e-15
4.20526e-15
3.17218e-15
2.37783e-15
1.77116e-15
1.31093e-15
9.64146e-16
7.04601e-16
5.11652e-16
3.69177e-16
2.64678e-16
1.88547e-16
1.33457e-16
9.38585e-17
6.55868e-17
4.55371e-17
3.14132e-17
2.15298e-17
1.46591e-17
9.91305e-18
6.6538e-18
4.42613e-18
2.90664e-18
1.86604e-18
1.14103e-18
6.13195e-19
1.93006e-19
2.83896e-18
8.64713e-18
1.48526e-17
2.17408e-17
2.96275e-17
3.88715e-17
4.98885e-17
6.31677e-17
7.92891e-17
9.89446e-17
1.22962e-16
1.52335e-16
1.88254e-16
2.32149e-16
2.85731e-16
3.51054e-16
4.3057e-16
5.27211e-16
6.4447e-16
7.86505e-16
9.58252e-16
1.16557e-15
1.41537e-15
1.71584e-15
2.0766e-15
2.50896e-15
3.02621e-15
3.64387e-15
4.38008e-15
5.25598e-15
6.29612e-15
7.529e-15
8.98758e-15
1.07099e-14
1.27398e-14
1.51276e-14
1.7931e-14
2.12159e-14
2.50575e-14
2.95413e-14
3.47645e-14
4.08366e-14
4.78817e-14
5.6039e-14
6.54652e-14
7.63352e-14
8.88445e-14
1.03211e-13
1.19675e-13
1.38504e-13
1.59992e-13
1.84463e-13
2.1227e-13
2.43802e-13
2.79479e-13
3.19758e-13
3.65133e-13
4.16134e-13
4.73332e-13
5.37335e-13
6.0879e-13
6.88383e-13
7.76835e-13
8.74906e-13
9.83384e-13
1.10309e-12
1.23488e-12
1.3796e-12
1.53816e-12
1.71144e-12
1.90034e-12
2.10574e-12
2.32854e-12
2.56956e-12
2.82964e-12
3.10953e-12
3.40994e-12
3.73149e-12
4.07473e-12
4.4401e-12
4.82792e-12
5.23838e-12
5.67151e-12
6.12721e-12
6.60516e-12
7.1049e-12
7.62573e-12
8.16675e-12
8.72685e-12
9.30468e-12
9.89865e-12
1.0507e-11
1.11276e-11
1.17581e-11
1.23962e-11
1.3039e-11
1.36836e-11
1.43268e-11
1.49654e-11
1.55959e-11
1.62146e-11
1.6818e-11
1.74023e-11
1.79636e-11
1.84982e-11
1.90025e-11
1.94726e-11
1.99051e-11
2.02967e-11
2.06441e-11
2.09444e-11
2.11951e-11
2.13937e-11
2.15384e-11
2.16276e-11
2.16599e-11
2.16348e-11
2.15519e-11
2.14114e-11
2.12139e-11
2.09604e-11
2.06526e-11
2.02924e-11
1.98822e-11
1.94248e-11
1.89234e-11
1.83817e-11
1.78033e-11
1.71925e-11
1.65535e-11
1.58908e-11
1.5209e-11
1.45128e-11
1.38069e-11
1.3096e-11
1.23845e-11
1.1677e-11
1.09778e-11
1.02908e-11
9.61998e-12
8.96885e-12
8.34067e-12
7.73836e-12
7.16454e-12
6.62147e-12
6.11106e-12
5.63486e-12
5.1941e-12
4.78966e-12
4.42207e-12
4.09158e-12
3.79812e-12
3.54133e-12
3.32061e-12
3.13508e-12
2.98365e-12
2.86502e-12
2.77767e-12
2.71993e-12
2.68995e-12
2.68573e-12
2.70513e-12
2.74592e-12
2.80572e-12
2.8821e-12
2.97251e-12
3.07438e-12
3.18506e-12
3.30191e-12
3.42228e-12
3.54351e-12
3.66304e-12
3.77834e-12
3.887e-12
3.98675e-12
4.07547e-12
4.15123e-12
4.21232e-12
4.25728e-12
4.28491e-12
4.2943e-12
4.28485e-12
4.25626e-12
4.20853e-12
4.14199e-12
4.05726e-12
3.95525e-12
3.83712e-12
3.70427e-12
3.55829e-12
3.40095e-12
3.23414e-12
3.05981e-12
2.87997e-12
2.69663e-12
2.51173e-12
2.32717e-12
2.14469e-12
1.96593e-12
1.79234e-12
1.62519e-12
1.46556e-12
1.31432e-12
1.17215e-12
1.03952e-12
9.16708e-13
8.03838e-13
7.00855e-13
6.07569e-13
5.2367e-13
4.48746e-13
3.82305e-13
3.23797e-13
2.72633e-13
2.28198e-13
1.89872e-13
1.57043e-13
1.29112e-13
1.05511e-13
8.57045e-14
6.91942e-14
5.55249e-14
4.42841e-14
3.51027e-14
2.76539e-14
2.16515e-14
1.68471e-14
1.30275e-14
1.00113e-14
7.64542e-15
5.80216e-15
4.3757e-15
3.27921e-15
2.44202e-15
1.8071e-15
1.3288e-15
9.70915e-16
7.04919e-16
5.08546e-16
3.64544e-16
2.59654e-16
1.83765e-16
1.29225e-16
9.02916e-17
6.26843e-17
4.32387e-17
2.96328e-17
2.01751e-17
1.36426e-17
9.15686e-18
6.09104e-18
3.99994e-18
2.56793e-18
1.57021e-18
8.43848e-19
2.65606e-19
4.95961e-18
1.51058e-17
2.59444e-17
3.7973e-17
5.17415e-17
6.78747e-17
8.70969e-17
1.10259e-16
1.3837e-16
1.72634e-16
2.1449e-16
2.65663e-16
3.28224e-16
4.04653e-16
4.97925e-16
6.11598e-16
7.4993e-16
9.18002e-16
1.12187e-15
1.36873e-15
1.66714e-15
2.02722e-15
2.46095e-15
2.98247e-15
3.6084e-15
4.35829e-15
5.25506e-15
6.32549e-15
7.60085e-15
9.11756e-15
1.09179e-14
1.30509e-14
1.55732e-14
1.85501e-14
2.2057e-14
2.618e-14
3.10181e-14
3.66842e-14
4.33068e-14
5.10322e-14
6.00258e-14
7.0475e-14
8.25906e-14
9.661e-14
1.12799e-13
1.31455e-13
1.52908e-13
1.77528e-13
2.05721e-13
2.37938e-13
2.74675e-13
3.16477e-13
3.63937e-13
4.17704e-13
4.78484e-13
5.47038e-13
6.24188e-13
7.10818e-13
8.07873e-13
9.16358e-13
1.03734e-12
1.17195e-12
1.32136e-12
1.48682e-12
1.66962e-12
1.87108e-12
2.09257e-12
2.33549e-12
2.60126e-12
2.89128e-12
3.20699e-12
3.54977e-12
3.92099e-12
4.32195e-12
4.75389e-12
5.21796e-12
5.71519e-12
6.24648e-12
6.81257e-12
7.41403e-12
8.05121e-12
8.72424e-12
9.433e-12
1.01771e-11
1.09559e-11
1.17683e-11
1.26131e-11
1.34885e-11
1.43926e-11
1.53229e-11
1.62766e-11
1.72507e-11
1.82416e-11
1.92454e-11
2.02579e-11
2.12746e-11
2.22905e-11
2.33006e-11
2.42994e-11
2.52814e-11
2.62408e-11
2.71716e-11
2.80681e-11
2.89242e-11
2.97341e-11
3.04919e-11
3.11921e-11
3.18294e-11
3.23987e-11
3.28952e-11
3.33148e-11
3.36537e-11
3.39087e-11
3.4077e-11
3.41567e-11
3.41464e-11
3.40455e-11
3.38539e-11
3.35725e-11
3.32027e-11
3.27467e-11
3.22074e-11
3.15884e-11
3.08939e-11
3.01287e-11
2.92982e-11
2.84081e-11
2.74647e-11
2.64747e-11
2.5445e-11
2.43826e-11
2.32949e-11
2.21889e-11
2.10722e-11
1.99516e-11
1.88343e-11
1.7727e-11
1.6636e-11
1.55675e-11
1.45271e-11
1.352e-11
1.25508e-11
1.16239e-11
1.07429e-11
9.91084e-12
9.13043e-12
8.40367e-12
7.73212e-12
7.11678e-12
6.55819e-12
6.05639e-12
5.61101e-12
5.22126e-12
4.88596e-12
4.60356e-12
4.37222e-12
4.18978e-12
4.05382e-12
3.96165e-12
3.9104e-12
3.89699e-12
3.91814e-12
3.97045e-12
4.05037e-12
4.15425e-12
4.27833e-12
4.41881e-12
4.57184e-12
4.73354e-12
4.90009e-12
5.06768e-12
5.2326e-12
5.39127e-12
5.54027e-12
5.67637e-12
5.79661e-12
5.8983e-12
5.97905e-12
6.03687e-12
6.07011e-12
6.07757e-12
6.05845e-12
6.0124e-12
5.93952e-12
5.84032e-12
5.71575e-12
5.56715e-12
5.39621e-12
5.20494e-12
4.99564e-12
4.77082e-12
4.53314e-12
4.28538e-12
4.03036e-12
3.77088e-12
3.50968e-12
3.24937e-12
2.99241e-12
2.74104e-12
2.49726e-12
2.26282e-12
2.03919e-12
1.82755e-12
1.62882e-12
1.4436e-12
1.27227e-12
1.11496e-12
9.71544e-13
8.41748e-13
7.25107e-13
6.21024e-13
5.28796e-13
4.47639e-13
3.76717e-13
3.15165e-13
2.6211e-13
2.16691e-13
1.78073e-13
1.4546e-13
1.18105e-13
9.53145e-14
7.64554e-14
6.09545e-14
4.82995e-14
3.80372e-14
2.97711e-14
2.31577e-14
1.79019e-14
1.37531e-14
1.05001e-14
7.96645e-15
6.00639e-15
4.50021e-15
3.35054e-15
2.47887e-15
1.82241e-15
1.33133e-15
9.66427e-16
6.97091e-16
4.99625e-16
3.55819e-16
2.51792e-16
1.77043e-16
1.2369e-16
8.58631e-17
5.92225e-17
4.05842e-17
2.76297e-17
1.86826e-17
1.25393e-17
8.3408e-18
5.47727e-18
3.51635e-18
2.15015e-18
1.15552e-18
3.63708e-19
8.6027e-18
2.62009e-17
4.49975e-17
6.58532e-17
8.97197e-17
1.17677e-16
1.50979e-16
1.91094e-16
2.39767e-16
2.99076e-16
3.71506e-16
4.60037e-16
5.68237e-16
7.00387e-16
8.61613e-16
1.05805e-15
1.29703e-15
1.5873e-15
1.93929e-15
2.36539e-15
2.88029e-15
3.50141e-15
4.24933e-15
5.14831e-15
6.22692e-15
7.51866e-15
9.06284e-15
1.09054e-14
1.30998e-14
1.57084e-14
1.88035e-14
2.24689e-14
2.68014e-14
3.19125e-14
3.79306e-14
4.50027e-14
5.3297e-14
6.30057e-14
7.43474e-14
8.75701e-14
1.02955e-13
1.20819e-13
1.41519e-13
1.65456e-13
1.9308e-13
2.24891e-13
2.61448e-13
3.03369e-13
3.5134e-13
4.06115e-13
4.68526e-13
5.3948e-13
6.19972e-13
7.11083e-13
8.13982e-13
9.29936e-13
1.06031e-12
1.20655e-12
1.37023e-12
1.55299e-12
1.75658e-12
1.98285e-12
2.23373e-12
2.51122e-12
2.81742e-12
3.15445e-12
3.52453e-12
3.92987e-12
4.37272e-12
4.85534e-12
5.37993e-12
5.94867e-12
6.56365e-12
7.22688e-12
7.94021e-12
8.70533e-12
9.52373e-12
1.03967e-11
1.13251e-11
1.23097e-11
1.33508e-11
1.44484e-11
1.56019e-11
1.68104e-11
1.80725e-11
1.93862e-11
2.0749e-11
2.2158e-11
2.36095e-11
2.50993e-11
2.66226e-11
2.81741e-11
2.97478e-11
3.13372e-11
3.29353e-11
3.45346e-11
3.61271e-11
3.77045e-11
3.9258e-11
4.07787e-11
4.22574e-11
4.36848e-11
4.50516e-11
4.63485e-11
4.75665e-11
4.86967e-11
4.97305e-11
5.066e-11
5.14777e-11
5.21767e-11
5.27508e-11
5.31949e-11
5.35044e-11
5.3676e-11
5.37072e-11
5.35967e-11
5.33441e-11
5.29503e-11
5.24173e-11
5.17482e-11
5.09472e-11
5.00194e-11
4.89712e-11
4.78097e-11
4.65429e-11
4.51798e-11
4.37298e-11
4.22031e-11
4.06101e-11
3.89619e-11
3.72696e-11
3.55445e-11
3.37978e-11
3.20407e-11
3.0284e-11
2.85384e-11
2.68138e-11
2.512e-11
2.34658e-11
2.18596e-11
2.03088e-11
1.88203e-11
1.73999e-11
1.60529e-11
1.47835e-11
1.35952e-11