/*--------------------------------*- C++ -*----------------------------------*\
| =========                 |                                                 |
| \\      /  F ield         | OpenFOAM: The Open Source CFD Toolbox           |
|  \\    /   O peration     | Version:  v2012                                 |
|   \\  /    A nd           | Website:  www.openfoam.com                      |
|    \\/     M anipulation  |                                                 |
\*---------------------------------------------------------------------------*/
FoamFile
{
    version     2.0;
    format      ascii;
    class       volScalarField;
    location    "15.1";
    object      Psi_z;
}
// * * * * * * * * * * * * * * * * * * * * * * * * * * * * * * * * * * * * * //

dimensions      [0 2 -1 0 0 0 0];


internalField   nonuniform List<scalar> 
65536
(
8.50183e-06
2.55061e-05
4.25118e-05
5.952e-05
7.65316e-05
9.35475e-05
0.000110569
0.000127596
0.000144631
0.000161673
0.000178725
0.000195786
0.000212858
0.000229942
0.000247037
0.000264145
0.000281267
0.000298404
0.000315555
0.000332721
0.000349904
0.000367102
0.000384318
0.000401551
0.000418801
0.000436069
0.000453355
0.000470658
0.00048798
0.00050532
0.000522677
0.000540052
0.000557443
0.000574852
0.000592277
0.000609718
0.000627173
0.000644643
0.000662126
0.000679621
0.000697127
0.000714643
0.000732167
0.000749698
0.000767235
0.000784774
0.000802315
0.000819855
0.000837392
0.000854924
0.000872448
0.000889961
0.000907461
0.000924944
0.000942407
0.000959847
0.000977261
0.000994644
0.00101199
0.0010293
0.00104657
0.00106379
0.00108096
0.00109807
0.00111513
0.00113211
0.00114902
0.00116586
0.00118261
0.00119927
0.00121584
0.0012323
0.00124866
0.0012649
0.00128103
0.00129702
0.00131288
0.00132859
0.00134416
0.00135957
0.00137481
0.00138988
0.00140477
0.00141948
0.00143398
0.00144829
0.00146238
0.00147624
0.00148988
0.00150329
0.00151644
0.00152935
0.00154199
0.00155436
0.00156646
0.00157826
0.00158978
0.00160099
0.00161189
0.00162247
0.00163273
0.00164265
0.00165224
0.00166148
0.00167036
0.00167888
0.00168704
0.00169482
0.00170222
0.00170924
0.00171587
0.0017221
0.00172794
0.00173336
0.00173838
0.00174299
0.00174719
0.00175096
0.00175431
0.00175724
0.00175975
0.00176183
0.00176347
0.0017647
0.00176549
0.00176585
0.00176578
0.00176529
0.00176436
0.00176302
0.00176125
0.00175905
0.00175644
0.00175342
0.00174998
0.00174613
0.00174188
0.00173722
0.00173217
0.00172673
0.00172091
0.0017147
0.00170812
0.00170116
0.00169385
0.00168618
0.00167816
0.00166979
0.00166109
0.00165206
0.00164271
0.00163304
0.00162306
0.00161278
0.00160221
0.00159135
0.00158022
0.00156881
0.00155714
0.00154522
0.00153305
0.00152064
0.001508
0.00149513
0.00148205
0.00146876
0.00145527
0.00144158
0.00142771
0.00141365
0.00139943
0.00138504
0.00137049
0.00135578
0.00134094
0.00132595
0.00131084
0.00129559
0.00128023
0.00126475
0.00124917
0.00123348
0.0012177
0.00120183
0.00118587
0.00116983
0.00115372
0.00113753
0.00112128
0.00110497
0.0010886
0.00107218
0.0010557
0.00103919
0.00102263
0.00100604
0.000989406
0.000972746
0.000956058
0.000939346
0.000922613
0.00090586
0.000889091
0.000872309
0.000855515
0.000838712
0.000821902
0.000805087
0.000788269
0.00077145
0.000754631
0.000737813
0.000721
0.00070419
0.000687387
0.000670591
0.000653802
0.000637023
0.000620254
0.000603495
0.000586747
0.000570011
0.000553288
0.000536577
0.00051988
0.000503196
0.000486526
0.00046987
0.000453228
0.0004366
0.000419985
0.000403385
0.000386799
0.000370226
0.000353666
0.00033712
0.000320586
0.000304065
0.000287556
0.000271058
0.000254572
0.000238096
0.00022163
0.000205173
0.000188726
0.000172286
0.000155855
0.00013943
0.000123012
0.000106599
9.01905e-05
7.37866e-05
5.7386e-05
4.09881e-05
2.45921e-05
8.19726e-06
2.55052e-05
7.65172e-05
0.000127534
0.000178557
0.000229591
0.000280638
0.000331701
0.000382783
0.000433886
0.000485013
0.000536167
0.00058735
0.000638565
0.000689815
0.000741101
0.000792425
0.000843791
0.000895199
0.000946652
0.000998151
0.0010497
0.00110129
0.00115294
0.00120464
0.00125639
0.00130819
0.00136005
0.00141196
0.00146393
0.00151594
0.00156802
0.00162014
0.00167232
0.00172454
0.00177682
0.00182914
0.00188151
0.00193392
0.00198637
0.00203886
0.00209138
0.00214393
0.0021965
0.0022491
0.00230171
0.00235433
0.00240695
0.00245957
0.00251219
0.00256479
0.00261736
0.0026699
0.0027224
0.00277486
0.00282725
0.00287957
0.00293182
0.00298397
0.00303602
0.00308796
0.00313977
0.00319144
0.00324295
0.00329429
0.00334545
0.00339641
0.00344715
0.00349766
0.00354792
0.00359791
0.00364762
0.00369702
0.0037461
0.00379484
0.00384321
0.0038912
0.00393878
0.00398593
0.00403264
0.00407887
0.00412461
0.00416983
0.00421452
0.00425863
0.00430216
0.00434507
0.00438735
0.00442897
0.00446989
0.00451011
0.00454959
0.00458831
0.00462625
0.00466337
0.00469966
0.00473509
0.00476964
0.00480328
0.00483599
0.00486774
0.00489852
0.0049283
0.00495706
0.00498478
0.00501144
0.00503701
0.00506149
0.00508484
0.00510705
0.00512811
0.005148
0.00516671
0.00518421
0.0052005
0.00521557
0.0052294
0.00524198
0.0052533
0.00526337
0.00527216
0.00527967
0.0052859
0.00529085
0.00529451
0.00529689
0.00529797
0.00529777
0.00529628
0.00529352
0.00528947
0.00528416
0.00527758
0.00526974
0.00526066
0.00525034
0.00523879
0.00522603
0.00521206
0.00519691
0.00518058
0.0051631
0.00514447
0.00512472
0.00510385
0.0050819
0.00505888
0.00503481
0.00500971
0.0049836
0.0049565
0.00492843
0.00489941
0.00486947
0.00483863
0.0048069
0.00477433
0.00474091
0.00470669
0.00467168
0.0046359
0.00459938
0.00456215
0.00452422
0.00448561
0.00444636
0.00440648
0.00436599
0.00432492
0.0042833
0.00424113
0.00419844
0.00415526
0.00411161
0.00406749
0.00402295
0.00397799
0.00393263
0.00388689
0.0038408
0.00379436
0.00374761
0.00370055
0.00365319
0.00360557
0.00355769
0.00350957
0.00346122
0.00341266
0.0033639
0.00331496
0.00326584
0.00321657
0.00316715
0.0031176
0.00306792
0.00301813
0.00296824
0.00291826
0.00286819
0.00281806
0.00276785
0.00271759
0.00266728
0.00261693
0.00256655
0.00251614
0.00246571
0.00241526
0.0023648
0.00231434
0.00226389
0.00221343
0.00216299
0.00211256
0.00206215
0.00201176
0.00196139
0.00191106
0.00186075
0.00181047
0.00176023
0.00171002
0.00165985
0.00160972
0.00155962
0.00150957
0.00145956
0.00140959
0.00135967
0.00130978
0.00125994
0.00121014
0.00116038
0.00111066
0.00106098
0.00101134
0.000961744
0.000912181
0.000862654
0.000813162
0.000763703
0.000714276
0.000664878
0.00061551
0.000566168
0.000516851
0.000467556
0.000418283
0.000369028
0.00031979
0.000270567
0.000221356
0.000172155
0.000122962
7.37752e-05
2.45914e-05
4.25071e-05
0.000127524
0.000212548
0.000297584
0.000382638
0.000467713
0.000552815
0.000637948
0.000723116
0.000808325
0.000893579
0.000978882
0.00106424
0.00114965
0.00123513
0.00132066
0.00140627
0.00149195
0.0015777
0.00166353
0.00174944
0.00183543
0.00192151
0.00200767
0.00209392
0.00218026
0.00226669
0.00235321
0.00243982
0.00252652
0.0026133
0.00270018
0.00278714
0.00287419
0.00296132
0.00304852
0.0031358
0.00322316
0.00331058
0.00339806
0.0034856
0.00357318
0.00366081
0.00374848
0.00383617
0.00392387
0.00401159
0.0040993
0.004187
0.00427467
0.0043623
0.00444988
0.0045374
0.00462483
0.00471216
0.00479938
0.00488647
0.0049734
0.00506017
0.00514674
0.00523311
0.00531923
0.0054051
0.00549069
0.00557597
0.00566092
0.00574551
0.00582971
0.0059135
0.00599684
0.00607971
0.00616207
0.00624389
0.00632514
0.00640578
0.00648578
0.00656511
0.00664372
0.00672159
0.00679867
0.00687493
0.00695033
0.00702482
0.00709837
0.00717095
0.0072425
0.00731299
0.00738237
0.00745061
0.00751767
0.0075835
0.00764806
0.00771131
0.00777321
0.00783372
0.0078928
0.00795041
0.0080065
0.00806104
0.00811399
0.00816532
0.00821497
0.00826293
0.00830915
0.0083536
0.00839625
0.00843705
0.008476
0.00851304
0.00854816
0.00858132
0.00861251
0.0086417
0.00866887
0.00869399
0.00871705
0.00873803
0.00875691
0.00877369
0.00878835
0.00880088
0.00881127
0.00881952
0.00882562
0.00882958
0.00883138
0.00883105
0.00882856
0.00882395
0.0088172
0.00880833
0.00879736
0.00878429
0.00876914
0.00875192
0.00873266
0.00871138
0.00868809
0.00866282
0.00863559
0.00860643
0.00857536
0.00854242
0.00850763
0.00847103
0.00843264
0.0083925
0.00835064
0.0083071
0.0082619
0.0082151
0.00816671
0.00811678
0.00806535
0.00801246
0.00795813
0.00790242
0.00784536
0.00778698
0.00772732
0.00766644
0.00760435
0.00754111
0.00747674
0.00741129
0.0073448
0.0072773
0.00720883
0.00713942
0.00706912
0.00699796
0.00692596
0.00685318
0.00677964
0.00670537
0.00663041
0.0065548
0.00647855
0.00640171
0.0063243
0.00624635
0.00616789
0.00608896
0.00600957
0.00592975
0.00584953
0.00576893
0.00568798
0.0056067
0.00552512
0.00544325
0.00536111
0.00527874
0.00519614
0.00511333
0.00503034
0.00494717
0.00486386
0.0047804
0.00469683
0.00461315
0.00452937
0.00444552
0.00436159
0.00427761
0.00419358
0.00410953
0.00402544
0.00394134
0.00385724
0.00377313
0.00368904
0.00360497
0.00352091
0.00343689
0.00335291
0.00326896
0.00318506
0.00310121
0.00301741
0.00293367
0.00284999
0.00276637
0.00268281
0.00259933
0.00251591
0.00243256
0.00234927
0.00226606
0.00218292
0.00209985
0.00201685
0.00193392
0.00185106
0.00176826
0.00168553
0.00160287
0.00152026
0.00143772
0.00135523
0.0012728
0.00119043
0.0011081
0.00102582
0.000943585
0.000861392
0.000779237
0.000697117
0.000615028
0.000532967
0.000450931
0.000368915
0.000286916
0.000204931
0.000122955
4.09843e-05
5.95066e-05
0.000178523
0.00029755
0.000416594
0.000535662
0.000654761
0.000773897
0.000893076
0.00101231
0.00113159
0.00125094
0.00137036
0.00148985
0.00160943
0.00172908
0.00184883
0.00196868
0.00208862
0.00220867
0.00232883
0.0024491
0.00256949
0.00268999
0.00281062
0.00293137
0.00305224
0.00317324
0.00329437
0.00341562
0.003537
0.0036585
0.00378013
0.00390188
0.00402375
0.00414573
0.00426783
0.00439003
0.00451233
0.00463472
0.00475721
0.00487977
0.0050024
0.00512509
0.00524783
0.00537061
0.00549341
0.00561623
0.00573904
0.00586183
0.00598459
0.0061073
0.00622993
0.00635247
0.0064749
0.00659719
0.00671932
0.00684127
0.006963
0.0070845
0.00720574
0.00732667
0.00744729
0.00756754
0.0076874
0.00780683
0.00792579
0.00804426
0.00816218
0.00827952
0.00839624
0.0085123
0.00862765
0.00874224
0.00885604
0.00896899
0.00908104
0.00919215
0.00930226
0.00941133
0.0095193
0.00962611
0.00973172
0.00983607
0.0099391
0.0100408
0.010141
0.0102397
0.0103369
0.0104325
0.0105265
0.0106187
0.0107091
0.0107977
0.0108844
0.0109692
0.011052
0.0111327
0.0112113
0.0112877
0.0113619
0.0114338
0.0115033
0.0115705
0.0116353
0.0116976
0.0117573
0.0118145
0.011869
0.0119209
0.0119702
0.0120166
0.0120603
0.0121012
0.0121393
0.0121745
0.0122068
0.0122362
0.0122626
0.0122861
0.0123067
0.0123242
0.0123388
0.0123503
0.0123589
0.0123644
0.0123669
0.0123665
0.012363
0.0123565
0.012347
0.0123346
0.0123192
0.0123009
0.0122797
0.0122556
0.0122286
0.0121987
0.0121661
0.0121307
0.0120925
0.0120517
0.0120081
0.011962
0.0119132
0.0118619
0.0118082
0.0117519
0.0116933
0.0116322
0.0115689
0.0115033
0.0114356
0.0113656
0.0112935
0.0112194
0.0111433
0.0110653
0.0109853
0.0109036
0.01082
0.0107347
0.0106477
0.0105591
0.010469
0.0103773
0.0102841
0.0101896
0.0100937
0.00999645
0.00989798
0.0097983
0.00969746
0.00959551
0.00949251
0.00938849
0.0092835
0.0091776
0.00907081
0.00896319
0.00885477
0.00874561
0.00863573
0.00852518
0.00841399
0.00830221
0.00818987
0.008077
0.00796364
0.00784982
0.00773557
0.00762092
0.0075059
0.00739055
0.00727488
0.00715892
0.00704271
0.00692626
0.00680959
0.00669274
0.00657571
0.00645854
0.00634123
0.00622382
0.00610631
0.00598872
0.00587107
0.00575337
0.00563564
0.00551789
0.00540013
0.00528238
0.00516464
0.00504692
0.00492924
0.0048116
0.00469401
0.00457648
0.00445901
0.00434162
0.00422429
0.00410705
0.0039899
0.00387283
0.00375585
0.00363896
0.00352217
0.00340548
0.00328889
0.00317239
0.00305599
0.0029397
0.0028235
0.00270739
0.00259139
0.00247547
0.00235965
0.00224392
0.00212828
0.00201272
0.00189725
0.00178185
0.00166653
0.00155127
0.00143609
0.00132096
0.0012059
0.00109088
0.00097592
0.000861001
0.00074612
0.000631274
0.000516457
0.000401664
0.00028689
0.000172129
5.73754e-05
7.65025e-05
0.000229512
0.000382535
0.00053558
0.000688656
0.000841771
0.000994934
0.00114815
0.00130144
0.0014548
0.00160824
0.00176176
0.00191539
0.00206911
0.00222295
0.00237691
0.00253099
0.00268519
0.00283954
0.00299402
0.00314865
0.00330342
0.00345836
0.00361344
0.00376869
0.00392409
0.00407966
0.0042354
0.00439129
0.00454735
0.00470358
0.00485996
0.0050165
0.00517319
0.00533003
0.00548702
0.00564415
0.0058014
0.00595878
0.00611627
0.00627386
0.00643155
0.00658931
0.00674714
0.00690502
0.00706294
0.00722087
0.0073788
0.0075367
0.00769456
0.00785236
0.00801006
0.00816765
0.0083251
0.00848237
0.00863944
0.00879627
0.00895284
0.0091091
0.00926503
0.00942057
0.0095757
0.00973036
0.00988453
0.0100381
0.0101912
0.0103435
0.0104952
0.0106462
0.0107963
0.0109456
0.011094
0.0112414
0.0113878
0.0115331
0.0116772
0.0118202
0.0119618
0.0121022
0.0122411
0.0123785
0.0125144
0.0126486
0.0127812
0.012912
0.013041
0.013168
0.0132931
0.0134161
0.013537
0.0136556
0.013772
0.013886
0.0139976
0.0141067
0.0142132
0.0143171
0.0144182
0.0145166
0.014612
0.0147046
0.0147941
0.0148806
0.0149639
0.0150441
0.015121
0.0151945
0.0152648
0.0153316
0.0153949
0.0154547
0.0155109
0.0155636
0.0156125
0.0156578
0.0156994
0.0157372
0.0157713
0.0158015
0.015828
0.0158506
0.0158693
0.0158841
0.0158951
0.0159023
0.0159055
0.0159049
0.0159004
0.015892
0.0158799
0.0158639
0.015844
0.0158205
0.0157931
0.0157621
0.0157273
0.0156889
0.0156469
0.0156013
0.0155522
0.0154996
0.0154435
0.0153841
0.0153214
0.0152554
0.0151861
0.0151137
0.0150382
0.0149597
0.0148782
0.0147938
0.0147066
0.0146165
0.0145238
0.0144284
0.0143305
0.01423
0.0141272
0.0140219
0.0139144
0.0138046
0.0136927
0.0135787
0.0134627
0.0133447
0.0132249
0.0131032
0.0129798
0.0128547
0.012728
0.0125998
0.0124701
0.0123389
0.0122064
0.0120726
0.0119375
0.0118013
0.0116639
0.0115255
0.011386
0.0112456
0.0111042
0.010962
0.010819
0.0106752
0.0105307
0.0103856
0.0102398
0.0100934
0.00994641
0.00979896
0.00965103
0.00950267
0.00935391
0.00920478
0.00905532
0.00890556
0.00875552
0.00860524
0.00845475
0.00830406
0.00815321
0.00800221
0.0078511
0.00769989
0.0075486
0.00739725
0.00724586
0.00709444
0.00694302
0.0067916
0.00664021
0.00648884
0.00633752
0.00618626
0.00603506
0.00588394
0.0057329
0.00558195
0.0054311
0.00528035
0.00512972
0.00497919
0.00482879
0.0046785
0.00452834
0.00437831
0.0042284
0.00407862
0.00392897
0.00377944
0.00363004
0.00348077
0.00333162
0.0031826
0.00303369
0.0028849
0.00273622
0.00258765
0.00243919
0.00229082
0.00214255
0.00199438
0.00184629
0.00169828
0.00155035
0.00140248
0.00125468
0.00110693
0.000959239
0.000811589
0.000663976
0.000516394
0.000368836
0.000221295
7.37638e-05
9.34941e-05
0.000280488
0.000467498
0.000654535
0.00084161
0.00102873
0.00121592
0.00140317
0.0015905
0.00177792
0.00196544
0.00215307
0.00234082
0.00252869
0.0027167
0.00290486
0.00309316
0.00328163
0.00347026
0.00365906
0.00384804
0.00403721
0.00422656
0.0044161
0.00460584
0.00479578
0.00498592
0.00517626
0.0053668
0.00555754
0.00574849
0.00593963
0.00613096
0.00632248
0.00651419
0.00670608
0.00689813
0.00709035
0.00728272
0.00747523
0.00766787
0.00786062
0.00805347
0.00824641
0.0084394
0.00863244
0.00882551
0.00901857
0.00921161
0.0094046
0.00959751
0.00979032
0.00998298
0.0101755
0.0103678
0.0105598
0.0107515
0.010943
0.011134
0.0113247
0.0115149
0.0117046
0.0118937
0.0120822
0.0122701
0.0124572
0.0126435
0.012829
0.0130136
0.0131972
0.0133798
0.0135613
0.0137416
0.0139206
0.0140983
0.0142747
0.0144495
0.0146228
0.0147944
0.0149643
0.0151324
0.0152986
0.0154629
0.015625
0.0157851
0.0159428
0.0160983
0.0162513
0.0164018
0.0165497
0.0166949
0.0168373
0.0169768
0.0171133
0.0172468
0.0173771
0.0175042
0.017628
0.0177483
0.0178651
0.0179784
0.0180879
0.0181937
0.0182957
0.0183938
0.0184879
0.018578
0.0186639
0.0187456
0.0188231
0.0188963
0.0189651
0.0190296
0.0190895
0.0191449
0.0191958
0.0192421
0.0192838
0.0193208
0.0193531
0.0193807
0.0194037
0.0194218
0.0194353
0.019444
0.0194479
0.0194472
0.0194417
0.0194314
0.0194165
0.0193969
0.0193726
0.0193438
0.0193103
0.0192722
0.0192297
0.0191827
0.0191312
0.0190754
0.0190153
0.0189509
0.0188823
0.0188096
0.0187328
0.018652
0.0185672
0.0184786
0.0183862
0.0182901
0.0181904
0.0180871
0.0179803
0.0178702
0.0177567
0.01764
0.0175201
0.0173972
0.0172713
0.0171426
0.017011
0.0168767
0.0167398
0.0166003
0.0164584
0.016314
0.0161674
0.0160186
0.0158676
0.0157146
0.0155597
0.0154028
0.0152441
0.0150837
0.0149216
0.0147579
0.0145927
0.0144261
0.0142581
0.0140888
0.0139182
0.0137465
0.0135736
0.0133997
0.0132248
0.013049
0.0128723
0.0126948
0.0125165
0.0123374
0.0121578
0.0119775
0.0117966
0.0116152
0.0114333
0.011251
0.0110682
0.0108851
0.0107017
0.010518
0.010334
0.0101498
0.00996533
0.00978073
0.009596
0.00941114
0.00922619
0.00904117
0.0088561
0.00867101
0.00848591
0.00830081
0.00811574
0.00793072
0.00774575
0.00756085
0.00737604
0.00719131
0.00700669
0.00682219
0.0066378
0.00645355
0.00626943
0.00608545
0.00590161
0.00571792
0.00553439
0.00535101
0.00516779
0.00498472
0.00480181
0.00461906
0.00443647
0.00425403
0.00407174
0.0038896
0.00370761
0.00352576
0.00334405
0.00316247
0.00298102
0.0027997
0.00261849
0.0024374
0.00225641
0.00207552
0.00189473
0.00171402
0.00153338
0.00135282
0.00117231
0.000991866
0.000811464
0.000631099
0.000450764
0.00027045
9.01487e-05
0.00011048
0.000331447
0.000552433
0.000773451
0.000994515
0.00121564
0.00143683
0.0016581
0.00187947
0.00210094
0.00232254
0.00254426
0.00276612
0.00298813
0.00321031
0.00343265
0.00365518
0.00387789
0.00410081
0.00432392
0.00454725
0.0047708
0.00499457
0.00521857
0.0054428
0.00566727
0.00589198
0.00611692
0.00634211
0.00656753
0.0067932
0.0070191
0.00724523
0.00747159
0.00769817
0.00792496
0.00815196
0.00837915
0.00860652
0.00883406
0.00906176
0.00928959
0.00951755
0.0097456
0.00997374
0.0102019
0.0104301
0.0106584
0.0108866
0.0111147
0.0113428
0.0115707
0.0117985
0.012026
0.0122534
0.0124804
0.0127071
0.0129335
0.0131594
0.0133848
0.0136097
0.013834
0.0140576
0.0142805
0.0145027
0.014724
0.0149443
0.0151637
0.015382
0.0155992
0.0158151
0.0160298
0.016243
0.0164548
0.016665
0.0168735
0.0170804
0.0172853
0.0174884
0.0176894
0.0178883
0.0180849
0.0182792
0.0184711
0.0186604
0.018847
0.019031
0.019212
0.0193901
0.0195651
0.0197369
0.0199054
0.0200705
0.0202321
0.02039
0.0205443
0.0206947
0.0208411
0.0209835
0.0211218
0.0212558
0.0213855
0.0215107
0.0216314
0.0217475
0.0218589
0.0219655
0.0220672
0.022164
0.0222557
0.0223423
0.0224238
0.0225
0.022571
0.0226366
0.0226968
0.0227516
0.0228009
0.0228447
0.022883
0.0229157
0.0229428
0.0229643
0.0229802
0.0229905
0.0229951
0.0229942
0.0229876
0.0229755
0.0229578
0.0229346
0.0229059
0.0228716
0.022832
0.022787
0.0227366
0.0226809
0.02262
0.0225539
0.0224827
0.0224065
0.0223252
0.0222391
0.0221482
0.0220526
0.0219522
0.0218473
0.021738
0.0216242
0.0215061
0.0213839
0.0212575
0.0211271
0.0209928
0.0208547
0.0207128
0.0205674
0.0204184
0.020266
0.0201103
0.0199514
0.0197894
0.0196244
0.0194564
0.0192857
0.0191122
0.0189361
0.0187575
0.0185765
0.0183932
0.0182076
0.0180199
0.0178301
0.0176384
0.0174448
0.0172494
0.0170523
0.0168535
0.0166533
0.0164516
0.0162485
0.016044
0.0158384
0.0156315
0.0154236
0.0152146
0.0150047
0.0147939
0.0145822
0.0143697
0.0141566
0.0139427
0.0137282
0.0135132
0.0132976
0.0130815
0.012865
0.0126482
0.012431
0.0122134
0.0119956
0.0117776
0.0115594
0.011341
0.0111225
0.0109039
0.0106851
0.0104664
0.0102476
0.0100288
0.00981
0.00959124
0.00937254
0.00915391
0.00893536
0.00871692
0.00849859
0.00828038
0.00806231
0.00784438
0.00762661
0.007409
0.00719155
0.00697428
0.00675719
0.00654028
0.00632356
0.00610702
0.00589067
0.0056745
0.00545853
0.00524274
0.00502713
0.0048117
0.00459646
0.00438138
0.00416648
0.00395174
0.00373716
0.00352274
0.00330846
0.00309432
0.00288032
0.00266644
0.00245268
0.00223902
0.00202547
0.00181201
0.00159864
0.00138534
0.0011721
0.000958914
0.000745776
0.000532672
0.000319593
0.000106529
0.00012746
0.000382387
0.000637336
0.000892323
0.00114736
0.00140247
0.00165765
0.00191294
0.00216833
0.00242385
0.0026795
0.0029353
0.00319127
0.00344741
0.00370374
0.00396027
0.00421701
0.00447396
0.00473115
0.00498857
0.00524624
0.00550417
0.00576235
0.0060208
0.00627952
0.00653852
0.00679779
0.00705734
0.00731717
0.00757729
0.00783767
0.00809834
0.00835927
0.00862047
0.00888193
0.00914364
0.00940559
0.00966776
0.00993015
0.0101927
0.0104555
0.0107184
0.0109815
0.0112447
0.011508
0.0117714
0.0120348
0.0122982
0.0125616
0.0128249
0.0130882
0.0133513
0.0136142
0.0138769
0.0141393
0.0144014
0.0146631
0.0149244
0.0151852
0.0154455
0.0157051
0.0159641
0.0162223
0.0164797
0.0167362
0.0169917
0.0172461
0.0174995
0.0177516
0.0180024
0.0182517
0.0184996
0.0187459
0.0189905
0.0192333
0.0194742
0.0197131
0.0199498
0.0201844
0.0204166
0.0206463
0.0208735
0.021098
0.0213196
0.0215383
0.021754
0.0219665
0.0221757
0.0223815
0.0225837
0.0227822
0.0229769
0.0231677
0.0233544
0.023537
0.0237152
0.023889
0.0240583
0.0242229
0.0243827
0.0245376
0.0246875
0.0248323
0.0249718
0.025106
0.0252347
0.0253579
0.0254755
0.0255873
0.0256933
0.0257935
0.0258876
0.0259758
0.0260578
0.0261336
0.0262032
0.0262665
0.0263235
0.0263741
0.0264184
0.0264561
0.0264875
0.0265123
0.0265307
0.0265425
0.0265479
0.0265468
0.0265392
0.0265252
0.0265047
0.0264778
0.0264445
0.026405
0.0263591
0.026307
0.0262487
0.0261843
0.0261139
0.0260375
0.0259551
0.025867
0.0257731
0.0256735
0.0255684
0.0254578
0.0253418
0.0252205
0.0250941
0.0249626
0.0248261
0.0246848
0.0245387
0.024388
0.0242327
0.0240731
0.0239092
0.0237411
0.0235689
0.0233928
0.0232129
0.0230293
0.022842
0.0226513
0.0224573
0.02226
0.0220596
0.0218562
0.0216498
0.0214407
0.0212289
0.0210145
0.0207977
0.0205785
0.020357
0.0201334
0.0199077
0.0196801
0.0194506
0.0192193
0.0189863
0.0187518
0.0185157
0.0182782
0.0180394
0.0177993
0.017558
0.0173156
0.0170722
0.0168278
0.0165825
0.0163363
0.0160894
0.0158418
0.0155935
0.0153446
0.0150952
0.0148453
0.014595
0.0143442
0.0140932
0.0138418
0.0135901
0.0133382
0.0130862
0.0128339
0.0125816
0.0123292
0.0120767
0.0118242
0.0115716
0.0113191
0.0110667
0.0108143
0.010562
0.0103098
0.0100577
0.00980574
0.00955393
0.00930228
0.0090508
0.00879951
0.0085484
0.00829749
0.00804678
0.00779628
0.00754599
0.00729592
0.00704606
0.00679643
0.00654701
0.00629781
0.00604882
0.00580005
0.00555149
0.00530314
0.00505499
0.00480704
0.00455928
0.0043117
0.0040643
0.00381708
0.00357002
0.00332311
0.00307634
0.00282972
0.00258322
0.00233684
0.00209056
0.00184439
0.00159829
0.00135227
0.00110632
0.000860417
0.000614555
0.000368721
0.000122905
0.000144432
0.000433304
0.000722202
0.00101114
0.00130014
0.00158922
0.00187839
0.00216766
0.00245707
0.00274661
0.00303631
0.00332619
0.00361624
0.0039065
0.00419698
0.00448767
0.00477861
0.0050698
0.00536125
0.00565297
0.00594498
0.00623727
0.00652986
0.00682276
0.00711597
0.00740949
0.00770332
0.00799748
0.00829196
0.00858676
0.00888187
0.00917731
0.00947305
0.0097691
0.0100654
0.0103621
0.010659
0.0109562
0.0112536
0.0115512
0.0118491
0.0121471
0.0124454
0.0127437
0.0130422
0.0133408
0.0136394
0.013938
0.0142367
0.0145352
0.0148337
0.015132
0.0154301
0.015728
0.0160255
0.0163227
0.0166195
0.0169158
0.0172116
0.0175067
0.0178012
0.0180949
0.0183878
0.0186797
0.0189706
0.0192604
0.0195491
0.0198364
0.0201224
0.0204069
0.0206898
0.0209711
0.0212505
0.021528
0.0218035
0.0220768
0.0223479
0.0226166
0.0228827
0.0231462
0.0234069
0.0236647
0.0239195
0.0241711
0.0244194
0.0246642
0.0249054
0.0251428
0.0253764
0.0256059
0.0258313
0.0260524
0.026269
0.026481
0.0266882
0.0268906
0.027088
0.0272802
0.0274671
0.0276485
0.0278244
0.0279946
0.028159
0.0283175
0.0284698
0.028616
0.028756
0.0288895
0.0290165
0.0291369
0.0292506
0.0293576
0.0294576
0.0295508
0.0296369
0.0297159
0.0297878
0.0298525
0.02991
0.0299602
0.0300031
0.0300386
0.0300668
0.0300877
0.0301011
0.0301072
0.0301059
0.0300972
0.0300813
0.030058
0.0300274
0.0299896
0.0299446
0.0298924
0.0298332
0.029767
0.0296938
0.0296138
0.0295269
0.0294334
0.0293332
0.0292266
0.0291134
0.028994
0.0288684
0.0287366
0.0285989
0.0284553
0.0283059
0.0281509
0.0279904
0.0278245
0.0276534
0.0274771
0.0272958
0.0271097
0.0269188
0.0267233
0.0265234
0.0263191
0.0261107
0.0258981
0.0256817
0.0254614
0.0252375
0.02501
0.0247791
0.0245449
0.0243076
0.0240672
0.0238239
0.0235779
0.0233291
0.0230778
0.0228241
0.022568
0.0223098
0.0220494
0.021787
0.0215227
0.0212566
0.0209888
0.0207194
0.0204485
0.0201761
0.0199024
0.0196275
0.0193514
0.0190742
0.018796
0.0185169
0.0182368
0.017956
0.0176745
0.0173923
0.0171094
0.0168261
0.0165422
0.0162579
0.0159732
0.0156882
0.0154028
0.0151173
0.0148315
0.0145455
0.0142594
0.0139733
0.013687
0.0134008
0.0131145
0.0128283
0.0125421
0.012256
0.01197
0.0116841
0.0113983
0.0111127
0.0108273
0.0105421
0.010257
0.00997222
0.00968761
0.00940322
0.00911907
0.00883516
0.00855149
0.00826806
0.00798489
0.00770197
0.00741929
0.00713687
0.00685469
0.00657276
0.00629107
0.00600962
0.0057284
0.0054474
0.00516663
0.00488606
0.0046057
0.00432554
0.00404556
0.00376575
0.00348612
0.00320664
0.0029273
0.0026481
0.00236902
0.00209005
0.00181118
0.00153239
0.00125367
0.000975017
0.000696408
0.000417832
0.000139275
0.000161395
0.000484195
0.000807024
0.0011299
0.00145285
0.00177587
0.00209901
0.00242227
0.00274566
0.00306922
0.00339296
0.00371688
0.00404102
0.00436538
0.00468998
0.00501484
0.00533997
0.00566538
0.00599108
0.00631709
0.00664342
0.00697008
0.00729707
0.00762441
0.00795209
0.00828013
0.00860853
0.0089373
0.00926642
0.00959591
0.00992576
0.010256
0.0105865
0.0109174
0.0112487
0.0115802
0.0119121
0.0122443
0.0125768
0.0129095
0.0132425
0.0135757
0.0139091
0.0142426
0.0145763
0.0149101
0.015244
0.0155779
0.0159118
0.0162456
0.0165793
0.0169129
0.0172463
0.0175793
0.0179121
0.0182445
0.0185764
0.0189078
0.0192386
0.0195687
0.019898
0.0202266
0.0205541
0.0208807
0.0212062
0.0215304
0.0218533
0.0221748
0.0224948
0.0228131
0.0231296
0.0234443
0.023757
0.0240675
0.0243758
0.0246817
0.0249851
0.0252858
0.0255837
0.0258786
0.0261705
0.0264591
0.0267443
0.0270259
0.0273038
0.0275779
0.027848
0.0281138
0.0283754
0.0286324
0.0288848
0.0291323
0.0293749
0.0296123
0.0298444
0.030071
0.0302921
0.0305073
0.0307167
0.0309199
0.0311169
0.0313076
0.0314917
0.0316692
0.0318399
0.0320037
0.0321604
0.03231
0.0324523
0.0325871
0.0327145
0.0328343
0.0329464
0.0330508
0.0331472
0.0332358
0.0333163
0.0333888
0.0334531
0.0335094
0.0335574
0.0335972
0.0336287
0.033652
0.0336671
0.0336738
0.0336723
0.0336626
0.0336446
0.0336185
0.0335842
0.0335418
0.0334913
0.0334329
0.0333665
0.0332922
0.0332102
0.0331205
0.0330231
0.0329183
0.032806
0.0326865
0.0325597
0.0324259
0.0322851
0.0321375
0.0319831
0.0318222
0.0316549
0.0314812
0.0313014
0.0311156
0.0309239
0.0307264
0.0305234
0.0303149
0.0301012
0.0298822
0.0296583
0.0294296
0.0291962
0.0289582
0.0287158
0.0284692
0.0282185
0.0279638
0.0277053
0.0274432
0.0271775
0.0269085
0.0266362
0.0263607
0.0260823
0.0258011
0.0255171
0.0252306
0.0249415
0.0246502
0.0243566
0.0240608
0.0237631
0.0234635
0.0231621
0.022859
0.0225543
0.0222481
0.0219406
0.0216317
0.0213217
0.0210105
0.0206983
0.0203851
0.020071
0.0197561
0.0194405
0.0191242
0.0188073
0.0184899
0.0181719
0.0178536
0.0175348
0.0172158
0.0168965
0.0165769
0.0162572
0.0159374
0.0156174
0.0152974
0.0149773
0.0146573
0.0143373
0.0140174
0.0136975
0.0133778
0.0130582
0.0127388
0.0124196
0.0121005
0.0117817
0.0114631
0.0111447
0.0108266
0.0105087
0.0101911
0.00987379
0.00955674
0.00923996
0.00892347
0.00860726
0.00829133
0.00797569
0.00766032
0.00734524
0.00703042
0.00671587
0.00640158
0.00608755
0.00577377
0.00546022
0.0051469
0.00483381
0.00452092
0.00420823
0.00389573
0.00358341
0.00327125
0.00295924
0.00264736
0.00233561
0.00202397
0.00171243
0.00140097
0.00108957
0.000778229
0.000466922
0.000155638
0.000178349
0.000535058
0.000891799
0.00124859
0.00160546
0.00196243
0.00231951
0.00267673
0.0030341
0.00339165
0.0037494
0.00410737
0.00446556
0.00482401
0.00518273
0.00554173
0.00590104
0.00626066
0.0066206
0.00698089
0.00734154
0.00770255
0.00806394
0.00842571
0.00878787
0.00915042
0.00951338
0.00987675
0.0102405
0.0106047
0.0109693
0.0113343
0.0116996
0.0120654
0.0124316
0.0127981
0.013165
0.0135322
0.0138997
0.0142675
0.0146356
0.015004
0.0153726
0.0157414
0.0161103
0.0164794
0.0168486
0.0172178
0.017587
0.0179561
0.0183251
0.018694
0.0190627
0.0194311
0.0197991
0.0201667
0.0205338
0.0209003
0.0212662
0.0216314
0.0219957
0.0223592
0.0227216
0.0230828
0.0234429
0.0238017
0.024159
0.0245147
0.0248688
0.025221
0.0255713
0.0259196
0.0262656
0.0266093
0.0269506
0.0272892
0.027625
0.0279578
0.0282876
0.0286142
0.0289373
0.0292568
0.0295726
0.0298844
0.0301922
0.0304957
0.0307947
0.0310892
0.0313788
0.0316635
0.031943
0.0322172
0.0324859
0.0327489
0.033006
0.0332571
0.0335019
0.0337404
0.0339723
0.0341975
0.0344158
0.0346271
0.0348311
0.0350277
0.0352169
0.0353983
0.035572
0.0357377
0.0358954
0.0360449
0.036186
0.0363188
0.036443
0.0365586
0.0366655
0.0367636
0.0368528
0.0369331
0.0370044
0.0370667
0.0371199
0.037164
0.0371989
0.0372247
0.0372413
0.0372487
0.037247
0.0372362
0.0372162
0.0371872
0.0371491
0.0371021
0.0370461
0.0369812
0.0369076
0.0368252
0.0367343
0.0366348
0.0365268
0.0364106
0.0362861
0.0361536
0.036013
0.0358647
0.0357086
0.035545
0.035374
0.0351956
0.0350102
0.0348177
0.0346185
0.0344126
0.0342001
0.0339814
0.0337564
0.0335255
0.0332886
0.0330461
0.0327981
0.0325448
0.0322862
0.0320226
0.0317542
0.0314811
0.0312035
0.0309214
0.0306352
0.030345
0.0300508
0.0297529
0.0294515
0.0291466
0.0288384
0.0285271
0.0282128
0.0278956
0.0275757
0.0272532
0.0269283
0.026601
0.0262715
0.02594
0.0256065
0.0252711
0.024934
0.0245952
0.024255
0.0239133
0.0235703
0.023226
0.0228806
0.0225342
0.0221868
0.0218385
0.0214894
0.0211396
0.0207891
0.020438
0.0200864
0.0197343
0.0193819
0.019029
0.0186759
0.0183226
0.0179691
0.0176154
0.0172616
0.0169078
0.0165539
0.0162001
0.0158463