/*--------------------------------*- C++ -*----------------------------------*\
| =========                 |                                                 |
| \\      /  F ield         | OpenFOAM: The Open Source CFD Toolbox           |
|  \\    /   O peration     | Version:  v2012                                 |
|   \\  /    A nd           | Website:  www.openfoam.com                      |
|    \\/     M anipulation  |                                                 |
\*---------------------------------------------------------------------------*/
FoamFile
{
    version     2.0;
    format      ascii;
    class       surfaceScalarField;
    location    "7.1";
    object      phi;
}
// * * * * * * * * * * * * * * * * * * * * * * * * * * * * * * * * * * * * * //

dimensions      [0 3 -1 0 0 0 0];
oriented        oriented;


internalField   nonuniform List<scalar> 
130560
(
3.69595e-06
-3.69595e-06
7.39182e-06
-3.69588e-06
1.10876e-05
-3.69574e-06
1.47831e-05
-3.69552e-06
1.84783e-05
-3.69524e-06
2.21732e-05
-3.69487e-06
2.58676e-05
-3.69443e-06
2.95615e-05
-3.69389e-06
3.32548e-05
-3.69327e-06
3.69473e-05
-3.69255e-06
4.06391e-05
-3.69173e-06
4.43299e-05
-3.69079e-06
4.80196e-05
-3.68974e-06
5.17082e-05
-3.68856e-06
5.53954e-05
-3.68723e-06
5.90811e-05
-3.68576e-06
6.27653e-05
-3.68413e-06
6.64476e-05
-3.68233e-06
7.0128e-05
-3.68034e-06
7.38061e-05
-3.67816e-06
7.74819e-05
-3.67577e-06
8.1155e-05
-3.67314e-06
8.48253e-05
-3.67028e-06
8.84925e-05
-3.66716e-06
9.21562e-05
-3.66377e-06
9.58163e-05
-3.66009e-06
9.94724e-05
-3.65609e-06
0.000103124
-3.65178e-06
0.000106771
-3.64711e-06
0.000110413
-3.64208e-06
0.00011405
-3.63667e-06
0.000117681
-3.63085e-06
0.000121306
-3.62461e-06
0.000124923
-3.61792e-06
0.000128534
-3.61075e-06
0.000132137
-3.6031e-06
0.000135732
-3.59494e-06
0.000139318
-3.58624e-06
0.000142895
-3.57698e-06
0.000146463
-3.56714e-06
0.000150019
-3.55669e-06
0.000153565
-3.54562e-06
0.000157099
-3.53389e-06
0.00016062
-3.52148e-06
0.000164129
-3.50838e-06
0.000167623
-3.49455e-06
0.000171103
-3.47997e-06
0.000174568
-3.46462e-06
0.000178016
-3.44848e-06
0.000181448
-3.43152e-06
0.000184861
-3.41372e-06
0.000188257
-3.39506e-06
0.000191632
-3.37551e-06
0.000194987
-3.35506e-06
0.000198321
-3.33368e-06
0.000201632
-3.31135e-06
0.00020492
-3.28805e-06
0.000208184
-3.26377e-06
0.000211422
-3.23849e-06
0.000214635
-3.21218e-06
0.000217819
-3.18484e-06
0.000220976
-3.15645e-06
0.000224103
-3.12698e-06
0.000227199
-3.09644e-06
0.000230264
-3.06481e-06
0.000233296
-3.03207e-06
0.000236294
-2.99822e-06
0.000239258
-2.96325e-06
0.000242185
-2.92715e-06
0.000245075
-2.88992e-06
0.000247926
-2.85156e-06
0.000250738
-2.81205e-06
0.00025351
-2.77141e-06
0.000256239
-2.72963e-06
0.000258926
-2.68672e-06
0.000261569
-2.64267e-06
0.000264166
-2.5975e-06
0.000266718
-2.55122e-06
0.000269221
-2.50383e-06
0.000271677
-2.45534e-06
0.000274082
-2.40577e-06
0.000276438
-2.35513e-06
0.000278741
-2.30345e-06
0.000280992
-2.25073e-06
0.000283189
-2.197e-06
0.000285331
-2.14228e-06
0.000287418
-2.08659e-06
0.000289448
-2.02997e-06
0.00029142
-1.97243e-06
0.000293334
-1.91401e-06
0.000295189
-1.85473e-06
0.000296983
-1.79463e-06
0.000298717
-1.73374e-06
0.000300389
-1.67209e-06
0.000301999
-1.60973e-06
0.000303546
-1.54668e-06
0.000305029
-1.48299e-06
0.000306447
-1.41869e-06
0.000307801
-1.35383e-06
0.00030909
-1.28845e-06
0.000310312
-1.22258e-06
0.000311468
-1.15628e-06
0.000312558
-1.08958e-06
0.000313581
-1.02253e-06
0.000314536
-9.55176e-07
0.000315423
-8.8756e-07
0.000316243
-8.19727e-07
0.000316995
-7.51723e-07
0.000317678
-6.83594e-07
0.000318294
-6.15384e-07
0.000318841
-5.47139e-07
0.00031932
-4.78903e-07
0.00031973
-4.10722e-07
0.000320073
-3.4264e-07
0.000320348
-2.747e-07
0.000320555
-2.06946e-07
0.000320694
-1.3942e-07
0.000320766
-7.21632e-08
0.000320772
-5.21779e-09
0.00032071
6.13767e-08
0.000320583
1.27581e-07
0.000320389
1.93357e-07
0.000320131
2.58668e-07
0.000319807
3.23478e-07
0.000319419
3.87753e-07
0.000318968
4.51458e-07
0.000318453
5.14561e-07
0.000317876
5.77033e-07
0.000317237
6.38842e-07
0.000316537
6.99962e-07
0.000315777
7.60365e-07
0.000314957
8.20025e-07
0.000314078
8.7892e-07
0.000313141
9.37027e-07
0.000312147
9.94324e-07
0.000311096
1.05079e-06
0.00030999
1.10641e-06
0.000308828
1.16117e-06
0.000307613
1.21505e-06
0.000306345
1.26803e-06
0.000305025
1.32011e-06
0.000303654
1.37127e-06
0.000302232
1.42151e-06
0.000300762
1.47081e-06
0.000299242
1.51917e-06
0.000297676
1.56658e-06
0.000296063
1.61304e-06
0.000294404
1.65855e-06
0.000292701
1.7031e-06
0.000290955
1.74668e-06
0.000289165
1.78931e-06
0.000287334
1.83098e-06
0.000285463
1.8717e-06
0.000283551
1.91146e-06
0.000281601
1.95028e-06
0.000279613
1.98815e-06
0.000277588
2.02508e-06
0.000275527
2.06108e-06
0.00027343
2.09615e-06
0.0002713
2.13031e-06
0.000269136
2.16356e-06
0.000266941
2.19592e-06
0.000264713
2.22738e-06
0.000262455
2.25797e-06
0.000260168
2.28769e-06
0.000257851
2.31655e-06
0.000255506
2.34457e-06
0.000253135
2.37176e-06
0.000250737
2.39813e-06
0.000248313
2.42369e-06
0.000245864
2.44846e-06
0.000243392
2.47245e-06
0.000240896
2.49568e-06
0.000238378
2.51815e-06
0.000235838
2.53989e-06
0.000233277
2.56091e-06
0.000230696
2.58122e-06
0.000228095
2.60083e-06
0.000225475
2.61976e-06
0.000222837
2.63803e-06
0.000220182
2.65565e-06
0.000217509
2.67264e-06
0.00021482
2.689e-06
0.000212115
2.70476e-06
0.000209395
2.71993e-06
0.000206661
2.73452e-06
0.000203912
2.74855e-06
0.00020115
2.76204e-06
0.000198375
2.77499e-06
0.000195588
2.78742e-06
0.000192789
2.79935e-06
0.000189978
2.81078e-06
0.000187156
2.82174e-06
0.000184324
2.83224e-06
0.000181482
2.84229e-06
0.00017863
2.8519e-06
0.000175769
2.86109e-06
0.000172899
2.86987e-06
0.00017002
2.87825e-06
0.000167134
2.88625e-06
0.00016424
2.89388e-06
0.000161339
2.90114e-06
0.000158431
2.90806e-06
0.000155516
2.91465e-06
0.000152596
2.92091e-06
0.000149669
2.92685e-06
0.000146736
2.9325e-06
0.000143798
2.93785e-06
0.000140855
2.94293e-06
0.000137908
2.94774e-06
0.000134955
2.95228e-06
0.000131999
2.95658e-06
0.000129038
2.96064e-06
0.000126074
2.96447e-06
0.000123106
2.96809e-06
0.000120134
2.97149e-06
0.000117159
2.97469e-06
0.000114182
2.9777e-06
0.000111201
2.98052e-06
0.000108218
2.98317e-06
0.000105232
2.98565e-06
0.000102244
2.98797e-06
9.92542e-05
2.99014e-06
9.62621e-05
2.99217e-06
9.3268e-05
2.99406e-06
9.02722e-05
2.99581e-06
8.72748e-05
2.99745e-06
8.42758e-05
2.99897e-06
8.12754e-05
3.00038e-06
7.82737e-05
3.00168e-06
7.52708e-05
3.00289e-06
7.22669e-05
3.004e-06
6.92618e-05
3.00502e-06
6.62559e-05
3.00597e-06
6.3249e-05
3.00683e-06
6.02414e-05
3.00763e-06
5.7233e-05
3.00835e-06
5.4224e-05
3.00902e-06
5.12144e-05
3.00962e-06
4.82042e-05
3.01017e-06
4.51936e-05
3.01067e-06
4.21824e-05
3.01112e-06
3.91709e-05
3.01152e-06
3.6159e-05
3.01189e-06
3.31468e-05
3.01221e-06
3.01343e-05
3.0125e-06
2.71216e-05
3.01275e-06
2.41086e-05
3.01298e-06
2.10954e-05
3.01317e-06
1.80821e-05
3.01334e-06
1.50686e-05
3.01347e-06
1.2055e-05
3.01359e-06
9.04135e-06
3.01368e-06
6.0276e-06
3.01374e-06
3.01381e-06
3.01379e-06
3.01381e-06
3.69601e-06
-7.39196e-06
7.39196e-06
-7.39182e-06
1.10878e-05
-7.39154e-06
1.47834e-05
-7.39112e-06
1.84787e-05
-7.39055e-06
2.21736e-05
-7.38982e-06
2.58681e-05
-7.38894e-06
2.95621e-05
-7.38788e-06
3.32555e-05
-7.38664e-06
3.69481e-05
-7.38521e-06
4.064e-05
-7.38357e-06
4.43309e-05
-7.3817e-06
4.80208e-05
-7.3796e-06
5.17094e-05
-7.37725e-06
5.53968e-05
-7.37461e-06
5.90827e-05
-7.37168e-06
6.2767e-05
-7.36844e-06
6.64496e-05
-7.36484e-06
7.01301e-05
-7.36088e-06
7.38085e-05
-7.35653e-06
7.74845e-05
-7.35175e-06
8.11578e-05
-7.34653e-06
8.48284e-05
-7.34082e-06
8.84958e-05
-7.3346e-06
9.21599e-05
-7.32783e-06
9.58203e-05
-7.32048e-06
9.94767e-05
-7.31251e-06
0.000103129
-7.30389e-06
0.000106776
-7.29458e-06
0.000110419
-7.28455e-06
0.000114056
-7.27374e-06
0.000117687
-7.26212e-06
0.000121312
-7.24966e-06
0.000124931
-7.2363e-06
0.000128542
-7.222e-06
0.000132145
-7.20672e-06
0.000135741
-7.19041e-06
0.000139328
-7.17303e-06
0.000142905
-7.15454e-06
0.000146473
-7.13488e-06
0.00015003
-7.11401e-06
0.000153577
-7.09188e-06
0.000157111
-7.06845e-06
0.000160633
-7.04366e-06
0.000164142
-7.01747e-06
0.000167638
-6.98984e-06
0.000171118
-6.96071e-06
0.000174584
-6.93004e-06
0.000178033
-6.89777e-06
0.000181465
-6.86388e-06
0.00018488
-6.8283e-06
0.000188276
-6.79099e-06
0.000191652
-6.75192e-06
0.000195008
-6.71104e-06
0.000198343
-6.6683e-06
0.000201655
-6.62366e-06
0.000204944
-6.57709e-06
0.000208209
-6.52855e-06
0.000211449
-6.478e-06
0.000214662
-6.4254e-06
0.000217848
-6.37073e-06
0.000221005
-6.31396e-06
0.000224133
-6.25504e-06
0.000227231
-6.19397e-06
0.000230297
-6.13071e-06
0.00023333
-6.06525e-06
0.000236329
-5.99755e-06
0.000239294
-5.92762e-06
0.000242222
-5.85543e-06
0.000245113
-5.78098e-06
0.000247966
-5.70425e-06
0.000250779
-5.62524e-06
0.000253551
-5.54396e-06
0.000256282
-5.46039e-06
0.00025897
-5.37456e-06
0.000261614
-5.28647e-06
0.000264212
-5.19612e-06
0.000266765
-5.10354e-06
0.00026927
-5.00874e-06
0.000271726
-4.91176e-06
0.000274133
-4.8126e-06
0.000276489
-4.71131e-06
0.000278794
-4.60792e-06
0.000281045
-4.50247e-06
0.000283243
-4.39498e-06
0.000285387
-4.28552e-06
0.000287474
-4.17413e-06
0.000289505
-4.06085e-06
0.000291478
-3.94574e-06
0.000293393
-3.82886e-06
0.000295249
-3.71028e-06
0.000297044
-3.59004e-06
0.000298779
-3.46823e-06
0.000300451
-3.3449e-06
0.000302062
-3.22013e-06
0.000303609
-3.094e-06
0.000305093
-2.96658e-06
0.000306512
-2.83794e-06
0.000307866
-2.70818e-06
0.000309155
-2.57737e-06
0.000310378
-2.4456e-06
0.000311535
-2.31295e-06
0.000312625
-2.17951e-06
0.000313648
-2.04537e-06
0.000314603
-1.91061e-06
0.000315491
-1.77534e-06
0.000316311
-1.63962e-06
0.000317063
-1.50357e-06
0.000317746
-1.36727e-06
0.000318362
-1.2308e-06
0.000318909
-1.09427e-06
0.000319388
-9.57752e-07
0.000319798
-8.21346e-07
0.000320141
-6.85138e-07
0.000320415
-5.49215e-07
0.000320622
-4.13664e-07
0.000320761
-2.7857e-07
0.000320833
-1.44016e-07
0.000320838
-1.00852e-08
0.000320776
1.23143e-07
0.000320648
2.5559e-07
0.000320454
3.87179e-07
0.000320195
5.17837e-07
0.000319871
6.47492e-07
0.000319483
7.76074e-07
0.000319031
9.03516e-07
0.000318516
1.02975e-06
0.000317938
1.15473e-06
0.000317298
1.27837e-06
0.000316598
1.40064e-06
0.000315837
1.52147e-06
0.000315016
1.64082e-06
0.000314136
1.75863e-06
0.000313198
1.87486e-06
0.000312203
1.98947e-06
0.000311151
2.10243e-06
0.000310044
2.21369e-06
0.000308882
2.32322e-06
0.000307666
2.43098e-06
0.000306397
2.53697e-06
0.000305076
2.64114e-06
0.000303704
2.74347e-06
0.000302282
2.84395e-06
0.00030081
2.94256e-06
0.00029929
3.03929e-06
0.000297722
3.13412e-06
0.000296108
3.22704e-06
0.000294449
3.31805e-06
0.000292745
3.40715e-06
0.000290997
3.49432e-06
0.000289207
3.57958e-06
0.000287375
3.66292e-06
0.000285502
3.74435e-06
0.00028359
3.82387e-06
0.000281639
3.90149e-06
0.000279649
3.97723e-06
0.000277623
4.05108e-06
0.000275561
4.12308e-06
0.000273464
4.19322e-06
0.000271333
4.26153e-06
0.000269169
4.32802e-06
0.000266972
4.39272e-06
0.000264744
4.45564e-06
0.000262485
4.5168e-06
0.000260196
4.57623e-06
0.000257879
4.63394e-06
0.000255533
4.68997e-06
0.000253161
4.74433e-06
0.000250762
4.79706e-06
0.000248337
4.84817e-06
0.000245888
4.8977e-06
0.000243415
4.94567e-06
0.000240919
4.99211e-06
0.0002384
5.03704e-06
0.000235859
5.08051e-06
0.000233297
5.12252e-06
0.000230716
5.16312e-06
0.000228114
5.20233e-06
0.000225494
5.24019e-06
0.000222855
5.27671e-06
0.000220199
5.31194e-06
0.000217525
5.34589e-06
0.000214836
5.37861e-06
0.00021213
5.41011e-06
0.00020941
5.44043e-06
0.000206675
5.46961e-06
0.000203926
5.49765e-06
0.000201163
5.5246e-06
0.000198388
5.55049e-06
0.0001956
5.57534e-06
0.0001928
5.59918e-06
0.000189989
5.62204e-06
0.000187166
5.64395e-06
0.000184334
5.66493e-06
0.000181491
5.68501e-06
0.000178639
5.70423e-06
0.000175777
5.72259e-06
0.000172907
5.74014e-06
0.000170028
5.75689e-06
0.000167142
5.77287e-06
0.000164247
5.78811e-06
0.000161346
5.80263e-06
0.000158438
5.81646e-06
0.000155523
5.82962e-06
0.000152601
5.84212e-06
0.000149674
5.85401e-06
0.000146741
5.86529e-06
0.000143803
5.87599e-06
0.00014086
5.88613e-06
0.000137912
5.89573e-06
0.00013496
5.90481e-06
0.000132003
5.9134e-06
0.000129042
5.92151e-06
0.000126077
5.92917e-06
0.000123109
5.93638e-06
0.000120137
5.94318e-06
0.000117162
5.94957e-06
0.000114185
5.95557e-06
0.000111204
5.96122e-06
0.00010822
5.9665e-06
0.000105235
5.97146e-06
0.000102247
5.9761e-06
9.92563e-05
5.98043e-06
9.62639e-05
5.98447e-06
9.32698e-05
5.98824e-06
9.02738e-05
5.99175e-06
8.72763e-05
5.99502e-06
8.42772e-05
5.99805e-06
8.12767e-05
6.00086e-06
7.82749e-05
6.00346e-06
7.52719e-05
6.00586e-06
7.22679e-05
6.00808e-06
6.92628e-05
6.01013e-06
6.62567e-05
6.01201e-06
6.32498e-05
6.01374e-06
6.02421e-05
6.01532e-06
5.72337e-05
6.01677e-06
5.42246e-05
6.01809e-06
5.12149e-05
6.0193e-06
4.82047e-05
6.02039e-06
4.5194e-05
6.02139e-06
4.21828e-05
6.02228e-06
3.91713e-05
6.02309e-06
3.61594e-05
6.02381e-06
3.31471e-05
6.02446e-06
3.01346e-05
6.02503e-06
2.71218e-05
6.02554e-06
2.41088e-05
6.02598e-06
2.10956e-05
6.02637e-06
1.80822e-05
6.0267e-06
1.50687e-05
6.02697e-06
1.20551e-05
6.0272e-06
9.04141e-06
6.02738e-06
6.02764e-06
6.02751e-06
3.01383e-06
6.0276e-06
6.02764e-06
3.69615e-06
-1.10881e-05
7.39224e-06
-1.10879e-05
1.10882e-05
-1.10875e-05
1.47839e-05
-1.10869e-05
1.84794e-05
-1.1086e-05
2.21745e-05
-1.10849e-05
2.58692e-05
-1.10836e-05
2.95634e-05
-1.1082e-05
3.32569e-05
-1.10802e-05
3.69498e-05
-1.10781e-05
4.06419e-05
-1.10756e-05
4.4333e-05
-1.10729e-05
4.80231e-05
-1.10697e-05
5.17121e-05
-1.10662e-05
5.53998e-05
-1.10623e-05
5.9086e-05
-1.10579e-05
6.27707e-05
-1.10531e-05
6.64535e-05
-1.10477e-05
7.01345e-05
-1.10418e-05
7.38133e-05
-1.10353e-05
7.74897e-05
-1.10282e-05
8.11636e-05
-1.10204e-05
8.48346e-05
-1.10119e-05
8.85026e-05
-1.10026e-05
9.21673e-05
-1.09925e-05
9.58283e-05
-1.09815e-05
9.94853e-05
-1.09696e-05
0.000103138
-1.09567e-05
0.000106786
-1.09428e-05
0.00011043
-1.09278e-05
0.000114067
-1.09116e-05
0.0001177
-1.08943e-05
0.000121326
-1.08756e-05
0.000124945
-1.08556e-05
0.000128557
-1.08342e-05
0.000132162
-1.08114e-05
0.000135758
-1.0787e-05
0.000139346
-1.07609e-05
0.000142925
-1.07333e-05
0.000146494
-1.07038e-05
0.000150052
-1.06726e-05
0.0001536
-1.06395e-05
0.000157136
-1.06044e-05
0.00016066
-1.05672e-05
0.00016417
-1.0528e-05
0.000167667
-1.04866e-05
0.000171149
-1.0443e-05
0.000174616
-1.0397e-05
0.000178067
-1.03487e-05
0.000181501
-1.02979e-05
0.000184917
-1.02446e-05
0.000188315
-1.01887e-05
0.000191693
-1.01301e-05
0.000195051
-1.00689e-05
0.000198388
-1.00048e-05
0.000201702
-9.93791e-06
0.000204993
-9.8681e-06
0.00020826
-9.79533e-06
0.000211501
-9.71955e-06
0.000214717
-9.6407e-06
0.000217905
-9.55873e-06
0.000221064
-9.4736e-06
0.000224194
-9.38527e-06
0.000227294
-9.29369e-06
0.000230362
-9.19883e-06
0.000233398
-9.10065e-06
0.000236399
-8.99913e-06
0.000239366
-8.89425e-06
0.000242296
-8.78598e-06
0.00024519
-8.6743e-06
0.000248045
-8.55922e-06
0.00025086
-8.44071e-06
0.000253635
-8.31878e-06
0.000256368
-8.19343e-06
0.000259058
-8.06467e-06
0.000261704
-7.93251e-06
0.000264305
-7.79697e-06
0.00026686
-7.65808e-06
0.000269367
-7.51586e-06
0.000271825
-7.37034e-06
0.000274234
-7.22157e-06
0.000276593
-7.0696e-06
0.000278899
-6.91446e-06
0.000281153
-6.75623e-06
0.000283353
-6.59495e-06
0.000285498
-6.4307e-06
0.000287587
-6.26354e-06
0.00028962
-6.09356e-06
0.000291595
-5.92082e-06
0.000293512
-5.74543e-06
0.000295369
-5.56747e-06
0.000297166
-5.38704e-06
0.000298902
-5.20423e-06
0.000300576
-5.01915e-06
0.000302188
-4.8319e-06
0.000303737
-4.64261e-06
0.000305221
-4.45138e-06
0.000306642
-4.25833e-06
0.000307997
-4.06358e-06
0.000309287
-3.86726e-06
0.000310511
-3.6695e-06
0.000311668
-3.47041e-06
0.000312759
-3.27014e-06
0.000313783
-3.06882e-06
0.000314739
-2.86657e-06
0.000315627
-2.66354e-06
0.000316447
-2.45986e-06
0.000317199
-2.25567e-06
0.000317883
-2.0511e-06
0.000318498
-1.84629e-06
0.000319045
-1.64138e-06
0.000319524
-1.43649e-06
0.000319935
-1.23177e-06
0.000320277
-1.02735e-06
0.000320551
-8.23357e-07
0.000320757
-6.19924e-07
0.000320896
-4.17179e-07
0.000320967
-2.15246e-07
0.000320971
-1.42494e-08
0.000320909
1.8569e-07
0.00032078
3.84456e-07
0.000320585
5.81933e-07
0.000320325
7.7801e-07
0.00032
9.72578e-07
0.00031961
1.16553e-06
0.000319157
1.35678e-06
0.000318641
1.54621e-06
0.000318062
1.73374e-06
0.000317421
1.91929e-06
0.000316719
2.10275e-06
0.000315956
2.28406e-06
0.000315134
2.46314e-06
0.000314252
2.63991e-06
0.000313313
2.81432e-06
0.000312316
2.98629e-06
0.000311263
3.15576e-06
0.000310154
3.32269e-06
0.00030899
3.48702e-06
0.000307772
3.64871e-06
0.000306502
3.80772e-06
0.000305179
3.964e-06
0.000303805
4.11752e-06
0.00030238
4.26827e-06
0.000300907
4.4162e-06
0.000299385
4.5613e-06
0.000297815
4.70356e-06
0.000296199
4.84295e-06
0.000294538
4.97947e-06
0.000292832
5.11312e-06
0.000291082
5.24388e-06
0.00028929
5.37176e-06
0.000287456
5.49677e-06
0.000285582
5.6189e-06
0.000283667
5.73818e-06
0.000281714
5.8546e-06
0.000279723
5.96818e-06
0.000277696
6.07895e-06
0.000275632
6.18693e-06
0.000273533
6.29212e-06
0.0002714
6.39456e-06
0.000269233
6.49428e-06
0.000267035
6.5913e-06
0.000264805
6.68565e-06
0.000262544
6.77737e-06
0.000260254
6.86648e-06
0.000257935
6.95302e-06
0.000255588
7.03703e-06
0.000253214
7.11855e-06
0.000250813
7.1976e-06
0.000248387
7.27424e-06
0.000245936
7.3485e-06
0.000243462
7.42042e-06
0.000240964
7.49004e-06
0.000238443
7.55741e-06
0.000235901
7.62257e-06
0.000233338
7.68555e-06
0.000230755
7.74642e-06
0.000228152
7.8052e-06
0.00022553
7.86194e-06
0.00022289
7.91669e-06
0.000220233
7.96949e-06
0.000217558
8.02039e-06
0.000214867
8.06943e-06
0.000212161
8.11665e-06
0.000209439
8.16209e-06
0.000206703
8.20581e-06
0.000203953
8.24785e-06
0.000201189
8.28824e-06
0.000198413
8.32703e-06
0.000195624
8.36427e-06
0.000192823
8.4e-06
0.000190011
8.43426e-06
0.000187188
8.46708e-06
0.000184354
8.49852e-06
0.00018151
8.52861e-06
0.000178657
8.5574e-06
0.000175795
8.58491e-06
0.000172924
8.6112e-06
0.000170044
8.63629e-06
0.000167157
8.66024e-06
0.000164262
8.68307e-06
0.00016136
8.70482e-06
0.000158451
8.72553e-06
0.000155535
8.74523e-06
0.000152613
8.76397e-06
0.000149686
8.78176e-06
0.000146752
8.79865e-06
0.000143814
8.81468e-06
0.00014087
8.82986e-06
0.000137921
8.84424e-06
0.000134968
8.85784e-06
0.000132011
8.8707e-06
0.00012905
8.88284e-06
0.000126084
8.8943e-06
0.000123116
8.9051e-06
0.000120144
8.91527e-06
0.000117168
8.92483e-06
0.00011419
8.93382e-06
0.000111209
8.94226e-06
0.000108225
8.95017e-06
0.000105239
8.95759e-06
0.000102251
8.96452e-06
9.92603e-05
8.971e-06
9.62677e-05
8.97705e-06
9.32733e-05
8.98269e-06
9.02771e-05
8.98794e-06
8.72793e-05
8.99282e-06
8.428e-05
8.99735e-06
8.12793e-05
9.00154e-06
7.82773e-05
9.00543e-06
7.52742e-05
9.00903e-06
7.22699e-05
9.01234e-06
6.92647e-05
9.0154e-06
6.62585e-05
9.01821e-06
6.32514e-05
9.02079e-06
6.02436e-05
9.02315e-06
5.7235e-05
9.02531e-06
5.42258e-05
9.02729e-06
5.12161e-05
9.02909e-06
4.82057e-05
9.03072e-06
4.51949e-05
9.0322e-06
4.21837e-05
9.03353e-06
3.9172e-05
9.03474e-06
3.616e-05
9.03582e-06
3.31477e-05
9.03678e-06
3.01351e-05
9.03763e-06
2.71222e-05
9.03839e-06
2.41092e-05
9.03905e-06
2.10959e-05
9.03962e-06
1.80825e-05
9.04011e-06
1.5069e-05
9.04052e-06
1.20553e-05
9.04086e-06
9.04154e-06
9.04113e-06
6.02773e-06
9.04132e-06
3.01388e-06
9.04146e-06
9.04152e-06
3.69636e-06
-1.47845e-05
7.39266e-06
-1.47842e-05
1.10888e-05
-1.47837e-05
1.47848e-05
-1.47828e-05
1.84805e-05
-1.47817e-05
2.21759e-05
-1.47803e-05
2.58708e-05
-1.47786e-05
2.95652e-05
-1.47765e-05
3.32591e-05
-1.47741e-05
3.69523e-05
-1.47712e-05
4.06447e-05
-1.4768e-05
4.43362e-05
-1.47644e-05
4.80267e-05
-1.47602e-05
5.17161e-05
-1.47556e-05
5.54042e-05
-1.47504e-05
5.90909e-05
-1.47446e-05
6.27761e-05
-1.47382e-05
6.64595e-05
-1.47312e-05
7.0141e-05
-1.47233e-05
7.38204e-05
-1.47148e-05
7.74976e-05
-1.47053e-05
8.11722e-05
-1.4695e-05
8.4844e-05
-1.46837e-05
8.85128e-05
-1.46714e-05
9.21783e-05
-1.4658e-05
9.58402e-05
-1.46434e-05
9.94983e-05
-1.46276e-05
0.000103152
-1.46106e-05
0.000106801
-1.45921e-05
0.000110446
-1.45722e-05
0.000114085
-1.45507e-05
0.000117718
-1.45277e-05
0.000121346
-1.45029e-05
0.000124966
-1.44763e-05
0.00012858
-1.44479e-05
0.000132186
-1.44175e-05
0.000135784
-1.43851e-05
0.000139374
-1.43505e-05
0.000142954
-1.43137e-05
0.000146525
-1.42746e-05
0.000150086
-1.42331e-05
0.000153635
-1.4189e-05
0.000157173
-1.41423e-05
0.000160699
-1.40929e-05
0.000164212
-1.40407e-05
0.000167711
-1.39857e-05
0.000171195
-1.39276e-05
0.000174665
-1.38664e-05
0.000178118
-1.38021e-05
0.000181555
-1.37345e-05
0.000184973
-1.36635e-05
0.000188374
-1.35891e-05
0.000191755
-1.35111e-05
0.000195115
-1.34295e-05
0.000198455
-1.33442e-05
0.000201772
-1.32551e-05
0.000205066
-1.31621e-05
0.000208336
-1.30651e-05
0.00021158
-1.29642e-05
0.000214799
-1.28591e-05
0.00021799
-1.27499e-05
0.000221153
-1.26365e-05
0.000224286
-1.25187e-05
0.000227389
-1.23967e-05
0.000230461
-1.22703e-05
0.000233499
-1.21394e-05
0.000236504
-1.20041e-05
0.000239474
-1.18643e-05
0.000242408
-1.17199e-05
0.000245305
-1.1571e-05
0.000248163
-1.14176e-05
0.000250982
-1.12596e-05
0.000253761
-1.1097e-05
0.000256497
-1.09299e-05
0.000259191
-1.07582e-05
0.00026184
-1.05819e-05
0.000264444
-1.04012e-05
0.000267002
-1.02159e-05
0.000269512
-1.00263e-05
0.000271974
-9.83218e-06
0.000274386
-9.63376e-06
0.000276748
-9.43104e-06
0.000279058
-9.22411e-06
0.000281314
-9.01303e-06
0.000283517
-8.79789e-06
0.000285665
-8.57878e-06
0.000287758
-8.35578e-06
0.000289793
-8.12901e-06
0.000291771
-7.89857e-06
0.00029369
-7.66457e-06
0.00029555
-7.42714e-06
0.000297349
-7.18641e-06
0.000299087
-6.9425e-06
0.000300764
-6.69556e-06
0.000302378
-6.44573e-06
0.000303928
-6.19316e-06
0.000305415
-5.938e-06
0.000306837
-5.68041e-06
0.000308194
-5.42055e-06
0.000309485
-5.1586e-06
0.00031071
-4.89471e-06
0.000311869
-4.62906e-06
0.000312961
-4.36183e-06
0.000313985
-4.09319e-06
0.000314942
-3.82332e-06
0.000315831
-3.5524e-06
0.000316651
-3.28062e-06
0.000317404
-3.00815e-06
0.000318088
-2.73518e-06
0.000318704
-2.46189e-06
0.000319251
-2.18846e-06
0.000319729
-1.91507e-06
0.000320139
-1.6419e-06
0.000320481
-1.36913e-06
0.000320755
-1.09694e-06
0.00032096
-8.25497e-07
0.000321098
-5.54974e-07
0.000321168
-2.85539e-07
0.000321171
-1.73565e-08
0.000321108
2.49413e-07
0.000320978
5.14612e-07
0.000320781
7.78087e-07
0.00032052
1.03969e-06
0.000320193
1.29928e-06
0.000319802
1.55671e-06
0.000319347
1.81185e-06
0.000318828
2.06458e-06
0.000318247
2.31476e-06
0.000317604
2.56228e-06
0.0003169
2.80702e-06
0.000316135
3.04889e-06
0.000315311
3.28777e-06
0.000314427
3.52357e-06
0.000313485
3.75621e-06
0.000312486
3.98559e-06
0.00031143
4.21164e-06
0.000310318
4.43429e-06
0.000309152
4.65347e-06
0.000307931
4.86912e-06
0.000306658
5.08119e-06
0.000305332
5.28961e-06
0.000303956
5.49436e-06
0.000302528
5.69539e-06
0.000301052
5.89267e-06
0.000299527
6.08617e-06
0.000297955
6.27586e-06
0.000296336
6.46174e-06
0.000294672
6.64378e-06
0.000292963
6.82197e-06
0.00029121
6.99632e-06
0.000289415
7.16683e-06
0.000287579
7.33349e-06
0.000285701
7.49632e-06
0.000283784
7.65533e-06
0.000281828
7.81054e-06
0.000279834
7.96196e-06
0.000277804
8.10963e-06
0.000275737
8.25355e-06
0.000273635
8.39378e-06
0.0002715
8.53033e-06
0.000269331
8.66324e-06
0.000267129
8.79255e-06
0.000264897
8.91831e-06
0.000262634
9.04054e-06
0.000260341
9.1593e-06
0.000258019
9.27464e-06
0.00025567
9.3866e-06
0.000253293
9.49522e-06
0.00025089
9.60057e-06
0.000248461
9.70269e-06
0.000246008
9.80164e-06
0.000243531
9.89746e-06
0.000241031
9.99023e-06
0.000238509
1.008e-05
0.000235964
1.01668e-05
0.000233399
1.02507e-05
0.000230814
1.03318e-05
0.000228209
1.04101e-05
0.000225585
1.04857e-05
0.000222943
1.05586e-05
0.000220284
1.0629e-05
0.000217607
1.06967e-05
0.000214915
1.07621e-05
0.000212206
1.0825e-05
0.000209483
1.08855e-05
0.000206745
1.09437e-05
0.000203993
1.09997e-05
0.000201228
1.10535e-05
0.00019845
1.11051e-05
0.000195659
1.11547e-05
0.000192857
1.12023e-05
0.000190044
1.12479e-05
0.000187219
1.12916e-05
0.000184384
1.13335e-05
0.000181539
1.13735e-05
0.000178685
1.14118e-05
0.000175821
1.14485e-05
0.000172949
1.14835e-05
0.000170068
1.15169e-05
0.00016718
1.15487e-05
0.000164284
1.15791e-05
0.000161381
1.1608e-05
0.000158471
1.16356e-05
0.000155554
1.16618e-05
0.000152631
1.16867e-05
0.000149703
1.17104e-05
0.000146768
1.17329e-05
0.000143829
1.17542e-05
0.000140884
1.17744e-05
0.000137935
1.17935e-05
0.000134981
1.18116e-05
0.000132023
1.18287e-05
0.000129061
1.18449e-05
0.000126095
1.18601e-05
0.000123126
1.18744e-05
0.000120153
1.1888e-05
0.000117177
1.19007e-05
0.000114199
1.19126e-05
0.000111217
1.19238e-05
0.000108233
1.19343e-05
0.000105246
1.19442e-05
0.000102257
1.19534e-05
9.92664e-05
1.1962e-05
9.62734e-05
1.197e-05
9.32786e-05
1.19775e-05
9.0282e-05
1.19845e-05
8.72839e-05
1.1991e-05
8.42842e-05
1.1997e-05
8.12832e-05
1.20025e-05
7.8281e-05
1.20077e-05
7.52775e-05
1.20125e-05
7.2273e-05
1.20169e-05
6.92675e-05
1.20209e-05
6.62611e-05
1.20246e-05
6.32538e-05
1.20281e-05
6.02458e-05
1.20312e-05
5.7237e-05
1.2034e-05
5.42276e-05
1.20367e-05
5.12177e-05
1.2039e-05
4.82072e-05
1.20412e-05
4.51963e-05
1.20432e-05
4.21849e-05
1.20449e-05
3.91731e-05
1.20465e-05
3.6161e-05
1.20479e-05
3.31486e-05
1.20492e-05
3.01358e-05
1.20503e-05
2.71229e-05
1.20513e-05
2.41097e-05
1.20522e-05
2.10964e-05
1.2053e-05
1.80829e-05
1.20536e-05
1.50693e-05
1.20541e-05
1.20556e-05
1.20546e-05
9.04174e-06
1.20549e-05
6.02786e-06
1.20552e-05
3.01394e-06
1.20554e-05
1.20555e-05
3.69664e-06
-1.84811e-05
7.39322e-06
-1.84808e-05
1.10897e-05
-1.84801e-05
1.47859e-05
-1.84791e-05
1.84819e-05
-1.84777e-05
2.21776e-05
-1.8476e-05
2.58729e-05
-1.84738e-05
2.95677e-05
-1.84713e-05
3.32619e-05
-1.84683e-05
3.69555e-05
-1.84648e-05
4.06483e-05
-1.84609e-05
4.43403e-05
-1.84563e-05
4.80313e-05
-1.84513e-05
5.17213e-05
-1.84455e-05
5.541e-05
-1.84391e-05
5.90973e-05
-1.8432e-05
6.27832e-05
-1.84241e-05
6.64674e-05
-1.84153e-05
7.01497e-05
-1.84057e-05
7.38299e-05
-1.8395e-05
7.7508e-05
-1.83833e-05
8.11835e-05
-1.83705e-05
8.48564e-05
-1.83565e-05
8.85262e-05
-1.83413e-05
9.21929e-05
-1.83246e-05
9.58561e-05
-1.83066e-05
9.95154e-05
-1.8287e-05
0.000103171
-1.82658e-05
0.000106821
-1.82428e-05
0.000110467
-1.82181e-05
0.000114108
-1.81914e-05
0.000117743
-1.81628e-05
0.000121372
-1.8132e-05
0.000124995
-1.80989e-05
0.000128611
-1.80636e-05
0.000132219
-1.80258e-05
0.000135819
-1.79854e-05
0.000139411
-1.79424e-05
0.000142994
-1.78965e-05
0.000146567
-1.78478e-05
0.00015013
-1.7796e-05
0.000153682
-1.77411e-05
0.000157223
-1.7683e-05
0.000160751
-1.76214e-05
0.000164267
-1.75564e-05
0.000167769
-1.74877e-05
0.000171256
-1.74153e-05
0.000174729
-1.7339e-05
0.000178186
-1.72588e-05
0.000181626
-1.71744e-05
0.000185048
-1.70859e-05
0.000188452
-1.6993e-05
0.000191837
-1.68957e-05
0.000195201
-1.67938e-05
0.000198544
-1.66873e-05
0.000201865
-1.65761e-05
0.000205163
-1.646e-05
0.000208437
-1.6339e-05
0.000211686
-1.62129e-05
0.000214908
-1.60817e-05
0.000218103
-1.59453e-05
0.000221271
-1.58036e-05
0.000224408
-1.56565e-05
0.000227516
-1.55041e-05
0.000230592
-1.53461e-05
0.000233635
-1.51826e-05
0.000236644
-1.50135e-05
0.000239619
-1.48388e-05
0.000242557
-1.46584e-05
0.000245459
-1.44724e-05
0.000248322
-1.42806e-05
0.000251145
-1.40831e-05
0.000253928
-1.38798e-05
0.000256669
-1.36709e-05
0.000259367
-1.34562e-05
0.000262021
-1.32359e-05
0.00026463
-1.30099e-05
0.000267192
-1.27783e-05
0.000269707
-1.25411e-05
0.000272173
-1.22984e-05
0.000274589
-1.20502e-05
0.000276955
-1.17967e-05
0.000279269
-1.15379e-05
0.00028153
-1.12739e-05
0.000283737
-1.10048e-05
0.000285889
-1.07307e-05
0.000287985
-1.04518e-05
0.000290024
-1.01681e-05
0.000292005
-9.87987e-06
0.000293928
-9.58715e-06
0.000295791
-9.29012e-06
0.000297593
-8.98896e-06
0.000299334
-8.68381e-06
0.000301014
-8.37486e-06
0.00030263
-8.0623e-06
0.000304183
-7.74629e-06
0.000305673
-7.42705e-06
0.000307097
-7.10476e-06
0.000308456
-6.77963e-06
0.000309749
-6.45187e-06
0.000310976
-6.12168e-06
0.000312136
-5.7893e-06
0.000313229
-5.45492e-06
0.000314255
-5.11879e-06
0.000315213
-4.78112e-06
0.000316103
-4.44213e-06
0.000316924
-4.10206e-06
0.000317677
-3.76113e-06
0.000318361
-3.41957e-06
0.000318977
-3.07762e-06
0.000319524
-2.73549e-06
0.000320003
-2.39342e-06
0.000320412
-2.05163e-06
0.000320753
-1.71034e-06
0.000321026
-1.36977e-06
0.000321231
-1.03015e-06
0.000321368
-6.91682e-07
0.000321437
-3.5458e-07
0.000321438
-1.90496e-08
0.000321373
3.14707e-07
0.000321241
6.46492e-07
0.000321043
9.76115e-07
0.00032078
1.30339e-06
0.000320451
1.62813e-06
0.000320057
1.95018e-06
0.0003196
2.26934e-06
0.000319079
2.58548e-06
0.000318495
2.89843e-06
0.000317849
3.20804e-06
0.000317142
3.51417e-06
0.000316374
3.81669e-06
0.000315547
4.11548e-06
0.00031466
4.4104e-06
0.000313715
4.70135e-06
0.000312712
4.98823e-06
0.000311653
5.27093e-06
0.000310538
5.54937e-06
0.000309368
5.82346e-06
0.000308144
6.09312e-06
0.000306867
6.3583e-06
0.000305537
6.61891e-06
0.000304157
6.87492e-06
0.000302726
7.12627e-06
0.000301246
7.37292e-06
0.000299717
7.61484e-06
0.000298141
7.85199e-06
0.000296518
8.08436e-06
0.00029485
8.31192e-06
0.000293137
8.53468e-06
0.000291381
8.75261e-06
0.000289582
8.96574e-06
0.000287742
9.17405e-06
0.00028586
9.37757e-06
0.000283939
9.5763e-06
0.00028198
9.77027e-06
0.000279982
9.95951e-06
0.000277948
1.0144e-05
0.000275877
1.03239e-05
0.000273772
1.04991e-05
0.000271633
1.06697e-05
0.00026946
1.08358e-05
0.000267255
1.09974e-05
0.000265019
1.11545e-05
0.000262752
1.13072e-05
0.000260456
1.14556e-05
0.000258131
1.15996e-05
0.000255778
1.17395e-05
0.000253398
1.18752e-05
0.000250992
1.20068e-05
0.000248561
1.21343e-05
0.000246104
1.22579e-05
0.000243624
1.23776e-05
0.000241121
1.24934e-05
0.000238595
1.26055e-05
0.000236048
1.27139e-05
0.00023348
1.28187e-05
0.000230892
1.292e-05