/*--------------------------------*- C++ -*----------------------------------*\
| =========                 |                                                 |
| \\      /  F ield         | OpenFOAM: The Open Source CFD Toolbox           |
|  \\    /   O peration     | Version:  v2012                                 |
|   \\  /    A nd           | Website:  www.openfoam.com                      |
|    \\/     M anipulation  |                                                 |
\*---------------------------------------------------------------------------*/
FoamFile
{
    version     2.0;
    format      ascii;
    class       volScalarField;
    location    "10.6";
    object      W;
}
// * * * * * * * * * * * * * * * * * * * * * * * * * * * * * * * * * * * * * //

dimensions      [0 0 -1 0 0 0 0];


internalField   nonuniform List<scalar> 
65536
(
2.14465e-18
6.4838e-18
1.09741e-17
1.57208e-17
2.08349e-17
2.64347e-17
3.26489e-17
3.96187e-17
4.75004e-17
5.64688e-17
6.67202e-17
7.8476e-17
9.19865e-17
1.07535e-16
1.25445e-16
1.4608e-16
1.69856e-16
1.97245e-16
2.28781e-16
2.6507e-16
3.06801e-16
3.54751e-16
4.09802e-16
4.72948e-16
5.45313e-16
6.28164e-16
7.22927e-16
8.31204e-16
9.54799e-16
1.09573e-15
1.25626e-15
1.43892e-15
1.64654e-15
1.88227e-15
2.14962e-15
2.4525e-15
2.79524e-15
3.18264e-15
3.62002e-15
4.11326e-15
4.66883e-15
5.29389e-15
5.99627e-15
6.78459e-15
7.66829e-15
8.65769e-15
9.76406e-15
1.09997e-14
1.23779e-14
1.39132e-14
1.56213e-14
1.75193e-14
1.96253e-14
2.19591e-14
2.45421e-14
2.73967e-14
3.05475e-14
3.40203e-14
3.78428e-14
4.20442e-14
4.66558e-14
5.17103e-14
5.72424e-14
6.32885e-14
6.98868e-14
7.7077e-14
8.49009e-14
9.34014e-14
1.02623e-13
1.12613e-13
1.23417e-13
1.35084e-13
1.47664e-13
1.61207e-13
1.75763e-13
1.91383e-13
2.08118e-13
2.2602e-13
2.45136e-13
2.65517e-13
2.8721e-13
3.10259e-13
3.3471e-13
3.60601e-13
3.8797e-13
4.1685e-13
4.47272e-13
4.79259e-13
5.12831e-13
5.48002e-13
5.84777e-13
6.23158e-13
6.63138e-13
7.047e-13
7.47822e-13
7.9247e-13
8.38604e-13
8.86171e-13
9.3511e-13
9.85348e-13
1.0368e-12
1.08938e-12
1.14297e-12
1.19747e-12
1.25274e-12
1.30864e-12
1.36502e-12
1.42173e-12
1.47859e-12
1.53542e-12
1.59203e-12
1.64822e-12
1.70377e-12
1.75847e-12
1.8121e-12
1.86443e-12
1.91522e-12
1.96424e-12
2.01123e-12
2.05598e-12
2.09822e-12
2.13773e-12
2.17428e-12
2.20762e-12
2.23756e-12
2.26386e-12
2.28633e-12
2.3048e-12
2.31908e-12
2.32902e-12
2.33449e-12
2.33538e-12
2.33159e-12
2.32306e-12
2.30975e-12
2.29165e-12
2.26878e-12
2.24118e-12
2.20893e-12
2.17213e-12
2.13093e-12
2.0855e-12
2.03603e-12
1.98275e-12
1.92593e-12
1.86584e-12
1.8028e-12
1.73714e-12
1.66921e-12
1.59937e-12
1.52801e-12
1.45552e-12
1.3823e-12
1.30874e-12
1.23524e-12
1.1622e-12
1.09e-12
1.019e-12
9.49557e-13
8.82007e-13
8.16654e-13
7.53779e-13
6.93636e-13
6.36445e-13
5.82398e-13
5.3165e-13
4.84324e-13
4.4051e-13
4.00262e-13
3.63603e-13
3.30525e-13
3.00987e-13
2.74922e-13
2.52235e-13
2.32804e-13
2.16486e-13
2.03118e-13
1.92516e-13
1.8448e-13
1.78797e-13
1.75238e-13
1.73569e-13
1.73543e-13
1.7491e-13
1.77418e-13
1.80811e-13
1.84837e-13
1.8925e-13
1.93809e-13
1.98286e-13
2.02467e-13
2.06153e-13
2.09169e-13
2.11358e-13
2.12592e-13
2.12769e-13
2.11817e-13
2.09693e-13
2.06384e-13
2.01906e-13
1.96304e-13
1.8965e-13
1.82037e-13
1.7358e-13
1.64408e-13
1.54664e-13
1.44495e-13
1.34054e-13
1.23491e-13
1.12948e-13
1.02561e-13
9.24514e-14
8.27257e-14
7.3474e-14
6.47687e-14
5.66639e-14
4.91961e-14
4.23849e-14
3.62346e-14
3.07355e-14
2.58665e-14
2.1597e-14
1.78889e-14
1.46989e-14
1.19805e-14
9.68572e-15
7.7667e-15
6.17686e-15
4.87197e-15
3.81091e-15
2.95611e-15
2.27385e-15
1.73434e-15
1.31166e-15
9.83571e-16
7.31257e-16
5.39012e-16
3.9389e-16
2.85355e-16
2.04934e-16
1.45897e-16
1.02961e-16
7.20229e-17
4.99382e-17
3.43197e-17
2.33769e-17
1.57812e-17
1.05576e-17
6.99802e-18
4.59377e-18
2.98282e-18
1.90977e-18
1.19551e-18
7.14394e-19
3.77088e-19
1.1751e-19
7.42227e-18
2.24392e-17
3.7979e-17
5.44057e-17
7.21029e-17
9.14803e-17
1.12983e-16
1.37098e-16
1.64366e-16
1.95393e-16
2.30856e-16
2.71521e-16
3.18252e-16
3.72032e-16
4.33971e-16
5.05333e-16
5.87552e-16
6.82256e-16
7.91292e-16
9.16754e-16
1.06102e-15
1.22677e-15
1.41705e-15
1.63528e-15
1.88536e-15
2.17164e-15
2.49905e-15
2.8731e-15
3.30002e-15
3.78675e-15
4.3411e-15
4.97178e-15
5.68852e-15
6.50216e-15
7.42479e-15
8.46981e-15
9.65213e-15
1.09882e-14
1.24964e-14
1.41968e-14
1.61116e-14
1.82653e-14
2.06847e-14
2.33995e-14
2.64417e-14
2.98467e-14
3.3653e-14
3.79025e-14
4.26406e-14
4.79168e-14
5.37844e-14
6.03012e-14
6.75294e-14
7.55359e-14
8.43923e-14
9.41757e-14
1.04968e-13
1.16857e-13
1.29935e-13
1.44302e-13
1.60061e-13
1.77322e-13
1.96202e-13
2.16821e-13
2.39307e-13
2.63793e-13
2.90415e-13
3.19316e-13
3.50644e-13
3.84549e-13
4.21187e-13
4.60716e-13
5.03297e-13
5.49091e-13
5.98263e-13
6.50975e-13
7.07389e-13
7.67666e-13
8.31964e-13
9.00433e-13
9.73222e-13
1.05047e-12
1.13231e-12
1.21886e-12
1.31022e-12
1.40651e-12
1.50779e-12
1.61413e-12
1.72557e-12
1.84215e-12
1.96386e-12
2.09068e-12
2.22258e-12
2.35947e-12
2.50127e-12
2.64783e-12
2.79901e-12
2.9546e-12
3.11439e-12
3.27811e-12
3.44548e-12
3.61616e-12
3.7898e-12
3.96599e-12
4.1443e-12
4.32427e-12
4.50539e-12
4.68712e-12
4.8689e-12
5.05013e-12
5.23019e-12
5.40842e-12
5.58414e-12
5.75666e-12
5.92526e-12
6.0892e-12
6.24774e-12
6.40014e-12
6.54563e-12
6.68346e-12
6.81289e-12
6.93318e-12
7.04361e-12
7.14348e-12
7.23213e-12
7.30891e-12
7.37323e-12
7.42454e-12
7.46234e-12
7.48618e-12
7.49569e-12
7.49054e-12
7.47051e-12
7.43544e-12
7.38523e-12
7.31992e-12
7.23959e-12
7.14443e-12
7.03475e-12
6.91091e-12
6.7734e-12
6.62279e-12
6.45975e-12
6.28504e-12
6.09949e-12
5.90404e-12
5.69966e-12
5.48743e-12
5.26847e-12
5.04394e-12
4.81504e-12
4.58302e-12
4.3491e-12
4.11456e-12
3.88061e-12
3.64849e-12
3.41938e-12
3.19442e-12
2.9747e-12
2.76122e-12
2.55493e-12
2.35669e-12
2.16726e-12
1.98732e-12
1.81742e-12
1.65804e-12
1.50952e-12
1.37213e-12
1.24601e-12
1.13121e-12
1.02768e-12
9.35268e-13
8.53752e-13
7.82814e-13
7.22062e-13
6.71035e-13
6.29209e-13
5.96004e-13
5.70787e-13
5.52886e-13
5.41588e-13
5.36153e-13
5.35817e-13
5.39801e-13
5.47317e-13
5.57574e-13
5.69793e-13
5.83207e-13
5.97078e-13
6.10699e-13
6.23408e-13
6.34599e-13
6.43725e-13
6.50312e-13
6.53963e-13
6.54369e-13
6.51305e-13
6.44644e-13
6.34346e-13
6.20464e-13
6.03139e-13
5.82589e-13
5.59106e-13
5.33039e-13
5.04791e-13
4.74795e-13
4.4351e-13
4.11401e-13
3.78926e-13
3.46526e-13
3.14615e-13
2.83564e-13
2.537e-13
2.25298e-13
1.98579e-13
1.73709e-13
1.50798e-13
1.29905e-13
1.11043e-13
9.41805e-14
7.92527e-14
6.61646e-14
5.4799e-14
4.50229e-14
3.66931e-14
2.96622e-14
2.37833e-14
1.89133e-14
1.49166e-14
1.16671e-14
9.04947e-15
6.96041e-15
5.30859e-15
4.01456e-15
3.0102e-15
2.23787e-15
1.64945e-15
1.2053e-15
8.7314e-16
6.27036e-16
4.46382e-16
3.15001e-16
2.20341e-16
1.52771e-16
1.04988e-16
7.15103e-17
4.82736e-17
3.22941e-17
2.14054e-17
1.40511e-17
9.12346e-18
5.84127e-18
3.65658e-18
2.18502e-18
1.15335e-18
3.5942e-19
1.60692e-17
4.85805e-17
8.2223e-17
1.17784e-16
1.56093e-16
1.98035e-16
2.44573e-16
2.9676e-16
3.55768e-16
4.229e-16
4.99625e-16
5.87594e-16
6.88679e-16
8.04996e-16
9.38949e-16
1.09326e-15
1.27104e-15
1.47578e-15
1.71149e-15
1.98267e-15
2.29444e-15
2.6526e-15
3.06371e-15
3.53516e-15
4.07529e-15
4.69352e-15
5.40043e-15
6.20791e-15
7.1293e-15
8.17958e-15
9.37548e-15
1.07357e-14
1.22811e-14
1.4035e-14
1.60233e-14
1.82746e-14
2.08208e-14
2.36973e-14
2.69429e-14
3.06008e-14
3.47182e-14
3.93474e-14
4.45453e-14
5.03748e-14
5.69042e-14
6.42084e-14
7.23687e-14
8.14737e-14
9.16194e-14
1.0291e-13
1.15457e-13
1.29383e-13
1.44817e-13
1.61899e-13
1.8078e-13
2.01618e-13
2.24585e-13
2.49861e-13
2.77639e-13
3.08122e-13
3.41524e-13
3.7807e-13
4.17997e-13
4.6155e-13
5.08988e-13
5.60576e-13
6.16591e-13
6.77318e-13
7.43049e-13
8.14083e-13
8.90724e-13
9.73281e-13
1.06206e-12
1.15739e-12
1.25956e-12
1.36889e-12
1.48568e-12
1.61024e-12
1.74283e-12
1.88374e-12
2.03323e-12
2.19153e-12
2.35886e-12
2.53543e-12
2.72139e-12
2.91688e-12
3.12201e-12
3.33685e-12
3.56141e-12
3.79569e-12
4.03962e-12
4.29309e-12
4.55594e-12
4.82795e-12
5.10884e-12
5.39829e-12
5.69589e-12
6.00121e-12
6.31371e-12
6.63281e-12
6.95787e-12
7.28818e-12
7.62296e-12
7.96137e-12
8.3025e-12
8.6454e-12
8.98905e-12
9.33236e-12
9.6742e-12
1.00134e-11
1.03487e-11
1.06789e-11
1.10027e-11
1.13187e-11
1.16257e-11
1.19221e-11
1.22067e-11
1.2478e-11
1.27348e-11
1.29756e-11
1.31992e-11
1.34041e-11
1.35893e-11
1.37534e-11
1.38953e-11
1.40141e-11
1.41086e-11
1.4178e-11
1.42216e-11
1.42386e-11
1.42285e-11
1.41909e-11
1.41255e-11
1.40322e-11
1.3911e-11
1.37621e-11
1.35859e-11
1.33827e-11
1.31534e-11
1.28988e-11
1.26199e-11
1.23179e-11
1.19941e-11
1.16501e-11
1.12874e-11
1.09078e-11
1.05133e-11
1.01059e-11
9.68755e-12
9.26053e-12
8.82702e-12
8.38928e-12
7.94958e-12
7.51016e-12
7.07327e-12
6.64106e-12
6.21566e-12
5.79905e-12
5.39315e-12
4.99973e-12
4.6204e-12
4.25664e-12
3.90974e-12
3.58082e-12
3.27082e-12
2.98047e-12
2.71035e-12
2.46082e-12
2.23205e-12
2.02407e-12
1.83669e-12
1.66959e-12
1.52229e-12
1.39416e-12
1.28443e-12
1.19225e-12
1.11661e-12
1.05645e-12
1.0106e-12
9.77832e-13
9.56852e-13
9.4632e-13
9.44862e-13
9.5108e-13
9.63567e-13
9.80917e-13
1.00174e-12
1.02469e-12
1.04845e-12
1.07179e-12
1.09353e-12
1.11262e-12
1.12809e-12
1.13913e-12
1.14503e-12
1.14526e-12
1.13944e-12
1.12735e-12
1.10892e-12
1.08425e-12
1.0536e-12
1.01735e-12
9.76009e-13
9.302e-13
8.80621e-13
8.28034e-13
7.73238e-13
7.17043e-13
6.60251e-13
6.03628e-13
5.47891e-13
4.93685e-13
4.41578e-13
3.92045e-13
3.45467e-13
3.02129e-13
2.6222e-13
2.2584e-13
1.93006e-13
1.63663e-13
1.37694e-13
1.14932e-13
9.51715e-14
7.81785e-14
6.37032e-14
5.14882e-14
4.12766e-14
3.28194e-14
2.58802e-14
2.02393e-14
1.56962e-14
1.20712e-14
9.20528e-15
6.96054e-15
5.21855e-15
3.87918e-15
2.8589e-15
2.08886e-15
1.51306e-15
1.08649e-15
7.734e-16
5.45727e-16
3.81703e-16
2.64632e-16
1.81849e-16
1.23856e-16
8.36052e-17
5.59274e-17
3.70687e-17
2.43319e-17
1.57983e-17
1.01145e-17
6.33145e-18
3.78335e-18
1.997e-18
6.22334e-19
3.18221e-17
9.62041e-17
1.62824e-16
2.33239e-16
3.09089e-16
3.92128e-16
4.84255e-16
5.87558e-16
7.04348e-16
8.37208e-16
9.89034e-16
1.1631e-15
1.36309e-15
1.59319e-15
1.85815e-15
2.16336e-15
2.51492e-15
2.91977e-15
3.38578e-15
3.92186e-15
4.5381e-15
5.24592e-15
6.05825e-15
6.98965e-15
8.05656e-15
9.27749e-15
1.06733e-14
1.22673e-14
1.40857e-14
1.61581e-14
1.85171e-14
2.11995e-14
2.42463e-14
2.77029e-14
3.162e-14
3.60539e-14
4.10666e-14
4.67272e-14
5.31116e-14
6.03035e-14
6.83952e-14
7.74878e-14
8.76922e-14
9.91298e-14
1.11933e-13
1.26246e-13
1.42227e-13
1.60045e-13
1.79884e-13
2.01946e-13
2.26443e-13
2.53608e-13
2.83688e-13
3.16949e-13
3.53675e-13
3.94169e-13
4.3875e-13
4.87758e-13
5.41555e-13
6.00517e-13
6.65043e-13
7.35548e-13
8.12468e-13
8.96253e-13
9.87374e-13
1.08631e-12
1.19357e-12
1.30965e-12
1.43507e-12
1.57037e-12
1.71608e-12
1.87272e-12
2.04084e-12
2.22097e-12
2.41362e-12
2.61931e-12
2.83853e-12
3.07176e-12
3.31943e-12
3.58198e-12
3.85977e-12
4.15316e-12
4.46242e-12
4.78781e-12
5.1295e-12
5.48762e-12
5.86222e-12
6.25328e-12
6.6607e-12
7.0843e-12
7.52381e-12
7.97886e-12
8.44901e-12
8.93369e-12
9.43225e-12
9.94392e-12
1.04678e-11
1.1003e-11
1.15484e-11
1.21028e-11
1.2665e-11
1.32334e-11
1.38067e-11
1.43832e-11
1.49613e-11
1.55391e-11
1.61148e-11
1.66865e-11
1.72522e-11
1.78098e-11
1.83571e-11
1.88921e-11
1.94125e-11
1.99162e-11
2.04008e-11
2.08642e-11
2.13042e-11
2.17185e-11
2.2105e-11
2.24617e-11
2.27865e-11
2.30775e-11
2.33329e-11
2.35508e-11
2.37298e-11
2.38683e-11
2.39652e-11
2.40191e-11
2.40292e-11
2.39948e-11
2.39153e-11
2.37904e-11
2.362e-11
2.34043e-11
2.31437e-11
2.28388e-11
2.24905e-11
2.21001e-11
2.16689e-11
2.11987e-11
2.06913e-11
2.01491e-11
1.95743e-11
1.89696e-11
1.83379e-11
1.76822e-11
1.70057e-11
1.63116e-11
1.56034e-11
1.48847e-11
1.41589e-11
1.34297e-11
1.27007e-11
1.19753e-11
1.12571e-11
1.05494e-11
9.85544e-12
9.17818e-12
8.52052e-12
7.88507e-12
7.27423e-12
6.69011e-12
6.13456e-12
5.60915e-12
5.11514e-12
4.6535e-12
4.22492e-12
3.82977e-12
3.46817e-12
3.13995e-12
2.84467e-12
2.58166e-12
2.35003e-12
2.14866e-12
1.97626e-12
1.83135e-12
1.71231e-12
1.61739e-12
1.54472e-12
1.49231e-12
1.45814e-12
1.44009e-12
1.43601e-12
1.44372e-12
1.46105e-12
1.48584e-12
1.51595e-12
1.54932e-12
1.58394e-12
1.61795e-12
1.64957e-12
1.6772e-12
1.6994e-12
1.71493e-12
1.72277e-12
1.7221e-12
1.71237e-12
1.69326e-12
1.66468e-12
1.6268e-12
1.58e-12
1.52488e-12
1.46221e-12
1.39293e-12
1.31808e-12
1.23882e-12
1.15634e-12
1.07185e-12
9.86545e-13
9.01578e-13
8.18009e-13
7.36799e-13
6.58788e-13
5.8468e-13
5.15037e-13
4.50274e-13
3.90668e-13
3.36359e-13
2.87368e-13
2.43606e-13
2.04893e-13
1.70974e-13
1.4154e-13
1.16237e-13
9.46909e-14
7.65152e-14
6.13256e-14
4.87495e-14
3.84337e-14
3.00503e-14
2.33003e-14
1.79155e-14
1.36596e-14
1.03268e-14
7.74105e-15
5.75335e-15
4.23948e-15
3.09714e-15
2.2431e-15
1.6105e-15
1.14627e-15
8.08737e-16
5.65603e-16
3.92089e-16
2.6941e-16
1.83477e-16
1.23841e-16
8.28373e-17
5.4901e-17
3.6035e-17
2.33958e-17
1.4978e-17
9.37557e-18
5.60222e-18
2.95703e-18
9.21509e-19
6.11962e-17
1.85006e-16
3.13115e-16
4.48517e-16
5.9436e-16
7.54014e-16
9.3113e-16
1.12971e-15
1.35421e-15
1.60957e-15
1.90136e-15
2.23585e-15
2.62014e-15
3.06225e-15
3.57129e-15
4.15759e-15
4.83287e-15
5.61042e-15
6.50533e-15
7.53467e-15
8.71779e-15
1.00766e-14
1.16357e-14
1.34231e-14
1.54702e-14
1.78124e-14
2.04895e-14
2.35462e-14
2.70325e-14
3.10046e-14
3.5525e-14
4.06638e-14
4.64987e-14
5.31166e-14
6.06136e-14
6.90965e-14
7.86833e-14
8.95047e-14
1.01705e-13
1.15441e-13
1.30889e-13
1.48238e-13
1.67699e-13
1.89498e-13
2.13886e-13
2.41132e-13
2.7153e-13
3.054e-13
3.43084e-13
3.84954e-13
4.31408e-13
4.82876e-13
5.39814e-13
6.02712e-13
6.72091e-13
7.48504e-13
8.32537e-13
9.24807e-13
1.02597e-12
1.1367e-12
1.25771e-12
1.38976e-12
1.5336e-12
1.69005e-12
1.85993e-12
2.04407e-12
2.24335e-12
2.45864e-12
2.69083e-12
2.94081e-12
3.20948e-12
3.49772e-12
3.80641e-12
4.1364e-12
4.48852e-12
4.86357e-12
5.26229e-12
5.68539e-12
6.13351e-12
6.60722e-12
7.10702e-12
7.63331e-12
8.1864e-12
8.76649e-12
9.37368e-12
1.00079e-11
1.06691e-11
1.13568e-11
1.20707e-11
1.28101e-11
1.35743e-11
1.43623e-11
1.5173e-11
1.60052e-11
1.68575e-11
1.77281e-11
1.86154e-11
1.95173e-11
2.04317e-11
2.13564e-11
2.22888e-11
2.32264e-11
2.41664e-11
2.51059e-11
2.60419e-11
2.69712e-11
2.78907e-11
2.8797e-11
2.96868e-11
3.05565e-11
3.14027e-11
3.2222e-11
3.30107e-11
3.37655e-11
3.44828e-11
3.51592e-11
3.57915e-11
3.63764e-11
3.69108e-11
3.73917e-11
3.78164e-11
3.81821e-11
3.84864e-11
3.87272e-11
3.89025e-11
3.90105e-11
3.90499e-11
3.90194e-11
3.89183e-11
3.8746e-11
3.85025e-11
3.81878e-11
3.78026e-11
3.73478e-11
3.68246e-11
3.62348e-11
3.55803e-11
3.48637e-11
3.40876e-11
3.32554e-11
3.23703e-11
3.14364e-11
3.04576e-11
2.94385e-11
2.83836e-11
2.72979e-11
2.61864e-11
2.50543e-11
2.39071e-11
2.275e-11
2.15885e-11
2.0428e-11
1.92738e-11
1.81312e-11
1.70051e-11
1.59004e-11
1.48217e-11
1.37732e-11
1.2759e-11
1.17826e-11
1.08473e-11
9.95585e-12
9.11066e-12
8.31371e-12
7.5665e-12
6.87011e-12
6.2252e-12
5.63199e-12
5.09029e-12
4.59955e-12
4.15881e-12
3.76682e-12
3.42198e-12
3.12242e-12
2.86602e-12
2.65042e-12
2.47307e-12
2.33124e-12
2.22207e-12
2.14258e-12
2.08969e-12
2.06027e-12
2.05113e-12
2.05908e-12
2.08094e-12
2.11356e-12
2.15386e-12
2.19887e-12
2.24573e-12
2.29176e-12
2.33444e-12
2.37151e-12
2.40093e-12
2.42097e-12
2.43019e-12
2.42747e-12
2.41204e-12
2.38347e-12
2.34168e-12
2.28691e-12
2.21972e-12
2.14096e-12
2.05173e-12
1.95337e-12
1.84735e-12
1.73529e-12
1.61888e-12
1.4998e-12
1.37973e-12
1.26027e-12
1.14289e-12
1.02894e-12
9.19571e-13
8.15761e-13
7.18278e-13
6.27693e-13
5.44375e-13
4.68512e-13
4.00117e-13
3.39057e-13
2.85071e-13
2.37796e-13
1.9679e-13
1.61557e-13
1.31568e-13
1.06281e-13
8.51572e-14
6.76745e-14
5.33393e-14
4.16936e-14
3.232e-14
2.48447e-14
1.89383e-14
1.43144e-14
1.07279e-14
7.9716e-15
5.87292e-15
4.28965e-15
3.10624e-15
2.22986e-15
1.58685e-15
1.11942e-15
7.82779e-16
5.42573e-16
3.72766e-16
2.53838e-16
1.71316e-16
1.14583e-16
7.59346e-17
4.98372e-17
3.23549e-17
2.07126e-17
1.29646e-17
7.74652e-18
4.08878e-18
1.27419e-18
1.15847e-16
3.50222e-16
5.92732e-16
8.49036e-16
1.1251e-15
1.42728e-15
1.7625e-15
2.13833e-15
2.56317e-15
3.04639e-15
3.59852e-15
4.23142e-15
4.95848e-15
5.79489e-15
6.75785e-15
7.86689e-15
9.14414e-15
1.06147e-14
1.23071e-14
1.42535e-14
1.64905e-14
1.90593e-14
2.20065e-14
2.53847e-14
2.92533e-14
3.36789e-14
3.87364e-14
4.45099e-14
5.10936e-14
5.8593e-14
6.71257e-14
7.68232e-14
8.78316e-14
1.00313e-13
1.14449e-13
1.30438e-13
1.48502e-13
1.68884e-13
1.91853e-13
2.17704e-13
2.46762e-13
2.79381e-13
3.1595e-13
3.56891e-13
4.02667e-13
4.53776e-13
5.10762e-13
5.74209e-13
6.44752e-13
7.23068e-13
8.09889e-13
9.05996e-13
1.01222e-12
1.12946e-12
1.25864e-12
1.40077e-12
1.5569e-12
1.72814e-12
1.91565e-12
2.12064e-12
2.34437e-12
2.58815e-12
2.85334e-12
3.14132e-12
3.45352e-12
3.79139e-12
4.15639e-12
4.55002e-12
4.97376e-12
5.42908e-12
5.91744e-12
6.44029e-12
6.999e-12
7.59491e-12
8.2293e-12
8.90334e-12
9.61811e-12
1.03746e-11
1.11736e-11
1.20159e-11
1.2902e-11
1.38322e-11
1.48067e-11
1.58255e-11
1.68883e-11
1.79946e-11
1.91437e-11
2.03345e-11
2.15658e-11
2.28361e-11
2.41435e-11
2.54859e-11
2.6861e-11
2.8266e-11
2.96979e-11
3.11536e-11
3.26295e-11
3.41217e-11
3.56263e-11
3.7139e-11
3.86552e-11
4.01702e-11
4.16791e-11
4.31768e-11
4.46581e-11
4.61176e-11
4.75499e-11
4.89495e-11
5.03108e-11
5.16283e-11
5.28964e-11
5.41097e-11
5.52627e-11
5.63501e-11
5.73669e-11
5.8308e-11
5.91688e-11
5.99446e-11
6.06313e-11
6.12249e-11
6.17217e-11
6.21186e-11
6.24126e-11
6.26013e-11
6.26826e-11
6.26548e-11
6.2517e-11
6.22684e-11
6.1909e-11
6.1439e-11
6.08594e-11
6.01716e-11
5.93778e-11
5.84802e-11
5.74821e-11
5.63871e-11
5.51992e-11
5.39232e-11
5.25641e-11
5.11276e-11
4.96197e-11
4.80468e-11
4.64158e-11
4.47339e-11
4.30084e-11
4.12472e-11
3.94579e-11
3.76486e-11
3.58274e-11
3.40023e-11
3.21812e-11
3.03721e-11
2.85826e-11
2.682e-11
2.50915e-11
2.34038e-11
2.17631e-11
2.01752e-11
1.86455e-11
1.71785e-11
1.57785e-11
1.44489e-11
1.31926e-11
1.20118e-11
1.09082e-11
9.88251e-12
8.93527e-12
8.06618e-12
7.27443e-12
6.55868e-12
5.9171e-12
5.34738e-12
4.84685e-12
4.41241e-12
4.04068e-12
3.72799e-12
3.4704e-12
3.2638e-12
3.10391e-12
2.9863e-12
2.90648e-12
2.8599e-12
2.84195e-12
2.84809e-12
2.87378e-12
2.91458e-12
2.96616e-12
3.02437e-12
3.08522e-12
3.14501e-12
3.20028e-12
3.2479e-12
3.28511e-12
3.30954e-12
3.31926e-12
3.31276e-12
3.28903e-12
3.24751e-12
3.18811e-12
3.11122e-12
3.01761e-12
2.90847e-12
2.78533e-12
2.65001e-12
2.50453e-12
2.3511e-12
2.192e-12
2.02952e-12
1.86593e-12
1.70339e-12
1.54387e-12
1.38917e-12
1.24085e-12
1.1002e-12
9.68234e-13
8.45708e-13
7.33101e-13
6.30643e-13
5.38337e-13
4.55984e-13
3.83218e-13
3.19535e-13
2.64329e-13
2.1692e-13
1.76589e-13
1.42598e-13
1.14216e-13
9.07375e-14
7.14941e-14
5.58673e-14
4.32942e-14
3.32713e-14
2.53546e-14
1.91592e-14
1.43552e-14
1.06645e-14
7.85506e-15
5.73621e-15
4.15288e-15
2.98064e-15
2.12075e-15
1.4958e-15
1.04581e-15
7.2478e-16
4.9788e-16
3.38994e-16
2.28762e-16
1.52989e-16
1.01377e-16
6.65299e-17
4.31889e-17
2.76464e-17
1.73038e-17
1.03389e-17
5.45694e-18
1.70053e-18
2.16601e-16
6.54814e-16
1.10823e-15
1.58743e-15
2.10356e-15
2.66852e-15
3.29521e-15
3.99782e-15
4.79203e-15
5.69535e-15
6.72746e-15
7.9105e-15
9.26952e-15
1.08329e-14
1.26327e-14
1.47054e-14
1.70925e-14
1.98406e-14
2.30031e-14
2.66401e-14
3.08196e-14
3.56187e-14
4.11244e-14
4.74346e-14
5.46598e-14
6.29242e-14
7.23674e-14
8.3146e-14
9.54351e-14
1.09431e-13
1.25352e-13
1.43442e-13
1.63973e-13
1.87247e-13
2.13596e-13
2.43392e-13
2.77044e-13
3.15001e-13
3.5776e-13
4.05865e-13
4.59915e-13
5.20562e-13
5.8852e-13
6.64566e-13
7.49543e-13
8.44367e-13
9.50028e-13
1.0676e-12
1.19822e-12
1.34313e-12
1.50366e-12
1.6812e-12
1.87728e-12
2.09347e-12
2.33148e-12
2.59308e-12
2.88014e-12
3.19463e-12
3.5386e-12
3.91417e-12
4.32356e-12
4.76904e-12
5.25296e-12
5.7777e-12
6.3457e-12
6.95941e-12
7.62131e-12
8.33386e-12
9.09952e-12
9.92068e-12
1.07997e-11
1.17388e-11
1.27403e-11
1.3806e-11
1.49378e-11
1.61376e-11
1.74066e-11
1.87462e-11
2.01573e-11
2.16406e-11
2.31965e-11
2.48249e-11
2.65255e-11
2.82976e-11
3.01399e-11
3.20509e-11
3.40286e-11
3.60704e-11
3.81733e-11
4.03338e-11
4.25481e-11
4.48117e-11
4.71197e-11
4.94668e-11
5.1847e-11
5.42541e-11
5.66815e-11
5.9122e-11
6.15683e-11
6.40124e-11
6.64465e-11
6.8862e-11
7.12505e-11
7.36033e-11
7.59115e-11
7.81661e-11
8.03583e-11
8.24791e-11
8.45196e-11
8.64711e-11
8.83251e-11
9.00732e-11
9.17074e-11
9.32199e-11
9.46035e-11
9.58512e-11
9.69565e-11
9.79136e-11
9.8717e-11
9.93619e-11
9.98441e-11
1.0016e-10
1.00307e-10
1.00283e-10
1.00086e-10
9.97155e-11
9.91721e-11
9.84563e-11
9.757e-11
9.65154e-11
9.52958e-11
9.39153e-11
9.23787e-11
9.06916e-11
8.88603e-11
8.68918e-11
8.47939e-11
8.2575e-11
8.02441e-11
7.78108e-11
7.52853e-11
7.26781e-11
7.00003e-11
6.72632e-11
6.44783e-11
6.16576e-11
5.88129e-11
5.59561e-11
5.30992e-11
5.02538e-11
4.74314e-11
4.46432e-11
4.19e-11
3.92119e-11
3.65887e-11
3.40395e-11
3.15725e-11
2.91952e-11
2.69144e-11
2.4736e-11
2.26649e-11
2.07052e-11
1.886e-11
1.71314e-11
1.55209e-11
1.40287e-11
1.26546e-11
1.13972e-11
1.02544e-11
9.22375e-12
8.3017e-12
7.48435e-12
6.76723e-12
6.14541e-12
5.61356e-12
5.16602e-12
4.79685e-12
4.4999e-12
4.26885e-12
4.09725e-12
3.9786e-12
3.90635e-12
3.874e-12
3.87509e-12
3.90329e-12
3.9524e-12
4.01644e-12
4.08967e-12
4.16667e-12
4.24235e-12
4.31204e-12
4.37152e-12
4.41709e-12
4.44557e-12
4.45441e-12
4.44162e-12
4.4059e-12
4.34653e-12
4.26346e-12
4.15723e-12
4.02894e-12
3.88021e-12
3.71312e-12
3.53011e-12
3.33391e-12
3.12747e-12
2.91383e-12
2.69604e-12
2.47711e-12
2.25988e-12
2.04697e-12
1.84075e-12
1.64325e-12
1.45614e-12
1.28077e-12
1.11809e-12
9.68701e-13
8.32888e-13
7.10626e-13
6.01626e-13
5.05381e-13
4.21205e-13
3.4828e-13
2.85693e-13
2.32479e-13
1.87655e-13
1.50248e-13
1.19318e-13
9.39799e-14
7.34131e-14
5.68726e-14
4.36924e-14
3.32861e-14
2.51452e-14
1.88351e-14
1.39889e-14
1.03011e-14
7.52069e-15
5.44358e-15
3.90618e-15
2.77872e-15
1.95951e-15
1.36978e-15
9.49148e-16
6.51909e-16
4.43806e-16
2.99454e-16
2.00243e-16
1.32675e-16
8.70619e-17
5.6513e-17
3.61731e-17
2.26393e-17
1.35262e-17
7.13905e-18
2.2247e-18
4.00331e-16
1.21026e-15
2.04828e-15
2.93397e-15
3.8879e-15
4.93209e-15
6.0904e-15
7.38902e-15
8.85694e-15
1.05265e-14
1.24342e-14
1.46208e-14
1.71326e-14
2.00222e-14
2.33487e-14
2.71796e-14
3.15913e-14
3.66704e-14
4.25149e-14
4.92362e-14
5.69598e-14
6.58279e-14
7.60009e-14
8.76598e-14
1.01008e-13
1.16275e-13
1.33718e-13
1.53625e-13
1.76319e-13
2.0216e-13
2.31552e-13
2.64943e-13
3.02831e-13
3.45771e-13
3.94375e-13
4.49322e-13
5.11361e-13
5.81318e-13
6.60099e-13
7.487e-13
8.48212e-13
9.59825e-13
1.08484e-12
1.22466e-12
1.38083e-12
1.55501e-12
1.74898e-12
1.96468e-12
2.20418e-12
2.4697e-12
2.76361e-12
3.08845e-12
3.44689e-12
3.84178e-12
4.27612e-12
4.75306e-12
5.2759e-12
5.8481e-12
6.47324e-12
7.15503e-12
7.8973e-12
8.70399e-12
9.5791e-12
1.05267e-11
1.15509e-11
1.26558e-11
1.38456e-11
1.51243e-11
1.64958e-11
1.79641e-11
1.95328e-11
2.12054e-11
2.29853e-11
2.48753e-11
2.68781e-11
2.89959e-11
3.12306e-11
3.35835e-11
3.60554e-11
3.86466e-11
4.13567e-11
4.41846e-11
4.71287e-11
5.01866e-11
5.33549e-11
5.66299e-11
6.00066e-11
6.34795e-11
6.70422e-11
7.06875e-11
7.44073e-11
7.81929e-11
8.20347e-11
8.59223e-11
8.98447e-11
9.37902e-11
9.77465e-11
1.01701e-10
1.0564e-10
1.09549e-10
1.13416e-10
1.17225e-10
1.20962e-10
1.24612e-10
1.28161e-10
1.31593e-10
1.34896e-10
1.38054e-10
1.41054e-10
1.43882e-10
1.46526e-10
1.48973e-10
1.51213e-10
1.53233e-10
1.55024e-10
1.56578e-10
1.57885e-10
1.58938e-10
1.59732e-10
1.60262e-10
1.60523e-10
1.60512e-10
1.60229e-10
1.59671e-10
1.58841e-10
1.5774e-10
1.56372e-10
1.54739e-10
1.52849e-10
1.50708e-10
1.48322e-10
1.45703e-10
1.42858e-10
1.398e-10
1.36541e-10
1.33092e-10
1.29469e-10
1.25685e-10
1.21756e-10
1.17698e-10
1.13528e-10
1.09261e-10
1.04917e-10
1.00512e-10
9.60635e-11
9.15902e-11
8.71094e-11
8.26386e-11
7.8195e-11
7.37954e-11
6.9456e-11
6.51923e-11
6.10191e-11
5.69502e-11
5.29985e-11
4.91758e-11
4.54929e-11
4.19591e-11
3.85827e-11
3.53706e-11
3.23284e-11
2.94602e-11
2.67691e-11
2.42567e-11
2.19232e-11
1.97679e-11
1.77887e-11
1.59826e-11
1.43453e-11
1.28719e-11
1.15566e-11
1.03926e-11
9.37291e-12
8.48959e-12
7.73443e-12
7.09884e-12
6.5739e-12
6.15051e-12
5.81942e-12
5.57129e-12
5.39678e-12
5.28661e-12
5.23157e-12
5.22264e-12
5.251e-12
5.30809e-12
5.38571e-12
5.47601e-12
5.57163e-12
5.6657e-12
5.75195e-12
5.82473e-12
5.87912e-12
5.91093e-12
5.91678e-12
5.89412e-12
5.84126e-12
5.75732e-12
5.64231e-12
5.49698e-12
5.32288e-12
5.12219e-12
4.89769e-12
4.65266e-12
4.39073e-12
4.11578e-12
3.83183e-12
3.54292e-12
3.25296e-12
2.96568e-12
2.68451e-12
2.41251e-12
2.15231e-12
1.90608e-12
1.67552e-12
1.46185e-12
1.26582e-12
1.08776e-12
9.27586e-13
7.84903e-13
6.59008e-13
5.48978e-13
4.53717e-13
3.72013e-13
3.02588e-13
2.44143e-13
1.95395e-13
1.5511e-13
1.22124e-13
9.53631e-14
7.38511e-14
5.67169e-14
4.31944e-14
3.26202e-14
2.4427e-14
1.81369e-14
1.33521e-14
9.74562e-15
7.05232e-15
5.05941e-15
3.59832e-15
2.53697e-15
1.77311e-15
1.22841e-15
8.4358e-16
5.74206e-16
3.87387e-16
2.59011e-16
1.71595e-16
1.1259e-16
7.30771e-17
4.67721e-17
2.92711e-17
1.74877e-17
9.22959e-18
2.87612e-18
7.31586e-16
2.21169e-15
3.74317e-15
5.36178e-15
7.10516e-15
9.01356e-15
1.11306e-14
1.35041e-14
1.61872e-14
1.92391e-14
2.27262e-14
2.67233e-14
3.13151e-14
3.65975e-14
4.26789e-14
4.96825e-14
5.7748e-14
6.70337e-14
7.77189e-14
9.00068e-14
1.04127e-13
1.2034e-13
1.38937e-13
1.6025e-13
1.84651e-13
2.12557e-13
2.44437e-13
2.80819e-13
3.2229e-13
3.69509e-13
4.23208e-13
4.84204e-13
5.53406e-13
6.3182e-13
7.20561e-13
8.20861e-13
9.34081e-13
1.06172e-12
1.20541e-12
1.36697e-12
1.54837e-12
1.75175e-12
1.97946e-12
2.23404e-12
2.51826e-12
2.83509e-12
3.18776e-12
3.57971e-12
4.01465e-12
4.49655e-12
5.02963e-12
5.61839e-12
6.26757e-12
6.98219e-12
7.76755e-12
8.62918e-12
9.57285e-12
1.06046e-11
1.17306e-11
1.29573e-11
1.42914e-11
1.57394e-11
1.73082e-11
1.90048e-11
2.08359e-11
2.28084e-11
2.49292e-11
2.72047e-11
2.96414e-11
3.22453e-11
3.50222e-11
3.79774e-11
4.11156e-11
4.44411e-11
4.79573e-11
5.16669e-11
5.55718e-11
5.9673e-11
6.39704e-11
6.84629e-11
7.31482e-11
7.80229e-11
8.30821e-11
8.83199e-11
9.37287e-11
9.93e-11
1.05023e-10
1.10887e-10
1.16879e-10
1.22984e-10
1.29187e-10
1.3547e-10
1.41817e-10
1.48206e-10
1.54619e-10
1.61034e-10
1.67429e-10
1.73781e-10
1.80066e-10
1.86262e-10
1.92344e-10
1.98287e-10
2.04068e-10
2.09662e-10
2.15046e-10
2.20197e-10
2.25091e-10
2.29708e-10
2.34027e-10
2.38027e-10
2.4169e-10
2.44998e-10
2.47937e-10
2.50491e-10
2.52648e-10
2.54397e-10
2.55729e-10
2.56635e-10
2.57111e-10
2.57152e-10
2.56758e-10
2.55927e-10
2.54663e-10
2.52968e-10
2.50849e-10
2.48314e-10
2.45371e-10
2.42032e-10
2.3831e-10
2.34219e-10
2.29776e-10
2.24998e-10
2.19904e-10
2.14514e-10
2.0885e-10
2.02935e-10
1.96791e-10
1.90445e-10
1.8392e-10
1.77243e-10
1.70439e-10
1.63536e-10
1.5656e-10
1.49537e-10
1.42496e-10
1.35461e-10
1.28458e-10
1.21513e-10
1.14651e-10
1.07894e-10
1.01265e-10
9.47857e-11
8.84751e-11
8.23517e-11
7.64322e-11
7.07315e-11
6.52629e-11
6.00376e-11
5.5065e-11
5.03527e-11
4.59063e-11
4.17295e-11
3.7824e-11
3.41899e-11
3.08254e-11
2.77272e-11
2.48904e-11
2.23085e-11
1.99739e-11
1.78779e-11
1.60105e-11
1.43611e-11
1.29182e-11
1.16696e-11
1.06028e-11
9.70475e-12
8.96224e-12
8.3619e-12
7.89025e-12
7.53387e-12
7.27942e-12
7.11377e-12
7.02399e-12
6.99751e-12
7.02211e-12
7.08605e-12
7.17808e-12
7.28758e-12
7.40457e-12
7.51985e-12
7.62501e-12
7.71256e-12
7.77597e-12
7.80976e-12
7.80951e-12
7.77192e-12
7.69482e-12
7.57719e-12
7.41907e-12
7.22159e-12
6.98682e-12
6.71773e-12
6.41801e-12
6.09201e-12
5.74452e-12
5.38065e-12
5.00568e-12
4.62486e-12
4.24331e-12
3.86587e-12
3.49696e-12
3.14055e-12
2.8e-12
2.4781e-12
2.17701e-12
1.89824e-12
1.64273e-12
1.41084e-12
1.20244e-12
1.01693e-12
8.53372e-13
7.10531e-13
5.86948e-13
4.81024e-13
3.91075e-13
3.15398e-13
2.52315e-13
2.00211e-13
1.57572e-13
1.22996e-13
9.52153e-14
7.30984e-14
5.56514e-14
4.2014e-14
3.14516e-14
2.33457e-14
1.71819e-14
1.25376e-14
9.07044e-15
6.50568e-15
4.62588e-15
3.26076e-15
2.27852e-15
1.57827e-15
1.08366e-15
7.37504e-16
4.97484e-16
3.3258e-16
2.20309e-16
1.44538e-16
9.38049e-17
6.00341e-17
3.75684e-17
2.24437e-17
1.18449e-17
3.69104e-18
1.322e-15
3.99664e-15
6.76417e-15
9.68928e-15
1.284e-14
1.62892e-14
2.01157e-14
2.44062e-14
2.92566e-14
3.47739e-14
4.10785e-14
4.83057e-14
5.66088e-14
6.61609e-14
7.71587e-14
8.98249e-14
1.04412e-13
1.21207e-13
1.40534e-13
1.6276e-13
1.88301e-13
2.17627e-13
2.51267e-13
2.8982e-13
3.33956e-13
3.84433e-13
4.42097e-13
5.079e-13
5.82903e-13
6.68295e-13
7.65398e-13
8.75686e-13
1.00079e-12
1.14254e-12
1.30293e-12
1.48418e-12
1.68874e-12
1.91929e-12
2.1788e-12
2.47048e-12
2.79789e-12
3.16487e-12
3.5756e-12
4.03465e-12
4.54693e-12
5.11775e-12
5.75284e-12
6.45833e-12
7.24079e-12
8.10723e-12
9.06512e-12
1.01224e-11
1.12873e-11
1.25688e-11
1.3976e-11
1.55186e-11
1.72067e-11
1.90506e-11
2.1061e-11
2.3249e-11
2.56258e-11
2.82027e-11
3.09914e-11
3.40032e-11
3.72496e-11
4.07419e-11
4.4491e-11
4.85076e-11
5.28017e-11
5.73829e-11
6.22597e-11
6.74399e-11
7.29304e-11
7.87366e-11
8.48627e-11
9.13114e-11
9.80839e-11
1.0518e-10
1.12596e-10
1.20328e-10
1.2837e-10
1.36712e-10
1.45344e-10
1.54252e-10
1.63421e-10
1.72832e-10
1.82465e-10
1.92297e-10
2.02302e-10
2.12455e-10
2.22724e-10
2.33079e-10
2.43486e-10
2.5391e-10
2.64316e-10
2.74664e-10
2.84917e-10
2.95035e-10
3.04978e-10
3.14705e-10
3.24177e-10
3.33352e-10
3.42193e-10
3.50659e-10
3.58713e-10
3.6632e-10
3.73445e-10
3.80054e-10
3.86118e-10
3.91607e-10
3.96497e-10
4.00764e-10
4.04387e-10
4.07349e-10
4.09636e-10
4.11235e-10
4.12139e-10
4.12343e-10
4.11844e-10
4.10643e-10
4.08745e-10
4.06158e-10
4.02892e-10
3.98959e-10
3.94378e-10
3.89165e-10
3.83344e-10
3.76937e-10
3.69972e-10
3.62478e-10
3.54484e-10
3.46023e-10
3.3713e-10
3.2784e-10
3.1819e-10
3.08219e-10
2.97966e-10
2.8747e-10
2.76772e-10
2.65913e-10
2.54933e-10
2.43873e-10
2.32774e-10
2.21676e-10
2.10617e-10
1.99636e-10
1.8877e-10
1.78055e-10