/*--------------------------------*- C++ -*----------------------------------*\
| =========                 |                                                 |
| \\      /  F ield         | OpenFOAM: The Open Source CFD Toolbox           |
|  \\    /   O peration     | Version:  v2012                                 |
|   \\  /    A nd           | Website:  www.openfoam.com                      |
|    \\/     M anipulation  |                                                 |
\*---------------------------------------------------------------------------*/
FoamFile
{
    version     2.0;
    format      ascii;
    class       volVectorField;
    location    "12.4";
    object      Psi;
}
// * * * * * * * * * * * * * * * * * * * * * * * * * * * * * * * * * * * * * //

dimensions      [0 2 -1 0 0 0 0];


internalField   nonuniform List<vector> 
65536
(
(0 0 8.90259e-06)
(0 0 2.67082e-05)
(0 0 4.45151e-05)
(0 0 6.23242e-05)
(0 0 8.01361e-05)
(0 0 9.79518e-05)
(0 0 0.000115772)
(0 0 0.000133598)
(0 0 0.000151429)
(0 0 0.000169268)
(0 0 0.000187114)
(0 0 0.000204968)
(0 0 0.000222831)
(0 0 0.000240704)
(0 0 0.000258586)
(0 0 0.000276479)
(0 0 0.000294384)
(0 0 0.000312299)
(0 0 0.000330227)
(0 0 0.000348166)
(0 0 0.000366118)
(0 0 0.000384082)
(0 0 0.000402059)
(0 0 0.000420049)
(0 0 0.000438051)
(0 0 0.000456065)
(0 0 0.000474092)
(0 0 0.00049213)
(0 0 0.00051018)
(0 0 0.000528241)
(0 0 0.000546313)
(0 0 0.000564394)
(0 0 0.000582484)
(0 0 0.000600581)
(0 0 0.000618686)
(0 0 0.000636796)
(0 0 0.000654911)
(0 0 0.000673028)
(0 0 0.000691147)
(0 0 0.000709266)
(0 0 0.000727382)
(0 0 0.000745494)
(0 0 0.0007636)
(0 0 0.000781697)
(0 0 0.000799783)
(0 0 0.000817856)
(0 0 0.000835912)
(0 0 0.000853949)
(0 0 0.000871963)
(0 0 0.000889952)
(0 0 0.000907912)
(0 0 0.000925839)
(0 0 0.00094373)
(0 0 0.00096158)
(0 0 0.000979386)
(0 0 0.000997143)
(0 0 0.00101485)
(0 0 0.00103249)
(0 0 0.00105007)
(0 0 0.00106759)
(0 0 0.00108503)
(0 0 0.0011024)
(0 0 0.00111968)
(0 0 0.00113687)
(0 0 0.00115396)
(0 0 0.00117095)
(0 0 0.00118784)
(0 0 0.00120461)
(0 0 0.00122126)
(0 0 0.00123778)
(0 0 0.00125417)
(0 0 0.00127042)
(0 0 0.00128652)
(0 0 0.00130246)
(0 0 0.00131825)
(0 0 0.00133386)
(0 0 0.00134929)
(0 0 0.00136454)
(0 0 0.00137959)
(0 0 0.00139445)
(0 0 0.0014091)
(0 0 0.00142353)
(0 0 0.00143773)
(0 0 0.00145171)
(0 0 0.00146544)
(0 0 0.00147893)
(0 0 0.00149216)
(0 0 0.00150513)
(0 0 0.00151782)
(0 0 0.00153024)
(0 0 0.00154237)
(0 0 0.00155421)
(0 0 0.00156574)
(0 0 0.00157697)
(0 0 0.00158788)
(0 0 0.00159846)
(0 0 0.00160872)
(0 0 0.00161864)
(0 0 0.00162821)
(0 0 0.00163744)
(0 0 0.00164631)
(0 0 0.00165482)
(0 0 0.00166297)
(0 0 0.00167074)
(0 0 0.00167813)
(0 0 0.00168514)
(0 0 0.00169176)
(0 0 0.001698)
(0 0 0.00170384)
(0 0 0.00170928)
(0 0 0.00171432)
(0 0 0.00171895)
(0 0 0.00172318)
(0 0 0.001727)
(0 0 0.00173041)
(0 0 0.0017334)
(0 0 0.00173598)
(0 0 0.00173815)
(0 0 0.0017399)
(0 0 0.00174124)
(0 0 0.00174216)
(0 0 0.00174267)
(0 0 0.00174276)
(0 0 0.00174244)
(0 0 0.00174171)
(0 0 0.00174058)
(0 0 0.00173904)
(0 0 0.00173709)
(0 0 0.00173474)
(0 0 0.001732)
(0 0 0.00172886)
(0 0 0.00172533)
(0 0 0.00172142)
(0 0 0.00171712)
(0 0 0.00171245)
(0 0 0.00170741)
(0 0 0.001702)
(0 0 0.00169622)
(0 0 0.00169009)
(0 0 0.00168361)
(0 0 0.00167679)
(0 0 0.00166963)
(0 0 0.00166213)
(0 0 0.00165431)
(0 0 0.00164617)
(0 0 0.00163772)
(0 0 0.00162896)
(0 0 0.0016199)
(0 0 0.00161055)
(0 0 0.00160092)
(0 0 0.001591)
(0 0 0.00158082)
(0 0 0.00157037)
(0 0 0.00155966)
(0 0 0.0015487)
(0 0 0.0015375)
(0 0 0.00152607)
(0 0 0.0015144)
(0 0 0.00150252)
(0 0 0.00149042)
(0 0 0.00147811)
(0 0 0.0014656)
(0 0 0.0014529)
(0 0 0.00144001)
(0 0 0.00142694)
(0 0 0.0014137)
(0 0 0.00140029)
(0 0 0.00138672)
(0 0 0.00137299)
(0 0 0.00135912)
(0 0 0.00134511)
(0 0 0.00133096)
(0 0 0.00131668)
(0 0 0.00130227)
(0 0 0.00128775)
(0 0 0.00127312)
(0 0 0.00125837)
(0 0 0.00124353)
(0 0 0.00122859)
(0 0 0.00121356)
(0 0 0.00119844)
(0 0 0.00118324)
(0 0 0.00116796)
(0 0 0.0011526)
(0 0 0.00113718)
(0 0 0.0011217)
(0 0 0.00110615)
(0 0 0.00109055)
(0 0 0.0010749)
(0 0 0.00105919)
(0 0 0.00104344)
(0 0 0.00102765)
(0 0 0.00101182)
(0 0 0.00099596)
(0 0 0.000980063)
(0 0 0.000964137)
(0 0 0.000948184)
(0 0 0.000932207)
(0 0 0.000916209)
(0 0 0.000900192)
(0 0 0.000884158)
(0 0 0.00086811)
(0 0 0.00085205)
(0 0 0.000835979)
(0 0 0.0008199)
(0 0 0.000803815)
(0 0 0.000787724)
(0 0 0.00077163)
(0 0 0.000755535)
(0 0 0.000739439)
(0 0 0.000723344)
(0 0 0.000707251)
(0 0 0.000691161)
(0 0 0.000675076)
(0 0 0.000658996)
(0 0 0.000642922)
(0 0 0.000626856)
(0 0 0.000610797)
(0 0 0.000594746)
(0 0 0.000578705)
(0 0 0.000562673)
(0 0 0.000546651)
(0 0 0.000530639)
(0 0 0.000514638)
(0 0 0.000498649)
(0 0 0.00048267)
(0 0 0.000466703)
(0 0 0.000450748)
(0 0 0.000434804)
(0 0 0.000418872)
(0 0 0.000402951)
(0 0 0.000387042)
(0 0 0.000371144)
(0 0 0.000355257)
(0 0 0.000339382)
(0 0 0.000323517)
(0 0 0.000307663)
(0 0 0.000291819)
(0 0 0.000275985)
(0 0 0.00026016)
(0 0 0.000244345)
(0 0 0.000228538)
(0 0 0.000212739)
(0 0 0.000196948)
(0 0 0.000181165)
(0 0 0.000165388)
(0 0 0.000149618)
(0 0 0.000133853)
(0 0 0.000118093)
(0 0 0.000102338)
(0 0 8.6587e-05)
(0 0 7.08392e-05)
(0 0 5.50943e-05)
(0 0 3.93515e-05)
(0 0 2.36103e-05)
(0 0 7.87e-06)
(0 0 2.67074e-05)
(0 0 8.01236e-05)
(0 0 0.000133544)
(0 0 0.00018697)
(0 0 0.000240405)
(0 0 0.000293851)
(0 0 0.000347311)
(0 0 0.000400787)
(0 0 0.000454281)
(0 0 0.000507796)
(0 0 0.000561334)
(0 0 0.000614896)
(0 0 0.000668485)
(0 0 0.000722102)
(0 0 0.000775749)
(0 0 0.000829428)
(0 0 0.00088314)
(0 0 0.000936887)
(0 0 0.000990669)
(0 0 0.00104449)
(0 0 0.00109834)
(0 0 0.00115224)
(0 0 0.00120617)
(0 0 0.00126013)
(0 0 0.00131414)
(0 0 0.00136818)
(0 0 0.00142226)
(0 0 0.00147638)
(0 0 0.00153053)
(0 0 0.00158472)
(0 0 0.00163893)
(0 0 0.00169317)
(0 0 0.00174744)
(0 0 0.00180174)
(0 0 0.00185605)
(0 0 0.00191039)
(0 0 0.00196473)
(0 0 0.00201908)
(0 0 0.00207344)
(0 0 0.0021278)
(0 0 0.00218215)
(0 0 0.00223649)
(0 0 0.00229081)
(0 0 0.0023451)
(0 0 0.00239936)
(0 0 0.00245359)
(0 0 0.00250776)
(0 0 0.00256187)
(0 0 0.00261592)
(0 0 0.00266989)
(0 0 0.00272377)
(0 0 0.00277756)
(0 0 0.00283123)
(0 0 0.00288479)
(0 0 0.00293821)
(0 0 0.00299148)
(0 0 0.0030446)
(0 0 0.00309754)
(0 0 0.00315029)
(0 0 0.00320284)
(0 0 0.00325518)
(0 0 0.00330727)
(0 0 0.00335912)
(0 0 0.00341069)
(0 0 0.00346198)
(0 0 0.00351297)
(0 0 0.00356363)
(0 0 0.00361395)
(0 0 0.00366391)
(0 0 0.00371348)
(0 0 0.00376266)
(0 0 0.00381141)
(0 0 0.00385971)
(0 0 0.00390755)
(0 0 0.00395491)
(0 0 0.00400175)
(0 0 0.00404806)
(0 0 0.00409381)
(0 0 0.00413899)
(0 0 0.00418356)
(0 0 0.00422751)
(0 0 0.00427081)
(0 0 0.00431343)
(0 0 0.00435536)
(0 0 0.00439657)
(0 0 0.00443704)
(0 0 0.00447674)
(0 0 0.00451565)
(0 0 0.00455375)
(0 0 0.004591)
(0 0 0.0046274)
(0 0 0.00466292)
(0 0 0.00469753)
(0 0 0.00473121)
(0 0 0.00476395)
(0 0 0.00479572)
(0 0 0.00482649)
(0 0 0.00485626)
(0 0 0.00488499)
(0 0 0.00491268)
(0 0 0.0049393)
(0 0 0.00496483)
(0 0 0.00498927)
(0 0 0.00501258)
(0 0 0.00503477)
(0 0 0.00505581)
(0 0 0.00507568)
(0 0 0.00509439)
(0 0 0.00511191)
(0 0 0.00512823)
(0 0 0.00514335)
(0 0 0.00515726)
(0 0 0.00516995)
(0 0 0.0051814)
(0 0 0.00519163)
(0 0 0.00520061)
(0 0 0.00520836)
(0 0 0.00521486)
(0 0 0.00522011)
(0 0 0.00522412)
(0 0 0.00522689)
(0 0 0.00522841)
(0 0 0.00522869)
(0 0 0.00522774)
(0 0 0.00522555)
(0 0 0.00522214)
(0 0 0.00521751)
(0 0 0.00521167)
(0 0 0.00520462)
(0 0 0.00519639)
(0 0 0.00518697)
(0 0 0.00517638)
(0 0 0.00516464)
(0 0 0.00515175)
(0 0 0.00513772)
(0 0 0.00512259)
(0 0 0.00510635)
(0 0 0.00508902)
(0 0 0.00507063)
(0 0 0.00505118)
(0 0 0.00503071)
(0 0 0.00500921)
(0 0 0.00498672)
(0 0 0.00496325)
(0 0 0.00493883)
(0 0 0.00491346)
(0 0 0.00488718)
(0 0 0.00486)
(0 0 0.00483194)
(0 0 0.00480302)
(0 0 0.00477327)
(0 0 0.00474271)
(0 0 0.00471135)
(0 0 0.00467922)
(0 0 0.00464634)
(0 0 0.00461274)
(0 0 0.00457842)
(0 0 0.00454342)
(0 0 0.00450776)
(0 0 0.00447145)
(0 0 0.00443452)
(0 0 0.00439699)
(0 0 0.00435888)
(0 0 0.0043202)
(0 0 0.00428099)
(0 0 0.00424125)
(0 0 0.00420102)
(0 0 0.0041603)
(0 0 0.00411912)
(0 0 0.0040775)
(0 0 0.00403545)
(0 0 0.00399299)
(0 0 0.00395015)
(0 0 0.00390693)
(0 0 0.00386336)
(0 0 0.00381945)
(0 0 0.00377522)
(0 0 0.00373068)
(0 0 0.00368586)
(0 0 0.00364075)
(0 0 0.00359539)
(0 0 0.00354978)
(0 0 0.00350394)
(0 0 0.00345788)
(0 0 0.00341161)
(0 0 0.00336515)
(0 0 0.00331851)
(0 0 0.0032717)
(0 0 0.00322474)
(0 0 0.00317762)
(0 0 0.00313037)
(0 0 0.003083)
(0 0 0.00303551)
(0 0 0.00298791)
(0 0 0.00294022)
(0 0 0.00289244)
(0 0 0.00284457)
(0 0 0.00279664)
(0 0 0.00274864)
(0 0 0.00270059)
(0 0 0.00265249)
(0 0 0.00260434)
(0 0 0.00255616)
(0 0 0.00250794)
(0 0 0.0024597)
(0 0 0.00241145)
(0 0 0.00236317)
(0 0 0.00231489)
(0 0 0.0022666)
(0 0 0.00221831)
(0 0 0.00217003)
(0 0 0.00212175)
(0 0 0.00207348)
(0 0 0.00202522)
(0 0 0.00197698)
(0 0 0.00192876)
(0 0 0.00188056)
(0 0 0.00183238)
(0 0 0.00178423)
(0 0 0.0017361)
(0 0 0.00168801)
(0 0 0.00163994)
(0 0 0.0015919)
(0 0 0.0015439)
(0 0 0.00149593)
(0 0 0.001448)
(0 0 0.0014001)
(0 0 0.00135223)
(0 0 0.0013044)
(0 0 0.0012566)
(0 0 0.00120884)
(0 0 0.00116111)
(0 0 0.00111342)
(0 0 0.00106576)
(0 0 0.00101813)
(0 0 0.00097054)
(0 0 0.000922977)
(0 0 0.000875446)
(0 0 0.000827944)
(0 0 0.00078047)
(0 0 0.000733024)
(0 0 0.000685604)
(0 0 0.000638209)
(0 0 0.000590837)
(0 0 0.000543487)
(0 0 0.000496158)
(0 0 0.000448847)
(0 0 0.000401553)
(0 0 0.000354275)
(0 0 0.00030701)
(0 0 0.000259757)
(0 0 0.000212515)
(0 0 0.000165281)
(0 0 0.000118053)
(0 0 7.08299e-05)
(0 0 2.36097e-05)
(0 0 4.4511e-05)
(0 0 0.000133535)
(0 0 0.000222566)
(0 0 0.000311607)
(0 0 0.000400662)
(0 0 0.000489737)
(0 0 0.000578834)
(0 0 0.000667958)
(0 0 0.000757113)
(0 0 0.000846302)
(0 0 0.000935529)
(0 0 0.0010248)
(0 0 0.00111411)
(0 0 0.00120347)
(0 0 0.00129288)
(0 0 0.00138234)
(0 0 0.00147186)
(0 0 0.00156144)
(0 0 0.00165107)
(0 0 0.00174077)
(0 0 0.00183053)
(0 0 0.00192035)
(0 0 0.00201023)
(0 0 0.00210018)
(0 0 0.00219019)
(0 0 0.00228027)
(0 0 0.0023704)
(0 0 0.0024606)
(0 0 0.00255085)
(0 0 0.00264116)
(0 0 0.00273152)
(0 0 0.00282193)
(0 0 0.00291238)
(0 0 0.00300288)
(0 0 0.0030934)
(0 0 0.00318396)
(0 0 0.00327454)
(0 0 0.00336514)
(0 0 0.00345574)
(0 0 0.00354634)
(0 0 0.00363693)
(0 0 0.0037275)
(0 0 0.00381804)
(0 0 0.00390854)
(0 0 0.00399899)
(0 0 0.00408936)
(0 0 0.00417966)
(0 0 0.00426986)
(0 0 0.00435995)
(0 0 0.00444991)
(0 0 0.00453973)
(0 0 0.00462938)
(0 0 0.00471885)
(0 0 0.00480813)
(0 0 0.00489718)
(0 0 0.00498598)
(0 0 0.00507452)
(0 0 0.00516278)
(0 0 0.00525072)
(0 0 0.00533832)
(0 0 0.00542555)
(0 0 0.0055124)
(0 0 0.00559883)
(0 0 0.00568481)
(0 0 0.00577031)
(0 0 0.00585531)
(0 0 0.00593976)
(0 0 0.00602365)
(0 0 0.00610694)
(0 0 0.00618959)
(0 0 0.00627157)
(0 0 0.00635284)
(0 0 0.00643338)
(0 0 0.00651313)
(0 0 0.00659208)
(0 0 0.00667017)
(0 0 0.00674738)
(0 0 0.00682366)
(0 0 0.00689898)
(0 0 0.00697329)
(0 0 0.00704656)
(0 0 0.00711876)
(0 0 0.00718983)
(0 0 0.00725974)
(0 0 0.00732845)
(0 0 0.00739592)
(0 0 0.00746211)
(0 0 0.00752699)
(0 0 0.00759051)
(0 0 0.00765263)
(0 0 0.00771332)
(0 0 0.00777254)
(0 0 0.00783025)
(0 0 0.00788641)
(0 0 0.00794099)
(0 0 0.00799396)
(0 0 0.00804528)
(0 0 0.00809491)
(0 0 0.00814282)
(0 0 0.00818898)
(0 0 0.00823337)
(0 0 0.00827595)
(0 0 0.00831669)
(0 0 0.00835557)
(0 0 0.00839256)
(0 0 0.00842763)
(0 0 0.00846078)
(0 0 0.00849196)
(0 0 0.00852118)
(0 0 0.00854839)
(0 0 0.0085736)
(0 0 0.00859679)
(0 0 0.00861794)
(0 0 0.00863704)
(0 0 0.00865409)
(0 0 0.00866907)
(0 0 0.00868198)
(0 0 0.00869282)
(0 0 0.00870157)
(0 0 0.00870826)
(0 0 0.00871286)
(0 0 0.0087154)
(0 0 0.00871586)
(0 0 0.00871426)
(0 0 0.00871061)
(0 0 0.00870492)
(0 0 0.00869719)
(0 0 0.00868745)
(0 0 0.0086757)
(0 0 0.00866196)
(0 0 0.00864625)
(0 0 0.00862859)
(0 0 0.008609)
(0 0 0.0085875)
(0 0 0.00856411)
(0 0 0.00853887)
(0 0 0.00851178)
(0 0 0.00848289)
(0 0 0.00845222)
(0 0 0.00841979)
(0 0 0.00838564)
(0 0 0.00834979)
(0 0 0.00831229)
(0 0 0.00827315)
(0 0 0.00823242)
(0 0 0.00819012)
(0 0 0.00814629)
(0 0 0.00810097)
(0 0 0.00805418)
(0 0 0.00800596)
(0 0 0.00795636)
(0 0 0.00790539)
(0 0 0.00785311)
(0 0 0.00779954)
(0 0 0.00774472)
(0 0 0.00768868)
(0 0 0.00763147)
(0 0 0.00757311)
(0 0 0.00751365)
(0 0 0.00745311)
(0 0 0.00739154)
(0 0 0.00732896)
(0 0 0.00726542)
(0 0 0.00720094)
(0 0 0.00713556)
(0 0 0.00706931)
(0 0 0.00700223)
(0 0 0.00693435)
(0 0 0.00686569)
(0 0 0.0067963)
(0 0 0.0067262)
(0 0 0.00665542)
(0 0 0.00658399)
(0 0 0.00651195)
(0 0 0.00643931)
(0 0 0.00636611)
(0 0 0.00629237)
(0 0 0.00621813)
(0 0 0.0061434)
(0 0 0.00606821)
(0 0 0.00599259)
(0 0 0.00591656)
(0 0 0.00584014)
(0 0 0.00576336)
(0 0 0.00568623)
(0 0 0.00560879)
(0 0 0.00553104)
(0 0 0.00545301)
(0 0 0.00537472)
(0 0 0.00529619)
(0 0 0.00521743)
(0 0 0.00513846)
(0 0 0.0050593)
(0 0 0.00497996)
(0 0 0.00490046)
(0 0 0.00482081)
(0 0 0.00474104)
(0 0 0.00466114)
(0 0 0.00458114)
(0 0 0.00450104)
(0 0 0.00442086)
(0 0 0.00434061)
(0 0 0.0042603)
(0 0 0.00417993)
(0 0 0.00409953)
(0 0 0.00401909)
(0 0 0.00393863)
(0 0 0.00385816)
(0 0 0.00377767)
(0 0 0.00369718)
(0 0 0.0036167)
(0 0 0.00353623)
(0 0 0.00345578)
(0 0 0.00337535)
(0 0 0.00329494)
(0 0 0.00321457)
(0 0 0.00313423)
(0 0 0.00305394)
(0 0 0.00297368)
(0 0 0.00289347)
(0 0 0.00281331)
(0 0 0.0027332)
(0 0 0.00265314)
(0 0 0.00257313)
(0 0 0.00249318)
(0 0 0.00241329)
(0 0 0.00233346)
(0 0 0.00225368)
(0 0 0.00217396)
(0 0 0.0020943)
(0 0 0.00201469)
(0 0 0.00193515)
(0 0 0.00185566)
(0 0 0.00177623)
(0 0 0.00169685)
(0 0 0.00161753)
(0 0 0.00153826)
(0 0 0.00145904)
(0 0 0.00137987)
(0 0 0.00130075)
(0 0 0.00122168)
(0 0 0.00114265)
(0 0 0.00106366)
(0 0 0.000984704)
(0 0 0.000905789)
(0 0 0.000826908)
(0 0 0.000748059)
(0 0 0.000669238)
(0 0 0.000590442)
(0 0 0.00051167)
(0 0 0.000432917)
(0 0 0.000354182)
(0 0 0.00027546)
(0 0 0.00019675)
(0 0 0.000118047)
(0 0 3.93484e-05)
(0 0 6.23124e-05)
(0 0 0.00018694)
(0 0 0.000311577)
(0 0 0.000436229)
(0 0 0.000560901)
(0 0 0.0006856)
(0 0 0.00081033)
(0 0 0.000935099)
(0 0 0.00105991)
(0 0 0.00118477)
(0 0 0.00130968)
(0 0 0.00143465)
(0 0 0.00155969)
(0 0 0.00168479)
(0 0 0.00180996)
(0 0 0.0019352)
(0 0 0.00206053)
(0 0 0.00218593)
(0 0 0.00231142)
(0 0 0.00243699)
(0 0 0.00256265)
(0 0 0.0026884)
(0 0 0.00281424)
(0 0 0.00294017)
(0 0 0.00306618)
(0 0 0.00319229)
(0 0 0.00331848)
(0 0 0.00344475)
(0 0 0.00357111)
(0 0 0.00369755)
(0 0 0.00382406)
(0 0 0.00395064)
(0 0 0.00407728)
(0 0 0.00420398)
(0 0 0.00433073)
(0 0 0.00445752)
(0 0 0.00458434)
(0 0 0.00471118)
(0 0 0.00483804)
(0 0 0.00496489)
(0 0 0.00509173)
(0 0 0.00521855)
(0 0 0.00534532)
(0 0 0.00547204)
(0 0 0.00559868)
(0 0 0.00572522)
(0 0 0.00585166)
(0 0 0.00597796)
(0 0 0.00610411)
(0 0 0.00623008)
(0 0 0.00635584)
(0 0 0.00648139)
(0 0 0.00660668)
(0 0 0.00673169)
(0 0 0.00685639)
(0 0 0.00698075)
(0 0 0.00710474)
(0 0 0.00722833)
(0 0 0.00735148)
(0 0 0.00747415)
(0 0 0.00759632)
(0 0 0.00771795)
(0 0 0.00783898)
(0 0 0.0079594)
(0 0 0.00807914)
(0 0 0.00819818)
(0 0 0.00831647)
(0 0 0.00843396)
(0 0 0.0085506)
(0 0 0.00866636)
(0 0 0.00878118)
(0 0 0.00889501)
(0 0 0.00900781)
(0 0 0.00911952)
(0 0 0.0092301)
(0 0 0.00933948)
(0 0 0.00944763)
(0 0 0.00955448)
(0 0 0.00965997)
(0 0 0.00976407)
(0 0 0.0098667)
(0 0 0.00996783)
(0 0 0.0100674)
(0 0 0.0101653)
(0 0 0.0102616)
(0 0 0.0103561)
(0 0 0.0104488)
(0 0 0.0105397)
(0 0 0.0106287)
(0 0 0.0107157)
(0 0 0.0108007)
(0 0 0.0108837)
(0 0 0.0109645)
(0 0 0.0110432)
(0 0 0.0111197)
(0 0 0.0111939)
(0 0 0.0112657)
(0 0 0.0113353)
(0 0 0.0114024)
(0 0 0.0114671)
(0 0 0.0115292)
(0 0 0.0115889)
(0 0 0.011646)
(0 0 0.0117004)
(0 0 0.0117523)
(0 0 0.0118014)
(0 0 0.0118478)
(0 0 0.0118915)
(0 0 0.0119324)
(0 0 0.0119706)
(0 0 0.0120059)
(0 0 0.0120384)
(0 0 0.012068)
(0 0 0.0120947)
(0 0 0.0121186)
(0 0 0.0121396)
(0 0 0.0121577)
(0 0 0.0121728)
(0 0 0.0121851)
(0 0 0.0121945)
(0 0 0.0122009)
(0 0 0.0122044)
(0 0 0.0122051)
(0 0 0.0122028)
(0 0 0.0121977)
(0 0 0.0121897)
(0 0 0.0121789)
(0 0 0.0121652)
(0 0 0.0121488)
(0 0 0.0121295)
(0 0 0.0121075)
(0 0 0.0120827)
(0 0 0.0120553)
(0 0 0.0120251)
(0 0 0.0119924)
(0 0 0.011957)
(0 0 0.011919)
(0 0 0.0118785)
(0 0 0.0118356)
(0 0 0.0117901)
(0 0 0.0117423)
(0 0 0.011692)
(0 0 0.0116395)
(0 0 0.0115847)
(0 0 0.0115276)
(0 0 0.0114683)
(0 0 0.0114069)
(0 0 0.0113434)
(0 0 0.0112778)
(0 0 0.0112103)
(0 0 0.0111408)
(0 0 0.0110694)
(0 0 0.0109962)
(0 0 0.0109211)
(0 0 0.0108443)
(0 0 0.0107658)
(0 0 0.0106857)
(0 0 0.0106039)
(0 0 0.0105206)
(0 0 0.0104358)
(0 0 0.0103496)
(0 0 0.0102619)
(0 0 0.0101729)
(0 0 0.0100826)
(0 0 0.00999099)
(0 0 0.0098982)
(0 0 0.00980424)
(0 0 0.00970916)
(0 0 0.009613)
(0 0 0.00951581)
(0 0 0.00941763)
(0 0 0.0093185)
(0 0 0.00921846)
(0 0 0.00911756)
(0 0 0.00901582)
(0 0 0.00891331)
(0 0 0.00881004)
(0 0 0.00870606)
(0 0 0.0086014)
(0 0 0.00849611)
(0 0 0.0083902)
(0 0 0.00828373)
(0 0 0.00817671)
(0 0 0.00806918)
(0 0 0.00796118)
(0 0 0.00785273)
(0 0 0.00774385)
(0 0 0.00763458)
(0 0 0.00752495)
(0 0 0.00741498)
(0 0 0.00730469)
(0 0 0.00719411)
(0 0 0.00708326)
(0 0 0.00697217)
(0 0 0.00686085)
(0 0 0.00674932)
(0 0 0.00663762)
(0 0 0.00652574)
(0 0 0.00641372)
(0 0 0.00630157)
(0 0 0.0061893)
(0 0 0.00607694)
(0 0 0.00596449)
(0 0 0.00585196)
(0 0 0.00573939)
(0 0 0.00562676)
(0 0 0.00551411)
(0 0 0.00540143)
(0 0 0.00528874)
(0 0 0.00517605)
(0 0 0.00506337)
(0 0 0.0049507)
(0 0 0.00483806)
(0 0 0.00472545)
(0 0 0.00461288)
(0 0 0.00450035)
(0 0 0.00438787)
(0 0 0.00427545)
(0 0 0.00416309)
(0 0 0.00405079)
(0 0 0.00393856)
(0 0 0.0038264)
(0 0 0.00371432)
(0 0 0.00360231)
(0 0 0.00349038)
(0 0 0.00337853)
(0 0 0.00326676)
(0 0 0.00315507)
(0 0 0.00304346)
(0 0 0.00293193)
(0 0 0.00282049)
(0 0 0.00270913)
(0 0 0.00259785)
(0 0 0.00248664)
(0 0 0.00237552)
(0 0 0.00226447)
(0 0 0.00215349)
(0 0 0.00204259)
(0 0 0.00193176)
(0 0 0.00182099)
(0 0 0.00171029)
(0 0 0.00159965)
(0 0 0.00148906)
(0 0 0.00137853)
(0 0 0.00126806)
(0 0 0.00115763)
(0 0 0.00104724)
(0 0 0.000936897)
(0 0 0.000826587)
(0 0 0.00071631)
(0 0 0.000606061)
(0 0 0.000495835)
(0 0 0.000385629)
(0 0 0.000275439)
(0 0 0.000165259)
(0 0 5.50856e-05)
(0 0 8.01109e-05)
(0 0 0.000240337)
(0 0 0.000400574)
(0 0 0.00056083)
(0 0 0.000721113)
(0 0 0.00088143)
(0 0 0.00104179)
(0 0 0.0012022)
(0 0 0.00136266)
(0 0 0.00152318)
(0 0 0.00168378)
(0 0 0.00184445)
(0 0 0.0020052)
(0 0 0.00216603)
(0 0 0.00232696)
(0 0 0.00248799)
(0 0 0.00264911)
(0 0 0.00281034)
(0 0 0.00297168)
(0 0 0.00313313)
(0 0 0.00329469)
(0 0 0.00345636)
(0 0 0.00361815)
(0 0 0.00378006)
(0 0 0.00394208)
(0 0 0.00410422)
(0 0 0.00426647)
(0 0 0.00442883)
(0 0 0.0045913)
(0 0 0.00475386)
(0 0 0.00491653)
(0 0 0.00507928)
(0 0 0.00524212)
(0 0 0.00540503)
(0 0 0.00556801)
(0 0 0.00573104)
(0 0 0.00589411)
(0 0 0.00605721)
(0 0 0.00622033)
(0 0 0.00638346)
(0 0 0.00654656)
(0 0 0.00670964)
(0 0 0.00687266)
(0 0 0.0070356)
(0 0 0.00719846)
(0 0 0.00736119)
(0 0 0.00752379)
(0 0 0.00768621)
(0 0 0.00784844)
(0 0 0.00801044)
(0 0 0.00817219)
(0 0 0.00833364)
(0 0 0.00849478)
(0 0 0.00865555)
(0 0 0.00881594)
(0 0 0.00897588)
(0 0 0.00913535)
(0 0 0.00929431)
(0 0 0.00945271)
(0 0 0.0096105)
(0 0 0.00976764)
(0 0 0.00992408)
(0 0 0.0100798)
(0 0 0.0102347)
(0 0 0.0103887)
(0 0 0.0105418)
(0 0 0.010694)
(0 0 0.0108451)
(0 0 0.0109952)
(0 0 0.0111441)
(0 0 0.0112918)
(0 0 0.0114382)
(0 0 0.0115833)
(0 0 0.0117271)
(0 0 0.0118693)
(0 0 0.01201)
(0 0 0.0121492)
(0 0 0.0122866)
(0 0 0.0124224)
(0 0 0.0125563)
(0 0 0.0126884)
(0 0 0.0128185)
(0 0 0.0129466)
(0 0 0.0130726)
(0 0 0.0131964)
(0 0 0.013318)
(0 0 0.0134373)
(0 0 0.0135543)
(0 0 0.0136688)
(0 0 0.0137808)
(0 0 0.0138902)
(0 0 0.0139969)
(0 0 0.0141009)
(0 0 0.0142022)
(0 0 0.0143006)
(0 0 0.0143961)
(0 0 0.0144886)
(0 0 0.014578)
(0 0 0.0146644)
(0 0 0.0147476)
(0 0 0.0148277)
(0 0 0.0149044)
(0 0 0.0149779)
(0 0 0.015048)
(0 0 0.0151146)
(0 0 0.0151779)
(0 0 0.0152376)
(0 0 0.0152938)
(0 0 0.0153465)
(0 0 0.0153956)
(0 0 0.015441)
(0 0 0.0154828)
(0 0 0.0155209)
(0 0 0.0155553)
(0 0 0.015586)
(0 0 0.015613)
(0 0 0.0156363)
(0 0 0.0156558)
(0 0 0.0156716)
(0 0 0.0156836)
(0 0 0.0156919)
(0 0 0.0156964)
(0 0 0.0156972)
(0 0 0.0156943)
(0 0 0.0156877)
(0 0 0.0156774)
(0 0 0.0156634)
(0 0 0.0156458)
(0 0 0.0156246)
(0 0 0.0155998)
(0 0 0.0155714)
(0 0 0.0155396)
(0 0 0.0155042)
(0 0 0.0154654)
(0 0 0.0154232)
(0 0 0.0153777)
(0 0 0.0153288)
(0 0 0.0152767)
(0 0 0.0152214)
(0 0 0.0151629)
(0 0 0.0151013)
(0 0 0.0150366)
(0 0 0.014969)
(0 0 0.0148984)
(0 0 0.0148249)
(0 0 0.0147487)
(0 0 0.0146696)
(0 0 0.0145879)
(0 0 0.0145035)
(0 0 0.0144166)
(0 0 0.0143271)
(0 0 0.0142353)
(0 0 0.014141)
(0 0 0.0140444)
(0 0 0.0139456)
(0 0 0.0138446)
(0 0 0.0137414)
(0 0 0.0136363)
(0 0 0.0135291)
(0 0 0.01342)
(0 0 0.013309)
(0 0 0.0131962)
(0 0 0.0130817)
(0 0 0.0129655)
(0 0 0.0128476)
(0 0 0.0127283)
(0 0 0.0126074)
(0 0 0.0124851)
(0 0 0.0123614)
(0 0 0.0122363)
(0 0 0.01211)
(0 0 0.0119825)
(0 0 0.0118538)
(0 0 0.011724)
(0 0 0.0115931)
(0 0 0.0114613)
(0 0 0.0113284)
(0 0 0.0111947)
(0 0 0.01106)
(0 0 0.0109246)
(0 0 0.0107884)
(0 0 0.0106514)
(0 0 0.0105138)
(0 0 0.0103755)
(0 0 0.0102366)
(0 0 0.0100971)
(0 0 0.00995706)
(0 0 0.00981652)
(0 0 0.00967552)
(0 0 0.00953409)
(0 0 0.00939224)
(0 0 0.00925003)
(0 0 0.00910747)
(0 0 0.0089646)
(0 0 0.00882144)
(0 0 0.00867802)
(0 0 0.00853437)
(0 0 0.0083905)
(0 0 0.00824644)
(0 0 0.00810222)
(0 0 0.00795785)
(0 0 0.00781335)
(0 0 0.00766875)
(0 0 0.00752405)
(0 0 0.00737929)
(0 0 0.00723447)
(0 0 0.00708961)
(0 0 0.00694472)
(0 0 0.00679981)
(0 0 0.00665491)
(0 0 0.00651002)
(0 0 0.00636515)
(0 0 0.00622031)
(0 0 0.00607552)
(0 0 0.00593077)
(0 0 0.00578608)
(0 0 0.00564146)
(0 0 0.00549691)
(0 0 0.00535244)
(0 0 0.00520805)
(0 0 0.00506375)
(0 0 0.00491954)
(0 0 0.00477542)
(0 0 0.00463141)
(0 0 0.00448749)
(0 0 0.00434368)
(0 0 0.00419998)
(0 0 0.00405638)
(0 0 0.00391288)
(0 0 0.00376949)
(0 0 0.00362621)
(0 0 0.00348303)
(0 0 0.00333995)
(0 0 0.00319698)
(0 0 0.00305411)
(0 0 0.00291133)
(0 0 0.00276866)
(0 0 0.00262607)
(0 0 0.00248357)
(0 0 0.00234116)
(0 0 0.00219884)
(0 0 0.00205659)
(0 0 0.00191442)
(0 0 0.00177231)
(0 0 0.00163028)
(0 0 0.0014883)
(0 0 0.00134639)
(0 0 0.00120452)
(0 0 0.0010627)
(0 0 0.000920922)
(0 0 0.00077918)
(0 0 0.000637469)
(0 0 0.000495783)
(0 0 0.000354117)
(0 0 0.000212464)
(0 0 7.08206e-05)
(0 0 9.79055e-05)
(0 0 0.000293721)
(0 0 0.000489551)
(0 0 0.000685405)
(0 0 0.000881291)
(0 0 0.00107722)
(0 0 0.0012732)
(0 0 0.00146924)
(0 0 0.00166535)
(0 0 0.00186153)
(0 0 0.0020578)
(0 0 0.00225416)
(0 0 0.00245062)
(0 0 0.00264719)
(0 0 0.00284387)
(0 0 0.00304067)
(0 0 0.00323759)
(0 0 0.00343464)
(0 0 0.00363183)
(0 0 0.00382915)
(0 0 0.00402661)
(0 0 0.00422421)
(0 0 0.00442195)
(0 0 0.00461984)
(0 0 0.00481787)
(0 0 0.00501604)
(0 0 0.00521435)
(0 0 0.0054128)
(0 0 0.00561138)
(0 0 0.00581008)
(0 0 0.00600891)
(0 0 0.00620784)
(0 0 0.00640688)
(0 0 0.00660602)
(0 0 0.00680523)
(0 0 0.00700451)
(0 0 0.00720385)
(0 0 0.00740323)
(0 0 0.00760263)
(0 0 0.00780204)
(0 0 0.00800142)
(0 0 0.00820077)
(0 0 0.00840006)
(0 0 0.00859927)
(0 0 0.00879836)
(0 0 0.00899731)
(0 0 0.00919609)
(0 0 0.00939466)
(0 0 0.009593)
(0 0 0.00979106)
(0 0 0.00998882)
(0 0 0.0101862)
(0 0 0.0103832)
(0 0 0.0105798)
(0 0 0.0107759)
(0 0 0.0109715)
(0 0 0.0111665)
(0 0 0.0113609)
(0 0 0.0115545)
(0 0 0.0117475)
(0 0 0.0119397)
(0 0 0.012131)
(0 0 0.0123214)
(0 0 0.0125108)
(0 0 0.0126991)
(0 0 0.0128864)
(0 0 0.0130725)
(0 0 0.0132573)
(0 0 0.0134409)
(0 0 0.013623)
(0 0 0.0138036)
(0 0 0.0139828)
(0 0 0.0141603)
(0 0 0.014336)
(0 0 0.01451)
(0 0 0.0146822)
(0 0 0.0148524)
(0 0 0.0150205)
(0 0 0.0151866)
(0 0 0.0153504)
(0 0 0.015512)
(0 0 0.0156711)
(0 0 0.0158278)
(0 0 0.015982)
(0 0 0.0161335)
(0 0 0.0162823)
(0 0 0.0164282)
(0 0 0.0165713)
(0 0 0.0167114)
(0 0 0.0168484)
(0 0 0.0169823)
(0 0 0.0171129)
(0 0 0.0172402)
(0 0 0.017364)
(0 0 0.0174844)
(0 0 0.0176012)
(0 0 0.0177144)
(0 0 0.0178239)
(0 0 0.0179296)
(0 0 0.0180314)
(0 0 0.0181293)
(0 0 0.0182233)
(0 0 0.0183131)
(0 0 0.0183989)
(0 0 0.0184805)
(0 0 0.0185578)
(0 0 0.0186309)
(0 0 0.0186997)
(0 0 0.0187641)
(0 0 0.0188242)
(0 0 0.0188798)
(0 0 0.0189309)
(0 0 0.0189775)
(0 0 0.0190196)
(0 0 0.0190572)
(0 0 0.0190902)
(0 0 0.0191186)
(0 0 0.0191425)
(0 0 0.0191618)
(0 0 0.0191764)
(0 0 0.0191866)
(0 0 0.0191921)
(0 0 0.0191931)
(0 0 0.0191895)
(0 0 0.0191813)
(0 0 0.0191687)
(0 0 0.0191516)
(0 0 0.01913)
(0 0 0.019104)
(0 0 0.0190737)
(0 0 0.0190389)
(0 0 0.0189999)
(0 0 0.0189566)
(0 0 0.0189091)
(0 0 0.0188574)
(0 0 0.0188017)
(0 0 0.0187419)
(0 0 0.0186781)
(0 0 0.0186103)
(0 0 0.0185387)
(0 0 0.0184633)
(0 0 0.0183842)
(0 0 0.0183014)
(0 0 0.018215)
(0 0 0.0181251)
(0 0 0.0180317)
(0 0 0.017935)
(0 0 0.017835)
(0 0 0.0177318)
(0 0 0.0176254)
(0 0 0.0175159)
(0 0 0.0174035)
(0 0 0.0172882)
(0 0 0.01717)
(0 0 0.0170491)
(0 0 0.0169255)
(0 0 0.0167993)
(0 0 0.0166706)
(0 0 0.0165395)
(0 0 0.016406)
(0 0 0.0162702)
(0 0 0.0161322)
(0 0 0.0159921)
(0 0 0.01585)
(0 0 0.0157059)
(0 0 0.0155598)
(0 0 0.015412)
(0 0 0.0152623)
(0 0 0.015111)
(0 0 0.0149581)
(0 0 0.0148036)
(0 0 0.0146476)
(0 0 0.0144902)
(0 0 0.0143315)
(0 0 0.0141714)
(0 0 0.0140102)
(0 0 0.0138477)
(0 0 0.0136841)
(0 0 0.0135195)
(0 0 0.0133539)
(0 0 0.0131873)
(0 0 0.0130198)
(0 0 0.0128515)
(0 0 0.0126824)
(0 0 0.0125125)
(0 0 0.012342)
(0 0 0.0121708)
(0 0 0.0119989)
(0 0 0.0118265)
(0 0 0.0116536)
(0 0 0.0114802)
(0 0 0.0113063)
(0 0 0.011132)
(0 0 0.0109573)
(0 0 0.0107823)
(0 0 0.010607)
(0 0 0.0104313)
(0 0 0.0102554)
(0 0 0.0100793)
(0 0 0.00990301)
(0 0 0.00972652)
(0 0 0.00954987)
(0 0 0.0093731)
(0 0 0.00919622)
(0 0 0.00901925)
(0 0 0.00884221)
(0 0 0.00866513)
(0 0 0.00848802)
(0 0 0.00831089)
(0 0 0.00813376)
(0 0 0.00795665)
(0 0 0.00777957)
(0 0 0.00760252)
(0 0 0.00742553)
(0 0 0.0072486)
(0 0 0.00707175)
(0 0 0.00689497)
(0 0 0.00671829)
(0 0 0.0065417)
(0 0 0.00636521)
(0 0 0.00618884)
(0 0 0.00601258)
(0 0 0.00583643)
(0 0 0.00566041)
(0 0 0.00548451)
(0 0 0.00530874)
(0 0 0.00513309)
(0 0 0.00495758)
(0 0 0.0047822)
(0 0 0.00460694)
(0 0 0.00443182)
(0 0 0.00425683)
(0 0 0.00408196)
(0 0 0.00390722)
(0 0 0.0037326)
(0 0 0.0035581)
(0 0 0.00338372)
(0 0 0.00320946)
(0 0 0.0030353)
(0 0 0.00286126)
(0 0 0.00268731)
(0 0 0.00251346)
(0 0 0.0023397)
(0 0 0.00216603)
(0 0 0.00199244)
(0 0 0.00181892)
(0 0 0.00164548)
(0 0 0.0014721)
(0 0 0.00129877)
(0 0 0.0011255)
(0 0 0.000952269)
(0 0 0.000779078)
(0 0 0.000605917)
(0 0 0.000432781)
(0 0 0.000259662)
(0 0 8.65527e-05)
(0 0 0.000115695)
(0 0 0.000347092)
(0 0 0.000578505)
(0 0 0.000809946)
(0 0 0.00104143)
(0 0 0.00127296)
(0 0 0.00150455)
(0 0 0.00173621)
(0 0 0.00196795)
(0 0 0.00219979)
(0 0 0.00243173)
(0 0 0.00266377)
(0 0 0.00289594)
(0 0 0.00312823)
(0 0 0.00336066)
(0 0 0.00359322)
(0 0 0.00382594)
(0 0 0.00405881)
(0 0 0.00429184)
(0 0 0.00452503)
(0 0 0.00475839)
(0 0 0.00499191)
(0 0 0.00522561)
(0 0 0.00545948)
(0 0 0.00569352)
(0 0 0.00592772)
(0 0 0.0061621)
(0 0 0.00639664)
(0 0 0.00663133)
(0 0 0.00686618)
(0 0 0.00710117)
(0 0 0.0073363)
(0 0 0.00757155)
(0 0 0.00780692)
(0 0 0.00804238)
(0 0 0.00827794)
(0 0 0.00851355)
(0 0 0.00874922)
(0 0 0.00898492)
(0 0 0.00922063)
(0 0 0.00945632)
(0 0 0.00969197)
(0 0 0.00992756)
(0 0 0.010163)
(0 0 0.0103984)
(0 0 0.0106336)
(0 0 0.0108686)
(0 0 0.0111033)
(0 0 0.0113378)
(0 0 0.011572)
(0 0 0.0118058)
(0 0 0.0120392)
(0 0 0.0122721)
(0 0 0.0125046)
(0 0 0.0127364)
(0 0 0.0129677)
(0 0 0.0131982)
(0 0 0.0134281)
(0 0 0.0136571)
(0 0 0.0138853)
(0 0 0.0141125)
(0 0 0.0143388)
(0 0 0.0145639)
(0 0 0.0147879)
(0 0 0.0150107)
(0 0 0.0152322)
(0 0 0.0154523)
(0 0 0.0156709)
(0 0 0.0158879)
(0 0 0.0161034)
(0 0 0.0163171)
(0 0 0.0165289)
(0 0 0.0167389)
(0 0 0.0169468)
(0 0 0.0171527)
(0 0 0.0173563)
(0 0 0.0175576)
(0 0 0.0177566)
(0 0 0.017953)
(0 0 0.0181468)
(0 0 0.0183379)
(0 0 0.0185262)
(0 0 0.0187116)
(0 0 0.018894)
(0 0 0.0190733)
(0 0 0.0192493)
(0 0 0.0194221)
(0 0 0.0195913)
(0 0 0.0197571)
(0 0 0.0199192)
(0 0 0.0200776)
(0 0 0.0202322)
(0 0 0.0203828)
(0 0 0.0205294)
(0 0 0.0206718)
(0 0 0.0208101)
(0 0 0.020944)
(0 0 0.0210736)
(0 0 0.0211986)
(0 0 0.0213191)
(0 0 0.021435)
(0 0 0.0215461)
(0 0 0.0216525)
(0 0 0.021754)
(0 0 0.0218505)
(0 0 0.0219421)
(0 0 0.0220286)
(0 0 0.02211)
(0 0 0.0221862)
(0 0 0.0222572)
(0 0 0.022323)
(0 0 0.0223835)
(0 0 0.0224386)
(0 0 0.0224884)
(0 0 0.0225329)
(0 0 0.0225719)
(0 0 0.0226056)
(0 0 0.0226338)
(0 0 0.0226565)
(0 0 0.0226739)
(0 0 0.0226858)
(0 0 0.0226923)
(0 0 0.0226934)
(0 0 0.0226892)
(0 0 0.0226795)
(0 0 0.0226645)
(0 0 0.0226442)
(0 0 0.0226187)
(0 0 0.0225879)
(0 0 0.0225519)
(0 0 0.0225107)
(0 0 0.0224645)
(0 0 0.0224132)
(0 0 0.0223569)
(0 0 0.0222958)
(0 0 0.0222297)
(0 0 0.0221589)
(0 0 0.0220833)
(0 0 0.0220031)
(0 0 0.0219184)
(0 0 0.0218291)
(0 0 0.0217354)
(0 0 0.0216374)
(0 0 0.0215351)
(0 0 0.0214287)
(0 0 0.0213182)
(0 0 0.0212037)
(0 0 0.0210853)
(0 0 0.0209631)
(0 0 0.0208372)
(0 0 0.0207077)
(0 0 0.0205746)
(0 0 0.0204381)
(0 0 0.0202983)
(0 0 0.0201552)
(0 0 0.020009)
(0 0 0.0198597)
(0 0 0.0197074)
(0 0 0.0195522)
(0 0 0.0193943)
(0 0 0.0192336)
(0 0 0.0190704)
(0 0 0.0189047)
(0 0 0.0187365)
(0 0 0.018566)
(0 0 0.0183932)
(0 0 0.0182183)
(0 0 0.0180413)
(0 0 0.0178623)
(0 0 0.0176814)
(0 0 0.0174987)
(0 0 0.0173142)
(0 0 0.017128)
(0 0 0.0169403)
(0 0 0.016751)
(0 0 0.0165602)
(0 0 0.0163681)
(0 0 0.0161747)
(0 0 0.01598)
(0 0 0.0157841)
(0 0 0.0155871)
(0 0 0.0153891)
(0 0 0.0151901)
(0 0 0.0149901)
(0 0 0.0147892)
(0 0 0.0145875)
(0 0 0.0143851)
(0 0 0.0141819)
(0 0 0.0139781)
(0 0 0.0137736)
(0 0 0.0135686)
(0 0 0.013363)
(0 0 0.0131569)
(0 0 0.0129504)
(0 0 0.0127435)
(0 0 0.0125362)
(0 0 0.0123285)
(0 0 0.0121206)
(0 0 0.0119124)
(0 0 0.011704)
(0 0 0.0114953)
(0 0 0.0112865)
(0 0 0.0110776)
(0 0 0.0108685)
(0 0 0.0106593)
(0 0 0.01045)
(0 0 0.0102407)