/*--------------------------------*- C++ -*----------------------------------*\
| =========                 |                                                 |
| \\      /  F ield         | OpenFOAM: The Open Source CFD Toolbox           |
|  \\    /   O peration     | Version:  v2012                                 |
|   \\  /    A nd           | Website:  www.openfoam.com                      |
|    \\/     M anipulation  |                                                 |
\*---------------------------------------------------------------------------*/
FoamFile
{
    version     2.0;
    format      ascii;
    class       surfaceScalarField;
    location    "19.6";
    object      phi;
}
// * * * * * * * * * * * * * * * * * * * * * * * * * * * * * * * * * * * * * //

dimensions      [0 3 -1 0 0 0 0];
oriented        oriented;


internalField   nonuniform List<scalar> 
130560
(
3.20365e-06
-3.20365e-06
6.40742e-06
-3.20377e-06
9.61144e-06
-3.20402e-06
1.28158e-05
-3.20439e-06
1.60207e-05
-3.20487e-06
1.92262e-05
-3.20548e-06
2.24324e-05
-3.20621e-06
2.56394e-05
-3.20705e-06
2.88474e-05
-3.208e-06
3.20565e-05
-3.20907e-06
3.52668e-05
-3.21025e-06
3.84783e-05
-3.21153e-06
4.16912e-05
-3.21291e-06
4.49056e-05
-3.21439e-06
4.81216e-05
-3.21597e-06
5.13392e-05
-3.21763e-06
5.45586e-05
-3.21938e-06
5.77798e-05
-3.22121e-06
6.10029e-05
-3.22311e-06
6.4228e-05
-3.22508e-06
6.74551e-05
-3.2271e-06
7.06843e-05
-3.22919e-06
7.39156e-05
-3.23132e-06
7.71491e-05
-3.23349e-06
8.03848e-05
-3.23569e-06
8.36227e-05
-3.23791e-06
8.68628e-05
-3.24015e-06
9.01052e-05
-3.24239e-06
9.33498e-05
-3.24463e-06
9.65967e-05
-3.24685e-06
9.98457e-05
-3.24905e-06
0.000103097
-3.25121e-06
0.00010635
-3.25332e-06
0.000109606
-3.25538e-06
0.000112863
-3.25736e-06
0.000116122
-3.25926e-06
0.000119383
-3.26105e-06
0.000122646
-3.26274e-06
0.00012591
-3.2643e-06
0.000129176
-3.26572e-06
0.000132443
-3.26698e-06
0.000135711
-3.26806e-06
0.00013898
-3.26896e-06
0.00014225
-3.26965e-06
0.00014552
-3.27011e-06
0.00014879
-3.27033e-06
0.00015206
-3.27029e-06
0.00015533
-3.26997e-06
0.0001586
-3.26935e-06
0.000161868
-3.2684e-06
0.000165135
-3.26711e-06
0.000168401
-3.26546e-06
0.000171664
-3.26342e-06
0.000174925
-3.26097e-06
0.000178183
-3.25809e-06
0.000181438
-3.25475e-06
0.000184689
-3.25093e-06
0.000187935
-3.2466e-06
0.000191177
-3.24174e-06
0.000194414
-3.23633e-06
0.000197644
-3.23033e-06
0.000200868
-3.22372e-06
0.000204084
-3.21647e-06
0.000207293
-3.20855e-06
0.000210493
-3.19994e-06
0.000213683
-3.19061e-06
0.000216864
-3.18052e-06
0.000220033
-3.16966e-06
0.000223191
-3.15798e-06
0.000226337
-3.14547e-06
0.000229469
-3.13208e-06
0.000232587
-3.11779e-06
0.000235689
-3.10258e-06
0.000238776
-3.08641e-06
0.000241845
-3.06924e-06
0.000244896
-3.05106e-06
0.000247928
-3.03183e-06
0.000250939
-3.01152e-06
0.000253929
-2.9901e-06
0.000256897
-2.96755e-06
0.000259841
-2.94383e-06
0.00026276
-2.91893e-06
0.000265653
-2.8928e-06
0.000268518
-2.86543e-06
0.000271355
-2.83678e-06
0.000274162
-2.80685e-06
0.000276937
-2.77559e-06
0.00027968
-2.74299e-06
0.000282389
-2.70903e-06
0.000285063
-2.67368e-06
0.0002877
-2.63694e-06
0.000290299
-2.59877e-06
0.000292858
-2.55917e-06
0.000295376
-2.51812e-06
0.000297851
-2.4756e-06
0.000300283
-2.43162e-06
0.000302669
-2.38616e-06
0.000305008
-2.33921e-06
0.000307299
-2.29076e-06
0.00030954
-2.24083e-06
0.000311729
-2.1894e-06
0.000313866
-2.13649e-06
0.000315948
-2.08209e-06
0.000317974
-2.02621e-06
0.000319943
-1.96887e-06
0.000321853
-1.91007e-06
0.000323703
-1.84984e-06
0.000325491
-1.78818e-06
0.000327216
-1.72514e-06
0.000328877
-1.66072e-06
0.000330472
-1.59495e-06
0.000332
-1.52787e-06
0.000333459
-1.45951e-06
0.000334849
-1.38991e-06
0.000336168
-1.31909e-06
0.000337415
-1.24712e-06
0.00033859
-1.17402e-06
0.000339689
-1.09985e-06
0.000340714
-1.02465e-06
0.000341663
-9.48489e-07
0.000342534
-8.71408e-07
0.000343327
-7.93469e-07
0.000344042
-7.14732e-07
0.000344677
-6.35257e-07
0.000345232
-5.55109e-07
0.000345707
-4.74354e-07
0.0003461
-3.93058e-07
0.000346411
-3.1129e-07
0.00034664
-2.29121e-07
0.000346787
-1.46623e-07
0.000346851
-6.3866e-08
0.000346832
1.90751e-08
0.00034673
1.02127e-07
0.000346544
1.85216e-07
0.000346276
2.68267e-07
0.000345925
3.51207e-07
0.000345491
4.33961e-07
0.000344974
5.16455e-07
0.000344376
5.98617e-07
0.000343695
6.80375e-07
0.000342934
7.61658e-07
0.000342091
8.42396e-07
0.000341169
9.22521e-07
0.000340167
1.00196e-06
0.000339086
1.08066e-06
0.000337928
1.15856e-06
0.000336692
1.23558e-06
0.00033538
1.31167e-06
0.000333994
1.38678e-06
0.000332533
1.46085e-06
0.000330999
1.53384e-06
0.000329393
1.60568e-06
0.000327717
1.67634e-06
0.000325971
1.74577e-06
0.000324157
1.81394e-06
0.000322276
1.8808e-06
0.00032033
1.94633e-06
0.00031832
2.01048e-06
0.000316246
2.07323e-06
0.000314112
2.13456e-06
0.000311917
2.19445e-06
0.000309665
2.25287e-06
0.000307355
2.3098e-06
0.00030499
2.36524e-06
0.00030257
2.41918e-06
0.000300099
2.4716e-06
0.000297576
2.52249e-06
0.000295004
2.57187e-06
0.000292385
2.61972e-06
0.000289719
2.66605e-06
0.000287008
2.71087e-06
0.000284254
2.75417e-06
0.000281458
2.79598e-06
0.000278621
2.8363e-06
0.000275746
2.87514e-06
0.000272834
2.91251e-06
0.000269885
2.94845e-06
0.000266902
2.98295e-06
0.000263886
3.01605e-06
0.000260838
3.04777e-06
0.00025776
3.07812e-06
0.000254653
3.10714e-06
0.000251518
3.13484e-06
0.000248357
3.16125e-06
0.000245171
3.18641e-06
0.00024196
3.21033e-06
0.000238727
3.23305e-06
0.000235473
3.25459e-06
0.000232198
3.27499e-06
0.000228903
3.29427e-06
0.000225591
3.31247e-06
0.000222261
3.32962e-06
0.000218916
3.34575e-06
0.000215555
3.36089e-06
0.00021218
3.37507e-06
0.000208791
3.38832e-06
0.000205391
3.40068e-06
0.000201978
3.41218e-06
0.000198556
3.42284e-06
0.000195123
3.43271e-06
0.000191681
3.4418e-06
0.000188231
3.45016e-06
0.000184773
3.45781e-06
0.000181308
3.46478e-06
0.000177837
3.47111e-06
0.00017436
3.47682e-06
0.000170878
3.48194e-06
0.000167392
3.4865e-06
0.000163901
3.49053e-06
0.000160407
3.49405e-06
0.00015691
3.49709e-06
0.000153411
3.49969e-06
0.000149909
3.50186e-06
0.000146405
3.50363e-06
0.0001429
3.50502e-06
0.000139394
3.50607e-06
0.000135887
3.50679e-06
0.00013238
3.5072e-06
0.000128873
3.50733e-06
0.000125366
3.50721e-06
0.000121859
3.50684e-06
0.000118352
3.50625e-06
0.000114847
3.50547e-06
0.000111342
3.50451e-06
0.000107839
3.50339e-06
0.000104337
3.50212e-06
0.000100836
3.50073e-06
9.7337e-05
3.49924e-06
9.38393e-05
3.49765e-06
9.03433e-05
3.49598e-06
8.68491e-05
3.49425e-06
8.33566e-05
3.49248e-06
7.98659e-05
3.49067e-06
7.63771e-05
3.48884e-06
7.28901e-05
3.487e-06
6.94049e-05
3.48516e-06
6.59216e-05
3.48334e-06
6.24401e-05
3.48155e-06
5.89603e-05
3.47979e-06
5.54822e-05
3.47808e-06
5.20058e-05
3.47642e-06
4.85309e-05
3.47483e-06
4.50576e-05
3.4733e-06
4.15858e-05
3.47186e-06
3.81153e-05
3.4705e-06
3.46461e-05
3.46923e-06
3.1178e-05
3.46806e-06
2.7711e-05
3.46699e-06
2.4245e-05
3.46603e-06
2.07798e-05
3.46518e-06
1.73154e-05
3.46444e-06
1.38515e-05
3.46382e-06
1.03882e-05
3.46332e-06
6.92528e-06
3.46295e-06
3.46258e-06
3.4627e-06
3.46258e-06
3.20353e-06
-6.40718e-06
6.40719e-06
-6.40743e-06
9.61109e-06
-6.40792e-06
1.28154e-05
-6.40866e-06
1.60201e-05
-6.40963e-06
1.92255e-05
-6.41085e-06
2.24316e-05
-6.4123e-06
2.56385e-05
-6.41399e-06
2.88464e-05
-6.4159e-06
3.20554e-05
-6.41804e-06
3.52655e-05
-6.42039e-06
3.8477e-05
-6.42296e-06
4.16898e-05
-6.42573e-06
4.49041e-05
-6.4287e-06
4.812e-05
-6.43185e-06
5.13375e-05
-6.43518e-06
5.45568e-05
-6.43869e-06
5.7778e-05
-6.44235e-06
6.1001e-05
-6.44615e-06
6.4226e-05
-6.45009e-06
6.74531e-05
-6.45416e-06
7.06822e-05
-6.45833e-06
7.39135e-05
-6.4626e-06
7.7147e-05
-6.46694e-06
8.03826e-05
-6.47135e-06
8.36205e-05
-6.47581e-06
8.68607e-05
-6.48029e-06
9.01031e-05
-6.48479e-06
9.33477e-05
-6.48927e-06
9.65946e-05
-6.49373e-06
9.98437e-05
-6.49814e-06
0.000103095
-6.50247e-06
0.000106348
-6.50671e-06
0.000109604
-6.51083e-06
0.000112861
-6.51481e-06
0.000116121
-6.51861e-06
0.000119382
-6.52222e-06
0.000122645
-6.52561e-06
0.000125909
-6.52874e-06
0.000129175
-6.53159e-06
0.000132442
-6.53413e-06
0.00013571
-6.53632e-06
0.00013898
-6.53813e-06
0.000142249
-6.53952e-06
0.00014552
-6.54047e-06
0.00014879
-6.54093e-06
0.000152061
-6.54087e-06
0.000155331
-6.54024e-06
0.000158601
-6.53902e-06
0.00016187
-6.53715e-06
0.000165137
-6.53459e-06
0.000168403
-6.53131e-06
0.000171667
-6.52725e-06
0.000174928
-6.52238e-06
0.000178187
-6.51664e-06
0.000181442
-6.50998e-06
0.000184693
-6.50237e-06
0.000187941
-6.49374e-06
0.000191183
-6.48405e-06
0.00019442
-6.47324e-06
0.000197651
-6.46127e-06
0.000200875
-6.44808e-06
0.000204092
-6.4336e-06
0.000207301
-6.4178e-06
0.000210502
-6.40061e-06
0.000213693
-6.38197e-06
0.000216875
-6.36183e-06
0.000220045
-6.34013e-06
0.000223204
-6.3168e-06
0.00022635
-6.2918e-06
0.000229483
-6.26506e-06
0.000232602
-6.23652e-06
0.000235706
-6.20612e-06
0.000238793
-6.1738e-06
0.000241863
-6.13951e-06
0.000244915
-6.10317e-06
0.000247948
-6.06474e-06
0.000250961
-6.02415e-06
0.000253952
-5.98134e-06
0.000256921
-5.93627e-06
0.000259866
-5.88886e-06
0.000262786
-5.83907e-06
0.00026568
-5.78684e-06
0.000268547
-5.73213e-06
0.000271385
-5.67487e-06
0.000274193
-5.61501e-06
0.00027697
-5.55252e-06
0.000279714
-5.48734e-06
0.000282425
-5.41944e-06
0.0002851
-5.34877e-06
0.000287738
-5.27529e-06
0.000290338
-5.19897e-06
0.000292899
-5.11978e-06
0.000295419
-5.03769e-06
0.000297896
-4.95268e-06
0.000300329
-4.86472e-06
0.000302716
-4.7738e-06
0.000305057
-4.6799e-06
0.000307349
-4.58302e-06
0.000309592
-4.48315e-06
0.000311783
-4.38029e-06
0.000313921
-4.27446e-06
0.000316004
-4.16565e-06
0.000318032
-4.05388e-06
0.000320002
-3.93918e-06
0.000321914
-3.82157e-06
0.000323765
-3.70109e-06
0.000325554
-3.57776e-06
0.000327281
-3.45164e-06
0.000328943
-3.32278e-06
0.000330539
-3.19122e-06
0.000332068
-3.05702e-06
0.000333529
-2.92027e-06
0.00033492
-2.78102e-06
0.000336241
-2.63935e-06
0.000337489
-2.49535e-06
0.000338664
-2.34911e-06
0.000339765
-2.20071e-06
0.00034079
-2.05027e-06
0.00034174
-1.89789e-06
0.000342612
-1.74367e-06
0.000343406
-1.58773e-06
0.000344122
-1.4302e-06
0.000344758
-1.27118e-06
0.000345313
-1.11082e-06
0.000345788
-9.49245e-07
0.000346182
-7.86584e-07
0.000346494
-6.22979e-07
0.000346723
-4.58569e-07
0.00034687
-2.93499e-07
0.000346934
-1.27913e-07
0.000346915
3.80432e-08
0.000346813
2.04221e-07
0.000346628
3.70473e-07
0.000346359
5.3665e-07
0.000346008
7.02603e-07
0.000345574
8.68184e-07
0.000345057
1.03325e-06
0.000344458
1.19764e-06
0.000343777
1.36123e-06
0.000343015
1.52387e-06
0.000342172
1.68541e-06
0.000341248
1.84573e-06
0.000340246
2.00468e-06
0.000339164
2.16214e-06
0.000338005
2.31798e-06
0.000336768
2.47209e-06
0.000335456
2.62433e-06
0.000334068
2.77461e-06
0.000332606
2.9228e-06
0.000331071
3.06881e-06
0.000329464
3.21255e-06
0.000327787
3.35391e-06
0.000326039
3.49282e-06
0.000324224
3.62919e-06
0.000322342
3.76295e-06
0.000320394
3.89403e-06
0.000318382
4.02236e-06
0.000316308
4.14789e-06
0.000314172
4.27058e-06
0.000311976
4.39036e-06
0.000309722
4.50722e-06
0.00030741
4.6211e-06
0.000305043
4.732e-06
0.000302623
4.83987e-06
0.00030015
4.94471e-06
0.000297626
5.04651e-06
0.000295052
5.14527e-06
0.000292431
5.24097e-06
0.000289763
5.33363e-06
0.000287051
5.42325e-06
0.000284295
5.50985e-06
0.000281498
5.59345e-06
0.00027866
5.67407e-06
0.000275784
5.75173e-06
0.00027287
5.82647e-06
0.00026992
5.89832e-06
0.000266935
5.96732e-06
0.000263918
6.0335e-06
0.000260869
6.0969e-06
0.000257789
6.15759e-06
0.000254681
6.21559e-06
0.000251545
6.27097e-06
0.000248382
6.32377e-06
0.000245195
6.37405e-06
0.000241983
6.42186e-06
0.000238749
6.46727e-06
0.000235493
6.51032e-06
0.000232217
6.55109e-06
0.000228922
6.58963e-06
0.000225608
6.626e-06
0.000222277
6.66027e-06
0.000218931
6.69249e-06
0.000215569
6.72273e-06
0.000212193
6.75106e-06
0.000208804
6.77754e-06
0.000205402
6.80222e-06
0.000201989
6.82518e-06
0.000198565
6.84648e-06
0.000195132
6.86618e-06
0.000191689
6.88434e-06
0.000188239
6.90103e-06
0.00018478
6.9163e-06
0.000181315
6.93022e-06
0.000177843
6.94284e-06
0.000174365
6.95423e-06
0.000170883
6.96444e-06
0.000167396
6.97353e-06
0.000163905
6.98156e-06
0.00016041
6.98857e-06
0.000156913
6.99464e-06
0.000153413
6.9998e-06
0.00014991
7.00412e-06
0.000146406
7.00763e-06
0.000142901
7.0104e-06
0.000139395
7.01246e-06
0.000135888
7.01388e-06
0.00013238
7.01468e-06
0.000128873
7.01492e-06
0.000125365
7.01465e-06
0.000121858
7.0139e-06
0.000118352
7.01271e-06
0.000114846
7.01112e-06
0.000111341
7.00918e-06
0.000107838
7.00692e-06
0.000104335
7.00437e-06
0.000100835
7.00158e-06
9.73353e-05
6.99856e-06
9.38376e-05
6.99537e-06
9.03416e-05
6.99202e-06
8.68473e-05
6.98855e-06
8.33548e-05
6.98498e-06
7.98641e-05
6.98135e-06
7.63752e-05
6.97768e-06
7.28882e-05
6.97399e-06
6.94031e-05
6.97031e-06
6.59198e-05
6.96666e-06
6.24383e-05
6.96306e-06
5.89585e-05
6.95954e-06
5.54805e-05
6.9561e-06
5.20041e-05
6.95278e-06
4.85294e-05
6.94958e-06
4.50562e-05
6.94652e-06
4.15844e-05
6.94363e-06
3.8114e-05
6.9409e-06
3.46449e-05
6.93836e-06
3.11769e-05
6.93601e-06
2.771e-05
6.93387e-06
2.42441e-05
6.93194e-06
2.07791e-05
6.93023e-06
1.73147e-05
6.92876e-06
1.3851e-05
6.92752e-06
1.03878e-05
6.92652e-06
6.92502e-06
6.92577e-06
3.46245e-06
6.92527e-06
6.92502e-06
3.20328e-06
-9.61046e-06
6.40669e-06
-9.61083e-06
9.61035e-06
-9.61157e-06
1.28144e-05
-9.61268e-06
1.60189e-05
-9.61415e-06
1.9224e-05
-9.61598e-06
2.24299e-05
-9.61816e-06
2.56366e-05
-9.6207e-06
2.88443e-05
-9.62357e-06
3.2053e-05
-9.62679e-06
3.52629e-05
-9.63033e-06
3.84742e-05
-9.63419e-06
4.16868e-05
-9.63835e-06
4.49009e-05
-9.64281e-06
4.81166e-05
-9.64755e-06
5.1334e-05
-9.65257e-06
5.45531e-05
-9.65783e-06
5.77741e-05
-9.66334e-06
6.0997e-05
-9.66906e-06
6.42219e-05
-9.67499e-06
6.74489e-05
-9.6811e-06
7.06779e-05
-9.68738e-06
7.39091e-05
-9.6938e-06
7.71425e-05
-9.70034e-06
8.03781e-05
-9.70697e-06
8.3616e-05
-9.71367e-06
8.68561e-05
-9.72042e-06
9.00985e-05
-9.72719e-06
9.33432e-05
-9.73394e-06
9.65901e-05
-9.74066e-06
9.98393e-05
-9.74729e-06
0.000103091
-9.75382e-06
0.000106344
-9.76021e-06
0.0001096
-9.76643e-06
0.000112857
-9.77242e-06
0.000116117
-9.77817e-06
0.000119378
-9.78362e-06
0.000122641
-9.78873e-06
0.000125906
-9.79347e-06
0.000129172
-9.79778e-06
0.00013244
-9.80163e-06
0.000135708
-9.80495e-06
0.000138978
-9.80771e-06
0.000142248
-9.80985e-06
0.000145519
-9.81131e-06
0.00014879
-9.81205e-06
0.000152061
-9.81201e-06
0.000155332
-9.81112e-06
0.000158603
-9.80933e-06
0.000161872
-9.80658e-06
0.00016514
-9.8028e-06
0.000168407
-9.79793e-06
0.000171672
-9.7919e-06
0.000174934
-9.78465e-06
0.000178193
-9.7761e-06
0.000181449
-9.76618e-06
0.000184702
-9.75482e-06
0.00018795
-9.74194e-06
0.000191194
-9.72747e-06
0.000194432
-9.71133e-06
0.000197664
-9.69343e-06
0.000200889
-9.67371e-06
0.000204108
-9.65207e-06
0.000207319
-9.62844e-06
0.000210521
-9.60272e-06
0.000213714
-9.57483e-06
0.000216896
-9.5447e-06
0.000220068
-9.51222e-06
0.000223229
-9.47731e-06
0.000226377
-9.43988e-06
0.000229512
-9.39984e-06
0.000232632
-9.3571e-06
0.000235738
-9.31158e-06
0.000238827
-9.26318e-06
0.0002419
-9.21181e-06
0.000244954
-9.15738e-06
0.000247989
-9.0998e-06
0.000251004
-9.03899e-06
0.000253997
-8.97486e-06
0.000256968
-8.90731e-06
0.000259916
-8.83627e-06
0.000262838
-8.76166e-06
0.000265735
-8.68338e-06
0.000268604
-8.60137e-06
0.000271445
-8.51554e-06
0.000274255
-8.42582e-06
0.000277035
-8.33214e-06
0.000279782
-8.23442e-06
0.000282495
-8.13262e-06
0.000285173
-8.02666e-06
0.000287814
-7.91648e-06
0.000290418
-7.80205e-06
0.000292981
-7.6833e-06
0.000295504
-7.5602e-06
0.000297984
-7.4327e-06
0.00030042
-7.30078e-06
0.00030281
-7.16442e-06
0.000305154
-7.02358e-06
0.000307449
-6.87827e-06
0.000309694
-6.72846e-06
0.000311888
-6.57417e-06
0.000314029
-6.4154e-06
0.000316116
-6.25216e-06
0.000318146
-6.08449e-06
0.00032012
-5.91241e-06
0.000322034
-5.73595e-06
0.000323888
-5.55518e-06
0.00032568
-5.37014e-06
0.00032741
-5.1809e-06
0.000329074
-4.98753e-06
0.000330673
-4.79011e-06
0.000332205
-4.58874e-06
0.000333668
-4.38352e-06
0.000335062
-4.17454e-06
0.000336384
-3.96194e-06
0.000337635
-3.74583e-06
0.000338812
-3.52634e-06
0.000339915
-3.30363e-06
0.000340943
-3.07784e-06
0.000341894
-2.84913e-06
0.000342768
-2.61766e-06
0.000343564
-2.3836e-06
0.000344281
-2.14714e-06
0.000344918
-1.90846e-06
0.000345475
-1.66776e-06
0.000345951
-1.42522e-06
0.000346345
-1.18106e-06
0.000346658
-9.35473e-07
0.000346888
-6.8868e-07
0.000347035
-4.40894e-07
0.0003471
-1.92332e-07
0.000347081
5.67869e-08
0.000346979
3.0624e-07
0.000346794
5.55803e-07
0.000346525
8.05254e-07
0.000346173
1.05437e-06
0.000345739
1.30292e-06
0.000345221
1.5507e-06
0.000344621
1.79748e-06
0.000343939
2.04303e-06
0.000343176
2.28716e-06
0.000342332
2.52965e-06
0.000341407
2.77029e-06
0.000340403
3.00888e-06
0.00033932
3.24523e-06
0.000338159
3.47915e-06
0.000336921
3.71045e-06
0.000335606
3.93896e-06
0.000334216
4.16451e-06
0.000332752
4.38693e-06
0.000331215
4.60607e-06
0.000329605
4.82179e-06
0.000327925
5.03394e-06
0.000326176
5.2424e-06
0.000324358
5.44705e-06
0.000322473
5.64777e-06
0.000320523
5.84447e-06
0.000318508
6.03704e-06
0.00031643
6.2254e-06
0.000314292
6.40948e-06
0.000312093
6.58921e-06
0.000309835
6.76454e-06
0.000307521
6.9354e-06
0.000305151
7.10176e-06
0.000302728
7.2636e-06
0.000300251
7.42087e-06
0.000297724
7.57358e-06
0.000295148
7.72171e-06
0.000292524
7.86526e-06
0.000289853
8.00423e-06
0.000287138
8.13865e-06
0.000284379
8.26853e-06
0.000281579
8.3939e-06
0.000278738
8.5148e-06
0.000275858
8.63126e-06
0.000272941
8.74333e-06
0.000269989
8.85105e-06
0.000267002
8.95449e-06
0.000263981
9.05371e-06
0.000260929
9.14876e-06
0.000257847
9.23973e-06
0.000254736
9.32667e-06
0.000251598
9.40967e-06
0.000248432
9.48881e-06
0.000245242
9.56415e-06
0.000242028
9.6358e-06
0.000238792
9.70384e-06
0.000235534
9.76835e-06
0.000232256
9.82942e-06
0.000228958
9.88715e-06
0.000225642
9.94163e-06
0.00022231
9.99295e-06
0.000218961
1.00412e-05
0.000215597
1.00865e-05
0.000212219
1.01289e-05
0.000208828
1.01685e-05
0.000205425
1.02055e-05
0.00020201
1.02399e-05
0.000198585
1.02717e-05
0.00019515
1.03012e-05
0.000191706
1.03284e-05
0.000188254
1.03533e-05
0.000184794
1.03761e-05
0.000181327
1.03969e-05
0.000177854
1.04158e-05
0.000174376
1.04328e-05
0.000170892
1.04481e-05
0.000167404
1.04616e-05
0.000163912
1.04736e-05
0.000160416
1.04841e-05
0.000156918
1.04931e-05
0.000153417
1.05008e-05
0.000149914
1.05072e-05
0.000146409
1.05124e-05
0.000142903
1.05165e-05
0.000139396
1.05195e-05
0.000135888
1.05216e-05
0.00013238
1.05227e-05
0.000128872
1.0523e-05
0.000125364
1.05226e-05
0.000121857
1.05214e-05
0.00011835
1.05196e-05
0.000114844
1.05171e-05
0.000111339
1.05142e-05
0.000107835
1.05107e-05
0.000104333
1.05069e-05
0.000100832
1.05026e-05
9.73322e-05
1.04981e-05
9.38343e-05
1.04932e-05
9.03381e-05
1.04882e-05
8.68437e-05
1.04829e-05
8.33511e-05
1.04776e-05
7.98604e-05
1.04721e-05
7.63716e-05
1.04665e-05
7.28846e-05
1.0461e-05
6.93995e-05
1.04554e-05
6.59162e-05
1.04499e-05
6.24348e-05
1.04445e-05
5.89551e-05
1.04392e-05
5.54772e-05
1.0434e-05
5.2001e-05
1.0429e-05
4.85263e-05
1.04242e-05
4.50533e-05
1.04196e-05
4.15817e-05
1.04152e-05
3.81115e-05
1.04111e-05
3.46425e-05
1.04073e-05
3.11748e-05
1.04038e-05
2.77081e-05
1.04005e-05
2.42424e-05
1.03976e-05
2.07776e-05
1.03951e-05
1.73135e-05
1.03928e-05
1.38501e-05
1.0391e-05
1.03871e-05
1.03895e-05
6.92452e-06
1.03883e-05
3.4622e-06
1.03876e-05
1.03872e-05
3.20291e-06
-1.28134e-05
6.40595e-06
-1.28139e-05
9.60923e-06
-1.28149e-05
1.28129e-05
-1.28163e-05
1.6017e-05
-1.28183e-05
1.92218e-05
-1.28207e-05
2.24273e-05
-1.28237e-05
2.56337e-05
-1.28271e-05
2.8841e-05
-1.28309e-05
3.20494e-05
-1.28352e-05
3.5259e-05
-1.28399e-05
3.847e-05
-1.28451e-05
4.16823e-05
-1.28507e-05
4.48961e-05
-1.28566e-05
4.81115e-05
-1.2863e-05
5.13287e-05
-1.28697e-05
5.45476e-05
-1.28767e-05
5.77683e-05
-1.28841e-05
6.0991e-05
-1.28918e-05
6.42157e-05
-1.28997e-05
6.74425e-05
-1.29079e-05
7.06714e-05
-1.29163e-05
7.39025e-05
-1.29249e-05
7.71358e-05
-1.29336e-05
8.03713e-05
-1.29425e-05
8.36092e-05
-1.29515e-05
8.68493e-05
-1.29605e-05
9.00917e-05
-1.29696e-05
9.33364e-05
-1.29787e-05
9.65834e-05
-1.29877e-05
9.98327e-05
-1.29966e-05
0.000103084
-1.30053e-05
0.000106338
-1.30139e-05
0.000109594
-1.30222e-05
0.000112851
-1.30303e-05
0.000116111
-1.3038e-05
0.000119373
-1.30453e-05
0.000122637
-1.30522e-05
0.000125902
-1.30586e-05
0.000129168
-1.30644e-05
0.000132436
-1.30696e-05
0.000135706
-1.30741e-05
0.000138976
-1.30779e-05
0.000142247
-1.30808e-05
0.000145518
-1.30829e-05
0.00014879
-1.3084e-05
0.000152062
-1.3084e-05
0.000155334
-1.30829e-05
0.000158605
-1.30806e-05
0.000161876
-1.3077e-05
0.000165145
-1.30721e-05
0.000168413
-1.30657e-05
0.000171679
-1.30578e-05
0.000174942
-1.30482e-05
0.000178203
-1.30369e-05
0.000181461
-1.30238e-05
0.000184715
-1.30088e-05
0.000187964
-1.29917e-05
0.00019121
-1.29726e-05
0.000194449
-1.29512e-05
0.000197683
-1.29274e-05
0.000200911
-1.29013e-05
0.000204131
-1.28725e-05
0.000207344
-1.28412e-05
0.000210548
-1.2807e-05
0.000213743
-1.277e-05
0.000216929
-1.27299e-05
0.000220103
-1.26867e-05
0.000223266
-1.26403e-05
0.000226417
-1.25906e-05
0.000229554
-1.25373e-05
0.000232678
-1.24805e-05
0.000235786
-1.24199e-05
0.000238878
-1.23555e-05
0.000241954
-1.22872e-05
0.000245011
-1.22147e-05
0.000248049
-1.21381e-05
0.000251068
-1.20572e-05
0.000254065
-1.19718e-05
0.000257039
-1.18818e-05
0.00025999
-1.17873e-05
0.000262916
-1.16879e-05
0.000265817
-1.15837e-05
0.00026869
-1.14744e-05
0.000271534
-1.13601e-05
0.000274349
-1.12406e-05
0.000277133
-1.11158e-05
0.000279884
-1.09856e-05
0.000282601
-1.085e-05
0.000285283
-1.07088e-05
0.000287929
-1.05619e-05
0.000290536
-1.04094e-05
0.000293104
-1.02512e-05
0.000295631
-1.00871e-05
0.000298115
-9.91715e-06
0.000300556
-9.7413e-06
0.000302951
-9.55951e-06
0.000305299
-9.37174e-06
0.000307599
-9.178e-06
0.000309849
-8.97826e-06
0.000312047
-8.77252e-06
0.000314192
-8.56081e-06
0.000316283
-8.34312e-06
0.000318318
-8.11951e-06
0.000320296
-7.89e-06
0.000322215
-7.65466e-06
0.000324073
-7.41354e-06
0.00032587
-7.16672e-06
0.000327603
-6.91428e-06
0.000329272
-6.65633e-06
0.000330875
-6.39297e-06
0.00033241
-6.12432e-06
0.000333877
-5.85052e-06
0.000335274
-5.5717e-06
0.0003366
-5.28803e-06
0.000337854
-4.99968e-06
0.000339035
-4.70682e-06
0.000340141
-4.40963e-06
0.000341171
-4.10833e-06
0.000342125
-3.80312e-06
0.000343002
-3.49423e-06
0.0003438
-3.18188e-06
0.000344519
-2.86631e-06
0.000345159
-2.54777e-06
0.000345717
-2.22652e-06
0.000346195
-1.90283e-06
0.000346591
-1.57695e-06
0.000346905
-1.24918e-06
0.000347136
-9.19788e-07
0.000347284
-5.89068e-07
0.000347349
-2.5731e-07
0.00034733
7.51934e-08
0.000347228
4.08144e-07
0.000347043
7.41243e-07
0.000346774
1.07419e-06
0.000346422
1.40669e-06
0.000345986
1.73844e-06
0.000345468
2.06915e-06
0.000344867
2.39852e-06
0.000344184
2.72627e-06
0.000343419
3.0521e-06
0.000342573
3.37573e-06
0.000341646
3.6969e-06
0.000340639
4.01533e-06
0.000339554
4.33075e-06
0.00033839
4.64293e-06
0.000337149
4.95161e-06
0.000335831
5.25655e-06
0.000334438
5.55753e-06
0.000332971
5.85433e-06
0.00033143
6.14675e-06
0.000329818
6.43458e-06
0.000328134
6.71766e-06
0.00032638
6.99579e-06
0.000324559
7.26883e-06
0.00032267
7.53662e-06
0.000320715
7.79903e-06
0.000318696
8.05592e-06
0.000316615
8.30719e-06
0.000314471
8.55274e-06
0.000312268
8.79247e-06
0.000310006
9.02631e-06
0.000307687
9.25419e-06
0.000305313
9.47606e-06
0.000302885
9.69187e-06
0.000300404
9.9016e-06
0.000297873
1.01052e-05
0.000295291
1.03027e-05
0.000292663
1.04941e-05
0.000289987
1.06794e-05
0.000287268
1.08586e-05
0.000284504
1.10317e-05
0.000281699
1.11988e-05
0.000278854
1.136e-05
0.00027597
1.15152e-05
0.000273049
1.16645e-05
0.000270092
1.18081e-05
0.000267101
1.19459e-05
0.000264076
1.20781e-05
0.00026102
1.22047e-05
0.000257934
1.23259e-05
0.000254819
1.24417e-05
0.000251677
1.25522e-05
0.000248508
1.26576e-05
0.000245314
1.2758e-05
0.000242096
1.28534e-05
0.000238856
1.29439e-05
0.000235595
1.30298e-05
0.000232313
1.31111e-05
0.000229012
1.31879e-05
0.000225694
1.32604e-05
0.000222358
1.33287e-05
0.000219006
1.33929e-05
0.00021564
1.34531e-05
0.000212259
1.35095e-05
0.000208865
1.35622e-05
0.000205459
1.36113e-05
0.000202042
1.3657e-05
0.000198615
1.36994e-05
0.000195177
1.37385e-05
0.000191731
1.37746e-05
0.000188277
1.38077e-05
0.000184815
1.3838e-05
0.000181346
1.38656e-05
0.000177871
1.38906e-05
0.000174391
1.39132e-05
0.000170906
1.39334e-05
0.000167416
1.39513e-05
0.000163922
1.39671e-05
0.000160426
1.3981e-05
0.000156926
1.39929e-05
0.000153424
1.4003e-05
0.000149919
1.40114e-05
0.000146413
1.40183e-05
0.000142906
1.40236e-05
0.000139398
1.40275e-05
0.00013589
1.40302e-05
0.000132381
1.40316e-05
0.000128872
1.40319e-05
0.000125363
1.40312e-05
0.000121855
1.40295e-05
0.000118348
1.4027e-05
0.000114841
1.40237e-05
0.000111336
1.40196e-05
0.000107831
1.4015e-05
0.000104329
1.40097e-05
0.000100827
1.4004e-05
9.73274e-05
1.39979e-05
9.38292e-05
1.39913e-05
9.03329e-05
1.39845e-05
8.68384e-05
1.39775e-05
8.33457e-05
1.39702e-05
7.98549e-05
1.39629e-05
7.6366e-05
1.39554e-05
7.28791e-05
1.39479e-05
6.9394e-05
1.39405e-05
6.59108e-05
1.39331e-05
6.24295e-05
1.39258e-05
5.89499e-05
1.39187e-05
5.54722e-05
1.39118e-05
5.19962e-05
1.3905e-05
4.85218e-05
1.38986e-05
4.50489e-05
1.38924e-05
4.15776e-05
1.38866e-05
3.81076e-05
1.38811e-05
3.4639e-05
1.38759e-05
3.11716e-05
1.38712e-05
2.77052e-05
1.38669e-05
2.42399e-05
1.3863e-05
2.07754e-05
1.38595e-05
1.73116e-05
1.38566e-05
1.38486e-05
1.38541e-05
1.0386e-05
1.38521e-05
6.92377e-06
1.38506e-05
3.46182e-06
1.38495e-05
1.3849e-05
3.20241e-06
-1.60158e-05
6.40495e-06
-1.60164e-05
9.60774e-06
-1.60176e-05
1.28109e-05
-1.60195e-05
1.60146e-05
-1.6022e-05
1.92189e-05
-1.6025e-05
2.24239e-05
-1.60287e-05
2.56298e-05
-1.6033e-05
2.88367e-05
-1.60378e-05
3.20447e-05
-1.60432e-05
3.52538e-05
-1.60491e-05
3.84643e-05
-1.60556e-05
4.16763e-05
-1.60626e-05
4.48897e-05
-1.60701e-05
4.81048e-05
-1.60781e-05
5.13216e-05
-1.60865e-05
5.45401e-05
-1.60953e-05
5.77606e-05
-1.61046e-05
6.0983e-05
-1.61142e-05
6.42075e-05
-1.61242e-05
6.7434e-05
-1.61344e-05
7.06628e-05
-1.6145e-05
7.38937e-05
-1.61558e-05
7.71268e-05
-1.61668e-05
8.03623e-05
-1.6178e-05
8.36e-05
-1.61893e-05
8.68401e-05
-1.62006e-05
9.00825e-05
-1.6212e-05
9.33273e-05
-1.62234e-05
9.65744e-05
-1.62347e-05
9.98238e-05
-1.6246e-05
0.000103075
-1.6257e-05
0.000106329
-1.62678e-05
0.000109585
-1.62783e-05
0.000112844
-1.62885e-05
0.000116104
-1.62982e-05
0.000119366
-1.63075e-05
0.00012263
-1.63162e-05
0.000125896
-1.63243e-05
0.000129163
-1.63317e-05
0.000132432
-1.63383e-05
0.000135702
-1.63441e-05
0.000138973
-1.63489e-05
0.000142245
-1.63527e-05
0.000145517
-1.63554e-05
0.00014879
-1.63569e-05
0.000152063
-1.63571e-05
0.000155336
-1.63559e-05
0.000158609
-1.63532e-05
0.00016188
-1.63489e-05
0.000165151
-1.63428e-05
0.000168421
-1.6335e-05
0.000171688
-1.63253e-05
0.000174953
-1.63135e-05
0.000178216
-1.62996e-05
0.000181476
-1.62834e-05
0.000184732
-1.62648e-05
0.000187983
-1.62436e-05
0.000191231
-1.62199e-05
0.000194473
-1.61933e-05
0.000197709
-1.61639e-05
0.000200939
-1.61313e-05
0.000204163
-1.60957e-05
0.000207378
-1.60566e-05
0.000210585
-1.60142e-05
0.000213783
-1.59681e-05
0.000216972
-1.59182e-05
0.000220149
-1.58645e-05
0.000223316
-1.58067e-05
0.00022647
-1.57447e-05
0.000229611
-1.56784e-05
0.000232738
-1.56076e-05
0.00023585
-1.55321e-05
0.000238947
-1.54518e-05
0.000242026
-1.53666e-05
0.000245088
-1.52763e-05
0.00024813
-1.51807e-05
0.000251153
-1.50798e-05
0.000254154
-1.49732e-05
0.000257133
-1.4861e-05
0.000260089
-1.4743e-05
0.00026302
-1.4619e-05
0.000265926
-1.44889e-05
0.000268804
-1.43526e-05
0.000271653
-1.42099e-05
0.000274474
-1.40606e-05
0.000277263
-1.39048e-05
0.000280019
-1.37422e-05
0.000282742
-1.35728e-05
0.00028543
-1.33965e-05
0.000288081
-1.32131e-05
0.000290694
-1.30226e-05
0.000293268
-1.28249e-05
0.000295801
-1.26199e-05
0.000298291
-1.24075e-05
0.000300737
-1.21878e-05
0.000303138
-1.19606e-05
0.000305493
-1.17259e-05
0.000307798
-1.14837e-05
0.000310054
-1.12341e-05
0.000312258
-1.09769e-05
0.00031441
-1.07122e-05
0.000316507
-1.044e-05
0.000318548
-1.01604e-05
0.000320531
-9.87344e-06
0.000322456
-9.57914e-06
0.00032432
-9.2776e-06
0.000326122
-8.96892e-06
0.000327861
-8.65319e-06
0.000329535
-8.33054e-06
0.000331143
-8.00111e-06
0.000332684
-7.66505e-06
0.000334156
-7.32253e-06
0.000335558
-6.97372e-06
0.000336889
-6.61882e-06
0.000338147
-6.25804e-06
0.000339332
-5.89161e-06
0.000340442
-5.51975e-06
0.000341476
-5.14273e-06
0.000342434
-4.76081e-06
0.000343314
-4.37426e-06
0.000344115
-3.98337e-06
0.000344838
-3.58844e-06
0.00034548
-3.18979e-06
0.000346041
-2.78774e-06
0.000346521
-2.38261e-06
0.000346918
-1.97475e-06
0.000347234
-1.56451e-06
0.000347466
-1.15223e-06
0.000347615
-7.38284e-07
0.000347681
-3.23035e-07
0.000347663
9.31493e-08
0.000347561
5.09896e-07
0.000347376
9.26829e-07
0.000347106
1.34357e-06
0.000346753
1.75976e-06
0.000346317
2.175e-06
0.000345797
2.58894e-06
0.000345194
3.00119e-06
0.000344509
3.41141e-06
0.000343742
3.81922e-06
0.000342894
4.22428e-06
0.000341964
4.62624e-06
0.000340955
5.02477e-06
0.000339866
5.41953e-06
0.000338699
5.8102e-06
0.000337454
6.19649e-06
0.000336132
6.57809e-06
0.000334735
6.95472e-06
0.000333263
7.32611e-06
0.000331718
7.692e-06
0.000330101
8.05214e-06
0.000328412
8.40631e-06
0.000326653
8.75428e-06
0.000324826
9.09586e-06
0.000322932
9.43085e-06
0.000320972
9.75909e-06
0.000318948
1.00804e-05
0.00031686
1.03947e-05
0.000314711
1.07018e-05
0.000312502
1.10016e-05
0.000310234
1.1294e-05
0.000307909
1.1579e-05
0.000305529
1.18564e-05
0.000303095
1.21262e-05
0.000300608
1.23884e-05
0.00029807
1.2643e-05
0.000295483
1.28899e-05
0.000292848
1.31291e-05
0.000290167
1.33606e-05
0.000287441
1.35846e-05
0.000284671
1.38009e-05
0.000281861
1.40097e-05
0.000279009
1.4211e-05
0.00027612
1.44049e-05
0.000273193