/*--------------------------------*- C++ -*----------------------------------*\
| =========                 |                                                 |
| \\      /  F ield         | OpenFOAM: The Open Source CFD Toolbox           |
|  \\    /   O peration     | Version:  v2012                                 |
|   \\  /    A nd           | Website:  www.openfoam.com                      |
|    \\/     M anipulation  |                                                 |
\*---------------------------------------------------------------------------*/
FoamFile
{
    version     2.0;
    format      ascii;
    class       volVectorField;
    location    "19.6";
    object      Psi;
}
// * * * * * * * * * * * * * * * * * * * * * * * * * * * * * * * * * * * * * //

dimensions      [0 2 -1 0 0 0 0];


internalField   nonuniform List<vector> 
65536
(
(0 0 8.0022e-06)
(0 0 2.4007e-05)
(0 0 4.00126e-05)
(0 0 5.60198e-05)
(0 0 7.20291e-05)
(0 0 8.8041e-05)
(0 0 0.000104056)
(0 0 0.000120075)
(0 0 0.000136099)
(0 0 0.000152127)
(0 0 0.000168161)
(0 0 0.000184201)
(0 0 0.000200248)
(0 0 0.000216301)
(0 0 0.000232362)
(0 0 0.000248431)
(0 0 0.000264508)
(0 0 0.000280594)
(0 0 0.000296689)
(0 0 0.000312794)
(0 0 0.000328908)
(0 0 0.000345032)
(0 0 0.000361167)
(0 0 0.000377312)
(0 0 0.000393468)
(0 0 0.000409635)
(0 0 0.000425812)
(0 0 0.000442001)
(0 0 0.0004582)
(0 0 0.00047441)
(0 0 0.000490631)
(0 0 0.000506862)
(0 0 0.000523104)
(0 0 0.000539356)
(0 0 0.000555618)
(0 0 0.000571889)
(0 0 0.000588169)
(0 0 0.000604458)
(0 0 0.000620754)
(0 0 0.000637057)
(0 0 0.000653366)
(0 0 0.000669682)
(0 0 0.000686001)
(0 0 0.000702325)
(0 0 0.00071865)
(0 0 0.000734978)
(0 0 0.000751305)
(0 0 0.000767631)
(0 0 0.000783955)
(0 0 0.000800274)
(0 0 0.000816587)
(0 0 0.000832893)
(0 0 0.000849189)
(0 0 0.000865474)
(0 0 0.000881745)
(0 0 0.000898)
(0 0 0.000914237)
(0 0 0.000930454)
(0 0 0.000946647)
(0 0 0.000962814)
(0 0 0.000978953)
(0 0 0.00099506)
(0 0 0.00101113)
(0 0 0.00102717)
(0 0 0.00104316)
(0 0 0.00105911)
(0 0 0.00107501)
(0 0 0.00109085)
(0 0 0.00110665)
(0 0 0.00112238)
(0 0 0.00113804)
(0 0 0.00115364)
(0 0 0.00116916)
(0 0 0.00118461)
(0 0 0.00119997)
(0 0 0.00121524)
(0 0 0.00123042)
(0 0 0.00124551)
(0 0 0.00126048)
(0 0 0.00127535)
(0 0 0.00129011)
(0 0 0.00130474)
(0 0 0.00131925)
(0 0 0.00133362)
(0 0 0.00134785)
(0 0 0.00136194)
(0 0 0.00137588)
(0 0 0.00138965)
(0 0 0.00140326)
(0 0 0.0014167)
(0 0 0.00142996)
(0 0 0.00144304)
(0 0 0.00145592)
(0 0 0.0014686)
(0 0 0.00148107)
(0 0 0.00149333)
(0 0 0.00150536)
(0 0 0.00151717)
(0 0 0.00152873)
(0 0 0.00154006)
(0 0 0.00155113)
(0 0 0.00156194)
(0 0 0.00157248)
(0 0 0.00158276)
(0 0 0.00159275)
(0 0 0.00160245)
(0 0 0.00161185)
(0 0 0.00162095)
(0 0 0.00162974)
(0 0 0.00163822)
(0 0 0.00164637)
(0 0 0.00165419)
(0 0 0.00166167)
(0 0 0.00166881)
(0 0 0.0016756)
(0 0 0.00168204)
(0 0 0.00168811)
(0 0 0.00169382)
(0 0 0.00169916)
(0 0 0.00170411)
(0 0 0.00170869)
(0 0 0.00171288)
(0 0 0.00171668)
(0 0 0.00172009)
(0 0 0.0017231)
(0 0 0.00172571)
(0 0 0.00172791)
(0 0 0.00172971)
(0 0 0.0017311)
(0 0 0.00173207)
(0 0 0.00173264)
(0 0 0.00173279)
(0 0 0.00173253)
(0 0 0.00173186)
(0 0 0.00173077)
(0 0 0.00172926)
(0 0 0.00172734)
(0 0 0.00172501)
(0 0 0.00172227)
(0 0 0.00171912)
(0 0 0.00171556)
(0 0 0.00171159)
(0 0 0.00170723)
(0 0 0.00170246)
(0 0 0.0016973)
(0 0 0.00169175)
(0 0 0.00168581)
(0 0 0.00167949)
(0 0 0.00167279)
(0 0 0.00166572)
(0 0 0.00165828)
(0 0 0.00165047)
(0 0 0.00164231)
(0 0 0.0016338)
(0 0 0.00162494)
(0 0 0.00161575)
(0 0 0.00160622)
(0 0 0.00159637)
(0 0 0.0015862)
(0 0 0.00157572)
(0 0 0.00156494)
(0 0 0.00155386)
(0 0 0.00154249)
(0 0 0.00153084)
(0 0 0.00151891)
(0 0 0.00150672)
(0 0 0.00149427)
(0 0 0.00148156)
(0 0 0.00146861)
(0 0 0.00145543)
(0 0 0.00144202)
(0 0 0.00142838)
(0 0 0.00141453)
(0 0 0.00140048)
(0 0 0.00138622)
(0 0 0.00137178)
(0 0 0.00135715)
(0 0 0.00134234)
(0 0 0.00132736)
(0 0 0.00131222)
(0 0 0.00129693)
(0 0 0.00128148)
(0 0 0.00126589)
(0 0 0.00125017)
(0 0 0.00123431)
(0 0 0.00121833)
(0 0 0.00120224)
(0 0 0.00118603)
(0 0 0.00116972)
(0 0 0.0011533)
(0 0 0.00113679)
(0 0 0.0011202)
(0 0 0.00110351)
(0 0 0.00108675)
(0 0 0.00106992)
(0 0 0.00105301)
(0 0 0.00103604)
(0 0 0.00101902)
(0 0 0.00100193)
(0 0 0.000984792)
(0 0 0.000967606)
(0 0 0.000950376)
(0 0 0.000933105)
(0 0 0.000915797)
(0 0 0.000898455)
(0 0 0.000881082)
(0 0 0.000863682)
(0 0 0.000846257)
(0 0 0.000828809)
(0 0 0.000811343)
(0 0 0.000793859)
(0 0 0.000776361)
(0 0 0.000758851)
(0 0 0.00074133)
(0 0 0.000723801)
(0 0 0.000706265)
(0 0 0.000688725)
(0 0 0.000671181)
(0 0 0.000653636)
(0 0 0.00063609)
(0 0 0.000618545)
(0 0 0.000601002)
(0 0 0.000583462)
(0 0 0.000565926)
(0 0 0.000548395)
(0 0 0.00053087)
(0 0 0.000513351)
(0 0 0.000495839)
(0 0 0.000478335)
(0 0 0.000460838)
(0 0 0.00044335)
(0 0 0.00042587)
(0 0 0.0004084)
(0 0 0.000390938)
(0 0 0.000373484)
(0 0 0.00035604)
(0 0 0.000338605)
(0 0 0.000321179)
(0 0 0.000303762)
(0 0 0.000286353)
(0 0 0.000268952)
(0 0 0.00025156)
(0 0 0.000234175)
(0 0 0.000216797)
(0 0 0.000199427)
(0 0 0.000182062)
(0 0 0.000164704)
(0 0 0.000147352)
(0 0 0.000130004)
(0 0 0.000112661)
(0 0 9.53218e-05)
(0 0 7.79859e-05)
(0 0 6.06528e-05)
(0 0 4.33219e-05)
(0 0 2.59925e-05)
(0 0 8.66408e-06)
(0 0 2.40064e-05)
(0 0 7.20202e-05)
(0 0 0.000120037)
(0 0 0.000168058)
(0 0 0.000216085)
(0 0 0.00026412)
(0 0 0.000312166)
(0 0 0.000360222)
(0 0 0.000408292)
(0 0 0.000456377)
(0 0 0.000504478)
(0 0 0.000552598)
(0 0 0.000600737)
(0 0 0.000648897)
(0 0 0.000697079)
(0 0 0.000745285)
(0 0 0.000793517)
(0 0 0.000841775)
(0 0 0.00089006)
(0 0 0.000938373)
(0 0 0.000986716)
(0 0 0.00103509)
(0 0 0.00108349)
(0 0 0.00113193)
(0 0 0.0011804)
(0 0 0.0012289)
(0 0 0.00127743)
(0 0 0.00132599)
(0 0 0.00137459)
(0 0 0.00142322)
(0 0 0.00147188)
(0 0 0.00152058)
(0 0 0.00156931)
(0 0 0.00161806)
(0 0 0.00166685)
(0 0 0.00171566)
(0 0 0.0017645)
(0 0 0.00181337)
(0 0 0.00186226)
(0 0 0.00191117)
(0 0 0.0019601)
(0 0 0.00200904)
(0 0 0.002058)
(0 0 0.00210697)
(0 0 0.00215595)
(0 0 0.00220494)
(0 0 0.00225392)
(0 0 0.0023029)
(0 0 0.00235187)
(0 0 0.00240083)
(0 0 0.00244977)
(0 0 0.00249869)
(0 0 0.00254758)
(0 0 0.00259644)
(0 0 0.00264525)
(0 0 0.00269402)
(0 0 0.00274274)
(0 0 0.00279139)
(0 0 0.00283997)
(0 0 0.00288848)
(0 0 0.0029369)
(0 0 0.00298522)
(0 0 0.00303344)
(0 0 0.00308155)
(0 0 0.00312953)
(0 0 0.00317738)
(0 0 0.00322508)
(0 0 0.00327263)
(0 0 0.00332)
(0 0 0.0033672)
(0 0 0.0034142)
(0 0 0.003461)
(0 0 0.00350757)
(0 0 0.00355391)
(0 0 0.0036)
(0 0 0.00364583)
(0 0 0.00369138)
(0 0 0.00373663)
(0 0 0.00378157)
(0 0 0.00382618)
(0 0 0.00387045)
(0 0 0.00391435)
(0 0 0.00395788)
(0 0 0.004001)
(0 0 0.00404371)
(0 0 0.00408598)
(0 0 0.00412779)
(0 0 0.00416913)
(0 0 0.00420997)
(0 0 0.00425029)
(0 0 0.00429008)
(0 0 0.00432931)
(0 0 0.00436796)
(0 0 0.004406)
(0 0 0.00444343)
(0 0 0.0044802)
(0 0 0.00451632)
(0 0 0.00455174)
(0 0 0.00458645)
(0 0 0.00462043)
(0 0 0.00465365)
(0 0 0.00468609)
(0 0 0.00471773)
(0 0 0.00474856)
(0 0 0.00477853)
(0 0 0.00480764)
(0 0 0.00483586)
(0 0 0.00486317)
(0 0 0.00488955)
(0 0 0.00491498)
(0 0 0.00493944)
(0 0 0.00496291)
(0 0 0.00498537)
(0 0 0.00500679)
(0 0 0.00502717)
(0 0 0.00504648)
(0 0 0.00506471)
(0 0 0.00508184)
(0 0 0.00509785)
(0 0 0.00511273)
(0 0 0.00512646)
(0 0 0.00513904)
(0 0 0.00515045)
(0 0 0.00516067)
(0 0 0.0051697)
(0 0 0.00517753)
(0 0 0.00518414)
(0 0 0.00518954)
(0 0 0.0051937)
(0 0 0.00519664)
(0 0 0.00519834)
(0 0 0.0051988)
(0 0 0.00519802)
(0 0 0.00519599)
(0 0 0.00519272)
(0 0 0.0051882)
(0 0 0.00518244)
(0 0 0.00517545)
(0 0 0.00516722)
(0 0 0.00515776)
(0 0 0.00514708)
(0 0 0.00513519)
(0 0 0.00512209)
(0 0 0.00510779)
(0 0 0.00509231)
(0 0 0.00507565)
(0 0 0.00505783)
(0 0 0.00503885)
(0 0 0.00501875)
(0 0 0.00499752)
(0 0 0.00497519)
(0 0 0.00495178)
(0 0 0.00492729)
(0 0 0.00490175)
(0 0 0.00487517)
(0 0 0.00484758)
(0 0 0.004819)
(0 0 0.00478944)
(0 0 0.00475892)
(0 0 0.00472748)
(0 0 0.00469512)
(0 0 0.00466187)
(0 0 0.00462775)
(0 0 0.00459279)
(0 0 0.004557)
(0 0 0.00452042)
(0 0 0.00448305)
(0 0 0.00444493)
(0 0 0.00440608)
(0 0 0.00436652)
(0 0 0.00432627)
(0 0 0.00428536)
(0 0 0.00424381)
(0 0 0.00420163)
(0 0 0.00415886)
(0 0 0.00411552)
(0 0 0.00407162)
(0 0 0.00402719)
(0 0 0.00398225)
(0 0 0.00393683)
(0 0 0.00389093)
(0 0 0.00384459)
(0 0 0.00379781)
(0 0 0.00375063)
(0 0 0.00370306)
(0 0 0.00365512)
(0 0 0.00360682)
(0 0 0.00355819)
(0 0 0.00350925)
(0 0 0.00346)
(0 0 0.00341047)
(0 0 0.00336067)
(0 0 0.00331062)
(0 0 0.00326033)
(0 0 0.00320982)
(0 0 0.0031591)
(0 0 0.00310819)
(0 0 0.0030571)
(0 0 0.00300584)
(0 0 0.00295442)
(0 0 0.00290286)
(0 0 0.00285117)
(0 0 0.00279935)
(0 0 0.00274742)
(0 0 0.00269539)
(0 0 0.00264327)
(0 0 0.00259107)
(0 0 0.00253879)
(0 0 0.00248645)
(0 0 0.00243404)
(0 0 0.00238159)
(0 0 0.0023291)
(0 0 0.00227656)
(0 0 0.002224)
(0 0 0.00217141)
(0 0 0.0021188)
(0 0 0.00206618)
(0 0 0.00201354)
(0 0 0.00196091)
(0 0 0.00190827)
(0 0 0.00185563)
(0 0 0.001803)
(0 0 0.00175038)
(0 0 0.00169777)
(0 0 0.00164518)
(0 0 0.0015926)
(0 0 0.00154005)
(0 0 0.00148751)
(0 0 0.001435)
(0 0 0.00138251)
(0 0 0.00133004)
(0 0 0.0012776)
(0 0 0.00122519)
(0 0 0.0011728)
(0 0 0.00112044)
(0 0 0.00106811)
(0 0 0.00101581)
(0 0 0.000963528)
(0 0 0.000911276)
(0 0 0.00085905)
(0 0 0.000806848)
(0 0 0.000754671)
(0 0 0.000702517)
(0 0 0.000650384)
(0 0 0.000598273)
(0 0 0.000546181)
(0 0 0.000494107)
(0 0 0.00044205)
(0 0 0.000390007)
(0 0 0.000337979)
(0 0 0.000285962)
(0 0 0.000233955)
(0 0 0.000181956)
(0 0 0.000129964)
(0 0 7.79767e-05)
(0 0 2.59919e-05)
(0 0 4.00097e-05)
(0 0 0.000120031)
(0 0 0.000200056)
(0 0 0.000280089)
(0 0 0.000360133)
(0 0 0.00044019)
(0 0 0.000520263)
(0 0 0.000600356)
(0 0 0.00068047)
(0 0 0.00076061)
(0 0 0.000840777)
(0 0 0.000920974)
(0 0 0.0010012)
(0 0 0.00108147)
(0 0 0.00116177)
(0 0 0.00124211)
(0 0 0.0013225)
(0 0 0.00140293)
(0 0 0.0014834)
(0 0 0.00156392)
(0 0 0.00164449)
(0 0 0.00172511)
(0 0 0.00180579)
(0 0 0.00188651)
(0 0 0.00196729)
(0 0 0.00204812)
(0 0 0.00212901)
(0 0 0.00220995)
(0 0 0.00229095)
(0 0 0.002372)
(0 0 0.00245311)
(0 0 0.00253427)
(0 0 0.00261548)
(0 0 0.00269674)
(0 0 0.00277805)
(0 0 0.00285941)
(0 0 0.00294081)
(0 0 0.00302225)
(0 0 0.00310374)
(0 0 0.00318526)
(0 0 0.00326681)
(0 0 0.00334839)
(0 0 0.00342999)
(0 0 0.00351162)
(0 0 0.00359325)
(0 0 0.00367489)
(0 0 0.00375654)
(0 0 0.00383818)
(0 0 0.0039198)
(0 0 0.00400141)
(0 0 0.00408298)
(0 0 0.00416452)
(0 0 0.00424601)
(0 0 0.00432744)
(0 0 0.00440881)
(0 0 0.0044901)
(0 0 0.0045713)
(0 0 0.00465239)
(0 0 0.00473337)
(0 0 0.00481422)
(0 0 0.00489493)
(0 0 0.00497549)
(0 0 0.00505586)
(0 0 0.00513605)
(0 0 0.00521603)
(0 0 0.00529579)
(0 0 0.00537531)
(0 0 0.00545457)
(0 0 0.00553354)
(0 0 0.00561221)
(0 0 0.00569057)
(0 0 0.00576857)
(0 0 0.00584621)
(0 0 0.00592346)
(0 0 0.0060003)
(0 0 0.00607669)
(0 0 0.00615262)
(0 0 0.00622806)
(0 0 0.00630298)
(0 0 0.00637735)
(0 0 0.00645115)
(0 0 0.00652435)
(0 0 0.00659691)
(0 0 0.0066688)
(0 0 0.00674)
(0 0 0.00681047)
(0 0 0.00688018)
(0 0 0.0069491)
(0 0 0.00701719)
(0 0 0.00708442)
(0 0 0.00715076)
(0 0 0.00721616)
(0 0 0.0072806)
(0 0 0.00734403)
(0 0 0.00740643)
(0 0 0.00746775)
(0 0 0.00752796)
(0 0 0.00758702)
(0 0 0.0076449)
(0 0 0.00770155)
(0 0 0.00775695)
(0 0 0.00781104)
(0 0 0.00786381)
(0 0 0.0079152)
(0 0 0.00796518)
(0 0 0.00801372)
(0 0 0.00806078)
(0 0 0.00810632)
(0 0 0.00815032)
(0 0 0.00819272)
(0 0 0.00823351)
(0 0 0.00827264)
(0 0 0.00831009)
(0 0 0.00834582)
(0 0 0.0083798)
(0 0 0.00841201)
(0 0 0.0084424)
(0 0 0.00847097)
(0 0 0.00849767)
(0 0 0.00852249)
(0 0 0.0085454)
(0 0 0.00856637)
(0 0 0.00858539)
(0 0 0.00860245)
(0 0 0.00861751)
(0 0 0.00863056)
(0 0 0.00864159)
(0 0 0.00865059)
(0 0 0.00865754)
(0 0 0.00866244)
(0 0 0.00866528)
(0 0 0.00866605)
(0 0 0.00866474)
(0 0 0.00866136)
(0 0 0.00865591)
(0 0 0.00864838)
(0 0 0.00863878)
(0 0 0.00862712)
(0 0 0.0086134)
(0 0 0.00859763)
(0 0 0.00857982)
(0 0 0.00855999)
(0 0 0.00853814)
(0 0 0.0085143)
(0 0 0.00848848)
(0 0 0.0084607)
(0 0 0.00843099)
(0 0 0.00839935)
(0 0 0.00836583)
(0 0 0.00833043)
(0 0 0.0082932)
(0 0 0.00825415)
(0 0 0.00821332)
(0 0 0.00817073)
(0 0 0.00812641)
(0 0 0.00808041)
(0 0 0.00803275)
(0 0 0.00798346)
(0 0 0.00793258)
(0 0 0.00788014)
(0 0 0.00782618)
(0 0 0.00777075)
(0 0 0.00771386)
(0 0 0.00765556)
(0 0 0.0075959)
(0 0 0.00753489)
(0 0 0.00747259)
(0 0 0.00740904)
(0 0 0.00734426)
(0 0 0.0072783)
(0 0 0.00721119)
(0 0 0.00714298)
(0 0 0.0070737)
(0 0 0.00700339)
(0 0 0.00693208)
(0 0 0.00685981)
(0 0 0.00678663)
(0 0 0.00671256)
(0 0 0.00663763)
(0 0 0.0065619)
(0 0 0.00648538)
(0 0 0.00640812)
(0 0 0.00633014)
(0 0 0.00625148)
(0 0 0.00617218)
(0 0 0.00609225)
(0 0 0.00601174)
(0 0 0.00593067)
(0 0 0.00584908)
(0 0 0.00576698)
(0 0 0.00568441)
(0 0 0.0056014)
(0 0 0.00551796)
(0 0 0.00543413)
(0 0 0.00534993)
(0 0 0.00526539)
(0 0 0.00518052)
(0 0 0.00509535)
(0 0 0.0050099)
(0 0 0.0049242)
(0 0 0.00483825)
(0 0 0.00475208)
(0 0 0.00466571)
(0 0 0.00457915)
(0 0 0.00449242)
(0 0 0.00440555)
(0 0 0.00431853)
(0 0 0.00423139)
(0 0 0.00414414)
(0 0 0.0040568)
(0 0 0.00396937)
(0 0 0.00388187)
(0 0 0.0037943)
(0 0 0.00370669)
(0 0 0.00361904)
(0 0 0.00353135)
(0 0 0.00344364)
(0 0 0.00335591)
(0 0 0.00326818)
(0 0 0.00318044)
(0 0 0.00309271)
(0 0 0.00300499)
(0 0 0.00291729)
(0 0 0.0028296)
(0 0 0.00274195)
(0 0 0.00265432)
(0 0 0.00256672)
(0 0 0.00247916)
(0 0 0.00239163)
(0 0 0.00230415)
(0 0 0.00221671)
(0 0 0.00212931)
(0 0 0.00204195)
(0 0 0.00195464)
(0 0 0.00186738)
(0 0 0.00178016)
(0 0 0.00169298)
(0 0 0.00160585)
(0 0 0.00151876)
(0 0 0.00143172)
(0 0 0.00134472)
(0 0 0.00125776)
(0 0 0.00117084)
(0 0 0.00108395)
(0 0 0.0009971)
(0 0 0.000910281)
(0 0 0.000823493)
(0 0 0.000736733)
(0 0 0.000649997)
(0 0 0.000563285)
(0 0 0.000476592)
(0 0 0.000389916)
(0 0 0.000303253)
(0 0 0.000216602)
(0 0 0.000129958)
(0 0 4.33188e-05)
(0 0 5.60115e-05)
(0 0 0.000168037)
(0 0 0.000280068)
(0 0 0.00039211)
(0 0 0.000504167)
(0 0 0.000616243)
(0 0 0.000728341)
(0 0 0.000840467)
(0 0 0.000952624)
(0 0 0.00106482)
(0 0 0.00117705)
(0 0 0.00128932)
(0 0 0.00140164)
(0 0 0.001514)
(0 0 0.00162643)
(0 0 0.0017389)
(0 0 0.00185144)
(0 0 0.00196403)
(0 0 0.0020767)
(0 0 0.00218942)
(0 0 0.00230222)
(0 0 0.00241509)
(0 0 0.00252803)
(0 0 0.00264104)
(0 0 0.00275413)
(0 0 0.0028673)
(0 0 0.00298054)
(0 0 0.00309386)
(0 0 0.00320725)
(0 0 0.00332073)
(0 0 0.00343427)
(0 0 0.0035479)
(0 0 0.0036616)
(0 0 0.00377536)
(0 0 0.0038892)
(0 0 0.00400311)
(0 0 0.00411707)
(0 0 0.0042311)
(0 0 0.00434518)
(0 0 0.00445932)
(0 0 0.0045735)
(0 0 0.00468771)
(0 0 0.00480197)
(0 0 0.00491624)
(0 0 0.00503054)
(0 0 0.00514485)
(0 0 0.00525916)
(0 0 0.00537346)
(0 0 0.00548775)
(0 0 0.00560201)
(0 0 0.00571623)
(0 0 0.00583039)
(0 0 0.00594449)
(0 0 0.00605852)
(0 0 0.00617244)
(0 0 0.00628626)
(0 0 0.00639996)
(0 0 0.00651351)
(0 0 0.0066269)
(0 0 0.00674011)
(0 0 0.00685313)
(0 0 0.00696592)
(0 0 0.00707847)
(0 0 0.00719076)
(0 0 0.00730276)
(0 0 0.00741445)
(0 0 0.0075258)
(0 0 0.00763678)
(0 0 0.00774738)
(0 0 0.00785755)
(0 0 0.00796727)
(0 0 0.00807651)
(0 0 0.00818524)
(0 0 0.00829343)
(0 0 0.00840103)
(0 0 0.00850802)
(0 0 0.00861436)
(0 0 0.00872001)
(0 0 0.00882494)
(0 0 0.0089291)
(0 0 0.00903246)
(0 0 0.00913497)
(0 0 0.0092366)
(0 0 0.0093373)
(0 0 0.00943702)
(0 0 0.00953572)
(0 0 0.00963337)
(0 0 0.0097299)
(0 0 0.00982527)
(0 0 0.00991944)
(0 0 0.0100124)
(0 0 0.010104)
(0 0 0.0101942)
(0 0 0.0102831)
(0 0 0.0103705)
(0 0 0.0104564)
(0 0 0.0105408)
(0 0 0.0106235)
(0 0 0.0107046)
(0 0 0.0107839)
(0 0 0.0108615)
(0 0 0.0109373)
(0 0 0.0110112)
(0 0 0.0110832)
(0 0 0.0111533)
(0 0 0.0112213)
(0 0 0.0112872)
(0 0 0.011351)
(0 0 0.0114127)
(0 0 0.0114721)
(0 0 0.0115292)
(0 0 0.0115841)
(0 0 0.0116365)
(0 0 0.0116866)
(0 0 0.0117342)
(0 0 0.0117793)
(0 0 0.0118219)
(0 0 0.011862)
(0 0 0.0118994)
(0 0 0.0119342)
(0 0 0.0119663)
(0 0 0.0119957)
(0 0 0.0120223)
(0 0 0.0120462)
(0 0 0.0120673)
(0 0 0.0120856)
(0 0 0.0121011)
(0 0 0.0121137)
(0 0 0.0121234)
(0 0 0.0121303)
(0 0 0.0121343)
(0 0 0.0121354)
(0 0 0.0121335)
(0 0 0.0121288)
(0 0 0.0121212)
(0 0 0.0121106)
(0 0 0.0120972)
(0 0 0.0120808)
(0 0 0.0120616)
(0 0 0.0120395)
(0 0 0.0120146)
(0 0 0.0119868)
(0 0 0.0119562)
(0 0 0.0119228)
(0 0 0.0118866)
(0 0 0.0118477)
(0 0 0.0118061)
(0 0 0.0117617)
(0 0 0.0117148)
(0 0 0.0116652)
(0 0 0.011613)
(0 0 0.0115583)
(0 0 0.0115011)
(0 0 0.0114414)
(0 0 0.0113793)
(0 0 0.0113149)
(0 0 0.0112481)
(0 0 0.0111791)
(0 0 0.0111078)
(0 0 0.0110343)
(0 0 0.0109587)
(0 0 0.0108811)
(0 0 0.0108014)
(0 0 0.0107197)
(0 0 0.0106361)
(0 0 0.0105507)
(0 0 0.0104634)
(0 0 0.0103744)
(0 0 0.0102836)
(0 0 0.0101912)
(0 0 0.0100972)
(0 0 0.0100017)
(0 0 0.00990462)
(0 0 0.00980613)
(0 0 0.00970625)
(0 0 0.00960503)
(0 0 0.00950252)
(0 0 0.00939877)
(0 0 0.00929383)
(0 0 0.00918775)
(0 0 0.00908058)
(0 0 0.00897236)
(0 0 0.00886315)
(0 0 0.00875299)
(0 0 0.00864191)
(0 0 0.00852998)
(0 0 0.00841722)
(0 0 0.00830368)
(0 0 0.00818941)
(0 0 0.00807443)
(0 0 0.0079588)
(0 0 0.00784254)
(0 0 0.0077257)
(0 0 0.0076083)
(0 0 0.00749039)
(0 0 0.007372)
(0 0 0.00725315)
(0 0 0.00713389)
(0 0 0.00701423)
(0 0 0.00689421)
(0 0 0.00677386)
(0 0 0.0066532)
(0 0 0.00653225)
(0 0 0.00641105)
(0 0 0.00628961)
(0 0 0.00616796)
(0 0 0.00604611)
(0 0 0.0059241)
(0 0 0.00580193)
(0 0 0.00567963)
(0 0 0.00555722)
(0 0 0.0054347)
(0 0 0.0053121)
(0 0 0.00518942)
(0 0 0.00506669)
(0 0 0.00494392)
(0 0 0.00482112)
(0 0 0.00469829)
(0 0 0.00457545)
(0 0 0.00445261)
(0 0 0.00432978)
(0 0 0.00420697)
(0 0 0.00408417)
(0 0 0.00396141)
(0 0 0.00383868)
(0 0 0.003716)
(0 0 0.00359336)
(0 0 0.00347077)
(0 0 0.00334823)
(0 0 0.00322575)
(0 0 0.00310333)
(0 0 0.00298097)
(0 0 0.00285867)
(0 0 0.00273643)
(0 0 0.00261426)
(0 0 0.00249216)
(0 0 0.00237011)
(0 0 0.00224813)
(0 0 0.00212621)
(0 0 0.00200435)
(0 0 0.00188255)
(0 0 0.00176081)
(0 0 0.00163912)
(0 0 0.00151748)
(0 0 0.00139589)
(0 0 0.00127435)
(0 0 0.00115285)
(0 0 0.00103139)
(0 0 0.000909965)
(0 0 0.000788571)
(0 0 0.000667205)
(0 0 0.000545862)
(0 0 0.000424539)
(0 0 0.000303232)
(0 0 0.000181935)
(0 0 6.06441e-05)
(0 0 7.20111e-05)
(0 0 0.000216036)
(0 0 0.000360069)
(0 0 0.000504116)
(0 0 0.000648182)
(0 0 0.000792272)
(0 0 0.000936392)
(0 0 0.00108055)
(0 0 0.00122474)
(0 0 0.00136898)
(0 0 0.00151327)
(0 0 0.00165762)
(0 0 0.00180202)
(0 0 0.00194649)
(0 0 0.00209102)
(0 0 0.00223563)
(0 0 0.00238031)
(0 0 0.00252508)
(0 0 0.00266992)
(0 0 0.00281485)
(0 0 0.00295987)
(0 0 0.00310499)
(0 0 0.00325019)
(0 0 0.00339549)
(0 0 0.00354089)
(0 0 0.00368639)
(0 0 0.00383199)
(0 0 0.00397768)
(0 0 0.00412348)
(0 0 0.00426937)
(0 0 0.00441537)
(0 0 0.00456146)
(0 0 0.00470764)
(0 0 0.00485392)
(0 0 0.00500029)
(0 0 0.00514674)
(0 0 0.00529328)
(0 0 0.00543989)
(0 0 0.00558658)
(0 0 0.00573333)
(0 0 0.00588014)
(0 0 0.006027)
(0 0 0.00617391)
(0 0 0.00632085)
(0 0 0.00646782)
(0 0 0.0066148)
(0 0 0.00676179)
(0 0 0.00690877)
(0 0 0.00705573)
(0 0 0.00720265)
(0 0 0.00734952)
(0 0 0.00749633)
(0 0 0.00764305)
(0 0 0.00778968)
(0 0 0.00793618)
(0 0 0.00808255)
(0 0 0.00822876)
(0 0 0.00837479)
(0 0 0.00852061)
(0 0 0.0086662)
(0 0 0.00881154)
(0 0 0.0089566)
(0 0 0.00910134)
(0 0 0.00924576)
(0 0 0.0093898)
(0 0 0.00953344)
(0 0 0.00967665)
(0 0 0.00981939)
(0 0 0.00996163)
(0 0 0.0101033)
(0 0 0.0102445)
(0 0 0.010385)
(0 0 0.0105248)
(0 0 0.010664)
(0 0 0.0108024)
(0 0 0.01094)
(0 0 0.0110768)
(0 0 0.0112127)
(0 0 0.0113477)
(0 0 0.0114816)
(0 0 0.0116146)
(0 0 0.0117465)
(0 0 0.0118772)
(0 0 0.0120068)
(0 0 0.0121351)
(0 0 0.012262)
(0 0 0.0123877)
(0 0 0.0125118)
(0 0 0.0126346)
(0 0 0.0127557)
(0 0 0.0128753)
(0 0 0.0129931)
(0 0 0.0131093)
(0 0 0.0132236)
(0 0 0.0133361)
(0 0 0.0134466)
(0 0 0.0135551)
(0 0 0.0136616)
(0 0 0.0137659)
(0 0 0.0138681)
(0 0 0.0139679)
(0 0 0.0140655)
(0 0 0.0141606)
(0 0 0.0142533)
(0 0 0.0143434)
(0 0 0.0144309)
(0 0 0.0145158)
(0 0 0.0145979)
(0 0 0.0146772)
(0 0 0.0147537)
(0 0 0.0148273)
(0 0 0.0148978)
(0 0 0.0149654)
(0 0 0.0150298)
(0 0 0.0150911)
(0 0 0.0151492)
(0 0 0.015204)
(0 0 0.0152556)
(0 0 0.0153037)
(0 0 0.0153485)
(0 0 0.0153898)
(0 0 0.0154277)
(0 0 0.015462)
(0 0 0.0154928)
(0 0 0.0155199)
(0 0 0.0155435)
(0 0 0.0155634)
(0 0 0.0155797)
(0 0 0.0155922)
(0 0 0.0156011)
(0 0 0.0156062)
(0 0 0.0156076)
(0 0 0.0156052)
(0 0 0.0155992)
(0 0 0.0155893)
(0 0 0.0155758)
(0 0 0.0155585)
(0 0 0.0155375)
(0 0 0.0155127)
(0 0 0.0154843)
(0 0 0.0154522)
(0 0 0.0154164)
(0 0 0.015377)
(0 0 0.0153341)
(0 0 0.0152875)
(0 0 0.0152374)
(0 0 0.0151838)
(0 0 0.0151268)
(0 0 0.0150663)
(0 0 0.0150025)
(0 0 0.0149354)
(0 0 0.014865)
(0 0 0.0147913)
(0 0 0.0147145)
(0 0 0.0146347)
(0 0 0.0145517)
(0 0 0.0144658)
(0 0 0.0143769)
(0 0 0.0142852)
(0 0 0.0141906)
(0 0 0.0140934)
(0 0 0.0139934)
(0 0 0.0138909)
(0 0 0.0137858)
(0 0 0.0136782)
(0 0 0.0135683)
(0 0 0.013456)
(0 0 0.0133414)
(0 0 0.0132246)
(0 0 0.0131057)
(0 0 0.0129848)
(0 0 0.0128619)
(0 0 0.012737)
(0 0 0.0126103)
(0 0 0.0124818)
(0 0 0.0123515)
(0 0 0.0122196)
(0 0 0.0120862)
(0 0 0.0119512)
(0 0 0.0118147)
(0 0 0.0116768)
(0 0 0.0115376)
(0 0 0.0113971)
(0 0 0.0112554)
(0 0 0.0111125)
(0 0 0.0109685)
(0 0 0.0108235)
(0 0 0.0106774)
(0 0 0.0105304)
(0 0 0.0103825)
(0 0 0.0102338)
(0 0 0.0100843)
(0 0 0.00993399)
(0 0 0.00978299)
(0 0 0.00963134)
(0 0 0.00947906)
(0 0 0.00932621)
(0 0 0.00917281)
(0 0 0.00901892)
(0 0 0.00886456)
(0 0 0.00870977)
(0 0 0.00855459)
(0 0 0.00839905)
(0 0 0.00824318)
(0 0 0.00808701)
(0 0 0.00793056)
(0 0 0.00777387)
(0 0 0.00761696)
(0 0 0.00745986)
(0 0 0.00730259)
(0 0 0.00714517)
(0 0 0.00698762)
(0 0 0.00682996)
(0 0 0.00667222)
(0 0 0.0065144)
(0 0 0.00635653)
(0 0 0.00619861)
(0 0 0.00604068)
(0 0 0.00588273)
(0 0 0.00572478)
(0 0 0.00556684)
(0 0 0.00540892)
(0 0 0.00525103)
(0 0 0.00509318)
(0 0 0.00493538)
(0 0 0.00477763)
(0 0 0.00461995)
(0 0 0.00446233)
(0 0 0.00430477)
(0 0 0.00414729)
(0 0 0.00398989)
(0 0 0.00383257)
(0 0 0.00367532)
(0 0 0.00351816)
(0 0 0.00336109)
(0 0 0.00320409)
(0 0 0.00304718)
(0 0 0.00289035)
(0 0 0.0027336)
(0 0 0.00257692)
(0 0 0.00242033)
(0 0 0.0022638)
(0 0 0.00210735)
(0 0 0.00195097)
(0 0 0.00179464)
(0 0 0.00163838)
(0 0 0.00148217)
(0 0 0.00132601)
(0 0 0.0011699)
(0 0 0.00101383)
(0 0 0.000857795)
(0 0 0.00070179)
(0 0 0.00054581)
(0 0 0.000389851)
(0 0 0.000233905)
(0 0 7.79673e-05)
(0 0 8.8008e-05)
(0 0 0.000264027)
(0 0 0.000440057)
(0 0 0.000616103)
(0 0 0.000792173)
(0 0 0.000968272)
(0 0 0.00114441)
(0 0 0.00132059)
(0 0 0.00149681)
(0 0 0.0016731)
(0 0 0.00184944)
(0 0 0.00202585)
(0 0 0.00220234)
(0 0 0.0023789)
(0 0 0.00255555)
(0 0 0.00273228)
(0 0 0.00290911)
(0 0 0.00308603)
(0 0 0.00326306)
(0 0 0.00344019)
(0 0 0.00361744)
(0 0 0.00379479)
(0 0 0.00397226)
(0 0 0.00414985)
(0 0 0.00432756)
(0 0 0.00450538)
(0 0 0.00468334)
(0 0 0.00486141)
(0 0 0.0050396)
(0 0 0.00521792)
(0 0 0.00539636)
(0 0 0.00557492)
(0 0 0.00575359)
(0 0 0.00593238)
(0 0 0.00611129)
(0 0 0.00629029)
(0 0 0.0064694)
(0 0 0.00664861)
(0 0 0.0068279)
(0 0 0.00700728)
(0 0 0.00718673)
(0 0 0.00736625)
(0 0 0.00754582)
(0 0 0.00772543)
(0 0 0.00790508)
(0 0 0.00808475)
(0 0 0.00826443)
(0 0 0.00844409)
(0 0 0.00862374)
(0 0 0.00880334)
(0 0 0.00898288)
(0 0 0.00916235)
(0 0 0.00934171)
(0 0 0.00952096)
(0 0 0.00970006)
(0 0 0.009879)
(0 0 0.0100577)
(0 0 0.0102363)
(0 0 0.0104145)
(0 0 0.0105925)
(0 0 0.0107702)
(0 0 0.0109476)
(0 0 0.0111246)
(0 0 0.0113011)
(0 0 0.0114772)
(0 0 0.0116529)
(0 0 0.011828)
(0 0 0.0120025)
(0 0 0.0121764)
(0 0 0.0123497)
(0 0 0.0125223)
(0 0 0.0126941)
(0 0 0.0128651)
(0 0 0.0130353)
(0 0 0.0132045)
(0 0 0.0133728)
(0 0 0.0135401)
(0 0 0.0137063)
(0 0 0.0138714)
(0 0 0.0140352)
(0 0 0.0141978)
(0 0 0.0143591)
(0 0 0.014519)
(0 0 0.0146775)
(0 0 0.0148344)
(0 0 0.0149897)
(0 0 0.0151434)
(0 0 0.0152953)
(0 0 0.0154454)
(0 0 0.0155936)
(0 0 0.0157398)
(0 0 0.015884)
(0 0 0.0160261)
(0 0 0.016166)
(0 0 0.0163036)
(0 0 0.0164388)
(0 0 0.0165716)
(0 0 0.0167019)
(0 0 0.0168295)
(0 0 0.0169545)
(0 0 0.0170767)
(0 0 0.017196)
(0 0 0.0173124)
(0 0 0.0174258)
(0 0 0.0175361)
(0 0 0.0176432)
(0 0 0.0177471)
(0 0 0.0178476)
(0 0 0.0179446)
(0 0 0.0180382)
(0 0 0.0181283)
(0 0 0.0182146)
(0 0 0.0182973)
(0 0 0.0183762)
(0 0 0.0184512)
(0 0 0.0185223)
(0 0 0.0185894)
(0 0 0.0186525)
(0 0 0.0187115)
(0 0 0.0187663)
(0 0 0.0188169)
(0 0 0.0188632)
(0 0 0.0189052)
(0 0 0.0189429)
(0 0 0.0189762)
(0 0 0.019005)
(0 0 0.0190294)
(0 0 0.0190493)
(0 0 0.0190647)
(0 0 0.0190755)
(0 0 0.0190818)
(0 0 0.0190835)
(0 0 0.0190807)
(0 0 0.0190733)
(0 0 0.0190612)
(0 0 0.0190447)
(0 0 0.0190235)
(0 0 0.0189978)
(0 0 0.0189675)
(0 0 0.0189327)
(0 0 0.0188934)
(0 0 0.0188497)
(0 0 0.0188015)
(0 0 0.0187489)
(0 0 0.0186919)
(0 0 0.0186306)
(0 0 0.018565)
(0 0 0.0184952)
(0 0 0.0184213)
(0 0 0.0183432)
(0 0 0.018261)
(0 0 0.0181748)
(0 0 0.0180847)
(0 0 0.0179908)
(0 0 0.017893)
(0 0 0.0177915)
(0 0 0.0176863)
(0 0 0.0175776)
(0 0 0.0174654)
(0 0 0.0173497)
(0 0 0.0172307)
(0 0 0.0171084)
(0 0 0.0169829)
(0 0 0.0168543)
(0 0 0.0167227)
(0 0 0.0165882)
(0 0 0.0164508)
(0 0 0.0163106)
(0 0 0.0161678)
(0 0 0.0160223)
(0 0 0.0158744)
(0 0 0.015724)
(0 0 0.0155712)
(0 0 0.0154162)
(0 0 0.015259)
(0 0 0.0150997)
(0 0 0.0149384)
(0 0 0.0147751)
(0 0 0.01461)
(0 0 0.014443)
(0 0 0.0142744)
(0 0 0.0141041)
(0 0 0.0139323)
(0 0 0.013759)
(0 0 0.0135842)
(0 0 0.0134081)
(0 0 0.0132307)
(0 0 0.0130521)
(0 0 0.0128724)
(0 0 0.0126915)
(0 0 0.0125096)
(0 0 0.0123268)
(0 0 0.012143)
(0 0 0.0119583)
(0 0 0.0117729)
(0 0 0.0115867)
(0 0 0.0113998)
(0 0 0.0112122)
(0 0 0.0110241)
(0 0 0.0108353)
(0 0 0.0106461)
(0 0 0.0104564)
(0 0 0.0102662)
(0 0 0.0100756)
(0 0 0.00988468)
(0 0 0.00969341)
(0 0 0.00950185)
(0 0 0.00931002)
(0 0 0.00911796)
(0 0 0.00892569)
(0 0 0.00873324)
(0 0 0.00854064)
(0 0 0.00834791)
(0 0 0.00815508)
(0 0 0.00796216)
(0 0 0.00776917)
(0 0 0.00757614)
(0 0 0.00738308)
(0 0 0.00719)
(0 0 0.00699693)
(0 0 0.00680387)
(0 0 0.00661084)
(0 0 0.00641785)
(0 0 0.00622491)
(0 0 0.00603203)
(0 0 0.00583921)
(0 0 0.00564647)
(0 0 0.00545381)
(0 0 0.00526124)
(0 0 0.00506876)
(0 0 0.00487637)
(0 0 0.00468409)
(0 0 0.0044919)
(0 0 0.00429981)
(0 0 0.00410783)
(0 0 0.00391594)
(0 0 0.00372416)
(0 0 0.00353248)
(0 0 0.0033409)
(0 0 0.00314942)
(0 0 0.00295803)
(0 0 0.00276673)
(0 0 0.00257552)
(0 0 0.00238438)
(0 0 0.00219333)
(0 0 0.00200235)
(0 0 0.00181144)
(0 0 0.00162059)
(0 0 0.0014298)
(0 0 0.00123905)
(0 0 0.00104835)
(0 0 0.000857692)
(0 0 0.000667062)
(0 0 0.000476455)
(0 0 0.000285866)
(0 0 9.52876e-05)
(0 0 0.000104002)
(0 0 0.000312009)
(0 0 0.000520028)
(0 0 0.000728066)
(0 0 0.000936133)
(0 0 0.00114424)
(0 0 0.00135238)
(0 0 0.00156058)
(0 0 0.00176883)
(0 0 0.00197715)
(0 0 0.00218555)
(0 0 0.00239402)
(0 0 0.00260258)
(0 0 0.00281123)
(0 0 0.00301998)
(0 0 0.00322884)
(0 0 0.00343781)
(0 0 0.00364689)
(0 0 0.0038561)
(0 0 0.00406543)
(0 0 0.00427489)
(0 0 0.00448448)
(0 0 0.00469421)
(0 0 0.00490408)
(0 0 0.0051141)
(0 0 0.00532426)
(0 0 0.00553456)
(0 0 0.00574501)
(0 0 0.00595561)
(0 0 0.00616635)
(0 0 0.00637723)
(0 0 0.00658826)
(0 0 0.00679943)
(0 0 0.00701074)
(0 0 0.00722218)
(0 0 0.00743374)
(0 0 0.00764543)
(0 0 0.00785723)
(0 0 0.00806914)
(0 0 0.00828115)
(0 0 0.00849325)
(0 0 0.00870543)
(0 0 0.00891768)
(0 0 0.00912998)
(0 0 0.00934232)
(0 0 0.00955469)
(0 0 0.00976707)
(0 0 0.00997944)
(0 0 0.0101918)
(0 0 0.0104041)
(0 0 0.0106163)
(0 0 0.0108285)
(0 0 0.0110405)
(0 0 0.0112524)
(0 0 0.0114641)
(0 0 0.0116756)
(0 0 0.0118869)
(0 0 0.012098)
(0 0 0.0123087)
(0 0 0.0125192)
(0 0 0.0127293)
(0 0 0.0129389)
(0 0 0.0131482)
(0 0 0.0133569)
(0 0 0.0135652)
(0 0 0.0137728)
(0 0 0.0139798)
(0 0 0.0141862)
(0 0 0.0143919)
(0 0 0.0145968)
(0 0 0.0148008)
(0 0 0.015004)
(0 0 0.0152062)
(0 0 0.0154074)
(0 0 0.0156076)
(0 0 0.0158066)
(0 0 0.0160045)
(0 0 0.016201)
(0 0 0.0163962)
(0 0 0.0165901)
(0 0 0.0167824)
(0 0 0.0169732)
(0 0 0.0171623)
(0 0 0.0173497)
(0 0 0.0175353)
(0 0 0.0177191)
(0 0 0.0179008)
(0 0 0.0180805)
(0 0 0.0182581)
(0 0 0.0184334)
(0 0 0.0186065)
(0 0 0.0187771)
(0 0 0.0189452)
(0 0 0.0191107)
(0 0 0.0192735)
(0 0 0.0194335)
(0 0 0.0195906)
(0 0 0.0197447)
(0 0 0.0198958)
(0 0 0.0200437)
(0 0 0.0201883)
(0 0 0.0203295)
(0 0 0.0204673)
(0 0 0.0206015)
(0 0 0.020732)
(0 0 0.0208588)
(0 0 0.0209817)
(0 0 0.0211006)
(0 0 0.0212156)
(0 0 0.0213263)
(0 0 0.0214329)
(0 0 0.0215352)
(0 0 0.021633)
(0 0 0.0217264)
(0 0 0.0218152)
(0 0 0.0218994)
(0 0 0.0219789)
(0 0 0.0220536)
(0 0 0.0221234)
(0 0 0.0221883)
(0 0 0.0222482)
(0 0 0.022303)
(0 0 0.0223528)
(0 0 0.0223974)
(0 0 0.0224368)
(0 0 0.022471)
(0 0 0.0224999)
(0 0 0.0225235)
(0 0 0.0225417)
(0 0 0.0225546)
(0 0 0.022562)
(0 0 0.0225641)
(0 0 0.0225607)
(0 0 0.0225519)
(0 0 0.0225377)
(0 0 0.0225181)
(0 0 0.0224931)
(0 0 0.0224626)
(0 0 0.0224268)
(0 0 0.0223857)
(0 0 0.0223392)
(0 0 0.0222874)
(0 0 0.0222303)
(0 0 0.0221681)
(0 0 0.0221006)
(0 0 0.0220281)
(0 0 0.0219505)
(0 0 0.0218679)
(0 0 0.0217803)
(0 0 0.0216879)
(0 0 0.0215906)
(0 0 0.0214886)
(0 0 0.021382)
(0 0 0.0212708)
(0 0 0.0211551)
(0 0 0.021035)
(0 0 0.0209105)
(0 0 0.0207818)
(0 0 0.020649)
(0 0 0.0205121)
(0 0 0.0203712)
(0 0 0.0202265)
(0 0 0.020078)
(0 0 0.0199259)
(0 0 0.0197701)
(0 0 0.0196109)
(0 0 0.0194484)
(0 0 0.0192825)
(0 0 0.0191135)
(0 0 0.0189414)
(0 0 0.0187664)
(0 0 0.0185884)
(0 0 0.0184077)
(0 0 0.0182243)
(0 0 0.0180383)
(0 0 0.0178499)
(0 0 0.017659)
(0 0 0.0174659)
(0 0 0.0172706)
(0 0 0.0170731)
(0 0 0.0168736)
(0 0 0.0166722)
(0 0 0.016469)
(0 0 0.016264)
(0 0 0.0160573)
(0 0 0.015849)
(0 0 0.0156392)
(0 0 0.015428)
(0 0 0.0152154)
(0 0 0.0150015)
(0 0 0.0147864)
(0 0 0.0145702)
(0 0 0.0143528)
(0 0 0.0141345)
(0 0 0.0139152)
(0 0 0.013695)
(0 0 0.013474)
(0 0 0.0132523)
(0 0 0.0130298)
(0 0 0.0128066)
(0 0 0.0125829)
(0 0 0.0123586)
(0 0 0.0121337)
(0 0 0.0119084)
(0 0 0.0116827)
(0 0 0.0114566)
(0 0 0.0112301)
(0 0 0.0110033)