/*--------------------------------*- C++ -*----------------------------------*\
| =========                 |                                                 |
| \\      /  F ield         | OpenFOAM: The Open Source CFD Toolbox           |
|  \\    /   O peration     | Version:  v2012                                 |
|   \\  /    A nd           | Website:  www.openfoam.com                      |
|    \\/     M anipulation  |                                                 |
\*---------------------------------------------------------------------------*/
FoamFile
{
    version     2.0;
    format      ascii;
    class       volVectorField;
    location    "6.4";
    object      Psi;
}
// * * * * * * * * * * * * * * * * * * * * * * * * * * * * * * * * * * * * * //

dimensions      [0 2 -1 0 0 0 0];


internalField   nonuniform List<vector> 
65536
(
(0 0 9.2061e-06)
(0 0 2.7618e-05)
(0 0 4.60291e-05)
(0 0 6.44391e-05)
(0 0 8.28472e-05)
(0 0 0.000101253)
(0 0 0.000119656)
(0 0 0.000138056)
(0 0 0.000156452)
(0 0 0.000174843)
(0 0 0.000193229)
(0 0 0.00021161)
(0 0 0.000229983)
(0 0 0.00024835)
(0 0 0.000266708)
(0 0 0.000285057)
(0 0 0.000303397)
(0 0 0.000321725)
(0 0 0.000340042)
(0 0 0.000358346)
(0 0 0.000376636)
(0 0 0.00039491)
(0 0 0.000413168)
(0 0 0.000431409)
(0 0 0.00044963)
(0 0 0.00046783)
(0 0 0.000486007)
(0 0 0.000504161)
(0 0 0.000522288)
(0 0 0.000540388)
(0 0 0.000558458)
(0 0 0.000576496)
(0 0 0.000594501)
(0 0 0.000612469)
(0 0 0.000630399)
(0 0 0.000648288)
(0 0 0.000666133)
(0 0 0.000683932)
(0 0 0.000701682)
(0 0 0.00071938)
(0 0 0.000737024)
(0 0 0.000754609)
(0 0 0.000772134)
(0 0 0.000789593)
(0 0 0.000806985)
(0 0 0.000824306)
(0 0 0.000841551)
(0 0 0.000858718)
(0 0 0.000875801)
(0 0 0.000892798)
(0 0 0.000909704)
(0 0 0.000926515)
(0 0 0.000943227)
(0 0 0.000959835)
(0 0 0.000976335)
(0 0 0.000992722)
(0 0 0.00100899)
(0 0 0.00102514)
(0 0 0.00104116)
(0 0 0.00105705)
(0 0 0.0010728)
(0 0 0.00108841)
(0 0 0.00110387)
(0 0 0.00111918)
(0 0 0.00113434)
(0 0 0.00114933)
(0 0 0.00116415)
(0 0 0.0011788)
(0 0 0.00119327)
(0 0 0.00120755)
(0 0 0.00122165)
(0 0 0.00123555)
(0 0 0.00124925)
(0 0 0.00126275)
(0 0 0.00127603)
(0 0 0.0012891)
(0 0 0.00130194)
(0 0 0.00131456)
(0 0 0.00132694)
(0 0 0.00133909)
(0 0 0.00135099)
(0 0 0.00136265)
(0 0 0.00137405)
(0 0 0.0013852)
(0 0 0.00139608)
(0 0 0.0014067)
(0 0 0.00141704)
(0 0 0.00142711)
(0 0 0.0014369)
(0 0 0.0014464)
(0 0 0.00145561)
(0 0 0.00146453)
(0 0 0.00147316)
(0 0 0.00148148)
(0 0 0.0014895)
(0 0 0.00149721)
(0 0 0.00150462)
(0 0 0.00151171)
(0 0 0.00151849)
(0 0 0.00152494)
(0 0 0.00153108)
(0 0 0.0015369)
(0 0 0.00154239)
(0 0 0.00154756)
(0 0 0.0015524)
(0 0 0.00155691)
(0 0 0.00156109)
(0 0 0.00156494)
(0 0 0.00156847)
(0 0 0.00157165)
(0 0 0.00157451)
(0 0 0.00157704)
(0 0 0.00157924)
(0 0 0.0015811)
(0 0 0.00158263)
(0 0 0.00158384)
(0 0 0.00158472)
(0 0 0.00158527)
(0 0 0.00158549)
(0 0 0.00158539)
(0 0 0.00158497)
(0 0 0.00158423)
(0 0 0.00158317)
(0 0 0.00158179)
(0 0 0.0015801)
(0 0 0.0015781)
(0 0 0.00157579)
(0 0 0.00157318)
(0 0 0.00157026)
(0 0 0.00156705)
(0 0 0.00156354)
(0 0 0.00155974)
(0 0 0.00155565)
(0 0 0.00155127)
(0 0 0.00154662)
(0 0 0.00154168)
(0 0 0.00153648)
(0 0 0.001531)
(0 0 0.00152526)
(0 0 0.00151926)
(0 0 0.001513)
(0 0 0.00150649)
(0 0 0.00149973)
(0 0 0.00149273)
(0 0 0.00148548)
(0 0 0.00147801)
(0 0 0.0014703)
(0 0 0.00146237)
(0 0 0.00145421)
(0 0 0.00144584)
(0 0 0.00143725)
(0 0 0.00142846)
(0 0 0.00141946)
(0 0 0.00141027)
(0 0 0.00140088)
(0 0 0.0013913)
(0 0 0.00138153)
(0 0 0.00137158)
(0 0 0.00136146)
(0 0 0.00135116)
(0 0 0.00134069)
(0 0 0.00133006)
(0 0 0.00131927)
(0 0 0.00130833)
(0 0 0.00129723)
(0 0 0.00128599)
(0 0 0.0012746)
(0 0 0.00126307)
(0 0 0.00125141)
(0 0 0.00123961)
(0 0 0.00122769)
(0 0 0.00121564)
(0 0 0.00120347)
(0 0 0.00119118)
(0 0 0.00117879)
(0 0 0.00116628)
(0 0 0.00115366)
(0 0 0.00114094)
(0 0 0.00112812)
(0 0 0.00111521)
(0 0 0.0011022)
(0 0 0.0010891)
(0 0 0.00107591)
(0 0 0.00106264)
(0 0 0.00104929)
(0 0 0.00103586)
(0 0 0.00102235)
(0 0 0.00100877)
(0 0 0.00099512)
(0 0 0.000981401)
(0 0 0.000967616)
(0 0 0.000953768)
(0 0 0.000939859)
(0 0 0.000925892)
(0 0 0.000911869)
(0 0 0.000897792)
(0 0 0.000883663)
(0 0 0.000869485)
(0 0 0.000855258)
(0 0 0.000840986)
(0 0 0.00082667)
(0 0 0.000812312)
(0 0 0.000797914)
(0 0 0.000783477)
(0 0 0.000769004)
(0 0 0.000754495)
(0 0 0.000739952)
(0 0 0.000725378)
(0 0 0.000710773)
(0 0 0.000696138)
(0 0 0.000681476)
(0 0 0.000666787)
(0 0 0.000652074)
(0 0 0.000637336)
(0 0 0.000622575)
(0 0 0.000607793)
(0 0 0.00059299)
(0 0 0.000578167)
(0 0 0.000563326)
(0 0 0.000548468)
(0 0 0.000533593)
(0 0 0.000518702)
(0 0 0.000503797)
(0 0 0.000488878)
(0 0 0.000473945)
(0 0 0.000459)
(0 0 0.000444043)
(0 0 0.000429076)
(0 0 0.000414098)
(0 0 0.00039911)
(0 0 0.000384114)
(0 0 0.000369108)
(0 0 0.000354095)
(0 0 0.000339075)
(0 0 0.000324047)
(0 0 0.000309013)
(0 0 0.000293973)
(0 0 0.000278928)
(0 0 0.000263877)
(0 0 0.000248822)
(0 0 0.000233762)
(0 0 0.000218698)
(0 0 0.00020363)
(0 0 0.000188559)
(0 0 0.000173485)
(0 0 0.000158409)
(0 0 0.000143329)
(0 0 0.000128248)
(0 0 0.000113164)
(0 0 9.80791e-05)
(0 0 8.29925e-05)
(0 0 6.79046e-05)
(0 0 5.28157e-05)
(0 0 3.7726e-05)
(0 0 2.26358e-05)
(0 0 7.54532e-06)
(0 0 2.76184e-05)
(0 0 8.28545e-05)
(0 0 0.000138088)
(0 0 0.000193319)
(0 0 0.000248544)
(0 0 0.000303762)
(0 0 0.000358972)
(0 0 0.000414171)
(0 0 0.00046936)
(0 0 0.000524534)
(0 0 0.000579693)
(0 0 0.000634834)
(0 0 0.000689956)
(0 0 0.000745056)
(0 0 0.000800132)
(0 0 0.00085518)
(0 0 0.0009102)
(0 0 0.000965186)
(0 0 0.00102014)
(0 0 0.00107505)
(0 0 0.00112992)
(0 0 0.00118475)
(0 0 0.00123952)
(0 0 0.00129424)
(0 0 0.00134891)
(0 0 0.00140351)
(0 0 0.00145804)
(0 0 0.00151251)
(0 0 0.00156689)
(0 0 0.00162119)
(0 0 0.0016754)
(0 0 0.00172952)
(0 0 0.00178354)
(0 0 0.00183744)
(0 0 0.00189124)
(0 0 0.0019449)
(0 0 0.00199844)
(0 0 0.00205184)
(0 0 0.0021051)
(0 0 0.00215819)
(0 0 0.00221113)
(0 0 0.00226389)
(0 0 0.00231646)
(0 0 0.00236885)
(0 0 0.00242102)
(0 0 0.00247299)
(0 0 0.00252473)
(0 0 0.00257623)
(0 0 0.00262749)
(0 0 0.00267848)
(0 0 0.0027292)
(0 0 0.00277964)
(0 0 0.00282978)
(0 0 0.00287961)
(0 0 0.00292911)
(0 0 0.00297828)
(0 0 0.00302709)
(0 0 0.00307554)
(0 0 0.00312361)
(0 0 0.00317128)
(0 0 0.00321854)
(0 0 0.00326537)
(0 0 0.00331177)
(0 0 0.0033577)
(0 0 0.00340317)
(0 0 0.00344815)
(0 0 0.00349262)
(0 0 0.00353657)
(0 0 0.00357998)
(0 0 0.00362285)
(0 0 0.00366514)
(0 0 0.00370685)
(0 0 0.00374796)
(0 0 0.00378844)
(0 0 0.0038283)
(0 0 0.00386751)
(0 0 0.00390604)
(0 0 0.0039439)
(0 0 0.00398106)
(0 0 0.00401751)
(0 0 0.00405322)
(0 0 0.0040882)
(0 0 0.00412241)
(0 0 0.00415585)
(0 0 0.00418851)
(0 0 0.00422036)
(0 0 0.00425139)
(0 0 0.0042816)
(0 0 0.00431097)
(0 0 0.00433948)
(0 0 0.00436712)
(0 0 0.00439389)
(0 0 0.00441976)
(0 0 0.00444474)
(0 0 0.0044688)
(0 0 0.00449195)
(0 0 0.00451416)
(0 0 0.00453544)
(0 0 0.00455577)
(0 0 0.00457515)
(0 0 0.00459357)
(0 0 0.00461102)
(0 0 0.0046275)
(0 0 0.004643)
(0 0 0.00465752)
(0 0 0.00467106)
(0 0 0.0046836)
(0 0 0.00469516)
(0 0 0.00470572)
(0 0 0.00471529)
(0 0 0.00472387)
(0 0 0.00473145)
(0 0 0.00473803)
(0 0 0.00474363)
(0 0 0.00474823)
(0 0 0.00475184)
(0 0 0.00475447)
(0 0 0.00475612)
(0 0 0.00475679)
(0 0 0.00475649)
(0 0 0.00475522)
(0 0 0.00475299)
(0 0 0.00474981)
(0 0 0.00474568)
(0 0 0.00474061)
(0 0 0.0047346)
(0 0 0.00472767)
(0 0 0.00471983)
(0 0 0.00471108)
(0 0 0.00470144)
(0 0 0.0046909)
(0 0 0.0046795)
(0 0 0.00466722)
(0 0 0.00465409)
(0 0 0.00464012)
(0 0 0.00462532)
(0 0 0.00460969)
(0 0 0.00459326)
(0 0 0.00457604)
(0 0 0.00455803)
(0 0 0.00453925)
(0 0 0.00451971)
(0 0 0.00449943)
(0 0 0.00447842)
(0 0 0.00445668)
(0 0 0.00443425)
(0 0 0.00441112)
(0 0 0.00438731)
(0 0 0.00436284)
(0 0 0.00433772)
(0 0 0.00431196)
(0 0 0.00428558)
(0 0 0.00425858)
(0 0 0.00423099)
(0 0 0.00420282)
(0 0 0.00417407)
(0 0 0.00414477)
(0 0 0.00411492)
(0 0 0.00408454)
(0 0 0.00405364)
(0 0 0.00402224)
(0 0 0.00399035)
(0 0 0.00395797)
(0 0 0.00392513)
(0 0 0.00389184)
(0 0 0.0038581)
(0 0 0.00382393)
(0 0 0.00378934)
(0 0 0.00375434)
(0 0 0.00371895)
(0 0 0.00368318)
(0 0 0.00364703)
(0 0 0.00361052)
(0 0 0.00357366)
(0 0 0.00353646)
(0 0 0.00349893)
(0 0 0.00346108)
(0 0 0.00342292)
(0 0 0.00338447)
(0 0 0.00334572)
(0 0 0.00330669)
(0 0 0.00326739)
(0 0 0.00322782)
(0 0 0.00318801)
(0 0 0.00314795)
(0 0 0.00310765)
(0 0 0.00306713)
(0 0 0.00302638)
(0 0 0.00298543)
(0 0 0.00294427)
(0 0 0.00290291)
(0 0 0.00286136)
(0 0 0.00281964)
(0 0 0.00277773)
(0 0 0.00273566)
(0 0 0.00269343)
(0 0 0.00265104)
(0 0 0.0026085)
(0 0 0.00256582)
(0 0 0.002523)
(0 0 0.00248005)
(0 0 0.00243698)
(0 0 0.00239378)
(0 0 0.00235047)
(0 0 0.00230705)
(0 0 0.00226352)
(0 0 0.00221989)
(0 0 0.00217616)
(0 0 0.00213235)
(0 0 0.00208844)
(0 0 0.00204445)
(0 0 0.00200039)
(0 0 0.00195624)
(0 0 0.00191203)
(0 0 0.00186775)
(0 0 0.0018234)
(0 0 0.00177899)
(0 0 0.00173452)
(0 0 0.00169)
(0 0 0.00164542)
(0 0 0.00160079)
(0 0 0.00155612)
(0 0 0.0015114)
(0 0 0.00146665)
(0 0 0.00142185)
(0 0 0.00137701)
(0 0 0.00133214)
(0 0 0.00128724)
(0 0 0.0012423)
(0 0 0.00119734)
(0 0 0.00115235)
(0 0 0.00110733)
(0 0 0.00106229)
(0 0 0.00101723)
(0 0 0.000972148)
(0 0 0.000927046)
(0 0 0.000881926)
(0 0 0.000836789)
(0 0 0.000791636)
(0 0 0.00074647)
(0 0 0.00070129)
(0 0 0.000656098)
(0 0 0.000610895)
(0 0 0.000565681)
(0 0 0.000520459)
(0 0 0.000475228)
(0 0 0.00042999)
(0 0 0.000384745)
(0 0 0.000339495)
(0 0 0.000294239)
(0 0 0.000248979)
(0 0 0.000203715)
(0 0 0.000158448)
(0 0 0.000113179)
(0 0 6.79079e-05)
(0 0 2.26361e-05)
(0 0 4.60315e-05)
(0 0 0.000138093)
(0 0 0.000230151)
(0 0 0.000322203)
(0 0 0.000414247)
(0 0 0.000506279)
(0 0 0.000598297)
(0 0 0.000690299)
(0 0 0.000782281)
(0 0 0.00087424)
(0 0 0.000966174)
(0 0 0.00105808)
(0 0 0.00114995)
(0 0 0.00124179)
(0 0 0.00133358)
(0 0 0.00142533)
(0 0 0.00151704)
(0 0 0.00160868)
(0 0 0.00170027)
(0 0 0.0017918)
(0 0 0.00188325)
(0 0 0.00197463)
(0 0 0.00206593)
(0 0 0.00215714)
(0 0 0.00224825)
(0 0 0.00233926)
(0 0 0.00243015)
(0 0 0.00252093)
(0 0 0.00261158)
(0 0 0.00270208)
(0 0 0.00279245)
(0 0 0.00288265)
(0 0 0.00297268)
(0 0 0.00306253)
(0 0 0.0031522)
(0 0 0.00324165)
(0 0 0.00333089)
(0 0 0.0034199)
(0 0 0.00350867)
(0 0 0.00359717)
(0 0 0.0036854)
(0 0 0.00377335)
(0 0 0.00386099)
(0 0 0.0039483)
(0 0 0.00403528)
(0 0 0.0041219)
(0 0 0.00420814)
(0 0 0.004294)
(0 0 0.00437943)
(0 0 0.00446444)
(0 0 0.00454899)
(0 0 0.00463307)
(0 0 0.00471665)
(0 0 0.00479971)
(0 0 0.00488223)
(0 0 0.00496419)
(0 0 0.00504556)
(0 0 0.00512633)
(0 0 0.00520645)
(0 0 0.00528592)
(0 0 0.00536471)
(0 0 0.00544278)
(0 0 0.00552012)
(0 0 0.0055967)
(0 0 0.00567249)
(0 0 0.00574747)
(0 0 0.00582161)
(0 0 0.00589488)
(0 0 0.00596725)
(0 0 0.00603871)
(0 0 0.00610922)
(0 0 0.00617875)
(0 0 0.00624728)
(0 0 0.00631478)
(0 0 0.00638122)
(0 0 0.00644658)
(0 0 0.00651083)
(0 0 0.00657394)
(0 0 0.00663589)
(0 0 0.00669665)
(0 0 0.0067562)
(0 0 0.00681451)
(0 0 0.00687155)
(0 0 0.0069273)
(0 0 0.00698174)
(0 0 0.00703484)
(0 0 0.00708658)
(0 0 0.00713694)
(0 0 0.00718589)
(0 0 0.00723342)
(0 0 0.00727951)
(0 0 0.00732413)
(0 0 0.00736727)
(0 0 0.0074089)
(0 0 0.00744902)
(0 0 0.00748761)
(0 0 0.00752464)
(0 0 0.00756011)
(0 0 0.00759401)
(0 0 0.00762631)
(0 0 0.00765702)
(0 0 0.00768611)
(0 0 0.00771358)
(0 0 0.00773942)
(0 0 0.00776363)
(0 0 0.00778619)
(0 0 0.0078071)
(0 0 0.00782637)
(0 0 0.00784397)
(0 0 0.00785992)
(0 0 0.00787421)
(0 0 0.00788685)
(0 0 0.00789782)
(0 0 0.00790714)
(0 0 0.00791481)
(0 0 0.00792083)
(0 0 0.00792521)
(0 0 0.00792795)
(0 0 0.00792907)
(0 0 0.00792856)
(0 0 0.00792644)
(0 0 0.00792272)
(0 0 0.0079174)
(0 0 0.00791051)
(0 0 0.00790205)
(0 0 0.00789203)
(0 0 0.00788047)
(0 0 0.00786739)
(0 0 0.0078528)
(0 0 0.00783671)
(0 0 0.00781915)
(0 0 0.00780012)
(0 0 0.00777965)
(0 0 0.00775776)
(0 0 0.00773446)
(0 0 0.00770977)
(0 0 0.00768372)
(0 0 0.00765632)
(0 0 0.0076276)
(0 0 0.00759757)
(0 0 0.00756625)
(0 0 0.00753368)
(0 0 0.00749986)
(0 0 0.00746482)
(0 0 0.00742859)
(0 0 0.00739118)
(0 0 0.00735262)
(0 0 0.00731293)
(0 0 0.00727213)
(0 0 0.00723024)
(0 0 0.0071873)
(0 0 0.00714331)
(0 0 0.0070983)
(0 0 0.0070523)
(0 0 0.00700533)
(0 0 0.0069574)
(0 0 0.00690855)
(0 0 0.00685879)
(0 0 0.00680814)
(0 0 0.00675663)
(0 0 0.00670428)
(0 0 0.00665111)
(0 0 0.00659714)
(0 0 0.00654239)
(0 0 0.00648688)
(0 0 0.00643064)
(0 0 0.00637368)
(0 0 0.00631602)
(0 0 0.00625768)
(0 0 0.00619868)
(0 0 0.00613905)
(0 0 0.00607879)
(0 0 0.00601793)
(0 0 0.00595648)
(0 0 0.00589447)
(0 0 0.00583191)
(0 0 0.00576882)
(0 0 0.00570521)
(0 0 0.0056411)
(0 0 0.00557651)
(0 0 0.00551145)
(0 0 0.00544594)
(0 0 0.00537999)
(0 0 0.00531362)
(0 0 0.00524684)
(0 0 0.00517967)
(0 0 0.00511212)
(0 0 0.00504421)
(0 0 0.00497594)
(0 0 0.00490733)
(0 0 0.00483839)
(0 0 0.00476914)
(0 0 0.00469959)
(0 0 0.00462974)
(0 0 0.00455961)
(0 0 0.00448922)
(0 0 0.00441856)
(0 0 0.00434766)
(0 0 0.00427652)
(0 0 0.00420515)
(0 0 0.00413356)
(0 0 0.00406176)
(0 0 0.00398976)
(0 0 0.00391757)
(0 0 0.00384519)
(0 0 0.00377264)
(0 0 0.00369992)
(0 0 0.00362704)
(0 0 0.00355401)
(0 0 0.00348083)
(0 0 0.00340751)
(0 0 0.00333406)
(0 0 0.00326049)
(0 0 0.00318679)
(0 0 0.00311298)
(0 0 0.00303907)
(0 0 0.00296505)
(0 0 0.00289093)
(0 0 0.00281672)
(0 0 0.00274242)
(0 0 0.00266804)
(0 0 0.00259359)
(0 0 0.00251905)
(0 0 0.00244445)
(0 0 0.00236979)
(0 0 0.00229506)
(0 0 0.00222027)
(0 0 0.00214543)
(0 0 0.00207054)
(0 0 0.0019956)
(0 0 0.00192061)
(0 0 0.00184558)
(0 0 0.00177051)
(0 0 0.00169541)
(0 0 0.00162027)
(0 0 0.0015451)
(0 0 0.00146989)
(0 0 0.00139467)
(0 0 0.00131941)
(0 0 0.00124413)
(0 0 0.00116883)
(0 0 0.00109351)
(0 0 0.00101817)
(0 0 0.000942813)
(0 0 0.000867441)
(0 0 0.000792056)
(0 0 0.000716658)
(0 0 0.000641249)
(0 0 0.00056583)
(0 0 0.000490403)
(0 0 0.000414968)
(0 0 0.000339528)
(0 0 0.000264082)
(0 0 0.000188633)
(0 0 0.000113181)
(0 0 3.77271e-05)
(0 0 6.44458e-05)
(0 0 0.000193336)
(0 0 0.000322221)
(0 0 0.000451097)
(0 0 0.000579961)
(0 0 0.00070881)
(0 0 0.00083764)
(0 0 0.000966446)
(0 0 0.00109523)
(0 0 0.00122397)
(0 0 0.00135268)
(0 0 0.00148136)
(0 0 0.00160998)
(0 0 0.00173856)
(0 0 0.00186708)
(0 0 0.00199554)
(0 0 0.00212392)
(0 0 0.00225224)
(0 0 0.00238047)
(0 0 0.00250861)
(0 0 0.00263666)
(0 0 0.0027646)
(0 0 0.00289243)
(0 0 0.00302013)
(0 0 0.00314769)
(0 0 0.00327512)
(0 0 0.00340238)
(0 0 0.00352948)
(0 0 0.0036564)
(0 0 0.00378313)
(0 0 0.00390965)
(0 0 0.00403594)
(0 0 0.00416201)
(0 0 0.00428782)
(0 0 0.00441336)
(0 0 0.00453862)
(0 0 0.00466357)
(0 0 0.0047882)
(0 0 0.00491249)
(0 0 0.00503642)
(0 0 0.00515997)
(0 0 0.00528311)
(0 0 0.00540583)
(0 0 0.0055281)
(0 0 0.00564989)
(0 0 0.00577118)
(0 0 0.00589195)
(0 0 0.00601217)
(0 0 0.00613181)
(0 0 0.00625085)
(0 0 0.00636925)
(0 0 0.00648699)
(0 0 0.00660403)
(0 0 0.00672035)
(0 0 0.00683591)
(0 0 0.00695069)
(0 0 0.00706465)
(0 0 0.00717775)
(0 0 0.00728996)
(0 0 0.00740125)
(0 0 0.00751158)
(0 0 0.00762092)
(0 0 0.00772924)
(0 0 0.00783648)
(0 0 0.00794263)
(0 0 0.00804763)
(0 0 0.00815146)
(0 0 0.00825408)
(0 0 0.00835544)
(0 0 0.00845552)
(0 0 0.00855427)
(0 0 0.00865165)
(0 0 0.00874763)
(0 0 0.00884217)
(0 0 0.00893523)
(0 0 0.00902677)
(0 0 0.00911676)
(0 0 0.00920515)
(0 0 0.00929192)
(0 0 0.00937702)
(0 0 0.00946042)
(0 0 0.00954208)
(0 0 0.00962197)
(0 0 0.00970006)
(0 0 0.0097763)
(0 0 0.00985068)
(0 0 0.00992315)
(0 0 0.00999368)
(0 0 0.0100622)
(0 0 0.0101288)
(0 0 0.0101934)
(0 0 0.0102559)
(0 0 0.0103163)
(0 0 0.0103746)
(0 0 0.0104308)
(0 0 0.0104848)
(0 0 0.0105367)
(0 0 0.0105864)
(0 0 0.0106338)
(0 0 0.0106791)
(0 0 0.0107221)
(0 0 0.0107628)
(0 0 0.0108013)
(0 0 0.0108375)
(0 0 0.0108714)
(0 0 0.010903)
(0 0 0.0109323)
(0 0 0.0109592)
(0 0 0.0109839)
(0 0 0.0110062)
(0 0 0.0110262)
(0 0 0.0110439)
(0 0 0.0110593)
(0 0 0.0110723)
(0 0 0.011083)
(0 0 0.0110915)
(0 0 0.0110976)
(0 0 0.0111014)
(0 0 0.011103)
(0 0 0.0111022)
(0 0 0.0110993)
(0 0 0.011094)
(0 0 0.0110866)
(0 0 0.0110769)
(0 0 0.011065)
(0 0 0.011051)
(0 0 0.0110348)
(0 0 0.0110165)
(0 0 0.010996)
(0 0 0.0109735)
(0 0 0.0109488)
(0 0 0.0109222)
(0 0 0.0108935)
(0 0 0.0108628)
(0 0 0.0108302)
(0 0 0.0107956)
(0 0 0.0107591)
(0 0 0.0107207)
(0 0 0.0106805)
(0 0 0.0106384)
(0 0 0.0105945)
(0 0 0.0105489)
(0 0 0.0105015)
(0 0 0.0104524)
(0 0 0.0104017)
(0 0 0.0103493)
(0 0 0.0102953)
(0 0 0.0102397)
(0 0 0.0101825)
(0 0 0.0101238)
(0 0 0.0100637)
(0 0 0.0100021)
(0 0 0.00993902)
(0 0 0.00987458)
(0 0 0.00980879)
(0 0 0.00974166)
(0 0 0.00967324)
(0 0 0.00960354)
(0 0 0.00953261)
(0 0 0.00946046)
(0 0 0.00938714)
(0 0 0.00931267)
(0 0 0.00923709)
(0 0 0.00916041)
(0 0 0.00908267)
(0 0 0.0090039)
(0 0 0.00892413)
(0 0 0.00884337)
(0 0 0.00876167)
(0 0 0.00867905)
(0 0 0.00859554)
(0 0 0.00851115)
(0 0 0.00842592)
(0 0 0.00833987)
(0 0 0.00825303)
(0 0 0.00816542)
(0 0 0.00807707)
(0 0 0.00798799)
(0 0 0.00789821)
(0 0 0.00780776)
(0 0 0.00771666)
(0 0 0.00762492)
(0 0 0.00753257)
(0 0 0.00743964)
(0 0 0.00734613)
(0 0 0.00725207)
(0 0 0.00715748)
(0 0 0.00706238)
(0 0 0.00696679)
(0 0 0.00687072)
(0 0 0.00677419)
(0 0 0.00667722)
(0 0 0.00657983)
(0 0 0.00648203)
(0 0 0.00638384)
(0 0 0.00628527)
(0 0 0.00618634)
(0 0 0.00608706)
(0 0 0.00598745)
(0 0 0.00588752)
(0 0 0.00578728)
(0 0 0.00568675)
(0 0 0.00558593)
(0 0 0.00548485)
(0 0 0.00538352)
(0 0 0.00528193)
(0 0 0.00518011)
(0 0 0.00507807)
(0 0 0.00497582)
(0 0 0.00487336)
(0 0 0.0047707)
(0 0 0.00466786)
(0 0 0.00456485)
(0 0 0.00446167)
(0 0 0.00435833)
(0 0 0.00425484)
(0 0 0.0041512)
(0 0 0.00404743)
(0 0 0.00394353)
(0 0 0.00383951)
(0 0 0.00373537)
(0 0 0.00363112)
(0 0 0.00352677)
(0 0 0.00342233)
(0 0 0.00331779)
(0 0 0.00321316)
(0 0 0.00310846)
(0 0 0.00300368)
(0 0 0.00289882)
(0 0 0.0027939)
(0 0 0.00268891)
(0 0 0.00258387)
(0 0 0.00247877)
(0 0 0.00237362)
(0 0 0.00226842)
(0 0 0.00216318)
(0 0 0.00205789)
(0 0 0.00195257)
(0 0 0.00184721)
(0 0 0.00174181)
(0 0 0.00163639)
(0 0 0.00153094)
(0 0 0.00142546)
(0 0 0.00131996)
(0 0 0.00121444)
(0 0 0.0011089)
(0 0 0.00100334)
(0 0 0.000897762)
(0 0 0.000792174)
(0 0 0.000686574)
(0 0 0.000580964)
(0 0 0.000475346)
(0 0 0.000369721)
(0 0 0.00026409)
(0 0 0.000158455)
(0 0 5.28188e-05)
(0 0 8.28619e-05)
(0 0 0.000248583)
(0 0 0.000414298)
(0 0 0.000580003)
(0 0 0.000745692)
(0 0 0.000911361)
(0 0 0.00107701)
(0 0 0.00124262)
(0 0 0.0014082)
(0 0 0.00157374)
(0 0 0.00173924)
(0 0 0.00190468)
(0 0 0.00207007)
(0 0 0.00223539)
(0 0 0.00240064)
(0 0 0.00256581)
(0 0 0.00273089)
(0 0 0.00289588)
(0 0 0.00306076)
(0 0 0.00322553)
(0 0 0.00339017)
(0 0 0.00355468)
(0 0 0.00371905)
(0 0 0.00388325)
(0 0 0.00404728)
(0 0 0.00421113)
(0 0 0.00437478)
(0 0 0.00453821)
(0 0 0.00470142)
(0 0 0.00486438)
(0 0 0.00502707)
(0 0 0.00518948)
(0 0 0.00535158)
(0 0 0.00551337)
(0 0 0.00567481)
(0 0 0.00583589)
(0 0 0.00599657)
(0 0 0.00615685)
(0 0 0.00631669)
(0 0 0.00647606)
(0 0 0.00663494)
(0 0 0.00679331)
(0 0 0.00695113)
(0 0 0.00710837)
(0 0 0.007265)
(0 0 0.007421)
(0 0 0.00757632)
(0 0 0.00773093)
(0 0 0.0078848)
(0 0 0.0080379)
(0 0 0.00819018)
(0 0 0.00834161)
(0 0 0.00849214)
(0 0 0.00864175)
(0 0 0.00879039)
(0 0 0.00893801)
(0 0 0.00908458)
(0 0 0.00923006)
(0 0 0.00937439)
(0 0 0.00951754)
(0 0 0.00965945)
(0 0 0.0098001)
(0 0 0.00993942)
(0 0 0.0100774)
(0 0 0.0102139)
(0 0 0.010349)
(0 0 0.0104825)
(0 0 0.0106145)
(0 0 0.0107449)
(0 0 0.0108737)
(0 0 0.0110007)
(0 0 0.011126)
(0 0 0.0112494)
(0 0 0.011371)
(0 0 0.0114908)
(0 0 0.0116085)
(0 0 0.0117243)
(0 0 0.011838)
(0 0 0.0119496)
(0 0 0.0120591)
(0 0 0.0121664)
(0 0 0.0122714)
(0 0 0.0123742)
(0 0 0.0124747)
(0 0 0.0125727)
(0 0 0.0126684)
(0 0 0.0127617)
(0 0 0.0128524)
(0 0 0.0129406)
(0 0 0.0130262)
(0 0 0.0131093)
(0 0 0.0131897)
(0 0 0.0132674)
(0 0 0.0133424)
(0 0 0.0134147)
(0 0 0.0134842)
(0 0 0.0135509)
(0 0 0.0136148)
(0 0 0.0136759)
(0 0 0.0137341)
(0 0 0.0137894)
(0 0 0.0138418)
(0 0 0.0138913)
(0 0 0.0139378)
(0 0 0.0139814)
(0 0 0.0140221)
(0 0 0.0140597)
(0 0 0.0140944)
(0 0 0.0141261)
(0 0 0.0141548)
(0 0 0.0141806)
(0 0 0.0142033)
(0 0 0.014223)
(0 0 0.0142398)
(0 0 0.0142536)
(0 0 0.0142644)
(0 0 0.0142723)
(0 0 0.0142772)
(0 0 0.0142791)
(0 0 0.0142782)
(0 0 0.0142743)
(0 0 0.0142676)
(0 0 0.014258)
(0 0 0.0142455)
(0 0 0.0142302)
(0 0 0.0142121)
(0 0 0.0141913)
(0 0 0.0141677)
(0 0 0.0141413)
(0 0 0.0141123)
(0 0 0.0140806)
(0 0 0.0140463)
(0 0 0.0140094)
(0 0 0.0139699)
(0 0 0.0139279)
(0 0 0.0138833)
(0 0 0.0138364)
(0 0 0.013787)
(0 0 0.0137352)
(0 0 0.013681)
(0 0 0.0136246)
(0 0 0.0135658)
(0 0 0.0135049)
(0 0 0.0134417)
(0 0 0.0133764)
(0 0 0.013309)
(0 0 0.0132395)
(0 0 0.0131679)
(0 0 0.0130944)
(0 0 0.0130189)
(0 0 0.0129415)
(0 0 0.0128622)
(0 0 0.0127811)
(0 0 0.0126982)
(0 0 0.0126136)
(0 0 0.0125272)
(0 0 0.0124392)
(0 0 0.0123495)
(0 0 0.0122583)
(0 0 0.0121655)
(0 0 0.0120712)
(0 0 0.0119754)
(0 0 0.0118781)
(0 0 0.0117795)
(0 0 0.0116795)
(0 0 0.0115782)
(0 0 0.0114756)
(0 0 0.0113717)
(0 0 0.0112666)
(0 0 0.0111603)
(0 0 0.0110529)
(0 0 0.0109444)
(0 0 0.0108347)
(0 0 0.0107241)
(0 0 0.0106124)
(0 0 0.0104997)
(0 0 0.010386)
(0 0 0.0102715)
(0 0 0.010156)
(0 0 0.0100397)
(0 0 0.0099225)
(0 0 0.00980452)
(0 0 0.00968575)
(0 0 0.00956623)
(0 0 0.00944597)
(0 0 0.009325)
(0 0 0.00920336)
(0 0 0.00908105)
(0 0 0.00895811)
(0 0 0.00883457)
(0 0 0.00871043)
(0 0 0.00858573)
(0 0 0.00846048)
(0 0 0.00833471)
(0 0 0.00820844)
(0 0 0.00808168)
(0 0 0.00795446)
(0 0 0.00782679)
(0 0 0.00769869)
(0 0 0.00757019)
(0 0 0.00744129)
(0 0 0.00731201)
(0 0 0.00718238)
(0 0 0.0070524)
(0 0 0.00692209)
(0 0 0.00679146)
(0 0 0.00666053)
(0 0 0.00652932)
(0 0 0.00639783)
(0 0 0.00626608)
(0 0 0.00613408)
(0 0 0.00600184)
(0 0 0.00586938)
(0 0 0.0057367)
(0 0 0.00560382)
(0 0 0.00547075)
(0 0 0.00533749)
(0 0 0.00520406)
(0 0 0.00507046)
(0 0 0.00493671)
(0 0 0.00480281)
(0 0 0.00466876)
(0 0 0.00453459)
(0 0 0.00440029)
(0 0 0.00426588)
(0 0 0.00413135)
(0 0 0.00399672)
(0 0 0.00386199)
(0 0 0.00372717)
(0 0 0.00359227)
(0 0 0.00345728)
(0 0 0.00332221)
(0 0 0.00318708)
(0 0 0.00305188)
(0 0 0.00291662)
(0 0 0.0027813)
(0 0 0.00264593)
(0 0 0.00251051)
(0 0 0.00237504)
(0 0 0.00223953)
(0 0 0.00210398)
(0 0 0.00196839)
(0 0 0.00183278)
(0 0 0.00169713)
(0 0 0.00156145)
(0 0 0.00142575)
(0 0 0.00129003)
(0 0 0.00115429)
(0 0 0.00101853)
(0 0 0.000882756)
(0 0 0.000746969)
(0 0 0.000611171)
(0 0 0.000475364)
(0 0 0.000339551)
(0 0 0.000203732)
(0 0 6.79111e-05)
(0 0 0.00010128)
(0 0 0.000303838)
(0 0 0.000506387)
(0 0 0.000708924)
(0 0 0.000911442)
(0 0 0.00111394)
(0 0 0.0013164)
(0 0 0.00151883)
(0 0 0.00172122)
(0 0 0.00192356)
(0 0 0.00212584)
(0 0 0.00232806)
(0 0 0.00253021)
(0 0 0.00273229)
(0 0 0.00293427)
(0 0 0.00313617)
(0 0 0.00333795)
(0 0 0.00353962)
(0 0 0.00374117)
(0 0 0.00394257)
(0 0 0.00414382)
(0 0 0.00434492)
(0 0 0.00454583)
(0 0 0.00474655)
(0 0 0.00494706)
(0 0 0.00514735)
(0 0 0.00534739)
(0 0 0.00554718)
(0 0 0.00574668)
(0 0 0.00594589)
(0 0 0.00614477)
(0 0 0.00634331)
(0 0 0.00654149)
(0 0 0.00673927)
(0 0 0.00693663)
(0 0 0.00713355)
(0 0 0.00732999)
(0 0 0.00752593)
(0 0 0.00772134)
(0 0 0.00791619)
(0 0 0.00811044)
(0 0 0.00830405)
(0 0 0.008497)
(0 0 0.00868925)
(0 0 0.00888076)
(0 0 0.00907148)
(0 0 0.00926139)
(0 0 0.00945043)
(0 0 0.00963857)
(0 0 0.00982576)
(0 0 0.010012)
(0 0 0.0101971)
(0 0 0.0103812)
(0 0 0.0105641)
(0 0 0.0107459)
(0 0 0.0109264)
(0 0 0.0111056)
(0 0 0.0112835)
(0 0 0.01146)
(0 0 0.0116351)
(0 0 0.0118086)
(0 0 0.0119806)
(0 0 0.012151)
(0 0 0.0123197)
(0 0 0.0124866)
(0 0 0.0126518)
(0 0 0.0128152)
(0 0 0.0129766)
(0 0 0.0131361)
(0 0 0.0132935)
(0 0 0.0134489)
(0 0 0.0136021)
(0 0 0.0137531)
(0 0 0.0139018)
(0 0 0.0140482)
(0 0 0.0141923)
(0 0 0.0143338)
(0 0 0.0144729)
(0 0 0.0146094)
(0 0 0.0147433)
(0 0 0.0148746)
(0 0 0.0150031)
(0 0 0.0151288)
(0 0 0.0152516)
(0 0 0.0153716)
(0 0 0.0154886)
(0 0 0.0156026)
(0 0 0.0157136)
(0 0 0.0158215)
(0 0 0.0159263)
(0 0 0.0160278)
(0 0 0.0161262)
(0 0 0.0162212)
(0 0 0.016313)
(0 0 0.0164014)
(0 0 0.0164864)
(0 0 0.016568)
(0 0 0.0166461)
(0 0 0.0167208)
(0 0 0.016792)
(0 0 0.0168596)
(0 0 0.0169237)
(0 0 0.0169842)
(0 0 0.0170411)
(0 0 0.0170945)
(0 0 0.0171441)
(0 0 0.0171902)
(0 0 0.0172326)
(0 0 0.0172713)
(0 0 0.0173064)
(0 0 0.0173379)
(0 0 0.0173657)
(0 0 0.0173898)
(0 0 0.0174103)
(0 0 0.0174271)
(0 0 0.0174403)
(0 0 0.0174499)
(0 0 0.0174558)
(0 0 0.0174582)
(0 0 0.017457)
(0 0 0.0174523)
(0 0 0.017444)
(0 0 0.0174322)
(0 0 0.0174169)
(0 0 0.0173982)
(0 0 0.017376)
(0 0 0.0173505)
(0 0 0.0173216)
(0 0 0.0172893)
(0 0 0.0172538)
(0 0 0.017215)
(0 0 0.017173)
(0 0 0.0171278)
(0 0 0.0170794)
(0 0 0.017028)
(0 0 0.0169735)
(0 0 0.016916)
(0 0 0.0168556)
(0 0 0.0167922)
(0 0 0.016726)
(0 0 0.0166569)
(0 0 0.016585)
(0 0 0.0165104)
(0 0 0.0164332)
(0 0 0.0163532)
(0 0 0.0162708)
(0 0 0.0161857)
(0 0 0.0160982)
(0 0 0.0160082)
(0 0 0.0159159)
(0 0 0.0158212)
(0 0 0.0157242)
(0 0 0.015625)
(0 0 0.0155236)
(0 0 0.0154201)
(0 0 0.0153145)
(0 0 0.0152068)
(0 0 0.0150971)
(0 0 0.0149855)
(0 0 0.014872)
(0 0 0.0147566)
(0 0 0.0146395)
(0 0 0.0145206)
(0 0 0.0143999)
(0 0 0.0142776)
(0 0 0.0141537)
(0 0 0.0140282)
(0 0 0.0139012)
(0 0 0.0137727)
(0 0 0.0136427)
(0 0 0.0135114)
(0 0 0.0133786)
(0 0 0.0132446)
(0 0 0.0131093)
(0 0 0.0129727)
(0 0 0.0128349)
(0 0 0.0126959)
(0 0 0.0125559)
(0 0 0.0124147)
(0 0 0.0122724)
(0 0 0.0121292)
(0 0 0.0119849)
(0 0 0.0118397)
(0 0 0.0116935)
(0 0 0.0115465)
(0 0 0.0113986)
(0 0 0.0112499)
(0 0 0.0111004)
(0 0 0.0109501)
(0 0 0.010799)
(0 0 0.0106472)
(0 0 0.0104948)
(0 0 0.0103417)
(0 0 0.0101879)
(0 0 0.0100335)
(0 0 0.00987856)
(0 0 0.00972303)
(0 0 0.00956695)
(0 0 0.00941035)
(0 0 0.00925326)
(0 0 0.00909568)
(0 0 0.00893764)
(0 0 0.00877917)
(0 0 0.00862027)
(0 0 0.00846097)
(0 0 0.00830129)
(0 0 0.00814124)
(0 0 0.00798084)
(0 0 0.0078201)
(0 0 0.00765905)
(0 0 0.00749769)
(0 0 0.00733605)
(0 0 0.00717413)
(0 0 0.00701194)
(0 0 0.00684951)
(0 0 0.00668685)
(0 0 0.00652396)
(0 0 0.00636085)
(0 0 0.00619755)
(0 0 0.00603406)
(0 0 0.00587038)
(0 0 0.00570654)
(0 0 0.00554253)
(0 0 0.00537838)
(0 0 0.00521408)
(0 0 0.00504964)
(0 0 0.00488508)
(0 0 0.0047204)
(0 0 0.00455561)
(0 0 0.00439071)
(0 0 0.00422572)
(0 0 0.00406063)
(0 0 0.00389546)
(0 0 0.0037302)
(0 0 0.00356487)
(0 0 0.00339948)
(0 0 0.00323401)
(0 0 0.00306849)
(0 0 0.00290291)
(0 0 0.00273728)
(0 0 0.0025716)
(0 0 0.00240588)
(0 0 0.00224012)
(0 0 0.00207432)
(0 0 0.00190849)
(0 0 0.00174263)
(0 0 0.00157674)
(0 0 0.00141083)
(0 0 0.0012449)
(0 0 0.00107895)
(0 0 0.000912984)
(0 0 0.000747005)
(0 0 0.000581015)
(0 0 0.000415016)
(0 0 0.000249012)
(0 0 8.30045e-05)
(0 0 0.000119701)
(0 0 0.0003591)
(0 0 0.000598489)
(0 0 0.000837863)
(0 0 0.00107722)
(0 0 0.00131654)
(0 0 0.00155583)
(0 0 0.00179508)
(0 0 0.00203428)
(0 0 0.00227343)
(0 0 0.00251251)
(0 0 0.00275151)
(0 0 0.00299044)
(0 0 0.00322927)
(0 0 0.00346801)
(0 0 0.00370663)
(0 0 0.00394513)
(0 0 0.00418349)
(0 0 0.00442171)
(0 0 0.00465976)
(0 0 0.00489764)
(0 0 0.00513533)
(0 0 0.0053728)
(0 0 0.00561006)
(0 0 0.00584706)
(0 0 0.00608381)
(0 0 0.00632027)
(0 0 0.00655643)
(0 0 0.00679225)
(0 0 0.00702773)
(0 0 0.00726283)
(0 0 0.00749752)
(0 0 0.00773178)
(0 0 0.00796558)
(0 0 0.00819889)
(0 0 0.00843168)
(0 0 0.00866391)
(0 0 0.00889555)
(0 0 0.00912657)
(0 0 0.00935691)
(0 0 0.00958656)
(0 0 0.00981546)
(0 0 0.0100436)
(0 0 0.0102709)
(0 0 0.0104973)
(0 0 0.0107228)
(0 0 0.0109473)
(0 0 0.0111708)
(0 0 0.0113933)
(0 0 0.0116146)
(0 0 0.0118348)
(0 0 0.0120537)
(0 0 0.0122714)
(0 0 0.0124877)
(0 0 0.0127026)
(0 0 0.0129161)
(0 0 0.013128)
(0 0 0.0133384)
(0 0 0.0135471)
(0 0 0.0137541)
(0 0 0.0139593)
(0 0 0.0141627)
(0 0 0.0143642)
(0 0 0.0145637)
(0 0 0.0147612)
(0 0 0.0149565)
(0 0 0.0151497)
(0 0 0.0153406)
(0 0 0.0155292)
(0 0 0.0157154)
(0 0 0.0158992)
(0 0 0.0160804)
(0 0 0.016259)
(0 0 0.0164349)
(0 0 0.0166081)
(0 0 0.0167785)
(0 0 0.0169459)
(0 0 0.0171104)
(0 0 0.0172719)
(0 0 0.0174303)
(0 0 0.0175855)
(0 0 0.0177375)
(0 0 0.0178862)
(0 0 0.0180315)
(0 0 0.0181734)
(0 0 0.0183118)
(0 0 0.0184467)
(0 0 0.018578)
(0 0 0.0187056)
(0 0 0.0188295)
(0 0 0.0189496)
(0 0 0.0190659)
(0 0 0.0191783)
(0 0 0.0192869)
(0 0 0.0193914)
(0 0 0.019492)
(0 0 0.0195885)
(0 0 0.0196809)
(0 0 0.0197693)
(0 0 0.0198534)
(0 0 0.0199334)
(0 0 0.0200092)
(0 0 0.0200808)
(0 0 0.0201481)
(0 0 0.0202111)
(0 0 0.0202698)
(0 0 0.0203243)
(0 0 0.0203744)
(0 0 0.0204202)
(0 0 0.0204617)
(0 0 0.0204989)
(0 0 0.0205317)
(0 0 0.0205602)
(0 0 0.0205844)
(0 0 0.0206043)
(0 0 0.0206198)
(0 0 0.0206311)
(0 0 0.0206381)
(0 0 0.0206409)
(0 0 0.0206394)
(0 0 0.0206338)
(0 0 0.0206239)
(0 0 0.0206099)
(0 0 0.0205918)
(0 0 0.0205696)
(0 0 0.0205433)
(0 0 0.0205131)
(0 0 0.0204788)
(0 0 0.0204406)
(0 0 0.0203985)
(0 0 0.0203526)
(0 0 0.0203028)
(0 0 0.0202493)
(0 0 0.0201921)
(0 0 0.0201312)
(0 0 0.0200668)
(0 0 0.0199987)
(0 0 0.0199271)
(0 0 0.0198521)
(0 0 0.0197737)
(0 0 0.019692)
(0 0 0.0196069)
(0 0 0.0195187)
(0 0 0.0194272)
(0 0 0.0193327)
(0 0 0.0192351)
(0 0 0.0191345)
(0 0 0.0190309)
(0 0 0.0189245)
(0 0 0.0188152)
(0 0 0.0187032)
(0 0 0.0185885)
(0 0 0.0184711)
(0 0 0.0183512)
(0 0 0.0182287)
(0 0 0.0181037)
(0 0 0.0179764)
(0 0 0.0178467)
(0 0 0.0177146)
(0 0 0.0175804)
(0 0 0.0174439)
(0 0 0.0173054)
(0 0 0.0171647)
(0 0 0.017022)
(0 0 0.0168774)
(0 0 0.0167309)
(0 0 0.0165824)
(0 0 0.0164322)
(0 0 0.0162802)
(0 0 0.0161266)
(0 0 0.0159712)
(0 0 0.0158143)
(0 0 0.0156557)
(0 0 0.0154957)
(0 0 0.0153342)
(0 0 0.0151713)
(0 0 0.015007)
(0 0 0.0148413)
(0 0 0.0146744)
(0 0 0.0145062)
(0 0 0.0143368)
(0 0 0.0141662)
(0 0 0.0139946)
(0 0 0.0138218)
(0 0 0.0136479)
(0 0 0.0134731)
(0 0 0.0132972)
(0 0 0.0131204)
(0 0 0.0129427)
(0 0 0.0127642)
(0 0 0.0125847)
(0 0 0.0124045)
(0 0 0.0122235)
(0 0 0.0120417)
(0 0 0.0118592)
(0 0 0.011676)
(0 0 0.0114921)
(0 0 0.0113076)
(0 0 0.0111225)
(0 0 0.0109368)
(0 0 0.0107505)
(0 0 0.0105637)
(0 0 0.0103764)