/*--------------------------------*- C++ -*----------------------------------*\
| =========                 |                                                 |
| \\      /  F ield         | OpenFOAM: The Open Source CFD Toolbox           |
|  \\    /   O peration     | Version:  v2012                                 |
|   \\  /    A nd           | Website:  www.openfoam.com                      |
|    \\/     M anipulation  |                                                 |
\*---------------------------------------------------------------------------*/
FoamFile
{
    version     2.0;
    format      ascii;
    class       volVectorField;
    location    "6.4";
    object      U;
}
// * * * * * * * * * * * * * * * * * * * * * * * * * * * * * * * * * * * * * //

dimensions      [0 1 -1 0 0 0 0];


internalField   nonuniform List<vector> 
65536
(
(0.000749613 -0.000749604 0)
(0.00224882 -0.000749581 0)
(0.00374796 -0.000749539 0)
(0.00524699 -0.000749476 0)
(0.00674588 -0.000749391 0)
(0.00824457 -0.000749283 0)
(0.00974303 -0.000749152 0)
(0.0112412 -0.000748998 0)
(0.012739 -0.000748818 0)
(0.0142365 -0.000748612 0)
(0.0157335 -0.000748378 0)
(0.01723 -0.000748115 0)
(0.018726 -0.000747822 0)
(0.0202214 -0.000747496 0)
(0.021716 -0.000747136 0)
(0.0232099 -0.000746739 0)
(0.024703 -0.000746304 0)
(0.0261952 -0.000745828 0)
(0.0276864 -0.000745308 0)
(0.0291765 -0.000744743 0)
(0.0306654 -0.000744129 0)
(0.032153 -0.000743464 0)
(0.0336393 -0.000742744 0)
(0.0351241 -0.000741967 0)
(0.0366072 -0.000741129 0)
(0.0380886 -0.000740227 0)
(0.0395682 -0.000739258 0)
(0.0410457 -0.000738217 0)
(0.0425211 -0.000737102 0)
(0.0439942 -0.000735909 0)
(0.0454648 -0.000734634 0)
(0.0469328 -0.000733273 0)
(0.048398 -0.000731821 0)
(0.0498602 -0.000730276 0)
(0.0513192 -0.000728632 0)
(0.0527748 -0.000726886 0)
(0.0542269 -0.000725033 0)
(0.0556751 -0.000723069 0)
(0.0571193 -0.00072099 0)
(0.0585592 -0.00071879 0)
(0.0599945 -0.000716467 0)
(0.0614251 -0.000714015 0)
(0.0628507 -0.00071143 0)
(0.064271 -0.000708707 0)
(0.0656857 -0.000705842 0)
(0.0670945 -0.000702831 0)
(0.0684972 -0.000699668 0)
(0.0698933 -0.000696351 0)
(0.0712827 -0.000692874 0)
(0.072665 -0.000689233 0)
(0.0740398 -0.000685424 0)
(0.0754069 -0.000681443 0)
(0.0767658 -0.000677286 0)
(0.0781162 -0.000672949 0)
(0.0794577 -0.000668429 0)
(0.0807901 -0.00066372 0)
(0.0821128 -0.000658821 0)
(0.0834256 -0.000653728 0)
(0.0847279 -0.000648436 0)
(0.0860195 -0.000642945 0)
(0.0872999 -0.00063725 0)
(0.0885687 -0.000631348 0)
(0.0898255 -0.000625239 0)
(0.0910699 -0.000618918 0)
(0.0923014 -0.000612385 0)
(0.0935196 -0.000605638 0)
(0.0947241 -0.000598675 0)
(0.0959145 -0.000591494 0)
(0.0970903 -0.000584096 0)
(0.0982511 -0.000576479 0)
(0.0993965 -0.000568642 0)
(0.100526 -0.000560587 0)
(0.101639 -0.000552313 0)
(0.102735 -0.00054382 0)
(0.103815 -0.00053511 0)
(0.104876 -0.000526184 0)
(0.105919 -0.000517043 0)
(0.106944 -0.000507689 0)
(0.10795 -0.000498124 0)
(0.108937 -0.000488351 0)
(0.109904 -0.000478372 0)
(0.110851 -0.000468191 0)
(0.111777 -0.000457811 0)
(0.112682 -0.000447236 0)
(0.113566 -0.00043647 0)
(0.114428 -0.000425518 0)
(0.115268 -0.000414385 0)
(0.116086 -0.000403074 0)
(0.116881 -0.000391592 0)
(0.117653 -0.000379945 0)
(0.118401 -0.000368138 0)
(0.119125 -0.000356178 0)
(0.119826 -0.000344071 0)
(0.120502 -0.000331824 0)
(0.121153 -0.000319443 0)
(0.12178 -0.000306936 0)
(0.122381 -0.000294311 0)
(0.122957 -0.000281574 0)
(0.123507 -0.000268733 0)
(0.124032 -0.000255798 0)
(0.124531 -0.000242774 0)
(0.125003 -0.000229672 0)
(0.125449 -0.000216498 0)
(0.125869 -0.000203261 0)
(0.126262 -0.00018997 0)
(0.126629 -0.000176633 0)
(0.126969 -0.000163259 0)
(0.127282 -0.000149856 0)
(0.127569 -0.000136432 0)
(0.127828 -0.000122997 0)
(0.12806 -0.000109559 0)
(0.128266 -9.61254e-05 0)
(0.128445 -8.27054e-05 0)
(0.128597 -6.93072e-05 0)
(0.128722 -5.59389e-05 0)
(0.128821 -4.26085e-05 0)
(0.128893 -2.93239e-05 0)
(0.128938 -1.6093e-05 0)
(0.128957 -2.92335e-06 0)
(0.12895 1.01776e-05 0)
(0.128916 2.32027e-05 0)
(0.128857 3.61448e-05 0)
(0.128771 4.8997e-05 0)
(0.128661 6.17527e-05 0)
(0.128524 7.44055e-05 0)
(0.128363 8.69493e-05 0)
(0.128176 9.93779e-05 0)
(0.127965 0.000111686 0)
(0.12773 0.000123868 0)
(0.12747 0.000135918 0)
(0.127186 0.000147832 0)
(0.126878 0.000159605 0)
(0.126547 0.000171233 0)
(0.126193 0.000182711 0)
(0.125816 0.000194036 0)
(0.125417 0.000205204 0)
(0.124995 0.000216212 0)
(0.124552 0.000227056 0)
(0.124087 0.000237734 0)
(0.123601 0.000248243 0)
(0.123094 0.000258581 0)
(0.122566 0.000268745 0)
(0.122019 0.000278735 0)
(0.121451 0.000288549 0)
(0.120864 0.000298184 0)
(0.120258 0.000307641 0)
(0.119633 0.000316917 0)
(0.11899 0.000326014 0)
(0.118329 0.000334929 0)
(0.11765 0.000343663 0)
(0.116954 0.000352216 0)
(0.116241 0.000360588 0)
(0.115512 0.00036878 0)
(0.114766 0.000376791 0)
(0.114004 0.000384622 0)
(0.113227 0.000392275 0)
(0.112435 0.00039975 0)
(0.111628 0.000407049 0)
(0.110807 0.000414172 0)
(0.109971 0.000421122 0)
(0.109122 0.000427899 0)
(0.10826 0.000434505 0)
(0.107384 0.000440943 0)
(0.106496 0.000447213 0)
(0.105595 0.000453318 0)
(0.104682 0.00045926 0)
(0.103758 0.00046504 0)
(0.102822 0.000470662 0)
(0.101875 0.000476127 0)
(0.100917 0.000481438 0)
(0.0999491 0.000486597 0)
(0.0989707 0.000491606 0)
(0.0979825 0.000496468 0)
(0.0969847 0.000501185 0)
(0.0959776 0.00050576 0)
(0.0949615 0.000510195 0)
(0.0939367 0.000514494 0)
(0.0929034 0.000518658 0)
(0.091862 0.00052269 0)
(0.0908125 0.000526593 0)
(0.0897555 0.000530369 0)
(0.0886909 0.000534022 0)
(0.0876193 0.000537553 0)
(0.0865406 0.000540965 0)
(0.0854553 0.000544261 0)
(0.0843635 0.000547444 0)
(0.0832654 0.000550516 0)
(0.0821613 0.00055348 0)
(0.0810514 0.000556338 0)
(0.0799358 0.000559093 0)
(0.0788149 0.000561747 0)
(0.0776888 0.000564304 0)
(0.0765576 0.000566765 0)
(0.0754216 0.000569133 0)
(0.074281 0.00057141 0)
(0.0731359 0.000573599 0)
(0.0719865 0.000575703 0)
(0.070833 0.000577723 0)
(0.0696755 0.000579662 0)
(0.0685143 0.000581523 0)
(0.0673494 0.000583307 0)
(0.066181 0.000585016 0)
(0.0650092 0.000586654 0)
(0.0638343 0.000588223 0)
(0.0626563 0.000589723 0)
(0.0614753 0.000591158 0)
(0.0602916 0.00059253 0)
(0.0591051 0.00059384 0)
(0.0579162 0.000595091 0)
(0.0567247 0.000596285 0)
(0.055531 0.000597423 0)
(0.054335 0.000598508 0)
(0.0531369 0.000599541 0)
(0.0519368 0.000600524 0)
(0.0507347 0.000601459 0)
(0.0495309 0.000602347 0)
(0.0483253 0.000603192 0)
(0.0471181 0.000603993 0)
(0.0459093 0.000604753 0)
(0.044699 0.000605473 0)
(0.0434874 0.000606155 0)
(0.0422744 0.0006068 0)
(0.0410601 0.000607411 0)
(0.0398447 0.000607987 0)
(0.0386281 0.000608531 0)
(0.0374105 0.000609045 0)
(0.0361919 0.000609528 0)
(0.0349724 0.000609983 0)
(0.033752 0.000610412 0)
(0.0325307 0.000610814 0)
(0.0313087 0.000611191 0)
(0.0300859 0.000611545 0)
(0.0288625 0.000611876 0)
(0.0276384 0.000612185 0)
(0.0264137 0.000612474 0)
(0.0251885 0.000612744 0)
(0.0239627 0.000612994 0)
(0.0227365 0.000613227 0)
(0.0215098 0.000613442 0)
(0.0202827 0.000613642 0)
(0.0190552 0.000613825 0)
(0.0178274 0.000613994 0)
(0.0165992 0.000614149 0)
(0.0153708 0.00061429 0)
(0.0141421 0.000614418 0)
(0.0129131 0.000614534 0)
(0.0116839 0.000614637 0)
(0.0104545 0.000614729 0)
(0.00922499 0.00061481 0)
(0.00799529 0.00061488 0)
(0.00676546 0.000614939 0)
(0.00553552 0.000614988 0)
(0.0043055 0.000615027 0)
(0.0030754 0.000615056 0)
(0.00184526 0.000615076 0)
(0.00061509 0.000615085 0)
(0.000749632 -0.00224883 0)
(0.00224888 -0.00224876 0)
(0.00374806 -0.00224864 0)
(0.00524713 -0.00224845 0)
(0.00674606 -0.00224819 0)
(0.0082448 -0.00224787 0)
(0.00974331 -0.00224748 0)
(0.0112415 -0.00224702 0)
(0.0127394 -0.00224648 0)
(0.0142369 -0.00224586 0)
(0.015734 -0.00224516 0)
(0.0172306 -0.00224437 0)
(0.0187266 -0.0022435 0)
(0.020222 -0.00224252 0)
(0.0217168 -0.00224144 0)
(0.0232107 -0.00224025 0)
(0.0247039 -0.00223895 0)
(0.0261962 -0.00223752 0)
(0.0276874 -0.00223597 0)
(0.0291776 -0.00223427 0)
(0.0306666 -0.00223244 0)
(0.0321544 -0.00223044 0)
(0.0336408 -0.00222829 0)
(0.0351256 -0.00222596 0)
(0.0366089 -0.00222345 0)
(0.0380905 -0.00222075 0)
(0.0395702 -0.00221784 0)
(0.0410478 -0.00221472 0)
(0.0425234 -0.00221138 0)
(0.0439966 -0.00220781 0)
(0.0454674 -0.00220399 0)
(0.0469356 -0.00219991 0)
(0.048401 -0.00219556 0)
(0.0498634 -0.00219092 0)
(0.0513226 -0.002186 0)
(0.0527784 -0.00218076 0)
(0.0542306 -0.00217521 0)
(0.0556791 -0.00216932 0)
(0.0571235 -0.00216309 0)
(0.0585636 -0.00215649 0)
(0.0599993 -0.00214953 0)
(0.0614301 -0.00214218 0)
(0.062856 -0.00213442 0)
(0.0642765 -0.00212626 0)
(0.0656915 -0.00211767 0)
(0.0671006 -0.00210864 0)
(0.0685036 -0.00209916 0)
(0.0699001 -0.00208921 0)
(0.0712898 -0.00207878 0)
(0.0726724 -0.00206786 0)
(0.0740475 -0.00205644 0)
(0.0754149 -0.0020445 0)
(0.0767742 -0.00203204 0)
(0.078125 -0.00201903 0)
(0.0794669 -0.00200547 0)
(0.0807996 -0.00199135 0)
(0.0821227 -0.00197665 0)
(0.0834359 -0.00196138 0)
(0.0847386 -0.00194551 0)
(0.0860306 -0.00192903 0)
(0.0873114 -0.00191195 0)
(0.0885806 -0.00189425 0)
(0.0898379 -0.00187592 0)
(0.0910826 -0.00185697 0)
(0.0923146 -0.00183737 0)
(0.0935333 -0.00181713 0)
(0.0947382 -0.00179624 0)
(0.095929 -0.0017747 0)
(0.0971053 -0.0017525 0)
(0.0982665 -0.00172965 0)
(0.0994123 -0.00170614 0)
(0.100542 -0.00168198 0)
(0.101656 -0.00165716 0)
(0.102753 -0.00163168 0)
(0.103832 -0.00160555 0)
(0.104894 -0.00157876 0)
(0.105938 -0.00155134 0)
(0.106963 -0.00152328 0)
(0.10797 -0.00149458 0)
(0.108957 -0.00146526 0)
(0.109924 -0.00143532 0)
(0.110871 -0.00140477 0)
(0.111798 -0.00137363 0)
(0.112704 -0.0013419 0)
(0.113588 -0.0013096 0)
(0.11445 -0.00127674 0)
(0.115291 -0.00124333 0)
(0.116109 -0.00120939 0)
(0.116904 -0.00117494 0)
(0.117676 -0.00113999 0)
(0.118424 -0.00110457 0)
(0.119149 -0.00106868 0)
(0.11985 -0.00103235 0)
(0.120526 -0.000995603 0)
(0.121178 -0.000958454 0)
(0.121805 -0.000920927 0)
(0.122406 -0.000883042 0)
(0.122982 -0.000844824 0)
(0.123533 -0.000806296 0)
(0.124058 -0.00076748 0)
(0.124557 -0.000728402 0)
(0.125029 -0.000689086 0)
(0.125476 -0.000649556 0)
(0.125896 -0.000609838 0)
(0.126289 -0.000569956 0)
(0.126656 -0.000529937 0)
(0.126996 -0.000489806 0)
(0.127309 -0.000449588 0)
(0.127595 -0.00040931 0)
(0.127855 -0.000368996 0)
(0.128087 -0.000328672 0)
(0.128293 -0.000288363 0)
(0.128472 -0.000248095 0)
(0.128624 -0.000207893 0)
(0.128749 -0.00016778 0)
(0.128847 -0.000127781 0)
(0.128919 -8.79193e-05 0)
(0.128964 -4.8219e-05 0)
(0.128983 -8.70263e-06 0)
(0.128976 3.06075e-05 0)
(0.128942 6.96897e-05 0)
(0.128882 0.000108523 0)
(0.128797 0.000147086 0)
(0.128686 0.000185359 0)
(0.128549 0.000223324 0)
(0.128388 0.000260961 0)
(0.128201 0.000298253 0)
(0.12799 0.000335182 0)
(0.127754 0.000371733 0)
(0.127494 0.000407889 0)
(0.127209 0.000443636 0)
(0.126901 0.000478959 0)
(0.12657 0.000513847 0)
(0.126216 0.000548285 0)
(0.125839 0.000582263 0)
(0.125439 0.00061577 0)
(0.125017 0.000648796 0)
(0.124573 0.000681331 0)
(0.124108 0.000713367 0)
(0.123621 0.000744897 0)
(0.123114 0.000775913 0)
(0.122586 0.000806409 0)
(0.122038 0.00083638 0)
(0.12147 0.000865821 0)
(0.120883 0.000894729 0)
(0.120277 0.000923099 0)
(0.119652 0.00095093 0)
(0.119008 0.000978219 0)
(0.118347 0.00100497 0)
(0.117668 0.00103117 0)
(0.116971 0.00105683 0)
(0.116258 0.00108194 0)
(0.115528 0.00110652 0)
(0.114782 0.00113055 0)
(0.11402 0.00115404 0)
(0.113242 0.001177 0)
(0.11245 0.00119942 0)
(0.111643 0.00122132 0)
(0.110821 0.00124269 0)
(0.109985 0.00126354 0)
(0.109136 0.00128386 0)
(0.108273 0.00130368 0)
(0.107397 0.00132299 0)
(0.106508 0.0013418 0)
(0.105607 0.00136011 0)
(0.104694 0.00137794 0)
(0.103769 0.00139528 0)
(0.102833 0.00141214 0)
(0.101886 0.00142853 0)
(0.100928 0.00144446 0)
(0.0999592 0.00145994 0)
(0.0989806 0.00147496 0)
(0.097992 0.00148955 0)
(0.096994 0.00150369 0)
(0.0959866 0.00151742 0)
(0.0949702 0.00153072 0)
(0.0939451 0.00154361 0)
(0.0929116 0.0015561 0)
(0.0918699 0.0015682 0)
(0.0908202 0.0015799 0)
(0.0897629 0.00159123 0)
(0.0886981 0.00160218 0)
(0.0876262 0.00161277 0)
(0.0865473 0.00162301 0)
(0.0854617 0.00163289 0)
(0.0843697 0.00164244 0)
(0.0832714 0.00165165 0)
(0.0821671 0.00166054 0)
(0.081057 0.00166911 0)
(0.0799412 0.00167738 0)
(0.0788201 0.00168534 0)
(0.0776938 0.001693 0)
(0.0765624 0.00170039 0)
(0.0754262 0.00170749 0)
(0.0742854 0.00171432 0)
(0.0731402 0.00172088 0)
(0.0719906 0.00172719 0)
(0.0708369 0.00173325 0)
(0.0696793 0.00173906 0)
(0.0685179 0.00174464 0)
(0.0673528 0.00174999 0)
(0.0661843 0.00175512 0)
(0.0650124 0.00176003 0)
(0.0638373 0.00176473 0)
(0.0626592 0.00176923 0)
(0.0614781 0.00177354 0)
(0.0602942 0.00177765 0)
(0.0591077 0.00178158 0)
(0.0579186 0.00178533 0)
(0.056727 0.00178891 0)
(0.0555332 0.00179232 0)
(0.0543371 0.00179557 0)
(0.0531389 0.00179867 0)
(0.0519387 0.00180162 0)
(0.0507366 0.00180442 0)
(0.0495326 0.00180709 0)
(0.0483269 0.00180962 0)
(0.0471196 0.00181202 0)
(0.0459108 0.0018143 0)
(0.0447004 0.00181646 0)
(0.0434887 0.0018185 0)
(0.0422756 0.00182044 0)
(0.0410613 0.00182226 0)
(0.0398458 0.00182399 0)
(0.0386292 0.00182562 0)
(0.0374115 0.00182716 0)
(0.0361929 0.00182861 0)
(0.0349733 0.00182998 0)
(0.0337528 0.00183126 0)
(0.0325315 0.00183247 0)
(0.0313094 0.0018336 0)
(0.0300866 0.00183466 0)
(0.0288631 0.00183565 0)
(0.027639 0.00183658 0)
(0.0264143 0.00183744 0)
(0.025189 0.00183825 0)
(0.0239632 0.001839 0)
(0.022737 0.0018397 0)
(0.0215102 0.00184034 0)
(0.0202831 0.00184094 0)
(0.0190556 0.00184149 0)
(0.0178277 0.001842 0)
(0.0165995 0.00184246 0)
(0.0153711 0.00184288 0)
(0.0141423 0.00184327 0)
(0.0129133 0.00184361 0)
(0.0116841 0.00184392 0)
(0.0104547 0.0018442 0)
(0.00922514 0.00184444 0)
(0.00799542 0.00184465 0)
(0.00676557 0.00184483 0)
(0.00553561 0.00184498 0)
(0.00430557 0.00184509 0)
(0.00307545 0.00184518 0)
(0.00184529 0.00184524 0)
(0.0006151 0.00184527 0)
(0.000749674 -0.00374811 0)
(0.002249 -0.00374801 0)
(0.00374827 -0.0037478 0)
(0.00524743 -0.00374748 0)
(0.00674645 -0.00374706 0)
(0.00824528 -0.00374653 0)
(0.00974388 -0.00374588 0)
(0.0112422 -0.00374511 0)
(0.0127402 -0.00374422 0)
(0.0142378 -0.00374319 0)
(0.015735 -0.00374203 0)
(0.0172317 -0.00374072 0)
(0.0187278 -0.00373927 0)
(0.0202234 -0.00373765 0)
(0.0217183 -0.00373585 0)
(0.0232124 -0.00373388 0)
(0.0247057 -0.00373172 0)
(0.0261981 -0.00372935 0)
(0.0276896 -0.00372677 0)
(0.02918 -0.00372395 0)
(0.0306692 -0.0037209 0)
(0.0321572 -0.00371758 0)
(0.0336438 -0.003714 0)
(0.0351289 -0.00371013 0)
(0.0366124 -0.00370596 0)
(0.0380942 -0.00370147 0)
(0.0395742 -0.00369664 0)
(0.0410522 -0.00369145 0)
(0.042528 -0.0036859 0)
(0.0440016 -0.00367995 0)
(0.0454727 -0.0036736 0)
(0.0469412 -0.00366681 0)
(0.048407 -0.00365957 0)
(0.0498697 -0.00365187 0)
(0.0513293 -0.00364367 0)
(0.0527856 -0.00363496 0)
(0.0542383 -0.00362572 0)
(0.0556872 -0.00361592 0)
(0.057132 -0.00360554 0)
(0.0585727 -0.00359457 0)
(0.0600088 -0.00358297 0)
(0.0614402 -0.00357073 0)
(0.0628666 -0.00355783 0)
(0.0642877 -0.00354424 0)
(0.0657033 -0.00352994 0)
(0.067113 -0.0035149 0)
(0.0685166 -0.00349911 0)
(0.0699137 -0.00348255 0)
(0.071304 -0.00346518 0)
(0.0726873 -0.003447 0)
(0.0740631 -0.00342798 0)
(0.0754312 -0.00340809 0)
(0.0767912 -0.00338733 0)
(0.0781427 -0.00336566 0)
(0.0794854 -0.00334308 0)
(0.0808189 -0.00331955 0)
(0.0821428 -0.00329507 0)
(0.0834567 -0.00326962 0)
(0.0847602 -0.00324318 0)
(0.086053 -0.00321574 0)
(0.0873346 -0.00318727 0)
(0.0886047 -0.00315778 0)
(0.0898627 -0.00312724 0)
(0.0911084 -0.00309565 0)
(0.0923412 -0.00306299 0)
(0.0935607 -0.00302926 0)
(0.0947665 -0.00299445 0)
(0.0959582 -0.00295856 0)
(0.0971354 -0.00292157 0)
(0.0982975 -0.00288348 0)
(0.0994441 -0.0028443 0)
(0.100575 -0.00280403 0)
(0.101689 -0.00276265 0)
(0.102787 -0.00272019 0)
(0.103867 -0.00267663 0)
(0.10493 -0.00263199 0)
(0.105975 -0.00258628 0)
(0.107001 -0.00253949 0)
(0.108008 -0.00249166 0)
(0.108996 -0.00244278 0)
(0.109965 -0.00239287 0)
(0.110912 -0.00234195 0)
(0.11184 -0.00229003 0)
(0.112746 -0.00223713 0)
(0.113631 -0.00218328 0)
(0.114495 -0.0021285 0)
(0.115336 -0.0020728 0)
(0.116154 -0.00201622 0)
(0.11695 -0.00195879 0)
(0.117723 -0.00190052 0)
(0.118472 -0.00184146 0)
(0.119197 -0.00178162 0)
(0.119899 -0.00172106 0)
(0.120576 -0.00165978 0)
(0.121228 -0.00159784 0)
(0.121855 -0.00153527 0)
(0.122457 -0.00147211 0)
(0.123034 -0.00140839 0)
(0.123585 -0.00134415 0)
(0.12411 -0.00127943 0)
(0.124609 -0.00121427 0)
(0.125082 -0.00114871 0)
(0.125529 -0.0010828 0)
(0.125949 -0.00101658 0)
(0.126342 -0.00095008 0)
(0.126709 -0.000883353 0)
(0.127049 -0.00081644 0)
(0.127363 -0.000749382 0)
(0.127649 -0.000682222 0)
(0.127909 -0.000615004 0)
(0.128141 -0.00054777 0)
(0.128347 -0.000480561 0)
(0.128525 -0.00041342 0)
(0.128677 -0.000346388 0)
(0.128802 -0.000279506 0)
(0.128901 -0.000212815 0)
(0.128972 -0.000146354 0)
(0.129017 -8.0161e-05 0)
(0.129036 -1.42755e-05 0)
(0.129028 5.12656e-05 0)
(0.128994 0.000116426 0)
(0.128934 0.000181171 0)
(0.128848 0.000245465 0)
(0.128737 0.000309275 0)
(0.1286 0.00037257 0)
(0.128438 0.000435318 0)
(0.128251 0.00049749 0)
(0.128039 0.000559057 0)
(0.127802 0.000619992 0)
(0.127542 0.000680269 0)
(0.127257 0.000739862 0)
(0.126948 0.00079875 0)
(0.126616 0.00085691 0)
(0.126261 0.00091432 0)
(0.125884 0.000970962 0)
(0.125483 0.00102682 0)
(0.125061 0.00108187 0)
(0.124616 0.00113611 0)
(0.12415 0.00118951 0)
(0.123663 0.00124206 0)
(0.123155 0.00129376 0)
(0.122627 0.0013446 0)
(0.122078 0.00139455 0)
(0.121509 0.00144363 0)
(0.120921 0.00149181 0)
(0.120314 0.0015391 0)
(0.119689 0.00158548 0)
(0.119044 0.00163097 0)
(0.118382 0.00167555 0)
(0.117702 0.00171922 0)
(0.117005 0.00176198 0)
(0.116291 0.00180384 0)
(0.11556 0.00184479 0)
(0.114814 0.00188485 0)
(0.114051 0.001924 0)
(0.113273 0.00196226 0)
(0.112479 0.00199963 0)
(0.111671 0.00203612 0)
(0.110849 0.00207173 0)
(0.110013 0.00210647 0)
(0.109162 0.00214034 0)
(0.108299 0.00217337 0)
(0.107422 0.00220554 0)
(0.106533 0.00223689 0)
(0.105631 0.0022674 0)
(0.104717 0.0022971 0)
(0.103792 0.00232599 0)
(0.102855 0.00235409 0)
(0.101907 0.0023814 0)
(0.100949 0.00240795 0)
(0.0999796 0.00243373 0)
(0.0990003 0.00245876 0)
(0.0980112 0.00248306 0)
(0.0970126 0.00250663 0)
(0.0960046 0.00252949 0)
(0.0949877 0.00255166 0)
(0.0939621 0.00257314 0)
(0.092928 0.00259394 0)
(0.0918857 0.00261409 0)
(0.0908356 0.00263359 0)
(0.0897777 0.00265246 0)
(0.0887125 0.00267071 0)
(0.0876401 0.00268835 0)
(0.0865607 0.0027054 0)
(0.0854747 0.00272187 0)
(0.0843822 0.00273777 0)
(0.0832835 0.00275312 0)
(0.0821787 0.00276792 0)
(0.0810682 0.0027822 0)
(0.0799521 0.00279596 0)
(0.0788305 0.00280922 0)
(0.0777038 0.00282199 0)
(0.0765721 0.00283428 0)
(0.0754355 0.00284611 0)
(0.0742944 0.00285749 0)
(0.0731487 0.00286842 0)
(0.0719989 0.00287893 0)
(0.0708449 0.00288902 0)
(0.0696869 0.0028987 0)
(0.0685252 0.00290799 0)
(0.0673598 0.0029169 0)
(0.066191 0.00292544 0)
(0.0650188 0.00293362 0)
(0.0638435 0.00294145 0)
(0.0626651 0.00294894 0)
(0.0614837 0.00295611 0)
(0.0602996 0.00296295 0)
(0.0591128 0.0029695 0)
(0.0579235 0.00297574 0)
(0.0567317 0.0029817 0)
(0.0555376 0.00298738 0)
(0.0543413 0.00299279 0)
(0.0531429 0.00299795 0)
(0.0519425 0.00300286 0)
(0.0507402 0.00300752 0)
(0.0495361 0.00301196 0)
(0.0483302 0.00301617 0)
(0.0471228 0.00302017 0)
(0.0459137 0.00302396 0)
(0.0447032 0.00302755 0)
(0.0434913 0.00303096 0)
(0.0422781 0.00303418 0)
(0.0410637 0.00303722 0)
(0.0398481 0.0030401 0)
(0.0386313 0.00304281 0)
(0.0374135 0.00304537 0)
(0.0361948 0.00304778 0)
(0.034975 0.00305005 0)
(0.0337545 0.00305219 0)
(0.0325331 0.00305419 0)
(0.0313109 0.00305607 0)
(0.030088 0.00305784 0)
(0.0288644 0.00305949 0)
(0.0276402 0.00306103 0)
(0.0264154 0.00306247 0)
(0.0251901 0.00306381 0)
(0.0239642 0.00306506 0)
(0.0227378 0.00306622 0)
(0.0215111 0.00306729 0)
(0.0202839 0.00306829 0)
(0.0190563 0.0030692 0)
(0.0178284 0.00307004 0)
(0.0166001 0.00307081 0)
(0.0153716 0.00307152 0)
(0.0141428 0.00307215 0)
(0.0129138 0.00307273 0)
(0.0116845 0.00307325 0)
(0.0104551 0.0030737 0)
(0.00922544 0.00307411 0)
(0.00799568 0.00307445 0)
(0.00676579 0.00307475 0)
(0.00553579 0.00307499 0)
(0.0043057 0.00307519 0)
(0.00307555 0.00307533 0)
(0.00184535 0.00307543 0)
(0.000615119 0.00307548 0)
(0.000749737 -0.0052475 0)
(0.00224919 -0.00524736 0)
(0.00374858 -0.00524707 0)
(0.00524788 -0.00524663 0)
(0.00674703 -0.00524604 0)
(0.00824599 -0.0052453 0)
(0.00974473 -0.0052444 0)
(0.0112432 -0.00524333 0)
(0.0127413 -0.00524209 0)
(0.0142391 -0.00524066 0)
(0.0157365 -0.00523905 0)
(0.0172334 -0.00523723 0)
(0.0187297 -0.0052352 0)
(0.0202255 -0.00523294 0)
(0.0217205 -0.00523045 0)
(0.0232149 -0.00522771 0)
(0.0247085 -0.00522469 0)
(0.0262011 -0.00522139 0)
(0.0276928 -0.00521779 0)
(0.0291835 -0.00521387 0)
(0.030673 -0.00520962 0)
(0.0321613 -0.005205 0)
(0.0336482 -0.0052 0)
(0.0351337 -0.00519461 0)
(0.0366176 -0.00518879 0)
(0.0380998 -0.00518252 0)
(0.0395802 -0.00517579 0)
(0.0410586 -0.00516856 0)
(0.0425349 -0.00516081 0)
(0.044009 -0.00515251 0)
(0.0454806 -0.00514364 0)
(0.0469497 -0.00513416 0)
(0.048416 -0.00512406 0)
(0.0498793 -0.0051133 0)
(0.0513395 -0.00510185 0)
(0.0527964 -0.00508969 0)
(0.0542497 -0.00507678 0)
(0.0556993 -0.00506309 0)
(0.0571449 -0.0050486 0)
(0.0585862 -0.00503327 0)
(0.0600231 -0.00501706 0)
(0.0614553 -0.00499996 0)
(0.0628825 -0.00498193 0)
(0.0643045 -0.00496293 0)
(0.0657209 -0.00494294 0)
(0.0671315 -0.00492192 0)
(0.068536 -0.00489985 0)
(0.0699341 -0.00487668 0)
(0.0713254 -0.0048524 0)
(0.0727097 -0.00482698 0)
(0.0740865 -0.00480037 0)
(0.0754557 -0.00477256 0)
(0.0768167 -0.00474352 0)
(0.0781693 -0.00471321 0)
(0.0795131 -0.00468162 0)
(0.0808477 -0.00464871 0)
(0.0821728 -0.00461446 0)
(0.0834879 -0.00457885 0)
(0.0847926 -0.00454186 0)
(0.0860866 -0.00450346 0)
(0.0873695 -0.00446363 0)
(0.0886408 -0.00442235 0)
(0.0899001 -0.00437962 0)
(0.091147 -0.0043354 0)
(0.0923811 -0.00428969 0)
(0.0936019 -0.00424248 0)
(0.094809 -0.00419376 0)
(0.096002 -0.00414351 0)
(0.0971805 -0.00409173 0)
(0.0983439 -0.00403841 0)
(0.0994919 -0.00398356 0)
(0.100624 -0.00392717 0)
(0.10174 -0.00386924 0)
(0.102839 -0.00380978 0)
(0.10392 -0.0037488 0)
(0.104985 -0.00368629 0)
(0.106031 -0.00362228 0)
(0.107058 -0.00355677 0)
(0.108067 -0.00348978 0)
(0.109056 -0.00342133 0)
(0.110025 -0.00335143 0)
(0.110974 -0.00328012 0)
(0.111903 -0.00320741 0)
(0.11281 -0.00313332 0)
(0.113697 -0.0030579 0)
(0.114561 -0.00298117 0)
(0.115403 -0.00290316 0)
(0.116223 -0.00282392 0)
(0.11702 -0.00274346 0)
(0.117793 -0.00266185 0)
(0.118544 -0.00257912 0)
(0.11927 -0.0024953 0)
(0.119972 -0.00241046 0)
(0.12065 -0.00232463 0)
(0.121303 -0.00223787 0)
(0.121931 -0.00215022 0)
(0.122533 -0.00206173 0)
(0.123111 -0.00197246 0)
(0.123662 -0.00188247 0)
(0.124188 -0.00179181 0)
(0.124688 -0.00170053 0)
(0.125161 -0.0016087 0)
(0.125608 -0.00151636 0)
(0.126029 -0.00142359 0)
(0.126422 -0.00133043 0)
(0.12679 -0.00123696 0)
(0.12713 -0.00114322 0)
(0.127443 -0.00104928 0)
(0.12773 -0.000955194 0)
(0.127989 -0.000861029 0)
(0.128222 -0.000766841 0)
(0.128427 -0.000672691 0)
(0.128606 -0.000578635 0)
(0.128758 -0.000484733 0)
(0.128883 -0.000391043 0)
(0.128981 -0.000297619 0)
(0.129052 -0.000204518 0)
(0.129097 -0.000111796 0)
(0.129115 -1.95037e-05 0)
(0.129106 7.23047e-05 0)
(0.129072 0.000163579 0)
(0.129012 0.000254269 0)
(0.128925 0.000344328 0)
(0.128813 0.000433707 0)
(0.128676 0.000522364 0)
(0.128513 0.000610253 0)
(0.128325 0.000697333 0)
(0.128112 0.000783565 0)
(0.127875 0.00086891 0)
(0.127614 0.000953332 0)
(0.127328 0.0010368 0)
(0.127019 0.00111927 0)
(0.126686 0.00120072 0)
(0.12633 0.00128112 0)
(0.125951 0.00136045 0)
(0.12555 0.00143867 0)
(0.125126 0.00151577 0)
(0.124681 0.00159171 0)
(0.124214 0.00166649 0)
(0.123726 0.00174009 0)
(0.123217 0.00181248 0)
(0.122687 0.00188366 0)
(0.122137 0.00195361 0)
(0.121568 0.00202233 0)
(0.120979 0.00208979 0)
(0.120371 0.002156 0)
(0.119744 0.00222094 0)
(0.119098 0.00228462 0)
(0.118435 0.00234703 0)
(0.117754 0.00240817 0)
(0.117056 0.00246804 0)
(0.116341 0.00252664 0)
(0.115609 0.00258397 0)
(0.114861 0.00264004 0)
(0.114097 0.00269485 0)
(0.113318 0.00274841 0)
(0.112524 0.00280072 0)
(0.111715 0.00285179 0)
(0.110891 0.00290164 0)
(0.110054 0.00295026 0)
(0.109202 0.00299768 0)
(0.108338 0.0030439 0)
(0.10746 0.00308893 0)
(0.10657 0.0031328 0)
(0.105667 0.0031755 0)
(0.104753 0.00321707 0)
(0.103826 0.0032575 0)
(0.102888 0.00329682 0)
(0.10194 0.00333505 0)
(0.10098 0.00337219 0)
(0.10001 0.00340827 0)
(0.0990299 0.00344329 0)
(0.09804 0.00347729 0)
(0.0970405 0.00351028 0)
(0.0960317 0.00354227 0)
(0.0950139 0.00357328 0)
(0.0939875 0.00360333 0)
(0.0929526 0.00363244 0)
(0.0919095 0.00366063 0)
(0.0908586 0.00368792 0)
(0.0898 0.00371431 0)
(0.088734 0.00373984 0)
(0.0876609 0.00376452 0)
(0.0865808 0.00378837 0)
(0.0854941 0.00381141 0)
(0.084401 0.00383365 0)
(0.0833016 0.00385512 0)
(0.0821962 0.00387583 0)
(0.081085 0.0038958 0)
(0.0799683 0.00391505 0)
(0.0788461 0.0039336 0)
(0.0777188 0.00395146 0)
(0.0765865 0.00396865 0)
(0.0754495 0.00398519 0)
(0.0743078 0.0040011 0)
(0.0731616 0.00401639 0)
(0.0720112 0.00403108 0)
(0.0708567 0.00404519 0)
(0.0696983 0.00405873 0)
(0.0685361 0.00407172 0)
(0.0673703 0.00408418 0)
(0.066201 0.00409612 0)
(0.0650284 0.00410755 0)
(0.0638527 0.0041185 0)
(0.0626739 0.00412898 0)
(0.0614921 0.00413899 0)
(0.0603076 0.00414856 0)
(0.0591205 0.00415771 0)
(0.0579308 0.00416644 0)
(0.0567387 0.00417477 0)
(0.0555443 0.00418271 0)
(0.0543477 0.00419027 0)
(0.053149 0.00419748 0)
(0.0519483 0.00420434 0)
(0.0507457 0.00421086 0)
(0.0495413 0.00421705 0)
(0.0483352 0.00422294 0)
(0.0471274 0.00422853 0)
(0.0459182 0.00423382 0)
(0.0447074 0.00423884 0)
(0.0434953 0.0042436 0)
(0.0422819 0.00424809 0)
(0.0410672 0.00425234 0)
(0.0398514 0.00425636 0)
(0.0386345 0.00426015 0)
(0.0374165 0.00426373 0)
(0.0361976 0.00426709 0)
(0.0349777 0.00427026 0)
(0.0337569 0.00427324 0)
(0.0325354 0.00427604 0)
(0.0313131 0.00427867 0)
(0.03009 0.00428113 0)
(0.0288663 0.00428343 0)
(0.027642 0.00428559 0)
(0.0264171 0.00428759 0)
(0.0251916 0.00428947 0)
(0.0239656 0.00429121 0)
(0.0227392 0.00429283 0)
(0.0215123 0.00429432 0)
(0.020285 0.00429571 0)
(0.0190573 0.00429699 0)
(0.0178293 0.00429816 0)
(0.016601 0.00429923 0)
(0.0153724 0.00430021 0)
(0.0141435 0.0043011 0)
(0.0129144 0.00430191 0)
(0.0116851 0.00430262 0)
(0.0104556 0.00430326 0)
(0.00922589 0.00430382 0)
(0.00799606 0.00430431 0)
(0.00676611 0.00430472 0)
(0.00553605 0.00430506 0)
(0.0043059 0.00430533 0)
(0.00307569 0.00430553 0)
(0.00184543 0.00430567 0)
(0.000615148 0.00430573 0)
(0.000749819 -0.00674704 0)
(0.00224944 -0.00674685 0)
(0.003749 -0.00674648 0)
(0.00524846 -0.00674593 0)
(0.00674779 -0.00674518 0)
(0.00824694 -0.00674423 0)
(0.00974586 -0.00674308 0)
(0.0112445 -0.00674172 0)
(0.0127429 -0.00674014 0)
(0.0142409 -0.00673832 0)
(0.0157384 -0.00673626 0)
(0.0172356 -0.00673395 0)
(0.0187322 -0.00673136 0)
(0.0202282 -0.00672848 0)
(0.0217235 -0.0067253 0)
(0.0232182 -0.0067218 0)
(0.0247121 -0.00671795 0)
(0.0262051 -0.00671374 0)
(0.0276971 -0.00670914 0)
(0.0291882 -0.00670413 0)
(0.0306781 -0.00669869 0)
(0.0321668 -0.00669279 0)
(0.0336542 -0.00668641 0)
(0.0351401 -0.00667951 0)
(0.0366245 -0.00667207 0)
(0.0381073 -0.00666405 0)
(0.0395882 -0.00665544 0)
(0.0410672 -0.00664618 0)
(0.0425441 -0.00663626 0)
(0.0440188 -0.00662564 0)
(0.0454911 -0.00661428 0)
(0.0469609 -0.00660215 0)
(0.0484279 -0.00658921 0)
(0.049892 -0.00657542 0)
(0.051353 -0.00656076 0)
(0.0528107 -0.00654517 0)
(0.0542649 -0.00652862 0)
(0.0557154 -0.00651108 0)
(0.0571619 -0.00649249 0)
(0.0586043 -0.00647283 0)
(0.0600422 -0.00645206 0)
(0.0614754 -0.00643012 0)
(0.0629037 -0.00640699 0)
(0.0643268 -0.00638262 0)
(0.0657444 -0.00635696 0)
(0.0671562 -0.00633 0)
(0.0685619 -0.00630167 0)
(0.0699612 -0.00627194 0)
(0.0713538 -0.00624077 0)
(0.0727394 -0.00620813 0)
(0.0741177 -0.00617398 0)
(0.0754882 -0.00613827 0)
(0.0768507 -0.00610097 0)
(0.0782047 -0.00606206 0)
(0.07955 -0.00602148 0)
(0.0808861 -0.00597921 0)
(0.0822127 -0.00593522 0)
(0.0835294 -0.00588947 0)
(0.0848357 -0.00584194 0)
(0.0861314 -0.0057926 0)
(0.0874159 -0.00574143 0)
(0.0886888 -0.00568839 0)
(0.0899498 -0.00563347 0)
(0.0911984 -0.00557664 0)
(0.0924342 -0.0055179 0)
(0.0936568 -0.00545722 0)
(0.0948657 -0.00539458 0)
(0.0960604 -0.00532999 0)
(0.0972406 -0.00526342 0)
(0.0984058 -0.00519488 0)
(0.0995555 -0.00512436 0)
(0.100689 -0.00505185 0)
(0.101807 -0.00497737 0)
(0.102908 -0.00490091 0)
(0.103991 -0.00482249 0)
(0.105057 -0.0047421 0)
(0.106105 -0.00465978 0)
(0.107134 -0.00457553 0)
(0.108144 -0.00448937 0)
(0.109135 -0.00440132 0)
(0.110106 -0.00431142 0)
(0.111057 -0.00421969 0)
(0.111987 -0.00412616 0)
(0.112896 -0.00403086 0)
(0.113784 -0.00393383 0)
(0.11465 -0.00383512 0)
(0.115493 -0.00373476 0)
(0.116314 -0.00363281 0)
(0.117113 -0.0035293 0)
(0.117887 -0.0034243 0)
(0.118639 -0.00331785 0)
(0.119366 -0.00321002 0)
(0.12007 -0.00310085 0)
(0.120748 -0.00299042 0)
(0.121402 -0.00287877 0)
(0.122031 -0.00276599 0)
(0.122635 -0.00265213 0)
(0.123213 -0.00253727 0)
(0.123766 -0.00242147 0)
(0.124292 -0.00230481 0)
(0.124792 -0.00218735 0)
(0.125266 -0.00206918 0)
(0.125714 -0.00195036 0)
(0.126135 -0.00183098 0)
(0.126529 -0.00171111 0)
(0.126897 -0.00159082 0)
(0.127237 -0.0014702 0)
(0.127551 -0.00134931 0)
(0.127838 -0.00122825 0)
(0.128097 -0.00110708 0)
(0.12833 -0.000985876 0)
(0.128535 -0.000864725 0)
(0.128714 -0.000743697 0)
(0.128865 -0.000622868 0)
(0.12899 -0.000502311 0)
(0.129087 -0.0003821 0)
(0.129158 -0.000262305 0)
(0.129202 -0.000142999 0)
(0.12922 -2.42481e-05 0)
(0.129211 9.38787e-05 0)
(0.129176 0.000211316 0)
(0.129115 0.000328 0)
(0.129028 0.00044387 0)
(0.128915 0.000558864 0)
(0.128777 0.000672924 0)
(0.128613 0.000785996 0)
(0.128424 0.000898026 0)
(0.12821 0.00100896 0)