/*--------------------------------*- C++ -*----------------------------------*\
| =========                 |                                                 |
| \\      /  F ield         | OpenFOAM: The Open Source CFD Toolbox           |
|  \\    /   O peration     | Version:  v2012                                 |
|   \\  /    A nd           | Website:  www.openfoam.com                      |
|    \\/     M anipulation  |                                                 |
\*---------------------------------------------------------------------------*/
FoamFile
{
    version     2.0;
    format      ascii;
    class       volScalarField;
    location    "6.4";
    object      W;
}
// * * * * * * * * * * * * * * * * * * * * * * * * * * * * * * * * * * * * * //

dimensions      [0 0 -1 0 0 0 0];


internalField   nonuniform List<scalar> 
65536
(
3.10637e-20
9.45553e-20
1.62203e-19
2.36984e-19
3.22174e-19
4.21477e-19
5.39164e-19
6.80231e-19
8.50578e-19
1.05721e-18
1.30849e-18
1.61439e-18
1.98685e-18
2.44013e-18
2.9913e-18
3.66071e-18
4.47267e-18
5.45613e-18
6.64553e-18
8.08177e-18
9.81334e-18
1.18976e-17
1.44025e-17
1.74078e-17
2.10076e-17
2.53126e-17
3.04522e-17
3.65782e-17
4.38674e-17
5.25264e-17
6.27951e-17
7.4952e-17
8.93199e-17
1.06272e-16
1.26238e-16
1.49713e-16
1.77267e-16
2.09551e-16
2.47311e-16
2.91398e-16
3.42781e-16
4.02559e-16
4.71982e-16
5.52458e-16
6.45581e-16
7.53139e-16
8.77146e-16
1.01985e-15
1.18377e-15
1.37172e-15
1.5868e-15
1.83247e-15
2.11256e-15
2.43128e-15
2.79326e-15
3.20359e-15
3.66781e-15
4.192e-15
4.78272e-15
5.44712e-15
6.19289e-15
7.02833e-15
7.96232e-15
9.00438e-15
1.01646e-14
1.14538e-14
1.28832e-14
1.44649e-14
1.62112e-14
1.81353e-14
2.02506e-14
2.2571e-14
2.5111e-14
2.78849e-14
3.09077e-14
3.41941e-14
3.77587e-14
4.16163e-14
4.57809e-14
5.02663e-14
5.50853e-14
6.025e-14
6.57712e-14
7.16585e-14
7.79199e-14
8.45615e-14
9.15873e-14
9.8999e-14
1.06796e-13
1.14974e-13
1.23527e-13
1.32445e-13
1.41714e-13
1.51317e-13
1.61233e-13
1.71438e-13
1.81902e-13
1.92592e-13
2.03471e-13
2.14498e-13
2.25627e-13
2.3681e-13
2.47994e-13
2.59123e-13
2.70137e-13
2.80976e-13
2.91575e-13
3.01869e-13
3.11791e-13
3.21274e-13
3.30251e-13
3.38656e-13
3.46424e-13
3.53494e-13
3.59806e-13
3.65306e-13
3.69942e-13
3.73669e-13
3.76449e-13
3.78248e-13
3.79042e-13
3.78812e-13
3.77549e-13
3.75252e-13
3.71929e-13
3.67596e-13
3.62278e-13
3.56009e-13
3.48831e-13
3.40794e-13
3.31956e-13
3.22381e-13
3.12141e-13
3.01311e-13
2.89974e-13
2.78213e-13
2.66116e-13
2.53773e-13
2.41274e-13
2.28709e-13
2.16167e-13
2.03735e-13
1.91497e-13
1.79534e-13
1.67921e-13
1.56729e-13
1.46023e-13
1.35862e-13
1.26299e-13
1.1738e-13
1.09143e-13
1.0162e-13
9.48358e-14
8.88083e-14
8.35482e-14
7.90592e-14
7.53388e-14
7.23776e-14
7.01603e-14
6.86652e-14
6.78652e-14
6.77273e-14
6.82133e-14
6.92801e-14
7.08796e-14
7.29593e-14
7.54627e-14
7.83294e-14
8.14958e-14
8.48955e-14
8.84598e-14
9.21187e-14
9.58011e-14
9.94361e-14
1.02954e-13
1.06286e-13
1.09366e-13
1.12135e-13
1.14533e-13
1.16511e-13
1.18023e-13
1.19034e-13
1.19514e-13
1.19443e-13
1.18811e-13
1.17615e-13
1.15865e-13
1.13576e-13
1.10775e-13
1.07494e-13
1.03776e-13
9.96666e-14
9.52184e-14
9.04874e-14
8.55322e-14
8.04129e-14
7.51891e-14
6.99195e-14
6.466e-14
5.94633e-14
5.43776e-14
4.94459e-14
4.47056e-14
4.01881e-14
3.59187e-14
3.19164e-14
2.81944e-14
2.47599e-14
2.16152e-14
1.87575e-14
1.61803e-14
1.38731e-14
1.1823e-14
1.00145e-14
8.43084e-15
7.05399e-15
5.86557e-15
4.84713e-15
3.98058e-15
3.2485e-15
2.63441e-15
2.12293e-15
1.69993e-15
1.35257e-15
1.06933e-15
8.39993e-16
6.55607e-16
5.08402e-16
3.91704e-16
2.99839e-16
2.28028e-16
1.72288e-16
1.29323e-16
9.64383e-17
7.14443e-17
5.25804e-17
3.84426e-17
2.7921e-17
2.01452e-17
1.44388e-17
1.02803e-17
7.27094e-18
5.10838e-18
3.56516e-18
2.47157e-18
1.702e-18
1.16417e-18
7.90877e-19
5.33492e-19
3.57119e-19
2.3687e-19
1.55086e-19
9.92708e-20
6.05389e-20
3.24663e-20
1.02067e-20
1.04865e-19
3.19195e-19
5.47541e-19
7.99941e-19
1.08744e-18
1.42252e-18
1.81959e-18
2.29546e-18
2.87003e-18
3.56691e-18
4.41422e-18
5.44558e-18
6.70117e-18
8.22902e-18
1.00865e-17
1.23422e-17
1.50779e-17
1.83909e-17
2.23971e-17
2.72339e-17
3.30645e-17
4.00816e-17
4.85131e-17
5.86276e-17
7.0741e-17
8.52245e-17
1.02513e-16
1.23115e-16
1.47625e-16
1.76735e-16
2.11249e-16
2.52102e-16
3.00373e-16
3.57313e-16
4.24363e-16
5.03179e-16
5.95664e-16
7.04e-16
8.30679e-16
9.78544e-16
1.15083e-15
1.35121e-15
1.58385e-15
1.85346e-15
2.16533e-15
2.52543e-15
2.94046e-15
3.41792e-15
3.96616e-15
4.59452e-15
5.31335e-15
6.13411e-15
7.06947e-15
8.13342e-15
9.34128e-15
1.07099e-14
1.22576e-14
1.40044e-14
1.5972e-14
1.8184e-14
2.06657e-14
2.34445e-14
2.65494e-14
3.00118e-14
3.38648e-14
3.81435e-14
4.28852e-14
4.81287e-14
5.39147e-14
6.02858e-14
6.72858e-14
7.496e-14
8.33545e-14
9.25164e-14
1.02493e-13
1.13333e-13
1.25082e-13
1.37787e-13
1.51494e-13
1.66245e-13
1.82081e-13
1.9904e-13
2.17156e-13
2.36457e-13
2.56967e-13
2.78703e-13
3.01678e-13
3.25893e-13
3.51343e-13
3.78013e-13
4.05879e-13
4.34905e-13
4.65044e-13
4.96237e-13
5.28414e-13
5.61491e-13
5.9537e-13
6.29942e-13
6.65083e-13
7.00658e-13
7.36518e-13
7.72501e-13
8.08436e-13
8.44141e-13
8.79424e-13
9.14084e-13
9.47917e-13
9.8071e-13
1.01225e-12
1.04232e-12
1.07071e-12
1.09721e-12
1.12161e-12
1.14372e-12
1.16335e-12
1.18032e-12
1.19449e-12
1.20571e-12
1.21386e-12
1.21884e-12
1.22058e-12
1.21903e-12
1.21416e-12
1.20598e-12
1.19452e-12
1.17983e-12
1.16201e-12
1.14117e-12
1.11744e-12
1.09101e-12
1.06205e-12
1.03077e-12
9.97409e-13
9.62214e-13
9.25445e-13
8.87374e-13
8.48283e-13
8.08458e-13
7.68187e-13
7.27757e-13
6.8745e-13
6.47543e-13
6.083e-13
5.69974e-13
5.32805e-13
4.97014e-13
4.62805e-13
4.30362e-13
3.99846e-13
3.71401e-13
3.45145e-13
3.21174e-13
2.99564e-13
2.80365e-13
2.63608e-13
2.49303e-13
2.37435e-13
2.27973e-13
2.20865e-13
2.16039e-13
2.13408e-13
2.12863e-13
2.14284e-13
2.17531e-13
2.22452e-13
2.28879e-13
2.36635e-13
2.45528e-13
2.55357e-13
2.65913e-13
2.76981e-13
2.88341e-13
2.9977e-13
3.11046e-13
3.21951e-13
3.32271e-13
3.41803e-13
3.50354e-13
3.57748e-13
3.63826e-13
3.68451e-13
3.71508e-13
3.7291e-13
3.72595e-13
3.70531e-13
3.66715e-13
3.61171e-13
3.53954e-13
3.45145e-13
3.3485e-13
3.23196e-13
3.10331e-13
2.96418e-13
2.81632e-13
2.66156e-13
2.50177e-13
2.3388e-13
2.17447e-13
2.01053e-13
1.84862e-13
1.69021e-13
1.53665e-13
1.3891e-13
1.24853e-13
1.11571e-13
9.91241e-14
8.75511e-14
7.68748e-14
6.71014e-14
5.82221e-14
5.02157e-14
4.30497e-14
3.66832e-14
3.10683e-14
2.6152e-14
2.18785e-14
1.81905e-14
1.50304e-14
1.2342e-14
1.00711e-14
8.16651e-15
6.58034e-15
5.26872e-15
4.19175e-15
3.31367e-15
2.60279e-15
2.03129e-15
1.57509e-15
1.21346e-15
9.28805e-16
7.06314e-16
5.33625e-16
4.00529e-16
2.98664e-16
2.21247e-16
1.62822e-16
1.19037e-16
8.64534e-17
6.23743e-17
4.47043e-17
3.1828e-17
2.25103e-17
1.58147e-17
1.10369e-17
7.65123e-18
5.26876e-18
3.60379e-18
2.44819e-18
1.65142e-18
1.10545e-18
7.33219e-19
4.80061e-19
3.07287e-19
1.87395e-19
1.00499e-19
3.15955e-20
2.17696e-19
6.62616e-19
1.13658e-18
1.66039e-18
2.25691e-18
2.95199e-18
3.77545e-18
4.76212e-18
5.95312e-18
7.39729e-18
9.15282e-18
1.12892e-17
1.38893e-17
1.70526e-17
2.08974e-17
2.55654e-17
3.12251e-17
3.80776e-17
4.63616e-17
5.63607e-17
6.84107e-17
8.2909e-17
1.00325e-16
1.2121e-16
1.46216e-16
1.76106e-16
2.11772e-16
2.54262e-16
3.04793e-16
3.64787e-16
4.35894e-16
5.20028e-16
6.19404e-16
7.36579e-16
8.74503e-16
1.03656e-15
1.22665e-15
1.44922e-15
1.70935e-15
2.01285e-15
2.3663e-15
2.77719e-15
3.25398e-15
3.80623e-15
4.44471e-15
5.18153e-15
6.03024e-15
7.00603e-15
8.12581e-15
9.40841e-15
1.08747e-14
1.25478e-14
1.44533e-14
1.66191e-14
1.90761e-14
2.18579e-14
2.50015e-14
2.85466e-14
3.25366e-14
3.70184e-14
4.20424e-14
4.76627e-14
5.39371e-14
6.09274e-14
6.86989e-14
7.73208e-14
8.6866e-14
9.74105e-14
1.09034e-13
1.21819e-13
1.35851e-13
1.51216e-13
1.68005e-13
1.86307e-13
2.06213e-13
2.27814e-13
2.51197e-13
2.76452e-13
3.03661e-13
3.32904e-13
3.64255e-13
3.97782e-13
4.33543e-13
4.71589e-13
5.11958e-13
5.54676e-13
5.99755e-13
6.47192e-13
6.96967e-13
7.49042e-13
8.03356e-13
8.59832e-13
9.18368e-13
9.78839e-13
1.0411e-12
1.10497e-12
1.17026e-12
1.23674e-12
1.30417e-12
1.37227e-12
1.44076e-12
1.50931e-12
1.5776e-12
1.64525e-12
1.71191e-12
1.77718e-12
1.84068e-12
1.902e-12
1.96073e-12
2.01647e-12
2.06881e-12
2.11737e-12
2.16177e-12
2.20164e-12
2.23664e-12
2.26647e-12
2.29083e-12
2.30949e-12
2.32224e-12
2.3289e-12
2.32937e-12
2.32357e-12
2.31148e-12
2.29313e-12
2.2686e-12
2.23803e-12
2.20161e-12
2.15956e-12
2.11218e-12
2.0598e-12
2.0028e-12
1.94158e-12
1.8766e-12
1.80832e-12
1.73726e-12
1.66393e-12
1.58887e-12
1.51261e-12
1.43569e-12
1.35866e-12
1.28203e-12
1.20632e-12
1.13201e-12
1.05956e-12
9.89428e-13
9.21998e-13
8.57641e-13
7.96687e-13
7.39426e-13
6.86105e-13
6.36932e-13
5.92072e-13
5.5165e-13
5.15745e-13
4.84402e-13
4.57623e-13
4.35371e-13
4.17576e-13
4.04129e-13
3.9489e-13
3.89686e-13
3.88312e-13
3.90536e-13
3.96098e-13
4.0471e-13
4.16064e-13
4.29828e-13
4.45649e-13
4.6316e-13
4.81979e-13
5.01711e-13
5.21957e-13
5.42313e-13
5.62378e-13
5.81757e-13
6.00066e-13
6.16939e-13
6.32032e-13
6.45029e-13
6.55648e-13
6.63645e-13
6.68819e-13
6.71015e-13
6.70128e-13
6.66102e-13
6.58937e-13
6.48682e-13
6.35439e-13
6.19355e-13
6.00624e-13
5.79478e-13
5.56184e-13
5.31036e-13
5.04349e-13
4.76451e-13
4.47677e-13
4.1836e-13
3.88825e-13
3.59384e-13
3.30327e-13
3.0192e-13
2.74401e-13
2.47973e-13
2.22809e-13
1.99046e-13
1.76787e-13
1.56101e-13
1.37027e-13
1.19573e-13
1.03723e-13
8.94361e-14
7.66539e-14
6.53017e-14
5.5293e-14
4.65327e-14
3.89201e-14
3.23524e-14
2.67265e-14
2.19416e-14
1.7901e-14
1.45128e-14
1.16919e-14
9.35976e-15
7.44529e-15
5.88472e-15
4.62154e-15
3.60626e-15
2.79593e-15
2.15371e-15
1.64828e-15
1.25329e-15
9.46757e-16
7.10539e-16
5.29775e-16
3.92413e-16
2.88761e-16
2.11091e-16
1.53297e-16
1.10592e-16
7.92572e-17
5.64248e-17
3.9904e-17
2.80333e-17
1.95631e-17
1.35614e-17
9.33825e-18
6.3871e-18
4.33887e-18
2.92672e-18
1.9591e-18
1.29941e-18
8.50756e-19
5.44568e-19
3.32099e-19
1.78103e-19
5.59943e-20
4.10153e-19
1.24837e-18
2.14118e-18
3.12767e-18
4.25081e-18
5.55915e-18
7.10865e-18
8.96472e-18
1.12045e-17
1.39196e-17
1.7219e-17
2.1233e-17
2.61171e-17
3.20571e-17
3.92749e-17
4.80351e-17
5.86535e-17
7.15055e-17
8.70375e-17
1.05779e-16
1.28357e-16
1.55513e-16
1.88122e-16
2.27214e-16
2.74001e-16
3.29903e-16
3.96585e-16
4.7599e-16
5.70385e-16
6.82408e-16
8.15123e-16
9.72081e-16
1.15739e-15
1.37578e-15
1.63271e-15
1.93446e-15
2.2882e-15
2.70215e-15
3.18571e-15
3.74954e-15
4.40578e-15
5.1682e-15
6.05233e-15
7.07572e-15
8.2581e-15
9.62164e-15
1.11911e-14
1.29943e-14
1.50619e-14
1.74283e-14
2.01314e-14
2.32133e-14
2.672e-14
3.07024e-14
3.52161e-14
4.03218e-14
4.60857e-14
5.25795e-14
5.98809e-14
6.80735e-14
7.72474e-14
8.74988e-14
9.89303e-14
1.11651e-13
1.25777e-13
1.41429e-13
1.58735e-13
1.77829e-13
1.98848e-13
2.21937e-13
2.47241e-13
2.74912e-13
3.05101e-13
3.37963e-13
3.73649e-13
4.12313e-13
4.54102e-13
4.99159e-13
5.47622e-13
5.99618e-13
6.55265e-13
7.14667e-13
7.7791e-13
8.45067e-13
9.16187e-13
9.91297e-13
1.0704e-12
1.15346e-12
1.24044e-12
1.33123e-12
1.42572e-12
1.52374e-12
1.62509e-12
1.72954e-12
1.83681e-12
1.94657e-12
2.05846e-12
2.17208e-12
2.28699e-12
2.40269e-12
2.51868e-12
2.63438e-12
2.74922e-12
2.86258e-12
2.97382e-12
3.08229e-12
3.1873e-12
3.28818e-12
3.38425e-12
3.47484e-12
3.55927e-12
3.63692e-12
3.70715e-12
3.7694e-12
3.82312e-12
3.86782e-12
3.90306e-12
3.92849e-12
3.94379e-12
3.94874e-12
3.94318e-12
3.92706e-12
3.90038e-12
3.86326e-12
3.81587e-12
3.75851e-12
3.69152e-12
3.61536e-12
3.53054e-12
3.43766e-12
3.33737e-12
3.23041e-12
3.11755e-12
2.99959e-12
2.87739e-12
2.75183e-12
2.6238e-12
2.4942e-12
2.36391e-12
2.23382e-12
2.10479e-12
1.97765e-12
1.85317e-12
1.73212e-12
1.61518e-12
1.50298e-12
1.3961e-12
1.29505e-12
1.20027e-12
1.11214e-12
1.03097e-12
9.56984e-13
8.90363e-13
8.31207e-13
7.79553e-13
7.35377e-13
6.98594e-13
6.69061e-13
6.4658e-13
6.309e-13
6.21722e-13
6.18699e-13
6.21439e-13
6.29509e-13
6.42439e-13
6.5972e-13
6.80814e-13
7.05154e-13
7.32146e-13
7.6118e-13
7.91628e-13
8.22857e-13
8.54227e-13
8.85107e-13
9.14876e-13
9.42934e-13
9.6871e-13
9.9167e-13
1.01132e-12
1.02724e-12
1.03904e-12
1.04642e-12
1.04915e-12
1.04707e-12
1.0401e-12
1.02826e-12
1.01162e-12
9.90357e-13
9.64708e-13
9.34979e-13
9.01538e-13
8.64806e-13
8.25243e-13
7.83342e-13
7.39616e-13
6.94585e-13
6.48766e-13
6.02663e-13
5.56757e-13
5.11496e-13
4.6729e-13
4.24502e-13
3.83446e-13
3.44384e-13
3.07524e-13
2.7302e-13
2.40976e-13
2.11448e-13
1.84443e-13
1.59934e-13
1.37854e-13
1.1811e-13
1.00584e-13
8.51393e-14
7.1627e-14
5.98904e-14
4.97688e-14
4.11022e-14
3.3734e-14
2.75141e-14
2.23006e-14
1.79613e-14
1.43751e-14
1.14321e-14
9.03381e-15
7.09312e-15
5.53371e-15
4.28942e-15
3.30352e-15
2.52779e-15
1.9217e-15
1.45145e-15
1.08914e-15
8.11938e-16
6.01333e-16
4.42439e-16
3.23394e-16
2.34826e-16
1.69391e-16
1.21384e-16
8.64081e-17
6.11033e-17
4.2923e-17
2.99519e-17
2.07618e-17
1.42957e-17
9.77738e-18
6.64171e-18
4.47993e-18
2.99872e-18
1.98892e-18
1.30219e-18
8.33528e-19
5.08319e-19
2.72611e-19
8.57076e-20
7.49347e-19
2.28068e-18
3.91151e-18
5.71301e-18
7.7635e-18
1.01514e-17
1.29785e-17
1.63638e-17
2.04477e-17
2.53967e-17
3.14089e-17
3.87209e-17
4.76151e-17
5.84287e-17
7.15643e-17
8.7502e-17
1.06814e-16
1.3018e-16
1.58409e-16
1.92459e-16
2.33465e-16
2.82768e-16
3.41948e-16
4.12867e-16
4.97711e-16
5.99043e-16
7.19864e-16
8.63676e-16
1.03456e-15
1.23726e-15
1.4773e-15
1.76103e-15
2.09585e-15
2.49024e-15
2.95398e-15
3.4983e-15
4.13606e-15
4.88193e-15
5.75268e-15
6.76734e-15
7.94756e-15
9.31779e-15
1.09057e-14
1.27424e-14
1.48628e-14
1.73064e-14
2.01167e-14
2.33429e-14
2.70392e-14
3.1266e-14
3.60901e-14
4.15849e-14
4.78315e-14
5.49186e-14
6.29432e-14
7.2011e-14
8.2237e-14
9.37455e-14
1.06671e-13
1.21157e-13
1.3736e-13
1.55443e-13
1.75583e-13
1.97966e-13
2.22788e-13
2.50256e-13
2.80584e-13
3.13997e-13
3.50727e-13
3.91011e-13
4.35095e-13
4.83225e-13
5.35651e-13
5.92622e-13
6.54388e-13
7.21189e-13
7.93261e-13
8.70829e-13
9.54104e-13
1.04328e-12
1.13853e-12
1.24e-12
1.34781e-12
1.46205e-12
1.58278e-12
1.70999e-12
1.84365e-12
1.98369e-12
2.12997e-12
2.28229e-12
2.4404e-12
2.604e-12
2.77271e-12
2.94609e-12
3.12362e-12
3.30475e-12
3.48882e-12
3.67513e-12
3.86291e-12
4.05134e-12
4.23951e-12
4.4265e-12
4.61133e-12
4.79296e-12
4.97034e-12
5.14239e-12
5.30802e-12
5.46613e-12
5.61564e-12
5.75547e-12
5.88457e-12
6.00195e-12
6.10666e-12
6.19781e-12
6.2746e-12
6.33631e-12
6.38231e-12
6.41209e-12
6.42526e-12
6.42153e-12
6.40076e-12
6.36295e-12
6.30821e-12
6.23681e-12
6.14914e-12
6.04576e-12
5.92732e-12
5.79462e-12
5.64857e-12
5.49019e-12
5.3206e-12
5.14102e-12
4.95271e-12
4.75701e-12
4.55532e-12
4.34904e-12
4.13959e-12
3.92841e-12
3.7169e-12
3.50644e-12
3.29836e-12
3.09394e-12
2.8944e-12
2.70085e-12
2.51434e-12
2.33582e-12
2.16613e-12
2.00603e-12
1.85614e-12
1.71699e-12
1.589e-12
1.47248e-12
1.36764e-12
1.27458e-12
1.1933e-12
1.12372e-12
1.06565e-12
1.01882e-12
9.82886e-13
9.57421e-13
9.41928e-13
9.3584e-13
9.3853e-13
9.49309e-13
9.67437e-13
9.92124e-13
1.02253e-12
1.0578e-12
1.09701e-12
1.13923e-12
1.18352e-12
1.22893e-12
1.2745e-12
1.31928e-12
1.36235e-12
1.40282e-12
1.43986e-12
1.47267e-12
1.50055e-12
1.52286e-12
1.53906e-12
1.54871e-12
1.55149e-12
1.54718e-12
1.53568e-12
1.51703e-12
1.49136e-12
1.45893e-12
1.42012e-12
1.37537e-12
1.32525e-12
1.27038e-12
1.21145e-12
1.14918e-12
1.08433e-12
1.01767e-12
9.49945e-13
8.81903e-13
8.14242e-13
7.47614e-13
6.82612e-13
6.19763e-13
5.59518e-13
5.02252e-13
4.48262e-13
3.97767e-13
3.50908e-13
3.07761e-13
2.6833e-13
2.32568e-13
2.00372e-13
1.716e-13
1.46075e-13
1.23595e-13
1.03938e-13
8.68736e-14
7.2165e-14
5.9577e-14
4.888e-14
3.98541e-14
3.22918e-14
2.60003e-14
2.08027e-14
1.6539e-14
1.30657e-14
1.02561e-14
7.99929e-15
6.19908e-15
4.77313e-15
3.6515e-15
2.77539e-15
2.09581e-15
1.57235e-15
1.17196e-15
8.67819e-16
6.38407e-16
4.66564e-16
3.38738e-16
2.44316e-16
1.75054e-16
1.24599e-16
8.81013e-17
6.18824e-17
4.31784e-17
2.99279e-17
2.06057e-17
1.40923e-17
9.57236e-18
6.45646e-18
4.32163e-18
2.86629e-18
1.8766e-18
1.2012e-18
7.32543e-19
3.92864e-19
1.23515e-19
1.35009e-18
4.10894e-18
7.04656e-18
1.02909e-17
1.39825e-17
1.82803e-17
2.33669e-17
2.9456e-17
3.67991e-17
4.56948e-17
5.64983e-17
6.96332e-17
8.56053e-17
1.05018e-16
1.28592e-16
1.57185e-16
1.9182e-16
2.33712e-16
2.84305e-16
3.4531e-16
4.1875e-16
5.07017e-16
6.12927e-16
7.39795e-16
8.91513e-16
1.07264e-15
1.28851e-15
1.54535e-15
1.8504e-15
2.21208e-15
2.64016e-15
3.14593e-15
3.74245e-15
4.44474e-15
5.27008e-15
6.23829e-15
7.37202e-15
8.69718e-15
1.02432e-14
1.20437e-14
1.41365e-14
1.65646e-14
1.93765e-14
2.26265e-14
2.6376e-14
3.06933e-14
3.56548e-14
4.13458e-14
4.78606e-14
5.53039e-14
6.37912e-14
7.34498e-14
8.44193e-14
9.68524e-14
1.10916e-13
1.26791e-13
1.44675e-13
1.64779e-13
1.87333e-13
2.12581e-13
2.40785e-13
2.72225e-13
3.07196e-13
3.4601e-13
3.88997e-13
4.36498e-13
4.88871e-13
5.46487e-13
6.09727e-13
6.78981e-13
7.54645e-13
8.37121e-13
9.26808e-13
1.02411e-12
1.1294e-12
1.24308e-12
1.3655e-12
1.49701e-12
1.63792e-12
1.78851e-12
1.94903e-12
2.11968e-12
2.3006e-12
2.49189e-12
2.69357e-12
2.90559e-12
3.12784e-12
3.36012e-12
3.60212e-12
3.85346e-12
4.11367e-12
4.38216e-12
4.65823e-12
4.94111e-12
5.22988e-12
5.52355e-12
5.821e-12
6.12102e-12
6.42231e-12
6.72347e-12
7.02301e-12
7.31939e-12
7.61099e-12
7.89614e-12
8.17313e-12
8.44023e-12
8.69569e-12
8.9378e-12
9.16483e-12
9.37514e-12
9.56711e-12
9.73924e-12
9.8901e-12
1.00184e-11
1.01229e-11
1.02027e-11
1.02569e-11
1.02849e-11
1.0286e-11
1.02602e-11
1.02072e-11
1.01273e-11
1.00208e-11
9.88834e-12
9.73062e-12
9.54868e-12
9.34372e-12
9.11712e-12
8.87045e-12
8.60542e-12
8.32388e-12
8.02783e-12
7.71932e-12
7.40051e-12
7.0736e-12
6.74083e-12
6.40442e-12
6.0666e-12
5.72953e-12
5.39532e-12
5.066e-12
4.74349e-12
4.42961e-12
4.12601e-12
3.83422e-12
3.55563e-12
3.29144e-12
3.04269e-12
2.81027e-12
2.59488e-12
2.39706e-12
2.21719e-12
2.05549e-12
1.91201e-12
1.78668e-12
1.67926e-12
1.58941e-12
1.51663e-12
1.46034e-12
1.41983e-12
1.39428e-12
1.38279e-12
1.38438e-12
1.39797e-12
1.42243e-12
1.45655e-12
1.49906e-12
1.54866e-12
1.60399e-12
1.66366e-12
1.72629e-12
1.79046e-12
1.85478e-12
1.91787e-12
1.97839e-12
2.03507e-12
2.0867e-12
2.13215e-12
2.17041e-12
2.2006e-12
2.22194e-12
2.23383e-12
2.23583e-12
2.22765e-12
2.20918e-12
2.18049e-12
2.1418e-12
2.09351e-12
2.03616e-12
1.97044e-12
1.89716e-12
1.81722e-12
1.73162e-12
1.6414e-12
1.54766e-12
1.45148e-12
1.35395e-12
1.25612e-12
1.15897e-12
1.06344e-12
9.70362e-13
8.80469e-13
7.94397e-13
7.12666e-13
6.35688e-13
5.63758e-13
4.9707e-13
4.35715e-13
3.79691e-13
3.28917e-13
2.83241e-13
2.42452e-13
2.06291e-13
1.74463e-13
1.46651e-13
1.22521e-13
1.01734e-13
8.39544e-14
6.88534e-14
5.6118e-14
4.5453e-14
3.65843e-14
2.9261e-14
2.3256e-14
1.83663e-14
1.44126e-14
1.12379e-14
8.70641e-15
6.70193e-15
5.12575e-15
3.89498e-15
2.94059e-15
2.20566e-15
1.64365e-15
1.21687e-15
8.95021e-16
6.53992e-16
4.74741e-16
3.42358e-16
2.45267e-16
1.74554e-16
1.23409e-16
8.66735e-17
6.04707e-17
4.19101e-17
2.88534e-17
1.97317e-17
1.34023e-17
9.03935e-18
6.05028e-18
4.01273e-18
2.62715e-18
1.68161e-18
1.02552e-18
5.4999e-19
1.72916e-19
2.41e-18
7.33444e-18
1.25772e-17
1.8366e-17
2.49511e-17
3.2615e-17
4.16828e-17
5.25341e-17
6.56162e-17
8.14592e-17
1.00694e-16
1.24073e-16
1.52492e-16
1.87023e-16
2.28942e-16
2.7977e-16
3.41319e-16
4.1574e-16
5.05589e-16
6.13889e-16
7.44221e-16
9.00807e-16
1.08862e-15
1.31352e-15
1.58236e-15
1.90318e-15
2.28539e-15
2.73993e-15
3.27955e-15
3.91907e-15
4.67563e-15
5.56907e-15
6.62228e-15
7.86161e-15
9.31729e-15
1.1024e-14
1.30214e-14
1.53546e-14
1.80751e-14
2.12413e-14
2.49193e-14
2.91836e-14
3.41185e-14
3.98184e-14
4.63892e-14
5.39494e-14
6.2631e-14
7.25808e-14
8.39614e-14
9.69528e-14
1.11753e-13
1.28581e-13
1.47674e-13
1.69293e-13
1.93724e-13
2.21272e-13
2.52273e-13
2.87084e-13
3.26093e-13
3.6971e-13
4.18376e-13
4.72558e-13
5.32749e-13
5.99467e-13
6.73256e-13
7.54683e-13
8.44334e-13
9.42815e-13
1.05075e-12
1.16876e-12
1.29749e-12
1.43758e-12
1.58967e-12
1.75438e-12
1.93231e-12
2.12406e-12
2.33018e-12
2.55117e-12
2.7875e-12
3.03955e-12
3.30767e-12
3.5921e-12
3.893e-12
4.21042e-12
4.54432e-12
4.89452e-12
5.26071e-12
5.64246e-12
6.03916e-12
6.45009e-12
6.87433e-12
7.31083e-12
7.75834e-12
8.21547e-12
8.68064e-12
9.15213e-12
9.62805e-12
1.01063e-11
1.05848e-11
1.10611e-11
1.15329e-11
1.19976e-11
1.24525e-11
1.2895e-11
1.33223e-11
1.37317e-11
1.41205e-11
1.4486e-11
1.48255e-11
1.51365e-11
1.54167e-11
1.56636e-11
1.58753e-11
1.60499e-11
1.61857e-11
1.62814e-11
1.63358e-11
1.63482e-11
1.63179e-11
1.62449e-11
1.61294e-11
1.59717e-11
1.57727e-11
1.55337e-11
1.5256e-11
1.49415e-11
1.45923e-11
1.42107e-11
1.37994e-11
1.33613e-11
1.28992e-11
1.24166e-11
1.19165e-11
1.14026e-11
1.08782e-11
1.03468e-11
9.81196e-12
9.27694e-12
8.74512e-12
8.21966e-12
7.70362e-12
7.19983e-12
6.71097e-12
6.23946e-12
5.78751e-12
5.35707e-12
4.94983e-12
4.56723e-12
4.21045e-12
3.8804e-12
3.57775e-12
3.3029e-12
3.05602e-12
2.83708e-12
2.64579e-12
2.48169e-12
2.34411e-12
2.23222e-12
2.145e-12
2.08131e-12
2.03985e-12
2.01921e-12
2.01783e-12
2.03408e-12
2.06621e-12
2.11242e-12
2.1708e-12
2.23941e-12
2.31625e-12
2.39928e-12
2.48647e-12
2.57578e-12
2.66518e-12
2.7527e-12
2.83642e-12
2.91453e-12
2.98531e-12
3.04717e-12
3.0987e-12
3.13866e-12
3.16599e-12
3.17987e-12
3.17971e-12
3.16513e-12
3.13602e-12
3.0925e-12
3.03494e-12
2.96393e-12
2.88028e-12
2.78497e-12
2.67918e-12
2.56421e-12
2.44148e-12
2.31247e-12
2.17873e-12
2.0418e-12
1.9032e-12
1.7644e-12
1.62679e-12
1.49166e-12
1.36018e-12
1.23335e-12
1.11206e-12
9.97013e-13
8.88768e-13
7.87724e-13
6.94131e-13
6.08099e-13
5.29612e-13
4.58538e-13
3.94651e-13
3.37642e-13
2.87137e-13
2.42717e-13
2.03927e-13
1.70294e-13
1.41338e-13
1.16586e-13
9.55751e-14
7.78654e-14
6.30425e-14
5.07226e-14
4.05543e-14
3.22203e-14
2.54372e-14
1.99548e-14
1.55544e-14
1.2047e-14
9.27074e-15
7.08849e-15
5.38503e-15
4.06453e-15
3.04798e-15
2.27085e-15
1.68086e-15
1.23605e-15
9.03013e-16
6.55396e-16
4.72561e-16
3.38495e-16
2.4087e-16
1.70273e-16
1.19574e-16
8.34164e-17
5.78077e-17
3.97951e-17
2.72125e-17
1.84824e-17
1.24651e-17
8.34293e-18
5.53314e-18
3.62251e-18
2.31872e-18
1.41405e-18
7.58365e-19
2.3843e-19
4.26796e-18
1.29884e-17
2.22711e-17
3.25183e-17
4.4172e-17
5.77309e-17
7.37687e-17
9.29549e-17
1.16078e-16
1.44073e-16
1.78051e-16
2.19337e-16
2.69509e-16
3.30453e-16
4.04414e-16
4.94067e-16
6.02595e-16
7.3378e-16
8.92106e-16
1.08289e-15
1.3124e-15
1.58804e-15
1.91855e-15
2.31416e-15
2.78689e-15
3.35081e-15
4.02234e-15
4.82064e-15
5.76797e-15
6.89016e-15
8.21713e-15
9.78346e-15
1.1629e-14
1.37995e-14
1.63477e-14
1.93337e-14
2.28263e-14
2.69038e-14
3.16553e-14
3.71819e-14
4.35976e-14
5.10314e-14
5.96284e-14
6.95511e-14
8.09818e-14
9.41239e-14
1.09204e-13
1.26473e-13
1.46209e-13
1.68719e-13
1.94342e-13
2.23448e-13
2.56442e-13
2.93766e-13
3.35901e-13
3.83366e-13
4.36722e-13
4.96573e-13
5.63564e-13
6.38385e-13
7.21768e-13
8.14488e-13
9.17362e-13
1.03125e-12
1.15703e-12
1.29565e-12
1.44805e-12
1.61522e-12
1.79816e-12
1.99789e-12
2.21541e-12
2.45175e-12
2.7079e-12
2.98483e-12
3.28349e-12
3.60475e-12
3.94945e-12
4.31832e-12
4.71201e-12
5.13108e-12
5.57593e-12
6.04685e-12
6.54395e-12
7.06718e-12
7.6163e-12
8.19086e-12
8.7902e-12
9.41342e-12
1.00594e-11
1.07267e-11
1.14137e-11
1.21186e-11
1.28391e-11
1.35727e-11
1.43169e-11
1.50686e-11
1.58247e-11
1.65817e-11
1.73361e-11
1.80839e-11
1.88212e-11
1.9544e-11
2.0248e-11
2.09288e-11
2.15823e-11
2.22041e-11
2.27899e-11
2.33356e-11
2.38372e-11
2.42909e-11
2.46931e-11
2.50404e-11
2.53299e-11
2.55589e-11
2.57252e-11
2.5827e-11
2.58628e-11
2.58319e-11
2.57337e-11
2.55686e-11
2.53371e-11
2.50403e-11
2.46801e-11
2.42586e-11
2.37785e-11
2.3243e-11
2.26556e-11
2.20204e-11
2.13417e-11
2.06241e-11
1.98726e-11
1.90922e-11
1.82883e-11
1.74662e-11
1.66312e-11
1.57889e-11
1.49444e-11
1.41029e-11
1.32694e-11
1.24488e-11
1.16455e-11
1.08636e-11
1.01071e-11
9.37953e-12
8.68392e-12
8.02305e-12
7.39925e-12
6.81445e-12
6.27019e-12
5.7676e-12
5.30742e-12
4.89005e-12
4.51552e-12
4.18351e-12
3.89341e-12
3.64432e-12
3.43506e-12
3.26419e-12
3.13007e-12
3.03084e-12
2.96444e-12
2.92865e-12
2.9211e-12
2.93929e-12
2.98058e-12
3.04225e-12
3.12148e-12
3.21538e-12
3.32104e-12
3.43548e-12
3.55574e-12
3.67889e-12
3.80201e-12
3.9223e-12
4.03703e-12
4.14362e-12
4.23966e-12
4.32295e-12
4.39149e-12
4.44359e-12
4.4778e-12
4.49302e-12
4.48844e-12
4.46361e-12
4.41842e-12
4.35309e-12
4.26821e-12
4.16463e-12
4.04354e-12
3.90637e-12
3.7548e-12
3.59069e-12
3.41603e-12
3.23293e-12
3.04355e-12
2.85005e-12
2.65457e-12
2.45914e-12
2.2657e-12
2.07601e-12
1.89169e-12
1.71413e-12
1.54452e-12
1.38382e-12
1.23279e-12
1.09195e-12
9.61618e-13
8.4193e-13
7.32834e-13
6.34127e-13
5.45472e-13
4.66424e-13
3.96448e-13
3.34946e-13
2.81277e-13
2.34773e-13
1.94763e-13
1.60582e-13
1.31585e-13
1.07157e-13
8.67224e-14
6.97472e-14
5.57438e-14
4.4272e-14
3.49394e-14
2.73997e-14
2.13506e-14
1.6531e-14
1.27176e-14
9.72125e-15
7.3831e-15
5.57119e-15
4.1768e-15
3.11114e-15
2.30233e-15
1.69271e-15
1.23639e-15
8.97198e-16
6.468e-16
4.6323e-16
3.29584e-16
2.32955e-16
1.63573e-16
1.14098e-16
7.90626e-17
5.44226e-17
3.72123e-17
2.52726e-17
1.70438e-17
1.1407e-17
7.56508e-18
4.95273e-18
3.17014e-18
1.93328e-18
1.03683e-18
3.25983e-19
7.50137e-18
2.28276e-17
3.91397e-17
5.71428e-17
7.76118e-17
1.0142e-16
1.29573e-16
1.63243e-16
2.0381e-16
2.52909e-16
3.12485e-16
3.84853e-16
4.72774e-16
5.79538e-16
7.0907e-16
8.66038e-16
1.056e-15
1.28554e-15
1.5625e-15
1.89611e-15
2.29732e-15
2.77902e-15
3.35639e-15
4.04725e-15
4.87249e-15
5.85655e-15
7.02795e-15
8.41991e-15
1.0071e-14
1.20261e-14
1.4337e-14
1.70634e-14
2.02743e-14
2.40489e-14
2.84779e-14
3.36653e-14
3.97294e-14
4.68054e-14
5.50462e-14
6.46256e-14
7.57394e-14
8.86087e-14
1.03482e-13
1.20637e-13
1.40386e-13
1.63075e-13
1.8909e-13
2.18859e-13
2.52853e-13
2.91595e-13
3.35656e-13
3.85662e-13
4.42298e-13
5.06307e-13
5.78496e-13
6.59736e-13
7.50967e-13
8.53195e-13
9.67494e-13
1.09501e-12
1.23695e-12
1.3946e-12
1.5693e-12
1.76246e-12
1.97552e-12
2.21e-12
2.46745e-12
2.74945e-12
3.0576e-12
3.39352e-12
3.75881e-12
4.15507e-12
4.58385e-12
5.04664e-12
5.54488e-12
6.07988e-12
6.65286e-12
7.26487e-12
7.91683e-12
8.60942e-12
9.34314e-12
1.01182e-11
1.09347e-11
1.17921e-11
1.26899e-11
1.36271e-11
1.46023e-11
1.56138e-11
1.66596e-11
1.7737e-11
1.88431e-11
1.99746e-11
2.11278e-11
2.22984e-11
2.34819e-11
2.46733e-11
2.58672e-11
2.70581e-11
2.824e-11
2.94067e-11
3.05517e-11
3.16685e-11
3.27503e-11
3.37904e-11
3.4782e-11
3.57185e-11
3.65932e-11
3.74e-11
3.81328e-11
3.87857e-11
3.93537e-11
3.98319e-11
4.0216e-11
4.05024e-11
4.06881e-11
4.07709e-11
4.07493e-11
4.06224e-11
4.03903e-11
4.00539e-11
3.96148e-11
3.90754e-11
3.84392e-11
3.771e-11
3.68926e-11
3.59925e-11
3.50156e-11
3.39687e-11
3.28588e-11
3.16934e-11
3.04804e-11
2.9228e-11
2.79443e-11
2.66378e-11
2.53167e-11
2.39893e-11
2.26638e-11
2.13478e-11
2.00488e-11
1.8774e-11
1.753e-11
1.63228e-11
1.51581e-11
1.40409e-11
1.29755e-11
1.19657e-11
1.10148e-11
1.01251e-11
9.29875e-12
8.53697e-12
7.84055e-12
7.20969e-12
6.6441e-12
6.14299e-12
5.70513e-12
5.32885e-12
5.01214e-12
4.75262e-12
4.54759e-12
4.39409e-12
4.28892e-12
4.22861e-12
4.20955e-12
4.22793e-12
4.27979e-12
4.36107e-12
4.4676e-12
4.59513e-12
4.73939e-12
4.89608e-12
5.06091e-12
5.22966e-12
5.39819e-12
5.56249e-12
5.71871e-12
5.86321e-12
5.99263e-12
6.10388e-12
6.19424e-12
6.26133e-12
6.30323e-12
6.31842e-12
6.30586e-12
6.265e-12
6.19576e-12
6.09852e-12
5.97416e-12
5.82398e-12
5.64966e-12
5.45329e-12
5.23724e-12
5.00414e-12
4.75681e-12
4.4982e-12
4.23134e-12
3.95924e-12
3.68486e-12
3.41102e-12
3.14038e-12
2.87539e-12
2.61824e-12
2.37084e-12
2.13479e-12
1.91141e-12
1.70169e-12
1.50632e-12
1.32571e-12
1.16e-12
1.00909e-12
8.72671e-13
7.50245e-13
6.4117e-13
5.44687e-13
4.5995e-13
3.86056e-13
3.22071e-13
2.67057e-13
2.20086e-13
1.80263e-13
1.46736e-13
1.18704e-13
9.54301e-14
7.62405e-14
6.05279e-14
4.77513e-14
3.74339e-14
2.91598e-14
2.25702e-14
1.73584e-14
1.32648e-14
1.00715e-14
7.59784e-15
5.69478e-15
4.24081e-15
3.13761e-15
2.30634e-15
1.68427e-15
1.22198e-15
8.80784e-16
6.30707e-16
4.48675e-16
3.17088e-16
2.22621e-16
1.55269e-16
1.07581e-16
7.40468e-17
5.06268e-17
3.43808e-17
2.31852e-17
1.55167e-17
1.02903e-17
6.73674e-18
4.31202e-18
2.62964e-18
1.4103e-18
4.43401e-19
1.30865e-17
3.98227e-17
6.82747e-17
9.967e-17
1.35356e-16
1.76854e-16
2.2591e-16
2.84562e-16
3.55209e-16
4.40692e-16
5.44386e-16
6.70312e-16
8.23258e-16
1.00894e-15
1.23414e-15
1.50698e-15
1.83707e-15
2.23583e-15
2.7168e-15
3.296e-15
3.99234e-15
4.82811e-15
5.82955e-15
7.02742e-15
8.4578e-15
1.01629e-14
1.21917e-14
1.46018e-14
1.74594e-14
2.08416e-14
2.48377e-14
2.95503e-14
3.50979e-14
4.16164e-14
4.92614e-14
5.82109e-14
6.86678e-14
8.08629e-14
9.50579e-14
1.11549e-13
1.30671e-13
1.52799e-13
1.78357e-13
2.07818e-13
2.41709e-13
2.80619e-13
3.25201e-13
3.76178e-13
4.34347e-13
5.00585e-13
5.75857e-13
6.61212e-13
7.57799e-13
8.66862e-13
9.89748e-13
1.12791e-12
1.28291e-12
1.45641e-12
1.65019e-12
1.86615e-12
2.10627e-12
2.37265e-12
2.66749e-12
2.99307e-12
3.35176e-12
3.746e-12
4.17826e-12
4.65109e-12
5.16704e-12
5.72865e-12
6.33845e-12
6.99891e-12
7.71244e-12
8.48132e-12
9.30767e-12
1.01935e-11
1.11404e-11
1.21501e-11
1.32236e-11
1.43618e-11
1.55651e-11
1.68337e-11
1.81671e-11
1.95644e-11
2.10241e-11
2.25444e-11
2.41225e-11
2.57553e-11
2.7439e-11
2.9169e-11
3.09402e-11
3.27468e-11
3.45824e-11
3.64399e-11
3.83117e-11
4.01894e-11
4.20643e-11
4.39271e-11
4.57682e-11
4.75775e-11
4.93448e-11
5.10595e-11
5.27111e-11
5.4289e-11
5.57828e-11
5.7182e-11
5.84769e-11
5.96577e-11
6.07156e-11
6.16421e-11
6.24296e-11
6.30713e-11
6.35613e-11
6.38948e-11
6.40679e-11
6.40781e-11
6.39238e-11
6.36049e-11
6.31225e-11
6.24787e-11
6.16772e-11
6.07228e-11
5.96213e-11
5.83799e-11
5.70068e-11
5.55112e-11
5.3903e-11
5.21932e-11
5.03931e-11
4.85149e-11
4.6571e-11
4.45742e-11
4.25374e-11
4.04734e-11
3.83951e-11
3.6315e-11
3.42453e-11
3.21977e-11
3.01832e-11
2.82124e-11
2.62949e-11
2.44396e-11
2.26544e-11
2.09463e-11
1.93215e-11
1.77852e-11
1.63415e-11