/*--------------------------------*- C++ -*----------------------------------*\
| =========                 |                                                 |
| \\      /  F ield         | OpenFOAM: The Open Source CFD Toolbox           |
|  \\    /   O peration     | Version:  v2012                                 |
|   \\  /    A nd           | Website:  www.openfoam.com                      |
|    \\/     M anipulation  |                                                 |
\*---------------------------------------------------------------------------*/
FoamFile
{
    version     2.0;
    format      ascii;
    class       volVectorField;
    location    "7.8";
    object      Psi;
}
// * * * * * * * * * * * * * * * * * * * * * * * * * * * * * * * * * * * * * //

dimensions      [0 2 -1 0 0 0 0];


internalField   nonuniform List<vector> 
65536
(
(0 0 9.26179e-06)
(0 0 2.77853e-05)
(0 0 4.63085e-05)
(0 0 6.48314e-05)
(0 0 8.33537e-05)
(0 0 0.000101875)
(0 0 0.000120396)
(0 0 0.000138916)
(0 0 0.000157434)
(0 0 0.00017595)
(0 0 0.000194465)
(0 0 0.000212977)
(0 0 0.000231486)
(0 0 0.000249993)
(0 0 0.000268496)
(0 0 0.000286994)
(0 0 0.000305488)
(0 0 0.000323977)
(0 0 0.000342459)
(0 0 0.000360935)
(0 0 0.000379403)
(0 0 0.000397863)
(0 0 0.000416313)
(0 0 0.000434752)
(0 0 0.000453179)
(0 0 0.000471593)
(0 0 0.000489993)
(0 0 0.000508377)
(0 0 0.000526744)
(0 0 0.000545092)
(0 0 0.000563418)
(0 0 0.000581723)
(0 0 0.000600003)
(0 0 0.000618256)
(0 0 0.00063648)
(0 0 0.000654674)
(0 0 0.000672833)
(0 0 0.000690957)
(0 0 0.000709042)
(0 0 0.000727086)
(0 0 0.000745086)
(0 0 0.000763038)
(0 0 0.000780939)
(0 0 0.000798787)
(0 0 0.000816578)
(0 0 0.000834307)
(0 0 0.000851973)
(0 0 0.00086957)
(0 0 0.000887095)
(0 0 0.000904543)
(0 0 0.000921912)
(0 0 0.000939195)
(0 0 0.00095639)
(0 0 0.00097349)
(0 0 0.000990493)
(0 0 0.00100739)
(0 0 0.00102418)
(0 0 0.00104086)
(0 0 0.00105742)
(0 0 0.00107386)
(0 0 0.00109016)
(0 0 0.00110634)
(0 0 0.00112237)
(0 0 0.00113826)
(0 0 0.00115399)
(0 0 0.00116957)
(0 0 0.00118499)
(0 0 0.00120024)
(0 0 0.00121532)
(0 0 0.00123021)
(0 0 0.00124492)
(0 0 0.00125943)
(0 0 0.00127375)
(0 0 0.00128786)
(0 0 0.00130177)
(0 0 0.00131545)
(0 0 0.00132891)
(0 0 0.00134215)
(0 0 0.00135515)
(0 0 0.00136791)
(0 0 0.00138042)
(0 0 0.00139268)
(0 0 0.00140468)
(0 0 0.00141642)
(0 0 0.00142789)
(0 0 0.00143909)
(0 0 0.00145)
(0 0 0.00146063)
(0 0 0.00147097)
(0 0 0.00148102)
(0 0 0.00149076)
(0 0 0.0015002)
(0 0 0.00150933)
(0 0 0.00151815)
(0 0 0.00152665)
(0 0 0.00153483)
(0 0 0.00154268)
(0 0 0.00155021)
(0 0 0.0015574)
(0 0 0.00156426)
(0 0 0.00157077)
(0 0 0.00157695)
(0 0 0.00158279)
(0 0 0.00158828)
(0 0 0.00159342)
(0 0 0.00159821)
(0 0 0.00160265)
(0 0 0.00160675)
(0 0 0.00161048)
(0 0 0.00161387)
(0 0 0.0016169)
(0 0 0.00161958)
(0 0 0.0016219)
(0 0 0.00162387)
(0 0 0.00162549)
(0 0 0.00162675)
(0 0 0.00162766)
(0 0 0.00162823)
(0 0 0.00162844)
(0 0 0.0016283)
(0 0 0.00162782)
(0 0 0.001627)
(0 0 0.00162584)
(0 0 0.00162433)
(0 0 0.0016225)
(0 0 0.00162032)
(0 0 0.00161782)
(0 0 0.001615)
(0 0 0.00161185)
(0 0 0.00160838)
(0 0 0.00160459)
(0 0 0.00160049)
(0 0 0.00159609)
(0 0 0.00159138)
(0 0 0.00158637)
(0 0 0.00158106)
(0 0 0.00157547)
(0 0 0.00156959)
(0 0 0.00156343)
(0 0 0.00155699)
(0 0 0.00155028)
(0 0 0.0015433)
(0 0 0.00153606)
(0 0 0.00152857)
(0 0 0.00152082)
(0 0 0.00151283)
(0 0 0.00150459)
(0 0 0.00149612)
(0 0 0.00148742)
(0 0 0.00147849)
(0 0 0.00146934)
(0 0 0.00145998)
(0 0 0.0014504)
(0 0 0.00144062)
(0 0 0.00143064)
(0 0 0.00142047)
(0 0 0.0014101)
(0 0 0.00139955)
(0 0 0.00138882)
(0 0 0.00137792)
(0 0 0.00136684)
(0 0 0.0013556)
(0 0 0.0013442)
(0 0 0.00133265)
(0 0 0.00132094)
(0 0 0.00130909)
(0 0 0.00129709)
(0 0 0.00128496)
(0 0 0.0012727)
(0 0 0.00126031)
(0 0 0.00124779)
(0 0 0.00123515)
(0 0 0.0012224)
(0 0 0.00120954)
(0 0 0.00119657)
(0 0 0.00118349)
(0 0 0.00117032)
(0 0 0.00115705)
(0 0 0.00114368)
(0 0 0.00113023)
(0 0 0.00111669)
(0 0 0.00110307)
(0 0 0.00108937)
(0 0 0.00107559)
(0 0 0.00106174)
(0 0 0.00104782)
(0 0 0.00103384)
(0 0 0.00101979)
(0 0 0.00100568)
(0 0 0.000991514)
(0 0 0.000977291)
(0 0 0.000963014)
(0 0 0.000948688)
(0 0 0.000934313)
(0 0 0.000919892)
(0 0 0.000905428)
(0 0 0.000890923)
(0 0 0.000876378)
(0 0 0.000861796)
(0 0 0.000847179)
(0 0 0.000832529)
(0 0 0.000817847)
(0 0 0.000803136)
(0 0 0.000788396)
(0 0 0.00077363)
(0 0 0.000758839)
(0 0 0.000744025)
(0 0 0.000729189)
(0 0 0.000714332)
(0 0 0.000699457)
(0 0 0.000684563)
(0 0 0.000669652)
(0 0 0.000654726)
(0 0 0.000639786)
(0 0 0.000624832)
(0 0 0.000609865)
(0 0 0.000594888)
(0 0 0.000579899)
(0 0 0.000564901)
(0 0 0.000549894)
(0 0 0.000534878)
(0 0 0.000519855)
(0 0 0.000504826)
(0 0 0.00048979)
(0 0 0.000474749)
(0 0 0.000459702)
(0 0 0.000444651)
(0 0 0.000429597)
(0 0 0.000414538)
(0 0 0.000399477)
(0 0 0.000384413)
(0 0 0.000369346)
(0 0 0.000354277)
(0 0 0.000339207)
(0 0 0.000324135)
(0 0 0.000309062)
(0 0 0.000293988)
(0 0 0.000278913)
(0 0 0.000263837)
(0 0 0.000248761)
(0 0 0.000233685)
(0 0 0.000218608)
(0 0 0.000203531)
(0 0 0.000188454)
(0 0 0.000173377)
(0 0 0.0001583)
(0 0 0.000143224)
(0 0 0.000128147)
(0 0 0.00011307)
(0 0 9.79939e-05)
(0 0 8.29176e-05)
(0 0 6.78415e-05)
(0 0 5.27655e-05)
(0 0 3.76896e-05)
(0 0 2.26137e-05)
(0 0 7.5379e-06)
(0 0 2.77854e-05)
(0 0 8.3356e-05)
(0 0 0.000138926)
(0 0 0.000194495)
(0 0 0.000250062)
(0 0 0.000305627)
(0 0 0.000361189)
(0 0 0.000416748)
(0 0 0.000472303)
(0 0 0.000527852)
(0 0 0.000583396)
(0 0 0.000638933)
(0 0 0.000694462)
(0 0 0.000749982)
(0 0 0.000805491)
(0 0 0.000860987)
(0 0 0.00091647)
(0 0 0.000971936)
(0 0 0.00102738)
(0 0 0.00108281)
(0 0 0.00113822)
(0 0 0.0011936)
(0 0 0.00124895)
(0 0 0.00130427)
(0 0 0.00135955)
(0 0 0.00141479)
(0 0 0.00146999)
(0 0 0.00152515)
(0 0 0.00158025)
(0 0 0.00163529)
(0 0 0.00169028)
(0 0 0.00174519)
(0 0 0.00180003)
(0 0 0.00185479)
(0 0 0.00190947)
(0 0 0.00196405)
(0 0 0.00201853)
(0 0 0.00207291)
(0 0 0.00212717)
(0 0 0.0021813)
(0 0 0.0022353)
(0 0 0.00228916)
(0 0 0.00234287)
(0 0 0.00239642)
(0 0 0.00244979)
(0 0 0.00250298)
(0 0 0.00255598)
(0 0 0.00260878)
(0 0 0.00266136)
(0 0 0.00271371)
(0 0 0.00276582)
(0 0 0.00281767)
(0 0 0.00286926)
(0 0 0.00292057)
(0 0 0.00297158)
(0 0 0.00302228)
(0 0 0.00307266)
(0 0 0.0031227)
(0 0 0.00317238)
(0 0 0.00322169)
(0 0 0.00327062)
(0 0 0.00331915)
(0 0 0.00336725)
(0 0 0.00341492)
(0 0 0.00346214)
(0 0 0.00350888)
(0 0 0.00355514)
(0 0 0.00360089)
(0 0 0.00364612)
(0 0 0.00369081)
(0 0 0.00373494)
(0 0 0.0037785)
(0 0 0.00382145)
(0 0 0.0038638)
(0 0 0.00390551)
(0 0 0.00394657)
(0 0 0.00398697)
(0 0 0.00402668)
(0 0 0.00406568)
(0 0 0.00410397)
(0 0 0.00414151)
(0 0 0.0041783)
(0 0 0.00421431)
(0 0 0.00424954)
(0 0 0.00428395)
(0 0 0.00431754)
(0 0 0.00435029)
(0 0 0.00438219)
(0 0 0.00441321)
(0 0 0.00444335)
(0 0 0.00447259)
(0 0 0.00450092)
(0 0 0.00452831)
(0 0 0.00455477)
(0 0 0.00458027)
(0 0 0.00460481)
(0 0 0.00462837)
(0 0 0.00465095)
(0 0 0.00467253)
(0 0 0.0046931)
(0 0 0.00471266)
(0 0 0.00473119)
(0 0 0.0047487)
(0 0 0.00476517)
(0 0 0.0047806)
(0 0 0.00479498)
(0 0 0.00480831)
(0 0 0.00482059)
(0 0 0.0048318)
(0 0 0.00484196)
(0 0 0.00485105)
(0 0 0.00485909)
(0 0 0.00486606)
(0 0 0.00487196)
(0 0 0.00487681)
(0 0 0.0048806)
(0 0 0.00488334)
(0 0 0.00488502)
(0 0 0.00488566)
(0 0 0.00488525)
(0 0 0.00488381)
(0 0 0.00488134)
(0 0 0.00487784)
(0 0 0.00487333)
(0 0 0.00486782)
(0 0 0.0048613)
(0 0 0.00485379)
(0 0 0.00484531)
(0 0 0.00483585)
(0 0 0.00482544)
(0 0 0.00481408)
(0 0 0.00480178)
(0 0 0.00478856)
(0 0 0.00477442)
(0 0 0.00475939)
(0 0 0.00474348)
(0 0 0.00472669)
(0 0 0.00470904)
(0 0 0.00469055)
(0 0 0.00467123)
(0 0 0.0046511)
(0 0 0.00463016)
(0 0 0.00460844)
(0 0 0.00458595)
(0 0 0.0045627)
(0 0 0.00453872)
(0 0 0.00451401)
(0 0 0.00448859)
(0 0 0.00446248)
(0 0 0.00443569)
(0 0 0.00440824)
(0 0 0.00438014)
(0 0 0.00435141)
(0 0 0.00432206)
(0 0 0.00429212)
(0 0 0.00426158)
(0 0 0.00423048)
(0 0 0.00419883)
(0 0 0.00416664)
(0 0 0.00413392)
(0 0 0.00410069)
(0 0 0.00406696)
(0 0 0.00403276)
(0 0 0.00399809)
(0 0 0.00396296)
(0 0 0.0039274)
(0 0 0.00389142)
(0 0 0.00385502)
(0 0 0.00381822)
(0 0 0.00378104)
(0 0 0.00374349)
(0 0 0.00370557)
(0 0 0.00366732)
(0 0 0.00362872)
(0 0 0.0035898)
(0 0 0.00355057)
(0 0 0.00351104)
(0 0 0.00347123)
(0 0 0.00343113)
(0 0 0.00339077)
(0 0 0.00335015)
(0 0 0.00330928)
(0 0 0.00326818)
(0 0 0.00322684)
(0 0 0.0031853)
(0 0 0.00314354)
(0 0 0.00310158)
(0 0 0.00305943)
(0 0 0.0030171)
(0 0 0.00297459)
(0 0 0.00293192)
(0 0 0.00288909)
(0 0 0.00284611)
(0 0 0.00280298)
(0 0 0.00275972)
(0 0 0.00271632)
(0 0 0.00267281)
(0 0 0.00262917)
(0 0 0.00258542)
(0 0 0.00254157)
(0 0 0.00249762)
(0 0 0.00245357)
(0 0 0.00240943)
(0 0 0.00236521)
(0 0 0.00232091)
(0 0 0.00227654)
(0 0 0.0022321)
(0 0 0.00218759)
(0 0 0.00214302)
(0 0 0.00209839)
(0 0 0.0020537)
(0 0 0.00200897)
(0 0 0.00196419)
(0 0 0.00191937)
(0 0 0.00187451)
(0 0 0.00182961)
(0 0 0.00178467)
(0 0 0.00173971)
(0 0 0.00169471)
(0 0 0.00164969)
(0 0 0.00160464)
(0 0 0.00155957)
(0 0 0.00151448)
(0 0 0.00146937)
(0 0 0.00142425)
(0 0 0.00137911)
(0 0 0.00133396)
(0 0 0.00128879)
(0 0 0.00124362)
(0 0 0.00119843)
(0 0 0.00115324)
(0 0 0.00110804)
(0 0 0.00106283)
(0 0 0.00101762)
(0 0 0.000972406)
(0 0 0.000927186)
(0 0 0.000881964)
(0 0 0.000836739)
(0 0 0.000791512)
(0 0 0.000746283)
(0 0 0.000701054)
(0 0 0.000655824)
(0 0 0.000610593)
(0 0 0.000565362)
(0 0 0.000520131)
(0 0 0.000474901)
(0 0 0.00042967)
(0 0 0.00038444)
(0 0 0.000339211)
(0 0 0.000293981)
(0 0 0.000248753)
(0 0 0.000203524)
(0 0 0.000158296)
(0 0 0.000113069)
(0 0 6.78411e-05)
(0 0 2.26137e-05)
(0 0 4.63093e-05)
(0 0 0.000138927)
(0 0 0.000231544)
(0 0 0.00032416)
(0 0 0.000416772)
(0 0 0.000509381)
(0 0 0.000601985)
(0 0 0.000694584)
(0 0 0.000787176)
(0 0 0.00087976)
(0 0 0.000972335)
(0 0 0.0010649)
(0 0 0.00115745)
(0 0 0.00124998)
(0 0 0.0013425)
(0 0 0.00143499)
(0 0 0.00152747)
(0 0 0.00161991)
(0 0 0.00171233)
(0 0 0.00180471)
(0 0 0.00189706)
(0 0 0.00198936)
(0 0 0.00208161)
(0 0 0.00217382)
(0 0 0.00226596)
(0 0 0.00235804)
(0 0 0.00245004)
(0 0 0.00254197)
(0 0 0.00263381)
(0 0 0.00272556)
(0 0 0.0028172)
(0 0 0.00290873)
(0 0 0.00300014)
(0 0 0.00309142)
(0 0 0.00318255)
(0 0 0.00327353)
(0 0 0.00336434)
(0 0 0.00345498)
(0 0 0.00354542)
(0 0 0.00363565)
(0 0 0.00372566)
(0 0 0.00381544)
(0 0 0.00390496)
(0 0 0.00399422)
(0 0 0.00408319)
(0 0 0.00417186)
(0 0 0.0042602)
(0 0 0.00434821)
(0 0 0.00443585)
(0 0 0.00452312)
(0 0 0.00460998)
(0 0 0.00469642)
(0 0 0.00478241)
(0 0 0.00486794)
(0 0 0.00495297)
(0 0 0.00503749)
(0 0 0.00512147)
(0 0 0.00520489)
(0 0 0.00528771)
(0 0 0.00536992)
(0 0 0.00545148)
(0 0 0.00553237)
(0 0 0.00561257)
(0 0 0.00569204)
(0 0 0.00577075)
(0 0 0.00584868)
(0 0 0.00592579)
(0 0 0.00600207)
(0 0 0.00607747)
(0 0 0.00615197)
(0 0 0.00622554)
(0 0 0.00629815)
(0 0 0.00636977)
(0 0 0.00644036)
(0 0 0.0065099)
(0 0 0.00657836)
(0 0 0.00664571)
(0 0 0.00671191)
(0 0 0.00677694)
(0 0 0.00684077)
(0 0 0.00690336)
(0 0 0.00696469)
(0 0 0.00702473)
(0 0 0.00708346)
(0 0 0.00714083)
(0 0 0.00719684)
(0 0 0.00725144)
(0 0 0.00730462)
(0 0 0.00735634)
(0 0 0.00740659)
(0 0 0.00745533)
(0 0 0.00750256)
(0 0 0.00754823)
(0 0 0.00759234)
(0 0 0.00763486)
(0 0 0.00767576)
(0 0 0.00771505)
(0 0 0.00775268)
(0 0 0.00778866)
(0 0 0.00782296)
(0 0 0.00785556)
(0 0 0.00788647)
(0 0 0.00791565)
(0 0 0.00794311)
(0 0 0.00796883)
(0 0 0.0079928)
(0 0 0.00801502)
(0 0 0.00803549)
(0 0 0.00805418)
(0 0 0.00807111)
(0 0 0.00808627)
(0 0 0.00809966)
(0 0 0.00811127)
(0 0 0.00812112)
(0 0 0.00812919)
(0 0 0.00813551)
(0 0 0.00814006)
(0 0 0.00814286)
(0 0 0.00814392)
(0 0 0.00814324)
(0 0 0.00814083)
(0 0 0.0081367)
(0 0 0.00813087)
(0 0 0.00812334)
(0 0 0.00811414)
(0 0 0.00810326)
(0 0 0.00809074)
(0 0 0.00807659)
(0 0 0.00806082)
(0 0 0.00804345)
(0 0 0.0080245)
(0 0 0.00800399)
(0 0 0.00798194)
(0 0 0.00795837)
(0 0 0.0079333)
(0 0 0.00790676)
(0 0 0.00787876)
(0 0 0.00784934)
(0 0 0.00781851)
(0 0 0.00778629)
(0 0 0.00775272)
(0 0 0.00771781)
(0 0 0.00768159)
(0 0 0.00764409)
(0 0 0.00760533)
(0 0 0.00756534)
(0 0 0.00752414)
(0 0 0.00748175)
(0 0 0.00743822)
(0 0 0.00739355)
(0 0 0.00734778)
(0 0 0.00730093)
(0 0 0.00725303)
(0 0 0.0072041)
(0 0 0.00715418)
(0 0 0.00710327)
(0 0 0.00705142)
(0 0 0.00699865)
(0 0 0.00694497)
(0 0 0.00689043)
(0 0 0.00683503)
(0 0 0.00677881)
(0 0 0.00672178)
(0 0 0.00666398)
(0 0 0.00660543)
(0 0 0.00654614)
(0 0 0.00648615)
(0 0 0.00642547)
(0 0 0.00636413)
(0 0 0.00630215)
(0 0 0.00623954)
(0 0 0.00617634)
(0 0 0.00611256)
(0 0 0.00604823)
(0 0 0.00598335)
(0 0 0.00591796)
(0 0 0.00585206)
(0 0 0.00578569)
(0 0 0.00571885)
(0 0 0.00565156)
(0 0 0.00558385)
(0 0 0.00551573)
(0 0 0.00544721)
(0 0 0.00537831)
(0 0 0.00530906)
(0 0 0.00523945)
(0 0 0.00516951)
(0 0 0.00509925)
(0 0 0.00502869)
(0 0 0.00495784)
(0 0 0.00488671)
(0 0 0.00481532)
(0 0 0.00474367)
(0 0 0.00467179)
(0 0 0.00459967)
(0 0 0.00452734)
(0 0 0.00445481)
(0 0 0.00438207)
(0 0 0.00430915)
(0 0 0.00423606)
(0 0 0.0041628)
(0 0 0.00408938)
(0 0 0.00401581)
(0 0 0.00394211)
(0 0 0.00386827)
(0 0 0.00379431)
(0 0 0.00372023)
(0 0 0.00364604)
(0 0 0.00357176)
(0 0 0.00349737)
(0 0 0.0034229)
(0 0 0.00334834)
(0 0 0.0032737)
(0 0 0.00319899)
(0 0 0.00312422)
(0 0 0.00304938)
(0 0 0.00297449)
(0 0 0.00289954)
(0 0 0.00282455)
(0 0 0.00274951)
(0 0 0.00267443)
(0 0 0.00259931)
(0 0 0.00252416)
(0 0 0.00244898)
(0 0 0.00237377)
(0 0 0.00229853)
(0 0 0.00222328)
(0 0 0.002148)
(0 0 0.00207271)
(0 0 0.0019974)
(0 0 0.00192207)
(0 0 0.00184674)
(0 0 0.00177139)
(0 0 0.00169604)
(0 0 0.00162068)
(0 0 0.00154531)
(0 0 0.00146994)
(0 0 0.00139457)
(0 0 0.00131919)
(0 0 0.00124381)
(0 0 0.00116842)
(0 0 0.00109304)
(0 0 0.00101765)
(0 0 0.00094227)
(0 0 0.000866885)
(0 0 0.000791501)
(0 0 0.000716117)
(0 0 0.000640733)
(0 0 0.000565351)
(0 0 0.000489969)
(0 0 0.000414587)
(0 0 0.000339207)
(0 0 0.000263827)
(0 0 0.000188447)
(0 0 0.000113068)
(0 0 3.76894e-05)
(0 0 6.48335e-05)
(0 0 0.0001945)
(0 0 0.000324165)
(0 0 0.000453827)
(0 0 0.000583486)
(0 0 0.00071314)
(0 0 0.000842788)
(0 0 0.000972428)
(0 0 0.00110206)
(0 0 0.00123168)
(0 0 0.00136128)
(0 0 0.00149088)
(0 0 0.00162045)
(0 0 0.00175)
(0 0 0.00187953)
(0 0 0.00200902)
(0 0 0.00213849)
(0 0 0.00226792)
(0 0 0.00239731)
(0 0 0.00252665)
(0 0 0.00265594)
(0 0 0.00278517)
(0 0 0.00291433)
(0 0 0.00304343)
(0 0 0.00317243)
(0 0 0.00330135)
(0 0 0.00343017)
(0 0 0.00355888)
(0 0 0.00368747)
(0 0 0.00381593)
(0 0 0.00394424)
(0 0 0.0040724)
(0 0 0.00420039)
(0 0 0.00432819)
(0 0 0.00445579)
(0 0 0.00458318)
(0 0 0.00471033)
(0 0 0.00483724)
(0 0 0.00496387)
(0 0 0.00509022)
(0 0 0.00521626)
(0 0 0.00534197)
(0 0 0.00546732)
(0 0 0.00559231)
(0 0 0.00571689)
(0 0 0.00584105)
(0 0 0.00596476)
(0 0 0.00608799)
(0 0 0.00621073)
(0 0 0.00633292)
(0 0 0.00645456)
(0 0 0.00657561)
(0 0 0.00669603)
(0 0 0.0068158)
(0 0 0.00693489)
(0 0 0.00705325)
(0 0 0.00717086)
(0 0 0.00728767)
(0 0 0.00740366)
(0 0 0.00751879)
(0 0 0.00763301)
(0 0 0.0077463)
(0 0 0.00785861)
(0 0 0.00796991)
(0 0 0.00808015)
(0 0 0.00818929)
(0 0 0.00829729)
(0 0 0.00840412)
(0 0 0.00850972)
(0 0 0.00861407)
(0 0 0.00871711)
(0 0 0.0088188)
(0 0 0.00891911)
(0 0 0.00901798)
(0 0 0.00911538)
(0 0 0.00921127)
(0 0 0.00930559)
(0 0 0.00939832)
(0 0 0.0094894)
(0 0 0.0095788)
(0 0 0.00966647)
(0 0 0.00975238)
(0 0 0.00983647)
(0 0 0.00991873)
(0 0 0.00999909)
(0 0 0.0100775)
(0 0 0.010154)
(0 0 0.0102285)
(0 0 0.0103009)
(0 0 0.0103713)
(0 0 0.0104396)
(0 0 0.0105057)
(0 0 0.0105697)
(0 0 0.0106315)
(0 0 0.0106911)
(0 0 0.0107483)
(0 0 0.0108034)
(0 0 0.0108561)
(0 0 0.0109065)
(0 0 0.0109545)
(0 0 0.0110002)
(0 0 0.0110435)
(0 0 0.0110843)
(0 0 0.0111228)
(0 0 0.0111588)
(0 0 0.0111924)
(0 0 0.0112235)
(0 0 0.0112522)
(0 0 0.0112783)
(0 0 0.011302)
(0 0 0.0113233)
(0 0 0.011342)
(0 0 0.0113583)
(0 0 0.011372)
(0 0 0.0113833)
(0 0 0.0113922)
(0 0 0.0113985)
(0 0 0.0114025)
(0 0 0.0114039)
(0 0 0.011403)
(0 0 0.0113996)
(0 0 0.0113938)
(0 0 0.0113856)
(0 0 0.011375)
(0 0 0.0113621)
(0 0 0.0113469)
(0 0 0.0113293)
(0 0 0.0113095)
(0 0 0.0112874)
(0 0 0.011263)
(0 0 0.0112365)
(0 0 0.0112077)
(0 0 0.0111768)
(0 0 0.0111438)
(0 0 0.0111087)
(0 0 0.0110715)
(0 0 0.0110323)
(0 0 0.010991)
(0 0 0.0109478)
(0 0 0.0109027)
(0 0 0.0108557)
(0 0 0.0108068)
(0 0 0.010756)
(0 0 0.0107035)
(0 0 0.0106492)
(0 0 0.0105932)
(0 0 0.0105354)
(0 0 0.0104761)
(0 0 0.0104151)
(0 0 0.0103525)
(0 0 0.0102884)
(0 0 0.0102228)
(0 0 0.0101557)
(0 0 0.0100871)
(0 0 0.0100172)
(0 0 0.00994591)
(0 0 0.00987329)
(0 0 0.00979937)
(0 0 0.00972419)
(0 0 0.00964779)
(0 0 0.0095702)
(0 0 0.00949145)
(0 0 0.00941158)
(0 0 0.00933063)
(0 0 0.00924862)
(0 0 0.00916559)
(0 0 0.00908157)
(0 0 0.00899659)
(0 0 0.00891068)
(0 0 0.00882387)
(0 0 0.0087362)
(0 0 0.00864769)
(0 0 0.00855837)
(0 0 0.00846827)
(0 0 0.00837742)
(0 0 0.00828584)
(0 0 0.00819356)
(0 0 0.00810061)
(0 0 0.00800701)
(0 0 0.00791279)
(0 0 0.00781797)
(0 0 0.00772257)
(0 0 0.00762663)
(0 0 0.00753015)
(0 0 0.00743317)
(0 0 0.0073357)
(0 0 0.00723776)
(0 0 0.00713938)
(0 0 0.00704058)
(0 0 0.00694137)
(0 0 0.00684177)
(0 0 0.0067418)
(0 0 0.00664148)
(0 0 0.00654082)
(0 0 0.00643985)
(0 0 0.00633857)
(0 0 0.006237)
(0 0 0.00613516)
(0 0 0.00603306)
(0 0 0.00593072)
(0 0 0.00582814)
(0 0 0.00572534)
(0 0 0.00562234)
(0 0 0.00551914)
(0 0 0.00541575)
(0 0 0.0053122)
(0 0 0.00520848)
(0 0 0.00510461)
(0 0 0.00500059)
(0 0 0.00489644)
(0 0 0.00479217)
(0 0 0.00468778)
(0 0 0.00458328)
(0 0 0.00447869)
(0 0 0.00437399)
(0 0 0.00426922)
(0 0 0.00416436)
(0 0 0.00405943)
(0 0 0.00395443)
(0 0 0.00384937)
(0 0 0.00374425)
(0 0 0.00363908)
(0 0 0.00353386)
(0 0 0.0034286)
(0 0 0.00332331)
(0 0 0.00321798)
(0 0 0.00311261)
(0 0 0.00300722)
(0 0 0.00290181)
(0 0 0.00279637)
(0 0 0.00269092)
(0 0 0.00258545)
(0 0 0.00247996)
(0 0 0.00237447)
(0 0 0.00226896)
(0 0 0.00216345)
(0 0 0.00205792)
(0 0 0.0019524)
(0 0 0.00184687)
(0 0 0.00174133)
(0 0 0.00163579)
(0 0 0.00153026)
(0 0 0.00142472)
(0 0 0.00131918)
(0 0 0.00121364)
(0 0 0.0011081)
(0 0 0.00100256)
(0 0 0.000897026)
(0 0 0.00079149)
(0 0 0.000685955)
(0 0 0.000580421)
(0 0 0.000474889)
(0 0 0.000369357)
(0 0 0.000263826)
(0 0 0.000158295)
(0 0 5.27651e-05)
(0 0 8.33582e-05)
(0 0 0.000250074)
(0 0 0.000416788)
(0 0 0.000583499)
(0 0 0.000750205)
(0 0 0.000916905)
(0 0 0.0010836)
(0 0 0.00125028)
(0 0 0.00141695)
(0 0 0.00158361)
(0 0 0.00175025)
(0 0 0.00191687)
(0 0 0.00208347)
(0 0 0.00225004)
(0 0 0.00241658)
(0 0 0.00258309)
(0 0 0.00274955)
(0 0 0.00291597)
(0 0 0.00308234)
(0 0 0.00324864)
(0 0 0.00341488)
(0 0 0.00358105)
(0 0 0.00374713)
(0 0 0.00391312)
(0 0 0.004079)
(0 0 0.00424477)
(0 0 0.00441041)
(0 0 0.00457591)
(0 0 0.00474126)
(0 0 0.00490644)
(0 0 0.00507144)
(0 0 0.00523624)
(0 0 0.00540082)
(0 0 0.00556516)
(0 0 0.00572925)
(0 0 0.00589306)
(0 0 0.00605657)
(0 0 0.00621977)
(0 0 0.00638262)
(0 0 0.0065451)
(0 0 0.00670719)
(0 0 0.00686885)
(0 0 0.00703006)
(0 0 0.00719079)
(0 0 0.00735101)
(0 0 0.00751069)
(0 0 0.00766979)
(0 0 0.00782829)
(0 0 0.00798613)
(0 0 0.0081433)
(0 0 0.00829974)
(0 0 0.00845542)
(0 0 0.00861031)
(0 0 0.00876436)
(0 0 0.00891752)
(0 0 0.00906976)
(0 0 0.00922103)
(0 0 0.00937128)
(0 0 0.00952047)
(0 0 0.00966856)
(0 0 0.00981549)
(0 0 0.00996121)
(0 0 0.0101057)
(0 0 0.0102488)
(0 0 0.0103906)
(0 0 0.010531)
(0 0 0.01067)
(0 0 0.0108074)
(0 0 0.0109432)
(0 0 0.0110775)
(0 0 0.01121)
(0 0 0.0113408)
(0 0 0.0114699)
(0 0 0.0115971)
(0 0 0.0117224)
(0 0 0.0118457)
(0 0 0.0119671)
(0 0 0.0120864)
(0 0 0.0122035)
(0 0 0.0123186)
(0 0 0.0124313)
(0 0 0.0125419)
(0 0 0.0126501)
(0 0 0.0127559)
(0 0 0.0128593)
(0 0 0.0129602)
(0 0 0.0130586)
(0 0 0.0131544)
(0 0 0.0132476)
(0 0 0.0133382)
(0 0 0.013426)
(0 0 0.0135111)
(0 0 0.0135934)
(0 0 0.0136729)
(0 0 0.0137495)
(0 0 0.0138232)
(0 0 0.013894)
(0 0 0.0139618)
(0 0 0.0140266)
(0 0 0.0140884)
(0 0 0.0141472)
(0 0 0.0142029)
(0 0 0.0142554)
(0 0 0.0143049)
(0 0 0.0143512)
(0 0 0.0143944)
(0 0 0.0144344)
(0 0 0.0144713)
(0 0 0.014505)
(0 0 0.0145354)
(0 0 0.0145627)
(0 0 0.0145868)
(0 0 0.0146077)
(0 0 0.0146254)
(0 0 0.01464)
(0 0 0.0146513)
(0 0 0.0146595)
(0 0 0.0146645)
(0 0 0.0146664)
(0 0 0.0146651)
(0 0 0.0146607)
(0 0 0.0146532)
(0 0 0.0146427)
(0 0 0.0146291)
(0 0 0.0146124)
(0 0 0.0145928)
(0 0 0.0145702)
(0 0 0.0145447)
(0 0 0.0145162)
(0 0 0.0144848)
(0 0 0.0144507)
(0 0 0.0144137)
(0 0 0.0143739)
(0 0 0.0143314)
(0 0 0.0142861)
(0 0 0.0142383)
(0 0 0.0141878)
(0 0 0.0141347)
(0 0 0.0140791)
(0 0 0.014021)
(0 0 0.0139605)
(0 0 0.0138976)
(0 0 0.0138323)
(0 0 0.0137646)
(0 0 0.0136948)
(0 0 0.0136227)
(0 0 0.0135484)
(0 0 0.013472)
(0 0 0.0133935)
(0 0 0.013313)
(0 0 0.0132305)
(0 0 0.0131461)
(0 0 0.0130598)
(0 0 0.0129716)
(0 0 0.0128816)
(0 0 0.0127899)
(0 0 0.0126964)
(0 0 0.0126013)
(0 0 0.0125046)
(0 0 0.0124063)
(0 0 0.0123065)
(0 0 0.0122052)
(0 0 0.0121025)
(0 0 0.0119983)
(0 0 0.0118928)
(0 0 0.011786)
(0 0 0.0116779)
(0 0 0.0115686)
(0 0 0.0114581)
(0 0 0.0113465)
(0 0 0.0112337)
(0 0 0.0111198)
(0 0 0.011005)
(0 0 0.0108891)
(0 0 0.0107722)
(0 0 0.0106544)
(0 0 0.0105357)
(0 0 0.0104162)
(0 0 0.0102958)
(0 0 0.0101746)
(0 0 0.0100527)
(0 0 0.00992997)
(0 0 0.00980657)
(0 0 0.00968249)
(0 0 0.00955776)
(0 0 0.00943241)
(0 0 0.00930646)
(0 0 0.00917994)
(0 0 0.00905287)
(0 0 0.00892528)
(0 0 0.0087972)
(0 0 0.00866864)
(0 0 0.00853962)
(0 0 0.00841018)
(0 0 0.00828033)
(0 0 0.00815009)
(0 0 0.00801947)
(0 0 0.00788851)
(0 0 0.00775722)
(0 0 0.00762561)
(0 0 0.0074937)
(0 0 0.00736151)
(0 0 0.00722906)
(0 0 0.00709635)
(0 0 0.00696341)
(0 0 0.00683025)
(0 0 0.00669688)
(0 0 0.00656331)
(0 0 0.00642956)
(0 0 0.00629564)
(0 0 0.00616156)
(0 0 0.00602733)
(0 0 0.00589297)
(0 0 0.00575847)
(0 0 0.00562386)
(0 0 0.00548913)
(0 0 0.0053543)
(0 0 0.00521938)
(0 0 0.00508437)
(0 0 0.00494928)
(0 0 0.00481412)
(0 0 0.0046789)
(0 0 0.00454361)
(0 0 0.00440827)
(0 0 0.00427288)
(0 0 0.00413745)
(0 0 0.00400198)
(0 0 0.00386647)
(0 0 0.00373094)
(0 0 0.00359537)
(0 0 0.00345978)
(0 0 0.00332417)
(0 0 0.00318855)
(0 0 0.00305291)
(0 0 0.00291725)
(0 0 0.00278159)
(0 0 0.00264591)
(0 0 0.00251023)
(0 0 0.00237455)
(0 0 0.00223886)
(0 0 0.00210317)
(0 0 0.00196747)
(0 0 0.00183178)
(0 0 0.00169609)
(0 0 0.00156039)
(0 0 0.0014247)
(0 0 0.00128901)
(0 0 0.00115332)
(0 0 0.00101763)
(0 0 0.000881941)
(0 0 0.000746255)
(0 0 0.00061057)
(0 0 0.000474886)
(0 0 0.000339204)
(0 0 0.000203522)
(0 0 6.78407e-05)
(0 0 0.000101884)
(0 0 0.00030565)
(0 0 0.000509414)
(0 0 0.000713175)
(0 0 0.00091693)
(0 0 0.00112068)
(0 0 0.00132442)
(0 0 0.00152815)
(0 0 0.00173186)
(0 0 0.00193556)
(0 0 0.00213924)
(0 0 0.00234289)
(0 0 0.00254652)
(0 0 0.00275011)
(0 0 0.00295367)
(0 0 0.00315719)
(0 0 0.00336066)
(0 0 0.00356407)
(0 0 0.00376742)
(0 0 0.0039707)
(0 0 0.0041739)
(0 0 0.00437701)
(0 0 0.00458002)
(0 0 0.00478291)
(0 0 0.00498568)
(0 0 0.00518831)
(0 0 0.00539079)
(0 0 0.0055931)
(0 0 0.00579522)
(0 0 0.00599714)
(0 0 0.00619884)
(0 0 0.00640029)
(0 0 0.00660148)
(0 0 0.00680239)
(0 0 0.00700298)
(0 0 0.00720324)
(0 0 0.00740314)
(0 0 0.00760264)
(0 0 0.00780173)
(0 0 0.00800038)
(0 0 0.00819854)
(0 0 0.00839618)
(0 0 0.00859328)
(0 0 0.00878979)
(0 0 0.00898568)
(0 0 0.00918091)
(0 0 0.00937544)
(0 0 0.00956922)
(0 0 0.00976222)
(0 0 0.00995439)
(0 0 0.0101457)
(0 0 0.010336)
(0 0 0.0105254)
(0 0 0.0107138)
(0 0 0.0109011)
(0 0 0.0110872)
(0 0 0.0112722)
(0 0 0.011456)
(0 0 0.0116384)
(0 0 0.0118195)
(0 0 0.0119992)
(0 0 0.0121774)
(0 0 0.012354)
(0 0 0.0125291)
(0 0 0.0127025)
(0 0 0.0128742)
(0 0 0.0130442)
(0 0 0.0132122)
(0 0 0.0133784)
(0 0 0.0135425)
(0 0 0.0137047)
(0 0 0.0138647)
(0 0 0.0140225)
(0 0 0.0141781)
(0 0 0.0143313)
(0 0 0.0144822)
(0 0 0.0146306)
(0 0 0.0147765)
(0 0 0.0149199)
(0 0 0.0150605)
(0 0 0.0151985)
(0 0 0.0153337)
(0 0 0.015466)
(0 0 0.0155955)
(0 0 0.0157219)
(0 0 0.0158454)
(0 0 0.0159657)
(0 0 0.0160829)
(0 0 0.016197)
(0 0 0.0163077)
(0 0 0.0164152)
(0 0 0.0165192)
(0 0 0.0166199)
(0 0 0.0167171)
(0 0 0.0168109)
(0 0 0.016901)
(0 0 0.0169876)
(0 0 0.0170705)
(0 0 0.0171498)
(0 0 0.0172254)
(0 0 0.0172973)
(0 0 0.0173654)
(0 0 0.0174297)
(0 0 0.0174901)
(0 0 0.0175468)
(0 0 0.0175996)
(0 0 0.0176486)
(0 0 0.0176936)
(0 0 0.0177348)
(0 0 0.017772)
(0 0 0.0178054)
(0 0 0.0178348)
(0 0 0.0178604)
(0 0 0.017882)
(0 0 0.0178998)
(0 0 0.0179136)
(0 0 0.0179236)
(0 0 0.0179297)
(0 0 0.0179319)
(0 0 0.0179303)
(0 0 0.017925)
(0 0 0.0179158)
(0 0 0.0179028)
(0 0 0.0178861)
(0 0 0.0178658)
(0 0 0.0178417)
(0 0 0.017814)
(0 0 0.0177827)
(0 0 0.0177479)
(0 0 0.0177095)
(0 0 0.0176676)
(0 0 0.0176223)
(0 0 0.0175736)
(0 0 0.0175216)
(0 0 0.0174663)
(0 0 0.0174077)
(0 0 0.0173459)
(0 0 0.0172809)
(0 0 0.0172129)
(0 0 0.0171418)
(0 0 0.0170677)
(0 0 0.0169907)
(0 0 0.0169108)
(0 0 0.0168281)
(0 0 0.0167426)
(0 0 0.0166544)
(0 0 0.0165635)
(0 0 0.01647)
(0 0 0.016374)
(0 0 0.0162755)
(0 0 0.0161746)
(0 0 0.0160713)
(0 0 0.0159657)
(0 0 0.0158578)
(0 0 0.0157478)
(0 0 0.0156356)
(0 0 0.0155213)
(0 0 0.0154049)
(0 0 0.0152866)
(0 0 0.0151664)
(0 0 0.0150443)
(0 0 0.0149204)
(0 0 0.0147948)
(0 0 0.0146674)
(0 0 0.0145384)
(0 0 0.0144077)
(0 0 0.0142756)
(0 0 0.0141419)
(0 0 0.0140067)
(0 0 0.0138702)
(0 0 0.0137323)
(0 0 0.013593)
(0 0 0.0134526)
(0 0 0.0133108)
(0 0 0.0131679)
(0 0 0.0130239)
(0 0 0.0128788)
(0 0 0.0127326)
(0 0 0.0125854)
(0 0 0.0124372)
(0 0 0.0122881)
(0 0 0.0121381)
(0 0 0.0119872)
(0 0 0.0118355)
(0 0 0.011683)
(0 0 0.0115297)
(0 0 0.0113757)
(0 0 0.011221)
(0 0 0.0110657)
(0 0 0.0109097)
(0 0 0.0107531)
(0 0 0.0105959)
(0 0 0.0104382)
(0 0 0.0102799)
(0 0 0.0101212)
(0 0 0.00996197)
(0 0 0.0098023)
(0 0 0.00964219)
(0 0 0.00948169)
(0 0 0.0093208)
(0 0 0.00915954)
(0 0 0.00899795)
(0 0 0.00883603)
(0 0 0.0086738)
(0 0 0.00851129)
(0 0 0.00834851)
(0 0 0.00818547)
(0 0 0.0080222)
(0 0 0.00785871)
(0 0 0.007695)
(0 0 0.00753111)
(0 0 0.00736703)
(0 0 0.00720278)
(0 0 0.00703838)
(0 0 0.00687383)
(0 0 0.00670915)
(0 0 0.00654434)
(0 0 0.00637942)
(0 0 0.00621439)
(0 0 0.00604927)
(0 0 0.00588407)
(0 0 0.00571878)
(0 0 0.00555342)
(0 0 0.00538799)
(0 0 0.00522251)
(0 0 0.00505697)
(0 0 0.00489138)
(0 0 0.00472575)
(0 0 0.00456009)
(0 0 0.00439439)
(0 0 0.00422867)
(0 0 0.00406292)
(0 0 0.00389714)
(0 0 0.00373136)
(0 0 0.00356555)
(0 0 0.00339973)
(0 0 0.00323391)
(0 0 0.00306807)
(0 0 0.00290223)
(0 0 0.00273639)
(0 0 0.00257054)
(0 0 0.00240469)
(0 0 0.00223884)
(0 0 0.00207299)
(0 0 0.00190714)
(0 0 0.0017413)
(0 0 0.00157545)
(0 0 0.00140961)
(0 0 0.00124376)
(0 0 0.00107792)
(0 0 0.000912086)
(0 0 0.00074625)
(0 0 0.000580415)
(0 0 0.000414581)
(0 0 0.000248748)
(0 0 8.29161e-05)
(0 0 0.00012041)
(0 0 0.000361228)
(0 0 0.000602044)
(0 0 0.000842856)
(0 0 0.00108366)
(0 0 0.00132446)
(0 0 0.00156525)
(0 0 0.00180602)
(0 0 0.00204678)
(0 0 0.00228753)
(0 0 0.00252824)
(0 0 0.00276894)
(0 0 0.0030096)
(0 0 0.00325023)
(0 0 0.00349081)
(0 0 0.00373134)
(0 0 0.00397182)
(0 0 0.00421224)
(0 0 0.00445258)
(0 0 0.00469284)
(0 0 0.00493301)
(0 0 0.00517307)
(0 0 0.00541302)
(0 0 0.00565283)
(0 0 0.0058925)
(0 0 0.00613201)
(0 0 0.00637134)
(0 0 0.00661047)
(0 0 0.00684938)
(0 0 0.00708806)
(0 0 0.00732648)
(0 0 0.00756461)
(0 0 0.00780243)
(0 0 0.00803992)
(0 0 0.00827705)
(0 0 0.00851378)
(0 0 0.00875009)
(0 0 0.00898594)
(0 0 0.0092213)
(0 0 0.00945613)
(0 0 0.0096904)
(0 0 0.00992407)
(0 0 0.0101571)
(0 0 0.0103894)
(0 0 0.010621)
(0 0 0.0108518)
(0 0 0.0110818)
(0 0 0.011311)
(0 0 0.0115391)
(0 0 0.0117664)
(0 0 0.0119925)
(0 0 0.0122176)
(0 0 0.0124416)
(0 0 0.0126643)
(0 0 0.0128858)
(0 0 0.0131059)
(0 0 0.0133246)
(0 0 0.0135419)
(0 0 0.0137577)
(0 0 0.0139718)
(0 0 0.0141843)
(0 0 0.0143951)
(0 0 0.014604)
(0 0 0.0148111)
(0 0 0.0150162)
(0 0 0.0152192)
(0 0 0.0154202)
(0 0 0.015619)
(0 0 0.0158155)
(0 0 0.0160097)
(0 0 0.0162014)
(0 0 0.0163907)
(0 0 0.0165774)
(0 0 0.0167614)
(0 0 0.0169427)
(0 0 0.0171211)
(0 0 0.0172967)
(0 0 0.0174693)
(0 0 0.0176388)
(0 0 0.0178052)
(0 0 0.0179684)
(0 0 0.0181283)
(0 0 0.0182849)
(0 0 0.018438)
(0 0 0.0185876)
(0 0 0.0187337)
(0 0 0.018876)
(0 0 0.0190147)
(0 0 0.0191496)
(0 0 0.0192806)
(0 0 0.0194077)
(0 0 0.0195308)
(0 0 0.0196499)
(0 0 0.0197649)
(0 0 0.0198758)
(0 0 0.0199824)
(0 0 0.0200848)
(0 0 0.0201829)
(0 0 0.0202767)
(0 0 0.0203661)
(0 0 0.0204511)
(0 0 0.0205316)
(0 0 0.0206077)
(0 0 0.0206792)
(0 0 0.0207462)
(0 0 0.0208087)
(0 0 0.0208666)
(0 0 0.0209198)
(0 0 0.0209685)
(0 0 0.0210125)
(0 0 0.021052)
(0 0 0.0210868)
(0 0 0.021117)
(0 0 0.0211425)
(0 0 0.0211635)
(0 0 0.0211798)
(0 0 0.0211915)
(0 0 0.0211987)
(0 0 0.0212013)
(0 0 0.0211994)
(0 0 0.021193)
(0 0 0.0211821)
(0 0 0.0211667)
(0 0 0.0211469)
(0 0 0.0211228)
(0 0 0.0210943)
(0 0 0.0210614)
(0 0 0.0210244)
(0 0 0.0209831)
(0 0 0.0209376)
(0 0 0.0208881)
(0 0 0.0208344)
(0 0 0.0207768)
(0 0 0.0207152)
(0 0 0.0206496)
(0 0 0.0205803)
(0 0 0.0205071)
(0 0 0.0204303)
(0 0 0.0203497)
(0 0 0.0202656)
(0 0 0.0201779)
(0 0 0.0200867)
(0 0 0.0199922)
(0 0 0.0198943)
(0 0 0.0197931)
(0 0 0.0196887)
(0 0 0.0195812)
(0 0 0.0194706)
(0 0 0.019357)
(0 0 0.0192405)
(0 0 0.0191211)
(0 0 0.0189988)
(0 0 0.0188739)
(0 0 0.0187463)
(0 0 0.0186161)
(0 0 0.0184833)
(0 0 0.0183481)
(0 0 0.0182105)
(0 0 0.0180706)
(0 0 0.0179284)
(0 0 0.017784)
(0 0 0.0176374)
(0 0 0.0174888)
(0 0 0.0173381)
(0 0 0.0171855)
(0 0 0.017031)
(0 0 0.0168747)
(0 0 0.0167166)
(0 0 0.0165567)
(0 0 0.0163953)
(0 0 0.0162322)
(0 0 0.0160675)
(0 0 0.0159014)
(0 0 0.0157338)
(0 0 0.0155648)
(0 0 0.0153945)
(0 0 0.0152229)
(0 0 0.01505)
(0 0 0.014876)
(0 0 0.0147007)
(0 0 0.0145244)
(0 0 0.014347)
(0 0 0.0141687)
(0 0 0.0139893)
(0 0 0.013809)
(0 0 0.0136278)
(0 0 0.0134457)
(0 0 0.0132628)
(0 0 0.0130791)
(0 0 0.0128947)
(0 0 0.0127096)
(0 0 0.0125238)
(0 0 0.0123373)
(0 0 0.0121502)
(0 0 0.0119625)
(0 0 0.0117743)
(0 0 0.0115855)
(0 0 0.0113963)
(0 0 0.0112065)
(0 0 0.0110163)
(0 0 0.0108257)
(0 0 0.0106347)
(0 0 0.0104433)
(0 0 0.0102515)