/*--------------------------------*- C++ -*----------------------------------*\
| =========                 |                                                 |
| \\      /  F ield         | OpenFOAM: The Open Source CFD Toolbox           |
|  \\    /   O peration     | Version:  v2012                                 |
|   \\  /    A nd           | Website:  www.openfoam.com                      |
|    \\/     M anipulation  |                                                 |
\*---------------------------------------------------------------------------*/
FoamFile
{
    version     2.0;
    format      ascii;
    class       volVectorField;
    location    "7.8";
    object      U;
}
// * * * * * * * * * * * * * * * * * * * * * * * * * * * * * * * * * * * * * //

dimensions      [0 1 -1 0 0 0 0];


internalField   nonuniform List<vector> 
65536
(
(0.000754619 -0.000754616 0)
(0.00226385 -0.000754608 0)
(0.00377306 -0.000754593 0)
(0.00528223 -0.000754571 0)
(0.00679135 -0.000754541 0)
(0.0083004 -0.000754502 0)
(0.00980937 -0.000754454 0)
(0.0113182 -0.000754395 0)
(0.012827 -0.000754325 0)
(0.0143355 -0.000754241 0)
(0.0158439 -0.000754144 0)
(0.0173521 -0.000754031 0)
(0.0188601 -0.0007539 0)
(0.0203677 -0.000753749 0)
(0.0218751 -0.000753578 0)
(0.0233821 -0.000753382 0)
(0.0248886 -0.000753161 0)
(0.0263947 -0.000752911 0)
(0.0279003 -0.00075263 0)
(0.0294053 -0.000752315 0)
(0.0309096 -0.000751963 0)
(0.0324132 -0.000751572 0)
(0.0339159 -0.000751137 0)
(0.0354178 -0.000750656 0)
(0.0369186 -0.000750124 0)
(0.0384183 -0.00074954 0)
(0.0399168 -0.000748897 0)
(0.041414 -0.000748194 0)
(0.0429097 -0.000747425 0)
(0.0444037 -0.000746587 0)
(0.0458961 -0.000745676 0)
(0.0473865 -0.000744686 0)
(0.0488749 -0.000743614 0)
(0.0503611 -0.000742455 0)
(0.0518448 -0.000741205 0)
(0.053326 -0.000739858 0)
(0.0548044 -0.000738409 0)
(0.0562797 -0.000736855 0)
(0.0577519 -0.00073519 0)
(0.0592206 -0.000733408 0)
(0.0606856 -0.000731505 0)
(0.0621467 -0.000729476 0)
(0.0636037 -0.000727315 0)
(0.0650561 -0.000725018 0)
(0.0665039 -0.000722578 0)
(0.0679466 -0.000719992 0)
(0.069384 -0.000717252 0)
(0.0708158 -0.000714356 0)
(0.0722416 -0.000711296 0)
(0.0736611 -0.000708069 0)
(0.075074 -0.000704669 0)
(0.07648 -0.00070109 0)
(0.0778786 -0.000697329 0)
(0.0792695 -0.00069338 0)
(0.0806523 -0.000689238 0)
(0.0820266 -0.000684899 0)
(0.0833921 -0.000680358 0)
(0.0847482 -0.000675611 0)
(0.0860947 -0.000670654 0)
(0.0874311 -0.000665483 0)
(0.0887569 -0.000660093 0)
(0.0900717 -0.000654482 0)
(0.091375 -0.000648645 0)
(0.0926665 -0.000642579 0)
(0.0939456 -0.000636283 0)
(0.0952118 -0.000629752 0)
(0.0964648 -0.000622985 0)
(0.097704 -0.000615978 0)
(0.098929 -0.000608732 0)
(0.100139 -0.000601243 0)
(0.101334 -0.000593511 0)
(0.102513 -0.000585535 0)
(0.103677 -0.000577314 0)
(0.104823 -0.000568848 0)
(0.105952 -0.000560137 0)
(0.107064 -0.000551182 0)
(0.108157 -0.000541984 0)
(0.109232 -0.000532544 0)
(0.110288 -0.000522863 0)
(0.111324 -0.000512944 0)
(0.11234 -0.000502789 0)
(0.113335 -0.000492401 0)
(0.114309 -0.000481783 0)
(0.115262 -0.000470939 0)
(0.116193 -0.000459872 0)
(0.117102 -0.000448589 0)
(0.117988 -0.000437092 0)
(0.118851 -0.000425387 0)
(0.11969 -0.00041348 0)
(0.120505 -0.000401377 0)
(0.121295 -0.000389084 0)
(0.122061 -0.000376608 0)
(0.122802 -0.000363955 0)
(0.123517 -0.000351132 0)
(0.124207 -0.000338149 0)
(0.12487 -0.000325011 0)
(0.125507 -0.000311728 0)
(0.126117 -0.000298308 0)
(0.1267 -0.000284759 0)
(0.127256 -0.00027109 0)
(0.127785 -0.000257311 0)
(0.128286 -0.000243431 0)
(0.128759 -0.000229458 0)
(0.129203 -0.000215403 0)
(0.12962 -0.000201276 0)
(0.130009 -0.000187085 0)
(0.130369 -0.000172842 0)
(0.1307 -0.000158555 0)
(0.131003 -0.000144235 0)
(0.131277 -0.000129891 0)
(0.131522 -0.000115534 0)
(0.131739 -0.000101174 0)
(0.131927 -8.68205e-05 0)
(0.132086 -7.2483e-05 0)
(0.132217 -5.81713e-05 0)
(0.132319 -4.38951e-05 0)
(0.132393 -2.96638e-05 0)
(0.132438 -1.54866e-05 0)
(0.132454 -1.37284e-06 0)
(0.132443 1.26687e-05 0)
(0.132404 2.66293e-05 0)
(0.132336 4.05004e-05 0)
(0.132242 5.42737e-05 0)
(0.132119 6.79412e-05 0)
(0.13197 8.14951e-05 0)
(0.131793 9.49279e-05 0)
(0.13159 0.000108232 0)
(0.13136 0.000121402 0)
(0.131104 0.000134429 0)
(0.130822 0.000147308 0)
(0.130515 0.000160033 0)
(0.130182 0.000172598 0)
(0.129824 0.000184997 0)
(0.129442 0.000197226 0)
(0.129035 0.000209279 0)
(0.128604 0.000221153 0)
(0.12815 0.000232843 0)
(0.127673 0.000244346 0)
(0.127173 0.000255658 0)
(0.12665 0.000266775 0)
(0.126105 0.000277695 0)
(0.125539 0.000288416 0)
(0.124952 0.000298935 0)
(0.124343 0.00030925 0)
(0.123714 0.00031936 0)
(0.123066 0.000329263 0)
(0.122397 0.000338959 0)
(0.121709 0.000348446 0)
(0.121003 0.000357725 0)
(0.120278 0.000366794 0)
(0.119536 0.000375653 0)
(0.118776 0.000384304 0)
(0.117998 0.000392746 0)
(0.117204 0.000400981 0)
(0.116394 0.000409008 0)
(0.115568 0.00041683 0)
(0.114727 0.000424447 0)
(0.11387 0.000431861 0)
(0.112999 0.000439074 0)
(0.112114 0.000446087 0)
(0.111214 0.000452903 0)
(0.110302 0.000459523 0)
(0.109376 0.000465949 0)
(0.108438 0.000472185 0)
(0.107487 0.000478233 0)
(0.106525 0.000484095 0)
(0.105551 0.000489774 0)
(0.104565 0.000495273 0)
(0.103569 0.000500594 0)
(0.102563 0.000505741 0)
(0.101546 0.000510717 0)
(0.10052 0.000515525 0)
(0.099484 0.000520167 0)
(0.0984391 0.000524648 0)
(0.0973853 0.00052897 0)
(0.096323 0.000533137 0)
(0.0952526 0.000537152 0)
(0.0941743 0.000541018 0)
(0.0930884 0.000544739 0)
(0.0919952 0.000548317 0)
(0.090895 0.000551757 0)
(0.089788 0.000555062 0)
(0.0886746 0.000558235 0)
(0.087555 0.000561279 0)
(0.0864294 0.000564198 0)
(0.085298 0.000566995 0)
(0.0841613 0.000569673 0)
(0.0830192 0.000572236 0)
(0.0818722 0.000574687 0)
(0.0807204 0.000577029 0)
(0.079564 0.000579266 0)
(0.0784032 0.000581399 0)
(0.0772383 0.000583434 0)
(0.0760694 0.000585372 0)
(0.0748967 0.000587217 0)
(0.0737204 0.000588972 0)
(0.0725407 0.00059064 0)
(0.0713578 0.000592223 0)
(0.0701718 0.000593725 0)
(0.0689828 0.000595149 0)
(0.0677911 0.000596496 0)
(0.0665968 0.000597771 0)
(0.0653999 0.000598975 0)
(0.0642008 0.000600112 0)
(0.0629994 0.000601184 0)
(0.061796 0.000602193 0)
(0.0605906 0.000603142 0)
(0.0593834 0.000604033 0)
(0.0581744 0.000604869 0)
(0.0569638 0.000605652 0)
(0.0557518 0.000606385 0)
(0.0545383 0.00060707 0)
(0.0533234 0.000607708 0)
(0.0521074 0.000608302 0)
(0.0508902 0.000608854 0)
(0.0496719 0.000609366 0)
(0.0484527 0.000609841 0)
(0.0472325 0.000610279 0)
(0.0460115 0.000610683 0)
(0.0447898 0.000611055 0)
(0.0435673 0.000611396 0)
(0.0423442 0.000611709 0)
(0.0411204 0.000611994 0)
(0.0398962 0.000612253 0)
(0.0386714 0.000612489 0)
(0.0374462 0.000612702 0)
(0.0362206 0.000612894 0)
(0.0349946 0.000613066 0)
(0.0337683 0.00061322 0)
(0.0325417 0.000613357 0)
(0.0313148 0.000613479 0)
(0.0300878 0.000613586 0)
(0.0288605 0.000613679 0)
(0.027633 0.00061376 0)
(0.0264054 0.000613831 0)
(0.0251777 0.000613891 0)
(0.0239499 0.000613942 0)
(0.0227219 0.000613985 0)
(0.0214939 0.00061402 0)
(0.0202658 0.000614049 0)
(0.0190377 0.000614072 0)
(0.0178096 0.00061409 0)
(0.0165814 0.000614104 0)
(0.0153531 0.000614114 0)
(0.0141249 0.000614121 0)
(0.0128966 0.000614126 0)
(0.0116684 0.000614129 0)
(0.0104401 0.00061413 0)
(0.00921187 0.00061413 0)
(0.00798361 0.000614129 0)
(0.00675536 0.000614127 0)
(0.00552711 0.000614126 0)
(0.00429886 0.000614124 0)
(0.00307061 0.000614123 0)
(0.00184237 0.000614122 0)
(0.000614122 0.000614122 0)
(0.000754625 -0.00226385 0)
(0.00226387 -0.00226383 0)
(0.00377309 -0.00226379 0)
(0.00528228 -0.00226372 0)
(0.00679141 -0.00226363 0)
(0.00830048 -0.00226352 0)
(0.00980947 -0.00226337 0)
(0.0113184 -0.0022632 0)
(0.0128271 -0.00226299 0)
(0.0143357 -0.00226274 0)
(0.0158441 -0.00226245 0)
(0.0173524 -0.00226211 0)
(0.0188603 -0.00226172 0)
(0.0203681 -0.00226127 0)
(0.0218754 -0.00226076 0)
(0.0233825 -0.00226017 0)
(0.0248891 -0.00225951 0)
(0.0263953 -0.00225876 0)
(0.0279009 -0.00225792 0)
(0.029406 -0.00225698 0)
(0.0309103 -0.00225593 0)
(0.032414 -0.00225476 0)
(0.0339168 -0.00225346 0)
(0.0354188 -0.00225201 0)
(0.0369197 -0.00225042 0)
(0.0384195 -0.00224867 0)
(0.0399182 -0.00224675 0)
(0.0414154 -0.00224465 0)
(0.0429113 -0.00224234 0)
(0.0444055 -0.00223983 0)
(0.045898 -0.0022371 0)
(0.0473886 -0.00223414 0)
(0.0488771 -0.00223093 0)
(0.0503635 -0.00222746 0)
(0.0518474 -0.00222371 0)
(0.0533288 -0.00221967 0)
(0.0548073 -0.00221533 0)
(0.0562829 -0.00221067 0)
(0.0577553 -0.00220568 0)
(0.0592243 -0.00220034 0)
(0.0606895 -0.00219464 0)
(0.0621509 -0.00218856 0)
(0.0636081 -0.00218208 0)
(0.0650608 -0.00217519 0)
(0.0665089 -0.00216788 0)
(0.0679519 -0.00216012 0)
(0.0693896 -0.00215191 0)
(0.0708217 -0.00214323 0)
(0.0722478 -0.00213405 0)
(0.0736677 -0.00212438 0)
(0.075081 -0.00211418 0)
(0.0764873 -0.00210345 0)
(0.0778862 -0.00209217 0)
(0.0792775 -0.00208033 0)
(0.0806607 -0.00206791 0)
(0.0820354 -0.0020549 0)
(0.0834013 -0.00204128 0)
(0.0847579 -0.00202704 0)
(0.0861048 -0.00201217 0)
(0.0874416 -0.00199666 0)
(0.0887678 -0.0019805 0)
(0.0900831 -0.00196367 0)
(0.0913869 -0.00194616 0)
(0.0926788 -0.00192797 0)
(0.0939583 -0.00190908 0)
(0.0952251 -0.00188949 0)
(0.0964785 -0.00186919 0)
(0.0977182 -0.00184817 0)
(0.0989436 -0.00182644 0)
(0.100154 -0.00180397 0)
(0.10135 -0.00178078 0)
(0.10253 -0.00175685 0)
(0.103693 -0.00173218 0)
(0.10484 -0.00170679 0)
(0.10597 -0.00168065 0)
(0.107082 -0.00165379 0)
(0.108176 -0.00162619 0)
(0.109251 -0.00159787 0)
(0.110307 -0.00156882 0)
(0.111344 -0.00153906 0)
(0.11236 -0.0015086 0)
(0.113356 -0.00147743 0)
(0.114331 -0.00144557 0)
(0.115284 -0.00141304 0)
(0.116216 -0.00137983 0)
(0.117125 -0.00134598 0)
(0.118011 -0.00131148 0)
(0.118874 -0.00127636 0)
(0.119714 -0.00124064 0)
(0.120529 -0.00120432 0)
(0.12132 -0.00116743 0)
(0.122086 -0.00113 0)
(0.122827 -0.00109203 0)
(0.123543 -0.00105356 0)
(0.124233 -0.0010146 0)
(0.124896 -0.000975177 0)
(0.125534 -0.00093532 0)
(0.126144 -0.00089505 0)
(0.126727 -0.000854395 0)
(0.127284 -0.000813381 0)
(0.127812 -0.000772034 0)
(0.128313 -0.000730383 0)
(0.128786 -0.000688456 0)
(0.129232 -0.000646282 0)
(0.129648 -0.000603889 0)
(0.130037 -0.000561308 0)
(0.130397 -0.000518567 0)
(0.130729 -0.000475697 0)
(0.131031 -0.000432726 0)
(0.131306 -0.000389686 0)
(0.131551 -0.000346606 0)
(0.131768 -0.000303516 0)
(0.131956 -0.000260445 0)
(0.132115 -0.000217423 0)
(0.132246 -0.000174478 0)
(0.132347 -0.00013164 0)
(0.132421 -8.89368e-05 0)
(0.132466 -4.63964e-05 0)
(0.132483 -4.04611e-06 0)
(0.132471 3.80872e-05 0)
(0.132431 7.99774e-05 0)
(0.132364 0.000121599 0)
(0.132269 0.000162927 0)
(0.132146 0.000203937 0)
(0.131997 0.000244606 0)
(0.13182 0.000284912 0)
(0.131616 0.000324832 0)
(0.131386 0.000364346 0)
(0.13113 0.000403435 0)
(0.130848 0.000442078 0)
(0.13054 0.000480258 0)
(0.130207 0.000517957 0)
(0.129849 0.00055516 0)
(0.129466 0.000591852 0)
(0.129059 0.000628017 0)
(0.128628 0.000663643 0)
(0.128173 0.000698717 0)
(0.127696 0.000733228 0)
(0.127195 0.000767166 0)
(0.126672 0.00080052 0)
(0.126127 0.000833284 0)
(0.12556 0.000865448 0)
(0.124972 0.000897007 0)
(0.124364 0.000927954 0)
(0.123734 0.000958285 0)
(0.123085 0.000987996 0)
(0.122416 0.00101708 0)
(0.121728 0.00104555 0)
(0.121021 0.00107338 0)
(0.120296 0.00110059 0)
(0.119553 0.00112717 0)
(0.118793 0.00115312 0)
(0.118015 0.00117845 0)
(0.117221 0.00120315 0)
(0.11641 0.00122723 0)
(0.115584 0.00125069 0)
(0.114742 0.00127354 0)
(0.113885 0.00129578 0)
(0.113013 0.00131742 0)
(0.112127 0.00133846 0)
(0.111228 0.0013589 0)
(0.110315 0.00137876 0)
(0.109389 0.00139804 0)
(0.10845 0.00141674 0)
(0.107499 0.00143488 0)
(0.106536 0.00145247 0)
(0.105562 0.0014695 0)
(0.104576 0.00148599 0)
(0.10358 0.00150195 0)
(0.102573 0.00151739 0)
(0.101556 0.00153232 0)
(0.100529 0.00154674 0)
(0.0994931 0.00156066 0)
(0.0984478 0.0015741 0)
(0.0973937 0.00158706 0)
(0.0963312 0.00159956 0)
(0.0952604 0.0016116 0)
(0.0941818 0.0016232 0)
(0.0930956 0.00163436 0)
(0.0920021 0.00164509 0)
(0.0909017 0.00165541 0)
(0.0897944 0.00166532 0)
(0.0886808 0.00167483 0)
(0.0875609 0.00168396 0)
(0.086435 0.00169271 0)
(0.0853035 0.0017011 0)
(0.0841665 0.00170913 0)
(0.0830242 0.00171682 0)
(0.081877 0.00172417 0)
(0.0807249 0.00173119 0)
(0.0795683 0.0017379 0)
(0.0784073 0.0017443 0)
(0.0772422 0.0017504 0)
(0.0760731 0.00175621 0)
(0.0749003 0.00176174 0)
(0.0737238 0.001767 0)
(0.0725439 0.001772 0)
(0.0713608 0.00177675 0)
(0.0701747 0.00178125 0)
(0.0689855 0.00178552 0)
(0.0677937 0.00178956 0)
(0.0665992 0.00179338 0)
(0.0654022 0.00179699 0)
(0.064203 0.0018004 0)
(0.0630015 0.00180361 0)
(0.0617979 0.00180664 0)
(0.0605924 0.00180948 0)
(0.0593851 0.00181215 0)
(0.058176 0.00181466 0)
(0.0569653 0.00181701 0)
(0.0557531 0.0018192 0)
(0.0545396 0.00182125 0)
(0.0533246 0.00182317 0)
(0.0521085 0.00182495 0)
(0.0508912 0.0018266 0)
(0.0496729 0.00182814 0)
(0.0484536 0.00182956 0)
(0.0472334 0.00183087 0)
(0.0460123 0.00183208 0)
(0.0447905 0.00183319 0)
(0.0435679 0.00183422 0)
(0.0423447 0.00183515 0)
(0.041121 0.00183601 0)
(0.0398966 0.00183678 0)
(0.0386718 0.00183749 0)
(0.0374466 0.00183813 0)
(0.0362209 0.0018387 0)
(0.0349949 0.00183922 0)
(0.0337686 0.00183968 0)
(0.0325419 0.00184009 0)
(0.0313151 0.00184045 0)
(0.030088 0.00184077 0)
(0.0288607 0.00184105 0)
(0.0276332 0.00184129 0)
(0.0264056 0.0018415 0)
(0.0251778 0.00184168 0)
(0.0239499 0.00184183 0)
(0.022722 0.00184196 0)
(0.021494 0.00184207 0)
(0.0202659 0.00184215 0)
(0.0190378 0.00184222 0)
(0.0178096 0.00184227 0)
(0.0165814 0.00184231 0)
(0.0153531 0.00184234 0)
(0.0141249 0.00184237 0)
(0.0128967 0.00184238 0)
(0.0116684 0.00184239 0)
(0.0104401 0.00184239 0)
(0.00921187 0.00184239 0)
(0.00798361 0.00184239 0)
(0.00675535 0.00184238 0)
(0.0055271 0.00184238 0)
(0.00429885 0.00184237 0)
(0.00307061 0.00184237 0)
(0.00184236 0.00184237 0)
(0.000614121 0.00184236 0)
(0.000754639 -0.00377311 0)
(0.00226391 -0.00377307 0)
(0.00377316 -0.003773 0)
(0.00528238 -0.0037729 0)
(0.00679155 -0.00377275 0)
(0.00830066 -0.00377256 0)
(0.00980968 -0.00377232 0)
(0.0113186 -0.00377203 0)
(0.0128274 -0.00377169 0)
(0.0143361 -0.00377128 0)
(0.0158446 -0.0037708 0)
(0.0173528 -0.00377024 0)
(0.0188609 -0.00376959 0)
(0.0203687 -0.00376885 0)
(0.0218762 -0.003768 0)
(0.0233833 -0.00376704 0)
(0.02489 -0.00376594 0)
(0.0263963 -0.00376471 0)
(0.0279021 -0.00376332 0)
(0.0294073 -0.00376176 0)
(0.0309118 -0.00376001 0)
(0.0324157 -0.00375807 0)
(0.0339187 -0.00375591 0)
(0.0354208 -0.00375352 0)
(0.0369219 -0.00375089 0)
(0.038422 -0.00374798 0)
(0.0399208 -0.00374479 0)
(0.0414184 -0.00374129 0)
(0.0429145 -0.00373747 0)
(0.044409 -0.0037333 0)
(0.0459018 -0.00372877 0)
(0.0473927 -0.00372384 0)
(0.0488816 -0.0037185 0)
(0.0503683 -0.00371273 0)
(0.0518526 -0.0037065 0)
(0.0533343 -0.00369979 0)
(0.0548133 -0.00369257 0)
(0.0562894 -0.00368483 0)
(0.0577622 -0.00367652 0)
(0.0592316 -0.00366764 0)
(0.0606974 -0.00365815 0)
(0.0621593 -0.00364803 0)
(0.063617 -0.00363726 0)
(0.0650703 -0.00362579 0)
(0.0665189 -0.00361362 0)
(0.0679625 -0.00360072 0)
(0.0694009 -0.00358705 0)
(0.0708336 -0.00357259 0)
(0.0722604 -0.00355732 0)
(0.073681 -0.00354121 0)
(0.0750949 -0.00352423 0)
(0.0765019 -0.00350636 0)
(0.0779017 -0.00348758 0)
(0.0792937 -0.00346786 0)
(0.0806777 -0.00344717 0)
(0.0820532 -0.0034255 0)
(0.0834199 -0.00340282 0)
(0.0847773 -0.0033791 0)
(0.0861251 -0.00335434 0)
(0.0874627 -0.0033285 0)
(0.0887898 -0.00330157 0)
(0.090106 -0.00327353 0)
(0.0914107 -0.00324436 0)
(0.0927035 -0.00321405 0)
(0.093984 -0.00318258 0)
(0.0952517 -0.00314994 0)
(0.0965061 -0.00311611 0)
(0.0977467 -0.00308109 0)
(0.0989731 -0.00304487 0)
(0.100185 -0.00300743 0)
(0.101381 -0.00296877 0)
(0.102562 -0.00292889 0)
(0.103727 -0.00288779 0)
(0.104874 -0.00284546 0)
(0.106005 -0.0028019 0)
(0.107118 -0.00275712 0)
(0.108213 -0.00271113 0)
(0.109289 -0.00266392 0)
(0.110346 -0.0026155 0)
(0.111384 -0.00256589 0)
(0.112401 -0.0025151 0)
(0.113398 -0.00246315 0)
(0.114374 -0.00241004 0)
(0.115328 -0.0023558 0)
(0.11626 -0.00230045 0)
(0.11717 -0.002244 0)
(0.118058 -0.00218649 0)
(0.118921 -0.00212794 0)
(0.119762 -0.00206838 0)
(0.120578 -0.00200783 0)
(0.12137 -0.00194633 0)
(0.122137 -0.00188392 0)
(0.122878 -0.00182062 0)
(0.123595 -0.00175647 0)
(0.124285 -0.00169151 0)
(0.124949 -0.00162578 0)
(0.125587 -0.00155932 0)
(0.126198 -0.00149218 0)
(0.126782 -0.00142439 0)
(0.127339 -0.001356 0)
(0.127868 -0.00128706 0)
(0.128369 -0.00121761 0)
(0.128843 -0.0011477 0)
(0.129288 -0.00107738 0)
(0.129705 -0.00100669 0)
(0.130094 -0.00093569 0)
(0.130454 -0.000864422 0)
(0.130786 -0.000792938 0)
(0.131089 -0.000721288 0)
(0.131363 -0.000649521 0)
(0.131609 -0.000577688 0)
(0.131825 -0.000505838 0)
(0.132013 -0.000434021 0)
(0.132172 -0.000362284 0)
(0.132303 -0.000290678 0)
(0.132405 -0.00021925 0)
(0.132478 -0.000148047 0)
(0.132523 -7.7116e-05 0)
(0.132539 -6.50242e-06 0)
(0.132527 6.37489e-05 0)
(0.132487 0.000133594 0)
(0.132419 0.000202991 0)
(0.132324 0.000271898 0)
(0.132201 0.000340274 0)
(0.132051 0.000408081 0)
(0.131873 0.000475281 0)
(0.131669 0.000541838 0)
(0.131439 0.000607717 0)
(0.131182 0.000672886 0)
(0.130899 0.000737311 0)
(0.130591 0.000800963 0)
(0.130257 0.000863814 0)
(0.129898 0.000925836 0)
(0.129515 0.000987004 0)
(0.129107 0.00104729 0)
(0.128675 0.00110668 0)
(0.12822 0.00116515 0)
(0.127741 0.00122268 0)
(0.12724 0.00127926 0)
(0.126716 0.00133486 0)
(0.12617 0.00138947 0)
(0.125603 0.00144309 0)
(0.125014 0.00149569 0)
(0.124404 0.00154727 0)
(0.123774 0.00159783 0)
(0.123124 0.00164735 0)
(0.122455 0.00169584 0)
(0.121766 0.00174327 0)
(0.121058 0.00178967 0)
(0.120332 0.00183501 0)
(0.119588 0.00187931 0)
(0.118827 0.00192256 0)
(0.118048 0.00196477 0)
(0.117253 0.00200594 0)
(0.116442 0.00204607 0)
(0.115614 0.00208517 0)
(0.114772 0.00212325 0)
(0.113914 0.00216031 0)
(0.113042 0.00219636 0)
(0.112155 0.00223142 0)
(0.111255 0.00226549 0)
(0.110341 0.00229858 0)
(0.109414 0.0023307 0)
(0.108475 0.00236186 0)
(0.107523 0.00239209 0)
(0.106559 0.00242139 0)
(0.105584 0.00244977 0)
(0.104598 0.00247725 0)
(0.103601 0.00250384 0)
(0.102593 0.00252956 0)
(0.101576 0.00255442 0)
(0.100548 0.00257845 0)
(0.0995114 0.00260164 0)
(0.0984654 0.00262403 0)
(0.0974107 0.00264562 0)
(0.0963475 0.00266644 0)
(0.0952762 0.0026865 0)
(0.094197 0.00270581 0)
(0.0931102 0.0027244 0)
(0.0920162 0.00274228 0)
(0.0909152 0.00275946 0)
(0.0898074 0.00277597 0)
(0.0886932 0.00279181 0)
(0.0875728 0.00280702 0)
(0.0864465 0.00282159 0)
(0.0853144 0.00283556 0)
(0.0841769 0.00284894 0)
(0.0830342 0.00286174 0)
(0.0818866 0.00287398 0)
(0.0807341 0.00288567 0)
(0.0795771 0.00289684 0)
(0.0784157 0.00290749 0)
(0.0772502 0.00291765 0)
(0.0760807 0.00292732 0)
(0.0749075 0.00293653 0)
(0.0737307 0.00294529 0)
(0.0725505 0.00295362 0)
(0.071367 0.00296152 0)
(0.0701805 0.00296902 0)
(0.0689911 0.00297612 0)
(0.0677989 0.00298284 0)
(0.0666042 0.0029892 0)
(0.0654069 0.00299521 0)
(0.0642074 0.00300088 0)
(0.0630056 0.00300623 0)
(0.0618018 0.00301126 0)
(0.0605961 0.00301599 0)
(0.0593885 0.00302044 0)
(0.0581793 0.00302461 0)
(0.0569684 0.00302851 0)
(0.055756 0.00303216 0)
(0.0545422 0.00303558 0)
(0.0533271 0.00303876 0)
(0.0521108 0.00304172 0)
(0.0508934 0.00304447 0)
(0.0496749 0.00304702 0)
(0.0484554 0.00304938 0)
(0.047235 0.00305156 0)
(0.0460138 0.00305357 0)
(0.0447919 0.00305542 0)
(0.0435692 0.00305712 0)
(0.0423459 0.00305868 0)
(0.041122 0.00306009 0)
(0.0398976 0.00306138 0)
(0.0386727 0.00306255 0)
(0.0374474 0.00306361 0)
(0.0362216 0.00306456 0)
(0.0349956 0.00306542 0)
(0.0337691 0.00306618 0)
(0.0325425 0.00306686 0)
(0.0313155 0.00306746 0)
(0.0300884 0.00306799 0)
(0.028861 0.00306845 0)
(0.0276335 0.00306886 0)
(0.0264058 0.0030692 0)
(0.025178 0.0030695 0)
(0.0239501 0.00306975 0)
(0.0227222 0.00306996 0)
(0.0214941 0.00307013 0)
(0.020266 0.00307027 0)
(0.0190378 0.00307038 0)
(0.0178096 0.00307047 0)
(0.0165814 0.00307054 0)
(0.0153532 0.00307058 0)
(0.0141249 0.00307062 0)
(0.0128967 0.00307064 0)
(0.0116684 0.00307065 0)
(0.0104401 0.00307065 0)
(0.00921187 0.00307065 0)
(0.00798361 0.00307064 0)
(0.00675535 0.00307064 0)
(0.0055271 0.00307063 0)
(0.00429885 0.00307062 0)
(0.0030706 0.00307061 0)
(0.00184236 0.00307061 0)
(0.00061412 0.00307061 0)
(0.00075466 -0.0052824 0)
(0.00226397 -0.00528235 0)
(0.00377327 -0.00528226 0)
(0.00528253 -0.00528211 0)
(0.00679175 -0.00528191 0)
(0.00830091 -0.00528165 0)
(0.00981 -0.00528132 0)
(0.011319 -0.00528092 0)
(0.0128279 -0.00528045 0)
(0.0143366 -0.00527989 0)
(0.0158452 -0.00527923 0)
(0.0173536 -0.00527846 0)
(0.0188617 -0.00527757 0)
(0.0203697 -0.00527654 0)
(0.0218773 -0.00527537 0)
(0.0233845 -0.00527404 0)
(0.0248914 -0.00527252 0)
(0.0263979 -0.00527081 0)
(0.0279039 -0.00526888 0)
(0.0294093 -0.00526672 0)
(0.030914 -0.0052643 0)
(0.0324181 -0.0052616 0)
(0.0339214 -0.0052586 0)
(0.0354238 -0.00525528 0)
(0.0369253 -0.00525162 0)
(0.0384256 -0.00524757 0)
(0.0399249 -0.00524313 0)
(0.0414228 -0.00523827 0)
(0.0429193 -0.00523294 0)
(0.0444142 -0.00522714 0)
(0.0459074 -0.00522082 0)
(0.0473988 -0.00521395 0)
(0.0488882 -0.00520651 0)
(0.0503755 -0.00519847 0)
(0.0518604 -0.00518978 0)
(0.0533427 -0.00518042 0)
(0.0548223 -0.00517035 0)
(0.056299 -0.00515954 0)
(0.0577725 -0.00514795 0)
(0.0592426 -0.00513555 0)
(0.0607092 -0.0051223 0)
(0.0621718 -0.00510817 0)
(0.0636304 -0.00509312 0)
(0.0650845 -0.00507711 0)
(0.066534 -0.0050601 0)
(0.0679785 -0.00504207 0)
(0.0694178 -0.00502297 0)
(0.0708514 -0.00500276 0)
(0.0722792 -0.00498142 0)
(0.0737008 -0.0049589 0)
(0.0751158 -0.00493517 0)
(0.076524 -0.00491019 0)
(0.0779248 -0.00488393 0)
(0.079318 -0.00485635 0)
(0.0807031 -0.00482742 0)
(0.0820798 -0.00479711 0)
(0.0834478 -0.00476539 0)
(0.0848064 -0.00473222 0)
(0.0861555 -0.00469758 0)
(0.0874944 -0.00466143 0)
(0.0888229 -0.00462375 0)
(0.0901403 -0.00458452 0)
(0.0914464 -0.00454371 0)
(0.0927406 -0.00450129 0)
(0.0940225 -0.00445725 0)
(0.0952916 -0.00441157 0)
(0.0965475 -0.00436423 0)
(0.0977895 -0.00431521 0)
(0.0990174 -0.00426451 0)
(0.100231 -0.0042121 0)
(0.101428 -0.00415799 0)
(0.102611 -0.00410217 0)
(0.103777 -0.00404462 0)
(0.104926 -0.00398536 0)
(0.106058 -0.00392438 0)
(0.107173 -0.00386168 0)
(0.108269 -0.00379727 0)
(0.109347 -0.00373117 0)
(0.110405 -0.00366337 0)
(0.111444 -0.00359391 0)
(0.112463 -0.00352278 0)
(0.113461 -0.00345002 0)
(0.114438 -0.00337564 0)
(0.115394 -0.00329968 0)
(0.116328 -0.00322215 0)
(0.117239 -0.0031431 0)
(0.118127 -0.00306255 0)
(0.118992 -0.00298054 0)
(0.119834 -0.00289711 0)
(0.120651 -0.0028123 0)
(0.121444 -0.00272615 0)
(0.122212 -0.00263872 0)
(0.122955 -0.00255005 0)
(0.123672 -0.00246019 0)
(0.124364 -0.00236919 0)
(0.125029 -0.00227711 0)
(0.125667 -0.00218402 0)
(0.126279 -0.00208995 0)
(0.126864 -0.00199499 0)
(0.127421 -0.00189918 0)
(0.127951 -0.0018026 0)
(0.128453 -0.0017053 0)
(0.128927 -0.00160736 0)
(0.129373 -0.00150884 0)
(0.12979 -0.00140981 0)
(0.130179 -0.00131034 0)
(0.13054 -0.00121049 0)
(0.130872 -0.00111035 0)
(0.131175 -0.00100997 0)
(0.131449 -0.000909423 0)
(0.131695 -0.000808787 0)
(0.131912 -0.000708128 0)
(0.132099 -0.000607515 0)
(0.132258 -0.000507016 0)
(0.132389 -0.0004067 0)
(0.13249 -0.000306635 0)
(0.132563 -0.000206886 0)
(0.132608 -0.000107518 0)
(0.132624 -8.59648e-06 0)
(0.132611 8.98166e-05 0)
(0.132571 0.00018766 0)
(0.132503 0.000284873 0)
(0.132406 0.000381399 0)
(0.132283 0.00047718 0)
(0.132132 0.000572163 0)
(0.131954 0.000666293 0)
(0.131749 0.000759522 0)
(0.131517 0.0008518 0)
(0.13126 0.000943079 0)
(0.130976 0.00103332 0)
(0.130667 0.00112247 0)
(0.130332 0.0012105 0)
(0.129972 0.00129737 0)
(0.129588 0.00138303 0)
(0.129179 0.00146747 0)
(0.128746 0.00155065 0)
(0.12829 0.00163253 0)
(0.12781 0.0017131 0)
(0.127307 0.00179232 0)
(0.126782 0.00187018 0)
(0.126235 0.00194666 0)
(0.125667 0.00202173 0)
(0.125077 0.00209539 0)
(0.124466 0.00216762 0)
(0.123835 0.00223841 0)
(0.123183 0.00230775 0)
(0.122512 0.00237563 0)
(0.121822 0.00244205 0)
(0.121113 0.002507 0)
(0.120386 0.00257048 0)
(0.119641 0.0026325 0)
(0.118878 0.00269305 0)
(0.118098 0.00275213 0)
(0.117302 0.00280976 0)
(0.116489 0.00286594 0)
(0.115661 0.00292067 0)
(0.114817 0.00297397 0)
(0.113958 0.00302584 0)
(0.113084 0.00307631 0)
(0.112197 0.00312537 0)
(0.111295 0.00317305 0)
(0.11038 0.00321936 0)
(0.109452 0.00326431 0)
(0.108512 0.00330793 0)
(0.107559 0.00335023 0)
(0.106594 0.00339122 0)
(0.105618 0.00343094 0)
(0.10463 0.00346939 0)
(0.103632 0.0035066 0)
(0.102624 0.00354258 0)
(0.101605 0.00357737 0)
(0.100577 0.00361098 0)
(0.0995388 0.00364343 0)
(0.0984919 0.00367475 0)
(0.0974362 0.00370496 0)
(0.0963721 0.00373408 0)
(0.0952999 0.00376214 0)
(0.0942198 0.00378916 0)
(0.0931321 0.00381515 0)
(0.0920373 0.00384016 0)
(0.0909354 0.00386419 0)
(0.0898269 0.00388728 0)
(0.0887119 0.00390944 0)
(0.0875907 0.0039307 0)
(0.0864636 0.00395109 0)
(0.0853309 0.00397062 0)
(0.0841927 0.00398932 0)
(0.0830493 0.00400722 0)
(0.0819009 0.00402433 0)
(0.0807478 0.00404068 0)
(0.0795902 0.00405629 0)
(0.0784282 0.00407118 0)
(0.0772621 0.00408538 0)
(0.0760921 0.00409891 0)
(0.0749183 0.00411178 0)
(0.0737409 0.00412402 0)
(0.0725602 0.00413565 0)
(0.0713763 0.0041467 0)
(0.0701893 0.00415717 0)
(0.0689994 0.0041671 0)
(0.0678068 0.00417649 0)
(0.0666116 0.00418538 0)
(0.065414 0.00419377 0)
(0.064214 0.00420169 0)
(0.0630119 0.00420916 0)
(0.0618077 0.00421618 0)
(0.0606016 0.00422279 0)
(0.0593937 0.004229 0)
(0.0581841 0.00423482 0)
(0.0569729 0.00424027 0)
(0.0557602 0.00424537 0)
(0.0545462 0.00425013 0)
(0.0533308 0.00425457 0)
(0.0521142 0.0042587 0)
(0.0508966 0.00426253 0)
(0.0496778 0.00426609 0)
(0.0484581 0.00426939 0)
(0.0472376 0.00427243 0)
(0.0460162 0.00427523 0)
(0.044794 0.00427781 0)
(0.0435712 0.00428017 0)
(0.0423477 0.00428234 0)
(0.0411237 0.00428431 0)
(0.0398991 0.00428611 0)
(0.0386741 0.00428773 0)
(0.0374486 0.0042892 0)
(0.0362227 0.00429053 0)
(0.0349965 0.00429171 0)
(0.03377 0.00429277 0)
(0.0325432 0.00429372 0)
(0.0313162 0.00429455 0)
(0.030089 0.00429528 0)
(0.0288615 0.00429592 0)
(0.0276339 0.00429648 0)
(0.0264062 0.00429695 0)
(0.0251784 0.00429736 0)
(0.0239504 0.0042977 0)
(0.0227224 0.00429799 0)
(0.0214943 0.00429823 0)
(0.0202662 0.00429842 0)
(0.019038 0.00429857 0)
(0.0178097 0.00429869 0)
(0.0165815 0.00429878 0)
(0.0153532 0.00429884 0)
(0.014125 0.00429888 0)
(0.0128967 0.00429891 0)
(0.0116684 0.00429892 0)
(0.0104401 0.00429892 0)
(0.00921186 0.00429892 0)
(0.0079836 0.00429891 0)
(0.00675534 0.00429889 0)
(0.00552709 0.00429888 0)
(0.00429884 0.00429886 0)
(0.0030706 0.00429885 0)
(0.00184236 0.00429885 0)
(0.000614118 0.00429885 0)
(0.000754687 -0.00679174 0)
(0.00226406 -0.00679168 0)
(0.00377341 -0.00679156 0)
(0.00528273 -0.00679138 0)
(0.00679202 -0.00679113 0)
(0.00830125 -0.0067908 0)
(0.00981041 -0.00679039 0)
(0.0113195 -0.0067899 0)
(0.0128285 -0.0067893 0)
(0.0143373 -0.00678859 0)
(0.015846 -0.00678776 0)
(0.0173545 -0.0067868 0)
(0.0188628 -0.00678567 0)
(0.0203709 -0.00678438 0)
(0.0218787 -0.0067829 0)
(0.0233862 -0.00678121 0)
(0.0248933 -0.00677929 0)
(0.0264 -0.00677712 0)
(0.0279062 -0.00677468 0)
(0.0294119 -0.00677193 0)
(0.030917 -0.00676886 0)
(0.0324214 -0.00676543 0)
(0.033925 -0.00676162 0)
(0.0354278 -0.00675739 0)
(0.0369297 -0.00675272 0)
(0.0384305 -0.00674757 0)
(0.0399302 -0.00674191 0)
(0.0414286 -0.0067357 0)
(0.0429256 -0.0067289 0)
(0.0444211 -0.00672149 0)
(0.045915 -0.00671341 0)
(0.047407 -0.00670464 0)
(0.0488971 -0.00669513 0)
(0.050385 -0.00668484 0)
(0.0518707 -0.00667373 0)
(0.0533538 -0.00666175 0)
(0.0548342 -0.00664886 0)
(0.0563118 -0.00663502 0)
(0.0577862 -0.00662018 0)
(0.0592573 -0.0066043 0)
(0.0607248 -0.00658733 0)
(0.0621885 -0.00656922 0)
(0.0636481 -0.00654993 0)
(0.0651034 -0.00652941 0)
(0.066554 -0.00650761 0)
(0.0679997 -0.00648449 0)
(0.0694402 -0.00646 0)
(0.0708752 -0.00643408 0)
(0.0723043 -0.0064067 0)
(0.0737273 -0.00637781 0)
(0.0751437 -0.00634736 0)
(0.0765532 -0.0063153 0)
(0.0779556 -0.00628159 0)
(0.0793503 -0.00624619 0)
(0.080737 -0.00620906 0)
(0.0821153 -0.00617014 0)
(0.0834849 -0.00612941 0)
(0.0848452 -0.00608681 0)
(0.0861959 -0.00604232 0)
(0.0875366 -0.00599589 0)
(0.0888668 -0.00594749 0)
(0.0901861 -0.00589709 0)
(0.091494 -0.00584466 0)
(0.0927901 -0.00579016 0)
(0.0940738 -0.00573357 0)
(0.0953448 -0.00567487 0)
(0.0966026 -0.00561402 0)
(0.0978466 -0.00555102 0)
(0.0990764 -0.00548585 0)
(0.100291 -0.00541849 0)
(0.101491 -0.00534893 0)
(0.102676 -0.00527716 0)
(0.103844 -0.00520318 0)
(0.104995 -0.00512698 0)
(0.106129 -0.00504857 0)
(0.107245 -0.00496795 0)
(0.108344 -0.00488512 0)
(0.109423 -0.00480011 0)
(0.110484 -0.00471292 0)
(0.111525 -0.00462357 0)
(0.112545 -0.00453209 0)
(0.113545 -0.0044385 0)
(0.114524 -0.00434283 0)
(0.115482 -0.00424512 0)
(0.116417 -0.00414539 0)
(0.11733 -0.00404369 0)
(0.11822 -0.00394006 0)
(0.119087 -0.00383455 0)
(0.11993 -0.00372721 0)
(0.120749 -0.0036181 0)
(0.121543 -0.00350726 0)
(0.122313 -0.00339476 0)
(0.123057 -0.00328067 0)
(0.123776 -0.00316504 0)
(0.124468 -0.00304795 0)
(0.125135 -0.00292947 0)
(0.125774 -0.00280967 0)
(0.126387 -0.00268863 0)
(0.126973 -0.00256642 0)
(0.127531 -0.00244313 0)
(0.128062 -0.00231884 0)
(0.128565 -0.00219364 0)
(0.129039 -0.0020676 0)
(0.129486 -0.00194081 0)
(0.129904 -0.00181337 0)
(0.130293 -0.00168536 0)
(0.130654 -0.00155687 0)
(0.130987 -0.00142799 0)
(0.13129 -0.00129881 0)
(0.131565 -0.00116942 0)
(0.13181 -0.00103991 0)
(0.132027 -0.000910372 0)
(0.132215 -0.000780895 0)
(0.132373 -0.000651565 0)
(0.132503 -0.000522473 0)
(0.132605 -0.000393703 0)
(0.132677 -0.000265342 0)
(0.132721 -0.000137474 0)
(0.132736 -1.0182e-05 0)
(0.132724 0.000116454 0)
(0.132682 0.000242355 0)
(0.132613 0.000367443 0)
(0.132516 0.000491644 0)
(0.132392 0.000614885 0)
(0.13224 0.000737096 0)
(0.132061 0.000858208 0)
(0.131855 0.000978157 0)
(0.131622 0.00109688 0)
(0.131364 0.00121432 0)