/*--------------------------------*- C++ -*----------------------------------*\
| =========                 |                                                 |
| \\      /  F ield         | OpenFOAM: The Open Source CFD Toolbox           |
|  \\    /   O peration     | Version:  v2012                                 |
|   \\  /    A nd           | Website:  www.openfoam.com                      |
|    \\/     M anipulation  |                                                 |
\*---------------------------------------------------------------------------*/
FoamFile
{
    version     2.0;
    format      ascii;
    class       surfaceScalarField;
    location    "12.9";
    object      phi;
}
// * * * * * * * * * * * * * * * * * * * * * * * * * * * * * * * * * * * * * //

dimensions      [0 3 -1 0 0 0 0];
oriented        oriented;


internalField   nonuniform List<scalar> 
130560
(
3.53798e-06
-3.53798e-06
7.07614e-06
-3.53816e-06
1.06147e-05
-3.53851e-06
1.41537e-05
-3.53904e-06
1.76934e-05
-3.53975e-06
2.12341e-05
-3.54062e-06
2.47757e-05
-3.54166e-06
2.83186e-05
-3.54287e-06
3.18628e-05
-3.54424e-06
3.54086e-05
-3.54576e-06
3.8956e-05
-3.54743e-06
4.25053e-05
-3.54924e-06
4.60565e-05
-3.55119e-06
4.96097e-05
-3.55326e-06
5.31652e-05
-3.55546e-06
5.67229e-05
-3.55776e-06
6.02831e-05
-3.56016e-06
6.38458e-05
-3.56266e-06
6.7411e-05
-3.56523e-06
7.09789e-05
-3.56787e-06
7.45494e-05
-3.57056e-06
7.81227e-05
-3.57329e-06
8.16988e-05
-3.57605e-06
8.52776e-05
-3.57882e-06
8.88592e-05
-3.58159e-06
9.24435e-05
-3.58434e-06
9.60306e-05
-3.58705e-06
9.96203e-05
-3.5897e-06
0.000103213
-3.59228e-06
0.000106807
-3.59476e-06
0.000110404
-3.59713e-06
0.000114004
-3.59937e-06
0.000117605
-3.60145e-06
0.000121209
-3.60335e-06
0.000124814
-3.60505e-06
0.00012842
-3.60652e-06
0.000132028
-3.60773e-06
0.000135637
-3.60867e-06
0.000139246
-3.60931e-06
0.000142856
-3.60961e-06
0.000146465
-3.60956e-06
0.000150074
-3.60911e-06
0.000153682
-3.60825e-06
0.000157289
-3.60694e-06
0.000160895
-3.60515e-06
0.000164497
-3.60285e-06
0.000168097
-3.60001e-06
0.000171694
-3.5966e-06
0.000175287
-3.59257e-06
0.000178874
-3.5879e-06
0.000182457
-3.58256e-06
0.000186034
-3.5765e-06
0.000189603
-3.5697e-06
0.000193165
-3.56211e-06
0.000196719
-3.55371e-06
0.000200263
-3.54446e-06
0.000203798
-3.53431e-06
0.000207321
-3.52324e-06
0.000210832
-3.51121e-06
0.00021433
-3.49818e-06
0.000217815
-3.48412e-06
0.000221284
-3.46898e-06
0.000224736
-3.45275e-06
0.000228172
-3.43537e-06
0.000231588
-3.41682e-06
0.000234986
-3.39705e-06
0.000238362
-3.37605e-06
0.000241715
-3.35378e-06
0.000245046
-3.33019e-06
0.000248351
-3.30528e-06
0.00025163
-3.27899e-06
0.000254881
-3.25132e-06
0.000258103
-3.22222e-06
0.000261295
-3.19168e-06
0.000264455
-3.15966e-06
0.000267581
-3.12616e-06
0.000270672
-3.09114e-06
0.000273727
-3.0546e-06
0.000276743
-3.01651e-06
0.00027972
-2.97685e-06
0.000282656
-2.93562e-06
0.000285548
-2.89281e-06
0.000288397
-2.84841e-06
0.000291199
-2.80242e-06
0.000293954
-2.75482e-06
0.00029666
-2.70563e-06
0.000299315
-2.65484e-06
0.000301917
-2.60246e-06
0.000304465
-2.54851e-06
0.000306958
-2.49298e-06
0.000309394
-2.4359e-06
0.000311772
-2.37728e-06
0.000314089
-2.31715e-06
0.000316344
-2.25552e-06
0.000318537
-2.19242e-06
0.000320665
-2.12789e-06
0.000322727
-2.06195e-06
0.000324721
-1.99464e-06
0.000326647
-1.926e-06
0.000328503
-1.85607e-06
0.000330288
-1.78489e-06
0.000332001
-1.7125e-06
0.00033364
-1.63897e-06
0.000335204
-1.56433e-06
0.000336693
-1.48865e-06
0.000338105
-1.41198e-06
0.000339439
-1.33437e-06
0.000340695
-1.25589e-06
0.000341871
-1.17661e-06
0.000342968
-1.09657e-06
0.000343984
-1.01586e-06
0.000344918
-9.34537e-07
0.000345771
-8.52668e-07
0.000346541
-7.70325e-07
0.000347229
-6.87578e-07
0.000347834
-6.04499e-07
0.000348355
-5.21158e-07
0.000348792
-4.37627e-07
0.000349146
-3.53981e-07
0.000349417
-2.70289e-07
0.000349603
-1.86625e-07
0.000349706
-1.03061e-07
0.000349726
-1.96668e-08
0.000349662
6.34863e-08
0.000349516
1.46329e-07
0.000349287
2.28792e-07
0.000348977
3.1081e-07
0.000348584
3.92315e-07
0.000348111
4.73243e-07
0.000347557
5.53532e-07
0.000346924
6.3312e-07
0.000346212
7.11949e-07
0.000345422
7.89961e-07
0.000344555
8.67102e-07
0.000343612
9.43319e-07
0.000342593
1.01856e-06
0.000341501
1.09278e-06
0.000340335
1.16593e-06
0.000339097
1.23797e-06
0.000337788
1.30886e-06
0.000336409
1.37856e-06
0.000334962
1.44704e-06
0.000333448
1.51425e-06
0.000331868
1.58018e-06
0.000330223
1.6448e-06
0.000328515
1.70807e-06
0.000326745
1.76999e-06
0.000324914
1.83052e-06
0.000323025
1.88965e-06
0.000321077
1.94737e-06
0.000319074
2.00367e-06
0.000317015
2.05853e-06
0.000314903
2.11194e-06
0.000312739
2.16392e-06
0.000310525
2.21444e-06
0.000308261
2.26351e-06
0.00030595
2.31113e-06
0.000303593
2.35731e-06
0.000301191
2.40205e-06
0.000298746
2.44536e-06
0.000296258
2.48725e-06
0.000293731
2.52772e-06
0.000291164
2.56679e-06
0.000288559
2.60448e-06
0.000285919
2.6408e-06
0.000283243
2.67576e-06
0.000280533
2.70939e-06
0.000277792
2.7417e-06
0.000275019
2.77272e-06
0.000272216
2.80246e-06
0.000269386
2.83095e-06
0.000266527
2.85821e-06
0.000263643
2.88427e-06
0.000260734
2.90914e-06
0.000257801
2.93286e-06
0.000254846
2.95544e-06
0.000251869
2.97693e-06
0.000248871
2.99733e-06
0.000245855
3.01669e-06
0.00024282
3.03502e-06
0.000239767
3.05235e-06
0.000236699
3.06871e-06
0.000233614
3.08414e-06
0.000230516
3.09865e-06
0.000227404
3.11227e-06
0.000224278
3.12504e-06
0.000221142
3.13697e-06
0.000217993
3.14811e-06
0.000214835
3.15847e-06
0.000211667
3.16808e-06
0.00020849
3.17697e-06
0.000205305
3.18516e-06
0.000202112
3.19269e-06
0.000198912
3.19957e-06
0.000195707
3.20584e-06
0.000192495
3.21152e-06
0.000189278
3.21663e-06
0.000186057
3.2212e-06
0.000182832
3.22525e-06
0.000179603
3.22882e-06
0.000176371
3.23191e-06
0.000173137
3.23455e-06
0.0001699
3.23678e-06
0.000166661
3.2386e-06
0.000163421
3.24004e-06
0.00016018
3.24112e-06
0.000156938
3.24186e-06
0.000153696
3.24229e-06
0.000150454
3.24242e-06
0.000147211
3.24226e-06
0.00014397
3.24185e-06
0.000140728
3.24119e-06
0.000137488
3.24031e-06
0.000134249
3.23922e-06
0.000131011
3.23794e-06
0.000127774
3.23649e-06
0.000124539
3.23488e-06
0.000121306
3.23312e-06
0.000118075
3.23124e-06
0.000114846
3.22924e-06
0.000111619
3.22714e-06
0.000108394
3.22495e-06
0.000105171
3.22269e-06
0.000101951
3.22036e-06
9.87328e-05
3.21799e-06
9.55172e-05
3.21558e-06
9.23041e-05
3.21314e-06
8.90934e-05
3.21068e-06
8.58852e-05
3.20822e-06
8.26794e-05
3.20576e-06
7.94761e-05
3.20332e-06
7.62752e-05
3.2009e-06
7.30767e-05
3.19851e-06
6.98805e-05
3.19616e-06
6.66867e-05
3.19385e-06
6.34951e-05
3.1916e-06
6.03056e-05
3.18942e-06
5.71183e-05
3.1873e-06
5.39331e-05
3.18525e-06
5.07498e-05
3.18329e-06
4.75684e-05
3.18142e-06
4.43888e-05
3.17963e-06
4.12108e-05
3.17795e-06
3.80344e-05
3.17636e-06
3.48596e-05
3.17488e-06
3.16861e-05
3.17351e-06
2.85138e-05
3.17226e-06
2.53427e-05
3.17112e-06
2.21726e-05
3.1701e-06
1.90034e-05
3.1692e-06
1.5835e-05
3.16842e-06
1.26672e-05
3.16777e-06
9.49994e-06
3.16725e-06
6.33308e-06
3.16686e-06
3.16647e-06
3.1666e-06
3.16647e-06
3.53781e-06
-7.07579e-06
7.07579e-06
-7.07615e-06
1.06141e-05
-7.07686e-06
1.4153e-05
-7.07792e-06
1.76926e-05
-7.07933e-06
2.1233e-05
-7.08108e-06
2.47745e-05
-7.08317e-06
2.83173e-05
-7.08558e-06
3.18613e-05
-7.08832e-06
3.5407e-05
-7.09137e-06
3.89542e-05
-7.09472e-06
4.25034e-05
-7.09835e-06
4.60544e-05
-7.10225e-06
4.96076e-05
-7.10641e-06
5.31629e-05
-7.1108e-06
5.67206e-05
-7.11542e-06
6.02806e-05
-7.12024e-06
6.38432e-05
-7.12524e-06
6.74084e-05
-7.1304e-06
7.09762e-05
-7.13569e-06
7.45467e-05
-7.14108e-06
7.812e-05
-7.14656e-06
8.1696e-05
-7.1521e-06
8.52749e-05
-7.15766e-06
8.88565e-05
-7.16321e-06
9.24409e-05
-7.16872e-06
9.6028e-05
-7.17415e-06
9.96177e-05
-7.17947e-06
0.00010321
-7.18465e-06
0.000106805
-7.18964e-06
0.000110402
-7.19441e-06
0.000114002
-7.1989e-06
0.000117603
-7.20308e-06
0.000121207
-7.2069e-06
0.000124812
-7.21032e-06
0.000128419
-7.21329e-06
0.000132027
-7.21575e-06
0.000135636
-7.21765e-06
0.000139246
-7.21895e-06
0.000142856
-7.21959e-06
0.000146466
-7.21951e-06
0.000150075
-7.21865e-06
0.000153684
-7.21695e-06
0.000157291
-7.21436e-06
0.000160897
-7.21082e-06
0.0001645
-7.20625e-06
0.000168101
-7.2006e-06
0.000171698
-7.1938e-06
0.000175291
-7.18578e-06
0.00017888
-7.17648e-06
0.000182463
-7.16583e-06
0.00018604
-7.15375e-06
0.000189611
-7.14018e-06
0.000193174
-7.12505e-06
0.000196728
-7.10828e-06
0.000200274
-7.0898e-06
0.000203809
-7.06955e-06
0.000207333
-7.04745e-06
0.000210845
-7.02342e-06
0.000214345
-6.9974e-06
0.00021783
-6.9693e-06
0.0002213
-6.93907e-06
0.000224754
-6.90663e-06
0.00022819
-6.87191e-06
0.000231608
-6.83484e-06
0.000235007
-6.79535e-06
0.000238384
-6.75338e-06
0.000241739
-6.70885e-06
0.000245071
-6.66172e-06
0.000248377
-6.61192e-06
0.000251658
-6.55938e-06
0.00025491
-6.50405e-06
0.000258134
-6.44588e-06
0.000261327
-6.38482e-06
0.000264488
-6.32082e-06
0.000267616
-6.25383e-06
0.000270709
-6.18382e-06
0.000273765
-6.11074e-06
0.000276783
-6.03457e-06
0.000279761
-5.95527e-06
0.000282698
-5.87283e-06
0.000285593
-5.78722e-06
0.000288443
-5.69842e-06
0.000291247
-5.60643e-06
0.000294003
-5.51124e-06
0.00029671
-5.41285e-06
0.000299367
-5.31127e-06
0.000301971
-5.20651e-06
0.000304521
-5.09858e-06
0.000307016
-4.98751e-06
0.000309453
-4.87334e-06
0.000311832
-4.75608e-06
0.00031415
-4.63579e-06
0.000316407
-4.51251e-06
0.000318601
-4.38629e-06
0.000320731
-4.25719e-06
0.000322794
-4.12527e-06
0.00032479
-3.99062e-06
0.000326717
-3.85329e-06
0.000328574
-3.71338e-06
0.000330361
-3.57097e-06
0.000332074
-3.42616e-06
0.000333714
-3.27904e-06
0.00033528
-3.12971e-06
0.000336769
-2.97829e-06
0.000338182
-2.82488e-06
0.000339517
-2.66961e-06
0.000340774
-2.51259e-06
0.000341951
-2.35395e-06
0.000343049
-2.19382e-06
0.000344065
-2.03233e-06
0.000345
-1.86961e-06
0.000345853
-1.70581e-06
0.000346624
-1.54105e-06
0.000347312
-1.37549e-06
0.000347917
-1.20926e-06
0.000348438
-1.0425e-06
0.000348876
-8.75369e-07
0.00034923
-7.08003e-07
0.0003495
-5.40548e-07
0.000349687
-3.73149e-07
0.00034979
-2.05949e-07
0.000349809
-3.909e-08
0.000349745
1.27286e-07
0.000349599
2.93039e-07
0.000349369
4.58034e-07
0.000349058
6.22134e-07
0.000348665
7.85208e-07
0.000348191
9.47127e-07
0.000347637
1.10777e-06
0.000347003
1.267e-06
0.00034629
1.42472e-06
0.000345499
1.5808e-06
0.000344631
1.73513e-06
0.000343687
1.88762e-06
0.000342668
2.03815e-06
0.000341574
2.18663e-06
0.000340407
2.33298e-06
0.000339168
2.4771e-06
0.000337857
2.61892e-06
0.000336478
2.75835e-06
0.000335029
2.89533e-06
0.000333514
3.0298e-06
0.000331932
3.16168e-06
0.000330286
3.29094e-06
0.000328577
3.41751e-06
0.000326805
3.54136e-06
0.000324973
3.66244e-06
0.000323082
3.78072e-06
0.000321134
3.89617e-06
0.000319128
4.00877e-06
0.000317069
4.1185e-06
0.000314955
4.22534e-06
0.00031279
4.32928e-06
0.000310574
4.43033e-06
0.000308309
4.52847e-06
0.000305996
4.62372e-06
0.000303638
4.71607e-06
0.000301234
4.80554e-06
0.000298787
4.89215e-06
0.000296299
4.9759e-06
0.00029377
5.05684e-06
0.000291201
5.13497e-06
0.000288595
5.21033e-06
0.000285953
5.28295e-06
0.000283276
5.35286e-06
0.000280566
5.4201e-06
0.000277823
5.48471e-06
0.000275049
5.54672e-06
0.000272245
5.60618e-06
0.000269413
5.66314e-06
0.000266553
5.71763e-06
0.000263668
5.76972e-06
0.000260757
5.81944e-06
0.000257823
5.86685e-06
0.000254867
5.91199e-06
0.000251889
5.95493e-06
0.000248891
5.99571e-06
0.000245873
6.03439e-06
0.000242837
6.07103e-06
0.000239784
6.10567e-06
0.000236714
6.13837e-06
0.000233629
6.16919e-06
0.000230529
6.19818e-06
0.000227416
6.2254e-06
0.00022429
6.25091e-06
0.000221153
6.27475e-06
0.000218004
6.29699e-06
0.000214844
6.31768e-06
0.000211676
6.33687e-06
0.000208498
6.35462e-06
0.000205312
6.37099e-06
0.000202119
6.38601e-06
0.000198919
6.39976e-06
0.000195712
6.41227e-06
0.0001925
6.4236e-06
0.000189283
6.4338e-06
0.000186061
6.44291e-06
0.000182835
6.451e-06
0.000179606
6.4581e-06
0.000176374
6.46426e-06
0.000173139
6.46953e-06
0.000169902
6.47396e-06
0.000166663
6.47758e-06
0.000163422
6.48044e-06
0.000160181
6.48258e-06
0.000156939
6.48404e-06
0.000153696
6.48487e-06
0.000150453
6.48511e-06
0.000147211
6.48478e-06
0.000143969
6.48394e-06
0.000140727
6.48261e-06
0.000137487
6.48083e-06
0.000134247
6.47864e-06
0.000131009
6.47606e-06
0.000127773
6.47314e-06
0.000124538
6.4699e-06
0.000121304
6.46637e-06
0.000118073
6.46259e-06
0.000114844
6.45857e-06
0.000111616
6.45436e-06
0.000108391
6.44997e-06
0.000105169
6.44543e-06
0.000101948
6.44077e-06
9.87303e-05
6.43601e-06
9.55147e-05
6.43118e-06
9.23015e-05
6.42629e-06
8.90909e-05
6.42137e-06
8.58826e-05
6.41644e-06
8.26769e-05
6.41151e-06
7.94736e-05
6.40661e-06
7.62727e-05
6.40176e-06
7.30743e-05
6.39697e-06
6.98782e-05
6.39226e-06
6.66844e-05
6.38765e-06
6.34928e-05
6.38314e-06
6.03035e-05
6.37876e-06
5.71163e-05
6.37452e-06
5.39311e-05
6.37043e-06
5.07479e-05
6.3665e-06
4.75666e-05
6.36274e-06
4.4387e-05
6.35917e-06
4.12092e-05
6.35579e-06
3.80329e-05
6.35261e-06
3.48582e-05
6.34965e-06
3.16848e-05
6.34691e-06
2.85126e-05
6.34439e-06
2.53416e-05
6.34211e-06
2.21717e-05
6.34007e-06
1.90026e-05
6.33827e-06
1.58343e-05
6.33672e-06
1.26667e-05
6.33542e-06
9.49954e-06
6.33437e-06
6.33281e-06
6.33359e-06
3.16634e-06
6.33307e-06
6.33282e-06
3.53745e-06
-1.06132e-05
7.07508e-06
-1.06138e-05
1.06131e-05
-1.06148e-05
1.41516e-05
-1.06164e-05
1.76908e-05
-1.06186e-05
2.12309e-05
-1.06212e-05
2.47721e-05
-1.06243e-05
2.83145e-05
-1.0628e-05
3.18583e-05
-1.06321e-05
3.54036e-05
-1.06367e-05
3.89506e-05
-1.06417e-05
4.24994e-05
-1.06472e-05
4.60502e-05
-1.06531e-05
4.96031e-05
-1.06593e-05
5.31583e-05
-1.06659e-05
5.67157e-05
-1.06729e-05
6.02756e-05
-1.06801e-05
6.3838e-05
-1.06877e-05
6.74031e-05
-1.06954e-05
7.09708e-05
-1.07034e-05
7.45412e-05
-1.07115e-05
7.81144e-05
-1.07198e-05
8.16905e-05
-1.07281e-05
8.52693e-05
-1.07365e-05
8.8851e-05
-1.07449e-05
9.24354e-05
-1.07532e-05
9.60226e-05
-1.07614e-05
9.96125e-05
-1.07694e-05
0.000103205
-1.07772e-05
0.0001068
-1.07847e-05
0.000110398
-1.07919e-05
0.000113998
-1.07987e-05
0.0001176
-1.08051e-05
0.000121204
-1.08109e-05
0.000124809
-1.0816e-05
0.000128417
-1.08206e-05
0.000132025
-1.08243e-05
0.000135635
-1.08272e-05
0.000139245
-1.08293e-05
0.000142856
-1.08303e-05
0.000146466
-1.08302e-05
0.000150077
-1.0829e-05
0.000153686
-1.08265e-05
0.000157295
-1.08227e-05
0.000160901
-1.08175e-05
0.000164506
-1.08107e-05
0.000168108
-1.08023e-05
0.000171706
-1.07922e-05
0.000175301
-1.07803e-05
0.00017889
-1.07664e-05
0.000182475
-1.07505e-05
0.000186054
-1.07325e-05
0.000189626
-1.07122e-05
0.000193191
-1.06896e-05
0.000196747
-1.06646e-05
0.000200294
-1.06369e-05
0.000203831
-1.06066e-05
0.000207357
-1.05736e-05
0.000210871
-1.05376e-05
0.000214373
-1.04987e-05
0.00021786
-1.04566e-05
0.000221332
-1.04114e-05
0.000224788
-1.03628e-05
0.000228227
-1.03108e-05
0.000231648
-1.02553e-05
0.000235049
-1.01961e-05
0.000238428
-1.01333e-05
0.000241786
-1.00665e-05
0.00024512
-9.99592e-06
0.00024843
-9.92129e-06
0.000251713
-9.84255e-06
0.000254968
-9.75963e-06
0.000258195
-9.67244e-06
0.000261391
-9.58091e-06
0.000264555
-9.48496e-06
0.000267686
-9.38453e-06
0.000270782
-9.27956e-06
0.000273841
-9.16998e-06
0.000276862
-9.05576e-06
0.000279844
-8.93685e-06
0.000282784
-8.81321e-06
0.000285682
-8.6848e-06
0.000288535
-8.55162e-06
0.000291342
-8.41364e-06
0.000294102
-8.27085e-06
0.000296812
-8.12326e-06
0.000299472
-7.97088e-06
0.000302079
-7.81371e-06
0.000304632
-7.6518e-06
0.00030713
-7.48516e-06
0.00030957
-7.31385e-06
0.000311952
-7.13792e-06
0.000314274
-6.95742e-06
0.000316534
-6.77243e-06
0.00031873
-6.58303e-06
0.000320863
-6.3893e-06
0.000322929
-6.19134e-06
0.000324927
-5.98926e-06
0.000326857
-5.78317e-06
0.000328717
-5.57319e-06
0.000330505
-5.35946e-06
0.000332221
-5.14212e-06
0.000333864
-4.92131e-06
0.000335431
-4.69718e-06
0.000336923
-4.46991e-06
0.000338338
-4.23966e-06
0.000339674
-4.0066e-06
0.000340933
-3.77091e-06
0.000342112
-3.5328e-06
0.00034321
-3.29244e-06
0.000344228
-3.05003e-06
0.000345164
-2.80578e-06
0.000346018
-2.5599e-06
0.00034679
-2.31259e-06
0.000347478
-2.06406e-06
0.000348084
-1.81454e-06
0.000348605
-1.56423e-06
0.000349043
-1.31335e-06
0.000349397
-1.06212e-06
0.000349668
-8.10753e-07
0.000349854
-5.59474e-07
0.000349957
-3.08496e-07
0.000349975
-5.80317e-08
0.000349911
1.91706e-07
0.000349764
4.40508e-07
0.000349533
6.88168e-07
0.000349221
9.34483e-07
0.000348827
1.17926e-06
0.000348352
1.42229e-06
0.000347796
1.6634e-06
0.000347161
1.9024e-06
0.000346446
2.13912e-06
0.000345654
2.37338e-06
0.000344784
2.60501e-06
0.000343838
2.83386e-06
0.000342816
3.05978e-06
0.00034172
3.28262e-06
0.000340551
3.50225e-06
0.000339309
3.71853e-06
0.000337997
3.93135e-06
0.000336615
4.14059e-06
0.000335164
4.34615e-06
0.000333646
4.54792e-06
0.000332062
4.74582e-06
0.000330413
4.93976e-06
0.000328701
5.12967e-06
0.000326927
5.31549e-06
0.000325092
5.49715e-06
0.000323198
5.67461e-06
0.000321246
5.84782e-06
0.000319238
6.01674e-06
0.000317175
6.18135e-06
0.000315059
6.34163e-06
0.000312891
6.49755e-06
0.000310672
6.64912e-06
0.000308404
6.79633e-06
0.000306089
6.93919e-06
0.000303727
7.0777e-06
0.000301321
7.21189e-06
0.000298871
7.34178e-06
0.00029638
7.46739e-06
0.000293848
7.58876e-06
0.000291277
7.70592e-06
0.000288668
7.81892e-06
0.000286023
7.92781e-06
0.000283344
8.03263e-06
0.00028063
8.13344e-06
0.000277885
8.2303e-06
0.000275108
8.32326e-06
0.000272302
8.4124e-06
0.000269467
8.49778e-06
0.000266605
8.57946e-06
0.000263718
8.65753e-06
0.000260805
8.73205e-06
0.000257869
8.8031e-06
0.00025491
8.87075e-06
0.00025193
8.93509e-06
0.000248929
8.9962e-06
0.00024591
9.05415e-06
0.000242872
9.10903e-06
0.000239816
9.16092e-06
0.000236745
9.2099e-06
0.000233658
9.25606e-06
0.000230557
9.29948e-06
0.000227442
9.34025e-06
0.000224314
9.37844e-06
0.000221175
9.41413e-06
0.000218024
9.44743e-06
0.000214864
9.47839e-06
0.000211693
9.50711e-06
0.000208514
9.53367e-06
0.000205327
9.55815e-06
0.000202133
9.58062e-06
0.000198931
9.60117e-06
0.000195724
9.61988e-06
0.00019251
9.63681e-06
0.000189292
9.65205e-06
0.000186069
9.66566e-06
0.000182843
9.67773e-06
0.000179612
9.68832e-06
0.000176379
9.69751e-06
0.000173143
9.70536e-06
0.000169905
9.71194e-06
0.000166666
9.71731e-06
0.000163425
9.72155e-06
0.000160182
9.72471e-06
0.00015694
9.72686e-06
0.000153696
9.72806e-06
0.000150453
9.72836e-06
0.00014721
9.72783e-06
0.000143968
9.72652e-06
0.000140726
9.72448e-06
0.000137485
9.72176e-06
0.000134245
9.71843e-06
0.000131006
9.71453e-06
0.000127769
9.71011e-06
0.000124534
9.70521e-06
0.000121301
9.69988e-06
0.000118069
9.69416e-06
0.00011484
9.68811e-06
0.000111612
9.68175e-06
0.000108387
9.67514e-06
0.000105164
9.6683e-06
0.000101944
9.66128e-06
9.87255e-05
9.65411e-06
9.55098e-05
9.64683e-06
9.22967e-05
9.63947e-06
8.9086e-05
9.63207e-06
8.58777e-05
9.62464e-06
8.2672e-05
9.61723e-06
7.94688e-05
9.60986e-06
7.6268e-05
9.60257e-06
7.30696e-05
9.59536e-06
6.98736e-05
9.58828e-06
6.66799e-05
9.58133e-06
6.34885e-05
9.57456e-06
6.02993e-05
9.56797e-06
5.71122e-05
9.56159e-06
5.39272e-05
9.55544e-06
5.07441e-05
9.54953e-06
4.7563e-05
9.54388e-06
4.43837e-05
9.53851e-06
4.1206e-05
9.53343e-06
3.803e-05
9.52866e-06
3.48554e-05
9.5242e-06
3.16823e-05
9.52008e-06
2.85104e-05
9.5163e-06
2.53396e-05
9.51286e-06
2.21699e-05
9.50979e-06
1.90011e-05
9.50709e-06
1.5833e-05
9.50476e-06
1.26656e-05
9.50281e-06
9.49876e-06
9.50124e-06
6.33229e-06
9.50007e-06
3.16608e-06
9.49928e-06
9.49889e-06
3.53691e-06
-1.41502e-05
7.07401e-06
-1.41509e-05
1.06115e-05
-1.41523e-05
1.41495e-05
-1.41544e-05
1.76882e-05
-1.41573e-05
2.12278e-05
-1.41608e-05
2.47685e-05
-1.4165e-05
2.83104e-05
-1.41699e-05
3.18537e-05
-1.41754e-05
3.53985e-05
-1.41815e-05
3.89451e-05
-1.41883e-05
4.24935e-05
-1.41956e-05
4.6044e-05
-1.42035e-05
4.95965e-05
-1.42119e-05
5.31513e-05
-1.42207e-05
5.67084e-05
-1.423e-05
6.02681e-05
-1.42398e-05
6.38303e-05
-1.42498e-05
6.73951e-05
-1.42603e-05
7.09626e-05
-1.42709e-05
7.45329e-05
-1.42818e-05
7.81061e-05
-1.42929e-05
8.1682e-05
-1.43041e-05
8.52609e-05
-1.43153e-05
8.88426e-05
-1.43266e-05
9.24272e-05
-1.43377e-05
9.60145e-05
-1.43487e-05
9.96047e-05
-1.43595e-05
0.000103198
-1.437e-05
0.000106793
-1.43802e-05
0.000110391
-1.43899e-05
0.000113991
-1.4399e-05
0.000117594
-1.44076e-05
0.000121198
-1.44154e-05
0.000124805
-1.44225e-05
0.000128413
-1.44286e-05
0.000132022
-1.44337e-05
0.000135633
-1.44377e-05
0.000139244
-1.44406e-05
0.000142856
-1.4442e-05
0.000146468
-1.44421e-05
0.000150079
-1.44406e-05
0.00015369
-1.44375e-05
0.0001573
-1.44326e-05
0.000160908
-1.44257e-05
0.000164514
-1.44168e-05
0.000168118
-1.44058e-05
0.000171718
-1.43925e-05
0.000175314
-1.43767e-05
0.000178906
-1.43584e-05
0.000182493
-1.43373e-05
0.000186074
-1.43135e-05
0.000189649
-1.42866e-05
0.000193216
-1.42566e-05
0.000196774
-1.42234e-05
0.000200324
-1.41867e-05
0.000203864
-1.41465e-05
0.000207393
-1.41026e-05
0.00021091
-1.40548e-05
0.000214415
-1.40031e-05
0.000217905
-1.39472e-05
0.000221381
-1.3887e-05
0.00022484
-1.38224e-05
0.000228283
-1.37532e-05
0.000231707
-1.36793e-05
0.000235111
-1.36006e-05
0.000238495
-1.3517e-05
0.000241857
-1.34282e-05
0.000245195
-1.33341e-05
0.000248508
-1.32348e-05
0.000251796
-1.31299e-05
0.000255056
-1.30195e-05
0.000258287
-1.29033e-05
0.000261487
-1.27814e-05
0.000264656
-1.26536e-05
0.000267791
-1.25198e-05
0.000270891
-1.23799e-05
0.000273955
-1.22339e-05
0.000276981
-1.20816e-05
0.000279967
-1.19232e-05
0.000282912
-1.17583e-05
0.000285815
-1.15872e-05
0.000288673
-1.14096e-05
0.000291485
-1.12257e-05
0.000294249
-1.10353e-05
0.000296964
-1.08385e-05
0.000299629
-1.06353e-05
0.000302241
-1.04257e-05
0.000304799
-1.02097e-05
0.000307301
-9.98749e-06
0.000309746
-9.75899e-06
0.000312133
-9.52432e-06
0.000314459
-9.28354e-06
0.000316723
-9.03677e-06
0.000318924
-8.78409e-06
0.00032106
-8.52564e-06
0.000323131
-8.26153e-06
0.000325133
-7.99191e-06
0.000327067
-7.71693e-06
0.000328931
-7.43676e-06
0.000330723
-7.15157e-06
0.000332442
-6.86155e-06
0.000334088
-6.5669e-06
0.000335658
-6.26781e-06
0.000337153
-5.96452e-06
0.000338571
-5.65724e-06
0.00033991
-5.34621e-06
0.000341171
-5.03167e-06
0.000342352
-4.71388e-06
0.000343453
-4.39309e-06
0.000344472
-4.06957e-06
0.00034541
-3.74359e-06
0.000346266
-3.41542e-06
0.000347038
-3.08534e-06
0.000347728
-2.75364e-06
0.000348334
-2.4206e-06
0.000348856
-2.08652e-06
0.000349295
-1.75167e-06
0.000349649
-1.41636e-06
0.000349919
-1.08088e-06
0.000350105
-7.45502e-07
0.000350207
-4.10531e-07
0.000350225
-7.62488e-08
0.00035016
2.5706e-07
0.000350011
5.89117e-07
0.00034978
9.19645e-07
0.000349466
1.24837e-06
0.00034907
1.57504e-06
0.000348593
1.89938e-06
0.000348035
2.22115e-06
0.000347398
2.54009e-06
0.000346681
2.85598e-06
0.000345886
3.16858e-06
0.000345013
3.47767e-06
0.000344064
3.78304e-06
0.000343039
4.08449e-06
0.00034194
4.38183e-06
0.000340767
4.67486e-06
0.000339522
4.96343e-06
0.000338206
5.24737e-06
0.00033682
5.52652e-06
0.000335366
5.80074e-06
0.000333844
6.06991e-06
0.000332256
6.3339e-06
0.000330603
6.59261e-06
0.000328887
6.84593e-06
0.000327108
7.09378e-06
0.000325269
7.33607e-06
0.000323371
7.57275e-06
0.000321415
7.80375e-06
0.000319403
8.02903e-06
0.000317336
8.24854e-06
0.000315215
8.46226e-06
0.000313043
8.67018e-06
0.000310819
8.87227e-06
0.000308547
9.06854e-06
0.000306227
9.259e-06
0.000303861
9.44366e-06
0.000301451
9.62255e-06
0.000298997
9.79568e-06
0.000296501
9.96312e-06
0.000293965
1.01249e-05
0.00029139
1.0281e-05
0.000288777
1.04316e-05
0.000286128
1.05767e-05
0.000283444
1.07164e-05
0.000280727
1.08507e-05
0.000277978
1.09798e-05
0.000275197
1.11036e-05
0.000272387
1.12224e-05
0.000269549
1.13361e-05
0.000266684
1.14449e-05
0.000263792
1.15489e-05
0.000260876
1.16481e-05
0.000257936
1.17427e-05
0.000254974
1.18328e-05
0.000251991
1.19185e-05
0.000248987
1.19998e-05
0.000245965
1.2077e-05
0.000242924
1.215e-05
0.000239865
1.22191e-05
0.000236791
1.22843e-05
0.000233701
1.23457e-05
0.000230597
1.24034e-05
0.00022748
1.24577e-05
0.00022435
1.25085e-05
0.000221208
1.25559e-05
0.000218055
1.26002e-05
0.000214893
1.26413e-05
0.00021172
1.26795e-05
0.000208539
1.27148e-05
0.00020535
1.27473e-05
0.000202153
1.27772e-05
0.00019895
1.28044e-05
0.000195741
1.28293e-05
0.000192526
1.28517e-05
0.000189306
1.28719e-05
0.000186082
1.289e-05
0.000182853
1.29059e-05
0.000179622
1.292e-05
0.000176387
1.29321e-05
0.00017315
1.29425e-05
0.000169911
1.29511e-05
0.00016667
1.29582e-05
0.000163428
1.29637e-05
0.000160185
1.29679e-05
0.000156941
1.29706e-05
0.000153697
1.29721e-05
0.000150453
1.29725e-05
0.000147209
1.29717e-05
0.000143966
1.29698e-05
0.000140723
1.2967e-05
0.000137481
1.29633e-05
0.000134241
1.29588e-05
0.000131002
1.29535e-05
0.000127765
1.29475e-05
0.000124529
1.29409e-05
0.000121295
1.29338e-05
0.000118063
1.29261e-05
0.000114833
1.29179e-05
0.000111606
1.29094e-05
0.00010838
1.29005e-05
0.000105157
1.28914e-05
0.000101936
1.28819e-05
9.87183e-05
1.28723e-05
9.55025e-05
1.28626e-05
9.22893e-05
1.28527e-05
8.90786e-05
1.28428e-05
8.58704e-05
1.28328e-05
8.26647e-05
1.28229e-05
7.94615e-05
1.2813e-05
7.62608e-05
1.28033e-05
7.30625e-05
1.27936e-05
6.98667e-05
1.27841e-05
6.66731e-05
1.27749e-05
6.34819e-05
1.27658e-05
6.02929e-05
1.2757e-05
5.71061e-05
1.27484e-05
5.39213e-05
1.27402e-05
5.07385e-05
1.27323e-05
4.75577e-05
1.27247e-05
4.43786e-05
1.27176e-05
4.12013e-05
1.27108e-05
3.80256e-05
1.27044e-05
3.48513e-05
1.26984e-05
3.16785e-05
1.26929e-05
2.85069e-05
1.26879e-05
2.53365e-05
1.26833e-05
2.21672e-05
1.26792e-05
1.89987e-05
1.26755e-05
1.58311e-05
1.26724e-05
1.26641e-05
1.26698e-05
9.49759e-06
1.26677e-05
6.33151e-06
1.26661e-05
3.16569e-06
1.26651e-05
1.26646e-05
3.5362e-06
-1.76863e-05
7.07257e-06
-1.76873e-05
1.06093e-05
-1.7689e-05
1.41466e-05
-1.76917e-05
1.76846e-05
-1.76953e-05
2.12236e-05
-1.76997e-05
2.47636e-05
-1.7705e-05
2.83048e-05
-1.77111e-05
3.18475e-05
-1.77181e-05
3.53918e-05
-1.77258e-05
3.89378e-05
-1.77343e-05
4.24856e-05
-1.77435e-05
4.60355e-05
-1.77534e-05
4.95876e-05
-1.77639e-05
5.3142e-05
-1.77751e-05
5.66987e-05
-1.77868e-05
6.0258e-05
-1.7799e-05
6.38198e-05
-1.78117e-05
6.73844e-05
-1.78248e-05
7.09517e-05
-1.78383e-05
7.45218e-05
-1.7852e-05
7.80948e-05
-1.78659e-05
8.16708e-05
-1.788e-05
8.52496e-05
-1.78942e-05
8.88314e-05
-1.79084e-05
9.24161e-05
-1.79224e-05
9.60037e-05
-1.79363e-05
9.95941e-05
-1.795e-05
0.000103187
-1.79633e-05
0.000106783
-1.79761e-05
0.000110382
-1.79884e-05
0.000113983
-1.8e-05
0.000117586
-1.80108e-05
0.000121191
-1.80208e-05
0.000124799
-1.80298e-05
0.000128408
-1.80376e-05
0.000132018
-1.80442e-05
0.00013563
-1.80494e-05
0.000139242
-1.80532e-05
0.000142856
-1.80552e-05
0.000146469
-1.80555e-05
0.000150082
-1.80539e-05
0.000153695
-1.80502e-05
0.000157307
-1.80443e-05
0.000160917
-1.8036e-05
0.000164525
-1.80251e-05
0.000168131
-1.80116e-05
0.000171734
-1.79951e-05
0.000175333
-1.79757e-05
0.000178927
-1.7953e-05
0.000182517
-1.7927e-05
0.000186101
-1.78974e-05
0.000189678
-1.78641e-05
0.000193249
-1.78269e-05
0.000196811
-1.77856e-05
0.000200364
-1.77401e-05
0.000203908
-1.76901e-05
0.000207441
-1.76355e-05
0.000210962
-1.7576e-05
0.000214471
-1.75116e-05
0.000217965
-1.7442e-05
0.000221445
-1.7367e-05
0.00022491
-1.72865e-05
0.000228357
-1.72003e-05
0.000231786
-1.71083e-05
0.000235195
-1.70101e-05
0.000238584
-1.69058e-05
0.000241951
-1.6795e-05
0.000245294
-1.66777e-05
0.000248613
-1.65537e-05
0.000251906
-1.64229e-05
0.000255172
-1.6285e-05
0.000258408
-1.614e-05
0.000261615
-1.59878e-05
0.000264789
-1.58282e-05
0.000267931
-1.56611e-05
0.000271037
-1.54864e-05
0.000274107
-1.5304e-05
0.000277139
-1.51138e-05
0.000280132
-1.49158e-05
0.000283084
-1.47098e-05
0.000285992
-1.44959e-05
0.000288857
-1.4274e-05
0.000291675
-1.40441e-05
0.000294446
-1.38061e-05
0.000297168
-1.35601e-05
0.000299838
-1.3306e-05
0.000302457
-1.3044e-05
0.000305021
-1.2774e-05
0.00030753
-1.24961e-05
0.000309981
-1.22103e-05
0.000312373
-1.19168e-05
0.000314706
-1.16157e-05
0.000316976
-1.1307e-05
0.000319183
-1.09909e-05
0.000321325
-1.06676e-05
0.0003234
-1.03372e-05
0.000325408
-9.99992e-06
0.000327347
-9.65589e-06
0.000329216
-9.30535e-06
0.000331013
-8.94852e-06
0.000332737
-8.58562e-06
0.000334387
-8.21691e-06
0.000335962
-7.84265e-06
0.00033746
-7.46311e-06
0.000338882
-7.07857e-06
0.000340225
-6.68933e-06
0.000341489
-6.29569e-06
0.000342673
-5.89797e-06
0.000343776
-5.49649e-06
0.000344798
-5.09158e-06
0.000345738
-4.68359e-06
0.000346596
-4.27285e-06
0.00034737
-3.85972e-06
0.000348061
-3.44456e-06
0.000348668
-3.02772e-06
0.000349191
-2.60957e-06
0.00034963
-2.19047e-06
0.000349984
-1.77079e-06
0.000350254
-1.35089e-06
0.00035044
-9.31128e-07
0.000350541
-5.11878e-07
0.000350559
-9.34951e-08
0.000350492
3.23665e-07
0.000350342
7.39252e-07
0.000350109
1.15292e-06
0.000349793
1.56433e-06
0.000349395
1.97314e-06
0.000348915
2.37904e-06
0.000348354
2.78171e-06
0.000347714
3.18083e-06
0.000346993
3.57612e-06
0.000346195
3.96728e-06
0.000345318
4.35404e-06
0.000344365
4.73614e-06
0.000343336
5.11331e-06
0.000342233
5.48532e-06
0.000341056
5.85195e-06
0.000339806
6.21296e-06
0.000338486
6.56816e-06
0.000337095
6.91737e-06
0.000335635
7.2604e-06
0.000334108
7.59708e-06
0.000332515
7.92728e-06
0.000330856
8.25085e-06
0.000329135
8.56766e-06
0.000327351
8.87762e-06
0.000325506
9.18061e-06
0.000323602
9.47657e-06
0.000321641
9.76541e-06
0.000319623
1.00471e-05
0.00031755
1.03215e-05
0.000315423
1.05887e-05
0.000313245
1.08486e-05
0.000311016
1.11012e-05
0.000308738
1.13466e-05
0.000306412
1.15846e-05
0.00030404
1.18154e-05
0.000301624
1.20389e-05
0.000299164
1.22553e-05
0.000296663
1.24645e-05
0.000294121
1.26666e-05
0.000291541
1.28617e-05
0.000288922
1.30498e-05
0.000286268
1.32311e-05
0.000283579
1.34055e-05
0.000280856
1.35733e-05
0.000278102
1.37345e-05
0.000275316
1.38891e-05
0.000272501
1.40374e-05
0.000269658
1.41794e-05
0.000266788
1.43152e-05
0.000263892
1.4445e-05
0.000260971
1.45688e-05
0.000258027
1.46869e-05
0.00025506