/*--------------------------------*- C++ -*----------------------------------*\
| =========                 |                                                 |
| \\      /  F ield         | OpenFOAM: The Open Source CFD Toolbox           |
|  \\    /   O peration     | Version:  v2012                                 |
|   \\  /    A nd           | Website:  www.openfoam.com                      |
|    \\/     M anipulation  |                                                 |
\*---------------------------------------------------------------------------*/
FoamFile
{
    version     2.0;
    format      ascii;
    class       volVectorField;
    location    "12.9";
    object      Psi;
}
// * * * * * * * * * * * * * * * * * * * * * * * * * * * * * * * * * * * * * //

dimensions      [0 2 -1 0 0 0 0];


internalField   nonuniform List<vector> 
65536
(
(0 0 8.83024e-06)
(0 0 2.64912e-05)
(0 0 4.41535e-05)
(0 0 6.18181e-05)
(0 0 7.94858e-05)
(0 0 9.71575e-05)
(0 0 0.000114834)
(0 0 0.000132516)
(0 0 0.000150205)
(0 0 0.000167901)
(0 0 0.000185605)
(0 0 0.000203318)
(0 0 0.00022104)
(0 0 0.000238773)
(0 0 0.000256516)
(0 0 0.000274271)
(0 0 0.000292038)
(0 0 0.000309817)
(0 0 0.000327609)
(0 0 0.000345414)
(0 0 0.000363233)
(0 0 0.000381066)
(0 0 0.000398912)
(0 0 0.000416773)
(0 0 0.000434648)
(0 0 0.000452537)
(0 0 0.00047044)
(0 0 0.000488357)
(0 0 0.000506287)
(0 0 0.00052423)
(0 0 0.000542186)
(0 0 0.000560153)
(0 0 0.000578132)
(0 0 0.000596121)
(0 0 0.00061412)
(0 0 0.000632128)
(0 0 0.000650142)
(0 0 0.000668163)
(0 0 0.000686188)
(0 0 0.000704216)
(0 0 0.000722245)
(0 0 0.000740274)
(0 0 0.0007583)
(0 0 0.000776321)
(0 0 0.000794336)
(0 0 0.000812341)
(0 0 0.000830334)
(0 0 0.000848313)
(0 0 0.000866273)
(0 0 0.000884213)
(0 0 0.000902129)
(0 0 0.000920017)
(0 0 0.000937874)
(0 0 0.000955697)
(0 0 0.00097348)
(0 0 0.00099122)
(0 0 0.00100891)
(0 0 0.00102655)
(0 0 0.00104414)
(0 0 0.00106166)
(0 0 0.00107912)
(0 0 0.0010965)
(0 0 0.00111381)
(0 0 0.00113104)
(0 0 0.00114818)
(0 0 0.00116522)
(0 0 0.00118216)
(0 0 0.001199)
(0 0 0.00121572)
(0 0 0.00123232)
(0 0 0.0012488)
(0 0 0.00126514)
(0 0 0.00128134)
(0 0 0.0012974)
(0 0 0.0013133)
(0 0 0.00132903)
(0 0 0.0013446)
(0 0 0.00135999)
(0 0 0.0013752)
(0 0 0.00139021)
(0 0 0.00140503)
(0 0 0.00141963)
(0 0 0.00143402)
(0 0 0.00144818)
(0 0 0.00146211)
(0 0 0.0014758)
(0 0 0.00148924)
(0 0 0.00150243)
(0 0 0.00151535)
(0 0 0.001528)
(0 0 0.00154037)
(0 0 0.00155245)
(0 0 0.00156423)
(0 0 0.00157571)
(0 0 0.00158688)
(0 0 0.00159774)
(0 0 0.00160826)
(0 0 0.00161846)
(0 0 0.00162832)
(0 0 0.00163783)
(0 0 0.00164699)
(0 0 0.00165579)
(0 0 0.00166423)
(0 0 0.00167229)
(0 0 0.00167999)
(0 0 0.0016873)
(0 0 0.00169422)
(0 0 0.00170076)
(0 0 0.0017069)
(0 0 0.00171264)
(0 0 0.00171799)
(0 0 0.00172292)
(0 0 0.00172745)
(0 0 0.00173157)
(0 0 0.00173527)
(0 0 0.00173856)
(0 0 0.00174144)
(0 0 0.00174389)
(0 0 0.00174593)
(0 0 0.00174755)
(0 0 0.00174875)
(0 0 0.00174953)
(0 0 0.00174989)
(0 0 0.00174983)
(0 0 0.00174936)
(0 0 0.00174848)
(0 0 0.00174718)
(0 0 0.00174547)
(0 0 0.00174335)
(0 0 0.00174083)
(0 0 0.00173791)
(0 0 0.00173459)
(0 0 0.00173088)
(0 0 0.00172678)
(0 0 0.00172229)
(0 0 0.00171742)
(0 0 0.00171218)
(0 0 0.00170657)
(0 0 0.00170059)
(0 0 0.00169425)
(0 0 0.00168756)
(0 0 0.00168053)
(0 0 0.00167315)
(0 0 0.00166544)
(0 0 0.0016574)
(0 0 0.00164904)
(0 0 0.00164036)
(0 0 0.00163137)
(0 0 0.00162209)
(0 0 0.00161251)
(0 0 0.00160264)
(0 0 0.0015925)
(0 0 0.00158208)
(0 0 0.0015714)
(0 0 0.00156046)
(0 0 0.00154927)
(0 0 0.00153783)
(0 0 0.00152616)
(0 0 0.00151426)
(0 0 0.00150214)
(0 0 0.00148981)
(0 0 0.00147727)
(0 0 0.00146452)
(0 0 0.00145159)
(0 0 0.00143847)
(0 0 0.00142517)
(0 0 0.00141169)
(0 0 0.00139805)
(0 0 0.00138425)
(0 0 0.0013703)
(0 0 0.0013562)
(0 0 0.00134196)
(0 0 0.00132759)
(0 0 0.00131309)
(0 0 0.00129846)
(0 0 0.00128372)
(0 0 0.00126887)
(0 0 0.00125391)
(0 0 0.00123886)
(0 0 0.0012237)
(0 0 0.00120846)
(0 0 0.00119314)
(0 0 0.00117773)
(0 0 0.00116225)
(0 0 0.0011467)
(0 0 0.00113108)
(0 0 0.0011154)
(0 0 0.00109966)
(0 0 0.00108386)
(0 0 0.00106802)
(0 0 0.00105213)
(0 0 0.0010362)
(0 0 0.00102022)
(0 0 0.00100421)
(0 0 0.000988173)
(0 0 0.000972101)
(0 0 0.000956002)
(0 0 0.000939879)
(0 0 0.000923734)
(0 0 0.00090757)
(0 0 0.000891389)
(0 0 0.000875194)
(0 0 0.000858987)
(0 0 0.000842769)
(0 0 0.000826544)
(0 0 0.000810312)
(0 0 0.000794075)
(0 0 0.000777836)
(0 0 0.000761596)
(0 0 0.000745355)
(0 0 0.000729116)
(0 0 0.00071288)
(0 0 0.000696648)
(0 0 0.000680421)
(0 0 0.0006642)
(0 0 0.000647986)
(0 0 0.000631779)
(0 0 0.000615582)
(0 0 0.000599393)
(0 0 0.000583215)
(0 0 0.000567046)
(0 0 0.000550889)
(0 0 0.000534743)
(0 0 0.000518608)
(0 0 0.000502486)
(0 0 0.000486375)
(0 0 0.000470277)
(0 0 0.000454191)
(0 0 0.000438118)
(0 0 0.000422057)
(0 0 0.000406009)
(0 0 0.000389972)
(0 0 0.000373949)
(0 0 0.000357937)
(0 0 0.000341936)
(0 0 0.000325948)
(0 0 0.00030997)
(0 0 0.000294003)
(0 0 0.000278047)
(0 0 0.000262101)
(0 0 0.000246165)
(0 0 0.000230238)
(0 0 0.00021432)
(0 0 0.00019841)
(0 0 0.000182508)
(0 0 0.000166613)
(0 0 0.000150725)
(0 0 0.000134842)
(0 0 0.000118965)
(0 0 0.000103093)
(0 0 8.72257e-05)
(0 0 7.13616e-05)
(0 0 5.55004e-05)
(0 0 3.96415e-05)
(0 0 2.37842e-05)
(0 0 7.92797e-06)
(0 0 2.64904e-05)
(0 0 7.94725e-05)
(0 0 0.000132459)
(0 0 0.000185452)
(0 0 0.000238454)
(0 0 0.000291468)
(0 0 0.000344497)
(0 0 0.000397543)
(0 0 0.000450608)
(0 0 0.000503695)
(0 0 0.000556807)
(0 0 0.000609945)
(0 0 0.000663111)
(0 0 0.000716309)
(0 0 0.000769538)
(0 0 0.000822802)
(0 0 0.000876102)
(0 0 0.000929439)
(0 0 0.000982815)
(0 0 0.00103623)
(0 0 0.00108969)
(0 0 0.00114318)
(0 0 0.00119672)
(0 0 0.00125031)
(0 0 0.00130393)
(0 0 0.0013576)
(0 0 0.00141131)
(0 0 0.00146506)
(0 0 0.00151885)
(0 0 0.00157268)
(0 0 0.00162655)
(0 0 0.00168045)
(0 0 0.00173439)
(0 0 0.00178836)
(0 0 0.00184235)
(0 0 0.00189638)
(0 0 0.00195042)
(0 0 0.00200448)
(0 0 0.00205856)
(0 0 0.00211265)
(0 0 0.00216674)
(0 0 0.00222083)
(0 0 0.00227491)
(0 0 0.00232897)
(0 0 0.00238302)
(0 0 0.00243704)
(0 0 0.00249102)
(0 0 0.00254496)
(0 0 0.00259884)
(0 0 0.00265267)
(0 0 0.00270642)
(0 0 0.00276008)
(0 0 0.00281366)
(0 0 0.00286713)
(0 0 0.00292048)
(0 0 0.00297371)
(0 0 0.00302679)
(0 0 0.00307972)
(0 0 0.00313248)
(0 0 0.00318506)
(0 0 0.00323743)
(0 0 0.00328959)
(0 0 0.00334152)
(0 0 0.0033932)
(0 0 0.00344462)
(0 0 0.00349576)
(0 0 0.00354659)
(0 0 0.0035971)
(0 0 0.00364727)
(0 0 0.00369709)
(0 0 0.00374652)
(0 0 0.00379556)
(0 0 0.00384417)
(0 0 0.00389235)
(0 0 0.00394005)
(0 0 0.00398727)
(0 0 0.00403399)
(0 0 0.00408017)
(0 0 0.00412579)
(0 0 0.00417084)
(0 0 0.00421529)
(0 0 0.00425911)
(0 0 0.00430228)
(0 0 0.00434477)
(0 0 0.00438657)
(0 0 0.00442765)
(0 0 0.00446798)
(0 0 0.00450755)
(0 0 0.00454632)
(0 0 0.00458427)
(0 0 0.00462139)
(0 0 0.00465763)
(0 0 0.004693)
(0 0 0.00472745)
(0 0 0.00476097)
(0 0 0.00479354)
(0 0 0.00482513)
(0 0 0.00485572)
(0 0 0.0048853)
(0 0 0.00491384)
(0 0 0.00494132)
(0 0 0.00496773)
(0 0 0.00499305)
(0 0 0.00501726)
(0 0 0.00504034)
(0 0 0.00506228)
(0 0 0.00508306)
(0 0 0.00510267)
(0 0 0.0051211)
(0 0 0.00513834)
(0 0 0.00515436)
(0 0 0.00516918)
(0 0 0.00518277)
(0 0 0.00519512)
(0 0 0.00520624)
(0 0 0.00521611)
(0 0 0.00522473)
(0 0 0.0052321)
(0 0 0.00523821)
(0 0 0.00524306)
(0 0 0.00524666)
(0 0 0.005249)
(0 0 0.00525008)
(0 0 0.00524991)
(0 0 0.0052485)
(0 0 0.00524584)
(0 0 0.00524194)
(0 0 0.00523681)
(0 0 0.00523046)
(0 0 0.00522289)
(0 0 0.00521413)
(0 0 0.00520416)
(0 0 0.00519302)
(0 0 0.00518071)
(0 0 0.00516725)
(0 0 0.00515264)
(0 0 0.00513691)
(0 0 0.00512006)
(0 0 0.00510212)
(0 0 0.00508311)
(0 0 0.00506304)
(0 0 0.00504192)
(0 0 0.00501978)
(0 0 0.00499664)
(0 0 0.00497251)
(0 0 0.00494742)
(0 0 0.00492138)
(0 0 0.00489442)
(0 0 0.00486656)
(0 0 0.00483782)
(0 0 0.00480821)
(0 0 0.00477777)
(0 0 0.00474651)
(0 0 0.00471445)
(0 0 0.00468162)
(0 0 0.00464804)
(0 0 0.00461373)
(0 0 0.00457872)
(0 0 0.00454301)
(0 0 0.00450664)
(0 0 0.00446963)
(0 0 0.004432)
(0 0 0.00439376)
(0 0 0.00435495)
(0 0 0.00431558)
(0 0 0.00427567)
(0 0 0.00423524)
(0 0 0.00419431)
(0 0 0.00415291)
(0 0 0.00411104)
(0 0 0.00406874)
(0 0 0.00402602)
(0 0 0.00398289)
(0 0 0.00393938)
(0 0 0.0038955)
(0 0 0.00385127)
(0 0 0.00380671)
(0 0 0.00376184)
(0 0 0.00371666)
(0 0 0.0036712)
(0 0 0.00362547)
(0 0 0.00357949)
(0 0 0.00353326)
(0 0 0.00348681)
(0 0 0.00344015)
(0 0 0.00339329)
(0 0 0.00334624)
(0 0 0.00329902)
(0 0 0.00325164)
(0 0 0.0032041)
(0 0 0.00315643)
(0 0 0.00310863)
(0 0 0.0030607)
(0 0 0.00301267)
(0 0 0.00296455)
(0 0 0.00291633)
(0 0 0.00286803)
(0 0 0.00281966)
(0 0 0.00277122)
(0 0 0.00272272)
(0 0 0.00267418)
(0 0 0.00262559)
(0 0 0.00257697)
(0 0 0.00252831)
(0 0 0.00247963)
(0 0 0.00243094)
(0 0 0.00238223)
(0 0 0.00233351)
(0 0 0.00228478)
(0 0 0.00223606)
(0 0 0.00218734)
(0 0 0.00213863)
(0 0 0.00208994)
(0 0 0.00204125)
(0 0 0.00199259)
(0 0 0.00194395)
(0 0 0.00189533)
(0 0 0.00184673)
(0 0 0.00179817)
(0 0 0.00174963)
(0 0 0.00170113)
(0 0 0.00165265)
(0 0 0.00160422)
(0 0 0.00155581)
(0 0 0.00150744)
(0 0 0.00145911)
(0 0 0.00141082)
(0 0 0.00136256)
(0 0 0.00131434)
(0 0 0.00126616)
(0 0 0.00121801)
(0 0 0.0011699)
(0 0 0.00112183)
(0 0 0.0010738)
(0 0 0.0010258)
(0 0 0.00097783)
(0 0 0.000929898)
(0 0 0.000881999)
(0 0 0.000834131)
(0 0 0.000786294)
(0 0 0.000738486)
(0 0 0.000690705)
(0 0 0.000642951)
(0 0 0.000595222)
(0 0 0.000547516)
(0 0 0.000499832)
(0 0 0.000452167)
(0 0 0.000404521)
(0 0 0.000356891)
(0 0 0.000309276)
(0 0 0.000261673)
(0 0 0.000214082)
(0 0 0.000166499)
(0 0 0.000118923)
(0 0 7.13517e-05)
(0 0 2.37836e-05)
(0 0 4.41491e-05)
(0 0 0.00013245)
(0 0 0.000220757)
(0 0 0.000309076)
(0 0 0.00039741)
(0 0 0.000485764)
(0 0 0.000574142)
(0 0 0.000662549)
(0 0 0.000750989)
(0 0 0.000839465)
(0 0 0.000927982)
(0 0 0.00101654)
(0 0 0.00110515)
(0 0 0.00119381)
(0 0 0.00128253)
(0 0 0.0013713)
(0 0 0.00146013)
(0 0 0.00154902)
(0 0 0.00163798)
(0 0 0.00172701)
(0 0 0.0018161)
(0 0 0.00190526)
(0 0 0.00199449)
(0 0 0.0020838)
(0 0 0.00217317)
(0 0 0.00226262)
(0 0 0.00235213)
(0 0 0.00244172)
(0 0 0.00253137)
(0 0 0.00262109)
(0 0 0.00271087)
(0 0 0.00280071)
(0 0 0.00289061)
(0 0 0.00298056)
(0 0 0.00307056)
(0 0 0.0031606)
(0 0 0.00325068)
(0 0 0.00334079)
(0 0 0.00343093)
(0 0 0.00352107)
(0 0 0.00361123)
(0 0 0.00370138)
(0 0 0.00379153)
(0 0 0.00388165)
(0 0 0.00397173)
(0 0 0.00406177)
(0 0 0.00415175)
(0 0 0.00424165)
(0 0 0.00433147)
(0 0 0.00442119)
(0 0 0.00451078)
(0 0 0.00460024)
(0 0 0.00468955)
(0 0 0.00477868)
(0 0 0.00486762)
(0 0 0.00495634)
(0 0 0.00504483)
(0 0 0.00513306)
(0 0 0.00522101)
(0 0 0.00530865)
(0 0 0.00539596)
(0 0 0.00548291)
(0 0 0.00556948)
(0 0 0.00565564)
(0 0 0.00574135)
(0 0 0.00582659)
(0 0 0.00591134)
(0 0 0.00599555)
(0 0 0.00607919)
(0 0 0.00616224)
(0 0 0.00624465)
(0 0 0.0063264)
(0 0 0.00640745)
(0 0 0.00648776)
(0 0 0.0065673)
(0 0 0.00664602)
(0 0 0.0067239)
(0 0 0.0068009)
(0 0 0.00687696)
(0 0 0.00695207)
(0 0 0.00702617)
(0 0 0.00709923)
(0 0 0.00717121)
(0 0 0.00724206)
(0 0 0.00731176)
(0 0 0.00738025)
(0 0 0.0074475)
(0 0 0.00751346)
(0 0 0.00757811)
(0 0 0.00764139)
(0 0 0.00770327)
(0 0 0.00776371)
(0 0 0.00782267)
(0 0 0.00788012)
(0 0 0.00793601)
(0 0 0.00799031)
(0 0 0.00804298)
(0 0 0.008094)
(0 0 0.00814332)
(0 0 0.0081909)
(0 0 0.00823673)
(0 0 0.00828077)
(0 0 0.00832298)
(0 0 0.00836334)
(0 0 0.00840183)
(0 0 0.00843841)
(0 0 0.00847306)
(0 0 0.00850577)
(0 0 0.00853649)
(0 0 0.00856523)
(0 0 0.00859196)
(0 0 0.00861666)
(0 0 0.00863931)
(0 0 0.00865991)
(0 0 0.00867845)
(0 0 0.0086949)
(0 0 0.00870928)
(0 0 0.00872156)
(0 0 0.00873175)
(0 0 0.00873984)
(0 0 0.00874583)
(0 0 0.00874973)
(0 0 0.00875153)
(0 0 0.00875124)
(0 0 0.00874888)
(0 0 0.00874444)
(0 0 0.00873793)
(0 0 0.00872937)
(0 0 0.00871878)
(0 0 0.00870616)
(0 0 0.00869153)
(0 0 0.00867492)
(0 0 0.00865633)
(0 0 0.0086358)
(0 0 0.00861334)
(0 0 0.00858898)
(0 0 0.00856274)
(0 0 0.00853465)
(0 0 0.00850474)
(0 0 0.00847303)
(0 0 0.00843955)
(0 0 0.00840434)
(0 0 0.00836742)
(0 0 0.00832882)
(0 0 0.00828859)
(0 0 0.00824674)
(0 0 0.00820333)
(0 0 0.00815837)
(0 0 0.00811191)
(0 0 0.00806398)
(0 0 0.00801462)
(0 0 0.00796385)
(0 0 0.00791173)
(0 0 0.00785828)
(0 0 0.00780354)
(0 0 0.00774755)
(0 0 0.00769034)
(0 0 0.00763196)
(0 0 0.00757242)
(0 0 0.00751179)
(0 0 0.00745007)
(0 0 0.00738733)
(0 0 0.00732358)
(0 0 0.00725887)
(0 0 0.00719322)
(0 0 0.00712668)
(0 0 0.00705928)
(0 0 0.00699105)
(0 0 0.00692202)
(0 0 0.00685223)
(0 0 0.0067817)
(0 0 0.00671047)
(0 0 0.00663858)
(0 0 0.00656604)
(0 0 0.00649289)
(0 0 0.00641916)
(0 0 0.00634487)
(0 0 0.00627006)
(0 0 0.00619475)
(0 0 0.00611897)
(0 0 0.00604273)
(0 0 0.00596608)
(0 0 0.00588902)
(0 0 0.00581159)
(0 0 0.00573381)
(0 0 0.00565569)
(0 0 0.00557726)
(0 0 0.00549855)
(0 0 0.00541956)
(0 0 0.00534032)
(0 0 0.00526086)
(0 0 0.00518117)
(0 0 0.00510129)
(0 0 0.00502123)
(0 0 0.00494101)
(0 0 0.00486064)
(0 0 0.00478013)
(0 0 0.0046995)
(0 0 0.00461876)
(0 0 0.00453793)
(0 0 0.00445701)
(0 0 0.00437603)
(0 0 0.00429498)
(0 0 0.00421388)
(0 0 0.00413274)
(0 0 0.00405158)
(0 0 0.00397039)
(0 0 0.00388918)
(0 0 0.00380797)
(0 0 0.00372676)
(0 0 0.00364556)
(0 0 0.00356438)
(0 0 0.00348321)
(0 0 0.00340207)
(0 0 0.00332096)
(0 0 0.00323989)
(0 0 0.00315885)
(0 0 0.00307786)
(0 0 0.00299691)
(0 0 0.00291602)
(0 0 0.00283517)
(0 0 0.00275438)
(0 0 0.00267365)
(0 0 0.00259298)
(0 0 0.00251236)
(0 0 0.00243181)
(0 0 0.00235132)
(0 0 0.00227089)
(0 0 0.00219053)
(0 0 0.00211022)
(0 0 0.00202998)
(0 0 0.0019498)
(0 0 0.00186968)
(0 0 0.00178962)
(0 0 0.00170962)
(0 0 0.00162968)
(0 0 0.00154979)
(0 0 0.00146996)
(0 0 0.00139018)
(0 0 0.00131046)
(0 0 0.00123078)
(0 0 0.00115115)
(0 0 0.00107156)
(0 0 0.00099201)
(0 0 0.000912502)
(0 0 0.00083303)
(0 0 0.000753592)
(0 0 0.000674183)
(0 0 0.000594802)
(0 0 0.000515446)
(0 0 0.00043611)
(0 0 0.000356793)
(0 0 0.00027749)
(0 0 0.000198199)
(0 0 0.000118916)
(0 0 3.96382e-05)
(0 0 6.18056e-05)
(0 0 0.00018542)
(0 0 0.000309044)
(0 0 0.000432684)
(0 0 0.000556345)
(0 0 0.000680035)
(0 0 0.000803759)
(0 0 0.000927523)
(0 0 0.00105133)
(0 0 0.00117519)
(0 0 0.00129911)
(0 0 0.00142309)
(0 0 0.00154714)
(0 0 0.00167126)
(0 0 0.00179546)
(0 0 0.00191973)
(0 0 0.00204409)
(0 0 0.00216854)
(0 0 0.00229308)
(0 0 0.00241771)
(0 0 0.00254244)
(0 0 0.00266727)
(0 0 0.00279219)
(0 0 0.00291722)
(0 0 0.00304234)
(0 0 0.00316757)
(0 0 0.00329289)
(0 0 0.00341831)
(0 0 0.00354383)
(0 0 0.00366944)
(0 0 0.00379513)
(0 0 0.00392092)
(0 0 0.00404678)
(0 0 0.00417272)
(0 0 0.00429873)
(0 0 0.00442479)
(0 0 0.00455091)
(0 0 0.00467708)
(0 0 0.00480327)
(0 0 0.00492949)
(0 0 0.00505573)
(0 0 0.00518195)
(0 0 0.00530817)
(0 0 0.00543435)
(0 0 0.00556049)
(0 0 0.00568656)
(0 0 0.00581255)
(0 0 0.00593844)
(0 0 0.00606421)
(0 0 0.00618983)
(0 0 0.00631529)
(0 0 0.00644056)
(0 0 0.00656561)
(0 0 0.00669042)
(0 0 0.00681497)
(0 0 0.00693921)
(0 0 0.00706312)
(0 0 0.00718668)
(0 0 0.00730984)
(0 0 0.00743257)
(0 0 0.00755484)
(0 0 0.00767661)
(0 0 0.00779785)
(0 0 0.00791851)
(0 0 0.00803855)
(0 0 0.00815793)
(0 0 0.00827662)
(0 0 0.00839456)
(0 0 0.0085117)
(0 0 0.00862802)
(0 0 0.00874345)
(0 0 0.00885794)
(0 0 0.00897146)
(0 0 0.00908395)
(0 0 0.00919535)
(0 0 0.00930562)
(0 0 0.0094147)
(0 0 0.00952255)
(0 0 0.0096291)
(0 0 0.0097343)
(0 0 0.0098381)
(0 0 0.00994044)
(0 0 0.0100413)
(0 0 0.0101405)
(0 0 0.0102381)
(0 0 0.0103341)
(0 0 0.0104283)
(0 0 0.0105207)
(0 0 0.0106113)
(0 0 0.0106999)
(0 0 0.0107866)
(0 0 0.0108713)
(0 0 0.0109539)
(0 0 0.0110343)
(0 0 0.0111126)
(0 0 0.0111887)
(0 0 0.0112625)
(0 0 0.011334)
(0 0 0.0114031)
(0 0 0.0114697)
(0 0 0.0115339)
(0 0 0.0115956)
(0 0 0.0116548)
(0 0 0.0117113)
(0 0 0.0117652)
(0 0 0.0118165)
(0 0 0.011865)
(0 0 0.0119108)
(0 0 0.0119539)
(0 0 0.0119941)
(0 0 0.0120316)
(0 0 0.0120662)
(0 0 0.0120979)
(0 0 0.0121268)
(0 0 0.0121527)
(0 0 0.0121758)
(0 0 0.0121959)
(0 0 0.0122131)
(0 0 0.0122274)
(0 0 0.0122387)
(0 0 0.0122471)
(0 0 0.0122525)
(0 0 0.0122551)
(0 0 0.0122547)
(0 0 0.0122513)
(0 0 0.0122451)
(0 0 0.012236)
(0 0 0.012224)
(0 0 0.0122091)
(0 0 0.0121914)
(0 0 0.0121709)
(0 0 0.0121476)
(0 0 0.0121216)
(0 0 0.0120928)
(0 0 0.0120613)
(0 0 0.0120272)
(0 0 0.0119904)
(0 0 0.0119511)
(0 0 0.0119091)
(0 0 0.0118647)
(0 0 0.0118178)
(0 0 0.0117685)
(0 0 0.0117167)
(0 0 0.0116626)
(0 0 0.0116063)
(0 0 0.0115476)
(0 0 0.0114868)
(0 0 0.0114238)
(0 0 0.0113587)
(0 0 0.0112916)
(0 0 0.0112224)
(0 0 0.0111513)
(0 0 0.0110783)
(0 0 0.0110034)
(0 0 0.0109267)
(0 0 0.0108483)
(0 0 0.0107681)
(0 0 0.0106863)
(0 0 0.0106029)
(0 0 0.010518)
(0 0 0.0104316)
(0 0 0.0103437)
(0 0 0.0102544)
(0 0 0.0101637)
(0 0 0.0100718)
(0 0 0.00997857)
(0 0 0.00988416)
(0 0 0.00978858)
(0 0 0.0096919)
(0 0 0.00959414)
(0 0 0.00949536)
(0 0 0.0093956)
(0 0 0.0092949)
(0 0 0.00919331)
(0 0 0.00909086)
(0 0 0.0089876)
(0 0 0.00888356)
(0 0 0.00877879)
(0 0 0.00867332)
(0 0 0.00856718)
(0 0 0.00846042)
(0 0 0.00835307)
(0 0 0.00824516)
(0 0 0.00813672)
(0 0 0.00802779)
(0 0 0.0079184)
(0 0 0.00780857)
(0 0 0.00769834)
(0 0 0.00758774)
(0 0 0.00747678)
(0 0 0.0073655)
(0 0 0.00725392)
(0 0 0.00714207)
(0 0 0.00702996)
(0 0 0.00691762)
(0 0 0.00680508)
(0 0 0.00669235)
(0 0 0.00657945)
(0 0 0.0064664)
(0 0 0.00635322)
(0 0 0.00623992)
(0 0 0.00612652)
(0 0 0.00601304)
(0 0 0.00589949)
(0 0 0.00578589)
(0 0 0.00567224)
(0 0 0.00555856)
(0 0 0.00544486)
(0 0 0.00533116)
(0 0 0.00521746)
(0 0 0.00510377)
(0 0 0.0049901)
(0 0 0.00487646)
(0 0 0.00476286)
(0 0 0.0046493)
(0 0 0.00453579)
(0 0 0.00442233)
(0 0 0.00430894)
(0 0 0.00419561)
(0 0 0.00408235)
(0 0 0.00396917)
(0 0 0.00385606)
(0 0 0.00374303)
(0 0 0.00363009)
(0 0 0.00351723)
(0 0 0.00340445)
(0 0 0.00329176)
(0 0 0.00317916)
(0 0 0.00306665)
(0 0 0.00295422)
(0 0 0.00284188)
(0 0 0.00272963)
(0 0 0.00261747)
(0 0 0.00250539)
(0 0 0.00239339)
(0 0 0.00228147)
(0 0 0.00216964)
(0 0 0.00205787)
(0 0 0.00194619)
(0 0 0.00183457)
(0 0 0.00172302)
(0 0 0.00161154)
(0 0 0.00150012)
(0 0 0.00138876)
(0 0 0.00127745)
(0 0 0.0011662)
(0 0 0.00105499)
(0 0 0.000943818)
(0 0 0.000832689)
(0 0 0.000721594)
(0 0 0.000610529)
(0 0 0.000499489)
(0 0 0.00038847)
(0 0 0.000277467)
(0 0 0.000166476)
(0 0 5.54911e-05)
(0 0 7.9459e-05)
(0 0 0.000238381)
(0 0 0.000397315)
(0 0 0.00055627)
(0 0 0.000715253)
(0 0 0.000874272)
(0 0 0.00103334)
(0 0 0.00119245)
(0 0 0.00135163)
(0 0 0.00151087)
(0 0 0.00167018)
(0 0 0.00182958)
(0 0 0.00198906)
(0 0 0.00214863)
(0 0 0.00230831)
(0 0 0.00246808)
(0 0 0.00262797)
(0 0 0.00278797)
(0 0 0.00294809)
(0 0 0.00310832)
(0 0 0.00326869)
(0 0 0.00342917)
(0 0 0.00358979)
(0 0 0.00375054)
(0 0 0.00391141)
(0 0 0.00407242)
(0 0 0.00423355)
(0 0 0.00439481)
(0 0 0.00455619)
(0 0 0.00471769)
(0 0 0.00487931)
(0 0 0.00504104)
(0 0 0.00520288)
(0 0 0.00536481)
(0 0 0.00552683)
(0 0 0.00568893)
(0 0 0.0058511)
(0 0 0.00601333)
(0 0 0.0061756)
(0 0 0.0063379)
(0 0 0.00650022)
(0 0 0.00666254)
(0 0 0.00682484)
(0 0 0.0069871)
(0 0 0.00714931)
(0 0 0.00731143)
(0 0 0.00747345)
(0 0 0.00763534)
(0 0 0.00779708)
(0 0 0.00795864)
(0 0 0.00811998)
(0 0 0.00828109)
(0 0 0.00844192)
(0 0 0.00860244)
(0 0 0.00876261)
(0 0 0.0089224)
(0 0 0.00908178)
(0 0 0.00924069)
(0 0 0.0093991)
(0 0 0.00955696)
(0 0 0.00971423)
(0 0 0.00987085)
(0 0 0.0100268)
(0 0 0.010182)
(0 0 0.0103364)
(0 0 0.01049)
(0 0 0.0106426)
(0 0 0.0107944)
(0 0 0.0109451)
(0 0 0.0110947)
(0 0 0.0112432)
(0 0 0.0113905)
(0 0 0.0115365)
(0 0 0.0116812)
(0 0 0.0118245)
(0 0 0.0119664)
(0 0 0.0121067)
(0 0 0.0122455)
(0 0 0.0123826)
(0 0 0.0125179)
(0 0 0.0126515)
(0 0 0.0127832)
(0 0 0.0129129)
(0 0 0.0130406)
(0 0 0.0131662)
(0 0 0.0132897)
(0 0 0.0134109)
(0 0 0.0135298)
(0 0 0.0136463)
(0 0 0.0137604)
(0 0 0.0138719)
(0 0 0.0139809)
(0 0 0.0140872)
(0 0 0.0141907)
(0 0 0.0142915)
(0 0 0.0143894)
(0 0 0.0144844)
(0 0 0.0145763)
(0 0 0.0146652)
(0 0 0.014751)
(0 0 0.0148336)
(0 0 0.014913)
(0 0 0.0149891)
(0 0 0.0150619)
(0 0 0.0151313)
(0 0 0.0151972)
(0 0 0.0152597)
(0 0 0.0153187)
(0 0 0.0153741)
(0 0 0.0154259)
(0 0 0.015474)
(0 0 0.0155186)
(0 0 0.0155594)
(0 0 0.0155965)
(0 0 0.0156299)
(0 0 0.0156596)
(0 0 0.0156855)
(0 0 0.0157076)
(0 0 0.015726)
(0 0 0.0157405)
(0 0 0.0157513)
(0 0 0.0157583)
(0 0 0.0157615)
(0 0 0.015761)
(0 0 0.0157567)
(0 0 0.0157487)
(0 0 0.0157369)
(0 0 0.0157214)
(0 0 0.0157023)
(0 0 0.0156795)
(0 0 0.0156531)
(0 0 0.0156231)
(0 0 0.0155896)
(0 0 0.0155525)
(0 0 0.015512)
(0 0 0.0154681)
(0 0 0.0154207)
(0 0 0.01537)
(0 0 0.0153161)
(0 0 0.0152589)
(0 0 0.0151985)
(0 0 0.015135)
(0 0 0.0150684)
(0 0 0.0149988)
(0 0 0.0149262)
(0 0 0.0148508)
(0 0 0.0147725)
(0 0 0.0146914)
(0 0 0.0146076)
(0 0 0.0145212)
(0 0 0.0144322)
(0 0 0.0143407)
(0 0 0.0142467)
(0 0 0.0141503)
(0 0 0.0140516)
(0 0 0.0139507)
(0 0 0.0138476)
(0 0 0.0137423)
(0 0 0.013635)
(0 0 0.0135257)
(0 0 0.0134145)
(0 0 0.0133014)
(0 0 0.0131865)
(0 0 0.0130699)
(0 0 0.0129516)
(0 0 0.0128317)
(0 0 0.0127102)
(0 0 0.0125872)
(0 0 0.0124628)
(0 0 0.0123371)
(0 0 0.01221)
(0 0 0.0120817)
(0 0 0.0119521)
(0 0 0.0118214)
(0 0 0.0116896)
(0 0 0.0115568)
(0 0 0.011423)
(0 0 0.0112882)
(0 0 0.0111525)
(0 0 0.011016)
(0 0 0.0108787)
(0 0 0.0107406)
(0 0 0.0106018)
(0 0 0.0104623)
(0 0 0.0103222)
(0 0 0.0101815)
(0 0 0.0100403)
(0 0 0.00989852)
(0 0 0.00975626)
(0 0 0.00961356)
(0 0 0.00947044)
(0 0 0.00932694)
(0 0 0.00918309)
(0 0 0.00903892)
(0 0 0.00889445)
(0 0 0.00874971)
(0 0 0.00860474)
(0 0 0.00845955)
(0 0 0.00831417)
(0 0 0.00816862)
(0 0 0.00802292)
(0 0 0.0078771)
(0 0 0.00773117)
(0 0 0.00758516)
(0 0 0.00743907)
(0 0 0.00729293)
(0 0 0.00714676)
(0 0 0.00700056)
(0 0 0.00685435)
(0 0 0.00670814)
(0 0 0.00656196)
(0 0 0.0064158)
(0 0 0.00626967)
(0 0 0.0061236)
(0 0 0.00597758)
(0 0 0.00583163)
(0 0 0.00568575)
(0 0 0.00553995)
(0 0 0.00539424)
(0 0 0.00524861)
(0 0 0.00510308)
(0 0 0.00495766)
(0 0 0.00481233)
(0 0 0.00466711)
(0 0 0.004522)
(0 0 0.004377)
(0 0 0.00423212)
(0 0 0.00408734)
(0 0 0.00394268)
(0 0 0.00379814)
(0 0 0.0036537)
(0 0 0.00350938)
(0 0 0.00336517)
(0 0 0.00322107)
(0 0 0.00307708)
(0 0 0.00293319)
(0 0 0.0027894)
(0 0 0.00264571)
(0 0 0.00250212)
(0 0 0.00235862)
(0 0 0.00221521)
(0 0 0.00207188)
(0 0 0.00192863)
(0 0 0.00178546)
(0 0 0.00164235)
(0 0 0.00149931)
(0 0 0.00135634)
(0 0 0.00121341)
(0 0 0.00107054)
(0 0 0.000927713)
(0 0 0.000784923)
(0 0 0.000642165)
(0 0 0.000499434)
(0 0 0.000356723)
(0 0 0.000214028)
(0 0 7.13417e-05)
(0 0 9.71082e-05)
(0 0 0.00029133)
(0 0 0.000485566)
(0 0 0.000679828)
(0 0 0.000874124)
(0 0 0.00106847)
(0 0 0.00126286)
(0 0 0.00145732)
(0 0 0.00165185)
(0 0 0.00184647)
(0 0 0.00204117)
(0 0 0.00223597)
(0 0 0.00243088)
(0 0 0.00262591)
(0 0 0.00282105)
(0 0 0.00301632)
(0 0 0.00321173)
(0 0 0.00340728)
(0 0 0.00360297)
(0 0 0.00379881)
(0 0 0.0039948)
(0 0 0.00419095)
(0 0 0.00438726)
(0 0 0.00458372)
(0 0 0.00478035)
(0 0 0.00497714)
(0 0 0.00517408)
(0 0 0.00537118)
(0 0 0.00556843)
(0 0 0.00576583)
(0 0 0.00596338)
(0 0 0.00616106)
(0 0 0.00635888)
(0 0 0.00655681)
(0 0 0.00675485)
(0 0 0.006953)
(0 0 0.00715123)
(0 0 0.00734953)
(0 0 0.00754789)
(0 0 0.0077463)
(0 0 0.00794472)
(0 0 0.00814314)
(0 0 0.00834155)
(0 0 0.00853991)
(0 0 0.00873821)
(0 0 0.00893641)
(0 0 0.00913448)
(0 0 0.0093324)
(0 0 0.00953014)
(0 0 0.00972766)
(0 0 0.00992492)
(0 0 0.0101219)
(0 0 0.0103185)
(0 0 0.0105148)
(0 0 0.0107106)
(0 0 0.010906)
(0 0 0.0111009)
(0 0 0.0112952)
(0 0 0.0114889)
(0 0 0.0116819)
(0 0 0.0118742)
(0 0 0.0120658)
(0 0 0.0122565)
(0 0 0.0124463)
(0 0 0.0126351)
(0 0 0.0128229)
(0 0 0.0130096)
(0 0 0.0131952)
(0 0 0.0133795)
(0 0 0.0135625)
(0 0 0.0137441)
(0 0 0.0139242)
(0 0 0.0141029)
(0 0 0.0142799)
(0 0 0.0144552)
(0 0 0.0146287)
(0 0 0.0148004)
(0 0 0.0149701)
(0 0 0.0151378)
(0 0 0.0153034)
(0 0 0.0154667)
(0 0 0.0156278)
(0 0 0.0157865)
(0 0 0.0159428)
(0 0 0.0160964)
(0 0 0.0162475)
(0 0 0.0163958)
(0 0 0.0165413)
(0 0 0.0166838)
(0 0 0.0168234)
(0 0 0.0169599)
(0 0 0.0170932)
(0 0 0.0172232)
(0 0 0.0173499)
(0 0 0.0174732)
(0 0 0.017593)
(0 0 0.0177092)
(0 0 0.0178217)
(0 0 0.0179305)
(0 0 0.0180355)
(0 0 0.0181366)
(0 0 0.0182337)
(0 0 0.0183269)
(0 0 0.0184159)
(0 0 0.0185008)
(0 0 0.0185815)
(0 0 0.0186579)
(0 0 0.0187301)
(0 0 0.0187978)
(0 0 0.0188612)
(0 0 0.0189202)
(0 0 0.0189746)
(0 0 0.0190246)
(0 0 0.01907)
(0 0 0.0191109)
(0 0 0.0191471)
(0 0 0.0191788)
(0 0 0.0192059)
(0 0 0.0192283)
(0 0 0.0192461)
(0 0 0.0192593)
(0 0 0.0192678)
(0 0 0.0192718)
(0 0 0.0192711)
(0 0 0.0192658)
(0 0 0.0192559)
(0 0 0.0192415)
(0 0 0.0192226)
(0 0 0.0191991)
(0 0 0.0191712)
(0 0 0.0191389)
(0 0 0.0191022)
(0 0 0.0190611)
(0 0 0.0190157)
(0 0 0.0189661)
(0 0 0.0189123)
(0 0 0.0188543)
(0 0 0.0187923)
(0 0 0.0187262)
(0 0 0.0186562)
(0 0 0.0185823)
(0 0 0.0185046)
(0 0 0.0184231)
(0 0 0.0183379)
(0 0 0.018249)
(0 0 0.0181567)
(0 0 0.0180609)
(0 0 0.0179617)
(0 0 0.0178591)
(0 0 0.0177534)
(0 0 0.0176445)
(0 0 0.0175325)
(0 0 0.0174175)
(0 0 0.0172996)
(0 0 0.0171788)
(0 0 0.0170553)
(0 0 0.0169291)
(0 0 0.0168004)
(0 0 0.0166691)
(0 0 0.0165354)
(0 0 0.0163993)
(0 0 0.0162609)
(0 0 0.0161204)
(0 0 0.0159777)
(0 0 0.015833)
(0 0 0.0156863)
(0 0 0.0155377)
(0 0 0.0153873)
(0 0 0.0152352)
(0 0 0.0150813)
(0 0 0.0149259)
(0 0 0.0147689)
(0 0 0.0146105)
(0 0 0.0144507)
(0 0 0.0142895)
(0 0 0.014127)
(0 0 0.0139634)
(0 0 0.0137985)
(0 0 0.0136326)
(0 0 0.0134657)
(0 0 0.0132977)
(0 0 0.0131289)
(0 0 0.0129592)
(0 0 0.0127886)
(0 0 0.0126173)
(0 0 0.0124452)
(0 0 0.0122725)
(0 0 0.0120992)
(0 0 0.0119252)
(0 0 0.0117508)
(0 0 0.0115758)
(0 0 0.0114003)
(0 0 0.0112244)
(0 0 0.0110482)
(0 0 0.0108715)
(0 0 0.0106946)
(0 0 0.0105173)
(0 0 0.0103398)
(0 0 0.0101621)
(0 0 0.00998417)
(0 0 0.00980606)
(0 0 0.00962779)
(0 0 0.00944939)
(0 0 0.00927089)
(0 0 0.00909231)
(0 0 0.00891366)
(0 0 0.00873497)
(0 0 0.00855626)
(0 0 0.00837753)
(0 0 0.00819881)
(0 0 0.00802011)
(0 0 0.00784145)
(0 0 0.00766284)
(0 0 0.00748429)
(0 0 0.0073058)
(0 0 0.0071274)
(0 0 0.00694909)
(0 0 0.00677088)
(0 0 0.00659277)
(0 0 0.00641478)
(0 0 0.0062369)
(0 0 0.00605915)
(0 0 0.00588152)
(0 0 0.00570403)
(0 0 0.00552667)
(0 0 0.00534944)
(0 0 0.00517236)
(0 0 0.00499541)
(0 0 0.00481861)
(0 0 0.00464194)
(0 0 0.00446541)
(0 0 0.00428902)
(0 0 0.00411277)
(0 0 0.00393665)
(0 0 0.00376066)
(0 0 0.0035848)
(0 0 0.00340907)
(0 0 0.00323345)
(0 0 0.00305796)
(0 0 0.00288258)
(0 0 0.0027073)
(0 0 0.00253213)
(0 0 0.00235706)
(0 0 0.00218208)
(0 0 0.00200719)
(0 0 0.00183237)
(0 0 0.00165763)
(0 0 0.00148296)
(0 0 0.00130835)
(0 0 0.00113379)
(0 0 0.000959284)
(0 0 0.000784814)
(0 0 0.000610376)
(0 0 0.000435965)
(0 0 0.000261572)
(0 0 8.71893e-05)
(0 0 0.000114752)
(0 0 0.000344263)
(0 0 0.000573792)
(0 0 0.000803351)
(0 0 0.00103295)
(0 0 0.0012626)
(0 0 0.00149232)
(0 0 0.00172212)
(0 0 0.001952)
(0 0 0.00218197)
(0 0 0.00241206)
(0 0 0.00264226)
(0 0 0.00287259)
(0 0 0.00310306)
(0 0 0.00333367)
(0 0 0.00356443)
(0 0 0.00379535)
(0 0 0.00402644)
(0 0 0.0042577)
(0 0 0.00448914)
(0 0 0.00472077)
(0 0 0.00495257)
(0 0 0.00518457)
(0 0 0.00541675)
(0 0 0.00564913)
(0 0 0.0058817)
(0 0 0.00611445)
(0 0 0.0063474)
(0 0 0.00658053)
(0 0 0.00681383)
(0 0 0.00704731)
(0 0 0.00728095)
(0 0 0.00751475)
(0 0 0.0077487)
(0 0 0.00798278)
(0 0 0.00821698)
(0 0 0.00845128)
(0 0 0.00868568)
(0 0 0.00892015)
(0 0 0.00915467)
(0 0 0.00938921)
(0 0 0.00962377)
(0 0 0.0098583)
(0 0 0.0100928)
(0 0 0.0103272)
(0 0 0.0105615)
(0 0 0.0107957)
(0 0 0.0110296)
(0 0 0.0112634)
(0 0 0.0114969)
(0 0 0.0117302)
(0 0 0.011963)
(0 0 0.0121955)
(0 0 0.0124276)
(0 0 0.0126591)
(0 0 0.0128901)
(0 0 0.0131206)
(0 0 0.0133503)
(0 0 0.0135794)
(0 0 0.0138076)
(0 0 0.014035)
(0 0 0.0142615)
(0 0 0.0144871)
(0 0 0.0147115)
(0 0 0.0149348)
(0 0 0.0151569)
(0 0 0.0153778)
(0 0 0.0155972)
(0 0 0.0158152)
(0 0 0.0160317)
(0 0 0.0162465)
(0 0 0.0164596)
(0 0 0.0166708)
(0 0 0.0168802)
(0 0 0.0170876)
(0 0 0.0172929)
(0 0 0.017496)
(0 0 0.0176967)
(0 0 0.0178951)
(0 0 0.018091)
(0 0 0.0182843)
(0 0 0.0184749)
(0 0 0.0186626)
(0 0 0.0188475)
(0 0 0.0190293)
(0 0 0.019208)
(0 0 0.0193835)
(0 0 0.0195556)
(0 0 0.0197243)
(0 0 0.0198895)
(0 0 0.020051)
(0 0 0.0202087)
(0 0 0.0203626)
(0 0 0.0205126)
(0 0 0.0206585)
(0 0 0.0208002)
(0 0 0.0209377)
(0 0 0.0210709)
(0 0 0.0211996)
(0 0 0.0213238)
(0 0 0.0214435)
(0 0 0.0215584)
(0 0 0.0216686)
(0 0 0.021774)
(0 0 0.0218745)
(0 0 0.02197)
(0 0 0.0220604)
(0 0 0.0221458)
(0 0 0.022226)
(0 0 0.022301)
(0 0 0.0223708)
(0 0 0.0224352)
(0 0 0.0224943)
(0 0 0.0225481)
(0 0 0.0225964)
(0 0 0.0226393)
(0 0 0.0226768)
(0 0 0.0227088)
(0 0 0.0227353)
(0 0 0.0227563)
(0 0 0.0227719)
(0 0 0.022782)
(0 0 0.0227866)
(0 0 0.0227858)
(0 0 0.0227795)
(0 0 0.0227678)
(0 0 0.0227507)
(0 0 0.0227282)
(0 0 0.0227004)
(0 0 0.0226674)
(0 0 0.0226291)
(0 0 0.0225855)
(0 0 0.0225369)
(0 0 0.0224832)
(0 0 0.0224244)
(0 0 0.0223607)
(0 0 0.022292)
(0 0 0.0222186)
(0 0 0.0221404)
(0 0 0.0220575)
(0 0 0.0219699)
(0 0 0.0218779)
(0 0 0.0217814)
(0 0 0.0216806)
(0 0 0.0215754)
(0 0 0.0214661)
(0 0 0.0213527)
(0 0 0.0212353)
(0 0 0.0211139)
(0 0 0.0209887)
(0 0 0.0208598)
(0 0 0.0207273)
(0 0 0.0205912)
(0 0 0.0204517)
(0 0 0.0203088)
(0 0 0.0201626)
(0 0 0.0200133)
(0 0 0.0198609)
(0 0 0.0197056)
(0 0 0.0195474)
(0 0 0.0193864)
(0 0 0.0192227)
(0 0 0.0190564)
(0 0 0.0188876)
(0 0 0.0187164)
(0 0 0.0185428)
(0 0 0.0183671)
(0 0 0.0181892)
(0 0 0.0180092)
(0 0 0.0178272)
(0 0 0.0176434)
(0 0 0.0174577)
(0 0 0.0172703)
(0 0 0.0170812)
(0 0 0.0168906)
(0 0 0.0166985)
(0 0 0.0165049)
(0 0 0.01631)
(0 0 0.0161137)
(0 0 0.0159163)
(0 0 0.0157177)
(0 0 0.015518)
(0 0 0.0153173)
(0 0 0.0151156)
(0 0 0.0149131)
(0 0 0.0147096)
(0 0 0.0145054)
(0 0 0.0143004)
(0 0 0.0140948)
(0 0 0.0138885)
(0 0 0.0136816)
(0 0 0.0134741)
(0 0 0.0132662)
(0 0 0.0130578)
(0 0 0.012849)
(0 0 0.0126398)
(0 0 0.0124302)
(0 0 0.0122204)
(0 0 0.0120103)
(0 0 0.0117999)
(0 0 0.0115893)
(0 0 0.0113786)
(0 0 0.0111677)
(0 0 0.0109567)
(0 0 0.0107456)