/*--------------------------------*- C++ -*----------------------------------*\
| =========                 |                                                 |
| \\      /  F ield         | OpenFOAM: The Open Source CFD Toolbox           |
|  \\    /   O peration     | Version:  v2012                                 |
|   \\  /    A nd           | Website:  www.openfoam.com                      |
|    \\/     M anipulation  |                                                 |
\*---------------------------------------------------------------------------*/
FoamFile
{
    version     2.0;
    format      ascii;
    class       surfaceScalarField;
    location    "4";
    object      phi;
}
// * * * * * * * * * * * * * * * * * * * * * * * * * * * * * * * * * * * * * //

dimensions      [0 3 -1 0 0 0 0];
oriented        oriented;


internalField   nonuniform List<scalar> 
130560
(
3.57356e-06
-3.57356e-06
7.14693e-06
-3.57337e-06
1.07199e-05
-3.57299e-06
1.42923e-05
-3.57243e-06
1.7864e-05
-3.57167e-06
2.14348e-05
-3.57073e-06
2.50043e-05
-3.56958e-06
2.85726e-05
-3.56824e-06
3.21393e-05
-3.56669e-06
3.57042e-05
-3.56494e-06
3.92672e-05
-3.56297e-06
4.2828e-05
-3.56078e-06
4.63863e-05
-3.55836e-06
4.9942e-05
-3.55571e-06
5.34948e-05
-3.55282e-06
5.70445e-05
-3.54968e-06
6.05908e-05
-3.54628e-06
6.41334e-05
-3.54261e-06
6.76721e-05
-3.53866e-06
7.12065e-05
-3.53443e-06
7.47364e-05
-3.5299e-06
7.82615e-05
-3.52506e-06
8.17813e-05
-3.5199e-06
8.52957e-05
-3.5144e-06
8.88043e-05
-3.50856e-06
9.23067e-05
-3.50236e-06
9.58025e-05
-3.49579e-06
9.92913e-05
-3.48883e-06
0.000102773
-3.48147e-06
0.000106246
-3.4737e-06
0.000109712
-3.4655e-06
0.000113169
-3.45686e-06
0.000116617
-3.44775e-06
0.000120055
-3.43817e-06
0.000123483
-3.42811e-06
0.0001269
-3.41753e-06
0.000130307
-3.40644e-06
0.000133702
-3.3948e-06
0.000137084
-3.38262e-06
0.000140454
-3.36986e-06
0.000143811
-3.35651e-06
0.000147153
-3.34257e-06
0.000150481
-3.32801e-06
0.000153794
-3.31281e-06
0.000157091
-3.29696e-06
0.000160371
-3.28045e-06
0.000163635
-3.26326e-06
0.00016688
-3.24537e-06
0.000170107
-3.22677e-06
0.000173314
-3.20744e-06
0.000176502
-3.18738e-06
0.000179668
-3.16657e-06
0.000182813
-3.14498e-06
0.000185936
-3.12263e-06
0.000189035
-3.09947e-06
0.000192111
-3.07552e-06
0.000195162
-3.05076e-06
0.000198187
-3.02517e-06
0.000201185
-2.99875e-06
0.000204157
-2.97149e-06
0.0002071
-2.94338e-06
0.000210015
-2.91442e-06
0.000212899
-2.88459e-06
0.000215753
-2.85389e-06
0.000218576
-2.82233e-06
0.000221365
-2.78989e-06
0.000224122
-2.75657e-06
0.000226844
-2.72237e-06
0.000229532
-2.6873e-06
0.000232183
-2.65135e-06
0.000234798
-2.61452e-06
0.000237374
-2.57682e-06
0.000239913
-2.53825e-06
0.000242411
-2.49881e-06
0.00024487
-2.45852e-06
0.000247287
-2.41738e-06
0.000249663
-2.3754e-06
0.000251995
-2.33259e-06
0.000254284
-2.28897e-06
0.000256529
-2.24453e-06
0.000258728
-2.1993e-06
0.000260881
-2.15329e-06
0.000262988
-2.10652e-06
0.000265047
-2.05901e-06
0.000267058
-2.01076e-06
0.00026902
-1.96181e-06
0.000270932
-1.91216e-06
0.000272794
-1.86185e-06
0.000274604
-1.8109e-06
0.000276364
-1.75932e-06
0.000278071
-1.70714e-06
0.000279725
-1.65438e-06
0.000281326
-1.60108e-06
0.000282874
-1.54725e-06
0.000284367
-1.49292e-06
0.000285805
-1.43813e-06
0.000287188
-1.3829e-06
0.000288515
-1.32725e-06
0.000289786
-1.27122e-06
0.000291001
-1.21483e-06
0.000292159
-1.15813e-06
0.00029326
-1.10112e-06
0.000294304
-1.04386e-06
0.00029529
-9.86358e-07
0.000296219
-9.28656e-07
0.00029709
-8.70783e-07
0.000297903
-8.12769e-07
0.000298657
-7.54645e-07
0.000299354
-6.9644e-07
0.000299992
-6.38187e-07
0.000300572
-5.79914e-07
0.000301093
-5.21651e-07
0.000301557
-4.63428e-07
0.000301962
-4.05274e-07
0.000302309
-3.47218e-07
0.000302599
-2.89288e-07
0.00030283
-2.31511e-07
0.000303004
-1.73915e-07
0.000303121
-1.16525e-07
0.00030318
-5.93689e-08
0.000303182
-2.47035e-09
0.000303128
5.41458e-08
0.000303018
1.10456e-07
0.000302851
1.66437e-07
0.000302629
2.22067e-07
0.000302352
2.77324e-07
0.00030202
3.32189e-07
0.000301633
3.8664e-07
0.000301192
4.4066e-07
0.000300698
4.9423e-07
0.000300151
5.47333e-07
0.000299551
5.99953e-07
0.000298899
6.52074e-07
0.000298195
7.03682e-07
0.00029744
7.54762e-07
0.000296635
8.05303e-07
0.00029578
8.55292e-07
0.000294875
9.04717e-07
0.000293922
9.53568e-07
0.00029292
1.00184e-06
0.00029187
1.04951e-06
0.000290774
1.09658e-06
0.000289631
1.14305e-06
0.000288442
1.1889e-06
0.000287208
1.23413e-06
0.000285929
1.27874e-06
0.000284606
1.32271e-06
0.00028324
1.36605e-06
0.000281831
1.40875e-06
0.00028038
1.45081e-06
0.000278888
1.49223e-06
0.000277355
1.533e-06
0.000275782
1.57313e-06
0.000274169
1.61261e-06
0.000272518
1.65144e-06
0.000270828
1.68962e-06
0.000269101
1.72716e-06
0.000267337
1.76406e-06
0.000265537
1.80031e-06
0.000263701
1.83591e-06
0.00026183
1.87088e-06
0.000259925
1.90521e-06
0.000257986
1.93891e-06
0.000256014
1.97197e-06
0.00025401
2.00441e-06
0.000251973
2.03622e-06
0.000249906
2.06741e-06
0.000247808
2.09799e-06
0.00024568
2.12795e-06
0.000243523
2.1573e-06
0.000241337
2.18605e-06
0.000239122
2.2142e-06
0.000236881
2.24176e-06
0.000234612
2.26873e-06
0.000232317
2.29511e-06
0.000229996
2.32092e-06
0.00022765
2.34616e-06
0.000225279
2.37082e-06
0.000222884
2.39493e-06
0.000220466
2.41848e-06
0.000218024
2.44148e-06
0.00021556
2.46394e-06
0.000213074
2.48586e-06
0.000210567
2.50725e-06
0.000208039
2.52811e-06
0.00020549
2.54846e-06
0.000202922
2.5683e-06
0.000200335
2.58762e-06
0.000197728
2.60646e-06
0.000195103
2.62479e-06
0.000192461
2.64265e-06
0.000189801
2.66002e-06
0.000187124
2.67692e-06
0.00018443
2.69336e-06
0.000181721
2.70934e-06
0.000178996
2.72487e-06
0.000176256
2.73996e-06
0.000173502
2.75461e-06
0.000170733
2.76882e-06
0.00016795
2.78262e-06
0.000165154
2.796e-06
0.000162345
2.80897e-06
0.000159524
2.82154e-06
0.00015669
2.83372e-06
0.000153844
2.84551e-06
0.000150987
2.85692e-06
0.000148119
2.86796e-06
0.000145241
2.87863e-06
0.000142352
2.88895e-06
0.000139453
2.89892e-06
0.000136544
2.90854e-06
0.000133627
2.91783e-06
0.0001307
2.92678e-06
0.000127764
2.93542e-06
0.000124821
2.94374e-06
0.000121869
2.95175e-06
0.000118909
2.95947e-06
0.000115943
2.96688e-06
0.000112969
2.97401e-06
0.000109988
2.98087e-06
0.000107
2.98744e-06
0.000104006
2.99375e-06
0.000101007
2.9998e-06
9.80011e-05
3.0056e-06
9.49899e-05
3.01115e-06
9.19735e-05
3.01645e-06
8.8952e-05
3.02152e-06
8.59256e-05
3.02636e-06
8.28946e-05
3.03098e-06
7.98593e-05
3.03538e-06
7.68197e-05
3.03956e-06
7.37762e-05
3.04354e-06
7.07288e-05
3.04731e-06
6.7678e-05
3.05089e-06
6.46237e-05
3.05428e-06
6.15662e-05
3.05748e-06
5.85057e-05
3.06049e-06
5.54424e-05
3.06333e-06
5.23764e-05
3.06599e-06
4.93079e-05
3.06849e-06
4.62371e-05
3.07081e-06
4.31641e-05
3.07298e-06
4.00891e-05
3.07498e-06
3.70123e-05
3.07682e-06
3.39338e-05
3.07852e-06
3.08537e-05
3.08006e-06
2.77723e-05
3.08145e-06
2.46896e-05
3.0827e-06
2.16058e-05
3.0838e-06
1.8521e-05
3.08476e-06
1.54354e-05
3.08559e-06
1.23491e-05
3.08627e-06
9.26233e-06
3.08681e-06
6.17511e-06
3.08722e-06
3.08762e-06
3.08749e-06
3.08762e-06
3.57374e-06
-7.1473e-06
7.14729e-06
-7.14692e-06
1.07205e-05
-7.14617e-06
1.42931e-05
-7.14504e-06
1.78649e-05
-7.14354e-06
2.14359e-05
-7.14165e-06
2.50056e-05
-7.13936e-06
2.85741e-05
-7.13668e-06
3.2141e-05
-7.13359e-06
3.57061e-05
-7.13009e-06
3.92693e-05
-7.12615e-06
4.28303e-05
-7.12178e-06
4.63889e-05
-7.11695e-06
4.99449e-05
-7.11166e-06
5.34979e-05
-7.10588e-06
5.70478e-05
-7.09961e-06
6.05944e-05
-7.09281e-06
6.41373e-05
-7.08549e-06
6.76762e-05
-7.07761e-06
7.12109e-05
-7.06915e-06
7.47411e-05
-7.0601e-06
7.82665e-05
-7.05043e-06
8.17867e-05
-7.04012e-06
8.53015e-05
-7.02914e-06
8.88104e-05
-7.01748e-06
9.23131e-05
-7.00509e-06
9.58093e-05
-6.99196e-06
9.92985e-05
-6.97806e-06
0.00010278
-6.96336e-06
0.000106255
-6.94783e-06
0.00010972
-6.93144e-06
0.000113178
-6.91417e-06
0.000116626
-6.89597e-06
0.000120065
-6.87683e-06
0.000123493
-6.85671e-06
0.000126911
-6.83558e-06
0.000130318
-6.81341e-06
0.000133714
-6.79015e-06
0.000137097
-6.7658e-06
0.000140467
-6.7403e-06
0.000143824
-6.71363e-06
0.000147168
-6.68575e-06
0.000150496
-6.65664e-06
0.00015381
-6.62626e-06
0.000157107
-6.59459e-06
0.000160388
-6.56158e-06
0.000163652
-6.52721e-06
0.000166898
-6.49144e-06
0.000170126
-6.45426e-06
0.000173334
-6.41563e-06
0.000176522
-6.37551e-06
0.00017969
-6.3339e-06
0.000182835
-6.29074e-06
0.000185959
-6.24604e-06
0.000189059
-6.19975e-06
0.000192135
-6.15186e-06
0.000195187
-6.10234e-06
0.000198213
-6.05117e-06
0.000201213
-5.99834e-06
0.000204185
-5.94383e-06
0.000207129
-5.88762e-06
0.000210044
-5.82969e-06
0.00021293
-5.77004e-06
0.000215785
-5.70866e-06
0.000218608
-5.64553e-06
0.000221399
-5.58065e-06
0.000224156
-5.51402e-06
0.000226879
-5.44563e-06
0.000229567
-5.37548e-06
0.00023222
-5.30357e-06
0.000234835
-5.22991e-06
0.000237413
-5.1545e-06
0.000239952
-5.07736e-06
0.000242452
-4.99848e-06
0.000244911
-4.91789e-06
0.000247329
-4.83561e-06
0.000249705
-4.75164e-06
0.000252039
-4.66601e-06
0.000254329
-4.57874e-06
0.000256574
-4.48985e-06
0.000258774
-4.39938e-06
0.000260928
-4.30735e-06
0.000263035
-4.21379e-06
0.000265095
-4.11874e-06
0.000267106
-4.02223e-06
0.000269069
-3.92431e-06
0.000270982
-3.825e-06
0.000272844
-3.72435e-06
0.000274656
-3.62242e-06
0.000276416
-3.51923e-06
0.000278123
-3.41485e-06
0.000279778
-3.30931e-06
0.00028138
-3.20268e-06
0.000282928
-3.09499e-06
0.000284421
-2.98632e-06
0.00028586
-2.8767e-06
0.000287243
-2.7662e-06
0.000288571
-2.65488e-06
0.000289842
-2.54279e-06
0.000291057
-2.42999e-06
0.000292216
-2.31655e-06
0.000293317
-2.20251e-06
0.000294361
-2.08795e-06
0.000295348
-1.97292e-06
0.000296277
-1.85749e-06
0.000297148
-1.74171e-06
0.00029796
-1.62565e-06
0.000298715
-1.50937e-06
0.000299412
-1.39293e-06
0.00030005
-1.2764e-06
0.00030063
-1.15982e-06
0.000301151
-1.04326e-06
0.000301615
-9.2679e-07
0.00030202
-8.10454e-07
0.000302367
-6.94314e-07
0.000302656
-5.78426e-07
0.000302888
-4.62845e-07
0.000303061
-3.47626e-07
0.000303178
-2.32821e-07
0.000303237
-1.18483e-07
0.000303239
-4.66172e-09
0.000303184
1.08594e-07
0.000303074
2.21237e-07
0.000302907
3.33222e-07
0.000302684
4.44503e-07
0.000302407
5.55038e-07
0.000302074
6.64786e-07
0.000301687
7.73708e-07
0.000301246
8.81765e-07
0.000300751
9.88922e-07
0.000300203
1.09514e-06
0.000299603
1.2004e-06
0.00029895
1.30466e-06
0.000298246
1.40789e-06
0.000297491
1.51006e-06
0.000296685
1.61115e-06
0.000295829
1.71114e-06
0.000294924
1.81e-06
0.00029397
1.90772e-06
0.000292967
2.00426e-06
0.000291917
2.09962e-06
0.00029082
2.19377e-06
0.000289676
2.28671e-06
0.000288487
2.37842e-06
0.000287252
2.46889e-06
0.000285973
2.5581e-06
0.000284649
2.64606e-06
0.000283283
2.73274e-06
0.000281873
2.81814e-06
0.000280422
2.90227e-06
0.000278929
2.9851e-06
0.000277395
3.06665e-06
0.000275822
3.1469e-06
0.000274208
3.22586e-06
0.000272556
3.30352e-06
0.000270866
3.37989e-06
0.000269138
3.45497e-06
0.000267373
3.52875e-06
0.000265572
3.60125e-06
0.000263736
3.67247e-06
0.000261864
3.7424e-06
0.000259959
3.81106e-06
0.000258019
3.87845e-06
0.000256046
3.94457e-06
0.000254041
4.00944e-06
0.000252005
4.07306e-06
0.000249937
4.13544e-06
0.000247838
4.19659e-06
0.000245709
4.2565e-06
0.000243551
4.31521e-06
0.000241365
4.3727e-06
0.00023915
4.429e-06
0.000236908
4.48411e-06
0.000234638
4.53804e-06
0.000232343
4.5908e-06
0.000230021
4.64241e-06
0.000227674
4.69287e-06
0.000225303
4.7422e-06
0.000222908
4.79041e-06
0.000220489
4.83751e-06
0.000218047
4.8835e-06
0.000215582
4.92841e-06
0.000213096
4.97225e-06
0.000210588
5.01502e-06
0.000208059
5.05674e-06
0.00020551
5.09743e-06
0.000202942
5.13709e-06
0.000200353
5.17575e-06
0.000197746
5.2134e-06
0.000195121
5.25007e-06
0.000192478
5.28577e-06
0.000189818
5.32051e-06
0.00018714
5.35431e-06
0.000184446
5.38718e-06
0.000181737
5.41914e-06
0.000179011
5.45019e-06
0.000176271
5.48035e-06
0.000173516
5.50964e-06
0.000170747
5.53807e-06
0.000167964
5.56565e-06
0.000165167
5.59241e-06
0.000162358
5.61834e-06
0.000159536
5.64348e-06
0.000156702
5.66783e-06
0.000153856
5.6914e-06
0.000150999
5.71422e-06
0.00014813
5.73629e-06
0.000145251
5.75763e-06
0.000142362
5.77825e-06
0.000139463
5.79818e-06
0.000136554
5.81742e-06
0.000133636
5.83598e-06
0.000130709
5.85389e-06
0.000127773
5.87115e-06
0.000124829
5.88779e-06
0.000121877
5.90381e-06
0.000118917
5.91923e-06
0.00011595
5.93406e-06
0.000112975
5.94831e-06
0.000109994
5.96201e-06
0.000107007
5.97515e-06
0.000104013
5.98777e-06
0.000101013
5.99986e-06
9.80067e-05
6.01144e-06
9.49953e-05
6.02253e-06
9.19786e-05
6.03314e-06
8.89569e-05
6.04327e-06
8.59303e-05
6.05295e-06
8.28991e-05
6.06218e-06
7.98635e-05
6.07097e-06
7.68237e-05
6.07933e-06
7.378e-05
6.08728e-06
7.07325e-05
6.09483e-06
6.76814e-05
6.10198e-06
6.46269e-05
6.10875e-06
6.15693e-05
6.11514e-06
5.85086e-05
6.12117e-06
5.54451e-05
6.12684e-06
5.23789e-05
6.13216e-06
4.93102e-05
6.13714e-06
4.62393e-05
6.14179e-06
4.31661e-05
6.14611e-06
4.0091e-05
6.15012e-06
3.7014e-05
6.15381e-06
3.39353e-05
6.15719e-06
3.08551e-05
6.16027e-06
2.77735e-05
6.16305e-06
2.46907e-05
6.16555e-06
2.16067e-05
6.16775e-06
1.85218e-05
6.16967e-06
1.54361e-05
6.17131e-06
1.23497e-05
6.17268e-06
9.26274e-06
6.17376e-06
6.17539e-06
6.17458e-06
3.08776e-06
6.17512e-06
6.17538e-06
3.57411e-06
-1.07214e-05
7.14804e-06
-1.07208e-05
1.07216e-05
-1.07197e-05
1.42946e-05
-1.0718e-05
1.78668e-05
-1.07158e-05
2.14382e-05
-1.0713e-05
2.50083e-05
-1.07095e-05
2.85772e-05
-1.07055e-05
3.21445e-05
-1.07009e-05
3.57101e-05
-1.06957e-05
3.92737e-05
-1.06898e-05
4.28352e-05
-1.06832e-05
4.63942e-05
-1.0676e-05
4.99507e-05
-1.06681e-05
5.35042e-05
-1.06594e-05
5.70547e-05
-1.06501e-05
6.06018e-05
-1.06399e-05
6.41452e-05
-1.06289e-05
6.76847e-05
-1.06171e-05
7.122e-05
-1.06045e-05
7.47509e-05
-1.05909e-05
7.82769e-05
-1.05765e-05
8.17978e-05
-1.0561e-05
8.53132e-05
-1.05446e-05
8.88228e-05
-1.05271e-05
9.23263e-05
-1.05086e-05
9.58233e-05
-1.04889e-05
9.93133e-05
-1.04681e-05
0.000102796
-1.04461e-05
0.000106271
-1.04228e-05
0.000109738
-1.03983e-05
0.000113196
-1.03724e-05
0.000116645
-1.03451e-05
0.000120085
-1.03165e-05
0.000123514
-1.02863e-05
0.000126934
-1.02547e-05
0.000130342
-1.02215e-05
0.000133738
-1.01866e-05
0.000137122
-1.01501e-05
0.000140494
-1.01119e-05
0.000143852
-1.00719e-05
0.000147197
-1.00302e-05
0.000150527
-9.98655e-06
0.000153841
-9.94102e-06
0.00015714
-9.89354e-06
0.000160423
-9.84407e-06
0.000163688
-9.79255e-06
0.000166936
-9.73894e-06
0.000170165
-9.6832e-06
0.000173374
-9.62529e-06
0.000176564
-9.56515e-06
0.000179733
-9.50276e-06
0.00018288
-9.43806e-06
0.000186005
-9.37103e-06
0.000189107
-9.30163e-06
0.000192185
-9.22982e-06
0.000195238
-9.15556e-06
0.000198266
-9.07884e-06
0.000201267
-8.99962e-06
0.000204241
-8.91786e-06
0.000207187
-8.83357e-06
0.000210104
-8.74669e-06
0.000212991
-8.65723e-06
0.000215848
-8.56517e-06
0.000218673
-8.47048e-06
0.000221465
-8.37317e-06
0.000224225
-8.27322e-06
0.00022695
-8.17064e-06
0.000229639
-8.06541e-06
0.000232293
-7.95754e-06
0.000234911
-7.84705e-06
0.00023749
-7.73392e-06
0.000240031
-7.61819e-06
0.000242532
-7.49987e-06
0.000244993
-7.37897e-06
0.000247413
-7.25551e-06
0.000249791
-7.12954e-06
0.000252126
-7.00106e-06
0.000254418
-6.87013e-06
0.000256664
-6.73676e-06
0.000258866
-6.60102e-06
0.000261022
-6.46293e-06
0.00026313
-6.32256e-06
0.000265192
-6.17993e-06
0.000267205
-6.03512e-06
0.000269168
-5.88818e-06
0.000271083
-5.73917e-06
0.000272946
-5.58815e-06
0.000274759
-5.43518e-06
0.00027652
-5.28035e-06
0.000278229
-5.12371e-06
0.000279885
-4.96534e-06
0.000281488
-4.80532e-06
0.000283037
-4.64373e-06
0.000284531
-4.48065e-06
0.00028597
-4.31616e-06
0.000287354
-4.15034e-06
0.000288683
-3.98328e-06
0.000289955
-3.81507e-06
0.000291171
-3.6458e-06
0.00029233
-3.47555e-06
0.000293432
-3.30443e-06
0.000294476
-3.13251e-06
0.000295463
-2.95989e-06
0.000296393
-2.78666e-06
0.000297264
-2.61292e-06
0.000298077
-2.43875e-06
0.000298832
-2.26426e-06
0.000299528
-2.08952e-06
0.000300167
-1.91464e-06
0.000300746
-1.7397e-06
0.000301268
-1.5648e-06
0.000301731
-1.39001e-06
0.000302136
-1.21544e-06
0.000302483
-1.04116e-06
0.000302772
-8.67254e-07
0.000303003
-6.93816e-07
0.000303176
-5.20921e-07
0.000303292
-3.4865e-07
0.000303351
-1.7708e-07
0.000303352
-6.28609e-09
0.000303297
1.63657e-07
0.000303186
3.32679e-07
0.000303018
5.00711e-07
0.000302795
6.67686e-07
0.000302517
8.3354e-07
0.000302183
9.98212e-07
0.000301795
1.16164e-06
0.000301353
1.32377e-06
0.000300858
1.48455e-06
0.000300309
1.64393e-06
0.000299707
1.80185e-06
0.000299054
1.95827e-06
0.000298348
2.11315e-06
0.000297592
2.26644e-06
0.000296785
2.41811e-06
0.000295928
2.56812e-06
0.000295022
2.71644e-06
0.000294066
2.86303e-06
0.000293063
3.00787e-06
0.000292011
3.15093e-06
0.000290913
3.29218e-06
0.000289768
3.43161e-06
0.000288577
3.56919e-06
0.000287341
3.7049e-06
0.000286061
3.83873e-06
0.000284736
3.97067e-06
0.000283368
4.1007e-06
0.000281957
4.22882e-06
0.000280505
4.35501e-06
0.000279011
4.47926e-06
0.000277476
4.60158e-06
0.000275901
4.72196e-06
0.000274286
4.8404e-06
0.000272633
4.9569e-06
0.000270941
5.07145e-06
0.000269212
5.18406e-06
0.000267446
5.29474e-06
0.000265644
5.40348e-06
0.000263806
5.5103e-06
0.000261933
5.61519e-06
0.000260026
5.71817e-06
0.000258085
5.81925e-06
0.000256111
5.91843e-06
0.000254105
6.01573e-06
0.000252067
6.11115e-06
0.000249998
6.2047e-06
0.000247898
6.29641e-06
0.000245768
6.38628e-06
0.000243609
6.47432e-06
0.000241421
6.56055e-06
0.000239205
6.64498e-06
0.000236962
6.72763e-06
0.000234691
6.80852e-06
0.000232394
6.88765e-06
0.000230072
6.96505e-06
0.000227724
7.04073e-06
0.000225351
7.11471e-06
0.000222955
7.187e-06
0.000220535
7.25763e-06
0.000218091
7.32661e-06
0.000215626
7.39396e-06
0.000213138
7.4597e-06
0.00021063
7.52384e-06
0.0002081
7.58641e-06
0.00020555
7.64743e-06
0.00020298
7.70691e-06
0.000200391
7.76487e-06
0.000197783
7.82133e-06
0.000195157
7.87632e-06
0.000192513
7.92985e-06
0.000189851
7.98195e-06
0.000187173
8.03263e-06
0.000184478
8.08192e-06
0.000181768
8.12983e-06
0.000179041
8.17639e-06
0.0001763
8.22162e-06
0.000173544
8.26553e-06
0.000170774
8.30816e-06
0.00016799
8.34952e-06
0.000165193
8.38963e-06
0.000162383
8.42852e-06
0.00015956
8.4662e-06
0.000156725
8.50271e-06
0.000153879
8.53805e-06
0.000151021
8.57225e-06
0.000148152
8.60534e-06
0.000145272
8.63734e-06
0.000142382
8.66826e-06
0.000139482
8.69812e-06
0.000136572
8.72696e-06
0.000133654
8.7548e-06
0.000130726
8.78164e-06
0.000127789
8.80752e-06
0.000124845
8.83245e-06
0.000121892
8.85646e-06
0.000118932
8.87957e-06
0.000115964
8.9018e-06
0.000112989
8.92317e-06
0.000110007
8.94369e-06
0.000107019
8.9634e-06
0.000104025
8.9823e-06
0.000101024
9.00043e-06
9.80178e-05
9.01779e-06
9.50059e-05
9.0344e-06
9.19887e-05
9.0503e-06
8.89665e-05
9.06548e-06
8.59395e-05
9.07998e-06
8.29079e-05
9.09381e-06
7.98719e-05
9.10698e-06
7.68317e-05
9.11952e-06
7.37875e-05
9.13143e-06
7.07396e-05
9.14274e-06
6.76881e-05
9.15345e-06
6.46333e-05
9.16359e-06
6.15753e-05
9.17317e-06
5.85142e-05
9.1822e-06
5.54504e-05
9.1907e-06
5.23839e-05
9.19867e-06
4.93149e-05
9.20613e-06
4.62436e-05
9.21309e-06
4.31701e-05
9.21957e-06
4.00947e-05
9.22556e-06
3.70174e-05
9.23109e-06
3.39384e-05
9.23616e-06
3.08579e-05
9.24077e-06
2.7776e-05
9.24495e-06
2.46929e-05
9.24868e-06
2.16087e-05
9.25198e-06
1.85235e-05
9.25486e-06
1.54375e-05
9.25732e-06
1.23508e-05
9.25936e-06
9.26356e-06
9.26099e-06
6.17593e-06
9.26221e-06
3.08803e-06
9.26301e-06
9.26341e-06
3.57468e-06
-1.42961e-05
7.14917e-06
-1.42953e-05
1.07233e-05
-1.42939e-05
1.42969e-05
-1.42916e-05
1.78697e-05
-1.42886e-05
2.14416e-05
-1.42849e-05
2.50124e-05
-1.42803e-05
2.85819e-05
-1.4275e-05
3.21498e-05
-1.42689e-05
3.5716e-05
-1.42619e-05
3.92803e-05
-1.42541e-05
4.28424e-05
-1.42454e-05
4.64022e-05
-1.42358e-05
4.99594e-05
-1.42252e-05
5.35137e-05
-1.42138e-05
5.70649e-05
-1.42013e-05
6.06128e-05
-1.41878e-05
6.41571e-05
-1.41732e-05
6.76974e-05
-1.41575e-05
7.12337e-05
-1.41407e-05
7.47654e-05
-1.41227e-05
7.82924e-05
-1.41034e-05
8.18143e-05
-1.40829e-05
8.53308e-05
-1.40611e-05
8.88415e-05
-1.40378e-05
9.23461e-05
-1.40132e-05
9.58442e-05
-1.3987e-05
9.93354e-05
-1.39593e-05
0.000102819
-1.393e-05
0.000106296
-1.38991e-05
0.000109764
-1.38664e-05
0.000113223
-1.3832e-05
0.000116674
-1.37957e-05
0.000120115
-1.37576e-05
0.000123546
-1.37175e-05
0.000126967
-1.36753e-05
0.000130377
-1.36311e-05
0.000133775
-1.35847e-05
0.000137161
-1.35362e-05
0.000140534
-1.34853e-05
0.000143894
-1.34321e-05
0.000147241
-1.33765e-05
0.000150572
-1.33184e-05
0.000153889
-1.32577e-05
0.00015719
-1.31945e-05
0.000160475
-1.31286e-05
0.000163742
-1.306e-05
0.000166992
-1.29886e-05
0.000170223
-1.29143e-05
0.000173435
-1.28372e-05
0.000176627
-1.27571e-05
0.000179798
-1.26739e-05
0.000182947
-1.25877e-05
0.000186075
-1.24984e-05
0.000189179
-1.24059e-05
0.000192259
-1.23102e-05
0.000195315
-1.22113e-05
0.000198345
-1.2109e-05
0.000201349
-1.20034e-05
0.000204326
-1.18945e-05
0.000207274
-1.17821e-05
0.000210194
-1.16663e-05
0.000213084
-1.1547e-05
0.000215943
-1.14243e-05
0.00021877
-1.12981e-05
0.000221565
-1.11683e-05
0.000224327
-1.10351e-05
0.000227055
-1.08983e-05
0.000229748
-1.0758e-05
0.000232404
-1.06142e-05
0.000235024
-1.04668e-05
0.000237606
-1.0316e-05
0.000240149
-1.01616e-05
0.000242653
-1.00038e-05
0.000245117
-9.84259e-06
0.000247539
-9.67795e-06
0.00024992
-9.50993e-06
0.000252257
-9.33858e-06
0.000254551
-9.16394e-06
0.0002568
-8.98606e-06
0.000259004
-8.805e-06
0.000261162
-8.62081e-06
0.000263273
-8.43356e-06
0.000265337
-8.24331e-06
0.000267352
-8.05015e-06
0.000269318
-7.85413e-06
0.000271234
-7.65535e-06
0.0002731
-7.45388e-06
0.000274914
-7.24983e-06
0.000276677
-7.04327e-06
0.000278388
-6.8343e-06
0.000280045
-6.62302e-06
0.00028165
-6.40954e-06
0.0002832
-6.19396e-06
0.000284696
-5.97639e-06
0.000286136
-5.75694e-06
0.000287522
-5.53571e-06
0.000288851
-5.31283e-06
0.000290125
-5.08842e-06
0.000291341
-4.86258e-06
0.000292501
-4.63544e-06
0.000293604
-4.40713e-06
0.000294649
-4.17776e-06
0.000295637
-3.94746e-06
0.000296566
-3.71635e-06
0.000297438
-3.48455e-06
0.000298252
-3.25218e-06
0.000299007
-3.01938e-06
0.000299703
-2.78626e-06
0.000300342
-2.55294e-06
0.000300922
-2.31955e-06
0.000301443
-2.08621e-06
0.000301906
-1.85302e-06
0.000302311
-1.62012e-06
0.000302657
-1.38762e-06
0.000302945
-1.15562e-06
0.000303176
-9.2424e-07
0.000303349
-6.9359e-07
0.000303464
-4.63774e-07
0.000303522
-2.34897e-07
0.000303522
-7.05805e-09
0.000303466
2.19644e-07
0.000303354
4.45114e-07
0.000303185
6.6926e-07
0.000302961
8.91993e-07
0.000302681
1.11323e-06
0.000302347
1.33288e-06
0.000301957
1.55088e-06
0.000301514
1.76714e-06
0.000301017
1.98159e-06
0.000300467
2.19416e-06
0.000299864
2.4048e-06
0.000299209
2.61343e-06
0.000298502
2.82e-06
0.000297744
3.02445e-06
0.000296935
3.22673e-06
0.000296077
3.4268e-06
0.000295168
3.6246e-06
0.000294211
3.82011e-06
0.000293206
4.01327e-06
0.000292153
4.20405e-06
0.000291053
4.39242e-06
0.000289906
4.57835e-06
0.000288713
4.76182e-06
0.000287475
4.94279e-06
0.000286193
5.12126e-06
0.000284866
5.29719e-06
0.000283496
5.47059e-06
0.000282084
5.64142e-06
0.000280629
5.80968e-06
0.000279133
5.97537e-06
0.000277596
6.13847e-06
0.000276019
6.29898e-06
0.000274403
6.45689e-06
0.000272747
6.61222e-06
0.000271054
6.76495e-06
0.000269323
6.9151e-06
0.000267555
7.06266e-06
0.000265751
7.20764e-06
0.000263911
7.35005e-06
0.000262036
7.4899e-06
0.000260127
7.6272e-06
0.000258184
7.76195e-06
0.000256209
7.89418e-06
0.000254201
8.02389e-06
0.000252161
8.1511e-06
0.000250089
8.27582e-06
0.000247988
8.39807e-06
0.000245856
8.51788e-06
0.000243695
8.63524e-06
0.000241506
8.75019e-06
0.000239288
8.86275e-06
0.000237043
8.97293e-06
0.00023477
9.08075e-06
0.000232472
9.18623e-06
0.000230147
9.28941e-06
0.000227798
9.39029e-06
0.000225424
9.4889e-06
0.000223025
9.58527e-06
0.000220604
9.67941e-06
0.000218159
9.77135e-06
0.000215692
9.86112e-06
0.000213203
9.94875e-06
0.000210692
1.00342e-05
0.000208161
1.01176e-05
0.000205609
1.0199e-05
0.000203038
1.02782e-05
0.000200448
1.03555e-05
0.000197838
1.04307e-05
0.00019521
1.0504e-05
0.000192565
1.05754e-05
0.000189902
1.06448e-05
0.000187222
1.07123e-05
0.000184526
1.0778e-05
0.000181814
1.08419e-05
0.000179087
1.09039e-05
0.000176344
1.09642e-05
0.000173587
1.10227e-05
0.000170816
1.10795e-05
0.00016803
1.11346e-05
0.000165232
1.11881e-05
0.000162421
1.12399e-05
0.000159597
1.12901e-05
0.000156761
1.13387e-05
0.000153913
1.13858e-05
0.000151054
1.14314e-05
0.000148184
1.14755e-05
0.000145303
1.15181e-05
0.000142412
1.15593e-05
0.000139511
1.15991e-05
0.0001366
1.16375e-05
0.00013368
1.16746e-05
0.000130752
1.17104e-05
0.000127814
1.17448e-05
0.000124869
1.1778e-05
0.000121915
1.181e-05
0.000118954
1.18408e-05
0.000115985
1.18704e-05
0.00011301
1.18989e-05
0.000110027
1.19262e-05
0.000107038
1.19524e-05
0.000104043
1.19776e-05
0.000101041
1.20018e-05
9.80344e-05
1.20249e-05
9.50218e-05
1.2047e-05
9.20039e-05
1.20682e-05
8.8981e-05
1.20884e-05
8.59533e-05
1.21077e-05
8.2921e-05
1.21261e-05
7.98844e-05
1.21436e-05
7.68436e-05
1.21603e-05
7.37988e-05
1.21762e-05
7.07503e-05
1.21912e-05
6.76983e-05
1.22055e-05
6.46429e-05
1.2219e-05
6.15843e-05
1.22317e-05
5.85227e-05
1.22438e-05
5.54583e-05
1.22551e-05
5.23913e-05
1.22657e-05
4.93218e-05
1.22756e-05
4.625e-05
1.22849e-05
4.31761e-05
1.22935e-05
4.01002e-05
1.23015e-05
3.70224e-05
1.23088e-05
3.3943e-05
1.23156e-05
3.08621e-05
1.23217e-05
2.77797e-05
1.23273e-05
2.46962e-05
1.23322e-05
2.16115e-05
1.23366e-05
1.85259e-05
1.23405e-05
1.54395e-05
1.23437e-05
1.23524e-05
1.23465e-05
9.26477e-06
1.23486e-05
6.17674e-06
1.23502e-05
3.08844e-06
1.23513e-05
1.23518e-05
3.57542e-06
-1.78715e-05
7.15067e-06
-1.78706e-05
1.07255e-05
-1.78687e-05
1.42999e-05
-1.78659e-05
1.78735e-05
-1.78622e-05
2.14462e-05
-1.78576e-05
2.50177e-05
-1.78519e-05
2.8588e-05
-1.78453e-05
3.21568e-05
-1.78376e-05
3.57239e-05
-1.7829e-05
3.92891e-05
-1.78192e-05
4.28521e-05
-1.78084e-05
4.64128e-05
-1.77965e-05
4.99709e-05
-1.77834e-05
5.35262e-05
-1.77691e-05
5.70785e-05
-1.77535e-05
6.06274e-05
-1.77367e-05
6.41728e-05
-1.77186e-05
6.77143e-05
-1.76991e-05
7.12518e-05
-1.76781e-05
7.47847e-05
-1.76557e-05
7.8313e-05
-1.76317e-05
8.18362e-05
-1.76061e-05
8.53541e-05
-1.75789e-05
8.88662e-05
-1.755e-05
9.23723e-05
-1.75192e-05
9.5872e-05
-1.74867e-05
9.93648e-05
-1.74521e-05
0.00010285
-1.74156e-05
0.000106328
-1.73771e-05
0.000109798
-1.73364e-05
0.00011326
-1.72935e-05
0.000116712
-1.72482e-05
0.000120155
-1.72007e-05
0.000123589
-1.71506e-05
0.000127011
-1.70981e-05
0.000130423
-1.70429e-05
0.000133823
-1.69851e-05
0.000137212
-1.69245e-05
0.000140587
-1.6861e-05
0.00014395
-1.67946e-05
0.000147299
-1.67252e-05
0.000150633
-1.66527e-05
0.000153952
-1.6577e-05
0.000157256
-1.64981e-05
0.000160543
-1.64159e-05
0.000163814
-1.63302e-05
0.000167066
-1.62411e-05
0.0001703
-1.61484e-05
0.000173515
-1.6052e-05
0.00017671
-1.5952e-05
0.000179884
-1.58482e-05
0.000183037
-1.57405e-05
0.000186167
-1.56289e-05
0.000189275
-1.55134e-05
0.000192359
-1.53939e-05
0.000195418
-1.52703e-05
0.000198451
-1.51425e-05
0.000201458
-1.50106e-05
0.000204438
-1.48744e-05
0.00020739
-1.4734e-05
0.000210313
-1.45893e-05
0.000213207
-1.44403e-05
0.000216069
-1.42869e-05
0.0002189
-1.41292e-05
0.000221699
-1.3967e-05
0.000224464
-1.38004e-05
0.000227195
-1.36295e-05
0.000229892
-1.34541e-05
0.000232552
-1.32743e-05
0.000235175
-1.30901e-05
0.00023776
-1.29015e-05
0.000240307
-1.27085e-05
0.000242815
-1.25112e-05
0.000245282
-1.23096e-05
0.000247708
-1.21038e-05
0.000250091
-1.18937e-05
0.000252432
-1.16794e-05
0.000254729
-1.1461e-05
0.000256982
-1.12385e-05
0.000259189
-1.10121e-05
0.00026135
-1.07818e-05
0.000263464
-1.05476e-05
0.00026553
-1.03096e-05
0.000267548
-1.0068e-05
0.000269517
-9.82284e-06
0.000271435
-9.57421e-06
0.000273304
-9.32221e-06
0.000275121
-9.06697e-06
0.000276886
-8.80859e-06
0.000278599
-8.54719e-06
0.000280259
-8.28291e-06
0.000281865
-8.01586e-06
0.000283418
-7.74619e-06
0.000284915
-7.47401e-06
0.000286358
-7.19948e-06
0.000287745
-6.92274e-06
0.000289076
-6.64392e-06
0.000290351
-6.36318e-06
0.000291569
-6.08066e-06
0.00029273
-5.79651e-06
0.000293834
-5.51089e-06
0.00029488
-5.22395e-06
0.000295868
-4.93584e-06
0.000296798
-4.64672e-06
0.000297671
-4.35674e-06
0.000298485
-4.06605e-06
0.00029924
-3.77482e-06
0.000299937
-3.48319e-06
0.000300575
-3.19132e-06
0.000301155
-2.89935e-06
0.000301676
-2.60745e-06
0.000302139
-2.31575e-06
0.000302543
-2.02441e-06
0.000302889
-1.73357e-06
0.000303177
-1.44336e-06
0.000303407
-1.15393e-06
0.000303579
-8.65423e-07
0.000303693
-5.77959e-07
0.00030375
-2.91673e-07
0.000303749
-6.69067e-09
0.000303692
2.76865e-07
0.000303578
5.58875e-07
0.000303408
8.39224e-07
0.000303182
1.1178e-06
0.000302901
1.3945e-06
0.000302565
1.66921e-06
0.000302174
1.94185e-06
0.000301729
2.21231e-06
0.00030123
2.4805e-06
0.000300678
2.74634e-06
0.000300073
3.00975e-06
0.000299415
3.27065e-06
0.000298706
3.52897e-06
0.000297946
3.78463e-06
0.000297135
4.03757e-06
0.000296274
4.28774e-06
0.000295364
4.53508e-06
0.000294405
4.77953e-06
0.000293397
5.02104e-06
0.000292341
5.25958e-06
0.000291239
5.4951e-06
0.000290089
5.72756e-06
0.000288894
5.95694e-06
0.000287654
6.1832e-06
0.000286369
6.40632e-06
0.00028504
6.62627e-06
0.000283667
6.84303e-06
0.000282252
7.05659e-06
0.000280795
7.26694e-06
0.000279296
7.47406e-06
0.000277757
7.67794e-06
0.000276177
7.87858e-06
0.000274558
8.07598e-06
0.0002729
8.27014e-06
0.000271204
8.46105e-06
0.00026947
8.64872e-06
0.0002677
8.83316e-06
0.000265893
9.01438e-06
0.000264051
9.19237e-06
0.000262173
9.36717e-06
0.000260262
9.53876e-06
0.000258317
9.70719e-06
0.000256338
9.87244e-06
0.000254328
1.00346e-05
0.000252285
1.01935e-05
0.000250212
1.03494e-05
0.000248108
1.05022e-05
0.000245974
1.06519e-05
0.00024381
1.07986e-05
0.000241618
1.09422e-05
0.000239398
1.10829e-05
0.00023715
1.12206e-05
0.000234876
1.13553e-05
0.000232575
1.14871e-05
0.000230248
1.16161e-05
0.000227896
1.17421e-05