/*--------------------------------*- C++ -*----------------------------------*\
| =========                 |                                                 |
| \\      /  F ield         | OpenFOAM: The Open Source CFD Toolbox           |
|  \\    /   O peration     | Version:  v2012                                 |
|   \\  /    A nd           | Website:  www.openfoam.com                      |
|    \\/     M anipulation  |                                                 |
\*---------------------------------------------------------------------------*/
FoamFile
{
    version     2.0;
    format      ascii;
    class       volVectorField;
    location    "4";
    object      Psi;
}
// * * * * * * * * * * * * * * * * * * * * * * * * * * * * * * * * * * * * * //

dimensions      [0 2 -1 0 0 0 0];


internalField   nonuniform List<vector> 
65536
(
(0 0 8.94807e-06)
(0 0 2.68437e-05)
(0 0 4.47379e-05)
(0 0 6.26297e-05)
(0 0 8.05184e-05)
(0 0 9.84028e-05)
(0 0 0.000116282)
(0 0 0.000134155)
(0 0 0.000152021)
(0 0 0.000169879)
(0 0 0.000187728)
(0 0 0.000205566)
(0 0 0.000223393)
(0 0 0.000241208)
(0 0 0.000259008)
(0 0 0.000276794)
(0 0 0.000294564)
(0 0 0.000312316)
(0 0 0.00033005)
(0 0 0.000347763)
(0 0 0.000365454)
(0 0 0.000383123)
(0 0 0.000400766)
(0 0 0.000418383)
(0 0 0.000435972)
(0 0 0.000453531)
(0 0 0.000471059)
(0 0 0.000488553)
(0 0 0.000506011)
(0 0 0.000523432)
(0 0 0.000540813)
(0 0 0.000558152)
(0 0 0.000575447)
(0 0 0.000592696)
(0 0 0.000609896)
(0 0 0.000627044)
(0 0 0.000644138)
(0 0 0.000661176)
(0 0 0.000678155)
(0 0 0.000695071)
(0 0 0.000711923)
(0 0 0.000728706)
(0 0 0.000745418)
(0 0 0.000762056)
(0 0 0.000778617)
(0 0 0.000795097)
(0 0 0.000811493)
(0 0 0.000827801)
(0 0 0.000844018)
(0 0 0.00086014)
(0 0 0.000876164)
(0 0 0.000892085)
(0 0 0.000907901)
(0 0 0.000923607)
(0 0 0.000939199)
(0 0 0.000954673)
(0 0 0.000970025)
(0 0 0.000985252)
(0 0 0.00100035)
(0 0 0.00101531)
(0 0 0.00103013)
(0 0 0.00104481)
(0 0 0.00105935)
(0 0 0.00107373)
(0 0 0.00108795)
(0 0 0.00110202)
(0 0 0.00111592)
(0 0 0.00112965)
(0 0 0.0011432)
(0 0 0.00115658)
(0 0 0.00116978)
(0 0 0.00118279)
(0 0 0.00119561)
(0 0 0.00120823)
(0 0 0.00122065)
(0 0 0.00123287)
(0 0 0.00124488)
(0 0 0.00125668)
(0 0 0.00126826)
(0 0 0.00127961)
(0 0 0.00129075)
(0 0 0.00130165)
(0 0 0.00131232)
(0 0 0.00132276)
(0 0 0.00133295)
(0 0 0.0013429)
(0 0 0.0013526)
(0 0 0.00136205)
(0 0 0.00137125)
(0 0 0.00138019)
(0 0 0.00138887)
(0 0 0.00139728)
(0 0 0.00140543)
(0 0 0.00141331)
(0 0 0.00142091)
(0 0 0.00142825)
(0 0 0.0014353)
(0 0 0.00144208)
(0 0 0.00144858)
(0 0 0.00145479)
(0 0 0.00146072)
(0 0 0.00146636)
(0 0 0.00147172)
(0 0 0.00147679)
(0 0 0.00148156)
(0 0 0.00148605)
(0 0 0.00149025)
(0 0 0.00149415)
(0 0 0.00149776)
(0 0 0.00150108)
(0 0 0.00150411)
(0 0 0.00150684)
(0 0 0.00150928)
(0 0 0.00151143)
(0 0 0.00151329)
(0 0 0.00151485)
(0 0 0.00151613)
(0 0 0.00151711)
(0 0 0.00151781)
(0 0 0.00151821)
(0 0 0.00151834)
(0 0 0.00151817)
(0 0 0.00151772)
(0 0 0.00151699)
(0 0 0.00151598)
(0 0 0.0015147)
(0 0 0.00151313)
(0 0 0.00151129)
(0 0 0.00150918)
(0 0 0.0015068)
(0 0 0.00150415)
(0 0 0.00150124)
(0 0 0.00149806)
(0 0 0.00149462)
(0 0 0.00149093)
(0 0 0.00148698)
(0 0 0.00148278)
(0 0 0.00147833)
(0 0 0.00147363)
(0 0 0.00146869)
(0 0 0.00146351)
(0 0 0.00145809)
(0 0 0.00145244)
(0 0 0.00144656)
(0 0 0.00144045)
(0 0 0.00143411)
(0 0 0.00142755)
(0 0 0.00142078)
(0 0 0.00141379)
(0 0 0.00140659)
(0 0 0.00139918)
(0 0 0.00139156)
(0 0 0.00138374)
(0 0 0.00137573)
(0 0 0.00136751)
(0 0 0.00135911)
(0 0 0.00135052)
(0 0 0.00134174)
(0 0 0.00133278)
(0 0 0.00132363)
(0 0 0.00131432)
(0 0 0.00130483)
(0 0 0.00129517)
(0 0 0.00128535)
(0 0 0.00127536)
(0 0 0.00126521)
(0 0 0.00125491)
(0 0 0.00124445)
(0 0 0.00123384)
(0 0 0.00122309)
(0 0 0.00121219)
(0 0 0.00120115)
(0 0 0.00118997)
(0 0 0.00117866)
(0 0 0.00116721)
(0 0 0.00115563)
(0 0 0.00114393)
(0 0 0.0011321)
(0 0 0.00112016)
(0 0 0.00110809)
(0 0 0.00109591)
(0 0 0.00108362)
(0 0 0.00107122)
(0 0 0.00105871)
(0 0 0.00104609)
(0 0 0.00103338)
(0 0 0.00102056)
(0 0 0.00100765)
(0 0 0.000994643)
(0 0 0.000981545)
(0 0 0.000968357)
(0 0 0.000955083)
(0 0 0.000941724)
(0 0 0.000928283)
(0 0 0.000914762)
(0 0 0.000901163)
(0 0 0.000887489)
(0 0 0.000873741)
(0 0 0.000859923)
(0 0 0.000846036)
(0 0 0.000832081)
(0 0 0.000818062)
(0 0 0.00080398)
(0 0 0.000789837)
(0 0 0.000775636)
(0 0 0.000761377)
(0 0 0.000747063)
(0 0 0.000732696)
(0 0 0.000718277)
(0 0 0.000703808)
(0 0 0.000689292)
(0 0 0.000674729)
(0 0 0.000660121)
(0 0 0.00064547)
(0 0 0.000630777)
(0 0 0.000616045)
(0 0 0.000601274)
(0 0 0.000586466)
(0 0 0.000571622)
(0 0 0.000556744)
(0 0 0.000541833)
(0 0 0.00052689)
(0 0 0.000511918)
(0 0 0.000496916)
(0 0 0.000481887)
(0 0 0.000466831)
(0 0 0.000451749)
(0 0 0.000436644)
(0 0 0.000421515)
(0 0 0.000406364)
(0 0 0.000391192)
(0 0 0.000376001)
(0 0 0.00036079)
(0 0 0.000345562)
(0 0 0.000330316)
(0 0 0.000315055)
(0 0 0.000299778)
(0 0 0.000284487)
(0 0 0.000269182)
(0 0 0.000253865)
(0 0 0.000238537)
(0 0 0.000223197)
(0 0 0.000207847)
(0 0 0.000192488)
(0 0 0.00017712)
(0 0 0.000161744)
(0 0 0.000146361)
(0 0 0.000130972)
(0 0 0.000115577)
(0 0 0.000100176)
(0 0 8.4772e-05)
(0 0 6.93639e-05)
(0 0 5.39528e-05)
(0 0 3.85393e-05)
(0 0 2.31243e-05)
(0 0 7.7082e-06)
(0 0 2.68445e-05)
(0 0 8.05321e-05)
(0 0 0.000134215)
(0 0 0.000187892)
(0 0 0.000241559)
(0 0 0.000295213)
(0 0 0.000348852)
(0 0 0.000402472)
(0 0 0.000456071)
(0 0 0.000509645)
(0 0 0.000563192)
(0 0 0.000616709)
(0 0 0.000670191)
(0 0 0.000723635)
(0 0 0.000777039)
(0 0 0.000830398)
(0 0 0.000883708)
(0 0 0.000936966)
(0 0 0.000990167)
(0 0 0.00104331)
(0 0 0.00109638)
(0 0 0.00114939)
(0 0 0.00120232)
(0 0 0.00125518)
(0 0 0.00130794)
(0 0 0.00136062)
(0 0 0.00141321)
(0 0 0.00146569)
(0 0 0.00151807)
(0 0 0.00157033)
(0 0 0.00162248)
(0 0 0.0016745)
(0 0 0.00172638)
(0 0 0.00177813)
(0 0 0.00182973)
(0 0 0.00188118)
(0 0 0.00193247)
(0 0 0.00198358)
(0 0 0.00203452)
(0 0 0.00208528)
(0 0 0.00213583)
(0 0 0.00218619)
(0 0 0.00223633)
(0 0 0.00228624)
(0 0 0.00233593)
(0 0 0.00238537)
(0 0 0.00243456)
(0 0 0.00248349)
(0 0 0.00253214)
(0 0 0.00258051)
(0 0 0.00262859)
(0 0 0.00267636)
(0 0 0.00272381)
(0 0 0.00277093)
(0 0 0.00281771)
(0 0 0.00286414)
(0 0 0.0029102)
(0 0 0.00295588)
(0 0 0.00300117)
(0 0 0.00304606)
(0 0 0.00309054)
(0 0 0.00313458)
(0 0 0.00317818)
(0 0 0.00322133)
(0 0 0.00326401)
(0 0 0.00330621)
(0 0 0.00334791)
(0 0 0.00338911)
(0 0 0.00342979)
(0 0 0.00346993)
(0 0 0.00350952)
(0 0 0.00354855)
(0 0 0.00358701)
(0 0 0.00362488)
(0 0 0.00366216)
(0 0 0.00369881)
(0 0 0.00373485)
(0 0 0.00377024)
(0 0 0.00380498)
(0 0 0.00383906)
(0 0 0.00387247)
(0 0 0.00390518)
(0 0 0.0039372)
(0 0 0.00396851)
(0 0 0.00399909)
(0 0 0.00402894)
(0 0 0.00405805)
(0 0 0.00408641)
(0 0 0.004114)
(0 0 0.00414082)
(0 0 0.00416686)
(0 0 0.0041921)
(0 0 0.00421655)
(0 0 0.00424019)
(0 0 0.00426301)
(0 0 0.00428501)
(0 0 0.00430618)
(0 0 0.00432651)
(0 0 0.004346)
(0 0 0.00436465)
(0 0 0.00438244)
(0 0 0.00439937)
(0 0 0.00441544)
(0 0 0.00443064)
(0 0 0.00444498)
(0 0 0.00445844)
(0 0 0.00447103)
(0 0 0.00448275)
(0 0 0.00449358)
(0 0 0.00450354)
(0 0 0.00451262)
(0 0 0.00452082)
(0 0 0.00452814)
(0 0 0.00453459)
(0 0 0.00454016)
(0 0 0.00454485)
(0 0 0.00454867)
(0 0 0.00455162)
(0 0 0.00455371)
(0 0 0.00455493)
(0 0 0.00455529)
(0 0 0.00455479)
(0 0 0.00455345)
(0 0 0.00455126)
(0 0 0.00454823)
(0 0 0.00454436)
(0 0 0.00453966)
(0 0 0.00453414)
(0 0 0.00452781)
(0 0 0.00452066)
(0 0 0.00451271)
(0 0 0.00450397)
(0 0 0.00449443)
(0 0 0.00448412)
(0 0 0.00447303)
(0 0 0.00446118)
(0 0 0.00444857)
(0 0 0.00443522)
(0 0 0.00442113)
(0 0 0.0044063)
(0 0 0.00439076)
(0 0 0.00437451)
(0 0 0.00435755)
(0 0 0.0043399)
(0 0 0.00432156)
(0 0 0.00430255)
(0 0 0.00428288)
(0 0 0.00426255)
(0 0 0.00424158)
(0 0 0.00421997)
(0 0 0.00419773)
(0 0 0.00417488)
(0 0 0.00415142)
(0 0 0.00412737)
(0 0 0.00410273)
(0 0 0.00407751)
(0 0 0.00405173)
(0 0 0.00402539)
(0 0 0.0039985)
(0 0 0.00397108)
(0 0 0.00394313)
(0 0 0.00391466)
(0 0 0.00388568)
(0 0 0.00385621)
(0 0 0.00382624)
(0 0 0.0037958)
(0 0 0.00376488)
(0 0 0.00373351)
(0 0 0.00370168)
(0 0 0.00366941)
(0 0 0.00363671)
(0 0 0.00360359)
(0 0 0.00357005)
(0 0 0.0035361)
(0 0 0.00350176)
(0 0 0.00346703)
(0 0 0.00343192)
(0 0 0.00339644)
(0 0 0.00336059)
(0 0 0.00332439)
(0 0 0.00328785)
(0 0 0.00325097)
(0 0 0.00321376)
(0 0 0.00317623)
(0 0 0.00313838)
(0 0 0.00310023)
(0 0 0.00306178)
(0 0 0.00302304)
(0 0 0.00298402)
(0 0 0.00294472)
(0 0 0.00290516)
(0 0 0.00286533)
(0 0 0.00282526)
(0 0 0.00278493)
(0 0 0.00274436)
(0 0 0.00270357)
(0 0 0.00266254)
(0 0 0.0026213)
(0 0 0.00257984)
(0 0 0.00253818)
(0 0 0.00249631)
(0 0 0.00245425)
(0 0 0.002412)
(0 0 0.00236957)
(0 0 0.00232697)
(0 0 0.00228419)
(0 0 0.00224124)
(0 0 0.00219814)
(0 0 0.00215488)
(0 0 0.00211147)
(0 0 0.00206792)
(0 0 0.00202423)
(0 0 0.00198041)
(0 0 0.00193645)
(0 0 0.00189237)
(0 0 0.00184817)
(0 0 0.00180386)
(0 0 0.00175943)
(0 0 0.0017149)
(0 0 0.00167027)
(0 0 0.00162553)
(0 0 0.0015807)
(0 0 0.00153578)
(0 0 0.00149078)
(0 0 0.00144569)
(0 0 0.00140052)
(0 0 0.00135527)
(0 0 0.00130995)
(0 0 0.00126457)
(0 0 0.00121911)
(0 0 0.0011736)
(0 0 0.00112802)
(0 0 0.00108239)
(0 0 0.0010367)
(0 0 0.000990966)
(0 0 0.00094518)
(0 0 0.000899349)
(0 0 0.000853475)
(0 0 0.00080756)
(0 0 0.000761608)
(0 0 0.000715621)
(0 0 0.000669601)
(0 0 0.000623551)
(0 0 0.000577472)
(0 0 0.000531368)
(0 0 0.00048524)
(0 0 0.00043909)
(0 0 0.000392921)
(0 0 0.000346735)
(0 0 0.000300534)
(0 0 0.00025432)
(0 0 0.000208095)
(0 0 0.000161861)
(0 0 0.00011562)
(0 0 6.93738e-05)
(0 0 2.31249e-05)
(0 0 4.47423e-05)
(0 0 0.000134225)
(0 0 0.0002237)
(0 0 0.000313164)
(0 0 0.000402612)
(0 0 0.000492038)
(0 0 0.00058144)
(0 0 0.00067081)
(0 0 0.000760145)
(0 0 0.000849439)
(0 0 0.000938688)
(0 0 0.00102789)
(0 0 0.00111703)
(0 0 0.0012061)
(0 0 0.00129511)
(0 0 0.00138405)
(0 0 0.0014729)
(0 0 0.00156167)
(0 0 0.00165035)
(0 0 0.00173892)
(0 0 0.00182738)
(0 0 0.00191573)
(0 0 0.00200396)
(0 0 0.00209205)
(0 0 0.00218001)
(0 0 0.00226781)
(0 0 0.00235546)
(0 0 0.00244294)
(0 0 0.00253024)
(0 0 0.00261735)
(0 0 0.00270427)
(0 0 0.00279097)
(0 0 0.00287746)
(0 0 0.00296372)
(0 0 0.00304973)
(0 0 0.00313548)
(0 0 0.00322097)
(0 0 0.00330617)
(0 0 0.00339108)
(0 0 0.00347567)
(0 0 0.00355995)
(0 0 0.00364388)
(0 0 0.00372746)
(0 0 0.00381066)
(0 0 0.00389348)
(0 0 0.0039759)
(0 0 0.00405789)
(0 0 0.00413945)
(0 0 0.00422055)
(0 0 0.00430118)
(0 0 0.00438132)
(0 0 0.00446095)
(0 0 0.00454005)
(0 0 0.00461859)
(0 0 0.00469657)
(0 0 0.00477397)
(0 0 0.00485075)
(0 0 0.0049269)
(0 0 0.0050024)
(0 0 0.00507723)
(0 0 0.00515137)
(0 0 0.00522479)
(0 0 0.00529748)
(0 0 0.0053694)
(0 0 0.00544055)
(0 0 0.0055109)
(0 0 0.00558042)
(0 0 0.0056491)
(0 0 0.0057169)
(0 0 0.00578382)
(0 0 0.00584982)
(0 0 0.00591489)
(0 0 0.00597901)
(0 0 0.00604214)
(0 0 0.00610427)
(0 0 0.00616539)
(0 0 0.00622545)
(0 0 0.00628446)
(0 0 0.00634238)
(0 0 0.00639919)
(0 0 0.00645487)
(0 0 0.00650941)
(0 0 0.00656279)
(0 0 0.00661498)
(0 0 0.00666597)
(0 0 0.00671573)
(0 0 0.00676426)
(0 0 0.00681153)
(0 0 0.00685753)
(0 0 0.00690224)
(0 0 0.00694564)
(0 0 0.00698773)
(0 0 0.00702848)
(0 0 0.00706788)
(0 0 0.00710593)
(0 0 0.0071426)
(0 0 0.00717789)
(0 0 0.00721179)
(0 0 0.00724428)
(0 0 0.00727536)
(0 0 0.00730501)
(0 0 0.00733324)
(0 0 0.00736002)
(0 0 0.00738537)
(0 0 0.00740927)
(0 0 0.00743171)
(0 0 0.00745269)
(0 0 0.00747222)
(0 0 0.00749028)
(0 0 0.00750688)
(0 0 0.00752201)
(0 0 0.00753568)
(0 0 0.00754788)
(0 0 0.00755862)
(0 0 0.0075679)
(0 0 0.00757572)
(0 0 0.00758208)
(0 0 0.007587)
(0 0 0.00759047)
(0 0 0.0075925)
(0 0 0.0075931)
(0 0 0.00759227)
(0 0 0.00759002)
(0 0 0.00758637)
(0 0 0.00758131)
(0 0 0.00757485)
(0 0 0.00756702)
(0 0 0.00755781)
(0 0 0.00754725)
(0 0 0.00753533)
(0 0 0.00752207)
(0 0 0.00750749)
(0 0 0.00749159)
(0 0 0.00747439)
(0 0 0.0074559)
(0 0 0.00743614)
(0 0 0.00741512)
(0 0 0.00739285)
(0 0 0.00736936)
(0 0 0.00734464)
(0 0 0.00731873)
(0 0 0.00729162)
(0 0 0.00726335)
(0 0 0.00723392)
(0 0 0.00720335)
(0 0 0.00717166)
(0 0 0.00713886)
(0 0 0.00710497)
(0 0 0.00707)
(0 0 0.00703397)
(0 0 0.0069969)
(0 0 0.00695881)
(0 0 0.0069197)
(0 0 0.0068796)
(0 0 0.00683852)
(0 0 0.00679649)
(0 0 0.0067535)
(0 0 0.00670959)
(0 0 0.00666477)
(0 0 0.00661905)
(0 0 0.00657246)
(0 0 0.006525)
(0 0 0.00647669)
(0 0 0.00642755)
(0 0 0.0063776)
(0 0 0.00632685)
(0 0 0.00627532)
(0 0 0.00622301)
(0 0 0.00616996)
(0 0 0.00611617)
(0 0 0.00606166)
(0 0 0.00600644)
(0 0 0.00595053)
(0 0 0.00589394)
(0 0 0.0058367)
(0 0 0.0057788)
(0 0 0.00572027)
(0 0 0.00566113)
(0 0 0.00560138)
(0 0 0.00554104)
(0 0 0.00548013)
(0 0 0.00541865)
(0 0 0.00535662)
(0 0 0.00529406)
(0 0 0.00523098)
(0 0 0.00516738)
(0 0 0.00510329)
(0 0 0.00503872)
(0 0 0.00497368)
(0 0 0.00490817)
(0 0 0.00484222)
(0 0 0.00477584)
(0 0 0.00470903)
(0 0 0.00464182)
(0 0 0.0045742)
(0 0 0.00450619)
(0 0 0.00443781)
(0 0 0.00436907)
(0 0 0.00429996)
(0 0 0.00423052)
(0 0 0.00416073)
(0 0 0.00409063)
(0 0 0.00402021)
(0 0 0.00394948)
(0 0 0.00387847)
(0 0 0.00380716)
(0 0 0.00373558)
(0 0 0.00366374)
(0 0 0.00359164)
(0 0 0.00351929)
(0 0 0.00344669)
(0 0 0.00337387)
(0 0 0.00330082)
(0 0 0.00322756)
(0 0 0.00315409)
(0 0 0.00308042)
(0 0 0.00300656)
(0 0 0.00293251)
(0 0 0.00285828)
(0 0 0.00278389)
(0 0 0.00270932)
(0 0 0.00263461)
(0 0 0.00255974)
(0 0 0.00248472)
(0 0 0.00240957)
(0 0 0.00233428)
(0 0 0.00225887)
(0 0 0.00218334)
(0 0 0.00210769)
(0 0 0.00203193)
(0 0 0.00195606)
(0 0 0.0018801)
(0 0 0.00180404)
(0 0 0.0017279)
(0 0 0.00165166)
(0 0 0.00157535)
(0 0 0.00149896)
(0 0 0.0014225)
(0 0 0.00134598)
(0 0 0.00126939)
(0 0 0.00119274)
(0 0 0.00111604)
(0 0 0.00103928)
(0 0 0.000962483)
(0 0 0.000885639)
(0 0 0.000808757)
(0 0 0.000731838)
(0 0 0.000654888)
(0 0 0.000577909)
(0 0 0.000500905)
(0 0 0.000423879)
(0 0 0.000346835)
(0 0 0.000269776)
(0 0 0.000192705)
(0 0 0.000115626)
(0 0 3.85427e-05)
(0 0 6.26425e-05)
(0 0 0.000187924)
(0 0 0.000313196)
(0 0 0.000438452)
(0 0 0.000563686)
(0 0 0.00068889)
(0 0 0.000814058)
(0 0 0.000939184)
(0 0 0.00106426)
(0 0 0.00118928)
(0 0 0.00131424)
(0 0 0.00143912)
(0 0 0.00156392)
(0 0 0.00168864)
(0 0 0.00181326)
(0 0 0.00193778)
(0 0 0.00206219)
(0 0 0.00218647)
(0 0 0.00231063)
(0 0 0.00243464)
(0 0 0.0025585)
(0 0 0.0026822)
(0 0 0.00280573)
(0 0 0.00292907)
(0 0 0.00305222)
(0 0 0.00317516)
(0 0 0.00329787)
(0 0 0.00342036)
(0 0 0.00354259)
(0 0 0.00366457)
(0 0 0.00378627)
(0 0 0.00390767)
(0 0 0.00402877)
(0 0 0.00414955)
(0 0 0.00426998)
(0 0 0.00439005)
(0 0 0.00450975)
(0 0 0.00462906)
(0 0 0.00474794)
(0 0 0.0048664)
(0 0 0.0049844)
(0 0 0.00510193)
(0 0 0.00521896)
(0 0 0.00533547)
(0 0 0.00545144)
(0 0 0.00556684)
(0 0 0.00568166)
(0 0 0.00579587)
(0 0 0.00590944)
(0 0 0.00602235)
(0 0 0.00613456)
(0 0 0.00624607)
(0 0 0.00635683)
(0 0 0.00646683)
(0 0 0.00657603)
(0 0 0.00668441)
(0 0 0.00679193)
(0 0 0.00689857)
(0 0 0.0070043)
(0 0 0.00710909)
(0 0 0.00721292)
(0 0 0.00731574)
(0 0 0.00741753)
(0 0 0.00751826)
(0 0 0.0076179)
(0 0 0.00771641)
(0 0 0.00781377)
(0 0 0.00790995)
(0 0 0.00800491)
(0 0 0.00809863)
(0 0 0.00819106)
(0 0 0.00828219)
(0 0 0.00837198)
(0 0 0.0084604)
(0 0 0.00854742)
(0 0 0.008633)
(0 0 0.00871713)
(0 0 0.00879976)
(0 0 0.00888087)
(0 0 0.00896044)
(0 0 0.00903843)
(0 0 0.00911481)
(0 0 0.00918956)
(0 0 0.00926266)
(0 0 0.00933406)
(0 0 0.00940376)
(0 0 0.00947172)
(0 0 0.00953793)
(0 0 0.00960234)
(0 0 0.00966496)
(0 0 0.00972575)
(0 0 0.00978469)
(0 0 0.00984176)
(0 0 0.00989694)
(0 0 0.00995022)
(0 0 0.0100016)
(0 0 0.010051)
(0 0 0.0100985)
(0 0 0.010144)
(0 0 0.0101875)
(0 0 0.010229)
(0 0 0.0102685)
(0 0 0.0103061)
(0 0 0.0103415)
(0 0 0.010375)
(0 0 0.0104064)
(0 0 0.0104358)
(0 0 0.0104632)
(0 0 0.0104884)
(0 0 0.0105117)
(0 0 0.0105329)
(0 0 0.010552)
(0 0 0.0105691)
(0 0 0.0105841)
(0 0 0.0105971)
(0 0 0.010608)
(0 0 0.0106169)
(0 0 0.0106238)
(0 0 0.0106287)
(0 0 0.0106315)
(0 0 0.0106323)
(0 0 0.0106312)
(0 0 0.010628)
(0 0 0.0106229)
(0 0 0.0106158)
(0 0 0.0106067)
(0 0 0.0105958)
(0 0 0.0105828)
(0 0 0.010568)
(0 0 0.0105513)
(0 0 0.0105328)
(0 0 0.0105123)
(0 0 0.01049)
(0 0 0.0104659)
(0 0 0.01044)
(0 0 0.0104124)
(0 0 0.0103829)
(0 0 0.0103517)
(0 0 0.0103188)
(0 0 0.0102842)
(0 0 0.0102479)
(0 0 0.0102099)
(0 0 0.0101703)
(0 0 0.0101291)
(0 0 0.0100863)
(0 0 0.0100419)
(0 0 0.00999593)
(0 0 0.00994846)
(0 0 0.00989948)
(0 0 0.00984902)
(0 0 0.0097971)
(0 0 0.00974374)
(0 0 0.00968897)
(0 0 0.00963281)
(0 0 0.00957528)
(0 0 0.0095164)
(0 0 0.0094562)
(0 0 0.00939471)
(0 0 0.00933193)
(0 0 0.00926791)
(0 0 0.00920265)
(0 0 0.00913618)
(0 0 0.00906853)
(0 0 0.00899972)
(0 0 0.00892976)
(0 0 0.00885869)
(0 0 0.00878652)
(0 0 0.00871327)
(0 0 0.00863898)
(0 0 0.00856365)
(0 0 0.00848731)
(0 0 0.00840998)
(0 0 0.00833169)
(0 0 0.00825245)
(0 0 0.00817228)
(0 0 0.00809121)
(0 0 0.00800925)
(0 0 0.00792643)
(0 0 0.00784276)
(0 0 0.00775826)
(0 0 0.00767296)
(0 0 0.00758688)
(0 0 0.00750002)
(0 0 0.00741242)
(0 0 0.00732408)
(0 0 0.00723503)
(0 0 0.00714529)
(0 0 0.00705487)
(0 0 0.00696379)
(0 0 0.00687207)
(0 0 0.00677972)
(0 0 0.00668677)
(0 0 0.00659322)
(0 0 0.0064991)
(0 0 0.00640442)
(0 0 0.0063092)
(0 0 0.00621345)
(0 0 0.00611719)
(0 0 0.00602043)
(0 0 0.00592319)
(0 0 0.00582548)
(0 0 0.00572732)
(0 0 0.00562872)
(0 0 0.00552969)
(0 0 0.00543025)
(0 0 0.00533041)
(0 0 0.00523019)
(0 0 0.0051296)
(0 0 0.00502864)
(0 0 0.00492734)
(0 0 0.0048257)
(0 0 0.00472373)
(0 0 0.00462145)
(0 0 0.00451888)
(0 0 0.00441601)
(0 0 0.00431286)
(0 0 0.00420944)
(0 0 0.00410576)
(0 0 0.00400184)
(0 0 0.00389767)
(0 0 0.00379327)
(0 0 0.00368866)
(0 0 0.00358383)
(0 0 0.0034788)
(0 0 0.00337358)
(0 0 0.00326817)
(0 0 0.00316259)
(0 0 0.00305683)
(0 0 0.00295092)
(0 0 0.00284485)
(0 0 0.00273863)
(0 0 0.00263227)
(0 0 0.00252579)
(0 0 0.00241917)
(0 0 0.00231244)
(0 0 0.0022056)
(0 0 0.00209865)
(0 0 0.0019916)
(0 0 0.00188445)
(0 0 0.00177722)
(0 0 0.00166991)
(0 0 0.00156252)
(0 0 0.00145506)
(0 0 0.00134754)
(0 0 0.00123995)
(0 0 0.00113231)
(0 0 0.00102462)
(0 0 0.000916883)
(0 0 0.000809108)
(0 0 0.000701297)
(0 0 0.000593456)
(0 0 0.00048559)
(0 0 0.000377702)
(0 0 0.000269799)
(0 0 0.000161884)
(0 0 5.3962e-05)
(0 0 8.05459e-05)
(0 0 0.000241634)
(0 0 0.000402709)
(0 0 0.000563763)
(0 0 0.000724789)
(0 0 0.000885778)
(0 0 0.00104672)
(0 0 0.00120761)
(0 0 0.00136843)
(0 0 0.00152918)
(0 0 0.00168985)
(0 0 0.00185043)
(0 0 0.00201091)
(0 0 0.00217128)
(0 0 0.00233152)
(0 0 0.00249163)
(0 0 0.0026516)
(0 0 0.00281141)
(0 0 0.00297105)
(0 0 0.00313051)
(0 0 0.00328978)
(0 0 0.00344884)
(0 0 0.00360768)
(0 0 0.00376628)
(0 0 0.00392464)
(0 0 0.00408272)
(0 0 0.00424053)
(0 0 0.00439803)
(0 0 0.00455522)
(0 0 0.00471207)
(0 0 0.00486856)
(0 0 0.00502468)
(0 0 0.00518041)
(0 0 0.00533572)
(0 0 0.00549059)
(0 0 0.005645)
(0 0 0.00579893)
(0 0 0.00595236)
(0 0 0.00610525)
(0 0 0.00625758)
(0 0 0.00640933)
(0 0 0.00656047)
(0 0 0.00671098)
(0 0 0.00686082)
(0 0 0.00700996)
(0 0 0.00715838)
(0 0 0.00730605)
(0 0 0.00745293)
(0 0 0.00759899)
(0 0 0.0077442)
(0 0 0.00788852)
(0 0 0.00803193)
(0 0 0.00817439)
(0 0 0.00831586)
(0 0 0.00845631)
(0 0 0.0085957)
(0 0 0.00873399)
(0 0 0.00887116)
(0 0 0.00900715)
(0 0 0.00914193)
(0 0 0.00927547)
(0 0 0.00940772)
(0 0 0.00953864)
(0 0 0.00966821)
(0 0 0.00979637)
(0 0 0.00992308)
(0 0 0.0100483)
(0 0 0.010172)
(0 0 0.0102942)
(0 0 0.0104147)
(0 0 0.0105336)
(0 0 0.0106508)
(0 0 0.0107663)
(0 0 0.0108801)
(0 0 0.010992)
(0 0 0.0111021)
(0 0 0.0112103)
(0 0 0.0113166)
(0 0 0.0114209)
(0 0 0.0115233)
(0 0 0.0116236)
(0 0 0.0117218)
(0 0 0.011818)
(0 0 0.011912)
(0 0 0.0120039)
(0 0 0.0120935)
(0 0 0.0121809)
(0 0 0.0122661)
(0 0 0.012349)
(0 0 0.0124295)
(0 0 0.0125077)
(0 0 0.0125835)
(0 0 0.0126569)
(0 0 0.0127279)
(0 0 0.0127964)
(0 0 0.0128625)
(0 0 0.0129261)
(0 0 0.0129871)
(0 0 0.0130456)
(0 0 0.0131016)
(0 0 0.013155)
(0 0 0.0132059)
(0 0 0.0132541)
(0 0 0.0132998)
(0 0 0.0133428)
(0 0 0.0133832)
(0 0 0.013421)
(0 0 0.0134561)
(0 0 0.0134887)
(0 0 0.0135185)
(0 0 0.0135458)
(0 0 0.0135704)
(0 0 0.0135923)
(0 0 0.0136117)
(0 0 0.0136283)
(0 0 0.0136424)
(0 0 0.0136538)
(0 0 0.0136627)
(0 0 0.0136689)
(0 0 0.0136725)
(0 0 0.0136736)
(0 0 0.013672)
(0 0 0.013668)
(0 0 0.0136613)
(0 0 0.0136522)
(0 0 0.0136405)
(0 0 0.0136264)
(0 0 0.0136098)
(0 0 0.0135907)
(0 0 0.0135692)
(0 0 0.0135453)
(0 0 0.013519)
(0 0 0.0134903)
(0 0 0.0134593)
(0 0 0.013426)
(0 0 0.0133904)
(0 0 0.0133525)
(0 0 0.0133123)
(0 0 0.01327)
(0 0 0.0132254)
(0 0 0.0131787)
(0 0 0.0131298)
(0 0 0.0130789)
(0 0 0.0130258)
(0 0 0.0129708)
(0 0 0.0129136)
(0 0 0.0128545)
(0 0 0.0127935)
(0 0 0.0127304)
(0 0 0.0126655)
(0 0 0.0125987)
(0 0 0.0125301)
(0 0 0.0124596)
(0 0 0.0123874)
(0 0 0.0123134)
(0 0 0.0122376)
(0 0 0.0121602)
(0 0 0.0120811)
(0 0 0.0120003)
(0 0 0.011918)
(0 0 0.011834)
(0 0 0.0117486)
(0 0 0.0116615)
(0 0 0.011573)
(0 0 0.011483)
(0 0 0.0113916)
(0 0 0.0112988)
(0 0 0.0112046)
(0 0 0.011109)
(0 0 0.0110121)
(0 0 0.010914)
(0 0 0.0108145)
(0 0 0.0107138)
(0 0 0.0106119)
(0 0 0.0105088)
(0 0 0.0104045)
(0 0 0.0102991)
(0 0 0.0101926)
(0 0 0.010085)
(0 0 0.00997629)
(0 0 0.00986659)
(0 0 0.00975587)
(0 0 0.00964417)
(0 0 0.0095315)
(0 0 0.0094179)
(0 0 0.00930337)
(0 0 0.00918796)
(0 0 0.00907167)
(0 0 0.00895454)
(0 0 0.00883659)
(0 0 0.00871783)
(0 0 0.00859829)
(0 0 0.00847799)
(0 0 0.00835695)
(0 0 0.00823519)
(0 0 0.00811273)
(0 0 0.0079896)
(0 0 0.00786581)
(0 0 0.00774138)
(0 0 0.00761633)
(0 0 0.00749068)
(0 0 0.00736445)
(0 0 0.00723765)
(0 0 0.00711031)
(0 0 0.00698244)
(0 0 0.00685405)
(0 0 0.00672517)
(0 0 0.00659581)
(0 0 0.00646599)
(0 0 0.00633572)
(0 0 0.00620502)
(0 0 0.0060739)
(0 0 0.00594239)
(0 0 0.00581048)
(0 0 0.0056782)
(0 0 0.00554556)
(0 0 0.00541258)
(0 0 0.00527926)
(0 0 0.00514563)
(0 0 0.00501168)
(0 0 0.00487745)
(0 0 0.00474292)
(0 0 0.00460813)
(0 0 0.00447308)
(0 0 0.00433778)
(0 0 0.00420224)
(0 0 0.00406647)
(0 0 0.00393049)
(0 0 0.0037943)
(0 0 0.00365791)
(0 0 0.00352133)
(0 0 0.00338458)
(0 0 0.00324765)
(0 0 0.00311057)
(0 0 0.00297333)
(0 0 0.00283595)
(0 0 0.00269843)
(0 0 0.00256079)
(0 0 0.00242302)
(0 0 0.00228514)
(0 0 0.00214716)
(0 0 0.00200908)
(0 0 0.00187091)
(0 0 0.00173265)
(0 0 0.00159432)
(0 0 0.00145591)
(0 0 0.00131744)
(0 0 0.00117892)
(0 0 0.00104034)
(0 0 0.000901719)
(0 0 0.000763059)
(0 0 0.000624365)
(0 0 0.000485645)
(0 0 0.000346904)
(0 0 0.000208148)
(0 0 6.93837e-05)
(0 0 9.84534e-05)
(0 0 0.000295355)
(0 0 0.000492242)
(0 0 0.000689104)
(0 0 0.00088593)
(0 0 0.00108271)
(0 0 0.00127944)
(0 0 0.0014761)
(0 0 0.00167268)
(0 0 0.00186917)
(0 0 0.00206557)
(0 0 0.00226185)
(0 0 0.00245801)
(0 0 0.00265403)
(0 0 0.00284991)
(0 0 0.00304562)
(0 0 0.00324116)
(0 0 0.00343651)
(0 0 0.00363165)
(0 0 0.00382658)
(0 0 0.00402126)
(0 0 0.0042157)
(0 0 0.00440987)
(0 0 0.00460375)
(0 0 0.00479733)
(0 0 0.00499058)
(0 0 0.00518348)
(0 0 0.00537602)
(0 0 0.00556817)
(0 0 0.00575992)
(0 0 0.00595123)
(0 0 0.00614208)
(0 0 0.00633246)
(0 0 0.00652233)
(0 0 0.00671166)
(0 0 0.00690044)
(0 0 0.00708862)
(0 0 0.00727619)
(0 0 0.00746311)
(0 0 0.00764935)
(0 0 0.00783488)
(0 0 0.00801966)
(0 0 0.00820367)
(0 0 0.00838686)
(0 0 0.00856921)
(0 0 0.00875068)
(0 0 0.00893122)
(0 0 0.0091108)
(0 0 0.00928939)
(0 0 0.00946694)
(0 0 0.0096434)
(0 0 0.00981875)
(0 0 0.00999294)
(0 0 0.0101659)
(0 0 0.0103377)
(0 0 0.0105081)
(0 0 0.0106772)
(0 0 0.0108449)
(0 0 0.0110112)
(0 0 0.011176)
(0 0 0.0113393)
(0 0 0.011501)
(0 0 0.0116611)
(0 0 0.0118196)
(0 0 0.0119763)
(0 0 0.0121312)
(0 0 0.0122844)
(0 0 0.0124357)
(0 0 0.012585)
(0 0 0.0127324)
(0 0 0.0128779)
(0 0 0.0130212)
(0 0 0.0131624)
(0 0 0.0133015)
(0 0 0.0134384)
(0 0 0.013573)
(0 0 0.0137054)
(0 0 0.0138354)
(0 0 0.013963)
(0 0 0.0140881)
(0 0 0.0142108)
(0 0 0.014331)
(0 0 0.0144486)
(0 0 0.0145636)
(0 0 0.0146759)
(0 0 0.0147855)
(0 0 0.0148924)
(0 0 0.0149966)
(0 0 0.0150979)
(0 0 0.0151964)
(0 0 0.015292)
(0 0 0.0153847)
(0 0 0.0154745)
(0 0 0.0155613)
(0 0 0.0156451)
(0 0 0.0157259)
(0 0 0.0158036)
(0 0 0.0158783)
(0 0 0.0159499)
(0 0 0.0160183)
(0 0 0.0160836)
(0 0 0.0161458)
(0 0 0.0162048)
(0 0 0.0162606)
(0 0 0.0163132)
(0 0 0.0163626)
(0 0 0.0164088)
(0 0 0.0164518)
(0 0 0.0164915)
(0 0 0.016528)
(0 0 0.0165613)
(0 0 0.0165914)
(0 0 0.0166182)
(0 0 0.0166418)
(0 0 0.0166622)
(0 0 0.0166794)
(0 0 0.0166934)
(0 0 0.0167041)
(0 0 0.0167117)
(0 0 0.0167161)
(0 0 0.0167174)
(0 0 0.0167155)
(0 0 0.0167105)
(0 0 0.0167024)
(0 0 0.0166911)
(0 0 0.0166769)
(0 0 0.0166595)
(0 0 0.0166392)
(0 0 0.0166158)
(0 0 0.0165895)
(0 0 0.0165602)
(0 0 0.016528)
(0 0 0.016493)
(0 0 0.016455)
(0 0 0.0164142)
(0 0 0.0163706)
(0 0 0.0163242)
(0 0 0.0162751)
(0 0 0.0162233)
(0 0 0.0161688)
(0 0 0.0161116)
(0 0 0.0160519)
(0 0 0.0159895)
(0 0 0.0159247)
(0 0 0.0158573)
(0 0 0.0157874)
(0 0 0.0157151)
(0 0 0.0156404)
(0 0 0.0155633)
(0 0 0.0154839)
(0 0 0.0154022)
(0 0 0.0153183)
(0 0 0.0152321)
(0 0 0.0151437)
(0 0 0.0150532)
(0 0 0.0149606)
(0 0 0.0148659)
(0 0 0.0147691)
(0 0 0.0146704)
(0 0 0.0145697)
(0 0 0.014467)
(0 0 0.0143624)
(0 0 0.014256)
(0 0 0.0141478)
(0 0 0.0140378)
(0 0 0.013926)
(0 0 0.0138125)
(0 0 0.0136973)
(0 0 0.0135804)
(0 0 0.0134619)
(0 0 0.0133419)
(0 0 0.0132202)
(0 0 0.0130971)
(0 0 0.0129725)
(0 0 0.0128464)
(0 0 0.0127189)
(0 0 0.01259)
(0 0 0.0124598)
(0 0 0.0123282)
(0 0 0.0121954)
(0 0 0.0120612)
(0 0 0.0119259)
(0 0 0.0117893)
(0 0 0.0116515)
(0 0 0.0115126)
(0 0 0.0113726)
(0 0 0.0112315)
(0 0 0.0110893)
(0 0 0.0109461)
(0 0 0.0108019)
(0 0 0.0106567)
(0 0 0.0105106)
(0 0 0.0103635)
(0 0 0.0102155)
(0 0 0.0100667)
(0 0 0.00991694)
(0 0 0.00976641)
(0 0 0.00961507)
(0 0 0.00946295)
(0 0 0.00931007)
(0 0 0.00915646)
(0 0 0.00900214)
(0 0 0.00884713)
(0 0 0.00869145)
(0 0 0.00853513)
(0 0 0.00837818)
(0 0 0.00822063)
(0 0 0.00806249)
(0 0 0.00790379)
(0 0 0.00774454)
(0 0 0.00758476)
(0 0 0.00742448)
(0 0 0.00726371)
(0 0 0.00710246)
(0 0 0.00694076)
(0 0 0.00677862)
(0 0 0.00661605)
(0 0 0.00645308)
(0 0 0.00628973)
(0 0 0.00612599)
(0 0 0.0059619)
(0 0 0.00579746)
(0 0 0.00563269)
(0 0 0.0054676)
(0 0 0.00530221)
(0 0 0.00513653)
(0 0 0.00497058)
(0 0 0.00480435)
(0 0 0.00463788)
(0 0 0.00447116)
(0 0 0.00430422)
(0 0 0.00413705)
(0 0 0.00396968)
(0 0 0.00380212)
(0 0 0.00363436)
(0 0 0.00346644)
(0 0 0.00329834)
(0 0 0.00313009)
(0 0 0.0029617)
(0 0 0.00279317)
(0 0 0.00262451)
(0 0 0.00245572)
(0 0 0.00228683)
(0 0 0.00211784)
(0 0 0.00194875)
(0 0 0.00177958)
(0 0 0.00161033)
(0 0 0.001441)
(0 0 0.00127162)
(0 0 0.00110218)
(0 0 0.000932694)
(0 0 0.000763167)
(0 0 0.000593608)
(0 0 0.000424024)
(0 0 0.000254421)
(0 0 8.48083e-05)
(0 0 0.000116366)
(0 0 0.000349092)
(0 0 0.0005818)
(0 0 0.000814479)
(0 0 0.00104712)
(0 0 0.0012797)
(0 0 0.00151222)
(0 0 0.00174466)
(0 0 0.00197701)
(0 0 0.00220926)
(0 0 0.00244139)
(0 0 0.00267339)
(0 0 0.00290524)
(0 0 0.00313694)
(0 0 0.00336846)
(0 0 0.00359979)
(0 0 0.00383091)
(0 0 0.00406181)
(0 0 0.00429248)
(0 0 0.00452288)
(0 0 0.004753)
(0 0 0.00498283)
(0 0 0.00521235)
(0 0 0.00544152)
(0 0 0.00567034)
(0 0 0.00589877)
(0 0 0.0061268)
(0 0 0.0063544)
(0 0 0.00658154)
(0 0 0.0068082)
(0 0 0.00703436)
(0 0 0.00725997)
(0 0 0.00748502)
(0 0 0.00770947)
(0 0 0.0079333)
(0 0 0.00815646)
(0 0 0.00837893)
(0 0 0.00860067)
(0 0 0.00882165)
(0 0 0.00904182)
(0 0 0.00926116)
(0 0 0.00947963)
(0 0 0.00969717)
(0 0 0.00991376)
(0 0 0.0101293)
(0 0 0.0103439)
(0 0 0.0105574)
(0 0 0.0107697)
(0 0 0.0109808)
(0 0 0.0111908)
(0 0 0.0113994)
(0 0 0.0116067)
(0 0 0.0118127)
(0 0 0.0120172)
(0 0 0.0122203)
(0 0 0.0124218)
(0 0 0.0126218)
(0 0 0.0128201)
(0 0 0.0130167)
(0 0 0.0132116)
(0 0 0.0134047)
(0 0 0.013596)
(0 0 0.0137853)
(0 0 0.0139726)
(0 0 0.014158)
(0 0 0.0143412)
(0 0 0.0145223)
(0 0 0.0147012)
(0 0 0.0148779)
(0 0 0.0150522)
(0 0 0.0152241)
(0 0 0.0153937)
(0 0 0.0155607)
(0 0 0.0157252)
(0 0 0.0158871)
(0 0 0.0160463)
(0 0 0.0162028)
(0 0 0.0163565)
(0 0 0.0165075)
(0 0 0.0166555)
(0 0 0.0168006)
(0 0 0.0169427)
(0 0 0.0170818)
(0 0 0.0172177)
(0 0 0.0173506)
(0 0 0.0174803)
(0 0 0.0176067)
(0 0 0.0177299)
(0 0 0.0178497)
(0 0 0.0179662)
(0 0 0.0180793)
(0 0 0.0181889)
(0 0 0.0182951)
(0 0 0.0183977)
(0 0 0.0184969)
(0 0 0.0185924)
(0 0 0.0186843)
(0 0 0.0187726)
(0 0 0.0188572)
(0 0 0.0189381)
(0 0 0.0190154)
(0 0 0.0190889)
(0 0 0.0191586)
(0 0 0.0192246)
(0 0 0.0192868)
(0 0 0.0193452)
(0 0 0.0193998)
(0 0 0.0194506)
(0 0 0.0194976)
(0 0 0.0195408)
(0 0 0.0195801)
(0 0 0.0196156)
(0 0 0.0196473)
(0 0 0.0196752)
(0 0 0.0196993)
(0 0 0.0197196)
(0 0 0.0197361)
(0 0 0.0197488)
(0 0 0.0197577)
(0 0 0.0197629)
(0 0 0.0197643)
(0 0 0.0197621)
(0 0 0.0197561)
(0 0 0.0197464)
(0 0 0.0197331)
(0 0 0.0197162)
(0 0 0.0196957)
(0 0 0.0196716)
(0 0 0.0196439)
(0 0 0.0196128)
(0 0 0.0195781)
(0 0 0.01954)
(0 0 0.0194984)
(0 0 0.0194535)
(0 0 0.0194052)
(0 0 0.0193536)
(0 0 0.0192988)
(0 0 0.0192406)
(0 0 0.0191793)
(0 0 0.0191148)
(0 0 0.0190472)
(0 0 0.0189765)
(0 0 0.0189027)
(0 0 0.018826)
(0 0 0.0187463)
(0 0 0.0186636)
(0 0 0.0185781)
(0 0 0.0184897)
(0 0 0.0183985)
(0 0 0.0183046)
(0 0 0.018208)
(0 0 0.0181087)
(0 0 0.0180067)
(0 0 0.0179022)
(0 0 0.0177952)
(0 0 0.0176856)
(0 0 0.0175736)
(0 0 0.0174592)
(0 0 0.0173424)
(0 0 0.0172233)
(0 0 0.0171019)
(0 0 0.0169782)
(0 0 0.0168524)
(0 0 0.0167244)
(0 0 0.0165942)
(0 0 0.016462)
(0 0 0.0163278)
(0 0 0.0161916)
(0 0 0.0160534)
(0 0 0.0159133)
(0 0 0.0157713)
(0 0 0.0156275)
(0 0 0.0154819)
(0 0 0.0153346)
(0 0 0.0151855)
(0 0 0.0150347)
(0 0 0.0148824)
(0 0 0.0147284)
(0 0 0.0145728)
(0 0 0.0144157)
(0 0 0.0142571)
(0 0 0.014097)
(0 0 0.0139356)
(0 0 0.0137727)
(0 0 0.0136085)
(0 0 0.0134429)
(0 0 0.0132761)
(0 0 0.013108)
(0 0 0.0129387)
(0 0 0.0127682)
(0 0 0.0125966)
(0 0 0.0124238)
(0 0 0.0122499)
(0 0 0.0120749)
(0 0 0.011899)
(0 0 0.011722)
(0 0 0.011544)
(0 0 0.0113651)
(0 0 0.0111853)
(0 0 0.0110045)
(0 0 0.010823)
(0 0 0.0106405)
(0 0 0.0104573)