/*--------------------------------*- C++ -*----------------------------------*\
| =========                 |                                                 |
| \\      /  F ield         | OpenFOAM: The Open Source CFD Toolbox           |
|  \\    /   O peration     | Version:  v2012                                 |
|   \\  /    A nd           | Website:  www.openfoam.com                      |
|    \\/     M anipulation  |                                                 |
\*---------------------------------------------------------------------------*/
FoamFile
{
    version     2.0;
    format      ascii;
    class       volVectorField;
    location    "4";
    object      U;
}
// * * * * * * * * * * * * * * * * * * * * * * * * * * * * * * * * * * * * * //

dimensions      [0 1 -1 0 0 0 0];


internalField   nonuniform List<vector> 
65536
(
(0.000728009 -0.000727992 0)
(0.00218399 -0.000727952 0)
(0.00363985 -0.000727875 0)
(0.00509552 -0.00072776 0)
(0.00655093 -0.000727607 0)
(0.00800599 -0.000727414 0)
(0.00946062 -0.000727181 0)
(0.0109147 -0.000726907 0)
(0.0123683 -0.000726591 0)
(0.0138212 -0.000726233 0)
(0.0152733 -0.000725832 0)
(0.0167245 -0.000725385 0)
(0.0181748 -0.000724892 0)
(0.0196241 -0.000724352 0)
(0.0210723 -0.000723762 0)
(0.0225192 -0.000723122 0)
(0.0239648 -0.000722429 0)
(0.025409 -0.000721681 0)
(0.0268516 -0.000720877 0)
(0.0282926 -0.000720014 0)
(0.0297317 -0.00071909 0)
(0.031169 -0.000718104 0)
(0.0326042 -0.000717051 0)
(0.0340372 -0.000715931 0)
(0.035468 -0.000714741 0)
(0.0368963 -0.000713477 0)
(0.038322 -0.000712137 0)
(0.0397449 -0.000710719 0)
(0.0411649 -0.00070922 0)
(0.0425819 -0.000707636 0)
(0.0439955 -0.000705964 0)
(0.0454058 -0.000704202 0)
(0.0468124 -0.000702347 0)
(0.0482153 -0.000700395 0)
(0.0496141 -0.000698343 0)
(0.0510088 -0.000696188 0)
(0.052399 -0.000693927 0)
(0.0537846 -0.000691556 0)
(0.0551653 -0.000689072 0)
(0.056541 -0.000686473 0)
(0.0579113 -0.000683754 0)
(0.0592761 -0.000680912 0)
(0.0606351 -0.000677944 0)
(0.061988 -0.000674848 0)
(0.0633346 -0.000671618 0)
(0.0646746 -0.000668254 0)
(0.0660078 -0.00066475 0)
(0.0673338 -0.000661105 0)
(0.0686523 -0.000657316 0)
(0.0699632 -0.000653378 0)
(0.071266 -0.00064929 0)
(0.0725605 -0.000645049 0)
(0.0738463 -0.000640652 0)
(0.0751232 -0.000636096 0)
(0.0763909 -0.00063138 0)
(0.0776489 -0.0006265 0)
(0.078897 -0.000621454 0)
(0.0801349 -0.000616241 0)
(0.0813622 -0.000610858 0)
(0.0825785 -0.000605304 0)
(0.0837836 -0.000599578 0)
(0.084977 -0.000593677 0)
(0.0861584 -0.0005876 0)
(0.0873276 -0.000581347 0)
(0.088484 -0.000574916 0)
(0.0896274 -0.000568307 0)
(0.0907574 -0.00056152 0)
(0.0918737 -0.000554553 0)
(0.0929758 -0.000547408 0)
(0.0940635 -0.000540084 0)
(0.0951363 -0.000532581 0)
(0.096194 -0.000524901 0)
(0.0972361 -0.000517044 0)
(0.0982623 -0.000509011 0)
(0.0992723 -0.000500803 0)
(0.100266 -0.000492423 0)
(0.101242 -0.000483871 0)
(0.102201 -0.000475151 0)
(0.103143 -0.000466263 0)
(0.104067 -0.000457212 0)
(0.104972 -0.000447998 0)
(0.105859 -0.000438627 0)
(0.106727 -0.000429099 0)
(0.107575 -0.00041942 0)
(0.108404 -0.000409593 0)
(0.109214 -0.000399621 0)
(0.110003 -0.000389509 0)
(0.110772 -0.000379261 0)
(0.11152 -0.000368881 0)
(0.112248 -0.000358374 0)
(0.112954 -0.000347745 0)
(0.113639 -0.000336999 0)
(0.114302 -0.000326142 0)
(0.114943 -0.000315177 0)
(0.115563 -0.000304112 0)
(0.11616 -0.000292951 0)
(0.116735 -0.0002817 0)
(0.117287 -0.000270365 0)
(0.117816 -0.000258952 0)
(0.118323 -0.000247467 0)
(0.118806 -0.000235916 0)
(0.119266 -0.000224305 0)
(0.119703 -0.00021264 0)
(0.120117 -0.000200928 0)
(0.120507 -0.000189175 0)
(0.120874 -0.000177387 0)
(0.121217 -0.00016557 0)
(0.121536 -0.00015373 0)
(0.121832 -0.000141875 0)
(0.122104 -0.000130009 0)
(0.122352 -0.000118139 0)
(0.122576 -0.000106271 0)
(0.122777 -9.44116e-05 0)
(0.122954 -8.25661e-05 0)
(0.123107 -7.07404e-05 0)
(0.123237 -5.89404e-05 0)
(0.123343 -4.71715e-05 0)
(0.123425 -3.54394e-05 0)
(0.123485 -2.37495e-05 0)
(0.12352 -1.21069e-05 0)
(0.123533 -5.16855e-07 0)
(0.123522 1.10157e-05 0)
(0.123489 2.24859e-05 0)
(0.123432 3.38892e-05 0)
(0.123353 4.5221e-05 0)
(0.123251 5.64768e-05 0)
(0.123127 6.76527e-05 0)
(0.122981 7.87445e-05 0)
(0.122812 8.97484e-05 0)
(0.122622 0.000100661 0)
(0.122409 0.000111478 0)
(0.122176 0.000122197 0)
(0.12192 0.000132814 0)
(0.121644 0.000143327 0)
(0.121347 0.000153732 0)
(0.121029 0.000164028 0)
(0.120691 0.000174211 0)
(0.120332 0.000184279 0)
(0.119954 0.00019423 0)
(0.119555 0.000204063 0)
(0.119137 0.000213775 0)
(0.1187 0.000223364 0)
(0.118244 0.00023283 0)
(0.117769 0.000242171 0)
(0.117275 0.000251385 0)
(0.116763 0.000260471 0)
(0.116233 0.000269429 0)
(0.115685 0.000278258 0)
(0.11512 0.000286957 0)
(0.114537 0.000295525 0)
(0.113937 0.000303963 0)
(0.113321 0.000312269 0)
(0.112688 0.000320443 0)
(0.112039 0.000328485 0)
(0.111374 0.000336396 0)
(0.110693 0.000344175 0)
(0.109997 0.000351823 0)
(0.109286 0.000359339 0)
(0.10856 0.000366724 0)
(0.107819 0.000373978 0)
(0.107064 0.000381101 0)
(0.106295 0.000388095 0)
(0.105511 0.00039496 0)
(0.104715 0.000401696 0)
(0.103904 0.000408304 0)
(0.103081 0.000414785 0)
(0.102245 0.000421139 0)
(0.101397 0.000427368 0)
(0.100536 0.000433472 0)
(0.0996625 0.000439452 0)
(0.0987776 0.000445309 0)
(0.0978812 0.000451044 0)
(0.0969733 0.000456658 0)
(0.0960544 0.000462153 0)
(0.0951246 0.000467528 0)
(0.0941842 0.000472786 0)
(0.0932334 0.000477927 0)
(0.0922724 0.000482952 0)
(0.0913014 0.000487863 0)
(0.0903208 0.000492661 0)
(0.0893307 0.000497347 0)
(0.0883313 0.000501923 0)
(0.0873229 0.000506389 0)
(0.0863057 0.000510746 0)
(0.0852798 0.000514997 0)
(0.0842456 0.000519142 0)
(0.0832031 0.000523184 0)
(0.0821527 0.000527122 0)
(0.0810945 0.000530958 0)
(0.0800288 0.000534694 0)
(0.0789557 0.000538332 0)
(0.0778754 0.000541871 0)
(0.0767881 0.000545315 0)
(0.075694 0.000548664 0)
(0.0745933 0.00055192 0)
(0.0734862 0.000555084 0)
(0.0723729 0.000558157 0)
(0.0712535 0.000561142 0)
(0.0701283 0.000564039 0)
(0.0689973 0.00056685 0)
(0.0678608 0.000569576 0)
(0.0667189 0.000572219 0)
(0.0655718 0.00057478 0)
(0.0644197 0.000577261 0)
(0.0632627 0.000579663 0)
(0.062101 0.000581988 0)
(0.0609347 0.000584238 0)
(0.0597639 0.000586412 0)
(0.0585889 0.000588514 0)
(0.0574098 0.000590545 0)
(0.0562267 0.000592506 0)
(0.0550397 0.000594398 0)
(0.053849 0.000596223 0)
(0.0526548 0.000597983 0)
(0.051457 0.000599678 0)
(0.050256 0.000601311 0)
(0.0490517 0.000602882 0)
(0.0478444 0.000604394 0)
(0.0466341 0.000605847 0)
(0.045421 0.000607243 0)
(0.0442051 0.000608583 0)
(0.0429866 0.000609869 0)
(0.0417655 0.000611102 0)
(0.0405421 0.000612282 0)
(0.0393164 0.000613413 0)
(0.0380884 0.000614494 0)
(0.0368583 0.000615527 0)
(0.0356263 0.000616514 0)
(0.0343922 0.000617454 0)
(0.0331564 0.00061835 0)
(0.0319188 0.000619203 0)
(0.0306795 0.000620014 0)
(0.0294387 0.000620783 0)
(0.0281964 0.000621513 0)
(0.0269526 0.000622203 0)
(0.0257075 0.000622855 0)
(0.0244611 0.000623469 0)
(0.0232136 0.000624048 0)
(0.0219649 0.00062459 0)
(0.0207152 0.000625098 0)
(0.0194645 0.000625572 0)
(0.0182129 0.000626013 0)
(0.0169604 0.000626421 0)
(0.0157072 0.000626797 0)
(0.0144532 0.000627142 0)
(0.0131986 0.000627456 0)
(0.0119433 0.00062774 0)
(0.0106876 0.000627995 0)
(0.00943131 0.00062822 0)
(0.00817465 0.000628416 0)
(0.00691762 0.000628583 0)
(0.00566029 0.000628722 0)
(0.0044027 0.000628833 0)
(0.00314492 0.000628916 0)
(0.00188701 0.000628971 0)
(0.000629012 0.000628999 0)
(0.000728045 -0.00218401 0)
(0.0021841 -0.00218389 0)
(0.00364004 -0.00218366 0)
(0.00509578 -0.00218332 0)
(0.00655126 -0.00218286 0)
(0.0080064 -0.00218228 0)
(0.00946111 -0.00218158 0)
(0.0109153 -0.00218076 0)
(0.0123689 -0.00217981 0)
(0.0138219 -0.00217874 0)
(0.0152741 -0.00217754 0)
(0.0167254 -0.0021762 0)
(0.0181758 -0.00217472 0)
(0.0196252 -0.0021731 0)
(0.0210735 -0.00217133 0)
(0.0225205 -0.00216941 0)
(0.0239662 -0.00216734 0)
(0.0254105 -0.0021651 0)
(0.0268532 -0.00216268 0)
(0.0282943 -0.0021601 0)
(0.0297336 -0.00215733 0)
(0.031171 -0.00215437 0)
(0.0326063 -0.00215122 0)
(0.0340395 -0.00214786 0)
(0.0354704 -0.00214429 0)
(0.0368988 -0.0021405 0)
(0.0383247 -0.00213649 0)
(0.0397478 -0.00213224 0)
(0.041168 -0.00212774 0)
(0.0425851 -0.00212299 0)
(0.0439989 -0.00211798 0)
(0.0454094 -0.0021127 0)
(0.0468162 -0.00210713 0)
(0.0482192 -0.00210128 0)
(0.0496183 -0.00209513 0)
(0.0510131 -0.00208867 0)
(0.0524035 -0.00208189 0)
(0.0537894 -0.00207478 0)
(0.0551703 -0.00206733 0)
(0.0565462 -0.00205953 0)
(0.0579168 -0.00205138 0)
(0.0592818 -0.00204286 0)
(0.0606411 -0.00203396 0)
(0.0619943 -0.00202467 0)
(0.0633411 -0.00201499 0)
(0.0646814 -0.0020049 0)
(0.0660148 -0.00199439 0)
(0.0673411 -0.00198346 0)
(0.06866 -0.00197209 0)
(0.0699711 -0.00196028 0)
(0.0712742 -0.00194802 0)
(0.072569 -0.0019353 0)
(0.0738552 -0.00192211 0)
(0.0751324 -0.00190845 0)
(0.0764004 -0.0018943 0)
(0.0776588 -0.00187966 0)
(0.0789072 -0.00186453 0)
(0.0801454 -0.00184889 0)
(0.081373 -0.00183274 0)
(0.0825897 -0.00181608 0)
(0.0837951 -0.00179891 0)
(0.0849889 -0.0017812 0)
(0.0861707 -0.00176297 0)
(0.0873402 -0.00174422 0)
(0.0884969 -0.00172492 0)
(0.0896407 -0.0017051 0)
(0.0907711 -0.00168474 0)
(0.0918877 -0.00166384 0)
(0.0929902 -0.0016424 0)
(0.0940782 -0.00162043 0)
(0.0951514 -0.00159792 0)
(0.0962094 -0.00157488 0)
(0.0972519 -0.00155131 0)
(0.0982785 -0.00152721 0)
(0.0992888 -0.00150258 0)
(0.100283 -0.00147744 0)
(0.101259 -0.00145178 0)
(0.102219 -0.00142562 0)
(0.103161 -0.00139895 0)
(0.104085 -0.0013718 0)
(0.10499 -0.00134415 0)
(0.105878 -0.00131603 0)
(0.106746 -0.00128745 0)
(0.107595 -0.00125841 0)
(0.108424 -0.00122892 0)
(0.109234 -0.001199 0)
(0.110023 -0.00116866 0)
(0.110792 -0.00113791 0)
(0.111541 -0.00110677 0)
(0.112269 -0.00107525 0)
(0.112975 -0.00104335 0)
(0.11366 -0.00101111 0)
(0.114324 -0.000978533 0)
(0.114965 -0.000945634 0)
(0.115585 -0.000912432 0)
(0.116182 -0.000878943 0)
(0.116757 -0.000845185 0)
(0.117309 -0.000811174 0)
(0.117839 -0.00077693 0)
(0.118346 -0.000742469 0)
(0.118829 -0.000707809 0)
(0.11929 -0.000672971 0)
(0.119727 -0.000637971 0)
(0.12014 -0.000602828 0)
(0.120531 -0.000567562 0)
(0.120897 -0.000532191 0)
(0.12124 -0.000496734 0)
(0.12156 -0.00046121 0)
(0.121855 -0.000425636 0)
(0.122127 -0.000390033 0)
(0.122375 -0.000354417 0)
(0.1226 -0.000318808 0)
(0.1228 -0.000283224 0)
(0.122977 -0.000247681 0)
(0.123131 -0.000212198 0)
(0.12326 -0.000176793 0)
(0.123366 -0.000141481 0)
(0.123449 -0.000106279 0)
(0.123508 -7.1204e-05 0)
(0.123543 -3.62712e-05 0)
(0.123556 -1.49617e-06 0)
(0.123545 3.31063e-05 0)
(0.123512 6.75217e-05 0)
(0.123455 0.000101736 0)
(0.123376 0.000135735 0)
(0.123274 0.000169507 0)
(0.123149 0.000203039 0)
(0.123003 0.000236318 0)
(0.122834 0.000269333 0)
(0.122643 0.000302074 0)
(0.122431 0.000334529 0)
(0.122197 0.000366689 0)
(0.121942 0.000398543 0)
(0.121665 0.000430084 0)
(0.121368 0.000461303 0)
(0.12105 0.000492192 0)
(0.120711 0.000522743 0)
(0.120352 0.00055295 0)
(0.119973 0.000582807 0)
(0.119575 0.000612306 0)
(0.119157 0.000641443 0)
(0.118719 0.000670213 0)
(0.118262 0.000698612 0)
(0.117787 0.000726635 0)
(0.117293 0.000754278 0)
(0.116781 0.000781538 0)
(0.116251 0.000808414 0)
(0.115703 0.000834901 0)
(0.115137 0.000860998 0)
(0.114554 0.000886703 0)
(0.113954 0.000912016 0)
(0.113338 0.000936934 0)
(0.112704 0.000961457 0)
(0.112055 0.000985585 0)
(0.11139 0.00100932 0)
(0.110709 0.00103265 0)
(0.110013 0.0010556 0)
(0.109301 0.00107814 0)
(0.108575 0.0011003 0)
(0.107833 0.00112206 0)
(0.107078 0.00114343 0)
(0.106308 0.00116441 0)
(0.105525 0.00118501 0)
(0.104728 0.00120521 0)
(0.103918 0.00122504 0)
(0.103094 0.00124448 0)
(0.102258 0.00126354 0)
(0.101409 0.00128223 0)
(0.100548 0.00130054 0)
(0.0996744 0.00131848 0)
(0.0987892 0.00133605 0)
(0.0978925 0.00135325 0)
(0.0969845 0.00137009 0)
(0.0960653 0.00138657 0)
(0.0951353 0.0014027 0)
(0.0941946 0.00141847 0)
(0.0932435 0.00143389 0)
(0.0922823 0.00144897 0)
(0.0913112 0.0014637 0)
(0.0903303 0.00147809 0)
(0.08934 0.00149215 0)
(0.0883404 0.00150588 0)
(0.0873317 0.00151927 0)
(0.0863143 0.00153234 0)
(0.0852882 0.0015451 0)
(0.0842538 0.00155753 0)
(0.0832111 0.00156965 0)
(0.0821605 0.00158146 0)
(0.0811021 0.00159297 0)
(0.0800362 0.00160418 0)
(0.0789629 0.00161509 0)
(0.0778824 0.00162571 0)
(0.0767949 0.00163604 0)
(0.0757006 0.00164609 0)
(0.0745998 0.00165585 0)
(0.0734925 0.00166534 0)
(0.072379 0.00167456 0)
(0.0712594 0.00168351 0)
(0.070134 0.0016922 0)
(0.0690029 0.00170063 0)
(0.0678662 0.00170881 0)
(0.0667241 0.00171674 0)
(0.0655769 0.00172442 0)
(0.0644246 0.00173186 0)
(0.0632675 0.00173907 0)
(0.0621056 0.00174604 0)
(0.0609391 0.00175279 0)
(0.0597683 0.00175931 0)
(0.0585931 0.00176561 0)
(0.0574138 0.00177171 0)
(0.0562306 0.00177759 0)
(0.0550435 0.00178326 0)
(0.0538527 0.00178873 0)
(0.0526582 0.00179401 0)
(0.0514604 0.0017991 0)
(0.0502592 0.00180399 0)
(0.0490548 0.00180871 0)
(0.0478474 0.00181324 0)
(0.046637 0.0018176 0)
(0.0454237 0.00182179 0)
(0.0442077 0.0018258 0)
(0.0429891 0.00182966 0)
(0.041768 0.00183336 0)
(0.0405444 0.0018369 0)
(0.0393186 0.00184029 0)
(0.0380905 0.00184353 0)
(0.0368604 0.00184663 0)
(0.0356282 0.00184959 0)
(0.0343941 0.00185241 0)
(0.0331582 0.0018551 0)
(0.0319205 0.00185765 0)
(0.0306811 0.00186008 0)
(0.0294402 0.00186239 0)
(0.0281978 0.00186458 0)
(0.026954 0.00186665 0)
(0.0257088 0.0018686 0)
(0.0244624 0.00187045 0)
(0.0232147 0.00187218 0)
(0.021966 0.00187381 0)
(0.0207162 0.00187533 0)
(0.0194654 0.00187675 0)
(0.0182137 0.00187807 0)
(0.0169612 0.0018793 0)
(0.0157079 0.00188043 0)
(0.0144538 0.00188146 0)
(0.0131992 0.0018824 0)
(0.0119439 0.00188325 0)
(0.010688 0.00188402 0)
(0.00943174 0.00188469 0)
(0.00817502 0.00188528 0)
(0.00691793 0.00188578 0)
(0.00566054 0.0018862 0)
(0.0044029 0.00188653 0)
(0.00314506 0.00188678 0)
(0.00188709 0.00188694 0)
(0.00062904 0.00188702 0)
(0.000728122 -0.00364013 0)
(0.00218433 -0.00363994 0)
(0.00364042 -0.00363956 0)
(0.00509632 -0.00363899 0)
(0.00655196 -0.00363822 0)
(0.00800726 -0.00363726 0)
(0.00946213 -0.0036361 0)
(0.0109165 -0.00363473 0)
(0.0123703 -0.00363316 0)
(0.0138234 -0.00363138 0)
(0.0152758 -0.00362938 0)
(0.0167273 -0.00362715 0)
(0.0181779 -0.00362469 0)
(0.0196275 -0.003622 0)
(0.021076 -0.00361906 0)
(0.0225232 -0.00361586 0)
(0.0239691 -0.00361241 0)
(0.0254136 -0.00360868 0)
(0.0268566 -0.00360467 0)
(0.0282979 -0.00360037 0)
(0.0297374 -0.00359576 0)
(0.0311751 -0.00359084 0)
(0.0326107 -0.00358559 0)
(0.0340441 -0.00358 0)
(0.0354753 -0.00357406 0)
(0.036904 -0.00356776 0)
(0.0383302 -0.00356107 0)
(0.0397536 -0.003554 0)
(0.0411741 -0.00354651 0)
(0.0425916 -0.00353861 0)
(0.0440058 -0.00353027 0)
(0.0454166 -0.00352147 0)
(0.0468238 -0.00351221 0)
(0.0482273 -0.00350247 0)
(0.0496267 -0.00349222 0)
(0.051022 -0.00348147 0)
(0.0524128 -0.00347018 0)
(0.0537991 -0.00345834 0)
(0.0551805 -0.00344594 0)
(0.0565569 -0.00343295 0)
(0.057928 -0.00341938 0)
(0.0592935 -0.00340518 0)
(0.0606532 -0.00339036 0)
(0.0620069 -0.00337489 0)
(0.0633543 -0.00335876 0)
(0.0646952 -0.00334196 0)
(0.0660292 -0.00332446 0)
(0.067356 -0.00330625 0)
(0.0686755 -0.00328731 0)
(0.0699872 -0.00326764 0)
(0.0712909 -0.00324721 0)
(0.0725863 -0.00322602 0)
(0.0738731 -0.00320405 0)
(0.075151 -0.00318128 0)
(0.0764196 -0.00315771 0)
(0.0776786 -0.00313332 0)
(0.0789278 -0.0031081 0)
(0.0801666 -0.00308205 0)
(0.0813949 -0.00305514 0)
(0.0826123 -0.00302738 0)
(0.0838184 -0.00299876 0)
(0.0850129 -0.00296926 0)
(0.0861954 -0.00293888 0)
(0.0873656 -0.00290762 0)
(0.0885231 -0.00287547 0)
(0.0896675 -0.00284243 0)
(0.0907986 -0.00280849 0)
(0.0919159 -0.00277366 0)
(0.0930192 -0.00273793 0)
(0.0941079 -0.00270131 0)
(0.0951818 -0.00266379 0)
(0.0962405 -0.00262539 0)
(0.0972837 -0.0025861 0)
(0.098311 -0.00254592 0)
(0.099322 -0.00250488 0)
(0.100316 -0.00246297 0)
(0.101294 -0.0024202 0)
(0.102254 -0.00237659 0)
(0.103197 -0.00233214 0)
(0.104121 -0.00228687 0)
(0.105028 -0.00224078 0)
(0.105915 -0.00219391 0)
(0.106784 -0.00214626 0)
(0.107634 -0.00209784 0)
(0.108464 -0.00204869 0)
(0.109274 -0.00199881 0)
(0.110064 -0.00194823 0)
(0.110834 -0.00189696 0)
(0.111583 -0.00184504 0)
(0.112311 -0.00179248 0)
(0.113018 -0.00173931 0)
(0.113704 -0.00168556 0)
(0.114367 -0.00163124 0)
(0.115009 -0.00157639 0)
(0.115629 -0.00152104 0)
(0.116227 -0.00146521 0)
(0.116802 -0.00140892 0)
(0.117355 -0.00135222 0)
(0.117885 -0.00129512 0)
(0.118392 -0.00123767 0)
(0.118876 -0.00117988 0)
(0.119336 -0.0011218 0)
(0.119774 -0.00106344 0)
(0.120187 -0.00100485 0)
(0.120578 -0.000946054 0)
(0.120945 -0.000887082 0)
(0.121288 -0.000827966 0)
(0.121607 -0.000768737 0)
(0.121903 -0.000709428 0)
(0.122175 -0.000650068 0)
(0.122423 -0.000590689 0)
(0.122647 -0.00053132 0)
(0.122848 -0.000471993 0)
(0.123025 -0.000412736 0)
(0.123178 -0.000353579 0)
(0.123307 -0.000294551 0)
(0.123413 -0.000235679 0)
(0.123496 -0.000176992 0)
(0.123555 -0.000118516 0)
(0.12359 -6.02776e-05 0)
(0.123602 -2.30255e-06 0)
(0.123591 5.53843e-05 0)
(0.123557 0.000112759 0)
(0.123501 0.000169798 0)
(0.123421 0.000226478 0)
(0.123319 0.000282778 0)
(0.123194 0.000338678 0)
(0.123047 0.000394156 0)
(0.122878 0.000449194 0)
(0.122687 0.000503773 0)
(0.122474 0.000557876 0)
(0.12224 0.000611485 0)
(0.121984 0.000664587 0)
(0.121707 0.000717165 0)
(0.121409 0.000769205 0)
(0.121091 0.000820694 0)
(0.120752 0.000871621 0)
(0.120392 0.000921973 0)
(0.120013 0.00097174 0)
(0.119614 0.00102091 0)
(0.119195 0.00106948 0)
(0.118757 0.00111743 0)
(0.1183 0.00116477 0)
(0.117824 0.00121148 0)
(0.11733 0.00125755 0)
(0.116817 0.00130299 0)
(0.116286 0.00134779 0)
(0.115738 0.00139193 0)
(0.115171 0.00143543 0)
(0.114588 0.00147827 0)
(0.113988 0.00152046 0)
(0.113371 0.00156199 0)
(0.112737 0.00160287 0)
(0.112087 0.00164308 0)
(0.111421 0.00168263 0)
(0.11074 0.00172153 0)
(0.110043 0.00175976 0)
(0.109331 0.00179734 0)
(0.108604 0.00183427 0)
(0.107862 0.00187053 0)
(0.107106 0.00190615 0)
(0.106336 0.00194112 0)
(0.105552 0.00197544 0)
(0.104755 0.00200911 0)
(0.103944 0.00204215 0)
(0.10312 0.00207455 0)
(0.102283 0.00210632 0)
(0.101434 0.00213746 0)
(0.100572 0.00216797 0)
(0.099698 0.00219787 0)
(0.0988124 0.00222715 0)
(0.0979152 0.00225582 0)
(0.0970067 0.00228389 0)
(0.096087 0.00231135 0)
(0.0951565 0.00233822 0)
(0.0942154 0.00236451 0)
(0.0932639 0.00239021 0)
(0.0923022 0.00241533 0)
(0.0913306 0.00243988 0)
(0.0903493 0.00246386 0)
(0.0893585 0.00248729 0)
(0.0883584 0.00251016 0)
(0.0873494 0.00253248 0)
(0.0863315 0.00255426 0)
(0.085305 0.00257551 0)
(0.0842701 0.00259623 0)
(0.0832271 0.00261643 0)
(0.0821761 0.00263611 0)
(0.0811173 0.00265529 0)
(0.0800509 0.00267396 0)
(0.0789772 0.00269214 0)
(0.0778963 0.00270984 0)
(0.0768085 0.00272705 0)
(0.0757138 0.00274379 0)
(0.0746126 0.00276006 0)
(0.073505 0.00277587 0)
(0.0723911 0.00279123 0)
(0.0712712 0.00280615 0)
(0.0701454 0.00282062 0)
(0.0690139 0.00283467 0)
(0.0678769 0.00284829 0)
(0.0667345 0.0028615 0)
(0.065587 0.0028743 0)
(0.0644344 0.0028867 0)
(0.0632769 0.0028987 0)
(0.0621147 0.00291032 0)
(0.060948 0.00292156 0)
(0.0597768 0.00293243 0)
(0.0586014 0.00294293 0)
(0.0574218 0.00295308 0)
(0.0562383 0.00296287 0)
(0.0550509 0.00297232 0)
(0.0538598 0.00298144 0)
(0.0526651 0.00299023 0)
(0.051467 0.0029987 0)
(0.0502656 0.00300686 0)
(0.049061 0.00301471 0)
(0.0478533 0.00302226 0)
(0.0466427 0.00302952 0)
(0.0454292 0.00303649 0)
(0.044213 0.00304319 0)
(0.0429941 0.00304961 0)
(0.0417728 0.00305577 0)
(0.0405491 0.00306167 0)
(0.039323 0.00306731 0)
(0.0380948 0.00307271 0)
(0.0368644 0.00307787 0)
(0.035632 0.0030828 0)
(0.0343978 0.0030875 0)
(0.0331616 0.00309197 0)
(0.0319238 0.00309623 0)
(0.0306843 0.00310028 0)
(0.0294432 0.00310412 0)
(0.0282006 0.00310776 0)
(0.0269566 0.00311121 0)
(0.0257113 0.00311446 0)
(0.0244647 0.00311753 0)
(0.023217 0.00312042 0)
(0.0219681 0.00312313 0)
(0.0207181 0.00312566 0)
(0.0194672 0.00312803 0)
(0.0182154 0.00313023 0)
(0.0169628 0.00313227 0)
(0.0157093 0.00313415 0)
(0.0144552 0.00313587 0)
(0.0132003 0.00313744 0)
(0.0119449 0.00313885 0)
(0.010689 0.00314012 0)
(0.00943258 0.00314125 0)
(0.00817574 0.00314222 0)
(0.00691854 0.00314306 0)
(0.00566104 0.00314375 0)
(0.00440328 0.00314431 0)
(0.00314534 0.00314472 0)
(0.00188726 0.00314499 0)
(0.000629095 0.00314513 0)
(0.000728237 -0.00509646 0)
(0.00218467 -0.00509619 0)
(0.003641 -0.00509566 0)
(0.00509713 -0.00509486 0)
(0.006553 -0.00509379 0)
(0.00800854 -0.00509245 0)
(0.00946365 -0.00509082 0)
(0.0109183 -0.00508892 0)
(0.0123723 -0.00508673 0)
(0.0138257 -0.00508423 0)
(0.0152783 -0.00508144 0)
(0.0167301 -0.00507833 0)
(0.018181 -0.0050749 0)
(0.0196309 -0.00507114 0)
(0.0210797 -0.00506704 0)
(0.0225272 -0.00506258 0)
(0.0239735 -0.00505775 0)
(0.0254183 -0.00505255 0)
(0.0268616 -0.00504695 0)
(0.0283032 -0.00504094 0)
(0.0297432 -0.00503451 0)
(0.0311812 -0.00502763 0)
(0.0326172 -0.0050203 0)
(0.0340511 -0.0050125 0)
(0.0354827 -0.0050042 0)
(0.0369119 -0.00499539 0)
(0.0383385 -0.00498605 0)
(0.0397624 -0.00497617 0)
(0.0411834 -0.00496571 0)
(0.0426014 -0.00495466 0)
(0.0440161 -0.00494301 0)
(0.0454275 -0.00493072 0)
(0.0468353 -0.00491777 0)
(0.0482393 -0.00490415 0)
(0.0496393 -0.00488984 0)
(0.0510352 -0.0048748 0)
(0.0524267 -0.00485901 0)
(0.0538137 -0.00484246 0)
(0.0551958 -0.00482512 0)
(0.0565729 -0.00480697 0)
(0.0579447 -0.00478799 0)
(0.0593109 -0.00476814 0)
(0.0606714 -0.00474741 0)
(0.0620259 -0.00472578 0)
(0.0633741 -0.00470322 0)
(0.0647158 -0.00467971 0)
(0.0660506 -0.00465523 0)
(0.0673783 -0.00462976 0)
(0.0686987 -0.00460327 0)
(0.0700113 -0.00457575 0)
(0.0713159 -0.00454717 0)
(0.0726123 -0.00451752 0)
(0.0739 -0.00448678 0)
(0.0751789 -0.00445492 0)
(0.0764485 -0.00442194 0)
(0.0777085 -0.00438781 0)
(0.0789586 -0.00435252 0)
(0.0801985 -0.00431606 0)
(0.0814278 -0.0042784 0)
(0.0826462 -0.00423955 0)
(0.0838533 -0.00419948 0)
(0.0850489 -0.00415819 0)
(0.0862324 -0.00411567 0)
(0.0874037 -0.00407191 0)
(0.0885623 -0.0040269 0)
(0.0897078 -0.00398065 0)
(0.09084 -0.00393314 0)
(0.0919584 -0.00388438 0)
(0.0930627 -0.00383436 0)
(0.0941525 -0.00378308 0)
(0.0952275 -0.00373056 0)
(0.0962872 -0.00367678 0)
(0.0973315 -0.00362177 0)
(0.0983598 -0.00356552 0)
(0.0993719 -0.00350804 0)
(0.100367 -0.00344936 0)
(0.101346 -0.00338947 0)
(0.102307 -0.00332839 0)
(0.103251 -0.00326614 0)
(0.104176 -0.00320274 0)
(0.105084 -0.00313821 0)
(0.105972 -0.00307256 0)
(0.106842 -0.00300582 0)
(0.107692 -0.00293802 0)
(0.108523 -0.00286917 0)
(0.109334 -0.00279931 0)
(0.110125 -0.00272847 0)
(0.110896 -0.00265667 0)
(0.111646 -0.00258395 0)
(0.112375 -0.00251033 0)
(0.113082 -0.00243586 0)
(0.113768 -0.00236057 0)
(0.114433 -0.00228449 0)
(0.115076 -0.00220766 0)
(0.115696 -0.00213012 0)
(0.116295 -0.00205192 0)
(0.11687 -0.00197308 0)
(0.117423 -0.00189365 0)
(0.117954 -0.00181368 0)
(0.118461 -0.0017332 0)
(0.118945 -0.00165225 0)
(0.119406 -0.00157089 0)
(0.119844 -0.00148915 0)
(0.120258 -0.00140708 0)
(0.120649 -0.00132472 0)
(0.121016 -0.00124212 0)
(0.121359 -0.00115931 0)
(0.121678 -0.00107635 0)
(0.121974 -0.000993269 0)
(0.122246 -0.000910122 0)
(0.122494 -0.000826949 0)
(0.122719 -0.000743791 0)
(0.122919 -0.000660691 0)
(0.123096 -0.000577691 0)
(0.123249 -0.000494831 0)
(0.123378 -0.000412152 0)
(0.123484 -0.000329693 0)
(0.123566 -0.000247493 0)
(0.123625 -0.000165589 0)
(0.12366 -8.40198e-05 0)
(0.123672 -2.81982e-06 0)
(0.12366 7.79756e-05 0)
(0.123626 0.000158333 0)
(0.123569 0.000238219 0)
(0.123489 0.000317602 0)
(0.123386 0.000396451 0)
(0.123261 0.000474739 0)
(0.123113 0.000552435 0)
(0.122944 0.000629514 0)
(0.122752 0.000705949 0)
(0.122539 0.000781716 0)
(0.122304 0.000856792 0)
(0.122047 0.000931155 0)
(0.12177 0.00100478 0)
(0.121471 0.00107766 0)
(0.121152 0.00114976 0)
(0.120812 0.00122107 0)
(0.120452 0.00129158 0)
(0.120072 0.00136127 0)
(0.119673 0.00143012 0)
(0.119253 0.00149813 0)
(0.118814 0.00156528 0)
(0.118357 0.00163156 0)
(0.11788 0.00169696 0)
(0.117385 0.00176147 0)
(0.116871 0.00182509 0)
(0.11634 0.00188781 0)
(0.11579 0.00194962 0)
(0.115223 0.00201052 0)
(0.114639 0.0020705 0)
(0.114038 0.00212957 0)
(0.11342 0.00218771 0)
(0.112786 0.00224494 0)
(0.112135 0.00230124 0)
(0.111468 0.00235661 0)
(0.110786 0.00241106 0)
(0.110088 0.00246459 0)
(0.109376 0.0025172 0)
(0.108648 0.00256889 0)
(0.107905 0.00261966 0)
(0.107149 0.00266952 0)
(0.106378 0.00271847 0)
(0.105593 0.00276651 0)
(0.104795 0.00281366 0)
(0.103983 0.0028599 0)
(0.103158 0.00290526 0)
(0.102321 0.00294973 0)
(0.101471 0.00299332 0)
(0.100608 0.00303603 0)
(0.0997336 0.00307788 0)
(0.0988472 0.00311887 0)
(0.0979493 0.003159 0)
(0.09704 0.00319828 0)
(0.0961196 0.00323673 0)
(0.0951884 0.00327434 0)
(0.0942466 0.00331113 0)
(0.0932944 0.0033471 0)
(0.092332 0.00338226 0)
(0.0913597 0.00341662 0)
(0.0903777 0.00345019 0)
(0.0893863 0.00348298 0)
(0.0883856 0.00351499 0)
(0.0873758 0.00354623 0)
(0.0863573 0.00357672 0)
(0.0853302 0.00360645 0)
(0.0842947 0.00363545 0)
(0.083251 0.00366372 0)
(0.0821994 0.00369127 0)
(0.08114 0.00371811 0)
(0.080073 0.00374424 0)
(0.0789987 0.00376968 0)
(0.0779173 0.00379444 0)
(0.0768288 0.00381853 0)
(0.0757336 0.00384195 0)
(0.0746318 0.00386472 0)
(0.0735237 0.00388685 0)
(0.0724093 0.00390835 0)
(0.0712888 0.00392922 0)
(0.0701625 0.00394948 0)
(0.0690305 0.00396913 0)
(0.067893 0.00398819 0)
(0.0667501 0.00400667 0)
(0.0656021 0.00402458 0)
(0.064449 0.00404193 0)
(0.0632911 0.00405873 0)
(0.0621284 0.00407498 0)
(0.0609612 0.0040907 0)
(0.0597896 0.00410591 0)
(0.0586137 0.0041206 0)
(0.0574338 0.00413479 0)
(0.0562498 0.0041485 0)
(0.055062 0.00416172 0)
(0.0538705 0.00417448 0)
(0.0526755 0.00418678 0)
(0.051477 0.00419863 0)
(0.0502752 0.00421003 0)
(0.0490702 0.00422102 0)
(0.0478622 0.00423158 0)
(0.0466512 0.00424173 0)
(0.0454374 0.00425148 0)
(0.0442208 0.00426085 0)
(0.0430017 0.00426983 0)
(0.04178 0.00427844 0)
(0.040556 0.00428669 0)
(0.0393296 0.00429458 0)
(0.0381011 0.00430213 0)
(0.0368704 0.00430935 0)
(0.0356378 0.00431624 0)
(0.0344032 0.00432281 0)
(0.0331669 0.00432906 0)
(0.0319288 0.00433502 0)
(0.030689 0.00434068 0)
(0.0294477 0.00434605 0)
(0.0282049 0.00435114 0)
(0.0269606 0.00435596 0)
(0.0257151 0.00436051 0)
(0.0244683 0.0043648 0)
(0.0232203 0.00436883 0)
(0.0219712 0.00437262 0)
(0.0207211 0.00437617 0)
(0.01947 0.00437947 0)
(0.018218 0.00438255 0)
(0.0169651 0.0043854 0)
(0.0157115 0.00438802 0)
(0.0144571 0.00439043 0)
(0.0132021 0.00439262 0)
(0.0119465 0.0043946 0)
(0.0106904 0.00439638 0)
(0.00943383 0.00439795 0)
(0.00817682 0.00439931 0)
(0.00691946 0.00440048 0)
(0.00566178 0.00440145 0)
(0.00440386 0.00440223 0)
(0.00314575 0.0044028 0)
(0.00188751 0.00440319 0)
(0.000629178 0.00440338 0)
(0.000728389 -0.00655304 0)
(0.00218513 -0.0065527 0)
(0.00364176 -0.00655202 0)
(0.0050982 -0.006551 0)
(0.00655439 -0.00654963 0)
(0.00801024 -0.00654791 0)
(0.00946567 -0.00654583 0)
(0.0109206 -0.0065434 0)
(0.012375 -0.00654059 0)
(0.0138287 -0.0065374 0)
(0.0152817 -0.00653382 0)
(0.0167339 -0.00652984 0)
(0.0181851 -0.00652545 0)
(0.0196354 -0.00652063 0)
(0.0210846 -0.00651537 0)
(0.0225325 -0.00650966 0)
(0.0239792 -0.00650348 0)
(0.0254245 -0.00649681 0)
(0.0268682 -0.00648964 0)
(0.0283104 -0.00648194 0)
(0.0297508 -0.00647369 0)
(0.0311893 -0.00646488 0)
(0.0326259 -0.00645549 0)
(0.0340603 -0.00644548 0)
(0.0354925 -0.00643485 0)
(0.0369223 -0.00642356 0)
(0.0383495 -0.00641158 0)
(0.039774 -0.00639891 0)
(0.0411957 -0.0063855 0)
(0.0426144 -0.00637133 0)
(0.0440298 -0.00635638 0)
(0.0454419 -0.00634062 0)
(0.0468505 -0.00632401 0)
(0.0482553 -0.00630654 0)
(0.0496561 -0.00628817 0)
(0.0510529 -0.00626887 0)
(0.0524452 -0.00624862 0)
(0.0538331 -0.00622738 0)
(0.0552161 -0.00620513 0)
(0.0565941 -0.00618183 0)
(0.0579669 -0.00615746 0)
(0.0593342 -0.00613198 0)
(0.0606957 -0.00610537 0)
(0.0620512 -0.00607759 0)
(0.0634005 -0.00604863 0)
(0.0647433 -0.00601844 0)
(0.0660792 -0.005987 0)
(0.0674081 -0.00595429 0)
(0.0687296 -0.00592027 0)
(0.0700434 -0.00588492 0)
(0.0713493 -0.00584821 0)
(0.0726469 -0.00581012 0)
(0.0739359 -0.00577062 0)
(0.075216 -0.00572969 0)
(0.0764869 -0.00568731 0)
(0.0777482 -0.00564346 0)
(0.0789997 -0.00559811 0)
(0.0802409 -0.00555125 0)
(0.0814716 -0.00550286 0)
(0.0826914 -0.00545293 0)
(0.0838999 -0.00540143 0)
(0.0850968 -0.00534836 0)
(0.0862818 -0.0052937 0)
(0.0874545 -0.00523745 0)
(0.0886145 -0.00517959 0)
(0.0897615 -0.00512012 0)
(0.0908951 -0.00505905 0)
(0.0920149 -0.00499635 0)
(0.0931206 -0.00493204 0)
(0.0942119 -0.00486611 0)
(0.0952883 -0.00479857 0)
(0.0963495 -0.00472942 0)
(0.0973952 -0.00465867 0)
(0.0984249 -0.00458633 0)
(0.0994384 -0.00451242 0)
(0.100435 -0.00443694 0)
(0.101415 -0.00435992 0)
(0.102378 -0.00428137 0)
(0.103323 -0.0042013 0)
(0.104249 -0.00411976 0)
(0.105158 -0.00403675 0)
(0.106048 -0.00395231 0)
(0.106919 -0.00386646 0)
(0.107771 -0.00377924 0)
(0.108603 -0.00369067 0)
(0.109415 -0.00360081 0)
(0.110207 -0.00350967 0)
(0.110979 -0.0034173 0)
(0.111729 -0.00332374 0)
(0.112459 -0.00322904 0)
(0.113168 -0.00313323 0)
(0.113855 -0.00303636 0)
(0.114521 -0.00293848 0)
(0.115164 -0.00283964 0)
(0.115785 -0.00273988 0)
(0.116384 -0.00263926 0)
(0.116961 -0.00253782 0)
(0.117515 -0.00243563 0)
(0.118046 -0.00233274 0)
(0.118553 -0.00222919 0)
(0.119038 -0.00212505 0)
(0.1195 -0.00202036 0)
(0.119938 -0.00191519 0)
(0.120352 -0.0018096 0)
(0.120743 -0.00170363 0)
(0.12111 -0.00159735 0)
(0.121454 -0.00149081 0)
(0.121773 -0.00138407 0)
(0.122069 -0.00127718 0)
(0.122341 -0.0011702 0)
(0.122589 -0.00106319 0)
(0.122814 -0.000956203 0)
(0.123014 -0.000849289 0)
(0.123191 -0.000742504 0)
(0.123344 -0.000635901 0)
(0.123473 -0.000529531 0)
(0.123578 -0.000423446 0)
(0.12366 -0.000317695 0)
(0.123718 -0.000212328 0)
(0.123753 -0.000107391 0)
(0.123764 -2.93159e-06 0)
(0.123753 0.000101006 0)
(0.123718 0.000204379 0)
(0.12366 0.000307143 0)
(0.123579 0.00040926 0)