/*--------------------------------*- C++ -*----------------------------------*\
| =========                 |                                                 |
| \\      /  F ield         | OpenFOAM: The Open Source CFD Toolbox           |
|  \\    /   O peration     | Version:  v2012                                 |
|   \\  /    A nd           | Website:  www.openfoam.com                      |
|    \\/     M anipulation  |                                                 |
\*---------------------------------------------------------------------------*/
FoamFile
{
    version     2.0;
    format      ascii;
    class       volScalarField;
    location    "4";
    object      W;
}
// * * * * * * * * * * * * * * * * * * * * * * * * * * * * * * * * * * * * * //

dimensions      [0 0 -1 0 0 0 0];


internalField   nonuniform List<scalar> 
65536
(
3.8354e-21
1.17396e-20
2.03612e-20
3.02351e-20
4.19795e-20
5.63305e-20
7.41804e-20
9.6621e-20
1.24997e-19
1.6097e-19
2.06597e-19
2.64432e-19
3.37637e-19
4.30135e-19
5.46776e-19
6.93552e-19
8.77848e-19
1.10874e-18
1.39738e-18
1.75739e-18
2.20541e-18
2.7617e-18
3.45085e-18
4.30265e-18
5.35311e-18
6.64556e-18
8.23212e-18
1.01752e-17
1.25495e-17
1.54438e-17
1.8964e-17
2.32352e-17
2.84057e-17
3.46499e-17
4.21732e-17
5.12159e-17
6.20592e-17
7.50304e-17
9.051e-17
1.08939e-16
1.30825e-16
1.56755e-16
1.87402e-16
2.23533e-16
2.66027e-16
3.1588e-16
3.74223e-16
4.4233e-16
5.21639e-16
6.13759e-16
7.2049e-16
8.43836e-16
9.86019e-16
1.1495e-15
1.33698e-15
1.55142e-15
1.79607e-15
2.07446e-15
2.39038e-15
2.74796e-15
3.1516e-15
3.60601e-15
4.11619e-15
4.68741e-15
5.32522e-15
6.03539e-15
6.82392e-15
7.69697e-15
8.66084e-15
9.7219e-15
1.08865e-14
1.21611e-14
1.35518e-14
1.50646e-14
1.67052e-14
1.84788e-14
2.03902e-14
2.24436e-14
2.46422e-14
2.69885e-14
2.94841e-14
3.21292e-14
3.4923e-14
3.78632e-14
4.09461e-14
4.41665e-14
4.75174e-14
5.09901e-14
5.45743e-14
5.82577e-14
6.20262e-14
6.58641e-14
6.97538e-14
7.36759e-14
7.76097e-14
8.15329e-14
8.54219e-14
8.92521e-14
9.29979e-14
9.66334e-14
1.00132e-13
1.03467e-13
1.06612e-13
1.09543e-13
1.12233e-13
1.14659e-13
1.168e-13
1.18636e-13
1.20148e-13
1.21322e-13
1.22145e-13
1.22607e-13
1.22702e-13
1.22427e-13
1.21782e-13
1.20771e-13
1.19401e-13
1.17683e-13
1.15631e-13
1.13262e-13
1.10597e-13
1.07658e-13
1.04471e-13
1.01063e-13
9.74642e-14
9.37056e-14
8.98192e-14
8.58379e-14
8.17951e-14
7.7724e-14
7.36577e-14
6.96285e-14
6.56678e-14
6.18055e-14
5.80703e-14
5.44889e-14
5.10862e-14
4.78847e-14
4.49051e-14
4.21655e-14
3.96816e-14
3.74666e-14
3.55314e-14
3.38844e-14
3.25314e-14
3.14758e-14
3.07185e-14
3.02583e-14
3.00912e-14
3.02111e-14
3.06095e-14
3.12756e-14
3.21965e-14
3.33569e-14
3.47394e-14
3.63245e-14
3.80905e-14
4.00141e-14
4.207e-14
4.42312e-14
4.64695e-14
4.87552e-14
5.10579e-14
5.33464e-14
5.55893e-14
5.77553e-14
5.98136e-14
6.17343e-14
6.34889e-14
6.50507e-14
6.63954e-14
6.75011e-14
6.83493e-14
6.89245e-14
6.92153e-14
6.9214e-14
6.89169e-14
6.83247e-14
6.7442e-14
6.62775e-14
6.48438e-14
6.3157e-14
6.12364e-14
5.91043e-14
5.67853e-14
5.43058e-14
5.16936e-14
4.89774e-14
4.61858e-14
4.33476e-14
4.04904e-14
3.76407e-14
3.48233e-14
3.20611e-14
2.93745e-14
2.67816e-14
2.42978e-14
2.19355e-14
1.97047e-14
1.76126e-14
1.56639e-14
1.38608e-14
1.22033e-14
1.06896e-14
9.31599e-15
8.0774e-15
6.96755e-15
5.97925e-15
5.10462e-15
4.33533e-15
3.66281e-15
3.07847e-15
2.57379e-15
2.14055e-15
1.77085e-15
1.45727e-15
1.19286e-15
9.71237e-16
7.86581e-16
6.33631e-16
5.07692e-16
4.04603e-16
3.20715e-16
2.52851e-16
1.98272e-16
1.54634e-16
1.19948e-16
9.2538e-17
7.10042e-17
5.41852e-17
4.11252e-17
3.1043e-17
2.33047e-17
1.73999e-17
1.29202e-17
9.54138e-18
7.00762e-18
5.11854e-18
3.71823e-18
2.68621e-18
1.92999e-18
1.37907e-18
9.8e-19
6.92593e-19
4.86789e-19
3.40258e-19
2.36521e-19
1.63487e-19
1.12342e-19
7.66927e-20
5.19255e-20
3.47195e-20
2.26848e-20
1.40918e-20
7.66579e-21
2.42895e-21
1.2708e-20
3.88968e-20
6.74615e-20
1.00173e-19
1.39078e-19
1.86613e-19
2.45731e-19
3.20046e-19
4.14007e-19
5.33113e-19
6.84171e-19
8.75623e-19
1.11794e-18
1.42408e-18
1.81009e-18
2.29578e-18
2.90556e-18
3.66946e-18
4.62428e-18
5.81508e-18
7.29683e-18
9.13644e-18
1.14152e-17
1.42314e-17
1.7704e-17
2.1976e-17
2.72196e-17
3.36406e-17
4.14854e-17
5.10473e-17
6.2675e-17
7.67818e-17
9.38559e-17
1.14473e-16
1.39309e-16
1.69157e-16
2.04941e-16
2.47741e-16
2.9881e-16
3.59596e-16
4.31775e-16
5.17274e-16
6.18304e-16
7.37393e-16
8.77424e-16
1.04167e-15
1.23385e-15
1.45814e-15
1.71927e-15
2.0225e-15
2.37375e-15
2.77958e-15
3.24727e-15
3.78487e-15
4.40123e-15
5.10606e-15
5.90995e-15
6.82441e-15
7.86189e-15
9.03581e-15
1.03606e-14
1.18515e-14
1.35248e-14
1.53977e-14
1.74883e-14
1.98152e-14
2.2398e-14
2.52566e-14
2.84114e-14
3.18829e-14
3.56919e-14
3.98587e-14
4.44033e-14
4.93449e-14
5.47016e-14
6.04902e-14
6.67257e-14
7.34211e-14
8.05867e-14
8.82301e-14
9.63556e-14
1.04964e-13
1.14051e-13
1.23609e-13
1.33626e-13
1.44083e-13
1.54957e-13
1.6622e-13
1.77837e-13
1.89768e-13
2.01966e-13
2.1438e-13
2.26952e-13
2.39619e-13
2.52314e-13
2.64962e-13
2.77489e-13
2.89814e-13
3.01855e-13
3.13527e-13
3.24744e-13
3.35422e-13
3.45475e-13
3.54823e-13
3.63384e-13
3.71085e-13
3.77855e-13
3.83631e-13
3.88358e-13
3.91985e-13
3.94476e-13
3.958e-13
3.95938e-13
3.94882e-13
3.92634e-13
3.89208e-13
3.8463e-13
3.78935e-13
3.72169e-13
3.64391e-13
3.55665e-13
3.46067e-13
3.3568e-13
3.24593e-13
3.12903e-13
3.0071e-13
2.88118e-13
2.75232e-13
2.62159e-13
2.49007e-13
2.35882e-13
2.22886e-13
2.1012e-13
1.97679e-13
1.85655e-13
1.74133e-13
1.6319e-13
1.52899e-13
1.43324e-13
1.34523e-13
1.26544e-13
1.19429e-13
1.13211e-13
1.07916e-13
1.03562e-13
1.00158e-13
9.77056e-14
9.62004e-14
9.56288e-14
9.59702e-14
9.71968e-14
9.92736e-14
1.02158e-13
1.05802e-13
1.10148e-13
1.15135e-13
1.20693e-13
1.26747e-13
1.33218e-13
1.40019e-13
1.47061e-13
1.5425e-13
1.6149e-13
1.68681e-13
1.75724e-13
1.82522e-13
1.88977e-13
1.94994e-13
2.00484e-13
2.05364e-13
2.09556e-13
2.12994e-13
2.15617e-13
2.1738e-13
2.18245e-13
2.1819e-13
2.17203e-13
2.15288e-13
2.12459e-13
2.08745e-13
2.04185e-13
1.98831e-13
1.92744e-13
1.85995e-13
1.78661e-13
1.70826e-13
1.62578e-13
1.54005e-13
1.452e-13
1.36252e-13
1.27248e-13
1.18271e-13
1.094e-13
1.00705e-13
9.22507e-14
8.4094e-14
7.62824e-14
6.88553e-14
6.18434e-14
5.52692e-14
4.91468e-14
4.34832e-14
3.82782e-14
3.35255e-14
2.92136e-14
2.53263e-14
2.18437e-14
1.8743e-14
1.59994e-14
1.35867e-14
1.14778e-14
9.64562e-15
8.0635e-15
6.7055e-15
5.54684e-15
4.56416e-15
3.73569e-15
3.04137e-15
2.46292e-15
1.98384e-15
1.58941e-15
1.26658e-15
1.0039e-15
7.91418e-16
6.20545e-16
4.83938e-16
3.75363e-16
2.8957e-16
2.22174e-16
1.69538e-16
1.28669e-16
9.71201e-17
7.29071e-17
5.44321e-17
4.04168e-17
2.98462e-17
2.19197e-17
1.60102e-17
1.16298e-17
8.40169e-18
6.03634e-18
4.31314e-18
3.06498e-18
2.16607e-18
1.5224e-18
1.06413e-18
7.39691e-19
5.11284e-19
3.51333e-19
2.39845e-19
1.6239e-19
1.08581e-19
7.09444e-20
4.4071e-20
2.39745e-20
7.5967e-21
2.55356e-20
7.81581e-20
1.3555e-19
2.01265e-19
2.79409e-19
3.74873e-19
4.93577e-19
6.42768e-19
8.31366e-19
1.07039e-18
1.37349e-18
1.75757e-18
2.24361e-18
2.85757e-18
3.63157e-18
4.60526e-18
5.82752e-18
7.35839e-18
9.27154e-18
1.1657e-17
1.46248e-17
1.83086e-17
2.28708e-17
2.85079e-17
3.54574e-17
4.40049e-17
5.44937e-17
6.73351e-17
8.30201e-17
1.02134e-16
1.25371e-16
1.53555e-16
1.87659e-16
2.28829e-16
2.7841e-16
3.37978e-16
4.09375e-16
4.94744e-16
5.96573e-16
7.17742e-16
8.61574e-16
1.03189e-15
1.23308e-15
1.47015e-15
1.7488e-15
2.07553e-15
2.45767e-15
2.90349e-15
3.42232e-15
4.02457e-15
4.72187e-15
5.52719e-15
6.45485e-15
7.52068e-15
8.7421e-15
1.01382e-14
1.17296e-14
1.35391e-14
1.55909e-14
1.79113e-14
2.05284e-14
2.34721e-14
2.67741e-14
3.04678e-14
3.45882e-14
3.91716e-14
4.42557e-14
4.98791e-14
5.6081e-14
6.2901e-14
7.03787e-14
7.85529e-14
8.74617e-14
9.71413e-14
1.07626e-13
1.18947e-13
1.31133e-13
1.44206e-13
1.58185e-13
1.73083e-13
1.88907e-13
2.05654e-13
2.23318e-13
2.41878e-13
2.61309e-13
2.81574e-13
3.02624e-13
3.24402e-13
3.46839e-13
3.69855e-13
3.93357e-13
4.17243e-13
4.414e-13
4.65705e-13
4.90024e-13
5.14218e-13
5.38137e-13
5.61627e-13
5.84529e-13
6.0668e-13
6.27917e-13
6.48076e-13
6.66997e-13
6.84523e-13
7.00506e-13
7.14804e-13
7.27287e-13
7.37837e-13
7.4635e-13
7.5274e-13
7.56935e-13
7.58885e-13
7.5856e-13
7.55947e-13
7.51058e-13
7.43925e-13
7.34601e-13
7.23159e-13
7.09695e-13
6.9432e-13
6.77166e-13
6.58379e-13
6.38122e-13
6.16569e-13
5.93904e-13
5.70319e-13
5.46015e-13
5.21192e-13
4.96055e-13
4.70807e-13
4.45647e-13
4.20771e-13
3.96366e-13
3.72612e-13
3.49677e-13
3.27721e-13
3.06889e-13
2.87312e-13
2.69109e-13
2.52384e-13
2.37226e-13
2.23709e-13
2.11892e-13
2.01819e-13
1.93518e-13
1.87006e-13
1.82281e-13
1.79331e-13
1.78126e-13
1.78626e-13
1.80775e-13
1.84504e-13
1.89733e-13
1.96367e-13
2.04301e-13
2.13416e-13
2.23582e-13
2.34659e-13
2.46496e-13
2.58935e-13
2.71808e-13
2.8494e-13
2.98155e-13
3.11269e-13
3.24101e-13
3.36469e-13
3.48194e-13
3.59104e-13
3.69036e-13
3.77838e-13
3.8537e-13
3.91509e-13
3.9615e-13
3.99208e-13
4.00618e-13
4.00341e-13
3.98359e-13
3.94678e-13
3.89328e-13
3.82363e-13
3.73858e-13
3.63909e-13
3.5263e-13
3.4015e-13
3.26613e-13
3.12172e-13
2.96988e-13
2.81227e-13
2.65054e-13
2.48632e-13
2.32122e-13
2.15674e-13
1.99431e-13
1.83521e-13
1.68062e-13
1.53154e-13
1.38885e-13
1.25326e-13
1.12531e-13
1.0054e-13
8.93777e-14
7.90565e-14
6.95749e-14
6.09207e-14
5.30721e-14
4.59988e-14
3.96641e-14
3.4026e-14
2.90388e-14
2.46543e-14
2.08231e-14
1.74956e-14
1.46229e-14
1.21579e-14
1.00552e-14
8.27236e-15
6.76961e-15
5.51047e-15
4.46169e-15
3.59327e-15
2.87842e-15
2.29344e-15
1.81755e-15
1.43266e-15
1.1232e-15
8.75831e-16
6.79253e-16
5.23946e-16
4.01959e-16
3.067e-16
2.32745e-16
1.75661e-16
1.31857e-16
9.84359e-17
7.30852e-17
5.39669e-17
3.9632e-17
2.89457e-17
2.10252e-17
1.51884e-17
1.09119e-17
7.7966e-18
5.54019e-18
3.91524e-18
2.75172e-18
1.92336e-18
1.33694e-18
9.24099e-19
6.34999e-19
4.33496e-19
2.93504e-19
1.96251e-19
1.28228e-19
7.96575e-20
4.33342e-20
1.37314e-20
4.62105e-20
1.41435e-19
2.45279e-19
3.64163e-19
5.05504e-19
6.78132e-19
8.92738e-19
1.1624e-18
1.50322e-18
1.93506e-18
2.48255e-18
3.17617e-18
4.05372e-18
5.16199e-18
6.55885e-18
8.31571e-18
1.05206e-17
1.32815e-17
1.6731e-17
2.10312e-17
2.63796e-17
3.30168e-17
4.12345e-17
5.13858e-17
6.38968e-17
7.92805e-17
9.8153e-17
1.21251e-16
1.49456e-16
1.83816e-16
2.25576e-16
2.7621e-16
3.37458e-16
4.11371e-16
5.00353e-16
6.07221e-16
7.35263e-16
8.88304e-16
1.07078e-15
1.28783e-15
1.54537e-15
1.8502e-15
2.21013e-15
2.63406e-15
3.13213e-15
3.71585e-15
4.39823e-15
5.19394e-15
6.11947e-15
7.19325e-15
8.43585e-15
9.87012e-15
1.15213e-14
1.34174e-14
1.5589e-14
1.80695e-14
2.08954e-14
2.41063e-14
2.77448e-14
3.18569e-14
3.64914e-14
4.17006e-14
4.75395e-14
5.40661e-14
6.13409e-14
6.94269e-14
7.83888e-14
8.82931e-14
9.92068e-14
1.11198e-13
1.24333e-13
1.38679e-13
1.54299e-13
1.71254e-13
1.896e-13
2.09391e-13
2.30669e-13
2.53473e-13
2.7783e-13
3.0376e-13
3.31268e-13
3.60347e-13
3.90977e-13
4.23123e-13
4.56732e-13
4.91735e-13
5.28044e-13
5.65554e-13
6.04141e-13
6.43659e-13
6.83946e-13
7.24822e-13
7.66087e-13
8.07525e-13
8.48906e-13
8.89983e-13
9.30502e-13
9.70194e-13
1.00879e-12
1.04601e-12
1.08157e-12
1.1152e-12
1.14663e-12
1.1756e-12
1.20185e-12
1.22516e-12
1.24531e-12
1.2621e-12
1.27537e-12
1.28499e-12
1.29084e-12
1.29285e-12
1.29098e-12
1.28522e-12
1.2756e-12
1.26219e-12
1.2451e-12
1.22445e-12
1.20042e-12
1.1732e-12
1.14305e-12
1.1102e-12
1.07493e-12
1.03756e-12
9.984e-13
9.57772e-13
9.16019e-13
8.73483e-13
8.30507e-13
7.87432e-13
7.44592e-13
7.02311e-13
6.60901e-13
6.20657e-13
5.81858e-13
5.44763e-13
5.09606e-13
4.76602e-13
4.45939e-13
4.17784e-13
3.92275e-13
3.69527e-13
3.4963e-13
3.32648e-13
3.1862e-13
3.07564e-13
2.9947e-13
2.94308e-13
2.92024e-13
2.92542e-13
2.95765e-13
3.01574e-13
3.0983e-13
3.20373e-13
3.33024e-13
3.47587e-13
3.63844e-13
3.81565e-13
4.00501e-13
4.20391e-13
4.40962e-13
4.6193e-13
4.83006e-13
5.03896e-13
5.24305e-13
5.43939e-13
5.62515e-13
5.79755e-13
5.954e-13
6.09206e-13
6.20953e-13
6.30447e-13
6.37523e-13
6.42049e-13
6.43928e-13
6.43098e-13
6.39536e-13
6.33258e-13
6.24317e-13
6.12803e-13
5.98839e-13
5.82584e-13
5.64222e-13
5.43965e-13
5.22044e-13
4.98707e-13
4.74211e-13
4.48822e-13
4.22804e-13
3.96419e-13
3.69922e-13
3.43551e-13
3.17533e-13
2.92072e-13
2.67352e-13
2.43534e-13
2.20753e-13
1.99119e-13
1.78719e-13
1.59613e-13
1.41838e-13
1.25413e-13
1.10331e-13
9.65733e-14
8.41024e-14
7.2869e-14
6.28133e-14
5.38675e-14
4.59579e-14
3.90071e-14
3.29358e-14
2.76649e-14
2.31162e-14
1.92143e-14
1.58872e-14
1.3067e-14
1.06907e-14
8.70024e-15
7.0428e-15
5.67077e-15
4.54168e-15
3.61797e-15
2.86668e-15
2.25922e-15
1.77091e-15
1.38066e-15
1.07061e-15
8.25697e-16
6.33365e-16
4.832e-16
3.66638e-16
2.76683e-16
2.07663e-16
1.55012e-16
1.15079e-16
8.49682e-17
6.23934e-17
4.55662e-17
3.30954e-17
2.39063e-17
1.71742e-17
1.22704e-17
8.71884e-18
6.16136e-18
4.33021e-18
3.02659e-18
2.10376e-18
1.45411e-18
9.99194e-19
6.82122e-19
4.61843e-19
3.08815e-19
2.0178e-19
1.25352e-19
6.81937e-20
2.16091e-20
8.08494e-20
2.47446e-19
4.291e-19
6.37025e-19
8.84173e-19
1.18595e-18
1.56103e-18
2.0322e-18
2.62756e-18
3.38175e-18
4.33767e-18
5.54846e-18
7.07994e-18
9.01361e-18
1.14502e-17
1.4514e-17
1.83581e-17
2.31704e-17
2.91814e-17
3.66728e-17
4.59878e-17
5.75441e-17
7.18481e-17
8.95127e-17
1.11277e-16
1.38031e-16
1.70841e-16
2.10986e-16
2.5999e-16
3.19667e-16
3.92171e-16
4.80051e-16
5.86314e-16
7.14501e-16
8.68765e-16
1.05396e-15
1.27576e-15
1.54076e-15
1.85659e-15
2.23209e-15
2.67743e-15
3.20431e-15
3.82612e-15
4.55813e-15
5.41773e-15
6.42462e-15
7.60108e-15
8.97217e-15
1.0566e-14
1.24141e-14
1.45515e-14
1.7017e-14
1.98537e-14
2.3109e-14
2.68346e-14
3.10875e-14
3.59291e-14
4.14264e-14
4.76512e-14
5.46807e-14
6.25973e-14
7.14882e-14
8.14458e-14
9.25668e-14
1.04952e-13
1.18706e-13
1.33936e-13
1.50752e-13
1.69263e-13
1.89582e-13
2.11818e-13
2.36077e-13
2.62463e-13
2.91074e-13
3.21998e-13
3.55316e-13
3.91098e-13
4.29399e-13
4.70258e-13
5.13699e-13
5.59722e-13
6.0831e-13
6.59417e-13
7.12975e-13
7.68888e-13
8.2703e-13
8.87245e-13
9.4935e-13
1.01313e-12
1.07832e-12
1.14467e-12
1.21185e-12
1.27953e-12
1.34734e-12
1.41491e-12
1.48181e-12
1.54763e-12
1.61191e-12
1.67423e-12
1.73411e-12
1.7911e-12
1.84476e-12
1.89465e-12
1.94035e-12
1.98146e-12
2.0176e-12
2.04846e-12
2.07372e-12
2.09314e-12
2.1065e-12
2.11366e-12
2.11451e-12
2.109e-12
2.09716e-12
2.07905e-12
2.0548e-12
2.0246e-12
1.9887e-12
1.94739e-12
1.90103e-12
1.84999e-12
1.79472e-12
1.73568e-12
1.67338e-12
1.60833e-12
1.54108e-12
1.47217e-12
1.40217e-12
1.33162e-12
1.26108e-12
1.19107e-12
1.12212e-12
1.05471e-12
9.89323e-13
9.26381e-13
8.6629e-13
8.09415e-13
7.56083e-13
7.06583e-13
6.61162e-13
6.20027e-13
5.83345e-13
5.51242e-13
5.23804e-13
5.0108e-13
4.83078e-13
4.69772e-13
4.61097e-13
4.56956e-13
4.57216e-13
4.61711e-13
4.70244e-13
4.82586e-13
4.98477e-13
5.1763e-13
5.39727e-13
5.64427e-13
5.91363e-13
6.20145e-13
6.50364e-13
6.81593e-13
7.13394e-13
7.45317e-13
7.7691e-13
8.07718e-13
8.37295e-13
8.65203e-13
8.91025e-13
9.14364e-13
9.34855e-13
9.52166e-13
9.66007e-13
9.76135e-13
9.82355e-13
9.84526e-13
9.82565e-13
9.76445e-13
9.66197e-13
9.51911e-13
9.33732e-13
9.11857e-13
8.86531e-13
8.58042e-13
8.26717e-13
7.92911e-13
7.57004e-13
7.19391e-13
6.80474e-13
6.40657e-13
6.00337e-13
5.59896e-13
5.19699e-13
4.80082e-13
4.41354e-13
4.03791e-13
3.67632e-13
3.33076e-13
3.0029e-13
2.69396e-13
2.40484e-13
2.13607e-13
1.88786e-13
1.66012e-13
1.4525e-13
1.26441e-13
1.09508e-13
9.43597e-14
8.08903e-14
6.89873e-14
5.85324e-14
4.94049e-14
4.14842e-14
3.4652e-14
2.87938e-14
2.38006e-14
1.95698e-14
1.60064e-14
1.30226e-14
1.05389e-14
8.48358e-15
6.79277e-15
5.40992e-15
4.28556e-15
3.37669e-15
2.6463e-15
2.06274e-15
1.59921e-15
1.23315e-15
9.45747e-16
7.21403e-16
5.47296e-16
4.12956e-16
3.099e-16
2.31299e-16
1.71694e-16
1.26755e-16
9.30688e-17
6.79623e-17
4.93579e-17
3.56507e-17
2.56096e-17
1.82961e-17
1.29998e-17
9.18617e-18
6.45582e-18
4.51214e-18
3.13629e-18
2.16776e-18
1.48957e-18
1.01689e-18
6.88507e-19
4.60383e-19
3.00821e-19
1.86884e-19
1.01671e-19
3.22179e-20
1.39451e-19
4.26788e-19
7.40054e-19
1.09856e-18
1.52459e-18
2.04466e-18
2.69088e-18
3.50247e-18
4.52768e-18
5.82609e-18
7.4714e-18
9.55486e-18
1.21895e-17
1.55152e-17
1.97049e-17
2.49716e-17
3.1578e-17
3.98463e-17
5.01712e-17
6.30353e-17
7.90265e-17
9.88596e-17
1.23401e-16
1.537e-16
1.91018e-16
2.36878e-16
2.93101e-16
3.61869e-16
4.45784e-16
5.47941e-16
6.72011e-16
8.22338e-16
1.00404e-15
1.22315e-15
1.48672e-15
1.80302e-15
2.18168e-15
2.63387e-15
3.17258e-15
3.81277e-15
4.57168e-15
5.46911e-15
6.52769e-15
7.77326e-15
9.23515e-15
1.09466e-14
1.29452e-14
1.52731e-14
1.79776e-14
2.11116e-14
2.4734e-14
2.89099e-14
3.37112e-14
3.92172e-14
4.55146e-14
5.2698e-14
6.08699e-14
7.01415e-14
8.0632e-14
9.24694e-14
1.0579e-13
1.20737e-13
1.37463e-13
1.56127e-13
1.76894e-13
1.99935e-13
2.25424e-13
2.53539e-13
2.8446e-13
3.18364e-13
3.55427e-13
3.9582e-13
4.39706e-13
4.87236e-13
5.3855e-13
5.93771e-13
6.53002e-13
7.16321e-13
7.83782e-13
8.55409e-13
9.31189e-13
1.01108e-12
1.09498e-12
1.18278e-12
1.2743e-12
1.3693e-12
1.46753e-12
1.56867e-12
1.67233e-12
1.77811e-12
1.88553e-12
1.99408e-12
2.10319e-12
2.21227e-12
2.32067e-12
2.42772e-12
2.53274e-12
2.63499e-12
2.73376e-12
2.82831e-12
2.91791e-12
3.00186e-12
3.07946e-12
3.15004e-12
3.21299e-12
3.26774e-12
3.31376e-12
3.35062e-12
3.37793e-12
3.3954e-12
3.40281e-12
3.40004e-12
3.38706e-12
3.36392e-12
3.33079e-12
3.2879e-12
3.23559e-12
3.1743e-12
3.10453e-12
3.02686e-12
2.94196e-12
2.85053e-12
2.75335e-12
2.65123e-12
2.54501e-12
2.43556e-12
2.32377e-12
2.21052e-12
2.09669e-12
1.98314e-12
1.87071e-12
1.76021e-12
1.6524e-12
1.548e-12
1.44768e-12
1.35206e-12
1.26167e-12
1.17702e-12
1.09853e-12
1.02656e-12
9.61415e-13
9.0332e-13
8.5245e-13
8.08912e-13
7.72754e-13
7.43965e-13
7.2248e-13
7.08174e-13
7.00874e-13
7.00354e-13
7.06337e-13
7.185e-13
7.36475e-13
7.59848e-13
7.88162e-13
8.20922e-13
8.57594e-13
8.97608e-13
9.40366e-13
9.85237e-13
1.03157e-12
1.0787e-12
1.12595e-12
1.17263e-12
1.21806e-12
1.26156e-12
1.3025e-12
1.34023e-12
1.37419e-12
1.40383e-12
1.42866e-12
1.44826e-12
1.46228e-12
1.47044e-12
1.47255e-12
1.46849e-12
1.45824e-12
1.44186e-12
1.4195e-12
1.39138e-12
1.35781e-12
1.31916e-12
1.27588e-12
1.22846e-12
1.17743e-12
1.12337e-12
1.06685e-12
1.00849e-12
9.48876e-13
8.88605e-13
8.28239e-13
7.68315e-13
7.09328e-13
6.5173e-13
5.95924e-13
5.42257e-13
4.91021e-13
4.4245e-13
3.96724e-13
3.53966e-13
3.14249e-13
2.77598e-13
2.43994e-13
2.13379e-13
1.85664e-13
1.60729e-13
1.38435e-13
1.18625e-13
1.01128e-13
8.57678e-14
7.23654e-14
6.0741e-14
5.07189e-14
4.21296e-14
3.48119e-14
2.86144e-14
2.33965e-14
1.90293e-14
1.53954e-14
1.23895e-14
9.91749e-15
7.89645e-15
6.25372e-15
4.92626e-15
3.85979e-15
3.00797e-15
2.33154e-15
1.79749e-15
1.3783e-15
1.05116e-15
7.97332e-16
6.01523e-16
4.51341e-16
3.36818e-16
2.49989e-16
1.84535e-16
1.35478e-16
9.89209e-17
7.18349e-17
5.18813e-17
3.7266e-17
2.66219e-17
1.89144e-17
1.3365e-17
9.39219e-18
6.56424e-18
4.56254e-18
3.15351e-18
2.16691e-18
1.47929e-18
1.0016e-18
6.69749e-19
4.37636e-19
2.71887e-19
1.47919e-19
4.68741e-20
2.3853e-19
7.29996e-19
1.26574e-18
1.87873e-18
2.60702e-18
3.49584e-18
4.59996e-18
5.98626e-18
7.73703e-18
9.95378e-18
1.27621e-17
1.63174e-17
2.08121e-17
2.64845e-17
3.36285e-17
4.2607e-17
5.38661e-17
6.79539e-17
8.55412e-17
1.07448e-16
1.34672e-16
1.68427e-16
2.10183e-16
2.61718e-16
3.25176e-16
4.03131e-16
4.98672e-16
6.15493e-16
7.57996e-16
9.31417e-16
1.14196e-15
1.39697e-15
1.70509e-15
2.07649e-15
2.52308e-15
3.0588e-15
3.69985e-15
4.46508e-15
5.37629e-15
6.45866e-15
7.74116e-15
9.25701e-15
1.10442e-14
1.31459e-14
1.56114e-14
1.84963e-14
2.18632e-14
2.57827e-14
3.03336e-14
3.56041e-14
4.16919e-14
4.87056e-14
5.67645e-14
6.59999e-14
7.65554e-14
8.85873e-14
1.02265e-13
1.17772e-13
1.35303e-13
1.5507e-13
1.77295e-13
2.02214e-13
2.30074e-13
2.61135e-13
2.95664e-13
3.33938e-13
3.76239e-13
4.22853e-13
4.74065e-13
5.30162e-13
5.9142e-13
6.58108e-13
7.30482e-13
8.08776e-13
8.93204e-13
9.83949e-13
1.08116e-12
1.18495e-12
1.29538e-12
1.41248e-12
1.53619e-12
1.66641e-12
1.80298e-12
1.94567e-12
2.09416e-12
2.24806e-12
2.40691e-12
2.57016e-12
2.73718e-12
2.90728e-12
3.07967e-12
3.25348e-12
3.42781e-12
3.60166e-12
3.77398e-12
3.9437e-12
4.10968e-12
4.27076e-12
4.4258e-12
4.57361e-12
4.71305e-12
4.84299e-12
4.96234e-12
5.07009e-12
5.16526e-12
5.24699e-12
5.31449e-12
5.36711e-12
5.40429e-12
5.42561e-12
5.43079e-12
5.4197e-12
5.39235e-12
5.34888e-12
5.28961e-12
5.215e-12
5.12564e-12
5.02226e-12
4.90572e-12
4.77699e-12
4.63716e-12
4.4874e-12
4.32895e-12
4.16313e-12
3.99129e-12
3.81482e-12
3.63511e-12
3.45357e-12
3.27157e-12
3.09047e-12
2.91155e-12
2.73607e-12
2.56519e-12
2.40003e-12
2.24159e-12
2.09079e-12
1.94845e-12
1.81531e-12
1.69198e-12
1.57899e-12
1.47675e-12
1.38559e-12
1.30572e-12
1.23726e-12
1.18027e-12
1.13466e-12
1.10031e-12
1.07699e-12
1.0644e-12
1.06215e-12
1.06979e-12
1.08681e-12
1.1126e-12
1.14653e-12
1.18787e-12
1.23586e-12
1.28966e-12
1.34842e-12
1.4112e-12
1.47706e-12
1.54502e-12
1.61407e-12
1.68318e-12
1.75134e-12
1.81753e-12
1.88076e-12
1.94007e-12
1.99453e-12
2.0433e-12
2.08559e-12
2.12069e-12
2.148e-12
2.16701e-12
2.17733e-12
2.1787e-12
2.17097e-12
2.15412e-12
2.12828e-12
2.09367e-12
2.05064e-12
1.99968e-12
1.94134e-12
1.87629e-12
1.80526e-12
1.72906e-12
1.64852e-12
1.56452e-12
1.47794e-12
1.38966e-12
1.30054e-12
1.21142e-12
1.12307e-12
1.03621e-12
9.51492e-13
8.69502e-13
7.90737e-13
7.15614e-13
6.44467e-13
5.77547e-13
5.15024e-13
4.56997e-13
4.0349e-13
3.54469e-13
3.09841e-13
2.69468e-13
2.3317e-13
2.00737e-13
1.71935e-13
1.46512e-13
1.24207e-13
1.04755e-13
8.78934e-14
7.33632e-14
6.09165e-14
5.03176e-14
4.13453e-14
3.37946e-14
2.74776e-14
2.22235e-14
1.7879e-14
1.43076e-14
1.13887e-14
9.01709e-15
7.10124e-15
5.56256e-15
4.33394e-15
3.35858e-15
2.58874e-15
1.98462e-15
1.51328e-15
1.14766e-15
8.6567e-16
6.49436e-16
4.84576e-16
3.59606e-16
2.65418e-16
1.94835e-16
1.42246e-16
1.03287e-16
7.45901e-17
5.35733e-17
3.82688e-17
2.71875e-17
1.92098e-17
1.3499e-17
9.4342e-18
6.55716e-18
4.53207e-18
3.11414e-18
2.12594e-18
1.43945e-18
9.62549e-19
6.28977e-19
3.90772e-19
2.12604e-19
6.73733e-20
4.0536e-19
1.24052e-18
2.15081e-18
3.19214e-18
4.42905e-18
5.93824e-18
7.81249e-18
1.01652e-17
1.31356e-17
1.68957e-17
2.16581e-17
2.76858e-17
3.53044e-17
4.49166e-17
5.70197e-17
7.22268e-17
9.12919e-17
1.15141e-16
1.44905e-16
1.8197e-16
2.28019e-16
2.85099e-16
3.55688e-16
4.42784e-16
5.49995e-16
6.81659e-16
8.42974e-16
1.04015e-15
1.2806e-15
1.57312e-15
1.92812e-15
2.35795e-15
2.8771e-15
3.50263e-15
4.25451e-15
5.15607e-15
6.23445e-15
7.52118e-15
9.0527e-15
1.08711e-14
1.30247e-14
1.55689e-14
1.8567e-14
2.20911e-14
2.6223e-14
3.1055e-14
3.66914e-14
4.32491e-14
5.08588e-14
5.96665e-14
6.98339e-14
8.15401e-14
9.49821e-14
1.10376e-13
1.27959e-13
1.47986e-13
1.70737e-13
1.9651e-13
2.25627e-13
2.58431e-13
2.95283e-13
3.36569e-13
3.82689e-13
4.34062e-13
4.9112e-13
5.54308e-13
6.24078e-13
7.00887e-13
7.8519e-13
8.77437e-13
9.78066e-13
1.0875e-12
1.20613e-12
1.33431e-12
1.47238e-12
1.6206e-12
1.77918e-12
1.94828e-12
2.12797e-12
2.31823e-12
2.51896e-12
2.72996e-12
2.95092e-12
3.18141e-12
3.42089e-12
3.66869e-12
3.92402e-12
4.18595e-12
4.45344e-12
4.72531e-12
5.00027e-12
5.27692e-12
5.55374e-12
5.82912e-12
6.10137e-12
6.36874e-12
6.62942e-12
6.88157e-12
7.12333e-12
7.35286e-12
7.56835e-12
7.76803e-12
7.95022e-12
8.11332e-12
8.25589e-12
8.37658e-12
8.47423e-12
8.54788e-12
8.59673e-12
8.6202e-12
8.61796e-12
8.58986e-12
8.53604e-12
8.45683e-12
8.35282e-12
8.22483e-12
8.07387e-12
7.9012e-12
7.70825e-12
7.49662e-12
7.26809e-12
7.02456e-12
6.76803e-12
6.50062e-12
6.22446e-12
5.94177e-12
5.65473e-12
5.36554e-12
5.07636e-12
4.78926e-12
4.50625e-12
4.22925e-12
3.96004e-12
3.70029e-12
3.45152e-12
3.21511e-12
2.99228e-12
2.78409e-12
2.59144e-12
2.41506e-12
2.25555e-12
2.11332e-12
1.98865e-12
1.88167e-12
1.79236e-12
1.72058e-12
1.66605e-12
1.62836e-12
1.60701e-12
1.60136e-12
1.61068e-12
1.63413e-12
1.67078e-12
1.71961e-12
1.77951e-12
1.84929e-12
1.92768e-12
2.01335e-12
2.10492e-12
2.20094e-12
2.29994e-12
2.4004e-12
2.50082e-12
2.59967e-12
2.69546e-12
2.78671e-12
2.87203e-12
2.95007e-12
3.01958e-12
3.07943e-12
3.1286e-12
3.16623e-12
3.1916e-12
3.20418e-12
3.2036e-12
3.18968e-12
3.16243e-12
3.12204e-12
3.0689e-12
3.00355e-12
2.9267e-12
2.83921e-12
2.74207e-12
2.63637e-12
2.52328e-12
2.40406e-12
2.27999e-12
2.15235e-12
2.02244e-12
1.8915e-12
1.76074e-12
1.63129e-12
1.50418e-12
1.38036e-12
1.26065e-12
1.14578e-12
1.03633e-12
9.32764e-13
8.35442e-13
7.44596e-13
6.6035e-13
5.82731e-13
5.11672e-13
4.4703e-13
3.88592e-13
3.36089e-13
2.89207e-13
2.47599e-13
2.10896e-13
1.78713e-13
1.50663e-13
1.26361e-13
1.0543e-13
8.75097e-14
7.22573e-14
5.93519e-14
4.84961e-14
3.94179e-14
3.18705e-14
2.56322e-14
2.0506e-14
1.6318e-14
1.29163e-14
1.01693e-14
7.96388e-15
6.20339e-15
4.80621e-15
3.70375e-15
2.83884e-15
2.16421e-15
1.64101e-15
1.23759e-15
9.28301e-16
6.92545e-16
5.13868e-16
3.79225e-16
2.78344e-16
2.03191e-16
1.47525e-16
1.06528e-16
7.65055e-17
5.46458e-17
3.88199e-17
2.74274e-17
1.92728e-17
1.34688e-17
9.36115e-18
6.46996e-18
4.44569e-18
3.03495e-18
2.05495e-18
1.37416e-18
8.97965e-19
5.57906e-19
3.03544e-19
9.61934e-20
6.84792e-19
2.0956e-18
3.63311e-18
5.39163e-18
7.47995e-18
1.00273e-17
1.31901e-17
1.71592e-17
2.21693e-17
2.85097e-17
3.65382e-17
4.66973e-17
5.95348e-17
7.57277e-17
9.61118e-17
1.21717e-16
1.53811e-16
1.93947e-16
2.44026e-16
3.06371e-16
3.83806e-16
4.79765e-16
5.98402e-16
7.44736e-16
9.24815e-16
1.1459e-15
1.41669e-15
1.74757e-15
2.15093e-15
2.64147e-15
3.2366e-15
3.9569e-15
4.82657e-15
5.87406e-15
7.13265e-15
8.64118e-15
1.04448e-14
1.25961e-14
1.51555e-14
1.81929e-14
2.17887e-14
2.60346e-14
3.10357e-14
3.69112e-14
4.37964e-14
5.18442e-14
6.12266e-14
7.21365e-14
8.47896e-14
9.94258e-14
1.16311e-13
1.35741e-13
1.58036e-13
1.83554e-13
2.12678e-13
2.4583e-13
2.83463e-13
3.26065e-13
3.74157e-13
4.28297e-13
4.89071e-13
5.571e-13
6.33031e-13
7.17538e-13
8.11315e-13
9.15071e-13
1.02953e-12
1.15541e-12
1.29345e-12
1.44433e-12
1.60876e-12
1.78738e-12
1.98079e-12
2.18956e-12
2.41416e-12
2.65498e-12
2.91234e-12
3.18641e-12
3.47726e-12
3.78481e-12
4.10885e-12
4.44897e-12
4.80463e-12
5.17505e-12
5.55932e-12
5.95628e-12
6.3646e-12
6.78274e-12
7.20895e-12
7.6413e-12
8.07767e-12
8.51575e-12
8.9531e-12
9.3871e-12
9.81504e-12
1.02341e-11
1.06414e-11
1.1034e-11
1.1409e-11
1.17635e-11
1.20946e-11
1.23996e-11
1.2676e-11
1.29212e-11
1.3133e-11
1.33095e-11
1.34489e-11
1.35498e-11
1.36111e-11
1.36321e-11
1.36123e-11
1.35516e-11
1.34505e-11
1.33096e-11
1.313e-11
1.29131e-11
1.26607e-11
1.23748e-11
1.20578e-11
1.17124e-11
1.13414e-11
1.09479e-11
1.05351e-11
1.01063e-11
9.66502e-12
9.21463e-12
8.7586e-12
8.30034e-12
7.84318e-12
7.39034e-12
6.9449e-12
6.50978e-12
6.08768e-12
5.68112e-12
5.29237e-12
4.92348e-12
4.57624e-12
4.25219e-12
3.95261e-12
3.67856e-12
3.43082e-12
3.20994e-12
3.01624e-12
2.84982e-12
2.71057e-12
2.59815e-12
2.51207e-12
2.45163e-12
2.41596e-12
2.40404e-12
2.41469e-12
2.44656e-12
2.49821e-12
2.56804e-12
2.65433e-12
2.75525e-12
2.86888e-12
2.9932e-12
3.1261e-12
3.26543e-12
3.40897e-12
3.55448e-12
3.69971e-12
3.84241e-12
3.98038e-12
4.11146e-12
4.2336e-12
4.34486e-12
4.44341e-12
4.52763e-12
4.59607e-12
4.64749e-12
4.68089e-12
4.69552e-12
4.69091e-12
4.66682e-12
4.62333e-12
4.56076e-12
4.4797e-12
4.381e-12
4.26572e-12
4.13516e-12
3.99078e-12
3.83419e-12
3.66714e-12
3.49144e-12
3.30897e-12
3.12162e-12
2.93126e-12
2.73969e-12
2.54865e-12
2.35977e-12
2.17455e-12
1.99432e-12
1.82028e-12
1.65344e-12
1.49462e-12
1.3445e-12
1.20355e-12
1.07209e-12
9.50287e-13
8.38151e-13
7.35572e-13
6.42324e-13
5.58084e-13
4.82452e-13
4.14961e-13
3.55102e-13
3.0233e-13
2.56085e-13
2.15801e-13
1.80919e-13
1.50892e-13
1.25197e-13
1.03338e-13
8.4851e-14
6.93075e-14
5.63148e-14
4.55174e-14
3.65966e-14
2.92688e-14
2.32845e-14
1.84255e-14
1.45031e-14
1.13549e-14
8.84265e-15
6.84946e-15
5.27716e-15
4.04399e-15
3.08235e-15
2.33676e-15
1.76198e-15
1.32143e-15
9.85678e-16
7.31267e-16
5.39589e-16
3.96e-16
2.89047e-16
2.09838e-16
1.51509e-16
1.08801e-16
7.7708e-17
5.51994e-17
3.89978e-17
2.74018e-17
1.91491e-17
1.33087e-17
9.19811e-18
6.3202e-18
4.31463e-18
2.92143e-18
1.95361e-18
1.27665e-18
7.93209e-19
4.31578e-19
1.3677e-19
1.15019e-18
3.51971e-18
6.10172e-18
9.05431e-18
1.25598e-17
1.68349e-17
2.21414e-17
2.87992e-17
3.72009e-17
4.78312e-17
6.12884e-17
7.83131e-17
9.98211e-17
1.26944e-16
1.6108e-16
2.03949e-16
2.57667e-16
3.2483e-16
4.08611e-16
5.12883e-16
6.42362e-16
8.02768e-16
1.00103e-15
1.24551e-15
1.54628e-15
1.91542e-15
2.36742e-15
2.91956e-15
3.59243e-15
4.41045e-15
5.40255e-15
6.60289e-15
8.05164e-15
9.79597e-15
1.1891e-14
1.44012e-14
1.74013e-14
2.0978e-14
2.52315e-14
3.02774e-14
3.6248e-14
4.32951e-14
5.15915e-14
6.13339e-14
7.27448e-14
8.60757e-14
1.01609e-13
1.19661e-13
1.40587e-13
1.64778e-13
1.9267e-13
2.24744e-13
2.61528e-13
3.03599e-13
3.51587e-13
4.06173e-13
4.68094e-13
5.38141e-13
6.17157e-13
7.06041e-13
8.05741e-13
9.17253e-13
1.04162e-12
1.17991e-12
1.33324e-12
1.50273e-12
1.68954e-12
1.89481e-12
2.11966e-12
2.36521e-12
2.63252e-12
2.9226e-12
3.23638e-12
3.57469e-12
3.93824e-12
4.3276e-12
4.74317e-12
5.1852e-12
5.65369e-12
6.14843e-12
6.66898e-12
7.2146e-12
7.78431e-12
8.37679e-12
8.99044e-12
9.62333e-12
1.02732e-11
1.09376e-11
1.16135e-11
1.22979e-11
1.29871e-11
1.36776e-11
1.43654e-11
1.50462e-11
1.57157e-11
1.63694e-11
1.70028e-11
1.76112e-11
1.819e-11
1.87347e-11
1.92409e-11
1.97043e-11
2.01209e-11
2.0487e-11
2.07994e-11
2.10549e-11
2.12511e-11
2.13859e-11
2.14579e-11
2.14659e-11
2.14097e-11
2.12894e-11
2.11057e-11
2.086e-11
2.05541e-11
2.01905e-11
1.97723e-11
1.93027e-11
1.87858e-11
1.82257e-11
1.76272e-11
1.69951e-11
1.63346e-11
1.56508e-11
1.49493e-11
1.42354e-11
1.35144e-11
1.27917e-11
1.20724e-11
1.13614e-11
1.06635e-11
9.98302e-12
9.32409e-12
8.69048e-12
8.08557e-12
7.51237e-12
6.9735e-12
6.4712e-12
6.00728e-12
5.58318e-12
5.19997e-12
4.85834e-12
4.55862e-12
4.30082e-12
4.08461e-12
3.90938e-12
3.77421e-12
3.67793e-12