/*--------------------------------*- C++ -*----------------------------------*\
| =========                 |                                                 |
| \\      /  F ield         | OpenFOAM: The Open Source CFD Toolbox           |
|  \\    /   O peration     | Version:  v2012                                 |
|   \\  /    A nd           | Website:  www.openfoam.com                      |
|    \\/     M anipulation  |                                                 |
\*---------------------------------------------------------------------------*/
FoamFile
{
    version     2.0;
    format      ascii;
    class       surfaceScalarField;
    location    "9.3";
    object      phi;
}
// * * * * * * * * * * * * * * * * * * * * * * * * * * * * * * * * * * * * * //

dimensions      [0 3 -1 0 0 0 0];
oriented        oriented;


internalField   nonuniform List<scalar> 
130560
(
3.69342e-06
-3.69342e-06
7.38688e-06
-3.69346e-06
1.10804e-05
-3.69355e-06
1.47741e-05
-3.69367e-06
1.84679e-05
-3.69383e-06
2.2162e-05
-3.69403e-06
2.58562e-05
-3.69426e-06
2.95507e-05
-3.69451e-06
3.32455e-05
-3.69479e-06
3.69406e-05
-3.69508e-06
4.0636e-05
-3.69538e-06
4.43317e-05
-3.69567e-06
4.80276e-05
-3.69596e-06
5.17239e-05
-3.69623e-06
5.54203e-05
-3.69647e-06
5.9117e-05
-3.69667e-06
6.28138e-05
-3.69682e-06
6.65107e-05
-3.6969e-06
7.02076e-05
-3.69691e-06
7.39045e-05
-3.69683e-06
7.76011e-05
-3.69664e-06
8.12974e-05
-3.69633e-06
8.49933e-05
-3.69588e-06
8.86886e-05
-3.69527e-06
9.23831e-05
-3.69449e-06
9.60766e-05
-3.69352e-06
9.97689e-05
-3.69234e-06
0.00010346
-3.69093e-06
0.000107149
-3.68926e-06
0.000110836
-3.68732e-06
0.000114522
-3.68509e-06
0.000118204
-3.68253e-06
0.000121884
-3.67964e-06
0.00012556
-3.67637e-06
0.000129233
-3.67272e-06
0.000132901
-3.66865e-06
0.000136566
-3.66414e-06
0.000140225
-3.65916e-06
0.000143878
-3.65368e-06
0.000147526
-3.64769e-06
0.000151167
-3.64114e-06
0.000154801
-3.63401e-06
0.000158428
-3.62627e-06
0.000162045
-3.6179e-06
0.000165654
-3.60887e-06
0.000169253
-3.59914e-06
0.000172842
-3.58868e-06
0.00017642
-3.57748e-06
0.000179985
-3.56548e-06
0.000183538
-3.55268e-06
0.000187077
-3.53904e-06
0.000190601
-3.52452e-06
0.00019411
-3.5091e-06
0.000197603
-3.49275e-06
0.000201079
-3.47545e-06
0.000204536
-3.45715e-06
0.000207974
-3.43785e-06
0.000211391
-3.4175e-06
0.000214787
-3.39608e-06
0.000218161
-3.37357e-06
0.000221511
-3.34995e-06
0.000224836
-3.32517e-06
0.000228135
-3.29924e-06
0.000231407
-3.27211e-06
0.000234651
-3.24378e-06
0.000237865
-3.21422e-06
0.000241049
-3.18341e-06
0.0002442
-3.15134e-06
0.000247318
-3.11799e-06
0.000250401
-3.08335e-06
0.000253449
-3.0474e-06
0.000256459
-3.01013e-06
0.00025943
-2.97154e-06
0.000262362
-2.93162e-06
0.000265252
-2.89036e-06
0.0002681
-2.84776e-06
0.000270904
-2.80382e-06
0.000273662
-2.75854e-06
0.000276374
-2.71193e-06
0.000279038
-2.66398e-06
0.000281653
-2.61471e-06
0.000284217
-2.56412e-06
0.000286729
-2.51223e-06
0.000289189
-2.45906e-06
0.000291593
-2.40461e-06
0.000293942
-2.34891e-06
0.000296234
-2.29198e-06
0.000298468
-2.23384e-06
0.000300642
-2.17452e-06
0.000302756
-2.11404e-06
0.000304809
-2.05244e-06
0.000306799
-1.98975e-06
0.000308725
-1.926e-06
0.000310586
-1.86123e-06
0.000312381
-1.79548e-06
0.00031411
-1.72878e-06
0.000315771
-1.66119e-06
0.000317364
-1.59273e-06
0.000318887
-1.52347e-06
0.000320341
-1.45344e-06
0.000321724
-1.3827e-06
0.000323035
-1.3113e-06
0.000324274
-1.23927e-06
0.000325441
-1.16669e-06
0.000326535
-1.0936e-06
0.000327555
-1.02005e-06
0.000328501
-9.46109e-07
0.000329372
-8.7182e-07
0.00033017
-7.97242e-07
0.000330892
-7.22432e-07
0.00033154
-6.47447e-07
0.000332112
-5.72343e-07
0.000332609
-4.97177e-07
0.000333031
-4.22006e-07
0.000333378
-3.46885e-07
0.00033365
-2.7187e-07
0.000333847
-1.97016e-07
0.000333969
-1.22378e-07
0.000334017
-4.80097e-08
0.000333991
2.60365e-08
0.000333892
9.97088e-08
0.000333719
1.72956e-07
0.000333473
2.45729e-07
0.000333155
3.1798e-07
0.000332765
3.89662e-07
0.000332304
4.60728e-07
0.000331773
5.31137e-07
0.000331173
6.00844e-07
0.000330503
6.6981e-07
0.000329765
7.37996e-07
0.000328959
8.05365e-07
0.000328087
8.71881e-07
0.00032715
9.37511e-07
0.000326148
1.00222e-06
0.000325082
1.06599e-06
0.000323953
1.12878e-06
0.000322762
1.19057e-06
0.000321511
1.25133e-06
0.0003202
1.31105e-06
0.00031883
1.36969e-06
0.000317403
1.42726e-06
0.000315919
1.48372e-06
0.00031438
1.53906e-06
0.000312787
1.59328e-06
0.000311141
1.64635e-06
0.000309442
1.69828e-06
0.000307693
1.74905e-06
0.000305895
1.79865e-06
0.000304048
1.84709e-06
0.000302153
1.89436e-06
0.000300213
1.94046e-06
0.000298227
1.98539e-06
0.000296198
2.02915e-06
0.000294126
2.07175e-06
0.000292013
2.11319e-06
0.00028986
2.15347e-06
0.000287667
2.19261e-06
0.000285437
2.2306e-06
0.000283169
2.26747e-06
0.000280866
2.30322e-06
0.000278528
2.33787e-06
0.000276157
2.37141e-06
0.000273753
2.40388e-06
0.000271317
2.43528e-06
0.000268852
2.46562e-06
0.000266357
2.49493e-06
0.000263834
2.52321e-06
0.000261283
2.55049e-06
0.000258706
2.57679e-06
0.000256104
2.60211e-06
0.000253478
2.62648e-06
0.000250828
2.64991e-06
0.000248156
2.67243e-06
0.000245461
2.69406e-06
0.000242747
2.71481e-06
0.000240012
2.7347e-06
0.000237258
2.75375e-06
0.000234486
2.77199e-06
0.000231697
2.78943e-06
0.000228891
2.8061e-06
0.000226069
2.82201e-06
0.000223231
2.83718e-06
0.00022038
2.85163e-06
0.000217514
2.86539e-06
0.000214636
2.87847e-06
0.000211745
2.89089e-06
0.000208842
2.90268e-06
0.000205929
2.91385e-06
0.000203004
2.92443e-06
0.00020007
2.93442e-06
0.000197126
2.94385e-06
0.000194173
2.95275e-06
0.000191212
2.96112e-06
0.000188243
2.96899e-06
0.000185267
2.97638e-06
0.000182283
2.98329e-06
0.000179294
2.98976e-06
0.000176298
2.9958e-06
0.000173296
3.00141e-06
0.00017029
3.00664e-06
0.000167278
3.01147e-06
0.000164262
3.01595e-06
0.000161242
3.02007e-06
0.000158218
3.02386e-06
0.000155191
3.02733e-06
0.000152161
3.03049e-06
0.000149127
3.03336e-06
0.000146091
3.03596e-06
0.000143053
3.0383e-06
0.000140013
3.04038e-06
0.00013697
3.04224e-06
0.000133926
3.04387e-06
0.000130881
3.04529e-06
0.000127835
3.04651e-06
0.000124787
3.04754e-06
0.000121739
3.04841e-06
0.00011869
3.04911e-06
0.00011564
3.04965e-06
0.00011259
3.05006e-06
0.00010954
3.05033e-06
0.000106489
3.05049e-06
0.000103439
3.05053e-06
0.000100388
3.05047e-06
9.73378e-05
3.05032e-06
9.42877e-05
3.05008e-06
9.12379e-05
3.04977e-06
8.81885e-05
3.04939e-06
8.51396e-05
3.04895e-06
8.20911e-05
3.04846e-06
7.90432e-05
3.04792e-06
7.59958e-05
3.04735e-06
7.29491e-05
3.04674e-06
6.9903e-05
3.04611e-06
6.68575e-05
3.04546e-06
6.38127e-05
3.0448e-06
6.07686e-05
3.04413e-06
5.77251e-05
3.04345e-06
5.46823e-05
3.04279e-06
5.16402e-05
3.04212e-06
4.85988e-05
3.04147e-06
4.55579e-05
3.04084e-06
4.25177e-05
3.04023e-06
3.9478e-05
3.03964e-06
3.6439e-05
3.03908e-06
3.34004e-05
3.03855e-06
3.03624e-05
3.03806e-06
2.73248e-05
3.0376e-06
2.42876e-05
3.03718e-06
2.12508e-05
3.0368e-06
1.82143e-05
3.03646e-06
1.51781e-05
3.03617e-06
1.21422e-05
3.03593e-06
9.10649e-06
3.03573e-06
6.07091e-06
3.03558e-06
3.03543e-06
3.03548e-06
3.03543e-06
3.69338e-06
-7.3868e-06
7.3868e-06
-7.38688e-06
1.10803e-05
-7.38705e-06
1.47739e-05
-7.38731e-06
1.84677e-05
-7.38763e-06
2.21617e-05
-7.38803e-06
2.5856e-05
-7.38849e-06
2.95505e-05
-7.38901e-06
3.32452e-05
-7.38957e-06
3.69403e-05
-7.39015e-06
4.06357e-05
-7.39075e-06
4.43314e-05
-7.39136e-06
4.80274e-05
-7.39194e-06
5.17236e-05
-7.39249e-06
5.54201e-05
-7.39298e-06
5.91168e-05
-7.39339e-06
6.28137e-05
-7.3937e-06
6.65107e-05
-7.39389e-06
7.02077e-05
-7.39392e-06
7.39047e-05
-7.39376e-06
7.76014e-05
-7.3934e-06
8.12979e-05
-7.39279e-06
8.49939e-05
-7.39191e-06
8.86894e-05
-7.39072e-06
9.2384e-05
-7.38918e-06
9.60778e-05
-7.38725e-06
9.97703e-05
-7.38491e-06
0.000103462
-7.3821e-06
0.000107151
-7.37879e-06
0.000110839
-7.37494e-06
0.000114524
-7.37049e-06
0.000118207
-7.36541e-06
0.000121887
-7.35964e-06
0.000125564
-7.35314e-06
0.000129237
-7.34586e-06
0.000132906
-7.33774e-06
0.000136571
-7.32875e-06
0.00014023
-7.31881e-06
0.000143884
-7.30789e-06
0.000147533
-7.29592e-06
0.000151174
-7.28285e-06
0.000154809
-7.26862e-06
0.000158436
-7.25318e-06
0.000162054
-7.23647e-06
0.000165664
-7.21843e-06
0.000169264
-7.199e-06
0.000172853
-7.17812e-06
0.000176432
-7.15573e-06
0.000179998
-7.13178e-06
0.000183551
-7.1062e-06
0.000187091
-7.07894e-06
0.000190617
-7.04994e-06
0.000194127
-7.01913e-06
0.00019762
-6.98646e-06
0.000201097
-6.95188e-06
0.000204555
-6.91532e-06
0.000207994
-6.87673e-06
0.000211412
-6.83606e-06
0.00021481
-6.79326e-06
0.000218184
-6.74826e-06
0.000221535
-6.70103e-06
0.000224862
-6.65151e-06
0.000228162
-6.59966e-06
0.000231436
-6.54543e-06
0.000234681
-6.48879e-06
0.000237896
-6.42968e-06
0.000241081
-6.36808e-06
0.000244233
-6.30396e-06
0.000247353
-6.23727e-06
0.000250437
-6.16799e-06
0.000253486
-6.09611e-06
0.000256497
-6.02159e-06
0.00025947
-5.94441e-06
0.000262403
-5.86457e-06
0.000265295
-5.78206e-06
0.000268144
-5.69687e-06
0.000270949
-5.60899e-06
0.000273709
-5.51842e-06
0.000276422
-5.42519e-06
0.000279088
-5.32928e-06
0.000281704
-5.23073e-06
0.000284269
-5.12954e-06
0.000286783
-5.02575e-06
0.000289243
-4.91938e-06
0.000291649
-4.81047e-06
0.000293999
-4.69905e-06
0.000296292
-4.58516e-06
0.000298527
-4.46886e-06
0.000300703
-4.35019e-06
0.000302818
-4.2292e-06
0.000304871
-4.10597e-06
0.000306862
-3.98055e-06
0.000308789
-3.85302e-06
0.000310651
-3.72344e-06
0.000312448
-3.59189e-06
0.000314178
-3.45846e-06
0.00031584
-3.32322e-06
0.000317433
-3.18627e-06
0.000318957
-3.0477e-06
0.000320412
-2.9076e-06
0.000321795
-2.76607e-06
0.000323107
-2.6232e-06
0.000324347
-2.47911e-06
0.000325514
-2.33389e-06
0.000326608
-2.18765e-06
0.000327628
-2.04051e-06
0.000328575
-1.89256e-06
0.000329447
-1.74393e-06
0.000330244
-1.59471e-06
0.000330967
-1.44504e-06
0.000331615
-1.29501e-06
0.000332187
-1.14475e-06
0.000332684
-9.94359e-07
0.000333106
-8.4396e-07
0.000333453
-6.93662e-07
0.000333725
-5.43577e-07
0.000333921
-3.93815e-07
0.000334043
-2.44485e-07
0.000334091
-9.56957e-08
0.000334065
5.24486e-08
0.000333965
1.99844e-07
0.000333791
3.46388e-07
0.000333545
4.91983e-07
0.000333226
6.36531e-07
0.000332836
7.79939e-07
0.000332375
9.22116e-07
0.000331843
1.06297e-06
0.000331241
1.20243e-06
0.000330571
1.3404e-06
0.000329832
1.47681e-06
0.000329026
1.61158e-06
0.000328153
1.74465e-06
0.000327214
1.87594e-06
0.000326211
2.00539e-06
0.000325144
2.13295e-06
0.000324015
2.25856e-06
0.000322823
2.38216e-06
0.000321571
2.50371e-06
0.000320258
2.62316e-06
0.000318888
2.74047e-06
0.000317459
2.85562e-06
0.000315974
2.96855e-06
0.000314434
3.07925e-06
0.00031284
3.18769e-06
0.000311192
3.29385e-06
0.000309493
3.39771e-06
0.000307743
3.49925e-06
0.000305943
3.59847e-06
0.000304095
3.69535e-06
0.000302199
3.78989e-06
0.000300258
3.88209e-06
0.000298271
3.97194e-06
0.000296241
4.05947e-06
0.000294168
4.14466e-06
0.000292053
4.22752e-06
0.000289899
4.30808e-06
0.000287705
4.38635e-06
0.000285473
4.46234e-06
0.000283205
4.53606e-06
0.0002809
4.60755e-06
0.000278561
4.67683e-06
0.000276189
4.74391e-06
0.000273784
4.80883e-06
0.000271348
4.87161e-06
0.000268881
4.93228e-06
0.000266385
4.99088e-06
0.000263861
5.04743e-06
0.000261309
5.10197e-06
0.000258732
5.15454e-06
0.000256129
5.20517e-06
0.000253501
5.25389e-06
0.00025085
5.30074e-06
0.000248177
5.34576e-06
0.000245482
5.38899e-06
0.000242766
5.43047e-06
0.000240031
5.47024e-06
0.000237276
5.50833e-06
0.000234503
5.54478e-06
0.000231713
5.57964e-06
0.000228906
5.61295e-06
0.000226084
5.64475e-06
0.000223246
5.67507e-06
0.000220393
5.70396e-06
0.000217527
5.73145e-06
0.000214648
5.75759e-06
0.000211757
5.78242e-06
0.000208853
5.80598e-06
0.000205939
5.8283e-06
0.000203014
5.84943e-06
0.000200079
5.8694e-06
0.000197135
5.88825e-06
0.000194181
5.90602e-06
0.00019122
5.92275e-06
0.00018825
5.93847e-06
0.000185273
5.95322e-06
0.00018229
5.96703e-06
0.000179299
5.97995e-06
0.000176303
5.992e-06
0.000173301
6.00323e-06
0.000170294
6.01365e-06
0.000167283
6.02331e-06
0.000164266
6.03224e-06
0.000161246
6.04047e-06
0.000158222
6.04803e-06
0.000155194
6.05495e-06
0.000152163
6.06127e-06
0.00014913
6.067e-06
0.000146093
6.07218e-06
0.000143055
6.07684e-06
0.000140014
6.081e-06
0.000136972
6.08469e-06
0.000133928
6.08794e-06
0.000130882
6.09077e-06
0.000127836
6.0932e-06
0.000124788
6.09526e-06
0.000121739
6.09697e-06
0.00011869
6.09836e-06
0.00011564
6.09945e-06
0.00011259
6.10025e-06
0.00010954
6.10079e-06
0.000106489
6.10109e-06
0.000103438
6.10116e-06
0.000100388
6.10104e-06
9.73375e-05
6.10072e-06
9.42873e-05
6.10024e-06
9.12375e-05
6.09961e-06
8.8188e-05
6.09884e-06
8.5139e-05
6.09795e-06
8.20905e-05
6.09696e-06
7.90425e-05
6.09588e-06
7.59952e-05
6.09472e-06
7.29484e-05
6.09351e-06
6.99023e-05
6.09224e-06
6.68568e-05
6.09093e-06
6.3812e-05
6.0896e-06
6.07679e-05
6.08825e-06
5.77244e-05
6.0869e-06
5.46817e-05
6.08556e-06
5.16395e-05
6.08423e-06
4.85981e-05
6.08293e-06
4.55573e-05
6.08166e-06
4.25171e-05
6.08043e-06
3.94775e-05
6.07925e-06
3.64384e-05
6.07813e-06
3.33999e-05
6.07707e-06
3.03619e-05
6.07607e-06
2.73243e-05
6.07515e-06
2.42872e-05
6.07431e-06
2.12504e-05
6.07355e-06
1.8214e-05
6.07288e-06
1.51779e-05
6.07229e-06
1.2142e-05
6.0718e-06
9.10634e-06
6.07141e-06
6.07081e-06
6.07111e-06
3.03538e-06
6.07091e-06
6.07082e-06
3.69329e-06
-1.10801e-05
7.38663e-06
-1.10802e-05
1.10801e-05
-1.10805e-05
1.47736e-05
-1.10809e-05
1.84673e-05
-1.10814e-05
2.21613e-05
-1.1082e-05
2.58555e-05
-1.10827e-05
2.95499e-05
-1.10835e-05
3.32447e-05
-1.10843e-05
3.69397e-05
-1.10852e-05
4.06351e-05
-1.10861e-05
4.43308e-05
-1.10871e-05
4.80268e-05
-1.1088e-05
5.17231e-05
-1.10888e-05
5.54197e-05
-1.10896e-05
5.91165e-05
-1.10902e-05
6.28136e-05
-1.10907e-05
6.65107e-05
-1.1091e-05
7.02079e-05
-1.10911e-05
7.3905e-05
-1.10909e-05
7.7602e-05
-1.10904e-05
8.12988e-05
-1.10895e-05
8.49951e-05
-1.10883e-05
8.86909e-05
-1.10865e-05
9.2386e-05
-1.10842e-05
9.60801e-05
-1.10814e-05
9.97732e-05
-1.10779e-05
0.000103465
-1.10738e-05
0.000107155
-1.10689e-05
0.000110843
-1.10631e-05
0.000114529
-1.10565e-05
0.000118213
-1.1049e-05
0.000121893
-1.10404e-05
0.000125571
-1.10307e-05
0.000129245
-1.10198e-05
0.000132915
-1.10077e-05
0.00013658
-1.09943e-05
0.000140241
-1.09795e-05
0.000143896
-1.09631e-05
0.000147546
-1.09453e-05
0.000151189
-1.09257e-05
0.000154824
-1.09045e-05
0.000158453
-1.08814e-05
0.000162073
-1.08564e-05
0.000165683
-1.08294e-05
0.000169285
-1.08003e-05
0.000172876
-1.07691e-05
0.000176456
-1.07356e-05
0.000180023
-1.06997e-05
0.000183579
-1.06614e-05
0.00018712
-1.06206e-05
0.000190648
-1.05772e-05
0.000194159
-1.0531e-05
0.000197655
-1.04821e-05
0.000201133
-1.04303e-05
0.000204594
-1.03755e-05
0.000208035
-1.03177e-05
0.000211455
-1.02568e-05
0.000214855
-1.01926e-05
0.000218232
-1.01252e-05
0.000221585
-1.00544e-05
0.000224914
-9.98018e-06
0.000228216
-9.90246e-06
0.000231492
-9.82117e-06
0.00023474
-9.73625e-06
0.000237958
-9.64764e-06
0.000241145
-9.55529e-06
0.0002443
-9.45913e-06
0.000247422
-9.35914e-06
0.000250509
-9.25526e-06
0.00025356
-9.14745e-06
0.000256575
-9.03569e-06
0.00025955
-8.91995e-06
0.000262486
-8.80021e-06
0.00026538
-8.67644e-06
0.000268232
-8.54865e-06
0.00027104
-8.41683e-06
0.000273802
-8.28098e-06
0.000276518
-8.14111e-06
0.000279186
-7.99724e-06
0.000281805
-7.84938e-06
0.000284373
-7.69757e-06
0.000286889
-7.54185e-06
0.000289352
-7.38226e-06
0.00029176
-7.21884e-06
0.000294113
-7.05165e-06
0.000296408
-6.88076e-06
0.000298646
-6.70624e-06
0.000300824
-6.52817e-06
0.000302941
-6.34662e-06
0.000304997
-6.16169e-06
0.00030699
-5.97348e-06
0.000308919
-5.78208e-06
0.000310783
-5.58762e-06
0.000312581
-5.3902e-06
0.000314313
-5.18994e-06
0.000315977
-4.98698e-06
0.000317572
-4.78144e-06
0.000319098
-4.57346e-06
0.000320553
-4.36319e-06
0.000321938
-4.15077e-06
0.000323251
-3.93634e-06
0.000324492
-3.72007e-06
0.00032566
-3.50211e-06
0.000326755
-3.28262e-06
0.000327776
-3.06176e-06
0.000328724
-2.8397e-06
0.000329596
-2.61661e-06
0.000330394
-2.39265e-06
0.000331117
-2.16799e-06
0.000331765
-1.94281e-06
0.000332337
-1.71728e-06
0.000332835
-1.49155e-06
0.000333256
-1.26581e-06
0.000333603
-1.04023e-06
0.000333874
-8.14961e-07
0.000334071
-5.90182e-07
0.000334192
-3.66054e-07
0.000334239
-1.42737e-07
0.000334212
7.96093e-08
0.000334111
3.00829e-07
0.000333937
5.20769e-07
0.00033369
7.39282e-07
0.00033337
9.56221e-07
0.000332978
1.17145e-06
0.000332516
1.38482e-06
0.000331982
1.59622e-06
0.000331379
1.8055e-06
0.000330707
2.01256e-06
0.000329967
2.21726e-06
0.000329159
2.41951e-06
0.000328284
2.61919e-06
0.000327344
2.81621e-06
0.000326339
3.01046e-06
0.00032527
3.20187e-06
0.000324138
3.39034e-06
0.000322945
3.5758e-06
0.00032169
3.75818e-06
0.000320376
3.93741e-06
0.000319003
4.11343e-06
0.000317572
4.28618e-06
0.000316085
4.45562e-06
0.000314543
4.62171e-06
0.000312946
4.78439e-06
0.000311296
4.94365e-06
0.000309595
5.09946e-06
0.000307842
5.25179e-06
0.00030604
5.40062e-06
0.000304189
5.54595e-06
0.000302291
5.68776e-06
0.000300347
5.82606e-06
0.000298359
5.96084e-06
0.000296326
6.09211e-06
0.000294251
6.21988e-06
0.000292134
6.34417e-06
0.000289977
6.46499e-06
0.000287781
6.58237e-06
0.000285547
6.69633e-06
0.000283276
6.80689e-06
0.00028097
6.9141e-06
0.000278629
7.01798e-06
0.000276254
7.11857e-06
0.000273847
7.21591e-06
0.000271408
7.31004e-06
0.00026894
7.40102e-06
0.000266442
7.48887e-06
0.000263915
7.57366e-06
0.000261362
7.65543e-06
0.000258782
7.73424e-06
0.000256177
7.81013e-06
0.000253548
7.88316e-06
0.000250895
7.9534e-06
0.00024822
8.02088e-06
0.000245524
8.08568e-06
0.000242806
8.14785e-06
0.000240069
8.20745e-06
0.000237313
8.26453e-06
0.000234538
8.31917e-06
0.000231747
8.37141e-06
0.000228938
8.42132e-06
0.000226114
8.46896e-06
0.000223275
8.51439e-06
0.000220421
8.55768e-06
0.000217554
8.59887e-06
0.000214673
8.63803e-06
0.00021178
8.67523e-06
0.000208876
8.71051e-06
0.00020596
8.74395e-06
0.000203034
8.77559e-06
0.000200098
8.80549e-06
0.000197152
8.83372e-06
0.000194198
8.86033e-06
0.000191236
8.88538e-06
0.000188265
8.90891e-06
0.000185287
8.93099e-06
0.000182303
8.95168e-06
0.000179312
8.97101e-06
0.000176315
8.98904e-06
0.000173312
9.00583e-06
0.000170304
9.02143e-06
0.000167292
9.03588e-06
0.000164275
9.04924e-06
0.000161254
9.06154e-06
0.000158229
9.07285e-06
0.0001552
9.08319e-06
0.000152169
9.09263e-06
0.000149135
9.10119e-06
0.000146098
9.10893e-06
0.000143059
9.11588e-06
0.000140018
9.12209e-06
0.000136975
9.12759e-06
0.000133931
9.13243e-06
0.000130885
9.13664e-06
0.000127838
9.14026e-06
0.00012479
9.14332e-06
0.000121741
9.14587e-06
0.000118691
9.14792e-06
0.000115641
9.14952e-06
0.000112591
9.1507e-06
0.00010954
9.15148e-06
0.000106489
9.15191e-06
0.000103438
9.152e-06
0.000100388
9.15179e-06
9.7337e-05
9.15129e-06
9.42867e-05
9.15055e-06
9.12367e-05
9.14958e-06
8.81872e-05
9.14841e-06
8.5138e-05
9.14706e-06
8.20895e-05
9.14556e-06
7.90414e-05
9.14392e-06
7.5994e-05
9.14217e-06
7.29472e-05
9.14032e-06
6.9901e-05
9.1384e-06
6.68555e-05
9.13643e-06
6.38107e-05
9.13442e-06
6.07665e-05
9.13239e-06
5.77231e-05
9.13035e-06
5.46803e-05
9.12832e-06
5.16383e-05
9.12632e-06
4.85968e-05
9.12435e-06
4.55561e-05
9.12244e-06
4.25159e-05
9.12059e-06
3.94763e-05
9.11881e-06
3.64374e-05
9.11712e-06
3.33989e-05
9.11552e-06
3.0361e-05
9.11402e-06
2.73235e-05
9.11263e-06
2.42864e-05
9.11136e-06
2.12498e-05
9.11022e-06
1.82134e-05
9.1092e-06
1.51774e-05
9.10832e-06
1.21416e-05
9.10758e-06
9.10605e-06
9.10699e-06
6.07061e-06
9.10654e-06
3.03528e-06
9.10625e-06
9.1061e-06
3.69316e-06
-1.47732e-05
7.38637e-06
-1.47734e-05
1.10797e-05
-1.47738e-05
1.47731e-05
-1.47743e-05
1.84667e-05
-1.4775e-05
2.21606e-05
-1.47758e-05
2.58547e-05
-1.47768e-05
2.95491e-05
-1.47778e-05
3.32438e-05
-1.4779e-05
3.69388e-05
-1.47802e-05
4.06342e-05
-1.47815e-05
4.43299e-05
-1.47828e-05
4.8026e-05
-1.4784e-05
5.17224e-05
-1.47852e-05
5.54191e-05
-1.47863e-05
5.9116e-05
-1.47872e-05
6.28132e-05
-1.47879e-05
6.65106e-05
-1.47884e-05
7.02081e-05
-1.47886e-05
7.39055e-05
-1.47884e-05
7.76029e-05
-1.47878e-05
8.13001e-05
-1.47867e-05
8.49969e-05
-1.47851e-05
8.86932e-05
-1.47828e-05
9.23888e-05
-1.47799e-05
9.60836e-05
-1.47762e-05
9.97773e-05
-1.47717e-05
0.00010347
-1.47662e-05
0.000107161
-1.47598e-05
0.00011085
-1.47522e-05
0.000114537
-1.47435e-05
0.000118221
-1.47335e-05
0.000121903
-1.47222e-05
0.000125582
-1.47094e-05
0.000129257
-1.4695e-05
0.000132928
-1.4679e-05
0.000136595
-1.46612e-05
0.000140257
-1.46416e-05
0.000143914
-1.462e-05
0.000147565
-1.45962e-05
0.00015121
-1.45703e-05
0.000154848
-1.45421e-05
0.000158478
-1.45115e-05
0.0001621
-1.44783e-05
0.000165713
-1.44424e-05
0.000169316
-1.44038e-05
0.000172909
-1.43623e-05
0.000176491
-1.43177e-05
0.000180062
-1.42701e-05
0.00018362
-1.42191e-05
0.000187164
-1.41649e-05
0.000190694
-1.41071e-05
0.000194208
-1.40457e-05
0.000197707
-1.39806e-05
0.000201188
-1.39117e-05
0.000204652
-1.38388e-05
0.000208096
-1.37618e-05
0.00021152
-1.36807e-05
0.000214922
-1.35953e-05
0.000218302
-1.35055e-05
0.000221659
-1.34112e-05
0.000224991
-1.33124e-05
0.000228298
-1.32088e-05
0.000231577
-1.31005e-05
0.000234828
-1.29874e-05
0.00023805
-1.28693e-05
0.000241241
-1.27463e-05
0.0002444
-1.26182e-05
0.000247526
-1.24849e-05
0.000250617
-1.23464e-05
0.000253672
-1.22028e-05
0.00025669
-1.20538e-05
0.00025967
-1.18995e-05
0.00026261
-1.17399e-05
0.000265508
-1.15749e-05
0.000268364
-1.14045e-05
0.000271176
-1.12287e-05
0.000273942
-1.10476e-05
0.000276662
-1.0861e-05
0.000279334
-1.06692e-05
0.000281957
-1.0472e-05
0.000284529
-1.02695e-05
0.000287049
-1.00618e-05
0.000289515
-9.84896e-06
0.000291928
-9.63098e-06
0.000294284
-9.40796e-06
0.000296583
-9.18e-06
0.000298824
-8.94719e-06
0.000301005
-8.70962e-06
0.000303126
-8.46742e-06
0.000305185
-8.22069e-06
0.000307181
-7.96958e-06
0.000309114
-7.71422e-06
0.000310981
-7.45475e-06
0.000312782
-7.19134e-06
0.000314516
-6.92413e-06
0.000316182
-6.65331e-06
0.00031778
-6.37905e-06
0.000319308
-6.10152e-06
0.000320766
-5.82093e-06
0.000322152
-5.53747e-06
0.000323467
-5.25133e-06
0.00032471
-4.96272e-06
0.00032588
-4.67186e-06
0.000326976
-4.37895e-06
0.000327999
-4.08422e-06
0.000328947
-3.78788e-06
0.00032982
-3.49016e-06
0.000330619
-3.19128e-06
0.000331342
-2.89148e-06
0.000331991
-2.59097e-06
0.000332563
-2.28999e-06
0.000333061
-1.98876e-06
0.000333482
-1.68751e-06
0.000333828
-1.38647e-06
0.000334099
-1.08586e-06
0.000334295
-7.859e-07
0.000334416
-4.86811e-07
0.000334462
-1.88808e-07
0.000334434
1.07896e-07
0.000334331
4.03092e-07
0.000334156
6.96577e-07
0.000333907
9.88153e-07
0.000333585
1.27762e-06
0.000333192
1.5648e-06
0.000332727
1.84951e-06
0.000332192
2.13157e-06
0.000331587
2.4108e-06
0.000330912
2.68706e-06
0.000330169
2.96017e-06
0.000329359
3.23e-06
0.000328482
3.4964e-06
0.000327538
3.75923e-06
0.000326531
4.01838e-06
0.000325459
4.27372e-06
0.000324324
4.52513e-06
0.000323127
4.77253e-06
0.00032187
5.0158e-06
0.000320552
5.25487e-06
0.000319176
5.48965e-06
0.000317742
5.72006e-06
0.000316252
5.94605e-06
0.000314706
6.16755e-06
0.000313106
6.38452e-06
0.000311452
6.59691e-06
0.000309747
6.80469e-06
0.000307991
7.00782e-06
0.000306185
7.20628e-06
0.000304331
7.40006e-06
0.00030243
7.58915e-06
0.000300482
7.77354e-06
0.00029849
7.95324e-06
0.000296454
8.12826e-06
0.000294375
8.2986e-06
0.000292255
8.46429e-06
0.000290095
8.62535e-06
0.000287895
8.78181e-06
0.000285658
8.93371e-06
0.000283384
9.08108e-06
0.000281074
9.22397e-06
0.000278729
9.36242e-06
0.000276351
9.49648e-06
0.000273941
9.6262e-06
0.0002715
9.75164e-06
0.000269028
9.87287e-06
0.000266527
9.98993e-06
0.000263997
1.01029e-05
0.000261441
1.02119e-05
0.000258858
1.03168e-05
0.000256251
1.0418e-05
0.000253618
1.05152e-05
0.000250963
1.06088e-05
0.000248285
1.06987e-05
0.000245586
1.0785e-05
0.000242866
1.08678e-05
0.000240126
1.09472e-05
0.000237368
1.10232e-05
0.000234591
1.10959e-05
0.000231797
1.11655e-05
0.000228986
1.1232e-05
0.00022616
1.12954e-05
0.000223318
1.13559e-05
0.000220462
1.14135e-05
0.000217593
1.14683e-05
0.000214711
1.15204e-05
0.000211816
1.15699e-05
0.000208909
1.16169e-05
0.000205992
1.16614e-05
0.000203064
1.17035e-05
0.000200126
1.17433e-05
0.000197179
1.17808e-05
0.000194223
1.18162e-05
0.000191259
1.18495e-05
0.000188287
1.18808e-05
0.000185308
1.19102e-05
0.000182322
1.19377e-05
0.00017933
1.19634e-05
0.000176331
1.19873e-05
0.000173328
1.20096e-05
0.000170319
1.20304e-05
0.000167305
1.20496e-05
0.000164287
1.20673e-05
0.000161265
1.20836e-05
0.000158239
1.20986e-05
0.00015521
1.21123e-05
0.000152178
1.21249e-05
0.000149143
1.21362e-05
0.000146105
1.21465e-05
0.000143065
1.21557e-05
0.000140024
1.21639e-05
0.00013698
1.21712e-05
0.000133935
1.21776e-05
0.000130888
1.21831e-05
0.000127841
1.21879e-05
0.000124792
1.21919e-05
0.000121743
1.21952e-05
0.000118693
1.21979e-05
0.000115642
1.22e-05
0.000112592
1.22015e-05
0.00010954
1.22025e-05
0.000106489
1.22031e-05
0.000103438
1.22031e-05
0.000100387
1.22028e-05
9.73363e-05
1.22021e-05
9.42858e-05
1.22011e-05
9.12356e-05
1.21998e-05
8.81859e-05
1.21982e-05
8.51366e-05
1.21963e-05
8.20879e-05
1.21943e-05
7.90397e-05
1.21921e-05
7.59922e-05
1.21897e-05
7.29453e-05
1.21872e-05
6.98991e-05
1.21846e-05
6.68535e-05
1.2182e-05
6.38087e-05
1.21793e-05
6.07645e-05
1.21765e-05
5.77211e-05
1.21738e-05
5.46784e-05
1.21711e-05
5.16363e-05
1.21684e-05
4.85949e-05
1.21657e-05
4.55542e-05
1.21632e-05
4.25141e-05
1.21607e-05
3.94747e-05
1.21583e-05
3.64358e-05
1.2156e-05
3.33974e-05
1.21539e-05
3.03596e-05
1.21519e-05
2.73222e-05
1.215e-05
2.42853e-05
1.21483e-05
2.12488e-05
1.21468e-05
1.82126e-05
1.21454e-05
1.51767e-05
1.21442e-05
1.2141e-05
1.21432e-05
9.1056e-06
1.21424e-05
6.07032e-06
1.21418e-05
3.03513e-06
1.21414e-05
1.21412e-05
3.69298e-06
-1.84662e-05
7.38602e-06
-1.84665e-05
1.10791e-05
-1.84669e-05
1.47724e-05
-1.84676e-05
1.84659e-05
-1.84685e-05
2.21596e-05
-1.84695e-05
2.58536e-05
-1.84708e-05
2.95479e-05
-1.84721e-05
3.32425e-05
-1.84736e-05
3.69375e-05
-1.84752e-05
4.06329e-05
-1.84769e-05
4.43287e-05
-1.84785e-05
4.80248e-05
-1.84802e-05
5.17213e-05
-1.84817e-05
5.54182e-05
-1.84831e-05
5.91153e-05
-1.84844e-05
6.28128e-05
-1.84854e-05
6.65105e-05
-1.84861e-05
7.02083e-05
-1.84864e-05
7.39062e-05
-1.84863e-05
7.7604e-05
-1.84856e-05
8.13017e-05
-1.84844e-05
8.49991e-05
-1.84825e-05
8.86961e-05
-1.84798e-05
9.23925e-05
-1.84763e-05
9.60881e-05
-1.84718e-05
9.97828e-05
-1.84663e-05
0.000103476
-1.84597e-05
0.000107168
-1.84518e-05
0.000110858
-1.84425e-05
0.000114547
-1.84318e-05
0.000118233
-1.84195e-05
0.000121916
-1.84055e-05
0.000125596
-1.83897e-05
0.000129273
-1.83719e-05
0.000132946
-1.83521e-05
0.000136615
-1.83301e-05
0.000140279
-1.83057e-05
0.000143938
-1.82789e-05
0.000147591
-1.82494e-05
0.000151238
-1.82173e-05
0.000154878
-1.81822e-05
0.000158511
-1.81441e-05
0.000162135
-1.81028e-05
0.000165751
-1.80582e-05
0.000169358
-1.80102e-05
0.000172954
-1.79585e-05
0.000176539
-1.7903e-05
0.000180113
-1.78437e-05
0.000183674
-1.77803e-05
0.000187222
-1.77126e-05
0.000190755
-1.76406e-05
0.000194274
-1.75641e-05
0.000197776
-1.74829e-05
0.000201261
-1.7397e-05
0.000204729
-1.73061e-05
0.000208177
-1.72101e-05
0.000211605
-1.71089e-05
0.000215012
-1.70023e-05
0.000218397
-1.68903e-05
0.000221758
-1.67726e-05
0.000225095
-1.66492e-05
0.000228406
-1.652e-05
0.00023169
-1.63848e-05
0.000234947
-1.62435e-05
0.000238173
-1.60961e-05
0.000241369
-1.59424e-05
0.000244533
-1.57823e-05
0.000247664
-1.56158e-05
0.000250761
-1.54429e-05
0.000253821
-1.52633e-05
0.000256845
-1.50772e-05
0.00025983
-1.48844e-05
0.000262775
-1.46849e-05
0.000265679
-1.44787e-05
0.00026854
-1.42657e-05
0.000271357
-1.4046e-05
0.000274129
-1.38195e-05
0.000276854
-1.35863e-05
0.000279531
-1.33464e-05
0.000282159
-1.30999e-05
0.000284737
-1.28467e-05
0.000287262
-1.2587e-05
0.000289734
-1.23208e-05
0.000292151
-1.20481e-05
0.000294512
-1.17692e-05
0.000296816
-1.14841e-05
0.000299062
-1.11929e-05
0.000301248
-1.08957e-05
0.000303373
-1.05927e-05
0.000305437
-1.02841e-05
0.000307437
-9.96994e-06
0.000309373
-9.65046e-06
0.000311244
-9.32584e-06
0.000313049
-8.99627e-06
0.000314787
-8.66194e-06
0.000316457
-8.32309e-06
0.000318058
-7.97991e-06
0.000319589
-7.63266e-06
0.000321049
-7.28155e-06
0.000322439
-6.92684e-06
0.000323756
-6.56878e-06
0.000325001
-6.20763e-06
0.000326173
-5.84365e-06
0.000327271
-5.47711e-06
0.000328295
-5.10828e-06
0.000329245
-4.73744e-06
0.000330119
-4.36487e-06
0.000330919
-3.99085e-06
0.000331643
-3.61567e-06
0.000332292
-3.23961e-06
0.000332865
-2.86295e-06
0.000333362
-2.48599e-06
0.000333783
-2.10901e-06
0.000334129
-1.73229e-06
0.0003344
-1.35611e-06
0.000334594
-9.80748e-07
0.000334714
-6.06482e-07
0.000334759
-2.33581e-07
0.000334729
1.37689e-07
0.000334625
5.07066e-07
0.000334447
8.74295e-07
0.000334196
1.23913e-06
0.000333873
1.60132e-06
0.000333477
1.96064e-06
0.00033301
2.31685e-06
0.000332471
2.66973e-06
0.000331863
3.01909e-06
0.000331185
3.36469e-06
0.000330439
3.70637e-06
0.000329625
4.04392e-06
0.000328745
4.37717e-06
0.000327798
4.70595e-06
0.000326786
5.03011e-06
0.00032571
5.34949e-06
0.000324572
5.66395e-06
0.000323371
5.97338e-06
0.000322109
6.27763e-06
0.000320787
6.57662e-06
0.000319406
6.87022e-06
0.000317968
7.15837e-06
0.000316473
7.44096e-06
0.000314923
7.71794e-06
0.000313318
7.98923e-06
0.00031166
8.25479e-06
0.00030995
8.51456e-06
0.00030819
8.76852e-06
0.000306379
9.01663e-06
0.000304521
9.25887e-06
0.000302615
9.49524e-06
0.000300662
9.72572e-06
0.000298665
9.95033e-06
0.000296624
1.01691e-05
0.000294541
1.0382e-05
0.000292416
1.0589e-05
0.000290251
1.07903e-05
0.000288047
1.09858e-05
0.000285805
1.11756e-05
0.000283527
1.13598e-05
0.000281212
1.15383e-05
0.000278864
1.17112e-05
0.000276481
1.18787e-05
0.000274067
1.20408e-05
0.000271621
1.21975e-05
0.000269145
1.23489e-05
0.00026664
1.24951e-05
0.000264107
1.26362e-05
0.000261546
1.27722e-05
0.00025896
1.29033e-05
0.000256348
1.30296e-05
0.000253712
1.31511e-05
0.000251053
1.32679e-05
0.000248372
1.33801e-05
0.000245669
1.34878e-05
0.000242946
1.35912e-05
0.000240202
1.36902e-05