/*--------------------------------*- C++ -*----------------------------------*\
| =========                 |                                                 |
| \\      /  F ield         | OpenFOAM: The Open Source CFD Toolbox           |
|  \\    /   O peration     | Version:  v2012                                 |
|   \\  /    A nd           | Website:  www.openfoam.com                      |
|    \\/     M anipulation  |                                                 |
\*---------------------------------------------------------------------------*/
FoamFile
{
    version     2.0;
    format      ascii;
    class       volVectorField;
    location    "9.3";
    object      Psi;
}
// * * * * * * * * * * * * * * * * * * * * * * * * * * * * * * * * * * * * * //

dimensions      [0 2 -1 0 0 0 0];


internalField   nonuniform List<vector> 
65536
(
(0 0 9.22834e-06)
(0 0 2.76852e-05)
(0 0 4.61423e-05)
(0 0 6.46001e-05)
(0 0 8.30586e-05)
(0 0 0.000101518)
(0 0 0.000119979)
(0 0 0.000138441)
(0 0 0.000156905)
(0 0 0.00017537)
(0 0 0.000193837)
(0 0 0.000212306)
(0 0 0.000230776)
(0 0 0.000249249)
(0 0 0.000267722)
(0 0 0.000286198)
(0 0 0.000304674)
(0 0 0.000323152)
(0 0 0.00034163)
(0 0 0.000360109)
(0 0 0.000378587)
(0 0 0.000397065)
(0 0 0.000415541)
(0 0 0.000434015)
(0 0 0.000452486)
(0 0 0.000470954)
(0 0 0.000489417)
(0 0 0.000507874)
(0 0 0.000526324)
(0 0 0.000544766)
(0 0 0.000563198)
(0 0 0.000581618)
(0 0 0.000600027)
(0 0 0.00061842)
(0 0 0.000636797)
(0 0 0.000655156)
(0 0 0.000673494)
(0 0 0.000691809)
(0 0 0.000710099)
(0 0 0.000728361)
(0 0 0.000746593)
(0 0 0.000764792)
(0 0 0.000782954)
(0 0 0.000801078)
(0 0 0.000819159)
(0 0 0.000837194)
(0 0 0.000855179)
(0 0 0.000873112)
(0 0 0.000890988)
(0 0 0.000908803)
(0 0 0.000926552)
(0 0 0.000944233)
(0 0 0.00096184)
(0 0 0.000979369)
(0 0 0.000996814)
(0 0 0.00101417)
(0 0 0.00103144)
(0 0 0.0010486)
(0 0 0.00106567)
(0 0 0.00108262)
(0 0 0.00109946)
(0 0 0.00111618)
(0 0 0.00113278)
(0 0 0.00114924)
(0 0 0.00116557)
(0 0 0.00118175)
(0 0 0.00119779)
(0 0 0.00121366)
(0 0 0.00122938)
(0 0 0.00124492)
(0 0 0.00126029)
(0 0 0.00127548)
(0 0 0.00129048)
(0 0 0.00130528)
(0 0 0.00131988)
(0 0 0.00133427)
(0 0 0.00134845)
(0 0 0.0013624)
(0 0 0.00137613)
(0 0 0.00138962)
(0 0 0.00140287)
(0 0 0.00141586)
(0 0 0.00142861)
(0 0 0.00144109)
(0 0 0.0014533)
(0 0 0.00146523)
(0 0 0.00147689)
(0 0 0.00148825)
(0 0 0.00149933)
(0 0 0.0015101)
(0 0 0.00152057)
(0 0 0.00153073)
(0 0 0.00154057)
(0 0 0.00155009)
(0 0 0.00155928)
(0 0 0.00156814)
(0 0 0.00157667)
(0 0 0.00158485)
(0 0 0.00159269)
(0 0 0.00160018)
(0 0 0.00160732)
(0 0 0.0016141)
(0 0 0.00162052)
(0 0 0.00162658)
(0 0 0.00163228)
(0 0 0.0016376)
(0 0 0.00164256)
(0 0 0.00164715)
(0 0 0.00165136)
(0 0 0.00165519)
(0 0 0.00165866)
(0 0 0.00166174)
(0 0 0.00166445)
(0 0 0.00166678)
(0 0 0.00166873)
(0 0 0.00167031)
(0 0 0.00167151)
(0 0 0.00167233)
(0 0 0.00167278)
(0 0 0.00167286)
(0 0 0.00167257)
(0 0 0.0016719)
(0 0 0.00167087)
(0 0 0.00166948)
(0 0 0.00166773)
(0 0 0.00166561)
(0 0 0.00166314)
(0 0 0.00166032)
(0 0 0.00165715)
(0 0 0.00165364)
(0 0 0.00164978)
(0 0 0.00164559)
(0 0 0.00164107)
(0 0 0.00163622)
(0 0 0.00163104)
(0 0 0.00162555)
(0 0 0.00161975)
(0 0 0.00161363)
(0 0 0.00160722)
(0 0 0.00160051)
(0 0 0.0015935)
(0 0 0.00158621)
(0 0 0.00157864)
(0 0 0.00157079)
(0 0 0.00156267)
(0 0 0.00155429)
(0 0 0.00154565)
(0 0 0.00153676)
(0 0 0.00152762)
(0 0 0.00151824)
(0 0 0.00150863)
(0 0 0.00149879)
(0 0 0.00148873)
(0 0 0.00147845)
(0 0 0.00146795)
(0 0 0.00145726)
(0 0 0.00144636)
(0 0 0.00143527)
(0 0 0.00142399)
(0 0 0.00141253)
(0 0 0.0014009)
(0 0 0.00138909)
(0 0 0.00137712)
(0 0 0.00136498)
(0 0 0.0013527)
(0 0 0.00134026)
(0 0 0.00132768)
(0 0 0.00131496)
(0 0 0.0013021)
(0 0 0.00128912)
(0 0 0.00127601)
(0 0 0.00126278)
(0 0 0.00124943)
(0 0 0.00123598)
(0 0 0.00122242)
(0 0 0.00120876)
(0 0 0.001195)
(0 0 0.00118115)
(0 0 0.00116721)
(0 0 0.00115318)
(0 0 0.00113907)
(0 0 0.00112489)
(0 0 0.00111063)
(0 0 0.0010963)
(0 0 0.0010819)
(0 0 0.00106744)
(0 0 0.00105293)
(0 0 0.00103835)
(0 0 0.00102372)
(0 0 0.00100904)
(0 0 0.000994305)
(0 0 0.00097953)
(0 0 0.000964712)
(0 0 0.000949853)
(0 0 0.000934957)
(0 0 0.000920026)
(0 0 0.000905061)
(0 0 0.000890066)
(0 0 0.000875042)
(0 0 0.000859992)
(0 0 0.000844916)
(0 0 0.000829818)
(0 0 0.000814699)
(0 0 0.000799561)
(0 0 0.000784405)
(0 0 0.000769233)
(0 0 0.000754047)
(0 0 0.000738847)
(0 0 0.000723636)
(0 0 0.000708414)
(0 0 0.000693182)
(0 0 0.000677943)
(0 0 0.000662696)
(0 0 0.000647443)
(0 0 0.000632185)
(0 0 0.000616923)
(0 0 0.000601657)
(0 0 0.000586389)
(0 0 0.000571118)
(0 0 0.000555847)
(0 0 0.000540575)
(0 0 0.000525303)
(0 0 0.000510031)
(0 0 0.00049476)
(0 0 0.000479491)
(0 0 0.000464223)
(0 0 0.000448958)
(0 0 0.000433695)
(0 0 0.000418435)
(0 0 0.000403178)
(0 0 0.000387923)
(0 0 0.000372673)
(0 0 0.000357425)
(0 0 0.000342181)
(0 0 0.000326941)
(0 0 0.000311704)
(0 0 0.000296471)
(0 0 0.000281242)
(0 0 0.000266016)
(0 0 0.000250794)
(0 0 0.000235575)
(0 0 0.000220359)
(0 0 0.000205147)
(0 0 0.000189938)
(0 0 0.000174731)
(0 0 0.000159528)
(0 0 0.000144327)
(0 0 0.000129128)
(0 0 0.000113931)
(0 0 9.87364e-05)
(0 0 8.35433e-05)
(0 0 6.83517e-05)
(0 0 5.31612e-05)
(0 0 3.79716e-05)
(0 0 2.27827e-05)
(0 0 7.5942e-06)
(0 0 2.76849e-05)
(0 0 8.30551e-05)
(0 0 0.000138426)
(0 0 0.000193799)
(0 0 0.000249175)
(0 0 0.000304553)
(0 0 0.000359936)
(0 0 0.000415322)
(0 0 0.000470713)
(0 0 0.000526109)
(0 0 0.00058151)
(0 0 0.000636916)
(0 0 0.000692327)
(0 0 0.000747744)
(0 0 0.000803166)
(0 0 0.000858592)
(0 0 0.000914022)
(0 0 0.000969455)
(0 0 0.00102489)
(0 0 0.00108033)
(0 0 0.00113576)
(0 0 0.0011912)
(0 0 0.00124662)
(0 0 0.00130205)
(0 0 0.00135746)
(0 0 0.00141287)
(0 0 0.00146826)
(0 0 0.00152363)
(0 0 0.00157898)
(0 0 0.00163431)
(0 0 0.0016896)
(0 0 0.00174487)
(0 0 0.00180009)
(0 0 0.00185528)
(0 0 0.00191041)
(0 0 0.00196549)
(0 0 0.0020205)
(0 0 0.00207545)
(0 0 0.00213032)
(0 0 0.00218511)
(0 0 0.00223981)
(0 0 0.00229441)
(0 0 0.0023489)
(0 0 0.00240328)
(0 0 0.00245752)
(0 0 0.00251163)
(0 0 0.00256559)
(0 0 0.00261939)
(0 0 0.00267302)
(0 0 0.00272647)
(0 0 0.00277973)
(0 0 0.00283277)
(0 0 0.0028856)
(0 0 0.00293819)
(0 0 0.00299053)
(0 0 0.00304261)
(0 0 0.00309441)
(0 0 0.00314591)
(0 0 0.00319711)
(0 0 0.00324798)
(0 0 0.00329851)
(0 0 0.00334868)
(0 0 0.00339847)
(0 0 0.00344787)
(0 0 0.00349685)
(0 0 0.00354541)
(0 0 0.00359351)
(0 0 0.00364115)
(0 0 0.0036883)
(0 0 0.00373494)
(0 0 0.00378105)
(0 0 0.00382662)
(0 0 0.00387163)
(0 0 0.00391604)
(0 0 0.00395985)
(0 0 0.00400304)
(0 0 0.00404557)
(0 0 0.00408744)
(0 0 0.00412862)
(0 0 0.0041691)
(0 0 0.00420885)
(0 0 0.00424784)
(0 0 0.00428608)
(0 0 0.00432352)
(0 0 0.00436016)
(0 0 0.00439597)
(0 0 0.00443094)
(0 0 0.00446505)
(0 0 0.00449827)
(0 0 0.0045306)
(0 0 0.00456201)
(0 0 0.00459249)
(0 0 0.00462202)
(0 0 0.00465058)
(0 0 0.00467817)
(0 0 0.00470475)
(0 0 0.00473033)
(0 0 0.00475489)
(0 0 0.00477841)
(0 0 0.00480089)
(0 0 0.00482231)
(0 0 0.00484266)
(0 0 0.00486193)
(0 0 0.00488011)
(0 0 0.00489719)
(0 0 0.00491318)
(0 0 0.00492805)
(0 0 0.00494181)
(0 0 0.00495444)
(0 0 0.00496596)
(0 0 0.00497634)
(0 0 0.0049856)
(0 0 0.00499372)
(0 0 0.00500071)
(0 0 0.00500657)
(0 0 0.00501129)
(0 0 0.00501489)
(0 0 0.00501737)
(0 0 0.00501871)
(0 0 0.00501895)
(0 0 0.00501806)
(0 0 0.00501607)
(0 0 0.00501298)
(0 0 0.0050088)
(0 0 0.00500353)
(0 0 0.00499719)
(0 0 0.00498978)
(0 0 0.00498131)
(0 0 0.0049718)
(0 0 0.00496125)
(0 0 0.00494968)
(0 0 0.0049371)
(0 0 0.00492353)
(0 0 0.00490897)
(0 0 0.00489344)
(0 0 0.00487696)
(0 0 0.00485954)
(0 0 0.0048412)
(0 0 0.00482195)
(0 0 0.0048018)
(0 0 0.00478078)
(0 0 0.0047589)
(0 0 0.00473618)
(0 0 0.00471263)
(0 0 0.00468827)
(0 0 0.00466312)
(0 0 0.0046372)
(0 0 0.00461052)
(0 0 0.0045831)
(0 0 0.00455496)
(0 0 0.00452612)
(0 0 0.00449659)
(0 0 0.00446639)
(0 0 0.00443554)
(0 0 0.00440406)
(0 0 0.00437197)
(0 0 0.00433927)
(0 0 0.004306)
(0 0 0.00427216)
(0 0 0.00423777)
(0 0 0.00420286)
(0 0 0.00416743)
(0 0 0.00413151)
(0 0 0.0040951)
(0 0 0.00405823)
(0 0 0.00402091)
(0 0 0.00398316)
(0 0 0.003945)
(0 0 0.00390642)
(0 0 0.00386747)
(0 0 0.00382814)
(0 0 0.00378844)
(0 0 0.00374841)
(0 0 0.00370804)
(0 0 0.00366736)
(0 0 0.00362637)
(0 0 0.00358509)
(0 0 0.00354353)
(0 0 0.0035017)
(0 0 0.00345962)
(0 0 0.00341729)
(0 0 0.00337474)
(0 0 0.00333195)
(0 0 0.00328896)
(0 0 0.00324577)
(0 0 0.00320239)
(0 0 0.00315883)
(0 0 0.0031151)
(0 0 0.0030712)
(0 0 0.00302715)
(0 0 0.00298296)
(0 0 0.00293863)
(0 0 0.00289417)
(0 0 0.00284959)
(0 0 0.0028049)
(0 0 0.00276011)
(0 0 0.00271521)
(0 0 0.00267022)
(0 0 0.00262515)
(0 0 0.00258)
(0 0 0.00253477)
(0 0 0.00248947)
(0 0 0.00244412)
(0 0 0.0023987)
(0 0 0.00235323)
(0 0 0.00230771)
(0 0 0.00226215)
(0 0 0.00221655)
(0 0 0.00217092)
(0 0 0.00212525)
(0 0 0.00207955)
(0 0 0.00203383)
(0 0 0.00198809)
(0 0 0.00194233)
(0 0 0.00189656)
(0 0 0.00185077)
(0 0 0.00180497)
(0 0 0.00175917)
(0 0 0.00171335)
(0 0 0.00166754)
(0 0 0.00162172)
(0 0 0.00157591)
(0 0 0.00153009)
(0 0 0.00148428)
(0 0 0.00143847)
(0 0 0.00139267)
(0 0 0.00134687)
(0 0 0.00130108)
(0 0 0.0012553)
(0 0 0.00120953)
(0 0 0.00116377)
(0 0 0.00111801)
(0 0 0.00107227)
(0 0 0.00102654)
(0 0 0.000980818)
(0 0 0.000935108)
(0 0 0.000889409)
(0 0 0.000843721)
(0 0 0.000798043)
(0 0 0.000752377)
(0 0 0.00070672)
(0 0 0.000661074)
(0 0 0.000615437)
(0 0 0.000569809)
(0 0 0.000524191)
(0 0 0.00047858)
(0 0 0.000432977)
(0 0 0.000387381)
(0 0 0.000341791)
(0 0 0.000296207)
(0 0 0.000250628)
(0 0 0.000205054)
(0 0 0.000159483)
(0 0 0.000113914)
(0 0 6.83477e-05)
(0 0 2.27824e-05)
(0 0 4.61411e-05)
(0 0 0.000138424)
(0 0 0.000230709)
(0 0 0.000322996)
(0 0 0.000415288)
(0 0 0.000507585)
(0 0 0.000599888)
(0 0 0.000692198)
(0 0 0.000784516)
(0 0 0.000876842)
(0 0 0.000969177)
(0 0 0.00106152)
(0 0 0.00115387)
(0 0 0.00124623)
(0 0 0.0013386)
(0 0 0.00143098)
(0 0 0.00152337)
(0 0 0.00161576)
(0 0 0.00170815)
(0 0 0.00180054)
(0 0 0.00189294)
(0 0 0.00198533)
(0 0 0.00207771)
(0 0 0.00217009)
(0 0 0.00226245)
(0 0 0.00235479)
(0 0 0.00244711)
(0 0 0.0025394)
(0 0 0.00263166)
(0 0 0.00272388)
(0 0 0.00281604)
(0 0 0.00290816)
(0 0 0.00300021)
(0 0 0.00309218)
(0 0 0.00318408)
(0 0 0.00327588)
(0 0 0.00336758)
(0 0 0.00345917)
(0 0 0.00355063)
(0 0 0.00364196)
(0 0 0.00373313)
(0 0 0.00382414)
(0 0 0.00391497)
(0 0 0.0040056)
(0 0 0.00409602)
(0 0 0.00418621)
(0 0 0.00427616)
(0 0 0.00436584)
(0 0 0.00445524)
(0 0 0.00454434)
(0 0 0.00463311)
(0 0 0.00472153)
(0 0 0.00480959)
(0 0 0.00489726)
(0 0 0.00498451)
(0 0 0.00507132)
(0 0 0.00515767)
(0 0 0.00524353)
(0 0 0.00532888)
(0 0 0.00541368)
(0 0 0.00549792)
(0 0 0.00558155)
(0 0 0.00566456)
(0 0 0.00574691)
(0 0 0.00582857)
(0 0 0.00590951)
(0 0 0.00598971)
(0 0 0.00606912)
(0 0 0.00614772)
(0 0 0.00622548)
(0 0 0.00630236)
(0 0 0.00637833)
(0 0 0.00645336)
(0 0 0.00652741)
(0 0 0.00660045)
(0 0 0.00667244)
(0 0 0.00674336)
(0 0 0.00681317)
(0 0 0.00688183)
(0 0 0.00694931)
(0 0 0.00701557)
(0 0 0.00708059)
(0 0 0.00714434)
(0 0 0.00720677)
(0 0 0.00726785)
(0 0 0.00732756)
(0 0 0.00738586)
(0 0 0.00744273)
(0 0 0.00749812)
(0 0 0.00755202)
(0 0 0.00760439)
(0 0 0.0076552)
(0 0 0.00770444)
(0 0 0.00775206)
(0 0 0.00779805)
(0 0 0.00784238)
(0 0 0.00788503)
(0 0 0.00792597)
(0 0 0.00796519)
(0 0 0.00800266)
(0 0 0.00803837)
(0 0 0.00807229)
(0 0 0.00810442)
(0 0 0.00813473)
(0 0 0.00816321)
(0 0 0.00818986)
(0 0 0.00821466)
(0 0 0.00823759)
(0 0 0.00825866)
(0 0 0.00827785)
(0 0 0.00829516)
(0 0 0.00831058)
(0 0 0.00832412)
(0 0 0.00833577)
(0 0 0.00834553)
(0 0 0.00835341)
(0 0 0.00835941)
(0 0 0.00836352)
(0 0 0.00836577)
(0 0 0.00836615)
(0 0 0.00836467)
(0 0 0.00836134)
(0 0 0.00835619)
(0 0 0.00834921)
(0 0 0.00834041)
(0 0 0.00832983)
(0 0 0.00831747)
(0 0 0.00830334)
(0 0 0.00828748)
(0 0 0.00826988)
(0 0 0.00825059)
(0 0 0.00822961)
(0 0 0.00820697)
(0 0 0.00818269)
(0 0 0.0081568)
(0 0 0.00812932)
(0 0 0.00810027)
(0 0 0.00806968)
(0 0 0.00803757)
(0 0 0.00800398)
(0 0 0.00796893)
(0 0 0.00793244)
(0 0 0.00789455)
(0 0 0.00785528)
(0 0 0.00781467)
(0 0 0.00777273)
(0 0 0.00772951)
(0 0 0.00768502)
(0 0 0.0076393)
(0 0 0.00759238)
(0 0 0.00754429)
(0 0 0.00749506)
(0 0 0.00744471)
(0 0 0.00739327)
(0 0 0.00734079)
(0 0 0.00728727)
(0 0 0.00723276)
(0 0 0.00717729)
(0 0 0.00712087)
(0 0 0.00706354)
(0 0 0.00700533)
(0 0 0.00694627)
(0 0 0.00688638)
(0 0 0.00682568)
(0 0 0.00676422)
(0 0 0.006702)
(0 0 0.00663907)
(0 0 0.00657544)
(0 0 0.00651114)
(0 0 0.00644619)
(0 0 0.00638062)
(0 0 0.00631446)
(0 0 0.00624772)
(0 0 0.00618043)
(0 0 0.0061126)
(0 0 0.00604427)
(0 0 0.00597546)
(0 0 0.00590618)
(0 0 0.00583645)
(0 0 0.0057663)
(0 0 0.00569575)
(0 0 0.0056248)
(0 0 0.00555349)
(0 0 0.00548183)
(0 0 0.00540983)
(0 0 0.00533752)
(0 0 0.0052649)
(0 0 0.005192)
(0 0 0.00511884)
(0 0 0.00504541)
(0 0 0.00497175)
(0 0 0.00489786)
(0 0 0.00482375)
(0 0 0.00474945)
(0 0 0.00467496)
(0 0 0.00460029)
(0 0 0.00452545)
(0 0 0.00445047)
(0 0 0.00437534)
(0 0 0.00430008)
(0 0 0.00422469)
(0 0 0.00414919)
(0 0 0.00407359)
(0 0 0.00399789)
(0 0 0.0039221)
(0 0 0.00384624)
(0 0 0.0037703)
(0 0 0.00369429)
(0 0 0.00361823)
(0 0 0.00354211)
(0 0 0.00346595)
(0 0 0.00338974)
(0 0 0.00331351)
(0 0 0.00323724)
(0 0 0.00316094)
(0 0 0.00308463)
(0 0 0.00300829)
(0 0 0.00293195)
(0 0 0.0028556)
(0 0 0.00277923)
(0 0 0.00270287)
(0 0 0.00262651)
(0 0 0.00255015)
(0 0 0.00247379)
(0 0 0.00239744)
(0 0 0.0023211)
(0 0 0.00224478)
(0 0 0.00216846)
(0 0 0.00209216)
(0 0 0.00201587)
(0 0 0.0019396)
(0 0 0.00186334)
(0 0 0.00178711)
(0 0 0.00171089)
(0 0 0.00163468)
(0 0 0.0015585)
(0 0 0.00148234)
(0 0 0.00140619)
(0 0 0.00133006)
(0 0 0.00125395)
(0 0 0.00117786)
(0 0 0.00110178)
(0 0 0.00102572)
(0 0 0.000949672)
(0 0 0.000873642)
(0 0 0.000797625)
(0 0 0.00072162)
(0 0 0.000645628)
(0 0 0.000569646)
(0 0 0.000493673)
(0 0 0.000417709)
(0 0 0.000341752)
(0 0 0.000265801)
(0 0 0.000189855)
(0 0 0.000113912)
(0 0 3.79703e-05)
(0 0 6.45968e-05)
(0 0 0.000193791)
(0 0 0.000322988)
(0 0 0.000452189)
(0 0 0.000581396)
(0 0 0.000710611)
(0 0 0.000839834)
(0 0 0.000969067)
(0 0 0.00109831)
(0 0 0.00122757)
(0 0 0.00135684)
(0 0 0.00148612)
(0 0 0.00161541)
(0 0 0.00174472)
(0 0 0.00187404)
(0 0 0.00200337)
(0 0 0.00213271)
(0 0 0.00226205)
(0 0 0.00239141)
(0 0 0.00252076)
(0 0 0.00265012)
(0 0 0.00277947)
(0 0 0.00290881)
(0 0 0.00303814)
(0 0 0.00316746)
(0 0 0.00329674)
(0 0 0.003426)
(0 0 0.00355521)
(0 0 0.00368438)
(0 0 0.00381349)
(0 0 0.00394254)
(0 0 0.00407151)
(0 0 0.00420039)
(0 0 0.00432917)
(0 0 0.00445784)
(0 0 0.00458638)
(0 0 0.00471477)
(0 0 0.00484301)
(0 0 0.00497108)
(0 0 0.00509895)
(0 0 0.00522662)
(0 0 0.00535405)
(0 0 0.00548123)
(0 0 0.00560814)
(0 0 0.00573475)
(0 0 0.00586105)
(0 0 0.005987)
(0 0 0.00611258)
(0 0 0.00623776)
(0 0 0.00636253)
(0 0 0.00648683)
(0 0 0.00661066)
(0 0 0.00673397)
(0 0 0.00685674)
(0 0 0.00697893)
(0 0 0.0071005)
(0 0 0.00722143)
(0 0 0.00734167)
(0 0 0.00746119)
(0 0 0.00757996)
(0 0 0.00769792)
(0 0 0.00781505)
(0 0 0.0079313)
(0 0 0.00804663)
(0 0 0.008161)
(0 0 0.00827437)
(0 0 0.00838668)
(0 0 0.00849791)
(0 0 0.008608)
(0 0 0.0087169)
(0 0 0.00882458)
(0 0 0.00893099)
(0 0 0.00903607)
(0 0 0.00913979)
(0 0 0.00924209)
(0 0 0.00934293)
(0 0 0.00944226)
(0 0 0.00954004)
(0 0 0.00963621)
(0 0 0.00973073)
(0 0 0.00982355)
(0 0 0.00991462)
(0 0 0.0100039)
(0 0 0.0100914)
(0 0 0.0101769)
(0 0 0.0102606)
(0 0 0.0103422)
(0 0 0.0104219)
(0 0 0.0104995)
(0 0 0.010575)
(0 0 0.0106483)
(0 0 0.0107195)
(0 0 0.0107885)
(0 0 0.0108552)
(0 0 0.0109196)
(0 0 0.0109817)
(0 0 0.0110414)
(0 0 0.0110988)
(0 0 0.0111537)
(0 0 0.0112062)
(0 0 0.0112562)
(0 0 0.0113037)
(0 0 0.0113487)
(0 0 0.0113912)
(0 0 0.0114311)
(0 0 0.0114684)
(0 0 0.0115031)
(0 0 0.0115352)
(0 0 0.0115647)
(0 0 0.0115916)
(0 0 0.0116159)
(0 0 0.0116375)
(0 0 0.0116564)
(0 0 0.0116727)
(0 0 0.0116864)
(0 0 0.0116974)
(0 0 0.0117058)
(0 0 0.0117116)
(0 0 0.0117147)
(0 0 0.0117152)
(0 0 0.0117131)
(0 0 0.0117085)
(0 0 0.0117012)
(0 0 0.0116914)
(0 0 0.0116791)
(0 0 0.0116643)
(0 0 0.0116469)
(0 0 0.0116271)
(0 0 0.0116049)
(0 0 0.0115802)
(0 0 0.0115532)
(0 0 0.0115238)
(0 0 0.0114921)
(0 0 0.011458)
(0 0 0.0114217)
(0 0 0.0113832)
(0 0 0.0113425)
(0 0 0.0112997)
(0 0 0.0112547)
(0 0 0.0112076)
(0 0 0.0111585)
(0 0 0.0111074)
(0 0 0.0110543)
(0 0 0.0109993)
(0 0 0.0109424)
(0 0 0.0108836)
(0 0 0.0108231)
(0 0 0.0107608)
(0 0 0.0106967)
(0 0 0.010631)
(0 0 0.0105636)
(0 0 0.0104946)
(0 0 0.0104241)
(0 0 0.0103521)
(0 0 0.0102785)
(0 0 0.0102036)
(0 0 0.0101272)
(0 0 0.0100495)
(0 0 0.00997049)
(0 0 0.0098902)
(0 0 0.00980866)
(0 0 0.00972593)
(0 0 0.00964205)
(0 0 0.00955704)
(0 0 0.00947095)
(0 0 0.00938382)
(0 0 0.00929567)
(0 0 0.00920655)
(0 0 0.0091165)
(0 0 0.00902554)
(0 0 0.00893371)
(0 0 0.00884105)
(0 0 0.00874758)
(0 0 0.00865334)
(0 0 0.00855836)
(0 0 0.00846267)
(0 0 0.0083663)
(0 0 0.00826928)
(0 0 0.00817163)
(0 0 0.00807339)
(0 0 0.00797459)
(0 0 0.00787524)
(0 0 0.00777538)
(0 0 0.00767503)
(0 0 0.00757421)
(0 0 0.00747295)
(0 0 0.00737127)
(0 0 0.00726919)
(0 0 0.00716673)
(0 0 0.00706392)
(0 0 0.00696077)
(0 0 0.0068573)
(0 0 0.00675354)
(0 0 0.00664949)
(0 0 0.00654519)
(0 0 0.00644063)
(0 0 0.00633585)
(0 0 0.00623086)
(0 0 0.00612566)
(0 0 0.00602028)
(0 0 0.00591473)
(0 0 0.00580902)
(0 0 0.00570316)
(0 0 0.00559717)
(0 0 0.00549106)
(0 0 0.00538483)
(0 0 0.00527851)
(0 0 0.00517209)
(0 0 0.00506559)
(0 0 0.00495902)
(0 0 0.00485238)
(0 0 0.00474569)
(0 0 0.00463895)
(0 0 0.00453217)
(0 0 0.00442535)
(0 0 0.0043185)
(0 0 0.00421163)
(0 0 0.00410474)
(0 0 0.00399784)
(0 0 0.00389093)
(0 0 0.00378402)
(0 0 0.00367711)
(0 0 0.0035702)
(0 0 0.0034633)
(0 0 0.00335641)
(0 0 0.00324953)
(0 0 0.00314267)
(0 0 0.00303582)
(0 0 0.002929)
(0 0 0.0028222)
(0 0 0.00271541)
(0 0 0.00260866)
(0 0 0.00250192)
(0 0 0.00239522)
(0 0 0.00228853)
(0 0 0.00218188)
(0 0 0.00207524)
(0 0 0.00196864)
(0 0 0.00186206)
(0 0 0.00175551)
(0 0 0.00164897)
(0 0 0.00154247)
(0 0 0.00143598)
(0 0 0.00132952)
(0 0 0.00122308)
(0 0 0.00111666)
(0 0 0.00101025)
(0 0 0.000903864)
(0 0 0.000797491)
(0 0 0.000691131)
(0 0 0.000584783)
(0 0 0.000478445)
(0 0 0.000372115)
(0 0 0.000265792)
(0 0 0.000159473)
(0 0 5.31575e-05)
(0 0 8.30515e-05)
(0 0 0.000249156)
(0 0 0.000415263)
(0 0 0.000581376)
(0 0 0.000747497)
(0 0 0.000913627)
(0 0 0.00107977)
(0 0 0.00124592)
(0 0 0.00141209)
(0 0 0.00157828)
(0 0 0.00174448)
(0 0 0.0019107)
(0 0 0.00207694)
(0 0 0.00224319)
(0 0 0.00240946)
(0 0 0.00257574)
(0 0 0.00274204)
(0 0 0.00290834)
(0 0 0.00307466)
(0 0 0.00324098)
(0 0 0.0034073)
(0 0 0.00357362)
(0 0 0.00373993)
(0 0 0.00390622)
(0 0 0.00407249)
(0 0 0.00423872)
(0 0 0.00440492)
(0 0 0.00457107)
(0 0 0.00473716)
(0 0 0.00490318)
(0 0 0.00506911)
(0 0 0.00523495)
(0 0 0.00540067)
(0 0 0.00556627)
(0 0 0.00573172)
(0 0 0.00589701)
(0 0 0.00606212)
(0 0 0.00622703)
(0 0 0.00639172)
(0 0 0.00655616)
(0 0 0.00672033)
(0 0 0.00688421)
(0 0 0.00704776)
(0 0 0.00721097)
(0 0 0.0073738)
(0 0 0.00753622)
(0 0 0.0076982)
(0 0 0.00785971)
(0 0 0.00802071)
(0 0 0.00818117)
(0 0 0.00834104)
(0 0 0.0085003)
(0 0 0.0086589)
(0 0 0.0088168)
(0 0 0.00897396)
(0 0 0.00913033)
(0 0 0.00928587)
(0 0 0.00944053)
(0 0 0.00959427)
(0 0 0.00974703)
(0 0 0.00989877)
(0 0 0.0100494)
(0 0 0.010199)
(0 0 0.0103473)
(0 0 0.0104944)
(0 0 0.0106403)
(0 0 0.0107848)
(0 0 0.0109278)
(0 0 0.0110695)
(0 0 0.0112096)
(0 0 0.0113481)
(0 0 0.011485)
(0 0 0.0116202)
(0 0 0.0117536)
(0 0 0.0118852)
(0 0 0.0120149)
(0 0 0.0121427)
(0 0 0.0122685)
(0 0 0.0123922)
(0 0 0.0125138)
(0 0 0.0126333)
(0 0 0.0127504)
(0 0 0.0128653)
(0 0 0.0129778)
(0 0 0.0130879)
(0 0 0.0131955)
(0 0 0.0133006)
(0 0 0.0134031)
(0 0 0.0135029)
(0 0 0.0136001)
(0 0 0.0136944)
(0 0 0.013786)
(0 0 0.0138747)
(0 0 0.0139606)
(0 0 0.0140435)
(0 0 0.0141233)
(0 0 0.0142002)
(0 0 0.014274)
(0 0 0.0143447)
(0 0 0.0144122)
(0 0 0.0144765)
(0 0 0.0145377)
(0 0 0.0145956)
(0 0 0.0146502)
(0 0 0.0147015)
(0 0 0.0147495)
(0 0 0.0147942)
(0 0 0.0148355)
(0 0 0.0148735)
(0 0 0.014908)
(0 0 0.0149392)
(0 0 0.014967)
(0 0 0.0149914)
(0 0 0.0150123)
(0 0 0.0150299)
(0 0 0.0150441)
(0 0 0.0150548)
(0 0 0.0150622)
(0 0 0.0150662)
(0 0 0.0150669)
(0 0 0.0150642)
(0 0 0.0150581)
(0 0 0.0150488)
(0 0 0.0150362)
(0 0 0.0150203)
(0 0 0.0150012)
(0 0 0.0149788)
(0 0 0.0149533)
(0 0 0.0149247)
(0 0 0.014893)
(0 0 0.0148581)
(0 0 0.0148203)
(0 0 0.0147794)
(0 0 0.0147356)
(0 0 0.0146889)
(0 0 0.0146394)
(0 0 0.014587)
(0 0 0.0145318)
(0 0 0.0144739)
(0 0 0.0144133)
(0 0 0.0143501)
(0 0 0.0142843)
(0 0 0.014216)
(0 0 0.0141452)
(0 0 0.0140719)
(0 0 0.0139963)
(0 0 0.0139184)
(0 0 0.0138382)
(0 0 0.0137558)
(0 0 0.0136712)
(0 0 0.0135845)
(0 0 0.0134958)
(0 0 0.013405)
(0 0 0.0133123)
(0 0 0.0132177)
(0 0 0.0131213)
(0 0 0.013023)
(0 0 0.0129231)
(0 0 0.0128214)
(0 0 0.0127181)
(0 0 0.0126132)
(0 0 0.0125068)
(0 0 0.0123988)
(0 0 0.0122895)
(0 0 0.0121787)
(0 0 0.0120666)
(0 0 0.0119532)
(0 0 0.0118386)
(0 0 0.0117228)
(0 0 0.0116058)
(0 0 0.0114876)
(0 0 0.0113684)
(0 0 0.0112482)
(0 0 0.011127)
(0 0 0.0110048)
(0 0 0.0108817)
(0 0 0.0107578)
(0 0 0.010633)
(0 0 0.0105074)
(0 0 0.0103811)
(0 0 0.010254)
(0 0 0.0101262)
(0 0 0.00999776)
(0 0 0.0098687)
(0 0 0.00973903)
(0 0 0.0096088)
(0 0 0.00947803)
(0 0 0.00934674)
(0 0 0.00921498)
(0 0 0.00908275)
(0 0 0.0089501)
(0 0 0.00881704)
(0 0 0.0086836)
(0 0 0.0085498)
(0 0 0.00841566)
(0 0 0.00828121)
(0 0 0.00814647)
(0 0 0.00801144)
(0 0 0.00787617)
(0 0 0.00774066)
(0 0 0.00760492)
(0 0 0.00746899)
(0 0 0.00733287)
(0 0 0.00719657)
(0 0 0.00706012)
(0 0 0.00692353)
(0 0 0.00678681)
(0 0 0.00664997)
(0 0 0.00651303)
(0 0 0.006376)
(0 0 0.00623888)
(0 0 0.00610169)
(0 0 0.00596444)
(0 0 0.00582713)
(0 0 0.00568979)
(0 0 0.0055524)
(0 0 0.00541499)
(0 0 0.00527755)
(0 0 0.0051401)
(0 0 0.00500264)
(0 0 0.00486517)
(0 0 0.0047277)
(0 0 0.00459025)
(0 0 0.0044528)
(0 0 0.00431536)
(0 0 0.00417794)
(0 0 0.00404055)
(0 0 0.00390317)
(0 0 0.00376582)
(0 0 0.0036285)
(0 0 0.00349121)
(0 0 0.00335395)
(0 0 0.00321672)
(0 0 0.00307952)
(0 0 0.00294236)
(0 0 0.00280523)
(0 0 0.00266813)
(0 0 0.00253107)
(0 0 0.00239403)
(0 0 0.00225704)
(0 0 0.00212007)
(0 0 0.00198313)
(0 0 0.00184623)
(0 0 0.00170935)
(0 0 0.0015725)
(0 0 0.00143567)
(0 0 0.00129887)
(0 0 0.00116209)
(0 0 0.00102532)
(0 0 0.000888577)
(0 0 0.000751847)
(0 0 0.000615129)
(0 0 0.000478423)
(0 0 0.000341725)
(0 0 0.000205032)
(0 0 6.83438e-05)
(0 0 0.000101505)
(0 0 0.000304517)
(0 0 0.000507533)
(0 0 0.000710556)
(0 0 0.000913588)
(0 0 0.00111663)
(0 0 0.00131969)
(0 0 0.00152277)
(0 0 0.00172586)
(0 0 0.00192897)
(0 0 0.00213211)
(0 0 0.00233527)
(0 0 0.00253844)
(0 0 0.00274164)
(0 0 0.00294486)
(0 0 0.0031481)
(0 0 0.00335136)
(0 0 0.00355463)
(0 0 0.00375791)
(0 0 0.0039612)
(0 0 0.00416449)
(0 0 0.00436778)
(0 0 0.00457106)
(0 0 0.00477432)
(0 0 0.00497755)
(0 0 0.00518075)
(0 0 0.0053839)
(0 0 0.00558699)
(0 0 0.00579001)
(0 0 0.00599295)
(0 0 0.00619578)
(0 0 0.0063985)
(0 0 0.00660109)
(0 0 0.00680352)
(0 0 0.00700577)
(0 0 0.00720783)
(0 0 0.00740968)
(0 0 0.00761127)
(0 0 0.0078126)
(0 0 0.00801364)
(0 0 0.00821434)
(0 0 0.00841469)
(0 0 0.00861465)
(0 0 0.00881418)
(0 0 0.00901326)
(0 0 0.00921184)
(0 0 0.00940988)
(0 0 0.00960735)
(0 0 0.0098042)
(0 0 0.0100004)
(0 0 0.0101959)
(0 0 0.0103906)
(0 0 0.0105845)
(0 0 0.0107776)
(0 0 0.0109698)
(0 0 0.011161)
(0 0 0.0113512)
(0 0 0.0115403)
(0 0 0.0117283)
(0 0 0.0119151)
(0 0 0.0121007)
(0 0 0.0122849)
(0 0 0.0124678)
(0 0 0.0126492)
(0 0 0.0128292)
(0 0 0.0130075)
(0 0 0.0131842)
(0 0 0.0133592)
(0 0 0.0135324)
(0 0 0.0137038)
(0 0 0.0138732)
(0 0 0.0140406)
(0 0 0.014206)
(0 0 0.0143692)
(0 0 0.0145302)
(0 0 0.0146889)
(0 0 0.0148452)
(0 0 0.0149991)
(0 0 0.0151504)
(0 0 0.0152992)
(0 0 0.0154452)
(0 0 0.0155886)
(0 0 0.0157291)
(0 0 0.0158667)
(0 0 0.0160014)
(0 0 0.016133)
(0 0 0.0162616)
(0 0 0.0163869)
(0 0 0.0165091)
(0 0 0.0166279)
(0 0 0.0167434)
(0 0 0.0168554)
(0 0 0.0169639)
(0 0 0.0170689)
(0 0 0.0171703)
(0 0 0.017268)
(0 0 0.0173621)
(0 0 0.0174523)
(0 0 0.0175388)
(0 0 0.0176214)
(0 0 0.0177001)
(0 0 0.0177749)
(0 0 0.0178457)
(0 0 0.0179125)
(0 0 0.0179753)
(0 0 0.018034)
(0 0 0.0180886)
(0 0 0.0181392)
(0 0 0.0181856)
(0 0 0.0182278)
(0 0 0.0182659)
(0 0 0.0182999)
(0 0 0.0183297)
(0 0 0.0183553)
(0 0 0.0183768)
(0 0 0.0183941)
(0 0 0.0184072)
(0 0 0.0184162)
(0 0 0.0184211)
(0 0 0.0184219)
(0 0 0.0184185)
(0 0 0.0184111)
(0 0 0.0183997)
(0 0 0.0183842)
(0 0 0.0183647)
(0 0 0.0183413)
(0 0 0.0183139)
(0 0 0.0182827)
(0 0 0.0182476)
(0 0 0.0182088)
(0 0 0.0181661)
(0 0 0.0181198)
(0 0 0.0180698)
(0 0 0.0180162)
(0 0 0.017959)
(0 0 0.0178983)
(0 0 0.0178342)
(0 0 0.0177666)
(0 0 0.0176958)
(0 0 0.0176216)
(0 0 0.0175443)
(0 0 0.0174637)
(0 0 0.0173801)
(0 0 0.0172935)
(0 0 0.0172039)
(0 0 0.0171114)
(0 0 0.017016)
(0 0 0.0169179)
(0 0 0.0168171)
(0 0 0.0167136)
(0 0 0.0166075)
(0 0 0.0164989)
(0 0 0.0163879)
(0 0 0.0162745)
(0 0 0.0161588)
(0 0 0.0160408)
(0 0 0.0159206)
(0 0 0.0157983)
(0 0 0.0156739)
(0 0 0.0155476)
(0 0 0.0154193)
(0 0 0.0152891)
(0 0 0.0151571)
(0 0 0.0150233)
(0 0 0.0148879)
(0 0 0.0147508)
(0 0 0.0146121)
(0 0 0.0144719)
(0 0 0.0143302)
(0 0 0.0141871)
(0 0 0.0140426)
(0 0 0.0138969)
(0 0 0.0137498)
(0 0 0.0136016)
(0 0 0.0134522)
(0 0 0.0133017)
(0 0 0.0131501)
(0 0 0.0129975)
(0 0 0.0128439)
(0 0 0.0126894)
(0 0 0.0125341)
(0 0 0.0123778)
(0 0 0.0122208)
(0 0 0.012063)
(0 0 0.0119044)
(0 0 0.0117452)
(0 0 0.0115853)
(0 0 0.0114248)
(0 0 0.0112637)
(0 0 0.011102)
(0 0 0.0109398)
(0 0 0.0107772)
(0 0 0.010614)
(0 0 0.0104504)
(0 0 0.0102865)
(0 0 0.0101221)
(0 0 0.00995735)
(0 0 0.00979229)
(0 0 0.00962691)
(0 0 0.00946125)
(0 0 0.00929532)
(0 0 0.00912915)
(0 0 0.00896274)
(0 0 0.00879613)
(0 0 0.00862933)
(0 0 0.00846236)
(0 0 0.00829523)
(0 0 0.00812796)
(0 0 0.00796056)
(0 0 0.00779305)
(0 0 0.00762545)
(0 0 0.00745775)
(0 0 0.00728998)
(0 0 0.00712215)
(0 0 0.00695426)
(0 0 0.00678633)
(0 0 0.00661836)
(0 0 0.00645037)
(0 0 0.00628236)
(0 0 0.00611434)
(0 0 0.00594632)
(0 0 0.0057783)
(0 0 0.00561028)
(0 0 0.00544228)
(0 0 0.0052743)
(0 0 0.00510633)
(0 0 0.0049384)
(0 0 0.00477049)
(0 0 0.00460262)
(0 0 0.00443478)
(0 0 0.00426697)
(0 0 0.0040992)
(0 0 0.00393148)
(0 0 0.00376379)
(0 0 0.00359615)
(0 0 0.00342854)
(0 0 0.00326098)
(0 0 0.00309346)
(0 0 0.00292598)
(0 0 0.00275854)
(0 0 0.00259114)
(0 0 0.00242377)
(0 0 0.00225644)
(0 0 0.00208915)
(0 0 0.00192189)
(0 0 0.00175466)
(0 0 0.00158746)
(0 0 0.00142029)
(0 0 0.00125314)
(0 0 0.00108601)
(0 0 0.000918898)
(0 0 0.000751803)
(0 0 0.000584722)
(0 0 0.000417651)
(0 0 0.000250588)
(0 0 8.35288e-05)
(0 0 0.000119957)
(0 0 0.000359874)
(0 0 0.000599795)
(0 0 0.000839725)
(0 0 0.00107967)
(0 0 0.00131962)
(0 0 0.0015596)
(0 0 0.00179959)
(0 0 0.00203961)
(0 0 0.00227965)
(0 0 0.00251972)
(0 0 0.00275981)
(0 0 0.00299993)
(0 0 0.00324008)
(0 0 0.00348025)
(0 0 0.00372044)
(0 0 0.00396066)
(0 0 0.0042009)
(0 0 0.00444115)
(0 0 0.00468142)
(0 0 0.00492168)
(0 0 0.00516195)
(0 0 0.0054022)
(0 0 0.00564244)
(0 0 0.00588265)
(0 0 0.00612281)
(0 0 0.00636293)
(0 0 0.00660298)
(0 0 0.00684295)
(0 0 0.00708282)
(0 0 0.00732257)
(0 0 0.00756219)
(0 0 0.00780165)
(0 0 0.00804094)
(0 0 0.00828002)
(0 0 0.00851887)
(0 0 0.00875747)
(0 0 0.00899579)
(0 0 0.00923379)
(0 0 0.00947144)
(0 0 0.00970871)
(0 0 0.00994556)
(0 0 0.010182)
(0 0 0.0104179)
(0 0 0.0106532)
(0 0 0.010888)
(0 0 0.0111221)
(0 0 0.0113556)
(0 0 0.0115884)
(0 0 0.0118203)
(0 0 0.0120515)
(0 0 0.0122817)
(0 0 0.012511)
(0 0 0.0127393)
(0 0 0.0129666)
(0 0 0.0131927)
(0 0 0.0134176)
(0 0 0.0136412)
(0 0 0.0138635)
(0 0 0.0140845)
(0 0 0.0143039)
(0 0 0.0145218)
(0 0 0.0147381)
(0 0 0.0149527)
(0 0 0.0151655)
(0 0 0.0153764)
(0 0 0.0155854)
(0 0 0.0157924)
(0 0 0.0159973)
(0 0 0.0161999)
(0 0 0.0164003)
(0 0 0.0165984)
(0 0 0.016794)
(0 0 0.016987)
(0 0 0.0171775)
(0 0 0.0173652)
(0 0 0.0175501)
(0 0 0.0177321)
(0 0 0.0179112)
(0 0 0.0180871)
(0 0 0.0182599)
(0 0 0.0184295)
(0 0 0.0185958)
(0 0 0.0187586)
(0 0 0.0189179)
(0 0 0.0190736)
(0 0 0.0192257)
(0 0 0.019374)
(0 0 0.0195185)
(0 0 0.0196591)
(0 0 0.0197957)
(0 0 0.0199282)
(0 0 0.0200567)
(0 0 0.0201809)
(0 0 0.0203008)
(0 0 0.0204165)
(0 0 0.0205277)
(0 0 0.0206345)
(0 0 0.0207368)
(0 0 0.0208345)
(0 0 0.0209276)
(0 0 0.0210161)
(0 0 0.0210998)
(0 0 0.0211788)
(0 0 0.0212531)
(0 0 0.0213226)
(0 0 0.0213872)
(0 0 0.0214469)
(0 0 0.0215018)
(0 0 0.0215518)
(0 0 0.0215969)
(0 0 0.021637)
(0 0 0.0216722)
(0 0 0.0217025)
(0 0 0.0217279)
(0 0 0.0217483)
(0 0 0.0217638)
(0 0 0.0217744)
(0 0 0.0217801)
(0 0 0.021781)
(0 0 0.021777)
(0 0 0.0217682)
(0 0 0.0217546)
(0 0 0.0217362)
(0 0 0.0217131)
(0 0 0.0216853)
(0 0 0.0216529)
(0 0 0.0216159)
(0 0 0.0215744)
(0 0 0.0215283)
(0 0 0.0214778)
(0 0 0.0214229)
(0 0 0.0213637)
(0 0 0.0213002)
(0 0 0.0212325)
(0 0 0.0211607)
(0 0 0.0210848)
(0 0 0.0210048)
(0 0 0.0209209)
(0 0 0.0208332)
(0 0 0.0207416)
(0 0 0.0206463)
(0 0 0.0205473)
(0 0 0.0204448)
(0 0 0.0203387)
(0 0 0.0202292)
(0 0 0.0201164)
(0 0 0.0200003)
(0 0 0.019881)
(0 0 0.0197585)
(0 0 0.019633)
(0 0 0.0195045)
(0 0 0.0193732)
(0 0 0.019239)
(0 0 0.0191021)
(0 0 0.0189625)
(0 0 0.0188203)
(0 0 0.0186756)
(0 0 0.0185285)
(0 0 0.018379)
(0 0 0.0182272)
(0 0 0.0180732)
(0 0 0.0179171)
(0 0 0.0177588)
(0 0 0.0175986)
(0 0 0.0174365)
(0 0 0.0172724)
(0 0 0.0171066)
(0 0 0.016939)
(0 0 0.0167698)
(0 0 0.016599)
(0 0 0.0164266)
(0 0 0.0162527)
(0 0 0.0160774)
(0 0 0.0159007)
(0 0 0.0157227)
(0 0 0.0155435)
(0 0 0.015363)
(0 0 0.0151814)
(0 0 0.0149987)
(0 0 0.014815)
(0 0 0.0146302)
(0 0 0.0144446)
(0 0 0.014258)
(0 0 0.0140705)
(0 0 0.0138822)
(0 0 0.0136932)
(0 0 0.0135034)
(0 0 0.0133129)
(0 0 0.0131218)
(0 0 0.0129301)
(0 0 0.0127378)
(0 0 0.0125449)
(0 0 0.0123515)
(0 0 0.0121576)
(0 0 0.0119633)
(0 0 0.0117686)
(0 0 0.0115734)
(0 0 0.011378)
(0 0 0.0111821)
(0 0 0.010986)
(0 0 0.0107895)
(0 0 0.0105928)
(0 0 0.0103959)