/*--------------------------------*- C++ -*----------------------------------*\
| =========                 |                                                 |
| \\      /  F ield         | OpenFOAM: The Open Source CFD Toolbox           |
|  \\    /   O peration     | Version:  v2012                                 |
|   \\  /    A nd           | Website:  www.openfoam.com                      |
|    \\/     M anipulation  |                                                 |
\*---------------------------------------------------------------------------*/
FoamFile
{
    version     2.0;
    format      ascii;
    class       volScalarField;
    location    "19.2";
    object      Psi_z;
}
// * * * * * * * * * * * * * * * * * * * * * * * * * * * * * * * * * * * * * //

dimensions      [0 2 -1 0 0 0 0];


internalField   nonuniform List<scalar> 
65536
(
8.03096e-06
2.40933e-05
4.01566e-05
5.62215e-05
7.22887e-05
8.83587e-05
0.000104432
0.00012051
0.000136593
0.00015268
0.000168774
0.000184875
0.000200982
0.000217097
0.00023322
0.000249352
0.000265493
0.000281643
0.000297803
0.000313973
0.000330155
0.000346347
0.00036255
0.000378765
0.000394991
0.00041123
0.00042748
0.000443742
0.000460017
0.000476303
0.000492601
0.000508912
0.000525233
0.000541567
0.000557911
0.000574266
0.000590631
0.000607006
0.000623389
0.000639782
0.000656182
0.000672589
0.000689002
0.000705419
0.000721841
0.000738265
0.000754691
0.000771117
0.000787541
0.000803962
0.000820379
0.000836789
0.00085319
0.000869581
0.00088596
0.000902323
0.000918669
0.000934996
0.0009513
0.000967579
0.000983829
0.00100005
0.00101623
0.00103238
0.00104849
0.00106455
0.00108056
0.00109652
0.00111242
0.00112827
0.00114404
0.00115975
0.00117538
0.00119094
0.00120641
0.00122179
0.00123707
0.00125226
0.00126733
0.0012823
0.00129715
0.00131188
0.00132648
0.00134094
0.00135526
0.00136943
0.00138344
0.00139729
0.00141097
0.00142448
0.0014378
0.00145094
0.00146387
0.0014766
0.00148912
0.00150141
0.00151348
0.00152531
0.00153691
0.00154825
0.00155933
0.00157015
0.00158069
0.00159095
0.00160093
0.00161061
0.00161999
0.00162906
0.00163781
0.00164624
0.00165434
0.0016621
0.00166952
0.00167659
0.0016833
0.00168965
0.00169563
0.00170124
0.00170648
0.00171133
0.00171579
0.00171986
0.00172353
0.00172681
0.00172968
0.00173214
0.0017342
0.00173585
0.00173708
0.0017379
0.0017383
0.00173828
0.00173785
0.001737
0.00173573
0.00173405
0.00173195
0.00172944
0.00172651
0.00172317
0.00171942
0.00171527
0.00171072
0.00170577
0.00170042
0.00169468
0.00168855
0.00168204
0.00167516
0.0016679
0.00166028
0.00165229
0.00164396
0.00163527
0.00162624
0.00161688
0.00160718
0.00159717
0.00158684
0.0015762
0.00156526
0.00155403
0.00154252
0.00153072
0.00151866
0.00150633
0.00149375
0.00148092
0.00146785
0.00145454
0.00144102
0.00142727
0.00141332
0.00139916
0.00138481
0.00137028
0.00135556
0.00134067
0.00132561
0.0013104
0.00129503
0.00127952
0.00126387
0.00124809
0.00123218
0.00121615
0.00120001
0.00118376
0.00116741
0.00115096
0.00113442
0.00111779
0.00110109
0.00108431
0.00106745
0.00105054
0.00103356
0.00101652
0.000999429
0.000982289
0.000965105
0.000947878
0.000930614
0.000913315
0.000895984
0.000878626
0.000861242
0.000843835
0.000826409
0.000808965
0.000791507
0.000774036
0.000756554
0.000739064
0.000721567
0.000704066
0.000686561
0.000669055
0.000651548
0.000634043
0.000616539
0.000599039
0.000581544
0.000564054
0.00054657
0.000529092
0.000511622
0.00049416
0.000476707
0.000459262
0.000441827
0.0004244
0.000406984
0.000389577
0.00037218
0.000354792
0.000337414
0.000320046
0.000302686
0.000285336
0.000267995
0.000250662
0.000233337
0.00021602
0.000198711
0.000181408
0.000164111
0.00014682
0.000129534
0.000112254
9.49768e-05
7.77034e-05
6.0433e-05
4.31648e-05
2.58982e-05
8.63264e-06
2.40927e-05
7.22791e-05
0.000120468
0.000168663
0.000216864
0.000265073
0.000313294
0.000361526
0.000409773
0.000458036
0.000506317
0.000554618
0.00060294
0.000651284
0.000699653
0.000748048
0.00079647
0.00084492
0.0008934
0.000941911
0.000990454
0.00103903
0.00108764
0.00113628
0.00118496
0.00123368
0.00128243
0.00133122
0.00138004
0.0014289
0.0014778
0.00152673
0.00157569
0.00162469
0.00167372
0.00172279
0.00177189
0.00182101
0.00187016
0.00191934
0.00196854
0.00201776
0.002067
0.00211626
0.00216552
0.0022148
0.00226408
0.00231336
0.00236263
0.0024119
0.00246115
0.00251038
0.00255959
0.00260876
0.0026579
0.00270699
0.00275603
0.00280501
0.00285393
0.00290277
0.00295152
0.00300019
0.00304874
0.00309719
0.00314551
0.0031937
0.00324174
0.00328962
0.00333734
0.00338487
0.0034322
0.00347933
0.00352623
0.0035729
0.00361931
0.00366546
0.00371132
0.00375688
0.00380212
0.00384703
0.00389159
0.00393577
0.00397957
0.00402296
0.00406592
0.00410844
0.00415049
0.00419205
0.00423311
0.00427363
0.00431361
0.00435301
0.00439182
0.00443002
0.00446757
0.00450447
0.00454068
0.00457619
0.00461097
0.004645
0.00467826
0.00471072
0.00474236
0.00477316
0.00480309
0.00483215
0.00486029
0.0048875
0.00491377
0.00493906
0.00496337
0.00498666
0.00500892
0.00503013
0.00505027
0.00506933
0.00508728
0.00510412
0.00511982
0.00513437
0.00514776
0.00515997
0.005171
0.00518082
0.00518944
0.00519684
0.00520301
0.00520795
0.00521165
0.00521411
0.00521531
0.00521527
0.00521397
0.00521142
0.00520762
0.00520257
0.00519627
0.00518872
0.00517994
0.00516992
0.00515868
0.00514622
0.00513256
0.00511769
0.00510164
0.00508442
0.00506604
0.00504651
0.00502585
0.00500407
0.0049812
0.00495724
0.00493222
0.00490615
0.00487906
0.00485096
0.00482187
0.00479182
0.00476082
0.0047289
0.00469608
0.00466238
0.00462783
0.00459244
0.00455623
0.00451924
0.00448149
0.00444299
0.00440377
0.00436386
0.00432327
0.00428203
0.00424016
0.00419769
0.00415463
0.00411101
0.00406685
0.00402218
0.003977
0.00393135
0.00388524
0.0038387
0.00379174
0.00374439
0.00369666
0.00364856
0.00360013
0.00355138
0.00350231
0.00345296
0.00340334
0.00335346
0.00330334
0.00325299
0.00320243
0.00315167
0.00310073
0.00304961
0.00299833
0.00294691
0.00289535
0.00284367
0.00279187
0.00273997
0.00268798
0.0026359
0.00258375
0.00253152
0.00247924
0.00242691
0.00237453
0.00232212
0.00226967
0.0022172
0.0021647
0.0021122
0.00205968
0.00200716
0.00195464
0.00190212
0.00184961
0.00179711
0.00174463
0.00169215
0.0016397
0.00158727
0.00153486
0.00148247
0.00143011
0.00137778
0.00132547
0.00127319
0.00122094
0.00116872
0.00111653
0.00106437
0.00101223
0.000960127
0.00090805
0.000856
0.000803976
0.000751978
0.000700004
0.000648053
0.000596124
0.000544216
0.000492327
0.000440455
0.000388598
0.000336756
0.000284927
0.000233107
0.000181297
0.000129493
7.76938e-05
2.58976e-05
4.01534e-05
0.000120462
0.000200775
0.000281097
0.00036143
0.000441777
0.000522142
0.000602528
0.000682938
0.000763374
0.000843841
0.00092434
0.00100487
0.00108545
0.00116606
0.00124672
0.00132742
0.00140817
0.00148897
0.00156982
0.00165072
0.00173168
0.0018127
0.00189377
0.0019749
0.00205609
0.00213734
0.00221866
0.00230003
0.00238146
0.00246295
0.0025445
0.00262612
0.00270778
0.00278951
0.00287128
0.00295311
0.00303499
0.00311691
0.00319888
0.00328088
0.00336292
0.00344499
0.00352708
0.0036092
0.00369133
0.00377346
0.0038556
0.00393773
0.00401984
0.00410193
0.00418399
0.00426601
0.00434798
0.00442988
0.00451171
0.00459345
0.0046751
0.00475663
0.00483804
0.00491931
0.00500042
0.00508137
0.00516212
0.00524267
0.00532299
0.00540307
0.00548289
0.00556243
0.00564167
0.00572057
0.00579913
0.00587732
0.00595512
0.00603249
0.00610941
0.00618587
0.00626182
0.00633724
0.00641211
0.00648639
0.00656006
0.00663307
0.00670541
0.00677704
0.00684792
0.00691802
0.00698732
0.00705577
0.00712333
0.00718998
0.00725568
0.00732039
0.00738407
0.00744669
0.00750821
0.00756859
0.0076278
0.00768579
0.00774253
0.00779798
0.00785211
0.00790487
0.00795622
0.00800614
0.00805459
0.00810152
0.0081469
0.0081907
0.00823287
0.0082734
0.00831224
0.00834936
0.00838473
0.00841832
0.0084501
0.00848005
0.00850812
0.00853431
0.00855858
0.00858091
0.00860128
0.00861966
0.00863605
0.00865042
0.00866277
0.00867306
0.0086813
0.00868747
0.00869157
0.00869358
0.00869351
0.00869135
0.0086871
0.00868076
0.00867233
0.00866183
0.00864925
0.0086346
0.0086179
0.00859915
0.00857838
0.00855559
0.00853081
0.00850405
0.00847533
0.00844467
0.00841211
0.00837765
0.00834134
0.0083032
0.00826325
0.00822152
0.00817806
0.00813288
0.00808602
0.00803752
0.00798741
0.00793573
0.0078825
0.00782778
0.00777159
0.00771397
0.00765496
0.0075946
0.00753292
0.00746997
0.00740578
0.00734039
0.00727384
0.00720617
0.00713741
0.00706761
0.0069968
0.00692501
0.00685229
0.00677866
0.00670418
0.00662886
0.00655276
0.00647589
0.0063983
0.00632001
0.00624107
0.00616149
0.00608132
0.00600058
0.0059193
0.00583751
0.00575524
0.00567252
0.00558937
0.00550582
0.00542189
0.0053376
0.00525299
0.00516807
0.00508286
0.00499739
0.00491167
0.00482573
0.00473958
0.00465324
0.00456673
0.00448006
0.00439325
0.00430632
0.00421927
0.00413213
0.0040449
0.00395759
0.00387023
0.00378281
0.00369535
0.00360786
0.00352034
0.00343281
0.00334527
0.00325773
0.0031702
0.00308268
0.00299517
0.00290769
0.00282024
0.00273281
0.00264542
0.00255807
0.00247076
0.00238349
0.00229626
0.00220908
0.00212195
0.00203487
0.00194783
0.00186085
0.00177391
0.00168702
0.00160018
0.00151339
0.00142664
0.00133993
0.00125327
0.00116665
0.00108006
0.000993518
0.000907005
0.000820525
0.000734073
0.000647648
0.000561247
0.000474866
0.000388502
0.000302154
0.000215816
0.000129486
4.31616e-05
5.62125e-05
0.00016864
0.000281074
0.00039352
0.000505981
0.000618463
0.00073097
0.000843506
0.000956075
0.00106868
0.00118133
0.00129403
0.00140677
0.00151957
0.00163242
0.00174534
0.00185832
0.00197136
0.00208448
0.00219767
0.00231093
0.00242427
0.00253769
0.00265119
0.00276478
0.00287844
0.0029922
0.00310603
0.00321995
0.00333396
0.00344805
0.00356222
0.00367648
0.00379082
0.00390523
0.00401972
0.00413429
0.00424892
0.00436362
0.00447837
0.00459318
0.00470805
0.00482295
0.00493789
0.00505286
0.00516785
0.00528285
0.00539785
0.00551284
0.00562781
0.00574275
0.00585765
0.00597249
0.00608725
0.00620194
0.00631651
0.00643097
0.0065453
0.00665946
0.00677346
0.00688725
0.00700083
0.00711418
0.00722725
0.00734005
0.00745253
0.00756467
0.00767645
0.00778783
0.00789879
0.00800929
0.00811931
0.00822881
0.00833775
0.00844611
0.00855384
0.00866091
0.00876729
0.00887292
0.00897777
0.00908181
0.00918498
0.00928725
0.00938857
0.00948889
0.00958817
0.00968637
0.00978343
0.0098793
0.00997395
0.0100673
0.0101593
0.01025
0.0103392
0.0104269
0.0105131
0.0105977
0.0106806
0.0107619
0.0108413
0.010919
0.0109949
0.0110688
0.0111407
0.0112107
0.0112785
0.0113443
0.0114079
0.0114692
0.0115283
0.0115851
0.0116395
0.0116916
0.0117411
0.0117882
0.0118327
0.0118747
0.011914
0.0119507
0.0119847
0.012016
0.0120446
0.0120703
0.0120933
0.0121134
0.0121307
0.0121452
0.0121567
0.0121654
0.0121711
0.0121739
0.0121738
0.0121708
0.0121649
0.012156
0.0121442
0.0121295
0.0121118
0.0120913
0.0120679
0.0120417
0.0120126
0.0119806
0.0119459
0.0119084
0.0118682
0.0118252
0.0117796
0.0117313
0.0116804
0.011627
0.011571
0.0115126
0.0114517
0.0113884
0.0113227
0.0112548
0.0111846
0.0111122
0.0110376
0.0109609
0.0108822
0.0108015
0.0107188
0.0106343
0.0105479
0.0104597
0.0103698
0.0102782
0.010185
0.0100902
0.00999385
0.00989607
0.00979688
0.00969632
0.00959446
0.00949134
0.00938701
0.00928152
0.00917492
0.00906726
0.00895859
0.00884894
0.00873837
0.00862692
0.00851464
0.00840156
0.00828773
0.00817319
0.00805798
0.00794213
0.00782568
0.00770867
0.00759113
0.0074731
0.00735461
0.00723569
0.00711638
0.00699669
0.00687666
0.00675631
0.00663568
0.00651478
0.00639364
0.00627228
0.00615073
0.006029
0.00590712
0.0057851
0.00566296
0.00554072
0.00541839
0.00529599
0.00517353
0.00505103
0.0049285
0.00480595
0.00468338
0.00456082
0.00443826
0.00431572
0.00419321
0.00407073
0.00394829
0.00382589
0.00370354
0.00358124
0.003459
0.00333682
0.0032147
0.00309265
0.00297067
0.00284875
0.0027269
0.00260512
0.00248341
0.00236176
0.00224019
0.00211868
0.00199723
0.00187584
0.00175452
0.00163325
0.00151204
0.00139088
0.00126976
0.00114869
0.00102767
0.000906675
0.000785717
0.000664788
0.000543883
0.000422999
0.000302131
0.000181274
6.04239e-05
7.22693e-05
0.000216811
0.000361361
0.000505926
0.000650512
0.000795124
0.000939768
0.00108445
0.00122917
0.00137395
0.00151878
0.00166366
0.00180861
0.00195363
0.00209873
0.0022439
0.00238915
0.00253449
0.00267992
0.00282545
0.00297107
0.00311679
0.00326261
0.00340854
0.00355457
0.00370071
0.00384696
0.00399332
0.00413979
0.00428637
0.00443306
0.00457986
0.00472677
0.00487377
0.00502088
0.00516809
0.00531539
0.00546278
0.00561026
0.00575781
0.00590544
0.00605313
0.00620087
0.00634867
0.0064965
0.00664435
0.00679223
0.0069401
0.00708797
0.00723581
0.00738361
0.00753136
0.00767903
0.00782662
0.00797409
0.00812144
0.00826863
0.00841565
0.00856247
0.00870906
0.00885541
0.00900148
0.00914724
0.00929267
0.00943774
0.0095824
0.00972663
0.00987039
0.0100136
0.0101564
0.0102985
0.01044
0.0105808
0.010721
0.0108603
0.0109989
0.0111367
0.0112735
0.0114094
0.0115443
0.0116781
0.0118108
0.0119424
0.0120727
0.0122018
0.0123295
0.0124558
0.0125807
0.0127041
0.0128258
0.012946
0.0130644
0.013181
0.0132958
0.0134087
0.0135196
0.0136284
0.0137351
0.0138397
0.013942
0.0140419
0.0141395
0.0142346
0.0143272
0.0144173
0.0145046
0.0145892
0.0146711
0.01475
0.0148261
0.0148992
0.0149692
0.0150362
0.0151
0.0151606
0.0152179
0.0152719
0.0153226
0.0153698
0.0154136
0.0154539
0.0154906
0.0155238
0.0155534
0.0155793
0.0156016
0.0156201
0.015635
0.0156462
0.0156536
0.0156572
0.0156571
0.0156532
0.0156455
0.0156341
0.0156189
0.0156
0.0155773
0.0155509
0.0155208
0.015487
0.0154495
0.0154085
0.0153638
0.0153155
0.0152637
0.0152084
0.0151497
0.0150876
0.0150221
0.0149533
0.0148813
0.0148061
0.0147277
0.0146462
0.0145617
0.0144743
0.014384
0.0142908
0.0141948
0.0140962
0.0139949
0.013891
0.0137846
0.0136758
0.0135646
0.0134511
0.0133354
0.0132176
0.0130976
0.0129757
0.0128517
0.0127259
0.0125983
0.0124689
0.0123379
0.0122052
0.012071
0.0119353
0.0117982
0.0116596
0.0115198
0.0113788
0.0112366
0.0110932
0.0109488
0.0108033
0.0106569
0.0105095
0.0103613
0.0102123
0.0100626
0.00991205
0.00976088
0.00960907
0.00945667
0.00930372
0.00915026
0.00899633
0.00884196
0.00868718
0.00853204
0.00837655
0.00822077
0.0080647
0.00790838
0.00775184
0.0075951
0.00743819
0.00728113
0.00712393
0.00696663
0.00680923
0.00665176
0.00649424
0.00633668
0.00617909
0.00602149
0.00586389
0.00570631
0.00554875
0.00539122
0.00523373
0.00507629
0.00491892
0.0047616
0.00460436
0.00444718
0.00429009
0.00413308
0.00397615
0.00381931
0.00366256
0.0035059
0.00334932
0.00319284
0.00303644
0.00288013
0.0027239
0.00256776
0.0024117
0.00225571
0.0020998
0.00194396
0.00178819
0.00163248
0.00147682
0.00132122
0.00116567
0.00101016
0.000854685
0.000699244
0.000543829
0.000388435
0.000233055
7.7684e-05
8.83231e-05
0.000264973
0.000441634
0.000618312
0.000795016
0.000971753
0.00114853
0.00132535
0.00150222
0.00167916
0.00185616
0.00203323
0.00221039
0.00238762
0.00256495
0.00274237
0.0029199
0.00309753
0.00327527
0.00345312
0.0036311
0.0038092
0.00398742
0.00416577
0.00434425
0.00452287
0.00470162
0.0048805
0.00505952
0.00523868
0.00541797
0.00559739
0.00577694
0.00595663
0.00613643
0.00631636
0.00649641
0.00667656
0.00685682
0.00703718
0.00721762
0.00739815
0.00757875
0.0077594
0.0079401
0.00812084
0.0083016
0.00848236
0.00866312
0.00884385
0.00902453
0.00920514
0.00938567
0.00956609
0.00974638
0.00992651
0.0101065
0.0102862
0.0104657
0.0106449
0.0108238
0.0110024
0.0111806
0.0113585
0.0115358
0.0117127
0.0118891
0.0120648
0.01224
0.0124145
0.0125883
0.0127614
0.0129336
0.0131049
0.0132754
0.0134449
0.0136133
0.0137806
0.0139468
0.0141118
0.0142755
0.0144378
0.0145987
0.0147581
0.014916
0.0150722
0.0152268
0.0153795
0.0155304
0.0156794
0.0158263
0.0159712
0.0161139
0.0162543
0.0163924
0.0165281
0.0166612
0.0167918
0.0169197
0.0170449
0.0171672
0.0172866
0.017403
0.0175164
0.0176265
0.0177334
0.017837
0.0179371
0.0180338
0.0181269
0.0182163
0.018302
0.018384
0.0184621
0.0185362
0.0186064
0.0186725
0.0187345
0.0187923
0.0188459
0.0188953
0.0189402
0.0189809
0.0190171
0.0190488
0.0190761
0.0190988
0.0191171
0.0191307
0.0191398
0.0191442
0.0191441
0.0191394
0.01913
0.019116
0.0190975
0.0190743
0.0190465
0.0190142
0.0189774
0.018936
0.0188902
0.0188399
0.0187852
0.0187261
0.0186628
0.0185951
0.0185232
0.0184472
0.0183671
0.0182829
0.0181948
0.0181027
0.0180068
0.0179071
0.0178037
0.0176967
0.0175862
0.0174721
0.0173547
0.017234
0.0171101
0.016983
0.0168528
0.0167197
0.0165837
0.0164448
0.0163033
0.0161591
0.0160123
0.0158631
0.0157115
0.0155576
0.0154015
0.0152433
0.0150829
0.0149207
0.0147565
0.0145905
0.0144227
0.0142533
0.0140823
0.0139098
0.0137359
0.0135605
0.0133839
0.013206
0.0130269
0.0128468
0.0126655
0.0124833
0.0123001
0.0121161
0.0119313
0.0117456
0.0115593
0.0113723
0.0111846
0.0109964
0.0108077
0.0106184
0.0104287
0.0102386
0.0100482
0.00985737
0.00966626
0.00947488
0.00928326
0.00909143
0.00889942
0.00870725
0.00851495
0.00832255
0.00813005
0.00793749
0.00774488
0.00755225
0.0073596
0.00716696
0.00697433
0.00678174
0.00658918
0.00639668
0.00620425
0.00601188
0.0058196
0.0056274
0.00543529
0.00524328
0.00505137
0.00485957
0.00466787
0.00447628
0.00428481
0.00409344
0.00390218
0.00371103
0.00351999
0.00332905
0.00313821
0.00294747
0.00275683
0.00256628
0.00237582
0.00218544
0.00199513
0.0018049
0.00161473
0.00142462
0.00123456
0.00104455
0.000854578
0.000664638
0.000474724
0.000284827
9.49411e-05
0.000104373
0.000313124
0.000521888
0.000730673
0.000939488
0.00114834
0.00135724
0.0015662
0.00177522
0.0019843
0.00219347
0.00240273
0.00261207
0.00282152
0.00303108
0.00324075
0.00345054
0.00366045
0.0038705
0.00408068
0.00429101
0.00450148
0.0047121
0.00492287
0.0051338
0.00534489
0.00555614
0.00576755
0.00597912
0.00619085
0.00640274
0.00661479
0.00682699
0.00703935
0.00725186
0.00746452
0.00767731
0.00789024
0.00810329
0.00831646
0.00852973
0.0087431
0.00895656
0.00917009
0.00938368
0.00959731
0.00981097
0.0100246
0.0102383
0.0104519
0.0106655
0.010879
0.0110924
0.0113057
0.0115188
0.0117318
0.0119445
0.012157
0.0123692
0.0125811
0.0127926
0.0130037
0.0132145
0.0134247
0.0136344
0.0138435
0.0140521
0.0142599
0.014467
0.0146734
0.0148789
0.0150835
0.0152872
0.0154898
0.0156914
0.0158918
0.016091
0.0162889
0.0164855
0.0166806
0.0168742
0.0170662
0.0172565
0.0174451
0.0176319
0.0178167
0.0179995
0.0181802
0.0183587
0.0185349
0.0187088
0.0188802
0.019049
0.0192151
0.0193785
0.0195391
0.0196967
0.0198512
0.0200026
0.0201507
0.0202954
0.0204368
0.0205745
0.0207086
0.020839
0.0209655
0.0210881
0.0212066
0.0213211
0.0214313
0.0215371
0.0216386
0.0217356
0.0218281
0.0219159
0.021999
0.0220772
0.0221506
0.0222191
0.0222826
0.022341
0.0223942
0.0224423
0.0224852
0.0225228
0.0225551
0.0225821
0.0226037
0.0226198
0.0226306
0.0226359
0.0226357
0.0226301
0.0226191
0.0226025
0.0225806
0.0225531
0.0225203
0.0224821
0.0224384
0.0223895
0.0223352
0.0222757
0.022211
0.0221411
0.0220661
0.021986
0.0219009
0.0218109
0.0217161
0.0216165
0.0215121
0.0214032
0.0212897
0.0211717
0.0210493
0.0209227
0.0207918
0.0206569
0.020518
0.0203751
0.0202284
0.020078
0.019924
0.0197665
0.0196055
0.0194412
0.0192737
0.0191031
0.0189295
0.018753
0.0185736
0.0183915
0.0182068
0.0180196
0.01783
0.017638
0.0174438
0.0172474
0.017049
0.0168486
0.0166464
0.0164423
0.0162366
0.0160292
0.0158203
0.0156099
0.0153981
0.015185
0.0149707
0.0147552
0.0145386
0.014321
0.0141024
0.0138829
0.0136626
0.0134414
0.0132196
0.012997
0.0127739
0.0125501
0.0123258
0.0121011
0.0118759
0.0116503
0.0114244
0.0111982
0.0109716
0.0107449
0.0105179
0.0102907
0.0100634
0.00983595
0.0096084
0.00938079
0.00915312
0.00892542
0.00869771
0.00847
0.00824232
0.00801468
0.00778709
0.00755957
0.00733212
0.00710477
0.0068775
0.00665035
0.0064233
0.00619637
0.00596956
0.00574288
0.00551632
0.0052899
0.0050636
0.00483744
0.00461141
0.00438551
0.00415974
0.00393409
0.00370856
0.00348316
0.00325786
0.00303268
0.00280759
0.00258261
0.00235772
0.00213291
0.00190818
0.00168352
0.00145892
0.00123438
0.00100988
0.000785422
0.000560994
0.000336588
0.000112195
0.000120419
0.000361262
0.000602121
0.000843004
0.00108392
0.00132488
0.0015659
0.00180698
0.00204813
0.00228937
0.0025307
0.00277212
0.00301366
0.00325531
0.00349709
0.003739
0.00398105
0.00422324
0.00446559
0.0047081
0.00495077
0.00519361
0.00543663
0.00567982
0.00592319
0.00616675
0.0064105
0.00665443
0.00689855
0.00714285
0.00738735
0.00763203
0.00787689
0.00812193
0.00836714
0.00861253
0.00885808
0.00910378
0.00934963
0.00959562
0.00984174
0.010088
0.0103343
0.0105807
0.0108272
0.0110737
0.0113203
0.0115669
0.0118135
0.0120601
0.0123066
0.012553
0.0127993
0.0130454
0.0132914
0.0135372
0.0137828
0.014028
0.014273
0.0145176
0.0147618
0.0150055
0.0152487
0.0154914
0.0157335
0.015975
0.0162157
0.0164557
0.0166948
0.0169331
0.0171704
0.0174066
0.0176418
0.0178758
0.0181086
0.01834
0.01857
0.0187986
0.0190256
0.0192509
0.0194745
0.0196963
0.0199161
0.0201339
0.0203497
0.0205631
0.0207743
0.0209831
0.0211893
0.0213929
0.0215937
0.0217917
0.0219868
0.0221787
0.0223675
0.022553
0.0227351
0.0229137
0.0230886
0.0232598
0.0234271
0.0235904
0.0237496
0.0239046
0.0240553
0.0242016
0.0243433
0.0244803
0.0246126
0.02474
0.0248624
0.0249797
0.0250919
0.0251987
0.0253003
0.0253963
0.0254868
0.0255717
0.0256509
0.0257243
0.0257918
0.0258534
0.025909
0.0259586
0.0260021
0.0260395
0.0260707
0.0260957
0.0261144
0.0261268
0.026133
0.0261328
0.0261264
0.0261136
0.0260945
0.0260691
0.0260374
0.0259995
0.0259553
0.0259049
0.0258483
0.0257856
0.0257168
0.0256419
0.0255611
0.0254744
0.0253819
0.0252835
0.0251795
0.0250699
0.0249547
0.0248341
0.0247082
0.024577
0.0244406
0.0242992
0.0241528
0.0240016
0.0238457
0.0236851
0.02352
0.0233505
0.0231767
0.0229987
0.0228167
0.0226307
0.0224409
0.0222473
0.0220502
0.0218496
0.0216456
0.0214384
0.0212281
0.0210147
0.0207984
0.0205793
0.0203576
0.0201332
0.0199064
0.0196772
0.0194458
0.0192122
0.0189765
0.0187389
0.0184994
0.0182581
0.0180152
0.0177706
0.0175245
0.017277
0.0170282
0.0167781
0.0165268
0.0162745
0.016021
0.0157666
0.0155113
0.0152552
0.0149983
0.0147406
0.0144823
0.0142234
0.013964
0.0137041
0.0134437
0.0131829
0.0129217
0.0126602
0.0123985
0.0121365
0.0118743
0.011612
0.0113494
0.0110868
0.0108241
0.0105614
0.0102986
0.0100358
0.00977303
0.00951028
0.00924758
0.00898494
0.00872238
0.00845992
0.00819756
0.00793531
0.00767318
0.00741119
0.00714934
0.00688762
0.00662606
0.00636464
0.00610338
0.00584227
0.00558132
0.00532052
0.00505987
0.00479936
0.00453901
0.0042788
0.00401872
0.00375878
0.00349897
0.00323927
0.00297969
0.00272022
0.00246084
0.00220156
0.00194235
0.00168322
0.00142416
0.00116514
0.000906176
0.000647244
0.000388336
0.000129444
0.00013646
0.000409386
0.000682328
0.000955299
0.00122831
0.00150137
0.00177449
0.00204769
0.00232097
0.00259434
0.00286782
0.00314141
0.00341513
0.00368898
0.00396297
0.00423711
0.00451141
0.00478588
0.00506052
0.00533535
0.00561036
0.00588557
0.00616097
0.00643658
0.0067124
0.00698843
0.00726466
0.00754112
0.00781779
0.00809467
0.00837177
0.00864908
0.0089266
0.00920433
0.00948226
0.00976038
0.0100387
0.0103172
0.0105958
0.0108747
0.0111536
0.0114327
0.0117119
0.0119913
0.0122707
0.0125501
0.0128297
0.0131092
0.0133887
0.0136682
0.0139477
0.014227
0.0145063
0.0147854
0.0150643
0.0153429
0.0156213
0.0158994
0.0161771
0.0164545
0.0167314
0.0170077
0.0172836
0.0175588
0.0178333
0.0181071
0.0183801
0.0186523
0.0189235
0.0191937
0.0194629
0.0197308
0.0199976
0.020263
0.020527
0.0207896
0.0210505
0.0213098
0.0215673
0.021823
0.0220767
0.0223283
0.0225777
0.0228249
0.0230696
0.0233119
0.0235515
0.0237884
0.0240225
0.0242535
0.0244815
0.0247062
0.0249276
0.0251455
0.0253598
0.0255704
0.0257771
0.0259798
0.0261784
0.0263728
0.0265627
0.0267482
0.026929
0.027105
0.0272761
0.0274422
0.0276031
0.0277587
0.0279089
0.0280536
0.0281927
0.028326
0.0284534
0.0285748
0.0286901
0.0287992
0.028902
0.0289985
0.0290884
0.0291718
0.0292485
0.0293186
0.0293818
0.0294381
0.0294876
0.0295301
0.0295655
0.0295939
0.0296152
0.0296294
0.0296364
0.0296362
0.0296289
0.0296144
0.0295928
0.0295639
0.029528
0.0294849
0.0294347
0.0293774
0.0293132
0.029242
0.0291638
0.0290789
0.0289871
0.0288886
0.0287835
0.0286719
0.0285537
0.0284292
0.0282985
0.0281615
0.0280185
0.0278695
0.0277146
0.0275541
0.0273879
0.0272162
0.0270391
0.0268567
0.0266693
0.0264768
0.0262795
0.0260775
0.0258708
0.0256597
0.0254442
0.0252245
0.0250007
0.024773
0.0245415
0.0243063
0.0240676
0.0238254
0.02358
0.0233314
0.0230797
0.0228251
0.0225678
0.0223077
0.0220451
0.0217801
0.0215127
0.0212431
0.0209714
0.0206976
0.020422
0.0201446
0.0198655
0.0195847
0.0193025
0.0190188
0.0187338
0.0184475
0.0181601
0.0178716
0.017582
0.0172916
0.0170002
0.016708
0.0164151
0.0161216
0.0158274
0.0155326
0.0152374
0.0149417
0.0146456
0.0143491
0.0140524
0.0137553
0.0134581
0.0131607
0.0128631
0.0125653
0.0122675
0.0119697
0.0116718
0.0113739
0.011076
0.0107782
0.0104804
0.0101827
0.0098851
0.00958761
0.00929023
0.00899299
0.00869589
0.00839895
0.00810216
0.00780554
0.00750909
0.00721281
0.00691671
0.00662079
0.00632504
0.00602947
0.00573407
0.00543885
0.00514379
0.00484889
0.00455416
0.00425957
0.00396514
0.00367084
0.00337667
0.00308262
0.00278869
0.00249485
0.00220112
0.00190746
0.00161388
0.00132036
0.0010269
0.000733468
0.000440069
0.000146688
0.000152495
0.000457492
0.000762508
0.00106756
0.00137265
0.0016778
0.00198302
0.00228832
0.00259371
0.00289921
0.00320483
0.00351058
0.00381646
0.0041225
0.0044287
0.00473506
0.00504161
0.00534834
0.00565528
0.00596241
0.00626976
0.00657733
0.00688512
0.00719314
0.00750139
0.00780988
0.00811862
0.00842759
0.00873681
0.00904627
0.00935598
0.00966592
0.00997611
0.0102865
0.0105972
0.010908
0.0112191
0.0115304
0.0118419
0.0121535
0.0124654
0.0127774
0.0130895
0.0134017
0.0137141
0.0140265
0.014339
0.0146515
0.014964
0.0152765
0.0155889
0.0159012
0.0162134
0.0165255
0.0168373
0.0171489
0.0174602
0.0177711
0.0180817
0.0183918
0.0187015
0.0190105
0.019319
0.0196268
0.0199338
0.0202401
0.0205454
0.0208498
0.0211532
0.0214554
0.0217565
0.0220563
0.0223547
0.0226516
0.022947
0.0232407
0.0235327
0.0238228
0.024111
0.024397
0.0246809
0.0249625
0.0252416
0.0255182
0.0257921
0.0260633
0.0263315
0.0265967
0.0268586
0.0271173
0.0273725
0.0276241
0.0278719
0.0281159
0.0283559
0.0285916
0.0288231
0.0290501
0.0292725
0.0294902
0.0297029
0.0299106
0.0301131
0.0303102
0.0305019
0.0306879
0.0308682
0.0310426
0.0312108
0.031373
0.0315287
0.0316781
0.0318208
0.0319569
0.0320861
0.0322084
0.0323236
0.0324317
0.0325325
0.032626
0.032712
0.0327905
0.0328614
0.0329246
0.03298
0.0330276
0.0330674
0.0330992
0.0331231
0.033139
0.0331469
0.0331468
0.0331386
0.0331224
0.0330982
0.0330659
0.0330256
0.0329774
0.0329212
0.032857
0.0327851
0.0327053
0.0326178
0.0325226
0.0324198
0.0323095
0.0321917
0.0320666
0.0319343
0.0317948
0.0316483
0.0314949
0.0313347
0.0311678
0.0309944
0.0308145
0.0306284
0.0304361
0.0302377
0.0300335
0.0298236
0.0296081
0.0293871
0.0291608
0.0289294
0.028693
0.0284517
0.0282058
0.0279552
0.0277003
0.0274411
0.0271778
0.0269106
0.0266395
0.0263647
0.0260865
0.0258048
0.0255198
0.0252318
0.0249408
0.0246469
0.0243503
0.024051
0.0237494
0.0234453
0.0231391
0.0228307
0.0225203
0.022208
0.0218939
0.0215782
0.0212608
0.020942
0.0206218
0.0203003
0.0199776
0.0196537
0.0193288
0.019003
0.0186762
0.0183486
0.0180203
0.0176913
0.0173617
0.0170316
0.0167009
0.0163698
0.0160383
0.0157065
0.0153744
0.0150421
0.0147095
0.0143768
0.0140439
0.013711
0.013378
0.013045
0.012712
0.012379
0.012046
0.0117132
0.0113804
0.0110477
0.0107152
0.0103828
0.0100505
0.00971845
0.00938654
0.00905482
0.00872329
0.00839195
0.0080608
0.00772986
0.00739912
0.00706858
0.00673825
0.0064081
0.00607816
0.0057484
0.00541883
0.00508944
0.00476022
0.00443117
0.00410227
0.00377352
0.00344491
0.00311642
0.00278806
0.0024598
0.00213163
0.00180354
0.00147553
0.00114757
0.000819664
0.000491785
0.000163926
0.000168524
0.000505578
0.000842655
0.00117977
0.00151693
0.00185415
0.00219146
0.00252885
0.00286635
0.00320396
0.00354171
0.0038796
0.00421765
0.00455586
0.00489425
0.00523283
0.00557162
0.00591061
0.00624982
0.00658926
0.00692894
0.00726886
0.00760903
0.00794946
0.00829015
0.0086311
0.00897233
0.00931382
0.00965559
0.00999763
0.0103399
0.0106825
0.0110254
0.0113685
0.0117119
0.0120555
0.0123993
0.0127434
0.0130877
0.0134323
0.013777
0.0141219
0.0144669
0.0148121
0.0151574
0.0155028
0.0158483
0.0161938
0.0165393
0.0168848
0.0172302
0.0175755
0.0179207
0.0182658
0.0186106
0.0189551
0.0192994
0.0196433
0.0199867
0.0203297
0.0206721
0.0210139
0.0213551
0.0216955
0.0220352
0.0223739
0.0227117
0.0230484
0.023384
0.0237184
0.0240514
0.0243831
0.0247132
0.0250418
0.0253686
0.0256936
0.0260167
0.0263378
0.0266566
0.0269732
0.0272874
0.0275991
0.027908
0.0282142
0.0285174
0.0288176
0.0291145
0.0294081
0.0296981
0.0299845
0.0302671
0.0305457
0.0308201
0.0310903
0.031356
0.0316172
0.0318735
0.032125
0.0323713
0.0326124
0.0328481
0.0330782
0.0333025
0.033521
0.0337333
0.0339395
0.0341392
0.0343324
0.0345189
0.0346986
0.0348713
0.0350368
0.035195
0.0353458
0.0354891
0.0356246
0.0357524
0.0358722
0.035984
0.0360876
0.036183
0.0362701
0.0363487
0.0364187
0.0364802
0.0365331
0.0365772
0.0366125
0.036639
0.0366567
0.0366655
0.0366654
0.0366564
0.0366385
0.0366116
0.0365759
0.0365313
0.0364778
0.0364155
0.0363445
0.0362647
0.0361763
0.0360794
0.0359739
0.03586
0.0357377
0.0356072
0.0354686
0.035322
0.0351675
0.0350051
0.0348351
0.0346576
0.0344727
0.0342805
0.0340813
0.033875
0.033662
0.0334423
0.033216
0.0329835
0.0327447
0.0325
0.0322493
0.031993
0.0317312
0.031464
0.0311916
0.0309141
0.0306318
0.0303448
0.0300533
0.0297574
0.0294572
0.029153
0.0288449
0.0285331
0.0282177
0.0278988
0.0275767
0.0272514
0.0269231
0.0265919
0.026258
0.0259215
0.0255826
0.0252414
0.0248979
0.0245523
0.0242048
0.0238555
0.0235044
0.0231516
0.0227974
0.0224417
0.0220847
0.0217264
0.021367
0.0210066
0.0206452
0.0202829
0.0199198
0.0195559
0.0191914
0.0188263
0.0184606
0.0180944