/*--------------------------------*- C++ -*----------------------------------*\
| =========                 |                                                 |
| \\      /  F ield         | OpenFOAM: The Open Source CFD Toolbox           |
|  \\    /   O peration     | Version:  v2012                                 |
|   \\  /    A nd           | Website:  www.openfoam.com                      |
|    \\/     M anipulation  |                                                 |
\*---------------------------------------------------------------------------*/
FoamFile
{
    version     2.0;
    format      ascii;
    class       volVectorField;
    location    "19.2";
    object      U;
}
// * * * * * * * * * * * * * * * * * * * * * * * * * * * * * * * * * * * * * //

dimensions      [0 1 -1 0 0 0 0];


internalField   nonuniform List<vector> 
65536
(
(0.000655045 -0.000655057 0)
(0.00196516 -0.000655086 0)
(0.00327537 -0.00065514 0)
(0.0045857 -0.000655221 0)
(0.00589622 -0.000655328 0)
(0.00720699 -0.000655461 0)
(0.00851805 -0.00065562 0)
(0.00982945 -0.000655805 0)
(0.0111412 -0.000656015 0)
(0.0124535 -0.000656249 0)
(0.0137662 -0.000656508 0)
(0.0150795 -0.000656789 0)
(0.0163934 -0.000657094 0)
(0.0177079 -0.00065742 0)
(0.019023 -0.000657767 0)
(0.0203389 -0.000658133 0)
(0.0216555 -0.000658519 0)
(0.022973 -0.000658922 0)
(0.0242912 -0.000659342 0)
(0.0256103 -0.000659777 0)
(0.0269303 -0.000660226 0)
(0.0282512 -0.000660688 0)
(0.0295731 -0.00066116 0)
(0.0308959 -0.000661642 0)
(0.0322196 -0.000662132 0)
(0.0335444 -0.000662628 0)
(0.0348701 -0.000663128 0)
(0.0361969 -0.00066363 0)
(0.0375247 -0.000664132 0)
(0.0388534 -0.000664633 0)
(0.0401832 -0.000665129 0)
(0.041514 -0.000665618 0)
(0.0428457 -0.000666099 0)
(0.0441784 -0.000666568 0)
(0.045512 -0.000667023 0)
(0.0468465 -0.000667461 0)
(0.0481818 -0.00066788 0)
(0.049518 -0.000668276 0)
(0.050855 -0.000668646 0)
(0.0521926 -0.000668987 0)
(0.053531 -0.000669296 0)
(0.0548699 -0.00066957 0)
(0.0562093 -0.000669804 0)
(0.0575491 -0.000669996 0)
(0.0588893 -0.000670142 0)
(0.0602297 -0.000670237 0)
(0.0615703 -0.000670278 0)
(0.0629109 -0.00067026 0)
(0.0642514 -0.00067018 0)
(0.0655917 -0.000670032 0)
(0.0669316 -0.000669813 0)
(0.068271 -0.000669518 0)
(0.0696098 -0.000669142 0)
(0.0709477 -0.000668681 0)
(0.0722846 -0.000668129 0)
(0.0736203 -0.000667481 0)
(0.0749546 -0.000666732 0)
(0.0762873 -0.000665877 0)
(0.0776182 -0.00066491 0)
(0.0789471 -0.000663827 0)
(0.0802737 -0.00066262 0)
(0.0815977 -0.000661285 0)
(0.082919 -0.000659816 0)
(0.0842371 -0.000658207 0)
(0.0855519 -0.000656452 0)
(0.0868631 -0.000654545 0)
(0.0881703 -0.000652479 0)
(0.0894732 -0.000650249 0)
(0.0907714 -0.000647848 0)
(0.0920647 -0.000645271 0)
(0.0933527 -0.000642511 0)
(0.094635 -0.000639561 0)
(0.0959112 -0.000636415 0)
(0.0971808 -0.000633068 0)
(0.0984436 -0.000629512 0)
(0.0996991 -0.000625742 0)
(0.100947 -0.000621751 0)
(0.102186 -0.000617533 0)
(0.103417 -0.000613083 0)
(0.104639 -0.000608393 0)
(0.105851 -0.000603459 0)
(0.107053 -0.000598274 0)
(0.108244 -0.000592834 0)
(0.109425 -0.000587132 0)
(0.110593 -0.000581163 0)
(0.11175 -0.000574923 0)
(0.112893 -0.000568406 0)
(0.114023 -0.000561608 0)
(0.11514 -0.000554524 0)
(0.116242 -0.000547151 0)
(0.117329 -0.000539485 0)
(0.1184 -0.000531522 0)
(0.119455 -0.00052326 0)
(0.120493 -0.000514695 0)
(0.121514 -0.000505826 0)
(0.122517 -0.000496651 0)
(0.123501 -0.000487167 0)
(0.124466 -0.000477375 0)
(0.125411 -0.000467273 0)
(0.126335 -0.000456862 0)
(0.127239 -0.000446141 0)
(0.12812 -0.000435113 0)
(0.128979 -0.000423778 0)
(0.129816 -0.000412138 0)
(0.130628 -0.000400197 0)
(0.131417 -0.000387957 0)
(0.13218 -0.000375422 0)
(0.132919 -0.000362596 0)
(0.133631 -0.000349485 0)
(0.134317 -0.000336094 0)
(0.134976 -0.000322429 0)
(0.135607 -0.000308497 0)
(0.13621 -0.000294306 0)
(0.136784 -0.000279862 0)
(0.13733 -0.000265175 0)
(0.137845 -0.000250255 0)
(0.138331 -0.000235109 0)
(0.138786 -0.00021975 0)
(0.13921 -0.000204187 0)
(0.139603 -0.000188432 0)
(0.139964 -0.000172497 0)
(0.140293 -0.000156393 0)
(0.14059 -0.000140135 0)
(0.140854 -0.000123734 0)
(0.141085 -0.000107204 0)
(0.141283 -9.05594e-05 0)
(0.141447 -7.38139e-05 0)
(0.141578 -5.69822e-05 0)
(0.141675 -4.00788e-05 0)
(0.141738 -2.31187e-05 0)
(0.141768 -6.1169e-06 0)
(0.141763 1.09114e-05 0)
(0.141724 2.7951e-05 0)
(0.141651 4.49865e-05 0)
(0.141544 6.20026e-05 0)
(0.141403 7.89842e-05 0)
(0.141228 9.5916e-05 0)
(0.141019 0.000112783 0)
(0.140777 0.00012957 0)
(0.140501 0.000146264 0)
(0.140192 0.000162848 0)
(0.139849 0.00017931 0)
(0.139474 0.000195635 0)
(0.139067 0.00021181 0)
(0.138627 0.000227822 0)
(0.138155 0.000243659 0)
(0.137652 0.000259308 0)
(0.137118 0.000274758 0)
(0.136553 0.000289997 0)
(0.135958 0.000305014 0)
(0.135333 0.000319801 0)
(0.134678 0.000334347 0)
(0.133995 0.000348643 0)
(0.133283 0.000362681 0)
(0.132544 0.000376453 0)
(0.131777 0.000389952 0)
(0.130984 0.000403171 0)
(0.130164 0.000416105 0)
(0.129319 0.000428749 0)
(0.128449 0.000441096 0)
(0.127554 0.000453144 0)
(0.126636 0.000464889 0)
(0.125695 0.000476328 0)
(0.12473 0.000487458 0)
(0.123744 0.000498279 0)
(0.122737 0.000508787 0)
(0.121709 0.000518984 0)
(0.120661 0.000528868 0)
(0.119593 0.00053844 0)
(0.118507 0.000547702 0)
(0.117402 0.000556653 0)
(0.11628 0.000565296 0)
(0.11514 0.000573633 0)
(0.113985 0.000581667 0)
(0.112814 0.000589401 0)
(0.111627 0.000596837 0)
(0.110426 0.000603981 0)
(0.109211 0.000610834 0)
(0.107982 0.000617403 0)
(0.106741 0.000623691 0)
(0.105487 0.000629703 0)
(0.104222 0.000635445 0)
(0.102945 0.000640921 0)
(0.101658 0.000646138 0)
(0.10036 0.0006511 0)
(0.0990532 0.000655814 0)
(0.0977369 0.000660285 0)
(0.0964118 0.00066452 0)
(0.0950785 0.000668525 0)
(0.0937375 0.000672306 0)
(0.0923891 0.000675869 0)
(0.0910338 0.000679221 0)
(0.089672 0.000682368 0)
(0.0883041 0.000685317 0)
(0.0869306 0.000688074 0)
(0.0855516 0.000690645 0)
(0.0841678 0.000693038 0)
(0.0827793 0.000695259 0)
(0.0813866 0.000697313 0)
(0.0799899 0.000699208 0)
(0.0785896 0.000700949 0)
(0.077186 0.000702544 0)
(0.0757793 0.000703997 0)
(0.0743698 0.000705316 0)
(0.0729579 0.000706506 0)
(0.0715437 0.000707574 0)
(0.0701275 0.000708525 0)
(0.0687095 0.000709364 0)
(0.0672899 0.000710099 0)
(0.065869 0.000710733 0)
(0.0644469 0.000711274 0)
(0.0630238 0.000711725 0)
(0.0615999 0.000712093 0)
(0.0601754 0.000712382 0)
(0.0587503 0.000712597 0)
(0.0573249 0.000712743 0)
(0.0558993 0.000712826 0)
(0.0544735 0.000712849 0)
(0.0530478 0.000712818 0)
(0.0516222 0.000712735 0)
(0.0501968 0.000712607 0)
(0.0487718 0.000712436 0)
(0.0473471 0.000712228 0)
(0.0459228 0.000711985 0)
(0.0444991 0.000711711 0)
(0.0430759 0.00071141 0)
(0.0416534 0.000711086 0)
(0.0402316 0.000710742 0)
(0.0388104 0.000710381 0)
(0.03739 0.000710006 0)
(0.0359704 0.00070962 0)
(0.0345516 0.000709227 0)
(0.0331335 0.000708828 0)
(0.0317162 0.000708427 0)
(0.0302998 0.000708025 0)
(0.0288841 0.000707626 0)
(0.0274693 0.000707231 0)
(0.0260552 0.000706843 0)
(0.0246419 0.000706464 0)
(0.0232294 0.000706096 0)
(0.0218176 0.00070574 0)
(0.0204064 0.000705398 0)
(0.018996 0.000705072 0)
(0.0175862 0.000704763 0)
(0.016177 0.000704472 0)
(0.0147683 0.000704202 0)
(0.0133602 0.000703952 0)
(0.0119525 0.000703725 0)
(0.0105453 0.00070352 0)
(0.00913846 0.000703339 0)
(0.00773197 0.000703183 0)
(0.00632576 0.000703052 0)
(0.00491979 0.000702946 0)
(0.003514 0.000702867 0)
(0.00210835 0.000702814 0)
(0.000702774 0.000702787 0)
(0.000655021 -0.00196515 0)
(0.00196509 -0.00196523 0)
(0.00327524 -0.0019654 0)
(0.00458552 -0.00196564 0)
(0.00589599 -0.00196596 0)
(0.00720671 -0.00196636 0)
(0.00851771 -0.00196684 0)
(0.00982907 -0.00196739 0)
(0.0111408 -0.00196802 0)
(0.012453 -0.00196873 0)
(0.0137657 -0.0019695 0)
(0.0150789 -0.00197035 0)
(0.0163927 -0.00197126 0)
(0.0177072 -0.00197224 0)
(0.0190223 -0.00197328 0)
(0.0203382 -0.00197438 0)
(0.0216548 -0.00197554 0)
(0.0229722 -0.00197675 0)
(0.0242904 -0.00197801 0)
(0.0256095 -0.00197932 0)
(0.0269294 -0.00198067 0)
(0.0282503 -0.00198206 0)
(0.0295721 -0.00198348 0)
(0.0308949 -0.00198492 0)
(0.0322187 -0.00198639 0)
(0.0335434 -0.00198788 0)
(0.0348692 -0.00198939 0)
(0.0361959 -0.00199089 0)
(0.0375237 -0.0019924 0)
(0.0388525 -0.00199391 0)
(0.0401823 -0.0019954 0)
(0.041513 -0.00199687 0)
(0.0428448 -0.00199831 0)
(0.0441775 -0.00199972 0)
(0.0455111 -0.00200109 0)
(0.0468457 -0.00200241 0)
(0.0481811 -0.00200367 0)
(0.0495173 -0.00200486 0)
(0.0508543 -0.00200597 0)
(0.052192 -0.002007 0)
(0.0535304 -0.00200793 0)
(0.0548694 -0.00200875 0)
(0.0562089 -0.00200946 0)
(0.0575489 -0.00201004 0)
(0.0588891 -0.00201048 0)
(0.0602297 -0.00201077 0)
(0.0615704 -0.00201089 0)
(0.0629111 -0.00201085 0)
(0.0642517 -0.00201061 0)
(0.0655921 -0.00201017 0)
(0.0669322 -0.00200952 0)
(0.0682718 -0.00200864 0)
(0.0696107 -0.00200752 0)
(0.0709488 -0.00200614 0)
(0.0722859 -0.00200448 0)
(0.0736218 -0.00200255 0)
(0.0749563 -0.0020003 0)
(0.0762892 -0.00199775 0)
(0.0776204 -0.00199485 0)
(0.0789495 -0.00199161 0)
(0.0802763 -0.00198799 0)
(0.0816006 -0.00198399 0)
(0.0829221 -0.00197959 0)
(0.0842406 -0.00197477 0)
(0.0855557 -0.00196951 0)
(0.0868672 -0.00196379 0)
(0.0881747 -0.0019576 0)
(0.0894779 -0.00195092 0)
(0.0907765 -0.00194372 0)
(0.0920702 -0.001936 0)
(0.0933585 -0.00192772 0)
(0.0946412 -0.00191888 0)
(0.0959177 -0.00190945 0)
(0.0971878 -0.00189941 0)
(0.0984511 -0.00188875 0)
(0.099707 -0.00187745 0)
(0.100955 -0.00186548 0)
(0.102195 -0.00185283 0)
(0.103426 -0.00183949 0)
(0.104649 -0.00182543 0)
(0.105861 -0.00181063 0)
(0.107064 -0.00179508 0)
(0.108256 -0.00177876 0)
(0.109436 -0.00176166 0)
(0.110605 -0.00174376 0)
(0.111762 -0.00172504 0)
(0.112907 -0.0017055 0)
(0.114037 -0.00168511 0)
(0.115154 -0.00166386 0)
(0.116257 -0.00164175 0)
(0.117344 -0.00161875 0)
(0.118416 -0.00159487 0)
(0.119472 -0.00157008 0)
(0.120511 -0.00154439 0)
(0.121532 -0.00151778 0)
(0.122536 -0.00149026 0)
(0.12352 -0.00146181 0)
(0.124486 -0.00143243 0)
(0.125432 -0.00140213 0)
(0.126357 -0.00137089 0)
(0.127261 -0.00133873 0)
(0.128143 -0.00130564 0)
(0.129003 -0.00127164 0)
(0.129839 -0.00123671 0)
(0.130653 -0.00120089 0)
(0.131442 -0.00116416 0)
(0.132206 -0.00112655 0)
(0.132945 -0.00108807 0)
(0.133658 -0.00104873 0)
(0.134344 -0.00100855 0)
(0.135003 -0.000967553 0)
(0.135635 -0.000925749 0)
(0.136239 -0.000883166 0)
(0.136814 -0.000839827 0)
(0.137359 -0.000795757 0)
(0.137875 -0.000750985 0)
(0.138362 -0.000705539 0)
(0.138817 -0.00065945 0)
(0.139242 -0.00061275 0)
(0.139635 -0.000565473 0)
(0.139996 -0.000517655 0)
(0.140326 -0.000469332 0)
(0.140622 -0.000420543 0)
(0.140887 -0.000371327 0)
(0.141118 -0.000321723 0)
(0.141316 -0.000271775 0)
(0.141481 -0.000221524 0)
(0.141612 -0.000171014 0)
(0.141709 -0.000120289 0)
(0.141772 -6.93939e-05 0)
(0.141802 -1.83733e-05 0)
(0.141797 3.27268e-05 0)
(0.141758 8.38608e-05 0)
(0.141685 0.000134983 0)
(0.141578 0.000186046 0)
(0.141437 0.000237006 0)
(0.141262 0.000287817 0)
(0.141053 0.000338433 0)
(0.14081 0.00038881 0)
(0.140534 0.000438904 0)
(0.140225 0.000488671 0)
(0.139882 0.00053807 0)
(0.139507 0.000587059 0)
(0.139099 0.000635598 0)
(0.138659 0.000683647 0)
(0.138187 0.000731169 0)
(0.137683 0.000778127 0)
(0.137149 0.000824487 0)
(0.136583 0.000870215 0)
(0.135987 0.000915278 0)
(0.135362 0.000959648 0)
(0.134707 0.00100329 0)
(0.134023 0.00104619 0)
(0.133311 0.00108831 0)
(0.132571 0.00112964 0)
(0.131804 0.00117014 0)
(0.13101 0.0012098 0)
(0.13019 0.00124861 0)
(0.129344 0.00128655 0)
(0.128473 0.00132359 0)
(0.127578 0.00135974 0)
(0.126659 0.00139498 0)
(0.125717 0.0014293 0)
(0.124752 0.00146269 0)
(0.123766 0.00149515 0)
(0.122758 0.00152668 0)
(0.121729 0.00155727 0)
(0.12068 0.00158692 0)
(0.119612 0.00161564 0)
(0.118525 0.00164342 0)
(0.11742 0.00167027 0)
(0.116297 0.0016962 0)
(0.115157 0.00172121 0)
(0.114001 0.00174531 0)
(0.112829 0.0017685 0)
(0.111642 0.00179081 0)
(0.11044 0.00181223 0)
(0.109224 0.00183279 0)
(0.107995 0.00185249 0)
(0.106753 0.00187135 0)
(0.105499 0.00188938 0)
(0.104233 0.0019066 0)
(0.102956 0.00192303 0)
(0.101668 0.00193867 0)
(0.10037 0.00195355 0)
(0.0990624 0.00196769 0)
(0.0977455 0.00198109 0)
(0.09642 0.00199379 0)
(0.0950863 0.0020058 0)
(0.0937448 0.00201714 0)
(0.092396 0.00202782 0)
(0.0910403 0.00203787 0)
(0.0896781 0.0020473 0)
(0.0883098 0.00205614 0)
(0.0869358 0.00206441 0)
(0.0855566 0.00207212 0)
(0.0841724 0.00207929 0)
(0.0827836 0.00208594 0)
(0.0813905 0.0020921 0)
(0.0799935 0.00209778 0)
(0.0785929 0.002103 0)
(0.077189 0.00210777 0)
(0.075782 0.00211213 0)
(0.0743723 0.00211608 0)
(0.0729601 0.00211964 0)
(0.0715457 0.00212284 0)
(0.0701292 0.00212568 0)
(0.068711 0.0021282 0)
(0.0672913 0.0021304 0)
(0.0658701 0.00213229 0)
(0.0644479 0.00213391 0)
(0.0630246 0.00213526 0)
(0.0616005 0.00213636 0)
(0.0601758 0.00213722 0)
(0.0587506 0.00213786 0)
(0.0573251 0.00213829 0)
(0.0558993 0.00213854 0)
(0.0544735 0.0021386 0)
(0.0530477 0.0021385 0)
(0.051622 0.00213825 0)
(0.0501965 0.00213786 0)
(0.0487713 0.00213735 0)
(0.0473466 0.00213672 0)
(0.0459223 0.00213598 0)
(0.0444985 0.00213516 0)
(0.0430753 0.00213425 0)
(0.0416527 0.00213328 0)
(0.0402308 0.00213224 0)
(0.0388097 0.00213116 0)
(0.0373893 0.00213003 0)
(0.0359696 0.00212887 0)
(0.0345507 0.00212768 0)
(0.0331327 0.00212648 0)
(0.0317154 0.00212528 0)
(0.030299 0.00212407 0)
(0.0288833 0.00212287 0)
(0.0274685 0.00212169 0)
(0.0260544 0.00212052 0)
(0.0246412 0.00211938 0)
(0.0232286 0.00211827 0)
(0.0218168 0.0021172 0)
(0.0204058 0.00211618 0)
(0.0189953 0.0021152 0)
(0.0175856 0.00211427 0)
(0.0161764 0.0021134 0)
(0.0147678 0.00211258 0)
(0.0133597 0.00211183 0)
(0.0119521 0.00211115 0)
(0.0105449 0.00211053 0)
(0.00913812 0.00210999 0)
(0.00773167 0.00210952 0)
(0.00632552 0.00210913 0)
(0.0049196 0.00210881 0)
(0.00351387 0.00210857 0)
(0.00210827 0.00210841 0)
(0.000702747 0.00210833 0)
(0.000654966 -0.00327517 0)
(0.00196492 -0.0032753 0)
(0.00327497 -0.00327557 0)
(0.00458514 -0.00327598 0)
(0.00589551 -0.00327651 0)
(0.00720611 -0.00327718 0)
(0.00851702 -0.00327798 0)
(0.00982827 -0.00327891 0)
(0.0111399 -0.00327996 0)
(0.012452 -0.00328113 0)
(0.0137646 -0.00328243 0)
(0.0150777 -0.00328384 0)
(0.0163915 -0.00328537 0)
(0.0177058 -0.003287 0)
(0.0190209 -0.00328874 0)
(0.0203367 -0.00329058 0)
(0.0216532 -0.00329251 0)
(0.0229705 -0.00329453 0)
(0.0242887 -0.00329664 0)
(0.0256077 -0.00329882 0)
(0.0269276 -0.00330108 0)
(0.0282484 -0.00330339 0)
(0.0295702 -0.00330576 0)
(0.0308929 -0.00330818 0)
(0.0322167 -0.00331064 0)
(0.0335414 -0.00331313 0)
(0.0348671 -0.00331564 0)
(0.0361939 -0.00331816 0)
(0.0375217 -0.00332068 0)
(0.0388505 -0.00332319 0)
(0.0401803 -0.00332568 0)
(0.0415111 -0.00332814 0)
(0.0428428 -0.00333056 0)
(0.0441756 -0.00333292 0)
(0.0455093 -0.00333521 0)
(0.0468439 -0.00333741 0)
(0.0481794 -0.00333952 0)
(0.0495157 -0.00334151 0)
(0.0508529 -0.00334338 0)
(0.0521907 -0.0033451 0)
(0.0535292 -0.00334667 0)
(0.0548683 -0.00334805 0)
(0.056208 -0.00334924 0)
(0.0575481 -0.00335022 0)
(0.0588886 -0.00335097 0)
(0.0602294 -0.00335146 0)
(0.0615703 -0.00335169 0)
(0.0629112 -0.00335162 0)
(0.0642521 -0.00335124 0)
(0.0655928 -0.00335052 0)
(0.0669332 -0.00334945 0)
(0.0682731 -0.003348 0)
(0.0696123 -0.00334615 0)
(0.0709508 -0.00334386 0)
(0.0722882 -0.00334113 0)
(0.0736245 -0.00333791 0)
(0.0749595 -0.0033342 0)
(0.0762928 -0.00332995 0)
(0.0776244 -0.00332514 0)
(0.078954 -0.00331975 0)
(0.0802813 -0.00331375 0)
(0.0816061 -0.0033071 0)
(0.0829282 -0.00329979 0)
(0.0842472 -0.00329177 0)
(0.0855629 -0.00328302 0)
(0.086875 -0.00327352 0)
(0.0881832 -0.00326322 0)
(0.0894871 -0.0032521 0)
(0.0907864 -0.00324013 0)
(0.0920808 -0.00322727 0)
(0.0933699 -0.0032135 0)
(0.0946533 -0.00319879 0)
(0.0959307 -0.00318309 0)
(0.0972016 -0.00316638 0)
(0.0984656 -0.00314864 0)
(0.0997224 -0.00312982 0)
(0.100971 -0.00310989 0)
(0.102212 -0.00308883 0)
(0.103445 -0.00306661 0)
(0.104668 -0.00304319 0)
(0.105881 -0.00301855 0)
(0.107085 -0.00299265 0)
(0.108278 -0.00296548 0)
(0.10946 -0.00293699 0)
(0.11063 -0.00290717 0)
(0.111788 -0.002876 0)
(0.112933 -0.00284343 0)
(0.114065 -0.00280946 0)
(0.115183 -0.00277407 0)
(0.116287 -0.00273722 0)
(0.117376 -0.00269891 0)
(0.118449 -0.00265911 0)
(0.119506 -0.00261781 0)
(0.120546 -0.002575 0)
(0.121568 -0.00253066 0)
(0.122573 -0.00248479 0)
(0.123559 -0.00243738 0)
(0.124526 -0.00238842 0)
(0.125473 -0.00233791 0)
(0.126399 -0.00228585 0)
(0.127304 -0.00223224 0)
(0.128187 -0.00217709 0)
(0.129048 -0.00212041 0)
(0.129886 -0.0020622 0)
(0.130701 -0.00200247 0)
(0.131491 -0.00194126 0)
(0.132257 -0.00187856 0)
(0.132997 -0.00181441 0)
(0.133711 -0.00174882 0)
(0.134398 -0.00168184 0)
(0.135059 -0.00161348 0)
(0.135691 -0.00154378 0)
(0.136296 -0.00147278 0)
(0.136872 -0.00140052 0)
(0.137419 -0.00132704 0)
(0.137936 -0.00125239 0)
(0.138423 -0.00117661 0)
(0.138879 -0.00109976 0)
(0.139304 -0.00102189 0)
(0.139698 -0.000943056 0)
(0.14006 -0.000863319 0)
(0.14039 -0.000782738 0)
(0.140688 -0.000701379 0)
(0.140953 -0.000619307 0)
(0.141184 -0.000536588 0)
(0.141383 -0.000453294 0)
(0.141548 -0.000369495 0)
(0.141679 -0.000285262 0)
(0.141777 -0.000200671 0)
(0.14184 -0.000115795 0)
(0.14187 -3.07099e-05 0)
(0.141865 5.4508e-05 0)
(0.141826 0.000139782 0)
(0.141753 0.000225036 0)
(0.141646 0.000310193 0)
(0.141505 0.000395177 0)
(0.14133 0.000479911 0)
(0.14112 0.000564321 0)
(0.140877 0.000648331 0)
(0.140601 0.000731869 0)
(0.140291 0.000814862 0)
(0.139948 0.00089724 0)
(0.139572 0.000978933 0)
(0.139163 0.00105987 0)
(0.138723 0.00114 0)
(0.13825 0.00121924 0)
(0.137745 0.00129754 0)
(0.13721 0.00137485 0)
(0.136644 0.0014511 0)
(0.136047 0.00152624 0)
(0.135421 0.00160022 0)
(0.134765 0.00167299 0)
(0.13408 0.00174451 0)
(0.133367 0.00181474 0)
(0.132626 0.00188364 0)
(0.131857 0.00195117 0)
(0.131062 0.00201729 0)
(0.130241 0.00208199 0)
(0.129394 0.00214523 0)
(0.128522 0.00220699 0)
(0.127626 0.00226725 0)
(0.126706 0.00232598 0)
(0.125762 0.00238319 0)
(0.124796 0.00243885 0)
(0.123808 0.00249296 0)
(0.122799 0.0025455 0)
(0.121769 0.00259649 0)
(0.120719 0.00264591 0)
(0.11965 0.00269376 0)
(0.118561 0.00274006 0)
(0.117455 0.00278481 0)
(0.116331 0.00282802 0)
(0.11519 0.00286969 0)
(0.114032 0.00290984 0)
(0.112859 0.0029485 0)
(0.111671 0.00298566 0)
(0.110468 0.00302136 0)
(0.109251 0.0030556 0)
(0.108021 0.00308842 0)
(0.106778 0.00311984 0)
(0.105522 0.00314987 0)
(0.104255 0.00317856 0)
(0.102977 0.00320591 0)
(0.101688 0.00323196 0)
(0.100389 0.00325675 0)
(0.0990807 0.00328028 0)
(0.0977629 0.00330261 0)
(0.0964365 0.00332375 0)
(0.0951019 0.00334375 0)
(0.0937595 0.00336262 0)
(0.0924098 0.0033804 0)
(0.0910533 0.00339713 0)
(0.0896903 0.00341283 0)
(0.0883212 0.00342755 0)
(0.0869465 0.0034413 0)
(0.0855665 0.00345412 0)
(0.0841816 0.00346606 0)
(0.0827921 0.00347712 0)
(0.0813984 0.00348736 0)
(0.0800008 0.00349681 0)
(0.0785996 0.00350548 0)
(0.0771951 0.00351342 0)
(0.0757876 0.00352066 0)
(0.0743773 0.00352722 0)
(0.0729646 0.00353314 0)
(0.0715497 0.00353845 0)
(0.0701328 0.00354318 0)
(0.0687142 0.00354735 0)
(0.067294 0.00355099 0)
(0.0658725 0.00355414 0)
(0.0644498 0.00355681 0)
(0.0630262 0.00355904 0)
(0.0616018 0.00356086 0)
(0.0601768 0.00356227 0)
(0.0587514 0.00356333 0)
(0.0573256 0.00356404 0)
(0.0558996 0.00356443 0)
(0.0544735 0.00356452 0)
(0.0530474 0.00356434 0)
(0.0516216 0.00356391 0)
(0.0501959 0.00356324 0)
(0.0487706 0.00356237 0)
(0.0473457 0.00356131 0)
(0.0459212 0.00356007 0)
(0.0444973 0.00355869 0)
(0.043074 0.00355717 0)
(0.0416514 0.00355553 0)
(0.0402294 0.00355379 0)
(0.0388082 0.00355197 0)
(0.0373877 0.00355008 0)
(0.035968 0.00354814 0)
(0.0345491 0.00354616 0)
(0.0331311 0.00354415 0)
(0.0317138 0.00354213 0)
(0.0302974 0.00354011 0)
(0.0288817 0.0035381 0)
(0.0274669 0.00353612 0)
(0.0260529 0.00353417 0)
(0.0246397 0.00353226 0)
(0.0232272 0.00353041 0)
(0.0218154 0.00352862 0)
(0.0204044 0.00352691 0)
(0.0189941 0.00352527 0)
(0.0175844 0.00352372 0)
(0.0161753 0.00352226 0)
(0.0147667 0.0035209 0)
(0.0133587 0.00351965 0)
(0.0119512 0.0035185 0)
(0.0105441 0.00351748 0)
(0.00913744 0.00351657 0)
(0.0077311 0.00351579 0)
(0.00632504 0.00351513 0)
(0.00491923 0.0035146 0)
(0.0035136 0.0035142 0)
(0.00210811 0.00351393 0)
(0.000702693 0.0035138 0)
(0.000654884 -0.00458504 0)
(0.00196468 -0.00458523 0)
(0.00327456 -0.00458561 0)
(0.00458457 -0.00458618 0)
(0.00589478 -0.00458693 0)
(0.00720522 -0.00458787 0)
(0.00851597 -0.00458899 0)
(0.00982707 -0.00459029 0)
(0.0111386 -0.00459177 0)
(0.0124505 -0.00459342 0)
(0.013763 -0.00459524 0)
(0.015076 -0.00459722 0)
(0.0163896 -0.00459936 0)
(0.0177038 -0.00460165 0)
(0.0190187 -0.0046041 0)
(0.0203344 -0.00460668 0)
(0.0216508 -0.00460939 0)
(0.022968 -0.00461223 0)
(0.0242861 -0.00461519 0)
(0.025605 -0.00461825 0)
(0.0269248 -0.00462142 0)
(0.0282456 -0.00462467 0)
(0.0295673 -0.004628 0)
(0.03089 -0.0046314 0)
(0.0322137 -0.00463485 0)
(0.0335384 -0.00463835 0)
(0.0348641 -0.00464187 0)
(0.0361908 -0.00464542 0)
(0.0375186 -0.00464896 0)
(0.0388474 -0.0046525 0)
(0.0401772 -0.004656 0)
(0.0415081 -0.00465946 0)
(0.0428399 -0.00466286 0)
(0.0441728 -0.00466618 0)
(0.0455066 -0.0046694 0)
(0.0468413 -0.00467251 0)
(0.0481769 -0.00467548 0)
(0.0495134 -0.0046783 0)
(0.0508506 -0.00468093 0)
(0.0521887 -0.00468337 0)
(0.0535274 -0.00468558 0)
(0.0548667 -0.00468754 0)
(0.0562066 -0.00468924 0)
(0.057547 -0.00469063 0)
(0.0588878 -0.0046917 0)
(0.0602288 -0.00469243 0)
(0.0615701 -0.00469277 0)
(0.0629114 -0.0046927 0)
(0.0642527 -0.0046922 0)
(0.0655938 -0.00469123 0)
(0.0669346 -0.00468977 0)
(0.068275 -0.00468777 0)
(0.0696147 -0.0046852 0)
(0.0709537 -0.00468204 0)
(0.0722917 -0.00467825 0)
(0.0736286 -0.00467378 0)
(0.0749641 -0.00466862 0)
(0.0762982 -0.00466271 0)
(0.0776304 -0.00465602 0)
(0.0789607 -0.00464851 0)
(0.0802888 -0.00464015 0)
(0.0816144 -0.00463088 0)
(0.0829373 -0.00462068 0)
(0.0842572 -0.0046095 0)
(0.0855738 -0.0045973 0)
(0.0868868 -0.00458403 0)
(0.0881959 -0.00456966 0)
(0.0895008 -0.00455414 0)
(0.0908012 -0.00453742 0)
(0.0920966 -0.00451947 0)
(0.0933868 -0.00450023 0)
(0.0946714 -0.00447967 0)
(0.09595 -0.00445774 0)
(0.0972221 -0.00443439 0)
(0.0984875 -0.00440959 0)
(0.0997455 -0.00438329 0)
(0.100996 -0.00435544 0)
(0.102238 -0.004326 0)
(0.103472 -0.00429493 0)
(0.104697 -0.00426218 0)
(0.105912 -0.00422772 0)
(0.107117 -0.00419151 0)
(0.108311 -0.0041535 0)
(0.109495 -0.00411366 0)
(0.110666 -0.00407195 0)
(0.111826 -0.00402833 0)
(0.112973 -0.00398278 0)
(0.114107 -0.00393525 0)
(0.115226 -0.00388572 0)
(0.116332 -0.00383416 0)
(0.117422 -0.00378055 0)
(0.118497 -0.00372485 0)
(0.119556 -0.00366705 0)
(0.120598 -0.00360713 0)
(0.121622 -0.00354507 0)
(0.122629 -0.00348087 0)
(0.123617 -0.00341449 0)
(0.124585 -0.00334596 0)
(0.125534 -0.00327524 0)
(0.126462 -0.00320236 0)
(0.127369 -0.0031273 0)
(0.128254 -0.00305008 0)
(0.129117 -0.00297071 0)
(0.129957 -0.00288919 0)
(0.130773 -0.00280556 0)
(0.131565 -0.00271983 0)
(0.132333 -0.00263202 0)
(0.133074 -0.00254217 0)
(0.13379 -0.00245032 0)
(0.134479 -0.00235649 0)
(0.135141 -0.00226074 0)
(0.135776 -0.00216312 0)
(0.136382 -0.00206366 0)
(0.136959 -0.00196244 0)
(0.137507 -0.0018595 0)
(0.138026 -0.00175492 0)
(0.138514 -0.00164876 0)
(0.138972 -0.00154109 0)
(0.139398 -0.00143199 0)
(0.139793 -0.00132154 0)
(0.140156 -0.00120983 0)
(0.140487 -0.00109692 0)
(0.140786 -0.00098293 0)
(0.141052 -0.000867933 0)
(0.141284 -0.000752031 0)
(0.141483 -0.00063532 0)
(0.141649 -0.000517899 0)
(0.141781 -0.000399871 0)
(0.141879 -0.000281338 0)
(0.141942 -0.000162406 0)
(0.141972 -4.31808e-05 0)
(0.141968 7.62313e-05 0)
(0.141929 0.000195723 0)
(0.141856 0.000315186 0)
(0.141748 0.000434513 0)
(0.141607 0.000553596 0)
(0.141431 0.00067233 0)
(0.141221 0.000790607 0)
(0.140978 0.000908324 0)
(0.140701 0.00102538 0)
(0.14039 0.00114167 0)
(0.140046 0.00125709 0)
(0.139669 0.00137156 0)
(0.13926 0.00148497 0)
(0.138818 0.00159723 0)
(0.138344 0.00170825 0)
(0.137839 0.00181796 0)
(0.137302 0.00192626 0)
(0.136735 0.00203309 0)
(0.136137 0.00213835 0)
(0.135509 0.00224199 0)
(0.134851 0.00234394 0)
(0.134165 0.00244413 0)
(0.13345 0.0025425 0)
(0.132708 0.00263901 0)
(0.131938 0.00273359 0)
(0.131141 0.00282621 0)
(0.130318 0.00291682 0)
(0.129469 0.00300539 0)
(0.128595 0.00309188 0)
(0.127697 0.00317627 0)
(0.126775 0.00325852 0)
(0.12583 0.00333863 0)
(0.124862 0.00341656 0)
(0.123872 0.00349232 0)
(0.122861 0.00356589 0)
(0.121829 0.00363727 0)
(0.120777 0.00370646 0)
(0.119706 0.00377345 0)
(0.118616 0.00383826 0)
(0.117508 0.00390089 0)
(0.116382 0.00396137 0)
(0.115239 0.00401969 0)
(0.114079 0.00407589 0)
(0.112904 0.00412998 0)
(0.111714 0.00418198 0)
(0.11051 0.00423192 0)
(0.109291 0.00427984 0)
(0.108059 0.00432576 0)
(0.106815 0.0043697 0)
(0.105558 0.00441172 0)
(0.104289 0.00445184 0)
(0.103009 0.00449009 0)
(0.101719 0.00452653 0)
(0.100418 0.00456118 0)
(0.0991082 0.0045941 0)
(0.097789 0.00462531 0)
(0.0964612 0.00465487 0)
(0.0951252 0.00468281 0)
(0.0937815 0.00470919 0)
(0.0924305 0.00473404 0)
(0.0910727 0.00475742 0)
(0.0897085 0.00477936 0)
(0.0883383 0.00479991 0)
(0.0869624 0.00481911 0)
(0.0855813 0.00483703 0)
(0.0841954 0.00485368 0)
(0.0828049 0.00486914 0)
(0.0814102 0.00488343 0)
(0.0800116 0.0048966 0)
(0.0786095 0.0049087 0)
(0.0772042 0.00491978 0)
(0.0757958 0.00492987 0)
(0.0743848 0.00493901 0)
(0.0729714 0.00494726 0)
(0.0715557 0.00495465 0)
(0.0701381 0.00496123 0)
(0.0687188 0.00496702 0)
(0.0672981 0.00497209 0)
(0.065876 0.00497645 0)
(0.0644528 0.00498016 0)
(0.0630286 0.00498325 0)
(0.0616038 0.00498575 0)
(0.0601783 0.0049877 0)
(0.0587524 0.00498914 0)
(0.0573262 0.0049901 0)
(0.0558998 0.00499061 0)
(0.0544734 0.00499071 0)
(0.0530471 0.00499043 0)
(0.0516209 0.00498979 0)
(0.050195 0.00498884 0)
(0.0487694 0.00498759 0)
(0.0473443 0.00498607 0)
(0.0459197 0.00498432 0)
(0.0444956 0.00498235 0)
(0.0430721 0.0049802 0)
(0.0416494 0.00497788 0)
(0.0402273 0.00497543 0)
(0.038806 0.00497286 0)
(0.0373854 0.00497019 0)
(0.0359657 0.00496745 0)
(0.0345468 0.00496466 0)
(0.0331287 0.00496183 0)
(0.0317114 0.00495898 0)
(0.0302949 0.00495614 0)
(0.0288793 0.00495331 0)
(0.0274646 0.00495052 0)
(0.0260506 0.00494778 0)
(0.0246374 0.0049451 0)
(0.023225 0.00494249 0)
(0.0218133 0.00493997 0)
(0.0204024 0.00493756 0)
(0.0189922 0.00493525 0)
(0.0175826 0.00493307 0)
(0.0161736 0.00493102 0)
(0.0147652 0.00492911 0)
(0.0133573 0.00492735 0)
(0.0119499 0.00492575 0)
(0.010543 0.0049243 0)
(0.00913643 0.00492303 0)
(0.00773023 0.00492192 0)
(0.00632433 0.004921 0)
(0.00491867 0.00492025 0)
(0.0035132 0.00491969 0)
(0.00210787 0.00491932 0)
(0.000702613 0.00491913 0)
(0.000654775 -0.00589473 0)
(0.00196435 -0.00589498 0)
(0.00327401 -0.00589546 0)
(0.00458381 -0.0058962 0)
(0.0058938 -0.00589717 0)
(0.00720404 -0.00589838 0)
(0.00851457 -0.00589982 0)
(0.00982546 -0.0059015 0)
(0.0111368 -0.0059034 0)
(0.0124485 -0.00590553 0)
(0.0137608 -0.00590788 0)
(0.0150736 -0.00591044 0)
(0.016387 -0.0059132 0)
(0.0177011 -0.00591616 0)
(0.0190158 -0.00591931 0)
(0.0203313 -0.00592264 0)
(0.0216476 -0.00592614 0)
(0.0229646 -0.00592981 0)
(0.0242826 -0.00593363 0)
(0.0256014 -0.00593758 0)
(0.0269211 -0.00594167 0)
(0.0282418 -0.00594587 0)
(0.0295634 -0.00595017 0)
(0.030886 -0.00595456 0)
(0.0322096 -0.00595902 0)
(0.0335343 -0.00596354 0)
(0.03486 -0.00596809 0)
(0.0361867 -0.00597267 0)
(0.0375145 -0.00597726 0)
(0.0388433 -0.00598183 0)
(0.0401732 -0.00598636 0)
(0.0415041 -0.00599084 0)
(0.042836 -0.00599524 0)
(0.0441689 -0.00599954 0)
(0.0455029 -0.00600372 0)
(0.0468377 -0.00600775 0)
(0.0481735 -0.0060116 0)
(0.0495102 -0.00601526 0)
(0.0508477 -0.00601868 0)
(0.0521859 -0.00602185 0)
(0.0535249 -0.00602474 0)
(0.0548646 -0.00602731 0)
(0.0562048 -0.00602953 0)
(0.0575455 -0.00603137 0)
(0.0588867 -0.00603279 0)
(0.0602281 -0.00603377 0)
(0.0615698 -0.00603426 0)
(0.0629116 -0.00603422 0)
(0.0642534 -0.00603363 0)
(0.0655951 -0.00603244 0)
(0.0669365 -0.00603061 0)
(0.0682775 -0.00602809 0)
(0.0696179 -0.00602486 0)
(0.0709575 -0.00602085 0)
(0.0722963 -0.00601603 0)
(0.073634 -0.00601036 0)
(0.0749703 -0.00600378 0)
(0.0763052 -0.00599625 0)
(0.0776384 -0.00598771 0)
(0.0789697 -0.00597813 0)
(0.0802988 -0.00596744 0)
(0.0816254 -0.0059556 0)
(0.0829494 -0.00594255 0)
(0.0842704 -0.00592825 0)
(0.0855882 -0.00591263 0)
(0.0869025 -0.00589565 0)
(0.0882129 -0.00587725 0)
(0.0895191 -0.00585736 0)
(0.0908209 -0.00583594 0)
(0.0921178 -0.00581294 0)
(0.0934094 -0.00578828 0)
(0.0946956 -0.00576192 0)
(0.0959757 -0.0057338 0)
(0.0972495 -0.00570386 0)
(0.0985165 -0.00567205 0)
(0.0997764 -0.0056383 0)
(0.101029 -0.00560257 0)
(0.102273 -0.00556479 0)
(0.103508 -0.00552492 0)
(0.104735 -0.00548289 0)
(0.105952 -0.00543865 0)
(0.107159 -0.00539216 0)
(0.108355 -0.00534335 0)
(0.109541 -0.00529219 0)
(0.110715 -0.00523863 0)
(0.111877 -0.00518261 0)
(0.113026 -0.00512409 0)
(0.114162 -0.00506304 0)
(0.115284 -0.00499941 0)
(0.116392 -0.00493316 0)
(0.117485 -0.00486427 0)
(0.118562 -0.0047927 0)
(0.119623 -0.00471842 0)
(0.120668 -0.0046414 0)
(0.121694 -0.00456164 0)
(0.122703 -0.0044791 0)
(0.123694 -0.00439378 0)
(0.124665 -0.00430567 0)
(0.125616 -0.00421475 0)
(0.126547 -0.00412104 0)
(0.127456 -0.00402452 0)
(0.128344 -0.00392522 0)
(0.129209 -0.00382315 0)
(0.130051 -0.00371831 0)
(0.13087 -0.00361074 0)
(0.131665 -0.00350047 0)
(0.132434 -0.00338752 0)
(0.133178 -0.00327195 0)
(0.133896 -0.00315378 0)
(0.134588 -0.00303308 0)
(0.135252 -0.00290989 0)
(0.135888 -0.00278428 0)
(0.136497 -0.00265631 0)
(0.137076 -0.00252606 0)
(0.137626 -0.00239361 0)
(0.138146 -0.00225903 0)
(0.138636 -0.00212242 0)
(0.139096 -0.00198386 0)
(0.139524 -0.00184345 0)
(0.13992 -0.0017013 0)
(0.140285 -0.00155752 0)
(0.140617 -0.00141221 0)
(0.140917 -0.00126548 0)
(0.141184 -0.00111747 0)
(0.141417 -0.000968284 0)
(0.141617 -0.000818056 0)
(0.141783 -0.000666912 0)
(0.141916 -0.000514985 0)