/*--------------------------------*- C++ -*----------------------------------*\
| =========                 |                                                 |
| \\      /  F ield         | OpenFOAM: The Open Source CFD Toolbox           |
|  \\    /   O peration     | Version:  v2012                                 |
|   \\  /    A nd           | Website:  www.openfoam.com                      |
|    \\/     M anipulation  |                                                 |
\*---------------------------------------------------------------------------*/
FoamFile
{
    version     2.0;
    format      ascii;
    class       volVectorField;
    location    "2.8";
    object      Psi;
}
// * * * * * * * * * * * * * * * * * * * * * * * * * * * * * * * * * * * * * //

dimensions      [0 2 -1 0 0 0 0];


internalField   nonuniform List<vector> 
65536
(
(0 0 8.76632e-06)
(0 0 2.62984e-05)
(0 0 4.38288e-05)
(0 0 6.13566e-05)
(0 0 7.88807e-05)
(0 0 9.64001e-05)
(0 0 0.000113914)
(0 0 0.00013142)
(0 0 0.000148919)
(0 0 0.000166408)
(0 0 0.000183887)
(0 0 0.000201354)
(0 0 0.000218809)
(0 0 0.00023625)
(0 0 0.000253675)
(0 0 0.000271084)
(0 0 0.000288475)
(0 0 0.000305847)
(0 0 0.000323198)
(0 0 0.000340526)
(0 0 0.000357831)
(0 0 0.000375111)
(0 0 0.000392364)
(0 0 0.000409588)
(0 0 0.000426782)
(0 0 0.000443943)
(0 0 0.000461071)
(0 0 0.000478163)
(0 0 0.000495217)
(0 0 0.000512231)
(0 0 0.000529204)
(0 0 0.000546132)
(0 0 0.000563014)
(0 0 0.000579847)
(0 0 0.00059663)
(0 0 0.000613359)
(0 0 0.000630032)
(0 0 0.000646647)
(0 0 0.000663201)
(0 0 0.000679692)
(0 0 0.000696115)
(0 0 0.00071247)
(0 0 0.000728752)
(0 0 0.000744959)
(0 0 0.000761088)
(0 0 0.000777135)
(0 0 0.000793098)
(0 0 0.000808974)
(0 0 0.000824758)
(0 0 0.000840448)
(0 0 0.00085604)
(0 0 0.000871531)
(0 0 0.000886917)
(0 0 0.000902194)
(0 0 0.00091736)
(0 0 0.00093241)
(0 0 0.000947341)
(0 0 0.000962148)
(0 0 0.000976828)
(0 0 0.000991378)
(0 0 0.00100579)
(0 0 0.00102007)
(0 0 0.0010342)
(0 0 0.00104819)
(0 0 0.00106203)
(0 0 0.00107571)
(0 0 0.00108923)
(0 0 0.0011026)
(0 0 0.00111579)
(0 0 0.00112882)
(0 0 0.00114167)
(0 0 0.00115434)
(0 0 0.00116683)
(0 0 0.00117914)
(0 0 0.00119125)
(0 0 0.00120317)
(0 0 0.00121489)
(0 0 0.00122642)
(0 0 0.00123773)
(0 0 0.00124884)
(0 0 0.00125974)
(0 0 0.00127042)
(0 0 0.00128088)
(0 0 0.00129112)
(0 0 0.00130113)
(0 0 0.00131091)
(0 0 0.00132046)
(0 0 0.00132978)
(0 0 0.00133886)
(0 0 0.00134769)
(0 0 0.00135628)
(0 0 0.00136463)
(0 0 0.00137273)
(0 0 0.00138057)
(0 0 0.00138816)
(0 0 0.0013955)
(0 0 0.00140257)
(0 0 0.00140939)
(0 0 0.00141594)
(0 0 0.00142223)
(0 0 0.00142826)
(0 0 0.00143402)
(0 0 0.00143951)
(0 0 0.00144473)
(0 0 0.00144968)
(0 0 0.00145436)
(0 0 0.00145876)
(0 0 0.0014629)
(0 0 0.00146676)
(0 0 0.00147035)
(0 0 0.00147366)
(0 0 0.0014767)
(0 0 0.00147946)
(0 0 0.00148195)
(0 0 0.00148416)
(0 0 0.0014861)
(0 0 0.00148777)
(0 0 0.00148916)
(0 0 0.00149028)
(0 0 0.00149113)
(0 0 0.00149171)
(0 0 0.00149202)
(0 0 0.00149206)
(0 0 0.00149183)
(0 0 0.00149133)
(0 0 0.00149057)
(0 0 0.00148955)
(0 0 0.00148826)
(0 0 0.00148672)
(0 0 0.00148491)
(0 0 0.00148285)
(0 0 0.00148053)
(0 0 0.00147795)
(0 0 0.00147513)
(0 0 0.00147205)
(0 0 0.00146873)
(0 0 0.00146516)
(0 0 0.00146135)
(0 0 0.00145729)
(0 0 0.001453)
(0 0 0.00144847)
(0 0 0.00144371)
(0 0 0.00143871)
(0 0 0.00143349)
(0 0 0.00142804)
(0 0 0.00142236)
(0 0 0.00141646)
(0 0 0.00141034)
(0 0 0.001404)
(0 0 0.00139745)
(0 0 0.00139069)
(0 0 0.00138372)
(0 0 0.00137654)
(0 0 0.00136916)
(0 0 0.00136158)
(0 0 0.0013538)
(0 0 0.00134582)
(0 0 0.00133765)
(0 0 0.00132929)
(0 0 0.00132074)
(0 0 0.00131201)
(0 0 0.0013031)
(0 0 0.001294)
(0 0 0.00128473)
(0 0 0.00127529)
(0 0 0.00126567)
(0 0 0.00125589)
(0 0 0.00124594)
(0 0 0.00123583)
(0 0 0.00122556)
(0 0 0.00121513)
(0 0 0.00120455)
(0 0 0.00119381)
(0 0 0.00118293)
(0 0 0.0011719)
(0 0 0.00116073)
(0 0 0.00114942)
(0 0 0.00113797)
(0 0 0.00112638)
(0 0 0.00111466)
(0 0 0.00110281)
(0 0 0.00109084)
(0 0 0.00107874)
(0 0 0.00106651)
(0 0 0.00105417)
(0 0 0.00104171)
(0 0 0.00102914)
(0 0 0.00101646)
(0 0 0.00100367)
(0 0 0.000990767)
(0 0 0.000977765)
(0 0 0.000964661)
(0 0 0.000951458)
(0 0 0.000938159)
(0 0 0.000924766)
(0 0 0.000911282)
(0 0 0.000897708)
(0 0 0.000884048)
(0 0 0.000870303)
(0 0 0.000856476)
(0 0 0.00084257)
(0 0 0.000828585)
(0 0 0.000814526)
(0 0 0.000800393)
(0 0 0.000786189)
(0 0 0.000771916)
(0 0 0.000757576)
(0 0 0.000743172)
(0 0 0.000728705)
(0 0 0.000714177)
(0 0 0.00069959)
(0 0 0.000684947)
(0 0 0.000670249)
(0 0 0.000655497)
(0 0 0.000640695)
(0 0 0.000625843)
(0 0 0.000610943)
(0 0 0.000595998)
(0 0 0.000581008)
(0 0 0.000565975)
(0 0 0.000550902)
(0 0 0.000535789)
(0 0 0.000520639)
(0 0 0.000505452)
(0 0 0.00049023)
(0 0 0.000474975)
(0 0 0.000459688)
(0 0 0.00044437)
(0 0 0.000429023)
(0 0 0.000413648)
(0 0 0.000398247)
(0 0 0.00038282)
(0 0 0.00036737)
(0 0 0.000351896)
(0 0 0.000336401)
(0 0 0.000320885)
(0 0 0.00030535)
(0 0 0.000289797)
(0 0 0.000274227)
(0 0 0.00025864)
(0 0 0.000243038)
(0 0 0.000227422)
(0 0 0.000211794)
(0 0 0.000196153)
(0 0 0.000180501)
(0 0 0.000164838)
(0 0 0.000149167)
(0 0 0.000133487)
(0 0 0.0001178)
(0 0 0.000102107)
(0 0 8.64073e-05)
(0 0 7.07033e-05)
(0 0 5.49955e-05)
(0 0 3.92846e-05)
(0 0 2.35716e-05)
(0 0 7.85734e-06)
(0 0 2.62993e-05)
(0 0 7.88963e-05)
(0 0 0.000131489)
(0 0 0.000184073)
(0 0 0.000236646)
(0 0 0.000289205)
(0 0 0.000341747)
(0 0 0.000394268)
(0 0 0.000446764)
(0 0 0.000499233)
(0 0 0.000551671)
(0 0 0.000604075)
(0 0 0.00065644)
(0 0 0.000708763)
(0 0 0.000761041)
(0 0 0.000813269)
(0 0 0.000865443)
(0 0 0.000917559)
(0 0 0.000969613)
(0 0 0.0010216)
(0 0 0.00107352)
(0 0 0.00112536)
(0 0 0.00117712)
(0 0 0.00122879)
(0 0 0.00128037)
(0 0 0.00133186)
(0 0 0.00138325)
(0 0 0.00143452)
(0 0 0.00148569)
(0 0 0.00153673)
(0 0 0.00158765)
(0 0 0.00163844)
(0 0 0.00168909)
(0 0 0.00173959)
(0 0 0.00178994)
(0 0 0.00184013)
(0 0 0.00189015)
(0 0 0.00194)
(0 0 0.00198966)
(0 0 0.00203914)
(0 0 0.00208841)
(0 0 0.00213748)
(0 0 0.00218633)
(0 0 0.00223495)
(0 0 0.00228334)
(0 0 0.00233149)
(0 0 0.00237938)
(0 0 0.00242701)
(0 0 0.00247436)
(0 0 0.00252144)
(0 0 0.00256822)
(0 0 0.00261469)
(0 0 0.00266085)
(0 0 0.00270669)
(0 0 0.00275219)
(0 0 0.00279734)
(0 0 0.00284214)
(0 0 0.00288657)
(0 0 0.00293061)
(0 0 0.00297426)
(0 0 0.00301751)
(0 0 0.00306035)
(0 0 0.00310275)
(0 0 0.00314472)
(0 0 0.00318623)
(0 0 0.00322728)
(0 0 0.00326786)
(0 0 0.00330795)
(0 0 0.00334754)
(0 0 0.00338662)
(0 0 0.00342518)
(0 0 0.0034632)
(0 0 0.00350068)
(0 0 0.00353759)
(0 0 0.00357394)
(0 0 0.00360971)
(0 0 0.00364488)
(0 0 0.00367945)
(0 0 0.00371341)
(0 0 0.00374673)
(0 0 0.00377943)
(0 0 0.00381147)
(0 0 0.00384286)
(0 0 0.00387357)
(0 0 0.00390361)
(0 0 0.00393297)
(0 0 0.00396162)
(0 0 0.00398957)
(0 0 0.00401681)
(0 0 0.00404332)
(0 0 0.0040691)
(0 0 0.00409414)
(0 0 0.00411843)
(0 0 0.00414196)
(0 0 0.00416474)
(0 0 0.00418674)
(0 0 0.00420797)
(0 0 0.00422843)
(0 0 0.00424809)
(0 0 0.00426696)
(0 0 0.00428504)
(0 0 0.00430232)
(0 0 0.00431879)
(0 0 0.00433445)
(0 0 0.0043493)
(0 0 0.00436334)
(0 0 0.00437656)
(0 0 0.00438897)
(0 0 0.00440055)
(0 0 0.00441131)
(0 0 0.00442124)
(0 0 0.00443036)
(0 0 0.00443865)
(0 0 0.00444611)
(0 0 0.00445276)
(0 0 0.00445858)
(0 0 0.00446358)
(0 0 0.00446776)
(0 0 0.00447112)
(0 0 0.00447367)
(0 0 0.0044754)
(0 0 0.00447632)
(0 0 0.00447644)
(0 0 0.00447575)
(0 0 0.00447427)
(0 0 0.00447198)
(0 0 0.00446891)
(0 0 0.00446505)
(0 0 0.00446041)
(0 0 0.00445498)
(0 0 0.00444879)
(0 0 0.00444183)
(0 0 0.00443411)
(0 0 0.00442563)
(0 0 0.0044164)
(0 0 0.00440643)
(0 0 0.00439572)
(0 0 0.00438428)
(0 0 0.00437212)
(0 0 0.00435924)
(0 0 0.00434565)
(0 0 0.00433136)
(0 0 0.00431637)
(0 0 0.00430069)
(0 0 0.00428433)
(0 0 0.0042673)
(0 0 0.0042496)
(0 0 0.00423124)
(0 0 0.00421223)
(0 0 0.00419257)
(0 0 0.00417228)
(0 0 0.00415137)
(0 0 0.00412983)
(0 0 0.00410768)
(0 0 0.00408493)
(0 0 0.00406159)
(0 0 0.00403765)
(0 0 0.00401314)
(0 0 0.00398806)
(0 0 0.00396241)
(0 0 0.00393621)
(0 0 0.00390947)
(0 0 0.00388218)
(0 0 0.00385437)
(0 0 0.00382604)
(0 0 0.00379719)
(0 0 0.00376784)
(0 0 0.00373799)
(0 0 0.00370765)
(0 0 0.00367684)
(0 0 0.00364555)
(0 0 0.0036138)
(0 0 0.00358159)
(0 0 0.00354894)
(0 0 0.00351585)
(0 0 0.00348233)
(0 0 0.00344839)
(0 0 0.00341403)
(0 0 0.00337927)
(0 0 0.00334411)
(0 0 0.00330857)
(0 0 0.00327264)
(0 0 0.00323633)
(0 0 0.00319966)
(0 0 0.00316264)
(0 0 0.00312526)
(0 0 0.00308754)
(0 0 0.00304949)
(0 0 0.00301111)
(0 0 0.00297241)
(0 0 0.0029334)
(0 0 0.00289408)
(0 0 0.00285447)
(0 0 0.00281457)
(0 0 0.00277439)
(0 0 0.00273394)
(0 0 0.00269321)
(0 0 0.00265223)
(0 0 0.00261099)
(0 0 0.00256951)
(0 0 0.00252779)
(0 0 0.00248583)
(0 0 0.00244365)
(0 0 0.00240125)
(0 0 0.00235864)
(0 0 0.00231582)
(0 0 0.0022728)
(0 0 0.00222958)
(0 0 0.00218618)
(0 0 0.00214259)
(0 0 0.00209883)
(0 0 0.0020549)
(0 0 0.0020108)
(0 0 0.00196655)
(0 0 0.00192214)
(0 0 0.00187758)
(0 0 0.00183288)
(0 0 0.00178804)
(0 0 0.00174307)
(0 0 0.00169797)
(0 0 0.00165275)
(0 0 0.00160741)
(0 0 0.00156195)
(0 0 0.00151639)
(0 0 0.00147072)
(0 0 0.00142496)
(0 0 0.00137909)
(0 0 0.00133314)
(0 0 0.0012871)
(0 0 0.00124097)
(0 0 0.00119477)
(0 0 0.00114849)
(0 0 0.00110213)
(0 0 0.00105571)
(0 0 0.00100923)
(0 0 0.000962677)
(0 0 0.000916071)
(0 0 0.00086941)
(0 0 0.000822697)
(0 0 0.000775936)
(0 0 0.00072913)
(0 0 0.000682281)
(0 0 0.000635394)
(0 0 0.00058847)
(0 0 0.000541513)
(0 0 0.000494525)
(0 0 0.00044751)
(0 0 0.00040047)
(0 0 0.000353408)
(0 0 0.000306326)
(0 0 0.000259227)
(0 0 0.000212114)
(0 0 0.00016499)
(0 0 0.000117856)
(0 0 7.07162e-05)
(0 0 2.35725e-05)
(0 0 4.38339e-05)
(0 0 0.000131499)
(0 0 0.000219156)
(0 0 0.0003068)
(0 0 0.000394426)
(0 0 0.000482028)
(0 0 0.000569601)
(0 0 0.000657139)
(0 0 0.000744638)
(0 0 0.00083209)
(0 0 0.00091949)
(0 0 0.00100683)
(0 0 0.00109411)
(0 0 0.00118132)
(0 0 0.00126846)
(0 0 0.00135551)
(0 0 0.00144247)
(0 0 0.00152933)
(0 0 0.0016161)
(0 0 0.00170275)
(0 0 0.00178928)
(0 0 0.00187568)
(0 0 0.00196196)
(0 0 0.00204809)
(0 0 0.00213406)
(0 0 0.00221988)
(0 0 0.00230553)
(0 0 0.002391)
(0 0 0.00247628)
(0 0 0.00256136)
(0 0 0.00264623)
(0 0 0.00273089)
(0 0 0.00281531)
(0 0 0.00289949)
(0 0 0.00298341)
(0 0 0.00306707)
(0 0 0.00315045)
(0 0 0.00323353)
(0 0 0.00331632)
(0 0 0.00339878)
(0 0 0.00348092)
(0 0 0.0035627)
(0 0 0.00364413)
(0 0 0.00372518)
(0 0 0.00380584)
(0 0 0.00388609)
(0 0 0.00396592)
(0 0 0.00404531)
(0 0 0.00412425)
(0 0 0.00420272)
(0 0 0.0042807)
(0 0 0.00435817)
(0 0 0.00443512)
(0 0 0.00451152)
(0 0 0.00458737)
(0 0 0.00466264)
(0 0 0.00473731)
(0 0 0.00481137)
(0 0 0.00488479)
(0 0 0.00495755)
(0 0 0.00502965)
(0 0 0.00510105)
(0 0 0.00517174)
(0 0 0.00524169)
(0 0 0.0053109)
(0 0 0.00537933)
(0 0 0.00544697)
(0 0 0.0055138)
(0 0 0.0055798)
(0 0 0.00564495)
(0 0 0.00570922)
(0 0 0.00577261)
(0 0 0.00583508)
(0 0 0.00589662)
(0 0 0.00595721)
(0 0 0.00601684)
(0 0 0.00607547)
(0 0 0.0061331)
(0 0 0.0061897)
(0 0 0.00624526)
(0 0 0.00629976)
(0 0 0.00635318)
(0 0 0.0064055)
(0 0 0.00645671)
(0 0 0.00650679)
(0 0 0.00655572)
(0 0 0.00660349)
(0 0 0.00665008)
(0 0 0.00669548)
(0 0 0.00673968)
(0 0 0.00678265)
(0 0 0.00682439)
(0 0 0.00686488)
(0 0 0.00690412)
(0 0 0.00694208)
(0 0 0.00697877)
(0 0 0.00701416)
(0 0 0.00704825)
(0 0 0.00708103)
(0 0 0.00711249)
(0 0 0.00714262)
(0 0 0.00717142)
(0 0 0.00719888)
(0 0 0.00722499)
(0 0 0.00724975)
(0 0 0.00727314)
(0 0 0.00729518)
(0 0 0.00731585)
(0 0 0.00733516)
(0 0 0.00735309)
(0 0 0.00736965)
(0 0 0.00738484)
(0 0 0.00739866)
(0 0 0.0074111)
(0 0 0.00742217)
(0 0 0.00743187)
(0 0 0.0074402)
(0 0 0.00744717)
(0 0 0.00745277)
(0 0 0.00745701)
(0 0 0.0074599)
(0 0 0.00746144)
(0 0 0.00746163)
(0 0 0.00746048)
(0 0 0.007458)
(0 0 0.00745419)
(0 0 0.00744906)
(0 0 0.00744262)
(0 0 0.00743487)
(0 0 0.00742583)
(0 0 0.0074155)
(0 0 0.00740389)
(0 0 0.00739102)
(0 0 0.00737688)
(0 0 0.00736149)
(0 0 0.00734487)
(0 0 0.00732702)
(0 0 0.00730794)
(0 0 0.00728767)
(0 0 0.00726619)
(0 0 0.00724353)
(0 0 0.0072197)
(0 0 0.00719471)
(0 0 0.00716857)
(0 0 0.0071413)
(0 0 0.0071129)
(0 0 0.00708339)
(0 0 0.00705278)
(0 0 0.00702109)
(0 0 0.00698833)
(0 0 0.0069545)
(0 0 0.00691964)
(0 0 0.00688373)
(0 0 0.00684681)
(0 0 0.00680889)
(0 0 0.00676997)
(0 0 0.00673007)
(0 0 0.00668921)
(0 0 0.00664739)
(0 0 0.00660464)
(0 0 0.00656096)
(0 0 0.00651638)
(0 0 0.00647089)
(0 0 0.00642453)
(0 0 0.0063773)
(0 0 0.00632921)
(0 0 0.00628028)
(0 0 0.00623052)
(0 0 0.00617995)
(0 0 0.00612859)
(0 0 0.00607643)
(0 0 0.0060235)
(0 0 0.00596982)
(0 0 0.00591539)
(0 0 0.00586023)
(0 0 0.00580436)
(0 0 0.00574778)
(0 0 0.00569051)
(0 0 0.00563256)
(0 0 0.00557396)
(0 0 0.0055147)
(0 0 0.00545481)
(0 0 0.00539429)
(0 0 0.00533317)
(0 0 0.00527145)
(0 0 0.00520914)
(0 0 0.00514627)
(0 0 0.00508284)
(0 0 0.00501887)
(0 0 0.00495436)
(0 0 0.00488933)
(0 0 0.0048238)
(0 0 0.00475778)
(0 0 0.00469127)
(0 0 0.00462429)
(0 0 0.00455686)
(0 0 0.00448898)
(0 0 0.00442067)
(0 0 0.00435193)
(0 0 0.00428279)
(0 0 0.00421324)
(0 0 0.00414331)
(0 0 0.004073)
(0 0 0.00400232)
(0 0 0.00393129)
(0 0 0.00385992)
(0 0 0.00378821)
(0 0 0.00371618)
(0 0 0.00364383)
(0 0 0.00357118)
(0 0 0.00349824)
(0 0 0.00342501)
(0 0 0.00335151)
(0 0 0.00327775)
(0 0 0.00320373)
(0 0 0.00312946)
(0 0 0.00305495)
(0 0 0.00298021)
(0 0 0.00290526)
(0 0 0.00283009)
(0 0 0.00275471)
(0 0 0.00267914)
(0 0 0.00260338)
(0 0 0.00252744)
(0 0 0.00245132)
(0 0 0.00237504)
(0 0 0.00229859)
(0 0 0.002222)
(0 0 0.00214526)
(0 0 0.00206838)
(0 0 0.00199136)
(0 0 0.00191423)
(0 0 0.00183697)
(0 0 0.00175959)
(0 0 0.00168211)
(0 0 0.00160453)
(0 0 0.00152685)
(0 0 0.00144907)
(0 0 0.00137122)
(0 0 0.00129328)
(0 0 0.00121526)
(0 0 0.00113718)
(0 0 0.00105903)
(0 0 0.00098082)
(0 0 0.000902555)
(0 0 0.00082424)
(0 0 0.000745878)
(0 0 0.000667475)
(0 0 0.000589034)
(0 0 0.000510562)
(0 0 0.000432061)
(0 0 0.000353536)
(0 0 0.000274993)
(0 0 0.000196434)
(0 0 0.000117865)
(0 0 3.92889e-05)
(0 0 6.13711e-05)
(0 0 0.00018411)
(0 0 0.000306837)
(0 0 0.000429547)
(0 0 0.00055223)
(0 0 0.000674881)
(0 0 0.00079749)
(0 0 0.000920052)
(0 0 0.00104256)
(0 0 0.001165)
(0 0 0.00128737)
(0 0 0.00140966)
(0 0 0.00153186)
(0 0 0.00165396)
(0 0 0.00177595)
(0 0 0.00189784)
(0 0 0.00201959)
(0 0 0.00214121)
(0 0 0.00226269)
(0 0 0.00238401)
(0 0 0.00250517)
(0 0 0.00262615)
(0 0 0.00274694)
(0 0 0.00286753)
(0 0 0.00298791)
(0 0 0.00310807)
(0 0 0.00322799)
(0 0 0.00334766)
(0 0 0.00346707)
(0 0 0.0035862)
(0 0 0.00370504)
(0 0 0.00382356)
(0 0 0.00394177)
(0 0 0.00405964)
(0 0 0.00417715)
(0 0 0.00429429)
(0 0 0.00441104)
(0 0 0.00452738)
(0 0 0.00464329)
(0 0 0.00475876)
(0 0 0.00487377)
(0 0 0.00498829)
(0 0 0.00510231)
(0 0 0.0052158)
(0 0 0.00532874)
(0 0 0.00544112)
(0 0 0.0055529)
(0 0 0.00566408)
(0 0 0.00577461)
(0 0 0.00588449)
(0 0 0.00599368)
(0 0 0.00610217)
(0 0 0.00620992)
(0 0 0.00631692)
(0 0 0.00642313)
(0 0 0.00652853)
(0 0 0.0066331)
(0 0 0.0067368)
(0 0 0.00683962)
(0 0 0.00694152)
(0 0 0.00704248)
(0 0 0.00714247)
(0 0 0.00724146)
(0 0 0.00733943)
(0 0 0.00743634)
(0 0 0.00753218)
(0 0 0.0076269)
(0 0 0.00772049)
(0 0 0.00781291)
(0 0 0.00790415)
(0 0 0.00799416)
(0 0 0.00808292)
(0 0 0.00817041)
(0 0 0.0082566)
(0 0 0.00834146)
(0 0 0.00842496)
(0 0 0.00850707)
(0 0 0.00858778)
(0 0 0.00866705)
(0 0 0.00874486)
(0 0 0.00882118)
(0 0 0.00889599)
(0 0 0.00896926)
(0 0 0.00904098)
(0 0 0.00911111)
(0 0 0.00917964)
(0 0 0.00924653)
(0 0 0.00931178)
(0 0 0.00937536)
(0 0 0.00943726)
(0 0 0.00949744)
(0 0 0.00955589)
(0 0 0.0096126)
(0 0 0.00966754)
(0 0 0.00972071)
(0 0 0.00977208)
(0 0 0.00982164)
(0 0 0.00986938)
(0 0 0.00991529)
(0 0 0.00995934)
(0 0 0.0100015)
(0 0 0.0100419)
(0 0 0.0100803)
(0 0 0.0101169)
(0 0 0.0101515)
(0 0 0.0101843)
(0 0 0.0102152)
(0 0 0.0102441)
(0 0 0.0102711)
(0 0 0.0102963)
(0 0 0.0103194)
(0 0 0.0103407)
(0 0 0.01036)
(0 0 0.0103775)
(0 0 0.010393)
(0 0 0.0104065)
(0 0 0.0104182)
(0 0 0.0104279)
(0 0 0.0104358)
(0 0 0.0104417)
(0 0 0.0104457)
(0 0 0.0104479)
(0 0 0.0104482)
(0 0 0.0104465)
(0 0 0.0104431)
(0 0 0.0104377)
(0 0 0.0104305)
(0 0 0.0104215)
(0 0 0.0104106)
(0 0 0.010398)
(0 0 0.0103835)
(0 0 0.0103672)
(0 0 0.0103492)
(0 0 0.0103294)
(0 0 0.0103078)
(0 0 0.0102845)
(0 0 0.0102595)
(0 0 0.0102328)
(0 0 0.0102044)
(0 0 0.0101743)
(0 0 0.0101426)
(0 0 0.0101092)
(0 0 0.0100742)
(0 0 0.0100376)
(0 0 0.00999939)
(0 0 0.00995962)
(0 0 0.00991829)
(0 0 0.00987542)
(0 0 0.00983103)
(0 0 0.00978514)
(0 0 0.00973777)
(0 0 0.00968894)
(0 0 0.00963865)
(0 0 0.00958695)
(0 0 0.00953383)
(0 0 0.00947932)
(0 0 0.00942345)
(0 0 0.00936622)
(0 0 0.00930766)
(0 0 0.00924779)
(0 0 0.00918662)
(0 0 0.00912418)
(0 0 0.00906049)
(0 0 0.00899556)
(0 0 0.00892941)
(0 0 0.00886207)
(0 0 0.00879355)
(0 0 0.00872387)
(0 0 0.00865306)
(0 0 0.00858112)
(0 0 0.00850808)
(0 0 0.00843397)
(0 0 0.00835879)
(0 0 0.00828257)
(0 0 0.00820533)
(0 0 0.00812708)
(0 0 0.00804785)
(0 0 0.00796766)
(0 0 0.00788652)
(0 0 0.00780445)
(0 0 0.00772147)
(0 0 0.0076376)
(0 0 0.00755286)
(0 0 0.00746727)
(0 0 0.00738084)
(0 0 0.0072936)
(0 0 0.00720556)
(0 0 0.00711674)
(0 0 0.00702716)
(0 0 0.00693683)
(0 0 0.00684578)
(0 0 0.00675402)
(0 0 0.00666156)
(0 0 0.00656844)
(0 0 0.00647465)
(0 0 0.00638023)
(0 0 0.00628518)
(0 0 0.00618952)
(0 0 0.00609328)
(0 0 0.00599646)
(0 0 0.00589908)
(0 0 0.00580116)
(0 0 0.00570271)
(0 0 0.00560375)
(0 0 0.00550429)
(0 0 0.00540435)
(0 0 0.00530395)
(0 0 0.00520309)
(0 0 0.00510179)
(0 0 0.00500007)
(0 0 0.00489793)
(0 0 0.0047954)
(0 0 0.00469249)
(0 0 0.0045892)
(0 0 0.00448556)
(0 0 0.00438157)
(0 0 0.00427725)
(0 0 0.00417261)
(0 0 0.00406766)
(0 0 0.00396241)
(0 0 0.00385687)
(0 0 0.00375106)
(0 0 0.00364498)
(0 0 0.00353865)
(0 0 0.00343208)
(0 0 0.00332527)
(0 0 0.00321824)
(0 0 0.003111)
(0 0 0.00300356)
(0 0 0.00289591)
(0 0 0.00278809)
(0 0 0.00268008)
(0 0 0.00257191)
(0 0 0.00246358)
(0 0 0.0023551)
(0 0 0.00224647)
(0 0 0.00213771)
(0 0 0.00202882)
(0 0 0.00191981)
(0 0 0.00181069)
(0 0 0.00170147)
(0 0 0.00159214)
(0 0 0.00148273)
(0 0 0.00137323)
(0 0 0.00126365)
(0 0 0.001154)
(0 0 0.00104429)
(0 0 0.000934516)
(0 0 0.000824693)
(0 0 0.000714825)
(0 0 0.000604918)
(0 0 0.000494978)
(0 0 0.000385011)
(0 0 0.000275022)
(0 0 0.000165019)
(0 0 5.50074e-05)
(0 0 7.89121e-05)
(0 0 0.000236731)
(0 0 0.000394537)
(0 0 0.000552318)
(0 0 0.000710067)
(0 0 0.000867774)
(0 0 0.00102543)
(0 0 0.00118302)
(0 0 0.00134054)
(0 0 0.00149798)
(0 0 0.00165533)
(0 0 0.00181257)
(0 0 0.0019697)
(0 0 0.0021267)
(0 0 0.00228357)
(0 0 0.00244029)
(0 0 0.00259685)
(0 0 0.00275324)
(0 0 0.00290944)
(0 0 0.00306544)
(0 0 0.00322123)
(0 0 0.0033768)
(0 0 0.00353212)
(0 0 0.00368719)
(0 0 0.00384199)
(0 0 0.0039965)
(0 0 0.00415071)
(0 0 0.00430459)
(0 0 0.00445814)
(0 0 0.00461133)
(0 0 0.00476415)
(0 0 0.00491657)
(0 0 0.00506857)
(0 0 0.00522014)
(0 0 0.00537126)
(0 0 0.0055219)
(0 0 0.00567203)
(0 0 0.00582165)
(0 0 0.00597071)
(0 0 0.00611921)
(0 0 0.0062671)
(0 0 0.00641438)
(0 0 0.00656101)
(0 0 0.00670696)
(0 0 0.00685222)
(0 0 0.00699674)
(0 0 0.0071405)
(0 0 0.00728348)
(0 0 0.00742564)
(0 0 0.00756695)
(0 0 0.00770738)
(0 0 0.00784691)
(0 0 0.00798549)
(0 0 0.0081231)
(0 0 0.0082597)
(0 0 0.00839526)
(0 0 0.00852975)
(0 0 0.00866313)
(0 0 0.00879537)
(0 0 0.00892643)
(0 0 0.00905628)
(0 0 0.00918488)
(0 0 0.00931221)
(0 0 0.00943821)
(0 0 0.00956287)
(0 0 0.00968613)
(0 0 0.00980797)
(0 0 0.00992834)
(0 0 0.0100472)
(0 0 0.0101646)
(0 0 0.0102803)
(0 0 0.0103945)
(0 0 0.0105071)
(0 0 0.0106179)
(0 0 0.0107271)
(0 0 0.0108345)
(0 0 0.0109401)
(0 0 0.0110439)
(0 0 0.0111459)
(0 0 0.0112459)
(0 0 0.0113441)
(0 0 0.0114403)
(0 0 0.0115346)
(0 0 0.0116268)
(0 0 0.011717)
(0 0 0.0118052)
(0 0 0.0118912)
(0 0 0.0119752)
(0 0 0.0120569)
(0 0 0.0121365)
(0 0 0.012214)
(0 0 0.0122891)
(0 0 0.0123621)
(0 0 0.0124327)
(0 0 0.0125011)
(0 0 0.0125672)
(0 0 0.012631)
(0 0 0.0126924)
(0 0 0.0127514)
(0 0 0.0128081)
(0 0 0.0128623)
(0 0 0.0129142)
(0 0 0.0129636)
(0 0 0.0130107)
(0 0 0.0130552)
(0 0 0.0130974)
(0 0 0.0131371)
(0 0 0.0131743)
(0 0 0.013209)
(0 0 0.0132413)
(0 0 0.0132711)
(0 0 0.0132985)
(0 0 0.0133234)
(0 0 0.0133458)
(0 0 0.0133657)
(0 0 0.0133831)
(0 0 0.0133981)
(0 0 0.0134106)
(0 0 0.0134207)
(0 0 0.0134283)
(0 0 0.0134335)
(0 0 0.0134362)
(0 0 0.0134366)
(0 0 0.0134345)
(0 0 0.01343)
(0 0 0.0134231)
(0 0 0.0134138)
(0 0 0.0134022)
(0 0 0.0133882)
(0 0 0.0133719)
(0 0 0.0133533)
(0 0 0.0133323)
(0 0 0.0133091)
(0 0 0.0132836)
(0 0 0.0132559)
(0 0 0.0132259)
(0 0 0.0131937)
(0 0 0.0131594)
(0 0 0.0131228)
(0 0 0.0130841)
(0 0 0.0130433)
(0 0 0.0130003)
(0 0 0.0129553)
(0 0 0.0129082)
(0 0 0.0128591)
(0 0 0.0128079)
(0 0 0.0127547)
(0 0 0.0126996)
(0 0 0.0126425)
(0 0 0.0125834)
(0 0 0.0125225)
(0 0 0.0124597)
(0 0 0.012395)
(0 0 0.0123285)
(0 0 0.0122602)
(0 0 0.01219)
(0 0 0.0121182)
(0 0 0.0120446)
(0 0 0.0119692)
(0 0 0.0118922)
(0 0 0.0118136)
(0 0 0.0117332)
(0 0 0.0116513)
(0 0 0.0115678)
(0 0 0.0114827)
(0 0 0.0113961)
(0 0 0.011308)
(0 0 0.0112184)
(0 0 0.0111273)
(0 0 0.0110348)
(0 0 0.0109408)
(0 0 0.0108455)
(0 0 0.0107488)
(0 0 0.0106508)
(0 0 0.0105514)
(0 0 0.0104508)
(0 0 0.0103489)
(0 0 0.0102458)
(0 0 0.0101414)
(0 0 0.0100358)
(0 0 0.00992913)
(0 0 0.00982127)
(0 0 0.00971228)
(0 0 0.00960221)
(0 0 0.00949105)
(0 0 0.00937885)
(0 0 0.00926563)
(0 0 0.0091514)
(0 0 0.00903619)
(0 0 0.00892003)
(0 0 0.00880293)
(0 0 0.00868492)
(0 0 0.00856602)
(0 0 0.00844626)
(0 0 0.00832565)
(0 0 0.00820422)
(0 0 0.00808198)
(0 0 0.00795897)
(0 0 0.0078352)
(0 0 0.00771069)
(0 0 0.00758546)
(0 0 0.00745953)
(0 0 0.00733293)
(0 0 0.00720567)
(0 0 0.00707777)
(0 0 0.00694925)
(0 0 0.00682013)
(0 0 0.00669043)
(0 0 0.00656017)
(0 0 0.00642936)
(0 0 0.00629802)
(0 0 0.00616618)
(0 0 0.00603384)
(0 0 0.00590102)
(0 0 0.00576774)
(0 0 0.00563402)
(0 0 0.00549987)
(0 0 0.00536531)
(0 0 0.00523035)
(0 0 0.00509501)
(0 0 0.0049593)
(0 0 0.00482324)
(0 0 0.00468684)
(0 0 0.00455011)
(0 0 0.00441307)
(0 0 0.00427573)
(0 0 0.00413811)
(0 0 0.00400021)
(0 0 0.00386205)
(0 0 0.00372364)
(0 0 0.00358499)
(0 0 0.00344611)
(0 0 0.00330702)
(0 0 0.00316772)
(0 0 0.00302823)
(0 0 0.00288855)
(0 0 0.0027487)
(0 0 0.00260869)
(0 0 0.00246853)
(0 0 0.00232821)
(0 0 0.00218777)
(0 0 0.0020472)
(0 0 0.00190651)
(0 0 0.00176571)
(0 0 0.00162481)
(0 0 0.00148382)
(0 0 0.00134275)
(0 0 0.00120161)
(0 0 0.0010604)
(0 0 0.000919128)
(0 0 0.000777809)
(0 0 0.000636446)
(0 0 0.00049505)
(0 0 0.000353626)
(0 0 0.000212183)
(0 0 7.0729e-05)
(0 0 9.64577e-05)
(0 0 0.000289367)
(0 0 0.00048226)
(0 0 0.000675124)
(0 0 0.000867947)
(0 0 0.00106072)
(0 0 0.00125343)
(0 0 0.00144606)
(0 0 0.00163861)
(0 0 0.00183105)
(0 0 0.00202339)
(0 0 0.00221559)
(0 0 0.00240766)
(0 0 0.00259958)
(0 0 0.00279133)
(0 0 0.0029829)
(0 0 0.00317428)
(0 0 0.00336545)
(0 0 0.00355639)
(0 0 0.00374709)
(0 0 0.00393753)
(0 0 0.00412769)
(0 0 0.00431756)
(0 0 0.00450712)
(0 0 0.00469635)
(0 0 0.00488523)
(0 0 0.00507374)
(0 0 0.00526186)
(0 0 0.00544957)
(0 0 0.00563684)
(0 0 0.00582365)
(0 0 0.00600999)
(0 0 0.00619581)
(0 0 0.00638111)
(0 0 0.00656585)
(0 0 0.00675001)
(0 0 0.00693355)
(0 0 0.00711646)
(0 0 0.0072987)
(0 0 0.00748025)
(0 0 0.00766106)
(0 0 0.00784112)
(0 0 0.00802039)
(0 0 0.00819883)
(0 0 0.00837642)
(0 0 0.00855312)
(0 0 0.00872889)
(0 0 0.0089037)
(0 0 0.00907751)
(0 0 0.00925029)
(0 0 0.00942199)
(0 0 0.00959258)
(0 0 0.00976203)
(0 0 0.00993028)
(0 0 0.0100973)
(0 0 0.0102631)
(0 0 0.0104275)
(0 0 0.0105906)
(0 0 0.0107523)
(0 0 0.0109126)
(0 0 0.0110713)
(0 0 0.0112286)
(0 0 0.0113843)
(0 0 0.0115384)
(0 0 0.0116908)
(0 0 0.0118415)
(0 0 0.0119905)
(0 0 0.0121377)
(0 0 0.0122831)
(0 0 0.0124266)
(0 0 0.0125681)
(0 0 0.0127078)
(0 0 0.0128454)
(0 0 0.0129809)
(0 0 0.0131144)
(0 0 0.0132457)
(0 0 0.0133749)
(0 0 0.0135019)
(0 0 0.0136265)
(0 0 0.0137489)
(0 0 0.013869)
(0 0 0.0139867)
(0 0 0.0141019)
(0 0 0.0142147)
(0 0 0.014325)
(0 0 0.0144328)
(0 0 0.014538)
(0 0 0.0146407)
(0 0 0.0147407)
(0 0 0.014838)
(0 0 0.0149327)
(0 0 0.0150246)
(0 0 0.0151138)
(0 0 0.0152002)
(0 0 0.0152839)
(0 0 0.0153647)
(0 0 0.0154426)
(0 0 0.0155177)
(0 0 0.0155899)
(0 0 0.0156592)
(0 0 0.0157255)
(0 0 0.0157889)
(0 0 0.0158494)
(0 0 0.0159069)
(0 0 0.0159614)
(0 0 0.0160129)
(0 0 0.0160614)
(0 0 0.0161069)
(0 0 0.0161494)
(0 0 0.0161889)
(0 0 0.0162253)
(0 0 0.0162588)
(0 0 0.0162891)
(0 0 0.0163165)
(0 0 0.0163409)
(0 0 0.0163622)
(0 0 0.0163805)
(0 0 0.0163958)
(0 0 0.0164081)
(0 0 0.0164174)
(0 0 0.0164237)
(0 0 0.016427)
(0 0 0.0164274)
(0 0 0.0164248)
(0 0 0.0164193)
(0 0 0.0164108)
(0 0 0.0163995)
(0 0 0.0163852)
(0 0 0.0163681)
(0 0 0.0163482)
(0 0 0.0163254)
(0 0 0.0162997)
(0 0 0.0162713)
(0 0 0.0162401)
(0 0 0.0162062)
(0 0 0.0161695)
(0 0 0.0161302)
(0 0 0.0160881)
(0 0 0.0160434)
(0 0 0.015996)
(0 0 0.0159461)
(0 0 0.0158936)
(0 0 0.0158385)
(0 0 0.0157809)
(0 0 0.0157207)
(0 0 0.0156582)
(0 0 0.0155931)
(0 0 0.0155257)
(0 0 0.0154558)
(0 0 0.0153836)
(0 0 0.0153091)
(0 0 0.0152323)
(0 0 0.0151532)
(0 0 0.0150718)
(0 0 0.0149883)
(0 0 0.0149025)
(0 0 0.0148146)
(0 0 0.0147246)
(0 0 0.0146325)
(0 0 0.0145383)
(0 0 0.0144421)
(0 0 0.0143439)
(0 0 0.0142437)
(0 0 0.0141416)
(0 0 0.0140376)
(0 0 0.0139317)
(0 0 0.0138239)
(0 0 0.0137143)
(0 0 0.0136029)
(0 0 0.0134898)
(0 0 0.0133749)
(0 0 0.0132584)
(0 0 0.0131402)
(0 0 0.0130203)
(0 0 0.0128988)
(0 0 0.0127758)
(0 0 0.0126512)
(0 0 0.0125251)
(0 0 0.0123975)
(0 0 0.0122684)
(0 0 0.0121379)
(0 0 0.0120061)
(0 0 0.0118728)
(0 0 0.0117382)
(0 0 0.0116023)
(0 0 0.0114651)
(0 0 0.0113267)
(0 0 0.011187)
(0 0 0.0110462)
(0 0 0.0109042)
(0 0 0.010761)
(0 0 0.0106167)
(0 0 0.0104713)
(0 0 0.0103249)
(0 0 0.0101775)
(0 0 0.010029)
(0 0 0.00987957)
(0 0 0.00972918)
(0 0 0.00957786)
(0 0 0.00942564)
(0 0 0.00927254)
(0 0 0.00911859)
(0 0 0.00896381)
(0 0 0.00880823)
(0 0 0.00865187)
(0 0 0.00849475)
(0 0 0.0083369)
(0 0 0.00817834)
(0 0 0.0080191)
(0 0 0.00785918)
(0 0 0.00769862)
(0 0 0.00753744)
(0 0 0.00737566)
(0 0 0.00721329)
(0 0 0.00705037)
(0 0 0.0068869)
(0 0 0.00672291)
(0 0 0.00655841)
(0 0 0.00639343)
(0 0 0.00622799)
(0 0 0.00606209)
(0 0 0.00589577)
(0 0 0.00572902)
(0 0 0.00556189)
(0 0 0.00539437)
(0 0 0.00522648)
(0 0 0.00505825)
(0 0 0.00488968)
(0 0 0.00472079)
(0 0 0.0045516)
(0 0 0.00438211)
(0 0 0.00421235)
(0 0 0.00404233)
(0 0 0.00387205)
(0 0 0.00370154)
(0 0 0.00353081)
(0 0 0.00335986)
(0 0 0.00318871)
(0 0 0.00301738)
(0 0 0.00284587)
(0 0 0.0026742)
(0 0 0.00250237)
(0 0 0.0023304)
(0 0 0.00215829)
(0 0 0.00198607)
(0 0 0.00181373)
(0 0 0.0016413)
(0 0 0.00146877)
(0 0 0.00129616)
(0 0 0.00112348)
(0 0 0.000950741)
(0 0 0.00077795)
(0 0 0.000605115)
(0 0 0.000432248)
(0 0 0.000259358)
(0 0 8.64543e-05)
(0 0 0.000114009)
(0 0 0.00034202)
(0 0 0.000570011)
(0 0 0.000797969)
(0 0 0.00102588)
(0 0 0.00125373)
(0 0 0.0014815)
(0 0 0.00170919)
(0 0 0.00193677)
(0 0 0.00216424)
(0 0 0.00239157)
(0 0 0.00261876)
(0 0 0.00284578)
(0 0 0.00307263)
(0 0 0.00329928)
(0 0 0.00352571)
(0 0 0.00375192)
(0 0 0.00397788)
(0 0 0.00420358)
(0 0 0.00442899)
(0 0 0.0046541)
(0 0 0.00487888)
(0 0 0.00510332)
(0 0 0.00532739)
(0 0 0.00555107)
(0 0 0.00577434)
(0 0 0.00599717)
(0 0 0.00621954)
(0 0 0.00644143)
(0 0 0.00666281)
(0 0 0.00688364)
(0 0 0.00710391)
(0 0 0.00732358)
(0 0 0.00754263)
(0 0 0.00776102)
(0 0 0.00797873)
(0 0 0.00819572)
(0 0 0.00841195)
(0 0 0.00862739)
(0 0 0.00884202)
(0 0 0.00905579)
(0 0 0.00926866)
(0 0 0.0094806)
(0 0 0.00969156)
(0 0 0.00990152)
(0 0 0.0101104)
(0 0 0.0103182)
(0 0 0.0105249)
(0 0 0.0107304)
(0 0 0.0109347)
(0 0 0.0111377)
(0 0 0.0113394)
(0 0 0.0115398)
(0 0 0.0117387)
(0 0 0.0119362)
(0 0 0.0121322)
(0 0 0.0123266)
(0 0 0.0125195)
(0 0 0.0127107)
(0 0 0.0129002)
(0 0 0.0130879)
(0 0 0.0132739)
(0 0 0.013458)
(0 0 0.0136402)
(0 0 0.0138204)
(0 0 0.0139986)
(0 0 0.0141748)
(0 0 0.0143489)
(0 0 0.0145208)
(0 0 0.0146905)
(0 0 0.0148579)
(0 0 0.015023)
(0 0 0.0151857)
(0 0 0.015346)
(0 0 0.0155039)
(0 0 0.0156592)
(0 0 0.015812)
(0 0 0.0159621)
(0 0 0.0161095)
(0 0 0.0162543)
(0 0 0.0163962)
(0 0 0.0165354)
(0 0 0.0166717)
(0 0 0.0168051)
(0 0 0.0169356)
(0 0 0.017063)
(0 0 0.0171875)
(0 0 0.0173088)
(0 0 0.0174271)
(0 0 0.0175422)
(0 0 0.0176542)
(0 0 0.0177629)
(0 0 0.0178684)
(0 0 0.0179705)
(0 0 0.0180694)
(0 0 0.018165)
(0 0 0.0182571)
(0 0 0.0183459)
(0 0 0.0184313)
(0 0 0.0185132)
(0 0 0.0185917)
(0 0 0.0186666)
(0 0 0.0187381)
(0 0 0.0188061)
(0 0 0.0188705)
(0 0 0.0189314)
(0 0 0.0189888)
(0 0 0.0190426)
(0 0 0.0190928)
(0 0 0.0191395)
(0 0 0.0191825)
(0 0 0.019222)
(0 0 0.019258)
(0 0 0.0192903)
(0 0 0.0193191)
(0 0 0.0193442)
(0 0 0.0193659)
(0 0 0.0193839)
(0 0 0.0193984)
(0 0 0.0194094)
(0 0 0.0194168)
(0 0 0.0194207)
(0 0 0.0194211)
(0 0 0.0194181)
(0 0 0.0194115)
(0 0 0.0194015)
(0 0 0.019388)
(0 0 0.0193712)
(0 0 0.0193509)
(0 0 0.0193273)
(0 0 0.0193003)
(0 0 0.0192699)
(0 0 0.0192363)
(0 0 0.0191994)
(0 0 0.0191592)
(0 0 0.0191158)
(0 0 0.0190693)
(0 0 0.0190195)
(0 0 0.0189666)
(0 0 0.0189106)
(0 0 0.0188515)
(0 0 0.0187893)
(0 0 0.0187242)
(0 0 0.018656)
(0 0 0.0185849)
(0 0 0.0185109)
(0 0 0.018434)
(0 0 0.0183542)
(0 0 0.0182716)
(0 0 0.0181862)
(0 0 0.018098)
(0 0 0.0180072)
(0 0 0.0179136)
(0 0 0.0178174)
(0 0 0.0177186)
(0 0 0.0176172)
(0 0 0.0175132)
(0 0 0.0174068)
(0 0 0.0172978)
(0 0 0.0171865)
(0 0 0.0170727)
(0 0 0.0169566)
(0 0 0.0168381)
(0 0 0.0167173)
(0 0 0.0165943)
(0 0 0.0164691)
(0 0 0.0163416)
(0 0 0.016212)
(0 0 0.0160804)
(0 0 0.0159466)
(0 0 0.0158108)
(0 0 0.0156729)
(0 0 0.0155331)
(0 0 0.0153914)
(0 0 0.0152478)
(0 0 0.0151023)
(0 0 0.014955)
(0 0 0.0148059)
(0 0 0.014655)
(0 0 0.0145024)
(0 0 0.0143481)
(0 0 0.0141922)
(0 0 0.0140347)
(0 0 0.0138755)
(0 0 0.0137149)
(0 0 0.0135527)
(0 0 0.013389)
(0 0 0.0132239)
(0 0 0.0130573)
(0 0 0.0128894)
(0 0 0.0127202)
(0 0 0.0125496)
(0 0 0.0123777)
(0 0 0.0122046)
(0 0 0.0120303)
(0 0 0.0118548)
(0 0 0.0116781)
(0 0 0.0115003)
(0 0 0.0113214)
(0 0 0.0111415)
(0 0 0.0109605)