/*--------------------------------*- C++ -*----------------------------------*\
| =========                 |                                                 |
| \\      /  F ield         | OpenFOAM: The Open Source CFD Toolbox           |
|  \\    /   O peration     | Version:  v2012                                 |
|   \\  /    A nd           | Website:  www.openfoam.com                      |
|    \\/     M anipulation  |                                                 |
\*---------------------------------------------------------------------------*/
FoamFile
{
    version     2.0;
    format      ascii;
    class       volVectorField;
    location    "0.9";
    object      Psi;
}
// * * * * * * * * * * * * * * * * * * * * * * * * * * * * * * * * * * * * * //

dimensions      [0 2 -1 0 0 0 0];


internalField   nonuniform List<vector> 
65536
(
(0 0 8.44146e-06)
(0 0 2.53237e-05)
(0 0 4.22043e-05)
(0 0 5.9082e-05)
(0 0 7.59558e-05)
(0 0 9.28244e-05)
(0 0 0.000109687)
(0 0 0.000126542)
(0 0 0.000143388)
(0 0 0.000160225)
(0 0 0.00017705)
(0 0 0.000193863)
(0 0 0.000210663)
(0 0 0.000227448)
(0 0 0.000244217)
(0 0 0.000260968)
(0 0 0.000277701)
(0 0 0.000294413)
(0 0 0.000311104)
(0 0 0.000327772)
(0 0 0.000344415)
(0 0 0.000361031)
(0 0 0.000377621)
(0 0 0.00039418)
(0 0 0.000410709)
(0 0 0.000427205)
(0 0 0.000443667)
(0 0 0.000460092)
(0 0 0.000476479)
(0 0 0.000492826)
(0 0 0.000509132)
(0 0 0.000525393)
(0 0 0.000541608)
(0 0 0.000557775)
(0 0 0.000573892)
(0 0 0.000589957)
(0 0 0.000605966)
(0 0 0.000621919)
(0 0 0.000637813)
(0 0 0.000653644)
(0 0 0.000669412)
(0 0 0.000685113)
(0 0 0.000700744)
(0 0 0.000716304)
(0 0 0.000731789)
(0 0 0.000747196)
(0 0 0.000762524)
(0 0 0.000777769)
(0 0 0.000792928)
(0 0 0.000807998)
(0 0 0.000822977)
(0 0 0.000837861)
(0 0 0.000852648)
(0 0 0.000867334)
(0 0 0.000881917)
(0 0 0.000896393)
(0 0 0.000910758)
(0 0 0.000925011)
(0 0 0.000939147)
(0 0 0.000953163)
(0 0 0.000967057)
(0 0 0.000980824)
(0 0 0.000994462)
(0 0 0.00100797)
(0 0 0.00102134)
(0 0 0.00103457)
(0 0 0.00104765)
(0 0 0.00106059)
(0 0 0.00107339)
(0 0 0.00108602)
(0 0 0.00109851)
(0 0 0.00111083)
(0 0 0.00112299)
(0 0 0.00113499)
(0 0 0.00114681)
(0 0 0.00115847)
(0 0 0.00116995)
(0 0 0.00118125)
(0 0 0.00119236)
(0 0 0.0012033)
(0 0 0.00121404)
(0 0 0.0012246)
(0 0 0.00123496)
(0 0 0.00124513)
(0 0 0.00125509)
(0 0 0.00126485)
(0 0 0.00127441)
(0 0 0.00128376)
(0 0 0.00129291)
(0 0 0.00130183)
(0 0 0.00131055)
(0 0 0.00131904)
(0 0 0.00132732)
(0 0 0.00133537)
(0 0 0.00134321)
(0 0 0.00135081)
(0 0 0.00135819)
(0 0 0.00136533)
(0 0 0.00137225)
(0 0 0.00137893)
(0 0 0.00138538)
(0 0 0.00139158)
(0 0 0.00139756)
(0 0 0.00140329)
(0 0 0.00140878)
(0 0 0.00141403)
(0 0 0.00141903)
(0 0 0.00142379)
(0 0 0.0014283)
(0 0 0.00143257)
(0 0 0.00143659)
(0 0 0.00144037)
(0 0 0.00144389)
(0 0 0.00144717)
(0 0 0.00145019)
(0 0 0.00145297)
(0 0 0.00145549)
(0 0 0.00145777)
(0 0 0.00145979)
(0 0 0.00146156)
(0 0 0.00146308)
(0 0 0.00146435)
(0 0 0.00146537)
(0 0 0.00146614)
(0 0 0.00146665)
(0 0 0.00146692)
(0 0 0.00146693)
(0 0 0.0014667)
(0 0 0.00146621)
(0 0 0.00146548)
(0 0 0.0014645)
(0 0 0.00146327)
(0 0 0.0014618)
(0 0 0.00146007)
(0 0 0.00145811)
(0 0 0.0014559)
(0 0 0.00145344)
(0 0 0.00145074)
(0 0 0.0014478)
(0 0 0.00144462)
(0 0 0.0014412)
(0 0 0.00143755)
(0 0 0.00143365)
(0 0 0.00142952)
(0 0 0.00142516)
(0 0 0.00142056)
(0 0 0.00141573)
(0 0 0.00141067)
(0 0 0.00140539)
(0 0 0.00139987)
(0 0 0.00139413)
(0 0 0.00138817)
(0 0 0.00138198)
(0 0 0.00137558)
(0 0 0.00136896)
(0 0 0.00136212)
(0 0 0.00135506)
(0 0 0.0013478)
(0 0 0.00134032)
(0 0 0.00133263)
(0 0 0.00132474)
(0 0 0.00131665)
(0 0 0.00130835)
(0 0 0.00129985)
(0 0 0.00129116)
(0 0 0.00128227)
(0 0 0.00127318)
(0 0 0.00126391)
(0 0 0.00125445)
(0 0 0.0012448)
(0 0 0.00123497)
(0 0 0.00122496)
(0 0 0.00121478)
(0 0 0.00120441)
(0 0 0.00119388)
(0 0 0.00118317)
(0 0 0.0011723)
(0 0 0.00116126)
(0 0 0.00115006)
(0 0 0.0011387)
(0 0 0.00112719)
(0 0 0.00111552)
(0 0 0.0011037)
(0 0 0.00109174)
(0 0 0.00107962)
(0 0 0.00106737)
(0 0 0.00105498)
(0 0 0.00104245)
(0 0 0.00102978)
(0 0 0.00101699)
(0 0 0.00100407)
(0 0 0.000991022)
(0 0 0.000977854)
(0 0 0.000964565)
(0 0 0.000951161)
(0 0 0.000937642)
(0 0 0.000924013)
(0 0 0.000910276)
(0 0 0.000896434)
(0 0 0.000882489)
(0 0 0.000868444)
(0 0 0.000854302)
(0 0 0.000840066)
(0 0 0.000825738)
(0 0 0.000811321)
(0 0 0.000796817)
(0 0 0.00078223)
(0 0 0.000767561)
(0 0 0.000752814)
(0 0 0.00073799)
(0 0 0.000723092)
(0 0 0.000708122)
(0 0 0.000693084)
(0 0 0.000677978)
(0 0 0.000662808)
(0 0 0.000647576)
(0 0 0.000632283)
(0 0 0.000616933)
(0 0 0.000601527)
(0 0 0.000586067)
(0 0 0.000570555)
(0 0 0.000554994)
(0 0 0.000539385)
(0 0 0.00052373)
(0 0 0.000508031)
(0 0 0.000492291)
(0 0 0.00047651)
(0 0 0.00046069)
(0 0 0.000444834)
(0 0 0.000428943)
(0 0 0.000413018)
(0 0 0.000397061)
(0 0 0.000381074)
(0 0 0.000365058)
(0 0 0.000349015)
(0 0 0.000332946)
(0 0 0.000316853)
(0 0 0.000300737)
(0 0 0.000284599)
(0 0 0.000268441)
(0 0 0.000252264)
(0 0 0.000236069)
(0 0 0.000219858)
(0 0 0.000203632)
(0 0 0.000187392)
(0 0 0.000171139)
(0 0 0.000154874)
(0 0 0.0001386)
(0 0 0.000122315)
(0 0 0.000106023)
(0 0 8.97236e-05)
(0 0 7.34183e-05)
(0 0 5.71081e-05)
(0 0 4.07942e-05)
(0 0 2.44776e-05)
(0 0 8.15936e-06)
(0 0 2.53248e-05)
(0 0 7.59726e-05)
(0 0 0.000126615)
(0 0 0.000177249)
(0 0 0.000227872)
(0 0 0.000278479)
(0 0 0.000329067)
(0 0 0.000379633)
(0 0 0.000430173)
(0 0 0.000480684)
(0 0 0.000531162)
(0 0 0.000581603)
(0 0 0.000632003)
(0 0 0.000682359)
(0 0 0.000732667)
(0 0 0.000782922)
(0 0 0.000833121)
(0 0 0.000883259)
(0 0 0.000933333)
(0 0 0.000983337)
(0 0 0.00103327)
(0 0 0.00108312)
(0 0 0.00113289)
(0 0 0.00118257)
(0 0 0.00123216)
(0 0 0.00128165)
(0 0 0.00133103)
(0 0 0.00138031)
(0 0 0.00142947)
(0 0 0.00147852)
(0 0 0.00152744)
(0 0 0.00157622)
(0 0 0.00162487)
(0 0 0.00167337)
(0 0 0.00172173)
(0 0 0.00176992)
(0 0 0.00181795)
(0 0 0.00186581)
(0 0 0.0019135)
(0 0 0.00196099)
(0 0 0.0020083)
(0 0 0.0020554)
(0 0 0.0021023)
(0 0 0.00214898)
(0 0 0.00219544)
(0 0 0.00224166)
(0 0 0.00228765)
(0 0 0.00233339)
(0 0 0.00237887)
(0 0 0.00242408)
(0 0 0.00246902)
(0 0 0.00251368)
(0 0 0.00255804)
(0 0 0.0026021)
(0 0 0.00264585)
(0 0 0.00268928)
(0 0 0.00273238)
(0 0 0.00277514)
(0 0 0.00281756)
(0 0 0.00285961)
(0 0 0.00290129)
(0 0 0.0029426)
(0 0 0.00298352)
(0 0 0.00302403)
(0 0 0.00306414)
(0 0 0.00310384)
(0 0 0.0031431)
(0 0 0.00318193)
(0 0 0.00322031)
(0 0 0.00325823)
(0 0 0.00329568)
(0 0 0.00333265)
(0 0 0.00336914)
(0 0 0.00340513)
(0 0 0.00344061)
(0 0 0.00347557)
(0 0 0.00351001)
(0 0 0.00354392)
(0 0 0.00357727)
(0 0 0.00361008)
(0 0 0.00364232)
(0 0 0.00367399)
(0 0 0.00370507)
(0 0 0.00373557)
(0 0 0.00376547)
(0 0 0.00379476)
(0 0 0.00382344)
(0 0 0.0038515)
(0 0 0.00387892)
(0 0 0.00390571)
(0 0 0.00393186)
(0 0 0.00395735)
(0 0 0.00398218)
(0 0 0.00400634)
(0 0 0.00402984)
(0 0 0.00405265)
(0 0 0.00407479)
(0 0 0.00409623)
(0 0 0.00411697)
(0 0 0.00413702)
(0 0 0.00415636)
(0 0 0.00417499)
(0 0 0.0041929)
(0 0 0.0042101)
(0 0 0.00422657)
(0 0 0.00424232)
(0 0 0.00425733)
(0 0 0.00427161)
(0 0 0.00428516)
(0 0 0.00429796)
(0 0 0.00431003)
(0 0 0.00432135)
(0 0 0.00433192)
(0 0 0.00434175)
(0 0 0.00435083)
(0 0 0.00435915)
(0 0 0.00436673)
(0 0 0.00437355)
(0 0 0.00437962)
(0 0 0.00438493)
(0 0 0.00438949)
(0 0 0.0043933)
(0 0 0.00439636)
(0 0 0.00439866)
(0 0 0.0044002)
(0 0 0.004401)
(0 0 0.00440105)
(0 0 0.00440034)
(0 0 0.00439889)
(0 0 0.00439669)
(0 0 0.00439375)
(0 0 0.00439006)
(0 0 0.00438563)
(0 0 0.00438047)
(0 0 0.00437457)
(0 0 0.00436793)
(0 0 0.00436056)
(0 0 0.00435247)
(0 0 0.00434365)
(0 0 0.00433411)
(0 0 0.00432385)
(0 0 0.00431288)
(0 0 0.00430119)
(0 0 0.0042888)
(0 0 0.00427571)
(0 0 0.00426191)
(0 0 0.00424743)
(0 0 0.00423225)
(0 0 0.00421638)
(0 0 0.00419984)
(0 0 0.00418262)
(0 0 0.00416473)
(0 0 0.00414617)
(0 0 0.00412696)
(0 0 0.00410709)
(0 0 0.00408657)
(0 0 0.0040654)
(0 0 0.0040436)
(0 0 0.00402117)
(0 0 0.00399811)
(0 0 0.00397443)
(0 0 0.00395014)
(0 0 0.00392525)
(0 0 0.00389976)
(0 0 0.00387367)
(0 0 0.003847)
(0 0 0.00381975)
(0 0 0.00379192)
(0 0 0.00376354)
(0 0 0.0037346)
(0 0 0.00370511)
(0 0 0.00367507)
(0 0 0.00364451)
(0 0 0.00361341)
(0 0 0.00358181)
(0 0 0.00354969)
(0 0 0.00351706)
(0 0 0.00348395)
(0 0 0.00345035)
(0 0 0.00341627)
(0 0 0.00338172)
(0 0 0.00334672)
(0 0 0.00331126)
(0 0 0.00327536)
(0 0 0.00323902)
(0 0 0.00320225)
(0 0 0.00316507)
(0 0 0.00312748)
(0 0 0.00308949)
(0 0 0.0030511)
(0 0 0.00301234)
(0 0 0.00297319)
(0 0 0.00293368)
(0 0 0.00289382)
(0 0 0.0028536)
(0 0 0.00281304)
(0 0 0.00277215)
(0 0 0.00273094)
(0 0 0.00268941)
(0 0 0.00264757)
(0 0 0.00260543)
(0 0 0.002563)
(0 0 0.00252029)
(0 0 0.00247731)
(0 0 0.00243405)
(0 0 0.00239054)
(0 0 0.00234677)
(0 0 0.00230277)
(0 0 0.00225852)
(0 0 0.00221405)
(0 0 0.00216935)
(0 0 0.00212444)
(0 0 0.00207932)
(0 0 0.002034)
(0 0 0.00198849)
(0 0 0.00194279)
(0 0 0.00189691)
(0 0 0.00185086)
(0 0 0.00180464)
(0 0 0.00175825)
(0 0 0.00171172)
(0 0 0.00166503)
(0 0 0.0016182)
(0 0 0.00157124)
(0 0 0.00152414)
(0 0 0.00147691)
(0 0 0.00142957)
(0 0 0.00138211)
(0 0 0.00133454)
(0 0 0.00128686)
(0 0 0.00123909)
(0 0 0.00119121)
(0 0 0.00114325)
(0 0 0.0010952)
(0 0 0.00104707)
(0 0 0.000998864)
(0 0 0.000950583)
(0 0 0.000902233)
(0 0 0.000853818)
(0 0 0.000805343)
(0 0 0.000756811)
(0 0 0.000708225)
(0 0 0.000659591)
(0 0 0.000610911)
(0 0 0.000562189)
(0 0 0.000513429)
(0 0 0.000464634)
(0 0 0.000415808)
(0 0 0.000366955)
(0 0 0.000318076)
(0 0 0.000269177)
(0 0 0.00022026)
(0 0 0.000171328)
(0 0 0.000122385)
(0 0 7.34344e-05)
(0 0 2.44787e-05)
(0 0 4.22098e-05)
(0 0 0.000126627)
(0 0 0.000211035)
(0 0 0.000295429)
(0 0 0.000379803)
(0 0 0.000464152)
(0 0 0.00054847)
(0 0 0.00063275)
(0 0 0.000716988)
(0 0 0.000801176)
(0 0 0.00088531)
(0 0 0.000969382)
(0 0 0.00105339)
(0 0 0.00113732)
(0 0 0.00122117)
(0 0 0.00130493)
(0 0 0.0013886)
(0 0 0.00147217)
(0 0 0.00155563)
(0 0 0.00163898)
(0 0 0.0017222)
(0 0 0.00180529)
(0 0 0.00188825)
(0 0 0.00197105)
(0 0 0.0020537)
(0 0 0.00213619)
(0 0 0.00221851)
(0 0 0.00230065)
(0 0 0.00238259)
(0 0 0.00246434)
(0 0 0.00254587)
(0 0 0.00262719)
(0 0 0.00270827)
(0 0 0.00278912)
(0 0 0.00286972)
(0 0 0.00295005)
(0 0 0.00303011)
(0 0 0.00310989)
(0 0 0.00318937)
(0 0 0.00326854)
(0 0 0.00334739)
(0 0 0.0034259)
(0 0 0.00350407)
(0 0 0.00358188)
(0 0 0.00365932)
(0 0 0.00373637)
(0 0 0.00381303)
(0 0 0.00388926)
(0 0 0.00396507)
(0 0 0.00404044)
(0 0 0.00411535)
(0 0 0.00418979)
(0 0 0.00426374)
(0 0 0.00433718)
(0 0 0.00441011)
(0 0 0.0044825)
(0 0 0.00455435)
(0 0 0.00462563)
(0 0 0.00469632)
(0 0 0.00476642)
(0 0 0.00483591)
(0 0 0.00490476)
(0 0 0.00497297)
(0 0 0.00504051)
(0 0 0.00510737)
(0 0 0.00517354)
(0 0 0.00523899)
(0 0 0.00530371)
(0 0 0.00536768)
(0 0 0.00543089)
(0 0 0.00549333)
(0 0 0.00555496)
(0 0 0.00561578)
(0 0 0.00567577)
(0 0 0.00573492)
(0 0 0.00579321)
(0 0 0.00585062)
(0 0 0.00590713)
(0 0 0.00596274)
(0 0 0.00601742)
(0 0 0.00607117)
(0 0 0.00612396)
(0 0 0.00617578)
(0 0 0.00622662)
(0 0 0.00627646)
(0 0 0.00632529)
(0 0 0.00637309)
(0 0 0.00641986)
(0 0 0.00646558)
(0 0 0.00651024)
(0 0 0.00655382)
(0 0 0.00659631)
(0 0 0.0066377)
(0 0 0.00667799)
(0 0 0.00671715)
(0 0 0.00675518)
(0 0 0.00679208)
(0 0 0.00682782)
(0 0 0.0068624)
(0 0 0.00689582)
(0 0 0.00692805)
(0 0 0.00695911)
(0 0 0.00698897)
(0 0 0.00701763)
(0 0 0.00704509)
(0 0 0.00707134)
(0 0 0.00709637)
(0 0 0.00712017)
(0 0 0.00714275)
(0 0 0.0071641)
(0 0 0.00718421)
(0 0 0.00720308)
(0 0 0.0072207)
(0 0 0.00723708)
(0 0 0.00725221)
(0 0 0.00726609)
(0 0 0.00727871)
(0 0 0.00729008)
(0 0 0.0073002)
(0 0 0.00730906)
(0 0 0.00731666)
(0 0 0.00732301)
(0 0 0.0073281)
(0 0 0.00733193)
(0 0 0.00733451)
(0 0 0.00733584)
(0 0 0.00733591)
(0 0 0.00733474)
(0 0 0.00733231)
(0 0 0.00732865)
(0 0 0.00732374)
(0 0 0.00731759)
(0 0 0.00731021)
(0 0 0.0073016)
(0 0 0.00729176)
(0 0 0.0072807)
(0 0 0.00726842)
(0 0 0.00725492)
(0 0 0.00724022)
(0 0 0.00722431)
(0 0 0.00720721)
(0 0 0.00718892)
(0 0 0.00716944)
(0 0 0.00714878)
(0 0 0.00712695)
(0 0 0.00710396)
(0 0 0.00707981)
(0 0 0.00705451)
(0 0 0.00702806)
(0 0 0.00700049)
(0 0 0.00697178)
(0 0 0.00694196)
(0 0 0.00691102)
(0 0 0.00687899)
(0 0 0.00684587)
(0 0 0.00681166)
(0 0 0.00677638)
(0 0 0.00674004)
(0 0 0.00670264)
(0 0 0.00666421)
(0 0 0.00662474)
(0 0 0.00658425)
(0 0 0.00654275)
(0 0 0.00650025)
(0 0 0.00645677)
(0 0 0.0064123)
(0 0 0.00636688)
(0 0 0.0063205)
(0 0 0.00627318)
(0 0 0.00622494)
(0 0 0.00617578)
(0 0 0.00612571)
(0 0 0.00607476)
(0 0 0.00602293)
(0 0 0.00597024)
(0 0 0.0059167)
(0 0 0.00586232)
(0 0 0.00580712)
(0 0 0.00575111)
(0 0 0.00569431)
(0 0 0.00563672)
(0 0 0.00557837)
(0 0 0.00551926)
(0 0 0.00545941)
(0 0 0.00539884)
(0 0 0.00533756)
(0 0 0.00527558)
(0 0 0.00521291)
(0 0 0.00514958)
(0 0 0.0050856)
(0 0 0.00502098)
(0 0 0.00495573)
(0 0 0.00488987)
(0 0 0.00482342)
(0 0 0.00475638)
(0 0 0.00468877)
(0 0 0.00462061)
(0 0 0.00455191)
(0 0 0.00448269)
(0 0 0.00441295)
(0 0 0.00434271)
(0 0 0.00427199)
(0 0 0.00420079)
(0 0 0.00412914)
(0 0 0.00405704)
(0 0 0.00398451)
(0 0 0.00391156)
(0 0 0.00383821)
(0 0 0.00376446)
(0 0 0.00369032)
(0 0 0.00361582)
(0 0 0.00354096)
(0 0 0.00346576)
(0 0 0.00339022)
(0 0 0.00331436)
(0 0 0.00323818)
(0 0 0.00316171)
(0 0 0.00308495)
(0 0 0.00300791)
(0 0 0.0029306)
(0 0 0.00285303)
(0 0 0.00277521)
(0 0 0.00269716)
(0 0 0.00261888)
(0 0 0.00254037)
(0 0 0.00246166)
(0 0 0.00238275)
(0 0 0.00230364)
(0 0 0.00222435)
(0 0 0.00214488)
(0 0 0.00206525)
(0 0 0.00198546)
(0 0 0.00190552)
(0 0 0.00182543)
(0 0 0.00174521)
(0 0 0.00166486)
(0 0 0.00158438)
(0 0 0.00150379)
(0 0 0.0014231)
(0 0 0.0013423)
(0 0 0.00126141)
(0 0 0.00118043)
(0 0 0.00109937)
(0 0 0.00101823)
(0 0 0.000937025)
(0 0 0.000855754)
(0 0 0.000774426)
(0 0 0.000693045)
(0 0 0.000611618)
(0 0 0.000530151)
(0 0 0.000448648)
(0 0 0.000367116)
(0 0 0.00028556)
(0 0 0.000203984)
(0 0 0.000122396)
(0 0 4.07995e-05)
(0 0 5.90976e-05)
(0 0 0.000177289)
(0 0 0.000295468)
(0 0 0.000413628)
(0 0 0.00053176)
(0 0 0.000649857)
(0 0 0.00076791)
(0 0 0.000885911)
(0 0 0.00100385)
(0 0 0.00112172)
(0 0 0.00123952)
(0 0 0.00135723)
(0 0 0.00147485)
(0 0 0.00159236)
(0 0 0.00170976)
(0 0 0.00182704)
(0 0 0.00194418)
(0 0 0.00206119)
(0 0 0.00217805)
(0 0 0.00229474)
(0 0 0.00241126)
(0 0 0.0025276)
(0 0 0.00264375)
(0 0 0.00275969)
(0 0 0.00287542)
(0 0 0.00299091)
(0 0 0.00310617)
(0 0 0.00322117)
(0 0 0.00333591)
(0 0 0.00345036)
(0 0 0.00356453)
(0 0 0.00367839)
(0 0 0.00379192)
(0 0 0.00390512)
(0 0 0.00401797)
(0 0 0.00413045)
(0 0 0.00424255)
(0 0 0.00435426)
(0 0 0.00446554)
(0 0 0.0045764)
(0 0 0.00468681)
(0 0 0.00479675)
(0 0 0.0049062)
(0 0 0.00501516)
(0 0 0.00512359)
(0 0 0.00523148)
(0 0 0.00533882)
(0 0 0.00544557)
(0 0 0.00555172)
(0 0 0.00565726)
(0 0 0.00576215)
(0 0 0.00586638)
(0 0 0.00596993)
(0 0 0.00607278)
(0 0 0.0061749)
(0 0 0.00627628)
(0 0 0.00637688)
(0 0 0.00647669)
(0 0 0.00657569)
(0 0 0.00667385)
(0 0 0.00677115)
(0 0 0.00686757)
(0 0 0.00696308)
(0 0 0.00705767)
(0 0 0.0071513)
(0 0 0.00724395)
(0 0 0.00733561)
(0 0 0.00742624)
(0 0 0.00751583)
(0 0 0.00760435)
(0 0 0.00769177)
(0 0 0.00777808)
(0 0 0.00786326)
(0 0 0.00794727)
(0 0 0.0080301)
(0 0 0.00811172)
(0 0 0.00819211)
(0 0 0.00827126)
(0 0 0.00834913)
(0 0 0.00842571)
(0 0 0.00850097)
(0 0 0.00857489)
(0 0 0.00864746)
(0 0 0.00871866)
(0 0 0.00878846)
(0 0 0.00885684)
(0 0 0.00892379)
(0 0 0.00898928)
(0 0 0.0090533)
(0 0 0.00911584)
(0 0 0.00917686)
(0 0 0.00923637)
(0 0 0.00929434)
(0 0 0.00935075)
(0 0 0.00940559)
(0 0 0.00945885)
(0 0 0.00951052)
(0 0 0.00956057)
(0 0 0.009609)
(0 0 0.00965579)
(0 0 0.00970093)
(0 0 0.00974442)
(0 0 0.00978624)
(0 0 0.00982638)
(0 0 0.00986483)
(0 0 0.00990158)
(0 0 0.00993663)
(0 0 0.00996996)
(0 0 0.0100016)
(0 0 0.0100315)
(0 0 0.0100596)
(0 0 0.010086)
(0 0 0.0101107)
(0 0 0.0101337)
(0 0 0.0101548)
(0 0 0.0101743)
(0 0 0.010192)
(0 0 0.0102079)
(0 0 0.010222)
(0 0 0.0102344)
(0 0 0.0102451)
(0 0 0.010254)
(0 0 0.0102611)
(0 0 0.0102665)
(0 0 0.0102701)
(0 0 0.0102719)
(0 0 0.010272)
(0 0 0.0102704)
(0 0 0.010267)
(0 0 0.0102618)
(0 0 0.010255)
(0 0 0.0102464)
(0 0 0.010236)
(0 0 0.010224)
(0 0 0.0102102)
(0 0 0.0101947)
(0 0 0.0101775)
(0 0 0.0101586)
(0 0 0.010138)
(0 0 0.0101157)
(0 0 0.0100918)
(0 0 0.0100661)
(0 0 0.0100389)
(0 0 0.0100099)
(0 0 0.00997937)
(0 0 0.00994717)
(0 0 0.00991334)
(0 0 0.00987791)
(0 0 0.00984088)
(0 0 0.00980226)
(0 0 0.00976206)
(0 0 0.00972029)
(0 0 0.00967697)
(0 0 0.00963211)
(0 0 0.00958573)
(0 0 0.00953782)
(0 0 0.00948842)
(0 0 0.00943753)
(0 0 0.00938516)
(0 0 0.00933133)
(0 0 0.00927606)
(0 0 0.00921936)
(0 0 0.00916125)
(0 0 0.00910173)
(0 0 0.00904084)
(0 0 0.00897857)
(0 0 0.00891496)
(0 0 0.00885002)
(0 0 0.00878375)
(0 0 0.00871619)
(0 0 0.00864735)
(0 0 0.00857725)
(0 0 0.00850589)
(0 0 0.00843332)
(0 0 0.00835953)
(0 0 0.00828455)
(0 0 0.0082084)
(0 0 0.0081311)
(0 0 0.00805267)
(0 0 0.00797312)
(0 0 0.00789248)
(0 0 0.00781077)
(0 0 0.00772799)
(0 0 0.00764419)
(0 0 0.00755937)
(0 0 0.00747355)
(0 0 0.00738676)
(0 0 0.00729901)
(0 0 0.00721033)
(0 0 0.00712074)
(0 0 0.00703024)
(0 0 0.00693888)
(0 0 0.00684665)
(0 0 0.0067536)
(0 0 0.00665973)
(0 0 0.00656506)
(0 0 0.00646962)
(0 0 0.00637342)
(0 0 0.00627648)
(0 0 0.00617883)
(0 0 0.00608048)
(0 0 0.00598144)
(0 0 0.00588175)
(0 0 0.00578142)
(0 0 0.00568047)
(0 0 0.00557891)
(0 0 0.00547676)
(0 0 0.00537404)
(0 0 0.00527077)
(0 0 0.00516697)
(0 0 0.00506265)
(0 0 0.00495783)
(0 0 0.00485253)
(0 0 0.00474676)
(0 0 0.00464054)
(0 0 0.00453388)
(0 0 0.0044268)
(0 0 0.00431932)
(0 0 0.00421145)
(0 0 0.0041032)
(0 0 0.00399459)
(0 0 0.00388563)
(0 0 0.00377634)
(0 0 0.00366673)
(0 0 0.00355682)
(0 0 0.0034466)
(0 0 0.00333611)
(0 0 0.00322535)
(0 0 0.00311433)
(0 0 0.00300307)
(0 0 0.00289157)
(0 0 0.00277986)
(0 0 0.00266792)
(0 0 0.00255579)
(0 0 0.00244347)
(0 0 0.00233097)
(0 0 0.0022183)
(0 0 0.00210546)
(0 0 0.00199248)
(0 0 0.00187935)
(0 0 0.0017661)
(0 0 0.00165272)
(0 0 0.00153922)
(0 0 0.00142562)
(0 0 0.00131192)
(0 0 0.00119814)
(0 0 0.00108427)
(0 0 0.000970328)
(0 0 0.000856323)
(0 0 0.000742261)
(0 0 0.000628149)
(0 0 0.000513996)
(0 0 0.00039981)
(0 0 0.000285597)
(0 0 0.000171366)
(0 0 5.71231e-05)
(0 0 7.59895e-05)
(0 0 0.000227963)
(0 0 0.000379922)
(0 0 0.000531855)
(0 0 0.000683753)
(0 0 0.000835606)
(0 0 0.000987402)
(0 0 0.00113913)
(0 0 0.00129078)
(0 0 0.00144235)
(0 0 0.00159382)
(0 0 0.00174517)
(0 0 0.00189641)
(0 0 0.00204751)
(0 0 0.00219847)
(0 0 0.00234927)
(0 0 0.00249991)
(0 0 0.00265036)
(0 0 0.00280062)
(0 0 0.00295068)
(0 0 0.00310051)
(0 0 0.00325011)
(0 0 0.00339946)
(0 0 0.00354855)
(0 0 0.00369736)
(0 0 0.00384587)
(0 0 0.00399408)
(0 0 0.00414196)
(0 0 0.0042895)
(0 0 0.00443669)
(0 0 0.00458349)
(0 0 0.00472991)
(0 0 0.00487591)
(0 0 0.00502147)
(0 0 0.00516659)
(0 0 0.00531124)
(0 0 0.0054554)
(0 0 0.00559904)
(0 0 0.00574216)
(0 0 0.00588471)
(0 0 0.0060267)
(0 0 0.00616808)
(0 0 0.00630884)
(0 0 0.00644896)
(0 0 0.0065884)
(0 0 0.00672715)
(0 0 0.00686519)
(0 0 0.00700248)
(0 0 0.00713899)
(0 0 0.00727472)
(0 0 0.00740962)
(0 0 0.00754367)
(0 0 0.00767684)
(0 0 0.00780911)
(0 0 0.00794044)
(0 0 0.00807082)
(0 0 0.00820021)
(0 0 0.00832858)
(0 0 0.0084559)
(0 0 0.00858214)
(0 0 0.00870728)
(0 0 0.00883129)
(0 0 0.00895413)
(0 0 0.00907578)
(0 0 0.0091962)
(0 0 0.00931537)
(0 0 0.00943325)
(0 0 0.00954982)
(0 0 0.00966504)
(0 0 0.00977889)
(0 0 0.00989134)
(0 0 0.0100023)
(0 0 0.0101119)
(0 0 0.0102199)
(0 0 0.0103265)
(0 0 0.0104315)
(0 0 0.0105349)
(0 0 0.0106367)
(0 0 0.0107368)
(0 0 0.0108353)
(0 0 0.0109321)
(0 0 0.0110272)
(0 0 0.0111205)
(0 0 0.0112121)
(0 0 0.0113019)
(0 0 0.0113898)
(0 0 0.0114759)
(0 0 0.0115602)
(0 0 0.0116425)
(0 0 0.0117229)
(0 0 0.0118014)
(0 0 0.011878)
(0 0 0.0119525)
(0 0 0.0120251)
(0 0 0.0120956)
(0 0 0.0121641)
(0 0 0.0122306)
(0 0 0.0122949)
(0 0 0.0123572)
(0 0 0.0124174)
(0 0 0.0124755)
(0 0 0.0125314)
(0 0 0.0125852)
(0 0 0.0126368)
(0 0 0.0126863)
(0 0 0.0127335)
(0 0 0.0127786)
(0 0 0.0128215)
(0 0 0.0128621)
(0 0 0.0129006)
(0 0 0.0129368)
(0 0 0.0129708)
(0 0 0.0130025)
(0 0 0.013032)
(0 0 0.0130592)
(0 0 0.0130842)
(0 0 0.013107)
(0 0 0.0131274)
(0 0 0.0131456)
(0 0 0.0131616)
(0 0 0.0131753)
(0 0 0.0131867)
(0 0 0.0131958)
(0 0 0.0132027)
(0 0 0.0132074)
(0 0 0.0132098)
(0 0 0.0132099)
(0 0 0.0132078)
(0 0 0.0132034)
(0 0 0.0131968)
(0 0 0.0131879)
(0 0 0.0131769)
(0 0 0.0131636)
(0 0 0.013148)
(0 0 0.0131303)
(0 0 0.0131104)
(0 0 0.0130882)
(0 0 0.0130639)
(0 0 0.0130374)
(0 0 0.0130088)
(0 0 0.012978)
(0 0 0.012945)
(0 0 0.0129099)
(0 0 0.0128727)
(0 0 0.0128334)
(0 0 0.012792)
(0 0 0.0127485)
(0 0 0.0127029)
(0 0 0.0126553)
(0 0 0.0126056)
(0 0 0.0125539)
(0 0 0.0125002)
(0 0 0.0124445)
(0 0 0.0123868)
(0 0 0.0123271)
(0 0 0.0122655)
(0 0 0.0122019)
(0 0 0.0121365)
(0 0 0.0120691)
(0 0 0.0119999)
(0 0 0.0119288)
(0 0 0.0118559)
(0 0 0.0117811)
(0 0 0.0117046)
(0 0 0.0116263)
(0 0 0.0115462)
(0 0 0.0114644)
(0 0 0.0113808)
(0 0 0.0112956)
(0 0 0.0112087)
(0 0 0.0111202)
(0 0 0.01103)
(0 0 0.0109383)
(0 0 0.0108449)
(0 0 0.01075)
(0 0 0.0106536)
(0 0 0.0105556)
(0 0 0.0104562)
(0 0 0.0103553)
(0 0 0.010253)
(0 0 0.0101493)
(0 0 0.0100442)
(0 0 0.00993777)
(0 0 0.00982998)
(0 0 0.00972089)
(0 0 0.00961052)
(0 0 0.0094989)
(0 0 0.00938605)
(0 0 0.00927199)
(0 0 0.00915676)
(0 0 0.00904038)
(0 0 0.00892288)
(0 0 0.00880427)
(0 0 0.00868459)
(0 0 0.00856387)
(0 0 0.00844212)
(0 0 0.00831937)
(0 0 0.00819565)
(0 0 0.00807099)
(0 0 0.0079454)
(0 0 0.00781892)
(0 0 0.00769156)
(0 0 0.00756335)
(0 0 0.00743432)
(0 0 0.00730449)
(0 0 0.00717388)
(0 0 0.00704252)
(0 0 0.00691043)
(0 0 0.00677762)
(0 0 0.00664413)
(0 0 0.00650998)
(0 0 0.00637518)
(0 0 0.00623977)
(0 0 0.00610375)
(0 0 0.00596715)
(0 0 0.00582999)
(0 0 0.00569229)
(0 0 0.00555408)
(0 0 0.00541536)
(0 0 0.00527616)
(0 0 0.00513649)
(0 0 0.00499638)
(0 0 0.00485584)
(0 0 0.00471489)
(0 0 0.00457355)
(0 0 0.00443183)
(0 0 0.00428975)
(0 0 0.00414732)
(0 0 0.00400456)
(0 0 0.00386149)
(0 0 0.00371812)
(0 0 0.00357446)
(0 0 0.00343053)
(0 0 0.00328634)
(0 0 0.00314191)
(0 0 0.00299725)
(0 0 0.00285237)
(0 0 0.00270728)
(0 0 0.002562)
(0 0 0.00241654)
(0 0 0.00227091)
(0 0 0.00212512)
(0 0 0.00197918)
(0 0 0.00183311)
(0 0 0.00168691)
(0 0 0.0015406)
(0 0 0.00139418)
(0 0 0.00124768)
(0 0 0.00110108)
(0 0 0.000954419)
(0 0 0.000807691)
(0 0 0.00066091)
(0 0 0.000514086)
(0 0 0.000367228)
(0 0 0.000220346)
(0 0 7.34504e-05)
(0 0 9.28864e-05)
(0 0 0.000278653)
(0 0 0.000464401)
(0 0 0.000650118)
(0 0 0.000835792)
(0 0 0.00102141)
(0 0 0.00120696)
(0 0 0.00139243)
(0 0 0.00157781)
(0 0 0.00176307)
(0 0 0.00194822)
(0 0 0.00213324)
(0 0 0.0023181)
(0 0 0.00250281)
(0 0 0.00268734)
(0 0 0.00287168)
(0 0 0.00305581)
(0 0 0.00323973)
(0 0 0.00342341)
(0 0 0.00360683)
(0 0 0.00378999)
(0 0 0.00397286)
(0 0 0.00415543)
(0 0 0.00433768)
(0 0 0.00451959)
(0 0 0.00470114)
(0 0 0.00488232)
(0 0 0.0050631)
(0 0 0.00524346)
(0 0 0.00542339)
(0 0 0.00560285)
(0 0 0.00578184)
(0 0 0.00596032)
(0 0 0.00613828)
(0 0 0.00631569)
(0 0 0.00649252)
(0 0 0.00666875)
(0 0 0.00684436)
(0 0 0.00701932)
(0 0 0.00719361)
(0 0 0.00736719)
(0 0 0.00754004)
(0 0 0.00771212)
(0 0 0.00788343)
(0 0 0.00805391)
(0 0 0.00822355)
(0 0 0.0083923)
(0 0 0.00856015)
(0 0 0.00872706)
(0 0 0.008893)
(0 0 0.00905793)
(0 0 0.00922183)
(0 0 0.00938465)
(0 0 0.00954637)
(0 0 0.00970695)
(0 0 0.00986635)
(0 0 0.0100246)
(0 0 0.0101815)
(0 0 0.0103372)
(0 0 0.0104915)
(0 0 0.0106446)
(0 0 0.0107962)
(0 0 0.0109464)
(0 0 0.0110951)
(0 0 0.0112424)
(0 0 0.0113881)
(0 0 0.0115322)
(0 0 0.0116747)
(0 0 0.0118156)
(0 0 0.0119548)
(0 0 0.0120923)
(0 0 0.0122281)
(0 0 0.012362)
(0 0 0.0124942)
(0 0 0.0126244)
(0 0 0.0127528)
(0 0 0.0128792)
(0 0 0.0130037)
(0 0 0.0131262)
(0 0 0.0132466)
(0 0 0.013365)
(0 0 0.0134812)
(0 0 0.0135954)
(0 0 0.0137073)
(0 0 0.0138171)
(0 0 0.0139247)
(0 0 0.0140299)
(0 0 0.014133)
(0 0 0.0142336)
(0 0 0.014332)
(0 0 0.014428)
(0 0 0.0145216)
(0 0 0.0146127)
(0 0 0.0147014)
(0 0 0.0147877)
(0 0 0.0148715)
(0 0 0.0149527)
(0 0 0.0150314)
(0 0 0.0151076)
(0 0 0.0151812)
(0 0 0.0152521)
(0 0 0.0153205)
(0 0 0.0153863)
(0 0 0.0154494)
(0 0 0.0155099)
(0 0 0.0155677)
(0 0 0.0156228)
(0 0 0.0156752)
(0 0 0.0157249)
(0 0 0.0157719)
(0 0 0.0158162)
(0 0 0.0158577)
(0 0 0.0158965)
(0 0 0.0159326)
(0 0 0.0159659)
(0 0 0.0159964)
(0 0 0.0160242)
(0 0 0.0160492)
(0 0 0.0160715)
(0 0 0.016091)
(0 0 0.0161077)
(0 0 0.0161217)
(0 0 0.0161329)
(0 0 0.0161413)
(0 0 0.016147)
(0 0 0.0161499)
(0 0 0.01615)
(0 0 0.0161474)
(0 0 0.016142)
(0 0 0.016134)
(0 0 0.0161231)
(0 0 0.0161096)
(0 0 0.0160933)
(0 0 0.0160743)
(0 0 0.0160526)
(0 0 0.0160283)
(0 0 0.0160012)
(0 0 0.0159715)
(0 0 0.0159391)
(0 0 0.015904)
(0 0 0.0158663)
(0 0 0.015826)
(0 0 0.0157831)
(0 0 0.0157376)
(0 0 0.0156896)
(0 0 0.0156389)
(0 0 0.0155857)
(0 0 0.01553)
(0 0 0.0154717)
(0 0 0.015411)
(0 0 0.0153478)
(0 0 0.0152821)
(0 0 0.0152139)
(0 0 0.0151434)
(0 0 0.0150704)
(0 0 0.0149951)
(0 0 0.0149174)
(0 0 0.0148373)
(0 0 0.014755)
(0 0 0.0146703)
(0 0 0.0145834)
(0 0 0.0144942)
(0 0 0.0144028)
(0 0 0.0143092)
(0 0 0.0142135)
(0 0 0.0141156)
(0 0 0.0140155)
(0 0 0.0139134)
(0 0 0.0138092)
(0 0 0.0137029)
(0 0 0.0135946)
(0 0 0.0134844)
(0 0 0.0133722)
(0 0 0.013258)
(0 0 0.013142)
(0 0 0.0130241)
(0 0 0.0129043)
(0 0 0.0127828)
(0 0 0.0126594)
(0 0 0.0125343)
(0 0 0.0124075)
(0 0 0.012279)
(0 0 0.0121489)
(0 0 0.0120171)
(0 0 0.0118837)
(0 0 0.0117487)
(0 0 0.0116123)
(0 0 0.0114743)
(0 0 0.0113348)
(0 0 0.0111939)
(0 0 0.0110516)
(0 0 0.010908)
(0 0 0.010763)
(0 0 0.0106166)
(0 0 0.010469)
(0 0 0.0103202)
(0 0 0.0101701)
(0 0 0.0100188)
(0 0 0.00986642)
(0 0 0.00971287)
(0 0 0.00955823)
(0 0 0.00940252)
(0 0 0.00924578)
(0 0 0.00908803)
(0 0 0.00892929)
(0 0 0.00876961)
(0 0 0.00860901)
(0 0 0.00844752)
(0 0 0.00828516)
(0 0 0.00812196)
(0 0 0.00795795)
(0 0 0.00779316)
(0 0 0.0076276)
(0 0 0.00746132)
(0 0 0.00729432)
(0 0 0.00712664)
(0 0 0.00695831)
(0 0 0.00678934)
(0 0 0.00661975)
(0 0 0.00644958)
(0 0 0.00627884)
(0 0 0.00610756)
(0 0 0.00593576)
(0 0 0.00576345)
(0 0 0.00559066)
(0 0 0.00541742)
(0 0 0.00524373)
(0 0 0.00506962)
(0 0 0.00489511)
(0 0 0.00472021)
(0 0 0.00454495)
(0 0 0.00436934)
(0 0 0.0041934)
(0 0 0.00401714)
(0 0 0.00384059)
(0 0 0.00366375)
(0 0 0.00348665)
(0 0 0.00330929)
(0 0 0.0031317)
(0 0 0.00295389)
(0 0 0.00277588)
(0 0 0.00259767)
(0 0 0.00241928)
(0 0 0.00224072)
(0 0 0.00206201)
(0 0 0.00188317)
(0 0 0.00170419)
(0 0 0.00152511)
(0 0 0.00134592)
(0 0 0.00116664)
(0 0 0.000987287)
(0 0 0.000807868)
(0 0 0.000628396)
(0 0 0.000448883)
(0 0 0.000269342)
(0 0 8.97825e-05)
(0 0 0.000109789)
(0 0 0.000329361)
(0 0 0.000548911)
(0 0 0.000768424)
(0 0 0.000987887)
(0 0 0.00120728)
(0 0 0.0014266)
(0 0 0.00164582)
(0 0 0.00186493)
(0 0 0.00208392)
(0 0 0.00230276)
(0 0 0.00252145)
(0 0 0.00273996)
(0 0 0.00295828)
(0 0 0.0031764)
(0 0 0.00339429)
(0 0 0.00361194)
(0 0 0.00382933)
(0 0 0.00404644)
(0 0 0.00426326)
(0 0 0.00447976)
(0 0 0.00469592)
(0 0 0.00491173)
(0 0 0.00512715)
(0 0 0.00534218)
(0 0 0.00555679)
(0 0 0.00577095)
(0 0 0.00598465)
(0 0 0.00619786)
(0 0 0.00641055)
(0 0 0.00662269)
(0 0 0.00683428)
(0 0 0.00704527)
(0 0 0.00725563)
(0 0 0.00746535)
(0 0 0.0076744)
(0 0 0.00788273)
(0 0 0.00809033)
(0 0 0.00829717)
(0 0 0.0085032)
(0 0 0.00870841)
(0 0 0.00891275)
(0 0 0.0091162)
(0 0 0.00931871)
(0 0 0.00952027)
(0 0 0.00972082)
(0 0 0.00992033)
(0 0 0.0101188)
(0 0 0.0103161)
(0 0 0.0105123)
(0 0 0.0107073)
(0 0 0.0109011)
(0 0 0.0110936)
(0 0 0.0112848)
(0 0 0.0114746)
(0 0 0.0116631)
(0 0 0.0118501)
(0 0 0.0120357)
(0 0 0.0122198)
(0 0 0.0124023)
(0 0 0.0125832)
(0 0 0.0127625)
(0 0 0.0129401)
(0 0 0.0131159)
(0 0 0.0132901)
(0 0 0.0134623)
(0 0 0.0136328)
(0 0 0.0138013)
(0 0 0.0139679)
(0 0 0.0141325)
(0 0 0.0142951)
(0 0 0.0144556)
(0 0 0.014614)
(0 0 0.0147702)
(0 0 0.0149242)
(0 0 0.015076)
(0 0 0.0152255)
(0 0 0.0153727)
(0 0 0.0155175)
(0 0 0.01566)
(0 0 0.0157999)
(0 0 0.0159374)
(0 0 0.0160724)
(0 0 0.0162048)
(0 0 0.0163346)
(0 0 0.0164617)
(0 0 0.0165862)
(0 0 0.016708)
(0 0 0.0168271)
(0 0 0.0169434)
(0 0 0.0170569)
(0 0 0.0171676)
(0 0 0.0172754)
(0 0 0.0173803)
(0 0 0.0174822)
(0 0 0.0175813)
(0 0 0.0176774)
(0 0 0.0177704)
(0 0 0.0178605)
(0 0 0.0179475)
(0 0 0.0180314)
(0 0 0.0181123)
(0 0 0.01819)
(0 0 0.0182647)
(0 0 0.0183362)
(0 0 0.0184045)
(0 0 0.0184696)
(0 0 0.0185316)
(0 0 0.0185904)
(0 0 0.018646)
(0 0 0.0186983)
(0 0 0.0187474)
(0 0 0.0187933)
(0 0 0.0188359)
(0 0 0.0188753)
(0 0 0.0189114)
(0 0 0.0189442)
(0 0 0.0189738)
(0 0 0.0190001)
(0 0 0.0190232)
(0 0 0.0190429)
(0 0 0.0190594)
(0 0 0.0190726)
(0 0 0.0190826)
(0 0 0.0190893)
(0 0 0.0190927)
(0 0 0.0190929)
(0 0 0.0190898)
(0 0 0.0190834)
(0 0 0.0190739)
(0 0 0.019061)
(0 0 0.019045)
(0 0 0.0190258)
(0 0 0.0190033)
(0 0 0.0189777)
(0 0 0.0189488)
(0 0 0.0189168)
(0 0 0.0188816)
(0 0 0.0188433)
(0 0 0.0188019)
(0 0 0.0187573)
(0 0 0.0187097)
(0 0 0.0186589)
(0 0 0.0186051)
(0 0 0.0185483)
(0 0 0.0184884)
(0 0 0.0184255)
(0 0 0.0183595)
(0 0 0.0182907)
(0 0 0.0182188)
(0 0 0.0181441)
(0 0 0.0180664)
(0 0 0.0179858)
(0 0 0.0179024)
(0 0 0.0178161)
(0 0 0.017727)
(0 0 0.0176352)
(0 0 0.0175405)
(0 0 0.0174431)
(0 0 0.017343)
(0 0 0.0172402)
(0 0 0.0171348)
(0 0 0.0170267)
(0 0 0.0169161)
(0 0 0.0168028)
(0 0 0.016687)
(0 0 0.0165687)
(0 0 0.016448)
(0 0 0.0163247)
(0 0 0.0161991)
(0 0 0.0160711)
(0 0 0.0159407)
(0 0 0.0158081)
(0 0 0.0156731)
(0 0 0.0155359)
(0 0 0.0153965)
(0 0 0.0152549)
(0 0 0.0151111)
(0 0 0.0149653)
(0 0 0.0148174)
(0 0 0.0146674)
(0 0 0.0145155)
(0 0 0.0143616)
(0 0 0.0142058)
(0 0 0.0140481)
(0 0 0.0138885)
(0 0 0.0137271)
(0 0 0.013564)
(0 0 0.0133991)
(0 0 0.0132325)
(0 0 0.0130643)
(0 0 0.0128944)
(0 0 0.012723)
(0 0 0.01255)
(0 0 0.0123754)
(0 0 0.0121994)
(0 0 0.012022)
(0 0 0.0118432)
(0 0 0.011663)
(0 0 0.0114814)
(0 0 0.0112986)