/*--------------------------------*- C++ -*----------------------------------*\
| =========                 |                                                 |
| \\      /  F ield         | OpenFOAM: The Open Source CFD Toolbox           |
|  \\    /   O peration     | Version:  v2012                                 |
|   \\  /    A nd           | Website:  www.openfoam.com                      |
|    \\/     M anipulation  |                                                 |
\*---------------------------------------------------------------------------*/
FoamFile
{
    version     2.0;
    format      ascii;
    class       volVectorField;
    location    "0.9";
    object      U;
}
// * * * * * * * * * * * * * * * * * * * * * * * * * * * * * * * * * * * * * //

dimensions      [0 1 -1 0 0 0 0];


internalField   nonuniform List<vector> 
65536
(
(0.000686432 -0.000686411 0)
(0.00205925 -0.000686363 0)
(0.00343192 -0.00068627 0)
(0.00480437 -0.000686132 0)
(0.0061765 -0.000685947 0)
(0.0075482 -0.000685716 0)
(0.0089194 -0.000685437 0)
(0.01029 -0.00068511 0)
(0.0116599 -0.000684735 0)
(0.013029 -0.00068431 0)
(0.0143972 -0.000683836 0)
(0.0157644 -0.000683311 0)
(0.0171305 -0.000682734 0)
(0.0184954 -0.000682105 0)
(0.0198589 -0.000681422 0)
(0.0212211 -0.000680684 0)
(0.0225817 -0.00067989 0)
(0.0239407 -0.000679038 0)
(0.0252979 -0.000678128 0)
(0.0266533 -0.000677157 0)
(0.0280066 -0.000676124 0)
(0.0293578 -0.000675028 0)
(0.0307068 -0.000673868 0)
(0.0320534 -0.00067264 0)
(0.0333974 -0.000671344 0)
(0.0347388 -0.000669978 0)
(0.0360774 -0.00066854 0)
(0.037413 -0.000667028 0)
(0.0387456 -0.00066544 0)
(0.0400749 -0.000663775 0)
(0.0414008 -0.00066203 0)
(0.0427231 -0.000660202 0)
(0.0440416 -0.000658292 0)
(0.0453563 -0.000656295 0)
(0.0466669 -0.00065421 0)
(0.0479732 -0.000652035 0)
(0.0492751 -0.000649768 0)
(0.0505724 -0.000647407 0)
(0.0518649 -0.00064495 0)
(0.0531523 -0.000642394 0)
(0.0544345 -0.000639737 0)
(0.0557114 -0.000636978 0)
(0.0569826 -0.000634115 0)
(0.0582479 -0.000631144 0)
(0.0595072 -0.000628065 0)
(0.0607603 -0.000624876 0)
(0.0620068 -0.000621574 0)
(0.0632467 -0.000618158 0)
(0.0644796 -0.000614625 0)
(0.0657053 -0.000610975 0)
(0.0669236 -0.000607205 0)
(0.0681343 -0.000603314 0)
(0.069337 -0.0005993 0)
(0.0705316 -0.000595162 0)
(0.0717178 -0.000590899 0)
(0.0728953 -0.000586508 0)
(0.0740639 -0.00058199 0)
(0.0752234 -0.000577342 0)
(0.0763734 -0.000572565 0)
(0.0775138 -0.000567656 0)
(0.0786442 -0.000562615 0)
(0.0797644 -0.000557442 0)
(0.0808741 -0.000552136 0)
(0.081973 -0.000546696 0)
(0.083061 -0.000541122 0)
(0.0841377 -0.000535414 0)
(0.0852028 -0.000529573 0)
(0.0862561 -0.000523597 0)
(0.0872973 -0.000517487 0)
(0.0883262 -0.000511244 0)
(0.0893424 -0.000504867 0)
(0.0903458 -0.000498358 0)
(0.091336 -0.000491718 0)
(0.0923128 -0.000484946 0)
(0.0932759 -0.000478045 0)
(0.0942251 -0.000471015 0)
(0.0951601 -0.000463857 0)
(0.0960806 -0.000456573 0)
(0.0969865 -0.000449164 0)
(0.0978774 -0.000441633 0)
(0.0987532 -0.00043398 0)
(0.0996135 -0.000426208 0)
(0.100458 -0.000418318 0)
(0.101287 -0.000410314 0)
(0.102099 -0.000402196 0)
(0.102896 -0.000393968 0)
(0.103675 -0.000385631 0)
(0.104438 -0.000377189 0)
(0.105184 -0.000368643 0)
(0.105913 -0.000359998 0)
(0.106624 -0.000351254 0)
(0.107318 -0.000342416 0)
(0.107994 -0.000333486 0)
(0.108652 -0.000324468 0)
(0.109292 -0.000315363 0)
(0.109914 -0.000306176 0)
(0.110517 -0.000296909 0)
(0.111101 -0.000287567 0)
(0.111667 -0.000278151 0)
(0.112214 -0.000268665 0)
(0.112742 -0.000259113 0)
(0.113251 -0.000249497 0)
(0.11374 -0.000239821 0)
(0.11421 -0.000230089 0)
(0.11466 -0.000220304 0)
(0.115091 -0.000210468 0)
(0.115502 -0.000200586 0)
(0.115894 -0.00019066 0)
(0.116265 -0.000180694 0)
(0.116616 -0.000170691 0)
(0.116948 -0.000160654 0)
(0.117259 -0.000150587 0)
(0.11755 -0.000140493 0)
(0.117821 -0.000130374 0)
(0.118072 -0.000120234 0)
(0.118302 -0.000110075 0)
(0.118512 -9.99017e-05 0)
(0.118702 -8.9716e-05 0)
(0.118871 -7.9521e-05 0)
(0.11902 -6.93195e-05 0)
(0.119148 -5.91144e-05 0)
(0.119256 -4.89084e-05 0)
(0.119344 -3.87044e-05 0)
(0.119411 -2.85049e-05 0)
(0.119458 -1.83126e-05 0)
(0.119484 -8.13009e-06 0)
(0.11949 2.04002e-06 0)
(0.119476 1.21952e-05 0)
(0.119442 2.23331e-05 0)
(0.119387 3.24512e-05 0)
(0.119312 4.2547e-05 0)
(0.119217 5.26183e-05 0)
(0.119101 6.26627e-05 0)
(0.118966 7.26778e-05 0)
(0.118811 8.26615e-05 0)
(0.118635 9.26114e-05 0)
(0.11844 0.000102525 0)
(0.118225 0.000112401 0)
(0.11799 0.000122236 0)
(0.117736 0.000132029 0)
(0.117462 0.000141777 0)
(0.117169 0.000151478 0)
(0.116856 0.00016113 0)
(0.116524 0.000170731 0)
(0.116173 0.000180279 0)
(0.115803 0.000189772 0)
(0.115414 0.000199207 0)
(0.115006 0.000208582 0)
(0.11458 0.000217896 0)
(0.114135 0.000227147 0)
(0.113671 0.000236331 0)
(0.113189 0.000245448 0)
(0.112689 0.000254495 0)
(0.112171 0.000263471 0)
(0.111635 0.000272372 0)
(0.111082 0.000281198 0)
(0.11051 0.000289946 0)
(0.109922 0.000298614 0)
(0.109316 0.000307201 0)
(0.108693 0.000315704 0)
(0.108053 0.000324121 0)
(0.107396 0.000332451 0)
(0.106723 0.000340692 0)
(0.106034 0.000348841 0)
(0.105328 0.000356898 0)
(0.104606 0.00036486 0)
(0.103868 0.000372726 0)
(0.103115 0.000380493 0)
(0.102346 0.000388161 0)
(0.101562 0.000395728 0)
(0.100763 0.000403193 0)
(0.0999493 0.000410553 0)
(0.0991208 0.000417807 0)
(0.0982779 0.000424955 0)
(0.0974209 0.000431995 0)
(0.0965498 0.000438925 0)
(0.095665 0.000445745 0)
(0.0947667 0.000452454 0)
(0.0938551 0.00045905 0)
(0.0929304 0.000465533 0)
(0.0919929 0.000471901 0)
(0.0910427 0.000478155 0)
(0.0900801 0.000484293 0)
(0.0891054 0.000490316 0)
(0.0881188 0.000496221 0)
(0.0871204 0.00050201 0)
(0.0861106 0.000507681 0)
(0.0850896 0.000513235 0)
(0.0840575 0.000518672 0)
(0.0830148 0.000523991 0)
(0.0819615 0.000529192 0)
(0.0808979 0.000534277 0)
(0.0798242 0.000539244 0)
(0.0787408 0.000544094 0)
(0.0776477 0.000548828 0)
(0.0765454 0.000553446 0)
(0.0754339 0.000557949 0)
(0.0743134 0.000562337 0)
(0.0731844 0.000566611 0)
(0.0720469 0.000570772 0)
(0.0709012 0.000574822 0)
(0.0697475 0.00057876 0)
(0.068586 0.000582587 0)
(0.067417 0.000586306 0)
(0.0662407 0.000589917 0)
(0.0650573 0.000593421 0)
(0.0638669 0.00059682 0)
(0.0626699 0.000600115 0)
(0.0614663 0.000603308 0)
(0.0602565 0.000606399 0)
(0.0590406 0.00060939 0)
(0.0578189 0.000612284 0)
(0.0565914 0.000615081 0)
(0.0553585 0.000617782 0)
(0.0541202 0.00062039 0)
(0.0528768 0.000622907 0)
(0.0516285 0.000625333 0)
(0.0503754 0.000627671 0)
(0.0491177 0.000629923 0)
(0.0478556 0.000632089 0)
(0.0465893 0.000634171 0)
(0.0453188 0.000636173 0)
(0.0440445 0.000638094 0)
(0.0427664 0.000639937 0)
(0.0414847 0.000641703 0)
(0.0401995 0.000643395 0)
(0.038911 0.000645013 0)
(0.0376194 0.00064656 0)
(0.0363247 0.000648037 0)
(0.0350271 0.000649446 0)
(0.0337268 0.000650787 0)
(0.0324239 0.000652064 0)
(0.0311185 0.000653276 0)
(0.0298107 0.000654427 0)
(0.0285007 0.000655516 0)
(0.0271886 0.000656546 0)
(0.0258745 0.000657518 0)
(0.0245585 0.000658433 0)
(0.0232407 0.000659292 0)
(0.0219213 0.000660097 0)
(0.0206003 0.000660848 0)
(0.0192778 0.000661547 0)
(0.017954 0.000662195 0)
(0.016629 0.000662792 0)
(0.0153028 0.00066334 0)
(0.0139756 0.000663839 0)
(0.0126474 0.000664291 0)
(0.0113183 0.000664695 0)
(0.00998855 0.000665053 0)
(0.00865809 0.000665364 0)
(0.00732705 0.000665631 0)
(0.00599552 0.000665852 0)
(0.00466359 0.000666029 0)
(0.00333135 0.00066616 0)
(0.0019989 0.000666248 0)
(0.000666314 0.000666292 0)
(0.000686475 -0.00205927 0)
(0.00205938 -0.00205913 0)
(0.00343215 -0.00205885 0)
(0.00480468 -0.00205844 0)
(0.0061769 -0.00205788 0)
(0.0075487 -0.00205719 0)
(0.00891999 -0.00205635 0)
(0.0102907 -0.00205537 0)
(0.0116607 -0.00205425 0)
(0.0130299 -0.00205298 0)
(0.0143981 -0.00205155 0)
(0.0157654 -0.00204998 0)
(0.0171316 -0.00204825 0)
(0.0184966 -0.00204636 0)
(0.0198603 -0.00204432 0)
(0.0212226 -0.0020421 0)
(0.0225833 -0.00203972 0)
(0.0239424 -0.00203717 0)
(0.0252998 -0.00203444 0)
(0.0266552 -0.00203153 0)
(0.0280087 -0.00202843 0)
(0.02936 -0.00202515 0)
(0.0307091 -0.00202167 0)
(0.0320558 -0.00201799 0)
(0.0334 -0.0020141 0)
(0.0347416 -0.00201 0)
(0.0360803 -0.00200569 0)
(0.0374161 -0.00200116 0)
(0.0387488 -0.0019964 0)
(0.0400782 -0.0019914 0)
(0.0414043 -0.00198617 0)
(0.0427267 -0.00198069 0)
(0.0440455 -0.00197496 0)
(0.0453603 -0.00196897 0)
(0.0466711 -0.00196272 0)
(0.0479776 -0.0019562 0)
(0.0492797 -0.0019494 0)
(0.0505772 -0.00194232 0)
(0.0518698 -0.00193495 0)
(0.0531574 -0.00192728 0)
(0.0544399 -0.00191931 0)
(0.0557169 -0.00191104 0)
(0.0569883 -0.00190245 0)
(0.0582539 -0.00189354 0)
(0.0595134 -0.0018843 0)
(0.0607667 -0.00187474 0)
(0.0620135 -0.00186483 0)
(0.0632536 -0.00185459 0)
(0.0644867 -0.00184399 0)
(0.0657127 -0.00183304 0)
(0.0669312 -0.00182173 0)
(0.0681421 -0.00181006 0)
(0.0693451 -0.00179802 0)
(0.0705399 -0.00178561 0)
(0.0717263 -0.00177282 0)
(0.0729041 -0.00175965 0)
(0.074073 -0.0017461 0)
(0.0752327 -0.00173216 0)
(0.076383 -0.00171782 0)
(0.0775236 -0.0017031 0)
(0.0786543 -0.00168798 0)
(0.0797748 -0.00167246 0)
(0.0808847 -0.00165654 0)
(0.081984 -0.00164022 0)
(0.0830722 -0.0016235 0)
(0.0841491 -0.00160638 0)
(0.0852145 -0.00158885 0)
(0.0862681 -0.00157092 0)
(0.0873096 -0.0015526 0)
(0.0883387 -0.00153386 0)
(0.0893552 -0.00151474 0)
(0.0903588 -0.00149521 0)
(0.0913493 -0.00147529 0)
(0.0923264 -0.00145497 0)
(0.0932898 -0.00143426 0)
(0.0942392 -0.00141317 0)
(0.0951745 -0.0013917 0)
(0.0960953 -0.00136984 0)
(0.0970014 -0.00134762 0)
(0.0978925 -0.00132502 0)
(0.0987685 -0.00130206 0)
(0.0996291 -0.00127874 0)
(0.100474 -0.00125507 0)
(0.101303 -0.00123106 0)
(0.102116 -0.0012067 0)
(0.102912 -0.00118201 0)
(0.103692 -0.001157 0)
(0.104455 -0.00113167 0)
(0.105201 -0.00110603 0)
(0.10593 -0.00108009 0)
(0.106642 -0.00105386 0)
(0.107336 -0.00102734 0)
(0.108012 -0.00100055 0)
(0.10867 -0.000973491 0)
(0.10931 -0.000946175 0)
(0.109932 -0.000918611 0)
(0.110535 -0.000890808 0)
(0.11112 -0.000862776 0)
(0.111686 -0.000834525 0)
(0.112233 -0.000806065 0)
(0.112761 -0.000777404 0)
(0.11327 -0.000748554 0)
(0.113759 -0.000719524 0)
(0.114229 -0.000690325 0)
(0.11468 -0.000660965 0)
(0.115111 -0.000631455 0)
(0.115522 -0.000601805 0)
(0.115914 -0.000572024 0)
(0.116285 -0.000542123 0)
(0.116636 -0.000512111 0)
(0.116968 -0.000481998 0)
(0.117279 -0.000451793 0)
(0.11757 -0.000421506 0)
(0.117841 -0.000391146 0)
(0.118092 -0.000360723 0)
(0.118322 -0.000330245 0)
(0.118532 -0.000299721 0)
(0.118722 -0.000269161 0)
(0.118891 -0.000238573 0)
(0.11904 -0.000207966 0)
(0.119169 -0.000177348 0)
(0.119277 -0.000146728 0)
(0.119364 -0.000116113 0)
(0.119431 -8.55116e-05 0)
(0.119478 -5.49321e-05 0)
(0.119505 -2.43821e-05 0)
(0.119511 6.13072e-06 0)
(0.119496 3.65989e-05 0)
(0.119462 6.70149e-05 0)
(0.119407 9.73715e-05 0)
(0.119332 0.000127661 0)
(0.119237 0.000157878 0)
(0.119121 0.000188013 0)
(0.118986 0.000218061 0)
(0.118831 0.000248014 0)
(0.118655 0.000277866 0)
(0.11846 0.00030761 0)
(0.118245 0.000337239 0)
(0.11801 0.000366747 0)
(0.117756 0.000396128 0)
(0.117482 0.000425374 0)
(0.117188 0.000454479 0)
(0.116876 0.000483438 0)
(0.116544 0.000512243 0)
(0.116192 0.000540889 0)
(0.115822 0.000569368 0)
(0.115433 0.000597676 0)
(0.115025 0.000625804 0)
(0.114598 0.000653749 0)
(0.114153 0.000681502 0)
(0.11369 0.000709058 0)
(0.113208 0.000736411 0)
(0.112707 0.000763555 0)
(0.112189 0.000790483 0)
(0.111653 0.00081719 0)
(0.111099 0.000843669 0)
(0.110528 0.000869915 0)
(0.109939 0.000895922 0)
(0.109333 0.000921683 0)
(0.10871 0.000947194 0)
(0.10807 0.000972448 0)
(0.107413 0.00099744 0)
(0.10674 0.00102216 0)
(0.10605 0.00104661 0)
(0.105344 0.00107079 0)
(0.104622 0.00109467 0)
(0.103884 0.00111827 0)
(0.10313 0.00114158 0)
(0.102361 0.00116458 0)
(0.101577 0.00118729 0)
(0.100778 0.00120968 0)
(0.0999639 0.00123176 0)
(0.0991353 0.00125353 0)
(0.0982922 0.00127497 0)
(0.0974349 0.00129609 0)
(0.0965636 0.00131689 0)
(0.0956786 0.00133735 0)
(0.0947801 0.00135747 0)
(0.0938683 0.00137726 0)
(0.0929433 0.00139671 0)
(0.0920056 0.00141582 0)
(0.0910552 0.00143458 0)
(0.0900924 0.001453 0)
(0.0891174 0.00147106 0)
(0.0881305 0.00148878 0)
(0.0871319 0.00150615 0)
(0.0861219 0.00152316 0)
(0.0851006 0.00153982 0)
(0.0840684 0.00155613 0)
(0.0830254 0.00157209 0)
(0.0819718 0.00158769 0)
(0.080908 0.00160295 0)
(0.0798341 0.00161785 0)
(0.0787504 0.0016324 0)
(0.0776572 0.0016466 0)
(0.0765545 0.00166045 0)
(0.0754428 0.00167396 0)
(0.0743222 0.00168713 0)
(0.0731929 0.00169995 0)
(0.0720552 0.00171243 0)
(0.0709092 0.00172458 0)
(0.0697553 0.00173639 0)
(0.0685936 0.00174787 0)
(0.0674244 0.00175903 0)
(0.0662479 0.00176986 0)
(0.0650642 0.00178037 0)
(0.0638737 0.00179057 0)
(0.0626764 0.00180045 0)
(0.0614727 0.00181003 0)
(0.0602627 0.0018193 0)
(0.0590466 0.00182827 0)
(0.0578246 0.00183695 0)
(0.056597 0.00184534 0)
(0.0553638 0.00185344 0)
(0.0541254 0.00186127 0)
(0.0528818 0.00186881 0)
(0.0516333 0.00187609 0)
(0.05038 0.0018831 0)
(0.0491222 0.00188986 0)
(0.0478599 0.00189635 0)
(0.0465934 0.0019026 0)
(0.0453228 0.0019086 0)
(0.0440483 0.00191436 0)
(0.04277 0.00191989 0)
(0.0414882 0.00192519 0)
(0.0402028 0.00193026 0)
(0.0389142 0.00193511 0)
(0.0376224 0.00193975 0)
(0.0363276 0.00194418 0)
(0.0350299 0.00194841 0)
(0.0337295 0.00195243 0)
(0.0324264 0.00195626 0)
(0.0311209 0.00195989 0)
(0.029813 0.00196334 0)
(0.0285029 0.00196661 0)
(0.0271906 0.0019697 0)
(0.0258764 0.00197261 0)
(0.0245603 0.00197536 0)
(0.0232424 0.00197793 0)
(0.0219228 0.00198035 0)
(0.0206017 0.0019826 0)
(0.0192792 0.0019847 0)
(0.0179553 0.00198664 0)
(0.0166301 0.00198843 0)
(0.0153039 0.00199007 0)
(0.0139765 0.00199157 0)
(0.0126483 0.00199292 0)
(0.0113191 0.00199414 0)
(0.00998923 0.00199521 0)
(0.00865867 0.00199614 0)
(0.00732754 0.00199694 0)
(0.00599592 0.0019976 0)
(0.0046639 0.00199813 0)
(0.00333158 0.00199853 0)
(0.00199903 0.00199879 0)
(0.000666358 0.00199892 0)
(0.000686568 -0.00343227 0)
(0.00205966 -0.00343204 0)
(0.00343261 -0.00343157 0)
(0.00480533 -0.00343088 0)
(0.00617774 -0.00342996 0)
(0.00754973 -0.00342881 0)
(0.00892121 -0.00342741 0)
(0.0102921 -0.00342578 0)
(0.0116623 -0.00342391 0)
(0.0130317 -0.00342179 0)
(0.0144002 -0.00341943 0)
(0.0157677 -0.00341681 0)
(0.0171341 -0.00341393 0)
(0.0184993 -0.00341079 0)
(0.0198632 -0.00340738 0)
(0.0212257 -0.00340369 0)
(0.0225866 -0.00339973 0)
(0.023946 -0.00339548 0)
(0.0253035 -0.00339093 0)
(0.0266593 -0.00338609 0)
(0.028013 -0.00338093 0)
(0.0293646 -0.00337546 0)
(0.0307139 -0.00336966 0)
(0.0320609 -0.00336354 0)
(0.0334054 -0.00335707 0)
(0.0347472 -0.00335024 0)
(0.0360862 -0.00334306 0)
(0.0374223 -0.00333551 0)
(0.0387553 -0.00332758 0)
(0.0400851 -0.00331927 0)
(0.0414114 -0.00331055 0)
(0.0427342 -0.00330143 0)
(0.0440533 -0.00329188 0)
(0.0453685 -0.00328191 0)
(0.0466796 -0.0032715 0)
(0.0479865 -0.00326063 0)
(0.049289 -0.00324931 0)
(0.0505868 -0.00323751 0)
(0.0518799 -0.00322524 0)
(0.0531679 -0.00321247 0)
(0.0544507 -0.0031992 0)
(0.0557282 -0.00318541 0)
(0.057 -0.0031711 0)
(0.058266 -0.00315626 0)
(0.059526 -0.00314088 0)
(0.0607797 -0.00312494 0)
(0.062027 -0.00310844 0)
(0.0632675 -0.00309137 0)
(0.0645011 -0.00307371 0)
(0.0657275 -0.00305547 0)
(0.0669465 -0.00303663 0)
(0.0681579 -0.00301718 0)
(0.0693614 -0.00299712 0)
(0.0705567 -0.00297644 0)
(0.0717437 -0.00295513 0)
(0.072922 -0.00293318 0)
(0.0740914 -0.00291059 0)
(0.0752516 -0.00288736 0)
(0.0764024 -0.00286348 0)
(0.0775436 -0.00283894 0)
(0.0786748 -0.00281374 0)
(0.0797958 -0.00278788 0)
(0.0809063 -0.00276135 0)
(0.082006 -0.00273415 0)
(0.0830948 -0.00270628 0)
(0.0841723 -0.00267774 0)
(0.0852382 -0.00264853 0)
(0.0862923 -0.00261865 0)
(0.0873343 -0.0025881 0)
(0.088364 -0.00255689 0)
(0.089381 -0.002525 0)
(0.0903852 -0.00249245 0)
(0.0913762 -0.00245925 0)
(0.0923538 -0.00242538 0)
(0.0933177 -0.00239087 0)
(0.0942676 -0.00235571 0)
(0.0952034 -0.00231992 0)
(0.0961247 -0.00228349 0)
(0.0970313 -0.00224644 0)
(0.097923 -0.00220877 0)
(0.0987994 -0.0021705 0)
(0.0996604 -0.00213163 0)
(0.100506 -0.00209217 0)
(0.101335 -0.00205214 0)
(0.102148 -0.00201154 0)
(0.102945 -0.00197038 0)
(0.103726 -0.00192869 0)
(0.104489 -0.00188646 0)
(0.105236 -0.00184372 0)
(0.105965 -0.00180048 0)
(0.106677 -0.00175675 0)
(0.107371 -0.00171254 0)
(0.108048 -0.00166788 0)
(0.108707 -0.00162277 0)
(0.109347 -0.00157723 0)
(0.109969 -0.00153128 0)
(0.110573 -0.00148493 0)
(0.111158 -0.0014382 0)
(0.111724 -0.00139111 0)
(0.112271 -0.00134366 0)
(0.112799 -0.00129589 0)
(0.113309 -0.00124779 0)
(0.113798 -0.0011994 0)
(0.114269 -0.00115072 0)
(0.114719 -0.00110178 0)
(0.11515 -0.00105258 0)
(0.115562 -0.00100315 0)
(0.115953 -0.000953509 0)
(0.116325 -0.000903663 0)
(0.116677 -0.000853632 0)
(0.117008 -0.000803433 0)
(0.11732 -0.000753081 0)
(0.117611 -0.000702592 0)
(0.117882 -0.000651982 0)
(0.118133 -0.000601266 0)
(0.118363 -0.00055046 0)
(0.118573 -0.000499577 0)
(0.118763 -0.000448634 0)
(0.118932 -0.000397645 0)
(0.119081 -0.000346623 0)
(0.119209 -0.000295584 0)
(0.119318 -0.000244541 0)
(0.119405 -0.000193507 0)
(0.119472 -0.000142496 0)
(0.119519 -9.15217e-05 0)
(0.119545 -4.05965e-05 0)
(0.119551 1.02666e-05 0)
(0.119537 6.10551e-05 0)
(0.119502 0.000111757 0)
(0.119447 0.000162359 0)
(0.119372 0.00021285 0)
(0.119277 0.000263218 0)
(0.119161 0.000313452 0)
(0.119026 0.000363539 0)
(0.11887 0.000413468 0)
(0.118695 0.000463229 0)
(0.118499 0.00051281 0)
(0.118284 0.000562199 0)
(0.118049 0.000611387 0)
(0.117795 0.000660361 0)
(0.117521 0.000709112 0)
(0.117227 0.000757628 0)
(0.116914 0.0008059 0)
(0.116582 0.000853915 0)
(0.116231 0.000901665 0)
(0.11586 0.000949138 0)
(0.115471 0.000996324 0)
(0.115062 0.00104321 0)
(0.114636 0.00108979 0)
(0.11419 0.00113605 0)
(0.113726 0.00118199 0)
(0.113244 0.00122758 0)
(0.112743 0.00127283 0)
(0.112225 0.00131772 0)
(0.111689 0.00136223 0)
(0.111134 0.00140637 0)
(0.110563 0.00145012 0)
(0.109974 0.00149347 0)
(0.109367 0.00153642 0)
(0.108744 0.00157894 0)
(0.108103 0.00162104 0)
(0.107446 0.0016627 0)
(0.106772 0.00170391 0)
(0.106082 0.00174467 0)
(0.105376 0.00178496 0)
(0.104653 0.00182478 0)
(0.103915 0.00186411 0)
(0.103161 0.00190296 0)
(0.102392 0.00194131 0)
(0.101607 0.00197915 0)
(0.100808 0.00201648 0)
(0.0999931 0.00205329 0)
(0.099164 0.00208957 0)
(0.0983205 0.00212531 0)
(0.0974628 0.00216052 0)
(0.0965911 0.00219518 0)
(0.0957057 0.00222928 0)
(0.0948067 0.00226283 0)
(0.0938944 0.00229581 0)
(0.092969 0.00232823 0)
(0.0920308 0.00236008 0)
(0.0910799 0.00239135 0)
(0.0901167 0.00242205 0)
(0.0891412 0.00245216 0)
(0.0881539 0.00248169 0)
(0.0871548 0.00251064 0)
(0.0861443 0.00253899 0)
(0.0851226 0.00256676 0)
(0.0840899 0.00259395 0)
(0.0830464 0.00262054 0)
(0.0819924 0.00264655 0)
(0.0809281 0.00267197 0)
(0.0798537 0.0026968 0)
(0.0787696 0.00272105 0)
(0.0776758 0.00274472 0)
(0.0765728 0.00276781 0)
(0.0754606 0.00279032 0)
(0.0743395 0.00281225 0)
(0.0732097 0.00283362 0)
(0.0720716 0.00285442 0)
(0.0709252 0.00287467 0)
(0.0697708 0.00289435 0)
(0.0686087 0.00291348 0)
(0.0674391 0.00293207 0)
(0.0662621 0.00295012 0)
(0.065078 0.00296764 0)
(0.063887 0.00298463 0)
(0.0626894 0.00300109 0)
(0.0614852 0.00301705 0)
(0.0602748 0.0030325 0)
(0.0590583 0.00304745 0)
(0.057836 0.00306191 0)
(0.0566079 0.00307588 0)
(0.0553744 0.00308938 0)
(0.0541356 0.00310242 0)
(0.0528917 0.00311499 0)
(0.0516428 0.00312711 0)
(0.0503892 0.00313879 0)
(0.049131 0.00315004 0)
(0.0478684 0.00316086 0)
(0.0466015 0.00317127 0)
(0.0453306 0.00318127 0)
(0.0440558 0.00319087 0)
(0.0427772 0.00320007 0)
(0.041495 0.0032089 0)
(0.0402094 0.00321735 0)
(0.0389205 0.00322543 0)
(0.0376284 0.00323316 0)
(0.0363334 0.00324053 0)
(0.0350354 0.00324757 0)
(0.0337347 0.00325427 0)
(0.0324314 0.00326064 0)
(0.0311256 0.0032667 0)
(0.0298175 0.00327244 0)
(0.0285071 0.00327789 0)
(0.0271946 0.00328303 0)
(0.0258802 0.00328788 0)
(0.0245638 0.00329245 0)
(0.0232457 0.00329674 0)
(0.0219259 0.00330076 0)
(0.0206046 0.00330451 0)
(0.0192819 0.003308 0)
(0.0179578 0.00331123 0)
(0.0166324 0.00331421 0)
(0.0153059 0.00331695 0)
(0.0139784 0.00331944 0)
(0.01265 0.0033217 0)
(0.0113206 0.00332371 0)
(0.00999056 0.0033255 0)
(0.00865982 0.00332706 0)
(0.00732851 0.00332839 0)
(0.00599671 0.00332949 0)
(0.00466452 0.00333037 0)
(0.00333201 0.00333103 0)
(0.0019993 0.00333147 0)
(0.000666446 0.00333168 0)
(0.000686706 -0.00480549 0)
(0.00206007 -0.00480517 0)
(0.0034333 -0.00480453 0)
(0.00480631 -0.00480356 0)
(0.00617899 -0.00480228 0)
(0.00755126 -0.00480066 0)
(0.00892303 -0.00479872 0)
(0.0102942 -0.00479644 0)
(0.0116647 -0.00479382 0)
(0.0130344 -0.00479086 0)
(0.0144032 -0.00478755 0)
(0.015771 -0.00478389 0)
(0.0171377 -0.00477987 0)
(0.0185032 -0.00477548 0)
(0.0198674 -0.00477071 0)
(0.0212303 -0.00476556 0)
(0.0225916 -0.00476002 0)
(0.0239513 -0.00475408 0)
(0.0253092 -0.00474773 0)
(0.0266653 -0.00474095 0)
(0.0280194 -0.00473375 0)
(0.0293713 -0.0047261 0)
(0.0307211 -0.004718 0)
(0.0320685 -0.00470943 0)
(0.0334134 -0.00470038 0)
(0.0347556 -0.00469085 0)
(0.0360951 -0.00468081 0)
(0.0374316 -0.00467025 0)
(0.0387651 -0.00465916 0)
(0.0400953 -0.00464753 0)
(0.0414222 -0.00463534 0)
(0.0427455 -0.00462258 0)
(0.0440651 -0.00460924 0)
(0.0453808 -0.00459529 0)
(0.0466924 -0.00458072 0)
(0.0479999 -0.00456553 0)
(0.0493029 -0.00454969 0)
(0.0506013 -0.00453319 0)
(0.0518949 -0.00451602 0)
(0.0531836 -0.00449816 0)
(0.054467 -0.00447959 0)
(0.0557451 -0.00446031 0)
(0.0570175 -0.00444029 0)
(0.0582842 -0.00441953 0)
(0.0595448 -0.004398 0)
(0.0607992 -0.0043757 0)
(0.0620471 -0.00435261 0)
(0.0632884 -0.00432873 0)
(0.0645227 -0.00430402 0)
(0.0657498 -0.0042785 0)
(0.0669696 -0.00425213 0)
(0.0681817 -0.00422491 0)
(0.0693859 -0.00419684 0)
(0.070582 -0.00416789 0)
(0.0717697 -0.00413807 0)
(0.0729487 -0.00410735 0)
(0.0741189 -0.00407574 0)
(0.0752799 -0.00404322 0)
(0.0764315 -0.00400979 0)
(0.0775735 -0.00397544 0)
(0.0787055 -0.00394016 0)
(0.0798273 -0.00390396 0)
(0.0809386 -0.00386682 0)
(0.0820391 -0.00382875 0)
(0.0831287 -0.00378973 0)
(0.084207 -0.00374978 0)
(0.0852737 -0.00370889 0)
(0.0863286 -0.00366705 0)
(0.0873714 -0.00362428 0)
(0.0884019 -0.00358057 0)
(0.0894198 -0.00353593 0)
(0.0904247 -0.00349036 0)
(0.0914165 -0.00344386 0)
(0.0923949 -0.00339645 0)
(0.0933595 -0.00334812 0)
(0.0943103 -0.00329889 0)
(0.0952468 -0.00324877 0)
(0.0961688 -0.00319776 0)
(0.0970762 -0.00314588 0)
(0.0979686 -0.00309313 0)
(0.0988458 -0.00303954 0)
(0.0997075 -0.0029851 0)
(0.100554 -0.00292985 0)
(0.101384 -0.00287378 0)
(0.102198 -0.00281693 0)
(0.102995 -0.00275929 0)
(0.103776 -0.0027009 0)
(0.10454 -0.00264177 0)
(0.105288 -0.00258192 0)
(0.106017 -0.00252136 0)
(0.10673 -0.00246011 0)
(0.107425 -0.00239821 0)
(0.108102 -0.00233565 0)
(0.108761 -0.00227248 0)
(0.109402 -0.00220871 0)
(0.110025 -0.00214435 0)
(0.110629 -0.00207944 0)
(0.111214 -0.002014 0)
(0.111781 -0.00194804 0)
(0.112328 -0.00188159 0)
(0.112857 -0.00181468 0)
(0.113366 -0.00174733 0)
(0.113857 -0.00167955 0)
(0.114327 -0.00161138 0)
(0.114778 -0.00154284 0)
(0.11521 -0.00147394 0)
(0.115621 -0.00140472 0)
(0.116013 -0.00133519 0)
(0.116385 -0.00126539 0)
(0.116737 -0.00119532 0)
(0.117069 -0.00112502 0)
(0.11738 -0.0010545 0)
(0.117672 -0.000983798 0)
(0.117943 -0.000912923 0)
(0.118194 -0.000841899 0)
(0.118424 -0.000770749 0)
(0.118634 -0.000699493 0)
(0.118824 -0.000628152 0)
(0.118993 -0.000556747 0)
(0.119142 -0.000485297 0)
(0.119271 -0.000413823 0)
(0.119379 -0.000342343 0)
(0.119466 -0.000270877 0)
(0.119533 -0.000199443 0)
(0.11958 -0.000128061 0)
(0.119606 -5.67477e-05 0)
(0.119612 1.44783e-05 0)
(0.119598 8.55996e-05 0)
(0.119563 0.000156599 0)
(0.119508 0.000227459 0)
(0.119433 0.000298163 0)
(0.119337 0.000368695 0)
(0.119222 0.000439038 0)
(0.119086 0.000509176 0)
(0.11893 0.000579093 0)
(0.118754 0.000648773 0)
(0.118559 0.000718202 0)
(0.118343 0.000787362 0)
(0.118108 0.00085624 0)
(0.117853 0.000924819 0)
(0.117579 0.000993085 0)
(0.117285 0.00106102 0)
(0.116972 0.00112862 0)
(0.116639 0.00119585 0)
(0.116288 0.00126272 0)
(0.115917 0.0013292 0)
(0.115527 0.00139527 0)
(0.115119 0.00146093 0)
(0.114691 0.00152616 0)
(0.114245 0.00159094 0)
(0.113781 0.00165526 0)
(0.113298 0.00171911 0)
(0.112797 0.00178246 0)
(0.112279 0.00184532 0)
(0.111742 0.00190766 0)
(0.111187 0.00196947 0)
(0.110615 0.00203073 0)
(0.110025 0.00209144 0)
(0.109419 0.00215157 0)
(0.108795 0.00221112 0)
(0.108154 0.00227007 0)
(0.107496 0.0023284 0)
(0.106822 0.00238611 0)
(0.106131 0.00244318 0)
(0.105424 0.0024996 0)
(0.104701 0.00255536 0)
(0.103962 0.00261045 0)
(0.103208 0.00266484 0)
(0.102438 0.00271854 0)
(0.101652 0.00277153 0)
(0.100852 0.0028238 0)
(0.100037 0.00287534 0)
(0.0992072 0.00292614 0)
(0.0983631 0.0029762 0)
(0.0975047 0.00302549 0)
(0.0966323 0.00307402 0)
(0.0957462 0.00312178 0)
(0.0948466 0.00316875 0)
(0.0939336 0.00321493 0)
(0.0930075 0.00326033 0)
(0.0920686 0.00330492 0)
(0.0911171 0.0033487 0)
(0.0901531 0.00339168 0)
(0.089177 0.00343384 0)
(0.0881889 0.00347518 0)
(0.0871892 0.00351571 0)
(0.086178 0.00355541 0)
(0.0851555 0.00359429 0)
(0.0841221 0.00363235 0)
(0.0830779 0.00366958 0)
(0.0820232 0.00370599 0)
(0.0809582 0.00374158 0)
(0.0798831 0.00377634 0)
(0.0787983 0.00381029 0)
(0.0777039 0.00384342 0)
(0.0766001 0.00387574 0)
(0.0754872 0.00390725 0)
(0.0743654 0.00393795 0)
(0.073235 0.00396786 0)
(0.0720961 0.00399698 0)
(0.0709491 0.00402531 0)
(0.0697941 0.00405286 0)
(0.0686313 0.00407964 0)
(0.067461 0.00410566 0)
(0.0662834 0.00413092 0)
(0.0650987 0.00415543 0)
(0.0639071 0.0041792 0)
(0.0627088 0.00420225 0)
(0.061504 0.00422458 0)
(0.060293 0.00424619 0)
(0.0590759 0.00426711 0)
(0.057853 0.00428734 0)
(0.0566244 0.0043069 0)
(0.0553903 0.00432579 0)
(0.0541509 0.00434402 0)
(0.0529064 0.00436162 0)
(0.051657 0.00437858 0)
(0.0504029 0.00439492 0)
(0.0491442 0.00441065 0)
(0.0478811 0.00442579 0)
(0.0466137 0.00444035 0)
(0.0453423 0.00445433 0)
(0.044067 0.00446776 0)
(0.042788 0.00448064 0)
(0.0415054 0.00449298 0)
(0.0402193 0.0045048 0)
(0.03893 0.0045161 0)
(0.0376375 0.00452691 0)
(0.036342 0.00453722 0)
(0.0350436 0.00454706 0)
(0.0337425 0.00455643 0)
(0.0324388 0.00456535 0)
(0.0311327 0.00457382 0)
(0.0298242 0.00458185 0)
(0.0285134 0.00458946 0)
(0.0272006 0.00459665 0)
(0.0258858 0.00460343 0)
(0.0245691 0.00460982 0)
(0.0232507 0.00461582 0)
(0.0219306 0.00462143 0)
(0.0206089 0.00462668 0)
(0.0192859 0.00463156 0)
(0.0179615 0.00463608 0)
(0.0166358 0.00464025 0)
(0.0153091 0.00464407 0)
(0.0139813 0.00464755 0)
(0.0126525 0.0046507 0)
(0.0113229 0.00465353 0)
(0.00999256 0.00465602 0)
(0.00866155 0.0046582 0)
(0.00732996 0.00466005 0)
(0.0059979 0.0046616 0)
(0.00466544 0.00466283 0)
(0.00333267 0.00466375 0)
(0.00199969 0.00466436 0)
(0.000666577 0.00466466 0)
(0.00068689 -0.00617905 0)
(0.00206062 -0.00617863 0)
(0.00343422 -0.00617781 0)
(0.0048076 -0.00617657 0)
(0.00618065 -0.00617492 0)
(0.0075533 -0.00617285 0)
(0.00892545 -0.00617035 0)
(0.010297 -0.00616743 0)
(0.0116679 -0.00616407 0)
(0.0130379 -0.00616028 0)
(0.0144071 -0.00615603 0)
(0.0157754 -0.00615134 0)
(0.0171425 -0.00614618 0)
(0.0185085 -0.00614054 0)
(0.0198731 -0.00613443 0)
(0.0212364 -0.00612783 0)
(0.0225982 -0.00612072 0)
(0.0239583 -0.00611309 0)
(0.0253167 -0.00610494 0)
(0.0266733 -0.00609625 0)
(0.0280279 -0.00608701 0)
(0.0293804 -0.00607719 0)
(0.0307306 -0.0060668 0)
(0.0320786 -0.0060558 0)
(0.033424 -0.00604419 0)
(0.0347668 -0.00603195 0)
(0.0361069 -0.00601907 0)
(0.037444 -0.00600552 0)
(0.0387781 -0.00599129 0)
(0.0401089 -0.00597636 0)
(0.0414364 -0.00596071 0)
(0.0427604 -0.00594433 0)
(0.0440807 -0.00592719 0)
(0.0453971 -0.00590928 0)
(0.0467095 -0.00589058 0)
(0.0480176 -0.00587107 0)
(0.0493214 -0.00585074 0)
(0.0506206 -0.00582955 0)
(0.051915 -0.00580749 0)
(0.0532044 -0.00578455 0)
(0.0544887 -0.00576071 0)
(0.0557676 -0.00573594 0)
(0.0570409 -0.00571023 0)
(0.0583084 -0.00568355 0)
(0.0595699 -0.0056559 0)
(0.0608252 -0.00562725 0)
(0.062074 -0.00559759 0)
(0.0633162 -0.0055669 0)
(0.0645514 -0.00553516 0)
(0.0657795 -0.00550236 0)
(0.0670002 -0.00546848 0)
(0.0682133 -0.00543351 0)
(0.0694185 -0.00539743 0)
(0.0706156 -0.00536023 0)
(0.0718043 -0.00532189 0)
(0.0729844 -0.00528242 0)
(0.0741556 -0.00524179 0)
(0.0753177 -0.00519999 0)
(0.0764703 -0.00515702 0)
(0.0776133 -0.00511286 0)
(0.0787464 -0.00506751 0)
(0.0798692 -0.00502097 0)
(0.0809816 -0.00497323 0)
(0.0820832 -0.00492428 0)
(0.0831739 -0.00487413 0)
(0.0842532 -0.00482276 0)
(0.085321 -0.00477018 0)
(0.086377 -0.00471639 0)
(0.0874209 -0.00466139 0)
(0.0884525 -0.00460519 0)
(0.0894714 -0.00454779 0)
(0.0904774 -0.00448919 0)
(0.0914702 -0.00442939 0)
(0.0924496 -0.00436842 0)
(0.0934153 -0.00430627 0)
(0.0943671 -0.00424296 0)
(0.0953046 -0.0041785 0)
(0.0962277 -0.0041129 0)
(0.097136 -0.00404618 0)
(0.0980294 -0.00397834 0)
(0.0989076 -0.00390941 0)
(0.0997702 -0.0038394 0)
(0.100617 -0.00376833 0)
(0.101448 -0.00369622 0)
(0.102263 -0.00362309 0)
(0.103062 -0.00354896 0)
(0.103843 -0.00347386 0)
(0.104608 -0.0033978 0)
(0.105356 -0.00332081 0)
(0.106087 -0.00324292 0)
(0.1068 -0.00316414 0)
(0.107496 -0.00308451 0)
(0.108174 -0.00300405 0)
(0.108834 -0.00292279 0)
(0.109475 -0.00284076 0)
(0.110098 -0.00275798 0)
(0.110703 -0.00267448 0)
(0.111289 -0.0025903 0)
(0.111856 -0.00250546 0)
(0.112405 -0.00241999 0)
(0.112934 -0.00233392 0)
(0.113444 -0.00224728 0)
(0.113934 -0.0021601 0)
(0.114405 -0.00207241 0)
(0.114857 -0.00198424 0)
(0.115289 -0.00189563 0)
(0.115701 -0.00180659 0)
(0.116093 -0.00171716 0)
(0.116465 -0.00162737 0)
(0.116817 -0.00153724 0)
(0.117149 -0.00144682 0)
(0.117461 -0.00135612 0)
(0.117753 -0.00126517 0)
(0.118024 -0.00117401 0)
(0.118275 -0.00108266 0)
(0.118506 -0.000991143 0)
(0.118716 -0.000899492 0)
(0.118906 -0.000807734 0)
(0.119075 -0.000715892 0)
(0.119224 -0.000623994 0)
(0.119352 -0.000532065 0)
(0.119461 -0.00044013 0)
(0.119548 -0.000348213 0)