/*--------------------------------*- C++ -*----------------------------------*\
| =========                 |                                                 |
| \\      /  F ield         | OpenFOAM: The Open Source CFD Toolbox           |
|  \\    /   O peration     | Version:  v2012                                 |
|   \\  /    A nd           | Website:  www.openfoam.com                      |
|    \\/     M anipulation  |                                                 |
\*---------------------------------------------------------------------------*/
FoamFile
{
    version     2.0;
    format      ascii;
    class       volScalarField;
    location    "0.9";
    object      W;
}
// * * * * * * * * * * * * * * * * * * * * * * * * * * * * * * * * * * * * * //

dimensions      [0 0 -1 0 0 0 0];


internalField   nonuniform List<scalar> 
65536
(
4.45132e-22
1.321e-21
2.22879e-21
3.28621e-21
4.63892e-21
6.44803e-21
8.90226e-21
1.22385e-20
1.67651e-20
2.28879e-20
3.1142e-20
4.22308e-20
5.70763e-20
7.68821e-20
1.03213e-19
1.38098e-19
1.84152e-19
2.4474e-19
3.24169e-19
4.27931e-19
5.63006e-19
7.38221e-19
9.64704e-19
1.25642e-18
1.63083e-18
2.10966e-18
2.71987e-18
3.49473e-18
4.47516e-18
5.71125e-18
7.2641e-18
9.20788e-18
1.16322e-17
1.46451e-17
1.83758e-17
2.29787e-17
2.8637e-17
3.55673e-17
4.40248e-17
5.43081e-17
6.67656e-17
8.18014e-17
9.98821e-17
1.21544e-16
1.474e-16
1.78147e-16
2.14573e-16
2.57566e-16
3.08117e-16
3.67332e-16
4.3643e-16
5.16753e-16
6.09767e-16
7.17062e-16
8.40349e-16
9.81461e-16
1.14234e-15
1.32503e-15
1.53166e-15
1.76445e-15
2.02562e-15
2.31747e-15
2.64225e-15
3.00217e-15
3.39938e-15
3.83588e-15
4.31351e-15
4.83388e-15
5.39833e-15
6.00785e-15
6.66309e-15
7.36421e-15
8.11094e-15
8.90242e-15
9.73725e-15
1.06134e-14
1.15282e-14
1.24783e-14
1.34598e-14
1.44678e-14
1.54972e-14
1.65418e-14
1.75952e-14
1.86502e-14
1.96994e-14
2.07346e-14
2.17477e-14
2.27303e-14
2.36737e-14
2.45696e-14
2.54096e-14
2.61858e-14
2.68904e-14
2.75164e-14
2.80576e-14
2.85081e-14
2.88634e-14
2.91195e-14
2.92739e-14
2.93248e-14
2.92716e-14
2.91151e-14
2.8857e-14
2.85001e-14
2.80484e-14
2.75069e-14
2.68816e-14
2.61793e-14
2.54075e-14
2.45745e-14
2.36891e-14
2.27604e-14
2.17981e-14
2.08117e-14
1.9811e-14
1.88056e-14
1.78052e-14
1.6819e-14
1.58559e-14
1.49244e-14
1.40326e-14
1.3188e-14
1.23975e-14
1.16674e-14
1.10034e-14
1.04106e-14
9.89337e-15
9.45553e-15
9.10016e-15
8.82973e-15
8.64609e-15
8.55043e-15
8.54331e-15
8.62467e-15
8.79379e-15
9.04934e-15
9.38933e-15
9.81113e-15
1.03114e-14
1.08863e-14
1.1531e-14
1.22404e-14
1.30084e-14
1.38284e-14
1.46932e-14
1.55948e-14
1.65251e-14
1.74749e-14
1.8435e-14
1.93958e-14
2.03472e-14
2.12793e-14
2.2182e-14
2.30452e-14
2.38593e-14
2.46148e-14
2.53029e-14
2.59153e-14
2.64446e-14
2.68843e-14
2.72287e-14
2.74734e-14
2.7615e-14
2.76516e-14
2.75821e-14
2.74072e-14
2.71285e-14
2.67488e-14
2.62723e-14
2.57041e-14
2.50504e-14
2.43181e-14
2.3515e-14
2.26495e-14
2.17303e-14
2.07666e-14
1.97676e-14
1.87425e-14
1.77005e-14
1.66503e-14
1.56005e-14
1.4559e-14
1.35331e-14
1.25295e-14
1.15541e-14
1.06123e-14
9.70833e-15
8.8459e-15
8.02785e-15
7.25628e-15
6.53258e-15
5.85746e-15
5.23101e-15
4.65277e-15
4.12179e-15
3.63669e-15
3.19574e-15
2.79691e-15
2.43797e-15
2.11649e-15
1.82997e-15
1.57582e-15
1.35147e-15
1.15436e-15
9.81986e-16
8.3196e-16
7.01988e-16
5.8991e-16
4.93708e-16
4.11511e-16
3.41601e-16
2.8241e-16
2.32523e-16
1.90667e-16
1.55707e-16
1.26637e-16
1.02574e-16
8.27428e-17
6.64729e-17
5.31837e-17
4.23771e-17
3.3628e-17
2.6576e-17
2.09168e-17
1.63953e-17
1.27985e-17
9.9498e-18
7.70347e-18
5.93984e-18
4.5612e-18
3.48819e-18
2.65666e-18
2.01506e-18
1.52214e-18
1.14509e-18
8.57904e-19
6.4011e-19
4.75649e-19
3.51993e-19
2.59418e-19
1.90406e-19
1.39181e-19
1.0132e-19
7.34565e-20
5.30375e-20
3.81376e-20
2.73114e-20
1.94783e-20
1.38347e-20
9.78509e-21
6.88903e-21
4.81924e-21
3.32627e-21
2.2082e-21
1.29027e-21
4.31877e-22
1.39829e-21
4.15311e-21
7.01125e-21
1.03403e-20
1.45972e-20
2.02884e-20
2.80071e-20
3.84982e-20
5.27303e-20
7.19786e-20
9.79236e-20
1.32775e-19
1.79427e-19
2.41659e-19
3.24386e-19
4.33971e-19
5.78629e-19
7.68917e-19
1.01835e-18
1.34416e-18
1.76825e-18
2.31831e-18
3.02924e-18
3.94484e-18
5.11987e-18
6.62249e-18
8.53719e-18
1.09683e-17
1.40441e-17
1.79217e-17
2.27925e-17
2.88889e-17
3.64921e-17
4.59401e-17
5.76383e-17
7.20702e-17
8.98098e-17
1.11536e-16
1.38048e-16
1.70281e-16
2.09327e-16
2.5645e-16
3.13113e-16
3.80995e-16
4.62014e-16
5.58354e-16
6.72483e-16
8.07178e-16
9.65546e-16
1.15104e-15
1.36749e-15
1.61909e-15
1.91043e-15
2.24648e-15
2.6326e-15
3.07453e-15
3.57834e-15
4.15043e-15
4.79748e-15
5.52637e-15
6.34415e-15
7.25793e-15
8.27478e-15
9.40163e-15
1.06452e-14
1.20117e-14
1.35069e-14
1.51359e-14
1.69028e-14
1.88108e-14
2.08618e-14
2.30564e-14
2.53936e-14
2.78709e-14
3.04838e-14
3.3226e-14
3.60892e-14
3.90627e-14
4.21342e-14
4.5289e-14
4.85103e-14
5.17794e-14
5.50759e-14
5.83775e-14
6.16604e-14
6.49e-14
6.80702e-14
7.11447e-14
7.40968e-14
7.69001e-14
7.95284e-14
8.19568e-14
8.41613e-14
8.612e-14
8.78129e-14
8.92223e-14
9.03335e-14
9.11347e-14
9.16172e-14
9.17758e-14
9.16091e-14
9.11187e-14
9.03103e-14
8.91929e-14
8.77789e-14
8.60839e-14
8.41264e-14
8.19279e-14
7.95121e-14
7.69046e-14
7.4133e-14
7.12261e-14
6.82135e-14
6.51256e-14
6.19928e-14
5.88453e-14
5.57131e-14
5.2625e-14
4.96089e-14
4.66916e-14
4.3898e-14
4.12517e-14
3.87742e-14
3.64853e-14
3.44028e-14
3.25426e-14
3.09182e-14
2.95416e-14
2.84223e-14
2.75681e-14
2.69846e-14
2.66756e-14
2.66428e-14
2.68859e-14
2.74028e-14
2.81891e-14
2.92388e-14
3.05434e-14
3.20928e-14
3.38746e-14
3.58743e-14
3.80754e-14
4.04592e-14
4.30052e-14
4.56908e-14
4.84915e-14
5.13812e-14
5.43321e-14
5.73154e-14
6.03008e-14
6.32575e-14
6.61543e-14
6.89597e-14
7.16427e-14
7.4173e-14
7.65213e-14
7.86602e-14
8.0564e-14
8.22094e-14
8.35762e-14
8.46469e-14
8.54077e-14
8.58482e-14
8.59619e-14
8.57463e-14
8.52027e-14
8.43363e-14
8.31562e-14
8.16751e-14
7.99089e-14
7.78767e-14
7.56004e-14
7.31039e-14
7.04133e-14
6.75559e-14
6.45599e-14
6.14542e-14
5.82675e-14
5.5028e-14
5.17634e-14
4.84997e-14
4.52618e-14
4.20724e-14
3.89523e-14
3.59202e-14
3.2992e-14
3.01817e-14
2.75005e-14
2.49573e-14
2.25586e-14
2.03087e-14
1.82098e-14
1.62622e-14
1.44645e-14
1.28137e-14
1.13056e-14
9.93476e-15
8.69487e-15
7.57896e-15
6.57954e-15
5.68879e-15
4.89869e-15
4.20122e-15
3.58843e-15
3.05257e-15
2.58618e-15
2.18213e-15
1.83372e-15
1.53466e-15
1.27914e-15
1.06181e-15
8.77818e-16
7.22743e-16
5.92634e-16
4.83961e-16
3.93601e-16
3.18804e-16
2.57164e-16
2.06593e-16
1.65287e-16
1.31699e-16
1.04507e-16
8.25888e-17
6.50005e-17
5.09481e-17
3.977e-17
3.09172e-17
2.39364e-17
1.84559e-17
1.41718e-17
1.08376e-17
8.25379e-18
6.26023e-18
4.72871e-18
3.55722e-18
2.66498e-18
1.98835e-18
1.47743e-18
1.09329e-18
8.05716e-19
5.9135e-19
4.32238e-19
3.14644e-19
2.28104e-19
1.64688e-19
1.18416e-19
8.47966e-20
6.04732e-20
4.29495e-20
3.03757e-20
2.13841e-20
1.4958e-20
1.03225e-20
6.85053e-21
4.00049e-21
1.338e-21
2.61179e-21
7.76221e-21
1.31104e-20
1.93398e-20
2.73022e-20
3.79439e-20
5.23739e-20
7.19834e-20
9.85819e-20
1.34551e-19
1.83027e-19
2.48136e-19
3.35281e-19
4.51516e-19
6.06009e-19
8.10639e-19
1.08073e-18
1.43597e-18
1.90158e-18
2.5097e-18
3.30115e-18
4.32759e-18
5.65408e-18
7.36228e-18
9.55425e-18
1.2357e-17
1.59281e-17
2.04618e-17
2.61973e-17
3.3427e-17
4.25077e-17
5.38723e-17
6.80443e-17
8.56534e-17
1.07454e-16
1.34347e-16
1.674e-16
2.07878e-16
2.57266e-16
3.17308e-16
3.90032e-16
4.77794e-16
5.83312e-16
7.0971e-16
8.60557e-16
1.03991e-15
1.25236e-15
1.50308e-15
1.79783e-15
2.14304e-15
2.54582e-15
3.01396e-15
3.55599e-15
4.18115e-15
4.89939e-15
5.72136e-15
6.65834e-15
7.72222e-15
8.92536e-15
1.02806e-14
1.18009e-14
1.34995e-14
1.53895e-14
1.74838e-14
1.97947e-14
2.23338e-14
2.51118e-14
2.8138e-14
3.142e-14
3.49637e-14
3.87726e-14
4.28477e-14
4.71871e-14
5.1786e-14
5.6636e-14
6.17254e-14
6.70384e-14
7.25556e-14
7.82537e-14
8.41053e-14
9.00795e-14
9.61413e-14
1.02253e-13
1.08372e-13
1.14456e-13
1.20459e-13
1.26331e-13
1.32025e-13
1.3749e-13
1.42678e-13
1.47541e-13
1.52031e-13
1.56106e-13
1.59724e-13
1.62847e-13
1.65445e-13
1.67489e-13
1.68958e-13
1.69836e-13
1.70113e-13
1.69787e-13
1.68861e-13
1.67346e-13
1.65259e-13
1.62622e-13
1.59465e-13
1.55823e-13
1.51735e-13
1.47244e-13
1.424e-13
1.37253e-13
1.31856e-13
1.26265e-13
1.20535e-13
1.14722e-13
1.08884e-13
1.03074e-13
9.73475e-14
9.17545e-14
8.63448e-14
8.11646e-14
7.62572e-14
7.16623e-14
6.74165e-14
6.35523e-14
6.00987e-14
5.7081e-14
5.45207e-14
5.24354e-14
5.08391e-14
4.97422e-14
4.91512e-14
4.90691e-14
4.94953e-14
5.04255e-14
5.18516e-14
5.37621e-14
5.61416e-14
5.8971e-14
6.22273e-14
6.58838e-14
6.99099e-14
7.42715e-14
7.89303e-14
8.38449e-14
8.89703e-14
9.42585e-14
9.96584e-14
1.05117e-13
1.10579e-13
1.15987e-13
1.21285e-13
1.26415e-13
1.31319e-13
1.35943e-13
1.40233e-13
1.44139e-13
1.47613e-13
1.50614e-13
1.53103e-13
1.5505e-13
1.56429e-13
1.57222e-13
1.57416e-13
1.57007e-13
1.55998e-13
1.54398e-13
1.52225e-13
1.49501e-13
1.46256e-13
1.42524e-13
1.38347e-13
1.33768e-13
1.28834e-13
1.23596e-13
1.18105e-13
1.12415e-13
1.06577e-13
1.00645e-13
9.46665e-14
8.86913e-14
8.2764e-14
7.69264e-14
7.12166e-14
6.56683e-14
6.0311e-14
5.51699e-14
5.02655e-14
4.56139e-14
4.12271e-14
3.71129e-14
3.32752e-14
2.97145e-14
2.64281e-14
2.34106e-14
2.06541e-14
1.81486e-14
1.58827e-14
1.38435e-14
1.20173e-14
1.03898e-14
8.94632e-15
7.67215e-15
6.55274e-15
5.57394e-15
4.72208e-15
3.98413e-15
3.34783e-15
2.8017e-15
2.33511e-15
1.93828e-15
1.60233e-15
1.3192e-15
1.08167e-15
8.83283e-16
7.18334e-16
5.818e-16
4.6929e-16
3.76989e-16
3.01602e-16
2.40303e-16
1.90678e-16
1.50682e-16
1.18587e-16
9.29463e-17
7.25508e-17
5.63986e-17
4.36627e-17
3.36642e-17
2.58489e-17
1.97665e-17
1.50534e-17
1.14171e-17
8.62361e-18
6.48693e-18
4.85965e-18
3.62565e-18
2.6939e-18
1.9934e-18
1.469e-18
1.07812e-18
7.88003e-19
5.73595e-19
4.15815e-19
3.00201e-19
2.15845e-19
1.54558e-19
1.10219e-19
7.82767e-20
5.53581e-20
3.89695e-20
2.7257e-20
1.88079e-20
1.24791e-20
7.28465e-21
2.43529e-21
4.39128e-21
1.30553e-20
2.20566e-20
3.2541e-20
4.59389e-20
6.38414e-20
8.81131e-20
1.21093e-19
1.65823e-19
2.26304e-19
3.0781e-19
4.17271e-19
5.63766e-19
7.59142e-19
1.0188e-18
1.3627e-18
1.81657e-18
2.41348e-18
3.19576e-18
4.21738e-18
5.54688e-18
7.27096e-18
9.49882e-18
1.23675e-17
1.60483e-17
2.07544e-17
2.67499e-17
3.4361e-17
4.39885e-17
5.61233e-17
7.13634e-17
9.0435e-17
1.14215e-16
1.4376e-16
1.80335e-16
2.25447e-16
2.80889e-16
3.48777e-16
4.31602e-16
5.32282e-16
6.54217e-16
8.01349e-16
9.78232e-16
1.19009e-15
1.44291e-15
1.74347e-15
2.09945e-15
2.5195e-15
3.01327e-15
3.5915e-15
4.26607e-15
5.05003e-15
5.9576e-15
7.00423e-15
8.20655e-15
9.58231e-15
1.11504e-14
1.29305e-14
1.49435e-14
1.72105e-14
1.97533e-14
2.25939e-14
2.5754e-14
2.92552e-14
3.31179e-14
3.73614e-14
4.20033e-14
4.7059e-14
5.25411e-14
5.84592e-14
6.48188e-14
7.16217e-14
7.88643e-14
8.65384e-14
9.46297e-14
1.03118e-13
1.11978e-13
1.21176e-13
1.30673e-13
1.40423e-13
1.50374e-13
1.60468e-13
1.70642e-13
1.80826e-13
1.90946e-13
2.00927e-13
2.10688e-13
2.20146e-13
2.29221e-13
2.3783e-13
2.45893e-13
2.53333e-13
2.60077e-13
2.66057e-13
2.71212e-13
2.75488e-13
2.78841e-13
2.81235e-13
2.82643e-13
2.83052e-13
2.82456e-13
2.80862e-13
2.78289e-13
2.74764e-13
2.70328e-13
2.65028e-13
2.58923e-13
2.5208e-13
2.44571e-13
2.36477e-13
2.27882e-13
2.18876e-13
2.09551e-13
1.99998e-13
1.90313e-13
1.80588e-13
1.70915e-13
1.61382e-13
1.52074e-13
1.43074e-13
1.34456e-13
1.26294e-13
1.18652e-13
1.11591e-13
1.05164e-13
9.94178e-14
9.43948e-14
9.01297e-14
8.66512e-14
8.39819e-14
8.21382e-14
8.11306e-14
8.09633e-14
8.16347e-14
8.31372e-14
8.5457e-14
8.85746e-14
9.24639e-14
9.7093e-14
1.02424e-13
1.08411e-13
1.15005e-13
1.22149e-13
1.2978e-13
1.37828e-13
1.4622e-13
1.54877e-13
1.63714e-13
1.72645e-13
1.81578e-13
1.90421e-13
1.99079e-13
2.07458e-13
2.15464e-13
2.23008e-13
2.30002e-13
2.36362e-13
2.42014e-13
2.46887e-13
2.50922e-13
2.54066e-13
2.5628e-13
2.57531e-13
2.57803e-13
2.57088e-13
2.55391e-13
2.52728e-13
2.49127e-13
2.44627e-13
2.39277e-13
2.33133e-13
2.26262e-13
2.18737e-13
2.10635e-13
2.02039e-13
1.93033e-13
1.83704e-13
1.74138e-13
1.64419e-13
1.5463e-13
1.44848e-13
1.35148e-13
1.25598e-13
1.16259e-13
1.07187e-13
9.84289e-14
9.00263e-14
8.20124e-14
7.44134e-14
6.72483e-14
6.05297e-14
5.42639e-14
4.84514e-14
4.30877e-14
3.81636e-14
3.36661e-14
2.95789e-14
2.5883e-14
2.25575e-14
1.95798e-14
1.69264e-14
1.45733e-14
1.24965e-14
1.06722e-14
9.07722e-15
7.68926e-15
6.48705e-15
5.45055e-15
4.56102e-15
3.80112e-15
3.15492e-15
2.6079e-15
2.14693e-15
1.76023e-15
1.43729e-15
1.1688e-15
9.46588e-16
7.63486e-16
6.13284e-16
4.90616e-16
3.90878e-16
3.10141e-16
2.45073e-16
1.92864e-16
1.51155e-16
1.17981e-16
9.171e-17
7.09969e-17
5.47366e-17
4.20275e-17
3.21369e-17
2.44732e-17
1.85607e-17
1.40189e-17
1.0545e-17
7.8995e-18
5.8934e-18
4.37874e-18
3.24003e-18
2.38762e-18
1.75225e-18
1.2807e-18
9.3221e-19
6.75769e-19
4.87866e-19
3.50769e-19
2.51166e-19
1.79109e-19
1.27199e-19
8.99551e-20
6.33229e-20
4.429e-20
3.056e-20
2.02757e-20
1.18348e-20
3.95599e-21
7.17525e-21
2.13361e-20
3.60525e-20
5.31935e-20
7.50945e-20
1.04355e-19
1.44021e-19
1.97914e-19
2.71002e-19
3.69821e-19
5.02983e-19
6.81804e-19
9.21108e-19
1.24024e-18
1.66435e-18
2.226e-18
2.9672e-18
3.94192e-18
5.21926e-18
6.88728e-18
9.05782e-18
1.18723e-17
1.5509e-17
2.01914e-17
2.61988e-17
3.38789e-17
4.36626e-17
5.60816e-17
7.17897e-17
9.15867e-17
1.16448e-16
1.47556e-16
1.86342e-16
2.34526e-16
2.94168e-16
3.67727e-16
4.58119e-16
5.68793e-16
7.03805e-16
8.67905e-16
1.06663e-15
1.30639e-15
1.5946e-15
1.93977e-15
2.35161e-15
2.84116e-15
3.42093e-15
4.10495e-15
4.90892e-15
5.8503e-15
6.94836e-15
8.22431e-15
9.70126e-15
1.14043e-14
1.33603e-14
1.55981e-14
1.81484e-14
2.10432e-14
2.43159e-14
2.80011e-14
3.21339e-14
3.67499e-14
4.18843e-14
4.75716e-14
5.3845e-14
6.07355e-14
6.82713e-14
7.64771e-14
8.53731e-14
9.49743e-14
1.0529e-13
1.16321e-13
1.28063e-13
1.405e-13
1.53611e-13
1.67361e-13
1.81708e-13
1.96599e-13
2.11968e-13
2.27742e-13
2.43835e-13
2.60154e-13
2.76594e-13
2.93044e-13
3.09384e-13
3.2549e-13
3.41232e-13
3.56478e-13
3.71095e-13
3.84951e-13
3.97916e-13
4.09867e-13
4.20686e-13
4.30263e-13
4.38501e-13
4.45315e-13
4.50632e-13
4.54395e-13
4.56564e-13
4.57116e-13
4.56045e-13
4.53363e-13
4.49101e-13
4.43305e-13
4.3604e-13
4.27385e-13
4.17436e-13
4.06301e-13
3.94098e-13
3.80958e-13
3.67017e-13
3.52421e-13
3.37317e-13
3.21855e-13
3.06187e-13
2.90462e-13
2.74828e-13
2.59427e-13
2.44396e-13
2.29866e-13
2.15959e-13
2.0279e-13
1.90462e-13
1.79072e-13
1.68705e-13
1.59436e-13
1.51331e-13
1.44445e-13
1.38823e-13
1.345e-13
1.31501e-13
1.29842e-13
1.29529e-13
1.30558e-13
1.32916e-13
1.36579e-13
1.41516e-13
1.47683e-13
1.55029e-13
1.63492e-13
1.73e-13
1.83471e-13
1.94814e-13
2.06927e-13
2.19701e-13
2.33017e-13
2.46749e-13
2.60762e-13
2.74917e-13
2.89069e-13
3.03071e-13
3.16772e-13
3.30023e-13
3.42676e-13
3.54587e-13
3.65618e-13
3.75638e-13
3.84528e-13
3.92178e-13
3.98492e-13
4.03391e-13
4.0681e-13
4.08703e-13
4.0904e-13
4.07812e-13
4.05028e-13
4.00715e-13
3.94917e-13
3.87698e-13
3.79135e-13
3.69321e-13
3.5836e-13
3.46368e-13
3.33469e-13
3.19793e-13
3.05476e-13
2.90654e-13
2.75464e-13
2.60038e-13
2.44508e-13
2.28997e-13
2.13622e-13
1.98489e-13
1.83697e-13
1.69331e-13
1.55468e-13
1.42172e-13
1.29494e-13
1.17475e-13
1.06146e-13
9.55262e-14
8.56241e-14
7.64405e-14
6.7968e-14
6.01915e-14
5.30903e-14
4.66383e-14
4.08052e-14
3.55576e-14
3.08597e-14
2.66742e-14
2.29631e-14
1.96883e-14
1.68121e-14
1.42978e-14
1.21102e-14
1.02157e-14
8.58252e-15
7.18111e-15
5.98409e-15
4.9663e-15
4.10482e-15
3.37896e-15
2.77011e-15
2.2617e-15
1.83906e-15
1.4893e-15
1.20113e-15
9.64758e-16
7.71735e-16
6.14807e-16
4.87786e-16
3.85425e-16
3.03298e-16
2.37693e-16
1.85517e-16
1.44201e-16
1.11627e-16
8.60577e-17
6.60734e-17
5.0522e-17
3.84726e-17
2.91769e-17
2.20366e-17
1.65755e-17
1.24167e-17
9.26321e-18
6.88232e-18
5.09243e-18
3.7526e-18
2.75396e-18
2.0128e-18
1.46508e-18
1.06204e-18
7.66728e-19
5.51263e-19
3.94726e-19
2.81483e-19
1.99903e-19
1.41371e-19
9.95171e-20
6.9606e-20
4.80294e-20
3.1868e-20
1.86029e-20
6.21901e-21
1.16111e-20
3.4531e-20
5.83548e-20
8.61032e-20
1.21553e-19
1.6891e-19
2.33102e-19
3.20313e-19
4.38578e-19
5.9847e-19
8.13916e-19
1.10322e-18
1.49035e-18
2.00659e-18
2.6926e-18
3.60103e-18
4.79979e-18
6.37613e-18
8.44174e-18
1.11389e-17
1.46485e-17
1.9199e-17
2.50783e-17
3.26477e-17
4.23584e-17
5.4772e-17
7.05844e-17
9.06546e-17
1.16038e-16
1.48027e-16
1.88195e-16
2.38453e-16
3.01108e-16
3.78938e-16
4.75269e-16
5.94065e-16
7.40033e-16
9.18736e-16
1.13672e-15
1.40163e-15
1.7224e-15
2.10938e-15
2.57451e-15
3.13149e-15
3.79598e-15
4.58577e-15
5.52098e-15
6.62422e-15
7.92075e-15
9.43868e-15
1.1209e-14
1.32659e-14
1.56464e-14
1.83908e-14
2.15425e-14
2.51478e-14
2.92557e-14
3.39178e-14
3.91876e-14
4.51206e-14
5.17731e-14
5.92019e-14
6.74634e-14
7.66128e-14
8.67029e-14
9.77833e-14
1.09899e-13
1.23088e-13
1.37384e-13
1.5281e-13
1.69378e-13
1.87092e-13
2.05942e-13
2.25903e-13
2.46939e-13
2.68994e-13
2.91999e-13
3.15867e-13
3.40495e-13
3.65762e-13
3.91531e-13
4.1765e-13
4.43952e-13
4.70257e-13
4.96374e-13
5.22103e-13
5.47235e-13
5.7156e-13
5.94864e-13
6.16936e-13
6.3757e-13
6.56567e-13
6.73739e-13
6.88915e-13
7.01938e-13
7.12673e-13
7.21006e-13
7.26848e-13
7.30136e-13
7.30835e-13
7.28937e-13
7.24465e-13
7.17468e-13
7.08023e-13
6.96236e-13
6.82236e-13
6.66176e-13
6.4823e-13
6.2859e-13
6.07464e-13
5.85074e-13
5.61648e-13
5.37426e-13
5.12646e-13
4.87551e-13
4.62379e-13
4.37364e-13
4.12733e-13
3.88705e-13
3.65486e-13
3.4327e-13
3.22238e-13
3.02556e-13
2.84373e-13
2.67825e-13
2.53029e-13
2.40088e-13
2.29087e-13
2.20097e-13
2.13172e-13
2.08349e-13
2.05652e-13
2.05089e-13
2.0665e-13
2.10314e-13
2.16042e-13
2.23782e-13
2.33463e-13
2.45003e-13
2.58302e-13
2.73245e-13
2.89701e-13
3.07525e-13
3.26556e-13
3.4662e-13
3.67528e-13
3.8908e-13
4.11066e-13
4.33263e-13
4.55445e-13
4.77378e-13
4.98827e-13
5.19556e-13
5.39334e-13
5.57935e-13
5.75142e-13
5.90752e-13
6.04576e-13
6.16446e-13
6.26211e-13
6.33749e-13
6.3896e-13
6.41771e-13
6.42141e-13
6.40056e-13
6.3553e-13
6.2861e-13
6.19366e-13
6.07899e-13
5.94332e-13
5.78811e-13
5.61502e-13
5.42587e-13
5.22262e-13
5.00732e-13
4.78208e-13
4.54905e-13
4.31036e-13
4.06812e-13
3.82436e-13
3.581e-13
3.33988e-13
3.10266e-13
2.87086e-13
2.64583e-13
2.42875e-13
2.22061e-13
2.02221e-13
1.8342e-13
1.65702e-13
1.49096e-13
1.33618e-13
1.19267e-13
1.0603e-13
9.38835e-14
8.27943e-14
7.27211e-14
6.36162e-14
5.54268e-14
4.80969e-14
4.15677e-14
3.57796e-14
3.06729e-14
2.61886e-14
2.22693e-14
1.88597e-14
1.59074e-14
1.33628e-14
1.11796e-14
9.31504e-15
7.7299e-15
6.3884e-15
5.25822e-15
4.31034e-15
3.51893e-15
2.86112e-15
2.31678e-15
1.86835e-15
1.50056e-15
1.20025e-15
9.5612e-16
7.58533e-16
5.99318e-16
4.71586e-16
3.69559e-16
2.88421e-16
2.24176e-16
1.73529e-16
1.33774e-16
1.02705e-16
7.85286e-17
5.97976e-17
4.53479e-17
3.42491e-17
2.57608e-17
1.92969e-17
1.43958e-17
1.06955e-17
7.91375e-18
5.83155e-18
4.27961e-18
3.12783e-18
2.27668e-18
1.65036e-18
1.19145e-18
8.56634e-19
6.13385e-19
4.37412e-19
3.10643e-19
2.19688e-19
1.5465e-19
1.08171e-19
7.46441e-20
4.95323e-20
2.89194e-20
9.6697e-21
1.86908e-20
5.55919e-20
9.39548e-20
1.38637e-19
1.95714e-19
2.71954e-19
3.7529e-19
5.15672e-19
7.0603e-19
9.63377e-19
1.31012e-18
1.7757e-18
2.39868e-18
3.22938e-18
4.33319e-18
5.7948e-18
7.72343e-18
1.02594e-17
1.35822e-17
1.79208e-17
2.35657e-17
3.08844e-17
4.03396e-17
5.2512e-17
6.81269e-17
8.80866e-17
1.13509e-16
1.45775e-16
1.8658e-16
2.37998e-16
3.02559e-16
3.83331e-16
4.84019e-16
6.09081e-16
7.63858e-16
9.54713e-16
1.1892e-15
1.47625e-15
1.82635e-15
2.25179e-15
2.76688e-15
3.38823e-15
4.13496e-15
5.02906e-15
6.09562e-15
7.36316e-15
8.86389e-15
1.0634e-14
1.2714e-14
1.51489e-14
1.79883e-14
2.12867e-14
2.51036e-14
2.95034e-14
3.45554e-14
4.03335e-14
4.69161e-14
5.43854e-14
6.2827e-14
7.23292e-14
8.29819e-14
9.48754e-14
1.081e-13
1.22742e-13
1.38887e-13
1.56612e-13
1.75989e-13
1.9708e-13
2.19934e-13
2.44587e-13
2.71061e-13
2.99358e-13
3.29462e-13
3.61332e-13
3.94906e-13
4.30098e-13
4.66794e-13
5.04855e-13
5.44113e-13
5.84375e-13
6.25421e-13
6.67009e-13
7.08869e-13
7.50716e-13
7.92242e-13
8.33127e-13
8.73042e-13
9.11648e-13
9.48607e-13
9.83582e-13
1.01625e-12
1.04628e-12
1.0734e-12
1.09732e-12
1.11779e-12
1.13461e-12
1.1476e-12
1.15661e-12
1.16155e-12
1.16237e-12
1.15905e-12
1.15165e-12
1.14023e-12
1.12492e-12
1.1059e-12
1.08338e-12
1.05759e-12
1.02882e-12
9.97374e-13
9.63589e-13
9.27814e-13
8.90417e-13
8.51774e-13
8.1227e-13
7.72285e-13
7.322e-13
6.92386e-13
6.53202e-13
6.14991e-13
5.78082e-13
5.42779e-13
5.09366e-13
4.78106e-13
4.49232e-13
4.22956e-13
3.99462e-13
3.78908e-13
3.61429e-13
3.47132e-13
3.36098e-13
3.28386e-13
3.24029e-13
3.23035e-13
3.2539e-13
3.31054e-13
3.39966e-13
3.52037e-13
3.67157e-13
3.85192e-13
4.05983e-13
4.29346e-13
4.55075e-13
4.82939e-13
5.12684e-13
5.44034e-13
5.76693e-13
6.10346e-13
6.4466e-13
6.79289e-13
7.13875e-13
7.48054e-13
7.81456e-13
8.13715e-13
8.44468e-13
8.73363e-13
9.00063e-13
9.24251e-13
9.45634e-13
9.63951e-13
9.7897e-13
9.90501e-13
9.98392e-13
1.00253e-12
1.00286e-12
9.99354e-13
9.92043e-13
9.80999e-13
9.66339e-13
9.4822e-13
9.26836e-13
9.02418e-13
8.75227e-13
8.45548e-13
8.13687e-13
7.79966e-13
7.44714e-13
7.08267e-13
6.70957e-13
6.33113e-13
5.95049e-13
5.57068e-13
5.1945e-13
4.82457e-13
4.46322e-13
4.11257e-13
3.77441e-13
3.45028e-13
3.14143e-13
2.84883e-13
2.57317e-13
2.31489e-13
2.07421e-13
1.85111e-13
1.64539e-13
1.45666e-13
1.2844e-13
1.12795e-13
9.86579e-14
8.59448e-14
7.4568e-14
6.44362e-14
5.54561e-14
4.75346e-14
4.05799e-14
3.45024e-14
2.92163e-14
2.46398e-14
2.06958e-14
1.73126e-14
1.44236e-14
1.19679e-14
9.88992e-15
8.13948e-15
6.67158e-15
5.44613e-15
4.42767e-15
3.58499e-15
2.89085e-15
2.32161e-15
1.85684e-15
1.47906e-15
1.17333e-15
9.26988e-16
7.29376e-16
5.71545e-16
4.46036e-16
3.46666e-16
2.68332e-16
2.06849e-16
1.58801e-16
1.21416e-16
9.24519e-17
7.01093e-17
5.29487e-17
3.98248e-17
2.98313e-17
2.22541e-17
1.65336e-17
1.22333e-17
9.01444e-18
6.61538e-18
4.83494e-18
3.51922e-18
2.55108e-18
1.84171e-18
1.32416e-18
9.48157e-19
6.76146e-19
4.80192e-19
3.39599e-19
2.39066e-19
1.67221e-19
1.15399e-19
7.65858e-20
4.47234e-20
1.49573e-20
2.99577e-20
8.91124e-20
1.5062e-19
2.22257e-19
3.13758e-19
4.35967e-19
6.01598e-19
8.26593e-19
1.13167e-18
1.54408e-18
2.09972e-18
2.84576e-18
3.84395e-18
5.1749e-18
6.94333e-18
9.28484e-18
1.23743e-17
1.64365e-17
2.17587e-17
2.87074e-17
3.77479e-17
4.94681e-17
6.46089e-17
8.40993e-17
1.091e-16
1.41055e-16
1.81753e-16
2.33403e-16
2.98715e-16
3.81011e-16
4.84332e-16
6.13586e-16
7.74697e-16
9.74794e-16
1.22241e-15
1.52772e-15
1.90279e-15
2.36189e-15
2.92179e-15
3.6021e-15
4.4257e-15
5.41907e-15
6.61278e-15
8.04191e-15
9.74651e-15
1.17721e-14
1.417e-14
1.6998e-14
2.03208e-14
2.42098e-14
2.87444e-14
3.40113e-14
4.01052e-14
4.71288e-14
5.51923e-14
6.44133e-14
7.49164e-14
8.68325e-14
1.00297e-13
1.15452e-13
1.32437e-13
1.51398e-13
1.72476e-13
1.95811e-13
2.21534e-13
2.49769e-13
2.80629e-13
3.14211e-13
3.50591e-13
3.89828e-13
4.31951e-13
4.76964e-13
5.24837e-13
5.75506e-13
6.2887e-13
6.84788e-13
7.43078e-13
8.03515e-13
8.65833e-13
9.29722e-13
9.94831e-13
1.06077e-12
1.12712e-12
1.19341e-12
1.25916e-12
1.32386e-12
1.38699e-12
1.44801e-12
1.50639e-12
1.56158e-12
1.61308e-12
1.66038e-12
1.70301e-12
1.74056e-12
1.77262e-12
1.79886e-12
1.81901e-12
1.83285e-12
1.84023e-12
1.84107e-12
1.83536e-12
1.82317e-12
1.80463e-12
1.77995e-12
1.7494e-12
1.71331e-12
1.67209e-12
1.62617e-12
1.57604e-12
1.52224e-12
1.46533e-12
1.40588e-12
1.34449e-12
1.28178e-12
1.21834e-12
1.15477e-12
1.09167e-12
1.02959e-12
9.69075e-13
9.10645e-13
8.54777e-13
8.01916e-13
7.5247e-13
7.06807e-13
6.65256e-13
6.28103e-13
5.95593e-13
5.67934e-13
5.45288e-13
5.27783e-13
5.15502e-13
5.08496e-13
5.06771e-13
5.10302e-13
5.19021e-13
5.32826e-13
5.51578e-13
5.75098e-13
6.03171e-13
6.35544e-13
6.71929e-13
7.11996e-13
7.55383e-13
8.0169e-13
8.50482e-13
9.01296e-13
9.53637e-13
1.00698e-12
1.06079e-12
1.11451e-12
1.16757e-12
1.21938e-12
1.26939e-12
1.31702e-12
1.36174e-12
1.40301e-12
1.44034e-12
1.47329e-12
1.50145e-12
1.52446e-12
1.54203e-12
1.55392e-12
1.55998e-12
1.56011e-12
1.55427e-12
1.54253e-12
1.52499e-12
1.50184e-12
1.47333e-12
1.43977e-12
1.40151e-12
1.35897e-12
1.31259e-12
1.26284e-12
1.21024e-12
1.15528e-12
1.0985e-12
1.04041e-12
9.8152e-13
9.22316e-13
8.63267e-13
8.04808e-13
7.47341e-13
6.91231e-13
6.36799e-13
5.84326e-13
5.34046e-13
4.86151e-13
4.40789e-13
3.98065e-13
3.58048e-13
3.20766e-13
2.86217e-13
2.54366e-13
2.25153e-13
1.98495e-13
1.74291e-13
1.52423e-13
1.32762e-13
1.15171e-13
9.95082e-14
8.56286e-14
7.33874e-14
6.2642e-14
5.32537e-14
4.50892e-14
3.80218e-14
3.19322e-14
2.67092e-14
2.22498e-14
1.84597e-14
1.5253e-14
1.25521e-14
1.02874e-14
8.39708e-15
6.82618e-15
5.52655e-15
4.45613e-15
3.57839e-15
2.86182e-15
2.27941e-15
1.80812e-15
1.42842e-15
1.12385e-15
8.80606e-16
6.87193e-16
5.3407e-16
4.1337e-16
3.18641e-16
2.44616e-16
1.87021e-16
1.42402e-16
1.07985e-16
8.15508e-17
6.13361e-17
4.59435e-17
3.4273e-17
2.54625e-17
1.88396e-17
1.38823e-17
1.01876e-17
7.44572e-18
5.41952e-18
3.92859e-18
2.83618e-18
2.03917e-18
1.46014e-18
1.04126e-18
7.39499e-19
5.22991e-19
3.68174e-19
2.57538e-19
1.77738e-19
1.17972e-19
6.89054e-20
2.30499e-20
4.78184e-20
1.42255e-19
2.40463e-19
3.54843e-19
5.00923e-19
6.96009e-19
9.60391e-19
1.31951e-18
1.80642e-18
2.4646e-18
3.35132e-18
4.54182e-18
6.13461e-18
8.25824e-18
1.10798e-17
1.48154e-17
1.97441e-17
2.6224e-17
3.47136e-17
4.57969e-17
6.02156e-17
7.89072e-17
1.03052e-16
1.34132e-16
1.73995e-16
2.24943e-16
2.89827e-16
3.72164e-16
4.76275e-16
6.07446e-16
7.72118e-16
9.78104e-16
1.23484e-15
1.55367e-15
1.94819e-15
2.43458e-15
3.03206e-15
3.76333e-15
4.65506e-15
5.73847e-15
7.04993e-15
8.63156e-15
1.0532e-14
1.28069e-14
1.55201e-14
1.87438e-14
2.25596e-14
2.70593e-14
3.23454e-14
3.85318e-14
4.57439e-14
5.41198e-14
6.38095e-14
7.49758e-14
8.77934e-14
1.02449e-13
1.19139e-13
1.38072e-13
1.59463e-13
1.83532e-13
2.10506e-13
2.40611e-13
2.74072e-13
3.11107e-13
3.51925e-13
3.96721e-13
4.45671e-13
4.98925e-13
5.56606e-13
6.188e-13
6.85554e-13
7.5687e-13
8.32697e-13
9.12932e-13
9.9741e-13
1.08591e-12
1.17813e-12
1.27372e-12
1.37225e-12
1.47322e-12
1.57609e-12
1.68023e-12
1.78497e-12
1.88958e-12
1.99328e-12
2.09528e-12
2.19473e-12
2.2908e-12
2.38264e-12
2.46941e-12
2.55028e-12
2.62448e-12
2.69127e-12
2.74997e-12
2.79998e-12
2.84077e-12
2.87191e-12
2.89308e-12
2.90402e-12
2.90465e-12
2.89493e-12
2.87499e-12
2.84505e-12
2.80543e-12
2.75658e-12
2.69903e-12
2.63341e-12
2.56043e-12
2.48085e-12
2.39553e-12
2.30535e-12
2.21123e-12
2.1141e-12
2.01494e-12
1.91468e-12
1.81428e-12
1.71465e-12
1.61669e-12
1.52123e-12
1.4291e-12
1.34103e-12
1.25772e-12
1.17982e-12
1.10788e-12
1.04243e-12
9.83899e-13
9.32676e-13
8.89074e-13
8.53345e-13
8.25677e-13
8.062e-13
7.9498e-13
7.92025e-13
7.97286e-13
8.10652e-13
8.31956e-13
8.60973e-13
8.97419e-13
9.40952e-13
9.91173e-13
1.04762e-12
1.10979e-12
1.1771e-12
1.24892e-12
1.32458e-12
1.40336e-12
1.48446e-12
1.5671e-12
1.65042e-12
1.73355e-12
1.81561e-12
1.8957e-12
1.97294e-12
2.04646e-12
2.11541e-12
2.17897e-12
2.2364e-12
2.28699e-12
2.33012e-12
2.36526e-12
2.39193e-12
2.4098e-12
2.41861e-12
2.41823e-12
2.40861e-12
2.38985e-12
2.36212e-12
2.32572e-12
2.28105e-12
2.22857e-12
2.16887e-12
2.10256e-12
2.03035e-12
1.95297e-12
1.87121e-12
1.78586e-12
1.69772e-12
1.60761e-12
1.51629e-12
1.42454e-12
1.33307e-12
1.24254e-12
1.1536e-12
1.06678e-12
9.82585e-13
9.01449e-13
8.2373e-13
7.49718e-13
6.79641e-13
6.1366e-13
5.51873e-13
4.94326e-13
4.4101e-13
3.9187e-13
3.4681e-13
3.05701e-13
2.68383e-13
2.34674e-13
2.04374e-13
1.7727e-13
1.53141e-13
1.31763e-13
1.12912e-13
9.6367e-14
8.19141e-14
6.93473e-14
5.84708e-14
4.91005e-14
4.10648e-14
3.4205e-14
2.83755e-14
2.3444e-14
1.92908e-14
1.58089e-14
1.29028e-14
1.04881e-14
8.49061e-15
6.84555e-15
5.49675e-15
4.39572e-15
3.50091e-15
2.77688e-15
2.19361e-15
1.72578e-15
1.35218e-15
1.05514e-15
8.19988e-16
6.34641e-16
4.89184e-16
3.75525e-16
2.87096e-16
2.18594e-16
1.65757e-16
1.25177e-16
9.41459e-17
7.05179e-17
5.26041e-17
3.90806e-17
2.8915e-17
2.13064e-17
1.56357e-17
1.14274e-17
8.31759e-18
6.02937e-18
4.35281e-18
3.12961e-18
2.24096e-18
1.59809e-18
1.13496e-18
8.02682e-19
5.6508e-19
3.95286e-19
2.7282e-19
1.81105e-19
1.05801e-19
3.53999e-20
7.60154e-20
2.26161e-19
3.82325e-19
5.64201e-19
7.96459e-19
1.1066e-18
1.52689e-18
2.09773e-18
2.87167e-18
3.91778e-18
5.32706e-18
7.21902e-18
9.75019e-18
1.31247e-17
1.7608e-17
2.35435e-17
3.1374e-17
4.16685e-17
5.51549e-17
7.27607e-17
9.56631e-17
1.25351e-16
1.63697e-16
2.13054e-16
2.76356e-16
3.57255e-16
4.60274e-16
5.90995e-16
7.56272e-16
9.64493e-16
1.22587e-15
1.5528e-15
1.96025e-15
2.4662e-15
3.09221e-15
3.86393e-15
4.81182e-15
5.97185e-15
7.3863e-15
9.10462e-15
1.11844e-14
1.36924e-14
1.67057e-14
2.03123e-14
2.46132e-14
2.97228e-14
3.57703e-14
4.29008e-14
5.12764e-14
6.10771e-14
7.25016e-14
8.57676e-14
1.01112e-13
1.18793e-13
1.39086e-13
1.62284e-13
1.887e-13
2.1866e-13
2.52504e-13
2.9058e-13
3.33243e-13
3.8085e-13
4.33754e-13
4.92298e-13
5.56811e-13
6.27596e-13
7.04929e-13
7.89044e-13
8.80131e-13
9.78322e-13
1.08369e-12
1.19623e-12
1.31586e-12
1.4424e-12
1.57561e-12
1.71511e-12
1.86044e-12
2.01103e-12
2.1662e-12
2.32517e-12
2.48707e-12
2.6509e-12
2.8156e-12
2.98002e-12
3.14294e-12
3.3031e-12
3.45918e-12
3.60986e-12
3.75379e-12
3.88966e-12
4.01619e-12
4.13214e-12
4.23637e-12
4.32781e-12
4.40553e-12
4.4687e-12
4.51665e-12
4.54888e-12
4.56503e-12
4.56493e-12
4.54858e-12
4.51616e-12
4.46804e-12
4.40475e-12
4.32698e-12
4.23559e-12
4.13157e-12
4.01605e-12
3.89025e-12
3.75549e-12
3.61317e-12
3.46474e-12
3.31169e-12
3.15551e-12
2.9977e-12
2.83973e-12
2.68306e-12
2.52906e-12
2.37907e-12
2.23434e-12
2.09605e-12
1.96527e-12
1.84298e-12
1.73009e-12
1.62738e-12
1.53553e-12
1.45513e-12
1.38665e-12
1.33049e-12
1.28693e-12
1.25615e-12
1.23826e-12
1.23326e-12
1.24104e-12
1.26145e-12
1.2942e-12
1.33893e-12
1.39519e-12
1.46245e-12
1.54007e-12
1.62733e-12
1.72343e-12
1.82747e-12
1.93847e-12
2.05537e-12
2.17704e-12
2.30228e-12