/*--------------------------------*- C++ -*----------------------------------*\
| =========                 |                                                 |
| \\      /  F ield         | OpenFOAM: The Open Source CFD Toolbox           |
|  \\    /   O peration     | Version:  v2012                                 |
|   \\  /    A nd           | Website:  www.openfoam.com                      |
|    \\/     M anipulation  |                                                 |
\*---------------------------------------------------------------------------*/
FoamFile
{
    version     2.0;
    format      ascii;
    class       surfaceScalarField;
    location    "6.6";
    object      phi;
}
// * * * * * * * * * * * * * * * * * * * * * * * * * * * * * * * * * * * * * //

dimensions      [0 3 -1 0 0 0 0];
oriented        oriented;


internalField   nonuniform List<scalar> 
130560
(
3.68507e-06
-3.68507e-06
7.37005e-06
-3.68498e-06
1.10548e-05
-3.68479e-06
1.47394e-05
-3.68451e-06
1.84235e-05
-3.68413e-06
2.21071e-05
-3.68364e-06
2.57902e-05
-3.68306e-06
2.94725e-05
-3.68236e-06
3.31541e-05
-3.68155e-06
3.68347e-05
-3.68062e-06
4.05143e-05
-3.67957e-06
4.41927e-05
-3.67837e-06
4.78697e-05
-3.67704e-06
5.15453e-05
-3.67556e-06
5.52192e-05
-3.67392e-06
5.88913e-05
-3.6721e-06
6.25614e-05
-3.67011e-06
6.62293e-05
-3.66792e-06
6.98948e-05
-3.66553e-06
7.35577e-05
-3.66292e-06
7.72178e-05
-3.66008e-06
8.08748e-05
-3.65699e-06
8.45284e-05
-3.65364e-06
8.81785e-05
-3.65002e-06
9.18246e-05
-3.64611e-06
9.54665e-05
-3.64189e-06
9.91038e-05
-3.63734e-06
0.000102736
-3.63245e-06
0.000106363
-3.6272e-06
0.000109985
-3.62158e-06
0.000113601
-3.61555e-06
0.00011721
-3.60911e-06
0.000120812
-3.60222e-06
0.000124407
-3.59488e-06
0.000127994
-3.58706e-06
0.000131573
-3.57875e-06
0.000135143
-3.5699e-06
0.000138703
-3.56052e-06
0.000142254
-3.55057e-06
0.000145794
-3.54004e-06
0.000149323
-3.52889e-06
0.00015284
-3.51712e-06
0.000156344
-3.50469e-06
0.000159836
-3.49158e-06
0.000163314
-3.47777e-06
0.000166777
-3.46325e-06
0.000170225
-3.44798e-06
0.000173657
-3.43194e-06
0.000177072
-3.41512e-06
0.000180469
-3.39749e-06
0.000183849
-3.37903e-06
0.000187208
-3.35972e-06
0.000190548
-3.33954e-06
0.000193866
-3.31847e-06
0.000197163
-3.29649e-06
0.000200436
-3.27358e-06
0.000203686
-3.24972e-06
0.000206911
-3.2249e-06
0.00021011
-3.1991e-06
0.000213282
-3.1723e-06
0.000216427
-3.14449e-06
0.000219542
-3.11566e-06
0.000222628
-3.0858e-06
0.000225683
-3.05488e-06
0.000228706
-3.02291e-06
0.000231696
-2.98987e-06
0.000234652
-2.95575e-06
0.000237572
-2.92056e-06
0.000240457
-2.88427e-06
0.000243303
-2.8469e-06
0.000246112
-2.80843e-06
0.000248881
-2.76887e-06
0.000251609
-2.72822e-06
0.000254295
-2.68647e-06
0.000256939
-2.64364e-06
0.000259539
-2.59973e-06
0.000262094
-2.55474e-06
0.000264602
-2.50869e-06
0.000267064
-2.46158e-06
0.000269477
-2.41343e-06
0.000271841
-2.36424e-06
0.000274155
-2.31405e-06
0.000276418
-2.26286e-06
0.000278629
-2.21069e-06
0.000280787
-2.15756e-06
0.00028289
-2.10349e-06
0.000284939
-2.04852e-06
0.000286931
-1.99265e-06
0.000288867
-1.93593e-06
0.000290746
-1.87837e-06
0.000292566
-1.82001e-06
0.000294326
-1.76087e-06
0.000296027
-1.701e-06
0.000297668
-1.64042e-06
0.000299247
-1.57917e-06
0.000300764
-1.51728e-06
0.000302219
-1.45479e-06
0.000303611
-1.39174e-06
0.000304939
-1.32817e-06
0.000306203
-1.26411e-06
0.000307403
-1.19961e-06
0.000308537
-1.1347e-06
0.000309607
-1.06944e-06
0.000310611
-1.00386e-06
0.000311549
-9.37996e-07
0.000312421
-8.719e-07
0.000313226
-8.05613e-07
0.000313965
-7.39178e-07
0.000314638
-6.72636e-07
0.000315244
-6.06031e-07
0.000315783
-5.39405e-07
0.000316256
-4.72801e-07
0.000316663
-4.06261e-07
0.000317002
-3.39826e-07
0.000317276
-2.73538e-07
0.000317483
-2.07437e-07
0.000317625
-1.41564e-07
0.000317701
-7.5956e-08
0.000317711
-1.0653e-08
0.000317657
5.43079e-08
0.000317538
1.1889e-07
0.000317355
1.83058e-07
0.000317108
2.46777e-07
0.000316798
3.10013e-07
0.000316426
3.72735e-07
0.000315991
4.3491e-07
0.000315494
4.96509e-07
0.000314937
5.57504e-07
0.000314319
6.17866e-07
0.000313641
6.7757e-07
0.000312905
7.3659e-07
0.00031211
7.94903e-07
0.000311257
8.52487e-07
0.000310348
9.0932e-07
0.000309383
9.65384e-07
0.000308362
1.02066e-06
0.000307287
1.07513e-06
0.000306158
1.12878e-06
0.000304977
1.1816e-06
0.000303743
1.23356e-06
0.000302458
1.28467e-06
0.000301123
1.33491e-06
0.000299739
1.38427e-06
0.000298306
1.43275e-06
0.000296826
1.48033e-06
0.000295299
1.52701e-06
0.000293726
1.57279e-06
0.000292109
1.61767e-06
0.000290447
1.66163e-06
0.000288742
1.70469e-06
0.000286995
1.74684e-06
0.000285207
1.78807e-06
0.000283379
1.82841e-06
0.000281511
1.86783e-06
0.000279605
1.90636e-06
0.000277661
1.94399e-06
0.00027568
1.98073e-06
0.000273663
2.01658e-06
0.000271612
2.05156e-06
0.000269526
2.08566e-06
0.000267407
2.1189e-06
0.000265256
2.15128e-06
0.000263073
2.18282e-06
0.00026086
2.21352e-06
0.000258616
2.2434e-06
0.000256344
2.27245e-06
0.000254043
2.3007e-06
0.000251715
2.32816e-06
0.00024936
2.35483e-06
0.000246979
2.38074e-06
0.000244574
2.40588e-06
0.000242143
2.43027e-06
0.000239689
2.45393e-06
0.000237212
2.47687e-06
0.000234713
2.4991e-06
0.000232193
2.52064e-06
0.000229651
2.54149e-06
0.00022709
2.56167e-06
0.000224508
2.5812e-06
0.000221908
2.60008e-06
0.00021929
2.61834e-06
0.000216654
2.63598e-06
0.000214001
2.65302e-06
0.000211331
2.66946e-06
0.000208646
2.68534e-06
0.000205945
2.70065e-06
0.00020323
2.71541e-06
0.0002005
2.72963e-06
0.000197757
2.74334e-06
0.000195001
2.75653e-06
0.000192231
2.76923e-06
0.00018945
2.78144e-06
0.000186657
2.79319e-06
0.000183852
2.80447e-06
0.000181037
2.81531e-06
0.000178211
2.82572e-06
0.000175375
2.83571e-06
0.00017253
2.84529e-06
0.000169676
2.85447e-06
0.000166812
2.86326e-06
0.000163941
2.87168e-06
0.000161061
2.87974e-06
0.000158174
2.88745e-06
0.000155279
2.89481e-06
0.000152377
2.90185e-06
0.000149468
2.90857e-06
0.000146553
2.91498e-06
0.000143632
2.9211e-06
0.000140705
2.92692e-06
0.000137773
2.93247e-06
0.000134835
2.93775e-06
0.000131892
2.94277e-06
0.000128945
2.94754e-06
0.000125993
2.95208e-06
0.000123036
2.95638e-06
0.000120076
2.96046e-06
0.000117112
2.96433e-06
0.000114144
2.96799e-06
0.000111172
2.97145e-06
0.000108197
2.97473e-06
0.00010522
2.97782e-06
0.000102239
2.98074e-06
9.92553e-05
2.98349e-06
9.62693e-05
2.98609e-06
9.32807e-05
2.98853e-06
9.02899e-05
2.99083e-06
8.72969e-05
2.99299e-06
8.43019e-05
2.99501e-06
8.1305e-05
2.99691e-06
7.83063e-05
2.99869e-06
7.5306e-05
3.00035e-06
7.23041e-05
3.00191e-06
6.93007e-05
3.00336e-06
6.6296e-05
3.00471e-06
6.329e-05
3.00596e-06
6.02829e-05
3.00713e-06
5.72747e-05
3.00822e-06
5.42655e-05
3.00922e-06
5.12553e-05
3.01014e-06
4.82443e-05
3.011e-06
4.52325e-05
3.01178e-06
4.222e-05
3.0125e-06
3.92069e-05
3.01316e-06
3.61931e-05
3.01375e-06
3.31788e-05
3.01429e-06
3.01641e-05
3.01478e-06
2.71488e-05
3.01521e-06
2.41332e-05
3.0156e-06
2.11173e-05
3.01594e-06
1.81011e-05
3.01623e-06
1.50846e-05
3.01648e-06
1.20679e-05
3.01668e-06
9.05108e-06
3.01684e-06
6.03412e-06
3.01696e-06
3.01708e-06
3.01704e-06
3.01708e-06
3.68516e-06
-7.37024e-06
7.37023e-06
-7.37005e-06
1.10551e-05
-7.36967e-06
1.47397e-05
-7.36911e-06
1.84239e-05
-7.36835e-06
2.21077e-05
-7.36739e-06
2.57909e-05
-7.36622e-06
2.94733e-05
-7.36483e-06
3.3155e-05
-7.36322e-06
3.68357e-05
-7.36137e-06
4.05154e-05
-7.35926e-06
4.4194e-05
-7.35689e-06
4.78711e-05
-7.35423e-06
5.15469e-05
-7.35128e-06
5.52209e-05
-7.348e-06
5.88932e-05
-7.34438e-06
6.25635e-05
-7.3404e-06
6.62316e-05
-7.33604e-06
6.98974e-05
-7.33127e-06
7.35605e-05
-7.32606e-06
7.72208e-05
-7.32039e-06
8.08781e-05
-7.31423e-06
8.4532e-05
-7.30756e-06
8.81823e-05
-7.30033e-06
9.18287e-05
-7.29252e-06
9.54709e-05
-7.2841e-06
9.91086e-05
-7.27502e-06
0.000102741
-7.26526e-06
0.000106369
-7.25478e-06
0.000109991
-7.24355e-06
0.000113607
-7.23152e-06
0.000117216
-7.21865e-06
0.000120819
-7.2049e-06
0.000124415
-7.19024e-06
0.000128002
-7.17463e-06
0.000131581
-7.15801e-06
0.000135152
-7.14035e-06
0.000138713
-7.1216e-06
0.000142264
-7.10173e-06
0.000145805
-7.08068e-06
0.000149334
-7.05841e-06
0.000152852
-7.03488e-06
0.000156357
-7.01004e-06
0.00015985
-6.98385e-06
0.000163328
-6.95627e-06
0.000166792
-6.92724e-06
0.000170241
-6.89672e-06
0.000173674
-6.86467e-06
0.000177089
-6.83105e-06
0.000180488
-6.79581e-06
0.000183868
-6.75891e-06
0.000187228
-6.72031e-06
0.000190569
-6.67997e-06
0.000193888
-6.63784e-06
0.000197185
-6.5939e-06
0.00020046
-6.54809e-06
0.000203711
-6.5004e-06
0.000206937
-6.45077e-06
0.000210137
-6.39919e-06
0.00021331
-6.34561e-06
0.000216455
-6.29001e-06
0.000219572
-6.23236e-06
0.000222659
-6.17264e-06
0.000225715
-6.11082e-06
0.000228739
-6.04688e-06
0.00023173
-5.98081e-06
0.000234687
-5.91259e-06
0.000237608
-5.8422e-06
0.000240494
-5.76964e-06
0.000243342
-5.69489e-06
0.000246151
-5.61796e-06
0.000248921
-5.53883e-06
0.00025165
-5.45752e-06
0.000254338
-5.37403e-06
0.000256983
-5.28836e-06
0.000259584
-5.20053e-06
0.000262139
-5.11054e-06
0.000264649
-5.01843e-06
0.000267112
-4.9242e-06
0.000269526
-4.82788e-06
0.000271891
-4.7295e-06
0.000274206
-4.62909e-06
0.00027647
-4.52669e-06
0.000278682
-4.42233e-06
0.00028084
-4.31605e-06
0.000282945
-4.2079e-06
0.000284994
-4.09792e-06
0.000286988
-3.98616e-06
0.000288925
-3.87268e-06
0.000290804
-3.75754e-06
0.000292624
-3.64079e-06
0.000294386
-3.52249e-06
0.000296088
-3.40271e-06
0.000297729
-3.28151e-06
0.000299309
-3.15897e-06
0.000300827
-3.03515e-06
0.000302282
-2.91014e-06
0.000303674
-2.784e-06
0.000305003
-2.65681e-06
0.000306267
-2.52866e-06
0.000307467
-2.39962e-06
0.000308602
-2.26977e-06
0.000309672
-2.1392e-06
0.000310676
-2.00799e-06
0.000311615
-1.87623e-06
0.000312487
-1.74399e-06
0.000313292
-1.61138e-06
0.000314032
-1.47846e-06
0.000314704
-1.34534e-06
0.00031531
-1.21208e-06
0.00031585
-1.07879e-06
0.000316323
-9.45539e-07
0.000316729
-8.12417e-07
0.000317068
-6.79507e-07
0.000317342
-5.4689e-07
0.000317549
-4.14649e-07
0.00031769
-2.82862e-07
0.000317766
-1.51608e-07
0.000317776
-2.0965e-08
0.000317722
1.08993e-07
0.000317602
2.38193e-07
0.000317419
3.66563e-07
0.000317171
4.94034e-07
0.000316861
6.20539e-07
0.000316488
7.46014e-07
0.000316052
8.70395e-07
0.000315555
9.93622e-07
0.000314997
1.11564e-06
0.000314378
1.23639e-06
0.0003137
1.35582e-06
0.000312963
1.47388e-06
0.000312167
1.59053e-06
0.000311314
1.70572e-06
0.000310404
1.81941e-06
0.000309438
1.93155e-06
0.000308416
2.04212e-06
0.00030734
2.15108e-06
0.000306211
2.25839e-06
0.000305028
2.36404e-06
0.000303794
2.46799e-06
0.000302508
2.57021e-06
0.000301173
2.6707e-06
0.000299787
2.76943e-06
0.000298354
2.86639e-06
0.000296873
2.96156e-06
0.000295345
3.05493e-06
0.000293771
3.14649e-06
0.000292152
3.23624e-06
0.00029049
3.32417e-06
0.000288784
3.41028e-06
0.000287036
3.49458e-06
0.000285247
3.57705e-06
0.000283418
3.65771e-06
0.000281549
3.73656e-06
0.000279642
3.81361e-06
0.000277697
3.88887e-06
0.000275716
3.96234e-06
0.000273698
4.03404e-06
0.000271646
4.10398e-06
0.000269559
4.17218e-06
0.00026744
4.23865e-06
0.000265287
4.30341e-06
0.000263104
4.36648e-06
0.000260889
4.42787e-06
0.000258645
4.4876e-06
0.000256372
4.54571e-06
0.00025407
4.6022e-06
0.000251742
4.6571e-06
0.000249386
4.71044e-06
0.000247004
4.76223e-06
0.000244598
4.8125e-06
0.000242167
4.86128e-06
0.000239712
4.90859e-06
0.000237235
4.95445e-06
0.000234735
4.9989e-06
0.000232213
5.04196e-06
0.000229671
5.08365e-06
0.000227109
5.124e-06
0.000224527
5.16304e-06
0.000221926
5.2008e-06
0.000219307
5.23729e-06
0.000216671
5.27256e-06
0.000214017
5.30662e-06
0.000211347
5.3395e-06
0.000208661
5.37123e-06
0.00020596
5.40184e-06
0.000203244
5.43135e-06
0.000200514
5.45979e-06
0.00019777
5.48718e-06
0.000195013
5.51356e-06
0.000192243
5.53894e-06
0.000189462
5.56336e-06
0.000186668
5.58683e-06
0.000183863
5.60939e-06
0.000181047
5.63106e-06
0.000178221
5.65186e-06
0.000175385
5.67182e-06
0.000172539
5.69097e-06
0.000169684
5.70931e-06
0.000166821
5.72689e-06
0.000163949
5.74372e-06
0.000161069
5.75983e-06
0.000158181
5.77523e-06
0.000155286
5.78995e-06
0.000152384
5.80402e-06
0.000149475
5.81745e-06
0.000146559
5.83026e-06
0.000143638
5.84248e-06
0.000140711
5.85412e-06
0.000137778
5.86521e-06
0.00013484
5.87576e-06
0.000131897
5.88579e-06
0.000128949
5.89533e-06
0.000125997
5.90438e-06
0.00012304
5.91298e-06
0.00012008
5.92113e-06
0.000117115
5.92886e-06
0.000114147
5.93617e-06
0.000111175
5.94309e-06
0.0001082
5.94963e-06
0.000105222
5.95581e-06
0.000102242
5.96165e-06
9.92579e-05
5.96715e-06
9.62717e-05
5.97233e-06
9.3283e-05
5.97721e-06
9.02921e-05
5.98179e-06
8.72989e-05
5.9861e-06
8.43038e-05
5.99015e-06
8.13068e-05
5.99394e-06
7.8308e-05
5.99749e-06
7.53075e-05
6.00081e-06
7.23055e-05
6.00391e-06
6.9302e-05
6.00681e-06
6.62972e-05
6.00951e-06
6.32912e-05
6.01202e-06
6.0284e-05
6.01435e-06
5.72757e-05
6.01651e-06
5.42664e-05
6.01851e-06
5.12562e-05
6.02036e-06
4.82451e-05
6.02206e-06
4.52333e-05
6.02363e-06
4.22207e-05
6.02506e-06
3.92075e-05
6.02637e-06
3.61937e-05
6.02756e-06
3.31793e-05
6.02864e-06
3.01645e-05
6.02961e-06
2.71492e-05
6.03048e-06
2.41336e-05
6.03125e-06
2.11176e-05
6.03192e-06
1.81013e-05
6.0325e-06
1.50848e-05
6.03299e-06
1.20681e-05
6.0334e-06
9.0512e-06
6.03372e-06
6.0342e-06
6.03396e-06
3.01712e-06
6.03412e-06
6.0342e-06
3.68535e-06
-1.10556e-05
7.37061e-06
-1.10553e-05
1.10557e-05
-1.10547e-05
1.47405e-05
-1.10539e-05
1.84249e-05
-1.10528e-05
2.21089e-05
-1.10513e-05
2.57923e-05
-1.10496e-05
2.9475e-05
-1.10475e-05
3.31569e-05
-1.10451e-05
3.68379e-05
-1.10424e-05
4.05178e-05
-1.10392e-05
4.41966e-05
-1.10357e-05
4.78741e-05
-1.10317e-05
5.15502e-05
-1.10273e-05
5.52246e-05
-1.10224e-05
5.88972e-05
-1.1017e-05
6.25679e-05
-1.10111e-05
6.62364e-05
-1.10046e-05
6.99026e-05
-1.09974e-05
7.35662e-05
-1.09897e-05
7.7227e-05
-1.09812e-05
8.08848e-05
-1.0972e-05
8.45393e-05
-1.0962e-05
8.81902e-05
-1.09512e-05
9.18372e-05
-1.09395e-05
9.54801e-05
-1.0927e-05
9.91184e-05
-1.09134e-05
0.000102752
-1.08988e-05
0.00010638
-1.08831e-05
0.000110003
-1.08663e-05
0.00011362
-1.08483e-05
0.00011723
-1.08291e-05
0.000120834
-1.08085e-05
0.00012443
-1.07866e-05
0.000128019
-1.07632e-05
0.000131599
-1.07383e-05
0.000135171
-1.07119e-05
0.000138733
-1.06838e-05
0.000142285
-1.06541e-05
0.000145827
-1.06225e-05
0.000149358
-1.05892e-05
0.000152877
-1.0554e-05
0.000156384
-1.05168e-05
0.000159877
-1.04775e-05
0.000163357
-1.04362e-05
0.000166823
-1.03927e-05
0.000170273
-1.0347e-05
0.000173707
-1.0299e-05
0.000177125
-1.02486e-05
0.000180525
-1.01958e-05
0.000183906
-1.01405e-05
0.000187269
-1.00826e-05
0.000190611
-1.00222e-05
0.000193932
-9.95904e-06
0.000197231
-9.89317e-06
0.000200508
-9.82451e-06
0.00020376
-9.75301e-06
0.000206988
-9.67861e-06
0.00021019
-9.60127e-06
0.000213366
-9.52094e-06
0.000216513
-9.43757e-06
0.000219632
-9.35113e-06
0.000222721
-9.26158e-06
0.000225779
-9.16888e-06
0.000228805
-9.07299e-06
0.000231798
-8.97391e-06
0.000234757
-8.87159e-06
0.000237681
-8.76602e-06
0.000240569
-8.65718e-06
0.000243419
-8.54507e-06
0.00024623
-8.42967e-06
0.000249003
-8.31098e-06
0.000251734
-8.18901e-06
0.000254424
-8.06376e-06
0.000257071
-7.93525e-06
0.000259674
-7.80348e-06
0.000262232
-7.66848e-06
0.000264743
-7.53028e-06
0.000267208
-7.38891e-06
0.000269625
-7.2444e-06
0.000271992
-7.09679e-06
0.000274309
-6.94614e-06
0.000276575
-6.79248e-06
0.000278788
-6.63589e-06
0.000280949
-6.47642e-06
0.000283055
-6.31413e-06
0.000285106
-6.1491e-06
0.000287101
-5.9814e-06
0.00028904
-5.81111e-06
0.000290921
-5.63832e-06
0.000292743
-5.46311e-06
0.000294506
-5.28558e-06
0.000296209
-5.10583e-06
0.000297852
-4.92395e-06
0.000299433
-4.74005e-06
0.000300952
-4.55423e-06
0.000302408
-4.36661e-06
0.000303801
-4.17731e-06
0.000305131
-3.98643e-06
0.000306397
-3.7941e-06
0.000307597
-3.60043e-06
0.000308733
-3.40556e-06
0.000309804
-3.2096e-06
0.000310808
-3.01268e-06
0.000311747
-2.81492e-06
0.000312619
-2.61647e-06
0.000313425
-2.41744e-06
0.000314165
-2.21796e-06
0.000314838
-2.01816e-06
0.000315444
-1.81817e-06
0.000315983
-1.61813e-06
0.000316456
-1.41815e-06
0.000316862
-1.21836e-06
0.000317201
-1.01889e-06
0.000317474
-8.19867e-07
0.000317681
-6.21405e-07
0.000317822
-4.23627e-07
0.000317897
-2.2665e-07
0.000317906
-3.05912e-08
0.000317851
1.64438e-07
0.000317731
3.58327e-07
0.000317546
5.50968e-07
0.000317298
7.42259e-07
0.000316987
9.32097e-07
0.000316612
1.12039e-06
0.000316176
1.30703e-06
0.000315677
1.49195e-06
0.000315118
1.67504e-06
0.000314498
1.85623e-06
0.000313818
2.03544e-06
0.00031308
2.2126e-06
0.000312283
2.38762e-06
0.000311428
2.56046e-06
0.000310516
2.73104e-06
0.000309548
2.8993e-06
0.000308525
3.0652e-06
0.000307448
3.22867e-06
0.000306316
3.38968e-06
0.000305132
3.54818e-06
0.000303896
3.70413e-06
0.000302609
3.8575e-06
0.000301271
4.00825e-06
0.000299884
4.15636e-06
0.000298449
4.30182e-06
0.000296966
4.44458e-06
0.000295436
4.58465e-06
0.000293861
4.722e-06
0.00029224
4.85663e-06
0.000290576
4.98853e-06
0.000288869
5.1177e-06
0.000287119
5.24414e-06
0.000285328
5.36785e-06
0.000283497
5.48883e-06
0.000281627
5.6071e-06
0.000279718
5.72266e-06
0.000277771
5.83553e-06
0.000275787
5.94572e-06
0.000273768
6.05326e-06
0.000271714
6.15815e-06
0.000269626
6.26043e-06
0.000267504
6.36011e-06
0.000265351
6.45723e-06
0.000263165
6.55181e-06
0.000260949
6.64387e-06
0.000258703
6.73345e-06
0.000256429
6.82058e-06
0.000254125
6.90529e-06
0.000251795
6.98761e-06
0.000249438
7.06758e-06
0.000247055
7.14524e-06
0.000244647
7.22062e-06
0.000242214
7.29376e-06
0.000239758
7.36469e-06
0.000237279
7.43345e-06
0.000234778
7.50009e-06
0.000232255
7.56464e-06
0.000229712
7.62715e-06
0.000227148
7.68764e-06
0.000224565
7.74617e-06
0.000221963
7.80277e-06
0.000219343
7.85748e-06
0.000216705
7.91034e-06
0.00021405
7.9614e-06
0.000211379
8.01069e-06
0.000208692
8.05825e-06
0.00020599
8.10413e-06
0.000203273
8.14836e-06
0.000200541
8.19099e-06
0.000197797
8.23205e-06
0.000195039
8.27158e-06
0.000192268
8.30962e-06
0.000189485
8.34621e-06
0.000186691
8.38139e-06
0.000183885
8.4152e-06
0.000181068
8.44767e-06
0.000178241
8.47885e-06
0.000175404
8.50876e-06
0.000172558
8.53744e-06
0.000169702
8.56493e-06
0.000166838
8.59127e-06
0.000163965
8.61649e-06
0.000161084
8.64062e-06
0.000158196
8.6637e-06
0.0001553
8.68576e-06
0.000152397
8.70683e-06
0.000149488
8.72694e-06
0.000146572
8.74613e-06
0.00014365
8.76444e-06
0.000140722
8.78187e-06
0.000137789
8.79848e-06
0.00013485
8.81428e-06
0.000131907
8.82931e-06
0.000128958
8.84359e-06
0.000126006
8.85715e-06
0.000123049
8.87003e-06
0.000120087
8.88223e-06
0.000117123
8.8938e-06
0.000114154
8.90475e-06
0.000111182
8.91511e-06
0.000108207
8.9249e-06
0.000105228
8.93415e-06
0.000102247
8.94288e-06
9.92631e-05
8.95112e-06
9.62766e-05
8.95887e-06
9.32876e-05
8.96617e-06
9.02964e-05
8.97304e-06
8.7303e-05
8.97948e-06
8.43076e-05
8.98554e-06
8.13103e-05
8.99121e-06
7.83113e-05
8.99652e-06
7.53106e-05
9.00149e-06
7.23084e-05
9.00613e-06
6.93048e-05
9.01046e-06
6.62998e-05
9.0145e-06
6.32935e-05
9.01825e-06
6.02861e-05
9.02173e-06
5.72777e-05
9.02497e-06
5.42682e-05
9.02796e-06
5.12579e-05
9.03072e-06
4.82467e-05
9.03327e-06
4.52347e-05
9.03561e-06
4.2222e-05
9.03775e-06
3.92087e-05
9.03971e-06
3.61948e-05
9.04149e-06
3.31803e-05
9.0431e-06
3.01654e-05
9.04455e-06
2.715e-05
9.04584e-06
2.41343e-05
9.04699e-06
2.11182e-05
9.04799e-06
1.81018e-05
9.04886e-06
1.50852e-05
9.0496e-06
1.20684e-05
9.05021e-06
9.05145e-06
9.05069e-06
6.03436e-06
9.05105e-06
3.0172e-06
9.05129e-06
9.0514e-06
3.68563e-06
-1.47412e-05
7.37117e-06
-1.47408e-05
1.10565e-05
-1.47401e-05
1.47416e-05
-1.4739e-05
1.84264e-05
-1.47375e-05
2.21106e-05
-1.47356e-05
2.57943e-05
-1.47333e-05
2.94774e-05
-1.47306e-05
3.31597e-05
-1.47274e-05
3.6841e-05
-1.47237e-05
4.05214e-05
-1.47196e-05
4.42006e-05
-1.47149e-05
4.78786e-05
-1.47097e-05
5.15551e-05
-1.47038e-05
5.523e-05
-1.46974e-05
5.89032e-05
-1.46902e-05
6.25745e-05
-1.46823e-05
6.62436e-05
-1.46737e-05
6.99104e-05
-1.46643e-05
7.35748e-05
-1.4654e-05
7.72363e-05
-1.46427e-05
8.08948e-05
-1.46305e-05
8.45501e-05
-1.46173e-05
8.82019e-05
-1.4603e-05
9.18499e-05
-1.45875e-05
9.54937e-05
-1.45708e-05
9.91331e-05
-1.45528e-05
0.000102768
-1.45334e-05
0.000106397
-1.45126e-05
0.000110021
-1.44903e-05
0.000113639
-1.44664e-05
0.000117251
-1.44408e-05
0.000120856
-1.44135e-05
0.000124454
-1.43843e-05
0.000128044
-1.43533e-05
0.000131626
-1.43202e-05
0.000135199
-1.4285e-05
0.000138763
-1.42477e-05
0.000142317
-1.42082e-05
0.00014586
-1.41662e-05
0.000149393
-1.41219e-05
0.000152914
-1.4075e-05
0.000156423
-1.40255e-05
0.000159919
-1.39733e-05
0.000163401
-1.39183e-05
0.000166869
-1.38604e-05
0.000170321
-1.37996e-05
0.000173758
-1.37356e-05
0.000177178
-1.36686e-05
0.00018058
-1.35983e-05
0.000183964
-1.35246e-05
0.000187329
-1.34476e-05
0.000190674
-1.33671e-05
0.000193998
-1.3283e-05
0.0001973
-1.31952e-05
0.000200579
-1.31038e-05
0.000203835
-1.30085e-05
0.000207066
-1.29094e-05
0.000210271
-1.28063e-05
0.000213449
-1.26993e-05
0.0002166
-1.25882e-05
0.000219722
-1.2473e-05
0.000222814
-1.23537e-05
0.000225875
-1.22301e-05
0.000228904
-1.21023e-05
0.000231901
-1.19702e-05
0.000234863
-1.18338e-05
0.00023779
-1.16931e-05
0.000240681
-1.1548e-05
0.000243534
-1.13985e-05
0.000246349
-1.12447e-05
0.000249125
-1.10864e-05
0.00025186
-1.09238e-05
0.000254553
-1.07568e-05
0.000257203
-1.05854e-05
0.000259809
-1.04097e-05
0.00026237
-1.02296e-05
0.000264885
-1.00453e-05
0.000267353
-9.85675e-06
0.000269772
-9.66401e-06
0.000272143
-9.46713e-06
0.000274463
-9.26618e-06
0.000276732
-9.06122e-06
0.000278948
-8.85233e-06
0.000281111
-8.6396e-06
0.00028322
-8.42311e-06
0.000285274
-8.20295e-06
0.000287272
-7.97922e-06
0.000289213
-7.75204e-06
0.000291096
-7.52151e-06
0.000292921
-7.28776e-06
0.000294686
-7.0509e-06
0.000296391
-6.81107e-06
0.000298036
-6.5684e-06
0.000299619
-6.32304e-06
0.00030114
-6.07511e-06
0.000302598
-5.82478e-06
0.000303993
-5.57219e-06
0.000305324
-5.3175e-06
0.00030659
-5.06087e-06
0.000307792
-4.80246e-06
0.000308929
-4.54243e-06
0.000310001
-4.28095e-06
0.000311006
-4.0182e-06
0.000311946
-3.75433e-06
0.000312819
-3.48952e-06
0.000313625
-3.22394e-06
0.000314365
-2.95777e-06
0.000315038
-2.69117e-06
0.000315644
-2.42433e-06
0.000316183
-2.1574e-06
0.000316656
-1.89056e-06
0.000317061
-1.62399e-06
0.0003174
-1.35784e-06
0.000317673
-1.09228e-06
0.000317879
-8.27476e-07
0.000318019
-5.63589e-07
0.000318093
-3.00774e-07
0.000318102
-3.91864e-08
0.000318045
2.21023e-07
0.000317924
4.79708e-07
0.000317738
7.36726e-07
0.000317488
9.91936e-07
0.000317175
1.24521e-06
0.000316799
1.4964e-06
0.000316361
1.74541e-06
0.000315861
1.99209e-06
0.000315299
2.23635e-06
0.000314677
2.47806e-06
0.000313996
2.71712e-06
0.000313255
2.95344e-06
0.000312456
3.18691e-06
0.000311599
3.41745e-06
0.000310685
3.64498e-06
0.000309715
3.86942e-06
0.000308689
4.09069e-06
0.000307609
4.30873e-06
0.000306475
4.52347e-06
0.000305288
4.73486e-06
0.00030405
4.94285e-06
0.00030276
5.14739e-06
0.00030142
5.34844e-06
0.00030003
5.54596e-06
0.000298592
5.73993e-06
0.000297106
5.93031e-06
0.000295574
6.11708e-06
0.000293996
6.30024e-06
0.000292372
6.47975e-06
0.000290705
6.65563e-06
0.000288995
6.82785e-06
0.000287243
6.99643e-06
0.000285449
7.16137e-06
0.000283616
7.32266e-06
0.000281742
7.48034e-06
0.000279831
7.6344e-06
0.000277881
7.78487e-06
0.000275895
7.93177e-06
0.000273873
8.07511e-06
0.000271817
8.21494e-06
0.000269726
8.35128e-06
0.000267602
8.48415e-06
0.000265445
8.6136e-06
0.000263257
8.73965e-06
0.000261039
8.86235e-06
0.000258791
8.98175e-06
0.000256513
9.09787e-06
0.000254208
9.21076e-06
0.000251875
9.32047e-06
0.000249516
9.42705e-06
0.00024713
9.53053e-06
0.00024472
9.63098e-06
0.000242285
9.72844e-06
0.000239827
9.82295e-06
0.000237346
9.91458e-06
0.000234843
1.00034e-05
0.000232318
1.00894e-05
0.000229772
1.01727e-05
0.000227207
1.02533e-05
0.000224622
1.03312e-05
0.000222018
1.04066e-05
0.000219396
1.04795e-05
0.000216756
1.05499e-05
0.0002141
1.06179e-05
0.000211427
1.06836e-05
0.000208738
1.0747e-05
0.000206034
1.08081e-05
0.000203315
1.0867e-05
0.000200583
1.09238e-05
0.000197836
1.09784e-05
0.000195077
1.10311e-05
0.000192305
1.10818e-05
0.00018952
1.11305e-05
0.000186724
1.11773e-05
0.000183917
1.12224e-05
0.000181099
1.12656e-05
0.000178271
1.13071e-05
0.000175433
1.13469e-05
0.000172585
1.13851e-05
0.000169728
1.14217e-05
0.000166863
1.14568e-05
0.000163989
1.14903e-05
0.000161107
1.15225e-05
0.000158218
1.15532e-05
0.000155321
1.15825e-05
0.000152417
1.16106e-05
0.000149507
1.16374e-05
0.00014659
1.16629e-05
0.000143667
1.16873e-05
0.000140739
1.17105e-05
0.000137805
1.17326e-05
0.000134865
1.17536e-05
0.000131921
1.17736e-05
0.000128972
1.17926e-05
0.000126019
1.18106e-05
0.000123061
1.18277e-05
0.000120099
1.1844e-05
0.000117134
1.18594e-05
0.000114164
1.18739e-05
0.000111192
1.18877e-05
0.000108216
1.19007e-05
0.000105237
1.1913e-05
0.000102255
1.19246e-05
9.92709e-05
1.19356e-05
9.62839e-05
1.19459e-05
9.32945e-05
1.19556e-05
9.03028e-05
1.19647e-05
8.73091e-05
1.19733e-05
8.43133e-05
1.19813e-05
8.13157e-05
1.19888e-05
7.83163e-05
1.19959e-05
7.53153e-05
1.20025e-05
7.23127e-05
1.20087e-05
6.93088e-05
1.20144e-05
6.63035e-05
1.20198e-05
6.3297e-05
1.20247e-05
6.02894e-05
1.20294e-05
5.72807e-05
1.20337e-05
5.4271e-05
1.20376e-05
5.12604e-05
1.20413e-05
4.8249e-05
1.20447e-05
4.52368e-05
1.20478e-05
4.2224e-05
1.20506e-05
3.92105e-05
1.20532e-05
3.61964e-05
1.20556e-05
3.31818e-05
1.20577e-05
3.01667e-05
1.20596e-05
2.71511e-05
1.20614e-05
2.41353e-05
1.20629e-05
2.11191e-05
1.20642e-05
1.81026e-05
1.20654e-05
1.50858e-05
1.20663e-05
1.20689e-05
1.20671e-05
9.05181e-06
1.20678e-05
6.0346e-06
1.20683e-05
3.01732e-06
1.20686e-05
1.20687e-05
3.686e-06
-1.84272e-05
7.37192e-06
-1.84268e-05
1.10577e-05
-1.84259e-05
1.47431e-05
-1.84245e-05
1.84283e-05
-1.84226e-05
2.2113e-05
-1.84203e-05
2.57971e-05
-1.84175e-05
2.94806e-05
-1.84141e-05
3.31633e-05
-1.84101e-05
3.68452e-05
-1.84056e-05
4.05261e-05
-1.84005e-05
4.42059e-05
-1.83947e-05
4.78845e-05
-1.83882e-05
5.15616e-05
-1.8381e-05
5.52372e-05
-1.8373e-05
5.89111e-05
-1.83641e-05
6.25832e-05
-1.83544e-05
6.62531e-05
-1.83437e-05
6.99208e-05
-1.8332e-05
7.3586e-05
-1.83192e-05
7.72486e-05
-1.83053e-05
8.09081e-05
-1.82901e-05
8.45645e-05
-1.82737e-05
8.82175e-05
-1.82559e-05
9.18666e-05
-1.82367e-05
9.55118e-05
-1.82159e-05
9.91525e-05
-1.81935e-05
0.000102789
-1.81695e-05
0.00010642
-1.81436e-05
0.000110045
-1.81158e-05
0.000113665
-1.80861e-05
0.000117278
-1.80543e-05
0.000120885
-1.80203e-05
0.000124485
-1.7984e-05
0.000128077
-1.79453e-05
0.000131661
-1.79042e-05
0.000135236
-1.78604e-05
0.000138802
-1.78139e-05
0.000142359
-1.77646e-05
0.000145905
-1.77124e-05
0.00014944
-1.76571e-05
0.000152964
-1.75987e-05
0.000156475
-1.7537e-05
0.000159974
-1.74719e-05
0.000163459
-1.74033e-05
0.00016693
-1.73311e-05
0.000170385
-1.72552e-05
0.000173825
-1.71755e-05
0.000177248
-1.70918e-05
0.000180654
-1.70041e-05
0.000184042
-1.69122e-05
0.00018741
-1.6816e-05
0.000190758
-1.67155e-05
0.000194086
-1.66106e-05
0.000197392
-1.6501e-05
0.000200675
-1.63868e-05
0.000203934
-1.62679e-05
0.000207169
-1.61441e-05
0.000210378
-1.60154e-05
0.00021356
-1.58817e-05
0.000216715
-1.5743e-05
0.000219841
-1.55991e-05
0.000222938
-1.545e-05
0.000226003
-1.52956e-05
0.000229037
-1.51359e-05
0.000232037
-1.49709e-05
0.000235004
-1.48004e-05
0.000237935
-1.46246e-05
0.000240831
-1.44432e-05
0.000243688
-1.42564e-05
0.000246508
-1.40641e-05
0.000249288
-1.38662e-05
0.000252027
-1.36629e-05
0.000254724
-1.34541e-05
0.000257379
-1.32399e-05
0.000259989
-1.30202e-05
0.000262555
-1.2795e-05
0.000265074
-1.25646e-05
0.000267546
-1.23288e-05
0.00026997
-1.20878e-05
0.000272344
-1.18415e-05
0.000274668
-1.15902e-05
0.000276941
-1.13339e-05
0.000279161
-1.10726e-05
0.000281328
-1.08065e-05
0.000283441
-1.05357e-05
0.000285498
-1.02604e-05
0.000287499
-9.9805e-06
0.000289444
-9.69632e-06
0.00029133
-9.40793e-06
0.000293158
-9.11551e-06
0.000294926
-8.8192e-06
0.000296634
-8.51916e-06
0.000298281
-8.21556e-06
0.000299867
-7.90858e-06
0.00030139
-7.5984e-06
0.000302851
-7.2852e-06
0.000304247
-6.96917e-06
0.000305581
-6.65051e-06
0.000306849
-6.32942e-06
0.000308053
-6.0061e-06
0.000309191
-5.68075e-06
0.000310264
-5.35359e-06
0.00031127
-5.02483e-06
0.000312211
-4.69467e-06
0.000313084
-4.36334e-06
0.000313892
-4.03105e-06
0.000314632
-3.69801e-06
0.000315305
-3.36444e-06
0.000315911
-3.03056e-06
0.00031645
-2.69658e-06
0.000316923
-2.36272e-06
0.000317328
-2.02919e-06
0.000317666
-1.69619e-06
0.000317938
-1.36393e-06
0.000318143
-1.03263e-06
0.000318282
-7.02477e-07
0.000318355
-3.7367e-07
0.000318362
-4.64029e-08
0.000318304
2.79135e-07
0.000318181
6.02759e-07
0.000317993
9.24291e-07
0.000317742
1.24356e-06
0.000317426
1.56039e-06
0.000317048
1.87462e-06
0.000316608
2.1861e-06
0.000316105
2.49467e-06
0.000315541
2.80019e-06
0.000314917
3.10253e-06
0.000314232
3.40155e-06
0.000313489
3.69712e-06
0.000312686
3.98913e-06
0.000311826
4.27747e-06
0.000310909
4.56202e-06
0.000309936
4.84271e-06
0.000308907
5.11942e-06
0.000307824
5.39209e-06
0.000306687
5.66062e-06
0.000305497
5.92496e-06
0.000304254
6.18503e-06
0.000302961
6.44078e-06
0.000301617
6.69216e-06
0.000300224
6.93912e-06
0.000298783
7.18163e-06
0.000297293
7.41965e-06
0.000295757
7.65315e-06
0.000294175
7.88211e-06
0.000292548
8.10652e-06
0.000290878
8.32637e-06
0.000289164
8.54166e-06
0.000287408
8.75237e-06
0.000285611
8.95853e-06
0.000283773
9.16013e-06
0.000281897
9.35719e-06
0.000279981
9.54974e-06
0.000278028
9.73778e-06
0.000276039
9.92136e-06
0.000274013
1.01005e-05
0.000271953
1.02752e-05
0.000269859
1.04456e-05
0.000267731
1.06116e-05
0.000265571
1.07734e-05
0.00026338
1.09309e-05
0.000261158
1.10842e-05
0.000258907
1.12333e-05
0.000256626
1.13784e-05
0.000254318
1.15194e-05
0.000251982
1.16565e-05
0.000249619
1.17896e-05
0.000247231
1.19189e-05
0.000244817
1.20443e-05
0.00024238
1.21661e-05
0.000239919
1.22841e-05
0.000237435
1.23986e-05
0.000234929
1.25094e-05
0.000232401
1.26169e-05
0.000229853