/*--------------------------------*- C++ -*----------------------------------*\
| =========                 |                                                 |
| \\      /  F ield         | OpenFOAM: The Open Source CFD Toolbox           |
|  \\    /   O peration     | Version:  v2012                                 |
|   \\  /    A nd           | Website:  www.openfoam.com                      |
|    \\/     M anipulation  |                                                 |
\*---------------------------------------------------------------------------*/
FoamFile
{
    version     2.0;
    format      ascii;
    class       volVectorField;
    location    "6.6";
    object      Psi;
}
// * * * * * * * * * * * * * * * * * * * * * * * * * * * * * * * * * * * * * //

dimensions      [0 2 -1 0 0 0 0];


internalField   nonuniform List<vector> 
65536
(
(0 0 9.21895e-06)
(0 0 2.76566e-05)
(0 0 4.60935e-05)
(0 0 6.45293e-05)
(0 0 8.29636e-05)
(0 0 0.000101396)
(0 0 0.000119825)
(0 0 0.000138252)
(0 0 0.000156675)
(0 0 0.000175094)
(0 0 0.000193508)
(0 0 0.000211917)
(0 0 0.000230319)
(0 0 0.000248715)
(0 0 0.000267104)
(0 0 0.000285484)
(0 0 0.000303855)
(0 0 0.000322215)
(0 0 0.000340565)
(0 0 0.000358903)
(0 0 0.000377227)
(0 0 0.000395537)
(0 0 0.000413832)
(0 0 0.000432109)
(0 0 0.000450368)
(0 0 0.000468608)
(0 0 0.000486826)
(0 0 0.00050502)
(0 0 0.000523191)
(0 0 0.000541334)
(0 0 0.000559449)
(0 0 0.000577533)
(0 0 0.000595585)
(0 0 0.000613602)
(0 0 0.000631581)
(0 0 0.000649521)
(0 0 0.000667418)
(0 0 0.000685271)
(0 0 0.000703076)
(0 0 0.00072083)
(0 0 0.000738531)
(0 0 0.000756175)
(0 0 0.000773759)
(0 0 0.000791281)
(0 0 0.000808735)
(0 0 0.000826119)
(0 0 0.00084343)
(0 0 0.000860663)
(0 0 0.000877814)
(0 0 0.00089488)
(0 0 0.000911856)
(0 0 0.000928739)
(0 0 0.000945523)
(0 0 0.000962205)
(0 0 0.00097878)
(0 0 0.000995243)
(0 0 0.00101159)
(0 0 0.00102781)
(0 0 0.00104391)
(0 0 0.00105988)
(0 0 0.00107571)
(0 0 0.00109141)
(0 0 0.00110695)
(0 0 0.00112234)
(0 0 0.00113758)
(0 0 0.00115265)
(0 0 0.00116756)
(0 0 0.00118229)
(0 0 0.00119685)
(0 0 0.00121122)
(0 0 0.0012254)
(0 0 0.00123938)
(0 0 0.00125317)
(0 0 0.00126675)
(0 0 0.00128012)
(0 0 0.00129327)
(0 0 0.00130619)
(0 0 0.0013189)
(0 0 0.00133136)
(0 0 0.00134359)
(0 0 0.00135558)
(0 0 0.00136731)
(0 0 0.00137879)
(0 0 0.00139002)
(0 0 0.00140098)
(0 0 0.00141167)
(0 0 0.00142208)
(0 0 0.00143222)
(0 0 0.00144208)
(0 0 0.00145165)
(0 0 0.00146093)
(0 0 0.00146991)
(0 0 0.0014786)
(0 0 0.00148698)
(0 0 0.00149506)
(0 0 0.00150283)
(0 0 0.00151029)
(0 0 0.00151743)
(0 0 0.00152425)
(0 0 0.00153076)
(0 0 0.00153694)
(0 0 0.00154279)
(0 0 0.00154832)
(0 0 0.00155352)
(0 0 0.00155839)
(0 0 0.00156293)
(0 0 0.00156714)
(0 0 0.00157101)
(0 0 0.00157455)
(0 0 0.00157776)
(0 0 0.00158063)
(0 0 0.00158316)
(0 0 0.00158536)
(0 0 0.00158723)
(0 0 0.00158876)
(0 0 0.00158996)
(0 0 0.00159083)
(0 0 0.00159137)
(0 0 0.00159158)
(0 0 0.00159146)
(0 0 0.00159102)
(0 0 0.00159026)
(0 0 0.00158917)
(0 0 0.00158776)
(0 0 0.00158604)
(0 0 0.001584)
(0 0 0.00158165)
(0 0 0.001579)
(0 0 0.00157604)
(0 0 0.00157277)
(0 0 0.00156921)
(0 0 0.00156536)
(0 0 0.00156121)
(0 0 0.00155678)
(0 0 0.00155206)
(0 0 0.00154707)
(0 0 0.0015418)
(0 0 0.00153625)
(0 0 0.00153044)
(0 0 0.00152437)
(0 0 0.00151804)
(0 0 0.00151145)
(0 0 0.00150461)
(0 0 0.00149753)
(0 0 0.00149021)
(0 0 0.00148265)
(0 0 0.00147486)
(0 0 0.00146684)
(0 0 0.0014586)
(0 0 0.00145014)
(0 0 0.00144147)
(0 0 0.00143259)
(0 0 0.00142351)
(0 0 0.00141422)
(0 0 0.00140474)
(0 0 0.00139507)
(0 0 0.00138521)
(0 0 0.00137517)
(0 0 0.00136496)
(0 0 0.00135457)
(0 0 0.00134401)
(0 0 0.00133329)
(0 0 0.00132241)
(0 0 0.00131138)
(0 0 0.00130019)
(0 0 0.00128886)
(0 0 0.00127738)
(0 0 0.00126576)
(0 0 0.00125401)
(0 0 0.00124213)
(0 0 0.00123012)
(0 0 0.00121799)
(0 0 0.00120573)
(0 0 0.00119336)
(0 0 0.00118088)
(0 0 0.00116829)
(0 0 0.0011556)
(0 0 0.0011428)
(0 0 0.00112991)
(0 0 0.00111691)
(0 0 0.00110383)
(0 0 0.00109066)
(0 0 0.0010774)
(0 0 0.00106406)
(0 0 0.00105064)
(0 0 0.00103714)
(0 0 0.00102356)
(0 0 0.00100992)
(0 0 0.000996206)
(0 0 0.000982425)
(0 0 0.000968581)
(0 0 0.000954675)
(0 0 0.00094071)
(0 0 0.000926688)
(0 0 0.000912612)
(0 0 0.000898484)
(0 0 0.000884305)
(0 0 0.000870078)
(0 0 0.000855805)
(0 0 0.000841488)
(0 0 0.000827129)
(0 0 0.00081273)
(0 0 0.000798292)
(0 0 0.000783817)
(0 0 0.000769306)
(0 0 0.000754763)
(0 0 0.000740187)
(0 0 0.00072558)
(0 0 0.000710945)
(0 0 0.000696282)
(0 0 0.000681592)
(0 0 0.000666878)
(0 0 0.00065214)
(0 0 0.000637379)
(0 0 0.000622597)
(0 0 0.000607794)
(0 0 0.000592973)
(0 0 0.000578133)
(0 0 0.000563276)
(0 0 0.000548403)
(0 0 0.000533515)
(0 0 0.000518612)
(0 0 0.000503696)
(0 0 0.000488766)
(0 0 0.000473825)
(0 0 0.000458873)
(0 0 0.00044391)
(0 0 0.000428937)
(0 0 0.000413954)
(0 0 0.000398963)
(0 0 0.000383964)
(0 0 0.000368958)
(0 0 0.000353944)
(0 0 0.000338923)
(0 0 0.000323897)
(0 0 0.000308865)
(0 0 0.000293827)
(0 0 0.000278785)
(0 0 0.000263738)
(0 0 0.000248687)
(0 0 0.000233633)
(0 0 0.000218574)
(0 0 0.000203513)
(0 0 0.000188449)
(0 0 0.000173382)
(0 0 0.000158313)
(0 0 0.000143241)
(0 0 0.000128168)
(0 0 0.000113093)
(0 0 9.80171e-05)
(0 0 8.29396e-05)
(0 0 6.7861e-05)
(0 0 5.27816e-05)
(0 0 3.77016e-05)
(0 0 2.26212e-05)
(0 0 7.54042e-06)
(0 0 2.7657e-05)
(0 0 8.29702e-05)
(0 0 0.000138281)
(0 0 0.000193589)
(0 0 0.000248892)
(0 0 0.000304189)
(0 0 0.000359479)
(0 0 0.000414759)
(0 0 0.000470029)
(0 0 0.000525286)
(0 0 0.000580529)
(0 0 0.000635755)
(0 0 0.000690964)
(0 0 0.000746152)
(0 0 0.000801318)
(0 0 0.000856459)
(0 0 0.000911573)
(0 0 0.000966656)
(0 0 0.00102171)
(0 0 0.00107672)
(0 0 0.00113169)
(0 0 0.00118663)
(0 0 0.00124151)
(0 0 0.00129634)
(0 0 0.00135112)
(0 0 0.00140584)
(0 0 0.0014605)
(0 0 0.00151508)
(0 0 0.0015696)
(0 0 0.00162403)
(0 0 0.00167838)
(0 0 0.00173263)
(0 0 0.00178679)
(0 0 0.00184084)
(0 0 0.00189478)
(0 0 0.0019486)
(0 0 0.0020023)
(0 0 0.00205586)
(0 0 0.00210928)
(0 0 0.00216254)
(0 0 0.00221565)
(0 0 0.00226858)
(0 0 0.00232134)
(0 0 0.00237391)
(0 0 0.00242627)
(0 0 0.00247843)
(0 0 0.00253036)
(0 0 0.00258207)
(0 0 0.00263352)
(0 0 0.00268473)
(0 0 0.00273566)
(0 0 0.00278631)
(0 0 0.00283667)
(0 0 0.00288672)
(0 0 0.00293645)
(0 0 0.00298584)
(0 0 0.00303489)
(0 0 0.00308357)
(0 0 0.00313187)
(0 0 0.00317978)
(0 0 0.00322728)
(0 0 0.00327436)
(0 0 0.003321)
(0 0 0.00336718)
(0 0 0.0034129)
(0 0 0.00345812)
(0 0 0.00350285)
(0 0 0.00354705)
(0 0 0.00359072)
(0 0 0.00363384)
(0 0 0.00367638)
(0 0 0.00371835)
(0 0 0.00375971)
(0 0 0.00380045)
(0 0 0.00384056)
(0 0 0.00388002)
(0 0 0.00391881)
(0 0 0.00395691)
(0 0 0.00399432)
(0 0 0.00403101)
(0 0 0.00406697)
(0 0 0.00410218)
(0 0 0.00413663)
(0 0 0.00417031)
(0 0 0.00420319)
(0 0 0.00423526)
(0 0 0.00426652)
(0 0 0.00429694)
(0 0 0.00432652)
(0 0 0.00435523)
(0 0 0.00438307)
(0 0 0.00441003)
(0 0 0.00443609)
(0 0 0.00446125)
(0 0 0.00448549)
(0 0 0.0045088)
(0 0 0.00453117)
(0 0 0.0045526)
(0 0 0.00457308)
(0 0 0.00459259)
(0 0 0.00461114)
(0 0 0.00462871)
(0 0 0.00464529)
(0 0 0.0046609)
(0 0 0.00467551)
(0 0 0.00468913)
(0 0 0.00470175)
(0 0 0.00471337)
(0 0 0.00472399)
(0 0 0.0047336)
(0 0 0.00474221)
(0 0 0.00474982)
(0 0 0.00475642)
(0 0 0.00476202)
(0 0 0.00476662)
(0 0 0.00477022)
(0 0 0.00477283)
(0 0 0.00477444)
(0 0 0.00477507)
(0 0 0.00477471)
(0 0 0.00477338)
(0 0 0.00477108)
(0 0 0.00476782)
(0 0 0.00476359)
(0 0 0.00475842)
(0 0 0.00475231)
(0 0 0.00474526)
(0 0 0.00473729)
(0 0 0.00472841)
(0 0 0.00471862)
(0 0 0.00470793)
(0 0 0.00469636)
(0 0 0.00468392)
(0 0 0.00467062)
(0 0 0.00465646)
(0 0 0.00464147)
(0 0 0.00462565)
(0 0 0.00460902)
(0 0 0.00459158)
(0 0 0.00457336)
(0 0 0.00455436)
(0 0 0.0045346)
(0 0 0.00451408)
(0 0 0.00449283)
(0 0 0.00447086)
(0 0 0.00444818)
(0 0 0.0044248)
(0 0 0.00440075)
(0 0 0.00437602)
(0 0 0.00435064)
(0 0 0.00432462)
(0 0 0.00429797)
(0 0 0.00427071)
(0 0 0.00424285)
(0 0 0.00421441)
(0 0 0.00418539)
(0 0 0.00415582)
(0 0 0.0041257)
(0 0 0.00409504)
(0 0 0.00406388)
(0 0 0.0040322)
(0 0 0.00400003)
(0 0 0.00396739)
(0 0 0.00393428)
(0 0 0.00390071)
(0 0 0.00386671)
(0 0 0.00383227)
(0 0 0.00379742)
(0 0 0.00376216)
(0 0 0.00372651)
(0 0 0.00369048)
(0 0 0.00365408)
(0 0 0.00361731)
(0 0 0.0035802)
(0 0 0.00354276)
(0 0 0.00350498)
(0 0 0.0034669)
(0 0 0.0034285)
(0 0 0.00338981)
(0 0 0.00335083)
(0 0 0.00331158)
(0 0 0.00327206)
(0 0 0.00323228)
(0 0 0.00319225)
(0 0 0.00315199)
(0 0 0.00311149)
(0 0 0.00307076)
(0 0 0.00302983)
(0 0 0.00298868)
(0 0 0.00294734)
(0 0 0.0029058)
(0 0 0.00286408)
(0 0 0.00282219)
(0 0 0.00278012)
(0 0 0.00273789)
(0 0 0.0026955)
(0 0 0.00265296)
(0 0 0.00261028)
(0 0 0.00256746)
(0 0 0.00252451)
(0 0 0.00248143)
(0 0 0.00243823)
(0 0 0.00239491)
(0 0 0.00235148)
(0 0 0.00230795)
(0 0 0.00226432)
(0 0 0.00222059)
(0 0 0.00217677)
(0 0 0.00213286)
(0 0 0.00208887)
(0 0 0.0020448)
(0 0 0.00200066)
(0 0 0.00195644)
(0 0 0.00191216)
(0 0 0.00186781)
(0 0 0.0018234)
(0 0 0.00177894)
(0 0 0.00173442)
(0 0 0.00168984)
(0 0 0.00164522)
(0 0 0.00160056)
(0 0 0.00155585)
(0 0 0.0015111)
(0 0 0.00146631)
(0 0 0.00142149)
(0 0 0.00137663)
(0 0 0.00133174)
(0 0 0.00128682)
(0 0 0.00124187)
(0 0 0.0011969)
(0 0 0.0011519)
(0 0 0.00110688)
(0 0 0.00106184)
(0 0 0.00101678)
(0 0 0.000971696)
(0 0 0.000926599)
(0 0 0.000881487)
(0 0 0.000836359)
(0 0 0.000791219)
(0 0 0.000746066)
(0 0 0.000700901)
(0 0 0.000655726)
(0 0 0.000610542)
(0 0 0.000565349)
(0 0 0.000520148)
(0 0 0.00047494)
(0 0 0.000429726)
(0 0 0.000384506)
(0 0 0.000339282)
(0 0 0.000294052)
(0 0 0.00024882)
(0 0 0.000203584)
(0 0 0.000158346)
(0 0 0.000113105)
(0 0 6.78638e-05)
(0 0 2.26213e-05)
(0 0 4.60957e-05)
(0 0 0.000138286)
(0 0 0.000230473)
(0 0 0.000322654)
(0 0 0.000414828)
(0 0 0.000506991)
(0 0 0.000599142)
(0 0 0.000691277)
(0 0 0.000783395)
(0 0 0.000875492)
(0 0 0.000967565)
(0 0 0.00105961)
(0 0 0.00115163)
(0 0 0.00124361)
(0 0 0.00133556)
(0 0 0.00142746)
(0 0 0.00151932)
(0 0 0.00161113)
(0 0 0.00170288)
(0 0 0.00179458)
(0 0 0.00188621)
(0 0 0.00197776)
(0 0 0.00206924)
(0 0 0.00216063)
(0 0 0.00225194)
(0 0 0.00234314)
(0 0 0.00243424)
(0 0 0.00252522)
(0 0 0.00261608)
(0 0 0.00270681)
(0 0 0.00279739)
(0 0 0.00288783)
(0 0 0.0029781)
(0 0 0.00306819)
(0 0 0.0031581)
(0 0 0.00324781)
(0 0 0.00333731)
(0 0 0.00342659)
(0 0 0.00351563)
(0 0 0.00360441)
(0 0 0.00369293)
(0 0 0.00378117)
(0 0 0.00386911)
(0 0 0.00395673)
(0 0 0.00404402)
(0 0 0.00413096)
(0 0 0.00421753)
(0 0 0.00430372)
(0 0 0.00438949)
(0 0 0.00447484)
(0 0 0.00455974)
(0 0 0.00464418)
(0 0 0.00472812)
(0 0 0.00481155)
(0 0 0.00489445)
(0 0 0.00497679)
(0 0 0.00505855)
(0 0 0.0051397)
(0 0 0.00522022)
(0 0 0.00530008)
(0 0 0.00537927)
(0 0 0.00545775)
(0 0 0.0055355)
(0 0 0.00561249)
(0 0 0.0056887)
(0 0 0.0057641)
(0 0 0.00583865)
(0 0 0.00591235)
(0 0 0.00598515)
(0 0 0.00605702)
(0 0 0.00612796)
(0 0 0.00619791)
(0 0 0.00626687)
(0 0 0.00633479)
(0 0 0.00640166)
(0 0 0.00646744)
(0 0 0.0065321)
(0 0 0.00659563)
(0 0 0.00665799)
(0 0 0.00671916)
(0 0 0.00677911)
(0 0 0.00683782)
(0 0 0.00689525)
(0 0 0.00695139)
(0 0 0.00700621)
(0 0 0.00705968)
(0 0 0.00711179)
(0 0 0.00716251)
(0 0 0.00721182)
(0 0 0.00725969)
(0 0 0.0073061)
(0 0 0.00735105)
(0 0 0.0073945)
(0 0 0.00743643)
(0 0 0.00747684)
(0 0 0.0075157)
(0 0 0.007553)
(0 0 0.00758873)
(0 0 0.00762286)
(0 0 0.00765539)
(0 0 0.00768631)
(0 0 0.0077156)
(0 0 0.00774325)
(0 0 0.00776926)
(0 0 0.00779362)
(0 0 0.00781632)
(0 0 0.00783736)
(0 0 0.00785673)
(0 0 0.00787443)
(0 0 0.00789045)
(0 0 0.0079048)
(0 0 0.00791748)
(0 0 0.00792848)
(0 0 0.00793781)
(0 0 0.00794547)
(0 0 0.00795147)
(0 0 0.00795581)
(0 0 0.0079585)
(0 0 0.00795954)
(0 0 0.00795894)
(0 0 0.00795672)
(0 0 0.00795287)
(0 0 0.00794742)
(0 0 0.00794038)
(0 0 0.00793175)
(0 0 0.00792155)
(0 0 0.0079098)
(0 0 0.0078965)
(0 0 0.00788168)
(0 0 0.00786536)
(0 0 0.00784754)
(0 0 0.00782824)
(0 0 0.00780749)
(0 0 0.00778531)
(0 0 0.00776171)
(0 0 0.0077367)
(0 0 0.00771032)
(0 0 0.00768259)
(0 0 0.00765351)
(0 0 0.00762313)
(0 0 0.00759144)
(0 0 0.00755849)
(0 0 0.00752429)
(0 0 0.00748886)
(0 0 0.00745222)
(0 0 0.00741441)
(0 0 0.00737543)
(0 0 0.00733532)
(0 0 0.00729409)
(0 0 0.00725178)
(0 0 0.00720839)
(0 0 0.00716397)
(0 0 0.00711852)
(0 0 0.00707207)
(0 0 0.00702465)
(0 0 0.00697627)
(0 0 0.00692696)
(0 0 0.00687675)
(0 0 0.00682565)
(0 0 0.00677369)
(0 0 0.00672088)
(0 0 0.00666726)
(0 0 0.00661283)
(0 0 0.00655763)
(0 0 0.00650168)
(0 0 0.00644499)
(0 0 0.00638758)
(0 0 0.00632948)
(0 0 0.0062707)
(0 0 0.00621127)
(0 0 0.00615121)
(0 0 0.00609052)
(0 0 0.00602924)
(0 0 0.00596738)
(0 0 0.00590496)
(0 0 0.00584199)
(0 0 0.0057785)
(0 0 0.0057145)
(0 0 0.00565)
(0 0 0.00558503)
(0 0 0.0055196)
(0 0 0.00545372)
(0 0 0.00538741)
(0 0 0.00532069)
(0 0 0.00525357)
(0 0 0.00518606)
(0 0 0.00511818)
(0 0 0.00504994)
(0 0 0.00498136)
(0 0 0.00491244)
(0 0 0.00484321)
(0 0 0.00477367)
(0 0 0.00470383)
(0 0 0.00463371)
(0 0 0.00456332)
(0 0 0.00449267)
(0 0 0.00442176)
(0 0 0.00435062)
(0 0 0.00427925)
(0 0 0.00420765)
(0 0 0.00413585)
(0 0 0.00406384)
(0 0 0.00399164)
(0 0 0.00391926)
(0 0 0.0038467)
(0 0 0.00377397)
(0 0 0.00370108)
(0 0 0.00362805)
(0 0 0.00355486)
(0 0 0.00348154)
(0 0 0.00340809)
(0 0 0.00333451)
(0 0 0.00326081)
(0 0 0.003187)
(0 0 0.00311308)
(0 0 0.00303907)
(0 0 0.00296495)
(0 0 0.00289075)
(0 0 0.00281646)
(0 0 0.00274209)
(0 0 0.00266764)
(0 0 0.00259313)
(0 0 0.00251854)
(0 0 0.00244389)
(0 0 0.00236918)
(0 0 0.00229442)
(0 0 0.0022196)
(0 0 0.00214473)
(0 0 0.00206982)
(0 0 0.00199486)
(0 0 0.00191986)
(0 0 0.00184482)
(0 0 0.00176975)
(0 0 0.00169465)
(0 0 0.00161951)
(0 0 0.00154435)
(0 0 0.00146916)
(0 0 0.00139395)
(0 0 0.00131871)
(0 0 0.00124346)
(0 0 0.00116818)
(0 0 0.00109289)
(0 0 0.00101758)
(0 0 0.000942257)
(0 0 0.000866922)
(0 0 0.000791574)
(0 0 0.000716216)
(0 0 0.000640849)
(0 0 0.000565474)
(0 0 0.000490092)
(0 0 0.000414703)
(0 0 0.000339309)
(0 0 0.000263911)
(0 0 0.00018851)
(0 0 0.000113107)
(0 0 3.77025e-05)
(0 0 6.45355e-05)
(0 0 0.000193605)
(0 0 0.00032267)
(0 0 0.000451727)
(0 0 0.000580773)
(0 0 0.000709805)
(0 0 0.00083882)
(0 0 0.000967813)
(0 0 0.00109678)
(0 0 0.00122572)
(0 0 0.00135463)
(0 0 0.0014835)
(0 0 0.00161233)
(0 0 0.00174111)
(0 0 0.00186984)
(0 0 0.00199851)
(0 0 0.00212712)
(0 0 0.00225566)
(0 0 0.00238412)
(0 0 0.0025125)
(0 0 0.00264079)
(0 0 0.00276898)
(0 0 0.00289706)
(0 0 0.00302502)
(0 0 0.00315285)
(0 0 0.00328055)
(0 0 0.0034081)
(0 0 0.00353549)
(0 0 0.0036627)
(0 0 0.00378973)
(0 0 0.00391657)
(0 0 0.00404319)
(0 0 0.00416958)
(0 0 0.00429573)
(0 0 0.00442162)
(0 0 0.00454723)
(0 0 0.00467255)
(0 0 0.00479756)
(0 0 0.00492223)
(0 0 0.00504655)
(0 0 0.0051705)
(0 0 0.00529406)
(0 0 0.00541719)
(0 0 0.00553989)
(0 0 0.00566212)
(0 0 0.00578386)
(0 0 0.00590509)
(0 0 0.00602577)
(0 0 0.00614589)
(0 0 0.00626541)
(0 0 0.0063843)
(0 0 0.00650254)
(0 0 0.00662009)
(0 0 0.00673692)
(0 0 0.00685301)
(0 0 0.00696832)
(0 0 0.00708281)
(0 0 0.00719646)
(0 0 0.00730922)
(0 0 0.00742107)
(0 0 0.00753197)
(0 0 0.00764188)
(0 0 0.00775076)
(0 0 0.00785859)
(0 0 0.00796532)
(0 0 0.00807091)
(0 0 0.00817533)
(0 0 0.00827853)
(0 0 0.00838049)
(0 0 0.00848116)
(0 0 0.00858051)
(0 0 0.00867848)
(0 0 0.00877506)
(0 0 0.00887019)
(0 0 0.00896384)
(0 0 0.00905597)
(0 0 0.00914654)
(0 0 0.00923552)
(0 0 0.00932286)
(0 0 0.00940854)
(0 0 0.0094925)
(0 0 0.00957472)
(0 0 0.00965517)
(0 0 0.0097338)
(0 0 0.00981058)
(0 0 0.00988547)
(0 0 0.00995846)
(0 0 0.0100295)
(0 0 0.0100985)
(0 0 0.0101656)
(0 0 0.0102306)
(0 0 0.0102936)
(0 0 0.0103544)
(0 0 0.0104132)
(0 0 0.0104697)
(0 0 0.0105242)
(0 0 0.0105764)
(0 0 0.0106264)
(0 0 0.0106743)
(0 0 0.0107198)
(0 0 0.0107631)
(0 0 0.0108041)
(0 0 0.0108429)
(0 0 0.0108793)
(0 0 0.0109134)
(0 0 0.0109452)
(0 0 0.0109746)
(0 0 0.0110018)
(0 0 0.0110265)
(0 0 0.011049)
(0 0 0.0110691)
(0 0 0.0110868)
(0 0 0.0111022)
(0 0 0.0111153)
(0 0 0.011126)
(0 0 0.0111344)
(0 0 0.0111404)
(0 0 0.0111442)
(0 0 0.0111456)
(0 0 0.0111448)
(0 0 0.0111417)
(0 0 0.0111363)
(0 0 0.0111286)
(0 0 0.0111187)
(0 0 0.0111066)
(0 0 0.0110923)
(0 0 0.0110759)
(0 0 0.0110572)
(0 0 0.0110365)
(0 0 0.0110136)
(0 0 0.0109886)
(0 0 0.0109616)
(0 0 0.0109325)
(0 0 0.0109014)
(0 0 0.0108683)
(0 0 0.0108333)
(0 0 0.0107964)
(0 0 0.0107575)
(0 0 0.0107168)
(0 0 0.0106742)
(0 0 0.0106298)
(0 0 0.0105836)
(0 0 0.0105357)
(0 0 0.0104861)
(0 0 0.0104348)
(0 0 0.0103818)
(0 0 0.0103272)
(0 0 0.010271)
(0 0 0.0102133)
(0 0 0.010154)
(0 0 0.0100932)
(0 0 0.010031)
(0 0 0.00996732)
(0 0 0.00990226)
(0 0 0.00983584)
(0 0 0.00976808)
(0 0 0.00969902)
(0 0 0.00962869)
(0 0 0.00955712)
(0 0 0.00948434)
(0 0 0.00941038)
(0 0 0.00933528)
(0 0 0.00925906)
(0 0 0.00918175)
(0 0 0.00910338)
(0 0 0.00902398)
(0 0 0.00894359)
(0 0 0.00886222)
(0 0 0.0087799)
(0 0 0.00869667)
(0 0 0.00861255)
(0 0 0.00852757)
(0 0 0.00844175)
(0 0 0.00835512)
(0 0 0.00826771)
(0 0 0.00817953)
(0 0 0.00809061)
(0 0 0.00800099)
(0 0 0.00791067)
(0 0 0.00781968)
(0 0 0.00772806)
(0 0 0.00763581)
(0 0 0.00754295)
(0 0 0.00744952)
(0 0 0.00735553)
(0 0 0.007261)
(0 0 0.00716595)
(0 0 0.0070704)
(0 0 0.00697437)
(0 0 0.00687787)
(0 0 0.00678092)
(0 0 0.00668355)
(0 0 0.00658576)
(0 0 0.00648758)
(0 0 0.00638901)
(0 0 0.00629008)
(0 0 0.0061908)
(0 0 0.00609119)
(0 0 0.00599125)
(0 0 0.00589101)
(0 0 0.00579047)
(0 0 0.00568965)
(0 0 0.00558856)
(0 0 0.00548721)
(0 0 0.00538561)
(0 0 0.00528378)
(0 0 0.00518173)
(0 0 0.00507947)
(0 0 0.004977)
(0 0 0.00487434)
(0 0 0.00477149)
(0 0 0.00466848)
(0 0 0.00456529)
(0 0 0.00446195)
(0 0 0.00435846)
(0 0 0.00425483)
(0 0 0.00415106)
(0 0 0.00404717)
(0 0 0.00394316)
(0 0 0.00383903)
(0 0 0.0037348)
(0 0 0.00363047)
(0 0 0.00352605)
(0 0 0.00342153)
(0 0 0.00331693)
(0 0 0.00321226)
(0 0 0.00310751)
(0 0 0.00300269)
(0 0 0.0028978)
(0 0 0.00279286)
(0 0 0.00268786)
(0 0 0.0025828)
(0 0 0.0024777)
(0 0 0.00237255)
(0 0 0.00226736)
(0 0 0.00216213)
(0 0 0.00205686)
(0 0 0.00195156)
(0 0 0.00184623)
(0 0 0.00174086)
(0 0 0.00163548)
(0 0 0.00153007)
(0 0 0.00142463)
(0 0 0.00131918)
(0 0 0.00121371)
(0 0 0.00110822)
(0 0 0.00100272)
(0 0 0.000897201)
(0 0 0.000791674)
(0 0 0.000686137)
(0 0 0.000580591)
(0 0 0.000475039)
(0 0 0.000369481)
(0 0 0.000263918)
(0 0 0.000158352)
(0 0 5.27842e-05)
(0 0 8.29769e-05)
(0 0 0.000248929)
(0 0 0.000414874)
(0 0 0.00058081)
(0 0 0.000746733)
(0 0 0.000912637)
(0 0 0.00107852)
(0 0 0.00124437)
(0 0 0.0014102)
(0 0 0.00157598)
(0 0 0.00174173)
(0 0 0.00190743)
(0 0 0.00207307)
(0 0 0.00223866)
(0 0 0.00240418)
(0 0 0.00256962)
(0 0 0.00273499)
(0 0 0.00290027)
(0 0 0.00306544)
(0 0 0.00323052)
(0 0 0.00339547)
(0 0 0.0035603)
(0 0 0.00372499)
(0 0 0.00388953)
(0 0 0.0040539)
(0 0 0.0042181)
(0 0 0.00438211)
(0 0 0.00454592)
(0 0 0.00470951)
(0 0 0.00487286)
(0 0 0.00503595)
(0 0 0.00519877)
(0 0 0.00536131)
(0 0 0.00552353)
(0 0 0.00568541)
(0 0 0.00584695)
(0 0 0.0060081)
(0 0 0.00616886)
(0 0 0.00632919)
(0 0 0.00648907)
(0 0 0.00664847)
(0 0 0.00680736)
(0 0 0.00696572)
(0 0 0.00712351)
(0 0 0.00728071)
(0 0 0.00743728)
(0 0 0.00759319)
(0 0 0.0077484)
(0 0 0.00790288)
(0 0 0.0080566)
(0 0 0.00820951)
(0 0 0.00836158)
(0 0 0.00851277)
(0 0 0.00866305)
(0 0 0.00881236)
(0 0 0.00896066)
(0 0 0.00910793)
(0 0 0.0092541)
(0 0 0.00939915)
(0 0 0.00954301)
(0 0 0.00968565)
(0 0 0.00982703)
(0 0 0.00996709)
(0 0 0.0101058)
(0 0 0.0102431)
(0 0 0.0103789)
(0 0 0.0105132)
(0 0 0.010646)
(0 0 0.0107771)
(0 0 0.0109066)
(0 0 0.0110344)
(0 0 0.0111605)
(0 0 0.0112847)
(0 0 0.0114071)
(0 0 0.0115275)
(0 0 0.0116461)
(0 0 0.0117626)
(0 0 0.011877)
(0 0 0.0119894)
(0 0 0.0120996)
(0 0 0.0122076)
(0 0 0.0123134)
(0 0 0.0124169)
(0 0 0.0125181)
(0 0 0.0126168)
(0 0 0.0127132)
(0 0 0.0128071)
(0 0 0.0128985)
(0 0 0.0129873)
(0 0 0.0130736)
(0 0 0.0131572)
(0 0 0.0132382)
(0 0 0.0133165)
(0 0 0.013392)
(0 0 0.0134648)
(0 0 0.0135348)
(0 0 0.013602)
(0 0 0.0136664)
(0 0 0.0137279)
(0 0 0.0137865)
(0 0 0.0138422)
(0 0 0.0138949)
(0 0 0.0139448)
(0 0 0.0139916)
(0 0 0.0140355)
(0 0 0.0140764)
(0 0 0.0141143)
(0 0 0.0141491)
(0 0 0.014181)
(0 0 0.0142099)
(0 0 0.0142357)
(0 0 0.0142585)
(0 0 0.0142783)
(0 0 0.0142951)
(0 0 0.0143088)
(0 0 0.0143196)
(0 0 0.0143274)
(0 0 0.0143322)
(0 0 0.014334)
(0 0 0.0143329)
(0 0 0.0143289)
(0 0 0.0143219)
(0 0 0.0143121)
(0 0 0.0142993)
(0 0 0.0142837)
(0 0 0.0142653)
(0 0 0.0142441)
(0 0 0.0142201)
(0 0 0.0141934)
(0 0 0.0141639)
(0 0 0.0141318)
(0 0 0.014097)
(0 0 0.0140595)
(0 0 0.0140195)
(0 0 0.0139769)
(0 0 0.0139319)
(0 0 0.0138843)
(0 0 0.0138343)
(0 0 0.0137819)
(0 0 0.0137271)
(0 0 0.0136699)
(0 0 0.0136105)
(0 0 0.0135489)
(0 0 0.013485)
(0 0 0.013419)
(0 0 0.0133508)
(0 0 0.0132806)
(0 0 0.0132083)
(0 0 0.013134)
(0 0 0.0130577)
(0 0 0.0129795)
(0 0 0.0128994)
(0 0 0.0128175)
(0 0 0.0127338)
(0 0 0.0126484)
(0 0 0.0125612)
(0 0 0.0124724)
(0 0 0.0123819)
(0 0 0.0122898)
(0 0 0.0121962)
(0 0 0.012101)
(0 0 0.0120044)
(0 0 0.0119064)
(0 0 0.0118069)
(0 0 0.0117061)
(0 0 0.011604)
(0 0 0.0115006)
(0 0 0.0113959)
(0 0 0.01129)
(0 0 0.011183)
(0 0 0.0110748)
(0 0 0.0109655)
(0 0 0.0108551)
(0 0 0.0107436)
(0 0 0.0106312)
(0 0 0.0105178)
(0 0 0.0104034)
(0 0 0.0102882)
(0 0 0.010172)
(0 0 0.010055)
(0 0 0.00993714)
(0 0 0.0098185)
(0 0 0.00969908)
(0 0 0.00957892)
(0 0 0.00945804)
(0 0 0.00933647)
(0 0 0.00921423)
(0 0 0.00909134)
(0 0 0.00896784)
(0 0 0.00884374)
(0 0 0.00871907)
(0 0 0.00859384)
(0 0 0.00846809)
(0 0 0.00834182)
(0 0 0.00821507)
(0 0 0.00808785)
(0 0 0.00796018)
(0 0 0.00783208)
(0 0 0.00770357)
(0 0 0.00757466)
(0 0 0.00744537)
(0 0 0.00731572)
(0 0 0.00718573)
(0 0 0.0070554)
(0 0 0.00692476)
(0 0 0.00679382)
(0 0 0.00666259)
(0 0 0.00653109)
(0 0 0.00639933)
(0 0 0.00626732)
(0 0 0.00613508)
(0 0 0.00600261)
(0 0 0.00586993)
(0 0 0.00573705)
(0 0 0.00560398)
(0 0 0.00547072)
(0 0 0.0053373)
(0 0 0.00520371)
(0 0 0.00506997)
(0 0 0.00493608)
(0 0 0.00480206)
(0 0 0.00466791)
(0 0 0.00453364)
(0 0 0.00439926)
(0 0 0.00426476)
(0 0 0.00413017)
(0 0 0.00399548)
(0 0 0.00386071)
(0 0 0.00372585)
(0 0 0.00359091)
(0 0 0.00345591)
(0 0 0.00332083)
(0 0 0.00318569)
(0 0 0.00305049)
(0 0 0.00291524)
(0 0 0.00277994)
(0 0 0.00264459)
(0 0 0.0025092)
(0 0 0.00237377)
(0 0 0.0022383)
(0 0 0.0021028)
(0 0 0.00196726)
(0 0 0.0018317)
(0 0 0.00169612)
(0 0 0.00156051)
(0 0 0.00142488)
(0 0 0.00128923)
(0 0 0.00115356)
(0 0 0.00101788)
(0 0 0.00088219)
(0 0 0.000746487)
(0 0 0.000610774)
(0 0 0.000475054)
(0 0 0.000339328)
(0 0 0.000203599)
(0 0 6.78665e-05)
(0 0 0.00010142)
(0 0 0.000304258)
(0 0 0.000507089)
(0 0 0.000709908)
(0 0 0.000912711)
(0 0 0.00111549)
(0 0 0.00131825)
(0 0 0.00152097)
(0 0 0.00172365)
(0 0 0.00192629)
(0 0 0.00212888)
(0 0 0.00233141)
(0 0 0.00253388)
(0 0 0.00273628)
(0 0 0.00293859)
(0 0 0.00314082)
(0 0 0.00334295)
(0 0 0.00354497)
(0 0 0.00374687)
(0 0 0.00394865)
(0 0 0.00415028)
(0 0 0.00435176)
(0 0 0.00455307)
(0 0 0.0047542)
(0 0 0.00495513)
(0 0 0.00515585)
(0 0 0.00535634)
(0 0 0.00555658)
(0 0 0.00575655)
(0 0 0.00595623)
(0 0 0.00615561)
(0 0 0.00635465)
(0 0 0.00655334)
(0 0 0.00675166)
(0 0 0.00694956)
(0 0 0.00714704)
(0 0 0.00734406)
(0 0 0.00754059)
(0 0 0.0077366)
(0 0 0.00793206)
(0 0 0.00812694)
(0 0 0.0083212)
(0 0 0.00851481)
(0 0 0.00870774)
(0 0 0.00889993)
(0 0 0.00909136)
(0 0 0.00928198)
(0 0 0.00947176)
(0 0 0.00966064)
(0 0 0.00984859)
(0 0 0.0100356)
(0 0 0.0102215)
(0 0 0.0104064)
(0 0 0.0105901)
(0 0 0.0107727)
(0 0 0.0109541)
(0 0 0.0111341)
(0 0 0.0113129)
(0 0 0.0114902)
(0 0 0.0116662)
(0 0 0.0118406)
(0 0 0.0120135)
(0 0 0.0121848)
(0 0 0.0123544)
(0 0 0.0125223)
(0 0 0.0126884)
(0 0 0.0128527)
(0 0 0.013015)
(0 0 0.0131754)
(0 0 0.0133338)
(0 0 0.0134901)
(0 0 0.0136442)
(0 0 0.0137962)
(0 0 0.0139459)
(0 0 0.0140932)
(0 0 0.0142382)
(0 0 0.0143807)
(0 0 0.0145207)
(0 0 0.0146581)
(0 0 0.0147929)
(0 0 0.014925)
(0 0 0.0150544)
(0 0 0.015181)
(0 0 0.0153047)
(0 0 0.0154255)
(0 0 0.0155434)
(0 0 0.0156582)
(0 0 0.01577)
(0 0 0.0158786)
(0 0 0.0159841)
(0 0 0.0160864)
(0 0 0.0161855)
(0 0 0.0162812)
(0 0 0.0163736)
(0 0 0.0164627)
(0 0 0.0165483)
(0 0 0.0166305)
(0 0 0.0167092)
(0 0 0.0167844)
(0 0 0.0168561)
(0 0 0.0169242)
(0 0 0.0169887)
(0 0 0.0170496)
(0 0 0.0171069)
(0 0 0.0171606)
(0 0 0.0172106)
(0 0 0.0172569)
(0 0 0.0172995)
(0 0 0.0173385)
(0 0 0.0173737)
(0 0 0.0174053)
(0 0 0.0174332)
(0 0 0.0174574)
(0 0 0.0174779)
(0 0 0.0174947)
(0 0 0.0175078)
(0 0 0.0175173)
(0 0 0.0175232)
(0 0 0.0175254)
(0 0 0.017524)
(0 0 0.017519)
(0 0 0.0175105)
(0 0 0.0174984)
(0 0 0.0174828)
(0 0 0.0174637)
(0 0 0.0174411)
(0 0 0.0174151)
(0 0 0.0173857)
(0 0 0.017353)
(0 0 0.0173169)
(0 0 0.0172776)
(0 0 0.017235)
(0 0 0.0171891)
(0 0 0.0171402)
(0 0 0.0170881)
(0 0 0.0170329)
(0 0 0.0169747)
(0 0 0.0169135)
(0 0 0.0168493)
(0 0 0.0167823)
(0 0 0.0167124)
(0 0 0.0166397)
(0 0 0.0165642)
(0 0 0.0164861)
(0 0 0.0164053)
(0 0 0.0163219)
(0 0 0.016236)
(0 0 0.0161475)
(0 0 0.0160566)
(0 0 0.0159633)
(0 0 0.0158677)
(0 0 0.0157697)
(0 0 0.0156695)
(0 0 0.0155671)
(0 0 0.0154626)
(0 0 0.015356)
(0 0 0.0152473)
(0 0 0.0151366)
(0 0 0.015024)
(0 0 0.0149095)
(0 0 0.0147932)
(0 0 0.014675)
(0 0 0.0145551)
(0 0 0.0144335)
(0 0 0.0143102)
(0 0 0.0141853)
(0 0 0.0140588)
(0 0 0.0139308)
(0 0 0.0138013)
(0 0 0.0136704)
(0 0 0.0135381)
(0 0 0.0134044)
(0 0 0.0132694)
(0 0 0.0131332)
(0 0 0.0129957)
(0 0 0.012857)
(0 0 0.0127172)
(0 0 0.0125762)
(0 0 0.0124342)
(0 0 0.0122911)
(0 0 0.012147)
(0 0 0.012002)
(0 0 0.011856)
(0 0 0.011709)
(0 0 0.0115612)
(0 0 0.0114126)
(0 0 0.0112631)
(0 0 0.0111129)
(0 0 0.0109619)
(0 0 0.0108102)
(0 0 0.0106578)
(0 0 0.0105047)
(0 0 0.0103509)
(0 0 0.0101966)
(0 0 0.0100416)
(0 0 0.00988607)
(0 0 0.00972999)
(0 0 0.00957339)
(0 0 0.00941628)
(0 0 0.00925869)
(0 0 0.00910064)
(0 0 0.00894214)
(0 0 0.00878323)
(0 0 0.00862391)
(0 0 0.00846421)
(0 0 0.00830415)
(0 0 0.00814373)
(0 0 0.00798298)
(0 0 0.00782191)
(0 0 0.00766054)
(0 0 0.00749889)
(0 0 0.00733696)
(0 0 0.00717477)
(0 0 0.00701234)
(0 0 0.00684967)
(0 0 0.00668679)
(0 0 0.00652369)
(0 0 0.0063604)
(0 0 0.00619693)
(0 0 0.00603327)
(0 0 0.00586945)
(0 0 0.00570548)
(0 0 0.00554135)
(0 0 0.00537709)
(0 0 0.0052127)
(0 0 0.00504818)
(0 0 0.00488355)
(0 0 0.00471881)
(0 0 0.00455397)
(0 0 0.00438904)
(0 0 0.00422402)
(0 0 0.00405892)
(0 0 0.00389374)
(0 0 0.00372849)
(0 0 0.00356318)
(0 0 0.0033978)
(0 0 0.00323237)
(0 0 0.00306688)
(0 0 0.00290135)
(0 0 0.00273577)
(0 0 0.00257015)
(0 0 0.00240449)
(0 0 0.0022388)
(0 0 0.00207308)
(0 0 0.00190733)
(0 0 0.00174156)
(0 0 0.00157576)
(0 0 0.00140994)
(0 0 0.00124411)
(0 0 0.00107825)
(0 0 0.000912391)
(0 0 0.000746517)
(0 0 0.000580633)
(0 0 0.000414743)
(0 0 0.000248848)
(0 0 8.29496e-05)
(0 0 0.000119866)
(0 0 0.000359595)
(0 0 0.000599316)
(0 0 0.000839023)
(0 0 0.00107871)
(0 0 0.00131837)
(0 0 0.001558)
(0 0 0.0017976)
(0 0 0.00203715)
(0 0 0.00227665)
(0 0 0.00251609)
(0 0 0.00275546)
(0 0 0.00299476)
(0 0 0.00323397)
(0 0 0.00347309)
(0 0 0.00371211)
(0 0 0.00395102)
(0 0 0.00418979)
(0 0 0.00442844)
(0 0 0.00466692)
(0 0 0.00490525)
(0 0 0.00514339)
(0 0 0.00538134)
(0 0 0.00561907)
(0 0 0.00585658)
(0 0 0.00609383)
(0 0 0.00633081)
(0 0 0.0065675)
(0 0 0.00680388)
(0 0 0.00703992)
(0 0 0.0072756)
(0 0 0.00751089)
(0 0 0.00774576)
(0 0 0.00798019)
(0 0 0.00821415)
(0 0 0.00844759)
(0 0 0.0086805)
(0 0 0.00891284)
(0 0 0.00914456)
(0 0 0.00937564)
(0 0 0.00960603)
(0 0 0.0098357)
(0 0 0.0100646)
(0 0 0.0102927)
(0 0 0.0105199)
(0 0 0.0107462)
(0 0 0.0109716)
(0 0 0.011196)
(0 0 0.0114193)
(0 0 0.0116416)
(0 0 0.0118626)
(0 0 0.0120825)
(0 0 0.0123011)
(0 0 0.0125184)
(0 0 0.0127343)
(0 0 0.0129487)
(0 0 0.0131617)
(0 0 0.013373)
(0 0 0.0135828)
(0 0 0.0137908)
(0 0 0.0139971)
(0 0 0.0142016)
(0 0 0.0144041)
(0 0 0.0146047)
(0 0 0.0148033)
(0 0 0.0149997)
(0 0 0.015194)
(0 0 0.015386)
(0 0 0.0155757)
(0 0 0.0157631)
(0 0 0.0159479)
(0 0 0.0161302)
(0 0 0.0163099)
(0 0 0.016487)
(0 0 0.0166613)
(0 0 0.0168327)
(0 0 0.0170013)
(0 0 0.0171669)
(0 0 0.0173294)
(0 0 0.0174889)
(0 0 0.0176451)
(0 0 0.0177982)
(0 0 0.0179479)
(0 0 0.0180942)
(0 0 0.0182371)
(0 0 0.0183765)
(0 0 0.0185124)
(0 0 0.0186446)
(0 0 0.0187731)
(0 0 0.0188979)
(0 0 0.0190189)
(0 0 0.0191361)
(0 0 0.0192493)
(0 0 0.0193586)
(0 0 0.0194639)
(0 0 0.0195652)
(0 0 0.0196624)
(0 0 0.0197555)
(0 0 0.0198445)
(0 0 0.0199293)
(0 0 0.0200098)
(0 0 0.0200861)
(0 0 0.0201581)
(0 0 0.0202259)
(0 0 0.0202893)
(0 0 0.0203484)
(0 0 0.0204032)
(0 0 0.0204536)
(0 0 0.0204997)
(0 0 0.0205413)
(0 0 0.0205786)
(0 0 0.0206116)
(0 0 0.0206402)
(0 0 0.0206644)
(0 0 0.0206842)
(0 0 0.0206997)
(0 0 0.0207109)
(0 0 0.0207178)
(0 0 0.0207204)
(0 0 0.0207187)
(0 0 0.0207127)
(0 0 0.0207026)
(0 0 0.0206882)
(0 0 0.0206697)
(0 0 0.0206471)
(0 0 0.0206203)
(0 0 0.0205895)
(0 0 0.0205547)
(0 0 0.0205159)
(0 0 0.0204732)
(0 0 0.0204266)
(0 0 0.0203762)
(0 0 0.0203219)
(0 0 0.0202639)
(0 0 0.0202023)
(0 0 0.020137)
(0 0 0.020068)
(0 0 0.0199956)
(0 0 0.0199197)
(0 0 0.0198403)
(0 0 0.0197576)
(0 0 0.0196716)
(0 0 0.0195823)
(0 0 0.0194898)
(0 0 0.0193942)
(0 0 0.0192956)
(0 0 0.0191939)
(0 0 0.0190892)
(0 0 0.0189817)
(0 0 0.0188713)
(0 0 0.0187581)
(0 0 0.0186423)
(0 0 0.0185237)
(0 0 0.0184026)
(0 0 0.018279)
(0 0 0.0181528)
(0 0 0.0180243)
(0 0 0.0178934)
(0 0 0.0177602)
(0 0 0.0176247)
(0 0 0.0174871)
(0 0 0.0173473)
(0 0 0.0172055)
(0 0 0.0170616)
(0 0 0.0169158)
(0 0 0.0167681)
(0 0 0.0166185)
(0 0 0.0164672)
(0 0 0.0163141)
(0 0 0.0161592)
(0 0 0.0160028)
(0 0 0.0158447)
(0 0 0.0156851)
(0 0 0.015524)
(0 0 0.0153614)
(0 0 0.0151974)
(0 0 0.0150321)
(0 0 0.0148654)
(0 0 0.0146974)
(0 0 0.0145283)
(0 0 0.0143579)
(0 0 0.0141864)
(0 0 0.0140137)
(0 0 0.01384)
(0 0 0.0136653)
(0 0 0.0134895)
(0 0 0.0133129)
(0 0 0.0131352)
(0 0 0.0129567)
(0 0 0.0127773)
(0 0 0.0125971)
(0 0 0.0124161)
(0 0 0.0122344)
(0 0 0.0120519)
(0 0 0.0118687)
(0 0 0.0116848)
(0 0 0.0115003)
(0 0 0.0113152)
(0 0 0.0111295)
(0 0 0.0109432)
(0 0 0.0107563)
(0 0 0.010569)
(0 0 0.0103811)
(0 0 0.0101928)