/*--------------------------------*- C++ -*----------------------------------*\
| =========                 |                                                 |
| \\      /  F ield         | OpenFOAM: The Open Source CFD Toolbox           |
|  \\    /   O peration     | Version:  v2012                                 |
|   \\  /    A nd           | Website:  www.openfoam.com                      |
|    \\/     M anipulation  |                                                 |
\*---------------------------------------------------------------------------*/
FoamFile
{
    version     2.0;
    format      ascii;
    class       surfaceScalarField;
    location    "4.8";
    object      phi;
}
// * * * * * * * * * * * * * * * * * * * * * * * * * * * * * * * * * * * * * //

dimensions      [0 3 -1 0 0 0 0];
oriented        oriented;


internalField   nonuniform List<scalar> 
130560
(
3.61618e-06
-3.61618e-06
7.2322e-06
-3.61602e-06
1.08479e-05
-3.61569e-06
1.44631e-05
-3.61519e-06
1.80776e-05
-3.61453e-06
2.16913e-05
-3.61369e-06
2.5304e-05
-3.61269e-06
2.89155e-05
-3.6115e-06
3.25256e-05
-3.61014e-06
3.61342e-05
-3.60858e-06
3.9741e-05
-3.60683e-06
4.33459e-05
-3.60488e-06
4.69487e-05
-3.60273e-06
5.0549e-05
-3.60036e-06
5.41468e-05
-3.59777e-06
5.77417e-05
-3.59495e-06
6.13336e-05
-3.59188e-06
6.49222e-05
-3.58857e-06
6.85072e-05
-3.58499e-06
7.20883e-05
-3.58114e-06
7.56653e-05
-3.57701e-06
7.92379e-05
-3.57258e-06
8.28058e-05
-3.56784e-06
8.63685e-05
-3.56279e-06
8.99259e-05
-3.55739e-06
9.34776e-05
-3.55164e-06
9.70231e-05
-3.54553e-06
0.000100562
-3.53905e-06
0.000104094
-3.53216e-06
0.000107619
-3.52487e-06
0.000111136
-3.51715e-06
0.000114645
-3.50899e-06
0.000118146
-3.50036e-06
0.000121637
-3.49127e-06
0.000125119
-3.48167e-06
0.00012859
-3.47157e-06
0.000132051
-3.46094e-06
0.000135501
-3.44976e-06
0.000138939
-3.43802e-06
0.000142365
-3.4257e-06
0.000145777
-3.41278e-06
0.000149177
-3.39924e-06
0.000152562
-3.38506e-06
0.000155932
-3.37023e-06
0.000159287
-3.35474e-06
0.000162625
-3.33855e-06
0.000165947
-3.32166e-06
0.000169251
-3.30404e-06
0.000172537
-3.28568e-06
0.000175803
-3.26657e-06
0.00017905
-3.24669e-06
0.000182276
-3.22602e-06
0.00018548
-3.20455e-06
0.000188663
-3.18226e-06
0.000191822
-3.15914e-06
0.000194957
-3.13517e-06
0.000198067
-3.11035e-06
0.000201152
-3.08466e-06
0.00020421
-3.05809e-06
0.000207241
-3.03063e-06
0.000210243
-3.00226e-06
0.000213216
-2.97299e-06
0.000216159
-2.9428e-06
0.00021907
-2.91169e-06
0.00022195
-2.87965e-06
0.000224797
-2.84668e-06
0.00022761
-2.81276e-06
0.000230387
-2.77791e-06
0.00023313
-2.74212e-06
0.000235835
-2.70538e-06
0.000238503
-2.66771e-06
0.000241132
-2.62909e-06
0.000243721
-2.58954e-06
0.00024627
-2.54907e-06
0.000248778
-2.50767e-06
0.000251243
-2.46535e-06
0.000253666
-2.42213e-06
0.000256044
-2.37801e-06
0.000258377
-2.333e-06
0.000260664
-2.28712e-06
0.000262904
-2.24038e-06
0.000265097
-2.1928e-06
0.000267241
-2.14439e-06
0.000269336
-2.09517e-06
0.000271382
-2.04516e-06
0.000273376
-1.99438e-06
0.000275319
-1.94285e-06
0.000277209
-1.8906e-06
0.000279047
-1.83764e-06
0.000280831
-1.78401e-06
0.000282561
-1.72972e-06
0.000284236
-1.67481e-06
0.000285855
-1.6193e-06
0.000287418
-1.56323e-06
0.000288925
-1.50661e-06
0.000290374
-1.44949e-06
0.000291766
-1.39188e-06
0.0002931
-1.33383e-06
0.000294375
-1.27537e-06
0.000295592
-1.21653e-06
0.000296749
-1.15733e-06
0.000297847
-1.09782e-06
0.000298885
-1.03803e-06
0.000299863
-9.77995e-07
0.000300781
-9.17744e-07
0.000301638
-8.57314e-07
0.000302435
-7.9674e-07
0.000303171
-7.36057e-07
0.000303846
-6.75297e-07
0.000304461
-6.14496e-07
0.000305014
-5.53686e-07
0.000305507
-4.92903e-07
0.000305939
-4.32178e-07
0.000306311
-3.71545e-07
0.000306622
-3.11037e-07
0.000306873
-2.50684e-07
0.000307063
-1.90518e-07
0.000307194
-1.3057e-07
0.000307265
-7.08691e-08
0.000307276
-1.14455e-08
0.000307228
4.76729e-08
0.000307122
1.06458e-07
0.000306957
1.64884e-07
0.000306734
2.22924e-07
0.000306454
2.80553e-07
0.000306116
3.37747e-07
0.000305721
3.94483e-07
0.000305271
4.50739e-07
0.000304764
5.06493e-07
0.000304202
5.61725e-07
0.000303586
6.16416e-07
0.000302915
6.70547e-07
0.000302191
7.24101e-07
0.000301414
7.77062e-07
0.000300585
8.29415e-07
0.000299704
8.81145e-07
0.000298771
9.32239e-07
0.000297789
9.82685e-07
0.000296756
1.03247e-06
0.000295675
1.08159e-06
0.000294545
1.13002e-06
0.000293367
1.17777e-06
0.000292142
1.22483e-06
0.000290871
1.27118e-06
0.000289554
1.31682e-06
0.000288192
1.36175e-06
0.000286786
1.40596e-06
0.000285337
1.44945e-06
0.000283845
1.49221e-06
0.00028231
1.53425e-06
0.000280735
1.57557e-06
0.000279119
1.61615e-06
0.000277463
1.65601e-06
0.000275768
1.69514e-06
0.000274034
1.73354e-06
0.000272263
1.77122e-06
0.000270455
1.80818e-06
0.00026861
1.84442e-06
0.00026673
1.87994e-06
0.000264816
1.91476e-06
0.000262867
1.94886e-06
0.000260884
1.98226e-06
0.000258869
2.01496e-06
0.000256822
2.04697e-06
0.000254744
2.0783e-06
0.000252635
2.10894e-06
0.000250496
2.1389e-06
0.000248328
2.1682e-06
0.000246131
2.19684e-06
0.000243906
2.22482e-06
0.000241654
2.25215e-06
0.000239376
2.27884e-06
0.000237071
2.3049e-06
0.00023474
2.33034e-06
0.000232385
2.35516e-06
0.000230006
2.37936e-06
0.000227603
2.40297e-06
0.000225177
2.42598e-06
0.000222728
2.44841e-06
0.000220258
2.47026e-06
0.000217767
2.49155e-06
0.000215254
2.51227e-06
0.000212722
2.53244e-06
0.00021017
2.55207e-06
0.000207599
2.57117e-06
0.000205009
2.58974e-06
0.000202401
2.60779e-06
0.000199776
2.62534e-06
0.000197133
2.64239e-06
0.000194474
2.65894e-06
0.000191799
2.67502e-06
0.000189109
2.69062e-06
0.000186403
2.70575e-06
0.000183683
2.72043e-06
0.000180948
2.73467e-06
0.000178199
2.74846e-06
0.000175438
2.76182e-06
0.000172663
2.77477e-06
0.000169876
2.78729e-06
0.000167076
2.79942e-06
0.000164265
2.81115e-06
0.000161443
2.82249e-06
0.000158609
2.83345e-06
0.000155765
2.84404e-06
0.000152911
2.85426e-06
0.000150047
2.86413e-06
0.000147173
2.87366e-06
0.00014429
2.88284e-06
0.000141398
2.8917e-06
0.000138498
2.90023e-06
0.00013559
2.90845e-06
0.000132673
2.91636e-06
0.000129749
2.92397e-06
0.000126818
2.93129e-06
0.00012388
2.93833e-06
0.000120935
2.94509e-06
0.000117983
2.95157e-06
0.000115025
2.9578e-06
0.000112062
2.96377e-06
0.000109092
2.96949e-06
0.000106117
2.97497e-06
0.000103137
2.98021e-06
0.000100152
2.98523e-06
9.71617e-05
2.99002e-06
9.41671e-05
2.9946e-06
9.11681e-05
2.99897e-06
8.8165e-05
3.00313e-06
8.51579e-05
3.0071e-06
8.2147e-05
3.01087e-06
7.91325e-05
3.01446e-06
7.61147e-05
3.01787e-06
7.30936e-05
3.0211e-06
7.00694e-05
3.02416e-06
6.70423e-05
3.02706e-06
6.40125e-05
3.02979e-06
6.09802e-05
3.03237e-06
5.79454e-05
3.0348e-06
5.49083e-05
3.03707e-06
5.18691e-05
3.03921e-06
4.88279e-05
3.0412e-06
4.57848e-05
3.04306e-06
4.274e-05
3.04479e-06
3.96937e-05
3.04638e-06
3.66458e-05
3.04785e-06
3.35966e-05
3.04919e-06
3.05462e-05
3.05042e-06
2.74947e-05
3.05152e-06
2.44422e-05
3.05251e-06
2.13888e-05
3.05338e-06
1.83346e-05
3.05414e-06
1.52799e-05
3.05479e-06
1.22245e-05
3.05533e-06
9.16877e-06
3.05576e-06
6.11269e-06
3.05608e-06
3.0564e-06
3.05629e-06
3.0564e-06
3.61634e-06
-7.23252e-06
7.23251e-06
-7.23219e-06
1.08484e-05
-7.23153e-06
1.44637e-05
-7.23055e-06
1.80784e-05
-7.22922e-06
2.16923e-05
-7.22756e-06
2.53051e-05
-7.22555e-06
2.89168e-05
-7.22318e-06
3.25271e-05
-7.22045e-06
3.61359e-05
-7.21735e-06
3.97429e-05
-7.21386e-06
4.3348e-05
-7.20997e-06
4.6951e-05
-7.20567e-06
5.05515e-05
-7.20094e-06
5.41495e-05
-7.19577e-06
5.77447e-05
-7.19013e-06
6.13369e-05
-7.18401e-06
6.49257e-05
-7.17739e-06
6.85109e-05
-7.17025e-06
7.20924e-05
-7.16257e-06
7.56697e-05
-7.15432e-06
7.92426e-05
-7.14547e-06
8.28107e-05
-7.13601e-06
8.63738e-05
-7.1259e-06
8.99316e-05
-7.11512e-06
9.34836e-05
-7.10365e-06
9.70295e-05
-7.09144e-06
0.000100569
-7.07848e-06
0.000104101
-7.06473e-06
0.000107627
-7.05016e-06
0.000111144
-7.03474e-06
0.000114654
-7.01843e-06
0.000118155
-7.0012e-06
0.000121646
-6.98302e-06
0.000125129
-6.96385e-06
0.000128601
-6.94367e-06
0.000132062
-6.92242e-06
0.000135512
-6.90009e-06
0.000138951
-6.87662e-06
0.000142377
-6.852e-06
0.000145791
-6.82617e-06
0.000149191
-6.79911e-06
0.000152576
-6.77078e-06
0.000155947
-6.74114e-06
0.000159303
-6.71016e-06
0.000162642
-6.6778e-06
0.000165964
-6.64403e-06
0.000169269
-6.60882e-06
0.000172556
-6.57212e-06
0.000175823
-6.53392e-06
0.00017907
-6.49417e-06
0.000182297
-6.45284e-06
0.000185503
-6.40991e-06
0.000188686
-6.36535e-06
0.000191846
-6.31912e-06
0.000194982
-6.2712e-06
0.000198093
-6.22157e-06
0.000201178
-6.1702e-06
0.000204237
-6.11707e-06
0.000207269
-6.06215e-06
0.000210272
-6.00543e-06
0.000213246
-5.9469e-06
0.00021619
-5.88653e-06
0.000219102
-5.82431e-06
0.000221983
-5.76023e-06
0.00022483
-5.69429e-06
0.000227644
-5.62646e-06
0.000230423
-5.55676e-06
0.000233166
-5.48517e-06
0.000235872
-5.4117e-06
0.000238541
-5.33635e-06
0.000241171
-5.25912e-06
0.000243762
-5.18002e-06
0.000246312
-5.09906e-06
0.00024882
-5.01625e-06
0.000251286
-4.93161e-06
0.000253709
-4.84515e-06
0.000256088
-4.7569e-06
0.000258422
-4.66687e-06
0.00026071
-4.5751e-06
0.000262951
-4.48161e-06
0.000265145
-4.38642e-06
0.00026729
-4.28959e-06
0.000269386
-4.19113e-06
0.000271432
-4.09109e-06
0.000273427
-3.98951e-06
0.000275371
-3.88643e-06
0.000277262
-3.7819e-06
0.0002791
-3.67596e-06
0.000280885
-3.56867e-06
0.000282615
-3.46007e-06
0.000284291
-3.35022e-06
0.000285911
-3.23918e-06
0.000287474
-3.12699e-06
0.000288982
-3.01373e-06
0.000290432
-2.89945e-06
0.000291824
-2.78422e-06
0.000293158
-2.66808e-06
0.000294434
-2.55113e-06
0.000295651
-2.4334e-06
0.000296808
-2.31498e-06
0.000297907
-2.19593e-06
0.000298945
-2.07631e-06
0.000299923
-1.9562e-06
0.000300841
-1.83567e-06
0.000301698
-1.71477e-06
0.000302495
-1.59359e-06
0.000303231
-1.47219e-06
0.000303907
-1.35064e-06
0.000304521
-1.229e-06
0.000305075
-1.10735e-06
0.000305568
-9.85749e-07
0.000306
-8.64267e-07
0.000306371
-7.42969e-07
0.000306682
-6.2192e-07
0.000306933
-5.01183e-07
0.000307123
-3.8082e-07
0.000307253
-2.60894e-07
0.000307324
-1.41464e-07
0.000307335
-2.25885e-08
0.000307287
9.56759e-08
0.00030718
2.13273e-07
0.000307015
3.30151e-07
0.000306792
4.46256e-07
0.000306511
5.61538e-07
0.000306172
6.75949e-07
0.000305777
7.89444e-07
0.000305326
9.01976e-07
0.000304819
1.0135e-06
0.000304257
1.12399e-06
0.00030364
1.23339e-06
0.000302969
1.34167e-06
0.000302244
1.44879e-06
0.000301466
1.55473e-06
0.000300636
1.65945e-06
0.000299755
1.76292e-06
0.000298822
1.86512e-06
0.000297838
1.96603e-06
0.000296805
2.06561e-06
0.000295723
2.16385e-06
0.000294592
2.26073e-06
0.000293414
2.35624e-06
0.000292188
2.45035e-06
0.000290916
2.54306e-06
0.000289599
2.63435e-06
0.000288236
2.72421e-06
0.00028683
2.81263e-06
0.00028538
2.89961e-06
0.000283887
2.98515e-06
0.000282352
3.06923e-06
0.000280775
3.15186e-06
0.000279159
3.23303e-06
0.000277502
3.31274e-06
0.000275806
3.391e-06
0.000274072
3.46781e-06
0.0002723
3.54317e-06
0.000270491
3.61708e-06
0.000268646
3.68955e-06
0.000266765
3.7606e-06
0.00026485
3.83022e-06
0.0002629
3.89842e-06
0.000260917
3.96522e-06
0.000258901
4.03062e-06
0.000256854
4.09463e-06
0.000254775
4.15727e-06
0.000252665
4.21855e-06
0.000250526
4.27847e-06
0.000248357
4.33706e-06
0.000246159
4.39433e-06
0.000243934
4.45028e-06
0.000241681
4.50494e-06
0.000239402
4.55832e-06
0.000237096
4.61043e-06
0.000234765
4.66129e-06
0.000232409
4.71092e-06
0.000230029
4.75933e-06
0.000227626
4.80653e-06
0.000225199
4.85255e-06
0.00022275
4.8974e-06
0.000220279
4.94109e-06
0.000217787
4.98365e-06
0.000215274
5.02509e-06
0.000212741
5.06543e-06
0.000210189
5.10468e-06
0.000207617
5.14286e-06
0.000205027
5.18e-06
0.000202419
5.2161e-06
0.000199793
5.25118e-06
0.00019715
5.28526e-06
0.000194491
5.31837e-06
0.000191815
5.35051e-06
0.000189124
5.3817e-06
0.000186418
5.41196e-06
0.000183697
5.44131e-06
0.000180962
5.46977e-06
0.000178213
5.49735e-06
0.000175451
5.52407e-06
0.000172675
5.54994e-06
0.000169888
5.57499e-06
0.000167088
5.59923e-06
0.000164276
5.62268e-06
0.000161454
5.64535e-06
0.00015862
5.66726e-06
0.000155775
5.68843e-06
0.000152921
5.70888e-06
0.000150056
5.72861e-06
0.000147182
5.74766e-06
0.000144299
5.76602e-06
0.000141407
5.78372e-06
0.000138506
5.80078e-06
0.000135598
5.81721e-06
0.000132681
5.83302e-06
0.000129757
5.84824e-06
0.000126825
5.86287e-06
0.000123887
5.87693e-06
0.000120941
5.89044e-06
0.000117989
5.90341e-06
0.000115031
5.91585e-06
0.000112067
5.92779e-06
0.000109098
5.93922e-06
0.000106122
5.95017e-06
0.000103142
5.96065e-06
0.000100157
5.97068e-06
9.71663e-05
5.98026e-06
9.41715e-05
5.98941e-06
9.11723e-05
5.99814e-06
8.8169e-05
6.00646e-06
8.51617e-05
6.01439e-06
8.21506e-05
6.02193e-06
7.9136e-05
6.0291e-06
7.61179e-05
6.03591e-06
7.30967e-05
6.04237e-06
7.00723e-05
6.04849e-06
6.70451e-05
6.05428e-06
6.40152e-05
6.05974e-06
6.09826e-05
6.06489e-06
5.79477e-05
6.06974e-06
5.49105e-05
6.07429e-06
5.18711e-05
6.07856e-06
4.88298e-05
6.08254e-06
4.57866e-05
6.08626e-06
4.27417e-05
6.0897e-06
3.96952e-05
6.09289e-06
3.66472e-05
6.09583e-06
3.35979e-05
6.09851e-06
3.05473e-05
6.10096e-06
2.74957e-05
6.10316e-06
2.44431e-05
6.10514e-06
2.13896e-05
6.10688e-06
1.83353e-05
6.1084e-06
1.52804e-05
6.10969e-06
1.2225e-05
6.11077e-06
9.16909e-06
6.11163e-06
6.11291e-06
6.11227e-06
3.05651e-06
6.11269e-06
6.1129e-06
3.61667e-06
-1.08492e-05
7.23318e-06
-1.08487e-05
1.08494e-05
-1.08477e-05
1.4465e-05
-1.08462e-05
1.80801e-05
-1.08443e-05
2.16943e-05
-1.08418e-05
2.53075e-05
-1.08388e-05
2.89196e-05
-1.08352e-05
3.25303e-05
-1.08312e-05
3.61394e-05
-1.08265e-05
3.97469e-05
-1.08213e-05
4.33524e-05
-1.08155e-05
4.69557e-05
-1.0809e-05
5.05568e-05
-1.0802e-05
5.41552e-05
-1.07942e-05
5.77509e-05
-1.07858e-05
6.13435e-05
-1.07766e-05
6.49329e-05
-1.07667e-05
6.85187e-05
-1.07561e-05
7.21007e-05
-1.07446e-05
7.56786e-05
-1.07322e-05
7.92521e-05
-1.0719e-05
8.28209e-05
-1.07048e-05
8.63847e-05
-1.06897e-05
8.99431e-05
-1.06736e-05
9.34958e-05
-1.06564e-05
9.70425e-05
-1.06381e-05
0.000100583
-1.06187e-05
0.000104116
-1.05981e-05
0.000107642
-1.05763e-05
0.000111161
-1.05532e-05
0.000114671
-1.05288e-05
0.000118173
-1.0503e-05
0.000121666
-1.04758e-05
0.000125149
-1.04471e-05
0.000128622
-1.04168e-05
0.000132085
-1.0385e-05
0.000135536
-1.03515e-05
0.000138976
-1.03164e-05
0.000142403
-1.02795e-05
0.000145818
-1.02408e-05
0.000149219
-1.02003e-05
0.000152606
-1.01578e-05
0.000155978
-1.01134e-05
0.000159335
-1.0067e-05
0.000162676
-1.00185e-05
0.000166
-9.96785e-06
0.000169306
-9.91507e-06
0.000172594
-9.86007e-06
0.000175863
-9.8028e-06
0.000179112
-9.74322e-06
0.00018234
-9.68127e-06
0.000185547
-9.61691e-06
0.000188732
-9.5501e-06
0.000191894
-9.48079e-06
0.000195031
-9.40895e-06
0.000198144
-9.33453e-06
0.000201232
-9.2575e-06
0.000204292
-9.17783e-06
0.000207326
-9.09548e-06
0.000210331
-9.01042e-06
0.000213306
-8.92264e-06
0.000216252
-8.8321e-06
0.000219166
-8.73879e-06
0.000222049
-8.64268e-06
0.000224898
-8.54377e-06
0.000227714
-8.44205e-06
0.000230495
-8.33749e-06
0.00023324
-8.23011e-06
0.000235948
-8.1199e-06
0.000238618
-8.00687e-06
0.00024125
-7.89101e-06
0.000243843
-7.77235e-06
0.000246394
-7.6509e-06
0.000248905
-7.52666e-06
0.000251373
-7.39968e-06
0.000253798
-7.26997e-06
0.000256178
-7.13756e-06
0.000258514
-7.00249e-06
0.000260804
-6.8648e-06
0.000263047
-6.72452e-06
0.000265242
-6.58171e-06
0.000267389
-6.4364e-06
0.000269486
-6.28867e-06
0.000271534
-6.13856e-06
0.00027353
-5.98614e-06
0.000275475
-5.83146e-06
0.000277368
-5.67461e-06
0.000279208
-5.51564e-06
0.000280994
-5.35463e-06
0.000282725
-5.19167e-06
0.000284402
-5.02682e-06
0.000286023
-4.86019e-06
0.000287588
-4.69184e-06
0.000289096
-4.52187e-06
0.000290547
-4.35037e-06
0.00029194
-4.17744e-06
0.000293275
-4.00316e-06
0.000294552
-3.82764e-06
0.000295769
-3.65097e-06
0.000296928
-3.47326e-06
0.000298026
-3.2946e-06
0.000299065
-3.11509e-06
0.000300044
-2.93484e-06
0.000300962
-2.75395e-06
0.00030182
-2.57252e-06
0.000302617
-2.39066e-06
0.000303353
-2.20848e-06
0.000304028
-2.02606e-06
0.000304643
-1.84352e-06
0.000305197
-1.66096e-06
0.000305689
-1.47848e-06
0.000306121
-1.29617e-06
0.000306492
-1.11414e-06
0.000306803
-9.32489e-07
0.000307053
-7.51306e-07
0.000307243
-5.70686e-07
0.000307373
-3.90722e-07
0.000307443
-2.11504e-07
0.000307453
-3.31188e-08
0.000307405
1.44347e-07
0.000307297
3.2081e-07
0.000307131
4.96191e-07
0.000306907
6.70411e-07
0.000306625
8.43395e-07
0.000306286
1.01507e-06
0.00030589
1.18537e-06
0.000305438
1.35422e-06
0.00030493
1.52156e-06
0.000304366
1.68734e-06
0.000303748
1.85148e-06
0.000303076
2.01394e-06
0.00030235
2.17467e-06
0.000301571
2.33362e-06
0.00030074
2.49073e-06
0.000299857
2.64598e-06
0.000298923
2.79931e-06
0.000297938
2.95069e-06
0.000296904
3.10009e-06
0.00029582
3.24748e-06
0.000294688
3.39282e-06
0.000293508
3.5361e-06
0.000292281
3.67728e-06
0.000291008
3.81636e-06
0.000289689
3.9533e-06
0.000288325
4.08811e-06
0.000286917
4.22075e-06
0.000285465
4.35123e-06
0.000283971
4.47954e-06
0.000282434
4.60566e-06
0.000280857
4.72961e-06
0.000279238
4.85136e-06
0.00027758
4.97093e-06
0.000275883
5.08832e-06
0.000274147
5.20352e-06
0.000272374
5.31655e-06
0.000270563
5.42742e-06
0.000268717
5.53612e-06
0.000266835
5.64268e-06
0.000264918
5.7471e-06
0.000262967
5.84939e-06
0.000260983
5.94957e-06
0.000258965
6.04766e-06
0.000256916
6.14367e-06
0.000254836
6.23761e-06
0.000252725
6.32951e-06
0.000250584
6.41938e-06
0.000248414
6.50725e-06
0.000246215
6.59313e-06
0.000243989
6.67704e-06
0.000241734
6.75901e-06
0.000239454
6.83906e-06
0.000237147
6.91721e-06
0.000234815
6.99348e-06
0.000232458
7.0679e-06
0.000230077
7.14049e-06
0.000227672
7.21128e-06
0.000225244
7.28029e-06
0.000222794
7.34754e-06
0.000220322
7.41306e-06
0.000217829
7.47688e-06
0.000215315
7.53901e-06
0.000212781
7.5995e-06
0.000210227
7.65835e-06
0.000207654
7.71561e-06
0.000205063
7.77129e-06
0.000202454
7.82541e-06
0.000199827
7.87802e-06
0.000197183
7.92912e-06
0.000194523
7.97876e-06
0.000191846
8.02694e-06
0.000189154
8.07371e-06
0.000186447
8.11908e-06
0.000183725
8.16309e-06
0.000180989
8.20575e-06
0.00017824
8.2471e-06
0.000175476
8.28715e-06
0.0001727
8.32595e-06
0.000169912
8.3635e-06
0.000167111
8.39984e-06
0.000164299
8.43499e-06
0.000161475
8.46897e-06
0.000158641
8.50182e-06
0.000155796
8.53356e-06
0.00015294
8.5642e-06
0.000150075
8.59379e-06
0.000147201
8.62233e-06
0.000144317
8.64986e-06
0.000141424
8.67639e-06
0.000138523
8.70196e-06
0.000135614
8.72658e-06
0.000132696
8.75028e-06
0.000129771
8.77309e-06
0.000126839
8.79502e-06
0.0001239
8.81609e-06
0.000120954
8.83634e-06
0.000118002
8.85577e-06
0.000115043
8.87442e-06
0.000112079
8.8923e-06
0.000109109
8.90944e-06
0.000106133
8.92585e-06
0.000103152
8.94155e-06
0.000100166
8.95657e-06
9.71754e-05
8.97093e-06
9.41802e-05
8.98464e-06
9.11806e-05
8.99772e-06
8.81769e-05
9.01019e-06
8.51692e-05
9.02206e-06
8.21578e-05
9.03337e-06
7.91428e-05
9.04411e-06
7.61244e-05
9.05431e-06
7.31028e-05
9.06399e-06
7.00781e-05
9.07315e-06
6.70506e-05
9.08182e-06
6.40203e-05
9.09e-06
6.09875e-05
9.09772e-06
5.79522e-05
9.10498e-06
5.49147e-05
9.1118e-06
5.18751e-05
9.11819e-06
4.88335e-05
9.12416e-06
4.579e-05
9.12972e-06
4.27448e-05
9.13488e-06
3.96981e-05
9.13965e-06
3.66499e-05
9.14405e-06
3.36003e-05
9.14807e-06
3.05495e-05
9.15173e-06
2.74977e-05
9.15504e-06
2.44448e-05
9.15799e-06
2.13911e-05
9.1606e-06
1.83366e-05
9.16288e-06
1.52815e-05
9.16482e-06
1.22258e-05
9.16643e-06
9.16974e-06
9.16771e-06
6.11333e-06
9.16867e-06
3.05672e-06
9.16931e-06
9.16962e-06
3.61716e-06
-1.44664e-05
7.23417e-06
-1.44657e-05
1.08508e-05
-1.44644e-05
1.4467e-05
-1.44624e-05
1.80826e-05
-1.44598e-05
2.16973e-05
-1.44565e-05
2.53111e-05
-1.44525e-05
2.89237e-05
-1.44478e-05
3.25349e-05
-1.44424e-05
3.61447e-05
-1.44362e-05
3.97527e-05
-1.44293e-05
4.33588e-05
-1.44216e-05
4.69628e-05
-1.44131e-05
5.05645e-05
-1.44037e-05
5.41637e-05
-1.43934e-05
5.77601e-05
-1.43822e-05
6.13535e-05
-1.437e-05
6.49436e-05
-1.43569e-05
6.85302e-05
-1.43427e-05
7.21131e-05
-1.43274e-05
7.56919e-05
-1.4311e-05
7.92663e-05
-1.42934e-05
8.28361e-05
-1.42746e-05
8.64009e-05
-1.42545e-05
8.99604e-05
-1.4233e-05
9.35142e-05
-1.42102e-05
9.7062e-05
-1.41859e-05
0.000100603
-1.41601e-05
0.000104138
-1.41327e-05
0.000107665
-1.41037e-05
0.000111185
-1.4073e-05
0.000114697
-1.40405e-05
0.0001182
-1.40062e-05
0.000121694
-1.397e-05
0.000125179
-1.39318e-05
0.000128654
-1.38916e-05
0.000132118
-1.38492e-05
0.000135571
-1.38047e-05
0.000139013
-1.37579e-05
0.000142442
-1.37088e-05
0.000145859
-1.36573e-05
0.000149262
-1.36033e-05
0.000152651
-1.35468e-05
0.000156025
-1.34876e-05
0.000159384
-1.34258e-05
0.000162727
-1.33612e-05
0.000166053
-1.32938e-05
0.000169361
-1.32236e-05
0.000172651
-1.31503e-05
0.000175922
-1.3074e-05
0.000179174
-1.29946e-05
0.000182405
-1.29121e-05
0.000185614
-1.28264e-05
0.000188801
-1.27373e-05
0.000191966
-1.2645e-05
0.000195106
-1.25493e-05
0.000198222
-1.24501e-05
0.000201311
-1.23474e-05
0.000204375
-1.22413e-05
0.000207411
-1.21315e-05
0.000210419
-1.20181e-05
0.000213397
-1.19011e-05
0.000216346
-1.17805e-05
0.000219263
-1.16561e-05
0.000222148
-1.15279e-05
0.000225
-1.13961e-05
0.000227819
-1.12605e-05
0.000230602
-1.11211e-05
0.00023335
-1.09779e-05
0.000236061
-1.08309e-05
0.000238734
-1.06802e-05
0.000241369
-1.05257e-05
0.000243964
-1.03675e-05
0.000246519
-1.02055e-05
0.000249032
-1.00398e-05
0.000251503
-9.87048e-06
0.00025393
-9.69749e-06
0.000256314
-9.52089e-06
0.000258652
-9.34074e-06
0.000260944
-9.15708e-06
0.00026319
-8.96997e-06
0.000265387
-8.77947e-06
0.000267537
-8.58566e-06
0.000269637
-8.38859e-06
0.000271686
-8.18835e-06
0.000273685
-7.98502e-06
0.000275633
-7.77868e-06
0.000277527
-7.56942e-06
0.000279369
-7.35735e-06
0.000281157
-7.14256e-06
0.00028289
-6.92514e-06
0.000284569
-6.70522e-06
0.000286192
-6.48291e-06
0.000287758
-6.25831e-06
0.000289268
-6.03154e-06
0.00029072
-5.80273e-06
0.000292115
-5.57201e-06
0.000293451
-5.33949e-06
0.000294729
-5.10531e-06
0.000295947
-4.86959e-06
0.000297106
-4.63248e-06
0.000298206
-4.39411e-06
0.000299245
-4.15461e-06
0.000300225
-3.91411e-06
0.000301144
-3.67277e-06
0.000302002
-3.4307e-06
0.000302799
-3.18806e-06
0.000303536
-2.94499e-06
0.000304211
-2.70161e-06
0.000304826
-2.45806e-06
0.000305379
-2.21449e-06
0.000305872
-1.97102e-06
0.000306303
-1.7278e-06
0.000306674
-1.48494e-06
0.000306984
-1.24259e-06
0.000307234
-1.00086e-06
0.000307423
-7.59894e-07
0.000307552
-5.19802e-07
0.000307621
-2.80707e-07
0.000307631
-4.27281e-08
0.000307581
1.94022e-07
0.000307473
4.29432e-07
0.000307306
6.63394e-07
0.00030708
8.95805e-07
0.000306797
1.12656e-06
0.000306456
1.35557e-06
0.000306059
1.58274e-06
0.000305605
1.80797e-06
0.000305096
2.03119e-06
0.000304531
2.25231e-06
0.000303911
2.47126e-06
0.000303237
2.68796e-06
0.000302509
2.90234e-06
0.000301729
3.11433e-06
0.000300895
3.32389e-06
0.00030001
3.53094e-06
0.000299074
3.73544e-06
0.000298088
3.93734e-06
0.000297051
4.13659e-06
0.000295965
4.33315e-06
0.000294831
4.52698e-06
0.000293649
4.71805e-06
0.00029242
4.90633e-06
0.000291145
5.09179e-06
0.000289824
5.27441e-06
0.000288458
5.45416e-06
0.000287047
5.63104e-06
0.000285594
5.80503e-06
0.000284097
5.97611e-06
0.000282558
6.14428e-06
0.000280979
6.30954e-06
0.000279358
6.47188e-06
0.000277698
6.63131e-06
0.000275998
6.78781e-06
0.00027426
6.94141e-06
0.000272485
7.09211e-06
0.000270672
7.23991e-06
0.000268823
7.38484e-06
0.000266939
7.5269e-06
0.00026502
7.6661e-06
0.000263067
7.80247e-06
0.000261081
7.93603e-06
0.000259062
8.06678e-06
0.00025701
8.19477e-06
0.000254928
8.32e-06
0.000252815
8.4425e-06
0.000250672
8.5623e-06
0.0002485
8.67942e-06
0.000246299
8.7939e-06
0.000244071
8.90575e-06
0.000241815
9.01501e-06
0.000239532
9.1217e-06
0.000237223
9.22586e-06
0.000234889
9.32752e-06
0.00023253
9.42671e-06
0.000230147
9.52346e-06
0.000227741
9.61781e-06
0.000225311
9.70978e-06
0.000222859
9.79941e-06
0.000220386
9.88673e-06
0.000217891
9.97178e-06
0.000215375
1.00546e-05
0.00021284
1.01352e-05
0.000210284
1.02136e-05
0.00020771
1.02899e-05
0.000205117
1.03641e-05
0.000202506
1.04363e-05
0.000199878
1.05064e-05
0.000197233
1.05745e-05
0.000194571
1.06406e-05
0.000191893
1.07048e-05
0.0001892
1.07671e-05
0.000186491
1.08276e-05
0.000183768
1.08862e-05
0.000181031
1.09431e-05
0.00017828
1.09981e-05
0.000175515
1.10515e-05
0.000172738
1.11032e-05
0.000169948
1.11532e-05
0.000167147
1.12016e-05
0.000164333
1.12485e-05
0.000161508
1.12937e-05
0.000158673
1.13375e-05
0.000155826
1.13798e-05
0.00015297
1.14206e-05
0.000150104
1.146e-05
0.000147228
1.1498e-05
0.000144343
1.15347e-05
0.00014145
1.157e-05
0.000138548
1.16041e-05
0.000135637
1.16369e-05
0.000132719
1.16684e-05
0.000129793
1.16988e-05
0.00012686
1.1728e-05
0.00012392
1.17561e-05
0.000120974
1.1783e-05
0.00011802
1.18089e-05
0.000115061
1.18338e-05
0.000112096
1.18576e-05
0.000109125
1.18804e-05
0.000106149
1.19022e-05
0.000103167
1.19231e-05
0.00010018
1.19431e-05
9.71891e-05
1.19622e-05
9.41933e-05
1.19805e-05
9.11931e-05
1.19979e-05
8.81888e-05
1.20145e-05
8.51805e-05
1.20303e-05
8.21685e-05
1.20454e-05
7.9153e-05
1.20597e-05
7.6134e-05
1.20732e-05
7.31119e-05
1.20861e-05
7.00868e-05
1.20983e-05
6.70587e-05
1.21098e-05
6.4028e-05
1.21207e-05
6.09947e-05
1.2131e-05
5.7959e-05
1.21407e-05
5.49211e-05
1.21497e-05
5.18811e-05
1.21582e-05
4.8839e-05
1.21662e-05
4.57952e-05
1.21736e-05
4.27496e-05
1.21804e-05
3.97025e-05
1.21868e-05
3.66539e-05
1.21926e-05
3.3604e-05
1.2198e-05
3.05528e-05
1.22029e-05
2.75006e-05
1.22073e-05
2.44474e-05
1.22112e-05
2.13933e-05
1.22147e-05
1.83385e-05
1.22177e-05
1.52831e-05
1.22203e-05
1.22271e-05
1.22224e-05
9.1707e-06
1.22241e-05
6.11397e-06
1.22254e-05
3.05704e-06
1.22262e-05
1.22267e-05
3.61782e-06
-1.80842e-05
7.23548e-06
-1.80834e-05
1.08528e-05
-1.80817e-05
1.44697e-05
-1.80793e-05
1.80859e-05
-1.8076e-05
2.17014e-05
-1.80719e-05
2.53158e-05
-1.8067e-05
2.89291e-05
-1.80612e-05
3.25411e-05
-1.80544e-05
3.61517e-05
-1.80468e-05
3.97605e-05
-1.80381e-05
4.33674e-05
-1.80285e-05
4.69723e-05
-1.80179e-05
5.05749e-05
-1.80062e-05
5.4175e-05
-1.79935e-05
5.77723e-05
-1.79795e-05
6.13667e-05
-1.79644e-05
6.49579e-05
-1.79481e-05
6.85456e-05
-1.79304e-05
7.21296e-05
-1.79114e-05
7.57096e-05
-1.7891e-05
7.92852e-05
-1.78691e-05
8.28563e-05
-1.78457e-05
8.64224e-05
-1.78206e-05
8.99833e-05
-1.77939e-05
9.35386e-05
-1.77655e-05
9.70879e-05
-1.77352e-05
0.000100631
-1.77031e-05
0.000104167
-1.7669e-05
0.000107696
-1.76329e-05
0.000111218
-1.75946e-05
0.000114731
-1.75541e-05
0.000118237
-1.75113e-05
0.000121733
-1.74662e-05
0.00012522
-1.74186e-05
0.000128696
-1.73684e-05
0.000132163
-1.73156e-05
0.000135618
-1.72601e-05
0.000139062
-1.72017e-05
0.000142494
-1.71405e-05
0.000145913
-1.70762e-05
0.000149318
-1.70089e-05
0.00015271
-1.69384e-05
0.000156087
-1.68646e-05
0.000159449
-1.67874e-05
0.000162794
-1.67069e-05
0.000166123
-1.66227e-05
0.000169434
-1.6535e-05
0.000172728
-1.64435e-05
0.000176002
-1.63483e-05
0.000179257
-1.62492e-05
0.000182491
-1.61462e-05
0.000185703
-1.60391e-05
0.000188894
-1.59279e-05
0.000192062
-1.58126e-05
0.000195205
-1.5693e-05
0.000198324
-1.55692e-05
0.000201418
-1.54409e-05
0.000204485
-1.53083e-05
0.000207525
-1.51712e-05
0.000210536
-1.50295e-05
0.000213518
-1.48833e-05
0.00021647
-1.47325e-05
0.000219391
-1.45771e-05
0.00022228
-1.4417e-05
0.000225136
-1.42521e-05
0.000227958
-1.40826e-05
0.000230746
-1.39084e-05
0.000233497
-1.37294e-05
0.000236212
-1.35457e-05
0.000238889
-1.33573e-05
0.000241528
-1.31642e-05
0.000244126
-1.29663e-05
0.000246685
-1.27638e-05
0.000249202
-1.25567e-05
0.000251676
-1.23449e-05
0.000254107
-1.21286e-05
0.000256494
-1.19078e-05
0.000258836
-1.16825e-05
0.000261132
-1.14528e-05
0.00026338
-1.12188e-05
0.000265582
-1.09806e-05
0.000267734
-1.07382e-05
0.000269837
-1.04917e-05
0.00027189
-1.02412e-05
0.000273892
-9.9869e-06
0.000275842
-9.72881e-06
0.00027774
-9.46706e-06
0.000279584
-9.20178e-06
0.000281375
-8.9331e-06
0.000283111
-8.66113e-06
0.000284791
-8.38602e-06
0.000286416
-8.10791e-06
0.000287985
-7.82693e-06
0.000289497
-7.54325e-06
0.000290951
-7.25701e-06
0.000292347
-6.96836e-06
0.000293685
-6.67747e-06
0.000294965
-6.3845e-06
0.000296185
-6.08961e-06
0.000297345
-5.79297e-06
0.000298446
-5.49475e-06
0.000299486
-5.19511e-06
0.000300466
-4.89424e-06
0.000301386
-4.5923e-06
0.000302245
-4.28946e-06
0.000303042
-3.9859e-06
0.000303779
-3.6818e-06
0.000304455
-3.37731e-06
0.00030507
-3.07263e-06
0.000305623
-2.76791e-06
0.000306115
-2.46333e-06
0.000306547
-2.15905e-06
0.000306917
-1.85524e-06
0.000307226
-1.55205e-06
0.000307475
-1.24966e-06
0.000307663
-9.48222e-07
0.000307791
-6.47882e-07
0.00030786
-3.48794e-07
0.000307868
-5.11061e-08
0.000307817
2.4504e-07
0.000307707
5.39504e-07
0.000307538
8.32152e-07
0.000307311
1.12285e-06
0.000307026
1.41148e-06
0.000306684
1.69792e-06
0.000306284
1.98204e-06
0.000305829
2.26375e-06
0.000305317
2.54292e-06
0.00030475
2.81947e-06
0.000304128
3.09329e-06
0.000303451
3.36429e-06
0.000302721
3.63239e-06
0.000301938
3.8975e-06
0.000301103
4.15955e-06
0.000300215
4.41846e-06
0.000299276
4.67418e-06
0.000298287
4.92664e-06
0.000297248
5.17578e-06
0.000296159
5.42154e-06
0.000295023
5.6639e-06
0.000293838
5.90279e-06
0.000292606
6.13819e-06
0.000291328
6.37006e-06
0.000290004
6.59837e-06
0.000288635
6.8231e-06
0.000287222
7.04422e-06
0.000285765
7.26173e-06
0.000284265
7.4756e-06
0.000282724
7.68582e-06
0.000281141
7.8924e-06
0.000279518
8.09532e-06
0.000277854
8.2946e-06
0.000276152
8.49022e-06
0.000274411
8.68221e-06
0.000272633
8.87056e-06
0.000270817
9.0553e-06
0.000268966
9.23643e-06
0.000267079
9.41397e-06
0.000265157
9.58795e-06
0.000263201
9.75837e-06
0.000261212
9.92528e-06
0.00025919
1.00887e-05
0.000257136
1.02486e-05
0.000255051
1.04051e-05
0.000252935
1.05582e-05
0.000250789
1.07079e-05
0.000248615
1.08542e-05
0.000246411
1.09973e-05
0.00024418
1.1137e-05
0.000241921
1.12736e-05
0.000239636
1.14069e-05
0.000237325
1.1537e-05
0.000234988
1.1664e-05
0.000232627
1.1788e-05
0.000230242
1.19088e-05
0.000227833
1.20267e-05