/*--------------------------------*- C++ -*----------------------------------*\
| =========                 |                                                 |
| \\      /  F ield         | OpenFOAM: The Open Source CFD Toolbox           |
|  \\    /   O peration     | Version:  v2012                                 |
|   \\  /    A nd           | Website:  www.openfoam.com                      |
|    \\/     M anipulation  |                                                 |
\*---------------------------------------------------------------------------*/
FoamFile
{
    version     2.0;
    format      ascii;
    class       volScalarField;
    location    "4.8";
    object      Psi_z;
}
// * * * * * * * * * * * * * * * * * * * * * * * * * * * * * * * * * * * * * //

dimensions      [0 2 -1 0 0 0 0];


internalField   nonuniform List<scalar> 
65536
(
9.05271e-06
2.71576e-05
4.52614e-05
6.3363e-05
8.14619e-05
9.95571e-05
0.000117648
0.000135733
0.000153812
0.000171884
0.000189948
0.000208002
0.000226047
0.000244081
0.000262102
0.00028011
0.000298103
0.000316081
0.000334042
0.000351985
0.000369907
0.000387809
0.000405688
0.000423543
0.000441373
0.000459174
0.000476947
0.000494688
0.000512396
0.000530069
0.000547705
0.000565301
0.000582856
0.000600367
0.000617832
0.000635247
0.000652612
0.000669922
0.000687175
0.000704368
0.000721499
0.000738563
0.000755559
0.000772483
0.000789331
0.0008061
0.000822787
0.000839388
0.000855899
0.000872316
0.000888637
0.000904856
0.00092097
0.000936975
0.000952866
0.00096864
0.000984292
0.000999817
0.00101521
0.00103047
0.00104559
0.00106057
0.0010754
0.00109007
0.00110459
0.00111894
0.00113312
0.00114714
0.00116097
0.00117463
0.0011881
0.00120138
0.00121446
0.00122734
0.00124001
0.00125248
0.00126473
0.00127676
0.00128857
0.00130015
0.0013115
0.00132261
0.00133348
0.0013441
0.00135448
0.0013646
0.00137447
0.00138408
0.00139342
0.00140249
0.0014113
0.00141982
0.00142807
0.00143605
0.00144373
0.00145114
0.00145825
0.00146507
0.0014716
0.00147784
0.00148378
0.00148942
0.00149476
0.0014998
0.00150454
0.00150897
0.0015131
0.00151693
0.00152045
0.00152366
0.00152657
0.00152917
0.00153147
0.00153347
0.00153515
0.00153654
0.00153762
0.0015384
0.00153888
0.00153906
0.00153894
0.00153853
0.00153782
0.00153682
0.00153553
0.00153395
0.00153209
0.00152994
0.00152751
0.0015248
0.00152181
0.00151856
0.00151503
0.00151123
0.00150717
0.00150285
0.00149827
0.00149344
0.00148836
0.00148302
0.00147745
0.00147163
0.00146557
0.00145928
0.00145277
0.00144602
0.00143905
0.00143186
0.00142446
0.00141684
0.00140901
0.00140098
0.00139275
0.00138432
0.0013757
0.00136689
0.00135789
0.00134871
0.00133935
0.00132981
0.00132011
0.00131023
0.00130019
0.00128999
0.00127963
0.00126911
0.00125845
0.00124763
0.00123668
0.00122558
0.00121435
0.00120298
0.00119148
0.00117985
0.00116809
0.00115622
0.00114423
0.00113212
0.0011199
0.00110757
0.00109513
0.00108259
0.00106994
0.0010572
0.00104436
0.00103143
0.00101841
0.0010053
0.000992108
0.00097883
0.000965472
0.000952036
0.000938524
0.000924939
0.000911282
0.000897556
0.000883764
0.000869906
0.000855986
0.000842006
0.000827967
0.000813871
0.00079972
0.000785517
0.000771262
0.000756958
0.000742607
0.00072821
0.000713768
0.000699284
0.000684759
0.000670194
0.000655592
0.000640953
0.000626279
0.000611571
0.000596831
0.00058206
0.000567259
0.000552429
0.000537572
0.00052269
0.000507782
0.00049285
0.000477895
0.000462919
0.000447922
0.000432905
0.00041787
0.000402816
0.000387745
0.000372659
0.000357557
0.000342441
0.000327311
0.000312168
0.000297013
0.000281846
0.000266669
0.000251482
0.000236286
0.000221081
0.000205867
0.000190647
0.00017542
0.000160186
0.000144947
0.000129703
0.000114454
9.92014e-05
8.39453e-05
6.86864e-05
5.34252e-05
3.81621e-05
2.28978e-05
7.63268e-06
2.71584e-05
8.14739e-05
0.000135786
0.000190092
0.000244389
0.000298675
0.000352948
0.000407205
0.000461443
0.000515659
0.000569851
0.000624016
0.000678151
0.000732253
0.000786317
0.000840343
0.000894324
0.000948259
0.00100214
0.00105597
0.00110974
0.00116345
0.00121709
0.00127065
0.00132414
0.00137755
0.00143087
0.00148409
0.00153722
0.00159024
0.00164315
0.00169594
0.00174861
0.00180114
0.00185354
0.00190579
0.00195789
0.00200982
0.00206158
0.00211316
0.00216456
0.00221576
0.00226675
0.00231752
0.00236807
0.00241838
0.00246844
0.00251825
0.00256779
0.00261704
0.00266601
0.00271467
0.00276301
0.00281103
0.00285871
0.00290604
0.002953
0.00299958
0.00304577
0.00309155
0.00313692
0.00318185
0.00322634
0.00327036
0.00331392
0.00335698
0.00339954
0.00344159
0.0034831
0.00352407
0.00356448
0.00360432
0.00364356
0.00368221
0.00372024
0.00375764
0.0037944
0.0038305
0.00386593
0.00390068
0.00393472
0.00396806
0.00400068
0.00403256
0.00406369
0.00409406
0.00412367
0.00415249
0.00418052
0.00420774
0.00423415
0.00425974
0.0042845
0.00430841
0.00433148
0.00435369
0.00437503
0.00439551
0.0044151
0.00443381
0.00445163
0.00446855
0.00448457
0.0044997
0.00451391
0.00452721
0.0045396
0.00455108
0.00456164
0.00457129
0.00458001
0.00458782
0.00459472
0.0046007
0.00460576
0.00460992
0.00461316
0.0046155
0.00461694
0.00461748
0.00461712
0.00461588
0.00461376
0.00461075
0.00460688
0.00460214
0.00459654
0.00459009
0.0045828
0.00457467
0.00456571
0.00455593
0.00454535
0.00453396
0.00452178
0.00450881
0.00449507
0.00448057
0.00446531
0.00444931
0.00443258
0.00441512
0.00439695
0.00437808
0.00435852
0.00433828
0.00431737
0.0042958
0.00427358
0.00425072
0.00422724
0.00420315
0.00417845
0.00415316
0.00412729
0.00410085
0.00407385
0.00404631
0.00401822
0.00398961
0.00396048
0.00393085
0.00390072
0.00387012
0.00383903
0.00380749
0.00377549
0.00374305
0.00371017
0.00367688
0.00364317
0.00360906
0.00357456
0.00353967
0.00350441
0.00346878
0.0034328
0.00339647
0.0033598
0.0033228
0.00328549
0.00324786
0.00320993
0.0031717
0.00313318
0.00309439
0.00305532
0.00301599
0.00297641
0.00293657
0.00289649
0.00285618
0.00281565
0.00277489
0.00273392
0.00269274
0.00265136
0.00260978
0.00256802
0.00252608
0.00248396
0.00244167
0.00239921
0.0023566
0.00231384
0.00227092
0.00222787
0.00218467
0.00214135
0.00209789
0.00205432
0.00201062
0.00196681
0.00192289
0.00187887
0.00183475
0.00179052
0.00174621
0.00170181
0.00165732
0.00161274
0.00156809
0.00152337
0.00147857
0.00143371
0.00138878
0.00134379
0.00129874
0.00125363
0.00120847
0.00116325
0.00111799
0.00107269
0.00102734
0.000981945
0.000936516
0.00089105
0.00084555
0.000800018
0.000754456
0.000708866
0.00066325
0.00061761
0.000571948
0.000526265
0.000480564
0.000434846
0.000389113
0.000343366
0.000297608
0.000251839
0.000206062
0.000160277
0.000114488
6.86942e-05
2.28983e-05
4.52653e-05
0.000135794
0.000226316
0.000316829
0.000407327
0.000497807
0.000588264
0.000678695
0.000769095
0.000859459
0.000949782
0.00104006
0.00113029
0.00122046
0.00131057
0.00140062
0.00149059
0.00158049
0.0016703
0.00176002
0.00184964
0.00193916
0.00202856
0.00211784
0.002207
0.00229601
0.00238488
0.0024736
0.00256215
0.00265052
0.00273871
0.00282671
0.00291449
0.00300206
0.0030894
0.00317649
0.00326332
0.00334989
0.00343617
0.00352215
0.00360782
0.00369315
0.00377815
0.00386278
0.00394704
0.0040309
0.00411436
0.00419738
0.00427995
0.00436206
0.00444368
0.0045248
0.00460539
0.00468543
0.00476491
0.0048438
0.00492208
0.00499973
0.00507673
0.00515305
0.00522867
0.00530358
0.00537774
0.00545113
0.00552373
0.00559552
0.00566647
0.00573657
0.00580577
0.00587407
0.00594144
0.00600785
0.00607328
0.0061377
0.0062011
0.00626345
0.00632473
0.00638491
0.00644398
0.0065019
0.00655866
0.00661424
0.00666861
0.00672176
0.00677366
0.0068243
0.00687365
0.00692169
0.00696842
0.00701381
0.00705784
0.00710049
0.00714177
0.00718163
0.00722009
0.00725711
0.00729269
0.00732682
0.00735948
0.00739067
0.00742037
0.00744858
0.00747529
0.0075005
0.00752419
0.00754637
0.00756702
0.00758615
0.00760375
0.00761983
0.00763437
0.00764739
0.00765888
0.00766884
0.00767728
0.0076842
0.00768961
0.0076935
0.00769589
0.00769679
0.00769619
0.00769412
0.00769057
0.00768556
0.00767909
0.00767118
0.00766184
0.00765109
0.00763892
0.00762536
0.00761043
0.00759412
0.00757647
0.00755748
0.00753716
0.00751554
0.00749263
0.00746845
0.00744301
0.00741634
0.00738844
0.00735933
0.00732904
0.00729757
0.00726496
0.00723121
0.00719634
0.00716038
0.00712334
0.00708523
0.00704609
0.00700592
0.00696475
0.00692258
0.00687946
0.00683538
0.00679036
0.00674444
0.00669762
0.00664992
0.00660137
0.00655197
0.00650175
0.00645072
0.0063989
0.00634631
0.00629297
0.00623889
0.00618409
0.00612859
0.0060724
0.00601554
0.00595802
0.00589986
0.00584108
0.00578169
0.00572171
0.00566115
0.00560003
0.00553836
0.00547616
0.00541343
0.0053502
0.00528648
0.00522228
0.00515762
0.0050925
0.00502694
0.00496095
0.00489455
0.00482775
0.00476056
0.00469299
0.00462505
0.00455676
0.00448812
0.00441914
0.00434985
0.00428024
0.00421032
0.00414012
0.00406963
0.00399887
0.00392784
0.00385656
0.00378503
0.00371327
0.00364127
0.00356906
0.00349663
0.00342399
0.00335116
0.00327814
0.00320494
0.00313156
0.00305802
0.00298431
0.00291045
0.00283644
0.00276228
0.00268799
0.00261357
0.00253903
0.00246437
0.00238959
0.0023147
0.00223971
0.00216462
0.00208944
0.00201417
0.00193881
0.00186337
0.00178786
0.00171227
0.00163662
0.0015609
0.00148512
0.00140929
0.0013334
0.00125746
0.00118147
0.00110544
0.00102938
0.000953269
0.00087713
0.000800959
0.00072476
0.000648537
0.00057229
0.000496024
0.000419741
0.000343444
0.000267135
0.000190817
0.000114493
3.81647e-05
6.33742e-05
0.00019012
0.000316857
0.00044358
0.000570283
0.000696961
0.000823608
0.000950217
0.00107678
0.0012033
0.00132976
0.00145616
0.00158248
0.00170873
0.0018349
0.00196097
0.00208694
0.0022128
0.00233855
0.00246416
0.00258964
0.00271498
0.00284015
0.00296516
0.00308999
0.00321462
0.00333906
0.00346327
0.00358725
0.00371099
0.00383448
0.00395768
0.0040806
0.00420321
0.0043255
0.00444744
0.00456903
0.00469024
0.00481105
0.00493145
0.0050514
0.0051709
0.00528992
0.00540843
0.00552641
0.00564384
0.0057607
0.00587696
0.00599259
0.00610757
0.00622186
0.00633545
0.00644831
0.0065604
0.0066717
0.00678217
0.0068918
0.00700054
0.00710837
0.00721525
0.00732115
0.00742605
0.00752991
0.00763269
0.00773437
0.0078349
0.00793427
0.00803243
0.00812935
0.008225
0.00831935
0.00841236
0.00850399
0.00859422
0.00868301
0.00877034
0.00885616
0.00894045
0.00902317
0.00910429
0.00918379
0.00926162
0.00933778
0.00941221
0.0094849
0.00955581
0.00962493
0.00969222
0.00975766
0.00982123
0.00988289
0.00994264
0.0100004
0.0100563
0.0101101
0.010162
0.0102118
0.0102596
0.0103053
0.010349
0.0103906
0.0104301
0.0104675
0.0105028
0.010536
0.010567
0.010596
0.0106227
0.0106474
0.0106699
0.0106903
0.0107085
0.0107246
0.0107385
0.0107503
0.01076
0.0107676
0.010773
0.0107763
0.0107776
0.0107767
0.0107738
0.0107688
0.0107618
0.0107527
0.0107417
0.0107286
0.0107135
0.0106964
0.0106774
0.0106565
0.0106337
0.0106089
0.0105823
0.0105539
0.0105236
0.0104915
0.0104576
0.010422
0.0103846
0.0103455
0.0103047
0.0102623
0.0102182
0.0101725
0.0101253
0.0100764
0.010026
0.00997416
0.00992079
0.00986596
0.0098097
0.00975203
0.00969297
0.00963257
0.00957083
0.00950779
0.00944347
0.0093779
0.00931109
0.00924309
0.00917391
0.00910357
0.00903211
0.00895954
0.00888589
0.00881119
0.00873546
0.00865871
0.00858099
0.0085023
0.00842267
0.00834212
0.00826068
0.00817837
0.0080952
0.00801121
0.00792641
0.00784081
0.00775446
0.00766735
0.00757952
0.00749098
0.00740175
0.00731185
0.0072213
0.00713011
0.00703831
0.00694592
0.00685294
0.0067594
0.00666531
0.0065707
0.00647557
0.00637994
0.00628383
0.00618725
0.00609022
0.00599276
0.00589486
0.00579656
0.00569787
0.00559878
0.00549933
0.00539953
0.00529938
0.00519889
0.00509809
0.00499697
0.00489556
0.00479387
0.00469189
0.00458966
0.00448716
0.00438442
0.00428145
0.00417825
0.00407484
0.00397121
0.00386739
0.00376338
0.00365918
0.00355481
0.00345027
0.00334557
0.00324073
0.00313573
0.0030306
0.00292534
0.00281995
0.00271445
0.00260883
0.0025031
0.00239728
0.00229136
0.00218534
0.00207925
0.00197307
0.00186683
0.00176051
0.00165412
0.00154768
0.00144118
0.00133462
0.00122802
0.00112138
0.0010147
0.000907983
0.000801234
0.000694458
0.000587658
0.000480838
0.000374002
0.000267153
0.000160295
5.34324e-05
8.14859e-05
0.000244454
0.000407412
0.000570351
0.000733265
0.000896147
0.00105899
0.00122178
0.00138452
0.0015472
0.0017098
0.00187232
0.00203475
0.00219709
0.00235931
0.00252142
0.0026834
0.00284523
0.00300692
0.00316845
0.00332979
0.00349095
0.00365191
0.00381266
0.00397317
0.00413344
0.00429344
0.00445317
0.00461261
0.00477173
0.00493051
0.00508895
0.00524701
0.00540468
0.00556194
0.00571876
0.00587512
0.00603099
0.00618636
0.00634118
0.00649545
0.00664913
0.00680219
0.0069546
0.00710633
0.00725736
0.00740765
0.00755717
0.00770588
0.00785375
0.00800075
0.00814685
0.00829199
0.00843616
0.00857931
0.0087214
0.0088624
0.00900226
0.00914095
0.00927842
0.00941464
0.00954957
0.00968315
0.00981536
0.00994614
0.0100755
0.0102033
0.0103295
0.0104542
0.0105772
0.0106986
0.0108182
0.0109361
0.0110522
0.0111664
0.0112787
0.0113891
0.0114975
0.011604
0.0117083
0.0118106
0.0119107
0.0120087
0.0121044
0.0121979
0.0122891
0.012378
0.0124646
0.0125488
0.0126306
0.0127099
0.0127867
0.0128611
0.0129329
0.0130022
0.0130689
0.013133
0.0131944
0.0132533
0.0133094
0.0133629
0.0134138
0.0134619
0.0135073
0.0135499
0.0135899
0.013627
0.0136615
0.0136932
0.0137221
0.0137483
0.0137717
0.0137924
0.0138103
0.0138255
0.0138379
0.0138476
0.0138546
0.0138589
0.0138605
0.0138594
0.0138556
0.0138492
0.0138401
0.0138284
0.0138141
0.0137973
0.0137779
0.0137559
0.0137315
0.0137045
0.0136751
0.0136433
0.013609
0.0135724
0.0135334
0.0134921
0.0134485
0.0134026
0.0133545
0.0133042
0.0132518
0.0131972
0.0131405
0.0130817
0.0130209
0.012958
0.0128932
0.0128265
0.0127578
0.0126873
0.0126149
0.0125407
0.0124647
0.012387
0.0123076
0.0122265
0.0121438
0.0120594
0.0119735
0.011886
0.011797
0.0117065
0.0116146
0.0115213
0.0114265
0.0113304
0.011233
0.0111343
0.0110343
0.0109331
0.0108307
0.0107271
0.0106224
0.0105165
0.0104095
0.0103015
0.0101924
0.0100824
0.0099713
0.00985927
0.00974631
0.00963244
0.00951768
0.00940206
0.00928561
0.00916834
0.00905028
0.00893146
0.00881189
0.00869159
0.0085706
0.00844892
0.00832659
0.00820361
0.00808001
0.00795582
0.00783104
0.0077057
0.00757981
0.0074534
0.00732648
0.00719907
0.00707119
0.00694284
0.00681405
0.00668484
0.00655521
0.00642519
0.00629479
0.00616402
0.00603289
0.00590142
0.00576963
0.00563752
0.00550511
0.00537241
0.00523943
0.00510619
0.00497268
0.00483894
0.00470496
0.00457075
0.00443634
0.00430171
0.0041669
0.00403189
0.00389671
0.00376136
0.00362586
0.00349019
0.00335439
0.00321845
0.00308238
0.00294618
0.00280987
0.00267346
0.00253694
0.00240032
0.00226362
0.00212683
0.00198997
0.00185303
0.00171603
0.00157896
0.00144184
0.00130467
0.00116746
0.00103021
0.000892915
0.000755594
0.000618248
0.000480881
0.000343498
0.000206103
6.87019e-05
9.96012e-05
0.000298799
0.000497984
0.000697148
0.00089628
0.00109537
0.00129442
0.0014934
0.00169232
0.00189117
0.00208992
0.00228858
0.00248712
0.00268555
0.00288385
0.003082
0.00327999
0.00347782
0.00367546
0.0038729
0.00407013
0.00426714
0.00446389
0.00466039
0.0048566
0.00505252
0.00524811
0.00544337
0.00563827
0.00583279
0.0060269
0.00622059
0.00641382
0.00660657
0.00679882
0.00699054
0.00718169
0.00737225
0.0075622
0.00775149
0.00794009
0.00812798
0.00831511
0.00850145
0.00868697
0.00887162
0.00905537
0.00923818
0.00942001
0.00960081
0.00978055
0.00995918
0.0101367
0.0103129
0.010488
0.0106617
0.0108341
0.0110052
0.0111748
0.0113429
0.0115094
0.0116744
0.0118378
0.0119994
0.0121594
0.0123175
0.0124738
0.0126282
0.0127807
0.0129312
0.0130796
0.0132259
0.01337
0.013512
0.0136517
0.0137891
0.0139241
0.0140567
0.0141868
0.0143144
0.0144395
0.0145619
0.0146817
0.0147988
0.0149132
0.0150248
0.0151335
0.0152394
0.0153423
0.0154423
0.0155393
0.0156333
0.0157242
0.0158121
0.0158968
0.0159783
0.0160567
0.0161319
0.0162038
0.0162725
0.016338
0.0164001
0.0164589
0.0165144
0.0165666
0.0166154
0.0166609
0.016703
0.0167417
0.0167771
0.0168091
0.0168377
0.016863
0.0168849
0.0169034
0.0169186
0.0169304
0.016939
0.0169442
0.0169461
0.0169447
0.01694
0.0169321
0.016921
0.0169067
0.0168892
0.0168686
0.0168448
0.0168179
0.016788
0.016755
0.016719
0.01668
0.0166381
0.0165933
0.0165456
0.016495
0.0164417
0.0163856
0.0163267
0.0162652
0.016201
0.0161342
0.0160648
0.0159929
0.0159185
0.0158416
0.0157623
0.0156807
0.0155967
0.0155104
0.0154219
0.0153311
0.0152382
0.0151432
0.015046
0.0149468
0.0148456
0.0147425
0.0146374
0.0145304
0.0144216
0.0143109
0.0141985
0.0140844
0.0139685
0.013851
0.0137319
0.0136112
0.0134889
0.0133652
0.0132399
0.0131133
0.0129852
0.0128557
0.0127249
0.0125929
0.0124595
0.0123249
0.0121891
0.0120521
0.011914
0.0117748
0.0116345
0.0114931
0.0113507
0.0112074
0.011063
0.0109177
0.0107716
0.0106245
0.0104766
0.0103278
0.0101782
0.0100279
0.0098768
0.00972496
0.00957242
0.00941919
0.00926529
0.00911075
0.00895559
0.00879983
0.00864349
0.0084866
0.00832916
0.0081712
0.00801274
0.00785379
0.00769438
0.00753452
0.00737423
0.00721352
0.00705241
0.00689092
0.00672906
0.00656685
0.00640429
0.00624141
0.00607822
0.00591474
0.00575096
0.00558691
0.00542261
0.00525805
0.00509325
0.00492823
0.00476299
0.00459755
0.00443191
0.00426609
0.00410009
0.00393392
0.0037676
0.00360112
0.00343451
0.00326777
0.0031009
0.00293391
0.00276682
0.00259962
0.00243233
0.00226495
0.00209749
0.00192996
0.00176236
0.00159469
0.00142698
0.00125921
0.0010914
0.000923557
0.000755679
0.000587777
0.000419855
0.000251918
8.39737e-05
0.000117721
0.000353158
0.000588579
0.000823975
0.00105933
0.00129465
0.00152991
0.00176509
0.0020002
0.00223522
0.00247014
0.00270494
0.00293961
0.00317415
0.00340853
0.00364274
0.00387676
0.00411059
0.0043442
0.00457758
0.0048107
0.00504356
0.00527613
0.0055084
0.00574033
0.00597191
0.00620312
0.00643393
0.00666432
0.00689426
0.00712372
0.00735268
0.00758111
0.00780897
0.00803624
0.00826288
0.00848886
0.00871414
0.00893869
0.00916248
0.00938545
0.00960758
0.00982882
0.0100491
0.0102685
0.0104868
0.010704
0.0109202
0.0111352
0.0113489
0.0115615
0.0117727
0.0119825
0.012191
0.0123979
0.0126034
0.0128073
0.0130095
0.01321
0.0134088
0.0136058
0.0138009
0.0139941
0.0141853
0.0143744
0.0145614
0.0147463
0.0149289
0.0151092
0.0152871
0.0154627
0.0156357
0.0158062
0.0159741
0.0161393
0.0163017
0.0164614
0.0166182
0.0167722
0.0169231
0.017071
0.0172158
0.0173575
0.017496
0.0176313
0.0177632
0.0178918
0.0180171
0.0181388
0.0182571
0.0183718
0.018483
0.0185905
0.0186944
0.0187946
0.018891
0.0189837
0.0190726
0.0191577
0.0192389
0.0193163
0.0193897
0.0194593
0.0195249
0.0195866
0.0196443
0.0196981
0.0197478
0.0197936
0.0198354
0.0198733
0.0199071
0.0199369
0.0199628
0.0199847
0.0200026
0.0200166
0.0200266
0.0200327
0.0200349
0.0200332
0.0200277
0.0200183
0.0200051
0.0199882
0.0199674
0.019943
0.0199148
0.019883
0.0198475
0.0198084
0.0197658
0.0197197
0.0196701
0.019617
0.0195606
0.0195007
0.0194376
0.0193712
0.0193016
0.0192287
0.0191528
0.0190738
0.0189917
0.0189066
0.0188186
0.0187276
0.0186338
0.0185372
0.0184379
0.0183358
0.0182311
0.0181237
0.0180138
0.0179014
0.0177865
0.0176692
0.0175495
0.0174275
0.0173032
0.0171767
0.017048
0.0169171
0.0167842
0.0166492
0.0165122
0.0163732
0.0162324
0.0160896
0.0159451
0.0157987
0.0156506
0.0155008
0.0153494
0.0151963
0.0150417
0.0148855
0.0147278
0.0145686
0.0144081
0.0142461
0.0140828
0.0139182
0.0137523
0.0135852
0.0134169
0.0132473
0.0130767
0.0129049
0.0127321
0.0125582
0.0123834
0.0122075
0.0120307
0.0118529
0.0116743
0.0114948
0.0113145
0.0111333
0.0109514
0.0107687
0.0105853
0.0104012
0.0102164
0.0100309
0.00984478
0.00965806
0.00947074
0.00928286
0.00909442
0.00890545
0.00871598
0.00852601
0.00833558
0.00814469
0.00795336
0.00776162
0.00756948
0.00737696
0.00718406
0.00699082
0.00679724
0.00660333
0.00640912
0.00621462
0.00601984
0.00582478
0.00562948
0.00543393
0.00523815
0.00504216
0.00484595
0.00464955
0.00445297
0.00425621
0.00405928
0.0038622
0.00366497
0.00346761
0.00327011
0.0030725
0.00287478
0.00267695
0.00247903
0.00228102
0.00208293
0.00188477
0.00168654
0.00148826
0.00128993
0.00109155
0.000893136
0.000694692
0.000496225
0.000297742
9.92483e-05
0.000135846
0.000407531
0.000679199
0.000950838
0.00122244
0.00149398
0.00176546
0.00203686
0.00230818
0.00257938
0.00285047
0.00312143
0.00339225
0.0036629
0.00393337
0.00420366
0.00447373
0.00474357
0.00501317
0.0052825
0.00555154
0.00582028
0.00608869
0.00635674
0.00662441
0.00689169
0.00715853
0.00742492
0.00769082
0.00795621
0.00822105
0.00848531
0.00874896
0.00901196
0.00927428
0.00953588
0.00979672
0.0100568
0.010316
0.0105743
0.0108317
0.0110881
0.0113435
0.0115978
0.011851
0.012103
0.0123538
0.0126033
0.0128515
0.0130983
0.0133437
0.0135875
0.0138298
0.0140705
0.0143094
0.0145466
0.014782
0.0150155
0.0152471
0.0154766
0.0157041
0.0159293
0.0161524
0.0163732
0.0165916
0.0168075
0.017021
0.0172318
0.0174401
0.0176455
0.0178482
0.0180481
0.0182449
0.0184388
0.0186296
0.0188172
0.0190016
0.0191827
0.0193605
0.0195348
0.0197056
0.0198729
0.0200365
0.0201965
0.0203527
0.0205051
0.0206536
0.0207982
0.0209388
0.0210754
0.0212079
0.0213362
0.0214604
0.0215804
0.0216961
0.0218074
0.0219145
0.0220171
0.0221154
0.0222092
0.0222985
0.0223833
0.0224636
0.0225394
0.0226106
0.0226772
0.0227393
0.0227967
0.0228495
0.0228978
0.0229414
0.0229804
0.0230148
0.0230447
0.0230699
0.0230905
0.0231066
0.0231182
0.0231252
0.0231277
0.0231257
0.0231192
0.0231083
0.0230931
0.0230734
0.0230494
0.0230211
0.0229885
0.0229517
0.0229106
0.0228655
0.0228162
0.0227629
0.0227055
0.0226442
0.0225789
0.0225098
0.0224368
0.0223601
0.0222796
0.0221955
0.0221077
0.0220164
0.0219215
0.0218232
0.0217215
0.0216165
0.0215081
0.0213965
0.0212818
0.0211639
0.0210429
0.0209189
0.020792
0.0206621
0.0205294
0.0203939
0.0202557
0.0201148
0.0199713
0.0198251
0.0196765
0.0195254
0.0193719
0.019216
0.0190578
0.0188973
0.0187347
0.0185699
0.0184029
0.018234
0.018063
0.01789
0.0177152
0.0175384
0.0173599
0.0171796
0.0169975
0.0168138
0.0166284
0.0164415
0.0162529
0.0160629
0.0158714
0.0156785
0.0154841
0.0152885
0.0150915
0.0148932
0.0146937
0.014493
0.0142911
0.0140881
0.013884
0.0136789
0.0134727
0.0132655
0.0130574
0.0128483
0.0126383
0.0124274
0.0122157
0.0120032
0.0117899
0.0115758
0.011361
0.0111455
0.0109293
0.0107125
0.010495
0.0102769
0.0100582
0.00983898
0.00961919
0.00939889
0.00917808
0.0089568
0.00873505
0.00851286
0.00829025
0.00806724
0.00784383
0.00762006
0.00739594
0.00717147
0.00694668
0.00672159
0.0064962
0.00627054
0.00604461
0.00581843
0.00559201
0.00536537
0.00513851
0.00491146
0.00468421
0.00445678
0.00422918
0.00400143
0.00377353
0.00354549
0.00331733
0.00308905
0.00286065
0.00263216
0.00240358
0.00217491
0.00194617
0.00171736
0.0014885
0.00125958
0.00103062
0.000801631
0.000572612
0.000343575
0.000114526
0.000153976
0.000461922
0.000769849
0.00107774
0.00138559
0.00169338
0.0020011
0.00230872
0.00261625
0.00292366
0.00323094
0.00353807
0.00384504
0.00415183
0.00445842
0.00476479
0.00507093
0.00537681
0.00568241
0.00598771
0.00629269
0.00659733
0.00690159
0.00720546
0.0075089
0.00781189
0.0081144
0.00841639
0.00871783
0.0090187
0.00931895
0.00961855
0.00991746
0.0102156
0.010513
0.0108096
0.0111054
0.0114002
0.0116941
0.011987
0.0122788
0.0125696
0.0128592
0.0131476
0.0134347
0.0137205
0.0140049
0.0142878
0.0145693
0.0148492
0.0151274
0.015404
0.0156787
0.0159517
0.0162227
0.0164917
0.0167587
0.0170235
0.0172861
0.0175465
0.0178045
0.01806
0.018313
0.0185634
0.0188112
0.0190561
0.0192982
0.0195375
0.0197736
0.0200067
0.0202367
0.0204634
0.0206867
0.0209066
0.0211231
0.0213359
0.0215451
0.0217506
0.0219523
0.02215
0.0223438
0.0225336
0.0227192
0.0229007
0.0230779
0.0232508
0.0234193
0.0235833
0.0237428
0.0238978
0.0240481
0.0241937
0.0243346
0.0244706
0.0246019
0.0247282
0.0248496
0.0249661
0.0250775
0.0251839
0.0252852
0.0253814
0.0254725
0.0255584
0.0256391
0.0257147
0.025785
0.0258502
0.0259101
0.0259647
0.0260142
0.0260584
0.0260974
0.0261311
0.0261597
0.0261831
0.0262012
0.0262143
0.0262221
0.0262249
0.0262226
0.0262152
0.0262028
0.0261853
0.026163
0.0261356
0.0261034
0.0260664
0.0260245
0.0259779
0.0259266
0.0258706
0.0258101
0.0257449
0.0256753
0.0256011
0.0255226
0.0254398
0.0253527
0.0252613
0.0251658
0.0250662
0.0249625
0.0248549
0.0247433
0.0246279
0.0245086
0.0243857
0.024259
0.0241288
0.023995
0.0238577
0.0237171
0.023573
0.0234257
0.0232751
0.0231214
0.0229646
0.0228047
0.0226419
0.0224761
0.0223075
0.0221361
0.0219619
0.0217851
0.0216057
0.0214237
0.0212392
0.0210522
0.0208629
0.0206712
0.0204773
0.0202812
0.0200828
0.0198824
0.0196799
0.0194754
0.019269
0.0190606
0.0188504
0.0186384
0.0184246
0.0182091
0.0179919
0.0177731
0.0175528
0.0173309
0.0171075
0.0168827
0.0166565
0.0164289
0.0162
0.0159699
0.0157385
0.0155058
0.0152721
0.0150372
0.0148012
0.0145641
0.014326
0.014087
0.013847
0.013606
0.0133642
0.0131215
0.012878
0.0126336
0.0123886
0.0121427
0.0118962
0.0116489
0.011401
0.0111525
0.0109033
0.0106536
0.0104033
0.0101524
0.00990106
0.00964919
0.00939685
0.00914404
0.0088908
0.00863714
0.00838308
0.00812864
0.00787384
0.00761869
0.00736321
0.00710742
0.00685132
0.00659495
0.0063383
0.0060814
0.00582426
0.00556689
0.00530931
0.00505153
0.00479355
0.0045354
0.00427709
0.00401861
0.00376
0.00350125
0.00324238
0.00298339
0.0027243
0.00246512
0.00220586
0.00194652
0.00168711
0.00142765
0.00116814
0.000908596
0.000649018
0.000389419
0.000129808
0.000172113
0.000516333
0.000860531
0.00120469
0.0015488
0.00189285
0.00223682
0.00258069
0.00292444
0.00326807
0.00361156
0.00395488
0.00429802
0.00464096
0.00498368
0.00532616
0.00566838
0.00601032
0.00635195
0.00669325
0.00703419
0.00737475
0.0077149
0.0080546
0.00839384
0.00873258
0.00907078
0.00940841
0.00974543
0.0100818
0.0104175
0.0107525
0.0110867
0.0114201
0.0117526
0.0120843
0.012415
0.0127446
0.0130733
0.0134008
0.0137271
0.0140523
0.0143761
0.0146986
0.0150197
0.0153393
0.0156574
0.0159738
0.0162886
0.0166016
0.0169129
0.0172222
0.0175295
0.0178348
0.0181379
0.0184388
0.0187375
0.0190337
0.0193275
0.0196187
0.0199073
0.0201932
0.0204762
0.0207564
0.0210335
0.0213076
0.0215785
0.0218461
0.0221103
0.0223711
0.0226284
0.022882
0.0231319
0.023378
0.0236201
0.0238583
0.0240924
0.0243223
0.0245479
0.0247692
0.024986
0.0251984
0.0254061
0.0256091
0.0258074
0.0260009
0.0261894
0.0263729
0.0265514
0.0267248
0.026893
0.0270559
0.0272135
0.0273658
0.0275126
0.027654
0.0277898
0.02792
0.0280447
0.0281637
0.028277
0.0283846
0.0284865
0.0285826
0.0286729
0.0287574
0.028836
0.0289088
0.0289758
0.0290369
0.0290922
0.0291416
0.0291851
0.0292228
0.0292547
0.0292808
0.029301
0.0293155
0.0293242
0.0293272
0.0293245
0.0293162
0.0293022
0.0292826
0.0292574
0.0292268
0.0291907
0.0291491
0.0291022
0.0290499
0.0289924
0.0289297
0.0288618
0.0287888
0.0287108
0.0286278
0.0285399
0.0284471
0.0283495
0.0282472
0.0281403
0.0280287
0.0279126
0.0277921
0.0276672
0.027538
0.0274045
0.0272669
0.0271251
0.0269794
0.0268296
0.026676
0.0265186
0.0263574
0.0261925
0.026024
0.025852
0.0256765
0.0254976
0.0253154
0.02513
0.0249413
0.0247495
0.0245547
0.0243568
0.0241561
0.0239525
0.0237461
0.023537
0.0233252
0.0231108
0.0228939
0.0226745
0.0224526
0.0222284
0.022002
0.0217732
0.0215423
0.0213093
0.0210742
0.020837
0.0205979
0.0203569
0.0201141
0.0198694
0.019623
0.0193748
0.019125
0.0188736
0.0186207
0.0183662
0.0181102
0.0178529
0.0175941
0.017334
0.0170726
0.0168099
0.016546
0.016281
0.0160148
0.0157475
0.0154791
0.0152097
0.0149393
0.014668
0.0143957
0.0141226
0.0138485
0.0135737
0.013298
0.0130216
0.0127445
0.0124666
0.0121881
0.0119089
0.011629
0.0113486
0.0110676
0.010786
0.0105039
0.0102213
0.00993819
0.00965462
0.00937062
0.00908618
0.00880134
0.00851612
0.00823053
0.00794459
0.00765832
0.00737173
0.00708484
0.00679767
0.00651024
0.00622255
0.00593462
0.00564646
0.0053581
0.00506954
0.0047808
0.00449188
0.0042028
0.00391358
0.00362421
0.00333473
0.00304513
0.00275542
0.00246562
0.00217574
0.00188579
0.00159577
0.0013057
0.00101559
0.000725446
0.000435277
0.000145094
0.000190258
0.000570766
0.00095125
0.0013317
0.00171209
0.0020924
0.00247263
0.00285276
0.00323276
0.00361263
0.00399233
0.00437186
0.00475119
0.00513031
0.00550918
0.00588779
0.00626612
0.00664414
0.00702182
0.00739914
0.00777607
0.00815258
0.00852864
0.00890422
0.00927929
0.0096538
0.0100277
0.010401
0.0107737
0.0111456
0.0115168
0.0118872
0.0122567
0.0126254
0.0129931
0.0133598
0.0137255
0.0140901
0.0144535
0.0148157
0.0151766
0.0155362
0.0158944
0.0162511
0.0166062
0.0169597
0.0173115
0.0176615
0.0180097
0.018356
0.0187002
0.0190423
0.0193823
0.01972
0.0200554
0.0203883
0.0207186
0.0210464
0.0213714
0.0216936
0.0220129
0.0223292
0.0226423
0.0229523
0.023259
0.0235622
0.0238619
0.0241581
0.0244505
0.0247391
0.0250237
0.0253044
0.0255809
0.0258532
0.0261212
0.0263848
0.0266438
0.0268982
0.0271479
0.0273928
0.0276328
0.0278678
0.0280976
0.0283223
0.0285418
0.0287559
0.0289645
0.0291676
0.0293651
0.029557
0.0297431
0.0299234
0.0300978
0.0302663
0.0304288
0.0305852
0.0307355
0.0308796
0.0310175
0.0311492
0.0312746
0.0313936
0.0315063
0.0316126
0.0317124
0.0318059
0.0318929
0.0319734
0.0320474
0.032115
0.032176
0.0322306
0.0322787
0.0323204
0.0323555
0.0323843
0.0324066
0.0324225
0.0324321
0.0324353
0.0324322
0.0324228
0.0324072
0.0323854
0.0323575
0.0323234
0.0322833
0.0322372
0.0321852
0.0321272
0.0320634
0.0319939
0.0319187
0.0318378
0.0317513
0.0316593
0.0315619
0.0314591
0.0313511
0.0312377
0.0311193
0.0309958
0.0308672
0.0307338
0.0305955
0.0304524
0.0303046
0.0301522
0.0299953
0.0298339
0.0296681
0.0294981
0.0293238
0.0291454
0.0289629
0.0287764
0.028586
0.0283918
0.0281939
0.0279922
0.027787
0.0275782
0.027366
0.0271504
0.0269315
0.0267094
0.0264841
0.0262558
0.0260244
0.0257901
0.0255529
0.0253129
0.0250702
0.0248248
0.0245768
0.0243262
0.0240732
0.0238178
0.02356
0.0232999
0.0230377
0.0227732
0.0225066
0.022238
0.0219674
0.0216949
0.0214204
0.0211442
0.0208661
0.0205864
0.0203049
0.0200219
0.0197372
0.0194511
0.0191634
0.0188743
0.0185839
0.0182921
0.017999
0.0177046
0.017409