/*--------------------------------*- C++ -*----------------------------------*\
| =========                 |                                                 |
| \\      /  F ield         | OpenFOAM: The Open Source CFD Toolbox           |
|  \\    /   O peration     | Version:  v2012                                 |
|   \\  /    A nd           | Website:  www.openfoam.com                      |
|    \\/     M anipulation  |                                                 |
\*---------------------------------------------------------------------------*/
FoamFile
{
    version     2.0;
    format      ascii;
    class       surfaceScalarField;
    location    "1.5";
    object      phi;
}
// * * * * * * * * * * * * * * * * * * * * * * * * * * * * * * * * * * * * * //

dimensions      [0 3 -1 0 0 0 0];
oriented        oriented;


internalField   nonuniform List<scalar> 
130560
(
3.41184e-06
-3.41184e-06
6.82346e-06
-3.41161e-06
1.02346e-05
-3.41116e-06
1.36451e-05
-3.41049e-06
1.70547e-05
-3.40959e-06
2.04632e-05
-3.40846e-06
2.38703e-05
-3.4071e-06
2.72758e-05
-3.4055e-06
3.06794e-05
-3.40367e-06
3.4081e-05
-3.40159e-06
3.74803e-05
-3.39927e-06
4.0877e-05
-3.3967e-06
4.42709e-05
-3.39388e-06
4.76617e-05
-3.3908e-06
5.10491e-05
-3.38745e-06
5.44329e-05
-3.38383e-06
5.78129e-05
-3.37993e-06
6.11886e-05
-3.37575e-06
6.45599e-05
-3.37127e-06
6.79264e-05
-3.36649e-06
7.12878e-05
-3.36141e-06
7.46438e-05
-3.35601e-06
7.79941e-05
-3.35028e-06
8.13383e-05
-3.34422e-06
8.46761e-05
-3.33782e-06
8.80072e-05
-3.33106e-06
9.13311e-05
-3.32394e-06
9.46476e-05
-3.31645e-06
9.79562e-05
-3.30857e-06
0.000101256
-3.30031e-06
0.000104548
-3.29163e-06
0.000107831
-3.28254e-06
0.000111104
-3.27303e-06
0.000114367
-3.26308e-06
0.000117619
-3.25268e-06
0.000120861
-3.24182e-06
0.000124092
-3.23049e-06
0.00012731
-3.21868e-06
0.000130517
-3.20638e-06
0.00013371
-3.19357e-06
0.000136891
-3.18024e-06
0.000140057
-3.16639e-06
0.000143209
-3.152e-06
0.000146346
-3.13706e-06
0.000149468
-3.12157e-06
0.000152573
-3.1055e-06
0.000155662
-3.08885e-06
0.000158734
-3.07161e-06
0.000161787
-3.05377e-06
0.000164823
-3.03532e-06
0.000167839
-3.01626e-06
0.000170836
-2.99656e-06
0.000173812
-2.97623e-06
0.000176767
-2.95526e-06
0.000179701
-2.93363e-06
0.000182612
-2.91135e-06
0.0001855
-2.8884e-06
0.000188365
-2.86477e-06
0.000191206
-2.84048e-06
0.000194021
-2.8155e-06
0.000196811
-2.78983e-06
0.000199574
-2.76347e-06
0.000202311
-2.73643e-06
0.00020502
-2.70868e-06
0.0002077
-2.68024e-06
0.000210351
-2.6511e-06
0.000212972
-2.62127e-06
0.000215563
-2.59073e-06
0.000218122
-2.5595e-06
0.00022065
-2.52758e-06
0.000223145
-2.49496e-06
0.000225607
-2.46165e-06
0.000228034
-2.42765e-06
0.000230427
-2.39298e-06
0.000232785
-2.35763e-06
0.000235106
-2.32161e-06
0.000237391
-2.28494e-06
0.000239639
-2.2476e-06
0.000241849
-2.20963e-06
0.00024402
-2.17101e-06
0.000246151
-2.13177e-06
0.000248243
-2.09192e-06
0.000250295
-2.05146e-06
0.000252305
-2.01041e-06
0.000254274
-1.96878e-06
0.000256201
-1.92659e-06
0.000258084
-1.88384e-06
0.000259925
-1.84056e-06
0.000261722
-1.79675e-06
0.000263474
-1.75244e-06
0.000265182
-1.70763e-06
0.000266844
-1.66235e-06
0.000268461
-1.61661e-06
0.000270031
-1.57043e-06
0.000271555
-1.52383e-06
0.000273032
-1.47682e-06
0.000274461
-1.42943e-06
0.000275843
-1.38166e-06
0.000277176
-1.33355e-06
0.000278462
-1.2851e-06
0.000279698
-1.23634e-06
0.000280885
-1.18729e-06
0.000282023
-1.13796e-06
0.000283112
-1.08838e-06
0.00028415
-1.03856e-06
0.000285139
-9.8852e-07
0.000286077
-9.38284e-07
0.000286965
-8.87868e-07
0.000287802
-8.37292e-07
0.000288589
-7.86574e-07
0.000289324
-7.35732e-07
0.000290009
-6.84785e-07
0.000290643
-6.33751e-07
0.000291226
-5.82648e-07
0.000291757
-5.31493e-07
0.000292237
-4.80303e-07
0.000292666
-4.29097e-07
0.000293044
-3.77889e-07
0.000293371
-3.26697e-07
0.000293647
-2.75537e-07
0.000293871
-2.24425e-07
0.000294044
-1.73375e-07
0.000294167
-1.22403e-07
0.000294238
-7.15242e-08
0.000294259
-2.07522e-08
0.000294229
2.98988e-08
0.000294149
8.04151e-08
0.000294018
1.30783e-07
0.000293837
1.80991e-07
0.000293606
2.31024e-07
0.000293325
2.80872e-07
0.000292995
3.30522e-07
0.000292615
3.79962e-07
0.000292185
4.29181e-07
0.000291707
4.78167e-07
0.00029118
5.26911e-07
0.000290605
5.75401e-07
0.000289981
6.23627e-07
0.00028931
6.71579e-07
0.00028859
7.19247e-07
0.000287824
7.66621e-07
0.00028701
8.13693e-07
0.00028615
8.60452e-07
0.000285243
9.0689e-07
0.00028429
9.52998e-07
0.000283291
9.98767e-07
0.000282247
1.04419e-06
0.000281158
1.08926e-06
0.000280024
1.13396e-06
0.000278845
1.17829e-06
0.000277623
1.22224e-06
0.000276357
1.2658e-06
0.000275048
1.30896e-06
0.000273697
1.35173e-06
0.000272303
1.39408e-06
0.000270867
1.43601e-06
0.000269389
1.47752e-06
0.00026787
1.5186e-06
0.000266311
1.55924e-06
0.000264712
1.59943e-06
0.000263073
1.63916e-06
0.000261394
1.67844e-06
0.000259677
1.71725e-06
0.000257921
1.75559e-06
0.000256128
1.79346e-06
0.000254297
1.83083e-06
0.000252429
1.86772e-06
0.000250525
1.90411e-06
0.000248585
1.94e-06
0.00024661
1.97539e-06
0.0002446
2.01026e-06
0.000242555
2.04462e-06
0.000240476
2.07845e-06
0.000238365
2.11177e-06
0.00023622
2.14455e-06
0.000234043
2.17681e-06
0.000231835
2.20852e-06
0.000229595
2.2397e-06
0.000227325
2.27034e-06
0.000225024
2.30043e-06
0.000222694
2.32998e-06
0.000220335
2.35898e-06
0.000217948
2.38743e-06
0.000215533
2.41533e-06
0.00021309
2.44268e-06
0.00021062
2.46948e-06
0.000208125
2.49572e-06
0.000205603
2.52141e-06
0.000203057
2.54656e-06
0.000200486
2.57115e-06
0.00019789
2.59519e-06
0.000195272
2.61868e-06
0.00019263
2.64163e-06
0.000189966
2.66404e-06
0.00018728
2.6859e-06
0.000184573
2.70723e-06
0.000181845
2.72803e-06
0.000179097
2.74829e-06
0.000176329
2.76803e-06
0.000173541
2.78724e-06
0.000170735
2.80594e-06
0.000167911
2.82412e-06
0.00016507
2.8418e-06
0.000162211
2.85897e-06
0.000159335
2.87565e-06
0.000156443
2.89183e-06
0.000153536
2.90753e-06
0.000150613
2.92275e-06
0.000147675
2.93751e-06
0.000144723
2.95179e-06
0.000141758
2.96562e-06
0.000138779
2.97899e-06
0.000135787
2.99193e-06
0.000132783
3.00442e-06
0.000129766
3.01649e-06
0.000126738
3.02813e-06
0.000123699
3.03936e-06
0.000120648
3.05019e-06
0.000117588
3.06061e-06
0.000114517
3.07064e-06
0.000111437
3.0803e-06
0.000108347
3.08957e-06
0.000105249
3.09848e-06
0.000102142
3.10703e-06
9.90265e-05
3.11522e-06
9.59034e-05
3.12307e-06
9.27729e-05
3.13058e-06
8.96351e-05
3.13777e-06
8.64905e-05
3.14463e-06
8.33393e-05
3.15117e-06
8.01819e-05
3.15741e-06
7.70185e-05
3.16334e-06
7.38496e-05
3.16898e-06
7.06752e-05
3.17434e-06
6.74958e-05
3.17941e-06
6.43116e-05
3.1842e-06
6.11229e-05
3.18873e-06
5.79299e-05
3.19299e-06
5.47329e-05
3.19699e-06
5.15321e-05
3.20074e-06
4.83279e-05
3.20425e-06
4.51204e-05
3.20751e-06
4.19099e-05
3.21053e-06
3.86965e-05
3.21332e-06
3.54807e-05
3.21587e-06
3.22625e-05
3.2182e-06
2.90422e-05
3.22031e-06
2.582e-05
3.2222e-06
2.25961e-05
3.22387e-06
1.93708e-05
3.22533e-06
1.61442e-05
3.22657e-06
1.29166e-05
3.2276e-06
9.68816e-06
3.22843e-06
6.45911e-06
3.22905e-06
3.22966e-06
3.22945e-06
3.22966e-06
3.41206e-06
-6.8239e-06
6.82389e-06
-6.82345e-06
1.02353e-05
-6.82255e-06
1.3646e-05
-6.8212e-06
1.70558e-05
-6.8194e-06
2.04645e-05
-6.81714e-06
2.38718e-05
-6.81442e-06
2.72775e-05
-6.81123e-06
3.06814e-05
-6.80757e-06
3.40833e-05
-6.80342e-06
3.74828e-05
-6.79879e-06
4.08797e-05
-6.79366e-06
4.42739e-05
-6.78802e-06
4.76649e-05
-6.78186e-06
5.10527e-05
-6.77517e-06
5.44368e-05
-6.76793e-06
5.7817e-05
-6.76014e-06
6.1193e-05
-6.75178e-06
6.45646e-05
-6.74284e-06
6.79314e-05
-6.73329e-06
7.12931e-05
-6.72313e-06
7.46494e-05
-6.71234e-06
7.8e-05
-6.7009e-06
8.13446e-05
-6.68878e-06
8.46828e-05
-6.67599e-06
8.80142e-05
-6.66248e-06
9.13385e-05
-6.64825e-06
9.46553e-05
-6.63328e-06
9.79643e-05
-6.61754e-06
0.000101265
-6.60101e-06
0.000104557
-6.58367e-06
0.00010784
-6.56551e-06
0.000111113
-6.54649e-06
0.000114377
-6.5266e-06
0.00011763
-6.50581e-06
0.000120872
-6.48411e-06
0.000124103
-6.46146e-06
0.000127323
-6.43785e-06
0.000130529
-6.41325e-06
0.000133724
-6.38765e-06
0.000136904
-6.36101e-06
0.000140071
-6.33332e-06
0.000143224
-6.30455e-06
0.000146361
-6.27468e-06
0.000149484
-6.2437e-06
0.00015259
-6.21157e-06
0.000155679
-6.17829e-06
0.000158751
-6.14382e-06
0.000161806
-6.10815e-06
0.000164842
-6.07127e-06
0.000167858
-6.03314e-06
0.000170856
-5.99376e-06
0.000173833
-5.95311e-06
0.000176788
-5.91116e-06
0.000179723
-5.86792e-06
0.000182635
-5.82335e-06
0.000185524
-5.77746e-06
0.000188389
-5.73022e-06
0.00019123
-5.68163e-06
0.000194047
-5.63168e-06
0.000196837
-5.58035e-06
0.000199601
-5.52764e-06
0.000202338
-5.47355e-06
0.000205048
-5.41806e-06
0.000207729
-5.36118e-06
0.000210381
-5.30291e-06
0.000213002
-5.24323e-06
0.000215594
-5.18216e-06
0.000218154
-5.1197e-06
0.000220682
-5.05584e-06
0.000223178
-4.9906e-06
0.00022564
-4.92398e-06
0.000228069
-4.85599e-06
0.000230462
-4.78664e-06
0.000232821
-4.71593e-06
0.000235143
-4.64389e-06
0.000237429
-4.57053e-06
0.000239677
-4.49585e-06
0.000241887
-4.41989e-06
0.000244059
-4.34265e-06
0.000246191
-4.26417e-06
0.000248284
-4.18445e-06
0.000250336
-4.10352e-06
0.000252347
-4.02141e-06
0.000254316
-3.93814e-06
0.000256243
-3.85373e-06
0.000258128
-3.76823e-06
0.000259969
-3.68164e-06
0.000261766
-3.59401e-06
0.000263519
-3.50537e-06
0.000265227
-3.41574e-06
0.00026689
-3.32517e-06
0.000268507
-3.23367e-06
0.000270078
-3.1413e-06
0.000271602
-3.04807e-06
0.000273079
-2.95404e-06
0.000274509
-2.85923e-06
0.000275891
-2.76368e-06
0.000277225
-2.66743e-06
0.00027851
-2.57052e-06
0.000279747
-2.47298e-06
0.000280934
-2.37486e-06
0.000282073
-2.27618e-06
0.000283161
-2.17699e-06
0.0002842
-2.07734e-06
0.000285189
-1.97724e-06
0.000286127
-1.87675e-06
0.000287015
-1.7759e-06
0.000287853
-1.67473e-06
0.000288639
-1.57328e-06
0.000289375
-1.47157e-06
0.00029006
-1.36966e-06
0.000290694
-1.26758e-06
0.000291277
-1.16535e-06
0.000291808
-1.06302e-06
0.000292288
-9.60629e-07
0.000292718
-8.58198e-07
0.000293095
-7.55767e-07
0.000293422
-6.53367e-07
0.000293698
-5.51031e-07
0.000293922
-4.48791e-07
0.000294095
-3.46676e-07
0.000294218
-2.44718e-07
0.000294289
-1.42946e-07
0.00029431
-4.13879e-08
0.00029428
5.99278e-08
0.000294199
1.60974e-07
0.000294068
2.61723e-07
0.000293887
3.62151e-07
0.000293656
4.6223e-07
0.000293375
5.61938e-07
0.000293044
6.61249e-07
0.000292664
7.6014e-07
0.000292234
8.58589e-07
0.000291756
9.56573e-07
0.000291229
1.05407e-06
0.000290653
1.15106e-06
0.000290029
1.24752e-06
0.000289357
1.34344e-06
0.000288638
1.43878e-06
0.000287871
1.53354e-06
0.000287057
1.62769e-06
0.000286196
1.72122e-06
0.000285289
1.81411e-06
0.000284336
1.90633e-06
0.000283337
1.99788e-06
0.000282292
2.08873e-06
0.000281202
2.17887e-06
0.000280068
2.26828e-06
0.000278889
2.35695e-06
0.000277667
2.44486e-06
0.000276401
2.53199e-06
0.000275091
2.61833e-06
0.000273739
2.70386e-06
0.000272345
2.78857e-06
0.000270908
2.87245e-06
0.00026943
2.95547e-06
0.000267911
3.03763e-06
0.000266351
3.11892e-06
0.000264752
3.1993e-06
0.000263112
3.27879e-06
0.000261433
3.35735e-06
0.000259715
3.43498e-06
0.000257959
3.51166e-06
0.000256165
3.58739e-06
0.000254334
3.66215e-06
0.000252466
3.73593e-06
0.000250561
3.80872e-06
0.000248621
3.88051e-06
0.000246645
3.95128e-06
0.000244634
4.02103e-06
0.000242589
4.08975e-06
0.00024051
4.15743e-06
0.000238398
4.22406e-06
0.000236253
4.28964e-06
0.000234075
4.35414e-06
0.000231866
4.41758e-06
0.000229626
4.47994e-06
0.000227355
4.54122e-06
0.000225054
4.60141e-06
0.000222724
4.66051e-06
0.000220364
4.71851e-06
0.000217976
4.77541e-06
0.00021556
4.83121e-06
0.000213117
4.88591e-06
0.000210647
4.9395e-06
0.000208151
4.99199e-06
0.000205629
5.04338e-06
0.000203082
5.09366e-06
0.00020051
5.14284e-06
0.000197914
5.19093e-06
0.000195295
5.23791e-06
0.000192653
5.28381e-06
0.000189988
5.32862e-06
0.000187302
5.37235e-06
0.000184594
5.415e-06
0.000181865
5.45658e-06
0.000179117
5.49711e-06
0.000176348
5.53658e-06
0.00017356
5.575e-06
0.000170754
5.61239e-06
0.000167929
5.64875e-06
0.000165087
5.6841e-06
0.000162227
5.71844e-06
0.000159351
5.75178e-06
0.000156459
5.78415e-06
0.000153551
5.81554e-06
0.000150628
5.84598e-06
0.00014769
5.87548e-06
0.000144737
5.90404e-06
0.000141771
5.93169e-06
0.000138792
5.95843e-06
0.0001358
5.98429e-06
0.000132795
6.00927e-06
0.000129778
6.0334e-06
0.000126749
6.05668e-06
0.000123709
6.07913e-06
0.000120659
6.10077e-06
0.000117598
6.12161e-06
0.000114527
6.14167e-06
0.000111446
6.16097e-06
0.000108356
6.17951e-06
0.000105257
6.19732e-06
0.00010215
6.21441e-06
9.90345e-05
6.23079e-06
9.59111e-05
6.24648e-06
9.27801e-05
6.2615e-06
8.9642e-05
6.27586e-06
8.64971e-05
6.28957e-06
8.33456e-05
6.30266e-06
8.01879e-05
6.31512e-06
7.70243e-05
6.32699e-06
7.3855e-05
6.33826e-06
7.06804e-05
6.34896e-06
6.75007e-05
6.3591e-06
6.43162e-05
6.36868e-06
6.11272e-05
6.37773e-06
5.7934e-05
6.38624e-06
5.47367e-05
6.39425e-06
5.15357e-05
6.40174e-06
4.83312e-05
6.40874e-06
4.51235e-05
6.41526e-06
4.19127e-05
6.4213e-06
3.86991e-05
6.42687e-06
3.5483e-05
6.43198e-06
3.22646e-05
6.43664e-06
2.90441e-05
6.44085e-06
2.58217e-05
6.44462e-06
2.25976e-05
6.44796e-06
1.9372e-05
6.45087e-06
1.61452e-05
6.45335e-06
1.29174e-05
6.45542e-06
9.68878e-06
6.45707e-06
6.45953e-06
6.4583e-06
3.22986e-06
6.45912e-06
6.45952e-06
3.41251e-06
-1.02364e-05
6.82479e-06
-1.02357e-05
1.02366e-05
-1.02344e-05
1.36478e-05
-1.02324e-05
1.70581e-05
-1.02297e-05
2.04672e-05
-1.02263e-05
2.3875e-05
-1.02222e-05
2.72812e-05
-1.02174e-05
3.06856e-05
-1.0212e-05
3.40879e-05
-1.02057e-05
3.7488e-05
-1.01988e-05
4.08854e-05
-1.01911e-05
4.42801e-05
-1.01827e-05
4.76717e-05
-1.01734e-05
5.10599e-05
-1.01634e-05
5.44446e-05
-1.01526e-05
5.78254e-05
-1.01409e-05
6.1202e-05
-1.01284e-05
6.45742e-05
-1.0115e-05
6.79416e-05
-1.01007e-05
7.13039e-05
-1.00855e-05
7.46609e-05
-1.00693e-05
7.80122e-05
-1.00522e-05
8.13575e-05
-1.0034e-05
8.46963e-05
-1.00149e-05
8.80285e-05
-9.99463e-06
9.13535e-05
-9.97331e-06
9.46711e-05
-9.95088e-06
9.79809e-05
-9.92729e-06
0.000101282
-9.90253e-06
0.000104575
-9.87655e-06
0.000107859
-9.84933e-06
0.000111133
-9.82083e-06
0.000114398
-9.79102e-06
0.000117652
-9.75987e-06
0.000120895
-9.72734e-06
0.000124127
-9.6934e-06
0.000127347
-9.65801e-06
0.000130555
-9.62114e-06
0.00013375
-9.58276e-06
0.000136932
-9.54283e-06
0.0001401
-9.50132e-06
0.000143254
-9.4582e-06
0.000146392
-9.41342e-06
0.000149516
-9.36697e-06
0.000152623
-9.31881e-06
0.000155714
-9.26891e-06
0.000158787
-9.21723e-06
0.000161843
-9.16376e-06
0.00016488
-9.10845e-06
0.000167898
-9.05128e-06
0.000170896
-8.99223e-06
0.000173875
-8.93127e-06
0.000176832
-8.86838e-06
0.000179767
-8.80352e-06
0.000182681
-8.7367e-06
0.000185571
-8.66787e-06
0.000188438
-8.59703e-06
0.00019128
-8.52415e-06
0.000194098
-8.44923e-06
0.00019689
-8.37225e-06
0.000199655
-8.2932e-06
0.000202394
-8.21206e-06
0.000205105
-8.12884e-06
0.000207787
-8.04352e-06
0.00021044
-7.95611e-06
0.000213064
-7.8666e-06
0.000215656
-7.77499e-06
0.000218218
-7.68129e-06
0.000220748
-7.5855e-06
0.000223245
-7.48763e-06
0.000225708
-7.38769e-06
0.000228138
-7.28569e-06
0.000230533
-7.18164e-06
0.000232893
-7.07557e-06
0.000235216
-6.96749e-06
0.000237503
-6.85742e-06
0.000239753
-6.74539e-06
0.000241964
-6.63142e-06
0.000244137
-6.51555e-06
0.000246271
-6.39779e-06
0.000248365
-6.27818e-06
0.000250418
-6.15676e-06
0.00025243
-6.03356e-06
0.0002544
-5.90862e-06
0.000256329
-5.78198e-06
0.000258214
-5.65368e-06
0.000260056
-5.52377e-06
0.000261855
-5.39229e-06
0.000263608
-5.25928e-06
0.000265318
-5.1248e-06
0.000266981
-4.98889e-06
0.000268599
-4.85161e-06
0.000270171
-4.713e-06
0.000271696
-4.57312e-06
0.000273174
-4.43203e-06
0.000274605
-4.28977e-06
0.000275987
-4.1464e-06
0.000277322
-4.00198e-06
0.000278608
-3.85656e-06
0.000279845
-3.71021e-06
0.000281033
-3.56297e-06
0.000282172
-3.41491e-06
0.000283261
-3.26608e-06
0.0002843
-3.11655e-06
0.000285289
-2.96636e-06
0.000286228
-2.81557e-06
0.000287116
-2.66425e-06
0.000287954
-2.51245e-06
0.000288741
-2.36022e-06
0.000289477
-2.20762e-06
0.000290162
-2.05471e-06
0.000290796
-1.90154e-06
0.000291379
-1.74816e-06
0.000291911
-1.59462e-06
0.000292391
-1.44099e-06
0.00029282
-1.2873e-06
0.000293198
-1.13361e-06
0.000293525
-9.79971e-07
0.0002938
-8.26428e-07
0.000294024
-6.73029e-07
0.000294197
-5.1982e-07
0.000294319
-3.66846e-07
0.000294391
-2.14151e-07
0.000294411
-6.17791e-08
0.000294381
9.02285e-08
0.0002943
2.41831e-07
0.000294169
3.92988e-07
0.000293987
5.4366e-07
0.000293756
6.9381e-07
0.000293474
8.43401e-07
0.000293143
9.92397e-07
0.000292762
1.14076e-06
0.000292332
1.28846e-06
0.000291853
1.43547e-06
0.000291326
1.58174e-06
0.00029075
1.72725e-06
0.000290125
1.87197e-06
0.000289453
2.01587e-06
0.000288733
2.15891e-06
0.000287965
2.30107e-06
0.00028715
2.44232e-06
0.000286289
2.58264e-06
0.000285381
2.72199e-06
0.000284427
2.86034e-06
0.000283427
2.99769e-06
0.000282382
3.13398e-06
0.000281292
3.26922e-06
0.000280157
3.40335e-06
0.000278977
3.53638e-06
0.000277754
3.66826e-06
0.000276487
3.79897e-06
0.000275177
3.9285e-06
0.000273824
4.05682e-06
0.000272428
4.18391e-06
0.000270991
4.30974e-06
0.000269512
4.43429e-06
0.000267992
4.55755e-06
0.000266432
4.67949e-06
0.000264831
4.80009e-06
0.000263191
4.91933e-06
0.000261511
5.03719e-06
0.000259792
5.15365e-06
0.000258035
5.26869e-06
0.00025624
5.3823e-06
0.000254408
5.49445e-06
0.000252539
5.60514e-06
0.000250633
5.71433e-06
0.000248691
5.82203e-06
0.000246715
5.9282e-06
0.000244703
6.03284e-06
0.000242657
6.13593e-06
0.000240576
6.23746e-06
0.000238463
6.33741e-06
0.000236317
6.43578e-06
0.000234139
6.53256e-06
0.000231928
6.62772e-06
0.000229687
6.72127e-06
0.000227415
6.81319e-06
0.000225113
6.90348e-06
0.000222781
6.99213e-06
0.000220421
7.07914e-06
0.000218032
7.16449e-06
0.000215615
7.2482e-06
0.00021317
7.33024e-06
0.000210699
7.41063e-06
0.000208202
7.48937e-06
0.000205679
7.56645e-06
0.000203131
7.64187e-06
0.000200558
7.71564e-06
0.000197961
7.78776e-06
0.000195341
7.85823e-06
0.000192697
7.92707e-06
0.000190032
7.99428e-06
0.000187344
8.05987e-06
0.000184635
8.12384e-06
0.000181906
8.1862e-06
0.000179156
8.24698e-06
0.000176386
8.30617e-06
0.000173598
8.36379e-06
0.00017079
8.41986e-06
0.000167964
8.47439e-06
0.000165121
8.5274e-06
0.000162261
8.5789e-06
0.000159384
8.6289e-06
0.00015649
8.67744e-06
0.000153581
8.72451e-06
0.000150657
8.77015e-06
0.000147718
8.81438e-06
0.000144765
8.85721e-06
0.000141798
8.89866e-06
0.000138818
8.93876e-06
0.000135825
8.97753e-06
0.000132819
9.01498e-06
0.000129801
9.05115e-06
0.000126772
9.08605e-06
0.000123731
9.11971e-06
0.00012068
9.15215e-06
0.000117618
9.1834e-06
0.000114546
9.21347e-06
0.000111465
9.24239e-06
0.000108374
9.27019e-06
0.000105274
9.29688e-06
0.000102166
9.32249e-06
9.90501e-05
9.34705e-06
9.5926e-05
9.37057e-06
9.27945e-05
9.39308e-06
8.96557e-05
9.4146e-06
8.65102e-05
9.43515e-06
8.33581e-05
9.45476e-06
8.01997e-05
9.47344e-06
7.70355e-05
9.49122e-06
7.38657e-05
9.50811e-06
7.06905e-05
9.52414e-06
6.75102e-05
9.53933e-06
6.43252e-05
9.55369e-06
6.11357e-05
9.56725e-06
5.79419e-05
9.58001e-06
5.47442e-05
9.592e-06
5.15427e-05
9.60323e-06
4.83377e-05
9.61372e-06
4.51295e-05
9.62348e-06
4.19182e-05
9.63253e-06
3.87042e-05
9.64088e-06
3.54877e-05
9.64853e-06
3.22688e-05
9.65551e-06
2.90478e-05
9.66182e-06
2.5825e-05
9.66747e-06
2.26005e-05
9.67247e-06
1.93745e-05
9.67683e-06
1.61473e-05
9.68056e-06
1.29191e-05
9.68365e-06
9.69001e-06
9.68612e-06
6.46035e-06
9.68797e-06
3.23027e-06
9.68919e-06
9.6898e-06
3.41318e-06
-1.36496e-05
6.82615e-06
-1.36487e-05
1.02387e-05
-1.36469e-05
1.36505e-05
-1.36442e-05
1.70615e-05
-1.36406e-05
2.04713e-05
-1.36361e-05
2.38798e-05
-1.36307e-05
2.72867e-05
-1.36244e-05
3.06919e-05
-1.36171e-05
3.40949e-05
-1.36088e-05
3.74957e-05
-1.35996e-05
4.08939e-05
-1.35894e-05
4.42894e-05
-1.35781e-05
4.76817e-05
-1.35658e-05
5.10708e-05
-1.35525e-05
5.44563e-05
-1.35381e-05
5.7838e-05
-1.35226e-05
6.12155e-05
-1.35059e-05
6.45885e-05
-1.34881e-05
6.79569e-05
-1.34691e-05
7.13202e-05
-1.34488e-05
7.46781e-05
-1.34273e-05
7.80304e-05
-1.34045e-05
8.13767e-05
-1.33803e-05
8.47166e-05
-1.33548e-05
8.80499e-05
-1.33279e-05
9.13761e-05
-1.32995e-05
9.46948e-05
-1.32696e-05
9.80057e-05
-1.32382e-05
0.000101308
-1.32053e-05
0.000104603
-1.31707e-05
0.000107888
-1.31344e-05
0.000111163
-1.30965e-05
0.000114429
-1.30568e-05
0.000117685
-1.30153e-05
0.000120929
-1.2972e-05
0.000124163
-1.29268e-05
0.000127384
-1.28796e-05
0.000130594
-1.28305e-05
0.00013379
-1.27794e-05
0.000136974
-1.27262e-05
0.000140143
-1.26709e-05
0.000143299
-1.26135e-05
0.000146439
-1.25538e-05
0.000149564
-1.2492e-05
0.000152673
-1.24278e-05
0.000155765
-1.23613e-05
0.000158841
-1.22924e-05
0.000161898
-1.22212e-05
0.000164937
-1.21475e-05
0.000167957
-1.20713e-05
0.000170957
-1.19926e-05
0.000173938
-1.19114e-05
0.000176897
-1.18275e-05
0.000179834
-1.17411e-05
0.00018275
-1.1652e-05
0.000185642
-1.15603e-05
0.000188511
-1.14659e-05
0.000191356
-1.13687e-05
0.000194175
-1.12688e-05
0.000196969
-1.11662e-05
0.000199737
-1.10608e-05
0.000202477
-1.09527e-05
0.00020519
-1.08417e-05
0.000207875
-1.0728e-05
0.00021053
-1.06114e-05
0.000213155
-1.04921e-05
0.00021575
-1.03699e-05
0.000218314
-1.0245e-05
0.000220846
-1.01172e-05
0.000223345
-9.98672e-06
0.000225811
-9.85345e-06
0.000228242
-9.71743e-06
0.000230639
-9.57868e-06
0.000233001
-9.43722e-06
0.000235327
-9.29308e-06
0.000237615
-9.14628e-06
0.000239867
-8.99687e-06
0.00024208
-8.84487e-06
0.000244255
-8.69032e-06
0.000246391
-8.53326e-06
0.000248486
-8.37373e-06
0.000250541
-8.21177e-06
0.000252555
-8.04745e-06
0.000254527
-7.8808e-06
0.000256457
-7.71189e-06
0.000258344
-7.54076e-06
0.000260188
-7.36747e-06
0.000261988
-7.19209e-06
0.000263743
-7.01467e-06
0.000265454
-6.83529e-06
0.000267119
-6.654e-06
0.000268738
-6.47087e-06
0.000270311
-6.28598e-06
0.000271837
-6.09939e-06
0.000273316
-5.91118e-06
0.000274748
-5.72141e-06
0.000276132
-5.53016e-06
0.000277467
-5.33752e-06
0.000278754
-5.14354e-06
0.000279992
-4.94831e-06
0.000281181
-4.75191e-06
0.000282321
-4.55441e-06
0.000283411
-4.35588e-06
0.00028445
-4.15641e-06
0.00028544
-3.95607e-06
0.00028638
-3.75493e-06
0.000287268
-3.55308e-06
0.000288107
-3.35059e-06
0.000288894
-3.14754e-06
0.00028963
-2.94399e-06
0.000290316
-2.74002e-06
0.00029095
-2.5357e-06
0.000291533
-2.33111e-06
0.000292064
-2.12632e-06
0.000292545
-1.92139e-06
0.000292974
-1.7164e-06
0.000293352
-1.5114e-06
0.000293678
-1.30648e-06
0.000293953
-1.10168e-06
0.000294177
-8.97074e-07
0.00029435
-6.92725e-07
0.000294472
-4.88691e-07
0.000294543
-2.85031e-07
0.000294563
-8.18029e-08
0.000294532
1.20938e-07
0.000294451
3.23136e-07
0.000294319
5.24739e-07
0.000294137
7.25695e-07
0.000293905
9.25953e-07
0.000293623
1.12546e-06
0.000293291
1.32418e-06
0.00029291
1.52205e-06
0.000292479
1.71904e-06
0.000292
1.9151e-06
0.000291471
2.11018e-06
0.000290894
2.30424e-06
0.000290269
2.49724e-06
0.000289596
2.68915e-06
0.000288875
2.87992e-06
0.000288106
3.06951e-06
0.000287291
3.25789e-06
0.000286428
3.44502e-06
0.00028552
3.63086e-06
0.000284565
3.81538e-06
0.000283564
3.99854e-06
0.000282517
4.18031e-06
0.000281426
4.36066e-06
0.00028029
4.53955e-06
0.000279109
4.71694e-06
0.000277885
4.89282e-06
0.000276616
5.06715e-06
0.000275305
5.23989e-06
0.000273951
5.41101e-06
0.000272554
5.5805e-06
0.000271116
5.74831e-06
0.000269636
5.91441e-06
0.000268114
6.07879e-06
0.000266552
6.2414e-06
0.00026495
6.40223e-06
0.000263308
6.56125e-06
0.000261627
6.71843e-06
0.000259907
6.87374e-06
0.000258149
7.02716e-06
0.000256352
7.17866e-06
0.000254518
7.32823e-06
0.000252648
7.47583e-06
0.000250741
7.62145e-06
0.000248798
7.76507e-06
0.000246819
7.90665e-06
0.000244806
8.0462e-06
0.000242758
8.18367e-06
0.000240676
8.31906e-06
0.000238561
8.45235e-06
0.000236414
8.58353e-06
0.000234234
8.71257e-06
0.000232022
8.83947e-06
0.000229779
8.96422e-06
0.000227505
9.08679e-06
0.000225202
9.20719e-06
0.000222868
9.3254e-06
0.000220506
9.44141e-06
0.000218115
9.55523e-06
0.000215697
9.66684e-06
0.000213251
9.77624e-06
0.000210778
9.88342e-06
0.000208279
9.9884e-06
0.000205754
1.00912e-05
0.000203204
1.01917e-05
0.00020063
1.02901e-05
0.000198031
1.03862e-05
0.000195409
1.04802e-05
0.000192765
1.0572e-05
0.000190097
1.06616e-05
0.000187408
1.0749e-05
0.000184698
1.08343e-05
0.000181966
1.09174e-05
0.000179215
1.09984e-05
0.000176444
1.10773e-05
0.000173654
1.11541e-05
0.000170845
1.12289e-05
0.000168017
1.13016e-05
0.000165173
1.13722e-05
0.000162311
1.14408e-05
0.000159432
1.15075e-05
0.000156537
1.15722e-05
0.000153627
1.16349e-05
0.000150701
1.16957e-05
0.000147761
1.17547e-05
0.000144806
1.18117e-05
0.000141838
1.1867e-05
0.000138856
1.19204e-05
0.000135862
1.19721e-05
0.000132855
1.2022e-05
0.000129836
1.20702e-05
0.000126805
1.21167e-05
0.000123763
1.21615e-05
0.000120711
1.22047e-05
0.000117648
1.22464e-05
0.000114575
1.22864e-05
0.000111492
1.23249e-05
0.000108401
1.2362e-05
0.0001053
1.23975e-05
0.000102191
1.24316e-05
9.90736e-05
1.24643e-05
9.59485e-05
1.24957e-05
9.28159e-05
1.25256e-05
8.96762e-05
1.25543e-05
8.65297e-05
1.25817e-05
8.33767e-05
1.26078e-05
8.02175e-05
1.26327e-05
7.70524e-05
1.26563e-05
7.38816e-05
1.26788e-05
7.07056e-05
1.27002e-05
6.75246e-05
1.27204e-05
6.43387e-05
1.27395e-05
6.11484e-05
1.27576e-05
5.79539e-05
1.27745e-05
5.47554e-05
1.27905e-05
5.15531e-05
1.28055e-05
4.83474e-05
1.28194e-05
4.51385e-05
1.28324e-05
4.19266e-05
1.28445e-05
3.87119e-05
1.28556e-05
3.54946e-05
1.28658e-05
3.22751e-05
1.28751e-05
2.90535e-05
1.28835e-05
2.583e-05
1.2891e-05
2.26048e-05
1.28976e-05
1.93782e-05
1.29034e-05
1.61504e-05
1.29084e-05
1.29215e-05
1.29125e-05
9.69186e-06
1.29158e-05
6.46158e-06
1.29182e-05
3.23089e-06
1.29199e-05
1.29207e-05
3.41408e-06
-1.70637e-05
6.82794e-06
-1.70626e-05
1.02414e-05
-1.70603e-05
1.36541e-05
-1.7057e-05
1.7066e-05
-1.70525e-05
2.04768e-05
-1.70469e-05
2.38862e-05
-1.70401e-05
2.72941e-05
-1.70322e-05
3.07001e-05
-1.70231e-05
3.41042e-05
-1.70128e-05
3.7506e-05
-1.70013e-05
4.09052e-05
-1.69886e-05
4.43017e-05
-1.69746e-05
4.76951e-05
-1.69593e-05
5.10853e-05
-1.69427e-05
5.44719e-05
-1.69247e-05
5.78547e-05
-1.69053e-05
6.12334e-05
-1.68846e-05
6.46076e-05
-1.68624e-05
6.79772e-05
-1.68386e-05
7.13418e-05
-1.68134e-05
7.4701e-05
-1.67865e-05
7.80547e-05
-1.67581e-05
8.14023e-05
-1.6728e-05
8.47437e-05
-1.66961e-05
8.80784e-05
-1.66626e-05
9.1406e-05
-1.66272e-05
9.47263e-05
-1.65899e-05
9.80388e-05
-1.65507e-05
0.000101343
-1.65096e-05
0.000104639
-1.64665e-05
0.000107926
-1.64212e-05
0.000111203
-1.63739e-05
0.000114471
-1.63244e-05
0.000117728
-1.62726e-05
0.000120975
-1.62185e-05
0.00012421
-1.61621e-05
0.000127433
-1.61033e-05
0.000130645
-1.6042e-05
0.000133844
-1.59781e-05
0.000137029
-1.59118e-05
0.000140201
-1.58427e-05
0.000143358
-1.5771e-05
0.000146501
-1.56965e-05
0.000149628
-1.56192e-05
0.00015274
-1.55391e-05
0.000155834
-1.54561e-05
0.000158912
-1.53701e-05
0.000161972
-1.52811e-05
0.000165013
-1.5189e-05
0.000168036
-1.50938e-05
0.000171039
-1.49955e-05
0.000174022
-1.4894e-05
0.000176983
-1.47893e-05
0.000179924
-1.46813e-05
0.000182842
-1.457e-05
0.000185737
-1.44554e-05
0.000188608
-1.43374e-05
0.000191456
-1.4216e-05
0.000194278
-1.40912e-05
0.000197075
-1.3963e-05
0.000199845
-1.38312e-05
0.000202588
-1.36961e-05
0.000205304
-1.35574e-05
0.000207991
-1.34152e-05
0.000210649
-1.32695e-05
0.000213278
-1.31203e-05
0.000215875
-1.29676e-05
0.000218442
-1.28114e-05
0.000220976
-1.26517e-05
0.000223478
-1.24886e-05
0.000225947
-1.2322e-05
0.000228381
-1.21519e-05
0.000230781
-1.19784e-05
0.000233145
-1.18015e-05
0.000235474
-1.16213e-05
0.000237765
-1.14378e-05
0.000240019
-1.12509e-05
0.000242235
-1.10609e-05
0.000244412
-1.08676e-05
0.00024655
-1.06712e-05
0.000248648
-1.04717e-05
0.000250706
-1.02692e-05
0.000252722
-1.00637e-05
0.000254696
-9.85525e-06
0.000256628
-9.644e-06
0.000258518
-9.42998e-06
0.000260363
-9.21326e-06
0.000262165
-8.99392e-06
0.000263923
-8.77203e-06
0.000265635
-8.54767e-06
0.000267302
-8.32093e-06
0.000268923
-8.0919e-06
0.000270498
-7.86065e-06
0.000272026
-7.62728e-06
0.000273506
-7.39187e-06
0.000274939
-7.15453e-06
0.000276325
-6.91533e-06
0.000277661
-6.67438e-06
0.00027895
-6.43177e-06
0.000280189
-6.18759e-06
0.000281379
-5.94194e-06
0.000282519
-5.69492e-06
0.00028361
-5.44662e-06
0.000284651
-5.19714e-06
0.000285641
-4.94657e-06
0.000286581
-4.69501e-06
0.000287471
-4.44255e-06
0.00028831
-4.1893e-06
0.000289097
-3.93534e-06
0.000289834
-3.68076e-06
0.00029052
-3.42567e-06
0.000291154
-3.17014e-06
0.000291737
-2.91427e-06
0.000292269
-2.65815e-06
0.00029275
-2.40186e-06
0.000293179
-2.14549e-06
0.000293557
-1.88913e-06
0.000293883
-1.63285e-06
0.000294158
-1.37673e-06
0.000294382
-1.12086e-06
0.000294554
-8.65311e-07
0.000294676
-6.10159e-07
0.000294746
-3.55476e-07
0.000294766
-1.01336e-07
0.000294735
1.52192e-07
0.000294653
4.0504e-07
0.00029452
6.57141e-07
0.000294338
9.0843e-07
0.000294105
1.15885e-06
0.000293822
1.40832e-06
0.000293489
1.65681e-06
0.000293107
1.90423e-06
0.000292675
2.15055e-06
0.000292195
2.3957e-06
0.000291665
2.63963e-06
0.000291087
2.88229e-06
0.000290461
3.12362e-06
0.000289787
3.36358e-06
0.000289064
3.60211e-06
0.000288295
3.83917e-06
0.000287478
4.07471e-06
0.000286614
4.30869e-06
0.000285704
4.54106e-06
0.000284748
4.77177e-06
0.000283745
5.00079e-06
0.000282698
5.22806e-06
0.000281605
5.45356e-06
0.000280467
5.67723e-06
0.000279285
5.89904e-06
0.000278059
6.11894e-06
0.000276789
6.33691e-06
0.000275476
6.55289e-06
0.00027412
6.76685e-06
0.000272722
6.97876e-06
0.000271282
7.18858e-06
0.0002698
7.39626e-06
0.000268277
7.60179e-06
0.000266713
7.80511e-06
0.000265109
8.00619e-06
0.000263465
8.20501e-06
0.000261782
8.40153e-06
0.00026006
8.59572e-06
0.0002583
8.78754e-06
0.000256502
8.97697e-06
0.000254666
9.16397e-06
0.000252793
9.34851e-06
0.000250884
9.53058e-06
0.000248939
9.71014e-06
0.000246959
9.88716e-06
0.000244943
1.00616e-05
0.000242893
1.02335e-05
0.00024081
1.04028e-05
0.000238693
1.05694e-05
0.000236543
1.07334e-05
0.00023436