/*--------------------------------*- C++ -*----------------------------------*\
| =========                 |                                                 |
| \\      /  F ield         | OpenFOAM: The Open Source CFD Toolbox           |
|  \\    /   O peration     | Version:  v2012                                 |
|   \\  /    A nd           | Website:  www.openfoam.com                      |
|    \\/     M anipulation  |                                                 |
\*---------------------------------------------------------------------------*/
FoamFile
{
    version     2.0;
    format      ascii;
    class       volVectorField;
    location    "1.5";
    object      Psi;
}
// * * * * * * * * * * * * * * * * * * * * * * * * * * * * * * * * * * * * * //

dimensions      [0 2 -1 0 0 0 0];


internalField   nonuniform List<vector> 
65536
(
(0 0 8.54714e-06)
(0 0 2.56408e-05)
(0 0 4.27327e-05)
(0 0 5.98218e-05)
(0 0 7.6907e-05)
(0 0 9.39871e-05)
(0 0 0.000111061)
(0 0 0.000128128)
(0 0 0.000145186)
(0 0 0.000162234)
(0 0 0.000179271)
(0 0 0.000196296)
(0 0 0.000213308)
(0 0 0.000230305)
(0 0 0.000247285)
(0 0 0.000264249)
(0 0 0.000281193)
(0 0 0.000298118)
(0 0 0.000315021)
(0 0 0.0003319)
(0 0 0.000348755)
(0 0 0.000365584)
(0 0 0.000382385)
(0 0 0.000399157)
(0 0 0.000415897)
(0 0 0.000432605)
(0 0 0.000449278)
(0 0 0.000465914)
(0 0 0.000482512)
(0 0 0.000499069)
(0 0 0.000515584)
(0 0 0.000532055)
(0 0 0.000548479)
(0 0 0.000564854)
(0 0 0.000581178)
(0 0 0.000597449)
(0 0 0.000613665)
(0 0 0.000629822)
(0 0 0.000645919)
(0 0 0.000661953)
(0 0 0.000677922)
(0 0 0.000693822)
(0 0 0.000709652)
(0 0 0.000725408)
(0 0 0.000741088)
(0 0 0.000756688)
(0 0 0.000772207)
(0 0 0.00078764)
(0 0 0.000802985)
(0 0 0.00081824)
(0 0 0.0008334)
(0 0 0.000848462)
(0 0 0.000863425)
(0 0 0.000878283)
(0 0 0.000893035)
(0 0 0.000907676)
(0 0 0.000922203)
(0 0 0.000936614)
(0 0 0.000950904)
(0 0 0.00096507)
(0 0 0.000979109)
(0 0 0.000993017)
(0 0 0.00100679)
(0 0 0.00102043)
(0 0 0.00103392)
(0 0 0.00104727)
(0 0 0.00106047)
(0 0 0.00107352)
(0 0 0.00108642)
(0 0 0.00109915)
(0 0 0.00111173)
(0 0 0.00112413)
(0 0 0.00113637)
(0 0 0.00114844)
(0 0 0.00116033)
(0 0 0.00117203)
(0 0 0.00118356)
(0 0 0.0011949)
(0 0 0.00120605)
(0 0 0.00121701)
(0 0 0.00122777)
(0 0 0.00123833)
(0 0 0.00124869)
(0 0 0.00125885)
(0 0 0.0012688)
(0 0 0.00127853)
(0 0 0.00128805)
(0 0 0.00129736)
(0 0 0.00130645)
(0 0 0.00131531)
(0 0 0.00132395)
(0 0 0.00133236)
(0 0 0.00134055)
(0 0 0.0013485)
(0 0 0.00135622)
(0 0 0.0013637)
(0 0 0.00137095)
(0 0 0.00137796)
(0 0 0.00138472)
(0 0 0.00139125)
(0 0 0.00139752)
(0 0 0.00140355)
(0 0 0.00140934)
(0 0 0.00141487)
(0 0 0.00142016)
(0 0 0.00142519)
(0 0 0.00142998)
(0 0 0.0014345)
(0 0 0.00143878)
(0 0 0.0014428)
(0 0 0.00144656)
(0 0 0.00145007)
(0 0 0.00145333)
(0 0 0.00145632)
(0 0 0.00145906)
(0 0 0.00146155)
(0 0 0.00146377)
(0 0 0.00146574)
(0 0 0.00146745)
(0 0 0.0014689)
(0 0 0.0014701)
(0 0 0.00147104)
(0 0 0.00147173)
(0 0 0.00147216)
(0 0 0.00147233)
(0 0 0.00147225)
(0 0 0.00147192)
(0 0 0.00147134)
(0 0 0.0014705)
(0 0 0.00146941)
(0 0 0.00146807)
(0 0 0.00146648)
(0 0 0.00146465)
(0 0 0.00146256)
(0 0 0.00146024)
(0 0 0.00145766)
(0 0 0.00145485)
(0 0 0.00145179)
(0 0 0.00144849)
(0 0 0.00144496)
(0 0 0.00144118)
(0 0 0.00143717)
(0 0 0.00143293)
(0 0 0.00142845)
(0 0 0.00142375)
(0 0 0.00141881)
(0 0 0.00141365)
(0 0 0.00140826)
(0 0 0.00140264)
(0 0 0.00139681)
(0 0 0.00139075)
(0 0 0.00138448)
(0 0 0.00137799)
(0 0 0.00137129)
(0 0 0.00136438)
(0 0 0.00135725)
(0 0 0.00134992)
(0 0 0.00134239)
(0 0 0.00133465)
(0 0 0.00132671)
(0 0 0.00131857)
(0 0 0.00131023)
(0 0 0.0013017)
(0 0 0.00129298)
(0 0 0.00128407)
(0 0 0.00127497)
(0 0 0.00126569)
(0 0 0.00125623)
(0 0 0.00124659)
(0 0 0.00123677)
(0 0 0.00122678)
(0 0 0.00121661)
(0 0 0.00120628)
(0 0 0.00119578)
(0 0 0.00118511)
(0 0 0.00117429)
(0 0 0.0011633)
(0 0 0.00115216)
(0 0 0.00114087)
(0 0 0.00112943)
(0 0 0.00111784)
(0 0 0.0011061)
(0 0 0.00109422)
(0 0 0.00108221)
(0 0 0.00107005)
(0 0 0.00105776)
(0 0 0.00104534)
(0 0 0.0010328)
(0 0 0.00102012)
(0 0 0.00100733)
(0 0 0.000994409)
(0 0 0.000981374)
(0 0 0.000968225)
(0 0 0.000954963)
(0 0 0.000941592)
(0 0 0.000928114)
(0 0 0.000914532)
(0 0 0.000900848)
(0 0 0.000887065)
(0 0 0.000873186)
(0 0 0.000859214)
(0 0 0.00084515)
(0 0 0.000830997)
(0 0 0.000816758)
(0 0 0.000802436)
(0 0 0.000788032)
(0 0 0.00077355)
(0 0 0.000758991)
(0 0 0.000744357)
(0 0 0.000729652)
(0 0 0.000714878)
(0 0 0.000700036)
(0 0 0.000685129)
(0 0 0.00067016)
(0 0 0.000655129)
(0 0 0.00064004)
(0 0 0.000624895)
(0 0 0.000609695)
(0 0 0.000594442)
(0 0 0.000579139)
(0 0 0.000563787)
(0 0 0.000548388)
(0 0 0.000532944)
(0 0 0.000517457)
(0 0 0.000501929)
(0 0 0.000486361)
(0 0 0.000470755)
(0 0 0.000455112)
(0 0 0.000439435)
(0 0 0.000423725)
(0 0 0.000407983)
(0 0 0.000392211)
(0 0 0.00037641)
(0 0 0.000360582)
(0 0 0.000344729)
(0 0 0.000328851)
(0 0 0.000312949)
(0 0 0.000297027)
(0 0 0.000281083)
(0 0 0.000265121)
(0 0 0.00024914)
(0 0 0.000233143)
(0 0 0.00021713)
(0 0 0.000201103)
(0 0 0.000185063)
(0 0 0.00016901)
(0 0 0.000152947)
(0 0 0.000136873)
(0 0 0.000120791)
(0 0 0.000104701)
(0 0 8.86045e-05)
(0 0 7.25022e-05)
(0 0 5.63954e-05)
(0 0 4.02849e-05)
(0 0 2.4172e-05)
(0 0 8.05749e-06)
(0 0 2.56418e-05)
(0 0 7.69237e-05)
(0 0 0.0001282)
(0 0 0.000179469)
(0 0 0.000230725)
(0 0 0.000281967)
(0 0 0.00033319)
(0 0 0.00038439)
(0 0 0.000435565)
(0 0 0.000486711)
(0 0 0.000537824)
(0 0 0.0005889)
(0 0 0.000639936)
(0 0 0.000690928)
(0 0 0.000741872)
(0 0 0.000792763)
(0 0 0.000843598)
(0 0 0.000894373)
(0 0 0.000945083)
(0 0 0.000995723)
(0 0 0.00104629)
(0 0 0.00109678)
(0 0 0.00114718)
(0 0 0.0011975)
(0 0 0.00124772)
(0 0 0.00129785)
(0 0 0.00134787)
(0 0 0.00139778)
(0 0 0.00144757)
(0 0 0.00149725)
(0 0 0.00154679)
(0 0 0.00159621)
(0 0 0.00164548)
(0 0 0.00169461)
(0 0 0.00174358)
(0 0 0.0017924)
(0 0 0.00184105)
(0 0 0.00188952)
(0 0 0.00193782)
(0 0 0.00198592)
(0 0 0.00203383)
(0 0 0.00208153)
(0 0 0.00212902)
(0 0 0.0021763)
(0 0 0.00222334)
(0 0 0.00227014)
(0 0 0.0023167)
(0 0 0.002363)
(0 0 0.00240904)
(0 0 0.00245481)
(0 0 0.00250029)
(0 0 0.00254548)
(0 0 0.00259037)
(0 0 0.00263495)
(0 0 0.00267921)
(0 0 0.00272314)
(0 0 0.00276672)
(0 0 0.00280996)
(0 0 0.00285283)
(0 0 0.00289533)
(0 0 0.00293745)
(0 0 0.00297918)
(0 0 0.00302051)
(0 0 0.00306142)
(0 0 0.0031019)
(0 0 0.00314196)
(0 0 0.00318157)
(0 0 0.00322072)
(0 0 0.00325941)
(0 0 0.00329762)
(0 0 0.00333534)
(0 0 0.00337256)
(0 0 0.00340928)
(0 0 0.00344548)
(0 0 0.00348115)
(0 0 0.00351628)
(0 0 0.00355086)
(0 0 0.00358489)
(0 0 0.00361834)
(0 0 0.00365122)
(0 0 0.00368351)
(0 0 0.0037152)
(0 0 0.00374628)
(0 0 0.00377675)
(0 0 0.00380659)
(0 0 0.00383581)
(0 0 0.00386437)
(0 0 0.00389229)
(0 0 0.00391956)
(0 0 0.00394615)
(0 0 0.00397208)
(0 0 0.00399732)
(0 0 0.00402187)
(0 0 0.00404573)
(0 0 0.00406889)
(0 0 0.00409135)
(0 0 0.00411309)
(0 0 0.00413411)
(0 0 0.00415441)
(0 0 0.00417398)
(0 0 0.00419281)
(0 0 0.00421091)
(0 0 0.00422826)
(0 0 0.00424487)
(0 0 0.00426073)
(0 0 0.00427583)
(0 0 0.00429018)
(0 0 0.00430376)
(0 0 0.00431659)
(0 0 0.00432865)
(0 0 0.00433995)
(0 0 0.00435048)
(0 0 0.00436024)
(0 0 0.00436922)
(0 0 0.00437744)
(0 0 0.00438489)
(0 0 0.00439157)
(0 0 0.00439747)
(0 0 0.0044026)
(0 0 0.00440697)
(0 0 0.00441056)
(0 0 0.00441338)
(0 0 0.00441544)
(0 0 0.00441673)
(0 0 0.00441725)
(0 0 0.00441701)
(0 0 0.00441601)
(0 0 0.00441426)
(0 0 0.00441174)
(0 0 0.00440848)
(0 0 0.00440446)
(0 0 0.0043997)
(0 0 0.00439419)
(0 0 0.00438794)
(0 0 0.00438095)
(0 0 0.00437324)
(0 0 0.00436479)
(0 0 0.00435561)
(0 0 0.00434572)
(0 0 0.00433511)
(0 0 0.00432379)
(0 0 0.00431176)
(0 0 0.00429902)
(0 0 0.00428559)
(0 0 0.00427147)
(0 0 0.00425666)
(0 0 0.00424117)
(0 0 0.004225)
(0 0 0.00420816)
(0 0 0.00419065)
(0 0 0.00417248)
(0 0 0.00415366)
(0 0 0.0041342)
(0 0 0.00411409)
(0 0 0.00409334)
(0 0 0.00407197)
(0 0 0.00404997)
(0 0 0.00402736)
(0 0 0.00400414)
(0 0 0.00398032)
(0 0 0.0039559)
(0 0 0.00393089)
(0 0 0.0039053)
(0 0 0.00387913)
(0 0 0.0038524)
(0 0 0.00382511)
(0 0 0.00379726)
(0 0 0.00376887)
(0 0 0.00373994)
(0 0 0.00371048)
(0 0 0.0036805)
(0 0 0.00365)
(0 0 0.003619)
(0 0 0.00358749)
(0 0 0.0035555)
(0 0 0.00352302)
(0 0 0.00349007)
(0 0 0.00345665)
(0 0 0.00342277)
(0 0 0.00338843)
(0 0 0.00335366)
(0 0 0.00331845)
(0 0 0.00328281)
(0 0 0.00324676)
(0 0 0.00321029)
(0 0 0.00317343)
(0 0 0.00313616)
(0 0 0.00309852)
(0 0 0.00306049)
(0 0 0.0030221)
(0 0 0.00298335)
(0 0 0.00294424)
(0 0 0.00290479)
(0 0 0.002865)
(0 0 0.00282489)
(0 0 0.00278445)
(0 0 0.0027437)
(0 0 0.00270265)
(0 0 0.0026613)
(0 0 0.00261966)
(0 0 0.00257774)
(0 0 0.00253554)
(0 0 0.00249308)
(0 0 0.00245036)
(0 0 0.00240739)
(0 0 0.00236418)
(0 0 0.00232073)
(0 0 0.00227705)
(0 0 0.00223315)
(0 0 0.00218903)
(0 0 0.0021447)
(0 0 0.00210018)
(0 0 0.00205545)
(0 0 0.00201054)
(0 0 0.00196545)
(0 0 0.00192018)
(0 0 0.00187474)
(0 0 0.00182914)
(0 0 0.00178338)
(0 0 0.00173747)
(0 0 0.00169141)
(0 0 0.00164521)
(0 0 0.00159888)
(0 0 0.00155242)
(0 0 0.00150583)
(0 0 0.00145912)
(0 0 0.0014123)
(0 0 0.00136537)
(0 0 0.00131834)
(0 0 0.00127121)
(0 0 0.00122398)
(0 0 0.00117666)
(0 0 0.00112926)
(0 0 0.00108177)
(0 0 0.00103421)
(0 0 0.000986577)
(0 0 0.000938872)
(0 0 0.000891102)
(0 0 0.00084327)
(0 0 0.000795381)
(0 0 0.000747438)
(0 0 0.000699445)
(0 0 0.000651406)
(0 0 0.000603323)
(0 0 0.000555201)
(0 0 0.000507042)
(0 0 0.00045885)
(0 0 0.000410629)
(0 0 0.000362381)
(0 0 0.00031411)
(0 0 0.000265819)
(0 0 0.000217512)
(0 0 0.00016919)
(0 0 0.000120857)
(0 0 7.25175e-05)
(0 0 2.4173e-05)
(0 0 4.27382e-05)
(0 0 0.000128212)
(0 0 0.000213677)
(0 0 0.000299128)
(0 0 0.000384559)
(0 0 0.000469965)
(0 0 0.000555341)
(0 0 0.000640679)
(0 0 0.000725974)
(0 0 0.000811221)
(0 0 0.000896414)
(0 0 0.000981545)
(0 0 0.00106661)
(0 0 0.0011516)
(0 0 0.00123651)
(0 0 0.00132133)
(0 0 0.00140606)
(0 0 0.00149069)
(0 0 0.00157521)
(0 0 0.00165962)
(0 0 0.0017439)
(0 0 0.00182806)
(0 0 0.00191207)
(0 0 0.00199594)
(0 0 0.00207965)
(0 0 0.00216319)
(0 0 0.00224657)
(0 0 0.00232976)
(0 0 0.00241275)
(0 0 0.00249555)
(0 0 0.00257814)
(0 0 0.0026605)
(0 0 0.00274263)
(0 0 0.00282452)
(0 0 0.00290615)
(0 0 0.00298752)
(0 0 0.00306861)
(0 0 0.00314941)
(0 0 0.0032299)
(0 0 0.00331009)
(0 0 0.00338994)
(0 0 0.00346946)
(0 0 0.00354862)
(0 0 0.00362741)
(0 0 0.00370583)
(0 0 0.00378384)
(0 0 0.00386145)
(0 0 0.00393863)
(0 0 0.00401537)
(0 0 0.00409166)
(0 0 0.00416748)
(0 0 0.00424281)
(0 0 0.00431763)
(0 0 0.00439194)
(0 0 0.00446572)
(0 0 0.00453894)
(0 0 0.00461159)
(0 0 0.00468366)
(0 0 0.00475513)
(0 0 0.00482598)
(0 0 0.00489619)
(0 0 0.00496575)
(0 0 0.00503463)
(0 0 0.00510283)
(0 0 0.00517032)
(0 0 0.00523709)
(0 0 0.00530312)
(0 0 0.00536838)
(0 0 0.00543287)
(0 0 0.00549657)
(0 0 0.00555945)
(0 0 0.0056215)
(0 0 0.00568271)
(0 0 0.00574305)
(0 0 0.00580251)
(0 0 0.00586108)
(0 0 0.00591873)
(0 0 0.00597544)
(0 0 0.00603121)
(0 0 0.00608602)
(0 0 0.00613984)
(0 0 0.00619267)
(0 0 0.00624449)
(0 0 0.00629528)
(0 0 0.00634503)
(0 0 0.00639372)
(0 0 0.00644135)
(0 0 0.00648789)
(0 0 0.00653333)
(0 0 0.00657767)
(0 0 0.00662088)
(0 0 0.00666296)
(0 0 0.00670389)
(0 0 0.00674367)
(0 0 0.00678228)
(0 0 0.0068197)
(0 0 0.00685594)
(0 0 0.00689099)
(0 0 0.00692482)
(0 0 0.00695744)
(0 0 0.00698884)
(0 0 0.007019)
(0 0 0.00704793)
(0 0 0.00707562)
(0 0 0.00710205)
(0 0 0.00712722)
(0 0 0.00715114)
(0 0 0.00717379)
(0 0 0.00719517)
(0 0 0.00721527)
(0 0 0.0072341)
(0 0 0.00725165)
(0 0 0.00726791)
(0 0 0.0072829)
(0 0 0.00729659)
(0 0 0.00730901)
(0 0 0.00732013)
(0 0 0.00732997)
(0 0 0.00733853)
(0 0 0.0073458)
(0 0 0.00735178)
(0 0 0.00735649)
(0 0 0.00735991)
(0 0 0.00736206)
(0 0 0.00736293)
(0 0 0.00736253)
(0 0 0.00736086)
(0 0 0.00735793)
(0 0 0.00735374)
(0 0 0.00734829)
(0 0 0.0073416)
(0 0 0.00733365)
(0 0 0.00732447)
(0 0 0.00731405)
(0 0 0.0073024)
(0 0 0.00728954)
(0 0 0.00727545)
(0 0 0.00726016)
(0 0 0.00724366)
(0 0 0.00722597)
(0 0 0.0072071)
(0 0 0.00718704)
(0 0 0.00716581)
(0 0 0.00714342)
(0 0 0.00711988)
(0 0 0.00709519)
(0 0 0.00706936)
(0 0 0.00704241)
(0 0 0.00701433)
(0 0 0.00698515)
(0 0 0.00695487)
(0 0 0.00692349)
(0 0 0.00689104)
(0 0 0.00685752)
(0 0 0.00682294)
(0 0 0.00678731)
(0 0 0.00675064)
(0 0 0.00671295)
(0 0 0.00667424)
(0 0 0.00663452)
(0 0 0.00659382)
(0 0 0.00655213)
(0 0 0.00650947)
(0 0 0.00646585)
(0 0 0.00642129)
(0 0 0.00637579)
(0 0 0.00632938)
(0 0 0.00628205)
(0 0 0.00623383)
(0 0 0.00618472)
(0 0 0.00613474)
(0 0 0.0060839)
(0 0 0.00603222)
(0 0 0.0059797)
(0 0 0.00592637)
(0 0 0.00587223)
(0 0 0.0058173)
(0 0 0.00576159)
(0 0 0.00570511)
(0 0 0.00564788)
(0 0 0.00558992)
(0 0 0.00553122)
(0 0 0.00547182)
(0 0 0.00541172)
(0 0 0.00535094)
(0 0 0.00528948)
(0 0 0.00522737)
(0 0 0.00516462)
(0 0 0.00510124)
(0 0 0.00503724)
(0 0 0.00497264)
(0 0 0.00490745)
(0 0 0.00484169)
(0 0 0.00477537)
(0 0 0.0047085)
(0 0 0.0046411)
(0 0 0.00457317)
(0 0 0.00450474)
(0 0 0.00443581)
(0 0 0.00436641)
(0 0 0.00429653)
(0 0 0.0042262)
(0 0 0.00415542)
(0 0 0.00408422)
(0 0 0.00401259)
(0 0 0.00394056)
(0 0 0.00386814)
(0 0 0.00379533)
(0 0 0.00372215)
(0 0 0.00364862)
(0 0 0.00357473)
(0 0 0.00350051)
(0 0 0.00342597)
(0 0 0.00335111)
(0 0 0.00327595)
(0 0 0.00320049)
(0 0 0.00312475)
(0 0 0.00304874)
(0 0 0.00297247)
(0 0 0.00289594)
(0 0 0.00281917)
(0 0 0.00274217)
(0 0 0.00266494)
(0 0 0.0025875)
(0 0 0.00250985)
(0 0 0.002432)
(0 0 0.00235396)
(0 0 0.00227574)
(0 0 0.00219735)
(0 0 0.00211879)
(0 0 0.00204007)
(0 0 0.0019612)
(0 0 0.00188219)
(0 0 0.00180304)
(0 0 0.00172377)
(0 0 0.00164437)
(0 0 0.00156486)
(0 0 0.00148524)
(0 0 0.00140551)
(0 0 0.0013257)
(0 0 0.00124579)
(0 0 0.00116579)
(0 0 0.00108572)
(0 0 0.00100558)
(0 0 0.000925375)
(0 0 0.000845107)
(0 0 0.000764784)
(0 0 0.000684411)
(0 0 0.000603995)
(0 0 0.00052354)
(0 0 0.000443051)
(0 0 0.000362535)
(0 0 0.000281995)
(0 0 0.000201438)
(0 0 0.000120868)
(0 0 4.029e-05)
(0 0 5.98373e-05)
(0 0 0.000179508)
(0 0 0.000299167)
(0 0 0.000418806)
(0 0 0.000538418)
(0 0 0.000657995)
(0 0 0.000777528)
(0 0 0.00089701)
(0 0 0.00101643)
(0 0 0.00113579)
(0 0 0.00125506)
(0 0 0.00137426)
(0 0 0.00149336)
(0 0 0.00161235)
(0 0 0.00173124)
(0 0 0.00185)
(0 0 0.00196863)
(0 0 0.00208712)
(0 0 0.00220546)
(0 0 0.00232364)
(0 0 0.00244165)
(0 0 0.00255947)
(0 0 0.0026771)
(0 0 0.00279453)
(0 0 0.00291173)
(0 0 0.00302871)
(0 0 0.00314545)
(0 0 0.00326193)
(0 0 0.00337814)
(0 0 0.00349407)
(0 0 0.0036097)
(0 0 0.00372503)
(0 0 0.00384002)
(0 0 0.00395468)
(0 0 0.00406898)
(0 0 0.00418291)
(0 0 0.00429645)
(0 0 0.00440959)
(0 0 0.00452231)
(0 0 0.00463458)
(0 0 0.0047464)
(0 0 0.00485774)
(0 0 0.00496858)
(0 0 0.00507891)
(0 0 0.00518871)
(0 0 0.00529796)
(0 0 0.00540663)
(0 0 0.0055147)
(0 0 0.00562216)
(0 0 0.00572898)
(0 0 0.00583515)
(0 0 0.00594063)
(0 0 0.00604541)
(0 0 0.00614947)
(0 0 0.00625277)
(0 0 0.00635531)
(0 0 0.00645705)
(0 0 0.00655797)
(0 0 0.00665805)
(0 0 0.00675726)
(0 0 0.00685558)
(0 0 0.00695299)
(0 0 0.00704945)
(0 0 0.00714495)
(0 0 0.00723947)
(0 0 0.00733297)
(0 0 0.00742543)
(0 0 0.00751682)
(0 0 0.00760713)
(0 0 0.00769633)
(0 0 0.00778439)
(0 0 0.00787129)
(0 0 0.00795701)
(0 0 0.00804151)
(0 0 0.00812478)
(0 0 0.00820679)
(0 0 0.00828752)
(0 0 0.00836695)
(0 0 0.00844505)
(0 0 0.00852179)
(0 0 0.00859717)
(0 0 0.00867115)
(0 0 0.00874372)
(0 0 0.00881484)
(0 0 0.00888451)
(0 0 0.00895271)
(0 0 0.0090194)
(0 0 0.00908458)
(0 0 0.00914822)
(0 0 0.00921031)
(0 0 0.00927082)
(0 0 0.00932975)
(0 0 0.00938707)
(0 0 0.00944277)
(0 0 0.00949684)
(0 0 0.00954925)
(0 0 0.0096)
(0 0 0.00964907)
(0 0 0.00969645)
(0 0 0.00974213)
(0 0 0.0097861)
(0 0 0.00982834)
(0 0 0.00986885)
(0 0 0.00990761)
(0 0 0.00994463)
(0 0 0.00997988)
(0 0 0.0100134)
(0 0 0.0100451)
(0 0 0.010075)
(0 0 0.0101032)
(0 0 0.0101295)
(0 0 0.0101541)
(0 0 0.0101769)
(0 0 0.0101979)
(0 0 0.010217)
(0 0 0.0102344)
(0 0 0.01025)
(0 0 0.0102638)
(0 0 0.0102757)
(0 0 0.0102859)
(0 0 0.0102943)
(0 0 0.0103009)
(0 0 0.0103057)
(0 0 0.0103087)
(0 0 0.0103099)
(0 0 0.0103093)
(0 0 0.010307)
(0 0 0.0103029)
(0 0 0.010297)
(0 0 0.0102894)
(0 0 0.01028)
(0 0 0.0102689)
(0 0 0.010256)
(0 0 0.0102414)
(0 0 0.0102251)
(0 0 0.0102071)
(0 0 0.0101873)
(0 0 0.0101659)
(0 0 0.0101428)
(0 0 0.010118)
(0 0 0.0100916)
(0 0 0.0100635)
(0 0 0.0100338)
(0 0 0.0100024)
(0 0 0.00996944)
(0 0 0.00993486)
(0 0 0.00989869)
(0 0 0.00986093)
(0 0 0.00982162)
(0 0 0.00978075)
(0 0 0.00973834)
(0 0 0.0096944)
(0 0 0.00964895)
(0 0 0.00960201)
(0 0 0.00955358)
(0 0 0.00950369)
(0 0 0.00945234)
(0 0 0.00939955)
(0 0 0.00934534)
(0 0 0.00928972)
(0 0 0.00923272)
(0 0 0.00917434)
(0 0 0.0091146)
(0 0 0.00905352)
(0 0 0.00899111)
(0 0 0.0089274)
(0 0 0.0088624)
(0 0 0.00879612)
(0 0 0.00872859)
(0 0 0.00865982)
(0 0 0.00858984)
(0 0 0.00851865)
(0 0 0.00844627)
(0 0 0.00837273)
(0 0 0.00829805)
(0 0 0.00822223)
(0 0 0.00814531)
(0 0 0.00806729)
(0 0 0.00798821)
(0 0 0.00790807)
(0 0 0.0078269)
(0 0 0.00774471)
(0 0 0.00766152)
(0 0 0.00757736)
(0 0 0.00749225)
(0 0 0.00740619)
(0 0 0.00731922)
(0 0 0.00723134)
(0 0 0.00714259)
(0 0 0.00705297)
(0 0 0.00696252)
(0 0 0.00687124)
(0 0 0.00677915)
(0 0 0.00668628)
(0 0 0.00659265)
(0 0 0.00649826)
(0 0 0.00640315)
(0 0 0.00630733)
(0 0 0.00621081)
(0 0 0.00611363)
(0 0 0.00601578)
(0 0 0.0059173)
(0 0 0.00581819)
(0 0 0.00571849)
(0 0 0.0056182)
(0 0 0.00551734)
(0 0 0.00541593)
(0 0 0.00531398)
(0 0 0.00521151)
(0 0 0.00510855)
(0 0 0.0050051)
(0 0 0.00490117)
(0 0 0.00479679)
(0 0 0.00469198)
(0 0 0.00458673)
(0 0 0.00448108)
(0 0 0.00437503)
(0 0 0.00426861)
(0 0 0.00416181)
(0 0 0.00405466)
(0 0 0.00394717)
(0 0 0.00383935)
(0 0 0.00373122)
(0 0 0.00362279)
(0 0 0.00351406)
(0 0 0.00340506)
(0 0 0.0032958)
(0 0 0.00318628)
(0 0 0.00307652)
(0 0 0.00296652)
(0 0 0.00285631)
(0 0 0.00274588)
(0 0 0.00263526)
(0 0 0.00252444)
(0 0 0.00241345)
(0 0 0.00230228)
(0 0 0.00219095)
(0 0 0.00207948)
(0 0 0.00196785)
(0 0 0.0018561)
(0 0 0.00174422)
(0 0 0.00163222)
(0 0 0.00152011)
(0 0 0.00140791)
(0 0 0.00129561)
(0 0 0.00118323)
(0 0 0.00107077)
(0 0 0.000958237)
(0 0 0.000845647)
(0 0 0.000733002)
(0 0 0.000620311)
(0 0 0.000507581)
(0 0 0.000394818)
(0 0 0.000282031)
(0 0 0.000169225)
(0 0 5.64096e-05)
(0 0 7.69404e-05)
(0 0 0.000230816)
(0 0 0.000384677)
(0 0 0.000538513)
(0 0 0.000692313)
(0 0 0.000846068)
(0 0 0.000999768)
(0 0 0.0011534)
(0 0 0.00130696)
(0 0 0.00146043)
(0 0 0.0016138)
(0 0 0.00176706)
(0 0 0.00192021)
(0 0 0.00207322)
(0 0 0.00222608)
(0 0 0.0023788)
(0 0 0.00253134)
(0 0 0.0026837)
(0 0 0.00283587)
(0 0 0.00298783)
(0 0 0.00313958)
(0 0 0.00329108)
(0 0 0.00344234)
(0 0 0.00359334)
(0 0 0.00374405)
(0 0 0.00389448)
(0 0 0.00404459)
(0 0 0.00419437)
(0 0 0.00434381)
(0 0 0.00449288)
(0 0 0.00464158)
(0 0 0.00478988)
(0 0 0.00493776)
(0 0 0.0050852)
(0 0 0.00523219)
(0 0 0.0053787)
(0 0 0.00552471)
(0 0 0.0056702)
(0 0 0.00581515)
(0 0 0.00595953)
(0 0 0.00610333)
(0 0 0.00624651)
(0 0 0.00638906)
(0 0 0.00653095)
(0 0 0.00667215)
(0 0 0.00681264)
(0 0 0.0069524)
(0 0 0.00709139)
(0 0 0.00722959)
(0 0 0.00736697)
(0 0 0.0075035)
(0 0 0.00763916)
(0 0 0.00777392)
(0 0 0.00790774)
(0 0 0.00804061)
(0 0 0.00817248)
(0 0 0.00830333)
(0 0 0.00843312)
(0 0 0.00856184)
(0 0 0.00868944)
(0 0 0.00881589)
(0 0 0.00894117)
(0 0 0.00906524)
(0 0 0.00918807)
(0 0 0.00930963)
(0 0 0.00942988)
(0 0 0.0095488)
(0 0 0.00966636)
(0 0 0.00978251)
(0 0 0.00989724)
(0 0 0.0100105)
(0 0 0.0101223)
(0 0 0.0102325)
(0 0 0.0103412)
(0 0 0.0104483)
(0 0 0.0105538)
(0 0 0.0106576)
(0 0 0.0107598)
(0 0 0.0108602)
(0 0 0.0109589)
(0 0 0.0110559)
(0 0 0.0111511)
(0 0 0.0112444)
(0 0 0.0113359)
(0 0 0.0114255)
(0 0 0.0115132)
(0 0 0.011599)
(0 0 0.0116828)
(0 0 0.0117647)
(0 0 0.0118445)
(0 0 0.0119224)
(0 0 0.0119981)
(0 0 0.0120719)
(0 0 0.0121435)
(0 0 0.012213)
(0 0 0.0122805)
(0 0 0.0123457)
(0 0 0.0124088)
(0 0 0.0124698)
(0 0 0.0125285)
(0 0 0.0125851)
(0 0 0.0126394)
(0 0 0.0126915)
(0 0 0.0127414)
(0 0 0.012789)
(0 0 0.0128343)
(0 0 0.0128774)
(0 0 0.0129182)
(0 0 0.0129566)
(0 0 0.0129929)
(0 0 0.0130268)
(0 0 0.0130584)
(0 0 0.0130876)
(0 0 0.0131146)
(0 0 0.0131393)
(0 0 0.0131616)
(0 0 0.0131816)
(0 0 0.0131994)
(0 0 0.0132147)
(0 0 0.0132278)
(0 0 0.0132386)
(0 0 0.0132471)
(0 0 0.0132532)
(0 0 0.0132571)
(0 0 0.0132586)
(0 0 0.0132579)
(0 0 0.0132549)
(0 0 0.0132496)
(0 0 0.013242)
(0 0 0.0132322)
(0 0 0.0132201)
(0 0 0.0132058)
(0 0 0.0131892)
(0 0 0.0131705)
(0 0 0.0131495)
(0 0 0.0131263)
(0 0 0.0131009)
(0 0 0.0130733)
(0 0 0.0130436)
(0 0 0.0130117)
(0 0 0.0129777)
(0 0 0.0129416)
(0 0 0.0129033)
(0 0 0.012863)
(0 0 0.0128206)
(0 0 0.0127761)
(0 0 0.0127296)
(0 0 0.012681)
(0 0 0.0126305)
(0 0 0.0125779)
(0 0 0.0125233)
(0 0 0.0124668)
(0 0 0.0124084)
(0 0 0.012348)
(0 0 0.0122857)
(0 0 0.0122215)
(0 0 0.0121555)
(0 0 0.0120876)
(0 0 0.0120178)
(0 0 0.0119463)
(0 0 0.011873)
(0 0 0.0117979)
(0 0 0.0117211)
(0 0 0.0116425)
(0 0 0.0115622)
(0 0 0.0114803)
(0 0 0.0113967)
(0 0 0.0113115)
(0 0 0.0112246)
(0 0 0.0111361)
(0 0 0.0110461)
(0 0 0.0109546)
(0 0 0.0108615)
(0 0 0.0107669)
(0 0 0.0106709)
(0 0 0.0105733)
(0 0 0.0104744)
(0 0 0.0103741)
(0 0 0.0102724)
(0 0 0.0101693)
(0 0 0.0100649)
(0 0 0.00995919)
(0 0 0.0098522)
(0 0 0.00974397)
(0 0 0.0096345)
(0 0 0.00952382)
(0 0 0.00941196)
(0 0 0.00929895)
(0 0 0.00918481)
(0 0 0.00906955)
(0 0 0.00895322)
(0 0 0.00883583)
(0 0 0.0087174)
(0 0 0.00859796)
(0 0 0.00847754)
(0 0 0.00835616)
(0 0 0.00823384)
(0 0 0.00811061)
(0 0 0.00798649)
(0 0 0.0078615)
(0 0 0.00773567)
(0 0 0.00760902)
(0 0 0.00748157)
(0 0 0.00735334)
(0 0 0.00722437)
(0 0 0.00709466)
(0 0 0.00696425)
(0 0 0.00683315)
(0 0 0.00670138)
(0 0 0.00656897)
(0 0 0.00643593)
(0 0 0.00630229)
(0 0 0.00616806)
(0 0 0.00603327)
(0 0 0.00589793)
(0 0 0.00576207)
(0 0 0.0056257)
(0 0 0.00548884)
(0 0 0.0053515)
(0 0 0.00521372)
(0 0 0.00507549)
(0 0 0.00493685)
(0 0 0.0047978)
(0 0 0.00465836)
(0 0 0.00451856)
(0 0 0.00437839)
(0 0 0.00423789)
(0 0 0.00409706)
(0 0 0.00395592)
(0 0 0.00381448)
(0 0 0.00367276)
(0 0 0.00353076)
(0 0 0.00338851)
(0 0 0.00324602)
(0 0 0.0031033)
(0 0 0.00296035)
(0 0 0.0028172)
(0 0 0.00267386)
(0 0 0.00253033)
(0 0 0.00238663)
(0 0 0.00224277)
(0 0 0.00209876)
(0 0 0.0019546)
(0 0 0.00181033)
(0 0 0.00166593)
(0 0 0.00152142)
(0 0 0.00137682)
(0 0 0.00123212)
(0 0 0.00108735)
(0 0 0.000942511)
(0 0 0.00079761)
(0 0 0.000652659)
(0 0 0.000507666)
(0 0 0.000362641)
(0 0 0.000217594)
(0 0 7.25327e-05)
(0 0 9.40485e-05)
(0 0 0.00028214)
(0 0 0.000470212)
(0 0 0.000658254)
(0 0 0.000846254)
(0 0 0.0010342)
(0 0 0.00122207)
(0 0 0.00140987)
(0 0 0.00159757)
(0 0 0.00178517)
(0 0 0.00197265)
(0 0 0.00215999)
(0 0 0.00234719)
(0 0 0.00253423)
(0 0 0.00272109)
(0 0 0.00290776)
(0 0 0.00309423)
(0 0 0.00328048)
(0 0 0.00346649)
(0 0 0.00365225)
(0 0 0.00383774)
(0 0 0.00402295)
(0 0 0.00420785)
(0 0 0.00439243)
(0 0 0.00457667)
(0 0 0.00476055)
(0 0 0.00494405)
(0 0 0.00512716)
(0 0 0.00530984)
(0 0 0.00549208)
(0 0 0.00567386)
(0 0 0.00585515)
(0 0 0.00603593)
(0 0 0.00621618)
(0 0 0.00639587)
(0 0 0.00657498)
(0 0 0.00675349)
(0 0 0.00693135)
(0 0 0.00710856)
(0 0 0.00728507)
(0 0 0.00746087)
(0 0 0.00763592)
(0 0 0.0078102)
(0 0 0.00798367)
(0 0 0.0081563)
(0 0 0.00832807)
(0 0 0.00849893)
(0 0 0.00866887)
(0 0 0.00883783)
(0 0 0.0090058)
(0 0 0.00917273)
(0 0 0.0093386)
(0 0 0.00950336)
(0 0 0.00966698)
(0 0 0.00982943)
(0 0 0.00999067)
(0 0 0.0101507)
(0 0 0.0103094)
(0 0 0.0104667)
(0 0 0.0106228)
(0 0 0.0107774)
(0 0 0.0109306)
(0 0 0.0110823)
(0 0 0.0112325)
(0 0 0.0113811)
(0 0 0.0115281)
(0 0 0.0116735)
(0 0 0.0118173)
(0 0 0.0119593)
(0 0 0.0120996)
(0 0 0.0122381)
(0 0 0.0123748)
(0 0 0.0125096)
(0 0 0.0126425)
(0 0 0.0127734)
(0 0 0.0129024)
(0 0 0.0130294)
(0 0 0.0131543)
(0 0 0.0132772)
(0 0 0.0133979)
(0 0 0.0135164)
(0 0 0.0136328)
(0 0 0.0137469)
(0 0 0.0138588)
(0 0 0.0139684)
(0 0 0.0140756)
(0 0 0.0141805)
(0 0 0.014283)
(0 0 0.0143831)
(0 0 0.0144808)
(0 0 0.0145759)
(0 0 0.0146686)
(0 0 0.0147588)
(0 0 0.0148464)
(0 0 0.0149314)
(0 0 0.0150138)
(0 0 0.0150936)
(0 0 0.0151708)
(0 0 0.0152453)
(0 0 0.0153171)
(0 0 0.0153863)
(0 0 0.0154527)
(0 0 0.0155164)
(0 0 0.0155774)
(0 0 0.0156356)
(0 0 0.015691)
(0 0 0.0157437)
(0 0 0.0157935)
(0 0 0.0158406)
(0 0 0.0158848)
(0 0 0.0159263)
(0 0 0.0159649)
(0 0 0.0160007)
(0 0 0.0160337)
(0 0 0.0160638)
(0 0 0.0160911)
(0 0 0.0161156)
(0 0 0.0161373)
(0 0 0.0161561)
(0 0 0.0161721)
(0 0 0.0161852)
(0 0 0.0161955)
(0 0 0.0162031)
(0 0 0.0162078)
(0 0 0.0162096)
(0 0 0.0162087)
(0 0 0.016205)
(0 0 0.0161985)
(0 0 0.0161893)
(0 0 0.0161773)
(0 0 0.0161625)
(0 0 0.016145)
(0 0 0.0161247)
(0 0 0.0161017)
(0 0 0.016076)
(0 0 0.0160477)
(0 0 0.0160166)
(0 0 0.0159829)
(0 0 0.0159466)
(0 0 0.0159076)
(0 0 0.015866)
(0 0 0.0158218)
(0 0 0.015775)
(0 0 0.0157257)
(0 0 0.0156738)
(0 0 0.0156194)
(0 0 0.0155625)
(0 0 0.0155031)
(0 0 0.0154413)
(0 0 0.015377)
(0 0 0.0153103)
(0 0 0.0152412)
(0 0 0.0151697)
(0 0 0.0150959)
(0 0 0.0150197)
(0 0 0.0149412)
(0 0 0.0148604)
(0 0 0.0147774)
(0 0 0.0146922)
(0 0 0.0146047)
(0 0 0.014515)
(0 0 0.0144232)
(0 0 0.0143293)
(0 0 0.0142332)
(0 0 0.0141351)
(0 0 0.0140349)
(0 0 0.0139326)
(0 0 0.0138284)
(0 0 0.0137222)
(0 0 0.013614)
(0 0 0.013504)
(0 0 0.013392)
(0 0 0.0132782)
(0 0 0.0131626)
(0 0 0.0130451)
(0 0 0.0129259)
(0 0 0.0128049)
(0 0 0.0126822)
(0 0 0.0125579)
(0 0 0.0124318)
(0 0 0.0123042)
(0 0 0.0121749)
(0 0 0.0120441)
(0 0 0.0119118)
(0 0 0.011778)
(0 0 0.0116426)
(0 0 0.0115059)
(0 0 0.0113677)
(0 0 0.0112281)
(0 0 0.0110872)
(0 0 0.010945)
(0 0 0.0108014)
(0 0 0.0106567)
(0 0 0.0105106)
(0 0 0.0103634)
(0 0 0.010215)
(0 0 0.0100654)
(0 0 0.00991478)
(0 0 0.00976302)
(0 0 0.00961021)
(0 0 0.00945637)
(0 0 0.00930153)
(0 0 0.00914572)
(0 0 0.00898895)
(0 0 0.00883127)
(0 0 0.0086727)
(0 0 0.00851326)
(0 0 0.00835298)
(0 0 0.00819189)
(0 0 0.00803001)
(0 0 0.00786736)
(0 0 0.00770398)
(0 0 0.00753989)
(0 0 0.0073751)
(0 0 0.00720965)
(0 0 0.00704356)
(0 0 0.00687685)
(0 0 0.00670954)
(0 0 0.00654165)
(0 0 0.00637321)
(0 0 0.00620423)
(0 0 0.00603475)
(0 0 0.00586477)
(0 0 0.00569431)
(0 0 0.00552341)
(0 0 0.00535206)
(0 0 0.00518031)
(0 0 0.00500815)
(0 0 0.00483562)
(0 0 0.00466272)
(0 0 0.00448947)
(0 0 0.0043159)
(0 0 0.00414201)
(0 0 0.00396783)
(0 0 0.00379336)
(0 0 0.00361863)
(0 0 0.00344364)
(0 0 0.00326842)
(0 0 0.00309297)
(0 0 0.00291732)
(0 0 0.00274146)
(0 0 0.00256543)
(0 0 0.00238922)
(0 0 0.00221286)
(0 0 0.00203635)
(0 0 0.00185972)
(0 0 0.00168296)
(0 0 0.00150609)
(0 0 0.00132913)
(0 0 0.00115208)
(0 0 0.00097496)
(0 0 0.000797778)
(0 0 0.000620546)
(0 0 0.000443274)
(0 0 0.000265976)
(0 0 8.86604e-05)
(0 0 0.000111163)
(0 0 0.000333481)
(0 0 0.000555778)
(0 0 0.000778039)
(0 0 0.00100025)
(0 0 0.00122239)
(0 0 0.00144446)
(0 0 0.00166643)
(0 0 0.00188829)
(0 0 0.00211003)
(0 0 0.00233163)
(0 0 0.00255307)
(0 0 0.00277433)
(0 0 0.00299541)
(0 0 0.00321628)
(0 0 0.00343693)
(0 0 0.00365734)
(0 0 0.00387749)
(0 0 0.00409736)
(0 0 0.00431693)
(0 0 0.00453619)
(0 0 0.00475511)
(0 0 0.00497368)
(0 0 0.00519186)
(0 0 0.00540964)
(0 0 0.00562701)
(0 0 0.00584392)
(0 0 0.00606036)
(0 0 0.00627631)
(0 0 0.00649174)
(0 0 0.00670662)
(0 0 0.00692093)
(0 0 0.00713464)
(0 0 0.00734772)
(0 0 0.00756014)
(0 0 0.00777188)
(0 0 0.0079829)
(0 0 0.00819317)
(0 0 0.00840266)
(0 0 0.00861133)
(0 0 0.00881916)
(0 0 0.00902611)
(0 0 0.00923215)
(0 0 0.00943723)
(0 0 0.00964133)
(0 0 0.0098444)
(0 0 0.0100464)
(0 0 0.0102473)
(0 0 0.0104471)
(0 0 0.0106457)
(0 0 0.010843)
(0 0 0.0110391)
(0 0 0.0112339)
(0 0 0.0114274)
(0 0 0.0116195)
(0 0 0.0118101)
(0 0 0.0119993)
(0 0 0.0121869)
(0 0 0.012373)
(0 0 0.0125575)
(0 0 0.0127403)
(0 0 0.0129214)
(0 0 0.0131008)
(0 0 0.0132784)
(0 0 0.0134541)
(0 0 0.013628)
(0 0 0.0138)
(0 0 0.0139699)
(0 0 0.0141379)
(0 0 0.0143038)
(0 0 0.0144675)
(0 0 0.0146291)
(0 0 0.0147885)
(0 0 0.0149457)
(0 0 0.0151006)
(0 0 0.0152531)
(0 0 0.0154032)
(0 0 0.015551)
(0 0 0.0156962)
(0 0 0.0158389)
(0 0 0.0159791)
(0 0 0.0161167)
(0 0 0.0162517)
(0 0 0.016384)
(0 0 0.0165136)
(0 0 0.0166404)
(0 0 0.0167644)
(0 0 0.0168856)
(0 0 0.017004)
(0 0 0.0171195)
(0 0 0.017232)
(0 0 0.0173416)
(0 0 0.0174482)
(0 0 0.0175518)
(0 0 0.0176523)
(0 0 0.0177498)
(0 0 0.0178442)
(0 0 0.0179354)
(0 0 0.0180235)
(0 0 0.0181085)
(0 0 0.0181902)
(0 0 0.0182687)
(0 0 0.0183441)
(0 0 0.0184161)
(0 0 0.0184849)
(0 0 0.0185505)
(0 0 0.0186127)
(0 0 0.0186717)
(0 0 0.0187273)
(0 0 0.0187796)
(0 0 0.0188286)
(0 0 0.0188743)
(0 0 0.0189166)
(0 0 0.0189556)
(0 0 0.0189912)
(0 0 0.0190235)
(0 0 0.0190524)
(0 0 0.019078)
(0 0 0.0191002)
(0 0 0.0191191)
(0 0 0.0191347)
(0 0 0.0191469)
(0 0 0.0191557)
(0 0 0.0191613)
(0 0 0.0191635)
(0 0 0.0191624)
(0 0 0.019158)
(0 0 0.0191503)
(0 0 0.0191393)
(0 0 0.0191251)
(0 0 0.0191076)
(0 0 0.0190869)
(0 0 0.0190629)
(0 0 0.0190357)
(0 0 0.0190053)
(0 0 0.0189718)
(0 0 0.018935)
(0 0 0.0188952)
(0 0 0.0188522)
(0 0 0.0188061)
(0 0 0.0187569)
(0 0 0.0187046)
(0 0 0.0186493)
(0 0 0.0185909)
(0 0 0.0185296)
(0 0 0.0184652)
(0 0 0.0183979)
(0 0 0.0183277)
(0 0 0.0182546)
(0 0 0.0181785)
(0 0 0.0180997)
(0 0 0.0180179)
(0 0 0.0179334)
(0 0 0.0178461)
(0 0 0.017756)
(0 0 0.0176632)
(0 0 0.0175677)
(0 0 0.0174695)
(0 0 0.0173687)
(0 0 0.0172653)
(0 0 0.0171592)
(0 0 0.0170507)
(0 0 0.0169396)
(0 0 0.016826)
(0 0 0.0167099)
(0 0 0.0165914)
(0 0 0.0164706)
(0 0 0.0163473)
(0 0 0.0162217)
(0 0 0.0160939)
(0 0 0.0159637)
(0 0 0.0158313)
(0 0 0.0156967)
(0 0 0.01556)
(0 0 0.0154211)
(0 0 0.0152802)
(0 0 0.0151371)
(0 0 0.0149921)
(0 0 0.014845)
(0 0 0.014696)
(0 0 0.0145451)
(0 0 0.0143923)
(0 0 0.0142376)
(0 0 0.0140811)
(0 0 0.0139229)
(0 0 0.0137629)
(0 0 0.0136012)
(0 0 0.0134378)
(0 0 0.0132728)
(0 0 0.0131062)
(0 0 0.012938)
(0 0 0.0127683)
(0 0 0.0125971)
(0 0 0.0124245)
(0 0 0.0122504)
(0 0 0.012075)
(0 0 0.0118982)
(0 0 0.01172)
(0 0 0.0115406)
(0 0 0.01136)
(0 0 0.0111781)
(0 0 0.010995)
(0 0 0.0108108)