/*--------------------------------*- C++ -*----------------------------------*\
| =========                 |                                                 |
| \\      /  F ield         | OpenFOAM: The Open Source CFD Toolbox           |
|  \\    /   O peration     | Version:  v2012                                 |
|   \\  /    A nd           | Website:  www.openfoam.com                      |
|    \\/     M anipulation  |                                                 |
\*---------------------------------------------------------------------------*/
FoamFile
{
    version     2.0;
    format      ascii;
    class       volScalarField;
    location    "1.5";
    object      W;
}
// * * * * * * * * * * * * * * * * * * * * * * * * * * * * * * * * * * * * * //

dimensions      [0 0 -1 0 0 0 0];


internalField   nonuniform List<scalar> 
65536
(
5.97043e-22
1.82086e-21
3.1532e-21
4.71332e-21
6.66137e-21
9.19576e-21
1.25591e-20
1.70537e-20
2.30653e-20
3.10917e-20
4.17796e-20
5.59686e-20
7.47467e-20
9.95194e-20
1.32096e-19
1.74799e-19
2.30596e-19
3.03269e-19
3.97617e-19
5.19712e-19
6.77204e-19
8.79698e-19
1.13921e-18
1.47072e-18
1.89281e-18
2.4285e-18
3.10613e-18
3.96051e-18
5.03421e-18
6.37909e-18
8.0581e-18
1.01473e-17
1.27384e-17
1.59411e-17
1.98868e-17
2.47316e-17
3.06605e-17
3.78916e-17
4.66815e-17
5.733e-17
7.01867e-17
8.56565e-17
1.04208e-16
1.26377e-16
1.52781e-16
1.84119e-16
2.21186e-16
2.64876e-16
3.16194e-16
3.76261e-16
4.46322e-16
5.27751e-16
6.2206e-16
7.30894e-16
8.56043e-16
9.99435e-16
1.16313e-15
1.34933e-15
1.56035e-15
1.79861e-15
2.06663e-15
2.367e-15
2.70235e-15
3.07532e-15
3.48854e-15
3.94458e-15
4.4459e-15
4.9948e-15
5.59339e-15
6.2435e-15
6.94666e-15
7.70401e-15
8.51625e-15
9.38359e-15
1.03057e-14
1.12816e-14
1.23096e-14
1.33875e-14
1.45122e-14
1.568e-14
1.68861e-14
1.81253e-14
1.93915e-14
2.06777e-14
2.19765e-14
2.32796e-14
2.45783e-14
2.58634e-14
2.71251e-14
2.83536e-14
2.95388e-14
3.06706e-14
3.1739e-14
3.27344e-14
3.36474e-14
3.44693e-14
3.5192e-14
3.58082e-14
3.63118e-14
3.66973e-14
3.69608e-14
3.70994e-14
3.71116e-14
3.6997e-14
3.67568e-14
3.63935e-14
3.59108e-14
3.53137e-14
3.46086e-14
3.38026e-14
3.29043e-14
3.19228e-14
3.08681e-14
2.97511e-14
2.85827e-14
2.73745e-14
2.61382e-14
2.48856e-14
2.36285e-14
2.23784e-14
2.11465e-14
1.99436e-14
1.87801e-14
1.76658e-14
1.66097e-14
1.56204e-14
1.47055e-14
1.3872e-14
1.31259e-14
1.24727e-14
1.1917e-14
1.14624e-14
1.1112e-14
1.08679e-14
1.07314e-14
1.07032e-14
1.0783e-14
1.09698e-14
1.12617e-14
1.16562e-14
1.21498e-14
1.27382e-14
1.34164e-14
1.41785e-14
1.50177e-14
1.59266e-14
1.68968e-14
1.79192e-14
1.8984e-14
2.00809e-14
2.11988e-14
2.23262e-14
2.34511e-14
2.45616e-14
2.56453e-14
2.66899e-14
2.76835e-14
2.86141e-14
2.94708e-14
3.02428e-14
3.09206e-14
3.14954e-14
3.19596e-14
3.23071e-14
3.25329e-14
3.26335e-14
3.26072e-14
3.24534e-14
3.21735e-14
3.17701e-14
3.12476e-14
3.06115e-14
2.98687e-14
2.90273e-14
2.80964e-14
2.70858e-14
2.60061e-14
2.48684e-14
2.36839e-14
2.24639e-14
2.12199e-14
1.99627e-14
1.8703e-14
1.74507e-14
1.62152e-14
1.50049e-14
1.38274e-14
1.26895e-14
1.15968e-14
1.0554e-14
9.56484e-15
8.63214e-15
7.75773e-15
6.94261e-15
6.18699e-15
5.49036e-15
4.8516e-15
4.26901e-15
3.74046e-15
3.26344e-15
2.83515e-15
2.45258e-15
2.11259e-15
1.81196e-15
1.54746e-15
1.31592e-15
1.11422e-15
9.39394e-16
7.88593e-16
6.59153e-16
5.48587e-16
4.54599e-16
3.75088e-16
3.08148e-16
2.5206e-16
2.05289e-16
1.66473e-16
1.34411e-16
1.08054e-16
8.64884e-17
6.89265e-17
5.4692e-17
4.32087e-17
3.3988e-17
2.66188e-17
2.07566e-17
1.61151e-17
1.2457e-17
9.58731e-18
7.34659e-18
5.60504e-18
4.25771e-18
3.22015e-18
2.42483e-18
1.81798e-18
1.35706e-18
1.00859e-18
7.4633e-19
5.49861e-19
4.03346e-19
2.94583e-19
2.14212e-19
1.5509e-19
1.11797e-19
8.0238e-20
5.73374e-20
4.07945e-20
2.88978e-20
2.03797e-20
1.43047e-20
9.98344e-21
6.90486e-21
4.68491e-21
3.02857e-21
1.7078e-21
5.53294e-22
1.92643e-21
5.87552e-21
1.01753e-20
1.52104e-20
2.14968e-20
2.96745e-20
4.05257e-20
5.50258e-20
7.44178e-20
1.00308e-19
1.3478e-19
1.80541e-19
2.41099e-19
3.20983e-19
4.26026e-19
5.6371e-19
7.43601e-19
9.77885e-19
1.28203e-18
1.67559e-18
2.18321e-18
2.83584e-18
3.67217e-18
4.74046e-18
6.10058e-18
7.82661e-18
1.00098e-17
1.27624e-17
1.62212e-17
2.05534e-17
2.59614e-17
3.26903e-17
4.10349e-17
5.13488e-17
6.40543e-17
7.96539e-17
9.87426e-17
1.22023e-16
1.50319e-16
1.84596e-16
2.25977e-16
2.75766e-16
3.35467e-16
4.06809e-16
4.91768e-16
5.92598e-16
7.11848e-16
8.52396e-16
1.01747e-15
1.21067e-15
1.43599e-15
1.69786e-15
2.00111e-15
2.35105e-15
2.7534e-15
3.21436e-15
3.74055e-15
4.33901e-15
5.01717e-15
5.78281e-15
6.64399e-15
7.60901e-15
8.68629e-15
9.88432e-15
1.12115e-14
1.2676e-14
1.42857e-14
1.60481e-14
1.79697e-14
2.00564e-14
2.23131e-14
2.47435e-14
2.73496e-14
3.01321e-14
3.30898e-14
3.62197e-14
3.95163e-14
4.29723e-14
4.65778e-14
5.03205e-14
5.41856e-14
5.8156e-14
6.22119e-14
6.63313e-14
7.04899e-14
7.46615e-14
7.88179e-14
8.29295e-14
8.69653e-14
9.08935e-14
9.4682e-14
9.82984e-14
1.01711e-13
1.04888e-13
1.07801e-13
1.10421e-13
1.12722e-13
1.14682e-13
1.16281e-13
1.17501e-13
1.1833e-13
1.18759e-13
1.18783e-13
1.18401e-13
1.17617e-13
1.1644e-13
1.14881e-13
1.12956e-13
1.10686e-13
1.08094e-13
1.05207e-13
1.02056e-13
9.86708e-14
9.50871e-14
9.13403e-14
8.74672e-14
8.35054e-14
7.94924e-14
7.54658e-14
7.14625e-14
6.75183e-14
6.36677e-14
5.99438e-14
5.63776e-14
5.29981e-14
4.98323e-14
4.69045e-14
4.42367e-14
4.18486e-14
3.9757e-14
3.79764e-14
3.65185e-14
3.53927e-14
3.46057e-14
3.41617e-14
3.40624e-14
3.43069e-14
3.48917e-14
3.58111e-14
3.70564e-14
3.86167e-14
4.04782e-14
4.26248e-14
4.50376e-14
4.7695e-14
5.05732e-14
5.36455e-14
5.68832e-14
6.02551e-14
6.3728e-14
6.72669e-14
7.08354e-14
7.43956e-14
7.79091e-14
8.1337e-14
8.46405e-14
8.77813e-14
9.07223e-14
9.3428e-14
9.58651e-14
9.8003e-14
9.98142e-14
1.01275e-13
1.02365e-13
1.0307e-13
1.03378e-13
1.03285e-13
1.02787e-13
1.01891e-13
1.00603e-13
9.89392e-14
9.69158e-14
9.45552e-14
9.1883e-14
8.8928e-14
8.57216e-14
8.22973e-14
7.86899e-14
7.49352e-14
7.10693e-14
6.71278e-14
6.31455e-14
5.91559e-14
5.51906e-14
5.12789e-14
4.74476e-14
4.37209e-14
4.01198e-14
3.66623e-14
3.33631e-14
3.02341e-14
2.72839e-14
2.45184e-14
2.19407e-14
1.95514e-14
1.73489e-14
1.53295e-14
1.34878e-14
1.18172e-14
1.03095e-14
8.95595e-15
7.747e-15
6.67268e-15
5.72281e-15
4.88718e-15
4.1557e-15
3.51856e-15
2.96632e-15
2.49002e-15
2.0812e-15
1.73202e-15
1.43521e-15
1.18414e-15
9.72767e-16
7.95673e-16
6.48006e-16
5.25459e-16
4.24242e-16
3.41038e-16
2.72963e-16
2.17529e-16
1.72599e-16
1.36355e-16
1.07254e-16
8.39964e-17
6.54962e-17
5.08484e-17
3.93047e-17
3.02494e-17
2.31789e-17
1.76838e-17
1.34326e-17
1.0159e-17
7.64968e-18
5.73509e-18
4.28096e-18
3.1816e-18
2.35425e-18
1.73446e-18
1.27228e-18
9.29186e-19
6.75661e-19
4.8917e-19
3.52612e-19
2.5307e-19
1.80839e-19
1.28661e-19
9.11387e-20
6.42729e-20
4.51132e-20
3.14844e-20
2.17752e-20
1.4774e-20
9.55033e-21
5.3852e-21
1.74468e-21
3.70492e-21
1.13006e-20
1.95722e-20
2.92584e-20
4.13505e-20
5.70777e-20
7.79435e-20
1.05822e-19
1.43101e-19
1.92866e-19
2.59121e-19
3.47065e-19
4.63432e-19
6.1692e-19
8.18727e-19
1.08322e-18
1.42875e-18
1.87871e-18
2.46278e-18
3.21849e-18
4.19311e-18
5.44601e-18
7.05142e-18
9.10185e-18
1.17121e-17
1.50243e-17
1.92134e-17
2.44942e-17
3.11293e-17
3.94388e-17
4.98108e-17
6.27145e-17
7.87147e-17
9.84887e-17
1.22845e-16
1.52746e-16
1.89329e-16
2.33941e-16
2.88157e-16
3.53825e-16
4.33093e-16
5.28454e-16
6.42783e-16
7.79387e-16
9.42043e-16
1.13506e-15
1.3633e-15
1.63226e-15
1.94811e-15
2.31772e-15
2.74873e-15
3.24955e-15
3.82944e-15
4.49847e-15
5.2676e-15
6.1486e-15
7.15409e-15
8.29748e-15
9.59291e-15
1.10552e-14
1.26996e-14
1.45419e-14
1.65981e-14
1.88843e-14
2.14164e-14
2.421e-14
2.72799e-14
3.064e-14
3.43029e-14
3.82797e-14
4.25794e-14
4.72086e-14
5.21713e-14
5.74685e-14
6.30977e-14
6.90526e-14
7.53231e-14
8.18947e-14
8.87482e-14
9.58602e-14
1.03202e-13
1.10741e-13
1.1844e-13
1.26256e-13
1.34143e-13
1.42051e-13
1.49926e-13
1.57712e-13
1.65351e-13
1.72781e-13
1.79941e-13
1.86771e-13
1.9321e-13
1.99199e-13
2.04683e-13
2.09607e-13
2.13925e-13
2.17592e-13
2.2057e-13
2.2283e-13
2.24347e-13
2.25104e-13
2.25092e-13
2.24312e-13
2.22771e-13
2.20484e-13
2.17475e-13
2.13776e-13
2.09425e-13
2.04468e-13
1.98955e-13
1.92943e-13
1.86494e-13
1.79672e-13
1.72545e-13
1.65183e-13
1.57657e-13
1.50039e-13
1.42398e-13
1.34805e-13
1.27327e-13
1.2003e-13
1.12975e-13
1.0622e-13
9.98204e-14
9.3826e-14
8.82826e-14
8.32312e-14
7.87081e-14
7.47447e-14
7.13677e-14
6.85987e-14
6.64548e-14
6.49479e-14
6.40855e-14
6.38701e-14
6.42996e-14
6.53671e-14
6.7061e-14
6.93649e-14
7.22575e-14
7.5713e-14
7.97003e-14
8.41839e-14
8.91232e-14
9.44731e-14
1.00184e-13
1.06201e-13
1.12466e-13
1.18917e-13
1.25489e-13
1.32113e-13
1.3872e-13
1.45236e-13
1.51591e-13
1.57711e-13
1.63526e-13
1.68966e-13
1.73966e-13
1.78464e-13
1.82404e-13
1.85734e-13
1.88412e-13
1.904e-13
1.9167e-13
1.92203e-13
1.91988e-13
1.91025e-13
1.8932e-13
1.8689e-13
1.83762e-13
1.79968e-13
1.7555e-13
1.70556e-13
1.6504e-13
1.59059e-13
1.52677e-13
1.45958e-13
1.38968e-13
1.31775e-13
1.24445e-13
1.17042e-13
1.09629e-13
1.02263e-13
9.4999e-14
8.7887e-14
8.09711e-14
7.42902e-14
6.78773e-14
6.17598e-14
5.59592e-14
5.04915e-14
4.53671e-14
4.05918e-14
3.61665e-14
3.20878e-14
2.83491e-14
2.494e-14
2.18481e-14
1.90583e-14
1.65541e-14
1.43178e-14
1.23309e-14
1.05744e-14
9.02932e-15
7.67705e-15
6.49935e-15
5.47872e-15
4.59855e-15
3.84318e-15
3.19808e-15
2.6498e-15
2.18605e-15
1.79569e-15
1.46866e-15
1.196e-15
9.69742e-16
7.82886e-16
6.29297e-16
5.03647e-16
4.01337e-16
3.18423e-16
2.51541e-16
1.97844e-16
1.54933e-16
1.20802e-16
9.37807e-17
7.24866e-17
5.57838e-17
4.27429e-17
3.26081e-17
2.4768e-17
1.8731e-17
1.41038e-17
1.05735e-17
7.89226e-18
5.8653e-18
4.33993e-18
3.19728e-18
2.34522e-18
1.71274e-18
1.24539e-18
9.01624e-19
6.49908e-19
4.66428e-19
3.33292e-19
2.37122e-19
1.67965e-19
1.1845e-19
8.31387e-20
5.80214e-20
4.0128e-20
2.72254e-20
1.75989e-20
9.92334e-21
3.21489e-21
6.37202e-21
1.94369e-20
3.36662e-20
5.03289e-20
7.1128e-20
9.81751e-20
1.34054e-19
1.81983e-19
2.46068e-19
3.31606e-19
4.45476e-19
5.96603e-19
7.96553e-19
1.06026e-18
1.40694e-18
1.86125e-18
2.4547e-18
3.22742e-18
4.23032e-18
5.52778e-18
7.20091e-18
9.3515e-18
1.21068e-17
1.56255e-17
2.01044e-17
2.57869e-17
3.2973e-17
4.20306e-17
5.34098e-17
6.76585e-17
8.54416e-17
1.07562e-16
1.34988e-16
1.68877e-16
2.10613e-16
2.61842e-16
3.24512e-16
4.00922e-16
4.9377e-16
6.0621e-16
7.41917e-16
9.05147e-16
1.10081e-15
1.33456e-15
1.61283e-15
1.94298e-15
2.33332e-15
2.79322e-15
3.33318e-15
3.96493e-15
4.70145e-15
5.55711e-15
6.54764e-15
7.69021e-15
9.00341e-15
1.05073e-14
1.22233e-14
1.41741e-14
1.63838e-14
1.88775e-14
2.16811e-14
2.48212e-14
2.8325e-14
3.22196e-14
3.65319e-14
4.1288e-14
4.6513e-14
5.22301e-14
5.84605e-14
6.52224e-14
7.25309e-14
8.03968e-14
8.88263e-14
9.78206e-14
1.07375e-13
1.17478e-13
1.28112e-13
1.39252e-13
1.50864e-13
1.62909e-13
1.75338e-13
1.88093e-13
2.01111e-13
2.14321e-13
2.27642e-13
2.4099e-13
2.54273e-13
2.67396e-13
2.8026e-13
2.92762e-13
3.04799e-13
3.16267e-13
3.27065e-13
3.37093e-13
3.46258e-13
3.54471e-13
3.61651e-13
3.67725e-13
3.72632e-13
3.7632e-13
3.7875e-13
3.79895e-13
3.79742e-13
3.78291e-13
3.75558e-13
3.71569e-13
3.66366e-13
3.60003e-13
3.52546e-13
3.44073e-13
3.34671e-13
3.24437e-13
3.13474e-13
3.01893e-13
2.89807e-13
2.77336e-13
2.64597e-13
2.51713e-13
2.388e-13
2.25977e-13
2.13355e-13
2.01045e-13
1.89149e-13
1.77765e-13
1.66982e-13
1.56885e-13
1.4755e-13
1.39042e-13
1.31423e-13
1.24744e-13
1.19048e-13
1.1437e-13
1.10737e-13
1.08169e-13
1.06675e-13
1.0626e-13
1.06918e-13
1.08637e-13
1.11397e-13
1.15168e-13
1.19914e-13
1.25592e-13
1.32148e-13
1.39524e-13
1.47651e-13
1.56452e-13
1.65846e-13
1.75741e-13
1.86041e-13
1.96643e-13
2.07437e-13
2.18312e-13
2.2915e-13
2.39834e-13
2.50243e-13
2.6026e-13
2.69767e-13
2.78651e-13
2.86804e-13
2.94126e-13
3.00523e-13
3.05914e-13
3.10227e-13
3.13403e-13
3.15397e-13
3.16178e-13
3.1573e-13
3.14051e-13
3.11156e-13
3.07073e-13
3.01846e-13
2.9553e-13
2.88193e-13
2.79916e-13
2.70788e-13
2.60904e-13
2.50367e-13
2.39285e-13
2.27766e-13
2.15921e-13
2.03858e-13
1.91683e-13
1.79497e-13
1.67396e-13
1.55468e-13
1.43795e-13
1.32449e-13
1.21493e-13
1.1098e-13
1.00956e-13
9.1454e-14
8.25006e-14
7.41123e-14
6.62978e-14
5.90581e-14
5.23877e-14
4.62748e-14
4.07025e-14
3.56499e-14
3.10922e-14
2.70021e-14
2.33504e-14
2.01066e-14
1.72397e-14
1.47185e-14
1.25123e-14
1.05912e-14
8.92676e-15
7.49159e-15
6.26016e-15
5.20866e-15
4.31513e-15
3.55949e-15
2.92352e-15
2.39081e-15
1.94673e-15
1.57829e-15
1.27404e-15
1.02399e-15
8.19456e-16
6.52933e-16
5.17993e-16
4.09158e-16
3.21788e-16
2.51976e-16
1.96452e-16
1.52498e-16
1.17863e-16
9.06985e-17
6.94911e-17
5.30109e-17
4.02631e-17
3.04477e-17
2.2925e-17
1.71858e-17
1.28273e-17
9.53246e-18
7.05313e-18
5.19595e-18
3.81113e-18
2.78323e-18
2.02372e-18
1.46507e-18
1.05603e-18
7.57881e-19
5.41544e-19
3.85278e-19
2.72908e-19
1.92454e-19
1.3508e-19
9.42705e-20
6.51982e-20
4.4235e-20
2.85946e-20
1.61238e-20
5.22376e-21
1.05862e-20
3.22931e-20
5.59368e-20
8.36238e-20
1.1818e-19
1.6311e-19
2.22701e-19
3.02299e-19
4.08713e-19
5.50736e-19
7.39778e-19
9.90648e-19
1.32253e-18
1.76018e-18
2.33548e-18
3.0893e-18
4.07388e-18
5.35574e-18
7.01926e-18
9.17112e-18
1.19457e-17
1.55116e-17
2.00797e-17
2.59127e-17
3.33365e-17
4.27541e-17
5.46619e-17
6.96691e-17
8.85203e-17
1.12122e-16
1.41574e-16
1.78205e-16
2.23613e-16
2.79714e-16
3.48795e-16
4.33576e-16
5.37275e-16
6.63688e-16
8.17269e-16
1.00323e-15
1.22762e-15
1.49748e-15
1.82091e-15
2.2072e-15
2.667e-15
3.21241e-15
3.85711e-15
4.61653e-15
5.50798e-15
6.55073e-15
7.76616e-15
9.17785e-15
1.08117e-14
1.26958e-14
1.48607e-14
1.73394e-14
2.01669e-14
2.33806e-14
2.70196e-14
3.11251e-14
3.57395e-14
4.09062e-14
4.66695e-14
5.30736e-14
6.01621e-14
6.79775e-14
7.65604e-14
8.59483e-14
9.61753e-14
1.07271e-13
1.19258e-13
1.32154e-13
1.45969e-13
1.60703e-13
1.76347e-13
1.92882e-13
2.10277e-13
2.28491e-13
2.47467e-13
2.6714e-13
2.87427e-13
3.08235e-13
3.29459e-13
3.50979e-13
3.72667e-13
3.94381e-13
4.15974e-13
4.37287e-13
4.58159e-13
4.78422e-13
4.97908e-13
5.1645e-13
5.33881e-13
5.50041e-13
5.64778e-13
5.77949e-13
5.89424e-13
5.99087e-13
6.06838e-13
6.12596e-13
6.16301e-13
6.1791e-13
6.17406e-13
6.14791e-13
6.10092e-13
6.03356e-13
5.94654e-13
5.84075e-13
5.71731e-13
5.57747e-13
5.4227e-13
5.25456e-13
5.07475e-13
4.88508e-13
4.68742e-13
4.48367e-13
4.27578e-13
4.0657e-13
3.85536e-13
3.64663e-13
3.44133e-13
3.24123e-13
3.04798e-13
2.86314e-13
2.68815e-13
2.52434e-13
2.37291e-13
2.23494e-13
2.11136e-13
2.00298e-13
1.91048e-13
1.8344e-13
1.77514e-13
1.73299e-13
1.70811e-13
1.70051e-13
1.7101e-13
1.73666e-13
1.77982e-13
1.83912e-13
1.91396e-13
2.00361e-13
2.10721e-13
2.22379e-13
2.35225e-13
2.49137e-13
2.63981e-13
2.79612e-13
2.95875e-13
3.12605e-13
3.2963e-13
3.46768e-13
3.63837e-13
3.80648e-13
3.97011e-13
4.12739e-13
4.27648e-13
4.4156e-13
4.54304e-13
4.65723e-13
4.75672e-13
4.84021e-13
4.90661e-13
4.955e-13
4.98468e-13
4.99519e-13
4.9863e-13
4.958e-13
4.91054e-13
4.8444e-13
4.76027e-13
4.65904e-13
4.54183e-13
4.4099e-13
4.26465e-13
4.10763e-13
3.94045e-13
3.76482e-13
3.58245e-13
3.39508e-13
3.20441e-13
3.01211e-13
2.81977e-13
2.62889e-13
2.44086e-13
2.25694e-13
2.07827e-13
1.90583e-13
1.74045e-13
1.58282e-13
1.43347e-13
1.2928e-13
1.16106e-13
1.03838e-13
9.24765e-14
8.20121e-14
7.24257e-14
6.36901e-14
5.57715e-14
4.86308e-14
4.22247e-14
3.65068e-14
3.14291e-14
2.69425e-14
2.29979e-14
1.95471e-14
1.6543e-14
1.39408e-14
1.16975e-14
9.77313e-15
8.13028e-15
6.73453e-15
5.5544e-15
4.56134e-15
3.72969e-15
3.03652e-15
2.4615e-15
1.98675e-15
1.59664e-15
1.27757e-15
1.01784e-15
8.07405e-16
6.37699e-16
5.0148e-16
3.92648e-16
3.061e-16
2.37594e-16
1.83618e-16
1.41289e-16
1.08245e-16
8.25685e-17
6.2709e-17
4.74192e-17
3.57014e-17
2.67623e-17
1.99742e-17
1.48431e-17
1.09821e-17
8.09007e-18
5.93374e-18
4.33324e-18
3.15068e-18
2.28089e-18
1.64405e-18
1.17987e-18
8.43068e-19
5.99792e-19
4.24855e-19
2.99608e-19
2.1029e-19
1.4676e-19
1.01503e-19
6.88691e-20
4.45213e-20
2.51061e-20
8.13429e-21
1.7362e-20
5.29645e-20
9.17465e-20
1.3716e-19
1.93833e-19
2.67511e-19
3.65218e-19
4.95711e-19
6.7015e-19
9.02936e-19
1.21276e-18
1.62387e-18
2.16768e-18
2.88473e-18
3.8272e-18
5.06201e-18
6.67464e-18
8.77394e-18
1.1498e-17
1.50213e-17
1.95637e-17
2.5401e-17
3.28779e-17
4.24239e-17
5.45719e-17
6.99805e-17
8.94611e-17
1.14009e-16
1.4484e-16
1.83436e-16
2.31591e-16
2.91475e-16
3.65698e-16
4.57386e-16
5.7027e-16
7.08787e-16
8.78185e-16
1.08465e-15
1.33545e-15
1.63907e-15
2.00538e-15
2.44582e-15
2.97359e-15
3.60382e-15
4.35383e-15
5.24329e-15
6.29446e-15
7.53243e-15
8.98528e-15
1.06843e-14
1.26643e-14
1.49634e-14
1.76236e-14
2.06905e-14
2.42137e-14
2.82464e-14
3.28453e-14
3.80708e-14
4.39862e-14
5.06578e-14
5.81541e-14
6.65451e-14
7.59018e-14
8.62953e-14
9.77957e-14
1.10471e-13
1.24386e-13
1.396e-13
1.56167e-13
1.74134e-13
1.93537e-13
2.14403e-13
2.36744e-13
2.60561e-13
2.85837e-13
3.1254e-13
3.40618e-13
3.7e-13
4.00597e-13
4.32296e-13
4.64967e-13
4.98456e-13
5.3259e-13
5.67177e-13
6.02006e-13
6.3685e-13
6.71468e-13
7.05607e-13
7.39004e-13
7.7139e-13
8.02496e-13
8.32051e-13
8.5979e-13
8.85458e-13
9.0881e-13
9.29621e-13
9.47684e-13
9.62815e-13
9.74858e-13
9.83687e-13
9.89208e-13
9.91359e-13
9.90114e-13
9.85484e-13
9.77515e-13
9.66287e-13
9.51919e-13
9.34558e-13
9.14385e-13
8.91608e-13
8.66462e-13
8.39202e-13
8.10103e-13
7.79455e-13
7.47558e-13
7.1472e-13
6.81252e-13
6.47464e-13
6.13665e-13
5.80153e-13
5.47219e-13
5.15141e-13
4.8418e-13
4.54584e-13
4.26579e-13
4.00374e-13
3.76156e-13
3.54094e-13
3.34332e-13
3.16995e-13
3.02186e-13
2.89988e-13
2.80461e-13
2.73647e-13
2.69564e-13
2.68214e-13
2.69578e-13
2.73614e-13
2.80265e-13
2.89452e-13
3.01076e-13
3.15021e-13
3.31148e-13
3.49302e-13
3.69306e-13
3.90967e-13
4.14072e-13
4.38393e-13
4.63684e-13
4.89687e-13
5.16129e-13
5.42728e-13
5.69197e-13
5.9524e-13
6.20564e-13
6.44875e-13
6.67888e-13
6.89326e-13
7.08926e-13
7.26445e-13
7.41658e-13
7.54369e-13
7.64407e-13
7.71635e-13
7.75948e-13
7.77276e-13
7.75588e-13
7.70886e-13
7.63213e-13
7.52645e-13
7.39294e-13
7.23302e-13
7.04844e-13
6.84118e-13
6.61345e-13
6.36766e-13
6.10634e-13
5.83213e-13
5.5477e-13
5.25574e-13
4.95891e-13
4.65977e-13
4.36079e-13
4.06429e-13
3.7724e-13
3.48706e-13
3.21002e-13
2.94279e-13
2.68663e-13
2.44259e-13
2.21149e-13
1.99391e-13
1.79023e-13
1.60064e-13
1.42513e-13
1.26354e-13
1.11556e-13
9.80767e-14
8.58622e-14
7.48513e-14
6.49762e-14
5.61649e-14
4.83424e-14
4.14326e-14
3.53592e-14
3.00476e-14
2.54248e-14
2.14214e-14
1.79711e-14
1.5012e-14
1.24863e-14
1.03411e-14
8.52757e-15
7.00186e-15
5.72438e-15
4.65982e-15
3.77688e-15
3.04803e-15
2.44921e-15
1.95954e-15
1.56098e-15
1.23811e-15
9.77775e-16
7.68834e-16
6.01922e-16
4.69204e-16
3.64163e-16
2.81412e-16
2.16521e-16
1.6587e-16
1.26516e-16
9.60807e-17
7.26499e-17
5.46945e-17
4.09979e-17
3.05977e-17
2.27365e-17
1.68217e-17
1.23915e-17
9.08842e-18
6.63686e-18
4.82554e-18
3.49334e-18
2.51794e-18
1.80701e-18
1.29118e-18
9.18599e-19
6.5068e-19
4.58863e-19
3.22074e-19
2.24778e-19
1.55467e-19
1.0549e-19
6.8201e-20
3.84632e-20
1.24629e-20
2.82868e-20
8.62943e-20
1.49486e-19
2.23481e-19
3.15814e-19
4.35833e-19
5.94976e-19
8.07497e-19
1.09156e-18
1.47059e-18
1.97502e-18
2.64428e-18
3.52948e-18
4.69656e-18
6.2304e-18
8.23978e-18
1.08637e-17
1.42792e-17
1.87105e-17
2.44415e-17
3.18293e-17
4.13219e-17
5.34796e-17
6.89998e-17
8.87479e-17
1.13794e-16
1.45454e-16
1.85344e-16
2.35439e-16
2.9814e-16
3.76361e-16
4.7362e-16
5.94148e-16
7.43015e-16
9.2627e-16
1.1511e-15
1.42601e-15
1.76102e-15
2.16789e-15
2.66037e-15
3.25443e-15
3.96858e-15
4.82416e-15
5.84566e-15
7.06104e-15
8.50211e-15
1.02048e-14
1.22097e-14
1.4562e-14
1.73123e-14
2.05165e-14
2.42364e-14
2.85394e-14
3.34991e-14
3.91951e-14
4.5713e-14
5.31441e-14
6.15851e-14
7.11379e-14
8.19085e-14
9.40067e-14
1.07545e-13
1.22636e-13
1.39393e-13
1.57929e-13
1.7835e-13
2.00761e-13
2.25255e-13
2.51917e-13
2.80819e-13
3.12019e-13
3.45556e-13
3.81448e-13
4.19694e-13
4.60263e-13
5.03101e-13
5.48121e-13
5.95208e-13
6.44213e-13
6.94955e-13
7.47219e-13
8.00757e-13
8.55289e-13
9.10505e-13
9.66065e-13
1.0216e-12
1.07673e-12
1.13105e-12
1.18412e-12
1.23554e-12
1.28485e-12
1.33164e-12
1.37548e-12
1.41597e-12
1.45272e-12
1.48536e-12
1.51359e-12
1.5371e-12
1.55566e-12
1.56907e-12
1.57719e-12
1.57992e-12
1.57724e-12
1.56916e-12
1.55577e-12
1.5372e-12
1.51365e-12
1.48536e-12
1.45262e-12
1.41577e-12
1.3752e-12
1.3313e-12
1.28452e-12
1.23533e-12
1.18421e-12
1.13164e-12
1.07812e-12
1.02414e-12
9.70196e-13
9.16755e-13
8.64277e-13
8.13198e-13
7.6393e-13
7.16861e-13
6.72345e-13
6.30707e-13
5.92239e-13
5.57199e-13
5.25812e-13
4.98268e-13
4.74723e-13
4.55302e-13
4.40093e-13
4.29155e-13
4.22512e-13
4.2016e-13
4.2206e-13
4.28146e-13
4.38318e-13
4.52449e-13
4.70378e-13
4.91917e-13
5.16847e-13
5.44918e-13
5.75853e-13
6.09344e-13
6.45058e-13
6.82636e-13
7.21692e-13
7.61822e-13
8.02603e-13
8.43594e-13
8.84349e-13
9.24409e-13
9.6332e-13
1.00063e-12
1.03589e-12
1.06869e-12
1.09861e-12
1.12529e-12
1.14837e-12
1.16757e-12
1.18262e-12
1.19331e-12
1.19949e-12
1.20106e-12
1.19797e-12
1.19024e-12
1.17793e-12
1.16117e-12
1.14013e-12
1.11504e-12
1.08617e-12
1.05384e-12
1.01838e-12
9.80172e-13
9.39607e-13
8.97091e-13
8.53039e-13
8.07864e-13
7.61975e-13
7.15768e-13
6.69619e-13
6.23883e-13
5.78889e-13
5.34932e-13
4.92278e-13
4.51156e-13
4.11759e-13
3.74246e-13
3.38738e-13
3.05323e-13
2.74057e-13
2.44966e-13
2.18047e-13
1.93272e-13
1.70593e-13
1.49942e-13
1.31236e-13
1.14378e-13
9.92651e-14
8.57843e-14
7.382e-14
6.32547e-14
5.39711e-14
4.58541e-14
3.87918e-14
3.26772e-14
2.74088e-14
2.28915e-14
1.90369e-14
1.57635e-14
1.29969e-14
1.06699e-14
8.72184e-15
7.09879e-15
5.7529e-15
4.6421e-15
3.72962e-15
2.98358e-15
2.37646e-15
1.8847e-15
1.48825e-15
1.1701e-15
9.15986e-16
7.13954e-16
5.54072e-16
4.28131e-16
3.29383e-16
2.52312e-16
1.92437e-16
1.46134e-16
1.1049e-16
8.31783e-17
6.23457e-17
4.6528e-17
3.45728e-17
2.55779e-17
1.88411e-17
1.38184e-17
1.00908e-17
7.33668e-18
5.31114e-18
3.82815e-18
2.74728e-18
1.96304e-18
1.39659e-18
9.89264e-19
6.97642e-19
4.8968e-19
3.4176e-19
2.36387e-19
1.60408e-19
1.03717e-19
5.84996e-20
1.89567e-20
4.58601e-20
1.39909e-19
2.42368e-19
3.62341e-19
5.12031e-19
7.06581e-19
9.64517e-19
1.30893e-18
1.76923e-18
2.38338e-18
3.20061e-18
4.2848e-18
5.71865e-18
7.60892e-18
1.00929e-17
1.33468e-17
1.75954e-17
2.31249e-17
3.02985e-17
3.95749e-17
5.15317e-17
6.68934e-17
8.65656e-17
1.11676e-16
1.43622e-16
1.84134e-16
2.35338e-16
2.99844e-16
3.80841e-16
4.82208e-16
6.08648e-16
7.65839e-16
9.6061e-16
1.20114e-15
1.49719e-15
1.86034e-15
2.30432e-15
2.84526e-15
3.50214e-15
4.29708e-15
5.25582e-15
6.40816e-15
7.78845e-15
9.43609e-15
1.13961e-14
1.37195e-14
1.64643e-14
1.96954e-14
2.34856e-14
2.79161e-14
3.30767e-14
3.90662e-14
4.5993e-14
5.3975e-14
6.31394e-14
7.36234e-14
8.5573e-14
9.91428e-14
1.14495e-13
1.318e-13
1.51232e-13
1.72969e-13
1.97191e-13
2.2408e-13
2.53812e-13
2.86557e-13
3.22478e-13
3.61724e-13
4.04426e-13
4.50699e-13
5.00629e-13
5.54276e-13
6.11666e-13
6.7279e-13
7.37597e-13
8.05993e-13
8.77838e-13
9.5294e-13
1.03106e-12
1.1119e-12
1.19511e-12
1.2803e-12
1.36701e-12
1.45475e-12
1.54296e-12
1.63107e-12
1.71845e-12
1.80446e-12
1.88842e-12
1.96966e-12
2.04748e-12
2.12121e-12
2.19017e-12
2.25373e-12
2.31128e-12
2.36225e-12
2.40614e-12
2.4425e-12
2.47094e-12
2.49118e-12
2.50299e-12
2.50624e-12
2.50088e-12
2.48698e-12
2.46465e-12
2.43415e-12
2.39577e-12
2.34992e-12
2.29707e-12
2.23777e-12
2.17262e-12
2.10229e-12
2.02747e-12
1.9489e-12
1.86735e-12
1.78359e-12
1.69842e-12
1.6126e-12
1.5269e-12
1.44208e-12
1.35885e-12
1.2779e-12
1.19987e-12
1.12536e-12
1.05492e-12
9.8907e-13
9.28248e-13
8.72855e-13
8.23234e-13
7.79676e-13
7.42416e-13
7.11639e-13
6.87475e-13
6.70005e-13
6.59259e-13
6.55218e-13
6.57814e-13
6.66934e-13
6.82414e-13
7.04044e-13
7.31569e-13
7.64686e-13
8.03047e-13
8.46257e-13
8.93878e-13
9.45428e-13
1.00038e-12
1.05818e-12
1.11823e-12
1.17988e-12
1.2425e-12
1.30539e-12
1.36786e-12
1.42921e-12
1.48873e-12
1.54573e-12
1.59953e-12
1.64947e-12
1.69495e-12
1.73538e-12
1.77025e-12
1.7991e-12
1.82155e-12
1.83728e-12
1.84605e-12
1.84773e-12
1.84225e-12
1.82963e-12
1.81e-12
1.78355e-12
1.75057e-12
1.7114e-12
1.66647e-12
1.61626e-12
1.5613e-12
1.50218e-12
1.43949e-12
1.37387e-12
1.30594e-12
1.23636e-12
1.16573e-12
1.09467e-12
1.02375e-12
9.53513e-13
8.8446e-13
8.17041e-13
7.51658e-13
6.88657e-13
6.2833e-13
5.70916e-13
5.16597e-13
4.65504e-13
4.17718e-13
3.73275e-13
3.32166e-13
2.94347e-13
2.59741e-13
2.2824e-13
1.99716e-13
1.74021e-13
1.50991e-13
1.30456e-13
1.12236e-13
9.61518e-14
8.20228e-14
6.96725e-14
5.893e-14
4.96315e-14
4.16219e-14
3.47558e-14
2.88982e-14
2.3925e-14
1.97228e-14
1.6189e-14
1.32313e-14
1.07675e-14
8.72481e-15
7.03922e-15
5.65481e-15
4.5231e-15
3.60228e-15
2.85655e-15
2.25541e-15
1.77309e-15
1.38788e-15
1.08167e-15
8.39368e-16
6.48526e-16
4.98906e-16
3.82142e-16
2.91437e-16
2.213e-16
1.67313e-16
1.25948e-16
9.43992e-17
7.04463e-17
5.23432e-17
3.87236e-17
2.85236e-17
2.09193e-17
1.52757e-17
1.11063e-17
8.03995e-18
5.79496e-18
4.15874e-18
2.97159e-18
2.11412e-18
1.49753e-18
1.05609e-18
7.41291e-19
5.17379e-19
3.57874e-19
2.42863e-19
1.57047e-19
8.85902e-20
2.87101e-20
7.40182e-20
2.25819e-19
3.91203e-19
5.84851e-19
8.2644e-19
1.14039e-18
1.55658e-18
2.11224e-18
2.85479e-18
3.84543e-18
5.16352e-18
6.91201e-18
9.22419e-18
1.22721e-17
1.6277e-17
2.15224e-17
2.83708e-17
3.72831e-17
4.88439e-17
6.3792e-17
8.30572e-17
1.07806e-16
1.39495e-16
1.7994e-16
2.31389e-16
2.96625e-16
3.79069e-16
4.82917e-16
6.13297e-16
7.76444e-16
9.79918e-16
1.23284e-15
1.54619e-15
1.9331e-15
2.40924e-15
2.99322e-15
3.70705e-15
4.57666e-15
5.63245e-15
6.90993e-15
8.45037e-15
1.03015e-14
1.25185e-14
1.51644e-14
1.83112e-14
2.20408e-14
2.64458e-14
3.16302e-14
3.77105e-14
4.48163e-14
5.30911e-14
6.26929e-14
7.37944e-14
8.65839e-14
1.01264e-13
1.18054e-13
1.37186e-13
1.58905e-13
1.83471e-13
2.11153e-13
2.42227e-13
2.76978e-13
3.1569e-13
3.58648e-13
4.06132e-13
4.58411e-13
5.15739e-13
5.7835e-13
6.4645e-13
7.20214e-13
7.99776e-13
8.85224e-13
9.76595e-13
1.07387e-12
1.17695e-12
1.28569e-12
1.39986e-12
1.51914e-12
1.64314e-12
1.77139e-12
1.90332e-12
2.03831e-12
2.17561e-12
2.31443e-12
2.45391e-12
2.59311e-12
2.73105e-12
2.86668e-12
2.99896e-12
3.1268e-12
3.2491e-12
3.3648e-12
3.47284e-12
3.57222e-12
3.66197e-12
3.74123e-12
3.80919e-12
3.86516e-12
3.90856e-12
3.93893e-12
3.95593e-12
3.95938e-12
3.94923e-12
3.92557e-12
3.88864e-12
3.83882e-12
3.77662e-12
3.7027e-12
3.6178e-12
3.52281e-12
3.4187e-12
3.30651e-12
3.18736e-12
3.06242e-12
2.9329e-12
2.80004e-12
2.66505e-12
2.52918e-12
2.39363e-12
2.25956e-12
2.1281e-12
2.00033e-12
1.87724e-12
1.75978e-12
1.64879e-12
1.54506e-12
1.44928e-12
1.36206e-12
1.28393e-12
1.21532e-12
1.15659e-12
1.10802e-12
1.06978e-12
1.042e-12
1.0247e-12
1.01784e-12
1.02131e-12
1.0349e-12
1.05835e-12
1.09132e-12
1.13341e-12
1.18413e-12
1.24292e-12
1.30918e-12
1.38221e-12
1.46125e-12
1.5455e-12
1.63407e-12
1.72603e-12
1.82041e-12
1.9162e-12
2.01233e-12
2.10774e-12
2.20134e-12
2.29206e-12
2.37883e-12
2.4606e-12
2.53639e-12
2.60525e-12
2.66632e-12
2.71879e-12
2.762e-12
2.79534e-12
2.81836e-12
2.8307e-12
2.83217e-12
2.82267e-12
2.80226e-12
2.77114e-12
2.72962e-12
2.67813e-12
2.61723e-12
2.54758e-12
2.46992e-12
2.38508e-12
2.29395e-12
2.19744e-12
2.09654e-12
1.9922e-12
1.88541e-12
1.7771e-12
1.66822e-12
1.55964e-12
1.45217e-12
1.34658e-12
1.24354e-12
1.14368e-12
1.0475e-12
9.55459e-13
8.679e-13
7.851e-13
7.07252e-13
6.34475e-13
5.66816e-13
5.04259e-13
4.46731e-13
3.94108e-13
3.46226e-13
3.02884e-13
2.63852e-13
2.28882e-13
1.97708e-13
1.70058e-13
1.45656e-13
1.24227e-13
1.05501e-13
8.92164e-14
7.51247e-14
6.29892e-14
5.25888e-14
4.37182e-14
3.61885e-14
2.98275e-14
2.44793e-14
2.0004e-14
1.62767e-14
1.3187e-14
1.06379e-14
8.54465e-15
6.83375e-15
5.44188e-15
4.31483e-15
3.40645e-15
2.6777e-15
2.09577e-15
1.63322e-15
1.26726e-15
9.79051e-16
7.53118e-16
5.76817e-16
4.39876e-16
3.33994e-16
2.52501e-16
1.90065e-16
1.42449e-16
1.06299e-16
7.89797e-17
5.84273e-17
4.3036e-17
3.15619e-17
2.30467e-17
1.6756e-17
1.21296e-17
8.7426e-18
6.27408e-18
4.48307e-18
3.18946e-18
2.25927e-18
1.5933e-18
1.11839e-18
7.8059e-19
5.39961e-19
3.66458e-19
2.36994e-19
1.33704e-19
4.33343e-20
1.18943e-19
3.62886e-19
6.2867e-19
9.39867e-19
1.32807e-18
1.83248e-18
2.50106e-18
3.39361e-18
4.58624e-18
6.17718e-18
8.29379e-18
1.11013e-17
1.48135e-17
1.97065e-17
2.61351e-17
3.45543e-17
4.55451e-17
5.98467e-17
7.83967e-17
1.02379e-16
1.33284e-16
1.72982e-16
2.23807e-16
2.88666e-16
3.71164e-16
4.75755e-16
6.0792e-16
7.74377e-16
9.83334e-16
1.24477e-15
1.57079e-15
1.97599e-15
2.47791e-15
3.09758e-15
3.86004e-15
4.79505e-15
5.93779e-15
7.32968e-15
9.0193e-15
1.10634e-14
1.35277e-14
1.64887e-14
2.00341e-14
2.42646e-14
2.92952e-14
3.52563e-14
4.22953e-14
5.05781e-14
6.02902e-14
7.16378e-14
8.48492e-14
1.00176e-13
1.17892e-13
1.38297e-13
1.61713e-13
1.88486e-13
2.18986e-13
2.53602e-13
2.92744e-13
3.36837e-13
3.8632e-13
4.41639e-13
5.03245e-13
5.71587e-13
6.47104e-13
7.30218e-13
8.21327e-13
9.20795e-13
1.02894e-12
1.14604e-12
1.27229e-12
1.40783e-12
1.5527e-12
1.70685e-12
1.87014e-12
2.04232e-12
2.22299e-12
2.41165e-12
2.60769e-12
2.81032e-12
3.01865e-12
3.23166e-12
3.44819e-12
3.66697e-12
3.88662e-12
4.10566e-12
4.32252e-12
4.53558e-12
4.74314e-12
4.9435e-12
5.13496e-12
5.31582e-12
5.48442e-12
5.63919e-12
5.77864e-12
5.90139e-12
6.00622e-12
6.09203e-12
6.15795e-12
6.20326e-12
6.22748e-12
6.23033e-12
6.21175e-12
6.17194e-12
6.11128e-12
6.0304e-12
5.93014e-12
5.81154e-12
5.67581e-12
5.52435e-12
5.3587e-12
5.18053e-12
4.99161e-12
4.79377e-12
4.58894e-12
4.37904e-12
4.16601e-12
3.95177e-12
3.73821e-12
3.52715e-12
3.32036e-12
3.11949e-12
2.9261e-12
2.74163e-12
2.56742e-12
2.40467e-12
2.25442e-12
2.11763e-12
1.99508e-12
1.88743e-12
1.79522e-12
1.71885e-12
1.65858e-12
1.61458e-12
1.58687e-12
1.57535e-12
1.57982e-12
1.59995e-12
1.63533e-12
1.68539e-12
1.7495e-12
1.82688e-12
1.91667e-12
2.0179e-12
2.12948e-12
2.25025e-12
2.37893e-12
2.51417e-12
2.65453e-12