/*--------------------------------*- C++ -*----------------------------------*\
| =========                 |                                                 |
| \\      /  F ield         | OpenFOAM: The Open Source CFD Toolbox           |
|  \\    /   O peration     | Version:  v2012                                 |
|   \\  /    A nd           | Website:  www.openfoam.com                      |
|    \\/     M anipulation  |                                                 |
\*---------------------------------------------------------------------------*/
FoamFile
{
    version     2.0;
    format      ascii;
    class       volScalarField;
    location    "12.8";
    object      Psi_z;
}
// * * * * * * * * * * * * * * * * * * * * * * * * * * * * * * * * * * * * * //

dimensions      [0 2 -1 0 0 0 0];


internalField   nonuniform List<scalar> 
65536
(
8.84492e-06
2.65353e-05
4.42269e-05
6.19208e-05
7.96178e-05
9.73187e-05
0.000115024
0.000132736
0.000150453
0.000168178
0.000185911
0.000203653
0.000221404
0.000239165
0.000256937
0.00027472
0.000292515
0.000310322
0.000328142
0.000345974
0.00036382
0.00038168
0.000399553
0.000417441
0.000435342
0.000453256
0.000471185
0.000489127
0.000507082
0.000525049
0.000543029
0.00056102
0.000579022
0.000597034
0.000615055
0.000633084
0.00065112
0.000669161
0.000687206
0.000705253
0.000723301
0.000741348
0.000759391
0.000777429
0.000795459
0.000813479
0.000831486
0.000849478
0.000867451
0.000885402
0.000903328
0.000921226
0.000939091
0.000956921
0.00097471
0.000992456
0.00101015
0.0010278
0.00104538
0.00106291
0.00108036
0.00109774
0.00111505
0.00113227
0.0011494
0.00116643
0.00118337
0.00120019
0.0012169
0.00123349
0.00124995
0.00126628
0.00128246
0.0012985
0.00131437
0.00133009
0.00134563
0.001361
0.00137617
0.00139116
0.00140594
0.00142051
0.00143486
0.00144899
0.00146288
0.00147653
0.00148994
0.00150308
0.00151596
0.00152856
0.00154088
0.00155291
0.00156465
0.00157608
0.0015872
0.001598
0.00160848
0.00161862
0.00162842
0.00163788
0.00164698
0.00165572
0.0016641
0.00167211
0.00167974
0.00168699
0.00169386
0.00170033
0.00170642
0.0017121
0.00171738
0.00172226
0.00172672
0.00173078
0.00173443
0.00173766
0.00174047
0.00174287
0.00174485
0.00174641
0.00174755
0.00174827
0.00174858
0.00174847
0.00174795
0.00174701
0.00174566
0.0017439
0.00174174
0.00173917
0.0017362
0.00173284
0.00172909
0.00172494
0.00172042
0.00171551
0.00171024
0.00170459
0.00169858
0.00169221
0.00168549
0.00167843
0.00167103
0.00166329
0.00165523
0.00164685
0.00163815
0.00162915
0.00161985
0.00161026
0.00160038
0.00159022
0.0015798
0.00156911
0.00155816
0.00154697
0.00153553
0.00152386
0.00151196
0.00149984
0.00148751
0.00147497
0.00146224
0.00144931
0.0014362
0.0014229
0.00140944
0.00139581
0.00138203
0.00136809
0.00135401
0.00133978
0.00132543
0.00131094
0.00129634
0.00128162
0.00126679
0.00125185
0.00123682
0.00122169
0.00120647
0.00119117
0.00117578
0.00116033
0.0011448
0.00112921
0.00111355
0.00109784
0.00108207
0.00106626
0.00105039
0.00103449
0.00101854
0.00100256
0.000986549
0.000970505
0.000954435
0.00093834
0.000922224
0.000906089
0.000889937
0.000873771
0.000857593
0.000841404
0.000825207
0.000809005
0.000792797
0.000776587
0.000760375
0.000744163
0.000727953
0.000711745
0.000695542
0.000679343
0.00066315
0.000646964
0.000630785
0.000614615
0.000598454
0.000582303
0.000566162
0.000550032
0.000533913
0.000517805
0.000501709
0.000485625
0.000469554
0.000453494
0.000437447
0.000421412
0.000405389
0.000389379
0.00037338
0.000357393
0.000341418
0.000325455
0.000309502
0.00029356
0.000277629
0.000261707
0.000245796
0.000229893
0.000213999
0.000198113
0.000182235
0.000166364
0.0001505
0.000134641
0.000118788
0.00010294
8.7096e-05
7.12554e-05
5.54179e-05
3.95826e-05
2.37489e-05
7.91619e-06
2.65344e-05
7.96046e-05
0.000132679
0.00018576
0.00023885
0.000291952
0.000345068
0.000398201
0.000451354
0.000504528
0.000557726
0.00061095
0.000664203
0.000717486
0.000770801
0.000824149
0.000877533
0.000930954
0.000984413
0.00103791
0.00109145
0.00114503
0.00119865
0.00125231
0.00130601
0.00135976
0.00141354
0.00146737
0.00152123
0.00157514
0.00162908
0.00168305
0.00173706
0.0017911
0.00184516
0.00189925
0.00195336
0.00200748
0.00206162
0.00211576
0.00216991
0.00222405
0.00227818
0.0023323
0.00238639
0.00244045
0.00249448
0.00254845
0.00260238
0.00265623
0.00271001
0.00276371
0.00281731
0.0028708
0.00292418
0.00297742
0.00303051
0.00308345
0.00313621
0.00318879
0.00324116
0.00329331
0.00334523
0.0033969
0.0034483
0.00349941
0.00355021
0.00360069
0.00365083
0.0037006
0.00374999
0.00379897
0.00384753
0.00389564
0.00394329
0.00399044
0.00403708
0.00408318
0.00412872
0.00417368
0.00421803
0.00426175
0.00430482
0.0043472
0.00438889
0.00442985
0.00447006
0.0045095
0.00454814
0.00458596
0.00462294
0.00465904
0.00469426
0.00472856
0.00476193
0.00479434
0.00482577
0.0048562
0.00488561
0.00491398
0.00494129
0.00496753
0.00499267
0.0050167
0.00503961
0.00506136
0.00508197
0.0051014
0.00511965
0.0051367
0.00515254
0.00516718
0.00518058
0.00519276
0.00520369
0.00521338
0.00522183
0.00522902
0.00523496
0.00523964
0.00524307
0.00524524
0.00524616
0.00524583
0.00524425
0.00524144
0.00523739
0.00523211
0.00522562
0.00521791
0.00520901
0.00519892
0.00518765
0.00517522
0.00516163
0.00514691
0.00513107
0.00511413
0.00509609
0.00507699
0.00505682
0.00503563
0.00501341
0.00499019
0.004966
0.00494085
0.00491475
0.00488774
0.00485984
0.00483105
0.00480141
0.00477094
0.00473965
0.00470758
0.00467473
0.00464114
0.00460682
0.0045718
0.0045361
0.00449974
0.00446273
0.00442511
0.0043869
0.00434811
0.00430876
0.00426888
0.00422848
0.0041876
0.00414623
0.00410441
0.00406215
0.00401948
0.0039764
0.00393295
0.00388913
0.00384496
0.00380046
0.00375565
0.00371054
0.00366515
0.00361949
0.00357357
0.00352742
0.00348105
0.00343446
0.00338768
0.00334071
0.00329356
0.00324626
0.00319881
0.00315122
0.0031035
0.00305566
0.00300772
0.00295967
0.00291154
0.00286333
0.00281504
0.00276669
0.00271828
0.00266982
0.00262132
0.00257278
0.00252422
0.00247563
0.00242702
0.00237839
0.00232976
0.00228112
0.00223249
0.00218385
0.00213523
0.00208662
0.00203802
0.00198944
0.00194088
0.00189235
0.00184383
0.00179535
0.0017469
0.00169847
0.00165008
0.00160173
0.0015534
0.00150511
0.00145686
0.00140865
0.00136047
0.00131233
0.00126422
0.00121615
0.00116812
0.00112013
0.00107217
0.00102424
0.000976352
0.000928494
0.000880669
0.000832876
0.000785112
0.000737377
0.00068967
0.000641988
0.000594332
0.000546698
0.000499085
0.000451493
0.000403918
0.00035636
0.000308816
0.000261284
0.000213763
0.000166251
0.000118746
7.12457e-05
2.37482e-05
4.42226e-05
0.00013267
0.000221124
0.000309589
0.00039807
0.00048657
0.000575095
0.000663647
0.000752232
0.000840853
0.000929515
0.00101822
0.00110697
0.00119577
0.00128463
0.00137354
0.00146251
0.00155155
0.00164064
0.00172981
0.00181904
0.00190833
0.0019977
0.00208714
0.00217664
0.00226622
0.00235586
0.00244557
0.00253535
0.00262519
0.00271509
0.00280505
0.00289506
0.00298513
0.00307524
0.00316539
0.00325557
0.00334579
0.00343602
0.00352627
0.00361651
0.00370676
0.00379699
0.00388719
0.00397735
0.00406746
0.00415751
0.00424749
0.00433737
0.00442714
0.00451679
0.00460629
0.00469564
0.00478481
0.00487378
0.00496253
0.00505103
0.00513928
0.00522723
0.00531487
0.00540218
0.00548912
0.00557567
0.0056618
0.00574748
0.00583269
0.00591738
0.00600154
0.00608512
0.0061681
0.00625043
0.0063321
0.00641305
0.00649326
0.00657269
0.0066513
0.00672906
0.00680592
0.00688184
0.0069568
0.00703075
0.00710364
0.00717545
0.00724612
0.00731563
0.00738392
0.00745097
0.00751672
0.00758115
0.00764421
0.00770586
0.00776606
0.00782478
0.00788197
0.00793761
0.00799165
0.00804406
0.0080948
0.00814384
0.00819115
0.00823669
0.00828044
0.00832236
0.00836242
0.00840061
0.00843689
0.00847125
0.00850365
0.00853407
0.0085625
0.00858893
0.00861332
0.00863567
0.00865597
0.0086742
0.00869036
0.00870444
0.00871643
0.00872632
0.00873413
0.00873984
0.00874345
0.00874498
0.00874443
0.0087418
0.0087371
0.00873034
0.00872154
0.0087107
0.00869785
0.008683
0.00866617
0.00864737
0.00862664
0.00860398
0.00857943
0.00855302
0.00852476
0.00849468
0.00846281
0.00842919
0.00839384
0.00835679
0.00831808
0.00827773
0.00823579
0.00819228
0.00814724
0.0081007
0.0080527
0.00800328
0.00795246
0.0079003
0.00784681
0.00779205
0.00773604
0.00767882
0.00762043
0.0075609
0.00750027
0.00743858
0.00737585
0.00731214
0.00724746
0.00718186
0.00711537
0.00704802
0.00697985
0.00691089
0.00684117
0.00677072
0.00669957
0.00662776
0.00655532
0.00648226
0.00640863
0.00633445
0.00625974
0.00618454
0.00610887
0.00603276
0.00595622
0.00587928
0.00580198
0.00572432
0.00564633
0.00556804
0.00548945
0.0054106
0.0053315
0.00525217
0.00517263
0.00509289
0.00501297
0.00493289
0.00485265
0.00477229
0.0046918
0.00461121
0.00453052
0.00444975
0.00436891
0.00428801
0.00420706
0.00412606
0.00404504
0.003964
0.00388294
0.00380187
0.0037208
0.00363975
0.0035587
0.00347768
0.00339668
0.00331571
0.00323478
0.00315388
0.00307303
0.00299222
0.00291146
0.00283075
0.0027501
0.0026695
0.00258896
0.00250848
0.00242806
0.0023477
0.00226741
0.00218717
0.00210699
0.00202688
0.00194683
0.00186684
0.00178691
0.00170703
0.00162722
0.00154745
0.00146775
0.00138809
0.00130849
0.00122893
0.00114942
0.00106995
0.000990527
0.000911139
0.000831787
0.000752468
0.000673179
0.000593917
0.000514679
0.000435461
0.000356262
0.000277078
0.000197905
0.000118739
3.95793e-05
6.19085e-05
0.000185729
0.000309558
0.000433403
0.00055727
0.000681165
0.000805093
0.000929061
0.00105307
0.00117714
0.00130126
0.00142544
0.00154969
0.00167401
0.0017984
0.00192288
0.00204743
0.00217208
0.00229681
0.00242164
0.00254656
0.00267157
0.00279668
0.00292189
0.0030472
0.00317261
0.00329811
0.00342371
0.0035494
0.00367518
0.00380104
0.00392699
0.00405302
0.00417912
0.00430528
0.0044315
0.00455777
0.00468407
0.00481041
0.00493677
0.00506313
0.00518948
0.00531582
0.00544211
0.00556836
0.00569454
0.00582063
0.00594661
0.00607246
0.00619817
0.0063237
0.00644903
0.00657415
0.00669901
0.00682359
0.00694787
0.00707182
0.00719539
0.00731856
0.0074413
0.00756356
0.00768531
0.00780652
0.00792715
0.00804714
0.00816647
0.00828509
0.00840295
0.00852001
0.00863623
0.00875155
0.00886593
0.00897932
0.00909166
0.00920291
0.00931302
0.00942193
0.00952959
0.00963594
0.00974093
0.00984451
0.00994662
0.0100472
0.0101462
0.0102436
0.0103392
0.0104332
0.0105253
0.0106155
0.0107039
0.0107902
0.0108746
0.0109568
0.0110369
0.0111149
0.0111906
0.011264
0.0113351
0.0114038
0.0114701
0.0115339
0.0115952
0.0116539
0.01171
0.0117635
0.0118144
0.0118625
0.0119079
0.0119505
0.0119903
0.0120273
0.0120615
0.0120928
0.0121213
0.0121468
0.0121694
0.0121891
0.0122059
0.0122198
0.0122307
0.0122387
0.0122438
0.0122459
0.0122451
0.0122414
0.0122348
0.0122253
0.012213
0.0121978
0.0121798
0.012159
0.0121354
0.012109
0.01208
0.0120482
0.0120138
0.0119768
0.0119372
0.0118951
0.0118504
0.0118033
0.0117538
0.0117018
0.0116476
0.0115911
0.0115323
0.0114713
0.0114082
0.011343
0.0112758
0.0112065
0.0111353
0.0110623
0.0109873
0.0109106
0.0108321
0.010752
0.0106702
0.0105868
0.0105019
0.0104154
0.0103276
0.0102383
0.0101477
0.0100559
0.00996272
0.00986839
0.0097729
0.00967631
0.00957866
0.00947998
0.00938034
0.00927976
0.00917829
0.00907598
0.00897286
0.00886896
0.00876434
0.00865902
0.00855305
0.00844645
0.00833926
0.00823152
0.00812326
0.00801451
0.0079053
0.00779565
0.00768561
0.00757519
0.00746443
0.00735334
0.00724195
0.0071303
0.00701839
0.00690625
0.00679391
0.00668137
0.00656868
0.00645583
0.00634285
0.00622975
0.00611656
0.00600328
0.00588994
0.00577653
0.00566309
0.00554961
0.00543612
0.00532262
0.00520912
0.00509563
0.00498216
0.00486872
0.00475531
0.00464195
0.00452863
0.00441537
0.00430217
0.00418904
0.00407597
0.00396298
0.00385006
0.00373722
0.00362447
0.00351179
0.0033992
0.0032867
0.00317428
0.00306195
0.00294971
0.00283755
0.00272548
0.00261349
0.00250159
0.00238977
0.00227802
0.00216636
0.00205477
0.00194326
0.00183182
0.00172044
0.00160913
0.00149788
0.00138668
0.00127554
0.00116446
0.00105341
0.000942412
0.00083145
0.000720521
0.000609621
0.000498747
0.000387893
0.000277055
0.000166228
5.54087e-05
7.95912e-05
0.000238778
0.000397976
0.000557195
0.000716442
0.000875725
0.00103505
0.00119443
0.00135387
0.00151337
0.00167294
0.0018326
0.00199234
0.00215217
0.0023121
0.00247213
0.00263227
0.00279252
0.00295288
0.00311337
0.00327398
0.00343471
0.00359557
0.00375655
0.00391766
0.0040789
0.00424026
0.00440175
0.00456336
0.00472508
0.00488692
0.00504886
0.0052109
0.00537304
0.00553526
0.00569756
0.00585992
0.00602233
0.00618478
0.00634726
0.00650975
0.00667223
0.00683468
0.00699709
0.00715944
0.0073217
0.00748385
0.00764586
0.00780771
0.00796937
0.00813081
0.008292
0.0084529
0.00861349
0.00877372
0.00893356
0.00909297
0.0092519
0.00941033
0.00956819
0.00972545
0.00988206
0.010038
0.0101931
0.0103475
0.010501
0.0106536
0.0108052
0.0109558
0.0111053
0.0112536
0.0114008
0.0115466
0.0116912
0.0118343
0.0119759
0.0121161
0.0122546
0.0123914
0.0125265
0.0126598
0.0127911
0.0129205
0.0130479
0.0131732
0.0132963
0.0134172
0.0135357
0.0136518
0.0137655
0.0138766
0.0139851
0.014091
0.0141941
0.0142944
0.0143918
0.0144863
0.0145778
0.0146662
0.0147515
0.0148336
0.0149125
0.014988
0.0150603
0.0151291
0.0151945
0.0152564
0.0153149
0.0153697
0.015421
0.0154686
0.0155126
0.0155528
0.0155894
0.0156223
0.0156514
0.0156768
0.0156984
0.0157162
0.0157302
0.0157405
0.015747
0.0157497
0.0157487
0.0157439
0.0157354
0.0157232
0.0157073
0.0156877
0.0156645
0.0156377
0.0156073
0.0155734
0.015536
0.0154951
0.0154508
0.0154032
0.0153522
0.0152979
0.0152405
0.0151798
0.015116
0.0150492
0.0149794
0.0149066
0.014831
0.0147525
0.0146713
0.0145874
0.0145009
0.0144117
0.0143201
0.0142261
0.0141296
0.0140309
0.0139299
0.0138268
0.0137215
0.0136142
0.013505
0.0133938
0.0132807
0.0131659
0.0130493
0.0129311
0.0128113
0.0126899
0.0125671
0.0124428
0.0123172
0.0121902
0.012062
0.0119326
0.0118021
0.0116705
0.0115379
0.0114042
0.0112696
0.0111342
0.0109978
0.0108607
0.0107229
0.0105843
0.010445
0.0103052
0.0101647
0.0100237
0.00988214
0.00974013
0.00959767
0.0094548
0.00931155
0.00916795
0.00902403
0.00887982
0.00873534
0.00859063
0.0084457
0.00830058
0.00815529
0.00800985
0.00786429
0.00771863
0.00757287
0.00742705
0.00728117
0.00713525
0.00698931
0.00684336
0.00669742
0.00655149
0.00640558
0.00625972
0.0061139
0.00596813
0.00582243
0.00567681
0.00553126
0.00538579
0.00524041
0.00509513
0.00494995
0.00480486
0.00465989
0.00451502
0.00437026
0.00422561
0.00408107
0.00393665
0.00379233
0.00364813
0.00350404
0.00336006
0.00321619
0.00307242
0.00292875
0.00278519
0.00264173
0.00249836
0.00235508
0.00221188
0.00206877
0.00192574
0.00178279
0.0016399
0.00149708
0.00135432
0.00121161
0.00106895
0.000926334
0.000783756
0.000641211
0.000498692
0.000356194
0.00021371
7.12358e-05
9.727e-05
0.000291815
0.000486375
0.000680959
0.000875578
0.00107024
0.00126496
0.00145974
0.00165459
0.00184952
0.00204455
0.00223967
0.00243489
0.00263023
0.00282569
0.00302127
0.00321699
0.00341284
0.00360884
0.00380498
0.00400128
0.00419772
0.00439432
0.00459108
0.004788
0.00498507
0.00518229
0.00537967
0.0055772
0.00577487
0.00597268
0.00617062
0.00636869
0.00656688
0.00676517
0.00696355
0.00716202
0.00736055
0.00755913
0.00775774
0.00795637
0.008155
0.00835359
0.00855214
0.00875061
0.00894897
0.0091472
0.00934527
0.00954315
0.00974079
0.00993817
0.0101352
0.010332
0.0105283
0.0107242
0.0109197
0.0111146
0.0113089
0.0115026
0.0116957
0.011888
0.0120795
0.0122702
0.0124599
0.0126487
0.0128364
0.013023
0.0132084
0.0133926
0.0135754
0.0137569
0.0139368
0.0141153
0.014292
0.0144671
0.0146404
0.0148118
0.0149812
0.0151486
0.0153139
0.0154769
0.0156376
0.0157959
0.0159518
0.016105
0.0162556
0.0164035
0.0165485
0.0166906
0.0168296
0.0169656
0.0170984
0.0172279
0.0173541
0.0174768
0.017596
0.0177116
0.0178235
0.0179317
0.0180361
0.0181365
0.018233
0.0183255
0.0184139
0.0184981
0.0185782
0.0186539
0.0187254
0.0187925
0.0188552
0.0189135
0.0189673
0.0190166
0.0190613
0.0191015
0.0191371
0.0191682
0.0191946
0.0192164
0.0192335
0.0192461
0.019254
0.0192573
0.019256
0.0192502
0.0192397
0.0192248
0.0192053
0.0191813
0.0191529
0.0191201
0.0190828
0.0190413
0.0189955
0.0189454
0.0188912
0.0188329
0.0187705
0.018704
0.0186337
0.0185594
0.0184814
0.0183996
0.0183141
0.0182251
0.0181325
0.0180365
0.0179371
0.0178344
0.0177285
0.0176194
0.0175073
0.0173923
0.0172743
0.0171535
0.0170299
0.0169037
0.0167749
0.0166437
0.01651
0.0163739
0.0162356
0.0160951
0.0159526
0.0158079
0.0156614
0.0155129
0.0153626
0.0152106
0.015057
0.0149017
0.0147449
0.0145867
0.014427
0.0142661
0.0141038
0.0139404
0.0137758
0.0136101
0.0134434
0.0132758
0.0131072
0.0129377
0.0127674
0.0125964
0.0124246
0.0122522
0.0120792
0.0119055
0.0117313
0.0115567
0.0113815
0.0112059
0.01103
0.0108537
0.010677
0.0105001
0.0103229
0.0101455
0.00996788
0.00979008
0.00961213
0.00943406
0.00925588
0.00907761
0.00889929
0.00872091
0.00854252
0.00836411
0.0081857
0.00800732
0.00782897
0.00765067
0.00747243
0.00729426
0.00711617
0.00693816
0.00676026
0.00658245
0.00640476
0.00622718
0.00604973
0.0058724
0.0056952
0.00551814
0.0053412
0.00516441
0.00498775
0.00481123
0.00463485
0.0044586
0.00428249
0.00410652
0.00393068
0.00375497
0.00357939
0.00340393
0.00322859
0.00305336
0.00287825
0.00270325
0.00252834
0.00235354
0.00217882
0.00200419
0.00182964
0.00165517
0.00148076
0.00130641
0.00113211
0.000957859
0.000783648
0.00060947
0.000435318
0.000261184
8.706e-05
0.000114944
0.000344837
0.000574748
0.000804689
0.00103467
0.0012647
0.0014948
0.00172498
0.00195523
0.00218559
0.00241605
0.00264663
0.00287733
0.00310817
0.00333915
0.00357028
0.00380157
0.00403302
0.00426465
0.00449644
0.00472842
0.00496058
0.00519292
0.00542546
0.00565817
0.00589108
0.00612417
0.00635744
0.00659089
0.00682452
0.00705831
0.00729226
0.00752637
0.00776061
0.00799498
0.00822946
0.00846405
0.00869871
0.00893344
0.00916821
0.009403
0.00963779
0.00987255
0.0101073
0.0103419
0.0105764
0.0108107
0.0110449
0.0112788
0.0115125
0.0117458
0.0119788
0.0122114
0.0124436
0.0126752
0.0129063
0.0131368
0.0133666
0.0135957
0.0138239
0.0140513
0.0142778
0.0145033
0.0147277
0.0149509
0.0151729
0.0153936
0.0156129
0.0158307
0.016047
0.0162616
0.0164745
0.0166855
0.0168947
0.0171018
0.0173067
0.0175095
0.0177099
0.0179079
0.0181034
0.0182963
0.0184865
0.0186738
0.0188582
0.0190395
0.0192177
0.0193926
0.0195642
0.0197324
0.0198969
0.0200578
0.0202149
0.0203682
0.0205175
0.0206627
0.0208038
0.0209406
0.021073
0.021201
0.0213245
0.0214434
0.0215576
0.0216671
0.0217717
0.0218714
0.0219661
0.0220557
0.0221403
0.0222197
0.0222939
0.0223629
0.0224265
0.0224848
0.0225378
0.0225853
0.0226275
0.0226642
0.0226954
0.0227211
0.0227414
0.0227563
0.0227656
0.0227695
0.022768
0.022761
0.0227486
0.0227308
0.0227077
0.0226793
0.0226457
0.0226068
0.0225627
0.0225135
0.0224592
0.0223999
0.0223357
0.0222666
0.0221927
0.0221141
0.0220308
0.0219429
0.0218505
0.0217537
0.0216525
0.0215471
0.0214375
0.0213238
0.0212062
0.0210846
0.0209593
0.0208302
0.0206975
0.0205613
0.0204217
0.0202788
0.0201326
0.0199832
0.0198308
0.0196755
0.0195173
0.0193564
0.0191927
0.0190265
0.0188578
0.0186867
0.0185133
0.0183377
0.01816
0.0179802
0.0177984
0.0176147
0.0174293
0.0172421
0.0170533
0.0168629
0.016671
0.0164777
0.0162831
0.0160871
0.01589
0.0156917
0.0154924
0.015292
0.0150906
0.0148884
0.0146853
0.0144814
0.0142768
0.0140714
0.0138655
0.013659
0.0134519
0.0132443
0.0130363
0.0128278
0.012619
0.0124098
0.0122004
0.0119906
0.0117806
0.0115705
0.0113601
0.0111496
0.010939
0.0107282
0.0105175
0.0103066
0.0100957
0.00988485
0.00967397
0.00946312
0.00925232
0.00904157
0.0088309
0.00862031
0.00840981
0.00819942
0.00798915
0.007779
0.00756899
0.00735912
0.00714939
0.00693981
0.00673038
0.00652112
0.00631201
0.00610307
0.00589429
0.00568568
0.00547723
0.00526894
0.00506082
0.00485285
0.00464504
0.00443739
0.00422989
0.00402254
0.00381533
0.00360826
0.00340132
0.0031945
0.00298781
0.00278124
0.00257477
0.0023684
0.00216213
0.00195595
0.00174984
0.00154381
0.00133784
0.00113192
0.000926053
0.000720224
0.000514424
0.000308646
0.000102881
0.000132612
0.000397842
0.000663092
0.000928377
0.00119371
0.0014591
0.00172457
0.00199013
0.00225578
0.00252155
0.00278744
0.00305347
0.00331964
0.00358597
0.00385246
0.00411913
0.00438599
0.00465303
0.00492028
0.00518773
0.00545538
0.00572325
0.00599134
0.00625964
0.00652816
0.00679691
0.00706586
0.00733504
0.00760442
0.007874
0.00814378
0.00841375
0.0086839
0.00895421
0.00922468
0.00949528
0.009766
0.0100368
0.0103077
0.0105787
0.0108496
0.0111206
0.0113916
0.0116625
0.0119333
0.0122039
0.0124744
0.0127447
0.0130147
0.0132845
0.0135539
0.0138228
0.0140913
0.0143593
0.0146268
0.0148936
0.0151597
0.015425
0.0156895
0.015953
0.0162156
0.0164771
0.0167374
0.0169966
0.0172544
0.0175107
0.0177656
0.0180189
0.0182705
0.0185202
0.0187681
0.019014
0.0192577
0.0194993
0.0197385
0.0199753
0.0202095
0.020441
0.0206698
0.0208957
0.0211185
0.0213382
0.0215546
0.0217676
0.0219771
0.022183
0.0223852
0.0225834
0.0227777
0.0229678
0.0231538
0.0233353
0.0235124
0.023685
0.0238528
0.0240158
0.0241739
0.024327
0.0244749
0.0246176
0.024755
0.024887
0.0250135
0.0251344
0.0252496
0.025359
0.0254626
0.0255604
0.0256521
0.0257379
0.0258175
0.0258911
0.0259585
0.0260196
0.0260746
0.0261232
0.0261656
0.0262017
0.0262314
0.0262548
0.0262719
0.0262827
0.0262871
0.0262853
0.0262772
0.0262628
0.0262423
0.0262155
0.0261826
0.0261436
0.0260986
0.0260476
0.0259907
0.0259279
0.0258594
0.0257851
0.0257052
0.0256197
0.0255288
0.0254325
0.0253308
0.025224
0.0251121
0.0249951
0.0248732
0.0247465
0.0246151
0.0244792
0.0243387
0.0241938
0.0240446
0.0238913
0.0237338
0.0235725
0.0234073
0.0232383
0.0230658
0.0228897
0.0227102
0.0225274
0.0223415
0.0221524
0.0219604
0.0217655
0.0215678
0.0213675
0.0211647
0.0209593
0.0207516
0.0205417
0.0203296
0.0201154
0.0198992
0.0196811
0.0194612
0.0192396
0.0190164
0.0187916
0.0185654
0.0183377
0.0181088
0.0178786
0.0176472
0.0174147
0.0171812
0.0169467
0.0167113
0.016475
0.016238
0.0160002
0.0157618
0.0155228
0.0152831
0.015043
0.0148024
0.0145613
0.0143199
0.0140781
0.013836
0.0135936
0.013351
0.0131082
0.0128653
0.0126222
0.012379
0.0121357
0.0118923
0.011649
0.0114056
0.0111622
0.0109189
0.0106756
0.0104324
0.0101893
0.00994626
0.00970335
0.00946057
0.00921792
0.00897543
0.00873308
0.0084909
0.0082489
0.00800706
0.00776541
0.00752394
0.00728266
0.00704157
0.00680067
0.00655996
0.00631944
0.00607911
0.00583898
0.00559902
0.00535925
0.00511966
0.00488025
0.00464101
0.00440193
0.00416302
0.00392426
0.00368564
0.00344717
0.00320883
0.00297062
0.00273252
0.00249454
0.00225665
0.00201886
0.00178115
0.00154351
0.00130594
0.00106842
0.000830947
0.000593508
0.000356095
0.000118697
0.000150272
0.000450825
0.000751402
0.00105202
0.00135269
0.00165343
0.00195425
0.00225518
0.00255622
0.00285739
0.00315869
0.00346016
0.00376179
0.0040636
0.0043656
0.0046678
0.00497022
0.00527285
0.00557571
0.0058788
0.00618213
0.00648571
0.00678953
0.00709361
0.00739794
0.00770252
0.00800734
0.00831242
0.00861774
0.00892329
0.00922907
0.00953507
0.00984127
0.0101477
0.0104542
0.010761
0.0110678
0.0113748
0.0116819
0.0119891
0.0122963
0.0126035
0.0129106
0.0132178
0.0135248
0.0138317
0.0141383
0.0144448
0.014751
0.0150568
0.0153623
0.0156673
0.0159718
0.0162757
0.016579
0.0168815
0.0171833
0.0174842
0.0177842
0.0180831
0.0183809
0.0186775
0.0189729
0.0192668
0.0195592
0.0198501
0.0201392
0.0204265
0.020712
0.0209954
0.0212766
0.0215556
0.0218322
0.0221063
0.0223777
0.0226464
0.0229122
0.023175
0.0234346
0.0236909
0.0239438
0.0241931
0.0244388
0.0246806
0.0249184
0.0251521
0.0253815
0.0256066
0.0258271
0.026043
0.0262541
0.0264602
0.0266613
0.0268571
0.0270477
0.0272327
0.0274122
0.027586
0.027754
0.027916
0.028072
0.0282219
0.0283655
0.0285027
0.0286335
0.0287578
0.0288754
0.0289864
0.0290906
0.0291879
0.0292784
0.0293618
0.0294383
0.0295077
0.0295701
0.0296253
0.0296734
0.0297143
0.029748
0.0297745
0.0297939
0.0298061
0.0298111
0.0298089
0.0297997
0.0297833
0.0297599
0.0297294
0.029692
0.0296477
0.0295965
0.0295385
0.0294738
0.0294025
0.0293245
0.0292401
0.0291493
0.0290522
0.0289489
0.0288394
0.028724
0.0286026
0.0284755
0.0283426
0.0282042
0.0280603
0.0279111
0.0277566
0.0275971
0.0274325
0.0272632
0.027089
0.0269103
0.0267271
0.0265395
0.0263477
0.0261518
0.025952
0.0257482
0.0255407
0.0253296
0.0251151
0.0248971
0.0246759
0.0244516
0.0242243
0.0239941
0.0237611
0.0235254
0.0232871
0.0230465
0.0228034
0.0225581
0.0223107
0.0220613
0.0218099
0.0215566
0.0213016
0.021045
0.0207868
0.020527
0.0202659
0.0200035
0.0197398
0.0194749
0.019209
0.018942
0.0186741
0.0184053
0.0181357
0.0178653
0.0175942
0.0173225
0.0170502
0.0167773
0.016504
0.0162302
0.0159561
0.0156816
0.0154068
0.0151318
0.0148565
0.0145811
0.0143055
0.0140297
0.0137539
0.0134781
0.0132022
0.0129263
0.0126504
0.0123746
0.0120988
0.0118231
0.0115476
0.0112721
0.0109968
0.0107216
0.0104465
0.0101717
0.00989701
0.00962252
0.00934823
0.00907414
0.00880025
0.00852658
0.00825312
0.00797988
0.00770685
0.00743405
0.00716147
0.0068891
0.00661695
0.00634501
0.00607328
0.00580176
0.00553044
0.00525932
0.00498838
0.00471763
0.00444705
0.00417664
0.00390639
0.0036363
0.00336635
0.00309653
0.00282684
0.00255726
0.00228779
0.00201841
0.00174912
0.0014799
0.00121074
0.000941635
0.000672568
0.000403529
0.000134508
0.000167926
0.000503786
0.000839672
0.0011756
0.0015116
0.00184767
0.00218383
0.00252012
0.00285652
0.00319308
0.00352979
0.00386668
0.00420376
0.00454104
0.00487854
0.00521626
0.00555422
0.00589243
0.0062309
0.00656963
0.00690863
0.00724792
0.00758748
0.00792732
0.00826746
0.00860787
0.00894858
0.00928956
0.00963082
0.00997235
0.0103141
0.0106562
0.0109984
0.0113409
0.0116836
0.0120265
0.0123696
0.0127128
0.0130561
0.0133995
0.0137429
0.0140863
0.0144298
0.0147732
0.0151164
0.0154596
0.0158025
0.0161452
0.0164875
0.0168296
0.0171711
0.0175122
0.0178528
0.0181927
0.0185319
0.0188703
0.0192078
0.0195444
0.0198799
0.0202143
0.0205475
0.0208793
0.0212097
0.0215385
0.0218657
0.0221911
0.0225146
0.0228361
0.0231555
0.0234726
0.0237874
0.0240996
0.0244091
0.0247158
0.0250197
0.0253204
0.0256179
0.025912
0.0262026
0.0264896
0.0267727
0.0270518
0.0273268
0.0275975
0.0278638
0.0281254
0.0283823
0.0286343
0.0288813
0.029123
0.0293593
0.0295901
0.0298153
0.0300346
0.030248
0.0304552
0.0306563
0.0308509
0.031039
0.0312205
0.0313952
0.031563
0.0317238
0.0318775
0.032024
0.0321632
0.0322949
0.0324192
0.0325358
0.0326448
0.0327461
0.0328396
0.0329252
0.0330029
0.0330727
0.0331345
0.0331883
0.0332341
0.0332718
0.0333014
0.0333231
0.0333366
0.0333422
0.0333397
0.0333292
0.0333108
0.0332845
0.0332503
0.0332083
0.0331586
0.0331011
0.0330361
0.0329636
0.0328836
0.0327962
0.0327016
0.0325998
0.0324909
0.0323751
0.0322524
0.0321231
0.0319871
0.0318446
0.0316957
0.0315406
0.0313794
0.0312122
0.0310392
0.0308605
0.0306762
0.0304865
0.0302914
0.0300913
0.0298861
0.029676
0.0294613
0.0292419
0.0290181
0.0287899
0.0285576
0.0283213
0.0280811
0.0278371
0.0275895
0.0273384
0.0270839
0.0268263
0.0265655
0.0263017
0.0260351
0.0257657
0.0254937
0.0252192
0.0249424
0.0246633
0.024382
0.0240986
0.0238133
0.0235262
0.0232373
0.0229467
0.0226546
0.022361
0.0220661
0.0217698
0.0214723
0.0211737
0.0208741
0.0205734
0.0202719
0.0199695
0.0196663
0.0193624
0.0190579
0.0187528
0.0184471
0.018141
0.0178345
0.0175275
0.0172203
0.0169128
0.016605
0.016297
0.0159889
0.0156806
0.0153723
0.0150639
0.0147554
0.014447
0.0141386
0.0138302
0.013522
0.0132138
0.0129057
0.0125978
0.01229
0.0119824
0.011675
0.0113678
0.0110608
0.0107539
0.0104474
0.010141
0.00983488
0.009529
0.00922336
0.00891797
0.00861282
0.00830793
0.00800328
0.00769887
0.00739471
0.00709079
0.00678711
0.00648366
0.00618044
0.00587743
0.00557464
0.00527206
0.00496967
0.00466748
0.00436547
0.00406362
0.00376194
0.00346042
0.00315903
0.00285777
0.00255663
0.00225559
0.00195466
0.0016538
0.00135301
0.00105228
0.000751599
0.000450947
0.000150313
0.00018557
0.000556719
0.000927898
0.00129913
0.00167042
0.00204181
0.0024133
0.00278492
0.00315669
0.00352861
0.00390072
0.00427302
0.00464553
0.00501827
0.00539125
0.00576448
0.00613798
0.00651176
0.00688583
0.00726019
0.00763486
0.00800984
0.00838514
0.00876075
0.00913669
0.00951295
0.00988953
0.0102664
0.0106436
0.0110211
0.0113989
0.011777
0.0121554
0.012534
0.0129129
0.0132919
0.0136712
0.0140506
0.0144301
0.0148098
0.0151895
0.0155692
0.015949
0.0163287
0.0167082
0.0170877
0.0174669
0.0178459
0.0182245
0.0186027
0.0189805
0.0193578
0.0197344
0.0201104
0.0204855
0.0208599
0.0212333
0.0216056
0.0219768
0.0223467
0.0227153
0.0230825
0.023448
0.0238119
0.0241739
0.024534
0.024892
0.0252478
0.0256013
0.0259523
0.0263006
0.0266462
0.0269888
0.0273284
0.0276647
0.0279976
0.028327
0.0286526
0.0289744
0.029292
0.0296055
0.0299146
0.0302191
0.0305189
0.0308137
0.0311035
0.031388
0.0316671
0.0319406
0.0322083
0.0324701
0.0327258
0.0329751
0.0332181
0.0334544
0.033684
0.0339067
0.0341223
0.0343307
0.0345317
0.0347252
0.0349112
0.0350893
0.0352596
0.0354218
0.035576
0.0357219
0.0358596
0.0359888
0.0361095
0.0362217
0.0363252
0.03642
0.0365061
0.0365833
0.0366517
0.0367113
0.0367619
0.0368036
0.0368364
0.0368603
0.0368752
0.0368813
0.0368784
0.0368667
0.0368462
0.036817
0.036779
0.0367323
0.0366771
0.0366134
0.0365412
0.0364608
0.036372
0.0362751
0.0361702
0.0360573
0.0359366
0.0358082
0.0356722
0.0355287
0.035378
0.03522
0.035055
0.0348831
0.0347045
0.0345192
0.0343275
0.0341295
0.0339253
0.033715
0.033499
0.0332772
0.0330499
0.0328173
0.0325794
0.0323364
0.0320885
0.0318358
0.0315786
0.0313169
0.0310509
0.0307807
0.0305066
0.0302285
0.0299468
0.0296615
0.0293728
0.0290808
0.0287857
0.0284876
0.0281865
0.0278827
0.0275763
0.0272674
0.0269561
0.0266426
0.0263269
0.0260091
0.0256895
0.025368
0.0250448
0.02472
0.0243937
0.0240659
0.0237368
0.0234065
0.023075
0.0227425
0.0224089
0.0220744
0.0217391
0.021403
0.0210662
0.0207288
0.0203907
0.0200522
0.0197132
0.0193738
0.019034
0.018694
0.0183537
0.0180131
0.0176724
0.0173316
0.0169907
0.0166497