/*--------------------------------*- C++ -*----------------------------------*\
| =========                 |                                                 |
| \\      /  F ield         | OpenFOAM: The Open Source CFD Toolbox           |
|  \\    /   O peration     | Version:  v2012                                 |
|   \\  /    A nd           | Website:  www.openfoam.com                      |
|    \\/     M anipulation  |                                                 |
\*---------------------------------------------------------------------------*/
FoamFile
{
    version     2.0;
    format      ascii;
    class       volScalarField;
    location    "12.8";
    object      W;
}
// * * * * * * * * * * * * * * * * * * * * * * * * * * * * * * * * * * * * * //

dimensions      [0 0 -1 0 0 0 0];


internalField   nonuniform List<scalar> 
65536
(
2.33748e-17
7.05243e-17
1.18885e-16
1.69297e-16
2.22633e-16
2.79811e-16
3.41807e-16
4.0967e-16
4.84538e-16
5.67651e-16
6.60371e-16
7.64201e-16
8.80802e-16
1.01202e-15
1.1599e-15
1.32672e-15
1.51502e-15
1.72762e-15
1.96767e-15
2.23869e-15
2.54456e-15
2.88963e-15
3.27872e-15
3.7172e-15
4.21102e-15
4.76678e-15
5.39179e-15
6.09413e-15
6.88275e-15
7.76753e-15
8.75934e-15
9.87018e-15
1.11132e-14
1.2503e-14
1.40553e-14
1.57876e-14
1.7719e-14
1.98701e-14
2.22637e-14
2.49245e-14
2.78792e-14
3.1157e-14
3.47895e-14
3.88107e-14
4.32574e-14
4.81695e-14
5.35895e-14
5.95632e-14
6.61399e-14
7.3372e-14
8.13155e-14
9.00302e-14
9.95793e-14
1.1003e-13
1.21454e-13
1.33925e-13
1.47523e-13
1.6233e-13
1.78433e-13
1.95922e-13
2.14891e-13
2.35438e-13
2.57664e-13
2.81672e-13
3.07568e-13
3.35463e-13
3.65466e-13
3.9769e-13
4.32249e-13
4.69256e-13
5.08825e-13
5.51068e-13
5.96098e-13
6.44022e-13
6.94946e-13
7.48971e-13
8.06192e-13
8.66701e-13
9.30578e-13
9.979e-13
1.06873e-12
1.14313e-12
1.22113e-12
1.30277e-12
1.38807e-12
1.47703e-12
1.56964e-12
1.66587e-12
1.76568e-12
1.86899e-12
1.97574e-12
2.08582e-12
2.1991e-12
2.31546e-12
2.43473e-12
2.55673e-12
2.68126e-12
2.8081e-12
2.93702e-12
3.06775e-12
3.20002e-12
3.33353e-12
3.46798e-12
3.60304e-12
3.73837e-12
3.87361e-12
4.00841e-12
4.14238e-12
4.27513e-12
4.40629e-12
4.53545e-12
4.66221e-12
4.78616e-12
4.9069e-12
5.02404e-12
5.13716e-12
5.24588e-12
5.3498e-12
5.44855e-12
5.54174e-12
5.62903e-12
5.71006e-12
5.7845e-12
5.85202e-12
5.91234e-12
5.96515e-12
6.01021e-12
6.04725e-12
6.07607e-12
6.09646e-12
6.10824e-12
6.11127e-12
6.10542e-12
6.09059e-12
6.06672e-12
6.03377e-12
5.99172e-12
5.94062e-12
5.88051e-12
5.81148e-12
5.73367e-12
5.64724e-12
5.55238e-12
5.44934e-12
5.33839e-12
5.21985e-12
5.09407e-12
4.96144e-12
4.82239e-12
4.67738e-12
4.52693e-12
4.37156e-12
4.21186e-12
4.04841e-12
3.88184e-12
3.71282e-12
3.542e-12
3.37006e-12
3.19772e-12
3.02566e-12
2.85459e-12
2.6852e-12
2.51818e-12
2.35417e-12
2.19382e-12
2.03774e-12
1.88648e-12
1.74059e-12
1.60052e-12
1.46672e-12
1.33954e-12
1.2193e-12
1.10625e-12
1.00057e-12
9.02375e-13
8.11733e-13
7.28639e-13
6.53027e-13
5.84778e-13
5.23715e-13
4.69614e-13
4.22202e-13
3.81166e-13
3.46154e-13
3.16782e-13
2.9264e-13
2.73293e-13
2.5829e-13
2.47165e-13
2.39444e-13
2.34649e-13
2.32304e-13
2.31936e-13
2.33087e-13
2.3531e-13
2.38184e-13
2.41309e-13
2.44321e-13
2.46888e-13
2.48721e-13
2.49575e-13
2.49251e-13
2.47603e-13
2.44531e-13
2.39991e-13
2.33986e-13
2.26566e-13
2.17824e-13
2.07889e-13
1.96922e-13
1.8511e-13
1.72653e-13
1.59762e-13
1.46649e-13
1.33519e-13
1.20565e-13
1.07963e-13
9.58655e-14
8.44014e-14
7.36715e-14
6.37498e-14
5.46833e-14
4.64937e-14
3.91802e-14
3.27222e-14
2.70827e-14
2.2212e-14
1.80509e-14
1.45346e-14
1.1595e-14
9.16379e-15
7.17453e-15
5.56417e-15
4.27436e-15
3.25224e-15
2.45082e-15
1.82909e-15
1.35186e-15
9.89413e-16
7.17056e-16
5.14561e-16
3.65602e-16
2.57186e-16
1.79115e-16
1.23494e-16
8.42868e-17
5.69443e-17
3.80781e-17
2.51972e-17
1.64927e-17
1.06663e-17
6.79562e-18
4.23083e-18
2.51459e-18
1.32142e-18
4.10744e-19
8.11829e-17
2.44938e-16
4.12906e-16
5.88004e-16
7.73267e-16
9.71887e-16
1.18726e-15
1.42302e-15
1.68314e-15
1.97193e-15
2.29412e-15
2.65494e-15
3.06016e-15
3.51621e-15
4.0302e-15
4.61007e-15
5.26463e-15
6.00372e-15
6.8383e-15
7.78055e-15
8.84404e-15
1.00439e-14
1.13969e-14
1.29216e-14
1.46389e-14
1.65716e-14
1.87452e-14
2.11878e-14
2.39305e-14
2.70077e-14
3.04571e-14
3.43204e-14
3.86435e-14
4.34767e-14
4.88752e-14
5.48994e-14
6.16153e-14
6.90951e-14
7.74174e-14
8.66679e-14
9.69394e-14
1.08333e-13
1.20957e-13
1.34931e-13
1.50381e-13
1.67446e-13
1.86271e-13
2.07015e-13
2.29849e-13
2.54952e-13
2.82517e-13
3.1275e-13
3.45868e-13
3.82102e-13
4.21695e-13
4.64904e-13
5.11997e-13
5.63257e-13
6.18978e-13
6.79468e-13
7.45045e-13
8.16039e-13
8.9279e-13
9.75647e-13
1.06497e-12
1.16112e-12
1.26446e-12
1.37538e-12
1.49424e-12
1.62143e-12
1.7573e-12
1.90223e-12
2.05659e-12
2.2207e-12
2.39492e-12
2.57955e-12
2.7749e-12
2.98124e-12
3.19881e-12
3.42784e-12
3.6685e-12
3.92093e-12
4.18525e-12
4.46151e-12
4.74971e-12
5.04983e-12
5.36176e-12
5.68536e-12
6.0204e-12
6.36663e-12
6.72371e-12
7.09123e-12
7.46874e-12
7.85569e-12
8.2515e-12
8.6555e-12
9.06696e-12
9.4851e-12
9.90905e-12
1.03379e-11
1.07707e-11
1.12064e-11
1.1644e-11
1.20822e-11
1.25201e-11
1.29563e-11
1.33897e-11
1.38189e-11
1.42428e-11
1.466e-11
1.50692e-11
1.54692e-11
1.58586e-11
1.62362e-11
1.66006e-11
1.69507e-11
1.72851e-11
1.76027e-11
1.79023e-11
1.81828e-11
1.84431e-11
1.86821e-11
1.8899e-11
1.90927e-11
1.92624e-11
1.94072e-11
1.95266e-11
1.96197e-11
1.9686e-11
1.9725e-11
1.97363e-11
1.97194e-11
1.96742e-11
1.96004e-11
1.9498e-11
1.9367e-11
1.92074e-11
1.90194e-11
1.88035e-11
1.85598e-11
1.82891e-11
1.79918e-11
1.76688e-11
1.73208e-11
1.69488e-11
1.65538e-11
1.61371e-11
1.57e-11
1.52438e-11
1.47701e-11
1.42804e-11
1.37765e-11
1.32603e-11
1.27335e-11
1.21982e-11
1.16563e-11
1.11101e-11
1.05616e-11
1.00129e-11
9.46626e-12
8.92378e-12
8.38759e-12
7.85976e-12
7.34231e-12
6.83716e-12
6.34615e-12
5.87098e-12
5.41322e-12
4.9743e-12
4.55547e-12
4.15782e-12
3.78225e-12
3.42946e-12
3.09997e-12
2.79409e-12
2.51197e-12
2.25352e-12
2.01852e-12
1.80652e-12
1.61696e-12
1.44909e-12
1.30204e-12
1.1748e-12
1.06626e-12
9.75208e-13
9.00356e-13
8.40345e-13
7.93763e-13
7.59162e-13
7.3507e-13
7.20007e-13
7.12498e-13
7.11088e-13
7.14357e-13
7.20937e-13
7.29524e-13
7.38898e-13
7.47934e-13
7.5562e-13
7.61067e-13
7.63525e-13
7.62389e-13
7.57208e-13
7.47685e-13
7.33681e-13
7.15208e-13
6.9242e-13
6.65602e-13
6.35151e-13
6.01562e-13
5.654e-13
5.27282e-13
4.87851e-13
4.47752e-13
4.07613e-13
3.68024e-13
3.29518e-13
2.92564e-13
2.5755e-13
2.24784e-13
1.94492e-13
1.66815e-13
1.41819e-13
1.195e-13
9.9794e-14
8.25881e-14
6.77293e-14
5.5037e-14
4.43124e-14
3.53476e-14
2.79341e-14
2.18688e-14
1.69591e-14
1.30271e-14
9.91133e-15
7.46854e-15
5.5736e-15
4.11916e-15
3.01463e-15
2.18469e-15
1.56767e-15
1.1138e-15
7.83481e-16
5.45629e-16
3.76179e-16
2.56741e-16
1.7345e-16
1.15981e-16
7.67454e-17
5.02322e-17
3.24857e-17
2.06967e-17
1.28852e-17
7.65822e-18
4.02441e-18
1.25095e-18
1.76717e-16
5.33179e-16
8.98831e-16
1.28003e-15
1.68339e-15
2.11588e-15
2.58489e-15
3.09838e-15
3.66498e-15
4.2941e-15
4.99607e-15
5.7823e-15
6.66541e-15
7.65939e-15
8.77979e-15
1.00439e-14
1.14711e-14
1.30827e-14
1.49027e-14
1.69577e-14
1.92774e-14
2.18947e-14
2.48463e-14
2.81729e-14
3.19198e-14
3.61369e-14
4.088e-14
4.62102e-14
5.21956e-14
5.8911e-14
6.64389e-14
7.48701e-14
8.43047e-14
9.48522e-14
1.06633e-13
1.19778e-13
1.34432e-13
1.50751e-13
1.68906e-13
1.89084e-13
2.11485e-13
2.36329e-13
2.63852e-13
2.94311e-13
3.27979e-13
3.65155e-13
4.06155e-13
4.51321e-13
5.01017e-13
5.55632e-13
6.15579e-13
6.81298e-13
7.53254e-13
8.31938e-13
9.17868e-13
1.01159e-12
1.11367e-12
1.22471e-12
1.34532e-12
1.47615e-12
1.61787e-12
1.77116e-12
1.93673e-12
2.11529e-12
2.30759e-12
2.51436e-12
2.73635e-12
2.97432e-12
3.229e-12
3.50116e-12
3.7915e-12
4.10075e-12
4.42958e-12
4.77865e-12
5.14858e-12
5.53994e-12
5.95325e-12
6.38897e-12
6.84749e-12
7.32913e-12
7.83414e-12
8.36266e-12
8.91475e-12
9.49036e-12
1.00893e-11
1.07114e-11
1.13562e-11
1.20231e-11
1.27116e-11
1.34209e-11
1.41501e-11
1.48981e-11
1.56637e-11
1.64457e-11
1.72426e-11
1.80528e-11
1.88747e-11
1.97064e-11
2.0546e-11
2.13915e-11
2.22407e-11
2.30915e-11
2.39415e-11
2.47884e-11
2.56297e-11
2.6463e-11
2.72857e-11
2.80954e-11
2.88895e-11
2.96654e-11
3.04207e-11
3.11529e-11
3.18594e-11
3.2538e-11
3.31862e-11
3.38019e-11
3.43827e-11
3.49267e-11
3.54317e-11
3.5896e-11
3.63178e-11
3.66953e-11
3.70272e-11
3.73119e-11
3.75482e-11
3.7735e-11
3.78713e-11
3.79563e-11
3.79894e-11
3.79699e-11
3.78975e-11
3.77721e-11
3.75934e-11
3.73617e-11
3.70772e-11
3.67404e-11
3.63518e-11
3.59122e-11
3.54226e-11
3.48841e-11
3.4298e-11
3.36657e-11
3.29889e-11
3.22695e-11
3.15094e-11
3.0711e-11
2.98765e-11
2.90085e-11
2.81097e-11
2.71831e-11
2.62317e-11
2.52588e-11
2.42675e-11
2.32615e-11
2.22443e-11
2.12196e-11
2.01911e-11
1.91625e-11
1.81377e-11
1.71204e-11
1.61144e-11
1.51233e-11
1.41507e-11
1.32001e-11
1.22747e-11
1.13776e-11
1.05116e-11
9.67933e-12
8.88314e-12
8.12504e-12
7.40673e-12
6.72962e-12
6.09475e-12
5.50284e-12
4.95425e-12
4.44901e-12
3.98685e-12
3.56715e-12
3.189e-12
2.85123e-12
2.55239e-12
2.29081e-12
2.06462e-12
1.87174e-12
1.70995e-12
1.57691e-12
1.47015e-12
1.38714e-12
1.32528e-12
1.28195e-12
1.25452e-12
1.24039e-12
1.23698e-12
1.2418e-12
1.25245e-12
1.26664e-12
1.28224e-12
1.2973e-12
1.31004e-12
1.31894e-12
1.32268e-12
1.32022e-12
1.31078e-12
1.29386e-12
1.26921e-12
1.23687e-12
1.19709e-12
1.15039e-12
1.09745e-12
1.03913e-12
9.76401e-13
9.10338e-13
8.4205e-13
7.72649e-13
7.03219e-13
6.34773e-13
5.68231e-13
5.04396e-13
4.43937e-13
3.87381e-13
3.35111e-13
2.87368e-13
2.44263e-13
2.05785e-13
1.71821e-13
1.42173e-13
1.16575e-13
9.47145e-14
7.62468e-14
6.08127e-14
4.80517e-14
3.76132e-14
2.9165e-14
2.24003e-14
1.70407e-14
1.28393e-14
9.58067e-15
7.07986e-15
5.18093e-15
3.75425e-15
2.6937e-15
1.91367e-15
1.34603e-15
9.37328e-16
6.46187e-16
4.40993e-16
2.97909e-16
1.99193e-16
1.31801e-16
8.62636e-17
5.57854e-17
3.55397e-17
2.21254e-17
1.31498e-17
6.91015e-18
2.14796e-18
3.51861e-16
1.06163e-15
1.78974e-15
2.54887e-15
3.35223e-15
4.21372e-15
5.14809e-15
6.17125e-15
7.3004e-15
8.55436e-15
9.95377e-15
1.15214e-14
1.32825e-14
1.5265e-14
1.75001e-14
2.00223e-14
2.28701e-14
2.60865e-14
2.97193e-14
3.38218e-14
3.84532e-14
4.36795e-14
4.9574e-14
5.62182e-14
6.37025e-14
7.21271e-14
8.16029e-14
9.22528e-14
1.04212e-13
1.17631e-13
1.32674e-13
1.49523e-13
1.68376e-13
1.89454e-13
2.12995e-13
2.39262e-13
2.68541e-13
3.01146e-13
3.37415e-13
3.77719e-13
4.22458e-13
4.72067e-13
5.27015e-13
5.87808e-13
6.54991e-13
7.2915e-13
8.10913e-13
9.0095e-13
9.9998e-13
1.10876e-12
1.22811e-12
1.35889e-12
1.50199e-12
1.65838e-12
1.82907e-12
2.01509e-12
2.21757e-12
2.43763e-12
2.67647e-12
2.93531e-12
3.21542e-12
3.51809e-12
3.84465e-12
4.19643e-12
4.57481e-12
4.98114e-12
5.4168e-12
5.88313e-12
6.38148e-12
6.91316e-12
7.47943e-12
8.0815e-12
8.72052e-12
9.39756e-12
1.01136e-11
1.08695e-11
1.1666e-11
1.25038e-11
1.33832e-11
1.43047e-11
1.52682e-11
1.62738e-11
1.73212e-11
1.841e-11
1.95393e-11
2.07083e-11
2.19158e-11
2.31603e-11
2.44403e-11
2.57537e-11
2.70985e-11
2.84721e-11
2.98719e-11
3.1295e-11
3.27383e-11
3.41983e-11
3.56716e-11
3.71543e-11
3.86425e-11
4.01321e-11
4.1619e-11
4.30986e-11
4.45667e-11
4.60186e-11
4.74499e-11
4.88559e-11
5.02321e-11
5.1574e-11
5.28771e-11
5.41369e-11
5.53493e-11
5.651e-11
5.7615e-11
5.86605e-11
5.96427e-11
6.05583e-11
6.14039e-11
6.21766e-11
6.28736e-11
6.34923e-11
6.40304e-11
6.4486e-11
6.48573e-11
6.51429e-11
6.53414e-11
6.5452e-11
6.54739e-11
6.54069e-11
6.52508e-11
6.50056e-11
6.46719e-11
6.42501e-11
6.37414e-11
6.31467e-11
6.24675e-11
6.17055e-11
6.08625e-11
5.99407e-11
5.89425e-11
5.78704e-11
5.67275e-11
5.55167e-11
5.42413e-11
5.29051e-11
5.15117e-11
5.00652e-11
4.85698e-11
4.703e-11
4.54505e-11
4.38362e-11
4.21921e-11
4.05235e-11
3.88357e-11
3.71343e-11
3.54248e-11
3.37129e-11
3.20045e-11
3.03051e-11
2.86206e-11
2.69565e-11
2.53185e-11
2.37118e-11
2.21417e-11
2.06131e-11
1.91306e-11
1.76986e-11
1.6321e-11
1.50014e-11
1.37429e-11
1.25481e-11
1.14192e-11
1.03579e-11
9.36529e-12
8.44205e-12
7.58831e-12
6.8037e-12
6.0874e-12
5.43809e-12
4.85405e-12
4.33316e-12
3.87291e-12
3.4705e-12
3.12282e-12
2.82651e-12
2.578e-12
2.37356e-12
2.20932e-12
2.08132e-12
1.98552e-12
1.91789e-12
1.87439e-12
1.85102e-12
1.8439e-12
1.84923e-12
1.86339e-12
1.88295e-12
1.90471e-12
1.92575e-12
1.94342e-12
1.95544e-12
1.95988e-12
1.9552e-12
1.94023e-12
1.91425e-12
1.8769e-12
1.82825e-12
1.76869e-12
1.69897e-12
1.62012e-12
1.53341e-12
1.44029e-12
1.34234e-12
1.2412e-12
1.1385e-12
1.03584e-12
9.34707e-13
8.36454e-13
7.42255e-13
6.53087e-13
5.69719e-13
4.92705e-13
4.22394e-13
3.58938e-13
3.02318e-13
2.52358e-13
2.08763e-13
1.71136e-13
1.39013e-13
1.11883e-13
8.92168e-14
7.04813e-14
5.51596e-14
4.27625e-14
3.2838e-14
2.49768e-14
1.88157e-14
1.4038e-14
1.03722e-14
7.58913e-15
5.49856e-15
3.94476e-15
2.80211e-15
1.97072e-15
1.37219e-15
9.45886e-16
6.45464e-16
4.36e-16
2.91502e-16
1.92866e-16
1.26222e-16
8.16213e-17
5.19965e-17
3.23692e-17
1.92373e-17
1.01089e-17
3.14225e-18
6.79541e-16
2.05034e-15
3.45664e-15
4.92303e-15
6.47507e-15
8.13967e-15
9.94544e-15
1.19232e-14
1.41062e-14
1.65311e-14
1.92378e-14
2.22705e-14
2.56782e-14
2.9515e-14
3.38415e-14
3.87247e-14
4.42394e-14
5.0469e-14
5.75063e-14
6.54548e-14
7.44296e-14
8.45588e-14
9.59848e-14
1.08866e-13
1.23378e-13
1.39715e-13
1.58092e-13
1.78749e-13
2.01948e-13
2.27981e-13
2.57166e-13
2.89856e-13
3.26437e-13
3.67335e-13
4.13013e-13
4.6398e-13
5.2079e-13
5.84048e-13
6.54411e-13
7.32593e-13
8.19369e-13
9.15575e-13
1.02212e-12
1.13997e-12
1.27017e-12
1.41386e-12
1.57223e-12
1.74658e-12
1.93826e-12
2.14873e-12
2.37954e-12
2.63231e-12
2.90878e-12
3.21073e-12
3.54007e-12
3.89877e-12
4.28888e-12
4.71255e-12
5.17198e-12
5.66943e-12
6.20723e-12
6.78774e-12
7.41337e-12
8.08655e-12
8.80971e-12
9.58528e-12
1.04156e-11
1.13032e-11
1.22502e-11
1.32588e-11
1.43312e-11
1.54693e-11
1.6675e-11
1.79498e-11
1.92951e-11
2.07122e-11
2.22019e-11
2.37648e-11
2.54013e-11
2.71112e-11
2.88943e-11
3.07496e-11
3.2676e-11
3.46718e-11
3.67349e-11
3.88629e-11
4.10527e-11
4.33009e-11
4.56035e-11
4.79561e-11
5.03539e-11
5.27917e-11
5.52636e-11
5.77636e-11
6.02852e-11
6.28214e-11
6.53652e-11
6.79091e-11
7.04453e-11
7.29661e-11
7.54633e-11
7.79289e-11
8.03545e-11
8.27321e-11
8.50535e-11
8.73107e-11
8.94957e-11
9.16008e-11
9.36186e-11
9.5542e-11
9.7364e-11
9.90781e-11
1.00678e-10
1.02159e-10
1.03515e-10
1.04742e-10
1.05834e-10
1.0679e-10
1.07604e-10
1.08275e-10
1.08801e-10
1.0918e-10
1.0941e-10
1.09492e-10
1.09424e-10
1.09208e-10
1.08844e-10
1.08333e-10
1.07678e-10
1.06879e-10
1.05941e-10
1.04865e-10
1.03655e-10
1.02315e-10
1.00848e-10
9.92596e-11
9.75533e-11
9.57344e-11
9.38079e-11
9.17794e-11
8.96546e-11
8.74394e-11
8.51401e-11
8.27632e-11
8.03153e-11
7.78033e-11
7.52345e-11
7.26161e-11
6.99558e-11
6.72611e-11
6.45401e-11
6.18007e-11
5.90509e-11
5.6299e-11
5.35533e-11
5.08218e-11
4.81129e-11
4.54346e-11
4.27949e-11
4.02015e-11
3.76619e-11
3.51835e-11
3.27731e-11
3.04371e-11
2.81815e-11
2.60119e-11
2.3933e-11
2.19493e-11
2.00643e-11
1.82809e-11
1.66016e-11
1.50278e-11
1.35603e-11
1.21993e-11
1.09441e-11
9.79351e-12
8.74558e-12
7.79776e-12
6.94696e-12
6.18953e-12
5.52137e-12
4.93797e-12
4.43445e-12
4.00562e-12
3.64605e-12
3.35012e-12
3.11206e-12
2.92602e-12
2.7861e-12
2.68641e-12
2.62112e-12
2.5845e-12
2.57098e-12
2.57516e-12
2.59192e-12
2.61642e-12
2.64416e-12
2.67103e-12
2.69338e-12
2.708e-12
2.71222e-12
2.70392e-12
2.6815e-12
2.64397e-12
2.59086e-12
2.52226e-12
2.43875e-12
2.34137e-12
2.23155e-12
2.11106e-12
1.9819e-12
1.84624e-12
1.70635e-12
1.56446e-12
1.42278e-12
1.28333e-12
1.14796e-12
1.01828e-12
8.95607e-13
7.80989e-13
6.75172e-13
5.78619e-13
4.91527e-13
4.13855e-13
3.45354e-13
2.85605e-13
2.34059e-13
1.9007e-13
1.52934e-13
1.21919e-13
9.62912e-14
7.53402e-14
5.83937e-14
4.48312e-14
3.40915e-14
2.56768e-14
1.91531e-14
1.41489e-14
1.03506e-14
7.49805e-15
5.37835e-15
3.81987e-15
2.68611e-15
1.87006e-15
1.28892e-15
8.79441e-16
5.93983e-16
3.97086e-16
2.62699e-16
1.71911e-16
1.11157e-16
7.08076e-17
4.40772e-17
2.61943e-17
1.37643e-17
4.27844e-18
1.2897e-15
3.89139e-15
6.56068e-15
9.34437e-15
1.22911e-14
1.54522e-14
1.88821e-14
2.26394e-14
2.67879e-14
3.13969e-14
3.65429e-14
4.23102e-14
4.87919e-14
5.60919e-14
6.43251e-14
7.36199e-14
8.41191e-14
9.59819e-14
1.09386e-13
1.24528e-13
1.41629e-13
1.60933e-13
1.82713e-13
2.07271e-13
2.34942e-13
2.66099e-13
3.01153e-13
3.40559e-13
3.84822e-13
4.34495e-13
4.90191e-13
5.52581e-13
6.22403e-13
7.00468e-13
7.87662e-13
8.84954e-13
9.93401e-13
1.11415e-12
1.24847e-12
1.39769e-12
1.56331e-12
1.74691e-12
1.9502e-12
2.17503e-12
2.42339e-12
2.6974e-12
2.99934e-12
3.33162e-12
3.69682e-12
4.09769e-12
4.5371e-12
5.01812e-12
5.54395e-12
6.11796e-12
6.74365e-12
7.42469e-12
8.16486e-12
8.9681e-12
9.83842e-12
1.078e-11
1.17969e-11
1.28936e-11
1.40742e-11
1.53432e-11
1.67047e-11
1.8163e-11
1.97223e-11
2.13865e-11
2.31595e-11
2.50449e-11
2.70461e-11
2.91661e-11
3.14076e-11
3.37729e-11
3.62638e-11
3.88818e-11
4.16274e-11
4.4501e-11
4.75019e-11
5.06291e-11
5.38806e-11
5.72537e-11
6.07449e-11
6.43499e-11
6.80636e-11
7.18798e-11
7.57918e-11
7.97917e-11
8.38709e-11
8.80201e-11
9.2229e-11
9.64867e-11
1.00781e-10
1.05101e-10
1.09432e-10
1.13761e-10
1.18075e-10
1.22359e-10
1.26599e-10
1.30779e-10
1.34886e-10
1.38904e-10
1.42819e-10
1.46616e-10
1.50281e-10
1.53801e-10
1.57162e-10
1.60352e-10
1.6336e-10
1.66172e-10
1.68781e-10
1.71175e-10
1.73347e-10
1.75289e-10
1.76994e-10
1.78457e-10
1.79673e-10
1.80639e-10
1.81352e-10
1.81811e-10
1.82015e-10
1.81964e-10
1.81661e-10
1.81108e-10
1.80307e-10
1.79262e-10
1.77979e-10
1.76462e-10
1.74718e-10
1.72753e-10
1.70575e-10
1.68191e-10
1.6561e-10
1.62839e-10
1.59889e-10
1.56768e-10
1.53486e-10
1.50053e-10
1.46479e-10
1.42774e-10
1.38949e-10
1.35016e-10
1.30984e-10
1.26865e-10
1.2267e-10
1.1841e-10
1.14097e-10
1.09743e-10
1.0536e-10
1.00958e-10
9.65491e-11
9.21458e-11
8.77595e-11
8.34018e-11
7.9084e-11
7.48175e-11
7.06134e-11
6.64825e-11
6.24354e-11
5.8482e-11
5.4632e-11
5.08945e-11
4.72779e-11
4.37902e-11
4.04383e-11
3.72286e-11
3.41666e-11
3.12567e-11
2.85027e-11
2.59073e-11
2.3472e-11
2.11978e-11
1.90842e-11
1.71302e-11
1.53336e-11
1.36913e-11
1.21995e-11
1.08536e-11
9.64825e-12
8.57737e-12
7.63444e-12
6.8124e-12
6.10376e-12
5.50074e-12
4.99526e-12
4.57907e-12
4.24381e-12
3.98104e-12
3.78237e-12
3.63948e-12
3.54416e-12
3.48843e-12
3.46455e-12
3.46508e-12
3.483e-12
3.51167e-12
3.54498e-12
3.57738e-12
3.60392e-12
3.62031e-12
3.62296e-12
3.60904e-12
3.57645e-12
3.52387e-12
3.45071e-12
3.3571e-12
3.24387e-12
3.1124e-12
2.96463e-12
2.80292e-12
2.62993e-12
2.44856e-12
2.26181e-12
2.07266e-12
1.88399e-12
1.6985e-12
1.51861e-12
1.34643e-12
1.18369e-12
1.03175e-12
8.91576e-13
7.63761e-13
6.48543e-13
5.45847e-13
4.55328e-13
3.76417e-13
3.08373e-13
2.50333e-13
2.01357e-13
1.60471e-13
1.26701e-13
9.91048e-14
7.67914e-14
5.89401e-14
4.4809e-14
3.37405e-14
2.51622e-14
1.85838e-14
1.35921e-14
9.84419e-15
7.05989e-15
5.01324e-15
3.52468e-15
2.45348e-15
1.69078e-15
1.15347e-15
7.78967e-16
5.20689e-16
3.44432e-16
2.25375e-16
1.45714e-16
9.28134e-17
5.77719e-17
3.4331e-17
1.80393e-17
5.60715e-18
2.41299e-15
7.28084e-15
1.22756e-14
1.74852e-14
2.3001e-14
2.89192e-14
3.53423e-14
4.23805e-14
5.01534e-14
5.87916e-14
6.84389e-14
7.92538e-14
9.1412e-14
1.05108e-13
1.2056e-13
1.38009e-13
1.57723e-13
1.80004e-13
2.05184e-13
2.33638e-13
2.65779e-13
3.0207e-13
3.43024e-13
3.8921e-13
4.41263e-13
4.99884e-13
5.6585e-13
6.40021e-13
7.23344e-13
8.16868e-13
9.21745e-13
1.03924e-12
1.17075e-12
1.31781e-12
1.48207e-12
1.66536e-12
1.86968e-12
2.0972e-12
2.35026e-12
2.63142e-12
2.94345e-12
3.28933e-12
3.67228e-12
4.09576e-12
4.56349e-12
5.07944e-12
5.64784e-12
6.27323e-12
6.96039e-12
7.71441e-12
8.54066e-12
9.44478e-12
1.04327e-11
1.15106e-11
1.2685e-11
1.39625e-11
1.535e-11
1.68548e-11
1.8484e-11
2.02452e-11
2.21458e-11
2.41935e-11
2.63958e-11
2.87604e-11
3.12946e-11
3.40058e-11
3.69009e-11
3.99867e-11
4.32695e-11
4.67551e-11
5.04486e-11
5.43548e-11
5.84773e-11
6.28192e-11
6.73824e-11
7.2168e-11
7.71756e-11
8.24039e-11
8.78503e-11
9.35106e-11
9.93793e-11
1.05449e-10
1.11713e-10
1.18159e-10
1.24776e-10
1.3155e-10
1.38468e-10
1.45513e-10
1.52666e-10
1.59909e-10
1.6722e-10
1.74578e-10
1.8196e-10
1.89342e-10
1.96698e-10
2.04003e-10
2.11231e-10
2.18356e-10
2.2535e-10
2.32187e-10
2.38841e-10
2.45285e-10
2.51494e-10
2.57444e-10
2.63111e-10
2.68471e-10
2.73505e-10
2.78192e-10
2.82514e-10
2.86456e-10
2.90001e-10
2.93138e-10
2.95855e-10
2.98145e-10
2.99999e-10
3.01414e-10
3.02387e-10
3.02916e-10
3.03003e-10
3.02651e-10
3.01864e-10
3.00649e-10
2.99014e-10
2.96968e-10
2.94521e-10
2.91687e-10
2.88478e-10
2.84908e-10
2.80991e-10
2.76745e-10
2.72185e-10
2.67329e-10
2.62193e-10
2.56796e-10
2.51156e-10
2.45291e-10
2.39219e-10
2.32959e-10
2.2653e-10
2.19951e-10
2.13239e-10
2.06413e-10
1.99492e-10
1.92493e-10
1.85435e-10
1.78336e-10
1.71213e-10
1.64084e-10
1.56966e-10
1.49875e-10
1.4283e-10
1.35846e-10
1.28939e-10
1.22124e-10
1.15418e-10
1.08835e-10
1.0239e-10
9.6095e-11
8.99643e-11
8.40098e-11
7.82431e-11
7.26747e-11
6.73142e-11
6.21704e-11
5.72506e-11
5.25614e-11
4.81078e-11
4.38937e-11
3.99218e-11
3.61934e-11
3.27085e-11
2.94659e-11
2.64629e-11
2.36959e-11
2.11598e-11
1.88485e-11
1.67551e-11
1.48713e-11
1.31883e-11
1.16964e-11
1.03853e-11
9.24427e-12
8.26196e-12
7.42681e-12
6.72701e-12
6.15061e-12
5.68565e-12
5.3202e-12
5.04244e-12
4.84077e-12
4.70386e-12
4.62073e-12
4.58081e-12
4.57403e-12
4.59086e-12
4.62244e-12
4.66058e-12
4.6979e-12
4.72782e-12
4.7447e-12
4.74383e-12
4.7215e-12
4.67499e-12
4.60261e-12
4.50361e-12
4.37822e-12
4.22752e-12
4.05339e-12
3.85836e-12
3.64551e-12
3.41836e-12
3.18066e-12
2.93631e-12
2.68918e-12
2.443e-12
2.20126e-12
1.96707e-12
1.74313e-12
1.53167e-12
1.33441e-12
1.15257e-12
9.86881e-13
8.37629e-13
7.04686e-13
5.87579e-13
4.8555e-13
3.97622e-13
3.22661e-13
2.5944e-13
2.06687e-13
1.63136e-13
1.27562e-13
9.88105e-14
7.58176e-14
5.76234e-14
4.33776e-14
3.23406e-14
2.38794e-14
1.74611e-14
1.26435e-14
9.06549e-15
6.4361e-15
4.5242e-15
3.14867e-15
2.16949e-15
1.47982e-15
9.99213e-16
6.6782e-16
4.41704e-16
2.88992e-16
1.86827e-16
1.1899e-16
7.40599e-17
4.40077e-17
2.31229e-17
7.18717e-18
4.45424e-15
1.34403e-14
2.26617e-14
3.22811e-14
4.24681e-14
5.34009e-14
6.52698e-14
7.82791e-14
9.26507e-14
1.08627e-13
1.26476e-13
1.46491e-13
1.68998e-13
1.94361e-13
2.22983e-13
2.55313e-13
2.91852e-13
3.33159e-13
3.79856e-13
4.32636e-13
4.92272e-13
5.59625e-13
6.35651e-13
7.21413e-13
8.1809e-13
9.26991e-13
1.04956e-12
1.18741e-12
1.3423e-12
1.51618e-12
1.71121e-12
1.92975e-12
2.17438e-12
2.44796e-12
2.7536e-12
3.09469e-12
3.47494e-12
3.89838e-12
4.3694e-12
4.89274e-12
5.47354e-12
6.11734e-12
6.83012e-12
7.61828e-12
8.48871e-12
9.44876e-12
1.05063e-11
1.16696e-11
1.29475e-11
1.43495e-11
1.58852e-11
1.75652e-11
1.94002e-11
2.14015e-11
2.35809e-11
2.59506e-11
2.85229e-11
3.13109e-11
3.43275e-11
3.75861e-11
4.10999e-11
4.48825e-11
4.89472e-11
5.33071e-11
5.79749e-11
6.29631e-11
6.82835e-11
7.39472e-11
7.99642e-11
8.63438e-11
9.30938e-11
1.00221e-10
1.0773e-10
1.15623e-10
1.23904e-10
1.3257e-10
1.41618e-10
1.51043e-10
1.60838e-10
1.70991e-10
1.81489e-10
1.92316e-10
2.03453e-10
2.14878e-10
2.26567e-10
2.38491e-10
2.50619e-10
2.6292e-10
2.75356e-10
2.8789e-10
3.0048e-10
3.13086e-10
3.25661e-10
3.38161e-10
3.50539e-10
3.62747e-10
3.74737e-10
3.86461e-10
3.97871e-10
4.08919e-10
4.1956e-10
4.29748e-10
4.3944e-10
4.48596e-10
4.57176e-10
4.65145e-10
4.7247e-10
4.79122e-10
4.85074e-10
4.90303e-10
4.94792e-10
4.98523e-10
5.01488e-10
5.03677e-10
5.05089e-10
5.05722e-10
5.05581e-10
5.04674e-10
5.03011e-10
5.00606e-10
4.97478e-10
4.93644e-10
4.89128e-10
4.83955e-10
4.7815e-10
4.71743e-10
4.64762e-10
4.57241e-10
4.49209e-10
4.40701e-10
4.3175e-10
4.2239e-10
4.12655e-10
4.02579e-10
3.92195e-10
3.81538e-10
3.70641e-10
3.59536e-10
3.48256e-10
3.36832e-10
3.25295e-10
3.13675e-10
3.02002e-10
2.90303e-10
2.78608e-10
2.66942e-10
2.55332e-10
2.43803e-10
2.3238e-10
2.21086e-10
2.09944e-10
1.98976e-10
1.88203e-10
1.77646e-10
1.67323e-10
1.57253e-10
1.47454e-10
1.3794e-10
1.28727e-10
1.19829e-10
1.11258e-10
1.03025e-10
9.51403e-11
8.76112e-11
8.04446e-11
7.36452e-11
6.72164e-11
6.11595e-11
5.54746e-11
5.01596e-11
4.52109e-11
4.06234e-11
3.63901e-11
3.25027e-11
2.89513e-11
2.57247e-11
2.28107e-11
2.01957e-11
1.78654e-11
1.58044e-11
1.3997e-11
1.24267e-11
1.10768e-11
9.93023e-12
8.96993e-12
8.17876e-12
7.53973e-12
7.03608e-12
6.65136e-12
6.36954e-12
6.17508e-12
6.05302e-12
5.98907e-12
5.96967e-12
5.98211e-12
6.01457e-12
6.05623e-12
6.09736e-12
6.12935e-12
6.14484e-12
6.1377e-12
6.10314e-12
6.03767e-12
5.93914e-12
5.80665e-12
5.64053e-12
5.44222e-12
5.21419e-12
4.95973e-12
4.68285e-12
4.38807e-12
4.08024e-12
3.76435e-12
3.44537e-12
3.12807e-12
2.81686e-12
2.51572e-12
2.22807e-12
1.95671e-12
1.70381e-12
1.47087e-12
1.2588e-12
1.0679e-12
8.97989e-13
7.48418e-13
6.18188e-13
5.06025e-13
4.10459e-13
3.29904e-13
2.62722e-13
2.07288e-13
1.62028e-13
1.25465e-13
9.62384e-14
7.31207e-14
5.50272e-14
4.10143e-14
3.02755e-14
2.21322e-14
1.60219e-14
1.14852e-14
8.15216e-15
5.72929e-15
3.98658e-15
2.74632e-15
1.87297e-15
1.26448e-15
8.44985e-16
5.58809e-16
3.65566e-16
2.36304e-16
1.50488e-16
9.36572e-17
5.56492e-17
2.92384e-17
9.08783e-18
8.11423e-15
2.44847e-14
4.12857e-14
5.88151e-14
7.73829e-14
9.7316e-14
1.18962e-13
1.42696e-13
1.68924e-13
1.98091e-13
2.30687e-13
2.67251e-13
3.08384e-13
3.54751e-13
4.07092e-13
4.66234e-13
5.33098e-13
6.08708e-13
6.94212e-13
7.90883e-13
9.00146e-13
1.02358e-12
1.16295e-12
1.32021e-12
1.49754e-12
1.69734e-12
1.92228e-12
2.17531e-12
2.4597e-12
2.77903e-12
3.13727e-12
3.53878e-12
3.98832e-12
4.49114e-12
5.05298e-12
5.68008e-12
6.37927e-12
7.15798e-12
8.02427e-12
8.98686e-12
1.00552e-11
1.12395e-11
1.25506e-11
1.40005e-11
1.56016e-11
1.73674e-11
1.93123e-11
2.14515e-11
2.38012e-11
2.63783e-11
2.92009e-11
3.22876e-11
3.56582e-11
3.93331e-11
4.33334e-11
4.7681e-11
5.23984e-11
5.75084e-11
6.30343e-11
6.89997e-11
7.5428e-11
8.23429e-11
8.97673e-11
9.7724e-11
1.06235e-10
1.1532e-10
1.25001e-10
1.35293e-10
1.46215e-10
1.57779e-10
1.69997e-10
1.82878e-10
1.96427e-10
2.10646e-10
2.25535e-10
2.41086e-10
2.5729e-10
2.74132e-10
2.91593e-10
3.09649e-10
3.28269e-10
3.47419e-10
3.67059e-10
3.87144e-10
4.07623e-10
4.28439e-10
4.49534e-10
4.7084e-10
4.92289e-10
5.13806e-10
5.35315e-10
5.56734e-10
5.77982e-10
5.98974e-10
6.19623e-10
6.39842e-10
6.59546e-10
6.78647e-10
6.97063e-10
7.1471e-10
7.3151e-10
7.47386e-10
7.62269e-10
7.7609e-10
7.88789e-10
8.00311e-10
8.10608e-10
8.19635e-10
8.27359e-10
8.33752e-10
8.38793e-10
8.42467e-10
8.44771e-10
8.45703e-10
8.45274e-10
8.43497e-10
8.40395e-10
8.35995e-10
8.3033e-10
8.23439e-10
8.15366e-10
8.06158e-10
7.95868e-10
7.84549e-10
7.7226e-10
7.5906e-10
7.4501e-10
7.30174e-10
7.14615e-10
6.98397e-10
6.81583e-10
6.64236e-10
6.46421e-10
6.28197e-10
6.09625e-10
5.90764e-10
5.71671e-10
5.52401e-10
5.33007e-10
5.13542e-10
4.94053e-10
4.74588e-10
4.55193e-10
4.3591e-10
4.1678e-10
3.97842e-10
3.79133e-10
3.60688e-10
3.42539e-10
3.24719e-10
3.07257e-10
2.90179e-10
2.73513e-10
2.57281e-10
2.41507e-10
2.26211e-10
2.11411e-10
1.97124e-10
1.83366e-10
1.7015e-10
1.57485e-10
1.45383e-10
1.33849e-10
1.22889e-10
1.12505e-10
1.02699e-10
9.34671e-11
8.48068e-11
7.67118e-11
6.91738e-11
6.21823e-11
5.57251e-11
4.97878e-11
4.43542e-11
3.94065e-11
3.49254e-11
3.08902e-11
2.72791e-11
2.40693e-11
2.12373e-11
1.87589e-11
1.66095e-11
1.47646e-11
1.31992e-11
1.18888e-11
1.0809e-11
9.93589e-12
9.24598e-12
8.71652e-12
8.32547e-12
8.05164e-12
7.87477e-12
7.77563e-12
7.7361e-12
7.73925e-12
7.76947e-12
7.81252e-12
7.85566e-12
7.88767e-12
7.899e-12
7.88177e-12
7.8298e-12
7.73866e-12
7.60563e-12
7.42962e-12
7.21113e-12
6.95206e-12
6.6556e-12
6.32604e-12
5.96852e-12
5.58883e-12
5.19315e-12
4.78787e-12
4.37928e-12
3.97341e-12
3.57588e-12
3.19166e-12
2.82505e-12
2.47956e-12
2.15787e-12
1.86184e-12
1.59256e-12
1.35036e-12
1.13494e-12
9.45449e-13
7.80571e-13
6.38658e-13
5.17818e-13
4.16018e-13
3.31166e-13
2.61187e-13
2.04083e-13
1.57973e-13
1.21131e-13
9.20035e-14
6.92154e-14
5.15737e-14
3.80592e-14
2.78146e-14
2.01302e-14
1.44266e-14
1.02376e-14
7.19332e-15
5.00426e-15
3.44673e-15
2.35022e-15
1.58641e-15
1.05995e-15
7.00876e-16
4.58445e-16
2.96309e-16
1.88683e-16
1.17418e-16
6.97629e-17
3.66522e-17
1.13919e-17
1.4589e-14
4.40235e-14
7.42359e-14
1.05764e-13
1.39169e-13
1.75041e-13
2.14009e-13
2.5675e-13
3.04001e-13
3.56567e-13
4.15334e-13
4.81282e-13
5.55497e-13
6.39187e-13
7.33694e-13
8.4052e-13
9.61334e-13
1.098e-12
1.2526e-12
1.42746e-12
1.62515e-12
1.84856e-12
2.10089e-12
2.3857e-12
2.70694e-12
3.06901e-12
3.47676e-12
3.93556e-12
4.45135e-12
5.03068e-12
5.68076e-12
6.40952e-12
7.22567e-12
8.13876e-12
9.15921e-12
1.02984e-11
1.15688e-11
1.2984e-11
1.45585e-11
1.63082e-11
1.82504e-11
2.04035e-11
2.27875e-11
2.54238e-11
2.83351e-11
3.15459e-11
3.50823e-11
3.89717e-11
4.32433e-11
4.79278e-11
5.30577e-11
5.86666e-11
6.47898e-11
7.14641e-11
7.87271e-11
8.66179e-11
9.51763e-11
1.04443e-10
1.14459e-10
1.25266e-10
1.36904e-10
1.49415e-10
1.62838e-10
1.77212e-10
1.92575e-10
2.0896e-10
2.264e-10
2.44924e-10
2.64557e-10
2.85319e-10
3.07227e-10
3.30292e-10
3.54516e-10
3.79898e-10
4.06428e-10
4.34089e-10
4.62855e-10
4.92692e-10
5.23557e-10
5.55396e-10
5.8815e-10
6.21745e-10
6.56101e-10
6.91128e-10
7.26725e-10
7.62784e-10
7.99188e-10
8.35811e-10
8.72521e-10
9.0918e-10
9.45642e-10
9.8176e-10
1.01738e-09
1.05235e-09
1.08651e-09
1.11971e-09
1.1518e-09
1.18262e-09
1.21204e-09
1.2399e-09
1.26608e-09
1.29045e-09
1.31289e-09
1.33331e-09
1.35161e-09
1.3677e-09
1.38152e-09
1.39301e-09
1.40213e-09
1.40885e-09
1.41316e-09
1.41505e-09
1.41454e-09
1.41166e-09
1.40643e-09
1.39892e-09
1.38917e-09
1.37727e-09
1.3633e-09
1.34734e-09
1.32948e-09
1.30984e-09
1.28852e-09
1.26563e-09
1.24128e-09
1.2156e-09
1.1887e-09
1.16071e-09
1.13173e-09
1.1019e-09
1.07131e-09
1.0401e-09
1.00836e-09
9.76206e-10
9.43737e-10
9.11054e-10
8.78249e-10
8.45414e-10
8.12632e-10
7.79984e-10
7.47546e-10
7.15389e-10
6.83578e-10
6.52177e-10
6.21241e-10
5.90826e-10
5.6098e-10