/*--------------------------------*- C++ -*----------------------------------*\
| =========                 |                                                 |
| \\      /  F ield         | OpenFOAM: The Open Source CFD Toolbox           |
|  \\    /   O peration     | Version:  v2012                                 |
|   \\  /    A nd           | Website:  www.openfoam.com                      |
|    \\/     M anipulation  |                                                 |
\*---------------------------------------------------------------------------*/
FoamFile
{
    version     2.0;
    format      ascii;
    class       volVectorField;
    location    "13.2";
    object      U;
}
// * * * * * * * * * * * * * * * * * * * * * * * * * * * * * * * * * * * * * //

dimensions      [0 1 -1 0 0 0 0];


internalField   nonuniform List<vector> 
65536
(
(0.000717206 -0.000717222 0)
(0.00215166 -0.000717262 0)
(0.00358622 -0.000717337 0)
(0.00502097 -0.000717448 0)
(0.00645598 -0.000717595 0)
(0.00789132 -0.000717778 0)
(0.00932707 -0.000717997 0)
(0.0107633 -0.00071825 0)
(0.0122 -0.000718536 0)
(0.0136374 -0.000718856 0)
(0.0150754 -0.000719206 0)
(0.0165142 -0.000719587 0)
(0.0179538 -0.000719997 0)
(0.0193942 -0.000720434 0)
(0.0208355 -0.000720897 0)
(0.0222777 -0.000721384 0)
(0.023721 -0.000721892 0)
(0.0251653 -0.00072242 0)
(0.0266107 -0.000722966 0)
(0.0280571 -0.000723527 0)
(0.0295048 -0.000724101 0)
(0.0309535 -0.000724685 0)
(0.0324035 -0.000725276 0)
(0.0338546 -0.000725871 0)
(0.035307 -0.000726467 0)
(0.0367605 -0.000727062 0)
(0.0382152 -0.00072765 0)
(0.0396711 -0.00072823 0)
(0.0411282 -0.000728797 0)
(0.0425863 -0.000729347 0)
(0.0440456 -0.000729877 0)
(0.0455059 -0.000730381 0)
(0.0469671 -0.000730857 0)
(0.0484293 -0.000731299 0)
(0.0498924 -0.000731702 0)
(0.0513562 -0.000732062 0)
(0.0528207 -0.000732373 0)
(0.0542857 -0.000732631 0)
(0.0557513 -0.000732831 0)
(0.0572171 -0.000732966 0)
(0.0586832 -0.000733031 0)
(0.0601493 -0.00073302 0)
(0.0616154 -0.000732928 0)
(0.0630811 -0.000732749 0)
(0.0645465 -0.000732475 0)
(0.0660111 -0.000732101 0)
(0.067475 -0.000731621 0)
(0.0689377 -0.000731027 0)
(0.0703992 -0.000730313 0)
(0.0718591 -0.000729472 0)
(0.0733172 -0.000728497 0)
(0.0747732 -0.000727382 0)
(0.0762269 -0.000726118 0)
(0.0776779 -0.000724699 0)
(0.0791258 -0.000723118 0)
(0.0805705 -0.000721366 0)
(0.0820115 -0.000719438 0)
(0.0834484 -0.000717325 0)
(0.084881 -0.00071502 0)
(0.0863087 -0.000712515 0)
(0.0877312 -0.000709804 0)
(0.0891481 -0.000706878 0)
(0.090559 -0.000703731 0)
(0.0919633 -0.000700356 0)
(0.0933606 -0.000696744 0)
(0.0947505 -0.00069289 0)
(0.0961324 -0.000688785 0)
(0.0975059 -0.000684424 0)
(0.0988704 -0.0006798 0)
(0.100225 -0.000674906 0)
(0.10157 -0.000669737 0)
(0.102905 -0.000664286 0)
(0.104228 -0.000658547 0)
(0.105539 -0.000652515 0)
(0.106838 -0.000646185 0)
(0.108124 -0.000639553 0)
(0.109397 -0.000632613 0)
(0.110655 -0.000625362 0)
(0.111898 -0.000617796 0)
(0.113126 -0.000609911 0)
(0.114338 -0.000601706 0)
(0.115534 -0.000593177 0)
(0.116711 -0.000584322 0)
(0.117871 -0.000575141 0)
(0.119012 -0.000565632 0)
(0.120134 -0.000555796 0)
(0.121236 -0.000545631 0)
(0.122317 -0.00053514 0)
(0.123377 -0.000524323 0)
(0.124414 -0.000513182 0)
(0.12543 -0.00050172 0)
(0.126422 -0.00048994 0)
(0.12739 -0.000477845 0)
(0.128333 -0.000465441 0)
(0.129252 -0.000452732 0)
(0.130145 -0.000439724 0)
(0.131011 -0.000426422 0)
(0.13185 -0.000412834 0)
(0.132663 -0.000398967 0)
(0.133447 -0.000384829 0)
(0.134202 -0.000370429 0)
(0.134929 -0.000355776 0)
(0.135625 -0.000340879 0)
(0.136292 -0.000325749 0)
(0.136929 -0.000310396 0)
(0.137534 -0.000294833 0)
(0.138108 -0.00027907 0)
(0.138651 -0.000263119 0)
(0.139161 -0.000246994 0)
(0.139639 -0.000230707 0)
(0.140084 -0.000214272 0)
(0.140496 -0.000197702 0)
(0.140875 -0.000181011 0)
(0.14122 -0.000164213 0)
(0.141532 -0.000147323 0)
(0.141809 -0.000130355 0)
(0.142053 -0.000113324 0)
(0.142263 -9.62449e-05 0)
(0.142438 -7.91323e-05 0)
(0.142579 -6.20013e-05 0)
(0.142686 -4.48666e-05 0)
(0.142759 -2.77432e-05 0)
(0.142797 -1.06458e-05 0)
(0.142801 6.41101e-06 0)
(0.142771 2.34127e-05 0)
(0.142708 4.03451e-05 0)
(0.14261 5.7194e-05 0)
(0.142479 7.39458e-05 0)
(0.142314 9.0587e-05 0)
(0.142116 0.000107104 0)
(0.141885 0.000123485 0)
(0.141622 0.000139717 0)
(0.141326 0.000155787 0)
(0.140999 0.000171685 0)
(0.14064 0.000187399 0)
(0.140249 0.000202918 0)
(0.139828 0.000218233 0)
(0.139376 0.000233333 0)
(0.138894 0.00024821 0)
(0.138383 0.000262854 0)
(0.137842 0.000277258 0)
(0.137274 0.000291413 0)
(0.136677 0.000305314 0)
(0.136052 0.000318953 0)
(0.1354 0.000332324 0)
(0.134722 0.000345422 0)
(0.134018 0.000358242 0)
(0.133289 0.00037078 0)
(0.132535 0.000383032 0)
(0.131757 0.000394994 0)
(0.130955 0.000406664 0)
(0.13013 0.00041804 0)
(0.129282 0.00042912 0)
(0.128413 0.000439902 0)
(0.127522 0.000450386 0)
(0.126611 0.000460571 0)
(0.12568 0.000470458 0)
(0.124729 0.000480047 0)
(0.123759 0.000489339 0)
(0.122771 0.000498335 0)
(0.121766 0.000507037 0)
(0.120743 0.000515447 0)
(0.119704 0.000523567 0)
(0.118648 0.000531401 0)
(0.117578 0.000538951 0)
(0.116492 0.000546221 0)
(0.115393 0.000553214 0)
(0.114279 0.000559934 0)
(0.113153 0.000566385 0)
(0.112013 0.000572571 0)
(0.110862 0.000578497 0)
(0.109699 0.000584168 0)
(0.108525 0.000589589 0)
(0.107341 0.000594763 0)
(0.106146 0.000599698 0)
(0.104941 0.000604397 0)
(0.103728 0.000608867 0)
(0.102506 0.000613112 0)
(0.101275 0.000617139 0)
(0.100037 0.000620953 0)
(0.0987913 0.000624559 0)
(0.0975386 0.000627963 0)
(0.0962793 0.000631171 0)
(0.0950137 0.000634189 0)
(0.0937423 0.000637022 0)
(0.0924655 0.000639676 0)
(0.0911834 0.000642158 0)
(0.0898967 0.000644472 0)
(0.0886054 0.000646624 0)
(0.08731 0.00064862 0)
(0.0860108 0.000650466 0)
(0.084708 0.000652167 0)
(0.083402 0.000653729 0)
(0.082093 0.000655157 0)
(0.0807812 0.000656456 0)
(0.079467 0.000657632 0)
(0.0781506 0.00065869 0)
(0.0768321 0.000659635 0)
(0.0755119 0.000660473 0)
(0.0741901 0.000661208 0)
(0.072867 0.000661844 0)
(0.0715427 0.000662388 0)
(0.0702174 0.000662843 0)
(0.0688912 0.000663215 0)
(0.0675644 0.000663507 0)
(0.0662371 0.000663724 0)
(0.0649095 0.000663871 0)
(0.0635816 0.000663951 0)
(0.0622536 0.000663969 0)
(0.0609256 0.000663929 0)
(0.0595978 0.000663835 0)
(0.0582703 0.00066369 0)
(0.056943 0.000663498 0)
(0.0556162 0.000663263 0)
(0.0542899 0.000662988 0)
(0.0529642 0.000662677 0)
(0.0516392 0.000662333 0)
(0.0503149 0.000661959 0)
(0.0489913 0.000661559 0)
(0.0476686 0.000661134 0)
(0.0463468 0.000660689 0)
(0.0450259 0.000660225 0)
(0.0437059 0.000659747 0)
(0.0423869 0.000659255 0)
(0.0410689 0.000658753 0)
(0.0397519 0.000658244 0)
(0.0384359 0.000657729 0)
(0.0371209 0.00065721 0)
(0.035807 0.000656691 0)
(0.0344942 0.000656173 0)
(0.0331824 0.000655657 0)
(0.0318716 0.000655147 0)
(0.0305618 0.000654643 0)
(0.029253 0.000654148 0)
(0.0279452 0.000653662 0)
(0.0266384 0.000653189 0)
(0.0253325 0.000652728 0)
(0.0240275 0.000652282 0)
(0.0227234 0.000651852 0)
(0.0214201 0.000651439 0)
(0.0201176 0.000651044 0)
(0.0188159 0.000650669 0)
(0.017515 0.000650314 0)
(0.0162147 0.00064998 0)
(0.0149151 0.000649669 0)
(0.0136161 0.000649381 0)
(0.0123176 0.000649117 0)
(0.0110196 0.000648877 0)
(0.00972211 0.000648662 0)
(0.00842501 0.000648473 0)
(0.00712825 0.000648311 0)
(0.0058318 0.000648174 0)
(0.00453559 0.000648064 0)
(0.00323957 0.000647983 0)
(0.00194369 0.000647928 0)
(0.000647887 0.0006479 0)
(0.000717172 -0.00215164 0)
(0.00215155 -0.00215176 0)
(0.00358605 -0.00215198 0)
(0.00502073 -0.00215231 0)
(0.00645567 -0.00215275 0)
(0.00789094 -0.0021533 0)
(0.00932661 -0.00215396 0)
(0.0107628 -0.00215472 0)
(0.0121995 -0.00215558 0)
(0.0136368 -0.00215654 0)
(0.0150747 -0.00215759 0)
(0.0165134 -0.00215874 0)
(0.0179529 -0.00215997 0)
(0.0193933 -0.00216128 0)
(0.0208346 -0.00216267 0)
(0.0222768 -0.00216413 0)
(0.02372 -0.00216566 0)
(0.0251643 -0.00216725 0)
(0.0266096 -0.00216889 0)
(0.0280561 -0.00217057 0)
(0.0295037 -0.0021723 0)
(0.0309524 -0.00217405 0)
(0.0324024 -0.00217583 0)
(0.0338535 -0.00217762 0)
(0.0353058 -0.00217941 0)
(0.0367594 -0.00218119 0)
(0.0382141 -0.00218296 0)
(0.03967 -0.00218471 0)
(0.0411271 -0.00218641 0)
(0.0425853 -0.00218807 0)
(0.0440446 -0.00218966 0)
(0.045505 -0.00219118 0)
(0.0469663 -0.00219261 0)
(0.0484286 -0.00219394 0)
(0.0498917 -0.00219515 0)
(0.0513556 -0.00219624 0)
(0.0528202 -0.00219718 0)
(0.0542854 -0.00219795 0)
(0.055751 -0.00219856 0)
(0.057217 -0.00219897 0)
(0.0586832 -0.00219917 0)
(0.0601495 -0.00219914 0)
(0.0616157 -0.00219887 0)
(0.0630817 -0.00219834 0)
(0.0645472 -0.00219753 0)
(0.0660121 -0.00219641 0)
(0.0674761 -0.00219498 0)
(0.0689391 -0.0021932 0)
(0.0704008 -0.00219107 0)
(0.071861 -0.00218855 0)
(0.0733194 -0.00218563 0)
(0.0747757 -0.00218229 0)
(0.0762296 -0.00217851 0)
(0.0776809 -0.00217426 0)
(0.0791293 -0.00216952 0)
(0.0805743 -0.00216428 0)
(0.0820156 -0.0021585 0)
(0.0834529 -0.00215217 0)
(0.0848859 -0.00214526 0)
(0.086314 -0.00213775 0)
(0.087737 -0.00212962 0)
(0.0891543 -0.00212085 0)
(0.0905656 -0.00211142 0)
(0.0919704 -0.0021013 0)
(0.0933682 -0.00209047 0)
(0.0947585 -0.00207892 0)
(0.096141 -0.00206661 0)
(0.097515 -0.00205353 0)
(0.09888 -0.00203967 0)
(0.100236 -0.00202499 0)
(0.101581 -0.00200949 0)
(0.102916 -0.00199314 0)
(0.10424 -0.00197593 0)
(0.105552 -0.00195784 0)
(0.106851 -0.00193885 0)
(0.108138 -0.00191896 0)
(0.109411 -0.00189815 0)
(0.11067 -0.0018764 0)
(0.111914 -0.0018537 0)
(0.113143 -0.00183005 0)
(0.114355 -0.00180544 0)
(0.115551 -0.00177985 0)
(0.116729 -0.00175329 0)
(0.11789 -0.00172575 0)
(0.119032 -0.00169722 0)
(0.120154 -0.00166771 0)
(0.121256 -0.00163721 0)
(0.122338 -0.00160574 0)
(0.123399 -0.00157329 0)
(0.124437 -0.00153986 0)
(0.125453 -0.00150547 0)
(0.126446 -0.00147013 0)
(0.127414 -0.00143384 0)
(0.128358 -0.00139662 0)
(0.129278 -0.00135849 0)
(0.130171 -0.00131946 0)
(0.131038 -0.00127955 0)
(0.131878 -0.00123877 0)
(0.132691 -0.00119717 0)
(0.133475 -0.00115474 0)
(0.134231 -0.00111153 0)
(0.134958 -0.00106756 0)
(0.135656 -0.00102286 0)
(0.136323 -0.000977462 0)
(0.13696 -0.000931394 0)
(0.137565 -0.000884691 0)
(0.13814 -0.00083739 0)
(0.138683 -0.000789526 0)
(0.139193 -0.000741138 0)
(0.139671 -0.000692264 0)
(0.140117 -0.000642944 0)
(0.140529 -0.00059322 0)
(0.140908 -0.000543133 0)
(0.141254 -0.000492725 0)
(0.141566 -0.00044204 0)
(0.141843 -0.000391122 0)
(0.142087 -0.000340014 0)
(0.142297 -0.000288762 0)
(0.142472 -0.000237409 0)
(0.142614 -0.000186001 0)
(0.14272 -0.000134583 0)
(0.142793 -8.31978e-05 0)
(0.142831 -3.1891e-05 0)
(0.142835 1.92937e-05 0)
(0.142805 7.03131e-05 0)
(0.142741 0.000121124 0)
(0.142643 0.000171685 0)
(0.142512 0.000221953 0)
(0.142347 0.00027189 0)
(0.142149 0.000321455 0)
(0.141918 0.000370609 0)
(0.141654 0.000419316 0)
(0.141358 0.000467539 0)
(0.14103 0.000515243 0)
(0.140671 0.000562396 0)
(0.14028 0.000608964 0)
(0.139858 0.000654918 0)
(0.139406 0.000700227 0)
(0.138924 0.000744866 0)
(0.138412 0.000788806 0)
(0.137871 0.000832025 0)
(0.137301 0.000874499 0)
(0.136704 0.000916207 0)
(0.136079 0.000957129 0)
(0.135427 0.000997248 0)
(0.134748 0.00103655 0)
(0.134044 0.00107501 0)
(0.133314 0.00111263 0)
(0.132559 0.00114939 0)
(0.13178 0.00118528 0)
(0.130978 0.00122029 0)
(0.130152 0.00125442 0)
(0.129304 0.00128766 0)
(0.128434 0.00132001 0)
(0.127543 0.00135146 0)
(0.126631 0.00138201 0)
(0.125699 0.00141167 0)
(0.124748 0.00144044 0)
(0.123778 0.00146831 0)
(0.122789 0.0014953 0)
(0.121783 0.0015214 0)
(0.120759 0.00154663 0)
(0.119719 0.00157099 0)
(0.118664 0.00159449 0)
(0.117592 0.00161714 0)
(0.116506 0.00163894 0)
(0.115406 0.00165991 0)
(0.114292 0.00168007 0)
(0.113165 0.00169942 0)
(0.112025 0.00171797 0)
(0.110873 0.00173575 0)
(0.10971 0.00175276 0)
(0.108536 0.00176901 0)
(0.10735 0.00178453 0)
(0.106155 0.00179933 0)
(0.104951 0.00181342 0)
(0.103737 0.00182682 0)
(0.102514 0.00183956 0)
(0.101283 0.00185163 0)
(0.100044 0.00186306 0)
(0.0987982 0.00187388 0)
(0.0975451 0.00188408 0)
(0.0962854 0.0018937 0)
(0.0950194 0.00190275 0)
(0.0937477 0.00191124 0)
(0.0924705 0.0019192 0)
(0.0911881 0.00192664 0)
(0.089901 0.00193358 0)
(0.0886094 0.00194003 0)
(0.0873137 0.00194601 0)
(0.0860142 0.00195154 0)
(0.0847111 0.00195664 0)
(0.0834048 0.00196132 0)
(0.0820956 0.0019656 0)
(0.0807836 0.00196949 0)
(0.0794691 0.00197301 0)
(0.0781525 0.00197618 0)
(0.0768338 0.00197901 0)
(0.0755134 0.00198152 0)
(0.0741914 0.00198372 0)
(0.0728681 0.00198562 0)
(0.0715436 0.00198725 0)
(0.0702181 0.00198861 0)
(0.0688918 0.00198972 0)
(0.0675648 0.00199059 0)
(0.0662374 0.00199124 0)
(0.0649096 0.00199167 0)
(0.0635816 0.00199191 0)
(0.0622535 0.00199196 0)
(0.0609254 0.00199184 0)
(0.0595975 0.00199155 0)
(0.0582698 0.00199111 0)
(0.0569425 0.00199053 0)
(0.0556156 0.00198983 0)
(0.0542893 0.001989 0)
(0.0529635 0.00198806 0)
(0.0516384 0.00198703 0)
(0.050314 0.0019859 0)
(0.0489904 0.0019847 0)
(0.0476677 0.00198342 0)
(0.0463458 0.00198208 0)
(0.0450248 0.00198069 0)
(0.0437048 0.00197925 0)
(0.0423858 0.00197777 0)
(0.0410678 0.00197626 0)
(0.0397508 0.00197473 0)
(0.0384348 0.00197318 0)
(0.0371198 0.00197163 0)
(0.0358059 0.00197007 0)
(0.0344931 0.00196851 0)
(0.0331813 0.00196696 0)
(0.0318705 0.00196543 0)
(0.0305607 0.00196392 0)
(0.029252 0.00196243 0)
(0.0279442 0.00196097 0)
(0.0266374 0.00195955 0)
(0.0253315 0.00195816 0)
(0.0240266 0.00195683 0)
(0.0227225 0.00195553 0)
(0.0214192 0.00195429 0)
(0.0201168 0.00195311 0)
(0.0188152 0.00195198 0)
(0.0175143 0.00195091 0)
(0.016214 0.00194991 0)
(0.0149145 0.00194898 0)
(0.0136155 0.00194811 0)
(0.0123171 0.00194732 0)
(0.0110192 0.0019466 0)
(0.0097217 0.00194596 0)
(0.00842464 0.00194539 0)
(0.00712794 0.0019449 0)
(0.00583154 0.00194449 0)
(0.00453539 0.00194416 0)
(0.00323943 0.00194392 0)
(0.0019436 0.00194375 0)
(0.000647859 0.00194367 0)
(0.000717097 -0.00358595 0)
(0.00215133 -0.00358614 0)
(0.00358567 -0.00358651 0)
(0.0050202 -0.00358707 0)
(0.006455 -0.00358781 0)
(0.00789012 -0.00358872 0)
(0.00932566 -0.00358982 0)
(0.0107617 -0.00359109 0)
(0.0121982 -0.00359253 0)
(0.0136354 -0.00359413 0)
(0.0150732 -0.00359589 0)
(0.0165118 -0.0035978 0)
(0.0179512 -0.00359986 0)
(0.0193915 -0.00360205 0)
(0.0208326 -0.00360438 0)
(0.0222748 -0.00360682 0)
(0.0237179 -0.00360937 0)
(0.0251621 -0.00361202 0)
(0.0266074 -0.00361476 0)
(0.0280538 -0.00361758 0)
(0.0295013 -0.00362046 0)
(0.03095 -0.0036234 0)
(0.0324 -0.00362636 0)
(0.0338511 -0.00362936 0)
(0.0353034 -0.00363235 0)
(0.036757 -0.00363534 0)
(0.0382118 -0.0036383 0)
(0.0396677 -0.00364122 0)
(0.0411248 -0.00364407 0)
(0.0425831 -0.00364685 0)
(0.0440425 -0.00364951 0)
(0.045503 -0.00365206 0)
(0.0469644 -0.00365446 0)
(0.0484268 -0.00365669 0)
(0.0498901 -0.00365873 0)
(0.0513542 -0.00366055 0)
(0.052819 -0.00366214 0)
(0.0542844 -0.00366345 0)
(0.0557503 -0.00366448 0)
(0.0572166 -0.00366518 0)
(0.0586831 -0.00366554 0)
(0.0601497 -0.00366551 0)
(0.0616162 -0.00366508 0)
(0.0630825 -0.00366422 0)
(0.0645484 -0.00366288 0)
(0.0660137 -0.00366104 0)
(0.0674782 -0.00365867 0)
(0.0689417 -0.00365574 0)
(0.0704039 -0.0036522 0)
(0.0718646 -0.00364803 0)
(0.0733235 -0.00364319 0)
(0.0747804 -0.00363765 0)
(0.076235 -0.00363137 0)
(0.0776869 -0.00362431 0)
(0.0791359 -0.00361644 0)
(0.0805816 -0.00360772 0)
(0.0820236 -0.00359811 0)
(0.0834617 -0.00358758 0)
(0.0848954 -0.00357609 0)
(0.0863244 -0.00356361 0)
(0.0877482 -0.00355009 0)
(0.0891664 -0.0035355 0)
(0.0905786 -0.0035198 0)
(0.0919843 -0.00350295 0)
(0.0933831 -0.00348493 0)
(0.0947744 -0.00346569 0)
(0.0961579 -0.0034452 0)
(0.0975329 -0.00342343 0)
(0.098899 -0.00340034 0)
(0.100256 -0.00337591 0)
(0.101602 -0.00335009 0)
(0.102938 -0.00332286 0)
(0.104263 -0.00329419 0)
(0.105576 -0.00326406 0)
(0.106877 -0.00323243 0)
(0.108165 -0.00319929 0)
(0.109439 -0.00316461 0)
(0.110699 -0.00312838 0)
(0.111945 -0.00309056 0)
(0.113175 -0.00305115 0)
(0.114389 -0.00301014 0)
(0.115586 -0.0029675 0)
(0.116765 -0.00292324 0)
(0.117927 -0.00287733 0)
(0.11907 -0.00282979 0)
(0.120194 -0.00278061 0)
(0.121298 -0.00272978 0)
(0.122381 -0.00267732 0)
(0.123443 -0.00262322 0)
(0.124482 -0.0025675 0)
(0.125499 -0.00251018 0)
(0.126493 -0.00245126 0)
(0.127463 -0.00239077 0)
(0.128409 -0.00232872 0)
(0.129329 -0.00226515 0)
(0.130224 -0.00220007 0)
(0.131092 -0.00213353 0)
(0.131933 -0.00206555 0)
(0.132747 -0.00199618 0)
(0.133532 -0.00192545 0)
(0.134289 -0.0018534 0)
(0.135017 -0.00178008 0)
(0.135716 -0.00170555 0)
(0.136384 -0.00162984 0)
(0.137022 -0.00155303 0)
(0.137628 -0.00147515 0)
(0.138203 -0.00139627 0)
(0.138747 -0.00131646 0)
(0.139258 -0.00123577 0)
(0.139737 -0.00115427 0)
(0.140183 -0.00107202 0)
(0.140596 -0.000989102 0)
(0.140975 -0.000905576 0)
(0.141321 -0.000821515 0)
(0.141633 -0.000736992 0)
(0.141912 -0.000652079 0)
(0.142156 -0.00056685 0)
(0.142365 -0.00048138 0)
(0.142541 -0.000395743 0)
(0.142682 -0.000310013 0)
(0.142789 -0.000224266 0)
(0.142861 -0.000138575 0)
(0.1429 -5.30148e-05 0)
(0.142904 3.23414e-05 0)
(0.142873 0.000117421 0)
(0.142809 0.000202153 0)
(0.142711 0.000286467 0)
(0.142579 0.000370293 0)
(0.142414 0.000453564 0)
(0.142215 0.000536215 0)
(0.141983 0.00061818 0)
(0.141719 0.000699398 0)
(0.141422 0.000779808 0)
(0.141094 0.000859353 0)
(0.140733 0.000937976 0)
(0.140342 0.00101562 0)
(0.139919 0.00109225 0)
(0.139466 0.00116779 0)
(0.138983 0.00124222 0)
(0.13847 0.00131548 0)
(0.137928 0.00138754 0)
(0.137358 0.00145835 0)
(0.136759 0.00152789 0)
(0.136133 0.00159611 0)
(0.13548 0.00166299 0)
(0.1348 0.00172851 0)
(0.134095 0.00179263 0)
(0.133363 0.00185534 0)
(0.132608 0.00191661 0)
(0.131828 0.00197644 0)
(0.131024 0.0020348 0)
(0.130197 0.00209169 0)
(0.129348 0.00214709 0)
(0.128477 0.00220101 0)
(0.127584 0.00225343 0)
(0.126671 0.00230435 0)
(0.125738 0.00235378 0)
(0.124786 0.00240172 0)
(0.123814 0.00244818 0)
(0.122824 0.00249315 0)
(0.121817 0.00253665 0)
(0.120792 0.00257869 0)
(0.119751 0.00261927 0)
(0.118694 0.00265843 0)
(0.117622 0.00269616 0)
(0.116535 0.00273249 0)
(0.115434 0.00276744 0)
(0.114319 0.00280101 0)
(0.11319 0.00283325 0)
(0.11205 0.00286416 0)
(0.110897 0.00289376 0)
(0.109732 0.00292209 0)
(0.108557 0.00294917 0)
(0.107371 0.00297502 0)
(0.106175 0.00299966 0)
(0.104969 0.00302313 0)
(0.103754 0.00304546 0)
(0.102531 0.00306665 0)
(0.101299 0.00308676 0)
(0.100059 0.0031058 0)
(0.0988122 0.0031238 0)
(0.0975583 0.00314079 0)
(0.0962978 0.0031568 0)
(0.0950312 0.00317186 0)
(0.0937587 0.003186 0)
(0.0924808 0.00319924 0)
(0.0911977 0.00321162 0)
(0.08991 0.00322316 0)
(0.0886178 0.0032339 0)
(0.0873214 0.00324385 0)
(0.0860213 0.00325305 0)
(0.0847177 0.00326153 0)
(0.0834108 0.00326931 0)
(0.082101 0.00327642 0)
(0.0807885 0.00328289 0)
(0.0794736 0.00328875 0)
(0.0781565 0.00329401 0)
(0.0768374 0.00329871 0)
(0.0755165 0.00330287 0)
(0.0741942 0.00330652 0)
(0.0728705 0.00330968 0)
(0.0715456 0.00331238 0)
(0.0702198 0.00331463 0)
(0.0688931 0.00331646 0)
(0.0675659 0.0033179 0)
(0.0662381 0.00331897 0)
(0.0649101 0.00331968 0)
(0.0635818 0.00332006 0)
(0.0622535 0.00332013 0)
(0.0609252 0.00331991 0)
(0.059597 0.00331942 0)
(0.0582692 0.00331868 0)
(0.0569417 0.0033177 0)
(0.0556146 0.00331651 0)
(0.0542881 0.00331512 0)
(0.0529622 0.00331354 0)
(0.051637 0.00331181 0)
(0.0503125 0.00330992 0)
(0.0489888 0.0033079 0)
(0.047666 0.00330577 0)
(0.046344 0.00330353 0)
(0.045023 0.00330119 0)
(0.0437029 0.00329879 0)
(0.0423838 0.00329632 0)
(0.0410658 0.0032938 0)
(0.0397487 0.00329124 0)
(0.0384327 0.00328865 0)
(0.0371178 0.00328605 0)
(0.0358039 0.00328344 0)
(0.034491 0.00328084 0)
(0.0331792 0.00327825 0)
(0.0318685 0.00327569 0)
(0.0305587 0.00327316 0)
(0.02925 0.00327068 0)
(0.0279423 0.00326824 0)
(0.0266355 0.00326587 0)
(0.0253297 0.00326356 0)
(0.0240248 0.00326132 0)
(0.0227208 0.00325916 0)
(0.0214176 0.00325709 0)
(0.0201153 0.00325511 0)
(0.0188137 0.00325323 0)
(0.0175129 0.00325145 0)
(0.0162128 0.00324978 0)
(0.0149133 0.00324822 0)
(0.0136144 0.00324678 0)
(0.0123161 0.00324545 0)
(0.0110182 0.00324425 0)
(0.00972089 0.00324317 0)
(0.00842394 0.00324223 0)
(0.00712735 0.00324141 0)
(0.00583105 0.00324073 0)
(0.00453501 0.00324018 0)
(0.00323915 0.00323977 0)
(0.00194344 0.0032395 0)
(0.000647804 0.00323936 0)
(0.000716984 -0.00502007 0)
(0.00215099 -0.00502033 0)
(0.00358511 -0.00502085 0)
(0.00501942 -0.00502164 0)
(0.00645399 -0.00502267 0)
(0.0078889 -0.00502397 0)
(0.00932422 -0.00502551 0)
(0.01076 -0.00502729 0)
(0.0121964 -0.00502931 0)
(0.0136334 -0.00503156 0)
(0.015071 -0.00503403 0)
(0.0165094 -0.00503672 0)
(0.0179487 -0.00503961 0)
(0.0193887 -0.00504269 0)
(0.0208297 -0.00504596 0)
(0.0222717 -0.00504939 0)
(0.0237147 -0.00505298 0)
(0.0251588 -0.00505671 0)
(0.026604 -0.00506056 0)
(0.0280503 -0.00506452 0)
(0.0294978 -0.00506858 0)
(0.0309464 -0.0050727 0)
(0.0323963 -0.00507688 0)
(0.0338474 -0.00508109 0)
(0.0352998 -0.00508531 0)
(0.0367534 -0.00508952 0)
(0.0382082 -0.00509369 0)
(0.0396642 -0.0050978 0)
(0.0411214 -0.00510182 0)
(0.0425798 -0.00510573 0)
(0.0440393 -0.00510949 0)
(0.0454999 -0.00511309 0)
(0.0469616 -0.00511648 0)
(0.0484242 -0.00511963 0)
(0.0498877 -0.00512252 0)
(0.0513521 -0.00512511 0)
(0.0528172 -0.00512737 0)
(0.0542829 -0.00512925 0)
(0.0557492 -0.00513072 0)
(0.0572158 -0.00513174 0)
(0.0586828 -0.00513228 0)
(0.0601499 -0.00513229 0)
(0.0616169 -0.00513173 0)
(0.0630838 -0.00513056 0)
(0.0645502 -0.00512873 0)
(0.0660162 -0.0051262 0)
(0.0674813 -0.00512293 0)
(0.0689455 -0.00511887 0)
(0.0704084 -0.00511397 0)
(0.0718699 -0.00510818 0)
(0.0733297 -0.00510145 0)
(0.0747874 -0.00509374 0)
(0.0762429 -0.005085 0)
(0.0776958 -0.00507517 0)
(0.0791457 -0.0050642 0)
(0.0805925 -0.00505204 0)
(0.0820356 -0.00503865 0)
(0.0834748 -0.00502396 0)
(0.0849097 -0.00500793 0)
(0.0863399 -0.0049905 0)
(0.087765 -0.00497162 0)
(0.0891845 -0.00495125 0)
(0.090598 -0.00492932 0)
(0.0920051 -0.00490579 0)
(0.0934053 -0.0048806 0)
(0.0947982 -0.00485372 0)
(0.0961831 -0.00482508 0)
(0.0975597 -0.00479465 0)
(0.0989274 -0.00476237 0)
(0.100286 -0.0047282 0)
(0.101634 -0.0046921 0)
(0.102972 -0.00465402 0)
(0.104298 -0.00461392 0)
(0.105613 -0.00457177 0)
(0.106916 -0.00452753 0)
(0.108206 -0.00448116 0)
(0.109482 -0.00443264 0)
(0.110744 -0.00438193 0)
(0.111991 -0.00432902 0)
(0.113223 -0.00427387 0)
(0.114439 -0.00421646 0)
(0.115638 -0.00415678 0)
(0.11682 -0.00409482 0)
(0.117983 -0.00403057 0)
(0.119128 -0.00396401 0)
(0.120254 -0.00389515 0)
(0.12136 -0.00382399 0)
(0.122445 -0.00375053 0)
(0.123508 -0.00367478 0)
(0.12455 -0.00359676 0)
(0.125569 -0.00351648 0)
(0.126565 -0.00343397 0)
(0.127537 -0.00334925 0)
(0.128484 -0.00326235 0)
(0.129406 -0.00317331 0)
(0.130303 -0.00308216 0)
(0.131172 -0.00298895 0)
(0.132015 -0.00289373 0)
(0.132831 -0.00279655 0)
(0.133618 -0.00269746 0)
(0.134377 -0.00259653 0)
(0.135106 -0.00249383 0)
(0.135806 -0.0023894 0)
(0.136475 -0.00228334 0)
(0.137114 -0.00217572 0)
(0.137722 -0.00206661 0)
(0.138299 -0.0019561 0)
(0.138843 -0.00184427 0)
(0.139356 -0.00173121 0)
(0.139835 -0.00161702 0)
(0.140282 -0.00150178 0)
(0.140696 -0.00138559 0)
(0.141076 -0.00126855 0)
(0.141422 -0.00115077 0)
(0.141735 -0.00103233 0)
(0.142014 -0.000913353 0)
(0.142258 -0.000793929 0)
(0.142468 -0.000674166 0)
(0.142644 -0.00055417 0)
(0.142785 -0.000434044 0)
(0.142892 -0.000313893 0)
(0.142964 -0.000193823 0)
(0.143002 -7.39362e-05 0)
(0.143006 4.5664e-05 0)
(0.142975 0.000164876 0)
(0.142911 0.000283599 0)
(0.142812 0.000401735 0)
(0.142679 0.000519186 0)
(0.142513 0.000635858 0)
(0.142314 0.000751659 0)
(0.142081 0.000866497 0)
(0.141816 0.000980287 0)
(0.141518 0.00109294 0)
(0.141189 0.00120438 0)
(0.140827 0.00131453 0)
(0.140434 0.00142331 0)
(0.14001 0.00153065 0)
(0.139556 0.00163648 0)
(0.139071 0.00174074 0)
(0.138557 0.00184336 0)
(0.138014 0.00194429 0)
(0.137442 0.00204348 0)
(0.136842 0.00214087 0)
(0.136214 0.00223643 0)
(0.135559 0.0023301 0)
(0.134878 0.00242186 0)
(0.134171 0.00251166 0)
(0.133438 0.00259948 0)
(0.13268 0.00268529 0)
(0.131899 0.00276906 0)
(0.131093 0.00285078 0)
(0.130265 0.00293044 0)
(0.129414 0.00300801 0)
(0.128541 0.0030835 0)
(0.127646 0.00315689 0)
(0.126732 0.00322819 0)
(0.125797 0.00329739 0)
(0.124842 0.00336449 0)
(0.123869 0.00342952 0)
(0.122878 0.00349247 0)
(0.121868 0.00355335 0)
(0.120842 0.00361219 0)
(0.119799 0.00366899 0)
(0.118741 0.00372379 0)
(0.117667 0.00377659 0)
(0.116578 0.00382743 0)
(0.115475 0.00387632 0)
(0.114358 0.0039233 0)
(0.113228 0.0039684 0)
(0.112086 0.00401164 0)
(0.110932 0.00405306 0)
(0.109766 0.00409269 0)
(0.108589 0.00413056 0)
(0.107401 0.00416671 0)
(0.106204 0.00420118 0)
(0.104996 0.004234 0)
(0.10378 0.00426521 0)
(0.102555 0.00429485 0)
(0.101322 0.00432296 0)
(0.100081 0.00434957 0)
(0.0988333 0.00437473 0)
(0.0975782 0.00439848 0)
(0.0963165 0.00442086 0)
(0.0950487 0.0044419 0)
(0.0937752 0.00446165 0)
(0.0924962 0.00448015 0)
(0.0912121 0.00449744 0)
(0.0899234 0.00451356 0)
(0.0886302 0.00452855 0)
(0.087333 0.00454244 0)
(0.086032 0.00455529 0)
(0.0847275 0.00456712 0)
(0.0834198 0.00457797 0)
(0.0821092 0.00458789 0)
(0.080796 0.00459691 0)
(0.0794803 0.00460507 0)
(0.0781625 0.0046124 0)
(0.0768428 0.00461895 0)
(0.0755213 0.00462474 0)
(0.0741983 0.00462982 0)
(0.072874 0.00463421 0)
(0.0715486 0.00463794 0)
(0.0702223 0.00464107 0)
(0.0688951 0.0046436 0)
(0.0675674 0.00464559 0)
(0.0662392 0.00464705 0)
(0.0649108 0.00464801 0)
(0.0635821 0.00464852 0)
(0.0622534 0.00464859 0)
(0.0609248 0.00464825 0)
(0.0595963 0.00464754 0)
(0.0582682 0.00464647 0)
(0.0569404 0.00464508 0)
(0.0556131 0.00464339 0)
(0.0542864 0.00464142 0)
(0.0529603 0.00463919 0)
(0.0516348 0.00463674 0)
(0.0503102 0.00463408 0)
(0.0489863 0.00463123 0)
(0.0476634 0.00462822 0)
(0.0463413 0.00462506 0)
(0.0450202 0.00462178 0)
(0.0437 0.00461839 0)
(0.0423809 0.00461492 0)
(0.0410627 0.00461137 0)
(0.0397457 0.00460777 0)
(0.0384296 0.00460413 0)
(0.0371147 0.00460048 0)
(0.0358008 0.00459681 0)
(0.0344879 0.00459315 0)
(0.0331762 0.00458952 0)
(0.0318654 0.00458592 0)
(0.0305558 0.00458237 0)
(0.0292471 0.00457888 0)
(0.0279394 0.00457546 0)
(0.0266327 0.00457212 0)
(0.025327 0.00456888 0)
(0.0240222 0.00456574 0)
(0.0227183 0.00456271 0)
(0.0214152 0.0045598 0)
(0.020113 0.00455702 0)
(0.0188115 0.00455438 0)
(0.0175108 0.00455188 0)
(0.0162108 0.00454954 0)
(0.0149115 0.00454735 0)
(0.0136127 0.00454532 0)
(0.0123146 0.00454346 0)
(0.0110169 0.00454177 0)
(0.00971968 0.00454026 0)
(0.00842289 0.00453894 0)
(0.00712645 0.00453779 0)
(0.00583032 0.00453683 0)
(0.00453443 0.00453606 0)
(0.00323874 0.00453548 0)
(0.00194319 0.0045351 0)
(0.000647721 0.00453492 0)
(0.000716833 -0.00645392 0)
(0.00215054 -0.00645426 0)
(0.00358436 -0.00645494 0)
(0.00501837 -0.00645595 0)
(0.00645265 -0.00645729 0)
(0.00788727 -0.00645896 0)
(0.00932231 -0.00646095 0)
(0.0107578 -0.00646325 0)
(0.0121939 -0.00646586 0)
(0.0136306 -0.00646877 0)
(0.015068 -0.00647196 0)
(0.0165062 -0.00647543 0)
(0.0179452 -0.00647917 0)
(0.0193851 -0.00648315 0)
(0.0208259 -0.00648737 0)
(0.0222677 -0.00649181 0)
(0.0237105 -0.00649645 0)
(0.0251544 -0.00650127 0)
(0.0265995 -0.00650625 0)
(0.0280457 -0.00651137 0)
(0.0294931 -0.00651662 0)
(0.0309417 -0.00652195 0)
(0.0323915 -0.00652736 0)
(0.0338426 -0.00653281 0)
(0.0352949 -0.00653828 0)
(0.0367485 -0.00654373 0)
(0.0382034 -0.00654913 0)
(0.0396595 -0.00655446 0)
(0.0411168 -0.00655968 0)
(0.0425753 -0.00656475 0)
(0.044035 -0.00656964 0)
(0.0454959 -0.00657432 0)
(0.0469578 -0.00657873 0)
(0.0484207 -0.00658285 0)
(0.0498845 -0.00658662 0)
(0.0513492 -0.00659001 0)
(0.0528147 -0.00659297 0)
(0.0542809 -0.00659545 0)
(0.0557477 -0.00659741 0)
(0.0572149 -0.00659879 0)
(0.0586824 -0.00659955 0)
(0.0601501 -0.00659963 0)
(0.0616178 -0.00659899 0)
(0.0630854 -0.00659756 0)
(0.0645526 -0.00659528 0)
(0.0660194 -0.00659211 0)
(0.0674854 -0.00658799 0)
(0.0689505 -0.00658284 0)
(0.0704144 -0.00657662 0)
(0.071877 -0.00656926 0)
(0.0733378 -0.0065607 0)
(0.0747967 -0.00655087 0)
(0.0762534 -0.00653972 0)
(0.0777076 -0.00652717 0)
(0.0791589 -0.00651315 0)
(0.080607 -0.00649761 0)
(0.0820516 -0.00648048 0)
(0.0834923 -0.00646168 0)
(0.0849288 -0.00644116 0)
(0.0863606 -0.00641884 0)
(0.0877873 -0.00639466 0)
(0.0892086 -0.00636855 0)
(0.0906239 -0.00634044 0)
(0.0920329 -0.00631027 0)
(0.093435 -0.00627798 0)
(0.0948298 -0.0062435 0)
(0.0962168 -0.00620676 0)
(0.0975955 -0.00616771 0)
(0.0989653 -0.00612629 0)
(0.100326 -0.00608243 0)
(0.101676 -0.00603608 0)
(0.103016 -0.00598719 0)
(0.104345 -0.00593571 0)
(0.105663 -0.00588158 0)
(0.106968 -0.00582475 0)
(0.10826 -0.00576519 0)
(0.109538 -0.00570286 0)
(0.110803 -0.00563771 0)
(0.112053 -0.00556971 0)
(0.113287 -0.00549883 0)
(0.114506 -0.00542505 0)
(0.115707 -0.00534835 0)
(0.116892 -0.0052687 0)
(0.118058 -0.0051861 0)
(0.119206 -0.00510053 0)
(0.120334 -0.00501199 0)
(0.121442 -0.00492049 0)
(0.12253 -0.00482603 0)
(0.123596 -0.00472861 0)
(0.124641 -0.00462827 0)
(0.125662 -0.00452502 0)
(0.126661 -0.00441889 0)
(0.127635 -0.00430991 0)
(0.128585 -0.00419812 0)
(0.129509 -0.00408357 0)
(0.130408 -0.00396631 0)
(0.13128 -0.00384639 0)
(0.132125 -0.00372387 0)
(0.132943 -0.00359883 0)
(0.133732 -0.00347133 0)
(0.134493 -0.00334145 0)
(0.135225 -0.00320928 0)
(0.135926 -0.0030749 0)
(0.136598 -0.00293841 0)
(0.137238 -0.0027999 0)
(0.137848 -0.00265947 0)
(0.138426 -0.00251724 0)
(0.138972 -0.00237331 0)
(0.139486 -0.00222779 0)
(0.139967 -0.00208081 0)
(0.140415 -0.00193248 0)
(0.140829 -0.00178293 0)
(0.14121 -0.00163229 0)
(0.141558 -0.00148067 0)
(0.141871 -0.00132822 0)
(0.14215 -0.00117507 0)
(0.142395 -0.00102135 0)
(0.142605 -0.000867189 0)
(0.142781 -0.000712728 0)
(0.142923 -0.000558101 0)
(0.143029 -0.000403443 0)
(0.143102 -0.000248889 0)
(0.143139 -9.45724e-05 0)
(0.143143 5.93735e-05 0)
(0.143111 0.000212818 0)
(0.143046 0.000365631 0)
(0.142947 0.000517686 0)
(0.142813 0.000668857 0)
(0.142646 0.000819022 0)