/*--------------------------------*- C++ -*----------------------------------*\
| =========                 |                                                 |
| \\      /  F ield         | OpenFOAM: The Open Source CFD Toolbox           |
|  \\    /   O peration     | Version:  v2012                                 |
|   \\  /    A nd           | Website:  www.openfoam.com                      |
|    \\/     M anipulation  |                                                 |
\*---------------------------------------------------------------------------*/
FoamFile
{
    version     2.0;
    format      ascii;
    class       surfaceScalarField;
    location    "17.1";
    object      phi;
}
// * * * * * * * * * * * * * * * * * * * * * * * * * * * * * * * * * * * * * //

dimensions      [0 3 -1 0 0 0 0];
oriented        oriented;


internalField   nonuniform List<scalar> 
130560
(
3.2989e-06
-3.2989e-06
6.59798e-06
-3.29908e-06
9.89741e-06
-3.29943e-06
1.31974e-05
-3.29996e-06
1.6498e-05
-3.30065e-06
1.97995e-05
-3.30152e-06
2.31021e-05
-3.30256e-06
2.64059e-05
-3.30377e-06
2.9711e-05
-3.30514e-06
3.30177e-05
-3.30667e-06
3.6326e-05
-3.30836e-06
3.96362e-05
-3.3102e-06
4.29484e-05
-3.3122e-06
4.62628e-05
-3.31434e-06
4.95794e-05
-3.31661e-06
5.28984e-05
-3.31902e-06
5.622e-05
-3.32156e-06
5.95442e-05
-3.32422e-06
6.28712e-05
-3.32699e-06
6.6201e-05
-3.32986e-06
6.95339e-05
-3.33284e-06
7.28698e-05
-3.3359e-06
7.62088e-05
-3.33905e-06
7.95511e-05
-3.34226e-06
8.28966e-05
-3.34553e-06
8.62455e-05
-3.34886e-06
8.95977e-05
-3.35222e-06
9.29533e-05
-3.35561e-06
9.63123e-05
-3.35901e-06
9.96747e-05
-3.36242e-06
0.000103041
-3.36581e-06
0.00010641
-3.36917e-06
0.000109782
-3.3725e-06
0.000113158
-3.37576e-06
0.000116537
-3.37896e-06
0.000119919
-3.38207e-06
0.000123304
-3.38506e-06
0.000126692
-3.38794e-06
0.000130083
-3.39067e-06
0.000133476
-3.39324e-06
0.000136872
-3.39562e-06
0.000140269
-3.3978e-06
0.000143669
-3.39976e-06
0.000147071
-3.40147e-06
0.000150473
-3.40291e-06
0.000153878
-3.40406e-06
0.000157282
-3.40489e-06
0.000160688
-3.40537e-06
0.000164093
-3.40549e-06
0.000167498
-3.40521e-06
0.000170903
-3.40451e-06
0.000174306
-3.40336e-06
0.000177708
-3.40173e-06
0.000181108
-3.39959e-06
0.000184505
-3.39692e-06
0.000187898
-3.39368e-06
0.000191288
-3.38984e-06
0.000194673
-3.38537e-06
0.000198054
-3.38024e-06
0.000201428
-3.37441e-06
0.000204796
-3.36786e-06
0.000208157
-3.36054e-06
0.000211509
-3.35243e-06
0.000214852
-3.34349e-06
0.000218186
-3.33368e-06
0.000221509
-3.32298e-06
0.00022482
-3.31135e-06
0.000228119
-3.29874e-06
0.000231404
-3.28514e-06
0.000234675
-3.27049e-06
0.00023793
-3.25477e-06
0.000241168
-3.23795e-06
0.000244388
-3.21998e-06
0.000247588
-3.20084e-06
0.000250769
-3.18048e-06
0.000253928
-3.15889e-06
0.000257064
-3.13602e-06
0.000260176
-3.11184e-06
0.000263262
-3.08633e-06
0.000266321
-3.05944e-06
0.000269353
-3.03117e-06
0.000272354
-3.00146e-06
0.000275324
-2.97031e-06
0.000278262
-2.93769e-06
0.000281166
-2.90356e-06
0.000284033
-2.86792e-06
0.000286864
-2.83074e-06
0.000289656
-2.792e-06
0.000292408
-2.75168e-06
0.000295118
-2.70978e-06
0.000297784
-2.66627e-06
0.000300405
-2.62116e-06
0.00030298
-2.57443e-06
0.000305506
-2.52608e-06
0.000307982
-2.47611e-06
0.000310406
-2.42451e-06
0.000312778
-2.37129e-06
0.000315094
-2.31646e-06
0.000317354
-2.26003e-06
0.000319556
-2.202e-06
0.000321698
-2.1424e-06
0.00032378
-2.08124e-06
0.000325798
-2.01855e-06
0.000327753
-1.95434e-06
0.000329641
-1.88865e-06
0.000331463
-1.8215e-06
0.000333216
-1.75293e-06
0.000334899
-1.68299e-06
0.00033651
-1.6117e-06
0.000338049
-1.53911e-06
0.000339515
-1.46527e-06
0.000340905
-1.39023e-06
0.000342219
-1.31403e-06
0.000343456
-1.23674e-06
0.000344614
-1.15842e-06
0.000345693
-1.07911e-06
0.000346692
-9.98887e-07
0.00034761
-9.17813e-07
0.000348446
-8.35955e-07
0.000349199
-7.53381e-07
0.000349869
-6.70162e-07
0.000350456
-5.8637e-07
0.000350958
-5.02078e-07
0.000351375
-4.17362e-07
0.000351708
-3.32296e-07
0.000351954
-2.46958e-07
0.000352116
-1.61424e-07
0.000352192
-7.57732e-08
0.000352182
9.91785e-09
0.000352086
9.55711e-08
0.000351905
1.81109e-07
0.000351639
2.66454e-07
0.000351287
3.51531e-07
0.000350851
4.36263e-07
0.00035033
5.20576e-07
0.000349726
6.04397e-07
0.000349038
6.87654e-07
0.000348268
7.70276e-07
0.000347416
8.52196e-07
0.000346482
9.33346e-07
0.000345469
1.01366e-06
0.000344376
1.09308e-06
0.000343204
1.17155e-06
0.000341955
1.249e-06
0.00034063
1.32538e-06
0.000339229
1.40064e-06
0.000337754
1.47474e-06
0.000336207
1.54762e-06
0.000334587
1.61923e-06
0.000332898
1.68955e-06
0.000331139
1.75853e-06
0.000329313
1.82614e-06
0.000327421
1.89234e-06
0.000325464
1.95711e-06
0.000323443
2.02042e-06
0.000321361
2.08225e-06
0.000319219
2.14258e-06
0.000317017
2.20139e-06
0.000314759
2.25866e-06
0.000312444
2.3144e-06
0.000310076
2.36858e-06
0.000307654
2.42121e-06
0.000305182
2.47228e-06
0.00030266
2.52178e-06
0.000300091
2.56973e-06
0.000297474
2.61613e-06
0.000294813
2.66097e-06
0.000292109
2.70428e-06
0.000289363
2.74606e-06
0.000286577
2.78632e-06
0.000283752
2.82509e-06
0.000280889
2.86236e-06
0.000277991
2.89818e-06
0.000275059
2.93254e-06
0.000272093
2.96548e-06
0.000269096
2.99702e-06
0.000266069
3.02718e-06
0.000263013
3.05598e-06
0.000259929
3.08346e-06
0.00025682
3.10963e-06
0.000253685
3.13453e-06
0.000250527
3.15819e-06
0.000247347
3.18062e-06
0.000244145
3.20187e-06
0.000240923
3.22197e-06
0.000237682
3.24094e-06
0.000234423
3.25881e-06
0.000231147
3.27562e-06
0.000227856
3.2914e-06
0.00022455
3.30618e-06
0.00022123
3.32e-06
0.000217897
3.33287e-06
0.000214552
3.34484e-06
0.000211196
3.35594e-06
0.00020783
3.36619e-06
0.000204454
3.37564e-06
0.00020107
3.38431e-06
0.000197678
3.39223e-06
0.000194278
3.39943e-06
0.000190872
3.40594e-06
0.000187461
3.4118e-06
0.000184043
3.41703e-06
0.000180622
3.42166e-06
0.000177196
3.42572e-06
0.000173767
3.42924e-06
0.000170335
3.43224e-06
0.0001669
3.43476e-06
0.000163463
3.43681e-06
0.000160025
3.43843e-06
0.000156585
3.43964e-06
0.000153145
3.44047e-06
0.000149704
3.44093e-06
0.000146263
3.44106e-06
0.000142822
3.44087e-06
0.000139381
3.44039e-06
0.000135942
3.43964e-06
0.000132503
3.43865e-06
0.000129066
3.43742e-06
0.00012563
3.43599e-06
0.000122195
3.43437e-06
0.000118763
3.43258e-06
0.000115332
3.43064e-06
0.000111903
3.42857e-06
0.000108477
3.42638e-06
0.000105053
3.42409e-06
0.000101631
3.42172e-06
9.82119e-05
3.41928e-06
9.47951e-05
3.41679e-06
9.13809e-05
3.41425e-06
8.79692e-05
3.41169e-06
8.45601e-05
3.40912e-06
8.11535e-05
3.40655e-06
7.77495e-05
3.40399e-06
7.43481e-05
3.40145e-06
7.09491e-05
3.39895e-06
6.75526e-05
3.39649e-06
6.41585e-05
3.39408e-06
6.07668e-05
3.39174e-06
5.73773e-05
3.38948e-06
5.399e-05
3.38729e-06
5.06048e-05
3.38519e-06
4.72217e-05
3.38319e-06
4.38404e-05
3.38129e-06
4.04609e-05
3.3795e-06
3.7083e-05
3.37783e-06
3.37068e-05
3.37627e-06
3.03319e-05
3.37484e-06
2.69584e-05
3.37355e-06
2.3586e-05
3.37238e-06
2.02146e-05
3.37136e-06
1.68442e-05
3.37047e-06
1.34744e-05
3.36973e-06
1.01053e-05
3.36913e-06
6.73663e-06
3.36868e-06
3.36824e-06
3.36839e-06
3.36824e-06
3.29873e-06
-6.59763e-06
6.59764e-06
-6.59799e-06
9.8969e-06
-6.59869e-06
1.31967e-05
-6.59974e-06
1.64972e-05
-6.60114e-06
1.97985e-05
-6.60288e-06
2.31009e-05
-6.60496e-06
2.64045e-05
-6.60738e-06
2.97095e-05
-6.61012e-06
3.3016e-05
-6.61319e-06
3.63243e-05
-6.61657e-06
3.96343e-05
-6.62026e-06
4.29464e-05
-6.62426e-06
4.62606e-05
-6.62854e-06
4.95771e-05
-6.6331e-06
5.2896e-05
-6.63792e-06
5.62174e-05
-6.643e-06
5.95415e-05
-6.64833e-06
6.28684e-05
-6.65388e-06
6.61982e-05
-6.65964e-06
6.95309e-05
-6.66559e-06
7.28668e-05
-6.67173e-06
7.62057e-05
-6.67803e-06
7.95479e-05
-6.68447e-06
8.28934e-05
-6.69103e-06
8.62423e-05
-6.69768e-06
8.95945e-05
-6.70442e-06
9.29501e-05
-6.71121e-06
9.63091e-05
-6.71803e-06
9.96715e-05
-6.72485e-06
0.000103037
-6.73165e-06
0.000106407
-6.73839e-06
0.000109779
-6.74506e-06
0.000113155
-6.75161e-06
0.000116534
-6.75801e-06
0.000119916
-6.76424e-06
0.000123301
-6.77026e-06
0.000126689
-6.77602e-06
0.00013008
-6.7815e-06
0.000133474
-6.78666e-06
0.00013687
-6.79145e-06
0.000140268
-6.79584e-06
0.000143668
-6.79977e-06
0.000147069
-6.80322e-06
0.000150473
-6.80612e-06
0.000153877
-6.80844e-06
0.000157282
-6.81012e-06
0.000160688
-6.81111e-06
0.000164094
-6.81137e-06
0.000167499
-6.81084e-06
0.000170904
-6.80947e-06
0.000174308
-6.8072e-06
0.00017771
-6.80397e-06
0.000181111
-6.79973e-06
0.000184508
-6.79441e-06
0.000187902
-6.78796e-06
0.000191293
-6.78031e-06
0.000194679
-6.7714e-06
0.00019806
-6.76117e-06
0.000201435
-6.74955e-06
0.000204804
-6.73647e-06
0.000208165
-6.72188e-06
0.000211518
-6.70569e-06
0.000214863
-6.68784e-06
0.000218197
-6.66827e-06
0.000221521
-6.6469e-06
0.000224833
-6.62366e-06
0.000228133
-6.59849e-06
0.000231419
-6.57131e-06
0.000234691
-6.54205e-06
0.000237947
-6.51065e-06
0.000241186
-6.47704e-06
0.000244407
-6.44113e-06
0.000247609
-6.40288e-06
0.000250791
-6.36221e-06
0.000253951
-6.31905e-06
0.000257088
-6.27334e-06
0.000260201
-6.22502e-06
0.000263289
-6.17402e-06
0.00026635
-6.12028e-06
0.000269382
-6.06375e-06
0.000272385
-6.00438e-06
0.000275357
-5.9421e-06
0.000278296
-5.87687e-06
0.000281201
-5.80865e-06
0.000284071
-5.73738e-06
0.000286903
-5.66303e-06
0.000289697
-5.58556e-06
0.00029245
-5.50495e-06
0.000295161
-5.42115e-06
0.000297829
-5.33416e-06
0.000300452
-5.24394e-06
0.000303028
-5.15048e-06
0.000305556
-5.05378e-06
0.000308034
-4.95383e-06
0.00031046
-4.85063e-06
0.000312833
-4.74419e-06
0.000315151
-4.63452e-06
0.000317412
-4.52165e-06
0.000319616
-4.40558e-06
0.00032176
-4.28636e-06
0.000323843
-4.16402e-06
0.000325863
-4.0386e-06
0.000327818
-3.91016e-06
0.000329709
-3.77874e-06
0.000331531
-3.64441e-06
0.000333286
-3.50725e-06
0.00033497
-3.36731e-06
0.000336583
-3.22469e-06
0.000338123
-3.07947e-06
0.00033959
-2.93174e-06
0.000340981
-2.7816e-06
0.000342296
-2.62916e-06
0.000343534
-2.47452e-06
0.000344694
-2.3178e-06
0.000345774
-2.15913e-06
0.000346773
-1.99862e-06
0.000347692
-1.83641e-06
0.000348529
-1.67262e-06
0.000349283
-1.5074e-06
0.000349953
-1.34089e-06
0.00035054
-1.17323e-06
0.000351043
-1.00458e-06
0.00035146
-8.35067e-07
0.000351793
-6.64859e-07
0.00035204
-4.94105e-07
0.000352202
-3.22961e-07
0.000352277
-1.51581e-07
0.000352267
1.98791e-08
0.000352172
1.91263e-07
0.00035199
3.62416e-07
0.000351724
5.33183e-07
0.000351372
7.03412e-07
0.000350935
8.72951e-07
0.000350414
1.04165e-06
0.000349809
1.20936e-06
0.000349121
1.37595e-06
0.00034835
1.54126e-06
0.000347497
1.70517e-06
0.000346563
1.86753e-06
0.000345548
2.02823e-06
0.000344454
2.18713e-06
0.000343282
2.34411e-06
0.000342031
2.49907e-06
0.000340705
2.65189e-06
0.000339303
2.80246e-06
0.000337827
2.9507e-06
0.000336278
3.0965e-06
0.000334658
3.23977e-06
0.000332967
3.38044e-06
0.000331207
3.51844e-06
0.000329379
3.65368e-06
0.000327486
3.78612e-06
0.000325527
3.91568e-06
0.000323505
4.04232e-06
0.000321421
4.166e-06
0.000319277
4.28667e-06
0.000317074
4.40431e-06
0.000314814
4.51887e-06
0.000312498
4.63035e-06
0.000310128
4.73873e-06
0.000307705
4.84398e-06
0.000305231
4.94612e-06
0.000302708
5.04513e-06
0.000300137
5.14102e-06
0.000297519
5.2338e-06
0.000294857
5.32349e-06
0.000292151
5.41009e-06
0.000289403
5.49363e-06
0.000286615
5.57415e-06
0.000283789
5.65166e-06
0.000280925
5.7262e-06
0.000278025
5.7978e-06
0.000275091
5.86651e-06
0.000272125
5.93237e-06
0.000269126
5.99542e-06
0.000266098
6.05572e-06
0.00026304
6.1133e-06
0.000259956
6.16822e-06
0.000256845
6.22054e-06
0.000253709
6.27031e-06
0.000250549
6.31759e-06
0.000247368
6.36244e-06
0.000244165
6.40491e-06
0.000240941
6.44507e-06
0.000237699
6.48297e-06
0.00023444
6.51869e-06
0.000231163
6.55228e-06
0.000227871
6.58381e-06
0.000224563
6.61334e-06
0.000221242
6.64093e-06
0.000217909
6.66665e-06
0.000214563
6.69055e-06
0.000211206
6.71272e-06
0.000207839
6.7332e-06
0.000204463
6.75206e-06
0.000201078
6.76936e-06
0.000197685
6.78517e-06
0.000194285
6.79955e-06
0.000190878
6.81255e-06
0.000187466
6.82423e-06
0.000184048
6.83466e-06
0.000180626
6.84389e-06
0.000177199
6.85199e-06
0.00017377
6.85899e-06
0.000170337
6.86497e-06
0.000166902
6.86998e-06
0.000163465
6.87406e-06
0.000160026
6.87727e-06
0.000156586
6.87967e-06
0.000153145
6.88129e-06
0.000149704
6.8822e-06
0.000146262
6.88243e-06
0.000142821
6.88203e-06
0.00013938
6.88105e-06
0.00013594
6.87953e-06
0.000132502
6.87752e-06
0.000129064
6.87505e-06
0.000125628
6.87217e-06
0.000122193
6.86891e-06
0.000118761
6.86531e-06
0.00011533
6.86142e-06
0.000111901
6.85725e-06
0.000108475
6.85286e-06
0.00010505
6.84827e-06
0.000101629
6.84351e-06
9.82093e-05
6.83861e-06
9.47925e-05
6.83361e-06
9.13782e-05
6.82853e-06
8.79665e-05
6.8234e-06
8.45574e-05
6.81824e-06
8.11509e-05
6.81308e-06
7.77469e-05
6.80795e-06
7.43455e-05
6.80286e-06
7.09466e-05
6.79785e-06
6.75502e-05
6.79292e-06
6.41561e-05
6.7881e-06
6.07645e-05
6.78341e-06
5.73751e-05
6.77887e-06
5.39879e-05
6.77449e-06
5.06028e-05
6.77028e-06
4.72197e-05
6.76627e-06
4.38385e-05
6.76247e-06
4.04591e-05
6.75888e-06
3.70814e-05
6.75553e-06
3.37053e-05
6.75241e-06
3.03306e-05
6.74955e-06
2.69572e-05
6.74695e-06
2.35849e-05
6.74462e-06
2.02137e-05
6.74257e-06
1.68434e-05
6.74079e-06
1.34738e-05
6.73931e-06
1.01049e-05
6.73811e-06
6.73632e-06
6.73722e-06
3.36809e-06
6.73662e-06
6.73633e-06
3.29838e-06
-9.89601e-06
6.59693e-06
-9.89654e-06
9.89584e-06
-9.8976e-06
1.31953e-05
-9.89918e-06
1.64954e-05
-9.90128e-06
1.97964e-05
-9.90389e-06
2.30985e-05
-9.90702e-06
2.64018e-05
-9.91065e-06
2.97064e-05
-9.91478e-06
3.30126e-05
-9.91939e-06
3.63205e-05
-9.92447e-06
3.96303e-05
-9.93002e-06
4.29421e-05
-9.93602e-06
4.6256e-05
-9.94246e-06
4.95722e-05
-9.94931e-06
5.28908e-05
-9.95656e-06
5.6212e-05
-9.9642e-06
5.95359e-05
-9.9722e-06
6.28626e-05
-9.98055e-06
6.61922e-05
-9.98921e-06
6.95247e-05
-9.99817e-06
7.28604e-05
-1.00074e-05
7.61992e-05
-1.00169e-05
7.95413e-05
-1.00265e-05
8.28867e-05
-1.00364e-05
8.62355e-05
-1.00464e-05
8.95876e-05
-1.00566e-05
9.29432e-05
-1.00668e-05
9.63022e-05
-1.0077e-05
9.96646e-05
-1.00873e-05
0.000103031
-1.00975e-05
0.0001064
-1.01077e-05
0.000109772
-1.01177e-05
0.000113148
-1.01276e-05
0.000116528
-1.01372e-05
0.00011991
-1.01466e-05
0.000123296
-1.01557e-05
0.000126684
-1.01644e-05
0.000130075
-1.01727e-05
0.000133469
-1.01804e-05
0.000136865
-1.01877e-05
0.000140264
-1.01943e-05
0.000143664
-1.02003e-05
0.000147066
-1.02055e-05
0.00015047
-1.02099e-05
0.000153875
-1.02134e-05
0.000157281
-1.0216e-05
0.000160688
-1.02176e-05
0.000164094
-1.0218e-05
0.000167501
-1.02173e-05
0.000170907
-1.02153e-05
0.000174311
-1.0212e-05
0.000177715
-1.02072e-05
0.000181116
-1.02009e-05
0.000184514
-1.0193e-05
0.00018791
-1.01834e-05
0.000191302
-1.0172e-05
0.000194689
-1.01588e-05
0.000198071
-1.01435e-05
0.000201448
-1.01261e-05
0.000204818
-1.01066e-05
0.000208181
-1.00848e-05
0.000211536
-1.00606e-05
0.000214882
-1.00339e-05
0.000218218
-1.00046e-05
0.000221544
-9.97268e-06
0.000224858
-9.93791e-06
0.00022816
-9.90024e-06
0.000231448
-9.85956e-06
0.000234722
-9.81576e-06
0.00023798
-9.76875e-06
0.000241222
-9.71841e-06
0.000244445
-9.66464e-06
0.00024765
-9.60735e-06
0.000250834
-9.54642e-06
0.000253996
-9.48176e-06
0.000257136
-9.41328e-06
0.000260252
-9.34087e-06
0.000263343
-9.26444e-06
0.000266406
-9.18391e-06
0.000269442
-9.09919e-06
0.000272448
-9.01019e-06
0.000275422
-8.91684e-06
0.000278364
-8.81906e-06
0.000281273
-8.71677e-06
0.000284145
-8.60992e-06
0.000286981
-8.49844e-06
0.000289777
-8.38228e-06
0.000292534
-8.2614e-06
0.000295248
-8.13573e-06
0.000297919
-8.00526e-06
0.000300545
-7.86995e-06
0.000303125
-7.72978e-06
0.000305656
-7.58473e-06
0.000308137
-7.43481e-06
0.000310566
-7.28e-06
0.000312942
-7.12033e-06
0.000315263
-6.9558e-06
0.000317528
-6.78645e-06
0.000319735
-6.61231e-06
0.000321882
-6.43344e-06
0.000323968
-6.24987e-06
0.000325991
-6.06168e-06
0.00032795
-5.86895e-06
0.000329843
-5.67175e-06
0.000331669
-5.47017e-06
0.000333426
-5.26433e-06
0.000335113
-5.05432e-06
0.000336728
-4.84028e-06
0.000338271
-4.62233e-06
0.00033974
-4.40062e-06
0.000341134
-4.17528e-06
0.000342451
-3.94648e-06
0.000343691
-3.71438e-06
0.000344852
-3.47916e-06
0.000345934
-3.24099e-06
0.000346935
-3.00006e-06
0.000347856
-2.75657e-06
0.000348694
-2.51072e-06
0.000349449
-2.26272e-06
0.000350121
-2.01277e-06
0.000350709
-1.7611e-06
0.000351212
-1.50793e-06
0.000351631
-1.25347e-06
0.000351964
-9.9797e-07
0.000352211
-7.41647e-07
0.000352373
-4.84736e-07
0.000352449
-2.27471e-07
0.000352439
2.99136e-08
0.000352343
2.87184e-07
0.000352161
5.44106e-07
0.000351894
8.00448e-07
0.000351541
1.05598e-06
0.000351104
1.31048e-06
0.000350582
1.56371e-06
0.000349976
1.81546e-06
0.000349286
2.06551e-06
0.000348514
2.31365e-06
0.000347659
2.55968e-06
0.000346723
2.80338e-06
0.000345707
3.04458e-06
0.000344611
3.28308e-06
0.000343437
3.51871e-06
0.000342184
3.75128e-06
0.000340856
3.98064e-06
0.000339451
4.20662e-06
0.000337973
4.42909e-06
0.000336422
4.6479e-06
0.000334798
4.86291e-06
0.000333105
5.07401e-06
0.000331342
5.28109e-06
0.000329512
5.48404e-06
0.000327615
5.68276e-06
0.000325654
5.87717e-06
0.000323629
6.06719e-06
0.000321542
6.25276e-06
0.000319395
6.43381e-06
0.000317189
6.61029e-06
0.000314926
6.78217e-06
0.000312607
6.94941e-06
0.000310233
7.11199e-06
0.000307807
7.26988e-06
0.000305331
7.42308e-06
0.000302804
7.57159e-06
0.00030023
7.71542e-06
0.000297609
7.85458e-06
0.000294943
7.98908e-06
0.000292234
8.11896e-06
0.000289484
8.24424e-06
0.000286693
8.36498e-06
0.000283863
8.4812e-06
0.000280997
8.59296e-06
0.000278094
8.70032e-06
0.000275157
8.80334e-06
0.000272188
8.90207e-06
0.000269186
8.99659e-06
0.000266155
9.08696e-06
0.000263095
9.17327e-06
0.000260008
9.25559e-06
0.000256894
9.334e-06
0.000253756
9.40858e-06
0.000250594
9.47943e-06
0.00024741
9.54662e-06
0.000244205
9.61025e-06
0.000240979
9.67041e-06
0.000237735
9.7272e-06
0.000234473
9.78069e-06
0.000231195
9.831e-06
0.0002279
9.87821e-06
0.000224591
9.92242e-06
0.000221268
9.96373e-06
0.000217933
1.00022e-05
0.000214585
1.0038e-05
0.000211227
1.00712e-05
0.000207858
1.01018e-05
0.00020448
1.013e-05
0.000201094
1.01559e-05
0.000197699
1.01796e-05
0.000194298
1.0201e-05
0.00019089
1.02205e-05
0.000187476
1.02379e-05
0.000184057
1.02535e-05
0.000180634
1.02673e-05
0.000177207
1.02793e-05
0.000173776
1.02898e-05
0.000170342
1.02987e-05
0.000166906
1.03061e-05
0.000163468
1.03122e-05
0.000160028
1.03169e-05
0.000156587
1.03205e-05
0.000153146
1.03228e-05
0.000149704
1.03241e-05
0.000146262
1.03244e-05
0.00014282
1.03238e-05
0.000139379
1.03222e-05
0.000135939
1.03199e-05
0.000132499
1.03168e-05
0.000129061
1.03131e-05
0.000125625
1.03087e-05
0.00012219
1.03038e-05
0.000118757
1.02983e-05
0.000115326
1.02925e-05
0.000111897
1.02862e-05
0.00010847
1.02795e-05
0.000105046
1.02726e-05
0.000101624
1.02654e-05
9.82044e-05
1.02581e-05
9.47874e-05
1.02505e-05
9.13731e-05
1.02429e-05
8.79614e-05
1.02351e-05
8.45523e-05
1.02274e-05
8.11458e-05
1.02196e-05
7.77418e-05
1.02119e-05
7.43405e-05
1.02042e-05
7.09417e-05
1.01967e-05
6.75454e-05
1.01892e-05
6.41515e-05
1.0182e-05
6.076e-05
1.01749e-05
5.73707e-05
1.01681e-05
5.39837e-05
1.01615e-05
5.05988e-05
1.01552e-05
4.72159e-05
1.01491e-05
4.3835e-05
1.01434e-05
4.04558e-05
1.0138e-05
3.70783e-05
1.0133e-05
3.37025e-05
1.01283e-05
3.0328e-05
1.0124e-05
2.69549e-05
1.01201e-05
2.35829e-05
1.01166e-05
2.0212e-05
1.01135e-05
1.68419e-05
1.01108e-05
1.34726e-05
1.01086e-05
1.0104e-05
1.01068e-05
6.73572e-06
1.01055e-05
3.36779e-06
1.01046e-05
1.01041e-05
3.29785e-06
-1.31939e-05
6.59587e-06
-1.31946e-05
9.89425e-06
-1.3196e-05
1.31932e-05
-1.31981e-05
1.64928e-05
-1.32009e-05
1.97933e-05
-1.32044e-05
2.30948e-05
-1.32086e-05
2.63976e-05
-1.32134e-05
2.97018e-05
-1.32189e-05
3.30075e-05
-1.32251e-05
3.63149e-05
-1.32319e-05
3.96242e-05
-1.32393e-05
4.29356e-05
-1.32474e-05
4.62491e-05
-1.3256e-05
4.95649e-05
-1.32651e-05
5.28831e-05
-1.32748e-05
5.6204e-05
-1.3285e-05
5.95275e-05
-1.32957e-05
6.28538e-05
-1.33069e-05
6.61831e-05
-1.33185e-05
6.95154e-05
-1.33305e-05
7.28508e-05
-1.33428e-05
7.61895e-05
-1.33555e-05
7.95314e-05
-1.33684e-05
8.28766e-05
-1.33816e-05
8.62252e-05
-1.33951e-05
8.95773e-05
-1.34086e-05
9.29328e-05
-1.34223e-05
9.62918e-05
-1.3436e-05
9.96543e-05
-1.34498e-05
0.00010302
-1.34635e-05
0.00010639
-1.34771e-05
0.000109762
-1.34906e-05
0.000113139
-1.35038e-05
0.000116518
-1.35167e-05
0.000119901
-1.35293e-05
0.000123287
-1.35415e-05
0.000126675
-1.35532e-05
0.000130067
-1.35643e-05
0.000133461
-1.35748e-05
0.000136858
-1.35845e-05
0.000140257
-1.35935e-05
0.000143659
-1.36015e-05
0.000147062
-1.36086e-05
0.000150466
-1.36146e-05
0.000153872
-1.36194e-05
0.000157279
-1.3623e-05
0.000160687
-1.36252e-05
0.000164095
-1.36259e-05
0.000167503
-1.36251e-05
0.00017091
-1.36225e-05
0.000174316
-1.36182e-05
0.000177721
-1.3612e-05
0.000181124
-1.36037e-05
0.000184524
-1.35934e-05
0.000187921
-1.35807e-05
0.000191315
-1.35657e-05
0.000194704
-1.35481e-05
0.000198088
-1.35279e-05
0.000201467
-1.35049e-05
0.00020484
-1.3479e-05
0.000208205
-1.34501e-05
0.000211562
-1.3418e-05
0.000214911
-1.33826e-05
0.00021825
-1.33437e-05
0.000221579
-1.33013e-05
0.000224896
-1.32551e-05
0.000228201
-1.3205e-05
0.000231492
-1.31509e-05
0.000234769
-1.30927e-05
0.00023803
-1.30302e-05
0.000241275
-1.29632e-05
0.000244502
-1.28917e-05
0.00024771
-1.28154e-05
0.000250898
-1.27344e-05
0.000254065
-1.26483e-05
0.000257209
-1.25571e-05
0.000260328
-1.24607e-05
0.000263423
-1.2359e-05
0.000266491
-1.22517e-05
0.000269531
-1.21389e-05
0.000272541
-1.20204e-05
0.00027552
-1.1896e-05
0.000278467
-1.17657e-05
0.000281379
-1.16295e-05
0.000284256
-1.14871e-05
0.000287097
-1.13385e-05
0.000289898
-1.11837e-05
0.000292659
-1.10226e-05
0.000295379
-1.08551e-05
0.000298055
-1.06812e-05
0.000300685
-1.05008e-05
0.00030327
-1.0314e-05
0.000305805
-1.01206e-05
0.000308291
-9.92066e-06
0.000310726
-9.71424e-06
0.000313107
-9.50131e-06
0.000315433
-9.2819e-06
0.000317702
-9.05605e-06
0.000319914
-8.82379e-06
0.000322065
-8.5852e-06
0.000324156
-8.34035e-06
0.000326184
-8.08932e-06
0.000328147
-7.83221e-06
0.000330044
-7.56913e-06
0.000331874
-7.3002e-06
0.000333636
-7.02557e-06
0.000335327
-6.74538e-06
0.000336946
-6.45979e-06
0.000338493
-6.16897e-06
0.000339965
-5.87312e-06
0.000341362
-5.57243e-06
0.000342683
-5.2671e-06
0.000343926
-4.95737e-06
0.00034509
-4.64345e-06
0.000346175
-4.3256e-06
0.000347179
-4.00407e-06
0.000348101
-3.6791e-06
0.000348942
-3.35098e-06
0.000349699
-3.01998e-06
0.000350373
-2.68638e-06
0.000350962
-2.35048e-06
0.000351467
-2.01256e-06
0.000351886
-1.67294e-06
0.00035222
-1.33191e-06
0.000352468
-9.89779e-07
0.00035263
-6.46868e-07
0.000352706
-3.03485e-07
0.000352696
4.00585e-08
0.0003526
3.83448e-07
0.000352418
7.26372e-07
0.000352149
1.06852e-06
0.000351796
1.40958e-06
0.000351357
1.74926e-06
0.000350834
2.08724e-06
0.000350226
2.42325e-06
0.000349534
2.75698e-06
0.00034876
3.08815e-06
0.000347903
3.4165e-06
0.000346965
3.74174e-06
0.000345946
4.06363e-06
0.000344847
4.38191e-06
0.000343669
4.69635e-06
0.000342414
5.0067e-06
0.000341082
5.31275e-06
0.000339674
5.6143e-06
0.000338192
5.91114e-06
0.000336637
6.20308e-06
0.00033501
6.48996e-06
0.000333312
6.77161e-06
0.000331545
7.04787e-06
0.000329711
7.31862e-06
0.00032781
7.58371e-06
0.000325844
7.84304e-06
0.000323815
8.09651e-06
0.000321723
8.34403e-06
0.000319572
8.58551e-06
0.000317361
8.82088e-06
0.000315093
9.05011e-06
0.000312769
9.27313e-06
0.000310391
9.48992e-06
0.000307961
9.70046e-06
0.000305479
9.90473e-06
0.000302948
1.01027e-05
0.000300369
1.02945e-05
0.000297743
1.048e-05
0.000295073
1.06593e-05
0.00029236
1.08324e-05
0.000289605
1.09994e-05
0.000286809
1.11603e-05
0.000283975
1.13152e-05
0.000281104
1.14641e-05
0.000278197
1.16072e-05
0.000275256
1.17444e-05
0.000272282
1.1876e-05
0.000269277
1.20019e-05
0.000266242
1.21223e-05
0.000263178
1.22372e-05
0.000260086
1.23469e-05
0.000256969
1.24513e-05
0.000253827
1.25506e-05
0.000250662
1.26449e-05
0.000247474
1.27344e-05
0.000244265
1.28191e-05
0.000241036
1.28991e-05
0.000237789
1.29747e-05
0.000234524
1.30459e-05
0.000231242
1.31128e-05
0.000227944
1.31756e-05
0.000224632
1.32344e-05
0.000221307
1.32893e-05
0.000217969
1.33405e-05
0.000214618
1.33881e-05
0.000211257
1.34322e-05
0.000207886
1.34729e-05
0.000204506
1.35104e-05
0.000201117
1.35447e-05
0.000197721
1.35761e-05
0.000194317
1.36046e-05
0.000190907
1.36303e-05
0.000187492
1.36535e-05
0.000184071
1.36741e-05
0.000180646
1.36923e-05
0.000177217
1.37083e-05
0.000173785
1.37221e-05
0.00017035
1.37338e-05
0.000166912
1.37436e-05
0.000163473
1.37516e-05
0.000160032
1.37578e-05
0.00015659
1.37624e-05
0.000153147
1.37655e-05
0.000149704
1.37671e-05
0.000146261
1.37674e-05
0.000142819
1.37664e-05
0.000139377
1.37643e-05
0.000135936
1.3761e-05
0.000132496
1.37569e-05
0.000129057
1.37518e-05
0.00012562
1.37458e-05
0.000122184
1.37392e-05
0.000118751
1.37318e-05
0.000115319
1.37239e-05
0.00011189
1.37154e-05
0.000108463
1.37065e-05
0.000105039
1.36972e-05
0.000101616
1.36876e-05
9.81969e-05
1.36776e-05
9.47799e-05
1.36675e-05
9.13655e-05
1.36573e-05
8.79537e-05
1.36469e-05
8.45446e-05
1.36365e-05
8.11381e-05
1.36261e-05
7.77342e-05
1.36157e-05
7.4333e-05
1.36055e-05
7.09343e-05
1.35953e-05
6.75382e-05
1.35854e-05
6.41445e-05
1.35757e-05
6.07532e-05
1.35662e-05
5.73642e-05
1.35571e-05
5.39774e-05
1.35483e-05
5.05928e-05
1.35398e-05
4.72102e-05
1.35317e-05
4.38296e-05
1.35241e-05
4.04508e-05
1.35168e-05
3.70737e-05
1.35101e-05
3.36982e-05
1.35038e-05
3.03241e-05
1.34981e-05
2.69514e-05
1.34928e-05
2.35798e-05
1.34881e-05
2.02093e-05
1.3484e-05
1.68397e-05
1.34804e-05
1.34709e-05
1.34774e-05
1.01026e-05
1.3475e-05
6.73482e-06
1.34732e-05
3.36734e-06
1.3472e-05
1.34714e-05
3.29713e-06
-1.6491e-05
6.59445e-06
-1.64919e-05
9.89212e-06
-1.64937e-05
1.31903e-05
-1.64963e-05
1.64893e-05
-1.64998e-05
1.97891e-05
-1.65042e-05
2.30899e-05
-1.65095e-05
2.63921e-05
-1.65155e-05
2.96956e-05
-1.65225e-05
3.30007e-05
-1.65302e-05
3.63075e-05
-1.65387e-05
3.96162e-05
-1.6548e-05
4.29269e-05
-1.65581e-05
4.62398e-05
-1.65689e-05
4.95551e-05
-1.65804e-05
5.28728e-05
-1.65926e-05
5.61932e-05
-1.66054e-05
5.95163e-05
-1.66188e-05
6.28422e-05
-1.66328e-05
6.6171e-05
-1.66474e-05
6.9503e-05
-1.66624e-05
7.28381e-05
-1.66779e-05
7.61764e-05
-1.66938e-05
7.9518e-05
-1.67101e-05
8.28631e-05
-1.67267e-05
8.62115e-05
-1.67435e-05
8.95635e-05
-1.67606e-05
9.29189e-05
-1.67778e-05
9.62779e-05
-1.6795e-05
9.96404e-05
-1.68123e-05
0.000103007
-1.68296e-05
0.000106376
-1.68467e-05
0.000109749
-1.68636e-05
0.000113126
-1.68803e-05
0.000116505
-1.68966e-05
0.000119889
-1.69124e-05
0.000123275
-1.69278e-05
0.000126664
-1.69425e-05
0.000130056
-1.69566e-05
0.000133452
-1.69698e-05
0.000136849
-1.69822e-05
0.000140249
-1.69935e-05
0.000143651
-1.70037e-05
0.000147056
-1.70127e-05
0.000150461
-1.70204e-05
0.000153869
-1.70266e-05
0.000157277
-1.70313e-05
0.000160686
-1.70342e-05
0.000164095
-1.70353e-05
0.000167505
-1.70345e-05
0.000170914
-1.70315e-05
0.000174322
-1.70264e-05
0.000177729
-1.70188e-05
0.000181134
-1.70087e-05
0.000184536
-1.69959e-05
0.000187936
-1.69804e-05
0.000191332
-1.69618e-05
0.000194724
-1.69401e-05
0.000198111
-1.69151e-05
0.000201493
-1.68866e-05
0.000204868
-1.68545e-05
0.000208237
-1.68186e-05
0.000211598
-1.67787e-05
0.00021495
-1.67347e-05
0.000218292
-1.66864e-05
0.000221625
-1.66336e-05
0.000224946
-1.65761e-05
0.000228254
-1.65138e-05
0.00023155
-1.64464e-05
0.000234831
-1.63739e-05
0.000238097
-1.6296e-05
0.000241346
-1.62126e-05
0.000244578
-1.61234e-05
0.000247791
-1.60284e-05
0.000250984
-1.59273e-05
0.000254156
-1.582e-05
0.000257305
-1.57062e-05
0.00026043
-1.5586e-05
0.00026353
-1.5459e-05
0.000266603
-1.53252e-05
0.000269649
-1.51843e-05
0.000272665
-1.50364e-05
0.00027565
-1.48811e-05
0.000278603
-1.47184e-05
0.000281521
-1.45483e-05
0.000284405
-1.43704e-05
0.000287251
-1.41849e-05
0.000290059
-1.39915e-05
0.000292827
-1.37902e-05
0.000295552
-1.35809e-05
0.000298235
-1.33636e-05
0.000300872
-1.31382e-05
0.000303463
-1.29046e-05
0.000306005
-1.26629e-05
0.000308498
-1.2413e-05
0.000310938
-1.2155e-05
0.000313326
-1.18888e-05
0.000315658
-1.16145e-05
0.000317934
-1.1332e-05
0.000320152
-1.10416e-05
0.00032231
-1.07432e-05
0.000324407
-1.0437e-05
0.000326441
-1.0123e-05
0.00032841
-9.80144e-06
0.000330313
-9.47236e-06
0.000332149
-9.13595e-06
0.000333916
-8.79238e-06
0.000335612
-8.44183e-06
0.000337237
-8.08452e-06
0.000338788
-7.72065e-06
0.000340266
-7.35047e-06
0.000341668
-6.97421e-06
0.000342993
-6.59214e-06
0.00034424
-6.20454e-06
0.000345408
-5.8117e-06
0.000346496
-5.41391e-06
0.000347504
-5.0115e-06
0.000348429
-4.6048e-06
0.000349273
-4.19413e-06
0.000350032
-3.77984e-06
0.000350708
-3.3623e-06
0.0003513
-2.94187e-06
0.000351806
-2.51891e-06
0.000352227
-2.0938e-06
0.000352562
-1.66694e-06
0.000352811
-1.2387e-06
0.000352974
-8.09478e-07
0.00035305
-3.79662e-07
0.000353039
5.03532e-08
0.000352943
4.80174e-07
0.00035276
9.0941e-07
0.000352491
1.33767e-06
0.000352136
1.76457e-06
0.000351695
2.18972e-06
0.00035117
2.61276e-06
0.00035056
3.03331e-06
0.000349865
3.451e-06
0.000349088
3.86548e-06
0.000348228
4.27641e-06
0.000347287
4.68346e-06
0.000346264
5.08629e-06
0.000345161
5.48459e-06
0.000343979
5.87806e-06
0.00034272
6.26641e-06
0.000341383
6.64937e-06
0.000339971
7.02668e-06
0.000338484
7.39808e-06
0.000336924
7.76334e-06
0.000335291
8.12224e-06
0.000333588
8.47458e-06
0.000331816
8.82017e-06
0.000329976
9.15884e-06
0.000328069
9.49042e-06
0.000326097
9.81478e-06
0.000324062
1.01318e-05
0.000321965
1.04413e-05
0.000319807
1.07433e-05
0.00031759
1.10376e-05
0.000315316
1.13242e-05
0.000312986
1.16031e-05
0.000310602
1.18741e-05
0.000308165
1.21373e-05
0.000305677
1.23927e-05
0.00030314
1.26401e-05
0.000300554
1.28798e-05
0.000297923
1.31116e-05
0.000295246
1.33357e-05
0.000292527
1.3552e-05
0.000289766
1.37606e-05
0.000286964
1.39617e-05
0.000284124
1.41551e-05
0.000281247
1.43412e-05
0.000278335
1.45198e-05
0.000275388
1.46913e-05
0.000272408