/*--------------------------------*- C++ -*----------------------------------*\
| =========                 |                                                 |
| \\      /  F ield         | OpenFOAM: The Open Source CFD Toolbox           |
|  \\    /   O peration     | Version:  v2012                                 |
|   \\  /    A nd           | Website:  www.openfoam.com                      |
|    \\/     M anipulation  |                                                 |
\*---------------------------------------------------------------------------*/
FoamFile
{
    version     2.0;
    format      ascii;
    class       volScalarField;
    location    "17.1";
    object      Psi_z;
}
// * * * * * * * * * * * * * * * * * * * * * * * * * * * * * * * * * * * * * //

dimensions      [0 2 -1 0 0 0 0];


internalField   nonuniform List<scalar> 
65536
(
8.23532e-06
2.47065e-05
4.1179e-05
5.76537e-05
7.41314e-05
9.06129e-05
0.000107099
0.000123591
0.000140089
0.000156595
0.000173108
0.00018963
0.000206162
0.000222704
0.000239257
0.000255821
0.000272398
0.000288987
0.00030559
0.000322207
0.000338839
0.000355485
0.000372147
0.000388825
0.000405518
0.000422228
0.000438955
0.000455698
0.000472458
0.000489235
0.000506029
0.00052284
0.000539667
0.00055651
0.00057337
0.000590245
0.000607135
0.00062404
0.000640959
0.00065789
0.000674835
0.00069179
0.000708756
0.000725731
0.000742714
0.000759703
0.000776697
0.000793694
0.000810693
0.000827692
0.000844688
0.00086168
0.000878665
0.000895641
0.000912604
0.000929554
0.000946485
0.000963397
0.000980284
0.000997145
0.00101397
0.00103077
0.00104753
0.00106424
0.00108091
0.00109753
0.00111409
0.0011306
0.00114703
0.0011634
0.0011797
0.00119591
0.00121204
0.00122807
0.00124401
0.00125984
0.00127556
0.00129117
0.00130665
0.00132201
0.00133722
0.00135229
0.00136722
0.00138198
0.00139658
0.001411
0.00142525
0.00143931
0.00145317
0.00146682
0.00148027
0.00149349
0.00150649
0.00151925
0.00153177
0.00154403
0.00155603
0.00156777
0.00157923
0.0015904
0.00160129
0.00161187
0.00162214
0.0016321
0.00164174
0.00165104
0.00166001
0.00166863
0.0016769
0.00168482
0.00169236
0.00169954
0.00170634
0.00171276
0.00171879
0.00172443
0.00172967
0.00173451
0.00173894
0.00174296
0.00174657
0.00174977
0.00175254
0.00175489
0.00175682
0.00175832
0.00175939
0.00176004
0.00176026
0.00176005
0.00175941
0.00175835
0.00175686
0.00175495
0.00175261
0.00174985
0.00174667
0.00174308
0.00173908
0.00173467
0.00172986
0.00172464
0.00171903
0.00171303
0.00170664
0.00169988
0.00169273
0.00168523
0.00167735
0.00166913
0.00166055
0.00165163
0.00164238
0.00163279
0.00162289
0.00161267
0.00160214
0.00159132
0.0015802
0.0015688
0.00155712
0.00154518
0.00153297
0.00152051
0.00150781
0.00149487
0.0014817
0.00146831
0.0014547
0.00144089
0.00142688
0.00141267
0.00139829
0.00138372
0.00136899
0.00135409
0.00133904
0.00132384
0.0013085
0.00129303
0.00127742
0.00126169
0.00124585
0.0012299
0.00121384
0.00119768
0.00118143
0.00116509
0.00114867
0.00113217
0.0011156
0.00109897
0.00108227
0.00106551
0.00104869
0.00103183
0.00101492
0.000997971
0.000980981
0.000963957
0.000946901
0.000929817
0.000912708
0.000895576
0.000878425
0.000861257
0.000844075
0.000826881
0.000809678
0.000792467
0.000775251
0.000758031
0.000740809
0.000723587
0.000706366
0.000689148
0.000671934
0.000654726
0.000637524
0.000620329
0.000603143
0.000585965
0.000568798
0.000551641
0.000534495
0.00051736
0.000500238
0.000483127
0.000466029
0.000448944
0.000431871
0.000414811
0.000397764
0.00038073
0.000363708
0.000346698
0.0003297
0.000312714
0.00029574
0.000278777
0.000261824
0.000244882
0.000227949
0.000211025
0.00019411
0.000177203
0.000160304
0.000143411
0.000126525
0.000109643
9.27671e-05
7.58948e-05
5.90258e-05
4.21594e-05
2.52949e-05
8.43152e-06
2.47057e-05
7.41185e-05
0.000123535
0.000172959
0.000222391
0.000271835
0.000321293
0.000370768
0.000420262
0.000469778
0.000519317
0.000568883
0.000618478
0.000668103
0.000717761
0.000767453
0.000817183
0.000866951
0.00091676
0.00096661
0.0010165
0.00106644
0.00111643
0.00116646
0.00121654
0.00126667
0.00131685
0.00136708
0.00141736
0.00146769
0.00151807
0.00156851
0.00161899
0.00166952
0.0017201
0.00177072
0.00182139
0.00187211
0.00192287
0.00197366
0.0020245
0.00207536
0.00212626
0.00217719
0.00222814
0.00227911
0.00233009
0.00238109
0.00243209
0.00248308
0.00253407
0.00258505
0.00263601
0.00268694
0.00273783
0.00278868
0.00283948
0.00289022
0.00294089
0.00299147
0.00304196
0.00309235
0.00314263
0.00319278
0.00324279
0.00329265
0.00334235
0.00339186
0.00344118
0.00349029
0.00353918
0.00358782
0.0036362
0.00368431
0.00373213
0.00377964
0.00382681
0.00387364
0.00392009
0.00396616
0.00401182
0.00405704
0.00410181
0.00414611
0.00418992
0.0042332
0.00427594
0.00431812
0.00435971
0.00440069
0.00444103
0.00448071
0.00451971
0.004558
0.00459556
0.00463236
0.00466838
0.00470359
0.00473798
0.00477151
0.00480416
0.00483592
0.00486675
0.00489663
0.00492554
0.00495346
0.00498037
0.00500625
0.00503107
0.00505481
0.00507747
0.00509901
0.00511941
0.00513868
0.00515677
0.00517369
0.00518942
0.00520394
0.00521724
0.00522931
0.00524014
0.00524972
0.00525804
0.00526509
0.00527088
0.00527538
0.00527861
0.00528055
0.00528121
0.00528058
0.00527867
0.00527548
0.00527101
0.00526526
0.00525825
0.00524997
0.00524044
0.00522966
0.00521765
0.00520442
0.00518997
0.00517432
0.00515748
0.00513947
0.00512031
0.0051
0.00507857
0.00505604
0.00503242
0.00500773
0.00498199
0.00495523
0.00492745
0.00489869
0.00486897
0.00483831
0.00480672
0.00477424
0.00474088
0.00470667
0.00467163
0.00463579
0.00459916
0.00456178
0.00452366
0.00448483
0.00444531
0.00440513
0.0043643
0.00432286
0.00428082
0.0042382
0.00419503
0.00415134
0.00410713
0.00406244
0.00401728
0.00397167
0.00392564
0.00387921
0.00383238
0.00378519
0.00373766
0.00368979
0.00364161
0.00359313
0.00354437
0.00349535
0.00344609
0.00339659
0.00334687
0.00329696
0.00324685
0.00319657
0.00314613
0.00309553
0.0030448
0.00299395
0.00294298
0.0028919
0.00284073
0.00278947
0.00273814
0.00268674
0.00263529
0.00258378
0.00253223
0.00248065
0.00242904
0.0023774
0.00232575
0.00227409
0.00222242
0.00217076
0.00211909
0.00206744
0.0020158
0.00196417
0.00191256
0.00186098
0.00180942
0.00175788
0.00170638
0.00165491
0.00160347
0.00155207
0.0015007
0.00144937
0.00139807
0.00134682
0.0012956
0.00124442
0.00119328
0.00114217
0.00109111
0.00104008
0.000989087
0.00093813
0.000887208
0.000836318
0.000785461
0.000734634
0.000683836
0.000633066
0.000582322
0.000531602
0.000480904
0.000430227
0.000379568
0.000328925
0.000278297
0.000227681
0.000177075
0.000126476
7.58836e-05
2.52942e-05
4.11748e-05
0.000123527
0.000205885
0.000288254
0.000370639
0.000453043
0.00053547
0.000617926
0.000700413
0.000782936
0.0008655
0.000948107
0.00103076
0.00111347
0.00119623
0.00127905
0.00136193
0.00144487
0.00152789
0.00161097
0.00169412
0.00177735
0.00186066
0.00194405
0.00202752
0.00211106
0.0021947
0.00227841
0.00236221
0.0024461
0.00253007
0.00261412
0.00269826
0.00278248
0.00286678
0.00295116
0.00303561
0.00312014
0.00320474
0.0032894
0.00337412
0.00345891
0.00354374
0.00362862
0.00371354
0.0037985
0.00388348
0.00396847
0.00405348
0.00413848
0.00422347
0.00430844
0.00439338
0.00447827
0.00456311
0.00464787
0.00473254
0.00481711
0.00490157
0.00498589
0.00507006
0.00515405
0.00523786
0.00532146
0.00540482
0.00548794
0.00557078
0.00565332
0.00573553
0.0058174
0.0058989
0.00597999
0.00606065
0.00614085
0.00622056
0.00629976
0.00637841
0.00645647
0.00653392
0.00661072
0.00668684
0.00676224
0.00683689
0.00691074
0.00698377
0.00705594
0.0071272
0.00719752
0.00726687
0.00733519
0.00740245
0.00746861
0.00753364
0.00759748
0.0076601
0.00772146
0.00778152
0.00784024
0.00789758
0.00795349
0.00800794
0.00806089
0.0081123
0.00816213
0.00821034
0.0082569
0.00830177
0.00834492
0.00838631
0.00842591
0.00846368
0.0084996
0.00853363
0.00856575
0.00859593
0.00862415
0.00865038
0.00867459
0.00869677
0.0087169
0.00873496
0.00875093
0.0087648
0.00877657
0.00878621
0.00879372
0.0087991
0.00880234
0.00880344
0.00880239
0.00879921
0.00879388
0.00878642
0.00877684
0.00876515
0.00875134
0.00873545
0.00871748
0.00869745
0.00867537
0.00865128
0.00862518
0.0085971
0.00856707
0.00853511
0.00850125
0.00846552
0.00842794
0.00838855
0.00834738
0.00830446
0.00825983
0.00821352
0.00816556
0.008116
0.00806486
0.0080122
0.00795803
0.00790241
0.00784537
0.00778694
0.00772718
0.00766611
0.00760378
0.00754022
0.00747548
0.00740959
0.00734259
0.00727452
0.00720542
0.00713533
0.00706428
0.00699231
0.00691946
0.00684576
0.00677124
0.00669596
0.00661993
0.00654319
0.00646577
0.00638771
0.00630904
0.00622979
0.00614999
0.00606967
0.00598886
0.00590758
0.00582586
0.00574373
0.00566122
0.00557835
0.00549514
0.00541161
0.0053278
0.00524371
0.00515938
0.00507481
0.00499004
0.00490508
0.00481994
0.00473464
0.00464921
0.00456364
0.00447797
0.0043922
0.00430635
0.00422043
0.00413445
0.00404842
0.00396236
0.00387626
0.00379016
0.00370404
0.00361792
0.00353181
0.00344571
0.00335964
0.00327359
0.00318758
0.0031016
0.00301566
0.00292977
0.00284393
0.00275814
0.00267241
0.00258674
0.00250112
0.00241557
0.00233008
0.00224465
0.00215929
0.00207399
0.00198875
0.00190358
0.00181847
0.00173343
0.00164844
0.00156351
0.00147864
0.00139383
0.00130907
0.00122436
0.0011397
0.00105508
0.00097051
0.000885978
0.000801484
0.000717024
0.000632595
0.000548193
0.000463815
0.000379457
0.000295116
0.000210788
0.000126469
4.21557e-05
5.76417e-05
0.000172928
0.000288224
0.000403535
0.000518867
0.000634226
0.000749619
0.000865051
0.000980528
0.00109605
0.00121164
0.00132728
0.00144299
0.00155878
0.00167464
0.00179058
0.00190661
0.00202273
0.00213894
0.00225525
0.00237167
0.00248819
0.00260482
0.00272155
0.00283841
0.00295537
0.00307246
0.00318966
0.00330698
0.00342442
0.00354198
0.00365965
0.00377745
0.00389536
0.00401338
0.00413151
0.00424975
0.00436809
0.00448654
0.00460507
0.00472369
0.0048424
0.00496117
0.00508002
0.00519892
0.00531786
0.00543684
0.00555585
0.00567487
0.00579389
0.00591289
0.00603187
0.0061508
0.00626966
0.00638845
0.00650713
0.0066257
0.00674412
0.00686238
0.00698045
0.00709832
0.00721594
0.0073333
0.00745036
0.00756711
0.0076835
0.00779951
0.0079151
0.00803024
0.00814489
0.00825901
0.00837258
0.00848555
0.00859787
0.00870952
0.00882043
0.00893058
0.00903992
0.00914839
0.00925596
0.00936258
0.00946819
0.00957275
0.0096762
0.00977849
0.00987958
0.0099794
0.0100779
0.010175
0.0102707
0.010365
0.0104577
0.0105487
0.0106382
0.0107259
0.0108119
0.010896
0.0109783
0.0110586
0.0111369
0.0112132
0.0112874
0.0113594
0.0114292
0.0114968
0.011562
0.0116249
0.0116854
0.0117433
0.0117988
0.0118517
0.0119021
0.0119498
0.0119948
0.0120371
0.0120766
0.0121133
0.0121473
0.0121783
0.0122066
0.0122319
0.0122542
0.0122737
0.0122902
0.0123037
0.0123142
0.0123217
0.0123263
0.0123278
0.0123263
0.0123219
0.0123144
0.012304
0.0122905
0.0122742
0.0122548
0.0122325
0.0122074
0.0121793
0.0121484
0.0121146
0.012078
0.0120387
0.0119966
0.0119518
0.0119044
0.0118543
0.0118017
0.0117465
0.0116888
0.0116286
0.0115661
0.0115012
0.011434
0.0113646
0.011293
0.0112192
0.0111433
0.0110654
0.0109854
0.0109036
0.0108199
0.0107343
0.010647
0.010558
0.0104673
0.010375
0.0102811
0.0101858
0.010089
0.0099908
0.00989128
0.00979047
0.00968843
0.0095852
0.00948083
0.00937538
0.00926889
0.00916141
0.00905298
0.00894366
0.00883348
0.00872248
0.00861072
0.00849823
0.00838505
0.00827122
0.00815678
0.00804177
0.00792622
0.00781016
0.00769363
0.00757667
0.00745929
0.00734155
0.00722345
0.00710503
0.00698632
0.00686735
0.00674813
0.0066287
0.00650906
0.00638926
0.0062693
0.0061492
0.00602899
0.00590868
0.0057883
0.00566784
0.00554734
0.0054268
0.00530623
0.00518565
0.00506508
0.00494452
0.00482397
0.00470346
0.00458298
0.00446256
0.00434218
0.00422186
0.00410161
0.00398143
0.00386133
0.0037413
0.00362135
0.00350149
0.00338171
0.00326202
0.00314242
0.00302292
0.0029035
0.00278417
0.00266493
0.00254578
0.00242671
0.00230773
0.00218884
0.00207002
0.00195128
0.00183262
0.00171403
0.00159551
0.00147705
0.00135866
0.00124032
0.00112203
0.00100379
0.000885594
0.000767436
0.000649312
0.000531216
0.000413144
0.00029509
0.000177049
5.90153e-05
7.41055e-05
0.00022232
0.000370547
0.000518794
0.000667068
0.000815377
0.000963729
0.00111213
0.00126059
0.00140912
0.00155771
0.00170639
0.00185516
0.00200401
0.00215297
0.00230203
0.0024512
0.00260049
0.0027499
0.00289944
0.00304911
0.00319891
0.00334886
0.00349895
0.00364918
0.00379956
0.0039501
0.00410079
0.00425163
0.00440262
0.00455377
0.00470507
0.00485652
0.00500812
0.00515987
0.00531176
0.00546379
0.00561595
0.00576824
0.00592065
0.00607318
0.00622581
0.00637854
0.00653135
0.00668424
0.00683719
0.00699018
0.00714321
0.00729626
0.00744931
0.00760234
0.00775534
0.00790827
0.00806113
0.00821389
0.00836652
0.00851899
0.00867129
0.00882338
0.00897523
0.00912681
0.00927809
0.00942903
0.00957959
0.00972974
0.00987944
0.0100287
0.0101773
0.0103254
0.0104729
0.0106197
0.0107658
0.0109111
0.0110556
0.0111992
0.0113419
0.0114836
0.0116242
0.0117638
0.0119022
0.0120393
0.0121752
0.0123097
0.0124428
0.0125744
0.0127045
0.0128329
0.0129597
0.0130846
0.0132078
0.013329
0.0134483
0.0135655
0.0136806
0.0137935
0.0139041
0.0140124
0.0141182
0.0142216
0.0143224
0.0144206
0.0145161
0.0146088
0.0146986
0.0147856
0.0148695
0.0149504
0.0150282
0.0151029
0.0151743
0.0152424
0.0153072
0.0153686
0.0154265
0.0154809
0.0155318
0.0155791
0.0156228
0.0156628
0.0156991
0.0157317
0.0157605
0.0157855
0.0158067
0.0158241
0.0158377
0.0158474
0.0158532
0.0158552
0.0158533
0.0158475
0.0158379
0.0158245
0.0158072
0.0157861
0.0157612
0.0157325
0.0157001
0.015664
0.0156242
0.0155807
0.0155336
0.015483
0.0154288
0.0153712
0.0153101
0.0152457
0.0151779
0.0151069
0.0150326
0.0149552
0.0148747
0.0147912
0.0147048
0.0146154
0.0145232
0.0144282
0.0143306
0.0142303
0.0141275
0.0140221
0.0139144
0.0138043
0.013692
0.0135774
0.0134607
0.0133419
0.0132212
0.0130985
0.0129739
0.0128476
0.0127196
0.0125899
0.0124586
0.0123258
0.0121915
0.0120558
0.0119188
0.0117806
0.0116411
0.0115005
0.0113587
0.0112159
0.0110722
0.0109275
0.0107819
0.0106355
0.0104883
0.0103403
0.0101917
0.0100424
0.00989257
0.00974213
0.00959117
0.00943973
0.00928784
0.00913555
0.00898288
0.00882987
0.00867655
0.00852295
0.0083691
0.00821502
0.00806076
0.00790632
0.00775173
0.00759702
0.00744221
0.00728731
0.00713235
0.00697735
0.00682232
0.00666727
0.00651223
0.0063572
0.0062022
0.00604724
0.00589233
0.00573748
0.0055827
0.005428
0.00527338
0.00511886
0.00496443
0.0048101
0.00465588
0.00450177
0.00434777
0.00419388
0.00404011
0.00388645
0.00373291
0.00357949
0.00342619
0.00327299
0.00311991
0.00296694
0.00281408
0.00266132
0.00250867
0.00235611
0.00220364
0.00205126
0.00189896
0.00174675
0.0015946
0.00144253
0.00129051
0.00113856
0.000986647
0.000834781
0.000682952
0.000531153
0.000379379
0.00022762
7.58724e-05
9.05653e-05
0.000271701
0.000452851
0.000634025
0.000815233
0.000996484
0.00117779
0.00135915
0.00154059
0.00172211
0.00190371
0.00208541
0.00226722
0.00244914
0.00263119
0.00281336
0.00299567
0.00317813
0.00336073
0.00354349
0.00372641
0.0039095
0.00409276
0.00427619
0.00445981
0.0046436
0.00482759
0.00501176
0.00519612
0.00538066
0.0055654
0.00575033
0.00593544
0.00612073
0.00630621
0.00649186
0.00667769
0.00686368
0.00704982
0.00723612
0.00742256
0.00760913
0.00779582
0.00798261
0.0081695
0.00835646
0.00854349
0.00873056
0.00891765
0.00910475
0.00929182
0.00947886
0.00966583
0.0098527
0.0100395
0.0102261
0.0104125
0.0105987
0.0107846
0.0109703
0.0111556
0.0113406
0.0115251
0.0117092
0.0118928
0.0120759
0.0122583
0.0124401
0.0126212
0.0128016
0.0129811
0.0131597
0.0133374
0.0135142
0.0136898
0.0138643
0.0140376
0.0142096
0.0143803
0.0145496
0.0147173
0.0148835
0.0150481
0.0152109
0.0153719
0.015531
0.0156881
0.0158432
0.0159961
0.0161467
0.0162951
0.016441
0.0165844
0.0167252
0.0168633
0.0169987
0.0171312
0.0172607
0.0173872
0.0175105
0.0176307
0.0177475
0.0178609
0.0179709
0.0180773
0.01818
0.0182791
0.0183743
0.0184657
0.018553
0.0186364
0.0187157
0.0187908
0.0188617
0.0189284
0.0189906
0.0190485
0.019102
0.019151
0.0191954
0.0192353
0.0192705
0.0193012
0.0193271
0.0193484
0.019365
0.0193769
0.019384
0.0193864
0.0193841
0.0193771
0.0193653
0.0193488
0.0193277
0.0193019
0.0192714
0.0192363
0.0191966
0.0191524
0.0191036
0.0190504
0.0189928
0.0189308
0.0188645
0.018794
0.0187192
0.0186404
0.0185574
0.0184705
0.0183796
0.0182849
0.0181864
0.0180842
0.0179784
0.017869
0.0177562
0.01764
0.0175205
0.0173978
0.017272
0.0171431
0.0170113
0.0168766
0.0167391
0.0165989
0.0164562
0.0163109
0.0161631
0.016013
0.0158607
0.0157061
0.0155495
0.0153909
0.0152303
0.0150678
0.0149036
0.0147376
0.0145701
0.014401
0.0142304
0.0140584
0.013885
0.0137104
0.0135346
0.0133576
0.0131796
0.0130005
0.0128205
0.0126396
0.0124579
0.0122753
0.0120921
0.0119081
0.0117235
0.0115384
0.0113526
0.0111664
0.0109798
0.0107927
0.0106052
0.0104174
0.0102294
0.010041
0.00985239
0.00966358
0.0094746
0.00928546
0.0090962
0.00890685
0.00871742
0.00852793
0.00833842
0.00814889
0.00795936
0.00776986
0.00758039
0.00739097
0.00720162
0.00701234
0.00682315
0.00663405
0.00644506
0.00625619
0.00606743
0.0058788
0.0056903
0.00550193
0.00531371
0.00512562
0.00493767
0.00474987
0.00456222
0.0043747
0.00418733
0.0040001
0.003813
0.00362605
0.00343922
0.00325252
0.00306595
0.0028795
0.00269316
0.00250693
0.0023208
0.00213477
0.00194882
0.00176297
0.00157718
0.00139147
0.00120581
0.00102021
0.000834658
0.00064914
0.000463651
0.000278182
9.2726e-05
0.00010702
0.000321067
0.00053513
0.000749222
0.000963355
0.00117754
0.00139178
0.0016061
0.00182051
0.00203501
0.00224961
0.00246433
0.00267917
0.00289415
0.00310928
0.00332456
0.00354
0.00375561
0.0039714
0.00418738
0.00440354
0.00461991
0.00483648
0.00505326
0.00527025
0.00548746
0.00570489
0.00592254
0.00614042
0.00635852
0.00657685
0.0067954
0.00701417
0.00723317
0.00745238
0.0076718
0.00789142
0.00811124
0.00833126
0.00855145
0.00877181
0.00899233
0.00921299
0.00943378
0.00965468
0.00987568
0.0100967
0.0103179
0.010539
0.0107602
0.0109813
0.0112024
0.0114235
0.0116444
0.0118652
0.0120858
0.0123062
0.0125263
0.0127461
0.0129656
0.0131848
0.0134035
0.0136217
0.0138394
0.0140565
0.0142729
0.0144887
0.0147036
0.0149178
0.0151311
0.0153434
0.0155546
0.0157648
0.0159738
0.0161815
0.0163879
0.0165929
0.0167964
0.0169983
0.0171985
0.0173969
0.0175935
0.0177882
0.0179808
0.0181713
0.0183595
0.0185454
0.0187288
0.0189097
0.019088
0.0192635
0.0194362
0.0196058
0.0197725
0.0199359
0.0200961
0.0202529
0.0204062
0.0205559
0.0207019
0.0208441
0.0209823
0.0211166
0.0212467
0.0213727
0.0214943
0.0216115
0.0217242
0.0218324
0.0219358
0.0220345
0.0221284
0.0222173
0.0223012
0.0223801
0.0224539
0.0225224
0.0225857
0.0226436
0.0226962
0.0227434
0.0227852
0.0228215
0.0228522
0.0228774
0.022897
0.0229111
0.0229195
0.0229224
0.0229197
0.0229113
0.0228974
0.0228779
0.0228528
0.0228222
0.0227862
0.0227446
0.0226976
0.0226453
0.0225876
0.0225246
0.0224564
0.022383
0.0223045
0.022221
0.0221325
0.0220391
0.0219409
0.021838
0.0217305
0.0216184
0.0215018
0.0213808
0.0212556
0.0211261
0.0209926
0.0208551
0.0207136
0.0205684
0.0204195
0.020267
0.020111
0.0199516
0.0197889
0.0196231
0.0194541
0.0192822
0.0191074
0.0189299
0.0187496
0.0185668
0.0183815
0.0181938
0.0180038
0.0178116
0.0176173
0.0174211
0.0172229
0.0170228
0.016821
0.0166176
0.0164126
0.016206
0.0159981
0.0157888
0.0155783
0.0153665
0.0151536
0.0149397
0.0147248
0.014509
0.0142922
0.0140747
0.0138565
0.0136375
0.0134179
0.0131978
0.0129771
0.0127559
0.0125343
0.0123123
0.0120899
0.0118672
0.0116442
0.011421
0.0111976
0.010974
0.0107503
0.0105265
0.0103025
0.0100786
0.00985453
0.0096305
0.00940648
0.00918248
0.00895853
0.00873464
0.00851083
0.00828711
0.0080635
0.00784
0.00761663
0.0073934
0.00717031
0.00694737
0.00672458
0.00650196
0.00627951
0.00605722
0.0058351
0.00561315
0.00539137
0.00516977
0.00494833
0.00472706
0.00450596
0.00428502
0.00406423
0.0038436
0.00362312
0.00340277
0.00318257
0.00296249
0.00274254
0.0025227
0.00230296
0.00208333
0.00186378
0.00164432
0.00142493
0.0012056
0.000986326
0.000767097
0.000547902
0.000328731
0.000109575
0.000123469
0.000370415
0.000617381
0.00086438
0.00111142
0.00135853
0.00160571
0.00185297
0.00210033
0.0023478
0.00259539
0.00284312
0.00309099
0.00333902
0.00358722
0.00383559
0.00408416
0.00433292
0.00458189
0.00483107
0.00508048
0.00533011
0.00557999
0.0058301
0.00608047
0.00633109
0.00658196
0.0068331
0.00708449
0.00733615
0.00758807
0.00784025
0.00809269
0.00834538
0.00859833
0.00885152
0.00910496
0.00935862
0.00961251
0.0098666
0.0101209
0.0103754
0.01063
0.0108848
0.0111398
0.0113948
0.01165
0.0119052
0.0121604
0.0124157
0.0126709
0.0129261
0.0131812
0.0134362
0.0136911
0.0139457
0.0142001
0.0144542
0.014708
0.0149614
0.0152144
0.0154668
0.0157188
0.0159701
0.0162207
0.0164706
0.0167197
0.016968
0.0172152
0.0174615
0.0177067
0.0179506
0.0181933
0.0184347
0.0186746
0.018913
0.0191497
0.0193847
0.0196179
0.0198492
0.0200784
0.0203055
0.0205304
0.0207529
0.0209729
0.0211903
0.0214051
0.021617
0.021826
0.022032
0.0222348
0.0224343
0.0226304
0.0228229
0.0230118
0.0231969
0.0233781
0.0235553
0.0237283
0.023897
0.0240614
0.0242212
0.0243764
0.0245268
0.0246724
0.024813
0.0249485
0.0250788
0.0252038
0.0253234
0.0254375
0.025546
0.0256488
0.0257458
0.025837
0.0259223
0.0260015
0.0260747
0.0261417
0.0262025
0.0262571
0.0263053
0.0263473
0.0263828
0.026412
0.0264347
0.0264509
0.0264607
0.026464
0.0264608
0.0264511
0.026435
0.0264125
0.0263835
0.0263481
0.0263064
0.0262584
0.026204
0.0261435
0.0260768
0.0260039
0.0259251
0.0258402
0.0257495
0.0256529
0.0255506
0.0254427
0.0253292
0.0252102
0.0250859
0.0249563
0.0248215
0.0246817
0.0245369
0.0243873
0.024233
0.024074
0.0239106
0.0237427
0.0235706
0.0233944
0.0232141
0.0230299
0.022842
0.0226503
0.0224551
0.0222565
0.0220545
0.0218494
0.0216411
0.0214299
0.0212158
0.020999
0.0207795
0.0205575
0.0203331
0.0201064
0.0198775
0.0196464
0.0194134
0.0191784
0.0189416
0.0187031
0.018463
0.0182213
0.0179782
0.0177336
0.0174878
0.0172408
0.0169927
0.0167434
0.0164932
0.0162421
0.0159901
0.0157373
0.0154838
0.0152297
0.0149749
0.0147195
0.0144637
0.0142074
0.0139507
0.0136937
0.0134363
0.0131787
0.0129208
0.0126627
0.0124045
0.0121462
0.0118877
0.0116292
0.0113707
0.0111121
0.0108536
0.0105951
0.0103366
0.0100782
0.00981995
0.00956178
0.00930373
0.00904582
0.00878807
0.00853047
0.00827303
0.00801578
0.00775871
0.00750183
0.00724514
0.00698865
0.00673235
0.00647626
0.00622036
0.00596467
0.00570917
0.00545387
0.00519876
0.00494383
0.00468909
0.00443453
0.00418014
0.00392592
0.00367185
0.00341793
0.00316416
0.00291052
0.002657
0.0024036
0.0021503
0.0018971
0.00164398
0.00139093
0.00113795
0.00088502
0.000632128
0.000379266
0.00012642
0.000139912
0.000419744
0.000699598
0.00097949
0.00125944
0.00153945
0.00181954
0.00209974
0.00238004
0.00266047
0.00294104
0.00322176
0.00350265
0.00378372
0.00406498
0.00434644
0.00462811
0.00491002
0.00519216
0.00547454
0.00575718
0.00604008
0.00632325
0.0066067
0.00689044
0.00717446
0.00745878
0.00774339
0.0080283
0.00831351
0.00859902
0.00888484
0.00917094
0.00945735
0.00974404
0.010031
0.0103183
0.0106058
0.0108935
0.0111816
0.0114698
0.0117583
0.0120469
0.0123357
0.0126247
0.0129139
0.0132031
0.0134924
0.0137818
0.0140711
0.0143605
0.0146498
0.0149391
0.0152282
0.0155171
0.0158059
0.0160943
0.0163825
0.0166702
0.0169576
0.0172444
0.0175308
0.0178164
0.0181015
0.0183857
0.0186692
0.0189517
0.0192332
0.0195137
0.0197931
0.0200711
0.0203479
0.0206232
0.020897
0.0211692
0.0214396
0.0217082
0.0219749
0.0222395
0.0225019
0.022762
0.0230197
0.0232749
0.0235274
0.0237771
0.0240239
0.0242676
0.0245082
0.0247454
0.0249792
0.0252094
0.0254359
0.0256585
0.025877
0.0260915
0.0263016
0.0265074
0.0267085
0.026905
0.0270966
0.0272832
0.0274647
0.0276409
0.0278117
0.027977
0.0281367
0.0282906
0.0284386
0.0285806
0.0287164
0.028846
0.0289692
0.029086
0.0291963
0.0292998
0.0293967
0.0294867
0.0295698
0.0296459
0.029715
0.029777
0.0298318
0.0298795
0.0299198
0.0299529
0.0299787
0.0299972
0.0300083
0.030012
0.0300084
0.0299974
0.0299791
0.0299535
0.0299206
0.0298804
0.029833
0.0297784
0.0297167
0.0296479
0.0295721
0.0294894
0.0293998
0.0293034
0.0292003
0.0290906
0.0289744
0.0288518
0.0287229
0.0285878
0.0284466
0.0282994
0.0281463
0.0279875
0.0278231
0.0276532
0.027478
0.0272975
0.0271119
0.0269213
0.0267259
0.0265258
0.0263212
0.0261121
0.0258987
0.0256811
0.0254595
0.0252341
0.0250048
0.024772
0.0245356
0.0242959
0.0240529
0.0238068
0.0235578
0.0233059
0.0230512
0.022794
0.0225342
0.022272
0.0220076
0.021741
0.0214724
0.0212018
0.0209294
0.0206552
0.0203794
0.0201021
0.0198232
0.0195431
0.0192616
0.0189789
0.0186951
0.0184103
0.0181245
0.0178379
0.0175504
0.0172622
0.0169732
0.0166837
0.0163936
0.016103
0.0158119
0.0155205
0.0152287
0.0149365
0.0146442
0.0143516
0.0140588
0.013766
0.013473
0.0131799
0.0128868
0.0125937
0.0123006
0.0120076
0.0117146
0.0114217
0.011129
0.0108363
0.0105438
0.0102515
0.00995934
0.00966737
0.00937559
0.00908401
0.00879265
0.0085015
0.00821058
0.00791988
0.00762941
0.00733917
0.00704915
0.00675937
0.00646981
0.00618048
0.00589136
0.00560246
0.00531378
0.00502529
0.004737
0.0044489
0.00416098
0.00387323
0.00358565
0.00329822
0.00301092
0.00272376
0.00243672
0.00214979
0.00186296
0.0015762
0.00128952
0.0010029
0.000716326
0.000429783
0.000143259
0.000156347
0.000469049
0.000781777
0.00109455
0.00140738
0.00172028
0.00203328
0.00234639
0.00265962
0.002973
0.00328653
0.00360024
0.00391413
0.00422822
0.00454253
0.00485707
0.00517185
0.00548688
0.00580218
0.00611775
0.00643362
0.00674978
0.00706624
0.00738302
0.00770012
0.00801754
0.00833529
0.00865338
0.00897181
0.00929058
0.00960968
0.00992912
0.0102489
0.010569
0.0108895
0.0112102
0.0115313
0.0118527
0.0121743
0.0124963
0.0128185
0.0131409
0.0134636
0.0137865
0.0141096
0.0144328
0.0147561
0.0150796
0.0154031
0.0157266
0.0160502
0.0163737
0.0166971
0.0170203
0.0173434
0.0176663
0.0179889
0.0183111
0.0186329
0.0189542
0.0192751
0.0195953
0.0199148
0.0202336
0.0205516
0.0208686
0.0211846
0.0214996
0.0218134
0.0221258
0.022437
0.0227466
0.0230546
0.023361
0.0236655
0.0239681
0.0242687
0.0245671
0.0248632
0.0251569
0.025448
0.0257364
0.026022
0.0263047
0.0265842
0.0268604
0.0271333
0.0274026
0.0276682
0.02793
0.0281877
0.0284413
0.0286905
0.0289353
0.0291754
0.0294108
0.0296412
0.0298665
0.0300865
0.0303011
0.0305101
0.0307134
0.0309108
0.0311022
0.0312874
0.0314662
0.0316386
0.0318044
0.0319635
0.0321157
0.0322609
0.032399
0.0325298
0.0326533
0.0327694
0.0328779
0.0329788
0.0330719
0.0331572
0.0332346
0.0333041
0.0333655
0.0334189
0.0334642
0.0335012
0.0335301
0.0335508
0.0335632
0.0335674
0.0335634
0.0335511
0.0335306
0.0335018
0.0334649
0.0334199
0.0333667
0.0333056
0.0332364
0.0331593
0.0330744
0.0329816
0.0328812
0.0327732
0.0326577
0.0325348
0.0324046
0.0322673
0.0321228
0.0319714
0.0318132
0.0316483
0.0314769
0.031299
0.0311148
0.0309245
0.0307282
0.030526
0.0303182
0.0301047
0.0298859
0.0296618
0.0294326
0.0291985
0.0289595
0.0287159
0.0284678
0.0282154
0.0279587
0.027698
0.0274334
0.0271651
0.0268931
0.0266177
0.0263389
0.026057
0.025772
0.025484
0.0251933
0.0248999
0.024604
0.0243057
0.0240051
0.0237024
0.0233976
0.0230908
0.0227822
0.0224719
0.02216
0.0218466
0.0215317
0.0212155
0.0208981
0.0205795
0.0202599
0.0199392
0.0196177
0.0192953
0.0189722
0.0186484
0.018324
0.017999
0.0176735
0.0173476
0.0170213
0.0166947
0.0163678
0.0160406
0.0157133
0.0153859
0.0150583
0.0147306
0.014403
0.0140753
0.0137476
0.01342
0.0130925
0.0127651
0.0124378
0.0121107
0.0117838
0.011457
0.0111304
0.0108041
0.0104779
0.010152
0.00982637
0.00950095
0.00917579
0.00885088
0.00852623
0.00820184
0.00787772
0.00755384
0.00723023
0.00690687
0.00658376
0.00626089
0.00593825
0.00561585
0.00529367
0.0049717
0.00464994
0.00432837
0.00400699
0.00368577
0.00336472
0.00304381
0.00272304
0.00240239
0.00208185
0.0017614
0.00144104
0.00112074
0.000800491
0.00048028
0.000160091
0.000172773
0.000518329
0.000863913
0.00120955
0.00155524
0.00190103
0.00224691
0.00259292
0.00293907
0.00328537
0.00363185
0.00397852
0.0043254
0.00467251
0.00501985
0.00536745
0.00571532
0.00606347
0.00641192
0.00676068
0.00710976
0.00745916
0.00780891
0.00815901
0.00850947
0.00886028
0.00921147
0.00956304
0.00991498
0.0102673
0.01062
0.0109731
0.0113265
0.0116804
0.0120346
0.0123891
0.012744
0.0130993
0.0134548
0.0138107
0.0141669
0.0145234
0.0148801
0.0152371
0.0155942
0.0159516
0.0163091
0.0166667
0.0170244
0.0173821
0.0177399
0.0180976
0.0184552
0.0188127
0.01917
0.019527
0.0198837
0.0202401
0.020596
0.0209514
0.0213063
0.0216605
0.0220139
0.0223666
0.0227183
0.023069
0.0234187
0.0237671
0.0241143
0.02446
0.0248042
0.0251469
0.0254877
0.0258268
0.0261638
0.0264987
0.0268313
0.0271616
0.0274893
0.0278144
0.0281367
0.028456
0.0287722
0.0290851
0.0293945
0.0297004
0.0300026
0.0303008
0.0305949
0.0308848
0.0311702
0.031451
0.0317271
0.0319982
0.0322642
0.0325249
0.0327801
0.0330297
0.0332734
0.0335112
0.0337428
0.033968
0.0341867
0.0343988
0.034604
0.0348022
0.0349933
0.035177
0.0353533
0.035522
0.0356829
0.0358359
0.035981
0.0361179
0.0362465
0.0363668
0.0364786
0.0365818
0.0366764
0.0367622
0.0368392
0.0369073
0.0369665
0.0370166
0.0370577
0.0370898
0.0371127
0.0371264
0.0371311
0.0371266
0.0371129
0.0370902
0.0370583
0.0370174
0.0369675
0.0369085
0.0368407
0.036764
0.0366786
0.0365844
0.0364816
0.0363703
0.0362506
0.0361226
0.0359863
0.035842
0.0356898
0.0355297
0.0353619
0.0351866
0.0350038
0.0348138
0.0346167
0.0344126
0.0342018
0.0339843
0.0337603
0.03353
0.0332936
0.0330512
0.0328029
0.0325491
0.0322897
0.032025
0.0317553
0.0314805
0.0312009
0.0309167
0.030628
0.030335
0.0300379
0.0297368
0.0294318
0.0291232
0.0288111
0.0284956
0.0281769
0.0278551
0.0275304
0.0272029
0.0268727
0.02654
0.026205
0.0258677
0.0255282
0.0251868
0.0248434
0.0244983
0.0241515
0.0238032
0.0234533
0.0231022
0.0227497
0.0223962
0.0220415
0.0216858
0.0213293
0.0209719
0.0206137
0.0202549
0.0198955
0.0195356
0.0191751
0.0188143
0.0184531
0.0180916
0.0177299
0.0173679