/*--------------------------------*- C++ -*----------------------------------*\
| =========                 |                                                 |
| \\      /  F ield         | OpenFOAM: The Open Source CFD Toolbox           |
|  \\    /   O peration     | Version:  v2012                                 |
|   \\  /    A nd           | Website:  www.openfoam.com                      |
|    \\/     M anipulation  |                                                 |
\*---------------------------------------------------------------------------*/
FoamFile
{
    version     2.0;
    format      ascii;
    class       volScalarField;
    location    "18.9";
    object      Psi_z;
}
// * * * * * * * * * * * * * * * * * * * * * * * * * * * * * * * * * * * * * //

dimensions      [0 2 -1 0 0 0 0];


internalField   nonuniform List<scalar> 
65536
(
8.05469e-06
2.41645e-05
4.02753e-05
5.63879e-05
7.25028e-05
8.86208e-05
0.000104742
0.000120869
0.000137
0.000153136
0.000169279
0.000185429
0.000201587
0.000217752
0.000233926
0.000250109
0.000266302
0.000282504
0.000298717
0.000314941
0.000331177
0.000347424
0.000363683
0.000379954
0.000396237
0.000412533
0.000428842
0.000445164
0.000461499
0.000477846
0.000494207
0.00051058
0.000526965
0.000543363
0.000559773
0.000576194
0.000592626
0.000609069
0.000625523
0.000641985
0.000658456
0.000674935
0.000691421
0.000707912
0.000724409
0.000740909
0.000757411
0.000773914
0.000790416
0.000806916
0.000823412
0.000839902
0.000856385
0.000872858
0.000889318
0.000905764
0.000922194
0.000938604
0.000954992
0.000971355
0.00098769
0.00100399
0.00102026
0.0010365
0.00105269
0.00106883
0.00108493
0.00110097
0.00111696
0.00113288
0.00114874
0.00116453
0.00118024
0.00119588
0.00121142
0.00122688
0.00124224
0.0012575
0.00127265
0.00128769
0.0013026
0.0013174
0.00133206
0.00134658
0.00136096
0.00137518
0.00138925
0.00140315
0.00141688
0.00143043
0.00144379
0.00145696
0.00146993
0.00148269
0.00149523
0.00150754
0.00151963
0.00153148
0.00154307
0.00155442
0.0015655
0.00157631
0.00158685
0.00159709
0.00160705
0.00161671
0.00162606
0.00163509
0.0016438
0.00165219
0.00166023
0.00166794
0.0016753
0.0016823
0.00168895
0.00169522
0.00170112
0.00170665
0.0017118
0.00171655
0.00172092
0.00172488
0.00172845
0.00173162
0.00173438
0.00173673
0.00173866
0.00174019
0.00174129
0.00174198
0.00174225
0.00174211
0.00174154
0.00174055
0.00173914
0.00173732
0.00173508
0.00173242
0.00172935
0.00172586
0.00172197
0.00171768
0.00171298
0.00170788
0.00170239
0.0016965
0.00169023
0.00168358
0.00167656
0.00166916
0.0016614
0.00165328
0.00164481
0.00163599
0.00162683
0.00161734
0.00160752
0.00159738
0.00158694
0.00157618
0.00156513
0.00155379
0.00154216
0.00153027
0.0015181
0.00150567
0.001493
0.00148007
0.00146692
0.00145353
0.00143992
0.0014261
0.00141207
0.00139784
0.00138343
0.00136882
0.00135405
0.0013391
0.00132399
0.00130872
0.00129331
0.00127775
0.00126206
0.00124624
0.00123029
0.00121423
0.00119806
0.00118178
0.00116541
0.00114894
0.00113238
0.00111574
0.00109902
0.00108223
0.00106537
0.00104845
0.00103146
0.00101443
0.000997336
0.0009802
0.000963021
0.000945802
0.000928547
0.000911259
0.000893942
0.000876599
0.000859231
0.000841843
0.000824437
0.000807015
0.00078958
0.000772133
0.000754678
0.000737215
0.000719747
0.000702275
0.000684801
0.000667327
0.000649854
0.000632383
0.000614915
0.000597451
0.000579993
0.000562541
0.000545095
0.000527658
0.000510228
0.000492807
0.000475396
0.000457994
0.000440601
0.000423219
0.000405846
0.000388484
0.000371132
0.00035379
0.000336459
0.000319137
0.000301825
0.000284522
0.000267228
0.000249943
0.000232667
0.000215399
0.000198138
0.000180884
0.000163636
0.000146395
0.000129159
0.000111928
9.4701e-05
7.74777e-05
6.02573e-05
4.30393e-05
2.58229e-05
8.60753e-06
2.41639e-05
7.24927e-05
0.000120825
0.000169162
0.000217506
0.000265859
0.000314224
0.000362601
0.000410994
0.000459404
0.000507832
0.000556282
0.000604753
0.000653249
0.00070177
0.000750319
0.000798896
0.000847504
0.000896143
0.000944815
0.000993521
0.00104226
0.00109104
0.00113985
0.0011887
0.00123759
0.00128652
0.00133548
0.00138449
0.00143353
0.00148261
0.00153173
0.00158089
0.00163008
0.00167931
0.00172857
0.00177787
0.0018272
0.00187656
0.00192595
0.00197536
0.0020248
0.00207426
0.00212374
0.00217323
0.00222273
0.00227224
0.00232175
0.00237125
0.00242076
0.00247025
0.00251972
0.00256917
0.00261859
0.00266797
0.00271732
0.00276661
0.00281584
0.00286501
0.0029141
0.00296311
0.00301202
0.00306083
0.00310953
0.00315811
0.00320655
0.00325484
0.00330298
0.00335094
0.00339872
0.0034463
0.00349367
0.00354082
0.00358772
0.00363437
0.00368074
0.00372683
0.00377261
0.00381807
0.00386318
0.00390794
0.00395233
0.00399631
0.00403989
0.00408303
0.00412571
0.00416792
0.00420963
0.00425082
0.00429148
0.00433158
0.00437109
0.00441
0.00444828
0.00448591
0.00452287
0.00455913
0.00459468
0.00462948
0.00466352
0.00469677
0.00472922
0.00476083
0.00479158
0.00482146
0.00485043
0.00487849
0.0049056
0.00493174
0.0049569
0.00498105
0.00500418
0.00502626
0.00504727
0.00506721
0.00508604
0.00510376
0.00512034
0.00513578
0.00515005
0.00516315
0.00517506
0.00518577
0.00519527
0.00520355
0.0052106
0.00521641
0.00522098
0.0052243
0.00522637
0.00522718
0.00522674
0.00522503
0.00522207
0.00521785
0.00521237
0.00520565
0.00519767
0.00518845
0.005178
0.00516633
0.00515343
0.00513933
0.00512403
0.00510755
0.0050899
0.00507108
0.00505113
0.00503005
0.00500785
0.00498456
0.0049602
0.00493477
0.00490831
0.00488083
0.00485235
0.00482288
0.00479247
0.00476111
0.00472884
0.00469568
0.00466165
0.00462677
0.00459106
0.00455456
0.00451727
0.00447923
0.00444046
0.00440098
0.00436081
0.00431998
0.0042785
0.00423641
0.00419372
0.00415046
0.00410665
0.00406231
0.00401746
0.00397212
0.00392631
0.00388006
0.00383339
0.0037863
0.00373883
0.00369099
0.0036428
0.00359428
0.00354545
0.00349632
0.0034469
0.00339722
0.0033473
0.00329714
0.00324676
0.00319617
0.0031454
0.00309444
0.00304332
0.00299205
0.00294064
0.0028891
0.00283744
0.00278567
0.00273381
0.00268185
0.00262982
0.00257771
0.00252555
0.00247333
0.00242106
0.00236875
0.00231641
0.00226404
0.00221165
0.00215924
0.00210683
0.0020544
0.00200198
0.00194956
0.00189714
0.00184474
0.00179235
0.00173997
0.00168761
0.00163528
0.00158296
0.00153067
0.00147841
0.00142618
0.00137397
0.00132179
0.00126964
0.00121753
0.00116544
0.00111339
0.00106136
0.00100937
0.0009574
0.000905464
0.000853556
0.000801675
0.000749821
0.000697993
0.000646188
0.000594405
0.000542644
0.000490903
0.000439179
0.000387472
0.000335779
0.000284099
0.00023243
0.00018077
0.000129116
7.74677e-05
2.58222e-05
4.0272e-05
0.000120818
0.000201369
0.000281928
0.0003625
0.000443086
0.000523692
0.000604319
0.000684972
0.000765652
0.000846365
0.000927111
0.0010079
0.00108872
0.00116959
0.0012505
0.00133146
0.00141247
0.00149354
0.00157465
0.00165583
0.00173706
0.00181836
0.00189971
0.00198113
0.00206261
0.00214415
0.00222576
0.00230743
0.00238917
0.00247097
0.00255284
0.00263477
0.00271676
0.00279881
0.00288092
0.00296309
0.0030453
0.00312757
0.00320989
0.00329225
0.00337465
0.00345708
0.00353955
0.00362203
0.00370454
0.00378706
0.00386958
0.0039521
0.00403461
0.0041171
0.00419956
0.00428198
0.00436436
0.00444667
0.00452892
0.00461108
0.00469314
0.00477509
0.00485692
0.00493862
0.00502015
0.00510152
0.00518269
0.00526367
0.00534441
0.00542492
0.00550515
0.00558511
0.00566476
0.00574407
0.00582304
0.00590163
0.00597982
0.00605758
0.00613489
0.00621172
0.00628804
0.00636382
0.00643904
0.00651366
0.00658765
0.00666099
0.00673363
0.00680555
0.00687671
0.00694708
0.00701663
0.00708531
0.00715309
0.00721994
0.00728582
0.00735069
0.00741452
0.00747727
0.00753889
0.00759935
0.00765862
0.00771665
0.00777341
0.00782886
0.00788296
0.00793566
0.00798694
0.00803676
0.00808508
0.00813186
0.00817707
0.00822066
0.00826262
0.00830289
0.00834146
0.00837828
0.00841333
0.00844657
0.00847798
0.00850752
0.00853518
0.00856092
0.00858473
0.00860657
0.00862643
0.00864429
0.00866014
0.00867394
0.0086857
0.0086954
0.00870302
0.00870856
0.00871201
0.00871337
0.00871263
0.00870979
0.00870485
0.00869781
0.00868868
0.00867746
0.00866416
0.0086488
0.00863137
0.0086119
0.0085904
0.00856688
0.00854137
0.00851389
0.00848445
0.00845308
0.0084198
0.00838464
0.00834763
0.0083088
0.00826817
0.00822578
0.00818165
0.00813582
0.00808833
0.00803921
0.00798848
0.0079362
0.00788239
0.0078271
0.00777035
0.0077122
0.00765266
0.00759179
0.00752963
0.0074662
0.00740155
0.00733572
0.00726875
0.00720067
0.00713152
0.00706135
0.00699018
0.00691805
0.006845
0.00677108
0.0066963
0.00662072
0.00654435
0.00646725
0.00638943
0.00631094
0.0062318
0.00615204
0.00607171
0.00599082
0.00590941
0.00582751
0.00574513
0.00566232
0.00557909
0.00549547
0.00541149
0.00532717
0.00524253
0.00515759
0.00507238
0.00498691
0.00490121
0.0048153
0.00472919
0.0046429
0.00455644
0.00446984
0.00438311
0.00429626
0.00420931
0.00412226
0.00403514
0.00394795
0.00386071
0.00377342
0.0036861
0.00359875
0.00351138
0.00342401
0.00333663
0.00324926
0.00316189
0.00307455
0.00298723
0.00289993
0.00281267
0.00272544
0.00263824
0.00255109
0.00246399
0.00237693
0.00228992
0.00220295
0.00211604
0.00202918
0.00194237
0.00185561
0.0017689
0.00168224
0.00159563
0.00150907
0.00142256
0.0013361
0.00124967
0.00116329
0.00107695
0.000990652
0.000904385
0.000818151
0.000731947
0.00064577
0.000559618
0.000473486
0.000387373
0.000301275
0.000215188
0.000129109
4.30359e-05
5.63784e-05
0.000169138
0.000281904
0.000394683
0.000507478
0.000620295
0.000733138
0.000846011
0.00095892
0.00107187
0.00118486
0.0012979
0.001411
0.00152415
0.00163736
0.00175063
0.00186397
0.00197739
0.00209087
0.00220444
0.00231808
0.0024318
0.00254561
0.00265951
0.00277349
0.00288756
0.00300172
0.00311597
0.00323032
0.00334475
0.00345927
0.00357389
0.00368859
0.00380338
0.00391825
0.00403321
0.00414824
0.00426335
0.00437854
0.00449378
0.00460909
0.00472446
0.00483987
0.00495533
0.00507082
0.00518634
0.00530187
0.00541741
0.00553295
0.00564848
0.00576398
0.00587944
0.00599484
0.00611018
0.00622544
0.0063406
0.00645564
0.00657055
0.0066853
0.00679989
0.00691428
0.00702845
0.00714239
0.00725606
0.00736945
0.00748252
0.00759525
0.00770761
0.00781958
0.00793112
0.0080422
0.00815278
0.00826284
0.00837234
0.00848125
0.00858952
0.00869712
0.008804
0.00891014
0.00901549
0.00912
0.00922364
0.00932635
0.0094281
0.00952883
0.0096285
0.00972707
0.00982448
0.00992069
0.0100156
0.0101093
0.0102016
0.0102924
0.0103818
0.0104697
0.0105561
0.0106408
0.0107238
0.0108051
0.0108846
0.0109623
0.0110381
0.0111119
0.0111838
0.0112536
0.0113213
0.0113868
0.0114501
0.0115112
0.01157
0.0116264
0.0116805
0.0117321
0.0117812
0.0118278
0.0118718
0.0119132
0.0119519
0.011988
0.0120214
0.012052
0.0120798
0.0121048
0.012127
0.0121464
0.0121629
0.0121765
0.0121871
0.0121949
0.0121998
0.0122017
0.0122006
0.0121966
0.0121897
0.0121799
0.0121671
0.0121514
0.0121327
0.0121112
0.0120868
0.0120595
0.0120294
0.0119964
0.0119607
0.0119222
0.0118809
0.011837
0.0117904
0.0117411
0.0116892
0.0116348
0.0115779
0.0115185
0.0114567
0.0113925
0.0113259
0.0112571
0.0111861
0.0111128
0.0110374
0.01096
0.0108805
0.010799
0.0107156
0.0106303
0.0105432
0.0104544
0.0103638
0.0102716
0.0101778
0.0100824
0.00998558
0.00988727
0.00978758
0.00968656
0.00958424
0.00948069
0.00937596
0.00927009
0.00916313
0.00905514
0.00894615
0.00883621
0.00872537
0.00861368
0.00850117
0.00838789
0.00827387
0.00815916
0.0080438
0.00792783
0.00781127
0.00769417
0.00757656
0.00745848
0.00733995
0.00722101
0.00710168
0.006982
0.006862
0.00674169
0.00662111
0.00650028
0.00637922
0.00625796
0.00613652
0.00601491
0.00589315
0.00577128
0.00564929
0.00552721
0.00540506
0.00528284
0.00516057
0.00503827
0.00491595
0.00479361
0.00467127
0.00454894
0.00442663
0.00430434
0.00418208
0.00405986
0.00393768
0.00381556
0.00369349
0.00357147
0.00344952
0.00332763
0.00320581
0.00308407
0.00296239
0.00284078
0.00271924
0.00259778
0.00247639
0.00235507
0.00223382
0.00211264
0.00199152
0.00187047
0.00174948
0.00162856
0.00150768
0.00138686
0.00126609
0.00114537
0.00102469
0.000904045
0.000783435
0.000662856
0.000542302
0.000421768
0.000301251
0.000180746
6.0248e-05
7.24824e-05
0.00021745
0.000362428
0.00050742
0.000652435
0.000797477
0.000942553
0.00108767
0.00123283
0.00137804
0.00152331
0.00166864
0.00181404
0.00195951
0.00210506
0.0022507
0.00239642
0.00254223
0.00268813
0.00283414
0.00298025
0.00312646
0.00327278
0.00341922
0.00356576
0.00371242
0.0038592
0.0040061
0.00415311
0.00430024
0.00444748
0.00459485
0.00474232
0.00488991
0.00503761
0.00518542
0.00533333
0.00548133
0.00562943
0.00577761
0.00592588
0.00607422
0.00622262
0.00637108
0.00651958
0.00666812
0.00681668
0.00696525
0.00711382
0.00726237
0.00741089
0.00755936
0.00770777
0.00785609
0.0080043
0.00815239
0.00830034
0.00844811
0.00859569
0.00874304
0.00889015
0.00903699
0.00918352
0.00932971
0.00947554
0.00962096
0.00976595
0.00991047
0.0100545
0.0101979
0.0103408
0.010483
0.0106246
0.0107655
0.0109055
0.0110448
0.0111832
0.0113207
0.0114573
0.0115928
0.0117272
0.0118605
0.0119927
0.0121236
0.0122532
0.0123814
0.0125082
0.0126335
0.0127573
0.0128795
0.013
0.0131187
0.0132356
0.0133507
0.0134638
0.0135749
0.0136839
0.0137907
0.0138953
0.0139977
0.0140976
0.0141951
0.0142902
0.0143826
0.0144725
0.0145596
0.014644
0.0147255
0.0148041
0.0148798
0.0149524
0.0150219
0.0150884
0.0151516
0.0152115
0.0152682
0.0153215
0.0153714
0.0154178
0.0154607
0.0155001
0.015536
0.0155682
0.0155968
0.0156217
0.0156429
0.0156604
0.0156742
0.0156842
0.0156904
0.0156929
0.0156916
0.0156864
0.0156775
0.0156649
0.0156484
0.0156282
0.0156042
0.0155765
0.0155451
0.0155099
0.0154712
0.0154288
0.0153828
0.0153332
0.0152801
0.0152235
0.0151635
0.0151001
0.0150334
0.0149634
0.0148901
0.0148137
0.0147341
0.0146515
0.0145658
0.0144773
0.0143858
0.0142916
0.0141946
0.0140949
0.0139926
0.0138877
0.0137804
0.0136707
0.0135586
0.0134443
0.0133278
0.0132091
0.0130884
0.0129657
0.0128411
0.0127146
0.0125863
0.0124563
0.0123247
0.0121915
0.0120568
0.0119206
0.011783
0.011644
0.0115038
0.0113624
0.0112198
0.0110761
0.0109314
0.0107857
0.010639
0.0104915
0.0103431
0.0101939
0.010044
0.00989338
0.00974211
0.00959024
0.00943779
0.00928481
0.00913135
0.00897743
0.00882309
0.00866836
0.00851329
0.0083579
0.00820221
0.00804627
0.00789009
0.0077337
0.00757713
0.0074204
0.00726353
0.00710655
0.00694947
0.00679231
0.00663509
0.00647782
0.00632053
0.00616322
0.00600591
0.00584861
0.00569134
0.0055341
0.00537689
0.00521974
0.00506265
0.00490562
0.00474867
0.00459179
0.00443499
0.00427827
0.00412164
0.00396511
0.00380866
0.00365231
0.00349605
0.00333988
0.00318381
0.00302783
0.00287194
0.00271614
0.00256042
0.00240479
0.00224924
0.00209376
0.00193836
0.00178303
0.00162776
0.00147255
0.00131739
0.00116229
0.00100722
0.0008522
0.000697209
0.000542246
0.000387303
0.000232376
7.74577e-05
8.85832e-05
0.000265754
0.000442935
0.000620136
0.000797363
0.000974625
0.00115193
0.00132928
0.00150669
0.00168416
0.0018617
0.00203931
0.00221701
0.0023948
0.00257269
0.00275067
0.00292877
0.00310697
0.00328529
0.00346374
0.00364231
0.00382101
0.00399984
0.00417881
0.00435792
0.00453717
0.00471656
0.0048961
0.00507578
0.00525561
0.00543558
0.00561569
0.00579594
0.00597634
0.00615686
0.00633752
0.00651831
0.00669921
0.00688024
0.00706136
0.00724259
0.00742391
0.00760531
0.00778678
0.0079683
0.00814987
0.00833147
0.00851309
0.0086947
0.0088763
0.00905786
0.00923936
0.00942078
0.0096021
0.00978329
0.00996434
0.0101452
0.0103259
0.0105063
0.0106864
0.0108663
0.0110458
0.011225
0.0114037
0.011582
0.0117598
0.0119371
0.0121138
0.0122899
0.0124653
0.01264
0.012814
0.0129871
0.0131593
0.0133306
0.013501
0.0136702
0.0138384
0.0140054
0.0141711
0.0143356
0.0144986
0.0146602
0.0148203
0.0149789
0.0151357
0.0152908
0.0154441
0.0155956
0.015745
0.0158924
0.0160377
0.0161807
0.0163215
0.0164598
0.0165957
0.0167291
0.0168598
0.0169878
0.017113
0.0172354
0.0173547
0.017471
0.0175842
0.0176941
0.0178007
0.0179039
0.0180037
0.0180999
0.0181925
0.0182814
0.0183665
0.0184478
0.0185252
0.0185986
0.0186679
0.0187332
0.0187942
0.0188511
0.0189037
0.0189519
0.0189958
0.0190352
0.0190702
0.0191007
0.0191267
0.0191481
0.019165
0.0191772
0.0191849
0.0191879
0.0191863
0.01918
0.0191691
0.0191536
0.0191335
0.0191087
0.0190794
0.0190455
0.019007
0.018964
0.0189166
0.0188647
0.0188084
0.0187477
0.0186828
0.0186135
0.0185401
0.0184625
0.0183809
0.0182952
0.0182055
0.018112
0.0180146
0.0179135
0.0178087
0.0177003
0.0175884
0.0174731
0.0173544
0.0172324
0.0171072
0.0169789
0.0168476
0.0167134
0.0165763
0.0164364
0.0162938
0.0161487
0.016001
0.0158509
0.0156984
0.0155437
0.0153868
0.0152278
0.0150668
0.0149038
0.014739
0.0145724
0.0144041
0.0142342
0.0140627
0.0138897
0.0137153
0.0135396
0.0133626
0.0131844
0.0130051
0.0128246
0.0126432
0.0124607
0.0122774
0.0120932
0.0119083
0.0117226
0.0115362
0.0113491
0.0111615
0.0109733
0.0107846
0.0105954
0.0104058
0.0102158
0.0100255
0.00983481
0.00964387
0.00945268
0.00926126
0.00906966
0.00887789
0.00868598
0.00849395
0.00830183
0.00810964
0.0079174
0.00772512
0.00753283
0.00734054
0.00714826
0.00695602
0.00676381
0.00657166
0.00637957
0.00618756
0.00599562
0.00580377
0.00561202
0.00542037
0.00522882
0.00503738
0.00484606
0.00465484
0.00446374
0.00427276
0.00408189
0.00389114
0.0037005
0.00350997
0.00331955
0.00312923
0.00293902
0.00274891
0.00255889
0.00236897
0.00217912
0.00198936
0.00179967
0.00161004
0.00142048
0.00123097
0.00104151
0.00085209
0.000662702
0.00047334
0.000283997
9.46643e-05
0.00010468
0.000314045
0.000523424
0.000732825
0.000942258
0.00115173
0.00136125
0.00157083
0.00178048
0.0019902
0.00220001
0.0024099
0.00261989
0.00282999
0.00304021
0.00325054
0.003461
0.0036716
0.00388233
0.00409321
0.00430424
0.00451542
0.00472676
0.00493826
0.00514993
0.00536177
0.00557378
0.00578596
0.00599831
0.00621083
0.00642352
0.00663639
0.00684942
0.00706262
0.00727598
0.0074895
0.00770317
0.00791698
0.00813093
0.00834501
0.00855921
0.00877352
0.00898793
0.00920242
0.00941698
0.0096316
0.00984625
0.0100609
0.0102756
0.0104903
0.0107049
0.0109194
0.0111339
0.0113482
0.0115624
0.0117765
0.0119903
0.0122038
0.0124172
0.0126301
0.0128428
0.013055
0.0132668
0.0134782
0.013689
0.0138992
0.0141089
0.0143178
0.014526
0.0147335
0.0149401
0.0151457
0.0153505
0.0155542
0.0157567
0.0159582
0.0161584
0.0163572
0.0165547
0.0167508
0.0169453
0.0171381
0.0173293
0.0175187
0.0177062
0.0178918
0.0180753
0.0182566
0.0184358
0.0186126
0.018787
0.0189588
0.0191281
0.0192946
0.0194584
0.0196192
0.019777
0.0199317
0.0200832
0.0202313
0.0203761
0.0205173
0.020655
0.0207889
0.020919
0.0210452
0.0211674
0.0212855
0.0213994
0.021509
0.0216142
0.021715
0.0218112
0.0219028
0.0219897
0.0220718
0.022149
0.0222213
0.0222886
0.0223509
0.022408
0.02246
0.0225067
0.0225481
0.0225843
0.022615
0.0226404
0.0226604
0.0226749
0.0226839
0.0226875
0.0226856
0.0226782
0.0226654
0.022647
0.0226232
0.0225939
0.0225591
0.022519
0.0224735
0.0224226
0.0223665
0.022305
0.0222384
0.0221666
0.0220897
0.0220078
0.0219208
0.021829
0.0217323
0.0216309
0.0215248
0.0214141
0.0212988
0.0211791
0.0210551
0.0209269
0.0207944
0.0206579
0.0205174
0.0203731
0.020225
0.0200732
0.0199178
0.0197589
0.0195967
0.0194312
0.0192625
0.0190907
0.018916
0.0187384
0.018558
0.018375
0.0181894
0.0180013
0.0178108
0.017618
0.017423
0.017226
0.0170269
0.0168259
0.0166231
0.0164185
0.0162122
0.0160044
0.0157951
0.0155843
0.0153722
0.0151588
0.0149442
0.0147285
0.0145117
0.0142939
0.0140752
0.0138556
0.0136352
0.013414
0.0131921
0.0129696
0.0127465
0.0125228
0.0122987
0.0120741
0.011849
0.0116236
0.0113979
0.0111719
0.0109456
0.0107191
0.0104924
0.0102655
0.0100385
0.00981143
0.00958425
0.00935701
0.00912973
0.00890244
0.00867515
0.00844789
0.00822066
0.00799348
0.00776636
0.00753933
0.00731238
0.00708553
0.00685879
0.00663216
0.00640565
0.00617926
0.00595301
0.00572689
0.00550091
0.00527506
0.00504935
0.00482378
0.00459835
0.00437305
0.00414789
0.00392285
0.00369794
0.00347316
0.00324849
0.00302394
0.00279949
0.00257514
0.00235089
0.00212672
0.00190264
0.00167862
0.00145467
0.00123078
0.00100694
0.000783132
0.000559358
0.000335606
0.000111867
0.000120773
0.000362323
0.00060389
0.000845482
0.00108711
0.00132879
0.00157052
0.00181232
0.0020542
0.00229616
0.00253822
0.00278039
0.00302267
0.00326507
0.00350761
0.00375028
0.00399311
0.00423608
0.00447922
0.00472253
0.00496601
0.00520967
0.00545352
0.00569755
0.00594178
0.0061862
0.00643082
0.00667564
0.00692066
0.00716588
0.0074113
0.00765692
0.00790274
0.00814875
0.00839494
0.00864132
0.00888788
0.00913461
0.0093815
0.00962854
0.00987572
0.010123
0.0103705
0.010618
0.0108656
0.0111133
0.011361
0.0116088
0.0118565
0.0121043
0.012352
0.0125996
0.0128471
0.0130945
0.0133417
0.0135888
0.0138356
0.0140821
0.0143283
0.0145742
0.0148197
0.0150647
0.0153092
0.0155532
0.0157965
0.0160393
0.0162813
0.0165225
0.0167629
0.0170024
0.017241
0.0174785
0.0177149
0.0179501
0.018184
0.0184166
0.0186478
0.0188775
0.0191056
0.019332
0.0195566
0.0197794
0.0200002
0.0202189
0.0204355
0.0206499
0.0208619
0.0210714
0.0212783
0.0214826
0.021684
0.0218826
0.0220782
0.0222706
0.0224598
0.0226456
0.022828
0.0230067
0.0231818
0.023353
0.0235203
0.0236836
0.0238426
0.0239974
0.0241478
0.0242937
0.0244349
0.0245714
0.0247031
0.0248298
0.0249515
0.025068
0.0251792
0.0252851
0.0253856
0.0254805
0.0255698
0.0256534
0.0257313
0.0258032
0.0258693
0.0259294
0.0259834
0.0260314
0.0260731
0.0261087
0.0261381
0.0261612
0.026178
0.0261885
0.0261926
0.0261905
0.0261819
0.0261671
0.0261458
0.0261183
0.0260845
0.0260443
0.0259979
0.0259453
0.0258865
0.0258216
0.0257506
0.0256736
0.0255906
0.0255017
0.0254069
0.0253065
0.0252003
0.0250886
0.0249713
0.0248487
0.0247207
0.0245875
0.0244492
0.0243058
0.0241576
0.0240045
0.0238467
0.0236844
0.0235176
0.0233464
0.023171
0.0229914
0.0228078
0.0226204
0.0224291
0.0222342
0.0220358
0.0218339
0.0216287
0.0214203
0.0212088
0.0209944
0.0207771
0.0205571
0.0203344
0.0201092
0.0198816
0.0196516
0.0194195
0.0191852
0.0189489
0.0187107
0.0184707
0.0182289
0.0179855
0.0177406
0.0174942
0.0172464
0.0169973
0.016747
0.0164955
0.016243
0.0159894
0.0157349
0.0154796
0.0152234
0.0149666
0.014709
0.0144508
0.014192
0.0139327
0.013673
0.0134128
0.0131522
0.0128913
0.0126301
0.0123687
0.0121071
0.0118452
0.0115832
0.0113211
0.0110589
0.0107967
0.0105344
0.010272
0.0100097
0.00974747
0.00948524
0.00922308
0.00896099
0.00869899
0.0084371
0.00817533
0.00791368
0.00765217
0.0073908
0.00712958
0.00686851
0.00660759
0.00634684
0.00608624
0.00582581
0.00556554
0.00530543
0.00504548
0.00478568
0.00452603
0.00426653
0.00400718
0.00374796
0.00348887
0.00322991
0.00297107
0.00271233
0.0024537
0.00219516
0.0019367
0.00167832
0.00142
0.00116175
0.000903532
0.000645354
0.000387202
0.000129066
0.00013686
0.000410586
0.000684329
0.000958103
0.00123192
0.00150579
0.00177972
0.00205373
0.00232783
0.00260203
0.00287633
0.00315076
0.00342532
0.00370002
0.00397487
0.00424988
0.00452505
0.00480041
0.00507595
0.00535168
0.00562761
0.00590374
0.00618009
0.00645665
0.00673343
0.00701043
0.00728766
0.00756512
0.00784281
0.00812073
0.00839888
0.00867725
0.00895585
0.00923468
0.00951372
0.00979297
0.0100724
0.0103521
0.0106319
0.0109119
0.0111921
0.0114724
0.0117529
0.0120335
0.0123141
0.0125949
0.0128757
0.0131566
0.0134375
0.0137183
0.0139991
0.0142798
0.0145605
0.0148409
0.0151212
0.0154013
0.0156812
0.0159607
0.0162399
0.0165186
0.016797
0.0170748
0.0173521
0.0176287
0.0179047
0.01818
0.0184545
0.0187281
0.0190007
0.0192724
0.0195429
0.0198123
0.0200804
0.0203472
0.0206126
0.0208765
0.0211387
0.0213993
0.0216581
0.0219149
0.0221698
0.0224225
0.0226731
0.0229213
0.0231671
0.0234103
0.0236509
0.0238887
0.0241235
0.0243553
0.024584
0.0248094
0.0250314
0.0252498
0.0254646
0.0256755
0.0258825
0.0260855
0.0262842
0.0264787
0.0266686
0.026854
0.0270346
0.0272104
0.0273811
0.0275468
0.0277072
0.0278622
0.0280118
0.0281557
0.0282939
0.0284262
0.0285526
0.0286729
0.028787
0.0288949
0.0289963
0.0290913
0.0291797
0.0292615
0.0293366
0.0294049
0.0294663
0.0295207
0.0295682
0.0296087
0.0296421
0.0296683
0.0296874
0.0296994
0.0297041
0.0297017
0.029692
0.0296751
0.029651
0.0296198
0.0295813
0.0295357
0.0294831
0.0294233
0.0293565
0.0292828
0.0292022
0.0291147
0.0290204
0.0289195
0.0288119
0.0286978
0.0285772
0.0284503
0.0283172
0.0281779
0.0280325
0.0278813
0.0277242
0.0275614
0.0273931
0.0272193
0.0270402
0.0268558
0.0266664
0.0264721
0.0262729
0.026069
0.0258607
0.0256478
0.0254307
0.0252095
0.0249842
0.0247551
0.0245222
0.0242857
0.0240457
0.0238023
0.0235557
0.023306
0.0230533
0.0227977
0.0225394
0.0222785
0.0220151
0.0217493
0.0214812
0.021211
0.0209387
0.0206644
0.0203883
0.0201104
0.0198309
0.0195499
0.0192673
0.0189834
0.0186982
0.0184117
0.0181242
0.0178356
0.017546
0.0172555
0.0169642
0.0166721
0.0163793
0.0160859
0.0157919
0.0154973
0.0152023
0.0149069
0.0146111
0.014315
0.0140185
0.0137219
0.013425
0.013128
0.0128309
0.0125336
0.0122363
0.011939
0.0116417
0.0113443
0.011047
0.0107498
0.0104526
0.0101555
0.00985856
0.00956171
0.00926501
0.00896845
0.00867205
0.00837581
0.00807974
0.00778385
0.00748814
0.00719261
0.00689727
0.00660211
0.00630714
0.00601235
0.00571774
0.00542332
0.00512906
0.00483498
0.00454106
0.0042473
0.00395369
0.00366022
0.00336688
0.00307367
0.00278058
0.00248759
0.0021947
0.0019019
0.00160917
0.00131651
0.0010239
0.000731324
0.000438783
0.000146259
0.000152941
0.00045883
0.000764739
0.00107068
0.00137667
0.00168272
0.00198884
0.00229505
0.00260136
0.00290778
0.00321432
0.003521
0.00382783
0.00413481
0.00444197
0.0047493
0.00505682
0.00536455
0.00567248
0.00598062
0.00628899
0.0065976
0.00690644
0.00721552
0.00752485
0.00783443
0.00814427
0.00845437
0.00876473
0.00907535
0.00938622
0.00969736
0.0100087
0.0103204
0.0106323
0.0109444
0.0112568
0.0115694
0.0118821
0.0121951
0.0125083
0.0128217
0.0131352
0.0134488
0.0137626
0.0140765
0.0143904
0.0147044
0.0150184
0.0153324
0.0156463
0.0159602
0.016274
0.0165876
0.016901
0.0172141
0.017527
0.0178396
0.0181518
0.0184635
0.0187748
0.0190855
0.0193956
0.019705
0.0200137
0.0203215
0.0206285
0.0209345
0.0212395
0.0215434
0.021846
0.0221474
0.0224473
0.0227458
0.0230427
0.0233379
0.0236314
0.0239229
0.0242124
0.0244999
0.0247851
0.0250679
0.0253483
0.0256261
0.0259012
0.0261735
0.0264427
0.0267089
0.0269718
0.0272313
0.0274873
0.0277396
0.0279881
0.0282327
0.0284731
0.0287093
0.0289412
0.0291684
0.029391
0.0296087
0.0298215
0.0300291
0.0302314
0.0304283
0.0306196
0.0308051
0.0309848
0.0311585
0.0313261
0.0314873
0.0316422
0.0317904
0.031932
0.0320668
0.0321947
0.0323156
0.0324293
0.0325357
0.0326349
0.0327265
0.0328107
0.0328872
0.032956
0.0330171
0.0330703
0.0331157
0.0331531
0.0331826
0.033204
0.0332174
0.0332228
0.0332201
0.0332092
0.0331904
0.0331634
0.0331284
0.0330853
0.0330343
0.0329753
0.0329083
0.0328335
0.0327509
0.0326606
0.0325626
0.032457
0.0323439
0.0322234
0.0320955
0.0319605
0.0318183
0.0316691
0.0315131
0.0313503
0.0311809
0.0310049
0.0308226
0.0306341
0.0304394
0.0302388
0.0300323
0.0298202
0.0296025
0.0293795
0.0291512
0.0289179
0.0286796
0.0284365
0.0281888
0.0279366
0.02768
0.0274193
0.0271545
0.0268859
0.0266134
0.0263374
0.0260579
0.0257751
0.025489
0.0252
0.024908
0.0246132
0.0243157
0.0240157
0.0237133
0.0234086
0.0231018
0.0227928
0.022482
0.0221692
0.0218548
0.0215387
0.0212211
0.020902
0.0205816
0.02026
0.0199372
0.0196133
0.0192884
0.0189626
0.0186359
0.0183085
0.0179803
0.0176515
0.0173222
0.0169923
0.0166619
0.0163312
0.016
0.0156686
0.0153369
0.015005
0.014673
0.0143408
0.0140084
0.0136761
0.0133437
0.0130112
0.0126788
0.0123465
0.0120142
0.011682
0.0113499
0.011018
0.0106862
0.0103545
0.0100231
0.00969176
0.00936064
0.00902972
0.00869901
0.0083685
0.00803819
0.0077081
0.00737822
0.00704855
0.00671909
0.00638983
0.00606078
0.00573193
0.00540326
0.00507478
0.00474649
0.00441836
0.00409039
0.00376257
0.0034349
0.00310736
0.00277993
0.00245262
0.00212541
0.00179828
0.00147122
0.00114422
0.000817265
0.000490346
0.000163446
0.000169015
0.000507054
0.000845115
0.00118321
0.00152136
0.00185958
0.00219788
0.00253628
0.00287478
0.00321341
0.00355218
0.0038911
0.00423018
0.00456944
0.00490889
0.00524853
0.00558839
0.00592847
0.00626879
0.00660934
0.00695015
0.00729121
0.00763254
0.00797414
0.00831602
0.00865818
0.00900063
0.00934336
0.00968639
0.0100297
0.0103733
0.0107172
0.0110614
0.0114059
0.0117506
0.0120956
0.0124409
0.0127864
0.0131322
0.0134782
0.0138244
0.0141708
0.0145174
0.0148641
0.015211
0.015558
0.0159051
0.0162522
0.0165994
0.0169465
0.0172936
0.0176407
0.0179876
0.0183344
0.0186809
0.0190272
0.0193732
0.0197189
0.0200641
0.0204089
0.0207531
0.0210968
0.0214397
0.021782
0.0221234
0.022464
0.0228035
0.0231421
0.0234794
0.0238156
0.0241504
0.0244838
0.0248157
0.025146
0.0254745
0.0258012
0.0261259
0.0264485
0.0267689
0.0270871
0.0274027
0.0277158
0.0280262
0.0283337
0.0286382
0.0289396
0.0292376
0.0295323
0.0298234
0.0301107
0.0303942
0.0306736
0.0309488
0.0312197
0.031486
0.0317476
0.0320043
0.0322561
0.0325026
0.0327438
0.0329795
0.0332095
0.0334337
0.0336518
0.0338637
0.0340694
0.0342685
0.034461
0.0346466
0.0348254
0.034997
0.0351613
0.0353183
0.0354677
0.0356095
0.0357434
0.0358695
0.0359875
0.0360974
0.036199
0.0362923
0.0363772
0.0364535
0.0365213
0.0365803
0.0366306
0.0366722
0.0367049
0.0367287
0.0367436
0.0367495
0.0367465
0.0367346
0.0367137
0.0366838
0.036645
0.0365973
0.0365408
0.0364754
0.0364012
0.0363183
0.0362268
0.0361267
0.0360181
0.035901
0.0357757
0.0356421
0.0355005
0.0353508
0.0351933
0.035028
0.0348551
0.0346747
0.034487
0.034292
0.03409
0.0338811
0.0336655
0.0334432
0.0332145
0.0329795
0.0327384
0.0324914
0.0322385
0.0319801
0.0317161
0.0314469
0.0311726
0.0308933
0.0306092
0.0303205
0.0300273
0.0297298
0.0294282
0.0291226
0.0288131
0.0285
0.0281834
0.0278634
0.0275402
0.0272139
0.0268847
0.0265526
0.026218
0.0258808
0.0255412
0.0251993
0.0248553
0.0245093
0.0241614
0.0238117
0.0234602
0.0231073
0.0227528
0.022397
0.0220399
0.0216816
0.0213222
0.0209618
0.0206005
0.0202383
0.0198754
0.0195118
0.0191475
0.0187827
0.0184174
0.0180516
0.0176854