/*--------------------------------*- C++ -*----------------------------------*\
| =========                 |                                                 |
| \\      /  F ield         | OpenFOAM: The Open Source CFD Toolbox           |
|  \\    /   O peration     | Version:  v2012                                 |
|   \\  /    A nd           | Website:  www.openfoam.com                      |
|    \\/     M anipulation  |                                                 |
\*---------------------------------------------------------------------------*/
FoamFile
{
    version     2.0;
    format      ascii;
    class       volVectorField;
    location    "18.9";
    object      U;
}
// * * * * * * * * * * * * * * * * * * * * * * * * * * * * * * * * * * * * * //

dimensions      [0 1 -1 0 0 0 0];


internalField   nonuniform List<vector> 
65536
(
(0.000657029 -0.000657042 0)
(0.00197112 -0.000657072 0)
(0.00328529 -0.000657129 0)
(0.00459961 -0.000657214 0)
(0.00591413 -0.000657327 0)
(0.00722889 -0.000657467 0)
(0.00854397 -0.000657635 0)
(0.00985941 -0.000657829 0)
(0.0111753 -0.00065805 0)
(0.0124916 -0.000658297 0)
(0.0138084 -0.00065857 0)
(0.0151258 -0.000658867 0)
(0.0164439 -0.000659188 0)
(0.0177626 -0.000659531 0)
(0.019082 -0.000659897 0)
(0.0204021 -0.000660284 0)
(0.0217231 -0.000660692 0)
(0.0230449 -0.000661118 0)
(0.0243676 -0.000661562 0)
(0.0256911 -0.000662022 0)
(0.0270156 -0.000662497 0)
(0.0283411 -0.000662986 0)
(0.0296676 -0.000663487 0)
(0.0309951 -0.000663998 0)
(0.0323236 -0.000664519 0)
(0.0336531 -0.000665045 0)
(0.0349837 -0.000665577 0)
(0.0363154 -0.000666112 0)
(0.0376482 -0.000666648 0)
(0.038982 -0.000667183 0)
(0.0403169 -0.000667713 0)
(0.0416529 -0.000668238 0)
(0.0429899 -0.000668755 0)
(0.0443279 -0.00066926 0)
(0.045667 -0.000669752 0)
(0.047007 -0.000670227 0)
(0.0483479 -0.000670682 0)
(0.0496897 -0.000671115 0)
(0.0510324 -0.000671522 0)
(0.0523758 -0.000671901 0)
(0.05372 -0.000672246 0)
(0.0550649 -0.000672556 0)
(0.0564103 -0.000672827 0)
(0.0577562 -0.000673054 0)
(0.0591026 -0.000673234 0)
(0.0604492 -0.000673363 0)
(0.0617961 -0.000673437 0)
(0.063143 -0.000673451 0)
(0.0644899 -0.000673402 0)
(0.0658367 -0.000673284 0)
(0.0671832 -0.000673093 0)
(0.0685292 -0.000672825 0)
(0.0698745 -0.000672473 0)
(0.0712191 -0.000672035 0)
(0.0725628 -0.000671503 0)
(0.0739052 -0.000670874 0)
(0.0752464 -0.000670141 0)
(0.0765859 -0.0006693 0)
(0.0779237 -0.000668344 0)
(0.0792594 -0.000667268 0)
(0.0805929 -0.000666067 0)
(0.0819238 -0.000664734 0)
(0.083252 -0.000663263 0)
(0.084577 -0.000661649 0)
(0.0858987 -0.000659885 0)
(0.0872167 -0.000657965 0)
(0.0885307 -0.000655883 0)
(0.0898404 -0.000653632 0)
(0.0911454 -0.000651206 0)
(0.0924454 -0.000648599 0)
(0.09374 -0.000645804 0)
(0.0950288 -0.000642815 0)
(0.0963115 -0.000639625 0)
(0.0975875 -0.000636228 0)
(0.0988566 -0.000632618 0)
(0.100118 -0.000628788 0)
(0.101372 -0.000624731 0)
(0.102617 -0.000620443 0)
(0.103854 -0.000615916 0)
(0.105081 -0.000611144 0)
(0.106299 -0.000606122 0)
(0.107506 -0.000600844 0)
(0.108702 -0.000595303 0)
(0.109888 -0.000589496 0)
(0.111061 -0.000583416 0)
(0.112221 -0.000577058 0)
(0.113369 -0.000570418 0)
(0.114503 -0.000563491 0)
(0.115623 -0.000556273 0)
(0.116729 -0.00054876 0)
(0.117819 -0.000540948 0)
(0.118893 -0.000532834 0)
(0.11995 -0.000524415 0)
(0.120991 -0.000515689 0)
(0.122014 -0.000506654 0)
(0.123018 -0.000497307 0)
(0.124003 -0.000487648 0)
(0.124969 -0.000477676 0)
(0.125914 -0.00046739 0)
(0.126839 -0.000456791 0)
(0.127742 -0.00044588 0)
(0.128622 -0.000434658 0)
(0.12948 -0.000423127 0)
(0.130315 -0.000411289 0)
(0.131126 -0.000399147 0)
(0.131912 -0.000386705 0)
(0.132673 -0.000373967 0)
(0.133408 -0.000360938 0)
(0.134117 -0.000347623 0)
(0.134799 -0.000334028 0)
(0.135453 -0.00032016 0)
(0.13608 -0.000306027 0)
(0.136678 -0.000291635 0)
(0.137247 -0.000276993 0)
(0.137786 -0.000262111 0)
(0.138295 -0.000246998 0)
(0.138774 -0.000231664 0)
(0.139222 -0.00021612 0)
(0.139639 -0.000200376 0)
(0.140024 -0.000184446 0)
(0.140377 -0.00016834 0)
(0.140697 -0.000152073 0)
(0.140985 -0.000135656 0)
(0.14124 -0.000119103 0)
(0.141462 -0.000102428 0)
(0.14165 -8.56456e-05 0)
(0.141805 -6.87699e-05 0)
(0.141925 -5.18158e-05 0)
(0.142012 -3.47981e-05 0)
(0.142064 -1.7732e-05 0)
(0.142083 -6.32716e-07 0)
(0.142067 1.64843e-05 0)
(0.142017 3.36037e-05 0)
(0.141933 5.07101e-05 0)
(0.141814 6.77881e-05 0)
(0.141661 8.48223e-05 0)
(0.141475 0.000101798 0)
(0.141254 0.000118699 0)
(0.141 0.000135512 0)
(0.140712 0.000152221 0)
(0.140391 0.000168813 0)
(0.140037 0.000185273 0)
(0.13965 0.000201587 0)
(0.13923 0.000217743 0)
(0.138778 0.000233728 0)
(0.138295 0.000249529 0)
(0.13778 0.000265135 0)
(0.137234 0.000280533 0)
(0.136658 0.000295714 0)
(0.136051 0.000310666 0)
(0.135415 0.00032538 0)
(0.134749 0.000339846 0)
(0.134055 0.000354057 0)
(0.133333 0.000368004 0)
(0.132583 0.000381679 0)
(0.131806 0.000395076 0)
(0.131002 0.000408189 0)
(0.130173 0.000421012 0)
(0.129318 0.00043354 0)
(0.128438 0.000445768 0)
(0.127535 0.000457694 0)
(0.126607 0.000469313 0)
(0.125657 0.000480623 0)
(0.124684 0.000491622 0)
(0.12369 0.000502309 0)
(0.122675 0.000512683 0)
(0.121639 0.000522742 0)
(0.120584 0.000532489 0)
(0.119509 0.000541922 0)
(0.118416 0.000551044 0)
(0.117304 0.000559856 0)
(0.116176 0.000568359 0)
(0.115031 0.000576557 0)
(0.113869 0.000584451 0)
(0.112693 0.000592046 0)
(0.111501 0.000599344 0)
(0.110295 0.00060635 0)
(0.109075 0.000613067 0)
(0.107842 0.000619501 0)
(0.106597 0.000625656 0)
(0.105339 0.000631537 0)
(0.10407 0.000637148 0)
(0.102791 0.000642497 0)
(0.1015 0.000647587 0)
(0.1002 0.000652425 0)
(0.0988902 0.000657017 0)
(0.0975716 0.000661369 0)
(0.0962445 0.000665487 0)
(0.0949094 0.000669377 0)
(0.0935668 0.000673046 0)
(0.092217 0.000676499 0)
(0.0908606 0.000679744 0)
(0.0894979 0.000682786 0)
(0.0881292 0.000685633 0)
(0.0867551 0.000688291 0)
(0.0853759 0.000690766 0)
(0.0839919 0.000693064 0)
(0.0826035 0.000695193 0)
(0.0812109 0.000697159 0)
(0.0798147 0.000698967 0)
(0.0784149 0.000700625 0)
(0.077012 0.000702138 0)
(0.0756062 0.000703513 0)
(0.0741978 0.000704756 0)
(0.0727871 0.000705873 0)
(0.0713742 0.00070687 0)
(0.0699595 0.000707752 0)
(0.0685431 0.000708525 0)
(0.0671253 0.000709196 0)
(0.0657062 0.000709769 0)
(0.0642861 0.00071025 0)
(0.0628651 0.000710644 0)
(0.0614435 0.000710957 0)
(0.0600212 0.000711193 0)
(0.0585986 0.000711358 0)
(0.0571757 0.000711456 0)
(0.0557527 0.000711491 0)
(0.0543297 0.00071147 0)
(0.0529068 0.000711395 0)
(0.0514841 0.000711272 0)
(0.0500617 0.000711104 0)
(0.0486396 0.000710896 0)
(0.0472181 0.000710651 0)
(0.045797 0.000710374 0)
(0.0443765 0.000710067 0)
(0.0429567 0.000709735 0)
(0.0415376 0.000709381 0)
(0.0401192 0.000709009 0)
(0.0387015 0.000708621 0)
(0.0372847 0.000708221 0)
(0.0358686 0.000707811 0)
(0.0344534 0.000707394 0)
(0.0330391 0.000706974 0)
(0.0316255 0.000706552 0)
(0.0302129 0.000706131 0)
(0.028801 0.000705713 0)
(0.02739 0.000705302 0)
(0.0259798 0.000704898 0)
(0.0245704 0.000704503 0)
(0.0231618 0.000704121 0)
(0.021754 0.000703752 0)
(0.0203468 0.000703398 0)
(0.0189404 0.00070306 0)
(0.0175346 0.000702741 0)
(0.0161294 0.000702441 0)
(0.0147249 0.000702162 0)
(0.0133208 0.000701905 0)
(0.0119173 0.00070167 0)
(0.0105142 0.00070146 0)
(0.00911146 0.000701273 0)
(0.0077091 0.000701113 0)
(0.00630704 0.000700977 0)
(0.00490522 0.000700869 0)
(0.00350359 0.000700787 0)
(0.0021021 0.000700733 0)
(0.000700692 0.000700705 0)
(0.000657004 -0.00197111 0)
(0.00197104 -0.00197119 0)
(0.00328516 -0.00197136 0)
(0.00459942 -0.00197162 0)
(0.00591388 -0.00197196 0)
(0.0072286 -0.00197238 0)
(0.00854362 -0.00197288 0)
(0.00985901 -0.00197347 0)
(0.0111748 -0.00197413 0)
(0.0124911 -0.00197487 0)
(0.0138079 -0.00197569 0)
(0.0151252 -0.00197658 0)
(0.0164432 -0.00197754 0)
(0.0177619 -0.00197858 0)
(0.0190813 -0.00197967 0)
(0.0204014 -0.00198084 0)
(0.0217223 -0.00198206 0)
(0.0230441 -0.00198334 0)
(0.0243667 -0.00198467 0)
(0.0256902 -0.00198605 0)
(0.0270147 -0.00198748 0)
(0.0283402 -0.00198895 0)
(0.0296666 -0.00199045 0)
(0.0309941 -0.00199199 0)
(0.0323226 -0.00199355 0)
(0.0336521 -0.00199514 0)
(0.0349827 -0.00199673 0)
(0.0363144 -0.00199834 0)
(0.0376472 -0.00199995 0)
(0.038981 -0.00200155 0)
(0.0403159 -0.00200315 0)
(0.0416519 -0.00200473 0)
(0.0429889 -0.00200628 0)
(0.044327 -0.0020078 0)
(0.045666 -0.00200928 0)
(0.0470061 -0.0020107 0)
(0.0483471 -0.00201207 0)
(0.0496889 -0.00201337 0)
(0.0510317 -0.0020146 0)
(0.0523752 -0.00201574 0)
(0.0537194 -0.00201678 0)
(0.0550643 -0.00201771 0)
(0.0564099 -0.00201853 0)
(0.0577559 -0.00201921 0)
(0.0591023 -0.00201976 0)
(0.0604491 -0.00202015 0)
(0.0617961 -0.00202037 0)
(0.0631431 -0.00202042 0)
(0.0644902 -0.00202028 0)
(0.0658371 -0.00201993 0)
(0.0671837 -0.00201936 0)
(0.0685298 -0.00201856 0)
(0.0698754 -0.00201751 0)
(0.0712202 -0.0020162 0)
(0.072564 -0.00201461 0)
(0.0739067 -0.00201273 0)
(0.075248 -0.00201053 0)
(0.0765878 -0.00200802 0)
(0.0779258 -0.00200515 0)
(0.0792618 -0.00200193 0)
(0.0805955 -0.00199834 0)
(0.0819267 -0.00199434 0)
(0.0832551 -0.00198994 0)
(0.0845805 -0.0019851 0)
(0.0859025 -0.00197981 0)
(0.0872208 -0.00197406 0)
(0.0885352 -0.00196782 0)
(0.0898452 -0.00196107 0)
(0.0911506 -0.0019538 0)
(0.0924509 -0.00194599 0)
(0.0937459 -0.00193761 0)
(0.0950351 -0.00192865 0)
(0.0963182 -0.00191908 0)
(0.0975947 -0.0019089 0)
(0.0988642 -0.00189807 0)
(0.100126 -0.00188659 0)
(0.10138 -0.00187443 0)
(0.102626 -0.00186157 0)
(0.103863 -0.00184799 0)
(0.105091 -0.00183368 0)
(0.106309 -0.00181862 0)
(0.107517 -0.00180279 0)
(0.108714 -0.00178618 0)
(0.1099 -0.00176876 0)
(0.111073 -0.00175052 0)
(0.112235 -0.00173146 0)
(0.113383 -0.00171154 0)
(0.114518 -0.00169076 0)
(0.115638 -0.00166911 0)
(0.116744 -0.00164658 0)
(0.117835 -0.00162314 0)
(0.11891 -0.00159881 0)
(0.119968 -0.00157355 0)
(0.121009 -0.00154738 0)
(0.122032 -0.00152027 0)
(0.123037 -0.00149223 0)
(0.124023 -0.00146326 0)
(0.124989 -0.00143334 0)
(0.125935 -0.00140248 0)
(0.12686 -0.00137068 0)
(0.127764 -0.00133795 0)
(0.128645 -0.00130428 0)
(0.129504 -0.00126969 0)
(0.130339 -0.00123417 0)
(0.131151 -0.00119774 0)
(0.131937 -0.00116041 0)
(0.132699 -0.00112219 0)
(0.133435 -0.0010831 0)
(0.134144 -0.00104315 0)
(0.134827 -0.00100236 0)
(0.135482 -0.000960744 0)
(0.136109 -0.000918335 0)
(0.136707 -0.000875151 0)
(0.137276 -0.000831217 0)
(0.137816 -0.000786561 0)
(0.138326 -0.000741212 0)
(0.138805 -0.000695198 0)
(0.139254 -0.000648554 0)
(0.139671 -0.000601313 0)
(0.140056 -0.000553509 0)
(0.140409 -0.00050518 0)
(0.14073 -0.000456363 0)
(0.141018 -0.000407099 0)
(0.141274 -0.000357426 0)
(0.141495 -0.000307388 0)
(0.141684 -0.000257026 0)
(0.141838 -0.000206384 0)
(0.141959 -0.000155507 0)
(0.142046 -0.000104439 0)
(0.142099 -5.3225e-05 0)
(0.142117 -1.91187e-06 0)
(0.142101 4.94547e-05 0)
(0.142051 0.000100828 0)
(0.141967 0.000152163 0)
(0.141848 0.000203412 0)
(0.141695 0.00025453 0)
(0.141509 0.000305471 0)
(0.141288 0.00035619 0)
(0.141033 0.000406643 0)
(0.140745 0.000456785 0)
(0.140424 0.000506573 0)
(0.140069 0.000555967 0)
(0.139682 0.000604924 0)
(0.139262 0.000653406 0)
(0.13881 0.000701373 0)
(0.138326 0.000748788 0)
(0.137811 0.000795616 0)
(0.137265 0.000841822 0)
(0.136688 0.000887373 0)
(0.136081 0.000932239 0)
(0.135444 0.00097639 0)
(0.134778 0.0010198 0)
(0.134083 0.00106244 0)
(0.13336 0.00110429 0)
(0.13261 0.00114532 0)
(0.131832 0.00118552 0)
(0.131028 0.00122486 0)
(0.130198 0.00126333 0)
(0.129343 0.00130092 0)
(0.128462 0.00133761 0)
(0.127558 0.00137339 0)
(0.12663 0.00140825 0)
(0.125679 0.00144218 0)
(0.124706 0.00147518 0)
(0.123711 0.00150724 0)
(0.122695 0.00153836 0)
(0.121659 0.00156854 0)
(0.120603 0.00159778 0)
(0.119527 0.00162608 0)
(0.118433 0.00165345 0)
(0.117322 0.00167988 0)
(0.116193 0.00170539 0)
(0.115047 0.00172998 0)
(0.113885 0.00175366 0)
(0.112707 0.00177644 0)
(0.111515 0.00179833 0)
(0.110309 0.00181934 0)
(0.109088 0.00183949 0)
(0.107855 0.00185879 0)
(0.106609 0.00187724 0)
(0.105351 0.00189488 0)
(0.104081 0.00191171 0)
(0.102801 0.00192775 0)
(0.10151 0.00194302 0)
(0.100209 0.00195752 0)
(0.0988991 0.00197129 0)
(0.09758 0.00198434 0)
(0.0962525 0.00199669 0)
(0.094917 0.00200835 0)
(0.0935739 0.00201935 0)
(0.0922237 0.00202971 0)
(0.0908668 0.00203943 0)
(0.0895037 0.00204856 0)
(0.0881347 0.00205709 0)
(0.0867602 0.00206506 0)
(0.0853806 0.00207247 0)
(0.0839963 0.00207936 0)
(0.0826075 0.00208574 0)
(0.0812147 0.00209163 0)
(0.0798181 0.00209705 0)
(0.0784181 0.00210202 0)
(0.0770149 0.00210655 0)
(0.0756088 0.00211067 0)
(0.0742002 0.0021144 0)
(0.0727892 0.00211774 0)
(0.0713761 0.00212072 0)
(0.0699611 0.00212336 0)
(0.0685445 0.00212568 0)
(0.0671265 0.00212768 0)
(0.0657072 0.0021294 0)
(0.064287 0.00213084 0)
(0.0628658 0.00213201 0)
(0.061444 0.00213295 0)
(0.0600216 0.00213365 0)
(0.0585988 0.00213414 0)
(0.0571758 0.00213443 0)
(0.0557527 0.00213453 0)
(0.0543296 0.00213446 0)
(0.0529066 0.00213423 0)
(0.0514838 0.00213386 0)
(0.0500613 0.00213335 0)
(0.0486392 0.00213272 0)
(0.0472175 0.00213198 0)
(0.0457964 0.00213115 0)
(0.0443759 0.00213023 0)
(0.042956 0.00212923 0)
(0.0415368 0.00212816 0)
(0.0401184 0.00212704 0)
(0.0387007 0.00212587 0)
(0.0372838 0.00212467 0)
(0.0358678 0.00212344 0)
(0.0344526 0.00212218 0)
(0.0330382 0.00212092 0)
(0.0316247 0.00211965 0)
(0.030212 0.00211839 0)
(0.0288002 0.00211713 0)
(0.0273892 0.00211589 0)
(0.025979 0.00211468 0)
(0.0245696 0.0021135 0)
(0.023161 0.00211235 0)
(0.0217532 0.00211124 0)
(0.0203461 0.00211017 0)
(0.0189397 0.00210916 0)
(0.017534 0.0021082 0)
(0.0161289 0.0021073 0)
(0.0147243 0.00210646 0)
(0.0133203 0.00210569 0)
(0.0119168 0.00210498 0)
(0.0105138 0.00210435 0)
(0.00911111 0.00210379 0)
(0.0077088 0.00210331 0)
(0.00630679 0.0021029 0)
(0.00490503 0.00210258 0)
(0.00350346 0.00210233 0)
(0.00210202 0.00210217 0)
(0.000700664 0.00210209 0)
(0.000656946 -0.00328508 0)
(0.00197087 -0.00328523 0)
(0.00328487 -0.00328551 0)
(0.00459902 -0.00328594 0)
(0.00591337 -0.0032865 0)
(0.00722797 -0.0032872 0)
(0.00854289 -0.00328805 0)
(0.00985817 -0.00328902 0)
(0.0111739 -0.00329013 0)
(0.01249 -0.00329137 0)
(0.0138067 -0.00329273 0)
(0.015124 -0.00329422 0)
(0.0164419 -0.00329583 0)
(0.0177605 -0.00329755 0)
(0.0190797 -0.00329939 0)
(0.0203998 -0.00330133 0)
(0.0217206 -0.00330337 0)
(0.0230423 -0.00330551 0)
(0.0243649 -0.00330773 0)
(0.0256883 -0.00331004 0)
(0.0270128 -0.00331243 0)
(0.0283382 -0.00331488 0)
(0.0296646 -0.00331739 0)
(0.030992 -0.00331996 0)
(0.0323204 -0.00332257 0)
(0.03365 -0.00332521 0)
(0.0349806 -0.00332788 0)
(0.0363122 -0.00333056 0)
(0.037645 -0.00333325 0)
(0.0389789 -0.00333594 0)
(0.0403138 -0.0033386 0)
(0.0416498 -0.00334124 0)
(0.0429869 -0.00334384 0)
(0.044325 -0.00334638 0)
(0.0456641 -0.00334885 0)
(0.0470042 -0.00335124 0)
(0.0483452 -0.00335353 0)
(0.0496872 -0.00335571 0)
(0.05103 -0.00335776 0)
(0.0523737 -0.00335967 0)
(0.0537181 -0.00336142 0)
(0.0550631 -0.00336299 0)
(0.0564088 -0.00336436 0)
(0.057755 -0.00336551 0)
(0.0591016 -0.00336643 0)
(0.0604486 -0.0033671 0)
(0.0617958 -0.00336749 0)
(0.0631431 -0.00336758 0)
(0.0644905 -0.00336736 0)
(0.0658376 -0.00336679 0)
(0.0671845 -0.00336586 0)
(0.068531 -0.00336454 0)
(0.0698769 -0.00336281 0)
(0.0712221 -0.00336064 0)
(0.0725663 -0.00335801 0)
(0.0739094 -0.00335489 0)
(0.0752511 -0.00335125 0)
(0.0765913 -0.00334708 0)
(0.0779298 -0.00334233 0)
(0.0792663 -0.00333698 0)
(0.0806005 -0.003331 0)
(0.0819323 -0.00332436 0)
(0.0832612 -0.00331704 0)
(0.0845872 -0.003309 0)
(0.0859098 -0.00330021 0)
(0.0872287 -0.00329064 0)
(0.0885438 -0.00328026 0)
(0.0898545 -0.00326904 0)
(0.0911606 -0.00325694 0)
(0.0924617 -0.00324394 0)
(0.0937574 -0.00322999 0)
(0.0950474 -0.00321508 0)
(0.0963313 -0.00319916 0)
(0.0976086 -0.00318221 0)
(0.098879 -0.00316419 0)
(0.100142 -0.00314507 0)
(0.101397 -0.00312482 0)
(0.102644 -0.00310341 0)
(0.103882 -0.0030808 0)
(0.105111 -0.00305697 0)
(0.10633 -0.00303189 0)
(0.107539 -0.00300553 0)
(0.108737 -0.00297785 0)
(0.109923 -0.00294884 0)
(0.111098 -0.00291847 0)
(0.11226 -0.0028867 0)
(0.11341 -0.00285352 0)
(0.114546 -0.00281891 0)
(0.115668 -0.00278284 0)
(0.116775 -0.00274529 0)
(0.117867 -0.00270625 0)
(0.118943 -0.00266569 0)
(0.120002 -0.00262361 0)
(0.121044 -0.00257999 0)
(0.122069 -0.00253482 0)
(0.123075 -0.00248809 0)
(0.124062 -0.0024398 0)
(0.12503 -0.00238994 0)
(0.125977 -0.00233851 0)
(0.126903 -0.00228552 0)
(0.127808 -0.00223095 0)
(0.128691 -0.00217483 0)
(0.129551 -0.00211717 0)
(0.130387 -0.00205796 0)
(0.1312 -0.00199723 0)
(0.131988 -0.001935 0)
(0.13275 -0.00187129 0)
(0.133487 -0.00180611 0)
(0.134198 -0.00173951 0)
(0.134882 -0.0016715 0)
(0.135538 -0.00160213 0)
(0.136166 -0.00153142 0)
(0.136765 -0.00145942 0)
(0.137335 -0.00138616 0)
(0.137876 -0.00131171 0)
(0.138387 -0.00123609 0)
(0.138867 -0.00115936 0)
(0.139316 -0.00108159 0)
(0.139734 -0.00100281 0)
(0.14012 -0.000923098 0)
(0.140474 -0.000842507 0)
(0.140796 -0.000761103 0)
(0.141084 -0.00067895 0)
(0.14134 -0.000596116 0)
(0.141562 -0.000512672 0)
(0.141751 -0.000428687 0)
(0.141906 -0.000344235 0)
(0.142027 -0.000259389 0)
(0.142114 -0.000174225 0)
(0.142167 -8.88181e-05 0)
(0.142186 -3.24501e-06 0)
(0.14217 8.24173e-05 0)
(0.14212 0.000168092 0)
(0.142035 0.000253701 0)
(0.141916 0.000339167 0)
(0.141763 0.000424414 0)
(0.141576 0.000509366 0)
(0.141355 0.000593947 0)
(0.1411 0.000678083 0)
(0.140812 0.000761701 0)
(0.14049 0.000844729 0)
(0.140135 0.000927097 0)
(0.139747 0.00100874 0)
(0.139327 0.00108958 0)
(0.138874 0.00116957 0)
(0.138389 0.00124863 0)
(0.137873 0.00132672 0)
(0.137326 0.00140376 0)
(0.136748 0.00147972 0)
(0.13614 0.00155453 0)
(0.135502 0.00162814 0)
(0.134835 0.00170052 0)
(0.13414 0.00177161 0)
(0.133416 0.00184138 0)
(0.132664 0.0019098 0)
(0.131885 0.00197681 0)
(0.13108 0.0020424 0)
(0.130249 0.00210654 0)
(0.129392 0.0021692 0)
(0.128511 0.00223036 0)
(0.127605 0.00229001 0)
(0.126676 0.00234811 0)
(0.125724 0.00240468 0)
(0.124749 0.00245968 0)
(0.123753 0.00251312 0)
(0.122736 0.00256499 0)
(0.121699 0.00261529 0)
(0.120641 0.00266402 0)
(0.119565 0.00271118 0)
(0.118469 0.00275678 0)
(0.117356 0.00280083 0)
(0.116226 0.00284333 0)
(0.115079 0.0028843 0)
(0.113916 0.00292376 0)
(0.112737 0.00296171 0)
(0.111544 0.00299819 0)
(0.110336 0.0030332 0)
(0.109115 0.00306676 0)
(0.10788 0.00309891 0)
(0.106633 0.00312965 0)
(0.105374 0.00315903 0)
(0.104103 0.00318706 0)
(0.102822 0.00321378 0)
(0.10153 0.0032392 0)
(0.100228 0.00326336 0)
(0.098917 0.00328629 0)
(0.097597 0.00330802 0)
(0.0962685 0.00332858 0)
(0.0949321 0.003348 0)
(0.0935881 0.00336631 0)
(0.0922371 0.00338354 0)
(0.0908794 0.00339973 0)
(0.0895155 0.00341491 0)
(0.0881457 0.00342911 0)
(0.0867705 0.00344237 0)
(0.0853902 0.00345471 0)
(0.0840051 0.00346617 0)
(0.0826157 0.00347678 0)
(0.0812222 0.00348658 0)
(0.079825 0.00349559 0)
(0.0784244 0.00350385 0)
(0.0770206 0.00351138 0)
(0.075614 0.00351823 0)
(0.0742049 0.00352441 0)
(0.0727934 0.00352997 0)
(0.0713798 0.00353492 0)
(0.0699644 0.0035393 0)
(0.0685474 0.00354314 0)
(0.067129 0.00354647 0)
(0.0657093 0.0035493 0)
(0.0642887 0.00355168 0)
(0.0628672 0.00355363 0)
(0.0614451 0.00355517 0)
(0.0600224 0.00355632 0)
(0.0585994 0.00355712 0)
(0.0571761 0.00355759 0)
(0.0557527 0.00355774 0)
(0.0543294 0.00355761 0)
(0.0529062 0.00355722 0)
(0.0514832 0.00355658 0)
(0.0500605 0.00355572 0)
(0.0486382 0.00355466 0)
(0.0472165 0.00355342 0)
(0.0457952 0.00355201 0)
(0.0443746 0.00355046 0)
(0.0429546 0.00354878 0)
(0.0415354 0.003547 0)
(0.0401169 0.00354512 0)
(0.0386991 0.00354316 0)
(0.0372822 0.00354115 0)
(0.0358661 0.00353908 0)
(0.0344509 0.00353699 0)
(0.0330365 0.00353487 0)
(0.031623 0.00353275 0)
(0.0302103 0.00353063 0)
(0.0287985 0.00352853 0)
(0.0273875 0.00352646 0)
(0.0259774 0.00352443 0)
(0.0245681 0.00352245 0)
(0.0231595 0.00352053 0)
(0.0217518 0.00351868 0)
(0.0203447 0.0035169 0)
(0.0189384 0.00351521 0)
(0.0175327 0.0035136 0)
(0.0161277 0.0035121 0)
(0.0147232 0.0035107 0)
(0.0133193 0.0035094 0)
(0.0119159 0.00350823 0)
(0.010513 0.00350717 0)
(0.00911041 0.00350624 0)
(0.00770821 0.00350543 0)
(0.0063063 0.00350475 0)
(0.00490465 0.00350421 0)
(0.00350318 0.0035038 0)
(0.00210185 0.00350352 0)
(0.000700609 0.00350339 0)
(0.00065686 -0.00459892 0)
(0.00197061 -0.00459912 0)
(0.00328444 -0.00459952 0)
(0.00459842 -0.00460011 0)
(0.0059126 -0.00460091 0)
(0.00722704 -0.00460189 0)
(0.00854178 -0.00460307 0)
(0.0098569 -0.00460444 0)
(0.0111724 -0.004606 0)
(0.0124885 -0.00460774 0)
(0.013805 -0.00460965 0)
(0.0151221 -0.00461174 0)
(0.0164399 -0.004614 0)
(0.0177583 -0.00461642 0)
(0.0190774 -0.00461899 0)
(0.0203974 -0.00462172 0)
(0.0217181 -0.00462459 0)
(0.0230397 -0.00462759 0)
(0.0243621 -0.00463071 0)
(0.0256855 -0.00463395 0)
(0.0270098 -0.0046373 0)
(0.0283351 -0.00464074 0)
(0.0296615 -0.00464427 0)
(0.0309888 -0.00464788 0)
(0.0323172 -0.00465154 0)
(0.0336467 -0.00465526 0)
(0.0349773 -0.00465901 0)
(0.036309 -0.00466278 0)
(0.0376417 -0.00466656 0)
(0.0389756 -0.00467034 0)
(0.0403105 -0.00467409 0)
(0.0416466 -0.0046778 0)
(0.0429837 -0.00468145 0)
(0.0443219 -0.00468502 0)
(0.0456611 -0.0046885 0)
(0.0470013 -0.00469187 0)
(0.0483425 -0.0046951 0)
(0.0496846 -0.00469817 0)
(0.0510276 -0.00470107 0)
(0.0523714 -0.00470377 0)
(0.053716 -0.00470624 0)
(0.0550613 -0.00470846 0)
(0.0564072 -0.0047104 0)
(0.0577537 -0.00471205 0)
(0.0591006 -0.00471336 0)
(0.0604479 -0.00471432 0)
(0.0617954 -0.0047149 0)
(0.0631431 -0.00471506 0)
(0.0644908 -0.00471478 0)
(0.0658385 -0.00471402 0)
(0.0671858 -0.00471275 0)
(0.0685328 -0.00471093 0)
(0.0698792 -0.00470855 0)
(0.0712248 -0.00470555 0)
(0.0725696 -0.0047019 0)
(0.0739133 -0.00469757 0)
(0.0752557 -0.00469252 0)
(0.0765966 -0.0046867 0)
(0.0779358 -0.00468009 0)
(0.079273 -0.00467265 0)
(0.080608 -0.00466432 0)
(0.0819405 -0.00465507 0)
(0.0832703 -0.00464486 0)
(0.0845972 -0.00463365 0)
(0.0859207 -0.00462138 0)
(0.0872406 -0.00460803 0)
(0.0885566 -0.00459354 0)
(0.0898684 -0.00457788 0)
(0.0911755 -0.00456098 0)
(0.0924777 -0.00454282 0)
(0.0937746 -0.00452335 0)
(0.0950658 -0.00450252 0)
(0.0963509 -0.00448028 0)
(0.0976295 -0.00445659 0)
(0.0989011 -0.00443141 0)
(0.100165 -0.00440468 0)
(0.101422 -0.00437638 0)
(0.10267 -0.00434644 0)
(0.10391 -0.00431484 0)
(0.10514 -0.00428152 0)
(0.106361 -0.00424644 0)
(0.107571 -0.00420957 0)
(0.10877 -0.00417087 0)
(0.109959 -0.00413029 0)
(0.111135 -0.0040878 0)
(0.112299 -0.00404336 0)
(0.113451 -0.00399694 0)
(0.114588 -0.00394851 0)
(0.115712 -0.00389804 0)
(0.116821 -0.0038455 0)
(0.117914 -0.00379086 0)
(0.118992 -0.00373411 0)
(0.120053 -0.00367521 0)
(0.121097 -0.00361416 0)
(0.122124 -0.00355093 0)
(0.123132 -0.00348552 0)
(0.124121 -0.00341792 0)
(0.12509 -0.00334812 0)
(0.126039 -0.00327611 0)
(0.126968 -0.00320191 0)
(0.127874 -0.00312552 0)
(0.128759 -0.00304694 0)
(0.129621 -0.00296618 0)
(0.130459 -0.00288327 0)
(0.131273 -0.00279823 0)
(0.132063 -0.00271108 0)
(0.132828 -0.00262184 0)
(0.133566 -0.00253056 0)
(0.134279 -0.00243728 0)
(0.134964 -0.00234202 0)
(0.135622 -0.00224484 0)
(0.136251 -0.0021458 0)
(0.136852 -0.00204494 0)
(0.137424 -0.00194232 0)
(0.137966 -0.00183801 0)
(0.138478 -0.00173207 0)
(0.13896 -0.00162459 0)
(0.13941 -0.00151562 0)
(0.139829 -0.00140525 0)
(0.140216 -0.00129357 0)
(0.140571 -0.00118065 0)
(0.140894 -0.00106659 0)
(0.141183 -0.000951483 0)
(0.14144 -0.000835419 0)
(0.141663 -0.000718497 0)
(0.141852 -0.000600817 0)
(0.142008 -0.00048248 0)
(0.142129 -0.000363592 0)
(0.142217 -0.000244256 0)
(0.14227 -0.000124579 0)
(0.142288 -4.66872e-06 0)
(0.142273 0.000115367 0)
(0.142222 0.000235419 0)
(0.142138 0.000355379 0)
(0.142019 0.00047514 0)
(0.141866 0.000594592 0)
(0.141678 0.00071363 0)
(0.141457 0.000832148 0)
(0.141201 0.000950041 0)
(0.140912 0.00106721 0)
(0.140589 0.00118354 0)
(0.140233 0.00129895 0)
(0.139845 0.00141334 0)
(0.139423 0.00152662 0)
(0.138969 0.00163868 0)
(0.138484 0.00174946 0)
(0.137966 0.00185886 0)
(0.137418 0.0019668 0)
(0.136839 0.00207321 0)
(0.136229 0.00217801 0)
(0.13559 0.00228113 0)
(0.134922 0.00238252 0)
(0.134224 0.00248211 0)
(0.133499 0.00257984 0)
(0.132745 0.00267566 0)
(0.131965 0.00276953 0)
(0.131158 0.0028614 0)
(0.130325 0.00295123 0)
(0.129467 0.00303898 0)
(0.128583 0.00312463 0)
(0.127676 0.00320816 0)
(0.126745 0.00328953 0)
(0.125791 0.00336872 0)
(0.124815 0.00344574 0)
(0.123817 0.00352056 0)
(0.122797 0.00359318 0)
(0.121758 0.0036636 0)
(0.120699 0.00373181 0)
(0.11962 0.00379783 0)
(0.118523 0.00386166 0)
(0.117408 0.00392332 0)
(0.116276 0.00398281 0)
(0.115127 0.00404015 0)
(0.113962 0.00409536 0)
(0.112782 0.00414848 0)
(0.111587 0.00419951 0)
(0.110377 0.00424849 0)
(0.109154 0.00429545 0)
(0.107918 0.00434042 0)
(0.106669 0.00438344 0)
(0.105408 0.00442453 0)
(0.104136 0.00446373 0)
(0.102853 0.00450109 0)
(0.10156 0.00453665 0)
(0.100256 0.00457043 0)
(0.0989438 0.00460249 0)
(0.0976223 0.00463287 0)
(0.0962925 0.0046616 0)
(0.0949547 0.00468874 0)
(0.0936094 0.00471433 0)
(0.0922571 0.00473842 0)
(0.0908982 0.00476104 0)
(0.0895331 0.00478225 0)
(0.0881622 0.00480208 0)
(0.0867858 0.0048206 0)
(0.0854044 0.00483783 0)
(0.0840184 0.00485383 0)
(0.0826279 0.00486864 0)
(0.0812335 0.00488231 0)
(0.0798354 0.00489488 0)
(0.0784339 0.0049064 0)
(0.0770293 0.00491691 0)
(0.0756219 0.00492644 0)
(0.0742119 0.00493506 0)
(0.0727997 0.00494279 0)
(0.0713854 0.00494969 0)
(0.0699693 0.00495578 0)
(0.0685517 0.00496112 0)
(0.0671327 0.00496573 0)
(0.0657125 0.00496967 0)
(0.0642913 0.00497296 0)
(0.0628693 0.00497565 0)
(0.0614467 0.00497777 0)
(0.0600236 0.00497935 0)
(0.0586001 0.00498044 0)
(0.0571765 0.00498105 0)
(0.0557528 0.00498124 0)
(0.0543291 0.00498103 0)
(0.0529056 0.00498044 0)
(0.0514823 0.00497952 0)
(0.0500594 0.00497829 0)
(0.0486369 0.00497678 0)
(0.0472149 0.00497501 0)
(0.0457934 0.00497302 0)
(0.0443727 0.00497082 0)
(0.0429525 0.00496845 0)
(0.0415332 0.00496593 0)
(0.0401146 0.00496327 0)
(0.0386967 0.00496052 0)
(0.0372798 0.00495767 0)
(0.0358636 0.00495476 0)
(0.0344484 0.00495181 0)
(0.033034 0.00494883 0)
(0.0316204 0.00494584 0)
(0.0302078 0.00494286 0)
(0.028796 0.00493991 0)
(0.0273851 0.004937 0)
(0.025975 0.00493414 0)
(0.0245657 0.00493135 0)
(0.0231573 0.00492865 0)
(0.0217496 0.00492604 0)
(0.0203427 0.00492354 0)
(0.0189364 0.00492116 0)
(0.0175309 0.00491891 0)
(0.016126 0.00491679 0)
(0.0147216 0.00491482 0)
(0.0133179 0.00491301 0)
(0.0119146 0.00491135 0)
(0.0105118 0.00490987 0)
(0.00910937 0.00490855 0)
(0.00770732 0.00490742 0)
(0.00630557 0.00490647 0)
(0.00490407 0.0049057 0)
(0.00350277 0.00490513 0)
(0.00210161 0.00490474 0)
(0.000700526 0.00490455 0)
(0.000656745 -0.00591255 0)
(0.00197026 -0.00591281 0)
(0.00328387 -0.00591332 0)
(0.00459762 -0.00591409 0)
(0.00591157 -0.00591512 0)
(0.00722578 -0.00591639 0)
(0.00854031 -0.00591791 0)
(0.00985521 -0.00591968 0)
(0.0111705 -0.00592168 0)
(0.0124863 -0.00592393 0)
(0.0138027 -0.0059264 0)
(0.0151196 -0.00592909 0)
(0.0164372 -0.00593201 0)
(0.0177554 -0.00593513 0)
(0.0190744 -0.00593845 0)
(0.0203941 -0.00594197 0)
(0.0217147 -0.00594566 0)
(0.0230361 -0.00594954 0)
(0.0243584 -0.00595357 0)
(0.0256817 -0.00595775 0)
(0.0270059 -0.00596208 0)
(0.0283311 -0.00596652 0)
(0.0296573 -0.00597108 0)
(0.0309846 -0.00597573 0)
(0.032313 -0.00598047 0)
(0.0336424 -0.00598527 0)
(0.0349729 -0.00599011 0)
(0.0363046 -0.00599499 0)
(0.0376373 -0.00599988 0)
(0.0389712 -0.00600476 0)
(0.0403062 -0.00600961 0)
(0.0416423 -0.00601441 0)
(0.0429795 -0.00601913 0)
(0.0443178 -0.00602376 0)
(0.0456571 -0.00602827 0)
(0.0469975 -0.00603263 0)
(0.0483388 -0.00603682 0)
(0.0496811 -0.00604081 0)
(0.0510243 -0.00604458 0)
(0.0523684 -0.00604808 0)
(0.0537132 -0.0060513 0)
(0.0550588 -0.0060542 0)
(0.0564051 -0.00605675 0)
(0.0577519 -0.00605891 0)
(0.0590992 -0.00606065 0)
(0.0604469 -0.00606193 0)
(0.0617949 -0.00606272 0)
(0.0631431 -0.00606298 0)
(0.0644913 -0.00606267 0)
(0.0658395 -0.00606175 0)
(0.0671875 -0.00606017 0)
(0.0685351 -0.0060579 0)
(0.0698821 -0.00605489 0)
(0.0712285 -0.0060511 0)
(0.0725741 -0.00604647 0)
(0.0739186 -0.00604097 0)
(0.0752618 -0.00603454 0)
(0.0766036 -0.00602713 0)
(0.0779437 -0.0060187 0)
(0.0792819 -0.00600919 0)
(0.0806179 -0.00599856 0)
(0.0819515 -0.00598674 0)
(0.0832825 -0.00597368 0)
(0.0846105 -0.00595934 0)
(0.0859352 -0.00594365 0)
(0.0872564 -0.00592656 0)
(0.0885737 -0.005908 0)
(0.0898868 -0.00588794 0)
(0.0911954 -0.0058663 0)
(0.0924991 -0.00584303 0)
(0.0937975 -0.00581806 0)
(0.0950903 -0.00579136 0)
(0.096377 -0.00576284 0)
(0.0976572 -0.00573246 0)
(0.0989306 -0.00570016 0)
(0.100197 -0.00566588 0)
(0.101455 -0.00562956 0)
(0.102705 -0.00559115 0)
(0.103947 -0.00555058 0)
(0.105179 -0.00550782 0)
(0.106401 -0.00546279 0)
(0.107614 -0.00541545 0)
(0.108816 -0.00536576 0)
(0.110006 -0.00531365 0)
(0.111185 -0.00525908 0)
(0.112351 -0.005202 0)
(0.113505 -0.00514237 0)
(0.114645 -0.00508016 0)
(0.115771 -0.00501531 0)
(0.116882 -0.0049478 0)
(0.117978 -0.0048776 0)
(0.119058 -0.00480466 0)
(0.120122 -0.00472897 0)
(0.121168 -0.0046505 0)
(0.122197 -0.00456923 0)
(0.123208 -0.00448514 0)
(0.124199 -0.00439823 0)
(0.125171 -0.00430849 0)
(0.126123 -0.00421591 0)
(0.127054 -0.0041205 0)
(0.127963 -0.00402227 0)
(0.12885 -0.00392121 0)
(0.129714 -0.00381736 0)
(0.130555 -0.00371072 0)
(0.131372 -0.00360134 0)
(0.132164 -0.00348924 0)
(0.132931 -0.00337445 0)
(0.133672 -0.00325703 0)
(0.134386 -0.00313701 0)
(0.135074 -0.00301446 0)
(0.135734 -0.00288943 0)
(0.136365 -0.00276199 0)
(0.136968 -0.00263221 0)
(0.137542 -0.00250017 0)
(0.138086 -0.00236594 0)
(0.1386 -0.00222962 0)
(0.139083 -0.00209129 0)
(0.139536 -0.00195105 0)
(0.139956 -0.00180901 0)
(0.140345 -0.00166527 0)
(0.140701 -0.00151994 0)
(0.141025 -0.00137313 0)
(0.141316 -0.00122497 0)
(0.141573 -0.00107558 0)
(0.141797 -0.000925081 0)
(0.141987 -0.000773604 0)
(0.142143 -0.00062128 0)
(0.142265 -0.000468243 0)