/*--------------------------------*- C++ -*----------------------------------*\
| =========                 |                                                 |
| \\      /  F ield         | OpenFOAM: The Open Source CFD Toolbox           |
|  \\    /   O peration     | Version:  v2012                                 |
|   \\  /    A nd           | Website:  www.openfoam.com                      |
|    \\/     M anipulation  |                                                 |
\*---------------------------------------------------------------------------*/
FoamFile
{
    version     2.0;
    format      ascii;
    class       volScalarField;
    location    "18.9";
    object      W;
}
// * * * * * * * * * * * * * * * * * * * * * * * * * * * * * * * * * * * * * //

dimensions      [0 0 -1 0 0 0 0];


internalField   nonuniform List<scalar> 
65536
(
1.07456e-14
3.23363e-14
5.42283e-14
7.66289e-14
9.97507e-14
1.23812e-13
1.49041e-13
1.75674e-13
2.03958e-13
2.34159e-13
2.66554e-13
3.01442e-13
3.3914e-13
3.79992e-13
4.24364e-13
4.72654e-13
5.2529e-13
5.82737e-13
6.45494e-13
7.14106e-13
7.89163e-13
8.71302e-13
9.61215e-13
1.05965e-12
1.16743e-12
1.28543e-12
1.4146e-12
1.55598e-12
1.71069e-12
1.87993e-12
2.06502e-12
2.26737e-12
2.48849e-12
2.73003e-12
2.99376e-12
3.28158e-12
3.59553e-12
3.93782e-12
4.3108e-12
4.71698e-12
5.15908e-12
5.63998e-12
6.16275e-12
6.73069e-12
7.34728e-12
8.01624e-12
8.74152e-12
9.52728e-12
1.03779e-11
1.12982e-11
1.22929e-11
1.33672e-11
1.45266e-11
1.57767e-11
1.71235e-11
1.85731e-11
2.01321e-11
2.18069e-11
2.36045e-11
2.55321e-11
2.75968e-11
2.98062e-11
3.21679e-11
3.46895e-11
3.73789e-11
4.02438e-11
4.32922e-11
4.65318e-11
4.99703e-11
5.36151e-11
5.74736e-11
6.15527e-11
6.58589e-11
7.03984e-11
7.51768e-11
8.01989e-11
8.5469e-11
9.09904e-11
9.67654e-11
1.02795e-10
1.09081e-10
1.1562e-10
1.22411e-10
1.29449e-10
1.3673e-10
1.44245e-10
1.51987e-10
1.59944e-10
1.68103e-10
1.76449e-10
1.84967e-10
1.93636e-10
2.02436e-10
2.11345e-10
2.20336e-10
2.29382e-10
2.38455e-10
2.47524e-10
2.56556e-10
2.65516e-10
2.7437e-10
2.83079e-10
2.91607e-10
2.99913e-10
3.07961e-10
3.15708e-10
3.23117e-10
3.30149e-10
3.36765e-10
3.42929e-10
3.48604e-10
3.53757e-10
3.58357e-10
3.62373e-10
3.65781e-10
3.68555e-10
3.70678e-10
3.72131e-10
3.72903e-10
3.72986e-10
3.72374e-10
3.71068e-10
3.69073e-10
3.66397e-10
3.63052e-10
3.59056e-10
3.5443e-10
3.49198e-10
3.43389e-10
3.37035e-10
3.30171e-10
3.22833e-10
3.15063e-10
3.069e-10
2.9839e-10
2.89575e-10
2.805e-10
2.71212e-10
2.61754e-10
2.52171e-10
2.42506e-10
2.32802e-10
2.23098e-10
2.13434e-10
2.03845e-10
1.94365e-10
1.85027e-10
1.75857e-10
1.66883e-10
1.58127e-10
1.49608e-10
1.41345e-10
1.33351e-10
1.25639e-10
1.18216e-10
1.11089e-10
1.04262e-10
9.77366e-11
9.1513e-11
8.55888e-11
7.99603e-11
7.46221e-11
6.95677e-11
6.47894e-11
6.02789e-11
5.60269e-11
5.20234e-11
4.82584e-11
4.47214e-11
4.14017e-11
3.82888e-11
3.5372e-11
3.2641e-11
3.00858e-11
2.76965e-11
2.54636e-11
2.33782e-11
2.14317e-11
1.96159e-11
1.79233e-11
1.63466e-11
1.48791e-11
1.35146e-11
1.22472e-11
1.10715e-11
9.98254e-12
8.97556e-12
8.0462e-12
7.19036e-12
6.4042e-12
5.68408e-12
5.02652e-12
4.42819e-12
3.88589e-12
3.39647e-12
2.95688e-12
2.56411e-12
2.21518e-12
1.90715e-12
1.63708e-12
1.40208e-12
1.19929e-12
1.02587e-12
8.79038e-13
7.5606e-13
6.5428e-13
5.71122e-13
5.04115e-13
4.50897e-13
4.09243e-13
3.77067e-13
3.52449e-13
3.33637e-13
3.19068e-13
3.07369e-13
2.97368e-13
2.88098e-13
2.7879e-13
2.68874e-13
2.57965e-13
2.45848e-13
2.32462e-13
2.17875e-13
2.02259e-13
1.85864e-13
1.68992e-13
1.51968e-13
1.35118e-13
1.18752e-13
1.03143e-13
8.85165e-14
7.5045e-14
6.28447e-14
5.19764e-14
4.24501e-14
3.42324e-14
2.72542e-14
2.14201e-14
1.66172e-14
1.27233e-14
9.61403e-15
7.16861e-15
5.27408e-15
3.82827e-15
2.74133e-15
1.93633e-15
1.34901e-15
9.26835e-16
6.27839e-16
4.19134e-16
2.75449e-16
1.77689e-16
1.1163e-16
6.67453e-17
3.51965e-17
1.09571e-17
3.64696e-14
1.09748e-13
1.84055e-13
2.60098e-13
3.38603e-13
4.20316e-13
5.06012e-13
5.965e-13
6.92628e-13
7.95297e-13
9.05461e-13
1.02414e-12
1.15242e-12
1.29147e-12
1.44255e-12
1.60702e-12
1.78636e-12
1.98214e-12
2.19609e-12
2.43008e-12
2.68611e-12
2.9664e-12
3.2733e-12
3.6094e-12
3.9775e-12
4.38062e-12
4.82204e-12
5.30533e-12
5.83433e-12
6.41319e-12
7.04643e-12
7.73889e-12
8.49583e-12
9.32289e-12
1.02262e-11
1.12122e-11
1.22881e-11
1.34614e-11
1.47402e-11
1.61333e-11
1.76499e-11
1.93e-11
2.10942e-11
2.30439e-11
2.51611e-11
2.74587e-11
2.99502e-11
3.265e-11
3.55735e-11
3.87367e-11
4.21565e-11
4.58508e-11
4.98382e-11
5.41384e-11
5.87718e-11
6.37598e-11
6.91244e-11
7.48886e-11
8.10762e-11
8.77114e-11
9.48195e-11
1.02426e-10
1.10557e-10
1.19239e-10
1.28499e-10
1.38363e-10
1.48859e-10
1.60012e-10
1.71849e-10
1.84395e-10
1.97675e-10
2.11713e-10
2.2653e-10
2.42146e-10
2.58581e-10
2.75849e-10
2.93965e-10
3.12938e-10
3.32777e-10
3.53483e-10
3.75056e-10
3.9749e-10
4.20776e-10
4.44898e-10
4.69834e-10
4.95558e-10
5.22037e-10
5.49231e-10
5.77093e-10
6.0557e-10
6.34602e-10
6.6412e-10
6.94051e-10
7.24313e-10
7.54815e-10
7.85463e-10
8.16154e-10
8.4678e-10
8.77225e-10
9.07371e-10
9.37092e-10
9.66262e-10
9.94748e-10
1.02242e-09
1.04914e-09
1.07477e-09
1.09918e-09
1.12224e-09
1.14382e-09
1.16379e-09
1.18205e-09
1.19846e-09
1.21294e-09
1.22538e-09
1.23571e-09
1.24384e-09
1.24972e-09
1.2533e-09
1.25454e-09
1.25343e-09
1.24995e-09
1.24412e-09
1.23596e-09
1.22551e-09
1.21281e-09
1.19794e-09
1.18098e-09
1.16202e-09
1.14116e-09
1.11852e-09
1.09423e-09
1.06841e-09
1.04121e-09
1.01277e-09
9.83245e-10
9.52787e-10
9.21549e-10
8.89686e-10
8.5735e-10
8.2469e-10
7.91852e-10
7.58976e-10
7.26196e-10
6.93639e-10
6.61423e-10
6.29658e-10
5.98445e-10
5.67875e-10
5.3803e-10
5.08981e-10
4.80789e-10
4.53506e-10
4.27173e-10
4.01825e-10
3.77484e-10
3.54166e-10
3.3188e-10
3.10625e-10
2.90397e-10
2.71183e-10
2.52967e-10
2.35726e-10
2.19436e-10
2.04068e-10
1.8959e-10
1.75969e-10
1.6317e-10
1.51157e-10
1.39893e-10
1.29342e-10
1.19466e-10
1.10229e-10
1.01597e-10
9.35346e-11
8.60089e-11
7.89881e-11
7.24421e-11
6.63421e-11
6.06609e-11
5.53733e-11
5.04553e-11
4.58848e-11
4.1641e-11
3.77047e-11
3.40581e-11
3.06848e-11
2.75692e-11
2.46972e-11
2.20554e-11
1.96312e-11
1.7413e-11
1.53894e-11
1.35497e-11
1.18838e-11
1.03816e-11
9.03332e-12
7.82954e-12
6.76083e-12
5.81797e-12
4.99181e-12
4.27333e-12
3.65362e-12
3.1239e-12
2.67557e-12
2.3002e-12
1.98963e-12
1.73594e-12
1.53156e-12
1.36925e-12
1.24221e-12
1.14408e-12
1.06898e-12
1.01158e-12
9.67125e-13
9.31428e-13
9.00927e-13
8.72678e-13
8.44347e-13
8.142e-13
7.81067e-13
7.44296e-13
7.03699e-13
6.5948e-13
6.12159e-13
5.62492e-13
5.1139e-13
4.59838e-13
4.08825e-13
3.59283e-13
3.12037e-13
2.6777e-13
2.27004e-13
1.90088e-13
1.57206e-13
1.28386e-13
1.03527e-13
8.24194e-14
6.47734e-14
5.02474e-14
3.84712e-14
2.90686e-14
2.16738e-14
1.59453e-14
1.15737e-14
8.28734e-15
5.85357e-15
4.07794e-15
2.80167e-15
1.8978e-15
1.26691e-15
8.32573e-16
5.37075e-16
3.37402e-16
2.01735e-16
1.06379e-16
3.31176e-17
7.62338e-14
2.29418e-13
3.84774e-13
5.43796e-13
7.08013e-13
8.79002e-13
1.0584e-12
1.24791e-12
1.44933e-12
1.66457e-12
1.89564e-12
2.14471e-12
2.41407e-12
2.70621e-12
3.02381e-12
3.36975e-12
3.74716e-12
4.1594e-12
4.61013e-12
5.10334e-12
5.64331e-12
6.23473e-12
6.88266e-12
7.5926e-12
8.37051e-12
9.22288e-12
1.01567e-11
1.11796e-11
1.22998e-11
1.35262e-11
1.48685e-11
1.6337e-11
1.79431e-11
1.96987e-11
2.16171e-11
2.37122e-11
2.59993e-11
2.84946e-11
3.12155e-11
3.41807e-11
3.74104e-11
4.09258e-11
4.475e-11
4.89072e-11
5.34235e-11
5.83264e-11
6.36452e-11
6.9411e-11
7.56565e-11
8.24165e-11
8.97274e-11
9.76275e-11
1.06157e-10
1.15359e-10
1.25276e-10
1.35954e-10
1.47442e-10
1.59788e-10
1.73043e-10
1.8726e-10
2.02492e-10
2.18793e-10
2.36221e-10
2.54831e-10
2.7468e-10
2.95825e-10
3.18322e-10
3.42228e-10
3.67597e-10
3.94482e-10
4.22935e-10
4.53004e-10
4.84734e-10
5.18166e-10
5.53337e-10
5.90278e-10
6.29014e-10
6.69563e-10
7.11936e-10
7.56134e-10
8.02151e-10
8.49969e-10
8.99559e-10
9.50883e-10
1.00389e-09
1.05851e-09
1.11466e-09
1.17226e-09
1.23119e-09
1.29133e-09
1.35254e-09
1.41467e-09
1.47755e-09
1.541e-09
1.6048e-09
1.66876e-09
1.73264e-09
1.7962e-09
1.85919e-09
1.92135e-09
1.9824e-09
2.04208e-09
2.10009e-09
2.15615e-09
2.20997e-09
2.26128e-09
2.30977e-09
2.35519e-09
2.39726e-09
2.43574e-09
2.47037e-09
2.50094e-09
2.52724e-09
2.5491e-09
2.56634e-09
2.57885e-09
2.58651e-09
2.58924e-09
2.58701e-09
2.5798e-09
2.56762e-09
2.55053e-09
2.5286e-09
2.50195e-09
2.47071e-09
2.43507e-09
2.3952e-09
2.35135e-09
2.30376e-09
2.25269e-09
2.19842e-09
2.14127e-09
2.08153e-09
2.01953e-09
1.9556e-09
1.89006e-09
1.82325e-09
1.75548e-09
1.68708e-09
1.61836e-09
1.54961e-09
1.48111e-09
1.41314e-09
1.34594e-09
1.27975e-09
1.21478e-09
1.15122e-09
1.08923e-09
1.02897e-09
9.70562e-10
9.14113e-10
8.59708e-10
8.07413e-10
7.57275e-10
7.09321e-10
6.63566e-10
6.20005e-10
5.78624e-10
5.39393e-10
5.02272e-10
4.67212e-10
4.34155e-10
4.03038e-10
3.73791e-10
3.46339e-10
3.20607e-10
2.96516e-10
2.73984e-10
2.52932e-10
2.33281e-10
2.14952e-10
1.97869e-10
1.81957e-10
1.67145e-10
1.53364e-10
1.40549e-10
1.28638e-10
1.17573e-10
1.07299e-10
9.77648e-11
8.89226e-11
8.0728e-11
7.31399e-11
6.61201e-11
5.96334e-11
5.36473e-11
4.81316e-11
4.30586e-11
3.84022e-11
3.41382e-11
3.02441e-11
2.66983e-11
2.34805e-11
2.05715e-11
1.79525e-11
1.56054e-11
1.35127e-11
1.16574e-11
1.00225e-11
8.59156e-12
7.34846e-12
6.27728e-12
5.36246e-12
4.58879e-12
3.94148e-12
3.40622e-12
2.9692e-12
2.61723e-12
2.33777e-12
2.11905e-12
1.95007e-12
1.82072e-12
1.72183e-12
1.64521e-12
1.58369e-12
1.53118e-12
1.48262e-12
1.43404e-12
1.38245e-12
1.32587e-12
1.26317e-12
1.19403e-12
1.11879e-12
1.03833e-12
9.53933e-13
8.67135e-13
7.79606e-13
6.93021e-13
6.08957e-13
5.2881e-13
4.53735e-13
3.84611e-13
3.22028e-13
2.66292e-13
2.17451e-13
1.75329e-13
1.39568e-13
1.09676e-13
8.50725e-14
6.5129e-14
4.92069e-14
3.66863e-14
2.69878e-14
1.95873e-14
1.40246e-14
9.90529e-15
6.90019e-15
4.74037e-15
3.21087e-15
2.14336e-15
1.40849e-15
9.08545e-16
5.70746e-16
3.41243e-16
1.79942e-16
5.6019e-17
1.44184e-13
4.33924e-13
7.27823e-13
1.02874e-12
1.3396e-12
1.66342e-12
2.00334e-12
2.36263e-12
2.74473e-12
3.15331e-12
3.59223e-12
4.06565e-12
4.578e-12
5.13407e-12
5.73901e-12
6.39838e-12
7.11821e-12
7.90502e-12
8.76589e-12
9.70849e-12
1.07412e-11
1.18729e-11
1.31137e-11
1.4474e-11
1.59656e-11
1.76009e-11
1.93937e-11
2.13587e-11
2.35119e-11
2.58708e-11
2.8454e-11
3.1282e-11
3.43765e-11
3.77615e-11
4.14622e-11
4.55064e-11
4.99236e-11
5.47457e-11
6.00067e-11
6.57434e-11
7.19951e-11
7.88036e-11
8.6214e-11
9.42739e-11
1.03034e-10
1.1255e-10
1.22877e-10
1.34077e-10
1.46215e-10
1.59359e-10
1.7358e-10
1.88953e-10
2.05558e-10
2.23477e-10
2.42797e-10
2.63607e-10
2.86001e-10
3.10074e-10
3.35928e-10
3.63663e-10
3.93385e-10
4.25201e-10
4.59218e-10
4.95548e-10
5.34299e-10
5.75582e-10
6.19505e-10
6.66177e-10
7.15702e-10
7.68181e-10
8.23711e-10
8.82382e-10
9.44277e-10
1.00947e-09
1.07803e-09
1.15001e-09
1.22545e-09
1.30438e-09
1.3868e-09
1.47271e-09
1.56209e-09
1.65489e-09
1.75103e-09
1.85043e-09
1.95297e-09
2.0585e-09
2.16685e-09
2.27781e-09
2.39116e-09
2.50664e-09
2.62396e-09
2.74279e-09
2.86278e-09
2.98355e-09
3.10469e-09
3.22576e-09
3.34631e-09
3.46584e-09
3.58385e-09
3.69981e-09
3.81319e-09
3.92344e-09
4.03001e-09
4.13232e-09
4.22983e-09
4.32199e-09
4.40826e-09
4.48812e-09
4.56108e-09
4.62667e-09
4.68444e-09
4.73401e-09
4.77501e-09
4.80715e-09
4.83015e-09
4.84382e-09
4.84801e-09
4.84263e-09
4.82767e-09
4.80315e-09
4.76918e-09
4.72592e-09
4.6736e-09
4.6125e-09
4.54296e-09
4.46538e-09
4.38019e-09
4.28789e-09
4.189e-09
4.08409e-09
3.97375e-09
3.8586e-09
3.73925e-09
3.61635e-09
3.49055e-09
3.36249e-09
3.23279e-09
3.10209e-09
2.97096e-09
2.84e-09
2.70974e-09
2.5807e-09
2.45336e-09
2.32815e-09
2.20549e-09
2.08571e-09
1.96915e-09
1.85607e-09
1.74671e-09
1.64125e-09
1.53984e-09
1.44261e-09
1.34961e-09
1.26089e-09
1.17646e-09
1.0963e-09
1.02036e-09
9.48581e-10
8.80862e-10
8.17098e-10
7.57168e-10
7.00937e-10
6.48261e-10
5.98988e-10
5.52963e-10
5.10026e-10
4.70016e-10
4.32774e-10
3.98141e-10
3.65962e-10
3.36086e-10
3.08367e-10
2.82666e-10
2.58848e-10
2.36787e-10
2.16361e-10
1.97457e-10
1.7997e-10
1.63799e-10
1.48854e-10
1.35049e-10
1.22303e-10
1.10545e-10
9.97077e-11
8.97284e-11
8.05506e-11
7.21218e-11
6.43939e-11
5.73221e-11
5.08652e-11
4.49845e-11
3.96441e-11
3.481e-11
3.04501e-11
2.65337e-11
2.30315e-11
1.99151e-11
1.71574e-11
1.47316e-11
1.26119e-11
1.07733e-11
9.19116e-12
7.84165e-12
6.70167e-12
5.74882e-12
4.96156e-12
4.31924e-12
3.80217e-12
3.39176e-12
3.07056e-12
2.82236e-12
2.63231e-12
2.48694e-12
2.37427e-12
2.28383e-12
2.20672e-12
2.13559e-12
2.06465e-12
1.98957e-12
1.90744e-12
1.81665e-12
1.71671e-12
1.6081e-12
1.49207e-12
1.37046e-12
1.24548e-12
1.11951e-12
9.94972e-13
8.74107e-13
7.58918e-13
6.51055e-13
5.51773e-13
4.61911e-13
3.81902e-13
3.11808e-13
2.5137e-13
2.0007e-13
1.57198e-13
1.21918e-13
9.33246e-14
7.05009e-14
5.25559e-14
3.86577e-14
2.80543e-14
2.00849e-14
1.41842e-14
9.88007e-15
6.78694e-15
4.59674e-15
3.06825e-15
2.01613e-15
1.30042e-15
8.1688e-16
4.88383e-16
2.57523e-16
8.01704e-17
2.62783e-13
7.90886e-13
1.32667e-12
1.87541e-12
2.44252e-12
3.03357e-12
3.65434e-12
4.31091e-12
5.00965e-12
5.75732e-12
6.56112e-12
7.42873e-12
8.36842e-12
9.38907e-12
1.05003e-11
1.17124e-11
1.30366e-11
1.44851e-11
1.60712e-11
1.78091e-11
1.97144e-11
2.18042e-11
2.40967e-11
2.6612e-11
2.93719e-11
3.24e-11
3.57218e-11
3.93652e-11
4.33604e-11
4.774e-11
5.25394e-11
5.7797e-11
6.35542e-11
6.98555e-11
7.67495e-11
8.42879e-11
9.25269e-11
1.01527e-10
1.11352e-10
1.22072e-10
1.33762e-10
1.465e-10
1.60372e-10
1.7547e-10
1.91889e-10
2.09732e-10
2.29109e-10
2.50135e-10
2.72933e-10
2.97631e-10
3.24368e-10
3.53284e-10
3.84531e-10
4.18266e-10
4.54652e-10
4.93861e-10
5.36068e-10
5.81458e-10
6.30219e-10
6.82544e-10
7.38632e-10
7.98685e-10
8.62908e-10
9.31506e-10
1.00469e-09
1.08266e-09
1.16562e-09
1.25377e-09
1.34732e-09
1.44643e-09
1.5513e-09
1.66208e-09
1.77892e-09
1.90196e-09
2.0313e-09
2.16705e-09
2.30925e-09
2.45795e-09
2.61315e-09
2.77481e-09
2.94287e-09
3.11721e-09
3.29767e-09
3.48405e-09
3.6761e-09
3.87351e-09
4.07592e-09
4.28291e-09
4.49402e-09
4.70871e-09
4.92639e-09
5.14642e-09
5.36809e-09
5.59064e-09
5.81327e-09
6.0351e-09
6.25524e-09
6.47274e-09
6.68661e-09
6.89584e-09
7.0994e-09
7.29623e-09
7.48528e-09
7.6655e-09
7.83585e-09
7.9953e-09
8.14288e-09
8.27763e-09
8.39866e-09
8.50514e-09
8.59631e-09
8.67149e-09
8.73009e-09
8.77163e-09
8.7957e-09
8.80204e-09
8.79048e-09
8.76098e-09
8.71361e-09
8.64857e-09
8.56617e-09
8.46685e-09
8.35116e-09
8.21975e-09
8.07338e-09
7.91291e-09
7.73928e-09
7.55349e-09
7.35664e-09
7.14986e-09
6.93432e-09
6.71122e-09
6.48179e-09
6.24725e-09
6.00882e-09
5.76771e-09
5.52508e-09
5.28206e-09
5.03973e-09
4.79913e-09
4.56119e-09
4.32683e-09
4.09685e-09
3.87198e-09
3.65288e-09
3.44011e-09
3.23418e-09
3.03549e-09
2.84436e-09
2.66105e-09
2.48573e-09
2.31853e-09
2.15947e-09
2.00854e-09
1.86569e-09
1.73079e-09
1.60368e-09
1.48418e-09
1.37204e-09
1.26703e-09
1.16886e-09
1.07724e-09
9.91886e-10
9.12473e-10
8.38693e-10
7.70234e-10
7.06785e-10
6.48042e-10
5.93706e-10
5.43489e-10
4.97114e-10
4.54315e-10
4.14838e-10
3.78445e-10
3.44908e-10
3.14016e-10
2.85571e-10
2.59388e-10
2.35296e-10
2.13135e-10
1.92761e-10
1.74039e-10
1.56845e-10
1.41067e-10
1.266e-10
1.1335e-10
1.0123e-10
9.01614e-11
8.00699e-11
7.08888e-11
6.25557e-11
5.50129e-11
4.82065e-11
4.2086e-11
3.66036e-11
3.17141e-11
2.73743e-11
2.35429e-11
2.01802e-11
1.7248e-11
1.47094e-11
1.25288e-11
1.06718e-11
9.10535e-12
7.79773e-12
6.71851e-12
5.83874e-12
5.13098e-12
4.56944e-12
4.13e-12
3.79039e-12
3.53023e-12
3.33112e-12
3.17672e-12
3.05283e-12
2.94737e-12
2.85038e-12
2.75403e-12
2.65248e-12
2.5418e-12
2.4198e-12
2.2858e-12
2.14042e-12
1.98532e-12
1.82294e-12
1.6562e-12
1.48828e-12
1.32236e-12
1.16143e-12
1.00812e-12
8.64634e-13
7.32614e-13
6.13164e-13
5.06848e-13
4.13737e-13
3.33476e-13
2.65369e-13
2.08467e-13
1.61652e-13
1.23719e-13
9.34473e-14
6.9651e-14
5.12246e-14
3.7169e-14
2.66069e-14
1.87878e-14
1.30852e-14
8.98765e-15
6.08663e-15
4.06233e-15
2.6691e-15
1.72146e-15
1.08128e-15
6.46422e-16
3.40843e-16
1.06107e-16
4.6859e-13
1.41036e-12
2.36601e-12
3.3451e-12
4.35738e-12
5.41295e-12
6.52228e-12
7.69636e-12
8.94675e-12
1.02857e-11
1.17263e-11
1.32825e-11
1.49693e-11
1.6803e-11
1.88009e-11
2.0982e-11
2.33667e-11
2.59773e-11
2.8838e-11
3.19751e-11
3.54169e-11
3.91948e-11
4.33423e-11
4.78963e-11
5.28967e-11
5.8387e-11
6.44143e-11
7.10299e-11
7.82893e-11
8.6253e-11
9.49863e-11
1.0456e-10
1.1505e-10
1.2654e-10
1.3912e-10
1.52884e-10
1.67938e-10
1.84392e-10
2.02368e-10
2.21994e-10
2.43408e-10
2.66759e-10
2.92204e-10
3.19913e-10
3.50065e-10
3.82853e-10
4.1848e-10
4.57161e-10
4.99125e-10
5.44612e-10
5.93878e-10
6.47188e-10
7.04824e-10
7.67078e-10
8.34255e-10
9.06674e-10
9.84666e-10
1.06857e-09
1.15874e-09
1.25553e-09
1.35932e-09
1.47048e-09
1.58938e-09
1.71641e-09
1.85196e-09
1.9964e-09
2.15011e-09
2.31346e-09
2.48679e-09
2.67045e-09
2.86476e-09
3.07001e-09
3.28646e-09
3.51435e-09
3.75386e-09
4.00514e-09
4.26829e-09
4.54334e-09
4.83026e-09
5.12896e-09
5.43928e-09
5.76096e-09
6.09366e-09
6.43697e-09
6.79035e-09
7.15319e-09
7.52477e-09
7.90424e-09
8.29067e-09
8.683e-09
9.08009e-09
9.48066e-09
9.88334e-09
1.02867e-08
1.06891e-08
1.10888e-08
1.14843e-08
1.18736e-08
1.2255e-08
1.26264e-08
1.29859e-08
1.33316e-08
1.36615e-08
1.39736e-08
1.42661e-08
1.45371e-08
1.47848e-08
1.50075e-08
1.52036e-08
1.53718e-08
1.55106e-08
1.5619e-08
1.56961e-08
1.57411e-08
1.57533e-08
1.57326e-08
1.56789e-08
1.55921e-08
1.54727e-08
1.53213e-08
1.51386e-08
1.49258e-08
1.46839e-08
1.44145e-08
1.41191e-08
1.37996e-08
1.34577e-08
1.30956e-08
1.27154e-08
1.23193e-08
1.19095e-08
1.14884e-08
1.10582e-08
1.06213e-08
1.01799e-08
9.73614e-09
9.29221e-09
8.85009e-09
8.41169e-09
7.97879e-09
7.55302e-09
7.1359e-09
6.72875e-09
6.33278e-09
5.94902e-09
5.57833e-09
5.22144e-09
4.87891e-09
4.55118e-09
4.23852e-09
3.94109e-09
3.65894e-09
3.39197e-09
3.14003e-09
2.90285e-09
2.68009e-09
2.47135e-09
2.27617e-09
2.09403e-09
1.9244e-09
1.76671e-09
1.62037e-09
1.48478e-09
1.35935e-09
1.24347e-09
1.13655e-09
1.03801e-09
9.47298e-10
8.63866e-10
7.87196e-10
7.1679e-10
6.5218e-10
5.9292e-10
5.38595e-10
4.88812e-10
4.4321e-10
4.01449e-10
3.63218e-10
3.28229e-10
2.96216e-10
2.66936e-10
2.40168e-10
2.15709e-10
1.93373e-10
1.72992e-10
1.54412e-10
1.37493e-10
1.22109e-10
1.08143e-10
9.54884e-11
8.40476e-11
7.37308e-11
6.44545e-11
5.61416e-11
4.87196e-11
4.21206e-11
3.62808e-11
3.11392e-11
2.66384e-11
2.27232e-11
1.93412e-11
1.64421e-11
1.3978e-11
1.19029e-11
1.01733e-11
8.74763e-12
7.58664e-12
6.65339e-12
5.91328e-12
5.33422e-12
4.88662e-12
4.54357e-12
4.28086e-12
4.07708e-12
3.91361e-12
3.77471e-12
3.64742e-12
3.52156e-12
3.38955e-12
3.24629e-12
3.0889e-12
2.91649e-12
2.72983e-12
2.53101e-12
2.32312e-12
2.10988e-12
1.89532e-12
1.68346e-12
1.47812e-12
1.28263e-12
1.09975e-12
9.31571e-13
7.79473e-13
6.44154e-13
5.25688e-13
4.23608e-13
3.37016e-13
2.64693e-13
2.05207e-13
1.57022e-13
1.18579e-13
8.83663e-14
6.49773e-14
4.71401e-14
3.37392e-14
2.38205e-14
1.6588e-14
1.1392e-14
7.71396e-15
5.14784e-15
3.38195e-15
2.181e-15
1.36982e-15
8.18858e-16
4.31743e-16
1.34401e-16
8.20844e-13
2.47068e-12
4.14521e-12
5.86136e-12
7.6365e-12
9.48855e-12
1.14362e-11
1.34989e-11
1.56973e-11
1.80533e-11
2.05902e-11
2.33329e-11
2.63084e-11
2.95454e-11
3.30754e-11
3.69323e-11
4.11527e-11
4.57766e-11
5.08475e-11
5.64127e-11
6.25235e-11
6.92359e-11
7.6611e-11
8.4715e-11
9.36201e-11
1.03405e-10
1.14155e-10
1.25963e-10
1.3893e-10
1.53165e-10
1.68787e-10
1.85925e-10
2.04717e-10
2.25315e-10
2.4788e-10
2.7259e-10
2.99633e-10
3.29212e-10
3.61549e-10
3.96877e-10
4.35451e-10
4.7754e-10
5.23435e-10
5.73444e-10
6.27899e-10
6.8715e-10
7.5157e-10
8.21555e-10
8.97525e-10
9.79921e-10
1.06921e-09
1.16588e-09
1.27046e-09
1.38347e-09
1.50547e-09
1.63707e-09
1.77885e-09
1.93144e-09
2.0955e-09
2.27169e-09
2.46067e-09
2.66313e-09
2.87978e-09
3.11131e-09
3.35842e-09
3.6218e-09
3.90214e-09
4.20009e-09
4.5163e-09
4.85138e-09
5.2059e-09
5.58037e-09
5.97527e-09
6.39099e-09
6.82785e-09
7.28608e-09
7.76582e-09
8.26709e-09
8.78981e-09
9.33373e-09
9.89851e-09
1.04836e-08
1.10883e-08
1.17118e-08
1.23531e-08
1.30109e-08
1.36837e-08
1.43701e-08
1.50681e-08
1.57757e-08
1.64907e-08
1.72107e-08
1.7933e-08
1.86549e-08
1.93734e-08
2.00853e-08
2.07873e-08
2.14762e-08
2.21483e-08
2.28002e-08
2.34281e-08
2.40286e-08
2.4598e-08
2.51327e-08
2.56294e-08
2.60846e-08
2.64952e-08
2.68582e-08
2.7171e-08
2.7431e-08
2.76361e-08
2.77844e-08
2.78744e-08
2.79052e-08
2.78758e-08
2.77862e-08
2.76364e-08
2.74271e-08
2.71591e-08
2.68339e-08
2.64534e-08
2.60197e-08
2.55355e-08
2.50037e-08
2.44275e-08
2.38104e-08
2.31562e-08
2.24689e-08
2.17525e-08
2.10112e-08
2.02493e-08
1.9471e-08
1.86807e-08
1.78825e-08
1.70804e-08
1.62785e-08
1.54803e-08
1.46894e-08
1.39092e-08
1.31427e-08
1.23925e-08
1.16613e-08
1.09511e-08
1.02638e-08
9.60101e-09
8.96401e-09
8.3538e-09
7.77111e-09
7.2164e-09
6.68991e-09
6.19164e-09
5.72139e-09
5.27878e-09
4.86326e-09
4.47415e-09
4.11065e-09
3.77184e-09
3.45674e-09
3.16431e-09
2.89344e-09
2.64303e-09
2.41193e-09
2.199e-09
2.00312e-09
1.82319e-09
1.65811e-09
1.50684e-09
1.36837e-09
1.24176e-09
1.12607e-09
1.02044e-09
9.24075e-10
8.36196e-10
7.56098e-10
6.8312e-10
6.16653e-10
5.56132e-10
5.01039e-10
4.50901e-10
4.05282e-10
3.63787e-10
3.26057e-10
2.91763e-10
2.60609e-10
2.32327e-10
2.06673e-10
1.83427e-10
1.62388e-10
1.43375e-10
1.26224e-10
1.10783e-10
9.69169e-11
8.44981e-11
7.34106e-11
6.3547e-11
5.4807e-11
4.70974e-11
4.03305e-11
3.44238e-11
2.92996e-11
2.48842e-11
2.11082e-11
1.79054e-11
1.52135e-11
1.29736e-11
1.11299e-11
9.63033e-12
8.42598e-12
7.47145e-12
6.72478e-12
6.14755e-12
5.70495e-12
5.3658e-12
5.10261e-12
4.8916e-12
4.71266e-12
4.54933e-12
4.38866e-12
4.22106e-12
4.04002e-12
3.8419e-12
3.62553e-12
3.39181e-12
3.14332e-12
2.88389e-12
2.61809e-12
2.35092e-12
2.08736e-12
1.83208e-12
1.58923e-12
1.36218e-12
1.1535e-12
9.64864e-13
7.97122e-13
6.50336e-13
5.23907e-13
4.16701e-13
3.27193e-13
2.536e-13
1.94006e-13
1.46475e-13
1.09132e-13
8.02299e-14
5.81944e-14
4.16433e-14
2.93958e-14
2.04671e-14
1.40539e-14
9.51501e-15
6.34889e-15
4.17048e-15
2.68922e-15
1.68884e-15
1.00948e-15
5.3222e-16
1.65675e-16
1.41422e-12
4.25691e-12
7.14276e-12
1.01014e-11
1.31631e-11
1.63593e-11
1.97226e-11
2.32873e-11
2.70894e-11
3.11673e-11
3.5562e-11
4.03173e-11
4.54805e-11
5.11025e-11
5.72385e-11
6.39483e-11
7.12968e-11
7.93547e-11
8.81987e-11
9.79126e-11
1.08588e-10
1.20323e-10
1.33227e-10
1.47417e-10
1.63023e-10
1.80183e-10
1.9905e-10
2.1979e-10
2.42583e-10
2.67623e-10
2.95124e-10
3.25315e-10
3.58446e-10
3.94786e-10
4.34627e-10
4.78284e-10
5.26098e-10
5.78435e-10
6.35689e-10
6.98285e-10
7.66677e-10
8.41354e-10
9.22838e-10
1.01169e-09
1.1085e-09
1.2139e-09
1.32858e-09
1.45324e-09
1.58864e-09
1.73559e-09
1.89492e-09
2.06753e-09
2.25435e-09
2.45636e-09
2.67457e-09
2.91003e-09
3.16386e-09
3.43719e-09
3.73118e-09
4.04703e-09
4.38597e-09
4.74924e-09
5.1381e-09
5.55381e-09
5.99764e-09
6.47083e-09
6.9746e-09
7.51016e-09
8.07865e-09
8.68115e-09
9.31867e-09
9.99214e-09
1.07024e-08
1.145e-08
1.22357e-08
1.30596e-08
1.39222e-08
1.48232e-08
1.57625e-08
1.67397e-08
1.77538e-08
1.8804e-08
1.98887e-08
2.10065e-08
2.21553e-08
2.33326e-08
2.45359e-08
2.5762e-08
2.70074e-08
2.82684e-08
2.95408e-08
3.08199e-08
3.2101e-08
3.33787e-08
3.46475e-08
3.59017e-08
3.71351e-08
3.83415e-08
3.95145e-08
4.06475e-08
4.17341e-08
4.27676e-08
4.37415e-08
4.46495e-08
4.54854e-08
4.62433e-08
4.69176e-08
4.75032e-08
4.79954e-08
4.839e-08
4.86834e-08
4.88728e-08
4.89558e-08
4.8931e-08
4.87975e-08
4.85555e-08
4.82056e-08
4.77495e-08
4.71896e-08
4.6529e-08
4.57716e-08
4.49219e-08
4.39852e-08
4.29673e-08
4.18745e-08
4.07135e-08
3.94916e-08
3.82162e-08
3.6895e-08
3.55358e-08
3.41464e-08
3.27347e-08
3.13082e-08
2.98746e-08
2.84409e-08
2.70142e-08
2.56009e-08
2.4207e-08
2.28382e-08
2.14995e-08
2.01955e-08
1.89301e-08
1.77068e-08
1.65285e-08
1.53974e-08
1.43154e-08
1.32838e-08
1.23034e-08
1.13746e-08
1.04973e-08
9.67099e-09
8.89504e-09
8.16833e-09
7.48953e-09
6.85709e-09
6.2693e-09
5.72427e-09
5.22004e-09
4.75454e-09
4.32567e-09
3.93131e-09
3.56934e-09
3.23766e-09
2.93421e-09
2.65701e-09
2.40411e-09
2.17368e-09
1.96395e-09
1.77325e-09
1.60001e-09
1.44276e-09
1.3001e-09
1.17077e-09
1.05357e-09
9.474e-10
8.51263e-10
7.64231e-10
6.85459e-10
6.14179e-10
5.4969e-10
4.91361e-10
4.38615e-10
3.90936e-10
3.47855e-10
3.08951e-10
2.73844e-10
2.42191e-10
2.13685e-10
1.88048e-10
1.65027e-10
1.44395e-10
1.25947e-10
1.09493e-10
9.48609e-11
8.18938e-11
7.04457e-11
6.0382e-11
5.15778e-11
4.39165e-11
3.72894e-11
3.15945e-11
2.67364e-11
2.26253e-11
1.91772e-11
1.63133e-11
1.39598e-11
1.2048e-11
1.05142e-11
9.29937e-12
8.34936e-12
7.61488e-12
7.05147e-12
6.6195e-12
6.28416e-12
6.01546e-12
5.78812e-12
5.58147e-12
5.37932e-12
5.16965e-12
4.94434e-12
4.69881e-12
4.43154e-12
4.14358e-12
3.83805e-12
3.51957e-12
3.19372e-12
2.86655e-12
2.54411e-12
2.23208e-12
1.93544e-12
1.65831e-12
1.40376e-12
1.17379e-12
9.69404e-13
7.90639e-13
6.36736e-13
5.06292e-13
3.97426e-13
3.07951e-13
2.35524e-13
1.77776e-13
1.3242e-13
9.73287e-14
7.05816e-14
5.0497e-14
3.56386e-14
2.48091e-14
1.70324e-14
1.15297e-14
7.69205e-15
5.05207e-15
3.25728e-15
2.04536e-15
1.22248e-15
6.44471e-16
2.00611e-16
2.39743e-12
7.21682e-12
1.21105e-11
1.71293e-11
2.23256e-11
2.77533e-11
3.34687e-11
3.95307e-11
4.60016e-11
5.29478e-11
6.04399e-11
6.8554e-11
7.73718e-11
8.69816e-11
9.74792e-11
1.08968e-10
1.21562e-10
1.35383e-10
1.50566e-10
1.67256e-10
1.85612e-10
2.05808e-10
2.28032e-10
2.52493e-10
2.79414e-10
3.0904e-10
3.41639e-10
3.77501e-10
4.16943e-10
4.60308e-10
5.0797e-10
5.60334e-10
6.1784e-10
6.80964e-10
7.50221e-10
8.26168e-10
9.09407e-10
1.00059e-09
1.1004e-09
1.20961e-09
1.32902e-09
1.45949e-09
1.60196e-09
1.7574e-09
1.9269e-09
2.11156e-09
2.3126e-09
2.53128e-09
2.76897e-09
3.02709e-09
3.30713e-09
3.6107e-09
3.93946e-09
4.29515e-09
4.67958e-09
5.09466e-09
5.54234e-09
6.02466e-09
6.54371e-09
7.10163e-09
7.70061e-09
8.34288e-09
9.03068e-09
9.76627e-09
1.05519e-08
1.13898e-08
1.22821e-08
1.32311e-08
1.42386e-08
1.53067e-08
1.6437e-08
1.76313e-08
1.88909e-08
2.0217e-08
2.16106e-08
2.30721e-08
2.46019e-08
2.61999e-08
2.78655e-08
2.95977e-08
3.13951e-08
3.32556e-08
3.51768e-08
3.71553e-08
3.91875e-08
4.1269e-08
4.33946e-08
4.55588e-08
4.77549e-08
4.99761e-08
5.22145e-08
5.44617e-08
5.67088e-08
5.89461e-08
6.11635e-08
6.33504e-08
6.54958e-08
6.75883e-08
6.96164e-08
7.15682e-08
7.3432e-08
7.5196e-08
7.68485e-08
7.83783e-08
7.97746e-08
8.10269e-08
8.21257e-08
8.3062e-08
8.38279e-08
8.44164e-08
8.48216e-08
8.50391e-08
8.50654e-08
8.48986e-08
8.4538e-08
8.39846e-08
8.32407e-08
8.231e-08
8.11975e-08
7.991e-08
7.84551e-08
7.68419e-08
7.50805e-08
7.31821e-08
7.11587e-08
6.90231e-08
6.67886e-08
6.4469e-08
6.20785e-08
5.96311e-08
5.71411e-08
5.46224e-08
5.20887e-08
4.95532e-08
4.70286e-08
4.45266e-08
4.20586e-08
3.96346e-08
3.72642e-08
3.49556e-08
3.27161e-08
3.05523e-08
2.84692e-08
2.64713e-08
2.45618e-08
2.27432e-08
2.10169e-08
1.93836e-08
1.78432e-08
1.63948e-08
1.50371e-08
1.37679e-08
1.2585e-08
1.14853e-08
1.04657e-08
9.52272e-09
8.65269e-09
7.85183e-09
7.11624e-09
6.44203e-09
5.82528e-09
5.26216e-09
4.7489e-09
4.28185e-09
3.8575e-09
3.47247e-09
3.12357e-09
2.80778e-09
2.52225e-09
2.26432e-09
2.03151e-09
1.82152e-09
1.63222e-09
1.46165e-09
1.30804e-09
1.16973e-09
1.04524e-09
9.33209e-10
8.32409e-10
7.4173e-10
6.60171e-10
5.8683e-10
5.20898e-10
4.61647e-10
4.08427e-10
3.60652e-10
3.17799e-10
2.79399e-10
2.45032e-10
2.14318e-10
1.8692e-10
1.62528e-10
1.40867e-10
1.21685e-10
1.04752e-10
8.98589e-11
7.68141e-11
6.54409e-11
5.55763e-11
4.70692e-11
3.97796e-11
3.35775e-11
2.8342e-11
2.39604e-11
2.03283e-11
1.73486e-11
1.49317e-11
1.29947e-11
1.14616e-11
1.02633e-11
9.33675e-12
8.62579e-12
8.08042e-12
7.65695e-12
7.31786e-12
7.03164e-12
6.77262e-12
6.52069e-12
6.26096e-12
5.98338e-12
5.68222e-12
5.35555e-12
5.00456e-12
4.63296e-12
4.24628e-12
3.85123e-12
3.45505e-12
3.06501e-12
2.68791e-12
2.32972e-12
1.99532e-12
1.68837e-12
1.41124e-12
1.16508e-12
9.499e-13
7.64738e-13
6.07873e-13
4.77016e-13
3.69511e-13
2.82524e-13
2.13194e-13
1.5876e-13
1.1666e-13
8.45799e-14
6.04983e-14
4.2688e-14
2.97104e-14
2.03935e-14
1.38025e-14
9.20681e-15
6.04604e-15
3.8976e-15
2.44714e-15
1.46247e-15
7.70939e-16
2.39969e-16
3.99989e-12
1.20412e-11
2.02084e-11
2.85876e-11
3.72674e-11
4.63393e-11
5.58986e-11
6.60455e-11
7.68859e-11
8.85323e-11
1.01105e-10
1.14734e-10
1.29559e-10
1.45729e-10
1.63409e-10
1.82777e-10
2.04025e-10
2.27365e-10
2.53026e-10
2.81258e-10
3.12335e-10
3.46555e-10
3.84244e-10
4.25759e-10
4.71486e-10
5.2185e-10
5.77311e-10
6.38372e-10
7.05581e-10
7.79533e-10
8.60877e-10
9.50314e-10
1.04861e-09
1.15659e-09
1.27515e-09
1.40526e-09
1.54798e-09
1.70442e-09
1.87581e-09
2.06347e-09
2.2688e-09
2.49332e-09
2.73865e-09
3.00654e-09
3.29883e-09
3.61751e-09
3.96468e-09
4.34259e-09
4.75361e-09
5.20025e-09
5.68517e-09
6.21115e-09
6.78113e-09
7.39818e-09
8.06551e-09
8.78646e-09
9.56449e-09
1.04032e-08
1.13063e-08
1.22775e-08
1.33207e-08
1.44399e-08
1.56389e-08
1.69219e-08
1.82928e-08
1.97554e-08
2.13137e-08
2.29714e-08
2.4732e-08
2.6599e-08
2.85755e-08
3.06642e-08
3.28676e-08
3.51877e-08
3.76261e-08
4.01837e-08
4.28609e-08
4.56574e-08
4.85722e-08
5.16032e-08
5.47477e-08
5.8002e-08
6.13613e-08
6.48199e-08
6.83707e-08
7.20059e-08
7.5716e-08
7.94907e-08
8.33183e-08
8.7186e-08
9.10797e-08
9.49842e-08
9.88833e-08
1.0276e-07
1.06595e-07
1.10371e-07
1.14066e-07
1.17662e-07
1.21137e-07
1.2447e-07
1.2764e-07
1.30627e-07
1.3341e-07
1.3597e-07
1.38286e-07
1.40342e-07
1.42121e-07
1.43608e-07
1.44788e-07
1.45652e-07
1.46188e-07
1.46391e-07
1.46255e-07
1.45778e-07
1.44961e-07
1.43805e-07
1.42317e-07
1.40504e-07
1.38377e-07
1.35949e-07
1.33234e-07
1.30251e-07
1.27018e-07
1.23557e-07
1.19889e-07
1.16038e-07
1.12028e-07
1.07884e-07
1.03633e-07
9.92981e-08
9.49058e-08
9.04803e-08
8.60457e-08
8.16248e-08
7.72393e-08
7.29098e-08
6.86548e-08
6.44918e-08
6.04359e-08
5.65009e-08
5.26986e-08
4.90387e-08
4.55293e-08
4.21767e-08
3.89854e-08
3.59583e-08
3.30967e-08