/*--------------------------------*- C++ -*----------------------------------*\
| =========                 |                                                 |
| \\      /  F ield         | OpenFOAM: The Open Source CFD Toolbox           |
|  \\    /   O peration     | Version:  v2012                                 |
|   \\  /    A nd           | Website:  www.openfoam.com                      |
|    \\/     M anipulation  |                                                 |
\*---------------------------------------------------------------------------*/
FoamFile
{
    version     2.0;
    format      ascii;
    class       volScalarField;
    location    "16.5";
    object      Psi_z;
}
// * * * * * * * * * * * * * * * * * * * * * * * * * * * * * * * * * * * * * //

dimensions      [0 2 -1 0 0 0 0];


internalField   nonuniform List<scalar> 
65536
(
8.30909e-06
2.49278e-05
4.1548e-05
5.81704e-05
7.4796e-05
9.14257e-05
0.00010806
0.000124701
0.000141348
0.000158003
0.000174666
0.000191338
0.000208021
0.000224714
0.000241419
0.000258136
0.000274865
0.000291609
0.000308366
0.000325138
0.000341925
0.000358728
0.000375547
0.000392383
0.000409236
0.000426105
0.000442992
0.000459897
0.000476819
0.000493758
0.000510716
0.000527691
0.000544683
0.000561692
0.000578717
0.000595759
0.000612817
0.00062989
0.000646977
0.000664077
0.00068119
0.000698315
0.00071545
0.000732594
0.000749746
0.000766905
0.000784068
0.000801234
0.000818401
0.000835567
0.00085273
0.000869888
0.000887037
0.000904176
0.000921302
0.000938412
0.000955502
0.00097257
0.000989613
0.00100663
0.0010236
0.00104055
0.00105745
0.0010743
0.00109111
0.00110786
0.00112456
0.00114118
0.00115774
0.00117423
0.00119063
0.00120695
0.00122318
0.00123931
0.00125533
0.00127125
0.00128704
0.00130272
0.00131826
0.00133367
0.00134894
0.00136405
0.001379
0.00139379
0.0014084
0.00142283
0.00143707
0.00145111
0.00146495
0.00147858
0.00149198
0.00150515
0.00151809
0.00153078
0.00154321
0.00155538
0.00156729
0.00157891
0.00159025
0.00160129
0.00161203
0.00162245
0.00163256
0.00164235
0.0016518
0.00166091
0.00166968
0.00167809
0.00168613
0.00169382
0.00170113
0.00170806
0.0017146
0.00172075
0.00172651
0.00173187
0.00173683
0.00174137
0.00174551
0.00174923
0.00175253
0.0017554
0.00175786
0.00175989
0.00176149
0.00176266
0.00176341
0.00176372
0.00176361
0.00176307
0.0017621
0.0017607
0.00175887
0.00175663
0.00175396
0.00175087
0.00174737
0.00174345
0.00173913
0.0017344
0.00172927
0.00172375
0.00171783
0.00171153
0.00170485
0.0016978
0.00169038
0.00168259
0.00167445
0.00166596
0.00165713
0.00164797
0.00163847
0.00162866
0.00161853
0.00160809
0.00159736
0.00158633
0.00157502
0.00156344
0.00155158
0.00153947
0.00152711
0.0015145
0.00150165
0.00148858
0.00147528
0.00146177
0.00144806
0.00143414
0.00142004
0.00140575
0.00139128
0.00137665
0.00136185
0.0013469
0.0013318
0.00131656
0.00130119
0.00128568
0.00127005
0.00125431
0.00123846
0.0012225
0.00120645
0.0011903
0.00117406
0.00115775
0.00114135
0.00112488
0.00110835
0.00109175
0.0010751
0.00105839
0.00104163
0.00102482
0.00100798
0.000991092
0.000974172
0.00095722
0.000940241
0.000923236
0.00090621
0.000889164
0.000872101
0.000855025
0.000837936
0.000820839
0.000803734
0.000786624
0.00076951
0.000752395
0.000735281
0.000718167
0.000701057
0.000683951
0.000666851
0.000649758
0.000632672
0.000615595
0.000598528
0.000581471
0.000564425
0.00054739
0.000530367
0.000513357
0.000496359
0.000479375
0.000462403
0.000445445
0.0004285
0.000411568
0.00039465
0.000377745
0.000360853
0.000343973
0.000327106
0.000310252
0.000293409
0.000276577
0.000259757
0.000242946
0.000226146
0.000209355
0.000192573
0.000175799
0.000159033
0.000142274
0.000125521
0.000108773
9.20307e-05
7.52922e-05
5.85571e-05
4.18246e-05
2.5094e-05
8.36454e-06
2.4927e-05
7.47825e-05
0.000124642
0.000174509
0.000224385
0.000274273
0.000324176
0.000374097
0.000424038
0.000474002
0.000523991
0.000574007
0.000624054
0.000674132
0.000724246
0.000774396
0.000824585
0.000874814
0.000925086
0.000975401
0.00102576
0.00107617
0.00112663
0.00117714
0.00122769
0.0012783
0.00132896
0.00137968
0.00143044
0.00148126
0.00153213
0.00158306
0.00163403
0.00168506
0.00173614
0.00178727
0.00183844
0.00188966
0.00194092
0.00199222
0.00204356
0.00209494
0.00214635
0.00219778
0.00224924
0.00230072
0.00235221
0.00240371
0.00245521
0.00250671
0.0025582
0.00260968
0.00266113
0.00271255
0.00276393
0.00281526
0.00286654
0.00291774
0.00296887
0.00301991
0.00307086
0.00312169
0.0031724
0.00322297
0.00327339
0.00332365
0.00337374
0.00342363
0.00347331
0.00352277
0.00357199
0.00362095
0.00366963
0.00371803
0.00376611
0.00381386
0.00386126
0.0039083
0.00395494
0.00400117
0.00404697
0.00409231
0.00413717
0.00418154
0.00422539
0.00426869
0.00431142
0.00435355
0.00439508
0.00443596
0.00447617
0.0045157
0.00455452
0.00459259
0.0046299
0.00466643
0.00470214
0.00473702
0.00477103
0.00480417
0.00483639
0.00486768
0.00489802
0.00492738
0.00495574
0.00498309
0.00500938
0.00503462
0.00505877
0.00508183
0.00510376
0.00512455
0.00514419
0.00516266
0.00517994
0.00519602
0.00521089
0.00522454
0.00523694
0.0052481
0.005258
0.00526664
0.005274
0.00528009
0.0052849
0.00528842
0.00529066
0.0052916
0.00529126
0.00528963
0.00528672
0.00528252
0.00527705
0.0052703
0.00526229
0.00525303
0.00524251
0.00523077
0.00521779
0.0052036
0.00518821
0.00517164
0.00515389
0.00513498
0.00511494
0.00509377
0.00507149
0.00504813
0.00502371
0.00499823
0.00497173
0.00494422
0.00491573
0.00488628
0.00485588
0.00482457
0.00479236
0.00475927
0.00472534
0.00469058
0.00465501
0.00461867
0.00458156
0.00454373
0.00450518
0.00446595
0.00442606
0.00438552
0.00434436
0.00430261
0.00426029
0.00421742
0.00417402
0.00413011
0.00408571
0.00404085
0.00399555
0.00394982
0.00390368
0.00385716
0.00381028
0.00376304
0.00371548
0.0036676
0.00361943
0.00357098
0.00352227
0.00347331
0.00342412
0.00337472
0.00332511
0.00327531
0.00322534
0.00317521
0.00312493
0.00307451
0.00302397
0.00297331
0.00292254
0.00287168
0.00282074
0.00276973
0.00271864
0.0026675
0.00261631
0.00256508
0.00251381
0.00246252
0.0024112
0.00235987
0.00230853
0.00225718
0.00220584
0.0021545
0.00210316
0.00205185
0.00200054
0.00194926
0.00189801
0.00184677
0.00179557
0.0017444
0.00169326
0.00164216
0.00159109
0.00154006
0.00148906
0.00143811
0.00138719
0.00133632
0.00128548
0.00123469
0.00118394
0.00113322
0.00108254
0.00103191
0.000981306
0.000930742
0.000880213
0.000829719
0.000779258
0.000728828
0.000678428
0.000628056
0.000577711
0.00052739
0.000477092
0.000426815
0.000376556
0.000326315
0.000276088
0.000225873
0.000175668
0.000125472
7.52808e-05
2.50932e-05
4.15435e-05
0.000124633
0.000207729
0.000290837
0.000373961
0.000457105
0.000540274
0.000623473
0.000706705
0.000789975
0.000873287
0.000956645
0.00104005
0.00112352
0.00120704
0.00129062
0.00137426
0.00145798
0.00154176
0.00162562
0.00170955
0.00179357
0.00187766
0.00196184
0.0020461
0.00213045
0.00221488
0.0022994
0.00238401
0.00246871
0.0025535
0.00263837
0.00272334
0.00280838
0.00289351
0.00297873
0.00306402
0.00314938
0.00323482
0.00332033
0.0034059
0.00349153
0.00357721
0.00366294
0.00374871
0.00383451
0.00392034
0.00400617
0.00409202
0.00417786
0.00426369
0.00434949
0.00443525
0.00452096
0.0046066
0.00469217
0.00477763
0.00486299
0.00494822
0.0050333
0.00511822
0.00520295
0.00528748
0.00537178
0.00545584
0.00553962
0.00562311
0.00570628
0.0057891
0.00587155
0.0059536
0.00603522
0.00611638
0.00619706
0.00627722
0.00635683
0.00643585
0.00651426
0.00659202
0.0066691
0.00674545
0.00682104
0.00689585
0.00696982
0.00704292
0.00711511
0.00718635
0.00725661
0.00732584
0.007394
0.00746106
0.00752696
0.00759168
0.00765517
0.00771738
0.00777828
0.00783783
0.00789599
0.00795271
0.00800795
0.00806169
0.00811387
0.00816446
0.00821342
0.00826071
0.0083063
0.00835016
0.00839224
0.00843252
0.00847096
0.00850753
0.00854221
0.00857496
0.00860575
0.00863457
0.00866139
0.00868618
0.00870894
0.00872962
0.00874823
0.00876474
0.00877914
0.00879143
0.00880158
0.0088096
0.00881547
0.00881919
0.00882077
0.0088202
0.00881748
0.00881262
0.00880562
0.00879649
0.00878524
0.00877188
0.00875643
0.0087389
0.00871931
0.00869767
0.008674
0.00864834
0.00862069
0.0085911
0.00855957
0.00852614
0.00849084
0.0084537
0.00841474
0.00837401
0.00833153
0.00828734
0.00824147
0.00819396
0.00814484
0.00809416
0.00804194
0.00798823
0.00793306
0.00787648
0.00781852
0.00775922
0.00769862
0.00763675
0.00757367
0.0075094
0.00744399
0.00737747
0.00730988
0.00724127
0.00717166
0.0071011
0.00702962
0.00695726
0.00688405
0.00681004
0.00673525
0.00665972
0.00658348
0.00650657
0.00642901
0.00635085
0.0062721
0.00619281
0.006113
0.00603269
0.00595193
0.00587072
0.00578911
0.00570711
0.00562475
0.00554206
0.00545905
0.00537575
0.00529218
0.00520837
0.00512432
0.00504007
0.00495562
0.00487101
0.00478623
0.00470132
0.00461628
0.00453114
0.00444589
0.00436057
0.00427517
0.00418972
0.00410422
0.00401869
0.00393313
0.00384755
0.00376197
0.00367639
0.00359081
0.00350526
0.00341972
0.00333422
0.00324874
0.00316331
0.00307792
0.00299258
0.00290729
0.00282206
0.00273689
0.00265177
0.00256672
0.00248173
0.0023968
0.00231194
0.00222715
0.00214243
0.00205777
0.00197318
0.00188866
0.0018042
0.0017198
0.00163547
0.0015512
0.00146698
0.00138283
0.00129873
0.00121468
0.00113068
0.00104673
0.000962823
0.000878958
0.00079513
0.000711337
0.000627575
0.000543842
0.000460132
0.000376443
0.000292772
0.000209113
0.000125464
4.18208e-05
5.81578e-05
0.000174477
0.000290805
0.00040715
0.000523516
0.000639912
0.000756343
0.000872815
0.000989334
0.00110591
0.00122254
0.00133923
0.001456
0.00157284
0.00168976
0.00180677
0.00192387
0.00204107
0.00215836
0.00227576
0.00239326
0.00251088
0.00262861
0.00274645
0.00286442
0.0029825
0.00310071
0.00321904
0.00333749
0.00345607
0.00357477
0.0036936
0.00381255
0.00393162
0.0040508
0.00417011
0.00428952
0.00440904
0.00452866
0.00464837
0.00476818
0.00488807
0.00500803
0.00512806
0.00524815
0.00536828
0.00548845
0.00560864
0.00572883
0.00584903
0.0059692
0.00608934
0.00620942
0.00632943
0.00644935
0.00656917
0.00668884
0.00680837
0.00692771
0.00704685
0.00716577
0.00728442
0.00740279
0.00752084
0.00763855
0.00775588
0.0078728
0.00798927
0.00810526
0.00822073
0.00833564
0.00844995
0.00856362
0.00867661
0.00878888
0.00890037
0.00901106
0.00912088
0.00922979
0.00933774
0.00944469
0.00955057
0.00965535
0.00975896
0.00986135
0.00996248
0.0100623
0.0101607
0.0102577
0.0103532
0.0104471
0.0105394
0.0106301
0.010719
0.0108062
0.0108915
0.0109749
0.0110564
0.0111359
0.0112133
0.0112885
0.0113616
0.0114325
0.0115011
0.0115674
0.0116313
0.0116927
0.0117517
0.0118081
0.011862
0.0119132
0.0119618
0.0120077
0.0120508
0.0120912
0.0121288
0.0121635
0.0121954
0.0122244
0.0122505
0.0122736
0.0122938
0.012311
0.0123252
0.0123364
0.0123447
0.0123499
0.0123521
0.0123513
0.0123475
0.0123407
0.0123308
0.012318
0.0123023
0.0122836
0.0122619
0.0122373
0.0122099
0.0121796
0.0121464
0.0121104
0.0120717
0.0120302
0.0119861
0.0119392
0.0118898
0.0118377
0.0117831
0.0117261
0.0116665
0.0116046
0.0115404
0.0114738
0.011405
0.011334
0.0112608
0.0111856
0.0111083
0.011029
0.0109478
0.0108647
0.0107798
0.0106932
0.0106048
0.0105148
0.0104231
0.01033
0.0102353
0.0101392
0.0100417
0.00994282
0.0098427
0.00974134
0.00963881
0.00953514
0.00943038
0.00932459
0.00921781
0.00911009
0.00900147
0.008892
0.00878172
0.00867066
0.00855889
0.00844642
0.00833331
0.00821959
0.00810529
0.00799046
0.00787512
0.00775932
0.00764307
0.00752643
0.0074094
0.00729203
0.00717434
0.00705636
0.00693812
0.00681963
0.00670092
0.00658202
0.00646295
0.00634373
0.00622437
0.00610489
0.00598532
0.00586568
0.00574596
0.0056262
0.0055064
0.00538658
0.00526676
0.00514693
0.00502712
0.00490733
0.00478757
0.00466786
0.00454819
0.00442858
0.00430903
0.00418954
0.00407014
0.0039508
0.00383156
0.00371239
0.00359331
0.00347433
0.00335543
0.00323663
0.00311792
0.00299931
0.00288079
0.00276236
0.00264403
0.00252579
0.00240763
0.00228957
0.00217159
0.0020537
0.00193588
0.00181815
0.00170048
0.00158289
0.00146536
0.0013479
0.00123049
0.00111313
0.000995828
0.000878567
0.000761344
0.000644156
0.000526997
0.000409862
0.000292745
0.000175642
5.85464e-05
7.47687e-05
0.00022431
0.000373864
0.000523439
0.000673043
0.000822684
0.00097237
0.00112211
0.00127191
0.00142178
0.00157172
0.00172175
0.00187187
0.00202209
0.00217241
0.00232284
0.00247339
0.00262406
0.00277486
0.00292579
0.00307686
0.00322808
0.00337944
0.00353095
0.00368261
0.00383443
0.00398641
0.00413855
0.00429085
0.00444331
0.00459593
0.0047487
0.00490164
0.00505473
0.00520798
0.00536137
0.00551491
0.00566859
0.00582239
0.00597633
0.00613038
0.00628453
0.00643879
0.00659313
0.00674754
0.00690201
0.00705654
0.00721109
0.00736565
0.00752021
0.00767475
0.00782924
0.00798366
0.008138
0.00829222
0.0084463
0.00860021
0.00875392
0.00890741
0.00906063
0.00921357
0.00936617
0.00951841
0.00967025
0.00982164
0.00997255
0.0101229
0.0102727
0.0104219
0.0105705
0.0107183
0.0108653
0.0110115
0.0111569
0.0113013
0.0114447
0.0115871
0.0117284
0.0118685
0.0120074
0.012145
0.0122812
0.012416
0.0125493
0.0126811
0.0128112
0.0129396
0.0130662
0.013191
0.0133139
0.0134347
0.0135535
0.0136702
0.0137846
0.0138968
0.0140066
0.014114
0.0142188
0.0143211
0.0144207
0.0145176
0.0146116
0.0147029
0.0147911
0.0148764
0.0149586
0.0150377
0.0151136
0.0151862
0.0152556
0.0153215
0.0153841
0.0154431
0.0154987
0.0155506
0.015599
0.0156437
0.0156847
0.0157221
0.0157556
0.0157854
0.0158114
0.0158335
0.0158518
0.0158663
0.0158769
0.0158836
0.0158864
0.0158854
0.0158805
0.0158717
0.0158591
0.0158426
0.0158223
0.0157982
0.0157703
0.0157387
0.0157033
0.0156643
0.0156216
0.0155753
0.0155255
0.0154721
0.0154152
0.0153549
0.0152912
0.0152243
0.015154
0.0150806
0.0150039
0.0149243
0.0148415
0.0147559
0.0146673
0.0145759
0.0144818
0.0143849
0.0142855
0.0141835
0.014079
0.0139721
0.0138628
0.0137513
0.0136376
0.0135217
0.0134038
0.0132839
0.0131621
0.0130384
0.012913
0.0127858
0.012657
0.0125266
0.0123947
0.0122613
0.0121266
0.0119905
0.0118531
0.0117145
0.0115748
0.011434
0.0112921
0.0111492
0.0110055
0.0108608
0.0107153
0.010569
0.010422
0.0102743
0.010126
0.00997702
0.00982751
0.00967748
0.00952697
0.00937602
0.00922466
0.00907293
0.00892085
0.00876847
0.00861581
0.0084629
0.00830977
0.00815645
0.00800296
0.00784932
0.00769556
0.00754169
0.00738775
0.00723375
0.0070797
0.00692563
0.00677154
0.00661746
0.0064634
0.00630937
0.00615538
0.00600145
0.00584758
0.00569378
0.00554006
0.00538643
0.0052329
0.00507947
0.00492614
0.00477292
0.00461982
0.00446684
0.00431397
0.00416122
0.00400859
0.00385609
0.00370371
0.00355145
0.00339931
0.00324729
0.00309538
0.00294359
0.00279191
0.00264033
0.00248886
0.00233749
0.00218621
0.00203503
0.00188393
0.00173291
0.00158196
0.00143109
0.00128028
0.00112952
0.000978813
0.000828151
0.000677527
0.000526933
0.000376364
0.000225811
7.52694e-05
9.13755e-05
0.000274132
0.000456903
0.0006397
0.000822532
0.00100541
0.00118834
0.00137134
0.00155441
0.00173757
0.00192082
0.00210418
0.00228764
0.00247122
0.00265494
0.00283879
0.00302278
0.00320692
0.00339122
0.00357568
0.00376032
0.00394513
0.00413012
0.00431529
0.00450065
0.00468621
0.00487196
0.0050579
0.00524404
0.00543038
0.00561692
0.00580365
0.00599058
0.0061777
0.006365
0.00655249
0.00674016
0.006928
0.007116
0.00730416
0.00749246
0.0076809
0.00786945
0.00805811
0.00824687
0.0084357
0.00862459
0.00881352
0.00900247
0.00919141
0.00938033
0.0095692
0.00975799
0.00994667
0.0101352
0.0103236
0.0105118
0.0106997
0.0108874
0.0110747
0.0112617
0.0114483
0.0116344
0.0118201
0.0120052
0.0121897
0.0123736
0.0125568
0.0127393
0.0129209
0.0131017
0.0132815
0.0134603
0.0136381
0.0138147
0.0139901
0.0141643
0.0143371
0.0145085
0.0146783
0.0148466
0.0150133
0.0151782
0.0153412
0.0155024
0.0156616
0.0158187
0.0159736
0.0161262
0.0162765
0.0164244
0.0165698
0.0167125
0.0168526
0.0169898
0.0171241
0.0172555
0.0173838
0.0175089
0.0176308
0.0177494
0.0178645
0.0179761
0.0180842
0.0181885
0.0182892
0.0183859
0.0184788
0.0185677
0.0186525
0.0187333
0.0188098
0.0188821
0.0189501
0.0190137
0.0190729
0.0191276
0.0191778
0.0192235
0.0192646
0.019301
0.0193328
0.0193599
0.0193823
0.0194
0.0194129
0.0194212
0.0194246
0.0194233
0.0194173
0.0194066
0.0193911
0.0193709
0.0193461
0.0193166
0.0192825
0.0192437
0.0192005
0.0191527
0.0191004
0.0190438
0.0189827
0.0189174
0.0188478
0.018774
0.0186961
0.0186141
0.0185281
0.0184382
0.0183444
0.0182469
0.0181457
0.0180408
0.0179325
0.0178206
0.0177054
0.0175869
0.0174652
0.0173404
0.0172125
0.0170817
0.0169481
0.0168116
0.0166725
0.0165308
0.0163865
0.0162398
0.0160908
0.0159395
0.0157861
0.0156305
0.0154729
0.0153134
0.015152
0.0149889
0.0148241
0.0146576
0.0144896
0.0143201
0.0141492
0.013977
0.0138035
0.0136288
0.0134529
0.013276
0.0130981
0.0129192
0.0127394
0.0125588
0.0123774
0.0121953
0.0120125
0.011829
0.011645
0.0114604
0.0112753
0.0110898
0.0109039
0.0107176
0.0105309
0.010344
0.0101568
0.00996934
0.00978169
0.00959386
0.00940589
0.0092178
0.0090296
0.00884134
0.00865303
0.00846468
0.00827632
0.00808798
0.00789965
0.00771137
0.00752314
0.00733498
0.00714689
0.0069589
0.00677101
0.00658323
0.00639557
0.00620803
0.00602062
0.00583335
0.00564621
0.00545923
0.00527238
0.00508569
0.00489915
0.00471275
0.00452651
0.00434042
0.00415447
0.00396867
0.00378301
0.00359749
0.00341211
0.00322686
0.00304174
0.00285674
0.00267186
0.00248709
0.00230242
0.00211785
0.00193337
0.00174898
0.00156467
0.00138042
0.00119624
0.00101211
0.000828026
0.000643981
0.000459965
0.000275971
9.19889e-05
0.000107977
0.000323938
0.000539916
0.000755925
0.000971976
0.00118808
0.00140425
0.0016205
0.00183684
0.00205327
0.00226982
0.00248649
0.00270329
0.00292024
0.00313733
0.00335459
0.00357202
0.00378962
0.00400742
0.00422541
0.0044436
0.004662
0.00488061
0.00509944
0.0053185
0.00553779
0.0057573
0.00597705
0.00619703
0.00641725
0.00663771
0.0068584
0.00707932
0.00730047
0.00752184
0.00774344
0.00796524
0.00818725
0.00840946
0.00863185
0.00885441
0.00907714
0.00930001
0.00952301
0.00974612
0.00996933
0.0101926
0.0104159
0.0106393
0.0108626
0.011086
0.0113092
0.0115324
0.0117555
0.0119784
0.0122011
0.0124236
0.0126458
0.0128676
0.0130891
0.0133102
0.0135308
0.0137509
0.0139705
0.0141894
0.0144076
0.014625
0.0148417
0.0150574
0.0152722
0.015486
0.0156987
0.0159102
0.0161204
0.0163293
0.0165368
0.0167428
0.0169472
0.0171499
0.0173509
0.0175499
0.0177471
0.0179421
0.0181351
0.0183257
0.018514
0.0186999
0.0188832
0.0190638
0.0192417
0.0194167
0.0195887
0.0197576
0.0199233
0.0200857
0.0202446
0.0204001
0.0205519
0.0207
0.0208443
0.0209846
0.0211209
0.021253
0.0213809
0.0215044
0.0216235
0.0217381
0.021848
0.0219532
0.0220536
0.0221492
0.0222398
0.0223254
0.0224058
0.0224811
0.0225512
0.022616
0.0226754
0.0227295
0.0227781
0.0228213
0.0228589
0.022891
0.0229175
0.0229384
0.0229538
0.0229635
0.0229676
0.022966
0.0229589
0.0229462
0.0229279
0.022904
0.0228745
0.0228396
0.0227992
0.0227534
0.0227021
0.0226455
0.0225837
0.0225166
0.0224443
0.022367
0.0222846
0.0221972
0.0221049
0.0220079
0.0219061
0.0217997
0.0216887
0.0215733
0.0214535
0.0213294
0.0212011
0.0210687
0.0209324
0.0207921
0.0206481
0.0205004
0.0203491
0.0201943
0.0200361
0.0198746
0.01971
0.0195423
0.0193716
0.0191981
0.0190218
0.0188428
0.0186612
0.0184772
0.0182908
0.0181021
0.0179112
0.0177182
0.0175232
0.0173263
0.0171276
0.0169271
0.0167249
0.0165212
0.016316
0.0161094
0.0159015
0.0156922
0.0154818
0.0152703
0.0150577
0.0148441
0.0146296
0.0144142
0.0141981
0.0139811
0.0137635
0.0135453
0.0133265
0.0131071
0.0128873
0.012667
0.0124464
0.0122254
0.012004
0.0117824
0.0115606
0.0113386
0.0111163
0.010894
0.0106715
0.010449
0.0102264
0.0100037
0.0097811
0.00955847
0.00933587
0.00911331
0.00889083
0.00866843
0.00844612
0.00822393
0.00800185
0.00777991
0.00755811
0.00733645
0.00711496
0.00689363
0.00667246
0.00645147
0.00623065
0.00601001
0.00578955
0.00556927
0.00534916
0.00512924
0.00490949
0.00468991
0.00447051
0.00425127
0.00403219
0.00381327
0.0035945
0.00337587
0.00315739
0.00293904
0.00272081
0.0025027
0.0022847
0.0020668
0.00184899
0.00163126
0.00141361
0.00119602
0.000978487
0.000760999
0.000543546
0.000326117
0.000108704
0.000124573
0.000373725
0.000622899
0.000872108
0.00112137
0.00137069
0.00162008
0.00186957
0.00211916
0.00236886
0.0026187
0.00286867
0.0031188
0.00336909
0.00361956
0.00387022
0.00412108
0.00437214
0.00462342
0.00487493
0.00512667
0.00537865
0.00563088
0.00588337
0.00613612
0.00638913
0.00664241
0.00689597
0.00714979
0.00740389
0.00765827
0.00791291
0.00816783
0.00842302
0.00867846
0.00893416
0.00919011
0.0094463
0.00970272
0.00995936
0.0102162
0.0104732
0.0107304
0.0109878
0.0112453
0.0115029
0.0117606
0.0120183
0.0122761
0.0125339
0.0127917
0.0130494
0.013307
0.0135644
0.0138217
0.0140788
0.0143356
0.0145921
0.0148483
0.015104
0.0153592
0.0156139
0.015868
0.0161215
0.0163742
0.0166262
0.0168773
0.0171274
0.0173765
0.0176246
0.0178714
0.018117
0.0183613
0.0186041
0.0188453
0.019085
0.0193229
0.019559
0.0197931
0.0200252
0.0202552
0.0204829
0.0207083
0.0209311
0.0211514
0.021369
0.0215837
0.0217955
0.0220042
0.0222097
0.0224119
0.0226106
0.0228058
0.0229973
0.0231849
0.0233687
0.0235483
0.0237238
0.023895
0.0240617
0.0242239
0.0243814
0.0245341
0.0246819
0.0248247
0.0249624
0.0250948
0.0252219
0.0253435
0.0254596
0.0255701
0.0256748
0.0257737
0.0258668
0.0259538
0.0260348
0.0261097
0.0261785
0.026241
0.0262972
0.026347
0.0263905
0.0264276
0.0264583
0.0264825
0.0265002
0.0265114
0.0265161
0.0265144
0.0265061
0.0264914
0.0264702
0.0264425
0.0264085
0.0263681
0.0263214
0.0262684
0.0262091
0.0261437
0.0260722
0.0259946
0.025911
0.0258216
0.0257263
0.0256253
0.0255186
0.0254064
0.0252888
0.0251657
0.0250374
0.024904
0.0247655
0.0246221
0.0244738
0.0243208
0.0241632
0.0240011
0.0238346
0.0236639
0.0234891
0.0233102
0.0231274
0.0229408
0.0227506
0.0225568
0.0223596
0.0221591
0.0219554
0.0217486
0.0215388
0.0213262
0.0211109
0.0208929
0.0206724
0.0204495
0.0202242
0.0199968
0.0197673
0.0195357
0.0193023
0.019067
0.01883
0.0185914
0.0183513
0.0181096
0.0178667
0.0176224
0.0173769
0.0171303
0.0168826
0.016634
0.0163844
0.016134
0.0158827
0.0156308
0.0153782
0.015125
0.0148712
0.0146169
0.0143622
0.0141071
0.0138516
0.0135958
0.0133397
0.0130834
0.0128269
0.0125703
0.0123135
0.0120567
0.0117998
0.0115428
0.0112859
0.0110289
0.010772
0.0105152
0.0102584
0.0100018
0.00974524
0.00948883
0.00923256
0.00897645
0.0087205
0.00846473
0.00820914
0.00795374
0.00769854
0.00744354
0.00718875
0.00693416
0.00667978
0.0064256
0.00617164
0.00591788
0.00566433
0.00541098
0.00515783
0.00490487
0.00465211
0.00439952
0.00414711
0.00389487
0.00364279
0.00339086
0.00313908
0.00288744
0.00263592
0.00238452
0.00213323
0.00188203
0.00163092
0.00137988
0.0011289
0.000877982
0.000627101
0.000376249
0.000125414
0.000141161
0.000423492
0.000705847
0.000988241
0.00127069
0.00155321
0.00183582
0.00211853
0.00240136
0.00268432
0.00296743
0.0032507
0.00353414
0.00381777
0.00410161
0.00438565
0.00466993
0.00495444
0.00523919
0.00552421
0.00580949
0.00609505
0.0063809
0.00666704
0.00695347
0.00724021
0.00752725
0.00781461
0.00810227
0.00839025
0.00867855
0.00896716
0.00925607
0.0095453
0.00983482
0.0101246
0.0104147
0.0107051
0.0109958
0.0112867
0.0115778
0.0118691
0.0121607
0.0124524
0.0127443
0.0130363
0.0133285
0.0136207
0.0139129
0.0142052
0.0144974
0.0147896
0.0150817
0.0153736
0.0156653
0.0159568
0.016248
0.0165389
0.0168293
0.0171193
0.0174087
0.0176976
0.0179858
0.0182732
0.0185599
0.0188456
0.0191304
0.0194141
0.0196967
0.0199781
0.0202581
0.0205367
0.0208138
0.0210893
0.021363
0.0216349
0.0219048
0.0221727
0.0224384
0.0227018
0.0229627
0.0232212
0.0234769
0.0237298
0.0239798
0.0242267
0.0244704
0.0247108
0.0249477
0.025181
0.0254105
0.0256361
0.0258577
0.0260751
0.0262882
0.0264968
0.0267008
0.0269
0.0270944
0.0272837
0.0274678
0.0276467
0.0278201
0.027988
0.0281501
0.0283065
0.0284569
0.0286012
0.0287394
0.0288712
0.0289967
0.0291157
0.029228
0.0293337
0.0294326
0.0295246
0.0296097
0.0296877
0.0297587
0.0298225
0.0298792
0.0299286
0.0299707
0.0300055
0.030033
0.0300531
0.0300658
0.0300712
0.0300692
0.0300598
0.030043
0.0300189
0.0299875
0.0299489
0.0299029
0.0298498
0.0297896
0.0297223
0.0296479
0.0295667
0.0294785
0.0293836
0.029282
0.0291738
0.029059
0.0289379
0.0288104
0.0286768
0.028537
0.0283913
0.0282398
0.0280825
0.0279196
0.0277512
0.0275775
0.0273985
0.0272145
0.0270255
0.0268316
0.0266331
0.02643
0.0262225
0.0260107
0.0257947
0.0255748
0.0253509
0.0251233
0.0248921
0.0246574
0.0244193
0.024178
0.0239336
0.0236862
0.023436
0.0231831
0.0229275
0.0226694
0.022409
0.0221463
0.0218814
0.0216145
0.0213456
0.0210749
0.0208025
0.0205284
0.0202528
0.0199757
0.0196973
0.0194176
0.0191367
0.0188546
0.0185716
0.0182876
0.0180026
0.0177169
0.0174305
0.0171433
0.0168555
0.0165672
0.0162784
0.0159891
0.0156994
0.0154094
0.0151191
0.0148285
0.0145377
0.0142467
0.0139556
0.0136645
0.0133732
0.0130819
0.0127906
0.0124993
0.0122081
0.011917
0.0116259
0.011335
0.0110442
0.0107536
0.0104631
0.0101728
0.00988272
0.00959282
0.00930313
0.00901366
0.00872442
0.00843541
0.00814663
0.00785809
0.00756979
0.00728173
0.00699391
0.00670633
0.00641898
0.00613186
0.00584497
0.0055583
0.00527184
0.0049856
0.00469955
0.0044137
0.00412804
0.00384255
0.00355722
0.00327205
0.00298703
0.00270214
0.00241737
0.00213271
0.00184815
0.00156367
0.00127927
0.000994924
0.000710627
0.000426363
0.000142119
0.000157742
0.000473235
0.000788754
0.00110432
0.00141995
0.00173565
0.00205146
0.00236738
0.00268343
0.00299963
0.003316
0.00363255
0.00394929
0.00426625
0.00458343
0.00490086
0.00521854
0.00553648
0.00585471
0.00617322
0.00649204
0.00681117
0.00713062
0.0074504
0.00777052
0.00809097
0.00841178
0.00873293
0.00905444
0.0093763
0.00969852
0.0100211
0.010344
0.0106673
0.0109909
0.0113148
0.0116391
0.0119637
0.0122886
0.0126137
0.0129392
0.0132649
0.0135908
0.0139169
0.0142432
0.0145697
0.0148963
0.015223
0.0155497
0.0158765
0.0162032
0.0165299
0.0168565
0.0171829
0.0175091
0.0178351
0.0181607
0.018486
0.0188108
0.0191351
0.0194588
0.0197819
0.0201042
0.0204258
0.0207464
0.021066
0.0213846
0.021702
0.0220182
0.0223329
0.0226462
0.0229579
0.023268
0.0235762
0.0238825
0.0241867
0.0244888
0.0247886
0.0250859
0.0253807
0.0256728
0.025962
0.0262483
0.0265314
0.0268113
0.0270877
0.0273605
0.0276297
0.0278949
0.0281561
0.0284131
0.0286657
0.0289138
0.0291573
0.0293959
0.0296295
0.0298579
0.0300811
0.0302988
0.0305108
0.0307171
0.0309174
0.0311117
0.0312997
0.0314814
0.0316565
0.031825
0.0319867
0.0321415
0.0322892
0.0324298
0.0325631
0.032689
0.0328074
0.0329182
0.0330213
0.0331166
0.033204
0.0332836
0.0333551
0.0334186
0.0334739
0.0335211
0.0335601
0.0335909
0.0336134
0.0336276
0.0336336
0.0336314
0.0336208
0.033602
0.033575
0.0335398
0.0334964
0.033445
0.0333854
0.0333179
0.0332425
0.0331591
0.0330681
0.0329693
0.0328629
0.032749
0.0326277
0.0324992
0.0323634
0.0322206
0.0320709
0.0319143
0.0317511
0.0315813
0.0314051
0.0312226
0.031034
0.0308394
0.0306389
0.0304328
0.0302211
0.030004
0.0297817
0.0295542
0.0293219
0.0290847
0.0288429
0.0285966
0.028346
0.0280912
0.0278323
0.0275695
0.027303
0.0270329
0.0267593
0.0264825
0.0262024
0.0259193
0.0256332
0.0253444
0.025053
0.024759
0.0244626
0.0241639
0.0238631
0.0235602
0.0232554
0.0229488
0.0226404
0.0223304
0.022019
0.021706
0.0213918
0.0210763
0.0207597
0.020442
0.0201234
0.0198038
0.0194834
0.0191623
0.0188405
0.018518
0.018195
0.0178715
0.0175476
0.0172233
0.0168987
0.0165738
0.0162486
0.0159233
0.0155978
0.0152723
0.0149467
0.014621
0.0142953
0.0139697
0.0136442
0.0133187
0.0129933
0.0126681
0.0123431
0.0120182
0.0116935
0.011369
0.0110447
0.0107207
0.0103969
0.0100734
0.00975007
0.00942704
0.00910428
0.00878179
0.00845957
0.00813762
0.00781594
0.00749453
0.00717339
0.00685251
0.00653188
0.0062115
0.00589137
0.00557147
0.0052518
0.00493235
0.00461311
0.00429406
0.0039752
0.00365652
0.003338
0.00301963
0.0027014
0.00238329
0.00206529
0.00174739
0.00142957
0.00111182
0.00079412
0.000476457
0.000158817
0.000174313
0.00052295
0.000871617
0.00122033
0.00156912
0.001918
0.00226698
0.00261609
0.00296535
0.00331478
0.00366439
0.0040142
0.00436423
0.0047145
0.00506502
0.00541581
0.00576688
0.00611825
0.00646993
0.00682194
0.00717428
0.00752697
0.00788002
0.00823343
0.00858722
0.00894139
0.00929595
0.0096509
0.0100062
0.010362
0.0107181
0.0110747
0.0114316
0.0117889
0.0121466
0.0125047
0.0128631
0.0132219
0.0135811
0.0139405
0.0143003
0.0146603
0.0150207
0.0153812
0.015742
0.0161029
0.016464
0.0168252
0.0171865
0.0175478
0.0179091
0.0182703
0.0186315
0.0189925
0.0193532
0.0197137
0.0200738
0.0204336
0.0207928
0.0211515
0.0215096
0.0218669
0.0222235
0.0225792
0.0229339
0.0232875
0.02364
0.0239912
0.0243409
0.0246892
0.0250359
0.0253809
0.0257239
0.026065
0.026404
0.0267408
0.0270751
0.0274069
0.0277361
0.0280624
0.0283857
0.0287059
0.0290228
0.0293363
0.0296462
0.0299522
0.0302544
0.0305524
0.0308461
0.0311353
0.03142
0.0316998
0.0319746
0.0322442
0.0325085
0.0327673
0.0330204
0.0332676
0.0335088
0.0337437
0.0339723
0.0341943
0.0344095
0.0346179
0.0348192
0.0350133
0.0352
0.0353792
0.0355507
0.0357144
0.0358702
0.0360179
0.0361574
0.0362887
0.0364114
0.0365257
0.0366314
0.0367283
0.0368164
0.0368957
0.036966
0.0370274
0.0370797
0.0371229
0.037157
0.0371819
0.0371977
0.0372043
0.0372018
0.0371901
0.0371692
0.0371393
0.0371002
0.0370521
0.036995
0.036929
0.0368541
0.0367705
0.0366781
0.0365771
0.0364676
0.0363497
0.0362235
0.036089
0.0359465
0.035796
0.0356378
0.0354718
0.0352983
0.0351174
0.0349292
0.034734
0.0345317
0.0343228
0.0341071
0.033885
0.0336567
0.0334221
0.0331816
0.0329354
0.0326834
0.032426
0.0321634
0.0318956
0.0316228
0.0313452
0.031063
0.0307764
0.0304854
0.0301903
0.0298913
0.0295884
0.0292819
0.0289718
0.0286584
0.0283418
0.0280221
0.0276995
0.0273741
0.0270461
0.0267155
0.0263826
0.0260474
0.0257101
0.0253708
0.0250296
0.0246867
0.024342
0.0239958
0.0236482
0.0232992
0.0229489
0.0225975
0.022245
0.0218915
0.0215372
0.021182
0.020826
0.0204694
0.0201122
0.0197544
0.0193962
0.0190375
0.0186786
0.0183193
0.0179597
0.0176
0.0172401