/*--------------------------------*- C++ -*----------------------------------*\
| =========                 |                                                 |
| \\      /  F ield         | OpenFOAM: The Open Source CFD Toolbox           |
|  \\    /   O peration     | Version:  v2012                                 |
|   \\  /    A nd           | Website:  www.openfoam.com                      |
|    \\/     M anipulation  |                                                 |
\*---------------------------------------------------------------------------*/
FoamFile
{
    version     2.0;
    format      ascii;
    class       volScalarField;
    location    "3.6";
    object      W;
}
// * * * * * * * * * * * * * * * * * * * * * * * * * * * * * * * * * * * * * //

dimensions      [0 0 -1 0 0 0 0];


internalField   nonuniform List<scalar> 
65536
(
2.7744e-21
8.49945e-21
1.47679e-20
2.19899e-20
3.06455e-20
4.13129e-20
5.46989e-20
7.16746e-20
9.33195e-20
1.20976e-19
1.56319e-19
2.01437e-19
2.58938e-19
3.32073e-19
4.24891e-19
5.42418e-19
6.90891e-19
8.78014e-19
1.11329e-18
1.40842e-18
1.77774e-18
2.23878e-18
2.81296e-18
3.52632e-18
4.41045e-18
5.50358e-18
6.85183e-18
8.51069e-18
1.05467e-17
1.30396e-17
1.60842e-17
1.97935e-17
2.43016e-17
2.97666e-17
3.63754e-17
4.43471e-17
5.39388e-17
6.54505e-17
7.92318e-17
9.56882e-17
1.15289e-16
1.38575e-16
1.66168e-16
1.98781e-16
2.37226e-16
2.82431e-16
3.35443e-16
3.97449e-16
4.69784e-16
5.53944e-16
6.51604e-16
7.64624e-16
8.95072e-16
1.04523e-15
1.2176e-15
1.41493e-15
1.64022e-15
1.89672e-15
2.18794e-15
2.51765e-15
2.8899e-15
3.30897e-15
3.7794e-15
4.30598e-15
4.89368e-15
5.54769e-15
6.27333e-15
7.07604e-15
7.96133e-15
8.93474e-15
1.00017e-14
1.11676e-14
1.24376e-14
1.38166e-14
1.5309e-14
1.6919e-14
1.86498e-14
2.05045e-14
2.24848e-14
2.4592e-14
2.6826e-14
2.9186e-14
3.16697e-14
3.42735e-14
3.69925e-14
3.98204e-14
4.27492e-14
4.57696e-14
4.88705e-14
5.20394e-14
5.52622e-14
5.85232e-14
6.18054e-14
6.50906e-14
6.8359e-14
7.15904e-14
7.47631e-14
7.78552e-14
8.08443e-14
8.37078e-14
8.64231e-14
8.89681e-14
9.13214e-14
9.34626e-14
9.53723e-14
9.70328e-14
9.84283e-14
9.95448e-14
1.00371e-13
1.00897e-13
1.01117e-13
1.01028e-13
1.00628e-13
9.99195e-14
9.89081e-14
9.76016e-14
9.6011e-14
9.41501e-14
9.20352e-14
8.96849e-14
8.71203e-14
8.43641e-14
8.14409e-14
7.83765e-14
7.51977e-14
7.19322e-14
6.86081e-14
6.52534e-14
6.18961e-14
5.85635e-14
5.52824e-14
5.20784e-14
4.89759e-14
4.59979e-14
4.31658e-14
4.04993e-14
3.80161e-14
3.57322e-14
3.36615e-14
3.18158e-14
3.02049e-14
2.88367e-14
2.77168e-14
2.68488e-14
2.62343e-14
2.58729e-14
2.57621e-14
2.58976e-14
2.62728e-14
2.68796e-14
2.77075e-14
2.87443e-14
2.9976e-14
3.13867e-14
3.29586e-14
3.46723e-14
3.65068e-14
3.84396e-14
4.04467e-14
4.25031e-14
4.45828e-14
4.66592e-14
4.87052e-14
5.06937e-14
5.25977e-14
5.43909e-14
5.6048e-14
5.7545e-14
5.88599e-14
5.99725e-14
6.08653e-14
6.15234e-14
6.19352e-14
6.20921e-14
6.19892e-14
6.1625e-14
6.10016e-14
6.01247e-14
5.90032e-14
5.76494e-14
5.60787e-14
5.43089e-14
5.23601e-14
5.02545e-14
4.80155e-14
4.56678e-14
4.32362e-14
4.07458e-14
3.82213e-14
3.56865e-14
3.31642e-14
3.06754e-14
2.82394e-14
2.58735e-14
2.35929e-14
2.14103e-14
1.93362e-14
1.73786e-14
1.55435e-14
1.38344e-14
1.2253e-14
1.0799e-14
9.47066e-15
8.2646e-15
7.17631e-15
6.20025e-15
5.33016e-15
4.55917e-15
3.88007e-15
3.28544e-15
2.76784e-15
2.31995e-15
1.93462e-15
1.60505e-15
1.32481e-15
1.08788e-15
8.88724e-16
7.22283e-16
5.83978e-16
4.6971e-16
3.7584e-16
2.99166e-16
2.36893e-16
1.86603e-16
1.46221e-16
1.13979e-16
8.83798e-17
6.81705e-17
5.23061e-17
3.99224e-17
3.03102e-17
2.2891e-17
1.71966e-17
1.28505e-17
9.55211e-18
7.06278e-18
5.19455e-18
3.80029e-18
2.76554e-18
2.00187e-18
1.44141e-18
1.03236e-18
7.3548e-19
5.21197e-19
3.67389e-19
2.57596e-19
1.7965e-19
1.24612e-19
8.59458e-20
5.89035e-20
4.00464e-20
2.68917e-20
1.76458e-20
1.10048e-20
6.00511e-21
1.90606e-21
9.16305e-21
2.80709e-20
4.87726e-20
7.26219e-20
1.01203e-19
1.36425e-19
1.80618e-19
2.36658e-19
3.08105e-19
3.99388e-19
5.1603e-19
6.64919e-19
8.54655e-19
1.09596e-18
1.40217e-18
1.78987e-18
2.27961e-18
2.89678e-18
3.67271e-18
4.64591e-18
5.86362e-18
7.38364e-18
9.27646e-18
1.16278e-17
1.45418e-17
1.81442e-17
2.25868e-17
2.80522e-17
3.47596e-17
4.29708e-17
5.29983e-17
6.52135e-17
8.00568e-17
9.80488e-17
1.19803e-16
1.4604e-16
1.77604e-16
2.15481e-16
2.60819e-16
3.14948e-16
3.79409e-16
4.55977e-16
5.46692e-16
6.53892e-16
7.80241e-16
9.28775e-16
1.10293e-15
1.30659e-15
1.54413e-15
1.82045e-15
2.14102e-15
2.51193e-15
2.93994e-15
3.4325e-15
3.9978e-15
4.6448e-15
5.3833e-15
6.22388e-15
7.17799e-15
8.25793e-15
9.47684e-15
1.08487e-14
1.23883e-14
1.4111e-14
1.60332e-14
1.81716e-14
2.05435e-14
2.31664e-14
2.60582e-14
2.92367e-14
3.27196e-14
3.6524e-14
4.06666e-14
4.51629e-14
5.00273e-14
5.52725e-14
6.09096e-14
6.6947e-14
7.33911e-14
8.02447e-14
8.75079e-14
9.51769e-14
1.03244e-13
1.11697e-13
1.20519e-13
1.2969e-13
1.39184e-13
1.48968e-13
1.59007e-13
1.6926e-13
1.79681e-13
1.90218e-13
2.00817e-13
2.11416e-13
2.21954e-13
2.32363e-13
2.42573e-13
2.52514e-13
2.62114e-13
2.71298e-13
2.79996e-13
2.88134e-13
2.95646e-13
3.02465e-13
3.08529e-13
3.13783e-13
3.18175e-13
3.21662e-13
3.24208e-13
3.25784e-13
3.2637e-13
3.25957e-13
3.24542e-13
3.22134e-13
3.18751e-13
3.1442e-13
3.09177e-13
3.03068e-13
2.96147e-13
2.88473e-13
2.80117e-13
2.71151e-13
2.61655e-13
2.51713e-13
2.41412e-13
2.30841e-13
2.20089e-13
2.09248e-13
1.98406e-13
1.87652e-13
1.77071e-13
1.66745e-13
1.56751e-13
1.47163e-13
1.38049e-13
1.29471e-13
1.21485e-13
1.14142e-13
1.07484e-13
1.0155e-13
9.63697e-14
9.19671e-14
8.83594e-14
8.55575e-14
8.35655e-14
8.23813e-14
8.19963e-14
8.23956e-14
8.35581e-14
8.54565e-14
8.80574e-14
9.13214e-14
9.52032e-14
9.96515e-14
1.0461e-13
1.10016e-13
1.15803e-13
1.21898e-13
1.28227e-13
1.34709e-13
1.41263e-13
1.47803e-13
1.54243e-13
1.60499e-13
1.66485e-13
1.72117e-13
1.77317e-13
1.82009e-13
1.86123e-13
1.89596e-13
1.92373e-13
1.94408e-13
1.95665e-13
1.96116e-13
1.95748e-13
1.94555e-13
1.92545e-13
1.89737e-13
1.86159e-13
1.8185e-13
1.76859e-13
1.71243e-13
1.65066e-13
1.58397e-13
1.51312e-13
1.43886e-13
1.362e-13
1.28331e-13
1.20359e-13
1.12358e-13
1.04398e-13
9.65474e-14
8.88658e-14
8.14077e-14
7.42203e-14
6.73437e-14
6.08106e-14
5.46462e-14
4.88686e-14
4.3489e-14
3.85125e-14
3.3938e-14
2.97595e-14
2.59664e-14
2.25443e-14
1.94757e-14
1.67406e-14
1.43175e-14
1.21835e-14
1.03153e-14
8.68926e-15
7.28241e-15
6.07226e-15
5.03735e-15
4.15743e-15
3.41361e-15
2.78845e-15
2.26604e-15
1.83199e-15
1.47341e-15
1.17886e-15
9.38299e-16
7.42937e-16
5.85182e-16
4.58517e-16
3.5739e-16
2.77107e-16
2.13731e-16
1.63984e-16
1.25154e-16
9.50159e-17
7.17552e-17
5.39032e-17
4.02788e-17
2.99392e-17
2.21361e-17
1.62803e-17
1.19102e-17
8.66702e-18
6.2736e-18
4.51709e-18
3.23516e-18
2.30477e-18
1.63325e-18
1.15126e-18
8.07198e-19
5.62946e-19
3.90477e-19
2.69315e-19
1.84576e-19
1.25487e-19
8.4267e-20
5.52946e-20
3.44849e-20
1.8818e-20
5.97313e-21
1.83086e-20
5.60873e-20
9.74473e-20
1.4509e-19
2.02179e-19
2.72519e-19
3.60761e-19
4.72639e-19
6.15253e-19
7.97434e-19
1.03019e-18
1.32724e-18
1.70573e-18
2.18701e-18
2.79767e-18
3.5707e-18
4.54701e-18
5.77716e-18
7.32348e-18
9.2626e-18
1.16885e-17
1.47161e-17
1.84855e-17
2.31672e-17
2.89679e-17
3.61376e-17
4.49779e-17
5.58511e-17
6.91922e-17
8.55209e-17
1.05457e-16
1.29737e-16
1.59234e-16
1.94979e-16
2.38188e-16
2.90288e-16
3.5295e-16
4.28123e-16
5.18079e-16
6.25448e-16
7.53273e-16
9.05061e-16
1.08484e-15
1.29722e-15
1.54746e-15
1.84153e-15
2.18622e-15
2.58916e-15
3.05896e-15
3.60526e-15
4.23879e-15
4.97154e-15
5.81674e-15
6.78901e-15
7.90439e-15
9.18045e-15
1.06363e-14
1.22926e-14
1.41718e-14
1.62977e-14
1.86961e-14
2.1394e-14
2.44202e-14
2.78047e-14
3.15789e-14
3.57753e-14
4.04272e-14
4.55684e-14
5.12333e-14
5.7456e-14
6.42703e-14
7.17089e-14
7.98032e-14
8.85827e-14
9.80743e-14
1.08302e-13
1.19285e-13
1.3104e-13
1.43576e-13
1.56899e-13
1.71006e-13
1.85888e-13
2.01529e-13
2.17904e-13
2.34979e-13
2.52712e-13
2.71049e-13
2.89929e-13
3.0928e-13
3.29021e-13
3.49061e-13
3.693e-13
3.8963e-13
4.09934e-13
4.30089e-13
4.49967e-13
4.69433e-13
4.88351e-13
5.0658e-13
5.23981e-13
5.40416e-13
5.5575e-13
5.69851e-13
5.82597e-13
5.93872e-13
6.03569e-13
6.11596e-13
6.17871e-13
6.22328e-13
6.24918e-13
6.25606e-13
6.24376e-13
6.2123e-13
6.16188e-13
6.09288e-13
6.00586e-13
5.90156e-13
5.78088e-13
5.64487e-13
5.49473e-13
5.3318e-13
5.1575e-13
4.97339e-13
4.78105e-13
4.58216e-13
4.37843e-13
4.17156e-13
3.96328e-13
3.75529e-13
3.54925e-13
3.34676e-13
3.14936e-13
2.95851e-13
2.77557e-13
2.60181e-13
2.43839e-13
2.28633e-13
2.14657e-13
2.01988e-13
1.90696e-13
1.80833e-13
1.72442e-13
1.65554e-13
1.60183e-13
1.56337e-13
1.54008e-13
1.53177e-13
1.53813e-13
1.55875e-13
1.59309e-13
1.64051e-13
1.70024e-13
1.77143e-13
1.8531e-13
1.94418e-13
2.04351e-13
2.14982e-13
2.26178e-13
2.37796e-13
2.49689e-13
2.61704e-13
2.73684e-13
2.8547e-13
2.96905e-13
3.07831e-13
3.18096e-13
3.27555e-13
3.36068e-13
3.43509e-13
3.49763e-13
3.5473e-13
3.58326e-13
3.60487e-13
3.61166e-13
3.60337e-13
3.57994e-13
3.54152e-13
3.48846e-13
3.42133e-13
3.34084e-13
3.24791e-13
3.14359e-13
3.02906e-13
2.90563e-13
2.77465e-13
2.63755e-13
2.49579e-13
2.35081e-13
2.20403e-13
2.05682e-13
1.9105e-13
1.76627e-13
1.62524e-13
1.48839e-13
1.35657e-13
1.23053e-13
1.11084e-13
9.9795e-14
8.92195e-14
7.93769e-14
7.02753e-14
6.19123e-14
5.42761e-14
4.73467e-14
4.10972e-14
3.54951e-14
3.05036e-14
2.60827e-14
2.21905e-14
1.87839e-14
1.58198e-14
1.32559e-14
1.10511e-14
9.16595e-15
7.56354e-15
6.20927e-15
5.0713e-15
4.12055e-15
3.33077e-15
2.67844e-15
2.1427e-15
1.70522e-15
1.35001e-15
1.06322e-15
8.32983e-16
6.49193e-16
5.03307e-16
3.88159e-16
2.97784e-16
2.27251e-16
1.72512e-16
1.30269e-16
9.7852e-17
7.31142e-17
5.43421e-17
4.01764e-17
2.95465e-17
2.16143e-17
1.5728e-17
1.13842e-17
8.19647e-18
5.87015e-18
4.18185e-18
2.96335e-18
2.08878e-18
1.46452e-18
1.02135e-18
7.08436e-19
4.88612e-19
3.34874e-19
2.27671e-19
1.52887e-19
1.00323e-19
6.25686e-20
3.41437e-20
1.0838e-20
3.28998e-20
1.00784e-19
1.75097e-19
2.60686e-19
3.63224e-19
4.89538e-19
6.47968e-19
8.48789e-19
1.10473e-18
1.43161e-18
1.84915e-18
2.38194e-18
3.06066e-18
3.92353e-18
5.01811e-18
6.40348e-18
8.15278e-18
1.03564e-17
1.31259e-17
1.6598e-17
2.09408e-17
2.63594e-17
3.31042e-17
4.14793e-17
5.18536e-17
6.46731e-17
8.04754e-17
9.99066e-17
1.23742e-16
1.52906e-16
1.88503e-16
2.31844e-16
2.84482e-16
3.4825e-16
4.25309e-16
5.18193e-16
6.29869e-16
7.63799e-16
9.24008e-16
1.11516e-15
1.34265e-15
1.61268e-15
1.93238e-15
2.3099e-15
2.75453e-15
3.27683e-15
3.88876e-15
4.60378e-15
5.43706e-15
6.40556e-15
7.52818e-15
8.82595e-15
1.03221e-14
1.20423e-14
1.40146e-14
1.62698e-14
1.88413e-14
2.17651e-14
2.50804e-14
2.88287e-14
3.30546e-14
3.78053e-14
4.31305e-14
4.90821e-14
5.57144e-14
6.30832e-14
7.12458e-14
8.02603e-14
9.01853e-14
1.01079e-13
1.12998e-13
1.25999e-13
1.40133e-13
1.55451e-13
1.71995e-13
1.89806e-13
2.08915e-13
2.29346e-13
2.51113e-13
2.74222e-13
2.98665e-13
3.24423e-13
3.51464e-13
3.7974e-13
4.09189e-13
4.39733e-13
4.71278e-13
5.03713e-13
5.3691e-13
5.70725e-13
6.05e-13
6.39559e-13
6.74213e-13
7.0876e-13
7.42987e-13
7.76672e-13
8.09584e-13
8.41488e-13
8.72146e-13
9.01321e-13
9.2878e-13
9.54293e-13
9.77642e-13
9.9862e-13
1.01703e-12
1.03271e-12
1.0455e-12
1.05527e-12
1.06192e-12
1.06537e-12
1.06556e-12
1.06249e-12
1.05617e-12
1.04663e-12
1.03395e-12
1.01824e-12
9.99631e-13
9.78281e-13
9.54378e-13
9.28132e-13
8.99773e-13
8.6955e-13
8.37728e-13
8.04581e-13
7.70394e-13
7.35455e-13
7.00055e-13
6.64483e-13
6.29024e-13
5.93955e-13
5.59545e-13
5.26048e-13
4.93704e-13
4.62739e-13
4.33358e-13
4.05749e-13
3.80081e-13
3.56499e-13
3.35132e-13
3.16083e-13
2.99437e-13
2.85258e-13
2.73587e-13
2.64447e-13
2.5784e-13
2.53747e-13
2.52132e-13
2.52938e-13
2.56091e-13
2.61496e-13
2.69044e-13
2.78603e-13
2.9003e-13
3.0316e-13
3.17815e-13
3.338e-13
3.50908e-13
3.68917e-13
3.87594e-13
4.06697e-13
4.25977e-13
4.45178e-13
4.64044e-13
4.82317e-13
4.99745e-13
5.16083e-13
5.31094e-13
5.4456e-13
5.56277e-13
5.66062e-13
5.73758e-13
5.79234e-13
5.82388e-13
5.8315e-13
5.81481e-13
5.77376e-13
5.70865e-13
5.62006e-13
5.50894e-13
5.37649e-13
5.22421e-13
5.05382e-13
4.86724e-13
4.66657e-13
4.45403e-13
4.23191e-13
4.00256e-13
3.76829e-13
3.53139e-13
3.29405e-13
3.05837e-13
2.82626e-13
2.59948e-13
2.3796e-13
2.16798e-13
1.96575e-13
1.77385e-13
1.59298e-13
1.42364e-13
1.26612e-13
1.12054e-13
9.86849e-14
8.64838e-14
7.54174e-14
6.54416e-14
5.65033e-14
4.85426e-14
4.14949e-14
3.52925e-14
2.98661e-14
2.51465e-14
2.10654e-14
1.75571e-14
1.45586e-14
1.20105e-14
9.85774e-15
8.04931e-15
6.53885e-15
5.28445e-15
4.24864e-15
3.39819e-15
2.70388e-15
2.14025e-15
1.6853e-15
1.32014e-15
1.02871e-15
7.97422e-16
6.149e-16
4.71671e-16
3.59906e-16
2.73182e-16
2.06265e-16
1.54921e-16
1.15744e-16
8.60191e-17
6.35908e-17
4.67623e-17
3.42058e-17
2.48888e-17
1.80139e-17
1.29691e-17
9.28782e-18
6.61631e-18
4.68831e-18
3.30456e-18
2.3169e-18
1.61578e-18
1.12073e-18
7.72973e-19
5.29763e-19
3.60174e-19
2.4187e-19
1.58717e-19
9.89895e-20
5.402e-20
1.71475e-20
5.7125e-20
1.7499e-19
3.04003e-19
4.52568e-19
6.30516e-19
8.49676e-19
1.1245e-18
1.47277e-18
1.91653e-18
2.48317e-18
3.2068e-18
4.12997e-18
5.30573e-18
6.80017e-18
8.69551e-18
1.10938e-17
1.41214e-17
1.79346e-17
2.27255e-17
2.87306e-17
3.62397e-17
4.56066e-17
5.72629e-17
7.17329e-17
8.96521e-17
1.11789e-16
1.39068e-16
1.72602e-16
2.13723e-16
2.64024e-16
3.254e-16
4.00103e-16
4.90801e-16
6.00639e-16
7.33323e-16
8.93198e-16
1.08535e-15
1.3157e-15
1.59114e-15
1.91965e-15
2.31045e-15
2.77413e-15
3.32286e-15
3.97054e-15
4.73302e-15
5.62826e-15
6.67661e-15
7.90098e-15
9.32711e-15
1.09838e-14
1.29031e-14
1.51205e-14
1.76756e-14
2.06114e-14
2.39756e-14
2.78198e-14
3.22004e-14
3.71781e-14
4.28182e-14
4.91908e-14
5.63703e-14
6.44355e-14
7.34692e-14
8.3558e-14
9.47918e-14
1.07263e-13
1.21066e-13
1.36297e-13
1.53052e-13
1.71426e-13
1.91511e-13
2.13397e-13
2.3717e-13
2.62906e-13
2.90677e-13
3.20541e-13
3.52548e-13
3.8673e-13
4.23108e-13
4.61682e-13
5.02434e-13
5.45325e-13
5.90295e-13
6.37255e-13
6.86097e-13
7.36683e-13
7.88848e-13
8.42402e-13
8.97127e-13
9.52778e-13
1.00908e-12
1.06575e-12
1.12246e-12
1.17888e-12
1.23465e-12
1.2894e-12
1.34275e-12
1.39432e-12
1.44371e-12
1.49055e-12
1.53444e-12
1.57503e-12
1.61195e-12
1.64488e-12
1.67352e-12
1.6976e-12
1.71686e-12
1.73113e-12
1.74024e-12
1.74408e-12
1.74259e-12
1.73576e-12
1.72362e-12
1.70626e-12
1.68383e-12
1.6565e-12
1.6245e-12
1.58813e-12
1.54769e-12
1.50353e-12
1.45604e-12
1.40564e-12
1.35276e-12
1.29785e-12
1.24138e-12
1.18382e-12
1.12564e-12
1.0673e-12
1.00926e-12
9.51972e-13
8.95856e-13
8.41316e-13
7.88733e-13
7.38458e-13
6.90813e-13
6.46088e-13
6.04541e-13
5.66397e-13
5.31845e-13
5.01041e-13
4.74107e-13
4.51132e-13
4.3217e-13
4.17244e-13
4.06346e-13
3.99436e-13
3.96443e-13
3.97269e-13
4.01784e-13
4.09832e-13
4.2123e-13
4.35766e-13
4.53204e-13
4.73281e-13
4.95712e-13
5.20188e-13
5.4638e-13
5.73939e-13
6.025e-13
6.31685e-13
6.61105e-13
6.90364e-13
7.19065e-13
7.46812e-13
7.73215e-13
7.979e-13
8.20507e-13
8.407e-13
8.58173e-13
8.7265e-13
8.83895e-13
8.91714e-13
8.95956e-13
8.96522e-13
8.9336e-13
8.8647e-13
8.75903e-13
8.61758e-13
8.44185e-13
8.23375e-13
7.99561e-13
7.73014e-13
7.44031e-13
7.12936e-13
6.80071e-13
6.45789e-13
6.10447e-13
5.74401e-13
5.37998e-13
5.01574e-13
4.65444e-13
4.29899e-13
3.95205e-13
3.61598e-13
3.29281e-13
2.98424e-13
2.69166e-13
2.41611e-13
2.1583e-13
1.91866e-13
1.69733e-13
1.4942e-13
1.30893e-13
1.14099e-13
9.89688e-14
8.54191e-14
7.33578e-14
6.2685e-14
5.32969e-14
4.50871e-14
3.79497e-14
3.17808e-14
2.64798e-14
2.19509e-14
1.81039e-14
1.48548e-14
1.21264e-14
9.84832e-15
7.95707e-15
6.39587e-15
5.11443e-15
4.06857e-15
3.21979e-15
2.53485e-15
1.98524e-15
1.54669e-15
1.19874e-15
9.24204e-16
7.08817e-16
5.40779e-16
4.10414e-16
3.09841e-16
2.32685e-16
1.73824e-16
1.29169e-16
9.54803e-17
7.02063e-17
5.13503e-17
3.73606e-17
2.70389e-17
1.94655e-17
1.39395e-17
9.92951e-18
7.03576e-18
4.95902e-18
3.47678e-18
2.42463e-18
1.68175e-18
1.1599e-18
7.94952e-19
5.40476e-19
3.62957e-19
2.38181e-19
1.48555e-19
8.10709e-20
2.57348e-20
9.77745e-20
2.99503e-19
5.20285e-19
7.74483e-19
1.07889e-18
1.45372e-18
1.92362e-18
2.51897e-18
3.27738e-18
4.24558e-18
5.48173e-18
7.05839e-18
9.06599e-18
1.16172e-17
1.4852e-17
1.89442e-17
2.41091e-17
3.06123e-17
3.87812e-17
4.90179e-17
6.18148e-17
7.77737e-17
9.76278e-17
1.22268e-16
1.52772e-16
1.90445e-16
2.36857e-16
2.93893e-16
3.63812e-16
4.49311e-16
5.53601e-16
6.80495e-16
8.34503e-16
1.02095e-15
1.24609e-15
1.51727e-15
1.84307e-15
2.23349e-15
2.70015e-15
3.25648e-15
3.918e-15
4.70256e-15
5.63061e-15
6.7255e-15
8.01383e-15
9.52576e-15
1.12954e-14
1.3361e-14
1.57658e-14
1.85578e-14
2.17905e-14
2.55234e-14
2.98219e-14
3.47581e-14
4.04109e-14
4.68663e-14
5.42173e-14
6.25647e-14
7.20165e-14
8.26881e-14
9.47021e-14
1.08188e-13
1.23282e-13
1.40125e-13
1.58864e-13
1.7965e-13
2.02637e-13
2.27978e-13
2.5583e-13
2.86344e-13
3.19669e-13
3.55947e-13
3.95311e-13
4.37883e-13
4.83771e-13
5.33065e-13
5.85834e-13
6.42127e-13
7.01962e-13
7.65333e-13
8.32197e-13
9.02479e-13
9.76065e-13
1.0528e-12
1.1325e-12
1.21492e-12
1.29977e-12
1.38675e-12
1.47547e-12
1.56554e-12
1.65649e-12
1.74784e-12
1.83907e-12
1.92963e-12
2.01892e-12
2.10636e-12
2.19132e-12
2.27318e-12
2.35131e-12
2.42509e-12
2.49393e-12
2.55722e-12
2.61443e-12
2.66503e-12
2.70855e-12
2.74457e-12
2.77274e-12
2.79277e-12
2.80442e-12
2.80754e-12
2.80208e-12
2.78803e-12
2.76548e-12
2.73461e-12
2.69566e-12
2.64896e-12
2.59491e-12
2.53398e-12
2.46668e-12
2.39362e-12
2.31542e-12
2.23276e-12
2.14634e-12
2.0569e-12
1.96519e-12
1.87194e-12
1.77792e-12
1.68386e-12
1.59049e-12
1.4985e-12
1.40855e-12
1.32127e-12
1.23726e-12
1.15705e-12
1.08113e-12
1.00994e-12
9.43868e-13
8.83248e-13
8.28357e-13
7.79419e-13
7.36603e-13
7.00028e-13
6.69759e-13
6.45812e-13
6.28152e-13
6.16699e-13
6.11326e-13
6.1186e-13
6.18087e-13
6.29748e-13
6.46546e-13
6.68141e-13
6.94158e-13
7.24182e-13
7.57764e-13
7.94425e-13
8.33653e-13
8.7491e-13
9.17634e-13
9.61246e-13
1.00515e-12
1.04875e-12
1.09144e-12
1.13263e-12
1.17172e-12
1.20816e-12
1.2414e-12
1.27095e-12
1.29636e-12
1.31722e-12
1.33318e-12
1.34397e-12
1.34936e-12
1.34923e-12
1.3435e-12
1.33218e-12
1.31537e-12
1.29323e-12
1.26599e-12
1.23394e-12
1.19745e-12
1.15693e-12
1.11283e-12
1.06564e-12
1.01587e-12
9.64062e-13
9.10745e-13
8.56451e-13
8.01699e-13
7.46987e-13
6.92782e-13
6.39517e-13
5.87583e-13
5.37326e-13
4.89044e-13
4.42987e-13
3.99352e-13
3.5829e-13
3.19903e-13
2.84249e-13
2.51342e-13
2.21161e-13
1.93653e-13
1.68734e-13
1.46296e-13
1.26215e-13
1.08349e-13
9.25497e-14
7.86588e-14
6.65178e-14
5.59679e-14
4.68537e-14
3.90254e-14
3.23402e-14
2.6664e-14
2.18719e-14
1.78495e-14
1.44921e-14
1.17059e-14
9.40668e-15
7.52011e-15
5.98085e-15
4.73204e-15
3.72458e-15
2.91638e-15
2.27168e-15
1.76029e-15
1.3569e-15
1.04049e-15
7.93694e-16
6.02266e-16
4.54613e-16
3.4136e-16
2.54975e-16
1.8945e-16
1.40024e-16
1.02949e-16
7.52921e-17
5.47753e-17
3.96393e-17
2.85348e-17
2.04329e-17
1.45542e-17
1.03123e-17
7.26815e-18
5.09558e-18
3.55347e-18
2.4647e-18
1.6999e-18
1.16505e-18
7.92112e-19
5.31955e-19
3.49093e-19
2.17739e-19
1.1883e-19
3.77217e-20
1.6598e-19
5.08416e-19
8.83151e-19
1.31453e-18
1.831e-18
2.4668e-18
3.26367e-18
4.27306e-18
5.5586e-18
7.19934e-18
9.29371e-18
1.19644e-17
1.53642e-17
1.96837e-17
2.51593e-17
3.20847e-17
4.08232e-17
5.18235e-17
6.56378e-17
8.29445e-17
1.04574e-16
1.31541e-16
1.65081e-16
2.06694e-16
2.58198e-16
3.21785e-16
4.00099e-16
4.96312e-16
6.1422e-16
7.58355e-16
9.34112e-16
1.14789e-15
1.40726e-15
1.72114e-15
2.10003e-15
2.55623e-15
3.1041e-15
3.76038e-15
4.54449e-15
5.47889e-15
6.58949e-15
7.90607e-15
9.46274e-15
1.12984e-14
1.34574e-14
1.59898e-14
1.89523e-14
2.24086e-14
2.64302e-14
3.10967e-14
3.64969e-14
4.2729e-14
4.99011e-14
5.81322e-14
6.75522e-14
7.83027e-14
9.05367e-14
1.04419e-13
1.20128e-13
1.37851e-13
1.57788e-13
1.80151e-13
2.05161e-13
2.33047e-13
2.64047e-13
2.98404e-13
3.36366e-13
3.78179e-13
4.24091e-13
4.74346e-13
5.29177e-13
5.88807e-13
6.53445e-13
7.23277e-13
7.98466e-13
8.79147e-13
9.65419e-13
1.05734e-12
1.15493e-12
1.25816e-12
1.36694e-12
1.48113e-12
1.60052e-12
1.72484e-12
1.85377e-12
1.9869e-12
2.12375e-12
2.26378e-12
2.40638e-12
2.55086e-12
2.69649e-12
2.84247e-12
2.98793e-12
3.13197e-12
3.27365e-12
3.41201e-12
3.54605e-12
3.67476e-12
3.79716e-12
3.91226e-12
4.0191e-12
4.11677e-12
4.20441e-12
4.28121e-12
4.34646e-12
4.39951e-12
4.43985e-12
4.46703e-12
4.48074e-12
4.4808e-12
4.46713e-12
4.43979e-12
4.39898e-12
4.345e-12
4.27831e-12
4.19946e-12
4.10912e-12
4.00808e-12
3.89722e-12
3.77748e-12
3.64991e-12
3.51558e-12
3.37565e-12
3.23128e-12
3.08365e-12
2.93396e-12
2.78338e-12
2.63308e-12
2.48418e-12
2.33777e-12
2.19488e-12
2.05646e-12
1.92343e-12
1.79659e-12
1.67669e-12
1.56438e-12
1.46024e-12
1.36476e-12
1.27834e-12
1.20129e-12
1.13384e-12
1.07614e-12
1.02826e-12
9.90189e-13
9.61849e-13
9.43084e-13
9.33668e-13
9.33309e-13
9.41652e-13
9.58277e-13
9.82705e-13
1.0144e-12
1.05276e-12
1.09715e-12
1.14687e-12
1.20118e-12
1.25929e-12
1.32038e-12
1.38359e-12
1.44804e-12
1.51285e-12
1.5771e-12
1.63988e-12
1.70032e-12
1.75753e-12
1.81069e-12
1.85899e-12
1.90171e-12
1.93818e-12
1.9678e-12
1.99009e-12
2.00464e-12
2.01114e-12
2.00942e-12
1.99938e-12
1.98108e-12
1.95465e-12
1.92036e-12
1.87857e-12
1.82973e-12
1.77439e-12
1.71317e-12
1.64675e-12
1.57587e-12
1.50129e-12
1.42381e-12
1.34421e-12
1.26328e-12
1.1818e-12
1.10048e-12
1.02002e-12
9.4104e-13
8.64123e-13
7.89768e-13
7.18406e-13
6.50395e-13
5.86019e-13
5.25491e-13
4.68951e-13
4.16476e-13
3.68082e-13
3.2373e-13
2.83332e-13
2.4676e-13
2.13853e-13
1.84418e-13
1.58248e-13
1.35117e-13
1.14791e-13
9.70354e-14
8.16147e-14
6.82991e-14
5.68676e-14
4.71099e-14
3.88284e-14
3.184e-14
2.59762e-14
2.1084e-14
1.70255e-14
1.36777e-14
1.09316e-14
8.69186e-15
6.87531e-15
5.41027e-15
4.23535e-15
3.29837e-15
2.55533e-15
1.96937e-15
1.50987e-15
1.15154e-15
8.73662e-16
6.59372e-16
4.95038e-16
3.69713e-16
2.74668e-16
2.02987e-16
1.49224e-16
1.09125e-16
7.9382e-17
5.7442e-17
4.13473e-17
2.96057e-17
2.10869e-17
1.49402e-17
1.05296e-17
7.38191e-18
5.14777e-18
3.57047e-18
2.46254e-18
1.68775e-18
1.14751e-18
7.70646e-19
5.05749e-19
3.15461e-19
1.72167e-19
5.46544e-20
2.79994e-19
8.57631e-19
1.48968e-18
2.21713e-18
3.08791e-18
4.1596e-18
5.50249e-18
7.2031e-18
9.36846e-18
1.21315e-17
1.56577e-17
2.01531e-17
2.58747e-17
3.31421e-17
4.23528e-17
5.39994e-17
6.86919e-17
8.71826e-17
1.10398e-16
1.39475e-16
1.75805e-16
2.21089e-16
2.77395e-16
3.47236e-16
4.33651e-16
5.40312e-16
6.71636e-16
8.32924e-16
1.03052e-15
1.272e-15
1.56635e-15
1.92427e-15
2.35836e-15
2.88351e-15
3.5172e-15
4.2799e-15
5.19552e-15
6.29189e-15
7.60127e-15
9.16098e-15
1.1014e-14
1.32098e-14
1.58048e-14
1.88635e-14
2.24592e-14
2.66748e-14
3.16039e-14
3.73517e-14
4.4036e-14
5.17881e-14
6.07539e-14
7.10948e-14
8.29885e-14
9.66302e-14
1.12233e-13
1.30027e-13
1.50264e-13
1.73213e-13
1.99161e-13
2.28416e-13
2.61303e-13
2.98163e-13
3.39354e-13
3.85246e-13
4.3622e-13
4.92667e-13
5.54982e-13
6.2356e-13
6.98793e-13
7.81064e-13
8.70741e-13
9.68172e-13
1.07368e-12
1.18754e-12
1.31001e-12
1.44128e-12
1.58149e-12
1.73071e-12
1.88894e-12
2.05609e-12
2.23202e-12
2.41644e-12
2.60901e-12
2.80925e-12
3.0166e-12
3.23037e-12
3.44977e-12
3.67389e-12
3.90172e-12
4.13214e-12
4.36393e-12
4.59579e-12
4.82633e-12
5.05408e-12
5.27754e-12
5.49513e-12
5.70529e-12
5.90642e-12
6.09694e-12
6.2753e-12
6.44001e-12
6.58964e-12
6.72285e-12
6.83843e-12
6.93527e-12
7.01242e-12
7.06909e-12
7.10467e-12
7.11874e-12
7.11105e-12
7.08157e-12
7.03048e-12
6.95814e-12
6.86513e-12
6.75222e-12
6.62036e-12
6.47069e-12
6.30449e-12
6.12319e-12
5.92836e-12
5.72166e-12
5.50483e-12
5.27971e-12
5.04814e-12
4.81199e-12
4.57315e-12
4.33346e-12
4.09473e-12
3.85871e-12
3.62708e-12
3.4014e-12
3.18315e-12
2.9737e-12
2.77429e-12
2.58602e-12
2.40987e-12
2.24667e-12
2.09715e-12
1.96185e-12
1.84123e-12
1.73558e-12
1.64508e-12
1.56979e-12
1.50965e-12
1.46448e-12
1.434e-12
1.41782e-12
1.41546e-12
1.42632e-12
1.44974e-12
1.48496e-12
1.53111e-12
1.58728e-12
1.65247e-12
1.72559e-12
1.80551e-12
1.89103e-12
1.9809e-12
2.07382e-12
2.16847e-12
2.26351e-12
2.35757e-12
2.44932e-12
2.53743e-12
2.62061e-12
2.69763e-12
2.76732e-12
2.82862e-12
2.88054e-12
2.92225e-12
2.95302e-12
2.9723e-12
2.97965e-12
2.97483e-12
2.95775e-12
2.92849e-12
2.8873e-12
2.83459e-12
2.77091e-12
2.69696e-12
2.61356e-12
2.52165e-12
2.42224e-12
2.31642e-12
2.20534e-12
2.09015e-12
1.97204e-12
1.85214e-12
1.73159e-12
1.61146e-12
1.49273e-12
1.37634e-12
1.26311e-12
1.15377e-12
1.04893e-12
9.49104e-13
8.54702e-13
7.66018e-13
6.83246e-13
6.06485e-13
5.35747e-13
4.70964e-13
4.11998e-13
3.58653e-13
3.10683e-13
2.67804e-13
2.29702e-13
1.96045e-13
1.66486e-13
1.40679e-13
1.18277e-13
9.89434e-14
8.23532e-14
6.81986e-14
5.6191e-14
4.60626e-14
3.75676e-14
3.04831e-14
2.46082e-14
1.97637e-14
1.57915e-14
1.25527e-14
9.92676e-15
7.80963e-15
6.11226e-15
4.75902e-15
3.68616e-15
2.84034e-15
2.17721e-15
1.66021e-15
1.25937e-15
9.50327e-16
7.13374e-16
5.32702e-16
3.95706e-16
2.92402e-16
2.14934e-16
1.57162e-16
1.14315e-16
8.27136e-17
5.95338e-17
4.26249e-17
3.03582e-17
2.15081e-17
1.51579e-17
1.06264e-17
7.41012e-18
5.13956e-18
3.54472e-18
2.42945e-18
1.65182e-18
1.10936e-18
7.2806e-19
4.54144e-19
2.47864e-19
7.86859e-20
4.69638e-19
1.43848e-18
2.49845e-18
3.71821e-18
5.17799e-18
6.97416e-18
9.22434e-18
1.20732e-17
1.56999e-17
2.03265e-17
2.62296e-17
3.37538e-17
4.3328e-17
5.54863e-17
7.08921e-17
9.0368e-17
1.14931e-16
1.45838e-16
1.84631e-16
2.33208e-16
2.93888e-16
3.69503e-16
4.63497e-16
5.80054e-16
7.24233e-16
9.02141e-16
1.12112e-15
1.38999e-15
1.71929e-15
2.12159e-15
2.61182e-15
3.20772e-15
3.9302e-15
4.80394e-15
5.85789e-15
7.12595e-15
8.64769e-15
1.04691e-14
1.26436e-14
1.52327e-14
1.83075e-14
2.19495e-14
2.62517e-14
3.13204e-14
3.72761e-14
4.42553e-14
5.24118e-14
6.19182e-14
7.29677e-14
8.57755e-14
1.0058e-13
1.17646e-13
1.37264e-13
1.59751e-13
1.85454e-13
2.1475e-13
2.48046e-13
2.85778e-13
3.28413e-13
3.76448e-13
4.30406e-13
4.90839e-13
5.58321e-13
6.33446e-13
7.16824e-13
8.09079e-13
9.10836e-13
1.02272e-12
1.14536e-12
1.27935e-12
1.42526e-12
1.58363e-12
1.75495e-12
1.93967e-12
2.13813e-12
2.35062e-12
2.57732e-12
2.81832e-12
3.07356e-12
3.34289e-12
3.62597e-12
3.92234e-12
4.23138e-12
4.55229e-12
4.8841e-12
5.22566e-12
5.57566e-12
5.93261e-12
6.29482e-12
6.66048e-12
7.02761e-12
7.39408e-12
7.75766e-12
8.11599e-12
8.46666e-12
8.80717e-12
9.13502e-12
9.44769e-12
9.7427e-12
1.00176e-11
1.02701e-11
1.0498e-11
1.06992e-11
1.08718e-11
1.10143e-11
1.11251e-11
1.12032e-11
1.12476e-11
1.12578e-11
1.12336e-11
1.1175e-11
1.10824e-11
1.09564e-11
1.07982e-11
1.0609e-11
1.03904e-11
1.01443e-11
9.87278e-12
9.57825e-12
9.26318e-12
8.93025e-12
8.58224e-12
8.22206e-12
7.85261e-12
7.47686e-12
7.09773e-12
6.71811e-12
6.3408e-12
5.9685e-12
5.60378e-12
5.24905e-12
4.90655e-12
4.57834e-12
4.26627e-12
3.972e-12
3.69696e-12
3.44238e-12
3.20927e-12
2.99842e-12
2.81044e-12
2.64571e-12
2.50442e-12
2.3866e-12
2.29207e-12
2.22048e-12
2.17134e-12
2.144e-12
2.13764e-12
2.15132e-12
2.18397e-12
2.23436e-12
2.30119e-12
2.383e-12
2.47824e-12
2.58526e-12
2.70233e-12
2.82761e-12
2.95922e-12
3.0952e-12
3.23358e-12
3.37233e-12
3.50944e-12
3.64292e-12
3.77079e-12
3.89117e-12
4.00225e-12
4.10231e-12
4.18981e-12
4.26334e-12
4.32168e-12
4.3638e-12
4.3889e-12
4.39641e-12
4.38599e-12
4.35757e-12
4.31129e-12
4.24756e-12
4.16702e-12
4.07051e-12
3.9591e-12
3.83401e-12
3.69665e-12
3.54852e-12
3.39124e-12
3.2265e-12
3.056e-12
2.88146e-12
2.70458e-12
2.52698e-12
2.35023e-12
2.17578e-12
2.00495e-12
1.83894e-12
1.6788e-12
1.5254e-12
1.37948e-12
1.2416e-12
1.11219e-12
9.91499e-13
8.79663e-13
7.7668e-13
6.82433e-13
5.9671e-13
5.19209e-13
4.49563e-13
3.87346e-13
3.32095e-13
2.83316e-13
2.40502e-13
2.03141e-13
1.70727e-13
1.42767e-13
1.18786e-13
9.8335e-14
8.09939e-14
6.6373e-14
5.41153e-14
4.38968e-14
3.54262e-14
2.8444e-14
2.27209e-14
1.80562e-14
1.42754e-14
1.12281e-14
8.78575e-15
6.8391e-15
5.29621e-15
4.08013e-15
3.12696e-15
2.38401e-15
1.80812e-15
1.3642e-15
1.0239e-15
7.64476e-16
5.67801e-16
4.19519e-16
3.08339e-16
2.25438e-16
1.63963e-16
1.18627e-16
8.53761e-17
6.11235e-17
4.35308e-17
3.08391e-17
2.17331e-17
1.52354e-17
1.06239e-17
7.36851e-18
5.08199e-18
3.48307e-18
2.36822e-18
1.59053e-18
1.04388e-18
6.51167e-19
3.55407e-19
1.12829e-19
7.83389e-19
2.39942e-18
4.16725e-18
6.20123e-18
8.63493e-18
1.16288e-17
1.53785e-17
2.01248e-17
2.61655e-17
3.38701e-17
4.36982e-17
5.62225e-17
7.21559e-17
9.23852e-17
1.18012e-16
1.50402e-16
1.91244e-16
2.42621e-16
3.07093e-16
3.87806e-16
4.88603e-16
6.14177e-16
7.70235e-16
9.63703e-16
1.20296e-15
1.4981e-15
1.86127e-15
2.30706e-15
2.85288e-15
3.51949e-15
4.33157e-15
5.31836e-15
6.51438e-15
7.96031e-15
9.70386e-15
1.18009e-14
1.43165e-14
1.73264e-14
2.09183e-14
2.51935e-14
3.02685e-14
3.62771e-14
4.3372e-14
5.17272e-14
6.15402e-14
7.30341e-14
8.64603e-14
1.02101e-13
1.20271e-13
1.41322e-13
1.65641e-13
1.9366e-13
2.25849e-13
2.62725e-13
3.04851e-13
3.52835e-13
4.07335e-13
4.69057e-13
5.38753e-13
6.17221e-13
7.05305e-13
8.03886e-13
9.13883e-13
1.03625e-12
1.17194e-12
1.32197e-12
1.48731e-12
1.66895e-12
1.86787e-12
2.085e-12
2.32124e-12
2.57742e-12
2.85427e-12
3.15246e-12
3.47251e-12
3.81482e-12
4.17963e-12
4.56699e-12
4.97678e-12
5.40865e-12
5.86202e-12
6.33606e-12
6.8297e-12
7.34159e-12
7.8701e-12
8.41334e-12
8.96912e-12
9.53498e-12
1.01082e-11
1.06858e-11
1.12647e-11
1.18413e-11
1.24121e-11
1.29733e-11
1.35211e-11
1.40515e-11
1.45606e-11
1.50444e-11
1.5499e-11
1.59207e-11
1.63058e-11
1.66509e-11
1.6953e-11
1.72091e-11
1.74168e-11
1.7574e-11
1.7679e-11
1.77307e-11
1.77283e-11
1.76716e-11
1.75609e-11
1.73969e-11
1.71809e-11
1.69147e-11
1.66005e-11
1.6241e-11
1.58393e-11
1.53988e-11
1.49232e-11
1.44166e-11
1.38833e-11
1.33277e-11
1.27544e-11
1.21679e-11
1.15729e-11
1.0974e-11
1.03755e-11
9.78191e-12
9.19728e-12
8.62554e-12
8.07039e-12
7.53519e-12
7.02305e-12
6.53673e-12
6.07868e-12
5.651e-12
5.25547e-12
4.89352e-12
4.56627e-12
4.2745e-12
4.0187e-12
3.79904e-12
3.61544e-12
3.46752e-12
3.35465e-12