/*--------------------------------*- C++ -*----------------------------------*\
| =========                 |                                                 |
| \\      /  F ield         | OpenFOAM: The Open Source CFD Toolbox           |
|  \\    /   O peration     | Version:  v2012                                 |
|   \\  /    A nd           | Website:  www.openfoam.com                      |
|    \\/     M anipulation  |                                                 |
\*---------------------------------------------------------------------------*/
FoamFile
{
    version     2.0;
    format      ascii;
    class       surfaceScalarField;
    location    "17.5";
    object      phi;
}
// * * * * * * * * * * * * * * * * * * * * * * * * * * * * * * * * * * * * * //

dimensions      [0 3 -1 0 0 0 0];
oriented        oriented;


internalField   nonuniform List<scalar> 
130560
(
3.28035e-06
-3.28035e-06
6.56088e-06
-3.28053e-06
9.84175e-06
-3.28086e-06
1.31231e-05
-3.28137e-06
1.64052e-05
-3.28204e-06
1.9688e-05
-3.28287e-06
2.29719e-05
-3.28387e-06
2.62569e-05
-3.28503e-06
2.95433e-05
-3.28635e-06
3.28311e-05
-3.28782e-06
3.61205e-05
-3.28944e-06
3.94117e-05
-3.29121e-06
4.27049e-05
-3.29313e-06
4.60001e-05
-3.29518e-06
4.92974e-05
-3.29737e-06
5.25971e-05
-3.29968e-06
5.58992e-05
-3.30212e-06
5.92039e-05
-3.30467e-06
6.25112e-05
-3.30733e-06
6.58213e-05
-3.3101e-06
6.91343e-05
-3.31295e-06
7.24502e-05
-3.3159e-06
7.57691e-05
-3.31892e-06
7.90911e-05
-3.32201e-06
8.24163e-05
-3.32515e-06
8.57446e-05
-3.32835e-06
8.90762e-05
-3.33158e-06
9.2411e-05
-3.33484e-06
9.57491e-05
-3.33811e-06
9.90905e-05
-3.34138e-06
0.000102435
-3.34464e-06
0.000105783
-3.34788e-06
0.000109134
-3.35108e-06
0.000112488
-3.35422e-06
0.000115846
-3.3573e-06
0.000119206
-3.36029e-06
0.000122569
-3.36318e-06
0.000125935
-3.36595e-06
0.000129304
-3.36858e-06
0.000132675
-3.37106e-06
0.000136048
-3.37336e-06
0.000139424
-3.37547e-06
0.000142801
-3.37736e-06
0.00014618
-3.37902e-06
0.00014956
-3.38042e-06
0.000152942
-3.38154e-06
0.000156324
-3.38235e-06
0.000159707
-3.38283e-06
0.00016309
-3.38296e-06
0.000166473
-3.38272e-06
0.000169855
-3.38206e-06
0.000173236
-3.38098e-06
0.000176615
-3.37944e-06
0.000179993
-3.37741e-06
0.000183367
-3.37486e-06
0.000186739
-3.37177e-06
0.000190107
-3.3681e-06
0.000193471
-3.36383e-06
0.00019683
-3.35892e-06
0.000200183
-3.35335e-06
0.000203531
-3.34707e-06
0.000206871
-3.34006e-06
0.000210203
-3.33228e-06
0.000213527
-3.32371e-06
0.000216841
-3.3143e-06
0.000220145
-3.30403e-06
0.000223438
-3.29285e-06
0.000226718
-3.28074e-06
0.000229986
-3.26766e-06
0.00023324
-3.25358e-06
0.000236478
-3.23846e-06
0.0002397
-3.22226e-06
0.000242905
-3.20496e-06
0.000246092
-3.18652e-06
0.000249259
-3.16691e-06
0.000252405
-3.14609e-06
0.000255529
-3.12403e-06
0.00025863
-3.1007e-06
0.000261706
-3.07607e-06
0.000264756
-3.05011e-06
0.000267779
-3.02279e-06
0.000270773
-2.99408e-06
0.000273737
-2.96395e-06
0.000276669
-2.93238e-06
0.000279568
-2.89935e-06
0.000282433
-2.86483e-06
0.000285262
-2.82879e-06
0.000288053
-2.79123e-06
0.000290805
-2.75212e-06
0.000293517
-2.71145e-06
0.000296186
-2.66921e-06
0.000298811
-2.62537e-06
0.000301391
-2.57994e-06
0.000303924
-2.53291e-06
0.000306409
-2.48427e-06
0.000308843
-2.43402e-06
0.000311225
-2.38216e-06
0.000313553
-2.32869e-06
0.000315827
-2.27363e-06
0.000318044
-2.21698e-06
0.000320203
-2.15876e-06
0.000322302
-2.09897e-06
0.000324339
-2.03764e-06
0.000326314
-1.97479e-06
0.000328225
-1.91045e-06
0.000330069
-1.84463e-06
0.000331847
-1.77738e-06
0.000333555
-1.70873e-06
0.000335194
-1.63871e-06
0.000336761
-1.56736e-06
0.000338256
-1.49474e-06
0.000339677
-1.42087e-06
0.000341023
-1.34582e-06
0.000342292
-1.26964e-06
0.000343485
-1.19238e-06
0.000344599
-1.11409e-06
0.000345634
-1.03484e-06
0.000346588
-9.54689e-07
0.000347462
-8.73704e-07
0.000348254
-7.9195e-07
0.000348964
-7.09495e-07
0.00034959
-6.2641e-07
0.000350133
-5.42767e-07
0.000350591
-4.58639e-07
0.000350966
-3.74101e-07
0.000351255
-2.89228e-07
0.000351459
-2.04097e-07
0.000351578
-1.18784e-07
0.000351611
-3.33678e-08
0.000351559
5.20752e-08
0.000351421
1.37467e-07
0.000351199
2.22731e-07
0.000350891
3.07789e-07
0.000350498
3.92566e-07
0.000350021
4.76986e-07
0.00034946
5.60976e-07
0.000348816
6.44462e-07
0.000348089
7.27372e-07
0.000347279
8.09637e-07
0.000346388
8.91189e-07
0.000345416
9.71961e-07
0.000344364
1.05189e-06
0.000343233
1.13091e-06
0.000342024
1.20897e-06
0.000340738
1.28601e-06
0.000339376
1.36197e-06
0.000337939
1.4368e-06
0.000336429
1.51045e-06
0.000334846
1.58288e-06
0.000333192
1.65405e-06
0.000331468
1.72391e-06
0.000329676
1.79243e-06
0.000327816
1.85956e-06
0.000325891
1.92529e-06
0.000323901
1.98959e-06
0.000321849
2.05242e-06
0.000319735
2.11377e-06
0.000317561
2.17361e-06
0.000315329
2.23193e-06
0.000313041
2.28873e-06
0.000310697
2.34397e-06
0.000308299
2.39767e-06
0.000305849
2.44981e-06
0.000303349
2.50039e-06
0.000300799
2.54941e-06
0.000298203
2.59688e-06
0.00029556
2.64279e-06
0.000292873
2.68716e-06
0.000290143
2.73e-06
0.000287371
2.77131e-06
0.00028456
2.81111e-06
0.000281711
2.84941e-06
0.000278824
2.88624e-06
0.000275903
2.92161e-06
0.000272947
2.95553e-06
0.000269959
2.98804e-06
0.00026694
3.01915e-06
0.000263891
3.04889e-06
0.000260814
3.07728e-06
0.00025771
3.10435e-06
0.00025458
3.13013e-06
0.000251425
3.15464e-06
0.000248247
3.17792e-06
0.000245047
3.19999e-06
0.000241826
3.22088e-06
0.000238585
3.24063e-06
0.000235326
3.25926e-06
0.000232049
3.27681e-06
0.000228756
3.2933e-06
0.000225447
3.30877e-06
0.000222124
3.32325e-06
0.000218787
3.33678e-06
0.000215438
3.34938e-06
0.000212077
3.36108e-06
0.000208705
3.37193e-06
0.000205323
3.38194e-06
0.000201932
3.39115e-06
0.000198532
3.3996e-06
0.000195125
3.40731e-06
0.000191711
3.41431e-06
0.00018829
3.42064e-06
0.000184864
3.42632e-06
0.000181432
3.43138e-06
0.000177996
3.43586e-06
0.000174557
3.43977e-06
0.000171113
3.44316e-06
0.000167667
3.44604e-06
0.000164219
3.44844e-06
0.000160769
3.45039e-06
0.000157317
3.45192e-06
0.000153864
3.45304e-06
0.00015041
3.45379e-06
0.000146956
3.4542e-06
0.000143501
3.45427e-06
0.000140047
3.45404e-06
0.000136594
3.45353e-06
0.000133141
3.45275e-06
0.000129689
3.45174e-06
0.000126239
3.45051e-06
0.00012279
3.44908e-06
0.000119342
3.44747e-06
0.000115897
3.4457e-06
0.000112453
3.44379e-06
0.000109011
3.44175e-06
0.000105571
3.43961e-06
0.000102134
3.43737e-06
9.8699e-05
3.43506e-06
9.52663e-05
3.43268e-06
9.1836e-05
3.43026e-06
8.84082e-05
3.4278e-06
8.49829e-05
3.42533e-06
8.156e-05
3.42285e-06
7.81397e-05
3.42037e-06
7.47217e-05
3.41792e-06
7.13063e-05
3.41549e-06
6.78932e-05
3.4131e-06
6.44824e-05
3.41076e-06
6.10739e-05
3.40848e-06
5.76677e-05
3.40626e-06
5.42635e-05
3.40413e-06
5.08615e-05
3.40208e-06
4.74613e-05
3.40012e-06
4.40631e-05
3.39826e-06
4.06666e-05
3.3965e-06
3.72717e-05
3.39486e-06
3.38784e-05
3.39334e-06
3.04865e-05
3.39193e-06
2.70958e-05
3.39066e-06
2.37063e-05
3.38952e-06
2.03178e-05
3.38851e-06
1.69301e-05
3.38764e-06
1.35432e-05
3.38691e-06
1.01569e-05
3.38632e-06
6.77103e-06
3.38588e-06
3.38544e-06
3.38559e-06
3.38544e-06
3.2802e-06
-6.56055e-06
6.56056e-06
-6.56089e-06
9.84126e-06
-6.56157e-06
1.31225e-05
-6.56258e-06
1.64044e-05
-6.56392e-06
1.96871e-05
-6.56559e-06
2.29708e-05
-6.56759e-06
2.62557e-05
-6.56991e-06
2.95419e-05
-6.57254e-06
3.28295e-05
-6.57549e-06
3.61188e-05
-6.57874e-06
3.94099e-05
-6.58229e-06
4.27029e-05
-6.58612e-06
4.59979e-05
-6.59023e-06
4.92952e-05
-6.59461e-06
5.25948e-05
-6.59924e-06
5.58968e-05
-6.60413e-06
5.92013e-05
-6.60924e-06
6.25086e-05
-6.61457e-06
6.58186e-05
-6.6201e-06
6.91314e-05
-6.62583e-06
7.24473e-05
-6.63172e-06
7.57661e-05
-6.63777e-06
7.90881e-05
-6.64396e-06
8.24132e-05
-6.65026e-06
8.57415e-05
-6.65666e-06
8.90731e-05
-6.66314e-06
9.24079e-05
-6.66967e-06
9.5746e-05
-6.67622e-06
9.90874e-05
-6.68278e-06
0.000102432
-6.68932e-06
0.00010578
-6.69581e-06
0.000109131
-6.70222e-06
0.000112485
-6.70852e-06
0.000115843
-6.71469e-06
0.000119203
-6.72069e-06
0.000122567
-6.72648e-06
0.000125933
-6.73204e-06
0.000129301
-6.73732e-06
0.000132673
-6.7423e-06
0.000136046
-6.74692e-06
0.000139422
-6.75116e-06
0.000142799
-6.75497e-06
0.000146179
-6.7583e-06
0.000149559
-6.76112e-06
0.000152941
-6.76338e-06
0.000156324
-6.76503e-06
0.000159707
-6.76602e-06
0.00016309
-6.76631e-06
0.000166474
-6.76584e-06
0.000169856
-6.76456e-06
0.000173238
-6.76242e-06
0.000176617
-6.75936e-06
0.000179995
-6.75533e-06
0.000183371
-6.75027e-06
0.000186743
-6.74412e-06
0.000190112
-6.73682e-06
0.000193476
-6.7283e-06
0.000196836
-6.71852e-06
0.00020019
-6.7074e-06
0.000203538
-6.69487e-06
0.000206879
-6.68089e-06
0.000210212
-6.66537e-06
0.000213536
-6.64825e-06
0.000216851
-6.62947e-06
0.000220156
-6.60895e-06
0.00022345
-6.58664e-06
0.000226732
-6.56245e-06
0.000230001
-6.53632e-06
0.000233255
-6.50819e-06
0.000236495
-6.47798e-06
0.000239718
-6.44563e-06
0.000242924
-6.41106e-06
0.000246112
-6.37422e-06
0.00024928
-6.33502e-06
0.000252427
-6.29342e-06
0.000255553
-6.24933e-06
0.000258655
-6.2027e-06
0.000261732
-6.15347e-06
0.000264783
-6.10158e-06
0.000267808
-6.04696e-06
0.000270803
-5.98957e-06
0.000273768
-5.92934e-06
0.000276702
-5.86623e-06
0.000279603
-5.80018e-06
0.00028247
-5.73116e-06
0.0002853
-5.65912e-06
0.000288093
-5.58401e-06
0.000290846
-5.50581e-06
0.000293559
-5.42448e-06
0.00029623
-5.34e-06
0.000298857
-5.25234e-06
0.000301439
-5.16149e-06
0.000303973
-5.06742e-06
0.000306459
-4.97014e-06
0.000308895
-4.86964e-06
0.000311278
-4.76592e-06
0.000313609
-4.65898e-06
0.000315884
-4.54885e-06
0.000318102
-4.43554e-06
0.000320263
-4.31907e-06
0.000322363
-4.19948e-06
0.000324402
-4.0768e-06
0.000326379
-3.95108e-06
0.000328291
-3.82236e-06
0.000330137
-3.6907e-06
0.000331915
-3.55616e-06
0.000333626
-3.41882e-06
0.000335266
-3.27874e-06
0.000336834
-3.13601e-06
0.00033833
-2.9907e-06
0.000339752
-2.84293e-06
0.000341099
-2.69278e-06
0.00034237
-2.54035e-06
0.000343563
-2.38577e-06
0.000344678
-2.22913e-06
0.000345714
-2.07057e-06
0.00034667
-1.91021e-06
0.000347544
-1.74817e-06
0.000348337
-1.58459e-06
0.000349047
-1.41961e-06
0.000349674
-1.25337e-06
0.000350217
-1.08601e-06
0.000350676
-9.17683e-07
0.000351051
-7.48532e-07
0.00035134
-5.78709e-07
0.000351544
-4.0837e-07
0.000351663
-2.37667e-07
0.000351697
-6.67568e-08
0.000351644
1.04207e-07
0.000351507
2.75068e-07
0.000351284
4.45672e-07
0.000350976
6.15865e-07
0.000350583
7.85494e-07
0.000350105
9.54409e-07
0.000349544
1.12246e-06
0.000348899
1.2895e-06
0.000348171
1.45539e-06
0.000347361
1.61999e-06
0.000346469
1.78316e-06
0.000345496
1.94477e-06
0.000344443
2.10469e-06
0.000343311
2.26279e-06
0.000342101
2.41897e-06
0.000340814
2.57309e-06
0.000339451
2.72506e-06
0.000338013
2.87478e-06
0.000336501
3.02213e-06
0.000334917
3.16704e-06
0.000333262
3.30941e-06
0.000331536
3.44917e-06
0.000329743
3.58623e-06
0.000327882
3.72054e-06
0.000325955
3.85203e-06
0.000323964
3.98064e-06
0.00032191
4.10633e-06
0.000319795
4.22904e-06
0.00031762
4.34874e-06
0.000315386
4.4654e-06
0.000313096
4.579e-06
0.00031075
4.6895e-06
0.000308351
4.7969e-06
0.0003059
4.90118e-06
0.000303398
5.00234e-06
0.000300847
5.10039e-06
0.000298248
5.19531e-06
0.000295604
5.28714e-06
0.000292915
5.37587e-06
0.000290184
5.46152e-06
0.000287411
5.54413e-06
0.000284598
5.62372e-06
0.000281747
5.70031e-06
0.00027886
5.77394e-06
0.000275937
5.84465e-06
0.00027298
5.91248e-06
0.00026999
5.97747e-06
0.00026697
6.03967e-06
0.00026392
6.09912e-06
0.000260841
6.15588e-06
0.000257735
6.21e-06
0.000254604
6.26153e-06
0.000251448
6.31053e-06
0.000248269
6.35705e-06
0.000245068
6.40116e-06
0.000241846
6.44292e-06
0.000238604
6.48238e-06
0.000235344
6.51961e-06
0.000232066
6.55467e-06
0.000228771
6.58762e-06
0.000225462
6.61853e-06
0.000222137
6.64747e-06
0.0002188
6.67449e-06
0.000215449
6.69965e-06
0.000212088
6.72303e-06
0.000208715
6.74469e-06
0.000205332
6.76468e-06
0.00020194
6.78308e-06
0.00019854
6.79994e-06
0.000195132
6.81533e-06
0.000191717
6.8293e-06
0.000188295
6.84192e-06
0.000184869
6.85326e-06
0.000181437
6.86335e-06
0.000178
6.87227e-06
0.00017456
6.88008e-06
0.000171116
6.88681e-06
0.00016767
6.89255e-06
0.000164221
6.89732e-06
0.00016077
6.9012e-06
0.000157318
6.90423e-06
0.000153864
6.90646e-06
0.00015041
6.90794e-06
0.000146956
6.90872e-06
0.000143501
6.90884e-06
0.000140047
6.90836e-06
0.000136593
6.90731e-06
0.00013314
6.90574e-06
0.000129688
6.9037e-06
0.000126237
6.90122e-06
0.000122788
6.89834e-06
0.00011934
6.8951e-06
0.000115895
6.89155e-06
0.000112451
6.8877e-06
0.000109009
6.88361e-06
0.000105569
6.87931e-06
0.000102132
6.87481e-06
9.86965e-05
6.87017e-06
9.52638e-05
6.8654e-06
9.18335e-05
6.86055e-06
8.84057e-05
6.85562e-06
8.49803e-05
6.85066e-06
8.15575e-05
6.84569e-06
7.81371e-05
6.84073e-06
7.47192e-05
6.8358e-06
7.13038e-05
6.83093e-06
6.78908e-05
6.82614e-06
6.44801e-05
6.82145e-06
6.10717e-05
6.81688e-06
5.76655e-05
6.81245e-06
5.42614e-05
6.80817e-06
5.08594e-05
6.80406e-06
4.74594e-05
6.80013e-06
4.40613e-05
6.7964e-06
4.06649e-05
6.79289e-06
3.72702e-05
6.7896e-06
3.3877e-05
6.78655e-06
3.04851e-05
6.78374e-06
2.70946e-05
6.78118e-06
2.37052e-05
6.77889e-06
2.03169e-05
6.77687e-06
1.69294e-05
6.77513e-06
1.35426e-05
6.77367e-06
1.01565e-05
6.77249e-06
6.77073e-06
6.77161e-06
3.38529e-06
6.77103e-06
6.77073e-06
3.27986e-06
-9.84041e-06
6.55988e-06
-9.84092e-06
9.84024e-06
-9.84193e-06
1.31211e-05
-9.84345e-06
1.64027e-05
-9.84546e-06
1.96851e-05
-9.84798e-06
2.29684e-05
-9.85098e-06
2.6253e-05
-9.85447e-06
2.95389e-05
-9.85843e-06
3.28262e-05
-9.86286e-06
3.61153e-05
-9.86774e-06
3.9406e-05
-9.87307e-06
4.26987e-05
-9.87883e-06
4.59935e-05
-9.88501e-06
4.92905e-05
-9.89159e-06
5.25898e-05
-9.89856e-06
5.58916e-05
-9.9059e-06
5.91959e-05
-9.91358e-06
6.2503e-05
-9.9216e-06
6.58128e-05
-9.92992e-06
6.91255e-05
-9.93853e-06
7.24412e-05
-9.94739e-06
7.57599e-05
-9.95649e-06
7.90817e-05
-9.9658e-06
8.24067e-05
-9.97528e-06
8.5735e-05
-9.9849e-06
8.90665e-05
-9.99464e-06
9.24013e-05
-1.00045e-05
9.57394e-05
-1.00143e-05
9.90808e-05
-1.00242e-05
0.000102426
-1.0034e-05
0.000105774
-1.00438e-05
0.000109125
-1.00535e-05
0.000112479
-1.0063e-05
0.000115837
-1.00722e-05
0.000119197
-1.00813e-05
0.000122561
-1.009e-05
0.000125927
-1.00984e-05
0.000129296
-1.01064e-05
0.000132668
-1.01139e-05
0.000136042
-1.01209e-05
0.000139418
-1.01273e-05
0.000142796
-1.0133e-05
0.000146176
-1.01381e-05
0.000149557
-1.01424e-05
0.00015294
-1.01458e-05
0.000156323
-1.01484e-05
0.000159707
-1.01499e-05
0.000163091
-1.01504e-05
0.000166475
-1.01498e-05
0.000169858
-1.01479e-05
0.00017324
-1.01448e-05
0.000176621
-1.01403e-05
0.00018
-1.01343e-05
0.000183377
-1.01268e-05
0.00018675
-1.01176e-05
0.00019012
-1.01067e-05
0.000193486
-1.0094e-05
0.000196847
-1.00794e-05
0.000200202
-1.00628e-05
0.000203552
-1.00441e-05
0.000206894
-1.00232e-05
0.000210229
-1e-05
0.000213555
-9.97446e-06
0.000216872
-9.94637e-06
0.000220179
-9.91568e-06
0.000223474
-9.88229e-06
0.000226758
-9.8461e-06
0.000230029
-9.807e-06
0.000233285
-9.76488e-06
0.000236527
-9.71966e-06
0.000239752
-9.67121e-06
0.000242961
-9.61945e-06
0.000246151
-9.56426e-06
0.000249321
-9.50555e-06
0.000252471
-9.44322e-06
0.000255599
-9.37717e-06
0.000258704
-9.30731e-06
0.000261784
-9.23354e-06
0.000264838
-9.15577e-06
0.000267865
-9.07392e-06
0.000270863
-8.9879e-06
0.000273831
-8.89762e-06
0.000276768
-8.80301e-06
0.000279672
-8.704e-06
0.000282541
-8.60052e-06
0.000285375
-8.4925e-06
0.000288171
-8.37988e-06
0.000290927
-8.26262e-06
0.000293644
-8.14067e-06
0.000296318
-8.01397e-06
0.000298948
-7.88251e-06
0.000301533
-7.74624e-06
0.00030407
-7.60516e-06
0.000306559
-7.45924e-06
0.000308998
-7.30848e-06
0.000311385
-7.15289e-06
0.000313719
-6.99247e-06
0.000315997
-6.82725e-06
0.000318219
-6.65725e-06
0.000320382
-6.48251e-06
0.000322486
-6.30308e-06
0.000324528
-6.119e-06
0.000326507
-5.93036e-06
0.000328422
-5.73721e-06
0.000330271
-5.53964e-06
0.000332053
-5.33775e-06
0.000333766
-5.13164e-06
0.000335408
-4.92143e-06
0.000336979
-4.70722e-06
0.000338478
-4.48915e-06
0.000339902
-4.26736e-06
0.000341252
-4.04201e-06
0.000342524
-3.81323e-06
0.00034372
-3.58121e-06
0.000344837
-3.34611e-06
0.000345874
-3.10811e-06
0.000346832
-2.86741e-06
0.000347708
-2.62418e-06
0.000348502
-2.37865e-06
0.000349213
-2.131e-06
0.000349841
-1.88146e-06
0.000350385
-1.63023e-06
0.000350845
-1.37755e-06
0.00035122
-1.12363e-06
0.00035151
-8.68711e-07
0.000351715
-6.13009e-07
0.000351834
-3.56761e-07
0.000351868
-1.00201e-07
0.000351815
1.56438e-07
0.000351677
4.12923e-07
0.000351454
6.69021e-07
0.000351145
9.24501e-07
0.000350752
1.17913e-06
0.000350274
1.43269e-06
0.000349711
1.68495e-06
0.000349065
1.9357e-06
0.000348336
2.18471e-06
0.000347524
2.43177e-06
0.00034663
2.67669e-06
0.000345656
2.91927e-06
0.000344601
3.1593e-06
0.000343467
3.39661e-06
0.000342255
3.63101e-06
0.000340966
3.86233e-06
0.000339601
4.09042e-06
0.00033816
4.31511e-06
0.000336646
4.53626e-06
0.000335059
4.75373e-06
0.000333402
4.96738e-06
0.000331674
5.17711e-06
0.000329877
5.3828e-06
0.000328013
5.58434e-06
0.000326084
5.78164e-06
0.00032409
5.97462e-06
0.000322033
6.1632e-06
0.000319914
6.34732e-06
0.000317736
6.52692e-06
0.0003155
6.70194e-06
0.000313206
6.87236e-06
0.000310858
7.03813e-06
0.000308455
7.19924e-06
0.000306001
7.35567e-06
0.000303496
7.50742e-06
0.000300942
7.65447e-06
0.00029834
7.79685e-06
0.000295693
7.93457e-06
0.000293001
8.06764e-06
0.000290266
8.1961e-06
0.000287491
8.31998e-06
0.000284675
8.43932e-06
0.000281821
8.55416e-06
0.000278931
8.66457e-06
0.000276005
8.77058e-06
0.000273045
8.87227e-06
0.000270053
8.9697e-06
0.000267029
9.06294e-06
0.000263976
9.15205e-06
0.000260895
9.23713e-06
0.000257787
9.31823e-06
0.000254653
9.39546e-06
0.000251495
9.46888e-06
0.000248313
9.5386e-06
0.00024511
9.60469e-06
0.000241885
9.66724e-06
0.000238641
9.72636e-06
0.000235379
9.78212e-06
0.000232099
9.83464e-06
0.000228802
9.88399e-06
0.000225491
9.93028e-06
0.000222165
9.9736e-06
0.000218825
1.0014e-05
0.000215473
1.00517e-05
0.000212109
1.00867e-05
0.000208735
1.01191e-05
0.00020535
1.0149e-05
0.000201957
1.01765e-05
0.000198555
1.02018e-05
0.000195146
1.02248e-05
0.000191729
1.02456e-05
0.000188307
1.02645e-05
0.000184879
1.02814e-05
0.000181446
1.02965e-05
0.000178008
1.03098e-05
0.000174567
1.03214e-05
0.000171122
1.03315e-05
0.000167675
1.034e-05
0.000164225
1.03471e-05
0.000160773
1.03529e-05
0.00015732
1.03573e-05
0.000153866
1.03606e-05
0.000150411
1.03628e-05
0.000146956
1.03639e-05
0.000143501
1.0364e-05
0.000140046
1.03632e-05
0.000136591
1.03616e-05
0.000133138
1.03592e-05
0.000129686
1.03561e-05
0.000126234
1.03523e-05
0.000122785
1.0348e-05
0.000119337
1.03431e-05
0.000115891
1.03377e-05
0.000112447
1.03319e-05
0.000109004
1.03257e-05
0.000105565
1.03192e-05
0.000102127
1.03124e-05
9.86918e-05
1.03054e-05
9.52589e-05
1.02982e-05
9.18286e-05
1.02909e-05
8.84007e-05
1.02835e-05
8.49754e-05
1.0276e-05
8.15526e-05
1.02685e-05
7.81322e-05
1.0261e-05
7.47144e-05
1.02536e-05
7.1299e-05
1.02463e-05
6.78861e-05
1.02391e-05
6.44755e-05
1.0232e-05
6.10672e-05
1.02252e-05
5.76612e-05
1.02185e-05
5.42573e-05
1.0212e-05
5.08555e-05
1.02059e-05
4.74557e-05
1.01999e-05
4.40578e-05
1.01943e-05
4.06616e-05
1.01891e-05
3.72671e-05
1.01841e-05
3.38742e-05
1.01795e-05
3.04826e-05
1.01753e-05
2.70923e-05
1.01714e-05
2.37032e-05
1.0168e-05
2.03151e-05
1.0165e-05
1.69279e-05
1.01623e-05
1.35415e-05
1.01601e-05
1.01556e-05
1.01584e-05
6.77014e-06
1.0157e-05
3.385e-06
1.01562e-05
1.01557e-05
3.27934e-06
-1.31197e-05
6.55886e-06
-1.31204e-05
9.83871e-06
-1.31218e-05
1.31191e-05
-1.31238e-05
1.64001e-05
-1.31265e-05
1.9682e-05
-1.31299e-05
2.29649e-05
-1.31339e-05
2.6249e-05
-1.31385e-05
2.95344e-05
-1.31438e-05
3.28213e-05
-1.31498e-05
3.61099e-05
-1.31563e-05
3.94002e-05
-1.31634e-05
4.26925e-05
-1.31711e-05
4.59869e-05
-1.31794e-05
4.92835e-05
-1.31882e-05
5.25824e-05
-1.31975e-05
5.58838e-05
-1.32073e-05
5.91879e-05
-1.32176e-05
6.24946e-05
-1.32283e-05
6.58041e-05
-1.32395e-05
6.91165e-05
-1.3251e-05
7.2432e-05
-1.32628e-05
7.57505e-05
-1.3275e-05
7.90721e-05
-1.32875e-05
8.2397e-05
-1.33001e-05
8.57251e-05
-1.3313e-05
8.90565e-05
-1.33261e-05
9.23913e-05
-1.33392e-05
9.57294e-05
-1.33524e-05
9.90708e-05
-1.33656e-05
0.000102416
-1.33788e-05
0.000105764
-1.33919e-05
0.000109115
-1.34049e-05
0.00011247
-1.34176e-05
0.000115828
-1.34301e-05
0.000119188
-1.34422e-05
0.000122552
-1.34539e-05
0.000125919
-1.34652e-05
0.000129289
-1.34759e-05
0.000132661
-1.3486e-05
0.000136035
-1.34954e-05
0.000139412
-1.3504e-05
0.000142791
-1.35118e-05
0.000146171
-1.35187e-05
0.000149553
-1.35245e-05
0.000152937
-1.35292e-05
0.000156321
-1.35327e-05
0.000159706
-1.35349e-05
0.000163091
-1.35356e-05
0.000166476
-1.35349e-05
0.000169861
-1.35326e-05
0.000173245
-1.35285e-05
0.000176627
-1.35226e-05
0.000180008
-1.35148e-05
0.000183386
-1.35049e-05
0.000186761
-1.34928e-05
0.000190133
-1.34785e-05
0.0001935
-1.34617e-05
0.000196863
-1.34424e-05
0.000200221
-1.34204e-05
0.000203572
-1.33956e-05
0.000206917
-1.33679e-05
0.000210254
-1.33371e-05
0.000213583
-1.33032e-05
0.000216902
-1.32659e-05
0.000220212
-1.32251e-05
0.00022351
-1.31808e-05
0.000226797
-1.31327e-05
0.00023007
-1.30807e-05
0.00023333
-1.30247e-05
0.000236575
-1.29645e-05
0.000239804
-1.29001e-05
0.000243016
-1.28312e-05
0.000246209
-1.27578e-05
0.000249384
-1.26797e-05
0.000252537
-1.25967e-05
0.000255669
-1.25088e-05
0.000258777
-1.24158e-05
0.000261861
-1.23176e-05
0.00026492
-1.22141e-05
0.000267951
-1.2105e-05
0.000270953
-1.19905e-05
0.000273926
-1.18702e-05
0.000276867
-1.17442e-05
0.000279775
-1.16123e-05
0.000282649
-1.14744e-05
0.000285487
-1.13305e-05
0.000288288
-1.11804e-05
0.000291049
-1.10241e-05
0.00029377
-1.08616e-05
0.000296449
-1.06927e-05
0.000299084
-1.05175e-05
0.000301673
-1.03358e-05
0.000304216
-1.01477e-05
0.00030671
-9.95318e-06
0.000309154
-9.75216e-06
0.000311545
-9.54469e-06
0.000313884
-9.33077e-06
0.000316167
-9.11043e-06
0.000318393
-8.88371e-06
0.000320562
-8.65065e-06
0.00032267
-8.41132e-06
0.000324717
-8.16578e-06
0.0003267
-7.91414e-06
0.00032862
-7.65648e-06
0.000330473
-7.39292e-06
0.000332259
-7.12357e-06
0.000333976
-6.84858e-06
0.000335622
-6.5681e-06
0.000337197
-6.28229e-06
0.0003387
-5.99132e-06
0.000340128
-5.69537e-06
0.00034148
-5.39465e-06
0.000342756
-5.08937e-06
0.000343955
-4.77973e-06
0.000345075
-4.46599e-06
0.000346115
-4.14837e-06
0.000347075
-3.82712e-06
0.000347953
-3.50251e-06
0.000348749
-3.17481e-06
0.000349463
-2.84428e-06
0.000350092
-2.51122e-06
0.000350638
-2.17592e-06
0.000351099
-1.83866e-06
0.000351475
-1.49975e-06
0.000351766
-1.15949e-06
0.000351971
-8.18197e-07
0.000352091
-4.76172e-07
0.000352124
-1.33729e-07
0.000352072
2.0882e-07
0.000351933
5.51161e-07
0.00035171
8.92985e-07
0.0003514
1.23398e-06
0.000351005
1.57384e-06
0.000350526
1.91227e-06
0.000349962
2.24896e-06
0.000349314
2.58362e-06
0.000348583
2.91596e-06
0.000347769
3.2457e-06
0.000346873
3.57257e-06
0.000345896
3.8963e-06
0.000344838
4.21663e-06
0.000343702
4.53332e-06
0.000342487
4.84612e-06
0.000341194
5.15481e-06
0.000339825
5.45916e-06
0.000338381
5.75898e-06
0.000336864
6.05406e-06
0.000335273
6.34422e-06
0.000333611
6.62929e-06
0.000331879
6.9091e-06
0.000330079
7.1835e-06
0.000328211
7.45237e-06
0.000326277
7.71557e-06
0.000324278
7.973e-06
0.000322217
8.22454e-06
0.000320094
8.47012e-06
0.000317911
8.70966e-06
0.00031567
8.94309e-06
0.000313372
9.17036e-06
0.000311019
9.39143e-06
0.000308612
9.60626e-06
0.000306153
9.81485e-06
0.000303643
1.00172e-05
0.000301084
1.02132e-05
0.000298478
1.04031e-05
0.000295826
1.05866e-05
0.00029313
1.0764e-05
0.00029039
1.09353e-05
0.00028761
1.11004e-05
0.00028479
1.12594e-05
0.000281932
1.14125e-05
0.000279037
1.15596e-05
0.000276106
1.17008e-05
0.000273142
1.18363e-05
0.000270146
1.19661e-05
0.000267119
1.20903e-05
0.000264062
1.2209e-05
0.000260976
1.23223e-05
0.000257864
1.24303e-05
0.000254726
1.25332e-05
0.000251564
1.26309e-05
0.000248379
1.27238e-05
0.000245172
1.28117e-05
0.000241944
1.2895e-05
0.000238697
1.29737e-05
0.000235431
1.30479e-05
0.000232148
1.31178e-05
0.000228849
1.31834e-05
0.000225534
1.3245e-05
0.000222205
1.33026e-05
0.000218863
1.33564e-05
0.000215508
1.34065e-05
0.000212142
1.3453e-05
0.000208765
1.3496e-05
0.000205378
1.35358e-05
0.000201982
1.35723e-05
0.000198578
1.36058e-05
0.000195167
1.36363e-05
0.000191748
1.3664e-05
0.000188324
1.3689e-05
0.000184894
1.37114e-05
0.000181459
1.37314e-05
0.00017802
1.3749e-05
0.000174577
1.37644e-05
0.000171131
1.37777e-05
0.000167682
1.37889e-05
0.000164231
1.37983e-05
0.000160778
1.38058e-05
0.000157323
1.38117e-05
0.000153868
1.38159e-05
0.000150412
1.38187e-05
0.000146956
1.382e-05
0.0001435
1.38201e-05
0.000140044
1.3819e-05
0.000136589
1.38167e-05
0.000133135
1.38134e-05
0.000129682
1.38091e-05
0.00012623
1.3804e-05
0.00012278
1.37981e-05
0.000119332
1.37915e-05
0.000115885
1.37842e-05
0.00011244
1.37764e-05
0.000108998
1.37681e-05
0.000105558
1.37593e-05
0.00010212
1.37502e-05
9.86846e-05
1.37408e-05
9.52517e-05
1.37312e-05
9.18212e-05
1.37214e-05
8.83933e-05
1.37114e-05
8.49679e-05
1.37014e-05
8.15451e-05
1.36913e-05
7.81249e-05
1.36813e-05
7.47071e-05
1.36714e-05
7.12919e-05
1.36615e-05
6.78791e-05
1.36519e-05
6.44687e-05
1.36424e-05
6.10606e-05
1.36332e-05
5.76548e-05
1.36243e-05
5.42512e-05
1.36157e-05
5.08497e-05
1.36074e-05
4.74501e-05
1.35995e-05
4.40525e-05
1.3592e-05
4.06567e-05
1.35849e-05
3.72625e-05
1.35783e-05
3.38699e-05
1.35721e-05
3.04788e-05
1.35665e-05
2.70889e-05
1.35613e-05
2.37002e-05
1.35567e-05
2.03125e-05
1.35526e-05
1.69257e-05
1.35491e-05
1.35397e-05
1.35462e-05
1.01543e-05
1.35438e-05
6.76925e-06
1.3542e-05
3.38455e-06
1.35409e-05
1.35403e-05
3.27866e-06
-1.63984e-05
6.55749e-06
-1.63993e-05
9.83667e-06
-1.6401e-05
1.31164e-05
-1.64035e-05
1.63967e-05
-1.64069e-05
1.9678e-05
-1.64111e-05
2.29602e-05
-1.64161e-05
2.62437e-05
-1.6422e-05
2.95285e-05
-1.64286e-05
3.28147e-05
-1.64361e-05
3.61027e-05
-1.64442e-05
3.93925e-05
-1.64532e-05
4.26842e-05
-1.64628e-05
4.5978e-05
-1.64732e-05
4.92741e-05
-1.64843e-05
5.25725e-05
-1.6496e-05
5.58735e-05
-1.65083e-05
5.91771e-05
-1.65212e-05
6.24834e-05
-1.65346e-05
6.57925e-05
-1.65486e-05
6.91046e-05
-1.6563e-05
7.24197e-05
-1.65779e-05
7.57379e-05
-1.65932e-05
7.90593e-05
-1.66089e-05
8.2384e-05
-1.66248e-05
8.5712e-05
-1.6641e-05
8.90433e-05
-1.66574e-05
9.2378e-05
-1.66739e-05
9.5716e-05
-1.66905e-05
9.90575e-05
-1.67071e-05
0.000102402
-1.67237e-05
0.000105751
-1.67402e-05
0.000109102
-1.67565e-05
0.000112457
-1.67725e-05
0.000115815
-1.67882e-05
0.000119177
-1.68035e-05
0.000122541
-1.68183e-05
0.000125908
-1.68325e-05
0.000129278
-1.6846e-05
0.000132651
-1.68588e-05
0.000136026
-1.68707e-05
0.000139404
-1.68816e-05
0.000142784
-1.68915e-05
0.000146165
-1.69003e-05
0.000149549
-1.69077e-05
0.000152933
-1.69138e-05
0.000156319
-1.69183e-05
0.000159705
-1.69212e-05
0.000163092
-1.69224e-05
0.000166479
-1.69217e-05
0.000169865
-1.69189e-05
0.000173251
-1.69141e-05
0.000176635
-1.69069e-05
0.000180017
-1.68973e-05
0.000183398
-1.68852e-05
0.000186775
-1.68703e-05
0.000190149
-1.68526e-05
0.00019352
-1.68319e-05
0.000196885
-1.6808e-05
0.000200245
-1.67807e-05
0.0002036
-1.675e-05
0.000206948
-1.67156e-05
0.000210288
-1.66774e-05
0.00021362
-1.66352e-05
0.000216943
-1.65888e-05
0.000220256
-1.65381e-05
0.000223558
-1.6483e-05
0.000226849
-1.64231e-05
0.000230126
-1.63584e-05
0.00023339
-1.62886e-05
0.000236639
-1.62137e-05
0.000239873
-1.61334e-05
0.000243089
-1.60476e-05
0.000246287
-1.59561e-05
0.000249466
-1.58587e-05
0.000252625
-1.57552e-05
0.000255762
-1.56456e-05
0.000258875
-1.55296e-05
0.000261965
-1.5407e-05
0.000265028
-1.52778e-05
0.000268065
-1.51417e-05
0.000271073
-1.49987e-05
0.000274052
-1.48486e-05
0.000276999
-1.46913e-05
0.000279913
-1.45265e-05
0.000282793
-1.43544e-05
0.000285637
-1.41746e-05
0.000288444
-1.39871e-05
0.000291212
-1.37919e-05
0.000293939
-1.35888e-05
0.000296624
-1.33778e-05
0.000299265
-1.31589e-05
0.000301861
-1.29318e-05
0.00030441
-1.26968e-05
0.000306911
-1.24536e-05
0.000309361
-1.22023e-05
0.000311759
-1.19429e-05
0.000314104
-1.16755e-05
0.000316394
-1.14e-05
0.000318626
-1.11165e-05
0.000320801
-1.08251e-05
0.000322915
-1.05258e-05
0.000324968
-1.02187e-05
0.000326958
-9.90394e-06
0.000328883
-9.58166e-06
0.000330742
-9.25197e-06
0.000332534
-8.91504e-06
0.000334256
-8.57102e-06
0.000335908
-8.22012e-06
0.000337488
-7.86253e-06
0.000338995
-7.49846e-06
0.000340428
-7.12816e-06
0.000341785
-6.75187e-06
0.000343066
-6.36985e-06
0.000344269
-5.98238e-06
0.000345392
-5.58974e-06
0.000346436
-5.19225e-06
0.000347399
-4.7902e-06
0.000348281
-4.38394e-06
0.00034908
-3.97379e-06
0.000349795
-3.56011e-06
0.000350428
-3.14324e-06
0.000350975
-2.72356e-06
0.000351438
-2.30142e-06
0.000351815
-1.87722e-06
0.000352107
-1.45132e-06
0.000352313
-1.02412e-06
0.000352433
-5.96004e-07
0.000352467
-1.67366e-07
0.000352414
2.61404e-07
0.000352275
6.89914e-07
0.00035205
1.11777e-06
0.00035174
1.54459e-06
0.000351344
1.96999e-06
0.000350862
2.39358e-06
0.000350296
2.81499e-06
0.000349646
3.23385e-06
0.000348912
3.64981e-06
0.000348095
4.0625e-06
0.000347196
4.47158e-06
0.000346216
4.87673e-06
0.000345155
5.27761e-06
0.000344014
5.67391e-06
0.000342795
6.06534e-06
0.000341498
6.45161e-06
0.000340125
6.83245e-06
0.000338677
7.20758e-06
0.000337154
7.57678e-06
0.000335558
7.9398e-06
0.000333891
8.29644e-06
0.000332154
8.64648e-06
0.000330347
8.98975e-06
0.000328474
9.32607e-06
0.000326534
9.65528e-06
0.00032453
9.97725e-06
0.000322463
1.02918e-05
0.000320334
1.0599e-05
0.000318145
1.08985e-05
0.000315898
1.11904e-05
0.000313593
1.14746e-05
0.000311234
1.1751e-05
0.000308821
1.20195e-05
0.000306355
1.22803e-05
0.000303839
1.25332e-05
0.000301274
1.27782e-05
0.000298662
1.30155e-05
0.000296003
1.32449e-05
0.000293301
1.34666e-05
0.000290556
1.36805e-05
0.000287769
1.38868e-05
0.000284943
1.40855e-05
0.000282079
1.42767e-05
0.000279178
1.44604e-05
0.000276242
1.46369e-05
0.000273272
1.48061e-05
0.00027027
1.49681e-05