/*--------------------------------*- C++ -*----------------------------------*\
| =========                 |                                                 |
| \\      /  F ield         | OpenFOAM: The Open Source CFD Toolbox           |
|  \\    /   O peration     | Version:  v2012                                 |
|   \\  /    A nd           | Website:  www.openfoam.com                      |
|    \\/     M anipulation  |                                                 |
\*---------------------------------------------------------------------------*/
FoamFile
{
    version     2.0;
    format      ascii;
    class       volScalarField;
    location    "17.5";
    object      Psi_z;
}
// * * * * * * * * * * * * * * * * * * * * * * * * * * * * * * * * * * * * * //

dimensions      [0 2 -1 0 0 0 0];


internalField   nonuniform List<scalar> 
65536
(
8.1897e-06
2.45696e-05
4.09508e-05
5.73341e-05
7.37202e-05
9.01101e-05
0.000106505
0.000122904
0.00013931
0.000155723
0.000172143
0.000188572
0.00020501
0.000221458
0.000237916
0.000254385
0.000270866
0.00028736
0.000303866
0.000320386
0.000336919
0.000353467
0.00037003
0.000386608
0.000403201
0.00041981
0.000436435
0.000453076
0.000469733
0.000486406
0.000503095
0.0005198
0.000536522
0.000553259
0.000570011
0.000586778
0.00060356
0.000620356
0.000637165
0.000653987
0.00067082
0.000687665
0.000704519
0.000721382
0.000738253
0.00075513
0.000772012
0.000788896
0.000805783
0.000822669
0.000839553
0.000856432
0.000873305
0.000890169
0.000907022
0.000923861
0.000940683
0.000957485
0.000974264
0.000991018
0.00100774
0.00102443
0.00104109
0.0010577
0.00107427
0.00109079
0.00110726
0.00112367
0.00114002
0.0011563
0.00117251
0.00118864
0.00120469
0.00122064
0.00123651
0.00125227
0.00126793
0.00128348
0.0012989
0.00131421
0.00132937
0.0013444
0.00135929
0.00137402
0.00138859
0.001403
0.00141722
0.00143127
0.00144513
0.00145878
0.00147224
0.00148547
0.00149849
0.00151128
0.00152383
0.00153613
0.00154818
0.00155997
0.00157149
0.00158273
0.00159369
0.00160435
0.00161471
0.00162477
0.0016345
0.00164392
0.001653
0.00166174
0.00167014
0.00167819
0.00168588
0.0016932
0.00170016
0.00170673
0.00171293
0.00171873
0.00172415
0.00172917
0.00173378
0.00173799
0.00174179
0.00174518
0.00174815
0.0017507
0.00175284
0.00175455
0.00175583
0.00175669
0.00175712
0.00175713
0.00175671
0.00175586
0.00175459
0.00175289
0.00175077
0.00174823
0.00174527
0.0017419
0.00173811
0.00173391
0.0017293
0.00172429
0.00171889
0.00171309
0.0017069
0.00170033
0.00169338
0.00168606
0.00167838
0.00167033
0.00166193
0.00165318
0.00164409
0.00163467
0.00162493
0.00161486
0.00160448
0.0015938
0.00158282
0.00157155
0.00156
0.00154818
0.00153609
0.00152375
0.00151115
0.00149831
0.00148524
0.00147193
0.00145841
0.00144468
0.00143074
0.00141661
0.00140229
0.00138779
0.00137311
0.00135826
0.00134326
0.0013281
0.00131279
0.00129735
0.00128177
0.00126606
0.00125024
0.00123429
0.00121825
0.00120209
0.00118585
0.00116951
0.00115308
0.00113657
0.00111999
0.00110334
0.00108662
0.00106984
0.001053
0.00103611
0.00101917
0.00100219
0.00098516
0.000968097
0.000951
0.000933873
0.000916718
0.000899538
0.000882338
0.000865118
0.000847882
0.000830633
0.000813372
0.000796102
0.000778825
0.000761543
0.000744258
0.000726971
0.000709685
0.000692399
0.000675117
0.000657839
0.000640566
0.0006233
0.000606041
0.00058879
0.000571548
0.000554316
0.000537094
0.000519883
0.000502683
0.000485495
0.000468318
0.000451154
0.000434001
0.000416861
0.000399733
0.000382618
0.000365514
0.000348423
0.000331343
0.000314275
0.000297218
0.000280171
0.000263135
0.000246109
0.000229093
0.000212085
0.000195086
0.000178095
0.000161111
0.000144133
0.000127162
0.000110196
9.32349e-05
7.62777e-05
5.93237e-05
4.23722e-05
2.54226e-05
8.47408e-06
2.45689e-05
7.37079e-05
0.000122851
0.000172
0.000221158
0.000270327
0.000319509
0.000368708
0.000417925
0.000467162
0.000516423
0.000565709
0.000615022
0.000664364
0.000713739
0.000763146
0.000812589
0.000862069
0.000911587
0.000961146
0.00101075
0.00106039
0.00111008
0.00115981
0.00120959
0.00125942
0.00130929
0.00135921
0.00140918
0.0014592
0.00150927
0.00155939
0.00160955
0.00165976
0.00171002
0.00176032
0.00181067
0.00186106
0.00191149
0.00196195
0.00201245
0.00206299
0.00211355
0.00216414
0.00221476
0.00226539
0.00231604
0.00236669
0.00241735
0.00246801
0.00251867
0.00256931
0.00261993
0.00267052
0.00272108
0.0027716
0.00282207
0.00287248
0.00292283
0.00297309
0.00302327
0.00307334
0.00312331
0.00317316
0.00322287
0.00327244
0.00332185
0.00337108
0.00342013
0.00346898
0.00351761
0.003566
0.00361415
0.00366203
0.00370963
0.00375693
0.00380391
0.00385056
0.00389684
0.00394275
0.00398827
0.00403337
0.00407803
0.00412223
0.00416595
0.00420917
0.00425186
0.00429401
0.00433558
0.00437656
0.00441693
0.00445665
0.00449571
0.00453408
0.00457174
0.00460866
0.00464482
0.00468019
0.00471476
0.00474849
0.00478137
0.00481336
0.00484446
0.00487462
0.00490384
0.00493209
0.00495934
0.00498558
0.00501078
0.00503493
0.005058
0.00507998
0.00510085
0.00512058
0.00513917
0.0051566
0.00517285
0.0051879
0.00520175
0.00521439
0.00522579
0.00523596
0.00524487
0.00525254
0.00525893
0.00526406
0.00526792
0.0052705
0.0052718
0.00527182
0.00527056
0.00526801
0.0052642
0.0052591
0.00525274
0.00524512
0.00523623
0.0052261
0.00521473
0.00520213
0.00518831
0.00517328
0.00515706
0.00513966
0.00512109
0.00510137
0.00508052
0.00505855
0.00503549
0.00501134
0.00498613
0.00495988
0.00493261
0.00490434
0.00487509
0.00484489
0.00481375
0.00478169
0.00474875
0.00471494
0.00468028
0.00464481
0.00460854
0.00457149
0.00453369
0.00449516
0.00445593
0.00441602
0.00437545
0.00433424
0.00429243
0.00425002
0.00420705
0.00416353
0.00411949
0.00407494
0.00402992
0.00398443
0.00393851
0.00389217
0.00384542
0.0037983
0.00375082
0.00370299
0.00365484
0.00360638
0.00355763
0.0035086
0.00345932
0.0034098
0.00336004
0.00331008
0.00325992
0.00320957
0.00315905
0.00310838
0.00305755
0.00300659
0.00295551
0.00290432
0.00285303
0.00280164
0.00275017
0.00269863
0.00264703
0.00259537
0.00254366
0.00249191
0.00244012
0.00238831
0.00233648
0.00228463
0.00223277
0.00218091
0.00212905
0.00207719
0.00202534
0.00197351
0.00192169
0.00186989
0.00181811
0.00176636
0.00171463
0.00166294
0.00161127
0.00155964
0.00150804
0.00145647
0.00140494
0.00135345
0.00130199
0.00125057
0.00119919
0.00114784
0.00109653
0.00104526
0.000994016
0.000942812
0.00089164
0.000840502
0.000789394
0.000738317
0.000687268
0.000636246
0.000585249
0.000534276
0.000483325
0.000432394
0.000381481
0.000330584
0.000279701
0.000228829
0.000177968
0.000127115
7.62667e-05
2.54219e-05
4.09468e-05
0.000122842
0.000204744
0.000286657
0.000368584
0.000450529
0.000532498
0.000614493
0.000696518
0.000778579
0.000860677
0.000942818
0.001025
0.00110724
0.00118953
0.00127187
0.00135427
0.00143674
0.00151927
0.00160186
0.00168453
0.00176727
0.00185008
0.00193297
0.00201593
0.00209898
0.0021821
0.0022653
0.00234859
0.00243195
0.0025154
0.00259893
0.00268254
0.00276622
0.00284999
0.00293383
0.00301774
0.00310172
0.00318577
0.00326988
0.00335406
0.00343828
0.00352256
0.00360688
0.00369124
0.00377564
0.00386005
0.00394448
0.00402892
0.00411336
0.00419779
0.0042822
0.00436658
0.00445091
0.00453519
0.0046194
0.00470352
0.00478755
0.00487146
0.00495525
0.00503889
0.00512236
0.00520566
0.00528875
0.00537162
0.00545424
0.0055366
0.00561868
0.00570044
0.00578187
0.00586294
0.00594362
0.00602388
0.0061037
0.00618306
0.00626191
0.00634023
0.00641799
0.00649516
0.0065717
0.00664758
0.00672276
0.00679722
0.00687092
0.00694381
0.00701586
0.00708704
0.00715731
0.00722663
0.00729496
0.00736226
0.00742849
0.00749361
0.00755759
0.00762038
0.00768194
0.00774223
0.00780122
0.00785885
0.0079151
0.00796992
0.00802327
0.00807512
0.00812543
0.00817415
0.00822125
0.00826669
0.00831045
0.00835248
0.00839275
0.00843122
0.00846787
0.00850267
0.00853558
0.00856658
0.00859564
0.00862274
0.00864784
0.00867094
0.00869201
0.00871103
0.00872798
0.00874285
0.00875563
0.0087663
0.00877485
0.00878129
0.00878559
0.00878775
0.00878779
0.00878568
0.00878144
0.00877508
0.00876658
0.00875597
0.00874326
0.00872845
0.00871155
0.00869259
0.00867157
0.00864852
0.00862346
0.00859641
0.00856739
0.00853643
0.00850355
0.00846877
0.00843214
0.00839368
0.00835341
0.00831138
0.0082676
0.00822213
0.00817499
0.00812622
0.00807585
0.00802393
0.00797048
0.00791555
0.00785917
0.00780139
0.00774223
0.00768175
0.00761998
0.00755695
0.00749272
0.00742731
0.00736076
0.00729312
0.00722442
0.0071547
0.007084
0.00701235
0.00693979
0.00686637
0.0067921
0.00671704
0.00664121
0.00656465
0.00648739
0.00640946
0.0063309
0.00625174
0.00617201
0.00609174
0.00601095
0.00592968
0.00584796
0.0057658
0.00568324
0.00560031
0.00551702
0.0054334
0.00534947
0.00526526
0.00518079
0.00509607
0.00501113
0.00492598
0.00484065
0.00475515
0.00466949
0.0045837
0.00449779
0.00441178
0.00432566
0.00423947
0.00415322
0.0040669
0.00398054
0.00389415
0.00380773
0.00372129
0.00363485
0.00354841
0.00346198
0.00337556
0.00328916
0.00320279
0.00311646
0.00303016
0.0029439
0.00285769
0.00277152
0.00268541
0.00259935
0.00251335
0.00242741
0.00234153
0.0022557
0.00216994
0.00208424
0.0019986
0.00191303
0.00182751
0.00174205
0.00165666
0.00157132
0.00148603
0.0014008
0.00131562
0.0012305
0.00114542
0.00106038
0.000975389
0.000890436
0.000805519
0.000720636
0.000635783
0.000550957
0.000466154
0.000381371
0.000296605
0.000211852
0.000127107
4.23685e-05
5.73226e-05
0.000171971
0.000286628
0.000401299
0.000515991
0.000630709
0.000745459
0.000860247
0.000975077
0.00108996
0.00120489
0.00131988
0.00143494
0.00155006
0.00166526
0.00178054
0.0018959
0.00201134
0.00212688
0.00224251
0.00235824
0.00247407
0.00259001
0.00270605
0.0028222
0.00293845
0.00305483
0.00317131
0.00328791
0.00340462
0.00352145
0.00363839
0.00375544
0.0038726
0.00398988
0.00410725
0.00422473
0.00434231
0.00445999
0.00457775
0.0046956
0.00481353
0.00493152
0.00504958
0.0051677
0.00528585
0.00540405
0.00552227
0.0056405
0.00575872
0.00587694
0.00599513
0.00611327
0.00623135
0.00634936
0.00646727
0.00658507
0.00670273
0.00682023
0.00693755
0.00705467
0.00717156
0.0072882
0.00740456
0.0075206
0.00763631
0.00775165
0.00786659
0.00798109
0.00809512
0.00820865
0.00832164
0.00843405
0.00854584
0.00865698
0.00876741
0.00887711
0.00898602
0.0090941
0.0092013
0.00930758
0.00941289
0.00951718
0.0096204
0.0097225
0.00982343
0.00992314
0.0100216
0.0101187
0.0102144
0.0103087
0.0104014
0.0104927
0.0105823
0.0106702
0.0107565
0.010841
0.0109236
0.0110043
0.0110831
0.0111599
0.0112347
0.0113073
0.0113778
0.0114461
0.0115121
0.0115757
0.011637
0.0116959
0.0117524
0.0118063
0.0118576
0.0119064
0.0119525
0.0119959
0.0120366
0.0120746
0.0121098
0.0121422
0.0121717
0.0121983
0.0122221
0.0122429
0.0122608
0.0122758
0.0122878
0.0122968
0.0123028
0.0123058
0.0123059
0.0123029
0.012297
0.0122881
0.0122762
0.0122613
0.0122435
0.0122227
0.0121991
0.0121725
0.012143
0.0121108
0.0120756
0.0120377
0.0119971
0.0119537
0.0119076
0.0118589
0.0118076
0.0117537
0.0116973
0.0116384
0.011577
0.0115133
0.0114473
0.0113789
0.0113084
0.0112356
0.0111607
0.0110838
0.0110048
0.0109239
0.010841
0.0107563
0.0106697
0.0105814
0.0104914
0.0103998
0.0103066
0.0102118
0.0101156
0.010018
0.00991892
0.00981856
0.00971693
0.00961408
0.00951007
0.00940493
0.00929872
0.00919149
0.00908328
0.00897414
0.00886411
0.00875324
0.00864158
0.00852915
0.00841601
0.0083022
0.00818774
0.00807269
0.00795707
0.00784093
0.00772429
0.00760719
0.00748966
0.00737174
0.00725344
0.00713481
0.00701587
0.00689664
0.00677715
0.00665742
0.00653748
0.00641736
0.00629706
0.00617662
0.00605604
0.00593536
0.00581458
0.00569372
0.00557281
0.00545184
0.00533084
0.00520982
0.00508879
0.00496776
0.00484675
0.00472575
0.00460479
0.00448387
0.00436299
0.00424216
0.0041214
0.0040007
0.00388006
0.0037595
0.00363902
0.00351861
0.00339829
0.00327805
0.0031579
0.00303783
0.00291785
0.00279796
0.00267815
0.00255843
0.00243879
0.00231924
0.00219976
0.00208037
0.00196105
0.0018418
0.00172263
0.00160352
0.00148447
0.00136549
0.00124656
0.00112768
0.00100885
0.000890059
0.000771307
0.000652588
0.000533897
0.000415229
0.00029658
0.000177943
5.93134e-05
7.36954e-05
0.00022109
0.000368496
0.000515921
0.000663372
0.000810857
0.000958383
0.00110596
0.00125359
0.00140128
0.00154904
0.00169688
0.0018448
0.00199281
0.00214091
0.00228912
0.00243743
0.00258586
0.0027344
0.00288306
0.00303185
0.00318077
0.00332982
0.00347901
0.00362835
0.00377782
0.00392744
0.0040772
0.00422712
0.00437717
0.00452738
0.00467773
0.00482823
0.00497887
0.00512966
0.00528058
0.00543163
0.00558281
0.00573412
0.00588554
0.00603707
0.0061887
0.00634042
0.00649223
0.0066441
0.00679604
0.00694802
0.00710003
0.00725206
0.0074041
0.00755611
0.00770809
0.00786002
0.00801187
0.00816363
0.00831526
0.00846674
0.00861806
0.00876917
0.00892006
0.00907068
0.00922101
0.00937102
0.00952067
0.00966993
0.00981875
0.00996709
0.0101149
0.0102622
0.0104089
0.0105549
0.0107002
0.0108448
0.0109886
0.0111316
0.0112737
0.0114148
0.0115549
0.0116939
0.0118318
0.0119685
0.012104
0.0122382
0.012371
0.0125024
0.0126322
0.0127605
0.0128872
0.0130121
0.0131352
0.0132565
0.0133759
0.0134933
0.0136086
0.0137218
0.0138328
0.0139415
0.0140478
0.0141518
0.0142532
0.014352
0.0144482
0.0145417
0.0146324
0.0147203
0.0148052
0.0148872
0.0149661
0.0150419
0.0151145
0.0151839
0.01525
0.0153127
0.0153721
0.015428
0.0154804
0.0155293
0.0155746
0.0156162
0.0156542
0.0156885
0.0157191
0.0157459
0.015769
0.0157882
0.0158037
0.0158153
0.015823
0.0158269
0.015827
0.0158232
0.0158155
0.0158041
0.0157887
0.0157696
0.0157467
0.01572
0.0156895
0.0156553
0.0156174
0.0155758
0.0155306
0.0154818
0.0154295
0.0153736
0.0153143
0.0152516
0.0151855
0.0151162
0.0150436
0.0149678
0.0148888
0.0148068
0.0147218
0.0146339
0.0145431
0.0144495
0.0143531
0.0142541
0.0141524
0.0140482
0.0139416
0.0138326
0.0137212
0.0136076
0.0134918
0.0133739
0.013254
0.0131321
0.0130082
0.0128826
0.0127552
0.012626
0.0124953
0.012363
0.0122292
0.0120939
0.0119573
0.0118193
0.0116801
0.0115397
0.0113982
0.0112555
0.0111119
0.0109673
0.0108217
0.0106753
0.0105281
0.0103801
0.0102314
0.010082
0.00993202
0.00978141
0.00963025
0.00947858
0.00932644
0.00917386
0.00902089
0.00886755
0.00871388
0.00855991
0.00840566
0.00825118
0.00809648
0.00794159
0.00778653
0.00763134
0.00747602
0.00732061
0.00716512
0.00700957
0.00685398
0.00669836
0.00654273
0.00638711
0.0062315
0.00607592
0.00592038
0.0057649
0.00560947
0.00545411
0.00529883
0.00514364
0.00498853
0.00483352
0.0046786
0.00452379
0.00436909
0.00421449
0.00406001
0.00390564
0.00375138
0.00359723
0.00344319
0.00328926
0.00313545
0.00298174
0.00282813
0.00267463
0.00252122
0.00236791
0.00221469
0.00206156
0.00190851
0.00175553
0.00160263
0.00144979
0.00129702
0.0011443
0.000991624
0.000838994
0.0006864
0.000533836
0.000381295
0.00022877
7.62556e-05
9.00644e-05
0.000270198
0.000450345
0.000630516
0.000810719
0.000990963
0.00117126
0.00135161
0.00153203
0.00171253
0.00189312
0.00207379
0.00225457
0.00243546
0.00261647
0.00279759
0.00297885
0.00316025
0.00334179
0.00352348
0.00370533
0.00388733
0.0040695
0.00425184
0.00443435
0.00461704
0.0047999
0.00498295
0.00516617
0.00534958
0.00553317
0.00571693
0.00590088
0.006085
0.0062693
0.00645377
0.0066384
0.00682318
0.00700812
0.00719321
0.00737843
0.00756377
0.00774923
0.0079348
0.00812045
0.00830617
0.00849196
0.00867778
0.00886363
0.00904948
0.00923532
0.00942111
0.00960685
0.00979249
0.00997801
0.0101634
0.0103486
0.0105336
0.0107183
0.0109028
0.011087
0.0112708
0.0114542
0.0116372
0.0118197
0.0120017
0.012183
0.0123638
0.0125439
0.0127233
0.0129019
0.0130796
0.0132564
0.0134323
0.0136071
0.0137809
0.0139534
0.0141248
0.0142948
0.0144635
0.0146308
0.0147965
0.0149606
0.015123
0.0152837
0.0154426
0.0155995
0.0157544
0.0159073
0.016058
0.0162064
0.0163524
0.016496
0.0166371
0.0167756
0.0169114
0.0170444
0.0171745
0.0173017
0.0174258
0.0175467
0.0176645
0.0177789
0.0178899
0.0179974
0.0181013
0.0182016
0.0182982
0.0183909
0.0184798
0.0185647
0.0186456
0.0187225
0.0187951
0.0188635
0.0189277
0.0189875
0.0190429
0.0190939
0.0191405
0.0191824
0.0192199
0.0192527
0.0192809
0.0193045
0.0193234
0.0193376
0.0193471
0.0193519
0.0193519
0.0193473
0.0193379
0.0193239
0.0193051
0.0192817
0.0192536
0.0192209
0.0191836
0.0191418
0.0190954
0.0190445
0.0189892
0.0189294
0.0188654
0.018797
0.0187244
0.0186477
0.0185668
0.0184819
0.0183931
0.0183003
0.0182037
0.0181034
0.0179993
0.0178917
0.0177806
0.017666
0.0175481
0.0174269
0.0173026
0.0171751
0.0170446
0.0169112
0.016775
0.016636
0.0164943
0.0163501
0.0162033
0.0160542
0.0159027
0.015749
0.0155931
0.0154352
0.0152752
0.0151134
0.0149497
0.0147842
0.0146171
0.0144484
0.0142781
0.0141064
0.0139333
0.0137589
0.0135832
0.0134063
0.0132284
0.0130493
0.0128693
0.0126883
0.0125065
0.0123238
0.0121403
0.0119562
0.0117713
0.0115859
0.0113999
0.0112133
0.0110263
0.0108388
0.0106509
0.0104627
0.0102741
0.0100852
0.00989609
0.00970673
0.00951717
0.00932744
0.00913757
0.00894758
0.00875749
0.00856734
0.00837714
0.00818691
0.00799667
0.00780643
0.00761622
0.00742604
0.00723592
0.00704586
0.00685588
0.00666598
0.00647618
0.00628649
0.0060969
0.00590743
0.00571808
0.00552887
0.00533978
0.00515083
0.00496201
0.00477333
0.00458479
0.00439639
0.00420812
0.00401999
0.003832
0.00364413
0.0034564
0.00326879
0.0030813
0.00289393
0.00270667
0.00251952
0.00233247
0.00214551
0.00195864
0.00177185
0.00158513
0.00139849
0.0012119
0.00102536
0.000838873
0.000652419
0.000465993
0.000279588
9.31945e-05
0.000106429
0.000319292
0.000532172
0.000745079
0.000958024
0.00117102
0.00138407
0.0015972
0.0018104
0.0020237
0.0022371
0.00245061
0.00266424
0.002878
0.00309189
0.00330594
0.00352014
0.0037345
0.00394904
0.00416375
0.00437864
0.00459373
0.00480901
0.0050245
0.00524018
0.00545608
0.00567219
0.00588851
0.00610505
0.0063218
0.00653877
0.00675595
0.00697335
0.00719096
0.00740877
0.00762679
0.007845
0.0080634
0.00828199
0.00850075
0.00871966
0.00893873
0.00915794
0.00937727
0.00959671
0.00981625
0.0100358
0.0102555
0.0104752
0.0106949
0.0109146
0.0111342
0.0113538
0.0115732
0.0117925
0.0120117
0.0122306
0.0124494
0.0126678
0.0128859
0.0131036
0.013321
0.0135378
0.0137542
0.01397
0.0141851
0.0143996
0.0146134
0.0148264
0.0150385
0.0152496
0.0154598
0.0156689
0.0158769
0.0160837
0.0162892
0.0164933
0.016696
0.0168971
0.0170967
0.0172945
0.0174905
0.0176847
0.0178768
0.0180669
0.0182549
0.0184405
0.0186238
0.0188047
0.0189829
0.0191585
0.0193313
0.0195013
0.0196682
0.0198321
0.0199928
0.0201502
0.0203042
0.0204547
0.0206015
0.0207447
0.020884
0.0210194
0.0211508
0.021278
0.0214011
0.0215198
0.0216341
0.0217439
0.0218491
0.0219497
0.0220454
0.0221364
0.0222224
0.0223034
0.0223793
0.0224501
0.0225158
0.0225761
0.0226312
0.0226809
0.0227252
0.0227641
0.0227975
0.0228254
0.0228478
0.0228646
0.0228758
0.0228815
0.0228816
0.0228761
0.022865
0.0228484
0.0228262
0.0227984
0.0227652
0.0227265
0.0226823
0.0226328
0.0225778
0.0225176
0.0224521
0.0223814
0.0223056
0.0222247
0.0221387
0.0220479
0.0219522
0.0218517
0.0217465
0.0216367
0.0215223
0.0214036
0.0212805
0.0211531
0.0210215
0.020886
0.0207464
0.020603
0.0204558
0.020305
0.0201506
0.0199927
0.0198315
0.019667
0.0194994
0.0193287
0.0191551
0.0189786
0.0187994
0.0186175
0.0184331
0.0182463
0.0180571
0.0178656
0.017672
0.0174762
0.0172786
0.017079
0.0168776
0.0166745
0.0164697
0.0162634
0.0160557
0.0158465
0.015636
0.0154243
0.0152114
0.0149974
0.0147823
0.0145663
0.0143494
0.0141316
0.0139131
0.0136938
0.0134738
0.0132533
0.0130321
0.0128105
0.0125883
0.0123658
0.0121428
0.0119195
0.0116959
0.0114721
0.011248
0.0110237
0.0107992
0.0105746
0.0103499
0.0101252
0.00990033
0.00967547
0.0094506
0.00922573
0.0090009
0.00877612
0.0085514
0.00832676
0.00810221
0.00787776
0.00765343
0.00742923
0.00720515
0.00698122
0.00675744
0.00653381
0.00631034
0.00608702
0.00586387
0.00564089
0.00541806
0.00519541
0.00497292
0.00475059
0.00452842
0.0043064
0.00408454
0.00386283
0.00364127
0.00341984
0.00319855
0.00297738
0.00275633
0.00253539
0.00231456
0.00209383
0.00187318
0.00165262
0.00143212
0.00121169
0.000991309
0.000770973
0.000550671
0.000330393
0.000110129
0.000122788
0.000368369
0.00061397
0.000859603
0.00110528
0.00135101
0.00159682
0.0018427
0.00208868
0.00233477
0.00258097
0.0028273
0.00307377
0.00332039
0.00356717
0.00381412
0.00406126
0.00430858
0.0045561
0.00480383
0.00505177
0.00529993
0.00554832
0.00579694
0.00604581
0.00629491
0.00654426
0.00679386
0.0070437
0.0072938
0.00754415
0.00779476
0.00804561
0.0082967
0.00854804
0.00879961
0.00905141
0.00930344
0.00955568
0.00980812
0.0100607
0.0103136
0.0105665
0.0108196
0.0110729
0.0113262
0.0115797
0.0118332
0.0120867
0.0123403
0.0125938
0.0128473
0.0131008
0.0133541
0.0136072
0.0138602
0.0141129
0.0143654
0.0146176
0.0148693
0.0151207
0.0153716
0.0156219
0.0158717
0.0161209
0.0163693
0.0166169
0.0168637
0.0171096
0.0173546
0.0175984
0.0178411
0.0180826
0.0183228
0.0185616
0.0187989
0.0190347
0.0192687
0.0195011
0.0197315
0.01996
0.0201865
0.0204107
0.0206327
0.0208523
0.0210694
0.0212839
0.0214957
0.0217046
0.0219106
0.0221134
0.0223131
0.0225095
0.0227024
0.0228918
0.0230775
0.0232594
0.0234373
0.0236113
0.023781
0.0239464
0.0241075
0.024264
0.0244158
0.0245629
0.0247052
0.0248424
0.0249745
0.0251015
0.0252231
0.0253393
0.02545
0.0255552
0.0256546
0.0257483
0.0258361
0.025918
0.0259938
0.0260637
0.0261273
0.0261848
0.0262361
0.026281
0.0263196
0.0263519
0.0263777
0.0263972
0.0264102
0.0264167
0.0264168
0.0264105
0.0263977
0.0263784
0.0263528
0.0263207
0.0262823
0.0262375
0.0261864
0.0261291
0.0260656
0.025996
0.0259202
0.0258385
0.0257508
0.0256573
0.025558
0.0254529
0.0253423
0.0252261
0.0251045
0.0249776
0.0248454
0.0247081
0.0245658
0.0244186
0.0242666
0.0241098
0.0239486
0.0237828
0.0236127
0.0234384
0.02326
0.0230775
0.0228912
0.0227012
0.0225075
0.0223103
0.0221097
0.0219058
0.0216987
0.0214886
0.0212756
0.0210597
0.0208412
0.02062
0.0203963
0.0201702
0.0199419
0.0197114
0.0194788
0.0192442
0.0190077
0.0187695
0.0185295
0.018288
0.0180449
0.0178004
0.0175546
0.0173075
0.0170592
0.0168097
0.0165593
0.0163078
0.0160555
0.0158023
0.0155484
0.0152938
0.0150385
0.0147826
0.0145261
0.0142692
0.0140119
0.0137541
0.013496
0.0132376
0.012979
0.0127201
0.012461
0.0122018
0.0119425
0.011683
0.0114236
0.011164
0.0109045
0.010645
0.0103855
0.0101261
0.0098668
0.00960756
0.00934843
0.00908942
0.00883056
0.00857183
0.00831327
0.00805487
0.00779664
0.0075386
0.00728073
0.00702306
0.00676557
0.00650828
0.00625117
0.00599427
0.00573755
0.00548102
0.00522468
0.00496852
0.00471254
0.00445673
0.00420109
0.00394562
0.00369029
0.00343512
0.00318008
0.00292517
0.00267039
0.00241572
0.00216115
0.00190667
0.00165228
0.00139796
0.0011437
0.000889494
0.000635325
0.000381184
0.000127059
0.00013914
0.000417427
0.000695737
0.000974082
0.00125248
0.00153094
0.00180948
0.00208811
0.00236685
0.00264571
0.00292471
0.00320385
0.00348315
0.00376262
0.00404228
0.00432213
0.00460219
0.00488246
0.00516296
0.00544369
0.00572467
0.0060059
0.0062874
0.00656915
0.00685118
0.00713349
0.00741608
0.00769895
0.00798211
0.00826555
0.00854929
0.00883331
0.00911762
0.0094022
0.00968707
0.0099722
0.0102576
0.0105433
0.0108292
0.0111153
0.0114017
0.0116882
0.011975
0.0122619
0.012549
0.0128362
0.0131235
0.0134108
0.0136983
0.0139857
0.0142732
0.0145606
0.0148479
0.0151351
0.0154221
0.0157089
0.0159955
0.0162818
0.0165677
0.0168532
0.0171382
0.0174227
0.0177066
0.0179899
0.0182725
0.0185542
0.0188351
0.019115
0.0193939
0.0196717
0.0199483
0.0202237
0.0204976
0.0207701
0.021041
0.0213102
0.0215777
0.0218433
0.0221068
0.0223683
0.0226276
0.0228845
0.023139
0.0233909
0.0236402
0.0238866
0.02413
0.0243703
0.0246075
0.0248413
0.0250716
0.0252982
0.0255212
0.0257402
0.0259552
0.026166
0.0263725
0.0265745
0.026772
0.0269647
0.0271526
0.0273355
0.0275132
0.0276857
0.0278527
0.0280142
0.0281701
0.0283202
0.0284643
0.0286025
0.0287345
0.0288603
0.0289797
0.0290926
0.029199
0.0292988
0.0293918
0.029478
0.0295573
0.0296296
0.0296949
0.0297531
0.0298042
0.0298481
0.0298847
0.0299141
0.0299362
0.029951
0.0299584
0.0299585
0.0299513
0.0299368
0.0299149
0.0298857
0.0298493
0.0298057
0.0297548
0.0296968
0.0296317
0.0295595
0.0294804
0.0293944
0.0293016
0.029202
0.0290957
0.0289829
0.0288636
0.0287379
0.028606
0.0284679
0.0283237
0.0281736
0.0280177
0.0278561
0.0276889
0.0275163
0.0273383
0.0271552
0.026967
0.0267738
0.0265759
0.0263733
0.0261662
0.0259547
0.025739
0.0255191
0.0252953
0.0250676
0.0248362
0.0246011
0.0243627
0.0241209
0.0238759
0.0236279
0.0233769
0.0231231
0.0228665
0.0226074
0.0223459
0.022082
0.0218158
0.0215475
0.0212772
0.021005
0.020731
0.0204553
0.0201779
0.019899
0.0196187
0.0193371
0.0190542
0.0187701
0.018485
0.0181988
0.0179117
0.0176237
0.0173349
0.0170454
0.0167552
0.0164645
0.0161731
0.0158813
0.0155891
0.0152964
0.0150035
0.0147102
0.0144167
0.014123
0.0138291
0.0135351
0.013241
0.0129468
0.0126526
0.0123584
0.0120642
0.0117701
0.0114761
0.0111821
0.0108883
0.0105945
0.010301
0.0100075
0.00971428
0.00942122
0.00912834
0.00883567
0.0085432
0.00825094
0.0079589
0.00766708
0.00737547
0.00708409
0.00679293
0.00650199
0.00621127
0.00592076
0.00563046
0.00534036
0.00505046
0.00476076
0.00447124
0.00418189
0.00389272
0.0036037
0.00331483
0.00302611
0.00273751
0.00244903
0.00216065
0.00187237
0.00158417
0.00129604
0.00100797
0.00071995
0.000431957
0.000143984
0.000155485
0.000466464
0.000777467
0.00108851
0.00139961
0.00171079
0.00202205
0.00233342
0.0026449
0.00295653
0.0032683
0.00358024
0.00389236
0.00420467
0.00451719
0.00482993
0.0051429
0.00545611
0.00576958
0.00608331
0.00639732
0.00671162
0.0070262
0.00734109
0.00765628
0.00797179
0.00828761
0.00860375
0.00892022
0.00923701
0.00955413
0.00987158
0.0101893
0.0105074
0.0108258
0.0111445
0.0114635
0.0117828
0.0121024
0.0124223
0.0127423
0.0130627
0.0133832
0.013704
0.0140249
0.014346
0.0146671
0.0149884
0.0153098
0.0156312
0.0159525
0.0162739
0.0165951
0.0169163
0.0172372
0.0175579
0.0178784
0.0181985
0.0185182
0.0188375
0.0191563
0.0194745
0.019792
0.0201088
0.0204248
0.02074
0.0210542
0.0213673
0.0216793
0.0219901
0.0222995
0.0226075
0.022914
0.0232189
0.023522
0.0238233
0.0241225
0.0244197
0.0247147
0.0250074
0.0252975
0.0255851
0.0258699
0.0261519
0.0264308
0.0267067
0.0269792
0.0272482
0.0275137
0.0277754
0.0280333
0.0282871
0.0285367
0.028782
0.0290227
0.0292588
0.0294901
0.0297163
0.0299375
0.0301534
0.0303638
0.0305686
0.0307677
0.0309609
0.031148
0.0313289
0.0315036
0.0316717
0.0318332
0.031988
0.0321359
0.0322768
0.0324106
0.0325372
0.0326564
0.0327682
0.0328724
0.032969
0.0330579
0.033139
0.0332121
0.0332774
0.0333346
0.0333838
0.0334249
0.0334578
0.0334826
0.0334991
0.0335075
0.0335076
0.0334995
0.0334832
0.0334587
0.033426
0.0333852
0.0333362
0.0332792
0.0332142
0.0331413
0.0330604
0.0329718
0.0328754
0.0327714
0.0326598
0.0325407
0.0324143
0.0322806
0.0321398
0.031992
0.0318373
0.0316758
0.0315076
0.031333
0.0311519
0.0309647
0.0307713
0.030572
0.0303668
0.0301561
0.0299398
0.0297181
0.0294913
0.0292593
0.0290225
0.0287809
0.0285348
0.0282841
0.0280292
0.0277701
0.027507
0.0272401
0.0269694
0.0266952
0.0264175
0.0261366
0.0258525
0.0255654
0.0252754
0.0249827
0.0246874
0.0243895
0.0240893
0.0237869
0.0234823
0.0231757
0.0228672
0.0225569
0.0222449
0.0219314
0.0216163
0.0212998
0.0209821
0.0206631
0.020343
0.0200219
0.0196998
0.0193768
0.019053
0.0187285
0.0184033
0.0180775
0.0177512
0.0174244
0.0170972
0.0167696
0.0164417
0.0161135
0.0157851
0.0154565
0.0151278
0.014799
0.0144701
0.0141412
0.0138123
0.0134834
0.0131546
0.0128259
0.0124973
0.0121688
0.0118405
0.0115123
0.0111843
0.0108566
0.010529
0.0102016
0.00987449
0.00954759
0.00922094
0.00889453
0.00856836
0.00824245
0.00791679
0.00759138
0.00726622
0.0069413
0.00661663
0.00629219
0.00596798
0.005644
0.00532024
0.00499668
0.00467333
0.00435016
0.00402717
0.00370435
0.00338169
0.00305918
0.0027368
0.00241453
0.00209238
0.00177031
0.00144833
0.00112641
0.000804543
0.000482711
0.000160901
0.000171822
0.000515475
0.000859156
0.00120288
0.00154667
0.00189054
0.00223451
0.0025786
0.00292282
0.00326719
0.00361173
0.00395645
0.00430138
0.00464651
0.00499188
0.00533749
0.00568337
0.00602951
0.00637593
0.00672266
0.00706969
0.00741703
0.00776471
0.00811272
0.00846107
0.00880977
0.00915882
0.00950823
0.00985801
0.0102081
0.0105587
0.0109095
0.0112607
0.0116123
0.0119643
0.0123166
0.0126692
0.0130221
0.0133754
0.013729
0.0140828
0.0144369
0.0147913
0.0151459
0.0155007
0.0158556
0.0162107
0.016566
0.0169213
0.0172766
0.017632
0.0179873
0.0183425
0.0186976
0.0190525
0.0194072
0.0197616
0.0201156
0.0204692
0.0208223
0.0211749
0.0215268
0.0218781
0.0222285
0.0225781
0.0229267
0.0232743
0.0236207
0.0239659
0.0243098
0.0246521
0.024993
0.0253321
0.0256695
0.0260049
0.0263383
0.0266695
0.0269984
0.0273249
0.0276488
0.02797
0.0282884
0.0286037
0.0289158
0.0292247
0.02953
0.0298318
0.0301297
0.0304237
0.0307135
0.0309991
0.0312802
0.0315566
0.0318283
0.0320949
0.0323564
0.0326126
0.0328633
0.0331083
0.0333474
0.0335805
0.0338075
0.0340281
0.0342421
0.0344495
0.03465
0.0348435
0.0350298
0.0352088
0.0353804
0.0355443
0.0357005
0.0358488
0.0359891
0.0361213
0.0362452
0.0363607
0.0364678
0.0365663
0.0366562
0.0367373
0.0368096
0.0368731
0.0369276
0.0369731
0.0370096
0.0370371
0.0370554
0.0370647
0.0370648
0.0370559
0.0370378
0.0370106
0.0369744
0.0369291
0.0368749
0.0368117
0.0367396
0.0366588
0.0365692
0.0364709
0.036364
0.0362487
0.036125
0.0359931
0.0358529
0.0357048
0.0355487
0.0353849
0.0352134
0.0350345
0.0348481
0.0346546
0.034454
0.0342465
0.0340323
0.0338114
0.0335842
0.0333507
0.0331111
0.0328655
0.0326142
0.0323573
0.032095
0.0318275
0.0315548
0.0312773
0.0309949
0.030708
0.0304167
0.0301211
0.0298215
0.0295178
0.0292105
0.0288994
0.0285849
0.0282671
0.0279462
0.0276222
0.0272953
0.0269656
0.0266334
0.0262987
0.0259616
0.0256224
0.025281
0.0249376
0.0245924
0.0242455
0.0238969
0.0235468
0.0231952
0.0228424
0.0224883
0.0221331
0.0217768
0.0214195
0.0210614
0.0207025
0.0203428
0.0199825
0.0196216
0.0192602
0.0188983
0.018536
0.0181734
0.0178105