/*--------------------------------*- C++ -*----------------------------------*\
| =========                 |                                                 |
| \\      /  F ield         | OpenFOAM: The Open Source CFD Toolbox           |
|  \\    /   O peration     | Version:  v2012                                 |
|   \\  /    A nd           | Website:  www.openfoam.com                      |
|    \\/     M anipulation  |                                                 |
\*---------------------------------------------------------------------------*/
FoamFile
{
    version     2.0;
    format      ascii;
    class       volScalarField;
    location    "8.9";
    object      Psi_z;
}
// * * * * * * * * * * * * * * * * * * * * * * * * * * * * * * * * * * * * * //

dimensions      [0 2 -1 0 0 0 0];


internalField   nonuniform List<scalar> 
65536
(
9.24667e-06
2.77401e-05
4.62337e-05
6.47276e-05
8.3222e-05
0.000101717
0.000120213
0.000138709
0.000157206
0.000175704
0.000194202
0.000212702
0.000231201
0.000249702
0.000268202
0.000286703
0.000305203
0.000323702
0.0003422
0.000360697
0.000379192
0.000397683
0.000416172
0.000434655
0.000453134
0.000471606
0.000490071
0.000508527
0.000526974
0.000545409
0.000563832
0.000582241
0.000600633
0.000619007
0.000637362
0.000655695
0.000674004
0.000692286
0.000710539
0.000728761
0.000746948
0.000765099
0.000783209
0.000801276
0.000819296
0.000837266
0.000855182
0.000873041
0.000890839
0.000908572
0.000926235
0.000943824
0.000961335
0.000978764
0.000996104
0.00101335
0.0010305
0.00104755
0.00106449
0.00108132
0.00109803
0.00111461
0.00113107
0.00114739
0.00116357
0.0011796
0.00119547
0.00121119
0.00122673
0.00124211
0.00125731
0.00127232
0.00128714
0.00130176
0.00131617
0.00133038
0.00134436
0.00135812
0.00137165
0.00138495
0.00139799
0.00141079
0.00142333
0.0014356
0.00144761
0.00145934
0.00147079
0.00148195
0.00149281
0.00150338
0.00151364
0.00152359
0.00153323
0.00154255
0.00155154
0.0015602
0.00156853
0.00157652
0.00158417
0.00159147
0.00159843
0.00160503
0.00161127
0.00161716
0.00162268
0.00162784
0.00163264
0.00163707
0.00164113
0.00164482
0.00164814
0.0016511
0.00165367
0.00165588
0.00165772
0.00165919
0.00166028
0.00166101
0.00166137
0.00166137
0.001661
0.00166026
0.00165917
0.00165772
0.00165592
0.00165376
0.00165126
0.00164841
0.00164522
0.00164169
0.00163783
0.00163364
0.00162912
0.00162429
0.00161913
0.00161367
0.00160789
0.00160182
0.00159545
0.00158879
0.00158184
0.00157461
0.00156711
0.00155933
0.0015513
0.001543
0.00153445
0.00152565
0.00151661
0.00150734
0.00149783
0.0014881
0.00147815
0.00146799
0.00145762
0.00144705
0.00143628
0.00142532
0.00141418
0.00140285
0.00139135
0.00137969
0.00136786
0.00135587
0.00134373
0.00133144
0.001319
0.00130643
0.00129373
0.00128089
0.00126793
0.00125486
0.00124167
0.00122837
0.00121496
0.00120145
0.00118784
0.00117414
0.00116035
0.00114648
0.00113252
0.00111848
0.00110437
0.00109019
0.00107594
0.00106162
0.00104725
0.00103281
0.00101832
0.00100378
0.000989186
0.000974546
0.000959862
0.000945136
0.00093037
0.000915566
0.000900728
0.000885858
0.000870956
0.000856026
0.000841069
0.000826088
0.000811083
0.000796057
0.000781011
0.000765948
0.000750867
0.000735771
0.000720661
0.000705539
0.000690405
0.000675261
0.000660108
0.000644946
0.000629778
0.000614603
0.000599423
0.000584238
0.000569049
0.000553857
0.000538663
0.000523467
0.000508269
0.000493071
0.000477873
0.000462674
0.000447476
0.000432279
0.000417083
0.000401888
0.000386695
0.000371504
0.000356315
0.000341129
0.000325944
0.000310762
0.000295583
0.000280405
0.000265231
0.000250059
0.000234889
0.000219722
0.000204558
0.000189395
0.000174235
0.000159077
0.00014392
0.000128766
0.000113613
9.84616e-05
8.33115e-05
6.81624e-05
5.30143e-05
3.78668e-05
2.27199e-05
7.57327e-06
2.77399e-05
8.32201e-05
0.000138701
0.000194182
0.000249666
0.00030515
0.000360637
0.000416126
0.000471617
0.000527111
0.000582606
0.000638104
0.000693604
0.000749105
0.000804606
0.000860108
0.000915609
0.000971107
0.0010266
0.00108209
0.00113758
0.00119305
0.00124852
0.00130397
0.00135941
0.00141483
0.00147022
0.00152559
0.00158093
0.00163624
0.00169151
0.00174674
0.00180192
0.00185704
0.00191211
0.00196711
0.00202204
0.00207689
0.00213165
0.00218632
0.00224088
0.00229534
0.00234967
0.00240387
0.00245794
0.00251185
0.0025656
0.00261918
0.00267258
0.00272578
0.00277878
0.00283155
0.00288409
0.00293638
0.0029884
0.00304015
0.00309161
0.00314276
0.00319359
0.00324408
0.00329421
0.00334397
0.00339334
0.00344231
0.00349084
0.00353894
0.00358657
0.00363372
0.00368037
0.00372651
0.00377211
0.00381715
0.00386161
0.00390548
0.00394873
0.00399135
0.00403331
0.0040746
0.0041152
0.00415508
0.00419422
0.00423262
0.00427024
0.00430707
0.0043431
0.00437829
0.00441264
0.00444613
0.00447873
0.00451044
0.00454123
0.0045711
0.00460001
0.00462797
0.00465495
0.00468094
0.00470593
0.00472991
0.00475285
0.00477476
0.00479563
0.00481543
0.00483417
0.00485183
0.0048684
0.00488389
0.00489828
0.00491157
0.00492376
0.00493483
0.0049448
0.00495365
0.00496139
0.00496802
0.00497353
0.00497793
0.00498121
0.0049834
0.00498448
0.00498446
0.00498335
0.00498115
0.00497787
0.00497352
0.00496811
0.00496164
0.00495412
0.00494557
0.004936
0.00492541
0.00491382
0.00490124
0.00488769
0.00487317
0.0048577
0.0048413
0.00482398
0.00480575
0.00478664
0.00476665
0.0047458
0.00472411
0.00470159
0.00467826
0.00465414
0.00462924
0.00460359
0.00457719
0.00455007
0.00452223
0.00449371
0.00446451
0.00443466
0.00440417
0.00437305
0.00434133
0.00430902
0.00427614
0.0042427
0.00420873
0.00417423
0.00413922
0.00410372
0.00406775
0.00403132
0.00399444
0.00395714
0.00391942
0.0038813
0.0038428
0.00380392
0.00376469
0.00372511
0.0036852
0.00364497
0.00360444
0.00356362
0.00352251
0.00348114
0.00343951
0.00339763
0.00335552
0.00331318
0.00327063
0.00322788
0.00318493
0.0031418
0.00309849
0.00305502
0.00301138
0.0029676
0.00292368
0.00287963
0.00283544
0.00279114
0.00274673
0.00270222
0.0026576
0.00261289
0.0025681
0.00252323
0.00247828
0.00243327
0.00238819
0.00234305
0.00229786
0.00225261
0.00220733
0.00216199
0.00211663
0.00207122
0.00202579
0.00198033
0.00193484
0.00188934
0.00184381
0.00179827
0.00175272
0.00170715
0.00166157
0.00161599
0.0015704
0.00152481
0.00147921
0.00143362
0.00138802
0.00134243
0.00129683
0.00125125
0.00120566
0.00116008
0.00111451
0.00106894
0.00102338
0.000977829
0.000932283
0.000886744
0.000841213
0.00079569
0.000750174
0.000704665
0.000659164
0.00061367
0.000568183
0.000522702
0.000477228
0.000431759
0.000386296
0.000340838
0.000295383
0.000249933
0.000204486
0.000159042
0.0001136
6.81594e-05
2.27197e-05
4.6233e-05
0.000138699
0.000231167
0.000323636
0.000416107
0.000508582
0.000601059
0.000693541
0.000786026
0.000878515
0.000971008
0.0010635
0.001156
0.00124851
0.00134101
0.00143351
0.00152602
0.00161852
0.00171101
0.0018035
0.00189597
0.00198843
0.00208088
0.0021733
0.0022657
0.00235807
0.0024504
0.00254269
0.00263493
0.00272711
0.00281923
0.00291128
0.00300325
0.00309514
0.00318692
0.00327859
0.00337015
0.00346157
0.00355285
0.00364397
0.00373493
0.00382569
0.00391626
0.00400661
0.00409673
0.0041866
0.0042762
0.00436551
0.00445452
0.0045432
0.00463154
0.00471951
0.00480709
0.00489425
0.00498098
0.00506725
0.00515303
0.0052383
0.00532303
0.0054072
0.00549077
0.00557372
0.00565602
0.00573765
0.00581856
0.00589874
0.00597815
0.00605676
0.00613453
0.00621145
0.00628746
0.00636255
0.00643668
0.00650982
0.00658193
0.00665298
0.00672294
0.00679178
0.00685945
0.00692594
0.00699121
0.00705522
0.00711795
0.00717936
0.00723941
0.00729809
0.00735536
0.00741119
0.00746555
0.00751842
0.00756976
0.00761954
0.00766776
0.00771437
0.00775935
0.00780268
0.00784435
0.00788432
0.00792258
0.00795911
0.00799389
0.0080269
0.00805814
0.00808758
0.00811521
0.00814103
0.00816502
0.00818718
0.00820749
0.00822596
0.00824257
0.00825732
0.00827022
0.00828126
0.00829045
0.00829777
0.00830325
0.00830689
0.00830868
0.00830864
0.00830678
0.00830311
0.00829764
0.00829038
0.00828135
0.00827056
0.00825802
0.00824376
0.00822779
0.00821013
0.0081908
0.00816982
0.00814721
0.008123
0.00809721
0.00806986
0.00804097
0.00801058
0.0079787
0.00794537
0.0079106
0.00787443
0.00783688
0.00779798
0.00775776
0.00771625
0.00767347
0.00762945
0.00758423
0.00753782
0.00749027
0.00744159
0.00739181
0.00734097
0.00728909
0.00723621
0.00718234
0.00712752
0.00707177
0.00701512
0.00695761
0.00689925
0.00684007
0.0067801
0.00671936
0.00665788
0.00659569
0.00653281
0.00646926
0.00640507
0.00634026
0.00627486
0.00620888
0.00614235
0.00607529
0.00600773
0.00593967
0.00587115
0.00580218
0.00573279
0.00566298
0.00559278
0.00552221
0.00545128
0.00538001
0.00530842
0.00523653
0.00516434
0.00509187
0.00501914
0.00494616
0.00487295
0.00479951
0.00472587
0.00465203
0.004578
0.0045038
0.00442944
0.00435492
0.00428026
0.00420547
0.00413055
0.00405552
0.00398038
0.00390514
0.00382982
0.00375441
0.00367892
0.00360337
0.00352775
0.00345207
0.00337635
0.00330058
0.00322476
0.00314892
0.00307304
0.00299713
0.00292121
0.00284526
0.0027693
0.00269332
0.00261734
0.00254135
0.00246535
0.00238936
0.00231337
0.00223737
0.00216139
0.0020854
0.00200943
0.00193347
0.00185751
0.00178156
0.00170563
0.00162971
0.0015538
0.0014779
0.00140201
0.00132614
0.00125028
0.00117443
0.0010986
0.00102278
0.000946964
0.000871164
0.000795373
0.000719593
0.000643821
0.000568058
0.000492301
0.000416552
0.000340807
0.000265068
0.000189332
0.000113598
3.78658e-05
6.47257e-05
0.000194178
0.000323631
0.000453087
0.000582546
0.00071201
0.000841478
0.000970952
0.00110043
0.00122992
0.00135941
0.0014889
0.0016184
0.00174791
0.00187741
0.00200692
0.00213643
0.00226593
0.00239543
0.00252491
0.00265438
0.00278383
0.00291326
0.00304266
0.00317202
0.00330134
0.00343062
0.00355983
0.00368897
0.00381804
0.00394702
0.00407591
0.00420468
0.00433333
0.00446184
0.0045902
0.00471839
0.0048464
0.00497421
0.0051018
0.00522916
0.00535625
0.00548307
0.00560958
0.00573577
0.00586161
0.00598708
0.00611214
0.00623679
0.00636097
0.00648467
0.00660786
0.0067305
0.00685257
0.00697402
0.00709483
0.00721496
0.00733437
0.00745303
0.0075709
0.00768795
0.00780412
0.00791938
0.0080337
0.00814702
0.00825932
0.00837053
0.00848063
0.00858956
0.00869728
0.00880375
0.00890892
0.00901275
0.00911518
0.00921618
0.0093157
0.00941369
0.00951011
0.0096049
0.00969803
0.00978945
0.00987911
0.00996697
0.010053
0.0101371
0.0102193
0.0102995
0.0103777
0.0104539
0.0105279
0.0105998
0.0106696
0.0107371
0.0108024
0.0108654
0.0109261
0.0109845
0.0110404
0.011094
0.0111452
0.0111939
0.0112402
0.0112839
0.0113251
0.0113638
0.0114
0.0114336
0.0114646
0.0114931
0.0115189
0.0115422
0.0115629
0.0115809
0.0115964
0.0116092
0.0116195
0.0116271
0.0116322
0.0116347
0.0116347
0.011632
0.0116269
0.0116192
0.011609
0.0115964
0.0115812
0.0115636
0.0115437
0.0115213
0.0114965
0.0114694
0.01144
0.0114083
0.0113744
0.0113383
0.0113
0.0112595
0.0112169
0.0111722
0.0111255
0.0110768
0.0110261
0.0109735
0.010919
0.0108627
0.0108045
0.0107446
0.0106829
0.0106196
0.0105546
0.0104879
0.0104198
0.01035
0.0102788
0.0102061
0.0101321
0.0100566
0.00997982
0.00990174
0.00982239
0.00974183
0.00966009
0.0095772
0.00949321
0.00940814
0.00932204
0.00923493
0.00914687
0.00905787
0.00896797
0.0088772
0.0087856
0.0086932
0.00860003
0.00850612
0.0084115
0.0083162
0.00822024
0.00812366
0.00802647
0.00792872
0.00783042
0.00773159
0.00763227
0.00753247
0.00743222
0.00733155
0.00723046
0.00712899
0.00702714
0.00692496
0.00682244
0.00671961
0.00661649
0.0065131
0.00640945
0.00630555
0.00620143
0.00609709
0.00599255
0.00588783
0.00578293
0.00567787
0.00557267
0.00546733
0.00536186
0.00525628
0.00515059
0.0050448
0.00493893
0.00483298
0.00472695
0.00462086
0.00451472
0.00440853
0.00430229
0.00419602
0.00408971
0.00398338
0.00387703
0.00377066
0.00366428
0.00355789
0.0034515
0.0033451
0.00323871
0.00313232
0.00302593
0.00291956
0.00281319
0.00270684
0.0026005
0.00249417
0.00238786
0.00228157
0.0021753
0.00206904
0.0019628
0.00185658
0.00175038
0.00164419
0.00153802
0.00143187
0.00132573
0.00121961
0.00111351
0.00100742
0.000901338
0.00079527
0.000689213
0.000583165
0.000477124
0.00037109
0.000265061
0.000159035
5.30114e-05
8.3218e-05
0.000249655
0.000416093
0.000582535
0.000748981
0.000915433
0.00108189
0.00124836
0.00141483
0.00158131
0.0017478
0.0019143
0.0020808
0.00224731
0.00241382
0.00258033
0.00274684
0.00291335
0.00307985
0.00324634
0.00341281
0.00357926
0.00374567
0.00391205
0.00407839
0.00424467
0.00441089
0.00457704
0.0047431
0.00490906
0.00507491
0.00524064
0.00540623
0.00557166
0.00573691
0.00590197
0.00606682
0.00623144
0.00639579
0.00655987
0.00672365
0.00688709
0.00705017
0.00721287
0.00737516
0.007537
0.00769836
0.00785921
0.00801951
0.00817922
0.00833832
0.00849676
0.00865449
0.00881149
0.0089677
0.00912309
0.0092776
0.0094312
0.00958383
0.00973544
0.00988599
0.0100354
0.0101837
0.0103307
0.0104765
0.010621
0.010764
0.0109057
0.0110458
0.0111844
0.0113213
0.0114566
0.0115902
0.011722
0.0118519
0.01198
0.012106
0.0122301
0.012352
0.0124718
0.0125894
0.0127048
0.0128178
0.0129285
0.0130367
0.0131425
0.0132457
0.0133463
0.0134443
0.0135396
0.0136321
0.0137218
0.0138087
0.0138927
0.0139738
0.0140519
0.0141269
0.014199
0.0142679
0.0143337
0.0143964
0.0144559
0.0145122
0.0145652
0.014615
0.0146615
0.0147048
0.0147447
0.0147813
0.0148145
0.0148444
0.014871
0.0148942
0.0149141
0.0149306
0.0149438
0.0149536
0.0149601
0.0149633
0.0149632
0.0149598
0.0149532
0.0149433
0.0149301
0.0149138
0.0148943
0.0148717
0.0148459
0.0148171
0.0147852
0.0147504
0.0147125
0.0146717
0.0146281
0.0145815
0.0145322
0.0144801
0.0144253
0.0143678
0.0143077
0.014245
0.0141798
0.0141121
0.0140419
0.0139694
0.0138946
0.0138174
0.0137381
0.0136566
0.0135729
0.0134872
0.0133995
0.0133097
0.0132181
0.0131246
0.0130293
0.0129322
0.0128334
0.012733
0.0126309
0.0125272
0.0124221
0.0123154
0.0122074
0.012098
0.0119872
0.0118751
0.0117619
0.0116474
0.0115317
0.011415
0.0112972
0.0111783
0.0110585
0.0109377
0.010816
0.0106934
0.01057
0.0104457
0.0103207
0.010195
0.0100686
0.00994148
0.00981373
0.00968538
0.00955646
0.00942697
0.00929697
0.00916647
0.0090355
0.00890408
0.00877224
0.00864001
0.0085074
0.00837443
0.00824114
0.00810753
0.00797363
0.00783946
0.00770503
0.00757036
0.00743547
0.00730038
0.0071651
0.00702964
0.00689402
0.00675825
0.00662235
0.00648632
0.00635019
0.00621395
0.00607762
0.00594121
0.00580473
0.00566818
0.00553158
0.00539494
0.00525825
0.00512153
0.00498479
0.00484802
0.00471124
0.00457444
0.00443765
0.00430085
0.00416405
0.00402725
0.00389047
0.0037537
0.00361694
0.0034802
0.00334347
0.00320677
0.00307008
0.00293342
0.00279678
0.00266016
0.00252357
0.002387
0.00225045
0.00211393
0.00197743
0.00184095
0.00170449
0.00156805
0.00143163
0.00129523
0.00115884
0.00102247
0.000886116
0.00074977
0.000613434
0.000477107
0.000340786
0.00020447
6.81563e-05
0.00010171
0.000305129
0.000508552
0.000711978
0.000915411
0.00111885
0.0013223
0.00152575
0.00172922
0.0019327
0.00213619
0.00233968
0.00254319
0.0027467
0.00295022
0.00315374
0.00335726
0.00356078
0.00376429
0.00396778
0.00417126
0.00437471
0.00457812
0.00478149
0.00498481
0.00518806
0.00539124
0.00559433
0.00579732
0.00600019
0.00620293
0.00640552
0.00660794
0.00681016
0.00701218
0.00721396
0.00741549
0.00761673
0.00781765
0.00801824
0.00821846
0.00841828
0.00861767
0.00881659
0.009015
0.00921286
0.00941015
0.00960681
0.00980281
0.0099981
0.0101926
0.0103864
0.0105792
0.0107712
0.0109622
0.0111522
0.0113412
0.011529
0.0117156
0.011901
0.0120852
0.0122679
0.0124492
0.0126291
0.0128073
0.012984
0.013159
0.0133322
0.0135036
0.0136731
0.0138406
0.0140061
0.0141694
0.0143306
0.0144896
0.0146462
0.0148004
0.0149521
0.0151013
0.0152478
0.0153917
0.0155328
0.0156711
0.0158065
0.0159389
0.0160682
0.0161945
0.0163176
0.0164374
0.0165539
0.0166671
0.0167769
0.0168832
0.0169859
0.0170851
0.0171806
0.0172725
0.0173606
0.0174449
0.0175254
0.0176021
0.0176749
0.0177437
0.0178086
0.0178695
0.0179264
0.0179792
0.018028
0.0180728
0.0181134
0.01815
0.0181825
0.0182109
0.0182351
0.0182553
0.0182714
0.0182834
0.0182913
0.0182952
0.0182951
0.0182909
0.0182827
0.0182706
0.0182545
0.0182345
0.0182106
0.0181829
0.0181513
0.018116
0.018077
0.0180343
0.0179879
0.017938
0.0178845
0.0178276
0.0177672
0.0177034
0.0176363
0.017566
0.0174924
0.0174157
0.0173359
0.017253
0.0171672
0.0170785
0.0169869
0.0168925
0.0167954
0.0166957
0.0165934
0.0164885
0.0163811
0.0162714
0.0161593
0.0160449
0.0159283
0.0158095
0.0156887
0.0155658
0.0154409
0.0153142
0.0151855
0.0150551
0.014923
0.0147891
0.0146536
0.0145166
0.014378
0.014238
0.0140966
0.0139538
0.0138097
0.0136644
0.0135178
0.0133701
0.0132213
0.0130714
0.0129205
0.0127686
0.0126157
0.012462
0.0123074
0.012152
0.0119958
0.0118389
0.0116812
0.0115229
0.011364
0.0112044
0.0110443
0.0108836
0.0107224
0.0105608
0.0103987
0.0102361
0.0100731
0.0099098
0.00974611
0.00958208
0.00941774
0.00925312
0.00908822
0.00892308
0.0087577
0.00859211
0.00842633
0.00826037
0.00809424
0.00792796
0.00776155
0.00759501
0.00742837
0.00726163
0.0070948
0.00692789
0.00676092
0.0065939
0.00642682
0.00625971
0.00609256
0.00592539
0.0057582
0.005591
0.00542379
0.00525659
0.00508938
0.00492218
0.004755
0.00458783
0.00442067
0.00425354
0.00408643
0.00391934
0.00375228
0.00358525
0.00341824
0.00325127
0.00308432
0.0029174
0.00275051
0.00258365
0.00241681
0.00225001
0.00208323
0.00191647
0.00174974
0.00158303
0.00141633
0.00124966
0.00108301
0.000916365
0.000749736
0.000583118
0.000416507
0.000249902
8.33002e-05
0.0001202
0.000360602
0.000601006
0.000841416
0.00108183
0.00132226
0.0015627
0.00180314
0.0020436
0.00228408
0.00252456
0.00276506
0.00300557
0.00324609
0.00348662
0.00372715
0.00396769
0.00420822
0.00444874
0.00468925
0.00492974
0.00517019
0.00541061
0.00565098
0.00589129
0.00613153
0.00637168
0.00661173
0.00685166
0.00709146
0.0073311
0.00757056
0.00780983
0.00804888
0.00828768
0.00852621
0.00876443
0.00900233
0.00923986
0.00947699
0.00971369
0.00994991
0.0101856
0.0104208
0.0106554
0.0108893
0.0111226
0.0113551
0.0115868
0.0118177
0.0120477
0.0122768
0.0125049
0.0127319
0.0129577
0.0131824
0.0134059
0.013628
0.0138487
0.0140679
0.0142857
0.0145018
0.0147162
0.0149289
0.0151398
0.0153487
0.0155557
0.0157605
0.0159633
0.0161637
0.0163619
0.0165576
0.0167509
0.0169415
0.0171295
0.0173148
0.0174972
0.0176767
0.0178532
0.0180265
0.0181967
0.0183637
0.0185272
0.0186874
0.018844
0.0189971
0.0191464
0.019292
0.0194338
0.0195717
0.0197056
0.0198354
0.0199612
0.0200828
0.0202001
0.0203131
0.0204217
0.020526
0.0206257
0.020721
0.0208117
0.0208977
0.0209792
0.0210559
0.0211279
0.0211952
0.0212577
0.0213155
0.0213684
0.0214164
0.0214597
0.0214981
0.0215316
0.0215603
0.0215841
0.0216031
0.0216173
0.0216266
0.0216312
0.0216309
0.0216259
0.0216162
0.0216018
0.0215827
0.021559
0.0215307
0.0214978
0.0214605
0.0214186
0.0213724
0.0213218
0.021267
0.0212078
0.0211445
0.0210771
0.0210056
0.0209301
0.0208507
0.0207674
0.0206803
0.0205895
0.020495
0.020397
0.0202954
0.0201904
0.020082
0.0199703
0.0198555
0.0197374
0.0196163
0.0194922
0.0193652
0.0192354
0.0191027
0.0189674
0.0188295
0.018689
0.018546
0.0184006
0.0182529
0.018103
0.0179508
0.0177965
0.0176402
0.0174819
0.0173217
0.0171596
0.0169957
0.0168301
0.0166628
0.016494
0.0163236
0.0161517
0.0159784
0.0158037
0.0156277
0.0154504
0.015272
0.0150924
0.0149116
0.0147299
0.0145471
0.0143633
0.0141786
0.0139931
0.0138067
0.0136195
0.0134316
0.013243
0.0130536
0.0128637
0.0126731
0.012482
0.0122903
0.0120982
0.0119055
0.0117124
0.0115189
0.011325
0.0111308
0.0109361
0.0107412
0.010546
0.0103505
0.0101548
0.00995882
0.00976265
0.00956628
0.00936973
0.00917303
0.00897619
0.00877922
0.00858213
0.00838494
0.00818767
0.00799032
0.0077929
0.00759543
0.00739791
0.00720036
0.00700278
0.00680518
0.00660757
0.00640995
0.00621232
0.00601471
0.0058171
0.00561951
0.00542194
0.00522439
0.00502686
0.00482936
0.00463189
0.00443445
0.00423705
0.00403968
0.00384234
0.00364504
0.00344777
0.00325054
0.00305334
0.00285617
0.00265904
0.00246194
0.00226486
0.00206782
0.0018708
0.00167381
0.00147684
0.00127988
0.00108295
0.000886028
0.00068912
0.000492222
0.00029533
9.8443e-05
0.00013869
0.000416071
0.000693456
0.000970847
0.00124825
0.00152566
0.00180308
0.00208052
0.00235797
0.00263544
0.00291293
0.00319043
0.00346794
0.00374547
0.00402301
0.00430056
0.00457811
0.00485566
0.00513321
0.00541074
0.00568824
0.00596572
0.00624316
0.00652054
0.00679785
0.00707509
0.00735222
0.00762925
0.00790614
0.00818288
0.00845944
0.00873581
0.00901195
0.00928784
0.00956345
0.00983876
0.0101137
0.0103883
0.0106625
0.0109362
0.0112094
0.0114821
0.0117541
0.0120256
0.0122964
0.0125664
0.0128357
0.0131041
0.0133717
0.0136382
0.0139038
0.0141683
0.0144316
0.0146937
0.0149545
0.0152139
0.0154719
0.0157283
0.0159832
0.0162364
0.0164878
0.0167374
0.016985
0.0172306
0.0174741
0.0177154
0.0179545
0.0181911
0.0184252
0.0186567
0.0188856
0.0191117
0.0193349
0.0195551
0.0197723
0.0199862
0.020197
0.0204043
0.0206081
0.0208084
0.021005
0.0211979
0.0213868
0.0215718
0.0217528
0.0219296
0.0221021
0.0222703
0.0224341
0.0225934
0.0227481
0.0228981
0.0230434
0.0231838
0.0233194
0.0234499
0.0235754
0.0236958
0.0238111
0.0239211
0.0240259
0.0241253
0.0242193
0.024308
0.0243912
0.0244689
0.0245411
0.0246077
0.0246688
0.0247243
0.0247742
0.0248185
0.0248572
0.0248903
0.0249178
0.0249397
0.024956
0.0249667
0.0249719
0.0249716
0.0249657
0.0249544
0.0249377
0.0249156
0.0248881
0.0248553
0.0248173
0.0247741
0.0247257
0.0246722
0.0246137
0.0245502
0.0244818
0.0244086
0.0243306
0.024248
0.0241607
0.0240689
0.0239726
0.0238719
0.0237669
0.0236578
0.0235444
0.023427
0.0233057
0.0231804
0.0230514
0.0229186
0.0227822
0.0226423
0.0224989
0.0223521
0.0222021
0.0220489
0.0218925
0.0217332
0.0215709
0.0214057
0.0212378
0.0210672
0.0208939
0.0207182
0.02054
0.0203594
0.0201766
0.0199915
0.0198043
0.0196151
0.0194238
0.0192307
0.0190357
0.0188389
0.0186404
0.0184403
0.0182386
0.0180354
0.0178307
0.0176246
0.0174173
0.0172086
0.0169987
0.0167877
0.0165755
0.0163623
0.0161481
0.0159329
0.0157169
0.0154999
0.0152822
0.0150636
0.0148444
0.0146244
0.0144038
0.0141825
0.0139607
0.0137384
0.0135155
0.0132921
0.0130683
0.0128441
0.0126195
0.0123945
0.0121692
0.0119436
0.0117177
0.0114915
0.0112651
0.0110385
0.0108117
0.0105847
0.0103575
0.0101302
0.00990274
0.00967518
0.00944752
0.00921978
0.00899196
0.00876409
0.00853616
0.00830819
0.00808019
0.00785217
0.00762414
0.0073961
0.00716806
0.00694003
0.00671201
0.00648401
0.00625603
0.00602808
0.00580015
0.00557226
0.00534441
0.00511659
0.00488881
0.00466107
0.00443338
0.00420572
0.0039781
0.00375053
0.00352299
0.0032955
0.00306804
0.00284062
0.00261323
0.00238588
0.00215855
0.00193126
0.00170399
0.00147674
0.00124952
0.00102231
0.000795114
0.00056793
0.000340755
0.000113584
0.000157178
0.000471536
0.000785899
0.00110027
0.00141465
0.00172904
0.00204345
0.00235788
0.00267232
0.00298679
0.00330127
0.00361578
0.0039303
0.00424484
0.0045594
0.00487397
0.00518854
0.00550312
0.00581769
0.00613225
0.00644678
0.00676129
0.00707575
0.00739016
0.00770449
0.00801874
0.00833288
0.0086469
0.00896077
0.00927447
0.00958799
0.00990128
0.0102143
0.0105271
0.0108395
0.0111516
0.0114634
0.0117747
0.0120855
0.0123958
0.0127056
0.0130148
0.0133233
0.0136311
0.0139381
0.0142444
0.0145497
0.0148541
0.0151575
0.0154598
0.0157609
0.0160609
0.0163595
0.0166567
0.0169525
0.0172468
0.0175394
0.0178303
0.0181194
0.0184066
0.0186918
0.0189749
0.0192558
0.0195345
0.0198107
0.0200845
0.0203556
0.0206241
0.0208897
0.0211524
0.0214121
0.0216686
0.0219219
0.0221718
0.0224182
0.022661
0.0229001
0.0231354
0.0233667
0.023594
0.0238171
0.0240359
0.0242504
0.0244603
0.0246657
0.0248663
0.0250622
0.0252531
0.025439
0.0256197
0.0257953
0.0259656
0.0261304
0.0262898
0.0264436
0.0265918
0.0267342
0.0268709
0.0270017
0.0271265
0.0272454
0.0273582
0.0274649
0.0275655
0.0276599
0.027748
0.0278299
0.0279055
0.0279748
0.0280377
0.0280943
0.0281446
0.0281884
0.0282259
0.028257
0.0282818
0.0283003
0.0283124
0.0283182
0.0283177
0.028311
0.0282981
0.028279
0.0282538
0.0282225
0.0281852
0.028142
0.0280928
0.0280378
0.027977
0.0279105
0.0278384
0.0277607
0.0276775
0.0275889
0.027495
0.0273958
0.0272915
0.0271822
0.0270679
0.0269486
0.0268246
0.0266959
0.0265626
0.0264248
0.0262826
0.0261361
0.0259854
0.0258306
0.0256717
0.0255089
0.0253424
0.0251721
0.0249981
0.0248207
0.0246398
0.0244556
0.0242682
0.0240776
0.023884
0.0236874
0.023488
0.0232858
0.023081
0.0228735
0.0226635
0.0224512
0.0222364
0.0220195
0.0218004
0.0215792
0.0213559
0.0211308
0.0209038
0.020675
0.0204445
0.0202123
0.0199786
0.0197434
0.0195068
0.0192687
0.0190294
0.0187888
0.018547
0.0183041
0.0180601
0.0178151
0.0175691
0.0173222
0.0170743
0.0168257
0.0165763
0.0163262
0.0160753
0.0158238
0.0155717
0.015319
0.0150658
0.014812
0.0145578
0.0143032
0.0140481
0.0137927
0.0135369
0.0132809
0.0130245
0.0127678
0.0125109
0.0122538
0.0119965
0.0117389
0.0114813
0.0112235
0.0109655
0.0107075
0.0104493
0.0101911
0.00993279
0.00967444
0.00941605
0.00915763
0.00889918
0.00864072
0.00838225
0.00812379
0.00786533
0.0076069
0.00734848
0.00709009
0.00683174
0.00657342
0.00631513
0.00605689
0.00579869
0.00554054
0.00528243
0.00502437
0.00476636
0.0045084
0.00425048
0.00399261
0.00373479
0.003477
0.00321927
0.00296157
0.0027039
0.00244628
0.00218868
0.00193112
0.00167358
0.00141607
0.00115857
0.000901096
0.000643631
0.000386175
0.000128724
0.000175665
0.000526997
0.000878334
0.00122968
0.00158104
0.00193241
0.00228381
0.00263522
0.00298666
0.00333812
0.0036896
0.00404111
0.00439264
0.0047442
0.00509578
0.00544737
0.00579897
0.00615058
0.00650218
0.00685378
0.00720536
0.0075569
0.0079084
0.00825985
0.00861121
0.00896249
0.00931366
0.00966469
0.0100156
0.0103663
0.0107167
0.011067
0.011417
0.0117666
0.012116
0.0124649
0.0128135
0.0131615
0.0135091
0.0138561
0.0142024
0.0145482
0.0148931
0.0152374
0.0155807
0.0159232
0.0162647
0.0166051
0.0169444
0.0172825
0.0176193
0.0179548
0.0182888
0.0186213
0.0189522
0.0192813
0.0196086
0.0199341
0.0202575
0.0205788
0.0208979
0.0212146
0.0215289
0.0218407
0.0221498
0.0224561
0.0227595
0.0230599
0.0233571
0.0236511
0.0239417
0.0242288
0.0245122
0.0247919
0.0250677
0.0253394
0.025607
0.0258704
0.0261293
0.0263837
0.0266334
0.0268784
0.0271184
0.0273535
0.0275833
0.0278079
0.0280271
0.0282408
0.0284489
0.0286513
0.0288478
0.0290384
0.0292229
0.0294013
0.0295735
0.0297394
0.0298988
0.0300518
0.0301982
0.0303379
0.0304709
0.0305972
0.0307166
0.0308292
0.0309348
0.0310334
0.0311251
0.0312096
0.0312871
0.0313575
0.0314208
0.031477
0.031526
0.0315679
0.0316027
0.0316303
0.0316508
0.0316643
0.0316707
0.0316701
0.0316625
0.0316479
0.0316264
0.0315981
0.031563
0.0315211
0.0314726
0.0314174
0.0313557
0.0312875
0.031213
0.0311321
0.031045
0.0309518
0.0308525
0.0307472
0.0306361
0.0305193
0.0303968
0.0302687
0.0301351
0.0299962
0.029852
0.0297027
0.0295484
0.0293892
0.0292251
0.0290563
0.0288829
0.028705
0.0285228
0.0283363
0.0281456
0.0279509
0.0277523
0.0275498
0.0273436
0.0271338
0.0269205
0.0267038
0.0264838
0.0262606
0.0260343
0.0258051
0.0255729
0.025338
0.0251003
0.0248601
0.0246173
0.0243721
0.0241246
0.0238749
0.023623
0.023369
0.0231131
0.0228552
0.0225956
0.0223341
0.022071
0.0218063
0.0215401
0.0212724
0.0210033
0.0207329
0.0204612
0.0201883
0.0199143
0.0196392
0.019363
0.0190859
0.0188079
0.018529
0.0182492
0.0179687
0.0176875
0.0174056
0.0171231
0.0168399
0.0165562
0.016272
0.0159873
0.0157022
0.0154166
0.0151306
0.0148443
0.0145577
0.0142707
0.0139835
0.0136961
0.0134084
0.0131206
0.0128325
0.0125443
0.012256
0.0119675
0.0116789
0.0113903
0.0111016
0.0108128
0.0105239
0.0102351
0.0099462
0.0096573
0.0093684
0.00907951
0.00879062
0.00850176
0.00821293
0.00792413
0.00763536
0.00734664
0.00705796
0.00676933
0.00648075
0.00619222
0.00590375
0.00561532
0.00532696
0.00503865
0.00475039
0.00446218
0.00417403
0.00388593
0.00359787
0.00330986
0.0030219
0.00273397
0.00244608
0.00215822
0.0018704
0.0015826
0.00129482
0.00100706
0.000719322
0.000431589
0.000143862
0.00019415
0.000582452
0.00097076
0.00135908
0.00174741
0.00213577
0.00252414
0.00291254
0.00330097
0.00368942
0.00407791
0.00446642
0.00485497
0.00524354
0.00563214
0.00602075
0.00640939
0.00679804
0.00718669
0.00757533
0.00796396
0.00835256
0.00874111
0.00912961
0.00951803
0.00990636
0.0102946
0.0106826
0.0110705
0.0114583
0.0118458
0.012233
0.0126199
0.0130065
0.0133928
0.0137786
0.014164
0.0145489
0.0149332
0.0153169
0.0156999
0.0160823
0.0164638
0.0168445
0.0172242
0.017603
0.0179806
0.0183572
0.0187325
0.0191065
0.019479
0.0198501
0.0202196
0.0205875
0.0209535
0.0213176
0.0216798
0.0220399
0.0223977
0.0227532
0.0231063
0.0234568
0.0238046
0.0241496
0.0244916
0.0248306
0.0251664
0.0254989
0.0258278
0.0261532
0.0264749
0.0267926
0.0271064
0.0274159
0.0277212
0.028022
0.0283183
0.0286098
0.0288964
0.0291781
0.0294546
0.0297258
0.0299915
0.0302517
0.0305062
0.0307549
0.0309976
0.0312342
0.0314646
0.0316886
0.0319062
0.0321173
0.0323216
0.0325191
0.0327097
0.0328934
0.0330699
0.0332392
0.0334013
0.033556
0.0337033
0.0338431
0.0339753
0.0340998
0.0342167
0.0343259
0.0344273
0.0345209
0.0346066
0.0346845
0.0347544
0.0348165
0.0348707
0.034917
0.0349554
0.0349859
0.0350085
0.0350233
0.0350303
0.0350295
0.0350209
0.0350046
0.0349807
0.0349492
0.0349102
0.0348637
0.0348098
0.0347486
0.0346801
0.0346045
0.0345217
0.0344321
0.0343355
0.0342321
0.034122
0.0340054
0.0338822
0.0337527
0.0336169
0.0334749
0.0333269
0.033173
0.0330133
0.0328479
0.0326769
0.0325005
0.0323187
0.0321318
0.0319398
0.0317428
0.0315409
0.0313344
0.0311232
0.0309076
0.0306877
0.0304635
0.0302352
0.030003
0.0297668
0.0295269
0.0292834
0.0290363
0.0287858
0.0285321
0.0282751
0.0280151
0.0277521
0.0274862
0.0272176
0.0269462
0.0266724
0.026396
0.0261173
0.0258363
0.0255531
0.0252678
0.0249805
0.0246913
0.0244002
0.0241074
0.0238129
0.0235168
0.0232191
0.02292
0.0226195
0.0223176
0.0220145
0.0217103
0.0214049
0.0210984
0.0207909
0.0204824
0.0201731
0.0198629
0.0195519
0.0192402
0.0189277
0.0186147
0.018301
0.0179867
0.0176719
0.0173566
0.0170408
0.0167247
0.0164081