/*--------------------------------*- C++ -*----------------------------------*\
| =========                 |                                                 |
| \\      /  F ield         | OpenFOAM: The Open Source CFD Toolbox           |
|  \\    /   O peration     | Version:  v2012                                 |
|   \\  /    A nd           | Website:  www.openfoam.com                      |
|    \\/     M anipulation  |                                                 |
\*---------------------------------------------------------------------------*/
FoamFile
{
    version     2.0;
    format      ascii;
    class       surfaceScalarField;
    location    "6.8";
    object      phi;
}
// * * * * * * * * * * * * * * * * * * * * * * * * * * * * * * * * * * * * * //

dimensions      [0 3 -1 0 0 0 0];
oriented        oriented;


internalField   nonuniform List<scalar> 
130560
(
3.6899e-06
-3.6899e-06
7.37972e-06
-3.68982e-06
1.10694e-05
-3.68965e-06
1.47588e-05
-3.68939e-06
1.84478e-05
-3.68905e-06
2.21364e-05
-3.68861e-06
2.58245e-05
-3.68808e-06
2.95119e-05
-3.68745e-06
3.31987e-05
-3.68671e-06
3.68845e-05
-3.68587e-06
4.05694e-05
-3.6849e-06
4.42532e-05
-3.68381e-06
4.79358e-05
-3.68259e-06
5.1617e-05
-3.68122e-06
5.52968e-05
-3.6797e-06
5.89748e-05
-3.67802e-06
6.26509e-05
-3.67617e-06
6.63251e-05
-3.67414e-06
6.9997e-05
-3.6719e-06
7.36664e-05
-3.66946e-06
7.73332e-05
-3.66679e-06
8.09971e-05
-3.66389e-06
8.46579e-05
-3.66073e-06
8.83152e-05
-3.6573e-06
9.19688e-05
-3.65359e-06
9.56183e-05
-3.64958e-06
9.92636e-05
-3.64525e-06
0.000102904
-3.64059e-06
0.00010654
-3.63557e-06
0.00011017
-3.63017e-06
0.000113794
-3.62438e-06
0.000117412
-3.61818e-06
0.000121024
-3.61155e-06
0.000124628
-3.60446e-06
0.000128225
-3.5969e-06
0.000131814
-3.58884e-06
0.000135394
-3.58026e-06
0.000138966
-3.57114e-06
0.000142527
-3.56146e-06
0.000146078
-3.55119e-06
0.000149619
-3.54031e-06
0.000153147
-3.52881e-06
0.000156664
-3.51665e-06
0.000160168
-3.50381e-06
0.000163658
-3.49027e-06
0.000167134
-3.47601e-06
0.000170595
-3.46101e-06
0.00017404
-3.44523e-06
0.000177469
-3.42867e-06
0.00018088
-3.41129e-06
0.000184273
-3.39308e-06
0.000187647
-3.37402e-06
0.000191002
-3.35408e-06
0.000194335
-3.33324e-06
0.000197646
-3.31148e-06
0.000200935
-3.28879e-06
0.0002042
-3.26514e-06
0.000207441
-3.24052e-06
0.000210656
-3.21491e-06
0.000213844
-3.18829e-06
0.000217005
-3.16065e-06
0.000220137
-3.13198e-06
0.000223239
-3.10226e-06
0.00022631
-3.07147e-06
0.00022935
-3.03962e-06
0.000232357
-3.00668e-06
0.000235329
-2.97265e-06
0.000238267
-2.93753e-06
0.000241168
-2.9013e-06
0.000244032
-2.86397e-06
0.000246858
-2.82552e-06
0.000249643
-2.78597e-06
0.000252389
-2.7453e-06
0.000255092
-2.70352e-06
0.000257753
-2.66064e-06
0.00026037
-2.61665e-06
0.000262941
-2.57157e-06
0.000265467
-2.52541e-06
0.000267945
-2.47817e-06
0.000270375
-2.42987e-06
0.000272755
-2.38051e-06
0.000275085
-2.33012e-06
0.000277364
-2.27872e-06
0.00027959
-2.22631e-06
0.000281763
-2.17293e-06
0.000283882
-2.11858e-06
0.000285945
-2.06331e-06
0.000287952
-2.00712e-06
0.000289902
-1.95006e-06
0.000291794
-1.89214e-06
0.000293628
-1.8334e-06
0.000295402
-1.77387e-06
0.000297115
-1.71357e-06
0.000298768
-1.65255e-06
0.000300359
-1.59085e-06
0.000301887
-1.52848e-06
0.000303353
-1.4655e-06
0.000304755
-1.40194e-06
0.000306092
-1.33785e-06
0.000307366
-1.27325e-06
0.000308574
-1.2082e-06
0.000309717
-1.14273e-06
0.000310793
-1.07688e-06
0.000311804
-1.01071e-06
0.000312748
-9.44244e-07
0.000313626
-8.77536e-07
0.000314437
-8.10627e-07
0.00031518
-7.43561e-07
0.000315857
-6.76382e-07
0.000316466
-6.09133e-07
0.000317008
-5.41859e-07
0.000317482
-4.74602e-07
0.00031789
-4.07406e-07
0.00031823
-3.40313e-07
0.000318503
-2.73366e-07
0.00031871
-2.06606e-07
0.00031885
-1.40074e-07
0.000318924
-7.38098e-08
0.000318932
-7.85369e-09
0.000318874
5.77562e-08
0.000318751
1.22982e-07
0.000318563
1.87788e-07
0.000318311
2.52138e-07
0.000317995
3.15997e-07
0.000317616
3.79333e-07
0.000317173
4.42112e-07
0.000316669
5.04306e-07
0.000316103
5.65883e-07
0.000315476
6.26815e-07
0.000314789
6.87076e-07
0.000314043
7.4664e-07
0.000313237
8.05482e-07
0.000312374
8.6358e-07
0.000311453
9.20913e-07
0.000310475
9.77459e-07
0.000309442
1.0332e-06
0.000308354
1.08812e-06
0.000307212
1.1422e-06
0.000306016
1.19543e-06
0.000304769
1.24779e-06
0.000303469
1.29928e-06
0.000302119
1.34988e-06
0.00030072
1.39957e-06
0.000299271
1.44837e-06
0.000297775
1.49625e-06
0.000296232
1.54321e-06
0.000294643
1.58925e-06
0.000293008
1.63436e-06
0.00029133
1.67855e-06
0.000289608
1.7218e-06
0.000287844
1.76413e-06
0.000286038
1.80553e-06
0.000284192
1.846e-06
0.000282307
1.88555e-06
0.000280383
1.92418e-06
0.000278421
1.96189e-06
0.000276422
1.99869e-06
0.000274387
2.03459e-06
0.000272318
2.06959e-06
0.000270214
2.10371e-06
0.000268077
2.13694e-06
0.000265908
2.1693e-06
0.000263707
2.20079e-06
0.000261476
2.23143e-06
0.000259214
2.26123e-06
0.000256924
2.2902e-06
0.000254606
2.31834e-06
0.00025226
2.34568e-06
0.000249888
2.37222e-06
0.00024749
2.39798e-06
0.000245067
2.42296e-06
0.00024262
2.44718e-06
0.000240149
2.47065e-06
0.000237656
2.4934e-06
0.00023514
2.51542e-06
0.000232604
2.53673e-06
0.000230046
2.55736e-06
0.000227469
2.5773e-06
0.000224873
2.59658e-06
0.000222257
2.61521e-06
0.000219624
2.6332e-06
0.000216974
2.65056e-06
0.000214306
2.66732e-06
0.000211623
2.68348e-06
0.000208924
2.69906e-06
0.00020621
2.71408e-06
0.000203481
2.72854e-06
0.000200739
2.74246e-06
0.000197983
2.75585e-06
0.000195214
2.76873e-06
0.000192433
2.78111e-06
0.00018964
2.79301e-06
0.000186835
2.80443e-06
0.00018402
2.81539e-06
0.000181194
2.82591e-06
0.000178358
2.83599e-06
0.000175513
2.84565e-06
0.000172658
2.8549e-06
0.000169794
2.86375e-06
0.000166922
2.87222e-06
0.000164041
2.88032e-06
0.000161153
2.88805e-06
0.000158258
2.89544e-06
0.000155355
2.90248e-06
0.000152446
2.9092e-06
0.000149531
2.91561e-06
0.000146609
2.92171e-06
0.000143681
2.92751e-06
0.000140748
2.93303e-06
0.00013781
2.93828e-06
0.000134867
2.94326e-06
0.000131919
2.94799e-06
0.000128966
2.95247e-06
0.00012601
2.95672e-06
0.000123049
2.96074e-06
0.000120084
2.96455e-06
0.000117116
2.96814e-06
0.000114145
2.97154e-06
0.00011117
2.97474e-06
0.000108192
2.97776e-06
0.000105212
2.98061e-06
0.000102228
2.98329e-06
9.92424e-05
2.9858e-06
9.62543e-05
2.98817e-06
9.32639e-05
2.99039e-06
9.02714e-05
2.99247e-06
8.7277e-05
2.99441e-06
8.42808e-05
2.99623e-06
8.12828e-05
2.99793e-06
7.82833e-05
2.99952e-06
7.52823e-05
3.001e-06
7.228e-05
3.00237e-06
6.92763e-05
3.00365e-06
6.62715e-05
3.00484e-06
6.32655e-05
3.00594e-06
6.02586e-05
3.00695e-06
5.72507e-05
3.00789e-06
5.42419e-05
3.00876e-06
5.12324e-05
3.00955e-06
4.82221e-05
3.01029e-06
4.52111e-05
3.01095e-06
4.21996e-05
3.01156e-06
3.91875e-05
3.01212e-06
3.61748e-05
3.01262e-06
3.31618e-05
3.01308e-06
3.01483e-05
3.01348e-06
2.71344e-05
3.01384e-06
2.41203e-05
3.01416e-06
2.11058e-05
3.01444e-06
1.80911e-05
3.01468e-06
1.50763e-05
3.01489e-06
1.20612e-05
3.01505e-06
9.04602e-06
3.01519e-06
6.03073e-06
3.01529e-06
3.01538e-06
3.01535e-06
3.01538e-06
3.68998e-06
-7.37989e-06
7.37988e-06
-7.37972e-06
1.10696e-05
-7.37938e-06
1.47591e-05
-7.37887e-06
1.84482e-05
-7.37818e-06
2.21369e-05
-7.37732e-06
2.58251e-05
-7.37626e-06
2.95127e-05
-7.375e-06
3.31995e-05
-7.37353e-06
3.68855e-05
-7.37185e-06
4.05705e-05
-7.36992e-06
4.42544e-05
-7.36775e-06
4.79372e-05
-7.36531e-06
5.16185e-05
-7.36259e-06
5.52984e-05
-7.35957e-06
5.89766e-05
-7.35622e-06
6.26529e-05
-7.35253e-06
6.63273e-05
-7.34847e-06
6.99994e-05
-7.34401e-06
7.36691e-05
-7.33914e-06
7.73361e-05
-7.33382e-06
8.10002e-05
-7.32803e-06
8.46612e-05
-7.32173e-06
8.83188e-05
-7.31489e-06
9.19727e-05
-7.30749e-06
9.56226e-05
-7.29948e-06
9.92682e-05
-7.29084e-06
0.000102909
-7.28153e-06
0.000106545
-7.27151e-06
0.000110176
-7.26074e-06
0.0001138
-7.24918e-06
0.000117419
-7.2368e-06
0.000121031
-7.22355e-06
0.000124636
-7.20939e-06
0.000128233
-7.19429e-06
0.000131823
-7.17819e-06
0.000135404
-7.16105e-06
0.000138975
-7.14284e-06
0.000142537
-7.12349e-06
0.000146089
-7.10298e-06
0.00014963
-7.08125e-06
0.000153159
-7.05826e-06
0.000156677
-7.03396e-06
0.000160181
-7.00831e-06
0.000163672
-6.98126e-06
0.000167149
-6.95277e-06
0.000170611
-6.92278e-06
0.000174057
-6.89125e-06
0.000177486
-6.85815e-06
0.000180898
-6.82342e-06
0.000184292
-6.78702e-06
0.000187667
-6.74891e-06
0.000191022
-6.70905e-06
0.000194356
-6.66739e-06
0.000197669
-6.62389e-06
0.000200959
-6.57853e-06
0.000204225
-6.53125e-06
0.000207466
-6.48202e-06
0.000210682
-6.43082e-06
0.000213871
-6.3776e-06
0.000217033
-6.32234e-06
0.000220166
-6.26501e-06
0.000223269
-6.20557e-06
0.000226342
-6.14402e-06
0.000229383
-6.08031e-06
0.00023239
-6.01445e-06
0.000235364
-5.9464e-06
0.000238303
-5.87616e-06
0.000241205
-5.80371e-06
0.00024407
-5.72904e-06
0.000246897
-5.65215e-06
0.000249684
-5.57304e-06
0.00025243
-5.4917e-06
0.000255135
-5.40814e-06
0.000257797
-5.32237e-06
0.000260414
-5.2344e-06
0.000262987
-5.14423e-06
0.000265514
-5.05189e-06
0.000267993
-4.9574e-06
0.000270424
-4.86078e-06
0.000272805
-4.76206e-06
0.000275136
-4.66127e-06
0.000277416
-4.55843e-06
0.000279643
-4.4536e-06
0.000281817
-4.34681e-06
0.000283937
-4.2381e-06
0.000286001
-4.12752e-06
0.000288009
-4.01513e-06
0.00028996
-3.90097e-06
0.000291853
-3.7851e-06
0.000293687
-3.66759e-06
0.000295462
-3.54849e-06
0.000297176
-3.42787e-06
0.000298829
-3.3058e-06
0.000300421
-3.18234e-06
0.00030195
-3.05758e-06
0.000303416
-2.93158e-06
0.000304818
-2.80443e-06
0.000306157
-2.67619e-06
0.00030743
-2.54696e-06
0.000308639
-2.41681e-06
0.000309782
-2.28583e-06
0.000310859
-2.1541e-06
0.00031187
-2.0217e-06
0.000312815
-1.88873e-06
0.000313693
-1.75527e-06
0.000314503
-1.62141e-06
0.000315247
-1.48723e-06
0.000315924
-1.35283e-06
0.000316533
-1.21829e-06
0.000317075
-1.0837e-06
0.000317549
-9.49143e-07
0.000317956
-8.14708e-07
0.000318297
-6.80481e-07
0.00031857
-5.46545e-07
0.000318776
-4.12984e-07
0.000318916
-2.79879e-07
0.000318989
-1.47313e-07
0.000318997
-1.53621e-08
0.000318939
1.15895e-07
0.000318815
2.46384e-07
0.000318627
3.76031e-07
0.000318375
5.04764e-07
0.000318058
6.32516e-07
0.000317678
7.5922e-07
0.000317235
8.8481e-07
0.00031673
1.00923e-06
0.000316164
1.13241e-06
0.000315536
1.2543e-06
0.000314849
1.37485e-06
0.000314101
1.494e-06
0.000313295
1.61171e-06
0.000312431
1.72792e-06
0.000311509
1.84261e-06
0.000310531
1.95572e-06
0.000309497
2.06722e-06
0.000308408
2.17708e-06
0.000307265
2.28525e-06
0.000306068
2.39172e-06
0.00030482
2.49646e-06
0.00030352
2.59944e-06
0.000302169
2.70065e-06
0.000300768
2.80005e-06
0.000299319
2.89764e-06
0.000297822
2.99341e-06
0.000296278
3.08734e-06
0.000294688
3.17942e-06
0.000293052
3.26965e-06
0.000291373
3.35802e-06
0.00028965
3.44453e-06
0.000287885
3.52918e-06
0.000286079
3.61198e-06
0.000284232
3.69292e-06
0.000282345
3.77201e-06
0.00028042
3.84926e-06
0.000278457
3.92468e-06
0.000276458
3.99828e-06
0.000274422
4.07008e-06
0.000272352
4.14007e-06
0.000270247
4.20829e-06
0.000268109
4.27474e-06
0.000265939
4.33945e-06
0.000263738
4.40243e-06
0.000261505
4.46371e-06
0.000259243
4.52329e-06
0.000256952
4.58122e-06
0.000254633
4.6375e-06
0.000252287
4.69216e-06
0.000249914
4.74522e-06
0.000247515
4.79672e-06
0.000245091
4.84667e-06
0.000242643
4.8951e-06
0.000240172
4.94204e-06
0.000237678
4.98751e-06
0.000235162
5.03154e-06
0.000232624
5.07416e-06
0.000230066
5.11539e-06
0.000227488
5.15526e-06
0.000224891
5.19381e-06
0.000222275
5.23105e-06
0.000219641
5.26701e-06
0.00021699
5.30173e-06
0.000214322
5.33523e-06
0.000211638
5.36754e-06
0.000208939
5.39869e-06
0.000206224
5.42871e-06
0.000203495
5.45761e-06
0.000200752
5.48544e-06
0.000197996
5.51221e-06
0.000195226
5.53796e-06
0.000192445
5.56271e-06
0.000189651
5.58648e-06
0.000186846
5.60931e-06
0.000184031
5.63122e-06
0.000181204
5.65224e-06
0.000178368
5.67239e-06
0.000175522
5.6917e-06
0.000172666
5.71019e-06
0.000169802
5.72788e-06
0.00016693
5.74481e-06
0.000164049
5.76099e-06
0.000161161
5.77645e-06
0.000158265
5.79121e-06
0.000155362
5.80529e-06
0.000152453
5.81872e-06
0.000149537
5.83152e-06
0.000146615
5.84371e-06
0.000143687
5.85531e-06
0.000140754
5.86634e-06
0.000137815
5.87682e-06
0.000134872
5.88677e-06
0.000131923
5.89622e-06
0.000128971
5.90518e-06
0.000126014
5.91366e-06
0.000123053
5.9217e-06
0.000120088
5.9293e-06
0.00011712
5.93648e-06
0.000114148
5.94327e-06
0.000111173
5.94967e-06
0.000108195
5.9557e-06
0.000105214
5.96139e-06
0.000102231
5.96673e-06
9.92448e-05
5.97176e-06
9.62565e-05
5.97648e-06
9.3266e-05
5.98091e-06
9.02734e-05
5.98506e-06
8.72788e-05
5.98895e-06
8.42825e-05
5.99258e-06
8.12844e-05
5.99598e-06
7.82848e-05
5.99914e-06
7.52837e-05
6.0021e-06
7.22812e-05
6.00484e-06
6.92775e-05
6.00739e-06
6.62726e-05
6.00976e-06
6.32666e-05
6.01195e-06
6.02595e-05
6.01398e-06
5.72516e-05
6.01586e-06
5.42427e-05
6.01759e-06
5.12331e-05
6.01917e-06
4.82228e-05
6.02063e-06
4.52117e-05
6.02197e-06
4.22001e-05
6.02318e-06
3.9188e-05
6.02429e-06
3.61753e-05
6.02529e-06
3.31622e-05
6.0262e-06
3.01486e-05
6.02701e-06
2.71348e-05
6.02773e-06
2.41205e-05
6.02837e-06
2.11061e-05
6.02892e-06
1.80913e-05
6.0294e-06
1.50764e-05
6.02981e-06
1.20613e-05
6.03014e-06
9.04612e-06
6.03041e-06
6.0308e-06
6.0306e-06
3.01542e-06
6.03073e-06
6.0308e-06
3.69015e-06
-1.107e-05
7.38022e-06
-1.10698e-05
1.10701e-05
-1.10693e-05
1.47598e-05
-1.10685e-05
1.84491e-05
-1.10675e-05
2.2138e-05
-1.10662e-05
2.58264e-05
-1.10646e-05
2.95141e-05
-1.10628e-05
3.32012e-05
-1.10606e-05
3.68874e-05
-1.10581e-05
4.05727e-05
-1.10552e-05
4.42569e-05
-1.1052e-05
4.79399e-05
-1.10483e-05
5.16216e-05
-1.10443e-05
5.53018e-05
-1.10398e-05
5.89803e-05
-1.10348e-05
6.2657e-05
-1.10293e-05
6.63318e-05
-1.10232e-05
7.00043e-05
-1.10165e-05
7.36744e-05
-1.10093e-05
7.73419e-05
-1.10013e-05
8.10066e-05
-1.09927e-05
8.46681e-05
-1.09833e-05
8.83263e-05
-1.0973e-05
9.19807e-05
-1.0962e-05
9.56313e-05
-1.095e-05
9.92775e-05
-1.09371e-05
0.000102919
-1.09232e-05
0.000106556
-1.09082e-05
0.000110187
-1.08921e-05
0.000113813
-1.08748e-05
0.000117432
-1.08563e-05
0.000121045
-1.08365e-05
0.000124651
-1.08153e-05
0.00012825
-1.07927e-05
0.00013184
-1.07686e-05
0.000135422
-1.07429e-05
0.000138995
-1.07157e-05
0.000142558
-1.06867e-05
0.000146111
-1.0656e-05
0.000149653
-1.06235e-05
0.000153184
-1.0589e-05
0.000156702
-1.05526e-05
0.000160208
-1.05142e-05
0.000163701
-1.04737e-05
0.000167179
-1.0431e-05
0.000170642
-1.03861e-05
0.00017409
-1.03389e-05
0.000177521
-1.02893e-05
0.000180935
-1.02372e-05
0.000184331
-1.01827e-05
0.000187707
-1.01256e-05
0.000191064
-1.00658e-05
0.0001944
-1.00034e-05
0.000197714
-9.93818e-06
0.000201006
-9.87018e-06
0.000204274
-9.79931e-06
0.000207517
-9.72551e-06
0.000210735
-9.64875e-06
0.000213927
-9.56896e-06
0.00021709
-9.4861e-06
0.000220226
-9.40013e-06
0.000223331
-9.31101e-06
0.000226406
-9.21871e-06
0.000229449
-9.12318e-06
0.000232459
-9.0244e-06
0.000235434
-8.92235e-06
0.000238375
-8.817e-06
0.00024128
-8.70833e-06
0.000244147
-8.59634e-06
0.000246976
-8.48101e-06
0.000249765
-8.36234e-06
0.000252514
-8.24033e-06
0.000255221
-8.11498e-06
0.000257885
-7.98631e-06
0.000260505
-7.85433e-06
0.00026308
-7.71907e-06
0.000265608
-7.58053e-06
0.00026809
-7.43877e-06
0.000270523
-7.2938e-06
0.000272906
-7.14568e-06
0.000275239
-6.99444e-06
0.000277521
-6.84015e-06
0.00027975
-6.68285e-06
0.000281926
-6.52261e-06
0.000284048
-6.35948e-06
0.000286114
-6.19356e-06
0.000288123
-6.0249e-06
0.000290076
-5.85359e-06
0.000291971
-5.67971e-06
0.000293806
-5.50336e-06
0.000295582
-5.32463e-06
0.000297298
-5.14362e-06
0.000298953
-4.96042e-06
0.000300546
-4.77515e-06
0.000302076
-4.58791e-06
0.000303543
-4.39882e-06
0.000304947
-4.20799e-06
0.000306286
-4.01553e-06
0.000307561
-3.82158e-06
0.00030877
-3.62625e-06
0.000309914
-3.42968e-06
0.000310992
-3.23197e-06
0.000312004
-3.03327e-06
0.000312948
-2.83371e-06
0.000313827
-2.63341e-06
0.000314638
-2.43251e-06
0.000315382
-2.23114e-06
0.000316058
-2.02942e-06
0.000316667
-1.8275e-06
0.000317209
-1.62551e-06
0.000317684
-1.42356e-06
0.000318091
-1.2218e-06
0.000318431
-1.02036e-06
0.000318703
-8.19349e-07
0.000318909
-6.18905e-07
0.000319049
-4.19148e-07
0.000319122
-2.20199e-07
0.000319128
-2.21766e-08
0.000319069
1.74803e-07
0.000318945
3.70628e-07
0.000318756
5.65187e-07
0.000318502
7.58374e-07
0.000318185
9.50085e-07
0.000317804
1.14022e-06
0.00031736
1.32868e-06
0.000316854
1.51538e-06
0.000316286
1.70023e-06
0.000315657
1.88313e-06
0.000314968
2.06402e-06
0.000314219
2.2428e-06
0.000313411
2.41942e-06
0.000312546
2.5938e-06
0.000311622
2.76588e-06
0.000310642
2.93559e-06
0.000309607
3.10289e-06
0.000308516
3.26771e-06
0.000307371
3.43001e-06
0.000306173
3.58975e-06
0.000304923
3.74689e-06
0.000303621
3.90139e-06
0.000302268
4.05321e-06
0.000300866
4.20234e-06
0.000299415
4.34875e-06
0.000297916
4.49241e-06
0.00029637
4.63332e-06
0.000294778
4.77145e-06
0.000293141
4.9068e-06
0.00029146
5.03935e-06
0.000289735
5.16912e-06
0.000287968
5.2961e-06
0.00028616
5.42029e-06
0.000284311
5.54169e-06
0.000282423
5.66032e-06
0.000280496
5.77619e-06
0.000278531
5.8893e-06
0.00027653
5.99969e-06
0.000274492
6.10736e-06
0.00027242
6.21233e-06
0.000270314
6.31464e-06
0.000268174
6.4143e-06
0.000266002
6.51133e-06
0.000263799
6.60578e-06
0.000261565
6.69767e-06
0.000259301
6.78702e-06
0.000257009
6.87388e-06
0.000254688
6.95827e-06
0.00025234
7.04023e-06
0.000249965
7.1198e-06
0.000247565
7.19701e-06
0.00024514
7.27191e-06
0.00024269
7.34452e-06
0.000240217
7.41489e-06
0.000237722
7.48306e-06
0.000235204
7.54908e-06
0.000232666
7.61297e-06
0.000230106
7.67478e-06
0.000227527
7.73456e-06
0.000224928
7.79234e-06
0.000222311
7.84816e-06
0.000219676
7.90208e-06
0.000217024
7.95412e-06
0.000214355
8.00434e-06
0.000211669
8.05277e-06
0.000208969
8.09946e-06
0.000206253
8.14444e-06
0.000203523
8.18777e-06
0.000200779
8.22947e-06
0.000198021
8.2696e-06
0.000195251
8.30818e-06
0.000192469
8.34527e-06
0.000189674
8.3809e-06
0.000186868
8.41512e-06
0.000184052
8.44795e-06
0.000181224
8.47945e-06
0.000178387
8.50964e-06
0.00017554
8.53857e-06
0.000172684
8.56627e-06
0.000169819
8.59279e-06
0.000166946
8.61815e-06
0.000164065
8.64239e-06
0.000161175
8.66555e-06
0.000158279
8.68766e-06
0.000155376
8.70875e-06
0.000152465
8.72887e-06
0.000149549
8.74804e-06
0.000146626
8.7663e-06
0.000143698
8.78367e-06
0.000140764
8.80019e-06
0.000137825
8.81589e-06
0.000134881
8.8308e-06
0.000131932
8.84494e-06
0.000128979
8.85835e-06
0.000126022
8.87106e-06
0.00012306
8.88309e-06
0.000120095
8.89447e-06
0.000117126
8.90522e-06
0.000114154
8.91538e-06
0.000111179
8.92496e-06
0.000108201
8.93399e-06
0.00010522
8.9425e-06
0.000102236
8.9505e-06
9.92495e-05
8.95802e-06
9.62609e-05
8.96509e-06
9.32701e-05
8.97171e-06
9.02773e-05
8.97793e-06
8.72825e-05
8.98374e-06
8.42859e-05
8.98917e-06
8.12876e-05
8.99425e-06
7.82878e-05
8.99899e-06
7.52865e-05
9.0034e-06
7.22838e-05
9.0075e-06
6.92799e-05
9.01132e-06
6.62748e-05
9.01486e-06
6.32686e-05
9.01814e-06
6.02614e-05
9.02117e-06
5.72533e-05
9.02397e-06
5.42443e-05
9.02655e-06
5.12346e-05
9.02893e-06
4.82241e-05
9.0311e-06
4.5213e-05
9.0331e-06
4.22012e-05
9.03491e-06
3.9189e-05
9.03657e-06
3.61762e-05
9.03806e-06
3.3163e-05
9.03941e-06
3.01494e-05
9.04062e-06
2.71354e-05
9.0417e-06
2.41211e-05
9.04265e-06
2.11066e-05
9.04348e-06
1.80918e-05
9.0442e-06
1.50768e-05
9.0448e-06
1.20616e-05
9.0453e-06
9.04632e-06
9.04569e-06
6.03093e-06
9.04599e-06
3.01548e-06
9.04618e-06
9.04628e-06
3.69041e-06
-1.47604e-05
7.38073e-06
-1.47601e-05
1.10709e-05
-1.47594e-05
1.47608e-05
-1.47584e-05
1.84504e-05
-1.47571e-05
2.21396e-05
-1.47554e-05
2.58283e-05
-1.47533e-05
2.95164e-05
-1.47508e-05
3.32037e-05
-1.4748e-05
3.68903e-05
-1.47446e-05
4.0576e-05
-1.47408e-05
4.42606e-05
-1.47366e-05
4.7944e-05
-1.47318e-05
5.16261e-05
-1.47264e-05
5.53068e-05
-1.47204e-05
5.89859e-05
-1.47138e-05
6.26631e-05
-1.47065e-05
6.63385e-05
-1.46985e-05
7.00116e-05
-1.46897e-05
7.36824e-05
-1.46801e-05
7.73506e-05
-1.46695e-05
8.1016e-05
-1.46581e-05
8.46784e-05
-1.46456e-05
8.83374e-05
-1.46321e-05
9.19928e-05
-1.46174e-05
9.56443e-05
-1.46015e-05
9.92915e-05
-1.45844e-05
0.000102934
-1.45659e-05
0.000106572
-1.4546e-05
0.000110205
-1.45246e-05
0.000113831
-1.45017e-05
0.000117452
-1.44771e-05
0.000121067
-1.44507e-05
0.000124674
-1.44226e-05
0.000128274
-1.43926e-05
0.000131866
-1.43605e-05
0.000135449
-1.43264e-05
0.000139024
-1.42902e-05
0.000142589
-1.42517e-05
0.000146143
-1.42108e-05
0.000149688
-1.41676e-05
0.00015322
-1.41218e-05
0.000156741
-1.40733e-05
0.000160249
-1.40222e-05
0.000163744
-1.39683e-05
0.000167224
-1.39115e-05
0.00017069
-1.38517e-05
0.00017414
-1.37888e-05
0.000177573
-1.37228e-05
0.00018099
-1.36535e-05
0.000184388
-1.35809e-05
0.000187767
-1.35048e-05
0.000191127
-1.34253e-05
0.000194465
-1.33421e-05
0.000197782
-1.32553e-05
0.000201077
-1.31647e-05
0.000204348
-1.30703e-05
0.000207594
-1.2972e-05
0.000210815
-1.28697e-05
0.00021401
-1.27634e-05
0.000217177
-1.2653e-05
0.000220315
-1.25384e-05
0.000223423
-1.24196e-05
0.000226501
-1.22966e-05
0.000229548
-1.21693e-05
0.000232561
-1.20376e-05
0.00023554
-1.19016e-05
0.000238484
-1.17612e-05
0.000241392
-1.16163e-05
0.000244263
-1.1467e-05
0.000247095
-1.13132e-05
0.000249888
-1.1155e-05
0.00025264
-1.09923e-05
0.00025535
-1.08251e-05
0.000258017
-1.06536e-05
0.00026064
-1.04776e-05
0.000263218
-1.02972e-05
0.00026575
-1.01124e-05
0.000268235
-9.92333e-06
0.000270671
-9.72998e-06
0.000273058
-9.53241e-06
0.000275394
-9.33069e-06
0.000277679
-9.12487e-06
0.000279911
-8.91504e-06
0.000282089
-8.70128e-06
0.000284214
-8.48368e-06
0.000286282
-8.26232e-06
0.000288295
-8.03732e-06
0.00029025
-7.80877e-06
0.000292147
-7.5768e-06
0.000293985
-7.34152e-06
0.000295764
-7.10306e-06
0.000297482
-6.86155e-06
0.000299138
-6.61713e-06
0.000300733
-6.36993e-06
0.000302265
-6.1201e-06
0.000303734
-5.8678e-06
0.000305139
-5.61317e-06
0.00030648
-5.35638e-06
0.000307756
-5.09758e-06
0.000308967
-4.83695e-06
0.000310112
-4.57465e-06
0.000311191
-4.31084e-06
0.000312203
-4.04571e-06
0.000313149
-3.77942e-06
0.000314028
-3.51215e-06
0.000314839
-3.24408e-06
0.000315584
-2.97538e-06
0.00031626
-2.70622e-06
0.00031687
-2.43679e-06
0.000317411
-2.16726e-06
0.000317886
-1.8978e-06
0.000318292
-1.62859e-06
0.000318632
-1.35979e-06
0.000318904
-1.09159e-06
0.000319109
-8.24138e-07
0.000319248
-5.57607e-07
0.00031932
-2.92158e-07
0.000319326
-2.79481e-08
0.000319265
2.34868e-07
0.00031914
4.96138e-07
0.000318949
7.55716e-07
0.000318694
1.01346e-06
0.000318375
1.26923e-06
0.000317992
1.52289e-06
0.000317547
1.77432e-06
0.000317039
2.02339e-06
0.000316469
2.26998e-06
0.000315838
2.51398e-06
0.000315147
2.75528e-06
0.000314396
2.99378e-06
0.000313586
3.22938e-06
0.000312718
3.46199e-06
0.000311792
3.69152e-06
0.00031081
3.91789e-06
0.000309772
4.14103e-06
0.000308679
4.36087e-06
0.000307531
4.57734e-06
0.000306331
4.79039e-06
0.000305078
4.99996e-06
0.000303773
5.206e-06
0.000302418
5.40848e-06
0.000301013
5.60736e-06
0.000299559
5.8026e-06
0.000298057
5.99418e-06
0.000296508
6.18207e-06
0.000294914
6.36626e-06
0.000293274
6.54673e-06
0.000291589
6.72348e-06
0.000289862
6.89651e-06
0.000288092
7.0658e-06
0.000286281
7.23138e-06
0.00028443
7.39324e-06
0.000282539
7.55139e-06
0.000280609
7.70586e-06
0.000278642
7.85666e-06
0.000276638
8.00381e-06
0.000274598
8.14733e-06
0.000272523
8.28727e-06
0.000270414
8.42363e-06
0.000268271
8.55647e-06
0.000266097
8.68581e-06
0.000263891
8.8117e-06
0.000261655
8.93416e-06
0.000259388
9.05325e-06
0.000257093
9.169e-06
0.00025477
9.28147e-06
0.00025242
9.3907e-06
0.000250043
9.49673e-06
0.00024764
9.59963e-06
0.000245212
9.69942e-06
0.000242761
9.79618e-06
0.000240286
9.88995e-06
0.000237788
9.98078e-06
0.000235268
1.00687e-05
0.000232727
1.01539e-05
0.000230166
1.02362e-05
0.000227585
1.03158e-05
0.000224984
1.03928e-05
0.000222365
1.04672e-05
0.000219728
1.0539e-05
0.000217074
1.06083e-05
0.000214403
1.06752e-05
0.000211716
1.07397e-05
0.000209014
1.08019e-05
0.000206296
1.08618e-05
0.000203565
1.09195e-05
0.000200819
1.09751e-05
0.00019806
1.10285e-05
0.000195288
1.10799e-05
0.000192504
1.11293e-05
0.000189708
1.11767e-05
0.000186901
1.12223e-05
0.000184083
1.1266e-05
0.000181255
1.1308e-05
0.000178416
1.13482e-05
0.000175568
1.13867e-05
0.000172711
1.14236e-05
0.000169845
1.14588e-05
0.00016697
1.14926e-05
0.000164088
1.15249e-05
0.000161198
1.15557e-05
0.0001583
1.15851e-05
0.000155396
1.16132e-05
0.000152485
1.164e-05
0.000149567
1.16655e-05
0.000146644
1.16898e-05
0.000143714
1.17129e-05
0.00014078
1.17349e-05
0.00013784
1.17558e-05
0.000134895
1.17756e-05
0.000131946
1.17944e-05
0.000128992
1.18122e-05
0.000126034
1.18291e-05
0.000123072
1.18451e-05
0.000120106
1.18603e-05
0.000117137
1.18746e-05
0.000114164
1.18881e-05
0.000111188
1.19008e-05
0.000108209
1.19128e-05
0.000105228
1.19241e-05
0.000102243
1.19348e-05
9.92566e-05
1.19447e-05
9.62676e-05
1.19541e-05
9.32764e-05
1.19629e-05
9.02831e-05
1.19712e-05
8.72879e-05
1.19789e-05
8.4291e-05
1.19861e-05
8.12924e-05
1.19929e-05
7.82922e-05
1.19992e-05
7.52906e-05
1.2005e-05
7.22876e-05
1.20105e-05
6.92834e-05
1.20155e-05
6.62781e-05
1.20202e-05
6.32716e-05
1.20246e-05
6.02642e-05
1.20286e-05
5.72559e-05
1.20323e-05
5.42467e-05
1.20357e-05
5.12368e-05
1.20389e-05
4.82261e-05
1.20418e-05
4.52148e-05
1.20444e-05
4.22029e-05
1.20468e-05
3.91905e-05
1.2049e-05
3.61775e-05
1.2051e-05
3.31642e-05
1.20528e-05
3.01504e-05
1.20544e-05
2.71363e-05
1.20558e-05
2.41219e-05
1.20571e-05
2.11073e-05
1.20582e-05
1.80924e-05
1.20591e-05
1.50773e-05
1.20599e-05
1.2062e-05
1.20606e-05
9.04661e-06
1.20611e-05
6.03113e-06
1.20615e-05
3.01558e-06
1.20617e-05
1.20619e-05
3.69074e-06
-1.84512e-05
7.3814e-06
-1.84508e-05
1.10719e-05
-1.845e-05
1.47622e-05
-1.84487e-05
1.84521e-05
-1.84471e-05
2.21417e-05
-1.8445e-05
2.58308e-05
-1.84424e-05
2.95193e-05
-1.84393e-05
3.32071e-05
-1.84358e-05
3.68941e-05
-1.84317e-05
4.05803e-05
-1.8427e-05
4.42654e-05
-1.84217e-05
4.79494e-05
-1.84158e-05
5.16321e-05
-1.84091e-05
5.53135e-05
-1.84017e-05
5.89932e-05
-1.83936e-05
6.26712e-05
-1.83845e-05
6.63473e-05
-1.83746e-05
7.00213e-05
-1.83637e-05
7.3693e-05
-1.83518e-05
7.73622e-05
-1.83387e-05
8.10286e-05
-1.83245e-05
8.4692e-05
-1.8309e-05
8.83521e-05
-1.82922e-05
9.20087e-05
-1.8274e-05
9.56615e-05
-1.82543e-05
9.93101e-05
-1.8233e-05
0.000102954
-1.821e-05
0.000106594
-1.81853e-05
0.000110228
-1.81587e-05
0.000113856
-1.81302e-05
0.000117479
-1.80996e-05
0.000121095
-1.80668e-05
0.000124704
-1.80318e-05
0.000128306
-1.79944e-05
0.0001319
-1.79545e-05
0.000135486
-1.79121e-05
0.000139062
-1.78669e-05
0.00014263
-1.7819e-05
0.000146187
-1.77681e-05
0.000149733
-1.77142e-05
0.000153269
-1.76571e-05
0.000156792
-1.75968e-05
0.000160303
-1.7533e-05
0.000163801
-1.74658e-05
0.000167284
-1.7395e-05
0.000170753
-1.73204e-05
0.000174206
-1.7242e-05
0.000177643
-1.71596e-05
0.000181062
-1.70732e-05
0.000184464
-1.69825e-05
0.000187847
-1.68876e-05
0.00019121
-1.67883e-05
0.000194552
-1.66845e-05
0.000197873
-1.65761e-05
0.000201171
-1.64631e-05
0.000204446
-1.63452e-05
0.000207697
-1.62224e-05
0.000210922
-1.60947e-05
0.00021412
-1.59619e-05
0.000217291
-1.5824e-05
0.000220434
-1.56809e-05
0.000223547
-1.55325e-05
0.000226629
-1.53788e-05
0.000229679
-1.52197e-05
0.000232697
-1.50552e-05
0.000235681
-1.48852e-05
0.000238629
-1.47097e-05
0.000241542
-1.45287e-05
0.000244417
-1.43421e-05
0.000247253
-1.41499e-05
0.00025005
-1.39521e-05
0.000252807
-1.37487e-05
0.000255521
-1.35398e-05
0.000258193
-1.33252e-05
0.000260821
-1.31052e-05
0.000263403
-1.28796e-05
0.000265939
-1.26486e-05
0.000268428
-1.24122e-05
0.000270869
-1.21704e-05
0.00027326
-1.19233e-05
0.0002756
-1.1671e-05
0.000277889
-1.14136e-05
0.000280125
-1.11512e-05
0.000282307
-1.08838e-05
0.000284435
-1.06116e-05
0.000286508
-1.03347e-05
0.000288524
-1.00533e-05
0.000290482
-9.76739e-06
0.000292383
-9.4772e-06
0.000294224
-9.18286e-06
0.000296005
-8.88454e-06
0.000297726
-8.5824e-06
0.000299386
-8.2766e-06
0.000300983
-7.96733e-06
0.000302518
-7.65477e-06
0.000303989
-7.3391e-06
0.000305396
-7.02052e-06
0.000306739
-6.69923e-06
0.000308017
-6.37542e-06
0.00030923
-6.04932e-06
0.000310376
-5.72112e-06
0.000311456
-5.39104e-06
0.00031247
-5.0593e-06
0.000313417
-4.72611e-06
0.000314296
-4.3917e-06
0.000315108
-4.05628e-06
0.000315853
-3.72007e-06
0.00031653
-3.38329e-06
0.000317139
-3.04618e-06
0.000317681
-2.70893e-06
0.000318155
-2.37179e-06
0.000318561
-2.03495e-06
0.0003189
-1.69864e-06
0.000319172
-1.36307e-06
0.000319376
-1.02845e-06
0.000319513
-6.94985e-07
0.000319584
-3.62877e-07
0.000319589
-3.23245e-08
0.000319527
2.96478e-07
0.0003194
6.23341e-07
0.000319207
9.48082e-07
0.00031895
1.27052e-06
0.000318629
1.59048e-06
0.000318244
1.9078e-06
0.000317796
2.22232e-06
0.000317286
2.53388e-06
0.000316713
2.84233e-06
0.00031608
3.14753e-06
0.000315386
3.44935e-06
0.000314632
3.74766e-06
0.000313819
4.04233e-06
0.000312948
4.33325e-06
0.000312019
4.62031e-06
0.000311033
4.90342e-06
0.000309992
5.18247e-06
0.000308895
5.45739e-06
0.000307745
5.72809e-06
0.00030654
5.9945e-06
0.000305284
6.25655e-06
0.000303976
6.51419e-06
0.000302617
6.76736e-06
0.000301208
7.01601e-06
0.000299751
7.26011e-06
0.000298245
7.49963e-06
0.000296693
7.73452e-06
0.000295094
7.96479e-06
0.000293451
8.19039e-06
0.000291763
8.41134e-06
0.000290032
8.62762e-06
0.000288258
8.83923e-06
0.000286443
9.04619e-06
0.000284588
9.24849e-06
0.000282693
9.44615e-06
0.00028076
9.6392e-06
0.000278789
9.82766e-06
0.000276781
1.00115e-05
0.000274738
1.01909e-05
0.000272659
1.03658e-05
0.000270547
1.05362e-05
0.000268401
1.07021e-05
0.000266223
1.08638e-05
0.000264014
1.1021e-05
0.000261774
1.1174e-05
0.000259504
1.13228e-05
0.000257206
1.14674e-05
0.000254879
1.16079e-05
0.000252526
1.17444e-05
0.000250146
1.18768e-05
0.00024774
1.20053e-05
0.000245309
1.213e-05
0.000242855
1.22508e-05
0.000240377
1.23679e-05
0.000237876
1.24814e-05
0.000235354
1.25912e-05
0.00023281
1.26975e-05
0.000230246
1.28004e-05
0.000227662
1.28998e-05