/*--------------------------------*- C++ -*----------------------------------*\
| =========                 |                                                 |
| \\      /  F ield         | OpenFOAM: The Open Source CFD Toolbox           |
|  \\    /   O peration     | Version:  v2012                                 |
|   \\  /    A nd           | Website:  www.openfoam.com                      |
|    \\/     M anipulation  |                                                 |
\*---------------------------------------------------------------------------*/
FoamFile
{
    version     2.0;
    format      ascii;
    class       volScalarField;
    location    "13.9";
    object      W;
}
// * * * * * * * * * * * * * * * * * * * * * * * * * * * * * * * * * * * * * //

dimensions      [0 0 -1 0 0 0 0];


internalField   nonuniform List<scalar> 
65536
(
7.67443e-17
2.31378e-16
3.8948e-16
5.53449e-16
7.25771e-16
9.09045e-16
1.10601e-15
1.3196e-15
1.55294e-15
1.80945e-15
2.09281e-15
2.40708e-15
2.75669e-15
3.14651e-15
3.58192e-15
4.06885e-15
4.61385e-15
5.22416e-15
5.9078e-15
6.6736e-15
7.53136e-15
8.49189e-15
9.56712e-15
1.07702e-14
1.21157e-14
1.36197e-14
1.52996e-14
1.7175e-14
1.92671e-14
2.15993e-14
2.41971e-14
2.70887e-14
3.03046e-14
3.38784e-14
3.78466e-14
4.22489e-14
4.71286e-14
5.25327e-14
5.85121e-14
6.5122e-14
7.24219e-14
8.04762e-14
8.93543e-14
9.91306e-14
1.09885e-13
1.21704e-13
1.34678e-13
1.48907e-13
1.64493e-13
1.81548e-13
2.0019e-13
2.20543e-13
2.42738e-13
2.66914e-13
2.93216e-13
3.21796e-13
3.52814e-13
3.86436e-13
4.22833e-13
4.62184e-13
5.04673e-13
5.50489e-13
5.99824e-13
6.52878e-13
7.09849e-13
7.70941e-13
8.36357e-13
9.063e-13
9.80973e-13
1.06057e-12
1.1453e-12
1.23534e-12
1.33088e-12
1.43208e-12
1.53911e-12
1.65213e-12
1.77125e-12
1.8966e-12
2.02828e-12
2.16636e-12
2.3109e-12
2.46191e-12
2.61941e-12
2.78336e-12
2.95371e-12
3.13035e-12
3.31317e-12
3.502e-12
3.69664e-12
3.89687e-12
4.1024e-12
4.31292e-12
4.52809e-12
4.74752e-12
4.97079e-12
5.19743e-12
5.42696e-12
5.65884e-12
5.89253e-12
6.12742e-12
6.36292e-12
6.59838e-12
6.83315e-12
7.06656e-12
7.29792e-12
7.52653e-12
7.7517e-12
7.97273e-12
8.18891e-12
8.39956e-12
8.60398e-12
8.80151e-12
8.9915e-12
9.17332e-12
9.34636e-12
9.51005e-12
9.66384e-12
9.80721e-12
9.93969e-12
1.00608e-11
1.01702e-11
1.02675e-11
1.03524e-11
1.04246e-11
1.04838e-11
1.05299e-11
1.05628e-11
1.05822e-11
1.05881e-11
1.05806e-11
1.05595e-11
1.0525e-11
1.04771e-11
1.0416e-11
1.03417e-11
1.02546e-11
1.01547e-11
1.00423e-11
9.91783e-12
9.78143e-12
9.63348e-12
9.47434e-12
9.30441e-12
9.12409e-12
8.93382e-12
8.73409e-12
8.52538e-12
8.30822e-12
8.08315e-12
7.85076e-12
7.61165e-12
7.36646e-12
7.11585e-12
6.8605e-12
6.60113e-12
6.33847e-12
6.07329e-12
5.80637e-12
5.53851e-12
5.27052e-12
5.00323e-12
4.73747e-12
4.47408e-12
4.21389e-12
3.95771e-12
3.70636e-12
3.46062e-12
3.22123e-12
2.98892e-12
2.76435e-12
2.54815e-12
2.34087e-12
2.14303e-12
1.95506e-12
1.7773e-12
1.61005e-12
1.45352e-12
1.30782e-12
1.17299e-12
1.04901e-12
9.3575e-13
8.33027e-13
7.40577e-13
6.58073e-13
5.85125e-13
5.21286e-13
4.66064e-13
4.18921e-13
3.79284e-13
3.46551e-13
3.20098e-13
2.99285e-13
2.83461e-13
2.71976e-13
2.64181e-13
2.59437e-13
2.57125e-13
2.56647e-13
2.57436e-13
2.5896e-13
2.60733e-13
2.62316e-13
2.63323e-13
2.63431e-13
2.62375e-13
2.59957e-13
2.56045e-13
2.50573e-13
2.43535e-13
2.34986e-13
2.25031e-13
2.13824e-13
2.01553e-13
1.88434e-13
1.74701e-13
1.60596e-13
1.4636e-13
1.32223e-13
1.18396e-13
1.05067e-13
9.23971e-14
8.05137e-14
6.95125e-14
5.94566e-14
5.03788e-14
4.22835e-14
3.51509e-14
2.89409e-14
2.35975e-14
1.90533e-14
1.52333e-14
1.20589e-14
9.45112e-15
7.3332e-15
5.63262e-15
4.28261e-15
3.22301e-15
2.40073e-15
1.76982e-15
1.2912e-15
9.32204e-16
6.65978e-16
4.70777e-16
3.29271e-16
2.2785e-16
1.55984e-16
1.05635e-16
7.07617e-17
4.68772e-17
3.06982e-17
1.9851e-17
1.2639e-17
7.86036e-18
4.66585e-18
2.44909e-18
7.60731e-19
2.66228e-16
8.02661e-16
1.35115e-15
1.92004e-15
2.51797e-15
3.15395e-15
3.83754e-15
4.57889e-15
5.38894e-15
6.2795e-15
7.26345e-15
8.35485e-15
9.56914e-15
1.09233e-14
1.2436e-14
1.41279e-14
1.60219e-14
1.81431e-14
2.05194e-14
2.31817e-14
2.6164e-14
2.9504e-14
3.32432e-14
3.74277e-14
4.21079e-14
4.73397e-14
5.31845e-14
5.97098e-14
6.69898e-14
7.51058e-14
8.41472e-14
9.42115e-14
1.05406e-13
1.17846e-13
1.3166e-13
1.46987e-13
1.63975e-13
1.82791e-13
2.03609e-13
2.26623e-13
2.52039e-13
2.80081e-13
3.10991e-13
3.45027e-13
3.82466e-13
4.23607e-13
4.68768e-13
5.18288e-13
5.72529e-13
6.31873e-13
6.96728e-13
7.67523e-13
8.44713e-13
9.28774e-13
1.02021e-12
1.11954e-12
1.22731e-12
1.34409e-12
1.47046e-12
1.60705e-12
1.75447e-12
1.91337e-12
2.08441e-12
2.26824e-12
2.46555e-12
2.67702e-12
2.90332e-12
3.14515e-12
3.40315e-12
3.678e-12
3.97033e-12
4.28076e-12
4.60987e-12
4.95821e-12
5.32628e-12
5.71455e-12
6.12341e-12
6.5532e-12
7.00419e-12
7.47656e-12
7.97041e-12
8.48577e-12
9.02253e-12
9.58051e-12
1.01594e-11
1.07588e-11
1.13782e-11
1.20169e-11
1.26741e-11
1.3349e-11
1.40404e-11
1.47473e-11
1.54682e-11
1.62019e-11
1.69467e-11
1.7701e-11
1.84631e-11
1.9231e-11
2.00028e-11
2.07765e-11
2.15498e-11
2.23206e-11
2.30867e-11
2.38457e-11
2.45953e-11
2.53332e-11
2.6057e-11
2.67644e-11
2.74531e-11
2.81209e-11
2.87655e-11
2.93847e-11
2.99765e-11
3.0539e-11
3.10702e-11
3.15683e-11
3.20318e-11
3.2459e-11
3.28486e-11
3.31994e-11
3.35101e-11
3.37798e-11
3.40078e-11
3.41932e-11
3.43356e-11
3.44345e-11
3.44897e-11
3.4501e-11
3.44686e-11
3.43924e-11
3.42728e-11
3.41102e-11
3.3905e-11
3.36578e-11
3.33694e-11
3.30405e-11
3.2672e-11
3.2265e-11
3.18204e-11
3.13395e-11
3.08234e-11
3.02734e-11
2.9691e-11
2.90775e-11
2.84345e-11
2.77636e-11
2.70665e-11
2.63447e-11
2.56003e-11
2.4835e-11
2.40508e-11
2.32497e-11
2.24338e-11
2.16053e-11
2.07664e-11
1.99195e-11
1.90667e-11
1.82107e-11
1.73538e-11
1.64986e-11
1.56475e-11
1.4803e-11
1.39678e-11
1.31443e-11
1.2335e-11
1.15423e-11
1.07686e-11
1.0016e-11
9.28678e-12
8.58283e-12
7.90601e-12
7.25795e-12
6.64012e-12
6.05376e-12
5.49988e-12
4.97926e-12
4.49246e-12
4.03975e-12
3.6212e-12
3.23661e-12
2.88555e-12
2.56736e-12
2.28118e-12
2.02593e-12
1.80036e-12
1.60305e-12
1.43243e-12
1.28681e-12
1.16439e-12
1.06329e-12
9.81576e-13
9.17246e-13
8.6829e-13
8.32692e-13
8.0845e-13
7.93597e-13
7.86222e-13
7.84489e-13
7.86656e-13
7.91095e-13
7.96312e-13
8.00963e-13
8.03872e-13
8.04044e-13
8.00675e-13
7.93162e-13
7.81102e-13
7.6429e-13
7.42714e-13
7.16539e-13
6.86092e-13
6.51837e-13
6.1435e-13
5.74291e-13
5.32375e-13
4.89337e-13
4.4591e-13
4.02794e-13
3.60634e-13
3.20003e-13
2.81387e-13
2.45173e-13
2.11654e-13
1.8102e-13
1.53368e-13
1.28713e-13
1.06992e-13
8.80836e-14
7.18154e-14
5.79816e-14
4.63536e-14
3.66917e-14
2.87552e-14
2.231e-14
1.71353e-14
1.30276e-14
9.80378e-15
7.30218e-15
5.3829e-15
3.92699e-15
2.83504e-15
2.0253e-15
1.43162e-15
1.00127e-15
6.92838e-16
4.74292e-16
3.21191e-16
2.15149e-16
1.42525e-16
9.33325e-17
6.03521e-17
3.84251e-17
2.38967e-17
1.41847e-17
7.44548e-18
2.31275e-18
5.78212e-16
1.7433e-15
2.93468e-15
4.17051e-15
5.46962e-15
6.85167e-15
8.33746e-15
9.94916e-15
1.17106e-14
1.36476e-14
1.57882e-14
1.81631e-14
2.08061e-14
2.37542e-14
2.70482e-14
3.07334e-14
3.48595e-14
3.94817e-14
4.4661e-14
5.04648e-14
5.69676e-14
6.42519e-14
7.24085e-14
8.15381e-14
9.17513e-14
1.0317e-13
1.15929e-13
1.30176e-13
1.46074e-13
1.638e-13
1.8355e-13
2.05537e-13
2.29995e-13
2.5718e-13
2.8737e-13
3.20867e-13
3.58001e-13
3.99129e-13
4.44638e-13
4.94947e-13
5.50509e-13
6.11811e-13
6.79379e-13
7.53777e-13
8.35609e-13
9.25523e-13
1.02421e-12
1.13241e-12
1.2509e-12
1.38051e-12
1.52212e-12
1.67667e-12
1.84512e-12
2.0285e-12
2.2279e-12
2.44442e-12
2.67924e-12
2.93356e-12
3.20865e-12
3.50578e-12
3.82627e-12
4.17149e-12
4.5428e-12
4.94159e-12
5.36925e-12
5.8272e-12
6.31681e-12
6.83946e-12
7.39649e-12
7.9892e-12
8.61886e-12
9.28663e-12
9.99364e-12
1.07409e-11
1.15293e-11
1.23596e-11
1.32325e-11
1.41484e-11
1.51078e-11
1.61106e-11
1.7157e-11
1.82465e-11
1.93787e-11
2.05529e-11
2.17681e-11
2.30231e-11
2.43163e-11
2.56461e-11
2.70103e-11
2.84067e-11
2.98327e-11
3.12854e-11
3.27618e-11
3.42585e-11
3.5772e-11
3.72983e-11
3.88335e-11
4.03734e-11
4.19135e-11
4.34494e-11
4.49764e-11
4.64897e-11
4.79846e-11
4.94562e-11
5.08997e-11
5.23103e-11
5.36832e-11
5.50137e-11
5.62973e-11
5.75295e-11
5.87062e-11
5.98234e-11
6.08771e-11
6.18638e-11
6.27803e-11
6.36234e-11
6.43905e-11
6.50792e-11
6.56872e-11
6.62128e-11
6.66546e-11
6.70113e-11
6.72821e-11
6.74665e-11
6.75642e-11
6.75753e-11
6.75001e-11
6.73393e-11
6.70937e-11
6.67644e-11
6.63528e-11
6.58604e-11
6.52889e-11
6.46404e-11
6.39168e-11
6.31204e-11
6.22536e-11
6.1319e-11
6.0319e-11
5.92565e-11
5.81344e-11
5.69554e-11
5.57227e-11
5.44394e-11
5.31085e-11
5.17335e-11
5.03177e-11
4.88644e-11
4.73772e-11
4.58597e-11
4.43156e-11
4.27487e-11
4.11627e-11
3.95617e-11
3.79497e-11
3.63307e-11
3.4709e-11
3.30887e-11
3.14741e-11
2.98696e-11
2.82793e-11
2.67077e-11
2.51591e-11
2.36375e-11
2.21472e-11
2.06921e-11
1.92761e-11
1.79029e-11
1.65758e-11
1.52982e-11
1.40729e-11
1.29024e-11
1.1789e-11
1.07346e-11
9.74065e-12
8.80817e-12
7.93783e-12
7.12985e-12
6.38403e-12
5.69978e-12
5.07607e-12
4.51151e-12
4.00435e-12
3.55252e-12
3.15361e-12
2.80496e-12
2.5037e-12
2.24671e-12
2.03073e-12
1.85237e-12
1.70814e-12
1.59448e-12
1.50783e-12
1.44461e-12
1.40129e-12
1.37441e-12
1.36063e-12
1.35672e-12
1.35965e-12
1.36658e-12
1.37492e-12
1.38234e-12
1.38679e-12
1.38657e-12
1.38027e-12
1.36686e-12
1.34565e-12
1.3163e-12
1.27877e-12
1.23336e-12
1.18064e-12
1.1214e-12
1.05665e-12
9.87512e-13
9.15221e-13
8.41044e-13
7.66236e-13
6.92e-13
6.19442e-13
5.49543e-13
4.83133e-13
4.20878e-13
3.63271e-13
3.10637e-13
2.63142e-13
2.20803e-13
1.83513e-13
1.51058e-13
1.23141e-13
9.9406e-14
7.94596e-14
6.28889e-14
4.92796e-14
3.82294e-14
2.93588e-14
2.23185e-14
1.67937e-14
1.25073e-14
9.219e-15
6.72493e-15
4.85455e-15
3.46771e-15
2.45102e-15
1.7141e-15
1.18601e-15
8.11848e-16
5.49751e-16
3.68229e-16
2.4392e-16
1.59723e-16
1.03278e-16
6.57529e-17
4.08906e-17
2.42715e-17
1.27398e-17
3.9573e-18
1.14755e-15
3.45994e-15
5.82473e-15
8.27813e-15
1.08576e-14
1.36025e-14
1.65541e-14
1.97568e-14
2.3258e-14
2.71094e-14
3.13669e-14
3.6092e-14
4.13519e-14
4.72208e-14
5.37805e-14
6.11211e-14
6.93426e-14
7.85551e-14
8.88808e-14
1.00455e-13
1.13426e-13
1.27961e-13
1.4424e-13
1.62465e-13
1.82859e-13
2.05666e-13
2.31156e-13
2.59625e-13
2.91398e-13
3.26833e-13
3.66321e-13
4.10292e-13
4.59213e-13
5.13596e-13
5.73999e-13
6.41027e-13
7.15342e-13
7.97657e-13
8.88747e-13
9.89452e-13
1.10067e-12
1.22339e-12
1.35865e-12
1.50757e-12
1.67137e-12
1.85132e-12
2.04882e-12
2.26531e-12
2.50235e-12
2.76158e-12
3.04476e-12
3.35369e-12
3.69032e-12
4.05666e-12
4.45481e-12
4.88697e-12
5.3554e-12
5.86248e-12
6.4106e-12
7.00227e-12
7.64001e-12
8.32641e-12
9.06408e-12
9.85562e-12
1.07037e-11
1.16108e-11
1.25796e-11
1.36126e-11
1.47121e-11
1.58805e-11
1.712e-11
1.84325e-11
1.98199e-11
2.12839e-11
2.28256e-11
2.44463e-11
2.61466e-11
2.79271e-11
2.97877e-11
3.17282e-11
3.37478e-11
3.58453e-11
3.8019e-11
4.02668e-11
4.2586e-11
4.49734e-11
4.74254e-11
4.99376e-11
5.25054e-11
5.51234e-11
5.77859e-11
6.04865e-11
6.32186e-11
6.59748e-11
6.87476e-11
7.15289e-11
7.43105e-11
7.70837e-11
7.98397e-11
8.25693e-11
8.52635e-11
8.7913e-11
9.05085e-11
9.3041e-11
9.55014e-11
9.78808e-11
1.00171e-10
1.02362e-10
1.04449e-10
1.06421e-10
1.08274e-10
1.09999e-10
1.11592e-10
1.13046e-10
1.14358e-10
1.15522e-10
1.16535e-10
1.17395e-10
1.18099e-10
1.18646e-10
1.19035e-10
1.19265e-10
1.19337e-10
1.19252e-10
1.19012e-10
1.18618e-10
1.18074e-10
1.17381e-10
1.16544e-10
1.15566e-10
1.14452e-10
1.13206e-10
1.11832e-10
1.10336e-10
1.08723e-10
1.06997e-10
1.05166e-10
1.03233e-10
1.01206e-10
9.90889e-11
9.68884e-11
9.461e-11
9.22598e-11
8.98435e-11
8.73671e-11
8.48366e-11
8.22578e-11
7.96367e-11
7.69794e-11
7.42918e-11
7.15799e-11
6.885e-11
6.6108e-11
6.33601e-11
6.06126e-11
5.78715e-11
5.51433e-11
5.24341e-11
4.97502e-11
4.70978e-11
4.44831e-11
4.19122e-11
3.93912e-11
3.69259e-11
3.4522e-11
3.2185e-11
2.99201e-11
2.77321e-11
2.56256e-11
2.36048e-11
2.16732e-11
1.98341e-11
1.80901e-11
1.64433e-11
1.48953e-11
1.34469e-11
1.20984e-11
1.08495e-11
9.69935e-12
8.64634e-12
7.68842e-12
6.82296e-12
6.04682e-12
5.35641e-12
4.74772e-12
4.21638e-12
3.7577e-12
3.36671e-12
3.03827e-12
2.76703e-12
2.54758e-12
2.37443e-12
2.24207e-12
2.14507e-12
2.07805e-12
2.03577e-12
2.01318e-12
2.00546e-12
2.00805e-12
2.01672e-12
2.02761e-12
2.03724e-12
2.0426e-12
2.04116e-12
2.03085e-12
2.01016e-12
1.97807e-12
1.93407e-12
1.87815e-12
1.81073e-12
1.73266e-12
1.64511e-12
1.54956e-12
1.44767e-12
1.34124e-12
1.23213e-12
1.12218e-12
1.01315e-12
9.06645e-13
8.04105e-13
7.06734e-13
6.15498e-13
5.31113e-13
4.54045e-13
3.84529e-13
3.22583e-13
2.68042e-13
2.20588e-13
1.79783e-13
1.45101e-13
1.15962e-13
9.17616e-14
7.18909e-14
5.57607e-14
4.2815e-14
3.25425e-14
2.44831e-14
1.82312e-14
1.34362e-14
9.79991e-15
7.0734e-15
5.05208e-15
3.57046e-15
2.49671e-15
1.72733e-15
1.18228e-15
8.00522e-16
5.36154e-16
3.55129e-16
2.32529e-16
1.50346e-16
9.57133e-17
5.95197e-17
3.53279e-17
1.85427e-17
5.75979e-18
2.20706e-15
6.65458e-15
1.12034e-14
1.59234e-14
2.08872e-14
2.61706e-14
3.18537e-14
3.80221e-14
4.47679e-14
5.21909e-14
6.03996e-14
6.95129e-14
7.96615e-14
9.09891e-14
1.03654e-13
1.17832e-13
1.33716e-13
1.51521e-13
1.71484e-13
1.93868e-13
2.18962e-13
2.47088e-13
2.786e-13
3.13891e-13
3.53391e-13
3.97578e-13
4.46976e-13
5.02162e-13
5.6377e-13
6.32495e-13
7.09099e-13
7.94418e-13
8.89362e-13
9.94928e-13
1.1122e-12
1.24236e-12
1.38669e-12
1.54658e-12
1.72353e-12
1.91918e-12
2.13528e-12
2.37373e-12
2.63655e-12
2.92592e-12
3.24419e-12
3.59384e-12
3.97753e-12
4.39808e-12
4.85848e-12
5.3619e-12
5.91168e-12
6.51133e-12
7.16454e-12
7.87514e-12
8.64716e-12
9.48476e-12
1.03922e-11
1.1374e-11
1.24347e-11
1.35789e-11
1.48113e-11
1.61367e-11
1.756e-11
1.90858e-11
2.0719e-11
2.24642e-11
2.4326e-11
2.63086e-11
2.84164e-11
3.06532e-11
3.30226e-11
3.55277e-11
3.81715e-11
4.09561e-11
4.38834e-11
4.69545e-11
5.01699e-11
5.35294e-11
5.70321e-11
6.0676e-11
6.44586e-11
6.83763e-11
7.24245e-11
7.65978e-11
8.08897e-11
8.52927e-11
8.97983e-11
9.43971e-11
9.90784e-11
1.03831e-10
1.08642e-10
1.13499e-10
1.18387e-10
1.23292e-10
1.28198e-10
1.33089e-10
1.37949e-10
1.4276e-10
1.47505e-10
1.52168e-10
1.56731e-10
1.61176e-10
1.65487e-10
1.69647e-10
1.73639e-10
1.7745e-10
1.81063e-10
1.84464e-10
1.87642e-10
1.90583e-10
1.93278e-10
1.95716e-10
1.97889e-10
1.9979e-10
2.01413e-10
2.02754e-10
2.0381e-10
2.04578e-10
2.05059e-10
2.05253e-10
2.05162e-10
2.04789e-10
2.0414e-10
2.03218e-10
2.02031e-10
2.00585e-10
1.98889e-10
1.96952e-10
1.94782e-10
1.92389e-10
1.89785e-10
1.86978e-10
1.83981e-10
1.80805e-10
1.7746e-10
1.73958e-10
1.70311e-10
1.66529e-10
1.62625e-10
1.58608e-10
1.5449e-10
1.50283e-10
1.45995e-10
1.41639e-10
1.37223e-10
1.32759e-10
1.28256e-10
1.23723e-10
1.19171e-10
1.14607e-10
1.10043e-10
1.05486e-10
1.00946e-10
9.64316e-11
9.19512e-11
8.75137e-11
8.31275e-11
7.88011e-11
7.45427e-11
7.03605e-11
6.62625e-11
6.22564e-11
5.83497e-11
5.45499e-11
5.08637e-11
4.72977e-11
4.38581e-11
4.05505e-11
3.73799e-11
3.4351e-11
3.14675e-11
2.87326e-11
2.61487e-11
2.37174e-11
2.14395e-11
1.9315e-11
1.73431e-11
1.55222e-11
1.38497e-11
1.23225e-11
1.09365e-11
9.68718e-12
8.56913e-12
7.57647e-12
6.70281e-12
5.9413e-12
5.28473e-12
4.72558e-12
4.25613e-12
3.86848e-12
3.55465e-12
3.30664e-12
3.11652e-12
2.97643e-12
2.8787e-12
2.8159e-12
2.78087e-12
2.76681e-12
2.76735e-12
2.77656e-12
2.78906e-12
2.80004e-12
2.80532e-12
2.8014e-12
2.78546e-12
2.7554e-12
2.70985e-12
2.64811e-12
2.57018e-12
2.47667e-12
2.36872e-12
2.24798e-12
2.11644e-12
1.97639e-12
1.8303e-12
1.68071e-12
1.53011e-12
1.3809e-12
1.23527e-12
1.09516e-12
9.622e-13
8.37695e-13
7.22603e-13
6.17549e-13
5.22835e-13
4.38475e-13
3.64232e-13
2.99664e-13
2.44164e-13
1.9701e-13
1.57407e-13
1.24527e-13
9.75379e-14
7.56361e-14
5.80634e-14
4.41231e-14
3.31891e-14
2.47095e-14
1.82073e-14
1.32775e-14
9.58188e-15
6.84267e-15
4.83522e-15
3.38065e-15
2.33857e-15
1.60045e-15
1.08355e-15
7.25635e-16
4.80588e-16
3.14648e-16
2.03425e-16
1.29496e-16
8.05227e-17
4.77919e-17
2.5084e-17
7.79154e-18
4.16776e-15
1.25667e-14
2.11579e-14
3.00743e-14
3.94534e-14
4.94393e-14
6.01844e-14
7.18512e-14
8.4615e-14
9.86653e-14
1.14209e-13
1.31473e-13
1.50705e-13
1.72179e-13
1.96198e-13
2.23097e-13
2.53244e-13
2.87049e-13
3.24965e-13
3.67493e-13
4.15189e-13
4.68664e-13
5.28599e-13
5.95741e-13
6.70919e-13
7.55042e-13
8.49115e-13
9.54242e-13
1.07164e-12
1.20263e-12
1.34868e-12
1.51139e-12
1.69251e-12
1.89393e-12
2.11774e-12
2.36619e-12
2.64174e-12
2.94706e-12
3.28502e-12
3.65873e-12
4.07156e-12
4.52711e-12
5.02927e-12
5.58219e-12
6.19033e-12
6.85844e-12
7.59155e-12
8.39504e-12
9.27459e-12
1.02362e-11
1.12862e-11
1.24312e-11
1.36781e-11
1.50342e-11
1.65071e-11
1.81044e-11
1.98343e-11
2.17049e-11
2.37248e-11
2.59024e-11
2.82464e-11
3.07656e-11
3.34687e-11
3.63642e-11
3.94606e-11
4.27661e-11
4.62887e-11
5.00359e-11
5.40147e-11
5.82315e-11
6.2692e-11
6.74013e-11
7.23631e-11
7.75806e-11
8.30555e-11
8.87884e-11
9.47785e-11
1.01024e-10
1.0752e-10
1.14261e-10
1.21242e-10
1.28451e-10
1.35879e-10
1.43514e-10
1.51339e-10
1.59339e-10
1.67496e-10
1.75788e-10
1.84194e-10
1.9269e-10
2.01251e-10
2.0985e-10
2.18458e-10
2.27046e-10
2.35583e-10
2.44039e-10
2.5238e-10
2.60576e-10
2.68594e-10
2.76401e-10
2.83965e-10
2.91257e-10
2.98244e-10
3.04899e-10
3.11193e-10
3.171e-10
3.22597e-10
3.2766e-10
3.32269e-10
3.36407e-10
3.40059e-10
3.43211e-10
3.45854e-10
3.4798e-10
3.49583e-10
3.50663e-10
3.51219e-10
3.51254e-10
3.50774e-10
3.49787e-10
3.48302e-10
3.46331e-10
3.43889e-10
3.40991e-10
3.37654e-10
3.33898e-10
3.2974e-10
3.25203e-10
3.20308e-10
3.15076e-10
3.0953e-10
3.03693e-10
2.97588e-10
2.91236e-10
2.84662e-10
2.77886e-10
2.70931e-10
2.63818e-10
2.56568e-10
2.49201e-10
2.41736e-10
2.34193e-10
2.26589e-10
2.18942e-10
2.11269e-10
2.03585e-10
1.95906e-10
1.88247e-10
1.80623e-10
1.73045e-10
1.65529e-10
1.58085e-10
1.50727e-10
1.43467e-10
1.36314e-10
1.29282e-10
1.22379e-10
1.15617e-10
1.09005e-10
1.02553e-10
9.62705e-11
9.01657e-11
8.42472e-11
7.85228e-11
7.29999e-11
6.76853e-11
6.25851e-11
5.77046e-11
5.30484e-11
4.86204e-11
4.44235e-11
4.04596e-11
3.67296e-11
3.32334e-11
2.997e-11
2.69372e-11
2.41318e-11
2.15494e-11
1.91849e-11
1.7032e-11
1.50835e-11
1.33316e-11
1.17675e-11
1.03818e-11
9.16464e-12
8.10553e-12
7.19365e-12
6.41793e-12
5.76707e-12
5.22968e-12
4.79436e-12
4.44979e-12
4.18479e-12
3.98842e-12
3.85004e-12
3.75939e-12
3.70669e-12
3.68265e-12
3.67862e-12
3.68659e-12
3.69931e-12
3.71034e-12
3.71409e-12
3.70589e-12
3.68201e-12
3.63967e-12
3.57707e-12
3.49332e-12
3.38841e-12
3.26318e-12
3.11915e-12
2.9585e-12
2.78388e-12
2.59831e-12
2.40504e-12
2.20738e-12
2.00863e-12
1.81192e-12
1.6201e-12
1.43572e-12
1.26088e-12
1.09727e-12
9.46143e-13
8.08278e-13
6.84056e-13
5.73476e-13
4.76209e-13
3.91659e-13
3.19016e-13
2.57326e-13
2.05536e-13
1.62555e-13
1.27288e-13
9.86797e-14
7.57337e-14
5.75369e-14
4.32686e-14
3.22064e-14
2.37264e-14
1.72987e-14
1.24814e-14
8.91164e-15
6.29612e-15
4.40134e-15
3.04417e-15
2.08305e-15
1.41009e-15
9.44196e-16
6.25269e-16
4.09331e-16
2.64614e-16
1.68433e-16
1.04727e-16
6.21542e-17
3.26208e-17
1.01324e-17
7.75216e-15
2.33752e-14
3.93579e-14
5.59489e-14
7.34057e-14
9.1998e-14
1.12011e-13
1.33749e-13
1.57541e-13
1.83742e-13
2.12741e-13
2.44961e-13
2.80871e-13
3.20985e-13
3.65871e-13
4.16158e-13
4.72541e-13
5.35791e-13
6.0676e-13
6.86392e-13
7.75734e-13
8.75942e-13
9.88294e-13
1.1142e-12
1.25523e-12
1.4131e-12
1.58969e-12
1.78711e-12
2.00763e-12
2.25378e-12
2.52831e-12
2.83424e-12
3.17488e-12
3.55381e-12
3.97496e-12
4.44261e-12
4.96139e-12
5.53633e-12
6.17286e-12
6.87687e-12
7.65468e-12
8.51311e-12
9.45949e-12
1.05016e-11
1.16479e-11
1.29073e-11
1.42892e-11
1.58038e-11
1.74617e-11
1.92742e-11
2.12529e-11
2.34104e-11
2.57596e-11
2.83139e-11
3.10873e-11
3.40942e-11
3.73495e-11
4.08682e-11
4.46659e-11
4.87581e-11
5.31606e-11
5.78891e-11
6.29592e-11
6.83862e-11
7.4185e-11
8.03701e-11
8.69549e-11
9.39523e-11
1.01374e-10
1.0923e-10
1.1753e-10
1.2628e-10
1.35485e-10
1.4515e-10
1.55274e-10
1.65856e-10
1.76891e-10
1.88373e-10
2.00289e-10
2.12628e-10
2.2537e-10
2.38497e-10
2.51983e-10
2.65802e-10
2.79921e-10
2.94306e-10
3.08919e-10
3.23717e-10
3.38657e-10
3.53689e-10
3.68763e-10
3.83827e-10
3.98824e-10
4.13698e-10
4.28391e-10
4.42842e-10
4.56992e-10
4.70781e-10
4.84149e-10
4.97039e-10
5.09392e-10
5.21154e-10
5.32272e-10
5.42696e-10
5.52381e-10
5.61283e-10
5.69363e-10
5.76588e-10
5.82929e-10
5.8836e-10
5.92862e-10
5.96421e-10
5.99028e-10
6.0068e-10
6.01376e-10
6.01125e-10
5.99937e-10
5.97828e-10
5.94819e-10
5.90935e-10
5.86202e-10
5.80654e-10
5.74324e-10
5.67251e-10
5.59474e-10
5.51034e-10
5.41975e-10
5.3234e-10
5.22175e-10
5.11524e-10
5.00433e-10
4.88946e-10
4.77107e-10
4.6496e-10
4.52548e-10
4.3991e-10
4.27087e-10
4.14117e-10
4.01036e-10
3.87879e-10
3.74679e-10
3.61466e-10
3.48271e-10
3.3512e-10
3.22041e-10
3.09056e-10
2.96189e-10
2.83461e-10
2.70891e-10
2.58499e-10
2.46301e-10
2.34314e-10
2.22552e-10
2.11031e-10
1.99762e-10
1.88759e-10
1.78033e-10
1.67595e-10
1.57456e-10
1.47624e-10
1.38109e-10
1.2892e-10
1.20063e-10
1.11545e-10
1.03373e-10
9.55502e-11
8.80825e-11
8.09724e-11
7.42222e-11
6.78329e-11
6.18045e-11
5.61357e-11
5.0824e-11
4.58655e-11
4.12552e-11
3.69867e-11
3.30524e-11
2.94432e-11
2.61494e-11
2.31595e-11
2.04615e-11
1.80423e-11
1.5888e-11
1.39839e-11
1.23149e-11
1.08653e-11
9.61916e-12
8.56036e-12
7.67266e-12
6.93986e-12
6.34591e-12
5.87501e-12
5.51169e-12
5.24091e-12
5.04817e-12
4.91956e-12
4.8419e-12
4.80275e-12
4.79055e-12
4.79471e-12
4.80562e-12
4.81482e-12
4.81497e-12
4.79999e-12
4.76503e-12
4.70648e-12
4.62202e-12
4.51054e-12
4.37205e-12
4.20764e-12
4.01934e-12
3.80995e-12
3.58291e-12
3.34212e-12
3.09175e-12
2.83609e-12
2.57935e-12
2.32553e-12
2.0783e-12
1.84086e-12
1.61591e-12
1.40559e-12
1.21145e-12
1.03448e-12
8.75124e-13
7.33358e-13
6.08734e-13
5.00463e-13
4.07491e-13
3.28575e-13
2.62356e-13
2.07424e-13
1.62372e-13
1.2584e-13
9.655e-14
7.3331e-14
5.51312e-14
4.10258e-14
3.02162e-14
2.20252e-14
1.58882e-14
1.13417e-14
8.01141e-15
5.59939e-15
3.87212e-15
2.64916e-15
1.79303e-15
1.20045e-15
7.94865e-16
5.20295e-16
3.36311e-16
2.1405e-16
1.3308e-16
7.89761e-17
4.14477e-17
1.28739e-17
1.42146e-14
4.28629e-14
7.21751e-14
1.0261e-13
1.34642e-13
1.68769e-13
2.05519e-13
2.45454e-13
2.89181e-13
3.37357e-13
3.90702e-13
4.50001e-13
5.1612e-13
5.90013e-13
6.72734e-13
7.65449e-13
8.69449e-13
9.86165e-13
1.11718e-12
1.26425e-12
1.42932e-12
1.61454e-12
1.8223e-12
2.05521e-12
2.31619e-12
2.60845e-12
2.9355e-12
3.30125e-12
3.70995e-12
4.16631e-12
4.67546e-12
5.24304e-12
5.8752e-12
6.57866e-12
7.36074e-12
8.2294e-12
9.19331e-12
1.02618e-11
1.14451e-11
1.27541e-11
1.42007e-11
1.57974e-11
1.75581e-11
1.94972e-11
2.16303e-11
2.39742e-11
2.65463e-11
2.93654e-11
3.24513e-11
3.58247e-11
3.95076e-11
4.35229e-11
4.78943e-11
5.26467e-11
5.78057e-11
6.33977e-11
6.94499e-11
7.59898e-11
8.30455e-11
9.06451e-11
9.88171e-11
1.0759e-10
1.1699e-10
1.27046e-10
1.37783e-10
1.49226e-10
1.61398e-10
1.74321e-10
1.88013e-10
2.02491e-10
2.17768e-10
2.33853e-10
2.50753e-10
2.6847e-10
2.86999e-10
3.06334e-10
3.2646e-10
3.47359e-10
3.69005e-10
3.91367e-10
4.14408e-10
4.38082e-10
4.62339e-10
4.87121e-10
5.12363e-10
5.37995e-10
5.6394e-10
5.90115e-10
6.1643e-10
6.42791e-10
6.69102e-10
6.95258e-10
7.21154e-10
7.46683e-10
7.71735e-10
7.96198e-10
8.19963e-10
8.42919e-10
8.64961e-10
8.85984e-10
9.05888e-10
9.24576e-10
9.41961e-10
9.57958e-10
9.72493e-10
9.85499e-10
9.96916e-10
1.00669e-09
1.0148e-09
1.02119e-09
1.02586e-09
1.02879e-09
1.02998e-09
1.02945e-09
1.02721e-09
1.02329e-09
1.01774e-09
1.01059e-09
1.0019e-09
9.91732e-10
9.80154e-10
9.67236e-10
9.53056e-10
9.37695e-10
9.21235e-10
9.03763e-10
8.85366e-10
8.66131e-10
8.46148e-10
8.25501e-10
8.04278e-10
7.82563e-10
7.60436e-10
7.37977e-10
7.1526e-10
6.9236e-10
6.69343e-10
6.46275e-10
6.23216e-10
6.00225e-10
5.77352e-10
5.54649e-10
5.32159e-10
5.09924e-10
4.87983e-10
4.66369e-10
4.45113e-10
4.24245e-10
4.03789e-10
3.83768e-10
3.64203e-10
3.45111e-10
3.26509e-10
3.08411e-10
2.9083e-10
2.73777e-10
2.57262e-10
2.41292e-10
2.25877e-10
2.11021e-10
1.9673e-10
1.83009e-10
1.6986e-10
1.57285e-10
1.45286e-10
1.33862e-10
1.23012e-10
1.12734e-10
1.03023e-10
9.38756e-11
8.5284e-11
7.72408e-11
6.97364e-11
6.276e-11
5.62994e-11
5.03406e-11
4.48685e-11
3.98665e-11
3.53167e-11
3.12001e-11
2.74966e-11
2.41853e-11
2.12443e-11
1.86513e-11
1.63835e-11
1.44177e-11
1.27306e-11
1.1299e-11
1.00997e-11
9.10996e-12
8.30737e-12
7.67005e-12
7.1768e-12
6.80715e-12
6.5415e-12
6.36119e-12
6.24859e-12
6.18724e-12
6.16186e-12
6.15854e-12
6.16475e-12
6.16944e-12
6.16313e-12
6.13796e-12
6.08768e-12
6.00771e-12
5.89508e-12
5.74839e-12
5.56773e-12
5.35449e-12
5.1113e-12
4.84175e-12
4.55025e-12
4.24176e-12
3.92158e-12
3.59515e-12
3.26779e-12
2.94456e-12
2.63007e-12
2.32835e-12
2.04278e-12
1.776e-12
1.52996e-12
1.30584e-12
1.10418e-12
9.24895e-13
7.67392e-13
6.3064e-13
5.13278e-13
4.13715e-13
3.30214e-13
2.60981e-13
2.04225e-13
1.58224e-13
1.21358e-13
9.21447e-14
6.92553e-14
5.15218e-14
3.79365e-14
2.76458e-14
1.99379e-14
1.42293e-14
1.00489e-14
7.02205e-15
4.85501e-15
3.32103e-15
2.2474e-15
1.50442e-15
9.95997e-16
6.51866e-16
4.21309e-16
2.68121e-16
1.66682e-16
9.89105e-17
5.1907e-17
1.61222e-17
2.57015e-14
7.75031e-14
1.30513e-13
1.85566e-13
2.43527e-13
3.05303e-13
3.71854e-13
4.44206e-13
5.23466e-13
6.10834e-13
7.07621e-13
8.15265e-13
9.35348e-13
1.06961e-12
1.21999e-12
1.38862e-12
1.57786e-12
1.79034e-12
2.02896e-12
2.29694e-12
2.59784e-12
2.93563e-12
3.31468e-12
3.73981e-12
4.21638e-12
4.75026e-12
5.34797e-12
6.01665e-12
6.76417e-12
7.59917e-12
8.53112e-12
9.5704e-12
1.07283e-11
1.20173e-11
1.34509e-11
1.50437e-11
1.68116e-11
1.87721e-11
2.09437e-11
2.33466e-11
2.60028e-11
2.89354e-11
3.21697e-11
3.57326e-11
3.96526e-11
4.39604e-11
4.86885e-11
5.3871e-11
5.95444e-11
6.57468e-11
7.25181e-11
7.99004e-11
8.79371e-11
9.66734e-11
1.06156e-10
1.16433e-10
1.27553e-10
1.39566e-10
1.52523e-10
1.66474e-10
1.8147e-10
1.97561e-10
2.14794e-10
2.33219e-10
2.52879e-10
2.73818e-10
2.96075e-10
3.19684e-10
3.44676e-10
3.71076e-10
3.98903e-10
4.2817e-10
4.5888e-10
4.9103e-10
5.24606e-10
5.59586e-10
5.95937e-10
6.33615e-10
6.72564e-10
7.12717e-10
7.53995e-10
7.96307e-10
8.39547e-10
8.83601e-10
9.28339e-10
9.73623e-10
1.0193e-09
1.06521e-09
1.11118e-09
1.15703e-09
1.20258e-09
1.24762e-09
1.29197e-09
1.33542e-09
1.37777e-09
1.41882e-09
1.45837e-09
1.49622e-09
1.53219e-09
1.56608e-09
1.59773e-09
1.62698e-09
1.65367e-09
1.67768e-09
1.69888e-09
1.71718e-09
1.73247e-09
1.74472e-09
1.75385e-09
1.75985e-09
1.7627e-09
1.76243e-09
1.75905e-09
1.75261e-09
1.74318e-09
1.73084e-09
1.71569e-09
1.69783e-09
1.6774e-09
1.65451e-09
1.62933e-09
1.602e-09
1.57267e-09
1.54152e-09
1.50871e-09
1.4744e-09
1.43877e-09
1.40197e-09
1.36419e-09
1.32557e-09
1.28627e-09
1.24645e-09
1.20625e-09
1.1658e-09
1.12524e-09
1.08469e-09
1.04426e-09
1.00406e-09
9.64187e-10
9.24731e-10
8.85772e-10
8.47385e-10
8.09636e-10
7.72581e-10
7.36275e-10
7.0076e-10
6.66077e-10
6.3226e-10
5.99336e-10
5.67328e-10
5.36257e-10
5.06138e-10
4.76982e-10
4.48798e-10
4.21593e-10
3.9537e-10
3.7013e-10
3.45874e-10
3.22599e-10
3.00301e-10
2.78975e-10
2.58614e-10
2.39211e-10
2.20757e-10
2.0324e-10
1.8665e-10
1.70974e-10
1.56196e-10
1.42302e-10
1.29275e-10
1.17095e-10
1.05742e-10
9.51956e-11
8.54316e-11
7.64254e-11
6.81508e-11
6.05801e-11
5.36844e-11
4.74334e-11
4.1796e-11
3.67399e-11
3.22323e-11
2.82397e-11
2.47284e-11
2.16644e-11
1.90138e-11
1.67429e-11
1.48185e-11
1.3208e-11
1.18793e-11
1.08014e-11
9.94423e-12
9.27891e-12
8.77772e-12
8.41432e-12
8.1638e-12
8.00278e-12
7.90954e-12
7.86405e-12
7.84815e-12
7.84556e-12
7.842e-12
7.82528e-12
7.78531e-12
7.71412e-12
7.60589e-12
7.45689e-12
7.26538e-12
7.03149e-12
6.75706e-12
6.44544e-12
6.1012e-12
5.72992e-12
5.33787e-12
4.93175e-12
4.51837e-12
4.10443e-12
3.69624e-12
3.29954e-12
2.91937e-12
2.55991e-12
2.22441e-12
1.91525e-12
1.63387e-12
1.38088e-12
1.15613e-12
9.58811e-13
7.87599e-13
6.40754e-13
5.16251e-13
4.11891e-13
3.25408e-13
2.54548e-13
1.97142e-13
1.51157e-13
1.14733e-13
8.62057e-14
6.41127e-14
4.71941e-14
3.43828e-14
2.47902e-14
1.76881e-14
1.24887e-14
8.72502e-15
6.03122e-15
4.12482e-15
2.79086e-15
1.86791e-15
1.23646e-15
8.09135e-16
5.2289e-16
3.32731e-16
2.06829e-16
1.22725e-16
6.44012e-17
2.00024e-17
4.58294e-14
1.38204e-13
2.3275e-13
3.30964e-13
4.34401e-13
5.44691e-13
6.6356e-13
7.92853e-13
9.34561e-13
1.09085e-12
1.26408e-12
1.45684e-12
1.67198e-12
1.91267e-12
2.18237e-12
2.48496e-12
2.8247e-12
3.20634e-12
3.63515e-12
4.11695e-12
4.65821e-12
5.26609e-12
5.94853e-12
6.7143e-12
7.5731e-12
8.53563e-12
9.61369e-12
1.08203e-11
1.21697e-11
1.36777e-11
1.53615e-11
1.72399e-11
1.93337e-11
2.16653e-11
2.42593e-11
2.71426e-11
3.03441e-11
3.38953e-11
3.78303e-11
4.2186e-11
4.70019e-11
5.23208e-11
5.81882e-11
6.46532e-11
7.17679e-11
7.9588e-11
8.81724e-11
9.75836e-11
1.07887e-10
1.19153e-10
1.31453e-10
1.44863e-10
1.59463e-10
1.75333e-10
1.92557e-10
2.11223e-10
2.31417e-10
2.5323e-10
2.76751e-10
3.0207e-10
3.29277e-10
3.58459e-10
3.89702e-10
4.23088e-10
4.58695e-10
4.96595e-10
5.36853e-10
5.79527e-10
6.24665e-10
6.72304e-10
7.22471e-10
7.75178e-10
8.30422e-10
8.88185e-10
9.48431e-10
1.01111e-09
1.07613e-09
1.14342e-09
1.21286e-09
1.2843e-09
1.35759e-09
1.43254e-09
1.50895e-09
1.5866e-09
1.66522e-09
1.74456e-09
1.82432e-09
1.90419e-09
1.98386e-09
2.06299e-09
2.14121e-09
2.21819e-09
2.29355e-09
2.36692e-09
2.43795e-09
2.50626e-09
2.5715e-09
2.63333e-09
2.69142e-09
2.74544e-09
2.79511e-09
2.84017e-09
2.88036e-09
2.91547e-09
2.94533e-09
2.96978e-09
2.98871e-09
3.00205e-09
3.00974e-09
3.01179e-09
3.00822e-09
2.9991e-09
2.98453e-09
2.96464e-09
2.9396e-09
2.90959e-09
2.87484e-09
2.83557e-09
2.79206e-09
2.74459e-09
2.69343e-09
2.6389e-09
2.58131e-09
2.52097e-09
2.4582e-09
2.39331e-09
2.32663e-09
2.25844e-09
2.18906e-09
2.11876e-09
2.04784e-09
1.97654e-09
1.90512e-09
1.8338e-09
1.76282e-09
1.69236e-09
1.62261e-09
1.55374e-09
1.4859e-09
1.41922e-09
1.35382e-09
1.28981e-09
1.22728e-09
1.1663e-09
1.10693e-09
1.04924e-09