/*--------------------------------*- C++ -*----------------------------------*\
| =========                 |                                                 |
| \\      /  F ield         | OpenFOAM: The Open Source CFD Toolbox           |
|  \\    /   O peration     | Version:  v2012                                 |
|   \\  /    A nd           | Website:  www.openfoam.com                      |
|    \\/     M anipulation  |                                                 |
\*---------------------------------------------------------------------------*/
FoamFile
{
    version     2.0;
    format      ascii;
    class       volScalarField;
    location    "19.5";
    object      W;
}
// * * * * * * * * * * * * * * * * * * * * * * * * * * * * * * * * * * * * * //

dimensions      [0 0 -1 0 0 0 0];


internalField   nonuniform List<scalar> 
65536
(
1.80922e-14
5.44366e-14
9.12658e-14
1.28913e-13
1.6772e-13
2.08038e-13
2.5023e-13
2.94676e-13
3.41773e-13
3.9194e-13
4.45622e-13
5.03291e-13
5.65453e-13
6.32648e-13
7.05458e-13
7.84508e-13
8.70472e-13
9.64079e-13
1.06611e-12
1.17743e-12
1.29894e-12
1.43165e-12
1.57663e-12
1.73506e-12
1.90818e-12
2.09739e-12
2.30414e-12
2.53005e-12
2.77683e-12
3.04637e-12
3.34068e-12
3.66193e-12
4.01246e-12
4.39482e-12
4.8117e-12
5.26605e-12
5.76099e-12
6.29991e-12
6.88642e-12
7.52438e-12
8.21794e-12
8.97152e-12
9.78985e-12
1.06779e-11
1.16412e-11
1.26852e-11
1.38161e-11
1.50403e-11
1.63645e-11
1.77959e-11
1.9342e-11
2.10107e-11
2.28105e-11
2.47499e-11
2.68382e-11
2.90848e-11
3.14998e-11
3.40933e-11
3.6876e-11
3.9859e-11
4.30535e-11
4.64713e-11
5.01241e-11
5.4024e-11
5.81833e-11
6.26143e-11
6.73295e-11
7.23413e-11
7.76618e-11
8.33032e-11
8.92772e-11
9.55953e-11
1.02268e-10
1.09307e-10
1.1672e-10
1.24516e-10
1.32703e-10
1.41287e-10
1.50273e-10
1.59665e-10
1.69463e-10
1.7967e-10
1.9028e-10
2.01292e-10
2.12697e-10
2.24487e-10
2.36649e-10
2.49168e-10
2.62027e-10
2.75204e-10
2.88676e-10
3.02415e-10
3.16389e-10
3.30566e-10
3.44906e-10
3.5937e-10
3.73912e-10
3.88486e-10
4.03042e-10
4.17525e-10
4.3188e-10
4.4605e-10
4.59973e-10
4.73588e-10
4.86832e-10
4.99641e-10
5.11951e-10
5.23698e-10
5.34817e-10
5.45248e-10
5.54928e-10
5.63801e-10
5.71811e-10
5.78907e-10
5.85039e-10
5.90167e-10
5.94251e-10
5.97259e-10
5.99166e-10
5.9995e-10
5.99598e-10
5.98104e-10
5.95469e-10
5.91701e-10
5.86814e-10
5.8083e-10
5.7378e-10
5.65698e-10
5.56627e-10
5.46616e-10
5.35718e-10
5.23993e-10
5.11504e-10
4.9832e-10
4.8451e-10
4.70148e-10
4.55309e-10
4.40069e-10
4.24504e-10
4.08691e-10
3.92706e-10
3.7662e-10
3.60505e-10
3.4443e-10
3.28459e-10
3.12653e-10
2.97069e-10
2.81758e-10
2.66769e-10
2.52143e-10
2.37919e-10
2.24127e-10
2.10797e-10
1.97949e-10
1.85602e-10
1.73767e-10
1.62455e-10
1.51668e-10
1.41408e-10
1.31672e-10
1.22452e-10
1.13742e-10
1.05528e-10
9.77984e-11
9.05367e-11
8.37265e-11
7.735e-11
7.13882e-11
6.5822e-11
6.06315e-11
5.57972e-11
5.12991e-11
4.7118e-11
4.32349e-11
3.96312e-11
3.62892e-11
3.31919e-11
3.03229e-11
2.76668e-11
2.52092e-11
2.29364e-11
2.08356e-11
1.88949e-11
1.71034e-11
1.54509e-11
1.39279e-11
1.25258e-11
1.12365e-11
1.00528e-11
8.96784e-12
7.97533e-12
7.06948e-12
6.24488e-12
5.49645e-12
4.81942e-12
4.20927e-12
3.66169e-12
3.17255e-12
2.73785e-12
2.35372e-12
2.01639e-12
1.72221e-12
1.46757e-12
1.24899e-12
1.06305e-12
9.06446e-13
7.75968e-13
6.68525e-13
5.81156e-13
5.11044e-13
4.55532e-13
4.12137e-13
3.78562e-13
3.52715e-13
3.32717e-13
3.16911e-13
3.03874e-13
2.92412e-13
2.81564e-13
2.70596e-13
2.58986e-13
2.4641e-13
2.32723e-13
2.1793e-13
2.02158e-13
1.8563e-13
1.68633e-13
1.51485e-13
1.34516e-13
1.18038e-13
1.02329e-13
8.76226e-14
7.40955e-14
6.18663e-14
5.09965e-14
4.14946e-14
3.33238e-14
2.64105e-14
2.06544e-14
1.59373e-14
1.21322e-14
9.11051e-15
6.74811e-15
4.92964e-15
3.55141e-15
2.52286e-15
1.76704e-15
1.2201e-15
8.30311e-16
5.56649e-16
3.67225e-16
2.37702e-16
1.49771e-16
8.97629e-17
4.74146e-17
1.4774e-17
6.11863e-14
1.84103e-13
3.08669e-13
4.3602e-13
5.67315e-13
7.0375e-13
8.46562e-13
9.9704e-13
1.15654e-12
1.32649e-12
1.50839e-12
1.70388e-12
1.91466e-12
2.14258e-12
2.38962e-12
2.65792e-12
2.94979e-12
3.2677e-12
3.61434e-12
3.99263e-12
4.40571e-12
4.85699e-12
5.35015e-12
5.8892e-12
6.47847e-12
7.12263e-12
7.82675e-12
8.59633e-12
9.4373e-12
1.03561e-11
1.13595e-11
1.24552e-11
1.3651e-11
1.49558e-11
1.63788e-11
1.79301e-11
1.96205e-11
2.14616e-11
2.34658e-11
2.56464e-11
2.80176e-11
3.05947e-11
3.33939e-11
3.64326e-11
3.97291e-11
4.3303e-11
4.71752e-11
5.13676e-11
5.59036e-11
6.08077e-11
6.61059e-11
7.18256e-11
7.79954e-11
8.46453e-11
9.18067e-11
9.95124e-11
1.07797e-10
1.16695e-10
1.26243e-10
1.3648e-10
1.47443e-10
1.59174e-10
1.71712e-10
1.851e-10
1.99378e-10
2.1459e-10
2.30777e-10
2.47982e-10
2.66246e-10
2.85611e-10
3.06117e-10
3.27801e-10
3.507e-10
3.74849e-10
4.0028e-10
4.2702e-10
4.55094e-10
4.84522e-10
5.1532e-10
5.47497e-10
5.81058e-10
6.15999e-10
6.5231e-10
6.89975e-10
7.28966e-10
7.69249e-10
8.10779e-10
8.53501e-10
8.9735e-10
9.42251e-10
9.88116e-10
1.03485e-09
1.08234e-09
1.13046e-09
1.17908e-09
1.22806e-09
1.27725e-09
1.32646e-09
1.37554e-09
1.4243e-09
1.47253e-09
1.52004e-09
1.56662e-09
1.61205e-09
1.65613e-09
1.69863e-09
1.73933e-09
1.77801e-09
1.81447e-09
1.84848e-09
1.87985e-09
1.90838e-09
1.93389e-09
1.95622e-09
1.9752e-09
1.9907e-09
2.00259e-09
2.01079e-09
2.0152e-09
2.01578e-09
2.01249e-09
2.00533e-09
1.9943e-09
1.97944e-09
1.96084e-09
1.93856e-09
1.91273e-09
1.88347e-09
1.85096e-09
1.81535e-09
1.77686e-09
1.73568e-09
1.69204e-09
1.64618e-09
1.59836e-09
1.54881e-09
1.4978e-09
1.44558e-09
1.39243e-09
1.3386e-09
1.28433e-09
1.22988e-09
1.17548e-09
1.12136e-09
1.06772e-09
1.01477e-09
9.62695e-10
9.11656e-10
8.61806e-10
8.1328e-10
7.66192e-10
7.20641e-10
6.76711e-10
6.34465e-10
5.93952e-10
5.55208e-10
5.1825e-10
4.83085e-10
4.49706e-10
4.18097e-10
3.88228e-10
3.60065e-10
3.33562e-10
3.08669e-10
2.8533e-10
2.63485e-10
2.4307e-10
2.2402e-10
2.06268e-10
1.89745e-10
1.74384e-10
1.60117e-10
1.4688e-10
1.34608e-10
1.23239e-10
1.12714e-10
1.02976e-10
9.39709e-11
8.56477e-11
7.79586e-11
7.08587e-11
6.43061e-11
5.82621e-11
5.26906e-11
4.75584e-11
4.28349e-11
3.84919e-11
3.45036e-11
3.08462e-11
2.74977e-11
2.44379e-11
2.16482e-11
1.91113e-11
1.68109e-11
1.47319e-11
1.28598e-11
1.1181e-11
9.68255e-12
8.35179e-12
7.17663e-12
6.1453e-12
5.24636e-12
4.46869e-12
3.80145e-12
3.23411e-12
2.75646e-12
2.35863e-12
2.03113e-12
1.76488e-12
1.55126e-12
1.38214e-12
1.24994e-12
1.14766e-12
1.06892e-12
1.00799e-12
9.59843e-13
9.20136e-13
8.85249e-13
8.52261e-13
8.18938e-13
7.83699e-13
7.4556e-13
7.04075e-13
6.59256e-13
6.11492e-13
5.61454e-13
5.10005e-13
4.58113e-13
4.06768e-13
3.56914e-13
3.09396e-13
2.64915e-13
2.24005e-13
1.87024e-13
1.54156e-13
1.25426e-13
1.00723e-13
7.98238e-14
6.24235e-14
4.81651e-14
3.66639e-14
2.75312e-14
2.03915e-14
1.48959e-14
1.07309e-14
7.62283e-15
5.33894e-15
3.68631e-15
2.50857e-15
1.68173e-15
1.10942e-15
7.18106e-16
4.52454e-16
2.71168e-16
1.43236e-16
4.46316e-17
1.27113e-13
3.82483e-13
6.41316e-13
9.05993e-13
1.17895e-12
1.46269e-12
1.75982e-12
2.07303e-12
2.40519e-12
2.75929e-12
3.13852e-12
3.54626e-12
3.98616e-12
4.46211e-12
4.97827e-12
5.53917e-12
6.14967e-12
6.81502e-12
7.5409e-12
8.33348e-12
9.19942e-12
1.01459e-11
1.11809e-11
1.23127e-11
1.35506e-11
1.49045e-11
1.63852e-11
1.80044e-11
1.97747e-11
2.17097e-11
2.38242e-11
2.6134e-11
2.86564e-11
3.14099e-11
3.44143e-11
3.76911e-11
4.12635e-11
4.51561e-11
4.93955e-11
5.40102e-11
5.90305e-11
6.44892e-11
7.0421e-11
7.68628e-11
8.38542e-11
9.14372e-11
9.96562e-11
1.08558e-10
1.18194e-10
1.28615e-10
1.39878e-10
1.52041e-10
1.65165e-10
1.79315e-10
1.94558e-10
2.10965e-10
2.28607e-10
2.47561e-10
2.67906e-10
2.89721e-10
3.1309e-10
3.38098e-10
3.64832e-10
3.93378e-10
4.23828e-10
4.56269e-10
4.90792e-10
5.27485e-10
5.66437e-10
6.07733e-10
6.51455e-10
6.97685e-10
7.46498e-10
7.97962e-10
8.52143e-10
9.09096e-10
9.68868e-10
1.0315e-09
1.09701e-09
1.16543e-09
1.23674e-09
1.31094e-09
1.38799e-09
1.46786e-09
1.55047e-09
1.63573e-09
1.72355e-09
1.81378e-09
1.90629e-09
2.0009e-09
2.0974e-09
2.19557e-09
2.29517e-09
2.39592e-09
2.49753e-09
2.59967e-09
2.702e-09
2.80414e-09
2.90573e-09
3.00634e-09
3.10556e-09
3.20294e-09
3.29805e-09
3.39041e-09
3.47958e-09
3.56509e-09
3.64646e-09
3.72325e-09
3.79501e-09
3.86131e-09
3.92172e-09
3.97587e-09
4.02339e-09
4.06393e-09
4.09722e-09
4.12297e-09
4.14099e-09
4.15109e-09
4.15314e-09
4.14708e-09
4.13288e-09
4.11057e-09
4.08022e-09
4.04198e-09
3.99601e-09
3.94257e-09
3.88193e-09
3.81443e-09
3.74042e-09
3.66034e-09
3.57461e-09
3.48371e-09
3.38816e-09
3.28846e-09
3.18516e-09
3.07881e-09
2.96995e-09
2.85914e-09
2.74691e-09
2.63382e-09
2.52037e-09
2.40707e-09
2.29438e-09
2.18277e-09
2.07264e-09
1.96439e-09
1.85836e-09
1.75488e-09
1.65422e-09
1.55662e-09
1.4623e-09
1.37141e-09
1.2841e-09
1.20046e-09
1.12056e-09
1.04443e-09
9.72094e-10
9.03523e-10
8.38678e-10
7.77497e-10
7.19899e-10
6.65786e-10
6.15049e-10
5.67566e-10
5.23206e-10
4.81834e-10
4.43306e-10
4.0748e-10
3.7421e-10
3.4335e-10
3.14759e-10
2.88294e-10
2.63821e-10
2.41207e-10
2.20326e-10
2.01056e-10
1.83283e-10
1.669e-10
1.51803e-10
1.37899e-10
1.25097e-10
1.13317e-10
1.02481e-10
9.252e-11
8.33685e-11
7.49673e-11
6.72622e-11
6.02032e-11
5.37447e-11
4.78449e-11
4.24653e-11
3.75704e-11
3.31276e-11
2.91064e-11
2.54785e-11
2.22171e-11
1.92971e-11
1.66945e-11
1.43863e-11
1.23507e-11
1.05663e-11
9.01274e-12
7.67013e-12
6.51927e-12
5.54155e-12
4.71903e-12
4.03441e-12
3.47115e-12
3.01345e-12
2.64635e-12
2.3558e-12
2.1287e-12
1.95299e-12
1.81771e-12
1.71303e-12
1.63032e-12
1.56215e-12
1.50232e-12
1.44584e-12
1.3889e-12
1.3288e-12
1.26384e-12
1.19328e-12
1.11711e-12
1.036e-12
9.5107e-13
8.63788e-13
7.75788e-13
6.88745e-13
6.04254e-13
5.23742e-13
4.48391e-13
3.79104e-13
3.16482e-13
2.60836e-13
2.12203e-13
1.70393e-13
1.35025e-13
1.05582e-13
8.14586e-14
6.20023e-14
4.65543e-14
3.44787e-14
2.51848e-14
1.81418e-14
1.28864e-14
9.02492e-15
6.23096e-15
4.24e-15
2.84233e-15
1.87497e-15
1.21358e-15
7.64608e-16
4.58237e-16
2.42045e-16
7.542e-17
2.38568e-13
7.17876e-13
1.20377e-12
1.70077e-12
2.2135e-12
2.74674e-12
3.30541e-12
3.89468e-12
4.51997e-12
5.18699e-12
5.90184e-12
6.67098e-12
7.50135e-12
8.40038e-12
9.37609e-12
1.04371e-11
1.15927e-11
1.28531e-11
1.42291e-11
1.57325e-11
1.73761e-11
1.9174e-11
2.1141e-11
2.32937e-11
2.56496e-11
2.82279e-11
3.10496e-11
3.41371e-11
3.75149e-11
4.12092e-11
4.52487e-11
4.96642e-11
5.44889e-11
5.97588e-11
6.55125e-11
7.17917e-11
7.86412e-11
8.6109e-11
9.42469e-11
1.0311e-10
1.12758e-10
1.23254e-10
1.34666e-10
1.47066e-10
1.60531e-10
1.75143e-10
1.90988e-10
2.08159e-10
2.26754e-10
2.46874e-10
2.68629e-10
2.92132e-10
3.17504e-10
3.4487e-10
3.74362e-10
4.06115e-10
4.40273e-10
4.76982e-10
5.16396e-10
5.58671e-10
6.03969e-10
6.52454e-10
7.04295e-10
7.59662e-10
8.18727e-10
8.81663e-10
9.48641e-10
1.01983e-09
1.09541e-09
1.17552e-09
1.26034e-09
1.35001e-09
1.44468e-09
1.54446e-09
1.64948e-09
1.75984e-09
1.87562e-09
1.99688e-09
2.12367e-09
2.25598e-09
2.39382e-09
2.53713e-09
2.68584e-09
2.83984e-09
2.99897e-09
3.16305e-09
3.33184e-09
3.50506e-09
3.6824e-09
3.86349e-09
4.04791e-09
4.23519e-09
4.42482e-09
4.61625e-09
4.80886e-09
5.00199e-09
5.19496e-09
5.38702e-09
5.57739e-09
5.76527e-09
5.94982e-09
6.13017e-09
6.30544e-09
6.47473e-09
6.63716e-09
6.79182e-09
6.93784e-09
7.07433e-09
7.20046e-09
7.31543e-09
7.41848e-09
7.50888e-09
7.58601e-09
7.64926e-09
7.69814e-09
7.73221e-09
7.75115e-09
7.75471e-09
7.74273e-09
7.71518e-09
7.6721e-09
7.61366e-09
7.54011e-09
7.45182e-09
7.34924e-09
7.23294e-09
7.10355e-09
6.96179e-09
6.80849e-09
6.64449e-09
6.47073e-09
6.2882e-09
6.09789e-09
5.90087e-09
5.69819e-09
5.49092e-09
5.28013e-09
5.06688e-09
4.85219e-09
4.63706e-09
4.42246e-09
4.2093e-09
3.99843e-09
3.79065e-09
3.58669e-09
3.38723e-09
3.19284e-09
3.00406e-09
2.82133e-09
2.64503e-09
2.47547e-09
2.31288e-09
2.15744e-09
2.00924e-09
1.86836e-09
1.73477e-09
1.60842e-09
1.48923e-09
1.37704e-09
1.27169e-09
1.17298e-09
1.08067e-09
9.94527e-10
9.14285e-10
8.39669e-10
7.704e-10
7.06193e-10
6.46761e-10
5.91821e-10
5.41094e-10
4.94307e-10
4.51197e-10
4.11507e-10
3.74994e-10
3.41427e-10
3.10585e-10
2.82262e-10
2.56262e-10
2.32405e-10
2.10522e-10
1.90456e-10
1.72064e-10
1.55212e-10
1.39779e-10
1.25652e-10
1.1273e-10
1.0092e-10
9.01364e-11
8.03021e-11
7.13465e-11
6.3205e-11
5.58183e-11
4.91322e-11
4.30964e-11
3.76644e-11
3.27927e-11
2.84406e-11
2.45697e-11
2.11435e-11
1.81275e-11
1.54883e-11
1.31942e-11
1.12146e-11
9.51999e-12
8.08212e-12
6.87383e-12
5.86912e-12
5.04319e-12
4.3725e-12
3.83486e-12
3.40947e-12
3.07705e-12
2.81985e-12
2.62181e-12
2.46856e-12
2.34749e-12
2.24779e-12
2.16044e-12
2.07818e-12
1.99548e-12
1.9084e-12
1.81451e-12
1.71268e-12
1.60293e-12
1.48616e-12
1.36401e-12
1.23856e-12
1.11215e-12
9.87166e-13
8.65903e-13
7.5039e-13
6.42319e-13
5.42974e-13
4.5321e-13
3.73464e-13
3.03787e-13
2.43897e-13
1.93245e-13
1.51087e-13
1.16552e-13
8.87028e-14
6.65946e-14
4.93153e-14
3.60183e-14
2.59431e-14
1.8426e-14
1.29034e-14
8.908e-15
6.06117e-15
4.06287e-15
2.67993e-15
1.73449e-15
1.09274e-15
6.54862e-16
3.45894e-16
1.07777e-16
4.31126e-13
1.29736e-12
2.17567e-12
3.07432e-12
4.00181e-12
4.96685e-12
5.97852e-12
7.04628e-12
8.18008e-12
9.39044e-12
1.06885e-11
1.20863e-11
1.35965e-11
1.52329e-11
1.70102e-11
1.89444e-11
2.10528e-11
2.33539e-11
2.58681e-11
2.86171e-11
3.16249e-11
3.49172e-11
3.85221e-11
4.24698e-11
4.67935e-11
5.15288e-11
5.67146e-11
6.2393e-11
6.86094e-11
7.54133e-11
8.28579e-11
9.10009e-11
9.99047e-11
1.09637e-10
1.20269e-10
1.3188e-10
1.44554e-10
1.58381e-10
1.73458e-10
1.89889e-10
2.07787e-10
2.27269e-10
2.48465e-10
2.71509e-10
2.96547e-10
3.23734e-10
3.53232e-10
3.85216e-10
4.1987e-10
4.57387e-10
4.97973e-10
5.41843e-10
5.89223e-10
6.40351e-10
6.95474e-10
7.5485e-10
8.18748e-10
8.87446e-10
9.61231e-10
1.0404e-09
1.12525e-09
1.21611e-09
1.31327e-09
1.41707e-09
1.52782e-09
1.64584e-09
1.77147e-09
1.90501e-09
2.04677e-09
2.19706e-09
2.35617e-09
2.52437e-09
2.70191e-09
2.88902e-09
3.08591e-09
3.29275e-09
3.50967e-09
3.73677e-09
3.97411e-09
4.22167e-09
4.47941e-09
4.7472e-09
5.02487e-09
5.31218e-09
5.60878e-09
5.91429e-09
6.22822e-09
6.55e-09
6.87897e-09
7.21439e-09
7.55542e-09
7.90113e-09
8.25049e-09
8.60241e-09
8.95567e-09
9.30899e-09
9.66102e-09
1.00103e-08
1.03554e-08
1.06946e-08
1.10264e-08
1.13492e-08
1.16613e-08
1.19609e-08
1.22464e-08
1.25161e-08
1.27685e-08
1.30018e-08
1.32147e-08
1.34055e-08
1.35731e-08
1.37161e-08
1.38334e-08
1.39241e-08
1.39874e-08
1.40225e-08
1.40291e-08
1.40069e-08
1.39556e-08
1.38756e-08
1.37669e-08
1.36302e-08
1.34661e-08
1.32755e-08
1.30594e-08
1.28191e-08
1.25559e-08
1.22713e-08
1.1967e-08
1.16447e-08
1.13064e-08
1.09539e-08
1.05892e-08
1.02143e-08
9.83126e-09
9.44205e-09
9.04867e-09
8.65307e-09
8.2571e-09
7.86258e-09
7.47119e-09
7.08454e-09
6.7041e-09
6.33123e-09
5.96714e-09
5.61293e-09
5.26954e-09
4.93777e-09
4.61829e-09
4.31165e-09
4.01824e-09
3.73834e-09
3.47212e-09
3.21962e-09
2.98081e-09
2.75553e-09
2.54358e-09
2.34465e-09
2.15838e-09
1.98438e-09
1.82219e-09
1.67131e-09
1.53124e-09
1.40144e-09
1.28138e-09
1.1705e-09
1.06826e-09
9.74113e-10
8.8754e-10
8.08021e-10
7.35059e-10
6.68178e-10
6.06923e-10
5.50861e-10
4.99584e-10
4.52709e-10
4.09879e-10
3.70759e-10
3.35041e-10
3.02437e-10
2.72686e-10
2.45544e-10
2.20791e-10
1.98224e-10
1.77661e-10
1.58932e-10
1.41888e-10
1.26388e-10
1.12309e-10
9.95376e-11
8.79695e-11
7.75113e-11
6.8077e-11
5.95879e-11
5.19717e-11
4.51611e-11
3.90939e-11
3.37118e-11
2.89599e-11
2.47866e-11
2.11428e-11
1.79818e-11
1.52593e-11
1.29328e-11
1.09618e-11
9.30797e-12
7.93446e-12
6.80657e-12
5.89149e-12
5.15843e-12
4.5787e-12
4.12577e-12
3.77535e-12
3.50551e-12
3.29668e-12
3.13175e-12
2.99608e-12
2.87746e-12
2.7661e-12
2.65454e-12
2.53746e-12
2.41158e-12
2.27536e-12
2.12878e-12
1.97307e-12
1.81034e-12
1.64337e-12
1.47523e-12
1.30911e-12
1.14801e-12
9.94631e-13
8.51189e-13
7.1938e-13
6.00327e-13
4.94594e-13
4.02239e-13
3.22879e-13
2.55778e-13
1.99944e-13
1.54215e-13
1.17348e-13
8.80872e-14
6.52218e-14
4.76293e-14
3.43017e-14
2.43597e-14
1.70567e-14
1.17739e-14
8.01038e-15
5.36892e-15
3.54111e-15
2.29166e-15
1.44367e-15
8.65115e-16
4.56929e-16
1.42372e-16
7.61973e-13
2.29307e-12
3.84581e-12
5.43503e-12
7.07595e-12
8.78422e-12
1.05761e-11
1.24687e-11
1.44797e-11
1.66282e-11
1.89343e-11
2.14194e-11
2.41067e-11
2.70209e-11
3.01886e-11
3.36389e-11
3.74028e-11
4.15141e-11
4.60097e-11
5.09292e-11
5.63158e-11
6.22166e-11
6.86825e-11
7.57688e-11
8.35358e-11
9.20486e-11
1.01378e-10
1.11601e-10
1.22801e-10
1.35069e-10
1.48501e-10
1.63204e-10
1.79292e-10
1.96888e-10
2.16126e-10
2.3715e-10
2.60113e-10
2.85183e-10
3.12538e-10
3.4237e-10
3.74885e-10
4.10303e-10
4.4886e-10
4.90806e-10
5.36411e-10
5.85958e-10
6.39751e-10
6.98112e-10
7.61381e-10
8.29916e-10
9.04099e-10
9.84327e-10
1.07102e-09
1.16462e-09
1.26558e-09
1.37438e-09
1.49152e-09
1.61751e-09
1.75289e-09
1.8982e-09
2.05401e-09
2.22088e-09
2.39941e-09
2.59017e-09
2.79376e-09
3.01078e-09
3.24181e-09
3.48744e-09
3.74823e-09
4.02472e-09
4.31744e-09
4.62689e-09
4.9535e-09
5.2977e-09
5.65983e-09
6.04018e-09
6.43897e-09
6.85636e-09
7.29238e-09
7.747e-09
8.22006e-09
8.71129e-09
9.22031e-09
9.7466e-09
1.02895e-08
1.08481e-08
1.14216e-08
1.20087e-08
1.26082e-08
1.32187e-08
1.38383e-08
1.44655e-08
1.50981e-08
1.5734e-08
1.6371e-08
1.70065e-08
1.7638e-08
1.82627e-08
1.88777e-08
1.94802e-08
2.00671e-08
2.06353e-08
2.11817e-08
2.17032e-08
2.21967e-08
2.26592e-08
2.30876e-08
2.34791e-08
2.38311e-08
2.41409e-08
2.44063e-08
2.46251e-08
2.47955e-08
2.49158e-08
2.49849e-08
2.50019e-08
2.4966e-08
2.48772e-08
2.47354e-08
2.45413e-08
2.42957e-08
2.39998e-08
2.36553e-08
2.32639e-08
2.2828e-08
2.23502e-08
2.18331e-08
2.128e-08
2.0694e-08
2.00786e-08
1.94375e-08
1.87741e-08
1.80924e-08
1.7396e-08
1.66888e-08
1.59743e-08
1.52563e-08
1.45381e-08
1.38231e-08
1.31144e-08
1.24151e-08
1.17278e-08
1.10549e-08
1.03988e-08
9.76136e-09
9.14435e-09
8.5492e-09
7.97711e-09
7.429e-09
6.90557e-09
6.40728e-09
5.93437e-09
5.48686e-09
5.06462e-09
4.66733e-09
4.29451e-09
3.94557e-09
3.61979e-09
3.31637e-09
3.03442e-09
2.77301e-09
2.53115e-09
2.30782e-09
2.10199e-09
1.91263e-09
1.73871e-09
1.57922e-09
1.43317e-09
1.2996e-09
1.17759e-09
1.06626e-09
9.64776e-10
8.72339e-10
7.88206e-10
7.11679e-10
6.42107e-10
5.78884e-10
5.21453e-10
4.69298e-10
4.21947e-10
3.78966e-10
3.3996e-10
3.04571e-10
2.72471e-10
2.43366e-10
2.16987e-10
1.93093e-10
1.71467e-10
1.51911e-10
1.34247e-10
1.18316e-10
1.03971e-10
9.10812e-11
7.95261e-11
6.9196e-11
5.99902e-11
5.18157e-11
4.45865e-11
3.82223e-11
3.26482e-11
2.77938e-11
2.35928e-11
1.99825e-11
1.69036e-11
1.43002e-11
1.21193e-11
1.03107e-11
8.82749e-12
7.6254e-12
6.66321e-12
5.9027e-12
5.30872e-12
4.84922e-12
4.49534e-12
4.22148e-12
4.00527e-12
3.82763e-12
3.67271e-12
3.5278e-12
3.38321e-12
3.23209e-12
3.07013e-12
2.89535e-12
2.70767e-12
2.50862e-12
2.30087e-12
2.08792e-12
1.87369e-12
1.66217e-12
1.45719e-12
1.26213e-12
1.07981e-12
9.12358e-13
7.61172e-13
6.26956e-13
5.09764e-13
4.09096e-13
3.24006e-13
2.53225e-13
1.95271e-13
1.48561e-13
1.11496e-13
8.25399e-14
6.02661e-14
4.33955e-14
3.08131e-14
2.15723e-14
1.4889e-14
1.01284e-14
6.78774e-15
4.47642e-15
2.89667e-15
1.82464e-15
1.09334e-15
5.77439e-16
1.79917e-16
1.32266e-12
3.98059e-12
6.67665e-12
9.43699e-12
1.22884e-11
1.52585e-11
1.8376e-11
2.16709e-11
2.51748e-11
2.89211e-11
3.29455e-11
3.72861e-11
4.19837e-11
4.70822e-11
5.26292e-11
5.86759e-11
6.52779e-11
7.24953e-11
8.03936e-11
8.90438e-11
9.85231e-11
1.08915e-10
1.20312e-10
1.32812e-10
1.46523e-10
1.61562e-10
1.78057e-10
1.96145e-10
2.15977e-10
2.37715e-10
2.61534e-10
2.87626e-10
3.16197e-10
3.47469e-10
3.81684e-10
4.19101e-10
4.59999e-10
5.0468e-10
5.53468e-10
6.06711e-10
6.64782e-10
7.2808e-10
7.97034e-10
8.721e-10
9.53764e-10
1.04255e-09
1.139e-09
1.2437e-09
1.35729e-09
1.4804e-09
1.61373e-09
1.75801e-09
1.914e-09
2.08251e-09
2.26437e-09
2.46045e-09
2.67167e-09
2.89896e-09
3.14329e-09
3.40566e-09
3.68709e-09
3.98863e-09
4.31134e-09
4.65629e-09
5.02456e-09
5.41722e-09
5.83534e-09
6.27996e-09
6.75212e-09
7.25279e-09
7.78291e-09
8.34335e-09
8.93492e-09
9.55831e-09
1.02142e-08
1.09029e-08
1.1625e-08
1.23805e-08
1.31696e-08
1.39921e-08
1.48475e-08
1.57355e-08
1.66551e-08
1.76053e-08
1.85848e-08
1.95919e-08
2.06249e-08
2.16814e-08
2.2759e-08
2.38549e-08
2.49659e-08
2.60886e-08
2.72192e-08
2.83537e-08
2.94877e-08
3.06166e-08
3.17355e-08
3.28392e-08
3.39226e-08
3.49802e-08
3.60063e-08
3.69953e-08
3.79415e-08
3.88392e-08
3.96829e-08
4.04669e-08
4.11862e-08
4.18355e-08
4.24101e-08
4.29056e-08
4.3318e-08
4.36438e-08
4.388e-08
4.4024e-08
4.4074e-08
4.40287e-08
4.38876e-08
4.36507e-08
4.33187e-08
4.28932e-08
4.23761e-08
4.17704e-08
4.10794e-08
4.03071e-08
3.94581e-08
3.85375e-08
3.75508e-08
3.65041e-08
3.54035e-08
3.42557e-08
3.30673e-08
3.18453e-08
3.05966e-08
2.9328e-08
2.80464e-08
2.67584e-08
2.54703e-08
2.41883e-08
2.29182e-08
2.16655e-08
2.0435e-08
1.92314e-08
1.80588e-08
1.69207e-08
1.58203e-08
1.47602e-08
1.37426e-08
1.2769e-08
1.18407e-08
1.09586e-08
1.01229e-08
9.33362e-09
8.59049e-09
7.89281e-09
7.23965e-09
6.62984e-09
6.06201e-09
5.5346e-09
5.04595e-09
4.59427e-09
4.1777e-09
3.79433e-09
3.44224e-09
3.1195e-09
2.82419e-09
2.55446e-09
2.30846e-09
2.08444e-09
1.88071e-09
1.69566e-09
1.52776e-09
1.37556e-09
1.23773e-09
1.11298e-09
1.00016e-09
8.98175e-10
8.06023e-10
7.22786e-10
6.47621e-10
5.79761e-10
5.18507e-10
4.63225e-10
4.13341e-10
3.68338e-10
3.27747e-10
2.91151e-10
2.58171e-10
2.28468e-10
2.01739e-10
1.77711e-10
1.56137e-10
1.36798e-10
1.19494e-10
1.04045e-10
9.02886e-11
7.8075e-11
6.72683e-11
5.77437e-11
4.93858e-11
4.20878e-11
3.57501e-11
3.02802e-11
2.5591e-11
2.16013e-11
1.82349e-11
1.542e-11
1.30897e-11
1.11814e-11
9.63661e-12
8.40132e-12
7.42562e-12
6.66385e-12
6.07463e-12
5.62085e-12
5.26966e-12
4.99254e-12
4.76519e-12
4.56746e-12
4.38326e-12
4.20032e-12
4.00995e-12
3.80671e-12
3.58804e-12
3.3538e-12
3.10582e-12
2.8474e-12
2.58283e-12
2.31692e-12
2.05462e-12
1.80061e-12
1.55906e-12
1.33342e-12
1.12629e-12
9.39374e-13
7.73514e-13
6.28754e-13
5.04454e-13
3.99429e-13
3.12095e-13
2.40612e-13
1.83015e-13
1.37325e-13
1.0164e-13
7.41974e-14
5.34172e-14
3.79224e-14
2.65451e-14
1.83183e-14
1.24595e-14
8.34877e-15
5.50521e-15
3.56199e-15
2.2435e-15
1.34421e-15
7.09895e-16
2.21181e-16
2.25775e-12
6.79509e-12
1.13985e-11
1.61134e-11
2.09861e-11
2.60645e-11
3.13985e-11
3.704e-11
4.30441e-11
4.9469e-11
5.63767e-11
6.38334e-11
7.19106e-11
8.06848e-11
9.02392e-11
1.00663e-10
1.12054e-10
1.24518e-10
1.38169e-10
1.53132e-10
1.69543e-10
1.87549e-10
2.07311e-10
2.29003e-10
2.52816e-10
2.78957e-10
3.0765e-10
3.39139e-10
3.7369e-10
4.1159e-10
4.53152e-10
4.98713e-10
5.48639e-10
6.03328e-10
6.63205e-10
7.28735e-10
8.00414e-10
8.7878e-10
9.64411e-10
1.05793e-09
1.15999e-09
1.27133e-09
1.39269e-09
1.5249e-09
1.66884e-09
1.82542e-09
1.99564e-09
2.18054e-09
2.38125e-09
2.59893e-09
2.83483e-09
3.09026e-09
3.36659e-09
3.66525e-09
3.98777e-09
4.3357e-09
4.71068e-09
5.1144e-09
5.5486e-09
6.01509e-09
6.5157e-09
7.05231e-09
7.62683e-09
8.24118e-09
8.8973e-09
9.59712e-09
1.03425e-08
1.11355e-08
1.19777e-08
1.2871e-08
1.38169e-08
1.48172e-08
1.58731e-08
1.69859e-08
1.81567e-08
1.93862e-08
2.06751e-08
2.20237e-08
2.34318e-08
2.48992e-08
2.64251e-08
2.80084e-08
2.96474e-08
3.13402e-08
3.30841e-08
3.48762e-08
3.67128e-08
3.85899e-08
4.05026e-08
4.24457e-08
4.44133e-08
4.63991e-08
4.83959e-08
5.03964e-08
5.23923e-08
5.43753e-08
5.63363e-08
5.82659e-08
6.01544e-08
6.1992e-08
6.37684e-08
6.54734e-08
6.70967e-08
6.86281e-08
7.00577e-08
7.13756e-08
7.25725e-08
7.36396e-08
7.45686e-08
7.53519e-08
7.59828e-08
7.64554e-08
7.67649e-08
7.69074e-08
7.68802e-08
7.66817e-08
7.63118e-08
7.57712e-08
7.50623e-08
7.41884e-08
7.31541e-08
7.19654e-08
7.06291e-08
6.91534e-08
6.75471e-08
6.58202e-08
6.39832e-08
6.20475e-08
6.00248e-08
5.79274e-08
5.57676e-08
5.3558e-08
5.13112e-08
4.90394e-08
4.67549e-08
4.44694e-08
4.21939e-08
3.99393e-08
3.77153e-08
3.55311e-08
3.33952e-08
3.1315e-08
2.92971e-08
2.73472e-08
2.54701e-08
2.36698e-08
2.19492e-08
2.03106e-08
1.87553e-08
1.72841e-08
1.58967e-08
1.45926e-08
1.33705e-08
1.22286e-08
1.11648e-08
1.01764e-08
9.26053e-09
8.41414e-09
7.63389e-09
6.91634e-09
6.25797e-09
5.65523e-09
5.10457e-09
4.60248e-09
4.14554e-09
3.73041e-09
3.35387e-09
3.01286e-09
2.70445e-09
2.42588e-09
2.17453e-09
1.94799e-09
1.74398e-09
1.5604e-09
1.39531e-09
1.24693e-09
1.11362e-09
9.93902e-10
8.86411e-10
7.89919e-10
7.03314e-10
6.25593e-10
5.55852e-10
4.93282e-10
4.37156e-10
3.86824e-10
3.41705e-10
3.0128e-10
2.65085e-10
2.32708e-10
2.03777e-10
1.77964e-10
1.5497e-10
1.34531e-10
1.16406e-10
1.00378e-10
8.62503e-11
7.3844e-11
6.29951e-11
5.35528e-11
4.53783e-11
3.83433e-11
3.23288e-11
2.72243e-11
2.29269e-11
1.93411e-11
1.63781e-11
1.39555e-11
1.19971e-11
1.04326e-11
9.1979e-12
8.23435e-12
7.48921e-12
6.91535e-12
6.47128e-12
6.12106e-12
5.83419e-12
5.58546e-12
5.35475e-12
5.12676e-12
4.89066e-12
4.63965e-12
4.37047e-12
4.08289e-12
3.77906e-12
3.46296e-12
3.13978e-12
2.81533e-12
2.49559e-12
2.18621e-12
1.89222e-12
1.61778e-12
1.366e-12
1.13893e-12
9.37531e-13
7.6184e-13
6.11049e-13
4.83694e-13
3.77832e-13
2.91216e-13
2.21449e-13
1.66124e-13
1.22927e-13
8.97178e-14
6.45774e-14
4.58364e-14
3.20789e-14
2.21332e-14
1.50517e-14
1.00842e-14
6.64865e-15
4.30127e-15
2.70883e-15
1.62287e-15
8.56999e-16
2.67004e-16
3.79155e-12
1.14119e-11
1.9145e-11
2.70682e-11
3.52606e-11
4.38039e-11
5.27832e-11
6.22875e-11
7.24107e-11
8.32526e-11
9.49194e-11
1.07525e-10
1.21191e-10
1.3605e-10
1.52245e-10
1.6993e-10
1.89273e-10
2.10455e-10
2.33675e-10
2.59149e-10
2.8711e-10
3.17816e-10
3.51543e-10
3.88596e-10
4.29304e-10
4.74027e-10
5.23155e-10
5.77114e-10
6.36365e-10
7.01411e-10
7.72797e-10
8.51111e-10
9.36996e-10
1.03114e-09
1.1343e-09
1.24728e-09
1.37096e-09
1.50627e-09
1.65424e-09
1.81595e-09
1.99257e-09
2.18537e-09
2.39569e-09
2.62497e-09
2.87475e-09
3.14666e-09
3.44246e-09
3.76401e-09
4.11326e-09
4.49229e-09
4.90332e-09
5.34864e-09
5.83071e-09
6.35206e-09
6.91538e-09
7.52345e-09
8.17917e-09
8.88553e-09
9.64563e-09
1.04627e-08
1.13399e-08
1.22807e-08
1.32884e-08
1.43665e-08
1.55183e-08
1.67474e-08
1.8057e-08
1.94505e-08
2.09312e-08
2.25021e-08
2.41661e-08
2.5926e-08
2.77841e-08
2.97427e-08
3.18036e-08
3.3968e-08
3.62371e-08
3.86111e-08
4.10899e-08
4.36727e-08
4.63581e-08
4.91438e-08
5.20269e-08
5.50035e-08
5.80688e-08
6.12172e-08
6.4442e-08
6.77356e-08
7.10892e-08
7.44932e-08
7.79369e-08
8.14084e-08
8.4895e-08
8.83831e-08
9.18578e-08
9.53039e-08
9.87049e-08
1.02044e-07
1.05304e-07
1.08466e-07
1.11514e-07
1.14427e-07
1.17188e-07
1.19779e-07
1.22183e-07
1.24381e-07
1.26359e-07
1.281e-07
1.2959e-07
1.30817e-07
1.31768e-07
1.32436e-07
1.32811e-07
1.32888e-07
1.32663e-07
1.32135e-07
1.31304e-07
1.30174e-07
1.28749e-07
1.27037e-07
1.25047e-07
1.22791e-07
1.20284e-07
1.17539e-07
1.14574e-07
1.11409e-07
1.08062e-07
1.04555e-07
1.00908e-07
9.71457e-08
9.32889e-08
8.93604e-08
8.53827e-08
8.13775e-08
7.73661e-08
7.3369e-08
6.94053e-08
6.54933e-08
6.16497e-08
5.78898e-08
5.42274e-08
5.06747e-08
4.72422e-08
4.39387e-08
4.07716e-08
3.77463e-08
3.48671e-08
3.21366e-08
2.95559e-08
2.71251e-08
2.4843e-08
2.27072e-08
2.07147e-08
1.88615e-08
1.71427e-08
1.55533e-08
1.40876e-08
1.27395e-08
1.15027e-08
1.03709e-08
9.33758e-09
8.39633e-09
7.54078e-09
6.76472e-09
6.0621e-09
5.42714e-09
4.85427e-09
4.33823e-09
3.87406e-09
3.45707e-09
3.08293e-09
2.74757e-09
2.44725e-09
2.17853e-09
1.93825e-09
1.7235e-09
1.53168e-09
1.36039e-09
1.20747e-09
1.07098e-09
9.49167e-10
8.40471e-10
7.43485e-10
6.56956e-10
5.79766e-10
5.10921e-10
4.49538e-10
3.9483e-10
3.461e-10
3.02729e-10
2.64166e-10
2.29922e-10
1.9956e-10
1.72692e-10
1.48968e-10
1.28077e-10
1.09735e-10
9.36898e-11
7.97091e-11
6.75828e-11
5.71187e-11
4.81407e-11
4.04869e-11
3.40082e-11
2.85672e-11
2.40372e-11
2.03013e-11
1.7252e-11
1.47906e-11
1.28266e-11
1.12779e-11
1.00699e-11
9.13605e-12
8.41692e-12
7.86052e-12
7.422e-12
7.06341e-12
6.7535e-12
6.46735e-12
6.18607e-12
5.89627e-12
5.58951e-12
5.26174e-12
4.91254e-12
4.54444e-12
4.16215e-12
3.77186e-12
3.38052e-12
2.99525e-12
2.62281e-12
2.26918e-12
1.93931e-12
1.63687e-12
1.36427e-12
1.12263e-12
9.11945e-13
7.31205e-13
5.78626e-13
4.51852e-13
3.48167e-13
2.64684e-13
1.98506e-13
1.46852e-13
1.07153e-13
7.71097e-14
5.47199e-14
3.82883e-14
2.64124e-14
1.79586e-14
1.20298e-14
7.93014e-15
5.1296e-15
3.2301e-15
1.93496e-15
1.02174e-15
3.18317e-16
6.26582e-12
1.886e-11
3.16436e-11
4.47462e-11
5.83008e-11
7.24447e-11
8.73209e-11
1.03079e-10
1.19878e-10
1.37884e-10
1.57278e-10
1.78252e-10
2.01012e-10
2.25781e-10
2.52802e-10
2.82335e-10
3.14666e-10
3.50104e-10
3.88985e-10
4.31677e-10
4.78578e-10
5.30126e-10
5.86796e-10
6.49104e-10
7.17616e-10
7.92946e-10
8.75763e-10
9.66798e-10
1.06684e-09
1.17676e-09
1.29748e-09
1.43002e-09
1.5755e-09
1.73509e-09
1.91009e-09
2.1019e-09
2.31202e-09
2.5421e-09
2.79388e-09
3.06925e-09
3.37024e-09
3.69904e-09
4.05798e-09
4.44956e-09
4.87646e-09
5.34153e-09
5.8478e-09
6.39852e-09
6.9971e-09
7.64718e-09
8.3526e-09
9.11739e-09
9.94582e-09
1.08423e-08
1.18116e-08
1.28586e-08
1.39882e-08
1.52058e-08
1.65169e-08
1.79269e-08
1.94416e-08
2.1067e-08
2.28088e-08
2.46732e-08
2.66661e-08
2.87935e-08
3.10613e-08
3.34755e-08
3.60416e-08
3.8765e-08
4.16508e-08
4.47038e-08
4.79281e-08
5.13276e-08
5.49052e-08
5.86634e-08
6.26036e-08
6.67266e-08
7.10317e-08
7.55175e-08
8.01813e-08
8.50189e-08
9.00247e-08
9.51918e-08
1.00512e-07
1.05974e-07
1.11566e-07
1.17275e-07
1.23084e-07
1.28977e-07
1.34934e-07
1.40933e-07
1.46953e-07
1.52968e-07
1.58952e-07
1.64878e-07
1.70717e-07
1.76438e-07
1.8201e-07
1.87403e-07
1.92583e-07
1.97519e-07
2.02179e-07
2.0653e-07
2.10541e-07
2.14185e-07
2.17431e-07
2.20254e-07
2.2263e-07
2.24536e-07
2.25955e-07
2.26871e-07
2.27271e-07
2.27147e-07
2.26493e-07
2.2531e-07
2.23599e-07
2.21368e-07
2.18628e-07
2.15394e-07
2.11685e-07
2.07523e-07
2.02935e-07
1.97948e-07
1.92595e-07
1.8691e-07
1.80929e-07
1.7469e-07
1.68232e-07
1.61594e-07
1.54817e-07
1.4794e-07
1.41002e-07
1.34042e-07
1.27096e-07
1.20199e-07
1.13384e-07
1.06682e-07
1.0012e-07
9.3724e-08
8.75162e-08
8.15161e-08
7.57403e-08
7.02022e-08
6.49125e-08
5.98791e-08