/*--------------------------------*- C++ -*----------------------------------*\
| =========                 |                                                 |
| \\      /  F ield         | OpenFOAM: The Open Source CFD Toolbox           |
|  \\    /   O peration     | Version:  v2012                                 |
|   \\  /    A nd           | Website:  www.openfoam.com                      |
|    \\/     M anipulation  |                                                 |
\*---------------------------------------------------------------------------*/
FoamFile
{
    version     2.0;
    format      ascii;
    class       surfaceScalarField;
    location    "0.8";
    object      phi;
}
// * * * * * * * * * * * * * * * * * * * * * * * * * * * * * * * * * * * * * //

dimensions      [0 3 -1 0 0 0 0];
oriented        oriented;


internalField   nonuniform List<scalar> 
130560
(
3.36234e-06
-3.36234e-06
6.72444e-06
-3.36211e-06
1.00861e-05
-3.36165e-06
1.34471e-05
-3.36098e-06
1.68071e-05
-3.36007e-06
2.01661e-05
-3.35893e-06
2.35236e-05
-3.35757e-06
2.68796e-05
-3.35596e-06
3.02337e-05
-3.35412e-06
3.35858e-05
-3.35204e-06
3.69355e-05
-3.34972e-06
4.02826e-05
-3.34714e-06
4.3627e-05
-3.34432e-06
4.69682e-05
-3.34123e-06
5.03061e-05
-3.33788e-06
5.36403e-05
-3.33427e-06
5.69707e-05
-3.33037e-06
6.02969e-05
-3.3262e-06
6.36186e-05
-3.32174e-06
6.69356e-05
-3.31698e-06
7.02476e-05
-3.31193e-06
7.35541e-05
-3.30656e-06
7.6855e-05
-3.30087e-06
8.01499e-05
-3.29486e-06
8.34384e-05
-3.28852e-06
8.67202e-05
-3.28183e-06
8.9995e-05
-3.27479e-06
9.32624e-05
-3.26739e-06
9.6522e-05
-3.25962e-06
9.97735e-05
-3.25147e-06
0.000103016
-3.24294e-06
0.00010625
-3.234e-06
0.000109475
-3.22465e-06
0.00011269
-3.21489e-06
0.000115895
-3.20469e-06
0.000119089
-3.19406e-06
0.000122272
-3.18298e-06
0.000125443
-3.17144e-06
0.000128603
-3.15943e-06
0.00013175
-3.14694e-06
0.000134883
-3.13396e-06
0.000138004
-3.12048e-06
0.00014111
-3.1065e-06
0.000144202
-3.09199e-06
0.000147279
-3.07695e-06
0.000150341
-3.06138e-06
0.000153386
-3.04526e-06
0.000156415
-3.02858e-06
0.000159426
-3.01134e-06
0.000162419
-2.99352e-06
0.000165395
-2.97512e-06
0.000168351
-2.95614e-06
0.000171287
-2.93655e-06
0.000174204
-2.91637e-06
0.000177099
-2.89557e-06
0.000179973
-2.87415e-06
0.000182825
-2.85212e-06
0.000185655
-2.82945e-06
0.000188461
-2.80615e-06
0.000191243
-2.78222e-06
0.000194001
-2.75764e-06
0.000196733
-2.73242e-06
0.00019944
-2.70655e-06
0.00020212
-2.68003e-06
0.000204773
-2.65287e-06
0.000207398
-2.62505e-06
0.000209994
-2.59657e-06
0.000212562
-2.56745e-06
0.0002151
-2.53768e-06
0.000217607
-2.50725e-06
0.000220083
-2.47618e-06
0.000222527
-2.44447e-06
0.00022494
-2.41211e-06
0.000227319
-2.37912e-06
0.000229664
-2.3455e-06
0.000231975
-2.31124e-06
0.000234252
-2.27637e-06
0.000236493
-2.24089e-06
0.000238697
-2.20479e-06
0.000240866
-2.1681e-06
0.000242996
-2.13082e-06
0.000245089
-2.09295e-06
0.000247144
-2.05452e-06
0.000249159
-2.01552e-06
0.000251135
-1.97597e-06
0.000253071
-1.93588e-06
0.000254967
-1.89526e-06
0.000256821
-1.85413e-06
0.000258633
-1.81249e-06
0.000260403
-1.77036e-06
0.000262131
-1.72775e-06
0.000263816
-1.68468e-06
0.000265457
-1.64116e-06
0.000267054
-1.5972e-06
0.000268607
-1.55283e-06
0.000270115
-1.50804e-06
0.000271578
-1.46286e-06
0.000272995
-1.41731e-06
0.000274367
-1.3714e-06
0.000275692
-1.32514e-06
0.00027697
-1.27855e-06
0.000278202
-1.23165e-06
0.000279387
-1.18445e-06
0.000280523
-1.13697e-06
0.000281613
-1.08922e-06
0.000282654
-1.04121e-06
0.000283647
-9.92978e-07
0.000284591
-9.44522e-07
0.000285487
-8.95862e-07
0.000286334
-8.47013e-07
0.000287132
-7.97991e-07
0.000287881
-7.48811e-07
0.000288581
-6.99488e-07
0.000289231
-6.50037e-07
0.000289831
-6.00472e-07
0.000290382
-5.50808e-07
0.000290883
-5.0106e-07
0.000291334
-4.51241e-07
0.000291736
-4.01366e-07
0.000292087
-3.51449e-07
0.000292389
-3.01502e-07
0.00029264
-2.51539e-07
0.000292842
-2.01574e-07
0.000292993
-1.51619e-07
0.000293095
-1.01688e-07
0.000293147
-5.17919e-08
0.000293149
-1.94401e-09
0.000293101
4.78435e-08
0.000293003
9.75587e-08
0.000292856
1.4719e-07
0.000292659
1.96725e-07
0.000292413
2.46152e-07
0.000292118
2.9546e-07
0.000291773
3.44638e-07
0.000291379
3.93674e-07
0.000290937
4.42557e-07
0.000290446
4.91277e-07
0.000289906
5.39821e-07
0.000289318
5.8818e-07
0.000288681
6.36342e-07
0.000287997
6.84297e-07
0.000287265
7.32034e-07
0.000286485
7.79542e-07
0.000285659
8.26811e-07
0.000284785
8.7383e-07
0.000283864
9.20587e-07
0.000282897
9.67074e-07
0.000281884
1.01328e-06
0.000280825
1.05919e-06
0.00027972
1.1048e-06
0.00027857
1.1501e-06
0.000277375
1.19507e-06
0.000276135
1.23971e-06
0.000274851
1.284e-06
0.000273523
1.32794e-06
0.000272151
1.37152e-06
0.000270737
1.41472e-06
0.000269279
1.45753e-06
0.000267779
1.49995e-06
0.000266237
1.54196e-06
0.000264654
1.58356e-06
0.000263029
1.62474e-06
0.000261364
1.66547e-06
0.000259658
1.70577e-06
0.000257912
1.74561e-06
0.000256127
1.78499e-06
0.000254303
1.8239e-06
0.000252441
1.86233e-06
0.000250541
1.90028e-06
0.000248603
1.93773e-06
0.000246628
1.97467e-06
0.000244617
2.0111e-06
0.00024257
2.04702e-06
0.000240488
2.08241e-06
0.00023837
2.11726e-06
0.000236219
2.15158e-06
0.000234034
2.18536e-06
0.000231815
2.21858e-06
0.000229564
2.25126e-06
0.00022728
2.28337e-06
0.000224965
2.31492e-06
0.000222619
2.3459e-06
0.000220243
2.37631e-06
0.000217837
2.40615e-06
0.000215402
2.43541e-06
0.000212938
2.4641e-06
0.000210445
2.4922e-06
0.000207926
2.51972e-06
0.000205379
2.54666e-06
0.000202806
2.57302e-06
0.000200207
2.5988e-06
0.000197583
2.62399e-06
0.000194935
2.64861e-06
0.000192262
2.67264e-06
0.000189566
2.6961e-06
0.000186847
2.71899e-06
0.000184105
2.7413e-06
0.000181342
2.76305e-06
0.000178558
2.78423e-06
0.000175753
2.80485e-06
0.000172928
2.82491e-06
0.000170084
2.84443e-06
0.000167221
2.86339e-06
0.000164339
2.88182e-06
0.000161439
2.89971e-06
0.000158522
2.91707e-06
0.000155588
2.93391e-06
0.000152638
2.95023e-06
0.000149672
2.96605e-06
0.00014669
2.98136e-06
0.000143694
2.99617e-06
0.000140684
3.0105e-06
0.000137659
3.02435e-06
0.000134622
3.03773e-06
0.000131571
3.05065e-06
0.000128508
3.06311e-06
0.000125433
3.07512e-06
0.000122346
3.08669e-06
0.000119248
3.09784e-06
0.00011614
3.10856e-06
0.000113021
3.11887e-06
0.000109892
3.12877e-06
0.000106754
3.13828e-06
0.000103606
3.1474e-06
0.00010045
3.15614e-06
9.72858e-05
3.16451e-06
9.41132e-05
3.17252e-06
9.09331e-05
3.18017e-06
8.77456e-05
3.18748e-06
8.45512e-05
3.19444e-06
8.13501e-05
3.20108e-06
7.81427e-05
3.20739e-06
7.49293e-05
3.21339e-06
7.17102e-05
3.21908e-06
6.84858e-05
3.22446e-06
6.52562e-05
3.22955e-06
6.20218e-05
3.23436e-06
5.8783e-05
3.23888e-06
5.55398e-05
3.24313e-06
5.22927e-05
3.2471e-06
4.90419e-05
3.25082e-06
4.57877e-05
3.25427e-06
4.25302e-05
3.25747e-06
3.92698e-05
3.26042e-06
3.60066e-05
3.26313e-06
3.2741e-05
3.2656e-06
2.94732e-05
3.26783e-06
2.62034e-05
3.26982e-06
2.29318e-05
3.27159e-06
1.96587e-05
3.27313e-06
1.63842e-05
3.27445e-06
1.31087e-05
3.27554e-06
9.83227e-06
3.27641e-06
6.5552e-06
3.27706e-06
3.27771e-06
3.27749e-06
3.27771e-06
3.36255e-06
-6.72489e-06
6.72488e-06
-6.72444e-06
1.00868e-05
-6.72353e-06
1.3448e-05
-6.72218e-06
1.68083e-05
-6.72037e-06
2.01674e-05
-6.7181e-06
2.35252e-05
-6.71536e-06
2.68814e-05
-6.71216e-06
3.02358e-05
-6.70848e-06
3.3588e-05
-6.70432e-06
3.6938e-05
-6.69968e-06
4.02854e-05
-6.69453e-06
4.363e-05
-6.68889e-06
4.69715e-05
-6.68272e-06
5.03096e-05
-6.67603e-06
5.36441e-05
-6.6688e-06
5.69748e-05
-6.66102e-06
6.03013e-05
-6.65268e-06
6.36233e-05
-6.64377e-06
6.69406e-05
-6.63427e-06
7.02528e-05
-6.62416e-06
7.35597e-05
-6.61343e-06
7.68609e-05
-6.60207e-06
8.01561e-05
-6.59006e-06
8.34449e-05
-6.57738e-06
8.67271e-05
-6.56401e-06
9.00023e-05
-6.54994e-06
9.327e-05
-6.53515e-06
9.653e-05
-6.51962e-06
9.97819e-05
-6.50333e-06
0.000103025
-6.48627e-06
0.00010626
-6.4684e-06
0.000109485
-6.44972e-06
0.0001127
-6.4302e-06
0.000115905
-6.40982e-06
0.0001191
-6.38857e-06
0.000122283
-6.36642e-06
0.000125455
-6.34335e-06
0.000128615
-6.31934e-06
0.000131762
-6.29437e-06
0.000134897
-6.26842e-06
0.000138018
-6.24147e-06
0.000141125
-6.21351e-06
0.000144217
-6.1845e-06
0.000147295
-6.15444e-06
0.000150357
-6.1233e-06
0.000153403
-6.09107e-06
0.000156432
-6.05772e-06
0.000159444
-6.02325e-06
0.000162438
-5.98762e-06
0.000165413
-5.95084e-06
0.00016837
-5.91287e-06
0.000171307
-5.87371e-06
0.000174224
-5.83334e-06
0.00017712
-5.79175e-06
0.000179995
-5.74893e-06
0.000182848
-5.70486e-06
0.000185678
-5.65953e-06
0.000188485
-5.61294e-06
0.000191268
-5.56507e-06
0.000194026
-5.51592e-06
0.000196759
-5.46548e-06
0.000199466
-5.41375e-06
0.000202147
-5.36072e-06
0.0002048
-5.30638e-06
0.000207426
-5.25074e-06
0.000210023
-5.1938e-06
0.000212591
-5.13555e-06
0.00021513
-5.07601e-06
0.000217638
-5.01516e-06
0.000220115
-4.95301e-06
0.00022256
-4.88958e-06
0.000224972
-4.82486e-06
0.000227352
-4.75887e-06
0.000229698
-4.69162e-06
0.00023201
-4.62311e-06
0.000234287
-4.55336e-06
0.000236529
-4.48238e-06
0.000238734
-4.41019e-06
0.000240903
-4.33679e-06
0.000243034
-4.26222e-06
0.000245128
-4.18648e-06
0.000247183
-4.1096e-06
0.000249199
-4.03159e-06
0.000251175
-3.95248e-06
0.000253112
-3.87229e-06
0.000255007
-3.79105e-06
0.000256862
-3.70876e-06
0.000258675
-3.62547e-06
0.000260446
-3.5412e-06
0.000262174
-3.45597e-06
0.000263859
-3.36982e-06
0.000265501
-3.28276e-06
0.000267099
-3.19483e-06
0.000268652
-3.10606e-06
0.00027016
-3.01648e-06
0.000271623
-2.92611e-06
0.000273041
-2.83499e-06
0.000274413
-2.74315e-06
0.000275738
-2.65061e-06
0.000277017
-2.55742e-06
0.000278249
-2.4636e-06
0.000279434
-2.36918e-06
0.000280571
-2.2742e-06
0.000281661
-2.17869e-06
0.000282702
-2.08267e-06
0.000283695
-1.98618e-06
0.00028464
-1.88925e-06
0.000285536
-1.79192e-06
0.000286383
-1.6942e-06
0.000287181
-1.59614e-06
0.00028793
-1.49777e-06
0.00028863
-1.39911e-06
0.00028928
-1.30019e-06
0.000289881
-1.20105e-06
0.000290432
-1.10171e-06
0.000290933
-1.00219e-06
0.000291384
-9.02544e-07
0.000291785
-8.0278e-07
0.000292137
-7.02931e-07
0.000292438
-6.03024e-07
0.00029269
-5.03086e-07
0.000292892
-4.03143e-07
0.000293043
-3.0322e-07
0.000293145
-2.03345e-07
0.000293197
-1.0354e-07
0.000293198
-3.8323e-09
0.000293151
9.57548e-08
0.000293053
1.95197e-07
0.000292906
2.94471e-07
0.000292709
3.93552e-07
0.000292463
4.92418e-07
0.000292167
5.91046e-07
0.000291822
6.89413e-07
0.000291428
7.87496e-07
0.000290986
8.85274e-07
0.000290494
9.82724e-07
0.000289954
1.07982e-06
0.000289366
1.17655e-06
0.000288729
1.27289e-06
0.000288045
1.36881e-06
0.000287313
1.46429e-06
0.000286533
1.55932e-06
0.000285706
1.65387e-06
0.000284832
1.74792e-06
0.000283911
1.84144e-06
0.000282943
1.93443e-06
0.00028193
2.02685e-06
0.00028087
2.11868e-06
0.000279765
2.20991e-06
0.000278615
2.30052e-06
0.000277419
2.39047e-06
0.000276179
2.47976e-06
0.000274895
2.56836e-06
0.000273567
2.65625e-06
0.000272195
2.74341e-06
0.00027078
2.82982e-06
0.000269322
2.91545e-06
0.000267821
3.0003e-06
0.000266279
3.08434e-06
0.000264695
3.16755e-06
0.00026307
3.2499e-06
0.000261404
3.33139e-06
0.000259698
3.41199e-06
0.000257952
3.49168e-06
0.000256166
3.57046e-06
0.000254342
3.64828e-06
0.000252479
3.72515e-06
0.000250578
3.80105e-06
0.00024864
3.87595e-06
0.000246665
3.94985e-06
0.000244653
4.02272e-06
0.000242606
4.09456e-06
0.000240523
4.16534e-06
0.000238405
4.23506e-06
0.000236253
4.30371e-06
0.000234067
4.37126e-06
0.000231848
4.43772e-06
0.000229596
4.50307e-06
0.000227312
4.5673e-06
0.000224997
4.6304e-06
0.00022265
4.69237e-06
0.000220273
4.7532e-06
0.000217866
4.81288e-06
0.00021543
4.8714e-06
0.000212966
4.92877e-06
0.000210473
4.98498e-06
0.000207953
5.04002e-06
0.000205405
5.09391e-06
0.000202832
5.14662e-06
0.000200232
5.19818e-06
0.000197608
5.24857e-06
0.000194959
5.29779e-06
0.000192286
5.34587e-06
0.000189589
5.39278e-06
0.000186869
5.43855e-06
0.000184127
5.48318e-06
0.000181364
5.52666e-06
0.000178579
5.56902e-06
0.000175774
5.61026e-06
0.000172948
5.65038e-06
0.000170103
5.6894e-06
0.000167239
5.72733e-06
0.000164357
5.76417e-06
0.000161457
5.79995e-06
0.000158539
5.83467e-06
0.000155605
5.86834e-06
0.000152654
5.90097e-06
0.000149687
5.93259e-06
0.000146705
5.96321e-06
0.000143709
5.99284e-06
0.000140698
6.02149e-06
0.000137673
6.04918e-06
0.000134635
6.07593e-06
0.000131584
6.10175e-06
0.00012852
6.12666e-06
0.000125445
6.15068e-06
0.000122357
6.17382e-06
0.000119259
6.1961e-06
0.00011615
6.21754e-06
0.000113031
6.23815e-06
0.000109902
6.25795e-06
0.000106763
6.27696e-06
0.000103615
6.29519e-06
0.000100459
6.31266e-06
9.72939e-05
6.32939e-06
9.4121e-05
6.3454e-06
9.09405e-05
6.36069e-06
8.77527e-05
6.37529e-06
8.45579e-05
6.38922e-06
8.13565e-05
6.40248e-06
7.81488e-05
6.4151e-06
7.49351e-05
6.42709e-06
7.17157e-05
6.43846e-06
6.84909e-05
6.44922e-06
6.52611e-05
6.4594e-06
6.20264e-05
6.469e-06
5.87873e-05
6.47804e-06
5.55439e-05
6.48653e-06
5.22965e-05
6.49447e-06
4.90454e-05
6.50189e-06
4.57909e-05
6.5088e-06
4.25332e-05
6.51519e-06
3.92725e-05
6.52109e-06
3.60091e-05
6.5265e-06
3.27433e-05
6.53143e-06
2.94752e-05
6.53589e-06
2.62052e-05
6.53988e-06
2.29334e-05
6.54341e-06
1.966e-05
6.54649e-06
1.63853e-05
6.54912e-06
1.31096e-05
6.5513e-06
9.83293e-06
6.55305e-06
6.55564e-06
6.55435e-06
3.27793e-06
6.55521e-06
6.55564e-06
3.36301e-06
-1.00879e-05
6.72579e-06
-1.00872e-05
1.00881e-05
-1.00859e-05
1.34498e-05
-1.00838e-05
1.68105e-05
-1.00811e-05
2.01702e-05
-1.00777e-05
2.35284e-05
-1.00736e-05
2.68851e-05
-1.00688e-05
3.02399e-05
-1.00633e-05
3.35927e-05
-1.00571e-05
3.69432e-05
-1.00501e-05
4.02911e-05
-1.00424e-05
4.36362e-05
-1.0034e-05
4.69782e-05
-1.00247e-05
5.03169e-05
-1.00147e-05
5.3652e-05
-1.00039e-05
5.69832e-05
-9.99224e-06
6.03102e-05
-9.97975e-06
6.36329e-05
-9.96639e-06
6.69507e-05
-9.95215e-06
7.02636e-05
-9.93701e-06
7.35711e-05
-9.92094e-06
7.6873e-05
-9.90392e-06
8.01688e-05
-9.88592e-06
8.34584e-05
-9.86692e-06
8.67412e-05
-9.8469e-06
9.00171e-05
-9.82581e-06
9.32856e-05
-9.80365e-06
9.65464e-05
-9.78038e-06
9.9799e-05
-9.75597e-06
0.000103043
-9.7304e-06
0.000106278
-9.70362e-06
0.000109504
-9.67563e-06
0.00011272
-9.64637e-06
0.000115926
-9.61583e-06
0.000119122
-9.58398e-06
0.000122306
-9.55077e-06
0.000125479
-9.51619e-06
0.00012864
-9.4802e-06
0.000131788
-9.44278e-06
0.000134924
-9.40388e-06
0.000138046
-9.36348e-06
0.000141154
-9.32156e-06
0.000144247
-9.27808e-06
0.000147326
-9.23301e-06
0.000150389
-9.18632e-06
0.000153436
-9.138e-06
0.000156466
-9.088e-06
0.000159479
-9.03631e-06
0.000162475
-8.98289e-06
0.000165451
-8.92773e-06
0.000168409
-8.8708e-06
0.000171348
-8.81208e-06
0.000174266
-8.75154e-06
0.000177163
-8.68917e-06
0.000180039
-8.62495e-06
0.000182893
-8.55886e-06
0.000185725
-8.49088e-06
0.000188533
-8.421e-06
0.000191317
-8.34921e-06
0.000194077
-8.2755e-06
0.000196811
-8.19984e-06
0.000199519
-8.12225e-06
0.000202201
-8.0427e-06
0.000204856
-7.9612e-06
0.000207483
-7.87775e-06
0.000210082
-7.79233e-06
0.000212651
-7.70496e-06
0.000215191
-7.61563e-06
0.0002177
-7.52435e-06
0.000220178
-7.43113e-06
0.000222624
-7.33597e-06
0.000225038
-7.23889e-06
0.000227419
-7.13989e-06
0.000229767
-7.039e-06
0.00023208
-6.93622e-06
0.000234358
-6.83158e-06
0.000236601
-6.72509e-06
0.000238807
-6.61678e-06
0.000240977
-6.50667e-06
0.00024311
-6.39478e-06
0.000245205
-6.28115e-06
0.000247261
-6.16581e-06
0.000249278
-6.04877e-06
0.000251256
-5.93008e-06
0.000253193
-5.80976e-06
0.00025509
-5.68786e-06
0.000256945
-5.56441e-06
0.000258759
-5.43944e-06
0.000260531
-5.313e-06
0.00026226
-5.18512e-06
0.000263946
-5.05585e-06
0.000265589
-4.92523e-06
0.000267187
-4.7933e-06
0.000268741
-4.66011e-06
0.000270251
-4.52569e-06
0.000271715
-4.3901e-06
0.000273133
-4.25338e-06
0.000274505
-4.11558e-06
0.000275832
-3.97674e-06
0.000277111
-3.83692e-06
0.000278344
-3.69615e-06
0.000279529
-3.55448e-06
0.000280667
-3.41197e-06
0.000281757
-3.26866e-06
0.000282799
-3.12459e-06
0.000283792
-2.97982e-06
0.000284737
-2.83439e-06
0.000285634
-2.68835e-06
0.000286481
-2.54174e-06
0.00028728
-2.39461e-06
0.000288029
-2.24701e-06
0.000288729
-2.09898e-06
0.000289379
-1.95057e-06
0.00028998
-1.80182e-06
0.000290531
-1.65277e-06
0.000291032
-1.50347e-06
0.000291484
-1.35396e-06
0.000291885
-1.20428e-06
0.000292237
-1.05447e-06
0.000292538
-9.04576e-07
0.00029279
-7.54635e-07
0.000292992
-6.04688e-07
0.000293143
-4.54773e-07
0.000293245
-3.04928e-07
0.000293296
-1.5519e-07
0.000293298
-5.59772e-09
0.00029325
1.43813e-07
0.000293152
2.93006e-07
0.000293005
4.41946e-07
0.000292808
5.90597e-07
0.000292561
7.38925e-07
0.000292265
8.86895e-07
0.00029192
1.03447e-06
0.000291526
1.18163e-06
0.000291083
1.32832e-06
0.000290591
1.47452e-06
0.000290051
1.6202e-06
0.000289462
1.76532e-06
0.000288825
1.90985e-06
0.00028814
2.05376e-06
0.000287408
2.19701e-06
0.000286627
2.33958e-06
0.0002858
2.48143e-06
0.000284925
2.62252e-06
0.000284004
2.76284e-06
0.000283036
2.90234e-06
0.000282022
3.041e-06
0.000280962
3.17878e-06
0.000279856
3.31565e-06
0.000278705
3.45158e-06
0.000277509
3.58654e-06
0.000276268
3.7205e-06
0.000274983
3.85343e-06
0.000273654
3.98529e-06
0.000272281
4.11605e-06
0.000270865
4.24569e-06
0.000269407
4.37417e-06
0.000267905
4.50147e-06
0.000266362
4.62755e-06
0.000264777
4.75238e-06
0.000263151
4.87594e-06
0.000261485
4.99819e-06
0.000259777
5.11912e-06
0.00025803
5.23868e-06
0.000256244
5.35686e-06
0.000254419
5.47362e-06
0.000252555
5.58895e-06
0.000250653
5.70281e-06
0.000248714
5.81519e-06
0.000246738
5.92605e-06
0.000244725
6.03538e-06
0.000242676
6.14315e-06
0.000240592
6.24934e-06
0.000238474
6.35394e-06
0.00023632
6.45692e-06
0.000234133
6.55827e-06
0.000231913
6.65797e-06
0.00022966
6.756e-06
0.000227375
6.85236e-06
0.000225058
6.94702e-06
0.000222711
7.03998e-06
0.000220333
7.13123e-06
0.000217925
7.22075e-06
0.000215488
7.30855e-06
0.000213022
7.39461e-06
0.000210528
7.47892e-06
0.000208007
7.56149e-06
0.000205458
7.64231e-06
0.000202883
7.72139e-06
0.000200283
7.79872e-06
0.000197657
7.8743e-06
0.000195007
7.94814e-06
0.000192332
8.02024e-06
0.000189635
8.09061e-06
0.000186914
8.15926e-06
0.000184171
8.22618e-06
0.000181406
8.29141e-06
0.00017862
8.35493e-06
0.000175814
8.41678e-06
0.000172987
8.47695e-06
0.000170141
8.53547e-06
0.000167276
8.59235e-06
0.000164393
8.6476e-06
0.000161491
8.70125e-06
0.000158573
8.75331e-06
0.000155637
8.80379e-06
0.000152685
8.85273e-06
0.000149718
8.90015e-06
0.000146735
8.94605e-06
0.000143737
8.99047e-06
0.000140725
9.03343e-06
0.0001377
9.07495e-06
0.000134661
9.11505e-06
0.000131609
9.15377e-06
0.000128544
9.19111e-06
0.000125468
9.22712e-06
0.00012238
9.26181e-06
0.000119281
9.29521e-06
0.000116171
9.32734e-06
0.000113051
9.35823e-06
0.000109921
9.38791e-06
0.000106781
9.4164e-06
0.000103633
9.44373e-06
0.000100475
9.46992e-06
9.73098e-05
9.49499e-06
9.41363e-05
9.51898e-06
9.0955e-05
9.5419e-06
8.77665e-05
9.56379e-06
8.45711e-05
9.58466e-06
8.13691e-05
9.60453e-06
7.81607e-05
9.62344e-06
7.49464e-05
9.6414e-06
7.17264e-05
9.65844e-06
6.85011e-05
9.67457e-06
6.52707e-05
9.68982e-06
6.20355e-05
9.7042e-06
5.87957e-05
9.71775e-06
5.55518e-05
9.73046e-06
5.23039e-05
9.74237e-06
4.90523e-05
9.75349e-06
4.57973e-05
9.76383e-06
4.25391e-05
9.77341e-06
3.92779e-05
9.78225e-06
3.60141e-05
9.79036e-06
3.27477e-05
9.79774e-06
2.94792e-05
9.80442e-06
2.62087e-05
9.8104e-06
2.29364e-05
9.81569e-06
1.96626e-05
9.8203e-06
1.63875e-05
9.82423e-06
1.31113e-05
9.82751e-06
9.83423e-06
9.83012e-06
6.55651e-06
9.83207e-06
3.27836e-06
9.83336e-06
9.834e-06
3.36369e-06
-1.34516e-05
6.72715e-06
-1.34507e-05
1.00902e-05
-1.34489e-05
1.34525e-05
-1.34462e-05
1.6814e-05
-1.34426e-05
2.01743e-05
-1.3438e-05
2.35333e-05
-1.34326e-05
2.68906e-05
-1.34262e-05
3.02462e-05
-1.34189e-05
3.35997e-05
-1.34106e-05
3.69509e-05
-1.34013e-05
4.02996e-05
-1.33911e-05
4.36454e-05
-1.33798e-05
4.69883e-05
-1.33675e-05
5.03278e-05
-1.33542e-05
5.36637e-05
-1.33398e-05
5.69957e-05
-1.33243e-05
6.03237e-05
-1.33077e-05
6.36472e-05
-1.32899e-05
6.6966e-05
-1.32709e-05
7.02797e-05
-1.32508e-05
7.35882e-05
-1.32294e-05
7.6891e-05
-1.32067e-05
8.01879e-05
-1.31828e-05
8.34785e-05
-1.31575e-05
8.67624e-05
-1.31308e-05
9.00394e-05
-1.31028e-05
9.3309e-05
-1.30733e-05
9.65709e-05
-1.30423e-05
9.98247e-05
-1.30098e-05
0.00010307
-1.29757e-05
0.000106306
-1.29401e-05
0.000109534
-1.29028e-05
0.000112751
-1.28638e-05
0.000115958
-1.28232e-05
0.000119155
-1.27807e-05
0.000122341
-1.27365e-05
0.000125515
-1.26904e-05
0.000128677
-1.26425e-05
0.000131827
-1.25927e-05
0.000134964
-1.25408e-05
0.000138088
-1.2487e-05
0.000141197
-1.24312e-05
0.000144293
-1.23732e-05
0.000147373
-1.23132e-05
0.000150437
-1.2251e-05
0.000153486
-1.21866e-05
0.000156518
-1.212e-05
0.000159533
-1.20511e-05
0.00016253
-1.19799e-05
0.000165509
-1.19064e-05
0.000168468
-1.18305e-05
0.000171408
-1.17523e-05
0.000174328
-1.16716e-05
0.000177228
-1.15884e-05
0.000180106
-1.15028e-05
0.000182961
-1.14147e-05
0.000185795
-1.13241e-05
0.000188605
-1.1231e-05
0.000191391
-1.11353e-05
0.000194152
-1.1037e-05
0.000196889
-1.09361e-05
0.000199599
-1.08327e-05
0.000202283
-1.07266e-05
0.00020494
-1.0618e-05
0.000207569
-1.05067e-05
0.000210169
-1.03928e-05
0.000212741
-1.02763e-05
0.000215282
-1.01572e-05
0.000217793
-1.00355e-05
0.000220273
-9.91118e-06
0.000222722
-9.78429e-06
0.000225138
-9.65482e-06
0.000227521
-9.52281e-06
0.00022987
-9.38825e-06
0.000232185
-9.25119e-06
0.000234465
-9.11163e-06
0.000236709
-8.96962e-06
0.000238918
-8.82517e-06
0.000241089
-8.67831e-06
0.000243224
-8.52909e-06
0.00024532
-8.37754e-06
0.000247378
-8.2237e-06
0.000249397
-8.0676e-06
0.000251376
-7.90929e-06
0.000253315
-7.74882e-06
0.000255213
-7.58622e-06
0.000257071
-7.42156e-06
0.000258886
-7.25488e-06
0.000260659
-7.08623e-06
0.00026239
-6.91566e-06
0.000264077
-6.74324e-06
0.000265721
-6.56901e-06
0.000267321
-6.39303e-06
0.000268876
-6.21537e-06
0.000270386
-6.03608e-06
0.000271851
-5.85523e-06
0.000273271
-5.67286e-06
0.000274644
-5.48905e-06
0.000275972
-5.30386e-06
0.000277252
-5.11735e-06
0.000278485
-4.92959e-06
0.000279672
-4.74062e-06
0.00028081
-4.55053e-06
0.000281901
-4.35938e-06
0.000282943
-4.16722e-06
0.000283938
-3.97411e-06
0.000284883
-3.78013e-06
0.00028578
-3.58534e-06
0.000286629
-3.38979e-06
0.000287427
-3.19355e-06
0.000288177
-2.99668e-06
0.000288877
-2.79924e-06
0.000289528
-2.60129e-06
0.000290129
-2.40288e-06
0.00029068
-2.20408e-06
0.000291182
-2.00495e-06
0.000291634
-1.80554e-06
0.000292035
-1.6059e-06
0.000292387
-1.40609e-06
0.000292688
-1.20617e-06
0.00029294
-1.00619e-06
0.000293141
-8.06199e-07
0.000293293
-6.06252e-07
0.000293394
-4.064e-07
0.000293446
-2.06692e-07
0.000293447
-7.17846e-09
0.000293399
1.92092e-07
0.000293301
3.91072e-07
0.000293153
5.89713e-07
0.000292956
7.87968e-07
0.000292709
9.85792e-07
0.000292413
1.18314e-06
0.000292067
1.37996e-06
0.000291673
1.57622e-06
0.000291229
1.77186e-06
0.000290737
1.96685e-06
0.000290196
2.16114e-06
0.000289607
2.35468e-06
0.000288969
2.54744e-06
0.000288283
2.73936e-06
0.00028755
2.93042e-06
0.000286769
3.12056e-06
0.000285941
3.30974e-06
0.000285065
3.49792e-06
0.000284143
3.68506e-06
0.000283174
3.87111e-06
0.000282159
4.05603e-06
0.000281098
4.23979e-06
0.000279992
4.42233e-06
0.00027884
4.60362e-06
0.000277643
4.78362e-06
0.000276401
4.96228e-06
0.000275115
5.13956e-06
0.000273784
5.31542e-06
0.000272411
5.48982e-06
0.000270994
5.66272e-06
0.000269534
5.83408e-06
0.000268031
6.00385e-06
0.000266487
6.172e-06
0.000264901
6.33849e-06
0.000263273
6.50328e-06
0.000261605
6.66633e-06
0.000259897
6.82761e-06
0.000258148
6.98707e-06
0.000256361
7.14468e-06
0.000254534
7.30041e-06
0.000252669
7.45421e-06
0.000250765
7.60607e-06
0.000248825
7.75593e-06
0.000246847
7.90379e-06
0.000244833
8.04959e-06
0.000242783
8.19332e-06
0.000240697
8.33494e-06
0.000238576
8.47443e-06
0.000236422
8.61177e-06
0.000234233
8.74693e-06
0.000232011
8.87988e-06
0.000229756
9.01062e-06
0.00022747
9.13911e-06
0.000225151
9.26535e-06
0.000222802
9.38931e-06
0.000220422
9.51099e-06
0.000218013
9.63036e-06
0.000215574
9.74743e-06
0.000213106
9.86218e-06
0.00021061
9.97461e-06
0.000208087
1.00847e-05
0.000205537
1.01925e-05
0.000202961
1.02979e-05
0.000200358
1.0401e-05
0.000197731
1.05018e-05
0.000195079
1.06002e-05
0.000192403
1.06963e-05
0.000189703
1.07902e-05
0.000186981
1.08817e-05
0.000184236
1.09709e-05
0.000181469
1.10578e-05
0.000178682
1.11425e-05
0.000175874
1.1225e-05
0.000173045
1.13052e-05
0.000170198
1.13832e-05
0.000167331
1.1459e-05
0.000164446
1.15326e-05
0.000161543
1.16041e-05
0.000158623
1.16735e-05
0.000155686
1.17408e-05
0.000152733
1.1806e-05
0.000149764
1.18692e-05
0.000146779
1.19304e-05
0.00014378
1.19896e-05
0.000140767
1.20468e-05
0.00013774
1.21021e-05
0.000134699
1.21556e-05
0.000131646
1.22071e-05
0.00012858
1.22569e-05
0.000125502
1.23049e-05
0.000122413
1.23511e-05
0.000119313
1.23956e-05
0.000116202
1.24384e-05
0.00011308
1.24795e-05
0.000109949
1.25191e-05
0.000106808
1.2557e-05
0.000103659
1.25934e-05
0.0001005
1.26283e-05
9.73338e-05
1.26617e-05
9.41591e-05
1.26936e-05
9.09769e-05
1.27242e-05
8.77874e-05
1.27533e-05
8.45909e-05
1.27811e-05
8.13879e-05
1.28076e-05
7.81786e-05
1.28327e-05
7.49634e-05
1.28566e-05
7.17425e-05
1.28793e-05
6.85163e-05
1.29008e-05
6.5285e-05
1.29211e-05
6.2049e-05
1.29402e-05
5.88084e-05
1.29583e-05
5.55637e-05
1.29752e-05
5.2315e-05
1.29911e-05
4.90626e-05
1.30059e-05
4.58068e-05
1.30196e-05
4.25479e-05
1.30324e-05
3.9286e-05
1.30441e-05
3.60214e-05
1.30549e-05
3.27544e-05
1.30648e-05
2.94852e-05
1.30736e-05
2.6214e-05
1.30816e-05
2.2941e-05
1.30886e-05
1.96665e-05
1.30948e-05
1.63908e-05
1.31e-05
1.31139e-05
1.31044e-05
9.83618e-06
1.31078e-05
6.55781e-06
1.31104e-05
3.27901e-06
1.31122e-05
1.3113e-05
3.36459e-06
-1.68162e-05
6.72896e-06
-1.6815e-05
1.00929e-05
-1.68128e-05
1.34561e-05
-1.68094e-05
1.68185e-05
-1.68049e-05
2.01798e-05
-1.67993e-05
2.35397e-05
-1.67925e-05
2.6898e-05
-1.67846e-05
3.02545e-05
-1.67754e-05
3.3609e-05
-1.67651e-05
3.69612e-05
-1.67535e-05
4.03109e-05
-1.67408e-05
4.36578e-05
-1.67267e-05
4.70016e-05
-1.67114e-05
5.03422e-05
-1.66948e-05
5.36792e-05
-1.66768e-05
5.70124e-05
-1.66575e-05
6.03415e-05
-1.66368e-05
6.36662e-05
-1.66146e-05
6.69862e-05
-1.6591e-05
7.03012e-05
-1.65658e-05
7.36109e-05
-1.65391e-05
7.69151e-05
-1.65109e-05
8.02133e-05
-1.6481e-05
8.35052e-05
-1.64494e-05
8.67906e-05
-1.64162e-05
9.0069e-05
-1.63812e-05
9.33401e-05
-1.63444e-05
9.66035e-05
-1.63057e-05
9.98588e-05
-1.62651e-05
0.000103106
-1.62226e-05
0.000106344
-1.61782e-05
0.000109573
-1.61316e-05
0.000112792
-1.6083e-05
0.000116001
-1.60322e-05
0.0001192
-1.59793e-05
0.000122387
-1.59241e-05
0.000125563
-1.58666e-05
0.000128727
-1.58067e-05
0.000131879
-1.57445e-05
0.000135018
-1.56798e-05
0.000138144
-1.56126e-05
0.000141256
-1.55429e-05
0.000144353
-1.54705e-05
0.000147435
-1.53955e-05
0.000150502
-1.53178e-05
0.000153553
-1.52374e-05
0.000156587
-1.51542e-05
0.000159604
-1.50682e-05
0.000162603
-1.49792e-05
0.000165585
-1.48874e-05
0.000168547
-1.47926e-05
0.000171489
-1.46949e-05
0.000174412
-1.45941e-05
0.000177313
-1.44902e-05
0.000180194
-1.43832e-05
0.000183052
-1.42731e-05
0.000185888
-1.41599e-05
0.000188701
-1.40435e-05
0.000191489
-1.39239e-05
0.000194253
-1.38011e-05
0.000196992
-1.3675e-05
0.000199705
-1.35457e-05
0.000202392
-1.34132e-05
0.000205051
-1.32774e-05
0.000207683
-1.31383e-05
0.000210286
-1.29959e-05
0.00021286
-1.28503e-05
0.000215404
-1.27014e-05
0.000217918
-1.25492e-05
0.0002204
-1.23938e-05
0.000222851
-1.22352e-05
0.00022527
-1.20733e-05
0.000227655
-1.19083e-05
0.000230007
-1.174e-05
0.000232324
-1.15686e-05
0.000234607
-1.13942e-05
0.000236854
-1.12166e-05
0.000239065
-1.1036e-05
0.000241239
-1.08523e-05
0.000243375
-1.06657e-05
0.000245474
-1.04762e-05
0.000247534
-1.02838e-05
0.000249555
-1.00886e-05
0.000251537
-9.89067e-06
0.000253478
-9.68999e-06
0.000255378
-9.48666e-06
0.000257237
-9.28073e-06
0.000259055
-9.07228e-06
0.00026083
-8.86137e-06
0.000262562
-8.64806e-06
0.000264252
-8.43242e-06
0.000265897
-8.21453e-06
0.000267498
-7.99445e-06
0.000269055
-7.77226e-06
0.000270567
-7.54804e-06
0.000272034
-7.32185e-06
0.000273455
-7.09378e-06
0.00027483
-6.8639e-06
0.000276158
-6.6323e-06
0.00027744
-6.39904e-06
0.000278674
-6.16421e-06
0.000279862
-5.9279e-06
0.000281001
-5.69016e-06
0.000282093
-5.4511e-06
0.000283137
-5.21078e-06
0.000284132
-4.96928e-06
0.000285078
-4.72669e-06
0.000285976
-4.48308e-06
0.000286825
-4.23853e-06
0.000287624
-3.99312e-06
0.000288375
-3.74692e-06
0.000289075
-3.5e-06
0.000289727
-3.25245e-06
0.000290328
-3.00434e-06
0.00029088
-2.75573e-06
0.000291381
-2.50671e-06
0.000291833
-2.25733e-06
0.000292235
-2.00768e-06
0.000292587
-1.75782e-06
0.000292888
-1.50782e-06
0.00029314
-1.25775e-06
0.000293341
-1.00766e-06
0.000293493
-7.57634e-07
0.000293594
-5.07724e-07
0.000293645
-2.57997e-07
0.000293647
-8.51314e-09
0.000293598
2.40665e-07
0.0002935
4.89479e-07
0.000293352
7.37868e-07
0.000293154
9.85775e-07
0.000292906
1.23314e-06
0.00029261
1.47991e-06
0.000292264
1.72602e-06
0.000291868
1.97143e-06
0.000291424
2.21606e-06
0.000290931
2.45988e-06
0.00029039
2.70282e-06
0.000289799
2.94483e-06
0.000289161
3.18586e-06
0.000288474
3.42585e-06
0.00028774
3.66475e-06
0.000286958
3.9025e-06
0.000286129
4.13905e-06
0.000285252
4.37436e-06
0.000284329
4.60836e-06
0.000283359
4.841e-06
0.000282343
5.07224e-06
0.000281281
5.30201e-06
0.000280173
5.53027e-06
0.00027902
5.75696e-06
0.000277821
5.98204e-06
0.000276578
6.20544e-06
0.00027529
6.42711e-06
0.000273959
6.64702e-06
0.000272584
6.86509e-06
0.000271165
7.08129e-06
0.000269703
7.29556e-06
0.000268199
7.50786e-06
0.000266653
7.71812e-06
0.000265066
7.9263e-06
0.000263436
8.13236e-06
0.000261767
8.33625e-06
0.000260056
8.53791e-06
0.000258306
8.7373e-06
0.000256516
8.93439e-06
0.000254688
9.12911e-06
0.00025282
9.32143e-06
0.000250915
9.51131e-06
0.000248972
9.6987e-06
0.000246993
9.88357e-06
0.000244976
1.00659e-05
0.000242924
1.02456e-05
0.000240836
1.04227e-05
0.000238714
1.05971e-05
0.000236557
1.07688e-05