/*--------------------------------*- C++ -*----------------------------------*\
| =========                 |                                                 |
| \\      /  F ield         | OpenFOAM: The Open Source CFD Toolbox           |
|  \\    /   O peration     | Version:  v2012                                 |
|   \\  /    A nd           | Website:  www.openfoam.com                      |
|    \\/     M anipulation  |                                                 |
\*---------------------------------------------------------------------------*/
FoamFile
{
    version     2.0;
    format      ascii;
    class       volScalarField;
    location    "0.8";
    object      W;
}
// * * * * * * * * * * * * * * * * * * * * * * * * * * * * * * * * * * * * * //

dimensions      [0 0 -1 0 0 0 0];


internalField   nonuniform List<scalar> 
65536
(
4.34853e-22
1.27455e-21
2.13094e-21
3.12934e-21
4.41573e-21
6.14621e-21
8.50276e-21
1.17151e-20
1.60839e-20
2.20061e-20
3.00065e-20
4.07763e-20
5.52232e-20
7.45342e-20
1.00256e-19
1.34394e-19
1.79543e-19
2.39041e-19
3.17171e-19
4.194e-19
5.52686e-19
7.2584e-19
9.49985e-19
1.23909e-18
1.61065e-18
2.08646e-18
2.69358e-18
3.46542e-18
4.44316e-18
5.67721e-18
7.22911e-18
9.17363e-18
1.16012e-17
1.46207e-17
1.83629e-17
2.29834e-17
2.86677e-17
3.56347e-17
4.41423e-17
5.44927e-17
6.70381e-17
8.21875e-17
1.00413e-16
1.22256e-16
1.48337e-16
1.79361e-16
2.16124e-16
2.59522e-16
3.10557e-16
3.70342e-16
4.40108e-16
5.21206e-16
6.1511e-16
7.23417e-16
8.47845e-16
9.90229e-16
1.15251e-15
1.33673e-15
1.54501e-15
1.77954e-15
2.04255e-15
2.33627e-15
2.66293e-15
3.02469e-15
3.42364e-15
3.86169e-15
4.34059e-15
4.86187e-15
5.42672e-15
6.03604e-15
6.6903e-15
7.38953e-15
8.13326e-15
8.92049e-15
9.74961e-15
1.06184e-14
1.1524e-14
1.24629e-14
1.3431e-14
1.44232e-14
1.54343e-14
1.64579e-14
1.74876e-14
1.85161e-14
1.95358e-14
2.05387e-14
2.15167e-14
2.24614e-14
2.33645e-14
2.42176e-14
2.50126e-14
2.5742e-14
2.63983e-14
2.6975e-14
2.74661e-14
2.78664e-14
2.81716e-14
2.83786e-14
2.84851e-14
2.849e-14
2.83933e-14
2.8196e-14
2.79005e-14
2.75101e-14
2.70291e-14
2.64628e-14
2.58177e-14
2.51006e-14
2.43194e-14
2.34824e-14
2.25984e-14
2.16767e-14
2.07265e-14
1.97576e-14
1.87793e-14
1.78011e-14
1.68322e-14
1.58815e-14
1.49576e-14
1.40686e-14
1.32221e-14
1.24251e-14
1.16841e-14
1.10051e-14
1.03932e-14
9.85304e-15
9.38868e-15
9.00345e-15
8.70008e-15
8.48068e-15
8.34672e-15
8.29907e-15
8.33799e-15
8.4631e-15
8.67342e-15
8.96734e-15
9.34261e-15
9.79638e-15
1.03251e-14
1.09246e-14
1.159e-14
1.2316e-14
1.30962e-14
1.3924e-14
1.47921e-14
1.56925e-14
1.66167e-14
1.75559e-14
1.85008e-14
1.94418e-14
2.03691e-14
2.1273e-14
2.21435e-14
2.2971e-14
2.37461e-14
2.44599e-14
2.51039e-14
2.56705e-14
2.61528e-14
2.65447e-14
2.68412e-14
2.70386e-14
2.71341e-14
2.71262e-14
2.70147e-14
2.68005e-14
2.64857e-14
2.60738e-14
2.55692e-14
2.49774e-14
2.43046e-14
2.35581e-14
2.27458e-14
2.18758e-14
2.09571e-14
1.99985e-14
1.9009e-14
1.79977e-14
1.69733e-14
1.59444e-14
1.49188e-14
1.39043e-14
1.29076e-14
1.19351e-14
1.09922e-14
1.00837e-14
9.21369e-15
8.38533e-15
7.60113e-15
6.86288e-15
6.17168e-15
5.52799e-15
4.93169e-15
4.38216e-15
3.8783e-15
3.41866e-15
3.00144e-15
2.62458e-15
2.28584e-15
1.98284e-15
1.7131e-15
1.47411e-15
1.26336e-15
1.07838e-15
9.16789e-16
7.7627e-16
6.5464e-16
5.49842e-16
4.59958e-16
3.83214e-16
3.17986e-16
2.62795e-16
2.16305e-16
1.7732e-16
1.44773e-16
1.17722e-16
9.53377e-17
7.68973e-17
6.17725e-17
4.94215e-17
3.93799e-17
3.12513e-17
2.47001e-17
1.9443e-17
1.52428e-17
1.19015e-17
9.25494e-18
7.16769e-18
5.52866e-18
4.24713e-18
3.24941e-18
2.47599e-18
1.879e-18
1.42017e-18
1.06903e-18
8.01438e-19
5.98393e-19
4.44978e-19
3.29553e-19
2.43079e-19
1.78568e-19
1.30646e-19
9.51975e-20
6.90861e-20
4.99336e-20
3.59444e-20
2.57696e-20
1.84001e-20
1.30848e-20
9.26654e-21
6.53342e-21
4.57933e-21
3.17109e-21
2.11846e-21
1.25116e-21
4.24382e-22
1.35118e-21
3.96609e-21
6.63693e-21
9.75003e-21
1.37585e-20
1.91485e-20
2.64864e-20
3.64873e-20
5.0086e-20
6.85173e-20
9.34125e-20
1.26921e-19
1.71862e-19
2.31927e-19
3.11919e-19
4.18072e-19
5.58444e-19
7.43405e-19
9.86254e-19
1.30397e-18
1.71815e-18
2.25617e-18
2.95253e-18
3.85061e-18
5.00469e-18
6.48241e-18
8.36771e-18
1.07643e-17
1.37999e-17
1.76309e-17
2.24482e-17
2.84836e-17
3.60177e-17
4.53881e-17
5.69999e-17
7.13363e-17
8.89716e-17
1.10585e-16
1.36976e-16
1.6908e-16
2.07991e-16
2.54975e-16
3.11494e-16
3.7923e-16
4.60102e-16
5.56294e-16
6.70275e-16
8.04821e-16
9.63034e-16
1.14837e-15
1.36463e-15
1.61601e-15
1.90707e-15
2.24276e-15
2.6284e-15
3.06968e-15
3.57261e-15
4.14352e-15
4.78897e-15
5.51575e-15
6.33075e-15
7.24092e-15
8.25313e-15
9.37411e-15
1.06103e-14
1.19676e-14
1.34515e-14
1.50666e-14
1.68168e-14
1.87048e-14
2.0732e-14
2.28986e-14
2.5203e-14
2.76422e-14
3.02113e-14
3.29033e-14
3.57095e-14
3.86189e-14
4.16185e-14
4.46933e-14
4.78264e-14
5.09987e-14
5.41897e-14
5.73772e-14
6.05375e-14
6.36461e-14
6.66775e-14
6.96059e-14
7.24054e-14
7.50502e-14
7.75154e-14
7.9777e-14
8.18125e-14
8.36014e-14
8.5125e-14
8.63675e-14
8.73155e-14
8.79591e-14
8.82913e-14
8.83086e-14
8.80109e-14
8.74018e-14
8.6488e-14
8.52798e-14
8.3791e-14
8.20378e-14
8.00398e-14
7.78188e-14
7.53987e-14
7.28054e-14
7.00662e-14
6.72096e-14
6.42647e-14
6.12609e-14
5.82279e-14
5.51948e-14
5.21901e-14
4.92414e-14
4.63752e-14
4.36166e-14
4.09892e-14
3.85147e-14
3.62133e-14
3.41031e-14
3.22005e-14
3.05196e-14
2.90729e-14
2.78708e-14
2.69217e-14
2.6232e-14
2.58064e-14
2.56475e-14
2.57561e-14
2.6131e-14
2.67692e-14
2.76657e-14
2.88136e-14
3.0204e-14
3.1826e-14
3.36668e-14
3.57113e-14
3.79427e-14
4.03421e-14
4.28886e-14
4.55596e-14
4.83306e-14
5.11757e-14
5.40673e-14
5.69769e-14
5.9875e-14
6.27315e-14
6.55159e-14
6.8198e-14
7.0748e-14
7.3137e-14
7.53373e-14
7.7323e-14
7.90704e-14
8.05581e-14
8.17676e-14
8.26837e-14
8.32942e-14
8.3591e-14
8.35692e-14
8.32281e-14
8.25706e-14
8.16034e-14
8.03367e-14
7.87843e-14
7.69629e-14
7.48921e-14
7.2594e-14
7.00927e-14
6.74138e-14
6.45843e-14
6.16317e-14
5.85839e-14
5.54686e-14
5.23129e-14
4.91427e-14
4.59831e-14
4.2857e-14
3.97859e-14
3.6789e-14
3.38834e-14
3.10837e-14
2.84023e-14
2.58492e-14
2.34322e-14
2.11568e-14
1.90263e-14
1.70421e-14
1.52041e-14
1.35101e-14
1.19569e-14
1.05399e-14
9.25368e-15
8.09188e-15
7.04758e-15
6.11343e-15
5.2818e-15
4.54497e-15
3.89521e-15
3.3249e-15
2.82667e-15
2.39342e-15
2.01841e-15
1.69529e-15
1.41815e-15
1.18153e-15
9.80413e-16
8.10242e-16
6.669e-16
5.46698e-16
4.46347e-16
3.62942e-16
2.93927e-16
2.37071e-16
1.90439e-16
1.52359e-16
1.214e-16
9.63394e-17
7.6142e-17
5.99349e-17
4.69861e-17
3.66855e-17
2.85268e-17
2.20925e-17
1.70401e-17
1.30898e-17
1.00144e-17
7.63053e-18
5.7905e-18
4.37634e-18
3.29413e-18
2.46947e-18
1.84374e-18
1.37098e-18
1.0153e-18
7.48849e-19
5.50083e-19
4.02436e-19
2.93225e-19
2.12785e-19
1.53786e-19
1.10695e-19
7.93551e-20
5.66577e-20
4.02878e-20
2.85295e-20
2.01132e-20
1.4096e-20
9.75918e-21
6.51671e-21
3.84524e-21
1.30247e-21
2.50225e-21
7.35165e-21
1.23103e-20
1.80894e-20
2.55271e-20
3.55245e-20
4.9132e-20
6.76746e-20
9.28843e-20
1.27048e-19
1.73187e-19
2.35281e-19
3.18553e-19
4.2983e-19
5.78008e-19
7.74624e-19
1.03459e-18
1.37709e-18
1.82673e-18
2.41493e-18
3.18163e-18
4.17744e-18
5.4662e-18
7.12812e-18
9.26353e-18
1.19975e-17
1.54852e-17
1.99183e-17
2.55328e-17
3.26178e-17
4.15259e-17
5.26855e-17
6.66148e-17
8.39377e-17
1.05402e-16
1.31901e-16
1.64494e-16
2.04435e-16
2.53201e-16
3.1252e-16
3.84408e-16
4.71203e-16
5.75605e-16
7.00716e-16
8.50078e-16
1.02772e-15
1.23819e-15
1.48662e-15
1.77873e-15
2.12087e-15
2.52008e-15
2.98408e-15
3.52129e-15
4.14081e-15
4.85246e-15
5.66672e-15
6.59466e-15
7.64793e-15
8.83865e-15
1.01793e-14
1.16825e-14
1.33611e-14
1.52278e-14
1.72949e-14
1.95742e-14
2.20767e-14
2.48123e-14
2.77896e-14
3.10156e-14
3.44952e-14
3.8231e-14
4.22233e-14
4.64693e-14
5.09632e-14
5.56958e-14
6.06545e-14
6.58228e-14
7.11806e-14
7.6704e-14
8.23652e-14
8.81329e-14
9.39721e-14
9.98449e-14
1.0571e-13
1.11525e-13
1.17243e-13
1.22819e-13
1.28204e-13
1.33351e-13
1.38212e-13
1.42741e-13
1.46896e-13
1.50633e-13
1.53915e-13
1.56709e-13
1.58985e-13
1.60718e-13
1.61891e-13
1.62491e-13
1.6251e-13
1.61951e-13
1.60818e-13
1.59124e-13
1.5689e-13
1.54139e-13
1.50902e-13
1.47216e-13
1.43119e-13
1.38657e-13
1.33878e-13
1.2883e-13
1.23567e-13
1.18142e-13
1.1261e-13
1.07024e-13
1.01439e-13
9.59062e-14
9.04769e-14
8.51996e-14
8.01202e-14
7.52819e-14
7.07248e-14
6.64855e-14
6.25974e-14
5.90901e-14
5.59897e-14
5.33188e-14
5.10963e-14
4.93374e-14
4.80539e-14
4.7254e-14
4.69425e-14
4.71205e-14
4.77859e-14
4.89328e-14
5.0552e-14
5.26308e-14
5.51525e-14
5.80974e-14
6.14416e-14
6.51578e-14
6.92151e-14
7.35787e-14
7.82107e-14
8.30694e-14
8.81103e-14
9.32859e-14
9.8546e-14
1.03839e-13
1.0911e-13
1.14305e-13
1.19368e-13
1.24244e-13
1.28879e-13
1.33221e-13
1.37218e-13
1.40824e-13
1.43996e-13
1.46695e-13
1.48887e-13
1.50545e-13
1.51646e-13
1.52176e-13
1.52126e-13
1.51495e-13
1.50288e-13
1.48518e-13
1.46204e-13
1.43369e-13
1.40046e-13
1.3627e-13
1.3208e-13
1.27521e-13
1.2264e-13
1.17486e-13
1.12108e-13
1.06558e-13
1.00886e-13
9.51409e-14
8.93705e-14
8.36197e-14
7.79309e-14
7.23425e-14
6.68897e-14
6.16035e-14
5.65104e-14
5.1633e-14
4.69894e-14
4.25936e-14
3.84555e-14
3.45813e-14
3.09736e-14
2.76316e-14
2.45518e-14
2.17282e-14
1.91524e-14
1.68144e-14
1.47027e-14
1.28047e-14
1.1107e-14
9.59564e-15
8.25667e-15
7.07597e-15
6.03972e-15
5.13447e-15
4.34732e-15
3.66601e-15
3.07901e-15
2.57557e-15
2.14575e-15
1.78043e-15
1.47134e-15
1.211e-15
9.9269e-16
8.10443e-16
6.58977e-16
5.3365e-16
4.30407e-16
3.45732e-16
2.7659e-16
2.20379e-16
1.74879e-16
1.38211e-16
1.08788e-16
8.52816e-17
6.6583e-17
5.17732e-17
4.00942e-17
3.09237e-17
2.37539e-17
1.81724e-17
1.38459e-17
1.05067e-17
7.94043e-18
5.97662e-18
4.48023e-18
3.34487e-18
2.48709e-18
1.84178e-18
1.35837e-18
9.97775e-19
7.29932e-19
5.31823e-19
3.8591e-19
2.78896e-19
2.0074e-19
1.439e-19
1.02736e-19
7.30495e-20
5.17268e-20
3.64653e-20
2.55541e-20
1.76897e-20
1.1809e-20
6.96432e-21
2.35722e-21
4.18567e-21
1.23033e-20
2.06087e-20
3.0288e-20
4.27418e-20
5.94779e-20
8.22542e-20
1.13287e-19
1.55475e-19
2.12642e-19
2.89841e-19
3.93725e-19
5.33027e-19
7.19165e-19
9.67005e-19
1.29583e-18
1.73057e-18
2.30329e-18
3.0551e-18
4.0385e-18
5.32023e-18
6.98483e-18
9.13895e-18
1.19165e-17
1.54852e-17
2.00538e-17
2.58814e-17
3.32881e-17
4.26679e-17
5.45033e-17
6.93829e-17
8.80217e-17
1.11285e-16
1.40212e-16
1.76053e-16
2.20296e-16
2.74709e-16
3.41385e-16
4.22784e-16
5.21789e-16
6.41762e-16
7.86599e-16
9.60802e-16
1.16954e-15
1.41871e-15
1.71503e-15
2.06609e-15
2.4804e-15
2.96751e-15
3.53801e-15
4.20359e-15
4.9771e-15
5.87255e-15
6.9051e-15
8.09107e-15
9.44786e-15
1.09939e-14
1.27486e-14
1.47319e-14
1.69647e-14
1.9468e-14
2.2263e-14
2.53707e-14
2.88115e-14
3.26051e-14
3.67695e-14
4.13212e-14
4.62743e-14
5.16401e-14
5.74269e-14
6.36388e-14
7.02759e-14
7.73336e-14
8.48019e-14
9.26655e-14
1.00903e-13
1.09487e-13
1.18384e-13
1.27553e-13
1.36949e-13
1.4652e-13
1.56207e-13
1.65946e-13
1.7567e-13
1.85307e-13
1.94781e-13
2.04015e-13
2.12929e-13
2.21445e-13
2.29483e-13
2.36969e-13
2.43829e-13
2.49994e-13
2.55403e-13
2.59998e-13
2.63733e-13
2.66566e-13
2.68469e-13
2.6942e-13
2.69409e-13
2.68437e-13
2.66515e-13
2.63665e-13
2.59919e-13
2.55319e-13
2.49915e-13
2.43768e-13
2.36944e-13
2.29517e-13
2.21566e-13
2.13174e-13
2.04428e-13
1.95418e-13
1.86232e-13
1.76962e-13
1.67694e-13
1.58517e-13
1.49513e-13
1.40763e-13
1.32343e-13
1.24323e-13
1.1677e-13
1.09744e-13
1.03299e-13
9.74847e-14
9.23432e-14
8.79113e-14
8.42197e-14
8.12933e-14
7.91508e-14
7.78055e-14
7.72645e-14
7.75295e-14
7.85963e-14
8.04549e-14
8.30896e-14
8.6479e-14
9.05956e-14
9.54061e-14
1.00871e-13
1.06945e-13
1.13578e-13
1.20711e-13
1.28283e-13
1.36224e-13
1.44462e-13
1.52918e-13
1.6151e-13
1.70153e-13
1.78758e-13
1.87236e-13
1.95496e-13
2.03447e-13
2.11001e-13
2.18071e-13
2.24577e-13
2.30441e-13
2.35593e-13
2.39969e-13
2.43516e-13
2.46187e-13
2.47948e-13
2.48775e-13
2.48655e-13
2.47585e-13
2.45575e-13
2.42646e-13
2.38828e-13
2.34163e-13
2.28702e-13
2.22502e-13
2.1563e-13
2.08157e-13
2.00162e-13
1.91722e-13
1.82921e-13
1.73842e-13
1.64566e-13
1.55174e-13
1.45743e-13
1.36347e-13
1.27055e-13
1.17929e-13
1.09027e-13
1.00398e-13
9.20867e-14
8.41287e-14
7.65538e-14
6.93844e-14
6.26366e-14
5.63201e-14
5.0439e-14
4.4992e-14
3.99731e-14
3.53723e-14
3.1176e-14
2.73676e-14
2.39282e-14
2.08373e-14
1.80729e-14
1.56124e-14
1.34326e-14
1.15108e-14
9.82428e-15
8.35111e-15
7.07028e-15
5.96177e-15
5.0068e-15
4.18784e-15
3.48871e-15
2.89455e-15
2.39189e-15
1.96853e-15
1.61356e-15
1.31725e-15
1.071e-15
8.6726e-16
6.99437e-16
5.61804e-16
4.49427e-16
3.58071e-16
2.8413e-16
2.24543e-16
1.76733e-16
1.38539e-16
1.08159e-16
8.40978e-17
6.51243e-17
5.02268e-17
3.858e-17
2.95137e-17
2.24863e-17
1.70627e-17
1.28947e-17
9.70528e-18
7.27511e-18
5.43131e-18
4.03836e-18
2.99046e-18
2.2055e-18
1.61999e-18
1.18509e-18
8.63423e-19
6.26518e-19
4.52771e-19
3.25882e-19
2.33603e-19
1.66776e-19
1.18582e-19
8.3967e-20
5.91922e-20
4.14797e-20
2.87131e-20
1.91665e-20
1.13019e-20
3.82473e-21
6.8184e-21
2.00466e-20
3.35852e-20
4.93628e-20
6.96599e-20
9.69324e-20
1.34044e-19
1.84607e-19
2.53338e-19
3.46468e-19
4.72223e-19
6.41438e-19
8.68331e-19
1.17149e-18
1.57512e-18
2.11061e-18
2.81852e-18
3.75106e-18
4.97513e-18
6.57615e-18
8.66273e-18
1.13724e-17
1.48788e-17
1.93996e-17
2.52077e-17
3.26425e-17
4.21256e-17
5.41776e-17
6.94388e-17
8.8694e-17
1.129e-16
1.43219e-16
1.81057e-16
2.28106e-16
2.86393e-16
3.58338e-16
4.46815e-16
5.55221e-16
6.87553e-16
8.48495e-16
1.0435e-15
1.2789e-15
1.562e-15
1.90119e-15
2.30605e-15
2.78746e-15
3.35774e-15
4.0307e-15
4.82182e-15
5.74825e-15
6.82898e-15
8.0848e-15
9.53841e-15
1.12144e-14
1.31391e-14
1.53408e-14
1.78492e-14
2.06957e-14
2.39128e-14
2.75339e-14
3.1593e-14
3.61245e-14
4.11621e-14
4.67388e-14
5.28861e-14
5.96332e-14
6.70064e-14
7.50284e-14
8.37172e-14
9.30856e-14
1.0314e-13
1.13881e-13
1.253e-13
1.3738e-13
1.50096e-13
1.63414e-13
1.77288e-13
1.91665e-13
2.06477e-13
2.21651e-13
2.37102e-13
2.52734e-13
2.68447e-13
2.84129e-13
2.99663e-13
3.14928e-13
3.29798e-13
3.44146e-13
3.57844e-13
3.70765e-13
3.82786e-13
3.93792e-13
4.03672e-13
4.12324e-13
4.19661e-13
4.25604e-13
4.3009e-13
4.33071e-13
4.34516e-13
4.34409e-13
4.32751e-13
4.29562e-13
4.24878e-13
4.18751e-13
4.11251e-13
4.02459e-13
3.92473e-13
3.81401e-13
3.69363e-13
3.56486e-13
3.42906e-13
3.28763e-13
3.14199e-13
2.9936e-13
2.8439e-13
2.69432e-13
2.54625e-13
2.40103e-13
2.25996e-13
2.12423e-13
1.99499e-13
1.8733e-13
1.76011e-13
1.65629e-13
1.56263e-13
1.47979e-13
1.40835e-13
1.34881e-13
1.30154e-13
1.26685e-13
1.24493e-13
1.23589e-13
1.23975e-13
1.25642e-13
1.28575e-13
1.32747e-13
1.38122e-13
1.44657e-13
1.52298e-13
1.6098e-13
1.7063e-13
1.81168e-13
1.92499e-13
2.04525e-13
2.17135e-13
2.30212e-13
2.43632e-13
2.57263e-13
2.70968e-13
2.84609e-13
2.9804e-13
3.11119e-13
3.23702e-13
3.35647e-13
3.4682e-13
3.5709e-13
3.66335e-13
3.74445e-13
3.8132e-13
3.86874e-13
3.91036e-13
3.93752e-13
3.94984e-13
3.94712e-13
3.92934e-13
3.89665e-13
3.8494e-13
3.78808e-13
3.71336e-13
3.62604e-13
3.52707e-13
3.41748e-13
3.29843e-13
3.17113e-13
3.03687e-13
2.89693e-13
2.75264e-13
2.6053e-13
2.45618e-13
2.30651e-13
2.15744e-13
2.01007e-13
1.86539e-13
1.72429e-13
1.58757e-13
1.45592e-13
1.32989e-13
1.20996e-13
1.09648e-13
9.89703e-14
8.8977e-14
7.96745e-14
7.10604e-14
6.31251e-14
5.58522e-14
4.92199e-14
4.32018e-14
3.77678e-14
3.28852e-14
2.85191e-14
2.46335e-14
2.11919e-14
1.8158e-14
1.54959e-14
1.31709e-14
1.11497e-14
9.4007e-15
7.89412e-15
6.60228e-15
5.49958e-15
4.56257e-15
3.76993e-15
3.10241e-15
2.54278e-15
2.07567e-15
1.68752e-15
1.3664e-15
1.10192e-15
8.85031e-16
7.07955e-16
5.64015e-16
4.47521e-16
3.5365e-16
2.78336e-16
2.18174e-16
1.70322e-16
1.32427e-16
1.02545e-16
7.90845e-17
6.07439e-17
4.64674e-17
3.54021e-17
2.68624e-17
2.03e-17
1.52785e-17
1.14526e-17
8.54985e-18
6.35696e-18
4.70734e-18
3.47166e-18
2.54997e-18
1.86538e-18
1.35905e-18
9.86148e-19
7.12663e-19
5.12937e-19
3.67689e-19
2.62502e-19
1.86646e-19
1.32163e-19
9.31679e-20
6.52893e-20
4.51958e-20
3.01707e-20
1.77926e-20
6.02203e-21
1.10088e-20
3.23718e-20
5.42407e-20
7.97257e-20
1.12507e-19
1.56549e-19
2.16477e-19
2.9812e-19
4.09094e-19
5.59454e-19
7.62477e-19
1.03565e-18
1.40192e-18
1.89127e-18
2.54276e-18
3.40704e-18
4.54955e-18
6.0545e-18
8.02982e-18
1.06133e-17
1.39801e-17
1.8352e-17
2.40089e-17
3.13022e-17
4.06714e-17
5.26642e-17
6.79598e-17
8.73974e-17
1.12009e-16
1.4306e-16
1.82092e-16
2.30978e-16
2.91982e-16
3.67831e-16
4.61789e-16
5.77755e-16
7.20356e-16
8.95063e-16
1.10831e-15
1.36764e-15
1.68183e-15
2.06106e-15
2.5171e-15
3.06343e-15
3.71547e-15
4.49072e-15
5.40897e-15
6.49246e-15
7.76603e-15
9.25727e-15
1.09966e-14
1.30176e-14
1.53565e-14
1.80529e-14
2.11491e-14
2.46903e-14
2.87243e-14
3.33013e-14
3.84734e-14
4.42942e-14
5.08181e-14
5.80999e-14
6.61937e-14
7.5152e-14
8.50252e-14
9.58597e-14
1.07697e-13
1.20574e-13
1.34518e-13
1.4955e-13
1.65679e-13
1.82905e-13
2.01214e-13
2.20579e-13
2.40959e-13
2.62296e-13
2.8452e-13
3.0754e-13
3.31252e-13
3.55534e-13
3.80251e-13
4.0525e-13
4.30367e-13
4.55425e-13
4.80236e-13
5.04605e-13
5.2833e-13
5.51209e-13
5.73036e-13
5.93609e-13
6.12734e-13
6.30223e-13
6.45901e-13
6.59609e-13
6.71204e-13
6.80565e-13
6.87591e-13
6.92207e-13
6.94364e-13
6.94039e-13
6.91235e-13
6.85987e-13
6.78352e-13
6.68416e-13
6.56291e-13
6.4211e-13
6.2603e-13
6.08225e-13
5.88886e-13
5.68219e-13
5.4644e-13
5.23772e-13
5.00446e-13
4.76692e-13
4.5274e-13
4.28818e-13
4.05147e-13
3.81942e-13
3.59406e-13
3.37732e-13
3.17099e-13
2.97676e-13
2.79613e-13
2.63047e-13
2.48102e-13
2.34882e-13
2.23479e-13
2.13968e-13
2.0641e-13
2.00849e-13
1.97316e-13
1.95826e-13
1.9638e-13
1.98965e-13
2.03552e-13
2.10099e-13
2.18548e-13
2.28828e-13
2.40851e-13
2.54516e-13
2.69706e-13
2.8629e-13
3.04122e-13
3.23042e-13
3.42876e-13
3.63438e-13
3.84532e-13
4.05949e-13
4.27474e-13
4.48887e-13
4.6996e-13
4.90468e-13
5.10185e-13
5.28889e-13
5.46368e-13
5.62416e-13
5.76845e-13
5.8948e-13
6.00166e-13
6.0877e-13
6.15181e-13
6.19315e-13
6.21115e-13
6.2055e-13
6.17619e-13
6.12348e-13
6.04792e-13
5.95031e-13
5.8317e-13
5.69337e-13
5.53681e-13
5.36367e-13
5.17577e-13
4.97502e-13
4.76343e-13
4.54304e-13
4.31592e-13
4.08411e-13
3.84962e-13
3.61435e-13
3.38014e-13
3.14867e-13
2.92151e-13
2.70005e-13
2.48553e-13
2.27901e-13
2.08139e-13
1.89338e-13
1.71553e-13
1.54821e-13
1.39167e-13
1.24598e-13
1.1111e-13
9.86881e-14
8.73053e-14
7.69271e-14
6.7512e-14
5.90124e-14
5.13765e-14
4.45497e-14
3.84752e-14
3.30958e-14
2.83543e-14
2.41945e-14
2.05621e-14
1.74048e-14
1.46731e-14
1.23203e-14
1.03031e-14
8.58147e-15
7.11872e-15
5.88148e-15
4.83968e-15
3.96633e-15
3.23746e-15
2.63185e-15
2.13089e-15
1.71831e-15
1.38e-15
1.10382e-15
8.79343e-16
6.97679e-16
5.51304e-16
4.33875e-16
3.40076e-16
2.65476e-16
2.064e-16
1.5982e-16
1.23251e-16
9.46642e-17
7.24131e-17
5.51677e-17
4.18589e-17
3.16321e-17
2.38069e-17
1.78449e-17
1.33218e-17
9.90481e-18
7.33443e-18
5.40907e-18
3.97297e-18
2.90633e-18
2.11745e-18
1.53644e-18
1.11035e-18
7.99167e-19
5.72869e-19
4.08988e-19
2.90803e-19
2.05917e-19
1.45163e-19
1.01728e-19
7.04239e-20
4.70169e-20
2.77325e-20
9.38849e-21
1.76859e-20
5.20132e-20
8.71598e-20
1.28117e-19
1.80794e-19
2.51561e-19
3.47845e-19
4.79011e-19
6.57291e-19
8.98833e-19
1.22496e-18
1.66375e-18
2.25204e-18
3.03799e-18
4.0843e-18
5.47228e-18
7.30699e-18
9.7236e-18
1.28953e-17
1.70433e-17
2.24487e-17
2.94675e-17
3.85486e-17
5.02558e-17
6.52945e-17
8.45431e-17
1.09091e-16
1.40285e-16
1.7978e-16
2.29604e-16
2.9223e-16
3.70661e-16
4.68527e-16
5.90197e-16
7.40907e-16
9.26902e-16
1.1556e-15
1.43576e-15
1.7777e-15
2.19348e-15
2.69719e-15
3.30512e-15
4.03609e-15
4.91171e-15
5.95664e-15
7.19891e-15
8.67016e-15
1.0406e-14
1.24461e-14
1.48346e-14
1.76202e-14
2.08563e-14
2.46012e-14
2.89178e-14
3.38738e-14
3.95414e-14
4.59967e-14
5.33199e-14
6.15941e-14
7.09045e-14
8.13379e-14
9.29815e-14
1.05921e-13
1.20241e-13
1.3602e-13
1.53332e-13
1.72243e-13
1.9281e-13
2.15078e-13
2.39078e-13
2.64824e-13
2.92314e-13
3.21526e-13
3.52415e-13
3.84914e-13
4.18932e-13
4.54352e-13
4.91031e-13
5.28802e-13
5.67468e-13
6.06813e-13
6.46593e-13
6.86544e-13
7.26385e-13
7.65816e-13
8.04525e-13
8.42192e-13
8.78492e-13
9.131e-13
9.45695e-13
9.75968e-13
1.00362e-12
1.02838e-12
1.04998e-12
1.06822e-12
1.08288e-12
1.09383e-12
1.10093e-12
1.10412e-12
1.10336e-12
1.09865e-12
1.09006e-12
1.07769e-12
1.06166e-12
1.04216e-12
1.0194e-12
9.93634e-13
9.65143e-13
9.34231e-13
9.01225e-13
8.6647e-13
8.30323e-13
7.93147e-13
7.55309e-13
7.17177e-13
6.7911e-13
6.41458e-13
6.04561e-13
5.6874e-13
5.343e-13
5.01525e-13
4.70677e-13
4.41995e-13
4.15694e-13
3.91966e-13
3.70976e-13
3.52865e-13
3.37751e-13
3.25726e-13
3.16859e-13
3.11195e-13
3.08757e-13
3.09543e-13
3.13529e-13
3.20669e-13
3.30894e-13
3.4411e-13
3.60201e-13
3.7903e-13
4.00434e-13
4.24227e-13
4.50201e-13
4.78125e-13
5.07746e-13
5.38791e-13
5.70965e-13
6.03959e-13
6.37445e-13
6.71087e-13
7.04535e-13
7.37436e-13
7.69435e-13
8.00179e-13
8.29322e-13
8.56529e-13
8.81484e-13
9.03891e-13
9.23477e-13
9.40003e-13
9.53262e-13
9.63084e-13
9.69338e-13
9.71938e-13
9.70839e-13
9.66041e-13
9.57588e-13
9.45567e-13
9.30106e-13
9.11371e-13
8.89565e-13
8.64922e-13
8.37702e-13
8.08189e-13
7.76684e-13
7.43501e-13
7.08961e-13
6.73386e-13
6.37095e-13
6.004e-13
5.63601e-13
5.26981e-13
4.90804e-13
4.55312e-13
4.20723e-13
3.87228e-13
3.54993e-13
3.24156e-13
2.94826e-13
2.67088e-13
2.41e-13
2.16598e-13
1.93893e-13
1.72878e-13
1.53527e-13
1.35799e-13
1.1964e-13
1.04982e-13
9.17529e-14
7.987e-14
6.9248e-14
5.97983e-14
5.14313e-14
4.40577e-14
3.75898e-14
3.19427e-14
2.7035e-14
2.27893e-14
1.91331e-14
1.59989e-14
1.33243e-14
1.1052e-14
9.13038e-15
7.51244e-15
6.15627e-15
5.02456e-15
4.08435e-15
3.30666e-15
2.66623e-15
2.14116e-15
1.71254e-15
1.36418e-15
1.08229e-15
8.55177e-16
6.72987e-16
5.27468e-16
4.11741e-16
3.20104e-16
2.47854e-16
1.91134e-16
1.46797e-16
1.12288e-16
8.55437e-17
6.49052e-17
4.90465e-17
3.69125e-17
2.76679e-17
2.06546e-17
1.53565e-17
1.13712e-17
8.38609e-18
6.15955e-18
4.50584e-18
3.28277e-18
2.38201e-18
1.72142e-18
1.23899e-18
8.8815e-19
6.3408e-19
4.50854e-19
3.19254e-19
2.25064e-19
1.57726e-19
1.09196e-19
7.2911e-20
4.30151e-20
1.45661e-20
2.82931e-20
8.32195e-20
1.39466e-19
2.0501e-19
2.893e-19
4.02526e-19
5.5657e-19
7.66408e-19
1.05161e-18
1.43799e-18
1.95965e-18
2.66149e-18
3.60241e-18
4.8594e-18
6.53271e-18
8.75233e-18
1.16862e-17
1.55503e-17
2.06217e-17
2.72536e-17
3.58953e-17
4.71159e-17
6.16325e-17
8.03461e-17
1.04383e-16
1.35148e-16
1.7438e-16
2.24229e-16
2.8734e-16
3.66951e-16
4.67011e-16
5.92314e-16
7.48655e-16
9.43009e-16
1.18373e-15
1.48079e-15
1.84602e-15
2.29341e-15
2.8394e-15
3.50324e-15
4.30739e-15
5.27784e-15
6.4446e-15
7.8421e-15
9.50966e-15
1.14919e-14
1.38394e-14
1.66086e-14
1.98629e-14
2.36725e-14
2.81151e-14
3.32755e-14
3.92464e-14
4.61279e-14
5.40278e-14
6.30606e-14
7.33477e-14
8.5016e-14
9.81975e-14
1.13028e-13
1.29644e-13
1.48185e-13
1.68786e-13
1.9158e-13
2.16693e-13
2.4424e-13
2.74327e-13
3.07042e-13
3.42455e-13
3.80614e-13
4.21541e-13
4.6523e-13
5.11645e-13
5.60713e-13
6.12326e-13
6.66337e-13
7.22559e-13
7.80763e-13
8.40679e-13
9.01998e-13
9.64372e-13
1.02741e-12
1.0907e-12
1.15379e-12
1.2162e-12
1.27744e-12
1.337e-12
1.39436e-12
1.44901e-12
1.50044e-12
1.54817e-12
1.59172e-12
1.63065e-12
1.66457e-12
1.69313e-12
1.71601e-12
1.73299e-12
1.74387e-12
1.74855e-12
1.74696e-12
1.73913e-12
1.72515e-12
1.70518e-12
1.67943e-12
1.64821e-12
1.61185e-12
1.57074e-12
1.52535e-12
1.47615e-12
1.42365e-12
1.36842e-12
1.31102e-12
1.25201e-12
1.19199e-12
1.13153e-12
1.0712e-12
1.01156e-12
9.53127e-13
8.96422e-13
8.4192e-13
7.90066e-13
7.41272e-13
6.95913e-13
6.54324e-13
6.16803e-13
5.83609e-13
5.5496e-13
5.31037e-13
5.11983e-13
4.97902e-13
4.88862e-13
4.84892e-13
4.85989e-13
4.92111e-13
5.0318e-13
5.19083e-13
5.39673e-13
5.64764e-13
5.94135e-13
6.27528e-13
6.64651e-13
7.05174e-13
7.48733e-13
7.94929e-13
8.43332e-13
8.93481e-13
9.4489e-13
9.97046e-13
1.04942e-12
1.10147e-12
1.15264e-12
1.20238e-12
1.25014e-12
1.29537e-12
1.33756e-12
1.37622e-12
1.41088e-12
1.44113e-12
1.4666e-12
1.48695e-12
1.50194e-12
1.51136e-12
1.51508e-12
1.51304e-12
1.50524e-12
1.49175e-12
1.47271e-12
1.44832e-12
1.41885e-12
1.38461e-12
1.34598e-12
1.30336e-12
1.25718e-12
1.20793e-12
1.1561e-12
1.10218e-12
1.04667e-12
9.90071e-13
9.3287e-13
8.75531e-13
8.18493e-13
7.62166e-13
7.06925e-13
6.53107e-13
6.01008e-13
5.50884e-13
5.02945e-13
4.57363e-13
4.14267e-13
3.73744e-13
3.35849e-13
3.00597e-13
2.67977e-13
2.37947e-13
2.10441e-13
1.85373e-13
1.62641e-13
1.42126e-13
1.23704e-13
1.07238e-13
9.25931e-14
7.96278e-14
6.82037e-14
5.81844e-14
4.94379e-14
4.18377e-14
3.52636e-14
2.96032e-14
2.47514e-14
2.06116e-14
1.70951e-14
1.41214e-14
1.16181e-14
9.51995e-15
7.76929e-15
6.31499e-15
5.1122e-15
4.12179e-15
3.30985e-15
2.64711e-15
2.10852e-15
1.67272e-15
1.32164e-15
1.04002e-15
8.15096e-16
6.36234e-16
4.94612e-16
3.82958e-16
2.95309e-16
2.26799e-16
1.73478e-16
1.32155e-16
1.00268e-16
7.57674e-17
5.70214e-17
4.27398e-17
3.19054e-17
2.37211e-17
1.75648e-17
1.29536e-17
9.51429e-18
6.95987e-18
5.07066e-18
3.67931e-18
2.65894e-18
1.91377e-18
1.37187e-18
9.79429e-19
6.96416e-19
4.93143e-19
3.47656e-19
2.43646e-19
1.68689e-19
1.12649e-19
6.64738e-20
2.25159e-20
4.5078e-20
1.32606e-19
2.22253e-19
3.26714e-19
4.6104e-19
6.4146e-19
8.86907e-19
1.22124e-18
1.67561e-18
2.29117e-18
3.1222e-18
4.2402e-18
5.73898e-18
7.74113e-18
1.04063e-17
1.39413e-17
1.86137e-17
2.47673e-17
3.28429e-17
4.34029e-17
5.71626e-17
7.50272e-17
9.81383e-17
1.27929e-16
1.66193e-16
2.15163e-16
2.77606e-16
3.56945e-16
4.57383e-16
5.84072e-16
7.43291e-16
9.42664e-16
1.19141e-15
1.5006e-15
1.88354e-15
2.35606e-15
2.93697e-15
3.64849e-15
4.51676e-15
5.57236e-15
6.85095e-15
8.39381e-15
1.02486e-14
1.247e-14
1.51204e-14
1.82707e-14
2.20009e-14
2.64009e-14
3.15712e-14
3.7623e-14
4.46793e-14
5.28749e-14
6.23566e-14
7.32831e-14
8.58247e-14
1.00163e-13
1.1649e-13
1.35007e-13
1.55922e-13
1.79449e-13
2.05806e-13
2.35211e-13
2.67879e-13
3.04017e-13
3.43825e-13
3.87485e-13
4.3516e-13
4.8699e-13
5.43082e-13
6.03512e-13
6.68313e-13
7.37472e-13
8.10928e-13
8.88565e-13
9.70209e-13
1.05562e-12
1.14451e-12
1.23651e-12
1.33118e-12
1.42804e-12
1.52653e-12
1.62605e-12
1.72591e-12
1.82542e-12
1.92382e-12
2.02032e-12
2.11413e-12
2.20442e-12
2.2904e-12
2.37125e-12
2.4462e-12
2.51451e-12
2.57551e-12
2.62856e-12
2.67311e-12
2.7087e-12
2.73493e-12
2.75153e-12
2.75832e-12
2.75523e-12
2.7423e-12
2.71967e-12
2.68759e-12
2.64644e-12
2.59665e-12
2.53879e-12
2.47349e-12
2.40146e-12
2.32346e-12
2.24032e-12
2.1529e-12
2.0621e-12
1.96882e-12
1.87399e-12
1.7785e-12
1.68327e-12
1.58915e-12
1.49698e-12
1.40756e-12
1.32165e-12
1.23992e-12
1.16304e-12
1.09158e-12
1.02607e-12
9.66967e-13
9.14673e-13
8.69527e-13
8.31807e-13
8.01731e-13
7.79456e-13
7.65082e-13
7.58652e-13
7.60152e-13
7.69511e-13
7.86603e-13
8.11246e-13
8.43203e-13
8.82178e-13
9.27822e-13
9.79728e-13
1.03743e-12
1.10042e-12
1.16812e-12
1.2399e-12
1.31509e-12
1.39297e-12
1.47278e-12
1.55372e-12
1.63497e-12
1.71567e-12
1.79497e-12
1.87201e-12
1.94592e-12
2.01588e-12
2.08108e-12
2.14076e-12
2.1942e-12
2.24075e-12
2.27984e-12
2.31098e-12
2.33377e-12
2.34791e-12
2.35319e-12
2.34952e-12
2.33691e-12
2.31548e-12
2.28546e-12
2.24715e-12
2.20098e-12
2.14744e-12
2.0871e-12
2.0206e-12
1.94864e-12
1.87194e-12
1.79127e-12
1.70739e-12
1.6211e-12
1.53316e-12
1.44431e-12
1.35529e-12
1.26677e-12
1.17939e-12
1.09372e-12
1.01028e-12
9.29534e-13
8.51869e-13
7.77612e-13
7.07024e-13
6.40301e-13
5.77579e-13
5.18937e-13
4.644e-13
4.13944e-13
3.67504e-13
3.24976e-13
2.86226e-13
2.51092e-13
2.19392e-13
1.9093e-13
1.65496e-13
1.42877e-13
1.22856e-13
1.05218e-13
8.97513e-14
7.62513e-14
6.45221e-14
5.43781e-14
4.56449e-14
3.81603e-14
3.17748e-14
2.63514e-14
2.17658e-14
1.79057e-14
1.46709e-14
1.19721e-14
9.73038e-15
7.87651e-15
6.35014e-15
5.0989e-15
4.07768e-15
3.24782e-15
2.57641e-15
2.03554e-15
1.60171e-15
1.25526e-15
9.79763e-16
7.6164e-16
5.89684e-16
4.54704e-16
3.49203e-16
2.67095e-16
2.03467e-16
1.5437e-16
1.16646e-16
8.7784e-17
6.57962e-17
4.91163e-17
3.65165e-17
2.70391e-17
1.99404e-17
1.46459e-17
1.07137e-17
7.80549e-18
5.66372e-18
4.09302e-18
2.94596e-18
2.11178e-18
1.50769e-18
1.07204e-18
7.59138e-19
5.35185e-19
3.75081e-19
2.59703e-19
1.73449e-19
1.02374e-19
3.46851e-20
7.15301e-20
2.10446e-19
3.52747e-19
5.18558e-19
7.31751e-19
1.01808e-18
1.40758e-18
1.9381e-18
2.65908e-18
3.63575e-18
4.95425e-18
6.72797e-18
9.10569e-18
1.22818e-17
1.65095e-17
2.21168e-17
2.95277e-17
3.92875e-17
5.20949e-17
6.88418e-17
9.06616e-17
1.18989e-16
1.55634e-16
2.02868e-16
2.63532e-16
3.41164e-16
4.40152e-16
5.65912e-16
7.25109e-16
9.25901e-16
1.17823e-15
1.49418e-15
1.88833e-15
2.37824e-15
2.98495e-15
3.73354e-15
4.65376e-15
5.7808e-15
7.15601e-15
8.82779e-15
1.08525e-14
1.32956e-14
1.62323e-14
1.97491e-14
2.39447e-14
2.89311e-14
3.48348e-14
4.17979e-14
4.9979e-14
5.95539e-14
7.0717e-14
8.36808e-14
9.86772e-14
1.15957e-13
1.35788e-13
1.58457e-13
1.84267e-13
2.13534e-13
2.46587e-13
2.83763e-13
3.25404e-13
3.71854e-13
4.23448e-13
4.80515e-13
5.43366e-13
6.12287e-13
6.87533e-13
7.6932e-13
8.57818e-13
9.53139e-13
1.05533e-12
1.16438e-12
1.28017e-12
1.40253e-12
1.53117e-12
1.66572e-12
1.8057e-12
1.95053e-12
2.09954e-12
2.25195e-12
2.40687e-12
2.56334e-12
2.72032e-12
2.87666e-12
3.0312e-12
3.18269e-12
3.32988e-12
3.47147e-12
3.6062e-12
3.7328e-12
3.85006e-12
3.95684e-12
4.05204e-12
4.1347e-12
4.20396e-12
4.25907e-12
4.29946e-12
4.32468e-12
4.33446e-12
4.32871e-12
4.30748e-12
4.27103e-12
4.21976e-12
4.15425e-12
4.07522e-12
3.98355e-12
3.88023e-12
3.76639e-12
3.64324e-12
3.51208e-12
3.37427e-12
3.23121e-12
3.08433e-12
2.93508e-12
2.78487e-12
2.63511e-12
2.48717e-12
2.34235e-12
2.20189e-12
2.06697e-12
1.93867e-12
1.81799e-12
1.70584e-12
1.60304e-12
1.51029e-12
1.42822e-12
1.35735e-12
1.29809e-12
1.2508e-12
1.21569e-12
1.19293e-12
1.18256e-12
1.18456e-12
1.19881e-12
1.2251e-12
1.26314e-12
1.31255e-12
1.37287e-12
1.44354e-12
1.52392e-12
1.61329e-12
1.71083e-12
1.81566e-12
1.92679e-12
2.04317e-12
2.16368e-12
2.28714e-12
2.4123e-12