/*--------------------------------*- C++ -*----------------------------------*\
| =========                 |                                                 |
| \\      /  F ield         | OpenFOAM: The Open Source CFD Toolbox           |
|  \\    /   O peration     | Version:  v2012                                 |
|   \\  /    A nd           | Website:  www.openfoam.com                      |
|    \\/     M anipulation  |                                                 |
\*---------------------------------------------------------------------------*/
FoamFile
{
    version     2.0;
    format      ascii;
    class       surfaceScalarField;
    location    "14.4";
    object      phi;
}
// * * * * * * * * * * * * * * * * * * * * * * * * * * * * * * * * * * * * * //

dimensions      [0 3 -1 0 0 0 0];
oriented        oriented;


internalField   nonuniform List<scalar> 
130560
(
3.4483e-06
-3.4483e-06
6.89679e-06
-3.4485e-06
1.03457e-05
-3.44889e-06
1.37951e-05
-3.44947e-06
1.72454e-05
-3.45024e-06
2.06966e-05
-3.45121e-06
2.4149e-05
-3.45236e-06
2.76026e-05
-3.45369e-06
3.10578e-05
-3.4552e-06
3.45147e-05
-3.45689e-06
3.79735e-05
-3.45875e-06
4.14343e-05
-3.46077e-06
4.48972e-05
-3.46296e-06
4.83625e-05
-3.46529e-06
5.18303e-05
-3.46777e-06
5.53007e-05
-3.47039e-06
5.87738e-05
-3.47314e-06
6.22498e-05
-3.476e-06
6.57288e-05
-3.47898e-06
6.92108e-05
-3.48205e-06
7.26961e-05
-3.48522e-06
7.61845e-05
-3.48846e-06
7.96763e-05
-3.49177e-06
8.31714e-05
-3.49513e-06
8.66699e-05
-3.49852e-06
9.01719e-05
-3.50195e-06
9.36773e-05
-3.50538e-06
9.71861e-05
-3.5088e-06
0.000100698
-3.5122e-06
0.000104214
-3.51556e-06
0.000107733
-3.51886e-06
0.000111255
-3.52209e-06
0.00011478
-3.52521e-06
0.000118308
-3.52823e-06
0.000121839
-3.5311e-06
0.000125373
-3.53381e-06
0.000128909
-3.53635e-06
0.000132448
-3.53867e-06
0.000135989
-3.54077e-06
0.000139532
-3.54262e-06
0.000143076
-3.54418e-06
0.000146621
-3.54544e-06
0.000150168
-3.54636e-06
0.000153714
-3.54692e-06
0.000157262
-3.5471e-06
0.000160808
-3.54685e-06
0.000164355
-3.54615e-06
0.0001679
-3.54497e-06
0.000171443
-3.54328e-06
0.000174984
-3.54105e-06
0.000178522
-3.53824e-06
0.000182057
-3.53482e-06
0.000185588
-3.53075e-06
0.000189114
-3.526e-06
0.000192634
-3.52054e-06
0.000196149
-3.51434e-06
0.000199656
-3.50734e-06
0.000203155
-3.49952e-06
0.000206646
-3.49085e-06
0.000210128
-3.48128e-06
0.000213598
-3.47078e-06
0.000217058
-3.45931e-06
0.000220504
-3.44684e-06
0.000223938
-3.43332e-06
0.000227356
-3.41873e-06
0.00023076
-3.40302e-06
0.000234146
-3.38616e-06
0.000237514
-3.36811e-06
0.000240863
-3.34884e-06
0.000244191
-3.32832e-06
0.000247497
-3.3065e-06
0.000250781
-3.28336e-06
0.00025404
-3.25887e-06
0.000257273
-3.23299e-06
0.000260478
-3.2057e-06
0.000263655
-3.17696e-06
0.000266802
-3.14675e-06
0.000269917
-3.11504e-06
0.000272999
-3.08182e-06
0.000276046
-3.04705e-06
0.000279057
-3.01072e-06
0.000282029
-2.9728e-06
0.000284963
-2.93329e-06
0.000287855
-2.89217e-06
0.000290704
-2.84943e-06
0.000293509
-2.80505e-06
0.000296268
-2.75904e-06
0.00029898
-2.71138e-06
0.000301642
-2.66207e-06
0.000304253
-2.61113e-06
0.000306812
-2.55854e-06
0.000309316
-2.50433e-06
0.000311764
-2.44849e-06
0.000314155
-2.39104e-06
0.000316487
-2.332e-06
0.000318759
-2.27139e-06
0.000320968
-2.20923e-06
0.000323114
-2.14554e-06
0.000325194
-2.08036e-06
0.000327208
-2.01371e-06
0.000329153
-1.94563e-06
0.000331029
-1.87616e-06
0.000332835
-1.80535e-06
0.000334568
-1.73322e-06
0.000336228
-1.65983e-06
0.000337813
-1.58524e-06
0.000339323
-1.50949e-06
0.000340755
-1.43263e-06
0.00034211
-1.35474e-06
0.000343386
-1.27585e-06
0.000344582
-1.19605e-06
0.000345697
-1.11538e-06
0.000346731
-1.03393e-06
0.000347683
-9.5175e-07
0.000348552
-8.68917e-07
0.000349337
-7.85502e-07
0.000350039
-7.01576e-07
0.000350656
-6.17214e-07
0.000351189
-5.3249e-07
0.000351636
-4.47478e-07
0.000351998
-3.62254e-07
0.000352275
-2.76895e-07
0.000352467
-1.91476e-07
0.000352573
-1.06073e-07
0.000352594
-2.07612e-08
0.000352529
6.43838e-08
0.00035238
1.49288e-07
0.000352146
2.33877e-07
0.000351828
3.18079e-07
0.000351426
4.01823e-07
0.000350941
4.85039e-07
0.000350373
5.67659e-07
0.000349724
6.49616e-07
0.000348993
7.30845e-07
0.000348182
8.11285e-07
0.000347291
8.90873e-07
0.000346321
9.69552e-07
0.000345274
1.04727e-06
0.00034415
1.12396e-06
0.00034295
1.19959e-06
0.000341676
1.2741e-06
0.000340329
1.34744e-06
0.000338909
1.41958e-06
0.000337419
1.49047e-06
0.000335859
1.56008e-06
0.00033423
1.62837e-06
0.000332535
1.69531e-06
0.000330774
1.76087e-06
0.000328949
1.82502e-06
0.000327061
1.88775e-06
0.000325112
1.94903e-06
0.000323104
2.00884e-06
0.000321036
2.06716e-06
0.000318912
2.124e-06
0.000316733
2.17933e-06
0.0003145
2.23315e-06
0.000312214
2.28546e-06
0.000309878
2.33624e-06
0.000307493
2.38551e-06
0.000305059
2.43327e-06
0.00030258
2.47951e-06
0.000300056
2.52425e-06
0.000297488
2.56749e-06
0.000294879
2.60925e-06
0.000292229
2.64954e-06
0.000289541
2.68836e-06
0.000286815
2.72575e-06
0.000284054
2.7617e-06
0.000281257
2.79625e-06
0.000278428
2.82941e-06
0.000275567
2.86121e-06
0.000272675
2.89166e-06
0.000269754
2.92078e-06
0.000266806
2.94862e-06
0.000263831
2.97518e-06
0.00026083
3.00049e-06
0.000257805
3.02459e-06
0.000254758
3.0475e-06
0.000251689
3.06924e-06
0.000248599
3.08984e-06
0.00024549
3.10934e-06
0.000242362
3.12777e-06
0.000239217
3.14514e-06
0.000236055
3.1615e-06
0.000232878
3.17687e-06
0.000229687
3.19128e-06
0.000226482
3.20476e-06
0.000223265
3.21734e-06
0.000220036
3.22906e-06
0.000216796
3.23993e-06
0.000213546
3.25e-06
0.000210287
3.25928e-06
0.000207019
3.26782e-06
0.000203743
3.27563e-06
0.00020046
3.28274e-06
0.000197171
3.28919e-06
0.000193876
3.29501e-06
0.000190576
3.30021e-06
0.000187271
3.30483e-06
0.000183962
3.30889e-06
0.00018065
3.31243e-06
0.000177334
3.31545e-06
0.000174016
3.318e-06
0.000170696
3.3201e-06
0.000167375
3.32176e-06
0.000164051
3.32302e-06
0.000160728
3.32389e-06
0.000157403
3.3244e-06
0.000154079
3.32458e-06
0.000150754
3.32443e-06
0.00014743
3.32399e-06
0.000144107
3.32328e-06
0.000140785
3.32231e-06
0.000137464
3.3211e-06
0.000134144
3.31968e-06
0.000130826
3.31806e-06
0.00012751
3.31625e-06
0.000124195
3.31429e-06
0.000120883
3.31217e-06
0.000117573
3.30993e-06
0.000114266
3.30757e-06
0.00011096
3.30511e-06
0.000107658
3.30257e-06
0.000104358
3.29996e-06
0.000101061
3.29729e-06
9.77661e-05
3.29457e-06
9.44742e-05
3.29183e-06
9.11852e-05
3.28906e-06
8.78989e-05
3.28629e-06
8.46154e-05
3.28352e-06
8.13346e-05
3.28076e-06
7.80566e-05
3.27803e-06
7.47812e-05
3.27534e-06
7.15086e-05
3.27269e-06
6.82385e-05
3.27009e-06
6.49709e-05
3.26755e-06
6.17058e-05
3.26509e-06
5.84431e-05
3.2627e-06
5.51827e-05
3.26039e-06
5.19245e-05
3.25818e-06
4.86685e-05
3.25606e-06
4.54144e-05
3.25405e-06
4.21623e-05
3.25215e-06
3.89119e-05
3.25036e-06
3.56632e-05
3.24869e-06
3.24161e-05
3.24714e-06
2.91704e-05
3.24573e-06
2.59259e-05
3.24444e-06
2.26826e-05
3.24329e-06
1.94404e-05
3.24228e-06
1.6199e-05
3.2414e-06
1.29583e-05
3.24067e-06
9.7182e-06
3.24008e-06
6.47856e-06
3.23964e-06
3.23921e-06
3.23935e-06
3.23921e-06
3.44812e-06
-6.89641e-06
6.89642e-06
-6.89681e-06
1.03451e-05
-6.89759e-06
1.37944e-05
-6.89875e-06
1.72445e-05
-6.9003e-06
2.06955e-05
-6.90223e-06
2.41477e-05
-6.90453e-06
2.76012e-05
-6.9072e-06
3.10562e-05
-6.91023e-06
3.45129e-05
-6.91362e-06
3.79715e-05
-6.91734e-06
4.14322e-05
-6.92139e-06
4.4895e-05
-6.92577e-06
4.83601e-05
-6.93044e-06
5.18278e-05
-6.93541e-06
5.5298e-05
-6.94066e-06
5.8771e-05
-6.94616e-06
6.22469e-05
-6.9519e-06
6.57258e-05
-6.95786e-06
6.92078e-05
-6.96403e-06
7.2693e-05
-6.97037e-06
7.61814e-05
-6.97686e-06
7.96731e-05
-6.98349e-06
8.31682e-05
-6.99022e-06
8.66667e-05
-6.99703e-06
9.01686e-05
-7.00389e-06
9.3674e-05
-7.01076e-06
9.71828e-05
-7.01763e-06
0.000100695
-7.02444e-06
0.000104211
-7.03118e-06
0.00010773
-7.0378e-06
0.000111252
-7.04427e-06
0.000114777
-7.05055e-06
0.000118306
-7.05659e-06
0.000121837
-7.06236e-06
0.000125371
-7.06781e-06
0.000128907
-7.0729e-06
0.000132446
-7.07758e-06
0.000135987
-7.0818e-06
0.00013953
-7.08551e-06
0.000143075
-7.08867e-06
0.00014662
-7.09121e-06
0.000150167
-7.09309e-06
0.000153714
-7.09424e-06
0.000157262
-7.09461e-06
0.000160809
-7.09415e-06
0.000164356
-7.09279e-06
0.000167901
-7.09046e-06
0.000171445
-7.08712e-06
0.000174987
-7.08268e-06
0.000178526
-7.07709e-06
0.000182061
-7.07028e-06
0.000185593
-7.06218e-06
0.000189119
-7.05272e-06
0.000192641
-7.04184e-06
0.000196156
-7.02946e-06
0.000199664
-7.0155e-06
0.000203164
-6.99991e-06
0.000206656
-6.98259e-06
0.000210138
-6.96349e-06
0.00021361
-6.94253e-06
0.00021707
-6.91963e-06
0.000220518
-6.89471e-06
0.000223953
-6.86772e-06
0.000227372
-6.83857e-06
0.000230777
-6.80718e-06
0.000234164
-6.7735e-06
0.000237533
-6.73744e-06
0.000240883
-6.69894e-06
0.000244213
-6.65792e-06
0.000247521
-6.61432e-06
0.000250806
-6.56808e-06
0.000254066
-6.51912e-06
0.0002573
-6.46739e-06
0.000260507
-6.41283e-06
0.000263686
-6.35538e-06
0.000266834
-6.29499e-06
0.000269951
-6.2316e-06
0.000273034
-6.16517e-06
0.000276082
-6.09565e-06
0.000279095
-6.02301e-06
0.000282069
-5.9472e-06
0.000285004
-5.86819e-06
0.000287898
-5.78596e-06
0.000290749
-5.70048e-06
0.000293556
-5.61174e-06
0.000296316
-5.51971e-06
0.000299029
-5.42439e-06
0.000301693
-5.32579e-06
0.000304306
-5.22389e-06
0.000306866
-5.11871e-06
0.000309372
-5.01027e-06
0.000311822
-4.89858e-06
0.000314215
-4.78367e-06
0.000316548
-4.66558e-06
0.000318821
-4.54433e-06
0.000321032
-4.41998e-06
0.000323179
-4.29258e-06
0.000325261
-4.16218e-06
0.000327276
-4.02885e-06
0.000329223
-3.89265e-06
0.0003311
-3.75367e-06
0.000332907
-3.61199e-06
0.000334642
-3.46769e-06
0.000336303
-3.32087e-06
0.000337889
-3.17163e-06
0.0003394
-3.02007e-06
0.000340833
-2.86631e-06
0.000342189
-2.71045e-06
0.000343466
-2.55262e-06
0.000344663
-2.39294e-06
0.000345779
-2.23155e-06
0.000346813
-2.06857e-06
0.000347766
-1.90415e-06
0.000348635
-1.73841e-06
0.000349421
-1.57151e-06
0.000350123
-1.40358e-06
0.000350741
-1.23478e-06
0.000351274
-1.06526e-06
0.000351721
-8.95161e-07
0.000352084
-7.24638e-07
0.000352361
-5.53843e-07
0.000352552
-3.82929e-07
0.000352658
-2.12047e-07
0.000352679
-4.13491e-08
0.000352614
1.29015e-07
0.000352464
2.98896e-07
0.00035223
4.68148e-07
0.000351912
6.36623e-07
0.000351509
8.04181e-07
0.000351024
9.70682e-07
0.000350455
1.13599e-06
0.000349805
1.29997e-06
0.000349073
1.46249e-06
0.000348261
1.62343e-06
0.000347369
1.78266e-06
0.000346399
1.94008e-06
0.000345351
2.09556e-06
0.000344225
2.249e-06
0.000343025
2.4003e-06
0.00034175
2.54936e-06
0.000340401
2.6961e-06
0.00033898
2.84041e-06
0.000337488
2.98223e-06
0.000335927
3.12148e-06
0.000334297
3.25809e-06
0.0003326
3.392e-06
0.000330838
3.52315e-06
0.000329012
3.65148e-06
0.000327123
3.77695e-06
0.000325172
3.89952e-06
0.000323162
4.01916e-06
0.000321093
4.13583e-06
0.000318968
4.24951e-06
0.000316787
4.36018e-06
0.000314552
4.46782e-06
0.000312265
4.57243e-06
0.000309927
4.67401e-06
0.00030754
4.77254e-06
0.000305105
4.86805e-06
0.000302624
4.96053e-06
0.000300099
5.05e-06
0.00029753
5.13647e-06
0.000294919
5.21998e-06
0.000292268
5.30053e-06
0.000289578
5.37817e-06
0.000286851
5.45292e-06
0.000284088
5.52481e-06
0.00028129
5.59389e-06
0.000278459
5.66019e-06
0.000275597
5.72376e-06
0.000272704
5.78463e-06
0.000269782
5.84287e-06
0.000266832
5.89851e-06
0.000263856
5.9516e-06
0.000260854
6.00221e-06
0.000257828
6.05037e-06
0.000254779
6.09615e-06
0.000251709
6.13961e-06
0.000248618
6.18079e-06
0.000245508
6.21977e-06
0.000242379
6.25658e-06
0.000239233
6.2913e-06
0.00023607
6.32399e-06
0.000232892
6.3547e-06
0.0002297
6.38349e-06
0.000226494
6.41042e-06
0.000223276
6.43556e-06
0.000220046
6.45895e-06
0.000216806
6.48067e-06
0.000213555
6.50077e-06
0.000210295
6.51931e-06
0.000207026
6.53635e-06
0.00020375
6.55194e-06
0.000200467
6.56615e-06
0.000197177
6.57903e-06
0.000193881
6.59062e-06
0.00019058
6.601e-06
0.000187275
6.61022e-06
0.000183966
6.61832e-06
0.000180653
6.62536e-06
0.000177337
6.63139e-06
0.000174018
6.63646e-06
0.000170698
6.64062e-06
0.000167376
6.64392e-06
0.000164052
6.64641e-06
0.000160728
6.64814e-06
0.000157403
6.64914e-06
0.000154078
6.64946e-06
0.000150754
6.64916e-06
0.000147429
6.64826e-06
0.000144106
6.64681e-06
0.000140783
6.64485e-06
0.000137462
6.64241e-06
0.000134142
6.63955e-06
0.000130824
6.63629e-06
0.000127507
6.63266e-06
0.000124193
6.62872e-06
0.000120881
6.62447e-06
0.000117571
6.61997e-06
0.000114263
6.61524e-06
0.000110958
6.61031e-06
0.000107655
6.60521e-06
0.000104355
6.59997e-06
0.000101058
6.59461e-06
9.77632e-05
6.58917e-06
9.44713e-05
6.58366e-06
9.11823e-05
6.57812e-06
8.7896e-05
6.57257e-06
8.46125e-05
6.56702e-06
8.13318e-05
6.5615e-06
7.80538e-05
6.55603e-06
7.47785e-05
6.55063e-06
7.15058e-05
6.54532e-06
6.82358e-05
6.54011e-06
6.49683e-05
6.53503e-06
6.17033e-05
6.53009e-06
5.84407e-05
6.52531e-06
5.51804e-05
6.52069e-06
5.19224e-05
6.51626e-06
4.86664e-05
6.51202e-06
4.54125e-05
6.50799e-06
4.21604e-05
6.50418e-06
3.89102e-05
6.50059e-06
3.56616e-05
6.49725e-06
3.24146e-05
6.49416e-06
2.9169e-05
6.49132e-06
2.59247e-05
6.48874e-06
2.26816e-05
6.48644e-06
1.94395e-05
6.48441e-06
1.61982e-05
6.48266e-06
1.29577e-05
6.48119e-06
9.71775e-06
6.48001e-06
6.47826e-06
6.47914e-06
3.23906e-06
6.47855e-06
6.47826e-06
3.44772e-06
-1.03441e-05
6.89564e-06
-1.03447e-05
1.03439e-05
-1.03459e-05
1.37928e-05
-1.03477e-05
1.72425e-05
-1.035e-05
2.06932e-05
-1.03529e-05
2.4145e-05
-1.03563e-05
2.75981e-05
-1.03604e-05
3.10528e-05
-1.03649e-05
3.45092e-05
-1.037e-05
3.79674e-05
-1.03756e-05
4.14277e-05
-1.03817e-05
4.48902e-05
-1.03883e-05
4.83551e-05
-1.03953e-05
5.18225e-05
-1.04028e-05
5.52925e-05
-1.04107e-05
5.87653e-05
-1.04189e-05
6.22409e-05
-1.04276e-05
6.57196e-05
-1.04365e-05
6.92014e-05
-1.04458e-05
7.26864e-05
-1.04554e-05
7.61747e-05
-1.04651e-05
7.96663e-05
-1.04751e-05
8.31613e-05
-1.04852e-05
8.66598e-05
-1.04955e-05
9.01617e-05
-1.05058e-05
9.36671e-05
-1.05162e-05
9.71759e-05
-1.05265e-05
0.000100688
-1.05368e-05
0.000104204
-1.05469e-05
0.000107723
-1.05569e-05
0.000111245
-1.05666e-05
0.000114771
-1.05761e-05
0.0001183
-1.05852e-05
0.000121831
-1.05939e-05
0.000125366
-1.06022e-05
0.000128903
-1.06099e-05
0.000132442
-1.06169e-05
0.000135983
-1.06233e-05
0.000139527
-1.0629e-05
0.000143072
-1.06338e-05
0.000146618
-1.06376e-05
0.000150166
-1.06405e-05
0.000153714
-1.06423e-05
0.000157262
-1.0643e-05
0.000160811
-1.06423e-05
0.000164358
-1.06404e-05
0.000167905
-1.0637e-05
0.00017145
-1.0632e-05
0.000174992
-1.06255e-05
0.000178532
-1.06172e-05
0.000182069
-1.0607e-05
0.000185602
-1.0595e-05
0.00018913
-1.05809e-05
0.000192653
-1.05646e-05
0.00019617
-1.05461e-05
0.000199679
-1.05253e-05
0.000203182
-1.0502e-05
0.000206675
-1.04761e-05
0.000210159
-1.04476e-05
0.000213633
-1.04162e-05
0.000217095
-1.0382e-05
0.000220545
-1.03447e-05
0.000223982
-1.03043e-05
0.000227404
-1.02606e-05
0.00023081
-1.02137e-05
0.0002342
-1.01632e-05
0.000237572
-1.01092e-05
0.000240924
-1.00515e-05
0.000244256
-9.9901e-06
0.000247567
-9.92479e-06
0.000250854
-9.8555e-06
0.000254117
-9.78215e-06
0.000257355
-9.70463e-06
0.000260565
-9.62286e-06
0.000263746
-9.53675e-06
0.000266897
-9.44623e-06
0.000270017
-9.3512e-06
0.000273103
-9.25161e-06
0.000276155
-9.14739e-06
0.000279171
-9.03847e-06
0.000282148
-8.92479e-06
0.000285086
-8.80632e-06
0.000287983
-8.683e-06
0.000290838
-8.55481e-06
0.000293648
-8.4217e-06
0.000296412
-8.28367e-06
0.000299128
-8.14071e-06
0.000301795
-7.99279e-06
0.000304411
-7.83994e-06
0.000306974
-7.68215e-06
0.000309484
-7.51946e-06
0.000311937
-7.3519e-06
0.000314333
-7.17949e-06
0.000316669
-7.0023e-06
0.000318945
-6.82037e-06
0.000321159
-6.63378e-06
0.000323309
-6.44261e-06
0.000325394
-6.24693e-06
0.000327412
-6.04684e-06
0.000329362
-5.84246e-06
0.000331242
-5.63389e-06
0.000333051
-5.42125e-06
0.000334788
-5.20469e-06
0.000336452
-4.98434e-06
0.00033804
-4.76034e-06
0.000339553
-4.53287e-06
0.000340989
-4.30207e-06
0.000342347
-4.06814e-06
0.000343625
-3.83124e-06
0.000344824
-3.59156e-06
0.000345942
-3.34931e-06
0.000346978
-3.10467e-06
0.000347932
-2.85786e-06
0.000348802
-2.60907e-06
0.000349589
-2.35854e-06
0.000350292
-2.10647e-06
0.00035091
-1.85308e-06
0.000351444
-1.59861e-06
0.000351892
-1.34327e-06
0.000352255
-1.0873e-06
0.000352532
-8.30914e-07
0.000352723
-5.74353e-07
0.000352829
-3.17841e-07
0.000352849
-6.16058e-08
0.000352784
1.94127e-07
0.000352634
4.49133e-07
0.000352399
7.03191e-07
0.000352079
9.56083e-07
0.000351676
1.20759e-06
0.000351189
1.45752e-06
0.000350619
1.70564e-06
0.000349968
1.95177e-06
0.000349234
2.19571e-06
0.00034842
2.43727e-06
0.000347527
2.67627e-06
0.000346554
2.91253e-06
0.000345504
3.14589e-06
0.000344377
3.37618e-06
0.000343174
3.60325e-06
0.000341896
3.82696e-06
0.000340545
4.04716e-06
0.000339122
4.26374e-06
0.000337628
4.47656e-06
0.000336064
4.68553e-06
0.000334431
4.89052e-06
0.000332732
5.09145e-06
0.000330967
5.28823e-06
0.000329137
5.48079e-06
0.000327245
5.66905e-06
0.000325292
5.85295e-06
0.000323278
6.03244e-06
0.000321207
6.20748e-06
0.000319078
6.37802e-06
0.000316894
6.54404e-06
0.000314657
6.70552e-06
0.000312367
6.86245e-06
0.000310026
7.01481e-06
0.000307636
7.16261e-06
0.000305198
7.30585e-06
0.000302714
7.44456e-06
0.000300185
7.57874e-06
0.000297613
7.70843e-06
0.000295
7.83365e-06
0.000292346
7.95445e-06
0.000289653
8.07087e-06
0.000286923
8.18295e-06
0.000284157
8.29074e-06
0.000281357
8.39431e-06
0.000278523
8.49371e-06
0.000275658
8.589e-06
0.000272762
8.68025e-06
0.000269838
8.76754e-06
0.000266885
8.85094e-06
0.000263906
8.93052e-06
0.000260902
9.00636e-06
0.000257874
9.07854e-06
0.000254823
9.14714e-06
0.00025175
9.21225e-06
0.000248657
9.27396e-06
0.000245545
9.33234e-06
0.000242414
9.38749e-06
0.000239265
9.4395e-06
0.000236101
9.48845e-06
0.000232921
9.53444e-06
0.000229727
9.57755e-06
0.00022652
9.61788e-06
0.0002233
9.65551e-06
0.000220068
9.69053e-06
0.000216826
9.72303e-06
0.000213574
9.75311e-06
0.000210312
9.78085e-06
0.000207042
9.80633e-06
0.000203764
9.82965e-06
0.00020048
9.85089e-06
0.000197188
9.87013e-06
0.000193892
9.88746e-06
0.00019059
9.90296e-06
0.000187283
9.91672e-06
0.000183973
9.9288e-06
0.000180659
9.9393e-06
0.000177342
9.94828e-06
0.000174022
9.95582e-06
0.000170701
9.96201e-06
0.000167378
9.9669e-06
0.000164054
9.97058e-06
0.000160729
9.97311e-06
0.000157404
9.97455e-06
0.000154078
9.97499e-06
0.000150753
9.97447e-06
0.000147428
9.97307e-06
0.000144104
9.97085e-06
0.000140781
9.96786e-06
0.000137459
9.96416e-06
0.000134139
9.95982e-06
0.00013082
9.95488e-06
0.000127503
9.94941e-06
0.000124189
9.94344e-06
0.000120876
9.93704e-06
0.000117566
9.93024e-06
0.000114258
9.92311e-06
0.000110953
9.91567e-06
0.00010765
9.90799e-06
0.00010435
9.90009e-06
0.000101052
9.89203e-06
9.77577e-05
9.88383e-06
9.44658e-05
9.87554e-06
9.11768e-05
9.8672e-06
8.78905e-05
9.85884e-06
8.4607e-05
9.85049e-06
8.13263e-05
9.84218e-06
7.80484e-05
9.83396e-06
7.47732e-05
9.82583e-06
7.15007e-05
9.81785e-06
6.82308e-05
9.81002e-06
6.49634e-05
9.80238e-06
6.16986e-05
9.79495e-06
5.84361e-05
9.78775e-06
5.5176e-05
9.78081e-06
5.19181e-05
9.77414e-06
4.86624e-05
9.76777e-06
4.54087e-05
9.76171e-06
4.21569e-05
9.75598e-06
3.89069e-05
9.75059e-06
3.56586e-05
9.74557e-06
3.24118e-05
9.74091e-06
2.91665e-05
9.73665e-06
2.59224e-05
9.73277e-06
2.26796e-05
9.72931e-06
1.94377e-05
9.72626e-06
1.61967e-05
9.72363e-06
1.29565e-05
9.72142e-06
9.71687e-06
9.71966e-06
6.47767e-06
9.71834e-06
3.23876e-06
9.71746e-06
9.71703e-06
3.44713e-06
-1.37913e-05
6.89446e-06
-1.37921e-05
1.03422e-05
-1.37936e-05
1.37905e-05
-1.3796e-05
1.72396e-05
-1.37991e-05
2.06897e-05
-1.3803e-05
2.41409e-05
-1.38076e-05
2.75935e-05
-1.3813e-05
3.10477e-05
-1.38191e-05
3.45035e-05
-1.38259e-05
3.79613e-05
-1.38334e-05
4.14211e-05
-1.38415e-05
4.48832e-05
-1.38503e-05
4.83476e-05
-1.38597e-05
5.18145e-05
-1.38697e-05
5.52841e-05
-1.38803e-05
5.87565e-05
-1.38914e-05
6.22319e-05
-1.39029e-05
6.57103e-05
-1.39149e-05
6.91918e-05
-1.39273e-05
7.26765e-05
-1.39401e-05
7.61646e-05
-1.39532e-05
7.96561e-05
-1.39666e-05
8.3151e-05
-1.39801e-05
8.66493e-05
-1.39939e-05
9.01512e-05
-1.40077e-05
9.36566e-05
-1.40216e-05
9.71656e-05
-1.40354e-05
0.000100678
-1.40492e-05
0.000104194
-1.40628e-05
0.000107713
-1.40762e-05
0.000111236
-1.40893e-05
0.000114762
-1.4102e-05
0.000118291
-1.41143e-05
0.000121823
-1.4126e-05
0.000125358
-1.41371e-05
0.000128895
-1.41474e-05
0.000132435
-1.4157e-05
0.000135978
-1.41656e-05
0.000139522
-1.41733e-05
0.000143068
-1.41798e-05
0.000146615
-1.41851e-05
0.000150164
-1.41891e-05
0.000153713
-1.41916e-05
0.000157263
-1.41926e-05
0.000160812
-1.41919e-05
0.000164361
-1.41894e-05
0.000167909
-1.4185e-05
0.000171456
-1.41786e-05
0.000175001
-1.417e-05
0.000178542
-1.41591e-05
0.000182081
-1.41457e-05
0.000185616
-1.41298e-05
0.000189146
-1.41112e-05
0.000192671
-1.40897e-05
0.00019619
-1.40652e-05
0.000199703
-1.40376e-05
0.000203207
-1.40067e-05
0.000206703
-1.39723e-05
0.00021019
-1.39344e-05
0.000213667
-1.38928e-05
0.000217132
-1.38473e-05
0.000220585
-1.37978e-05
0.000224025
-1.37441e-05
0.000227451
-1.36861e-05
0.000230861
-1.36236e-05
0.000234254
-1.35565e-05
0.000237629
-1.34847e-05
0.000240986
-1.34079e-05
0.000244322
-1.33262e-05
0.000247636
-1.32392e-05
0.000250928
-1.3147e-05
0.000254195
-1.30493e-05
0.000257436
-1.29461e-05
0.000260651
-1.28372e-05
0.000263836
-1.27225e-05
0.000266992
-1.2602e-05
0.000270116
-1.24754e-05
0.000273207
-1.23427e-05
0.000276264
-1.22038e-05
0.000279284
-1.20587e-05
0.000282267
-1.19072e-05
0.000285209
-1.17493e-05
0.000288111
-1.15849e-05
0.000290971
-1.1414e-05
0.000293786
-1.12366e-05
0.000296554
-1.10526e-05
0.000299276
-1.0862e-05
0.000301948
-1.06647e-05
0.000304569
-1.04609e-05
0.000307137
-1.02505e-05
0.000309651
-1.00335e-05
0.000312109
-9.81005e-06
0.00031451
-9.58011e-06
0.000316851
-9.34376e-06
0.000319132
-9.10109e-06
0.00032135
-8.85218e-06
0.000323505
-8.59714e-06
0.000325594
-8.33609e-06
0.000327616
-8.06915e-06
0.00032957
-7.79646e-06
0.000331455
-7.51817e-06
0.000333268
-7.23445e-06
0.000335009
-6.94548e-06
0.000336676
-6.65144e-06
0.000338268
-6.35254e-06
0.000339784
-6.04898e-06
0.000341223
-5.74099e-06
0.000342584
-5.42879e-06
0.000343865
-5.11264e-06
0.000345066
-4.79277e-06
0.000346186
-4.46945e-06
0.000347225
-4.14295e-06
0.00034818
-3.81354e-06
0.000349053
-3.48149e-06
0.000349841
-3.14711e-06
0.000350546
-2.81067e-06
0.000351165
-2.47247e-06
0.000351699
-2.13282e-06
0.000352148
-1.79202e-06
0.000352511
-1.45037e-06
0.000352788
-1.10817e-06
0.00035298
-7.65732e-07
0.000353085
-4.23362e-07
0.000353105
-8.13639e-08
0.000353039
2.59961e-07
0.000352888
6.00313e-07
0.000352652
9.39396e-07
0.000352331
1.27692e-06
0.000351926
1.61259e-06
0.000351437
1.94614e-06
0.000350866
2.27729e-06
0.000350212
2.60576e-06
0.000349476
2.93131e-06
0.00034866
3.25367e-06
0.000347763
3.57261e-06
0.000346788
3.88788e-06
0.000345734
4.19928e-06
0.000344604
4.50657e-06
0.000343398
4.80956e-06
0.000342117
5.10805e-06
0.000340762
5.40186e-06
0.000339335
5.69081e-06
0.000337837
5.97475e-06
0.000336269
6.25353e-06
0.000334632
6.52701e-06
0.000332929
6.79505e-06
0.000331159
7.05755e-06
0.000329326
7.3144e-06
0.000327429
7.56551e-06
0.000325471
7.81079e-06
0.000323454
8.05018e-06
0.000321378
8.28362e-06
0.000319245
8.51106e-06
0.000317056
8.73245e-06
0.000314814
8.94778e-06
0.000312519
9.15702e-06
0.000310174
9.36017e-06
0.000307779
9.55723e-06
0.000305337
9.7482e-06
0.000302848
9.9331e-06
0.000300315
1.0112e-05
0.000297739
1.02848e-05
0.000295121
1.04518e-05
0.000292462
1.06128e-05
0.000289765
1.07679e-05
0.000287031
1.09173e-05
0.000284261
1.10609e-05
0.000281456
1.11989e-05
0.000278619
1.13313e-05
0.000275749
1.14583e-05
0.00027285
1.15798e-05
0.000269921
1.16961e-05
0.000266965
1.18072e-05
0.000263982
1.19132e-05
0.000260975
1.20142e-05
0.000257943
1.21103e-05
0.000254888
1.22016e-05
0.000251812
1.22883e-05
0.000248716
1.23704e-05
0.0002456
1.24482e-05
0.000242466
1.25215e-05
0.000239315
1.25908e-05
0.000236147
1.26559e-05
0.000232965
1.27171e-05
0.000229768
1.27744e-05
0.000226558
1.2828e-05
0.000223335
1.28781e-05
0.000220101
1.29246e-05
0.000216856
1.29678e-05
0.000213601
1.30078e-05
0.000210338
1.30446e-05
0.000207066
1.30785e-05
0.000203786
1.31094e-05
0.000200499
1.31376e-05
0.000197206
1.31632e-05
0.000193907
1.31861e-05
0.000190604
1.32067e-05
0.000187295
1.32249e-05
0.000183983
1.32409e-05
0.000180668
1.32548e-05
0.00017735
1.32666e-05
0.000174029
1.32766e-05
0.000170706
1.32847e-05
0.000167382
1.32911e-05
0.000164057
1.32959e-05
0.000160731
1.32992e-05
0.000157404
1.3301e-05
0.000154078
1.33015e-05
0.000150751
1.33007e-05
0.000147426
1.32987e-05
0.000144101
1.32957e-05
0.000140777
1.32916e-05
0.000137455
1.32866e-05
0.000134134
1.32807e-05
0.000130815
1.3274e-05
0.000127498
1.32666e-05
0.000124182
1.32586e-05
0.00012087
1.325e-05
0.000117559
1.32409e-05
0.000114251
1.32313e-05
0.000110945
1.32213e-05
0.000107642
1.3211e-05
0.000104342
1.32004e-05
0.000101044
1.31896e-05
9.77495e-05
1.31786e-05
9.44576e-05
1.31675e-05
9.11685e-05
1.31563e-05
8.78822e-05
1.31451e-05
8.45988e-05
1.31339e-05
8.13182e-05
1.31228e-05
7.80404e-05
1.31118e-05
7.47653e-05
1.31009e-05
7.14929e-05
1.30902e-05
6.82232e-05
1.30797e-05
6.49561e-05
1.30695e-05
6.16914e-05
1.30596e-05
5.84293e-05
1.30499e-05
5.51694e-05
1.30406e-05
5.19118e-05
1.30317e-05
4.86564e-05
1.30232e-05
4.5403e-05
1.30151e-05
4.21515e-05
1.30074e-05
3.89019e-05
1.30002e-05
3.56539e-05
1.29935e-05
3.24076e-05
1.29873e-05
2.91626e-05
1.29816e-05
2.5919e-05
1.29764e-05
2.26765e-05
1.29718e-05
1.94351e-05
1.29677e-05
1.61946e-05
1.29642e-05
1.29548e-05
1.29612e-05
9.71555e-06
1.29589e-05
6.47679e-06
1.29571e-05
3.23832e-06
1.29559e-05
1.29553e-05
3.44634e-06
-1.72376e-05
6.89288e-06
-1.72386e-05
1.03398e-05
-1.72406e-05
1.37874e-05
-1.72435e-05
1.72357e-05
-1.72474e-05
2.0685e-05
-1.72523e-05
2.41355e-05
-1.72581e-05
2.75874e-05
-1.72648e-05
3.10408e-05
-1.72725e-05
3.4496e-05
-1.7281e-05
3.79531e-05
-1.72904e-05
4.14123e-05
-1.73007e-05
4.48737e-05
-1.73117e-05
4.83375e-05
-1.73236e-05
5.18039e-05
-1.73361e-05
5.5273e-05
-1.73494e-05
5.87449e-05
-1.73633e-05
6.22198e-05
-1.73778e-05
6.56978e-05
-1.73929e-05
6.91789e-05
-1.74085e-05
7.26634e-05
-1.74245e-05
7.61512e-05
-1.7441e-05
7.96424e-05
-1.74578e-05
8.31371e-05
-1.74749e-05
8.66354e-05
-1.74921e-05
9.01372e-05
-1.75095e-05
9.36427e-05
-1.7527e-05
9.71517e-05
-1.75445e-05
0.000100664
-1.75618e-05
0.00010418
-1.7579e-05
0.0001077
-1.75958e-05
0.000111223
-1.76123e-05
0.000114749
-1.76284e-05
0.000118279
-1.76439e-05
0.000121812
-1.76587e-05
0.000125347
-1.76727e-05
0.000128886
-1.76858e-05
0.000132427
-1.76979e-05
0.00013597
-1.77089e-05
0.000139515
-1.77187e-05
0.000143063
-1.7727e-05
0.000146611
-1.77338e-05
0.000150161
-1.7739e-05
0.000153712
-1.77424e-05
0.000157263
-1.77439e-05
0.000160815
-1.77432e-05
0.000164366
-1.77404e-05
0.000167916
-1.77351e-05
0.000171464
-1.77273e-05
0.000175011
-1.77168e-05
0.000178556
-1.77034e-05
0.000182097
-1.7687e-05
0.000185634
-1.76673e-05
0.000189168
-1.76443e-05
0.000192696
-1.76177e-05
0.000196218
-1.75874e-05
0.000199733
-1.75531e-05
0.000203241
-1.75148e-05
0.000206741
-1.74721e-05
0.000210232
-1.7425e-05
0.000213712
-1.73733e-05
0.000217182
-1.73167e-05
0.000220639
-1.7255e-05
0.000224083
-1.71882e-05
0.000227513
-1.71159e-05
0.000230927
-1.70381e-05
0.000234325
-1.69545e-05
0.000237706
-1.6865e-05
0.000241067
-1.67693e-05
0.000244408
-1.66674e-05
0.000247728
-1.6559e-05
0.000251025
-1.64439e-05
0.000254298
-1.63221e-05
0.000257545
-1.61933e-05
0.000260765
-1.60574e-05
0.000263957
-1.59142e-05
0.000267119
-1.57637e-05
0.000270249
-1.56057e-05
0.000273346
-1.544e-05
0.000276409
-1.52665e-05
0.000279435
-1.50852e-05
0.000282424
-1.4896e-05
0.000285374
-1.46987e-05
0.000288282
-1.44934e-05
0.000291148
-1.42798e-05
0.000293969
-1.40581e-05
0.000296745
-1.38281e-05
0.000299473
-1.35898e-05
0.000302151
-1.33433e-05
0.000304779
-1.30885e-05
0.000307354
-1.28254e-05
0.000309874
-1.25541e-05
0.000312339
-1.22747e-05
0.000314746
-1.19871e-05
0.000317094
-1.16915e-05
0.000319381
-1.1388e-05
0.000321605
-1.10767e-05
0.000323766
-1.07577e-05
0.000325861
-1.04311e-05
0.000327889
-1.00972e-05
0.000329849
-9.75606e-06
0.000331738
-9.40789e-06
0.000333557
-9.05291e-06
0.000335303
-8.69134e-06
0.000336975
-8.32342e-06
0.000338572
-7.9494e-06
0.000340092
-7.56953e-06
0.000341535
-7.18411e-06
0.0003429
-6.79341e-06
0.000344185
-6.39775e-06
0.00034539
-5.99743e-06
0.000346513
-5.59278e-06
0.000347554
-5.18414e-06
0.000348512
-4.77185e-06
0.000349387
-4.35626e-06
0.000350178
-3.93773e-06
0.000350884
-3.51663e-06
0.000351505
-3.09333e-06
0.00035204
-2.6682e-06
0.00035249
-2.24162e-06
0.000352853
-1.81399e-06
0.000353131
-1.38567e-06
0.000353322
-9.57048e-07
0.000353427
-5.28516e-07
0.000353446
-1.00453e-07
0.00035338
3.26764e-07
0.000353227
7.52757e-07
0.000352989
1.17716e-06
0.000352667
1.5996e-06
0.00035226
2.01972e-06
0.000351768
2.43717e-06
0.000351194
2.8516e-06
0.000350537
3.26268e-06
0.000349798
3.67008e-06
0.000348979
4.07349e-06
0.000348079
4.4726e-06
0.000347099
4.86712e-06
0.000346042
5.25676e-06
0.000344907
5.64126e-06
0.000343696
6.02036e-06
0.000342411
6.39382e-06
0.000341051
6.7614e-06
0.000339619
7.1229e-06
0.000338116
7.47811e-06
0.000336542
7.82684e-06
0.0003349
8.16892e-06
0.000333191
8.50419e-06
0.000331416
8.83251e-06
0.000329577
9.15375e-06
0.000327675
9.46778e-06
0.000325711
9.77452e-06
0.000323687
1.00739e-05
0.000321605
1.03658e-05
0.000319466
1.06501e-05
0.000317272
1.09269e-05
0.000315023
1.11961e-05
0.000312723
1.14577e-05
0.000310371
1.17116e-05
0.00030797
1.19579e-05
0.000305522
1.21966e-05
0.000303027
1.24277e-05
0.000300488
1.26512e-05
0.000297906
1.28672e-05
0.000295282
1.30758e-05
0.000292618
1.32769e-05
0.000289915
1.34707e-05
0.000287175
1.36573e-05
0.000284399
1.38367e-05
0.000281589
1.4009e-05
0.000278746
1.41744e-05
0.000275871
1.43329e-05
0.000272966
1.44847e-05
0.000270032
1.46299e-05
0.000267071
1.47685e-05
0.000264084
1.49008e-05