/*--------------------------------*- C++ -*----------------------------------*\
| =========                 |                                                 |
| \\      /  F ield         | OpenFOAM: The Open Source CFD Toolbox           |
|  \\    /   O peration     | Version:  v2012                                 |
|   \\  /    A nd           | Website:  www.openfoam.com                      |
|    \\/     M anipulation  |                                                 |
\*---------------------------------------------------------------------------*/
FoamFile
{
    version     2.0;
    format      ascii;
    class       volVectorField;
    location    "14.4";
    object      Psi;
}
// * * * * * * * * * * * * * * * * * * * * * * * * * * * * * * * * * * * * * //

dimensions      [0 2 -1 0 0 0 0];


internalField   nonuniform List<vector> 
65536
(
(0 0 8.60562e-06)
(0 0 2.58175e-05)
(0 0 4.30308e-05)
(0 0 6.02466e-05)
(0 0 7.74657e-05)
(0 0 9.46893e-05)
(0 0 0.000111918)
(0 0 0.000129153)
(0 0 0.000146395)
(0 0 0.000163645)
(0 0 0.000180905)
(0 0 0.000198173)
(0 0 0.000215453)
(0 0 0.000232743)
(0 0 0.000250046)
(0 0 0.000267362)
(0 0 0.000284691)
(0 0 0.000302034)
(0 0 0.000319392)
(0 0 0.000336765)
(0 0 0.000354153)
(0 0 0.000371558)
(0 0 0.000388979)
(0 0 0.000406417)
(0 0 0.000423872)
(0 0 0.000441344)
(0 0 0.000458834)
(0 0 0.00047634)
(0 0 0.000493864)
(0 0 0.000511405)
(0 0 0.000528963)
(0 0 0.000546537)
(0 0 0.000564128)
(0 0 0.000581734)
(0 0 0.000599355)
(0 0 0.00061699)
(0 0 0.000634638)
(0 0 0.000652299)
(0 0 0.000669972)
(0 0 0.000687655)
(0 0 0.000705346)
(0 0 0.000723045)
(0 0 0.00074075)
(0 0 0.000758459)
(0 0 0.000776171)
(0 0 0.000793882)
(0 0 0.000811592)
(0 0 0.000829298)
(0 0 0.000846997)
(0 0 0.000864687)
(0 0 0.000882366)
(0 0 0.000900029)
(0 0 0.000917674)
(0 0 0.000935298)
(0 0 0.000952897)
(0 0 0.000970468)
(0 0 0.000988007)
(0 0 0.00100551)
(0 0 0.00102297)
(0 0 0.00104039)
(0 0 0.00105776)
(0 0 0.00107507)
(0 0 0.00109233)
(0 0 0.00110952)
(0 0 0.00112664)
(0 0 0.00114369)
(0 0 0.00116066)
(0 0 0.00117754)
(0 0 0.00119433)
(0 0 0.00121103)
(0 0 0.00122761)
(0 0 0.00124409)
(0 0 0.00126045)
(0 0 0.00127668)
(0 0 0.00129279)
(0 0 0.00130875)
(0 0 0.00132457)
(0 0 0.00134024)
(0 0 0.00135574)
(0 0 0.00137108)
(0 0 0.00138624)
(0 0 0.00140122)
(0 0 0.001416)
(0 0 0.00143059)
(0 0 0.00144496)
(0 0 0.00145912)
(0 0 0.00147306)
(0 0 0.00148676)
(0 0 0.00150023)
(0 0 0.00151344)
(0 0 0.0015264)
(0 0 0.00153909)
(0 0 0.00155151)
(0 0 0.00156364)
(0 0 0.00157549)
(0 0 0.00158704)
(0 0 0.00159828)
(0 0 0.00160921)
(0 0 0.00161982)
(0 0 0.00163011)
(0 0 0.00164005)
(0 0 0.00164966)
(0 0 0.00165891)
(0 0 0.00166781)
(0 0 0.00167634)
(0 0 0.00168451)
(0 0 0.0016923)
(0 0 0.00169971)
(0 0 0.00170674)
(0 0 0.00171337)
(0 0 0.00171961)
(0 0 0.00172544)
(0 0 0.00173088)
(0 0 0.0017359)
(0 0 0.00174051)
(0 0 0.00174471)
(0 0 0.00174849)
(0 0 0.00175184)
(0 0 0.00175478)
(0 0 0.00175729)
(0 0 0.00175937)
(0 0 0.00176103)
(0 0 0.00176226)
(0 0 0.00176307)
(0 0 0.00176344)
(0 0 0.00176339)
(0 0 0.00176291)
(0 0 0.00176201)
(0 0 0.00176069)
(0 0 0.00175895)
(0 0 0.00175678)
(0 0 0.00175421)
(0 0 0.00175122)
(0 0 0.00174782)
(0 0 0.00174401)
(0 0 0.0017398)
(0 0 0.0017352)
(0 0 0.00173021)
(0 0 0.00172482)
(0 0 0.00171906)
(0 0 0.00171292)
(0 0 0.0017064)
(0 0 0.00169953)
(0 0 0.00169229)
(0 0 0.0016847)
(0 0 0.00167676)
(0 0 0.00166849)
(0 0 0.00165988)
(0 0 0.00165094)
(0 0 0.00164169)
(0 0 0.00163212)
(0 0 0.00162225)
(0 0 0.00161209)
(0 0 0.00160163)
(0 0 0.00159089)
(0 0 0.00157988)
(0 0 0.0015686)
(0 0 0.00155706)
(0 0 0.00154527)
(0 0 0.00153324)
(0 0 0.00152097)
(0 0 0.00150847)
(0 0 0.00149575)
(0 0 0.00148281)
(0 0 0.00146967)
(0 0 0.00145633)
(0 0 0.0014428)
(0 0 0.00142908)
(0 0 0.00141518)
(0 0 0.00140112)
(0 0 0.00138689)
(0 0 0.0013725)
(0 0 0.00135797)
(0 0 0.00134329)
(0 0 0.00132847)
(0 0 0.00131352)
(0 0 0.00129845)
(0 0 0.00128326)
(0 0 0.00126795)
(0 0 0.00125254)
(0 0 0.00123703)
(0 0 0.00122143)
(0 0 0.00120573)
(0 0 0.00118995)
(0 0 0.00117409)
(0 0 0.00115815)
(0 0 0.00114214)
(0 0 0.00112607)
(0 0 0.00110993)
(0 0 0.00109374)
(0 0 0.00107749)
(0 0 0.0010612)
(0 0 0.00104486)
(0 0 0.00102848)
(0 0 0.00101206)
(0 0 0.000995612)
(0 0 0.000979128)
(0 0 0.000962617)
(0 0 0.000946081)
(0 0 0.000929523)
(0 0 0.000912946)
(0 0 0.000896352)
(0 0 0.000879743)
(0 0 0.000863123)
(0 0 0.000846494)
(0 0 0.000829857)
(0 0 0.000813214)
(0 0 0.000796568)
(0 0 0.00077992)
(0 0 0.000763272)
(0 0 0.000746625)
(0 0 0.000729981)
(0 0 0.000713341)
(0 0 0.000696707)
(0 0 0.000680079)
(0 0 0.000663458)
(0 0 0.000646846)
(0 0 0.000630244)
(0 0 0.000613652)
(0 0 0.00059707)
(0 0 0.0005805)
(0 0 0.000563942)
(0 0 0.000547397)
(0 0 0.000530865)
(0 0 0.000514345)
(0 0 0.00049784)
(0 0 0.000481348)
(0 0 0.00046487)
(0 0 0.000448405)
(0 0 0.000431955)
(0 0 0.000415518)
(0 0 0.000399096)
(0 0 0.000382687)
(0 0 0.000366291)
(0 0 0.000349908)
(0 0 0.000333539)
(0 0 0.000317181)
(0 0 0.000300836)
(0 0 0.000284503)
(0 0 0.000268182)
(0 0 0.000251871)
(0 0 0.00023557)
(0 0 0.000219279)
(0 0 0.000202998)
(0 0 0.000186725)
(0 0 0.00017046)
(0 0 0.000154203)
(0 0 0.000137953)
(0 0 0.000121708)
(0 0 0.000105469)
(0 0 8.92353e-05)
(0 0 7.30052e-05)
(0 0 5.67784e-05)
(0 0 4.05541e-05)
(0 0 2.43317e-05)
(0 0 8.11046e-06)
(0 0 2.58166e-05)
(0 0 7.74514e-05)
(0 0 0.000129091)
(0 0 0.000180737)
(0 0 0.000232394)
(0 0 0.000284063)
(0 0 0.000335749)
(0 0 0.000387453)
(0 0 0.000439179)
(0 0 0.000490929)
(0 0 0.000542706)
(0 0 0.000594511)
(0 0 0.000646349)
(0 0 0.00069822)
(0 0 0.000750128)
(0 0 0.000802074)
(0 0 0.00085406)
(0 0 0.000906089)
(0 0 0.000958162)
(0 0 0.00101028)
(0 0 0.00106245)
(0 0 0.00111466)
(0 0 0.00116692)
(0 0 0.00121924)
(0 0 0.0012716)
(0 0 0.00132402)
(0 0 0.00137649)
(0 0 0.00142901)
(0 0 0.00148158)
(0 0 0.0015342)
(0 0 0.00158688)
(0 0 0.0016396)
(0 0 0.00169237)
(0 0 0.00174519)
(0 0 0.00179805)
(0 0 0.00185096)
(0 0 0.00190391)
(0 0 0.00195689)
(0 0 0.00200991)
(0 0 0.00206296)
(0 0 0.00211604)
(0 0 0.00216913)
(0 0 0.00222225)
(0 0 0.00227538)
(0 0 0.00232852)
(0 0 0.00238165)
(0 0 0.00243479)
(0 0 0.00248791)
(0 0 0.00254101)
(0 0 0.00259408)
(0 0 0.00264712)
(0 0 0.00270011)
(0 0 0.00275305)
(0 0 0.00280592)
(0 0 0.00285873)
(0 0 0.00291144)
(0 0 0.00296406)
(0 0 0.00301657)
(0 0 0.00306897)
(0 0 0.00312122)
(0 0 0.00317333)
(0 0 0.00322528)
(0 0 0.00327706)
(0 0 0.00332864)
(0 0 0.00338001)
(0 0 0.00343116)
(0 0 0.00348207)
(0 0 0.00353273)
(0 0 0.0035831)
(0 0 0.00363319)
(0 0 0.00368296)
(0 0 0.00373239)
(0 0 0.00378148)
(0 0 0.00383019)
(0 0 0.00387851)
(0 0 0.00392641)
(0 0 0.00397387)
(0 0 0.00402088)
(0 0 0.0040674)
(0 0 0.00411342)
(0 0 0.00415891)
(0 0 0.00420384)
(0 0 0.00424821)
(0 0 0.00429197)
(0 0 0.00433511)
(0 0 0.0043776)
(0 0 0.00441941)
(0 0 0.00446053)
(0 0 0.00450093)
(0 0 0.00454058)
(0 0 0.00457946)
(0 0 0.00461754)
(0 0 0.00465481)
(0 0 0.00469122)
(0 0 0.00472677)
(0 0 0.00476143)
(0 0 0.00479517)
(0 0 0.00482796)
(0 0 0.0048598)
(0 0 0.00489065)
(0 0 0.0049205)
(0 0 0.00494932)
(0 0 0.00497709)
(0 0 0.00500379)
(0 0 0.0050294)
(0 0 0.0050539)
(0 0 0.00507728)
(0 0 0.00509952)
(0 0 0.0051206)
(0 0 0.00514051)
(0 0 0.00515922)
(0 0 0.00517674)
(0 0 0.00519304)
(0 0 0.00520811)
(0 0 0.00522195)
(0 0 0.00523454)
(0 0 0.00524588)
(0 0 0.00525595)
(0 0 0.00526476)
(0 0 0.00527229)
(0 0 0.00527855)
(0 0 0.00528352)
(0 0 0.00528721)
(0 0 0.00528962)
(0 0 0.00529075)
(0 0 0.0052906)
(0 0 0.00528917)
(0 0 0.00528646)
(0 0 0.00528249)
(0 0 0.00527726)
(0 0 0.00527076)
(0 0 0.00526303)
(0 0 0.00525405)
(0 0 0.00524385)
(0 0 0.00523243)
(0 0 0.00521981)
(0 0 0.00520599)
(0 0 0.005191)
(0 0 0.00517485)
(0 0 0.00515755)
(0 0 0.00513912)
(0 0 0.00511957)
(0 0 0.00509893)
(0 0 0.00507721)
(0 0 0.00505444)
(0 0 0.00503062)
(0 0 0.00500579)
(0 0 0.00497995)
(0 0 0.00495314)
(0 0 0.00492537)
(0 0 0.00489667)
(0 0 0.00486706)
(0 0 0.00483655)
(0 0 0.00480517)
(0 0 0.00477295)
(0 0 0.00473991)
(0 0 0.00470606)
(0 0 0.00467144)
(0 0 0.00463606)
(0 0 0.00459995)
(0 0 0.00456313)
(0 0 0.00452562)
(0 0 0.00448745)
(0 0 0.00444863)
(0 0 0.0044092)
(0 0 0.00436917)
(0 0 0.00432856)
(0 0 0.0042874)
(0 0 0.00424571)
(0 0 0.00420351)
(0 0 0.00416081)
(0 0 0.00411765)
(0 0 0.00407403)
(0 0 0.00402999)
(0 0 0.00398553)
(0 0 0.00394068)
(0 0 0.00389546)
(0 0 0.00384988)
(0 0 0.00380397)
(0 0 0.00375773)
(0 0 0.00371119)
(0 0 0.00366436)
(0 0 0.00361727)
(0 0 0.00356992)
(0 0 0.00352232)
(0 0 0.00347451)
(0 0 0.00342648)
(0 0 0.00337825)
(0 0 0.00332985)
(0 0 0.00328126)
(0 0 0.00323253)
(0 0 0.00318364)
(0 0 0.00313462)
(0 0 0.00308548)
(0 0 0.00303622)
(0 0 0.00298686)
(0 0 0.00293741)
(0 0 0.00288787)
(0 0 0.00283826)
(0 0 0.00278858)
(0 0 0.00273885)
(0 0 0.00268906)
(0 0 0.00263924)
(0 0 0.00258937)
(0 0 0.00253948)
(0 0 0.00248957)
(0 0 0.00243964)
(0 0 0.0023897)
(0 0 0.00233976)
(0 0 0.00228981)
(0 0 0.00223987)
(0 0 0.00218993)
(0 0 0.00214001)
(0 0 0.00209011)
(0 0 0.00204022)
(0 0 0.00199036)
(0 0 0.00194053)
(0 0 0.00189072)
(0 0 0.00184094)
(0 0 0.00179119)
(0 0 0.00174148)
(0 0 0.00169181)
(0 0 0.00164217)
(0 0 0.00159258)
(0 0 0.00154302)
(0 0 0.0014935)
(0 0 0.00144403)
(0 0 0.00139459)
(0 0 0.0013452)
(0 0 0.00129585)
(0 0 0.00124654)
(0 0 0.00119727)
(0 0 0.00114804)
(0 0 0.00109886)
(0 0 0.00104971)
(0 0 0.0010006)
(0 0 0.00095153)
(0 0 0.000902496)
(0 0 0.000853497)
(0 0 0.000804532)
(0 0 0.0007556)
(0 0 0.000706699)
(0 0 0.000657827)
(0 0 0.000608984)
(0 0 0.000560166)
(0 0 0.000511373)
(0 0 0.000462602)
(0 0 0.000413851)
(0 0 0.000365119)
(0 0 0.000316403)
(0 0 0.000267701)
(0 0 0.000219012)
(0 0 0.000170332)
(0 0 0.00012166)
(0 0 7.29941e-05)
(0 0 2.4331e-05)
(0 0 4.30261e-05)
(0 0 0.000129081)
(0 0 0.000215143)
(0 0 0.000301217)
(0 0 0.000387309)
(0 0 0.000473422)
(0 0 0.000559561)
(0 0 0.000645732)
(0 0 0.000731939)
(0 0 0.000818186)
(0 0 0.000904477)
(0 0 0.000990817)
(0 0 0.00107721)
(0 0 0.00116366)
(0 0 0.00125017)
(0 0 0.00133675)
(0 0 0.00142339)
(0 0 0.0015101)
(0 0 0.00159689)
(0 0 0.00168375)
(0 0 0.00177069)
(0 0 0.00185771)
(0 0 0.00194482)
(0 0 0.00203201)
(0 0 0.00211928)
(0 0 0.00220664)
(0 0 0.00229409)
(0 0 0.00238162)
(0 0 0.00246924)
(0 0 0.00255695)
(0 0 0.00264474)
(0 0 0.00273261)
(0 0 0.00282057)
(0 0 0.0029086)
(0 0 0.00299671)
(0 0 0.00308489)
(0 0 0.00317314)
(0 0 0.00326145)
(0 0 0.00334982)
(0 0 0.00343824)
(0 0 0.0035267)
(0 0 0.00361521)
(0 0 0.00370374)
(0 0 0.00379229)
(0 0 0.00388086)
(0 0 0.00396943)
(0 0 0.00405799)
(0 0 0.00414653)
(0 0 0.00423504)
(0 0 0.00432351)
(0 0 0.00441191)
(0 0 0.00450024)
(0 0 0.00458849)
(0 0 0.00467662)
(0 0 0.00476464)
(0 0 0.00485251)
(0 0 0.00494023)
(0 0 0.00502776)
(0 0 0.00511509)
(0 0 0.00520221)
(0 0 0.00528907)
(0 0 0.00537567)
(0 0 0.00546198)
(0 0 0.00554796)
(0 0 0.0056336)
(0 0 0.00571888)
(0 0 0.00580375)
(0 0 0.00588819)
(0 0 0.00597217)
(0 0 0.00605566)
(0 0 0.00613863)
(0 0 0.00622105)
(0 0 0.00630288)
(0 0 0.00638409)
(0 0 0.00646464)
(0 0 0.0065445)
(0 0 0.00662363)
(0 0 0.006702)
(0 0 0.00677956)
(0 0 0.00685628)
(0 0 0.00693212)
(0 0 0.00700705)
(0 0 0.00708101)
(0 0 0.00715397)
(0 0 0.0072259)
(0 0 0.00729674)
(0 0 0.00736646)
(0 0 0.00743502)
(0 0 0.00750238)
(0 0 0.00756849)
(0 0 0.00763332)
(0 0 0.00769682)
(0 0 0.00775895)
(0 0 0.00781967)
(0 0 0.00787894)
(0 0 0.00793673)
(0 0 0.00799299)
(0 0 0.00804768)
(0 0 0.00810076)
(0 0 0.00815221)
(0 0 0.00820198)
(0 0 0.00825003)
(0 0 0.00829633)
(0 0 0.00834085)
(0 0 0.00838356)
(0 0 0.00842442)
(0 0 0.00846341)
(0 0 0.00850049)
(0 0 0.00853564)
(0 0 0.00856883)
(0 0 0.00860004)
(0 0 0.00862925)
(0 0 0.00865643)
(0 0 0.00868157)
(0 0 0.00870464)
(0 0 0.00872563)
(0 0 0.00874454)
(0 0 0.00876133)
(0 0 0.00877601)
(0 0 0.00878857)
(0 0 0.008799)
(0 0 0.00880729)
(0 0 0.00881345)
(0 0 0.00881746)
(0 0 0.00881934)
(0 0 0.00881908)
(0 0 0.00881669)
(0 0 0.00881218)
(0 0 0.00880555)
(0 0 0.00879682)
(0 0 0.00878599)
(0 0 0.00877309)
(0 0 0.00875812)
(0 0 0.0087411)
(0 0 0.00872206)
(0 0 0.008701)
(0 0 0.00867796)
(0 0 0.00865296)
(0 0 0.00862602)
(0 0 0.00859717)
(0 0 0.00856643)
(0 0 0.00853384)
(0 0 0.00849942)
(0 0 0.0084632)
(0 0 0.00842522)
(0 0 0.0083855)
(0 0 0.00834409)
(0 0 0.00830101)
(0 0 0.0082563)
(0 0 0.00821)
(0 0 0.00816213)
(0 0 0.00811275)
(0 0 0.00806188)
(0 0 0.00800956)
(0 0 0.00795583)
(0 0 0.00790073)
(0 0 0.0078443)
(0 0 0.00778657)
(0 0 0.00772758)
(0 0 0.00766737)
(0 0 0.00760597)
(0 0 0.00754344)
(0 0 0.00747979)
(0 0 0.00741508)
(0 0 0.00734933)
(0 0 0.00728259)
(0 0 0.00721489)
(0 0 0.00714627)
(0 0 0.00707675)
(0 0 0.00700639)
(0 0 0.00693521)
(0 0 0.00686325)
(0 0 0.00679053)
(0 0 0.0067171)
(0 0 0.00664298)
(0 0 0.00656822)
(0 0 0.00649282)
(0 0 0.00641684)
(0 0 0.0063403)
(0 0 0.00626322)
(0 0 0.00618563)
(0 0 0.00610757)
(0 0 0.00602906)
(0 0 0.00595013)
(0 0 0.00587079)
(0 0 0.00579108)
(0 0 0.00571102)
(0 0 0.00563063)
(0 0 0.00554993)
(0 0 0.00546895)
(0 0 0.00538771)
(0 0 0.00530622)
(0 0 0.0052245)
(0 0 0.00514259)
(0 0 0.00506048)
(0 0 0.0049782)
(0 0 0.00489577)
(0 0 0.0048132)
(0 0 0.0047305)
(0 0 0.0046477)
(0 0 0.0045648)
(0 0 0.00448182)
(0 0 0.00439877)
(0 0 0.00431565)
(0 0 0.0042325)
(0 0 0.0041493)
(0 0 0.00406608)
(0 0 0.00398284)
(0 0 0.00389959)
(0 0 0.00381634)
(0 0 0.0037331)
(0 0 0.00364988)
(0 0 0.00356667)
(0 0 0.00348349)
(0 0 0.00340035)
(0 0 0.00331724)
(0 0 0.00323418)
(0 0 0.00315116)
(0 0 0.0030682)
(0 0 0.00298529)
(0 0 0.00290243)
(0 0 0.00281964)
(0 0 0.00273691)
(0 0 0.00265425)
(0 0 0.00257165)
(0 0 0.00248912)
(0 0 0.00240666)
(0 0 0.00232427)
(0 0 0.00224195)
(0 0 0.0021597)
(0 0 0.00207752)
(0 0 0.0019954)
(0 0 0.00191336)
(0 0 0.00183138)
(0 0 0.00174947)
(0 0 0.00166763)
(0 0 0.00158584)
(0 0 0.00150412)
(0 0 0.00142246)
(0 0 0.00134085)
(0 0 0.0012593)
(0 0 0.0011778)
(0 0 0.00109635)
(0 0 0.00101494)
(0 0 0.000933583)
(0 0 0.000852263)
(0 0 0.00077098)
(0 0 0.000689731)
(0 0 0.000608513)
(0 0 0.000527322)
(0 0 0.000446155)
(0 0 0.000365008)
(0 0 0.000283878)
(0 0 0.000202761)
(0 0 0.000121653)
(0 0 4.05504e-05)
(0 0 6.02331e-05)
(0 0 0.000180703)
(0 0 0.000301183)
(0 0 0.00042168)
(0 0 0.000542201)
(0 0 0.000662753)
(0 0 0.000783342)
(0 0 0.000903975)
(0 0 0.00102466)
(0 0 0.0011454)
(0 0 0.0012662)
(0 0 0.00138707)
(0 0 0.00150801)
(0 0 0.00162904)
(0 0 0.00175015)
(0 0 0.00187135)
(0 0 0.00199264)
(0 0 0.00211404)
(0 0 0.00223553)
(0 0 0.00235714)
(0 0 0.00247885)
(0 0 0.00260068)
(0 0 0.00272263)
(0 0 0.00284469)
(0 0 0.00296687)
(0 0 0.00308918)
(0 0 0.0032116)
(0 0 0.00333415)
(0 0 0.00345682)
(0 0 0.00357961)
(0 0 0.00370252)
(0 0 0.00382554)
(0 0 0.00394868)
(0 0 0.00407194)
(0 0 0.00419529)
(0 0 0.00431875)
(0 0 0.0044423)
(0 0 0.00456595)
(0 0 0.00468967)
(0 0 0.00481347)
(0 0 0.00493733)
(0 0 0.00506125)
(0 0 0.0051852)
(0 0 0.00530919)
(0 0 0.0054332)
(0 0 0.00555721)
(0 0 0.00568122)
(0 0 0.00580519)
(0 0 0.00592912)
(0 0 0.00605299)
(0 0 0.00617678)
(0 0 0.00630047)
(0 0 0.00642403)
(0 0 0.00654744)
(0 0 0.00667069)
(0 0 0.00679374)
(0 0 0.00691657)
(0 0 0.00703914)
(0 0 0.00716144)
(0 0 0.00728343)
(0 0 0.00740508)
(0 0 0.00752635)
(0 0 0.00764721)
(0 0 0.00776763)
(0 0 0.00788757)
(0 0 0.00800699)
(0 0 0.00812584)
(0 0 0.0082441)
(0 0 0.00836172)
(0 0 0.00847866)
(0 0 0.00859486)
(0 0 0.00871029)
(0 0 0.0088249)
(0 0 0.00893864)
(0 0 0.00905147)
(0 0 0.00916332)
(0 0 0.00927416)
(0 0 0.00938392)
(0 0 0.00949256)
(0 0 0.00960003)
(0 0 0.00970626)
(0 0 0.00981121)
(0 0 0.00991481)
(0 0 0.010017)
(0 0 0.0101178)
(0 0 0.010217)
(0 0 0.0103147)
(0 0 0.0104107)
(0 0 0.0105051)
(0 0 0.0105977)
(0 0 0.0106885)
(0 0 0.0107775)
(0 0 0.0108645)
(0 0 0.0109496)
(0 0 0.0110326)
(0 0 0.0111136)
(0 0 0.0111924)
(0 0 0.011269)
(0 0 0.0113434)
(0 0 0.0114154)
(0 0 0.0114852)
(0 0 0.0115525)
(0 0 0.0116174)
(0 0 0.0116797)
(0 0 0.0117396)
(0 0 0.0117968)
(0 0 0.0118514)
(0 0 0.0119034)
(0 0 0.0119526)
(0 0 0.0119991)
(0 0 0.0120429)
(0 0 0.0120838)
(0 0 0.0121219)
(0 0 0.0121571)
(0 0 0.0121894)
(0 0 0.0122188)
(0 0 0.0122453)
(0 0 0.0122688)
(0 0 0.0122894)
(0 0 0.012307)
(0 0 0.0123216)
(0 0 0.0123332)
(0 0 0.0123418)
(0 0 0.0123474)
(0 0 0.0123501)
(0 0 0.0123497)
(0 0 0.0123463)
(0 0 0.01234)
(0 0 0.0123307)
(0 0 0.0123185)
(0 0 0.0123033)
(0 0 0.0122852)
(0 0 0.0122642)
(0 0 0.0122404)
(0 0 0.0122137)
(0 0 0.0121842)
(0 0 0.0121519)
(0 0 0.0121169)
(0 0 0.0120791)
(0 0 0.0120387)
(0 0 0.0119956)
(0 0 0.0119499)
(0 0 0.0119017)
(0 0 0.0118509)
(0 0 0.0117977)
(0 0 0.0117421)
(0 0 0.0116841)
(0 0 0.0116237)
(0 0 0.0115611)
(0 0 0.0114962)
(0 0 0.0114291)
(0 0 0.0113599)
(0 0 0.0112887)
(0 0 0.0112154)
(0 0 0.0111401)
(0 0 0.0110629)
(0 0 0.0109838)
(0 0 0.010903)
(0 0 0.0108203)
(0 0 0.010736)
(0 0 0.01065)
(0 0 0.0105624)
(0 0 0.0104732)
(0 0 0.0103826)
(0 0 0.0102905)
(0 0 0.010197)
(0 0 0.0101021)
(0 0 0.010006)
(0 0 0.00990865)
(0 0 0.00981009)
(0 0 0.00971039)
(0 0 0.0096096)
(0 0 0.00950775)
(0 0 0.0094049)
(0 0 0.00930109)
(0 0 0.00919637)
(0 0 0.00909078)
(0 0 0.00898437)
(0 0 0.00887716)
(0 0 0.00876921)
(0 0 0.00866056)
(0 0 0.00855124)
(0 0 0.00844128)
(0 0 0.00833074)
(0 0 0.00821963)
(0 0 0.008108)
(0 0 0.00799588)
(0 0 0.00788331)
(0 0 0.0077703)
(0 0 0.0076569)
(0 0 0.00754313)
(0 0 0.00742902)
(0 0 0.00731459)
(0 0 0.00719988)
(0 0 0.00708491)
(0 0 0.0069697)
(0 0 0.00685427)
(0 0 0.00673865)
(0 0 0.00662286)
(0 0 0.00650692)
(0 0 0.00639084)
(0 0 0.00627465)
(0 0 0.00615836)
(0 0 0.00604198)
(0 0 0.00592555)
(0 0 0.00580906)
(0 0 0.00569254)
(0 0 0.00557599)
(0 0 0.00545943)
(0 0 0.00534287)
(0 0 0.00522632)
(0 0 0.0051098)
(0 0 0.0049933)
(0 0 0.00487684)
(0 0 0.00476043)
(0 0 0.00464408)
(0 0 0.00452778)
(0 0 0.00441155)
(0 0 0.0042954)
(0 0 0.00417932)
(0 0 0.00406332)
(0 0 0.00394741)
(0 0 0.00383159)
(0 0 0.00371586)
(0 0 0.00360022)
(0 0 0.00348468)
(0 0 0.00336923)
(0 0 0.00325388)
(0 0 0.00313863)
(0 0 0.00302348)
(0 0 0.00290843)
(0 0 0.00279347)
(0 0 0.00267861)
(0 0 0.00256384)
(0 0 0.00244917)
(0 0 0.00233459)
(0 0 0.00222009)
(0 0 0.00210568)
(0 0 0.00199136)
(0 0 0.00187711)
(0 0 0.00176294)
(0 0 0.00164885)
(0 0 0.00153482)
(0 0 0.00142086)
(0 0 0.00130696)
(0 0 0.00119312)
(0 0 0.00107932)
(0 0 0.000965581)
(0 0 0.00085188)
(0 0 0.000738218)
(0 0 0.000624589)
(0 0 0.000510989)
(0 0 0.000397412)
(0 0 0.000283853)
(0 0 0.000170306)
(0 0 5.67679e-05)
(0 0 7.74367e-05)
(0 0 0.000232315)
(0 0 0.000387206)
(0 0 0.000542119)
(0 0 0.000697063)
(0 0 0.000852047)
(0 0 0.00100708)
(0 0 0.00116217)
(0 0 0.00131732)
(0 0 0.00147255)
(0 0 0.00162785)
(0 0 0.00178325)
(0 0 0.00193874)
(0 0 0.00209433)
(0 0 0.00225004)
(0 0 0.00240586)
(0 0 0.0025618)
(0 0 0.00271787)
(0 0 0.00287407)
(0 0 0.00303042)
(0 0 0.0031869)
(0 0 0.00334353)
(0 0 0.00350032)
(0 0 0.00365725)
(0 0 0.00381434)
(0 0 0.00397159)
(0 0 0.00412899)
(0 0 0.00428655)
(0 0 0.00444427)
(0 0 0.00460215)
(0 0 0.00476018)
(0 0 0.00491836)
(0 0 0.00507669)
(0 0 0.00523516)
(0 0 0.00539377)
(0 0 0.00555252)
(0 0 0.00571138)
(0 0 0.00587036)
(0 0 0.00602945)
(0 0 0.00618863)
(0 0 0.0063479)
(0 0 0.00650724)
(0 0 0.00666664)
(0 0 0.00682607)
(0 0 0.00698554)
(0 0 0.00714501)
(0 0 0.00730447)
(0 0 0.00746389)
(0 0 0.00762326)
(0 0 0.00778256)
(0 0 0.00794175)
(0 0 0.00810081)
(0 0 0.00825971)
(0 0 0.00841843)
(0 0 0.00857694)
(0 0 0.00873519)
(0 0 0.00889316)
(0 0 0.00905081)
(0 0 0.0092081)
(0 0 0.00936499)
(0 0 0.00952145)
(0 0 0.00967743)
(0 0 0.00983289)
(0 0 0.00998778)
(0 0 0.010142)
(0 0 0.0102957)
(0 0 0.0104485)
(0 0 0.0106007)
(0 0 0.010752)
(0 0 0.0109024)
(0 0 0.0110519)
(0 0 0.0112004)
(0 0 0.0113478)
(0 0 0.0114941)
(0 0 0.0116393)
(0 0 0.0117832)
(0 0 0.0119257)
(0 0 0.012067)
(0 0 0.0122067)
(0 0 0.012345)
(0 0 0.0124817)
(0 0 0.0126167)
(0 0 0.01275)
(0 0 0.0128815)
(0 0 0.0130112)
(0 0 0.0131388)
(0 0 0.0132645)
(0 0 0.0133881)
(0 0 0.0135095)
(0 0 0.0136287)
(0 0 0.0137455)
(0 0 0.01386)
(0 0 0.013972)
(0 0 0.0140815)
(0 0 0.0141884)
(0 0 0.0142925)
(0 0 0.014394)
(0 0 0.0144926)
(0 0 0.0145883)
(0 0 0.014681)
(0 0 0.0147708)
(0 0 0.0148574)
(0 0 0.0149409)
(0 0 0.0150212)
(0 0 0.0150982)
(0 0 0.0151718)
(0 0 0.0152421)
(0 0 0.015309)
(0 0 0.0153724)
(0 0 0.0154322)
(0 0 0.0154885)
(0 0 0.0155412)
(0 0 0.0155902)
(0 0 0.0156355)
(0 0 0.0156771)
(0 0 0.0157149)
(0 0 0.015749)
(0 0 0.0157793)
(0 0 0.0158058)
(0 0 0.0158284)
(0 0 0.0158472)
(0 0 0.0158621)
(0 0 0.0158732)
(0 0 0.0158804)
(0 0 0.0158838)
(0 0 0.0158833)
(0 0 0.015879)
(0 0 0.0158708)
(0 0 0.0158588)
(0 0 0.0158431)
(0 0 0.0158235)
(0 0 0.0158002)
(0 0 0.0157732)
(0 0 0.0157425)
(0 0 0.0157081)
(0 0 0.0156701)
(0 0 0.0156286)
(0 0 0.0155835)
(0 0 0.0155349)
(0 0 0.0154828)
(0 0 0.0154274)
(0 0 0.0153686)
(0 0 0.0153065)
(0 0 0.0152412)
(0 0 0.0151727)
(0 0 0.015101)
(0 0 0.0150264)
(0 0 0.0149487)
(0 0 0.014868)
(0 0 0.0147845)
(0 0 0.0146982)
(0 0 0.0146092)
(0 0 0.0145175)
(0 0 0.0144231)
(0 0 0.0143263)
(0 0 0.0142269)
(0 0 0.0141252)
(0 0 0.0140211)
(0 0 0.0139148)
(0 0 0.0138062)
(0 0 0.0136956)
(0 0 0.0135828)
(0 0 0.0134681)
(0 0 0.0133515)
(0 0 0.013233)
(0 0 0.0131127)
(0 0 0.0129907)
(0 0 0.012867)
(0 0 0.0127417)
(0 0 0.0126149)
(0 0 0.0124867)
(0 0 0.012357)
(0 0 0.012226)
(0 0 0.0120937)
(0 0 0.0119601)
(0 0 0.0118254)
(0 0 0.0116896)
(0 0 0.0115527)
(0 0 0.0114148)
(0 0 0.0112759)
(0 0 0.0111362)
(0 0 0.0109955)
(0 0 0.0108541)
(0 0 0.0107119)
(0 0 0.010569)
(0 0 0.0104254)
(0 0 0.0102812)
(0 0 0.0101364)
(0 0 0.00999107)
(0 0 0.00984522)
(0 0 0.0096989)
(0 0 0.00955214)
(0 0 0.00940497)
(0 0 0.00925745)
(0 0 0.00910958)
(0 0 0.00896141)
(0 0 0.00881297)
(0 0 0.00866428)
(0 0 0.00851537)
(0 0 0.00836627)
(0 0 0.00821699)
(0 0 0.00806757)
(0 0 0.00791803)
(0 0 0.00776838)
(0 0 0.00761865)
(0 0 0.00746886)
(0 0 0.00731902)
(0 0 0.00716915)
(0 0 0.00701927)
(0 0 0.00686939)
(0 0 0.00671952)
(0 0 0.00656969)
(0 0 0.00641989)
(0 0 0.00627015)
(0 0 0.00612047)
(0 0 0.00597085)
(0 0 0.00582132)
(0 0 0.00567187)
(0 0 0.00552252)
(0 0 0.00537327)
(0 0 0.00522413)
(0 0 0.00507509)
(0 0 0.00492617)
(0 0 0.00477737)
(0 0 0.00462869)
(0 0 0.00448014)
(0 0 0.0043317)
(0 0 0.0041834)
(0 0 0.00403522)
(0 0 0.00388717)
(0 0 0.00373924)
(0 0 0.00359144)
(0 0 0.00344377)
(0 0 0.00329621)
(0 0 0.00314878)
(0 0 0.00300146)
(0 0 0.00285426)
(0 0 0.00270717)
(0 0 0.00256018)
(0 0 0.0024133)
(0 0 0.00226652)
(0 0 0.00211983)
(0 0 0.00197323)
(0 0 0.00182672)
(0 0 0.00168028)
(0 0 0.00153392)
(0 0 0.00138762)
(0 0 0.00124139)
(0 0 0.00109521)
(0 0 0.000949081)
(0 0 0.000802995)
(0 0 0.000656946)
(0 0 0.000510927)
(0 0 0.000364931)
(0 0 0.000218952)
(0 0 7.29829e-05)
(0 0 9.46358e-05)
(0 0 0.000283913)
(0 0 0.000473206)
(0 0 0.000662527)
(0 0 0.000851885)
(0 0 0.00104129)
(0 0 0.00123076)
(0 0 0.00142029)
(0 0 0.00160991)
(0 0 0.00179961)
(0 0 0.00198942)
(0 0 0.00217933)
(0 0 0.00236936)
(0 0 0.00255952)
(0 0 0.00274981)
(0 0 0.00294024)
(0 0 0.00313083)
(0 0 0.00332157)
(0 0 0.00351247)
(0 0 0.00370355)
(0 0 0.0038948)
(0 0 0.00408624)
(0 0 0.00427785)
(0 0 0.00446966)
(0 0 0.00466165)
(0 0 0.00485384)
(0 0 0.00504622)
(0 0 0.0052388)
(0 0 0.00543157)
(0 0 0.00562453)
(0 0 0.00581769)
(0 0 0.00601103)
(0 0 0.00620455)
(0 0 0.00639825)
(0 0 0.00659212)
(0 0 0.00678615)
(0 0 0.00698034)
(0 0 0.00717467)
(0 0 0.00736913)
(0 0 0.00756372)
(0 0 0.0077584)
(0 0 0.00795318)
(0 0 0.00814803)
(0 0 0.00834293)
(0 0 0.00853786)
(0 0 0.00873281)
(0 0 0.00892775)
(0 0 0.00912264)
(0 0 0.00931748)
(0 0 0.00951222)
(0 0 0.00970684)
(0 0 0.00990131)
(0 0 0.0100956)
(0 0 0.0102896)
(0 0 0.0104834)
(0 0 0.0106769)
(0 0 0.0108701)
(0 0 0.0110628)
(0 0 0.0112551)
(0 0 0.011447)
(0 0 0.0116383)
(0 0 0.011829)
(0 0 0.0120191)
(0 0 0.0122085)
(0 0 0.0123972)
(0 0 0.012585)
(0 0 0.012772)
(0 0 0.012958)
(0 0 0.0131431)
(0 0 0.013327)
(0 0 0.0135099)
(0 0 0.0136915)
(0 0 0.0138718)
(0 0 0.0140508)
(0 0 0.0142283)
(0 0 0.0144043)
(0 0 0.0145787)
(0 0 0.0147515)
(0 0 0.0149224)
(0 0 0.0150916)
(0 0 0.0152588)
(0 0 0.0154239)
(0 0 0.015587)
(0 0 0.0157479)
(0 0 0.0159065)
(0 0 0.0160627)
(0 0 0.0162164)
(0 0 0.0163676)
(0 0 0.0165162)
(0 0 0.016662)
(0 0 0.016805)
(0 0 0.016945)
(0 0 0.0170821)
(0 0 0.017216)
(0 0 0.0173468)
(0 0 0.0174743)
(0 0 0.0175984)
(0 0 0.017719)
(0 0 0.0178361)
(0 0 0.0179496)
(0 0 0.0180594)
(0 0 0.0181655)
(0 0 0.0182676)
(0 0 0.0183659)
(0 0 0.0184601)
(0 0 0.0185502)
(0 0 0.0186363)
(0 0 0.0187181)
(0 0 0.0187956)
(0 0 0.0188689)
(0 0 0.0189377)
(0 0 0.0190022)
(0 0 0.0190622)
(0 0 0.0191176)
(0 0 0.0191685)
(0 0 0.0192148)
(0 0 0.0192565)
(0 0 0.0192936)
(0 0 0.0193259)
(0 0 0.0193536)
(0 0 0.0193766)
(0 0 0.0193949)
(0 0 0.0194084)
(0 0 0.0194173)
(0 0 0.0194214)
(0 0 0.0194207)
(0 0 0.0194154)
(0 0 0.0194054)
(0 0 0.0193908)
(0 0 0.0193714)
(0 0 0.0193475)
(0 0 0.019319)
(0 0 0.0192859)
(0 0 0.0192483)
(0 0 0.0192062)
(0 0 0.0191597)
(0 0 0.0191088)
(0 0 0.0190536)
(0 0 0.0189941)
(0 0 0.0189304)
(0 0 0.0188625)
(0 0 0.0187905)
(0 0 0.0187145)
(0 0 0.0186346)
(0 0 0.0185507)
(0 0 0.0184631)
(0 0 0.0183717)
(0 0 0.0182766)
(0 0 0.0181779)
(0 0 0.0180757)
(0 0 0.0179701)
(0 0 0.0178611)
(0 0 0.0177489)
(0 0 0.0176335)
(0 0 0.0175149)
(0 0 0.0173934)
(0 0 0.0172689)
(0 0 0.0171415)
(0 0 0.0170114)
(0 0 0.0168786)
(0 0 0.0167432)
(0 0 0.0166053)
(0 0 0.016465)
(0 0 0.0163223)
(0 0 0.0161773)
(0 0 0.0160301)
(0 0 0.0158809)
(0 0 0.0157296)
(0 0 0.0155764)
(0 0 0.0154213)
(0 0 0.0152644)
(0 0 0.0151057)
(0 0 0.0149455)
(0 0 0.0147837)
(0 0 0.0146203)
(0 0 0.0144556)
(0 0 0.0142894)
(0 0 0.014122)
(0 0 0.0139533)
(0 0 0.0137835)
(0 0 0.0136126)
(0 0 0.0134406)
(0 0 0.0132677)
(0 0 0.0130938)
(0 0 0.012919)
(0 0 0.0127435)
(0 0 0.0125671)
(0 0 0.0123901)
(0 0 0.0122124)
(0 0 0.012034)
(0 0 0.0118551)
(0 0 0.0116757)
(0 0 0.0114957)
(0 0 0.0113153)
(0 0 0.0111346)
(0 0 0.0109534)
(0 0 0.0107719)
(0 0 0.0105901)
(0 0 0.0104081)
(0 0 0.0102258)
(0 0 0.0100433)
(0 0 0.00986062)
(0 0 0.0096778)
(0 0 0.00949486)
(0 0 0.00931182)
(0 0 0.0091287)
(0 0 0.00894553)
(0 0 0.00876233)
(0 0 0.00857911)
(0 0 0.00839589)
(0 0 0.0082127)
(0 0 0.00802954)
(0 0 0.00784644)
(0 0 0.00766339)
(0 0 0.00748043)
(0 0 0.00729755)
(0 0 0.00711477)
(0 0 0.0069321)
(0 0 0.00674955)
(0 0 0.00656712)
(0 0 0.00638482)
(0 0 0.00620266)
(0 0 0.00602064)
(0 0 0.00583877)
(0 0 0.00565704)
(0 0 0.00547547)
(0 0 0.00529405)
(0 0 0.00511279)
(0 0 0.00493168)
(0 0 0.00475073)
(0 0 0.00456993)
(0 0 0.00438929)
(0 0 0.0042088)
(0 0 0.00402846)
(0 0 0.00384827)
(0 0 0.00366822)
(0 0 0.00348832)
(0 0 0.00330854)
(0 0 0.0031289)
(0 0 0.00294939)
(0 0 0.00277)
(0 0 0.00259072)
(0 0 0.00241156)
(0 0 0.00223249)
(0 0 0.00205353)
(0 0 0.00187465)
(0 0 0.00169586)
(0 0 0.00151714)
(0 0 0.00133849)
(0 0 0.0011599)
(0 0 0.000981364)
(0 0 0.000802873)
(0 0 0.000624418)
(0 0 0.000445993)
(0 0 0.000267588)
(0 0 8.91945e-05)
(0 0 0.000111829)
(0 0 0.000335495)
(0 0 0.00055918)
(0 0 0.000782897)
(0 0 0.00100666)
(0 0 0.00123048)
(0 0 0.00145437)
(0 0 0.00167834)
(0 0 0.00190241)
(0 0 0.00212658)
(0 0 0.00235087)
(0 0 0.00257529)
(0 0 0.00279985)
(0 0 0.00302456)
(0 0 0.00324943)
(0 0 0.00347448)
(0 0 0.0036997)
(0 0 0.0039251)
(0 0 0.0041507)
(0 0 0.00437651)
(0 0 0.00460252)
(0 0 0.00482875)
(0 0 0.0050552)
(0 0 0.00528187)
(0 0 0.00550877)
(0 0 0.0057359)
(0 0 0.00596326)
(0 0 0.00619085)
(0 0 0.00641867)
(0 0 0.00664673)
(0 0 0.00687501)
(0 0 0.00710351)
(0 0 0.00733223)
(0 0 0.00756117)
(0 0 0.0077903)
(0 0 0.00801964)
(0 0 0.00824916)
(0 0 0.00847885)
(0 0 0.0087087)
(0 0 0.00893869)
(0 0 0.00916881)
(0 0 0.00939904)
(0 0 0.00962936)
(0 0 0.00985975)
(0 0 0.0100902)
(0 0 0.0103206)
(0 0 0.0105511)
(0 0 0.0107815)
(0 0 0.0110118)
(0 0 0.011242)
(0 0 0.0114721)
(0 0 0.011702)
(0 0 0.0119317)
(0 0 0.0121611)
(0 0 0.0123902)
(0 0 0.012619)
(0 0 0.0128474)
(0 0 0.0130753)
(0 0 0.0133027)
(0 0 0.0135295)
(0 0 0.0137557)
(0 0 0.0139813)
(0 0 0.0142061)
(0 0 0.01443)
(0 0 0.0146531)
(0 0 0.0148753)
(0 0 0.0150964)
(0 0 0.0153164)
(0 0 0.0155353)
(0 0 0.0157528)
(0 0 0.0159691)
(0 0 0.0161839)
(0 0 0.0163972)
(0 0 0.0166088)
(0 0 0.0168188)
(0 0 0.017027)
(0 0 0.0172334)
(0 0 0.0174377)
(0 0 0.01764)
(0 0 0.01784)
(0 0 0.0180378)
(0 0 0.0182333)
(0 0 0.0184262)
(0 0 0.0186165)
(0 0 0.0188042)
(0 0 0.018989)
(0 0 0.0191709)
(0 0 0.0193498)
(0 0 0.0195256)
(0 0 0.0196981)
(0 0 0.0198673)
(0 0 0.0200331)
(0 0 0.0201952)
(0 0 0.0203537)
(0 0 0.0205085)
(0 0 0.0206593)
(0 0 0.0208062)
(0 0 0.020949)
(0 0 0.0210876)
(0 0 0.0212219)
(0 0 0.0213519)
(0 0 0.0214774)
(0 0 0.0215983)
(0 0 0.0217146)
(0 0 0.0218261)
(0 0 0.0219328)
(0 0 0.0220346)
(0 0 0.0221314)
(0 0 0.0222232)
(0 0 0.0223099)
(0 0 0.0223914)
(0 0 0.0224677)
(0 0 0.0225387)
(0 0 0.0226043)
(0 0 0.0226645)
(0 0 0.0227193)
(0 0 0.0227687)
(0 0 0.0228125)
(0 0 0.0228508)
(0 0 0.0228836)
(0 0 0.0229108)
(0 0 0.0229324)
(0 0 0.0229484)
(0 0 0.0229588)
(0 0 0.0229636)
(0 0 0.0229629)
(0 0 0.0229566)
(0 0 0.0229447)
(0 0 0.0229273)
(0 0 0.0229044)
(0 0 0.0228761)
(0 0 0.0228423)
(0 0 0.0228031)
(0 0 0.0227585)
(0 0 0.0227087)
(0 0 0.0226536)
(0 0 0.0225934)
(0 0 0.022528)
(0 0 0.0224575)
(0 0 0.0223821)
(0 0 0.0223017)
(0 0 0.0222165)
(0 0 0.0221265)
(0 0 0.0220319)
(0 0 0.0219326)
(0 0 0.0218288)
(0 0 0.0217206)
(0 0 0.0216081)
(0 0 0.0214913)
(0 0 0.0213703)
(0 0 0.0212453)
(0 0 0.0211163)
(0 0 0.0209835)
(0 0 0.0208469)
(0 0 0.0207066)
(0 0 0.0205627)
(0 0 0.0204154)
(0 0 0.0202647)
(0 0 0.0201108)
(0 0 0.0199536)
(0 0 0.0197934)
(0 0 0.0196302)
(0 0 0.0194642)
(0 0 0.0192953)
(0 0 0.0191238)
(0 0 0.0189497)
(0 0 0.0187731)
(0 0 0.0185941)
(0 0 0.0184129)
(0 0 0.0182294)
(0 0 0.0180438)
(0 0 0.0178561)
(0 0 0.0176666)
(0 0 0.0174751)
(0 0 0.017282)
(0 0 0.0170871)
(0 0 0.0168906)
(0 0 0.0166926)
(0 0 0.0164931)
(0 0 0.0162922)
(0 0 0.0160901)
(0 0 0.0158867)
(0 0 0.0156822)
(0 0 0.0154766)
(0 0 0.0152699)
(0 0 0.0150623)
(0 0 0.0148538)
(0 0 0.0146444)
(0 0 0.0144343)
(0 0 0.0142234)
(0 0 0.0140118)
(0 0 0.0137997)
(0 0 0.0135869)
(0 0 0.0133737)
(0 0 0.0131599)
(0 0 0.0129457)
(0 0 0.0127312)
(0 0 0.0125162)
(0 0 0.012301)
(0 0 0.0120855)
(0 0 0.0118698)
(0 0 0.0116538)
(0 0 0.0114377)
(0 0 0.0112214)
(0 0 0.0110051)
(0 0 0.0107886)
(0 0 0.0105721)