/*--------------------------------*- C++ -*----------------------------------*\
| =========                 |                                                 |
| \\      /  F ield         | OpenFOAM: The Open Source CFD Toolbox           |
|  \\    /   O peration     | Version:  v2012                                 |
|   \\  /    A nd           | Website:  www.openfoam.com                      |
|    \\/     M anipulation  |                                                 |
\*---------------------------------------------------------------------------*/
FoamFile
{
    version     2.0;
    format      ascii;
    class       volVectorField;
    location    "14.4";
    object      U;
}
// * * * * * * * * * * * * * * * * * * * * * * * * * * * * * * * * * * * * * //

dimensions      [0 1 -1 0 0 0 0];


internalField   nonuniform List<vector> 
65536
(
(0.000702471 -0.000702488 0)
(0.00210745 -0.00070253 0)
(0.00351256 -0.00070261 0)
(0.00491786 -0.000702728 0)
(0.00632344 -0.000702886 0)
(0.00772937 -0.000703082 0)
(0.00913573 -0.000703316 0)
(0.0105426 -0.000703587 0)
(0.0119501 -0.000703895 0)
(0.0133582 -0.000704239 0)
(0.014767 -0.000704618 0)
(0.0161766 -0.00070503 0)
(0.0175871 -0.000705474 0)
(0.0189985 -0.00070595 0)
(0.0204108 -0.000706454 0)
(0.0218243 -0.000706987 0)
(0.0232388 -0.000707546 0)
(0.0246544 -0.00070813 0)
(0.0260713 -0.000708736 0)
(0.0274894 -0.000709362 0)
(0.0289087 -0.000710006 0)
(0.0303294 -0.000710666 0)
(0.0317514 -0.000711339 0)
(0.0331747 -0.000712022 0)
(0.0345994 -0.000712714 0)
(0.0360256 -0.00071341 0)
(0.0374531 -0.000714108 0)
(0.038882 -0.000714804 0)
(0.0403123 -0.000715496 0)
(0.041744 -0.00071618 0)
(0.0431771 -0.000716852 0)
(0.0446114 -0.000717508 0)
(0.0460471 -0.000718144 0)
(0.047484 -0.000718756 0)
(0.0489222 -0.000719341 0)
(0.0503614 -0.000719893 0)
(0.0518018 -0.000720407 0)
(0.0532431 -0.00072088 0)
(0.0546853 -0.000721306 0)
(0.0561284 -0.000721681 0)
(0.0575721 -0.000721998 0)
(0.0590164 -0.000722253 0)
(0.0604612 -0.00072244 0)
(0.0619063 -0.000722553 0)
(0.0633515 -0.000722587 0)
(0.0647967 -0.000722535 0)
(0.0662417 -0.000722391 0)
(0.0676864 -0.00072215 0)
(0.0691304 -0.000721804 0)
(0.0705737 -0.000721347 0)
(0.0720159 -0.000720773 0)
(0.0734569 -0.000720074 0)
(0.0748964 -0.000719244 0)
(0.076334 -0.000718275 0)
(0.0777696 -0.000717161 0)
(0.0792028 -0.000715894 0)
(0.0806334 -0.000714468 0)
(0.0820609 -0.000712873 0)
(0.083485 -0.000711105 0)
(0.0849055 -0.000709153 0)
(0.0863218 -0.000707012 0)
(0.0877337 -0.000704674 0)
(0.0891407 -0.000702131 0)
(0.0905425 -0.000699376 0)
(0.0919385 -0.000696401 0)
(0.0933283 -0.000693199 0)
(0.0947115 -0.000689762 0)
(0.0960876 -0.000686084 0)
(0.0974561 -0.000682157 0)
(0.0988165 -0.000677974 0)
(0.100168 -0.000673528 0)
(0.101511 -0.000668813 0)
(0.102844 -0.000663821 0)
(0.104166 -0.000658548 0)
(0.105478 -0.000652986 0)
(0.106779 -0.00064713 0)
(0.108067 -0.000640975 0)
(0.109343 -0.000634515 0)
(0.110605 -0.000627745 0)
(0.111854 -0.000620661 0)
(0.113088 -0.000613258 0)
(0.114307 -0.000605534 0)
(0.115511 -0.000597485 0)
(0.116698 -0.000589107 0)
(0.117868 -0.000580399 0)
(0.11902 -0.000571358 0)
(0.120153 -0.000561984 0)
(0.121268 -0.000552275 0)
(0.122363 -0.000542231 0)
(0.123437 -0.000531853 0)
(0.124491 -0.000521141 0)
(0.125522 -0.000510096 0)
(0.126531 -0.000498722 0)
(0.127517 -0.00048702 0)
(0.12848 -0.000474993 0)
(0.129418 -0.000462647 0)
(0.130331 -0.000449984 0)
(0.131218 -0.000437012 0)
(0.132079 -0.000423734 0)
(0.132913 -0.000410159 0)
(0.13372 -0.000396292 0)
(0.134498 -0.000382142 0)
(0.135249 -0.000367717 0)
(0.13597 -0.000353026 0)
(0.136661 -0.000338079 0)
(0.137322 -0.000322885 0)
(0.137953 -0.000307456 0)
(0.138552 -0.000291802 0)
(0.13912 -0.000275936 0)
(0.139656 -0.000259869 0)
(0.14016 -0.000243615 0)
(0.140631 -0.000227185 0)
(0.141069 -0.000210595 0)
(0.141473 -0.000193857 0)
(0.141844 -0.000176986 0)
(0.142181 -0.000159997 0)
(0.142484 -0.000142903 0)
(0.142753 -0.000125721 0)
(0.142987 -0.000108465 0)
(0.143187 -9.11502e-05 0)
(0.143352 -7.37925e-05 0)
(0.143482 -5.64071e-05 0)
(0.143578 -3.90095e-05 0)
(0.143638 -2.16151e-05 0)
(0.143664 -4.23943e-06 0)
(0.143655 1.31024e-05 0)
(0.143612 3.03951e-05 0)
(0.143533 4.76239e-05 0)
(0.143421 6.47738e-05 0)
(0.143274 8.18305e-05 0)
(0.143094 9.87797e-05 0)
(0.142879 0.000115607 0)
(0.142631 0.0001323 0)
(0.14235 0.000148845 0)
(0.142035 0.000165229 0)
(0.141689 0.00018144 0)
(0.141309 0.000197465 0)
(0.140898 0.000213294 0)
(0.140456 0.000228916 0)
(0.139983 0.00024432 0)
(0.139479 0.000259496 0)
(0.138944 0.000274436 0)
(0.138381 0.00028913 0)
(0.137788 0.00030357 0)
(0.137166 0.000317749 0)
(0.136516 0.000331659 0)
(0.135839 0.000345294 0)
(0.135135 0.000358648 0)
(0.134404 0.000371717 0)
(0.133648 0.000384494 0)
(0.132866 0.000396977 0)
(0.13206 0.00040916 0)
(0.131229 0.000421042 0)
(0.130375 0.00043262 0)
(0.129498 0.000443892 0)
(0.128599 0.000454856 0)
(0.127678 0.000465511 0)
(0.126737 0.000475858 0)
(0.125775 0.000485895 0)
(0.124793 0.000495624 0)
(0.123792 0.000505045 0)
(0.122772 0.000514159 0)
(0.121735 0.000522969 0)
(0.12068 0.000531477 0)
(0.119609 0.000539684 0)
(0.118521 0.000547595 0)
(0.117418 0.000555211 0)
(0.1163 0.000562537 0)
(0.115168 0.000569576 0)
(0.114021 0.000576333 0)
(0.112862 0.000582811 0)
(0.11169 0.000589016 0)
(0.110506 0.000594951 0)
(0.10931 0.000600622 0)
(0.108103 0.000606035 0)
(0.106885 0.000611193 0)
(0.105658 0.000616104 0)
(0.104421 0.000620771 0)
(0.103175 0.000625202 0)
(0.10192 0.000629401 0)
(0.100657 0.000633376 0)
(0.0993861 0.00063713 0)
(0.0981081 0.000640671 0)
(0.0968232 0.000644005 0)
(0.0955318 0.000647138 0)
(0.0942344 0.000650075 0)
(0.0929313 0.000652823 0)
(0.091623 0.000655388 0)
(0.0903096 0.000657776 0)
(0.0889917 0.000659993 0)
(0.0876695 0.000662045 0)
(0.0863433 0.000663938 0)
(0.0850136 0.000665678 0)
(0.0836805 0.00066727 0)
(0.0823444 0.000668722 0)
(0.0810055 0.000670037 0)
(0.0796641 0.000671223 0)
(0.0783205 0.000672284 0)
(0.0769748 0.000673227 0)
(0.0756274 0.000674056 0)
(0.0742785 0.000674777 0)
(0.0729282 0.000675395 0)
(0.0715768 0.000675916 0)
(0.0702245 0.000676343 0)
(0.0688714 0.000676683 0)
(0.0675177 0.000676941 0)
(0.0661635 0.00067712 0)
(0.0648091 0.000677225 0)
(0.0634546 0.000677262 0)
(0.0621 0.000677233 0)
(0.0607456 0.000677145 0)
(0.0593914 0.000677 0)
(0.0580375 0.000676804 0)
(0.0566841 0.000676559 0)
(0.0553312 0.00067627 0)
(0.053979 0.00067594 0)
(0.0526274 0.000675574 0)
(0.0512767 0.000675174 0)
(0.0499267 0.000674745 0)
(0.0485777 0.000674289 0)
(0.0472295 0.000673809 0)
(0.0458824 0.000673309 0)
(0.0445363 0.000672792 0)
(0.0431912 0.00067226 0)
(0.0418473 0.000671717 0)
(0.0405044 0.000671164 0)
(0.0391626 0.000670605 0)
(0.0378219 0.000670043 0)
(0.0364824 0.000669478 0)
(0.035144 0.000668915 0)
(0.0338068 0.000668354 0)
(0.0324706 0.000667799 0)
(0.0311356 0.00066725 0)
(0.0298016 0.000666711 0)
(0.0284688 0.000666182 0)
(0.0271369 0.000665665 0)
(0.0258061 0.000665163 0)
(0.0244763 0.000664677 0)
(0.0231474 0.000664208 0)
(0.0218195 0.000663757 0)
(0.0204924 0.000663326 0)
(0.0191662 0.000662917 0)
(0.0178408 0.000662529 0)
(0.0165161 0.000662165 0)
(0.0151922 0.000661825 0)
(0.0138689 0.000661511 0)
(0.0125462 0.000661222 0)
(0.011224 0.00066096 0)
(0.00990234 0.000660726 0)
(0.00858113 0.00066052 0)
(0.0072603 0.000660342 0)
(0.0059398 0.000660193 0)
(0.00461956 0.000660073 0)
(0.00329954 0.000659984 0)
(0.00197966 0.000659924 0)
(0.000659878 0.000659893 0)
(0.000702435 -0.00210744 0)
(0.00210734 -0.00210756 0)
(0.00351237 -0.0021078 0)
(0.0049176 -0.00210815 0)
(0.0063231 -0.00210862 0)
(0.00772896 -0.00210921 0)
(0.00913525 -0.00210992 0)
(0.010542 -0.00211073 0)
(0.0119494 -0.00211166 0)
(0.0133575 -0.00211269 0)
(0.0147662 -0.00211382 0)
(0.0161758 -0.00211506 0)
(0.0175862 -0.0021164 0)
(0.0189975 -0.00211782 0)
(0.0204098 -0.00211934 0)
(0.0218232 -0.00212094 0)
(0.0232377 -0.00212262 0)
(0.0246533 -0.00212437 0)
(0.0260701 -0.00212619 0)
(0.0274881 -0.00212807 0)
(0.0289075 -0.00213001 0)
(0.0303281 -0.00213199 0)
(0.0317501 -0.00213401 0)
(0.0331734 -0.00213606 0)
(0.0345981 -0.00213814 0)
(0.0360242 -0.00214023 0)
(0.0374518 -0.00214233 0)
(0.0388807 -0.00214442 0)
(0.040311 -0.0021465 0)
(0.0417427 -0.00214856 0)
(0.0431758 -0.00215057 0)
(0.0446102 -0.00215255 0)
(0.0460459 -0.00215446 0)
(0.0474829 -0.0021563 0)
(0.0489211 -0.00215806 0)
(0.0503604 -0.00215972 0)
(0.0518009 -0.00216127 0)
(0.0532423 -0.00216269 0)
(0.0546846 -0.00216397 0)
(0.0561278 -0.0021651 0)
(0.0575716 -0.00216606 0)
(0.0590161 -0.00216683 0)
(0.060461 -0.0021674 0)
(0.0619062 -0.00216774 0)
(0.0633516 -0.00216785 0)
(0.064797 -0.0021677 0)
(0.0662422 -0.00216727 0)
(0.0676871 -0.00216656 0)
(0.0691313 -0.00216552 0)
(0.0705748 -0.00216416 0)
(0.0720173 -0.00216244 0)
(0.0734585 -0.00216035 0)
(0.0748983 -0.00215787 0)
(0.0763362 -0.00215497 0)
(0.0777721 -0.00215164 0)
(0.0792056 -0.00214784 0)
(0.0806365 -0.00214357 0)
(0.0820643 -0.0021388 0)
(0.0834888 -0.0021335 0)
(0.0849097 -0.00212765 0)
(0.0863264 -0.00212123 0)
(0.0877387 -0.00211423 0)
(0.0891461 -0.0021066 0)
(0.0905483 -0.00209835 0)
(0.0919447 -0.00208943 0)
(0.093335 -0.00207983 0)
(0.0947187 -0.00206953 0)
(0.0960953 -0.0020585 0)
(0.0974643 -0.00204672 0)
(0.0988252 -0.00203418 0)
(0.100177 -0.00202085 0)
(0.101521 -0.00200671 0)
(0.102854 -0.00199174 0)
(0.104177 -0.00197593 0)
(0.10549 -0.00195925 0)
(0.106791 -0.00194169 0)
(0.10808 -0.00192323 0)
(0.109356 -0.00190385 0)
(0.110619 -0.00188354 0)
(0.111869 -0.0018623 0)
(0.113104 -0.00184009 0)
(0.114323 -0.00181692 0)
(0.115527 -0.00179278 0)
(0.116715 -0.00176765 0)
(0.117885 -0.00174152 0)
(0.119038 -0.0017144 0)
(0.120172 -0.00168628 0)
(0.121288 -0.00165715 0)
(0.122383 -0.00162702 0)
(0.123458 -0.00159589 0)
(0.124512 -0.00156375 0)
(0.125545 -0.00153061 0)
(0.126554 -0.00149649 0)
(0.127541 -0.00146138 0)
(0.128504 -0.00142529 0)
(0.129443 -0.00138825 0)
(0.130356 -0.00135026 0)
(0.131244 -0.00131133 0)
(0.132106 -0.00127149 0)
(0.132941 -0.00123076 0)
(0.133748 -0.00118915 0)
(0.134527 -0.00114669 0)
(0.135278 -0.00110341 0)
(0.135999 -0.00105933 0)
(0.136691 -0.00101448 0)
(0.137353 -0.000968885 0)
(0.137984 -0.000922586 0)
(0.138584 -0.000875613 0)
(0.139152 -0.000828002 0)
(0.139688 -0.000779789 0)
(0.140193 -0.000731012 0)
(0.140664 -0.000681711 0)
(0.141102 -0.000631926 0)
(0.141507 -0.000581698 0)
(0.141878 -0.000531071 0)
(0.142215 -0.000480088 0)
(0.142519 -0.000428793 0)
(0.142787 -0.00037723 0)
(0.143022 -0.000325447 0)
(0.143222 -0.000273488 0)
(0.143387 -0.000221399 0)
(0.143517 -0.000169227 0)
(0.143612 -0.000117019 0)
(0.143673 -6.48207e-05 0)
(0.143699 -1.26783e-05 0)
(0.14369 3.93622e-05 0)
(0.143646 9.12554e-05 0)
(0.143568 0.000142956 0)
(0.143455 0.000194421 0)
(0.143308 0.000245605 0)
(0.143127 0.000296466 0)
(0.142912 0.000346963 0)
(0.142664 0.000397055 0)
(0.142383 0.000446701 0)
(0.142068 0.000495865 0)
(0.141721 0.000544509 0)
(0.141341 0.000592597 0)
(0.14093 0.000640095 0)
(0.140487 0.000686971 0)
(0.140013 0.000733193 0)
(0.139509 0.000778731 0)
(0.138974 0.000823558 0)
(0.13841 0.000867648 0)
(0.137816 0.000910976 0)
(0.137194 0.000953519 0)
(0.136544 0.000995256 0)
(0.135866 0.00103617 0)
(0.135161 0.00107624 0)
(0.13443 0.00111545 0)
(0.133673 0.00115378 0)
(0.132891 0.00119123 0)
(0.132083 0.00122779 0)
(0.131252 0.00126343 0)
(0.130398 0.00129817 0)
(0.12952 0.00133199 0)
(0.128621 0.00136488 0)
(0.127699 0.00139685 0)
(0.126757 0.00142788 0)
(0.125794 0.001458 0)
(0.124812 0.00148718 0)
(0.12381 0.00151544 0)
(0.12279 0.00154278 0)
(0.121752 0.00156921 0)
(0.120697 0.00159473 0)
(0.119625 0.00161935 0)
(0.118537 0.00164308 0)
(0.117433 0.00166593 0)
(0.116314 0.0016879 0)
(0.115181 0.00170901 0)
(0.114035 0.00172928 0)
(0.112875 0.00174871 0)
(0.111702 0.00176732 0)
(0.110517 0.00178512 0)
(0.109321 0.00180213 0)
(0.108113 0.00181836 0)
(0.106895 0.00183383 0)
(0.105667 0.00184855 0)
(0.10443 0.00186255 0)
(0.103183 0.00187584 0)
(0.101928 0.00188843 0)
(0.100664 0.00190035 0)
(0.0993932 0.0019116 0)
(0.0981148 0.00192222 0)
(0.0968295 0.00193222 0)
(0.0955378 0.00194161 0)
(0.09424 0.00195041 0)
(0.0929365 0.00195865 0)
(0.0916278 0.00196634 0)
(0.0903141 0.0019735 0)
(0.0889958 0.00198014 0)
(0.0876733 0.00198629 0)
(0.0863469 0.00199196 0)
(0.0850168 0.00199718 0)
(0.0836834 0.00200195 0)
(0.082347 0.0020063 0)
(0.0810079 0.00201024 0)
(0.0796662 0.00201379 0)
(0.0783223 0.00201697 0)
(0.0769765 0.00201979 0)
(0.0756289 0.00202227 0)
(0.0742797 0.00202443 0)
(0.0729293 0.00202628 0)
(0.0715777 0.00202784 0)
(0.0702251 0.00202912 0)
(0.0688719 0.00203013 0)
(0.067518 0.0020309 0)
(0.0661637 0.00203143 0)
(0.0648092 0.00203174 0)
(0.0634545 0.00203185 0)
(0.0620998 0.00203176 0)
(0.0607452 0.00203149 0)
(0.0593909 0.00203105 0)
(0.058037 0.00203046 0)
(0.0566835 0.00202972 0)
(0.0553305 0.00202885 0)
(0.0539782 0.00202785 0)
(0.0526266 0.00202675 0)
(0.0512758 0.00202555 0)
(0.0499258 0.00202426 0)
(0.0485767 0.00202289 0)
(0.0472285 0.00202144 0)
(0.0458813 0.00201994 0)
(0.0445352 0.00201839 0)
(0.0431901 0.00201679 0)
(0.0418461 0.00201515 0)
(0.0405032 0.00201349 0)
(0.0391614 0.00201182 0)
(0.0378208 0.00201012 0)
(0.0364812 0.00200843 0)
(0.0351429 0.00200674 0)
(0.0338056 0.00200505 0)
(0.0324695 0.00200338 0)
(0.0311345 0.00200174 0)
(0.0298005 0.00200012 0)
(0.0284677 0.00199853 0)
(0.0271359 0.00199698 0)
(0.0258051 0.00199547 0)
(0.0244753 0.00199401 0)
(0.0231465 0.0019926 0)
(0.0218186 0.00199125 0)
(0.0204916 0.00198995 0)
(0.0191654 0.00198872 0)
(0.01784 0.00198756 0)
(0.0165154 0.00198647 0)
(0.0151915 0.00198545 0)
(0.0138682 0.0019845 0)
(0.0125456 0.00198363 0)
(0.0112235 0.00198285 0)
(0.00990189 0.00198214 0)
(0.00858073 0.00198153 0)
(0.00725996 0.00198099 0)
(0.00593952 0.00198054 0)
(0.00461935 0.00198018 0)
(0.00329939 0.00197992 0)
(0.00197957 0.00197974 0)
(0.000659848 0.00197965 0)
(0.000702354 -0.00351226 0)
(0.0021071 -0.00351247 0)
(0.00351197 -0.00351286 0)
(0.00491704 -0.00351346 0)
(0.00632238 -0.00351425 0)
(0.00772809 -0.00351523 0)
(0.00913422 -0.0035164 0)
(0.0105409 -0.00351776 0)
(0.0119481 -0.00351931 0)
(0.013356 -0.00352103 0)
(0.0147646 -0.00352293 0)
(0.016174 -0.003525 0)
(0.0175843 -0.00352723 0)
(0.0189955 -0.00352961 0)
(0.0204077 -0.00353214 0)
(0.021821 -0.00353482 0)
(0.0232354 -0.00353762 0)
(0.0246509 -0.00354055 0)
(0.0260676 -0.00354359 0)
(0.0274856 -0.00354673 0)
(0.0289048 -0.00354996 0)
(0.0303254 -0.00355327 0)
(0.0317473 -0.00355665 0)
(0.0331706 -0.00356008 0)
(0.0345953 -0.00356355 0)
(0.0360214 -0.00356705 0)
(0.0374489 -0.00357055 0)
(0.0388779 -0.00357405 0)
(0.0403082 -0.00357753 0)
(0.04174 -0.00358097 0)
(0.0431731 -0.00358434 0)
(0.0446076 -0.00358764 0)
(0.0460434 -0.00359085 0)
(0.0474805 -0.00359393 0)
(0.0489188 -0.00359687 0)
(0.0503583 -0.00359965 0)
(0.0517988 -0.00360225 0)
(0.0532404 -0.00360464 0)
(0.054683 -0.0036068 0)
(0.0561263 -0.00360869 0)
(0.0575704 -0.00361031 0)
(0.0590151 -0.00361161 0)
(0.0604603 -0.00361257 0)
(0.0619059 -0.00361317 0)
(0.0633516 -0.00361336 0)
(0.0647973 -0.00361314 0)
(0.0662429 -0.00361245 0)
(0.0676882 -0.00361127 0)
(0.0691329 -0.00360958 0)
(0.0705768 -0.00360733 0)
(0.0720198 -0.00360449 0)
(0.0734615 -0.00360103 0)
(0.0749018 -0.00359691 0)
(0.0763403 -0.00359211 0)
(0.0777768 -0.00358657 0)
(0.0792109 -0.00358027 0)
(0.0806424 -0.00357318 0)
(0.082071 -0.00356524 0)
(0.0834962 -0.00355643 0)
(0.0849178 -0.00354671 0)
(0.0863353 -0.00353605 0)
(0.0877484 -0.00352439 0)
(0.0891567 -0.00351171 0)
(0.0905597 -0.00349798 0)
(0.091957 -0.00348314 0)
(0.0933482 -0.00346716 0)
(0.0947329 -0.00345002 0)
(0.0961104 -0.00343166 0)
(0.0974804 -0.00341206 0)
(0.0988424 -0.00339118 0)
(0.100196 -0.00336898 0)
(0.10154 -0.00334544 0)
(0.102875 -0.00332051 0)
(0.104199 -0.00329418 0)
(0.105513 -0.0032664 0)
(0.106815 -0.00323714 0)
(0.108105 -0.00320639 0)
(0.109383 -0.00317412 0)
(0.110647 -0.00314029 0)
(0.111898 -0.00310489 0)
(0.113134 -0.0030679 0)
(0.114355 -0.00302929 0)
(0.11556 -0.00298906 0)
(0.116749 -0.00294718 0)
(0.117921 -0.00290365 0)
(0.119075 -0.00285845 0)
(0.120211 -0.00281158 0)
(0.121327 -0.00276304 0)
(0.122424 -0.00271282 0)
(0.123501 -0.00266092 0)
(0.124556 -0.00260736 0)
(0.125589 -0.00255212 0)
(0.1266 -0.00249524 0)
(0.127589 -0.00243671 0)
(0.128553 -0.00237656 0)
(0.129493 -0.0023148 0)
(0.130407 -0.00225146 0)
(0.131297 -0.00218657 0)
(0.132159 -0.00212015 0)
(0.132995 -0.00205224 0)
(0.133804 -0.00198287 0)
(0.134584 -0.00191207 0)
(0.135336 -0.0018399 0)
(0.136059 -0.0017664 0)
(0.136751 -0.00169161 0)
(0.137414 -0.00161559 0)
(0.138046 -0.00153839 0)
(0.138647 -0.00146006 0)
(0.139216 -0.00138067 0)
(0.139753 -0.00130027 0)
(0.140258 -0.00121893 0)
(0.14073 -0.00113672 0)
(0.141169 -0.0010537 0)
(0.141574 -0.00096994 0)
(0.141946 -0.000885513 0)
(0.142284 -0.000800491 0)
(0.142587 -0.00071495 0)
(0.142856 -0.000628962 0)
(0.143091 -0.000542605 0)
(0.143291 -0.000455955 0)
(0.143456 -0.000369089 0)
(0.143587 -0.000282085 0)
(0.143682 -0.00019502 0)
(0.143743 -0.000107971 0)
(0.143768 -2.10159e-05 0)
(0.143759 6.57688e-05 0)
(0.143715 0.000152307 0)
(0.143637 0.000238525 0)
(0.143524 0.000324347 0)
(0.143376 0.000409701 0)
(0.143195 0.000494516 0)
(0.14298 0.000578723 0)
(0.142731 0.000662253 0)
(0.142448 0.00074504 0)
(0.142133 0.000827021 0)
(0.141785 0.000908134 0)
(0.141405 0.000988318 0)
(0.140993 0.00106752 0)
(0.140549 0.00114568 0)
(0.140074 0.00122275 0)
(0.139569 0.00129868 0)
(0.139033 0.00137342 0)
(0.138468 0.00144693 0)
(0.137873 0.00151917 0)
(0.13725 0.00159009 0)
(0.136599 0.00165968 0)
(0.13592 0.00172788 0)
(0.135214 0.00179468 0)
(0.134482 0.00186005 0)
(0.133723 0.00192395 0)
(0.13294 0.00198638 0)
(0.132132 0.00204732 0)
(0.131299 0.00210674 0)
(0.130444 0.00216464 0)
(0.129565 0.002221 0)
(0.128664 0.00227583 0)
(0.127741 0.00232911 0)
(0.126798 0.00238084 0)
(0.125834 0.00243102 0)
(0.12485 0.00247966 0)
(0.123847 0.00252676 0)
(0.122826 0.00257232 0)
(0.121787 0.00261636 0)
(0.12073 0.00265889 0)
(0.119657 0.00269991 0)
(0.118568 0.00273945 0)
(0.117463 0.00277751 0)
(0.116343 0.00281412 0)
(0.115209 0.0028493 0)
(0.114061 0.00288306 0)
(0.1129 0.00291543 0)
(0.111726 0.00294643 0)
(0.11054 0.00297608 0)
(0.109343 0.00300441 0)
(0.108135 0.00303144 0)
(0.106916 0.00305721 0)
(0.105687 0.00308173 0)
(0.104448 0.00310504 0)
(0.1032 0.00312717 0)
(0.101944 0.00314813 0)
(0.10068 0.00316797 0)
(0.0994079 0.00318672 0)
(0.0981286 0.00320439 0)
(0.0968425 0.00322103 0)
(0.0955499 0.00323666 0)
(0.0942514 0.00325132 0)
(0.0929472 0.00326503 0)
(0.0916377 0.00327782 0)
(0.0903233 0.00328973 0)
(0.0890044 0.00330079 0)
(0.0876812 0.00331102 0)
(0.0863541 0.00332045 0)
(0.0850235 0.00332912 0)
(0.0836895 0.00333705 0)
(0.0823526 0.00334428 0)
(0.0810129 0.00335083 0)
(0.0796707 0.00335673 0)
(0.0783264 0.00336201 0)
(0.0769801 0.0033667 0)
(0.075632 0.00337082 0)
(0.0742824 0.00337439 0)
(0.0729316 0.00337746 0)
(0.0715796 0.00338004 0)
(0.0702267 0.00338215 0)
(0.0688731 0.00338383 0)
(0.0675189 0.00338509 0)
(0.0661643 0.00338596 0)
(0.0648095 0.00338646 0)
(0.0634545 0.00338662 0)
(0.0620996 0.00338646 0)
(0.0607448 0.003386 0)
(0.0593903 0.00338526 0)
(0.0580361 0.00338425 0)
(0.0566824 0.00338301 0)
(0.0553293 0.00338155 0)
(0.0539768 0.00337988 0)
(0.0526251 0.00337803 0)
(0.0512741 0.00337601 0)
(0.049924 0.00337385 0)
(0.0485748 0.00337155 0)
(0.0472266 0.00336914 0)
(0.0458793 0.00336662 0)
(0.0445331 0.00336402 0)
(0.043188 0.00336135 0)
(0.0418439 0.00335862 0)
(0.040501 0.00335584 0)
(0.0391592 0.00335304 0)
(0.0378185 0.00335021 0)
(0.036479 0.00334738 0)
(0.0351406 0.00334455 0)
(0.0338034 0.00334174 0)
(0.0324673 0.00333895 0)
(0.0311323 0.0033362 0)
(0.0297984 0.00333349 0)
(0.0284656 0.00333084 0)
(0.0271338 0.00332825 0)
(0.0258031 0.00332573 0)
(0.0244734 0.00332329 0)
(0.0231446 0.00332094 0)
(0.0218168 0.00331868 0)
(0.0204899 0.00331652 0)
(0.0191638 0.00331446 0)
(0.0178385 0.00331252 0)
(0.016514 0.00331069 0)
(0.0151902 0.00330899 0)
(0.013867 0.00330741 0)
(0.0125445 0.00330597 0)
(0.0112225 0.00330465 0)
(0.00990101 0.00330348 0)
(0.00857997 0.00330245 0)
(0.00725931 0.00330155 0)
(0.00593898 0.00330081 0)
(0.00461893 0.00330021 0)
(0.00329909 0.00329976 0)
(0.00197939 0.00329946 0)
(0.000659788 0.00329931 0)
(0.000702233 -0.00491689 0)
(0.00210674 -0.00491717 0)
(0.00351137 -0.00491773 0)
(0.0049162 -0.00491857 0)
(0.00632131 -0.00491967 0)
(0.00772678 -0.00492105 0)
(0.00913269 -0.0049227 0)
(0.0105391 -0.00492461 0)
(0.0119461 -0.00492678 0)
(0.0133538 -0.0049292 0)
(0.0147622 -0.00493187 0)
(0.0161714 -0.00493477 0)
(0.0175815 -0.0049379 0)
(0.0189926 -0.00494125 0)
(0.0204046 -0.0049448 0)
(0.0218177 -0.00494856 0)
(0.0232319 -0.0049525 0)
(0.0246473 -0.00495661 0)
(0.0260638 -0.00496088 0)
(0.0274817 -0.00496529 0)
(0.0289008 -0.00496983 0)
(0.0303213 -0.00497449 0)
(0.0317432 -0.00497923 0)
(0.0331664 -0.00498406 0)
(0.0345911 -0.00498894 0)
(0.0360172 -0.00499385 0)
(0.0374447 -0.00499878 0)
(0.0388736 -0.00500371 0)
(0.040304 -0.0050086 0)
(0.0417358 -0.00501344 0)
(0.043169 -0.00501819 0)
(0.0446036 -0.00502284 0)
(0.0460395 -0.00502735 0)
(0.0474768 -0.0050317 0)
(0.0489153 -0.00503585 0)
(0.050355 -0.00503977 0)
(0.0517958 -0.00504344 0)
(0.0532376 -0.00504682 0)
(0.0546805 -0.00504988 0)
(0.0561242 -0.00505257 0)
(0.0575686 -0.00505487 0)
(0.0590137 -0.00505673 0)
(0.0604593 -0.00505811 0)
(0.0619053 -0.00505899 0)
(0.0633515 -0.00505931 0)
(0.0647978 -0.00505903 0)
(0.0662439 -0.00505811 0)
(0.0676898 -0.00505651 0)
(0.0691352 -0.00505418 0)
(0.0705798 -0.00505108 0)
(0.0720235 -0.00504715 0)
(0.073466 -0.00504236 0)
(0.0749071 -0.00503665 0)
(0.0763464 -0.00502997 0)
(0.0777838 -0.00502227 0)
(0.0792189 -0.0050135 0)
(0.0806514 -0.00500362 0)
(0.0820809 -0.00499256 0)
(0.0835072 -0.00498028 0)
(0.0849299 -0.00496673 0)
(0.0863486 -0.00495185 0)
(0.0877629 -0.00493558 0)
(0.0891724 -0.00491789 0)
(0.0905767 -0.0048987 0)
(0.0919754 -0.00487798 0)
(0.093368 -0.00485567 0)
(0.0947541 -0.00483172 0)
(0.0961331 -0.00480607 0)
(0.0975046 -0.00477868 0)
(0.0988681 -0.00474949 0)
(0.100223 -0.00471846 0)
(0.101569 -0.00468555 0)
(0.102905 -0.0046507 0)
(0.104231 -0.00461387 0)
(0.105547 -0.00457502 0)
(0.106851 -0.0045341 0)
(0.108143 -0.00449109 0)
(0.109422 -0.00444593 0)
(0.110688 -0.00439861 0)
(0.111941 -0.00434907 0)
(0.113179 -0.00429731 0)
(0.114402 -0.00424329 0)
(0.115609 -0.00418698 0)
(0.1168 -0.00412837 0)
(0.117974 -0.00406744 0)
(0.11913 -0.00400417 0)
(0.120268 -0.00393856 0)
(0.121386 -0.0038706 0)
(0.122485 -0.00380029 0)
(0.123564 -0.00372763 0)
(0.124621 -0.00365263 0)
(0.125657 -0.00357529 0)
(0.12667 -0.00349563 0)
(0.12766 -0.00341367 0)
(0.128626 -0.00332943 0)
(0.129568 -0.00324294 0)
(0.130484 -0.00315423 0)
(0.131375 -0.00306334 0)
(0.13224 -0.0029703 0)
(0.133078 -0.00287517 0)
(0.133888 -0.002778 0)
(0.13467 -0.00267883 0)
(0.135423 -0.00257773 0)
(0.136148 -0.00247476 0)
(0.136842 -0.00236999 0)
(0.137506 -0.00226348 0)
(0.138139 -0.00215532 0)
(0.138742 -0.00204558 0)
(0.139312 -0.00193435 0)
(0.13985 -0.0018217 0)
(0.140356 -0.00170773 0)
(0.140829 -0.00159254 0)
(0.141269 -0.00147621 0)
(0.141675 -0.00135885 0)
(0.142048 -0.00124055 0)
(0.142386 -0.00112142 0)
(0.14269 -0.00100155 0)
(0.14296 -0.000881065 0)
(0.143195 -0.000760058 0)
(0.143395 -0.00063864 0)
(0.143561 -0.000516919 0)
(0.143691 -0.000395005 0)
(0.143787 -0.000273005 0)
(0.143847 -0.000151029 0)
(0.143873 -2.9185e-05 0)
(0.143863 9.24199e-05 0)
(0.143819 0.000213679 0)
(0.14374 0.000334487 0)
(0.143626 0.000454739 0)
(0.143479 0.000574335 0)
(0.143296 0.000693174 0)
(0.14308 0.000811158 0)
(0.142831 0.000928193 0)
(0.142547 0.00104418 0)
(0.142231 0.00115904 0)
(0.141882 0.00127268 0)
(0.141501 0.00138502 0)
(0.141087 0.00149598 0)
(0.140642 0.00160548 0)
(0.140166 0.00171344 0)
(0.139659 0.00181981 0)
(0.139122 0.00192451 0)
(0.138556 0.00202748 0)
(0.137959 0.00212867 0)
(0.137335 0.00222801 0)
(0.136682 0.00232548 0)
(0.136001 0.00242101 0)
(0.135294 0.00251456 0)
(0.134559 0.0026061 0)
(0.133799 0.0026956 0)
(0.133014 0.00278303 0)
(0.132204 0.00286836 0)
(0.13137 0.00295157 0)
(0.130512 0.00303264 0)
(0.129632 0.00311156 0)
(0.128729 0.00318832 0)
(0.127805 0.00326292 0)
(0.126859 0.00333534 0)
(0.125893 0.0034056 0)
(0.124908 0.00347368 0)
(0.123903 0.00353961 0)
(0.12288 0.00360339 0)
(0.121839 0.00366503 0)
(0.12078 0.00372455 0)
(0.119705 0.00378196 0)
(0.118614 0.00383729 0)
(0.117508 0.00389055 0)
(0.116386 0.00394178 0)
(0.11525 0.003991 0)
(0.114101 0.00403823 0)
(0.112938 0.00408352 0)
(0.111763 0.00412688 0)
(0.110575 0.00416836 0)
(0.109376 0.00420799 0)
(0.108166 0.0042458 0)
(0.106946 0.00428183 0)
(0.105715 0.00431613 0)
(0.104475 0.00434872 0)
(0.103226 0.00437965 0)
(0.101969 0.00440897 0)
(0.100703 0.0044367 0)
(0.0994298 0.0044629 0)
(0.0981492 0.0044876 0)
(0.0968619 0.00451085 0)
(0.0955682 0.0045327 0)
(0.0942685 0.00455317 0)
(0.0929631 0.00457232 0)
(0.0916526 0.00459019 0)
(0.0903372 0.00460682 0)
(0.0890172 0.00462226 0)
(0.0876931 0.00463653 0)
(0.0863651 0.0046497 0)
(0.0850335 0.0046618 0)
(0.0836987 0.00467287 0)
(0.0823609 0.00468294 0)
(0.0810204 0.00469208 0)
(0.0796775 0.0047003 0)
(0.0783324 0.00470765 0)
(0.0769854 0.00471417 0)
(0.0756367 0.0047199 0)
(0.0742865 0.00472487 0)
(0.072935 0.00472913 0)
(0.0715824 0.0047327 0)
(0.070229 0.00473562 0)
(0.0688749 0.00473794 0)
(0.0675202 0.00473967 0)
(0.0661652 0.00474086 0)
(0.0648099 0.00474153 0)
(0.0634545 0.00474173 0)
(0.0620992 0.00474147 0)
(0.0607441 0.00474079 0)
(0.0593893 0.00473972 0)
(0.0580348 0.00473829 0)
(0.0566808 0.00473652 0)
(0.0553275 0.00473445 0)
(0.0539748 0.00473209 0)
(0.0526228 0.00472948 0)
(0.0512716 0.00472663 0)
(0.0499214 0.00472358 0)
(0.048572 0.00472034 0)
(0.0472236 0.00471694 0)
(0.0458763 0.00471339 0)
(0.04453 0.00470973 0)
(0.0431847 0.00470597 0)
(0.0418406 0.00470213 0)
(0.0404977 0.00469823 0)
(0.0391558 0.00469428 0)
(0.0378151 0.00469031 0)
(0.0364756 0.00468633 0)
(0.0351373 0.00468235 0)
(0.0338 0.0046784 0)
(0.032464 0.00467448 0)
(0.031129 0.00467061 0)
(0.0297952 0.00466681 0)
(0.0284625 0.00466308 0)
(0.0271308 0.00465945 0)
(0.0258002 0.00465591 0)
(0.0244705 0.00465249 0)
(0.0231419 0.00464918 0)
(0.0218142 0.00464601 0)
(0.0204874 0.00464298 0)
(0.0191614 0.00464009 0)
(0.0178363 0.00463737 0)
(0.0165119 0.0046348 0)
(0.0151882 0.00463241 0)
(0.0138652 0.0046302 0)
(0.0125428 0.00462817 0)
(0.011221 0.00462632 0)
(0.00989969 0.00462468 0)
(0.00857881 0.00462322 0)
(0.00725833 0.00462197 0)
(0.00593818 0.00462092 0)
(0.0046183 0.00462008 0)
(0.00329864 0.00461945 0)
(0.00197912 0.00461904 0)
(0.000659697 0.00461883 0)
(0.000702072 -0.00632124 0)
(0.00210626 -0.0063216 0)
(0.00351057 -0.00632232 0)
(0.00491508 -0.0063234 0)
(0.00631987 -0.00632483 0)
(0.00772503 -0.00632661 0)
(0.00913063 -0.00632874 0)
(0.0105368 -0.0063312 0)
(0.0119435 -0.006334 0)
(0.0133509 -0.00633712 0)
(0.014759 -0.00634056 0)
(0.016168 -0.00634431 0)
(0.0175778 -0.00634835 0)
(0.0189886 -0.00635267 0)
(0.0204004 -0.00635726 0)
(0.0218132 -0.00636211 0)
(0.0232272 -0.0063672 0)
(0.0246424 -0.00637251 0)
(0.0260588 -0.00637802 0)
(0.0274765 -0.00638372 0)
(0.0288955 -0.00638959 0)
(0.0303159 -0.00639561 0)
(0.0317376 -0.00640174 0)
(0.0331608 -0.00640798 0)
(0.0345854 -0.00641429 0)
(0.0360115 -0.00642064 0)
(0.037439 -0.00642702 0)
(0.0388679 -0.00643339 0)
(0.0402984 -0.00643972 0)
(0.0417303 -0.00644598 0)
(0.0431636 -0.00645214 0)
(0.0445983 -0.00645817 0)
(0.0460344 -0.00646402 0)
(0.0474718 -0.00646966 0)
(0.0489106 -0.00647505 0)
(0.0503505 -0.00648015 0)
(0.0517916 -0.00648493 0)
(0.0532339 -0.00648933 0)
(0.0546771 -0.00649332 0)
(0.0561212 -0.00649684 0)
(0.0575661 -0.00649986 0)
(0.0590117 -0.00650232 0)
(0.0604579 -0.00650417 0)
(0.0619045 -0.00650536 0)
(0.0633514 -0.00650585 0)
(0.0647984 -0.00650556 0)
(0.0662453 -0.00650446 0)
(0.0676919 -0.00650248 0)
(0.0691381 -0.00649956 0)
(0.0705837 -0.00649565 0)
(0.0720283 -0.00649069 0)
(0.0734719 -0.00648461 0)
(0.074914 -0.00647735 0)
(0.0763545 -0.00646884 0)
(0.0777931 -0.00645903 0)
(0.0792294 -0.00644785 0)
(0.0806632 -0.00643523 0)
(0.0820942 -0.0064211 0)
(0.0835219 -0.00640541 0)
(0.084946 -0.00638807 0)
(0.0863663 -0.00636903 0)
(0.0877822 -0.00634821 0)
(0.0891934 -0.00632555 0)
(0.0905994 -0.00630097 0)
(0.0919999 -0.00627442 0)
(0.0933943 -0.00624582 0)
(0.0947823 -0.00621511 0)
(0.0961633 -0.00618222 0)
(0.0975368 -0.00614709 0)
(0.0989024 -0.00610964 0)
(0.10026 -0.00606983 0)
(0.101608 -0.00602759 0)
(0.102946 -0.00598286 0)
(0.104274 -0.00593558 0)
(0.105592 -0.0058857 0)
(0.106898 -0.00583316 0)
(0.108193 -0.00577792 0)
(0.109475 -0.00571992 0)
(0.110744 -0.00565913 0)
(0.111999 -0.0055955 0)
(0.113239 -0.00552899 0)
(0.114465 -0.00545957 0)
(0.115675 -0.00538721 0)
(0.116868 -0.00531188 0)
(0.118045 -0.00523356 0)
(0.119204 -0.00515224 0)
(0.120344 -0.00506789 0)
(0.121465 -0.00498052 0)
(0.122567 -0.00489012 0)
(0.123648 -0.00479669 0)
(0.124708 -0.00470024 0)
(0.125746 -0.00460077 0)
(0.126762 -0.00449832 0)
(0.127755 -0.00439291 0)
(0.128724 -0.00428455 0)
(0.129668 -0.00417329 0)
(0.130587 -0.00405918 0)
(0.131481 -0.00394225 0)
(0.132348 -0.00382255 0)
(0.133188 -0.00370016 0)
(0.134 -0.00357513 0)
(0.134785 -0.00344753 0)
(0.13554 -0.00331743 0)
(0.136266 -0.00318493 0)
(0.136963 -0.0030501 0)
(0.137629 -0.00291303 0)
(0.138264 -0.00277383 0)
(0.138868 -0.0026326 0)
(0.13944 -0.00248943 0)
(0.13998 -0.00234445 0)
(0.140487 -0.00219776 0)
(0.140962 -0.0020495 0)
(0.141403 -0.00189976 0)
(0.14181 -0.0017487 0)
(0.142183 -0.00159642 0)
(0.142523 -0.00144308 0)
(0.142828 -0.00128879 0)
(0.143098 -0.00113369 0)
(0.143334 -0.000977924 0)
(0.143534 -0.00082163 0)
(0.1437 -0.000664946 0)
(0.143831 -0.000508012 0)
(0.143926 -0.000350969 0)
(0.143987 -0.000193957 0)
(0.144012 -3.71163e-05 0)
(0.144002 0.000119415 0)
(0.143957 0.0002755 0)
(0.143878 0.000431002 0)
(0.143764 0.000585787 0)
(0.143615 0.000739725 0)