/*--------------------------------*- C++ -*----------------------------------*\
| =========                 |                                                 |
| \\      /  F ield         | OpenFOAM: The Open Source CFD Toolbox           |
|  \\    /   O peration     | Version:  v2012                                 |
|   \\  /    A nd           | Website:  www.openfoam.com                      |
|    \\/     M anipulation  |                                                 |
\*---------------------------------------------------------------------------*/
FoamFile
{
    version     2.0;
    format      ascii;
    class       volScalarField;
    location    "10.1";
    object      W;
}
// * * * * * * * * * * * * * * * * * * * * * * * * * * * * * * * * * * * * * //

dimensions      [0 0 -1 0 0 0 0];


internalField   nonuniform List<scalar> 
65536
(
1.25662e-18
3.80133e-18
6.44146e-18
9.24359e-18
1.22781e-17
1.56206e-17
1.93536e-17
2.35681e-17
2.83657e-17
3.38607e-17
4.0182e-17
4.74762e-17
5.59097e-17
6.56725e-17
7.69811e-17
9.00829e-17
1.0526e-16
1.22834e-16
1.43173e-16
1.66695e-16
1.93877e-16
2.2526e-16
2.61463e-16
3.03183e-16
3.51214e-16
4.06454e-16
4.69919e-16
5.42756e-16
6.26258e-16
7.21884e-16
8.31271e-16
9.56262e-16
1.09892e-15
1.26155e-15
1.44675e-15
1.65739e-15
1.8967e-15
2.16824e-15
2.476e-15
2.82439e-15
3.21828e-15
3.66307e-15
4.16472e-15
4.7298e-15
5.36551e-15
6.07977e-15
6.88128e-15
7.77951e-15
8.78483e-15
9.90852e-15
1.11629e-14
1.25612e-14
1.41179e-14
1.58486e-14
1.77701e-14
1.99004e-14
2.2259e-14
2.48668e-14
2.77458e-14
3.09199e-14
3.44142e-14
3.82554e-14
4.24718e-14
4.70933e-14
5.21513e-14
5.76787e-14
6.37099e-14
7.0281e-14
7.74292e-14
8.51932e-14
9.36129e-14
1.02729e-13
1.12585e-13
1.23222e-13
1.34684e-13
1.47016e-13
1.6026e-13
1.74463e-13
1.89666e-13
2.05914e-13
2.23248e-13
2.4171e-13
2.61338e-13
2.8217e-13
3.04239e-13
3.27579e-13
3.52216e-13
3.78174e-13
4.05475e-13
4.34131e-13
4.64153e-13
4.95545e-13
5.28303e-13
5.62418e-13
5.97872e-13
6.3464e-13
6.72689e-13
7.11977e-13
7.52453e-13
7.94056e-13
8.36715e-13
8.8035e-13
9.24871e-13
9.70176e-13
1.01615e-12
1.06268e-12
1.10963e-12
1.15685e-12
1.2042e-12
1.25152e-12
1.29862e-12
1.34534e-12
1.39148e-12
1.43685e-12
1.48126e-12
1.52449e-12
1.56634e-12
1.60659e-12
1.64503e-12
1.68145e-12
1.71563e-12
1.74737e-12
1.77646e-12
1.8027e-12
1.8259e-12
1.84588e-12
1.86248e-12
1.87553e-12
1.88491e-12
1.89049e-12
1.89217e-12
1.88987e-12
1.88352e-12
1.87311e-12
1.85861e-12
1.84004e-12
1.81746e-12
1.79092e-12
1.76053e-12
1.72641e-12
1.68872e-12
1.64765e-12
1.60339e-12
1.55617e-12
1.50626e-12
1.45393e-12
1.39946e-12
1.34318e-12
1.28539e-12
1.22643e-12
1.16665e-12
1.10638e-12
1.04597e-12
9.85746e-13
9.26052e-13
8.67205e-13
8.09513e-13
7.53267e-13
6.98738e-13
6.46177e-13
5.95809e-13
5.47836e-13
5.02431e-13
4.59739e-13
4.19876e-13
3.82932e-13
3.48967e-13
3.1801e-13
2.90068e-13
2.65118e-13
2.43112e-13
2.23981e-13
2.07633e-13
1.93953e-13
1.82812e-13
1.74059e-13
1.67532e-13
1.63053e-13
1.60433e-13
1.59472e-13
1.59965e-13
1.61697e-13
1.64452e-13
1.68009e-13
1.72148e-13
1.76655e-13
1.81315e-13
1.85927e-13
1.90296e-13
1.94244e-13
1.97605e-13
2.00234e-13
2.02008e-13
2.02825e-13
2.02609e-13
2.01309e-13
1.98901e-13
1.95388e-13
1.90797e-13
1.8518e-13
1.78612e-13
1.71187e-13
1.63015e-13
1.5422e-13
1.44933e-13
1.35292e-13
1.25436e-13
1.15499e-13
1.05613e-13
9.58956e-14
8.64567e-14
7.73903e-14
6.87757e-14
6.0676e-14
5.3138e-14
4.61928e-14
3.98566e-14
3.41316e-14
2.90082e-14
2.44664e-14
2.04777e-14
1.70071e-14
1.40152e-14
1.14594e-14
9.29618e-15
7.48174e-15
5.97362e-15
4.73141e-15
3.71743e-15
2.89719e-15
2.23963e-15
1.7172e-15
1.30587e-15
9.84895e-16
7.36683e-16
5.46456e-16
4.01975e-16
2.93223e-16
2.12099e-16
1.52127e-16
1.0819e-16
7.6291e-17
5.33394e-17
3.69744e-17
2.54108e-17
1.73136e-17
1.16945e-17
7.83013e-18
5.19588e-18
3.41544e-18
2.22125e-18
1.4247e-18
8.93501e-19
5.34852e-19
2.8271e-19
8.81685e-20
4.34072e-18
1.31307e-17
2.22501e-17
3.19287e-17
4.24093e-17
5.39529e-17
6.68439e-17
8.13967e-17
9.79617e-17
1.16933e-16
1.38755e-16
1.63934e-16
1.93043e-16
2.26737e-16
2.65763e-16
3.10973e-16
3.6334e-16
4.23972e-16
4.94136e-16
5.75273e-16
6.69024e-16
7.77257e-16
9.02093e-16
1.04594e-15
1.21153e-15
1.40194e-15
1.62068e-15
1.87168e-15
2.1594e-15
2.48883e-15
2.86562e-15
3.29607e-15
3.78727e-15
4.34716e-15
4.98459e-15
5.70945e-15
6.53276e-15
7.46678e-15
8.52509e-15
9.7228e-15
1.10766e-14
1.26049e-14
1.43281e-14
1.62685e-14
1.84507e-14
2.09018e-14
2.36513e-14
2.67314e-14
3.01774e-14
3.40276e-14
3.83237e-14
4.31107e-14
4.84375e-14
5.43567e-14
6.09252e-14
6.8204e-14
7.62583e-14
8.51583e-14
9.49785e-14
1.05798e-13
1.17702e-13
1.3078e-13
1.45125e-13
1.60837e-13
1.7802e-13
1.96784e-13
2.17243e-13
2.39515e-13
2.63724e-13
2.89995e-13
3.1846e-13
3.49253e-13
3.82511e-13
4.18372e-13
4.56977e-13
4.98466e-13
5.42983e-13
5.90666e-13
6.41655e-13
6.96085e-13
7.54087e-13
8.15789e-13
8.81309e-13
9.50761e-13
1.02425e-12
1.10186e-12
1.18367e-12
1.26976e-12
1.36018e-12
1.45495e-12
1.55409e-12
1.6576e-12
1.76545e-12
1.87759e-12
1.99395e-12
2.11444e-12
2.23891e-12
2.36722e-12
2.49918e-12
2.63458e-12
2.77316e-12
2.91466e-12
3.05875e-12
3.2051e-12
3.35332e-12
3.50302e-12
3.65374e-12
3.80502e-12
3.95636e-12
4.10722e-12
4.25705e-12
4.40527e-12
4.55127e-12
4.69444e-12
4.83411e-12
4.96966e-12
5.1004e-12
5.22567e-12
5.34479e-12
5.45711e-12
5.56194e-12
5.65865e-12
5.74661e-12
5.82521e-12
5.89386e-12
5.95203e-12
5.99922e-12
6.03496e-12
6.05885e-12
6.07055e-12
6.06977e-12
6.05629e-12
6.02996e-12
5.99072e-12
5.93858e-12
5.87362e-12
5.79603e-12
5.70606e-12
5.60407e-12
5.49048e-12
5.36582e-12
5.23069e-12
5.08576e-12
4.93179e-12
4.7696e-12
4.60007e-12
4.42415e-12
4.24281e-12
4.05709e-12
3.86802e-12
3.67668e-12
3.48414e-12
3.29148e-12
3.09975e-12
2.90998e-12
2.72318e-12
2.54028e-12
2.36219e-12
2.18975e-12
2.02372e-12
1.86478e-12
1.71356e-12
1.57055e-12
1.43621e-12
1.31088e-12
1.19481e-12
1.08817e-12
9.91039e-13
9.03409e-13
8.25195e-13
7.56235e-13
6.96293e-13
6.45068e-13
6.02193e-13
5.67248e-13
5.39761e-13
5.19211e-13
5.0504e-13
4.96654e-13
4.93429e-13
4.94716e-13
4.99851e-13
5.08156e-13
5.18949e-13
5.31548e-13
5.45282e-13
5.59495e-13
5.73559e-13
5.86875e-13
5.98891e-13
6.091e-13
6.17056e-13
6.22378e-13
6.24754e-13
6.23953e-13
6.19819e-13
6.12279e-13
6.01344e-13
5.87099e-13
5.69708e-13
5.49401e-13
5.26467e-13
5.01248e-13
4.74123e-13
4.45498e-13
4.15797e-13
3.85444e-13
3.54857e-13
3.24432e-13
2.9454e-13
2.65511e-13
2.37635e-13
2.11155e-13
1.86263e-13
1.63103e-13
1.41768e-13
1.22307e-13
1.04727e-13
8.89968e-14
7.50544e-14
6.28118e-14
5.21612e-14
4.29807e-14
3.51396e-14
2.85036e-14
2.29382e-14
1.83129e-14
1.45036e-14
1.13945e-14
8.87964e-15
6.86377e-15
5.26234e-15
4.00154e-15
3.0178e-15
2.25712e-15
1.67419e-15
1.23147e-15
8.9826e-16
6.49712e-16
4.65982e-16
3.31385e-16
2.33669e-16
1.63365e-16
1.13239e-16
7.78217e-17
5.30219e-17
3.58129e-17
2.39781e-17
1.5911e-17
1.04586e-17
6.80173e-18
4.36252e-18
2.73594e-18
1.63773e-18
8.65665e-19
2.6998e-19
9.36858e-18
2.83397e-17
4.8021e-17
6.89075e-17
9.15227e-17
1.16429e-16
1.44238e-16
1.75629e-16
2.11354e-16
2.52264e-16
2.99316e-16
3.53597e-16
4.16342e-16
4.88962e-16
5.73061e-16
6.70472e-16
7.83286e-16
9.13888e-16
1.065e-15
1.23971e-15
1.44155e-15
1.67453e-15
1.9432e-15
2.25272e-15
2.60895e-15
3.01851e-15
3.48888e-15
4.02851e-15
4.64691e-15
5.3548e-15
6.16421e-15
7.08864e-15
8.14323e-15
9.34489e-15
1.07125e-14
1.22672e-14
1.40324e-14
1.60341e-14
1.83013e-14
2.08659e-14
2.37635e-14
2.70331e-14
3.07177e-14
3.48646e-14
3.95259e-14
4.47583e-14
5.06242e-14
5.71914e-14
6.45338e-14
7.27318e-14
8.18724e-14
9.20501e-14
1.03366e-13
1.15931e-13
1.29862e-13
1.45286e-13
1.62337e-13
1.8116e-13
2.01909e-13
2.24747e-13
2.49845e-13
2.77386e-13
3.07563e-13
3.40575e-13
3.76634e-13
4.15959e-13
4.58778e-13
5.05328e-13
5.55852e-13
6.10601e-13
6.69832e-13
7.33807e-13
8.02789e-13
8.77047e-13
9.5685e-13
1.04247e-12
1.13416e-12
1.23219e-12
1.33682e-12
1.44828e-12
1.56682e-12
1.69266e-12
1.826e-12
1.96703e-12
2.11591e-12
2.27279e-12
2.43778e-12
2.61097e-12
2.7924e-12
2.98209e-12
3.18002e-12
3.38611e-12
3.60027e-12
3.82233e-12
4.05208e-12
4.28928e-12
4.5336e-12
4.78467e-12
5.04209e-12
5.30535e-12
5.57392e-12
5.8472e-12
6.12454e-12
6.40519e-12
6.68841e-12
6.97333e-12
7.25908e-12
7.54471e-12
7.82923e-12
8.11159e-12
8.39072e-12
8.66549e-12
8.93473e-12
9.19728e-12
9.45192e-12
9.69743e-12
9.93258e-12
1.01561e-11
1.03669e-11
1.05636e-11
1.07451e-11
1.09103e-11
1.10581e-11
1.11873e-11
1.12971e-11
1.13864e-11
1.14546e-11
1.15008e-11
1.15244e-11
1.15249e-11
1.15019e-11
1.14552e-11
1.13845e-11
1.12899e-11
1.11716e-11
1.10298e-11
1.08651e-11
1.06779e-11
1.04692e-11
1.02397e-11
9.99055e-12
9.72298e-12
9.4383e-12
9.13798e-12
8.8236e-12
8.49684e-12
8.15947e-12
7.81332e-12
7.4603e-12
7.10234e-12
6.7414e-12
6.37943e-12
6.01837e-12
5.66013e-12
5.30654e-12
4.95939e-12
4.62035e-12
4.29101e-12
3.9728e-12
3.66706e-12
3.37497e-12
3.09756e-12
2.8357e-12
2.59011e-12
2.36133e-12
2.14976e-12
1.95562e-12
1.77899e-12
1.6198e-12
1.47784e-12
1.35274e-12
1.24404e-12
1.15115e-12
1.07336e-12
1.00987e-12
9.59815e-13
9.22224e-13
8.96073e-13
8.80275e-13
8.737e-13
8.75176e-13
8.83506e-13
8.97476e-13
9.15866e-13
9.37464e-13
9.61075e-13
9.85541e-13
1.00975e-12
1.03264e-12
1.05325e-12
1.07069e-12
1.08417e-12
1.09302e-12
1.09672e-12
1.09485e-12
1.08715e-12
1.0735e-12
1.05392e-12
1.02857e-12
9.97736e-13
9.61828e-13
9.21358e-13
8.76925e-13
8.29196e-13
7.78883e-13
7.26727e-13
6.73471e-13
6.19843e-13
5.66536e-13
5.14191e-13
4.63387e-13
4.14627e-13
3.68328e-13
3.24826e-13
2.84367e-13
2.47111e-13
2.13141e-13
1.82464e-13
1.55024e-13
1.3071e-13
1.09367e-13
9.08044e-14
7.48083e-14
6.11497e-14
4.95929e-14
3.9903e-14
3.18516e-14
2.52221e-14
1.98122e-14
1.54373e-14
1.1931e-14
9.14611e-15
6.9539e-15
5.24372e-15
3.92151e-15
2.9084e-15
2.13909e-15
1.56014e-15
1.12834e-15
8.09188e-16
5.7541e-16
4.05706e-16
2.83621e-16
1.96583e-16
1.3509e-16
9.20349e-17
6.21605e-17
4.16168e-17
2.76142e-17
1.81507e-17
1.18039e-17
7.57061e-18
4.74777e-18
2.84197e-18
1.50219e-18
4.68499e-19
1.84878e-17
5.59245e-17
9.47604e-17
1.35971e-16
1.80587e-16
2.29717e-16
2.84566e-16
3.46469e-16
4.16912e-16
4.97563e-16
5.90309e-16
6.97289e-16
8.20932e-16
9.6401e-16
1.12968e-15
1.32154e-15
1.54371e-15
1.80086e-15
2.09833e-15
2.44221e-15
2.83942e-15
3.2978e-15
3.82629e-15
4.43502e-15
5.13544e-15
5.94051e-15
6.86489e-15
7.92509e-15
9.1397e-15
1.05297e-14
1.21185e-14
1.39324e-14
1.60011e-14
1.83573e-14
2.1038e-14
2.4084e-14
2.75408e-14
3.14592e-14
3.58951e-14
4.09104e-14
4.65738e-14
5.29606e-14
6.01538e-14
6.82446e-14
7.73329e-14
8.7528e-14
9.8949e-14
1.11726e-13
1.26e-13
1.41924e-13
1.59664e-13
1.79398e-13
2.0132e-13
2.25636e-13
2.52569e-13
2.82355e-13
3.15248e-13
3.51518e-13
3.91449e-13
4.35345e-13
4.83523e-13
5.36319e-13
5.94084e-13
6.57185e-13
7.26006e-13
8.00941e-13
8.82403e-13
9.70811e-13
1.0666e-12
1.17021e-12
1.2821e-12
1.4027e-12
1.5325e-12
1.67193e-12
1.82145e-12
1.98151e-12
2.15254e-12
2.33497e-12
2.52921e-12
2.73563e-12
2.95459e-12
3.18642e-12
3.43142e-12
3.68982e-12
3.96184e-12
4.24763e-12
4.5473e-12
4.86088e-12
5.18834e-12
5.5296e-12
5.88449e-12
6.25276e-12
6.63409e-12
7.02807e-12
7.43418e-12
7.85185e-12
8.28038e-12
8.71899e-12
9.16681e-12
9.62286e-12
1.00861e-11
1.05553e-11
1.10292e-11
1.15065e-11
1.19857e-11
1.24653e-11
1.29437e-11
1.34192e-11
1.38901e-11
1.43544e-11
1.48105e-11
1.52562e-11
1.56898e-11
1.61092e-11
1.65124e-11
1.68974e-11
1.72623e-11
1.76051e-11
1.79238e-11
1.82167e-11
1.84818e-11
1.87175e-11
1.89222e-11
1.90942e-11
1.92323e-11
1.93352e-11
1.94017e-11
1.9431e-11
1.94222e-11
1.93748e-11
1.92885e-11
1.91631e-11
1.89986e-11
1.87955e-11
1.85542e-11
1.82755e-11
1.79605e-11
1.76103e-11
1.72265e-11
1.68109e-11
1.63653e-11
1.58919e-11
1.5393e-11
1.48713e-11
1.43292e-11
1.37698e-11
1.31958e-11
1.26104e-11
1.20166e-11
1.14175e-11
1.08162e-11
1.0216e-11
9.61966e-12
9.03033e-12
8.45081e-12
7.88381e-12
7.33189e-12
6.79742e-12
6.28256e-12
5.78927e-12
5.31924e-12
4.87396e-12
4.45464e-12
4.06223e-12
3.69745e-12
3.36075e-12
3.05234e-12
2.77219e-12
2.52004e-12
2.29543e-12
2.09767e-12
1.92591e-12
1.77913e-12
1.65613e-12
1.55559e-12
1.47606e-12
1.41598e-12
1.3737e-12
1.3475e-12
1.33558e-12
1.33611e-12
1.3472e-12
1.36698e-12
1.39355e-12
1.42504e-12
1.45962e-12
1.49552e-12
1.53104e-12
1.56458e-12
1.59466e-12
1.61995e-12
1.63926e-12
1.6516e-12
1.65617e-12
1.65236e-12
1.63979e-12
1.61829e-12
1.5879e-12
1.54888e-12
1.50166e-12
1.44689e-12
1.38532e-12
1.31788e-12
1.24556e-12
1.16945e-12
1.09066e-12
1.01029e-12
9.29447e-13
8.49163e-13
7.70396e-13
6.94007e-13
6.20743e-13
5.51225e-13
4.85947e-13
4.2527e-13
3.69429e-13
3.18538e-13
2.72604e-13
2.31537e-13
1.95165e-13
1.63249e-13
1.35503e-13
1.11603e-13
9.12022e-14
7.3947e-14
5.9484e-14
4.74706e-14
3.75816e-14
2.95143e-14
2.29922e-14
1.77664e-14
1.36168e-14
1.03511e-14
7.80406e-15
5.83528e-15
4.32707e-15
3.18202e-15
2.32045e-15
1.678e-15
1.20322e-15
8.55504e-16
6.03124e-16
4.21588e-16
2.92182e-16
2.00767e-16
1.36768e-16
9.23665e-17
6.18358e-17
4.10276e-17
2.69659e-17
1.75358e-17
1.12464e-17
7.05279e-18
4.22163e-18
2.23142e-18
6.95928e-19
3.54326e-17
1.0718e-16
1.81606e-16
2.60576e-16
3.46063e-16
4.40186e-16
5.45255e-16
6.63818e-16
7.98719e-16
9.53148e-16
1.13071e-15
1.33549e-15
1.57214e-15
1.84595e-15
2.16294e-15
2.53e-15
2.95496e-15
3.44676e-15
4.01559e-15
4.67303e-15
5.43228e-15
6.30831e-15
7.31812e-15
8.48098e-15
9.8187e-15
1.13559e-14
1.31205e-14
1.51439e-14
1.74613e-14
2.01124e-14
2.31418e-14
2.65994e-14
3.0541e-14
3.5029e-14
4.01328e-14
4.59297e-14
5.25058e-14
5.99562e-14
6.83865e-14
7.79132e-14
8.86648e-14
1.00783e-13
1.14423e-13
1.29755e-13
1.46965e-13
1.66258e-13
1.87855e-13
2.11997e-13
2.38945e-13
2.68983e-13
3.02416e-13
3.39574e-13
3.8081e-13
4.26502e-13
4.77056e-13
5.32905e-13
5.94507e-13
6.62348e-13
7.36944e-13
8.18836e-13
9.08595e-13
1.00682e-12
1.11412e-12
1.23116e-12
1.35859e-12
1.49712e-12
1.64745e-12
1.8103e-12
1.98642e-12
2.17656e-12
2.38146e-12
2.60188e-12
2.83858e-12
3.09228e-12
3.36373e-12
3.65361e-12
3.96261e-12
4.29137e-12
4.64048e-12
5.01049e-12
5.4019e-12
5.81512e-12
6.2505e-12
6.70832e-12
7.18875e-12
7.69188e-12
8.21766e-12
8.76597e-12
9.33655e-12
9.92899e-12
1.05428e-11
1.11773e-11
1.18317e-11
1.2505e-11
1.31961e-11
1.39038e-11
1.46267e-11
1.53631e-11
1.61114e-11
1.68697e-11
1.7636e-11
1.84081e-11
1.91836e-11
1.99602e-11
2.07352e-11
2.15061e-11
2.22699e-11
2.30239e-11
2.37651e-11
2.44904e-11
2.51968e-11
2.58812e-11
2.65405e-11
2.71715e-11
2.77712e-11
2.83365e-11
2.88643e-11
2.93518e-11
2.97962e-11
3.01948e-11
3.0545e-11
3.08445e-11
3.1091e-11
3.12826e-11
3.14175e-11
3.14943e-11
3.15116e-11
3.14686e-11
3.13646e-11
3.11992e-11
3.09725e-11
3.06847e-11
3.03366e-11
2.99291e-11
2.94637e-11
2.8942e-11
2.83663e-11
2.77388e-11
2.70624e-11
2.63401e-11
2.55753e-11
2.47717e-11
2.39332e-11
2.30639e-11
2.21682e-11
2.12505e-11
2.03155e-11
1.93679e-11
1.84125e-11
1.74539e-11
1.6497e-11
1.55462e-11
1.46063e-11
1.36814e-11
1.27757e-11
1.18931e-11
1.10372e-11
1.02114e-11
9.41868e-12
8.66159e-12
7.94245e-12
7.26317e-12
6.62526e-12
6.02985e-12
5.47772e-12
4.96924e-12
4.50446e-12
4.08305e-12
3.70438e-12
3.36752e-12
3.07124e-12
2.81406e-12
2.59429e-12
2.40999e-12
2.25906e-12
2.13925e-12
2.04814e-12
1.98322e-12
1.94187e-12
1.9214e-12
1.91908e-12
1.93214e-12
1.9578e-12
1.9933e-12
2.03593e-12
2.08304e-12
2.13206e-12
2.18056e-12
2.22627e-12
2.26707e-12
2.30107e-12
2.32661e-12
2.34228e-12
2.34697e-12
2.33985e-12
2.32038e-12
2.28836e-12
2.24387e-12
2.18727e-12
2.11923e-12
2.04064e-12
1.95261e-12
1.85644e-12
1.75355e-12
1.64546e-12
1.53374e-12
1.41996e-12
1.30564e-12
1.19225e-12
1.08112e-12
9.73444e-13
8.70267e-13
7.72448e-13
6.80667e-13
5.95416e-13
5.17014e-13
4.45609e-13
3.81199e-13
3.23647e-13
2.72702e-13
2.28024e-13
1.89202e-13
1.55777e-13
1.2726e-13
1.0315e-13
8.29494e-14
6.61774e-14
5.23765e-14
4.11221e-14
3.20264e-14
2.4741e-14
1.89578e-14
1.44078e-14
1.08602e-14
8.11871e-15
6.01911e-15
4.42546e-15
3.22664e-15
2.3329e-15
1.67255e-15
1.18902e-15
8.38134e-16
5.85784e-16
4.05929e-16
2.78894e-16
1.89971e-16
1.28285e-16
8.58745e-17
5.69728e-17
3.74436e-17
2.43479e-17
1.56146e-17
9.79173e-18
5.86092e-18
3.09784e-18
9.66139e-19
6.6871e-17
2.02276e-16
3.42729e-16
4.91747e-16
6.5305e-16
8.30629e-16
1.02884e-15
1.25248e-15
1.5069e-15
1.79813e-15
2.13294e-15
2.51903e-15
2.96514e-15
3.48123e-15
4.07865e-15
4.77034e-15
5.57102e-15
6.49752e-15
7.56897e-15
8.80715e-15
1.02368e-14
1.18861e-14
1.37869e-14
1.59754e-14
1.84925e-14
2.13843e-14
2.47031e-14
2.85076e-14
3.28638e-14
3.7846e-14
4.35375e-14
5.00314e-14
5.74318e-14
6.58551e-14
7.54306e-14
8.63023e-14
9.86299e-14
1.1259e-13
1.2838e-13
1.46213e-13
1.66329e-13
1.88989e-13
2.1448e-13
2.43116e-13
2.75239e-13
3.11224e-13
3.51477e-13
3.9644e-13
4.46589e-13
5.02442e-13
5.64553e-13
6.33519e-13
7.09979e-13
7.94619e-13
8.88166e-13
9.91394e-13
1.10512e-12
1.23022e-12
1.3676e-12
1.51822e-12
1.68308e-12
1.86323e-12
2.05974e-12
2.27374e-12
2.50638e-12
2.75885e-12
3.03234e-12
3.32809e-12
3.64732e-12
3.99129e-12
4.36121e-12
4.75832e-12
5.18382e-12
5.63887e-12
6.12459e-12
6.64206e-12
7.19227e-12
7.77614e-12
8.39451e-12
9.04808e-12
9.73745e-12
1.04631e-11
1.12253e-11
1.20243e-11
1.286e-11
1.37323e-11
1.46407e-11
1.55845e-11
1.65631e-11
1.75753e-11
1.86199e-11
1.96952e-11
2.07996e-11
2.1931e-11
2.30871e-11
2.42654e-11
2.54632e-11
2.66773e-11
2.79046e-11
2.91415e-11
3.03844e-11
3.16294e-11
3.28723e-11
3.41089e-11
3.53347e-11
3.65452e-11
3.77358e-11
3.89016e-11
4.00378e-11
4.11395e-11
4.22019e-11
4.322e-11
4.41891e-11
4.51045e-11
4.59613e-11
4.67552e-11
4.74819e-11
4.81371e-11
4.8717e-11
4.92179e-11
4.96365e-11
4.99698e-11
5.0215e-11
5.03699e-11
5.04325e-11
5.04015e-11
5.02757e-11
5.00545e-11
4.9738e-11
4.93265e-11
4.8821e-11
4.82228e-11
4.75339e-11
4.67569e-11
4.58946e-11
4.49505e-11
4.39287e-11
4.28336e-11
4.167e-11
4.04433e-11
3.91591e-11
3.78236e-11
3.6443e-11
3.50239e-11
3.35733e-11
3.2098e-11
3.06051e-11
2.91019e-11
2.75953e-11
2.60924e-11
2.46001e-11
2.31252e-11
2.1674e-11
2.02527e-11
1.88671e-11
1.75226e-11
1.6224e-11
1.49758e-11
1.37819e-11
1.26457e-11
1.15701e-11
1.05573e-11
9.6091e-12
8.72656e-12
7.91033e-12
7.16051e-12
6.47667e-12
5.85793e-12
5.30294e-12
4.80997e-12
4.37688e-12
4.00122e-12
3.68022e-12
3.41084e-12
3.18983e-12
3.01372e-12
2.87889e-12
2.78159e-12
2.71795e-12
2.68404e-12
2.67589e-12
2.68951e-12
2.72094e-12
2.76624e-12
2.82157e-12
2.88321e-12
2.94757e-12
3.01127e-12
3.07113e-12
3.12427e-12
3.16806e-12
3.20025e-12
3.21892e-12
3.22257e-12
3.21008e-12
3.18077e-12
3.13437e-12
3.07104e-12
2.99132e-12
2.89612e-12
2.78671e-12
2.66462e-12
2.53164e-12
2.38972e-12
2.24095e-12
2.08747e-12
1.9314e-12
1.77484e-12
1.61973e-12
1.46791e-12
1.32097e-12
1.18031e-12
1.04708e-12
9.2219e-13
8.06283e-13
6.99772e-13
6.02839e-13
5.15463e-13
4.37443e-13
3.68426e-13
3.07935e-13
2.55404e-13
2.102e-13
1.71654e-13
1.39082e-13
1.11805e-13
8.91678e-14
7.0549e-14
5.53722e-14
4.31114e-14
3.32946e-14
2.55047e-14
1.93783e-14
1.4603e-14
1.0914e-14
8.08964e-15
5.94647e-15
4.33471e-15
3.13342e-15
2.24606e-15
1.59645e-15
1.12514e-15
7.86259e-16
5.44774e-16
3.74238e-16
2.54885e-16
1.72101e-16
1.15194e-16
7.64178e-17
5.02193e-17
3.26532e-17
2.09397e-17
1.31304e-17
7.85905e-18
4.15387e-18
1.29548e-18
1.24703e-16
3.77208e-16
6.39115e-16
9.16981e-16
1.21773e-15
1.54881e-15
1.91831e-15
2.33519e-15
2.80941e-15
3.35217e-15
3.9761e-15
4.69553e-15
5.52673e-15
6.48822e-15
7.60112e-15
8.88947e-15
1.03807e-14
1.21061e-14
1.41011e-14
1.64063e-14
1.90677e-14
2.21374e-14
2.56747e-14
2.97468e-14
3.44293e-14
3.98081e-14
4.59797e-14
5.3053e-14
6.11502e-14
7.04087e-14
8.09825e-14
9.30436e-14
1.06784e-13
1.22419e-13
1.40187e-13
1.60352e-13
1.83209e-13
2.09083e-13
2.38333e-13
2.71356e-13
3.08587e-13
3.50504e-13
3.97631e-13
4.50542e-13
5.09862e-13
5.76269e-13
6.50502e-13
7.3336e-13
8.25707e-13
9.28473e-13
1.04266e-12
1.16934e-12
1.30965e-12
1.46482e-12
1.63615e-12
1.82501e-12
2.03284e-12
2.26119e-12
2.51165e-12
2.7859e-12
3.08567e-12
3.41279e-12
3.7691e-12
4.15654e-12
4.57707e-12
5.03268e-12
5.5254e-12
6.05726e-12
6.6303e-12
7.24655e-12
7.90798e-12
8.61656e-12
9.37415e-12
1.01825e-11
1.10434e-11
1.19584e-11
1.29288e-11
1.3956e-11
1.50409e-11
1.61844e-11
1.73871e-11
1.86494e-11
1.99712e-11
2.13523e-11
2.27922e-11
2.42899e-11
2.58441e-11
2.74532e-11
2.91151e-11
3.08275e-11
3.25873e-11
3.43915e-11
3.62364e-11
3.81178e-11
4.00313e-11
4.1972e-11
4.39347e-11
4.59138e-11
4.79033e-11
4.98969e-11
5.18881e-11
5.38699e-11
5.58353e-11
5.7777e-11
5.96875e-11
6.15592e-11
6.33844e-11
6.51554e-11
6.68645e-11
6.8504e-11
7.00664e-11
7.15441e-11
7.29299e-11
7.42169e-11
7.53982e-11
7.64676e-11
7.74189e-11
7.82467e-11
7.89457e-11
7.95115e-11
7.99398e-11
8.02273e-11
8.0371e-11
8.03688e-11
8.02191e-11
7.9921e-11
7.94746e-11
7.88804e-11
7.81397e-11
7.72547e-11
7.62284e-11
7.50643e-11
7.37669e-11
7.23412e-11
7.07932e-11
6.91294e-11
6.73569e-11
6.54835e-11
6.35177e-11
6.14682e-11
5.93445e-11
5.71564e-11
5.49137e-11
5.2627e-11
5.03068e-11
4.79635e-11
4.5608e-11
4.32508e-11
4.09022e-11
3.85725e-11
3.62716e-11
3.4009e-11
3.17936e-11
2.96338e-11
2.75377e-11
2.55123e-11
2.35641e-11
2.16988e-11
1.99214e-11
1.8236e-11
1.66459e-11
1.51535e-11
1.37606e-11
1.2468e-11
1.12759e-11
1.01835e-11
9.18966e-12
8.29235e-12
7.48903e-12
6.77661e-12
6.1515e-12
5.6097e-12
5.14681e-12
4.75812e-12
4.43862e-12
4.18312e-12
3.98622e-12
3.84238e-12
3.74598e-12
3.69135e-12
3.67279e-12
3.68463e-12
3.72128e-12
3.77721e-12
3.84709e-12
3.92573e-12
4.00821e-12
4.08988e-12
4.1664e-12
4.23385e-12
4.28871e-12
4.32792e-12
4.34894e-12
4.34977e-12
4.32895e-12
4.28561e-12
4.21944e-12
4.13069e-12
4.02014e-12
3.88908e-12
3.73921e-12
3.57265e-12
3.39181e-12
3.19933e-12
2.99801e-12
2.79073e-12
2.58032e-12
2.36958e-12
2.1611e-12
1.95729e-12
1.76027e-12
1.57189e-12
1.39365e-12
1.22672e-12
1.07194e-12
9.29836e-13
8.00615e-13
6.84225e-13
5.80374e-13
4.88571e-13
4.08164e-13
3.38382e-13
2.7837e-13
2.27227e-13
1.84035e-13
1.47884e-13
1.17897e-13
9.32451e-14
7.316e-14
5.69413e-14
4.39611e-14
3.36651e-14
2.55709e-14
1.92641e-14
1.43937e-14
1.06661e-14
7.83841e-15
5.71253e-15
4.12849e-15
2.95872e-15
2.10258e-15
1.48158e-15
1.03517e-15
7.17121e-16
4.92561e-16
3.35428e-16
2.26457e-16
1.5156e-16
1.00532e-16
6.60608e-17
4.29503e-17
2.75412e-17
1.72691e-17
1.03358e-17
5.46281e-18
1.70368e-18
2.29986e-16
6.9567e-16
1.17868e-15
1.69111e-15
2.24572e-15
2.85621e-15
3.53752e-15
4.30615e-15
5.18045e-15
6.18105e-15
7.33122e-15
8.65735e-15
1.01894e-14
1.19615e-14
1.40125e-14
1.63867e-14
1.91345e-14
2.23134e-14
2.5989e-14
3.02355e-14
3.51376e-14
4.07913e-14
4.73053e-14
5.4803e-14
6.34237e-14
7.33245e-14
8.46827e-14
9.7698e-14
1.12595e-13
1.29624e-13
1.49068e-13
1.71242e-13
1.96497e-13
2.25225e-13
2.57862e-13
2.94891e-13
3.36848e-13
3.84326e-13
4.37978e-13
4.98524e-13
5.66754e-13
6.43537e-13
7.29821e-13
8.26641e-13
9.35125e-13
1.0565e-12
1.19209e-12
1.34333e-12
1.51178e-12
1.69909e-12
1.90705e-12
2.13756e-12
2.39267e-12
2.67454e-12
2.98545e-12
3.32782e-12
3.70421e-12
4.11728e-12
4.56982e-12
5.06474e-12
5.60503e-12
6.19381e-12
6.83427e-12
7.52965e-12
8.28327e-12
9.09847e-12
9.97861e-12
1.0927e-11
1.19471e-11
1.3042e-11
1.42149e-11
1.54688e-11
1.68067e-11
1.82312e-11
1.97448e-11
2.13496e-11
2.30476e-11
2.48402e-11
2.67287e-11
2.87137e-11
3.07956e-11
3.29741e-11
3.52484e-11
3.76173e-11
4.00788e-11
4.26304e-11
4.5269e-11
4.79908e-11
5.07912e-11
5.3665e-11
5.66066e-11
5.96093e-11
6.2666e-11
6.57689e-11
6.89094e-11
7.20786e-11
7.52668e-11
7.84639e-11
8.16591e-11
8.48416e-11
8.79997e-11
9.11217e-11
9.41957e-11
9.72092e-11
1.0015e-10
1.03006e-10
1.05764e-10
1.08413e-10
1.1094e-10
1.13334e-10
1.15582e-10
1.17675e-10
1.196e-10
1.2135e-10
1.22913e-10
1.24281e-10
1.25447e-10
1.26404e-10
1.27144e-10
1.27663e-10
1.27957e-10
1.28022e-10
1.27856e-10
1.27458e-10
1.26827e-10
1.25966e-10
1.24875e-10
1.23559e-10
1.22022e-10
1.20269e-10
1.18307e-10
1.16144e-10
1.13789e-10
1.11251e-10
1.08542e-10
1.05672e-10
1.02655e-10
9.95035e-11
9.62314e-11
9.28534e-11
8.93844e-11
8.584e-11
8.22357e-11
7.85874e-11
7.49111e-11
7.12226e-11
6.75378e-11
6.38719e-11
6.02401e-11
5.66568e-11
5.31359e-11
4.96906e-11
4.63331e-11
4.3075e-11
3.99265e-11
3.6897e-11
3.39947e-11
3.12268e-11
2.85991e-11
2.61163e-11
2.37818e-11
2.15981e-11
1.95662e-11
1.76863e-11
1.59573e-11
1.43771e-11
1.2943e-11
1.1651e-11
1.04965e-11
9.47442e-12
8.57874e-12
7.80307e-12
7.14053e-12
6.58388e-12
6.12557e-12
5.7578e-12
5.47263e-12
5.26197e-12
5.11769e-12
5.03165e-12
4.99577e-12
5.00204e-12
5.04261e-12
5.10981e-12
5.19625e-12
5.29481e-12
5.39876e-12
5.50175e-12
5.59796e-12
5.68207e-12
5.74937e-12
5.79582e-12
5.81803e-12
5.8134e-12
5.78003e-12
5.71682e-12
5.62343e-12
5.50027e-12
5.34843e-12
5.16969e-12
4.96637e-12
4.74131e-12
4.49776e-12
4.23925e-12
3.9695e-12
3.69232e-12
3.41149e-12
3.13065e-12
2.85326e-12
2.58244e-12
2.32098e-12
2.07128e-12
1.83527e-12
1.61447e-12
1.40994e-12
1.22232e-12
1.05186e-12
8.98462e-13
7.61694e-13
6.40883e-13
5.35144e-13
4.4344e-13
3.64627e-13
2.97503e-13
2.40847e-13
1.93454e-13
1.54165e-13
1.21882e-13
9.55924e-14
7.43738e-14
5.73998e-14
4.39417e-14
3.3366e-14
2.5129e-14
1.87704e-14
1.39055e-14
1.02163e-14
7.44365e-15
5.37833e-15
3.85357e-15
2.73793e-15
1.9289e-15
1.34746e-15
9.33305e-16
6.4095e-16
4.36415e-16
2.94599e-16
1.97141e-16
1.30754e-16
8.59115e-17
5.5852e-17
3.58118e-17
2.24537e-17
1.34383e-17
7.10241e-18
2.215e-18
4.19582e-16
1.26916e-15
2.15035e-15
3.08518e-15
4.09694e-15
5.21062e-15
6.45346e-15
7.85554e-15
9.45034e-15
1.12755e-14
1.33734e-14
1.57921e-14
1.85863e-14
2.18183e-14
2.55587e-14
2.98883e-14
3.4899e-14
4.06957e-14
4.73974e-14
5.51397e-14
6.40765e-14
7.43828e-14
8.62563e-14
9.99214e-14
1.15631e-13
1.33672e-13
1.54366e-13
1.78075e-13
2.05206e-13
2.36217e-13
2.71618e-13
3.11981e-13
3.57941e-13
4.1021e-13
4.69575e-13
5.3691e-13
6.13183e-13
6.99463e-13
7.96928e-13
9.06876e-13
1.03073e-12
1.17005e-12
1.32653e-12
1.50203e-12
1.69858e-12
1.91836e-12
2.16374e-12
2.43727e-12
2.74172e-12
3.08002e-12
3.45535e-12
3.87106e-12
4.33075e-12
4.83821e-12
5.39746e-12
6.01272e-12
6.68842e-12
7.42919e-12
8.23986e-12
9.1254e-12
1.0091e-11
1.11419e-11
1.22834e-11
1.35212e-11
1.48607e-11
1.63075e-11
1.7867e-11
1.95447e-11
2.1346e-11
2.3276e-11
2.53396e-11
2.75415e-11
2.9886e-11
3.2377e-11
3.50179e-11
3.78116e-11
4.07604e-11
4.38659e-11
4.71289e-11
5.05496e-11
5.41271e-11
5.78598e-11
6.17449e-11
6.57789e-11
6.99569e-11
7.42731e-11
7.87207e-11
8.32916e-11
8.79766e-11
9.27653e-11
9.76465e-11
1.02607e-10
1.07635e-10
1.12714e-10
1.17829e-10
1.22964e-10
1.28102e-10
1.33224e-10
1.38312e-10
1.43348e-10
1.4831e-10
1.53181e-10
1.57939e-10
1.62564e-10
1.67037e-10
1.71338e-10
1.75448e-10
1.79346e-10
1.83016e-10
1.86438e-10
1.89597e-10
1.92476e-10
1.95061e-10
1.97338e-10
1.99294e-10
2.00918e-10
2.02201e-10
2.03135e-10
2.03712e-10
2.03928e-10
2.0378e-10
2.03266e-10
2.02386e-10
2.01142e-10
1.99538e-10
1.97578e-10
1.95271e-10
1.92624e-10
1.89648e-10
1.86356e-10
1.8276e-10
1.78876e-10
1.7472e-10
1.7031e-10
1.65665e-10
1.60804e-10
1.55749e-10
1.50523e-10
1.45146e-10
1.39643e-10
1.34037e-10
1.28352e-10
1.22612e-10
1.16841e-10
1.11063e-10
1.05301e-10
9.95778e-11
9.39157e-11
8.83361e-11
8.28591e-11
7.75039e-11
7.22884e-11
6.7229e-11
6.23408e-11
5.76371e-11
5.31296e-11
4.88284e-11
4.47419e-11
4.08764e-11
3.7237e-11
3.38266e-11
3.06467e-11
2.7697e-11
2.49759e-11
2.24802e-11
2.02054e-11
1.81457e-11
1.62942e-11
1.46431e-11
1.31838e-11
1.19066e-11
1.08015e-11
9.85795e-12
9.06482e-12
8.41082e-12
7.88441e-12
7.4739e-12
7.16759e-12
6.95376e-12
6.82083e-12
6.75733e-12
6.75203e-12
6.79399e-12
6.87259e-12
6.97764e-12
7.09941e-12
7.22872e-12
7.35702e-12
7.47643e-12
7.57986e-12
7.66103e-12
7.71457e-12
7.73607e-12
7.72209e-12
7.67023e-12
7.57911e-12
7.44836e-12
7.2786e-12
7.07139e-12
6.82913e-12
6.55498e-12
6.25274e-12
5.92674e-12
5.58166e-12
5.22243e-12
4.85408e-12
4.48156e-12
4.10966e-12
3.74286e-12
3.38526e-12
3.04048e-12
2.71157e-12
2.40107e-12
2.11087e-12
1.84233e-12
1.59623e-12
1.37284e-12
1.17197e-12
9.93022e-13
8.35077e-13
6.96939e-13
5.77221e-13
4.74401e-13
3.86888e-13
3.13068e-13
2.51355e-13
2.00221e-13
1.58229e-13
1.24051e-13
9.64792e-14
7.44332e-14
5.69617e-14
4.3238e-14
3.25536e-14
2.43089e-14
1.80033e-14
1.32234e-14
9.63209e-15
6.95785e-15
4.98414e-15
3.54042e-15
2.49375e-15
1.74171e-15
1.20617e-15
8.28204e-16
5.63831e-16
3.80557e-16
2.54632e-16
1.68866e-16
1.10942e-16
7.21189e-17
4.62387e-17
2.89896e-17
1.73493e-17
9.16914e-18
2.8595e-18
7.57279e-16
2.29064e-15
3.88104e-15
5.56826e-15
7.39433e-15
9.40437e-15
1.16475e-14
1.41781e-14
1.70565e-14
2.03506e-14
2.41371e-14
2.85026e-14
3.35459e-14
3.9379e-14
4.61299e-14
5.39441e-14
6.29874e-14
7.34488e-14
8.55433e-14
9.95153e-14
1.15642e-13
1.3424e-13
1.55664e-13
1.80319e-13
2.08661e-13
2.41205e-13
2.78531e-13
3.21292e-13
3.70219e-13
4.26134e-13
4.89954e-13
5.62707e-13
6.45535e-13
7.39711e-13
8.46649e-13
9.67914e-13
1.10524e-12
1.26054e-12
1.43592e-12
1.63369e-12
1.85639e-12
2.10681e-12
2.38796e-12
2.70315e-12
3.05597e-12
3.45029e-12
3.8903e-12
4.38053e-12
4.92581e-12
5.53136e-12
6.20272e-12
6.94579e-12
7.76683e-12
8.67247e-12
9.66969e-12
1.07658e-11
1.19685e-11
1.32857e-11
1.47256e-11
1.62969e-11
1.80081e-11
1.98683e-11
2.18866e-11
2.4072e-11
2.64337e-11
2.89808e-11
3.17222e-11
3.46668e-11
3.7823e-11
4.11989e-11
4.4802e-11
4.86393e-11
5.2717e-11
5.70406e-11
6.16146e-11
6.64425e-11
7.15265e-11
7.68676e-11
8.24655e-11
8.83184e-11
9.44229e-11
1.00774e-10
1.07365e-10
1.14187e-10
1.21229e-10
1.28481e-10
1.35926e-10
1.4355e-10
1.51334e-10
1.59259e-10
1.67302e-10
1.75441e-10
1.83651e-10
1.91905e-10
2.00176e-10
2.08434e-10
2.1665e-10
2.24791e-10
2.32827e-10
2.40725e-10
2.48452e-10
2.55976e-10
2.63264e-10
2.70283e-10
2.77003e-10
2.83391e-10
2.89418e-10
2.95055e-10
3.00274e-10
3.05051e-10
3.0936e-10
3.1318e-10
3.1649e-10
3.19273e-10
3.21514e-10
3.23199e-10
3.24318e-10
3.24864e-10
3.24831e-10
3.24217e-10
3.23022e-10
3.2125e-10
3.18907e-10
3.16001e-10
3.12543e-10
3.08548e-10
3.04031e-10
2.99012e-10
2.93512e-10
2.87555e-10
2.81165e-10
2.7437e-10
2.672e-10
2.59685e-10
2.51857e-10
2.43749e-10
2.35397e-10
2.26836e-10
2.18101e-10
2.09229e-10
2.00255e-10
1.91218e-10
1.82152e-10
1.73094e-10
1.64077e-10