/*--------------------------------*- C++ -*----------------------------------*\
| =========                 |                                                 |
| \\      /  F ield         | OpenFOAM: The Open Source CFD Toolbox           |
|  \\    /   O peration     | Version:  v2012                                 |
|   \\  /    A nd           | Website:  www.openfoam.com                      |
|    \\/     M anipulation  |                                                 |
\*---------------------------------------------------------------------------*/
FoamFile
{
    version     2.0;
    format      ascii;
    class       volScalarField;
    location    "15.8";
    object      Psi_z;
}
// * * * * * * * * * * * * * * * * * * * * * * * * * * * * * * * * * * * * * //

dimensions      [0 2 -1 0 0 0 0];


internalField   nonuniform List<scalar> 
65536
(
8.40233e-06
2.52076e-05
4.20143e-05
5.88234e-05
7.56358e-05
9.24525e-05
0.000109274
0.000126102
0.000142937
0.00015978
0.000176632
0.000193493
0.000210364
0.000227247
0.000244142
0.000261049
0.00027797
0.000294905
0.000311855
0.000328819
0.0003458
0.000362796
0.00037981
0.00039684
0.000413888
0.000430954
0.000448037
0.000465138
0.000482258
0.000499395
0.000516551
0.000533724
0.000550915
0.000568123
0.000585347
0.000602588
0.000619845
0.000637117
0.000654403
0.000671702
0.000689014
0.000706336
0.000723669
0.000741009
0.000758357
0.00077571
0.000793067
0.000810425
0.000827783
0.000845138
0.000862488
0.000879831
0.000897163
0.000914483
0.000931786
0.000949071
0.000966333
0.000983569
0.00100078
0.00101795
0.00103509
0.00105218
0.00106923
0.00108623
0.00110317
0.00112006
0.00113687
0.00115362
0.0011703
0.00118689
0.00120339
0.0012198
0.00123611
0.00125232
0.00126842
0.00128439
0.00130024
0.00131596
0.00133154
0.00134697
0.00136225
0.00137736
0.00139231
0.00140708
0.00142166
0.00143605
0.00145024
0.00146423
0.00147799
0.00149153
0.00150484
0.0015179
0.00153072
0.00154327
0.00155557
0.00156758
0.00157931
0.00159076
0.0016019
0.00161274
0.00162326
0.00163346
0.00164333
0.00165287
0.00166206
0.0016709
0.00167938
0.0016875
0.00169524
0.00170262
0.0017096
0.0017162
0.00172241
0.00172822
0.00173362
0.00173862
0.00174321
0.00174739
0.00175114
0.00175448
0.00175739
0.00175988
0.00176194
0.00176357
0.00176477
0.00176555
0.00176589
0.0017658
0.00176529
0.00176434
0.00176297
0.00176118
0.00175896
0.00175632
0.00175326
0.00174979
0.00174591
0.00174162
0.00173692
0.00173183
0.00172634
0.00172047
0.00171421
0.00170758
0.00170057
0.00169319
0.00168546
0.00167737
0.00166894
0.00166016
0.00165105
0.00164162
0.00163187
0.00162181
0.00161144
0.00160078
0.00158983
0.00157859
0.00156709
0.00155532
0.00154329
0.00153101
0.00151849
0.00150573
0.00149275
0.00147955
0.00146614
0.00145252
0.00143871
0.0014247
0.00141052
0.00139616
0.00138164
0.00136695
0.00135211
0.00133713
0.001322
0.00130674
0.00129136
0.00127585
0.00126023
0.0012445
0.00122866
0.00121273
0.00119671
0.0011806
0.00116441
0.00114814
0.0011318
0.0011154
0.00109893
0.00108241
0.00106583
0.00104921
0.00103253
0.00101582
0.000999071
0.000982286
0.00096547
0.000948626
0.000931758
0.000914868
0.000897959
0.000881034
0.000864095
0.000847145
0.000830186
0.00081322
0.000796249
0.000779275
0.0007623
0.000745325
0.000728352
0.000711383
0.000694418
0.000677459
0.000660507
0.000643563
0.000626629
0.000609704
0.00059279
0.000575887
0.000558995
0.000542117
0.000525251
0.000508398
0.000491558
0.000474732
0.00045792
0.000441122
0.000424337
0.000407566
0.000390809
0.000374066
0.000357335
0.000340618
0.000323914
0.000307221
0.000290541
0.000273873
0.000257215
0.000240569
0.000223932
0.000207305
0.000190686
0.000174076
0.000157474
0.000140879
0.00012429
0.000107706
9.11277e-05
7.45533e-05
5.79824e-05
4.14141e-05
2.48477e-05
8.28244e-06
2.52068e-05
7.56217e-05
0.000126041
0.000176468
0.000226904
0.000277353
0.000327818
0.000378301
0.000428805
0.000479333
0.000529887
0.00058047
0.000631084
0.000681732
0.000732415
0.000783137
0.000833899
0.000884703
0.000935551
0.000986445
0.00103739
0.00108838
0.00113942
0.00119051
0.00124165
0.00129285
0.0013441
0.0013954
0.00144676
0.00149817
0.00154964
0.00160116
0.00165273
0.00170436
0.00175603
0.00180775
0.00185953
0.00191134
0.0019632
0.0020151
0.00206704
0.002119
0.002171
0.00222303
0.00227507
0.00232713
0.0023792
0.00243128
0.00248336
0.00253542
0.00258748
0.00263951
0.00269151
0.00274347
0.00279538
0.00284724
0.00289903
0.00295074
0.00300237
0.00305389
0.00310531
0.00315659
0.00320775
0.00325875
0.00330958
0.00336024
0.0034107
0.00346095
0.00351098
0.00356076
0.00361027
0.00365951
0.00370846
0.00375708
0.00380537
0.0038533
0.00390086
0.00394802
0.00399476
0.00404107
0.00408691
0.00413226
0.00417711
0.00422142
0.00426518
0.00430837
0.00435095
0.0043929
0.00443421
0.00447483
0.00451476
0.00455396
0.00459242
0.0046301
0.00466697
0.00470303
0.00473824
0.00477257
0.00480601
0.00483853
0.00487011
0.00490072
0.00493034
0.00495895
0.00498653
0.00501306
0.00503851
0.00506287
0.00508611
0.00510823
0.0051292
0.005149
0.00516763
0.00518506
0.00520128
0.00521628
0.00523005
0.00524257
0.00525385
0.00526385
0.00527259
0.00528006
0.00528624
0.00529114
0.00529475
0.00529707
0.0052981
0.00529784
0.00529629
0.00529346
0.00528934
0.00528395
0.00527729
0.00526937
0.0052602
0.00524978
0.00523812
0.00522525
0.00521117
0.00519588
0.00517942
0.00516179
0.00514301
0.0051231
0.00510207
0.00507994
0.00505673
0.00503246
0.00500715
0.00498082
0.00495349
0.00492518
0.00489592
0.00486572
0.00483461
0.00480262
0.00476975
0.00473605
0.00470152
0.0046662
0.00463011
0.00459326
0.00455569
0.00451742
0.00447846
0.00443885
0.00439861
0.00435775
0.00431631
0.00427429
0.00423173
0.00418865
0.00414507
0.00410101
0.00405648
0.00401152
0.00396613
0.00392035
0.00387418
0.00382766
0.00378078
0.00373359
0.00368608
0.00363828
0.00359021
0.00354188
0.0034933
0.00344449
0.00339548
0.00334626
0.00329685
0.00324728
0.00319754
0.00314766
0.00309764
0.0030475
0.00299724
0.00294688
0.00289643
0.0028459
0.00279529
0.00274462
0.00269389
0.00264311
0.00259229
0.00254144
0.00249056
0.00243966
0.00238875
0.00233782
0.0022869
0.00223597
0.00218505
0.00213414
0.00208324
0.00203237
0.00198151
0.00193068
0.00187987
0.0018291
0.00177835
0.00172764
0.00167697
0.00162633
0.00157574
0.00152518
0.00147466
0.00142418
0.00137374
0.00132335
0.00127299
0.00122268
0.00117241
0.00112218
0.00107199
0.00102184
0.000971726
0.000921651
0.000871611
0.000821606
0.000771634
0.000721694
0.000671785
0.000621904
0.00057205
0.000522221
0.000472414
0.000422629
0.000372863
0.000323113
0.000273379
0.000223656
0.000173944
0.00012424
7.45419e-05
2.48469e-05
4.20097e-05
0.000126032
0.000210061
0.000294102
0.000378159
0.000462238
0.000546343
0.000630479
0.000714649
0.00079886
0.000883114
0.000967416
0.00105177
0.00113618
0.00122065
0.00130518
0.00138979
0.00147446
0.0015592
0.00164402
0.00172892
0.0018139
0.00189897
0.00198412
0.00206936
0.00215469
0.0022401
0.00232561
0.00241121
0.00249689
0.00258267
0.00266854
0.00275449
0.00284054
0.00292666
0.00301287
0.00309916
0.00318552
0.00327196
0.00335846
0.00344502
0.00353164
0.00361831
0.00370502
0.00379177
0.00387854
0.00396534
0.00405214
0.00413894
0.00422572
0.00431249
0.00439921
0.00448589
0.0045725
0.00465904
0.00474548
0.0048318
0.004918
0.00500406
0.00508995
0.00517565
0.00526114
0.00534641
0.00543143
0.00551617
0.00560062
0.00568474
0.00576851
0.0058519
0.00593488
0.00601743
0.00609952
0.00618111
0.00626218
0.00634268
0.00642259
0.00650188
0.0065805
0.00665843
0.00673563
0.00681205
0.00688767
0.00696244
0.00703632
0.00710928
0.00718128
0.00725228
0.00732223
0.00739109
0.00745883
0.00752541
0.00759077
0.00765489
0.00771771
0.00777921
0.00783933
0.00789803
0.00795529
0.00801105
0.00806527
0.00811792
0.00816897
0.00821836
0.00826607
0.00831206
0.00835629
0.00839873
0.00843935
0.00847811
0.00851499
0.00854996
0.00858298
0.00861404
0.00864311
0.00867016
0.00869517
0.00871813
0.00873902
0.00875781
0.0087745
0.00878907
0.00880152
0.00881183
0.00881999
0.00882601
0.00882988
0.00883159
0.00883116
0.00882858
0.00882385
0.00881699
0.008808
0.00879689
0.00878368
0.00876838
0.008751
0.00873157
0.00871009
0.0086866
0.00866112
0.00863367
0.00860427
0.00857295
0.00853974
0.00850466
0.00846776
0.00842905
0.00838858
0.00834638
0.00830247
0.0082569
0.00820969
0.0081609
0.00811054
0.00805867
0.00800532
0.00795052
0.00789432
0.00783676
0.00777786
0.00771768
0.00765625
0.0075936
0.00752979
0.00746484
0.00739879
0.00733169
0.00726357
0.00719447
0.00712442
0.00705347
0.00698164
0.00690898
0.00683552
0.00676129
0.00668633
0.00661067
0.00653434
0.00645738
0.00637981
0.00630167
0.00622299
0.00614379
0.00606411
0.00598397
0.0059034
0.00582242
0.00574106
0.00565935
0.0055773
0.00549495
0.00541231
0.0053294
0.00524625
0.00516287
0.00507929
0.00499552
0.00491157
0.00482748
0.00474324
0.00465889
0.00457442
0.00448987
0.00440523
0.00432052
0.00423576
0.00415096
0.00406612
0.00398125
0.00389637
0.00381149
0.00372661
0.00364174
0.00355688
0.00347205
0.00338725
0.00330249
0.00321776
0.00313309
0.00304846
0.00296388
0.00287937
0.00279491
0.00271051
0.00262618
0.00254192
0.00245772
0.00237359
0.00228953
0.00220553
0.00212161
0.00203776
0.00195397
0.00187026
0.00178661
0.00170302
0.0016195
0.00153604
0.00145265
0.00136931
0.00128602
0.00120279
0.00111961
0.00103648
0.000953388
0.000870342
0.000787334
0.000704361
0.000621419
0.000538506
0.000455617
0.000372749
0.000289898
0.000207061
0.000124233
4.14102e-05
5.88102e-05
0.000176434
0.000294068
0.000411719
0.000529393
0.000647097
0.000764837
0.000882621
0.00100045
0.00111834
0.00123629
0.00135431
0.0014724
0.00159057
0.00170882
0.00182716
0.0019456
0.00206414
0.00218277
0.00230152
0.00242038
0.00253935
0.00265844
0.00277765
0.00289698
0.00301643
0.00313602
0.00325572
0.00337556
0.00349552
0.00361561
0.00373583
0.00385617
0.00397663
0.00409721
0.00421791
0.00433872
0.00445963
0.00458065
0.00470176
0.00482295
0.00494423
0.00506557
0.00518698
0.00530844
0.00542994
0.00555146
0.00567299
0.00579453
0.00591605
0.00603753
0.00615897
0.00628034
0.00640161
0.00652278
0.00664382
0.00676471
0.00688541
0.00700591
0.00712618
0.0072462
0.00736592
0.00748533
0.00760439
0.00772306
0.00784132
0.00795912
0.00807644
0.00819322
0.00830944
0.00842506
0.00854002
0.00865429
0.00876783
0.00888058
0.00899251
0.00910356
0.00921368
0.00932283
0.00943095
0.009538
0.00964392
0.00974865
0.00985214
0.00995435
0.0100552
0.0101546
0.0102526
0.0103491
0.010444
0.0105373
0.0106288
0.0107187
0.0108067
0.0108928
0.010977
0.0110593
0.0111395
0.0112176
0.0112936
0.0113673
0.0114389
0.0115081
0.0115749
0.0116393
0.0117013
0.0117608
0.0118177
0.011872
0.0119237
0.0119727
0.0120189
0.0120624
0.0121032
0.0121411
0.0121761
0.0122083
0.0122375
0.0122639
0.0122873
0.0123077
0.0123251
0.0123396
0.012351
0.0123594
0.0123648
0.0123672
0.0123666
0.012363
0.0123564
0.0123468
0.0123342
0.0123186
0.0123001
0.0122786
0.0122543
0.012227
0.012197
0.012164
0.0121283
0.0120899
0.0120487
0.0120048
0.0119582
0.0119091
0.0118574
0.0118032
0.0117464
0.0116873
0.0116258
0.0115619
0.0114958
0.0114274
0.0113569
0.0112842
0.0112095
0.0111327
0.011054
0.0109733
0.0108908
0.0108065
0.0107204
0.0106327
0.0105433
0.0104523
0.0103598
0.0102658
0.0101704
0.0100736
0.00997547
0.00987608
0.00977547
0.0096737
0.0095708
0.00946683
0.00936184
0.00925587
0.00914896
0.00904117
0.00893254
0.0088231
0.0087129
0.00860199
0.00849039
0.00837816
0.00826532
0.00815192
0.00803798
0.00792355
0.00780866
0.00769333
0.0075776
0.0074615
0.00734506
0.00722831
0.00711127
0.00699396
0.00687642
0.00675866
0.00664071
0.0065226
0.00640433
0.00628593
0.00616742
0.00604881
0.00593013
0.00581139
0.0056926
0.00557377
0.00545493
0.00533608
0.00521724
0.00509841
0.0049796
0.00486083
0.0047421
0.00462343
0.00450481
0.00438625
0.00426777
0.00414936
0.00403103
0.00391279
0.00379463
0.00367656
0.00355859
0.00344071
0.00332293
0.00320524
0.00308765
0.00297016
0.00285277
0.00273547
0.00261827
0.00250116
0.00238414
0.00226722
0.00215038
0.00203362
0.00191695
0.00180036
0.00168384
0.00156739
0.001451
0.00133469
0.00121843
0.00110222
0.000986061
0.000869948
0.000753874
0.000637835
0.000521825
0.000405839
0.000289871
0.000173918
5.79716e-05
7.56074e-05
0.000226827
0.000378059
0.000529312
0.000680596
0.000831919
0.000983289
0.00113471
0.0012862
0.00143776
0.0015894
0.00174113
0.00189295
0.00204487
0.0021969
0.00234905
0.00250132
0.00265371
0.00280624
0.00295891
0.00311172
0.00326467
0.00341778
0.00357105
0.00372447
0.00387806
0.0040318
0.00418571
0.00433979
0.00449403
0.00464843
0.004803
0.00495772
0.00511261
0.00526765
0.00542284
0.00557817
0.00573364
0.00588924
0.00604496
0.0062008
0.00635674
0.00651278
0.00666889
0.00682507
0.0069813
0.00713757
0.00729385
0.00745014
0.0076064
0.00776263
0.00791879
0.00807487
0.00823083
0.00838666
0.00854232
0.00869778
0.00885302
0.009008
0.00916268
0.00931703
0.00947101
0.00962459
0.00977772
0.00993036
0.0100825
0.010234
0.0103849
0.0105351
0.0106846
0.0108333
0.0109812
0.0111282
0.0112743
0.0114193
0.0115633
0.0117062
0.0118478
0.0119883
0.0121274
0.0122651
0.0124013
0.0125361
0.0126693
0.0128008
0.0129305
0.0130585
0.0131846
0.0133087
0.0134308
0.0135508
0.0136686
0.0137842
0.0138975
0.0140083
0.0141167
0.0142226
0.0143258
0.0144263
0.0145241
0.014619
0.0147111
0.0148001
0.0148862
0.0149691
0.0150488
0.0151254
0.0151986
0.0152685
0.015335
0.0153981
0.0154576
0.0155136
0.0155661
0.0156148
0.0156599
0.0157014
0.015739
0.0157729
0.015803
0.0158293
0.0158517
0.0158703
0.015885
0.0158959
0.0159028
0.0159059
0.0159051
0.0159004
0.0158919
0.0158795
0.0158633
0.0158432
0.0158194
0.0157918
0.0157604
0.0157254
0.0156866
0.0156443
0.0155983
0.0155488
0.0154957
0.0154392
0.0153793
0.0153161
0.0152495
0.0151797
0.0151067
0.0150306
0.0149514
0.0148693
0.0147841
0.0146962
0.0146054
0.0145118
0.0144156
0.0143168
0.0142155
0.0141117
0.0140056
0.0138971
0.0137863
0.0136734
0.0135584
0.0134413
0.0133223
0.0132013
0.0130786
0.012954
0.0128278
0.0126999
0.0125705
0.0124395
0.0123072
0.0121734
0.0120383
0.011902
0.0117645
0.0116258
0.0114861
0.0113453
0.0112035
0.0110609
0.0109173
0.010773
0.0106278
0.010482
0.0103354
0.0101882
0.0100404
0.00989212
0.00974327
0.00959395
0.0094442
0.00929404
0.00914351
0.00899265
0.00884148
0.00869004
0.00853836
0.00838645
0.00823436
0.0080821
0.0079297
0.00777718
0.00762456
0.00747187
0.00731911
0.00716632
0.0070135
0.00686067
0.00670785
0.00655505
0.00640229
0.00624957
0.00609691
0.00594431
0.00579179
0.00563935
0.005487
0.00533476
0.00518261
0.00503058
0.00487866
0.00472685
0.00457517
0.00442361
0.00427217
0.00412086
0.00396967
0.00381861
0.00366768
0.00351687
0.00336618
0.00321562
0.00306517
0.00291484
0.00276463
0.00261452
0.00246452
0.00231462
0.00216481
0.0020151
0.00186547
0.00171592
0.00156645
0.00141705
0.00126772
0.00111844
0.000969208
0.000820023
0.000670876
0.00052176
0.000372669
0.000223594
7.45304e-05
9.24002e-05
0.000277206
0.000462028
0.000646876
0.000831761
0.00101669
0.00120168
0.00138674
0.00157188
0.0017571
0.00194242
0.00212785
0.0023134
0.00249906
0.00268487
0.00287081
0.0030569
0.00324315
0.00342957
0.00361615
0.00380291
0.00398985
0.00417697
0.00436429
0.0045518
0.00473951
0.00492742
0.00511553
0.00530385
0.00549236
0.00568108
0.00587
0.00605912
0.00624843
0.00643793
0.00662761
0.00681748
0.00700751
0.00719771
0.00738806
0.00757855
0.00776916
0.0079599
0.00815073
0.00834164
0.00853262
0.00872365
0.0089147
0.00910576
0.0092968
0.00948778
0.0096787
0.00986951
0.0100602
0.0102507
0.010441
0.0106311
0.0108209
0.0110104
0.0111995
0.0113882
0.0115765
0.0117643
0.0119515
0.0121382
0.0123242
0.0125095
0.012694
0.0128777
0.0130606
0.0132424
0.0134233
0.0136031
0.0137817
0.0139591
0.0141352
0.0143099
0.0144832
0.014655
0.0148251
0.0149936
0.0151603
0.0153251
0.015488
0.0156489
0.0158076
0.0159642
0.0161184
0.0162703
0.0164197
0.0165665
0.0167107
0.0168521
0.0169907
0.0171263
0.017259
0.0173885
0.0175148
0.0176378
0.0177574
0.0178736
0.0179862
0.0180952
0.0182005
0.018302
0.0183996
0.0184932
0.0185829
0.0186684
0.0187498
0.018827
0.0188999
0.0189684
0.0190326
0.0190923
0.0191475
0.0191982
0.0192442
0.0192857
0.0193225
0.0193547
0.0193822
0.0194049
0.0194229
0.0194362
0.0194447
0.0194484
0.0194475
0.0194417
0.0194313
0.0194161
0.0193962
0.0193717
0.0193425
0.0193087
0.0192703
0.0192274
0.01918
0.0191281
0.0190718
0.0190112
0.0189463
0.0188771
0.0188038
0.0187264
0.0186449
0.0185595
0.0184702
0.018377
0.0182801
0.0181795
0.0180754
0.0179677
0.0178566
0.0177421
0.0176244
0.0175035
0.0173795
0.0172525
0.0171226
0.0169899
0.0168544
0.0167162
0.0165755
0.0164323
0.0162867
0.0161387
0.0159885
0.0158362
0.0156817
0.0155253
0.015367
0.0152068
0.0150449
0.0148813
0.0147161
0.0145493
0.0143811
0.0142115
0.0140406
0.0138685
0.0136951
0.0135206
0.0133451
0.0131685
0.012991
0.0128127
0.0126335
0.0124535
0.0122728
0.0120914
0.0119094
0.0117268
0.0115437
0.0113601
0.0111761
0.0109916
0.0108068
0.0106217
0.0104362
0.0102505
0.0100646
0.00987842
0.0096921
0.00950565
0.00931907
0.00913241
0.00894567
0.00875888
0.00857207
0.00838526
0.00819845
0.00801167
0.00782493
0.00763825
0.00745164
0.00726512
0.00707868
0.00689236
0.00670614
0.00652005
0.00633408
0.00614825
0.00596257
0.00577702
0.00559162
0.00540638
0.00522129
0.00503635
0.00485157
0.00466694
0.00448247
0.00429815
0.00411398
0.00392996
0.00374609
0.00356236
0.00337877
0.00319531
0.00301198
0.00282878
0.00264569
0.00246272
0.00227986
0.00209709
0.00191441
0.00173183
0.00154932
0.00136688
0.0011845
0.00100217
0.000819897
0.000637658
0.000455449
0.000273261
9.10856e-05
0.000109188
0.000327569
0.00054597
0.000764402
0.000982878
0.00120141
0.00142001
0.00163869
0.00185747
0.00207634
0.00229534
0.00251446
0.00273372
0.00295312
0.00317269
0.00339242
0.00361233
0.00383243
0.00405272
0.00427321
0.00449392
0.00471483
0.00493597
0.00515734
0.00537894
0.00560077
0.00582284
0.00604515
0.0062677
0.0064905
0.00671353
0.00693681
0.00716032
0.00738406
0.00760802
0.00783221
0.00805662
0.00828122
0.00850602
0.00873101
0.00895616
0.00918147
0.00940691
0.00963248
0.00985815
0.0100839
0.0103097
0.0105356
0.0107614
0.0109872
0.011213
0.0114387
0.0116643
0.0118897
0.0121149
0.0123399
0.0125647
0.0127891
0.0130131
0.0132367
0.0134599
0.0136825
0.0139046
0.014126
0.0143467
0.0145666
0.0147857
0.015004
0.0152212
0.0154374
0.0156525
0.0158665
0.0160791
0.0162904
0.0165002
0.0167085
0.0169152
0.0171202
0.0173233
0.0175246
0.0177239
0.0179211
0.0181161
0.0183088
0.0184991
0.018687
0.0188722
0.0190547
0.0192344
0.0194112
0.0195849
0.0197555
0.0199228
0.0200868
0.0202474
0.0204043
0.0205576
0.0207071
0.0208526
0.0209942
0.0211317
0.021265
0.021394
0.0215186
0.0216388
0.0217543
0.0218652
0.0219713
0.0220725
0.0221689
0.0222602
0.0223465
0.0224276
0.0225035
0.0225742
0.0226396
0.0226995
0.0227541
0.0228032
0.0228468
0.0228848
0.0229173
0.0229442
0.0229655
0.0229812
0.0229913
0.0229957
0.0229946
0.0229878
0.0229754
0.0229574
0.0229339
0.0229048
0.0228702
0.0228302
0.0227847
0.0227339
0.0226777
0.0226163
0.0225497
0.0224779
0.0224011
0.0223192
0.0222324
0.0221407
0.0220443
0.0219431
0.0218374
0.0217271
0.0216124
0.0214934
0.0213701
0.0212426
0.0211111
0.0209757
0.0208364
0.0206933
0.0205466
0.0203963
0.0202426
0.0200855
0.0199251
0.0197617
0.0195951
0.0194257
0.0192534
0.0190783
0.0189006
0.0187204
0.0185377
0.0183526
0.0181653
0.0179759
0.0177843
0.0175908
0.0173954
0.0171981
0.0169992
0.0167986
0.0165964
0.0163928
0.0161878
0.0159814
0.0157738
0.015565
0.0153551
0.0151442
0.0149323
0.0147195
0.0145058
0.0142913
0.0140761
0.0138603
0.0136438
0.0134267
0.0132091
0.012991
0.0127725
0.0125536
0.0123343
0.0121148
0.011895
0.0116749
0.0114547
0.0112342
0.0110137
0.010793
0.0105723
0.0103515
0.0101307
0.00990983
0.00968902
0.00946824
0.00924752
0.00902686
0.0088063
0.00858583
0.00836548
0.00814525
0.00792516
0.00770521
0.00748542
0.00726579
0.00704633
0.00682704
0.00660793
0.006389
0.00617025
0.00595168
0.00573331
0.00551511
0.0052971
0.00507927
0.00486163
0.00464416
0.00442686
0.00420973
0.00399277
0.00377597
0.00355932
0.00334282
0.00312647
0.00291024
0.00269414
0.00247816
0.00226229
0.00204652
0.00183084
0.00161525
0.00139973
0.00118428
0.00096888
0.000753526
0.000538208
0.000322915
0.000107637
0.000125969
0.000377914
0.00062988
0.000881884
0.00113394
0.00138606
0.00163826
0.00189055
0.00214295
0.00239547
0.00264813
0.00290093
0.00315389
0.00340703
0.00366034
0.00391386
0.00416758
0.00442151
0.00467567
0.00493007
0.00518471
0.0054396
0.00569474
0.00595015
0.00620583
0.00646179
0.00671802
0.00697453
0.00723132
0.00748839
0.00774574
0.00800337
0.00826128
0.00851946
0.0087779
0.0090366
0.00929555
0.00955474
0.00981415
0.0100738
0.0103336
0.0105936
0.0108538
0.0111141
0.0113746
0.0116351
0.0118957
0.0121564
0.0124171
0.0126777
0.0129383
0.0131988
0.0134592
0.0137194
0.0139794
0.0142391
0.0144986
0.0147576
0.0150162
0.0152744
0.015532
0.0157891
0.0160454
0.0163011
0.0165559
0.0168099
0.0170629
0.0173149
0.0175658
0.0178155
0.0180639
0.0183109
0.0185564
0.0188005
0.0190428
0.0192834
0.0195221
0.0197589
0.0199936
0.0202261
0.0204563
0.0206841
0.0209094
0.021132
0.0213519
0.0215689
0.0217829
0.0219938
0.0222014
0.0224057
0.0226064
0.0228035
0.0229969
0.0231864
0.0233719
0.0235533
0.0237305
0.0239032
0.0240715
0.0242351
0.0243941
0.0245481
0.0246972
0.0248413
0.0249801
0.0251137
0.0252418
0.0253645
0.0254815
0.0255929
0.0256985
0.0257982
0.025892
0.0259798
0.0260615
0.026137
0.0262063
0.0262694
0.0263261
0.0263765
0.0264205
0.0264581
0.0264892
0.0265138
0.0265319
0.0265435
0.0265487
0.0265473
0.0265394
0.0265251
0.0265042
0.026477
0.0264434
0.0264034
0.0263571
0.0263045
0.0262457
0.0261808
0.0261098
0.0260327
0.0259497
0.0258608
0.0257662
0.0256658
0.0255598
0.0254483
0.0253314
0.0252092
0.0250817
0.0249491
0.0248115
0.024669
0.0245216
0.0243696
0.0242131
0.0240521
0.0238867
0.0237171
0.0235435
0.0233658
0.0231843
0.022999
0.0228101
0.0226177
0.0224219
0.0222228
0.0220206
0.0218153
0.021607
0.021396
0.0211822
0.0209658
0.020747
0.0205257
0.0203022
0.0200765
0.0198487
0.0196189
0.0193872
0.0191537
0.0189186
0.0186818
0.0184435
0.0182038
0.0179627
0.0177203
0.0174767
0.0172321
0.0169863
0.0167396
0.016492
0.0162435
0.0159943
0.0157444
0.0154938
0.0152425
0.0149908
0.0147385
0.0144859
0.0142328
0.0139793
0.0137256
0.0134716
0.0132174
0.012963
0.0127084
0.0124537
0.0121989
0.0119441
0.0116892
0.0114344
0.0111796
0.0109248
0.01067
0.0104154
0.0101609
0.00990643
0.00965215
0.00939801
0.00914403
0.00889023
0.0086366
0.00838317
0.00812993
0.00787689
0.00762406
0.00737144
0.00711903
0.00686684
0.00661486
0.0063631
0.00611155
0.00586022
0.0056091
0.00535818
0.00510746
0.00485695
0.00460662
0.00435648
0.00410652
0.00385673
0.0036071
0.00335763
0.00310831
0.00285912
0.00261006
0.00236112
0.00211229
0.00186355
0.0016149
0.00136633
0.00111782
0.000869359
0.000620942
0.000372553
0.000124183
0.000142742
0.000428236
0.000713754
0.000999314
0.00128493
0.00157063
0.00185641
0.0021423
0.00242831
0.00271446
0.00300077
0.00328724
0.00357389
0.00386074
0.0041478
0.00443508
0.0047226
0.00501037
0.00529839
0.00558668
0.00587525
0.0061641
0.00645325
0.0067427
0.00703246
0.00732253
0.00761291
0.00790362
0.00819465
0.008486
0.00877767
0.00906966
0.00936197
0.00965459
0.00994751
0.0102407
0.0105342
0.010828
0.0111221
0.0114164
0.0117109
0.0120056
0.0123006
0.0125957
0.0128909
0.0131863
0.0134817
0.0137772
0.0140727
0.0143683
0.0146637
0.0149591
0.0152543
0.0155493
0.0158441
0.0161386
0.0164328
0.0167266
0.0170199
0.0173126
0.0176048
0.0178963
0.0181871
0.018477
0.018766
0.0190541
0.0193411
0.0196269
0.0199115
0.0201947
0.0204765
0.0207568
0.0210354
0.0213122
0.0215872
0.0218601
0.022131
0.0223997
0.022666
0.0229298
0.0231911
0.0234496
0.0237053
0.023958
0.0242075
0.0244538
0.0246967
0.0249361
0.0251718
0.0254036
0.0256315
0.0258553
0.0260749
0.02629
0.0265007
0.0267066
0.0269077
0.0271039
0.027295
0.0274808
0.0276612
0.0278362
0.0280055
0.0281691
0.0283268
0.0284784
0.028624
0.0287633
0.0288962
0.0290227
0.0291426
0.0292559
0.0293624
0.0294621
0.0295549
0.0296407
0.0297194
0.029791
0.0298555
0.0299127
0.0299626
0.0300053
0.0300406
0.0300685
0.0300891
0.0301023
0.0301081
0.0301065
0.0300975
0.0300812
0.0300575
0.0300266
0.0299883
0.0299429
0.0298903
0.0298305
0.0297637
0.0296899
0.0296092
0.0295217
0.0294274
0.0293264
0.0292189
0.0291049
0.0289845
0.0288578
0.028725
0.0285862
0.0284414
0.0282908
0.0281345
0.0279726
0.0278053
0.0276327
0.0274549
0.0272721
0.0270844
0.0268918
0.0266946
0.0264929
0.0262869
0.0260765
0.0258621
0.0256437
0.0254214
0.0251954
0.0249659
0.0247328
0.0244965
0.024257
0.0240144
0.0237688
0.0235205
0.0232694
0.0230157
0.0227596
0.0225012
0.0222404
0.0219776
0.0217127
0.0214459
0.0211773
0.020907
0.0206351
0.0203616
0.0200867
0.0198104
0.0195329
0.0192541
0.0189743
0.0186935
0.0184117
0.0181291
0.0178456
0.0175614
0.0172766
0.0169911
0.016705
0.0164185
0.0161316
0.0158442
0.0155565
0.0152685
0.0149803
0.0146918
0.0144032
0.0141145
0.0138257
0.0135368
0.0132478
0.0129589
0.01267
0.0123812
0.0120925
0.0118038
0.0115153
0.0112269
0.0109387
0.0106506
0.0103627
0.0100751
0.00978759
0.00950034
0.00921332
0.00892653
0.00863998
0.00835366
0.0080676
0.00778178
0.0074962
0.00721088
0.0069258
0.00664096
0.00635636
0.006072
0.00578787
0.00550397
0.00522028
0.00493681
0.00465354
0.00437047
0.00408759
0.00380488
0.00352234
0.00323996
0.00295772
0.00267562
0.00239364
0.00211177
0.00183
0.00154831
0.0012667
0.000985151
0.000703646
0.000422174
0.000140723
0.000159508
0.000478533
0.000797586
0.00111669
0.00143585
0.0017551
0.00207445
0.00239393
0.00271353
0.0030333
0.00335324
0.00367336
0.00399369
0.00431425
0.00463504
0.00495608
0.00527738
0.00559896
0.00592083
0.00624301
0.0065655
0.00688831
0.00721145
0.00753493
0.00785876
0.00818295
0.00850749
0.00883239
0.00915766
0.00948329
0.00980928
0.0101356
0.0104623
0.0107894
0.0111168
0.0114446
0.0117727
0.012101
0.0124297
0.0127587
0.0130879
0.0134174
0.0137471
0.014077
0.0144071
0.0147373
0.0150676
0.015398
0.0157284
0.0160588
0.0163892
0.0167195
0.0170496
0.0173795
0.0177092
0.0180385
0.0183675
0.018696
0.019024
0.0193514
0.0196782
0.0200043
0.0203295
0.0206538
0.0209771
0.0212994
0.0216204
0.0219402
0.0222586
0.0225755
0.0228907
0.0232043
0.023516
0.0238258
0.0241335
0.024439
0.0247421
0.0250428
0.0253409
0.0256362
0.0259286
0.026218
0.0265042
0.026787
0.0270664
0.0273422
0.0276141
0.0278821
0.028146
0.0284056
0.0286608
0.0289114
0.0291572
0.0293982
0.029634
0.0298647
0.0300899
0.0303096
0.0305236
0.0307318
0.0309339
0.0311299
0.0313196
0.0315028
0.0316794
0.0318493
0.0320124
0.0321684
0.0323173
0.032459
0.0325934
0.0327203
0.0328396
0.0329513
0.0330553
0.0331514
0.0332396
0.0333198
0.033392
0.0334561
0.033512
0.0335598
0.0335993
0.0336306
0.0336537
0.0336684
0.0336749
0.0336731
0.033663
0.0336447
0.0336181
0.0335834
0.0335405
0.0334896
0.0334306
0.0333636
0.0332887
0.033206
0.0331155
0.0330174
0.0329117
0.0327986
0.0326781
0.0325503
0.0324154
0.0322735
0.0321247
0.0319691
0.0318069
0.0316381
0.0314631
0.0312817
0.0310943
0.030901
0.0307019
0.0304971
0.0302868
0.0300712
0.0298503
0.0296245
0.0293937
0.0291582
0.028918
0.0286735
0.0284246
0.0281716
0.0279146
0.0276538
0.0273892
0.0271211
0.0268495
0.0265747
0.0262967
0.0260157
0.0257318
0.0254452
0.0251559
0.0248642
0.02457
0.0242736
0.0239751
0.0236746
0.0233721
0.0230679
0.0227619
0.0224544
0.0221453
0.0218348
0.0215231
0.0212101
0.020896
0.0205808
0.0202646
0.0199476
0.0196298
0.0193112
0.0189919
0.018672
0.0183516
0.0180307
0.0177094
0.0173877
0.0170657
0.0167434
0.0164209
0.0160982
0.0157754
0.0154524
0.0151294
0.0148064
0.0144834
0.0141605
0.0138376
0.0135148
0.0131921
0.0128696
0.0125472
0.012225
0.011903
0.0115812
0.0112597
0.0109384
0.0106173
0.0102965
0.00997593
0.00965565
0.00933565
0.00901592
0.00869647
0.0083773
0.00805841
0.0077398
0.00742146
0.00710339
0.00678559
0.00646805
0.00615077
0.00583374
0.00551694
0.00520037
0.00488403
0.00456789
0.00425196
0.00393621
0.00362065
0.00330524
0.00298999
0.00267488
0.00235989
0.00204501
0.00173023
0.00141553
0.0011009
0.000786317
0.000471775
0.000157256
0.000176264
0.000528802
0.000881372
0.00123399
0.00158669
0.00193948
0.00229238
0.00264541
0.0029986
0.00335196
0.00370552
0.00405928
0.00441328
0.00476752
0.00512202
0.0054768
0.00583188
0.00618727
0.00654298
0.00689903
0.00725542
0.00761218
0.00796931
0.00832682
0.00868472
0.00904301
0.0094017
0.00976079
0.0101203
0.0104802
0.0108405
0.0112012
0.0115624
0.0119239
0.0122858
0.0126481
0.0130107
0.0133738
0.0137371
0.0141008
0.0144648
0.014829
0.0151935
0.0155582
0.0159232
0.0162883
0.0166535
0.0170188
0.0173841
0.0177495
0.0181148
0.01848
0.0188451
0.0192099
0.0195745
0.0199387
0.0203026
0.0206659
0.0210287
0.0213909
0.0217524
0.022113
0.0224728
0.0228316
0.0231893
0.0235458
0.023901
0.0242548
0.0246071
0.0249578
0.0253067
0.0256537
0.0259987
0.0263415
0.0266821
0.0270202
0.0273557
0.0276886
0.0280185
0.0283454
0.0286691
0.0289895
0.0293064
0.0296196
0.0299289
0.0302343
0.0305354
0.0308322
0.0311244
0.031412
0.0316946
0.0319722
0.0322445
0.0325114
0.0327727
0.0330282
0.0332777
0.0335211
0.0337582
0.0339888
0.0342128
0.0344299
0.0346401
0.0348431
0.0350388
0.0352271
0.0354077
0.0355807
0.0357457
0.0359027
0.0360516
0.0361923
0.0363245
0.0364483
0.0365635
0.03667
0.0367677
0.0368567
0.0369366
0.0370077
0.0370697
0.0371226
0.0371664
0.037201
0.0372265
0.0372428
0.0372499
0.0372479
0.0372367
0.0372163
0.0371869
0.0371484
0.0371008
0.0370443
0.0369788
0.0369045
0.0368215
0.0367298
0.0366295
0.0365207
0.0364035
0.0362781
0.0361445
0.0360029
0.0358533
0.035696
0.0355311
0.0353587
0.0351789
0.0349919
0.0347979
0.0345969
0.0343893
0.0341751
0.0339544
0.0337275
0.0334946
0.0332557
0.0330111
0.0327609
0.0325052
0.0322444
0.0319784
0.0317076
0.031432
0.0311518
0.0308672
0.0305784
0.0302854
0.0299886
0.0296879
0.0293836
0.0290759
0.0287648
0.0284506
0.0281333
0.0278132
0.0274902
0.0271647
0.0268367
0.0265063
0.0261738
0.0258391
0.0255024
0.0251639
0.0248236
0.0244816
0.0241381
0.0237932
0.023447
0.0230995
0.0227508
0.0224011
0.0220504
0.0216989
0.0213465
0.0209934
0.0206396
0.0202852
0.0199303
0.019575
0.0192192
0.0188631
0.0185067
0.0181501