/*--------------------------------*- C++ -*----------------------------------*\
| =========                 |                                                 |
| \\      /  F ield         | OpenFOAM: The Open Source CFD Toolbox           |
|  \\    /   O peration     | Version:  v2012                                 |
|   \\  /    A nd           | Website:  www.openfoam.com                      |
|    \\/     M anipulation  |                                                 |
\*---------------------------------------------------------------------------*/
FoamFile
{
    version     2.0;
    format      ascii;
    class       volVectorField;
    location    "15.8";
    object      U;
}
// * * * * * * * * * * * * * * * * * * * * * * * * * * * * * * * * * * * * * //

dimensions      [0 1 -1 0 0 0 0];


internalField   nonuniform List<vector> 
65536
(
(0.000685809 -0.000685826 0)
(0.00205747 -0.000685868 0)
(0.00342925 -0.000685947 0)
(0.00480122 -0.000686063 0)
(0.00617347 -0.000686218 0)
(0.00754606 -0.000686412 0)
(0.00891908 -0.000686643 0)
(0.0102926 -0.000686911 0)
(0.0116667 -0.000687215 0)
(0.0130414 -0.000687555 0)
(0.0144169 -0.00068793 0)
(0.0157931 -0.000688339 0)
(0.0171702 -0.000688781 0)
(0.0185482 -0.000689254 0)
(0.0199272 -0.000689758 0)
(0.0213072 -0.000690291 0)
(0.0226883 -0.000690852 0)
(0.0240706 -0.000691438 0)
(0.0254541 -0.000692049 0)
(0.0268388 -0.000692683 0)
(0.0282248 -0.000693337 0)
(0.0296121 -0.000694009 0)
(0.0310008 -0.000694699 0)
(0.0323909 -0.000695402 0)
(0.0337824 -0.000696117 0)
(0.0351754 -0.000696842 0)
(0.0365698 -0.000697573 0)
(0.0379657 -0.000698308 0)
(0.039363 -0.000699044 0)
(0.0407619 -0.000699777 0)
(0.0421621 -0.000700506 0)
(0.0435639 -0.000701226 0)
(0.0449671 -0.000701934 0)
(0.0463716 -0.000702627 0)
(0.0477776 -0.0007033 0)
(0.0491849 -0.00070395 0)
(0.0505934 -0.000704572 0)
(0.0520032 -0.000705163 0)
(0.0534141 -0.000705718 0)
(0.0548261 -0.000706233 0)
(0.0562391 -0.000706703 0)
(0.057653 -0.000707123 0)
(0.0590676 -0.000707489 0)
(0.060483 -0.000707794 0)
(0.0618989 -0.000708035 0)
(0.0633152 -0.000708205 0)
(0.0647318 -0.000708299 0)
(0.0661485 -0.000708311 0)
(0.0675651 -0.000708235 0)
(0.0689815 -0.000708066 0)
(0.0703975 -0.000707797 0)
(0.0718128 -0.000707421 0)
(0.0732273 -0.000706934 0)
(0.0746407 -0.000706327 0)
(0.0760527 -0.000705594 0)
(0.0774632 -0.000704729 0)
(0.0788718 -0.000703725 0)
(0.0802782 -0.000702574 0)
(0.0816822 -0.000701269 0)
(0.0830835 -0.000699804 0)
(0.0844816 -0.000698171 0)
(0.0858763 -0.000696363 0)
(0.0872673 -0.000694372 0)
(0.088654 -0.000692191 0)
(0.0900362 -0.000689813 0)
(0.0914135 -0.000687231 0)
(0.0927854 -0.000684436 0)
(0.0941514 -0.000681421 0)
(0.0955113 -0.00067818 0)
(0.0968644 -0.000674705 0)
(0.0982103 -0.000670988 0)
(0.0995486 -0.000667022 0)
(0.100879 -0.000662802 0)
(0.1022 -0.000658319 0)
(0.103512 -0.000653567 0)
(0.104815 -0.000648539 0)
(0.106107 -0.00064323 0)
(0.107388 -0.000637632 0)
(0.108657 -0.000631741 0)
(0.109915 -0.000625551 0)
(0.11116 -0.000619056 0)
(0.112392 -0.000612252 0)
(0.113609 -0.000605134 0)
(0.114812 -0.000597697 0)
(0.116 -0.000589938 0)
(0.117173 -0.000581854 0)
(0.118328 -0.000573441 0)
(0.119467 -0.000564697 0)
(0.120587 -0.000555621 0)
(0.121689 -0.000546209 0)
(0.122772 -0.000536462 0)
(0.123836 -0.000526379 0)
(0.124878 -0.00051596 0)
(0.1259 -0.000505206 0)
(0.126899 -0.000494118 0)
(0.127877 -0.000482698 0)
(0.128831 -0.000470948 0)
(0.129761 -0.000458872 0)
(0.130666 -0.000446473 0)
(0.131547 -0.000433757 0)
(0.132402 -0.000420727 0)
(0.13323 -0.000407389 0)
(0.134032 -0.000393751 0)
(0.134805 -0.000379819 0)
(0.135551 -0.0003656 0)
(0.136268 -0.000351103 0)
(0.136956 -0.000336337 0)
(0.137614 -0.000321311 0)
(0.138241 -0.000306036 0)
(0.138838 -0.000290522 0)
(0.139404 -0.00027478 0)
(0.139937 -0.000258823 0)
(0.140439 -0.000242662 0)
(0.140908 -0.00022631 0)
(0.141344 -0.000209781 0)
(0.141747 -0.000193087 0)
(0.142117 -0.000176244 0)
(0.142453 -0.000159266 0)
(0.142754 -0.000142166 0)
(0.143021 -0.000124961 0)
(0.143254 -0.000107665 0)
(0.143452 -9.02944e-05 0)
(0.143615 -7.28639e-05 0)
(0.143744 -5.53895e-05 0)
(0.143837 -3.7887e-05 0)
(0.143895 -2.03722e-05 0)
(0.143918 -2.86094e-06 0)
(0.143907 1.46311e-05 0)
(0.14386 3.20882e-05 0)
(0.143778 4.94948e-05 0)
(0.143662 6.68357e-05 0)
(0.143511 8.40956e-05 0)
(0.143325 0.00010126 0)
(0.143106 0.000118313 0)
(0.142852 0.000135242 0)
(0.142564 0.000152033 0)
(0.142244 0.000168671 0)
(0.14189 0.000185144 0)
(0.141503 0.000201439 0)
(0.141084 0.000217544 0)
(0.140632 0.000233447 0)
(0.14015 0.000249137 0)
(0.139636 0.000264604 0)
(0.139091 0.000279837 0)
(0.138516 0.000294826 0)
(0.137911 0.000309563 0)
(0.137278 0.00032404 0)
(0.136615 0.000338248 0)
(0.135924 0.00035218 0)
(0.135206 0.000365831 0)
(0.134461 0.000379193 0)
(0.133689 0.000392261 0)
(0.132891 0.000405032 0)
(0.132068 0.0004175 0)
(0.131221 0.000429661 0)
(0.13035 0.000441514 0)
(0.129455 0.000453055 0)
(0.128537 0.000464283 0)
(0.127597 0.000475196 0)
(0.126636 0.000485793 0)
(0.125654 0.000496074 0)
(0.124651 0.000506039 0)
(0.123629 0.000515689 0)
(0.122588 0.000525024 0)
(0.121529 0.000534048 0)
(0.120452 0.00054276 0)
(0.119357 0.000551164 0)
(0.118247 0.000559263 0)
(0.11712 0.000567059 0)
(0.115978 0.000574556 0)
(0.114822 0.000581758 0)
(0.113651 0.000588669 0)
(0.112467 0.000595293 0)
(0.111269 0.000601634 0)
(0.11006 0.000607698 0)
(0.108838 0.00061349 0)
(0.107606 0.000619014 0)
(0.106362 0.000624277 0)
(0.105108 0.000629284 0)
(0.103845 0.00063404 0)
(0.102572 0.000638552 0)
(0.10129 0.000642825 0)
(0.1 0.000646865 0)
(0.0987025 0.00065068 0)
(0.0973973 0.000654274 0)
(0.0960852 0.000657654 0)
(0.0947665 0.000660827 0)
(0.0934417 0.000663799 0)
(0.0921111 0.000666575 0)
(0.0907752 0.000669164 0)
(0.0894343 0.00067157 0)
(0.0880887 0.0006738 0)
(0.0867389 0.000675861 0)
(0.0853851 0.000677758 0)
(0.0840277 0.000679499 0)
(0.082667 0.000681088 0)
(0.0813032 0.000682533 0)
(0.0799367 0.000683838 0)
(0.0785677 0.000685011 0)
(0.0771966 0.000686057 0)
(0.0758234 0.000686981 0)
(0.0744485 0.00068779 0)
(0.0730721 0.000688489 0)
(0.0716945 0.000689083 0)
(0.0703157 0.000689578 0)
(0.0689361 0.000689979 0)
(0.0675557 0.000690292 0)
(0.0661748 0.000690521 0)
(0.0647935 0.000690671 0)
(0.063412 0.000690747 0)
(0.0620305 0.000690754 0)
(0.060649 0.000690697 0)
(0.0592676 0.00069058 0)
(0.0578866 0.000690407 0)
(0.056506 0.000690182 0)
(0.0551258 0.00068991 0)
(0.0537463 0.000689595 0)
(0.0523674 0.000689241 0)
(0.0509893 0.000688851 0)
(0.049612 0.000688429 0)
(0.0482355 0.000687979 0)
(0.04686 0.000687504 0)
(0.0454855 0.000687007 0)
(0.044112 0.000686492 0)
(0.0427395 0.000685961 0)
(0.0413681 0.000685418 0)
(0.0399979 0.000684865 0)
(0.0386287 0.000684306 0)
(0.0372606 0.000683743 0)
(0.0358937 0.000683178 0)
(0.0345279 0.000682614 0)
(0.0331633 0.000682054 0)
(0.0317997 0.000681498 0)
(0.0304373 0.000680951 0)
(0.0290759 0.000680413 0)
(0.0277156 0.000679887 0)
(0.0263564 0.000679374 0)
(0.0249982 0.000678876 0)
(0.0236409 0.000678395 0)
(0.0222846 0.000677932 0)
(0.0209292 0.000677489 0)
(0.0195747 0.000677068 0)
(0.018221 0.000676669 0)
(0.016868 0.000676293 0)
(0.0155158 0.000675942 0)
(0.0141643 0.000675617 0)
(0.0128134 0.000675319 0)
(0.011463 0.000675048 0)
(0.0101132 0.000674805 0)
(0.00876386 0.000674591 0)
(0.00741489 0.000674407 0)
(0.00606627 0.000674252 0)
(0.00471792 0.000674128 0)
(0.00336979 0.000674036 0)
(0.00202181 0.000673974 0)
(0.000673927 0.000673942 0)
(0.000685774 -0.00205745 0)
(0.00205736 -0.00205757 0)
(0.00342906 -0.00205781 0)
(0.00480096 -0.00205816 0)
(0.00617313 -0.00205862 0)
(0.00754565 -0.0020592 0)
(0.0089186 -0.0020599 0)
(0.010292 -0.0020607 0)
(0.0116661 -0.00206161 0)
(0.0130407 -0.00206264 0)
(0.0144161 -0.00206376 0)
(0.0157923 -0.00206499 0)
(0.0171693 -0.00206632 0)
(0.0185473 -0.00206774 0)
(0.0199262 -0.00206925 0)
(0.0213062 -0.00207085 0)
(0.0226872 -0.00207253 0)
(0.0240695 -0.0020743 0)
(0.0254529 -0.00207613 0)
(0.0268376 -0.00207803 0)
(0.0282235 -0.00208 0)
(0.0296108 -0.00208202 0)
(0.0309995 -0.00208409 0)
(0.0323896 -0.0020862 0)
(0.033781 -0.00208835 0)
(0.035174 -0.00209052 0)
(0.0365684 -0.00209272 0)
(0.0379643 -0.00209493 0)
(0.0393616 -0.00209714 0)
(0.0407605 -0.00209934 0)
(0.0421608 -0.00210153 0)
(0.0435625 -0.00210369 0)
(0.0449657 -0.00210582 0)
(0.0463704 -0.0021079 0)
(0.0477763 -0.00210993 0)
(0.0491837 -0.00211188 0)
(0.0505923 -0.00211375 0)
(0.0520021 -0.00211553 0)
(0.0534131 -0.0021172 0)
(0.0548252 -0.00211875 0)
(0.0562383 -0.00212016 0)
(0.0576523 -0.00212143 0)
(0.0590671 -0.00212253 0)
(0.0604825 -0.00212345 0)
(0.0618986 -0.00212418 0)
(0.063315 -0.00212469 0)
(0.0647318 -0.00212498 0)
(0.0661486 -0.00212502 0)
(0.0675655 -0.0021248 0)
(0.0689821 -0.0021243 0)
(0.0703982 -0.0021235 0)
(0.0718138 -0.00212238 0)
(0.0732285 -0.00212092 0)
(0.0746421 -0.00211911 0)
(0.0760544 -0.00211692 0)
(0.0774652 -0.00211433 0)
(0.078874 -0.00211132 0)
(0.0802808 -0.00210788 0)
(0.0816851 -0.00210397 0)
(0.0830867 -0.00209958 0)
(0.0844852 -0.00209469 0)
(0.0858802 -0.00208927 0)
(0.0872715 -0.00208331 0)
(0.0886587 -0.00207677 0)
(0.0900413 -0.00206965 0)
(0.0914189 -0.0020619 0)
(0.0927913 -0.00205353 0)
(0.0941578 -0.00204449 0)
(0.0955181 -0.00203477 0)
(0.0968717 -0.00202435 0)
(0.0982181 -0.00201321 0)
(0.0995569 -0.00200132 0)
(0.100887 -0.00198867 0)
(0.102209 -0.00197522 0)
(0.103522 -0.00196097 0)
(0.104825 -0.0019459 0)
(0.106118 -0.00192998 0)
(0.107399 -0.00191319 0)
(0.10867 -0.00189552 0)
(0.109928 -0.00187696 0)
(0.111173 -0.00185748 0)
(0.112406 -0.00183707 0)
(0.113624 -0.00181572 0)
(0.114828 -0.00179341 0)
(0.116016 -0.00177014 0)
(0.117189 -0.00174589 0)
(0.118345 -0.00172065 0)
(0.119485 -0.00169442 0)
(0.120606 -0.00166719 0)
(0.121709 -0.00163896 0)
(0.122792 -0.00160972 0)
(0.123856 -0.00157947 0)
(0.1249 -0.00154821 0)
(0.125922 -0.00151595 0)
(0.126922 -0.00148268 0)
(0.1279 -0.00144842 0)
(0.128854 -0.00141317 0)
(0.129785 -0.00137693 0)
(0.130692 -0.00133973 0)
(0.131573 -0.00130158 0)
(0.132428 -0.00126248 0)
(0.133257 -0.00122246 0)
(0.134059 -0.00118154 0)
(0.134834 -0.00113974 0)
(0.13558 -0.00109707 0)
(0.136297 -0.00105357 0)
(0.136986 -0.00100927 0)
(0.137644 -0.000964178 0)
(0.138272 -0.000918342 0)
(0.138869 -0.000871788 0)
(0.139435 -0.000824551 0)
(0.13997 -0.000776667 0)
(0.140472 -0.000728171 0)
(0.140941 -0.000679102 0)
(0.141378 -0.0006295 0)
(0.141781 -0.000579407 0)
(0.142151 -0.000528863 0)
(0.142487 -0.000477912 0)
(0.142788 -0.000426599 0)
(0.143056 -0.000374968 0)
(0.143289 -0.000323065 0)
(0.143487 -0.000270937 0)
(0.14365 -0.00021863 0)
(0.143779 -0.000166191 0)
(0.143872 -0.000113667 0)
(0.14393 -6.11073e-05 0)
(0.143953 -8.55779e-06 0)
(0.143942 4.39339e-05 0)
(0.143895 9.63207e-05 0)
(0.143813 0.000148556 0)
(0.143696 0.000200594 0)
(0.143545 0.000252388 0)
(0.143359 0.000303895 0)
(0.14314 0.000355071 0)
(0.142886 0.000405871 0)
(0.142598 0.000456256 0)
(0.142277 0.000506184 0)
(0.141922 0.000555616 0)
(0.141535 0.000604513 0)
(0.141116 0.00065284 0)
(0.140664 0.00070056 0)
(0.140181 0.000747641 0)
(0.139666 0.00079405 0)
(0.139121 0.000839758 0)
(0.138546 0.000884735 0)
(0.137941 0.000928955 0)
(0.137306 0.000972392 0)
(0.136643 0.00101502 0)
(0.135952 0.00105683 0)
(0.135233 0.00109778 0)
(0.134487 0.00113788 0)
(0.133715 0.00117709 0)
(0.132917 0.0012154 0)
(0.132093 0.00125281 0)
(0.131245 0.0012893 0)
(0.130373 0.00132486 0)
(0.129477 0.00135948 0)
(0.128559 0.00139317 0)
(0.127619 0.00142591 0)
(0.126657 0.0014577 0)
(0.125674 0.00148854 0)
(0.124671 0.00151843 0)
(0.123648 0.00154738 0)
(0.122606 0.00157539 0)
(0.121546 0.00160246 0)
(0.120469 0.00162859 0)
(0.119374 0.0016538 0)
(0.118263 0.00167809 0)
(0.117135 0.00170148 0)
(0.115993 0.00172397 0)
(0.114836 0.00174557 0)
(0.113664 0.0017663 0)
(0.112479 0.00178616 0)
(0.111282 0.00180518 0)
(0.110072 0.00182337 0)
(0.10885 0.00184074 0)
(0.107616 0.00185731 0)
(0.106372 0.00187309 0)
(0.105118 0.0018881 0)
(0.103854 0.00190237 0)
(0.10258 0.00191589 0)
(0.101298 0.00192871 0)
(0.100008 0.00194082 0)
(0.0987098 0.00195226 0)
(0.0974042 0.00196304 0)
(0.0960917 0.00197317 0)
(0.0947726 0.00198268 0)
(0.0934473 0.00199159 0)
(0.0921164 0.00199991 0)
(0.0907801 0.00200767 0)
(0.0894388 0.00201489 0)
(0.0880929 0.00202157 0)
(0.0867428 0.00202775 0)
(0.0853887 0.00203343 0)
(0.084031 0.00203865 0)
(0.0826699 0.00204341 0)
(0.0813059 0.00204774 0)
(0.0799391 0.00205165 0)
(0.0785699 0.00205516 0)
(0.0771984 0.00205829 0)
(0.075825 0.00206106 0)
(0.0744499 0.00206348 0)
(0.0730733 0.00206557 0)
(0.0716955 0.00206735 0)
(0.0703165 0.00206883 0)
(0.0689367 0.00207002 0)
(0.0675562 0.00207096 0)
(0.0661751 0.00207164 0)
(0.0647937 0.00207208 0)
(0.063412 0.00207231 0)
(0.0620303 0.00207232 0)
(0.0606487 0.00207215 0)
(0.0592673 0.00207179 0)
(0.0578861 0.00207127 0)
(0.0565054 0.00207059 0)
(0.0551252 0.00206977 0)
(0.0537455 0.00206882 0)
(0.0523666 0.00206776 0)
(0.0509884 0.00206658 0)
(0.049611 0.00206531 0)
(0.0482345 0.00206396 0)
(0.046859 0.00206253 0)
(0.0454844 0.00206104 0)
(0.0441109 0.00205949 0)
(0.0427384 0.00205789 0)
(0.041367 0.00205626 0)
(0.0399967 0.0020546 0)
(0.0386275 0.00205292 0)
(0.0372594 0.00205123 0)
(0.0358925 0.00204953 0)
(0.0345267 0.00204784 0)
(0.0331621 0.00204615 0)
(0.0317986 0.00204448 0)
(0.0304361 0.00204284 0)
(0.0290748 0.00204122 0)
(0.0277146 0.00203964 0)
(0.0263553 0.0020381 0)
(0.0249971 0.00203661 0)
(0.0236399 0.00203516 0)
(0.0222837 0.00203377 0)
(0.0209283 0.00203244 0)
(0.0195738 0.00203118 0)
(0.0182202 0.00202998 0)
(0.0168673 0.00202885 0)
(0.0155151 0.0020278 0)
(0.0141636 0.00202682 0)
(0.0128128 0.00202592 0)
(0.0114625 0.00202511 0)
(0.0101128 0.00202438 0)
(0.00876345 0.00202374 0)
(0.00741454 0.00202319 0)
(0.00606598 0.00202272 0)
(0.0047177 0.00202235 0)
(0.00336963 0.00202207 0)
(0.00202172 0.00202189 0)
(0.000673895 0.0020218 0)
(0.000685694 -0.00342896 0)
(0.00205712 -0.00342916 0)
(0.00342867 -0.00342955 0)
(0.00480041 -0.00343013 0)
(0.00617243 -0.00343091 0)
(0.0075448 -0.00343188 0)
(0.00891759 -0.00343304 0)
(0.0102909 -0.00343438 0)
(0.0116648 -0.00343591 0)
(0.0130393 -0.00343761 0)
(0.0144145 -0.00343949 0)
(0.0157906 -0.00344154 0)
(0.0171675 -0.00344376 0)
(0.0185453 -0.00344613 0)
(0.0199241 -0.00344866 0)
(0.021304 -0.00345133 0)
(0.0226849 -0.00345414 0)
(0.024067 -0.00345708 0)
(0.0254504 -0.00346014 0)
(0.026835 -0.00346332 0)
(0.0282208 -0.0034666 0)
(0.0296081 -0.00346997 0)
(0.0309967 -0.00347343 0)
(0.0323867 -0.00347696 0)
(0.0337781 -0.00348055 0)
(0.035171 -0.00348418 0)
(0.0365654 -0.00348785 0)
(0.0379613 -0.00349154 0)
(0.0393586 -0.00349524 0)
(0.0407575 -0.00349892 0)
(0.0421578 -0.00350258 0)
(0.0435596 -0.0035062 0)
(0.0449629 -0.00350976 0)
(0.0463676 -0.00351324 0)
(0.0477737 -0.00351662 0)
(0.0491811 -0.00351989 0)
(0.0505898 -0.00352303 0)
(0.0519998 -0.003526 0)
(0.0534109 -0.0035288 0)
(0.0548232 -0.0035314 0)
(0.0562365 -0.00353377 0)
(0.0576506 -0.0035359 0)
(0.0590657 -0.00353775 0)
(0.0604814 -0.0035393 0)
(0.0618977 -0.00354053 0)
(0.0633144 -0.00354141 0)
(0.0647315 -0.00354191 0)
(0.0661487 -0.003542 0)
(0.0675659 -0.00354165 0)
(0.0689829 -0.00354083 0)
(0.0703994 -0.00353952 0)
(0.0718154 -0.00353767 0)
(0.0732306 -0.00353527 0)
(0.0746447 -0.00353227 0)
(0.0760575 -0.00352864 0)
(0.0774688 -0.00352435 0)
(0.0788783 -0.00351936 0)
(0.0802856 -0.00351364 0)
(0.0816906 -0.00350715 0)
(0.0830928 -0.00349986 0)
(0.084492 -0.00349173 0)
(0.0858878 -0.00348273 0)
(0.0872798 -0.00347281 0)
(0.0886677 -0.00346194 0)
(0.0900511 -0.00345009 0)
(0.0914296 -0.00343721 0)
(0.0928028 -0.00342328 0)
(0.0941702 -0.00340824 0)
(0.0955314 -0.00339207 0)
(0.096886 -0.00337473 0)
(0.0982334 -0.00335618 0)
(0.0995732 -0.00333639 0)
(0.100905 -0.00331532 0)
(0.102228 -0.00329294 0)
(0.103542 -0.00326921 0)
(0.104846 -0.0032441 0)
(0.106139 -0.00321758 0)
(0.107422 -0.00318963 0)
(0.108694 -0.0031602 0)
(0.109953 -0.00312927 0)
(0.1112 -0.00309683 0)
(0.112433 -0.00306283 0)
(0.113653 -0.00302726 0)
(0.114858 -0.00299009 0)
(0.116048 -0.00295131 0)
(0.117222 -0.00291091 0)
(0.11838 -0.00286886 0)
(0.11952 -0.00282515 0)
(0.120643 -0.00277977 0)
(0.121747 -0.00273272 0)
(0.122832 -0.00268398 0)
(0.123897 -0.00263357 0)
(0.124942 -0.00258147 0)
(0.125965 -0.00252769 0)
(0.126967 -0.00247224 0)
(0.127946 -0.00241513 0)
(0.128902 -0.00235636 0)
(0.129834 -0.00229597 0)
(0.130742 -0.00223395 0)
(0.131624 -0.00217034 0)
(0.132481 -0.00210516 0)
(0.133311 -0.00203844 0)
(0.134114 -0.00197022 0)
(0.13489 -0.00190052 0)
(0.135637 -0.00182938 0)
(0.136356 -0.00175685 0)
(0.137045 -0.00168297 0)
(0.137705 -0.00160779 0)
(0.138334 -0.00153137 0)
(0.138932 -0.00145374 0)
(0.139499 -0.00137497 0)
(0.140034 -0.00129512 0)
(0.140537 -0.00121425 0)
(0.141007 -0.00113243 0)
(0.141444 -0.00104971 0)
(0.141848 -0.000966176 0)
(0.142219 -0.000881889 0)
(0.142555 -0.000796922 0)
(0.142857 -0.00071135 0)
(0.143125 -0.000625248 0)
(0.143358 -0.000538692 0)
(0.143557 -0.000451759 0)
(0.14372 -0.000364528 0)
(0.143849 -0.000277077 0)
(0.143942 -0.000189485 0)
(0.144 -0.000101833 0)
(0.144023 -1.41974e-05 0)
(0.144011 7.33409e-05 0)
(0.143964 0.000160704 0)
(0.143882 0.000247814 0)
(0.143766 0.000334594 0)
(0.143614 0.000420968 0)
(0.143428 0.000506862 0)
(0.143208 0.000592202 0)
(0.142953 0.000676916 0)
(0.142665 0.000760936 0)
(0.142343 0.000844193 0)
(0.141988 0.000926621 0)
(0.1416 0.00100816 0)
(0.14118 0.00108874 0)
(0.140727 0.00116831 0)
(0.140243 0.00124682 0)
(0.139728 0.0013242 0)
(0.139182 0.00140041 0)
(0.138605 0.0014754 0)
(0.137999 0.00154913 0)
(0.137364 0.00162155 0)
(0.136699 0.00169263 0)
(0.136007 0.00176232 0)
(0.135287 0.0018306 0)
(0.13454 0.00189744 0)
(0.133766 0.00196281 0)
(0.132967 0.00202668 0)
(0.132142 0.00208904 0)
(0.131293 0.00214986 0)
(0.13042 0.00220914 0)
(0.129523 0.00226685 0)
(0.128603 0.002323 0)
(0.127662 0.00237756 0)
(0.126698 0.00243055 0)
(0.125714 0.00248195 0)
(0.12471 0.00253178 0)
(0.123686 0.00258002 0)
(0.122643 0.00262669 0)
(0.121582 0.0026718 0)
(0.120503 0.00271535 0)
(0.119407 0.00275735 0)
(0.118294 0.00279783 0)
(0.117166 0.0028368 0)
(0.116022 0.00287426 0)
(0.114864 0.00291025 0)
(0.113691 0.00294478 0)
(0.112505 0.00297788 0)
(0.111307 0.00300956 0)
(0.110095 0.00303986 0)
(0.108872 0.00306879 0)
(0.107638 0.00309638 0)
(0.106393 0.00312267 0)
(0.105137 0.00314767 0)
(0.103872 0.00317142 0)
(0.102598 0.00319395 0)
(0.101315 0.00321529 0)
(0.100024 0.00323546 0)
(0.0987246 0.0032545 0)
(0.0974182 0.00327244 0)
(0.0961048 0.00328931 0)
(0.0947849 0.00330514 0)
(0.0934588 0.00331997 0)
(0.0921271 0.00333382 0)
(0.0907901 0.00334673 0)
(0.0894481 0.00335873 0)
(0.0881015 0.00336985 0)
(0.0867507 0.00338012 0)
(0.085396 0.00338958 0)
(0.0840376 0.00339825 0)
(0.082676 0.00340616 0)
(0.0813114 0.00341336 0)
(0.0799441 0.00341985 0)
(0.0785743 0.00342569 0)
(0.0772024 0.00343089 0)
(0.0758285 0.00343548 0)
(0.074453 0.0034395 0)
(0.0730759 0.00344296 0)
(0.0716976 0.00344591 0)
(0.0703183 0.00344836 0)
(0.0689381 0.00345034 0)
(0.0675572 0.00345187 0)
(0.0661759 0.00345299 0)
(0.0647941 0.00345372 0)
(0.0634122 0.00345408 0)
(0.0620303 0.00345409 0)
(0.0606484 0.00345378 0)
(0.0592667 0.00345317 0)
(0.0578853 0.00345228 0)
(0.0565044 0.00345114 0)
(0.055124 0.00344976 0)
(0.0537442 0.00344817 0)
(0.0523651 0.00344638 0)
(0.0509868 0.00344441 0)
(0.0496093 0.00344228 0)
(0.0482327 0.00344001 0)
(0.0468571 0.00343762 0)
(0.0454824 0.00343512 0)
(0.0441088 0.00343253 0)
(0.0427363 0.00342986 0)
(0.0413648 0.00342713 0)
(0.0399945 0.00342435 0)
(0.0386253 0.00342154 0)
(0.0372572 0.00341871 0)
(0.0358903 0.00341588 0)
(0.0345245 0.00341305 0)
(0.0331599 0.00341023 0)
(0.0317964 0.00340745 0)
(0.030434 0.0034047 0)
(0.0290727 0.003402 0)
(0.0277125 0.00339936 0)
(0.0263533 0.00339678 0)
(0.0249952 0.00339429 0)
(0.0236381 0.00339187 0)
(0.0222819 0.00338955 0)
(0.0209266 0.00338733 0)
(0.0195722 0.00338522 0)
(0.0182186 0.00338322 0)
(0.0168658 0.00338133 0)
(0.0155138 0.00337957 0)
(0.0141624 0.00337794 0)
(0.0128117 0.00337645 0)
(0.0114615 0.00337509 0)
(0.0101118 0.00337387 0)
(0.00876265 0.0033728 0)
(0.00741387 0.00337188 0)
(0.00606542 0.0033711 0)
(0.00471726 0.00337048 0)
(0.00336932 0.00337002 0)
(0.00202153 0.00336971 0)
(0.000673832 0.00336955 0)
(0.000685575 -0.00480027 0)
(0.00205677 -0.00480055 0)
(0.00342808 -0.0048011 0)
(0.00479958 -0.00480192 0)
(0.00617137 -0.00480301 0)
(0.00754351 -0.00480437 0)
(0.00891608 -0.00480599 0)
(0.0102892 -0.00480788 0)
(0.0116628 -0.00481002 0)
(0.0130371 -0.00481241 0)
(0.0144122 -0.00481505 0)
(0.015788 -0.00481793 0)
(0.0171647 -0.00482104 0)
(0.0185423 -0.00482437 0)
(0.019921 -0.00482791 0)
(0.0213006 -0.00483166 0)
(0.0226814 -0.00483561 0)
(0.0240634 -0.00483974 0)
(0.0254466 -0.00484404 0)
(0.026831 -0.0048485 0)
(0.0282168 -0.00485311 0)
(0.0296039 -0.00485785 0)
(0.0309924 -0.0048627 0)
(0.0323824 -0.00486766 0)
(0.0337737 -0.0048727 0)
(0.0351666 -0.00487781 0)
(0.0365609 -0.00488297 0)
(0.0379568 -0.00488815 0)
(0.0393541 -0.00489334 0)
(0.040753 -0.00489853 0)
(0.0421534 -0.00490367 0)
(0.0435553 -0.00490876 0)
(0.0449586 -0.00491377 0)
(0.0463634 -0.00491867 0)
(0.0477696 -0.00492343 0)
(0.0491772 -0.00492804 0)
(0.0505861 -0.00493245 0)
(0.0519962 -0.00493665 0)
(0.0534076 -0.0049406 0)
(0.0548201 -0.00494427 0)
(0.0562337 -0.00494763 0)
(0.0576482 -0.00495064 0)
(0.0590635 -0.00495327 0)
(0.0604796 -0.00495548 0)
(0.0618963 -0.00495724 0)
(0.0633135 -0.0049585 0)
(0.0647311 -0.00495924 0)
(0.0661488 -0.00495941 0)
(0.0675665 -0.00495896 0)
(0.068984 -0.00495786 0)
(0.0704012 -0.00495607 0)
(0.0718179 -0.00495353 0)
(0.0732337 -0.00495021 0)
(0.0746486 -0.00494605 0)
(0.0760622 -0.00494102 0)
(0.0774743 -0.00493506 0)
(0.0788846 -0.00492812 0)
(0.0802928 -0.00492017 0)
(0.0816987 -0.00491114 0)
(0.0831019 -0.00490098 0)
(0.0845021 -0.00488965 0)
(0.085899 -0.0048771 0)
(0.0872922 -0.00486327 0)
(0.0886812 -0.0048481 0)
(0.0900659 -0.00483156 0)
(0.0914456 -0.00481359 0)
(0.0928201 -0.00479412 0)
(0.0941888 -0.00477312 0)
(0.0955514 -0.00475054 0)
(0.0969074 -0.00472631 0)
(0.0982563 -0.00470039 0)
(0.0995976 -0.00467273 0)
(0.100931 -0.00464328 0)
(0.102255 -0.00461199 0)
(0.103571 -0.00457882 0)
(0.104877 -0.00454372 0)
(0.106172 -0.00450664 0)
(0.107457 -0.00446754 0)
(0.10873 -0.00442638 0)
(0.109991 -0.00438312 0)
(0.11124 -0.00433772 0)
(0.112475 -0.00429016 0)
(0.113697 -0.00424039 0)
(0.114904 -0.00418839 0)
(0.116095 -0.00413412 0)
(0.117271 -0.00407757 0)
(0.118431 -0.00401872 0)
(0.119574 -0.00395754 0)
(0.120698 -0.00389402 0)
(0.121804 -0.00382816 0)
(0.122891 -0.00375993 0)
(0.123959 -0.00368935 0)
(0.125005 -0.00361641 0)
(0.126031 -0.00354111 0)
(0.127035 -0.00346347 0)
(0.128016 -0.00338349 0)
(0.128974 -0.0033012 0)
(0.129908 -0.00321661 0)
(0.130817 -0.00312976 0)
(0.131701 -0.00304067 0)
(0.13256 -0.00294938 0)
(0.133392 -0.00285593 0)
(0.134197 -0.00276036 0)
(0.134974 -0.00266273 0)
(0.135724 -0.00256308 0)
(0.136444 -0.00246148 0)
(0.137135 -0.00235798 0)
(0.137796 -0.00225266 0)
(0.138426 -0.00214559 0)
(0.139026 -0.00203683 0)
(0.139594 -0.00192647 0)
(0.14013 -0.0018146 0)
(0.140634 -0.00170129 0)
(0.141106 -0.00158665 0)
(0.141544 -0.00147075 0)
(0.141949 -0.0013537 0)
(0.14232 -0.0012356 0)
(0.142657 -0.00111654 0)
(0.14296 -0.000996633 0)
(0.143229 -0.000875983 0)
(0.143462 -0.000754696 0)
(0.143661 -0.000632881 0)
(0.143825 -0.000510648 0)
(0.143954 -0.000388106 0)
(0.144047 -0.000265367 0)
(0.144106 -0.000142542 0)
(0.144129 -1.97419e-05 0)
(0.144117 0.000102922 0)
(0.144069 0.000225339 0)
(0.143987 0.000347401 0)
(0.14387 0.000468999 0)
(0.143718 0.000590027 0)
(0.143531 0.00071038 0)
(0.14331 0.000829956 0)
(0.143054 0.000948654 0)
(0.142765 0.00106638 0)
(0.142442 0.00118303 0)
(0.142086 0.00129852 0)
(0.141697 0.00141275 0)
(0.141276 0.00152565 0)
(0.140822 0.00163713 0)
(0.140337 0.00174711 0)
(0.13982 0.00185552 0)
(0.139272 0.00196228 0)
(0.138695 0.00206733 0)
(0.138087 0.00217061 0)
(0.13745 0.00227205 0)
(0.136784 0.00237161 0)
(0.13609 0.00246923 0)
(0.135368 0.00256486 0)
(0.134619 0.00265847 0)
(0.133844 0.00275002 0)
(0.133043 0.00283947 0)
(0.132216 0.0029268 0)
(0.131365 0.00301197 0)
(0.13049 0.00309497 0)
(0.129591 0.00317579 0)
(0.12867 0.0032544 0)
(0.127726 0.0033308 0)
(0.126761 0.00340499 0)
(0.125775 0.00347695 0)
(0.124769 0.0035467 0)
(0.123743 0.00361423 0)
(0.122698 0.00367956 0)
(0.121635 0.00374269 0)
(0.120554 0.00380365 0)
(0.119456 0.00386244 0)
(0.118342 0.00391908 0)
(0.117212 0.00397361 0)
(0.116066 0.00402604 0)
(0.114906 0.00407639 0)
(0.113732 0.00412471 0)
(0.112544 0.00417101 0)
(0.111344 0.00421533 0)
(0.110131 0.00425771 0)
(0.108906 0.00429818 0)
(0.10767 0.00433677 0)
(0.106424 0.00437353 0)
(0.105167 0.0044085 0)
(0.1039 0.00444171 0)
(0.102624 0.0044732 0)
(0.10134 0.00450303 0)
(0.100047 0.00453123 0)
(0.0987469 0.00455784 0)
(0.0974391 0.00458291 0)
(0.0961244 0.00460649 0)
(0.0948033 0.00462861 0)
(0.0934761 0.00464932 0)
(0.0921432 0.00466867 0)
(0.0908051 0.0046867 0)
(0.089462 0.00470345 0)
(0.0881144 0.00471897 0)
(0.0867626 0.00473331 0)
(0.0854069 0.00474651 0)
(0.0840476 0.0047586 0)
(0.0826851 0.00476964 0)
(0.0813196 0.00477967 0)
(0.0799515 0.00478873 0)
(0.078581 0.00479685 0)
(0.0772083 0.00480409 0)
(0.0758337 0.00481048 0)
(0.0744575 0.00481607 0)
(0.0730798 0.00482088 0)
(0.0717009 0.00482496 0)
(0.070321 0.00482835 0)
(0.0689403 0.00483109 0)
(0.0675589 0.00483321 0)
(0.066177 0.00483474 0)
(0.0647948 0.00483572 0)
(0.0634125 0.00483619 0)
(0.0620301 0.00483618 0)
(0.0606479 0.00483571 0)
(0.0592658 0.00483483 0)
(0.0578841 0.00483356 0)
(0.0565029 0.00483193 0)
(0.0551222 0.00482997 0)
(0.0537422 0.00482771 0)
(0.0523629 0.00482518 0)
(0.0509844 0.0048224 0)
(0.0496067 0.00481939 0)
(0.0482299 0.00481619 0)
(0.0468542 0.00481282 0)
(0.0454794 0.0048093 0)
(0.0441057 0.00480565 0)
(0.042733 0.00480189 0)
(0.0413615 0.00479805 0)
(0.0399911 0.00479414 0)
(0.0386219 0.00479019 0)
(0.0372538 0.00478621 0)
(0.0358869 0.00478222 0)
(0.0345211 0.00477824 0)
(0.0331565 0.00477429 0)
(0.0317931 0.00477037 0)
(0.0304307 0.00476651 0)
(0.0290695 0.00476272 0)
(0.0277094 0.00475901 0)
(0.0263503 0.00475539 0)
(0.0249923 0.00475188 0)
(0.0236352 0.0047485 0)
(0.0222791 0.00474524 0)
(0.020924 0.00474212 0)
(0.0195697 0.00473915 0)
(0.0182163 0.00473634 0)
(0.0168637 0.00473369 0)
(0.0155117 0.00473122 0)
(0.0141605 0.00472893 0)
(0.01281 0.00472683 0)
(0.01146 0.00472493 0)
(0.0101105 0.00472322 0)
(0.00876146 0.00472171 0)
(0.00741285 0.00472042 0)
(0.00606459 0.00471933 0)
(0.00471661 0.00471846 0)
(0.00336885 0.0047178 0)
(0.00202125 0.00471737 0)
(0.000673739 0.00471716 0)
(0.000685417 -0.0061713 0)
(0.00205629 -0.00617166 0)
(0.00342729 -0.00617237 0)
(0.00479848 -0.00617343 0)
(0.00616995 -0.00617483 0)
(0.00754179 -0.00617659 0)
(0.00891405 -0.00617868 0)
(0.0102868 -0.00618111 0)
(0.0116602 -0.00618388 0)
(0.0130342 -0.00618696 0)
(0.014409 -0.00619037 0)
(0.0157845 -0.00619408 0)
(0.017161 -0.00619809 0)
(0.0185384 -0.00620239 0)
(0.0199167 -0.00620696 0)
(0.0212962 -0.0062118 0)
(0.0226768 -0.0062169 0)
(0.0240585 -0.00622223 0)
(0.0254415 -0.00622778 0)
(0.0268258 -0.00623354 0)
(0.0282114 -0.00623948 0)
(0.0295984 -0.0062456 0)
(0.0309868 -0.00625187 0)
(0.0323766 -0.00625827 0)
(0.0337679 -0.00626479 0)
(0.0351607 -0.00627138 0)
(0.036555 -0.00627805 0)
(0.0379508 -0.00628475 0)
(0.0393481 -0.00629146 0)
(0.040747 -0.00629816 0)
(0.0421475 -0.00630482 0)
(0.0435494 -0.0063114 0)
(0.0449528 -0.00631788 0)
(0.0463578 -0.00632423 0)
(0.0477641 -0.0063304 0)
(0.0491719 -0.00633637 0)
(0.050581 -0.0063421 0)
(0.0519915 -0.00634755 0)
(0.0534032 -0.00635268 0)
(0.054816 -0.00635745 0)
(0.0562299 -0.00636183 0)
(0.0576448 -0.00636576 0)
(0.0590607 -0.0063692 0)
(0.0604772 -0.00637211 0)
(0.0618945 -0.00637443 0)
(0.0633123 -0.00637613 0)
(0.0647304 -0.00637715 0)
(0.0661488 -0.00637743 0)
(0.0675672 -0.00637693 0)
(0.0689856 -0.00637559 0)
(0.0704036 -0.00637336 0)
(0.0718211 -0.00637017 0)
(0.0732379 -0.00636598 0)
(0.0746537 -0.00636072 0)
(0.0760683 -0.00635433 0)
(0.0774815 -0.00634675 0)
(0.078893 -0.00633792 0)
(0.0803024 -0.00632777 0)
(0.0817096 -0.00631624 0)
(0.0831141 -0.00630328 0)
(0.0845157 -0.0062888 0)
(0.0859139 -0.00627274 0)
(0.0873086 -0.00625505 0)
(0.0886992 -0.00623564 0)
(0.0900854 -0.00621446 0)
(0.0914669 -0.00619144 0)
(0.0928431 -0.00616651 0)
(0.0942136 -0.0061396 0)
(0.0955781 -0.00611065 0)
(0.0969359 -0.00607958 0)
(0.0982868 -0.00604634 0)
(0.0996301 -0.00601087 0)
(0.100965 -0.00597309 0)
(0.102292 -0.00593294 0)
(0.10361 -0.00589037 0)
(0.104918 -0.00584531 0)
(0.106215 -0.00579771 0)
(0.107502 -0.00574751 0)
(0.108778 -0.00569465 0)
(0.110042 -0.0056391 0)
(0.111293 -0.0055808 0)
(0.112531 -0.00551969 0)
(0.113755 -0.00545576 0)
(0.114964 -0.00538894 0)
(0.116159 -0.00531922 0)
(0.117337 -0.00524655 0)
(0.1185 -0.00517091 0)
(0.119645 -0.00509227 0)
(0.120772 -0.00501063 0)
(0.121881 -0.00492595 0)
(0.122971 -0.00483824 0)
(0.124041 -0.00474749 0)
(0.12509 -0.0046537 0)
(0.126118 -0.00455688 0)
(0.127125 -0.00445703 0)
(0.128108 -0.00435417 0)
(0.129069 -0.00424833 0)
(0.130006 -0.00413953 0)
(0.130918 -0.00402781 0)
(0.131805 -0.00391321 0)
(0.132666 -0.00379577 0)
(0.1335 -0.00367554 0)
(0.134308 -0.00355258 0)
(0.135087 -0.00342696 0)
(0.135839 -0.00329874 0)
(0.136561 -0.003168 0)
(0.137254 -0.00303482 0)
(0.137917 -0.00289929 0)
(0.13855 -0.00276149 0)
(0.139151 -0.00262153 0)
(0.139721 -0.0024795 0)
(0.140259 -0.00233551 0)
(0.140765 -0.00218968 0)
(0.141238 -0.00204211 0)
(0.141677 -0.00189294 0)
(0.142083 -0.00174228 0)
(0.142456 -0.00159026 0)
(0.142794 -0.00143701 0)
(0.143098 -0.00128266 0)
(0.143367 -0.00112736 0)
(0.143601 -0.000971231 0)
(0.143801 -0.000814424 0)
(0.143965 -0.000657077 0)
(0.144094 -0.000499333 0)
(0.144188 -0.000341335 0)
(0.144246 -0.000183227 0)
(0.144269 -2.51521e-05 0)
(0.144257 0.000132747 0)
(0.144209 0.000290328 0)
(0.144126 0.000447449 0)