/*--------------------------------*- C++ -*----------------------------------*\
| =========                 |                                                 |
| \\      /  F ield         | OpenFOAM: The Open Source CFD Toolbox           |
|  \\    /   O peration     | Version:  v2012                                 |
|   \\  /    A nd           | Website:  www.openfoam.com                      |
|    \\/     M anipulation  |                                                 |
\*---------------------------------------------------------------------------*/
FoamFile
{
    version     2.0;
    format      ascii;
    class       volScalarField;
    location    "15.8";
    object      W;
}
// * * * * * * * * * * * * * * * * * * * * * * * * * * * * * * * * * * * * * //

dimensions      [0 0 -1 0 0 0 0];


internalField   nonuniform List<scalar> 
65536
(
5.60997e-16
1.68979e-15
2.8392e-15
4.02345e-15
5.25719e-15
6.55564e-15
7.93473e-15
9.41123e-15
1.1003e-14
1.27292e-14
1.46102e-14
1.66684e-14
1.89276e-14
2.14141e-14
2.41564e-14
2.71854e-14
3.05353e-14
3.42432e-14
3.83497e-14
4.28994e-14
4.79411e-14
5.35281e-14
5.9719e-14
6.65776e-14
7.41739e-14
8.25843e-14
9.18922e-14
1.02189e-13
1.13573e-13
1.26153e-13
1.40047e-13
1.55382e-13
1.72297e-13
1.90943e-13
2.11482e-13
2.34092e-13
2.58961e-13
2.86297e-13
3.16321e-13
3.4927e-13
3.854e-13
4.24987e-13
4.68324e-13
5.15725e-13
5.67526e-13
6.24083e-13
6.85776e-13
7.53009e-13
8.26207e-13
9.05821e-13
9.92327e-13
1.08622e-12
1.18804e-12
1.29831e-12
1.41762e-12
1.54657e-12
1.68576e-12
1.83585e-12
1.99748e-12
2.17134e-12
2.35811e-12
2.55851e-12
2.77324e-12
3.00302e-12
3.24859e-12
3.51066e-12
3.78995e-12
4.08715e-12
4.40295e-12
4.73801e-12
5.09297e-12
5.46841e-12
5.86487e-12
6.28286e-12
6.72279e-12
7.18505e-12
7.66989e-12
8.17753e-12
8.70807e-12
9.26149e-12
9.83768e-12
1.04364e-11
1.10573e-11
1.16999e-11
1.23635e-11
1.30473e-11
1.37504e-11
1.44717e-11
1.52099e-11
1.59636e-11
1.67312e-11
1.7511e-11
1.83011e-11
1.90994e-11
1.99037e-11
2.07118e-11
2.15212e-11
2.23293e-11
2.31334e-11
2.39308e-11
2.47187e-11
2.54942e-11
2.62544e-11
2.69965e-11
2.77174e-11
2.84144e-11
2.90846e-11
2.97253e-11
3.03339e-11
3.09078e-11
3.14446e-11
3.19421e-11
3.23983e-11
3.28113e-11
3.31795e-11
3.35014e-11
3.37758e-11
3.40018e-11
3.41787e-11
3.43059e-11
3.43834e-11
3.44111e-11
3.43892e-11
3.43184e-11
3.41994e-11
3.40331e-11
3.38207e-11
3.35635e-11
3.32632e-11
3.29215e-11
3.25401e-11
3.2121e-11
3.16663e-11
3.11782e-11
3.06588e-11
3.01104e-11
2.95354e-11
2.89359e-11
2.83144e-11
2.7673e-11
2.7014e-11
2.63395e-11
2.56518e-11
2.49528e-11
2.42445e-11
2.35288e-11
2.28074e-11
2.20822e-11
2.13547e-11
2.06265e-11
1.98989e-11
1.91733e-11
1.84509e-11
1.7733e-11
1.70205e-11
1.63146e-11
1.56162e-11
1.49262e-11
1.42454e-11
1.35746e-11
1.29146e-11
1.22661e-11
1.16299e-11
1.10066e-11
1.03968e-11
9.80127e-12
9.22061e-12
8.65544e-12
8.10638e-12
7.57402e-12
7.05896e-12
6.56175e-12
6.08293e-12
5.62301e-12
5.18246e-12
4.7617e-12
4.36109e-12
3.98095e-12
3.62151e-12
3.28292e-12
2.96526e-12
2.66852e-12
2.39259e-12
2.13725e-12
1.90219e-12
1.68702e-12
1.49121e-12
1.31418e-12
1.15523e-12
1.01358e-12
8.88375e-13
7.78705e-13
6.83589e-13
6.02e-13
5.32876e-13
4.75127e-13
4.27646e-13
3.89323e-13
3.59052e-13
3.35741e-13
3.18328e-13
3.05784e-13
2.97128e-13
2.91435e-13
2.87845e-13
2.85572e-13
2.83914e-13
2.82257e-13
2.80083e-13
2.76972e-13
2.72606e-13
2.66767e-13
2.59334e-13
2.50278e-13
2.39654e-13
2.27591e-13
2.14275e-13
1.99944e-13
1.84865e-13
1.69323e-13
1.53608e-13
1.37999e-13
1.22755e-13
1.08106e-13
9.42434e-14
8.13198e-14
6.94448e-14
5.86865e-14
4.9074e-14
4.06012e-14
3.32325e-14
2.69085e-14
2.15516e-14
1.70726e-14
1.33757e-14
1.03633e-14
7.93982e-15
6.01482e-15
4.50509e-15
3.33596e-15
2.442e-15
1.76705e-15
1.26386e-15
8.93438e-16
6.24191e-16
4.30949e-16
2.94004e-16
1.98175e-16
1.31955e-16
8.67565e-17
5.62615e-17
3.5886e-17
2.23375e-17
1.32616e-17
6.95946e-18
2.16124e-18
1.93473e-15
5.82772e-15
9.79207e-15
1.3877e-14
1.81333e-14
2.26136e-14
2.7373e-14
3.24696e-14
3.79654e-14
4.39264e-14
5.04238e-14
5.75346e-14
6.5342e-14
7.39368e-14
8.34178e-14
9.38929e-14
1.0548e-13
1.18308e-13
1.32519e-13
1.48267e-13
1.65721e-13
1.85068e-13
2.06511e-13
2.30271e-13
2.56593e-13
2.85741e-13
3.18007e-13
3.53707e-13
3.93187e-13
4.36822e-13
4.85023e-13
5.38234e-13
5.96939e-13
6.61661e-13
7.3297e-13
8.11478e-13
8.9785e-13
9.92801e-13
1.0971e-12
1.21159e-12
1.33714e-12
1.47472e-12
1.62536e-12
1.79014e-12
1.97023e-12
2.16687e-12
2.38139e-12
2.61519e-12
2.86974e-12
3.14662e-12
3.44748e-12
3.77404e-12
4.12813e-12
4.51164e-12
4.92657e-12
5.37496e-12
5.85897e-12
6.38079e-12
6.94269e-12
7.547e-12
8.19611e-12
8.89242e-12
9.63838e-12
1.04365e-11
1.12891e-11
1.21988e-11
1.31679e-11
1.41988e-11
1.52938e-11
1.6455e-11
1.76847e-11
1.89846e-11
2.03566e-11
2.18022e-11
2.33228e-11
2.49194e-11
2.65928e-11
2.83435e-11
3.01717e-11
3.20771e-11
3.4059e-11
3.61164e-11
3.82477e-11
4.04508e-11
4.27234e-11
4.50622e-11
4.74637e-11
4.99238e-11
5.24379e-11
5.50005e-11
5.76061e-11
6.02482e-11
6.29199e-11
6.5614e-11
6.83226e-11
7.10374e-11
7.37498e-11
7.64506e-11
7.91307e-11
8.17803e-11
8.43897e-11
8.69489e-11
8.94482e-11
9.18774e-11
9.42268e-11
9.64866e-11
9.86476e-11
1.007e-10
1.02637e-10
1.04448e-10
1.06126e-10
1.07665e-10
1.09058e-10
1.10299e-10
1.11383e-10
1.12306e-10
1.13065e-10
1.13657e-10
1.14081e-10
1.14336e-10
1.14421e-10
1.14339e-10
1.14091e-10
1.1368e-10
1.13108e-10
1.12381e-10
1.11502e-10
1.10478e-10
1.09314e-10
1.08016e-10
1.06593e-10
1.05049e-10
1.03394e-10
1.01635e-10
9.97803e-11
9.7837e-11
9.58135e-11
9.37178e-11
9.15578e-11
8.93411e-11
8.70754e-11
8.4768e-11
8.24258e-11
8.00558e-11
7.76643e-11
7.52575e-11
7.28413e-11
7.0421e-11
6.80018e-11
6.55885e-11
6.31855e-11
6.07969e-11
5.84265e-11
5.60778e-11
5.37541e-11
5.14583e-11
4.91933e-11
4.69615e-11
4.47654e-11
4.26073e-11
4.04891e-11
3.84129e-11
3.63806e-11
3.43941e-11
3.2455e-11
3.05651e-11
2.87262e-11
2.69398e-11
2.52076e-11
2.35311e-11
2.19118e-11
2.03512e-11
1.88508e-11
1.74118e-11
1.60353e-11
1.47225e-11
1.34742e-11
1.22912e-11
1.11739e-11
1.01226e-11
9.13741e-12
8.21799e-12
7.36385e-12
6.57419e-12
5.84789e-12
5.18355e-12
4.57948e-12
4.0337e-12
3.54398e-12
3.10784e-12
2.72256e-12
2.38524e-12
2.09282e-12
1.84208e-12
1.62971e-12
1.45232e-12
1.3065e-12
1.18879e-12
1.09579e-12
1.02415e-12
9.7058e-13
9.31938e-13
9.0521e-13
8.87563e-13
8.76366e-13
8.69216e-13
8.63967e-13
8.58745e-13
8.51971e-13
8.42365e-13
8.28957e-13
8.11083e-13
7.88377e-13
7.60751e-13
7.28371e-13
6.91627e-13
6.51091e-13
6.0748e-13
5.61608e-13
5.14343e-13
4.66562e-13
4.19114e-13
3.72784e-13
3.28269e-13
2.86151e-13
2.46891e-13
2.10822e-13
1.78149e-13
1.48958e-13
1.23232e-13
1.0086e-13
8.1661e-14
6.54e-14
5.18051e-14
4.0585e-14
3.14429e-14
2.40886e-14
1.82475e-14
1.36667e-14
1.01195e-14
7.40741e-15
5.35983e-15
3.83339e-15
2.70977e-15
1.89309e-15
1.30697e-15
8.91617e-16
6.00982e-16
4.00155e-16
2.63083e-16
1.70605e-16
1.08817e-16
6.77327e-17
4.02119e-17
2.11025e-17
6.55343e-18
4.15865e-15
1.25269e-14
2.10495e-14
2.9833e-14
3.89872e-14
4.86258e-14
5.88681e-14
6.98402e-14
8.16758e-14
9.45185e-14
1.08523e-13
1.23855e-13
1.40696e-13
1.59243e-13
1.7971e-13
2.02333e-13
2.27367e-13
2.55094e-13
2.85821e-13
3.19884e-13
3.57654e-13
3.99535e-13
4.45969e-13
4.97441e-13
5.54483e-13
6.17674e-13
6.87648e-13
7.65096e-13
8.50774e-13
9.45504e-13
1.05018e-12
1.16577e-12
1.29334e-12
1.43404e-12
1.58909e-12
1.75985e-12
1.94777e-12
2.15442e-12
2.38148e-12
2.63076e-12
2.90421e-12
3.20394e-12
3.53216e-12
3.89128e-12
4.28384e-12
4.71255e-12
5.18031e-12
5.69016e-12
6.24533e-12
6.84925e-12
7.50549e-12
8.21783e-12
8.99023e-12
9.8268e-12
1.07318e-11
1.17098e-11
1.27653e-11
1.39031e-11
1.51281e-11
1.64453e-11
1.78597e-11
1.93765e-11
2.10009e-11
2.27382e-11
2.45934e-11
2.65717e-11
2.86782e-11
3.09177e-11
3.32948e-11
3.58141e-11
3.84796e-11
4.12951e-11
4.42641e-11
4.73893e-11
5.06731e-11
5.41173e-11
5.77229e-11
6.14902e-11
6.54186e-11
6.9507e-11
7.37528e-11
7.81529e-11
8.2703e-11
8.73975e-11
9.22301e-11
9.71929e-11
1.02277e-10
1.07473e-10
1.12768e-10
1.18151e-10
1.23608e-10
1.29125e-10
1.34684e-10
1.4027e-10
1.45865e-10
1.51449e-10
1.57004e-10
1.6251e-10
1.67945e-10
1.73289e-10
1.78521e-10
1.83619e-10
1.88562e-10
1.9333e-10
1.97901e-10
2.02255e-10
2.06374e-10
2.1024e-10
2.13834e-10
2.17142e-10
2.20148e-10
2.22839e-10
2.25205e-10
2.27235e-10
2.28921e-10
2.30258e-10
2.31241e-10
2.31867e-10
2.32137e-10
2.32052e-10
2.31615e-10
2.30832e-10
2.29709e-10
2.28256e-10
2.26481e-10
2.24397e-10
2.22016e-10
2.19353e-10
2.16422e-10
2.13239e-10
2.0982e-10
2.06182e-10
2.02344e-10
1.98321e-10
1.94132e-10
1.89795e-10
1.85326e-10
1.80744e-10
1.76064e-10
1.71303e-10
1.66476e-10
1.61598e-10
1.56684e-10
1.51747e-10
1.468e-10
1.41854e-10
1.36921e-10
1.3201e-10
1.27131e-10
1.22293e-10
1.17503e-10
1.12768e-10
1.08095e-10
1.0349e-10
9.89574e-11
9.45022e-11
9.01284e-11
8.58397e-11
8.16395e-11
7.75308e-11
7.35163e-11
6.95985e-11
6.57797e-11
6.20621e-11
5.84479e-11
5.4939e-11
5.15373e-11
4.82447e-11
4.50629e-11
4.19938e-11
3.90391e-11
3.62002e-11
3.34788e-11
3.08762e-11
2.83935e-11
2.60318e-11
2.37918e-11
2.16739e-11
1.96781e-11
1.78044e-11
1.6052e-11
1.44197e-11
1.29062e-11
1.15094e-11
1.02268e-11
9.05538e-12
7.99181e-12
7.0322e-12
6.17225e-12
5.40727e-12
4.73224e-12
4.14182e-12
3.63042e-12
3.19223e-12
2.82133e-12
2.51165e-12
2.25712e-12
2.05166e-12
1.88927e-12
1.76405e-12
1.67028e-12
1.60246e-12
1.55534e-12
1.524e-12
1.50389e-12
1.49085e-12
1.48116e-12
1.47161e-12
1.45947e-12
1.44253e-12
1.41914e-12
1.38815e-12
1.34893e-12
1.30133e-12
1.24565e-12
1.18254e-12
1.11299e-12
1.03823e-12
9.59636e-13
8.78702e-13
7.96924e-13
7.15749e-13
6.36518e-13
5.60415e-13
4.88433e-13
4.21354e-13
3.59742e-13
3.03944e-13
2.54105e-13
2.1019e-13
1.72008e-13
1.39249e-13
1.11507e-13
8.83172e-14
6.91813e-14
5.35918e-14
4.10528e-14
3.1095e-14
2.32867e-14
1.72412e-14
1.26193e-14
9.13028e-15
6.52954e-15
4.61531e-15
3.2241e-15
2.22574e-15
1.51831e-15
1.02334e-15
6.81337e-16
4.47925e-16
2.90459e-16
1.85256e-16
1.15308e-16
6.84547e-17
3.59233e-17
1.11561e-17
8.14457e-15
2.45342e-14
4.12288e-14
5.84382e-14
7.63791e-14
9.52762e-14
1.15365e-13
1.36895e-13
1.60131e-13
1.85355e-13
2.12875e-13
2.43019e-13
2.76148e-13
3.12651e-13
3.52954e-13
3.97523e-13
4.46867e-13
5.01546e-13
5.6217e-13
6.2941e-13
7.04002e-13
7.86751e-13
8.7854e-13
9.80336e-13
1.0932e-12
1.21828e-12
1.35686e-12
1.5103e-12
1.68013e-12
1.86797e-12
2.07563e-12
2.30504e-12
2.55832e-12
2.83777e-12
3.14586e-12
3.4853e-12
3.85897e-12
4.27003e-12
4.72184e-12
5.21805e-12
5.76255e-12
6.35952e-12
7.01345e-12
7.72911e-12
8.51162e-12
9.36638e-12
1.02992e-11
1.13161e-11
1.24236e-11
1.36284e-11
1.49378e-11
1.63593e-11
1.79006e-11
1.957e-11
2.1376e-11
2.33275e-11
2.54334e-11
2.77032e-11
3.01465e-11
3.27731e-11
3.55928e-11
3.86158e-11
4.1852e-11
4.53115e-11
4.90041e-11
5.29397e-11
5.71277e-11
6.15772e-11
6.62968e-11
7.12946e-11
7.6578e-11
8.21534e-11
8.80265e-11
9.42019e-11
1.00683e-10
1.07471e-10
1.14568e-10
1.21972e-10
1.29681e-10
1.37689e-10
1.4599e-10
1.54576e-10
1.63436e-10
1.72556e-10
1.81922e-10
1.91515e-10
2.01316e-10
2.11302e-10
2.21449e-10
2.31728e-10
2.42111e-10
2.52567e-10
2.63061e-10
2.73558e-10
2.84021e-10
2.94411e-10
3.04689e-10
3.14814e-10
3.24745e-10
3.34439e-10
3.43855e-10
3.52951e-10
3.61687e-10
3.70022e-10
3.77917e-10
3.85337e-10
3.92245e-10
3.9861e-10
4.04401e-10
4.09591e-10
4.14157e-10
4.18077e-10
4.21336e-10
4.2392e-10
4.25819e-10
4.27028e-10
4.27546e-10
4.27375e-10
4.2652e-10
4.24993e-10
4.22806e-10
4.19976e-10
4.16524e-10
4.12472e-10
4.07847e-10
4.02676e-10
3.9699e-10
3.9082e-10
3.84201e-10
3.77166e-10
3.69752e-10
3.61994e-10
3.53929e-10
3.45591e-10
3.37018e-10
3.28243e-10
3.193e-10
3.10224e-10
3.01045e-10
2.91793e-10
2.82497e-10
2.73185e-10
2.63881e-10
2.54608e-10
2.45389e-10
2.36244e-10
2.2719e-10
2.18243e-10
2.09418e-10
2.00729e-10
1.92185e-10
1.83798e-10
1.75576e-10
1.67525e-10
1.59653e-10
1.51964e-10
1.44462e-10
1.37151e-10
1.30034e-10
1.23113e-10
1.16389e-10
1.09864e-10
1.03539e-10
9.74146e-11
9.14913e-11
8.57697e-11
8.02502e-11
7.49333e-11
6.98192e-11
6.49083e-11
6.02007e-11
5.56968e-11
5.13965e-11
4.72998e-11
4.34065e-11
3.9716e-11
3.62277e-11
3.29403e-11
2.98523e-11
2.69617e-11
2.42659e-11
2.17619e-11
1.9446e-11
1.73139e-11
1.53606e-11
1.35806e-11
1.19678e-11
1.05155e-11
9.21631e-12
8.06256e-12
7.04602e-12
6.15814e-12
5.39003e-12
4.73258e-12
4.17655e-12
3.7126e-12
3.33139e-12
3.02366e-12
2.78031e-12
2.59243e-12
2.45143e-12
2.34906e-12
2.27752e-12
2.22947e-12
2.19817e-12
2.17747e-12
2.16189e-12
2.14667e-12
2.12782e-12
2.10212e-12
2.06711e-12
2.02113e-12
1.96328e-12
1.89332e-12
1.81167e-12
1.71932e-12
1.61769e-12
1.50856e-12
1.39396e-12
1.27603e-12
1.15696e-12
1.03884e-12
9.23608e-13
8.12979e-13
7.08386e-13
6.10959e-13
5.21506e-13
4.40523e-13
3.68212e-13
3.04515e-13
2.49151e-13
2.01662e-13
1.61457e-13
1.27857e-13
1.00137e-13
7.75598e-14
5.94039e-14
4.49882e-14
3.36865e-14
2.49377e-14
1.82503e-14
1.32028e-14
9.44094e-15
6.67247e-15
4.66068e-15
3.21717e-15
2.19443e-15
1.47891e-15
9.84582e-16
6.47237e-16
4.19677e-16
2.67656e-16
1.66587e-16
9.88935e-17
5.18954e-17
1.61161e-17
1.5428e-14
4.6476e-14
7.81066e-14
1.10721e-13
1.44733e-13
1.80572e-13
2.18689e-13
2.5956e-13
3.03692e-13
3.51629e-13
4.03956e-13
4.61307e-13
5.24371e-13
5.93898e-13
6.70706e-13
7.55692e-13
8.49836e-13
9.54214e-13
1.07e-12
1.1985e-12
1.34112e-12
1.49942e-12
1.67511e-12
1.87005e-12
2.08629e-12
2.32607e-12
2.59184e-12
2.88628e-12
3.21231e-12
3.5731e-12
3.97214e-12
4.41319e-12
4.90036e-12
5.43809e-12
6.03122e-12
6.68495e-12
7.40494e-12
8.19727e-12
9.0685e-12
1.00257e-11
1.10764e-11
1.22289e-11
1.34916e-11
1.48741e-11
1.6386e-11
1.80381e-11
1.98414e-11
2.18078e-11
2.39498e-11
2.62805e-11
2.88139e-11
3.15643e-11
3.4547e-11
3.77777e-11
4.12728e-11
4.50493e-11
4.91246e-11
5.35166e-11
5.82437e-11
6.33244e-11
6.87775e-11
7.4622e-11
8.08768e-11
8.75605e-11
9.46916e-11
1.02288e-10
1.10367e-10
1.18945e-10
1.28038e-10
1.37659e-10
1.47821e-10
1.58535e-10
1.69809e-10
1.81651e-10
1.94064e-10
2.07049e-10
2.20605e-10
2.34726e-10
2.49403e-10
2.64625e-10
2.80374e-10
2.9663e-10
3.13367e-10
3.30558e-10
3.48166e-10
3.66154e-10
3.84478e-10
4.03091e-10
4.2194e-10
4.40967e-10
4.60113e-10
4.79312e-10
4.98496e-10
5.17593e-10
5.36529e-10
5.55226e-10
5.73607e-10
5.91591e-10
6.09099e-10
6.26049e-10
6.42363e-10
6.57962e-10
6.7277e-10
6.86714e-10
6.99725e-10
7.11737e-10
7.22689e-10
7.32526e-10
7.412e-10
7.48667e-10
7.54891e-10
7.59845e-10
7.63506e-10
7.65862e-10
7.66906e-10
7.66642e-10
7.65079e-10
7.62234e-10
7.58132e-10
7.52806e-10
7.46293e-10
7.38638e-10
7.29892e-10
7.20108e-10
7.09347e-10
6.97672e-10
6.8515e-10
6.71849e-10
6.57839e-10
6.43194e-10
6.27983e-10
6.1228e-10
5.96155e-10
5.79679e-10
5.62919e-10
5.45941e-10
5.28809e-10
5.11582e-10
4.94317e-10
4.77068e-10
4.59883e-10
4.42811e-10
4.25891e-10
4.09163e-10
3.92661e-10
3.76415e-10
3.60453e-10
3.44797e-10
3.29469e-10
3.14485e-10
2.99859e-10
2.85603e-10
2.71724e-10
2.58231e-10
2.45127e-10
2.32414e-10
2.20096e-10
2.0817e-10
1.96636e-10
1.85491e-10
1.74734e-10
1.6436e-10
1.54365e-10
1.44745e-10
1.35496e-10
1.26614e-10
1.18094e-10
1.09931e-10
1.02122e-10
9.46618e-11
8.75468e-11
8.07728e-11
7.43357e-11
6.82314e-11
6.24557e-11
5.70043e-11
5.18724e-11
4.70552e-11
4.25472e-11
3.83426e-11
3.44349e-11
3.08172e-11
2.74818e-11
2.44202e-11
2.16234e-11
1.90816e-11
1.67844e-11
1.47207e-11
1.28787e-11
1.12463e-11
9.81083e-12
8.55917e-12
7.47802e-12
6.55386e-12
5.7731e-12
5.12214e-12
4.58751e-12
4.15593e-12
3.81441e-12
3.55037e-12
3.35168e-12
3.20681e-12
3.10483e-12
3.03558e-12
2.98969e-12
2.95868e-12
2.935e-12
2.91214e-12
2.88461e-12
2.84799e-12
2.79897e-12
2.73528e-12
2.65567e-12
2.55984e-12
2.44837e-12
2.32258e-12
2.1844e-12
2.03625e-12
1.88085e-12
1.72111e-12
1.55996e-12
1.40022e-12
1.24449e-12
1.09508e-12
9.53902e-13
8.22464e-13
7.01842e-13
5.9269e-13
4.95269e-13
4.09486e-13
3.34954e-13
2.71045e-13
2.16957e-13
1.71769e-13
1.345e-13
1.04154e-13
7.97568e-14
6.03906e-14
4.52115e-14
3.34638e-14
2.4486e-14
1.77111e-14
1.26628e-14
8.9483e-15
6.24952e-15
4.31337e-15
2.9418e-15
1.98238e-15
1.31963e-15
8.67411e-16
5.62393e-16
3.58648e-16
2.23205e-16
1.32498e-16
6.95269e-17
2.15912e-17
2.86535e-14
8.63208e-14
1.4508e-13
2.05683e-13
2.68905e-13
3.35553e-13
4.06471e-13
4.82554e-13
5.64754e-13
6.54094e-13
7.51674e-13
8.58687e-13
9.76432e-13
1.10632e-12
1.2499e-12
1.40886e-12
1.58506e-12
1.78052e-12
1.99748e-12
2.23838e-12
2.50591e-12
2.80303e-12
3.13295e-12
3.49924e-12
3.90578e-12
4.35681e-12
4.857e-12
5.41144e-12
6.02567e-12
6.70577e-12
7.45833e-12
8.29055e-12
9.21023e-12
1.02259e-11
1.13467e-11
1.25826e-11
1.39444e-11
1.54436e-11
1.70929e-11
1.89057e-11
2.08965e-11
2.30807e-11
2.54751e-11
2.80972e-11
3.0966e-11
3.41017e-11
3.75254e-11
4.12597e-11
4.53286e-11
4.9757e-11
5.45713e-11
5.97991e-11
6.54691e-11
7.16113e-11
7.82568e-11
8.54375e-11
9.31864e-11
1.01537e-10
1.10525e-10
1.20183e-10
1.30548e-10
1.41654e-10
1.53537e-10
1.66231e-10
1.79769e-10
1.94185e-10
2.09509e-10
2.25771e-10
2.42997e-10
2.61212e-10
2.80437e-10
3.00688e-10
3.21979e-10
3.44318e-10
3.67709e-10
3.92148e-10
4.17627e-10
4.44131e-10
4.71637e-10
5.00115e-10
5.29527e-10
5.59826e-10
5.90958e-10
6.22859e-10
6.55456e-10
6.88669e-10
7.22406e-10
7.5657e-10
7.91053e-10
8.25739e-10
8.60506e-10
8.95223e-10
9.29756e-10
9.63963e-10
9.97697e-10
1.03081e-09
1.06315e-09
1.09456e-09
1.1249e-09
1.15401e-09
1.18174e-09
1.20796e-09
1.23251e-09
1.25528e-09
1.27614e-09
1.29497e-09
1.31168e-09
1.32618e-09
1.33838e-09
1.34823e-09
1.35568e-09
1.36069e-09
1.36324e-09
1.36333e-09
1.36098e-09
1.3562e-09
1.34904e-09
1.33956e-09
1.32782e-09
1.3139e-09
1.29791e-09
1.27994e-09
1.26011e-09
1.23854e-09
1.21536e-09
1.19069e-09
1.16469e-09
1.13748e-09
1.10922e-09
1.08003e-09
1.05007e-09
1.01947e-09
9.88361e-10
9.5688e-10
9.2515e-10
8.93289e-10
8.61411e-10
8.29621e-10
7.98017e-10
7.6669e-10
7.35722e-10
7.05187e-10
6.75152e-10
6.45677e-10
6.16811e-10
5.886e-10
5.6108e-10
5.34282e-10
5.08229e-10
4.8294e-10
4.58429e-10
4.34702e-10
4.11765e-10
3.89617e-10
3.68256e-10
3.47674e-10
3.27864e-10
3.08814e-10
2.90512e-10
2.72945e-10
2.56099e-10
2.39957e-10
2.24504e-10
2.09724e-10
1.95602e-10
1.82122e-10
1.69268e-10
1.57025e-10
1.45379e-10
1.34316e-10
1.23822e-10
1.13883e-10
1.04487e-10
9.56219e-11
8.72741e-11
7.94317e-11
7.20824e-11
6.52137e-11
5.88128e-11
5.28668e-11
4.7362e-11
4.22845e-11
3.76198e-11
3.33525e-11
2.94669e-11
2.59463e-11
2.27737e-11
1.99313e-11
1.74009e-11
1.51637e-11
1.32007e-11
1.14925e-11
1.00196e-11
8.76247e-12
7.70177e-12
6.81825e-12
6.09299e-12
5.50753e-12
5.04395e-12
4.68497e-12
4.41408e-12
4.2156e-12
4.07483e-12
3.97809e-12
3.91286e-12
3.86783e-12
3.833e-12
3.79971e-12
3.76074e-12
3.71028e-12
3.64396e-12
3.55881e-12
3.4532e-12
3.32675e-12
3.18021e-12
3.0153e-12
2.83454e-12
2.64107e-12
2.43842e-12
2.23036e-12
2.02068e-12
1.81302e-12
1.61076e-12
1.41683e-12
1.23372e-12
1.06335e-12
9.07088e-13
7.65762e-13
6.39687e-13
5.28727e-13
4.32362e-13
3.49767e-13
2.79892e-13
2.21537e-13
1.73425e-13
1.34263e-13
1.02789e-13
7.78128e-14
5.8242e-14
4.30996e-14
3.15304e-14
2.28022e-14
1.62999e-14
1.15166e-14
8.04192e-15
5.54964e-15
3.78444e-15
2.54988e-15
1.6972e-15
1.11546e-15
7.23147e-16
4.61122e-16
2.86957e-16
1.70331e-16
8.93755e-17
2.77545e-17
5.23538e-14
1.57726e-13
2.65112e-13
3.759e-13
4.9152e-13
6.13459e-13
7.4328e-13
8.82633e-13
1.03328e-12
1.19711e-12
1.37617e-12
1.57266e-12
1.789e-12
2.0278e-12
2.29194e-12
2.58455e-12
2.90909e-12
3.26934e-12
3.66946e-12
4.11399e-12
4.60797e-12
5.15688e-12
5.76677e-12
6.44427e-12
7.19664e-12
8.03184e-12
8.95859e-12
9.98641e-12
1.11257e-11
1.23879e-11
1.37853e-11
1.53314e-11
1.70409e-11
1.89298e-11
2.10153e-11
2.33162e-11
2.58526e-11
2.86465e-11
3.17213e-11
3.51026e-11
3.88174e-11
4.2895e-11
4.73666e-11
5.22657e-11
5.76277e-11
6.34904e-11
6.98941e-11
7.6881e-11
8.4496e-11
9.27862e-11
1.01801e-10
1.11592e-10
1.22214e-10
1.33722e-10
1.46175e-10
1.59632e-10
1.74155e-10
1.89807e-10
2.06652e-10
2.24753e-10
2.44177e-10
2.64987e-10
2.87249e-10
3.11024e-10
3.36374e-10
3.63357e-10
3.9203e-10
4.22442e-10
4.54642e-10
4.88669e-10
5.24558e-10
5.62336e-10
6.02021e-10
6.43622e-10
6.87138e-10
7.32554e-10
7.79847e-10
8.28977e-10
8.79893e-10
9.32526e-10
9.86794e-10
1.0426e-09
1.09982e-09
1.15834e-09
1.21799e-09
1.27862e-09
1.34003e-09
1.40205e-09
1.46444e-09
1.52698e-09
1.58943e-09
1.65154e-09
1.71304e-09
1.77366e-09
1.83311e-09
1.89113e-09
1.9474e-09
2.00167e-09
2.05363e-09
2.10301e-09
2.14954e-09
2.19297e-09
2.23304e-09
2.26953e-09
2.30224e-09
2.33096e-09
2.35554e-09
2.37583e-09
2.39172e-09
2.40312e-09
2.40997e-09
2.41226e-09
2.40996e-09
2.40313e-09
2.39182e-09
2.37611e-09
2.35613e-09
2.33201e-09
2.30393e-09
2.27206e-09
2.23663e-09
2.19785e-09
2.15596e-09
2.11122e-09
2.06389e-09
2.01424e-09
1.96254e-09
1.90907e-09
1.8541e-09
1.7979e-09
1.74074e-09
1.68286e-09
1.62453e-09
1.56596e-09
1.5074e-09
1.44904e-09
1.39108e-09
1.33371e-09
1.27707e-09
1.22133e-09
1.1666e-09
1.11302e-09
1.06067e-09
1.00965e-09
9.60014e-10
9.11834e-10
8.65148e-10
8.1999e-10
7.76382e-10
7.34333e-10
6.93847e-10
6.54918e-10
6.17533e-10
5.81673e-10
5.47315e-10
5.14428e-10
4.82982e-10
4.5294e-10
4.24266e-10
3.96922e-10
3.70866e-10
3.4606e-10
3.22463e-10
3.00035e-10
2.78737e-10
2.58531e-10
2.39379e-10
2.21247e-10
2.04098e-10
1.879e-10
1.72621e-10
1.5823e-10
1.44697e-10
1.31994e-10
1.20093e-10
1.08967e-10
9.859e-11
8.89361e-11
7.99796e-11
7.1695e-11
6.40569e-11
5.70395e-11
5.0617e-11
4.4763e-11
3.94511e-11
3.46541e-11
3.03449e-11
2.64956e-11
2.30782e-11
2.00648e-11
1.7427e-11
1.51366e-11
1.31656e-11
1.14863e-11
1.00713e-11
8.89389e-12
7.928e-12
7.14836e-12
6.53063e-12
6.05152e-12
5.68891e-12
5.42193e-12
5.23109e-12
5.0984e-12
5.0074e-12
4.94335e-12
4.8932e-12
4.84576e-12
4.79167e-12
4.72345e-12
4.63548e-12
4.52395e-12
4.38678e-12
4.2235e-12
4.03505e-12
3.82363e-12
3.59245e-12
3.34547e-12
3.08721e-12
2.8224e-12
2.55584e-12
2.29214e-12
2.03551e-12
1.78968e-12
1.55773e-12
1.34207e-12
1.1444e-12
9.65737e-13
8.06443e-13
6.66323e-13
5.44694e-13
4.40495e-13
3.52383e-13
2.78829e-13
2.18211e-13
1.68888e-13
1.29263e-13
9.78281e-14
7.32052e-14
5.41597e-14
3.96128e-14
2.86411e-14
2.04696e-14
1.44599e-14
1.00954e-14
6.96554e-15
4.74922e-15
3.19945e-15
2.12926e-15
1.39926e-15
9.07021e-16
5.78311e-16
3.59853e-16
2.13584e-16
1.12066e-16
3.47998e-17
9.41932e-14
2.83787e-13
4.77042e-13
6.76478e-13
8.84694e-13
1.1044e-12
1.33843e-12
1.58979e-12
1.8617e-12
2.15759e-12
2.4812e-12
2.83656e-12
3.22806e-12
3.6605e-12
4.13914e-12
4.66973e-12
5.2586e-12
5.91267e-12
6.63957e-12
7.4477e-12
8.34624e-12
9.34534e-12
1.04561e-11
1.16907e-11
1.30626e-11
1.45865e-11
1.62783e-11
1.81558e-11
2.02381e-11
2.25463e-11
2.51033e-11
2.7934e-11
3.10656e-11
3.45276e-11
3.8352e-11
4.25736e-11
4.72299e-11
5.23614e-11
5.80119e-11
6.42284e-11
7.10614e-11
7.85653e-11
8.6798e-11
9.58216e-11
1.05702e-10
1.1651e-10
1.28319e-10
1.41208e-10
1.55261e-10
1.70565e-10
1.87212e-10
2.05298e-10
2.24923e-10
2.4619e-10
2.69207e-10
2.94085e-10
3.20937e-10
3.49878e-10
3.81027e-10
4.14501e-10
4.5042e-10
4.88901e-10
5.30061e-10
5.74013e-10
6.20867e-10
6.70728e-10
7.23694e-10
7.79854e-10
8.39289e-10
9.02066e-10
9.68242e-10
1.03786e-09
1.11093e-09
1.18748e-09
1.26748e-09
1.35089e-09
1.43765e-09
1.52768e-09
1.62087e-09
1.71706e-09
1.81609e-09
1.91775e-09
2.02182e-09
2.12801e-09
2.23605e-09
2.34559e-09
2.45627e-09
2.56772e-09
2.67951e-09
2.79121e-09
2.90233e-09
3.01241e-09
3.12093e-09
3.22737e-09
3.33122e-09
3.43194e-09
3.52898e-09
3.62184e-09
3.70999e-09
3.79292e-09
3.87015e-09
3.94122e-09
4.00571e-09
4.06322e-09
4.11339e-09
4.15592e-09
4.19054e-09
4.21704e-09
4.23527e-09
4.24511e-09
4.24652e-09
4.23951e-09
4.22414e-09
4.20053e-09
4.16887e-09
4.12938e-09
4.08233e-09
4.02806e-09
3.96692e-09
3.89932e-09
3.82571e-09
3.74653e-09
3.66229e-09
3.57347e-09
3.48062e-09
3.38423e-09
3.28484e-09
3.18298e-09
3.07914e-09
2.97384e-09
2.86755e-09
2.76074e-09
2.65385e-09
2.54729e-09
2.44145e-09
2.33669e-09
2.23333e-09
2.13167e-09
2.03196e-09
1.93445e-09
1.83933e-09
1.74678e-09
1.65692e-09
1.56989e-09
1.48576e-09
1.4046e-09
1.32645e-09
1.25133e-09
1.17924e-09
1.11016e-09
1.04407e-09
9.80912e-10
9.20644e-10
8.63198e-10
8.08502e-10
7.5648e-10
7.07048e-10
6.60121e-10
6.15611e-10
5.7343e-10
5.33487e-10
4.95696e-10
4.59967e-10
4.26216e-10
3.9436e-10
3.64319e-10
3.36014e-10
3.09372e-10
2.84321e-10
2.60794e-10
2.38724e-10
2.1805e-10
1.98714e-10
1.80658e-10
1.63828e-10
1.48172e-10
1.33641e-10
1.20186e-10
1.07759e-10
9.63155e-11
8.58094e-11
7.61966e-11
6.74333e-11
5.94759e-11
5.22814e-11
4.58069e-11
4.00096e-11
3.48473e-11
3.02777e-11
2.62593e-11
2.27507e-11
1.97113e-11
1.71013e-11
1.48815e-11
1.3014e-11
1.14618e-11
1.01894e-11
9.16248e-12
8.34836e-12
7.71595e-12
7.23593e-12
6.8808e-12
6.62504e-12
6.44518e-12
6.31992e-12
6.23018e-12
6.15922e-12
6.09269e-12
6.01864e-12
5.92756e-12
5.8123e-12
5.66807e-12
5.49222e-12
5.28417e-12
5.0451e-12
4.77777e-12
4.48621e-12
4.17539e-12
3.8509e-12
3.51869e-12
3.18472e-12
2.85468e-12
2.53384e-12
2.22676e-12
1.93728e-12
1.66833e-12
1.42199e-12
1.19949e-12
1.00124e-12
8.26948e-13
6.75745e-13
5.46278e-13
4.36853e-13
3.45551e-13
2.70341e-13
2.0917e-13
1.60045e-13
1.2109e-13
9.05878e-14
6.70024e-14
4.89939e-14
3.54156e-14
2.53056e-14
1.78723e-14
1.24753e-14
8.60602e-15
5.8667e-15
3.95163e-15
2.62944e-15
1.72771e-15
1.11979e-15
7.13891e-16
4.44174e-16
2.6361e-16
1.38306e-16
4.2947e-17
1.66928e-13
5.02947e-13
8.45522e-13
1.19916e-12
1.56853e-12
1.95847e-12
2.37407e-12
2.82073e-12
3.30422e-12
3.83071e-12
4.40691e-12
5.04009e-12
5.73815e-12
6.50974e-12
7.36435e-12
8.31237e-12
9.3652e-12
1.05354e-11
1.18368e-11
1.32845e-11
1.48952e-11
1.66873e-11
1.8681e-11
2.08984e-11
2.33639e-11
2.61041e-11
2.91484e-11
3.25286e-11
3.628e-11
4.04407e-11
4.50527e-11
5.01613e-11
5.58163e-11
6.20715e-11
6.89856e-11
7.66219e-11
8.50491e-11
9.43415e-11
1.04579e-10
1.15848e-10
1.28241e-10
1.41858e-10
1.56804e-10
1.73194e-10
1.91149e-10
2.10797e-10
2.32275e-10
2.55728e-10
2.81308e-10
3.09175e-10
3.39499e-10
3.72454e-10
4.08224e-10
4.46999e-10
4.88975e-10
5.34354e-10
5.83344e-10
6.36155e-10
6.93002e-10
7.54098e-10
8.1966e-10
8.899e-10
9.65028e-10
1.04525e-09
1.13075e-09
1.22173e-09
1.31836e-09
1.42078e-09
1.52915e-09
1.64356e-09
1.76411e-09
1.89087e-09
2.02384e-09
2.16304e-09
2.30841e-09
2.45985e-09
2.61724e-09
2.78039e-09
2.94906e-09
3.12296e-09
3.30174e-09
3.485e-09
3.67228e-09
3.86306e-09
4.05675e-09
4.25272e-09
4.45029e-09
4.64869e-09
4.84714e-09
5.0448e-09
5.24078e-09
5.43416e-09
5.62401e-09
5.80936e-09
5.98923e-09
6.16264e-09
6.32861e-09
6.48619e-09
6.63443e-09
6.77244e-09
6.89936e-09
7.01439e-09
7.11679e-09
7.20589e-09
7.28111e-09
7.34195e-09
7.388e-09
7.41897e-09
7.43464e-09
7.43493e-09
7.41984e-09
7.38949e-09
7.34412e-09
7.28404e-09
7.2097e-09
7.1216e-09
7.02037e-09
6.90668e-09
6.78131e-09
6.64507e-09
6.49886e-09
6.34357e-09
6.18018e-09
6.00964e-09
5.83296e-09
5.65111e-09
5.46507e-09
5.27581e-09
5.08427e-09
4.89134e-09
4.69789e-09
4.50474e-09
4.31265e-09
4.12234e-09
3.93445e-09
3.74958e-09
3.56826e-09
3.39097e-09
3.21811e-09
3.05004e-09
2.88703e-09
2.72934e-09
2.57715e-09
2.43058e-09
2.28973e-09
2.15464e-09
2.02532e-09
1.90174e-09
1.78384e-09
1.67153e-09
1.56471e-09
1.46325e-09
1.36701e-09
1.27581e-09
1.18951e-09
1.10791e-09
1.03084e-09
9.58119e-10
8.89556e-10
8.24969e-10
7.64178e-10
7.07002e-10
6.5327e-10
6.02813e-10
5.55469e-10
5.11082e-10
4.69503e-10
4.30589e-10
3.94207e-10
3.60227e-10
3.28528e-10
2.98994e-10
2.71517e-10
2.45992e-10
2.22321e-10
2.00411e-10
1.80173e-10
1.61521e-10
1.44374e-10
1.28653e-10
1.14282e-10
1.01188e-10
8.92978e-11
7.8543e-11
6.88551e-11
6.01675e-11
5.24148e-11
4.55333e-11
3.94604e-11
3.4135e-11
2.94975e-11
2.549e-11
2.2056e-11
1.91411e-11
1.66927e-11
1.46602e-11
1.29954e-11
1.16521e-11
1.05866e-11
9.7578e-12
9.12693e-12
8.65807e-12
8.318e-12
8.07635e-12
7.90567e-12
7.78153e-12
7.68255e-12
7.59049e-12
7.49022e-12
7.3697e-12
7.21998e-12
7.03501e-12
6.81149e-12
6.54867e-12
6.24805e-12
5.91305e-12
5.54866e-12
5.16104e-12
4.75713e-12
4.34424e-12
3.92971e-12
3.52057e-12
3.12325e-12
2.74335e-12
2.38553e-12
2.05338e-12
1.74938e-12
1.47499e-12
1.23067e-12
1.01602e-12
8.29907e-13
6.70643e-13
5.36105e-13
4.23906e-13
3.31526e-13
2.56425e-13
1.96139e-13
1.48354e-13
1.10951e-13
8.20407e-14
5.99743e-14
4.33419e-14
3.09618e-14
2.1862e-14
1.5257e-14
1.05228e-14
7.17202e-15
4.83001e-15
3.21341e-15
2.1111e-15
1.36809e-15
8.72083e-16
5.42542e-16
3.21963e-16
1.68911e-16
5.24489e-17
2.9144e-13
8.78139e-13
1.47641e-12
2.09421e-12
2.73976e-12
3.42163e-12
4.1488e-12
4.93083e-12
5.7779e-12
6.70098e-12
7.71194e-12
8.82366e-12
1.00502e-11
1.14069e-11
1.29107e-11
1.458e-11
1.64351e-11
1.84985e-11
2.07948e-11
2.33509e-11
2.61969e-11
2.93654e-11
3.28926e-11
3.68182e-11
4.11858e-11
4.60432e-11
5.14429e-11
5.74425e-11
6.4105e-11
7.14991e-11
7.97001e-11
8.87899e-11
9.8858e-11
1.10002e-10
1.22326e-10
1.35946e-10
1.50985e-10
1.67578e-10
1.85869e-10
2.06014e-10
2.28181e-10
2.52549e-10
2.79311e-10
3.08672e-10
3.40853e-10
3.76086e-10
4.14619e-10
4.56713e-10
5.02646e-10
5.52707e-10
6.07202e-10
6.66448e-10
7.30778e-10
8.00536e-10
8.76076e-10
9.57764e-10
1.04597e-09
1.14109e-09
1.24349e-09
1.35356e-09
1.47169e-09
1.59827e-09
1.73366e-09
1.87824e-09
2.03233e-09
2.19628e-09
2.37038e-09
2.5549e-09
2.75008e-09
2.95609e-09
3.17309e-09
3.40115e-09
3.64031e-09
3.89052e-09
4.15165e-09
4.42352e-09
4.70584e-09
4.99822e-09
5.30021e-09
5.61122e-09
5.93058e-09
6.25751e-09
6.59112e-09
6.9304e-09
7.27427e-09
7.6215e-09
7.97079e-09
8.32073e-09
8.66983e-09
9.01653e-09
9.35917e-09
9.69606e-09
1.00255e-08
1.03456e-08
1.06547e-08
1.0951e-08
1.12326e-08
1.1498e-08
1.17453e-08
1.19731e-08
1.21798e-08
1.2364e-08
1.25245e-08
1.26602e-08
1.27701e-08
1.28534e-08
1.29096e-08
1.29382e-08
1.2939e-08
1.29119e-08
1.28573e-08
1.27755e-08
1.2667e-08
1.25326e-08
1.23733e-08
1.21902e-08
1.19845e-08
1.17576e-08
1.15112e-08
1.12467e-08
1.09659e-08
1.06706e-08
1.03626e-08
1.00437e-08
9.71573e-09
9.38052e-09
9.03987e-09
8.6955e-09
8.34911e-09
8.00227e-09
7.65651e-09
7.31323e-09
6.97374e-09
6.63923e-09
6.31079e-09
5.98938e-09
5.67585e-09
5.37092e-09
5.07521e-09
4.78922e-09
4.51336e-09
4.24793e-09
3.99313e-09
3.74909e-09
3.51584e-09