/*--------------------------------*- C++ -*----------------------------------*\
| =========                 |                                                 |
| \\      /  F ield         | OpenFOAM: The Open Source CFD Toolbox           |
|  \\    /   O peration     | Version:  v2012                                 |
|   \\  /    A nd           | Website:  www.openfoam.com                      |
|    \\/     M anipulation  |                                                 |
\*---------------------------------------------------------------------------*/
FoamFile
{
    version     2.0;
    format      ascii;
    class       volVectorField;
    location    "16.9";
    object      Psi;
}
// * * * * * * * * * * * * * * * * * * * * * * * * * * * * * * * * * * * * * //

dimensions      [0 2 -1 0 0 0 0];


internalField   nonuniform List<vector> 
65536
(
(0 0 8.25922e-06)
(0 0 2.47782e-05)
(0 0 4.12986e-05)
(0 0 5.78211e-05)
(0 0 7.43467e-05)
(0 0 9.08763e-05)
(0 0 0.000107411)
(0 0 0.000123951)
(0 0 0.000140497)
(0 0 0.000157051)
(0 0 0.000173613)
(0 0 0.000190184)
(0 0 0.000206765)
(0 0 0.000223356)
(0 0 0.000239958)
(0 0 0.000256572)
(0 0 0.000273199)
(0 0 0.000289838)
(0 0 0.000306491)
(0 0 0.000323159)
(0 0 0.000339841)
(0 0 0.000356539)
(0 0 0.000373252)
(0 0 0.000389981)
(0 0 0.000406727)
(0 0 0.000423489)
(0 0 0.000440268)
(0 0 0.000457064)
(0 0 0.000473877)
(0 0 0.000490707)
(0 0 0.000507555)
(0 0 0.000524419)
(0 0 0.000541301)
(0 0 0.000558199)
(0 0 0.000575113)
(0 0 0.000592043)
(0 0 0.000608989)
(0 0 0.000625949)
(0 0 0.000642923)
(0 0 0.000659911)
(0 0 0.000676911)
(0 0 0.000693923)
(0 0 0.000710945)
(0 0 0.000727976)
(0 0 0.000745015)
(0 0 0.000762061)
(0 0 0.000779112)
(0 0 0.000796165)
(0 0 0.000813221)
(0 0 0.000830275)
(0 0 0.000847328)
(0 0 0.000864375)
(0 0 0.000881416)
(0 0 0.000898446)
(0 0 0.000915465)
(0 0 0.000932468)
(0 0 0.000949454)
(0 0 0.000966419)
(0 0 0.000983359)
(0 0 0.00100027)
(0 0 0.00101715)
(0 0 0.001034)
(0 0 0.00105081)
(0 0 0.00106757)
(0 0 0.00108429)
(0 0 0.00110095)
(0 0 0.00111756)
(0 0 0.00113411)
(0 0 0.00115059)
(0 0 0.001167)
(0 0 0.00118333)
(0 0 0.00119958)
(0 0 0.00121574)
(0 0 0.00123181)
(0 0 0.00124778)
(0 0 0.00126364)
(0 0 0.00127939)
(0 0 0.00129503)
(0 0 0.00131053)
(0 0 0.00132591)
(0 0 0.00134114)
(0 0 0.00135623)
(0 0 0.00137117)
(0 0 0.00138594)
(0 0 0.00140055)
(0 0 0.00141498)
(0 0 0.00142923)
(0 0 0.00144328)
(0 0 0.00145714)
(0 0 0.00147079)
(0 0 0.00148423)
(0 0 0.00149744)
(0 0 0.00151042)
(0 0 0.00152316)
(0 0 0.00153565)
(0 0 0.00154789)
(0 0 0.00155986)
(0 0 0.00157157)
(0 0 0.00158299)
(0 0 0.00159412)
(0 0 0.00160496)
(0 0 0.0016155)
(0 0 0.00162572)
(0 0 0.00163563)
(0 0 0.0016452)
(0 0 0.00165445)
(0 0 0.00166335)
(0 0 0.00167191)
(0 0 0.00168011)
(0 0 0.00168795)
(0 0 0.00169542)
(0 0 0.00170252)
(0 0 0.00170924)
(0 0 0.00171557)
(0 0 0.00172152)
(0 0 0.00172707)
(0 0 0.00173222)
(0 0 0.00173696)
(0 0 0.0017413)
(0 0 0.00174522)
(0 0 0.00174873)
(0 0 0.00175182)
(0 0 0.00175449)
(0 0 0.00175673)
(0 0 0.00175855)
(0 0 0.00175995)
(0 0 0.00176091)
(0 0 0.00176145)
(0 0 0.00176156)
(0 0 0.00176124)
(0 0 0.0017605)
(0 0 0.00175932)
(0 0 0.00175772)
(0 0 0.0017557)
(0 0 0.00175325)
(0 0 0.00175038)
(0 0 0.0017471)
(0 0 0.0017434)
(0 0 0.00173929)
(0 0 0.00173477)
(0 0 0.00172985)
(0 0 0.00172453)
(0 0 0.00171882)
(0 0 0.00171272)
(0 0 0.00170624)
(0 0 0.00169937)
(0 0 0.00169214)
(0 0 0.00168453)
(0 0 0.00167657)
(0 0 0.00166826)
(0 0 0.00165959)
(0 0 0.00165059)
(0 0 0.00164125)
(0 0 0.00163159)
(0 0 0.00162161)
(0 0 0.00161131)
(0 0 0.00160072)
(0 0 0.00158982)
(0 0 0.00157864)
(0 0 0.00156718)
(0 0 0.00155544)
(0 0 0.00154343)
(0 0 0.00153117)
(0 0 0.00151866)
(0 0 0.00150591)
(0 0 0.00149292)
(0 0 0.00147971)
(0 0 0.00146627)
(0 0 0.00145263)
(0 0 0.00143878)
(0 0 0.00142473)
(0 0 0.0014105)
(0 0 0.00139608)
(0 0 0.00138149)
(0 0 0.00136674)
(0 0 0.00135182)
(0 0 0.00133675)
(0 0 0.00132154)
(0 0 0.00130618)
(0 0 0.00129069)
(0 0 0.00127508)
(0 0 0.00125934)
(0 0 0.00124349)
(0 0 0.00122754)
(0 0 0.00121148)
(0 0 0.00119532)
(0 0 0.00117907)
(0 0 0.00116274)
(0 0 0.00114632)
(0 0 0.00112983)
(0 0 0.00111327)
(0 0 0.00109665)
(0 0 0.00107996)
(0 0 0.00106321)
(0 0 0.00104642)
(0 0 0.00102957)
(0 0 0.00101268)
(0 0 0.00099575)
(0 0 0.000978782)
(0 0 0.00096178)
(0 0 0.000944748)
(0 0 0.000927688)
(0 0 0.000910604)
(0 0 0.0008935)
(0 0 0.000876376)
(0 0 0.000859237)
(0 0 0.000842084)
(0 0 0.000824921)
(0 0 0.000807749)
(0 0 0.00079057)
(0 0 0.000773386)
(0 0 0.000756199)
(0 0 0.000739012)
(0 0 0.000721824)
(0 0 0.000704639)
(0 0 0.000687457)
(0 0 0.00067028)
(0 0 0.000653108)
(0 0 0.000635944)
(0 0 0.000618787)
(0 0 0.000601639)
(0 0 0.0005845)
(0 0 0.000567372)
(0 0 0.000550254)
(0 0 0.000533148)
(0 0 0.000516054)
(0 0 0.000498972)
(0 0 0.000481902)
(0 0 0.000464845)
(0 0 0.000447801)
(0 0 0.00043077)
(0 0 0.000413752)
(0 0 0.000396747)
(0 0 0.000379754)
(0 0 0.000362774)
(0 0 0.000345807)
(0 0 0.000328852)
(0 0 0.000311909)
(0 0 0.000294978)
(0 0 0.000278057)
(0 0 0.000261148)
(0 0 0.000244248)
(0 0 0.000227359)
(0 0 0.000210479)
(0 0 0.000193607)
(0 0 0.000176744)
(0 0 0.000159888)
(0 0 0.000143039)
(0 0 0.000126196)
(0 0 0.000109359)
(0 0 9.2526e-05)
(0 0 7.56975e-05)
(0 0 5.88723e-05)
(0 0 4.20498e-05)
(0 0 2.52291e-05)
(0 0 8.40959e-06)
(0 0 2.47774e-05)
(0 0 7.43337e-05)
(0 0 0.000123894)
(0 0 0.000173461)
(0 0 0.000223037)
(0 0 0.000272625)
(0 0 0.000322227)
(0 0 0.000371847)
(0 0 0.000421486)
(0 0 0.000471147)
(0 0 0.000520832)
(0 0 0.000570545)
(0 0 0.000620286)
(0 0 0.000670058)
(0 0 0.000719864)
(0 0 0.000769706)
(0 0 0.000819585)
(0 0 0.000869503)
(0 0 0.000919462)
(0 0 0.000969464)
(0 0 0.00101951)
(0 0 0.0010696)
(0 0 0.00111974)
(0 0 0.00116993)
(0 0 0.00122017)
(0 0 0.00127045)
(0 0 0.00132079)
(0 0 0.00137118)
(0 0 0.00142162)
(0 0 0.00147211)
(0 0 0.00152265)
(0 0 0.00157325)
(0 0 0.00162389)
(0 0 0.00167458)
(0 0 0.00172533)
(0 0 0.00177612)
(0 0 0.00182696)
(0 0 0.00187784)
(0 0 0.00192876)
(0 0 0.00197973)
(0 0 0.00203073)
(0 0 0.00208176)
(0 0 0.00213283)
(0 0 0.00218393)
(0 0 0.00223504)
(0 0 0.00228618)
(0 0 0.00233734)
(0 0 0.0023885)
(0 0 0.00243967)
(0 0 0.00249083)
(0 0 0.00254199)
(0 0 0.00259314)
(0 0 0.00264426)
(0 0 0.00269536)
(0 0 0.00274642)
(0 0 0.00279743)
(0 0 0.00284839)
(0 0 0.00289929)
(0 0 0.00295011)
(0 0 0.00300085)
(0 0 0.0030515)
(0 0 0.00310204)
(0 0 0.00315247)
(0 0 0.00320276)
(0 0 0.00325291)
(0 0 0.00330291)
(0 0 0.00335274)
(0 0 0.00340239)
(0 0 0.00345184)
(0 0 0.00350107)
(0 0 0.00355007)
(0 0 0.00359883)
(0 0 0.00364732)
(0 0 0.00369553)
(0 0 0.00374345)
(0 0 0.00379104)
(0 0 0.0038383)
(0 0 0.00388521)
(0 0 0.00393173)
(0 0 0.00397787)
(0 0 0.00402358)
(0 0 0.00406885)
(0 0 0.00411367)
(0 0 0.004158)
(0 0 0.00420183)
(0 0 0.00424513)
(0 0 0.00428788)
(0 0 0.00433006)
(0 0 0.00437164)
(0 0 0.00441259)
(0 0 0.00445291)
(0 0 0.00449255)
(0 0 0.0045315)
(0 0 0.00456973)
(0 0 0.00460722)
(0 0 0.00464394)
(0 0 0.00467987)
(0 0 0.00471498)
(0 0 0.00474926)
(0 0 0.00478267)
(0 0 0.00481519)
(0 0 0.00484681)
(0 0 0.00487749)
(0 0 0.00490721)
(0 0 0.00493595)
(0 0 0.00496369)
(0 0 0.00499041)
(0 0 0.00501608)
(0 0 0.00504069)
(0 0 0.00506422)
(0 0 0.00508664)
(0 0 0.00510795)
(0 0 0.00512811)
(0 0 0.00514712)
(0 0 0.00516495)
(0 0 0.0051816)
(0 0 0.00519705)
(0 0 0.00521129)
(0 0 0.0052243)
(0 0 0.00523608)
(0 0 0.0052466)
(0 0 0.00525588)
(0 0 0.00526389)
(0 0 0.00527063)
(0 0 0.00527609)
(0 0 0.00528027)
(0 0 0.00528317)
(0 0 0.00528479)
(0 0 0.00528512)
(0 0 0.00528416)
(0 0 0.00528192)
(0 0 0.00527839)
(0 0 0.00527359)
(0 0 0.00526751)
(0 0 0.00526017)
(0 0 0.00525157)
(0 0 0.00524171)
(0 0 0.00523061)
(0 0 0.00521828)
(0 0 0.00520472)
(0 0 0.00518996)
(0 0 0.005174)
(0 0 0.00515685)
(0 0 0.00513855)
(0 0 0.00511908)
(0 0 0.00509849)
(0 0 0.00507677)
(0 0 0.00505396)
(0 0 0.00503007)
(0 0 0.00500511)
(0 0 0.00497912)
(0 0 0.0049521)
(0 0 0.00492408)
(0 0 0.00489509)
(0 0 0.00486513)
(0 0 0.00483424)
(0 0 0.00480244)
(0 0 0.00476975)
(0 0 0.0047362)
(0 0 0.0047018)
(0 0 0.00466658)
(0 0 0.00463056)
(0 0 0.00459377)
(0 0 0.00455623)
(0 0 0.00451796)
(0 0 0.00447899)
(0 0 0.00443934)
(0 0 0.00439903)
(0 0 0.00435808)
(0 0 0.00431653)
(0 0 0.00427439)
(0 0 0.00423168)
(0 0 0.00418842)
(0 0 0.00414465)
(0 0 0.00410037)
(0 0 0.00405562)
(0 0 0.0040104)
(0 0 0.00396475)
(0 0 0.00391867)
(0 0 0.0038722)
(0 0 0.00382535)
(0 0 0.00377814)
(0 0 0.00373058)
(0 0 0.00368271)
(0 0 0.00363452)
(0 0 0.00358604)
(0 0 0.0035373)
(0 0 0.00348829)
(0 0 0.00343904)
(0 0 0.00338957)
(0 0 0.00333988)
(0 0 0.00329)
(0 0 0.00323993)
(0 0 0.00318969)
(0 0 0.0031393)
(0 0 0.00308876)
(0 0 0.00303808)
(0 0 0.00298728)
(0 0 0.00293638)
(0 0 0.00288537)
(0 0 0.00283427)
(0 0 0.00278308)
(0 0 0.00273183)
(0 0 0.00268051)
(0 0 0.00262914)
(0 0 0.00257772)
(0 0 0.00252626)
(0 0 0.00247477)
(0 0 0.00242325)
(0 0 0.00237171)
(0 0 0.00232016)
(0 0 0.0022686)
(0 0 0.00221703)
(0 0 0.00216547)
(0 0 0.00211391)
(0 0 0.00206236)
(0 0 0.00201083)
(0 0 0.00195931)
(0 0 0.00190782)
(0 0 0.00185635)
(0 0 0.0018049)
(0 0 0.00175349)
(0 0 0.0017021)
(0 0 0.00165075)
(0 0 0.00159943)
(0 0 0.00154815)
(0 0 0.0014969)
(0 0 0.00144569)
(0 0 0.00139452)
(0 0 0.00134339)
(0 0 0.00129229)
(0 0 0.00124124)
(0 0 0.00119022)
(0 0 0.00113925)
(0 0 0.00108831)
(0 0 0.00103741)
(0 0 0.000986543)
(0 0 0.000935714)
(0 0 0.00088492)
(0 0 0.000834159)
(0 0 0.000783431)
(0 0 0.000732734)
(0 0 0.000682066)
(0 0 0.000631427)
(0 0 0.000580813)
(0 0 0.000530223)
(0 0 0.000479656)
(0 0 0.00042911)
(0 0 0.000378582)
(0 0 0.000328071)
(0 0 0.000277574)
(0 0 0.000227089)
(0 0 0.000176614)
(0 0 0.000126147)
(0 0 7.56862e-05)
(0 0 2.52284e-05)
(0 0 4.12943e-05)
(0 0 0.000123885)
(0 0 0.000206483)
(0 0 0.000289091)
(0 0 0.000371715)
(0 0 0.000454359)
(0 0 0.000537027)
(0 0 0.000619723)
(0 0 0.000702452)
(0 0 0.000785218)
(0 0 0.000868025)
(0 0 0.000950876)
(0 0 0.00103378)
(0 0 0.00111673)
(0 0 0.00119973)
(0 0 0.0012828)
(0 0 0.00136593)
(0 0 0.00144913)
(0 0 0.00153239)
(0 0 0.00161573)
(0 0 0.00169913)
(0 0 0.00178262)
(0 0 0.00186618)
(0 0 0.00194983)
(0 0 0.00203356)
(0 0 0.00211737)
(0 0 0.00220126)
(0 0 0.00228524)
(0 0 0.00236931)
(0 0 0.00245346)
(0 0 0.0025377)
(0 0 0.00262202)
(0 0 0.00270643)
(0 0 0.00279092)
(0 0 0.00287549)
(0 0 0.00296015)
(0 0 0.00304488)
(0 0 0.00312968)
(0 0 0.00321456)
(0 0 0.0032995)
(0 0 0.00338451)
(0 0 0.00346957)
(0 0 0.00355469)
(0 0 0.00363985)
(0 0 0.00372505)
(0 0 0.00381029)
(0 0 0.00389555)
(0 0 0.00398083)
(0 0 0.00406612)
(0 0 0.0041514)
(0 0 0.00423667)
(0 0 0.00432192)
(0 0 0.00440714)
(0 0 0.0044923)
(0 0 0.00457741)
(0 0 0.00466244)
(0 0 0.00474739)
(0 0 0.00483223)
(0 0 0.00491694)
(0 0 0.00500152)
(0 0 0.00508595)
(0 0 0.0051702)
(0 0 0.00525425)
(0 0 0.00533809)
(0 0 0.0054217)
(0 0 0.00550504)
(0 0 0.00558811)
(0 0 0.00567087)
(0 0 0.0057533)
(0 0 0.00583537)
(0 0 0.00591706)
(0 0 0.00599834)
(0 0 0.00607918)
(0 0 0.00615956)
(0 0 0.00623943)
(0 0 0.00631878)
(0 0 0.00639757)
(0 0 0.00647576)
(0 0 0.00655333)
(0 0 0.00663024)
(0 0 0.00670645)
(0 0 0.00678194)
(0 0 0.00685665)
(0 0 0.00693057)
(0 0 0.00700364)
(0 0 0.00707583)
(0 0 0.00714711)
(0 0 0.00721743)
(0 0 0.00728675)
(0 0 0.00735504)
(0 0 0.00742226)
(0 0 0.00748835)
(0 0 0.0075533)
(0 0 0.00761704)
(0 0 0.00767955)
(0 0 0.00774078)
(0 0 0.00780069)
(0 0 0.00785924)
(0 0 0.00791639)
(0 0 0.0079721)
(0 0 0.00802634)
(0 0 0.00807905)
(0 0 0.00813021)
(0 0 0.00817977)
(0 0 0.0082277)
(0 0 0.00827396)
(0 0 0.00831851)
(0 0 0.00836132)
(0 0 0.00840236)
(0 0 0.00844159)
(0 0 0.00847899)
(0 0 0.00851451)
(0 0 0.00854813)
(0 0 0.00857983)
(0 0 0.00860957)
(0 0 0.00863734)
(0 0 0.00866311)
(0 0 0.00868685)
(0 0 0.00870854)
(0 0 0.00872818)
(0 0 0.00874574)
(0 0 0.0087612)
(0 0 0.00877455)
(0 0 0.00878579)
(0 0 0.0087949)
(0 0 0.00880188)
(0 0 0.00880672)
(0 0 0.00880941)
(0 0 0.00880996)
(0 0 0.00880836)
(0 0 0.00880462)
(0 0 0.00879874)
(0 0 0.00879073)
(0 0 0.0087806)
(0 0 0.00876835)
(0 0 0.008754)
(0 0 0.00873756)
(0 0 0.00871905)
(0 0 0.00869848)
(0 0 0.00867588)
(0 0 0.00865126)
(0 0 0.00862464)
(0 0 0.00859605)
(0 0 0.00856552)
(0 0 0.00853307)
(0 0 0.00849872)
(0 0 0.00846251)
(0 0 0.00842447)
(0 0 0.00838463)
(0 0 0.00834301)
(0 0 0.00829966)
(0 0 0.00825461)
(0 0 0.00820789)
(0 0 0.00815954)
(0 0 0.00810959)
(0 0 0.00805809)
(0 0 0.00800506)
(0 0 0.00795055)
(0 0 0.0078946)
(0 0 0.00783724)
(0 0 0.00777851)
(0 0 0.00771846)
(0 0 0.00765711)
(0 0 0.00759452)
(0 0 0.00753071)
(0 0 0.00746573)
(0 0 0.00739962)
(0 0 0.00733241)
(0 0 0.00726415)
(0 0 0.00719487)
(0 0 0.00712461)
(0 0 0.0070534)
(0 0 0.00698129)
(0 0 0.0069083)
(0 0 0.00683449)
(0 0 0.00675987)
(0 0 0.00668449)
(0 0 0.00660837)
(0 0 0.00653156)
(0 0 0.00645409)
(0 0 0.00637598)
(0 0 0.00629728)
(0 0 0.006218)
(0 0 0.00613818)
(0 0 0.00605785)
(0 0 0.00597704)
(0 0 0.00589578)
(0 0 0.00581408)
(0 0 0.00573199)
(0 0 0.00564951)
(0 0 0.00556669)
(0 0 0.00548353)
(0 0 0.00540007)
(0 0 0.00531633)
(0 0 0.00523232)
(0 0 0.00514808)
(0 0 0.0050636)
(0 0 0.00497893)
(0 0 0.00489407)
(0 0 0.00480904)
(0 0 0.00472387)
(0 0 0.00463855)
(0 0 0.00455312)
(0 0 0.00446758)
(0 0 0.00438195)
(0 0 0.00429625)
(0 0 0.00421047)
(0 0 0.00412464)
(0 0 0.00403877)
(0 0 0.00395287)
(0 0 0.00386694)
(0 0 0.003781)
(0 0 0.00369505)
(0 0 0.00360911)
(0 0 0.00352317)
(0 0 0.00343726)
(0 0 0.00335136)
(0 0 0.0032655)
(0 0 0.00317967)
(0 0 0.00309388)
(0 0 0.00300814)
(0 0 0.00292244)
(0 0 0.0028368)
(0 0 0.00275121)
(0 0 0.00266568)
(0 0 0.0025802)
(0 0 0.00249479)
(0 0 0.00240944)
(0 0 0.00232416)
(0 0 0.00223894)
(0 0 0.00215378)
(0 0 0.00206869)
(0 0 0.00198366)
(0 0 0.0018987)
(0 0 0.00181381)
(0 0 0.00172897)
(0 0 0.0016442)
(0 0 0.00155948)
(0 0 0.00147483)
(0 0 0.00139023)
(0 0 0.00130568)
(0 0 0.00122119)
(0 0 0.00113675)
(0 0 0.00105235)
(0 0 0.000967994)
(0 0 0.00088368)
(0 0 0.000799404)
(0 0 0.000715162)
(0 0 0.000630951)
(0 0 0.000546768)
(0 0 0.000462609)
(0 0 0.00037847)
(0 0 0.000294348)
(0 0 0.000210239)
(0 0 0.00012614)
(0 0 4.2046e-05)
(0 0 5.78089e-05)
(0 0 0.00017343)
(0 0 0.00028906)
(0 0 0.000404706)
(0 0 0.000520374)
(0 0 0.000636069)
(0 0 0.000751798)
(0 0 0.000867567)
(0 0 0.000983382)
(0 0 0.00109925)
(0 0 0.00121517)
(0 0 0.00133116)
(0 0 0.00144721)
(0 0 0.00156334)
(0 0 0.00167955)
(0 0 0.00179583)
(0 0 0.00191221)
(0 0 0.00202868)
(0 0 0.00214525)
(0 0 0.00226191)
(0 0 0.00237868)
(0 0 0.00249556)
(0 0 0.00261255)
(0 0 0.00272965)
(0 0 0.00284686)
(0 0 0.00296419)
(0 0 0.00308164)
(0 0 0.00319922)
(0 0 0.00331691)
(0 0 0.00343472)
(0 0 0.00355266)
(0 0 0.00367071)
(0 0 0.00378888)
(0 0 0.00390717)
(0 0 0.00402558)
(0 0 0.0041441)
(0 0 0.00426272)
(0 0 0.00438146)
(0 0 0.00450029)
(0 0 0.00461921)
(0 0 0.00473823)
(0 0 0.00485733)
(0 0 0.0049765)
(0 0 0.00509574)
(0 0 0.00521503)
(0 0 0.00533437)
(0 0 0.00545375)
(0 0 0.00557315)
(0 0 0.00569256)
(0 0 0.00581198)
(0 0 0.00593137)
(0 0 0.00605074)
(0 0 0.00617006)
(0 0 0.00628931)
(0 0 0.00640848)
(0 0 0.00652754)
(0 0 0.00664649)
(0 0 0.00676528)
(0 0 0.00688391)
(0 0 0.00700235)
(0 0 0.00712057)
(0 0 0.00723855)
(0 0 0.00735625)
(0 0 0.00747366)
(0 0 0.00759074)
(0 0 0.00770746)
(0 0 0.00782378)
(0 0 0.00793968)
(0 0 0.00805511)
(0 0 0.00817005)
(0 0 0.00828446)
(0 0 0.00839829)
(0 0 0.00851151)
(0 0 0.00862408)
(0 0 0.00873595)
(0 0 0.00884708)
(0 0 0.00895743)
(0 0 0.00906694)
(0 0 0.00917559)
(0 0 0.00928331)
(0 0 0.00939006)
(0 0 0.00949578)
(0 0 0.00960044)
(0 0 0.00970397)
(0 0 0.00980632)
(0 0 0.00990745)
(0 0 0.0100073)
(0 0 0.0101058)
(0 0 0.0102029)
(0 0 0.0102986)
(0 0 0.0103927)
(0 0 0.0104853)
(0 0 0.0105763)
(0 0 0.0106656)
(0 0 0.0107532)
(0 0 0.0108389)
(0 0 0.0109229)
(0 0 0.0110049)
(0 0 0.011085)
(0 0 0.011163)
(0 0 0.011239)
(0 0 0.0113129)
(0 0 0.0113845)
(0 0 0.011454)
(0 0 0.0115211)
(0 0 0.0115859)
(0 0 0.0116484)
(0 0 0.0117083)
(0 0 0.0117658)
(0 0 0.0118208)
(0 0 0.0118732)
(0 0 0.011923)
(0 0 0.0119701)
(0 0 0.0120145)
(0 0 0.0120562)
(0 0 0.0120951)
(0 0 0.0121312)
(0 0 0.0121644)
(0 0 0.0121948)
(0 0 0.0122224)
(0 0 0.012247)
(0 0 0.0122686)
(0 0 0.0122873)
(0 0 0.0123031)
(0 0 0.0123159)
(0 0 0.0123256)
(0 0 0.0123324)
(0 0 0.0123362)
(0 0 0.0123369)
(0 0 0.0123347)
(0 0 0.0123295)
(0 0 0.0123212)
(0 0 0.01231)
(0 0 0.0122958)
(0 0 0.0122786)
(0 0 0.0122585)
(0 0 0.0122355)
(0 0 0.0122096)
(0 0 0.0121807)
(0 0 0.0121491)
(0 0 0.0121146)
(0 0 0.0120773)
(0 0 0.0120372)
(0 0 0.0119944)
(0 0 0.0119489)
(0 0 0.0119008)
(0 0 0.0118501)
(0 0 0.0117968)
(0 0 0.011741)
(0 0 0.0116826)
(0 0 0.0116219)
(0 0 0.0115588)
(0 0 0.0114933)
(0 0 0.0114256)
(0 0 0.0113556)
(0 0 0.0112835)
(0 0 0.0112092)
(0 0 0.0111328)
(0 0 0.0110544)
(0 0 0.0109741)
(0 0 0.0108918)
(0 0 0.0108076)
(0 0 0.0107217)
(0 0 0.010634)
(0 0 0.0105446)
(0 0 0.0104536)
(0 0 0.010361)
(0 0 0.0102669)
(0 0 0.0101712)
(0 0 0.0100742)
(0 0 0.00997577)
(0 0 0.00987603)
(0 0 0.00977502)
(0 0 0.00967279)
(0 0 0.0095694)
(0 0 0.00946489)
(0 0 0.0093593)
(0 0 0.0092527)
(0 0 0.00914512)
(0 0 0.00903661)
(0 0 0.00892722)
(0 0 0.00881699)
(0 0 0.00870596)
(0 0 0.00859417)
(0 0 0.00848167)
(0 0 0.0083685)
(0 0 0.00825469)
(0 0 0.00814028)
(0 0 0.00802531)
(0 0 0.00790981)
(0 0 0.00779383)
(0 0 0.00767738)
(0 0 0.0075605)
(0 0 0.00744323)
(0 0 0.00732559)
(0 0 0.00720762)
(0 0 0.00708933)
(0 0 0.00697076)
(0 0 0.00685194)
(0 0 0.00673288)
(0 0 0.0066136)
(0 0 0.00649414)
(0 0 0.00637452)
(0 0 0.00625475)
(0 0 0.00613485)
(0 0 0.00601484)
(0 0 0.00589474)
(0 0 0.00577456)
(0 0 0.00565432)
(0 0 0.00553404)
(0 0 0.00541373)
(0 0 0.0052934)
(0 0 0.00517307)
(0 0 0.00505273)
(0 0 0.00493242)
(0 0 0.00481213)
(0 0 0.00469187)
(0 0 0.00457165)
(0 0 0.00445149)
(0 0 0.00433138)
(0 0 0.00421133)
(0 0 0.00409135)
(0 0 0.00397144)
(0 0 0.00385161)
(0 0 0.00373187)
(0 0 0.0036122)
(0 0 0.00349262)
(0 0 0.00337313)
(0 0 0.00325373)
(0 0 0.00313442)
(0 0 0.0030152)
(0 0 0.00289608)
(0 0 0.00277704)
(0 0 0.0026581)
(0 0 0.00253924)
(0 0 0.00242047)
(0 0 0.00230179)
(0 0 0.0021832)
(0 0 0.00206468)
(0 0 0.00194625)
(0 0 0.00182789)
(0 0 0.0017096)
(0 0 0.00159138)
(0 0 0.00147323)
(0 0 0.00135513)
(0 0 0.0012371)
(0 0 0.00111912)
(0 0 0.00100118)
(0 0 0.000883294)
(0 0 0.000765442)
(0 0 0.000647624)
(0 0 0.000529835)
(0 0 0.000412069)
(0 0 0.000294322)
(0 0 0.000176588)
(0 0 5.88618e-05)
(0 0 7.43203e-05)
(0 0 0.000222965)
(0 0 0.000371622)
(0 0 0.000520299)
(0 0 0.000669004)
(0 0 0.000817744)
(0 0 0.000966529)
(0 0 0.00111536)
(0 0 0.00126426)
(0 0 0.00141322)
(0 0 0.00156226)
(0 0 0.00171137)
(0 0 0.00186057)
(0 0 0.00200987)
(0 0 0.00215927)
(0 0 0.00230878)
(0 0 0.0024584)
(0 0 0.00260814)
(0 0 0.002758)
(0 0 0.00290799)
(0 0 0.00305812)
(0 0 0.00320838)
(0 0 0.00335879)
(0 0 0.00350935)
(0 0 0.00366005)
(0 0 0.0038109)
(0 0 0.00396191)
(0 0 0.00411307)
(0 0 0.00426439)
(0 0 0.00441586)
(0 0 0.00456749)
(0 0 0.00471928)
(0 0 0.00487122)
(0 0 0.00502331)
(0 0 0.00517555)
(0 0 0.00532794)
(0 0 0.00548046)
(0 0 0.00563313)
(0 0 0.00578592)
(0 0 0.00593884)
(0 0 0.00609187)
(0 0 0.00624501)
(0 0 0.00639824)
(0 0 0.00655156)
(0 0 0.00670496)
(0 0 0.00685841)
(0 0 0.00701192)
(0 0 0.00716546)
(0 0 0.00731901)
(0 0 0.00747257)
(0 0 0.0076261)
(0 0 0.0077796)
(0 0 0.00793304)
(0 0 0.00808639)
(0 0 0.00823965)
(0 0 0.00839277)
(0 0 0.00854573)
(0 0 0.00869851)
(0 0 0.00885107)
(0 0 0.00900339)
(0 0 0.00915544)
(0 0 0.00930717)
(0 0 0.00945855)
(0 0 0.00960956)
(0 0 0.00976014)
(0 0 0.00991026)
(0 0 0.0100599)
(0 0 0.0102089)
(0 0 0.0103574)
(0 0 0.0105053)
(0 0 0.0106524)
(0 0 0.0107989)
(0 0 0.0109445)
(0 0 0.0110893)
(0 0 0.0112332)
(0 0 0.0113762)
(0 0 0.0115181)
(0 0 0.011659)
(0 0 0.0117988)
(0 0 0.0119373)
(0 0 0.0120747)
(0 0 0.0122107)
(0 0 0.0123453)
(0 0 0.0124785)
(0 0 0.0126102)
(0 0 0.0127403)
(0 0 0.0128688)
(0 0 0.0129955)
(0 0 0.0131205)
(0 0 0.0132436)
(0 0 0.0133647)
(0 0 0.0134839)
(0 0 0.013601)
(0 0 0.0137159)
(0 0 0.0138286)
(0 0 0.0139389)
(0 0 0.0140469)
(0 0 0.0141525)
(0 0 0.0142556)
(0 0 0.014356)
(0 0 0.0144538)
(0 0 0.0145488)
(0 0 0.0146411)
(0 0 0.0147304)
(0 0 0.0148169)
(0 0 0.0149003)
(0 0 0.0149806)
(0 0 0.0150578)
(0 0 0.0151318)
(0 0 0.0152026)
(0 0 0.01527)
(0 0 0.0153341)
(0 0 0.0153947)
(0 0 0.0154519)
(0 0 0.0155055)
(0 0 0.0155556)
(0 0 0.0156021)
(0 0 0.0156449)
(0 0 0.015684)
(0 0 0.0157195)
(0 0 0.0157511)
(0 0 0.015779)
(0 0 0.0158031)
(0 0 0.0158234)
(0 0 0.0158398)
(0 0 0.0158524)
(0 0 0.0158611)
(0 0 0.0158659)
(0 0 0.0158669)
(0 0 0.015864)
(0 0 0.0158573)
(0 0 0.0158467)
(0 0 0.0158322)
(0 0 0.015814)
(0 0 0.0157919)
(0 0 0.015766)
(0 0 0.0157363)
(0 0 0.0157029)
(0 0 0.0156658)
(0 0 0.0156251)
(0 0 0.0155806)
(0 0 0.0155326)
(0 0 0.0154811)
(0 0 0.015426)
(0 0 0.0153675)
(0 0 0.0153055)
(0 0 0.0152402)
(0 0 0.0151716)
(0 0 0.0150998)
(0 0 0.0150247)
(0 0 0.0149465)
(0 0 0.0148653)
(0 0 0.0147811)
(0 0 0.0146939)
(0 0 0.0146038)
(0 0 0.0145109)
(0 0 0.0144153)
(0 0 0.0143171)
(0 0 0.0142162)
(0 0 0.0141128)
(0 0 0.0140069)
(0 0 0.0138986)
(0 0 0.0137881)
(0 0 0.0136752)
(0 0 0.0135602)
(0 0 0.0134431)
(0 0 0.0133239)
(0 0 0.0132028)
(0 0 0.0130798)
(0 0 0.0129549)
(0 0 0.0128283)
(0 0 0.0126999)
(0 0 0.01257)
(0 0 0.0124385)
(0 0 0.0123054)
(0 0 0.012171)
(0 0 0.0120351)
(0 0 0.011898)
(0 0 0.0117596)
(0 0 0.01162)
(0 0 0.0114793)
(0 0 0.0113375)
(0 0 0.0111947)
(0 0 0.0110509)
(0 0 0.0109062)
(0 0 0.0107606)
(0 0 0.0106142)
(0 0 0.010467)
(0 0 0.0103192)
(0 0 0.0101706)
(0 0 0.0100214)
(0 0 0.00987165)
(0 0 0.00972133)
(0 0 0.0095705)
(0 0 0.0094192)
(0 0 0.00926747)
(0 0 0.00911534)
(0 0 0.00896285)
(0 0 0.00881003)
(0 0 0.00865692)
(0 0 0.00850353)
(0 0 0.0083499)
(0 0 0.00819606)
(0 0 0.00804204)
(0 0 0.00788785)
(0 0 0.00773352)
(0 0 0.00757908)
(0 0 0.00742454)
(0 0 0.00726993)
(0 0 0.00711526)
(0 0 0.00696055)
(0 0 0.00680582)
(0 0 0.00665108)
(0 0 0.00649635)
(0 0 0.00634164)
(0 0 0.00618696)
(0 0 0.00603233)
(0 0 0.00587776)
(0 0 0.00572325)
(0 0 0.00556881)
(0 0 0.00541445)
(0 0 0.00526018)
(0 0 0.00510601)
(0 0 0.00495194)
(0 0 0.00479797)
(0 0 0.00464411)
(0 0 0.00449036)
(0 0 0.00433673)
(0 0 0.00418321)
(0 0 0.00402981)
(0 0 0.00387653)
(0 0 0.00372337)
(0 0 0.00357033)
(0 0 0.0034174)
(0 0 0.00326459)
(0 0 0.00311189)
(0 0 0.00295931)
(0 0 0.00280683)
(0 0 0.00265446)
(0 0 0.00250219)
(0 0 0.00235002)
(0 0 0.00219794)
(0 0 0.00204595)
(0 0 0.00189404)
(0 0 0.00174222)
(0 0 0.00159047)
(0 0 0.00143878)
(0 0 0.00128716)
(0 0 0.0011356)
(0 0 0.000984082)
(0 0 0.00083261)
(0 0 0.000681176)
(0 0 0.000529772)
(0 0 0.000378391)
(0 0 0.000227028)
(0 0 7.56749e-05)
(0 0 9.08278e-05)
(0 0 0.000272488)
(0 0 0.000454164)
(0 0 0.000635864)
(0 0 0.000817598)
(0 0 0.000999376)
(0 0 0.00118121)
(0 0 0.0013631)
(0 0 0.00154507)
(0 0 0.00172712)
(0 0 0.00190926)
(0 0 0.0020915)
(0 0 0.00227384)
(0 0 0.0024563)
(0 0 0.00263889)
(0 0 0.00282161)
(0 0 0.00300447)
(0 0 0.00318747)
(0 0 0.00337062)
(0 0 0.00355394)
(0 0 0.00373742)
(0 0 0.00392107)
(0 0 0.00410489)
(0 0 0.0042889)
(0 0 0.00447308)
(0 0 0.00465745)
(0 0 0.00484201)
(0 0 0.00502677)
(0 0 0.00521171)
(0 0 0.00539684)
(0 0 0.00558217)
(0 0 0.00576769)
(0 0 0.0059534)
(0 0 0.0061393)
(0 0 0.00632538)
(0 0 0.00651163)
(0 0 0.00669807)
(0 0 0.00688467)
(0 0 0.00707143)
(0 0 0.00725834)
(0 0 0.0074454)
(0 0 0.00763259)
(0 0 0.00781989)
(0 0 0.00800731)
(0 0 0.00819482)
(0 0 0.00838241)
(0 0 0.00857005)
(0 0 0.00875774)
(0 0 0.00894546)
(0 0 0.00913317)
(0 0 0.00932087)
(0 0 0.00950852)
(0 0 0.0096961)
(0 0 0.00988359)
(0 0 0.0100709)
(0 0 0.0102581)
(0 0 0.0104452)
(0 0 0.0106319)
(0 0 0.0108185)
(0 0 0.0110047)
(0 0 0.0111906)
(0 0 0.0113761)
(0 0 0.0115612)
(0 0 0.0117459)
(0 0 0.01193)
(0 0 0.0121136)
(0 0 0.0122965)
(0 0 0.0124788)
(0 0 0.0126604)
(0 0 0.0128412)
(0 0 0.0130211)
(0 0 0.0132002)
(0 0 0.0133783)
(0 0 0.0135554)
(0 0 0.0137314)
(0 0 0.0139062)
(0 0 0.0140799)
(0 0 0.0142522)
(0 0 0.0144231)
(0 0 0.0145926)
(0 0 0.0147606)
(0 0 0.014927)
(0 0 0.0150917)
(0 0 0.0152546)
(0 0 0.0154157)
(0 0 0.0155749)
(0 0 0.015732)
(0 0 0.0158871)
(0 0 0.01604)
(0 0 0.0161905)
(0 0 0.0163388)
(0 0 0.0164845)
(0 0 0.0166278)
(0 0 0.0167684)
(0 0 0.0169062)
(0 0 0.0170413)
(0 0 0.0171735)
(0 0 0.0173026)
(0 0 0.0174287)
(0 0 0.0175516)
(0 0 0.0176713)
(0 0 0.0177876)
(0 0 0.0179005)
(0 0 0.0180099)
(0 0 0.0181156)
(0 0 0.0182177)
(0 0 0.018316)
(0 0 0.0184105)
(0 0 0.0185011)
(0 0 0.0185877)
(0 0 0.0186702)
(0 0 0.0187486)
(0 0 0.0188229)
(0 0 0.0188928)
(0 0 0.0189585)
(0 0 0.0190198)
(0 0 0.0190766)
(0 0 0.0191291)
(0 0 0.019177)
(0 0 0.0192203)
(0 0 0.0192591)
(0 0 0.0192932)
(0 0 0.0193227)
(0 0 0.0193475)
(0 0 0.0193676)
(0 0 0.019383)
(0 0 0.0193937)
(0 0 0.0193996)
(0 0 0.0194008)
(0 0 0.0193973)
(0 0 0.019389)
(0 0 0.019376)
(0 0 0.0193583)
(0 0 0.0193359)
(0 0 0.0193089)
(0 0 0.0192772)
(0 0 0.0192409)
(0 0 0.0192)
(0 0 0.0191546)
(0 0 0.0191047)
(0 0 0.0190503)
(0 0 0.0189916)
(0 0 0.0189285)
(0 0 0.0188611)
(0 0 0.0187894)
(0 0 0.0187136)
(0 0 0.0186337)
(0 0 0.0185497)
(0 0 0.0184618)
(0 0 0.0183699)
(0 0 0.0182742)
(0 0 0.0181748)
(0 0 0.0180717)
(0 0 0.017965)
(0 0 0.0178548)
(0 0 0.0177412)
(0 0 0.0176242)
(0 0 0.0175039)
(0 0 0.0173805)
(0 0 0.017254)
(0 0 0.0171244)
(0 0 0.016992)
(0 0 0.0168567)
(0 0 0.0167186)
(0 0 0.0165779)
(0 0 0.0164346)
(0 0 0.0162888)
(0 0 0.0161406)
(0 0 0.0159901)
(0 0 0.0158373)
(0 0 0.0156824)
(0 0 0.0155255)
(0 0 0.0153665)
(0 0 0.0152056)
(0 0 0.0150429)
(0 0 0.0148784)
(0 0 0.0147123)
(0 0 0.0145446)
(0 0 0.0143753)
(0 0 0.0142046)
(0 0 0.0140325)
(0 0 0.013859)
(0 0 0.0136844)
(0 0 0.0135085)
(0 0 0.0133315)
(0 0 0.0131535)
(0 0 0.0129745)
(0 0 0.0127945)
(0 0 0.0126137)
(0 0 0.012432)
(0 0 0.0122496)
(0 0 0.0120665)
(0 0 0.0118827)
(0 0 0.0116982)
(0 0 0.0115132)
(0 0 0.0113277)
(0 0 0.0111417)
(0 0 0.0109553)
(0 0 0.0107684)
(0 0 0.0105812)
(0 0 0.0103937)
(0 0 0.0102059)
(0 0 0.0100178)
(0 0 0.00982949)
(0 0 0.00964099)
(0 0 0.00945232)
(0 0 0.00926351)
(0 0 0.00907459)
(0 0 0.00888558)
(0 0 0.00869651)
(0 0 0.00850738)
(0 0 0.00831824)
(0 0 0.00812908)
(0 0 0.00793994)
(0 0 0.00775083)
(0 0 0.00756176)
(0 0 0.00737274)
(0 0 0.0071838)
(0 0 0.00699493)
(0 0 0.00680616)
(0 0 0.00661749)
(0 0 0.00642893)
(0 0 0.00624048)
(0 0 0.00605216)
(0 0 0.00586397)
(0 0 0.00567591)
(0 0 0.00548799)
(0 0 0.00530021)
(0 0 0.00511258)
(0 0 0.00492509)
(0 0 0.00473775)
(0 0 0.00455055)
(0 0 0.0043635)
(0 0 0.00417659)
(0 0 0.00398982)
(0 0 0.0038032)
(0 0 0.00361671)
(0 0 0.00343035)
(0 0 0.00324413)
(0 0 0.00305803)
(0 0 0.00287205)
(0 0 0.00268619)
(0 0 0.00250043)
(0 0 0.00231478)
(0 0 0.00212923)
(0 0 0.00194377)
(0 0 0.00175839)
(0 0 0.00157308)
(0 0 0.00138785)
(0 0 0.00120268)
(0 0 0.00101756)
(0 0 0.000832486)
(0 0 0.00064745)
(0 0 0.000462444)
(0 0 0.000277458)
(0 0 9.24846e-05)
(0 0 0.00010733)
(0 0 0.000321997)
(0 0 0.000536681)
(0 0 0.000751394)
(0 0 0.000966148)
(0 0 0.00118095)
(0 0 0.00139582)
(0 0 0.00161077)
(0 0 0.0018258)
(0 0 0.00204093)
(0 0 0.00225616)
(0 0 0.00247151)
(0 0 0.00268699)
(0 0 0.00290261)
(0 0 0.00311838)
(0 0 0.0033343)
(0 0 0.00355039)
(0 0 0.00376665)
(0 0 0.00398309)
(0 0 0.00419972)
(0 0 0.00441655)
(0 0 0.00463358)
(0 0 0.00485081)
(0 0 0.00506826)
(0 0 0.00528593)
(0 0 0.00550382)
(0 0 0.00572193)
(0 0 0.00594027)
(0 0 0.00615884)
(0 0 0.00637763)
(0 0 0.00659666)
(0 0 0.00681591)
(0 0 0.00703539)
(0 0 0.0072551)
(0 0 0.00747502)
(0 0 0.00769516)
(0 0 0.0079155)
(0 0 0.00813605)
(0 0 0.00835678)
(0 0 0.0085777)
(0 0 0.00879879)
(0 0 0.00902004)
(0 0 0.00924144)
(0 0 0.00946296)
(0 0 0.0096846)
(0 0 0.00990633)
(0 0 0.0101281)
(0 0 0.01035)
(0 0 0.0105719)
(0 0 0.0107938)
(0 0 0.0110157)
(0 0 0.0112375)
(0 0 0.0114593)
(0 0 0.0116809)
(0 0 0.0119024)
(0 0 0.0121237)
(0 0 0.0123448)
(0 0 0.0125656)
(0 0 0.0127862)
(0 0 0.0130064)
(0 0 0.0132262)
(0 0 0.0134455)
(0 0 0.0136644)
(0 0 0.0138827)
(0 0 0.0141004)
(0 0 0.0143175)
(0 0 0.0145338)
(0 0 0.0147494)
(0 0 0.0149641)
(0 0 0.0151779)
(0 0 0.0153907)
(0 0 0.0156025)
(0 0 0.0158131)
(0 0 0.0160226)
(0 0 0.0162307)
(0 0 0.0164375)
(0 0 0.0166429)
(0 0 0.0168467)
(0 0 0.0170489)
(0 0 0.0172494)
(0 0 0.0174481)
(0 0 0.017645)
(0 0 0.0178398)
(0 0 0.0180326)
(0 0 0.0182231)
(0 0 0.0184114)
(0 0 0.0185974)
(0 0 0.0187808)
(0 0 0.0189617)
(0 0 0.0191399)
(0 0 0.0193152)
(0 0 0.0194877)
(0 0 0.0196572)
(0 0 0.0198236)
(0 0 0.0199868)
(0 0 0.0201466)
(0 0 0.020303)
(0 0 0.0204559)
(0 0 0.0206051)
(0 0 0.0207505)
(0 0 0.0208922)
(0 0 0.0210298)
(0 0 0.0211634)
(0 0 0.0212929)
(0 0 0.0214181)
(0 0 0.0215389)
(0 0 0.0216553)
(0 0 0.0217671)
(0 0 0.0218744)
(0 0 0.0219768)
(0 0 0.0220745)
(0 0 0.0221674)
(0 0 0.0222552)
(0 0 0.0223381)
(0 0 0.0224158)
(0 0 0.0224883)
(0 0 0.0225557)
(0 0 0.0226177)
(0 0 0.0226744)
(0 0 0.0227257)
(0 0 0.0227716)
(0 0 0.022812)
(0 0 0.0228469)
(0 0 0.0228763)
(0 0 0.0229001)
(0 0 0.0229183)
(0 0 0.0229309)
(0 0 0.022938)
(0 0 0.0229394)
(0 0 0.0229352)
(0 0 0.0229254)
(0 0 0.02291)
(0 0 0.0228891)
(0 0 0.0228626)
(0 0 0.0228305)
(0 0 0.022793)
(0 0 0.02275)
(0 0 0.0227016)
(0 0 0.0226479)
(0 0 0.0225888)
(0 0 0.0225244)
(0 0 0.0224549)
(0 0 0.0223801)
(0 0 0.0223003)
(0 0 0.0222155)
(0 0 0.0221258)
(0 0 0.0220312)
(0 0 0.0219318)
(0 0 0.0218277)
(0 0 0.0217189)
(0 0 0.0216057)
(0 0 0.021488)
(0 0 0.021366)
(0 0 0.0212397)
(0 0 0.0211093)
(0 0 0.0209748)
(0 0 0.0208363)
(0 0 0.020694)
(0 0 0.0205479)
(0 0 0.0203982)
(0 0 0.0202449)
(0 0 0.0200881)
(0 0 0.019928)
(0 0 0.0197646)
(0 0 0.0195981)
(0 0 0.0194286)
(0 0 0.0192561)
(0 0 0.0190808)
(0 0 0.0189027)
(0 0 0.018722)
(0 0 0.0185387)
(0 0 0.018353)
(0 0 0.0181649)
(0 0 0.0179746)
(0 0 0.0177821)
(0 0 0.0175876)
(0 0 0.0173911)
(0 0 0.0171926)
(0 0 0.0169924)
(0 0 0.0167905)
(0 0 0.0165869)
(0 0 0.0163818)
(0 0 0.0161752)
(0 0 0.0159672)
(0 0 0.0157579)
(0 0 0.0155474)
(0 0 0.0153357)
(0 0 0.0151229)
(0 0 0.014909)
(0 0 0.0146942)
(0 0 0.0144785)
(0 0 0.014262)
(0 0 0.0140446)
(0 0 0.0138265)
(0 0 0.0136078)
(0 0 0.0133885)
(0 0 0.0131685)
(0 0 0.0129481)
(0 0 0.0127272)
(0 0 0.0125059)
(0 0 0.0122842)
(0 0 0.0120621)
(0 0 0.0118398)
(0 0 0.0116171)
(0 0 0.0113943)
(0 0 0.0111713)