/*--------------------------------*- C++ -*----------------------------------*\
| =========                 |                                                 |
| \\      /  F ield         | OpenFOAM: The Open Source CFD Toolbox           |
|  \\    /   O peration     | Version:  v2012                                 |
|   \\  /    A nd           | Website:  www.openfoam.com                      |
|    \\/     M anipulation  |                                                 |
\*---------------------------------------------------------------------------*/
FoamFile
{
    version     2.0;
    format      ascii;
    class       volScalarField;
    location    "1.4";
    object      Psi_z;
}
// * * * * * * * * * * * * * * * * * * * * * * * * * * * * * * * * * * * * * //

dimensions      [0 2 -1 0 0 0 0];


internalField   nonuniform List<scalar> 
65536
(
8.52966e-06
2.55883e-05
4.26453e-05
5.96995e-05
7.67497e-05
9.37948e-05
0.000110834
0.000127865
0.000144888
0.000161901
0.000178904
0.000195894
0.00021287
0.000229832
0.000246777
0.000263706
0.000280615
0.000297504
0.000314372
0.000331216
0.000348036
0.00036483
0.000381595
0.000398332
0.000415037
0.000431709
0.000448347
0.000464948
0.00048151
0.000498032
0.000514512
0.000530948
0.000547337
0.000563677
0.000579966
0.000596203
0.000612383
0.000628506
0.000644569
0.000660569
0.000676503
0.00069237
0.000708166
0.000723889
0.000739535
0.000755103
0.000770589
0.00078599
0.000801303
0.000816526
0.000831655
0.000846687
0.000861619
0.000876448
0.00089117
0.000905783
0.000920282
0.000934665
0.000948928
0.000963068
0.000977081
0.000990965
0.00100471
0.00101833
0.0010318
0.00104513
0.00105831
0.00107134
0.00108421
0.00109693
0.00110949
0.00112188
0.0011341
0.00114615
0.00115803
0.00116973
0.00118125
0.00119258
0.00120372
0.00121467
0.00122543
0.00123599
0.00124635
0.0012565
0.00126645
0.00127619
0.00128571
0.00129502
0.00130412
0.00131299
0.00132164
0.00133007
0.00133826
0.00134623
0.00135397
0.00136147
0.00136873
0.00137576
0.00138255
0.0013891
0.0013954
0.00140146
0.00140727
0.00141284
0.00141815
0.00142322
0.00142804
0.0014326
0.00143692
0.00144098
0.00144478
0.00144833
0.00145163
0.00145467
0.00145746
0.00145999
0.00146226
0.00146428
0.00146604
0.00146754
0.00146879
0.00146979
0.00147053
0.00147101
0.00147124
0.00147122
0.00147094
0.00147042
0.00146964
0.00146861
0.00146733
0.0014658
0.00146402
0.001462
0.00145973
0.00145722
0.00145446
0.00145147
0.00144823
0.00144475
0.00144104
0.00143708
0.0014329
0.00142848
0.00142383
0.00141895
0.00141384
0.00140851
0.00140295
0.00139717
0.00139117
0.00138495
0.00137851
0.00137186
0.001365
0.00135792
0.00135064
0.00134315
0.00133545
0.00132756
0.00131946
0.00131117
0.00130268
0.00129399
0.00128512
0.00127606
0.00126682
0.00125739
0.00124778
0.00123799
0.00122802
0.00121789
0.00120758
0.0011971
0.00118646
0.00117566
0.00116469
0.00115357
0.0011423
0.00113087
0.0011193
0.00110757
0.00109571
0.0010837
0.00107156
0.00105928
0.00104686
0.00103432
0.00102165
0.00100886
0.000995939
0.000982905
0.000969754
0.00095649
0.000943115
0.000929632
0.000916044
0.000902353
0.000888562
0.000874674
0.000860691
0.000846616
0.000832451
0.000818199
0.000803863
0.000789444
0.000774946
0.00076037
0.000745719
0.000730996
0.000716203
0.000701341
0.000686414
0.000671423
0.000656371
0.000641259
0.00062609
0.000610867
0.00059559
0.000580261
0.000564884
0.000549459
0.000533989
0.000518476
0.00050292
0.000487324
0.00047169
0.000456019
0.000440313
0.000424574
0.000408802
0.000393001
0.00037717
0.000361311
0.000345427
0.000329518
0.000313586
0.000297632
0.000281657
0.000265662
0.00024965
0.00023362
0.000217575
0.000201516
0.000185443
0.000169358
0.000153261
0.000137155
0.00012104
0.000104917
8.87873e-05
7.26519e-05
5.65118e-05
4.03681e-05
2.42219e-05
8.07414e-06
2.55894e-05
7.67664e-05
0.000127938
0.000179102
0.000230254
0.00028139
0.000332508
0.000383603
0.000434673
0.000485714
0.000536722
0.000587693
0.000638623
0.00068951
0.000740348
0.000791134
0.000841863
0.000892532
0.000943136
0.000993671
0.00104413
0.00109451
0.00114481
0.00119502
0.00124514
0.00129516
0.00134507
0.00139488
0.00144457
0.00149414
0.00154358
0.00159289
0.00164206
0.00169108
0.00173995
0.00178866
0.0018372
0.00188558
0.00193377
0.00198177
0.00202957
0.00207718
0.00212457
0.00217174
0.00221868
0.00226539
0.00231185
0.00235805
0.002404
0.00244967
0.00249506
0.00254016
0.00258496
0.00262945
0.00267362
0.00271746
0.00276096
0.00280411
0.0028469
0.00288933
0.00293137
0.00297302
0.00301428
0.00305512
0.00309554
0.00313553
0.00317507
0.00321417
0.0032528
0.00329095
0.00332863
0.0033658
0.00340248
0.00343863
0.00347427
0.00350937
0.00354392
0.00357791
0.00361135
0.00364421
0.00367648
0.00370816
0.00373924
0.00376971
0.00379955
0.00382877
0.00385735
0.00388529
0.00391257
0.00393919
0.00396514
0.00399042
0.00401502
0.00403892
0.00406213
0.00408464
0.00410644
0.00412752
0.00414789
0.00416753
0.00418644
0.00420462
0.00422206
0.00423876
0.00425471
0.00426992
0.00428437
0.00429806
0.004311
0.00432318
0.0043346
0.00434526
0.00435515
0.00436427
0.00437263
0.00438021
0.00438703
0.00439309
0.00439837
0.00440289
0.00440664
0.00440962
0.00441184
0.00441329
0.00441398
0.00441391
0.00441309
0.0044115
0.00440916
0.00440607
0.00440223
0.00439764
0.00439232
0.00438625
0.00437944
0.0043719
0.00436363
0.00435464
0.00434492
0.00433449
0.00432334
0.00431149
0.00429893
0.00428568
0.00427172
0.00425708
0.00424176
0.00422576
0.00420908
0.00419174
0.00417373
0.00415507
0.00413576
0.0041158
0.00409521
0.00407398
0.00405212
0.00402965
0.00400656
0.00398287
0.00395858
0.0039337
0.00390823
0.00388218
0.00385556
0.00382837
0.00380063
0.00377234
0.00374351
0.00371414
0.00368424
0.00365383
0.0036229
0.00359147
0.00355955
0.00352714
0.00349424
0.00346088
0.00342705
0.00339277
0.00335804
0.00332287
0.00328727
0.00325124
0.00321481
0.00317796
0.00314072
0.00310309
0.00306508
0.00302669
0.00298794
0.00294883
0.00290938
0.00286958
0.00282946
0.002789
0.00274824
0.00270716
0.00266579
0.00262412
0.00258217
0.00253994
0.00249744
0.00245469
0.00241167
0.00236842
0.00232492
0.00228119
0.00223723
0.00219306
0.00214868
0.00210409
0.00205931
0.00201433
0.00196917
0.00192384
0.00187833
0.00183266
0.00178682
0.00174084
0.0016947
0.00164843
0.00160201
0.00155547
0.0015088
0.00146201
0.00141511
0.0013681
0.00132098
0.00127376
0.00122644
0.00117903
0.00113154
0.00108396
0.00103631
0.000988579
0.000940781
0.000892917
0.000844991
0.000797006
0.000748968
0.000700878
0.000652742
0.000604562
0.000556342
0.000508085
0.000459795
0.000411475
0.000363128
0.000314758
0.000266368
0.000217961
0.000169539
0.000121107
7.26673e-05
2.42229e-05
4.26508e-05
0.000127949
0.00021324
0.000298516
0.000383773
0.000469004
0.000554204
0.000639367
0.000724488
0.00080956
0.000894576
0.000979532
0.00106442
0.00114924
0.00123397
0.00131862
0.00140317
0.00148763
0.00157197
0.0016562
0.00174031
0.00182428
0.00190812
0.00199181
0.00207534
0.00215871
0.00224191
0.00232492
0.00240775
0.00249037
0.00257278
0.00265496
0.00273692
0.00281863
0.00290009
0.00298128
0.0030622
0.00314283
0.00322315
0.00330316
0.00338285
0.0034622
0.00354119
0.00361982
0.00369806
0.00377592
0.00385336
0.00393038
0.00400696
0.00408309
0.00415875
0.00423393
0.0043086
0.00438276
0.00445639
0.00452947
0.00460198
0.00467391
0.00474525
0.00481596
0.00488605
0.00495548
0.00502425
0.00509233
0.00515971
0.00522637
0.00529229
0.00535746
0.00542185
0.00548546
0.00554826
0.00561023
0.00567137
0.00573164
0.00579104
0.00584955
0.00590714
0.00596382
0.00601955
0.00607432
0.00612812
0.00618093
0.00623274
0.00628353
0.00633328
0.00638199
0.00642963
0.0064762
0.00652168
0.00656606
0.00660932
0.00665146
0.00669246
0.00673231
0.006771
0.00680851
0.00684485
0.00688
0.00691395
0.00694669
0.00697821
0.00700852
0.00703759
0.00706542
0.00709202
0.00711736
0.00714145
0.00716428
0.00718585
0.00720615
0.00722518
0.00724294
0.00725943
0.00727463
0.00728856
0.00730121
0.00731258
0.00732266
0.00733147
0.007339
0.00734525
0.00735022
0.00735391
0.00735633
0.00735748
0.00735737
0.00735598
0.00735334
0.00734944
0.00734428
0.00733788
0.00733023
0.00732135
0.00731123
0.00729988
0.00728731
0.00727352
0.00725853
0.00724233
0.00722494
0.00720636
0.0071866
0.00716566
0.00714356
0.00712031
0.0070959
0.00707036
0.00704368
0.00701588
0.00698697
0.00695695
0.00692584
0.00689365
0.00686038
0.00682604
0.00679066
0.00675423
0.00671677
0.00667828
0.00663879
0.00659829
0.00655681
0.00651435
0.00647093
0.00642656
0.00638124
0.006335
0.00628784
0.00623977
0.00619082
0.00614098
0.00609029
0.00603873
0.00598634
0.00593313
0.0058791
0.00582427
0.00576865
0.00571226
0.00565511
0.00559722
0.00553859
0.00547925
0.0054192
0.00535846
0.00529705
0.00523497
0.00517224
0.00510888
0.00504489
0.0049803
0.00491511
0.00484934
0.00478301
0.00471612
0.00464869
0.00458074
0.00451227
0.0044433
0.00437385
0.00430392
0.00423353
0.0041627
0.00409143
0.00401973
0.00394763
0.00387512
0.00380223
0.00372897
0.00365534
0.00358136
0.00350704
0.00343239
0.00335743
0.00328216
0.00320659
0.00313073
0.0030546
0.00297821
0.00290156
0.00282466
0.00274753
0.00267017
0.00259259
0.00251481
0.00243682
0.00235864
0.00228028
0.00220174
0.00212303
0.00204417
0.00196515
0.00188599
0.00180669
0.00172726
0.00164771
0.00156804
0.00148826
0.00140838
0.0013284
0.00124834
0.00116818
0.00108795
0.00100765
0.000927277
0.000846845
0.000766358
0.000685821
0.00060524
0.00052462
0.000443966
0.000363283
0.000282577
0.000201854
0.000121117
4.03733e-05
5.9715e-05
0.000179141
0.000298555
0.00041795
0.000537317
0.000656649
0.000775938
0.000895174
0.00101435
0.00113346
0.00125249
0.00137144
0.00149029
0.00160904
0.00172768
0.0018462
0.00196458
0.00208283
0.00220092
0.00231885
0.00243661
0.00255419
0.00267157
0.00278875
0.00290571
0.00302244
0.00313893
0.00325516
0.00337113
0.00348681
0.0036022
0.00371728
0.00383203
0.00394644
0.0040605
0.00417419
0.00428748
0.00440038
0.00451285
0.00462489
0.00473646
0.00484757
0.00495818
0.00506828
0.00517784
0.00528685
0.0053953
0.00550315
0.00561038
0.00571699
0.00582293
0.0059282
0.00603277
0.00613662
0.00623972
0.00634205
0.00644359
0.00654432
0.00664421
0.00674324
0.00684138
0.00693861
0.00703491
0.00713024
0.0072246
0.00731795
0.00741026
0.00750152
0.0075917
0.00768077
0.00776871
0.0078555
0.00794111
0.00802552
0.00810871
0.00819064
0.0082713
0.00835066
0.00842871
0.00850542
0.00858076
0.00865472
0.00872727
0.00879839
0.00886807
0.00893627
0.009003
0.00906821
0.0091319
0.00919404
0.00925463
0.00931364
0.00937105
0.00942685
0.00948103
0.00953357
0.00958446
0.00963368
0.00968122
0.00972707
0.00977121
0.00981365
0.00985436
0.00989334
0.00993057
0.00996606
0.00999979
0.0100318
0.010062
0.0100904
0.010117
0.0101419
0.010165
0.0101863
0.0102058
0.0102235
0.0102394
0.0102535
0.0102659
0.0102764
0.0102851
0.0102921
0.0102973
0.0103006
0.0103023
0.0103021
0.0103001
0.0102964
0.010291
0.0102837
0.0102748
0.0102641
0.0102516
0.0102374
0.0102215
0.0102039
0.0101846
0.0101636
0.0101409
0.0101166
0.0100906
0.0100629
0.0100336
0.0100026
0.00997004
0.00993586
0.00990008
0.00986272
0.00982379
0.0097833
0.00974126
0.0096977
0.00965261
0.00960602
0.00955794
0.00950838
0.00945736
0.0094049
0.00935101
0.0092957
0.00923899
0.0091809
0.00912145
0.00906064
0.0089985
0.00893504
0.00887028
0.00880424
0.00873693
0.00866837
0.00859859
0.00852759
0.0084554
0.00838204
0.00830751
0.00823185
0.00815507
0.00807719
0.00799823
0.0079182
0.00783713
0.00775503
0.00767193
0.00758785
0.00750279
0.00741679
0.00732986
0.00724202
0.0071533
0.0070637
0.00697325
0.00688197
0.00678987
0.00669699
0.00660332
0.00650891
0.00641375
0.00631788
0.00622131
0.00612405
0.00602614
0.00592758
0.00582839
0.00572859
0.0056282
0.00552723
0.00542571
0.00532365
0.00522106
0.00511796
0.00501438
0.00491032
0.00480579
0.00470083
0.00459543
0.00448962
0.00438341
0.00427682
0.00416985
0.00406253
0.00395486
0.00384686
0.00373854
0.00362992
0.00352101
0.00341181
0.00330235
0.00319263
0.00308267
0.00297247
0.00286205
0.00275141
0.00264058
0.00252955
0.00241834
0.00230696
0.00219541
0.00208371
0.00197187
0.00185989
0.00174779
0.00163557
0.00152323
0.0014108
0.00129827
0.00118566
0.00107297
0.000960212
0.00084739
0.000734515
0.000621592
0.000508629
0.000395634
0.000282613
0.000169575
5.65262e-05
7.67832e-05
0.000230344
0.000383891
0.000537412
0.000690898
0.000844338
0.000997723
0.00115104
0.00130428
0.00145744
0.00161049
0.00176344
0.00191627
0.00206896
0.00222151
0.00237391
0.00252614
0.00267818
0.00283003
0.00298168
0.0031331
0.00328429
0.00343523
0.00358591
0.00373631
0.00388641
0.00403621
0.00418567
0.00433479
0.00448355
0.00463193
0.00477991
0.00492748
0.00507461
0.00522128
0.00536748
0.00551317
0.00565835
0.00580299
0.00594707
0.00609056
0.00623344
0.00637568
0.00651727
0.00665817
0.00679837
0.00693783
0.00707653
0.00721444
0.00735154
0.00748779
0.00762317
0.00775766
0.00789121
0.00802381
0.00815542
0.00828602
0.00841556
0.00854404
0.0086714
0.00879762
0.00892267
0.00904653
0.00916914
0.0092905
0.00941056
0.00952929
0.00964667
0.00976265
0.00987722
0.00999033
0.010102
0.0102121
0.0103206
0.0104276
0.010533
0.0106368
0.0107388
0.0108392
0.0109379
0.0110348
0.0111299
0.0112232
0.0113147
0.0114043
0.011492
0.0115779
0.0116617
0.0117437
0.0118236
0.0119015
0.0119774
0.0120513
0.012123
0.0121927
0.0122603
0.0123257
0.012389
0.0124502
0.0125091
0.0125659
0.0126205
0.0126729
0.012723
0.0127709
0.0128165
0.0128599
0.012901
0.0129399
0.0129764
0.0130107
0.0130427
0.0130723
0.0130997
0.0131248
0.0131476
0.013168
0.0131862
0.013202
0.0132156
0.0132268
0.0132357
0.0132424
0.0132467
0.0132488
0.0132486
0.0132461
0.0132413
0.0132343
0.013225
0.0132134
0.0131996
0.0131836
0.0131654
0.0131449
0.0131223
0.0130974
0.0130704
0.0130412
0.0130099
0.0129764
0.0129408
0.0129031
0.0128633
0.0128214
0.0127774
0.0127314
0.0126833
0.0126333
0.0125812
0.0125271
0.0124711
0.0124131
0.0123531
0.0122913
0.0122276
0.0121619
0.0120945
0.0120252
0.011954
0.0118811
0.0118064
0.0117299
0.0116517
0.0115718
0.0114901
0.0114068
0.0113219
0.0112353
0.0111472
0.0110574
0.0109661
0.0108732
0.0107789
0.010683
0.0105857
0.010487
0.0103868
0.0102853
0.0101823
0.0100781
0.00997248
0.0098656
0.00975746
0.00964807
0.00953746
0.00942566
0.0093127
0.00919858
0.00908335
0.00896703
0.00884963
0.0087312
0.00861174
0.00849128
0.00836986
0.00824748
0.00812419
0.00799999
0.00787492
0.007749
0.00762224
0.00749468
0.00736634
0.00723724
0.0071074
0.00697684
0.00684559
0.00671366
0.00658108
0.00644787
0.00631405
0.00617964
0.00604466
0.00590912
0.00577306
0.00563648
0.0054994
0.00536185
0.00522384
0.00508538
0.00494651
0.00480722
0.00466754
0.00452749
0.00438708
0.00424632
0.00410523
0.00396383
0.00382213
0.00368014
0.00353788
0.00339536
0.00325259
0.00310959
0.00296637
0.00282294
0.00267931
0.00253549
0.00239151
0.00224736
0.00210306
0.00195862
0.00181405
0.00166935
0.00152455
0.00137965
0.00123466
0.0010896
0.000944457
0.000799257
0.000654007
0.000508715
0.000363391
0.000218044
7.26827e-05
9.38564e-05
0.000281563
0.000469251
0.000656909
0.000844524
0.00103208
0.00121957
0.00140699
0.0015943
0.00178151
0.00196861
0.00215556
0.00234238
0.00252903
0.0027155
0.00290179
0.00308787
0.00327373
0.00345935
0.00364473
0.00382983
0.00401465
0.00419916
0.00438335
0.0045672
0.0047507
0.00493381
0.00511652
0.00529882
0.00548067
0.00566206
0.00584297
0.00602337
0.00620323
0.00638254
0.00656127
0.00673939
0.00691687
0.0070937
0.00726984
0.00744526
0.00761994
0.00779384
0.00796695
0.00813921
0.00831062
0.00848112
0.0086507
0.00881931
0.00898693
0.00915352
0.00931905
0.00948348
0.00964677
0.0098089
0.00996981
0.0101295
0.0102879
0.010445
0.0106007
0.010755
0.0109079
0.0110594
0.0112093
0.0113577
0.0115045
0.0116497
0.0117932
0.011935
0.0120751
0.0122134
0.0123499
0.0124846
0.0126173
0.0127481
0.012877
0.0130039
0.0131287
0.0132514
0.0133721
0.0134906
0.0136069
0.013721
0.0138329
0.0139425
0.0140497
0.0141547
0.0142572
0.0143574
0.0144551
0.0145504
0.0146432
0.0147335
0.0148213
0.0149065
0.0149891
0.0150692
0.0151466
0.0152213
0.0152934
0.0153628
0.0154296
0.0154936
0.0155549
0.0156134
0.0156692
0.0157223
0.0157725
0.01582
0.0158647
0.0159066
0.0159457
0.015982
0.0160155
0.0160461
0.0160739
0.0160989
0.0161211
0.0161405
0.0161571
0.0161708
0.0161817
0.0161898
0.0161951
0.0161976
0.0161973
0.0161943
0.0161884
0.0161798
0.0161684
0.0161543
0.0161374
0.0161178
0.0160955
0.0160705
0.0160428
0.0160124
0.0159794
0.0159437
0.0159053
0.0158644
0.0158208
0.0157747
0.015726
0.0156748
0.015621
0.0155647
0.015506
0.0154447
0.015381
0.0153149
0.0152464
0.0151755
0.0151022
0.0150266
0.0149486
0.0148684
0.0147859
0.0147011
0.0146141
0.0145249
0.0144336
0.0143401
0.0142444
0.0141467
0.0140469
0.0139451
0.0138412
0.0137353
0.0136275
0.0135178
0.0134061
0.0132926
0.0131772
0.01306
0.012941
0.0128203
0.0126978
0.0125736
0.0124478
0.0123203
0.0121912
0.0120605
0.0119283
0.0117946
0.0116593
0.0115226
0.0113845
0.011245
0.0111041
0.0109619
0.0108183
0.0106735
0.0105275
0.0103802
0.0102318
0.0100821
0.00993139
0.00977955
0.00962664
0.00947268
0.00931771
0.00916176
0.00900485
0.00884702
0.00868828
0.00852866
0.0083682
0.00820691
0.00804483
0.00788198
0.00771838
0.00755405
0.00738904
0.00722334
0.007057
0.00689003
0.00672246
0.0065543
0.00638559
0.00621633
0.00604656
0.00587629
0.00570554
0.00553433
0.00536268
0.00519062
0.00501815
0.00484529
0.00467207
0.0044985
0.0043246
0.00415038
0.00397586
0.00380106
0.00362598
0.00345065
0.00327509
0.00309929
0.00292328
0.00274708
0.00257069
0.00239413
0.00221741
0.00204054
0.00186355
0.00168643
0.0015092
0.00133187
0.00115446
0.000976974
0.000799426
0.000621828
0.000444191
0.000266526
8.88438e-05
0.000110936
0.0003328
0.000554642
0.000776449
0.000998205
0.0012199
0.00144151
0.00166302
0.00188443
0.00210571
0.00232685
0.00254783
0.00276865
0.00298927
0.00320968
0.00342987
0.00364982
0.00386951
0.00408893
0.00430804
0.00452684
0.0047453
0.00496341
0.00518113
0.00539846
0.00561536
0.00583181
0.0060478
0.00626329
0.00647826
0.00669268
0.00690653
0.00711979
0.00733241
0.00754438
0.00775566
0.00796623
0.00817605
0.00838509
0.00859332
0.00880071
0.00900722
0.00921281
0.00941746
0.00962112
0.00982376
0.0100253
0.0102258
0.0104252
0.0106234
0.0108203
0.011016
0.0112104
0.0114035
0.0115952
0.0117854
0.0119742
0.0121615
0.0123473
0.0125314
0.0127139
0.0128947
0.0130737
0.013251
0.0134265
0.0136001
0.0137717
0.0139414
0.0141091
0.0142748
0.0144383
0.0145997
0.014759
0.0149159
0.0150706
0.015223
0.015373
0.0155206
0.0156658
0.0158084
0.0159486
0.0160861
0.016221
0.0163533
0.0164829
0.0166098
0.0167339
0.0168551
0.0169736
0.0170892
0.0172018
0.0173116
0.0174183
0.0175221
0.0176229
0.0177206
0.0178152
0.0179067
0.0179951
0.0180804
0.0181625
0.0182414
0.018317
0.0183895
0.0184587
0.0185247
0.0185874
0.0186469
0.018703
0.0187558
0.0188054
0.0188516
0.0188944
0.018934
0.0189702
0.0190031
0.0190327
0.0190589
0.0190818
0.0191014
0.0191176
0.0191305
0.0191401
0.0191463
0.0191493
0.0191489
0.0191452
0.0191383
0.0191281
0.0191146
0.0190979
0.0190779
0.0190548
0.0190284
0.0189988
0.018966
0.01893
0.0188909
0.0188487
0.0188034
0.018755
0.0187035
0.0186489
0.0185913
0.0185307
0.0184671
0.0184006
0.0183311
0.0182587
0.0181833
0.0181051
0.0180241
0.0179402
0.0178536
0.0177642
0.017672
0.0175771
0.0174795
0.0173793
0.0172764
0.017171
0.0170629
0.0169524
0.0168393
0.0167237
0.0166057
0.0164853
0.0163625
0.0162373
0.0161098
0.0159801
0.015848
0.0157138
0.0155774
0.0154388
0.0152981
0.0151554
0.0150105
0.0148637
0.0147149
0.0145642
0.0144115
0.014257
0.0141007
0.0139426
0.0137827
0.013621
0.0134577
0.0132928
0.0131262
0.012958
0.0127883
0.0126171
0.0124444
0.0122703
0.0120948
0.0119179
0.0117397
0.0115602
0.0113794
0.0111974
0.0110142
0.0108298
0.0106443
0.0104577
0.01027
0.0100813
0.00989163
0.00970096
0.00950935
0.00931682
0.00912342
0.00892917
0.00873409
0.00853821
0.00834157
0.00814419
0.0079461
0.00774732
0.00754788
0.0073478
0.00714711
0.00694583
0.00674399
0.00654161
0.00633871
0.00613532
0.00593145
0.00572712
0.00552237
0.0053172
0.00511164
0.00490571
0.00469942
0.0044928
0.00428586
0.00407861
0.00387109
0.0036633
0.00345526
0.00324699
0.00303849
0.0028298
0.00262092
0.00241187
0.00220266
0.00199331
0.00178383
0.00157423
0.00136453
0.00115475
0.000944897
0.000734981
0.000525019
0.000315025
0.00010501
0.000128022
0.000384058
0.00064007
0.00089604
0.00115195
0.00140779
0.00166353
0.00191917
0.00217468
0.00243005
0.00268525
0.00294028
0.0031951
0.00344971
0.00370409
0.0039582
0.00421204
0.00446558
0.0047188
0.00497168
0.00522419
0.00547632
0.00572804
0.00597932
0.00623014
0.00648047
0.00673029
0.00697957
0.00722828
0.00747639
0.00772387
0.0079707
0.00821684
0.00846225
0.00870691
0.00895078
0.00919382
0.00943601
0.0096773
0.00991765
0.010157
0.0103954
0.0106327
0.010869
0.0111041
0.011338
0.0115707
0.0118021
0.0120322
0.012261
0.0124884
0.0127143
0.0129387
0.0131616
0.0133829
0.0136026
0.0138205
0.0140367
0.0142512
0.0144637
0.0146744
0.0148831
0.0150899
0.0152946
0.0154971
0.0156976
0.0158958
0.0160917
0.0162853
0.0164766
0.0166654
0.0168518
0.0170356
0.0172168
0.0173955
0.0175714
0.0177446
0.017915
0.0180826
0.0182473
0.0184091
0.0185679
0.0187237
0.0188765
0.0190261
0.0191726
0.0193158
0.0194559
0.0195926
0.0197261
0.0198562
0.0199829
0.0201061
0.020226
0.0203423
0.0204551
0.0205643
0.02067
0.0207721
0.0208705
0.0209653
0.0210563
0.0211437
0.0212274
0.0213073
0.0213835
0.0214559
0.0215245
0.0215893
0.0216502
0.0217074
0.0217607
0.0218102
0.0218559
0.0218977
0.0219357
0.0219698
0.022
0.0220264
0.022049
0.0220677
0.0220826
0.0220936
0.0221008
0.0221042
0.0221037
0.0220995
0.0220915
0.0220797
0.0220641
0.0220448
0.0220217
0.0219949
0.0219644
0.0219302
0.0218923
0.0218508
0.0218057
0.0217569
0.0217045
0.0216486
0.0215891
0.0215261
0.0214596
0.0213896
0.0213162
0.0212394
0.0211591
0.0210755
0.0209885
0.0208982
0.0208046
0.0207078
0.0206077
0.0205045
0.0203981
0.0202885
0.0201758
0.0200601
0.0199413
0.0198196
0.0196948
0.0195672
0.0194366
0.0193032
0.0191669
0.0190279
0.0188861
0.0187416
0.0185944
0.0184446
0.0182922
0.0181372
0.0179797
0.0178197
0.0176573
0.0174924
0.0173253
0.0171558
0.016984
0.0168099
0.0166337
0.0164553
0.0162749
0.0160923
0.0159077
0.0157211
0.0155326
0.0153422
0.0151499
0.0149557
0.0147598
0.0145622
0.0143628
0.0141618
0.0139592
0.013755
0.0135493
0.0133421
0.0131334
0.0129233
0.0127118
0.012499
0.0122848
0.0120694
0.0118528
0.011635
0.011416
0.0111959
0.0109748
0.0107526
0.0105293
0.0103051
0.0100799
0.00985385
0.00962689
0.00939907
0.00917043
0.008941
0.0087108
0.00847988
0.00824825
0.00801594
0.00778299
0.00754941
0.00731523
0.00708049
0.0068452
0.00660938
0.00637307
0.00613629
0.00589905
0.00566139
0.00542331
0.00518485
0.00494603
0.00470686
0.00446736
0.00422756
0.00398747
0.00374711
0.0035065
0.00326566
0.0030246
0.00278335
0.00254191
0.00230032
0.00205857
0.00181669
0.0015747
0.0013326
0.00109043
0.00084818
0.000605881
0.000363544
0.000121184
0.000145117
0.000435342
0.000725539
0.00101569
0.00130577
0.00159577
0.00188567
0.00217545
0.00246508
0.00275455
0.00304384
0.00333292
0.00362178
0.0039104
0.00419875
0.00448681
0.00477455
0.00506196
0.00534901
0.00563568
0.00592193
0.00620775
0.0064931
0.00677796
0.0070623
0.00734609
0.00762931
0.00791191
0.00819387
0.00847515
0.00875573
0.00903556
0.00931461
0.00959285
0.00987023
0.0101467
0.0104223
0.0106969
0.0109704
0.011243
0.0115144
0.0117847
0.0120537
0.0123216
0.0125882
0.0128534
0.0131173
0.0133797
0.0136406
0.0139
0.0141579
0.0144141
0.0146686
0.0149213
0.0151723
0.0154214
0.0156685
0.0159137
0.0161569
0.016398
0.0166369
0.0168736
0.0171081
0.0173402
0.01757
0.0177972
0.018022
0.0182443
0.0184639
0.0186808
0.0188949
0.0191063
0.0193148
0.0195204
0.019723
0.0199225
0.020119
0.0203122
0.0205023
0.0206892
0.0208727
0.0210528
0.0212295
0.0214027
0.0215724
0.0217386
0.0219011
0.0220599
0.022215
0.0223664
0.0225139
0.0226576
0.0227974
0.0229333
0.0230652
0.0231932
0.0233171
0.0234369
0.0235527
0.0236643
0.0237717
0.023875
0.0239741
0.024069
0.0241596
0.024246
0.0243281
0.0244059
0.0244793
0.0245485
0.0246133
0.0246738
0.0247299
0.0247816
0.024829
0.0248721
0.0249107
0.024945
0.0249749
0.0250005
0.0250217
0.0250385
0.025051
0.0250591
0.0250629
0.0250624
0.0250576
0.0250484
0.025035
0.0250173
0.0249954
0.0249692
0.0249388
0.0249041
0.0248653
0.0248224
0.0247752
0.024724
0.0246687
0.0246093
0.0245458
0.0244783
0.0244069
0.0243314
0.024252
0.0241687
0.0240815
0.0239905
0.0238956
0.023797
0.0236946
0.0235884
0.0234786
0.0233651
0.023248
0.0231273
0.023003
0.0228752
0.022744
0.0226093
0.0224712
0.0223297
0.0221849
0.0220368
0.0218855
0.0217309
0.0215733
0.0214124
0.0212486
0.0210816
0.0209117
0.0207389
0.0205631
0.0203845
0.020203
0.0200188
0.0198319
0.0196423
0.0194501
0.0192553
0.0190579
0.0188581
0.0186558
0.0184511
0.0182441
0.0180347
0.0178232
0.0176094
0.0173934
0.0171753
0.0169552
0.0167331
0.0165089
0.0162829
0.016055
0.0158252
0.0155937
0.0153604
0.0151254
0.0148888
0.0146505
0.0144107
0.0141694
0.0139266
0.0136824
0.0134368
0.0131898
0.0129416
0.012692
0.0124413
0.0121893
0.0119362
0.011682
0.0114267
0.0111704
0.010913
0.0106548
0.0103955
0.0101354
0.00987446
0.00961266
0.00935006
0.0090867
0.0088226
0.0085578
0.00829233
0.00802621
0.00775947
0.00749214
0.00722425
0.00695583
0.00668689
0.00641747
0.00614759
0.00587727
0.00560654
0.00533542
0.00506393
0.0047921
0.00451994
0.00424748
0.00397474
0.00370173
0.00342848
0.00315501
0.00288133
0.00260747
0.00233344
0.00205927
0.00178496
0.00151054
0.00123603
0.000961433
0.00068678
0.000412085
0.000137365
0.000162221
0.000486653
0.000811054
0.0011354
0.00145968
0.00178386
0.00210793
0.00243186
0.00275564
0.00307923
0.00340262
0.00372579
0.00404871
0.00437135
0.0046937
0.00501572
0.0053374
0.00565871
0.00597961
0.00630009
0.00662011
0.00693964
0.00725866
0.00757713
0.00789502
0.0082123
0.00852894
0.00884489
0.00916013
0.00947462
0.00978832
0.0101012
0.0104132
0.0107243
0.0110344
0.0113436
0.0116517
0.0119587
0.0122646
0.0125694
0.0128729
0.0131751
0.013476
0.0137755
0.0140736
0.0143702
0.0146653
0.0149587
0.0152506
0.0155407
0.015829
0.0161155
0.0164002
0.0166828
0.0169635
0.0172421
0.0175185
0.0177928
0.0180647
0.0183344
0.0186016
0.0188664
0.0191286
0.0193882
0.0196452
0.0198995
0.0201509
0.0203995
0.0206451
0.0208877
0.0211273
0.0213637
0.0215969
0.0218269
0.0220535
0.0222767
0.0224965
0.0227127
0.0229253
0.0231343
0.0233396
0.0235411
0.0237387
0.0239325
0.0241223
0.0243082
0.02449
0.0246676
0.0248411
0.0250104
0.0251755
0.0253362
0.0254926
0.0256446
0.0257922
0.0259353
0.0260739
0.0262079
0.0263374
0.0264622
0.0265824
0.0266979
0.0268088
0.0269149
0.0270162
0.0271128
0.0272046
0.0272916
0.0273737
0.0274511
0.0275235
0.0275911
0.0276539
0.0277117
0.0277647
0.0278128
0.027856
0.0278943
0.0279278
0.0279563
0.02798
0.0279988
0.0280127
0.0280218
0.028026
0.0280254
0.0280199
0.0280097
0.0279946
0.0279748
0.0279502
0.0279209
0.0278868
0.027848
0.0278046
0.0277565
0.0277038
0.0276464
0.0275845
0.027518
0.027447
0.0273715
0.0272916
0.0272071
0.0271183
0.0270251
0.0269276
0.0268257
0.0267196
0.0266092
0.0264947
0.0263759
0.026253
0.0261261
0.0259951
0.02586
0.025721
0.0255781
0.0254313
0.0252806
0.0251261
0.0249678
0.0248059
0.0246402
0.024471
0.0242981
0.0241217
0.0239419
0.0237585
0.0235718
0.0233818
0.0231884
0.0229919
0.0227921
0.0225891
0.0223831
0.022174
0.021962
0.021747
0.0215291
0.0213084
0.0210848
0.0208586
0.0206297
0.0203981
0.020164
0.0199274
0.0196883
0.0194468
0.0192029
0.0189567
0.0187083
0.0184576
0.0182048
0.0179499
0.017693
0.0174341
0.0171732
0.0169104
0.0166458
0.0163794
0.0161112
0.0158414
0.0155699
0.0152968
0.0150221
0.014746
0.0144683
0.0141893
0.0139089
0.0136272
0.0133442
0.0130599
0.0127745
0.0124879
0.0122002
0.0119114
0.0116216
0.0113307
0.0110389
0.0107462
0.0104526
0.0101582
0.00986292
0.00956687
0.00927006
0.00897254
0.00867433
0.00837546
0.00807597
0.00777588
0.00747522
0.00717402
0.00687231
0.00657011
0.00626745
0.00596436
0.00566086
0.00535697
0.00505272
0.00474814
0.00444324
0.00413805
0.00383258
0.00352687
0.00322094
0.00291479
0.00260847
0.00230197
0.00199533
0.00168857
0.0013817
0.00107475
0.000767722
0.000460652
0.000153554
0.000179336
0.000537996
0.000896622
0.00125519
0.00161368
0.00197207
0.00233033
0.00268844
0.00304638
0.00340412
0.00376164
0.00411891
0.0044759
0.0048326
0.00518897
0.00554499
0.00590063
0.00625585
0.00661064
0.00696496
0.00731877
0.00767205
0.00802476
0.00837687
0.00872835
0.00907915
0.00942925
0.00977859
0.0101272
0.0104749
0.0108218
0.0111677
0.0115127
0.0118567
0.0121996
0.0125415
0.0128822
0.0132217
0.01356
0.013897
0.0142326
0.0145669
0.0148996
0.0152309
0.0155605
0.0158886
0.0162149
0.0165395
0.0168622
0.0171831
0.017502
0.0178189
0.0181337
0.0184464
0.0187568
0.0190649
0.0193707
0.019674
0.0199749
0.0202731
0.0205688
0.0208616
0.0211517
0.0214389
0.0217232
0.0220045
0.0222826
0.0225576
0.0228293
0.0230977
0.0233628
0.0236243
0.0238823
0.0241367
0.0243874
0.0246344
0.0248775
0.0251167
0.025352
0.0255832
0.0258103
0.0260332
0.0262519
0.0264663
0.0266763
0.0268819
0.027083
0.0272795
0.0274715
0.0276588
0.0278414
0.0280192
0.0281922
0.0283604
0.0285236
0.0286819
0.0288352
0.0289835
0.0291267
0.0292648
0.0293978
0.0295255
0.0296481
0.0297655
0.0298776
0.0299844
0.0300859
0.0301821
0.030273
0.0303585
0.0304386
0.0305134
0.0305828
0.0306467
0.0307053
0.0307585
0.0308062
0.0308486
0.0308855
0.030917
0.0309432
0.0309639
0.0309793
0.0309893
0.0309939
0.0309932
0.0309871
0.0309757
0.030959
0.030937
0.0309098
0.0308773
0.0308396
0.0307966
0.0307485
0.0306953
0.0306369
0.0305735
0.0305049
0.0304313
0.0303528
0.0302692
0.0301807
0.0300873
0.029989
0.0298859
0.0297779
0.0296652
0.0295478
0.0294257
0.0292989
0.0291675
0.0290316
0.0288911
0.0287462
0.0285968
0.028443
0.0282848
0.0281224
0.0279557
0.0277848
0.0276097
0.0274305
0.0272473
0.02706
0.0268688
0.0266737
0.0264747
0.0262719
0.0260654
0.0258552
0.0256413
0.0254238
0.0252028
0.0249783
0.0247504
0.0245192
0.0242846
0.0240468
0.0238057
0.0235616
0.0233144
0.0230641
0.0228109
0.0225548
0.0222958
0.0220341
0.0217696
0.0215025
0.0212328
0.0209605
0.0206857
0.0204085
0.0201289
0.0198469
0.0195628
0.0192764
0.0189879
0.0186972