/*--------------------------------*- C++ -*----------------------------------*\
| =========                 |                                                 |
| \\      /  F ield         | OpenFOAM: The Open Source CFD Toolbox           |
|  \\    /   O peration     | Version:  v2012                                 |
|   \\  /    A nd           | Website:  www.openfoam.com                      |
|    \\/     M anipulation  |                                                 |
\*---------------------------------------------------------------------------*/
FoamFile
{
    version     2.0;
    format      ascii;
    class       volVectorField;
    location    "1.4";
    object      U;
}
// * * * * * * * * * * * * * * * * * * * * * * * * * * * * * * * * * * * * * //

dimensions      [0 1 -1 0 0 0 0];


internalField   nonuniform List<vector> 
65536
(
(0.000693638 -0.000693617 0)
(0.00208087 -0.000693569 0)
(0.00346795 -0.000693477 0)
(0.00485481 -0.000693339 0)
(0.00624135 -0.000693155 0)
(0.00762748 -0.000692924 0)
(0.00901309 -0.000692646 0)
(0.0103981 -0.00069232 0)
(0.0117824 -0.000691946 0)
(0.0131659 -0.000691523 0)
(0.0145486 -0.000691049 0)
(0.0159302 -0.000690525 0)
(0.0173107 -0.000689949 0)
(0.01869 -0.00068932 0)
(0.020068 -0.000688637 0)
(0.0214446 -0.000687898 0)
(0.0228197 -0.000687103 0)
(0.0241931 -0.00068625 0)
(0.0255647 -0.000685337 0)
(0.0269345 -0.000684363 0)
(0.0283022 -0.000683327 0)
(0.0296679 -0.000682226 0)
(0.0310312 -0.000681059 0)
(0.0323922 -0.000679824 0)
(0.0337506 -0.00067852 0)
(0.0351063 -0.000677144 0)
(0.0364592 -0.000675694 0)
(0.0378092 -0.000674168 0)
(0.039156 -0.000672565 0)
(0.0404995 -0.000670882 0)
(0.0418396 -0.000669117 0)
(0.043176 -0.000667268 0)
(0.0445087 -0.000665333 0)
(0.0458375 -0.000663309 0)
(0.047162 -0.000661194 0)
(0.0484823 -0.000658986 0)
(0.0497981 -0.000656683 0)
(0.0511091 -0.000654283 0)
(0.0524153 -0.000651782 0)
(0.0537164 -0.00064918 0)
(0.0550121 -0.000646473 0)
(0.0563024 -0.00064366 0)
(0.0575869 -0.000640737 0)
(0.0588654 -0.000637704 0)
(0.0601378 -0.000634558 0)
(0.0614038 -0.000631297 0)
(0.0626631 -0.000627918 0)
(0.0639156 -0.00062442 0)
(0.0651609 -0.000620801 0)
(0.0663989 -0.000617059 0)
(0.0676293 -0.000613191 0)
(0.0688518 -0.000609197 0)
(0.0700662 -0.000605074 0)
(0.0712722 -0.000600822 0)
(0.0724696 -0.000596438 0)
(0.0736581 -0.000591921 0)
(0.0748374 -0.00058727 0)
(0.0760073 -0.000582483 0)
(0.0771675 -0.00057756 0)
(0.0783177 -0.000572499 0)
(0.0794576 -0.0005673 0)
(0.080587 -0.000561961 0)
(0.0817056 -0.000556483 0)
(0.0828131 -0.000550865 0)
(0.0839092 -0.000545106 0)
(0.0849937 -0.000539206 0)
(0.0860662 -0.000533166 0)
(0.0871265 -0.000526985 0)
(0.0881742 -0.000520663 0)
(0.0892093 -0.000514201 0)
(0.0902312 -0.000507599 0)
(0.0912398 -0.000500858 0)
(0.0922348 -0.000493979 0)
(0.0932158 -0.000486963 0)
(0.0941828 -0.000479811 0)
(0.0951352 -0.000472523 0)
(0.096073 -0.000465103 0)
(0.0969958 -0.00045755 0)
(0.0979033 -0.000449867 0)
(0.0987954 -0.000442056 0)
(0.0996717 -0.000434119 0)
(0.100532 -0.000426057 0)
(0.101376 -0.000417873 0)
(0.102204 -0.00040957 0)
(0.103014 -0.00040115 0)
(0.103808 -0.000392615 0)
(0.104585 -0.000383969 0)
(0.105344 -0.000375214 0)
(0.106086 -0.000366353 0)
(0.10681 -0.000357389 0)
(0.107516 -0.000348326 0)
(0.108203 -0.000339166 0)
(0.108872 -0.000329914 0)
(0.109523 -0.000320572 0)
(0.110155 -0.000311144 0)
(0.110768 -0.000301633 0)
(0.111361 -0.000292044 0)
(0.111936 -0.000282379 0)
(0.112491 -0.000272643 0)
(0.113027 -0.000262838 0)
(0.113542 -0.00025297 0)
(0.114038 -0.000243041 0)
(0.114515 -0.000233056 0)
(0.114971 -0.000223019 0)
(0.115407 -0.000212932 0)
(0.115823 -0.0002028 0)
(0.116218 -0.000192627 0)
(0.116593 -0.000182416 0)
(0.116948 -0.000172171 0)
(0.117282 -0.000161896 0)
(0.117595 -0.000151594 0)
(0.117888 -0.00014127 0)
(0.11816 -0.000130926 0)
(0.118412 -0.000120567 0)
(0.118643 -0.000110195 0)
(0.118853 -9.9815e-05 0)
(0.119042 -8.94292e-05 0)
(0.11921 -7.90414e-05 0)
(0.119358 -6.86547e-05 0)
(0.119485 -5.82724e-05 0)
(0.119591 -4.78976e-05 0)
(0.119677 -3.75334e-05 0)
(0.119741 -2.71828e-05 0)
(0.119785 -1.68488e-05 0)
(0.119809 -6.53415e-06 0)
(0.119811 3.75825e-06 0)
(0.119794 1.40257e-05 0)
(0.119755 2.42655e-05 0)
(0.119697 3.4475e-05 0)
(0.119617 4.46517e-05 0)
(0.119518 5.47931e-05 0)
(0.119398 6.48968e-05 0)
(0.119258 7.49604e-05 0)
(0.119098 8.49816e-05 0)
(0.118918 9.49581e-05 0)
(0.118718 0.000104888 0)
(0.118499 0.000114768 0)
(0.118259 0.000124598 0)
(0.118 0.000134374 0)
(0.117722 0.000144095 0)
(0.117424 0.000153758 0)
(0.117107 0.000163363 0)
(0.11677 0.000172906 0)
(0.116415 0.000182386 0)
(0.116041 0.000191801 0)
(0.115648 0.00020115 0)
(0.115236 0.00021043 0)
(0.114806 0.00021964 0)
(0.114357 0.000228778 0)
(0.113891 0.000237842 0)
(0.113406 0.000246831 0)
(0.112903 0.000255742 0)
(0.112383 0.000264575 0)
(0.111845 0.000273328 0)
(0.11129 0.000281999 0)
(0.110717 0.000290586 0)
(0.110127 0.000299088 0)
(0.10952 0.000307503 0)
(0.108897 0.00031583 0)
(0.108257 0.000324068 0)
(0.107601 0.000332215 0)
(0.106928 0.000340269 0)
(0.10624 0.000348229 0)
(0.105535 0.000356094 0)
(0.104815 0.000363862 0)
(0.10408 0.000371533 0)
(0.103329 0.000379104 0)
(0.102563 0.000386575 0)
(0.101782 0.000393944 0)
(0.100987 0.000401211 0)
(0.100177 0.000408374 0)
(0.0993536 0.000415432 0)
(0.0985157 0.000422384 0)
(0.0976639 0.00042923 0)
(0.0967986 0.000435968 0)
(0.09592 0.000442598 0)
(0.0950281 0.000449118 0)
(0.0941234 0.000455529 0)
(0.0932059 0.000461829 0)
(0.092276 0.000468018 0)
(0.0913337 0.000474095 0)
(0.0903795 0.00048006 0)
(0.0894134 0.000485913 0)
(0.0884357 0.000491653 0)
(0.0874467 0.00049728 0)
(0.0864465 0.000502794 0)
(0.0854354 0.000508195 0)
(0.0844136 0.000513483 0)
(0.0833813 0.000518658 0)
(0.0823388 0.000523719 0)
(0.0812863 0.000528669 0)
(0.080224 0.000533505 0)
(0.0791522 0.00053823 0)
(0.078071 0.000542843 0)
(0.0769807 0.000547344 0)
(0.0758815 0.000551736 0)
(0.0747737 0.000556017 0)
(0.0736573 0.00056019 0)
(0.0725328 0.000564254 0)
(0.0714002 0.00056821 0)
(0.0702598 0.00057206 0)
(0.0691119 0.000575805 0)
(0.0679565 0.000579445 0)
(0.066794 0.000582981 0)
(0.0656245 0.000586416 0)
(0.0644482 0.000589749 0)
(0.0632654 0.000592982 0)
(0.0620762 0.000596117 0)
(0.0608808 0.000599155 0)
(0.0596795 0.000602096 0)
(0.0584723 0.000604944 0)
(0.0572596 0.000607698 0)
(0.0560415 0.000610361 0)
(0.0548181 0.000612934 0)
(0.0535896 0.000615419 0)
(0.0523563 0.000617817 0)
(0.0511183 0.000620129 0)
(0.0498757 0.000622358 0)
(0.0486288 0.000624504 0)
(0.0473776 0.00062657 0)
(0.0461224 0.000628557 0)
(0.0448633 0.000630467 0)
(0.0436005 0.000632301 0)
(0.042334 0.00063406 0)
(0.0410641 0.000635747 0)
(0.039791 0.000637363 0)
(0.0385146 0.00063891 0)
(0.0372352 0.000640388 0)
(0.035953 0.0006418 0)
(0.034668 0.000643148 0)
(0.0333803 0.000644431 0)
(0.0320902 0.000645653 0)
(0.0307977 0.000646814 0)
(0.0295029 0.000647915 0)
(0.0282059 0.000648959 0)
(0.026907 0.000649945 0)
(0.0256061 0.000650877 0)
(0.0243034 0.000651754 0)
(0.022999 0.000652577 0)
(0.0216931 0.000653349 0)
(0.0203856 0.00065407 0)
(0.0190767 0.00065474 0)
(0.0177666 0.000655362 0)
(0.0164552 0.000655935 0)
(0.0151428 0.000656462 0)
(0.0138293 0.000656941 0)
(0.012515 0.000657375 0)
(0.0111998 0.000657763 0)
(0.00988386 0.000658106 0)
(0.0085673 0.000658406 0)
(0.00725019 0.000658662 0)
(0.00593261 0.000658875 0)
(0.00461464 0.000659045 0)
(0.00329638 0.000659171 0)
(0.00197791 0.000659255 0)
(0.000659319 0.000659298 0)
(0.000693681 -0.00208089 0)
(0.002081 -0.00208075 0)
(0.00346818 -0.00208047 0)
(0.00485513 -0.00208006 0)
(0.00624176 -0.00207951 0)
(0.00762797 -0.00207882 0)
(0.00901368 -0.00207798 0)
(0.0103988 -0.002077 0)
(0.0117832 -0.00207588 0)
(0.0131668 -0.00207461 0)
(0.0145495 -0.00207319 0)
(0.0159313 -0.00207162 0)
(0.0173119 -0.0020699 0)
(0.0186913 -0.00206801 0)
(0.0200694 -0.00206596 0)
(0.0214461 -0.00206375 0)
(0.0228213 -0.00206136 0)
(0.0241948 -0.0020588 0)
(0.0255666 -0.00205607 0)
(0.0269365 -0.00205315 0)
(0.0283043 -0.00205004 0)
(0.0296701 -0.00204674 0)
(0.0310336 -0.00204324 0)
(0.0323946 -0.00203954 0)
(0.0337532 -0.00203563 0)
(0.0351091 -0.0020315 0)
(0.0364621 -0.00202715 0)
(0.0378122 -0.00202258 0)
(0.0391592 -0.00201777 0)
(0.0405029 -0.00201272 0)
(0.0418431 -0.00200743 0)
(0.0431798 -0.00200189 0)
(0.0445126 -0.00199608 0)
(0.0458415 -0.00199001 0)
(0.0471663 -0.00198367 0)
(0.0484868 -0.00197705 0)
(0.0498027 -0.00197014 0)
(0.051114 -0.00196295 0)
(0.0524203 -0.00195545 0)
(0.0537216 -0.00194764 0)
(0.0550176 -0.00193952 0)
(0.056308 -0.00193109 0)
(0.0575928 -0.00192232 0)
(0.0588715 -0.00191322 0)
(0.0601441 -0.00190379 0)
(0.0614103 -0.00189401 0)
(0.0626699 -0.00188387 0)
(0.0639226 -0.00187338 0)
(0.0651682 -0.00186252 0)
(0.0664064 -0.0018513 0)
(0.067637 -0.0018397 0)
(0.0688598 -0.00182772 0)
(0.0700745 -0.00181535 0)
(0.0712808 -0.0018026 0)
(0.0724784 -0.00178945 0)
(0.0736672 -0.0017759 0)
(0.0748468 -0.00176194 0)
(0.0760169 -0.00174758 0)
(0.0771774 -0.00173282 0)
(0.0783279 -0.00171763 0)
(0.0794681 -0.00170204 0)
(0.0805977 -0.00168602 0)
(0.0817166 -0.00166959 0)
(0.0828244 -0.00165274 0)
(0.0839208 -0.00163546 0)
(0.0850055 -0.00161776 0)
(0.0860783 -0.00159964 0)
(0.0871389 -0.00158109 0)
(0.0881869 -0.00156213 0)
(0.0892222 -0.00154274 0)
(0.0902445 -0.00152294 0)
(0.0912533 -0.00150271 0)
(0.0922486 -0.00148208 0)
(0.0932299 -0.00146103 0)
(0.0941971 -0.00143957 0)
(0.0951498 -0.0014177 0)
(0.0960879 -0.00139544 0)
(0.0970109 -0.00137278 0)
(0.0979187 -0.00134973 0)
(0.098811 -0.0013263 0)
(0.0996876 -0.00130248 0)
(0.100548 -0.00127829 0)
(0.101392 -0.00125374 0)
(0.10222 -0.00122883 0)
(0.103031 -0.00120357 0)
(0.103825 -0.00117796 0)
(0.104602 -0.00115202 0)
(0.105362 -0.00112575 0)
(0.106104 -0.00109916 0)
(0.106828 -0.00107227 0)
(0.107534 -0.00104508 0)
(0.108222 -0.00101759 0)
(0.108891 -0.000989834 0)
(0.109542 -0.000961804 0)
(0.110174 -0.000933517 0)
(0.110787 -0.000904981 0)
(0.111381 -0.000876209 0)
(0.111955 -0.000847211 0)
(0.11251 -0.000817998 0)
(0.113046 -0.000788582 0)
(0.113562 -0.000758974 0)
(0.114058 -0.000729184 0)
(0.114535 -0.000699225 0)
(0.114991 -0.000669108 0)
(0.115427 -0.000638844 0)
(0.115843 -0.000608444 0)
(0.116238 -0.000577921 0)
(0.116613 -0.000547284 0)
(0.116968 -0.000516546 0)
(0.117302 -0.000485718 0)
(0.117616 -0.00045481 0)
(0.117909 -0.000423833 0)
(0.118181 -0.000392799 0)
(0.118433 -0.000361717 0)
(0.118663 -0.000330599 0)
(0.118873 -0.000299454 0)
(0.119063 -0.000268294 0)
(0.119231 -0.000237127 0)
(0.119379 -0.000205964 0)
(0.119506 -0.000174814 0)
(0.119612 -0.000143686 0)
(0.119697 -0.000112591 0)
(0.119762 -8.1536e-05 0)
(0.119806 -5.0531e-05 0)
(0.119829 -1.95844e-05 0)
(0.119832 1.12956e-05 0)
(0.119814 4.21005e-05 0)
(0.119776 7.28225e-05 0)
(0.119717 0.000103454 0)
(0.119638 0.000133986 0)
(0.119538 0.000164413 0)
(0.119418 0.000194727 0)
(0.119278 0.00022492 0)
(0.119118 0.000254985 0)
(0.118938 0.000284917 0)
(0.118738 0.000314708 0)
(0.118518 0.000344352 0)
(0.118279 0.000373842 0)
(0.11802 0.000403173 0)
(0.117741 0.000432337 0)
(0.117443 0.00046133 0)
(0.117126 0.000490145 0)
(0.116789 0.000518777 0)
(0.116434 0.000547219 0)
(0.11606 0.000575467 0)
(0.115666 0.000603515 0)
(0.115255 0.000631357 0)
(0.114824 0.000658988 0)
(0.114376 0.000686404 0)
(0.113909 0.000713598 0)
(0.113424 0.000740566 0)
(0.112921 0.000767303 0)
(0.112401 0.000793803 0)
(0.111862 0.000820063 0)
(0.111307 0.000846076 0)
(0.110734 0.000871839 0)
(0.110144 0.000897347 0)
(0.109537 0.000922594 0)
(0.108914 0.000947578 0)
(0.108273 0.000972292 0)
(0.107617 0.000996733 0)
(0.106944 0.0010209 0)
(0.106255 0.00104478 0)
(0.105551 0.00106838 0)
(0.104831 0.00109168 0)
(0.104095 0.00111469 0)
(0.103344 0.00113741 0)
(0.102578 0.00115982 0)
(0.101797 0.00118193 0)
(0.101002 0.00120373 0)
(0.100192 0.00122522 0)
(0.0993676 0.0012464 0)
(0.0985295 0.00126726 0)
(0.0976776 0.0012878 0)
(0.0968121 0.00130801 0)
(0.0959332 0.0013279 0)
(0.0950411 0.00134746 0)
(0.0941361 0.0013667 0)
(0.0932185 0.0013856 0)
(0.0922883 0.00140416 0)
(0.0913458 0.0014224 0)
(0.0903913 0.00144029 0)
(0.089425 0.00145785 0)
(0.0884471 0.00147507 0)
(0.0874579 0.00149195 0)
(0.0864574 0.0015085 0)
(0.0854461 0.0015247 0)
(0.0844241 0.00154056 0)
(0.0833916 0.00155609 0)
(0.0823489 0.00157127 0)
(0.0812962 0.00158612 0)
(0.0802337 0.00160063 0)
(0.0791616 0.0016148 0)
(0.0780802 0.00162864 0)
(0.0769897 0.00164214 0)
(0.0758903 0.00165532 0)
(0.0747822 0.00166816 0)
(0.0736656 0.00168068 0)
(0.0725409 0.00169287 0)
(0.0714081 0.00170474 0)
(0.0702675 0.00171629 0)
(0.0691193 0.00172752 0)
(0.0679638 0.00173844 0)
(0.066801 0.00174905 0)
(0.0656313 0.00175935 0)
(0.0644549 0.00176935 0)
(0.0632718 0.00177905 0)
(0.0620824 0.00178845 0)
(0.0608869 0.00179756 0)
(0.0596853 0.00180638 0)
(0.058478 0.00181493 0)
(0.0572651 0.00182319 0)
(0.0560468 0.00183118 0)
(0.0548232 0.00183889 0)
(0.0535946 0.00184635 0)
(0.0523611 0.00185354 0)
(0.0511229 0.00186047 0)
(0.0498801 0.00186716 0)
(0.048633 0.0018736 0)
(0.0473817 0.00187979 0)
(0.0461263 0.00188575 0)
(0.0448671 0.00189148 0)
(0.0436041 0.00189698 0)
(0.0423375 0.00190226 0)
(0.0410675 0.00190732 0)
(0.0397942 0.00191216 0)
(0.0385177 0.0019168 0)
(0.0372382 0.00192123 0)
(0.0359558 0.00192547 0)
(0.0346706 0.00192951 0)
(0.0333829 0.00193336 0)
(0.0320926 0.00193702 0)
(0.0308 0.0019405 0)
(0.029505 0.00194381 0)
(0.028208 0.00194694 0)
(0.0269089 0.00194989 0)
(0.0256079 0.00195269 0)
(0.0243051 0.00195532 0)
(0.0230006 0.00195779 0)
(0.0216946 0.0019601 0)
(0.020387 0.00196226 0)
(0.019078 0.00196427 0)
(0.0177678 0.00196614 0)
(0.0164563 0.00196786 0)
(0.0151438 0.00196943 0)
(0.0138302 0.00197087 0)
(0.0125158 0.00197217 0)
(0.0112005 0.00197334 0)
(0.00988451 0.00197437 0)
(0.00856787 0.00197526 0)
(0.00725066 0.00197603 0)
(0.005933 0.00197667 0)
(0.00461494 0.00197718 0)
(0.0032966 0.00197756 0)
(0.00197804 0.00197781 0)
(0.000659361 0.00197794 0)
(0.000693773 -0.00346829 0)
(0.00208127 -0.00346806 0)
(0.00346864 -0.00346761 0)
(0.00485577 -0.00346692 0)
(0.00624259 -0.003466 0)
(0.00762899 -0.00346485 0)
(0.00901489 -0.00346346 0)
(0.0104002 -0.00346183 0)
(0.0117848 -0.00345997 0)
(0.0131686 -0.00345785 0)
(0.0145515 -0.00345549 0)
(0.0159335 -0.00345288 0)
(0.0173143 -0.00345 0)
(0.0186939 -0.00344686 0)
(0.0200723 -0.00344345 0)
(0.0214492 -0.00343977 0)
(0.0228246 -0.0034358 0)
(0.0241984 -0.00343154 0)
(0.0255704 -0.00342698 0)
(0.0269405 -0.00342212 0)
(0.0283086 -0.00341695 0)
(0.0296746 -0.00341145 0)
(0.0310384 -0.00340563 0)
(0.0323997 -0.00339946 0)
(0.0337586 -0.00339295 0)
(0.0351147 -0.00338608 0)
(0.0364681 -0.00337884 0)
(0.0378185 -0.00337122 0)
(0.0391658 -0.00336322 0)
(0.0405098 -0.00335481 0)
(0.0418504 -0.003346 0)
(0.0431874 -0.00333677 0)
(0.0445206 -0.0033271 0)
(0.0458498 -0.00331699 0)
(0.047175 -0.00330643 0)
(0.0484958 -0.0032954 0)
(0.0498122 -0.0032839 0)
(0.0511238 -0.00327191 0)
(0.0524306 -0.00325942 0)
(0.0537323 -0.00324642 0)
(0.0550286 -0.00323289 0)
(0.0563195 -0.00321884 0)
(0.0576047 -0.00320424 0)
(0.0588839 -0.00318908 0)
(0.060157 -0.00317336 0)
(0.0614236 -0.00315707 0)
(0.0626837 -0.00314018 0)
(0.0639369 -0.0031227 0)
(0.0651829 -0.00310462 0)
(0.0664217 -0.00308591 0)
(0.0676528 -0.00306659 0)
(0.0688761 -0.00304662 0)
(0.0700913 -0.00302602 0)
(0.0712981 -0.00300477 0)
(0.0724963 -0.00298285 0)
(0.0736855 -0.00296027 0)
(0.0748657 -0.00293702 0)
(0.0760364 -0.0029131 0)
(0.0771974 -0.00288848 0)
(0.0783484 -0.00286319 0)
(0.0794892 -0.00283719 0)
(0.0806194 -0.0028105 0)
(0.0817388 -0.00278312 0)
(0.0828472 -0.00275503 0)
(0.0839441 -0.00272623 0)
(0.0850294 -0.00269674 0)
(0.0861028 -0.00266653 0)
(0.0871639 -0.00263563 0)
(0.0882126 -0.00260402 0)
(0.0892484 -0.0025717 0)
(0.0902712 -0.00253869 0)
(0.0912806 -0.00250498 0)
(0.0922764 -0.00247058 0)
(0.0932583 -0.0024355 0)
(0.094226 -0.00239973 0)
(0.0951793 -0.00236329 0)
(0.0961179 -0.00232618 0)
(0.0970414 -0.0022884 0)
(0.0979498 -0.00224998 0)
(0.0988426 -0.00221092 0)
(0.0997196 -0.00217122 0)
(0.100581 -0.0021309 0)
(0.101425 -0.00208997 0)
(0.102254 -0.00204844 0)
(0.103065 -0.00200633 0)
(0.10386 -0.00196364 0)
(0.104637 -0.00192039 0)
(0.105397 -0.0018766 0)
(0.106139 -0.00183228 0)
(0.106864 -0.00178745 0)
(0.10757 -0.00174212 0)
(0.108258 -0.0016963 0)
(0.108928 -0.00165002 0)
(0.109579 -0.00160329 0)
(0.110212 -0.00155614 0)
(0.110825 -0.00150857 0)
(0.111419 -0.0014606 0)
(0.111994 -0.00141226 0)
(0.11255 -0.00136356 0)
(0.113086 -0.00131452 0)
(0.113602 -0.00126516 0)
(0.114098 -0.0012155 0)
(0.114575 -0.00116555 0)
(0.115031 -0.00111534 0)
(0.115467 -0.00106489 0)
(0.115883 -0.00101421 0)
(0.116279 -0.000963327 0)
(0.116654 -0.000912254 0)
(0.117009 -0.000861012 0)
(0.117343 -0.000809619 0)
(0.117657 -0.000758093 0)
(0.11795 -0.000706453 0)
(0.118222 -0.000654718 0)
(0.118474 -0.000602903 0)
(0.118705 -0.000551028 0)
(0.118915 -0.00049911 0)
(0.119104 -0.000447164 0)
(0.119273 -0.000395208 0)
(0.11942 -0.000343259 0)
(0.119547 -0.000291332 0)
(0.119653 -0.000239443 0)
(0.119739 -0.000187607 0)
(0.119803 -0.000135839 0)
(0.119847 -8.41545e-05 0)
(0.119871 -3.25674e-05 0)
(0.119873 1.89083e-05 0)
(0.119855 7.02588e-05 0)
(0.119817 0.000121471 0)
(0.119758 0.000172531 0)
(0.119678 0.000223427 0)
(0.119579 0.000274147 0)
(0.119459 0.000324677 0)
(0.119319 0.000375007 0)
(0.119158 0.000425124 0)
(0.118978 0.000475017 0)
(0.118778 0.000524676 0)
(0.118558 0.00057409 0)
(0.118318 0.000623247 0)
(0.118059 0.000672138 0)
(0.11778 0.000720752 0)
(0.117482 0.00076908 0)
(0.117164 0.000817112 0)
(0.116827 0.000864837 0)
(0.116472 0.000912248 0)
(0.116097 0.000959333 0)
(0.115704 0.00100609 0)
(0.115292 0.0010525 0)
(0.114861 0.00109855 0)
(0.114412 0.00114425 0)
(0.113945 0.00118958 0)
(0.11346 0.00123453 0)
(0.112957 0.0012791 0)
(0.112436 0.00132327 0)
(0.111897 0.00136704 0)
(0.111341 0.0014104 0)
(0.110768 0.00145335 0)
(0.110178 0.00149587 0)
(0.109571 0.00153795 0)
(0.108947 0.00157959 0)
(0.108306 0.00162079 0)
(0.107649 0.00166153 0)
(0.106976 0.00170181 0)
(0.106287 0.00174162 0)
(0.105582 0.00178095 0)
(0.104861 0.0018198 0)
(0.104125 0.00185815 0)
(0.103374 0.00189602 0)
(0.102608 0.00193338 0)
(0.101826 0.00197023 0)
(0.101031 0.00200657 0)
(0.10022 0.00204239 0)
(0.0993957 0.00207769 0)
(0.0985571 0.00211245 0)
(0.0977047 0.00214669 0)
(0.0968388 0.00218038 0)
(0.0959594 0.00221353 0)
(0.095067 0.00224614 0)
(0.0941616 0.00227819 0)
(0.0932434 0.0023097 0)
(0.0923128 0.00234064 0)
(0.0913699 0.00237103 0)
(0.090415 0.00240086 0)
(0.0894482 0.00243013 0)
(0.0884698 0.00245883 0)
(0.0874801 0.00248697 0)
(0.0864793 0.00251454 0)
(0.0854675 0.00254154 0)
(0.084445 0.00256798 0)
(0.0834121 0.00259385 0)
(0.0823689 0.00261916 0)
(0.0813157 0.0026439 0)
(0.0802528 0.00266809 0)
(0.0791802 0.00269171 0)
(0.0780984 0.00271477 0)
(0.0770074 0.00273728 0)
(0.0759076 0.00275923 0)
(0.0747991 0.00278063 0)
(0.0736821 0.00280149 0)
(0.0725569 0.00282181 0)
(0.0714237 0.00284159 0)
(0.0702827 0.00286083 0)
(0.0691341 0.00287955 0)
(0.0679781 0.00289774 0)
(0.0668149 0.00291542 0)
(0.0656448 0.00293259 0)
(0.064468 0.00294925 0)
(0.0632845 0.00296541 0)
(0.0620947 0.00298107 0)
(0.0608988 0.00299625 0)
(0.0596969 0.00301096 0)
(0.0584892 0.00302519 0)
(0.0572759 0.00303895 0)
(0.0560572 0.00305226 0)
(0.0548333 0.00306512 0)
(0.0536043 0.00307753 0)
(0.0523705 0.00308951 0)
(0.0511319 0.00310107 0)
(0.0498889 0.0031122 0)
(0.0486414 0.00312293 0)
(0.0473898 0.00313325 0)
(0.0461341 0.00314318 0)
(0.0448746 0.00315272 0)
(0.0436113 0.00316188 0)
(0.0423444 0.00317067 0)
(0.0410741 0.0031791 0)
(0.0398005 0.00318717 0)
(0.0385237 0.00319489 0)
(0.0372439 0.00320228 0)
(0.0359613 0.00320933 0)
(0.0346759 0.00321606 0)
(0.0333879 0.00322247 0)
(0.0320974 0.00322857 0)
(0.0308045 0.00323437 0)
(0.0295093 0.00323987 0)
(0.028212 0.00324508 0)
(0.0269127 0.00325001 0)
(0.0256115 0.00325466 0)
(0.0243085 0.00325904 0)
(0.0230038 0.00326315 0)
(0.0216975 0.00326701 0)
(0.0203898 0.00327061 0)
(0.0190806 0.00327395 0)
(0.0177702 0.00327706 0)
(0.0164585 0.00327992 0)
(0.0151458 0.00328255 0)
(0.0138321 0.00328494 0)
(0.0125174 0.00328711 0)
(0.011202 0.00328904 0)
(0.00988579 0.00329076 0)
(0.00856897 0.00329225 0)
(0.0072516 0.00329353 0)
(0.00593376 0.00329459 0)
(0.00461554 0.00329544 0)
(0.00329702 0.00329607 0)
(0.0019783 0.00329649 0)
(0.000659446 0.0032967 0)
(0.000693911 -0.00485593 0)
(0.00208169 -0.00485561 0)
(0.00346933 -0.00485497 0)
(0.00485674 -0.00485401 0)
(0.00624384 -0.00485273 0)
(0.00763053 -0.00485112 0)
(0.00901671 -0.00484918 0)
(0.0104023 -0.00484691 0)
(0.0117872 -0.0048443 0)
(0.0131713 -0.00484135 0)
(0.0145545 -0.00483805 0)
(0.0159368 -0.00483439 0)
(0.0173179 -0.00483037 0)
(0.0186979 -0.00482598 0)
(0.0200765 -0.00482122 0)
(0.0214538 -0.00481607 0)
(0.0228295 -0.00481052 0)
(0.0242037 -0.00480457 0)
(0.025576 -0.0047982 0)
(0.0269465 -0.00479141 0)
(0.028315 -0.00478418 0)
(0.0296814 -0.0047765 0)
(0.0310456 -0.00476835 0)
(0.0324074 -0.00475974 0)
(0.0337666 -0.00475063 0)
(0.0351232 -0.00474103 0)
(0.036477 -0.00473091 0)
(0.0378279 -0.00472026 0)
(0.0391757 -0.00470906 0)
(0.0405202 -0.00469731 0)
(0.0418612 -0.00468499 0)
(0.0431987 -0.00467208 0)
(0.0445325 -0.00465856 0)
(0.0458623 -0.00464442 0)
(0.047188 -0.00462965 0)
(0.0485094 -0.00461423 0)
(0.0498263 -0.00459814 0)
(0.0511385 -0.00458137 0)
(0.0524459 -0.0045639 0)
(0.0537482 -0.00454571 0)
(0.0550452 -0.0045268 0)
(0.0563368 -0.00450713 0)
(0.0576226 -0.00448671 0)
(0.0589025 -0.00446551 0)
(0.0601762 -0.00444352 0)
(0.0614436 -0.00442071 0)
(0.0627044 -0.00439709 0)
(0.0639583 -0.00437263 0)
(0.0652051 -0.00434733 0)
(0.0664445 -0.00432116 0)
(0.0676764 -0.00429411 0)
(0.0689005 -0.00426617 0)
(0.0701164 -0.00423734 0)
(0.071324 -0.00420759 0)
(0.072523 -0.00417692 0)
(0.0737131 -0.00414532 0)
(0.074894 -0.00411278 0)
(0.0760656 -0.00407929 0)
(0.0772274 -0.00404484 0)
(0.0783792 -0.00400943 0)
(0.0795208 -0.00397305 0)
(0.0806519 -0.00393569 0)
(0.0817722 -0.00389735 0)
(0.0828814 -0.00385802 0)
(0.0839792 -0.00381771 0)
(0.0850653 -0.00377642 0)
(0.0861395 -0.00373413 0)
(0.0872015 -0.00369086 0)
(0.088251 -0.0036466 0)
(0.0892877 -0.00360136 0)
(0.0903113 -0.00355514 0)
(0.0913215 -0.00350795 0)
(0.0923182 -0.00345978 0)
(0.0933009 -0.00341065 0)
(0.0942694 -0.00336057 0)
(0.0952235 -0.00330954 0)
(0.0961629 -0.00325757 0)
(0.0970872 -0.00320468 0)
(0.0979963 -0.00315087 0)
(0.0988899 -0.00309617 0)
(0.0997677 -0.00304058 0)
(0.100629 -0.00298411 0)
(0.101475 -0.00292679 0)
(0.102304 -0.00286864 0)
(0.103116 -0.00280966 0)
(0.103911 -0.00274988 0)
(0.104689 -0.00268931 0)
(0.10545 -0.00262798 0)
(0.106193 -0.00256591 0)
(0.106918 -0.00250312 0)
(0.107625 -0.00243964 0)
(0.108314 -0.00237547 0)
(0.108984 -0.00231066 0)
(0.109636 -0.00224522 0)
(0.110268 -0.00217917 0)
(0.110882 -0.00211254 0)
(0.111477 -0.00204537 0)
(0.112052 -0.00197766 0)
(0.112608 -0.00190946 0)
(0.113145 -0.00184077 0)
(0.113661 -0.00177164 0)
(0.114158 -0.00170209 0)
(0.114635 -0.00163214 0)
(0.115092 -0.00156182 0)
(0.115528 -0.00149116 0)
(0.115944 -0.00142019 0)
(0.11634 -0.00134892 0)
(0.116716 -0.00127739 0)
(0.117071 -0.00120563 0)
(0.117405 -0.00113365 0)
(0.117719 -0.00106149 0)
(0.118012 -0.000989169 0)
(0.118285 -0.000916714 0)
(0.118536 -0.00084415 0)
(0.118767 -0.0007715 0)
(0.118977 -0.00069879 0)
(0.119167 -0.000626043 0)
(0.119335 -0.000553282 0)
(0.119483 -0.000480531 0)
(0.11961 -0.000407811 0)
(0.119716 -0.000335144 0)
(0.119801 -0.000262553 0)
(0.119865 -0.000190058 0)
(0.119909 -0.000117679 0)
(0.119932 -4.54377e-05 0)
(0.119935 2.66474e-05 0)
(0.119917 9.85569e-05 0)
(0.119878 0.000170272 0)
(0.119819 0.000241774 0)
(0.119739 0.000313046 0)
(0.119639 0.00038407 0)
(0.119519 0.000454829 0)
(0.119379 0.000525307 0)
(0.119218 0.000595487 0)
(0.119038 0.000665354 0)
(0.118837 0.000734891 0)
(0.118617 0.000804085 0)
(0.118377 0.00087292 0)
(0.118117 0.000941381 0)
(0.117838 0.00100945 0)
(0.11754 0.00107713 0)
(0.117222 0.00114438 0)
(0.116885 0.00121121 0)
(0.116528 0.0012776 0)
(0.116153 0.00134353 0)
(0.11576 0.001409 0)
(0.115347 0.00147399 0)
(0.114916 0.00153848 0)
(0.114467 0.00160247 0)
(0.113999 0.00166594 0)
(0.113513 0.00172889 0)
(0.11301 0.00179129 0)
(0.112489 0.00185314 0)
(0.11195 0.00191444 0)
(0.111393 0.00197515 0)
(0.110819 0.00203528 0)
(0.110229 0.00209482 0)
(0.109621 0.00215375 0)
(0.108996 0.00221206 0)
(0.108355 0.00226974 0)
(0.107698 0.00232679 0)
(0.107024 0.00238319 0)
(0.106335 0.00243893 0)
(0.105629 0.002494 0)
(0.104908 0.0025484 0)
(0.104171 0.00260211 0)
(0.103419 0.00265513 0)
(0.102652 0.00270744 0)
(0.10187 0.00275904 0)
(0.101074 0.00280992 0)
(0.100263 0.00286008 0)
(0.0994377 0.0029095 0)
(0.0985985 0.00295818 0)
(0.0977455 0.00300611 0)
(0.0968789 0.00305329 0)
(0.0959989 0.00309971 0)
(0.0951057 0.00314536 0)
(0.0941997 0.00319025 0)
(0.0932809 0.00323435 0)
(0.0923496 0.00327768 0)
(0.091406 0.00332023 0)
(0.0904504 0.00336199 0)
(0.0894829 0.00340297 0)
(0.0885039 0.00344315 0)
(0.0875135 0.00348254 0)
(0.086512 0.00352114 0)
(0.0854995 0.00355895 0)
(0.0844763 0.00359596 0)
(0.0834427 0.00363219 0)
(0.0823989 0.00366761 0)
(0.081345 0.00370225 0)
(0.0802814 0.0037361 0)
(0.0792082 0.00376917 0)
(0.0781257 0.00380145 0)
(0.0770341 0.00383296 0)
(0.0759336 0.00386369 0)
(0.0748244 0.00389365 0)
(0.0737068 0.00392285 0)
(0.0725809 0.00395128 0)
(0.071447 0.00397897 0)
(0.0703054 0.0040059 0)
(0.0691562 0.0040321 0)
(0.0679996 0.00405756 0)
(0.0668358 0.0040823 0)
(0.0656651 0.00410633 0)
(0.0644876 0.00412964 0)
(0.0633036 0.00415226 0)
(0.0621132 0.00417418 0)
(0.0609167 0.00419543 0)
(0.0597142 0.004216 0)
(0.0585059 0.00423591 0)
(0.0572921 0.00425517 0)
(0.0560729 0.00427379 0)
(0.0548484 0.00429178 0)
(0.0536189 0.00430915 0)
(0.0523845 0.00432592 0)
(0.0511455 0.00434208 0)
(0.0499019 0.00435766 0)
(0.048654 0.00437266 0)
(0.0474019 0.0043871 0)
(0.0461458 0.00440099 0)
(0.0448857 0.00441433 0)
(0.043622 0.00442715 0)
(0.0423547 0.00443944 0)
(0.0410839 0.00445123 0)
(0.0398099 0.00446252 0)
(0.0385327 0.00447333 0)
(0.0372526 0.00448366 0)
(0.0359695 0.00449352 0)
(0.0346837 0.00450293 0)
(0.0333953 0.0045119 0)
(0.0321045 0.00452043 0)
(0.0308112 0.00452853 0)
(0.0295157 0.00453623 0)
(0.0282181 0.00454351 0)
(0.0269185 0.0045504 0)
(0.0256169 0.0045569 0)
(0.0243136 0.00456303 0)
(0.0230086 0.00456878 0)
(0.021702 0.00457417 0)
(0.0203939 0.0045792 0)
(0.0190845 0.00458388 0)
(0.0177737 0.00458822 0)
(0.0164618 0.00459222 0)
(0.0151488 0.00459589 0)
(0.0138348 0.00459924 0)
(0.0125199 0.00460226 0)
(0.0112042 0.00460497 0)
(0.00988771 0.00460737 0)
(0.00857063 0.00460946 0)
(0.007253 0.00461125 0)
(0.0059349 0.00461273 0)
(0.00461642 0.00461392 0)
(0.00329765 0.0046148 0)
(0.00197867 0.00461539 0)
(0.000659572 0.00461568 0)
(0.000694094 -0.00624389 0)
(0.00208224 -0.00624348 0)
(0.00347025 -0.00624266 0)
(0.00485803 -0.00624143 0)
(0.0062455 -0.00623978 0)
(0.00763256 -0.00623772 0)
(0.00901912 -0.00623523 0)
(0.0104051 -0.00623232 0)
(0.0117904 -0.00622897 0)
(0.0131749 -0.00622519 0)
(0.0145585 -0.00622095 0)
(0.0159412 -0.00621627 0)
(0.0173227 -0.00621111 0)
(0.0187031 -0.00620549 0)
(0.0200822 -0.00619938 0)
(0.0214599 -0.00619277 0)
(0.0228361 -0.00618566 0)
(0.0242107 -0.00617802 0)
(0.0255836 -0.00616985 0)
(0.0269546 -0.00616114 0)
(0.0283236 -0.00615186 0)
(0.0296905 -0.006142 0)
(0.0310552 -0.00613156 0)
(0.0324175 -0.0061205 0)
(0.0337773 -0.00610882 0)
(0.0351345 -0.00609649 0)
(0.0364889 -0.0060835 0)
(0.0378404 -0.00606984 0)
(0.0391888 -0.00605547 0)
(0.0405339 -0.00604039 0)
(0.0418757 -0.00602457 0)
(0.0432139 -0.00600799 0)
(0.0445483 -0.00599064 0)
(0.0458788 -0.00597249 0)
(0.0472052 -0.00595353 0)
(0.0485274 -0.00593373 0)
(0.0498451 -0.00591307 0)
(0.0511581 -0.00589153 0)
(0.0524663 -0.0058691 0)
(0.0537694 -0.00584574 0)
(0.0550673 -0.00582145 0)
(0.0563597 -0.00579619 0)
(0.0576464 -0.00576996 0)
(0.0589272 -0.00574273 0)
(0.0602019 -0.00571448 0)
(0.0614702 -0.00568519 0)
(0.0627319 -0.00565484 0)
(0.0639867 -0.00562342 0)
(0.0652345 -0.0055909 0)
(0.066475 -0.00555727 0)
(0.0677079 -0.00552252 0)
(0.068933 -0.00548662 0)
(0.0701499 -0.00544957 0)
(0.0713586 -0.00541134 0)
(0.0725586 -0.00537193 0)
(0.0737498 -0.00533132 0)
(0.0749318 -0.00528949 0)
(0.0761044 -0.00524644 0)
(0.0772674 -0.00520216 0)
(0.0784203 -0.00515664 0)
(0.079563 -0.00510987 0)
(0.0806952 -0.00506185 0)
(0.0818166 -0.00501256 0)
(0.0829269 -0.00496201 0)
(0.0840259 -0.00491018 0)
(0.0851131 -0.00485709 0)
(0.0861885 -0.00480272 0)
(0.0872516 -0.00474708 0)
(0.0883022 -0.00469018 0)
(0.08934 -0.004632 0)
(0.0903647 -0.00457257 0)
(0.0913761 -0.00451188 0)
(0.0923738 -0.00444994 0)
(0.0933577 -0.00438676 0)
(0.0943273 -0.00432235 0)
(0.0952824 -0.00425672 0)
(0.0962229 -0.00418989 0)
(0.0971483 -0.00412186 0)
(0.0980584 -0.00405266 0)
(0.098953 -0.00398231 0)
(0.0998318 -0.0039108 0)
(0.100695 -0.00383818 0)
(0.101541 -0.00376446 0)
(0.102371 -0.00368965 0)
(0.103184 -0.00361379 0)
(0.10398 -0.0035369 0)
(0.104759 -0.00345899 0)
(0.105521 -0.00338011 0)
(0.106264 -0.00330027 0)
(0.10699 -0.0032195 0)
(0.107698 -0.00313783 0)
(0.108388 -0.0030553 0)
(0.109059 -0.00297192 0)
(0.109711 -0.00288774 0)
(0.110344 -0.00280278 0)
(0.110959 -0.00271708 0)
(0.111554 -0.00263066 0)
(0.11213 -0.00254357 0)
(0.112687 -0.00245583 0)
(0.113223 -0.00236748 0)
(0.113741 -0.00227855 0)
(0.114238 -0.00218908 0)
(0.114715 -0.0020991 0)
(0.115172 -0.00200864 0)
(0.115609 -0.00191775 0)
(0.116026 -0.00182645 0)
(0.116422 -0.00173478 0)
(0.116798 -0.00164277 0)
(0.117153 -0.00155045 0)
(0.117488 -0.00145787 0)
(0.117802 -0.00136504 0)
(0.118095 -0.00127202 0)
(0.118368 -0.00117882 0)
(0.118619 -0.00108548 0)
(0.11885 -0.000992032 0)
(0.119061 -0.000898507 0)
(0.11925 -0.000804935 0)
(0.119418 -0.000711346 0)
(0.119566 -0.00061777 0)
(0.119693 -0.000524235 0)
(0.119799 -0.00043077 0)
(0.119884 -0.000337402 0)
(0.119948 -0.000244159 0)
(0.119992 -0.000151066 0)