/*--------------------------------*- C++ -*----------------------------------*\
| =========                 |                                                 |
| \\      /  F ield         | OpenFOAM: The Open Source CFD Toolbox           |
|  \\    /   O peration     | Version:  v2012                                 |
|   \\  /    A nd           | Website:  www.openfoam.com                      |
|    \\/     M anipulation  |                                                 |
\*---------------------------------------------------------------------------*/
FoamFile
{
    version     2.0;
    format      ascii;
    class       volScalarField;
    location    "1.4";
    object      W;
}
// * * * * * * * * * * * * * * * * * * * * * * * * * * * * * * * * * * * * * //

dimensions      [0 0 -1 0 0 0 0];


internalField   nonuniform List<scalar> 
65536
(
5.62499e-22
1.7122e-21
2.95839e-21
4.41644e-21
6.24196e-21
8.62602e-21
1.18008e-20
1.60555e-20
2.17598e-20
2.93925e-20
3.95768e-20
5.31237e-20
7.10858e-20
9.48257e-20
1.261e-19
1.67168e-19
2.20919e-19
2.91042e-19
3.82227e-19
5.00411e-19
6.53087e-19
8.49676e-19
1.10198e-18
1.42471e-18
1.83618e-18
2.35905e-18
3.02127e-18
3.85721e-18
4.90892e-18
6.22769e-18
7.87581e-18
9.92864e-18
1.2477e-17
1.56297e-17
1.95172e-17
2.42943e-17
3.01448e-17
3.72855e-17
4.59713e-17
5.65002e-17
6.92198e-17
8.45329e-17
1.02905e-16
1.2487e-16
1.51041e-16
1.82113e-16
2.18875e-16
2.62218e-16
3.13138e-16
3.72749e-16
4.42286e-16
5.23111e-16
6.16721e-16
7.24746e-16
8.48954e-16
9.91249e-16
1.15367e-15
1.33836e-15
1.54762e-15
1.78382e-15
2.04942e-15
2.34695e-15
2.67897e-15
3.04804e-15
3.4567e-15
3.90741e-15
4.40252e-15
4.94422e-15
5.53447e-15
6.17496e-15
6.86707e-15
7.61177e-15
8.40959e-15
9.26056e-15
1.01642e-14
1.11192e-14
1.2124e-14
1.3176e-14
1.42719e-14
1.54079e-14
1.65792e-14
1.77804e-14
1.90052e-14
2.02468e-14
2.14976e-14
2.27495e-14
2.39938e-14
2.52214e-14
2.64227e-14
2.75882e-14
2.87082e-14
2.97727e-14
3.07724e-14
3.16979e-14
3.25405e-14
3.3292e-14
3.39448e-14
3.44925e-14
3.49292e-14
3.52505e-14
3.54528e-14
3.55341e-14
3.54932e-14
3.53307e-14
3.50482e-14
3.46485e-14
3.41359e-14
3.35159e-14
3.27949e-14
3.19805e-14
3.10812e-14
3.01062e-14
2.90657e-14
2.797e-14
2.68301e-14
2.56573e-14
2.44629e-14
2.32583e-14
2.20546e-14
2.08629e-14
1.96938e-14
1.85576e-14
1.74639e-14
1.64218e-14
1.54399e-14
1.45259e-14
1.36869e-14
1.29291e-14
1.22582e-14
1.1679e-14
1.11954e-14
1.08107e-14
1.05273e-14
1.03471e-14
1.02709e-14
1.0299e-14
1.04308e-14
1.06649e-14
1.09993e-14
1.1431e-14
1.19564e-14
1.25711e-14
1.32698e-14
1.40465e-14
1.48944e-14
1.58058e-14
1.67724e-14
1.77852e-14
1.88345e-14
1.99099e-14
2.10006e-14
2.20953e-14
2.31826e-14
2.42505e-14
2.52872e-14
2.6281e-14
2.72204e-14
2.80942e-14
2.8892e-14
2.96038e-14
3.02207e-14
3.07348e-14
3.11394e-14
3.14289e-14
3.15991e-14
3.16475e-14
3.15728e-14
3.13753e-14
3.10568e-14
3.06204e-14
3.0071e-14
2.94143e-14
2.86576e-14
2.7809e-14
2.68776e-14
2.58732e-14
2.48062e-14
2.36873e-14
2.25274e-14
2.13375e-14
2.01284e-14
1.89104e-14
1.76937e-14
1.64876e-14
1.53007e-14
1.41409e-14
1.30152e-14
1.19298e-14
1.08896e-14
9.89904e-15
8.96122e-15
8.07852e-15
7.25244e-15
6.48368e-15
5.77218e-15
5.11725e-15
4.51761e-15
3.97149e-15
3.4767e-15
3.03074e-15
2.63083e-15
2.27405e-15
1.95734e-15
1.6776e-15
1.43175e-15
1.21673e-15
1.02961e-15
8.67566e-16
7.27907e-16
6.08126e-16
5.05887e-16
4.19039e-16
3.45616e-16
2.83838e-16
2.32105e-16
1.88987e-16
1.53219e-16
1.23688e-16
9.94192e-17
7.9569e-17
6.34083e-17
5.03126e-17
3.97497e-17
3.12693e-17
2.44922e-17
1.91012e-17
1.48327e-17
1.14684e-17
8.82892e-18
6.76762e-18
5.16521e-18
3.9252e-18
2.97001e-18
2.23757e-18
1.67848e-18
1.25366e-18
9.32321e-19
6.90356e-19
5.08984e-19
3.73643e-19
2.73108e-19
1.98762e-19
1.44032e-19
1.03922e-19
7.46588e-20
5.34048e-20
3.80368e-20
2.69741e-20
1.90452e-20
1.33849e-20
9.35494e-21
6.48197e-21
4.40901e-21
2.85985e-21
1.61881e-21
5.25939e-22
1.81063e-21
5.51181e-21
9.52434e-21
1.42191e-20
2.00966e-20
2.77713e-20
3.79901e-20
5.16839e-20
7.00416e-20
9.46035e-20
1.27374e-19
1.70961e-19
2.2875e-19
3.05123e-19
4.05727e-19
5.37824e-19
7.10707e-19
9.36235e-19
1.22948e-18
1.60952e-18
2.10045e-18
2.73253e-18
3.54369e-18
4.58122e-18
5.90392e-18
7.58461e-18
9.7131e-18
1.23997e-17
1.57797e-17
2.00175e-17
2.53134e-17
3.19092e-17
4.00966e-17
5.02252e-17
6.27133e-17
7.80583e-17
9.68498e-17
1.19784e-16
1.47678e-16
1.81489e-16
2.22332e-16
2.715e-16
3.30484e-16
4.01e-16
4.8501e-16
5.84747e-16
7.02741e-16
8.41844e-16
1.00525e-15
1.19654e-15
1.41966e-15
1.67897e-15
1.97928e-15
2.32581e-15
2.72422e-15
3.1806e-15
3.70147e-15
4.29376e-15
4.96474e-15
5.72203e-15
6.57351e-15
7.52725e-15
8.59145e-15
9.7743e-15
1.10839e-14
1.25281e-14
1.41144e-14
1.58498e-14
1.77406e-14
1.9792e-14
2.20085e-14
2.43932e-14
2.69476e-14
2.96719e-14
3.25643e-14
3.56211e-14
3.88364e-14
4.22024e-14
4.57085e-14
4.93422e-14
5.30883e-14
5.69292e-14
6.08452e-14
6.4814e-14
6.88115e-14
7.28116e-14
7.67865e-14
8.0707e-14
8.45429e-14
8.82632e-14
9.18369e-14
9.52327e-14
9.84202e-14
1.0137e-13
1.04054e-13
1.06445e-13
1.08521e-13
1.1026e-13
1.11644e-13
1.12659e-13
1.13293e-13
1.1354e-13
1.13397e-13
1.12866e-13
1.1195e-13
1.10661e-13
1.09012e-13
1.0702e-13
1.04706e-13
1.02094e-13
9.92111e-14
9.60878e-14
9.27557e-14
8.92484e-14
8.56009e-14
8.1849e-14
7.80289e-14
7.4177e-14
7.03289e-14
6.65197e-14
6.27835e-14
5.91526e-14
5.56581e-14
5.23287e-14
4.91916e-14
4.62714e-14
4.35904e-14
4.11688e-14
3.9024e-14
3.71713e-14
3.56233e-14
3.43902e-14
3.34798e-14
3.28974e-14
3.2646e-14
3.2726e-14
3.31355e-14
3.38701e-14
3.49232e-14
3.62853e-14
3.79447e-14
3.98873e-14
4.20963e-14
4.45523e-14
4.72338e-14
5.01166e-14
5.3174e-14
5.63775e-14
5.9696e-14
6.30969e-14
6.65458e-14
7.0007e-14
7.34437e-14
7.68188e-14
8.00946e-14
8.32339e-14
8.62004e-14
8.89589e-14
9.14761e-14
9.37208e-14
9.56649e-14
9.72833e-14
9.85547e-14
9.94619e-14
9.99918e-14
1.00136e-13
9.98907e-14
9.92571e-14
9.82409e-14
9.68524e-14
9.51064e-14
9.30218e-14
9.06212e-14
8.79306e-14
8.49786e-14
8.17965e-14
7.84169e-14
7.4874e-14
7.12022e-14
6.74362e-14
6.36101e-14
5.97568e-14
5.59079e-14
5.2093e-14
4.83396e-14
4.46724e-14
4.11135e-14
3.76821e-14
3.43944e-14
3.12636e-14
2.82999e-14
2.55107e-14
2.29007e-14
2.04719e-14
1.82243e-14
1.61556e-14
1.42617e-14
1.25369e-14
1.09744e-14
9.56617e-15
8.30348e-15
7.17702e-15
6.17715e-15
5.29406e-15
4.51799e-15
3.83932e-15
3.24873e-15
2.73729e-15
2.29655e-15
1.91855e-15
1.59594e-15
1.3219e-15
1.09024e-15
8.95324e-16
7.3211e-16
5.96084e-16
4.83251e-16
3.90095e-16
3.13544e-16
2.50933e-16
1.99961e-16
1.58658e-16
1.25344e-16
9.85995e-17
7.72272e-17
6.0227e-17
4.67667e-17
3.61582e-17
2.78356e-17
2.13362e-17
1.62838e-17
1.23743e-17
9.36276e-18
7.05361e-18
5.29105e-18
3.95179e-18
2.93879e-18
2.17604e-18
1.6043e-18
1.17769e-18
8.6079e-19
6.26452e-19
4.53944e-19
3.27523e-19
2.35292e-19
1.68305e-19
1.1987e-19
8.50054e-20
6.00173e-20
4.2179e-20
2.9479e-20
2.04253e-20
1.38927e-20
9.01084e-21
5.10025e-21
1.65698e-21
3.47081e-21
1.05667e-20
1.82611e-20
2.7264e-20
3.85334e-20
5.3246e-20
7.28326e-20
9.90761e-20
1.34254e-19
1.81315e-19
2.44097e-19
3.27592e-19
4.38282e-19
5.8455e-19
7.77209e-19
1.03015e-18
1.36115e-18
1.7929e-18
2.35422e-18
3.08163e-18
4.02116e-18
5.23072e-18
6.78278e-18
8.76777e-18
1.12981e-17
1.45129e-17
1.85838e-17
2.37217e-17
3.01846e-17
3.82872e-17
4.84116e-17
6.10197e-17
7.66683e-17
9.60253e-17
1.19888e-16
1.49207e-16
1.85108e-16
2.28916e-16
2.82194e-16
3.46765e-16
4.24755e-16
5.1863e-16
6.31233e-16
7.65834e-16
9.26171e-16
1.1165e-15
1.34163e-15
1.60701e-15
1.91872e-15
2.28354e-15
2.70902e-15
3.20345e-15
3.77596e-15
4.43648e-15
5.19576e-15
6.0654e-15
7.05776e-15
8.18599e-15
9.4639e-15
1.0906e-14
1.25271e-14
1.43426e-14
1.63679e-14
1.86187e-14
2.11101e-14
2.38571e-14
2.68738e-14
3.01732e-14
3.37673e-14
3.76659e-14
4.18773e-14
4.64072e-14
5.12583e-14
5.64308e-14
6.19209e-14
6.77216e-14
7.38215e-14
8.02052e-14
8.6853e-14
9.37403e-14
1.00838e-13
1.08114e-13
1.15529e-13
1.23041e-13
1.30604e-13
1.38169e-13
1.45683e-13
1.53091e-13
1.60334e-13
1.67356e-13
1.74096e-13
1.80495e-13
1.86497e-13
1.92046e-13
1.97088e-13
2.01575e-13
2.05461e-13
2.08707e-13
2.1128e-13
2.13153e-13
2.14305e-13
2.14724e-13
2.14405e-13
2.1335e-13
2.11572e-13
2.09087e-13
2.05922e-13
2.02111e-13
1.97694e-13
1.92716e-13
1.8723e-13
1.81292e-13
1.74962e-13
1.68305e-13
1.61386e-13
1.54274e-13
1.47036e-13
1.39742e-13
1.32457e-13
1.2525e-13
1.18182e-13
1.11317e-13
1.0471e-13
9.84174e-14
9.24886e-14
8.697e-14
8.19033e-14
7.73259e-14
7.32702e-14
6.97645e-14
6.68319e-14
6.44912e-14
6.27566e-14
6.16375e-14
6.1139e-14
6.12615e-14
6.20009e-14
6.33486e-14
6.52914e-14
6.78117e-14
7.08869e-14
7.44901e-14
7.85897e-14
8.31494e-14
8.81282e-14
9.34809e-14
9.91575e-14
1.05104e-13
1.11264e-13
1.17574e-13
1.23972e-13
1.30391e-13
1.36761e-13
1.43015e-13
1.49081e-13
1.54891e-13
1.60378e-13
1.65476e-13
1.70123e-13
1.74263e-13
1.77842e-13
1.80814e-13
1.83141e-13
1.84791e-13
1.85739e-13
1.85971e-13
1.85481e-13
1.84269e-13
1.82349e-13
1.79739e-13
1.76466e-13
1.72567e-13
1.68084e-13
1.63064e-13
1.57563e-13
1.51636e-13
1.45347e-13
1.38757e-13
1.3193e-13
1.24932e-13
1.17825e-13
1.1067e-13
1.03525e-13
9.64464e-14
8.94836e-14
8.26828e-14
7.60846e-14
6.97245e-14
6.36321e-14
5.78319e-14
5.23424e-14
4.71773e-14
4.2345e-14
3.78492e-14
3.36895e-14
2.98615e-14
2.63576e-14
2.31673e-14
2.02775e-14
1.76735e-14
1.5339e-14
1.32567e-14
1.14086e-14
9.77662e-15
8.34259e-15
7.0887e-15
5.9977e-15
5.05303e-15
4.23903e-15
3.54101e-15
2.94531e-15
2.43937e-15
2.0117e-15
1.65192e-15
1.35068e-15
1.09964e-15
8.91425e-16
7.19535e-16
5.78297e-16
4.62787e-16
3.68758e-16
2.9257e-16
2.31125e-16
1.81799e-16
1.42385e-16
1.11035e-16
8.62153e-17
6.66549e-17
5.13103e-17
3.93279e-17
3.00138e-17
2.28068e-17
1.72556e-17
1.29993e-17
9.75066e-18
7.28233e-18
5.41538e-18
4.0097e-18
2.95609e-18
2.16994e-18
1.58599e-18
1.15419e-18
8.36336e-19
6.03404e-19
4.33472e-19
3.10056e-19
2.20824e-19
1.56592e-19
1.10558e-19
7.76964e-20
5.4301e-20
3.76229e-20
2.55893e-20
1.65966e-20
9.39347e-21
3.05166e-21
5.95115e-21
1.81194e-20
3.13162e-20
4.67577e-20
6.60838e-20
9.13104e-20
1.24889e-19
1.69873e-19
2.30165e-19
3.10814e-19
4.18393e-19
5.6145e-19
7.51079e-19
1.00163e-18
1.33162e-18
1.7648e-18
2.33161e-18
3.07086e-18
4.03186e-18
5.27706e-18
6.88521e-18
8.95529e-18
1.16113e-17
1.50077e-17
1.93367e-17
2.4836e-17
3.1799e-17
4.0586e-17
5.16377e-17
6.54915e-17
8.27999e-17
1.04352e-16
1.31097e-16
1.64177e-16
2.04951e-16
2.55041e-16
3.16365e-16
3.91188e-16
4.82171e-16
5.92423e-16
7.25567e-16
8.85804e-16
1.07798e-15
1.30766e-15
1.58121e-15
1.90587e-15
2.28985e-15
2.74237e-15
3.2738e-15
3.89568e-15
4.62081e-15
5.4633e-15
6.43864e-15
7.56367e-15
8.85667e-15
1.03373e-14
1.20264e-14
1.39465e-14
1.61207e-14
1.85737e-14
2.13306e-14
2.44172e-14
2.78599e-14
3.16846e-14
3.59172e-14
4.05827e-14
4.57048e-14
5.13054e-14
5.74041e-14
6.40178e-14
7.11598e-14
7.88392e-14
8.70606e-14
9.58235e-14
1.05121e-13
1.14941e-13
1.25264e-13
1.36062e-13
1.47303e-13
1.58943e-13
1.70934e-13
1.83219e-13
1.95733e-13
2.08404e-13
2.21154e-13
2.339e-13
2.46551e-13
2.59014e-13
2.71192e-13
2.82986e-13
2.94297e-13
3.05025e-13
3.15074e-13
3.2435e-13
3.32765e-13
3.40235e-13
3.46687e-13
3.52055e-13
3.56283e-13
3.59327e-13
3.61153e-13
3.61742e-13
3.61087e-13
3.59193e-13
3.5608e-13
3.51781e-13
3.46341e-13
3.39816e-13
3.32276e-13
3.23799e-13
3.14473e-13
3.04394e-13
2.93664e-13
2.82391e-13
2.70686e-13
2.58664e-13
2.4644e-13
2.34129e-13
2.21843e-13
2.09693e-13
1.97787e-13
1.86225e-13
1.75104e-13
1.64515e-13
1.54541e-13
1.45259e-13
1.36737e-13
1.29038e-13
1.22214e-13
1.16312e-13
1.11368e-13
1.07414e-13
1.04472e-13
1.02557e-13
1.01675e-13
1.01827e-13
1.03004e-13
1.05192e-13
1.08366e-13
1.12498e-13
1.17548e-13
1.23471e-13
1.30213e-13
1.37714e-13
1.45906e-13
1.54711e-13
1.64047e-13
1.73826e-13
1.8395e-13
1.94319e-13
2.04825e-13
2.1536e-13
2.2581e-13
2.36061e-13
2.45998e-13
2.55506e-13
2.64476e-13
2.728e-13
2.80377e-13
2.87113e-13
2.92923e-13
2.97732e-13
3.01476e-13
3.04103e-13
3.05576e-13
3.05872e-13
3.04979e-13
3.02903e-13
2.99663e-13
2.95293e-13
2.89838e-13
2.83359e-13
2.75924e-13
2.67614e-13
2.58518e-13
2.48731e-13
2.38354e-13
2.2749e-13
2.16246e-13
2.04725e-13
1.93032e-13
1.81268e-13
1.69527e-13
1.57899e-13
1.46467e-13
1.35305e-13
1.24481e-13
1.14051e-13
1.04063e-13
9.45582e-14
8.55654e-14
7.71066e-14
6.91951e-14
6.18369e-14
5.50306e-14
4.87689e-14
4.30388e-14
3.78227e-14
3.30993e-14
2.88439e-14
2.50298e-14
2.16285e-14
1.86105e-14
1.59459e-14
1.36049e-14
1.15585e-14
9.77817e-15
8.23695e-15
6.90914e-15
5.77071e-15
4.79932e-15
3.97442e-15
3.27726e-15
2.69084e-15
2.1999e-15
1.79084e-15
1.4516e-15
1.17158e-15
9.41519e-16
7.5339e-16
6.00263e-16
4.76206e-16
3.76164e-16
2.95862e-16
2.31701e-16
1.80674e-16
1.40278e-16
1.08445e-16
8.34745e-17
6.39771e-17
4.88226e-17
3.70972e-17
2.80664e-17
2.11425e-17
1.5858e-17
1.18432e-17
8.80662e-18
6.52043e-18
4.80692e-18
3.52844e-18
2.57883e-18
1.87668e-18
1.35982e-18
9.81067e-19
7.04763e-19
5.04098e-19
3.59015e-19
2.54584e-19
1.7974e-19
1.26314e-19
8.82788e-20
6.11647e-20
4.16014e-20
2.6982e-20
1.52716e-20
4.96137e-21
9.86177e-21
3.00277e-20
5.1901e-20
7.74946e-20
1.09523e-19
1.51324e-19
2.06956e-19
2.81476e-19
3.81343e-19
5.14916e-19
6.93074e-19
9.29961e-19
1.24393e-18
1.65874e-18
2.20499e-18
2.922e-18
3.86009e-18
5.08345e-18
6.6736e-18
8.73378e-18
1.13942e-17
1.48184e-17
1.92112e-17
2.4828e-17
3.19862e-17
4.10786e-17
5.25895e-17
6.71139e-17
8.53795e-17
1.08273e-16
1.36872e-16
1.72478e-16
2.16658e-16
2.71292e-16
3.38627e-16
4.21333e-16
5.22573e-16
6.46081e-16
7.96237e-16
9.78167e-16
1.19784e-15
1.46216e-15
1.77911e-15
2.15786e-15
2.60886e-15
3.14404e-15
3.77686e-15
4.52252e-15
5.39801e-15
6.42231e-15
7.61641e-15
9.00349e-15
1.06089e-14
1.24603e-14
1.45877e-14
1.70231e-14
1.98009e-14
2.29575e-14
2.65312e-14
3.05618e-14
3.50906e-14
4.01597e-14
4.58118e-14
5.20893e-14
5.90341e-14
6.66868e-14
7.50857e-14
8.42661e-14
9.42597e-14
1.05093e-13
1.16788e-13
1.29357e-13
1.42809e-13
1.57141e-13
1.72341e-13
1.88387e-13
2.05248e-13
2.22877e-13
2.41219e-13
2.60204e-13
2.7975e-13
2.99764e-13
3.20138e-13
3.40756e-13
3.61489e-13
3.82199e-13
4.0274e-13
4.22958e-13
4.42696e-13
4.61792e-13
4.80085e-13
4.97414e-13
5.13621e-13
5.28555e-13
5.42073e-13
5.54042e-13
5.64342e-13
5.72869e-13
5.79532e-13
5.84263e-13
5.87011e-13
5.87743e-13
5.86453e-13
5.8315e-13
5.77871e-13
5.70669e-13
5.61621e-13
5.5082e-13
5.38382e-13
5.24434e-13
5.09121e-13
4.926e-13
4.7504e-13
4.56614e-13
4.37505e-13
4.17898e-13
3.9798e-13
3.77936e-13
3.57949e-13
3.38197e-13
3.18853e-13
3.0008e-13
2.82033e-13
2.64856e-13
2.48684e-13
2.33637e-13
2.19825e-13
2.07345e-13
1.96283e-13
1.86708e-13
1.7868e-13
1.72247e-13
1.67441e-13
1.64284e-13
1.62786e-13
1.62943e-13
1.64742e-13
1.68156e-13
1.73146e-13
1.79661e-13
1.87638e-13
1.97004e-13
2.0767e-13
2.19539e-13
2.32499e-13
2.46428e-13
2.61194e-13
2.76652e-13
2.9265e-13
3.09025e-13
3.25609e-13
3.42225e-13
3.58695e-13
3.74837e-13
3.9047e-13
4.05413e-13
4.19491e-13
4.32535e-13
4.44388e-13
4.549e-13
4.63939e-13
4.71388e-13
4.77147e-13
4.81138e-13
4.83301e-13
4.83601e-13
4.82025e-13
4.78582e-13
4.73305e-13
4.66248e-13
4.57485e-13
4.47112e-13
4.35241e-13
4.21999e-13
4.07527e-13
3.91977e-13
3.75508e-13
3.58285e-13
3.40473e-13
3.22239e-13
3.03746e-13
2.85152e-13
2.66607e-13
2.48251e-13
2.30214e-13
2.12613e-13
1.95552e-13
1.79121e-13
1.63394e-13
1.48432e-13
1.34282e-13
1.20978e-13
1.0854e-13
9.69751e-14
8.62817e-14
7.6447e-14
6.74502e-14
5.9263e-14
5.18512e-14
4.51759e-14
3.91944e-14
3.38617e-14
2.91312e-14
2.49557e-14
2.12883e-14
1.8083e-14
1.52952e-14
1.28823e-14
1.08039e-14
9.02235e-15
7.5025e-15
6.21209e-15
5.1217e-15
4.20468e-15
3.4371e-15
2.79764e-15
2.26741e-15
1.8298e-15
1.47033e-15
1.17641e-15
9.37209e-16
7.43442e-16
5.87204e-16
4.61809e-16
3.6163e-16
2.81966e-16
2.18906e-16
1.69218e-16
1.30245e-16
9.98171e-17
7.61683e-17
5.78723e-17
4.37817e-17
3.29793e-17
2.47352e-17
1.8472e-17
1.37354e-17
1.01693e-17
7.49668e-18
5.50266e-18
4.02163e-18
2.92657e-18
2.12052e-18
1.52987e-18
1.09899e-18
7.86069e-19
5.59829e-19
3.96984e-19
2.80277e-19
1.96968e-19
1.37659e-19
9.538e-20
6.48755e-20
4.20797e-20
2.38185e-20
7.73849e-21
1.61384e-20
4.91414e-20
8.49419e-20
1.26831e-19
1.79247e-19
2.47646e-19
3.38665e-19
4.60574e-19
6.23931e-19
8.42404e-19
1.13377e-18
1.52115e-18
2.03454e-18
2.71273e-18
3.60575e-18
4.77781e-18
6.31111e-18
8.31046e-18
1.0909e-17
1.42753e-17
1.86218e-17
2.42157e-17
3.13911e-17
4.05648e-17
5.22546e-17
6.71014e-17
8.58951e-17
1.09606e-16
1.3942e-16
1.76784e-16
2.23453e-16
2.81549e-16
3.53624e-16
4.42743e-16
5.52562e-16
6.8743e-16
8.52498e-16
1.05384e-15
1.29859e-15
1.59507e-15
1.953e-15
2.38362e-15
2.89988e-15
3.51668e-15
4.25102e-15
5.12225e-15
6.15224e-15
7.36563e-15
8.79001e-15
1.04561e-14
1.2398e-14
1.46532e-14
1.72628e-14
2.02716e-14
2.37279e-14
2.76837e-14
3.21946e-14
3.73192e-14
4.31193e-14
4.96593e-14
5.70054e-14
6.52256e-14
7.43882e-14
8.45616e-14
9.58128e-14
1.08207e-13
1.21804e-13
1.36662e-13
1.5283e-13
1.7035e-13
1.89255e-13
2.09567e-13
2.31295e-13
2.54434e-13
2.78965e-13
3.0485e-13
3.32034e-13
3.60445e-13
3.89987e-13
4.20549e-13
4.51997e-13
4.84177e-13
5.16917e-13
5.50025e-13
5.83294e-13
6.16501e-13
6.49409e-13
6.81772e-13
7.13334e-13
7.43838e-13
7.73023e-13
8.0063e-13
8.2641e-13
8.50118e-13
8.71529e-13
8.9043e-13
9.06632e-13
9.1997e-13
9.30303e-13
9.37523e-13
9.41552e-13
9.42344e-13
9.39889e-13
9.34211e-13
9.25367e-13
9.13451e-13
8.98588e-13
8.80932e-13
8.60669e-13
8.3801e-13
8.13187e-13
7.86455e-13
7.58084e-13
7.28357e-13
6.97564e-13
6.66003e-13
6.33971e-13
6.01767e-13
5.69681e-13
5.37997e-13
5.06987e-13
4.76913e-13
4.48017e-13
4.20529e-13
3.94658e-13
3.70595e-13
3.48513e-13
3.28561e-13
3.10871e-13
2.95553e-13
2.82697e-13
2.72374e-13
2.64634e-13
2.59507e-13
2.57004e-13
2.57119e-13
2.59824e-13
2.65074e-13
2.72805e-13
2.82933e-13
2.95356e-13
3.09955e-13
3.26589e-13
3.451e-13
3.65312e-13
3.87032e-13
4.10048e-13
4.34134e-13
4.59047e-13
4.84532e-13
5.10325e-13
5.36149e-13
5.61725e-13
5.86767e-13
6.10994e-13
6.34123e-13
6.55884e-13
6.76014e-13
6.94266e-13
7.10414e-13
7.24251e-13
7.35597e-13
7.44301e-13
7.50242e-13
7.53332e-13
7.5352e-13
7.50787e-13
7.45152e-13
7.36668e-13
7.25422e-13
7.11535e-13
6.95157e-13
6.76464e-13
6.55657e-13
6.32956e-13
6.08599e-13
5.82835e-13
5.55919e-13
5.2811e-13
4.99667e-13
4.70842e-13
4.41882e-13
4.13016e-13
3.84464e-13
3.56424e-13
3.29078e-13
3.02584e-13
2.7708e-13
2.52681e-13
2.29481e-13
2.0755e-13
1.86937e-13
1.67674e-13
1.49771e-13
1.33223e-13
1.18009e-13
1.04096e-13
9.14395e-14
7.99855e-14
6.96728e-14
6.04348e-14
5.22012e-14
4.48995e-14
3.84562e-14
3.27985e-14
2.78548e-14
2.35562e-14
1.98366e-14
1.66334e-14
1.38882e-14
1.15469e-14
9.55935e-15
7.88023e-15
6.46837e-15
5.28681e-15
4.30264e-15
3.48671e-15
2.81343e-15
2.26045e-15
1.80838e-15
1.44053e-15
1.14258e-15
9.02372e-16
7.09606e-16
5.55624e-16
4.33188e-16
3.36281e-16
2.59931e-16
2.00052e-16
1.53305e-16
1.16977e-16
8.88733e-17
6.72311e-17
5.06404e-17
3.79797e-17
2.83618e-17
2.10884e-17
1.56128e-17
1.15092e-17
8.44769e-18
6.17389e-18
4.4927e-18
3.25526e-18
2.34851e-18
1.68705e-18
1.20669e-18
8.59389e-19
6.09409e-19
4.30256e-19
3.02371e-19
2.11328e-19
1.46429e-19
9.96035e-20
6.46108e-20
3.65759e-20
1.18843e-20
2.62406e-20
7.99056e-20
1.38124e-19
2.06243e-19
2.9147e-19
4.02672e-19
5.50633e-19
7.48786e-19
1.01428e-18
1.36933e-18
1.84279e-18
2.4722e-18
3.30629e-18
4.40803e-18
5.8586e-18
7.76227e-18
1.02524e-17
1.34991e-17
1.77184e-17
2.31838e-17
3.02399e-17
3.93199e-17
5.09657e-17
6.58533e-17
8.48221e-17
1.08911e-16
1.39399e-16
1.7786e-16
2.26216e-16
2.86809e-16
3.62482e-16
4.56669e-16
5.73506e-16
7.1795e-16
8.95921e-16
1.11445e-15
1.38188e-15
1.70802e-15
2.10441e-15
2.58452e-15
3.16403e-15
3.8611e-15
4.69667e-15
5.69477e-15
6.88287e-15
8.29215e-15
9.95792e-15
1.19199e-14
1.42226e-14
1.69154e-14
2.00534e-14
2.36968e-14
2.79117e-14
3.27702e-14
3.83501e-14
4.47347e-14
5.20132e-14
6.028e-14
6.96338e-14
8.01777e-14
9.2018e-14
1.05263e-13
1.20022e-13
1.36404e-13
1.54516e-13
1.7446e-13
1.96334e-13
2.20227e-13
2.46217e-13
2.7437e-13
3.04736e-13
3.37349e-13
3.72221e-13
4.09342e-13
4.48678e-13
4.90165e-13
5.33714e-13
5.79204e-13
6.26483e-13
6.75365e-13
7.25635e-13
7.77044e-13
8.29314e-13
8.82136e-13
9.35176e-13
9.88076e-13
1.04046e-12
1.09192e-12
1.14206e-12
1.19047e-12
1.23672e-12
1.28042e-12
1.32115e-12
1.35854e-12
1.39222e-12
1.42186e-12
1.44716e-12
1.46787e-12
1.48377e-12
1.49468e-12
1.50049e-12
1.50114e-12
1.49661e-12
1.48695e-12
1.47225e-12
1.45268e-12
1.42843e-12
1.39976e-12
1.36697e-12
1.3304e-12
1.29043e-12
1.24746e-12
1.20192e-12
1.15427e-12
1.10497e-12
1.0545e-12
1.00332e-12
9.51915e-13
9.0074e-13
8.50245e-13
8.00859e-13
7.52992e-13
7.07029e-13
6.63325e-13
6.22211e-13
5.83984e-13
5.48909e-13
5.17221e-13
4.8912e-13
4.64776e-13
4.44326e-13
4.27874e-13
4.15493e-13
4.07227e-13
4.03088e-13
4.03058e-13
4.07089e-13
4.15106e-13
4.27001e-13
4.42639e-13
4.61857e-13
4.84461e-13
5.10228e-13
5.38907e-13
5.70221e-13
6.03861e-13
6.39498e-13
6.76773e-13
7.15309e-13
7.54706e-13
7.94551e-13
8.34414e-13
8.73859e-13
9.12445e-13
9.49732e-13
9.85288e-13
1.01869e-12
1.04954e-12
1.07745e-12
1.10207e-12
1.1231e-12
1.14025e-12
1.15329e-12
1.16205e-12
1.16639e-12
1.16624e-12
1.16157e-12
1.15243e-12
1.13888e-12
1.12109e-12
1.09923e-12
1.07354e-12
1.0443e-12
1.01182e-12
9.7645e-13
9.38553e-13
8.98514e-13
8.56731e-13
8.13604e-13
7.69533e-13
7.24907e-13
6.80102e-13
6.35475e-13
5.91361e-13
5.48065e-13
5.05863e-13
4.64999e-13
4.25682e-13
3.88087e-13
3.52356e-13
3.18594e-13
2.86876e-13
2.57246e-13
2.29719e-13
2.04286e-13
1.80912e-13
1.59544e-13
1.40113e-13
1.22533e-13
1.06711e-13
9.25414e-14
7.99164e-14
6.87235e-14
5.88494e-14
5.01814e-14
4.26095e-14
3.60272e-14
3.03328e-14
2.54302e-14
2.12296e-14
1.76477e-14
1.46077e-14
1.204e-14
9.88138e-15
8.07522e-15
6.57106e-15
5.32426e-15
4.29561e-15
3.45088e-15
2.76042e-15
2.19866e-15
1.74372e-15
1.37699e-15
1.08274e-15
8.47709e-16
6.60852e-16
5.12973e-16
3.96477e-16
3.05121e-16
2.33807e-16
1.78391e-16
1.35525e-16
1.02517e-16
7.72148e-17
5.79076e-17
4.32414e-17
3.2151e-17
2.38022e-17
1.75457e-17
1.28781e-17
9.41164e-18
6.84869e-18
4.96227e-18
3.58e-18
2.57169e-18
1.83943e-18
1.31003e-18
9.28971e-19
6.55881e-19
4.60941e-19
3.22162e-19
2.23234e-19
1.51858e-19
9.85175e-20
5.57772e-20
1.8125e-20
4.24615e-20
1.29305e-19
2.23523e-19
3.33761e-19
4.71673e-19
6.51593e-19
8.90959e-19
1.21149e-18
1.64092e-18
2.21513e-18
2.98079e-18
3.99857e-18
5.34717e-18
7.12837e-18
9.47332e-18
1.25504e-17
1.65752e-17
2.18222e-17
2.86403e-17
3.74711e-17
4.8871e-17
6.35391e-17
8.23503e-17
1.06395e-16
1.37028e-16
1.75924e-16
2.25149e-16
2.87238e-16
3.65292e-16
4.63085e-16
5.85201e-16
7.37174e-16
9.25668e-16
1.15867e-15
1.44571e-15
1.79812e-15
2.22931e-15
2.7551e-15
3.39403e-15
4.16779e-15
5.10158e-15
6.22462e-15
7.57056e-15
9.17802e-15
1.10911e-14
1.33599e-14
1.60412e-14
1.91985e-14
2.29034e-14
2.72352e-14
3.22818e-14
3.814e-14
4.49157e-14
5.27241e-14
6.16895e-14
7.19456e-14
8.36346e-14
9.6907e-14
1.11921e-13
1.2884e-13
1.47834e-13
1.69075e-13
1.92737e-13
2.18993e-13
2.48012e-13
2.79957e-13
3.1498e-13
3.53221e-13
3.94805e-13
4.39832e-13
4.8838e-13
5.405e-13
5.96206e-13
6.5548e-13
7.18262e-13
7.84448e-13
8.5389e-13
9.2639e-13
1.0017e-12
1.07952e-12
1.15951e-12
1.24126e-12
1.32433e-12
1.40821e-12
1.49238e-12
1.57627e-12
1.65926e-12
1.74072e-12
1.82002e-12
1.89648e-12
1.96946e-12
2.03829e-12
2.10235e-12
2.16104e-12
2.21378e-12
2.26005e-12
2.29938e-12
2.33138e-12
2.3557e-12
2.37208e-12
2.38035e-12
2.38041e-12
2.37226e-12
2.35597e-12
2.33172e-12
2.29976e-12
2.26042e-12
2.21411e-12
2.16132e-12
2.1026e-12
2.03853e-12
1.96979e-12
1.89705e-12
1.82103e-12
1.74248e-12
1.66214e-12
1.58076e-12
1.49908e-12
1.41784e-12
1.33774e-12
1.25945e-12
1.18361e-12
1.11083e-12
1.04167e-12
9.76624e-13
9.16168e-13
8.6071e-13
8.1061e-13
7.66175e-13
7.27663e-13
6.95279e-13
6.6918e-13
6.49472e-13
6.36213e-13
6.29414e-13
6.29038e-13
6.35002e-13
6.4718e-13
6.65397e-13
6.89434e-13
7.19028e-13
7.5387e-13
7.93607e-13
8.37844e-13
8.86141e-13
9.38016e-13
9.92951e-13
1.05039e-12
1.10973e-12
1.17037e-12
1.23166e-12
1.29292e-12
1.35349e-12
1.41269e-12
1.46983e-12
1.52425e-12
1.5753e-12
1.62236e-12
1.66485e-12
1.70224e-12
1.73404e-12
1.75984e-12
1.77929e-12
1.79212e-12
1.79814e-12
1.79724e-12
1.78938e-12
1.77463e-12
1.75314e-12
1.72512e-12
1.69087e-12
1.65077e-12
1.60524e-12
1.55478e-12
1.49991e-12
1.4412e-12
1.37925e-12
1.31468e-12
1.24809e-12
1.1801e-12
1.1113e-12
1.04229e-12
9.73592e-13
9.05727e-13
8.39161e-13
7.74313e-13
7.11555e-13
6.51203e-13
5.93523e-13
5.38727e-13
4.86974e-13
4.38376e-13
3.92995e-13
3.50852e-13
3.11928e-13
2.7617e-13
2.43492e-13
2.13786e-13
1.8692e-13
1.62746e-13
1.41105e-13
1.21829e-13
1.04744e-13
8.96762e-14
7.64526e-14
6.49041e-14
5.48675e-14
4.61868e-14
3.87151e-14
3.23146e-14
2.68579e-14
2.22279e-14
1.83179e-14
1.50315e-14
1.22822e-14
9.99305e-15
8.09589e-15
6.53093e-15
5.246e-15
4.19587e-15
3.34161e-15
2.6499e-15
2.09238e-15
1.64509e-15
1.28788e-15
1.00391e-15
7.79203e-16
6.022e-16
4.63408e-16
3.55075e-16
2.709e-16
2.05793e-16
1.55662e-16
1.17238e-16
8.79192e-17
6.56495e-17
4.88101e-17
3.61343e-17
2.66355e-17
1.95494e-17
1.42869e-17
1.03962e-17
7.53252e-18
5.43426e-18
3.90367e-18
2.79215e-18
1.98855e-18
1.41014e-18
9.95612e-19
6.9971e-19
4.89055e-19
3.38892e-19
2.30553e-19
1.49587e-19
8.47018e-20
2.75268e-20
6.84063e-20
2.08319e-19
3.60124e-19
5.37736e-19
7.59913e-19
1.04973e-18
1.43526e-18
1.95146e-18
2.64297e-18
3.56754e-18
4.80027e-18
6.43876e-18
8.60964e-18
1.14766e-17
1.52507e-17
2.02026e-17
2.66789e-17
3.51212e-17
4.60904e-17
6.02961e-17
7.86327e-17
1.02224e-16
1.32475e-16
1.71139e-16
2.2039e-16
2.82921e-16
3.62047e-16
4.6184e-16
5.87275e-16
7.44416e-16
9.40613e-16
1.18475e-15
1.48751e-15
1.86172e-15
2.32264e-15
2.88846e-15
3.58067e-15
4.4246e-15
5.44998e-15
6.69153e-15
8.18963e-15
9.99104e-15
1.21496e-14
1.47272e-14
1.77942e-14
2.14309e-14
2.57278e-14
3.07868e-14
3.67219e-14
4.36598e-14
5.17408e-14
6.11194e-14
7.19644e-14
8.44593e-14
9.88023e-14
1.15206e-13
1.33897e-13
1.55114e-13
1.79109e-13
2.06142e-13
2.36481e-13
2.70399e-13
3.08172e-13
3.50073e-13
3.96369e-13
4.47315e-13
5.03152e-13
5.641e-13
6.30349e-13
7.02059e-13
7.79347e-13
8.62288e-13
9.50901e-13
1.04515e-12
1.14493e-12
1.25008e-12
1.36034e-12
1.4754e-12
1.59487e-12
1.71825e-12
1.84499e-12
1.97445e-12
2.10591e-12
2.23858e-12
2.37161e-12
2.50408e-12
2.63503e-12
2.76346e-12
2.88835e-12
3.00864e-12
3.1233e-12
3.23131e-12
3.33166e-12
3.42341e-12
3.50566e-12
3.57759e-12
3.63848e-12
3.6877e-12
3.72473e-12
3.74918e-12
3.76078e-12
3.75939e-12
3.74502e-12
3.71781e-12
3.67805e-12
3.62615e-12
3.56265e-12
3.48822e-12
3.40362e-12
3.30975e-12
3.20754e-12
3.09805e-12
2.98237e-12
2.86162e-12
2.73699e-12
2.60964e-12
2.48077e-12
2.35154e-12
2.2231e-12
2.09655e-12
1.97294e-12
1.85329e-12
1.73851e-12
1.62949e-12
1.52701e-12
1.43178e-12
1.34445e-12
1.26555e-12
1.19557e-12
1.13488e-12
1.08381e-12
1.04257e-12
1.01133e-12
9.90152e-13
9.79051e-13
9.77953e-13
9.86717e-13
1.00513e-12
1.03291e-12
1.06971e-12
1.1151e-12
1.1686e-12
1.22965e-12
1.29762e-12
1.37183e-12
1.45153e-12
1.5359e-12
1.62407e-12
1.71513e-12
1.80811e-12
1.90203e-12
1.99585e-12
2.08852e-12
2.179e-12
2.26625e-12
2.34924e-12
2.42698e-12
2.49852e-12
2.56298e-12
2.61954e-12
2.66747e-12
2.70614e-12
2.73503e-12
2.75373e-12
2.76195e-12
2.75955e-12
2.74649e-12
2.72287e-12
2.68893e-12
2.64502e-12
2.5916e-12
2.52925e-12
2.45865e-12
2.38054e-12
2.29576e-12
2.20516e-12
2.10968e-12
2.01025e-12
1.90781e-12
1.80331e-12
1.69766e-12
1.59173e-12
1.48637e-12
1.38234e-12
1.28037e-12
1.18108e-12
1.08504e-12
9.9273e-13
9.04548e-13
8.20813e-13
7.41762e-13
6.67561e-13
5.983e-13
5.34006e-13
4.74645e-13
4.20131e-13
3.70332e-13
3.25075e-13
2.84159e-13
2.47355e-13
2.14417e-13
1.85087e-13
1.59098e-13
1.36184e-13
1.1608e-13
9.85267e-14
8.32754e-14
7.00878e-14
5.87393e-14
4.90201e-14
4.07359e-14
3.37082e-14
2.77745e-14
2.27882e-14
1.86176e-14
1.51456e-14
1.22686e-14
9.89584e-15
7.94792e-15
6.3562e-15
5.06156e-15
4.0134e-15
3.1687e-15
2.49108e-15
1.95e-15
1.51991e-15
1.17961e-15
9.11581e-16
7.01436e-16
5.37422e-16
4.09994e-16
3.1144e-16
2.35562e-16
1.77406e-16
1.33035e-16
9.93335e-17
7.38514e-17
5.46708e-17
4.02981e-17
2.95765e-17
2.16144e-17
1.57279e-17
1.13955e-17
8.22112e-18
5.90557e-18
4.22404e-18
3.00834e-18
2.13332e-18
1.50622e-18
1.05858e-18
7.399e-19
5.12737e-19
3.48846e-19
2.26362e-19
1.28191e-19
4.16645e-20
1.09727e-19
3.34165e-19
5.77694e-19
8.62618e-19
1.21899e-18
1.68381e-18
2.30206e-18
3.12978e-18
4.23851e-18
5.72077e-18
7.69688e-18
1.03232e-17
1.38027e-17
1.83974e-17
2.44452e-17
3.23798e-17
4.2756e-17
5.62808e-17
7.38519e-17
9.66052e-17
1.25972e-16
1.63751e-16
2.1219e-16
2.74092e-16
3.52937e-16
4.5303e-16
5.79672e-16
7.39372e-16
9.40086e-16
1.1915e-15
1.50537e-15
1.89587e-15
2.38009e-15
2.97849e-15
3.71546e-15
4.62001e-15
5.72646e-15
7.07523e-15
8.71374e-15
1.06974e-14
1.30905e-14
1.59677e-14
1.94148e-14
2.35302e-14
2.84263e-14
3.42308e-14
4.10876e-14
4.9159e-14
5.86262e-14
6.96909e-14
8.25759e-14
9.75267e-14
1.14811e-13
1.34721e-13
1.5757e-13
1.83696e-13
2.13457e-13
2.47232e-13
2.85418e-13
3.28428e-13
3.76685e-13
4.30619e-13
4.90666e-13
5.57254e-13
6.30803e-13
7.11715e-13
8.00365e-13
8.97097e-13
1.00221e-12
1.11594e-12
1.23847e-12
1.36991e-12
1.51029e-12
1.65953e-12
1.81747e-12
1.98382e-12
2.15819e-12
2.34007e-12
2.5288e-12
2.72362e-12
2.92364e-12
3.12782e-12
3.33503e-12
3.54402e-12
3.75342e-12
3.96178e-12
4.1676e-12
4.36927e-12
4.56518e-12
4.75369e-12
4.93315e-12
5.10196e-12
5.25855e-12
5.40143e-12
5.52921e-12
5.6406e-12
5.7345e-12
5.80991e-12
5.86604e-12
5.90231e-12
5.91829e-12
5.91382e-12
5.88893e-12
5.84386e-12
5.77907e-12
5.69525e-12
5.59327e-12
5.4742e-12
5.33927e-12
5.18987e-12
5.02754e-12
4.8539e-12
4.67068e-12
4.47969e-12
4.28276e-12
4.08175e-12
3.8785e-12
3.67486e-12
3.47261e-12
3.27348e-12
3.0791e-12
2.89104e-12
2.71076e-12
2.53958e-12
2.37873e-12
2.22932e-12
2.09231e-12
1.96855e-12
1.85874e-12
1.76349e-12
1.68324e-12
1.61834e-12
1.569e-12
1.53533e-12
1.51731e-12
1.51481e-12
1.52759e-12
1.55531e-12
1.59751e-12
1.65362e-12
1.72298e-12
1.80483e-12
1.89827e-12
2.00233e-12
2.11595e-12
2.23794e-12