/*--------------------------------*- C++ -*----------------------------------*\
| =========                 |                                                 |
| \\      /  F ield         | OpenFOAM: The Open Source CFD Toolbox           |
|  \\    /   O peration     | Version:  v2012                                 |
|   \\  /    A nd           | Website:  www.openfoam.com                      |
|    \\/     M anipulation  |                                                 |
\*---------------------------------------------------------------------------*/
FoamFile
{
    version     2.0;
    format      ascii;
    class       volScalarField;
    location    "7.6";
    object      Psi_z;
}
// * * * * * * * * * * * * * * * * * * * * * * * * * * * * * * * * * * * * * //

dimensions      [0 2 -1 0 0 0 0];


internalField   nonuniform List<scalar> 
65536
(
9.25888e-06
2.77765e-05
4.62939e-05
6.48107e-05
8.33268e-05
0.000101842
0.000120356
0.000138868
0.000157379
0.000175888
0.000194394
0.000212897
0.000231397
0.000249893
0.000268385
0.000286873
0.000305354
0.00032383
0.000342298
0.000360759
0.000379211
0.000397654
0.000416085
0.000434506
0.000452913
0.000471306
0.000489683
0.000508043
0.000526384
0.000544705
0.000563004
0.000581279
0.000599528
0.000617749
0.000635939
0.000654097
0.00067222
0.000690305
0.00070835
0.000726352
0.000744308
0.000762214
0.000780069
0.000797868
0.000815608
0.000833285
0.000850897
0.000868438
0.000885905
0.000903294
0.000920602
0.000937822
0.000954952
0.000971987
0.000988921
0.00100575
0.00102247
0.00103907
0.00105556
0.00107192
0.00108815
0.00110424
0.0011202
0.001136
0.00115166
0.00116715
0.00118248
0.00119765
0.00121263
0.00122744
0.00124206
0.00125648
0.00127071
0.00128473
0.00129854
0.00131214
0.00132551
0.00133865
0.00135156
0.00136422
0.00137664
0.00138881
0.00140072
0.00141237
0.00142375
0.00143485
0.00144568
0.00145622
0.00146647
0.00147643
0.00148609
0.00149544
0.00150449
0.00151323
0.00152165
0.00152975
0.00153753
0.00154498
0.0015521
0.00155889
0.00156534
0.00157146
0.00157723
0.00158266
0.00158775
0.00159249
0.00159688
0.00160092
0.00160462
0.00160796
0.00161096
0.0016136
0.00161589
0.00161783
0.00161942
0.00162066
0.00162156
0.00162211
0.00162231
0.00162216
0.00162168
0.00162086
0.00161969
0.0016182
0.00161637
0.00161421
0.00161172
0.00160891
0.00160578
0.00160234
0.00159858
0.00159451
0.00159014
0.00158547
0.0015805
0.00157524
0.00156969
0.00156385
0.00155774
0.00155136
0.0015447
0.00153778
0.0015306
0.00152317
0.00151549
0.00150756
0.00149939
0.00149099
0.00148236
0.0014735
0.00146443
0.00145514
0.00144564
0.00143593
0.00142603
0.00141594
0.00140565
0.00139518
0.00138453
0.00137371
0.00136272
0.00135156
0.00134025
0.00132878
0.00131715
0.00130538
0.00129347
0.00128143
0.00126925
0.00125694
0.0012445
0.00123195
0.00121928
0.0012065
0.00119361
0.00118061
0.00116752
0.00115433
0.00114104
0.00112766
0.0011142
0.00110066
0.00108703
0.00107333
0.00105955
0.0010457
0.00103179
0.00101781
0.00100377
0.000989667
0.000975509
0.000961297
0.000947033
0.00093272
0.000918359
0.000903954
0.000889506
0.000875017
0.00086049
0.000845927
0.000831328
0.000816697
0.000802035
0.000787343
0.000772624
0.000757878
0.000743108
0.000728314
0.000713499
0.000698663
0.000683808
0.000668935
0.000654045
0.000639139
0.000624218
0.000609284
0.000594337
0.000579379
0.000564409
0.00054943
0.000534441
0.000519443
0.000504438
0.000489425
0.000474406
0.000459381
0.00044435
0.000429315
0.000414275
0.000399231
0.000384183
0.000369132
0.000354079
0.000339022
0.000323964
0.000308904
0.000293842
0.000278778
0.000263713
0.000248647
0.00023358
0.000218513
0.000203445
0.000188376
0.000173307
0.000158237
0.000143168
0.000128098
0.000113028
9.79575e-05
8.28872e-05
6.78168e-05
5.27465e-05
3.76761e-05
2.26056e-05
7.53522e-06
2.77767e-05
8.33298e-05
0.000138882
0.000194433
0.000249981
0.000305527
0.000361069
0.000416607
0.000472139
0.000527665
0.000583184
0.000638694
0.000694195
0.000749684
0.000805161
0.000860623
0.000916068
0.000971495
0.0010269
0.00108228
0.00113764
0.00119297
0.00124827
0.00130353
0.00135875
0.00141393
0.00146906
0.00152415
0.00157917
0.00163414
0.00168904
0.00174386
0.00179861
0.00185328
0.00190785
0.00196233
0.0020167
0.00207095
0.00212509
0.0021791
0.00223297
0.00228669
0.00234026
0.00239366
0.00244688
0.00249992
0.00255276
0.00260539
0.00265779
0.00270996
0.00276189
0.00281356
0.00286495
0.00291606
0.00296687
0.00301736
0.00306752
0.00311734
0.0031668
0.00321589
0.00326458
0.00331287
0.00336073
0.00340816
0.00345513
0.00350162
0.00354762
0.00359311
0.00363808
0.00368251
0.00372637
0.00376965
0.00381234
0.00385441
0.00389584
0.00393663
0.00397675
0.00401618
0.0040549
0.00409291
0.00413018
0.00416669
0.00420242
0.00423737
0.00427151
0.00430483
0.00433731
0.00436894
0.0043997
0.00442958
0.00445857
0.00448664
0.00451379
0.00454
0.00456527
0.00458957
0.00461291
0.00463527
0.00465663
0.004677
0.00469636
0.0047147
0.00473203
0.00474832
0.00476358
0.0047778
0.00479098
0.00480312
0.0048142
0.00482423
0.00483321
0.00484114
0.00484802
0.00485384
0.00485861
0.00486234
0.00486502
0.00486666
0.00486726
0.00486683
0.00486537
0.0048629
0.00485941
0.00485491
0.00484942
0.00484294
0.00483548
0.00482705
0.00481766
0.00480732
0.00479604
0.00478384
0.00477072
0.00475669
0.00474178
0.00472599
0.00470934
0.00469183
0.00467349
0.00465433
0.00463436
0.0046136
0.00459206
0.00456975
0.0045467
0.00452291
0.0044984
0.00447319
0.00444729
0.00442072
0.00439349
0.00436561
0.00433711
0.004308
0.00427829
0.00424799
0.00421714
0.00418572
0.00415377
0.0041213
0.00408832
0.00405485
0.00402089
0.00398647
0.0039516
0.00391629
0.00388056
0.00384441
0.00380786
0.00377093
0.00373363
0.00369597
0.00365795
0.0036196
0.00358093
0.00354194
0.00350265
0.00346307
0.00342321
0.00338308
0.00334269
0.00330204
0.00326116
0.00322005
0.00317872
0.00313718
0.00309543
0.00305349
0.00301136
0.00296906
0.00292658
0.00288394
0.00284115
0.0027982
0.00275512
0.0027119
0.00266856
0.00262509
0.00258151
0.00253781
0.00249402
0.00245012
0.00240613
0.00236206
0.0023179
0.00227366
0.00222935
0.00218496
0.00214052
0.00209601
0.00205144
0.00200682
0.00196215
0.00191743
0.00187267
0.00182786
0.00178302
0.00173815
0.00169324
0.0016483
0.00160333
0.00155834
0.00151332
0.00146828
0.00142322
0.00137815
0.00133305
0.00128795
0.00124283
0.0011977
0.00115255
0.0011074
0.00106224
0.00101707
0.000971893
0.000926712
0.000881526
0.000836335
0.00079114
0.000745942
0.000700742
0.000655539
0.000610334
0.000565128
0.000519921
0.000474712
0.000429503
0.000384293
0.000339083
0.000293872
0.000248661
0.00020345
0.000158239
0.000113028
6.78169e-05
2.26056e-05
4.62948e-05
0.000138884
0.000231472
0.000324057
0.000416638
0.000509215
0.000601786
0.00069435
0.000786905
0.00087945
0.000971982
0.0010645
0.001157
0.00124949
0.00134195
0.00143439
0.0015268
0.00161918
0.00171153
0.00180384
0.0018961
0.00198832
0.00208048
0.00217259
0.00226463
0.0023566
0.0024485
0.00254031
0.00263202
0.00272364
0.00281514
0.00290652
0.00299778
0.00308889
0.00317986
0.00327066
0.00336129
0.00345172
0.00354196
0.00363199
0.00372178
0.00381133
0.00390062
0.00398963
0.00407835
0.00416675
0.00425483
0.00434255
0.00442991
0.00451688
0.00460344
0.00468956
0.00477523
0.00486043
0.00494512
0.0050293
0.00511292
0.00519597
0.00527842
0.00536025
0.00544142
0.00552192
0.00560171
0.00568077
0.00575907
0.00583658
0.00591327
0.00598911
0.00606407
0.00613813
0.00621126
0.00628341
0.00635458
0.00642471
0.00649379
0.00656179
0.00662867
0.00669441
0.00675897
0.00682234
0.00688446
0.00694533
0.00700491
0.00706318
0.0071201
0.00717565
0.0072298
0.00728254
0.00733382
0.00738363
0.00743195
0.00747875
0.00752402
0.00756772
0.00760984
0.00765036
0.00768927
0.00772654
0.00776216
0.00779612
0.00782839
0.00785897
0.00788785
0.00791502
0.00794046
0.00796416
0.00798613
0.00800636
0.00802483
0.00804156
0.00805653
0.00806974
0.00808119
0.0080909
0.00809885
0.00810506
0.00810952
0.00811225
0.00811324
0.00811252
0.00811009
0.00810595
0.00810013
0.00809263
0.00808347
0.00807266
0.00806021
0.00804615
0.00803049
0.00801324
0.00799443
0.00797407
0.00795219
0.00792881
0.00790394
0.00787761
0.00784984
0.00782065
0.00779007
0.00775812
0.00772482
0.0076902
0.00765428
0.00761709
0.00757864
0.00753898
0.00749812
0.00745608
0.0074129
0.00736859
0.00732319
0.00727672
0.0072292
0.00718066
0.00713112
0.00708062
0.00702917
0.0069768
0.00692354
0.0068694
0.00681442
0.00675861
0.00670201
0.00664462
0.00658649
0.00652762
0.00646805
0.00640779
0.00634687
0.0062853
0.00622312
0.00616033
0.00609696
0.00603303
0.00596856
0.00590357
0.00583807
0.00577209
0.00570565
0.00563875
0.00557142
0.00550367
0.00543553
0.005367
0.0052981
0.00522886
0.00515927
0.00508936
0.00501913
0.00494861
0.00487781
0.00480674
0.00473541
0.00466383
0.00459202
0.00451998
0.00444773
0.00437528
0.00430263
0.0042298
0.0041568
0.00408364
0.00401032
0.00393685
0.00386325
0.00378951
0.00371565
0.00364168
0.0035676
0.00349341
0.00341913
0.00334476
0.0032703
0.00319577
0.00312116
0.00304648
0.00297174
0.00289695
0.00282209
0.00274719
0.00267224
0.00259725
0.00252222
0.00244716
0.00237206
0.00229693
0.00222177
0.00214659
0.00207139
0.00199617
0.00192093
0.00184567
0.0017704
0.00169512
0.00161983
0.00154453
0.00146921
0.0013939
0.00131857
0.00124324
0.00116791
0.00109257
0.00101723
0.000941882
0.000866536
0.000791188
0.000715839
0.000640489
0.000565139
0.000489787
0.000414436
0.000339084
0.000263732
0.00018838
0.000113028
3.76761e-05
6.48134e-05
0.00019444
0.000324064
0.000453685
0.0005833
0.00071291
0.000842511
0.000972102
0.00110168
0.00123125
0.0013608
0.00149032
0.00161983
0.00174931
0.00187876
0.00200818
0.00213756
0.0022669
0.00239619
0.00252543
0.00265461
0.00278372
0.00291276
0.00304172
0.00317059
0.00329936
0.00342802
0.00355656
0.00368497
0.00381324
0.00394136
0.00406931
0.00419709
0.00432466
0.00445203
0.00457917
0.00470606
0.0048327
0.00495905
0.0050851
0.00521084
0.00533623
0.00546125
0.0055859
0.00571012
0.00583392
0.00595725
0.00608009
0.00620242
0.00632421
0.00644542
0.00656602
0.006686
0.0068053
0.00692391
0.00704178
0.00715889
0.0072752
0.00739066
0.00750526
0.00761894
0.00773168
0.00784342
0.00795415
0.0080638
0.00817235
0.00827976
0.00838598
0.00849097
0.0085947
0.00869711
0.00879817
0.00889784
0.00899608
0.00909283
0.00918807
0.00928175
0.00937382
0.00946425
0.009553
0.00964002
0.00972527
0.00980872
0.00989033
0.00997006
0.0100479
0.0101237
0.0101976
0.0102694
0.0103392
0.0104069
0.0104724
0.0105358
0.010597
0.010656
0.0107128
0.0107673
0.0108195
0.0108694
0.0109169
0.0109621
0.0110049
0.0110454
0.0110834
0.0111191
0.0111523
0.011183
0.0112114
0.0112372
0.0112606
0.0112816
0.0113001
0.0113161
0.0113297
0.0113408
0.0113495
0.0113558
0.0113596
0.011361
0.0113599
0.0113565
0.0113507
0.0113425
0.011332
0.0113192
0.011304
0.0112866
0.0112668
0.0112449
0.0112207
0.0111944
0.0111658
0.0111352
0.0111024
0.0110676
0.0110307
0.0109918
0.0109509
0.010908
0.0108633
0.0108166
0.0107681
0.0107178
0.0106657
0.0106118
0.0105563
0.010499
0.0104401
0.0103796
0.0103176
0.010254
0.0101889
0.0101223
0.0100543
0.00998493
0.00991419
0.00984213
0.00976878
0.00969417
0.00961835
0.00954134
0.00946318
0.00938389
0.00930353
0.00922211
0.00913966
0.00905623
0.00897184
0.00888652
0.0088003
0.0087132
0.00862527
0.00853653
0.008447
0.00835672
0.0082657
0.00817398
0.00808159
0.00798853
0.00789485
0.00780057
0.0077057
0.00761028
0.00751432
0.00741784
0.00732087
0.00722343
0.00712553
0.0070272
0.00692846
0.00682932
0.0067298
0.00662992
0.00652969
0.00642914
0.00632827
0.0062271
0.00612566
0.00602394
0.00592197
0.00581975
0.00571731
0.00561465
0.00551179
0.00540873
0.00530549
0.00520208
0.0050985
0.00499478
0.00489091
0.0047869
0.00468278
0.00457853
0.00447418
0.00436972
0.00426517
0.00416052
0.0040558
0.003951
0.00384613
0.0037412
0.00363621
0.00353116
0.00342607
0.00332092
0.00321574
0.00311052
0.00300526
0.00289998
0.00279466
0.00268933
0.00258396
0.00247858
0.00237319
0.00226777
0.00216235
0.00205691
0.00195146
0.00184601
0.00174054
0.00163507
0.0015296
0.00142412
0.00131864
0.00121315
0.00110766
0.00100218
0.000896686
0.000791195
0.000685703
0.000580211
0.000474718
0.000369225
0.000263733
0.00015824
5.27465e-05
8.33328e-05
0.000249997
0.00041666
0.000583317
0.000749969
0.000916613
0.00108325
0.00124987
0.00141647
0.00158306
0.00174963
0.00191617
0.00208268
0.00224917
0.00241561
0.00258201
0.00274837
0.00291467
0.00308091
0.00324709
0.00341318
0.0035792
0.00374512
0.00391094
0.00407664
0.00424222
0.00440765
0.00457294
0.00473806
0.00490301
0.00506775
0.00523229
0.00539659
0.00556064
0.00572443
0.00588792
0.0060511
0.00621395
0.00637644
0.00653854
0.00670023
0.00686149
0.00702228
0.00718257
0.00734234
0.00750155
0.00766016
0.00781815
0.00797548
0.00813211
0.008288
0.00844312
0.00859742
0.00875087
0.00890343
0.00905504
0.00920566
0.00935526
0.00950378
0.00965118
0.00979741
0.00994242
0.0100862
0.0102286
0.0103696
0.0105093
0.0106474
0.0107841
0.0109191
0.0110526
0.0111843
0.0113143
0.0114425
0.0115689
0.0116934
0.0118159
0.0119364
0.0120549
0.0121712
0.0122854
0.0123973
0.012507
0.0126144
0.0127194
0.0128219
0.012922
0.0130196
0.0131146
0.0132071
0.0132968
0.0133839
0.0134682
0.0135498
0.0136285
0.0137044
0.0137775
0.0138476
0.0139147
0.0139789
0.0140401
0.0140982
0.0141533
0.0142053
0.0142543
0.0143001
0.0143428
0.0143824
0.0144188
0.0144521
0.0144822
0.0145091
0.0145329
0.0145535
0.014571
0.0145853
0.0145964
0.0146044
0.0146093
0.0146111
0.0146097
0.0146053
0.0145978
0.0145873
0.0145737
0.0145572
0.0145376
0.0145152
0.0144898
0.0144615
0.0144304
0.0143965
0.0143597
0.0143203
0.0142781
0.0142332
0.0141857
0.0141357
0.014083
0.0140279
0.0139703
0.0139102
0.0138478
0.0137831
0.013716
0.0136467
0.0135752
0.0135015
0.0134258
0.0133479
0.0132681
0.0131862
0.0131025
0.0130168
0.0129294
0.0128401
0.0127491
0.0126564
0.012562
0.012466
0.0123685
0.0122694
0.0121689
0.0120669
0.0119635
0.0118587
0.0117527
0.0116454
0.0115368
0.0114271
0.0113162
0.0112041
0.011091
0.0109769
0.0108617
0.0107456
0.0106285
0.0105106
0.0103917
0.0102721
0.0101516
0.0100303
0.00990829
0.00978557
0.00966215
0.00953807
0.00941336
0.00928804
0.00916214
0.00903569
0.0089087
0.0087812
0.00865322
0.00852477
0.00839588
0.00826657
0.00813686
0.00800676
0.00787631
0.0077455
0.00761437
0.00748293
0.0073512
0.00721919
0.00708692
0.0069544
0.00682164
0.00668866
0.00655548
0.0064221
0.00628854
0.00615481
0.00602091
0.00588687
0.00575269
0.00561837
0.00548394
0.00534939
0.00521473
0.00507998
0.00494514
0.00481022
0.00467522
0.00454015
0.00440502
0.00426983
0.00413459
0.0039993
0.00386396
0.00372859
0.00359318
0.00345774
0.00332227
0.00318678
0.00305127
0.00291573
0.00278018
0.00264462
0.00250904
0.00237345
0.00223785
0.00210225
0.00196663
0.00183102
0.0016954
0.00155977
0.00142414
0.00128851
0.00115288
0.00101725
0.000881619
0.000745986
0.000610352
0.000474719
0.000339085
0.000203451
6.7817e-05
0.000101853
0.000305558
0.00050926
0.000712956
0.000916646
0.00112033
0.00132399
0.00152765
0.00173128
0.0019349
0.00213848
0.00234204
0.00254557
0.00274906
0.0029525
0.00315589
0.00335923
0.0035625
0.0037657
0.00396882
0.00417184
0.00437477
0.00457758
0.00478027
0.00498282
0.00518521
0.00538744
0.00558949
0.00579134
0.00599297
0.00619436
0.00639549
0.00659634
0.00679689
0.00699712
0.00719699
0.00739648
0.00759556
0.00779421
0.00799239
0.00819007
0.00838722
0.0085838
0.00877978
0.00897511
0.00916977
0.0093637
0.00955687
0.00974923
0.00994075
0.0101314
0.010321
0.0105097
0.0106973
0.0108839
0.0110693
0.0112535
0.0114364
0.011618
0.0117983
0.0119771
0.0121544
0.0123302
0.0125044
0.0126769
0.0128477
0.0130166
0.0131838
0.0133489
0.0135121
0.0136733
0.0138323
0.0139891
0.0141437
0.0142959
0.0144458
0.0145932
0.014738
0.0148803
0.01502
0.0151569
0.0152911
0.0154224
0.0155508
0.0156763
0.0157987
0.0159181
0.0160343
0.0161474
0.0162572
0.0163637
0.0164668
0.0165666
0.0166629
0.0167557
0.0168451
0.0169308
0.0170129
0.0170914
0.0171663
0.0172374
0.0173048
0.0173684
0.0174282
0.0174843
0.0175365
0.0175849
0.0176294
0.0176701
0.0177069
0.0177398
0.0177689
0.0177941
0.0178154
0.0178329
0.0178465
0.0178562
0.0178622
0.0178643
0.0178626
0.0178572
0.017848
0.0178351
0.0178184
0.0177982
0.0177742
0.0177467
0.0177156
0.017681
0.0176429
0.0176014
0.0175564
0.0175081
0.0174564
0.0174015
0.0173434
0.0172821
0.0172177
0.0171502
0.0170797
0.0170063
0.0169299
0.0168506
0.0167686
0.0166838
0.0165963
0.0165062
0.0164135
0.0163183
0.0162206
0.0161205
0.016018
0.0159132
0.0158062
0.015697
0.0155857
0.0154723
0.0153569
0.0152395
0.0151201
0.014999
0.014876
0.0147512
0.0146248
0.0144967
0.014367
0.0142357
0.014103
0.0139688
0.0138331
0.0136961
0.0135578
0.0134183
0.0132774
0.0131354
0.0129923
0.012848
0.0127027
0.0125564
0.0124091
0.0122608
0.0121116
0.0119615
0.0118106
0.0116589
0.0115065
0.0113532
0.0111993
0.0110447
0.0108895
0.0107336
0.0105771
0.0104201
0.0102625
0.0101044
0.00994583
0.00978679
0.0096273
0.0094674
0.00930709
0.00914641
0.00898537
0.00882399
0.0086623
0.0085003
0.00833801
0.00817546
0.00801265
0.00784961
0.00768635
0.00752287
0.0073592
0.00719535
0.00703133
0.00686715
0.00670282
0.00653835
0.00637376
0.00620905
0.00604423
0.00587931
0.0057143
0.00554921
0.00538403
0.00521879
0.00505349
0.00488812
0.0047227
0.00455724
0.00439173
0.00422619
0.00406061
0.003895
0.00372937
0.00356371
0.00339803
0.00323234
0.00306662
0.0029009
0.00273517
0.00256943
0.00240368
0.00223792
0.00207216
0.00190639
0.00174062
0.00157485
0.00140908
0.00124331
0.00107754
0.000911761
0.000745987
0.000580212
0.000414437
0.000248662
8.28875e-05
0.000120374
0.000361121
0.000601865
0.000842603
0.00108333
0.00132405
0.00156476
0.00180544
0.00204611
0.00228676
0.00252737
0.00276795
0.0030085
0.00324899
0.00348944
0.00372983
0.00397016
0.0042104
0.00445057
0.00469064
0.0049306
0.00517045
0.00541017
0.00564974
0.00588915
0.00612838
0.00636742
0.00660624
0.00684483
0.00708316
0.00732122
0.00755897
0.0077964
0.00803347
0.00827016
0.00850643
0.00874226
0.00897761
0.00921245
0.00944674
0.00968044
0.00991352
0.0101459
0.0103776
0.0106086
0.0108387
0.011068
0.0112964
0.0115238
0.0117503
0.0119757
0.0121999
0.012423
0.0126449
0.0128655
0.0130847
0.0133025
0.0135189
0.0137336
0.0139468
0.0141583
0.014368
0.0145759
0.0147819
0.0149859
0.0151879
0.0153877
0.0155854
0.0157807
0.0159738
0.0161643
0.0163524
0.0165379
0.0167207
0.0169008
0.0170781
0.0172524
0.0174238
0.0175921
0.0177573
0.0179193
0.018078
0.0182333
0.0183852
0.0185337
0.0186785
0.0188197
0.0189572
0.0190909
0.0192208
0.0193468
0.0194688
0.0195868
0.0197008
0.0198106
0.0199162
0.0200176
0.0201148
0.0202076
0.0202961
0.0203803
0.02046
0.0205352
0.020606
0.0206722
0.020734
0.0207912
0.0208439
0.020892
0.0209355
0.0209744
0.0210087
0.0210385
0.0210637
0.0210843
0.0211004
0.0211119
0.0211189
0.0211213
0.0211193
0.0211128
0.0211019
0.0210865
0.0210668
0.0210428
0.0210144
0.0209818
0.020945
0.020904
0.0208589
0.0208097
0.0207564
0.0206992
0.0206381
0.0205731
0.0205043
0.0204317
0.0203555
0.0202756
0.0201921
0.0201052
0.0200148
0.019921
0.0198239
0.0197236
0.0196201
0.0195134
0.0194037
0.0192911
0.0191755
0.019057
0.0189358
0.0188118
0.0186852
0.0185561
0.0184244
0.0182902
0.0181537
0.0180148
0.0178737
0.0177303
0.0175849
0.0174373
0.0172878
0.0171363
0.0169829
0.0168276
0.0166706
0.0165119
0.0163515
0.0161895
0.0160259
0.0158608
0.0156943
0.0155264
0.0153571
0.0151866
0.0150147
0.0148417
0.0146675
0.0144922
0.0143158
0.0141384
0.0139599
0.0137806
0.0136003
0.0134192
0.0132372
0.0130544
0.0128708
0.0126865
0.0125016
0.0123159
0.0121296
0.0119427
0.0117553
0.0115673
0.0113787
0.0111897
0.0110002
0.0108102
0.0106199
0.0104291
0.010238
0.0100465
0.00985465
0.00966251
0.00947007
0.00927734
0.00908436
0.00889113
0.00869768
0.008504
0.00831013
0.00811607
0.00792184
0.00772745
0.00753291
0.00733823
0.00714342
0.0069485
0.00675347
0.00655834
0.00636312
0.00616782
0.00597244
0.005777
0.00558149
0.00538593
0.00519032
0.00499467
0.00479897
0.00460325
0.00440749
0.0042117
0.0040159
0.00382007
0.00362422
0.00342837
0.00323249
0.00303661
0.00284072
0.00264483
0.00244892
0.00225302
0.00205711
0.0018612
0.00166528
0.00146937
0.00127345
0.00107754
0.000881621
0.000685706
0.00048979
0.000293874
9.79579e-05
0.000138896
0.000416688
0.000694476
0.000972257
0.00125003
0.00152779
0.00180554
0.00208326
0.00236097
0.00263864
0.00291629
0.0031939
0.00347147
0.00374898
0.00402644
0.00430384
0.00458116
0.00485839
0.00513553
0.00541257
0.00568948
0.00596627
0.0062429
0.00651937
0.00679566
0.00707174
0.00734761
0.00762323
0.00789858
0.00817364
0.00844839
0.00872279
0.00899681
0.00927043
0.00954362
0.00981632
0.0100885
0.0103602
0.0106312
0.0109017
0.0111714
0.0114405
0.0117088
0.0119762
0.0122428
0.0125085
0.0127732
0.0130369
0.0132995
0.0135609
0.0138211
0.01408
0.0143376
0.0145938
0.0148485
0.0151016
0.0153531
0.0156029
0.0158509
0.016097
0.0163412
0.0165834
0.0168235
0.0170613
0.017297
0.0175302
0.017761
0.0179893
0.0182149
0.0184378
0.0186579
0.0188751
0.0190894
0.0193005
0.0195085
0.0197133
0.0199147
0.0201126
0.020307
0.0204978
0.0206849
0.0208683
0.0210477
0.0212232
0.0213946
0.0215619
0.021725
0.0218838
0.0220383
0.0221883
0.0223339
0.0224748
0.0226111
0.0227427
0.0228696
0.0229916
0.0231088
0.023221
0.0233282
0.0234304
0.0235276
0.0236196
0.0237065
0.0237882
0.0238648
0.0239361
0.0240021
0.0240629
0.0241184
0.0241686
0.0242136
0.0242532
0.0242875
0.0243166
0.0243403
0.0243588
0.024372
0.02438
0.0243828
0.0243804
0.0243729
0.0243602
0.0243424
0.0243195
0.0242917
0.0242589
0.0242211
0.0241785
0.0241311
0.0240789
0.024022
0.0239604
0.0238943
0.0238236
0.0237484
0.0236689
0.023585
0.0234969
0.0234045
0.0233081
0.0232076
0.0231031
0.0229947
0.0228825
0.0227666
0.0226469
0.0225237
0.022397
0.0222668
0.0221332
0.0219964
0.0218563
0.0217131
0.0215669
0.0214176
0.0212655
0.0211105
0.0209528
0.0207924
0.0206294
0.0204638
0.0202958
0.0201254
0.0199527
0.0197777
0.0196006
0.0194213
0.01924
0.0190567
0.0188714
0.0186844
0.0184955
0.0183049
0.0181126
0.0179187
0.0177233
0.0175263
0.017328
0.0171282
0.0169271
0.0167246
0.016521
0.0163162
0.0161102
0.0159031
0.015695
0.0154859
0.0152758
0.0150648
0.0148529
0.0146402
0.0144267
0.0142124
0.0139974
0.0137816
0.0135653
0.0133482
0.0131306
0.0129124
0.0126937
0.0124745
0.0122548
0.0120346
0.011814
0.011593
0.0113716
0.0111499
0.0109278
0.0107053
0.0104826
0.0102596
0.0100364
0.00981286
0.00958912
0.00936517
0.00914103
0.0089167
0.00869219
0.00846754
0.00824273
0.00801779
0.00779273
0.00756756
0.00734229
0.00711692
0.00689146
0.00666593
0.00644033
0.00621467
0.00598895
0.00576319
0.00553737
0.00531152
0.00508564
0.00485972
0.00463378
0.00440782
0.00418184
0.00395584
0.00372983
0.00350381
0.00327778
0.00305174
0.00282569
0.00259965
0.00237359
0.00214754
0.00192148
0.00169543
0.00146937
0.00124331
0.00101726
0.000791199
0.000565142
0.000339085
0.000113028
0.00015742
0.000472259
0.000787093
0.00110192
0.00141674
0.00173154
0.00204633
0.0023611
0.00267585
0.00299057
0.00330525
0.00361989
0.00393449
0.00424903
0.00456351
0.00487791
0.00519224
0.00550648
0.00582061
0.00613462
0.0064485
0.00676223
0.0070758
0.00738918
0.00770237
0.00801533
0.00832804
0.00864048
0.00895262
0.00926444
0.0095759
0.00988698
0.0101976
0.0105078
0.0108175
0.0111267
0.0114353
0.0117433
0.0120507
0.0123573
0.0126632
0.0129682
0.0132724
0.0135757
0.013878
0.0141793
0.0144794
0.0147784
0.0150762
0.0153727
0.0156678
0.0159614
0.0162536
0.0165441
0.016833
0.0171201
0.0174053
0.0176887
0.01797
0.0182492
0.0185262
0.0188009
0.0190732
0.0193431
0.0196104
0.019875
0.0201368
0.0203958
0.0206518
0.0209047
0.0211544
0.0214009
0.0216439
0.0218835
0.0221195
0.0223518
0.0225803
0.022805
0.0230256
0.0232421
0.0234544
0.0236624
0.023866
0.0240651
0.0242597
0.0244495
0.0246346
0.0248148
0.0249901
0.0251604
0.0253255
0.0254855
0.0256401
0.0257895
0.0259334
0.0260719
0.0262048
0.0263321
0.0264538
0.0265698
0.02668
0.0267844
0.026883
0.0269757
0.0270625
0.0271434
0.0272183
0.0272872
0.0273502
0.0274071
0.027458
0.0275029
0.0275418
0.0275747
0.0276016
0.0276225
0.0276375
0.0276465
0.0276495
0.0276467
0.0276381
0.0276236
0.0276033
0.0275773
0.0275456
0.0275083
0.0274653
0.0274169
0.027363
0.0273036
0.027239
0.027169
0.0270938
0.0270135
0.0269282
0.0268378
0.0267425
0.0266424
0.0265376
0.026428
0.0263139
0.0261953
0.0260722
0.0259448
0.0258132
0.0256774
0.0255375
0.0253936
0.0252459
0.0250943
0.0249389
0.02478
0.0246175
0.0244515
0.0242821
0.0241095
0.0239336
0.0237546
0.0235726
0.0233876
0.0231998
0.0230092
0.0228158
0.0226199
0.0224214
0.0222204
0.022017
0.0218113
0.0216034
0.0213933
0.0211811
0.0209668
0.0207506
0.0205325
0.0203126
0.0200909
0.0198676
0.0196426
0.019416
0.0191879
0.0189584
0.0187274
0.0184951
0.0182616
0.0180267
0.0177907
0.0175536
0.0173154
0.0170761
0.0168359
0.0165947
0.0163526
0.0161096
0.0158658
0.0156212
0.0153759
0.0151298
0.0148831
0.0146358
0.0143878
0.0141392
0.0138902
0.0136406
0.0133905
0.0131399
0.0128889
0.0126375
0.0123858
0.0121336
0.0118812
0.0116284
0.0113753
0.0111219
0.0108683
0.0106145
0.0103604
0.0101061
0.00985164
0.00959699
0.00934217
0.00908721
0.00883211
0.00857689
0.00832155
0.0080661
0.00781056
0.00755494
0.00729924
0.00704347
0.00678764
0.00653175
0.00627581
0.00601984
0.00576382
0.00550777
0.00525169
0.00499559
0.00473947
0.00448333
0.00422718
0.00397101
0.00371484
0.00345866
0.00320247
0.00294628
0.00269008
0.00243389
0.00217769
0.00192149
0.00166529
0.00140909
0.00115289
0.000896692
0.000640494
0.000384297
0.000128099
0.000175945
0.000527833
0.000879717
0.00123159
0.00158346
0.00193532
0.00228715
0.00263897
0.00299076
0.00334252
0.00369425
0.00404593
0.00439756
0.00474913
0.00510064
0.00545207
0.00580342
0.00615466
0.00650579
0.0068568
0.00720766
0.00755836
0.00790888
0.0082592
0.0086093
0.00895916
0.00930874
0.00965803
0.010007
0.0103556
0.0107038
0.0110516
0.0113989
0.0117457
0.012092
0.0124377
0.0127828
0.0131271
0.0134708
0.0138137
0.0141557
0.0144968
0.014837
0.0151761
0.0155142
0.0158511
0.0161868
0.0165212
0.0168543
0.0171859
0.0175159
0.0178444
0.0181712
0.0184961
0.0188193
0.0191404
0.0194595
0.0197765
0.0200912
0.0204035
0.0207134
0.0210208
0.0213255
0.0216274
0.0219265
0.0222225
0.0225155
0.0228053
0.0230917
0.0233747
0.0236542
0.02393
0.024202
0.0244701
0.0247342
0.0249942
0.0252499
0.0255013
0.0257482
0.0259905
0.0262281
0.026461
0.0266888
0.0269117
0.0271294
0.0273419
0.0275491
0.0277508
0.027947
0.0281375
0.0283224
0.0285014
0.0286745
0.0288416
0.0290027
0.0291577
0.0293064
0.0294489
0.0295851
0.0297149
0.0298382
0.029955
0.0300653
0.0301691
0.0302662
0.0303566
0.0304404
0.0305175
0.0305879
0.0306516
0.0307085
0.0307587
0.0308021
0.0308389
0.0308689
0.0308922
0.0309088
0.0309188
0.0309221
0.0309189
0.0309091
0.0308927
0.0308699
0.0308407
0.0308051
0.0307632
0.0307151
0.0306607
0.0306003
0.0305337
0.0304612
0.0303828
0.0302986
0.0302086
0.0301129
0.0300117
0.0299049
0.0297928
0.0296753
0.0295526
0.0294248
0.0292919
0.0291541
0.0290114
0.028864
0.0287119
0.0285553
0.0283942
0.0282288
0.028059
0.0278851
0.0277072
0.0275253
0.0273395
0.0271499
0.0269566
0.0267598
0.0265595
0.0263558
0.0261488
0.0259386
0.0257252
0.0255089
0.0252896
0.0250675
0.0248426
0.024615
0.0243849
0.0241523
0.0239172
0.0236798
0.0234401
0.0231982
0.0229543
0.0227083
0.0224603
0.0222104
0.0219588
0.0217053
0.0214502
0.0211935
0.0209352
0.0206754
0.0204141
0.0201515
0.0198876
0.0196224
0.019356
0.0190884
0.0188198
0.0185501
0.0182793
0.0180076
0.017735
0.0174615
0.0171872
0.0169121
0.0166362
0.0163597
0.0160824
0.0158045
0.015526
0.015247
0.0149674
0.0146873
0.0144067
0.0141256
0.0138441
0.0135623
0.01328
0.0129974
0.0127145
0.0124313
0.0121478
0.011864
0.01158
0.0112957
0.0110113
0.0107266
0.0104418
0.0101568
0.00987162
0.00958633
0.00930091
0.00901538
0.00872975
0.00844403
0.00815821
0.00787233
0.00758638
0.00730036
0.0070143
0.00672818
0.00644203
0.00615584
0.00586963
0.00558338
0.00529712
0.00501084
0.00472454
0.00443823
0.00415191
0.00386558
0.00357925
0.00329291
0.00300657
0.00272023
0.00243389
0.00214755
0.00186121
0.00157487
0.00128853
0.00100219
0.000715846
0.000429508
0.000143169
0.000194471
0.000583412
0.000972348
0.00136128
0.0017502
0.0021391
0.00252799
0.00291686
0.0033057
0.00369451
0.00408329
0.00447202
0.00486069
0.00524931
0.00563786
0.00602632
0.0064147
0.00680296
0.00719111
0.00757912
0.00796698
0.00835467
0.00874217
0.00912944
0.00951649
0.00990326
0.0102897
0.0106759
0.0110617
0.0114471
0.0118321
0.0122167
0.0126007
0.0129842
0.0133671
0.0137493
0.0141309
0.0145117
0.0148917
0.0152709
0.0156491
0.0160264
0.0164026
0.0167777
0.0171516
0.0175242
0.0178955
0.0182654
0.0186338
0.0190006
0.0193657
0.019729
0.0200905
0.02045
0.0208075
0.0211628
0.0215159
0.0218665
0.0222147
0.0225603
0.0229032
0.0232433
0.0235805
0.0239146
0.0242455
0.0245732
0.0248974
0.0252181
0.0255351
0.0258483
0.0261576
0.0264629
0.0267639
0.0270607
0.027353
0.0276408
0.0279239
0.0282021
0.0284754
0.0287437
0.0290067
0.0292644
0.0295167
0.0297634
0.0300044
0.0302397
0.030469
0.0306923
0.0309095
0.0311204
0.031325
0.0315232
0.0317148
0.0318999
0.0320782
0.0322497
0.0324144
0.0325721
0.0327228
0.0328664
0.0330029
0.0331322
0.0332543
0.0333691
0.0334765
0.0335766
0.0336693
0.0337545
0.0338324
0.0339028
0.0339657
0.0340212
0.0340692
0.0341097
0.0341429
0.0341685
0.0341868
0.0341978
0.0342013
0.0341976
0.0341866
0.0341684
0.034143
0.0341105
0.034071
0.0340245
0.033971
0.0339107
0.0338436
0.0337698
0.0336894
0.0336024
0.033509
0.0334093
0.0333032
0.033191
0.0330727
0.0329484
0.0328183
0.0326823
0.0325407
0.0323935
0.0322408
0.0320828
0.0319195
0.0317511
0.0315776
0.0313992
0.0312159
0.031028
0.0308354
0.0306384
0.0304369
0.0302312
0.0300214
0.0298074
0.0295895
0.0293678
0.0291423
0.0289131
0.0286804
0.0284443
0.0282049
0.0279622
0.0277164
0.0274675
0.0272157
0.026961
0.0267036
0.0264435
0.0261808
0.0259156
0.025648
0.025378
0.0251059
0.0248315
0.0245551
0.0242767
0.0239964
0.0237141
0.0234301
0.0231444
0.0228571
0.0225681
0.0222776
0.0219857
0.0216924
0.0213978
0.0211019
0.0208047
0.0205064
0.020207
0.0199066
0.0196051
0.0193027
0.0189993
0.0186951
0.0183901
0.0180843
0.0177777
0.0174704
0.0171625
0.0168539
0.0165448