/*--------------------------------*- C++ -*----------------------------------*\
| =========                 |                                                 |
| \\      /  F ield         | OpenFOAM: The Open Source CFD Toolbox           |
|  \\    /   O peration     | Version:  v2012                                 |
|   \\  /    A nd           | Website:  www.openfoam.com                      |
|    \\/     M anipulation  |                                                 |
\*---------------------------------------------------------------------------*/
FoamFile
{
    version     2.0;
    format      ascii;
    class       surfaceScalarField;
    location    "5.8";
    object      phi;
}
// * * * * * * * * * * * * * * * * * * * * * * * * * * * * * * * * * * * * * //

dimensions      [0 3 -1 0 0 0 0];
oriented        oriented;


internalField   nonuniform List<scalar> 
130560
(
3.65976e-06
-3.65976e-06
7.31938e-06
-3.65962e-06
1.09787e-05
-3.65937e-06
1.46377e-05
-3.65898e-06
1.82962e-05
-3.65846e-06
2.1954e-05
-3.65781e-06
2.5611e-05
-3.65702e-06
2.92671e-05
-3.65608e-06
3.29221e-05
-3.655e-06
3.65759e-05
-3.65376e-06
4.02282e-05
-3.65237e-06
4.3879e-05
-3.65081e-06
4.75281e-05
-3.64907e-06
5.11753e-05
-3.64716e-06
5.48203e-05
-3.64505e-06
5.84631e-05
-3.64274e-06
6.21033e-05
-3.64022e-06
6.57407e-05
-3.63747e-06
6.93752e-05
-3.6345e-06
7.30065e-05
-3.63127e-06
7.66343e-05
-3.62779e-06
8.02583e-05
-3.62404e-06
8.38783e-05
-3.62e-06
8.7494e-05
-3.61567e-06
9.1105e-05
-3.61102e-06
9.47111e-05
-3.60603e-06
9.83118e-05
-3.6007e-06
0.000101907
-3.59501e-06
0.000105496
-3.58894e-06
0.000109078
-3.58248e-06
0.000112654
-3.57559e-06
0.000116222
-3.56828e-06
0.000119783
-3.56051e-06
0.000123335
-3.55227e-06
0.000126878
-3.54355e-06
0.000130413
-3.53431e-06
0.000133937
-3.52455e-06
0.000137451
-3.51423e-06
0.000140955
-3.50335e-06
0.000144447
-3.49188e-06
0.000147927
-3.47981e-06
0.000151394
-3.4671e-06
0.000154847
-3.45374e-06
0.000158287
-3.43971e-06
0.000161712
-3.42499e-06
0.000165122
-3.40957e-06
0.000168515
-3.39341e-06
0.000171892
-3.3765e-06
0.00017525
-3.35882e-06
0.000178591
-3.34035e-06
0.000181912
-3.32108e-06
0.000185213
-3.30098e-06
0.000188493
-3.28004e-06
0.000191751
-3.25823e-06
0.000194987
-3.23555e-06
0.000198199
-3.21198e-06
0.000201386
-3.18749e-06
0.000204548
-3.16208e-06
0.000207684
-3.13574e-06
0.000210792
-3.10844e-06
0.000213873
-3.08018e-06
0.000216923
-3.05095e-06
0.000219944
-3.02073e-06
0.000222934
-2.98952e-06
0.000225891
-2.9573e-06
0.000228815
-2.92408e-06
0.000231705
-2.88984e-06
0.00023456
-2.85459e-06
0.000237378
-2.81831e-06
0.000240159
-2.78101e-06
0.000242902
-2.74269e-06
0.000245605
-2.70334e-06
0.000248268
-2.66297e-06
0.000250889
-2.62159e-06
0.000253469
-2.57919e-06
0.000256004
-2.53579e-06
0.000258496
-2.49138e-06
0.000260942
-2.446e-06
0.000263341
-2.39963e-06
0.000265694
-2.3523e-06
0.000267998
-2.30402e-06
0.000270253
-2.25481e-06
0.000272457
-2.20468e-06
0.000274611
-2.15365e-06
0.000276713
-2.10174e-06
0.000278762
-2.04898e-06
0.000280757
-1.99538e-06
0.000282698
-1.94097e-06
0.000284584
-1.88577e-06
0.000286414
-1.82982e-06
0.000288187
-1.77314e-06
0.000289902
-1.71576e-06
0.00029156
-1.65771e-06
0.000293159
-1.59902e-06
0.000294699
-1.53972e-06
0.000296179
-1.47985e-06
0.000297598
-1.41944e-06
0.000298957
-1.35853e-06
0.000300254
-1.29715e-06
0.000301489
-1.23534e-06
0.000302662
-1.17314e-06
0.000303773
-1.11058e-06
0.000304821
-1.0477e-06
0.000305805
-9.84539e-07
0.000306726
-9.21139e-07
0.000307584
-8.57537e-07
0.000308378
-7.93771e-07
0.000309107
-7.29881e-07
0.000309773
-6.65906e-07
0.000310375
-6.01885e-07
0.000310913
-5.37855e-07
0.000311387
-4.73856e-07
0.000311797
-4.09926e-07
0.000312143
-3.46102e-07
0.000312425
-2.82421e-07
0.000312644
-2.1892e-07
0.0003128
-1.55634e-07
0.000312893
-9.25998e-08
0.000312922
-2.98508e-08
0.00031289
3.2579e-08
0.000312795
9.46569e-08
0.000312639
1.56351e-07
0.000312421
2.1763e-07
0.000312143
2.78464e-07
0.000311804
3.38825e-07
0.000311405
3.98684e-07
0.000310947
4.58014e-07
0.00031043
5.1679e-07
0.000309855
5.74987e-07
0.000309223
6.32582e-07
0.000308533
6.89552e-07
0.000307787
7.45877e-07
0.000306986
8.01537e-07
0.000306129
8.56512e-07
0.000305219
9.10786e-07
0.000304254
9.64341e-07
0.000303237
1.01716e-06
0.000302168
1.06924e-06
0.000301047
1.12056e-06
0.000299876
1.1711e-06
0.000298655
1.22086e-06
0.000297385
1.26984e-06
0.000296067
1.31801e-06
0.000294702
1.36537e-06
0.00029329
1.41193e-06
0.000291833
1.45766e-06
0.00029033
1.50257e-06
0.000288783
1.54666e-06
0.000287193
1.58992e-06
0.000285561
1.63235e-06
0.000283887
1.67395e-06
0.000282172
1.71472e-06
0.000280418
1.75467e-06
0.000278624
1.79378e-06
0.000276792
1.83208e-06
0.000274922
1.86955e-06
0.000273016
1.90621e-06
0.000271074
1.94206e-06
0.000269097
1.9771e-06
0.000267086
2.01134e-06
0.000265041
2.04478e-06
0.000262963
2.07744e-06
0.000260854
2.10932e-06
0.000258714
2.14043e-06
0.000256543
2.17077e-06
0.000254342
2.20036e-06
0.000252113
2.2292e-06
0.000249856
2.2573e-06
0.000247571
2.28468e-06
0.00024526
2.31134e-06
0.000242923
2.33728e-06
0.00024056
2.36254e-06
0.000238173
2.3871e-06
0.000235762
2.41099e-06
0.000233328
2.43421e-06
0.000230871
2.45678e-06
0.000228392
2.4787e-06
0.000225892
2.49999e-06
0.000223372
2.52065e-06
0.000220831
2.54071e-06
0.000218271
2.56017e-06
0.000215692
2.57903e-06
0.000213094
2.59733e-06
0.000210479
2.61505e-06
0.000207847
2.63223e-06
0.000205198
2.64885e-06
0.000202533
2.66495e-06
0.000199853
2.68053e-06
0.000197157
2.6956e-06
0.000194447
2.71017e-06
0.000191723
2.72425e-06
0.000188985
2.73786e-06
0.000186234
2.75101e-06
0.00018347
2.7637e-06
0.000180694
2.77594e-06
0.000177907
2.78776e-06
0.000175107
2.79915e-06
0.000172297
2.81013e-06
0.000169477
2.82071e-06
0.000166646
2.8309e-06
0.000163805
2.84071e-06
0.000160955
2.85015e-06
0.000158096
2.85923e-06
0.000155228
2.86795e-06
0.000152351
2.87634e-06
0.000149467
2.88439e-06
0.000146575
2.89213e-06
0.000143675
2.89954e-06
0.000140769
2.90666e-06
0.000137855
2.91348e-06
0.000134935
2.92001e-06
0.000132009
2.92627e-06
0.000129077
2.93226e-06
0.000126139
2.93799e-06
0.000123195
2.94346e-06
0.000120246
2.94869e-06
0.000117293
2.95369e-06
0.000114334
2.95845e-06
0.000111371
2.963e-06
0.000108404
2.96733e-06
0.000105433
2.97146e-06
0.000102457
2.97538e-06
9.9478e-05
2.97912e-06
9.64953e-05
2.98267e-06
9.35093e-05
2.98604e-06
9.05201e-05
2.98924e-06
8.75278e-05
2.99227e-06
8.45327e-05
2.99514e-06
8.15348e-05
2.99786e-06
7.85344e-05
3.00043e-06
7.55315e-05
3.00285e-06
7.25264e-05
3.00514e-06
6.95191e-05
3.0073e-06
6.65098e-05
3.00933e-06
6.34985e-05
3.01123e-06
6.04855e-05
3.01302e-06
5.74708e-05
3.01469e-06
5.44546e-05
3.01626e-06
5.14368e-05
3.01771e-06
4.84178e-05
3.01907e-06
4.53974e-05
3.02033e-06
4.2376e-05
3.02149e-06
3.93534e-05
3.02256e-06
3.63299e-05
3.02354e-06
3.33054e-05
3.02444e-06
3.02802e-05
3.02525e-06
2.72542e-05
3.02598e-06
2.42276e-05
3.02663e-06
2.12003e-05
3.02721e-06
1.81726e-05
3.02771e-06
1.51445e-05
3.02813e-06
1.2116e-05
3.02848e-06
9.08726e-06
3.02876e-06
6.05829e-06
3.02897e-06
3.02918e-06
3.02911e-06
3.02918e-06
3.65988e-06
-7.31963e-06
7.31962e-06
-7.31937e-06
1.09791e-05
-7.31886e-06
1.46382e-05
-7.31809e-06
1.82968e-05
-7.31706e-06
2.19548e-05
-7.31575e-06
2.56119e-05
-7.31417e-06
2.92681e-05
-7.31231e-06
3.29233e-05
-7.31015e-06
3.65772e-05
-7.30769e-06
4.02298e-05
-7.3049e-06
4.38807e-05
-7.30179e-06
4.753e-05
-7.29832e-06
5.11773e-05
-7.2945e-06
5.48226e-05
-7.29029e-06
5.84655e-05
-7.28568e-06
6.21059e-05
-7.28065e-06
6.57436e-05
-7.27517e-06
6.93784e-05
-7.26923e-06
7.30099e-05
-7.2628e-06
7.6638e-05
-7.25586e-06
8.02623e-05
-7.24837e-06
8.38826e-05
-7.24031e-06
8.74986e-05
-7.23165e-06
9.11099e-05
-7.22236e-06
9.47163e-05
-7.21241e-06
9.83174e-05
-7.20177e-06
0.000101913
-7.1904e-06
0.000105502
-7.17828e-06
0.000109085
-7.16536e-06
0.000112661
-7.15162e-06
0.00011623
-7.137e-06
0.000119791
-7.12149e-06
0.000123343
-7.10503e-06
0.000126888
-7.0876e-06
0.000130422
-7.06915e-06
0.000133947
-7.04964e-06
0.000137462
-7.02904e-06
0.000140966
-7.00729e-06
0.000144459
-6.98437e-06
0.000147939
-6.96024e-06
0.000151407
-6.93484e-06
0.000154861
-6.90815e-06
0.000158302
-6.88011e-06
0.000161727
-6.85069e-06
0.000165138
-6.81986e-06
0.000168532
-6.78756e-06
0.000171909
-6.75376e-06
0.000175269
-6.71843e-06
0.00017861
-6.68151e-06
0.000181932
-6.64298e-06
0.000185234
-6.6028e-06
0.000188514
-6.56093e-06
0.000191774
-6.51734e-06
0.00019501
-6.472e-06
0.000198223
-6.42486e-06
0.000201411
-6.37591e-06
0.000204574
-6.3251e-06
0.000207711
-6.27242e-06
0.00021082
-6.21784e-06
0.000213902
-6.16133e-06
0.000216953
-6.10288e-06
0.000219975
-6.04245e-06
0.000222966
-5.98003e-06
0.000225924
-5.91561e-06
0.000228849
-5.84917e-06
0.00023174
-5.7807e-06
0.000234596
-5.7102e-06
0.000237415
-5.63765e-06
0.000240197
-5.56305e-06
0.000242941
-5.4864e-06
0.000245645
-5.4077e-06
0.000248309
-5.32696e-06
0.000250932
-5.24418e-06
0.000253512
-5.15938e-06
0.000256049
-5.07257e-06
0.000258541
-4.98375e-06
0.000260988
-4.89297e-06
0.000263389
-4.80022e-06
0.000265742
-4.70555e-06
0.000268047
-4.60898e-06
0.000270302
-4.51053e-06
0.000272508
-4.41025e-06
0.000274663
-4.30817e-06
0.000276765
-4.20434e-06
0.000278815
-4.09878e-06
0.000280811
-3.99156e-06
0.000282753
-3.88272e-06
0.000284639
-3.7723e-06
0.00028647
-3.66037e-06
0.000288244
-3.54698e-06
0.00028996
-3.43219e-06
0.000291619
-3.31605e-06
0.000293218
-3.19864e-06
0.000294759
-3.08001e-06
0.000296239
-2.96024e-06
0.000297659
-2.83939e-06
0.000299018
-2.71753e-06
0.000300315
-2.59473e-06
0.000301551
-2.47108e-06
0.000302725
-2.34663e-06
0.000303836
-2.22147e-06
0.000304884
-2.09568e-06
0.000305868
-1.96932e-06
0.00030679
-1.84248e-06
0.000307647
-1.71524e-06
0.000308441
-1.58767e-06
0.000309171
-1.45985e-06
0.000309837
-1.33186e-06
0.000310439
-1.20378e-06
0.000310977
-1.07568e-06
0.000311451
-9.47645e-07
0.00031186
-8.19747e-07
0.000312206
-6.92062e-07
0.000312489
-5.64663e-07
0.000312707
-4.37625e-07
0.000312863
-3.11019e-07
0.000312955
-1.84916e-07
0.000312985
-5.93845e-08
0.000312952
6.5508e-08
0.000312857
1.89696e-07
0.0003127
3.13115e-07
0.000312482
4.35703e-07
0.000312203
5.574e-07
0.000311864
6.78149e-07
0.000311464
7.97893e-07
0.000311006
9.1658e-07
0.000310488
1.03416e-06
0.000309913
1.15057e-06
0.00030928
1.26579e-06
0.000308589
1.37975e-06
0.000307843
1.49242e-06
0.000307041
1.60375e-06
0.000306183
1.71372e-06
0.000305272
1.82229e-06
0.000304307
1.92941e-06
0.000303289
2.03507e-06
0.000302219
2.13924e-06
0.000301098
2.24188e-06
0.000299926
2.34298e-06
0.000298704
2.44252e-06
0.000297434
2.54047e-06
0.000296115
2.63682e-06
0.000294749
2.73156e-06
0.000293336
2.82467e-06
0.000291877
2.91614e-06
0.000290374
3.00597e-06
0.000288826
3.09414e-06
0.000287236
3.18066e-06
0.000285602
3.26553e-06
0.000283928
3.34873e-06
0.000282212
3.43027e-06
0.000280457
3.51015e-06
0.000278662
3.58839e-06
0.000276829
3.66497e-06
0.000274959
3.73992e-06
0.000273052
3.81323e-06
0.000271109
3.88492e-06
0.000269131
3.95499e-06
0.000267119
4.02346e-06
0.000265073
4.09035e-06
0.000262995
4.15566e-06
0.000260885
4.21941e-06
0.000258744
4.28162e-06
0.000256572
4.34229e-06
0.000254371
4.40146e-06
0.000252141
4.45913e-06
0.000249883
4.51533e-06
0.000247598
4.57007e-06
0.000245286
4.62338e-06
0.000242948
4.67526e-06
0.000240585
4.72576e-06
0.000238197
4.77488e-06
0.000235785
4.82264e-06
0.00023335
4.86907e-06
0.000230893
4.91419e-06
0.000228414
4.95803e-06
0.000225913
5.00059e-06
0.000223392
5.04191e-06
0.00022085
5.08202e-06
0.00021829
5.12092e-06
0.00021571
5.15864e-06
0.000213112
5.19522e-06
0.000210497
5.23066e-06
0.000207864
5.26499e-06
0.000205214
5.29824e-06
0.000202549
5.33042e-06
0.000199868
5.36157e-06
0.000197172
5.39169e-06
0.000194461
5.42083e-06
0.000191736
5.44898e-06
0.000188998
5.47619e-06
0.000186247
5.50247e-06
0.000183483
5.52783e-06
0.000180706
5.55232e-06
0.000177918
5.57594e-06
0.000175118
5.59871e-06
0.000172308
5.62066e-06
0.000169487
5.64181e-06
0.000166656
5.66218e-06
0.000163814
5.68179e-06
0.000160964
5.70066e-06
0.000158104
5.7188e-06
0.000155236
5.73625e-06
0.000152359
5.75301e-06
0.000149475
5.76911e-06
0.000146582
5.78456e-06
0.000143682
5.79939e-06
0.000140775
5.81361e-06
0.000137862
5.82724e-06
0.000134941
5.8403e-06
0.000132015
5.85281e-06
0.000129082
5.86478e-06
0.000126144
5.87622e-06
0.0001232
5.88717e-06
0.000120251
5.89762e-06
0.000117298
5.9076e-06
0.000114339
5.91713e-06
0.000111376
5.92621e-06
0.000108408
5.93487e-06
0.000105436
5.94311e-06
0.000102461
5.95096e-06
9.94816e-05
5.95842e-06
9.64987e-05
5.96551e-06
9.35125e-05
5.97225e-06
9.05231e-05
5.97864e-06
8.75307e-05
5.9847e-06
8.45354e-05
5.99043e-06
8.15374e-05
5.99586e-06
7.85368e-05
6.001e-06
7.55338e-05
6.00584e-06
7.25286e-05
6.01042e-06
6.95211e-05
6.01472e-06
6.65117e-05
6.01878e-06
6.35003e-05
6.02258e-06
6.04872e-05
6.02615e-06
5.74724e-05
6.0295e-06
5.4456e-05
6.03262e-06
5.14382e-05
6.03553e-06
4.8419e-05
6.03824e-06
4.53986e-05
6.04075e-06
4.2377e-05
6.04307e-06
3.93544e-05
6.04521e-06
3.63308e-05
6.04717e-06
3.33062e-05
6.04896e-06
3.02809e-05
6.05058e-06
2.72548e-05
6.05204e-06
2.42281e-05
6.05334e-06
2.12008e-05
6.05449e-06
1.81731e-05
6.05549e-06
1.51449e-05
6.05633e-06
1.21163e-05
6.05704e-06
9.08747e-06
6.0576e-06
6.05843e-06
6.05801e-06
3.02925e-06
6.05829e-06
6.05843e-06
3.66013e-06
-1.09798e-05
7.32014e-06
-1.09794e-05
1.09799e-05
-1.09786e-05
1.46393e-05
-1.09775e-05
1.82981e-05
-1.09759e-05
2.19564e-05
-1.0974e-05
2.56138e-05
-1.09716e-05
2.92703e-05
-1.09688e-05
3.29258e-05
-1.09656e-05
3.658e-05
-1.09619e-05
4.02329e-05
-1.09578e-05
4.38842e-05
-1.09531e-05
4.75338e-05
-1.09479e-05
5.11816e-05
-1.09422e-05
5.48272e-05
-1.09359e-05
5.84706e-05
-1.0929e-05
6.21115e-05
-1.09215e-05
6.57496e-05
-1.09133e-05
6.93849e-05
-1.09045e-05
7.30169e-05
-1.08948e-05
7.66455e-05
-1.08845e-05
8.02704e-05
-1.08733e-05
8.38913e-05
-1.08612e-05
8.75079e-05
-1.08483e-05
9.11199e-05
-1.08344e-05
9.4727e-05
-1.08195e-05
9.83288e-05
-1.08036e-05
0.000101925
-1.07866e-05
0.000105515
-1.07684e-05
0.000109099
-1.07491e-05
0.000112676
-1.07285e-05
0.000116245
-1.07066e-05
0.000119807
-1.06834e-05
0.000123361
-1.06588e-05
0.000126906
-1.06327e-05
0.000130442
-1.0605e-05
0.000133968
-1.05758e-05
0.000137484
-1.0545e-05
0.000140989
-1.05124e-05
0.000144483
-1.04781e-05
0.000147965
-1.04419e-05
0.000151434
-1.04039e-05
0.000154889
-1.03639e-05
0.000158331
-1.03219e-05
0.000161758
-1.02778e-05
0.00016517
-1.02316e-05
0.000168566
-1.01832e-05
0.000171944
-1.01326e-05
0.000175306
-1.00796e-05
0.000178648
-1.00243e-05
0.000181972
-9.96654e-06
0.000185276
-9.90631e-06
0.000188558
-9.84355e-06
0.000191819
-9.77821e-06
0.000195057
-9.71023e-06
0.000198272
-9.63957e-06
0.000201462
-9.56617e-06
0.000204627
-9.49e-06
0.000207766
-9.41102e-06
0.000210877
-9.32917e-06
0.00021396
-9.24444e-06
0.000217014
-9.15678e-06
0.000220038
-9.06616e-06
0.00022303
-8.97255e-06
0.000225991
-8.87594e-06
0.000228918
-8.7763e-06
0.000231811
-8.6736e-06
0.000234668
-8.56785e-06
0.00023749
-8.45903e-06
0.000240274
-8.34713e-06
0.000243019
-8.23216e-06
0.000245726
-8.11411e-06
0.000248392
-7.99298e-06
0.000251017
-7.86881e-06
0.000253599
-7.74159e-06
0.000256138
-7.61134e-06
0.000258632
-7.4781e-06
0.000261081
-7.34189e-06
0.000263483
-7.20275e-06
0.000265838
-7.0607e-06
0.000268145
-6.9158e-06
0.000270403
-6.76809e-06
0.00027261
-6.61763e-06
0.000274767
-6.46446e-06
0.000276871
-6.30865e-06
0.000278922
-6.15026e-06
0.00028092
-5.98937e-06
0.000282863
-5.82604e-06
0.000284751
-5.66035e-06
0.000286584
-5.49238e-06
0.000288359
-5.32222e-06
0.000290077
-5.14996e-06
0.000291736
-4.97567e-06
0.000293337
-4.79947e-06
0.000294878
-4.62145e-06
0.00029636
-4.4417e-06
0.000297781
-4.26034e-06
0.000299141
-4.07746e-06
0.000300439
-3.89318e-06
0.000301676
-3.7076e-06
0.00030285
-3.52084e-06
0.000303961
-3.333e-06
0.00030501
-3.14421e-06
0.000305995
-2.95458e-06
0.000306917
-2.76423e-06
0.000307775
-2.57327e-06
0.000308569
-2.38181e-06
0.000309299
-2.18999e-06
0.000309965
-1.99791e-06
0.000310567
-1.80569e-06
0.000311105
-1.61345e-06
0.000311579
-1.4213e-06
0.000311988
-1.22935e-06
0.000312334
-1.03773e-06
0.000312616
-8.46545e-07
0.000312834
-6.55898e-07
0.000312989
-4.65901e-07
0.000313081
-2.7666e-07
0.00031311
-8.82781e-08
0.000313076
9.91427e-08
0.00031298
2.85504e-07
0.000312823
4.7071e-07
0.000312604
6.54667e-07
0.000312324
8.37286e-07
0.000311983
1.01848e-06
0.000311583
1.19816e-06
0.000311123
1.37626e-06
0.000310605
1.55268e-06
0.000310028
1.72737e-06
0.000309394
1.90024e-06
0.000308702
2.07124e-06
0.000307954
2.24029e-06
0.000307151
2.40734e-06
0.000306292
2.57234e-06
0.000305379
2.73523e-06
0.000304413
2.89595e-06
0.000303393
3.05448e-06
0.000302322
3.21076e-06
0.000301199
3.36475e-06
0.000300025
3.51643e-06
0.000298802
3.66575e-06
0.00029753
3.8127e-06
0.00029621
3.95725e-06
0.000294842
4.09937e-06
0.000293427
4.23905e-06
0.000291967
4.37627e-06
0.000290462
4.51102e-06
0.000288913
4.64329e-06
0.000287321
4.77307e-06
0.000285686
4.90036e-06
0.000284009
5.02516e-06
0.000282292
5.14747e-06
0.000280535
5.2673e-06
0.000278739
5.38464e-06
0.000276904
5.49951e-06
0.000275032
5.61191e-06
0.000273124
5.72187e-06
0.000271179
5.82939e-06
0.0002692
5.93449e-06
0.000267186
6.03718e-06
0.000265139
6.13749e-06
0.000263059
6.23544e-06
0.000260947
6.33105e-06
0.000258805
6.42433e-06
0.000256632
6.51533e-06
0.000254429
6.60405e-06
0.000252198
6.69054e-06
0.000249938
6.77481e-06
0.000247651
6.8569e-06
0.000245338
6.93683e-06
0.000242998
7.01464e-06
0.000240634
7.09035e-06
0.000238245
7.16401e-06
0.000235832
7.23562e-06
0.000233396
7.30525e-06
0.000230937
7.3729e-06
0.000228456
7.43862e-06
0.000225954
7.50244e-06
0.000223432
7.5644e-06
0.000220889
7.62452e-06
0.000218327
7.68285e-06
0.000215747
7.73941e-06
0.000213148
7.79424e-06
0.000210531
7.84737e-06
0.000207897
7.89884e-06
0.000205247
7.94869e-06
0.00020258
7.99694e-06
0.000199898
8.04362e-06
0.000197201
8.08879e-06
0.000194489
8.13245e-06
0.000191764
8.17466e-06
0.000189024
8.21545e-06
0.000186272
8.25483e-06
0.000183507
8.29286e-06
0.00018073
8.32956e-06
0.000177941
8.36496e-06
0.00017514
8.39909e-06
0.000172329
8.432e-06
0.000169507
8.4637e-06
0.000166675
8.49422e-06
0.000163833
8.52361e-06
0.000160982
8.55189e-06
0.000158122
8.57908e-06
0.000155253
8.60522e-06
0.000152375
8.63034e-06
0.00014949
8.65447e-06
0.000146597
8.67763e-06
0.000143697
8.69985e-06
0.000140789
8.72116e-06
0.000137875
8.74158e-06
0.000134954
8.76115e-06
0.000132027
8.77989e-06
0.000129094
8.79782e-06
0.000126155
8.81497e-06
0.000123211
8.83136e-06
0.000120261
8.84702e-06
0.000117307
8.86197e-06
0.000114348
8.87624e-06
0.000111384
8.88985e-06
0.000108416
8.90282e-06
0.000105444
8.91517e-06
0.000102468
8.92692e-06
9.94887e-05
8.93809e-06
9.65055e-05
8.94872e-06
9.35189e-05
8.9588e-06
9.05292e-05
8.96837e-06
8.75364e-05
8.97744e-06
8.45408e-05
8.98604e-06
8.15425e-05
8.99417e-06
7.85417e-05
9.00185e-06
7.55384e-05
9.00911e-06
7.25329e-05
9.01596e-06
6.95252e-05
9.0224e-06
6.65155e-05
9.02847e-06
6.35039e-05
9.03417e-06
6.04905e-05
9.03951e-06
5.74755e-05
9.04452e-06
5.44589e-05
9.04919e-06
5.14409e-05
9.05355e-06
4.84216e-05
9.05761e-06
4.54009e-05
9.06137e-06
4.23792e-05
9.06484e-06
3.93563e-05
9.06804e-06
3.63325e-05
9.07098e-06
3.33079e-05
9.07365e-06
3.02824e-05
9.07608e-06
2.72561e-05
9.07826e-06
2.42293e-05
9.08021e-06
2.12018e-05
9.08192e-06
1.81739e-05
9.08341e-06
1.51456e-05
9.08468e-06
1.21169e-05
9.08574e-06
9.08789e-06
9.08657e-06
6.05871e-06
9.0872e-06
3.02939e-06
9.08761e-06
9.08782e-06
3.66052e-06
-1.46403e-05
7.32091e-06
-1.46398e-05
1.09811e-05
-1.46388e-05
1.46408e-05
-1.46372e-05
1.83001e-05
-1.46352e-05
2.19587e-05
-1.46326e-05
2.56166e-05
-1.46295e-05
2.92736e-05
-1.46258e-05
3.29295e-05
-1.46215e-05
3.65842e-05
-1.46166e-05
4.02376e-05
-1.46111e-05
4.38894e-05
-1.4605e-05
4.75396e-05
-1.45981e-05
5.11879e-05
-1.45905e-05
5.48342e-05
-1.45822e-05
5.84782e-05
-1.4573e-05
6.21197e-05
-1.45631e-05
6.57586e-05
-1.45522e-05
6.93945e-05
-1.45404e-05
7.30274e-05
-1.45277e-05
7.66568e-05
-1.45139e-05
8.02825e-05
-1.4499e-05
8.39043e-05
-1.4483e-05
8.75219e-05
-1.44658e-05
9.11349e-05
-1.44474e-05
9.4743e-05
-1.44276e-05
9.83459e-05
-1.44064e-05
0.000101943
-1.43838e-05
0.000105534
-1.43597e-05
0.000109119
-1.4334e-05
0.000112698
-1.43067e-05
0.000116269
-1.42776e-05
0.000119832
-1.42467e-05
0.000123387
-1.4214e-05
0.000126934
-1.41793e-05
0.000130471
-1.41425e-05
0.000133999
-1.41037e-05
0.000137517
-1.40626e-05
0.000141024
-1.40193e-05
0.000144519
-1.39736e-05
0.000148003
-1.39255e-05
0.000151474
-1.38749e-05
0.000154932
-1.38217e-05
0.000158375
-1.37657e-05
0.000161805
-1.37071e-05
0.000165219
-1.36456e-05
0.000168616
-1.35811e-05
0.000171998
-1.35137e-05
0.000175361
-1.34432e-05
0.000178706
-1.33695e-05
0.000182032
-1.32926e-05
0.000185338
-1.32124e-05
0.000188624
-1.31288e-05
0.000191887
-1.30417e-05
0.000195128
-1.29511e-05
0.000198346
-1.2857e-05
0.000201539
-1.27592e-05
0.000204706
-1.26577e-05
0.000207848
-1.25525e-05
0.000210962
-1.24434e-05
0.000214048
-1.23305e-05
0.000217105
-1.22136e-05
0.000220132
-1.20929e-05
0.000223127
-1.19681e-05
0.00022609
-1.18393e-05
0.000229021
-1.17065e-05
0.000231917
-1.15696e-05
0.000234777
-1.14286e-05
0.000237602
-1.12835e-05
0.000240389
-1.11343e-05
0.000243138
-1.0981e-05
0.000245847
-1.08236e-05
0.000248516
-1.06621e-05
0.000251144
-1.04965e-05
0.000253729
-1.03268e-05
0.000256271
-1.01531e-05
0.000258768
-9.97542e-06
0.00026122
-9.79376e-06
0.000263626
-9.60817e-06
0.000265984
-9.41871e-06
0.000268293
-9.22544e-06
0.000270554
-9.02841e-06
0.000272764
-8.8277e-06
0.000274923
-8.62339e-06
0.000277029
-8.41554e-06
0.000279083
-8.20425e-06
0.000281084
-7.98961e-06
0.000283029
-7.77172e-06
0.00028492
-7.55068e-06
0.000286754
-7.32659e-06
0.000288531
-7.09957e-06
0.000290251
-6.86974e-06
0.000291913
-6.63722e-06
0.000293515
-6.40213e-06
0.000295058
-6.16461e-06
0.000296541
-5.92479e-06
0.000297964
-5.6828e-06
0.000299325
-5.4388e-06
0.000300625
-5.19292e-06
0.000301863
-4.94531e-06
0.000303038
-4.69611e-06
0.00030415
-4.44549e-06
0.0003052
-4.19359e-06
0.000306186
-3.94057e-06
0.000307108
-3.68658e-06
0.000307967
-3.43178e-06
0.000308761
-3.17633e-06
0.000309492
-2.92038e-06
0.000310158
-2.66409e-06
0.00031076
-2.40762e-06
0.000311297
-2.15111e-06
0.000311771
-1.89474e-06
0.00031218
-1.63864e-06
0.000312525
-1.38297e-06
0.000312807
-1.12788e-06
0.000313024
-8.73519e-07
0.000313178
-6.20025e-07
0.000313269
-3.67542e-07
0.000313297
-1.16209e-07
0.000313263
1.33838e-07
0.000313166
3.82469e-07
0.000313007
6.29556e-07
0.000312786
8.74972e-07
0.000312505
1.1186e-06
0.000312163
1.36032e-06
0.000311761
1.60002e-06
0.0003113
1.8376e-06
0.00031078
2.07295e-06
0.000310201
2.30597e-06
0.000309565
2.53658e-06
0.000308871
2.76467e-06
0.000308122
2.99017e-06
0.000307316
3.21299e-06
0.000306455
3.43307e-06
0.00030554
3.65033e-06
0.000304571
3.8647e-06
0.00030355
4.07613e-06
0.000302476
4.28456e-06
0.000301351
4.48994e-06
0.000300175
4.69223e-06
0.000298949
4.89137e-06
0.000297675
5.08734e-06
0.000296352
5.2801e-06
0.000294982
5.46962e-06
0.000293565
5.65589e-06
0.000292102
5.83887e-06
0.000290595
6.01855e-06
0.000289043
6.19492e-06
0.000287448
6.36797e-06
0.000285811
6.53769e-06
0.000284132
6.70409e-06
0.000282412
6.86717e-06
0.000280652
7.02692e-06
0.000278854
7.18337e-06
0.000277017
7.33651e-06
0.000275142
7.48637e-06
0.000273231
7.63295e-06
0.000271284
7.77629e-06
0.000269302
7.91639e-06
0.000267286
8.05329e-06
0.000265237
8.187e-06
0.000263155
8.31756e-06
0.000261041
8.445e-06
0.000258896
8.56935e-06
0.00025672
8.69063e-06
0.000254516
8.80889e-06
0.000252282
8.92417e-06
0.00025002
9.03648e-06
0.000247731
9.14589e-06
0.000245416
9.25242e-06
0.000243074
9.35612e-06
0.000240708
9.45702e-06
0.000238316
9.55517e-06
0.000235901
9.65061e-06
0.000233463
9.74339e-06
0.000231003
9.83354e-06
0.00022852
9.92112e-06
0.000226016
1.00062e-05
0.000223492
1.00887e-05
0.000220948
1.01688e-05
0.000218384
1.02465e-05
0.000215802
1.03219e-05
0.000213201
1.0395e-05
0.000210582
1.04657e-05
0.000207947
1.05343e-05
0.000205295
1.06007e-05
0.000202627
1.0665e-05
0.000199943
1.07272e-05
0.000197245
1.07874e-05
0.000194532
1.08455e-05
0.000191805
1.09018e-05
0.000189064
1.09561e-05
0.00018631
1.10086e-05
0.000183544
1.10592e-05
0.000180765
1.11081e-05
0.000177975
1.11552e-05
0.000175173
1.12007e-05
0.000172361
1.12445e-05
0.000169538
1.12868e-05
0.000166705
1.13274e-05
0.000163862
1.13665e-05
0.000161009
1.14042e-05
0.000158148
1.14404e-05
0.000155278
1.14752e-05
0.0001524
1.15087e-05
0.000149513
1.15408e-05
0.000146619
1.15716e-05
0.000143718
1.16012e-05
0.00014081
1.16296e-05
0.000137894
1.16568e-05
0.000134973
1.16828e-05
0.000132045
1.17078e-05
0.000129111
1.17316e-05
0.000126171
1.17545e-05
0.000123227
1.17763e-05
0.000120276
1.17971e-05
0.000117321
1.1817e-05
0.000114362
1.1836e-05
0.000111397
1.18541e-05
0.000108429
1.18714e-05
0.000105456
1.18878e-05
0.00010248
1.19035e-05
9.94993e-05
1.19183e-05
9.65156e-05
1.19325e-05
9.35285e-05
1.19459e-05
9.05383e-05
1.19586e-05
8.7545e-05
1.19707e-05
8.4549e-05
1.19821e-05
8.15502e-05
1.19929e-05
7.85489e-05
1.20031e-05
7.55452e-05
1.20128e-05
7.25393e-05
1.20219e-05
6.95313e-05
1.20305e-05
6.65212e-05
1.20385e-05
6.35092e-05
1.20461e-05
6.04955e-05
1.20532e-05
5.74802e-05
1.20599e-05
5.44633e-05
1.20661e-05
5.1445e-05
1.20719e-05
4.84253e-05
1.20773e-05
4.54044e-05
1.20823e-05
4.23824e-05
1.20869e-05
3.93593e-05
1.20911e-05
3.63352e-05
1.2095e-05
3.33103e-05
1.20986e-05
3.02845e-05
1.21018e-05
2.72581e-05
1.21047e-05
2.4231e-05
1.21073e-05
2.12033e-05
1.21096e-05
1.81752e-05
1.21116e-05
1.51466e-05
1.21132e-05
1.21177e-05
1.21146e-05
9.08852e-06
1.21158e-05
6.05913e-06
1.21166e-05
3.0296e-06
1.21171e-05
1.21174e-05
3.66103e-06
-1.83013e-05
7.32193e-06
-1.83007e-05
1.09826e-05
-1.82994e-05
1.46429e-05
-1.82975e-05
1.83027e-05
-1.8295e-05
2.19619e-05
-1.82918e-05
2.56203e-05
-1.82879e-05
2.92779e-05
-1.82834e-05
3.29344e-05
-1.82781e-05
3.65898e-05
-1.8272e-05
4.02438e-05
-1.82652e-05
4.38963e-05
-1.82575e-05
4.75472e-05
-1.8249e-05
5.11963e-05
-1.82396e-05
5.48433e-05
-1.82292e-05
5.84882e-05
-1.82179e-05
6.21306e-05
-1.82055e-05
6.57704e-05
-1.8192e-05
6.94074e-05
-1.81774e-05
7.30412e-05
-1.81615e-05
7.66717e-05
-1.81444e-05
8.02986e-05
-1.81259e-05
8.39216e-05
-1.8106e-05
8.75404e-05
-1.80846e-05
9.11547e-05
-1.80617e-05
9.47642e-05
-1.80371e-05
9.83686e-05
-1.80108e-05
0.000101967
-1.79827e-05
0.00010556
-1.79526e-05
0.000109147
-1.79207e-05
0.000112727
-1.78866e-05
0.0001163
-1.78504e-05
0.000119865
-1.7812e-05
0.000123422
-1.77712e-05
0.000126971
-1.77279e-05
0.00013051
-1.76821e-05
0.00013404
-1.76337e-05
0.00013756
-1.75825e-05
0.000141069
-1.75285e-05
0.000144567
-1.74716e-05
0.000148054
-1.74116e-05
0.000151527
-1.73485e-05
0.000154988
-1.72821e-05
0.000158434
-1.72124e-05
0.000161866
-1.71392e-05
0.000165283
-1.70624e-05
0.000168684
-1.6982e-05
0.000172068
-1.68979e-05
0.000175435
-1.68099e-05
0.000178783
-1.67179e-05
0.000182113
-1.66219e-05
0.000185422
-1.65218e-05
0.000188711
-1.64174e-05
0.000191978
-1.63087e-05
0.000195222
-1.61957e-05
0.000198443
-1.60781e-05
0.00020164
-1.5956e-05
0.000204812
-1.58292e-05
0.000207957
-1.56977e-05
0.000211075
-1.55615e-05
0.000214165
-1.54204e-05
0.000217226
-1.52744e-05
0.000220257
-1.51235e-05
0.000223256
-1.49676e-05
0.000226223
-1.48067e-05
0.000229158
-1.46407e-05
0.000232058
-1.44696e-05
0.000234923
-1.42934e-05
0.000237751
-1.41121e-05
0.000240542
-1.39256e-05
0.000243295
-1.37339e-05
0.000246009
-1.35372e-05
0.000248682
-1.33352e-05
0.000251314
-1.31282e-05
0.000253903
-1.29161e-05
0.000256449
-1.26989e-05
0.00025895
-1.24767e-05
0.000261406
-1.22495e-05
0.000263815
-1.20175e-05
0.000266177
-1.17805e-05
0.00026849
-1.15388e-05
0.000270754
-1.12924e-05
0.000272968
-1.10414e-05
0.000275131
-1.07858e-05
0.000277241
-1.05259e-05
0.000279298
-1.02616e-05
0.000281302
-9.99311e-06
0.000283251
-9.72055e-06
0.000285144
-9.44405e-06
0.000286981
-9.16373e-06
0.000288761
-8.87973e-06
0.000290484
-8.59222e-06
0.000292148
-8.30133e-06
0.000293753
-8.00722e-06
0.000295298
-7.71007e-06
0.000296784
-7.41003e-06
0.000298208
-7.10729e-06
0.000299571
-6.80201e-06
0.000300873
-6.49439e-06
0.000302112
-6.18459e-06
0.000303289
-5.87282e-06
0.000304403
-5.55925e-06
0.000305453
-5.24409e-06
0.00030644
-4.92752e-06
0.000307363
-4.60974e-06
0.000308222
-4.29095e-06
0.000309017
-3.97134e-06
0.000309748
-3.65111e-06
0.000310415
-3.33046e-06
0.000311016
-3.00957e-06
0.000311554
-2.68866e-06
0.000312027
-2.3679e-06
0.000312436
-2.0475e-06
0.000312781
-1.72763e-06
0.000313061
-1.40849e-06
0.000313278
-1.09027e-06
0.000313431
-7.73137e-07
0.000313521
-4.57274e-07
0.000313548
-1.42854e-07
0.000313511
1.69953e-07
0.000313413
4.80982e-07
0.000313252
7.90072e-07
0.00031303
1.09707e-06
0.000312747
1.40182e-06
0.000312403
1.70418e-06
0.000311999
2.00401e-06
0.000311536
2.30118e-06
0.000311013
2.59555e-06
0.000310432
2.887e-06
0.000309793
3.17542e-06
0.000309097
3.4607e-06
0.000308345
3.74272e-06
0.000307536
4.02139e-06
0.000306673
4.29662e-06
0.000305755
4.56831e-06
0.000304783
4.83639e-06
0.000303758
5.10078e-06
0.000302681
5.36142e-06
0.000301553
5.61823e-06
0.000300374
5.87117e-06
0.000299145
6.12017e-06
0.000297868
6.36519e-06
0.000296541
6.6062e-06
0.000295168
6.84314e-06
0.000293748
7.07601e-06
0.000292282
7.30477e-06
0.000290771
7.52939e-06
0.000289216
7.74987e-06
0.000287618
7.96619e-06
0.000285977
8.17835e-06
0.000284295
8.38635e-06
0.000282572
8.59019e-06
0.000280809
8.78987e-06
0.000279007
8.9854e-06
0.000277167
9.1768e-06
0.000275289
9.36409e-06
0.000273375
9.54729e-06
0.000271425
9.72642e-06
0.000269439
9.9015e-06
0.00026742
1.00726e-05
0.000265367
1.02397e-05
0.000263282
1.04028e-05
0.000261165
1.05621e-05
0.000259017
1.07174e-05
0.000256839
1.0869e-05
0.000254631
1.10167e-05
0.000252394
1.11607e-05
0.00025013
1.13011e-05
0.000247838
1.14378e-05
0.000245519
1.15708e-05
0.000243175
1.17004e-05
0.000240806
1.18264e-05
0.000238412
1.1949e-05
0.000235994
1.20683e-05
0.000233553
1.21842e-05
0.00023109
1.22968e-05