/*--------------------------------*- C++ -*----------------------------------*\
| =========                 |                                                 |
| \\      /  F ield         | OpenFOAM: The Open Source CFD Toolbox           |
|  \\    /   O peration     | Version:  v2012                                 |
|   \\  /    A nd           | Website:  www.openfoam.com                      |
|    \\/     M anipulation  |                                                 |
\*---------------------------------------------------------------------------*/
FoamFile
{
    version     2.0;
    format      ascii;
    class       volScalarField;
    location    "11.3";
    object      Psi_z;
}
// * * * * * * * * * * * * * * * * * * * * * * * * * * * * * * * * * * * * * //

dimensions      [0 2 -1 0 0 0 0];


internalField   nonuniform List<scalar> 
65536
(
9.04808e-06
2.71446e-05
4.52422e-05
6.33414e-05
8.1443e-05
9.95476e-05
0.000117656
0.000135768
0.000153886
0.000172008
0.000190137
0.000208272
0.000226414
0.000244563
0.00026272
0.000280885
0.000299058
0.00031724
0.00033543
0.000353629
0.000371837
0.000390053
0.000408278
0.000426512
0.000444753
0.000463003
0.000481259
0.000499522
0.000517791
0.000536065
0.000554344
0.000572626
0.00059091
0.000609195
0.00062748
0.000645763
0.000664042
0.000682317
0.000700584
0.000718843
0.00073709
0.000755324
0.000773542
0.000791741
0.000809919
0.000828072
0.000846199
0.000864295
0.000882356
0.000900381
0.000918363
0.000936301
0.000954189
0.000972024
0.000989801
0.00100752
0.00102516
0.00104274
0.00106023
0.00107765
0.00109497
0.00111221
0.00112934
0.00114637
0.00116328
0.00118008
0.00119676
0.0012133
0.00122971
0.00124597
0.00126208
0.00127804
0.00129383
0.00130945
0.00132489
0.00134014
0.0013552
0.00137005
0.0013847
0.00139913
0.00141334
0.00142732
0.00144105
0.00145455
0.00146778
0.00148076
0.00149346
0.00150589
0.00151804
0.00152989
0.00154145
0.0015527
0.00156365
0.00157427
0.00158457
0.00159453
0.00160416
0.00161345
0.00162239
0.00163097
0.0016392
0.00164706
0.00165455
0.00166166
0.0016684
0.00167476
0.00168073
0.00168631
0.00169151
0.0016963
0.0017007
0.0017047
0.00170831
0.00171151
0.0017143
0.0017167
0.00171868
0.00172027
0.00172145
0.00172223
0.00172261
0.00172258
0.00172216
0.00172134
0.00172012
0.00171851
0.00171652
0.00171413
0.00171136
0.00170821
0.00170469
0.00170079
0.00169653
0.00169191
0.00168692
0.00168158
0.0016759
0.00166987
0.00166351
0.00165682
0.0016498
0.00164246
0.00163481
0.00162685
0.00161859
0.00161004
0.0016012
0.00159208
0.00158268
0.00157302
0.00156309
0.00155292
0.00154249
0.00153182
0.00152092
0.0015098
0.00149845
0.00148689
0.00147512
0.00146315
0.00145099
0.00143864
0.00142611
0.0014134
0.00140052
0.00138749
0.00137429
0.00136095
0.00134746
0.00133383
0.00132007
0.00130618
0.00129217
0.00127805
0.00126381
0.00124947
0.00123502
0.00122048
0.00120585
0.00119113
0.00117632
0.00116144
0.00114649
0.00113146
0.00111637
0.00110122
0.00108601
0.00107075
0.00105543
0.00104007
0.00102466
0.00100921
0.000993725
0.000978203
0.000962649
0.000947065
0.000931454
0.000915818
0.000900161
0.000884483
0.000868787
0.000853076
0.000837351
0.000821614
0.000805867
0.000790111
0.000774348
0.00075858
0.000742808
0.000727034
0.000711257
0.000695481
0.000679705
0.000663931
0.00064816
0.000632393
0.00061663
0.000600871
0.000585119
0.000569373
0.000553634
0.000537902
0.000522178
0.000506462
0.000490755
0.000475056
0.000459366
0.000443685
0.000428013
0.000412351
0.000396697
0.000381053
0.000365418
0.000349792
0.000334175
0.000318567
0.000302967
0.000287376
0.000271792
0.000256217
0.000240649
0.000225088
0.000209534
0.000193986
0.000178444
0.000162908
0.000147377
0.000131851
0.000116329
0.00010081
8.52955e-05
6.97833e-05
5.42735e-05
3.87655e-05
2.32588e-05
7.75285e-06
2.7144e-05
8.14329e-05
0.000135725
0.000190022
0.000244326
0.000298639
0.000352963
0.0004073
0.000461652
0.000516019
0.000570405
0.000624809
0.000679235
0.000733682
0.000788153
0.000842647
0.000897166
0.000951711
0.00100628
0.00106088
0.0011155
0.00117015
0.00122483
0.00127953
0.00133425
0.001389
0.00144377
0.00149856
0.00155337
0.00160819
0.00166303
0.00171788
0.00177273
0.00182759
0.00188244
0.00193729
0.00199213
0.00204696
0.00210176
0.00215654
0.00221128
0.00226599
0.00232064
0.00237525
0.00242978
0.00248425
0.00253863
0.00259292
0.00264711
0.00270118
0.00275514
0.00280895
0.00286262
0.00291613
0.00296947
0.00302261
0.00307556
0.00312829
0.00318078
0.00323303
0.00328502
0.00333672
0.00338813
0.00343922
0.00348997
0.00354037
0.0035904
0.00364004
0.00368927
0.00373807
0.00378641
0.00383428
0.00388166
0.00392852
0.00397484
0.00402061
0.00406579
0.00411037
0.00415432
0.00419762
0.00424026
0.00428219
0.00432341
0.00436389
0.00440361
0.00444254
0.00448067
0.00451796
0.00455441
0.00458998
0.00462466
0.00465842
0.00469125
0.00472313
0.00475403
0.00478394
0.00481283
0.0048407
0.00486752
0.00489327
0.00491795
0.00494154
0.00496401
0.00498537
0.00500559
0.00502466
0.00504258
0.00505933
0.00507491
0.0050893
0.00510251
0.00511451
0.00512532
0.00513492
0.00514331
0.00515049
0.00515645
0.00516121
0.00516475
0.00516709
0.00516822
0.00516814
0.00516687
0.00516441
0.00516076
0.00515593
0.00514993
0.00514277
0.00513446
0.00512501
0.00511444
0.00510275
0.00508995
0.00507607
0.00506111
0.0050451
0.00502804
0.00500995
0.00499086
0.00497077
0.00494971
0.00492768
0.00490472
0.00488084
0.00485606
0.00483039
0.00480387
0.0047765
0.0047483
0.00471931
0.00468953
0.00465899
0.00462771
0.0045957
0.004563
0.00452961
0.00449556
0.00446087
0.00442556
0.00438964
0.00435315
0.00431609
0.00427849
0.00424036
0.00420173
0.00416261
0.00412302
0.00408298
0.00404251
0.00400162
0.00396034
0.00391867
0.00387663
0.00383425
0.00379153
0.0037485
0.00370516
0.00366153
0.00361762
0.00357346
0.00352904
0.0034844
0.00343953
0.00339445
0.00334918
0.00330372
0.00325808
0.00321229
0.00316634
0.00312024
0.00307402
0.00302767
0.00298121
0.00293464
0.00288797
0.00284122
0.00279438
0.00274747
0.0027005
0.00265346
0.00260637
0.00255924
0.00251206
0.00246485
0.00241761
0.00237034
0.00232305
0.00227574
0.00222843
0.0021811
0.00213377
0.00208644
0.00203911
0.00199179
0.00194448
0.00189717
0.00184988
0.00180261
0.00175535
0.00170811
0.00166089
0.0016137
0.00156652
0.00151938
0.00147225
0.00142516
0.00137809
0.00133104
0.00128403
0.00123704
0.00119008
0.00114315
0.00109624
0.00104937
0.00100252
0.000955691
0.000908892
0.000862118
0.000815368
0.000768642
0.000721938
0.000675256
0.000628594
0.000581951
0.000535326
0.000488718
0.000442126
0.000395547
0.000348982
0.000302428
0.000255883
0.000209348
0.000162819
0.000116295
6.97756e-05
2.32583e-05
4.52388e-05
0.000135718
0.000226203
0.000316696
0.0004072
0.00049772
0.000588258
0.000678818
0.000769401
0.000860012
0.000950653
0.00104133
0.00113203
0.00122278
0.00131356
0.00140438
0.00149525
0.00158616
0.00167711
0.0017681
0.00185914
0.00195023
0.00204135
0.00213252
0.00222373
0.00231498
0.00240626
0.00249758
0.00258893
0.00268031
0.0027717
0.00286312
0.00295455
0.00304598
0.00313741
0.00322883
0.00332024
0.00341162
0.00350297
0.00359427
0.00368552
0.0037767
0.0038678
0.00395881
0.00404972
0.0041405
0.00423115
0.00432164
0.00441197
0.00450211
0.00459205
0.00468175
0.00477122
0.00486041
0.00494932
0.00503791
0.00512617
0.00521407
0.00530158
0.00538868
0.00547534
0.00556153
0.00564723
0.0057324
0.00581701
0.00590104
0.00598444
0.00606719
0.00614926
0.00623061
0.00631121
0.00639102
0.00647001
0.00654813
0.00662536
0.00670166
0.00677699
0.00685131
0.00692459
0.00699679
0.00706786
0.00713778
0.00720651
0.007274
0.00734022
0.00740513
0.0074687
0.00753088
0.00759165
0.00765096
0.00770878
0.00776508
0.00781982
0.00787296
0.00792448
0.00797435
0.00802253
0.00806899
0.00811371
0.00815665
0.0081978
0.00823712
0.0082746
0.0083102
0.00834392
0.00837572
0.0084056
0.00843353
0.0084595
0.00848349
0.00850551
0.00852552
0.00854354
0.00855954
0.00857352
0.00858549
0.00859544
0.00860336
0.00860927
0.00861316
0.00861503
0.0086149
0.00861278
0.00860866
0.00860257
0.00859451
0.0085845
0.00857256
0.0085587
0.00854294
0.0085253
0.0085058
0.00848446
0.00846131
0.00843637
0.00840966
0.00838121
0.00835105
0.0083192
0.0082857
0.00825057
0.00821385
0.00817556
0.00813574
0.00809441
0.00805161
0.00800738
0.00796174
0.00791473
0.00786638
0.00781673
0.00776581
0.00771365
0.00766028
0.00760575
0.00755008
0.00749331
0.00743547
0.00737659
0.00731672
0.00725587
0.00719408
0.00713139
0.00706783
0.00700342
0.0069382
0.0068722
0.00680545
0.00673798
0.00666982
0.00660099
0.00653152
0.00646144
0.00639079
0.00631957
0.00624783
0.00617558
0.00610285
0.00602966
0.00595603
0.005882
0.00580757
0.00573278
0.00565764
0.00558217
0.00550639
0.00543032
0.00535398
0.00527738
0.00520055
0.0051235
0.00504624
0.00496879
0.00489117
0.00481339
0.00473545
0.00465739
0.0045792
0.0045009
0.0044225
0.00434401
0.00426544
0.00418681
0.00410811
0.00402937
0.00395058
0.00387176
0.00379292
0.00371405
0.00363517
0.00355628
0.0034774
0.00339851
0.00331964
0.00324078
0.00316194
0.00308312
0.00300432
0.00292556
0.00284683
0.00276813
0.00268947
0.00261085
0.00253227
0.00245373
0.00237523
0.00229678
0.00221838
0.00214002
0.0020617
0.00198344
0.00190522
0.00182704
0.00174891
0.00167083
0.00159279
0.00151479
0.00143684
0.00135892
0.00128104
0.00120321
0.0011254
0.00104763
0.000969898
0.000892191
0.000814513
0.00073686
0.000659231
0.000581624
0.000504035
0.000426463
0.000348905
0.000271358
0.000193821
0.00011629
3.87629e-05
6.3332e-05
0.000189998
0.000316672
0.000443357
0.000570059
0.000696783
0.000823532
0.000950311
0.00107712
0.00120398
0.00133087
0.00145781
0.0015848
0.00171184
0.00183893
0.00196608
0.00209329
0.00222056
0.00234789
0.00247528
0.00260274
0.00273026
0.00285783
0.00298547
0.00311317
0.00324092
0.00336872
0.00349657
0.00362447
0.0037524
0.00388036
0.00400835
0.00413636
0.00426437
0.00439239
0.00452039
0.00464837
0.00477632
0.00490422
0.00503206
0.00515982
0.00528749
0.00541505
0.00554249
0.00566977
0.00579689
0.00592382
0.00605054
0.00617702
0.00630324
0.00642918
0.0065548
0.00668008
0.00680498
0.00692948
0.00705355
0.00717715
0.00730024
0.00742279
0.00754477
0.00766613
0.00778684
0.00790686
0.00802614
0.00814464
0.00826232
0.00837913
0.00849503
0.00860998
0.00872391
0.0088368
0.00894858
0.00905921
0.00916864
0.00927681
0.00938368
0.0094892
0.0095933
0.00969594
0.00979707
0.00989663
0.00999457
0.0100908
0.0101854
0.0102781
0.0103691
0.0104581
0.0105452
0.0106303
0.0107134
0.0107944
0.0108733
0.01095
0.0110244
0.0110966
0.0111665
0.0112339
0.011299
0.0113617
0.0114218
0.0114795
0.0115346
0.0115871
0.0116369
0.0116842
0.0117287
0.0117706
0.0118097
0.0118461
0.0118797
0.0119105
0.0119385
0.0119638
0.0119862
0.0120058
0.0120225
0.0120364
0.0120475
0.0120558
0.0120612
0.0120639
0.0120637
0.0120607
0.0120549
0.0120463
0.012035
0.012021
0.0120043
0.0119848
0.0119628
0.011938
0.0119107
0.0118808
0.0118483
0.0118134
0.011776
0.0117361
0.0116938
0.0116492
0.0116023
0.011553
0.0115016
0.0114479
0.0113921
0.0113342
0.0112743
0.0112123
0.0111484
0.0110825
0.0110148
0.0109452
0.0108739
0.0108008
0.010726
0.0106496
0.0105717
0.0104921
0.0104111
0.0103286
0.0102448
0.0101595
0.010073
0.00998517
0.00989614
0.00980593
0.00971458
0.00962214
0.00952865
0.00943414
0.00933867
0.00924227
0.00914498
0.00904684
0.00894788
0.00884815
0.00874767
0.00864649
0.00854463
0.00844213
0.00833903
0.00823535
0.00813112
0.00802638
0.00792115
0.00781547
0.00770935
0.00760283
0.00749593
0.00738867
0.00728108
0.00717319
0.007065
0.00695656
0.00684786
0.00673895
0.00662982
0.00652051
0.00641103
0.0063014
0.00619162
0.00608172
0.00597172
0.00586162
0.00575143
0.00564118
0.00553087
0.00542051
0.00531011
0.00519969
0.00508925
0.0049788
0.00486835
0.00475791
0.00464748
0.00453707
0.00442668
0.00431633
0.00420601
0.00409574
0.00398551
0.00387533
0.0037652
0.00365513
0.00354511
0.00343516
0.00332526
0.00321543
0.00310566
0.00299596
0.00288632
0.00277675
0.00266724
0.0025578
0.00244842
0.0023391
0.00222985
0.00212065
0.00201151
0.00190243
0.00179341
0.00168444
0.00157552
0.00146664
0.00135781
0.00124903
0.00114028
0.00103157
0.000922894
0.000814247
0.000705626
0.000597028
0.000488451
0.000379889
0.00027134
0.000162801
5.42663e-05
8.14227e-05
0.000244271
0.000407129
0.000570002
0.000732897
0.000895819
0.00105878
0.00122177
0.00138481
0.0015479
0.00171104
0.00187424
0.00203751
0.00220084
0.00236424
0.00252772
0.00269127
0.0028549
0.00301861
0.0031824
0.00334627
0.00351022
0.00367426
0.00383837
0.00400255
0.00416681
0.00433113
0.00449552
0.00465996
0.00482446
0.00498899
0.00515356
0.00531816
0.00548276
0.00564737
0.00581197
0.00597654
0.00614106
0.00630553
0.00646992
0.00663422
0.00679839
0.00696243
0.00712631
0.00729
0.00745347
0.00761671
0.00777967
0.00794233
0.00810466
0.00826663
0.00842819
0.00858931
0.00874996
0.00891009
0.00906966
0.00922863
0.00938695
0.00954458
0.00970147
0.00985758
0.0100128
0.0101672
0.0103207
0.0104731
0.0106245
0.0107747
0.0109238
0.0110717
0.0112183
0.0113635
0.0115073
0.0116496
0.0117904
0.0119296
0.0120671
0.0122028
0.0123367
0.0124688
0.0125989
0.012727
0.012853
0.0129769
0.0130985
0.0132179
0.0133349
0.0134495
0.0135615
0.0136711
0.013778
0.0138822
0.0139837
0.0140824
0.0141782
0.014271
0.0143609
0.0144478
0.0145315
0.0146121
0.0146895
0.0147637
0.0148346
0.0149021
0.0149663
0.0150271
0.0150844
0.0151382
0.0151886
0.0152354
0.0152786
0.0153183
0.0153544
0.0153868
0.0154156
0.0154408
0.0154624
0.0154803
0.0154945
0.0155052
0.0155121
0.0155155
0.0155152
0.0155114
0.0155039
0.0154929
0.0154783
0.0154602
0.0154387
0.0154136
0.0153852
0.0153534
0.0153182
0.0152797
0.0152379
0.0151929
0.0151447
0.0150934
0.015039
0.0149815
0.0149211
0.0148577
0.0147915
0.0147225
0.0146506
0.0145761
0.0144989
0.0144192
0.0143369
0.0142521
0.014165
0.0140755
0.0139836
0.0138896
0.0137934
0.0136951
0.0135948
0.0134924
0.0133882
0.0132821
0.0131742
0.0130645
0.0129532
0.0128402
0.0127256
0.0126096
0.012492
0.0123731
0.0122528
0.0121313
0.0120085
0.0118845
0.0117593
0.011633
0.0115058
0.0113775
0.0112482
0.0111181
0.010987
0.0108552
0.0107226
0.0105892
0.0104552
0.0103205
0.0101851
0.0100492
0.00991272
0.00977572
0.00963823
0.00950029
0.00936192
0.00922316
0.00908403
0.00894456
0.00880478
0.00866472
0.00852438
0.00838381
0.00824302
0.00810203
0.00796087
0.00781955
0.00767809
0.00753651
0.00739482
0.00725304
0.0071112
0.00696929
0.00682733
0.00668535
0.00654334
0.00640132
0.0062593
0.00611729
0.00597529
0.00583333
0.0056914
0.00554951
0.00540766
0.00526588
0.00512415
0.00498248
0.00484088
0.00469935
0.0045579
0.00441653
0.00427523
0.00413402
0.00399289
0.00385184
0.00371088
0.00357
0.0034292
0.00328849
0.00314786
0.00300731
0.00286684
0.00272645
0.00258614
0.00244589
0.00230572
0.00216562
0.00202558
0.00188561
0.00174569
0.00160583
0.00146601
0.00132625
0.00118653
0.00104684
0.000907194
0.000767574
0.00062798
0.000488407
0.000348851
0.000209306
6.97678e-05
9.95103e-05
0.000298535
0.000497571
0.000696626
0.000895707
0.00109482
0.00129398
0.00149318
0.00169244
0.00189176
0.00209115
0.00229061
0.00249015
0.00268977
0.00288948
0.00308928
0.00328917
0.00348916
0.00368925
0.00388944
0.00408972
0.00429011
0.0044906
0.00469118
0.00489186
0.00509263
0.00529348
0.00549441
0.00569541
0.00589647
0.00609759
0.00629875
0.00649995
0.00670116
0.00690237
0.00710357
0.00730474
0.00750587
0.00770692
0.00790788
0.00810873
0.00830943
0.00850997
0.00871031
0.00891043
0.00911029
0.00930986
0.0095091
0.00970798
0.00990645
0.0101045
0.010302
0.010499
0.0106954
0.0108912
0.0110864
0.0112807
0.0114743
0.0116671
0.011859
0.0120499
0.0122397
0.0124285
0.0126162
0.0128026
0.0129877
0.0131715
0.0133539
0.0135347
0.013714
0.0138916
0.0140675
0.0142416
0.0144138
0.014584
0.0147522
0.0149182
0.0150821
0.0152436
0.0154028
0.0155595
0.0157136
0.0158652
0.016014
0.01616
0.0163031
0.0164433
0.0165804
0.0167144
0.0168452
0.0169727
0.0170969
0.0172176
0.0173348
0.0174485
0.0175584
0.0176647
0.0177672
0.0178658
0.0179605
0.0180512
0.0181379
0.0182206
0.0182991
0.0183734
0.0184436
0.0185094
0.018571
0.0186283
0.0186812
0.0187297
0.0187738
0.0188135
0.0188487
0.0188795
0.0189059
0.0189278
0.0189452
0.0189582
0.0189667
0.0189707
0.0189704
0.0189656
0.0189565
0.018943
0.0189251
0.018903
0.0188765
0.0188459
0.018811
0.018772
0.0187289
0.0186818
0.0186307
0.0185756
0.0185166
0.0184537
0.0183871
0.0183168
0.0182429
0.0181653
0.0180843
0.0179997
0.0179118
0.0178206
0.0177262
0.0176286
0.0175279
0.0174242
0.0173175
0.017208
0.0170957
0.0169806
0.0168629
0.0167426
0.0166199
0.0164947
0.0163672
0.0162373
0.0161053
0.0159712
0.015835
0.0156968
0.0155566
0.0154147
0.0152709
0.0151255
0.0149784
0.0148297
0.0146794
0.0145278
0.0143747
0.0142203
0.0140646
0.0139077
0.0137497
0.0135905
0.0134303
0.0132691
0.0131069
0.0129438
0.0127799
0.0126152
0.0124497
0.0122835
0.0121166
0.0119491
0.011781
0.0116123
0.0114432
0.0112735
0.0111034
0.0109329
0.010762
0.0105907
0.0104192
0.0102473
0.0100752
0.00990285
0.00973028
0.00955751
0.00938458
0.0092115
0.0090383
0.00886499
0.00869159
0.00851812
0.00834459
0.00817103
0.00799744
0.00782384
0.00765024
0.00747665
0.00730309
0.00712956
0.00695607
0.00678263
0.00660926
0.00643595
0.00626272
0.00608956
0.00591649
0.00574351
0.00557061
0.00539782
0.00522512
0.00505252
0.00488003
0.00470763
0.00453534
0.00436316
0.00419108
0.0040191
0.00384722
0.00367544
0.00350376
0.00333218
0.00316068
0.00298928
0.00281797
0.00264674
0.00247559
0.00230451
0.00213351
0.00196257
0.0017917
0.00162088
0.00145012
0.00127941
0.00110873
0.000938094
0.000767489
0.000596909
0.000426349
0.000255804
8.5267e-05
0.000117594
0.000352787
0.000587994
0.000823223
0.00105848
0.00129379
0.00152914
0.00176454
0.00200002
0.00223556
0.00247119
0.0027069
0.00294271
0.00317861
0.00341462
0.00365074
0.00388697
0.00412332
0.00435979
0.00459637
0.00483308
0.0050699
0.00530685
0.00554391
0.00578108
0.00601836
0.00625575
0.00649323
0.00673079
0.00696844
0.00720615
0.00744391
0.00768172
0.00791955
0.00815738
0.00839521
0.008633
0.00887074
0.0091084
0.00934595
0.00958338
0.00982064
0.0100577
0.0102945
0.0105311
0.0107674
0.0110033
0.0112389
0.011474
0.0117087
0.0119428
0.0121764
0.0124093
0.0126416
0.0128731
0.0131038
0.0133337
0.0135626
0.0137905
0.0140174
0.0142432
0.0144677
0.014691
0.0149129
0.0151334
0.0153523
0.0155697
0.0157854
0.0159993
0.0162113
0.0164214
0.0166295
0.0168354
0.0170391
0.0172405
0.0174394
0.0176359
0.0178297
0.0180208
0.0182091
0.0183945
0.0185769
0.0187562
0.0189322
0.019105
0.0192743
0.0194402
0.0196024
0.019761
0.0199158
0.0200666
0.0202135
0.0203564
0.0204951
0.0206295
0.0207597
0.0208854
0.0210066
0.0211233
0.0212354
0.0213428
0.0214454
0.0215432
0.0216361
0.021724
0.021807
0.0218849
0.0219578
0.0220255
0.0220881
0.0221455
0.0221977
0.0222446
0.0222863
0.0223227
0.0223539
0.0223797
0.0224003
0.0224156
0.0224256
0.0224304
0.02243
0.0224243
0.0224134
0.0223974
0.0223762
0.0223499
0.0223186
0.0222823
0.022241
0.0221948
0.0221438
0.0220879
0.0220274
0.0219621
0.0218923
0.0218179
0.021739
0.0216558
0.0215682
0.0214764
0.0213805
0.0212804
0.0211764
0.0210684
0.0209566
0.0208411
0.0207219
0.0205992
0.020473
0.0203433
0.0202104
0.0200743
0.019935
0.0197927
0.0196474
0.0194993
0.0193484
0.0191948
0.0190386
0.0188799
0.0187187
0.0185553
0.0183895
0.0182216
0.0180515
0.0178795
0.0177054
0.0175296
0.0173519
0.0171725
0.0169915
0.0168088
0.0166247
0.0164392
0.0162522
0.016064
0.0158745
0.0156839
0.0154921
0.0152993
0.0151054
0.0149107
0.014715
0.0145184
0.0143211
0.0141231
0.0139243
0.0137249
0.0135249
0.0133243
0.0131232
0.0129216
0.0127196
0.0125171
0.0123143
0.0121111
0.0119076
0.0117039
0.0114999
0.0112956
0.0110912
0.0108866
0.0106819
0.010477
0.0102721
0.010067
0.00986189
0.00965673
0.00945155
0.00924635
0.00904116
0.00883599
0.00863084
0.00842574
0.00822069
0.0080157
0.00781079
0.00760596
0.00740121
0.00719656
0.00699201
0.00678757
0.00658323
0.00637901
0.00617491
0.00597093
0.00576706
0.00556333
0.00535971
0.00515622
0.00495285
0.0047496
0.00454648
0.00434347
0.00414058
0.00393781
0.00373514
0.00353259
0.00333013
0.00312778
0.00292552
0.00272335
0.00252126
0.00231926
0.00211733
0.00191547
0.00171367
0.00151193
0.00131023
0.00110858
0.000906972
0.000705391
0.000503834
0.000302293
0.000100763
0.000135673
0.000407025
0.000678393
0.000949788
0.00122122
0.0014927
0.00176423
0.00203584
0.00230752
0.00257928
0.00285114
0.0031231
0.00339517
0.00366735
0.00393966
0.0042121
0.00448466
0.00475736
0.00503021
0.00530319
0.00557631
0.00584957
0.00612298
0.00639652
0.00667019
0.006944
0.00721792
0.00749196
0.0077661
0.00804033
0.00831465
0.00858903
0.00886346
0.00913793
0.0094124
0.00968687
0.00996131
0.0102357
0.01051
0.0107842
0.0110582
0.011332
0.0116057
0.011879
0.0121521
0.0124249
0.0126972
0.0129691
0.0132405
0.0135114
0.0137817
0.0140514
0.0143203
0.0145884
0.0148557
0.0151221
0.0153875
0.0156518
0.015915
0.016177
0.0164377
0.016697
0.0169548
0.0172111
0.0174657
0.0177186
0.0179696
0.0182187
0.0184657
0.0187106
0.0189533
0.0191936
0.0194315
0.0196668
0.0198994
0.0201292
0.0203561
0.02058
0.0208008
0.0210184
0.0212325
0.0214432
0.0216504
0.0218538
0.0220534
0.022249
0.0224407
0.0226281
0.0228113
0.0229902
0.0231645
0.0233342
0.0234993
0.0236596
0.0238149
0.0239653
0.0241106
0.0242507
0.0243855
0.024515
0.0246391
0.0247576
0.0248706
0.024978
0.0250796
0.0251755
0.0252655
0.0253497
0.0254279
0.0255002
0.0255665
0.0256268
0.025681
0.0257291
0.0257712
0.0258071
0.0258369
0.0258607
0.0258783
0.0258899
0.0258953
0.0258947
0.0258881
0.0258755
0.0258569
0.0258324
0.025802
0.0257657
0.0257237
0.0256759
0.0256225
0.0255634
0.0254988
0.0254288
0.0253533
0.0252725
0.0251865
0.0250953
0.0249991
0.0248978
0.0247917
0.0246807
0.0245651
0.0244448
0.02432
0.0241908
0.0240573
0.0239195
0.0237777
0.0236318
0.023482
0.0233284
0.023171
0.0230101
0.0228457
0.0226778
0.0225067
0.0223323
0.0221549
0.0219744
0.021791
0.0216049
0.021416
0.0212245
0.0210306
0.0208341
0.0206354
0.0204344
0.0202313
0.020026
0.0198189
0.0196098
0.0193989
0.0191863
0.018972
0.0187561
0.0185388
0.01832
0.0180998
0.0178784
0.0176557
0.0174319
0.017207
0.0169811
0.0167542
0.0165264
0.0162977
0.0160683
0.0158381
0.0156072
0.0153756
0.0151435
0.0149107
0.0146775
0.0144438
0.0142097
0.0139752
0.0137403
0.0135052
0.0132697
0.013034
0.012798
0.0125619
0.0123256
0.0120892
0.0118526
0.0116159
0.0113792
0.0111425
0.0109057
0.0106689
0.0104321
0.0101953
0.00995856
0.00972187
0.00948525
0.0092487
0.00901224
0.00877587
0.00853961
0.00830346
0.00806743
0.00783152
0.00759573
0.00736009
0.00712458
0.00688921
0.00665398
0.00641889
0.00618395
0.00594916
0.0057145
0.00547999
0.00524562
0.00501139
0.00477729
0.00454333
0.00430949
0.00407578
0.00384219
0.00360872
0.00337536
0.0031421
0.00290894
0.00267587
0.00244289
0.00220999
0.00197716
0.0017444
0.00151169
0.00127904
0.00104642
0.000813849
0.000581301
0.000348773
0.000116256
0.000153747
0.000461248
0.000768767
0.00107632
0.00138391
0.00169155
0.00199927
0.00230706
0.00261493
0.00292291
0.00323099
0.00353919
0.00384751
0.00415597
0.00446457
0.00477332
0.00508221
0.00539127
0.00570048
0.00600986
0.0063194
0.00662911
0.00693897
0.007249
0.00755918
0.00786951
0.00817998
0.00849058
0.00880131
0.00911215
0.00942308
0.0097341
0.0100452
0.0103563
0.0106674
0.0109786
0.0112897
0.0116007
0.0119117
0.0122225
0.0125332
0.0128437
0.0131539
0.0134638
0.0137735
0.0140827
0.0143915
0.0146998
0.0150076
0.0153148
0.0156213
0.0159271
0.016232
0.0165361
0.0168393
0.0171414
0.0174424
0.0177422
0.0180407
0.0183379
0.0186336
0.0189277
0.0192202
0.0195109
0.0197997
0.0200866
0.0203714
0.020654
0.0209343
0.0212122
0.0214875
0.0217602
0.0220301
0.0222971
0.0225611
0.0228219
0.0230794
0.0233335
0.0235841
0.023831
0.024074
0.0243132
0.0245483
0.0247792
0.0250057
0.0252278
0.0254453
0.0256581
0.0258661
0.0260691
0.026267
0.0264597
0.026647
0.0268289
0.0270053
0.027176
0.0273409
0.0275
0.027653
0.0278
0.0279409
0.0280755
0.0282037
0.0283256
0.0284409
0.0285498
0.0286519
0.0287475
0.0288363
0.0289183
0.0289935
0.0290619
0.0291234
0.029178
0.0292257
0.0292665
0.0293003
0.0293272
0.0293471
0.0293602
0.0293663
0.0293656
0.029358
0.0293436
0.0293224
0.0292945
0.0292599
0.0292186
0.0291708
0.0291165
0.0290557
0.0289886
0.0289152
0.0288356
0.0287498
0.028658
0.0285603
0.0284567
0.0283473
0.0282323
0.0281117
0.0279857
0.0278544
0.0277178
0.027576
0.0274293
0.0272777
0.0271213
0.0269602
0.0267945
0.0266244
0.02645
0.0262714
0.0260887
0.025902
0.0257115
0.0255172
0.0253193
0.0251179
0.0249131
0.024705
0.0244937
0.0242794
0.0240621
0.023842
0.0236191
0.0233936
0.0231655
0.022935
0.0227022
0.0224671
0.0222299
0.0219907
0.0217494
0.0215064
0.0212615
0.0210149
0.0207668
0.020517
0.0202659
0.0200133
0.0197595
0.0195044
0.0192482
0.0189909
0.0187325
0.0184732
0.018213
0.0179519
0.0176901
0.0174275
0.0171643
0.0169004
0.016636
0.016371
0.0161055
0.0158397
0.0155734
0.0153067
0.0150398
0.0147725
0.014505
0.0142373
0.0139694
0.0137014
0.0134332
0.013165
0.0128966
0.0126282
0.0123598
0.0120914
0.011823
0.0115546
0.0112862
0.0110179
0.0107497
0.0104816
0.0102136
0.00994569
0.0096779
0.00941024
0.00914272
0.00887534
0.00860811
0.00834103
0.00807411
0.00780735
0.00754075
0.00727432
0.00700805
0.00674195
0.00647601
0.00621024
0.00594463
0.00567917
0.00541387
0.00514872
0.00488372
0.00461886
0.00435414
0.00408955
0.00382509
0.00356075
0.00329652
0.0030324
0.00276837
0.00250444
0.00224058
0.00197681
0.0017131
0.00144944
0.00118584
0.000922279
0.000658748
0.00039524
0.000131745
0.000171815
0.000515452
0.00085911
0.0012028
0.00154654
0.00189034
0.00223422
0.00257819
0.00292225
0.00326642
0.00361072
0.00395515
0.00429972
0.00464445
0.00498933
0.00533439
0.00567961
0.00602501
0.0063706
0.00671637
0.00706233
0.00740848
0.00775481
0.00810132
0.00844801
0.00879487
0.0091419
0.00948909
0.00983641
0.0101839
0.0105314
0.0108791
0.0112268
0.0115746
0.0119225
0.0122703
0.0126181
0.0129658
0.0133135
0.013661
0.0140084
0.0143555
0.0147024
0.015049
0.0153952
0.015741
0.0160863
0.0164311
0.0167753
0.0171188
0.0174616
0.0178036
0.0181447
0.0184848
0.0188239
0.0191618
0.0194985
0.0198339
0.0201678
0.0205002
0.020831
0.0211601
0.0214873
0.0218126
0.0221358
0.0224568
0.0227754
0.0230917
0.0234053
0.0237163
0.0240244
0.0243296
0.0246317
0.0249305
0.0252259
0.0255178
0.0258061
0.0260905
0.026371
0.0266474
0.0269195
0.0271872
0.0274504
0.0277089
0.0279625
0.0282111
0.0284547
0.0286929
0.0289258
0.029153
0.0293746
0.0295904
0.0298002
0.0300039
0.0302014
0.0303925
0.0305772
0.0307553
0.0309267
0.0310913
0.031249
0.0313996
0.0315433
0.0316797
0.0318088
0.0319307
0.0320451
0.032152
0.0322514
0.0323432
0.0324274
0.0325039
0.0325728
0.0326338
0.0326872
0.0327328
0.0327706
0.0328006
0.0328229
0.0328374
0.0328442
0.0328433
0.0328347
0.0328184
0.0327946
0.0327632
0.0327244
0.0326781
0.0326244
0.0325635
0.0324954
0.0324201
0.0323378
0.0322485
0.0321523
0.0320495
0.0319399
0.0318238
0.0317012
0.0315724
0.0314373
0.0312961
0.0311489
0.0309959
0.0308371
0.0306727
0.0305029
0.0303277
0.0301472
0.0299617
0.0297712
0.0295759
0.0293759
0.0291713
0.0289623
0.0287489
0.0285314
0.0283099
0.0280844
0.0278551
0.0276221
0.0273857
0.0271457
0.0269025
0.0266561
0.0264067
0.0261543
0.0258991
0.0256411
0.0253806
0.0251175
0.0248521
0.0245844
0.0243145
0.0240425
0.0237686
0.0234927
0.0232151
0.0229357
0.0226548
0.0223723
0.0220883
0.021803
0.0215164
0.0212286
0.0209396
0.0206496
0.0203586
0.0200666
0.0197738
0.0194801
0.0191857
0.0188907
0.0185949
0.0182986
0.0180018
0.0177045
0.0174068
0.0171086
0.0168101
0.0165113
0.0162123
0.015913
0.0156135
0.0153138
0.015014
0.0147141
0.0144141
0.014114
0.013814
0.0135139
0.0132138
0.0129138
0.0126138
0.0123139
0.0120141
0.0117144
0.0114148
0.0111154
0.0108161
0.0105169
0.0102179
0.00991901
0.00962032
0.00932181
0.00902348
0.00872533
0.00842736
0.00812958
0.00783199
0.00753458
0.00723736
0.00694033
0.00664347
0.0063468
0.0060503
0.00575397
0.00545781
0.00516181
0.00486596
0.00457026
0.00427471
0.00397929
0.003684
0.00338882
0.00309376
0.0027988
0.00250393
0.00220915
0.00191445
0.0016198
0.00132522
0.00103068
0.000736173
0.000441694
0.00014723
0.000189876
0.000569635
0.000949418
0.00132924
0.00170912
0.00208906
0.00246909
0.00284922
0.00322945
0.00360982
0.00399032
0.00437097
0.00475178
0.00513277
0.00551393
0.00589528
0.00627683
0.00665858
0.00704053
0.0074227
0.00780507
0.00818766
0.00857046
0.00895346
0.00933667
0.00972008
0.0101037
0.0104874
0.0108714
0.0112555
0.0116397
0.012024
0.0124085
0.012793
0.0131775
0.0135621
0.0139466
0.0143311
0.0147155
0.0150997
0.0154838
0.0158676
0.0162512
0.0166344
0.0170173
0.0173997
0.0177816
0.0181629
0.0185436
0.0189236
0.0193027
0.019681
0.0200583
0.0204345
0.0208096
0.0211834
0.0215559
0.0219269
0.0222964
0.0226642
0.0230302
0.0233943
0.0237564
0.0241163
0.024474
0.0248292
0.0251819
0.0255319
0.025879
0.0262232
0.0265643
0.0269021
0.0272364
0.0275672
0.0278943
0.0282175
0.0285366
0.0288515
0.029162
0.029468
0.0297693
0.0300658
0.0303572
0.0306434
0.0309243
0.0311996
0.0314693
0.0317332
0.031991
0.0322427
0.0324881
0.0327271
0.0329594
0.033185
0.0334038
0.0336155
0.03382
0.0340172
0.0342071
0.0343894
0.034564
0.0347309
0.03489
0.035041
0.0351841
0.035319
0.0354457
0.0355641
0.0356741
0.0357758
0.035869
0.0359537
0.0360298
0.0360974
0.0361564
0.0362068
0.0362486
0.0362818
0.0363064
0.0363223
0.0363297
0.0363286
0.036319
0.0363009
0.0362744
0.0362395
0.0361963
0.0361449
0.0360854
0.0360177
0.0359421
0.0358586
0.0357673
0.0356683
0.0355617
0.0354476
0.0353261
0.0351974
0.0350615
0.0349186
0.0347689
0.0346124
0.0344493
0.0342797
0.0341037
0.0339216
0.0337334
0.0335393
0.0333394
0.0331339
0.0329229
0.0327065
0.0324849
0.0322583
0.0320268
0.0317906
0.0315497
0.0313043
0.0310546
0.0308008
0.0305428
0.030281
0.0300154
0.0297461
0.0294734
0.0291972
0.0289178
0.0286353
0.0283498
0.0280615
0.0277703
0.0274766
0.0271803
0.0268817
0.0265807
0.0262775
0.0259723
0.0256651
0.025356
0.0250452
0.0247326
0.0244185
0.0241029
0.0237858
0.0234674
0.0231478
0.022827
0.022505
0.0221821
0.0218582
0.0215335
0.0212079
0.0208815
0.0205545
0.0202268
0.0198986
0.0195698
0.0192405
0.0189109
0.0185808
0.0182504
0.0179197
0.0175888
0.0172576
0.0169263
0.0165948
0.0162632