/*--------------------------------*- C++ -*----------------------------------*\
| =========                 |                                                 |
| \\      /  F ield         | OpenFOAM: The Open Source CFD Toolbox           |
|  \\    /   O peration     | Version:  v2012                                 |
|   \\  /    A nd           | Website:  www.openfoam.com                      |
|    \\/     M anipulation  |                                                 |
\*---------------------------------------------------------------------------*/
FoamFile
{
    version     2.0;
    format      ascii;
    class       volVectorField;
    location    "11.3";
    object      U;
}
// * * * * * * * * * * * * * * * * * * * * * * * * * * * * * * * * * * * * * //

dimensions      [0 1 -1 0 0 0 0];


internalField   nonuniform List<vector> 
65536
(
(0.000738273 -0.000738285 0)
(0.00221485 -0.000738313 0)
(0.0036915 -0.000738367 0)
(0.00516829 -0.000738447 0)
(0.00664526 -0.000738552 0)
(0.00812247 -0.000738684 0)
(0.00959997 -0.00073884 0)
(0.0110778 -0.000739019 0)
(0.012556 -0.000739222 0)
(0.0140347 -0.000739446 0)
(0.0155138 -0.00073969 0)
(0.0169934 -0.000739953 0)
(0.0184736 -0.000740233 0)
(0.0199543 -0.000740528 0)
(0.0214357 -0.000740837 0)
(0.0229177 -0.000741157 0)
(0.0244003 -0.000741486 0)
(0.0258836 -0.000741822 0)
(0.0273676 -0.000742161 0)
(0.0288523 -0.000742502 0)
(0.0303376 -0.000742842 0)
(0.0318236 -0.000743176 0)
(0.0333103 -0.000743503 0)
(0.0347977 -0.000743819 0)
(0.0362856 -0.00074412 0)
(0.0377742 -0.000744403 0)
(0.0392633 -0.000744664 0)
(0.0407528 -0.000744898 0)
(0.0422429 -0.000745103 0)
(0.0437333 -0.000745272 0)
(0.045224 -0.000745403 0)
(0.0467149 -0.00074549 0)
(0.048206 -0.000745528 0)
(0.0496971 -0.000745513 0)
(0.0511881 -0.000745439 0)
(0.0526789 -0.000745301 0)
(0.0541694 -0.000745095 0)
(0.0556594 -0.000744813 0)
(0.0571487 -0.000744452 0)
(0.0586373 -0.000744004 0)
(0.0601248 -0.000743464 0)
(0.0616112 -0.000742826 0)
(0.0630962 -0.000742083 0)
(0.0645797 -0.00074123 0)
(0.0660613 -0.00074026 0)
(0.0675408 -0.000739166 0)
(0.0690181 -0.000737943 0)
(0.0704927 -0.000736582 0)
(0.0719645 -0.000735078 0)
(0.0734332 -0.000733424 0)
(0.0748984 -0.000731613 0)
(0.0763598 -0.000729637 0)
(0.0778171 -0.000727491 0)
(0.07927 -0.000725167 0)
(0.080718 -0.000722658 0)
(0.0821608 -0.000719957 0)
(0.083598 -0.000717058 0)
(0.0850292 -0.000713954 0)
(0.086454 -0.000710637 0)
(0.087872 -0.000707102 0)
(0.0892827 -0.000703341 0)
(0.0906856 -0.000699348 0)
(0.0920803 -0.000695117 0)
(0.0934663 -0.000690642 0)
(0.0948431 -0.000685916 0)
(0.0962102 -0.000680934 0)
(0.0975671 -0.000675691 0)
(0.0989132 -0.00067018 0)
(0.100248 -0.000664397 0)
(0.101571 -0.000658336 0)
(0.102882 -0.000651994 0)
(0.104179 -0.000645367 0)
(0.105463 -0.000638449 0)
(0.106733 -0.000631238 0)
(0.107989 -0.000623731 0)
(0.109229 -0.000615925 0)
(0.110453 -0.000607817 0)
(0.11166 -0.000599406 0)
(0.112851 -0.000590689 0)
(0.114023 -0.000581667 0)
(0.115178 -0.000572339 0)
(0.116313 -0.000562704 0)
(0.117429 -0.000552763 0)
(0.118524 -0.000542517 0)
(0.119599 -0.000531967 0)
(0.120652 -0.000521117 0)
(0.121684 -0.000509967 0)
(0.122693 -0.000498522 0)
(0.123678 -0.000486785 0)
(0.12464 -0.000474761 0)
(0.125578 -0.000462454 0)
(0.12649 -0.000449869 0)
(0.127377 -0.000437013 0)
(0.128238 -0.000423892 0)
(0.129073 -0.000410513 0)
(0.129881 -0.000396883 0)
(0.130661 -0.000383011 0)
(0.131413 -0.000368906 0)
(0.132137 -0.000354575 0)
(0.132832 -0.00034003 0)
(0.133497 -0.000325278 0)
(0.134133 -0.000310332 0)
(0.134739 -0.000295202 0)
(0.135314 -0.000279899 0)
(0.135858 -0.000264435 0)
(0.136372 -0.000248821 0)
(0.136854 -0.00023307 0)
(0.137304 -0.000217193 0)
(0.137723 -0.000201205 0)
(0.138109 -0.000185117 0)
(0.138463 -0.000168944 0)
(0.138785 -0.000152697 0)
(0.139074 -0.00013639 0)
(0.139331 -0.000120038 0)
(0.139554 -0.000103652 0)
(0.139745 -8.72476e-05 0)
(0.139903 -7.08374e-05 0)
(0.140028 -5.44348e-05 0)
(0.140121 -3.80532e-05 0)
(0.140181 -2.1706e-05 0)
(0.140208 -5.40611e-06 0)
(0.140202 1.08335e-05 0)
(0.140164 2.70001e-05 0)
(0.140094 4.30813e-05 0)
(0.139992 5.90648e-05 0)
(0.139858 7.49387e-05 0)
(0.139692 9.06913e-05 0)
(0.139495 0.000106312 0)
(0.139267 0.000121788 0)
(0.139008 0.000137111 0)
(0.138718 0.00015227 0)
(0.138398 0.000167254 0)
(0.138049 0.000182056 0)
(0.13767 0.000196665 0)
(0.137262 0.000211074 0)
(0.136825 0.000225274 0)
(0.136361 0.000239258 0)
(0.135868 0.000253018 0)
(0.135348 0.000266549 0)
(0.134802 0.000279844 0)
(0.134229 0.000292898 0)
(0.13363 0.000305705 0)
(0.133006 0.00031826 0)
(0.132357 0.00033056 0)
(0.131683 0.0003426 0)
(0.130986 0.000354378 0)
(0.130265 0.00036589 0)
(0.129522 0.000377134 0)
(0.128757 0.000388109 0)
(0.127969 0.000398812 0)
(0.127161 0.000409243 0)
(0.126332 0.000419401 0)
(0.125483 0.000429285 0)
(0.124615 0.000438897 0)
(0.123727 0.000448235 0)
(0.122821 0.000457302 0)
(0.121898 0.000466097 0)
(0.120957 0.000474623 0)
(0.119999 0.000482882 0)
(0.119025 0.000490875 0)
(0.118035 0.000498605 0)
(0.11703 0.000506074 0)
(0.116011 0.000513286 0)
(0.114977 0.000520243 0)
(0.113929 0.000526949 0)
(0.112869 0.000533407 0)
(0.111796 0.000539621 0)
(0.11071 0.000545595 0)
(0.109613 0.000551333 0)
(0.108505 0.000556839 0)
(0.107385 0.000562118 0)
(0.106256 0.000567174 0)
(0.105117 0.000572011 0)
(0.103968 0.000576634 0)
(0.10281 0.000581048 0)
(0.101643 0.000585258 0)
(0.100469 0.000589268 0)
(0.099286 0.000593084 0)
(0.098096 0.000596711 0)
(0.096899 0.000600153 0)
(0.0956952 0.000603415 0)
(0.0944851 0.000606503 0)
(0.093269 0.000609421 0)
(0.0920473 0.000612175 0)
(0.0908202 0.000614769 0)
(0.0895881 0.000617209 0)
(0.0883512 0.0006195 0)
(0.0871099 0.000621646 0)
(0.0858645 0.000623652 0)
(0.0846152 0.000625523 0)
(0.0833623 0.000627265 0)
(0.082106 0.000628881 0)
(0.0808466 0.000630376 0)
(0.0795844 0.000631756 0)
(0.0783195 0.000633024 0)
(0.0770522 0.000634186 0)
(0.0757826 0.000635245 0)
(0.0745111 0.000636206 0)
(0.0732377 0.000637073 0)
(0.0719627 0.000637851 0)
(0.0706862 0.000638543 0)
(0.0694085 0.000639154 0)
(0.0681295 0.000639688 0)
(0.0668496 0.000640148 0)
(0.0655689 0.000640539 0)
(0.0642874 0.000640863 0)
(0.0630054 0.000641125 0)
(0.0617229 0.000641328 0)
(0.06044 0.000641476 0)
(0.0591569 0.000641572 0)
(0.0578737 0.00064162 0)
(0.0565904 0.000641621 0)
(0.0553071 0.000641581 0)
(0.054024 0.000641501 0)
(0.0527411 0.000641385 0)
(0.0514585 0.000641235 0)
(0.0501761 0.000641054 0)
(0.0488942 0.000640846 0)
(0.0476127 0.000640611 0)
(0.0463317 0.000640354 0)
(0.0450513 0.000640077 0)
(0.0437714 0.000639781 0)
(0.0424922 0.00063947 0)
(0.0412135 0.000639145 0)
(0.0399356 0.000638808 0)
(0.0386583 0.000638462 0)
(0.0373817 0.000638108 0)
(0.0361059 0.000637749 0)
(0.0348307 0.000637386 0)
(0.0335563 0.000637021 0)
(0.0322826 0.000636656 0)
(0.0310097 0.000636292 0)
(0.0297375 0.000635931 0)
(0.028466 0.000635574 0)
(0.0271952 0.000635223 0)
(0.0259251 0.000634879 0)
(0.0246557 0.000634544 0)
(0.0233869 0.000634218 0)
(0.0221188 0.000633902 0)
(0.0208513 0.000633598 0)
(0.0195844 0.000633307 0)
(0.0183181 0.00063303 0)
(0.0170523 0.000632767 0)
(0.0157871 0.00063252 0)
(0.0145223 0.000632289 0)
(0.0132579 0.000632074 0)
(0.011994 0.000631877 0)
(0.0107304 0.000631698 0)
(0.00946722 0.000631538 0)
(0.00820431 0.000631397 0)
(0.00694166 0.000631275 0)
(0.00567923 0.000631173 0)
(0.00441699 0.000631091 0)
(0.00315489 0.00063103 0)
(0.00189289 0.000630988 0)
(0.000630957 0.000630968 0)
(0.000738247 -0.00221483 0)
(0.00221477 -0.00221491 0)
(0.00369137 -0.00221507 0)
(0.0051681 -0.00221532 0)
(0.00664503 -0.00221563 0)
(0.00812219 -0.00221603 0)
(0.00959964 -0.0022165 0)
(0.0110774 -0.00221704 0)
(0.0125556 -0.00221765 0)
(0.0140342 -0.00221832 0)
(0.0155133 -0.00221905 0)
(0.0169929 -0.00221984 0)
(0.018473 -0.00222069 0)
(0.0199537 -0.00222157 0)
(0.0214351 -0.0022225 0)
(0.022917 -0.00222346 0)
(0.0243997 -0.00222445 0)
(0.025883 -0.00222546 0)
(0.0273669 -0.00222648 0)
(0.0288516 -0.00222751 0)
(0.0303369 -0.00222853 0)
(0.031823 -0.00222954 0)
(0.0333097 -0.00223052 0)
(0.0347971 -0.00223147 0)
(0.036285 -0.00223238 0)
(0.0377736 -0.00223323 0)
(0.0392628 -0.00223402 0)
(0.0407524 -0.00223473 0)
(0.0422425 -0.00223534 0)
(0.043733 -0.00223586 0)
(0.0452238 -0.00223625 0)
(0.0467148 -0.00223652 0)
(0.048206 -0.00223664 0)
(0.0496972 -0.0022366 0)
(0.0511883 -0.00223638 0)
(0.0526793 -0.00223597 0)
(0.0541699 -0.00223536 0)
(0.05566 -0.00223452 0)
(0.0571496 -0.00223344 0)
(0.0586383 -0.0022321 0)
(0.060126 -0.00223049 0)
(0.0616126 -0.00222858 0)
(0.0630979 -0.00222636 0)
(0.0645815 -0.00222381 0)
(0.0660634 -0.0022209 0)
(0.0675432 -0.00221763 0)
(0.0690207 -0.00221396 0)
(0.0704956 -0.00220989 0)
(0.0719677 -0.00220538 0)
(0.0734367 -0.00220043 0)
(0.0749022 -0.002195 0)
(0.076364 -0.00218908 0)
(0.0778216 -0.00218265 0)
(0.0792748 -0.00217568 0)
(0.0807232 -0.00216816 0)
(0.0821664 -0.00216007 0)
(0.083604 -0.00215138 0)
(0.0850357 -0.00214207 0)
(0.0864609 -0.00213213 0)
(0.0878793 -0.00212153 0)
(0.0892904 -0.00211025 0)
(0.0906938 -0.00209828 0)
(0.092089 -0.00208559 0)
(0.0934755 -0.00207217 0)
(0.0948528 -0.002058 0)
(0.0962204 -0.00204306 0)
(0.0975779 -0.00202734 0)
(0.0989245 -0.00201081 0)
(0.10026 -0.00199346 0)
(0.101584 -0.00197529 0)
(0.102895 -0.00195627 0)
(0.104193 -0.00193639 0)
(0.105478 -0.00191564 0)
(0.106748 -0.00189401 0)
(0.108004 -0.00187149 0)
(0.109245 -0.00184807 0)
(0.110469 -0.00182375 0)
(0.111677 -0.00179852 0)
(0.112868 -0.00177237 0)
(0.114042 -0.00174531 0)
(0.115197 -0.00171732 0)
(0.116333 -0.00168841 0)
(0.117449 -0.00165859 0)
(0.118545 -0.00162785 0)
(0.11962 -0.0015962 0)
(0.120674 -0.00156365 0)
(0.121706 -0.00153019 0)
(0.122716 -0.00149586 0)
(0.123702 -0.00146064 0)
(0.124664 -0.00142456 0)
(0.125602 -0.00138764 0)
(0.126516 -0.00134988 0)
(0.127403 -0.0013113 0)
(0.128265 -0.00127193 0)
(0.1291 -0.00123179 0)
(0.129908 -0.00119089 0)
(0.130689 -0.00114927 0)
(0.131441 -0.00110694 0)
(0.132166 -0.00106394 0)
(0.132861 -0.00102029 0)
(0.133527 -0.000976028 0)
(0.134163 -0.000931179 0)
(0.134769 -0.000885777 0)
(0.135345 -0.000839857 0)
(0.135889 -0.000793452 0)
(0.136403 -0.000746598 0)
(0.136885 -0.000699331 0)
(0.137336 -0.00065169 0)
(0.137755 -0.000603712 0)
(0.138141 -0.000555436 0)
(0.138496 -0.000506901 0)
(0.138817 -0.000458147 0)
(0.139107 -0.000409214 0)
(0.139363 -0.000360143 0)
(0.139587 -0.000310974 0)
(0.139778 -0.000261746 0)
(0.139936 -0.000212502 0)
(0.140061 -0.000163281 0)
(0.140154 -0.000114123 0)
(0.140213 -6.50684e-05 0)
(0.14024 -1.61559e-05 0)
(0.140235 3.25756e-05 0)
(0.140197 8.10878e-05 0)
(0.140126 0.000129343 0)
(0.140024 0.000177306 0)
(0.139889 0.000224939 0)
(0.139723 0.000272208 0)
(0.139526 0.00031908 0)
(0.139297 0.000365521 0)
(0.139038 0.000411499 0)
(0.138748 0.000456984 0)
(0.138428 0.000501948 0)
(0.138078 0.000546361 0)
(0.137699 0.000590197 0)
(0.13729 0.000633431 0)
(0.136853 0.000676039 0)
(0.136388 0.000717998 0)
(0.135895 0.000759286 0)
(0.135375 0.000799885 0)
(0.134828 0.000839776 0)
(0.134254 0.000878941 0)
(0.133655 0.000917366 0)
(0.13303 0.000955036 0)
(0.132381 0.000991939 0)
(0.131707 0.00102806 0)
(0.131009 0.0010634 0)
(0.130288 0.00109794 0)
(0.129544 0.00113167 0)
(0.128778 0.0011646 0)
(0.12799 0.00119671 0)
(0.127182 0.001228 0)
(0.126352 0.00125848 0)
(0.125503 0.00128813 0)
(0.124634 0.00131696 0)
(0.123746 0.00134498 0)
(0.122839 0.00137218 0)
(0.121915 0.00139856 0)
(0.120974 0.00142414 0)
(0.120015 0.00144891 0)
(0.119041 0.00147289 0)
(0.11805 0.00149607 0)
(0.117045 0.00151848 0)
(0.116025 0.00154011 0)
(0.114991 0.00156098 0)
(0.113943 0.00158109 0)
(0.112881 0.00160046 0)
(0.111808 0.0016191 0)
(0.110722 0.00163702 0)
(0.109624 0.00165423 0)
(0.108515 0.00167075 0)
(0.107396 0.00168658 0)
(0.106266 0.00170174 0)
(0.105126 0.00171625 0)
(0.103977 0.00173011 0)
(0.102818 0.00174335 0)
(0.101651 0.00175597 0)
(0.100476 0.001768 0)
(0.0992934 0.00177944 0)
(0.098103 0.00179032 0)
(0.0969056 0.00180064 0)
(0.0957015 0.00181042 0)
(0.0944911 0.00181968 0)
(0.0932746 0.00182843 0)
(0.0920526 0.00183668 0)
(0.0908252 0.00184446 0)
(0.0895927 0.00185178 0)
(0.0883556 0.00185864 0)
(0.087114 0.00186507 0)
(0.0858683 0.00187109 0)
(0.0846187 0.0018767 0)
(0.0833656 0.00188192 0)
(0.082109 0.00188676 0)
(0.0808494 0.00189124 0)
(0.079587 0.00189538 0)
(0.0783219 0.00189918 0)
(0.0770543 0.00190266 0)
(0.0757846 0.00190583 0)
(0.0745129 0.00190871 0)
(0.0732393 0.00191131 0)
(0.0719641 0.00191364 0)
(0.0706875 0.00191571 0)
(0.0694095 0.00191754 0)
(0.0681305 0.00191914 0)
(0.0668504 0.00192051 0)
(0.0655695 0.00192168 0)
(0.064288 0.00192265 0)
(0.0630058 0.00192343 0)
(0.0617232 0.00192404 0)
(0.0604402 0.00192448 0)
(0.059157 0.00192476 0)
(0.0578737 0.0019249 0)
(0.0565903 0.0019249 0)
(0.055307 0.00192478 0)
(0.0540238 0.00192454 0)
(0.0527408 0.00192419 0)
(0.0514581 0.00192373 0)
(0.0501757 0.00192319 0)
(0.0488937 0.00192256 0)
(0.0476122 0.00192186 0)
(0.0463312 0.00192108 0)
(0.0450507 0.00192025 0)
(0.0437708 0.00191936 0)
(0.0424915 0.00191842 0)
(0.0412128 0.00191744 0)
(0.0399349 0.00191643 0)
(0.0386576 0.00191539 0)
(0.037381 0.00191433 0)
(0.0361051 0.00191325 0)
(0.03483 0.00191216 0)
(0.0335556 0.00191106 0)
(0.0322819 0.00190996 0)
(0.0310089 0.00190887 0)
(0.0297367 0.00190779 0)
(0.0284652 0.00190672 0)
(0.0271945 0.00190566 0)
(0.0259244 0.00190463 0)
(0.024655 0.00190362 0)
(0.0233863 0.00190264 0)
(0.0221182 0.00190169 0)
(0.0208507 0.00190078 0)
(0.0195839 0.00189991 0)
(0.0183176 0.00189907 0)
(0.0170518 0.00189828 0)
(0.0157866 0.00189754 0)
(0.0145218 0.00189685 0)
(0.0132575 0.0018962 0)
(0.0119936 0.00189561 0)
(0.0107301 0.00189507 0)
(0.00946691 0.00189459 0)
(0.00820404 0.00189417 0)
(0.00694143 0.0018938 0)
(0.00567904 0.0018935 0)
(0.00441684 0.00189325 0)
(0.00315478 0.00189307 0)
(0.00189283 0.00189294 0)
(0.000630937 0.00189288 0)
(0.000738192 -0.0036913 0)
(0.0022146 -0.00369143 0)
(0.0036911 -0.0036917 0)
(0.00516773 -0.00369211 0)
(0.00664455 -0.00369264 0)
(0.00812161 -0.0036933 0)
(0.00959896 -0.00369408 0)
(0.0110767 -0.00369499 0)
(0.0125547 -0.003696 0)
(0.0140333 -0.00369713 0)
(0.0155123 -0.00369836 0)
(0.0169918 -0.00369968 0)
(0.0184719 -0.00370109 0)
(0.0199525 -0.00370258 0)
(0.0214338 -0.00370413 0)
(0.0229157 -0.00370574 0)
(0.0243983 -0.0037074 0)
(0.0258816 -0.00370909 0)
(0.0273656 -0.0037108 0)
(0.0288502 -0.00371252 0)
(0.0303356 -0.00371423 0)
(0.0318216 -0.00371592 0)
(0.0333084 -0.00371757 0)
(0.0347958 -0.00371917 0)
(0.0362839 -0.0037207 0)
(0.0377725 -0.00372213 0)
(0.0392618 -0.00372345 0)
(0.0407515 -0.00372465 0)
(0.0422417 -0.00372569 0)
(0.0437324 -0.00372656 0)
(0.0452233 -0.00372723 0)
(0.0467146 -0.00372769 0)
(0.0482059 -0.00372791 0)
(0.0496974 -0.00372786 0)
(0.0511887 -0.00372751 0)
(0.0526799 -0.00372685 0)
(0.0541708 -0.00372585 0)
(0.0556613 -0.00372447 0)
(0.0571511 -0.00372269 0)
(0.0586402 -0.00372048 0)
(0.0601284 -0.00371781 0)
(0.0616154 -0.00371465 0)
(0.063101 -0.00371097 0)
(0.0645851 -0.00370674 0)
(0.0660675 -0.00370192 0)
(0.0675478 -0.00369648 0)
(0.0690258 -0.0036904 0)
(0.0705013 -0.00368363 0)
(0.071974 -0.00367614 0)
(0.0734436 -0.0036679 0)
(0.0749097 -0.00365888 0)
(0.0763722 -0.00364904 0)
(0.0778305 -0.00363834 0)
(0.0792844 -0.00362676 0)
(0.0807336 -0.00361425 0)
(0.0821776 -0.00360078 0)
(0.083616 -0.00358632 0)
(0.0850485 -0.00357083 0)
(0.0864746 -0.00355428 0)
(0.0878939 -0.00353663 0)
(0.0893059 -0.00351786 0)
(0.0907102 -0.00349793 0)
(0.0921064 -0.00347681 0)
(0.0934939 -0.00345446 0)
(0.0948722 -0.00343086 0)
(0.0962409 -0.00340598 0)
(0.0975994 -0.00337979 0)
(0.0989471 -0.00335226 0)
(0.100284 -0.00332337 0)
(0.101608 -0.00329309 0)
(0.102921 -0.0032614 0)
(0.10422 -0.00322828 0)
(0.105506 -0.00319371 0)
(0.106778 -0.00315767 0)
(0.108035 -0.00312015 0)
(0.109276 -0.00308113 0)
(0.110502 -0.0030406 0)
(0.111712 -0.00299855 0)
(0.112904 -0.00295497 0)
(0.114078 -0.00290986 0)
(0.115235 -0.00286322 0)
(0.116372 -0.00281504 0)
(0.117489 -0.00276533 0)
(0.118587 -0.0027141 0)
(0.119663 -0.00266134 0)
(0.120719 -0.00260707 0)
(0.121752 -0.00255131 0)
(0.122762 -0.00249407 0)
(0.12375 -0.00243536 0)
(0.124713 -0.00237521 0)
(0.125652 -0.00231365 0)
(0.126567 -0.0022507 0)
(0.127455 -0.00218639 0)
(0.128318 -0.00212074 0)
(0.129154 -0.00205381 0)
(0.129963 -0.00198562 0)
(0.130745 -0.00191622 0)
(0.131498 -0.00184565 0)
(0.132223 -0.00177395 0)
(0.13292 -0.00170117 0)
(0.133586 -0.00162736 0)
(0.134223 -0.00155258 0)
(0.13483 -0.00147687 0)
(0.135406 -0.0014003 0)
(0.135952 -0.00132292 0)
(0.136466 -0.00124479 0)
(0.136949 -0.00116597 0)
(0.1374 -0.00108652 0)
(0.137819 -0.00100652 0)
(0.138206 -0.000926014 0)
(0.138561 -0.000845078 0)
(0.138883 -0.000763777 0)
(0.139172 -0.000682178 0)
(0.139429 -0.000600347 0)
(0.139653 -0.000518353 0)
(0.139844 -0.000436262 0)
(0.140002 -0.000354144 0)
(0.140127 -0.000272064 0)
(0.140219 -0.00019009 0)
(0.140279 -0.000108289 0)
(0.140305 -2.67249e-05 0)
(0.140299 5.45366e-05 0)
(0.140261 0.000135432 0)
(0.14019 0.000215899 0)
(0.140087 0.000295876 0)
(0.139953 0.000375303 0)
(0.139786 0.000454123 0)
(0.139588 0.000532279 0)
(0.139359 0.000609715 0)
(0.139099 0.00068638 0)
(0.138808 0.000762221 0)
(0.138488 0.000837191 0)
(0.138137 0.000911243 0)
(0.137757 0.000984332 0)
(0.137348 0.00105641 0)
(0.13691 0.00112745 0)
(0.136444 0.00119741 0)
(0.13595 0.00126624 0)
(0.135429 0.00133393 0)
(0.134881 0.00140043 0)
(0.134306 0.00146573 0)
(0.133706 0.00152978 0)
(0.13308 0.00159258 0)
(0.13243 0.0016541 0)
(0.131755 0.00171431 0)
(0.131056 0.00177322 0)
(0.130334 0.00183079 0)
(0.129589 0.00188702 0)
(0.128822 0.0019419 0)
(0.128033 0.00199542 0)
(0.127223 0.00204758 0)
(0.126392 0.00209837 0)
(0.125542 0.0021478 0)
(0.124671 0.00219585 0)
(0.123782 0.00224254 0)
(0.122875 0.00228786 0)
(0.12195 0.00233183 0)
(0.121007 0.00237446 0)
(0.120048 0.00241574 0)
(0.119072 0.00245569 0)
(0.118081 0.00249433 0)
(0.117074 0.00253166 0)
(0.116053 0.0025677 0)
(0.115018 0.00260247 0)
(0.113969 0.00263598 0)
(0.112907 0.00266825 0)
(0.111832 0.00269931 0)
(0.110745 0.00272916 0)
(0.109647 0.00275782 0)
(0.108537 0.00278533 0)
(0.107416 0.0028117 0)
(0.106286 0.00283696 0)
(0.105145 0.00286112 0)
(0.103995 0.00288421 0)
(0.102836 0.00290626 0)
(0.101668 0.00292729 0)
(0.100492 0.00294731 0)
(0.0993083 0.00296637 0)
(0.0981172 0.00298448 0)
(0.096919 0.00300166 0)
(0.0957142 0.00301795 0)
(0.0945031 0.00303336 0)
(0.093286 0.00304793 0)
(0.0920633 0.00306167 0)
(0.0908352 0.00307462 0)
(0.0896022 0.00308679 0)
(0.0883645 0.00309822 0)
(0.0871223 0.00310892 0)
(0.0858761 0.00311893 0)
(0.084626 0.00312826 0)
(0.0833723 0.00313695 0)
(0.0821153 0.003145 0)
(0.0808552 0.00315246 0)
(0.0795923 0.00315933 0)
(0.0783267 0.00316565 0)
(0.0770588 0.00317144 0)
(0.0757887 0.00317671 0)
(0.0745165 0.0031815 0)
(0.0732426 0.00318581 0)
(0.0719671 0.00318968 0)
(0.0706901 0.00319312 0)
(0.0694118 0.00319616 0)
(0.0681325 0.0031988 0)
(0.0668521 0.00320109 0)
(0.065571 0.00320302 0)
(0.0642891 0.00320462 0)
(0.0630067 0.00320592 0)
(0.0617239 0.00320691 0)
(0.0604407 0.00320764 0)
(0.0591573 0.0032081 0)
(0.0578738 0.00320832 0)
(0.0565902 0.00320831 0)
(0.0553067 0.0032081 0)
(0.0540234 0.00320768 0)
(0.0527403 0.00320709 0)
(0.0514574 0.00320632 0)
(0.0501749 0.00320541 0)
(0.0488928 0.00320435 0)
(0.0476112 0.00320317 0)
(0.0463301 0.00320187 0)
(0.0450495 0.00320047 0)
(0.0437696 0.00319898 0)
(0.0424902 0.00319741 0)
(0.0412115 0.00319578 0)
(0.0399335 0.00319408 0)
(0.0386562 0.00319234 0)
(0.0373796 0.00319056 0)
(0.0361037 0.00318876 0)
(0.0348285 0.00318694 0)
(0.0335541 0.0031851 0)
(0.0322804 0.00318327 0)
(0.0310075 0.00318144 0)
(0.0297353 0.00317963 0)
(0.0284638 0.00317784 0)
(0.0271931 0.00317608 0)
(0.025923 0.00317435 0)
(0.0246537 0.00317267 0)
(0.023385 0.00317103 0)
(0.0221169 0.00316945 0)
(0.0208495 0.00316792 0)
(0.0195827 0.00316646 0)
(0.0183165 0.00316507 0)
(0.0170508 0.00316375 0)
(0.0157856 0.00316251 0)
(0.0145209 0.00316135 0)
(0.0132567 0.00316028 0)
(0.0119929 0.00315929 0)
(0.0107294 0.00315839 0)
(0.00946631 0.00315759 0)
(0.00820351 0.00315688 0)
(0.00694098 0.00315627 0)
(0.00567867 0.00315576 0)
(0.00441655 0.00315535 0)
(0.00315458 0.00315504 0)
(0.00189271 0.00315484 0)
(0.000630895 0.00315473 0)
(0.000738111 -0.00516763 0)
(0.00221436 -0.00516782 0)
(0.00369069 -0.0051682 0)
(0.00516716 -0.00516877 0)
(0.00664383 -0.00516951 0)
(0.00812074 -0.00517044 0)
(0.00959794 -0.00517155 0)
(0.0110755 -0.00517282 0)
(0.0125535 -0.00517425 0)
(0.0140318 -0.00517584 0)
(0.0155107 -0.00517757 0)
(0.0169901 -0.00517944 0)
(0.0184701 -0.00518142 0)
(0.0199507 -0.00518351 0)
(0.0214319 -0.0051857 0)
(0.0229137 -0.00518798 0)
(0.0243963 -0.00519031 0)
(0.0258795 -0.0051927 0)
(0.0273635 -0.00519511 0)
(0.0288481 -0.00519754 0)
(0.0303335 -0.00519996 0)
(0.0318196 -0.00520235 0)
(0.0333064 -0.00520468 0)
(0.0347939 -0.00520694 0)
(0.0362821 -0.0052091 0)
(0.0377708 -0.00521113 0)
(0.0392602 -0.00521302 0)
(0.0407501 -0.00521471 0)
(0.0422406 -0.0052162 0)
(0.0437314 -0.00521745 0)
(0.0452226 -0.00521843 0)
(0.0467141 -0.00521911 0)
(0.0482058 -0.00521944 0)
(0.0496976 -0.00521941 0)
(0.0511893 -0.00521897 0)
(0.0526809 -0.00521808 0)
(0.0541722 -0.00521671 0)
(0.0556632 -0.00521482 0)
(0.0571535 -0.00521237 0)
(0.0586431 -0.00520932 0)
(0.0601318 -0.00520562 0)
(0.0616194 -0.00520124 0)
(0.0631057 -0.00519613 0)
(0.0645905 -0.00519025 0)
(0.0660736 -0.00518355 0)
(0.0675546 -0.00517599 0)
(0.0690335 -0.00516751 0)
(0.0705098 -0.00515808 0)
(0.0719834 -0.00514765 0)
(0.0734539 -0.00513617 0)
(0.074921 -0.00512358 0)
(0.0763845 -0.00510985 0)
(0.0778438 -0.00509493 0)
(0.0792989 -0.00507875 0)
(0.0807491 -0.00506129 0)
(0.0821943 -0.00504248 0)
(0.0836339 -0.00502228 0)
(0.0850677 -0.00500064 0)
(0.086495 -0.00497752 0)
(0.0879157 -0.00495287 0)
(0.0893291 -0.00492663 0)
(0.0907348 -0.00489877 0)
(0.0921324 -0.00486924 0)
(0.0935214 -0.004838 0)
(0.0949013 -0.004805 0)
(0.0962715 -0.0047702 0)
(0.0976316 -0.00473357 0)
(0.0989809 -0.00469507 0)
(0.100319 -0.00465465 0)
(0.101645 -0.0046123 0)
(0.102959 -0.00456796 0)
(0.104261 -0.00452162 0)
(0.105548 -0.00447325 0)
(0.106822 -0.00442282 0)
(0.108081 -0.0043703 0)
(0.109324 -0.00431569 0)
(0.110552 -0.00425896 0)
(0.111763 -0.00420011 0)
(0.112957 -0.00413911 0)
(0.114133 -0.00407596 0)
(0.115291 -0.00401066 0)
(0.11643 -0.00394321 0)
(0.11755 -0.00387361 0)
(0.118649 -0.00380186 0)
(0.119728 -0.00372799 0)
(0.120785 -0.003652 0)
(0.12182 -0.00357391 0)
(0.122832 -0.00349374 0)
(0.123821 -0.00341152 0)
(0.124786 -0.00332728 0)
(0.125727 -0.00324106 0)
(0.126643 -0.00315288 0)
(0.127533 -0.0030628 0)
(0.128398 -0.00297085 0)
(0.129235 -0.00287709 0)
(0.130046 -0.00278157 0)
(0.130829 -0.00268435 0)
(0.131584 -0.00258548 0)
(0.13231 -0.00248504 0)
(0.133008 -0.00238308 0)
(0.133675 -0.00227967 0)
(0.134314 -0.0021749 0)
(0.134921 -0.00206883 0)
(0.135499 -0.00196155 0)
(0.136045 -0.00185313 0)
(0.13656 -0.00174367 0)
(0.137044 -0.00163323 0)
(0.137496 -0.00152192 0)
(0.137915 -0.00140982 0)
(0.138303 -0.00129702 0)
(0.138658 -0.00118362 0)
(0.13898 -0.00106971 0)
(0.13927 -0.000955373 0)
(0.139527 -0.000840715 0)
(0.139751 -0.000725828 0)
(0.139942 -0.000610808 0)
(0.1401 -0.000495747 0)
(0.140225 -0.000380742 0)
(0.140318 -0.000265886 0)
(0.140377 -0.000151272 0)
(0.140403 -3.69921e-05 0)
(0.140397 7.68631e-05 0)
(0.140358 0.000190204 0)
(0.140287 0.000302943 0)
(0.140183 0.000414995 0)
(0.140048 0.000526275 0)
(0.13988 0.000636702 0)
(0.139682 0.000746196 0)
(0.139452 0.000854681 0)
(0.139191 0.000962083 0)
(0.138899 0.00106833 0)
(0.138577 0.00117335 0)
(0.138225 0.00127709 0)
(0.137844 0.00137947 0)
(0.137434 0.00148044 0)
(0.136995 0.00157995 0)
(0.136527 0.00167794 0)
(0.136032 0.00177435 0)
(0.135509 0.00186915 0)
(0.13496 0.0019623 0)
(0.134384 0.00205374 0)
(0.133782 0.00214346 0)
(0.133155 0.0022314 0)
(0.132503 0.00231755 0)
(0.131826 0.00240188 0)
(0.131126 0.00248437 0)
(0.130402 0.00256498 0)
(0.129655 0.00264372 0)
(0.128887 0.00272056 0)
(0.128096 0.0027955 0)
(0.127285 0.00286853 0)
(0.126452 0.00293964 0)
(0.1256 0.00300883 0)
(0.124728 0.0030761 0)
(0.123838 0.00314146 0)
(0.122929 0.00320491 0)
(0.122002 0.00326645 0)
(0.121058 0.00332611 0)
(0.120097 0.00338389 0)
(0.119119 0.00343981 0)
(0.118126 0.00349388 0)
(0.117118 0.00354613 0)
(0.116096 0.00359657 0)
(0.115059 0.00364522 0)
(0.114008 0.00369211 0)
(0.112945 0.00373727 0)
(0.111869 0.00378071 0)
(0.11078 0.00382247 0)
(0.10968 0.00386258 0)
(0.108569 0.00390106 0)
(0.107447 0.00393795 0)
(0.106315 0.00397327 0)
(0.105173 0.00400707 0)
(0.104022 0.00403936 0)
(0.102861 0.0040702 0)
(0.101693 0.0040996 0)
(0.100515 0.0041276 0)
(0.0993306 0.00415424 0)
(0.0981384 0.00417956 0)
(0.0969391 0.00420358 0)
(0.0957333 0.00422635 0)
(0.0945211 0.00424789 0)
(0.093303 0.00426825 0)
(0.0920793 0.00428745 0)
(0.0908503 0.00430554 0)
(0.0896164 0.00432255 0)
(0.0883778 0.00433852 0)
(0.0871348 0.00435347 0)
(0.0858877 0.00436745 0)
(0.0846368 0.00438048 0)
(0.0833823 0.0043926 0)
(0.0821246 0.00440385 0)
(0.0808638 0.00441425 0)
(0.0796002 0.00442385 0)
(0.078334 0.00443266 0)
(0.0770654 0.00444073 0)
(0.0757947 0.00444808 0)
(0.074522 0.00445475 0)
(0.0732475 0.00446076 0)
(0.0719715 0.00446615 0)
(0.070694 0.00447094 0)
(0.0694153 0.00447516 0)
(0.0681355 0.00447884 0)
(0.0668547 0.00448201 0)
(0.0655731 0.00448469 0)
(0.0642909 0.00448691 0)
(0.0630081 0.00448869 0)
(0.0617249 0.00449007 0)
(0.0604414 0.00449106 0)
(0.0591577 0.00449168 0)
(0.0578739 0.00449197 0)
(0.0565901 0.00449194 0)
(0.0553064 0.00449161 0)
(0.0540228 0.00449101 0)
(0.0527395 0.00449016 0)
(0.0514564 0.00448907 0)
(0.0501738 0.00448777 0)
(0.0488915 0.00448627 0)
(0.0476098 0.0044846 0)
(0.0463285 0.00448276 0)
(0.0450478 0.00448079 0)
(0.0437677 0.00447868 0)
(0.0424883 0.00447647 0)
(0.0412095 0.00447417 0)
(0.0399314 0.00447178 0)
(0.0386541 0.00446933 0)
(0.0373774 0.00446683 0)
(0.0361015 0.00446429 0)
(0.0348263 0.00446173 0)
(0.0335519 0.00445915 0)
(0.0322782 0.00445657 0)
(0.0310053 0.004454 0)
(0.0297331 0.00445145 0)
(0.0284617 0.00444894 0)
(0.027191 0.00444646 0)
(0.025921 0.00444403 0)
(0.0246517 0.00444167 0)
(0.0233831 0.00443937 0)
(0.0221151 0.00443715 0)
(0.0208477 0.004435 0)
(0.019581 0.00443295 0)
(0.0183149 0.004431 0)
(0.0170493 0.00442915 0)
(0.0157842 0.00442741 0)
(0.0145196 0.00442578 0)
(0.0132555 0.00442427 0)
(0.0119917 0.00442288 0)
(0.0107284 0.00442162 0)
(0.00946541 0.00442049 0)
(0.00820272 0.0044195 0)
(0.00694031 0.00441864 0)
(0.00567812 0.00441792 0)
(0.00441612 0.00441735 0)
(0.00315427 0.00441691 0)
(0.00189252 0.00441663 0)
(0.000630833 0.00441648 0)
(0.000738001 -0.00664377 0)
(0.00221403 -0.00664402 0)
(0.00369015 -0.00664451 0)
(0.00516641 -0.00664524 0)
(0.00664286 -0.00664621 0)
(0.00811957 -0.00664742 0)
(0.00959657 -0.00664885 0)
(0.0110739 -0.00665049 0)
(0.0125517 -0.00665235 0)
(0.0140299 -0.00665441 0)
(0.0155087 -0.00665665 0)
(0.0169879 -0.00665907 0)
(0.0184678 -0.00666164 0)
(0.0199482 -0.00666436 0)
(0.0214293 -0.0066672 0)
(0.0229111 -0.00667014 0)
(0.0243936 -0.00667318 0)
(0.0258768 -0.00667627 0)
(0.0273607 -0.00667941 0)
(0.0288453 -0.00668257 0)
(0.0303307 -0.00668571 0)
(0.0318169 -0.00668882 0)
(0.0333038 -0.00669186 0)
(0.0347913 -0.00669481 0)
(0.0362796 -0.00669763 0)
(0.0377686 -0.00670029 0)
(0.0392581 -0.00670276 0)
(0.0407483 -0.00670499 0)
(0.042239 -0.00670696 0)
(0.0437301 -0.00670862 0)
(0.0452216 -0.00670994 0)
(0.0467135 -0.00671086 0)
(0.0482056 -0.00671135 0)
(0.0496978 -0.00671137 0)
(0.05119 -0.00671086 0)
(0.0526822 -0.00670979 0)
(0.0541741 -0.00670809 0)
(0.0556656 -0.00670573 0)
(0.0571566 -0.00670265 0)
(0.0586469 -0.00669879 0)
(0.0601364 -0.00669412 0)
(0.0616248 -0.00668856 0)
(0.0631119 -0.00668206 0)
(0.0645976 -0.00667458 0)
(0.0660817 -0.00666604 0)
(0.0675637 -0.0066564 0)
(0.0690437 -0.00664558 0)
(0.0705211 -0.00663354 0)
(0.0719959 -0.00662021 0)
(0.0734676 -0.00660553 0)
(0.074936 -0.00658943 0)
(0.0764008 -0.00657186 0)
(0.0778616 -0.00655275 0)
(0.079318 -0.00653204 0)
(0.0807698 -0.00650967 0)
(0.0822165 -0.00648557 0)
(0.0836578 -0.00645969 0)
(0.0850932 -0.00643195 0)
(0.0865223 -0.0064023 0)
(0.0879447 -0.00637068 0)
(0.08936 -0.00633702 0)
(0.0907676 -0.00630128 0)
(0.0921671 -0.00626339 0)
(0.0935581 -0.00622329 0)
(0.09494 -0.00618093 0)
(0.0963123 -0.00613626 0)
(0.0976745 -0.00608923 0)
(0.099026 -0.00603979 0)
(0.100366 -0.00598789 0)
(0.101695 -0.00593348 0)
(0.103011 -0.00587653 0)
(0.104315 -0.005817 0)
(0.105605 -0.00575485 0)
(0.106881 -0.00569004 0)
(0.108142 -0.00562256 0)
(0.109388 -0.00555238 0)
(0.110618 -0.00547946 0)
(0.111832 -0.0054038 0)
(0.113028 -0.00532539 0)
(0.114207 -0.0052442 0)
(0.115367 -0.00516025 0)
(0.116509 -0.00507352 0)
(0.117631 -0.00498402 0)
(0.118732 -0.00489176 0)
(0.119813 -0.00479675 0)
(0.120873 -0.00469902 0)
(0.12191 -0.00459858 0)
(0.122925 -0.00449546 0)
(0.123916 -0.0043897 0)
(0.124884 -0.00428134 0)
(0.125827 -0.00417041 0)
(0.126745 -0.00405697 0)
(0.127637 -0.00394107 0)
(0.128504 -0.00382277 0)
(0.129344 -0.00370214 0)
(0.130156 -0.00357923 0)
(0.130941 -0.00345412 0)
(0.131698 -0.0033269 0)
(0.132426 -0.00319764 0)
(0.133125 -0.00306643 0)
(0.133795 -0.00293336 0)
(0.134434 -0.00279852 0)
(0.135043 -0.00266201 0)
(0.135622 -0.00252394 0)
(0.13617 -0.0023844 0)
(0.136686 -0.00224351 0)
(0.137171 -0.00210137 0)
(0.137623 -0.00195811 0)
(0.138044 -0.00181382 0)
(0.138432 -0.00166864 0)
(0.138788 -0.00152268 0)
(0.139111 -0.00137605 0)
(0.139401 -0.00122889 0)
(0.139659 -0.00108131 0)
(0.139883 -0.000933439 0)
(0.140074 -0.000785393 0)
(0.140232 -0.000637297 0)
(0.140357 -0.000489272 0)
(0.140449 -0.000341441 0)
(0.140508 -0.000193922 0)
(0.140534 -4.6835e-05 0)
(0.140527 9.97033e-05 0)
(0.140487 0.000245578 0)
(0.140415 0.000390675 0)
(0.140311 0.000534885 0)
(0.140175 0.000678099 0)
(0.140006 0.000820212 0)
(0.139806 0.000961122 0)
(0.139575 0.00110073 0)