/*--------------------------------*- C++ -*----------------------------------*\
| =========                 |                                                 |
| \\      /  F ield         | OpenFOAM: The Open Source CFD Toolbox           |
|  \\    /   O peration     | Version:  v2012                                 |
|   \\  /    A nd           | Website:  www.openfoam.com                      |
|    \\/     M anipulation  |                                                 |
\*---------------------------------------------------------------------------*/
FoamFile
{
    version     2.0;
    format      ascii;
    class       volScalarField;
    location    "11.3";
    object      W;
}
// * * * * * * * * * * * * * * * * * * * * * * * * * * * * * * * * * * * * * //

dimensions      [0 0 -1 0 0 0 0];


internalField   nonuniform List<scalar> 
65536
(
4.56783e-18
1.37994e-17
2.33218e-17
3.33369e-17
4.40566e-17
5.57061e-17
6.85278e-17
8.27856e-17
9.87701e-17
1.16803e-16
1.37242e-16
1.6049e-16
1.86995e-16
2.17265e-16
2.5187e-16
2.91453e-16
3.36739e-16
3.88547e-16
4.47798e-16
5.15533e-16
5.92921e-16
6.81281e-16
7.82095e-16
8.97026e-16
1.02794e-15
1.17694e-15
1.34635e-15
1.53881e-15
1.75725e-15
2.00492e-15
2.28546e-15
2.60292e-15
2.96181e-15
3.36709e-15
3.8243e-15
4.33956e-15
4.9196e-15
5.57188e-15
6.30458e-15
7.12672e-15
8.04819e-15
9.07981e-15
1.02335e-14
1.15221e-14
1.29597e-14
1.45618e-14
1.6345e-14
1.83274e-14
2.05285e-14
2.29695e-14
2.56732e-14
2.86641e-14
3.19685e-14
3.56145e-14
3.96323e-14
4.40541e-14
4.89139e-14
5.42482e-14
6.00953e-14
6.64958e-14
7.34925e-14
8.11303e-14
8.94564e-14
9.85199e-14
1.08372e-13
1.19066e-13
1.30658e-13
1.43203e-13
1.5676e-13
1.7139e-13
1.87152e-13
2.04111e-13
2.22327e-13
2.41864e-13
2.62785e-13
2.85153e-13
3.0903e-13
3.34477e-13
3.61553e-13
3.90316e-13
4.20821e-13
4.53119e-13
4.87257e-13
5.23281e-13
5.61228e-13
6.01132e-13
6.43021e-13
6.86915e-13
7.32829e-13
7.80768e-13
8.30728e-13
8.827e-13
9.36662e-13
9.92581e-13
1.05042e-12
1.11012e-12
1.17162e-12
1.23485e-12
1.29971e-12
1.36611e-12
1.43393e-12
1.50305e-12
1.57333e-12
1.64462e-12
1.71676e-12
1.78957e-12
1.86287e-12
1.93645e-12
2.01011e-12
2.08362e-12
2.15676e-12
2.22928e-12
2.30094e-12
2.37147e-12
2.44061e-12
2.5081e-12
2.57366e-12
2.63702e-12
2.69788e-12
2.75598e-12
2.81104e-12
2.86277e-12
2.91091e-12
2.95519e-12
2.99536e-12
3.03115e-12
3.06234e-12
3.08869e-12
3.11001e-12
3.1261e-12
3.13678e-12
3.1419e-12
3.14135e-12
3.135e-12
3.12279e-12
3.10467e-12
3.08062e-12
3.05066e-12
3.01483e-12
2.97321e-12
2.92592e-12
2.8731e-12
2.81495e-12
2.75168e-12
2.68355e-12
2.61085e-12
2.5339e-12
2.45305e-12
2.36868e-12
2.28119e-12
2.19102e-12
2.09862e-12
2.00444e-12
1.90897e-12
1.81269e-12
1.7161e-12
1.61967e-12
1.52388e-12
1.42922e-12
1.33612e-12
1.24503e-12
1.15637e-12
1.0705e-12
9.8778e-13
9.08531e-13
8.33029e-13
7.61515e-13
6.94187e-13
6.31202e-13
5.72676e-13
5.18683e-13
4.69254e-13
4.24381e-13
3.8402e-13
3.48087e-13
3.16466e-13
2.89009e-13
2.65539e-13
2.45854e-13
2.29726e-13
2.16908e-13
2.07136e-13
2.0013e-13
1.95597e-13
1.93237e-13
1.92742e-13
1.938e-13
1.96102e-13
1.99338e-13
2.03207e-13
2.07418e-13
2.11692e-13
2.15768e-13
2.19407e-13
2.22392e-13
2.24536e-13
2.25681e-13
2.25704e-13
2.24513e-13
2.22055e-13
2.18311e-13
2.13297e-13
2.07062e-13
1.99687e-13
1.91279e-13
1.81967e-13
1.71898e-13
1.61235e-13
1.50145e-13
1.38797e-13
1.2736e-13
1.15993e-13
1.04844e-13
9.4043e-14
8.37056e-14
7.39256e-14
6.47764e-14
5.63107e-14
4.85611e-14
4.15414e-14
3.52487e-14
2.96652e-14
2.4761e-14
2.04965e-14
1.68251e-14
1.36956e-14
1.1054e-14
8.84625e-15
7.01896e-15
5.52128e-15
4.30565e-15
3.32851e-15
2.55066e-15
1.93743e-15
1.45866e-15
1.08847e-15
8.04999e-16
5.90027e-16
4.28579e-16
3.08499e-16
2.20051e-16
1.55534e-16
1.08929e-16
7.55898e-17
5.19716e-17
3.54026e-17
2.38917e-17
1.5972e-17
1.05753e-17
6.93186e-18
4.49284e-18
2.8706e-18
1.79302e-18
1.06918e-18
5.63392e-19
1.75397e-19
1.584e-17
4.78525e-17
8.08732e-17
1.15603e-16
1.52775e-16
1.93171e-16
2.3763e-16
2.87069e-16
3.42493e-16
4.05018e-16
4.75886e-16
5.56488e-16
6.48384e-16
7.53329e-16
8.73299e-16
1.01052e-15
1.16752e-15
1.34711e-15
1.5525e-15
1.78729e-15
2.05553e-15
2.36178e-15
2.71118e-15
3.10949e-15
3.56317e-15
4.07946e-15
4.66648e-15
5.33329e-15
6.09002e-15
6.94796e-15
7.91968e-15
9.01916e-15
1.02619e-14
1.16652e-14
1.32481e-14
1.50317e-14
1.70392e-14
1.92963e-14
2.18313e-14
2.46751e-14
2.78619e-14
3.14288e-14
3.54167e-14
3.987e-14
4.48372e-14
5.03709e-14
5.65283e-14
6.33714e-14
7.0967e-14
7.93875e-14
8.87106e-14
9.902e-14
1.10405e-13
1.22962e-13
1.36794e-13
1.52008e-13
1.68722e-13
1.87057e-13
2.07144e-13
2.2912e-13
2.53128e-13
2.7932e-13
3.07854e-13
3.38893e-13
3.7261e-13
4.0918e-13
4.48788e-13
4.91621e-13
5.37873e-13
5.87738e-13
6.41419e-13
6.99117e-13
7.61034e-13
8.27377e-13
8.98346e-13
9.74143e-13
1.05497e-12
1.141e-12
1.23244e-12
1.32947e-12
1.43223e-12
1.5409e-12
1.65561e-12
1.77649e-12
1.90365e-12
2.03717e-12
2.17714e-12
2.32357e-12
2.47651e-12
2.63594e-12
2.80183e-12
2.9741e-12
3.15266e-12
3.33738e-12
3.52808e-12
3.72457e-12
3.9266e-12
4.13389e-12
4.34612e-12
4.56294e-12
4.78394e-12
5.00869e-12
5.23672e-12
5.4675e-12
5.70047e-12
5.93506e-12
6.17062e-12
6.4065e-12
6.642e-12
6.87638e-12
7.1089e-12
7.33877e-12
7.56519e-12
7.78732e-12
8.00432e-12
8.21534e-12
8.4195e-12
8.61594e-12
8.80378e-12
8.98214e-12
9.15017e-12
9.30701e-12
9.45183e-12
9.58382e-12
9.70219e-12
9.80621e-12
9.89516e-12
9.96839e-12
1.00253e-11
1.00653e-11
1.00879e-11
1.00927e-11
1.00794e-11
1.00477e-11
9.99741e-12
9.92845e-12
9.84084e-12
9.73467e-12
9.61015e-12
9.4676e-12
9.30744e-12
9.1302e-12
8.93651e-12
8.72711e-12
8.50284e-12
8.26467e-12
8.01362e-12
7.75085e-12
7.47756e-12
7.19505e-12
6.9047e-12
6.60791e-12
6.30615e-12
6.00092e-12
5.69374e-12
5.38613e-12
5.0796e-12
4.77563e-12
4.47569e-12
4.18116e-12
3.89339e-12
3.61362e-12
3.34303e-12
3.08268e-12
2.83352e-12
2.59639e-12
2.37201e-12
2.16096e-12
1.96369e-12
1.78054e-12
1.6117e-12
1.45724e-12
1.31711e-12
1.19113e-12
1.07903e-12
9.80412e-13
8.94805e-13
8.21637e-13
7.60258e-13
7.09952e-13
6.69937e-13
6.39381e-13
6.17406e-13
6.03101e-13
5.95526e-13
5.93724e-13
5.9673e-13
6.03581e-13
6.13321e-13
6.2502e-13
6.37777e-13
6.50734e-13
6.63089e-13
6.74103e-13
6.83114e-13
6.89545e-13
6.92914e-13
6.92839e-13
6.89047e-13
6.81372e-13
6.69759e-13
6.54259e-13
6.35025e-13
6.12303e-13
5.86423e-13
5.57784e-13
5.2684e-13
4.94084e-13
4.6003e-13
4.25203e-13
3.90112e-13
3.55246e-13
3.21056e-13
2.87945e-13
2.56262e-13
2.26294e-13
1.98264e-13
1.72333e-13
1.486e-13
1.27106e-13
1.07841e-13
9.07492e-14
7.57393e-14
6.26892e-14
5.14555e-14
4.18809e-14
3.38003e-14
2.70473e-14
2.14587e-14
1.68787e-14
1.31615e-14
1.01739e-14
7.79582e-15
5.92119e-15
4.4577e-15
3.32619e-15
2.45981e-15
1.80284e-15
1.30946e-15
9.42531e-16
6.72275e-16
4.75151e-16
3.32762e-16
2.30906e-16
1.58754e-16
1.08138e-16
7.29757e-17
4.87844e-17
3.23001e-17
2.11714e-17
1.37219e-17
8.76715e-18
5.47602e-18
3.26532e-18
1.72063e-18
5.35682e-19
3.44036e-17
1.03933e-16
1.75652e-16
2.51081e-16
3.31815e-16
4.19547e-16
5.16102e-16
6.23468e-16
7.43829e-16
8.79606e-16
1.0335e-15
1.20852e-15
1.40806e-15
1.63592e-15
1.8964e-15
2.19433e-15
2.53516e-15
2.92504e-15
3.3709e-15
3.88054e-15
4.46276e-15
5.12745e-15
5.88572e-15
6.75005e-15
7.73444e-15
8.85459e-15
1.0128e-14
1.15744e-14
1.32156e-14
1.5076e-14
1.71828e-14
1.95661e-14
2.22596e-14
2.53004e-14
2.87295e-14
3.25924e-14
3.69393e-14
4.18253e-14
4.73111e-14
5.34634e-14
6.03553e-14
6.80665e-14
7.66844e-14
8.63041e-14
9.70291e-14
1.08972e-13
1.22254e-13
1.37007e-13
1.53374e-13
1.71507e-13
1.91572e-13
2.13745e-13
2.38215e-13
2.65184e-13
2.94867e-13
3.27492e-13
3.63301e-13
4.02551e-13
4.4551e-13
4.92463e-13
5.43707e-13
5.99552e-13
6.60321e-13
7.26352e-13
7.9799e-13
8.75595e-13
9.59535e-13
1.05019e-12
1.14793e-12
1.25316e-12
1.36627e-12
1.48765e-12
1.61769e-12
1.75678e-12
1.90531e-12
2.06366e-12
2.23218e-12
2.41123e-12
2.60113e-12
2.8022e-12
3.01472e-12
3.23894e-12
3.47508e-12
3.72334e-12
3.98384e-12
4.25671e-12
4.54198e-12
4.83966e-12
5.1497e-12
5.47198e-12
5.80634e-12
6.15254e-12
6.51027e-12
6.87917e-12
7.25878e-12
7.64861e-12
8.04806e-12
8.45647e-12
8.87311e-12
9.29715e-12
9.72773e-12
1.01639e-11
1.06046e-11
1.10487e-11
1.14952e-11
1.19427e-11
1.23899e-11
1.28357e-11
1.32784e-11
1.37168e-11
1.41492e-11
1.45743e-11
1.49904e-11
1.53961e-11
1.57896e-11
1.61694e-11
1.65339e-11
1.68816e-11
1.72107e-11
1.75199e-11
1.78075e-11
1.80722e-11
1.83123e-11
1.85267e-11
1.87139e-11
1.88728e-11
1.90022e-11
1.9101e-11
1.91684e-11
1.92035e-11
1.92056e-11
1.91742e-11
1.91087e-11
1.90091e-11
1.88751e-11
1.87069e-11
1.85046e-11
1.82686e-11
1.79997e-11
1.76984e-11
1.73659e-11
1.70032e-11
1.66116e-11
1.61928e-11
1.57484e-11
1.52803e-11
1.47904e-11
1.4281e-11
1.37544e-11
1.32129e-11
1.26592e-11
1.20958e-11
1.15255e-11
1.09509e-11
1.03747e-11
9.7998e-12
9.22876e-12
8.66425e-12
8.10883e-12
7.56495e-12
7.03491e-12
6.52089e-12
6.02489e-12
5.5487e-12
5.09393e-12
4.66198e-12
4.254e-12
3.87093e-12
3.51348e-12
3.18211e-12
2.87706e-12
2.59837e-12
2.34582e-12
2.11902e-12
1.91738e-12
1.74013e-12
1.58633e-12
1.4549e-12
1.34463e-12
1.25418e-12
1.18213e-12
1.12694e-12
1.08703e-12
1.06075e-12
1.04642e-12
1.04233e-12
1.04674e-12
1.05796e-12
1.07429e-12
1.09409e-12
1.11576e-12
1.13781e-12
1.15882e-12
1.1775e-12
1.1927e-12
1.2034e-12
1.20878e-12
1.20816e-12
1.20109e-12
1.18727e-12
1.16661e-12
1.13921e-12
1.10535e-12
1.06545e-12
1.02009e-12
9.69966e-13
9.15878e-13
8.58679e-13
7.99269e-13
7.38552e-13
6.77417e-13
6.16711e-13
5.57214e-13
4.99624e-13
4.44542e-13
3.92463e-13
3.43772e-13
2.98744e-13
2.57547e-13
2.20249e-13
1.86828e-13
1.57188e-13
1.31164e-13
1.08545e-13
8.90781e-14
7.24905e-14
5.84945e-14
4.68005e-14
3.71248e-14
2.91968e-14
2.27636e-14
1.7594e-14
1.34798e-14
1.02371e-14
7.70595e-15
5.74929e-15
4.25131e-15
3.11554e-15
2.2627e-15
1.62851e-15
1.16146e-15
8.20831e-16
5.74807e-16
3.98836e-16
2.74191e-16
1.8676e-16
1.26025e-16
8.42437e-17
5.57751e-17
3.65568e-17
2.36928e-17
1.51372e-17
9.45458e-18
5.6376e-18
2.97065e-18
9.24858e-19
6.83699e-17
2.06544e-16
3.4907e-16
4.98968e-16
6.59405e-16
8.33748e-16
1.02562e-15
1.23897e-15
1.47814e-15
1.74794e-15
2.05372e-15
2.40148e-15
2.79795e-15
3.25069e-15
3.76822e-15
4.36013e-15
5.03725e-15
5.81178e-15
6.69748e-15
7.70984e-15
8.86628e-15
1.01864e-14
1.16923e-14
1.34087e-14
1.53634e-14
1.75873e-14
2.01153e-14
2.29862e-14
2.62433e-14
2.99349e-14
3.41147e-14
3.88423e-14
4.41839e-14
5.02127e-14
5.701e-14
6.4665e-14
7.32766e-14
8.29531e-14
9.3814e-14
1.0599e-13
1.19624e-13
1.34873e-13
1.51907e-13
1.70912e-13
1.9209e-13
2.1566e-13
2.41858e-13
2.7094e-13
3.03182e-13
3.38879e-13
3.7835e-13
4.21934e-13
4.69995e-13
5.22918e-13
5.81113e-13
6.45017e-13
7.15088e-13
7.9181e-13
8.75691e-13
9.67264e-13
1.06708e-12
1.17573e-12
1.2938e-12
1.42191e-12
1.5607e-12
1.71082e-12
1.87294e-12
2.04773e-12
2.23588e-12
2.43808e-12
2.655e-12
2.88733e-12
3.13575e-12
3.40091e-12
3.68345e-12
3.98397e-12
4.30306e-12
4.64127e-12
4.99908e-12
5.37695e-12
5.77525e-12
6.19433e-12
6.63443e-12
7.09572e-12
7.57829e-12
8.08216e-12
8.60721e-12
9.15326e-12
9.71999e-12
1.0307e-11
1.09137e-11
1.15395e-11
1.21836e-11
1.28451e-11
1.3523e-11
1.42161e-11
1.49231e-11
1.56426e-11
1.63732e-11
1.7113e-11
1.78604e-11
1.86135e-11
1.93702e-11
2.01286e-11
2.08863e-11
2.16412e-11
2.23908e-11
2.31328e-11
2.38647e-11
2.45839e-11
2.52879e-11
2.59741e-11
2.66398e-11
2.72825e-11
2.78996e-11
2.84885e-11
2.90467e-11
2.95715e-11
3.00608e-11
3.05119e-11
3.09228e-11
3.12913e-11
3.16152e-11
3.18926e-11
3.21219e-11
3.23014e-11
3.24295e-11
3.25051e-11
3.2527e-11
3.24945e-11
3.24068e-11
3.22635e-11
3.20644e-11
3.18096e-11
3.14994e-11
3.11344e-11
3.07155e-11
3.02437e-11
2.97205e-11
2.91476e-11
2.85269e-11
2.78607e-11
2.71515e-11
2.6402e-11
2.56153e-11
2.47945e-11
2.39433e-11
2.30652e-11
2.21641e-11
2.12439e-11
2.03088e-11
1.9363e-11
1.84108e-11
1.74563e-11
1.6504e-11
1.5558e-11
1.46225e-11
1.37014e-11
1.27986e-11
1.19179e-11
1.10625e-11
1.02357e-11
9.44042e-12
8.67915e-12
7.95418e-12
7.26742e-12
6.62042e-12
6.01439e-12
5.45014e-12
4.92818e-12
4.44863e-12
4.01128e-12
3.61562e-12
3.26081e-12
2.94575e-12
2.66907e-12
2.42916e-12
2.22421e-12
2.05221e-12
1.911e-12
1.79825e-12
1.71157e-12
1.64842e-12
1.60623e-12
1.58237e-12
1.57418e-12
1.579e-12
1.59421e-12
1.61723e-12
1.64554e-12
1.67674e-12
1.70854e-12
1.73882e-12
1.76564e-12
1.78727e-12
1.80219e-12
1.80917e-12
1.80722e-12
1.79565e-12
1.77404e-12
1.74228e-12
1.70051e-12
1.64916e-12
1.58888e-12
1.52054e-12
1.44518e-12
1.364e-12
1.27828e-12
1.18935e-12
1.09856e-12
1.00723e-12
9.16624e-13
8.27888e-13
7.42057e-13
6.60018e-13
5.825e-13
5.10065e-13
4.43115e-13
3.81891e-13
3.26487e-13
2.76867e-13
2.32876e-13
1.94269e-13
1.60724e-13
1.31867e-13
1.07285e-13
8.65506e-14
6.92319e-14
5.49067e-14
4.31722e-14
3.3653e-14
2.60053e-14
1.99204e-14
1.51257e-14
1.13839e-14
8.49199e-15
6.27842e-15
4.60041e-15
3.34065e-15
2.40401e-15
1.71434e-15
1.21142e-15
8.48235e-16
5.88496e-16
4.0454e-16
2.7552e-16
1.85905e-16
1.24262e-16
8.22647e-17
5.39157e-17
3.49414e-17
2.23229e-17
1.39422e-17
8.31325e-18
4.38047e-18
1.36377e-18
1.31909e-16
3.98495e-16
6.73477e-16
9.62683e-16
1.27222e-15
1.60859e-15
1.97879e-15
2.39042e-15
2.85188e-15
3.37242e-15
3.9624e-15
4.63338e-15
5.39833e-15
6.27184e-15
7.27034e-15
8.41234e-15
9.71873e-15
1.1213e-14
1.29217e-14
1.48747e-14
1.71056e-14
1.96522e-14
2.25569e-14
2.58674e-14
2.96372e-14
3.39259e-14
3.88005e-14
4.43356e-14
5.06145e-14
5.773e-14
6.57851e-14
7.48944e-14
8.51847e-14
9.67966e-14
1.09885e-13
1.24622e-13
1.41195e-13
1.59813e-13
1.80701e-13
2.04111e-13
2.30315e-13
2.59609e-13
2.92319e-13
3.28796e-13
3.69423e-13
4.14614e-13
4.64815e-13
5.20508e-13
5.8221e-13
6.50479e-13
7.25908e-13
8.09132e-13
9.00827e-13
1.00171e-12
1.11254e-12
1.23413e-12
1.36731e-12
1.51297e-12
1.67204e-12
1.84549e-12
2.03433e-12
2.23958e-12
2.46233e-12
2.70368e-12
2.96475e-12
3.24669e-12
3.55065e-12
3.8778e-12
4.22932e-12
4.60636e-12
5.01007e-12
5.44157e-12
5.90195e-12
6.39227e-12
6.91351e-12
7.4666e-12
8.0524e-12
8.67166e-12
9.32506e-12
1.00131e-11
1.07363e-11
1.1495e-11
1.22891e-11
1.31189e-11
1.3984e-11
1.48841e-11
1.58187e-11
1.6787e-11
1.77881e-11
1.88209e-11
1.98839e-11
2.09757e-11
2.20944e-11
2.3238e-11
2.44044e-11
2.5591e-11
2.67952e-11
2.80142e-11
2.9245e-11
3.04843e-11
3.17288e-11
3.29749e-11
3.42189e-11
3.54571e-11
3.66854e-11
3.78999e-11
3.90965e-11
4.0271e-11
4.14192e-11
4.25369e-11
4.36199e-11
4.4664e-11
4.56651e-11
4.66191e-11
4.75219e-11
4.83698e-11
4.9159e-11
4.98859e-11
5.05469e-11
5.1139e-11
5.1659e-11
5.21041e-11
5.24718e-11
5.27596e-11
5.29656e-11
5.30881e-11
5.31254e-11
5.30766e-11
5.29408e-11
5.27175e-11
5.24066e-11
5.20085e-11
5.15237e-11
5.09531e-11
5.02984e-11
4.95611e-11
4.87436e-11
4.78483e-11
4.68782e-11
4.58368e-11
4.47277e-11
4.35549e-11
4.23231e-11
4.10368e-11
3.97013e-11
3.83219e-11
3.69042e-11
3.54541e-11
3.39776e-11
3.2481e-11
3.09705e-11
2.94526e-11
2.79335e-11
2.64197e-11
2.49175e-11
2.34329e-11
2.19718e-11
2.05401e-11
1.9143e-11
1.77857e-11
1.64728e-11
1.52087e-11
1.39971e-11
1.28414e-11
1.17445e-11
1.07086e-11
9.73567e-12
8.82689e-12
7.98304e-12
7.20438e-12
6.49067e-12
5.84117e-12
5.25474e-12
4.72978e-12
4.26433e-12
3.85606e-12
3.50236e-12
3.20031e-12
2.94676e-12
2.73836e-12
2.57159e-12
2.44278e-12
2.34817e-12
2.28392e-12
2.24616e-12
2.23101e-12
2.23459e-12
2.2531e-12
2.28283e-12
2.32018e-12
2.3617e-12
2.40417e-12
2.44457e-12
2.48016e-12
2.5085e-12
2.5275e-12
2.53541e-12
2.53088e-12
2.51296e-12
2.48107e-12
2.43509e-12
2.37523e-12
2.3021e-12
2.21665e-12
2.12009e-12
2.0139e-12
1.89974e-12
1.7794e-12
1.65475e-12
1.52767e-12
1.39999e-12
1.27344e-12
1.14963e-12
1.02998e-12
9.15713e-13
8.0782e-13
7.07075e-13
6.1402e-13
5.28977e-13
4.52065e-13
3.83218e-13
3.22216e-13
2.68706e-13
2.22235e-13
1.82274e-13
1.4825e-13
1.19563e-13
9.56112e-14
7.58066e-14
5.95897e-14
4.64386e-14
3.58765e-14
2.74755e-14
2.08576e-14
1.56945e-14
1.17051e-14
8.65229e-15
6.33865e-15
4.60208e-15
3.31122e-15
2.36091e-15
1.66807e-15
1.16782e-15
8.10113e-16
5.56816e-16
3.79187e-16
2.55828e-16
1.70984e-16
1.13186e-16
7.41758e-17
4.80681e-17
3.07074e-17
1.9178e-17
1.14347e-17
6.02513e-18
1.87579e-18
2.50394e-16
7.56438e-16
1.27842e-15
1.82742e-15
2.41504e-15
3.0536e-15
3.7564e-15
4.53789e-15
5.41399e-15
6.40233e-15
7.52252e-15
8.79654e-15
1.0249e-14
1.19077e-14
1.38037e-14
1.59723e-14
1.84531e-14
2.12907e-14
2.45355e-14
2.82442e-14
3.24805e-14
3.73161e-14
4.28317e-14
4.91176e-14
5.6275e-14
6.44173e-14
7.36713e-14
8.41783e-14
9.60961e-14
1.096e-13
1.24886e-13
1.42169e-13
1.61689e-13
1.83713e-13
2.08532e-13
2.3647e-13
2.67883e-13
3.0316e-13
3.42729e-13
3.87059e-13
4.36662e-13
4.92095e-13
5.53965e-13
6.22931e-13
6.99706e-13
7.8506e-13
8.79827e-13
9.84899e-13
1.10124e-12
1.22987e-12
1.37189e-12
1.52847e-12
1.70086e-12
1.89035e-12
2.09835e-12
2.3263e-12
2.57575e-12
2.84829e-12
3.14559e-12
3.46939e-12
3.82146e-12
4.20366e-12
4.61787e-12
5.06601e-12
5.55005e-12
6.07195e-12
6.6337e-12
7.23728e-12
7.88462e-12
8.57767e-12
9.31827e-12
1.01082e-11
1.09493e-11
1.1843e-11
1.27908e-11
1.37942e-11
1.48541e-11
1.59717e-11
1.71477e-11
1.83825e-11
1.96765e-11
2.10297e-11
2.24418e-11
2.39121e-11
2.54398e-11
2.70237e-11
2.8662e-11
3.03528e-11
3.20939e-11
3.38825e-11
3.57155e-11
3.75894e-11
3.95005e-11
4.14446e-11
4.34171e-11
4.54132e-11
4.74277e-11
4.94551e-11
5.14897e-11
5.35253e-11
5.55559e-11
5.75749e-11
5.95758e-11
6.15517e-11
6.3496e-11
6.54016e-11
6.72617e-11
6.90694e-11
7.08178e-11
7.25001e-11
7.41097e-11
7.56401e-11
7.7085e-11
7.84384e-11
7.96944e-11
8.08475e-11
8.18925e-11
8.28246e-11
8.36393e-11
8.43325e-11
8.49006e-11
8.53403e-11
8.56489e-11
8.58242e-11
8.58642e-11
8.57679e-11
8.55343e-11
8.51633e-11
8.46553e-11
8.40109e-11
8.32318e-11
8.23197e-11
8.12773e-11
8.01076e-11
7.88142e-11
7.74012e-11
7.58734e-11
7.4236e-11
7.24948e-11
7.06559e-11
6.8726e-11
6.67123e-11
6.46224e-11
6.24642e-11
6.0246e-11
5.79765e-11
5.56644e-11
5.33189e-11
5.09492e-11
4.85646e-11
4.61745e-11
4.37882e-11
4.1415e-11
3.9064e-11
3.67439e-11
3.44634e-11
3.22305e-11
3.00531e-11
2.79384e-11
2.58931e-11
2.39232e-11
2.20342e-11
2.02308e-11
1.85171e-11
1.68963e-11
1.5371e-11
1.39431e-11
1.26134e-11
1.13823e-11
1.02495e-11
9.21391e-12
8.27371e-12
7.42665e-12
6.66986e-12
5.99998e-12
5.41321e-12
4.90535e-12
4.47185e-12
4.10789e-12
3.8084e-12
3.56814e-12
3.3817e-12
3.24358e-12
3.14824e-12
3.09012e-12
3.06367e-12
3.06343e-12
3.08405e-12
3.12032e-12
3.16724e-12
3.22006e-12
3.2743e-12
3.32585e-12
3.37095e-12
3.40631e-12
3.42906e-12
3.43687e-12
3.42792e-12
3.40094e-12
3.35523e-12
3.29059e-12
3.2074e-12
3.10647e-12
2.98912e-12
2.85702e-12
2.71216e-12
2.55681e-12
2.39338e-12
2.22439e-12
2.05237e-12
1.87977e-12
1.70891e-12
1.54193e-12
1.38073e-12
1.22692e-12
1.08183e-12
9.46456e-13
8.21514e-13
7.07413e-13
6.0429e-13
5.12042e-13
4.30356e-13
3.58744e-13
2.96586e-13
2.43166e-13
1.97704e-13
1.59392e-13
1.27418e-13
1.00992e-13
7.93628e-14
6.18293e-14
4.7753e-14
3.65608e-14
2.77472e-14
2.08734e-14
1.55638e-14
1.1502e-14
8.4245e-15
6.11522e-15
4.39907e-15
3.13597e-15
2.21529e-15
1.55068e-15
1.07554e-15
7.39148e-16
5.03288e-16
3.39515e-16
2.26892e-16
1.5018e-16
9.8411e-17
6.37683e-17
4.07344e-17
2.54388e-17
1.51671e-17
7.99151e-18
2.48794e-18
4.69159e-16
1.41734e-15
2.3954e-15
3.42412e-15
4.52525e-15
5.72193e-15
7.03905e-15
8.50375e-15
1.01459e-14
1.19985e-14
1.40984e-14
1.64868e-14
1.921e-14
2.23199e-14
2.5875e-14
2.99414e-14
3.45933e-14
3.99146e-14
4.59996e-14
5.29547e-14
6.08996e-14
6.99685e-14
8.03126e-14
9.21012e-14
1.05524e-13
1.20794e-13
1.38147e-13
1.5785e-13
1.80196e-13
2.05515e-13
2.34171e-13
2.66568e-13
3.03155e-13
3.44427e-13
3.90931e-13
4.43268e-13
5.02101e-13
5.68157e-13
6.42231e-13
7.25194e-13
8.17997e-13
9.21672e-13
1.03734e-12
1.16623e-12
1.30965e-12
1.46902e-12
1.64588e-12
1.84186e-12
2.05874e-12
2.29838e-12
2.5628e-12
2.85411e-12
3.17459e-12
3.5266e-12
3.91265e-12
4.33538e-12
4.79752e-12
5.30194e-12
5.8516e-12
6.44958e-12
7.09901e-12
7.80314e-12
8.56525e-12
9.38867e-12
1.02768e-11
1.12329e-11
1.22603e-11
1.33625e-11
1.45424e-11
1.58034e-11
1.71483e-11
1.858e-11
2.01011e-11
2.17139e-11
2.34204e-11
2.52226e-11
2.71217e-11
2.91188e-11
3.12145e-11
3.3409e-11
3.57018e-11
3.8092e-11
4.05782e-11
4.31585e-11
4.583e-11
4.85896e-11
5.14333e-11
5.43566e-11
5.73543e-11
6.04206e-11
6.35489e-11
6.67321e-11
6.99626e-11
7.3232e-11
7.65315e-11
7.98518e-11
8.31829e-11
8.65147e-11
8.98365e-11
9.31374e-11
9.64062e-11
9.96316e-11
1.02802e-10
1.05906e-10
1.08931e-10
1.11868e-10
1.14703e-10
1.17426e-10
1.20026e-10
1.22492e-10
1.24815e-10
1.26985e-10
1.28992e-10
1.30828e-10
1.32485e-10
1.33956e-10
1.35234e-10
1.36312e-10
1.37186e-10
1.37852e-10
1.38306e-10
1.38544e-10
1.38565e-10
1.38369e-10
1.37954e-10
1.3732e-10
1.36471e-10
1.35407e-10
1.34131e-10
1.32649e-10
1.30963e-10
1.29081e-10
1.27007e-10
1.24749e-10
1.22315e-10
1.19714e-10
1.16954e-10
1.14045e-10
1.10998e-10
1.07823e-10
1.04532e-10
1.01138e-10
9.76522e-11
9.40879e-11
9.04583e-11
8.67766e-11
8.30566e-11
7.93119e-11
7.55563e-11
7.18035e-11
6.80669e-11
6.436e-11
6.06957e-11
5.70867e-11
5.3545e-11
5.00823e-11
4.67093e-11
4.34363e-11
4.02725e-11
3.72263e-11
3.43054e-11
3.15161e-11
2.8864e-11
2.63535e-11
2.3988e-11
2.17697e-11
1.97e-11
1.7779e-11
1.60059e-11
1.4379e-11
1.28958e-11
1.15526e-11
1.03452e-11
9.26878e-12
8.31766e-12
7.48576e-12
6.76649e-12
6.15288e-12
5.63764e-12
5.21322e-12
4.87189e-12
4.60579e-12
4.40702e-12
4.26765e-12
4.17981e-12
4.13572e-12
4.12774e-12
4.14847e-12
4.19073e-12
4.24768e-12
4.31282e-12
4.38011e-12
4.44398e-12
4.4994e-12
4.54195e-12
4.56784e-12
4.57398e-12
4.55798e-12
4.5182e-12
4.45372e-12
4.36438e-12
4.25067e-12
4.11375e-12
3.95538e-12
3.77781e-12
3.58372e-12
3.3761e-12
3.15817e-12
2.93325e-12
2.70467e-12
2.47566e-12
2.24927e-12
2.02829e-12
1.81519e-12
1.61208e-12
1.42066e-12
1.24223e-12
1.07768e-12
9.27535e-13
7.91938e-13
6.70728e-13
5.63467e-13
4.69496e-13
3.87982e-13
3.17968e-13
2.58417e-13
2.08259e-13
1.6642e-13
1.31858e-13
1.03582e-13
8.06708e-14
6.2285e-14
4.76722e-14
3.61694e-14
2.72014e-14
2.02768e-14
1.49811e-14
1.09701e-14
7.96118e-15
5.72573e-15
4.08087e-15
2.88222e-15
2.01715e-15
1.39885e-15
9.61185e-16
6.54379e-16
4.41381e-16
2.94931e-16
1.95194e-16
1.27895e-16
8.28662e-17
5.293e-17
3.30529e-17
1.97058e-17
1.03826e-17
3.23231e-18
8.68408e-16
2.62349e-15
4.43397e-15
6.33831e-15
8.37684e-15
1.05924e-14
1.30312e-14
1.57436e-14
1.87848e-14
2.22162e-14
2.6106e-14
3.05306e-14
3.55758e-14
4.13379e-14
4.79257e-14
5.54613e-14
6.40827e-14
7.39453e-14
8.52243e-14
9.81167e-14
1.12844e-13
1.29657e-13
1.48834e-13
1.70689e-13
1.95575e-13
2.23885e-13
2.56059e-13
2.92586e-13
3.34014e-13
3.80951e-13
4.34071e-13
4.94122e-13
5.61933e-13
6.3842e-13
7.24591e-13
8.21557e-13
9.3054e-13
1.05288e-12
1.19004e-12
1.34363e-12
1.51538e-12
1.7072e-12
1.92115e-12
2.15946e-12
2.42453e-12
2.71898e-12
3.04558e-12
3.40733e-12
3.80742e-12
4.24928e-12
4.73652e-12
5.273e-12
5.86275e-12
6.51008e-12
7.21944e-12
7.99555e-12
8.84328e-12
9.76769e-12
1.0774e-11
1.18677e-11
1.30541e-11
1.4339e-11
1.57279e-11
1.72266e-11
1.88408e-11
2.05762e-11
2.24382e-11
2.44324e-11
2.65638e-11
2.88376e-11
3.12583e-11
3.38301e-11
3.65569e-11
3.94421e-11
4.24882e-11
4.56975e-11
4.90712e-11
5.261e-11
5.63136e-11
6.01809e-11
6.42098e-11
6.83972e-11
7.27389e-11
7.72298e-11
8.18634e-11
8.66324e-11
9.15282e-11
9.6541e-11
1.0166e-10
1.06873e-10
1.12168e-10
1.1753e-10
1.22944e-10
1.28394e-10
1.33864e-10
1.39336e-10
1.44793e-10
1.50214e-10
1.55583e-10
1.60878e-10
1.66081e-10
1.71171e-10
1.7613e-10
1.80938e-10
1.85575e-10
1.90024e-10
1.94265e-10
1.98283e-10
2.02058e-10
2.05577e-10
2.08825e-10
2.11786e-10
2.14449e-10
2.16803e-10
2.18836e-10
2.20541e-10
2.21909e-10
2.22935e-10
2.23613e-10
2.23941e-10
2.23916e-10
2.23538e-10
2.22808e-10
2.21727e-10
2.20301e-10
2.18533e-10
2.1643e-10
2.13999e-10
2.11249e-10
2.08191e-10
2.04835e-10
2.01193e-10
1.97279e-10
1.93106e-10
1.8869e-10
1.84047e-10
1.79192e-10
1.74145e-10
1.68922e-10
1.63542e-10
1.58025e-10
1.5239e-10
1.46657e-10
1.40845e-10
1.34977e-10
1.29071e-10
1.23148e-10
1.17229e-10
1.11333e-10
1.0548e-10
9.96888e-11
9.39784e-11
8.83666e-11
8.28703e-11
7.75056e-11
7.22877e-11
6.72305e-11
6.23468e-11
5.76481e-11
5.31445e-11
4.88446e-11
4.47558e-11
4.08836e-11
3.72324e-11
3.38048e-11
3.06021e-11
2.76241e-11
2.4869e-11
2.23341e-11
2.00151e-11
1.79066e-11
1.60021e-11
1.42943e-11
1.27749e-11
1.14349e-11
1.02647e-11
9.25402e-12
8.39237e-12
7.66881e-12
7.07221e-12
6.59131e-12
6.21477e-12
5.93129e-12
5.72965e-12
5.59879e-12
5.52786e-12
5.50632e-12
5.52396e-12
5.571e-12
5.63813e-12
5.71659e-12
5.79825e-12
5.87567e-12
5.94217e-12
5.99189e-12
6.01985e-12
6.02199e-12
5.99524e-12
5.93747e-12
5.84755e-12
5.7253e-12
5.57146e-12
5.38761e-12
5.17608e-12
4.93988e-12
4.68255e-12
4.40802e-12
4.12052e-12
3.82438e-12
3.52394e-12
3.22341e-12
2.92673e-12
2.63753e-12
2.35896e-12
2.09375e-12
1.84405e-12
1.61152e-12
1.39729e-12
1.20197e-12
1.02571e-12
8.68283e-13
7.29071e-13
6.07193e-13
5.0154e-13
4.1085e-13
3.33759e-13
2.68865e-13
2.14764e-13
1.70096e-13
1.3357e-13
1.03989e-13
8.02607e-14
6.14102e-14
4.65777e-14
3.50185e-14
2.60963e-14
1.92755e-14
1.41109e-14
1.0238e-14
7.36151e-15
5.24557e-15
3.70405e-15
2.59181e-15
1.79703e-15
1.23458e-15
8.40374e-16
5.66754e-16
3.78655e-16
2.50575e-16
1.64165e-16
1.06356e-16
6.79285e-17
4.24161e-17
2.52867e-17
1.33226e-17
4.14752e-18
1.58831e-15
4.79838e-15
8.10993e-15
1.15934e-14
1.53227e-14
1.93764e-14
2.38391e-14
2.88029e-14
3.43693e-14
4.06506e-14
4.7772e-14
5.58737e-14
6.51128e-14
7.56661e-14
8.77329e-14
1.01537e-13
1.17333e-13
1.35404e-13
1.56073e-13
1.797e-13
2.06693e-13
2.37509e-13
2.72661e-13
3.12727e-13
3.58349e-13
4.10252e-13
4.69239e-13
5.36211e-13
6.12168e-13
6.98225e-13
7.95616e-13
9.05713e-13
1.03003e-12
1.17024e-12
1.32819e-12
1.50592e-12
1.70564e-12
1.92981e-12
2.18109e-12
2.46241e-12
2.77694e-12
3.12814e-12
3.51974e-12
3.9558e-12
4.44069e-12
4.9791e-12
5.57607e-12
6.23702e-12
6.96769e-12
7.77423e-12
8.66313e-12
9.64127e-12
1.07159e-11
1.18946e-11
1.31854e-11
1.45966e-11
1.61367e-11
1.78148e-11
1.96398e-11
2.16213e-11
2.37686e-11
2.60916e-11
2.85998e-11
3.13029e-11
3.42106e-11
3.73323e-11
4.0677e-11
4.42536e-11
4.80705e-11
5.21352e-11
5.6455e-11
6.10361e-11
6.58839e-11
7.10025e-11
7.63953e-11
8.20641e-11
8.80094e-11
9.42301e-11
1.00724e-10
1.07486e-10
1.14511e-10
1.2179e-10
1.29314e-10
1.37071e-10
1.45047e-10
1.53226e-10
1.61591e-10
1.70122e-10
1.78797e-10
1.87594e-10
1.96486e-10
2.05447e-10
2.14449e-10
2.23463e-10
2.32457e-10
2.414e-10
2.50259e-10
2.59001e-10
2.67594e-10
2.76002e-10
2.84193e-10
2.92135e-10
2.99793e-10
3.07136e-10
3.14134e-10
3.20757e-10
3.26977e-10
3.32767e-10
3.38103e-10
3.42961e-10
3.47322e-10
3.51165e-10
3.54476e-10
3.57241e-10
3.59447e-10
3.61086e-10
3.62151e-10
3.62639e-10
3.62547e-10
3.61877e-10
3.60632e-10
3.58818e-10
3.56443e-10
3.53516e-10
3.5005e-10
3.4606e-10
3.41562e-10
3.36573e-10
3.31113e-10
3.25204e-10
3.18867e-10
3.12129e-10
3.05012e-10
2.97545e-10
2.89753e-10
2.81666e-10
2.73313e-10
2.64723e-10
2.55926e-10
2.46953e-10
2.37834e-10
2.28601e-10
2.19284e-10
2.09915e-10
2.00524e-10
1.91141e-10
1.81795e-10
1.72517e-10
1.63335e-10
1.54275e-10
1.45364e-10
1.36628e-10
1.2809e-10
1.19772e-10
1.11695e-10
1.03878e-10
9.63393e-11
8.90929e-11
8.21525e-11
7.55294e-11
6.92327e-11
6.32696e-11
5.76448e-11
5.23612e-11
4.74194e-11
4.28183e-11
3.85544e-11
3.46226e-11
3.10163e-11
2.77267e-11
2.47441e-11
2.20571e-11
1.96533e-11
1.75193e-11
1.56409e-11
1.4003e-11
1.25901e-11
1.13864e-11
1.03756e-11
9.54148e-12
8.86771e-12
8.33805e-12
7.93641e-12
7.647e-12
7.45437e-12
7.34348e-12
7.29981e-12
7.30939e-12
7.35893e-12
7.43584e-12
7.52838e-12
7.62566e-12
7.7178e-12
7.79595e-12
7.85242e-12
7.88068e-12
7.87547e-12
7.83281e-12
7.75e-12
7.62564e-12
7.45957e-12
7.25285e-12
7.0076e-12
6.72694e-12
6.41482e-12
6.07589e-12
5.71531e-12
5.33855e-12
4.95127e-12
4.55906e-12
4.16736e-12
3.78125e-12
3.40536e-12
3.04374e-12
2.69984e-12
2.37642e-12
2.07553e-12
1.79857e-12
1.54628e-12
1.31882e-12
1.11581e-12
9.36432e-13
7.795e-13
6.43555e-13
5.26938e-13
4.27871e-13
3.44528e-13
2.75086e-13
2.17783e-13
1.7095e-13
1.3304e-13
1.02646e-13
7.85105e-14
5.95279e-14
4.47406e-14
3.33312e-14
2.46122e-14
1.80129e-14
1.30656e-14
9.39231e-15
6.69109e-15
4.72374e-15
3.30463e-15
2.29083e-15
1.57354e-15
1.07093e-15
7.22132e-16
4.82399e-16
3.19188e-16
2.09093e-16
1.3545e-16
8.65033e-17
5.40108e-17
3.21973e-17
1.69629e-17
5.2807e-18
2.87072e-15
8.67275e-15
1.46585e-14
2.09557e-14
2.76981e-14
3.50279e-14
4.30985e-14
5.20769e-14
6.21469e-14
7.35121e-14
8.63996e-14
1.01063e-13
1.17788e-13
1.36896e-13
1.58746e-13
1.83747e-13
2.12358e-13
2.45096e-13
2.82543e-13
3.25356e-13
3.74274e-13
4.30127e-13
4.93847e-13
5.66478e-13
6.49191e-13
7.43296e-13
8.50255e-13
9.71699e-13
1.10944e-12
1.26551e-12
1.44213e-12
1.6418e-12
1.86725e-12
2.12153e-12
2.40796e-12
2.73023e-12
3.09236e-12
3.49878e-12
3.95431e-12
4.46421e-12
5.03421e-12
5.67054e-12
6.37993e-12
7.16967e-12
8.04758e-12
9.02212e-12
1.01023e-11
1.12978e-11
1.26189e-11
1.40765e-11
1.56821e-11
1.74481e-11
1.93872e-11
2.15129e-11
2.38392e-11
2.63806e-11
2.91523e-11
3.21697e-11
3.54488e-11
3.90056e-11
4.28566e-11
4.70182e-11
5.15069e-11
5.6339e-11
6.15304e-11
6.70966e-11
7.30526e-11
7.94124e-11
8.61891e-11
9.33946e-11
1.01039e-10
1.09132e-10
1.1768e-10
1.26688e-10
1.36159e-10
1.46093e-10
1.56488e-10
1.67339e-10
1.78637e-10
1.90371e-10
2.02527e-10
2.15087e-10
2.28029e-10
2.41328e-10
2.54957e-10
2.68884e-10
2.83073e-10
2.97486e-10
3.12082e-10
3.26816e-10
3.4164e-10
3.56506e-10
3.71362e-10
3.86153e-10
4.00824e-10
4.1532e-10
4.29582e-10
4.43553e-10
4.57175e-10
4.70393e-10
4.83149e-10
4.95389e-10
5.07059e-10
5.1811e-10
5.28492e-10
5.38159e-10
5.4707e-10
5.55186e-10
5.62471e-10
5.68894e-10
5.74428e-10
5.7905e-10
5.82742e-10
5.85488e-10
5.87281e-10
5.88115e-10
5.87988e-10
5.86905e-10
5.84873e-10
5.81903e-10
5.78013e-10
5.73221e-10
5.6755e-10
5.61026e-10
5.5368e-10
5.45542e-10
5.36649e-10
5.27038e-10
5.16747e-10
5.0582e-10
4.94297e-10
4.82225e-10
4.69649e-10
4.56615e-10
4.43171e-10
4.29366e-10
4.15248e-10
4.00865e-10
3.86267e-10
3.71501e-10
3.56617e-10
3.41662e-10
3.26683e-10
3.11725e-10
2.96834e-10
2.82054e-10
2.67428e-10
2.52995e-10