/*--------------------------------*- C++ -*----------------------------------*\
| =========                 |                                                 |
| \\      /  F ield         | OpenFOAM: The Open Source CFD Toolbox           |
|  \\    /   O peration     | Version:  v2012                                 |
|   \\  /    A nd           | Website:  www.openfoam.com                      |
|    \\/     M anipulation  |                                                 |
\*---------------------------------------------------------------------------*/
FoamFile
{
    version     2.0;
    format      ascii;
    class       volScalarField;
    location    "19.9";
    object      W;
}
// * * * * * * * * * * * * * * * * * * * * * * * * * * * * * * * * * * * * * //

dimensions      [0 0 -1 0 0 0 0];


internalField   nonuniform List<scalar> 
65536
(
2.53631e-14
7.6307e-14
1.27911e-13
1.80628e-13
2.34923e-13
2.91274e-13
3.50174e-13
4.12137e-13
4.77702e-13
5.47436e-13
6.2194e-13
7.01852e-13
7.87855e-13
8.80675e-13
9.81095e-13
1.08996e-12
1.20816e-12
1.33669e-12
1.47658e-12
1.62899e-12
1.79514e-12
1.97636e-12
2.17408e-12
2.38987e-12
2.62541e-12
2.8825e-12
3.16313e-12
3.46941e-12
3.80364e-12
4.1683e-12
4.56605e-12
4.99979e-12
5.47262e-12
5.98787e-12
6.54915e-12
7.16031e-12
7.82552e-12
8.54923e-12
9.3362e-12
1.01915e-11
1.11207e-11
1.21296e-11
1.32244e-11
1.44117e-11
1.56986e-11
1.70927e-11
1.86019e-11
2.02345e-11
2.19997e-11
2.39068e-11
2.59657e-11
2.8187e-11
3.05816e-11
3.31612e-11
3.59378e-11
3.8924e-11
4.21329e-11
4.55783e-11
4.92743e-11
5.32355e-11
5.74771e-11
6.20144e-11
6.68635e-11
7.20404e-11
7.75617e-11
8.34439e-11
8.97038e-11
9.63582e-11
1.03424e-10
1.10917e-10
1.18854e-10
1.2725e-10
1.36121e-10
1.45481e-10
1.55343e-10
1.6572e-10
1.76622e-10
1.8806e-10
2.00041e-10
2.12571e-10
2.25653e-10
2.3929e-10
2.53479e-10
2.68216e-10
2.83495e-10
2.99304e-10
3.1563e-10
3.32454e-10
3.49756e-10
3.67508e-10
3.8568e-10
4.04239e-10
4.23144e-10
4.42352e-10
4.61815e-10
4.81479e-10
5.01287e-10
5.21177e-10
5.41083e-10
5.60934e-10
5.80656e-10
6.00172e-10
6.194e-10
6.38258e-10
6.5666e-10
6.74518e-10
6.91745e-10
7.08252e-10
7.2395e-10
7.38754e-10
7.52577e-10
7.65337e-10
7.76955e-10
7.87356e-10
7.9647e-10
8.04234e-10
8.10589e-10
8.15485e-10
8.18879e-10
8.20739e-10
8.21038e-10
8.1976e-10
8.16901e-10
8.12464e-10
8.06462e-10
7.98921e-10
7.89873e-10
7.79363e-10
7.67443e-10
7.54176e-10
7.39632e-10
7.23889e-10
7.07032e-10
6.89153e-10
6.70347e-10
6.50715e-10
6.30362e-10
6.09394e-10
5.87918e-10
5.66042e-10
5.43872e-10
5.21515e-10
4.99072e-10
4.76643e-10
4.54321e-10
4.32198e-10
4.10355e-10
3.88872e-10
3.67819e-10
3.4726e-10
3.27252e-10
3.07846e-10
2.89083e-10
2.70998e-10
2.5362e-10
2.3697e-10
2.21062e-10
2.05905e-10
1.91503e-10
1.77852e-10
1.64945e-10
1.5277e-10
1.41312e-10
1.30552e-10
1.20469e-10
1.11037e-10
1.02232e-10
9.40254e-11
8.63896e-11
7.92954e-11
7.27137e-11
6.66153e-11
6.09712e-11
5.57532e-11
5.09336e-11
4.64859e-11
4.23844e-11
3.86048e-11
3.51239e-11
3.19197e-11
2.89719e-11
2.62611e-11
2.37695e-11
2.14806e-11
1.93789e-11
1.74504e-11
1.56821e-11
1.40622e-11
1.25796e-11
1.12245e-11
9.98776e-12
8.86093e-12
7.83635e-12
6.90695e-12
6.06616e-12
5.3079e-12
4.62644e-12
4.01643e-12
3.47278e-12
2.99065e-12
2.56541e-12
2.1926e-12
1.86794e-12
1.58728e-12
1.34659e-12
1.142e-12
9.69766e-13
8.26286e-13
7.0811e-13
6.11946e-13
5.34682e-13
4.7339e-13
4.25349e-13
3.88052e-13
3.59222e-13
3.36824e-13
3.19071e-13
3.04432e-13
2.91633e-13
2.79649e-13
2.67702e-13
2.55244e-13
2.41935e-13
2.27624e-13
2.12316e-13
1.96144e-13
1.79334e-13
1.62176e-13
1.44989e-13
1.28099e-13
1.11809e-13
9.63859e-14
8.20473e-14
6.89514e-14
5.71977e-14
4.68278e-14
3.78321e-14
3.01574e-14
2.37166e-14
1.83986e-14
1.40782e-14
1.06242e-14
7.90643e-15
5.80178e-15
4.19753e-15
2.99387e-15
2.10488e-15
1.45853e-15
9.95846e-16
6.6966e-16
4.43008e-16
2.8747e-16
1.8152e-16
1.08983e-16
5.76401e-17
1.79722e-17
8.55713e-14
2.57453e-13
4.31575e-13
6.09478e-13
7.92737e-13
9.82972e-13
1.18186e-12
1.39114e-12
1.61266e-12
1.84833e-12
2.10019e-12
2.37043e-12
2.66135e-12
2.97544e-12
3.31536e-12
3.68396e-12
4.08434e-12
4.51981e-12
4.99397e-12
5.51069e-12
6.07418e-12
6.68896e-12
7.35995e-12
8.09246e-12
8.89224e-12
9.7655e-12
1.0719e-11
1.17599e-11
1.28962e-11
1.41362e-11
1.54893e-11
1.69651e-11
1.85744e-11
2.03286e-11
2.224e-11
2.43219e-11
2.65885e-11
2.90551e-11
3.17381e-11
3.46549e-11
3.78244e-11
4.12665e-11
4.50027e-11
4.90558e-11
5.345e-11
5.8211e-11
6.33664e-11
6.8945e-11
7.49776e-11
8.14966e-11
8.85362e-11
9.61324e-11
1.04323e-10
1.13148e-10
1.22648e-10
1.32867e-10
1.43851e-10
1.55645e-10
1.68299e-10
1.81863e-10
1.96388e-10
2.11928e-10
2.28537e-10
2.4627e-10
2.65183e-10
2.85334e-10
3.06779e-10
3.29575e-10
3.5378e-10
3.79449e-10
4.06636e-10
4.35395e-10
4.65778e-10
4.9783e-10
5.31599e-10
5.67124e-10
6.04441e-10
6.43582e-10
6.84571e-10
7.27426e-10
7.72157e-10
8.18765e-10
8.67244e-10
9.17576e-10
9.69732e-10
1.02367e-09
1.07934e-09
1.13668e-09
1.19561e-09
1.25602e-09
1.31783e-09
1.38089e-09
1.44507e-09
1.51022e-09
1.57617e-09
1.64272e-09
1.70968e-09
1.77683e-09
1.84393e-09
1.91075e-09
1.97702e-09
2.04248e-09
2.10684e-09
2.16982e-09
2.23113e-09
2.29046e-09
2.34752e-09
2.402e-09
2.4536e-09
2.50204e-09
2.54702e-09
2.58827e-09
2.62553e-09
2.65855e-09
2.6871e-09
2.71097e-09
2.72999e-09
2.74398e-09
2.75283e-09
2.75642e-09
2.7547e-09
2.74763e-09
2.73519e-09
2.71743e-09
2.69442e-09
2.66624e-09
2.63303e-09
2.59497e-09
2.55224e-09
2.50508e-09
2.45373e-09
2.39848e-09
2.33963e-09
2.2775e-09
2.21242e-09
2.14474e-09
2.07483e-09
2.00305e-09
1.92976e-09
1.85532e-09
1.78011e-09
1.70447e-09
1.62874e-09
1.55324e-09
1.47831e-09
1.40421e-09
1.33123e-09
1.25963e-09
1.18961e-09
1.1214e-09
1.05516e-09
9.91056e-10
9.29211e-10
8.69729e-10
8.12694e-10
7.58162e-10
7.0617e-10
6.56736e-10
6.09857e-10
5.65514e-10
5.23672e-10
4.84282e-10
4.47285e-10
4.12608e-10
3.80174e-10
3.49896e-10
3.21681e-10
2.95436e-10
2.71061e-10
2.48456e-10
2.27523e-10
2.08162e-10
1.90275e-10
1.73767e-10
1.58547e-10
1.44525e-10
1.31616e-10
1.19741e-10
1.08821e-10
9.87861e-11
8.95683e-11
8.11048e-11
7.33374e-11
6.62122e-11
5.96793e-11
5.3693e-11
4.82114e-11
4.31961e-11
3.86119e-11
3.44269e-11
3.06117e-11
2.71395e-11
2.39857e-11
2.11278e-11
1.85448e-11
1.62174e-11
1.41276e-11
1.22584e-11
1.05938e-11
9.11862e-12
7.81838e-12
6.67917e-12
5.68766e-12
4.83095e-12
4.09663e-12
3.47273e-12
2.94771e-12
2.51049e-12
2.15048e-12
1.85761e-12
1.62234e-12
1.43574e-12
1.28949e-12
1.17596e-12
1.0882e-12
1.02002e-12
9.65989e-13
9.2145e-13
8.82529e-13
8.46117e-13
8.09851e-13
7.72063e-13
7.31724e-13
6.88371e-13
6.42019e-13
5.93065e-13
5.42196e-13
4.90284e-13
4.38296e-13
3.87212e-13
3.3795e-13
2.91316e-13
2.47965e-13
2.08375e-13
1.72846e-13
1.41502e-13
1.14314e-13
9.11194e-14
7.16555e-14
5.55859e-14
4.25314e-14
3.20951e-14
2.38841e-14
1.75257e-14
1.26792e-14
9.04311e-15
6.3577e-15
4.40529e-15
3.00774e-15
2.02251e-15
1.33795e-15
8.68183e-16
5.48195e-16
3.29127e-16
1.74071e-16
5.42761e-17
1.77033e-13
5.32645e-13
8.92944e-13
1.26115e-12
1.64055e-12
2.03453e-12
2.4466e-12
2.88041e-12
3.33979e-12
3.82879e-12
4.35168e-12
4.91301e-12
5.51766e-12
6.17083e-12
6.8781e-12
7.64551e-12
8.47953e-12
9.38716e-12
1.0376e-11
1.14542e-11
1.26305e-11
1.39147e-11
1.53171e-11
1.68488e-11
1.85221e-11
2.035e-11
2.23469e-11
2.45282e-11
2.69103e-11
2.95115e-11
3.23509e-11
3.54497e-11
3.88303e-11
4.25172e-11
4.65365e-11
5.09163e-11
5.56871e-11
6.08812e-11
6.65335e-11
7.26814e-11
7.93649e-11
8.66266e-11
9.45121e-11
1.0307e-10
1.12352e-10
1.22414e-10
1.33313e-10
1.45112e-10
1.57875e-10
1.71673e-10
1.86579e-10
2.02669e-10
2.20023e-10
2.38728e-10
2.58871e-10
2.80544e-10
3.03844e-10
3.28872e-10
3.5573e-10
3.84525e-10
4.15368e-10
4.48371e-10
4.83651e-10
5.21323e-10
5.61508e-10
6.04325e-10
6.49895e-10
6.98339e-10
7.49774e-10
8.04319e-10
8.62088e-10
9.2319e-10
9.87731e-10
1.05581e-09
1.12752e-09
1.20293e-09
1.28213e-09
1.36517e-09
1.45209e-09
1.54293e-09
1.6377e-09
1.73639e-09
1.83898e-09
1.94541e-09
2.05562e-09
2.1695e-09
2.28694e-09
2.40777e-09
2.5318e-09
2.65884e-09
2.78861e-09
2.92086e-09
3.05525e-09
3.19145e-09
3.32907e-09
3.46769e-09
3.60688e-09
3.74614e-09
3.88498e-09
4.02285e-09
4.1592e-09
4.29344e-09
4.42497e-09
4.55318e-09
4.67744e-09
4.7971e-09
4.91155e-09
5.02014e-09
5.12225e-09
5.21728e-09
5.30463e-09
5.38374e-09
5.45409e-09
5.51519e-09
5.56659e-09
5.60788e-09
5.63873e-09
5.65886e-09
5.66803e-09
5.66609e-09
5.65296e-09
5.62862e-09
5.59312e-09
5.5466e-09
5.48926e-09
5.42136e-09
5.34326e-09
5.25537e-09
5.15815e-09
5.05213e-09
4.93791e-09
4.81611e-09
4.68741e-09
4.55251e-09
4.41215e-09
4.26708e-09
4.11808e-09
3.96591e-09
3.81134e-09
3.65513e-09
3.49803e-09
3.34076e-09
3.184e-09
3.02842e-09
2.87462e-09
2.7232e-09
2.57466e-09
2.4295e-09
2.28813e-09
2.15093e-09
2.01822e-09
1.89028e-09
1.76731e-09
1.64949e-09
1.53694e-09
1.42973e-09
1.32788e-09
1.23141e-09
1.14025e-09
1.05433e-09
9.73549e-10
8.97775e-10
8.26856e-10
7.60621e-10
6.98885e-10
6.41454e-10
5.88123e-10
5.38683e-10
4.92924e-10
4.50633e-10
4.116e-10
3.75618e-10
3.42486e-10
3.12009e-10
2.83999e-10
2.58277e-10
2.34672e-10
2.13023e-10
1.93179e-10
1.74997e-10
1.58346e-10
1.43101e-10
1.2915e-10
1.16388e-10
1.04719e-10
9.40542e-11
8.43136e-11
7.54237e-11
6.73176e-11
5.99342e-11
5.32183e-11
4.71191e-11
4.15906e-11
3.65903e-11
3.20795e-11
2.80222e-11
2.43851e-11
2.1137e-11
1.82487e-11
1.56926e-11
1.34426e-11
1.14737e-11
9.76188e-12
8.28439e-12
7.01918e-12
5.94515e-12
5.04205e-12
4.2905e-12
3.67204e-12
3.16917e-12
2.76537e-12
2.44519e-12
2.1943e-12
1.99955e-12
1.84902e-12
1.73208e-12
1.63943e-12
1.56311e-12
1.49649e-12
1.43426e-12
1.37238e-12
1.30801e-12
1.2394e-12
1.16573e-12
1.08704e-12
1.00399e-12
9.17731e-13
8.29744e-13
7.41659e-13
6.55132e-13
5.71714e-13
4.92765e-13
4.19388e-13
3.52391e-13
2.92275e-13
2.3925e-13
1.93262e-13
1.54035e-13
1.21121e-13
9.395e-14
7.18797e-14
5.42378e-14
4.03589e-14
2.96125e-14
2.14222e-14
1.52778e-14
1.07403e-14
7.4416e-15
5.08053e-15
3.41616e-15
2.25978e-15
1.46629e-15
9.25823e-16
5.55833e-16
2.93968e-16
9.16603e-17
3.30528e-13
9.94511e-13
1.66736e-12
2.35516e-12
3.06413e-12
3.80069e-12
4.57146e-12
5.38336e-12
6.24366e-12
7.16001e-12
8.14055e-12
9.19392e-12
1.03294e-11
1.15568e-11
1.28869e-11
1.4331e-11
1.59017e-11
1.76121e-11
1.94769e-11
2.15116e-11
2.37331e-11
2.61599e-11
2.88117e-11
3.17101e-11
3.48784e-11
3.83419e-11
4.21279e-11
4.6266e-11
5.07883e-11
5.57293e-11
6.11265e-11
6.70202e-11
7.3454e-11
8.04749e-11
8.81334e-11
9.64841e-11
1.05585e-10
1.155e-10
1.26296e-10
1.38045e-10
1.50825e-10
1.64719e-10
1.79814e-10
1.96205e-10
2.13994e-10
2.33285e-10
2.54194e-10
2.76839e-10
3.0135e-10
3.27859e-10
3.56508e-10
3.87448e-10
4.20835e-10
4.56834e-10
4.95616e-10
5.37362e-10
5.82257e-10
6.30497e-10
6.82282e-10
7.37819e-10
7.97322e-10
8.61008e-10
9.29101e-10
1.00183e-09
1.07942e-09
1.1621e-09
1.25011e-09
1.34368e-09
1.44303e-09
1.54838e-09
1.65996e-09
1.77797e-09
1.9026e-09
2.03404e-09
2.17245e-09
2.31799e-09
2.47078e-09
2.63092e-09
2.79847e-09
2.97349e-09
3.15598e-09
3.3459e-09
3.54318e-09
3.7477e-09
3.95928e-09
4.17772e-09
4.40274e-09
4.63399e-09
4.8711e-09
5.1136e-09
5.36098e-09
5.61266e-09
5.86798e-09
6.12623e-09
6.38665e-09
6.64837e-09
6.91051e-09
7.17209e-09
7.43211e-09
7.6895e-09
7.94313e-09
8.19187e-09
8.43454e-09
8.66992e-09
8.89681e-09
9.11397e-09
9.32019e-09
9.51426e-09
9.69501e-09
9.86131e-09
1.00121e-08
1.01462e-08
1.02629e-08
1.03611e-08
1.04402e-08
1.04994e-08
1.05383e-08
1.05563e-08
1.05531e-08
1.05286e-08
1.04828e-08
1.04157e-08
1.03276e-08
1.02189e-08
1.009e-08
9.94181e-09
9.77493e-09
9.59033e-09
9.38904e-09
9.17218e-09
8.94098e-09
8.69675e-09
8.44084e-09
8.17468e-09
7.89973e-09
7.61746e-09
7.32938e-09
7.03694e-09
6.74163e-09
6.44486e-09
6.14802e-09
5.85242e-09
5.55932e-09
5.26989e-09
4.98523e-09
4.70633e-09
4.43409e-09
4.16931e-09
3.91269e-09
3.66483e-09
3.42622e-09
3.19725e-09
2.97822e-09
2.76933e-09
2.57071e-09
2.38239e-09
2.20434e-09
2.03644e-09
1.87852e-09
1.73038e-09
1.59173e-09
1.46226e-09
1.34165e-09
1.22951e-09
1.12547e-09
1.02912e-09
9.40051e-10
8.57855e-10
7.8212e-10
7.12437e-10
6.48409e-10
5.89647e-10
5.35778e-10
4.86443e-10
4.41298e-10
4.00019e-10
3.623e-10
3.27852e-10
2.96408e-10
2.67717e-10
2.41547e-10
2.17684e-10
1.95932e-10
1.7611e-10
1.58054e-10
1.41612e-10
1.26649e-10
1.1304e-10
1.00673e-10
8.94448e-11
7.92636e-11
7.00452e-11
6.17133e-11
5.41983e-11
4.74368e-11
4.13702e-11
3.59448e-11
3.11106e-11
2.6821e-11
2.30324e-11
1.97037e-11
1.67958e-11
1.42719e-11
1.20967e-11
1.02366e-11
8.65959e-12
7.33504e-12
6.23389e-12
5.32853e-12
4.59293e-12
4.00259e-12
3.5347e-12
3.16817e-12
2.8837e-12
2.66384e-12
2.49307e-12
2.35782e-12
2.24651e-12
2.14949e-12
2.05907e-12
1.96939e-12
1.87633e-12
1.77731e-12
1.67119e-12
1.55796e-12
1.43858e-12
1.31468e-12
1.18839e-12
1.06201e-12
9.37932e-13
8.18355e-13
7.05224e-13
6.0011e-13
5.04161e-13
4.18089e-13
3.42188e-13
2.76373e-13
2.20247e-13
1.73162e-13
1.343e-13
1.02739e-13
7.75138e-14
5.76725e-14
4.23115e-14
3.06058e-14
2.18253e-14
1.53418e-14
1.0629e-14
7.25603e-15
4.87861e-15
3.22696e-15
2.09373e-15
1.32192e-15
7.93602e-16
4.19706e-16
1.30864e-16
5.93889e-13
1.787e-12
2.99628e-12
4.2328e-12
5.50792e-12
6.83329e-12
8.22104e-12
9.68378e-12
1.12348e-11
1.28881e-11
1.46585e-11
1.65619e-11
1.86152e-11
2.08366e-11
2.32457e-11
2.58635e-11
2.87127e-11
3.18181e-11
3.52062e-11
3.89058e-11
4.29482e-11
4.73672e-11
5.21997e-11
5.74855e-11
6.32677e-11
6.95931e-11
7.65125e-11
8.40808e-11
9.23574e-11
1.01407e-10
1.11298e-10
1.22107e-10
1.33915e-10
1.46809e-10
1.60883e-10
1.76239e-10
1.92987e-10
2.11244e-10
2.31136e-10
2.52798e-10
2.76375e-10
3.02023e-10
3.29907e-10
3.60203e-10
3.931e-10
4.28799e-10
4.67512e-10
5.09465e-10
5.54897e-10
6.04061e-10
6.57223e-10
7.14663e-10
7.76678e-10
8.43575e-10
9.15679e-10
9.93326e-10
1.07687e-09
1.16667e-09
1.2631e-09
1.36657e-09
1.47745e-09
1.59617e-09
1.72314e-09
1.85879e-09
2.00354e-09
2.15782e-09
2.32206e-09
2.4967e-09
2.68215e-09
2.87882e-09
3.0871e-09
3.30739e-09
3.54002e-09
3.78534e-09
4.04363e-09
4.31515e-09
4.60012e-09
4.89871e-09
5.211e-09
5.53706e-09
5.87686e-09
6.23029e-09
6.59717e-09
6.97724e-09
7.37012e-09
7.77535e-09
8.19236e-09
8.62046e-09
9.05885e-09
9.50662e-09
9.96273e-09
1.0426e-08
1.08952e-08
1.13688e-08
1.18455e-08
1.23234e-08
1.28008e-08
1.32759e-08
1.37468e-08
1.42113e-08
1.46673e-08
1.51127e-08
1.55452e-08
1.59625e-08
1.63624e-08
1.67426e-08
1.71007e-08
1.74347e-08
1.77423e-08
1.80215e-08
1.82704e-08
1.84871e-08
1.867e-08
1.88177e-08
1.89288e-08
1.90023e-08
1.90374e-08
1.90333e-08
1.89899e-08
1.89069e-08
1.87846e-08
1.86235e-08
1.84242e-08
1.81877e-08
1.79153e-08
1.76084e-08
1.72688e-08
1.68983e-08
1.64992e-08
1.60737e-08
1.56242e-08
1.51533e-08
1.46637e-08
1.41582e-08
1.36395e-08
1.31103e-08
1.25735e-08
1.20319e-08
1.14879e-08
1.09444e-08
1.04036e-08
9.86798e-09
9.33966e-09
8.82065e-09
8.3128e-09
7.81775e-09
7.33696e-09
6.8717e-09
6.42304e-09
5.99186e-09
5.57883e-09
5.18448e-09
4.80913e-09
4.45296e-09
4.11599e-09
3.79809e-09
3.49903e-09
3.21844e-09
2.95588e-09
2.71079e-09
2.48258e-09
2.27057e-09
2.07405e-09
1.89228e-09
1.72449e-09
1.5699e-09
1.42772e-09
1.29719e-09
1.17752e-09
1.06799e-09
9.67852e-10
8.76424e-10
7.93034e-10
7.1705e-10
6.47871e-10
5.84936e-10
5.27715e-10
4.75718e-10
4.28488e-10
3.85604e-10
3.46677e-10
3.11352e-10
2.79302e-10
2.50232e-10
2.23871e-10
1.99975e-10
1.78321e-10
1.5871e-10
1.40962e-10
1.24913e-10
1.10416e-10
9.7339e-11
8.55616e-11
7.49755e-11
6.54817e-11
5.69904e-11
4.9419e-11
4.26917e-11
3.67382e-11
3.14932e-11
2.68957e-11
2.28885e-11
1.94175e-11
1.64317e-11
1.38831e-11
1.17257e-11
9.91634e-12
8.4141e-12
7.18037e-12
6.1789e-12
5.37582e-12
4.73969e-12
4.24155e-12
3.85501e-12
3.55631e-12
3.32434e-12
3.14071e-12
2.98975e-12
2.85845e-12
2.73643e-12
2.61579e-12
2.49097e-12
2.35852e-12
2.21684e-12
2.06593e-12
1.90701e-12
1.74226e-12
1.57445e-12
1.40666e-12
1.242e-12
1.0834e-12
9.33412e-13
7.94112e-13
6.67004e-13
5.53019e-13
4.52534e-13
3.65429e-13
2.91164e-13
2.28879e-13
1.77484e-13
1.35752e-13
1.02407e-13
7.61825e-14
5.58837e-14
4.0418e-14
2.88189e-14
2.02555e-14
1.40316e-14
9.57793e-15
6.43913e-15
4.25879e-15
2.76298e-15
1.74434e-15
1.04714e-15
5.53768e-16
1.72661e-16
1.04335e-12
3.13957e-12
5.26461e-12
7.43824e-12
9.68067e-12
1.20127e-11
1.4456e-11
1.70331e-11
1.97678e-11
2.2685e-11
2.58113e-11
2.91753e-11
3.28072e-11
3.67398e-11
4.10081e-11
4.565e-11
5.07066e-11
5.62221e-11
6.22447e-11
6.88263e-11
7.60234e-11
8.38973e-11
9.25145e-11
1.01947e-10
1.12274e-10
1.23579e-10
1.35955e-10
1.49501e-10
1.64327e-10
1.80548e-10
1.98292e-10
2.17696e-10
2.38908e-10
2.62087e-10
2.87406e-10
3.15051e-10
3.45222e-10
3.78133e-10
4.14017e-10
4.53121e-10
4.9571e-10
5.4207e-10
5.92503e-10
6.47336e-10
7.06915e-10
7.71606e-10
8.41804e-10
9.17922e-10
1.0004e-09
1.08971e-09
1.18633e-09
1.29078e-09
1.40362e-09
1.5254e-09
1.65673e-09
1.79822e-09
1.95052e-09
2.11431e-09
2.29028e-09
2.47914e-09
2.68164e-09
2.89852e-09
3.13055e-09
3.3785e-09
3.64318e-09
3.92535e-09
4.22582e-09
4.54536e-09
4.88473e-09
5.24468e-09
5.62592e-09
6.02914e-09
6.45497e-09
6.90399e-09
7.37672e-09
7.8736e-09
8.39499e-09
8.94115e-09
9.51223e-09
1.01083e-08
1.07291e-08
1.13746e-08
1.20443e-08
1.27375e-08
1.34537e-08
1.41917e-08
1.49505e-08
1.57288e-08
1.65248e-08
1.73369e-08
1.8163e-08
1.90008e-08
1.98479e-08
2.07015e-08
2.15588e-08
2.24165e-08
2.32714e-08
2.41198e-08
2.49581e-08
2.57824e-08
2.65888e-08
2.7373e-08
2.81311e-08
2.88587e-08
2.95517e-08
3.02059e-08
3.08172e-08
3.13816e-08
3.18954e-08
3.23548e-08
3.27565e-08
3.30973e-08
3.33745e-08
3.35856e-08
3.37285e-08
3.38017e-08
3.38039e-08
3.37343e-08
3.35929e-08
3.33797e-08
3.30955e-08
3.27417e-08
3.23199e-08
3.18324e-08
3.12819e-08
3.06715e-08
3.00047e-08
2.92854e-08
2.85178e-08
2.77065e-08
2.68562e-08
2.59718e-08
2.50584e-08
2.41211e-08
2.31651e-08
2.21954e-08
2.12172e-08
2.02354e-08
1.92546e-08
1.82796e-08
1.73145e-08
1.63633e-08
1.54297e-08
1.45171e-08
1.36285e-08
1.27666e-08
1.19336e-08
1.11314e-08
1.03617e-08
9.62553e-09
8.92387e-09
8.25725e-09
7.62591e-09
7.02981e-09
6.46868e-09
5.94199e-09
5.44901e-09
4.98885e-09
4.56046e-09
4.16266e-09
3.79416e-09
3.45362e-09
3.13961e-09
2.85071e-09
2.58543e-09
2.34232e-09
2.11994e-09
1.91686e-09
1.7317e-09
1.56313e-09
1.40986e-09
1.27068e-09
1.14443e-09
1.03001e-09
9.26412e-10
8.32675e-10
7.47912e-10
6.71304e-10
6.02094e-10
5.39589e-10
4.83153e-10
4.32209e-10
3.86229e-10
3.44738e-10
3.07304e-10
2.73538e-10
2.43091e-10
2.15648e-10
1.90926e-10
1.68672e-10
1.48659e-10
1.30682e-10
1.14558e-10
1.00122e-10
8.72246e-11
7.57305e-11
6.55169e-11
5.64717e-11
4.84917e-11
4.1482e-11
3.53547e-11
3.00279e-11
2.54251e-11
2.14747e-11
1.81096e-11
1.52666e-11
1.28863e-11
1.09131e-11
9.29476e-12
7.98257e-12
6.93129e-12
6.09913e-12
5.4478e-12
4.94254e-12
4.55215e-12
4.24906e-12
4.00928e-12
3.81243e-12
3.64163e-12
3.48343e-12
3.3276e-12
3.16695e-12
2.997e-12
2.81567e-12
2.6229e-12
2.4202e-12
2.21032e-12
1.99675e-12
1.78338e-12
1.57415e-12
1.37273e-12
1.18237e-12
1.00565e-12
8.44463e-13
6.9998e-13
5.72657e-13
4.62324e-13
3.68288e-13
2.89445e-13
2.24404e-13
1.71607e-13
1.29431e-13
9.62693e-14
7.06066e-14
5.10582e-14
3.64002e-14
2.55804e-14
1.7718e-14
1.20927e-14
8.12882e-15
5.37575e-15
3.48729e-15
2.20142e-15
1.32143e-15
6.9879e-16
2.17873e-16
1.79997e-12
5.41659e-12
9.08371e-12
1.28359e-11
1.67087e-11
2.07385e-11
2.49632e-11
2.94224e-11
3.41578e-11
3.92134e-11
4.4636e-11
5.04757e-11
5.6786e-11
6.36244e-11
7.10531e-11
7.91391e-11
8.79548e-11
9.75787e-11
1.08096e-10
1.19599e-10
1.32188e-10
1.45973e-10
1.6107e-10
1.77609e-10
1.9573e-10
2.15583e-10
2.37334e-10
2.6116e-10
2.87255e-10
3.15829e-10
3.47109e-10
3.81339e-10
4.18786e-10
4.59737e-10
5.04501e-10
5.53412e-10
6.06831e-10
6.65143e-10
7.28766e-10
7.98147e-10
8.73764e-10
9.56132e-10
1.0458e-09
1.14335e-09
1.24942e-09
1.36466e-09
1.4898e-09
1.62557e-09
1.77278e-09
1.93227e-09
2.10493e-09
2.2917e-09
2.49357e-09
2.71156e-09
2.94677e-09
3.20031e-09
3.47337e-09
3.76717e-09
4.08295e-09
4.42204e-09
4.78575e-09
5.17546e-09
5.59256e-09
6.03845e-09
6.51456e-09
7.02232e-09
7.56314e-09
8.13843e-09
8.74956e-09
9.39787e-09
1.00846e-08
1.08111e-08
1.15783e-08
1.23874e-08
1.32391e-08
1.41344e-08
1.50737e-08
1.60575e-08
1.70859e-08
1.81591e-08
1.92766e-08
2.04379e-08
2.16422e-08
2.28884e-08
2.41748e-08
2.54998e-08
2.68609e-08
2.82557e-08
2.96811e-08
3.11336e-08
3.26094e-08
3.41042e-08
3.56133e-08
3.71317e-08
3.86537e-08
4.01735e-08
4.16849e-08
4.31813e-08
4.46557e-08
4.61011e-08
4.75101e-08
4.88752e-08
5.01889e-08
5.14433e-08
5.26311e-08
5.37446e-08
5.47765e-08
5.57198e-08
5.65678e-08
5.7314e-08
5.79526e-08
5.84783e-08
5.88865e-08
5.91731e-08
5.9335e-08
5.93697e-08
5.92757e-08
5.90522e-08
5.86994e-08
5.82185e-08
5.76116e-08
5.68816e-08
5.60324e-08
5.50687e-08
5.3996e-08
5.28207e-08
5.15496e-08
5.01905e-08
4.87515e-08
4.72411e-08
4.56684e-08
4.40425e-08
4.23727e-08
4.06686e-08
3.89395e-08
3.71946e-08
3.54429e-08
3.36932e-08
3.19537e-08
3.02323e-08
2.85364e-08
2.68726e-08
2.52472e-08
2.36656e-08
2.21326e-08
2.06524e-08
1.92284e-08
1.78636e-08
1.656e-08
1.53191e-08
1.4142e-08
1.30289e-08
1.19798e-08
1.09941e-08
1.00707e-08
9.20819e-09
8.40493e-09
7.6589e-09
6.96786e-09
6.32944e-09
5.74109e-09
5.20018e-09
4.70403e-09
4.24994e-09
3.8352e-09
3.45716e-09
3.1132e-09
2.80081e-09
2.51753e-09
2.26104e-09
2.02914e-09
1.81971e-09
1.63079e-09
1.46055e-09
1.30726e-09
1.16934e-09
1.04533e-09
9.33884e-10
8.33762e-10
7.43846e-10
6.63113e-10
5.90639e-10
5.25587e-10
4.67205e-10
4.14815e-10
3.6781e-10
3.25645e-10
2.87834e-10
2.53943e-10
2.23584e-10
1.96411e-10
1.72116e-10
1.50422e-10
1.31082e-10
1.13875e-10
9.8601e-11
8.50803e-11
7.31495e-11
6.26601e-11
5.34763e-11
4.54731e-11
3.85357e-11
3.25576e-11
2.74398e-11
2.30904e-11
1.94237e-11
1.63599e-11
1.38243e-11
1.1748e-11
1.00667e-11
8.72105e-12
7.65677e-12
6.82423e-12
6.17863e-12
5.67993e-12
5.29287e-12
4.98689e-12
4.73607e-12
4.51904e-12
4.31877e-12
4.12235e-12
3.92067e-12
3.70805e-12
3.48184e-12
3.24188e-12
2.99002e-12
2.72959e-12
2.46488e-12
2.20067e-12
1.9418e-12
1.69277e-12
1.45755e-12
1.23932e-12
1.04038e-12
8.62127e-13
7.05116e-13
5.69113e-13
4.53241e-13
3.56124e-13
2.76036e-13
2.11045e-13
1.59141e-13
1.18344e-13
8.67798e-14
6.27421e-14
4.47219e-14
3.14234e-14
2.17617e-14
1.48504e-14
9.98118e-15
6.59992e-15
4.28092e-15
2.70215e-15
1.62186e-15
8.5761e-16
2.67383e-16
3.05333e-12
9.18875e-12
1.54112e-11
2.17803e-11
2.8357e-11
3.52043e-11
4.23877e-11
4.99753e-11
5.80392e-11
6.66555e-11
7.59053e-11
8.58752e-11
9.6658e-11
1.08354e-10
1.2107e-10
1.34924e-10
1.50041e-10
1.66559e-10
1.84625e-10
2.04401e-10
2.26063e-10
2.498e-10
2.7582e-10
3.04348e-10
3.35629e-10
3.69928e-10
4.07535e-10
4.48762e-10
4.9395e-10
5.43469e-10
5.97718e-10
6.5713e-10
7.22175e-10
7.93358e-10
8.71228e-10
9.56376e-10
1.04944e-09
1.1511e-09
1.2621e-09
1.38323e-09
1.51535e-09
1.65936e-09
1.81624e-09
1.98704e-09
2.17287e-09
2.37492e-09
2.59444e-09
2.83279e-09
3.09139e-09
3.37174e-09
3.67543e-09
4.00413e-09
4.35962e-09
4.74374e-09
5.15842e-09
5.60569e-09
6.08765e-09
6.60648e-09
7.16444e-09
7.76385e-09
8.40711e-09
9.09666e-09
9.83499e-09
1.06246e-08
1.14681e-08
1.2368e-08
1.33268e-08
1.4347e-08
1.54311e-08
1.65814e-08
1.78002e-08
1.90898e-08
2.04519e-08
2.18884e-08
2.3401e-08
2.49907e-08
2.66587e-08
2.84057e-08
3.02317e-08
3.21368e-08
3.41203e-08
3.6181e-08
3.83173e-08
4.05269e-08
4.2807e-08
4.5154e-08
4.75637e-08
5.00311e-08
5.25507e-08
5.51159e-08
5.77197e-08
6.0354e-08
6.30101e-08
6.56787e-08
6.83496e-08
7.10119e-08
7.36542e-08
7.62644e-08
7.883e-08
8.13381e-08
8.37753e-08
8.6128e-08
8.83826e-08
9.05254e-08
9.25428e-08
9.44215e-08
9.61485e-08
9.77115e-08
9.90986e-08
1.00299e-07
1.01303e-07
1.02101e-07
1.02685e-07
1.0305e-07
1.03191e-07
1.03103e-07
1.02785e-07
1.02236e-07
1.01459e-07
1.00457e-07
9.92328e-08
9.77946e-08
9.61497e-08
9.43079e-08
9.22799e-08
9.00781e-08
8.77159e-08
8.52076e-08
8.25686e-08
7.98149e-08
7.6963e-08
7.40297e-08
7.1032e-08
6.79869e-08
6.49112e-08
6.18211e-08
5.87324e-08
5.56605e-08
5.26195e-08
4.96228e-08
4.66827e-08
4.38106e-08
4.10163e-08
3.83089e-08
3.56958e-08
3.31835e-08
3.0777e-08
2.84804e-08
2.62963e-08
2.42266e-08
2.2272e-08
2.0432e-08
1.87057e-08
1.70911e-08
1.55857e-08
1.41862e-08
1.2889e-08
1.169e-08
1.05848e-08
9.56879e-09
8.63714e-09
7.78493e-09
7.00722e-09
6.29909e-09
5.65571e-09
5.07232e-09
4.54436e-09
4.0674e-09
3.63724e-09
3.24988e-09
2.90156e-09
2.58875e-09
2.30815e-09
2.05669e-09
1.83156e-09
1.63014e-09
1.45006e-09
1.28914e-09
1.1454e-09
1.01704e-09
9.02449e-10
8.00161e-10
7.08866e-10
6.27389e-10
5.54678e-10
4.89798e-10
4.31913e-10
3.80281e-10
3.34242e-10
2.93213e-10
2.56671e-10
2.24158e-10
1.95262e-10
1.69619e-10
1.46904e-10
1.26826e-10
1.09125e-10
9.35654e-11
7.99363e-11
6.80452e-11
5.77174e-11
4.87928e-11
4.11249e-11
3.45786e-11
2.90293e-11
2.4362e-11
2.04703e-11
1.7256e-11
1.46281e-11
1.25032e-11
1.08046e-11
9.4624e-12
8.41313e-12
7.59981e-12
6.97176e-12
6.48448e-12
6.09961e-12
5.78467e-12
5.51296e-12
5.26325e-12
5.01946e-12
4.77025e-12
4.50854e-12
4.23096e-12
3.93723e-12
3.62953e-12
3.31186e-12
2.98938e-12
2.66785e-12
2.35308e-12
2.05054e-12
1.76497e-12
1.50019e-12
1.25895e-12
1.04292e-12
8.52719e-13
6.88042e-13
5.47801e-13
4.30305e-13
3.33447e-13
2.54874e-13
1.92145e-13
1.42854e-13
1.0473e-13
7.57046e-14
5.39509e-14
3.79009e-14
2.6243e-14
1.79055e-14
1.20328e-14
7.95537e-15
5.15945e-15
3.25631e-15
1.95429e-15
1.03332e-15
3.22155e-16
5.09521e-12
1.53344e-11
2.57212e-11
3.63565e-11
4.7344e-11
5.87904e-11
7.08066e-11
8.35087e-11
9.70191e-11
1.11467e-10
1.26992e-10
1.4374e-10
1.6187e-10
1.81553e-10
2.02973e-10
2.2633e-10
2.51839e-10
2.79736e-10
3.10276e-10
3.43735e-10
3.80415e-10
4.20644e-10
4.64779e-10
5.13207e-10
5.66351e-10
6.24671e-10
6.88667e-10
7.58879e-10
8.35899e-10
9.20366e-10
1.01297e-09
1.11447e-09
1.22568e-09
1.34748e-09
1.48082e-09
1.62673e-09
1.78633e-09
1.9608e-09
2.15144e-09
2.35964e-09
2.58688e-09
2.83475e-09
3.10498e-09
3.39939e-09
3.71993e-09
4.06869e-09
4.44788e-09
4.85987e-09
5.30716e-09
5.79238e-09
6.31836e-09
6.88803e-09
7.5045e-09
8.17103e-09
8.89104e-09
9.66809e-09
1.05059e-08
1.14083e-08
1.23793e-08
1.3423e-08
1.45436e-08
1.57455e-08
1.7033e-08
1.84107e-08
1.98829e-08
2.14542e-08
2.3129e-08
2.49119e-08
2.6807e-08
2.88185e-08
3.09505e-08
3.32067e-08
3.55905e-08
3.81051e-08
4.0753e-08
4.35366e-08
4.64574e-08
4.95165e-08
5.27142e-08
5.60501e-08
5.9523e-08
6.31306e-08
6.68698e-08
7.07363e-08
7.47248e-08
7.88288e-08
8.30405e-08
8.73507e-08
9.17492e-08
9.62242e-08
1.00763e-07
1.0535e-07
1.0997e-07
1.14607e-07
1.19241e-07
1.23854e-07
1.28424e-07
1.32929e-07
1.37348e-07
1.41657e-07
1.45833e-07
1.4985e-07
1.53686e-07
1.57315e-07
1.60714e-07
1.63859e-07
1.66728e-07
1.69299e-07
1.71552e-07
1.73469e-07
1.75032e-07
1.76226e-07
1.7704e-07
1.77462e-07
1.77486e-07
1.77106e-07
1.76322e-07
1.75133e-07
1.73545e-07
1.71564e-07
1.692e-07
1.66467e-07
1.6338e-07
1.59958e-07
1.56221e-07
1.52193e-07
1.47899e-07
1.43366e-07
1.38621e-07
1.33693e-07
1.28613e-07
1.23411e-07
1.18117e-07
1.12761e-07
1.07372e-07
1.0198e-07
9.66105e-08
9.12905e-08
8.60441e-08
8.08938e-08
7.586e-08
7.09613e-08
6.62137e-08
6.16314e-08
5.72261e-08
5.30073e-08
4.89823e-08
4.51565e-08
4.15332e-08
3.81137e-08
3.48977e-08
3.18834e-08
2.90674e-08
2.6445e-08
2.40108e-08
2.1758e-08
1.96794e-08
1.7767e-08
1.60124e-08
1.44071e-08
1.29421e-08
1.16085e-08
1.03975e-08
9.30037e-09
8.30856e-09
7.41384e-09
6.6083e-09
5.88439e-09
5.23496e-09
4.65327e-09
4.13302e-09
3.66835e-09
3.25381e-09
2.88438e-09
2.55547e-09
2.26285e-09
2.00271e-09
1.77156e-09
1.56626e-09
1.38397e-09
1.22215e-09
1.07853e-09
9.51074e-10
8.37961e-10
7.37585e-10
6.48513e-10
5.69481e-10
4.99367e-10
4.37181e-10
3.8205e-10
3.33201e-10
2.89952e-10
2.51701e-10
2.17916e-10
1.88125e-10
1.61907e-10
1.38891e-10
1.18741e-10
1.01159e-10
8.58755e-11
7.26477e-11
6.1255e-11
5.14968e-11
4.31901e-11
3.61677e-11
3.0276e-11
2.53747e-11
2.13346e-11
1.80376e-11
1.53759e-11
1.32509e-11
1.15734e-11
1.0263e-11
9.24779e-12
8.46415e-12
7.85645e-12
7.37691e-12
6.98524e-12
6.64838e-12
6.34014e-12
6.04066e-12
5.73597e-12
5.41732e-12
5.08046e-12
4.72495e-12
4.35331e-12
3.97027e-12
3.58197e-12
3.19525e-12
2.81705e-12
2.45385e-12
2.11128e-12
1.79386e-12
1.50485e-12
1.24618e-12
1.01857e-12
8.21597e-13
6.5393e-13
5.13516e-13
3.97814e-13
3.03991e-13
2.29113e-13
1.70296e-13
1.24819e-13
9.0205e-14
6.42707e-14
4.51416e-14
3.12505e-14
2.13183e-14
1.43238e-14
9.46859e-15
6.13998e-15
3.87468e-15
2.32517e-15
1.22933e-15
3.8325e-16
8.36639e-12
2.51806e-11
4.22411e-11
5.97164e-11
7.77795e-11
9.66085e-11
1.16389e-10
1.37315e-10
1.59591e-10
1.83434e-10
2.09077e-10
2.36766e-10
2.66768e-10
2.9937e-10
3.34883e-10
3.73642e-10
4.16013e-10
4.62391e-10
5.13207e-10
5.68931e-10
6.30072e-10
6.97185e-10
7.70878e-10
8.51808e-10
9.40693e-10
1.03832e-09
1.14553e-09
1.26325e-09
1.39249e-09
1.53434e-09
1.68998e-09
1.86071e-09
2.04791e-09
2.2531e-09
2.4779e-09
2.7241e-09
2.99358e-09
3.28842e-09
3.61082e-09
3.96318e-09
4.34805e-09
4.76819e-09
5.22655e-09
5.7263e-09
6.27079e-09
6.86365e-09
7.5087e-09
8.21003e-09
8.97198e-09
9.79913e-09
1.06964e-08
1.16688e-08
1.27218e-08
1.3861e-08
1.50924e-08
1.64223e-08
1.7857e-08
1.94032e-08
2.1068e-08
2.28584e-08
2.47819e-08
2.6846e-08
2.90584e-08
3.14267e-08
3.39589e-08
3.66629e-08
3.95463e-08
4.2617e-08
4.58824e-08
4.93497e-08
5.3026e-08
5.69177e-08
6.10309e-08
6.53708e-08
6.9942e-08
7.47484e-08
7.97927e-08
8.50766e-08
9.06005e-08
9.63635e-08
1.02363e-07
1.08595e-07
1.15054e-07
1.21732e-07
1.2862e-07
1.35705e-07
1.42974e-07
1.5041e-07
1.57994e-07
1.65707e-07
1.73523e-07
1.81418e-07
1.89364e-07
1.97329e-07
2.05281e-07
2.13186e-07
2.21006e-07
2.28704e-07
2.3624e-07
2.43572e-07
2.50659e-07
2.57459e-07
2.63928e-07
2.70025e-07
2.75708e-07
2.80936e-07
2.85671e-07
2.89875e-07
2.93513e-07
2.96555e-07
2.98972e-07
3.00739e-07
3.01836e-07
3.02248e-07
3.01962e-07
3.00973e-07
2.99281e-07
2.96888e-07
2.93806e-07
2.90048e-07
2.85636e-07
2.80595e-07
2.74954e-07
2.68749e-07
2.62017e-07
2.54803e-07
2.4715e-07
2.39108e-07
2.30728e-07
2.2206e-07
2.13159e-07
2.04077e-07
1.94868e-07
1.85584e-07
1.76276e-07
1.66993e-07
1.57782e-07
1.48686e-07
1.39747e-07
1.31001e-07
1.22483e-07
1.14222e-07
1.06244e-07
9.85705e-08
9.12201e-08
8.42065e-08
7.75399e-08