/*--------------------------------*- C++ -*----------------------------------*\
| =========                 |                                                 |
| \\      /  F ield         | OpenFOAM: The Open Source CFD Toolbox           |
|  \\    /   O peration     | Version:  v2012                                 |
|   \\  /    A nd           | Website:  www.openfoam.com                      |
|    \\/     M anipulation  |                                                 |
\*---------------------------------------------------------------------------*/
FoamFile
{
    version     2.0;
    format      ascii;
    class       volVectorField;
    location    "9.5";
    object      U;
}
// * * * * * * * * * * * * * * * * * * * * * * * * * * * * * * * * * * * * * //

dimensions      [0 1 -1 0 0 0 0];


internalField   nonuniform List<vector> 
65536
(
(0.000751534 -0.000751539 0)
(0.00225461 -0.00075155 0)
(0.00375772 -0.000751571 0)
(0.00526089 -0.000751602 0)
(0.00676412 -0.000751644 0)
(0.00826745 -0.000751694 0)
(0.00977089 -0.000751752 0)
(0.0112745 -0.000751818 0)
(0.0127782 -0.000751891 0)
(0.014282 -0.000751968 0)
(0.015786 -0.000752048 0)
(0.0172902 -0.000752131 0)
(0.0187945 -0.000752214 0)
(0.0202991 -0.000752295 0)
(0.0218037 -0.000752372 0)
(0.0233086 -0.000752443 0)
(0.0248135 -0.000752506 0)
(0.0263186 -0.000752558 0)
(0.0278238 -0.000752596 0)
(0.029329 -0.000752618 0)
(0.0308343 -0.00075262 0)
(0.0323395 -0.000752599 0)
(0.0338447 -0.000752552 0)
(0.0353497 -0.000752475 0)
(0.0368546 -0.000752365 0)
(0.0383592 -0.000752219 0)
(0.0398635 -0.000752031 0)
(0.0413674 -0.000751798 0)
(0.0428708 -0.000751516 0)
(0.0443735 -0.00075118 0)
(0.0458755 -0.000750785 0)
(0.0473767 -0.000750328 0)
(0.0488769 -0.000749803 0)
(0.050376 -0.000749205 0)
(0.0518738 -0.00074853 0)
(0.0533702 -0.000747771 0)
(0.054865 -0.000746924 0)
(0.056358 -0.000745984 0)
(0.057849 -0.000744945 0)
(0.0593379 -0.0007438 0)
(0.0608243 -0.000742545 0)
(0.0623082 -0.000741174 0)
(0.0637891 -0.000739681 0)
(0.065267 -0.000738059 0)
(0.0667415 -0.000736304 0)
(0.0682124 -0.000734408 0)
(0.0696793 -0.000732366 0)
(0.071142 -0.000730171 0)
(0.0726001 -0.000727818 0)
(0.0740534 -0.000725301 0)
(0.0755015 -0.000722612 0)
(0.076944 -0.000719747 0)
(0.0783807 -0.000716699 0)
(0.079811 -0.000713462 0)
(0.0812347 -0.00071003 0)
(0.0826514 -0.000706398 0)
(0.0840605 -0.000702558 0)
(0.0854618 -0.000698507 0)
(0.0868548 -0.000694237 0)
(0.088239 -0.000689745 0)
(0.089614 -0.000685024 0)
(0.0909793 -0.00068007 0)
(0.0923345 -0.000674877 0)
(0.093679 -0.000669441 0)
(0.0950125 -0.000663758 0)
(0.0963343 -0.000657823 0)
(0.097644 -0.000651632 0)
(0.0989411 -0.000645182 0)
(0.100225 -0.00063847 0)
(0.101495 -0.000631492 0)
(0.102751 -0.000624246 0)
(0.103992 -0.000616729 0)
(0.105218 -0.000608939 0)
(0.106429 -0.000600875 0)
(0.107622 -0.000592536 0)
(0.108799 -0.00058392 0)
(0.109958 -0.000575028 0)
(0.111099 -0.000565859 0)
(0.112222 -0.000556414 0)
(0.113325 -0.000546693 0)
(0.114409 -0.000536699 0)
(0.115472 -0.000526433 0)
(0.116515 -0.000515896 0)
(0.117536 -0.000505093 0)
(0.118536 -0.000494026 0)
(0.119513 -0.000482699 0)
(0.120467 -0.000471116 0)
(0.121397 -0.000459282 0)
(0.122304 -0.000447201 0)
(0.123186 -0.000434881 0)
(0.124044 -0.000422325 0)
(0.124876 -0.000409543 0)
(0.125682 -0.000396539 0)
(0.126462 -0.000383321 0)
(0.127216 -0.000369898 0)
(0.127942 -0.000356277 0)
(0.128641 -0.000342468 0)
(0.129312 -0.000328478 0)
(0.129955 -0.000314318 0)
(0.130569 -0.000299997 0)
(0.131155 -0.000285524 0)
(0.131712 -0.000270911 0)
(0.132239 -0.000256168 0)
(0.132736 -0.000241305 0)
(0.133204 -0.000226333 0)
(0.133642 -0.000211264 0)
(0.134049 -0.000196109 0)
(0.134426 -0.00018088 0)
(0.134773 -0.000165587 0)
(0.135089 -0.000150243 0)
(0.135374 -0.000134859 0)
(0.135628 -0.000119447 0)
(0.135852 -0.000104019 0)
(0.136044 -8.85859e-05 0)
(0.136206 -7.31603e-05 0)
(0.136337 -5.77534e-05 0)
(0.136437 -4.23766e-05 0)
(0.136506 -2.70414e-05 0)
(0.136545 -1.17588e-05 0)
(0.136553 3.46001e-06 0)
(0.136531 1.86044e-05 0)
(0.136479 3.36637e-05 0)
(0.136397 4.86275e-05 0)
(0.136284 6.34859e-05 0)
(0.136142 7.8229e-05 0)
(0.135971 9.28473e-05 0)
(0.135771 0.000107332 0)
(0.135542 0.000121673 0)
(0.135284 0.000135863 0)
(0.134998 0.000149894 0)
(0.134684 0.000163758 0)
(0.134343 0.000177446 0)
(0.133974 0.000190954 0)
(0.133579 0.000204272 0)
(0.133157 0.000217396 0)
(0.132709 0.00023032 0)
(0.132236 0.000243038 0)
(0.131737 0.000255544 0)
(0.131213 0.000267835 0)
(0.130665 0.000279906 0)
(0.130093 0.000291753 0)
(0.129498 0.000303373 0)
(0.12888 0.000314762 0)
(0.128239 0.000325918 0)
(0.127576 0.000336839 0)
(0.126891 0.000347522 0)
(0.126185 0.000357966 0)
(0.125459 0.00036817 0)
(0.124712 0.000378132 0)
(0.123946 0.000387853 0)
(0.123161 0.000397332 0)
(0.122357 0.000406569 0)
(0.121534 0.000415564 0)
(0.120694 0.000424318 0)
(0.119837 0.000432832 0)
(0.118963 0.000441107 0)
(0.118072 0.000449144 0)
(0.117166 0.000456946 0)
(0.116244 0.000464514 0)
(0.115308 0.00047185 0)
(0.114356 0.000478957 0)
(0.113391 0.000485838 0)
(0.112413 0.000492494 0)
(0.111421 0.000498929 0)
(0.110417 0.000505146 0)
(0.1094 0.000511147 0)
(0.108372 0.000516938 0)
(0.107333 0.00052252 0)
(0.106282 0.000527897 0)
(0.105221 0.000533074 0)
(0.104149 0.000538053 0)
(0.103068 0.000542839 0)
(0.101978 0.000547436 0)
(0.100878 0.000551848 0)
(0.0997703 0.000556078 0)
(0.0986539 0.00056013 0)
(0.0975296 0.00056401 0)
(0.0963977 0.00056772 0)
(0.0952586 0.000571266 0)
(0.0941125 0.000574651 0)
(0.0929598 0.000577879 0)
(0.0918008 0.000580955 0)
(0.0906358 0.000583884 0)
(0.0894651 0.000586668 0)
(0.088289 0.000589312 0)
(0.0871078 0.000591821 0)
(0.0859216 0.000594199 0)
(0.0847308 0.000596449 0)
(0.0835357 0.000598576 0)
(0.0823364 0.000600583 0)
(0.0811332 0.000602476 0)
(0.0799264 0.000604257 0)
(0.0787161 0.00060593 0)
(0.0775026 0.0006075 0)
(0.076286 0.00060897 0)
(0.0750666 0.000610344 0)
(0.0738445 0.000611625 0)
(0.07262 0.000612818 0)
(0.0713932 0.000613925 0)
(0.0701642 0.000614951 0)
(0.0689333 0.000615898 0)
(0.0677006 0.00061677 0)
(0.0664662 0.00061757 0)
(0.0652302 0.000618302 0)
(0.0639929 0.000618969 0)
(0.0627543 0.000619573 0)
(0.0615145 0.000620118 0)
(0.0602738 0.000620607 0)
(0.0590321 0.000621043 0)
(0.0577895 0.000621428 0)
(0.0565463 0.000621765 0)
(0.0553024 0.000622057 0)
(0.054058 0.000622307 0)
(0.0528132 0.000622517 0)
(0.0515679 0.000622689 0)
(0.0503224 0.000622826 0)
(0.0490766 0.00062293 0)
(0.0478306 0.000623004 0)
(0.0465846 0.00062305 0)
(0.0453384 0.000623069 0)
(0.0440923 0.000623065 0)
(0.0428461 0.000623038 0)
(0.0416001 0.000622991 0)
(0.0403541 0.000622926 0)
(0.0391084 0.000622845 0)
(0.0378628 0.000622749 0)
(0.0366174 0.00062264 0)
(0.0353722 0.000622519 0)
(0.0341273 0.000622389 0)
(0.0328826 0.000622251 0)
(0.0316383 0.000622105 0)
(0.0303942 0.000621955 0)
(0.0291504 0.0006218 0)
(0.027907 0.000621642 0)
(0.0266639 0.000621482 0)
(0.0254211 0.000621322 0)
(0.0241786 0.000621163 0)
(0.0229364 0.000621005 0)
(0.0216946 0.00062085 0)
(0.020453 0.000620699 0)
(0.0192118 0.000620551 0)
(0.0179708 0.00062041 0)
(0.0167302 0.000620274 0)
(0.0154897 0.000620145 0)
(0.0142496 0.000620023 0)
(0.0130097 0.000619909 0)
(0.01177 0.000619804 0)
(0.0105305 0.000619708 0)
(0.00929114 0.000619622 0)
(0.00805198 0.000619545 0)
(0.00681297 0.000619479 0)
(0.00557408 0.000619423 0)
(0.00433529 0.000619378 0)
(0.00309658 0.000619345 0)
(0.00185793 0.000619322 0)
(0.000619305 0.000619311 0)
(0.000751523 -0.00225461 0)
(0.00225458 -0.00225464 0)
(0.00375767 -0.0022547 0)
(0.00526081 -0.0022548 0)
(0.00676403 -0.00225492 0)
(0.00826734 -0.00225507 0)
(0.00977077 -0.00225525 0)
(0.0112743 -0.00225545 0)
(0.012778 -0.00225567 0)
(0.0142819 -0.0022559 0)
(0.0157859 -0.00225614 0)
(0.01729 -0.00225639 0)
(0.0187944 -0.00225664 0)
(0.0202989 -0.00225689 0)
(0.0218036 -0.00225712 0)
(0.0233084 -0.00225734 0)
(0.0248134 -0.00225753 0)
(0.0263185 -0.00225769 0)
(0.0278237 -0.0022578 0)
(0.029329 -0.00225787 0)
(0.0308343 -0.00225788 0)
(0.0323396 -0.00225782 0)
(0.0338448 -0.00225768 0)
(0.0353499 -0.00225746 0)
(0.0368549 -0.00225713 0)
(0.0383596 -0.0022567 0)
(0.0398639 -0.00225614 0)
(0.0413679 -0.00225544 0)
(0.0428714 -0.0022546 0)
(0.0443742 -0.0022536 0)
(0.0458764 -0.00225242 0)
(0.0473777 -0.00225105 0)
(0.048878 -0.00224948 0)
(0.0503773 -0.00224769 0)
(0.0518752 -0.00224567 0)
(0.0533718 -0.0022434 0)
(0.0548668 -0.00224087 0)
(0.05636 -0.00223805 0)
(0.0578512 -0.00223494 0)
(0.0593403 -0.00223151 0)
(0.060827 -0.00222775 0)
(0.062311 -0.00222364 0)
(0.0637923 -0.00221917 0)
(0.0652704 -0.00221431 0)
(0.0667452 -0.00220905 0)
(0.0682163 -0.00220337 0)
(0.0696835 -0.00219725 0)
(0.0711465 -0.00219067 0)
(0.072605 -0.00218362 0)
(0.0740586 -0.00217607 0)
(0.075507 -0.00216801 0)
(0.0769499 -0.00215942 0)
(0.078387 -0.00215028 0)
(0.0798177 -0.00214058 0)
(0.0812418 -0.00213029 0)
(0.0826588 -0.0021194 0)
(0.0840684 -0.00210788 0)
(0.0854701 -0.00209574 0)
(0.0868635 -0.00208293 0)
(0.0882482 -0.00206946 0)
(0.0896236 -0.0020553 0)
(0.0909894 -0.00204044 0)
(0.0923451 -0.00202487 0)
(0.0936901 -0.00200857 0)
(0.0950241 -0.00199152 0)
(0.0963464 -0.00197372 0)
(0.0976566 -0.00195515 0)
(0.0989542 -0.00193581 0)
(0.100239 -0.00191567 0)
(0.101509 -0.00189474 0)
(0.102766 -0.001873 0)
(0.104008 -0.00185046 0)
(0.105234 -0.00182709 0)
(0.106445 -0.0018029 0)
(0.107639 -0.00177788 0)
(0.108816 -0.00175204 0)
(0.109976 -0.00172536 0)
(0.111118 -0.00169785 0)
(0.112241 -0.00166951 0)
(0.113345 -0.00164035 0)
(0.114429 -0.00161037 0)
(0.115493 -0.00157957 0)
(0.116536 -0.00154795 0)
(0.117558 -0.00151554 0)
(0.118558 -0.00148234 0)
(0.119535 -0.00144835 0)
(0.12049 -0.0014136 0)
(0.121421 -0.00137809 0)
(0.122328 -0.00134184 0)
(0.123211 -0.00130487 0)
(0.124069 -0.0012672 0)
(0.124902 -0.00122885 0)
(0.125708 -0.00118983 0)
(0.126489 -0.00115017 0)
(0.127243 -0.00110989 0)
(0.127969 -0.00106902 0)
(0.128669 -0.00102758 0)
(0.12934 -0.000985603 0)
(0.129983 -0.000943112 0)
(0.130598 -0.000900139 0)
(0.131184 -0.000856712 0)
(0.131741 -0.000812862 0)
(0.132268 -0.000768621 0)
(0.132766 -0.000724021 0)
(0.133234 -0.000679095 0)
(0.133672 -0.000633877 0)
(0.13408 -0.000588401 0)
(0.134457 -0.0005427 0)
(0.134804 -0.00049681 0)
(0.135119 -0.000450766 0)
(0.135405 -0.000404602 0)
(0.135659 -0.000358355 0)
(0.135883 -0.000312059 0)
(0.136075 -0.000265749 0)
(0.136237 -0.000219461 0)
(0.136368 -0.000173228 0)
(0.136468 -0.000127087 0)
(0.136537 -8.107e-05 0)
(0.136576 -3.52114e-05 0)
(0.136584 1.04559e-05 0)
(0.136561 5.58995e-05 0)
(0.136509 0.000101088 0)
(0.136426 0.000145989 0)
(0.136314 0.000190574 0)
(0.136172 0.000234813 0)
(0.136 0.000278677 0)
(0.1358 0.000322139 0)
(0.13557 0.000365172 0)
(0.135312 0.000407751 0)
(0.135026 0.000449851 0)
(0.134712 0.000491448 0)
(0.13437 0.000532522 0)
(0.134001 0.00057305 0)
(0.133605 0.000613012 0)
(0.133183 0.00065239 0)
(0.132735 0.000691166 0)
(0.132261 0.000729324 0)
(0.131762 0.000766848 0)
(0.131237 0.000803725 0)
(0.130689 0.000839942 0)
(0.130117 0.000875486 0)
(0.129521 0.000910348 0)
(0.128902 0.000944519 0)
(0.128261 0.00097799 0)
(0.127597 0.00101075 0)
(0.126912 0.0010428 0)
(0.126206 0.00107414 0)
(0.125479 0.00110475 0)
(0.124732 0.00113464 0)
(0.123965 0.0011638 0)
(0.123179 0.00119224 0)
(0.122375 0.00121995 0)
(0.121552 0.00124693 0)
(0.120711 0.00127319 0)
(0.119854 0.00129873 0)
(0.118979 0.00132356 0)
(0.118088 0.00134767 0)
(0.117181 0.00137107 0)
(0.116259 0.00139377 0)
(0.115322 0.00141578 0)
(0.11437 0.0014371 0)
(0.113405 0.00145774 0)
(0.112426 0.0014777 0)
(0.111434 0.001497 0)
(0.110429 0.00151565 0)
(0.109412 0.00153365 0)
(0.108383 0.00155102 0)
(0.107343 0.00156776 0)
(0.106292 0.00158389 0)
(0.105231 0.00159942 0)
(0.104159 0.00161435 0)
(0.103078 0.00162871 0)
(0.101987 0.00164249 0)
(0.100887 0.00165572 0)
(0.0997785 0.00166841 0)
(0.0986618 0.00168056 0)
(0.0975371 0.0016922 0)
(0.0964049 0.00170332 0)
(0.0952654 0.00171396 0)
(0.094119 0.00172411 0)
(0.092966 0.00173379 0)
(0.0918067 0.00174301 0)
(0.0906415 0.00175179 0)
(0.0894705 0.00176014 0)
(0.0882941 0.00176807 0)
(0.0871126 0.00177559 0)
(0.0859262 0.00178272 0)
(0.0847351 0.00178947 0)
(0.0835398 0.00179584 0)
(0.0823403 0.00180186 0)
(0.0811369 0.00180754 0)
(0.0799298 0.00181288 0)
(0.0787193 0.00181789 0)
(0.0775056 0.0018226 0)
(0.0762888 0.001827 0)
(0.0750692 0.00183112 0)
(0.073847 0.00183496 0)
(0.0726223 0.00183854 0)
(0.0713953 0.00184185 0)
(0.0701662 0.00184493 0)
(0.0689351 0.00184777 0)
(0.0677022 0.00185038 0)
(0.0664676 0.00185278 0)
(0.0652316 0.00185497 0)
(0.0639941 0.00185697 0)
(0.0627554 0.00185878 0)
(0.0615155 0.00186041 0)
(0.0602746 0.00186187 0)
(0.0590328 0.00186318 0)
(0.0577902 0.00186433 0)
(0.0565469 0.00186534 0)
(0.0553029 0.00186621 0)
(0.0540585 0.00186696 0)
(0.0528135 0.00186759 0)
(0.0515682 0.0018681 0)
(0.0503226 0.00186851 0)
(0.0490767 0.00186882 0)
(0.0478307 0.00186904 0)
(0.0465846 0.00186917 0)
(0.0453384 0.00186923 0)
(0.0440922 0.00186921 0)
(0.042846 0.00186913 0)
(0.0415999 0.00186899 0)
(0.040354 0.00186879 0)
(0.0391082 0.00186855 0)
(0.0378625 0.00186826 0)
(0.0366171 0.00186793 0)
(0.0353719 0.00186757 0)
(0.034127 0.00186717 0)
(0.0328823 0.00186676 0)
(0.0316379 0.00186632 0)
(0.0303939 0.00186587 0)
(0.0291501 0.0018654 0)
(0.0279067 0.00186492 0)
(0.0266635 0.00186445 0)
(0.0254207 0.00186396 0)
(0.0241783 0.00186349 0)
(0.0229361 0.00186301 0)
(0.0216943 0.00186254 0)
(0.0204527 0.00186209 0)
(0.0192115 0.00186165 0)
(0.0179705 0.00186122 0)
(0.0167299 0.00186081 0)
(0.0154895 0.00186042 0)
(0.0142493 0.00186006 0)
(0.0130094 0.00185972 0)
(0.0117698 0.0018594 0)
(0.0105303 0.00185911 0)
(0.00929097 0.00185885 0)
(0.00805184 0.00185862 0)
(0.00681284 0.00185842 0)
(0.00557398 0.00185826 0)
(0.00433521 0.00185812 0)
(0.00309652 0.00185802 0)
(0.00185789 0.00185795 0)
(0.000619293 0.00185792 0)
(0.000751501 -0.00375764 0)
(0.00225452 -0.0037577 0)
(0.00375756 -0.0037578 0)
(0.00526067 -0.00375796 0)
(0.00676385 -0.00375817 0)
(0.00826712 -0.00375843 0)
(0.00977051 -0.00375873 0)
(0.011274 -0.00375906 0)
(0.0127777 -0.00375943 0)
(0.0142815 -0.00375982 0)
(0.0157855 -0.00376023 0)
(0.0172897 -0.00376065 0)
(0.0187941 -0.00376108 0)
(0.0202986 -0.00376149 0)
(0.0218033 -0.00376189 0)
(0.0233081 -0.00376226 0)
(0.0248132 -0.00376259 0)
(0.0263183 -0.00376286 0)
(0.0278236 -0.00376306 0)
(0.0293289 -0.00376319 0)
(0.0308343 -0.00376321 0)
(0.0323397 -0.00376312 0)
(0.033845 -0.00376291 0)
(0.0353503 -0.00376254 0)
(0.0368554 -0.00376201 0)
(0.0383602 -0.0037613 0)
(0.0398648 -0.00376038 0)
(0.0413689 -0.00375924 0)
(0.0428726 -0.00375785 0)
(0.0443757 -0.00375619 0)
(0.0458781 -0.00375424 0)
(0.0473796 -0.00375198 0)
(0.0488803 -0.00374938 0)
(0.0503798 -0.00374641 0)
(0.0518781 -0.00374306 0)
(0.053375 -0.0037393 0)
(0.0548703 -0.00373509 0)
(0.0563639 -0.00373041 0)
(0.0578556 -0.00372524 0)
(0.059345 -0.00371955 0)
(0.0608322 -0.00371331 0)
(0.0623167 -0.00370648 0)
(0.0637985 -0.00369904 0)
(0.0652771 -0.00369096 0)
(0.0667524 -0.00368222 0)
(0.0682242 -0.00367277 0)
(0.069692 -0.00366259 0)
(0.0711556 -0.00365165 0)
(0.0726147 -0.00363991 0)
(0.074069 -0.00362735 0)
(0.0755181 -0.00361394 0)
(0.0769618 -0.00359965 0)
(0.0783995 -0.00358444 0)
(0.079831 -0.00356828 0)
(0.0812559 -0.00355115 0)
(0.0826737 -0.00353302 0)
(0.0840842 -0.00351385 0)
(0.0854867 -0.00349362 0)
(0.086881 -0.0034723 0)
(0.0882666 -0.00344986 0)
(0.089643 -0.00342628 0)
(0.0910097 -0.00340154 0)
(0.0923663 -0.00337559 0)
(0.0937124 -0.00334844 0)
(0.0950473 -0.00332004 0)
(0.0963707 -0.00329039 0)
(0.0976819 -0.00325945 0)
(0.0989806 -0.00322722 0)
(0.100266 -0.00319367 0)
(0.101538 -0.0031588 0)
(0.102796 -0.00312258 0)
(0.104038 -0.003085 0)
(0.105266 -0.00304606 0)
(0.106478 -0.00300575 0)
(0.107673 -0.00296406 0)
(0.108851 -0.00292098 0)
(0.110012 -0.00287652 0)
(0.111155 -0.00283067 0)
(0.112279 -0.00278344 0)
(0.113384 -0.00273483 0)
(0.11447 -0.00268485 0)
(0.115535 -0.00263351 0)
(0.116579 -0.00258081 0)
(0.117602 -0.00252678 0)
(0.118603 -0.00247143 0)
(0.119581 -0.00241477 0)
(0.120537 -0.00235683 0)
(0.121469 -0.00229763 0)
(0.122377 -0.0022372 0)
(0.123261 -0.00217557 0)
(0.12412 -0.00211276 0)
(0.124953 -0.00204881 0)
(0.125761 -0.00198376 0)
(0.126542 -0.00191763 0)
(0.127297 -0.00185047 0)
(0.128024 -0.00178233 0)
(0.128724 -0.00171323 0)
(0.129396 -0.00164324 0)
(0.13004 -0.00157239 0)
(0.130656 -0.00150073 0)
(0.131242 -0.00142832 0)
(0.1318 -0.0013552 0)
(0.132328 -0.00128143 0)
(0.132826 -0.00120706 0)
(0.133294 -0.00113215 0)
(0.133733 -0.00105675 0)
(0.134141 -0.000980916 0)
(0.134518 -0.00090471 0)
(0.134865 -0.000828188 0)
(0.135181 -0.000751408 0)
(0.135466 -0.00067443 0)
(0.135721 -0.000597312 0)
(0.135944 -0.000520112 0)
(0.136137 -0.000442891 0)
(0.136299 -0.000365705 0)
(0.136429 -0.000288613 0)
(0.136529 -0.000211673 0)
(0.136598 -0.000134941 0)
(0.136637 -5.84728e-05 0)
(0.136645 1.76754e-05 0)
(0.136622 9.34501e-05 0)
(0.136569 0.000168798 0)
(0.136486 0.000243668 0)
(0.136373 0.000318008 0)
(0.136231 0.000391771 0)
(0.136059 0.000464909 0)
(0.135857 0.000537375 0)
(0.135627 0.000609125 0)
(0.135369 0.000680117 0)
(0.135082 0.000750309 0)
(0.134767 0.000819664 0)
(0.134425 0.000888143 0)
(0.134055 0.000955711 0)
(0.133658 0.00102234 0)
(0.133235 0.00108799 0)
(0.132786 0.00115263 0)
(0.132311 0.00121624 0)
(0.131811 0.0012788 0)
(0.131286 0.00134028 0)
(0.130737 0.00140065 0)
(0.130164 0.0014599 0)
(0.129567 0.00151802 0)
(0.128947 0.00157498 0)
(0.128305 0.00163077 0)
(0.127641 0.00168538 0)
(0.126954 0.0017388 0)
(0.126247 0.00179103 0)
(0.125519 0.00184206 0)
(0.124771 0.00189187 0)
(0.124004 0.00194048 0)
(0.123217 0.00198787 0)
(0.122411 0.00203405 0)
(0.121588 0.00207902 0)
(0.120746 0.00212279 0)
(0.119887 0.00216535 0)
(0.119012 0.00220672 0)
(0.11812 0.0022469 0)
(0.117212 0.0022859 0)
(0.116289 0.00232373 0)
(0.115351 0.0023604 0)
(0.114398 0.00239592 0)
(0.113432 0.00243031 0)
(0.112452 0.00246357 0)
(0.111459 0.00249573 0)
(0.110454 0.0025268 0)
(0.109436 0.00255679 0)
(0.108406 0.00258573 0)
(0.107365 0.00261362 0)
(0.106314 0.00264049 0)
(0.105251 0.00266635 0)
(0.104179 0.00269123 0)
(0.103096 0.00271514 0)
(0.102005 0.00273811 0)
(0.100904 0.00276014 0)
(0.0997951 0.00278127 0)
(0.0986777 0.00280151 0)
(0.0975523 0.00282089 0)
(0.0964194 0.00283942 0)
(0.0952793 0.00285713 0)
(0.0941323 0.00287403 0)
(0.0929787 0.00289015 0)
(0.0918188 0.00290551 0)
(0.0906529 0.00292013 0)
(0.0894814 0.00293403 0)
(0.0883044 0.00294724 0)
(0.0871224 0.00295976 0)
(0.0859354 0.00297163 0)
(0.0847439 0.00298286 0)
(0.083548 0.00299347 0)
(0.0823481 0.00300349 0)
(0.0811442 0.00301293 0)
(0.0799367 0.00302182 0)
(0.0787258 0.00303016 0)
(0.0775117 0.003038 0)
(0.0762945 0.00304533 0)
(0.0750745 0.00305218 0)
(0.0738519 0.00305857 0)
(0.0726269 0.00306451 0)
(0.0713995 0.00307003 0)
(0.0701701 0.00307514 0)
(0.0689387 0.00307986 0)
(0.0677056 0.0030842 0)
(0.0664707 0.00308819 0)
(0.0652344 0.00309183 0)
(0.0639967 0.00309515 0)
(0.0627577 0.00309816 0)
(0.0615176 0.00310087 0)
(0.0602765 0.0031033 0)
(0.0590345 0.00310546 0)
(0.0577917 0.00310737 0)
(0.0565482 0.00310905 0)
(0.055304 0.0031105 0)
(0.0540594 0.00311173 0)
(0.0528143 0.00311277 0)
(0.0515688 0.00311362 0)
(0.0503231 0.00311429 0)
(0.0490771 0.0031148 0)
(0.047831 0.00311516 0)
(0.0465847 0.00311538 0)
(0.0453384 0.00311546 0)
(0.0440921 0.00311543 0)
(0.0428459 0.00311529 0)
(0.0415997 0.00311504 0)
(0.0403537 0.00311471 0)
(0.0391078 0.00311429 0)
(0.0378621 0.00311381 0)
(0.0366166 0.00311325 0)
(0.0353714 0.00311264 0)
(0.0341264 0.00311198 0)
(0.0328818 0.00311128 0)
(0.0316374 0.00311055 0)
(0.0303933 0.00310979 0)
(0.0291495 0.00310901 0)
(0.027906 0.00310821 0)
(0.0266629 0.00310741 0)
(0.0254201 0.0031066 0)
(0.0241776 0.0031058 0)
(0.0229355 0.00310501 0)
(0.0216936 0.00310423 0)
(0.0204521 0.00310347 0)
(0.0192109 0.00310273 0)
(0.01797 0.00310201 0)
(0.0167294 0.00310133 0)
(0.015489 0.00310068 0)
(0.0142489 0.00310007 0)
(0.013009 0.0030995 0)
(0.0117694 0.00309897 0)
(0.0105299 0.00309849 0)
(0.00929065 0.00309805 0)
(0.00805155 0.00309767 0)
(0.0068126 0.00309734 0)
(0.00557378 0.00309706 0)
(0.00433505 0.00309683 0)
(0.00309641 0.00309666 0)
(0.00185782 0.00309655 0)
(0.000619271 0.0030965 0)
(0.000751468 -0.00526062 0)
(0.00225442 -0.0052607 0)
(0.0037574 -0.00526085 0)
(0.00526044 -0.00526108 0)
(0.00676356 -0.00526138 0)
(0.00826679 -0.00526174 0)
(0.00977013 -0.00526216 0)
(0.0112736 -0.00526264 0)
(0.0127772 -0.00526316 0)
(0.014281 -0.00526372 0)
(0.015785 -0.00526431 0)
(0.0172892 -0.00526491 0)
(0.0187935 -0.00526552 0)
(0.0202981 -0.00526612 0)
(0.0218028 -0.00526669 0)
(0.0233077 -0.00526722 0)
(0.0248128 -0.0052677 0)
(0.026318 -0.0052681 0)
(0.0278234 -0.0052684 0)
(0.0293288 -0.0052686 0)
(0.0308343 -0.00526865 0)
(0.0323399 -0.00526856 0)
(0.0338454 -0.00526828 0)
(0.0353508 -0.00526779 0)
(0.0368561 -0.00526708 0)
(0.0383612 -0.0052661 0)
(0.039866 -0.00526485 0)
(0.0413704 -0.00526327 0)
(0.0428744 -0.00526136 0)
(0.0443778 -0.00525907 0)
(0.0458806 -0.00525638 0)
(0.0473825 -0.00525324 0)
(0.0488836 -0.00524964 0)
(0.0503836 -0.00524552 0)
(0.0518823 -0.00524087 0)
(0.0533798 -0.00523563 0)
(0.0548756 -0.00522978 0)
(0.0563698 -0.00522327 0)
(0.057862 -0.00521608 0)
(0.0593522 -0.00520815 0)
(0.06084 -0.00519944 0)
(0.0623253 -0.00518993 0)
(0.0638078 -0.00517956 0)
(0.0652872 -0.00516829 0)
(0.0667633 -0.00515608 0)
(0.0682359 -0.0051429 0)
(0.0697046 -0.00512869 0)
(0.0711692 -0.00511341 0)
(0.0726293 -0.00509703 0)
(0.0740846 -0.00507949 0)
(0.0755348 -0.00506076 0)
(0.0769795 -0.00504079 0)
(0.0784183 -0.00501954 0)
(0.079851 -0.00499696 0)
(0.081277 -0.00497302 0)
(0.0826961 -0.00494767 0)
(0.0841078 -0.00492088 0)
(0.0855117 -0.00489259 0)
(0.0869073 -0.00486278 0)
(0.0882942 -0.00483141 0)
(0.089672 -0.00479843 0)
(0.0910401 -0.00476382 0)
(0.0923982 -0.00472754 0)
(0.0937457 -0.00468955 0)
(0.0950822 -0.00464982 0)
(0.096407 -0.00460833 0)
(0.0977198 -0.00456505 0)
(0.0990201 -0.00451995 0)
(0.100307 -0.004473 0)
(0.101581 -0.0044242 0)
(0.10284 -0.0043735 0)
(0.104084 -0.00432091 0)
(0.105314 -0.00426641 0)
(0.106527 -0.00420998 0)
(0.107724 -0.00415162 0)
(0.108904 -0.00409131 0)
(0.110067 -0.00402907 0)
(0.111211 -0.00396488 0)
(0.112337 -0.00389875 0)
(0.113444 -0.00383069 0)
(0.114531 -0.0037607 0)
(0.115597 -0.0036888 0)
(0.116643 -0.00361501 0)
(0.117667 -0.00353934 0)
(0.11867 -0.00346182 0)
(0.11965 -0.00338247 0)
(0.120607 -0.00330132 0)
(0.121541 -0.00321841 0)
(0.122451 -0.00313377 0)
(0.123336 -0.00304744 0)
(0.124196 -0.00295947 0)
(0.125031 -0.00286989 0)
(0.12584 -0.00277876 0)
(0.126622 -0.00268612 0)
(0.127378 -0.00259205 0)
(0.128107 -0.00249658 0)
(0.128808 -0.00239979 0)
(0.129481 -0.00230173 0)
(0.130126 -0.00220248 0)
(0.130742 -0.00210209 0)
(0.13133 -0.00200064 0)
(0.131888 -0.0018982 0)
(0.132417 -0.00179484 0)
(0.132916 -0.00169065 0)
(0.133385 -0.00158569 0)
(0.133823 -0.00148005 0)
(0.134232 -0.00137381 0)
(0.13461 -0.00126704 0)
(0.134957 -0.00115982 0)
(0.135273 -0.00105225 0)
(0.135559 -0.000944398 0)
(0.135814 -0.00083635 0)
(0.136037 -0.000728189 0)
(0.13623 -0.000619997 0)
(0.136391 -0.000511855 0)
(0.136522 -0.000403846 0)
(0.136622 -0.00029605 0)
(0.13669 -0.000188547 0)
(0.136728 -8.14151e-05 0)
(0.136736 2.52682e-05 0)
(0.136713 0.000131427 0)
(0.136659 0.000236987 0)
(0.136576 0.000341875 0)
(0.136462 0.00044602 0)
(0.136319 0.000549355 0)
(0.136146 0.000651812 0)
(0.135944 0.000753326 0)
(0.135713 0.000853836 0)
(0.135454 0.000953281 0)
(0.135166 0.00105161 0)
(0.13485 0.00114875 0)
(0.134506 0.00124467 0)
(0.134135 0.00133932 0)
(0.133738 0.00143263 0)
(0.133313 0.00152459 0)
(0.132863 0.00161513 0)
(0.132387 0.00170422 0)
(0.131886 0.00179183 0)
(0.131359 0.00187793 0)
(0.130809 0.00196248 0)
(0.130234 0.00204546 0)
(0.129636 0.00212684 0)
(0.129015 0.0022066 0)
(0.128371 0.00228473 0)
(0.127705 0.0023612 0)
(0.127018 0.002436 0)
(0.126309 0.00250913 0)
(0.12558 0.00258057 0)
(0.124831 0.00265031 0)
(0.124061 0.00271836 0)
(0.123273 0.00278471 0)
(0.122466 0.00284936 0)
(0.121641 0.00291232 0)
(0.120798 0.00297358 0)
(0.119938 0.00303317 0)
(0.119061 0.00309107 0)
(0.118167 0.00314731 0)
(0.117258 0.0032019 0)
(0.116334 0.00325484 0)
(0.115394 0.00330616 0)
(0.11444 0.00335588 0)
(0.113473 0.003404 0)
(0.112491 0.00345055 0)
(0.111497 0.00349555 0)
(0.11049 0.00353903 0)
(0.109471 0.00358099 0)
(0.10844 0.00362148 0)
(0.107398 0.0036605 0)
(0.106345 0.00369809 0)
(0.105282 0.00373427 0)
(0.104208 0.00376908 0)
(0.103125 0.00380252 0)
(0.102032 0.00383465 0)
(0.10093 0.00386547 0)
(0.09982 0.00389502 0)
(0.0987015 0.00392333 0)
(0.0975751 0.00395043 0)
(0.0964412 0.00397635 0)
(0.0953001 0.00400111 0)
(0.0941521 0.00402474 0)
(0.0929976 0.00404728 0)
(0.0918368 0.00406876 0)
(0.0906701 0.0040892 0)
(0.0894977 0.00410863 0)
(0.0883199 0.00412708 0)
(0.087137 0.00414459 0)
(0.0859493 0.00416117 0)
(0.0847571 0.00417686 0)
(0.0835605 0.0041917 0)
(0.0823598 0.00420569 0)
(0.0811552 0.00421888 0)
(0.0799471 0.0042313 0)
(0.0787355 0.00424296 0)
(0.0775208 0.00425389 0)
(0.076303 0.00426413 0)
(0.0750825 0.0042737 0)
(0.0738594 0.00428261 0)
(0.0726338 0.00429091 0)
(0.071406 0.00429862 0)
(0.070176 0.00430575 0)
(0.0689442 0.00431233 0)
(0.0677106 0.00431839 0)
(0.0664753 0.00432395 0)
(0.0652386 0.00432902 0)
(0.0640005 0.00433365 0)
(0.0627612 0.00433784 0)
(0.0615207 0.00434161 0)
(0.0602793 0.00434499 0)
(0.059037 0.004348 0)
(0.0577938 0.00435066 0)
(0.0565501 0.00435298 0)
(0.0553057 0.00435499 0)
(0.0540608 0.0043567 0)
(0.0528154 0.00435814 0)
(0.0515698 0.00435931 0)
(0.0503238 0.00436023 0)
(0.0490776 0.00436093 0)
(0.0478313 0.00436142 0)
(0.0465849 0.00436171 0)
(0.0453385 0.00436182 0)
(0.044092 0.00436176 0)
(0.0428457 0.00436154 0)
(0.0415994 0.00436119 0)
(0.0403533 0.00436071 0)
(0.0391073 0.00436012 0)
(0.0378615 0.00435942 0)
(0.036616 0.00435863 0)
(0.0353707 0.00435777 0)
(0.0341256 0.00435684 0)
(0.0328809 0.00435585 0)
(0.0316365 0.00435481 0)
(0.0303924 0.00435373 0)
(0.0291486 0.00435263 0)
(0.0279051 0.00435151 0)
(0.0266619 0.00435038 0)
(0.0254191 0.00434924 0)
(0.0241767 0.00434811 0)
(0.0229345 0.00434699 0)
(0.0216927 0.0043459 0)
(0.0204512 0.00434482 0)
(0.01921 0.00434378 0)
(0.0179692 0.00434278 0)
(0.0167286 0.00434182 0)
(0.0154882 0.0043409 0)
(0.0142482 0.00434004 0)
(0.0130083 0.00433924 0)
(0.0117687 0.0043385 0)
(0.0105294 0.00433782 0)
(0.00929016 0.00433721 0)
(0.00805112 0.00433667 0)
(0.00681224 0.0043362 0)
(0.00557347 0.0043358 0)
(0.00433482 0.00433549 0)
(0.00309624 0.00433525 0)
(0.00185772 0.00433509 0)
(0.000619237 0.00433502 0)
(0.000751424 -0.00676353 0)
(0.00225428 -0.00676363 0)
(0.00375718 -0.00676383 0)
(0.00526014 -0.00676413 0)
(0.00676318 -0.00676452 0)
(0.00826633 -0.00676499 0)
(0.00976961 -0.00676555 0)
(0.011273 -0.00676618 0)
(0.0127766 -0.00676686 0)
(0.0142804 -0.0067676 0)
(0.0157843 -0.00676838 0)
(0.0172885 -0.00676917 0)
(0.0187928 -0.00676997 0)
(0.0202974 -0.00677077 0)
(0.0218022 -0.00677153 0)
(0.0233071 -0.00677224 0)
(0.0248123 -0.00677288 0)
(0.0263176 -0.00677343 0)
(0.0278231 -0.00677386 0)
(0.0293286 -0.00677414 0)
(0.0308343 -0.00677426 0)
(0.03234 -0.00677417 0)
(0.0338458 -0.00677385 0)
(0.0353515 -0.00677327 0)
(0.036857 -0.0067724 0)
(0.0383624 -0.00677119 0)
(0.0398676 -0.00676963 0)
(0.0413724 -0.00676766 0)
(0.0428768 -0.00676525 0)
(0.0443807 -0.00676236 0)
(0.0458839 -0.00675895 0)
(0.0473864 -0.00675498 0)
(0.048888 -0.0067504 0)
(0.0503885 -0.00674517 0)
(0.051888 -0.00673925 0)
(0.0533861 -0.00673258 0)
(0.0548827 -0.00672513 0)
(0.0563776 -0.00671683 0)
(0.0578707 -0.00670764 0)
(0.0593617 -0.00669751 0)
(0.0608504 -0.00668639 0)
(0.0623366 -0.00667423 0)
(0.0638201 -0.00666097 0)
(0.0653006 -0.00664655 0)
(0.0667778 -0.00663093 0)
(0.0682515 -0.00661405 0)
(0.0697215 -0.00659586 0)
(0.0711873 -0.00657629 0)
(0.0726486 -0.0065553 0)
(0.0741053 -0.00653283 0)
(0.0755568 -0.00650882 0)
(0.077003 -0.00648321 0)
(0.0784433 -0.00645596 0)
(0.0798775 -0.006427 0)
(0.0813052 -0.00639629 0)
(0.0827259 -0.00636377 0)
(0.0841392 -0.00632939 0)
(0.0855448 -0.00629309 0)
(0.0869422 -0.00625483 0)
(0.0883309 -0.00621456 0)
(0.0897106 -0.00617222 0)
(0.0910806 -0.00612778 0)
(0.0924406 -0.00608118 0)
(0.0937901 -0.00603239 0)
(0.0951286 -0.00598137 0)
(0.0964555 -0.00592807 0)
(0.0977704 -0.00587247 0)
(0.0990727 -0.00581452 0)
(0.100362 -0.0057542 0)
(0.101637 -0.00569148 0)
(0.102899 -0.00562633 0)
(0.104146 -0.00555874 0)
(0.105377 -0.00548868 0)
(0.106593 -0.00541615 0)
(0.107792 -0.00534112 0)
(0.108974 -0.00526359 0)
(0.110139 -0.00518356 0)
(0.111286 -0.00510102 0)
(0.112414 -0.00501599 0)
(0.113523 -0.00492846 0)
(0.114612 -0.00483846 0)
(0.115681 -0.00474599 0)
(0.116729 -0.00465108 0)
(0.117755 -0.00455376 0)
(0.11876 -0.00445404 0)
(0.119742 -0.00435197 0)
(0.120701 -0.00424758 0)
(0.121637 -0.00414092 0)
(0.122548 -0.00403203 0)
(0.123435 -0.00392096 0)
(0.124297 -0.00380777 0)
(0.125134 -0.00369251 0)
(0.125945 -0.00357526 0)
(0.126729 -0.00345607 0)
(0.127486 -0.00333501 0)
(0.128217 -0.00321217 0)
(0.128919 -0.00308761 0)
(0.129594 -0.00296142 0)
(0.13024 -0.00283369 0)
(0.130858 -0.0027045 0)
(0.131446 -0.00257394 0)
(0.132006 -0.00244211 0)
(0.132535 -0.0023091 0)
(0.133035 -0.002175 0)
(0.133505 -0.00203992 0)
(0.133945 -0.00190396 0)
(0.134354 -0.00176722 0)
(0.134732 -0.00162981 0)
(0.13508 -0.00149182 0)
(0.135397 -0.00135337 0)
(0.135682 -0.00121456 0)
(0.135937 -0.0010755 0)
(0.136161 -0.000936297 0)
(0.136354 -0.000797052 0)
(0.136515 -0.000657874 0)
(0.136645 -0.000518867 0)
(0.136745 -0.000380136 0)
(0.136813 -0.000241783 0)
(0.136851 -0.000103909 0)
(0.136858 3.33852e-05 0)
(0.136834 0.000170002 0)
(0.13678 0.000305846 0)
(0.136695 0.000440824 0)
(0.136581 0.000574843 0)
(0.136437 0.000707816 0)
(0.136263 0.000839656 0)
(0.13606 0.000970281 0)
(0.135828 0.00109961 0)
(0.135567 0.00122757 0)
(0.135278 0.00135408 0)