/*--------------------------------*- C++ -*----------------------------------*\
| =========                 |                                                 |
| \\      /  F ield         | OpenFOAM: The Open Source CFD Toolbox           |
|  \\    /   O peration     | Version:  v2012                                 |
|   \\  /    A nd           | Website:  www.openfoam.com                      |
|    \\/     M anipulation  |                                                 |
\*---------------------------------------------------------------------------*/
FoamFile
{
    version     2.0;
    format      ascii;
    class       volVectorField;
    location    "4.7";
    object      U;
}
// * * * * * * * * * * * * * * * * * * * * * * * * * * * * * * * * * * * * * //

dimensions      [0 1 -1 0 0 0 0];


internalField   nonuniform List<vector> 
65536
(
(0.000735676 -0.00073566 0)
(0.00220699 -0.000735624 0)
(0.0036782 -0.000735556 0)
(0.00514924 -0.000735453 0)
(0.00662005 -0.000735315 0)
(0.00809054 -0.000735142 0)
(0.00956065 -0.000734933 0)
(0.0110303 -0.000734687 0)
(0.0124994 -0.000734403 0)
(0.0139679 -0.00073408 0)
(0.0154358 -0.000733718 0)
(0.0169029 -0.000733314 0)
(0.0183691 -0.000732867 0)
(0.0198344 -0.000732376 0)
(0.0212986 -0.000731839 0)
(0.0227618 -0.000731254 0)
(0.0242237 -0.00073062 0)
(0.0256843 -0.000729934 0)
(0.0271435 -0.000729195 0)
(0.0286011 -0.000728399 0)
(0.0300571 -0.000727545 0)
(0.0315114 -0.000726631 0)
(0.0329637 -0.000725653 0)
(0.034414 -0.000724609 0)
(0.0358622 -0.000723496 0)
(0.0373081 -0.000722312 0)
(0.0387515 -0.000721053 0)
(0.0401924 -0.000719717 0)
(0.0416305 -0.0007183 0)
(0.0430657 -0.000716799 0)
(0.0444978 -0.000715211 0)
(0.0459266 -0.000713533 0)
(0.047352 -0.000711762 0)
(0.0487737 -0.000709893 0)
(0.0501916 -0.000707924 0)
(0.0516055 -0.000705851 0)
(0.0530152 -0.00070367 0)
(0.0544203 -0.000701379 0)
(0.0558208 -0.000698972 0)
(0.0572163 -0.000696447 0)
(0.0586067 -0.000693801 0)
(0.0599916 -0.000691029 0)
(0.0613709 -0.000688128 0)
(0.0627443 -0.000685094 0)
(0.0641114 -0.000681924 0)
(0.0654721 -0.000678615 0)
(0.066826 -0.000675162 0)
(0.0681729 -0.000671563 0)
(0.0695124 -0.000667814 0)
(0.0708443 -0.000663911 0)
(0.0721682 -0.000659852 0)
(0.0734839 -0.000655634 0)
(0.0747909 -0.000651253 0)
(0.0760891 -0.000646707 0)
(0.0773779 -0.000641992 0)
(0.0786572 -0.000637107 0)
(0.0799265 -0.000632048 0)
(0.0811856 -0.000626813 0)
(0.0824339 -0.0006214 0)
(0.0836713 -0.000615807 0)
(0.0848974 -0.000610032 0)
(0.0861116 -0.000604073 0)
(0.0873138 -0.000597928 0)
(0.0885035 -0.000591597 0)
(0.0896804 -0.000585079 0)
(0.090844 -0.000578371 0)
(0.0919941 -0.000571475 0)
(0.0931301 -0.000564388 0)
(0.0942518 -0.000557111 0)
(0.0953588 -0.000549645 0)
(0.0964506 -0.000541988 0)
(0.0975269 -0.000534142 0)
(0.0985873 -0.000526108 0)
(0.0996315 -0.000517886 0)
(0.100659 -0.000509477 0)
(0.10167 -0.000500884 0)
(0.102663 -0.000492108 0)
(0.103638 -0.000483151 0)
(0.104596 -0.000474016 0)
(0.105534 -0.000464704 0)
(0.106455 -0.000455219 0)
(0.107356 -0.000445564 0)
(0.108237 -0.000435742 0)
(0.109099 -0.000425757 0)
(0.10994 -0.000415613 0)
(0.110761 -0.000405314 0)
(0.111562 -0.000394864 0)
(0.112341 -0.000384267 0)
(0.113099 -0.000373529 0)
(0.113835 -0.000362655 0)
(0.11455 -0.000351649 0)
(0.115242 -0.000340517 0)
(0.115912 -0.000329265 0)
(0.116559 -0.000317899 0)
(0.117183 -0.000306424 0)
(0.117785 -0.000294846 0)
(0.118363 -0.000283172 0)
(0.118918 -0.000271408 0)
(0.119449 -0.000259561 0)
(0.119956 -0.000247636 0)
(0.120439 -0.000235642 0)
(0.120899 -0.000223584 0)
(0.121334 -0.000211469 0)
(0.121744 -0.000199304 0)
(0.122131 -0.000187096 0)
(0.122493 -0.000174852 0)
(0.12283 -0.000162579 0)
(0.123143 -0.000150284 0)
(0.123431 -0.000137973 0)
(0.123695 -0.000125654 0)
(0.123934 -0.000113332 0)
(0.124148 -0.000101016 0)
(0.124338 -8.87115e-05 0)
(0.124503 -7.6425e-05 0)
(0.124644 -6.41632e-05 0)
(0.12476 -5.19324e-05 0)
(0.124852 -3.9739e-05 0)
(0.124919 -2.75891e-05 0)
(0.124962 -1.54886e-05 0)
(0.124981 -3.44351e-06 0)
(0.124976 8.54056e-06 0)
(0.124947 2.0458e-05 0)
(0.124894 3.23035e-05 0)
(0.124817 4.40718e-05 0)
(0.124717 5.57579e-05 0)
(0.124594 6.7357e-05 0)
(0.124448 7.88643e-05 0)
(0.124279 9.02754e-05 0)
(0.124087 0.000101586 0)
(0.123872 0.000112792 0)
(0.123635 0.00012389 0)
(0.123376 0.000134876 0)
(0.123096 0.000145746 0)
(0.122793 0.000156497 0)
(0.12247 0.000167126 0)
(0.122125 0.000177631 0)
(0.121759 0.000188008 0)
(0.121373 0.000198256 0)
(0.120966 0.000208371 0)
(0.120539 0.000218351 0)
(0.120092 0.000228196 0)
(0.119626 0.000237902 0)
(0.119141 0.00024747 0)
(0.118636 0.000256896 0)
(0.118113 0.00026618 0)
(0.117571 0.000275321 0)
(0.117011 0.000284318 0)
(0.116434 0.00029317 0)
(0.115839 0.000301877 0)
(0.115226 0.000310439 0)
(0.114597 0.000318854 0)
(0.113951 0.000327123 0)
(0.113288 0.000335246 0)
(0.112609 0.000343224 0)
(0.111915 0.000351055 0)
(0.111205 0.00035874 0)
(0.11048 0.000366281 0)
(0.10974 0.000373677 0)
(0.108985 0.000380929 0)
(0.108216 0.000388038 0)
(0.107433 0.000395004 0)
(0.106636 0.000401829 0)
(0.105825 0.000408513 0)
(0.105002 0.000415058 0)
(0.104165 0.000421464 0)
(0.103316 0.000427733 0)
(0.102454 0.000433866 0)
(0.10158 0.000439864 0)
(0.100694 0.000445729 0)
(0.0997969 0.000451461 0)
(0.0988883 0.000457063 0)
(0.0979686 0.000462535 0)
(0.097038 0.000467879 0)
(0.0960969 0.000473097 0)
(0.0951455 0.00047819 0)
(0.094184 0.00048316 0)
(0.0932127 0.000488008 0)
(0.0922319 0.000492736 0)
(0.0912417 0.000497346 0)
(0.0902424 0.000501839 0)
(0.0892342 0.000506216 0)
(0.0882174 0.00051048 0)
(0.0871922 0.000514632 0)
(0.0861588 0.000518674 0)
(0.0851174 0.000522608 0)
(0.0840682 0.000526434 0)
(0.0830115 0.000530156 0)
(0.0819475 0.000533774 0)
(0.0808763 0.000537291 0)
(0.0797982 0.000540708 0)
(0.0787134 0.000544026 0)
(0.077622 0.000547248 0)
(0.0765243 0.000550375 0)
(0.0754205 0.00055341 0)
(0.0743106 0.000556353 0)
(0.073195 0.000559206 0)
(0.0720737 0.000561971 0)
(0.070947 0.00056465 0)
(0.069815 0.000567245 0)
(0.0686779 0.000569757 0)
(0.0675359 0.000572187 0)
(0.0663891 0.000574539 0)
(0.0652377 0.000576812 0)
(0.0640818 0.000579009 0)
(0.0629216 0.000581132 0)
(0.0617572 0.000583182 0)
(0.0605888 0.000585161 0)
(0.0594165 0.00058707 0)
(0.0582404 0.000588911 0)
(0.0570607 0.000590686 0)
(0.0558776 0.000592396 0)
(0.0546911 0.000594042 0)
(0.0535014 0.000595627 0)
(0.0523085 0.000597152 0)
(0.0511127 0.000598618 0)
(0.049914 0.000600027 0)
(0.0487125 0.00060138 0)
(0.0475084 0.000602679 0)
(0.0463018 0.000603925 0)
(0.0450927 0.000605119 0)
(0.0438812 0.000606264 0)
(0.0426676 0.00060736 0)
(0.0414518 0.000608408 0)
(0.0402339 0.000609411 0)
(0.0390141 0.000610368 0)
(0.0377924 0.000611283 0)
(0.0365689 0.000612154 0)
(0.0353437 0.000612985 0)
(0.0341169 0.000613776 0)
(0.0328886 0.000614528 0)
(0.0316588 0.000615243 0)
(0.0304276 0.000615921 0)
(0.029195 0.000616563 0)
(0.0279613 0.000617171 0)
(0.0267263 0.000617745 0)
(0.0254903 0.000618286 0)
(0.0242532 0.000618796 0)
(0.023015 0.000619275 0)
(0.021776 0.000619723 0)
(0.0205361 0.000620143 0)
(0.0192954 0.000620533 0)
(0.018054 0.000620896 0)
(0.0168118 0.000621232 0)
(0.015569 0.000621541 0)
(0.0143256 0.000621824 0)
(0.0130817 0.000622082 0)
(0.0118373 0.000622315 0)
(0.0105924 0.000622523 0)
(0.00934714 0.000622706 0)
(0.00810155 0.000622867 0)
(0.00685565 0.000623003 0)
(0.00560951 0.000623117 0)
(0.00436316 0.000623207 0)
(0.00311666 0.000623275 0)
(0.00187004 0.00062332 0)
(0.000623354 0.000623342 0)
(0.000735707 -0.00220701 0)
(0.00220709 -0.0022069 0)
(0.00367837 -0.0022067 0)
(0.00514948 -0.00220639 0)
(0.00662035 -0.00220598 0)
(0.00809091 -0.00220546 0)
(0.00956109 -0.00220483 0)
(0.0110308 -0.00220409 0)
(0.0125 -0.00220324 0)
(0.0139686 -0.00220228 0)
(0.0154365 -0.00220119 0)
(0.0169037 -0.00219998 0)
(0.01837 -0.00219864 0)
(0.0198354 -0.00219717 0)
(0.0212997 -0.00219556 0)
(0.022763 -0.00219381 0)
(0.024225 -0.00219191 0)
(0.0256857 -0.00218985 0)
(0.027145 -0.00218764 0)
(0.0286027 -0.00218525 0)
(0.0300589 -0.00218269 0)
(0.0315132 -0.00217995 0)
(0.0329657 -0.00217702 0)
(0.0344162 -0.00217389 0)
(0.0358645 -0.00217056 0)
(0.0373105 -0.00216701 0)
(0.0387541 -0.00216323 0)
(0.0401951 -0.00215923 0)
(0.0416333 -0.00215498 0)
(0.0430687 -0.00215048 0)
(0.044501 -0.00214572 0)
(0.04593 -0.00214069 0)
(0.0473556 -0.00213538 0)
(0.0487775 -0.00212978 0)
(0.0501956 -0.00212387 0)
(0.0516097 -0.00211766 0)
(0.0530196 -0.00211112 0)
(0.0544249 -0.00210425 0)
(0.0558256 -0.00209703 0)
(0.0572214 -0.00208946 0)
(0.058612 -0.00208152 0)
(0.0599972 -0.00207321 0)
(0.0613768 -0.00206451 0)
(0.0627504 -0.00205542 0)
(0.0641178 -0.00204591 0)
(0.0654788 -0.00203598 0)
(0.066833 -0.00202563 0)
(0.0681802 -0.00201484 0)
(0.06952 -0.00200359 0)
(0.0708522 -0.00199189 0)
(0.0721764 -0.00197971 0)
(0.0734924 -0.00196706 0)
(0.0747998 -0.00195392 0)
(0.0760982 -0.00194029 0)
(0.0773874 -0.00192615 0)
(0.0786671 -0.00191149 0)
(0.0799367 -0.00189632 0)
(0.0811961 -0.00188061 0)
(0.0824449 -0.00186438 0)
(0.0836826 -0.0018476 0)
(0.084909 -0.00183028 0)
(0.0861237 -0.0018124 0)
(0.0873262 -0.00179397 0)
(0.0885163 -0.00177498 0)
(0.0896935 -0.00175542 0)
(0.0908576 -0.0017353 0)
(0.092008 -0.00171461 0)
(0.0931444 -0.00169335 0)
(0.0942665 -0.00167152 0)
(0.0953738 -0.00164912 0)
(0.096466 -0.00162615 0)
(0.0975427 -0.00160261 0)
(0.0986035 -0.00157851 0)
(0.0996481 -0.00155384 0)
(0.100676 -0.00152862 0)
(0.101687 -0.00150284 0)
(0.10268 -0.0014765 0)
(0.103656 -0.00144963 0)
(0.104614 -0.00142222 0)
(0.105553 -0.00139428 0)
(0.106474 -0.00136583 0)
(0.107375 -0.00133686 0)
(0.108257 -0.00130739 0)
(0.109119 -0.00127743 0)
(0.109961 -0.00124699 0)
(0.110782 -0.00121609 0)
(0.111583 -0.00118474 0)
(0.112362 -0.00115294 0)
(0.11312 -0.00112072 0)
(0.113857 -0.0010881 0)
(0.114572 -0.00105507 0)
(0.115264 -0.00102167 0)
(0.115934 -0.000987911 0)
(0.116582 -0.000953806 0)
(0.117206 -0.000919374 0)
(0.117808 -0.000884635 0)
(0.118386 -0.000849607 0)
(0.118941 -0.000814309 0)
(0.119472 -0.00077876 0)
(0.11998 -0.000742981 0)
(0.120463 -0.00070699 0)
(0.120923 -0.000670809 0)
(0.121358 -0.000634458 0)
(0.121769 -0.000597957 0)
(0.122155 -0.000561327 0)
(0.122517 -0.000524588 0)
(0.122855 -0.000487762 0)
(0.123168 -0.000450869 0)
(0.123456 -0.00041393 0)
(0.12372 -0.000376965 0)
(0.123959 -0.000339994 0)
(0.124173 -0.000303039 0)
(0.124363 -0.000266118 0)
(0.124528 -0.000229253 0)
(0.124668 -0.000192461 0)
(0.124784 -0.000155762 0)
(0.124876 -0.000119176 0)
(0.124943 -8.27203e-05 0)
(0.124986 -4.64131e-05 0)
(0.125005 -1.02721e-05 0)
(0.124999 2.56856e-05 0)
(0.12497 6.14433e-05 0)
(0.124917 9.69849e-05 0)
(0.124841 0.000132295 0)
(0.124741 0.000167358 0)
(0.124617 0.00020216 0)
(0.124471 0.000236686 0)
(0.124301 0.000270924 0)
(0.124109 0.00030486 0)
(0.123894 0.000338482 0)
(0.123657 0.000371779 0)
(0.123398 0.000404739 0)
(0.123117 0.000437353 0)
(0.122815 0.00046961 0)
(0.122491 0.000501501 0)
(0.122146 0.000533018 0)
(0.12178 0.000564152 0)
(0.121393 0.000594896 0)
(0.120986 0.000625243 0)
(0.120559 0.000655187 0)
(0.120112 0.000684722 0)
(0.119645 0.000713844 0)
(0.119159 0.000742546 0)
(0.118655 0.000770826 0)
(0.118131 0.00079868 0)
(0.117589 0.000826103 0)
(0.117029 0.000853095 0)
(0.116451 0.000879653 0)
(0.115856 0.000905775 0)
(0.115243 0.000931459 0)
(0.114613 0.000956705 0)
(0.113967 0.000981513 0)
(0.113304 0.00100588 0)
(0.112625 0.00102981 0)
(0.11193 0.00105331 0)
(0.11122 0.00107636 0)
(0.110495 0.00109898 0)
(0.109754 0.00112117 0)
(0.108999 0.00114293 0)
(0.10823 0.00116425 0)
(0.107446 0.00118515 0)
(0.106649 0.00120562 0)
(0.105838 0.00122568 0)
(0.105014 0.00124531 0)
(0.104178 0.00126453 0)
(0.103328 0.00128333 0)
(0.102466 0.00130173 0)
(0.101592 0.00131972 0)
(0.100706 0.00133732 0)
(0.0998083 0.00135451 0)
(0.0988993 0.00137131 0)
(0.0979794 0.00138773 0)
(0.0970486 0.00140376 0)
(0.0961072 0.00141941 0)
(0.0951556 0.00143469 0)
(0.0941938 0.0014496 0)
(0.0932223 0.00146414 0)
(0.0922412 0.00147832 0)
(0.0912508 0.00149215 0)
(0.0902513 0.00150563 0)
(0.0892429 0.00151876 0)
(0.0882258 0.00153155 0)
(0.0872004 0.001544 0)
(0.0861668 0.00155613 0)
(0.0851252 0.00156793 0)
(0.0840758 0.00157941 0)
(0.0830189 0.00159057 0)
(0.0819547 0.00160142 0)
(0.0808833 0.00161197 0)
(0.079805 0.00162222 0)
(0.07872 0.00163217 0)
(0.0776284 0.00164184 0)
(0.0765305 0.00165122 0)
(0.0754264 0.00166032 0)
(0.0743164 0.00166915 0)
(0.0732006 0.0016777 0)
(0.0720792 0.001686 0)
(0.0709523 0.00169403 0)
(0.0698201 0.00170182 0)
(0.0686829 0.00170935 0)
(0.0675407 0.00171664 0)
(0.0663937 0.00172369 0)
(0.0652422 0.00173051 0)
(0.0640861 0.0017371 0)
(0.0629257 0.00174347 0)
(0.0617612 0.00174962 0)
(0.0605927 0.00175555 0)
(0.0594202 0.00176128 0)
(0.058244 0.0017668 0)
(0.0570643 0.00177212 0)
(0.055881 0.00177725 0)
(0.0546944 0.00178219 0)
(0.0535045 0.00178694 0)
(0.0523115 0.00179151 0)
(0.0511156 0.00179591 0)
(0.0499168 0.00180014 0)
(0.0487152 0.00180419 0)
(0.047511 0.00180809 0)
(0.0463042 0.00181183 0)
(0.045095 0.00181541 0)
(0.0438835 0.00181884 0)
(0.0426697 0.00182213 0)
(0.0414538 0.00182527 0)
(0.0402359 0.00182828 0)
(0.039016 0.00183115 0)
(0.0377942 0.00183389 0)
(0.0365706 0.00183651 0)
(0.0353454 0.001839 0)
(0.0341185 0.00184137 0)
(0.0328901 0.00184362 0)
(0.0316602 0.00184577 0)
(0.0304289 0.0018478 0)
(0.0291963 0.00184972 0)
(0.0279625 0.00185155 0)
(0.0267275 0.00185327 0)
(0.0254913 0.00185489 0)
(0.0242542 0.00185642 0)
(0.023016 0.00185786 0)
(0.0217769 0.0018592 0)
(0.0205369 0.00186046 0)
(0.0192962 0.00186163 0)
(0.0180547 0.00186272 0)
(0.0168125 0.00186372 0)
(0.0155696 0.00186465 0)
(0.0143262 0.0018655 0)
(0.0130822 0.00186627 0)
(0.0118377 0.00186697 0)
(0.0105928 0.00186759 0)
(0.00934749 0.00186814 0)
(0.00810185 0.00186862 0)
(0.00685591 0.00186903 0)
(0.00560972 0.00186937 0)
(0.00436332 0.00186965 0)
(0.00311677 0.00186985 0)
(0.00187011 0.00186998 0)
(0.000623376 0.00187005 0)
(0.000735776 -0.00367846 0)
(0.00220729 -0.00367828 0)
(0.00367871 -0.00367794 0)
(0.00514996 -0.00367743 0)
(0.00662097 -0.00367675 0)
(0.00809168 -0.00367588 0)
(0.009562 -0.00367484 0)
(0.0110319 -0.00367362 0)
(0.0125012 -0.0036722 0)
(0.01397 -0.00367059 0)
(0.0154381 -0.00366879 0)
(0.0169054 -0.00366677 0)
(0.0183719 -0.00366455 0)
(0.0198374 -0.0036621 0)
(0.021302 -0.00365943 0)
(0.0227654 -0.00365651 0)
(0.0242276 -0.00365335 0)
(0.0256885 -0.00364993 0)
(0.0271481 -0.00364625 0)
(0.028606 -0.00364228 0)
(0.0300624 -0.00363802 0)
(0.031517 -0.00363346 0)
(0.0329697 -0.00362859 0)
(0.0344205 -0.00362338 0)
(0.0358691 -0.00361783 0)
(0.0373154 -0.00361192 0)
(0.0387593 -0.00360565 0)
(0.0402006 -0.00359898 0)
(0.0416392 -0.00359191 0)
(0.0430749 -0.00358442 0)
(0.0445075 -0.0035765 0)
(0.0459369 -0.00356813 0)
(0.0473629 -0.00355929 0)
(0.0487852 -0.00354996 0)
(0.0502037 -0.00354013 0)
(0.0516182 -0.00352979 0)
(0.0530285 -0.0035189 0)
(0.0544344 -0.00350746 0)
(0.0558355 -0.00349545 0)
(0.0572318 -0.00348284 0)
(0.0586229 -0.00346963 0)
(0.0600086 -0.00345578 0)
(0.0613887 -0.0034413 0)
(0.0627628 -0.00342615 0)
(0.0641308 -0.00341031 0)
(0.0654924 -0.00339378 0)
(0.0668471 -0.00337654 0)
(0.0681949 -0.00335856 0)
(0.0695353 -0.00333983 0)
(0.0708681 -0.00332033 0)
(0.072193 -0.00330005 0)
(0.0735096 -0.00327898 0)
(0.0748177 -0.00325709 0)
(0.0761168 -0.00323437 0)
(0.0774067 -0.00321081 0)
(0.078687 -0.0031864 0)
(0.0799574 -0.00316111 0)
(0.0812175 -0.00313495 0)
(0.0824669 -0.0031079 0)
(0.0837054 -0.00307994 0)
(0.0849325 -0.00305107 0)
(0.0861479 -0.00302129 0)
(0.0873512 -0.00299057 0)
(0.088542 -0.00295892 0)
(0.08972 -0.00292633 0)
(0.0908848 -0.0028928 0)
(0.092036 -0.00285832 0)
(0.0931732 -0.00282289 0)
(0.094296 -0.00278651 0)
(0.0954041 -0.00274917 0)
(0.0964971 -0.00271089 0)
(0.0975745 -0.00267165 0)
(0.0986361 -0.00263147 0)
(0.0996814 -0.00259036 0)
(0.10071 -0.00254831 0)
(0.101722 -0.00250534 0)
(0.102716 -0.00246144 0)
(0.103692 -0.00241665 0)
(0.104651 -0.00237096 0)
(0.105591 -0.00232438 0)
(0.106512 -0.00227694 0)
(0.107414 -0.00222865 0)
(0.108296 -0.00217953 0)
(0.109159 -0.00212958 0)
(0.110001 -0.00207884 0)
(0.110823 -0.00202732 0)
(0.111625 -0.00197505 0)
(0.112405 -0.00192204 0)
(0.113164 -0.00186833 0)
(0.113901 -0.00181393 0)
(0.114616 -0.00175888 0)
(0.115309 -0.00170319 0)
(0.11598 -0.0016469 0)
(0.116628 -0.00159004 0)
(0.117253 -0.00153263 0)
(0.117855 -0.00147471 0)
(0.118433 -0.00141631 0)
(0.118988 -0.00135746 0)
(0.11952 -0.00129819 0)
(0.120028 -0.00123854 0)
(0.120511 -0.00117853 0)
(0.120971 -0.0011182 0)
(0.121406 -0.0010576 0)
(0.121818 -0.000996739 0)
(0.122204 -0.000935665 0)
(0.122566 -0.000874412 0)
(0.122904 -0.000813012 0)
(0.123217 -0.0007515 0)
(0.123505 -0.000689912 0)
(0.123769 -0.000628281 0)
(0.124008 -0.000566641 0)
(0.124222 -0.000505027 0)
(0.124412 -0.00044347 0)
(0.124577 -0.000382006 0)
(0.124717 -0.000320665 0)
(0.124833 -0.00025948 0)
(0.124925 -0.000198482 0)
(0.124992 -0.000137703 0)
(0.125034 -7.71712e-05 0)
(0.125053 -1.69172e-05 0)
(0.125047 4.30308e-05 0)
(0.125018 0.000102645 0)
(0.124965 0.000161898 0)
(0.124888 0.000220765 0)
(0.124787 0.00027922 0)
(0.124663 0.000337238 0)
(0.124517 0.000394797 0)
(0.124347 0.000451874 0)
(0.124154 0.000508447 0)
(0.123939 0.000564497 0)
(0.123702 0.000620004 0)
(0.123442 0.00067495 0)
(0.123161 0.000729317 0)
(0.122857 0.000783089 0)
(0.122533 0.00083625 0)
(0.122187 0.000888787 0)
(0.121821 0.000940685 0)
(0.121434 0.000991933 0)
(0.121026 0.00104252 0)
(0.120598 0.00109243 0)
(0.120151 0.00114166 0)
(0.119684 0.0011902 0)
(0.119197 0.00123805 0)
(0.118692 0.00128518 0)
(0.118168 0.00133161 0)
(0.117626 0.00137732 0)
(0.117065 0.00142231 0)
(0.116486 0.00146657 0)
(0.11589 0.00151011 0)
(0.115277 0.00155292 0)
(0.114647 0.001595 0)
(0.114 0.00163634 0)
(0.113336 0.00167696 0)
(0.112657 0.00171684 0)
(0.111962 0.00175599 0)
(0.111251 0.00179442 0)
(0.110525 0.00183212 0)
(0.109784 0.0018691 0)
(0.109028 0.00190535 0)
(0.108258 0.00194089 0)
(0.107474 0.00197572 0)
(0.106676 0.00200984 0)
(0.105865 0.00204326 0)
(0.10504 0.00207598 0)
(0.104203 0.002108 0)
(0.103353 0.00213934 0)
(0.10249 0.00217 0)
(0.101616 0.00219998 0)
(0.100729 0.0022293 0)
(0.0998309 0.00225795 0)
(0.0989215 0.00228595 0)
(0.098001 0.00231331 0)
(0.0970697 0.00234002 0)
(0.0961278 0.0023661 0)
(0.0951757 0.00239156 0)
(0.0942135 0.0024164 0)
(0.0932415 0.00244064 0)
(0.0922599 0.00246427 0)
(0.091269 0.00248731 0)
(0.090269 0.00250976 0)
(0.0892601 0.00253164 0)
(0.0882427 0.00255296 0)
(0.0872168 0.00257371 0)
(0.0861827 0.00259391 0)
(0.0851407 0.00261357 0)
(0.0840909 0.00263269 0)
(0.0830336 0.00265129 0)
(0.0819689 0.00266938 0)
(0.0808972 0.00268695 0)
(0.0798185 0.00270403 0)
(0.078733 0.00272061 0)
(0.0776411 0.00273671 0)
(0.0765428 0.00275234 0)
(0.0754384 0.0027675 0)
(0.074328 0.00278221 0)
(0.0732118 0.00279647 0)
(0.07209 0.00281029 0)
(0.0709628 0.00282367 0)
(0.0698303 0.00283664 0)
(0.0686928 0.00284919 0)
(0.0675503 0.00286133 0)
(0.066403 0.00287308 0)
(0.0652511 0.00288444 0)
(0.0640947 0.00289542 0)
(0.0629341 0.00290602 0)
(0.0617693 0.00291627 0)
(0.0606004 0.00292615 0)
(0.0594277 0.00293569 0)
(0.0582513 0.00294489 0)
(0.0570712 0.00295375 0)
(0.0558877 0.00296229 0)
(0.0547008 0.00297052 0)
(0.0535107 0.00297844 0)
(0.0523175 0.00298605 0)
(0.0511213 0.00299338 0)
(0.0499223 0.00300041 0)
(0.0487205 0.00300717 0)
(0.0475161 0.00301366 0)
(0.0463091 0.00301988 0)
(0.0450997 0.00302585 0)
(0.043888 0.00303156 0)
(0.042674 0.00303704 0)
(0.0414579 0.00304227 0)
(0.0402398 0.00304728 0)
(0.0390197 0.00305206 0)
(0.0377977 0.00305663 0)
(0.036574 0.00306098 0)
(0.0353486 0.00306513 0)
(0.0341216 0.00306908 0)
(0.032893 0.00307283 0)
(0.0316629 0.0030764 0)
(0.0304315 0.00307978 0)
(0.0291988 0.00308299 0)
(0.0279648 0.00308602 0)
(0.0267297 0.00308889 0)
(0.0254934 0.00309159 0)
(0.0242561 0.00309414 0)
(0.0230178 0.00309653 0)
(0.0217786 0.00309877 0)
(0.0205386 0.00310086 0)
(0.0192977 0.00310281 0)
(0.0180561 0.00310462 0)
(0.0168137 0.0031063 0)
(0.0155708 0.00310784 0)
(0.0143272 0.00310925 0)
(0.0130832 0.00311054 0)
(0.0118386 0.0031117 0)
(0.0105936 0.00311274 0)
(0.00934818 0.00311365 0)
(0.00810244 0.00311445 0)
(0.00685641 0.00311513 0)
(0.00561012 0.0031157 0)
(0.00436364 0.00311615 0)
(0.003117 0.00311649 0)
(0.00187024 0.00311671 0)
(0.000623421 0.00311683 0)
(0.000735879 -0.00515008 0)
(0.0022076 -0.00514984 0)
(0.00367923 -0.00514936 0)
(0.00515068 -0.00514865 0)
(0.00662191 -0.00514769 0)
(0.00809282 -0.00514649 0)
(0.00956337 -0.00514504 0)
(0.0110335 -0.00514333 0)
(0.0125031 -0.00514135 0)
(0.013972 -0.00513911 0)
(0.0154404 -0.00513659 0)
(0.0169079 -0.00513378 0)
(0.0183747 -0.00513068 0)
(0.0198405 -0.00512726 0)
(0.0213053 -0.00512353 0)
(0.0227691 -0.00511947 0)
(0.0242316 -0.00511505 0)
(0.0256928 -0.00511028 0)
(0.0271527 -0.00510514 0)
(0.028611 -0.0050996 0)
(0.0300677 -0.00509366 0)
(0.0315227 -0.00508729 0)
(0.0329758 -0.00508048 0)
(0.0344269 -0.00507321 0)
(0.035876 -0.00506547 0)
(0.0373227 -0.00505722 0)
(0.0387671 -0.00504845 0)
(0.0402089 -0.00503914 0)
(0.0416479 -0.00502926 0)
(0.0430842 -0.0050188 0)
(0.0445173 -0.00500774 0)
(0.0459473 -0.00499604 0)
(0.0473738 -0.00498368 0)
(0.0487967 -0.00497065 0)
(0.0502159 -0.00495692 0)
(0.051631 -0.00494245 0)
(0.053042 -0.00492724 0)
(0.0544485 -0.00491125 0)
(0.0558503 -0.00489445 0)
(0.0572473 -0.00487683 0)
(0.0586392 -0.00485835 0)
(0.0600257 -0.004839 0)
(0.0614065 -0.00481874 0)
(0.0627815 -0.00479756 0)
(0.0641503 -0.00477542 0)
(0.0655127 -0.0047523 0)
(0.0668683 -0.00472818 0)
(0.068217 -0.00470303 0)
(0.0695583 -0.00467683 0)
(0.0708921 -0.00464956 0)
(0.0722179 -0.00462119 0)
(0.0735355 -0.00459171 0)
(0.0748445 -0.00456108 0)
(0.0761446 -0.0045293 0)
(0.0774355 -0.00449633 0)
(0.0787169 -0.00446217 0)
(0.0799883 -0.00442679 0)
(0.0812494 -0.00439018 0)
(0.0825 -0.00435232 0)
(0.0837395 -0.00431319 0)
(0.0849678 -0.00427279 0)
(0.0861843 -0.0042311 0)
(0.0873887 -0.00418811 0)
(0.0885807 -0.00414381 0)
(0.0897598 -0.00409819 0)
(0.0909257 -0.00405125 0)
(0.092078 -0.00400298 0)
(0.0932163 -0.00395338 0)
(0.0943403 -0.00390244 0)
(0.0954495 -0.00385017 0)
(0.0965436 -0.00379657 0)
(0.0976222 -0.00374163 0)
(0.0986849 -0.00368538 0)
(0.0997314 -0.00362781 0)
(0.100761 -0.00356893 0)
(0.101774 -0.00350875 0)
(0.102769 -0.00344729 0)
(0.103747 -0.00338456 0)
(0.104706 -0.00332057 0)
(0.105647 -0.00325535 0)
(0.106569 -0.00318891 0)
(0.107472 -0.00312128 0)
(0.108356 -0.00305248 0)
(0.10922 -0.00298253 0)
(0.110063 -0.00291147 0)
(0.110886 -0.00283931 0)
(0.111688 -0.0027661 0)
(0.112469 -0.00269185 0)
(0.113229 -0.00261662 0)
(0.113967 -0.00254042 0)
(0.114682 -0.00246331 0)
(0.115376 -0.00238531 0)
(0.116048 -0.00230646 0)
(0.116696 -0.00222681 0)
(0.117322 -0.0021464 0)
(0.117924 -0.00206527 0)
(0.118504 -0.00198347 0)
(0.119059 -0.00190103 0)
(0.119591 -0.00181801 0)
(0.1201 -0.00173444 0)
(0.120584 -0.00165039 0)
(0.121044 -0.00156588 0)
(0.121479 -0.00148098 0)
(0.121891 -0.00139573 0)
(0.122278 -0.00131018 0)
(0.12264 -0.00122438 0)
(0.122978 -0.00113837 0)
(0.123291 -0.00105221 0)
(0.123579 -0.000965937 0)
(0.123843 -0.000879605 0)
(0.124082 -0.000793263 0)
(0.124296 -0.000706955 0)
(0.124486 -0.00062073 0)
(0.124651 -0.000534634 0)
(0.124791 -0.000448712 0)
(0.124907 -0.000363009 0)
(0.124998 -0.00027757 0)
(0.125064 -0.000192436 0)
(0.125107 -0.000107651 0)
(0.125125 -2.32554e-05 0)
(0.125119 6.07107e-05 0)
(0.125089 0.000144208 0)
(0.125035 0.000227199 0)
(0.124958 0.000309648 0)
(0.124857 0.000391518 0)
(0.124733 0.000472777 0)
(0.124585 0.00055339 0)
(0.124415 0.000633328 0)
(0.124222 0.00071256 0)
(0.124006 0.000791057 0)
(0.123768 0.000868792 0)
(0.123508 0.000945741 0)
(0.123226 0.00102188 0)
(0.122922 0.00109718 0)
(0.122596 0.00117163 0)
(0.12225 0.0012452 0)
(0.121883 0.00131787 0)
(0.121495 0.00138963 0)
(0.121086 0.00146047 0)
(0.120658 0.00153036 0)
(0.12021 0.0015993 0)
(0.119742 0.00166726 0)
(0.119255 0.00173425 0)
(0.118748 0.00180025 0)
(0.118223 0.00186526 0)
(0.11768 0.00192926 0)
(0.117118 0.00199224 0)
(0.116539 0.00205422 0)
(0.115942 0.00211517 0)
(0.115328 0.00217511 0)
(0.114697 0.00223402 0)
(0.114049 0.0022919 0)
(0.113385 0.00234876 0)
(0.112704 0.0024046 0)
(0.112008 0.00245941 0)
(0.111296 0.00251321 0)
(0.110569 0.00256598 0)
(0.109828 0.00261775 0)
(0.109071 0.0026685 0)
(0.1083 0.00271825 0)
(0.107515 0.002767 0)
(0.106717 0.00281476 0)
(0.105905 0.00286154 0)
(0.105079 0.00290734 0)
(0.104241 0.00295216 0)
(0.10339 0.00299603 0)
(0.102527 0.00303894 0)
(0.101651 0.00308091 0)
(0.100764 0.00312194 0)
(0.0998649 0.00316205 0)
(0.0989547 0.00320124 0)
(0.0980335 0.00323953 0)
(0.0971014 0.00327692 0)
(0.0961588 0.00331342 0)
(0.0952059 0.00334905 0)
(0.0942429 0.00338382 0)
(0.0932702 0.00341773 0)
(0.0922879 0.00345081 0)
(0.0912963 0.00348305 0)
(0.0902956 0.00351448 0)
(0.0892861 0.0035451 0)
(0.0882679 0.00357492 0)
(0.0872413 0.00360396 0)
(0.0862066 0.00363223 0)
(0.0851639 0.00365974 0)
(0.0841135 0.00368651 0)
(0.0830556 0.00371253 0)
(0.0819903 0.00373784 0)
(0.0809179 0.00376243 0)
(0.0798387 0.00378632 0)
(0.0787527 0.00380953 0)
(0.0776601 0.00383206 0)
(0.0765613 0.00385393 0)
(0.0754563 0.00387514 0)
(0.0743454 0.00389572 0)
(0.0732287 0.00391567 0)
(0.0721063 0.003935 0)
(0.0709786 0.00395373 0)
(0.0698456 0.00397187 0)
(0.0687076 0.00398943 0)
(0.0675646 0.00400642 0)
(0.0664168 0.00402286 0)
(0.0652645 0.00403875 0)
(0.0641077 0.00405411 0)
(0.0629466 0.00406894 0)
(0.0617813 0.00408327 0)
(0.0606121 0.0040971 0)
(0.0594389 0.00411044 0)
(0.0582621 0.00412331 0)
(0.0570816 0.00413571 0)
(0.0558977 0.00414766 0)
(0.0547105 0.00415916 0)
(0.05352 0.00417023 0)
(0.0523265 0.00418089 0)
(0.0511299 0.00419113 0)
(0.0499306 0.00420097 0)
(0.0487284 0.00421042 0)
(0.0475237 0.00421949 0)
(0.0463164 0.0042282 0)
(0.0451067 0.00423654 0)
(0.0438947 0.00424453 0)
(0.0426804 0.00425218 0)
(0.0414641 0.0042595 0)
(0.0402456 0.0042665 0)
(0.0390253 0.00427319 0)
(0.0378031 0.00427957 0)
(0.0365791 0.00428566 0)
(0.0353534 0.00429146 0)
(0.0341262 0.00429698 0)
(0.0328974 0.00430223 0)
(0.0316671 0.00430721 0)
(0.0304355 0.00431194 0)
(0.0292025 0.00431643 0)
(0.0279684 0.00432067 0)
(0.026733 0.00432467 0)
(0.0254966 0.00432845 0)
(0.0242591 0.00433201 0)
(0.0230206 0.00433535 0)
(0.0217812 0.00433848 0)
(0.020541 0.0043414 0)
(0.0192999 0.00434413 0)
(0.0180581 0.00434666 0)
(0.0168157 0.004349 0)
(0.0155726 0.00435116 0)
(0.0143289 0.00435313 0)
(0.0130846 0.00435493 0)
(0.0118399 0.00435655 0)
(0.0105947 0.004358 0)
(0.00934921 0.00435928 0)
(0.00810333 0.0043604 0)
(0.00685715 0.00436135 0)
(0.00561073 0.00436214 0)
(0.00436411 0.00436277 0)
(0.00311733 0.00436324 0)
(0.00187044 0.00436356 0)
(0.000623488 0.00436371 0)
(0.000736014 -0.00662194 0)
(0.00220801 -0.00662163 0)
(0.00367991 -0.00662102 0)
(0.00515164 -0.00662011 0)
(0.00662314 -0.00661889 0)
(0.00809435 -0.00661735 0)
(0.00956518 -0.00661549 0)
(0.0110356 -0.0066133 0)
(0.0125055 -0.00661078 0)
(0.0139748 -0.00660791 0)
(0.0154434 -0.00660468 0)
(0.0169113 -0.00660109 0)
(0.0183784 -0.00659712 0)
(0.0198446 -0.00659275 0)
(0.0213098 -0.00658797 0)
(0.0227739 -0.00658277 0)
(0.0242368 -0.00657712 0)
(0.0256985 -0.00657101 0)
(0.0271588 -0.00656442 0)
(0.0286176 -0.00655733 0)
(0.0300748 -0.00654972 0)
(0.0315302 -0.00654156 0)
(0.0329839 -0.00653284 0)
(0.0344355 -0.00652353 0)
(0.0358851 -0.0065136 0)
(0.0373325 -0.00650303 0)
(0.0387774 -0.00649179 0)
(0.0402198 -0.00647986 0)
(0.0416596 -0.0064672 0)
(0.0430965 -0.00645379 0)
(0.0445303 -0.0064396 0)
(0.045961 -0.0064246 0)
(0.0473883 -0.00640876 0)
(0.048812 -0.00639204 0)
(0.050232 -0.00637443 0)
(0.051648 -0.00635588 0)
(0.0530598 -0.00633636 0)
(0.0544672 -0.00631584 0)
(0.05587 -0.00629429 0)
(0.057268 -0.00627167 0)
(0.0586608 -0.00624796 0)
(0.0600483 -0.00622312 0)
(0.0614302 -0.00619712 0)
(0.0628063 -0.00616992 0)
(0.0641762 -0.0061415 0)
(0.0655397 -0.00611182 0)
(0.0668965 -0.00608085 0)
(0.0682464 -0.00604856 0)
(0.0695889 -0.00601491 0)
(0.0709239 -0.00597989 0)
(0.072251 -0.00594345 0)
(0.0735699 -0.00590558 0)
(0.0748802 -0.00586624 0)
(0.0761817 -0.00582541 0)
(0.0774739 -0.00578306 0)
(0.0787567 -0.00573916 0)
(0.0800295 -0.0056937 0)
(0.0812921 -0.00564666 0)
(0.082544 -0.005598 0)
(0.0837851 -0.00554772 0)
(0.0850147 -0.0054958 0)
(0.0862327 -0.00544221 0)
(0.0874387 -0.00538696 0)
(0.0886321 -0.00533001 0)
(0.0898128 -0.00527137 0)
(0.0909802 -0.00521103 0)
(0.092134 -0.00514897 0)
(0.0932739 -0.0050852 0)
(0.0943994 -0.00501971 0)
(0.0955101 -0.0049525 0)
(0.0966058 -0.00488358 0)
(0.0976859 -0.00481294 0)
(0.0987501 -0.0047406 0)
(0.099798 -0.00466657 0)
(0.100829 -0.00459084 0)
(0.101844 -0.00451345 0)
(0.10284 -0.00443441 0)
(0.103819 -0.00435372 0)
(0.10478 -0.00427143 0)
(0.105723 -0.00418754 0)
(0.106646 -0.00410208 0)
(0.107551 -0.00401508 0)
(0.108435 -0.00392658 0)
(0.1093 -0.0038366 0)
(0.110145 -0.00374518 0)
(0.110969 -0.00365236 0)
(0.111772 -0.00355817 0)
(0.112555 -0.00346266 0)
(0.113315 -0.00336586 0)
(0.114054 -0.00326784 0)
(0.114771 -0.00316862 0)
(0.115466 -0.00306827 0)
(0.116138 -0.00296683 0)
(0.116788 -0.00286435 0)
(0.117414 -0.00276089 0)
(0.118018 -0.00265651 0)
(0.118598 -0.00255125 0)
(0.119154 -0.00244518 0)
(0.119687 -0.00233836 0)
(0.120195 -0.00223084 0)
(0.12068 -0.00212269 0)
(0.121141 -0.00201396 0)
(0.121577 -0.00190472 0)
(0.121989 -0.00179503 0)
(0.122376 -0.00168496 0)
(0.122738 -0.00157455 0)
(0.123076 -0.00146389 0)
(0.12339 -0.00135302 0)
(0.123678 -0.00124202 0)
(0.123942 -0.00113094 0)
(0.124181 -0.00101985 0)
(0.124395 -0.000908801 0)
(0.124584 -0.000797861 0)
(0.124749 -0.000687088 0)
(0.124889 -0.00057654 0)
(0.125005 -0.000466275 0)
(0.125095 -0.00035635 0)
(0.125162 -0.000246821 0)
(0.125204 -0.000137741 0)
(0.125221 -2.91632e-05 0)
(0.125215 7.88599e-05 0)
(0.125184 0.000186279 0)
(0.12513 0.000293044 0)
(0.125052 0.00039911 0)
(0.12495 0.00050443 0)
(0.124825 0.000608961 0)
(0.124677 0.000712661 0)