/*--------------------------------*- C++ -*----------------------------------*\
| =========                 |                                                 |
| \\      /  F ield         | OpenFOAM: The Open Source CFD Toolbox           |
|  \\    /   O peration     | Version:  v2012                                 |
|   \\  /    A nd           | Website:  www.openfoam.com                      |
|    \\/     M anipulation  |                                                 |
\*---------------------------------------------------------------------------*/
FoamFile
{
    version     2.0;
    format      ascii;
    class       volScalarField;
    location    "4.7";
    object      W;
}
// * * * * * * * * * * * * * * * * * * * * * * * * * * * * * * * * * * * * * //

dimensions      [0 0 -1 0 0 0 0];


internalField   nonuniform List<scalar> 
65536
(
6.87705e-21
2.10149e-20
3.63283e-20
5.36796e-20
7.40483e-20
9.85803e-20
1.28643e-19
1.65889e-19
2.12328e-19
2.70416e-19
3.43161e-19
4.3425e-19
5.48207e-19
6.90577e-19
8.68148e-19
1.08922e-18
1.36393e-18
1.70461e-18
2.12627e-18
2.64709e-18
3.2891e-18
4.07887e-18
5.04842e-18
6.23623e-18
7.6884e-18
9.46009e-18
1.16171e-17
1.42378e-17
1.7415e-17
2.12589e-17
2.58996e-17
3.14902e-17
3.8211e-17
4.62729e-17
5.5923e-17
6.74491e-17
8.11861e-17
9.75225e-17
1.16908e-16
1.3986e-16
1.66977e-16
1.98943e-16
2.36541e-16
2.80664e-16
3.32331e-16
3.92693e-16
4.63055e-16
5.44888e-16
6.39844e-16
7.49775e-16
8.76751e-16
1.02307e-15
1.1913e-15
1.38425e-15
1.60504e-15
1.85708e-15
2.14413e-15
2.47025e-15
2.83988e-15
3.25778e-15
3.72912e-15
4.25942e-15
4.85458e-15
5.52084e-15
6.26484e-15
7.09353e-15
8.01417e-15
9.03434e-15
1.01618e-14
1.14046e-14
1.27709e-14
1.42689e-14
1.59068e-14
1.76927e-14
1.96346e-14
2.17401e-14
2.40165e-14
2.64705e-14
2.91081e-14
3.19345e-14
3.49541e-14
3.81699e-14
4.15839e-14
4.51966e-14
4.9007e-14
5.30121e-14
5.72075e-14
6.15865e-14
6.61405e-14
7.08586e-14
7.57278e-14
8.07326e-14
8.58554e-14
9.10761e-14
9.63725e-14
1.0172e-13
1.07092e-13
1.1246e-13
1.17794e-13
1.23062e-13
1.28231e-13
1.33267e-13
1.38135e-13
1.428e-13
1.47227e-13
1.51381e-13
1.5523e-13
1.58741e-13
1.61883e-13
1.64628e-13
1.66951e-13
1.68828e-13
1.7024e-13
1.71172e-13
1.71612e-13
1.71551e-13
1.70988e-13
1.69922e-13
1.68361e-13
1.66314e-13
1.63796e-13
1.60827e-13
1.57431e-13
1.53634e-13
1.49468e-13
1.44968e-13
1.40171e-13
1.35116e-13
1.29846e-13
1.24404e-13
1.18834e-13
1.13181e-13
1.0749e-13
1.01805e-13
9.61694e-14
9.06258e-14
8.52145e-14
7.99736e-14
7.4939e-14
7.0144e-14
6.56187e-14
6.13906e-14
5.74835e-14
5.39182e-14
5.07121e-14
4.78791e-14
4.54299e-14
4.33717e-14
4.17082e-14
4.04402e-14
3.95648e-14
3.90763e-14
3.89656e-14
3.92207e-14
3.98265e-14
4.07649e-14
4.2015e-14
4.35533e-14
4.53533e-14
4.73862e-14
4.96207e-14
5.20234e-14
5.45588e-14
5.71898e-14
5.98779e-14
6.25835e-14
6.52665e-14
6.78868e-14
7.04044e-14
7.27803e-14
7.49772e-14
7.69595e-14
7.86944e-14
8.01522e-14
8.13069e-14
8.21368e-14
8.26244e-14
8.27576e-14
8.2529e-14
8.19367e-14
8.09842e-14
7.96801e-14
7.80381e-14
7.60767e-14
7.38187e-14
7.12909e-14
6.85231e-14
6.55481e-14
6.24003e-14
5.91156e-14
5.57302e-14
5.22803e-14
4.88012e-14
4.53267e-14
4.18884e-14
3.85157e-14
3.52348e-14
3.20688e-14
2.90375e-14
2.6157e-14
2.34399e-14
2.08954e-14
1.85295e-14
1.63448e-14
1.43413e-14
1.25165e-14
1.08654e-14
9.38147e-15
8.05652e-15
6.88121e-15
5.84539e-15
4.93838e-15
4.14924e-15
3.46702e-15
2.88098e-15
2.38074e-15
1.95642e-15
1.59876e-15
1.29918e-15
1.04981e-15
8.43538e-16
6.73971e-16
5.35444e-16
4.22979e-16
3.32237e-16
2.59476e-16
2.01494e-16
1.55573e-16
1.1943e-16
9.11575e-17
6.9178e-17
5.21958e-17
3.91555e-17
2.92035e-17
2.16551e-17
1.59649e-17
1.17017e-17
8.52716e-18
6.17782e-18
4.44976e-18
3.18645e-18
2.26855e-18
1.60566e-18
1.12987e-18
7.90432e-19
5.49743e-19
3.801e-19
2.61239e-19
1.7843e-19
1.21032e-19
8.13982e-20
5.40526e-20
3.50784e-20
2.16574e-20
1.17254e-20
3.70547e-21
2.29125e-20
7.00151e-20
1.21031e-19
1.78833e-19
2.46679e-19
3.28383e-19
4.28498e-19
5.52518e-19
7.07132e-19
9.00507e-19
1.14265e-18
1.44582e-18
1.82506e-18
2.2988e-18
2.88961e-18
3.62507e-18
4.53886e-18
5.67197e-18
7.07424e-18
8.80609e-18
1.09406e-17
1.35661e-17
1.67888e-17
2.07364e-17
2.5562e-17
3.14485e-17
3.86143e-17
4.73189e-17
5.78706e-17
7.06345e-17
8.60415e-17
1.04599e-16
1.26905e-16
1.53656e-16
1.85672e-16
2.23905e-16
2.69464e-16
3.23632e-16
3.87897e-16
4.63973e-16
5.53831e-16
6.59734e-16
7.84269e-16
9.30386e-16
1.10144e-15
1.30124e-15
1.53407e-15
1.8048e-15
2.11885e-15
2.48234e-15
2.90207e-15
3.38561e-15
3.94136e-15
4.57861e-15
5.30758e-15
6.13949e-15
7.08662e-15
8.16231e-15
9.38106e-15
1.07585e-14
1.23116e-14
1.40583e-14
1.60178e-14
1.82106e-14
2.06583e-14
2.33835e-14
2.64099e-14
2.97619e-14
3.3465e-14
3.75451e-14
4.20284e-14
4.69416e-14
5.2311e-14
5.8163e-14
6.45228e-14
7.1415e-14
7.88627e-14
8.6887e-14
9.5507e-14
1.04739e-13
1.14596e-13
1.25088e-13
1.36219e-13
1.47991e-13
1.60399e-13
1.73433e-13
1.87077e-13
2.01308e-13
2.16098e-13
2.31409e-13
2.47198e-13
2.63415e-13
2.8e-13
2.96888e-13
3.14006e-13
3.31273e-13
3.48602e-13
3.65902e-13
3.83072e-13
4.0001e-13
4.16609e-13
4.32758e-13
4.48345e-13
4.63257e-13
4.77383e-13
4.90612e-13
5.02836e-13
5.13952e-13
5.23864e-13
5.32482e-13
5.39725e-13
5.4552e-13
5.49809e-13
5.52542e-13
5.53684e-13
5.53213e-13
5.51121e-13
5.47414e-13
5.42114e-13
5.35258e-13
5.26895e-13
5.17089e-13
5.0592e-13
4.93477e-13
4.79863e-13
4.65189e-13
4.49577e-13
4.33156e-13
4.16061e-13
3.98432e-13
3.80411e-13
3.62142e-13
3.43769e-13
3.25434e-13
3.07275e-13
2.89427e-13
2.72017e-13
2.55168e-13
2.38993e-13
2.23595e-13
2.09072e-13
1.95508e-13
1.82979e-13
1.71548e-13
1.6127e-13
1.52188e-13
1.44333e-13
1.37727e-13
1.3238e-13
1.28294e-13
1.25457e-13
1.23849e-13
1.23442e-13
1.24195e-13
1.26058e-13
1.28974e-13
1.32876e-13
1.37688e-13
1.43325e-13
1.49696e-13
1.56701e-13
1.64233e-13
1.72181e-13
1.80426e-13
1.88848e-13
1.97322e-13
2.0572e-13
2.13917e-13
2.21786e-13
2.29207e-13
2.3606e-13
2.42235e-13
2.4763e-13
2.52151e-13
2.55717e-13
2.58261e-13
2.5973e-13
2.60084e-13
2.59302e-13
2.5738e-13
2.54328e-13
2.50175e-13
2.44964e-13
2.38753e-13
2.31616e-13
2.23637e-13
2.14909e-13
2.05535e-13
1.95625e-13
1.8529e-13
1.74645e-13
1.63802e-13
1.52873e-13
1.41962e-13
1.3117e-13
1.20587e-13
1.10296e-13
1.00369e-13
9.08661e-14
8.18389e-14
7.33261e-14
6.53563e-14
5.79474e-14
5.11077e-14
4.48367e-14
3.9126e-14
3.39602e-14
2.93183e-14
2.51744e-14
2.14992e-14
1.82607e-14
1.54255e-14
1.2959e-14
1.08271e-14
8.99601e-15
7.4332e-15
6.10777e-15
4.99071e-15
4.05516e-15
3.27651e-15
2.63249e-15
2.10313e-15
1.67073e-15
1.3197e-15
1.03651e-15
8.09455e-16
6.28532e-16
4.85259e-16
3.72499e-16
2.84302e-16
2.1574e-16
1.62771e-16
1.22099e-16
9.10616e-17
6.75215e-17
4.97771e-17
3.64834e-17
2.65851e-17
1.92599e-17
1.38721e-17
9.93353e-18
7.07185e-18
5.00532e-18
3.52206e-18
2.46392e-18
1.71363e-18
1.18481e-18
8.14304e-19
5.56179e-19
3.77265e-19
2.53723e-19
1.68486e-19
1.09342e-19
6.75084e-20
3.65496e-20
1.15508e-20
4.64901e-20
1.42059e-19
2.45559e-19
3.62807e-19
5.00405e-19
6.66077e-19
8.69037e-19
1.12041e-18
1.43373e-18
1.82552e-18
2.31602e-18
2.93002e-18
3.69793e-18
4.65701e-18
5.85286e-18
7.3412e-18
9.19002e-18
1.14821e-17
1.4318e-17
1.78198e-17
2.21347e-17
2.74409e-17
3.39526e-17
4.19272e-17
5.16728e-17
6.35582e-17
7.80226e-17
9.55887e-17
1.16877e-16
1.4262e-16
1.73686e-16
2.11094e-16
2.56042e-16
3.09934e-16
3.7441e-16
4.51381e-16
5.43068e-16
6.52046e-16
7.8129e-16
9.34232e-16
1.11481e-15
1.32756e-15
1.57763e-15
1.87092e-15
2.21412e-15
2.61481e-15
3.08157e-15
3.62402e-15
4.25301e-15
4.98064e-15
5.82044e-15
6.78742e-15
7.89824e-15
9.17127e-15
1.06267e-14
1.22868e-14
1.41756e-14
1.63196e-14
1.87472e-14
2.14893e-14
2.45789e-14
2.80514e-14
3.19444e-14
3.62979e-14
4.1154e-14
4.65567e-14
5.25519e-14
5.91873e-14
6.65119e-14
7.45755e-14
8.3429e-14
9.31232e-14
1.03709e-13
1.15235e-13
1.2775e-13
1.41301e-13
1.5593e-13
1.71676e-13
1.88575e-13
2.06655e-13
2.25939e-13
2.46442e-13
2.68172e-13
2.91127e-13
3.15294e-13
3.40651e-13
3.67161e-13
3.94778e-13
4.23442e-13
4.53076e-13
4.83595e-13
5.14894e-13
5.46857e-13
5.79353e-13
6.12238e-13
6.45354e-13
6.7853e-13
7.11585e-13
7.44328e-13
7.76558e-13
8.08069e-13
8.38649e-13
8.68083e-13
8.96156e-13
9.22653e-13
9.47367e-13
9.70095e-13
9.90643e-13
1.00883e-12
1.0245e-12
1.03749e-12
1.04767e-12
1.05494e-12
1.05922e-12
1.06044e-12
1.05857e-12
1.05361e-12
1.04557e-12
1.0345e-12
1.02049e-12
1.00364e-12
9.84068e-13
9.61943e-13
9.3744e-13
9.10759e-13
8.82118e-13
8.51754e-13
8.19914e-13
7.86857e-13
7.52851e-13
7.18167e-13
6.83078e-13
6.47856e-13
6.12767e-13
5.78072e-13
5.44021e-13
5.10853e-13
4.78794e-13
4.48053e-13
4.18823e-13
3.91277e-13
3.65572e-13
3.41842e-13
3.20204e-13
3.00751e-13
2.83559e-13
2.68682e-13
2.56153e-13
2.45987e-13
2.38179e-13
2.32706e-13
2.29524e-13
2.28573e-13
2.29776e-13
2.33036e-13
2.38242e-13
2.45266e-13
2.53964e-13
2.64178e-13
2.75736e-13
2.88451e-13
3.02127e-13
3.16555e-13
3.31517e-13
3.4679e-13
3.62145e-13
3.77348e-13
3.92169e-13
4.06378e-13
4.19752e-13
4.32079e-13
4.43155e-13
4.52796e-13
4.60835e-13
4.67125e-13
4.71546e-13
4.74003e-13
4.74428e-13
4.72786e-13
4.69069e-13
4.63302e-13
4.55537e-13
4.45856e-13
4.3437e-13
4.2121e-13
4.06533e-13
3.9051e-13
3.73331e-13
3.55193e-13
3.363e-13
3.16861e-13
2.97081e-13
2.7716e-13
2.57289e-13
2.37647e-13
2.184e-13
1.99696e-13
1.81663e-13
1.64412e-13
1.48033e-13
1.32595e-13
1.18148e-13
1.04725e-13
9.2338e-14
8.0986e-14
7.06523e-14
6.13083e-14
5.29148e-14
4.54247e-14
3.87839e-14
3.29342e-14
2.78144e-14
2.3362e-14
1.95146e-14
1.62109e-14
1.33921e-14
1.1002e-14
8.98817e-15
7.30196e-15
5.89887e-15
4.73863e-15
3.78516e-15
3.00647e-15
2.37446e-15
1.86467e-15
1.456e-15
1.13043e-15
8.7264e-16
6.69788e-16
5.11145e-16
3.87838e-16
2.92586e-16
2.19457e-16
1.63657e-16
1.21341e-16
8.9446e-17
6.55536e-17
4.77652e-17
3.46021e-17
2.49211e-17
1.78446e-17
1.27033e-17
8.99081e-18
6.32629e-18
4.42555e-18
3.07784e-18
2.128e-18
1.46252e-18
9.98908e-19
6.77572e-19
4.5569e-19
3.02604e-19
1.96383e-19
1.21249e-19
6.56464e-20
2.07467e-20
8.51547e-20
2.60198e-19
4.49744e-19
6.64427e-19
9.16313e-19
1.21952e-18
1.59087e-18
2.05068e-18
2.62366e-18
3.33997e-18
4.23652e-18
5.35854e-18
6.76147e-18
8.51321e-18
1.06969e-17
1.34139e-17
1.67882e-17
2.09703e-17
2.61434e-17
3.25292e-17
4.03958e-17
5.00667e-17
6.19313e-17
7.64568e-17
9.42029e-17
1.15838e-16
1.4216e-16
1.74115e-16
2.12828e-16
2.59627e-16
3.1608e-16
3.84033e-16
4.65653e-16
5.63475e-16
6.80462e-16
8.20061e-16
9.86281e-16
1.18376e-15
1.41786e-15
1.69475e-15
2.02153e-15
2.40632e-15
2.8584e-15
3.38833e-15
4.00812e-15
4.73134e-15
5.57331e-15
6.55127e-15
7.68457e-15
8.9948e-15
1.05061e-14
1.22451e-14
1.42414e-14
1.65277e-14
1.91398e-14
2.2117e-14
2.5502e-14
2.93413e-14
3.36851e-14
3.85877e-14
4.41071e-14
5.03054e-14
5.72483e-14
6.50055e-14
7.36503e-14
8.32593e-14
9.39121e-14
1.05691e-13
1.1868e-13
1.32965e-13
1.48633e-13
1.6577e-13
1.84462e-13
2.04792e-13
2.26842e-13
2.50687e-13
2.76398e-13
3.04039e-13
3.33664e-13
3.65319e-13
3.99036e-13
4.34836e-13
4.72725e-13
5.1269e-13
5.54704e-13
5.98717e-13
6.4466e-13
6.92443e-13
7.41952e-13
7.93049e-13
8.45575e-13
8.99344e-13
9.54146e-13
1.00975e-12
1.0659e-12
1.12231e-12
1.17869e-12
1.23473e-12
1.29009e-12
1.34442e-12
1.39738e-12
1.44859e-12
1.4977e-12
1.54434e-12
1.58814e-12
1.62877e-12
1.66589e-12
1.69917e-12
1.72832e-12
1.75307e-12
1.77319e-12
1.78846e-12
1.79873e-12
1.80386e-12
1.80378e-12
1.79845e-12
1.78787e-12
1.77211e-12
1.75126e-12
1.72547e-12
1.69495e-12
1.65992e-12
1.62067e-12
1.57751e-12
1.5308e-12
1.48091e-12
1.42824e-12
1.37324e-12
1.31632e-12
1.25796e-12
1.19861e-12
1.13871e-12
1.07874e-12
1.01913e-12
9.60314e-13
9.02701e-13
8.46684e-13
7.92631e-13
7.40879e-13
6.91739e-13
6.45489e-13
6.02375e-13
5.62609e-13
5.26369e-13
4.93799e-13
4.65009e-13
4.40077e-13
4.19045e-13
4.01924e-13
3.88695e-13
3.79306e-13
3.73677e-13
3.71698e-13
3.73233e-13
3.78115e-13
3.86155e-13
3.97136e-13
4.10819e-13
4.26939e-13
4.45213e-13
4.65335e-13
4.86981e-13
5.09814e-13
5.33481e-13
5.57619e-13
5.81858e-13
6.05827e-13
6.29154e-13
6.51474e-13
6.72432e-13
6.9169e-13
7.08928e-13
7.23855e-13
7.36209e-13
7.45761e-13
7.52326e-13
7.55757e-13
7.55955e-13
7.52867e-13
7.46488e-13
7.36861e-13
7.24078e-13
7.08275e-13
6.89628e-13
6.68355e-13
6.44704e-13
6.18955e-13
5.91406e-13
5.62374e-13
5.32184e-13
5.01166e-13
4.69644e-13
4.37936e-13
4.06342e-13
3.75144e-13
3.44602e-13
3.14946e-13
2.86379e-13
2.59072e-13
2.33163e-13
2.0876e-13
1.8594e-13
1.64749e-13
1.45206e-13
1.27307e-13
1.11022e-13
9.63044e-14
8.30909e-14
7.13051e-14
6.08608e-14
5.16648e-14
4.36197e-14
3.66262e-14
3.05854e-14
2.54004e-14
2.09779e-14
1.72294e-14
1.40721e-14
1.14293e-14
9.23097e-15
7.41365e-15
5.92063e-15
4.70164e-15
3.71252e-15
2.91489e-15
2.27564e-15
1.76647e-15
1.36341e-15
1.04631e-15
7.98361e-16
6.05681e-16
4.56865e-16
3.42633e-16
2.55483e-16
1.89402e-16
1.39603e-16
1.02303e-16
7.45356e-17
5.39907e-17
3.88823e-17
2.78395e-17
1.98174e-17
1.40251e-17
9.86814e-18
6.90297e-18
4.80066e-18
3.31906e-18
2.28106e-18
1.55796e-18
1.05677e-18
7.10717e-19
4.7196e-19
3.06295e-19
1.89113e-19
1.02391e-19
3.23598e-20
1.50947e-19
4.61218e-19
7.97147e-19
1.17755e-18
1.62375e-18
2.16072e-18
2.8182e-18
3.63206e-18
4.64595e-18
5.9131e-18
7.49868e-18
9.48248e-18
1.19623e-17
1.50578e-17
1.89154e-17
2.37141e-17
2.96718e-17
3.70537e-17
4.61821e-17
5.7447e-17
7.13199e-17
8.83694e-17
1.09279e-16
1.34871e-16
1.66125e-16
2.04217e-16
2.50542e-16
3.06762e-16
3.74845e-16
4.57117e-16
5.56322e-16
6.75687e-16
8.18999e-16
9.90686e-16
1.19592e-15
1.44071e-15
1.73204e-15
2.078e-15
2.4879e-15
2.97249e-15
3.54409e-15
4.2168e-15
5.00671e-15
5.93212e-15
7.01381e-15
8.27525e-15
9.74291e-15
1.14465e-14
1.34195e-14
1.56989e-14
1.83262e-14
2.13473e-14
2.48129e-14
2.8779e-14
3.33067e-14
3.8463e-14
4.43209e-14
5.09594e-14
5.84639e-14
6.69262e-14
7.64445e-14
8.71235e-14
9.90741e-14
1.12413e-13
1.27264e-13
1.43754e-13
1.62015e-13
1.82185e-13
2.04403e-13
2.2881e-13
2.55547e-13
2.84758e-13
3.16579e-13
3.51146e-13
3.88587e-13
4.29023e-13
4.72565e-13
5.19309e-13
5.69337e-13
6.22714e-13
6.79483e-13
7.39666e-13
8.03257e-13
8.70225e-13
9.40505e-13
1.014e-12
1.09059e-12
1.17009e-12
1.2523e-12
1.33699e-12
1.42386e-12
1.5126e-12
1.60284e-12
1.69419e-12
1.7862e-12
1.87841e-12
1.97032e-12
2.0614e-12
2.15109e-12
2.23883e-12
2.32403e-12
2.40609e-12
2.48442e-12
2.55843e-12
2.62755e-12
2.69121e-12
2.74888e-12
2.80006e-12
2.84429e-12
2.88115e-12
2.91029e-12
2.9314e-12
2.94424e-12
2.94865e-12
2.94452e-12
2.93182e-12
2.91062e-12
2.88103e-12
2.84326e-12
2.79759e-12
2.74436e-12
2.68399e-12
2.61697e-12
2.54382e-12
2.46514e-12
2.38157e-12
2.29378e-12
2.20246e-12
2.10834e-12
2.01215e-12
1.91464e-12
1.81653e-12
1.71856e-12
1.62142e-12
1.5258e-12
1.43235e-12
1.34166e-12
1.25433e-12
1.17085e-12
1.09172e-12
1.01734e-12
9.48096e-13
8.84288e-13
8.26179e-13
7.73973e-13
7.27819e-13
6.87816e-13
6.54007e-13
6.26388e-13
6.04906e-13
5.89459e-13
5.79901e-13
5.76042e-13
5.7765e-13
5.84452e-13
5.96137e-13
6.12356e-13
6.32723e-13
6.56821e-13
6.84201e-13
7.14384e-13
7.46867e-13
7.81122e-13
8.16607e-13
8.52763e-13
8.89024e-13
9.24822e-13
9.59591e-13
9.9278e-13
1.02385e-12
1.05229e-12
1.07763e-12
1.09943e-12
1.11731e-12
1.13091e-12
1.13999e-12
1.14431e-12
1.14375e-12
1.13823e-12
1.12776e-12
1.11242e-12
1.09234e-12
1.06775e-12
1.03893e-12
1.0062e-12
9.69948e-13
9.30599e-13
8.88607e-13
8.44451e-13
7.98622e-13
7.51616e-13
7.0392e-13
6.56009e-13
6.08331e-13
5.61308e-13
5.15324e-13
4.70721e-13
4.27797e-13
3.86803e-13
3.47943e-13
3.11373e-13
2.77201e-13
2.45493e-13
2.16272e-13
1.89527e-13
1.6521e-13
1.43247e-13
1.23541e-13
1.05975e-13
9.04166e-14
7.67252e-14
6.47536e-14
5.4352e-14
4.53717e-14
3.76672e-14
3.10987e-14
2.55337e-14
2.08482e-14
1.69278e-14
1.3668e-14
1.09741e-14
8.76172e-15
6.95601e-15
5.49129e-15
4.31049e-15
3.36442e-15
2.61108e-15
2.01489e-15
1.54597e-15
1.1794e-15
8.94605e-16
6.7469e-16
5.05915e-16
3.7718e-16
2.79584e-16
2.06047e-16
1.50977e-16
1.09986e-16
7.9662e-17
5.73648e-17
4.10695e-17
2.92329e-17
2.06873e-17
1.45549e-17
1.0181e-17
7.08006e-18
4.89483e-18
3.36395e-18
2.29753e-18
1.55842e-18
1.04809e-18
6.96005e-19
4.51703e-19
2.78897e-19
1.51005e-19
4.77245e-20
2.63829e-19
8.06098e-19
1.39312e-18
2.05772e-18
2.83708e-18
3.77471e-18
4.92242e-18
6.34273e-18
8.1116e-18
1.03217e-17
1.30864e-17
1.65446e-17
2.08661e-17
2.62592e-17
3.29781e-17
4.13337e-17
5.17043e-17
6.45505e-17
8.04309e-17
1.00022e-16
1.24142e-16
1.53774e-16
1.90104e-16
2.34553e-16
2.88819e-16
3.54932e-16
4.35307e-16
5.32813e-16
6.50847e-16
7.93425e-16
9.65277e-16
1.17197e-15
1.42002e-15
1.71705e-15
2.07195e-15
2.49506e-15
2.99838e-15
3.59577e-15
4.30323e-15
5.13916e-15
6.12464e-15
7.2838e-15
8.64414e-15
1.02369e-14
1.20975e-14
1.4266e-14
1.67873e-14
1.97121e-14
2.30969e-14
2.70049e-14
3.1506e-14
3.66781e-14
4.26066e-14
4.93859e-14
5.71191e-14
6.59187e-14
7.59072e-14
8.72169e-14
9.99906e-14
1.14381e-13
1.30553e-13
1.48679e-13
1.68943e-13
1.91539e-13
2.16668e-13
2.44542e-13
2.75377e-13
3.09396e-13
3.46825e-13
3.87893e-13
4.32828e-13
4.81857e-13
5.35201e-13
5.93071e-13
6.55669e-13
7.23181e-13
7.95773e-13
8.73591e-13
9.56751e-13
1.04534e-12
1.13941e-12
1.23898e-12
1.34401e-12
1.45443e-12
1.5701e-12
1.69084e-12
1.81642e-12
1.94652e-12
2.0808e-12
2.21882e-12
2.36009e-12
2.50407e-12
2.65014e-12
2.79762e-12
2.9458e-12
3.09388e-12
3.24103e-12
3.3864e-12
3.52907e-12
3.66811e-12
3.80258e-12
3.93152e-12
4.05399e-12
4.16905e-12
4.27577e-12
4.3733e-12
4.4608e-12
4.5375e-12
4.6027e-12
4.65578e-12
4.69621e-12
4.72356e-12
4.7375e-12
4.73782e-12
4.72442e-12
4.69732e-12
4.65665e-12
4.6027e-12
4.53583e-12
4.45655e-12
4.36547e-12
4.2633e-12
4.15086e-12
4.02904e-12
3.89882e-12
3.76124e-12
3.61739e-12
3.4684e-12
3.31543e-12
3.15965e-12
3.00222e-12
2.84432e-12
2.68707e-12
2.53158e-12
2.37888e-12
2.22998e-12
2.08581e-12
1.94723e-12
1.81502e-12
1.68989e-12
1.57247e-12
1.46327e-12
1.36277e-12
1.2713e-12
1.18916e-12
1.11654e-12
1.05354e-12
1.00019e-12
9.56454e-13
9.2221e-13
8.97267e-13
8.81369e-13
8.74193e-13
8.75355e-13
8.84412e-13
9.00865e-13
9.24161e-13
9.53695e-13
9.88817e-13
1.02883e-12
1.07301e-12
1.12057e-12
1.17072e-12
1.22264e-12
1.27548e-12
1.3284e-12
1.38055e-12
1.43109e-12
1.4792e-12
1.52409e-12
1.56501e-12
1.60126e-12
1.63221e-12
1.6573e-12
1.67605e-12
1.68806e-12
1.69305e-12
1.69083e-12
1.6813e-12
1.66451e-12
1.64056e-12
1.60971e-12
1.57227e-12
1.52867e-12
1.47942e-12
1.42507e-12
1.36628e-12
1.3037e-12
1.23806e-12
1.17007e-12
1.10046e-12
1.02995e-12
9.59223e-13
8.88943e-13
8.19718e-13
7.52104e-13
6.86595e-13
6.2362e-13
5.63537e-13
5.06637e-13
4.53138e-13
4.03191e-13
3.56883e-13
3.14243e-13
2.75244e-13
2.39812e-13
2.07833e-13
1.79159e-13
1.53615e-13
1.31005e-13
1.1112e-13
9.37428e-14
7.8653e-14
6.56319e-14
5.44664e-14
4.49519e-14
3.68948e-14
3.01143e-14
2.44434e-14
1.97299e-14
1.58364e-14
1.26401e-14
1.00322e-14
7.9176e-15
6.21344e-15
4.84851e-15
3.76197e-15
2.90234e-15
2.2264e-15
1.69815e-15
1.28784e-15
9.71079e-16
7.28037e-16
5.42692e-16
4.02209e-16
2.96378e-16
2.17136e-16
1.58164e-16
1.14544e-16
8.24751e-17
5.90415e-17
4.20218e-17
2.97354e-17
2.09196e-17
1.46322e-17
1.01751e-17
7.03435e-18
4.83419e-18
3.30163e-18
2.23949e-18
1.50614e-18
1.00018e-18
6.49125e-19
4.008e-19
2.17011e-19
6.85866e-20
4.57196e-19
1.39686e-18
2.41393e-18
3.56514e-18
4.91481e-18
6.53809e-18
8.52451e-18
1.0982e-17
1.40418e-17
1.78637e-17
2.26433e-17
2.86201e-17
3.60871e-17
4.5403e-17
5.70059e-17
7.1431e-17
8.93297e-17
1.11494e-16
1.38886e-16
1.72668e-16
2.14245e-16
2.65309e-16
3.27894e-16
4.04439e-16
4.97858e-16
6.11631e-16
7.49897e-16
9.1757e-16
1.12047e-15
1.36545e-15
1.66063e-15
2.01549e-15
2.44117e-15
2.95069e-15
3.5592e-15
4.28434e-15
5.14652e-15
6.16934e-15
7.37999e-15
8.80974e-15
1.04944e-14
1.24748e-14
1.47977e-14
1.75158e-14
2.06891e-14
2.43851e-14
2.86799e-14
3.36586e-14
3.94165e-14
4.60597e-14
5.37058e-14
6.24851e-14
7.25409e-14
8.40308e-14
9.71269e-14
1.12017e-13
1.28904e-13
1.48008e-13
1.69567e-13
1.93832e-13
2.21073e-13
2.51578e-13
2.85647e-13
3.23598e-13
3.6576e-13
4.12476e-13
4.64097e-13
5.20985e-13
5.83502e-13
6.52015e-13
7.26889e-13
8.08481e-13
8.97139e-13
9.93192e-13
1.09695e-12
1.2087e-12
1.32868e-12
1.45711e-12
1.59416e-12
1.73992e-12
1.89445e-12
2.05774e-12
2.2297e-12
2.41016e-12
2.59887e-12
2.79548e-12
2.99957e-12
3.21061e-12
3.42795e-12
3.65087e-12
3.87854e-12
4.11002e-12
4.34428e-12
4.58021e-12
4.81659e-12
5.05214e-12
5.28551e-12
5.51527e-12
5.73996e-12
5.95809e-12
6.16815e-12
6.36861e-12
6.55797e-12
6.73477e-12
6.89757e-12
7.04503e-12
7.17588e-12
7.28895e-12
7.38319e-12
7.45769e-12
7.51169e-12
7.54458e-12
7.55595e-12
7.54554e-12
7.5133e-12
7.45935e-12
7.38402e-12
7.28783e-12
7.17148e-12
7.03584e-12
6.88198e-12
6.71109e-12
6.52454e-12
6.32379e-12
6.11046e-12
5.88622e-12
5.65282e-12
5.41208e-12
5.16583e-12
4.91592e-12
4.66418e-12
4.41242e-12
4.16239e-12
3.91579e-12
3.67422e-12
3.43919e-12
3.21211e-12
2.99427e-12
2.78683e-12
2.59083e-12
2.40717e-12
2.23661e-12
2.07978e-12
1.93718e-12
1.80916e-12
1.69595e-12
1.59767e-12
1.5143e-12
1.44572e-12
1.39167e-12
1.35183e-12
1.32575e-12
1.31288e-12
1.31261e-12
1.32422e-12
1.34693e-12
1.37986e-12
1.42207e-12
1.47257e-12
1.5303e-12
1.59412e-12
1.66289e-12
1.73539e-12
1.8104e-12
1.88666e-12
1.96292e-12
2.03793e-12
2.11045e-12
2.17927e-12
2.24326e-12
2.30131e-12
2.35243e-12
2.39571e-12
2.43033e-12
2.45563e-12
2.47105e-12
2.4762e-12
2.47082e-12
2.45483e-12
2.42828e-12
2.39138e-12
2.3445e-12
2.28814e-12
2.22294e-12
2.14964e-12
2.0691e-12
1.98224e-12
1.89005e-12
1.79358e-12
1.69387e-12
1.59198e-12
1.48894e-12
1.38575e-12
1.28337e-12
1.18265e-12
1.0844e-12
9.89327e-13
8.9803e-13
8.11019e-13
7.28698e-13
6.51372e-13
5.79247e-13
5.12435e-13
4.50965e-13
3.94789e-13
3.43791e-13
2.97797e-13
2.56585e-13
2.19897e-13
1.87444e-13
1.5892e-13
1.34009e-13
1.1239e-13
9.37447e-14
7.77655e-14
6.41561e-14
5.26371e-14
4.29478e-14
3.4848e-14
2.81187e-14
2.25624e-14
1.80029e-14
1.42843e-14
1.12702e-14
8.84195e-15
6.89777e-15
5.35065e-15
4.12701e-15
3.16512e-15
2.41362e-15
1.83005e-15
1.37966e-15
1.03417e-15
7.70756e-16
5.71144e-16
4.20798e-16
3.08247e-16
2.24502e-16
1.62567e-16
1.17041e-16
8.37777e-17
5.96222e-17
4.21865e-17
2.96772e-17
2.07566e-17
1.44332e-17
9.97774e-18
6.85678e-18
4.68291e-18
3.17638e-18
2.13623e-18
1.41863e-18
9.2071e-19
5.68501e-19
3.07818e-19
9.72876e-20
7.86856e-19
2.40398e-18
4.15406e-18
6.13452e-18
8.45581e-18
1.12469e-17
1.46614e-17
1.88845e-17
2.4141e-17
3.0705e-17
3.89118e-17
4.91712e-17
6.19852e-17
7.79675e-17
9.78683e-17
1.22602e-16
1.53284e-16
1.91267e-16
2.38194e-16
2.9605e-16
3.67235e-16
4.54636e-16
5.61721e-16
6.92647e-16
8.52383e-16
1.04685e-15
1.28311e-15
1.5695e-15
1.91592e-15
2.33406e-15
2.83764e-15
3.4428e-15
4.16844e-15
5.03662e-15
6.07302e-15
7.30747e-15
8.77453e-15
1.05141e-14
1.25721e-14
1.50012e-14
1.7862e-14
2.12232e-14
2.51633e-14
2.97713e-14
3.51477e-14
4.14059e-14
4.86734e-14
5.70928e-14
6.68234e-14
7.80424e-14
9.0946e-14
1.05751e-13
1.22696e-13
1.42043e-13
1.64077e-13
1.89109e-13
2.17475e-13
2.49538e-13
2.85687e-13
3.26338e-13
3.71933e-13
4.22941e-13
4.79854e-13
5.43186e-13
6.13473e-13
6.91269e-13
7.77141e-13
8.71665e-13
9.75425e-13
1.089e-12
1.21297e-12
1.3479e-12
1.49432e-12
1.65275e-12
1.82365e-12
2.00746e-12
2.20454e-12
2.41518e-12
2.63961e-12
2.87794e-12
3.13022e-12
3.39635e-12
3.67614e-12
3.96924e-12
4.27519e-12
4.59336e-12
4.92299e-12
5.26315e-12
5.61275e-12
5.97056e-12
6.33515e-12
6.70497e-12
7.07831e-12
7.45332e-12
7.82801e-12
8.20029e-12
8.56794e-12
8.92869e-12
9.28019e-12
9.62004e-12
9.94584e-12
1.02552e-11
1.05458e-11
1.08152e-11
1.10614e-11
1.12822e-11
1.14758e-11
1.16403e-11
1.17742e-11
1.18761e-11
1.19452e-11
1.19804e-11
1.19813e-11
1.19476e-11
1.18794e-11
1.17771e-11
1.16414e-11
1.14731e-11
1.12735e-11
1.10443e-11
1.0787e-11
1.05039e-11
1.0197e-11
9.8689e-12
9.52209e-12
9.15929e-12
8.7833e-12
8.39699e-12
8.00325e-12
7.60498e-12
7.20503e-12
6.80618e-12
6.41115e-12
6.0225e-12
5.64269e-12
5.27399e-12
4.9185e-12
4.57814e-12
4.25462e-12
3.94944e-12
3.66389e-12
3.39906e-12
3.1558e-12
2.93478e-12
2.73645e-12
2.56105e-12
2.40867e-12
2.27918e-12
2.17231e-12
2.08759e-12
2.02444e-12
1.9821e-12
1.95968e-12
1.95619e-12
1.97049e-12
2.00133e-12
2.04737e-12
2.10716e-12
2.17916e-12
2.26176e-12
2.35328e-12
2.45195e-12
2.55599e-12
2.66356e-12
2.77282e-12
2.88191e-12
2.98899e-12
3.09225e-12
3.18996e-12
3.28045e-12
3.36214e-12
3.4336e-12
3.49353e-12
3.54078e-12
3.57441e-12
3.59366e-12
3.59798e-12
3.58706e-12
3.56079e-12
3.5193e-12
3.46294e-12
3.39226e-12
3.30803e-12
3.2112e-12
3.10287e-12
2.9843e-12
2.85683e-12
2.72192e-12
2.58108e-12
2.43581e-12
2.28765e-12
2.13808e-12
1.98853e-12
1.84035e-12
1.6948e-12
1.55298e-12
1.41591e-12
1.28444e-12
1.15927e-12
1.04098e-12
9.29961e-13
8.26509e-13
7.30763e-13
6.42747e-13
5.62377e-13
4.89472e-13
4.23769e-13
3.64941e-13
3.12606e-13
2.66344e-13
2.2571e-13
1.90244e-13
1.59482e-13
1.32968e-13
1.10258e-13
9.09257e-14
7.45716e-14
6.0822e-14
4.93334e-14
3.9793e-14
3.19192e-14
2.54606e-14
2.01953e-14
1.59291e-14
1.24936e-14
9.74381e-15
7.55637e-15
5.82685e-15
4.46773e-15
3.40617e-15
2.58208e-15
1.94622e-15
1.45857e-15
1.08687e-15
8.05252e-16
5.93188e-16
4.34466e-16
3.16386e-16
2.29075e-16
1.64904e-16
1.18027e-16
8.39887e-17
5.94226e-17
4.17995e-17
2.92332e-17
2.03265e-17
1.40512e-17
9.65581e-18
6.5944e-18
4.47289e-18
3.00817e-18
1.99768e-18
1.29655e-18
8.00581e-19
4.33487e-19
1.37008e-19
1.34562e-18
4.11096e-18
7.10322e-18
1.04887e-17
1.44558e-17
1.92244e-17
2.50566e-17
3.22678e-17
4.12412e-17
5.24437e-17
6.64459e-17
8.39458e-17
1.05797e-16
1.33045e-16
1.66963e-16
2.09107e-16
2.61371e-16
3.26055e-16
4.05946e-16
5.04416e-16
6.25534e-16
7.74196e-16
9.56282e-16
1.17884e-15
1.45027e-15
1.78062e-15
2.1818e-15
2.66795e-15
3.25579e-15
3.96504e-15
4.81891e-15
5.8446e-15
7.07399e-15
8.54423e-15
1.02986e-14
1.23873e-14
1.48684e-14
1.7809e-14
2.12862e-14
2.53884e-14
3.0217e-14
3.58873e-14
4.25305e-14
5.02954e-14
5.93499e-14
6.98832e-14
8.21077e-14
9.62609e-14
1.12608e-13
1.31442e-13
1.53089e-13
1.77909e-13
2.06296e-13
2.38682e-13
2.75538e-13
3.17374e-13
3.64745e-13
4.18243e-13
4.78508e-13
5.46218e-13
6.22094e-13
7.06897e-13
8.01426e-13
9.06513e-13
1.02302e-12
1.15184e-12
1.29388e-12
1.45007e-12
1.62131e-12
1.80854e-12
2.01266e-12
2.23455e-12
2.47503e-12
2.7349e-12
3.01487e-12
3.31555e-12
3.63749e-12
3.9811e-12
4.34664e-12
4.73424e-12
5.14387e-12
5.57529e-12
6.02808e-12
6.5016e-12
6.995e-12
7.50716e-12
8.03674e-12
8.58215e-12
9.14154e-12
9.7128e-12
1.02936e-11
1.08813e-11
1.14732e-11
1.20661e-11
1.26569e-11
1.32421e-11
1.38182e-11
1.43815e-11
1.49283e-11
1.54548e-11
1.59572e-11
1.64317e-11
1.68747e-11
1.72826e-11
1.76521e-11
1.798e-11
1.82634e-11
1.84996e-11
1.86866e-11
1.88222e-11
1.89052e-11
1.89344e-11
1.89092e-11
1.88295e-11
1.86956e-11
1.85083e-11
1.82689e-11
1.79792e-11
1.76413e-11
1.72578e-11
1.68318e-11
1.63665e-11
1.58656e-11
1.53331e-11
1.4773e-11
1.41898e-11
1.35878e-11
1.29715e-11
1.23455e-11
1.17143e-11
1.10823e-11
1.04537e-11
9.83281e-12
9.2234e-12
8.62921e-12
8.05364e-12
7.49983e-12
6.97058e-12
6.46841e-12
5.99546e-12
5.55359e-12
5.14427e-12
4.7687e-12
4.42772e-12
4.12186e-12
3.85137e-12
3.61621e-12
3.41606e-12
3.25035e-12
3.11828e-12
3.01882e-12
2.95072e-12
2.91256e-12
2.90272e-12
2.91941e-12
2.9607e-12
3.02449e-12
3.10856e-12
3.21059e-12
3.32812e-12
3.45862e-12
3.59948e-12
3.74801e-12
3.90151e-12
4.05725e-12
4.21252e-12
4.36462e-12
4.51093e-12
4.64894e-12
4.77622e-12
4.89054e-12
4.98983e-12
5.07225e-12
5.13619e-12
5.18033e-12
5.20362e-12
5.20534e-12
5.18506e-12
5.14271e-12
5.07852e-12
4.99304e-12
4.88714e-12
4.76195e-12
4.61888e-12
4.45956e-12
4.28583e-12
4.09965e-12
3.90312e-12
3.69841e-12
3.48772e-12
3.27323e-12
3.05707e-12
2.84128e-12
2.62777e-12
2.41832e-12
2.21452e-12
2.01776e-12
1.82925e-12
1.64997e-12
1.4807e-12
1.32201e-12
1.17426e-12
1.03764e-12
9.12155e-13
7.97664e-13
6.93889e-13
6.00437e-13
5.16823e-13
4.42489e-13
3.76826e-13
3.19187e-13
2.6891e-13
2.2533e-13
1.87788e-13
1.5565e-13
1.28308e-13
1.05189e-13
8.57619e-14
6.95371e-14
5.607e-14
4.49602e-14
3.58512e-14
2.84282e-14
2.24161e-14
1.75764e-14
1.37042e-14
1.06248e-14
8.19093e-15
6.27888e-15
4.78589e-15
3.62721e-15
2.73341e-15
2.04813e-15
1.52591e-15
1.13034e-15
8.32535e-16
6.09679e-16
4.4392e-16
3.21374e-16
2.31321e-16
1.65546e-16
1.17793e-16
8.33323e-17
5.8614e-17
4.09902e-17
2.84999e-17
1.97005e-17
1.35375e-17
9.24517e-18
6.27078e-18
4.21731e-18
2.80067e-18
1.81773e-18
1.12242e-18
6.07764e-19
1.92092e-19
2.28693e-18
6.98646e-18
1.20709e-17
1.78223e-17
2.45601e-17
3.26572e-17
4.25574e-17
5.47952e-17
7.00194e-17
8.90206e-17
1.12764e-16
1.42431e-16
1.79466e-16
2.25634e-16
2.8309e-16
3.54462e-16
4.42948e-16
5.5243e-16
6.87615e-16
8.5419e-16
1.05902e-15
1.31035e-15
1.6181e-15
1.99412e-15
2.45258e-15
3.01037e-15
3.68753e-15
4.50782e-15
5.49934e-15
6.69521e-15
8.13437e-15
9.86247e-15
1.19329e-14
1.4408e-14
1.73601e-14
2.08733e-14
2.50447e-14
2.99863e-14
3.58268e-14
4.27139e-14
5.08163e-14
6.03262e-14
7.14619e-14
8.44706e-14
9.96313e-14
1.17258e-13
1.37702e-13
1.61357e-13
1.88661e-13
2.20099e-13
2.56209e-13
2.97582e-13
3.44868e-13
3.98774e-13
4.60075e-13
5.29605e-13
6.0827e-13
6.97039e-13
7.96949e-13
9.09106e-13
1.03468e-12
1.17489e-12
1.33104e-12
1.50446e-12
1.69654e-12
1.9087e-12
2.14239e-12
2.39906e-12
2.68018e-12
2.98718e-12
3.32149e-12
3.68446e-12
4.07736e-12
4.5014e-12
4.95763e-12
5.44697e-12
5.97017e-12
6.52778e-12
7.12012e-12
7.74727e-12
8.40902e-12
9.10487e-12
9.83397e-12
1.05952e-11
1.13869e-11
1.22072e-11
1.30538e-11
1.3924e-11
1.48147e-11
1.57223e-11
1.6643e-11
1.75725e-11
1.85061e-11
1.9439e-11
2.03659e-11
2.12813e-11
2.21795e-11
2.30547e-11
2.3901e-11
2.47123e-11
2.54828e-11
2.62066e-11
2.6878e-11
2.74916e-11
2.80421e-11
2.8525e-11
2.89358e-11
2.92707e-11
2.95265e-11
2.97005e-11
2.97907e-11
2.97958e-11
2.97152e-11
2.95491e-11
2.92984e-11
2.89647e-11
2.85503e-11
2.80584e-11
2.74927e-11
2.68575e-11
2.61578e-11
2.53991e-11
2.45872e-11
2.37286e-11
2.28298e-11
2.18976e-11
2.09391e-11
1.99613e-11
1.89713e-11
1.79759e-11
1.69821e-11
1.59963e-11
1.50249e-11
1.40737e-11
1.31483e-11
1.22538e-11
1.13948e-11
1.05753e-11
9.79915e-12
9.06927e-12
8.38829e-12
7.75828e-12
7.18077e-12
6.65685e-12
6.18709e-12