/*--------------------------------*- C++ -*----------------------------------*\
| =========                 |                                                 |
| \\      /  F ield         | OpenFOAM: The Open Source CFD Toolbox           |
|  \\    /   O peration     | Version:  v2012                                 |
|   \\  /    A nd           | Website:  www.openfoam.com                      |
|    \\/     M anipulation  |                                                 |
\*---------------------------------------------------------------------------*/
FoamFile
{
    version     2.0;
    format      ascii;
    class       volVectorField;
    location    "2.4";
    object      U;
}
// * * * * * * * * * * * * * * * * * * * * * * * * * * * * * * * * * * * * * //

dimensions      [0 1 -1 0 0 0 0];


internalField   nonuniform List<vector> 
65536
(
(0.000707652 -0.000707632 0)
(0.00212291 -0.000707585 0)
(0.00353803 -0.000707497 0)
(0.00495294 -0.000707364 0)
(0.00636753 -0.000707186 0)
(0.00778172 -0.000706963 0)
(0.00919542 -0.000706694 0)
(0.0106085 -0.000706379 0)
(0.012021 -0.000706016 0)
(0.0134326 -0.000705606 0)
(0.0148434 -0.000705147 0)
(0.0162533 -0.000704638 0)
(0.017662 -0.000704078 0)
(0.0190696 -0.000703465 0)
(0.020476 -0.000702799 0)
(0.0218809 -0.000702079 0)
(0.0232843 -0.000701301 0)
(0.0246861 -0.000700466 0)
(0.0260862 -0.000699571 0)
(0.0274845 -0.000698615 0)
(0.0288808 -0.000697595 0)
(0.0302749 -0.00069651 0)
(0.0316669 -0.000695358 0)
(0.0330564 -0.000694137 0)
(0.0344435 -0.000692844 0)
(0.0358279 -0.000691478 0)
(0.0372095 -0.000690036 0)
(0.0385881 -0.000688517 0)
(0.0399636 -0.000686916 0)
(0.0413358 -0.000685233 0)
(0.0427046 -0.000683465 0)
(0.0440698 -0.000681609 0)
(0.0454311 -0.000679663 0)
(0.0467885 -0.000677624 0)
(0.0481417 -0.000675489 0)
(0.0494906 -0.000673257 0)
(0.0508349 -0.000670924 0)
(0.0521744 -0.000668487 0)
(0.0535089 -0.000665945 0)
(0.0548383 -0.000663294 0)
(0.0561622 -0.000660532 0)
(0.0574805 -0.000657657 0)
(0.0587929 -0.000654665 0)
(0.0600993 -0.000651554 0)
(0.0613993 -0.000648322 0)
(0.0626927 -0.000644966 0)
(0.0639793 -0.000641484 0)
(0.0652587 -0.000637874 0)
(0.0665309 -0.000634132 0)
(0.0677954 -0.000630257 0)
(0.069052 -0.000626247 0)
(0.0703005 -0.000622099 0)
(0.0715406 -0.000617811 0)
(0.0727719 -0.000613383 0)
(0.0739942 -0.000608811 0)
(0.0752073 -0.000604094 0)
(0.0764108 -0.000599231 0)
(0.0776044 -0.000594219 0)
(0.0787878 -0.000589059 0)
(0.0799607 -0.000583747 0)
(0.0811229 -0.000578284 0)
(0.082274 -0.000572669 0)
(0.0834138 -0.0005669 0)
(0.0845418 -0.000560977 0)
(0.0856578 -0.0005549 0)
(0.0867615 -0.000548668 0)
(0.0878526 -0.000542281 0)
(0.0889308 -0.000535739 0)
(0.0899958 -0.000529042 0)
(0.0910471 -0.000522191 0)
(0.0920847 -0.000515187 0)
(0.093108 -0.000508029 0)
(0.0941169 -0.000500719 0)
(0.0951111 -0.000493258 0)
(0.0960901 -0.000485647 0)
(0.0970538 -0.000477888 0)
(0.0980018 -0.000469982 0)
(0.0989339 -0.000461931 0)
(0.0998497 -0.000453737 0)
(0.100749 -0.000445403 0)
(0.101631 -0.00043693 0)
(0.102497 -0.000428322 0)
(0.103345 -0.00041958 0)
(0.104175 -0.000410708 0)
(0.104988 -0.000401709 0)
(0.105782 -0.000392586 0)
(0.106558 -0.000383342 0)
(0.107316 -0.000373982 0)
(0.108054 -0.000364507 0)
(0.108774 -0.000354923 0)
(0.109474 -0.000345232 0)
(0.110155 -0.00033544 0)
(0.110816 -0.00032555 0)
(0.111457 -0.000315566 0)
(0.112078 -0.000305493 0)
(0.112679 -0.000295335 0)
(0.11326 -0.000285096 0)
(0.11382 -0.000274781 0)
(0.114359 -0.000264395 0)
(0.114877 -0.000253942 0)
(0.115375 -0.000243427 0)
(0.115851 -0.000232855 0)
(0.116306 -0.00022223 0)
(0.11674 -0.000211558 0)
(0.117153 -0.000200842 0)
(0.117544 -0.000190087 0)
(0.117913 -0.000179299 0)
(0.118261 -0.000168483 0)
(0.118587 -0.000157642 0)
(0.118891 -0.000146781 0)
(0.119174 -0.000135906 0)
(0.119435 -0.00012502 0)
(0.119674 -0.000114128 0)
(0.119891 -0.000103235 0)
(0.120087 -9.23444e-05 0)
(0.120261 -8.14614e-05 0)
(0.120413 -7.05898e-05 0)
(0.120543 -5.97339e-05 0)
(0.120652 -4.88975e-05 0)
(0.120739 -3.80848e-05 0)
(0.120804 -2.72995e-05 0)
(0.120848 -1.65454e-05 0)
(0.12087 -5.82613e-06 0)
(0.120871 4.85476e-06 0)
(0.120851 1.54938e-05 0)
(0.120809 2.60878e-05 0)
(0.120746 3.66333e-05 0)
(0.120663 4.71274e-05 0)
(0.120558 5.7567e-05 0)
(0.120432 6.79492e-05 0)
(0.120286 7.82712e-05 0)
(0.120119 8.85304e-05 0)
(0.119932 9.87242e-05 0)
(0.119724 0.00010885 0)
(0.119496 0.000118906 0)
(0.119249 0.000128889 0)
(0.118981 0.000138797 0)
(0.118693 0.000148629 0)
(0.118386 0.000158382 0)
(0.11806 0.000168055 0)
(0.117714 0.000177645 0)
(0.117349 0.00018715 0)
(0.116965 0.00019657 0)
(0.116563 0.000205903 0)
(0.116141 0.000215147 0)
(0.115702 0.000224301 0)
(0.115244 0.000233363 0)
(0.114768 0.000242332 0)
(0.114275 0.000251208 0)
(0.113763 0.000259988 0)
(0.113235 0.000268672 0)
(0.112689 0.000277258 0)
(0.112126 0.000285747 0)
(0.111546 0.000294136 0)
(0.110949 0.000302424 0)
(0.110336 0.000310612 0)
(0.109706 0.000318699 0)
(0.109061 0.000326682 0)
(0.1084 0.000334563 0)
(0.107723 0.000342339 0)
(0.10703 0.000350011 0)
(0.106322 0.000357578 0)
(0.1056 0.00036504 0)
(0.104862 0.000372395 0)
(0.10411 0.000379644 0)
(0.103343 0.000386785 0)
(0.102563 0.000393819 0)
(0.101768 0.000400745 0)
(0.10096 0.000407563 0)
(0.100138 0.000414273 0)
(0.0993025 0.000420873 0)
(0.0984541 0.000427365 0)
(0.0975929 0.000433748 0)
(0.096719 0.000440021 0)
(0.0958327 0.000446185 0)
(0.0949342 0.000452239 0)
(0.0940237 0.000458184 0)
(0.0931014 0.000464019 0)
(0.0921675 0.000469746 0)
(0.0912223 0.000475362 0)
(0.0902659 0.00048087 0)
(0.0892987 0.000486269 0)
(0.0883207 0.000491558 0)
(0.0873323 0.00049674 0)
(0.0863337 0.000501813 0)
(0.085325 0.000506779 0)
(0.0843065 0.000511637 0)
(0.0832783 0.000516389 0)
(0.0822408 0.000521034 0)
(0.0811941 0.000525573 0)
(0.0801384 0.000530007 0)
(0.079074 0.000534337 0)
(0.078001 0.000538563 0)
(0.0769196 0.000542686 0)
(0.0758301 0.000546707 0)
(0.0747327 0.000550626 0)
(0.0736275 0.000554445 0)
(0.0725148 0.000558164 0)
(0.0713947 0.000561785 0)
(0.0702676 0.000565308 0)
(0.0691334 0.000568734 0)
(0.0679925 0.000572065 0)
(0.0668451 0.000575302 0)
(0.0656912 0.000578446 0)
(0.0645312 0.000581497 0)
(0.0633651 0.000584458 0)
(0.0621933 0.00058733 0)
(0.0610157 0.000590113 0)
(0.0598327 0.000592809 0)
(0.0586444 0.00059542 0)
(0.057451 0.000597947 0)
(0.0562525 0.000600391 0)
(0.0550493 0.000602753 0)
(0.0538414 0.000605036 0)
(0.0526291 0.00060724 0)
(0.0514124 0.000609367 0)
(0.0501915 0.000611418 0)
(0.0489667 0.000613395 0)
(0.0477379 0.000615299 0)
(0.0465054 0.000617131 0)
(0.0452693 0.000618894 0)
(0.0440297 0.000620588 0)
(0.0427869 0.000622216 0)
(0.0415408 0.000623777 0)
(0.0402917 0.000625274 0)
(0.0390397 0.000626709 0)
(0.0377848 0.000628082 0)
(0.0365273 0.000629394 0)
(0.0352672 0.000630648 0)
(0.0340046 0.000631845 0)
(0.0327397 0.000632985 0)
(0.0314726 0.000634071 0)
(0.0302034 0.000635102 0)
(0.0289321 0.000636081 0)
(0.027659 0.000637009 0)
(0.0263841 0.000637886 0)
(0.0251074 0.000638715 0)
(0.0238291 0.000639495 0)
(0.0225494 0.000640228 0)
(0.0212682 0.000640914 0)
(0.0199857 0.000641556 0)
(0.0187019 0.000642153 0)
(0.017417 0.000642706 0)
(0.016131 0.000643217 0)
(0.0148441 0.000643685 0)
(0.0135563 0.000644112 0)
(0.0122676 0.000644499 0)
(0.0109782 0.000644845 0)
(0.00968819 0.000645151 0)
(0.00839758 0.000645418 0)
(0.00710648 0.000645646 0)
(0.00581496 0.000645835 0)
(0.0045231 0.000645987 0)
(0.00323097 0.000646099 0)
(0.00193866 0.000646175 0)
(0.000646231 0.000646213 0)
(0.000707693 -0.00212293 0)
(0.00212304 -0.0021228 0)
(0.00353825 -0.00212253 0)
(0.00495324 -0.00212213 0)
(0.00636792 -0.0021216 0)
(0.0077822 -0.00212093 0)
(0.00919599 -0.00212012 0)
(0.0106092 -0.00211918 0)
(0.0120217 -0.00211809 0)
(0.0134335 -0.00211686 0)
(0.0148444 -0.00211549 0)
(0.0162543 -0.00211396 0)
(0.0176632 -0.00211228 0)
(0.0190709 -0.00211045 0)
(0.0204773 -0.00210845 0)
(0.0218824 -0.00210629 0)
(0.0232859 -0.00210396 0)
(0.0246878 -0.00210145 0)
(0.0260881 -0.00209877 0)
(0.0274864 -0.0020959 0)
(0.0288828 -0.00209285 0)
(0.0302771 -0.00208959 0)
(0.0316692 -0.00208614 0)
(0.0330589 -0.00208248 0)
(0.0344461 -0.0020786 0)
(0.0358306 -0.00207451 0)
(0.0372124 -0.00207018 0)
(0.0385912 -0.00206563 0)
(0.0399668 -0.00206083 0)
(0.0413392 -0.00205578 0)
(0.0427082 -0.00205048 0)
(0.0440735 -0.00204491 0)
(0.0454351 -0.00203908 0)
(0.0467926 -0.00203296 0)
(0.048146 -0.00202656 0)
(0.0494951 -0.00201987 0)
(0.0508396 -0.00201287 0)
(0.0521793 -0.00200556 0)
(0.053514 -0.00199794 0)
(0.0548436 -0.00198999 0)
(0.0561678 -0.00198171 0)
(0.0574863 -0.00197308 0)
(0.058799 -0.00196411 0)
(0.0601055 -0.00195478 0)
(0.0614058 -0.00194509 0)
(0.0626994 -0.00193502 0)
(0.0639863 -0.00192458 0)
(0.065266 -0.00191375 0)
(0.0665384 -0.00190253 0)
(0.0678032 -0.0018909 0)
(0.0690601 -0.00187888 0)
(0.0703089 -0.00186643 0)
(0.0715492 -0.00185357 0)
(0.0727808 -0.00184029 0)
(0.0740034 -0.00182658 0)
(0.0752168 -0.00181243 0)
(0.0764206 -0.00179784 0)
(0.0776144 -0.00178281 0)
(0.0787982 -0.00176733 0)
(0.0799714 -0.00175139 0)
(0.0811339 -0.001735 0)
(0.0822853 -0.00171816 0)
(0.0834254 -0.00170085 0)
(0.0845537 -0.00168309 0)
(0.08567 -0.00166485 0)
(0.0867741 -0.00164616 0)
(0.0878655 -0.001627 0)
(0.088944 -0.00160737 0)
(0.0900092 -0.00158728 0)
(0.0910609 -0.00156673 0)
(0.0920988 -0.00154571 0)
(0.0931224 -0.00152424 0)
(0.0941316 -0.00150231 0)
(0.0951261 -0.00147992 0)
(0.0961054 -0.00145709 0)
(0.0970694 -0.00143381 0)
(0.0980177 -0.00141009 0)
(0.09895 -0.00138594 0)
(0.0998661 -0.00136135 0)
(0.100766 -0.00133635 0)
(0.101648 -0.00131093 0)
(0.102514 -0.0012851 0)
(0.103362 -0.00125887 0)
(0.104193 -0.00123225 0)
(0.105006 -0.00120525 0)
(0.105801 -0.00117788 0)
(0.106577 -0.00115015 0)
(0.107334 -0.00112206 0)
(0.108073 -0.00109363 0)
(0.108793 -0.00106488 0)
(0.109494 -0.0010358 0)
(0.110175 -0.00100642 0)
(0.110836 -0.000976745 0)
(0.111477 -0.00094679 0)
(0.112099 -0.000916566 0)
(0.1127 -0.000886087 0)
(0.11328 -0.000855366 0)
(0.11384 -0.000824418 0)
(0.11438 -0.000793255 0)
(0.114898 -0.000761892 0)
(0.115396 -0.000730343 0)
(0.115872 -0.000698621 0)
(0.116328 -0.000666742 0)
(0.116761 -0.000634719 0)
(0.117174 -0.000602566 0)
(0.117565 -0.000570299 0)
(0.117934 -0.00053793 0)
(0.118282 -0.000505475 0)
(0.118609 -0.000472948 0)
(0.118913 -0.000440361 0)
(0.119196 -0.00040773 0)
(0.119457 -0.000375068 0)
(0.119696 -0.000342388 0)
(0.119913 -0.000309705 0)
(0.120109 -0.000277029 0)
(0.120283 -0.000244376 0)
(0.120435 -0.000211758 0)
(0.120565 -0.000179186 0)
(0.120673 -0.000146673 0)
(0.12076 -0.000114231 0)
(0.120826 -8.18711e-05 0)
(0.120869 -4.96052e-05 0)
(0.120892 -1.74438e-05 0)
(0.120893 1.46022e-05 0)
(0.120872 4.65228e-05 0)
(0.12083 7.83077e-05 0)
(0.120767 0.000109947 0)
(0.120684 0.000141433 0)
(0.120579 0.000172754 0)
(0.120453 0.000203904 0)
(0.120307 0.000234873 0)
(0.12014 0.000265653 0)
(0.119952 0.000296237 0)
(0.119744 0.000326617 0)
(0.119516 0.000356786 0)
(0.119268 0.000386738 0)
(0.119 0.000416465 0)
(0.118713 0.000445962 0)
(0.118406 0.000475223 0)
(0.118079 0.000504242 0)
(0.117733 0.000533014 0)
(0.117368 0.000561533 0)
(0.116984 0.000589795 0)
(0.116581 0.000617795 0)
(0.11616 0.000645528 0)
(0.11572 0.000672991 0)
(0.115262 0.000700178 0)
(0.114786 0.000727088 0)
(0.114292 0.000753715 0)
(0.113781 0.000780056 0)
(0.113252 0.000806109 0)
(0.112706 0.00083187 0)
(0.112142 0.000857335 0)
(0.111562 0.000882503 0)
(0.110965 0.000907371 0)
(0.110352 0.000931936 0)
(0.109722 0.000956195 0)
(0.109077 0.000980147 0)
(0.108415 0.00100379 0)
(0.107738 0.00102712 0)
(0.107045 0.00105014 0)
(0.106337 0.00107284 0)
(0.105615 0.00109522 0)
(0.104877 0.00111729 0)
(0.104124 0.00113904 0)
(0.103358 0.00116046 0)
(0.102577 0.00118156 0)
(0.101782 0.00120234 0)
(0.100973 0.0012228 0)
(0.100151 0.00124292 0)
(0.0993156 0.00126273 0)
(0.0984671 0.0012822 0)
(0.0976056 0.00130135 0)
(0.0967315 0.00132017 0)
(0.095845 0.00133866 0)
(0.0949462 0.00135682 0)
(0.0940355 0.00137466 0)
(0.093113 0.00139217 0)
(0.0921789 0.00140934 0)
(0.0912334 0.00142619 0)
(0.0902769 0.00144272 0)
(0.0893094 0.00145891 0)
(0.0883313 0.00147478 0)
(0.0873426 0.00149033 0)
(0.0863438 0.00150555 0)
(0.0853349 0.00152044 0)
(0.0843161 0.00153502 0)
(0.0832878 0.00154927 0)
(0.08225 0.00156321 0)
(0.0812031 0.00157682 0)
(0.0801472 0.00159013 0)
(0.0790826 0.00160311 0)
(0.0780094 0.00161579 0)
(0.0769278 0.00162816 0)
(0.0758381 0.00164022 0)
(0.0747405 0.00165198 0)
(0.0736351 0.00166343 0)
(0.0725222 0.00167459 0)
(0.0714019 0.00168545 0)
(0.0702746 0.00169602 0)
(0.0691402 0.0017063 0)
(0.0679991 0.00171629 0)
(0.0668515 0.001726 0)
(0.0656975 0.00173543 0)
(0.0645373 0.00174458 0)
(0.063371 0.00175346 0)
(0.062199 0.00176208 0)
(0.0610213 0.00177043 0)
(0.0598381 0.00177851 0)
(0.0586496 0.00178635 0)
(0.057456 0.00179392 0)
(0.0562574 0.00180126 0)
(0.055054 0.00180834 0)
(0.053846 0.00181519 0)
(0.0526335 0.0018218 0)
(0.0514166 0.00182818 0)
(0.0501956 0.00183433 0)
(0.0489706 0.00184026 0)
(0.0477417 0.00184597 0)
(0.046509 0.00185147 0)
(0.0452728 0.00185675 0)
(0.0440331 0.00186183 0)
(0.0427901 0.00186671 0)
(0.0415439 0.0018714 0)
(0.0402947 0.00187589 0)
(0.0390425 0.00188019 0)
(0.0377875 0.00188431 0)
(0.0365299 0.00188824 0)
(0.0352696 0.00189201 0)
(0.034007 0.00189559 0)
(0.032742 0.00189901 0)
(0.0314748 0.00190227 0)
(0.0302054 0.00190536 0)
(0.0289341 0.0019083 0)
(0.0276608 0.00191108 0)
(0.0263858 0.00191371 0)
(0.025109 0.00191619 0)
(0.0238307 0.00191853 0)
(0.0225508 0.00192073 0)
(0.0212695 0.00192279 0)
(0.0199869 0.00192471 0)
(0.0187031 0.0019265 0)
(0.0174181 0.00192816 0)
(0.016132 0.0019297 0)
(0.014845 0.0019311 0)
(0.0135571 0.00193238 0)
(0.0122684 0.00193354 0)
(0.0109789 0.00193458 0)
(0.00968877 0.00193549 0)
(0.00839808 0.00193629 0)
(0.0071069 0.00193698 0)
(0.0058153 0.00193755 0)
(0.00452336 0.001938 0)
(0.00323116 0.00193834 0)
(0.00193877 0.00193856 0)
(0.000646269 0.00193868 0)
(0.000707782 -0.00353836 0)
(0.0021233 -0.00353814 0)
(0.00353869 -0.0035377 0)
(0.00495386 -0.00353703 0)
(0.00636872 -0.00353615 0)
(0.00778319 -0.00353503 0)
(0.00919716 -0.00353369 0)
(0.0106106 -0.00353212 0)
(0.0120233 -0.00353031 0)
(0.0134352 -0.00352827 0)
(0.0148463 -0.00352598 0)
(0.0162565 -0.00352344 0)
(0.0176655 -0.00352064 0)
(0.0190735 -0.00351759 0)
(0.0204801 -0.00351426 0)
(0.0218854 -0.00351067 0)
(0.0232891 -0.00350679 0)
(0.0246913 -0.00350262 0)
(0.0260918 -0.00349815 0)
(0.0274904 -0.00349338 0)
(0.028887 -0.00348829 0)
(0.0302816 -0.00348288 0)
(0.0316739 -0.00347713 0)
(0.0330639 -0.00347103 0)
(0.0344514 -0.00346458 0)
(0.0358363 -0.00345776 0)
(0.0372183 -0.00345057 0)
(0.0385974 -0.00344298 0)
(0.0399734 -0.00343499 0)
(0.0413462 -0.00342659 0)
(0.0427155 -0.00341776 0)
(0.0440811 -0.00340849 0)
(0.0454431 -0.00339877 0)
(0.046801 -0.00338859 0)
(0.0481548 -0.00337793 0)
(0.0495042 -0.00336678 0)
(0.0508491 -0.00335513 0)
(0.0521893 -0.00334296 0)
(0.0535244 -0.00333026 0)
(0.0548544 -0.00331702 0)
(0.0561791 -0.00330322 0)
(0.057498 -0.00328886 0)
(0.0588112 -0.00327391 0)
(0.0601182 -0.00325837 0)
(0.061419 -0.00324223 0)
(0.0627131 -0.00322546 0)
(0.0640005 -0.00320806 0)
(0.0652807 -0.00319002 0)
(0.0665537 -0.00317132 0)
(0.067819 -0.00315196 0)
(0.0690765 -0.00313192 0)
(0.0703258 -0.00311119 0)
(0.0715667 -0.00308976 0)
(0.0727989 -0.00306763 0)
(0.0740221 -0.00304478 0)
(0.075236 -0.0030212 0)
(0.0764403 -0.00299689 0)
(0.0776348 -0.00297184 0)
(0.0788192 -0.00294604 0)
(0.079993 -0.00291949 0)
(0.0811561 -0.00289218 0)
(0.0823081 -0.00286411 0)
(0.0834488 -0.00283527 0)
(0.0845777 -0.00280566 0)
(0.0856947 -0.00277527 0)
(0.0867994 -0.00274411 0)
(0.0878914 -0.00271218 0)
(0.0889705 -0.00267947 0)
(0.0900364 -0.00264598 0)
(0.0910887 -0.00261173 0)
(0.0921271 -0.0025767 0)
(0.0931514 -0.00254091 0)
(0.0941612 -0.00250435 0)
(0.0951563 -0.00246704 0)
(0.0961362 -0.00242898 0)
(0.0971008 -0.00239017 0)
(0.0980497 -0.00235063 0)
(0.0989826 -0.00231037 0)
(0.0998992 -0.00226939 0)
(0.100799 -0.00222771 0)
(0.101683 -0.00218533 0)
(0.102549 -0.00214228 0)
(0.103398 -0.00209855 0)
(0.104229 -0.00205418 0)
(0.105042 -0.00200917 0)
(0.105837 -0.00196354 0)
(0.106614 -0.0019173 0)
(0.107372 -0.00187048 0)
(0.108111 -0.00182309 0)
(0.108832 -0.00177515 0)
(0.109533 -0.00172668 0)
(0.110214 -0.00167769 0)
(0.110876 -0.00162822 0)
(0.111517 -0.00157828 0)
(0.112139 -0.00152789 0)
(0.11274 -0.00147708 0)
(0.113321 -0.00142586 0)
(0.113882 -0.00137427 0)
(0.114421 -0.00132231 0)
(0.11494 -0.00127003 0)
(0.115438 -0.00121743 0)
(0.115915 -0.00116454 0)
(0.11637 -0.0011114 0)
(0.116804 -0.00105801 0)
(0.117217 -0.00100441 0)
(0.117608 -0.000950611 0)
(0.117978 -0.000896648 0)
(0.118326 -0.00084254 0)
(0.118652 -0.000788312 0)
(0.118957 -0.000733986 0)
(0.119239 -0.000679586 0)
(0.1195 -0.000625134 0)
(0.119739 -0.000570653 0)
(0.119957 -0.000516165 0)
(0.120152 -0.000461692 0)
(0.120326 -0.000407256 0)
(0.120478 -0.000352878 0)
(0.120608 -0.000298578 0)
(0.120717 -0.000244377 0)
(0.120804 -0.000190294 0)
(0.120869 -0.000136349 0)
(0.120912 -8.25599e-05 0)
(0.120934 -2.89459e-05 0)
(0.120935 2.44757e-05 0)
(0.120915 7.76877e-05 0)
(0.120873 0.000130673 0)
(0.12081 0.000183417 0)
(0.120725 0.000235902 0)
(0.12062 0.000288114 0)
(0.120494 0.000340039 0)
(0.120348 0.000391663 0)
(0.120181 0.000442972 0)
(0.119993 0.000493953 0)
(0.119785 0.000544595 0)
(0.119557 0.000594884 0)
(0.119308 0.000644811 0)
(0.11904 0.000694364 0)
(0.118752 0.000743532 0)
(0.118444 0.000792307 0)
(0.118117 0.000840678 0)
(0.117771 0.000888636 0)
(0.117406 0.000936174 0)
(0.117021 0.000983282 0)
(0.116618 0.00102995 0)
(0.116197 0.00107618 0)
(0.115757 0.00112196 0)
(0.115298 0.00116727 0)
(0.114822 0.00121213 0)
(0.114328 0.00125651 0)
(0.113816 0.00130041 0)
(0.113287 0.00134384 0)
(0.11274 0.00138678 0)
(0.112176 0.00142922 0)
(0.111596 0.00147117 0)
(0.110998 0.00151262 0)
(0.110385 0.00155356 0)
(0.109755 0.001594 0)
(0.109109 0.00163392 0)
(0.108447 0.00167333 0)
(0.107769 0.00171221 0)
(0.107076 0.00175058 0)
(0.106368 0.00178842 0)
(0.105644 0.00182572 0)
(0.104906 0.0018625 0)
(0.104153 0.00189875 0)
(0.103386 0.00193446 0)
(0.102605 0.00196963 0)
(0.101809 0.00200426 0)
(0.101 0.00203835 0)
(0.100178 0.0020719 0)
(0.0993418 0.00210491 0)
(0.0984928 0.00213737 0)
(0.0976309 0.00216928 0)
(0.0967564 0.00220065 0)
(0.0958694 0.00223147 0)
(0.0949702 0.00226174 0)
(0.094059 0.00229146 0)
(0.0931361 0.00232064 0)
(0.0922015 0.00234927 0)
(0.0912557 0.00237735 0)
(0.0902987 0.00240489 0)
(0.0893308 0.00243188 0)
(0.0883522 0.00245833 0)
(0.0873631 0.00248424 0)
(0.0863638 0.0025096 0)
(0.0853545 0.00253443 0)
(0.0843353 0.00255872 0)
(0.0833065 0.00258247 0)
(0.0822684 0.0026057 0)
(0.081221 0.00262839 0)
(0.0801647 0.00265056 0)
(0.0790997 0.0026722 0)
(0.078026 0.00269333 0)
(0.0769441 0.00271394 0)
(0.075854 0.00273404 0)
(0.0747559 0.00275363 0)
(0.0736501 0.00277272 0)
(0.0725368 0.00279131 0)
(0.0714162 0.00280941 0)
(0.0702884 0.00282702 0)
(0.0691537 0.00284415 0)
(0.0680123 0.0028608 0)
(0.0668642 0.00287698 0)
(0.0657098 0.00289269 0)
(0.0645493 0.00290794 0)
(0.0633827 0.00292274 0)
(0.0622103 0.00293709 0)
(0.0610322 0.002951 0)
(0.0598487 0.00296448 0)
(0.0586598 0.00297752 0)
(0.0574659 0.00299015 0)
(0.056267 0.00300236 0)
(0.0550633 0.00301417 0)
(0.0538549 0.00302558 0)
(0.0526421 0.00303659 0)
(0.051425 0.00304722 0)
(0.0502037 0.00305746 0)
(0.0489783 0.00306734 0)
(0.0477491 0.00307685 0)
(0.0465162 0.00308601 0)
(0.0452797 0.00309482 0)
(0.0440397 0.00310328 0)
(0.0427965 0.00311141 0)
(0.04155 0.00311921 0)
(0.0403005 0.00312669 0)
(0.0390481 0.00313386 0)
(0.0377929 0.00314071 0)
(0.036535 0.00314727 0)
(0.0352745 0.00315353 0)
(0.0340116 0.00315951 0)
(0.0327464 0.00316521 0)
(0.031479 0.00317063 0)
(0.0302094 0.00317578 0)
(0.0289379 0.00318067 0)
(0.0276644 0.0031853 0)
(0.0263892 0.00318968 0)
(0.0251122 0.00319382 0)
(0.0238337 0.00319771 0)
(0.0225536 0.00320137 0)
(0.0212722 0.0032048 0)
(0.0199894 0.00320801 0)
(0.0187054 0.00321099 0)
(0.0174202 0.00321375 0)
(0.016134 0.0032163 0)
(0.0148468 0.00321864 0)
(0.0135587 0.00322077 0)
(0.0122698 0.0032227 0)
(0.0109802 0.00322443 0)
(0.00968991 0.00322596 0)
(0.00839907 0.00322729 0)
(0.00710773 0.00322843 0)
(0.00581598 0.00322937 0)
(0.00452389 0.00323013 0)
(0.00323154 0.00323069 0)
(0.001939 0.00323107 0)
(0.000646344 0.00323125 0)
(0.000707915 -0.00495401 0)
(0.0021237 -0.00495371 0)
(0.00353936 -0.00495309 0)
(0.0049548 -0.00495216 0)
(0.00636993 -0.00495092 0)
(0.00778466 -0.00494937 0)
(0.00919892 -0.0049475 0)
(0.0106126 -0.0049453 0)
(0.0120256 -0.00494277 0)
(0.0134379 -0.00493992 0)
(0.0148492 -0.00493672 0)
(0.0162597 -0.00493317 0)
(0.0176691 -0.00492926 0)
(0.0190773 -0.004925 0)
(0.0204843 -0.00492035 0)
(0.0218899 -0.00491533 0)
(0.023294 -0.00490991 0)
(0.0246965 -0.00490409 0)
(0.0260973 -0.00489785 0)
(0.0274963 -0.00489118 0)
(0.0288934 -0.00488407 0)
(0.0302883 -0.0048765 0)
(0.0316811 -0.00486846 0)
(0.0330715 -0.00485995 0)
(0.0344594 -0.00485093 0)
(0.0358447 -0.0048414 0)
(0.0372272 -0.00483134 0)
(0.0386068 -0.00482073 0)
(0.0399833 -0.00480957 0)
(0.0413565 -0.00479782 0)
(0.0427263 -0.00478548 0)
(0.0440926 -0.00477252 0)
(0.045455 -0.00475893 0)
(0.0468135 -0.00474469 0)
(0.0481679 -0.00472979 0)
(0.0495179 -0.0047142 0)
(0.0508634 -0.0046979 0)
(0.0522042 -0.00468088 0)
(0.05354 -0.00466313 0)
(0.0548707 -0.00464461 0)
(0.056196 -0.00462531 0)
(0.0575157 -0.00460522 0)
(0.0588295 -0.00458431 0)
(0.0601373 -0.00456257 0)
(0.0614388 -0.00453998 0)
(0.0627337 -0.00451653 0)
(0.0640218 -0.00449219 0)
(0.0653028 -0.00446694 0)
(0.0665766 -0.00444078 0)
(0.0678427 -0.00441369 0)
(0.069101 -0.00438565 0)
(0.0703511 -0.00435664 0)
(0.0715929 -0.00432666 0)
(0.0728259 -0.00429568 0)
(0.07405 -0.0042637 0)
(0.0752648 -0.00423071 0)
(0.07647 -0.00419668 0)
(0.0776654 -0.00416162 0)
(0.0788506 -0.00412552 0)
(0.0800254 -0.00408835 0)
(0.0811894 -0.00405013 0)
(0.0823424 -0.00401083 0)
(0.0834839 -0.00397046 0)
(0.0846138 -0.003929 0)
(0.0857317 -0.00388647 0)
(0.0868373 -0.00384284 0)
(0.0879302 -0.00379814 0)
(0.0890103 -0.00375234 0)
(0.0900771 -0.00370546 0)
(0.0911303 -0.00365749 0)
(0.0921697 -0.00360845 0)
(0.0931949 -0.00355833 0)
(0.0942056 -0.00350715 0)
(0.0952016 -0.0034549 0)
(0.0961824 -0.00340161 0)
(0.0971479 -0.00334727 0)
(0.0980976 -0.0032919 0)
(0.0990314 -0.00323552 0)
(0.0999489 -0.00317813 0)
(0.10085 -0.00311976 0)
(0.101734 -0.00306042 0)
(0.102601 -0.00300012 0)
(0.103451 -0.00293889 0)
(0.104283 -0.00287674 0)
(0.105097 -0.00281371 0)
(0.105893 -0.0027498 0)
(0.10667 -0.00268504 0)
(0.107429 -0.00261947 0)
(0.108169 -0.00255309 0)
(0.10889 -0.00248595 0)
(0.109591 -0.00241806 0)
(0.110273 -0.00234946 0)
(0.110935 -0.00228017 0)
(0.111578 -0.00221022 0)
(0.1122 -0.00213965 0)
(0.112802 -0.00206848 0)
(0.113383 -0.00199674 0)
(0.113944 -0.00192448 0)
(0.114484 -0.00185171 0)
(0.115003 -0.00177847 0)
(0.115501 -0.0017048 0)
(0.115978 -0.00163073 0)
(0.116434 -0.00155629 0)
(0.116869 -0.00148151 0)
(0.117281 -0.00140644 0)
(0.117673 -0.00133109 0)
(0.118043 -0.00125551 0)
(0.118391 -0.00117973 0)
(0.118717 -0.00110377 0)
(0.119022 -0.00102768 0)
(0.119305 -0.000951492 0)
(0.119566 -0.000875228 0)
(0.119805 -0.000798923 0)
(0.120022 -0.00072261 0)
(0.120218 -0.000646318 0)
(0.120391 -0.000570078 0)
(0.120543 -0.000493919 0)
(0.120673 -0.000417871 0)
(0.120782 -0.000341961 0)
(0.120868 -0.000266218 0)
(0.120933 -0.000190669 0)
(0.120977 -0.000115339 0)
(0.120999 -4.02544e-05 0)
(0.120999 3.45599e-05 0)
(0.120978 0.00010908 0)
(0.120936 0.000183282 0)
(0.120873 0.000257145 0)
(0.120788 0.000330645 0)
(0.120683 0.000403763 0)
(0.120557 0.000476477 0)
(0.12041 0.000548769 0)
(0.120242 0.00062062 0)
(0.120054 0.000692011 0)
(0.119845 0.000762925 0)
(0.119617 0.000833347 0)
(0.119368 0.000903259 0)
(0.119099 0.000972648 0)
(0.118811 0.0010415 0)
(0.118503 0.00110979 0)
(0.118175 0.00117753 0)
(0.117828 0.00124468 0)
(0.117463 0.00131124 0)
(0.117078 0.00137721 0)
(0.116674 0.00144256 0)
(0.116252 0.00150728 0)
(0.115811 0.00157138 0)
(0.115352 0.00163483 0)
(0.114876 0.00169764 0)
(0.114381 0.00175978 0)
(0.113868 0.00182125 0)
(0.113338 0.00188206 0)
(0.112791 0.00194218 0)
(0.112227 0.00200161 0)
(0.111646 0.00206034 0)
(0.111048 0.00211838 0)
(0.110433 0.0021757 0)
(0.109803 0.00223232 0)
(0.109156 0.00228821 0)
(0.108494 0.00234339 0)
(0.107815 0.00239783 0)
(0.107122 0.00245154 0)
(0.106413 0.00250452 0)
(0.105689 0.00255676 0)
(0.10495 0.00260825 0)
(0.104196 0.002659 0)
(0.103429 0.00270899 0)
(0.102647 0.00275824 0)
(0.101851 0.00280672 0)
(0.101041 0.00285445 0)
(0.100218 0.00290142 0)
(0.0993811 0.00294763 0)
(0.0985314 0.00299308 0)
(0.0976689 0.00303776 0)
(0.0967937 0.00308167 0)
(0.0959061 0.00312482 0)
(0.0950062 0.0031672 0)
(0.0940944 0.00320882 0)
(0.0931707 0.00324966 0)
(0.0922356 0.00328975 0)
(0.091289 0.00332906 0)
(0.0903314 0.00336761 0)
(0.0893628 0.0034054 0)
(0.0883836 0.00344242 0)
(0.0873939 0.00347869 0)
(0.0863939 0.0035142 0)
(0.0853839 0.00354895 0)
(0.0843641 0.00358295 0)
(0.0833347 0.00361621 0)
(0.0822959 0.00364872 0)
(0.0812479 0.00368048 0)
(0.080191 0.00371151 0)
(0.0791253 0.00374181 0)
(0.078051 0.00377138 0)
(0.0769685 0.00380023 0)
(0.0758777 0.00382837 0)
(0.0747791 0.00385579 0)
(0.0736727 0.00388251 0)
(0.0725588 0.00390853 0)
(0.0714376 0.00393386 0)
(0.0703092 0.00395851 0)
(0.069174 0.00398248 0)
(0.0680319 0.00400578 0)
(0.0668833 0.00402842 0)
(0.0657284 0.00405041 0)
(0.0645672 0.00407175 0)
(0.0634001 0.00409246 0)
(0.0622272 0.00411254 0)
(0.0610486 0.00413201 0)
(0.0598646 0.00415087 0)
(0.0586752 0.00416912 0)
(0.0574808 0.00418679 0)
(0.0562814 0.00420388 0)
(0.0550772 0.0042204 0)
(0.0538683 0.00423636 0)
(0.0526551 0.00425176 0)
(0.0514375 0.00426663 0)
(0.0502157 0.00428097 0)
(0.0489899 0.00429479 0)
(0.0477603 0.00430809 0)
(0.0465269 0.0043209 0)
(0.04529 0.00433322 0)
(0.0440497 0.00434506 0)
(0.042806 0.00435643 0)
(0.0415591 0.00436734 0)
(0.0403093 0.00437781 0)
(0.0390565 0.00438783 0)
(0.0378009 0.00439742 0)
(0.0365426 0.00440659 0)
(0.0352818 0.00441535 0)
(0.0340186 0.00442371 0)
(0.0327531 0.00443167 0)
(0.0314853 0.00443925 0)
(0.0302154 0.00444646 0)
(0.0289436 0.00445329 0)
(0.0276698 0.00445977 0)
(0.0263943 0.0044659 0)
(0.025117 0.00447168 0)
(0.0238382 0.00447713 0)
(0.0225579 0.00448225 0)
(0.0212761 0.00448704 0)
(0.0199931 0.00449152 0)
(0.0187088 0.00449569 0)
(0.0174234 0.00449955 0)
(0.0161369 0.00450311 0)
(0.0148495 0.00450638 0)
(0.0135611 0.00450937 0)
(0.012272 0.00451206 0)
(0.0109821 0.00451448 0)
(0.00969162 0.00451661 0)
(0.00840055 0.00451847 0)
(0.00710898 0.00452007 0)
(0.005817 0.00452139 0)
(0.00452468 0.00452245 0)
(0.0032321 0.00452323 0)
(0.00193933 0.00452376 0)
(0.000646457 0.00452402 0)
(0.000708092 -0.00636998 0)
(0.00212423 -0.00636958 0)
(0.00354024 -0.00636879 0)
(0.00495604 -0.0063676 0)
(0.00637153 -0.00636602 0)
(0.00778663 -0.00636402 0)
(0.00920125 -0.00636162 0)
(0.0106153 -0.00635881 0)
(0.0120287 -0.00635557 0)
(0.0134413 -0.00635191 0)
(0.0148531 -0.00634781 0)
(0.016264 -0.00634326 0)
(0.0176737 -0.00633825 0)
(0.0190824 -0.00633278 0)
(0.0204898 -0.00632683 0)
(0.0218958 -0.00632039 0)
(0.0233004 -0.00631344 0)
(0.0247034 -0.00630597 0)
(0.0261047 -0.00629797 0)
(0.0275042 -0.00628942 0)
(0.0289018 -0.0062803 0)
(0.0302973 -0.00627059 0)
(0.0316906 -0.00626029 0)
(0.0330815 -0.00624936 0)
(0.03447 -0.00623779 0)
(0.0358559 -0.00622556 0)
(0.037239 -0.00621266 0)
(0.0386193 -0.00619905 0)
(0.0399964 -0.00618472 0)
(0.0413703 -0.00616965 0)
(0.0427408 -0.00615381 0)
(0.0441078 -0.00613718 0)
(0.045471 -0.00611974 0)
(0.0468302 -0.00610147 0)
(0.0481854 -0.00608233 0)
(0.0495362 -0.00606232 0)
(0.0508825 -0.0060414 0)
(0.0522241 -0.00601955 0)
(0.0535608 -0.00599675 0)
(0.0548923 -0.00597297 0)
(0.0562185 -0.0059482 0)
(0.0575391 -0.00592239 0)
(0.0588539 -0.00589554 0)
(0.0601627 -0.00586762 0)
(0.0614651 -0.00583861 0)
(0.062761 -0.00580848 0)
(0.0640502 -0.00577721 0)
(0.0653323 -0.00574479 0)
(0.066607 -0.00571118 0)
(0.0678743 -0.00567637 0)
(0.0691336 -0.00564034 0)
(0.0703849 -0.00560307 0)
(0.0716277 -0.00556454 0)
(0.0728619 -0.00552474 0)
(0.0740872 -0.00548364 0)
(0.0753031 -0.00544124 0)
(0.0765095 -0.00539752 0)
(0.0777061 -0.00535245 0)
(0.0788926 -0.00530604 0)
(0.0800685 -0.00525828 0)
(0.0812338 -0.00520914 0)
(0.0823879 -0.00515862 0)
(0.0835307 -0.00510672 0)
(0.0846619 -0.00505343 0)
(0.085781 -0.00499875 0)
(0.0868878 -0.00494266 0)
(0.087982 -0.00488518 0)
(0.0890633 -0.0048263 0)
(0.0901314 -0.00476602 0)
(0.0911858 -0.00470434 0)
(0.0922264 -0.00464128 0)
(0.0932529 -0.00457683 0)
(0.0942648 -0.00451101 0)
(0.0952619 -0.00444382 0)
(0.096244 -0.00437528 0)
(0.0972106 -0.0043054 0)
(0.0981616 -0.00423419 0)
(0.0990965 -0.00416167 0)
(0.100015 -0.00408786 0)
(0.100917 -0.00401278 0)
(0.101802 -0.00393645 0)
(0.102671 -0.0038589 0)
(0.103521 -0.00378014 0)
(0.104354 -0.0037002 0)
(0.105169 -0.00361911 0)
(0.105966 -0.0035369 0)
(0.106745 -0.00345361 0)
(0.107504 -0.00336925 0)
(0.108245 -0.00328387 0)
(0.108967 -0.00319749 0)
(0.109669 -0.00311016 0)
(0.110352 -0.0030219 0)
(0.111015 -0.00293277 0)
(0.111658 -0.00284278 0)
(0.112281 -0.00275199 0)
(0.112883 -0.00266044 0)
(0.113466 -0.00256815 0)
(0.114027 -0.00247518 0)
(0.114568 -0.00238157 0)
(0.115087 -0.00228735 0)
(0.115586 -0.00219258 0)
(0.116063 -0.00209728 0)
(0.11652 -0.00200152 0)
(0.116954 -0.00190532 0)
(0.117368 -0.00180873 0)
(0.117759 -0.0017118 0)
(0.118129 -0.00161457 0)
(0.118478 -0.00151708 0)
(0.118804 -0.00141937 0)
(0.119109 -0.00132149 0)
(0.119392 -0.00122347 0)
(0.119653 -0.00112536 0)
(0.119892 -0.0010272 0)
(0.12011 -0.000929031 0)
(0.120305 -0.00083089 0)
(0.120479 -0.000732816 0)
(0.12063 -0.000634848 0)
(0.12076 -0.000537024 0)
(0.120869 -0.000439378 0)
(0.120955 -0.000341948 0)
(0.12102 -0.000244768 0)
(0.121063 -0.000147871 0)
(0.121084 -5.12916e-05 0)
(0.121085 4.49395e-05 0)