/*--------------------------------*- C++ -*----------------------------------*\
| =========                 |                                                 |
| \\      /  F ield         | OpenFOAM: The Open Source CFD Toolbox           |
|  \\    /   O peration     | Version:  v2012                                 |
|   \\  /    A nd           | Website:  www.openfoam.com                      |
|    \\/     M anipulation  |                                                 |
\*---------------------------------------------------------------------------*/
FoamFile
{
    version     2.0;
    format      ascii;
    class       volScalarField;
    location    "2.4";
    object      W;
}
// * * * * * * * * * * * * * * * * * * * * * * * * * * * * * * * * * * * * * //

dimensions      [0 0 -1 0 0 0 0];


internalField   nonuniform List<scalar> 
65536
(
1.10283e-21
3.3827e-21
5.8967e-21
8.83643e-21
1.24403e-20
1.70057e-20
2.29033e-20
3.05966e-20
4.06692e-20
5.38608e-20
7.11133e-20
9.36275e-20
1.22933e-19
1.60977e-19
2.10229e-19
2.73811e-19
3.55665e-19
4.60745e-19
5.95261e-19
7.66972e-19
9.85543e-19
1.26297e-18
1.6141e-18
2.05725e-18
2.61493e-18
3.31473e-18
4.19033e-18
5.28275e-18
6.64173e-18
8.32741e-18
1.04123e-17
1.29833e-17
1.61446e-17
2.00203e-17
2.47579e-17
3.0532e-17
3.75485e-17
4.60495e-17
5.63185e-17
6.86859e-17
8.35363e-17
1.01314e-16
1.22533e-16
1.47782e-16
1.77735e-16
2.1316e-16
2.54929e-16
3.04026e-16
3.6156e-16
4.28771e-16
5.07041e-16
5.97907e-16
7.03064e-16
8.24373e-16
9.63873e-16
1.12378e-15
1.30648e-15
1.51457e-15
1.75079e-15
2.01806e-15
2.31948e-15
2.65827e-15
3.0378e-15
3.46154e-15
3.933e-15
4.45578e-15
5.03345e-15
5.66952e-15
6.36744e-15
7.13046e-15
7.96163e-15
8.86371e-15
9.83911e-15
1.08898e-14
1.20172e-14
1.32223e-14
1.45052e-14
1.58655e-14
1.73018e-14
1.88119e-14
2.03928e-14
2.20404e-14
2.37497e-14
2.55144e-14
2.73276e-14
2.91811e-14
3.10657e-14
3.29713e-14
3.48869e-14
3.68007e-14
3.87002e-14
4.05723e-14
4.24033e-14
4.41794e-14
4.58866e-14
4.75108e-14
4.90381e-14
5.04554e-14
5.17496e-14
5.29088e-14
5.3922e-14
5.47791e-14
5.54717e-14
5.59926e-14
5.63362e-14
5.64986e-14
5.64777e-14
5.62733e-14
5.58869e-14
5.5322e-14
5.45838e-14
5.36793e-14
5.26173e-14
5.14079e-14
5.0063e-14
4.85955e-14
4.70196e-14
4.53503e-14
4.36034e-14
4.17953e-14
3.99427e-14
3.80626e-14
3.61716e-14
3.42867e-14
3.24238e-14
3.0599e-14
2.88271e-14
2.71226e-14
2.54989e-14
2.39683e-14
2.25422e-14
2.1231e-14
2.00439e-14
1.89887e-14
1.80723e-14
1.73004e-14
1.66774e-14
1.62064e-14
1.58896e-14
1.57278e-14
1.57207e-14
1.58668e-14
1.61634e-14
1.66068e-14
1.71918e-14
1.79122e-14
1.87607e-14
1.97286e-14
2.08063e-14
2.19828e-14
2.32462e-14
2.45834e-14
2.59805e-14
2.74224e-14
2.88936e-14
3.03777e-14
3.18578e-14
3.33168e-14
3.47373e-14
3.61023e-14
3.73947e-14
3.85982e-14
3.96974e-14
4.06775e-14
4.15253e-14
4.22291e-14
4.27788e-14
4.3166e-14
4.33845e-14
4.34302e-14
4.33012e-14
4.29978e-14
4.25225e-14
4.18801e-14
4.10774e-14
4.0123e-14
3.90276e-14
3.78032e-14
3.64633e-14
3.50223e-14
3.34956e-14
3.1899e-14
3.02485e-14
2.85603e-14
2.68501e-14
2.51331e-14
2.34236e-14
2.17353e-14
2.00805e-14
1.84702e-14
1.69142e-14
1.54208e-14
1.39969e-14
1.2648e-14
1.13781e-14
1.01899e-14
9.08486e-15
8.06316e-15
7.12406e-15
6.26585e-15
5.48601e-15
4.78138e-15
4.14824e-15
3.58249e-15
3.07971e-15
2.63534e-15
2.24471e-15
1.90316e-15
1.60612e-15
1.34916e-15
1.12806e-15
9.38804e-16
7.77664e-16
6.41179e-16
5.26178e-16
4.29784e-16
3.49404e-16
2.82725e-16
2.27696e-16
1.82516e-16
1.45612e-16
1.15622e-16
9.13754e-17
7.18726e-17
5.62653e-17
4.38388e-17
3.39951e-17
2.62368e-17
2.01532e-17
1.54068e-17
1.17224e-17
8.87672e-18
6.68994e-18
5.01794e-18
3.74593e-18
2.78308e-18
2.0579e-18
1.51444e-18
1.10921e-18
8.08546e-19
5.86581e-19
4.23529e-19
3.04348e-19
2.17666e-19
1.54933e-19
1.09756e-19
7.7382e-20
5.42947e-20
3.79059e-20
2.63185e-20
1.81446e-20
1.2369e-20
8.24545e-21
5.22206e-21
2.88619e-21
9.22878e-22
3.60402e-21
1.10545e-20
1.92701e-20
2.88766e-20
4.06527e-20
5.55698e-20
7.48382e-20
9.99714e-20
1.32875e-19
1.75965e-19
2.32315e-19
3.05847e-19
4.01554e-19
5.25789e-19
6.86612e-19
8.94217e-19
1.16146e-18
1.50451e-18
1.94363e-18
2.50414e-18
3.21755e-18
4.123e-18
5.26892e-18
6.71502e-18
8.53472e-18
1.0818e-17
1.36746e-17
1.72383e-17
2.16711e-17
2.71692e-17
3.39687e-17
4.2353e-17
5.26612e-17
6.52979e-17
8.07432e-17
9.95658e-17
1.22436e-16
1.50143e-16
1.83607e-16
2.23907e-16
2.72291e-16
3.30208e-16
3.99326e-16
4.81562e-16
5.79107e-16
6.9446e-16
8.30452e-16
9.90285e-16
1.17756e-15
1.3963e-15
1.651e-15
1.94664e-15
2.28873e-15
2.68331e-15
3.13698e-15
3.65694e-15
4.25094e-15
4.92734e-15
5.69506e-15
6.56356e-15
7.54284e-15
8.64335e-15
9.87595e-15
1.12518e-14
1.27824e-14
1.44793e-14
1.63538e-14
1.84176e-14
2.06814e-14
2.31558e-14
2.58507e-14
2.87748e-14
3.19357e-14
3.53398e-14
3.89916e-14
4.28939e-14
4.70471e-14
5.14494e-14
5.60964e-14
6.0981e-14
6.60928e-14
7.14186e-14
7.69417e-14
8.26423e-14
8.84972e-14
9.44798e-14
1.0056e-13
1.06706e-13
1.12882e-13
1.19048e-13
1.25166e-13
1.31192e-13
1.37082e-13
1.42791e-13
1.48275e-13
1.53489e-13
1.58386e-13
1.62926e-13
1.67066e-13
1.70768e-13
1.73997e-13
1.76721e-13
1.78912e-13
1.80548e-13
1.81612e-13
1.82091e-13
1.8198e-13
1.81276e-13
1.79987e-13
1.78124e-13
1.75703e-13
1.72748e-13
1.69288e-13
1.65355e-13
1.60989e-13
1.5623e-13
1.51125e-13
1.45723e-13
1.40074e-13
1.34231e-13
1.28248e-13
1.2218e-13
1.1608e-13
1.10002e-13
1.03998e-13
9.81193e-14
9.2413e-14
8.69254e-14
8.16991e-14
7.67738e-14
7.21857e-14
6.79676e-14
6.41485e-14
6.07535e-14
5.78043e-14
5.53184e-14
5.33097e-14
5.17881e-14
5.07598e-14
5.02273e-14
5.01891e-14
5.06403e-14
5.15718e-14
5.29712e-14
5.4822e-14
5.7104e-14
5.97935e-14
6.28629e-14
6.62807e-14
7.00123e-14
7.40192e-14
7.82597e-14
8.26892e-14
8.72601e-14
9.19224e-14
9.6624e-14
1.01311e-13
1.0593e-13
1.10425e-13
1.14741e-13
1.18826e-13
1.22627e-13
1.26096e-13
1.29185e-13
1.31853e-13
1.34064e-13
1.35784e-13
1.36989e-13
1.37658e-13
1.37779e-13
1.37346e-13
1.3636e-13
1.34831e-13
1.32772e-13
1.30205e-13
1.2716e-13
1.23668e-13
1.1977e-13
1.15507e-13
1.10925e-13
1.06073e-13
1.01002e-13
9.57626e-14
9.04049e-14
8.49794e-14
7.95339e-14
7.41143e-14
6.87631e-14
6.35193e-14
5.8418e-14
5.34899e-14
4.87611e-14
4.42534e-14
3.99839e-14
3.59652e-14
3.22057e-14
2.87098e-14
2.54783e-14
2.25085e-14
1.97949e-14
1.73295e-14
1.51021e-14
1.31011e-14
1.13132e-14
9.72461e-15
8.32069e-15
7.0867e-15
6.00789e-15
5.06978e-15
4.25835e-15
3.5602e-15
2.96269e-15
2.45398e-15
2.02315e-15
1.66017e-15
1.35594e-15
1.10228e-15
8.91869e-16
7.18236e-16
5.75687e-16
4.59259e-16
3.64652e-16
2.88169e-16
2.26652e-16
1.77426e-16
1.38234e-16
1.0719e-16
8.27244e-17
6.35404e-17
4.85738e-17
3.69565e-17
2.79842e-17
2.10897e-17
1.58183e-17
1.18082e-17
8.77283e-18
6.48675e-18
4.77361e-18
3.49622e-18
2.54849e-18
1.84884e-18
1.3349e-18
9.59243e-19
6.86031e-19
4.88306e-19
3.45918e-19
2.43883e-19
1.71118e-19
1.19466e-19
8.29464e-20
5.71854e-20
3.89827e-20
2.5987e-20
1.64584e-20
9.09657e-21
2.90877e-21
7.07044e-21
2.1687e-20
3.78041e-20
5.6649e-20
7.97474e-20
1.09003e-19
1.46787e-19
1.96066e-19
2.60571e-19
3.45036e-19
4.55482e-19
5.99585e-19
7.87126e-19
1.03054e-18
1.3456e-18
1.75226e-18
2.27569e-18
2.9475e-18
3.80734e-18
4.90473e-18
6.3013e-18
8.07359e-18
1.03163e-17
1.3146e-17
1.67063e-17
2.1173e-17
2.67605e-17
3.373e-17
4.23982e-17
5.31476e-17
6.64392e-17
8.28263e-17
1.02971e-16
1.27661e-16
1.57834e-16
1.94598e-16
2.3926e-16
2.93356e-16
3.58684e-16
4.37338e-16
5.31754e-16
6.44748e-16
7.79567e-16
9.3994e-16
1.13013e-15
1.35499e-15
1.62002e-15
1.93144e-15
2.29623e-15
2.72222e-15
3.21812e-15
3.79358e-15
4.45928e-15
5.22691e-15
6.10926e-15
7.12024e-15
8.27485e-15
9.58922e-15
1.10806e-14
1.27672e-14
1.46683e-14
1.68041e-14
1.91954e-14
2.18638e-14
2.48311e-14
2.81195e-14
3.1751e-14
3.57473e-14
4.01294e-14
4.49172e-14
5.01294e-14
5.57824e-14
6.18906e-14
6.84656e-14
7.55158e-14
8.30458e-14
9.10561e-14
9.95424e-14
1.08496e-13
1.17901e-13
1.27739e-13
1.37983e-13
1.48599e-13
1.59549e-13
1.70789e-13
1.82265e-13
1.93921e-13
2.05692e-13
2.17511e-13
2.29302e-13
2.40988e-13
2.52487e-13
2.63715e-13
2.74586e-13
2.85012e-13
2.94909e-13
3.0419e-13
3.12775e-13
3.20584e-13
3.27546e-13
3.33593e-13
3.38666e-13
3.42714e-13
3.45694e-13
3.47575e-13
3.48335e-13
3.47963e-13
3.4646e-13
3.43839e-13
3.40123e-13
3.35346e-13
3.29554e-13
3.22802e-13
3.15157e-13
3.06691e-13
2.97486e-13
2.8763e-13
2.77217e-13
2.66344e-13
2.55113e-13
2.43626e-13
2.31987e-13
2.20299e-13
2.08663e-13
1.97178e-13
1.8594e-13
1.7504e-13
1.64564e-13
1.54592e-13
1.45198e-13
1.3645e-13
1.2841e-13
1.2113e-13
1.14657e-13
1.09032e-13
1.04285e-13
1.00442e-13
9.75196e-14
9.55294e-14
9.44741e-14
9.435e-14
9.51462e-14
9.68449e-14
9.94212e-14
1.02843e-13
1.07072e-13
1.12062e-13
1.17761e-13
1.24109e-13
1.3104e-13
1.38481e-13
1.46355e-13
1.54576e-13
1.63056e-13
1.71702e-13
1.80415e-13
1.89095e-13
1.97642e-13
2.05952e-13
2.13925e-13
2.21461e-13
2.28463e-13
2.34841e-13
2.4051e-13
2.45393e-13
2.49421e-13
2.52536e-13
2.54691e-13
2.5585e-13
2.55991e-13
2.55103e-13
2.53191e-13
2.50271e-13
2.46372e-13
2.41535e-13
2.35813e-13
2.29269e-13
2.21976e-13
2.14012e-13
2.05463e-13
1.96421e-13
1.86978e-13
1.77229e-13
1.67268e-13
1.57187e-13
1.47076e-13
1.37018e-13
1.27093e-13
1.17372e-13
1.07919e-13
9.8791e-14
9.00361e-14
8.16938e-14
7.37953e-14
6.63636e-14
5.94136e-14
5.2953e-14
4.69829e-14
4.1498e-14
3.64878e-14
3.19371e-14
2.7827e-14
2.41354e-14
2.0838e-14
1.79088e-14
1.53207e-14
1.30465e-14
1.10586e-14
9.3304e-15
7.83586e-15
6.55022e-15
5.45011e-15
4.51368e-15
3.72074e-15
3.0528e-15
2.49306e-15
2.02643e-15
1.63942e-15
1.3201e-15
1.05799e-15
8.43934e-16
6.70018e-16
5.29436e-16
4.16378e-16
3.25917e-16
2.53905e-16
1.96868e-16
1.51922e-16
1.16683e-16
8.91931e-17
6.78566e-17
5.13795e-17
3.87189e-17
2.90396e-17
2.16767e-17
1.61038e-17
1.19069e-17
8.76197e-18
6.41709e-18
4.67744e-18
3.39322e-18
2.44991e-18
1.76044e-18
1.25901e-18
8.96127e-19
6.34812e-19
4.47558e-19
3.14023e-19
2.19234e-19
1.52216e-19
1.04942e-19
7.15386e-20
4.76904e-20
3.02045e-20
1.66945e-20
5.33845e-21
1.24238e-20
3.81071e-20
6.64263e-20
9.95358e-20
1.40113e-19
1.91499e-19
2.57854e-19
3.4438e-19
4.57626e-19
6.0589e-19
7.99732e-19
1.05261e-18
1.38166e-18
1.80869e-18
2.36133e-18
3.07453e-18
3.99238e-18
5.17025e-18
6.67755e-18
8.60095e-18
1.10484e-17
1.41537e-17
1.80825e-17
2.3039e-17
2.9274e-17
3.70948e-17
4.68765e-17
5.90752e-17
7.42442e-17
9.30517e-17
1.16303e-16
1.44962e-16
1.80186e-16
2.2335e-16
2.76086e-16
3.40329e-16
4.18356e-16
5.12842e-16
6.26917e-16
7.6423e-16
9.29018e-16
1.12618e-15
1.36137e-15
1.64105e-15
1.97264e-15
2.36456e-15
2.82637e-15
3.36885e-15
4.00411e-15
4.74569e-15
5.6087e-15
6.60985e-15
7.76757e-15
9.1021e-15
1.06355e-14
1.23918e-14
1.43969e-14
1.66785e-14
1.92664e-14
2.21918e-14
2.54879e-14
2.91892e-14
3.33316e-14
3.79517e-14
4.30871e-14
4.87754e-14
5.50541e-14
6.196e-14
6.95287e-14
7.77937e-14
8.67862e-14
9.65337e-14
1.0706e-13
1.18384e-13
1.30519e-13
1.43471e-13
1.57241e-13
1.71819e-13
1.87188e-13
2.03322e-13
2.20185e-13
2.37729e-13
2.55897e-13
2.7462e-13
2.93821e-13
3.13408e-13
3.33282e-13
3.53333e-13
3.73441e-13
3.93479e-13
4.13314e-13
4.32804e-13
4.51807e-13
4.70175e-13
4.8776e-13
5.04416e-13
5.2e-13
5.34373e-13
5.47403e-13
5.5897e-13
5.6896e-13
5.77276e-13
5.83834e-13
5.88564e-13
5.91415e-13
5.92354e-13
5.91367e-13
5.88459e-13
5.83652e-13
5.76992e-13
5.6854e-13
5.58377e-13
5.46601e-13
5.33324e-13
5.18675e-13
5.02793e-13
4.85831e-13
4.67948e-13
4.49311e-13
4.30092e-13
4.10465e-13
3.90606e-13
3.70689e-13
3.50883e-13
3.31357e-13
3.12268e-13
2.93769e-13
2.76004e-13
2.59105e-13
2.43197e-13
2.28389e-13
2.14782e-13
2.02463e-13
1.91508e-13
1.81981e-13
1.73932e-13
1.67399e-13
1.6241e-13
1.58978e-13
1.57107e-13
1.56787e-13
1.57998e-13
1.60707e-13
1.64871e-13
1.70434e-13
1.77329e-13
1.85479e-13
1.94794e-13
2.05173e-13
2.16507e-13
2.28674e-13
2.41543e-13
2.54975e-13
2.6882e-13
2.82925e-13
2.97128e-13
3.11265e-13
3.25169e-13
3.38673e-13
3.51609e-13
3.63816e-13
3.75138e-13
3.85426e-13
3.94542e-13
4.02362e-13
4.08776e-13
4.1369e-13
4.17028e-13
4.18737e-13
4.18779e-13
4.17143e-13
4.13835e-13
4.08885e-13
4.02342e-13
3.94276e-13
3.84775e-13
3.73943e-13
3.619e-13
3.48775e-13
3.34711e-13
3.19856e-13
3.04361e-13
2.88383e-13
2.72073e-13
2.55582e-13
2.39055e-13
2.22628e-13
2.0643e-13
1.90574e-13
1.75167e-13
1.60298e-13
1.46045e-13
1.32471e-13
1.19626e-13
1.07546e-13
9.62544e-14
8.57628e-14
7.60719e-14
6.71723e-14
5.90462e-14
5.16683e-14
4.50072e-14
3.90266e-14
3.36864e-14
2.89441e-14
2.47555e-14
2.10759e-14
1.78607e-14
1.50662e-14
1.26503e-14
1.05726e-14
8.79524e-15
7.28268e-15
6.0022e-15
4.92382e-15
4.02034e-15
3.26731e-15
2.6429e-15
2.12781e-15
1.70507e-15
1.35991e-15
1.07951e-15
8.52903e-16
6.70688e-16
5.24916e-16
4.08888e-16
3.17004e-16
2.44606e-16
1.8785e-16
1.43581e-16
1.09225e-16
8.26958e-17
6.23138e-17
4.67328e-17
3.48816e-17
2.59124e-17
1.91581e-17
1.40973e-17
1.03241e-17
7.52497e-18
5.45874e-18
3.94109e-18
2.83189e-18
2.02523e-18
1.44148e-18
1.02112e-18
7.19908e-19
5.0511e-19
3.5264e-19
2.44842e-19
1.68803e-19
1.15075e-19
7.67152e-20
4.85889e-20
2.68567e-20
8.58832e-21
2.1065e-20
6.46117e-20
1.12626e-19
1.68757e-19
2.37538e-19
3.24625e-19
4.37062e-19
5.83654e-19
7.75483e-19
1.02659e-18
1.35484e-18
1.78298e-18
2.34002e-18
3.0628e-18
3.99804e-18
5.20482e-18
6.75759e-18
8.74995e-18
1.12991e-17
1.45514e-17
1.8689e-17
2.39379e-17
3.05776e-17
3.89525e-17
4.94858e-17
6.26954e-17
7.92137e-17
9.98095e-17
1.25415e-16
1.57155e-16
1.96386e-16
2.44732e-16
3.04138e-16
3.76917e-16
4.65816e-16
5.74085e-16
7.05551e-16
8.64708e-16
1.05681e-15
1.28798e-15
1.56533e-15
1.89708e-15
2.29268e-15
2.763e-15
3.32042e-15
3.97906e-15
4.75489e-15
5.66594e-15
6.73244e-15
7.97701e-15
9.42482e-15
1.11038e-14
1.30445e-14
1.52808e-14
1.78494e-14
2.079e-14
2.41457e-14
2.79626e-14
3.22898e-14
3.71793e-14
4.26857e-14
4.8866e-14
5.57792e-14
6.34859e-14
7.20475e-14
8.15257e-14
9.1982e-14
1.03476e-13
1.16066e-13
1.29806e-13
1.44745e-13
1.60929e-13
1.78395e-13
1.97171e-13
2.17277e-13
2.38722e-13
2.61503e-13
2.85604e-13
3.10992e-13
3.37621e-13
3.65428e-13
3.94334e-13
4.24239e-13
4.5503e-13
4.86573e-13
5.18716e-13
5.51293e-13
5.84121e-13
6.17002e-13
6.49724e-13
6.82066e-13
7.13797e-13
7.4468e-13
7.74474e-13
8.02939e-13
8.29834e-13
8.54926e-13
8.77993e-13
8.9882e-13
9.17213e-13
9.32992e-13
9.46001e-13
9.56108e-13
9.63205e-13
9.67217e-13
9.68093e-13
9.65818e-13
9.60405e-13
9.51901e-13
9.40384e-13
9.25961e-13
9.08769e-13
8.88975e-13
8.66767e-13
8.42358e-13
8.15982e-13
7.87888e-13
7.58339e-13
7.2761e-13
6.95981e-13
6.63737e-13
6.31162e-13
5.98537e-13
5.66139e-13
5.34235e-13
5.03082e-13
4.72923e-13
4.43986e-13
4.16484e-13
3.90609e-13
3.66538e-13
3.44428e-13
3.24413e-13
3.06612e-13
2.91119e-13
2.78012e-13
2.67348e-13
2.59163e-13
2.53475e-13
2.50285e-13
2.49571e-13
2.51296e-13
2.55404e-13
2.6182e-13
2.70451e-13
2.81189e-13
2.93903e-13
3.08451e-13
3.24668e-13
3.42378e-13
3.61385e-13
3.8148e-13
4.02442e-13
4.24034e-13
4.46011e-13
4.68121e-13
4.90102e-13
5.11694e-13
5.32633e-13
5.52659e-13
5.71519e-13
5.8897e-13
6.04781e-13
6.18741e-13
6.30657e-13
6.40359e-13
6.47705e-13
6.52582e-13
6.54907e-13
6.54629e-13
6.51732e-13
6.4623e-13
6.38175e-13
6.27647e-13
6.14759e-13
5.99649e-13
5.82486e-13
5.63455e-13
5.42764e-13
5.20635e-13
4.97299e-13
4.72994e-13
4.47961e-13
4.2244e-13
3.96663e-13
3.70855e-13
3.45227e-13
3.19975e-13
2.9528e-13
2.71299e-13
2.48173e-13
2.2602e-13
2.04936e-13
1.84996e-13
1.66254e-13
1.48746e-13
1.32487e-13
1.17477e-13
1.03699e-13
9.11244e-14
7.97131e-14
6.94151e-14
6.01731e-14
5.19241e-14
4.46016e-14
3.81366e-14
3.24593e-14
2.75003e-14
2.31917e-14
1.9468e-14
1.62667e-14
1.3529e-14
1.11998e-14
9.2286e-15
7.56897e-15
6.17888e-15
5.02057e-15
4.06034e-15
3.26841e-15
2.61861e-15
2.08817e-15
1.65736e-15
1.30925e-15
1.02939e-15
8.05544e-16
6.27404e-16
4.86355e-16
3.75236e-16
2.88138e-16
2.20212e-16
1.67503e-16
1.26808e-16
9.55451e-17
7.16493e-17
5.34754e-17
3.97224e-17
2.93667e-17
2.16079e-17
1.58237e-17
1.1533e-17
8.36588e-18
6.03978e-18
4.33979e-18
3.10353e-18
2.20893e-18
1.56475e-18
1.10317e-18
7.74015e-19
5.40377e-19
3.75193e-19
2.58676e-19
1.76347e-19
1.17567e-19
7.44668e-20
4.11623e-20
1.31634e-20
3.52082e-20
1.07991e-19
1.88238e-19
2.82041e-19
3.96969e-19
5.4246e-19
7.30266e-19
9.7508e-19
1.29539e-18
1.71461e-18
2.26252e-18
2.97709e-18
3.90662e-18
5.11252e-18
6.67265e-18
8.68542e-18
1.12748e-17
1.45968e-17
1.88463e-17
2.4267e-17
3.11621e-17
3.99076e-17
5.09681e-17
6.49166e-17
8.24564e-17
1.04448e-16
1.31943e-16
1.66218e-16
2.0882e-16
2.61619e-16
3.26862e-16
4.07247e-16
5.05997e-16
6.26947e-16
7.74652e-16
9.54493e-16
1.17281e-15
1.43704e-15
1.75588e-15
2.13945e-15
2.59952e-15
3.14964e-15
3.80547e-15
4.5849e-15
5.5084e-15
6.59922e-15
7.8837e-15
9.39151e-15
1.1156e-14
1.32143e-14
1.56078e-14
1.83823e-14
2.15883e-14
2.52809e-14
2.95204e-14
3.43719e-14
3.99057e-14
4.61972e-14
5.33265e-14
6.13782e-14
7.04413e-14
8.06085e-14
9.19754e-14
1.0464e-13
1.18702e-13
1.34261e-13
1.51414e-13
1.7026e-13
1.90889e-13
2.13388e-13
2.37835e-13
2.64301e-13
2.92843e-13
3.23504e-13
3.56314e-13
3.91282e-13
4.28399e-13
4.67633e-13
5.08929e-13
5.52206e-13
5.97357e-13
6.44246e-13
6.9271e-13
7.42557e-13
7.93566e-13
8.45489e-13
8.98049e-13
9.50947e-13
1.00386e-12
1.05644e-12
1.10833e-12
1.15915e-12
1.20852e-12
1.25606e-12
1.30137e-12
1.34406e-12
1.38378e-12
1.42015e-12
1.45285e-12
1.48156e-12
1.50601e-12
1.52594e-12
1.54115e-12
1.5515e-12
1.55685e-12
1.55714e-12
1.55235e-12
1.54253e-12
1.52776e-12
1.50816e-12
1.48393e-12
1.4553e-12
1.42254e-12
1.38596e-12
1.34592e-12
1.30279e-12
1.25698e-12
1.20891e-12
1.15904e-12
1.1078e-12
1.05566e-12
1.00307e-12
9.50479e-13
8.98326e-13
8.47034e-13
7.97007e-13
7.48627e-13
7.02254e-13
6.58217e-13
6.16817e-13
5.78326e-13
5.42983e-13
5.10996e-13
4.8254e-13
4.5776e-13
4.36767e-13
4.19642e-13
4.06434e-13
3.97164e-13
3.9182e-13
3.90364e-13
3.92728e-13
3.98814e-13
4.085e-13
4.21633e-13
4.38033e-13
4.57496e-13
4.79789e-13
5.04654e-13
5.31808e-13
5.60945e-13
5.91737e-13
6.23835e-13
6.56873e-13
6.9047e-13
7.24232e-13
7.57757e-13
7.90641e-13
8.2248e-13
8.52875e-13
8.81439e-13
9.07799e-13
9.31607e-13
9.5254e-13
9.70307e-13
9.84654e-13
9.95369e-13
1.00228e-12
1.00528e-12
1.00428e-12
9.99275e-13
9.90289e-13
9.77407e-13
9.6076e-13
9.40525e-13
9.16921e-13
8.90208e-13
8.60677e-13
8.28647e-13
7.9446e-13
7.58472e-13
7.21048e-13
6.82556e-13
6.43362e-13
6.03821e-13
5.64273e-13
5.25039e-13
4.86417e-13
4.48677e-13
4.1206e-13
3.76776e-13
3.42999e-13
3.10876e-13
2.80515e-13
2.51998e-13
2.25373e-13
2.00662e-13
1.77862e-13
1.56946e-13
1.37866e-13
1.2056e-13
1.0495e-13
9.09466e-14
7.8454e-14
6.73692e-14
5.75866e-14
4.89994e-14
4.15016e-14
3.49897e-14
2.93638e-14
2.45288e-14
2.03954e-14
1.688e-14
1.39057e-14
1.14024e-14
9.30622e-15
7.56004e-15
6.11287e-15
4.91964e-15
3.94082e-15
3.14198e-15
2.49333e-15
1.96931e-15
1.54811e-15
1.21129e-15
9.43287e-16
7.31124e-16
5.6401e-16
4.33043e-16
3.30919e-16
2.51685e-16
1.90518e-16
1.43536e-16
1.07628e-16
8.03221e-17
5.96602e-17
4.41037e-17
3.24494e-17
2.37618e-17
1.73178e-17
1.25616e-17
9.06859e-18
6.51591e-18
4.65963e-18
3.31642e-18
2.34925e-18
1.65624e-18
1.16207e-18
8.11298e-19
5.63307e-19
3.8838e-19
2.64778e-19
1.76531e-19
1.11821e-19
6.18135e-20
1.97682e-20
5.83967e-20
1.79115e-19
3.12205e-19
4.67764e-19
6.58328e-19
8.99526e-19
1.21082e-18
1.61654e-18
2.14728e-18
2.8418e-18
3.74939e-18
4.93285e-18
6.47208e-18
8.46865e-18
1.10513e-17
1.43827e-17
1.86678e-17
2.41641e-17
3.1194e-17
4.01599e-17
5.15622e-17
6.60218e-17
8.43059e-17
1.07359e-16
1.36343e-16
1.72676e-16
2.18092e-16
2.74694e-16
3.45033e-16
4.32188e-16
5.39862e-16
6.72494e-16
8.35389e-16
1.03486e-15
1.27839e-15
1.57483e-15
1.93459e-15
2.3699e-15
2.89503e-15
3.52661e-15
4.2839e-15
5.18918e-15
6.26805e-15
7.54987e-15
9.06812e-15
1.08609e-14
1.29711e-14
1.54475e-14
1.83442e-14
2.17222e-14
2.56488e-14
3.01986e-14
3.54539e-14
4.15043e-14
4.84477e-14
5.63902e-14
6.54457e-14
7.57362e-14
8.73914e-14
1.00548e-13
1.1535e-13
1.31947e-13
1.50493e-13
1.71144e-13
1.94062e-13
2.19403e-13
2.47327e-13
2.77986e-13
3.11525e-13
3.48081e-13
3.87777e-13
4.30721e-13
4.77e-13
5.26681e-13
5.79803e-13
6.36376e-13
6.96377e-13
7.59748e-13
8.26393e-13
8.96173e-13
9.68908e-13
1.04437e-12
1.12229e-12
1.20235e-12
1.28419e-12
1.36739e-12
1.45152e-12
1.53607e-12
1.62053e-12
1.70434e-12
1.78692e-12
1.86766e-12
1.94595e-12
2.02116e-12
2.09268e-12
2.15989e-12
2.22221e-12
2.27906e-12
2.32993e-12
2.37432e-12
2.41181e-12
2.442e-12
2.4646e-12
2.47936e-12
2.48611e-12
2.48477e-12
2.47533e-12
2.45786e-12
2.43252e-12
2.39953e-12
2.35921e-12
2.31195e-12
2.2582e-12
2.19846e-12
2.13332e-12
2.06337e-12
1.98928e-12
1.91174e-12
1.83144e-12
1.74911e-12
1.66548e-12
1.58126e-12
1.49717e-12
1.41389e-12
1.33209e-12
1.2524e-12
1.17542e-12
1.10171e-12
1.03176e-12
9.66059e-13
9.05006e-13
8.48969e-13
7.98262e-13
7.53146e-13
7.13834e-13
6.80485e-13
6.53212e-13
6.32079e-13
6.17102e-13
6.08251e-13
6.05451e-13
6.08585e-13
6.17488e-13
6.31956e-13
6.51742e-13
6.76559e-13
7.06076e-13
7.39926e-13
7.77702e-13
8.18961e-13
8.63223e-13
9.09979e-13
9.58687e-13
1.00878e-12
1.05967e-12
1.11076e-12
1.16142e-12
1.21104e-12
1.259e-12
1.3047e-12
1.34755e-12
1.38698e-12
1.42248e-12
1.45355e-12
1.47976e-12
1.50073e-12
1.51615e-12
1.52578e-12
1.52944e-12
1.52703e-12
1.51855e-12
1.50403e-12
1.48363e-12
1.45754e-12
1.42606e-12
1.38951e-12
1.3483e-12
1.30287e-12
1.25373e-12
1.20138e-12
1.14636e-12
1.08925e-12
1.03059e-12
9.7093e-13
9.10814e-13
8.50752e-13
7.91227e-13
7.32685e-13
6.7553e-13
6.20122e-13
5.66772e-13
5.15741e-13
4.67241e-13
4.21435e-13
3.78437e-13
3.38318e-13
3.01106e-13
2.66791e-13
2.35329e-13
2.06645e-13
1.8064e-13
1.57196e-13
1.36176e-13
1.17431e-13
1.00807e-13
8.61419e-14
7.32742e-14
6.20435e-14
5.22933e-14
4.3873e-14
3.6639e-14
3.04568e-14
2.52008e-14
2.07554e-14
1.70149e-14
1.38838e-14
1.12762e-14
9.11574e-15
7.33486e-15
5.87436e-15
4.68269e-15
3.71529e-15
2.93395e-15
2.30607e-15
1.80405e-15
1.40469e-15
1.0886e-15
8.39665e-16
6.44608e-16
4.92533e-16
3.74562e-16
2.83504e-16
2.1357e-16
1.60129e-16
1.19493e-16
8.87482e-17
6.56026e-17
4.82643e-17
3.53407e-17
2.57553e-17
1.86811e-17
1.34859e-17
9.68956e-18
6.92901e-18
4.93154e-18
3.4933e-18
2.4628e-18
1.72797e-18
1.2064e-18
8.37648e-19
5.77543e-19
3.93756e-19
2.62536e-19
1.6631e-19
9.19398e-20
2.9404e-20
9.63138e-20
2.95411e-19
5.14903e-19
7.71426e-19
1.08563e-18
1.48325e-18
1.99633e-18
2.66493e-18
3.53941e-18
4.68357e-18
6.17852e-18
8.12754e-18
1.06621e-17
1.39492e-17
1.82005e-17
2.36835e-17
3.0735e-17
3.97781e-17
5.13424e-17
6.60889e-17
8.48395e-17
1.08613e-16
1.38669e-16
1.76558e-16
2.24184e-16
2.83876e-16
3.58473e-16
4.51426e-16
5.66914e-16
7.0998e-16
8.86689e-16
1.10431e-15
1.37152e-15
1.69864e-15
2.09793e-15
2.58385e-15
3.17342e-15
3.88659e-15
4.74668e-15
5.78083e-15
7.02047e-15
8.50191e-15
1.02669e-14
1.23632e-14
1.48454e-14
1.77755e-14
2.12233e-14
2.52678e-14
2.99972e-14
3.55103e-14
4.19163e-14
4.93363e-14
5.79032e-14
6.77624e-14
7.9072e-14
9.20032e-14
1.0674e-13
1.23479e-13
1.42429e-13
1.6381e-13
1.87853e-13
2.14797e-13
2.44889e-13
2.78381e-13
3.15526e-13
3.56577e-13
4.01785e-13
4.5139e-13
5.05622e-13
5.64695e-13
6.28801e-13
6.98104e-13
7.72738e-13
8.528e-13
9.38344e-13
1.02937e-12
1.12585e-12
1.22765e-12
1.33463e-12
1.44654e-12
1.56308e-12
1.68387e-12
1.80848e-12
1.93637e-12
2.06696e-12
2.19958e-12
2.33351e-12
2.46795e-12
2.60205e-12
2.73492e-12
2.86562e-12
2.99319e-12
3.11666e-12
3.23501e-12
3.34729e-12
3.45251e-12
3.54974e-12
3.63811e-12
3.71677e-12
3.78499e-12
3.84207e-12
3.88746e-12
3.92067e-12
3.94136e-12
3.94927e-12
3.9443e-12
3.92647e-12
3.89592e-12
3.85292e-12
3.79787e-12
3.73129e-12
3.65382e-12
3.5662e-12
3.46925e-12
3.3639e-12
3.25113e-12
3.132e-12
3.0076e-12
2.87905e-12
2.74751e-12
2.6141e-12
2.47997e-12
2.34623e-12
2.21397e-12
2.08422e-12
1.95796e-12
1.83612e-12
1.71956e-12
1.60906e-12
1.50533e-12
1.409e-12
1.32062e-12
1.24066e-12
1.16951e-12
1.10747e-12
1.05477e-12
1.01157e-12
9.77948e-13
9.539e-13
9.39361e-13
9.34196e-13
9.38198e-13
9.51099e-13
9.72563e-13
1.00219e-12
1.03952e-12
1.08403e-12
1.13515e-12
1.19223e-12
1.25457e-12
1.32145e-12
1.39206e-12
1.46558e-12
1.54113e-12
1.6178e-12
1.69468e-12
1.77083e-12
1.8453e-12
1.91716e-12
1.98549e-12
2.04942e-12
2.10808e-12
2.16069e-12
2.20654e-12
2.24496e-12
2.27541e-12
2.29743e-12
2.31065e-12
2.31483e-12
2.30984e-12
2.29568e-12
2.27244e-12
2.24035e-12
2.19973e-12
2.15102e-12
2.09475e-12
2.03152e-12
1.96203e-12
1.88702e-12
1.80729e-12
1.72364e-12
1.63694e-12
1.548e-12
1.45767e-12
1.36676e-12
1.27602e-12
1.18618e-12
1.0979e-12
1.0118e-12
9.2839e-13
8.48144e-13
7.71445e-13
6.98601e-13
6.29851e-13
5.65358e-13
5.05221e-13
4.49474e-13
3.98097e-13
3.51018e-13
3.0812e-13
2.69249e-13
2.34222e-13
2.02833e-13
1.74855e-13
1.50052e-13
1.28183e-13
1.09001e-13
9.22672e-14
7.77447e-14
6.52077e-14
5.44412e-14
4.52431e-14
3.74258e-14
3.08162e-14
2.52566e-14
2.06041e-14
1.67306e-14
1.35222e-14
1.08782e-14
8.71046e-15
6.94214e-15
5.50698e-15
4.34808e-15
3.417e-15
2.67272e-15
2.08076e-15
1.6123e-15
1.24345e-15
9.54469e-16
7.29206e-16
5.54485e-16
4.19643e-16
3.16097e-16
2.36979e-16
1.76826e-16
1.3132e-16
9.70652e-17
7.14072e-17
5.22838e-17
3.81012e-17
2.76348e-17
1.99489e-17
1.43328e-17
1.02491e-17
7.29442e-18
5.16702e-18
3.64276e-18
2.55588e-18
1.78442e-18
1.23901e-18
8.54299e-19
5.82465e-19
3.88379e-19
2.46043e-19
1.36027e-19
4.35056e-20
1.58054e-19
4.84776e-19
8.44947e-19
1.26584e-18
1.7813e-18
2.43349e-18
3.27494e-18
4.37123e-18
5.80487e-18
7.68034e-18
1.01304e-17
1.33242e-17
1.74769e-17
2.28616e-17
2.98249e-17
3.88039e-17
5.03498e-17
6.51542e-17
8.40829e-17
1.08216e-16
1.38897e-16
1.77789e-16
2.26951e-16
2.88913e-16
3.66783e-16
4.64363e-16
5.86284e-16
7.38176e-16
9.26851e-16
1.16053e-15
1.4491e-15
1.80439e-15
2.24055e-15
2.77439e-15
3.42583e-15
4.2184e-15
5.17978e-15
6.34243e-15
7.74421e-15
9.4292e-15
1.14484e-14
1.38608e-14
1.67341e-14
2.01457e-14
2.41841e-14
2.89494e-14
3.4555e-14
4.11284e-14
4.88125e-14
5.77663e-14
6.81667e-14
8.02086e-14
9.41063e-14
1.10094e-13
1.28426e-13
1.49378e-13
1.73244e-13
2.00341e-13
2.31004e-13
2.65583e-13
3.04449e-13
3.47982e-13
3.96577e-13
4.50632e-13
5.10551e-13
5.76735e-13
6.49578e-13
7.29459e-13
8.16738e-13
9.11748e-13
1.01478e-12
1.1261e-12
1.2459e-12
1.37432e-12
1.51143e-12
1.65723e-12
1.81162e-12
1.97442e-12
2.14534e-12
2.32398e-12
2.50986e-12
2.70234e-12
2.90069e-12
3.10407e-12
3.31151e-12
3.52194e-12
3.73418e-12
3.94696e-12
4.15892e-12
4.36863e-12
4.57459e-12
4.77526e-12
4.96909e-12
5.15451e-12
5.32997e-12
5.49394e-12
5.64497e-12
5.78166e-12
5.90273e-12
6.00701e-12
6.09347e-12
6.16123e-12
6.20958e-12
6.238e-12
6.24615e-12
6.2339e-12
6.20131e-12
6.14866e-12
6.07643e-12
5.98529e-12
5.87609e-12
5.74989e-12
5.60787e-12
5.45139e-12
5.28193e-12
5.10106e-12
4.91046e-12
4.71187e-12
4.50707e-12
4.29787e-12
4.08605e-12
3.87342e-12
3.6617e-12
3.45259e-12
3.2477e-12
3.04854e-12
2.85655e-12
2.67305e-12
2.49923e-12
2.33618e-12
2.18484e-12
2.04605e-12
1.9205e-12
1.80876e-12
1.71128e-12
1.62837e-12
1.56025e-12
1.507e-12
1.46858e-12
1.44487e-12
1.43562e-12
1.44049e-12
1.45902e-12
1.49068e-12
1.53483e-12
1.59073e-12
1.65756e-12
1.73442e-12
1.8203e-12
1.91413e-12
2.01476e-12
2.12097e-12
2.23148e-12
2.34496e-12
2.46002e-12
2.57526e-12
2.68926e-12
2.80059e-12
2.90783e-12
3.00961e-12
3.10459e-12
3.1915e-12
3.26918e-12
3.33653e-12
3.39261e-12
3.43659e-12
3.46781e-12
3.48573e-12
3.49003e-12
3.48052e-12
3.45722e-12
3.42031e-12
3.37013e-12
3.30721e-12
3.23221e-12
3.14596e-12
3.04938e-12
2.94353e-12
2.82952e-12
2.70857e-12
2.58191e-12
2.45079e-12
2.3165e-12
2.18027e-12
2.0433e-12
1.90674e-12
1.77167e-12
1.63907e-12
1.50984e-12
1.38476e-12
1.26452e-12
1.14967e-12
1.04068e-12
9.37877e-13
8.41503e-13
7.51694e-13
6.68492e-13
5.91855e-13
5.21667e-13
4.57747e-13
3.99858e-13
3.47719e-13
3.01017e-13
2.5941e-13
2.22542e-13
1.90048e-13
1.6156e-13
1.36716e-13
1.15164e-13
9.65659e-14
8.05998e-14
6.69646e-14
5.538e-14
4.55884e-14
3.73548e-14
3.04667e-14
2.47336e-14
1.99862e-14
1.60751e-14
1.28692e-14
1.02546e-14
8.13321e-15
6.42055e-15
5.04485e-15
3.94538e-15
3.07108e-15
2.37933e-15
1.83476e-15
1.40818e-15
1.07571e-15
8.17875e-16
6.18917e-16
4.66156e-16
3.49447e-16
2.60725e-16
1.93613e-16
1.43099e-16
1.05266e-16
7.70708e-17
5.61617e-17
4.07323e-17
2.94027e-17
2.11244e-17
1.51054e-17
1.07505e-17
7.61507e-18
5.36861e-18
3.76679e-18
2.62986e-18
1.82607e-18
1.25911e-18
8.58498e-19
5.72465e-19
3.62688e-19
2.00527e-19
6.41373e-20
2.58118e-19
7.91676e-19
1.37983e-18
2.06707e-18
2.9086e-18
3.97319e-18
5.34645e-18
7.13532e-18
9.4743e-18
1.25336e-17
1.65297e-17
2.17379e-17
2.85088e-17
3.72873e-17
4.86373e-17
6.32707e-17
8.20844e-17
1.06204e-16
1.37038e-16
1.76342e-16
2.26302e-16
2.89623e-16
3.69648e-16
4.70491e-16
5.97202e-16
7.55952e-16
9.54265e-16
1.20128e-15
1.50805e-15
1.88791e-15
2.35689e-15
2.9342e-15
3.64273e-15
4.50974e-15
5.56749e-15
6.85409e-15
8.41434e-15
1.03007e-14
1.25745e-14
1.5307e-14
1.85805e-14
2.24903e-14
2.71457e-14
3.26717e-14
3.92108e-14
4.69245e-14
5.59955e-14
6.66291e-14
7.90549e-14
9.3529e-14
1.10335e-13
1.29787e-13
1.52228e-13
1.78033e-13
2.0761e-13
2.41399e-13
2.79873e-13
3.23536e-13
3.7292e-13
4.28588e-13
4.91126e-13
5.6114e-13
6.39254e-13
7.26102e-13
8.22319e-13
9.28537e-13
1.04538e-12
1.17343e-12
1.31326e-12
1.46538e-12
1.63025e-12
1.80826e-12
1.99969e-12
2.20476e-12
2.42356e-12
2.65604e-12
2.90203e-12
3.16122e-12
3.43311e-12
3.71705e-12
4.01222e-12
4.31759e-12
4.63198e-12
4.95401e-12
5.28212e-12
5.61459e-12
5.94952e-12
6.28488e-12
6.61849e-12
6.94807e-12
7.27125e-12
7.5856e-12
7.88864e-12
8.17791e-12
8.45097e-12
8.70542e-12
8.939e-12
9.14953e-12
9.33503e-12
9.4937e-12
9.62396e-12
9.72447e-12
9.79418e-12
9.83233e-12
9.83845e-12
9.81239e-12
9.75434e-12
9.66479e-12
9.54455e-12
9.39476e-12
9.21682e-12
9.01243e-12
8.78354e-12
8.53229e-12
8.26106e-12
7.97238e-12
7.66888e-12
7.35333e-12
7.02852e-12
6.69729e-12
6.36247e-12
6.02684e-12
5.69311e-12
5.36389e-12
5.04169e-12
4.72885e-12
4.42757e-12
4.13986e-12
3.86755e-12
3.61227e-12
3.37547e-12
3.15837e-12
2.96201e-12
2.78723e-12
2.63466e-12
2.50475e-12
2.39776e-12
2.31378e-12
2.25271e-12
2.21429e-12
2.19811e-12
2.20358e-12
2.22998e-12
2.27644e-12
2.34192e-12
2.42529e-12