/*--------------------------------*- C++ -*----------------------------------*\
| =========                 |                                                 |
| \\      /  F ield         | OpenFOAM: The Open Source CFD Toolbox           |
|  \\    /   O peration     | Version:  v2012                                 |
|   \\  /    A nd           | Website:  www.openfoam.com                      |
|    \\/     M anipulation  |                                                 |
\*---------------------------------------------------------------------------*/
FoamFile
{
    version     2.0;
    format      ascii;
    class       surfaceScalarField;
    location    "9.4";
    object      phi;
}
// * * * * * * * * * * * * * * * * * * * * * * * * * * * * * * * * * * * * * //

dimensions      [0 3 -1 0 0 0 0];
oriented        oriented;


internalField   nonuniform List<scalar> 
130560
(
3.69134e-06
-3.69134e-06
7.38273e-06
-3.69139e-06
1.10742e-05
-3.69148e-06
1.47658e-05
-3.69162e-06
1.84576e-05
-3.6918e-06
2.21497e-05
-3.69203e-06
2.58419e-05
-3.69229e-06
2.95345e-05
-3.69258e-06
3.32274e-05
-3.69289e-06
3.69206e-05
-3.69323e-06
4.06142e-05
-3.69357e-06
4.43081e-05
-3.69393e-06
4.80024e-05
-3.69427e-06
5.1697e-05
-3.69461e-06
5.53919e-05
-3.69492e-06
5.90871e-05
-3.6952e-06
6.27826e-05
-3.69543e-06
6.64782e-05
-3.6956e-06
7.01739e-05
-3.6957e-06
7.38696e-05
-3.69571e-06
7.75652e-05
-3.69562e-06
8.12606e-05
-3.69542e-06
8.49557e-05
-3.69508e-06
8.86503e-05
-3.69459e-06
9.23442e-05
-3.69394e-06
9.60373e-05
-3.69309e-06
9.97294e-05
-3.69204e-06
0.00010342
-3.69077e-06
0.000107109
-3.68925e-06
0.000110797
-3.68745e-06
0.000114482
-3.68537e-06
0.000118165
-3.68298e-06
0.000121845
-3.68024e-06
0.000125523
-3.67715e-06
0.000129196
-3.67367e-06
0.000132866
-3.66977e-06
0.000136531
-3.66544e-06
0.000140192
-3.66065e-06
0.000143847
-3.65536e-06
0.000147497
-3.64956e-06
0.00015114
-3.6432e-06
0.000154776
-3.63628e-06
0.000158405
-3.62875e-06
0.000162026
-3.62059e-06
0.000165638
-3.61176e-06
0.00016924
-3.60225e-06
0.000172832
-3.59201e-06
0.000176413
-3.58102e-06
0.000179982
-3.56926e-06
0.000183539
-3.55668e-06
0.000187082
-3.54326e-06
0.000190611
-3.52897e-06
0.000194125
-3.51378e-06
0.000197623
-3.49767e-06
0.000201103
-3.48059e-06
0.000204566
-3.46253e-06
0.000208009
-3.44346e-06
0.000211432
-3.42334e-06
0.000214835
-3.40216e-06
0.000218214
-3.37988e-06
0.000221571
-3.35648e-06
0.000224903
-3.33193e-06
0.000228209
-3.30622e-06
0.000231488
-3.27932e-06
0.00023474
-3.2512e-06
0.000237961
-3.22185e-06
0.000241153
-3.19125e-06
0.000244312
-3.15939e-06
0.000247438
-3.12624e-06
0.00025053
-3.09179e-06
0.000253586
-3.05603e-06
0.000256605
-3.01894e-06
0.000259586
-2.98053e-06
0.000262526
-2.94077e-06
0.000265426
-2.89967e-06
0.000268283
-2.85722e-06
0.000271097
-2.81342e-06
0.000273865
-2.76828e-06
0.000276587
-2.72178e-06
0.000279261
-2.67395e-06
0.000281885
-2.62477e-06
0.00028446
-2.57428e-06
0.000286982
-2.52247e-06
0.000289452
-2.46936e-06
0.000291867
-2.41497e-06
0.000294226
-2.35931e-06
0.000296528
-2.30241e-06
0.000298773
-2.24428e-06
0.000300958
-2.18497e-06
0.000303082
-2.12448e-06
0.000305145
-2.06286e-06
0.000307145
-2.00013e-06
0.000309081
-1.93633e-06
0.000310953
-1.87149e-06
0.000312758
-1.80566e-06
0.000314497
-1.73888e-06
0.000316169
-1.67118e-06
0.000317771
-1.6026e-06
0.000319304
-1.53321e-06
0.000320767
-1.46304e-06
0.00032216
-1.39214e-06
0.00032348
-1.32056e-06
0.000324728
-1.24835e-06
0.000325904
-1.17557e-06
0.000327006
-1.10227e-06
0.000328035
-1.0285e-06
0.000328989
-9.54323e-07
0.000329869
-8.79789e-07
0.000330674
-8.04956e-07
0.000331404
-7.29882e-07
0.000332058
-6.54622e-07
0.000332638
-5.79234e-07
0.000333141
-5.03776e-07
0.00033357
-4.28304e-07
0.000333923
-3.52875e-07
0.0003342
-2.77544e-07
0.000334402
-2.02369e-07
0.00033453
-1.27404e-07
0.000334583
-5.27031e-08
0.000334561
2.168e-08
0.000334465
9.5693e-08
0.000334296
1.69284e-07
0.000334053
2.42404e-07
0.000333738
3.15004e-07
0.000333351
3.87035e-07
0.000332893
4.58453e-07
0.000332364
5.29212e-07
0.000331765
5.9927e-07
0.000331096
6.68585e-07
0.000330359
7.37119e-07
0.000329554
8.04833e-07
0.000328682
8.71692e-07
0.000327745
9.37661e-07
0.000326742
1.00271e-06
0.000325675
1.0668e-06
0.000324545
1.12992e-06
0.000323353
1.19203e-06
0.0003221
1.25311e-06
0.000320787
1.31313e-06
0.000319415
1.37209e-06
0.000317985
1.42994e-06
0.000316498
1.48669e-06
0.000314956
1.54232e-06
0.000313359
1.59681e-06
0.000311709
1.65015e-06
0.000310007
1.70233e-06
0.000308253
1.75334e-06
0.00030645
1.80319e-06
0.000304598
1.85186e-06
0.000302699
1.89935e-06
0.000300753
1.94566e-06
0.000298762
1.99079e-06
0.000296728
2.03475e-06
0.00029465
2.07753e-06
0.000292531
2.11914e-06
0.000290371
2.15959e-06
0.000288173
2.19888e-06
0.000285935
2.23703e-06
0.000283661
2.27403e-06
0.000281352
2.30991e-06
0.000279007
2.34467e-06
0.000276629
2.37833e-06
0.000274218
2.41089e-06
0.000271775
2.44238e-06
0.000269302
2.47281e-06
0.0002668
2.50219e-06
0.00026427
2.53053e-06
0.000261712
2.55787e-06
0.000259128
2.58421e-06
0.000256518
2.60957e-06
0.000253884
2.63397e-06
0.000251227
2.65743e-06
0.000248547
2.67997e-06
0.000245845
2.70161e-06
0.000243123
2.72236e-06
0.000240381
2.74225e-06
0.000237619
2.76129e-06
0.00023484
2.77951e-06
0.000232043
2.79693e-06
0.000229229
2.81357e-06
0.0002264
2.82944e-06
0.000223555
2.84457e-06
0.000220696
2.85898e-06
0.000217824
2.87269e-06
0.000214938
2.88571e-06
0.00021204
2.89808e-06
0.00020913
2.9098e-06
0.000206209
2.92091e-06
0.000203278
2.93141e-06
0.000200336
2.94133e-06
0.000197386
2.95069e-06
0.000194426
2.9595e-06
0.000191458
2.96779e-06
0.000188483
2.97558e-06
0.0001855
2.98287e-06
0.00018251
2.9897e-06
0.000179514
2.99607e-06
0.000176512
3.00202e-06
0.000173505
3.00754e-06
0.000170492
3.01266e-06
0.000167474
3.0174e-06
0.000164453
3.02178e-06
0.000161427
3.0258e-06
0.000158397
3.02949e-06
0.000155365
3.03285e-06
0.000152329
3.03592e-06
0.00014929
3.03869e-06
0.000146249
3.04119e-06
0.000143205
3.04342e-06
0.00014016
3.04541e-06
0.000137113
3.04716e-06
0.000134064
3.04869e-06
0.000131014
3.05001e-06
0.000127963
3.05113e-06
0.000124911
3.05207e-06
0.000121858
3.05283e-06
0.000118805
3.05344e-06
0.000115751
3.05389e-06
0.000112697
3.0542e-06
0.000109642
3.05439e-06
0.000106588
3.05445e-06
0.000103533
3.0544e-06
0.000100479
3.05426e-06
9.7425e-05
3.05402e-06
9.43713e-05
3.0537e-06
9.1318e-05
3.05331e-06
8.82651e-05
3.05285e-06
8.52128e-05
3.05233e-06
8.2161e-05
3.05176e-06
7.91099e-05
3.05115e-06
7.60594e-05
3.05051e-06
7.30095e-05
3.04983e-06
6.99604e-05
3.04914e-06
6.6912e-05
3.04842e-06
6.38643e-05
3.0477e-06
6.08173e-05
3.04697e-06
5.77711e-05
3.04624e-06
5.47255e-05
3.04552e-06
5.16807e-05
3.04481e-06
4.86366e-05
3.04411e-06
4.55932e-05
3.04343e-06
4.25504e-05
3.04278e-06
3.95083e-05
3.04215e-06
3.64667e-05
3.04155e-06
3.34257e-05
3.04099e-06
3.03853e-05
3.04046e-06
2.73453e-05
3.03997e-06
2.43058e-05
3.03952e-06
2.12667e-05
3.03912e-06
1.82279e-05
3.03877e-06
1.51894e-05
3.03846e-06
1.21512e-05
3.0382e-06
9.11324e-06
3.03799e-06
6.07541e-06
3.03783e-06
3.03768e-06
3.03773e-06
3.03768e-06
3.69129e-06
-7.38263e-06
7.38263e-06
-7.38273e-06
1.10741e-05
-7.38292e-06
1.47656e-05
-7.3832e-06
1.84574e-05
-7.38357e-06
2.21494e-05
-7.38402e-06
2.58417e-05
-7.38454e-06
2.95342e-05
-7.38513e-06
3.32271e-05
-7.38576e-06
3.69203e-05
-7.38644e-06
4.06139e-05
-7.38714e-06
4.43078e-05
-7.38786e-06
4.80021e-05
-7.38856e-06
5.16967e-05
-7.38924e-06
5.53917e-05
-7.38988e-06
5.90869e-05
-7.39044e-06
6.27824e-05
-7.39091e-06
6.64781e-05
-7.39127e-06
7.01739e-05
-7.39148e-06
7.38697e-05
-7.39152e-06
7.75654e-05
-7.39136e-06
8.1261e-05
-7.39097e-06
8.49562e-05
-7.39031e-06
8.8651e-05
-7.38935e-06
9.23451e-05
-7.38806e-06
9.60384e-05
-7.38639e-06
9.97307e-05
-7.38431e-06
0.000103422
-7.38178e-06
0.000107111
-7.37876e-06
0.000110799
-7.3752e-06
0.000114485
-7.37106e-06
0.000118168
-7.36629e-06
0.000121849
-7.36084e-06
0.000125526
-7.35468e-06
0.0001292
-7.34774e-06
0.00013287
-7.33998e-06
0.000136536
-7.33135e-06
0.000140197
-7.32178e-06
0.000143853
-7.31124e-06
0.000147503
-7.29966e-06
0.000151147
-7.28698e-06
0.000154784
-7.27316e-06
0.000158413
-7.25813e-06
0.000162035
-7.24183e-06
0.000165647
-7.22422e-06
0.00016925
-7.20521e-06
0.000172843
-7.18477e-06
0.000176425
-7.16283e-06
0.000179995
-7.13932e-06
0.000183552
-7.1142e-06
0.000187096
-7.08739e-06
0.000190626
-7.05884e-06
0.000194141
-7.0285e-06
0.00019764
-6.99629e-06
0.000201121
-6.96217e-06
0.000204585
-6.92608e-06
0.000208029
-6.88796e-06
0.000211454
-6.84775e-06
0.000214857
-6.80541e-06
0.000218238
-6.76087e-06
0.000221595
-6.7141e-06
0.000224929
-6.66503e-06
0.000228236
-6.61363e-06
0.000231516
-6.55984e-06
0.000234769
-6.50363e-06
0.000237992
-6.44495e-06
0.000241185
-6.38378e-06
0.000244345
-6.32006e-06
0.000247473
-6.25377e-06
0.000250566
-6.18488e-06
0.000253623
-6.11337e-06
0.000256643
-6.03921e-06
0.000259625
-5.96239e-06
0.000262567
-5.88288e-06
0.000265468
-5.80069e-06
0.000268327
-5.71579e-06
0.000271142
-5.62819e-06
0.000273911
-5.5379e-06
0.000276635
-5.4449e-06
0.00027931
-5.34922e-06
0.000281936
-5.25087e-06
0.000284511
-5.14987e-06
0.000287035
-5.04623e-06
0.000289506
-4.94e-06
0.000291922
-4.83119e-06
0.000294283
-4.71986e-06
0.000296586
-4.60603e-06
0.000298832
-4.48976e-06
0.000301018
-4.3711e-06
0.000303144
-4.2501e-06
0.000305207
-4.12682e-06
0.000307209
-4.00133e-06
0.000309146
-3.87369e-06
0.000311019
-3.74398e-06
0.000312825
-3.61228e-06
0.000314565
-3.47866e-06
0.000316237
-3.34322e-06
0.00031784
-3.20603e-06
0.000319374
-3.06719e-06
0.000320838
-2.9268e-06
0.000322231
-2.78495e-06
0.000323552
-2.64174e-06
0.000324801
-2.49727e-06
0.000325977
-2.35166e-06
0.00032708
-2.205e-06
0.000328109
-2.05741e-06
0.000329063
-1.909e-06
0.000329944
-1.75987e-06
0.000330749
-1.61015e-06
0.000331479
-1.45995e-06
0.000332134
-1.30937e-06
0.000332713
-1.15854e-06
0.000333217
-1.00756e-06
0.000333645
-8.56563e-07
0.000333998
-7.05648e-07
0.000334275
-5.54932e-07
0.000334477
-4.04527e-07
0.000334604
-2.54542e-07
0.000334657
-1.05087e-07
0.000334635
4.37317e-08
0.000334539
1.91809e-07
0.000334369
3.39042e-07
0.000334126
4.8533e-07
0.00033381
6.30577e-07
0.000333423
7.74685e-07
0.000332964
9.17565e-07
0.000332434
1.05913e-06
0.000331834
1.19928e-06
0.000331164
1.33795e-06
0.000330426
1.47506e-06
0.000329621
1.61052e-06
0.000328748
1.74427e-06
0.000327809
1.87624e-06
0.000326806
2.00637e-06
0.000325738
2.13459e-06
0.000324607
2.26085e-06
0.000323414
2.38509e-06
0.00032216
2.50727e-06
0.000320846
2.62734e-06
0.000319472
2.74526e-06
0.000318041
2.861e-06
0.000316554
2.97451e-06
0.00031501
3.08577e-06
0.000313412
3.19476e-06
0.000311761
3.30145e-06
0.000310057
3.40582e-06
0.000308303
3.50786e-06
0.000306499
3.60755e-06
0.000304645
3.7049e-06
0.000302745
3.79988e-06
0.000300798
3.8925e-06
0.000298806
3.98276e-06
0.00029677
4.07067e-06
0.000294692
4.15623e-06
0.000292571
4.23945e-06
0.00029041
4.32034e-06
0.00028821
4.39891e-06
0.000285972
4.47519e-06
0.000283697
4.54919e-06
0.000281386
4.62093e-06
0.00027904
4.69044e-06
0.000276661
4.75774e-06
0.000274249
4.82286e-06
0.000271806
4.88582e-06
0.000269332
4.94666e-06
0.000266828
5.0054e-06
0.000264297
5.06208e-06
0.000261738
5.11674e-06
0.000259153
5.1694e-06
0.000256542
5.2201e-06
0.000253907
5.26889e-06
0.000251249
5.31579e-06
0.000248568
5.36084e-06
0.000245866
5.40409e-06
0.000243142
5.44558e-06
0.000240399
5.48533e-06
0.000237637
5.5234e-06
0.000234857
5.55983e-06
0.000232059
5.59464e-06
0.000229245
5.62789e-06
0.000226415
5.65962e-06
0.000223569
5.68986e-06
0.00022071
5.71866e-06
0.000217836
5.74605e-06
0.00021495
5.77209e-06
0.000212051
5.7968e-06
0.000209141
5.82023e-06
0.000206219
5.84242e-06
0.000203287
5.8634e-06
0.000200345
5.88322e-06
0.000197394
5.90192e-06
0.000194434
5.91953e-06
0.000191466
5.93609e-06
0.00018849
5.95164e-06
0.000185507
5.96621e-06
0.000182516
5.97985e-06
0.00017952
5.99258e-06
0.000176517
6.00445e-06
0.00017351
6.01548e-06
0.000170496
6.02571e-06
0.000167479
6.03517e-06
0.000164457
6.0439e-06
0.00016143
6.05193e-06
0.000158401
6.05929e-06
0.000155367
6.06601e-06
0.000152331
6.07212e-06
0.000149292
6.07765e-06
0.000146251
6.08263e-06
0.000143207
6.08709e-06
0.000140162
6.09104e-06
0.000137114
6.09453e-06
0.000134065
6.09758e-06
0.000131015
6.10021e-06
0.000127964
6.10244e-06
0.000124912
6.10431e-06
0.000121859
6.10583e-06
0.000118805
6.10702e-06
0.000115751
6.10792e-06
0.000112697
6.10853e-06
0.000109642
6.10889e-06
0.000106588
6.10901e-06
0.000103533
6.10891e-06
0.000100479
6.1086e-06
9.74246e-05
6.10812e-06
9.43708e-05
6.10747e-06
9.13175e-05
6.10668e-06
8.82646e-05
6.10575e-06
8.52122e-05
6.10471e-06
8.21604e-05
6.10357e-06
7.91092e-05
6.10234e-06
7.60586e-05
6.10104e-06
7.30088e-05
6.09969e-06
6.99596e-05
6.09829e-06
6.69112e-05
6.09686e-06
6.38635e-05
6.0954e-06
6.08165e-05
6.09394e-06
5.77703e-05
6.09248e-06
5.47248e-05
6.09103e-06
5.168e-05
6.0896e-06
4.86359e-05
6.0882e-06
4.55925e-05
6.08684e-06
4.25498e-05
6.08552e-06
3.95076e-05
6.08426e-06
3.64661e-05
6.08307e-06
3.34252e-05
6.08193e-06
3.03848e-05
6.08088e-06
2.73448e-05
6.0799e-06
2.43054e-05
6.079e-06
2.12663e-05
6.0782e-06
1.82276e-05
6.07748e-06
1.51892e-05
6.07687e-06
1.2151e-05
6.07634e-06
9.11308e-06
6.07593e-06
6.0753e-06
6.07561e-06
3.03762e-06
6.0754e-06
6.0753e-06
3.6912e-06
-1.10738e-05
7.38244e-06
-1.1074e-05
1.10738e-05
-1.10743e-05
1.47653e-05
-1.10747e-05
1.8457e-05
-1.10753e-05
2.21489e-05
-1.10759e-05
2.58411e-05
-1.10767e-05
2.95336e-05
-1.10776e-05
3.32264e-05
-1.10786e-05
3.69196e-05
-1.10796e-05
4.06132e-05
-1.10807e-05
4.43071e-05
-1.10818e-05
4.80014e-05
-1.10829e-05
5.16961e-05
-1.10839e-05
5.53911e-05
-1.10849e-05
5.90864e-05
-1.10858e-05
6.2782e-05
-1.10865e-05
6.64779e-05
-1.10871e-05
7.01738e-05
-1.10874e-05
7.38698e-05
-1.10875e-05
7.75658e-05
-1.10873e-05
8.12616e-05
-1.10868e-05
8.49572e-05
-1.10858e-05
8.86523e-05
-1.10845e-05
9.23468e-05
-1.10826e-05
9.60405e-05
-1.10801e-05
9.97332e-05
-1.1077e-05
0.000103425
-1.10733e-05
0.000107115
-1.10688e-05
0.000110803
-1.10635e-05
0.000114489
-1.10574e-05
0.000118173
-1.10503e-05
0.000121855
-1.10422e-05
0.000125533
-1.1033e-05
0.000129208
-1.10226e-05
0.000132879
-1.10111e-05
0.000136546
-1.09982e-05
0.000140208
-1.09839e-05
0.000143865
-1.09682e-05
0.000147516
-1.09509e-05
0.000151161
-1.09319e-05
0.000154799
-1.09112e-05
0.00015843
-1.08888e-05
0.000162052
-1.08644e-05
0.000165666
-1.08381e-05
0.000169271
-1.08096e-05
0.000172865
-1.0779e-05
0.000176448
-1.07462e-05
0.00018002
-1.0711e-05
0.000183579
-1.06734e-05
0.000187125
-1.06333e-05
0.000190657
-1.05905e-05
0.000194173
-1.05451e-05
0.000197674
-1.04968e-05
0.000201157
-1.04457e-05
0.000204623
-1.03917e-05
0.000208069
-1.03345e-05
0.000211496
-1.02743e-05
0.000214901
-1.02108e-05
0.000218285
-1.01441e-05
0.000221645
-1.0074e-05
0.00022498
-1.00005e-05
0.00022829
-9.92342e-06
0.000231573
-9.84279e-06
0.000234828
-9.75853e-06
0.000238053
-9.67056e-06
0.000241248
-9.57884e-06
0.000244412
-9.4833e-06
0.000247542
-9.3839e-06
0.000250637
-9.2806e-06
0.000253697
-9.17337e-06
0.00025672
-9.06215e-06
0.000259705
-8.94693e-06
0.00026265
-8.82769e-06
0.000265553
-8.7044e-06
0.000268415
-8.57706e-06
0.000271232
-8.44567e-06
0.000274004
-8.31021e-06
0.00027673
-8.17071e-06
0.000279408
-8.02717e-06
0.000282037
-7.87962e-06
0.000284615
-7.72809e-06
0.000287142
-7.5726e-06
0.000289615
-7.41321e-06
0.000292034
-7.24995e-06
0.000294397
-7.0829e-06
0.000296703
-6.9121e-06
0.000298951
-6.73763e-06
0.000301139
-6.55957e-06
0.000303267
-6.37799e-06
0.000305333
-6.19299e-06
0.000307336
-6.00467e-06
0.000309276
-5.81312e-06
0.00031115
-5.61847e-06
0.000312959
-5.42081e-06
0.0003147
-5.22028e-06
0.000316374
-5.017e-06
0.000317979
-4.81111e-06
0.000319515
-4.60273e-06
0.00032098
-4.39202e-06
0.000322374
-4.17912e-06
0.000323697
-3.96417e-06
0.000324947
-3.74735e-06
0.000326124
-3.52879e-06
0.000327228
-3.30867e-06
0.000328257
-3.08715e-06
0.000329213
-2.86439e-06
0.000330093
-2.64056e-06
0.000330899
-2.41583e-06
0.000331629
-2.19038e-06
0.000332284
-1.96437e-06
0.000332864
-1.73798e-06
0.000333368
-1.51138e-06
0.000333796
-1.28474e-06
0.000334149
-1.05822e-06
0.000334426
-8.3201e-07
0.000334627
-6.06264e-07
0.000334754
-3.81151e-07
0.000334806
-1.56835e-07
0.000334783
6.65243e-08
0.000334686
2.88769e-07
0.000334515
5.09744e-07
0.000334271
7.29298e-07
0.000333955
9.47286e-07
0.000333566
1.16356e-06
0.000333105
1.37799e-06
0.000332574
1.59044e-06
0.000331972
1.80078e-06
0.000331301
2.00889e-06
0.000330562
2.21464e-06
0.000329755
2.41792e-06
0.00032888
2.61864e-06
0.00032794
2.81667e-06
0.000326934
3.01194e-06
0.000325864
3.20434e-06
0.000324731
3.39379e-06
0.000323536
3.58022e-06
0.00032228
3.76354e-06
0.000320964
3.9437e-06
0.000319588
4.12063e-06
0.000318155
4.29427e-06
0.000316665
4.46458e-06
0.000315119
4.63151e-06
0.000313519
4.79501e-06
0.000311865
4.95507e-06
0.00031016
5.11165e-06
0.000308403
5.26472e-06
0.000306596
5.41427e-06
0.000304741
5.56029e-06
0.000302838
5.70277e-06
0.000300889
5.8417e-06
0.000298894
5.97709e-06
0.000296856
6.10894e-06
0.000294775
6.23727e-06
0.000292652
6.36208e-06
0.000290489
6.4834e-06
0.000288287
6.60124e-06
0.000286046
6.71563e-06
0.000283769
6.82661e-06
0.000281456
6.93419e-06
0.000279108
7.03843e-06
0.000276726
7.13934e-06
0.000274312
7.23698e-06
0.000271866
7.33139e-06
0.000269391
7.4226e-06
0.000266885
7.51068e-06
0.000264352
7.59566e-06
0.000261791
7.6776e-06
0.000259204
7.75654e-06
0.000256591
7.83255e-06
0.000253954
7.90568e-06
0.000251294
7.97599e-06
0.000248612
8.04352e-06
0.000245907
8.10835e-06
0.000243182
8.17053e-06
0.000240438
8.23011e-06
0.000237674
8.28716e-06
0.000234892
8.34175e-06
0.000232093
8.39392e-06
0.000229277
8.44374e-06
0.000226445
8.49128e-06
0.000223598
8.53659e-06
0.000220737
8.57974e-06
0.000217863
8.62078e-06
0.000214975
8.65978e-06
0.000212075
8.6968e-06
0.000209163
8.73189e-06
0.00020624
8.76513e-06
0.000203307
8.79656e-06
0.000200364
8.82624e-06
0.000197412
8.85424e-06
0.000194451
8.8806e-06
0.000191482
8.9054e-06
0.000188505
8.92868e-06
0.00018552
8.95049e-06
0.000182529
8.9709e-06
0.000179532
8.98996e-06
0.000176529
9.00771e-06
0.00017352
9.02422e-06
0.000170506
9.03952e-06
0.000167488
9.05368e-06
0.000164465
9.06673e-06
0.000161438
9.07874e-06
0.000158407
9.08974e-06
0.000155374
9.09978e-06
0.000152337
9.10891e-06
0.000149297
9.11717e-06
0.000146255
9.1246e-06
0.000143211
9.13125e-06
0.000140165
9.13715e-06
0.000137117
9.14235e-06
0.000134068
9.14689e-06
0.000131017
9.1508e-06
0.000127966
9.15412e-06
0.000124913
9.15689e-06
0.00012186
9.15914e-06
0.000118806
9.16091e-06
0.000115752
9.16223e-06
0.000112697
9.16312e-06
0.000109642
9.16363e-06
0.000106587
9.16379e-06
0.000103533
9.16361e-06
0.000100478
9.16314e-06
9.7424e-05
9.16239e-06
9.43701e-05
9.16139e-06
9.13166e-05
9.16018e-06
8.82635e-05
9.15877e-06
8.52111e-05
9.15719e-06
8.21592e-05
9.15546e-06
7.91079e-05
9.1536e-06
7.60573e-05
9.15164e-06
7.30074e-05
9.14959e-06
6.99582e-05
9.14747e-06
6.69098e-05
9.14531e-06
6.38621e-05
9.14311e-06
6.08151e-05
9.14091e-06
5.77689e-05
9.1387e-06
5.47234e-05
9.13651e-06
5.16786e-05
9.13436e-06
4.86346e-05
9.13225e-06
4.55912e-05
9.1302e-06
4.25485e-05
9.12822e-06
3.95065e-05
9.12632e-06
3.6465e-05
9.12451e-06
3.34241e-05
9.12281e-06
3.03838e-05
9.12122e-06
2.7344e-05
9.11974e-06
2.43046e-05
9.1184e-06
2.12656e-05
9.11718e-06
1.8227e-05
9.11611e-06
1.51886e-05
9.11517e-06
1.21506e-05
9.11439e-06
9.11276e-06
9.11376e-06
6.07509e-06
9.11329e-06
3.03752e-06
9.11298e-06
9.11282e-06
3.69105e-06
-1.47649e-05
7.38215e-06
-1.47651e-05
1.10734e-05
-1.47655e-05
1.47647e-05
-1.47661e-05
1.84563e-05
-1.47668e-05
2.21481e-05
-1.47677e-05
2.58402e-05
-1.47688e-05
2.95326e-05
-1.477e-05
3.32254e-05
-1.47714e-05
3.69185e-05
-1.47728e-05
4.06121e-05
-1.47742e-05
4.4306e-05
-1.47757e-05
4.80004e-05
-1.47772e-05
5.16951e-05
-1.47787e-05
5.53902e-05
-1.478e-05
5.90857e-05
-1.47812e-05
6.27815e-05
-1.47823e-05
6.64775e-05
-1.47831e-05
7.01737e-05
-1.47837e-05
7.387e-05
-1.47839e-05
7.75664e-05
-1.47837e-05
8.12626e-05
-1.4783e-05
8.49586e-05
-1.47818e-05
8.86542e-05
-1.47801e-05
9.23492e-05
-1.47776e-05
9.60435e-05
-1.47744e-05
9.97369e-05
-1.47704e-05
0.000103429
-1.47655e-05
0.00010712
-1.47597e-05
0.000110809
-1.47527e-05
0.000114497
-1.47446e-05
0.000118181
-1.47353e-05
0.000121864
-1.47246e-05
0.000125543
-1.47124e-05
0.00012922
-1.46988e-05
0.000132892
-1.46835e-05
0.00013656
-1.46664e-05
0.000140224
-1.46475e-05
0.000143882
-1.46266e-05
0.000147535
-1.46037e-05
0.000151182
-1.45786e-05
0.000154822
-1.45511e-05
0.000158454
-1.45213e-05
0.000162079
-1.4489e-05
0.000165695
-1.4454e-05
0.000169301
-1.44162e-05
0.000172898
-1.43756e-05
0.000176483
-1.43319e-05
0.000180058
-1.42851e-05
0.000183619
-1.42351e-05
0.000187168
-1.41817e-05
0.000190702
-1.41249e-05
0.000194221
-1.40644e-05
0.000197725
-1.40003e-05
0.000201211
-1.39322e-05
0.00020468
-1.38603e-05
0.00020813
-1.37843e-05
0.000211559
-1.37041e-05
0.000214968
-1.36196e-05
0.000218355
-1.35307e-05
0.000221718
-1.34374e-05
0.000225057
-1.33394e-05
0.00022837
-1.32368e-05
0.000231657
-1.31294e-05
0.000234916
-1.30171e-05
0.000238145
-1.28999e-05
0.000241344
-1.27777e-05
0.000244511
-1.26504e-05
0.000247645
-1.25179e-05
0.000250745
-1.23803e-05
0.000253809
-1.22373e-05
0.000256836
-1.20891e-05
0.000259824
-1.19355e-05
0.000262773
-1.17765e-05
0.000265681
-1.16122e-05
0.000268546
-1.14424e-05
0.000271368
-1.12672e-05
0.000274144
-1.10866e-05
0.000276874
-1.09006e-05
0.000279556
-1.07091e-05
0.000282189
-1.05124e-05
0.000284771
-1.03103e-05
0.000287301
-1.01029e-05
0.000289778
-9.89028e-06
0.000292201
-9.67252e-06
0.000294567
-9.44968e-06
0.000296877
-9.22184e-06
0.000299129
-8.9891e-06
0.000301321
-8.75155e-06
0.000303452
-8.50931e-06
0.000305522
-8.26249e-06
0.000307528
-8.01124e-06
0.000309471
-7.75567e-06
0.000311348
-7.49595e-06
0.00031316
-7.23222e-06
0.000314904
-6.96465e-06
0.00031658
-6.69341e-06
0.000318188
-6.41867e-06
0.000319726
-6.14061e-06
0.000321193
-5.85943e-06
0.000322589
-5.57533e-06
0.000323914
-5.2885e-06
0.000325165
-4.99915e-06
0.000326344
-4.70749e-06
0.000327449
-4.41374e-06
0.00032848
-4.11812e-06
0.000329437
-3.82084e-06
0.000330318
-3.52214e-06
0.000331125
-3.22224e-06
0.000331856
-2.92137e-06
0.000332511
-2.61976e-06
0.000333091
-2.31764e-06
0.000333595
-2.01524e-06
0.000334023
-1.71278e-06
0.000334375
-1.4105e-06
0.000334652
-1.10862e-06
0.000334853
-8.0737e-07
0.000334978
-5.06965e-07
0.000335029
-2.07627e-07
0.000335005
9.04309e-08
0.000334907
3.86997e-07
0.000334735
6.81864e-07
0.000334489
9.74833e-07
0.000334171
1.26571e-06
0.00033378
1.55429e-06
0.000333318
1.84041e-06
0.000332784
2.12387e-06
0.000332181
2.40452e-06
0.000331507
2.68217e-06
0.000330765
2.95668e-06
0.000329955
3.2279e-06
0.000329078
3.49567e-06
0.000328135
3.75987e-06
0.000327127
4.02036e-06
0.000326054
4.27703e-06
0.000324918
4.52976e-06
0.00032372
4.77844e-06
0.00032246
5.02298e-06
0.000321141
5.26329e-06
0.000319762
5.49928e-06
0.000318326
5.73088e-06
0.000316832
5.95803e-06
0.000315283
6.18066e-06
0.000313679
6.39872e-06
0.000312022
6.61217e-06
0.000310313
6.82098e-06
0.000308552
7.0251e-06
0.000306742
7.22453e-06
0.000304883
7.41923e-06
0.000302977
7.6092e-06
0.000301024
7.79445e-06
0.000299026
7.97496e-06
0.000296984
8.15074e-06
0.0002949
8.32182e-06
0.000292774
8.48821e-06
0.000290607
8.64993e-06
0.000288401
8.80702e-06
0.000286158
8.9595e-06
0.000283877
9.10741e-06
0.00028156
9.25081e-06
0.000279209
9.38973e-06
0.000276824
9.52422e-06
0.000274407
9.65434e-06
0.000271958
9.78014e-06
0.000269479
9.90169e-06
0.00026697
1.0019e-05
0.000264434
1.01323e-05
0.00026187
1.02414e-05
0.00025928
1.03466e-05
0.000256664
1.04479e-05
0.000254025
1.05453e-05
0.000251362
1.0639e-05
0.000248676
1.07289e-05
0.00024597
1.08153e-05
0.000243242
1.08981e-05
0.000240495
1.09774e-05
0.000237729
1.10534e-05
0.000234944
1.11261e-05
0.000232143
1.11955e-05
0.000229324
1.12619e-05
0.000226491
1.13252e-05
0.000223642
1.13855e-05
0.000220778
1.14429e-05
0.000217902
1.14976e-05
0.000215012
1.15495e-05
0.00021211
1.15987e-05
0.000209197
1.16454e-05
0.000206272
1.16896e-05
0.000203337
1.17315e-05
0.000200392
1.17709e-05
0.000197438
1.18082e-05
0.000194476
1.18433e-05
0.000191505
1.18762e-05
0.000188526
1.19072e-05
0.000185541
1.19362e-05
0.000182548
1.19633e-05
0.00017955
1.19886e-05
0.000176545
1.20122e-05
0.000173535
1.20342e-05
0.00017052
1.20545e-05
0.000167501
1.20733e-05
0.000164477
1.20906e-05
0.000161449
1.21066e-05
0.000158418
1.21211e-05
0.000155383
1.21345e-05
0.000152345
1.21466e-05
0.000149305
1.21575e-05
0.000146262
1.21674e-05
0.000143217
1.21762e-05
0.00014017
1.2184e-05
0.000137122
1.21908e-05
0.000134072
1.21968e-05
0.000131021
1.2202e-05
0.000127969
1.22064e-05
0.000124915
1.221e-05
0.000121862
1.22129e-05
0.000118807
1.22152e-05
0.000115753
1.2217e-05
0.000112698
1.22181e-05
0.000109642
1.22187e-05
0.000106587
1.22189e-05
0.000103532
1.22186e-05
0.000100478
1.22179e-05
9.7423e-05
1.22169e-05
9.43689e-05
1.22155e-05
9.13152e-05
1.22139e-05
8.8262e-05
1.2212e-05
8.52094e-05
1.22098e-05
8.21574e-05
1.22075e-05
7.9106e-05
1.2205e-05
7.60553e-05
1.22023e-05
7.30053e-05
1.21996e-05
6.99561e-05
1.21967e-05
6.69076e-05
1.21938e-05
6.38599e-05
1.21908e-05
6.08129e-05
1.21879e-05
5.77667e-05
1.21849e-05
5.47213e-05
1.2182e-05
5.16765e-05
1.21791e-05
4.86325e-05
1.21762e-05
4.55893e-05
1.21735e-05
4.25466e-05
1.21708e-05
3.95047e-05
1.21683e-05
3.64633e-05
1.21659e-05
3.34226e-05
1.21636e-05
3.03823e-05
1.21614e-05
2.73426e-05
1.21595e-05
2.43034e-05
1.21577e-05
2.12645e-05
1.2156e-05
1.8226e-05
1.21546e-05
1.51879e-05
1.21533e-05
1.215e-05
1.21523e-05
9.11229e-06
1.21514e-05
6.07477e-06
1.21508e-05
3.03736e-06
1.21504e-05
1.21502e-05
3.69085e-06
-1.84557e-05
7.38176e-06
-1.8456e-05
1.10728e-05
-1.84565e-05
1.4764e-05
-1.84572e-05
1.84554e-05
-1.84582e-05
2.2147e-05
-1.84594e-05
2.5839e-05
-1.84608e-05
2.95313e-05
-1.84623e-05
3.3224e-05
-1.84641e-05
3.69171e-05
-1.84659e-05
4.06106e-05
-1.84678e-05
4.43045e-05
-1.84697e-05
4.79989e-05
-1.84716e-05
5.16938e-05
-1.84735e-05
5.5389e-05
-1.84753e-05
5.90847e-05
-1.84769e-05
6.27807e-05
-1.84783e-05
6.6477e-05
-1.84794e-05
7.01735e-05
-1.84802e-05
7.38703e-05
-1.84806e-05
7.7567e-05
-1.84804e-05
8.12638e-05
-1.84797e-05
8.49603e-05
-1.84784e-05
8.86566e-05
-1.84763e-05
9.23524e-05
-1.84734e-05
9.60476e-05
-1.84696e-05
9.97419e-05
-1.84647e-05
0.000103435
-1.84588e-05
0.000107127
-1.84516e-05
0.000110817
-1.84431e-05
0.000114506
-1.84331e-05
0.000118192
-1.84216e-05
0.000121876
-1.84084e-05
0.000125557
-1.83935e-05
0.000129235
-1.83766e-05
0.000132909
-1.83576e-05
0.000136579
-1.83365e-05
0.000140245
-1.8313e-05
0.000143905
-1.82872e-05
0.00014756
-1.82587e-05
0.000151209
-1.82275e-05
0.000154851
-1.81935e-05
0.000158487
-1.81564e-05
0.000162114
-1.81162e-05
0.000165732
-1.80726e-05
0.000169342
-1.80257e-05
0.000172941
-1.79751e-05
0.00017653
-1.79207e-05
0.000180108
-1.78625e-05
0.000183673
-1.78002e-05
0.000187225
-1.77337e-05
0.000190763
-1.76629e-05
0.000194286
-1.75875e-05
0.000197793
-1.75075e-05
0.000201283
-1.74227e-05
0.000204756
-1.7333e-05
0.00020821
-1.72381e-05
0.000211644
-1.71381e-05
0.000215057
-1.70327e-05
0.000218448
-1.69218e-05
0.000221816
-1.68053e-05
0.00022516
-1.66831e-05
0.000228478
-1.65549e-05
0.000231769
-1.64208e-05
0.000235033
-1.62807e-05
0.000238267
-1.61343e-05
0.000241471
-1.59817e-05
0.000244644
-1.58227e-05
0.000247783
-1.56572e-05
0.000250888
-1.54852e-05
0.000253957
-1.53066e-05
0.000256989
-1.51214e-05
0.000259983
-1.49295e-05
0.000262938
-1.47308e-05
0.000265851
-1.45254e-05
0.000268721
-1.43132e-05
0.000271548
-1.40942e-05
0.00027433
-1.38684e-05
0.000277065
-1.36358e-05
0.000279753
-1.33965e-05
0.000282391
-1.31504e-05
0.000284978
-1.28977e-05
0.000287514
-1.26384e-05
0.000289996
-1.23725e-05
0.000292424
-1.21002e-05
0.000294795
-1.18215e-05
0.00029711
-1.15365e-05
0.000299366
-1.12454e-05
0.000301563
-1.09482e-05
0.000303699
-1.06452e-05
0.000305773
-1.03364e-05
0.000307784
-1.00221e-05
0.00030973
-9.70238e-06
0.000311612
-9.37744e-06
0.000313427
-9.04748e-06
0.000315175
-8.7127e-06
0.000316855
-8.37331e-06
0.000318466
-8.02954e-06
0.000320007
-7.68162e-06
0.000321477
-7.32978e-06
0.000322876
-6.97427e-06
0.000324203
-6.61534e-06
0.000325457
-6.25326e-06
0.000326638
-5.88828e-06
0.000327745
-5.52069e-06
0.000328778
-5.15074e-06
0.000329736
-4.77873e-06
0.000330618
-4.40493e-06
0.000331426
-4.02963e-06
0.000332157
-3.65311e-06
0.000332813
-3.27566e-06
0.000333393
-2.89758e-06
0.000333897
-2.51915e-06
0.000334325
-2.14065e-06
0.000334677
-1.76238e-06
0.000334953
-1.38461e-06
0.000335153
-1.00763e-06
0.000335278
-6.31714e-07
0.000335327
-2.57138e-07
0.000335302
1.15828e-07
0.000335202
4.86922e-07
0.000335028
8.55884e-07
0.00033478
1.22246e-06
0.00033446
1.58641e-06
0.000334067
1.94749e-06
0.000333602
2.30547e-06
0.000333065
2.66012e-06
0.000332459
3.01123e-06
0.000331782
3.3586e-06
0.000331037
3.70203e-06
0.000330223
4.04131e-06
0.000329343
4.37629e-06
0.000328396
4.70678e-06
0.000327384
5.03262e-06
0.000326307
5.35367e-06
0.000325167
5.66977e-06
0.000323965
5.98081e-06
0.000322701
6.28665e-06
0.000321377
6.58719e-06
0.000319994
6.88232e-06
0.000318553
7.17195e-06
0.000317055
7.45599e-06
0.000315501
7.73438e-06
0.000313893
8.00704e-06
0.000312231
8.27393e-06
0.000310517
8.53499e-06
0.000308752
8.79019e-06
0.000306937
9.0395e-06
0.000305073
9.2829e-06
0.000303162
9.52037e-06
0.000301205
9.75192e-06
0.000299202
9.97754e-06
0.000297156
1.01973e-05
0.000295066
1.04111e-05
0.000292936
1.0619e-05
0.000290764
1.08211e-05
0.000288554
1.10174e-05
0.000286306
1.12079e-05
0.00028402
1.13927e-05
0.000281699
1.15719e-05
0.000279343
1.17455e-05
0.000276954
1.19135e-05
0.000274533
1.2076e-05
0.00027208
1.22332e-05
0.000269596
1.2385e-05
0.000267084
1.25315e-05
0.000264543
1.2673e-05
0.000261975
1.28093e-05
0.000259381
1.29406e-05
0.000256762
1.30671e-05
0.000254119
1.31887e-05
0.000251452
1.33056e-05
0.000248763
1.34179e-05
0.000246053
1.35257e-05
0.000243322
1.36291e-05
0.000240571
1.37281e-05
0.000237801
1.38229e-05