/*--------------------------------*- C++ -*----------------------------------*\
| =========                 |                                                 |
| \\      /  F ield         | OpenFOAM: The Open Source CFD Toolbox           |
|  \\    /   O peration     | Version:  v2012                                 |
|   \\  /    A nd           | Website:  www.openfoam.com                      |
|    \\/     M anipulation  |                                                 |
\*---------------------------------------------------------------------------*/
FoamFile
{
    version     2.0;
    format      ascii;
    class       volScalarField;
    location    "15.5";
    object      Psi_z;
}
// * * * * * * * * * * * * * * * * * * * * * * * * * * * * * * * * * * * * * //

dimensions      [0 2 -1 0 0 0 0];


internalField   nonuniform List<scalar> 
65536
(
8.44431e-06
2.53335e-05
4.22242e-05
5.91173e-05
7.60138e-05
9.29146e-05
0.000109821
0.000126733
0.000143652
0.000160579
0.000177515
0.000194461
0.000211418
0.000228385
0.000245365
0.000262357
0.000279363
0.000296383
0.000313418
0.000330469
0.000347535
0.000364618
0.000381717
0.000398833
0.000415967
0.000433119
0.000450289
0.000467476
0.000484682
0.000501906
0.000519148
0.000536407
0.000553684
0.000570978
0.000588289
0.000605616
0.000622958
0.000640315
0.000657686
0.00067507
0.000692466
0.000709872
0.000727287
0.000744711
0.000762141
0.000779575
0.000797012
0.00081445
0.000831886
0.000849319
0.000866745
0.000884163
0.000901569
0.000918962
0.000936336
0.00095369
0.00097102
0.000988322
0.00100559
0.00102283
0.00104002
0.00105718
0.00107428
0.00109133
0.00110833
0.00112526
0.00114212
0.00115891
0.00117562
0.00119225
0.00120878
0.00122522
0.00124156
0.00125779
0.0012739
0.00128989
0.00130575
0.00132147
0.00133705
0.00135248
0.00136775
0.00138285
0.00139778
0.00141252
0.00142708
0.00144144
0.00145559
0.00146953
0.00148325
0.00149674
0.00150999
0.00152299
0.00153574
0.00154822
0.00156044
0.00157237
0.00158401
0.00159536
0.00160641
0.00161714
0.00162756
0.00163765
0.0016474
0.00165681
0.00166588
0.00167459
0.00168293
0.00169091
0.00169852
0.00170574
0.00171258
0.00171903
0.00172508
0.00173073
0.00173597
0.0017408
0.00174523
0.00174923
0.00175282
0.00175598
0.00175872
0.00176103
0.00176292
0.00176438
0.00176541
0.001766
0.00176617
0.00176591
0.00176522
0.0017641
0.00176256
0.00176059
0.00175821
0.0017554
0.00175218
0.00174854
0.0017445
0.00174005
0.0017352
0.00172996
0.00172433
0.00171831
0.00171191
0.00170513
0.00169799
0.00169048
0.00168262
0.00167441
0.00166586
0.00165697
0.00164775
0.00163821
0.00162836
0.0016182
0.00160774
0.00159699
0.00158596
0.00157465
0.00156307
0.00155123
0.00153913
0.00152679
0.00151422
0.00150141
0.00148838
0.00147514
0.00146168
0.00144803
0.00143419
0.00142016
0.00140595
0.00139158
0.00137704
0.00136234
0.00134749
0.0013325
0.00131738
0.00130212
0.00128674
0.00127124
0.00125563
0.00123992
0.0012241
0.00120819
0.00119219
0.00117611
0.00115995
0.00114371
0.00112741
0.00111104
0.00109461
0.00107813
0.00106159
0.00104501
0.00102838
0.00101172
0.000995014
0.000978279
0.000961516
0.000944725
0.000927912
0.000911078
0.000894227
0.00087736
0.000860481
0.000843592
0.000826694
0.000809791
0.000792883
0.000775973
0.000759063
0.000742153
0.000725247
0.000708344
0.000691446
0.000674555
0.000657672
0.000640797
0.000623931
0.000607076
0.000590232
0.000573399
0.000556578
0.00053977
0.000522975
0.000506193
0.000489425
0.000472671
0.00045593
0.000439204
0.000422491
0.000405792
0.000389107
0.000372436
0.000355778
0.000339133
0.000322501
0.000305881
0.000289274
0.000272677
0.000256092
0.000239518
0.000222954
0.000206399
0.000189853
0.000173316
0.000156786
0.000140263
0.000123746
0.000107235
9.07294e-05
7.42274e-05
5.77289e-05
4.1233e-05
2.4739e-05
8.24623e-06
2.53327e-05
7.59996e-05
0.000126671
0.000177349
0.000228038
0.000278739
0.000329457
0.000380193
0.00043095
0.000481731
0.000532538
0.000583375
0.000634243
0.000685145
0.000736084
0.000787061
0.000838078
0.000889138
0.000940243
0.000991393
0.00104259
0.00109384
0.00114514
0.00119649
0.00124789
0.00129934
0.00135085
0.00140241
0.00145403
0.0015057
0.00155743
0.00160921
0.00166104
0.00171292
0.00176485
0.00181684
0.00186886
0.00192094
0.00197305
0.0020252
0.00207739
0.00212961
0.00218186
0.00223413
0.00228642
0.00233873
0.00239104
0.00244336
0.00249567
0.00254797
0.00260025
0.00265251
0.00270473
0.00275691
0.00280904
0.0028611
0.00291309
0.002965
0.00301682
0.00306853
0.00312012
0.00317159
0.0032229
0.00327406
0.00332505
0.00337585
0.00342644
0.00347682
0.00352696
0.00357684
0.00362646
0.00367578
0.0037248
0.00377349
0.00382183
0.0038698
0.00391738
0.00396456
0.0040113
0.00405759
0.00410341
0.00414872
0.00419352
0.00423777
0.00428145
0.00432453
0.004367
0.00440883
0.00444999
0.00449046
0.00453022
0.00456923
0.00460748
0.00464494
0.00468159
0.0047174
0.00475234
0.0047864
0.00481954
0.00485175
0.004883
0.00491328
0.00494255
0.00497079
0.00499799
0.00502412
0.00504917
0.00507311
0.00509593
0.00511761
0.00513813
0.00515747
0.00517563
0.00519258
0.00520832
0.00522283
0.0052361
0.00524812
0.00525888
0.00526837
0.00527659
0.00528353
0.00528919
0.00529356
0.00529665
0.00529844
0.00529894
0.00529816
0.00529609
0.00529273
0.0052881
0.0052822
0.00527504
0.00526661
0.00525694
0.00524603
0.0052339
0.00522055
0.005206
0.00519027
0.00517336
0.00515529
0.00513609
0.00511576
0.00509432
0.0050718
0.00504821
0.00502358
0.00499791
0.00497124
0.00494358
0.00491495
0.00488539
0.0048549
0.00482352
0.00479126
0.00475815
0.00472421
0.00468946
0.00465393
0.00461764
0.00458061
0.00454287
0.00450445
0.00446535
0.00442561
0.00438525
0.00434428
0.00430275
0.00426065
0.00421803
0.00417489
0.00413126
0.00408716
0.00404262
0.00399764
0.00395225
0.00390648
0.00386033
0.00381383
0.00376699
0.00371984
0.00367239
0.00362465
0.00357665
0.0035284
0.00347991
0.0034312
0.00338228
0.00333317
0.00328388
0.00323442
0.00318481
0.00313506
0.00308518
0.00303518
0.00298507
0.00293486
0.00288457
0.00283419
0.00278375
0.00273325
0.00268269
0.00263209
0.00258145
0.00253078
0.00248008
0.00242937
0.00237865
0.00232792
0.00227718
0.00222645
0.00217573
0.00212502
0.00207433
0.00202365
0.001973
0.00192238
0.00187178
0.00182121
0.00177068
0.00172018
0.00166972
0.00161929
0.00156891
0.00151856
0.00146826
0.001418
0.00136777
0.00131759
0.00126746
0.00121736
0.00116731
0.00111729
0.00106732
0.00101738
0.000967488
0.00091763
0.000867807
0.000818019
0.000768265
0.000718543
0.000668851
0.000619187
0.000569551
0.000519939
0.00047035
0.000420782
0.000371233
0.000321701
0.000272183
0.000222678
0.000173184
0.000123697
7.4216e-05
2.47383e-05
4.22196e-05
0.000126661
0.00021111
0.000295571
0.000380049
0.000464548
0.000549074
0.000633631
0.000718223
0.000802855
0.000887532
0.000972257
0.00105703
0.00114187
0.00122676
0.00131172
0.00139675
0.00148185
0.00156702
0.00165227
0.0017376
0.00182301
0.0019085
0.00199409
0.00207975
0.00216551
0.00225136
0.0023373
0.00242333
0.00250945
0.00259566
0.00268196
0.00276834
0.00285482
0.00294137
0.00302801
0.00311473
0.00320152
0.00328838
0.0033753
0.00346228
0.00354932
0.00363641
0.00372353
0.00381069
0.00389787
0.00398507
0.00407227
0.00415946
0.00424663
0.00433378
0.00442088
0.00450793
0.00459491
0.0046818
0.00476858
0.00485525
0.00494178
0.00502815
0.00511435
0.00520035
0.00528614
0.00537168
0.00545696
0.00554196
0.00562664
0.00571098
0.00579496
0.00587854
0.00596171
0.00604442
0.00612664
0.00620836
0.00628953
0.00637012
0.0064501
0.00652943
0.00660808
0.00668601
0.00676319
0.00683957
0.00691512
0.0069898
0.00706358
0.0071364
0.00720824
0.00727905
0.00734879
0.00741742
0.0074849
0.00755119
0.00761624
0.00768002
0.00774248
0.00780358
0.00786329
0.00792155
0.00797834
0.00803361
0.00808732
0.00813943
0.00818991
0.00823872
0.00828581
0.00833117
0.00837475
0.00841651
0.00845644
0.00849449
0.00853064
0.00856485
0.00859711
0.00862739
0.00865566
0.0086819
0.00870609
0.00872822
0.00874826
0.0087662
0.00878203
0.00879574
0.00880731
0.00881675
0.00882404
0.00882918
0.00883216
0.008833
0.00883169
0.00882824
0.00882264
0.00881492
0.00880507
0.00879312
0.00877907
0.00876295
0.00874475
0.00872452
0.00870226
0.00867799
0.00865175
0.00862355
0.00859342
0.00856139
0.00852749
0.00849175
0.00845419
0.00841485
0.00837377
0.00833097
0.00828649
0.00824037
0.00819264
0.00814334
0.0080925
0.00804017
0.00798638
0.00793117
0.00787457
0.00781663
0.00775739
0.00769688
0.00763515
0.00757222
0.00750815
0.00744296
0.0073767
0.00730941
0.00724111
0.00717186
0.00710168
0.00703061
0.00695869
0.00688596
0.00681244
0.00673817
0.00666319
0.00658752
0.00651121
0.00643427
0.00635675
0.00627868
0.00620007
0.00612096
0.00604139
0.00596136
0.00588092
0.00580009
0.00571889
0.00563734
0.00555548
0.00547331
0.00539087
0.00530818
0.00522524
0.0051421
0.00505875
0.00497522
0.00489153
0.0048077
0.00472373
0.00463965
0.00455547
0.0044712
0.00438686
0.00430245
0.00421799
0.00413349
0.00404896
0.00396442
0.00387986
0.0037953
0.00371075
0.0036262
0.00354169
0.00345719
0.00337273
0.00328831
0.00320393
0.0031196
0.00303532
0.00295109
0.00286693
0.00278282
0.00269878
0.0026148
0.00253089
0.00244705
0.00236328
0.00227958
0.00219594
0.00211238
0.00202889
0.00194546
0.00186211
0.00177882
0.0016956
0.00161244
0.00152934
0.00144631
0.00136333
0.00128041
0.00119754
0.00111472
0.00103195
0.000949223
0.000866539
0.000783893
0.000701282
0.000618703
0.000536152
0.000453625
0.000371119
0.000288631
0.000206155
0.000123689
4.12292e-05
5.9104e-05
0.000177316
0.000295537
0.000413776
0.000532038
0.000650331
0.00076866
0.000887033
0.00100546
0.00112394
0.00124248
0.00136109
0.00147977
0.00159853
0.00171738
0.00183632
0.00195535
0.00207448
0.00219372
0.00231307
0.00243252
0.00255209
0.00267179
0.0027916
0.00291153
0.00303159
0.00315178
0.00327209
0.00339253
0.0035131
0.00363379
0.00375461
0.00387556
0.00399662
0.00411781
0.0042391
0.00436051
0.00448202
0.00460363
0.00472534
0.00484712
0.00496898
0.00509091
0.0052129
0.00533493
0.005457
0.00557909
0.00570118
0.00582327
0.00594533
0.00606735
0.00618931
0.0063112
0.00643299
0.00655466
0.00667618
0.00679754
0.00691871
0.00703966
0.00716037
0.0072808
0.00740093
0.00752073
0.00764015
0.00775918
0.00787777
0.00799589
0.00811349
0.00823055
0.00834702
0.00846286
0.00857802
0.00869247
0.00880615
0.00891903
0.00903104
0.00914216
0.00925232
0.00936147
0.00946957
0.00957656
0.00968238
0.009787
0.00989034
0.00999235
0.010093
0.0101922
0.0102899
0.010386
0.0104805
0.0105734
0.0106645
0.0107539
0.0108414
0.010927
0.0110106
0.0110922
0.0111718
0.0112492
0.0113245
0.0113975
0.0114682
0.0115366
0.0116026
0.0116661
0.0117272
0.0117857
0.0118416
0.0118949
0.0119456
0.0119935
0.0120387
0.0120812
0.0121208
0.0121575
0.0121914
0.0122224
0.0122505
0.0122756
0.0122978
0.012317
0.0123332
0.0123465
0.0123567
0.0123639
0.012368
0.0123692
0.0123674
0.0123625
0.0123547
0.0123439
0.0123301
0.0123133
0.0122936
0.012271
0.0122455
0.0122172
0.012186
0.012152
0.0121152
0.0120757
0.0120335
0.0119886
0.0119411
0.011891
0.0118384
0.0117832
0.0117257
0.0116657
0.0116034
0.0115388
0.0114719
0.0114028
0.0113316
0.0112583
0.0111829
0.0111056
0.0110263
0.0109451
0.0108621
0.0107774
0.0106909
0.0106027
0.010513
0.0104217
0.0103288
0.0102346
0.0101389
0.0100419
0.0099436
0.00984405
0.00974331
0.00964143
0.00953846
0.00943444
0.00932942
0.00922344
0.00911656
0.00900881
0.00890024
0.00879089
0.0086808
0.00857001
0.00845856
0.0083465
0.00823384
0.00812064
0.00800693
0.00789273
0.00777809
0.00766303
0.00754758
0.00743178
0.00731565
0.00719921
0.0070825
0.00696554
0.00684835
0.00673096
0.00661339
0.00649566
0.00637778
0.00625979
0.00614169
0.0060235
0.00590524
0.00578693
0.00566858
0.0055502
0.00543181
0.00531341
0.00519503
0.00507666
0.00495832
0.00484002
0.00472177
0.00460357
0.00448544
0.00436737
0.00424937
0.00413145
0.00401361
0.00389586
0.0037782
0.00366063
0.00354316
0.00342578
0.00330849
0.00319131
0.00307422
0.00295724
0.00284035
0.00272356
0.00260686
0.00249026
0.00237375
0.00225733
0.00214099
0.00202475
0.00190858
0.00179249
0.00167648
0.00156054
0.00144467
0.00132885
0.0012131
0.0010974
0.000981751
0.000866145
0.000750578
0.000635046
0.000519543
0.000404064
0.000288604
0.000173157
5.77182e-05
7.5985e-05
0.00022796
0.000379947
0.000531957
0.000683997
0.000836076
0.000988203
0.00114039
0.00129263
0.00144495
0.00159735
0.00174984
0.00190242
0.00205511
0.0022079
0.00236082
0.00251385
0.00266701
0.00282031
0.00297375
0.00312733
0.00328106
0.00343494
0.00358898
0.00374318
0.00389754
0.00405207
0.00420675
0.00436161
0.00451662
0.0046718
0.00482715
0.00498265
0.00513831
0.00529413
0.00545009
0.00560619
0.00576243
0.0059188
0.00607529
0.00623188
0.00638858
0.00654536
0.00670222
0.00685914
0.0070161
0.0071731
0.0073301
0.0074871
0.00764406
0.00780098
0.00795782
0.00811457
0.00827119
0.00842766
0.00858395
0.00874002
0.00889586
0.00905141
0.00920665
0.00936155
0.00951605
0.00967013
0.00982374
0.00997683
0.0101294
0.0102813
0.0104326
0.0105831
0.010733
0.010882
0.0110301
0.0111773
0.0113236
0.0114688
0.0116129
0.0117558
0.0118976
0.012038
0.0121771
0.0123147
0.0124509
0.0125855
0.0127184
0.0128497
0.0129792
0.0131068
0.0132325
0.0133562
0.0134778
0.0135973
0.0137146
0.0138296
0.0139422
0.0140523
0.01416
0.014265
0.0143674
0.014467
0.0145639
0.0146578
0.0147489
0.0148369
0.0149218
0.0150036
0.0150821
0.0151575
0.0152295
0.0152981
0.0153633
0.015425
0.0154831
0.0155377
0.0155887
0.015636
0.0156796
0.0157195
0.0157557
0.015788
0.0158166
0.0158413
0.0158622
0.0158792
0.0158923
0.0159016
0.0159069
0.0159084
0.0159061
0.0158998
0.0158897
0.0158758
0.015858
0.0158364
0.0158111
0.015782
0.0157491
0.0157126
0.0156725
0.0156287
0.0155814
0.0155305
0.0154762
0.0154184
0.0153572
0.0152928
0.015225
0.0151541
0.01508
0.0150028
0.0149226
0.0148394
0.0147534
0.0146645
0.0145728
0.0144784
0.0143815
0.0142819
0.0141799
0.0140754
0.0139686
0.0138595
0.0137483
0.0136348
0.0135193
0.0134018
0.0132824
0.0131611
0.013038
0.0129132
0.0127868
0.0126587
0.0125291
0.012398
0.0122655
0.0121317
0.0119966
0.0118603
0.0117228
0.0115842
0.0114445
0.0113038
0.0111622
0.0110197
0.0108764
0.0107322
0.0105873
0.0104417
0.0102954
0.0101486
0.0100011
0.00985313
0.00970465
0.00955571
0.00940635
0.00925661
0.00910651
0.00895609
0.00880538
0.00865441
0.00850321
0.0083518
0.00820022
0.00804848
0.0078966
0.00774462
0.00759255
0.00744041
0.00728822
0.007136
0.00698376
0.00683152
0.00667929
0.00652709
0.00637492
0.00622281
0.00607076
0.00591878
0.00576688
0.00561506
0.00546334
0.00531173
0.00516021
0.00500881
0.00485753
0.00470637
0.00455532
0.0044044
0.00425361
0.00410295
0.00395241
0.003802
0.00365171
0.00350155
0.00335152
0.0032016
0.00305181
0.00290213
0.00275256
0.00260311
0.00245376
0.00230451
0.00215536
0.00200629
0.00185732
0.00170843
0.00155961
0.00141086
0.00126218
0.00111355
0.000964971
0.000816438
0.000667943
0.000519479
0.000371039
0.000222617
7.42045e-05
9.28616e-05
0.00027859
0.000464335
0.000650107
0.000835916
0.00102177
0.00120769
0.00139367
0.00157974
0.00176589
0.00195214
0.0021385
0.00232497
0.00251158
0.00269831
0.00288519
0.00307222
0.00325941
0.00344676
0.00363429
0.00382199
0.00400987
0.00419795
0.00438621
0.00457467
0.00476333
0.00495219
0.00514125
0.00533052
0.00551998
0.00570965
0.00589952
0.00608959
0.00627985
0.0064703
0.00666093
0.00685173
0.00704271
0.00723384
0.00742512
0.00761654
0.00780808
0.00799973
0.00819148
0.0083833
0.00857518
0.0087671
0.00895903
0.00915095
0.00934285
0.00953468
0.00972643
0.00991806
0.0101095
0.0103008
0.0104919
0.0106827
0.0108733
0.0110635
0.0112533
0.0114427
0.0116316
0.01182
0.0120078
0.012195
0.0123816
0.0125674
0.0127524
0.0129365
0.0131197
0.0133019
0.0134831
0.0136632
0.013842
0.0140196
0.0141959
0.0143707
0.0145441
0.0147159
0.014886
0.0150543
0.0152209
0.0153856
0.0155482
0.0157088
0.0158672
0.0160233
0.0161771
0.0163285
0.0164773
0.0166235
0.016767
0.0169076
0.0170454
0.0171802
0.0173119
0.0174404
0.0175657
0.0176877
0.0178062
0.0179211
0.0180325
0.0181402
0.0182441
0.0183442
0.0184404
0.0185326
0.0186207
0.0187046
0.0187844
0.0188599
0.0189311
0.0189979
0.0190603
0.0191182
0.0191716
0.0192204
0.0192647
0.0193042
0.0193392
0.0193694
0.0193949
0.0194157
0.0194318
0.0194431
0.0194497
0.0194515
0.0194486
0.0194409
0.0194286
0.0194115
0.0193897
0.0193633
0.0193323
0.0192967
0.0192565
0.0192118
0.0191626
0.019109
0.0190511
0.0189888
0.0189223
0.0188516
0.0187767
0.0186978
0.0186149
0.0185281
0.0184374
0.0183429
0.0182448
0.018143
0.0180376
0.0179289
0.0178167
0.0177012
0.0175825
0.0174607
0.0173359
0.0172081
0.0170774
0.016944
0.0168078
0.016669
0.0165277
0.016384
0.0162379
0.0160895
0.0159389
0.0157862
0.0156315
0.0154749
0.0153163
0.015156
0.0149939
0.0148303
0.014665
0.0144983
0.0143301
0.0141606
0.0139898
0.0138177
0.0136446
0.0134703
0.013295
0.0131187
0.0129415
0.0127634
0.0125846
0.012405
0.0122247
0.0120437
0.0118622
0.0116801
0.0114974
0.0113144
0.0111308
0.0109469
0.0107627
0.0105781
0.0103932
0.0102081
0.0100228
0.0098373
0.00965163
0.00946584
0.00927993
0.00909394
0.0089079
0.00872181
0.00853571
0.00834961
0.00816352
0.00797747
0.00779147
0.00760554
0.00741968
0.0072339
0.00704823
0.00686267
0.00667722
0.0064919
0.0063067
0.00612165
0.00593674
0.00575198
0.00556737
0.00538291
0.0051986
0.00501445
0.00483046
0.00464663
0.00446295
0.00427942
0.00409605
0.00391283
0.00372975
0.00354682
0.00336402
0.00318136
0.00299883
0.00281643
0.00263414
0.00245196
0.00226989
0.00208792
0.00190605
0.00172426
0.00154254
0.0013609
0.00117932
0.000997792
0.000816312
0.00063487
0.000453458
0.000272066
9.06873e-05
0.000109733
0.000329205
0.000548696
0.00076822
0.000987787
0.00120741
0.00142711
0.00164688
0.00186675
0.00208673
0.00230682
0.00252704
0.0027474
0.00296791
0.00318858
0.00340941
0.00363043
0.00385164
0.00407304
0.00429465
0.00451646
0.0047385
0.00496075
0.00518324
0.00540596
0.00562891
0.00585211
0.00607554
0.00629922
0.00652314
0.0067473
0.00697169
0.00719633
0.00742119
0.00764628
0.00787159
0.00809711
0.00832283
0.00854874
0.00877482
0.00900108
0.00922748
0.00945401
0.00968066
0.0099074
0.0101342
0.0103611
0.010588
0.0108148
0.0110417
0.0112685
0.0114951
0.0117217
0.0119481
0.0121742
0.0124001
0.0126258
0.012851
0.0130759
0.0133003
0.0135243
0.0137477
0.0139705
0.0141926
0.0144139
0.0146345
0.0148542
0.015073
0.0152908
0.0155074
0.015723
0.0159373
0.0161502
0.0163618
0.0165718
0.0167803
0.0169871
0.0171922
0.0173954
0.0175966
0.0177958
0.0179929
0.0181876
0.0183801
0.01857
0.0187575
0.0189422
0.0191242
0.0193032
0.0194793
0.0196523
0.0198221
0.0199886
0.0201516
0.0203111
0.020467
0.0206191
0.0207674
0.0209117
0.0210519
0.021188
0.0213199
0.0214473
0.0215703
0.0216888
0.0218026
0.0219117
0.022016
0.0221154
0.0222098
0.0222992
0.0223835
0.0224625
0.0225364
0.0226049
0.0226681
0.0227259
0.0227783
0.0228251
0.0228664
0.0229022
0.0229324
0.0229571
0.0229761
0.0229895
0.0229972
0.0229994
0.0229959
0.0229868
0.0229721
0.0229519
0.0229261
0.0228948
0.0228581
0.0228159
0.0227683
0.0227154
0.0226571
0.0225937
0.0225251
0.0224514
0.0223726
0.0222889
0.0222003
0.0221068
0.0220087
0.0219059
0.0217986
0.0216867
0.0215705
0.0214501
0.0213254
0.0211966
0.0210639
0.0209272
0.0207868
0.0206426
0.0204949
0.0203436
0.020189
0.0200311
0.0198699
0.0197057
0.0195385
0.0193685
0.0191956
0.01902
0.0188419
0.0186613
0.0184782
0.0182929
0.0181053
0.0179157
0.017724
0.0175304
0.0173349
0.0171377
0.0169388
0.0167383
0.0165363
0.0163328
0.016128
0.0159219
0.0157145
0.0155061
0.0152965
0.015086
0.0148745
0.0146621
0.0144489
0.0142349
0.0140203
0.0138049
0.013589
0.0133725
0.0131556
0.0129381
0.0127203
0.0125021
0.0122835
0.0120647
0.0118456
0.0116263
0.0114068
0.0111872
0.0109674
0.0107475
0.0105276
0.0103076
0.0100877
0.00986768
0.00964773
0.00942781
0.00920796
0.00898819
0.00876851
0.00854893
0.00832948
0.00811015
0.00789097
0.00767193
0.00745306
0.00723435
0.00701581
0.00679744
0.00657926
0.00636126
0.00614344
0.00592581
0.00570836
0.00549111
0.00527403
0.00505714
0.00484044
0.00462391
0.00440755
0.00419137
0.00397535
0.00375949
0.00354378
0.00332823
0.00311281
0.00289753
0.00268237
0.00246733
0.0022524
0.00203758
0.00182284
0.00160819
0.00139361
0.0011791
0.000964643
0.000750231
0.000535854
0.000321503
0.000107166
0.000126598
0.0003798
0.000633025
0.000886287
0.0011396
0.00139298
0.00164644
0.0019
0.00215366
0.00240745
0.00266137
0.00291544
0.00316967
0.00342408
0.00367867
0.00393346
0.00418845
0.00444367
0.00469911
0.00495479
0.00521072
0.0054669
0.00572333
0.00598004
0.00623701
0.00649426
0.00675179
0.00700959
0.00726768
0.00752605
0.0077847
0.00804363
0.00830284
0.00856231
0.00882205
0.00908204
0.00934228
0.00960275
0.00986345
0.0101244
0.0103855
0.0106467
0.0109082
0.0111697
0.0114314
0.0116932
0.011955
0.0122169
0.0124788
0.0127406
0.0130023
0.013264
0.0135255
0.0137868
0.0140479
0.0143087
0.0145691
0.0148292
0.0150888
0.0153479
0.0156064
0.0158644
0.0161216
0.016378
0.0166336
0.0168883
0.017142
0.0173946
0.0176461
0.0178963
0.0181452
0.0183927
0.0186387
0.018883
0.0191256
0.0193664
0.0196053
0.0198421
0.0200769
0.0203093
0.0205394
0.020767
0.0209921
0.0212144
0.0214339
0.0216504
0.0218639
0.0220741
0.022281
0.0224845
0.0226844
0.0228806
0.023073
0.0232614
0.0234457
0.0236259
0.0238017
0.023973
0.0241398
0.0243019
0.0244592
0.0246116
0.0247589
0.0249011
0.025038
0.0251696
0.0252957
0.0254162
0.0255311
0.0256403
0.0257436
0.025841
0.0259324
0.0260178
0.026097
0.02617
0.0262368
0.0262973
0.0263515
0.0263993
0.0264406
0.0264755
0.026504
0.0265259
0.0265414
0.0265504
0.0265528
0.0265488
0.0265383
0.0265213
0.0264979
0.026468
0.0264318
0.0263893
0.0263405
0.0262855
0.0262243
0.0261569
0.0260835
0.0260042
0.0259189
0.0258279
0.0257311
0.0256286
0.0255206
0.0254071
0.0252883
0.0251642
0.0250349
0.0249006
0.0247613
0.0246172
0.0244684
0.024315
0.024157
0.0239947
0.0238281
0.0236573
0.0234825
0.0233038
0.0231214
0.0229352
0.0227454
0.0225522
0.0223557
0.022156
0.0219532
0.0217474
0.0215387
0.0213272
0.0211131
0.0208965
0.0206774
0.020456
0.0202324
0.0200066
0.0197788
0.0195491
0.0193175
0.0190842
0.0188492
0.0186127
0.0183747
0.0181353
0.0178945
0.0176526
0.0174095
0.0171653
0.01692
0.0166739
0.0164268
0.016179
0.0159304
0.0156811
0.0154312
0.0151807
0.0149297
0.0146782
0.0144263
0.0141741
0.0139215
0.0136686
0.0134155
0.0131621
0.0129086
0.012655
0.0124012
0.0121474
0.0118935
0.0116396
0.0113857
0.0111319
0.0108781
0.0106244
0.0103707
0.0101172
0.00986384
0.00961059
0.0093575
0.00910457
0.00885182
0.00859925
0.00834687
0.0080947
0.00784273
0.00759097
0.00733942
0.00708809
0.00683698
0.00658608
0.0063354
0.00608493
0.00583468
0.00558465
0.00533481
0.00508518
0.00483575
0.00458651
0.00433746
0.00408859
0.00383988
0.00359135
0.00334296
0.00309473
0.00284663
0.00259866
0.0023508
0.00210305
0.00185541
0.00160784
0.00136035
0.00111293
0.000865557
0.000618226
0.000370924
0.000123639
0.000143455
0.000430373
0.000717317
0.0010043
0.00129135
0.00157847
0.00186568
0.002153
0.00244045
0.00272803
0.00301577
0.00330368
0.00359177
0.00388006
0.00416856
0.00445729
0.00474626
0.00503547
0.00532495
0.00561469
0.00590472
0.00619503
0.00648565
0.00677656
0.00706779
0.00735932
0.00765118
0.00794336
0.00823586
0.00852868
0.00882183
0.00911529
0.00940907
0.00970316
0.00999755
0.0102922
0.0105872
0.0108825
0.011178
0.0114737
0.0117697
0.0120658
0.0123622
0.0126587
0.0129554
0.0132521
0.013549
0.0138458
0.0141427
0.0144396
0.0147363
0.015033
0.0153295
0.0156258
0.0159218
0.0162175
0.0165129
0.0168078
0.0171022
0.017396
0.0176892
0.0179817
0.0182734
0.0185643
0.0188542
0.0191431
0.0194309
0.0197174
0.0200027
0.0202866
0.0205689
0.0208497
0.0211287
0.0214059
0.0216812
0.0219544
0.0222255
0.0224942
0.0227606
0.0230244
0.0232855
0.0235438
0.0237992
0.0240515
0.0243007
0.0245464
0.0247887
0.0250274
0.0252623
0.0254932
0.0257202
0.0259429
0.0261613
0.0263752
0.0265845
0.026789
0.0269886
0.0271832
0.0273726
0.0275567
0.0277353
0.0279083
0.0280756
0.0282371
0.0283926
0.028542
0.0286852
0.0288221
0.0289526
0.0290765
0.0291939
0.0293045
0.0294083
0.0295053
0.0295953
0.0296782
0.0297541
0.0298228
0.0298843
0.0299385
0.0299855
0.0300251
0.0300574
0.0300823
0.0300999
0.03011
0.0301128
0.0301082
0.0300962
0.0300769
0.0300502
0.0300163
0.0299752
0.0299268
0.0298714
0.0298088
0.0297393
0.0296627
0.0295794
0.0294892
0.0293924
0.0292889
0.0291789
0.0290625
0.0289398
0.028811
0.028676
0.028535
0.0283882
0.0282356
0.0280775
0.0279138
0.0277448
0.0275705
0.0273912
0.0272069
0.0270177
0.0268238
0.0266254
0.0264225
0.0262153
0.026004
0.0257886
0.0255693
0.0253462
0.0251195
0.0248893
0.0246557
0.0244189
0.0241789
0.0239359
0.0236901
0.0234415
0.0231902
0.0229365
0.0226803
0.0224218
0.0221612
0.0218985
0.0216338
0.0213672
0.0210989
0.0208289
0.0205573
0.0202842
0.0200098
0.019734
0.019457
0.0191789
0.0188997
0.0186196
0.0183385
0.0180566
0.0177739
0.0174905
0.0172064
0.0169218
0.0166366
0.016351
0.016065
0.0157786
0.0154918
0.0152048
0.0149176
0.0146302
0.0143426
0.0140549
0.0137672
0.0134794
0.0131916
0.0129038
0.012616
0.0123283
0.0120407
0.0117532
0.0114658
0.0111786
0.0108916
0.0106047
0.010318
0.0100315
0.00974525
0.0094592
0.00917339
0.0088878
0.00860247
0.00831737
0.00803252
0.00774793
0.00746358
0.00717948
0.00689562
0.00661202
0.00632865
0.00604552
0.00576262
0.00547995
0.00519749
0.00491526
0.00463322
0.00435138
0.00406973
0.00378825
0.00350695
0.0032258
0.00294479
0.00266392
0.00238317
0.00210254
0.001822
0.00154154
0.00126116
0.000980842
0.000700569
0.000420328
0.000140107
0.000160304
0.000480921
0.000801567
0.00112226
0.00144302
0.00176386
0.00208481
0.00240588
0.00272709
0.00304846
0.00337
0.00369173
0.00401367
0.00433583
0.00465823
0.00498089
0.00530381
0.00562701
0.00595051
0.00627431
0.00659843
0.00692287
0.00724765
0.00757277
0.00789824
0.00822407
0.00855025
0.0088768
0.00920371
0.00953099
0.00985863
0.0101866
0.010515
0.0108437
0.0111728
0.0115022
0.0118319
0.0121619
0.0124922
0.0128228
0.0131537
0.0134848
0.0138161
0.0141475
0.0144792
0.014811
0.0151428
0.0154748
0.0158067
0.0161386
0.0164704
0.0168022
0.0171337
0.017465
0.0177961
0.0181268
0.018457
0.0187868
0.0191161
0.0194448
0.0197727
0.0200999
0.0204262
0.0207515
0.0210758
0.021399
0.021721
0.0220415
0.0223607
0.0226783
0.0229942
0.0233084
0.0236206
0.0239308
0.0242388
0.0245446
0.024848
0.0251487
0.0254468
0.0257421
0.0260344
0.0263236
0.0266094
0.0268919
0.0271708
0.0274459
0.0277172
0.0279844
0.0282474
0.028506
0.0287601
0.0290096
0.0292541
0.0294937
0.0297281
0.0299571
0.0301807
0.0303986
0.0306107
0.0308169
0.0310169
0.0312107
0.0313982
0.031579
0.0317532
0.0319206
0.032081
0.0322344
0.0323806
0.0325194
0.0326509
0.0327748
0.0328911
0.0329997
0.0331005
0.0331935
0.0332784
0.0333554
0.0334243
0.0334851
0.0335377
0.033582
0.0336182
0.0336461
0.0336657
0.033677
0.0336801
0.0336749
0.0336614
0.0336398
0.0336099
0.0335718
0.0335257
0.0334715
0.0334093
0.0333392
0.0332612
0.0331754
0.033082
0.0329809
0.0328724
0.0327564
0.0326332
0.0325028
0.0323653
0.0322209
0.0320696
0.0319117
0.0317472
0.0315763
0.0313991
0.0312158
0.0310264
0.0308312
0.0306303
0.0304239
0.030212
0.0299949
0.0297727
0.0295455
0.0293135
0.0290768
0.0288356
0.0285901
0.0283404
0.0280865
0.0278288
0.0275673
0.0273022
0.0270336
0.0267616
0.0264864
0.0262082
0.025927
0.025643
0.0253563
0.0250671
0.0247754
0.0244814
0.0241852
0.023887
0.0235867
0.0232846
0.0229808
0.0226753
0.0223683
0.0220598
0.02175
0.0214389
0.0211266
0.0208132
0.0204988
0.0201835
0.0198673
0.0195504
0.0192327
0.0189144
0.0185955
0.0182761
0.0179562
0.017636
0.0173154
0.0169944
0.0166733
0.0163519
0.0160304
0.0157088
0.015387
0.0150653
0.0147435
0.0144217
0.0141
0.0137784
0.0134569
0.0131355
0.0128143
0.0124932
0.0121723
0.0118517
0.0115312
0.011211
0.010891
0.0105713
0.0102518
0.00993264
0.00961372
0.00929508
0.00897671
0.00865863
0.00834083
0.00802331
0.00770607
0.00738911
0.00707241
0.00675599
0.00643983
0.00612392
0.00580826
0.00549285
0.00517766
0.00486269
0.00454793
0.00423338
0.00391901
0.00360482
0.00329079
0.00297692
0.00266318
0.00234957
0.00203607
0.00172266
0.00140934
0.00109608
0.000782878
0.000469712
0.000156568
0.000177143
0.00053144
0.000885769
0.00124015
0.00159461
0.00194916
0.00230382
0.00265862
0.00301358
0.00336871
0.00372403
0.00407957
0.00443534
0.00479136
0.00514765
0.00550422
0.00586108
0.00621826
0.00657577
0.00693362
0.00729182
0.00765038
0.00800932
0.00836864
0.00872835
0.00908845
0.00944896
0.00980988
0.0101712
0.0105329
0.0108951
0.0112576
0.0116206
0.0119839
0.0123476
0.0127117
0.0130762
0.013441
0.0138062
0.0141717
0.0145374
0.0149035
0.0152697
0.0156362
0.0160029
0.0163697
0.0167367
0.0171037
0.0174707
0.0178377
0.0182047
0.0185715
0.0189381
0.0193045
0.0196706
0.0200364
0.0204017
0.0207665
0.0211307
0.0214942
0.021857
0.0222189
0.0225799
0.0229398
0.0232986
0.0236562
0.0240124
0.0243671
0.0247202
0.0250717
0.0254213
0.0257689
0.0261145
0.0264578
0.0267988
0.0271372
0.027473
0.0278059
0.0281359
0.0284628
0.0287864
0.0291066
0.0294231
0.0297358
0.0300447
0.0303493
0.0306497
0.0309456
0.0312369
0.0315233
0.0318048
0.032081
0.0323519
0.0326173
0.0328769
0.0331307
0.0333783
0.0336198
0.0338548
0.0340832
0.0343049
0.0345196
0.0347272
0.0349277
0.0351207
0.0353061
0.0354839
0.0356539
0.0358159
0.0359697
0.0361154
0.0362528
0.0363816
0.036502
0.0366137
0.0367167
0.0368108
0.0368961
0.0369725
0.0370398
0.037098
0.0371472
0.0371872
0.0372181
0.0372398
0.0372523
0.0372557
0.0372499
0.0372349
0.0372108
0.0371777
0.0371355
0.0370843
0.0370242
0.0369552
0.0368774
0.0367909
0.0366958
0.0365922
0.0364802
0.0363598
0.0362313
0.0360946
0.0359501
0.0357977
0.0356376
0.0354699
0.0352949
0.0351126
0.0349232
0.0347268
0.0345237
0.0343139
0.0340976
0.0338751
0.0336463
0.0334116
0.0331711
0.0329249
0.0326733
0.0324163
0.0321542
0.0318871
0.0316151
0.0313386
0.0310575
0.0307721
0.0304826
0.030189
0.0298916
0.0295905
0.0292859
0.0289778
0.0286666
0.0283522
0.0280349
0.0277147
0.0273919
0.0270665
0.0267388
0.0264087
0.0260765
0.0257422
0.025406
0.025068
0.0247283
0.024387
0.0240442
0.0237
0.0233545
0.0230079
0.0226601
0.0223113
0.0219616
0.021611
0.0212596
0.0209076
0.0205549
0.0202017
0.0198479
0.0194937
0.0191392
0.0187843
0.0184292
0.0180738
0.0177183
0.0173627