/*--------------------------------*- C++ -*----------------------------------*\
| =========                 |                                                 |
| \\      /  F ield         | OpenFOAM: The Open Source CFD Toolbox           |
|  \\    /   O peration     | Version:  v2012                                 |
|   \\  /    A nd           | Website:  www.openfoam.com                      |
|    \\/     M anipulation  |                                                 |
\*---------------------------------------------------------------------------*/
FoamFile
{
    version     2.0;
    format      ascii;
    class       volVectorField;
    location    "15.5";
    object      U;
}
// * * * * * * * * * * * * * * * * * * * * * * * * * * * * * * * * * * * * * //

dimensions      [0 1 -1 0 0 0 0];


internalField   nonuniform List<vector> 
65536
(
(0.000689259 -0.000689276 0)
(0.00206782 -0.000689318 0)
(0.0034465 -0.000689398 0)
(0.00482538 -0.000689516 0)
(0.00620453 -0.000689672 0)
(0.00758403 -0.000689868 0)
(0.00896396 -0.000690101 0)
(0.0103444 -0.000690372 0)
(0.0117254 -0.000690679 0)
(0.0131071 -0.000691023 0)
(0.0144895 -0.000691401 0)
(0.0158727 -0.000691814 0)
(0.0172567 -0.00069226 0)
(0.0186417 -0.000692738 0)
(0.0200276 -0.000693246 0)
(0.0214146 -0.000693783 0)
(0.0228027 -0.000694348 0)
(0.024192 -0.000694939 0)
(0.0255825 -0.000695554 0)
(0.0269742 -0.000696192 0)
(0.0283672 -0.00069685 0)
(0.0297616 -0.000697526 0)
(0.0311573 -0.000698218 0)
(0.0325545 -0.000698924 0)
(0.033953 -0.000699642 0)
(0.035353 -0.000700368 0)
(0.0367545 -0.0007011 0)
(0.0381574 -0.000701835 0)
(0.0395618 -0.00070257 0)
(0.0409677 -0.000703302 0)
(0.0423751 -0.000704028 0)
(0.0437838 -0.000704743 0)
(0.045194 -0.000705446 0)
(0.0466056 -0.000706132 0)
(0.0480186 -0.000706796 0)
(0.0494329 -0.000707436 0)
(0.0508484 -0.000708047 0)
(0.0522651 -0.000708624 0)
(0.0536829 -0.000709164 0)
(0.0551018 -0.000709661 0)
(0.0565216 -0.00071011 0)
(0.0579423 -0.000710508 0)
(0.0593637 -0.000710848 0)
(0.0607857 -0.000711126 0)
(0.0622083 -0.000711336 0)
(0.0636312 -0.000711472 0)
(0.0650542 -0.000711529 0)
(0.0664774 -0.000711502 0)
(0.0679003 -0.000711383 0)
(0.069323 -0.000711167 0)
(0.0707451 -0.000710848 0)
(0.0721665 -0.000710418 0)
(0.0735869 -0.000709873 0)
(0.0750061 -0.000709204 0)
(0.0764239 -0.000708406 0)
(0.0778399 -0.00070747 0)
(0.0792539 -0.000706391 0)
(0.0806656 -0.000705161 0)
(0.0820747 -0.000703773 0)
(0.0834808 -0.00070222 0)
(0.0848837 -0.000700494 0)
(0.086283 -0.000698589 0)
(0.0876783 -0.000696495 0)
(0.0890692 -0.000694207 0)
(0.0904553 -0.000691717 0)
(0.0918363 -0.000689017 0)
(0.0932116 -0.0006861 0)
(0.0945809 -0.000682958 0)
(0.0959437 -0.000679584 0)
(0.0972995 -0.000675971 0)
(0.0986478 -0.000672112 0)
(0.0999882 -0.000668 0)
(0.10132 -0.000663627 0)
(0.102643 -0.000658987 0)
(0.103956 -0.000654073 0)
(0.10526 -0.000648879 0)
(0.106552 -0.000643399 0)
(0.107833 -0.000637627 0)
(0.109103 -0.000631557 0)
(0.11036 -0.000625183 0)
(0.111604 -0.000618502 0)
(0.112834 -0.000611507 0)
(0.11405 -0.000604195 0)
(0.115251 -0.000596561 0)
(0.116437 -0.000588603 0)
(0.117606 -0.000580317 0)
(0.118758 -0.0005717 0)
(0.119893 -0.00056275 0)
(0.12101 -0.000553466 0)
(0.122107 -0.000543846 0)
(0.123185 -0.000533889 0)
(0.124243 -0.000523597 0)
(0.12528 -0.000512968 0)
(0.126295 -0.000502005 0)
(0.127289 -0.000490708 0)
(0.128259 -0.000479081 0)
(0.129205 -0.000467126 0)
(0.130127 -0.000454847 0)
(0.131025 -0.000442248 0)
(0.131897 -0.000429334 0)
(0.132743 -0.000416111 0)
(0.133562 -0.000402584 0)
(0.134353 -0.000388761 0)
(0.135117 -0.000374648 0)
(0.135852 -0.000360254 0)
(0.136558 -0.000345589 0)
(0.137235 -0.00033066 0)
(0.137881 -0.000315478 0)
(0.138497 -0.000300054 0)
(0.139081 -0.000284398 0)
(0.139635 -0.000268522 0)
(0.140156 -0.000252439 0)
(0.140645 -0.00023616 0)
(0.141101 -0.0002197 0)
(0.141523 -0.000203071 0)
(0.141913 -0.000186287 0)
(0.142269 -0.000169362 0)
(0.142591 -0.000152312 0)
(0.142878 -0.000135151 0)
(0.143131 -0.000117894 0)
(0.14335 -0.000100557 0)
(0.143534 -8.31541e-05 0)
(0.143682 -6.57021e-05 0)
(0.143796 -4.82164e-05 0)
(0.143875 -3.07127e-05 0)
(0.143919 -1.32068e-05 0)
(0.143928 4.28551e-06 0)
(0.143902 2.17487e-05 0)
(0.143841 3.91672e-05 0)
(0.143745 5.65256e-05 0)
(0.143615 7.38088e-05 0)
(0.14345 9.10018e-05 0)
(0.143251 0.00010809 0)
(0.143017 0.000125059 0)
(0.14275 0.000141895 0)
(0.14245 0.000158585 0)
(0.142116 0.000175114 0)
(0.141749 0.00019147 0)
(0.14135 0.000207642 0)
(0.140918 0.000223617 0)
(0.140455 0.000239383 0)
(0.139961 0.000254931 0)
(0.139435 0.000270249 0)
(0.138879 0.000285328 0)
(0.138294 0.000300159 0)
(0.137678 0.000314734 0)
(0.137034 0.000329044 0)
(0.136362 0.000343081 0)
(0.135662 0.000356841 0)
(0.134934 0.000370315 0)
(0.13418 0.000383498 0)
(0.1334 0.000396386 0)
(0.132594 0.000408975 0)
(0.131764 0.000421259 0)
(0.130909 0.000433236 0)
(0.130031 0.000444904 0)
(0.129129 0.00045626 0)
(0.128205 0.000467303 0)
(0.12726 0.000478031 0)
(0.126293 0.000488445 0)
(0.125305 0.000498543 0)
(0.124298 0.000508327 0)
(0.123272 0.000517797 0)
(0.122227 0.000526955 0)
(0.121164 0.000535803 0)
(0.120083 0.000544342 0)
(0.118986 0.000552575 0)
(0.117873 0.000560505 0)
(0.116744 0.000568136 0)
(0.1156 0.000575471 0)
(0.114442 0.000582514 0)
(0.113269 0.000589268 0)
(0.112084 0.00059574 0)
(0.110886 0.000601932 0)
(0.109676 0.000607851 0)
(0.108455 0.0006135 0)
(0.107222 0.000618887 0)
(0.105979 0.000624015 0)
(0.104726 0.000628891 0)
(0.103463 0.000633521 0)
(0.102191 0.00063791 0)
(0.100911 0.000642064 0)
(0.0996228 0.00064599 0)
(0.0983269 0.000649693 0)
(0.0970238 0.00065318 0)
(0.095714 0.000656457 0)
(0.0943978 0.000659531 0)
(0.0930757 0.000662406 0)
(0.091748 0.000665091 0)
(0.0904151 0.000667591 0)
(0.0890774 0.000669913 0)
(0.0877353 0.000672062 0)
(0.086389 0.000674045 0)
(0.0850389 0.000675869 0)
(0.0836854 0.000677538 0)
(0.0823286 0.00067906 0)
(0.080969 0.000680441 0)
(0.0796067 0.000681685 0)
(0.0782421 0.0006828 0)
(0.0768754 0.000683791 0)
(0.0755069 0.000684663 0)
(0.0741367 0.000685422 0)
(0.0727651 0.000686075 0)
(0.0713923 0.000686625 0)
(0.0700185 0.000687079 0)
(0.0686439 0.000687441 0)
(0.0672686 0.000687717 0)
(0.0658929 0.000687911 0)
(0.0645169 0.00068803 0)
(0.0631407 0.000688076 0)
(0.0617645 0.000688055 0)
(0.0603884 0.000687972 0)
(0.0590126 0.00068783 0)
(0.0576371 0.000687635 0)
(0.056262 0.00068739 0)
(0.0548875 0.000687099 0)
(0.0535136 0.000686766 0)
(0.0521404 0.000686396 0)
(0.050768 0.000685991 0)
(0.0493964 0.000685556 0)
(0.0480257 0.000685093 0)
(0.046656 0.000684607 0)
(0.0452873 0.0006841 0)
(0.0439196 0.000683576 0)
(0.042553 0.000683037 0)
(0.0411874 0.000682487 0)
(0.039823 0.000681928 0)
(0.0384597 0.000681363 0)
(0.0370975 0.000680795 0)
(0.0357365 0.000680226 0)
(0.0343766 0.000679658 0)
(0.0330179 0.000679095 0)
(0.0316603 0.000678537 0)
(0.0303038 0.000677987 0)
(0.0289483 0.000677448 0)
(0.027594 0.00067692 0)
(0.0262407 0.000676406 0)
(0.0248884 0.000675908 0)
(0.0235371 0.000675426 0)
(0.0221867 0.000674963 0)
(0.0208372 0.00067452 0)
(0.0194887 0.000674099 0)
(0.0181409 0.0006737 0)
(0.0167939 0.000673325 0)
(0.0154476 0.000672974 0)
(0.014102 0.000672649 0)
(0.012757 0.000672351 0)
(0.0114126 0.000672081 0)
(0.0100688 0.000671839 0)
(0.00872532 0.000671626 0)
(0.00738228 0.000671442 0)
(0.00603958 0.000671287 0)
(0.00469717 0.000671163 0)
(0.00335497 0.000671071 0)
(0.00201292 0.000671009 0)
(0.000670962 0.000670978 0)
(0.000689223 -0.0020678 0)
(0.00206771 -0.00206792 0)
(0.00344631 -0.00206816 0)
(0.00482511 -0.00206851 0)
(0.00620419 -0.00206898 0)
(0.00758362 -0.00206957 0)
(0.00896348 -0.00207027 0)
(0.0103438 -0.00207108 0)
(0.0117248 -0.00207201 0)
(0.0131064 -0.00207304 0)
(0.0144887 -0.00207418 0)
(0.0158718 -0.00207542 0)
(0.0172558 -0.00207675 0)
(0.0186407 -0.00207819 0)
(0.0200266 -0.00207971 0)
(0.0214136 -0.00208133 0)
(0.0228016 -0.00208302 0)
(0.0241909 -0.0020848 0)
(0.0255813 -0.00208665 0)
(0.026973 -0.00208856 0)
(0.028366 -0.00209054 0)
(0.0297603 -0.00209257 0)
(0.031156 -0.00209465 0)
(0.0325531 -0.00209677 0)
(0.0339516 -0.00209892 0)
(0.0353516 -0.0021011 0)
(0.0367531 -0.0021033 0)
(0.038156 -0.00210551 0)
(0.0395604 -0.00210772 0)
(0.0409663 -0.00210992 0)
(0.0423737 -0.0021121 0)
(0.0437825 -0.00211425 0)
(0.0451927 -0.00211636 0)
(0.0466044 -0.00211842 0)
(0.0480174 -0.00212042 0)
(0.0494317 -0.00212234 0)
(0.0508473 -0.00212418 0)
(0.052264 -0.00212591 0)
(0.053682 -0.00212754 0)
(0.0551009 -0.00212903 0)
(0.0565208 -0.00213039 0)
(0.0579416 -0.00213158 0)
(0.0593632 -0.00213261 0)
(0.0607853 -0.00213345 0)
(0.062208 -0.00213408 0)
(0.0636311 -0.0021345 0)
(0.0650543 -0.00213468 0)
(0.0664776 -0.0021346 0)
(0.0679008 -0.00213425 0)
(0.0693236 -0.00213361 0)
(0.070746 -0.00213265 0)
(0.0721676 -0.00213137 0)
(0.0735882 -0.00212974 0)
(0.0750077 -0.00212774 0)
(0.0764257 -0.00212535 0)
(0.077842 -0.00212256 0)
(0.0792563 -0.00211933 0)
(0.0806683 -0.00211564 0)
(0.0820777 -0.00211149 0)
(0.0834842 -0.00210683 0)
(0.0848875 -0.00210166 0)
(0.0862871 -0.00209595 0)
(0.0876828 -0.00208968 0)
(0.0890741 -0.00208282 0)
(0.0904606 -0.00207536 0)
(0.091842 -0.00206727 0)
(0.0932178 -0.00205852 0)
(0.0945875 -0.0020491 0)
(0.0959507 -0.00203899 0)
(0.097307 -0.00202816 0)
(0.0986559 -0.00201659 0)
(0.0999967 -0.00200426 0)
(0.101329 -0.00199115 0)
(0.102653 -0.00197723 0)
(0.103966 -0.0019625 0)
(0.10527 -0.00194692 0)
(0.106563 -0.00193049 0)
(0.107845 -0.00191318 0)
(0.109115 -0.00189497 0)
(0.110373 -0.00187586 0)
(0.111618 -0.00185582 0)
(0.112849 -0.00183484 0)
(0.114065 -0.0018129 0)
(0.115267 -0.00179001 0)
(0.116453 -0.00176613 0)
(0.117623 -0.00174128 0)
(0.118776 -0.00171543 0)
(0.119912 -0.00168858 0)
(0.121029 -0.00166073 0)
(0.122127 -0.00163187 0)
(0.123206 -0.001602 0)
(0.124264 -0.00157112 0)
(0.125302 -0.00153923 0)
(0.126318 -0.00150634 0)
(0.127312 -0.00147245 0)
(0.128282 -0.00143757 0)
(0.129229 -0.0014017 0)
(0.130152 -0.00136486 0)
(0.13105 -0.00132706 0)
(0.131923 -0.00128831 0)
(0.132769 -0.00124863 0)
(0.133589 -0.00120804 0)
(0.134381 -0.00116657 0)
(0.135145 -0.00112422 0)
(0.135881 -0.00108103 0)
(0.136588 -0.00103702 0)
(0.137265 -0.000992227 0)
(0.137912 -0.000946671 0)
(0.138528 -0.000900387 0)
(0.139113 -0.000853408 0)
(0.139667 -0.000805769 0)
(0.140188 -0.000757506 0)
(0.140677 -0.000708657 0)
(0.141134 -0.000659262 0)
(0.141557 -0.000609361 0)
(0.141947 -0.000558995 0)
(0.142303 -0.000508207 0)
(0.142625 -0.000457042 0)
(0.142913 -0.000405544 0)
(0.143166 -0.000353757 0)
(0.143385 -0.000301729 0)
(0.143568 -0.000249506 0)
(0.143717 -0.000197134 0)
(0.143831 -0.000144661 0)
(0.14391 -9.21344e-05 0)
(0.143954 -3.96011e-05 0)
(0.143963 1.28916e-05 0)
(0.143937 6.52966e-05 0)
(0.143876 0.000117567 0)
(0.14378 0.000169658 0)
(0.143649 0.000221522 0)
(0.143484 0.000273116 0)
(0.143285 0.000324395 0)
(0.143051 0.000375316 0)
(0.142784 0.000425838 0)
(0.142483 0.000475919 0)
(0.142149 0.00052552 0)
(0.141782 0.000574602 0)
(0.141382 0.000623128 0)
(0.14095 0.000671064 0)
(0.140486 0.000718374 0)
(0.139991 0.000765026 0)
(0.139466 0.000810991 0)
(0.138909 0.000856237 0)
(0.138323 0.000900739 0)
(0.137707 0.00094447 0)
(0.137063 0.000987407 0)
(0.13639 0.00102953 0)
(0.135689 0.00107081 0)
(0.134961 0.00111124 0)
(0.134206 0.00115079 0)
(0.133425 0.00118946 0)
(0.132619 0.00122723 0)
(0.131788 0.00126409 0)
(0.130933 0.00130002 0)
(0.130054 0.00133503 0)
(0.129151 0.0013691 0)
(0.128227 0.00140223 0)
(0.127281 0.00143441 0)
(0.126313 0.00146565 0)
(0.125325 0.00149595 0)
(0.124317 0.0015253 0)
(0.12329 0.00155371 0)
(0.122245 0.00158118 0)
(0.121181 0.00160772 0)
(0.1201 0.00163333 0)
(0.119002 0.00165803 0)
(0.117888 0.00168182 0)
(0.116759 0.00170471 0)
(0.115614 0.00172671 0)
(0.114455 0.00174783 0)
(0.113283 0.00176809 0)
(0.112097 0.0017875 0)
(0.110898 0.00180607 0)
(0.109688 0.00182382 0)
(0.108466 0.00184077 0)
(0.107232 0.00185692 0)
(0.105989 0.0018723 0)
(0.104735 0.00188692 0)
(0.103472 0.0019008 0)
(0.1022 0.00191396 0)
(0.100919 0.00192642 0)
(0.0996303 0.00193819 0)
(0.098334 0.0019493 0)
(0.0970305 0.00195975 0)
(0.0957202 0.00196958 0)
(0.0944036 0.00197879 0)
(0.0930811 0.00198741 0)
(0.0917531 0.00199546 0)
(0.0904198 0.00200295 0)
(0.0890818 0.00200991 0)
(0.0877393 0.00201635 0)
(0.0863927 0.00202229 0)
(0.0850423 0.00202776 0)
(0.0836885 0.00203276 0)
(0.0823314 0.00203732 0)
(0.0809715 0.00204146 0)
(0.079609 0.00204518 0)
(0.0782441 0.00204852 0)
(0.0768772 0.00205149 0)
(0.0755084 0.0020541 0)
(0.074138 0.00205637 0)
(0.0727662 0.00205832 0)
(0.0713932 0.00205997 0)
(0.0700192 0.00206132 0)
(0.0686444 0.00206241 0)
(0.067269 0.00206323 0)
(0.0658931 0.00206381 0)
(0.064517 0.00206416 0)
(0.0631407 0.00206429 0)
(0.0617643 0.00206423 0)
(0.0603881 0.00206397 0)
(0.0590122 0.00206354 0)
(0.0576366 0.00206295 0)
(0.0562614 0.00206221 0)
(0.0548868 0.00206134 0)
(0.0535128 0.00206033 0)
(0.0521395 0.00205922 0)
(0.050767 0.002058 0)
(0.0493954 0.00205669 0)
(0.0480247 0.0020553 0)
(0.0466549 0.00205384 0)
(0.0452862 0.00205231 0)
(0.0439184 0.00205074 0)
(0.0425518 0.00204912 0)
(0.0411863 0.00204747 0)
(0.0398218 0.00204579 0)
(0.0384585 0.00204409 0)
(0.0370964 0.00204238 0)
(0.0357353 0.00204067 0)
(0.0343755 0.00203897 0)
(0.0330167 0.00203727 0)
(0.0316591 0.0020356 0)
(0.0303026 0.00203395 0)
(0.0289472 0.00203233 0)
(0.0275929 0.00203074 0)
(0.0262396 0.0020292 0)
(0.0248874 0.0020277 0)
(0.0235361 0.00202626 0)
(0.0221858 0.00202487 0)
(0.0208364 0.00202354 0)
(0.0194878 0.00202227 0)
(0.0181401 0.00202107 0)
(0.0167931 0.00201994 0)
(0.0154469 0.00201889 0)
(0.0141014 0.00201792 0)
(0.0127565 0.00201702 0)
(0.0114121 0.00201621 0)
(0.0100683 0.00201548 0)
(0.00872491 0.00201484 0)
(0.00738193 0.00201429 0)
(0.0060393 0.00201383 0)
(0.00469694 0.00201346 0)
(0.00335481 0.00201318 0)
(0.00201282 0.00201299 0)
(0.000670931 0.0020129 0)
(0.000689143 -0.00344621 0)
(0.00206747 -0.00344641 0)
(0.00344591 -0.0034468 0)
(0.00482456 -0.00344739 0)
(0.00620348 -0.00344818 0)
(0.00758275 -0.00344916 0)
(0.00896246 -0.00345033 0)
(0.0103427 -0.00345168 0)
(0.0117235 -0.00345323 0)
(0.0131049 -0.00345495 0)
(0.0144871 -0.00345685 0)
(0.0158701 -0.00345892 0)
(0.017254 -0.00346115 0)
(0.0186387 -0.00346355 0)
(0.0200245 -0.00346609 0)
(0.0214113 -0.00346879 0)
(0.0227993 -0.00347162 0)
(0.0241884 -0.00347458 0)
(0.0255787 -0.00347767 0)
(0.0269703 -0.00348087 0)
(0.0283633 -0.00348417 0)
(0.0297575 -0.00348756 0)
(0.0311532 -0.00349103 0)
(0.0325502 -0.00349457 0)
(0.0339487 -0.00349817 0)
(0.0353487 -0.00350182 0)
(0.0367501 -0.00350549 0)
(0.038153 -0.00350918 0)
(0.0395575 -0.00351287 0)
(0.0409634 -0.00351655 0)
(0.0423708 -0.00352019 0)
(0.0437796 -0.00352379 0)
(0.0451899 -0.00352732 0)
(0.0466016 -0.00353077 0)
(0.0480147 -0.00353411 0)
(0.0494291 -0.00353733 0)
(0.0508448 -0.00354041 0)
(0.0522618 -0.00354332 0)
(0.0536798 -0.00354604 0)
(0.055099 -0.00354855 0)
(0.0565191 -0.00355082 0)
(0.0579401 -0.00355283 0)
(0.0593619 -0.00355456 0)
(0.0607843 -0.00355597 0)
(0.0622073 -0.00355705 0)
(0.0636306 -0.00355776 0)
(0.0650542 -0.00355808 0)
(0.0664778 -0.00355797 0)
(0.0679014 -0.0035574 0)
(0.0693246 -0.00355636 0)
(0.0707474 -0.00355479 0)
(0.0721694 -0.00355268 0)
(0.0735906 -0.00354998 0)
(0.0750105 -0.00354667 0)
(0.0764291 -0.00354271 0)
(0.0778459 -0.00353807 0)
(0.0792608 -0.00353271 0)
(0.0806735 -0.0035266 0)
(0.0820835 -0.0035197 0)
(0.0834907 -0.00351197 0)
(0.0848947 -0.00350337 0)
(0.086295 -0.00349388 0)
(0.0876915 -0.00348345 0)
(0.0890835 -0.00347205 0)
(0.0904709 -0.00345963 0)
(0.0918531 -0.00344617 0)
(0.0932298 -0.00343162 0)
(0.0946005 -0.00341595 0)
(0.0959646 -0.00339912 0)
(0.0973219 -0.00338109 0)
(0.0986717 -0.00336183 0)
(0.100014 -0.0033413 0)
(0.101347 -0.00331947 0)
(0.102672 -0.0032963 0)
(0.103987 -0.00327176 0)
(0.105292 -0.00324582 0)
(0.106586 -0.00321845 0)
(0.107869 -0.00318962 0)
(0.10914 -0.0031593 0)
(0.110399 -0.00312745 0)
(0.111645 -0.00309407 0)
(0.112877 -0.00305912 0)
(0.114095 -0.00302258 0)
(0.115298 -0.00298443 0)
(0.116486 -0.00294465 0)
(0.117657 -0.00290323 0)
(0.118811 -0.00286016 0)
(0.119948 -0.00281542 0)
(0.121067 -0.002769 0)
(0.122166 -0.0027209 0)
(0.123246 -0.00267112 0)
(0.124306 -0.00261965 0)
(0.125345 -0.00256651 0)
(0.126362 -0.00251168 0)
(0.127357 -0.00245519 0)
(0.128329 -0.00239704 0)
(0.129278 -0.00233724 0)
(0.130202 -0.00227583 0)
(0.131101 -0.00221281 0)
(0.131975 -0.00214821 0)
(0.132823 -0.00208206 0)
(0.133644 -0.00201439 0)
(0.134437 -0.00194524 0)
(0.135202 -0.00187464 0)
(0.135939 -0.00180262 0)
(0.136647 -0.00172925 0)
(0.137325 -0.00165455 0)
(0.137973 -0.00157859 0)
(0.13859 -0.00150142 0)
(0.139176 -0.00142308 0)
(0.139731 -0.00134364 0)
(0.140253 -0.00126316 0)
(0.140743 -0.0011817 0)
(0.1412 -0.00109933 0)
(0.141624 -0.00101612 0)
(0.142014 -0.000932125 0)
(0.142371 -0.000847431 0)
(0.142693 -0.000762106 0)
(0.142981 -0.000676225 0)
(0.143235 -0.000589863 0)
(0.143454 -0.000503098 0)
(0.143638 -0.000416007 0)
(0.143787 -0.000328668 0)
(0.143901 -0.000241161 0)
(0.14398 -0.000153563 0)
(0.144024 -6.59553e-05 0)
(0.144033 2.15846e-05 0)
(0.144007 0.000108978 0)
(0.143945 0.000196147 0)
(0.143849 0.000283015 0)
(0.143718 0.000369506 0)
(0.143553 0.000455544 0)
(0.143353 0.000541057 0)
(0.143119 0.000625973 0)
(0.142851 0.000710221 0)
(0.142549 0.000793733 0)
(0.142215 0.000876444 0)
(0.141847 0.000958288 0)
(0.141446 0.00103921 0)
(0.141014 0.00111914 0)
(0.140549 0.00119802 0)
(0.140053 0.00127581 0)
(0.139526 0.00135245 0)
(0.138969 0.00142789 0)
(0.138382 0.00150209 0)
(0.137765 0.001575 0)
(0.137119 0.00164659 0)
(0.136445 0.00171681 0)
(0.135744 0.00178564 0)
(0.135014 0.00185303 0)
(0.134258 0.00191898 0)
(0.133476 0.00198344 0)
(0.132669 0.0020464 0)
(0.131837 0.00210784 0)
(0.13098 0.00216774 0)
(0.1301 0.00222609 0)
(0.129196 0.00228288 0)
(0.128271 0.00233809 0)
(0.127323 0.00239174 0)
(0.126354 0.00244381 0)
(0.125365 0.0024943 0)
(0.124356 0.00254321 0)
(0.123328 0.00259055 0)
(0.122281 0.00263634 0)
(0.121216 0.00268056 0)
(0.120134 0.00272324 0)
(0.119034 0.00276439 0)
(0.117919 0.00280403 0)
(0.116789 0.00284217 0)
(0.115643 0.00287882 0)
(0.114483 0.00291401 0)
(0.113309 0.00294776 0)
(0.112122 0.0029801 0)
(0.110923 0.00301103 0)
(0.109711 0.0030406 0)
(0.108488 0.00306882 0)
(0.107253 0.00309573 0)
(0.106009 0.00312134 0)
(0.104754 0.00314569 0)
(0.10349 0.00316881 0)
(0.102217 0.00319072 0)
(0.100935 0.00321146 0)
(0.0996456 0.00323106 0)
(0.0983484 0.00324955 0)
(0.097044 0.00326695 0)
(0.0957329 0.0032833 0)
(0.0944155 0.00329864 0)
(0.0930923 0.00331299 0)
(0.0917634 0.00332638 0)
(0.0904295 0.00333885 0)
(0.0890908 0.00335042 0)
(0.0877476 0.00336114 0)
(0.0864003 0.00337102 0)
(0.0850493 0.00338011 0)
(0.0836949 0.00338843 0)
(0.0823373 0.00339601 0)
(0.0809768 0.00340288 0)
(0.0796137 0.00340907 0)
(0.0782484 0.00341462 0)
(0.0768809 0.00341954 0)
(0.0755117 0.00342387 0)
(0.0741408 0.00342764 0)
(0.0727686 0.00343088 0)
(0.0713952 0.0034336 0)
(0.0700208 0.00343585 0)
(0.0686457 0.00343763 0)
(0.06727 0.00343899 0)
(0.0658938 0.00343993 0)
(0.0645173 0.0034405 0)
(0.0631407 0.00344071 0)
(0.0617641 0.00344058 0)
(0.0603877 0.00344014 0)
(0.0590115 0.00343942 0)
(0.0576357 0.00343842 0)
(0.0562603 0.00343717 0)
(0.0548855 0.0034357 0)
(0.0535114 0.00343401 0)
(0.052138 0.00343214 0)
(0.0507654 0.0034301 0)
(0.0493936 0.00342791 0)
(0.0480228 0.00342558 0)
(0.046653 0.00342313 0)
(0.0452841 0.00342058 0)
(0.0439163 0.00341794 0)
(0.0425496 0.00341523 0)
(0.041184 0.00341247 0)
(0.0398196 0.00340966 0)
(0.0384563 0.00340682 0)
(0.0370941 0.00340397 0)
(0.0357331 0.00340111 0)
(0.0343732 0.00339827 0)
(0.0330145 0.00339544 0)
(0.0316569 0.00339264 0)
(0.0303005 0.00338988 0)
(0.0289451 0.00338717 0)
(0.0275908 0.00338452 0)
(0.0262376 0.00338195 0)
(0.0248854 0.00337944 0)
(0.0235342 0.00337703 0)
(0.022184 0.00337471 0)
(0.0208346 0.00337249 0)
(0.0194862 0.00337037 0)
(0.0181385 0.00336837 0)
(0.0167917 0.00336649 0)
(0.0154456 0.00336473 0)
(0.0141001 0.00336311 0)
(0.0127553 0.00336161 0)
(0.0114111 0.00336026 0)
(0.0100674 0.00335904 0)
(0.00872411 0.00335797 0)
(0.00738126 0.00335705 0)
(0.00603875 0.00335628 0)
(0.00469651 0.00335566 0)
(0.0033545 0.00335519 0)
(0.00201264 0.00335489 0)
(0.000670868 0.00335473 0)
(0.000689023 -0.00482441 0)
(0.00206711 -0.00482469 0)
(0.00344531 -0.00482525 0)
(0.00482372 -0.00482608 0)
(0.00620241 -0.00482718 0)
(0.00758145 -0.00482855 0)
(0.00896093 -0.0048302 0)
(0.0103409 -0.0048321 0)
(0.0117215 -0.00483426 0)
(0.0131027 -0.00483668 0)
(0.0144847 -0.00483935 0)
(0.0158675 -0.00484225 0)
(0.0172511 -0.00484539 0)
(0.0186357 -0.00484875 0)
(0.0200213 -0.00485233 0)
(0.021408 -0.00485611 0)
(0.0227958 -0.00486009 0)
(0.0241847 -0.00486425 0)
(0.0255749 -0.00486858 0)
(0.0269664 -0.00487307 0)
(0.0283592 -0.0048777 0)
(0.0297533 -0.00488247 0)
(0.0311489 -0.00488735 0)
(0.0325459 -0.00489232 0)
(0.0339443 -0.00489738 0)
(0.0353442 -0.0049025 0)
(0.0367456 -0.00490767 0)
(0.0381485 -0.00491285 0)
(0.039553 -0.00491804 0)
(0.0409589 -0.00492321 0)
(0.0423663 -0.00492834 0)
(0.0437753 -0.0049334 0)
(0.0451856 -0.00493837 0)
(0.0465975 -0.00494322 0)
(0.0480107 -0.00494793 0)
(0.0494253 -0.00495247 0)
(0.0508412 -0.0049568 0)
(0.0522583 -0.00496091 0)
(0.0536766 -0.00496475 0)
(0.055096 -0.00496829 0)
(0.0565164 -0.00497151 0)
(0.0579378 -0.00497436 0)
(0.0593599 -0.00497682 0)
(0.0607827 -0.00497884 0)
(0.0622061 -0.00498039 0)
(0.0636299 -0.00498142 0)
(0.065054 -0.0049819 0)
(0.0664781 -0.00498179 0)
(0.0679022 -0.00498105 0)
(0.0693261 -0.00497962 0)
(0.0707495 -0.00497748 0)
(0.0721722 -0.00497456 0)
(0.0735941 -0.00497084 0)
(0.0750148 -0.00496625 0)
(0.0764341 -0.00496076 0)
(0.0778518 -0.00495431 0)
(0.0792676 -0.00494685 0)
(0.0806812 -0.00493834 0)
(0.0820922 -0.00492873 0)
(0.0835004 -0.00491796 0)
(0.0849054 -0.00490598 0)
(0.0863069 -0.00489274 0)
(0.0877044 -0.0048782 0)
(0.0890977 -0.00486228 0)
(0.0904863 -0.00484496 0)
(0.0918698 -0.00482616 0)
(0.0932478 -0.00480584 0)
(0.0946199 -0.00478395 0)
(0.0959855 -0.00476044 0)
(0.0973442 -0.00473525 0)
(0.0986955 -0.00470833 0)
(0.100039 -0.00467964 0)
(0.101374 -0.00464912 0)
(0.1027 -0.00461674 0)
(0.104017 -0.00458243 0)
(0.105323 -0.00454616 0)
(0.106619 -0.00450788 0)
(0.107904 -0.00446755 0)
(0.109177 -0.00442514 0)
(0.110438 -0.0043806 0)
(0.111686 -0.00433389 0)
(0.11292 -0.00428499 0)
(0.11414 -0.00423386 0)
(0.115345 -0.00418047 0)
(0.116534 -0.00412481 0)
(0.117707 -0.00406684 0)
(0.118864 -0.00400655 0)
(0.120003 -0.00394393 0)
(0.121123 -0.00387895 0)
(0.122225 -0.00381162 0)
(0.123307 -0.00374193 0)
(0.124369 -0.00366987 0)
(0.12541 -0.00359546 0)
(0.126429 -0.00351869 0)
(0.127426 -0.00343958 0)
(0.1284 -0.00335815 0)
(0.129351 -0.00327442 0)
(0.130277 -0.0031884 0)
(0.131178 -0.00310014 0)
(0.132054 -0.00300967 0)
(0.132903 -0.00291702 0)
(0.133726 -0.00282223 0)
(0.134521 -0.00272536 0)
(0.135288 -0.00262646 0)
(0.136027 -0.00252558 0)
(0.136736 -0.00242279 0)
(0.137415 -0.00231815 0)
(0.138065 -0.00221173 0)
(0.138683 -0.00210361 0)
(0.139271 -0.00199385 0)
(0.139827 -0.00188255 0)
(0.14035 -0.00176979 0)
(0.140841 -0.00165566 0)
(0.141299 -0.00154025 0)
(0.141724 -0.00142365 0)
(0.142115 -0.00130596 0)
(0.142473 -0.00118729 0)
(0.142796 -0.00106773 0)
(0.143085 -0.000947388 0)
(0.143339 -0.000826374 0)
(0.143558 -0.000704794 0)
(0.143743 -0.000582757 0)
(0.143892 -0.000460372 0)
(0.144007 -0.000337751 0)
(0.144086 -0.000215005 0)
(0.144129 -9.22432e-05 0)
(0.144138 3.04224e-05 0)
(0.144112 0.000152882 0)
(0.14405 0.000275027 0)
(0.143953 0.000396748 0)
(0.143822 0.00051794 0)
(0.143656 0.000638496 0)
(0.143455 0.000758315 0)
(0.143221 0.000877295 0)
(0.142952 0.000995338 0)
(0.142649 0.00111235 0)
(0.142313 0.00122823 0)
(0.141945 0.0013429 0)
(0.141543 0.00145627 0)
(0.141109 0.00156825 0)
(0.140643 0.00167877 0)
(0.140146 0.00178774 0)
(0.139618 0.0018951 0)
(0.139059 0.00200079 0)
(0.13847 0.00210472 0)
(0.137852 0.00220686 0)
(0.137205 0.00230713 0)
(0.136529 0.00240549 0)
(0.135825 0.00250189 0)
(0.135094 0.00259629 0)
(0.134337 0.00268864 0)
(0.133553 0.00277892 0)
(0.132744 0.00286709 0)
(0.13191 0.00295312 0)
(0.131051 0.003037 0)
(0.130169 0.00311871 0)
(0.129264 0.00319822 0)
(0.128336 0.00327554 0)
(0.127386 0.00335064 0)
(0.126416 0.00342354 0)
(0.125425 0.00349422 0)
(0.124414 0.00356269 0)
(0.123384 0.00362896 0)
(0.122335 0.00369305 0)
(0.121268 0.00375495 0)
(0.120184 0.00381468 0)
(0.119083 0.00387227 0)
(0.117966 0.00392774 0)
(0.116833 0.00398111 0)
(0.115686 0.00403239 0)
(0.114524 0.00408163 0)
(0.113349 0.00412885 0)
(0.11216 0.00417409 0)
(0.110959 0.00421736 0)
(0.109746 0.00425872 0)
(0.108521 0.0042982 0)
(0.107285 0.00433582 0)
(0.106039 0.00437164 0)
(0.104783 0.00440569 0)
(0.103517 0.00443802 0)
(0.102242 0.00446866 0)
(0.100959 0.00449765 0)
(0.0996685 0.00452504 0)
(0.09837 0.00455088 0)
(0.0970643 0.0045752 0)
(0.095752 0.00459805 0)
(0.0944334 0.00461948 0)
(0.0931089 0.00463952 0)
(0.091779 0.00465823 0)
(0.0904439 0.00467564 0)
(0.0891042 0.0046918 0)
(0.08776 0.00470676 0)
(0.0864118 0.00472055 0)
(0.0850598 0.00473323 0)
(0.0837044 0.00474483 0)
(0.082346 0.0047554 0)
(0.0809847 0.00476498 0)
(0.0796208 0.00477361 0)
(0.0782547 0.00478133 0)
(0.0768865 0.00478819 0)
(0.0755166 0.00479421 0)
(0.074145 0.00479945 0)
(0.0727722 0.00480394 0)
(0.0713982 0.00480772 0)
(0.0700233 0.00481082 0)
(0.0686476 0.00481329 0)
(0.0672714 0.00481515 0)
(0.0658947 0.00481644 0)
(0.0645178 0.0048172 0)
(0.0631408 0.00481746 0)
(0.0617638 0.00481725 0)
(0.060387 0.00481661 0)
(0.0590105 0.00481556 0)
(0.0576344 0.00481413 0)
(0.0562587 0.00481236 0)
(0.0548837 0.00481027 0)
(0.0535093 0.00480789 0)
(0.0521357 0.00480524 0)
(0.0507629 0.00480236 0)
(0.0493909 0.00479926 0)
(0.04802 0.00479598 0)
(0.04665 0.00479253 0)
(0.045281 0.00478893 0)
(0.0439131 0.00478522 0)
(0.0425464 0.00478141 0)
(0.0411807 0.00477752 0)
(0.0398162 0.00477357 0)
(0.0384529 0.00476958 0)
(0.0370907 0.00476557 0)
(0.0357297 0.00476155 0)
(0.0343698 0.00475754 0)
(0.0330111 0.00475357 0)
(0.0316536 0.00474963 0)
(0.0302972 0.00474576 0)
(0.0289419 0.00474196 0)
(0.0275877 0.00473824 0)
(0.0262346 0.00473462 0)
(0.0248825 0.0047311 0)
(0.0235314 0.00472771 0)
(0.0221812 0.00472445 0)
(0.020832 0.00472133 0)
(0.0194837 0.00471836 0)
(0.0181362 0.00471555 0)
(0.0167895 0.00471291 0)
(0.0154435 0.00471045 0)
(0.0140983 0.00470816 0)
(0.0127536 0.00470606 0)
(0.0114096 0.00470416 0)
(0.010066 0.00470246 0)
(0.00872292 0.00470095 0)
(0.00738025 0.00469966 0)
(0.00603791 0.00469858 0)
(0.00469586 0.0046977 0)
(0.00335403 0.00469705 0)
(0.00201236 0.00469662 0)
(0.000670775 0.00469641 0)
(0.000688862 -0.00620234 0)
(0.00206663 -0.0062027 0)
(0.00344452 -0.00620341 0)
(0.00482261 -0.00620448 0)
(0.00620098 -0.00620591 0)
(0.00757971 -0.00620768 0)
(0.00895888 -0.0062098 0)
(0.0103386 -0.00621225 0)
(0.0117189 -0.00621505 0)
(0.0130998 -0.00621816 0)
(0.0144815 -0.0062216 0)
(0.015864 -0.00622535 0)
(0.0172474 -0.0062294 0)
(0.0186317 -0.00623374 0)
(0.0200171 -0.00623835 0)
(0.0214035 -0.00624323 0)
(0.0227911 -0.00624837 0)
(0.0241798 -0.00625374 0)
(0.0255698 -0.00625933 0)
(0.0269611 -0.00626513 0)
(0.0283538 -0.00627111 0)
(0.0297478 -0.00627726 0)
(0.0311432 -0.00628356 0)
(0.0325401 -0.00628999 0)
(0.0339384 -0.00629653 0)
(0.0353383 -0.00630314 0)
(0.0367396 -0.00630981 0)
(0.0381425 -0.00631652 0)
(0.039547 -0.00632323 0)
(0.0409529 -0.00632992 0)
(0.0423604 -0.00633655 0)
(0.0437694 -0.0063431 0)
(0.0451799 -0.00634953 0)
(0.0465919 -0.00635582 0)
(0.0480053 -0.00636192 0)
(0.0494201 -0.0063678 0)
(0.0508362 -0.00637343 0)
(0.0522537 -0.00637876 0)
(0.0536723 -0.00638375 0)
(0.055092 -0.00638837 0)
(0.0565129 -0.00639256 0)
(0.0579346 -0.00639629 0)
(0.0593572 -0.00639951 0)
(0.0607806 -0.00640218 0)
(0.0622045 -0.00640423 0)
(0.0636289 -0.00640563 0)
(0.0650536 -0.00640632 0)
(0.0664785 -0.00640625 0)
(0.0679034 -0.00640536 0)
(0.069328 -0.00640361 0)
(0.0707523 -0.00640093 0)
(0.0721759 -0.00639726 0)
(0.0735987 -0.00639255 0)
(0.0750204 -0.00638673 0)
(0.0764408 -0.00637975 0)
(0.0778597 -0.00637155 0)
(0.0792766 -0.00636205 0)
(0.0806914 -0.00635119 0)
(0.0821037 -0.00633892 0)
(0.0835133 -0.00632516 0)
(0.0849197 -0.00630985 0)
(0.0863226 -0.00629292 0)
(0.0877217 -0.0062743 0)
(0.0891166 -0.00625394 0)
(0.0905068 -0.00623175 0)
(0.0918921 -0.00620767 0)
(0.0932718 -0.00618163 0)
(0.0946457 -0.00615358 0)
(0.0960132 -0.00612343 0)
(0.0973738 -0.00609113 0)
(0.0987272 -0.00605661 0)
(0.100073 -0.00601981 0)
(0.10141 -0.00598065 0)
(0.102738 -0.00593909 0)
(0.104057 -0.00589506 0)
(0.105366 -0.0058485 0)
(0.106664 -0.00579936 0)
(0.107952 -0.00574758 0)
(0.109227 -0.00569311 0)
(0.11049 -0.0056359 0)
(0.11174 -0.00557591 0)
(0.112977 -0.00551309 0)
(0.114199 -0.0054474 0)
(0.115407 -0.0053788 0)
(0.116599 -0.00530727 0)
(0.117775 -0.00523277 0)
(0.118934 -0.00515529 0)
(0.120075 -0.00507479 0)
(0.121199 -0.00499127 0)
(0.122303 -0.0049047 0)
(0.123388 -0.0048151 0)
(0.124452 -0.00472245 0)
(0.125496 -0.00462676 0)
(0.126518 -0.00452804 0)
(0.127518 -0.0044263 0)
(0.128495 -0.00432157 0)
(0.129448 -0.00421387 0)
(0.130376 -0.00410323 0)
(0.13128 -0.00398969 0)
(0.132158 -0.0038733 0)
(0.13301 -0.0037541 0)
(0.133835 -0.00363216 0)
(0.134633 -0.00350752 0)
(0.135402 -0.00338026 0)
(0.136143 -0.00325046 0)
(0.136854 -0.00311819 0)
(0.137536 -0.00298353 0)
(0.138187 -0.00284658 0)
(0.138808 -0.00270743 0)
(0.139397 -0.00256618 0)
(0.139955 -0.00242293 0)
(0.14048 -0.0022778 0)
(0.140972 -0.0021309 0)
(0.141432 -0.00198235 0)
(0.141858 -0.00183227 0)
(0.142251 -0.00168079 0)
(0.142609 -0.00152803 0)
(0.142933 -0.00137413 0)
(0.143223 -0.00121923 0)
(0.143478 -0.00106345 0)
(0.143698 -0.000906949 0)
(0.143883 -0.000749856 0)
(0.144032 -0.000592315 0)
(0.144147 -0.00043447 0)
(0.144226 -0.000276463 0)
(0.14427 -0.000118437 0)
(0.144278 3.94645e-05 0)
(0.144252 0.0001971 0)
(0.144189 0.000354328 0)
(0.144092 0.000511009 0)