/*--------------------------------*- C++ -*----------------------------------*\
| =========                 |                                                 |
| \\      /  F ield         | OpenFOAM: The Open Source CFD Toolbox           |
|  \\    /   O peration     | Version:  v2012                                 |
|   \\  /    A nd           | Website:  www.openfoam.com                      |
|    \\/     M anipulation  |                                                 |
\*---------------------------------------------------------------------------*/
FoamFile
{
    version     2.0;
    format      ascii;
    class       volVectorField;
    location    "2.7";
    object      Psi;
}
// * * * * * * * * * * * * * * * * * * * * * * * * * * * * * * * * * * * * * //

dimensions      [0 2 -1 0 0 0 0];


internalField   nonuniform List<vector> 
65536
(
(0 0 8.75013e-06)
(0 0 2.62498e-05)
(0 0 4.37478e-05)
(0 0 6.12432e-05)
(0 0 7.87349e-05)
(0 0 9.62218e-05)
(0 0 0.000113703)
(0 0 0.000131177)
(0 0 0.000148643)
(0 0 0.000166099)
(0 0 0.000183546)
(0 0 0.00020098)
(0 0 0.000218402)
(0 0 0.00023581)
(0 0 0.000253202)
(0 0 0.000270578)
(0 0 0.000287935)
(0 0 0.000305273)
(0 0 0.000322591)
(0 0 0.000339886)
(0 0 0.000357157)
(0 0 0.000374403)
(0 0 0.000391622)
(0 0 0.000408812)
(0 0 0.000425971)
(0 0 0.000443099)
(0 0 0.000460192)
(0 0 0.000477249)
(0 0 0.000494269)
(0 0 0.000511248)
(0 0 0.000528185)
(0 0 0.000545079)
(0 0 0.000561926)
(0 0 0.000578724)
(0 0 0.000595471)
(0 0 0.000612165)
(0 0 0.000628803)
(0 0 0.000645382)
(0 0 0.0006619)
(0 0 0.000678355)
(0 0 0.000694743)
(0 0 0.000711062)
(0 0 0.000727309)
(0 0 0.00074348)
(0 0 0.000759573)
(0 0 0.000775586)
(0 0 0.000791513)
(0 0 0.000807353)
(0 0 0.000823102)
(0 0 0.000838757)
(0 0 0.000854315)
(0 0 0.000869771)
(0 0 0.000885122)
(0 0 0.000900366)
(0 0 0.000915498)
(0 0 0.000930514)
(0 0 0.000945412)
(0 0 0.000960186)
(0 0 0.000974834)
(0 0 0.000989352)
(0 0 0.00100374)
(0 0 0.00101798)
(0 0 0.00103208)
(0 0 0.00104604)
(0 0 0.00105985)
(0 0 0.0010735)
(0 0 0.001087)
(0 0 0.00110033)
(0 0 0.0011135)
(0 0 0.0011265)
(0 0 0.00113933)
(0 0 0.00115198)
(0 0 0.00116444)
(0 0 0.00117672)
(0 0 0.00118882)
(0 0 0.00120072)
(0 0 0.00121242)
(0 0 0.00122393)
(0 0 0.00123523)
(0 0 0.00124632)
(0 0 0.0012572)
(0 0 0.00126787)
(0 0 0.00127831)
(0 0 0.00128854)
(0 0 0.00129854)
(0 0 0.00130832)
(0 0 0.00131786)
(0 0 0.00132717)
(0 0 0.00133624)
(0 0 0.00134508)
(0 0 0.00135367)
(0 0 0.00136201)
(0 0 0.00137011)
(0 0 0.00137796)
(0 0 0.00138555)
(0 0 0.00139289)
(0 0 0.00139998)
(0 0 0.0014068)
(0 0 0.00141337)
(0 0 0.00141967)
(0 0 0.00142571)
(0 0 0.00143148)
(0 0 0.00143699)
(0 0 0.00144223)
(0 0 0.0014472)
(0 0 0.0014519)
(0 0 0.00145633)
(0 0 0.00146049)
(0 0 0.00146438)
(0 0 0.00146799)
(0 0 0.00147133)
(0 0 0.0014744)
(0 0 0.0014772)
(0 0 0.00147972)
(0 0 0.00148197)
(0 0 0.00148395)
(0 0 0.00148565)
(0 0 0.00148709)
(0 0 0.00148825)
(0 0 0.00148914)
(0 0 0.00148976)
(0 0 0.00149011)
(0 0 0.0014902)
(0 0 0.00149002)
(0 0 0.00148957)
(0 0 0.00148886)
(0 0 0.00148788)
(0 0 0.00148665)
(0 0 0.00148515)
(0 0 0.0014834)
(0 0 0.00148139)
(0 0 0.00147912)
(0 0 0.0014766)
(0 0 0.00147383)
(0 0 0.00147081)
(0 0 0.00146754)
(0 0 0.00146403)
(0 0 0.00146027)
(0 0 0.00145628)
(0 0 0.00145204)
(0 0 0.00144757)
(0 0 0.00144286)
(0 0 0.00143792)
(0 0 0.00143275)
(0 0 0.00142736)
(0 0 0.00142174)
(0 0 0.00141589)
(0 0 0.00140983)
(0 0 0.00140355)
(0 0 0.00139705)
(0 0 0.00139035)
(0 0 0.00138343)
(0 0 0.00137631)
(0 0 0.00136898)
(0 0 0.00136145)
(0 0 0.00135372)
(0 0 0.00134579)
(0 0 0.00133767)
(0 0 0.00132936)
(0 0 0.00132086)
(0 0 0.00131218)
(0 0 0.00130331)
(0 0 0.00129426)
(0 0 0.00128504)
(0 0 0.00127564)
(0 0 0.00126606)
(0 0 0.00125632)
(0 0 0.00124641)
(0 0 0.00123634)
(0 0 0.00122611)
(0 0 0.00121572)
(0 0 0.00120517)
(0 0 0.00119447)
(0 0 0.00118362)
(0 0 0.00117262)
(0 0 0.00116148)
(0 0 0.0011502)
(0 0 0.00113877)
(0 0 0.00112721)
(0 0 0.00111552)
(0 0 0.0011037)
(0 0 0.00109174)
(0 0 0.00107966)
(0 0 0.00106746)
(0 0 0.00105514)
(0 0 0.0010427)
(0 0 0.00103014)
(0 0 0.00101747)
(0 0 0.00100469)
(0 0 0.000991808)
(0 0 0.000978817)
(0 0 0.000965723)
(0 0 0.000952529)
(0 0 0.000939237)
(0 0 0.00092585)
(0 0 0.000912371)
(0 0 0.000898801)
(0 0 0.000885143)
(0 0 0.0008714)
(0 0 0.000857574)
(0 0 0.000843666)
(0 0 0.00082968)
(0 0 0.000815618)
(0 0 0.000801481)
(0 0 0.000787272)
(0 0 0.000772994)
(0 0 0.000758647)
(0 0 0.000744235)
(0 0 0.00072976)
(0 0 0.000715222)
(0 0 0.000700625)
(0 0 0.000685971)
(0 0 0.00067126)
(0 0 0.000656496)
(0 0 0.00064168)
(0 0 0.000626814)
(0 0 0.000611899)
(0 0 0.000596938)
(0 0 0.000581931)
(0 0 0.000566882)
(0 0 0.00055179)
(0 0 0.000536659)
(0 0 0.000521489)
(0 0 0.000506283)
(0 0 0.000491041)
(0 0 0.000475765)
(0 0 0.000460457)
(0 0 0.000445117)
(0 0 0.000429748)
(0 0 0.000414351)
(0 0 0.000398927)
(0 0 0.000383477)
(0 0 0.000368002)
(0 0 0.000352504)
(0 0 0.000336985)
(0 0 0.000321444)
(0 0 0.000305884)
(0 0 0.000290305)
(0 0 0.000274708)
(0 0 0.000259096)
(0 0 0.000243467)
(0 0 0.000227825)
(0 0 0.000212169)
(0 0 0.000196501)
(0 0 0.000180822)
(0 0 0.000165133)
(0 0 0.000149434)
(0 0 0.000133726)
(0 0 0.000118011)
(0 0 0.00010229)
(0 0 8.65625e-05)
(0 0 7.08304e-05)
(0 0 5.50944e-05)
(0 0 3.93553e-05)
(0 0 2.3614e-05)
(0 0 7.87149e-06)
(0 0 2.62507e-05)
(0 0 7.87506e-05)
(0 0 0.000131246)
(0 0 0.000183733)
(0 0 0.000236209)
(0 0 0.00028867)
(0 0 0.000341114)
(0 0 0.000393538)
(0 0 0.000445936)
(0 0 0.000498307)
(0 0 0.000550647)
(0 0 0.000602952)
(0 0 0.000655218)
(0 0 0.000707443)
(0 0 0.000759621)
(0 0 0.000811749)
(0 0 0.000863823)
(0 0 0.000915839)
(0 0 0.000967793)
(0 0 0.00101968)
(0 0 0.00107149)
(0 0 0.00112323)
(0 0 0.00117489)
(0 0 0.00122646)
(0 0 0.00127794)
(0 0 0.00132933)
(0 0 0.00138061)
(0 0 0.00143178)
(0 0 0.00148284)
(0 0 0.00153378)
(0 0 0.0015846)
(0 0 0.00163528)
(0 0 0.00168582)
(0 0 0.00173622)
(0 0 0.00178646)
(0 0 0.00183655)
(0 0 0.00188646)
(0 0 0.0019362)
(0 0 0.00198576)
(0 0 0.00203513)
(0 0 0.00208429)
(0 0 0.00213325)
(0 0 0.002182)
(0 0 0.00223051)
(0 0 0.0022788)
(0 0 0.00232684)
(0 0 0.00237462)
(0 0 0.00242215)
(0 0 0.0024694)
(0 0 0.00251636)
(0 0 0.00256304)
(0 0 0.00260941)
(0 0 0.00265547)
(0 0 0.00270121)
(0 0 0.0027466)
(0 0 0.00279166)
(0 0 0.00283635)
(0 0 0.00288068)
(0 0 0.00292463)
(0 0 0.00296818)
(0 0 0.00301134)
(0 0 0.00305408)
(0 0 0.00309639)
(0 0 0.00313827)
(0 0 0.00317969)
(0 0 0.00322066)
(0 0 0.00326115)
(0 0 0.00330116)
(0 0 0.00334067)
(0 0 0.00337967)
(0 0 0.00341815)
(0 0 0.0034561)
(0 0 0.00349351)
(0 0 0.00353036)
(0 0 0.00356664)
(0 0 0.00360235)
(0 0 0.00363746)
(0 0 0.00367198)
(0 0 0.00370588)
(0 0 0.00373916)
(0 0 0.00377181)
(0 0 0.00380381)
(0 0 0.00383516)
(0 0 0.00386584)
(0 0 0.00389585)
(0 0 0.00392518)
(0 0 0.00395381)
(0 0 0.00398174)
(0 0 0.00400897)
(0 0 0.00403547)
(0 0 0.00406124)
(0 0 0.00408628)
(0 0 0.00411057)
(0 0 0.00413412)
(0 0 0.00415691)
(0 0 0.00417893)
(0 0 0.00420019)
(0 0 0.00422066)
(0 0 0.00424036)
(0 0 0.00425927)
(0 0 0.00427739)
(0 0 0.00429471)
(0 0 0.00431124)
(0 0 0.00432696)
(0 0 0.00434187)
(0 0 0.00435597)
(0 0 0.00436926)
(0 0 0.00438174)
(0 0 0.0043934)
(0 0 0.00440425)
(0 0 0.00441427)
(0 0 0.00442348)
(0 0 0.00443187)
(0 0 0.00443944)
(0 0 0.00444619)
(0 0 0.00445212)
(0 0 0.00445723)
(0 0 0.00446153)
(0 0 0.00446501)
(0 0 0.00446769)
(0 0 0.00446955)
(0 0 0.00447061)
(0 0 0.00447086)
(0 0 0.00447032)
(0 0 0.00446897)
(0 0 0.00446684)
(0 0 0.00446391)
(0 0 0.0044602)
(0 0 0.00445571)
(0 0 0.00445044)
(0 0 0.00444441)
(0 0 0.00443761)
(0 0 0.00443005)
(0 0 0.00442173)
(0 0 0.00441267)
(0 0 0.00440287)
(0 0 0.00439233)
(0 0 0.00438106)
(0 0 0.00436906)
(0 0 0.00435635)
(0 0 0.00434293)
(0 0 0.00432881)
(0 0 0.00431399)
(0 0 0.00429848)
(0 0 0.00428229)
(0 0 0.00426543)
(0 0 0.0042479)
(0 0 0.00422971)
(0 0 0.00421086)
(0 0 0.00419138)
(0 0 0.00417125)
(0 0 0.0041505)
(0 0 0.00412912)
(0 0 0.00410713)
(0 0 0.00408454)
(0 0 0.00406135)
(0 0 0.00403757)
(0 0 0.00401321)
(0 0 0.00398827)
(0 0 0.00396277)
(0 0 0.00393672)
(0 0 0.00391011)
(0 0 0.00388296)
(0 0 0.00385529)
(0 0 0.00382708)
(0 0 0.00379836)
(0 0 0.00376913)
(0 0 0.00373941)
(0 0 0.00370919)
(0 0 0.00367849)
(0 0 0.00364731)
(0 0 0.00361567)
(0 0 0.00358356)
(0 0 0.00355101)
(0 0 0.00351802)
(0 0 0.00348459)
(0 0 0.00345073)
(0 0 0.00341646)
(0 0 0.00338178)
(0 0 0.0033467)
(0 0 0.00331122)
(0 0 0.00327536)
(0 0 0.00323912)
(0 0 0.00320251)
(0 0 0.00316554)
(0 0 0.00312821)
(0 0 0.00309054)
(0 0 0.00305253)
(0 0 0.00301419)
(0 0 0.00297553)
(0 0 0.00293656)
(0 0 0.00289727)
(0 0 0.00285769)
(0 0 0.00281781)
(0 0 0.00277765)
(0 0 0.00273721)
(0 0 0.00269649)
(0 0 0.00265552)
(0 0 0.00261429)
(0 0 0.0025728)
(0 0 0.00253108)
(0 0 0.00248912)
(0 0 0.00244693)
(0 0 0.00240452)
(0 0 0.00236189)
(0 0 0.00231905)
(0 0 0.00227601)
(0 0 0.00223277)
(0 0 0.00218934)
(0 0 0.00214573)
(0 0 0.00210194)
(0 0 0.00205797)
(0 0 0.00201384)
(0 0 0.00196954)
(0 0 0.00192509)
(0 0 0.00188049)
(0 0 0.00183575)
(0 0 0.00179086)
(0 0 0.00174584)
(0 0 0.00170069)
(0 0 0.00165541)
(0 0 0.00161002)
(0 0 0.00156451)
(0 0 0.00151889)
(0 0 0.00147316)
(0 0 0.00142733)
(0 0 0.0013814)
(0 0 0.00133538)
(0 0 0.00128928)
(0 0 0.00124308)
(0 0 0.00119681)
(0 0 0.00115046)
(0 0 0.00110403)
(0 0 0.00105754)
(0 0 0.00101098)
(0 0 0.000964353)
(0 0 0.000917671)
(0 0 0.000870933)
(0 0 0.000824142)
(0 0 0.000777303)
(0 0 0.000730418)
(0 0 0.000683489)
(0 0 0.000636521)
(0 0 0.000589517)
(0 0 0.000542478)
(0 0 0.000495408)
(0 0 0.00044831)
(0 0 0.000401187)
(0 0 0.000354041)
(0 0 0.000306875)
(0 0 0.000259693)
(0 0 0.000212495)
(0 0 0.000165286)
(0 0 0.000118068)
(0 0 7.08434e-05)
(0 0 2.36149e-05)
(0 0 4.3753e-05)
(0 0 0.000131256)
(0 0 0.000218752)
(0 0 0.000306234)
(0 0 0.000393697)
(0 0 0.000481137)
(0 0 0.000568547)
(0 0 0.000655923)
(0 0 0.000743258)
(0 0 0.000830547)
(0 0 0.000917783)
(0 0 0.00100496)
(0 0 0.00109208)
(0 0 0.00117912)
(0 0 0.00126609)
(0 0 0.00135297)
(0 0 0.00143977)
(0 0 0.00152647)
(0 0 0.00161306)
(0 0 0.00169954)
(0 0 0.00178591)
(0 0 0.00187215)
(0 0 0.00195825)
(0 0 0.00204421)
(0 0 0.00213001)
(0 0 0.00221566)
(0 0 0.00230113)
(0 0 0.00238643)
(0 0 0.00247154)
(0 0 0.00255644)
(0 0 0.00264114)
(0 0 0.00272562)
(0 0 0.00280986)
(0 0 0.00289387)
(0 0 0.00297762)
(0 0 0.0030611)
(0 0 0.0031443)
(0 0 0.00322721)
(0 0 0.00330981)
(0 0 0.0033921)
(0 0 0.00347405)
(0 0 0.00355566)
(0 0 0.00363691)
(0 0 0.00371778)
(0 0 0.00379827)
(0 0 0.00387834)
(0 0 0.003958)
(0 0 0.00403721)
(0 0 0.00411597)
(0 0 0.00419427)
(0 0 0.00427207)
(0 0 0.00434937)
(0 0 0.00442614)
(0 0 0.00450238)
(0 0 0.00457806)
(0 0 0.00465316)
(0 0 0.00472766)
(0 0 0.00480155)
(0 0 0.00487481)
(0 0 0.00494742)
(0 0 0.00501936)
(0 0 0.0050906)
(0 0 0.00516114)
(0 0 0.00523094)
(0 0 0.0053)
(0 0 0.00536829)
(0 0 0.00543579)
(0 0 0.00550248)
(0 0 0.00556835)
(0 0 0.00563336)
(0 0 0.00569751)
(0 0 0.00576077)
(0 0 0.00582313)
(0 0 0.00588456)
(0 0 0.00594504)
(0 0 0.00600457)
(0 0 0.0060631)
(0 0 0.00612064)
(0 0 0.00617716)
(0 0 0.00623263)
(0 0 0.00628706)
(0 0 0.00634041)
(0 0 0.00639267)
(0 0 0.00644382)
(0 0 0.00649385)
(0 0 0.00654273)
(0 0 0.00659047)
(0 0 0.00663703)
(0 0 0.00668241)
(0 0 0.00672659)
(0 0 0.00676955)
(0 0 0.00681129)
(0 0 0.00685179)
(0 0 0.00689104)
(0 0 0.00692903)
(0 0 0.00696574)
(0 0 0.00700117)
(0 0 0.00703531)
(0 0 0.00706814)
(0 0 0.00709966)
(0 0 0.00712987)
(0 0 0.00715874)
(0 0 0.00718629)
(0 0 0.00721249)
(0 0 0.00723735)
(0 0 0.00726086)
(0 0 0.00728301)
(0 0 0.00730381)
(0 0 0.00732325)
(0 0 0.00734132)
(0 0 0.00735803)
(0 0 0.00737338)
(0 0 0.00738736)
(0 0 0.00739997)
(0 0 0.00741122)
(0 0 0.0074211)
(0 0 0.00742962)
(0 0 0.00743679)
(0 0 0.00744259)
(0 0 0.00744704)
(0 0 0.00745015)
(0 0 0.00745191)
(0 0 0.00745233)
(0 0 0.00745141)
(0 0 0.00744917)
(0 0 0.0074456)
(0 0 0.00744072)
(0 0 0.00743453)
(0 0 0.00742704)
(0 0 0.00741826)
(0 0 0.0074082)
(0 0 0.00739686)
(0 0 0.00738425)
(0 0 0.00737039)
(0 0 0.00735528)
(0 0 0.00733893)
(0 0 0.00732136)
(0 0 0.00730257)
(0 0 0.00728257)
(0 0 0.00726138)
(0 0 0.007239)
(0 0 0.00721546)
(0 0 0.00719075)
(0 0 0.0071649)
(0 0 0.00713791)
(0 0 0.00710979)
(0 0 0.00708056)
(0 0 0.00705024)
(0 0 0.00701882)
(0 0 0.00698633)
(0 0 0.00695278)
(0 0 0.00691819)
(0 0 0.00688255)
(0 0 0.0068459)
(0 0 0.00680823)
(0 0 0.00676957)
(0 0 0.00672993)
(0 0 0.00668932)
(0 0 0.00664775)
(0 0 0.00660524)
(0 0 0.00656181)
(0 0 0.00651745)
(0 0 0.0064722)
(0 0 0.00642606)
(0 0 0.00637904)
(0 0 0.00633117)
(0 0 0.00628245)
(0 0 0.00623289)
(0 0 0.00618252)
(0 0 0.00613134)
(0 0 0.00607937)
(0 0 0.00602662)
(0 0 0.00597311)
(0 0 0.00591884)
(0 0 0.00586384)
(0 0 0.00580812)
(0 0 0.00575169)
(0 0 0.00569456)
(0 0 0.00563674)
(0 0 0.00557826)
(0 0 0.00551913)
(0 0 0.00545935)
(0 0 0.00539894)
(0 0 0.00533791)
(0 0 0.00527629)
(0 0 0.00521407)
(0 0 0.00515128)
(0 0 0.00508792)
(0 0 0.00502402)
(0 0 0.00495957)
(0 0 0.0048946)
(0 0 0.00482912)
(0 0 0.00476314)
(0 0 0.00469667)
(0 0 0.00462972)
(0 0 0.00456231)
(0 0 0.00449445)
(0 0 0.00442615)
(0 0 0.00435742)
(0 0 0.00428828)
(0 0 0.00421873)
(0 0 0.00414879)
(0 0 0.00407846)
(0 0 0.00400777)
(0 0 0.00393672)
(0 0 0.00386531)
(0 0 0.00379357)
(0 0 0.0037215)
(0 0 0.00364911)
(0 0 0.00357641)
(0 0 0.00350342)
(0 0 0.00343014)
(0 0 0.00335658)
(0 0 0.00328275)
(0 0 0.00320866)
(0 0 0.00313431)
(0 0 0.00305973)
(0 0 0.00298492)
(0 0 0.00290988)
(0 0 0.00283462)
(0 0 0.00275916)
(0 0 0.00268349)
(0 0 0.00260764)
(0 0 0.00253159)
(0 0 0.00245538)
(0 0 0.00237899)
(0 0 0.00230244)
(0 0 0.00222574)
(0 0 0.00214889)
(0 0 0.00207189)
(0 0 0.00199476)
(0 0 0.00191751)
(0 0 0.00184013)
(0 0 0.00176263)
(0 0 0.00168503)
(0 0 0.00160732)
(0 0 0.00152951)
(0 0 0.00145161)
(0 0 0.00137363)
(0 0 0.00129556)
(0 0 0.00121741)
(0 0 0.00113919)
(0 0 0.00106091)
(0 0 0.000982565)
(0 0 0.000904164)
(0 0 0.000825711)
(0 0 0.000747212)
(0 0 0.00066867)
(0 0 0.00059009)
(0 0 0.000511478)
(0 0 0.000432837)
(0 0 0.000354172)
(0 0 0.000275487)
(0 0 0.000196787)
(0 0 0.000118077)
(0 0 3.93596e-05)
(0 0 6.12579e-05)
(0 0 0.00018377)
(0 0 0.000306271)
(0 0 0.000428753)
(0 0 0.00055121)
(0 0 0.000673633)
(0 0 0.000796015)
(0 0 0.000918349)
(0 0 0.00104063)
(0 0 0.00116284)
(0 0 0.00128498)
(0 0 0.00140704)
(0 0 0.00152901)
(0 0 0.00165088)
(0 0 0.00177264)
(0 0 0.00189429)
(0 0 0.00201581)
(0 0 0.0021372)
(0 0 0.00225844)
(0 0 0.00237953)
(0 0 0.00250045)
(0 0 0.00262119)
(0 0 0.00274175)
(0 0 0.0028621)
(0 0 0.00298224)
(0 0 0.00310216)
(0 0 0.00322184)
(0 0 0.00334127)
(0 0 0.00346043)
(0 0 0.00357932)
(0 0 0.00369791)
(0 0 0.00381619)
(0 0 0.00393415)
(0 0 0.00405177)
(0 0 0.00416904)
(0 0 0.00428593)
(0 0 0.00440243)
(0 0 0.00451852)
(0 0 0.00463419)
(0 0 0.00474941)
(0 0 0.00486416)
(0 0 0.00497843)
(0 0 0.0050922)
(0 0 0.00520544)
(0 0 0.00531814)
(0 0 0.00543027)
(0 0 0.00554181)
(0 0 0.00565273)
(0 0 0.00576302)
(0 0 0.00587266)
(0 0 0.00598161)
(0 0 0.00608985)
(0 0 0.00619736)
(0 0 0.00630411)
(0 0 0.00641009)
(0 0 0.00651525)
(0 0 0.00661959)
(0 0 0.00672306)
(0 0 0.00682565)
(0 0 0.00692733)
(0 0 0.00702807)
(0 0 0.00712784)
(0 0 0.00722661)
(0 0 0.00732437)
(0 0 0.00742108)
(0 0 0.00751671)
(0 0 0.00761124)
(0 0 0.00770464)
(0 0 0.00779687)
(0 0 0.00788792)
(0 0 0.00797776)
(0 0 0.00806635)
(0 0 0.00815368)
(0 0 0.00823971)
(0 0 0.00832441)
(0 0 0.00840777)
(0 0 0.00848975)
(0 0 0.00857032)
(0 0 0.00864947)
(0 0 0.00872717)
(0 0 0.00880338)
(0 0 0.0088781)
(0 0 0.00895128)
(0 0 0.00902292)
(0 0 0.00909298)
(0 0 0.00916145)
(0 0 0.00922829)
(0 0 0.0092935)
(0 0 0.00935705)
(0 0 0.00941892)
(0 0 0.00947909)
(0 0 0.00953754)
(0 0 0.00959426)
(0 0 0.00964922)
(0 0 0.00970242)
(0 0 0.00975384)
(0 0 0.00980345)
(0 0 0.00985126)
(0 0 0.00989723)
(0 0 0.00994138)
(0 0 0.00998367)
(0 0 0.0100241)
(0 0 0.0100627)
(0 0 0.0100994)
(0 0 0.0101342)
(0 0 0.0101671)
(0 0 0.0101981)
(0 0 0.0102272)
(0 0 0.0102545)
(0 0 0.0102798)
(0 0 0.0103032)
(0 0 0.0103246)
(0 0 0.0103442)
(0 0 0.0103619)
(0 0 0.0103776)
(0 0 0.0103914)
(0 0 0.0104034)
(0 0 0.0104134)
(0 0 0.0104215)
(0 0 0.0104278)
(0 0 0.0104321)
(0 0 0.0104345)
(0 0 0.0104351)
(0 0 0.0104338)
(0 0 0.0104307)
(0 0 0.0104257)
(0 0 0.0104188)
(0 0 0.0104102)
(0 0 0.0103997)
(0 0 0.0103874)
(0 0 0.0103733)
(0 0 0.0103574)
(0 0 0.0103397)
(0 0 0.0103203)
(0 0 0.0102991)
(0 0 0.0102762)
(0 0 0.0102516)
(0 0 0.0102253)
(0 0 0.0101973)
(0 0 0.0101676)
(0 0 0.0101362)
(0 0 0.0101033)
(0 0 0.0100687)
(0 0 0.0100324)
(0 0 0.00999464)
(0 0 0.00995526)
(0 0 0.00991433)
(0 0 0.00987185)
(0 0 0.00982785)
(0 0 0.00978235)
(0 0 0.00973537)
(0 0 0.00968691)
(0 0 0.00963701)
(0 0 0.00958567)
(0 0 0.00953292)
(0 0 0.00947878)
(0 0 0.00942326)
(0 0 0.00936638)
(0 0 0.00930817)
(0 0 0.00924864)
(0 0 0.00918781)
(0 0 0.0091257)
(0 0 0.00906232)
(0 0 0.00899771)
(0 0 0.00893186)
(0 0 0.00886482)
(0 0 0.00879659)
(0 0 0.00872719)
(0 0 0.00865665)
(0 0 0.00858498)
(0 0 0.0085122)
(0 0 0.00843834)
(0 0 0.0083634)
(0 0 0.00828741)
(0 0 0.00821039)
(0 0 0.00813236)
(0 0 0.00805334)
(0 0 0.00797334)
(0 0 0.00789238)
(0 0 0.00781049)
(0 0 0.00772768)
(0 0 0.00764397)
(0 0 0.00755938)
(0 0 0.00747392)
(0 0 0.00738763)
(0 0 0.00730051)
(0 0 0.00721258)
(0 0 0.00712386)
(0 0 0.00703438)
(0 0 0.00694413)
(0 0 0.00685316)
(0 0 0.00676147)
(0 0 0.00666907)
(0 0 0.006576)
(0 0 0.00648226)
(0 0 0.00638787)
(0 0 0.00629284)
(0 0 0.00619721)
(0 0 0.00610097)
(0 0 0.00600416)
(0 0 0.00590677)
(0 0 0.00580884)
(0 0 0.00571037)
(0 0 0.00561138)
(0 0 0.00551189)
(0 0 0.00541191)
(0 0 0.00531146)
(0 0 0.00521054)
(0 0 0.00510919)
(0 0 0.0050074)
(0 0 0.00490519)
(0 0 0.00480258)
(0 0 0.00469958)
(0 0 0.00459621)
(0 0 0.00449247)
(0 0 0.00438838)
(0 0 0.00428395)
(0 0 0.0041792)
(0 0 0.00407413)
(0 0 0.00396876)
(0 0 0.0038631)
(0 0 0.00375716)
(0 0 0.00365095)
(0 0 0.00354448)
(0 0 0.00343777)
(0 0 0.00333081)
(0 0 0.00322364)
(0 0 0.00311624)
(0 0 0.00300864)
(0 0 0.00290084)
(0 0 0.00279285)
(0 0 0.00268468)
(0 0 0.00257634)
(0 0 0.00246784)
(0 0 0.00235919)
(0 0 0.00225039)
(0 0 0.00214145)
(0 0 0.00203238)
(0 0 0.00192319)
(0 0 0.00181389)
(0 0 0.00170447)
(0 0 0.00159496)
(0 0 0.00148536)
(0 0 0.00137567)
(0 0 0.0012659)
(0 0 0.00115606)
(0 0 0.00104616)
(0 0 0.00093619)
(0 0 0.000826173)
(0 0 0.000716109)
(0 0 0.000606005)
(0 0 0.000495868)
(0 0 0.000385704)
(0 0 0.000275518)
(0 0 0.000165317)
(0 0 5.51065e-05)
(0 0 7.87665e-05)
(0 0 0.000236295)
(0 0 0.000393809)
(0 0 0.000551299)
(0 0 0.000708756)
(0 0 0.00086617)
(0 0 0.00102353)
(0 0 0.00118083)
(0 0 0.00133806)
(0 0 0.0014952)
(0 0 0.00165225)
(0 0 0.0018092)
(0 0 0.00196603)
(0 0 0.00212274)
(0 0 0.00227931)
(0 0 0.00243573)
(0 0 0.00259199)
(0 0 0.00274808)
(0 0 0.00290398)
(0 0 0.00305968)
(0 0 0.00321517)
(0 0 0.00337043)
(0 0 0.00352545)
(0 0 0.00368021)
(0 0 0.0038347)
(0 0 0.0039889)
(0 0 0.0041428)
(0 0 0.00429637)
(0 0 0.00444961)
(0 0 0.00460248)
(0 0 0.00475498)
(0 0 0.00490709)
(0 0 0.00505878)
(0 0 0.00521003)
(0 0 0.00536083)
(0 0 0.00551115)
(0 0 0.00566096)
(0 0 0.00581026)
(0 0 0.005959)
(0 0 0.00610718)
(0 0 0.00625476)
(0 0 0.00640171)
(0 0 0.00654802)
(0 0 0.00669365)
(0 0 0.00683859)
(0 0 0.00698279)
(0 0 0.00712623)
(0 0 0.00726889)
(0 0 0.00741073)
(0 0 0.00755173)
(0 0 0.00769185)
(0 0 0.00783106)
(0 0 0.00796933)
(0 0 0.00810663)
(0 0 0.00824293)
(0 0 0.00837819)
(0 0 0.00851237)
(0 0 0.00864546)
(0 0 0.0087774)
(0 0 0.00890818)
(0 0 0.00903774)
(0 0 0.00916607)
(0 0 0.00929311)
(0 0 0.00941885)
(0 0 0.00954324)
(0 0 0.00966624)
(0 0 0.00978782)
(0 0 0.00990795)
(0 0 0.0100266)
(0 0 0.0101437)
(0 0 0.0102593)
(0 0 0.0103732)
(0 0 0.0104855)
(0 0 0.0105962)
(0 0 0.0107051)
(0 0 0.0108123)
(0 0 0.0109178)
(0 0 0.0110214)
(0 0 0.0111232)
(0 0 0.0112232)
(0 0 0.0113212)
(0 0 0.0114173)
(0 0 0.0115115)
(0 0 0.0116036)
(0 0 0.0116937)
(0 0 0.0117818)
(0 0 0.0118678)
(0 0 0.0119516)
(0 0 0.0120334)
(0 0 0.012113)
(0 0 0.0121903)
(0 0 0.0122655)
(0 0 0.0123385)
(0 0 0.0124092)
(0 0 0.0124776)
(0 0 0.0125437)
(0 0 0.0126075)
(0 0 0.012669)
(0 0 0.0127282)
(0 0 0.0127849)
(0 0 0.0128393)
(0 0 0.0128913)
(0 0 0.0129409)
(0 0 0.0129881)
(0 0 0.0130329)
(0 0 0.0130752)
(0 0 0.0131151)
(0 0 0.0131526)
(0 0 0.0131876)
(0 0 0.0132201)
(0 0 0.0132502)
(0 0 0.0132778)
(0 0 0.013303)
(0 0 0.0133257)
(0 0 0.0133459)
(0 0 0.0133637)
(0 0 0.013379)
(0 0 0.0133919)
(0 0 0.0134024)
(0 0 0.0134103)
(0 0 0.0134159)
(0 0 0.0134191)
(0 0 0.0134198)
(0 0 0.0134181)
(0 0 0.0134141)
(0 0 0.0134076)
(0 0 0.0133988)
(0 0 0.0133876)
(0 0 0.0133741)
(0 0 0.0133583)
(0 0 0.0133401)
(0 0 0.0133197)
(0 0 0.0132969)
(0 0 0.0132719)
(0 0 0.0132447)
(0 0 0.0132152)
(0 0 0.0131836)
(0 0 0.0131497)
(0 0 0.0131136)
(0 0 0.0130755)
(0 0 0.0130351)
(0 0 0.0129927)
(0 0 0.0129482)
(0 0 0.0129016)
(0 0 0.012853)
(0 0 0.0128023)
(0 0 0.0127496)
(0 0 0.012695)
(0 0 0.0126384)
(0 0 0.0125799)
(0 0 0.0125194)
(0 0 0.0124571)
(0 0 0.0123929)
(0 0 0.0123269)
(0 0 0.012259)
(0 0 0.0121894)
(0 0 0.0121179)
(0 0 0.0120448)
(0 0 0.0119699)
(0 0 0.0118933)
(0 0 0.0118151)
(0 0 0.0117352)
(0 0 0.0116537)
(0 0 0.0115706)
(0 0 0.0114859)
(0 0 0.0113997)
(0 0 0.0113119)
(0 0 0.0112226)
(0 0 0.0111319)
(0 0 0.0110397)
(0 0 0.0109461)
(0 0 0.0108511)
(0 0 0.0107547)
(0 0 0.010657)
(0 0 0.010558)
(0 0 0.0104576)
(0 0 0.010356)
(0 0 0.0102531)
(0 0 0.010149)
(0 0 0.0100436)
(0 0 0.00993713)
(0 0 0.00982947)
(0 0 0.00972068)
(0 0 0.00961078)
(0 0 0.00949979)
(0 0 0.00938775)
(0 0 0.00927467)
(0 0 0.00916057)
(0 0 0.00904549)
(0 0 0.00892943)
(0 0 0.00881243)
(0 0 0.00869451)
(0 0 0.00857569)
(0 0 0.00845599)
(0 0 0.00833544)
(0 0 0.00821405)
(0 0 0.00809185)
(0 0 0.00796886)
(0 0 0.00784511)
(0 0 0.0077206)
(0 0 0.00759536)
(0 0 0.00746942)
(0 0 0.00734279)
(0 0 0.0072155)
(0 0 0.00708755)
(0 0 0.00695898)
(0 0 0.0068298)
(0 0 0.00670003)
(0 0 0.00656969)
(0 0 0.00643879)
(0 0 0.00630736)
(0 0 0.00617541)
(0 0 0.00604297)
(0 0 0.00591003)
(0 0 0.00577663)
(0 0 0.00564278)
(0 0 0.0055085)
(0 0 0.00537379)
(0 0 0.00523868)
(0 0 0.00510319)
(0 0 0.00496732)
(0 0 0.00483109)
(0 0 0.00469452)
(0 0 0.00455761)
(0 0 0.00442039)
(0 0 0.00428286)
(0 0 0.00414505)
(0 0 0.00400695)
(0 0 0.00386859)
(0 0 0.00372997)
(0 0 0.00359112)
(0 0 0.00345203)
(0 0 0.00331272)
(0 0 0.0031732)
(0 0 0.00303349)
(0 0 0.00289359)
(0 0 0.00275351)
(0 0 0.00261327)
(0 0 0.00247287)
(0 0 0.00233232)
(0 0 0.00219164)
(0 0 0.00205083)
(0 0 0.0019099)
(0 0 0.00176885)
(0 0 0.00162771)
(0 0 0.00148648)
(0 0 0.00134516)
(0 0 0.00120376)
(0 0 0.0010623)
(0 0 0.00092078)
(0 0 0.000779208)
(0 0 0.000637592)
(0 0 0.000495941)
(0 0 0.000354263)
(0 0 0.000212566)
(0 0 7.08565e-05)
(0 0 9.62798e-05)
(0 0 0.000288834)
(0 0 0.00048137)
(0 0 0.000673878)
(0 0 0.000866345)
(0 0 0.00105876)
(0 0 0.00125111)
(0 0 0.00144339)
(0 0 0.00163557)
(0 0 0.00182766)
(0 0 0.00201963)
(0 0 0.00221148)
(0 0 0.00240319)
(0 0 0.00259474)
(0 0 0.00278613)
(0 0 0.00297734)
(0 0 0.00316835)
(0 0 0.00335915)
(0 0 0.00354972)
(0 0 0.00374005)
(0 0 0.00393012)
(0 0 0.00411991)
(0 0 0.00430941)
(0 0 0.00449859)
(0 0 0.00468744)
(0 0 0.00487595)
(0 0 0.00506408)
(0 0 0.00525181)
(0 0 0.00543914)
(0 0 0.00562603)
(0 0 0.00581246)
(0 0 0.0059984)
(0 0 0.00618384)
(0 0 0.00636875)
(0 0 0.0065531)
(0 0 0.00673687)
(0 0 0.00692003)
(0 0 0.00710255)
(0 0 0.0072844)
(0 0 0.00746555)
(0 0 0.00764597)
(0 0 0.00782564)
(0 0 0.00800451)
(0 0 0.00818257)
(0 0 0.00835976)
(0 0 0.00853607)
(0 0 0.00871145)
(0 0 0.00888587)
(0 0 0.00905929)
(0 0 0.00923168)
(0 0 0.009403)
(0 0 0.00957321)
(0 0 0.00974228)
(0 0 0.00991016)
(0 0 0.0100768)
(0 0 0.0102422)
(0 0 0.0104063)
(0 0 0.010569)
(0 0 0.0107303)
(0 0 0.0108902)
(0 0 0.0110487)
(0 0 0.0112056)
(0 0 0.0113609)
(0 0 0.0115147)
(0 0 0.0116668)
(0 0 0.0118172)
(0 0 0.0119659)
(0 0 0.0121128)
(0 0 0.0122578)
(0 0 0.012401)
(0 0 0.0125423)
(0 0 0.0126817)
(0 0 0.012819)
(0 0 0.0129544)
(0 0 0.0130876)
(0 0 0.0132187)
(0 0 0.0133477)
(0 0 0.0134744)
(0 0 0.0135989)
(0 0 0.0137211)
(0 0 0.013841)
(0 0 0.0139585)
(0 0 0.0140736)
(0 0 0.0141863)
(0 0 0.0142965)
(0 0 0.0144042)
(0 0 0.0145093)
(0 0 0.0146119)
(0 0 0.0147119)
(0 0 0.0148092)
(0 0 0.0149038)
(0 0 0.0149958)
(0 0 0.015085)
(0 0 0.0151714)
(0 0 0.0152551)
(0 0 0.0153359)
(0 0 0.015414)
(0 0 0.0154892)
(0 0 0.0155615)
(0 0 0.0156309)
(0 0 0.0156974)
(0 0 0.015761)
(0 0 0.0158216)
(0 0 0.0158793)
(0 0 0.0159341)
(0 0 0.0159858)
(0 0 0.0160346)
(0 0 0.0160804)
(0 0 0.0161231)
(0 0 0.0161629)
(0 0 0.0161997)
(0 0 0.0162335)
(0 0 0.0162642)
(0 0 0.016292)
(0 0 0.0163167)
(0 0 0.0163384)
(0 0 0.0163571)
(0 0 0.0163729)
(0 0 0.0163856)
(0 0 0.0163954)
(0 0 0.0164022)
(0 0 0.016406)
(0 0 0.0164069)
(0 0 0.0164048)
(0 0 0.0163998)
(0 0 0.0163919)
(0 0 0.0163811)
(0 0 0.0163674)
(0 0 0.0163509)
(0 0 0.0163315)
(0 0 0.0163093)
(0 0 0.0162842)
(0 0 0.0162564)
(0 0 0.0162258)
(0 0 0.0161925)
(0 0 0.0161564)
(0 0 0.0161177)
(0 0 0.0160763)
(0 0 0.0160322)
(0 0 0.0159854)
(0 0 0.0159361)
(0 0 0.0158842)
(0 0 0.0158298)
(0 0 0.0157728)
(0 0 0.0157133)
(0 0 0.0156513)
(0 0 0.0155869)
(0 0 0.0155201)
(0 0 0.0154509)
(0 0 0.0153793)
(0 0 0.0153054)
(0 0 0.0152291)
(0 0 0.0151506)
(0 0 0.0150699)
(0 0 0.0149869)
(0 0 0.0149017)
(0 0 0.0148144)
(0 0 0.0147249)
(0 0 0.0146333)
(0 0 0.0145397)
(0 0 0.014444)
(0 0 0.0143463)
(0 0 0.0142466)
(0 0 0.014145)
(0 0 0.0140415)
(0 0 0.013936)
(0 0 0.0138287)
(0 0 0.0137196)
(0 0 0.0136086)
(0 0 0.0134959)
(0 0 0.0133815)
(0 0 0.0132653)
(0 0 0.0131474)
(0 0 0.0130279)
(0 0 0.0129068)
(0 0 0.0127841)
(0 0 0.0126598)
(0 0 0.012534)
(0 0 0.0124067)
(0 0 0.0122779)
(0 0 0.0121477)
(0 0 0.0120161)
(0 0 0.0118831)
(0 0 0.0117487)
(0 0 0.011613)
(0 0 0.011476)
(0 0 0.0113378)
(0 0 0.0111983)
(0 0 0.0110576)
(0 0 0.0109157)
(0 0 0.0107726)
(0 0 0.0106285)
(0 0 0.0104832)
(0 0 0.0103368)
(0 0 0.0101895)
(0 0 0.0100411)
(0 0 0.00989165)
(0 0 0.00974129)
(0 0 0.00958999)
(0 0 0.00943777)
(0 0 0.00928466)
(0 0 0.00913069)
(0 0 0.00897588)
(0 0 0.00882026)
(0 0 0.00866384)
(0 0 0.00850666)
(0 0 0.00834874)
(0 0 0.00819009)
(0 0 0.00803075)
(0 0 0.00787073)
(0 0 0.00771005)
(0 0 0.00754875)
(0 0 0.00738683)
(0 0 0.00722432)
(0 0 0.00706125)
(0 0 0.00689762)
(0 0 0.00673346)
(0 0 0.00656879)
(0 0 0.00640363)
(0 0 0.00623799)
(0 0 0.0060719)
(0 0 0.00590537)
(0 0 0.00573842)
(0 0 0.00557106)
(0 0 0.00540332)
(0 0 0.0052352)
(0 0 0.00506674)
(0 0 0.00489793)
(0 0 0.00472879)
(0 0 0.00455935)
(0 0 0.00438961)
(0 0 0.00421959)
(0 0 0.0040493)
(0 0 0.00387876)
(0 0 0.00370798)
(0 0 0.00353697)
(0 0 0.00336574)
(0 0 0.00319431)
(0 0 0.0030227)
(0 0 0.0028509)
(0 0 0.00267893)
(0 0 0.00250681)
(0 0 0.00233454)
(0 0 0.00216214)
(0 0 0.00198961)
(0 0 0.00181698)
(0 0 0.00164424)
(0 0 0.0014714)
(0 0 0.00129849)
(0 0 0.0011255)
(0 0 0.000952453)
(0 0 0.000779351)
(0 0 0.000606206)
(0 0 0.000433028)
(0 0 0.000259826)
(0 0 8.66103e-05)
(0 0 0.000113799)
(0 0 0.00034139)
(0 0 0.00056896)
(0 0 0.000796497)
(0 0 0.00102399)
(0 0 0.00125141)
(0 0 0.00147877)
(0 0 0.00170603)
(0 0 0.00193319)
(0 0 0.00216023)
(0 0 0.00238714)
(0 0 0.0026139)
(0 0 0.0028405)
(0 0 0.00306691)
(0 0 0.00329313)
(0 0 0.00351914)
(0 0 0.00374491)
(0 0 0.00397044)
(0 0 0.0041957)
(0 0 0.00442067)
(0 0 0.00464534)
(0 0 0.00486968)
(0 0 0.00509368)
(0 0 0.00531731)
(0 0 0.00554054)
(0 0 0.00576337)
(0 0 0.00598575)
(0 0 0.00620767)
(0 0 0.00642911)
(0 0 0.00665003)
(0 0 0.00687041)
(0 0 0.00709023)
(0 0 0.00730944)
(0 0 0.00752803)
(0 0 0.00774596)
(0 0 0.00796321)
(0 0 0.00817973)
(0 0 0.0083955)
(0 0 0.00861049)
(0 0 0.00882465)
(0 0 0.00903795)
(0 0 0.00925036)
(0 0 0.00946183)
(0 0 0.00967234)
(0 0 0.00988183)
(0 0 0.0100903)
(0 0 0.0102976)
(0 0 0.0105038)
(0 0 0.0107089)
(0 0 0.0109127)
(0 0 0.0111153)
(0 0 0.0113165)
(0 0 0.0115164)
(0 0 0.0117149)
(0 0 0.011912)
(0 0 0.0121075)
(0 0 0.0123015)
(0 0 0.0124939)
(0 0 0.0126847)
(0 0 0.0128738)
(0 0 0.0130611)
(0 0 0.0132467)
(0 0 0.0134303)
(0 0 0.0136122)
(0 0 0.013792)
(0 0 0.0139699)
(0 0 0.0141457)
(0 0 0.0143194)
(0 0 0.0144909)
(0 0 0.0146603)
(0 0 0.0148274)
(0 0 0.0149922)
(0 0 0.0151546)
(0 0 0.0153146)
(0 0 0.0154722)
(0 0 0.0156272)
(0 0 0.0157797)
(0 0 0.0159296)
(0 0 0.0160768)
(0 0 0.0162213)
(0 0 0.0163631)
(0 0 0.0165021)
(0 0 0.0166382)
(0 0 0.0167715)
(0 0 0.0169018)
(0 0 0.0170292)
(0 0 0.0171535)
(0 0 0.0172748)
(0 0 0.017393)
(0 0 0.0175081)
(0 0 0.01762)
(0 0 0.0177287)
(0 0 0.0178342)
(0 0 0.0179364)
(0 0 0.0180354)
(0 0 0.018131)
(0 0 0.0182233)
(0 0 0.0183121)
(0 0 0.0183977)
(0 0 0.0184797)
(0 0 0.0185584)
(0 0 0.0186336)
(0 0 0.0187053)
(0 0 0.0187735)
(0 0 0.0188382)
(0 0 0.0188994)
(0 0 0.018957)
(0 0 0.0190112)
(0 0 0.0190617)
(0 0 0.0191087)
(0 0 0.0191522)
(0 0 0.0191921)
(0 0 0.0192285)
(0 0 0.0192612)
(0 0 0.0192905)
(0 0 0.0193161)
(0 0 0.0193383)
(0 0 0.0193568)
(0 0 0.0193719)
(0 0 0.0193834)
(0 0 0.0193914)
(0 0 0.0193959)
(0 0 0.0193969)
(0 0 0.0193944)
(0 0 0.0193885)
(0 0 0.0193791)
(0 0 0.0193663)
(0 0 0.0193501)
(0 0 0.0193305)
(0 0 0.0193075)
(0 0 0.0192812)
(0 0 0.0192516)
(0 0 0.0192187)
(0 0 0.0191825)
(0 0 0.019143)
(0 0 0.0191004)
(0 0 0.0190545)
(0 0 0.0190055)
(0 0 0.0189533)
(0 0 0.0188981)
(0 0 0.0188397)
(0 0 0.0187783)
(0 0 0.0187139)
(0 0 0.0186465)
(0 0 0.0185761)
(0 0 0.0185028)
(0 0 0.0184266)
(0 0 0.0183476)
(0 0 0.0182657)
(0 0 0.018181)
(0 0 0.0180936)
(0 0 0.0180034)
(0 0 0.0179106)
(0 0 0.0178151)
(0 0 0.0177169)
(0 0 0.0176162)
(0 0 0.0175129)
(0 0 0.0174071)
(0 0 0.0172989)
(0 0 0.0171881)
(0 0 0.017075)
(0 0 0.0169594)
(0 0 0.0168416)
(0 0 0.0167214)
(0 0 0.0165989)
(0 0 0.0164742)
(0 0 0.0163474)
(0 0 0.0162183)
(0 0 0.0160871)
(0 0 0.0159538)
(0 0 0.0158185)
(0 0 0.0156811)
(0 0 0.0155418)
(0 0 0.0154005)
(0 0 0.0152573)
(0 0 0.0151122)
(0 0 0.0149652)
(0 0 0.0148165)
(0 0 0.014666)
(0 0 0.0145137)
(0 0 0.0143597)
(0 0 0.0142041)
(0 0 0.0140468)
(0 0 0.013888)
(0 0 0.0137275)
(0 0 0.0135656)
(0 0 0.0134021)
(0 0 0.0132372)
(0 0 0.0130708)
(0 0 0.0129031)
(0 0 0.012734)
(0 0 0.0125635)
(0 0 0.0123918)
(0 0 0.0122187)
(0 0 0.0120445)
(0 0 0.011869)
(0 0 0.0116924)
(0 0 0.0115147)
(0 0 0.0113358)
(0 0 0.0111558)