/*--------------------------------*- C++ -*----------------------------------*\
| =========                 |                                                 |
| \\      /  F ield         | OpenFOAM: The Open Source CFD Toolbox           |
|  \\    /   O peration     | Version:  v2012                                 |
|   \\  /    A nd           | Website:  www.openfoam.com                      |
|    \\/     M anipulation  |                                                 |
\*---------------------------------------------------------------------------*/
FoamFile
{
    version     2.0;
    format      ascii;
    class       volVectorField;
    location    "2.7";
    object      U;
}
// * * * * * * * * * * * * * * * * * * * * * * * * * * * * * * * * * * * * * //

dimensions      [0 1 -1 0 0 0 0];


internalField   nonuniform List<vector> 
65536
(
(0.000711702 -0.000711682 0)
(0.00213506 -0.000711637 0)
(0.00355829 -0.000711549 0)
(0.0049813 -0.000711419 0)
(0.006404 -0.000711244 0)
(0.00782631 -0.000711025 0)
(0.00924814 -0.000710761 0)
(0.0106694 -0.000710451 0)
(0.01209 -0.000710095 0)
(0.0135098 -0.000709692 0)
(0.0149288 -0.00070924 0)
(0.0163468 -0.000708739 0)
(0.0177638 -0.000708188 0)
(0.0191796 -0.000707584 0)
(0.0205942 -0.000706928 0)
(0.0220074 -0.000706218 0)
(0.0234191 -0.000705451 0)
(0.0248292 -0.000704626 0)
(0.0262377 -0.000703742 0)
(0.0276443 -0.000702797 0)
(0.0290489 -0.000701789 0)
(0.0304515 -0.000700716 0)
(0.0318518 -0.000699575 0)
(0.0332499 -0.000698365 0)
(0.0346454 -0.000697084 0)
(0.0360383 -0.000695729 0)
(0.0374284 -0.000694298 0)
(0.0388155 -0.000692788 0)
(0.0401996 -0.000691198 0)
(0.0415804 -0.000689524 0)
(0.0429578 -0.000687764 0)
(0.0443315 -0.000685916 0)
(0.0457015 -0.000683976 0)
(0.0470675 -0.000681943 0)
(0.0484294 -0.000679813 0)
(0.0497869 -0.000677584 0)
(0.0511398 -0.000675253 0)
(0.052488 -0.000672817 0)
(0.0538312 -0.000670274 0)
(0.0551692 -0.00066762 0)
(0.0565018 -0.000664854 0)
(0.0578287 -0.000661972 0)
(0.0591498 -0.000658972 0)
(0.0604647 -0.000655851 0)
(0.0617733 -0.000652606 0)
(0.0630753 -0.000649234 0)
(0.0643704 -0.000645735 0)
(0.0656583 -0.000642103 0)
(0.0669389 -0.000638338 0)
(0.0682118 -0.000634437 0)
(0.0694768 -0.000630398 0)
(0.0707336 -0.000626218 0)
(0.0719818 -0.000621895 0)
(0.0732213 -0.000617428 0)
(0.0744517 -0.000612814 0)
(0.0756727 -0.000608051 0)
(0.076884 -0.000603139 0)
(0.0780854 -0.000598074 0)
(0.0792765 -0.000592857 0)
(0.080457 -0.000587485 0)
(0.0816266 -0.000581957 0)
(0.082785 -0.000576273 0)
(0.0839318 -0.000570431 0)
(0.0850668 -0.000564431 0)
(0.0861897 -0.000558273 0)
(0.0873001 -0.000551955 0)
(0.0883977 -0.000545478 0)
(0.0894822 -0.000538842 0)
(0.0905532 -0.000532046 0)
(0.0916105 -0.000525092 0)
(0.0926537 -0.000517979 0)
(0.0936826 -0.000510709 0)
(0.0946967 -0.000503283 0)
(0.0956959 -0.000495701 0)
(0.0966797 -0.000487965 0)
(0.0976479 -0.000480076 0)
(0.0986001 -0.000472036 0)
(0.0995362 -0.000463847 0)
(0.100456 -0.000455511 0)
(0.101358 -0.00044703 0)
(0.102244 -0.000438407 0)
(0.103112 -0.000429644 0)
(0.103963 -0.000420745 0)
(0.104795 -0.000411711 0)
(0.10561 -0.000402547 0)
(0.106406 -0.000393255 0)
(0.107183 -0.000383839 0)
(0.107941 -0.000374304 0)
(0.10868 -0.000364651 0)
(0.1094 -0.000354886 0)
(0.1101 -0.000345013 0)
(0.11078 -0.000335036 0)
(0.11144 -0.000324958 0)
(0.11208 -0.000314785 0)
(0.112699 -0.000304521 0)
(0.113298 -0.000294171 0)
(0.113876 -0.000283739 0)
(0.114433 -0.00027323 0)
(0.114969 -0.000262649 0)
(0.115484 -0.000252 0)
(0.115977 -0.00024129 0)
(0.116449 -0.000230523 0)
(0.116899 -0.000219703 0)
(0.117328 -0.000208836 0)
(0.117735 -0.000197927 0)
(0.11812 -0.000186981 0)
(0.118483 -0.000176003 0)
(0.118824 -0.000164998 0)
(0.119143 -0.000153971 0)
(0.119439 -0.000142927 0)
(0.119714 -0.000131871 0)
(0.119967 -0.000120807 0)
(0.120198 -0.000109741 0)
(0.120406 -9.86763e-05 0)
(0.120592 -8.76189e-05 0)
(0.120756 -7.65728e-05 0)
(0.120899 -6.55425e-05 0)
(0.121019 -5.45325e-05 0)
(0.121117 -4.35469e-05 0)
(0.121193 -3.25901e-05 0)
(0.121247 -2.1666e-05 0)
(0.121279 -1.07786e-05 0)
(0.12129 6.81881e-08 0)
(0.121279 1.08706e-05 0)
(0.121247 2.16251e-05 0)
(0.121193 3.23281e-05 0)
(0.121117 4.29762e-05 0)
(0.121021 5.35663e-05 0)
(0.120903 6.4095e-05 0)
(0.120764 7.45595e-05 0)
(0.120605 8.49567e-05 0)
(0.120424 9.5284e-05 0)
(0.120223 0.000105539 0)
(0.120002 0.000115718 0)
(0.11976 0.00012582 0)
(0.119499 0.000135842 0)
(0.119217 0.000145782 0)
(0.118915 0.000155638 0)
(0.118594 0.000165407 0)
(0.118254 0.000175089 0)
(0.117894 0.00018468 0)
(0.117515 0.00019418 0)
(0.117117 0.000203587 0)
(0.1167 0.0002129 0)
(0.116265 0.000222116 0)
(0.115812 0.000231235 0)
(0.11534 0.000240256 0)
(0.114851 0.000249176 0)
(0.114344 0.000257996 0)
(0.113819 0.000266715 0)
(0.113277 0.00027533 0)
(0.112717 0.000283842 0)
(0.112141 0.000292249 0)
(0.111548 0.000300551 0)
(0.110939 0.000308748 0)
(0.110313 0.000316837 0)
(0.109671 0.00032482 0)
(0.109014 0.000332695 0)
(0.10834 0.000340461 0)
(0.107652 0.00034812 0)
(0.106948 0.000355669 0)
(0.106229 0.000363108 0)
(0.105495 0.000370438 0)
(0.104747 0.000377658 0)
(0.103985 0.000384768 0)
(0.103208 0.000391767 0)
(0.102417 0.000398655 0)
(0.101613 0.000405433 0)
(0.100796 0.0004121 0)
(0.0999647 0.000418657 0)
(0.0991208 0.000425102 0)
(0.0982642 0.000431436 0)
(0.097395 0.00043766 0)
(0.0965134 0.000443773 0)
(0.0956198 0.000449775 0)
(0.0947142 0.000455667 0)
(0.093797 0.000461448 0)
(0.0928683 0.00046712 0)
(0.0919284 0.000472681 0)
(0.0909775 0.000478134 0)
(0.0900158 0.000483477 0)
(0.0890435 0.000488711 0)
(0.0880608 0.000493838 0)
(0.087068 0.000498856 0)
(0.0860653 0.000503767 0)
(0.0850528 0.000508572 0)
(0.0840309 0.00051327 0)
(0.0829997 0.000517863 0)
(0.0819593 0.00052235 0)
(0.0809102 0.000526734 0)
(0.0798523 0.000531014 0)
(0.078786 0.000535192 0)
(0.0777114 0.000539268 0)
(0.0766288 0.000543242 0)
(0.0755384 0.000547117 0)
(0.0744403 0.000550893 0)
(0.0733347 0.00055457 0)
(0.0722219 0.000558151 0)
(0.071102 0.000561635 0)
(0.0699752 0.000565024 0)
(0.0688418 0.000568319 0)
(0.0677019 0.000571522 0)
(0.0665556 0.000574633 0)
(0.0654033 0.000577654 0)
(0.0642449 0.000580585 0)
(0.0630808 0.000583429 0)
(0.0619111 0.000586186 0)
(0.060736 0.000588858 0)
(0.0595556 0.000591446 0)
(0.0583701 0.000593951 0)
(0.0571797 0.000596375 0)
(0.0559845 0.000598719 0)
(0.0547848 0.000600984 0)
(0.0535805 0.000603173 0)
(0.052372 0.000605285 0)
(0.0511593 0.000607324 0)
(0.0499426 0.000609289 0)
(0.0487221 0.000611183 0)
(0.0474978 0.000613008 0)
(0.04627 0.000614763 0)
(0.0450387 0.000616451 0)
(0.0438041 0.000618074 0)
(0.0425663 0.000619632 0)
(0.0413255 0.000621127 0)
(0.0400818 0.00062256 0)
(0.0388352 0.000623933 0)
(0.037586 0.000625247 0)
(0.0363342 0.000626504 0)
(0.0350799 0.000627704 0)
(0.0338233 0.000628849 0)
(0.0325645 0.00062994 0)
(0.0313035 0.000630978 0)
(0.0300405 0.000631965 0)
(0.0287756 0.000632901 0)
(0.0275088 0.000633789 0)
(0.0262404 0.000634628 0)
(0.0249703 0.00063542 0)
(0.0236986 0.000636166 0)
(0.0224256 0.000636867 0)
(0.0211511 0.000637524 0)
(0.0198754 0.000638137 0)
(0.0185985 0.000638708 0)
(0.0173205 0.000639237 0)
(0.0160415 0.000639725 0)
(0.0147616 0.000640173 0)
(0.0134808 0.000640582 0)
(0.0121992 0.000640951 0)
(0.010917 0.000641282 0)
(0.00963406 0.000641574 0)
(0.00835062 0.000641829 0)
(0.00706671 0.000642047 0)
(0.00578239 0.000642229 0)
(0.00449775 0.000642374 0)
(0.00321286 0.000642481 0)
(0.00192779 0.000642553 0)
(0.000642607 0.000642589 0)
(0.000711742 -0.00213508 0)
(0.00213518 -0.00213495 0)
(0.0035585 -0.00213469 0)
(0.00498159 -0.0021343 0)
(0.00640438 -0.00213377 0)
(0.00782678 -0.00213312 0)
(0.0092487 -0.00213232 0)
(0.01067 -0.0021314 0)
(0.0120907 -0.00213033 0)
(0.0135107 -0.00212912 0)
(0.0149297 -0.00212777 0)
(0.0163479 -0.00212626 0)
(0.0177649 -0.00212461 0)
(0.0191809 -0.0021228 0)
(0.0205955 -0.00212084 0)
(0.0220088 -0.0021187 0)
(0.0234207 -0.00211641 0)
(0.0248309 -0.00211393 0)
(0.0262395 -0.00211128 0)
(0.0276462 -0.00210845 0)
(0.029051 -0.00210543 0)
(0.0304537 -0.00210221 0)
(0.0318542 -0.00209879 0)
(0.0332523 -0.00209516 0)
(0.034648 -0.00209132 0)
(0.036041 -0.00208726 0)
(0.0374313 -0.00208297 0)
(0.0388186 -0.00207844 0)
(0.0402028 -0.00207367 0)
(0.0415838 -0.00206865 0)
(0.0429613 -0.00206338 0)
(0.0443353 -0.00205784 0)
(0.0457054 -0.00205202 0)
(0.0470716 -0.00204592 0)
(0.0484337 -0.00203953 0)
(0.0497914 -0.00203285 0)
(0.0511445 -0.00202586 0)
(0.0524929 -0.00201856 0)
(0.0538363 -0.00201093 0)
(0.0551745 -0.00200297 0)
(0.0565074 -0.00199467 0)
(0.0578345 -0.00198603 0)
(0.0591558 -0.00197703 0)
(0.060471 -0.00196767 0)
(0.0617799 -0.00195794 0)
(0.0630821 -0.00194783 0)
(0.0643774 -0.00193733 0)
(0.0656657 -0.00192644 0)
(0.0669465 -0.00191515 0)
(0.0682197 -0.00190345 0)
(0.0694849 -0.00189133 0)
(0.070742 -0.00187879 0)
(0.0719905 -0.00186583 0)
(0.0732303 -0.00185243 0)
(0.074461 -0.00183859 0)
(0.0756823 -0.0018243 0)
(0.0768939 -0.00180957 0)
(0.0780956 -0.00179438 0)
(0.079287 -0.00177872 0)
(0.0804678 -0.00176261 0)
(0.0816377 -0.00174603 0)
(0.0827964 -0.00172898 0)
(0.0839436 -0.00171145 0)
(0.0850789 -0.00169345 0)
(0.0862021 -0.00167498 0)
(0.0873128 -0.00165602 0)
(0.0884107 -0.00163659 0)
(0.0894955 -0.00161668 0)
(0.0905669 -0.0015963 0)
(0.0916245 -0.00157543 0)
(0.092668 -0.0015541 0)
(0.0936972 -0.00153228 0)
(0.0947116 -0.00151 0)
(0.0957111 -0.00148726 0)
(0.0966952 -0.00146405 0)
(0.0976637 -0.00144038 0)
(0.0986163 -0.00141626 0)
(0.0995526 -0.00139169 0)
(0.100472 -0.00136668 0)
(0.101375 -0.00134123 0)
(0.102261 -0.00131536 0)
(0.10313 -0.00128907 0)
(0.103981 -0.00126237 0)
(0.104813 -0.00123526 0)
(0.105628 -0.00120777 0)
(0.106424 -0.00117989 0)
(0.107202 -0.00115164 0)
(0.10796 -0.00112303 0)
(0.108699 -0.00109407 0)
(0.109419 -0.00106477 0)
(0.11012 -0.00103515 0)
(0.1108 -0.00100521 0)
(0.11146 -0.000974972 0)
(0.1121 -0.000944448 0)
(0.11272 -0.000913651 0)
(0.113319 -0.000882596 0)
(0.113897 -0.000851295 0)
(0.114454 -0.000819763 0)
(0.11499 -0.000788015 0)
(0.115505 -0.000756066 0)
(0.115998 -0.00072393 0)
(0.11647 -0.000691623 0)
(0.116921 -0.000659159 0)
(0.11735 -0.000626554 0)
(0.117756 -0.000593822 0)
(0.118141 -0.000560979 0)
(0.118504 -0.00052804 0)
(0.118846 -0.00049502 0)
(0.119165 -0.000461934 0)
(0.119462 -0.000428797 0)
(0.119736 -0.000395623 0)
(0.119989 -0.000362426 0)
(0.12022 -0.000329223 0)
(0.120428 -0.000296025 0)
(0.120614 -0.000262849 0)
(0.120778 -0.000229706 0)
(0.120921 -0.000196611 0)
(0.121041 -0.000163576 0)
(0.121139 -0.000130616 0)
(0.121215 -9.7741e-05 0)
(0.121269 -6.49648e-05 0)
(0.121301 -3.22989e-05 0)
(0.121312 2.45174e-07 0)
(0.121301 3.26561e-05 0)
(0.121268 6.4923e-05 0)
(0.121214 9.70353e-05 0)
(0.121138 0.000128983 0)
(0.121042 0.000160756 0)
(0.120924 0.000192345 0)
(0.120785 0.000223742 0)
(0.120625 0.000254936 0)
(0.120445 0.000285921 0)
(0.120244 0.000316687 0)
(0.120022 0.000347228 0)
(0.11978 0.000377536 0)
(0.119519 0.000407604 0)
(0.119237 0.000437426 0)
(0.118935 0.000466995 0)
(0.118614 0.000496306 0)
(0.118273 0.000525352 0)
(0.117913 0.000554128 0)
(0.117534 0.00058263 0)
(0.117136 0.000610853 0)
(0.116719 0.000638791 0)
(0.116284 0.000666442 0)
(0.11583 0.0006938 0)
(0.115358 0.000720863 0)
(0.114869 0.000747626 0)
(0.114361 0.000774088 0)
(0.113836 0.000800243 0)
(0.113294 0.00082609 0)
(0.112734 0.000851627 0)
(0.112158 0.00087685 0)
(0.111565 0.000901757 0)
(0.110955 0.000926346 0)
(0.110329 0.000950616 0)
(0.109687 0.000974564 0)
(0.109029 0.000998189 0)
(0.108356 0.00102149 0)
(0.107667 0.00104446 0)
(0.106963 0.00106711 0)
(0.106244 0.00108943 0)
(0.10551 0.00111142 0)
(0.104761 0.00113308 0)
(0.103999 0.00115441 0)
(0.103222 0.00117541 0)
(0.102431 0.00119607 0)
(0.101627 0.00121641 0)
(0.100809 0.00123641 0)
(0.0999777 0.00125608 0)
(0.0991336 0.00127541 0)
(0.0982768 0.00129442 0)
(0.0974073 0.00131309 0)
(0.0965256 0.00133143 0)
(0.0956317 0.00134943 0)
(0.0947259 0.00136711 0)
(0.0938085 0.00138445 0)
(0.0928796 0.00140147 0)
(0.0919395 0.00141815 0)
(0.0909883 0.00143451 0)
(0.0900264 0.00145054 0)
(0.0890539 0.00146624 0)
(0.088071 0.00148162 0)
(0.087078 0.00149667 0)
(0.086075 0.00151141 0)
(0.0850624 0.00152582 0)
(0.0840402 0.00153991 0)
(0.0830088 0.00155369 0)
(0.0819683 0.00156715 0)
(0.0809189 0.0015803 0)
(0.0798608 0.00159314 0)
(0.0787943 0.00160568 0)
(0.0777195 0.0016179 0)
(0.0766367 0.00162983 0)
(0.0755461 0.00164145 0)
(0.0744478 0.00165278 0)
(0.073342 0.00166381 0)
(0.072229 0.00167455 0)
(0.0711089 0.001685 0)
(0.069982 0.00169517 0)
(0.0688484 0.00170505 0)
(0.0677082 0.00171466 0)
(0.0665618 0.00172399 0)
(0.0654093 0.00173305 0)
(0.0642507 0.00174184 0)
(0.0630865 0.00175037 0)
(0.0619166 0.00175864 0)
(0.0607413 0.00176666 0)
(0.0595607 0.00177442 0)
(0.0583751 0.00178193 0)
(0.0571845 0.0017892 0)
(0.0559892 0.00179624 0)
(0.0547893 0.00180303 0)
(0.0535849 0.00180959 0)
(0.0523762 0.00181593 0)
(0.0511634 0.00182205 0)
(0.0499465 0.00182794 0)
(0.0487258 0.00183362 0)
(0.0475014 0.00183909 0)
(0.0462735 0.00184436 0)
(0.0450421 0.00184942 0)
(0.0438073 0.00185429 0)
(0.0425694 0.00185896 0)
(0.0413285 0.00186344 0)
(0.0400846 0.00186774 0)
(0.0388379 0.00187186 0)
(0.0375886 0.0018758 0)
(0.0363367 0.00187957 0)
(0.0350823 0.00188317 0)
(0.0338256 0.0018866 0)
(0.0325666 0.00188987 0)
(0.0313055 0.00189299 0)
(0.0300424 0.00189595 0)
(0.0287774 0.00189876 0)
(0.0275106 0.00190142 0)
(0.026242 0.00190393 0)
(0.0249718 0.00190631 0)
(0.0237001 0.00190855 0)
(0.0224269 0.00191065 0)
(0.0211524 0.00191262 0)
(0.0198766 0.00191446 0)
(0.0185996 0.00191617 0)
(0.0173216 0.00191776 0)
(0.0160425 0.00191922 0)
(0.0147625 0.00192056 0)
(0.0134816 0.00192179 0)
(0.0121999 0.00192289 0)
(0.0109176 0.00192389 0)
(0.00963462 0.00192476 0)
(0.0083511 0.00192553 0)
(0.00706711 0.00192618 0)
(0.00578272 0.00192673 0)
(0.00449801 0.00192716 0)
(0.00321304 0.00192748 0)
(0.0019279 0.0019277 0)
(0.000642644 0.0019278 0)
(0.00071183 -0.00355861 0)
(0.00213545 -0.00355839 0)
(0.00355893 -0.00355796 0)
(0.00498221 -0.00355731 0)
(0.00640518 -0.00355644 0)
(0.00782775 -0.00355534 0)
(0.00924985 -0.00355403 0)
(0.0106714 -0.00355248 0)
(0.0120923 -0.0035507 0)
(0.0135124 -0.00354869 0)
(0.0149316 -0.00354644 0)
(0.01635 -0.00354394 0)
(0.0177672 -0.00354119 0)
(0.0191834 -0.00353818 0)
(0.0205983 -0.00353491 0)
(0.0220118 -0.00353136 0)
(0.0234239 -0.00352753 0)
(0.0248343 -0.00352342 0)
(0.0262431 -0.00351901 0)
(0.0276501 -0.00351429 0)
(0.0290551 -0.00350926 0)
(0.0304581 -0.00350391 0)
(0.0318589 -0.00349821 0)
(0.0332573 -0.00349218 0)
(0.0346532 -0.00348578 0)
(0.0360466 -0.00347902 0)
(0.0374371 -0.00347188 0)
(0.0388248 -0.00346434 0)
(0.0402093 -0.0034564 0)
(0.0415907 -0.00344804 0)
(0.0429686 -0.00343926 0)
(0.0443429 -0.00343003 0)
(0.0457134 -0.00342034 0)
(0.04708 -0.00341019 0)
(0.0484424 -0.00339956 0)
(0.0498005 -0.00338842 0)
(0.0511541 -0.00337678 0)
(0.0525029 -0.00336462 0)
(0.0538467 -0.00335191 0)
(0.0551854 -0.00333866 0)
(0.0565187 -0.00332484 0)
(0.0578463 -0.00331045 0)
(0.0591681 -0.00329546 0)
(0.0604838 -0.00327987 0)
(0.0617931 -0.00326365 0)
(0.0630958 -0.00324681 0)
(0.0643917 -0.00322932 0)
(0.0656805 -0.00321118 0)
(0.0669619 -0.00319237 0)
(0.0682356 -0.00317288 0)
(0.0695014 -0.00315269 0)
(0.070759 -0.0031318 0)
(0.0720081 -0.0031102 0)
(0.0732485 -0.00308787 0)
(0.0744798 -0.00306481 0)
(0.0757017 -0.00304101 0)
(0.0769139 -0.00301645 0)
(0.0781162 -0.00299114 0)
(0.0793082 -0.00296505 0)
(0.0804896 -0.0029382 0)
(0.0816602 -0.00291057 0)
(0.0828195 -0.00288215 0)
(0.0839673 -0.00285295 0)
(0.0851033 -0.00282295 0)
(0.0862271 -0.00279216 0)
(0.0873384 -0.00276057 0)
(0.088437 -0.00272818 0)
(0.0895224 -0.002695 0)
(0.0905944 -0.00266102 0)
(0.0916527 -0.00262625 0)
(0.0926968 -0.00259068 0)
(0.0937266 -0.00255433 0)
(0.0947417 -0.00251719 0)
(0.0957418 -0.00247928 0)
(0.0967265 -0.00244059 0)
(0.0976956 -0.00240113 0)
(0.0986488 -0.00236093 0)
(0.0995857 -0.00231997 0)
(0.100506 -0.00227828 0)
(0.10141 -0.00223586 0)
(0.102296 -0.00219274 0)
(0.103165 -0.00214891 0)
(0.104016 -0.00210439 0)
(0.10485 -0.00205921 0)
(0.105665 -0.00201337 0)
(0.106462 -0.0019669 0)
(0.10724 -0.0019198 0)
(0.107999 -0.0018721 0)
(0.108738 -0.00182382 0)
(0.109459 -0.00177498 0)
(0.110159 -0.00172559 0)
(0.11084 -0.00167568 0)
(0.111501 -0.00162527 0)
(0.112141 -0.00157438 0)
(0.112761 -0.00152304 0)
(0.11336 -0.00147127 0)
(0.113939 -0.00141908 0)
(0.114496 -0.00136651 0)
(0.115033 -0.00131358 0)
(0.115548 -0.00126032 0)
(0.116041 -0.00120674 0)
(0.116514 -0.00115288 0)
(0.116964 -0.00109876 0)
(0.117393 -0.0010444 0)
(0.1178 -0.000989828 0)
(0.118185 -0.000935073 0)
(0.118549 -0.000880158 0)
(0.11889 -0.000825108 0)
(0.119209 -0.000769948 0)
(0.119506 -0.000714702 0)
(0.119781 -0.000659396 0)
(0.120033 -0.000604053 0)
(0.120264 -0.000548698 0)
(0.120472 -0.000493354 0)
(0.120659 -0.000438044 0)
(0.120823 -0.000382791 0)
(0.120965 -0.000327618 0)
(0.121085 -0.000272547 0)
(0.121182 -0.000217598 0)
(0.121258 -0.000162793 0)
(0.121312 -0.000108153 0)
(0.121345 -5.36968e-05 0)
(0.121355 5.55683e-07 0)
(0.121344 5.45859e-05 0)
(0.121311 0.000108376 0)
(0.121257 0.000161908 0)
(0.121181 0.000215165 0)
(0.121084 0.00026813 0)
(0.120966 0.000320789 0)
(0.120827 0.000373126 0)
(0.120667 0.000425126 0)
(0.120486 0.000476776 0)
(0.120285 0.000528062 0)
(0.120063 0.000578972 0)
(0.119821 0.000629493 0)
(0.119559 0.000679614 0)
(0.119276 0.000729324 0)
(0.118974 0.000778612 0)
(0.118653 0.000827469 0)
(0.118312 0.000875885 0)
(0.117951 0.000923851 0)
(0.117572 0.00097136 0)
(0.117173 0.0010184 0)
(0.116756 0.00106497 0)
(0.11632 0.00111106 0)
(0.115866 0.00115666 0)
(0.115394 0.00120177 0)
(0.114904 0.00124638 0)
(0.114396 0.00129048 0)
(0.113871 0.00133408 0)
(0.113328 0.00137716 0)
(0.112768 0.00141973 0)
(0.112191 0.00146177 0)
(0.111598 0.00150328 0)
(0.110988 0.00154426 0)
(0.110361 0.00158472 0)
(0.109719 0.00162463 0)
(0.109061 0.00166401 0)
(0.108387 0.00170284 0)
(0.107697 0.00174114 0)
(0.106993 0.00177888 0)
(0.106273 0.00181608 0)
(0.105539 0.00185273 0)
(0.10479 0.00188884 0)
(0.104027 0.00192439 0)
(0.10325 0.00195938 0)
(0.102458 0.00199383 0)
(0.101654 0.00202772 0)
(0.100835 0.00206105 0)
(0.100004 0.00209383 0)
(0.0991592 0.00212606 0)
(0.0983019 0.00215773 0)
(0.097432 0.00218885 0)
(0.0965498 0.00221941 0)
(0.0956555 0.00224942 0)
(0.0947493 0.00227888 0)
(0.0938314 0.00230779 0)
(0.0929021 0.00233614 0)
(0.0919615 0.00236395 0)
(0.0910099 0.00239121 0)
(0.0900475 0.00241793 0)
(0.0890746 0.0024441 0)
(0.0880913 0.00246972 0)
(0.0870978 0.00249481 0)
(0.0860945 0.00251937 0)
(0.0850814 0.00254339 0)
(0.0840588 0.00256688 0)
(0.0830269 0.00258984 0)
(0.081986 0.00261227 0)
(0.0809362 0.00263419 0)
(0.0798777 0.00265558 0)
(0.0788108 0.00267647 0)
(0.0777356 0.00269684 0)
(0.0766524 0.00271671 0)
(0.0755613 0.00273608 0)
(0.0744626 0.00275495 0)
(0.0733565 0.00277334 0)
(0.0722431 0.00279123 0)
(0.0711226 0.00280865 0)
(0.0699953 0.00282559 0)
(0.0688613 0.00284206 0)
(0.0677208 0.00285807 0)
(0.066574 0.00287362 0)
(0.0654211 0.00288872 0)
(0.0642623 0.00290337 0)
(0.0630976 0.00291758 0)
(0.0619274 0.00293136 0)
(0.0607518 0.00294471 0)
(0.0595709 0.00295764 0)
(0.0583849 0.00297016 0)
(0.057194 0.00298227 0)
(0.0559984 0.00299399 0)
(0.0547982 0.00300531 0)
(0.0535935 0.00301624 0)
(0.0523845 0.0030268 0)
(0.0511713 0.00303699 0)
(0.0499542 0.00304681 0)
(0.0487333 0.00305627 0)
(0.0475086 0.00306538 0)
(0.0462803 0.00307415 0)
(0.0450487 0.00308259 0)
(0.0438137 0.00309069 0)
(0.0425755 0.00309848 0)
(0.0413343 0.00310595 0)
(0.0400902 0.00311311 0)
(0.0388433 0.00311996 0)
(0.0375937 0.00312653 0)
(0.0363416 0.0031328 0)
(0.035087 0.0031388 0)
(0.03383 0.00314452 0)
(0.0325709 0.00314997 0)
(0.0313096 0.00315515 0)
(0.0300463 0.00316008 0)
(0.0287811 0.00316476 0)
(0.027514 0.00316919 0)
(0.0262453 0.00317338 0)
(0.0249749 0.00317734 0)
(0.023703 0.00318106 0)
(0.0224296 0.00318456 0)
(0.0211549 0.00318784 0)
(0.019879 0.0031909 0)
(0.0186018 0.00319375 0)
(0.0173236 0.0031964 0)
(0.0160444 0.00319883 0)
(0.0147642 0.00320107 0)
(0.0134831 0.00320311 0)
(0.0122013 0.00320495 0)
(0.0109188 0.0032066 0)
(0.00963571 0.00320806 0)
(0.00835204 0.00320934 0)
(0.00706791 0.00321043 0)
(0.00578337 0.00321133 0)
(0.00449851 0.00321205 0)
(0.0032134 0.00321259 0)
(0.00192811 0.00321295 0)
(0.000642715 0.00321313 0)
(0.000711961 -0.00498236 0)
(0.00213584 -0.00498205 0)
(0.00355959 -0.00498145 0)
(0.00498312 -0.00498054 0)
(0.00640636 -0.00497932 0)
(0.00782921 -0.0049778 0)
(0.00925158 -0.00497596 0)
(0.0106734 -0.0049738 0)
(0.0120945 -0.00497132 0)
(0.0135149 -0.00496851 0)
(0.0149345 -0.00496536 0)
(0.0163531 -0.00496187 0)
(0.0177707 -0.00495803 0)
(0.0191872 -0.00495382 0)
(0.0206024 -0.00494925 0)
(0.0220162 -0.0049443 0)
(0.0234286 -0.00493895 0)
(0.0248395 -0.00493321 0)
(0.0262486 -0.00492704 0)
(0.027656 -0.00492045 0)
(0.0290614 -0.00491342 0)
(0.0304648 -0.00490594 0)
(0.0318659 -0.00489799 0)
(0.0332648 -0.00488955 0)
(0.0346612 -0.00488061 0)
(0.036055 -0.00487116 0)
(0.037446 -0.00486118 0)
(0.0388341 -0.00485064 0)
(0.0402192 -0.00483954 0)
(0.041601 -0.00482786 0)
(0.0429794 -0.00481558 0)
(0.0443542 -0.00480268 0)
(0.0457253 -0.00478914 0)
(0.0470925 -0.00477494 0)
(0.0484555 -0.00476007 0)
(0.0498142 -0.00474451 0)
(0.0511684 -0.00472823 0)
(0.0525178 -0.00471122 0)
(0.0538624 -0.00469345 0)
(0.0552017 -0.00467492 0)
(0.0565357 -0.00465559 0)
(0.057864 -0.00463545 0)
(0.0591865 -0.00461449 0)
(0.0605029 -0.00459268 0)
(0.061813 -0.00457 0)
(0.0631165 -0.00454644 0)
(0.0644131 -0.00452197 0)
(0.0657027 -0.00449659 0)
(0.0669849 -0.00447027 0)
(0.0682595 -0.00444299 0)
(0.0695261 -0.00441475 0)
(0.0707846 -0.00438552 0)
(0.0720346 -0.00435529 0)
(0.0732758 -0.00432405 0)
(0.0745079 -0.00429177 0)
(0.0757307 -0.00425846 0)
(0.0769439 -0.00422409 0)
(0.0781471 -0.00418866 0)
(0.07934 -0.00415216 0)
(0.0805224 -0.00411457 0)
(0.0816939 -0.00407589 0)
(0.0828541 -0.00403611 0)
(0.0840029 -0.00399523 0)
(0.0851398 -0.00395324 0)
(0.0862646 -0.00391014 0)
(0.0873769 -0.00386591 0)
(0.0884764 -0.00382058 0)
(0.0895628 -0.00377412 0)
(0.0906357 -0.00372655 0)
(0.0916949 -0.00367786 0)
(0.0927401 -0.00362806 0)
(0.0937708 -0.00357716 0)
(0.0947868 -0.00352516 0)
(0.0957878 -0.00347207 0)
(0.0967735 -0.00341789 0)
(0.0977435 -0.00336265 0)
(0.0986976 -0.00330634 0)
(0.0996354 -0.00324899 0)
(0.100557 -0.00319061 0)
(0.101461 -0.00313121 0)
(0.102348 -0.00307081 0)
(0.103218 -0.00300943 0)
(0.10407 -0.00294709 0)
(0.104905 -0.00288381 0)
(0.10572 -0.00281961 0)
(0.106518 -0.00275452 0)
(0.107297 -0.00268856 0)
(0.108056 -0.00262176 0)
(0.108797 -0.00255414 0)
(0.109518 -0.00248573 0)
(0.110219 -0.00241656 0)
(0.1109 -0.00234665 0)
(0.111562 -0.00227605 0)
(0.112203 -0.00220477 0)
(0.112823 -0.00213286 0)
(0.113423 -0.00206034 0)
(0.114002 -0.00198725 0)
(0.11456 -0.00191362 0)
(0.115096 -0.00183949 0)
(0.115612 -0.00176488 0)
(0.116106 -0.00168984 0)
(0.116579 -0.0016144 0)
(0.117029 -0.00153859 0)
(0.117459 -0.00146245 0)
(0.117866 -0.00138602 0)
(0.118251 -0.00130933 0)
(0.118615 -0.00123241 0)
(0.118956 -0.0011553 0)
(0.119275 -0.00107805 0)
(0.119572 -0.00100067 0)
(0.119847 -0.000923205 0)
(0.1201 -0.000845692 0)
(0.12033 -0.000768161 0)
(0.120539 -0.000690647 0)
(0.120725 -0.000613181 0)
(0.120889 -0.000535796 0)
(0.121031 -0.000458523 0)
(0.121151 -0.000381393 0)
(0.121248 -0.000304435 0)
(0.121324 -0.00022768 0)
(0.121378 -0.000151156 0)
(0.12141 -7.48902e-05 0)
(0.12142 1.08955e-06 0)
(0.121408 7.67573e-05 0)
(0.121375 0.000152088 0)
(0.121321 0.000227056 0)
(0.121245 0.000301639 0)
(0.121147 0.000375813 0)
(0.121029 0.000449556 0)
(0.120889 0.000522848 0)
(0.120729 0.000595668 0)
(0.120548 0.000667996 0)
(0.120346 0.000739814 0)
(0.120124 0.000811105 0)
(0.119881 0.000881851 0)
(0.119618 0.000952035 0)
(0.119336 0.00102164 0)
(0.119033 0.00109066 0)
(0.118711 0.00115907 0)
(0.118369 0.00122687 0)
(0.118008 0.00129403 0)
(0.117628 0.00136056 0)
(0.117229 0.00142643 0)
(0.116812 0.00149163 0)
(0.116375 0.00155617 0)
(0.115921 0.00162002 0)
(0.115448 0.00168318 0)
(0.114957 0.00174564 0)
(0.114449 0.00180739 0)
(0.113923 0.00186843 0)
(0.113379 0.00192875 0)
(0.112819 0.00198835 0)
(0.112241 0.00204721 0)
(0.111647 0.00210533 0)
(0.111037 0.00216272 0)
(0.11041 0.00221935 0)
(0.109766 0.00227524 0)
(0.109108 0.00233037 0)
(0.108433 0.00238474 0)
(0.107743 0.00243836 0)
(0.107038 0.0024912 0)
(0.106318 0.00254329 0)
(0.105583 0.0025946 0)
(0.104833 0.00264514 0)
(0.104069 0.00269491 0)
(0.103291 0.00274391 0)
(0.102499 0.00279213 0)
(0.101694 0.00283958 0)
(0.100875 0.00288625 0)
(0.100043 0.00293214 0)
(0.0991975 0.00297726 0)
(0.0983395 0.0030216 0)
(0.097469 0.00306516 0)
(0.0965861 0.00310795 0)
(0.0956911 0.00314997 0)
(0.0947843 0.00319121 0)
(0.0938657 0.00323167 0)
(0.0929357 0.00327137 0)
(0.0919945 0.0033103 0)
(0.0910423 0.00334846 0)
(0.0900792 0.00338586 0)
(0.0891056 0.00342249 0)
(0.0881217 0.00345837 0)
(0.0871276 0.00349349 0)
(0.0861236 0.00352786 0)
(0.0851099 0.00356149 0)
(0.0840866 0.00359436 0)
(0.0830541 0.0036265 0)
(0.0820126 0.00365791 0)
(0.0809621 0.00368858 0)
(0.079903 0.00371854 0)
(0.0788355 0.00374777 0)
(0.0777597 0.00377629 0)
(0.0766759 0.0038041 0)
(0.0755843 0.00383121 0)
(0.074485 0.00385762 0)
(0.0733782 0.00388335 0)
(0.0722643 0.0039084 0)
(0.0711432 0.00393277 0)
(0.0700153 0.00395648 0)
(0.0688808 0.00397953 0)
(0.0677397 0.00400194 0)
(0.0665924 0.0040237 0)
(0.065439 0.00404483 0)
(0.0642796 0.00406533 0)
(0.0631144 0.00408522 0)
(0.0619437 0.0041045 0)
(0.0607675 0.00412318 0)
(0.0595861 0.00414128 0)
(0.0583997 0.0041588 0)
(0.0572083 0.00417574 0)
(0.0560122 0.00419213 0)
(0.0548115 0.00420797 0)
(0.0536063 0.00422327 0)
(0.0523969 0.00423804 0)
(0.0511833 0.00425229 0)
(0.0499658 0.00426603 0)
(0.0487444 0.00427927 0)
(0.0475193 0.00429202 0)
(0.0462906 0.00430429 0)
(0.0450586 0.00431608 0)
(0.0438232 0.00432742 0)
(0.0425846 0.00433831 0)
(0.0413431 0.00434876 0)
(0.0400986 0.00435877 0)
(0.0388513 0.00436836 0)
(0.0376014 0.00437754 0)
(0.0363489 0.00438632 0)
(0.035094 0.0043947 0)
(0.0338367 0.0044027 0)
(0.0325772 0.00441032 0)
(0.0313156 0.00441757 0)
(0.030052 0.00442446 0)
(0.0287865 0.004431 0)
(0.0275192 0.0044372 0)
(0.0262501 0.00444306 0)
(0.0249795 0.00444859 0)
(0.0237073 0.0044538 0)
(0.0224337 0.00445869 0)
(0.0211587 0.00446328 0)
(0.0198825 0.00446756 0)
(0.0186051 0.00447155 0)
(0.0173266 0.00447524 0)
(0.0160471 0.00447865 0)
(0.0147667 0.00448177 0)
(0.0134855 0.00448462 0)
(0.0122034 0.0044872 0)
(0.0109207 0.00448951 0)
(0.00963735 0.00449155 0)
(0.00835346 0.00449333 0)
(0.0070691 0.00449486 0)
(0.00578434 0.00449612 0)
(0.00449927 0.00449713 0)
(0.00321394 0.00449788 0)
(0.00192843 0.00449838 0)
(0.000642823 0.00449863 0)
(0.000712134 -0.00640641 0)
(0.00213636 -0.00640602 0)
(0.00356046 -0.00640524 0)
(0.00498434 -0.00640408 0)
(0.00640793 -0.00640252 0)
(0.00783114 -0.00640056 0)
(0.00925387 -0.00639821 0)
(0.010676 -0.00639544 0)
(0.0120976 -0.00639226 0)
(0.0135184 -0.00638866 0)
(0.0149383 -0.00638462 0)
(0.0163573 -0.00638015 0)
(0.0177753 -0.00637523 0)
(0.0191922 -0.00636984 0)
(0.0206078 -0.00636398 0)
(0.0220221 -0.00635763 0)
(0.023435 -0.00635077 0)
(0.0248463 -0.00634341 0)
(0.0262559 -0.00633551 0)
(0.0276638 -0.00632706 0)
(0.0290697 -0.00631804 0)
(0.0304736 -0.00630844 0)
(0.0318753 -0.00629824 0)
(0.0332747 -0.00628742 0)
(0.0346717 -0.00627596 0)
(0.0360661 -0.00626383 0)
(0.0374577 -0.00625102 0)
(0.0388465 -0.00623751 0)
(0.0402322 -0.00622327 0)
(0.0416147 -0.00620829 0)
(0.0429938 -0.00619252 0)
(0.0443694 -0.00617597 0)
(0.0457412 -0.00615859 0)
(0.0471091 -0.00614037 0)
(0.0484729 -0.00612128 0)
(0.0498324 -0.0061013 0)
(0.0511875 -0.00608041 0)
(0.0525378 -0.00605857 0)
(0.0538831 -0.00603576 0)
(0.0552234 -0.00601196 0)
(0.0565582 -0.00598715 0)
(0.0578875 -0.00596129 0)
(0.059211 -0.00593437 0)
(0.0605284 -0.00590636 0)
(0.0618395 -0.00587723 0)
(0.063144 -0.00584697 0)
(0.0644417 -0.00581554 0)
(0.0657323 -0.00578294 0)
(0.0670156 -0.00574912 0)
(0.0682912 -0.00571408 0)
(0.069559 -0.0056778 0)
(0.0708186 -0.00564024 0)
(0.0720697 -0.0056014 0)
(0.0733121 -0.00556125 0)
(0.0745455 -0.00551978 0)
(0.0757695 -0.00547697 0)
(0.0769838 -0.0054328 0)
(0.0781883 -0.00538726 0)
(0.0793824 -0.00534035 0)
(0.080566 -0.00529203 0)
(0.0817388 -0.00524232 0)
(0.0829003 -0.00519118 0)
(0.0840503 -0.00513863 0)
(0.0851885 -0.00508465 0)
(0.0863146 -0.00502923 0)
(0.0874281 -0.00497238 0)
(0.0885289 -0.00491408 0)
(0.0896166 -0.00485435 0)
(0.0906908 -0.00479318 0)
(0.0917513 -0.00473058 0)
(0.0927977 -0.00466654 0)
(0.0938297 -0.00460109 0)
(0.094847 -0.00453422 0)
(0.0958492 -0.00446594 0)
(0.0968361 -0.00439627 0)
(0.0978073 -0.00432522 0)
(0.0987626 -0.0042528 0)
(0.0997016 -0.00417904 0)
(0.100624 -0.00410395 0)
(0.10153 -0.00402755 0)
(0.102418 -0.00394986 0)
(0.103289 -0.00387091 0)
(0.104142 -0.00379073 0)
(0.104977 -0.00370933 0)
(0.105794 -0.00362675 0)
(0.106593 -0.00354302 0)
(0.107373 -0.00345817 0)
(0.108133 -0.00337223 0)
(0.108875 -0.00328525 0)
(0.109596 -0.00319724 0)
(0.110299 -0.00310825 0)
(0.110981 -0.00301833 0)
(0.111643 -0.0029275 0)
(0.112284 -0.0028358 0)
(0.112906 -0.00274329 0)
(0.113506 -0.00264999 0)
(0.114086 -0.00255596 0)
(0.114644 -0.00246124 0)
(0.115182 -0.00236586 0)
(0.115698 -0.00226988 0)
(0.116192 -0.00217334 0)
(0.116665 -0.00207628 0)
(0.117116 -0.00197875 0)
(0.117546 -0.0018808 0)
(0.117953 -0.00178247 0)
(0.118339 -0.0016838 0)
(0.118703 -0.00158485 0)
(0.119044 -0.00148565 0)
(0.119364 -0.00138626 0)
(0.119661 -0.00128672 0)
(0.119936 -0.00118706 0)
(0.120189 -0.00108735 0)
(0.120419 -0.000987608 0)
(0.120627 -0.00088789 0)
(0.120814 -0.000788237 0)
(0.120977 -0.000688688 0)
(0.121119 -0.000589284 0)
(0.121239 -0.000490065 0)
(0.121336 -0.000391069 0)
(0.121412 -0.000292335 0)
(0.121465 -0.000193899 0)
(0.121497 -9.57967e-05 0)
(0.121507 1.93656e-06 0)
(0.121495 9.92672e-05 0)