/*--------------------------------*- C++ -*----------------------------------*\
| =========                 |                                                 |
| \\      /  F ield         | OpenFOAM: The Open Source CFD Toolbox           |
|  \\    /   O peration     | Version:  v2012                                 |
|   \\  /    A nd           | Website:  www.openfoam.com                      |
|    \\/     M anipulation  |                                                 |
\*---------------------------------------------------------------------------*/
FoamFile
{
    version     2.0;
    format      ascii;
    class       volScalarField;
    location    "2.7";
    object      W;
}
// * * * * * * * * * * * * * * * * * * * * * * * * * * * * * * * * * * * * * //

dimensions      [0 0 -1 0 0 0 0];


internalField   nonuniform List<scalar> 
65536
(
1.37789e-21
4.22666e-21
7.36595e-21
1.10261e-20
1.54881e-20
2.10996e-20
2.82925e-20
3.76061e-20
4.97169e-20
6.54781e-20
8.59703e-20
1.12563e-19
1.46992e-19
1.91455e-19
2.48725e-19
3.22295e-19
4.16552e-19
5.36989e-19
6.9046e-19
8.855e-19
1.13269e-18
1.44513e-18
1.83897e-18
2.33404e-18
2.95466e-18
3.73054e-18
4.69785e-18
5.90047e-18
7.39151e-18
9.23499e-18
1.15079e-17
1.43023e-17
1.77285e-17
2.19172e-17
2.70238e-17
3.32319e-17
4.07575e-17
4.98544e-17
6.08191e-17
7.39974e-17
8.97906e-17
1.08663e-16
1.31149e-16
1.57864e-16
1.8951e-16
2.26887e-16
2.70903e-16
3.22585e-16
3.83088e-16
4.53706e-16
5.35884e-16
6.31227e-16
7.41509e-16
8.68685e-16
1.01489e-15
1.18247e-15
1.37394e-15
1.59203e-15
1.83967e-15
2.11997e-15
2.43624e-15
2.79196e-15
3.19075e-15
3.63639e-15
4.13274e-15
4.68376e-15
5.29343e-15
5.96572e-15
6.70454e-15
7.51369e-15
8.39677e-15
9.35715e-15
1.03979e-14
1.15215e-14
1.27303e-14
1.40259e-14
1.5409e-14
1.68801e-14
1.84384e-14
2.00825e-14
2.181e-14
2.36174e-14
2.55002e-14
2.74528e-14
2.94683e-14
3.1539e-14
3.36557e-14
3.58082e-14
3.79855e-14
4.01751e-14
4.23641e-14
4.45384e-14
4.66833e-14
4.87838e-14
5.08241e-14
5.27886e-14
5.46615e-14
5.64272e-14
5.80705e-14
5.95768e-14
6.09323e-14
6.21244e-14
6.31416e-14
6.39736e-14
6.46122e-14
6.50503e-14
6.52833e-14
6.5308e-14
6.51236e-14
6.47312e-14
6.4134e-14
6.33374e-14
6.23486e-14
6.11768e-14
5.98332e-14
5.83303e-14
5.66826e-14
5.49055e-14
5.30157e-14
5.10309e-14
4.89694e-14
4.68501e-14
4.4692e-14
4.25144e-14
4.03363e-14
3.81762e-14
3.60524e-14
3.39822e-14
3.19823e-14
3.00682e-14
2.82546e-14
2.65548e-14
2.4981e-14
2.3544e-14
2.22534e-14
2.11174e-14
2.01429e-14
1.93353e-14
1.86987e-14
1.82359e-14
1.79482e-14
1.78358e-14
1.78972e-14
1.81299e-14
1.85298e-14
1.90916e-14
1.98086e-14
2.06727e-14
2.16747e-14
2.28039e-14
2.40482e-14
2.53946e-14
2.68286e-14
2.83347e-14
2.98965e-14
3.14963e-14
3.31161e-14
3.4737e-14
3.63399e-14
3.79054e-14
3.94141e-14
4.0847e-14
4.21855e-14
4.34122e-14
4.45103e-14
4.54647e-14
4.62619e-14
4.68901e-14
4.73397e-14
4.76033e-14
4.76757e-14
4.75545e-14
4.72396e-14
4.67333e-14
4.60407e-14
4.51691e-14
4.41279e-14
4.29286e-14
4.15846e-14
4.01109e-14
3.85235e-14
3.68394e-14
3.50765e-14
3.32528e-14
3.13862e-14
2.94944e-14
2.75946e-14
2.57029e-14
2.38346e-14
2.20036e-14
2.02223e-14
1.85017e-14
1.68512e-14
1.52784e-14
1.37896e-14
1.23891e-14
1.108e-14
9.86371e-15
8.74056e-15
7.70955e-15
6.76867e-15
5.91502e-15
5.14497e-15
4.45427e-15
3.83824e-15
3.29188e-15
2.81002e-15
2.38737e-15
2.01871e-15
1.69888e-15
1.42294e-15
1.18615e-15
9.84046e-16
8.1248e-16
6.67616e-16
5.45951e-16
4.44315e-16
3.59861e-16
2.90056e-16
2.32664e-16
1.85726e-16
1.47541e-16
1.16639e-16
9.17628e-17
7.18417e-17
5.59722e-17
4.33963e-17
3.34822e-17
2.57073e-17
1.96417e-17
1.49341e-17
1.12994e-17
8.50761e-18
6.37434e-18
4.75266e-18
3.52624e-18
2.60352e-18
1.91285e-18
1.39854e-18
1.01752e-18
7.36687e-19
5.30757e-19
3.80524e-19
2.71483e-19
1.92742e-19
1.3617e-19
9.57313e-20
6.69676e-20
4.66047e-20
3.22477e-20
2.21496e-20
1.50368e-20
9.97875e-21
6.29087e-21
3.46323e-21
1.1048e-21
4.51597e-21
1.38526e-20
2.41411e-20
3.61363e-20
5.07584e-20
6.91459e-20
9.27138e-20
1.23228e-19
1.62902e-19
2.14533e-19
2.81656e-19
3.68755e-19
4.81514e-19
6.27122e-19
8.14659e-19
1.05556e-18
1.36417e-18
1.75846e-18
2.26087e-18
2.89931e-18
3.70841e-18
4.73098e-18
6.01984e-18
7.63987e-18
9.67058e-18
1.22091e-17
1.53736e-17
1.93076e-17
2.41846e-17
3.02138e-17
3.76467e-17
4.67845e-17
5.79865e-17
7.16805e-17
8.83736e-17
1.08665e-16
1.3326e-16
1.62987e-16
1.98814e-16
2.41869e-16
2.9346e-16
3.55101e-16
4.28538e-16
5.15773e-16
6.19095e-16
7.41113e-16
8.84784e-16
1.05345e-15
1.25088e-15
1.48128e-15
1.74935e-15
2.06031e-15
2.41995e-15
2.8346e-15
3.31122e-15
3.8574e-15
4.48135e-15
5.19191e-15
5.99859e-15
6.91149e-15
7.94134e-15
9.09938e-15
1.03974e-14
1.18475e-14
1.34624e-14
1.52546e-14
1.72372e-14
1.94229e-14
2.18243e-14
2.44535e-14
2.73223e-14
3.04414e-14
3.38204e-14
3.74678e-14
4.13903e-14
4.5593e-14
5.00787e-14
5.48478e-14
5.98983e-14
6.5225e-14
7.08198e-14
7.66714e-14
8.27647e-14
8.90814e-14
9.55992e-14
1.02292e-13
1.09131e-13
1.16083e-13
1.23111e-13
1.30176e-13
1.37234e-13
1.44241e-13
1.51149e-13
1.57909e-13
1.64471e-13
1.70784e-13
1.76796e-13
1.82459e-13
1.87722e-13
1.9254e-13
1.96867e-13
2.00664e-13
2.03894e-13
2.06524e-13
2.08527e-13
2.09883e-13
2.10576e-13
2.10596e-13
2.09943e-13
2.08619e-13
2.06636e-13
2.04011e-13
2.00769e-13
1.96939e-13
1.92559e-13
1.87668e-13
1.82314e-13
1.76548e-13
1.70422e-13
1.63994e-13
1.57324e-13
1.50471e-13
1.43498e-13
1.36467e-13
1.29437e-13
1.2247e-13
1.15622e-13
1.0895e-13
1.02508e-13
9.6344e-14
9.05052e-14
8.50342e-14
7.99696e-14
7.53457e-14
7.11927e-14
6.75366e-14
6.43987e-14
6.17961e-14
5.97416e-14
5.82434e-14
5.73055e-14
5.69276e-14
5.71051e-14
5.7829e-14
5.90862e-14
6.08592e-14
6.31264e-14
6.58617e-14
6.90352e-14
7.26124e-14
7.65551e-14
8.08209e-14
8.5364e-14
9.01347e-14
9.50804e-14
1.00145e-13
1.05272e-13
1.104e-13
1.15469e-13
1.20417e-13
1.25183e-13
1.29707e-13
1.33929e-13
1.37795e-13
1.41252e-13
1.44252e-13
1.46752e-13
1.48715e-13
1.50112e-13
1.50919e-13
1.51119e-13
1.50707e-13
1.49681e-13
1.4805e-13
1.45829e-13
1.43043e-13
1.39721e-13
1.359e-13
1.31623e-13
1.26937e-13
1.21893e-13
1.16545e-13
1.1095e-13
1.05165e-13
9.92461e-14
9.32498e-14
8.72301e-14
8.12383e-14
7.53222e-14
6.95258e-14
6.38884e-14
5.84446e-14
5.32236e-14
4.82499e-14
4.35424e-14
3.91152e-14
3.49777e-14
3.11344e-14
2.75859e-14
2.43292e-14
2.13576e-14
1.8662e-14
1.62307e-14
1.40503e-14
1.21059e-14
1.03817e-14
8.86114e-15
7.52766e-15
6.36463e-15
5.35582e-15
4.48551e-15
3.73876e-15
3.10148e-15
2.56055e-15
2.10385e-15
1.72032e-15
1.39996e-15
1.13379e-15
9.13797e-16
7.32942e-16
5.85044e-16
4.64732e-16
3.67376e-16
2.89008e-16
2.26255e-16
1.76268e-16
1.36657e-16
1.05433e-16
8.09469e-17
6.18451e-17
4.70207e-17
3.55755e-17
2.67848e-17
2.00679e-17
1.49621e-17
1.11008e-17
8.19584e-18
6.02151e-18
4.40241e-18
3.20294e-18
2.3189e-18
1.67066e-18
1.19776e-18
8.54523e-19
6.06671e-19
4.28604e-19
3.01318e-19
2.10782e-19
1.46689e-19
1.015e-19
6.97161e-20
4.73288e-20
3.14087e-20
1.98011e-20
1.0901e-20
3.47764e-21
8.90339e-21
2.73106e-20
4.75939e-20
7.12399e-20
1.00061e-19
1.36299e-19
1.82741e-19
2.42861e-19
3.2102e-19
4.22719e-19
5.54918e-19
7.26439e-19
9.48461e-19
1.23513e-18
1.6043e-18
2.07844e-18
2.68579e-18
3.46166e-18
4.45013e-18
5.70607e-18
7.29749e-18
9.30852e-18
1.18429e-17
1.50279e-17
1.90198e-17
2.40092e-17
3.02279e-17
3.79575e-17
4.75384e-17
5.93809e-17
7.39779e-17
9.19198e-17
1.13911e-16
1.40789e-16
1.73548e-16
2.1336e-16
2.61607e-16
3.19909e-16
3.90159e-16
4.74563e-16
5.7568e-16
6.96469e-16
8.40338e-16
1.0112e-15
1.21352e-15
1.45238e-15
1.73357e-15
2.0636e-15
2.44978e-15
2.90034e-15
3.42443e-15
4.0322e-15
4.73487e-15
5.5448e-15
6.47549e-15
7.54164e-15
8.7592e-15
1.01453e-14
1.17184e-14
1.34979e-14
1.55047e-14
1.77605e-14
2.02879e-14
2.31104e-14
2.62522e-14
2.97378e-14
3.35918e-14
3.78388e-14
4.25028e-14
4.76071e-14
5.31737e-14
5.92229e-14
6.57731e-14
7.28399e-14
8.04357e-14
8.85696e-14
9.72463e-14
1.06466e-13
1.16224e-13
1.26509e-13
1.37305e-13
1.48588e-13
1.6033e-13
1.72494e-13
1.85036e-13
1.97905e-13
2.11044e-13
2.24389e-13
2.37867e-13
2.51403e-13
2.64913e-13
2.78311e-13
2.91504e-13
3.04398e-13
3.16897e-13
3.28902e-13
3.40317e-13
3.51046e-13
3.60996e-13
3.70078e-13
3.78208e-13
3.85309e-13
3.91313e-13
3.96161e-13
3.998e-13
4.02194e-13
4.03314e-13
4.03146e-13
4.01686e-13
3.98946e-13
3.94947e-13
3.89726e-13
3.83331e-13
3.75821e-13
3.67268e-13
3.57751e-13
3.4736e-13
3.36194e-13
3.24356e-13
3.11955e-13
2.99106e-13
2.85925e-13
2.72528e-13
2.59033e-13
2.45557e-13
2.32212e-13
2.19109e-13
2.06353e-13
1.94043e-13
1.82273e-13
1.71131e-13
1.60695e-13
1.51037e-13
1.42221e-13
1.34303e-13
1.2733e-13
1.21341e-13
1.16366e-13
1.12429e-13
1.09542e-13
1.07713e-13
1.06938e-13
1.07208e-13
1.08504e-13
1.108e-13
1.14062e-13
1.18248e-13
1.23309e-13
1.29185e-13
1.35813e-13
1.4312e-13
1.51025e-13
1.59443e-13
1.68279e-13
1.77435e-13
1.86808e-13
1.96288e-13
2.05765e-13
2.15124e-13
2.24252e-13
2.33034e-13
2.4136e-13
2.4912e-13
2.56211e-13
2.62538e-13
2.68012e-13
2.72554e-13
2.76099e-13
2.78589e-13
2.79985e-13
2.80257e-13
2.79393e-13
2.77394e-13
2.74276e-13
2.7007e-13
2.64821e-13
2.58585e-13
2.51431e-13
2.43439e-13
2.34697e-13
2.25301e-13
2.1535e-13
2.04949e-13
1.94204e-13
1.8322e-13
1.721e-13
1.60945e-13
1.49847e-13
1.38897e-13
1.28173e-13
1.17749e-13
1.07688e-13
9.80432e-14
8.88588e-14
8.01698e-14
7.20013e-14
6.437e-14
5.7284e-14
5.07439e-14
4.47433e-14
3.927e-14
3.43065e-14
2.9831e-14
2.58184e-14
2.22412e-14
1.90698e-14
1.62738e-14
1.38224e-14
1.16848e-14
9.83109e-15
8.23223e-15
6.86065e-15
5.69038e-15
4.69722e-15
3.85888e-15
3.15498e-15
2.56712e-15
2.07877e-15
1.67522e-15
1.34351e-15
1.07228e-15
8.51682e-16
6.73194e-16
5.29537e-16
4.14518e-16
3.22908e-16
2.50324e-16
1.93112e-16
1.48252e-16
1.13259e-16
8.61049e-17
6.5142e-17
4.90426e-17
3.6742e-17
2.73924e-17
2.03223e-17
1.50034e-17
1.10226e-17
8.05848e-18
5.8627e-18
4.24441e-18
3.05782e-18
2.19221e-18
1.56397e-18
1.11033e-18
7.8442e-19
5.51459e-19
3.85761e-19
2.68462e-19
1.8576e-19
1.27591e-19
8.66201e-20
5.74844e-20
3.6241e-20
1.99521e-20
6.36526e-21
1.57373e-20
4.82728e-20
8.41225e-20
1.25911e-19
1.76839e-19
2.40862e-19
3.22897e-19
4.29076e-19
5.67091e-19
7.46644e-19
9.80009e-19
1.28274e-18
1.67454e-18
2.18035e-18
2.83161e-18
3.66793e-18
4.73903e-18
6.10709e-18
7.84974e-18
1.00635e-17
1.28682e-17
1.64117e-17
2.08764e-17
2.64865e-17
3.35164e-17
4.2301e-17
5.3248e-17
6.6852e-17
8.37106e-17
1.04544e-16
1.30218e-16
1.61768e-16
2.00429e-16
2.47671e-16
3.05234e-16
3.75175e-16
4.59912e-16
5.62281e-16
6.85597e-16
8.33719e-16
1.01112e-15
1.22297e-15
1.47523e-15
1.77472e-15
2.12925e-15
2.54768e-15
3.04009e-15
3.61782e-15
4.29364e-15
5.08183e-15
5.9983e-15
7.06071e-15
8.28855e-15
9.70324e-15
1.13282e-14
1.31889e-14
1.53129e-14
1.773e-14
2.04717e-14
2.3572e-14
2.70664e-14
3.09925e-14
3.53892e-14
4.02968e-14
4.57565e-14
5.18104e-14
5.85005e-14
6.58686e-14
7.39554e-14
8.28002e-14
9.24402e-14
1.02909e-13
1.14238e-13
1.26452e-13
1.39571e-13
1.5361e-13
1.68574e-13
1.84463e-13
2.01266e-13
2.18962e-13
2.37522e-13
2.56904e-13
2.77055e-13
2.9791e-13
3.19393e-13
3.41414e-13
3.63872e-13
3.86656e-13
4.09642e-13
4.32697e-13
4.55677e-13
4.78433e-13
5.00807e-13
5.22637e-13
5.43758e-13
5.64004e-13
5.8321e-13
6.01212e-13
6.17855e-13
6.32988e-13
6.46471e-13
6.58177e-13
6.67992e-13
6.75816e-13
6.81569e-13
6.85188e-13
6.86632e-13
6.85879e-13
6.82928e-13
6.77803e-13
6.70548e-13
6.61226e-13
6.49925e-13
6.36749e-13
6.21822e-13
6.05284e-13
5.87291e-13
5.68011e-13
5.47623e-13
5.26314e-13
5.04278e-13
4.81711e-13
4.58813e-13
4.35782e-13
4.12813e-13
3.90097e-13
3.67817e-13
3.4615e-13
3.25262e-13
3.05307e-13
2.86429e-13
2.68759e-13
2.52414e-13
2.37498e-13
2.24101e-13
2.12298e-13
2.02152e-13
1.93709e-13
1.87004e-13
1.82057e-13
1.78873e-13
1.77446e-13
1.77755e-13
1.79766e-13
1.83433e-13
1.88697e-13
1.95484e-13
2.0371e-13
2.13277e-13
2.24074e-13
2.35981e-13
2.48862e-13
2.62574e-13
2.76962e-13
2.91862e-13
3.07102e-13
3.22504e-13
3.37886e-13
3.5306e-13
3.67839e-13
3.82039e-13
3.95476e-13
4.07975e-13
4.19369e-13
4.29501e-13
4.38231e-13
4.45433e-13
4.50999e-13
4.54841e-13
4.56894e-13
4.57116e-13
4.55488e-13
4.52014e-13
4.46724e-13
4.3967e-13
4.30926e-13
4.20588e-13
4.0877e-13
3.95603e-13
3.81231e-13
3.65811e-13
3.49507e-13
3.32489e-13
3.14929e-13
2.96997e-13
2.78862e-13
2.60684e-13
2.42617e-13
2.24802e-13
2.0737e-13
1.90436e-13
1.74102e-13
1.58454e-13
1.43561e-13
1.2948e-13
1.16249e-13
1.03895e-13
9.24289e-14
8.18512e-14
7.21505e-14
6.3306e-14
5.52887e-14
4.80626e-14
4.15864e-14
3.5815e-14
3.07002e-14
2.61925e-14
2.22415e-14
1.87976e-14
1.58118e-14
1.32374e-14
1.10295e-14
9.14622e-15
7.54839e-15
6.19997e-15
5.0681e-15
4.12302e-15
3.3381e-15
2.68963e-15
2.15671e-15
1.72105e-15
1.36678e-15
1.08019e-15
8.49565e-16
6.64948e-16
5.17929e-16
4.0146e-16
3.09672e-16
2.3771e-16
1.81584e-16
1.38036e-16
1.04421e-16
7.86075e-17
5.88872e-17
4.38992e-17
3.25665e-17
2.40416e-17
1.76617e-17
1.29116e-17
9.39305e-18
6.8e-18
4.89879e-18
3.51194e-18
2.50543e-18
1.77868e-18
1.25657e-18
8.83379e-19
6.17946e-19
4.30045e-19
2.97567e-19
2.0439e-19
1.3876e-19
9.20894e-20
5.80595e-20
3.1965e-20
1.0198e-20
2.68478e-20
8.23521e-20
1.43506e-19
2.14784e-19
3.01636e-19
4.10802e-19
5.50651e-19
7.31627e-19
9.66825e-19
1.27275e-18
1.6703e-18
2.18593e-18
2.85316e-18
3.71438e-18
4.82307e-18
6.24655e-18
8.06929e-18
1.0397e-17
1.33615e-17
1.71267e-17
2.18959e-17
2.79203e-17
3.55094e-17
4.50435e-17
5.69878e-17
7.19103e-17
9.05021e-17
1.13601e-16
1.42219e-16
1.77577e-16
2.21139e-16
2.74658e-16
3.40223e-16
4.20319e-16
5.17889e-16
6.36405e-16
7.79953e-16
9.53322e-16
1.1621e-15
1.4128e-15
1.71297e-15
2.07131e-15
2.49786e-15
3.0041e-15
3.60316e-15
4.30996e-15
5.1414e-15
6.11654e-15
7.2568e-15
8.58613e-15
1.01312e-14
1.19215e-14
1.39897e-14
1.63716e-14
1.91063e-14
2.22363e-14
2.58075e-14
2.98693e-14
3.44745e-14
3.96792e-14
4.55425e-14
5.21264e-14
5.94953e-14
6.77158e-14
7.68559e-14
8.69843e-14
9.81701e-14
1.10482e-13
1.23985e-13
1.38744e-13
1.54819e-13
1.72264e-13
1.91127e-13
2.11449e-13
2.3326e-13
2.56581e-13
2.81419e-13
3.07768e-13
3.35609e-13
3.64904e-13
3.95598e-13
4.27621e-13
4.6088e-13
4.95265e-13
5.30645e-13
5.66869e-13
6.03769e-13
6.41155e-13
6.78821e-13
7.16545e-13
7.54091e-13
7.91208e-13
8.27637e-13
8.63111e-13
8.97359e-13
9.3011e-13
9.61092e-13
9.90042e-13
1.01671e-12
1.04084e-12
1.06223e-12
1.08065e-12
1.09594e-12
1.10794e-12
1.11652e-12
1.12159e-12
1.12309e-12
1.12099e-12
1.1153e-12
1.10607e-12
1.09337e-12
1.07732e-12
1.05807e-12
1.03579e-12
1.0107e-12
9.83035e-13
9.53048e-13
9.21018e-13
8.87241e-13
8.52025e-13
8.15688e-13
7.78549e-13
7.40934e-13
7.03163e-13
6.65552e-13
6.28407e-13
5.92023e-13
5.56682e-13
5.22648e-13
4.90166e-13
4.59464e-13
4.30746e-13
4.04196e-13
3.79975e-13
3.58221e-13
3.39048e-13
3.2255e-13
3.08795e-13
2.97832e-13
2.89685e-13
2.84358e-13
2.81833e-13
2.82071e-13
2.85014e-13
2.90579e-13
2.98669e-13
3.09161e-13
3.21917e-13
3.36778e-13
3.53564e-13
3.72079e-13
3.9211e-13
4.13426e-13
4.35781e-13
4.58915e-13
4.82557e-13
5.06426e-13
5.30235e-13
5.53691e-13
5.76502e-13
5.98379e-13
6.19039e-13
6.38209e-13
6.55632e-13
6.71067e-13
6.84296e-13
6.95128e-13
7.03399e-13
7.08979e-13
7.11769e-13
7.11709e-13
7.08774e-13
7.02976e-13
6.94366e-13
6.83029e-13
6.69085e-13
6.52686e-13
6.34014e-13
6.13274e-13
5.90693e-13
5.66515e-13
5.40997e-13
5.14403e-13
4.87e-13
4.59053e-13
4.30821e-13
4.02553e-13
3.74484e-13
3.46833e-13
3.19798e-13
2.93558e-13
2.68266e-13
2.44054e-13
2.21027e-13
1.99268e-13
1.78837e-13
1.5977e-13
1.42085e-13
1.25779e-13
1.10833e-13
9.72129e-14
8.48727e-14
7.37557e-14
6.37971e-14
5.4926e-14
4.70677e-14
4.01448e-14
3.40794e-14
2.87943e-14
2.42142e-14
2.02663e-14
1.68818e-14
1.39958e-14
1.1548e-14
9.48292e-15
7.74998e-15
6.30346e-15
5.10238e-15
4.11035e-15
3.29531e-15
2.62917e-15
2.0876e-15
1.64959e-15
1.29719e-15
1.01515e-15
7.90584e-16
6.12718e-16
4.72567e-16
3.62707e-16
2.77036e-16
2.10573e-16
1.59277e-16
1.19892e-16
8.98063e-17
6.69433e-17
4.96579e-17
3.66565e-17
2.69274e-17
1.96842e-17
1.43193e-17
1.03658e-17
7.46736e-18
5.35317e-18
3.81887e-18
2.71107e-18
1.91524e-18
1.34642e-18
9.4185e-19
6.55459e-19
4.53546e-19
3.11532e-19
2.11505e-19
1.40372e-19
8.8504e-20
4.87284e-20
1.55466e-20
4.5146e-20
1.38477e-19
2.41302e-19
3.61136e-19
5.07128e-19
6.90594e-19
9.25583e-19
1.22962e-18
1.62467e-18
2.13844e-18
2.80595e-18
3.67157e-18
4.7915e-18
6.23678e-18
8.09703e-18
1.0485e-17
1.35422e-17
1.74456e-17
2.24159e-17
2.87275e-17
3.67205e-17
4.68151e-17
5.95289e-17
7.54975e-17
9.54987e-17
1.20482e-16
1.516e-16
1.90254e-16
2.38132e-16
2.97271e-16
3.70114e-16
4.59583e-16
5.69161e-16
7.02989e-16
8.65967e-16
1.06388e-15
1.30352e-15
1.59286e-15
1.94119e-15
2.35932e-15
2.8598e-15
3.45707e-15
4.16778e-15
5.01098e-15
6.00842e-15
7.18481e-15
8.56812e-15
1.01899e-14
1.20855e-14
1.42945e-14
1.68609e-14
1.98334e-14
2.32657e-14
2.72168e-14
3.17509e-14
3.69379e-14
4.28532e-14
4.95776e-14
5.71976e-14
6.58049e-14
7.54959e-14
8.63717e-14
9.85371e-14
1.121e-13
1.27171e-13
1.43861e-13
1.62282e-13
1.82542e-13
2.04748e-13
2.29003e-13
2.554e-13
2.84026e-13
3.14955e-13
3.48248e-13
3.83953e-13
4.22095e-13
4.62684e-13
5.05705e-13
5.51117e-13
5.98856e-13
6.48826e-13
7.00903e-13
7.54933e-13
8.10729e-13
8.68072e-13
9.26712e-13
9.86367e-13
1.04673e-12
1.10745e-12
1.16818e-12
1.22852e-12
1.28806e-12
1.34639e-12
1.40307e-12
1.45767e-12
1.50974e-12
1.55885e-12
1.60459e-12
1.64654e-12
1.68433e-12
1.71759e-12
1.74602e-12
1.76932e-12
1.78727e-12
1.79967e-12
1.80638e-12
1.80733e-12
1.80248e-12
1.79186e-12
1.77556e-12
1.75371e-12
1.72653e-12
1.69426e-12
1.6572e-12
1.6157e-12
1.57014e-12
1.52095e-12
1.46858e-12
1.41352e-12
1.35625e-12
1.29729e-12
1.23715e-12
1.17636e-12
1.11542e-12
1.05483e-12
9.95082e-13
9.36639e-13
8.79942e-13
8.25404e-13
7.73407e-13
7.24303e-13
6.78407e-13
6.35999e-13
5.97324e-13
5.6259e-13
5.31966e-13
5.05588e-13
4.83555e-13
4.65928e-13
4.52737e-13
4.43977e-13
4.39608e-13
4.3956e-13
4.4373e-13
4.51982e-13
4.64151e-13
4.80042e-13
4.99428e-13
5.22055e-13
5.4764e-13
5.7587e-13
6.0641e-13
6.38898e-13
6.7295e-13
7.08161e-13
7.44112e-13
7.80368e-13
8.16486e-13
8.52017e-13
8.86514e-13
9.19533e-13
9.50644e-13
9.79432e-13
1.00551e-12
1.02851e-12
1.04811e-12
1.06402e-12
1.07599e-12
1.08385e-12
1.08744e-12
1.08668e-12
1.08154e-12
1.07204e-12
1.05828e-12
1.04039e-12
1.01856e-12
9.93021e-13
9.64065e-13
9.32005e-13
8.97191e-13
8.59998e-13
8.20819e-13
7.80055e-13
7.38114e-13
6.95398e-13
6.523e-13
6.09195e-13
5.6644e-13
5.24362e-13
4.83261e-13
4.43401e-13
4.05014e-13
3.68294e-13
3.33398e-13
3.00447e-13
2.69528e-13
2.40693e-13
2.13964e-13
1.89334e-13
1.66771e-13
1.46222e-13
1.27613e-13
1.10858e-13
9.58561e-14
8.2499e-14
7.06722e-14
6.02579e-14
5.11376e-14
4.31939e-14
3.63125e-14
3.03834e-14
2.53023e-14
2.09711e-14
1.72988e-14
1.42018e-14
1.16037e-14
9.43566e-15
7.63604e-15
6.15008e-15
4.92955e-15
3.93227e-15
3.12168e-15
2.46625e-15
1.93905e-15
1.5172e-15
1.18139e-15
9.15462e-16
7.05962e-16
5.41771e-16
4.13753e-16
3.14453e-16
2.37825e-16
1.78998e-16
1.34068e-16
9.99279e-17
7.41196e-17
5.47095e-17
4.01862e-17
2.93747e-17
2.13675e-17
1.54674e-17
1.1142e-17
7.98714e-18
5.69775e-18
4.04482e-18
2.85744e-18
2.00877e-18
1.40517e-18
9.77904e-19
6.7667e-19
4.64803e-19
3.15573e-19
2.09449e-19
1.32063e-19
7.27148e-20
2.32e-20
7.53204e-20
2.31029e-19
4.02564e-19
6.02448e-19
8.45928e-19
1.15185e-18
1.5436e-18
2.05036e-18
2.70872e-18
3.56475e-18
4.67675e-18
6.11854e-18
7.98357e-18
1.039e-17
1.34868e-17
1.74614e-17
2.25489e-17
2.90434e-17
3.73113e-17
4.78084e-17
6.10992e-17
7.78812e-17
9.90131e-17
1.25549e-16
1.58779e-16
2.00277e-16
2.51954e-16
3.16129e-16
3.95601e-16
4.93739e-16
6.14588e-16
7.62982e-16
9.44682e-16
1.16653e-15
1.43663e-15
1.76452e-15
2.16144e-15
2.64053e-15
3.21711e-15
3.90903e-15
4.73692e-15
5.72461e-15
6.89948e-15
8.29288e-15
9.94055e-15
1.18831e-14
1.41665e-14
1.68424e-14
1.99689e-14
2.36107e-14
2.784e-14
3.27363e-14
3.83876e-14
4.48899e-14
5.23481e-14
6.08761e-14
7.05965e-14
8.16409e-14
9.41496e-14
1.08271e-13
1.24162e-13
1.41985e-13
1.6191e-13
1.8411e-13
2.08763e-13
2.36047e-13
2.6614e-13
2.99216e-13
3.35444e-13
3.74985e-13
4.17987e-13
4.64584e-13
5.1489e-13
5.68999e-13
6.26978e-13
6.88864e-13
7.5466e-13
8.24334e-13
8.97812e-13
9.74979e-13
1.05567e-12
1.13968e-12
1.22674e-12
1.31654e-12
1.40872e-12
1.50287e-12
1.59853e-12
1.69518e-12
1.79227e-12
1.88921e-12
1.98537e-12
2.08009e-12
2.1727e-12
2.26249e-12
2.34878e-12
2.43085e-12
2.50802e-12
2.57962e-12
2.64502e-12
2.70361e-12
2.75484e-12
2.79821e-12
2.83329e-12
2.85973e-12
2.87723e-12
2.88561e-12
2.88476e-12
2.87464e-12
2.85533e-12
2.82699e-12
2.78988e-12
2.74432e-12
2.69075e-12
2.62965e-12
2.56161e-12
2.48724e-12
2.40725e-12
2.32235e-12
2.23333e-12
2.14098e-12
2.04611e-12
1.94955e-12
1.85212e-12
1.75461e-12
1.65783e-12
1.56253e-12
1.46943e-12
1.37923e-12
1.29257e-12
1.21003e-12
1.13214e-12
1.05941e-12
9.92236e-13
9.31e-13
8.76006e-13
8.27504e-13
7.85686e-13
7.50688e-13
7.22591e-13
7.01422e-13
6.87155e-13
6.79714e-13
6.7897e-13
6.84749e-13
6.96826e-13
7.14932e-13
7.38751e-13
7.6792e-13
8.02037e-13
8.40653e-13
8.83283e-13
9.29399e-13
9.7844e-13
1.02981e-12
1.08289e-12
1.13704e-12
1.19158e-12
1.24584e-12
1.29913e-12
1.35079e-12
1.40013e-12
1.4465e-12
1.48929e-12
1.52791e-12
1.56182e-12
1.59052e-12
1.6136e-12
1.63071e-12
1.64155e-12
1.64593e-12
1.64374e-12
1.63494e-12
1.61958e-12
1.59781e-12
1.56985e-12
1.53598e-12
1.49659e-12
1.4521e-12
1.403e-12
1.34982e-12
1.29313e-12
1.23354e-12
1.17163e-12
1.10804e-12
1.04336e-12
9.78183e-13
9.13073e-13
8.48559e-13
7.85132e-13
7.23235e-13
6.63263e-13
6.05555e-13
5.50397e-13
4.98019e-13
4.48598e-13
4.02256e-13
3.59067e-13
3.19058e-13
2.82214e-13
2.48483e-13
2.1778e-13
1.89992e-13
1.64985e-13
1.42606e-13
1.22691e-13
1.05066e-13
8.95533e-14
7.59741e-14
6.41519e-14
5.3915e-14
4.50983e-14
3.75454e-14
3.11097e-14
2.56551e-14
2.10565e-14
1.72e-14
1.3983e-14
1.13134e-14
9.10977e-15
7.30027e-15
5.82218e-15
4.62108e-15
3.65014e-15
2.86935e-15
2.24471e-15
1.74759e-15
1.354e-15
1.04399e-15
8.01067e-16
6.11698e-16
4.64834e-16
3.51521e-16
2.64542e-16
1.98119e-16
1.47655e-16
1.09511e-16
8.08267e-17
5.93661e-17
4.33918e-17
3.15619e-17
2.28458e-17
1.64564e-17
1.17964e-17
8.41488e-18
5.97358e-18
4.21994e-18
2.96657e-18
2.07518e-18
1.44419e-18
9.99334e-19
6.86456e-19
4.66079e-19
3.09356e-19
1.95068e-19
1.07411e-19
3.42712e-20
1.24934e-19
3.83202e-19
6.677e-19
9.99178e-19
1.40288e-18
1.91002e-18
2.55933e-18
3.39911e-18
4.48989e-18
5.90793e-18
7.74968e-18
1.01372e-17
1.32251e-17
1.72086e-17
2.23341e-17
2.89112e-17
3.73284e-17
4.80713e-17
6.17453e-17
7.91026e-17
1.01075e-16
1.28813e-16
1.63734e-16
2.07577e-16
2.62467e-16
3.30998e-16
4.16321e-16
5.22255e-16
6.53407e-16
8.15327e-16
1.01467e-15
1.25938e-15
1.55894e-15
1.92459e-15
2.36964e-15
2.90977e-15
3.56341e-15
4.35213e-15
5.30108e-15
6.43947e-15
7.80114e-15
9.4251e-15
1.13562e-14
1.36456e-14
1.63519e-14
1.95413e-14
2.32888e-14
2.76789e-14
3.28061e-14
3.8776e-14
4.57059e-14
5.37254e-14
6.29771e-14
7.36172e-14
8.58158e-14
9.97572e-14
1.1564e-13
1.33677e-13
1.54095e-13
1.77132e-13
2.03042e-13
2.32085e-13
2.64534e-13
3.00668e-13
3.40768e-13
3.8512e-13
4.34005e-13
4.87701e-13
5.46473e-13
6.10573e-13
6.80233e-13
7.55659e-13
8.37028e-13
9.24476e-13
1.0181e-12
1.11795e-12
1.22402e-12
1.33623e-12
1.45446e-12
1.5785e-12
1.70808e-12
1.84284e-12
1.98235e-12
2.12609e-12
2.27346e-12
2.42379e-12
2.57632e-12
2.73022e-12
2.8846e-12
3.03849e-12
3.19089e-12
3.34074e-12
3.48694e-12
3.6284e-12
3.764e-12
3.89262e-12
4.01317e-12
4.12461e-12
4.22593e-12
4.3162e-12
4.39456e-12
4.46024e-12
4.51259e-12
4.55107e-12
4.57526e-12
4.58488e-12
4.57979e-12
4.56e-12
4.52564e-12
4.47702e-12
4.41458e-12
4.33886e-12
4.25059e-12
4.15058e-12
4.03975e-12
3.91914e-12
3.78985e-12
3.65307e-12
3.51001e-12
3.36196e-12
3.2102e-12
3.05604e-12
2.90076e-12
2.74563e-12
2.59188e-12
2.44071e-12
2.29324e-12
2.15052e-12
2.01355e-12
1.88323e-12
1.76038e-12
1.64573e-12
1.53991e-12
1.44348e-12
1.35687e-12
1.28047e-12
1.21454e-12
1.15925e-12
1.11472e-12
1.08095e-12
1.05788e-12
1.04536e-12
1.04317e-12
1.05102e-12
1.06854e-12
1.09528e-12
1.13075e-12
1.17438e-12
1.22551e-12
1.28346e-12
1.34746e-12
1.4167e-12
1.49031e-12
1.56738e-12
1.64695e-12
1.72803e-12
1.80961e-12
1.89066e-12
1.97016e-12
2.04706e-12
2.12036e-12
2.18909e-12
2.25232e-12
2.30917e-12
2.35883e-12
2.40059e-12
2.43383e-12
2.45803e-12
2.47278e-12
2.4778e-12
2.47293e-12
2.45815e-12
2.43355e-12
2.39937e-12
2.35594e-12
2.30374e-12
2.24332e-12
2.17535e-12
2.10058e-12
2.0198e-12
1.93389e-12
1.84373e-12
1.75024e-12
1.65435e-12
1.55694e-12
1.45892e-12
1.3611e-12
1.26429e-12
1.1692e-12
1.07649e-12
9.86747e-13
9.00464e-13
8.18061e-13
7.39872e-13
6.6615e-13
5.97071e-13
5.32734e-13
4.73174e-13
4.1836e-13
3.68207e-13
3.22582e-13
2.81313e-13
2.44194e-13
2.10993e-13
1.81463e-13
1.55341e-13
1.3236e-13
1.12253e-13
9.47549e-14
7.96096e-14
6.65709e-14
5.54057e-14
4.58955e-14
3.7838e-14
3.10474e-14
2.53546e-14
2.06072e-14
1.6669e-14
1.34191e-14
1.07513e-14
8.57265e-15
6.80276e-15
5.37239e-15
4.22242e-15
3.30265e-15
2.5708e-15
1.99149e-15
1.53529e-15
1.17788e-15
8.99316e-16
6.83312e-16
5.16679e-16
3.88791e-16
2.91142e-16
2.16963e-16
1.60901e-16
1.18747e-16
8.72115e-17
6.37406e-17
4.63604e-17
3.35558e-17
2.41701e-17
1.73251e-17
1.23585e-17
8.77288e-18
6.19736e-18
4.35664e-18
3.04756e-18
2.12091e-18
1.46763e-18
1.00816e-18
6.84529e-19
4.54372e-19
2.86526e-19
1.57779e-19
5.03435e-20
2.06154e-19
6.32313e-19
1.10172e-18
1.64857e-18
2.31448e-18
3.15084e-18
4.22146e-18
5.60587e-18
7.40375e-18
9.74063e-18
1.27752e-17
1.67085e-17
2.17946e-17
2.83547e-17
3.6794e-17
4.76215e-17
6.14758e-17
7.91548e-17
1.01653e-16
1.30206e-16
1.66344e-16
2.11956e-16
2.69367e-16
3.4143e-16
4.31633e-16
5.44228e-16
6.84381e-16
8.58349e-16
1.07368e-15
1.33947e-15
1.6666e-15
2.06808e-15
2.55942e-15
3.15901e-15
3.8886e-15
4.77382e-15
5.84475e-15
7.13662e-15
8.69046e-15
1.05539e-14
1.27822e-14
1.54388e-14
1.85967e-14
2.23394e-14
2.67619e-14
3.1972e-14
3.80916e-14
4.52578e-14
5.36238e-14
6.3361e-14
7.46591e-14
8.7728e-14
1.02798e-13
1.20123e-13
1.39975e-13
1.62653e-13
1.88476e-13
2.17787e-13
2.50949e-13
2.88346e-13
3.30383e-13
3.77478e-13
4.30065e-13
4.88587e-13
5.53495e-13
6.25239e-13
7.04266e-13
7.91011e-13
8.85893e-13
9.89304e-13
1.1016e-12
1.22311e-12
1.35408e-12
1.49474e-12
1.6452e-12
1.80553e-12
1.9757e-12
2.15557e-12
2.34491e-12
2.54337e-12
2.75047e-12
2.96564e-12
3.18814e-12
3.41714e-12
3.65164e-12
3.89056e-12
4.13265e-12
4.37659e-12
4.62093e-12
4.86411e-12
5.10453e-12
5.34049e-12
5.57026e-12
5.79208e-12
6.00418e-12
6.20481e-12
6.39225e-12
6.56486e-12
6.72107e-12
6.85944e-12
6.97863e-12
7.07748e-12
7.15499e-12
7.21036e-12
7.24298e-12
7.25246e-12
7.23864e-12
7.20158e-12
7.14156e-12
7.05911e-12
6.95497e-12
6.83009e-12
6.68563e-12
6.52292e-12
6.34347e-12
6.14895e-12
5.94111e-12
5.72186e-12
5.49314e-12
5.25698e-12
5.0154e-12
4.77045e-12
4.52416e-12
4.2785e-12
4.03541e-12
3.79671e-12
3.56415e-12
3.33936e-12
3.12386e-12
2.91902e-12
2.72608e-12
2.54615e-12
2.38018e-12
2.22897e-12
2.09319e-12
1.97336e-12
1.86986e-12
1.78292e-12
1.71266e-12
1.65906e-12
1.62197e-12
1.60114e-12
1.59617e-12
1.6066e-12
1.6318e-12
1.67109e-12
1.72364e-12
1.78857e-12
1.86487e-12
1.95145e-12
2.04713e-12
2.15065e-12
2.26067e-12
2.3758e-12
2.49459e-12
2.61551e-12
2.73705e-12
2.85763e-12
2.97571e-12
3.08974e-12
3.1982e-12
3.29965e-12
3.39268e-12
3.476e-12
3.54842e-12
3.60889e-12
3.6565e-12
3.69049e-12
3.71027e-12
3.71547e-12
3.70586e-12
3.68144e-12
3.64237e-12
3.58904e-12
3.52197e-12
3.44189e-12
3.34966e-12
3.24629e-12
3.13291e-12
3.01074e-12
2.88106e-12
2.74524e-12
2.60462e-12
2.4606e-12
2.3145e-12
2.16765e-12
2.02128e-12
1.87656e-12
1.73456e-12
1.59624e-12
1.46246e-12
1.33396e-12
1.21132e-12
1.09505e-12
9.85494e-13
8.82912e-13
7.87438e-13
6.99108e-13
6.17866e-13
5.43578e-13
4.76036e-13
4.14975e-13
3.60084e-13
3.11014e-13
2.67389e-13
2.28818e-13
1.94901e-13
1.65239e-13
1.39437e-13
1.17113e-13
9.79027e-14
8.14586e-14
6.74575e-14
5.55993e-14
4.56091e-14
3.72368e-14
3.02571e-14
2.44689e-14
1.96938e-14
1.57751e-14
1.25758e-14
9.97738e-15
7.87799e-15
6.19054e-15
4.8412e-15
3.7678e-15
2.91829e-15
2.24944e-15
1.72554e-15
1.31728e-15
1.00076e-15
7.56624e-16
5.69283e-16
4.26259e-16
3.17624e-16
2.35531e-16
1.73811e-16
1.27643e-16
9.32852e-17
6.78452e-17
4.91042e-17
3.53679e-17
2.53509e-17
1.80829e-17
1.28362e-17
9.06765e-18
6.37435e-18
4.45897e-18
3.10319e-18
2.14737e-18
1.47513e-18
1.00163e-18
6.64889e-19
4.19301e-19
2.30905e-19
7.36789e-20
3.38474e-19
1.03814e-18
1.80877e-18
2.70642e-18
3.79933e-18
5.17173e-18
6.92821e-18
9.19907e-18
1.21476e-17
1.59795e-17
2.09546e-17
2.74018e-17
3.57374e-17
4.6487e-17
6.03133e-17
7.80494e-17
1.00739e-16
1.29688e-16
1.66521e-16
2.13258e-16
2.72398e-16
3.47029e-16
4.40947e-16
5.58809e-16
7.0631e-16
8.90386e-16
1.11947e-15
1.40375e-15
1.75555e-15
2.18968e-15
2.72387e-15
3.37933e-15
4.18127e-15
5.15964e-15
6.34982e-15
7.79348e-15
9.53953e-15
1.16452e-14
1.41771e-14
1.72126e-14
2.08411e-14
2.51658e-14
3.03049e-14
3.63936e-14
4.35857e-14
5.20558e-14
6.20006e-14
7.36417e-14
8.72268e-14
1.03032e-13
1.21363e-13
1.42559e-13
1.6699e-13
1.95063e-13
2.27217e-13
2.63931e-13
3.05716e-13
3.53121e-13
4.06728e-13
4.6715e-13
5.3503e-13
6.11037e-13
6.95859e-13
7.90201e-13
8.94773e-13
1.01029e-12
1.13745e-12
1.27694e-12
1.42941e-12
1.59547e-12
1.77568e-12
1.97051e-12
2.18038e-12
2.40558e-12
2.6463e-12
2.90259e-12
3.17437e-12
3.46139e-12
3.76325e-12
4.07935e-12
4.4089e-12
4.75093e-12
5.10424e-12
5.46746e-12
5.83899e-12
6.21704e-12
6.59963e-12
6.98461e-12
7.36965e-12
7.7523e-12
8.12995e-12
8.49993e-12
8.85948e-12
9.20583e-12
9.53618e-12
9.84779e-12
1.0138e-11
1.04041e-11
1.06439e-11
1.0855e-11
1.10353e-11
1.11832e-11
1.12972e-11
1.13759e-11
1.14186e-11
1.14247e-11
1.1394e-11
1.13268e-11
1.12236e-11
1.10852e-11
1.0913e-11
1.07085e-11
1.04736e-11
1.02104e-11
9.92146e-12
9.60937e-12
9.27698e-12
8.92727e-12
8.56335e-12
8.18838e-12
7.80558e-12
7.41815e-12
7.02923e-12
6.64192e-12
6.2592e-12
5.8839e-12
5.5187e-12
5.16612e-12
4.82846e-12
4.5078e-12
4.20603e-12
3.9248e-12
3.66552e-12
3.42938e-12
3.21735e-12
3.03016e-12
2.86833e-12
2.73217e-12
2.62179e-12
2.5371e-12
2.47781e-12
2.44346e-12
2.43341e-12
2.44687e-12
2.48285e-12
2.54025e-12