/*--------------------------------*- C++ -*----------------------------------*\
| =========                 |                                                 |
| \\      /  F ield         | OpenFOAM: The Open Source CFD Toolbox           |
|  \\    /   O peration     | Version:  v2012                                 |
|   \\  /    A nd           | Website:  www.openfoam.com                      |
|    \\/     M anipulation  |                                                 |
\*---------------------------------------------------------------------------*/
FoamFile
{
    version     2.0;
    format      ascii;
    class       volScalarField;
    location    "4.3";
    object      W;
}
// * * * * * * * * * * * * * * * * * * * * * * * * * * * * * * * * * * * * * //

dimensions      [0 0 -1 0 0 0 0];


internalField   nonuniform List<scalar> 
65536
(
4.91296e-21
1.50274e-20
2.6027e-20
3.85669e-20
5.33979e-20
7.14075e-20
9.36637e-20
1.21467e-19
1.56409e-19
2.0045e-19
2.56005e-19
3.26052e-19
4.14269e-19
5.25192e-19
6.64405e-19
8.38779e-19
1.05674e-18
1.32863e-18
1.66704e-18
2.08736e-18
2.6083e-18
3.25253e-18
4.04751e-18
5.02638e-18
6.22904e-18
7.7034e-18
9.50686e-18
1.1708e-17
1.43886e-17
1.76457e-17
2.15946e-17
2.63714e-17
3.21366e-17
3.90792e-17
4.74205e-17
5.74196e-17
6.93785e-17
8.36487e-17
1.00637e-16
1.20816e-16
1.44728e-16
1.72997e-16
2.0634e-16
2.45575e-16
2.91634e-16
3.45576e-16
4.086e-16
4.82058e-16
5.67472e-16
6.6655e-16
7.81197e-16
9.13536e-16
1.06592e-15
1.24096e-15
1.44153e-15
1.67076e-15
1.93211e-15
2.22931e-15
2.56644e-15
2.94787e-15
3.37832e-15
3.86283e-15
4.40676e-15
5.0158e-15
5.69592e-15
6.45339e-15
7.29473e-15
8.22669e-15
9.25618e-15
1.03902e-14
1.1636e-14
1.30006e-14
1.4491e-14
1.61142e-14
1.78767e-14
1.97848e-14
2.18443e-14
2.40603e-14
2.64373e-14
2.8979e-14
3.16879e-14
3.45655e-14
3.7612e-14
4.08264e-14
4.42059e-14
4.77463e-14
5.14415e-14
5.52836e-14
5.92629e-14
6.33676e-14
6.7584e-14
7.18962e-14
7.62865e-14
8.07352e-14
8.52207e-14
8.97196e-14
9.42069e-14
9.86563e-14
1.0304e-13
1.07329e-13
1.11495e-13
1.15507e-13
1.19336e-13
1.22952e-13
1.26326e-13
1.2943e-13
1.32236e-13
1.34721e-13
1.36861e-13
1.38636e-13
1.40027e-13
1.4102e-13
1.41603e-13
1.41769e-13
1.41513e-13
1.40835e-13
1.39738e-13
1.38229e-13
1.3632e-13
1.34025e-13
1.31364e-13
1.28359e-13
1.25034e-13
1.21418e-13
1.17541e-13
1.13438e-13
1.09142e-13
1.04689e-13
1.00118e-13
9.54654e-14
9.07694e-14
8.60677e-14
8.13972e-14
7.67939e-14
7.22924e-14
6.79256e-14
6.37246e-14
5.97181e-14
5.59326e-14
5.2392e-14
4.91176e-14
4.61279e-14
4.34387e-14
4.10629e-14
3.90107e-14
3.72891e-14
3.59028e-14
3.48534e-14
3.41397e-14
3.37579e-14
3.37017e-14
3.39618e-14
3.45266e-14
3.53819e-14
3.65108e-14
3.78943e-14
3.95107e-14
4.13363e-14
4.33452e-14
4.55092e-14
4.77987e-14
5.01822e-14
5.26269e-14
5.50989e-14
5.75636e-14
5.9986e-14
6.23313e-14
6.45651e-14
6.66541e-14
6.85663e-14
7.02718e-14
7.17433e-14
7.29563e-14
7.38895e-14
7.45258e-14
7.48519e-14
7.48589e-14
7.45424e-14
7.39027e-14
7.29446e-14
7.16776e-14
7.01152e-14
6.82752e-14
6.61789e-14
6.38507e-14
6.13179e-14
5.86096e-14
5.57566e-14
5.27906e-14
4.97433e-14
4.66465e-14
4.35307e-14
4.04251e-14
3.73573e-14
3.43521e-14
3.14322e-14
2.86172e-14
2.59238e-14
2.33657e-14
2.09535e-14
1.86948e-14
1.65943e-14
1.46542e-14
1.28742e-14
1.12518e-14
9.78276e-15
8.46106e-15
7.27954e-15
6.23004e-15
5.30366e-15
4.49108e-15
3.78274e-15
3.16911e-15
2.64078e-15
2.1887e-15
1.80423e-15
1.47925e-15
1.20622e-15
9.78236e-16
7.89015e-16
6.32915e-16
5.04915e-16
4.00589e-16
3.16069e-16
2.48005e-16
1.93524e-16
1.50174e-16
1.15888e-16
8.89332e-17
6.7868e-17
5.15037e-17
3.88671e-17
2.91671e-17
2.17654e-17
1.61512e-17
1.19179e-17
8.74484e-18
6.38058e-18
4.62938e-18
3.33994e-18
2.39611e-18
1.70933e-18
1.21253e-18
8.55287e-19
5.99898e-19
4.18395e-19
2.90151e-19
2.00055e-19
1.37105e-19
9.33346e-20
6.30067e-20
4.20009e-20
2.73601e-20
1.69497e-20
9.20086e-21
2.91191e-21
1.63172e-20
4.99089e-20
8.6439e-20
1.28081e-19
1.77327e-19
2.37121e-19
3.11007e-19
4.03297e-19
5.19274e-19
6.65435e-19
8.49786e-19
1.08221e-18
1.37489e-18
1.74286e-18
2.20463e-18
2.78297e-18
3.50582e-18
4.40736e-18
5.5294e-18
6.92286e-18
8.64966e-18
1.07849e-17
1.34195e-17
1.66631e-17
2.06477e-17
2.55319e-17
3.15055e-17
3.87953e-17
4.76717e-17
5.84557e-17
7.15281e-17
8.73388e-17
1.06418e-16
1.2939e-16
1.56986e-16
1.9006e-16
2.2961e-16
2.76795e-16
3.32959e-16
3.99656e-16
4.78676e-16
5.72079e-16
6.82223e-16
8.11803e-16
9.63887e-16
1.14196e-15
1.34997e-15
1.59235e-15
1.87413e-15
2.20089e-15
2.57891e-15
3.01514e-15
3.51733e-15
4.09402e-15
4.7546e-15
5.5094e-15
6.36967e-15
7.34769e-15
8.45673e-15
9.71111e-15
1.11262e-14
1.27185e-14
1.45055e-14
1.65057e-14
1.87385e-14
2.12243e-14
2.39843e-14
2.70404e-14
3.04149e-14
3.41307e-14
3.82109e-14
4.26782e-14
4.75554e-14
5.28646e-14
5.86269e-14
6.48623e-14
7.15891e-14
7.88237e-14
8.65799e-14
9.48691e-14
1.03699e-13
1.13074e-13
1.22993e-13
1.33453e-13
1.44444e-13
1.55951e-13
1.67954e-13
1.80426e-13
1.93334e-13
2.0664e-13
2.20299e-13
2.34257e-13
2.48458e-13
2.62835e-13
2.77319e-13
2.91834e-13
3.06297e-13
3.20624e-13
3.34723e-13
3.48504e-13
3.6187e-13
3.74725e-13
3.86973e-13
3.98519e-13
4.0927e-13
4.19136e-13
4.28031e-13
4.35876e-13
4.42598e-13
4.48132e-13
4.52422e-13
4.55423e-13
4.57098e-13
4.57424e-13
4.56389e-13
4.53994e-13
4.50251e-13
4.45187e-13
4.38838e-13
4.31255e-13
4.22501e-13
4.12647e-13
4.01776e-13
3.8998e-13
3.7736e-13
3.64023e-13
3.5008e-13
3.35649e-13
3.2085e-13
3.05804e-13
2.90633e-13
2.75457e-13
2.60394e-13
2.4556e-13
2.31064e-13
2.17012e-13
2.03501e-13
1.90622e-13
1.7846e-13
1.67089e-13
1.56576e-13
1.46979e-13
1.38348e-13
1.30722e-13
1.24132e-13
1.186e-13
1.14138e-13
1.10751e-13
1.08434e-13
1.07174e-13
1.06949e-13
1.07729e-13
1.09475e-13
1.12142e-13
1.15676e-13
1.20014e-13
1.25089e-13
1.30824e-13
1.37136e-13
1.43935e-13
1.51129e-13
1.58616e-13
1.66293e-13
1.74053e-13
1.81786e-13
1.89382e-13
1.96732e-13
2.03726e-13
2.10261e-13
2.16235e-13
2.21556e-13
2.26137e-13
2.29901e-13
2.32784e-13
2.34731e-13
2.357e-13
2.35666e-13
2.34614e-13
2.32547e-13
2.2948e-13
2.25443e-13
2.2048e-13
2.14647e-13
2.08012e-13
2.00652e-13
1.92653e-13
1.84106e-13
1.7511e-13
1.65762e-13
1.56164e-13
1.46414e-13
1.36609e-13
1.2684e-13
1.17193e-13
1.07747e-13
9.85718e-14
8.9729e-14
8.12708e-14
7.32395e-14
6.56682e-14
5.85804e-14
5.19908e-14
4.59058e-14
4.03241e-14
3.52377e-14
3.06328e-14
2.64907e-14
2.27887e-14
1.95008e-14
1.65991e-14
1.40543e-14
1.18363e-14
9.91514e-15
8.26131e-15
6.84634e-15
5.64313e-15
4.62623e-15
3.77202e-15
3.05881e-15
2.46693e-15
1.9787e-15
1.57841e-15
1.25218e-15
9.87911e-16
7.75117e-16
6.04799e-16
4.69293e-16
3.62128e-16
2.77883e-16
2.12051e-16
1.60913e-16
1.21427e-16
9.1118e-17
6.79923e-17
5.0452e-17
3.7227e-17
2.73147e-17
1.99292e-17
1.44591e-17
1.04315e-17
7.48345e-18
5.3384e-18
3.78679e-18
2.67105e-18
1.87345e-18
1.30661e-18
9.06107e-19
6.24744e-19
4.28157e-19
2.9147e-19
1.9676e-19
1.31163e-19
8.54424e-20
5.29325e-20
2.87338e-20
9.09401e-21
3.29254e-20
1.00706e-19
1.74409e-19
2.58414e-19
3.57742e-19
4.78324e-19
6.27294e-19
8.13336e-19
1.04708e-18
1.34161e-18
1.71303e-18
2.18121e-18
2.77066e-18
3.51162e-18
4.44129e-18
5.60542e-18
7.06014e-18
8.87414e-18
1.11313e-17
1.3934e-17
1.74064e-17
2.16992e-17
2.69947e-17
3.35129e-17
4.15184e-17
5.1329e-17
6.33249e-17
7.79605e-17
9.57767e-17
1.17416e-16
1.43641e-16
1.7535e-16
2.13605e-16
2.5965e-16
3.14947e-16
3.81203e-16
4.60407e-16
5.5487e-16
6.67272e-16
8.00709e-16
9.58746e-16
1.14548e-15
1.36561e-15
1.62447e-15
1.92819e-15
2.28366e-15
2.69871e-15
3.18216e-15
3.74393e-15
4.39511e-15
5.14808e-15
6.01662e-15
7.01599e-15
8.16304e-15
9.47631e-15
1.09761e-14
1.26846e-14
1.46258e-14
1.68259e-14
1.93128e-14
2.21169e-14
2.527e-14
2.88065e-14
3.27624e-14
3.71755e-14
4.20854e-14
4.75332e-14
5.35612e-14
6.02126e-14
6.75312e-14
7.55614e-14
8.43468e-14
9.39308e-14
1.04355e-13
1.1566e-13
1.27882e-13
1.41056e-13
1.55213e-13
1.70376e-13
1.86565e-13
2.03794e-13
2.22068e-13
2.41385e-13
2.61733e-13
2.8309e-13
3.05426e-13
3.28698e-13
3.52851e-13
3.7782e-13
4.03525e-13
4.29876e-13
4.56769e-13
4.8409e-13
5.1171e-13
5.39492e-13
5.67286e-13
5.94934e-13
6.22269e-13
6.49118e-13
6.75301e-13
7.00636e-13
7.24939e-13
7.48026e-13
7.69717e-13
7.89834e-13
8.08208e-13
8.24679e-13
8.39098e-13
8.51332e-13
8.61259e-13
8.6878e-13
8.73812e-13
8.76293e-13
8.76186e-13
8.73473e-13
8.68162e-13
8.60285e-13
8.49896e-13
8.37077e-13
8.21927e-13
8.0457e-13
7.85151e-13
7.63832e-13
7.40793e-13
7.16227e-13
6.90343e-13
6.63355e-13
6.35488e-13
6.06971e-13
5.78034e-13
5.48909e-13
5.19822e-13
4.90998e-13
4.6265e-13
4.34985e-13
4.08198e-13
3.82472e-13
3.57974e-13
3.34859e-13
3.13265e-13
2.93312e-13
2.75106e-13
2.58733e-13
2.44265e-13
2.31754e-13
2.21237e-13
2.12733e-13
2.06246e-13
2.01762e-13
1.99253e-13
1.98673e-13
1.99964e-13
2.0305e-13
2.07843e-13
2.14239e-13
2.22122e-13
2.3136e-13
2.41811e-13
2.53319e-13
2.65719e-13
2.78834e-13
2.9248e-13
3.06463e-13
3.20587e-13
3.3465e-13
3.48448e-13
3.61781e-13
3.74451e-13
3.86266e-13
3.97043e-13
4.06612e-13
4.14818e-13
4.21523e-13
4.26607e-13
4.29975e-13
4.31553e-13
4.31296e-13
4.2918e-13
4.25212e-13
4.19423e-13
4.1187e-13
4.02635e-13
3.91823e-13
3.79558e-13
3.65982e-13
3.51255e-13
3.35543e-13
3.19026e-13
3.01884e-13
2.843e-13
2.66456e-13
2.48525e-13
2.30674e-13
2.13058e-13
1.95821e-13
1.79088e-13
1.62971e-13
1.47563e-13
1.3294e-13
1.19162e-13
1.0627e-13
9.42894e-14
8.32309e-14
7.30912e-14
6.3855e-14
5.54964e-14
4.79804e-14
4.12652e-14
3.53033e-14
3.00435e-14
2.54319e-14
2.14138e-14
1.79343e-14
1.49399e-14
1.23786e-14
1.02012e-14
8.36145e-15
6.81635e-15
5.52658e-15
4.45646e-15
3.57394e-15
2.85049e-15
2.26102e-15
1.78359e-15
1.39923e-15
1.09163e-15
8.4695e-16
6.53471e-16
5.01394e-16
3.82571e-16
2.90282e-16
2.1903e-16
1.64345e-16
1.22624e-16
9.09836e-17
6.71293e-17
4.92517e-17
3.59327e-17
2.60685e-17
1.88061e-17
1.34908e-17
9.6234e-18
6.82612e-18
4.81473e-18
3.37692e-18
2.35513e-18
1.63321e-18
1.12605e-18
7.71716e-19
5.25347e-19
3.54644e-19
2.36412e-19
1.54005e-19
9.54095e-20
5.17929e-20
1.63923e-20
5.98948e-20
1.8319e-19
3.17242e-19
4.70006e-19
6.50596e-19
8.69775e-19
1.14049e-18
1.4785e-18
1.90307e-18
2.43792e-18
3.11225e-18
3.96205e-18
5.03175e-18
6.37606e-18
8.06236e-18
1.01734e-17
1.28108e-17
1.60988e-17
2.0189e-17
2.52664e-17
3.15554e-17
3.93282e-17
4.89141e-17
6.07098e-17
7.51928e-17
9.29362e-17
1.14625e-16
1.41079e-16
1.73272e-16
2.1236e-16
2.59714e-16
3.16953e-16
3.85981e-16
4.69039e-16
5.68747e-16
6.8817e-16
8.30874e-16
1.001e-15
1.20336e-15
1.44347e-15
1.72774e-15
2.06346e-15
2.45904e-15
2.92402e-15
3.46927e-15
4.10713e-15
4.85152e-15
5.71812e-15
6.72455e-15
7.8905e-15
9.23794e-15
1.07913e-14
1.25775e-14
1.46264e-14
1.69706e-14
1.96461e-14
2.26918e-14
2.615e-14
3.00664e-14
3.44904e-14
3.94746e-14
4.50751e-14
5.13515e-14
5.83664e-14
6.61857e-14
7.48778e-14
8.45137e-14
9.51661e-14
1.06909e-13
1.19819e-13
1.33969e-13
1.49436e-13
1.6629e-13
1.84604e-13
2.04443e-13
2.25869e-13
2.48938e-13
2.73697e-13
3.00187e-13
3.28435e-13
3.5846e-13
3.90265e-13
4.23841e-13
4.59161e-13
4.96182e-13
5.34843e-13
5.75065e-13
6.16745e-13
6.59764e-13
7.0398e-13
7.49229e-13
7.95327e-13
8.42069e-13
8.89232e-13
9.36573e-13
9.83831e-13
1.03073e-12
1.07699e-12
1.12229e-12
1.16635e-12
1.20884e-12
1.24946e-12
1.28789e-12
1.32383e-12
1.35698e-12
1.38706e-12
1.4138e-12
1.43697e-12
1.45634e-12
1.47172e-12
1.48295e-12
1.48991e-12
1.49251e-12
1.49069e-12
1.48444e-12
1.4738e-12
1.45882e-12
1.43962e-12
1.41635e-12
1.38919e-12
1.35836e-12
1.32412e-12
1.28676e-12
1.24658e-12
1.20393e-12
1.15915e-12
1.11262e-12
1.06472e-12
1.01584e-12
9.66362e-13
9.16676e-13
8.67163e-13
8.18192e-13
7.70119e-13
7.23285e-13
6.78009e-13
6.34587e-13
5.93294e-13
5.54377e-13
5.18055e-13
4.84521e-13
4.53938e-13
4.26443e-13
4.0214e-13
3.81108e-13
3.63397e-13
3.49029e-13
3.37999e-13
3.30277e-13
3.25805e-13
3.24503e-13
3.26263e-13
3.30957e-13
3.3843e-13
3.48509e-13
3.60995e-13
3.75671e-13
3.92299e-13
4.10624e-13
4.30371e-13
4.51253e-13
4.72968e-13
4.95204e-13
5.17639e-13
5.39949e-13
5.61808e-13
5.82892e-13
6.02884e-13
6.21478e-13
6.38385e-13
6.53334e-13
6.6608e-13
6.76405e-13
6.84125e-13
6.89089e-13
6.91188e-13
6.90351e-13
6.86549e-13
6.79795e-13
6.70146e-13
6.57697e-13
6.42584e-13
6.24977e-13
6.05079e-13
5.83121e-13
5.59356e-13
5.34056e-13
5.07504e-13
4.79992e-13
4.51809e-13
4.23243e-13
3.94572e-13
3.66058e-13
3.37948e-13
3.10466e-13
2.83811e-13
2.58157e-13
2.33651e-13
2.1041e-13
1.88527e-13
1.68063e-13
1.49058e-13
1.31527e-13
1.15461e-13
1.00834e-13
8.76044e-14
7.57142e-14
6.50958e-14
5.5673e-14
4.73634e-14
4.0081e-14
3.37385e-14
2.82484e-14
2.35253e-14
1.94869e-14
1.6055e-14
1.31562e-14
1.07225e-14
8.69159e-15
7.00705e-15
5.61821e-15
4.48003e-15
3.55287e-15
2.80212e-15
2.19786e-15
1.7144e-15
1.32991e-15
1.02594e-15
7.87062e-16
6.00454e-16
4.55544e-16
3.43683e-16
2.57845e-16
1.92367e-16
1.42716e-16
1.05288e-16
7.72412e-17
5.63485e-17
4.08767e-17
2.94869e-17
2.11514e-17
1.50872e-17
1.07012e-17
7.54765e-18
5.29353e-18
3.69171e-18
2.56003e-18
1.76504e-18
1.20962e-18
8.23452e-19
5.55886e-19
3.70567e-19
2.41402e-19
1.49556e-19
8.1188e-20
2.56963e-20
1.05384e-19
3.2231e-19
5.58131e-19
8.26817e-19
1.14437e-18
1.52968e-18
2.00546e-18
2.59934e-18
3.34514e-18
4.28441e-18
5.46831e-18
6.95992e-18
8.83701e-18
1.11954e-17
1.4153e-17
1.78546e-17
2.24779e-17
2.824e-17
3.54062e-17
4.42993e-17
5.53114e-17
6.89178e-17
8.56926e-17
1.06328e-16
1.31657e-16
1.62678e-16
2.00585e-16
2.46803e-16
3.03028e-16
3.71271e-16
4.53916e-16
5.53773e-16
6.74153e-16
8.18939e-16
9.9268e-16
1.20068e-15
1.44913e-15
1.74519e-15
2.09717e-15
2.51464e-15
3.00862e-15
3.59175e-15
4.27847e-15
5.08525e-15
6.0308e-15
7.13633e-15
8.42575e-15
9.92599e-15
1.16672e-14
1.36832e-14
1.60115e-14
1.86938e-14
2.17762e-14
2.53094e-14
2.93491e-14
3.39561e-14
3.91966e-14
4.51424e-14
5.18708e-14
5.94648e-14
6.80133e-14
7.76107e-14
8.83568e-14
1.00357e-13
1.1372e-13
1.28561e-13
1.44997e-13
1.63149e-13
1.83139e-13
2.05091e-13
2.29128e-13
2.55371e-13
2.83937e-13
3.1494e-13
3.48485e-13
3.84669e-13
4.23578e-13
4.65284e-13
5.09846e-13
5.57302e-13
6.07671e-13
6.6095e-13
7.17112e-13
7.76101e-13
8.37835e-13
9.02199e-13
9.69046e-13
1.0382e-12
1.10944e-12
1.18253e-12
1.25718e-12
1.33308e-12
1.40987e-12
1.48718e-12
1.5646e-12
1.64169e-12
1.71798e-12
1.79301e-12
1.86628e-12
1.93727e-12
2.00549e-12
2.07042e-12
2.13156e-12
2.18841e-12
2.24051e-12
2.2874e-12
2.32867e-12
2.36394e-12
2.39287e-12
2.41516e-12
2.4306e-12
2.43898e-12
2.4402e-12
2.4342e-12
2.42098e-12
2.40062e-12
2.37326e-12
2.3391e-12
2.29841e-12
2.25151e-12
2.1988e-12
2.14069e-12
2.07768e-12
2.01029e-12
1.93908e-12
1.86463e-12
1.78755e-12
1.70846e-12
1.62799e-12
1.54677e-12
1.46542e-12
1.38454e-12
1.30473e-12
1.22654e-12
1.15051e-12
1.07714e-12
1.00689e-12
9.40183e-13
8.77396e-13
8.18863e-13
7.64872e-13
7.15663e-13
6.71433e-13
6.32331e-13
5.98462e-13
5.69886e-13
5.4662e-13
5.28638e-13
5.15874e-13
5.08223e-13
5.05542e-13
5.07648e-13
5.14325e-13
5.25322e-13
5.40352e-13
5.59099e-13
5.81215e-13
6.06322e-13
6.34016e-13
6.63868e-13
6.95429e-13
7.28228e-13
7.61783e-13
7.95598e-13
8.29174e-13
8.62011e-13
8.93617e-13
9.23507e-13
9.51221e-13
9.76318e-13
9.98395e-13
1.01708e-12
1.03206e-12
1.04305e-12
1.04983e-12
1.05226e-12
1.05022e-12
1.04369e-12
1.03269e-12
1.01732e-12
9.97742e-13
9.74157e-13
9.46834e-13
9.16089e-13
8.82276e-13
8.45782e-13
8.07024e-13
7.66431e-13
7.24444e-13
6.81505e-13
6.38045e-13
5.94483e-13
5.51214e-13
5.08607e-13
4.66995e-13
4.26676e-13
3.87907e-13
3.50906e-13
3.15846e-13
2.82859e-13
2.52037e-13
2.23433e-13
1.97065e-13
1.72917e-13
1.50947e-13
1.31087e-13
1.13249e-13
9.7328e-14
8.32073e-14
7.07614e-14
5.98596e-14
5.03693e-14
4.21585e-14
3.5098e-14
2.90637e-14
2.39377e-14
1.96097e-14
1.59775e-14
1.29477e-14
1.04354e-14
8.36488e-15
6.6686e-15
5.28724e-15
4.16905e-15
3.2693e-15
2.54963e-15
1.97742e-15
1.52516e-15
1.16983e-15
8.92319e-16
6.76863e-16
5.10578e-16
3.83002e-16
2.85703e-16
2.11934e-16
1.56335e-16
1.14678e-16
8.36509e-17
6.06771e-17
4.37665e-17
3.13921e-17
2.23903e-17
1.58803e-17
1.12e-17
7.85478e-18
5.47774e-18
3.79846e-18
2.61885e-18
1.79473e-18
1.22176e-18
8.24778e-19
5.49824e-19
3.58184e-19
2.21912e-19
1.20469e-19
3.81296e-20
1.82811e-19
5.59095e-19
9.681e-19
1.43401e-18
1.98452e-18
2.65232e-18
3.47669e-18
4.50542e-18
5.79695e-18
7.42308e-18
9.47221e-18
1.20533e-17
1.53005e-17
1.93793e-17
2.4493e-17
3.08915e-17
3.88809e-17
4.88356e-17
6.12123e-17
7.65672e-17
9.55751e-17
1.19054e-16
1.47991e-16
1.83577e-16
2.27242e-16
2.80702e-16
3.46006e-16
4.256e-16
5.22393e-16
6.39833e-16
7.82002e-16
9.53714e-16
1.16063e-15
1.4094e-15
1.70779e-15
2.06487e-15
2.49119e-15
2.99898e-15
3.60238e-15
4.31772e-15
5.16372e-15
6.16189e-15
7.33677e-15
8.7163e-15
1.03322e-14
1.22204e-14
1.44214e-14
1.69807e-14
1.99493e-14
2.33841e-14
2.73483e-14
3.19122e-14
3.71531e-14
4.31563e-14
5.00149e-14
5.78308e-14
6.67146e-14
7.67859e-14
8.81733e-14
1.01015e-13
1.15458e-13
1.31659e-13
1.49783e-13
1.70001e-13
1.92496e-13
2.17453e-13
2.45065e-13
2.75528e-13
3.09039e-13
3.458e-13
3.86006e-13
4.29851e-13
4.77521e-13
5.29195e-13
5.85036e-13
6.45193e-13
7.09796e-13
7.7895e-13
8.52735e-13
9.312e-13
1.01436e-12
1.10219e-12
1.19463e-12
1.29157e-12
1.39285e-12
1.49826e-12
1.60755e-12
1.72039e-12
1.83643e-12
1.95524e-12
2.07633e-12
2.19917e-12
2.32319e-12
2.44773e-12
2.57214e-12
2.69567e-12
2.81759e-12
2.9371e-12
3.05341e-12
3.16569e-12
3.27313e-12
3.37491e-12
3.47023e-12
3.55832e-12
3.63842e-12
3.70985e-12
3.77197e-12
3.82418e-12
3.86599e-12
3.89697e-12
3.91678e-12
3.92518e-12
3.92201e-12
3.90724e-12
3.88092e-12
3.84323e-12
3.79441e-12
3.73486e-12
3.66504e-12
3.58551e-12
3.49693e-12
3.40001e-12
3.29556e-12
3.18445e-12
3.06757e-12
2.94589e-12
2.82037e-12
2.69202e-12
2.56183e-12
2.43079e-12
2.29989e-12
2.17008e-12
2.04226e-12
1.91732e-12
1.79607e-12
1.67928e-12
1.56765e-12
1.46182e-12
1.36234e-12
1.26971e-12
1.18434e-12
1.10659e-12
1.03673e-12
9.7496e-13
9.21407e-13
8.76134e-13
8.39138e-13
8.1035e-13
7.8964e-13
7.76818e-13
7.71635e-13
7.73791e-13
7.82929e-13
7.98642e-13
8.20477e-13
8.4793e-13
8.80457e-13
9.17471e-13
9.58345e-13
1.00242e-12
1.04901e-12
1.0974e-12
1.14685e-12
1.19662e-12
1.24596e-12
1.29411e-12
1.34035e-12
1.38395e-12
1.42422e-12
1.46054e-12
1.49228e-12
1.51893e-12
1.54001e-12
1.55513e-12
1.56398e-12
1.56633e-12
1.56206e-12
1.55113e-12
1.53361e-12
1.50964e-12
1.47948e-12
1.44344e-12
1.40193e-12
1.35544e-12
1.30449e-12
1.24966e-12
1.19158e-12
1.13088e-12
1.06823e-12
1.00426e-12
9.39615e-13
8.74914e-13
8.10736e-13
7.47616e-13
6.86042e-13
6.26447e-13
5.69203e-13
5.14622e-13
4.62952e-13
4.1438e-13
3.69034e-13
3.26984e-13
2.88251e-13
2.52807e-13
2.20582e-13
1.91471e-13
1.65341e-13
1.42035e-13
1.21376e-13
1.03178e-13
8.72465e-14
7.33854e-14
6.13993e-14
5.10976e-14
4.22974e-14
3.48253e-14
2.85193e-14
2.32293e-14
1.88184e-14
1.51625e-14
1.21506e-14
9.6839e-15
7.67589e-15
6.05099e-15
4.74392e-15
3.69878e-15
2.86803e-15
2.21161e-15
1.69602e-15
1.29343e-15
9.80947e-16
7.39832e-16
5.54884e-16
4.13858e-16
3.06956e-16
2.264e-16
1.66054e-16
1.21113e-16
8.78416e-17
6.33545e-17
4.54382e-17
3.24062e-17
2.29827e-17
1.62082e-17
1.13666e-17
7.9265e-18
5.49635e-18
3.78938e-18
2.59689e-18
1.76782e-18
1.19342e-18
7.95582e-19
5.18295e-19
3.21116e-19
1.74328e-19
5.51773e-20
3.14462e-19
9.61694e-19
1.66511e-18
2.46623e-18
3.41258e-18
4.56024e-18
5.97662e-18
7.74361e-18
9.96141e-18
1.2753e-17
1.62699e-17
2.06986e-17
2.62689e-17
3.32638e-17
4.20313e-17
5.29985e-17
6.66888e-17
8.37421e-17
1.04939e-16
1.31228e-16
1.63762e-16
2.03936e-16
2.53434e-16
3.14286e-16
3.8893e-16
4.80285e-16
5.91844e-16
7.27767e-16
8.93e-16
1.09341e-15
1.33592e-15
1.62871e-15
1.98139e-15
2.40523e-15
2.9134e-15
3.52125e-15
4.24665e-15
5.11027e-15
6.13603e-15
7.35146e-15
8.78821e-15
1.04825e-14
1.24757e-14
1.48148e-14
1.75531e-14
2.07511e-14
2.44766e-14
2.88059e-14
3.38245e-14
3.96274e-14
4.63204e-14
5.40205e-14
6.28567e-14
7.29708e-14
8.45176e-14
9.7666e-14
1.12599e-13
1.29515e-13
1.48625e-13
1.70158e-13
1.94356e-13
2.21473e-13
2.51781e-13
2.85561e-13
3.23107e-13
3.64721e-13
4.10715e-13
4.61405e-13
5.17109e-13
5.78145e-13
6.44826e-13
7.17459e-13
7.96334e-13
8.81728e-13
9.73893e-13
1.07305e-12
1.1794e-12
1.29308e-12
1.41421e-12
1.54283e-12
1.67895e-12
1.82249e-12
1.97332e-12
2.13123e-12
2.29594e-12
2.46707e-12
2.64417e-12
2.8267e-12
3.01402e-12
3.20542e-12
3.40009e-12
3.59713e-12
3.79558e-12
3.99439e-12
4.19245e-12
4.38857e-12
4.58153e-12
4.77008e-12
4.9529e-12
5.12871e-12
5.29618e-12
5.45404e-12
5.60102e-12
5.73591e-12
5.85756e-12
5.96489e-12
6.05694e-12
6.13283e-12
6.1918e-12
6.23326e-12
6.25672e-12
6.26186e-12
6.24854e-12
6.21675e-12
6.16666e-12
6.09861e-12
6.01311e-12
5.91082e-12
5.79254e-12
5.65924e-12
5.51199e-12
5.35202e-12
5.18063e-12
4.99921e-12
4.80924e-12
4.61224e-12
4.40977e-12
4.2034e-12
3.99471e-12
3.78527e-12
3.57658e-12
3.37013e-12
3.16732e-12
2.96951e-12
2.77792e-12
2.59372e-12
2.41796e-12
2.25158e-12
2.09541e-12
1.95017e-12
1.81645e-12
1.69475e-12
1.58542e-12
1.48874e-12
1.40485e-12
1.3338e-12
1.27553e-12
1.22989e-12
1.19664e-12
1.17545e-12
1.16589e-12
1.16747e-12
1.17961e-12
1.20167e-12
1.23293e-12
1.2726e-12
1.31983e-12
1.37372e-12
1.43332e-12
1.49761e-12
1.56557e-12
1.6361e-12
1.7081e-12
1.78048e-12
1.85209e-12
1.92185e-12
1.98865e-12
2.05144e-12
2.10923e-12
2.16106e-12
2.20608e-12
2.24351e-12
2.27268e-12
2.29303e-12
2.30413e-12
2.30568e-12
2.29751e-12
2.27958e-12
2.25203e-12
2.21508e-12
2.16913e-12
2.11466e-12
2.0523e-12
1.98276e-12
1.90682e-12
1.82536e-12
1.73928e-12
1.64952e-12
1.55705e-12
1.46282e-12
1.36774e-12
1.27273e-12
1.17861e-12
1.08616e-12
9.96084e-13
9.09002e-13
8.25446e-13
7.45857e-13
6.70585e-13
5.99892e-13
5.33952e-13
4.72858e-13
4.16627e-13
3.6521e-13
3.18497e-13
2.7633e-13
2.38506e-13
2.04791e-13
1.74925e-13
1.48633e-13
1.2563e-13
1.05627e-13
8.83393e-14
7.34889e-14
6.08094e-14
5.00489e-14
4.09717e-14
3.33606e-14
2.70171e-14
2.17615e-14
1.74333e-14
1.38901e-14
1.10068e-14
8.67447e-15
6.79896e-15
5.29975e-15
4.10845e-15
3.16742e-15
2.42848e-15
1.85166e-15
1.40404e-15
1.05874e-15
7.93934e-16
5.92058e-16
4.39061e-16
3.23791e-16
2.37455e-16
1.7317e-16
1.25584e-16
9.05672e-17
6.49495e-17
4.6318e-17
3.28467e-17
2.31633e-17
1.62433e-17
1.13268e-17
7.85394e-18
5.41467e-18
3.71066e-18
2.52601e-18
1.70526e-18
1.13682e-18
7.40614e-19
4.58868e-19
2.49118e-19
7.88504e-20
5.37328e-19
1.64321e-18
2.84493e-18
4.21328e-18
5.82931e-18
7.78858e-18
1.02059e-17
1.32209e-17
1.7004e-17
2.17648e-17
2.77608e-17
3.53095e-17
4.48016e-17
5.67182e-17
7.16507e-17
9.03248e-17
1.13629e-16
1.4265e-16
1.78712e-16
2.23426e-16
2.78745e-16
3.47034e-16
4.31147e-16
5.34522e-16
6.61284e-16
8.16377e-16
1.0057e-15
1.2363e-15
1.51652e-15
1.85627e-15
2.26725e-15
2.76324e-15
3.36046e-15
4.07788e-15
4.93768e-15
5.9657e-15
7.19198e-15
8.65126e-15
1.03837e-14
1.24355e-14
1.48597e-14
1.7717e-14
2.10766e-14
2.50172e-14
2.96279e-14
3.50093e-14
4.12748e-14
4.85514e-14
5.69812e-14
6.67223e-14
7.79502e-14
9.0859e-14
1.05662e-13
1.22594e-13
1.4191e-13
1.63889e-13
1.88832e-13
2.17064e-13
2.48933e-13
2.84812e-13
3.25095e-13
3.702e-13
4.20566e-13
4.76649e-13
5.38925e-13
6.07881e-13
6.84018e-13
7.67841e-13
8.59857e-13
9.60571e-13
1.07048e-12
1.19005e-12
1.31975e-12
1.46e-12
1.61118e-12
1.77363e-12
1.94761e-12
2.13335e-12
2.33097e-12
2.54052e-12
2.76195e-12
2.99511e-12
3.23972e-12
3.49539e-12
3.76162e-12
4.03774e-12
4.32298e-12
4.61641e-12
4.91695e-12
5.2234e-12
5.53443e-12
5.84854e-12
6.16414e-12
6.47951e-12
6.79285e-12
7.10224e-12
7.4057e-12
7.70121e-12
7.9867e-12
8.26009e-12
8.51933e-12
8.76239e-12
8.9873e-12
9.19218e-12
9.37526e-12
9.53492e-12
9.66967e-12
9.77824e-12
9.85952e-12
9.91266e-12
9.937e-12
9.93217e-12
9.89802e-12
9.83469e-12
9.74257e-12
9.62231e-12
9.47482e-12
9.30124e-12
9.10297e-12
8.88162e-12
8.63897e-12
8.37702e-12
8.09789e-12
7.80384e-12
7.49722e-12
7.18045e-12
6.85601e-12
6.52637e-12
6.194e-12
5.86133e-12
5.5307e-12
5.2044e-12
4.88458e-12
4.57326e-12
4.27235e-12
3.98357e-12
3.70848e-12
3.44847e-12
3.20476e-12
2.97836e-12
2.77013e-12
2.58074e-12
2.41067e-12
2.26025e-12
2.12962e-12
2.01878e-12
1.92758e-12
1.85571e-12
1.80274e-12
1.76809e-12
1.75106e-12
1.75086e-12
1.76655e-12
1.79711e-12
1.84141e-12
1.89824e-12
1.96629e-12
2.04417e-12
2.13044e-12
2.22356e-12
2.32197e-12
2.42406e-12
2.52818e-12
2.63268e-12
2.73591e-12
2.83623e-12
2.93205e-12
3.02182e-12
3.10409e-12
3.1775e-12
3.2408e-12
3.29288e-12
3.33279e-12
3.35974e-12
3.37314e-12
3.37257e-12
3.35782e-12
3.3289e-12
3.286e-12
3.22951e-12
3.16002e-12
3.07828e-12
2.98521e-12
2.88188e-12
2.76944e-12
2.64918e-12
2.52242e-12
2.39055e-12
2.25496e-12
2.11703e-12
1.97809e-12
1.83945e-12
1.70231e-12
1.56777e-12
1.43685e-12
1.31042e-12
1.18924e-12
1.07394e-12
9.64991e-13
8.62769e-13
7.67504e-13
6.79314e-13
5.98212e-13
5.24111e-13
4.56841e-13
3.9616e-13
3.41768e-13
2.93317e-13
2.50426e-13
2.1269e-13
1.79695e-13
1.5102e-13
1.26251e-13
1.04985e-13
8.68379e-14
7.14447e-14
5.8466e-14
4.75884e-14
3.85264e-14
3.10218e-14
2.48441e-14
1.97888e-14
1.56765e-14
1.23512e-14
9.67815e-15
7.54215e-15
5.84538e-15
4.50547e-15
3.45361e-15
2.63275e-15
1.99592e-15
1.50477e-15
1.12821e-15
8.41201e-16
6.23726e-16
4.59909e-16
3.37234e-16
2.45906e-16
1.78314e-16
1.28581e-16
9.22023e-17
6.57477e-17
4.66221e-17
3.28756e-17
2.30529e-17
1.60746e-17
1.11456e-17
7.68386e-18
5.26565e-18
3.58455e-18
2.41987e-18
1.61324e-18
1.05102e-18
6.51202e-19
3.53544e-19
1.11905e-19
9.12544e-19
2.79058e-18
4.83107e-18
7.15404e-18
9.89681e-18
1.32213e-17
1.7322e-17
2.2435e-17
2.88491e-17
3.69187e-17
4.70794e-17
5.98681e-17
7.59451e-17
9.61236e-17
1.21403e-16
1.53007e-16
1.92438e-16
2.41529e-16
3.02512e-16
3.78105e-16
4.71601e-16
5.86984e-16
7.29062e-16
9.03621e-16
1.11761e-15
1.37933e-15
1.69872e-15
2.0876e-15
2.56001e-15
3.13257e-15
3.82491e-15
4.66015e-15
5.66546e-15
6.87263e-15
8.3188e-15
1.00472e-14
1.2108e-14
1.45593e-14
1.74681e-14
2.09116e-14
2.49781e-14
2.97686e-14
3.53985e-14
4.19984e-14
4.97164e-14
5.87197e-14
6.9196e-14
8.13558e-14
9.54342e-14
1.11692e-13
1.3042e-13
1.51937e-13
1.76595e-13
2.04779e-13
2.36908e-13
2.7344e-13
3.14868e-13
3.61721e-13
4.14568e-13
4.74015e-13
5.40703e-13
6.1531e-13
6.98542e-13
7.91139e-13
8.93863e-13
1.0075e-12
1.13284e-12
1.27069e-12
1.42186e-12
1.58714e-12
1.76731e-12
1.96311e-12
2.17524e-12
2.40434e-12
2.65099e-12
2.91569e-12
3.19883e-12
3.50069e-12
3.82141e-12
4.16101e-12
4.51934e-12
4.89607e-12
5.29069e-12
5.7025e-12
6.13058e-12
6.57381e-12
7.03085e-12
7.50012e-12
7.97984e-12
8.468e-12
8.96237e-12
9.46052e-12
9.95984e-12
1.04575e-11
1.09507e-11
1.14362e-11
1.19109e-11
1.23716e-11
1.2815e-11
1.32378e-11
1.36368e-11
1.40088e-11
1.43507e-11
1.46598e-11
1.49332e-11
1.51686e-11
1.53636e-11
1.55165e-11
1.56256e-11
1.56898e-11
1.57082e-11
1.56804e-11
1.56064e-11
1.54864e-11
1.53215e-11
1.51126e-11
1.48616e-11
1.45702e-11
1.4241e-11
1.38764e-11
1.34796e-11
1.30536e-11
1.2602e-11
1.21284e-11
1.16365e-11
1.11301e-11
1.06131e-11
1.00894e-11
9.56289e-12
9.03724e-12
8.5161e-12
8.00295e-12
7.50108e-12
7.01355e-12
6.5432e-12
6.09261e-12
5.66408e-12
5.25966e-12
4.88108e-12
4.52981e-12
4.20704e-12
3.91366e-12
3.6503e-12
3.41733e-12
3.21488e-12
3.0428e-12
2.90077e-12
2.78821e-12
2.70435e-12
2.64823e-12
2.61872e-12
2.61451e-12
2.63413e-12
2.67597e-12
2.73827e-12
2.81916e-12
2.91664e-12
3.02859e-12
3.15281e-12
3.28701e-12
3.42884e-12
3.57589e-12
3.72573e-12
3.8759e-12
4.02398e-12
4.16757e-12
4.30434e-12
4.43205e-12
4.54858e-12
4.65198e-12
4.74045e-12
4.81242e-12
4.86654e-12
4.90172e-12
4.91711e-12
4.91219e-12
4.88669e-12
4.84066e-12
4.77444e-12
4.68865e-12
4.58417e-12
4.46214e-12
4.32394e-12
4.17112e-12
4.00542e-12
3.82868e-12
3.64287e-12
3.44998e-12
3.25202e-12
3.051e-12
2.84885e-12
2.64741e-12
2.44843e-12
2.25348e-12
2.06399e-12
1.88122e-12
1.70622e-12
1.53987e-12
1.38285e-12
1.23566e-12
1.0986e-12
9.71838e-13
8.55354e-13
7.49008e-13
6.52539e-13
5.65582e-13
4.8769e-13
4.18354e-13
3.57013e-13
3.0308e-13
2.5595e-13
2.15015e-13
1.79676e-13
1.49352e-13
1.23487e-13
1.01559e-13
8.30796e-14
6.75989e-14
5.47078e-14
4.40368e-14
3.52561e-14
2.80736e-14
2.22332e-14
1.75122e-14
1.37185e-14
1.06881e-14
8.28151e-15
6.38169e-15
4.89072e-15
3.72749e-15
2.8253e-15
2.12966e-15
1.59645e-15
1.19012e-15
8.82303e-16
6.50479e-16
4.76907e-16
3.47711e-16
2.52107e-16
1.81774e-16
1.30334e-16
9.29309e-17
6.5893e-17
4.64616e-17
3.25778e-17
2.27153e-17
1.57496e-17
1.08575e-17
7.44043e-18
5.06498e-18
3.4193e-18
2.27955e-18
1.48514e-18
9.20208e-19
4.99601e-19
1.58138e-19
1.54057e-18
4.71095e-18
8.15511e-18
1.20753e-17
1.67028e-17
2.23104e-17
2.92253e-17
3.78452e-17
4.86558e-17
6.22531e-17
7.93699e-17
1.00908e-16
1.27978e-16
1.61946e-16
2.04489e-16
2.57664e-16
3.23991e-16
4.06543e-16
5.09069e-16
6.3612e-16
7.93218e-16
9.87038e-16
1.22563e-15
1.51868e-15
1.87781e-15
2.31692e-15
2.85262e-15
3.50465e-15
4.29645e-15
5.25579e-15
6.41541e-15
7.81388e-15
9.49646e-15
1.15161e-14
1.39347e-14
1.6824e-14
2.02676e-14
2.4362e-14
2.92183e-14
3.49646e-14
4.17474e-14
4.97341e-14
5.91153e-14
7.01073e-14
8.29548e-14
9.79334e-14
1.15353e-13
1.3556e-13
1.58942e-13
1.85927e-13
2.16992e-13
2.52661e-13
2.93509e-13
3.40166e-13
3.93318e-13
4.5371e-13
5.22143e-13
5.9948e-13
6.86642e-13
7.84611e-13
8.94422e-13
1.01717e-12
1.15398e-12
1.30606e-12
1.47461e-12
1.66088e-12
1.86615e-12
2.09168e-12
2.33874e-12
2.60858e-12
2.90241e-12
3.22136e-12
3.56653e-12
3.93888e-12
4.33927e-12
4.76841e-12
5.22686e-12
5.71497e-12
6.23289e-12
6.78053e-12
7.35753e-12
7.96325e-12
8.59676e-12
9.25681e-12
9.94182e-12
1.06499e-11
1.13786e-11
1.21255e-11
1.28876e-11
1.36615e-11
1.44435e-11
1.52298e-11
1.6016e-11
1.67977e-11
1.75702e-11
1.83284e-11
1.90674e-11
1.97821e-11
2.04673e-11
2.11178e-11
2.17286e-11
2.22948e-11
2.28117e-11
2.32748e-11
2.36802e-11
2.4024e-11
2.43031e-11
2.45146e-11
2.46565e-11
2.47269e-11
2.47249e-11
2.46501e-11
2.45027e-11
2.42837e-11
2.39945e-11
2.36373e-11
2.3215e-11
2.27308e-11
2.21886e-11
2.15928e-11
2.09483e-11
2.02603e-11
1.95341e-11
1.87756e-11
1.79908e-11
1.71856e-11
1.63661e-11
1.55383e-11
1.47083e-11
1.38817e-11
1.30641e-11
1.22608e-11
1.14768e-11
1.07166e-11
9.98464e-12
9.28458e-12
8.61986e-12
7.99343e-12
7.4078e-12
6.86502e-12
6.36673e-12
5.91411e-12
5.50794e-12
5.14862e-12
4.83613e-12