/*--------------------------------*- C++ -*----------------------------------*\
| =========                 |                                                 |
| \\      /  F ield         | OpenFOAM: The Open Source CFD Toolbox           |
|  \\    /   O peration     | Version:  v2012                                 |
|   \\  /    A nd           | Website:  www.openfoam.com                      |
|    \\/     M anipulation  |                                                 |
\*---------------------------------------------------------------------------*/
FoamFile
{
    version     2.0;
    format      ascii;
    class       surfaceScalarField;
    location    "11.8";
    object      phi;
}
// * * * * * * * * * * * * * * * * * * * * * * * * * * * * * * * * * * * * * //

dimensions      [0 3 -1 0 0 0 0];
oriented        oriented;


internalField   nonuniform List<scalar> 
130560
(
3.59917e-06
-3.59917e-06
7.1985e-06
-3.59932e-06
1.07981e-05
-3.59962e-06
1.43982e-05
-3.60007e-06
1.79988e-05
-3.60066e-06
2.16002e-05
-3.60139e-06
2.52025e-05
-3.60226e-06
2.88057e-05
-3.60326e-06
3.24101e-05
-3.6044e-06
3.60158e-05
-3.60565e-06
3.96228e-05
-3.60703e-06
4.32313e-05
-3.60852e-06
4.68414e-05
-3.6101e-06
5.04532e-05
-3.61179e-06
5.40668e-05
-3.61356e-06
5.76822e-05
-3.6154e-06
6.12995e-05
-3.61731e-06
6.49188e-05
-3.61927e-06
6.854e-05
-3.62127e-06
7.21633e-05
-3.6233e-06
7.57887e-05
-3.62534e-06
7.94161e-05
-3.62739e-06
8.30455e-05
-3.62941e-06
8.66769e-05
-3.63141e-06
9.03102e-05
-3.63335e-06
9.39455e-05
-3.63524e-06
9.75825e-05
-3.63703e-06
0.000101221
-3.63872e-06
0.000104862
-3.64029e-06
0.000108503
-3.64172e-06
0.000112146
-3.64297e-06
0.00011579
-3.64404e-06
0.000119435
-3.6449e-06
0.000123081
-3.64553e-06
0.000126727
-3.64589e-06
0.000130373
-3.64597e-06
0.000134018
-3.64573e-06
0.000137663
-3.64516e-06
0.000141308
-3.64422e-06
0.000144951
-3.64289e-06
0.000148592
-3.64113e-06
0.000152231
-3.63892e-06
0.000155867
-3.63623e-06
0.0001595
-3.63302e-06
0.000163129
-3.62927e-06
0.000166754
-3.62494e-06
0.000170374
-3.62e-06
0.000173988
-3.61442e-06
0.000177597
-3.60816e-06
0.000181198
-3.60119e-06
0.000184791
-3.59348e-06
0.000188376
-3.58499e-06
0.000191952
-3.57568e-06
0.000195518
-3.56553e-06
0.000199072
-3.5545e-06
0.000202615
-3.54254e-06
0.000206144
-3.52964e-06
0.00020966
-3.51575e-06
0.000213161
-3.50083e-06
0.000216646
-3.48486e-06
0.000220113
-3.46781e-06
0.000223563
-3.44963e-06
0.000226993
-3.43029e-06
0.000230403
-3.40977e-06
0.000233791
-3.38802e-06
0.000237156
-3.36503e-06
0.000240497
-3.34076e-06
0.000243812
-3.31519e-06
0.0002471
-3.28828e-06
0.00025036
-3.26001e-06
0.000253591
-3.23035e-06
0.00025679
-3.19928e-06
0.000259957
-3.16679e-06
0.00026309
-3.13284e-06
0.000266187
-3.09743e-06
0.000269248
-3.06053e-06
0.00027227
-3.02213e-06
0.000275252
-2.98223e-06
0.000278193
-2.9408e-06
0.000281091
-2.89784e-06
0.000283944
-2.85334e-06
0.000286751
-2.80731e-06
0.000289511
-2.75974e-06
0.000292222
-2.71063e-06
0.000294882
-2.65999e-06
0.00029749
-2.60783e-06
0.000300044
-2.55415e-06
0.000302543
-2.49897e-06
0.000304985
-2.4423e-06
0.000307369
-2.38416e-06
0.000309694
-2.32458e-06
0.000311957
-2.26357e-06
0.000314158
-2.20117e-06
0.000316296
-2.1374e-06
0.000318368
-2.07229e-06
0.000320374
-2.00589e-06
0.000322312
-1.93822e-06
0.000324182
-1.86933e-06
0.000325981
-1.79926e-06
0.000327709
-1.72806e-06
0.000329365
-1.65577e-06
0.000330947
-1.58245e-06
0.000332455
-1.50814e-06
0.000333888
-1.4329e-06
0.000335245
-1.3568e-06
0.000336525
-1.27988e-06
0.000337727
-1.2022e-06
0.000338851
-1.12383e-06
0.000339896
-1.04484e-06
0.000340861
-9.65273e-07
0.000341746
-8.8521e-07
0.000342551
-8.04713e-07
0.000343275
-7.23849e-07
0.000343917
-6.42685e-07
0.000344479
-5.61291e-07
0.000344958
-4.79733e-07
0.000345356
-3.98081e-07
0.000345673
-3.16402e-07
0.000345908
-2.34765e-07
0.000346061
-1.53238e-07
0.000346133
-7.18865e-08
0.000346124
9.22184e-09
0.000346034
9.0022e-08
0.000345863
1.7045e-07
0.000345613
2.50441e-07
0.000345283
3.29935e-07
0.000344874
4.08872e-07
0.000344387
4.87191e-07
0.000343822
5.64836e-07
0.00034318
6.41751e-07
0.000342462
7.17884e-07
0.000341669
7.93183e-07
0.000340801
8.67598e-07
0.00033986
9.41082e-07
0.000338847
1.01359e-06
0.000337762
1.08508e-06
0.000336606
1.15551e-06
0.000335381
1.22485e-06
0.000334088
1.29305e-06
0.000332728
1.36009e-06
0.000331302
1.42593e-06
0.000329812
1.49055e-06
0.000328258
1.55391e-06
0.000326642
1.61601e-06
0.000324965
1.67681e-06
0.000323229
1.7363e-06
0.000321434
1.79446e-06
0.000319583
1.85127e-06
0.000317676
1.90673e-06
0.000315715
1.96083e-06
0.000313702
2.01356e-06
0.000311637
2.06491e-06
0.000309522
2.11488e-06
0.000307359
2.16347e-06
0.000305148
2.21069e-06
0.000302891
2.25653e-06
0.00030059
2.301e-06
0.000298246
2.3441e-06
0.00029586
2.38585e-06
0.000293434
2.42625e-06
0.000290969
2.46531e-06
0.000288466
2.50305e-06
0.000285926
2.53948e-06
0.000283352
2.57462e-06
0.000280743
2.60848e-06
0.000278102
2.64108e-06
0.00027543
2.67243e-06
0.000272727
2.70257e-06
0.000269996
2.7315e-06
0.000267236
2.75925e-06
0.000264451
2.78584e-06
0.000261639
2.81129e-06
0.000258804
2.83563e-06
0.000255945
2.85887e-06
0.000253064
2.88105e-06
0.000250162
2.90219e-06
0.000247239
2.92231e-06
0.000244298
2.94144e-06
0.000241338
2.9596e-06
0.000238361
2.97682e-06
0.000235368
2.99312e-06
0.00023236
3.00853e-06
0.000229337
3.02308e-06
0.0002263
3.03679e-06
0.00022325
3.04968e-06
0.000220188
3.06179e-06
0.000217115
3.07313e-06
0.000214031
3.08374e-06
0.000210938
3.09363e-06
0.000207835
3.10284e-06
0.000204724
3.11139e-06
0.000201604
3.1193e-06
0.000198478
3.12659e-06
0.000195344
3.13329e-06
0.000192205
3.13943e-06
0.00018906
3.14503e-06
0.00018591
3.1501e-06
0.000182755
3.15468e-06
0.000179596
3.15878e-06
0.000176434
3.16242e-06
0.000173268
3.16564e-06
0.0001701
3.16844e-06
0.000166929
3.17085e-06
0.000163756
3.17289e-06
0.000160582
3.17457e-06
0.000157406
3.17593e-06
0.000154229
3.17697e-06
0.000151051
3.17771e-06
0.000147873
3.17818e-06
0.000144694
3.17838e-06
0.000141516
3.17834e-06
0.000138338
3.17807e-06
0.00013516
3.1776e-06
0.000131984
3.17692e-06
0.000128807
3.17607e-06
0.000125632
3.17505e-06
0.000122459
3.17388e-06
0.000119286
3.17257e-06
0.000116115
3.17113e-06
0.000112945
3.16959e-06
0.000109777
3.16794e-06
0.000106611
3.16621e-06
0.000103447
3.16441e-06
0.000100284
3.16254e-06
9.71235e-05
3.16061e-06
9.39649e-05
3.15865e-06
9.08082e-05
3.15665e-06
8.76536e-05
3.15463e-06
8.4501e-05
3.1526e-06
8.13504e-05
3.15057e-06
7.82019e-05
3.14853e-06
7.50554e-05
3.14652e-06
7.19109e-05
3.14452e-06
6.87683e-05
3.14255e-06
6.56277e-05
3.14062e-06
6.2489e-05
3.13873e-06
5.93521e-05
3.13688e-06
5.6217e-05
3.1351e-06
5.30836e-05
3.13337e-06
4.99519e-05
3.13171e-06
4.68218e-05
3.13012e-06
4.36932e-05
3.12861e-06
4.0566e-05
3.12717e-06
3.74402e-05
3.12583e-06
3.43156e-05
3.12457e-06
3.11922e-05
3.1234e-06
2.80699e-05
3.12233e-06
2.49485e-05
3.12136e-06
2.1828e-05
3.12049e-06
1.87083e-05
3.11973e-06
1.55892e-05
3.11907e-06
1.24707e-05
3.11851e-06
9.35265e-06
3.11807e-06
6.23492e-06
3.11773e-06
3.1174e-06
3.11751e-06
3.1174e-06
3.59903e-06
-7.1982e-06
7.19821e-06
-7.1985e-06
1.07977e-05
-7.1991e-06
1.43976e-05
-7.19999e-06
1.79981e-05
-7.20117e-06
2.15994e-05
-7.20264e-06
2.52015e-05
-7.20438e-06
2.88046e-05
-7.20639e-06
3.24089e-05
-7.20867e-06
3.60144e-05
-7.21119e-06
3.96214e-05
-7.21395e-06
4.32298e-05
-7.21693e-06
4.68398e-05
-7.22012e-06
5.04515e-05
-7.22349e-06
5.4065e-05
-7.22704e-06
5.76803e-05
-7.23074e-06
6.12976e-05
-7.23456e-06
6.49168e-05
-7.2385e-06
6.8538e-05
-7.24251e-06
7.21613e-05
-7.24659e-06
7.57867e-05
-7.25069e-06
7.94141e-05
-7.25479e-06
8.30435e-05
-7.25886e-06
8.6675e-05
-7.26287e-06
9.03084e-05
-7.26678e-06
9.39437e-05
-7.27056e-06
9.75809e-05
-7.27417e-06
0.00010122
-7.27757e-06
0.00010486
-7.28073e-06
0.000108502
-7.2836e-06
0.000112145
-7.28614e-06
0.000115789
-7.2883e-06
0.000119435
-7.29004e-06
0.00012308
-7.29131e-06
0.000126727
-7.29206e-06
0.000130373
-7.29224e-06
0.000134019
-7.2918e-06
0.000137664
-7.29069e-06
0.000141309
-7.28884e-06
0.000144952
-7.2862e-06
0.000148594
-7.28272e-06
0.000152233
-7.27833e-06
0.00015587
-7.27298e-06
0.000159504
-7.2666e-06
0.000163134
-7.25912e-06
0.000166759
-7.2505e-06
0.00017038
-7.24065e-06
0.000173995
-7.22952e-06
0.000177604
-7.21704e-06
0.000181206
-7.20313e-06
0.0001848
-7.18774e-06
0.000188386
-7.17079e-06
0.000191962
-7.15222e-06
0.000195529
-7.13195e-06
0.000199084
-7.10991e-06
0.000202628
-7.08604e-06
0.000206158
-7.06026e-06
0.000209675
-7.03251e-06
0.000213177
-7.00272e-06
0.000216663
-6.97082e-06
0.000220132
-6.93673e-06
0.000223582
-6.9004e-06
0.000227014
-6.86176e-06
0.000230425
-6.82075e-06
0.000233814
-6.7773e-06
0.000237181
-6.73135e-06
0.000240523
-6.68284e-06
0.000243839
-6.63171e-06
0.000247129
-6.57791e-06
0.00025039
-6.5214e-06
0.000253622
-6.46211e-06
0.000256823
-6.4e-06
0.000259991
-6.33503e-06
0.000263125
-6.26715e-06
0.000266224
-6.19634e-06
0.000269286
-6.12256e-06
0.00027231
-6.04578e-06
0.000275293
-5.96597e-06
0.000278236
-5.88312e-06
0.000281135
-5.79721e-06
0.00028399
-5.70822e-06
0.000286799
-5.61616e-06
0.00028956
-5.52101e-06
0.000292272
-5.4228e-06
0.000294934
-5.32151e-06
0.000297543
-5.21717e-06
0.000300099
-5.1098e-06
0.000302599
-4.99942e-06
0.000305043
-4.88607e-06
0.000307429
-4.76977e-06
0.000309755
-4.65058e-06
0.00031202
-4.52854e-06
0.000314222
-4.4037e-06
0.000316361
-4.27613e-06
0.000318434
-4.14588e-06
0.000320442
-4.01303e-06
0.000322381
-3.87765e-06
0.000324252
-3.73983e-06
0.000326052
-3.59965e-06
0.000327781
-3.4572e-06
0.000329438
-3.31257e-06
0.000331021
-3.16587e-06
0.00033253
-3.01721e-06
0.000333964
-2.86668e-06
0.000335322
-2.71441e-06
0.000336602
-2.5605e-06
0.000337805
-2.40509e-06
0.00033893
-2.24829e-06
0.000339975
-2.09023e-06
0.000340941
-1.93104e-06
0.000341827
-1.77085e-06
0.000342632
-1.60979e-06
0.000343356
-1.44799e-06
0.000343999
-1.2856e-06
0.00034456
-1.12274e-06
0.00034504
-9.59558e-07
0.000345438
-7.96185e-07
0.000345754
-6.3276e-07
0.000345989
-4.69419e-07
0.000346142
-3.06296e-07
0.000346214
-1.43528e-07
0.000346204
1.87543e-08
0.000346114
1.80419e-07
0.000345943
3.41337e-07
0.000345692
5.01383e-07
0.000345362
6.60431e-07
0.000344952
8.18362e-07
0.000344464
9.75057e-07
0.000343899
1.1304e-06
0.000343256
1.28429e-06
0.000342537
1.4366e-06
0.000341743
1.58725e-06
0.000340875
1.73613e-06
0.000339933
1.88314e-06
0.000338918
2.0282e-06
0.000337832
2.17122e-06
0.000336675
2.31212e-06
0.000335449
2.45083e-06
0.000334155
2.58727e-06
0.000332794
2.72137e-06
0.000331367
2.85308e-06
0.000329875
2.98235e-06
0.00032832
3.1091e-06
0.000326702
3.23331e-06
0.000325024
3.35493e-06
0.000323287
3.47392e-06
0.000321491
3.59025e-06
0.000319638
3.7039e-06
0.00031773
3.81483e-06
0.000315768
3.92303e-06
0.000313753
4.02849e-06
0.000311687
4.1312e-06
0.00030957
4.23114e-06
0.000307406
4.32833e-06
0.000305194
4.42275e-06
0.000302936
4.51443e-06
0.000300633
4.60336e-06
0.000298288
4.68955e-06
0.000295901
4.77304e-06
0.000293473
4.85383e-06
0.000291006
4.93194e-06
0.000288502
5.00741e-06
0.000285961
5.08026e-06
0.000283385
5.15051e-06
0.000280776
5.21822e-06
0.000278133
5.28339e-06
0.00027546
5.34609e-06
0.000272756
5.40633e-06
0.000270023
5.46417e-06
0.000267263
5.51965e-06
0.000264476
5.57281e-06
0.000261663
5.62369e-06
0.000258827
5.67234e-06
0.000255967
5.71881e-06
0.000253085
5.76315e-06
0.000250181
5.8054e-06
0.000247258
5.84561e-06
0.000244316
5.88384e-06
0.000241355
5.92014e-06
0.000238378
5.95455e-06
0.000235383
5.98713e-06
0.000232374
6.01793e-06
0.00022935
6.047e-06
0.000226313
6.07439e-06
0.000223262
6.10015e-06
0.0002202
6.12434e-06
0.000217126
6.147e-06
0.000214041
6.16819e-06
0.000210947
6.18795e-06
0.000207843
6.20635e-06
0.000204731
6.22341e-06
0.000201611
6.2392e-06
0.000198484
6.25377e-06
0.00019535
6.26715e-06
0.00019221
6.2794e-06
0.000189065
6.29057e-06
0.000185914
6.3007e-06
0.000182759
6.30983e-06
0.0001796
6.31801e-06
0.000176437
6.32528e-06
0.000173271
6.33169e-06
0.000170102
6.33727e-06
0.000166931
6.34207e-06
0.000163758
6.34613e-06
0.000160583
6.34948e-06
0.000157407
6.35217e-06
0.000154229
6.35423e-06
0.000151051
6.3557e-06
0.000147873
6.35661e-06
0.000144694
6.357e-06
0.000141516
6.35691e-06
0.000138337
6.35636e-06
0.00013516
6.35539e-06
0.000131983
6.35402e-06
0.000128806
6.3523e-06
0.000125631
6.35025e-06
0.000122457
6.34789e-06
0.000119284
6.34526e-06
0.000116113
6.34238e-06
0.000112944
6.33927e-06
0.000109775
6.33597e-06
0.000106609
6.3325e-06
0.000103445
6.32887e-06
0.000100282
6.32512e-06
9.71215e-05
6.32127e-06
9.39628e-05
6.31733e-06
9.08061e-05
6.31333e-06
8.76515e-05
6.30928e-06
8.44989e-05
6.30521e-06
8.13483e-05
6.30113e-06
7.81998e-05
6.29705e-06
7.50533e-05
6.29301e-06
7.19088e-05
6.28901e-06
6.87663e-05
6.28506e-06
6.56258e-05
6.28119e-06
6.24871e-05
6.2774e-06
5.93503e-05
6.27371e-06
5.62152e-05
6.27013e-06
5.30819e-05
6.26667e-06
4.99503e-05
6.26334e-06
4.68202e-05
6.26016e-06
4.36917e-05
6.25713e-06
4.05646e-05
6.25426e-06
3.74389e-05
6.25156e-06
3.43144e-05
6.24904e-06
3.11911e-05
6.24671e-06
2.80689e-05
6.24457e-06
2.49476e-05
6.24262e-06
2.18272e-05
6.24088e-06
1.87076e-05
6.23935e-06
1.55887e-05
6.23802e-06
1.24703e-05
6.23691e-06
9.35231e-06
6.23602e-06
6.23469e-06
6.23536e-06
3.11729e-06
6.23491e-06
6.23469e-06
3.59873e-06
-1.07969e-05
7.19761e-06
-1.07974e-05
1.07968e-05
-1.07983e-05
1.43964e-05
-1.07996e-05
1.79966e-05
-1.08014e-05
2.15976e-05
-1.08036e-05
2.51995e-05
-1.08062e-05
2.88023e-05
-1.08093e-05
3.24064e-05
-1.08127e-05
3.60117e-05
-1.08165e-05
3.96184e-05
-1.08206e-05
4.32266e-05
-1.08251e-05
4.68364e-05
-1.08299e-05
5.04479e-05
-1.0835e-05
5.40613e-05
-1.08404e-05
5.76765e-05
-1.08459e-05
6.12936e-05
-1.08517e-05
6.49128e-05
-1.08576e-05
6.85339e-05
-1.08637e-05
7.21572e-05
-1.08698e-05
7.57825e-05
-1.0876e-05
7.941e-05
-1.08822e-05
8.30395e-05
-1.08884e-05
8.6671e-05
-1.08944e-05
9.03046e-05
-1.09003e-05
9.39401e-05
-1.0906e-05
9.75774e-05
-1.09115e-05
0.000101217
-1.09167e-05
0.000104857
-1.09215e-05
0.000108499
-1.09258e-05
0.000112143
-1.09297e-05
0.000115788
-1.0933e-05
0.000119433
-1.09356e-05
0.00012308
-1.09376e-05
0.000126726
-1.09388e-05
0.000130373
-1.09391e-05
0.00013402
-1.09385e-05
0.000137666
-1.09369e-05
0.000141312
-1.09342e-05
0.000144956
-1.09304e-05
0.000148598
-1.09252e-05
0.000152239
-1.09187e-05
0.000155876
-1.09107e-05
0.000159511
-1.09013e-05
0.000163142
-1.08901e-05
0.000166769
-1.08773e-05
0.000170391
-1.08626e-05
0.000174007
-1.0846e-05
0.000177618
-1.08273e-05
0.000181221
-1.08066e-05
0.000184817
-1.07836e-05
0.000188404
-1.07582e-05
0.000191982
-1.07304e-05
0.000195551
-1.07001e-05
0.000199108
-1.06672e-05
0.000202653
-1.06314e-05
0.000206186
-1.05929e-05
0.000209705
-1.05513e-05
0.000213209
-1.05067e-05
0.000216697
-1.04589e-05
0.000220168
-1.04079e-05
0.000223621
-1.03535e-05
0.000227055
-1.02956e-05
0.000230468
-1.02342e-05
0.00023386
-1.01691e-05
0.000237229
-1.01002e-05
0.000240574
-1.00275e-05
0.000243893
-9.9509e-06
0.000247185
-9.87027e-06
0.000250449
-9.78556e-06
0.000253684
-9.69668e-06
0.000256888
-9.60357e-06
0.000260059
-9.50617e-06
0.000263196
-9.4044e-06
0.000266298
-9.29823e-06
0.000269363
-9.18759e-06
0.00027239
-9.07245e-06
0.000275376
-8.95276e-06
0.000278322
-8.8285e-06
0.000281224
-8.69965e-06
0.000284082
-8.56618e-06
0.000286894
-8.42809e-06
0.000289658
-8.28537e-06
0.000292374
-8.13803e-06
0.000295038
-7.98608e-06
0.000297651
-7.82955e-06
0.000300209
-7.66846e-06
0.000302713
-7.50285e-06
0.000305159
-7.33278e-06
0.000307548
-7.15828e-06
0.000309877
-6.97944e-06
0.000312145
-6.79631e-06
0.00031435
-6.60898e-06
0.000316491
-6.41753e-06
0.000318567
-6.22207e-06
0.000320577
-6.0227e-06
0.000322519
-5.81954e-06
0.000324392
-5.6127e-06
0.000326194
-5.40231e-06
0.000327926
-5.18851e-06
0.000329585
-4.97145e-06
0.00033117
-4.75127e-06
0.000332681
-4.52813e-06
0.000334116
-4.3022e-06
0.000335476
-4.07365e-06
0.000336758
-3.84264e-06
0.000337962
-3.60937e-06
0.000339088
-3.37402e-06
0.000340134
-3.13677e-06
0.000341101
-2.89782e-06
0.000341988
-2.65736e-06
0.000342794
-2.4156e-06
0.000343518
-2.17274e-06
0.000344162
-1.92898e-06
0.000344723
-1.68452e-06
0.000345203
-1.43957e-06
0.000345602
-1.19434e-06
0.000345918
-9.49035e-07
0.000346152
-7.03854e-07
0.000346305
-4.59003e-07
0.000346376
-2.14684e-07
0.000346366
2.89031e-08
0.000346275
2.71561e-07
0.000346103
5.13097e-07
0.000345851
7.5332e-07
0.00034552
9.92044e-07
0.000345109
1.22909e-06
0.00034462
1.46427e-06
0.000344053
1.69743e-06
0.000343408
1.92839e-06
0.000342688
2.15699e-06
0.000341892
2.38309e-06
0.000341022
2.60652e-06
0.000340078
2.82715e-06
0.000339061
3.04485e-06
0.000337973
3.25948e-06
0.000336814
3.47093e-06
0.000335586
3.67908e-06
0.000334289
3.88382e-06
0.000332926
4.08505e-06
0.000331496
4.28269e-06
0.000330002
4.47665e-06
0.000328444
4.66684e-06
0.000326824
4.85321e-06
0.000325143
5.03568e-06
0.000323403
5.21421e-06
0.000321605
5.38874e-06
0.000319749
5.55923e-06
0.000317838
5.72566e-06
0.000315873
5.88798e-06
0.000313856
6.04618e-06
0.000311787
6.20024e-06
0.000309668
6.35017e-06
0.0003075
6.49594e-06
0.000305285
6.63757e-06
0.000303025
6.77507e-06
0.00030072
6.90845e-06
0.000298371
7.03773e-06
0.000295982
7.16293e-06
0.000293551
7.28408e-06
0.000291082
7.40122e-06
0.000288575
7.51439e-06
0.000286032
7.62362e-06
0.000283453
7.72897e-06
0.000280841
7.83048e-06
0.000278196
7.9282e-06
0.00027552
8.02219e-06
0.000272814
8.11251e-06
0.000270079
8.19922e-06
0.000267316
8.28238e-06
0.000264527
8.36206e-06
0.000261712
8.43832e-06
0.000258873
8.51124e-06
0.000256011
8.58088e-06
0.000253127
8.64733e-06
0.000250222
8.71064e-06
0.000247297
8.7709e-06
0.000244352
8.82818e-06
0.00024139
8.88256e-06
0.00023841
8.93412e-06
0.000235414
8.98292e-06
0.000232403
9.02905e-06
0.000229378
9.07259e-06
0.000226338
9.11361e-06
0.000223286
9.15219e-06
0.000220222
9.18841e-06
0.000217147
9.22234e-06
0.000214061
9.25406e-06
0.000210965
9.28365e-06
0.000207861
9.31117e-06
0.000204747
9.33671e-06
0.000201626
9.36034e-06
0.000198498
9.38213e-06
0.000195363
9.40214e-06
0.000192222
9.42047e-06
0.000189075
9.43716e-06
0.000185924
9.45229e-06
0.000182767
9.46593e-06
0.000179607
9.47815e-06
0.000176444
9.489e-06
0.000173277
9.49856e-06
0.000170107
9.50688e-06
0.000166935
9.51403e-06
0.000163761
9.52007e-06
0.000160586
9.52505e-06
0.000157409
9.52904e-06
0.000154231
9.53208e-06
0.000151052
9.53424e-06
0.000147873
9.53557e-06
0.000144694
9.53611e-06
0.000141515
9.53593e-06
0.000138337
9.53507e-06
0.000135158
9.53357e-06
0.000131981
9.53149e-06
0.000128804
9.52887e-06
0.000125629
9.52575e-06
0.000122455
9.52218e-06
0.000119282
9.5182e-06
0.00011611
9.51384e-06
0.00011294
9.50915e-06
0.000109772
9.50417e-06
0.000106606
9.49893e-06
0.000103441
9.49347e-06
0.000100278
9.48782e-06
9.71176e-05
9.48201e-06
9.39588e-05
9.47607e-06
9.08021e-05
9.47004e-06
8.76475e-05
9.46395e-06
8.44948e-05
9.45782e-06
8.13443e-05
9.45168e-06
7.81958e-05
9.44555e-06
7.50493e-05
9.43946e-06
7.19049e-05
9.43344e-06
6.87625e-05
9.4275e-06
6.5622e-05
9.42168e-06
6.24834e-05
9.41598e-06
5.93467e-05
9.41042e-06
5.62118e-05
9.40504e-06
5.30786e-05
9.39984e-06
4.99471e-05
9.39483e-06
4.68172e-05
9.39005e-06
4.36889e-05
9.38549e-06
4.0562e-05
9.38118e-06
3.74364e-05
9.37712e-06
3.43121e-05
9.37333e-06
3.1189e-05
9.36982e-06
2.8067e-05
9.3666e-06
2.49459e-05
9.36368e-06
2.18257e-05
9.36106e-06
1.87063e-05
9.35875e-06
1.55876e-05
9.35676e-06
1.24694e-05
9.3551e-06
9.35164e-06
9.35376e-06
6.23424e-06
9.35276e-06
3.11707e-06
9.35209e-06
9.35176e-06
3.59828e-06
-1.43952e-05
7.1967e-06
-1.43958e-05
1.07954e-05
-1.4397e-05
1.43946e-05
-1.43988e-05
1.79944e-05
-1.44012e-05
2.1595e-05
-1.44042e-05
2.51964e-05
-1.44077e-05
2.87989e-05
-1.44117e-05
3.24026e-05
-1.44163e-05
3.60075e-05
-1.44214e-05
3.96139e-05
-1.4427e-05
4.32218e-05
-1.4433e-05
4.68313e-05
-1.44395e-05
5.04426e-05
-1.44463e-05
5.40557e-05
-1.44535e-05
5.76707e-05
-1.4461e-05
6.12877e-05
-1.44687e-05
6.49067e-05
-1.44767e-05
6.85278e-05
-1.44848e-05
7.2151e-05
-1.44931e-05
7.57763e-05
-1.45014e-05
7.94038e-05
-1.45097e-05
8.30334e-05
-1.4518e-05
8.66651e-05
-1.45261e-05
9.02989e-05
-1.45341e-05
9.39346e-05
-1.45418e-05
9.75722e-05
-1.45492e-05
0.000101212
-1.45561e-05
0.000104853
-1.45626e-05
0.000108496
-1.45685e-05
0.00011214
-1.45738e-05
0.000115785
-1.45783e-05
0.000119431
-1.4582e-05
0.000123078
-1.45847e-05
0.000126726
-1.45864e-05
0.000130374
-1.4587e-05
0.000134022
-1.45863e-05
0.000137669
-1.45843e-05
0.000141316
-1.45808e-05
0.000144961
-1.45758e-05
0.000148605
-1.45691e-05
0.000152247
-1.45605e-05
0.000155886
-1.45501e-05
0.000159522
-1.45376e-05
0.000163155
-1.45229e-05
0.000166784
-1.45059e-05
0.000170407
-1.44864e-05
0.000174026
-1.44645e-05
0.000177638
-1.44398e-05
0.000181244
-1.44122e-05
0.000184842
-1.43817e-05
0.000188432
-1.43481e-05
0.000192013
-1.43112e-05
0.000195584
-1.4271e-05
0.000199144
-1.42272e-05
0.000202692
-1.41797e-05
0.000206227
-1.41284e-05
0.000209749
-1.40732e-05
0.000213256
-1.40139e-05
0.000216748
-1.39504e-05
0.000220222
-1.38825e-05
0.000223679
-1.38101e-05
0.000227116
-1.3733e-05
0.000230533
-1.36513e-05
0.000233929
-1.35646e-05
0.000237302
-1.34729e-05
0.00024065
-1.33761e-05
0.000243974
-1.32741e-05
0.00024727
-1.31667e-05
0.000250538
-1.30539e-05
0.000253777
-1.29355e-05
0.000256985
-1.28114e-05
0.00026016
-1.26817e-05
0.000263302
-1.25461e-05
0.000266408
-1.24046e-05
0.000269478
-1.22571e-05
0.000272509
-1.21037e-05
0.000275501
-1.19441e-05
0.000278451
-1.17785e-05
0.000281358
-1.16067e-05
0.00028422
-1.14288e-05
0.000287037
-1.12446e-05
0.000289806
-1.10543e-05
0.000292526
-1.08579e-05
0.000295195
-1.06552e-05
0.000297812
-1.04465e-05
0.000300375
-1.02316e-05
0.000302883
-1.00108e-05
0.000305334
-9.7839e-06
0.000307727
-9.55115e-06
0.00031006
-9.31257e-06
0.000312332
-9.06828e-06
0.000314541
-8.81836e-06
0.000316687
-8.56295e-06
0.000318767
-8.30218e-06
0.00032078
-8.03618e-06
0.000322726
-7.7651e-06
0.000324602
-7.48911e-06
0.000326408
-7.20838e-06
0.000328143
-6.92309e-06
0.000329805
-6.63344e-06
0.000331393
-6.33962e-06
0.000332907
-6.04185e-06
0.000334345
-5.74035e-06
0.000335707
-5.43534e-06
0.000336991
-5.12705e-06
0.000338198
-4.81574e-06
0.000339325
-4.50163e-06
0.000340373
-4.185e-06
0.000341342
-3.8661e-06
0.00034223
-3.54518e-06
0.000343036
-3.22252e-06
0.000343762
-2.89839e-06
0.000344406
-2.57305e-06
0.000344968
-2.24679e-06
0.000345449
-1.91987e-06
0.000345847
-1.59258e-06
0.000346163
-1.26519e-06
0.000346397
-9.3796e-07
0.000346549
-6.11178e-07
0.00034662
-2.8511e-07
0.000346609
3.99791e-08
0.000346517
3.63825e-07
0.000346343
6.86168e-07
0.00034609
1.00675e-06
0.000345757
1.32534e-06
0.000345344
1.64167e-06
0.000344853
1.95552e-06
0.000344284
2.26665e-06
0.000343637
2.57485e-06
0.000342914
2.87989e-06
0.000342116
3.18158e-06
0.000341243
3.47971e-06
0.000340296
3.7741e-06
0.000339276
4.06456e-06
0.000338185
4.35093e-06
0.000337022
4.63303e-06
0.000335791
4.91073e-06
0.000334491
5.18387e-06
0.000333123
5.45233e-06
0.00033169
5.71598e-06
0.000330192
5.97471e-06
0.000328631
6.22841e-06
0.000327007
6.477e-06
0.000325322
6.72038e-06
0.000323578
6.95849e-06
0.000321775
7.19126e-06
0.000319916
7.41864e-06
0.000318001
7.64058e-06
0.000316032
7.85704e-06
0.00031401
8.068e-06
0.000311937
8.27344e-06
0.000309814
8.47334e-06
0.000307642
8.6677e-06
0.000305423
8.85653e-06
0.000303158
9.03983e-06
0.000300849
9.21764e-06
0.000298497
9.38997e-06
0.000296103
9.55686e-06
0.000293669
9.71835e-06
0.000291195
9.87448e-06
0.000288684
1.00253e-05
0.000286137
1.01709e-05
0.000283555
1.03113e-05
0.000280939
1.04465e-05
0.00027829
1.05767e-05
0.00027561
1.0702e-05
0.000272901
1.08223e-05
0.000270162
1.09378e-05
0.000267396
1.10486e-05
0.000264603
1.11547e-05
0.000261785
1.12563e-05
0.000258943
1.13534e-05
0.000256078
1.14462e-05
0.00025319
1.15346e-05
0.000250282
1.16189e-05
0.000247354
1.16992e-05
0.000244407
1.17754e-05
0.000241441
1.18478e-05
0.000238459
1.19164e-05
0.000235461
1.19814e-05
0.000232447
1.20428e-05
0.000229419
1.21007e-05
0.000226377
1.21553e-05
0.000223323
1.22066e-05
0.000220256
1.22548e-05
0.000217179
1.22999e-05
0.000214091
1.23421e-05
0.000210993
1.23814e-05
0.000207886
1.2418e-05
0.000204771
1.24519e-05
0.000201648
1.24833e-05
0.000198518
1.25123e-05
0.000195381
1.25388e-05
0.000192239
1.25632e-05
0.00018909
1.25853e-05
0.000185937
1.26054e-05
0.00018278
1.26235e-05
0.000179618
1.26396e-05
0.000176453
1.2654e-05
0.000173285
1.26667e-05
0.000170114
1.26777e-05
0.000166941
1.26871e-05
0.000163766
1.26951e-05
0.00016059
1.27016e-05
0.000157412
1.27068e-05
0.000154233
1.27108e-05
0.000151054
1.27136e-05
0.000147874
1.27153e-05
0.000144694
1.2716e-05
0.000141514
1.27156e-05
0.000138335
1.27144e-05
0.000135156
1.27123e-05
0.000131978
1.27095e-05
0.000128801
1.27059e-05
0.000125625
1.27017e-05
0.000122451
1.26969e-05
0.000119277
1.26915e-05
0.000116106
1.26856e-05
0.000112935
1.26793e-05
0.000109767
1.26726e-05
0.0001066
1.26656e-05
0.000103435
1.26583e-05
0.000100273
1.26507e-05
9.71117e-05
1.26429e-05
9.39529e-05
1.26349e-05
9.07961e-05
1.26268e-05
8.76414e-05
1.26187e-05
8.44888e-05
1.26104e-05
8.13382e-05
1.26022e-05
7.81898e-05
1.2594e-05
7.50434e-05
1.25859e-05
7.1899e-05
1.25778e-05
6.87567e-05
1.25698e-05
6.56163e-05
1.2562e-05
6.24779e-05
1.25544e-05
5.93413e-05
1.2547e-05
5.62066e-05
1.25398e-05
5.30736e-05
1.25328e-05
4.99424e-05
1.25261e-05
4.68127e-05
1.25197e-05
4.36846e-05
1.25136e-05
4.05579e-05
1.25078e-05
3.74326e-05
1.25024e-05
3.43086e-05
1.24973e-05
3.11858e-05
1.24927e-05
2.8064e-05
1.24883e-05
2.49433e-05
1.24844e-05
2.18234e-05
1.24809e-05
1.87043e-05
1.24778e-05
1.55859e-05
1.24752e-05
1.2468e-05
1.2473e-05
9.35064e-06
1.24712e-05
6.23357e-06
1.24698e-05
3.11673e-06
1.24689e-05
1.24685e-05
3.59767e-06
-1.79929e-05
7.1955e-06
-1.79936e-05
1.07936e-05
-1.79952e-05
1.43922e-05
-1.79974e-05
1.79915e-05
-1.80004e-05
2.15915e-05
-1.80041e-05
2.51924e-05
-1.80086e-05
2.87943e-05
-1.80137e-05
3.23974e-05
-1.80195e-05
3.60019e-05
-1.80259e-05
3.96078e-05
-1.80329e-05
4.32153e-05
-1.80405e-05
4.68244e-05
-1.80486e-05
5.04354e-05
-1.80572e-05
5.40482e-05
-1.80663e-05
5.76629e-05
-1.80757e-05
6.12797e-05
-1.80855e-05
6.48985e-05
-1.80955e-05
6.85195e-05
-1.81058e-05
7.21427e-05
-1.81162e-05
7.5768e-05
-1.81267e-05
7.93955e-05
-1.81372e-05
8.30252e-05
-1.81477e-05
8.66571e-05
-1.8158e-05
9.02911e-05
-1.81681e-05
9.39272e-05
-1.81779e-05
9.75653e-05
-1.81872e-05
0.000101205
-1.81961e-05
0.000104847
-1.82043e-05
0.00010849
-1.82119e-05
0.000112135
-1.82186e-05
0.000115781
-1.82244e-05
0.000119429
-1.82292e-05
0.000123077
-1.82328e-05
0.000126725
-1.82351e-05
0.000130374
-1.8236e-05
0.000134024
-1.82354e-05
0.000137672
-1.82331e-05
0.000141321
-1.8229e-05
0.000144968
-1.82229e-05
0.000148613
-1.82147e-05
0.000152257
-1.82043e-05
0.000155898
-1.81914e-05
0.000159537
-1.8176e-05
0.000163172
-1.81579e-05
0.000166803
-1.81369e-05
0.000170429
-1.81129e-05
0.000174051
-1.80856e-05
0.000177666
-1.8055e-05
0.000181274
-1.80209e-05
0.000184876
-1.7983e-05
0.000188469
-1.79412e-05
0.000192053
-1.78954e-05
0.000195627
-1.78453e-05
0.000199191
-1.77908e-05
0.000202743
-1.77318e-05
0.000206283
-1.76679e-05
0.000209809
-1.75992e-05
0.00021332
-1.75253e-05
0.000216816
-1.74461e-05
0.000220295
-1.73615e-05
0.000223756
-1.72712e-05
0.000227198
-1.71752e-05
0.00023062
-1.70732e-05
0.000234021
-1.69651e-05
0.000237399
-1.68508e-05
0.000240752
-1.673e-05
0.000244081
-1.66027e-05
0.000247383
-1.64686e-05
0.000250657
-1.63278e-05
0.000253901
-1.618e-05
0.000257115
-1.60251e-05
0.000260296
-1.5863e-05
0.000263444
-1.56936e-05
0.000266556
-1.55169e-05
0.000269632
-1.53327e-05
0.000272669
-1.51409e-05
0.000275666
-1.49416e-05
0.000278622
-1.47346e-05
0.000281536
-1.45199e-05
0.000284404
-1.42975e-05
0.000287227
-1.40674e-05
0.000290002
-1.38295e-05
0.000292728
-1.35839e-05
0.000295404
-1.33305e-05
0.000298027
-1.30695e-05
0.000300596
-1.28009e-05
0.00030311
-1.25246e-05
0.000305567
-1.22409e-05
0.000307965
-1.19498e-05
0.000310304
-1.16514e-05
0.000312582
-1.13459e-05
0.000314797
-1.10332e-05
0.000316948
-1.07137e-05
0.000319033
-1.03875e-05
0.000321051
-1.00547e-05
0.000323002
-9.71558e-06
0.000324883
-9.37027e-06
0.000326694
-9.01901e-06
0.000328433
-8.66204e-06
0.000330099
-8.2996e-06
0.000331691
-7.93194e-06
0.000333209
-7.55931e-06
0.00033465
-7.18201e-06
0.000336015
-6.8003e-06
0.000337303
-6.4145e-06
0.000338512
-6.02489e-06
0.000339642
-5.63178e-06
0.000340692
-5.23551e-06
0.000341663
-4.83639e-06
0.000342552
-4.43474e-06
0.000343361
-4.03091e-06
0.000344088
-3.62524e-06
0.000344733
-3.21806e-06
0.000345295
-2.80972e-06
0.000345776
-2.40056e-06
0.000346174
-1.99092e-06
0.00034649
-1.58117e-06
0.000346724
-1.17163e-06
0.000346876
-7.62643e-07
0.000346945
-3.54557e-07
0.000346933
5.22968e-08
0.000346839
4.57589e-07
0.000346664
8.60994e-07
0.000346409
1.26219e-06
0.000346073
1.66087e-06
0.000345658
2.05673e-06
0.000345164
2.44947e-06
0.000344592
2.83881e-06
0.000343942
3.22446e-06
0.000343216
3.60615e-06
0.000342414
3.98363e-06
0.000341537
4.35665e-06
0.000340586
4.72497e-06
0.000339562
5.08837e-06
0.000338467
5.44663e-06
0.0003373
5.79955e-06
0.000336064
6.14693e-06
0.000334759
6.48861e-06
0.000333387
6.82441e-06
0.000331949
7.15418e-06
0.000330446
7.47779e-06
0.000328879
7.79509e-06
0.00032725
8.10598e-06
0.00032556
8.41035e-06
0.000323811
8.70811e-06
0.000322003
8.99918e-06
0.000320138
9.28349e-06
0.000318217
9.56098e-06
0.000316243
9.83161e-06
0.000314216
1.00953e-05
0.000312137
1.03522e-05
0.000310008
1.0602e-05
0.000307831
1.0845e-05
0.000305606
1.1081e-05
0.000303336
1.13101e-05
0.000301021
1.15323e-05
0.000298664
1.17477e-05
0.000296264
1.19562e-05
0.000293825
1.2158e-05
0.000291346
1.2353e-05
0.00028883
1.25415e-05
0.000286278
1.27233e-05
0.00028369
1.28987e-05
0.000281069
1.30676e-05
0.000278416
1.32302e-05
0.000275731
1.33866e-05
0.000273016
1.35369e-05
0.000270273
1.36811e-05
0.000267502
1.38194e-05
0.000264705
1.39519e-05
0.000261882
1.40787e-05
0.000259036
1.42e-05
0.000256166
1.43157e-05
0.000253275
1.44261e-05
0.000250363
1.45313e-05
0.00024743
1.46314e-05