/*--------------------------------*- C++ -*----------------------------------*\
| =========                 |                                                 |
| \\      /  F ield         | OpenFOAM: The Open Source CFD Toolbox           |
|  \\    /   O peration     | Version:  v2012                                 |
|   \\  /    A nd           | Website:  www.openfoam.com                      |
|    \\/     M anipulation  |                                                 |
\*---------------------------------------------------------------------------*/
FoamFile
{
    version     2.0;
    format      ascii;
    class       volScalarField;
    location    "11.8";
    object      Psi_z;
}
// * * * * * * * * * * * * * * * * * * * * * * * * * * * * * * * * * * * * * //

dimensions      [0 2 -1 0 0 0 0];


internalField   nonuniform List<scalar> 
65536
(
8.98483e-06
2.69549e-05
4.49261e-05
6.28992e-05
8.0875e-05
9.88541e-05
0.000116837
0.000134825
0.000152819
0.000170818
0.000188825
0.000206838
0.00022486
0.00024289
0.000260929
0.000278977
0.000297034
0.000315102
0.00033318
0.000351268
0.000369367
0.000387476
0.000405596
0.000423726
0.000441867
0.000460017
0.000478177
0.000496347
0.000514525
0.000532711
0.000550905
0.000569104
0.00058731
0.000605519
0.000623732
0.000641946
0.000660161
0.000678375
0.000696585
0.000714791
0.00073299
0.00075118
0.000769358
0.000787523
0.000805671
0.0008238
0.000841907
0.000859988
0.000878041
0.000896062
0.000914048
0.000931994
0.000949896
0.000967752
0.000985555
0.0010033
0.00102099
0.00103861
0.00105616
0.00107363
0.00109103
0.00110833
0.00112555
0.00114266
0.00115968
0.00117658
0.00119336
0.00121002
0.00122656
0.00124295
0.0012592
0.0012753
0.00129125
0.00130703
0.00132264
0.00133806
0.00135331
0.00136835
0.0013832
0.00139784
0.00141225
0.00142645
0.00144041
0.00145413
0.0014676
0.00148082
0.00149377
0.00150645
0.00151886
0.00153098
0.0015428
0.00155433
0.00156554
0.00157644
0.00158702
0.00159728
0.00160719
0.00161677
0.001626
0.00163488
0.0016434
0.00165155
0.00165934
0.00166675
0.00167378
0.00168043
0.0016867
0.00169257
0.00169805
0.00170314
0.00170782
0.0017121
0.00171598
0.00171945
0.00172252
0.00172517
0.00172742
0.00172926
0.00173069
0.00173171
0.00173232
0.00173253
0.00173232
0.00173172
0.00173071
0.0017293
0.00172749
0.00172529
0.0017227
0.00171972
0.00171635
0.00171261
0.00170849
0.00170399
0.00169913
0.00169391
0.00168834
0.00168241
0.00167613
0.00166952
0.00166257
0.00165529
0.0016477
0.00163978
0.00163156
0.00162303
0.00161421
0.0016051
0.00159571
0.00158604
0.00157611
0.00156591
0.00155546
0.00154476
0.00153382
0.00152264
0.00151124
0.00149961
0.00148778
0.00147573
0.00146349
0.00145105
0.00143843
0.00142563
0.00141265
0.00139951
0.0013862
0.00137275
0.00135914
0.00134539
0.0013315
0.00131748
0.00130334
0.00128908
0.0012747
0.00126022
0.00124563
0.00123094
0.00121616
0.00120129
0.00118634
0.0011713
0.00115619
0.00114101
0.00112577
0.00111046
0.00109509
0.00107967
0.00106419
0.00104867
0.0010331
0.00101749
0.00100185
0.000986167
0.000970453
0.000954711
0.000938942
0.000923149
0.000907334
0.0008915
0.000875649
0.000859783
0.000843904
0.000828014
0.000812115
0.000796209
0.000780296
0.00076438
0.000748461
0.00073254
0.000716619
0.000700699
0.000684782
0.000668867
0.000652957
0.000637051
0.000621151
0.000605258
0.000589371
0.000573493
0.000557622
0.000541761
0.000525908
0.000510065
0.000494231
0.000478408
0.000462595
0.000446791
0.000430999
0.000415216
0.000399445
0.000383683
0.000367932
0.00035219
0.000336459
0.000320738
0.000305026
0.000289323
0.000273629
0.000257944
0.000242267
0.000226598
0.000210937
0.000195282
0.000179634
0.000163993
0.000148357
0.000132726
0.0001171
0.000101478
8.586e-05
7.02449e-05
5.46323e-05
3.90216e-05
2.34124e-05
7.80405e-06
2.69542e-05
8.08637e-05
0.000134777
0.000188695
0.000242622
0.000296559
0.000350508
0.000404471
0.000458451
0.000512449
0.000566467
0.000620508
0.000674572
0.000728661
0.000782777
0.000836921
0.000891094
0.000945296
0.000999529
0.00105379
0.00110809
0.00116242
0.00121678
0.00127117
0.00132559
0.00138004
0.00143452
0.00148903
0.00154357
0.00159813
0.00165271
0.00170731
0.00176193
0.00181656
0.0018712
0.00192584
0.00198049
0.00203513
0.00208976
0.00214438
0.00219898
0.00225355
0.00230809
0.00236259
0.00241703
0.00247142
0.00252575
0.00257999
0.00263416
0.00268822
0.00274218
0.00279603
0.00284974
0.00290331
0.00295672
0.00300997
0.00306303
0.0031159
0.00316856
0.00322099
0.00327317
0.0033251
0.00337674
0.0034281
0.00347914
0.00352985
0.00358021
0.0036302
0.0036798
0.003729
0.00377776
0.00382607
0.00387391
0.00392126
0.00396809
0.00401438
0.00406011
0.00410526
0.00414981
0.00419372
0.00423699
0.00427958
0.00432147
0.00436264
0.00440306
0.00444272
0.00448159
0.00451964
0.00455686
0.00459322
0.0046287
0.00466328
0.00469694
0.00472965
0.0047614
0.00479216
0.00482192
0.00485066
0.00487835
0.00490499
0.00493055
0.00495502
0.00497838
0.00500062
0.00502173
0.00504169
0.00506048
0.00507811
0.00509455
0.00510981
0.00512386
0.00513671
0.00514834
0.00515876
0.00516796
0.00517593
0.00518267
0.00518819
0.00519247
0.00519553
0.00519737
0.00519798
0.00519737
0.00519555
0.00519252
0.00518829
0.00518287
0.00517626
0.00516848
0.00515954
0.00514944
0.0051382
0.00512583
0.00511235
0.00509776
0.00508209
0.00506536
0.00504756
0.00502873
0.00500888
0.00498803
0.0049662
0.0049434
0.00491965
0.00489498
0.0048694
0.00484293
0.00481559
0.00478741
0.0047584
0.00472858
0.00469798
0.00466662
0.00463451
0.00460168
0.00456814
0.00453393
0.00449905
0.00446353
0.0044274
0.00439066
0.00435335
0.00431547
0.00427706
0.00423812
0.00419868
0.00415877
0.00411838
0.00407755
0.0040363
0.00399463
0.00395258
0.00391014
0.00386735
0.00382422
0.00378076
0.00373698
0.00369292
0.00364857
0.00360395
0.00355909
0.00351398
0.00346865
0.00342311
0.00337736
0.00333143
0.00328532
0.00323905
0.00319262
0.00314605
0.00309934
0.00305252
0.00300558
0.00295853
0.00291139
0.00286416
0.00281685
0.00276946
0.00272202
0.00267451
0.00262696
0.00257936
0.00253172
0.00248405
0.00243635
0.00238863
0.00234089
0.00229314
0.00224538
0.00219762
0.00214985
0.00210209
0.00205434
0.00200659
0.00195886
0.00191114
0.00186344
0.00181576
0.0017681
0.00172047
0.00167286
0.00162527
0.00157771
0.00153018
0.00148268
0.00143521
0.00138777
0.00134036
0.00129298
0.00124564
0.00119832
0.00115104
0.00110378
0.00105656
0.00100937
0.000962202
0.000915067
0.000867959
0.000820878
0.000773823
0.000726793
0.000679786
0.000632802
0.000585839
0.000538897
0.000491972
0.000445065
0.000398174
0.000351296
0.000304431
0.000257577
0.000210732
0.000163895
0.000117063
7.02364e-05
2.34118e-05
4.49224e-05
0.000134769
0.000224621
0.000314483
0.000404359
0.000494251
0.000584163
0.0006741
0.000764064
0.000854059
0.000944088
0.00103415
0.00112426
0.00121441
0.0013046
0.00139484
0.00148512
0.00157546
0.00166585
0.00175629
0.00184678
0.00193733
0.00202793
0.00211858
0.00220928
0.00230004
0.00239084
0.00248169
0.00257259
0.00266352
0.00275449
0.0028455
0.00293653
0.00302758
0.00311865
0.00320973
0.00330082
0.00339189
0.00348295
0.00357399
0.003665
0.00375596
0.00384686
0.0039377
0.00402845
0.00411911
0.00420966
0.00430009
0.00439037
0.00448049
0.00457044
0.00466019
0.00474972
0.00483902
0.00492806
0.00501682
0.00510528
0.00519341
0.00528118
0.00536858
0.00545557
0.00554214
0.00562823
0.00571384
0.00579893
0.00588347
0.00596743
0.00605077
0.00613346
0.00621547
0.00629677
0.00637731
0.00645707
0.006536
0.00661408
0.00669126
0.0067675
0.00684278
0.00691705
0.00699026
0.0070624
0.0071334
0.00720325
0.00727189
0.00733929
0.00740541
0.00747022
0.00753367
0.00759572
0.00765635
0.00771551
0.00777316
0.00782928
0.00788382
0.00793676
0.00798805
0.00803767
0.00808558
0.00813176
0.00817618
0.0082188
0.00825959
0.00829855
0.00833563
0.00837082
0.0084041
0.00843544
0.00846483
0.00849224
0.00851767
0.00854111
0.00856253
0.00858193
0.00859929
0.00861462
0.00862791
0.00863915
0.00864834
0.00865549
0.00866059
0.00866364
0.00866465
0.00866364
0.00866059
0.00865554
0.00864848
0.00863943
0.00862841
0.00861543
0.00860051
0.00858366
0.00856492
0.00854429
0.0085218
0.00849748
0.00847135
0.00844343
0.00841376
0.00838236
0.00834925
0.00831448
0.00827807
0.00824005
0.00820045
0.0081593
0.00811665
0.00807251
0.00802693
0.00797993
0.00793156
0.00788184
0.00783082
0.00777852
0.00772498
0.00767024
0.00761433
0.00755728
0.00749913
0.00743991
0.00737966
0.00731841
0.0072562
0.00719305
0.00712901
0.00706409
0.00699834
0.00693179
0.00686447
0.0067964
0.00672762
0.00665816
0.00658804
0.0065173
0.00644596
0.00637406
0.0063016
0.00622863
0.00615517
0.00608124
0.00600687
0.00593208
0.00585688
0.00578132
0.0057054
0.00562914
0.00555258
0.00547572
0.00539858
0.00532119
0.00524356
0.00516571
0.00508765
0.00500941
0.00493099
0.00485241
0.00477368
0.00469482
0.00461584
0.00453676
0.00445758
0.00437831
0.00429897
0.00421957
0.00414011
0.00406061
0.00398107
0.0039015
0.00382191
0.00374231
0.0036627
0.00358309
0.00350348
0.00342389
0.00334431
0.00326475
0.00318522
0.00310572
0.00302625
0.00294681
0.00286742
0.00278806
0.00270875
0.00262949
0.00255027
0.0024711
0.00239199
0.00231292
0.0022339
0.00215494
0.00207603
0.00199717
0.00191836
0.0018396
0.0017609
0.00168224
0.00160364
0.00152508
0.00144657
0.0013681
0.00128968
0.00121129
0.00113295
0.00105465
0.000976377
0.00089814
0.000819935
0.000741758
0.000663607
0.000585479
0.000507373
0.000429284
0.000351211
0.000273151
0.000195101
0.000117058
3.90188e-05
6.28887e-05
0.000188669
0.000314457
0.000440258
0.000566078
0.000691922
0.000817795
0.000943702
0.00106965
0.00119564
0.00132167
0.00144776
0.0015739
0.00170011
0.00182637
0.0019527
0.0020791
0.00220557
0.00233211
0.00245873
0.00258542
0.00271219
0.00283903
0.00296594
0.00309293
0.00321999
0.00334712
0.00347431
0.00360156
0.00372888
0.00385624
0.00398366
0.00411111
0.00423859
0.0043661
0.00449362
0.00462115
0.00474867
0.00487617
0.00500364
0.00513106
0.00525842
0.0053857
0.00551289
0.00563997
0.00576691
0.0058937
0.00602032
0.00614674
0.00627294
0.00639889
0.00652456
0.00664994
0.00677499
0.00689968
0.00702397
0.00714785
0.00727126
0.00739419
0.00751658
0.00763841
0.00775964
0.00788022
0.00800011
0.00811928
0.00823768
0.00835526
0.00847198
0.0085878
0.00870266
0.00881652
0.00892934
0.00904105
0.00915161
0.00926096
0.00936907
0.00947587
0.0095813
0.00968533
0.00978789
0.00988893
0.00998839
0.0100862
0.0101824
0.0102768
0.0103694
0.0104602
0.0105491
0.010636
0.0107209
0.0108038
0.0108846
0.0109632
0.0110396
0.0111138
0.0111856
0.0112551
0.0113222
0.0113869
0.0114492
0.0115089
0.011566
0.0116206
0.0116725
0.0117218
0.0117684
0.0118123
0.0118535
0.0118919
0.0119275
0.0119604
0.0119904
0.0120175
0.0120419
0.0120633
0.0120819
0.0120977
0.0121106
0.0121205
0.0121277
0.0121319
0.0121334
0.0121319
0.0121277
0.0121206
0.0121107
0.012098
0.0120825
0.0120643
0.0120434
0.0120198
0.0119935
0.0119646
0.0119331
0.011899
0.0118624
0.0118233
0.0117817
0.0117377
0.0116913
0.0116426
0.0115916
0.0115383
0.0114828
0.0114251
0.0113654
0.0113035
0.0112397
0.0111738
0.0111061
0.0110364
0.0109649
0.0108917
0.0108167
0.01074
0.0106616
0.0105817
0.0105003
0.0104173
0.0103329
0.0102471
0.01016
0.0100715
0.00998182
0.0098909
0.00979881
0.00970559
0.00961129
0.00951596
0.00941962
0.00932234
0.00922414
0.00912506
0.00902515
0.00892444
0.00882297
0.00872078
0.0086179
0.00851436
0.00841021
0.00830546
0.00820016
0.00809434
0.00798802
0.00788124
0.00777402
0.00766639
0.00755837
0.00745
0.0073413
0.00723228
0.00712298
0.00701342
0.00690361
0.00679358
0.00668334
0.00657292
0.00646233
0.0063516
0.00624073
0.00612974
0.00601865
0.00590747
0.00579622
0.0056849
0.00557353
0.00546213
0.00535069
0.00523924
0.00512778
0.00501631
0.00490486
0.00479342
0.00468201
0.00457062
0.00445927
0.00434796
0.0042367
0.00412549
0.00401433
0.00390323
0.00379219
0.00368122
0.00357031
0.00345948
0.00334871
0.00323801
0.00312739
0.00301684
0.00290637
0.00279596
0.00268563
0.00257538
0.00246519
0.00235507
0.00224503
0.00213505
0.00202513
0.00191528
0.00180549
0.00169576
0.00158608
0.00147646
0.00136688
0.00125735
0.00114787
0.00103842
0.000929017
0.000819642
0.000710296
0.000600976
0.000491678
0.000382398
0.000273131
0.000163875
5.46243e-05
8.08522e-05
0.00024256
0.000404279
0.000566014
0.000727774
0.000889565
0.00105139
0.00121326
0.00137519
0.00153716
0.0016992
0.00186131
0.00202349
0.00218574
0.00234808
0.0025105
0.00267301
0.00283561
0.00299831
0.0031611
0.00332398
0.00348697
0.00365005
0.00381323
0.0039765
0.00413987
0.00430332
0.00446686
0.00463049
0.00479418
0.00495795
0.00512178
0.00528566
0.00544958
0.00561353
0.00577751
0.00594149
0.00610546
0.00626942
0.00643333
0.00659718
0.00676096
0.00692464
0.0070882
0.00725161
0.00741486
0.00757792
0.00774075
0.00790333
0.00806563
0.00822761
0.00838924
0.00855049
0.00871132
0.00887168
0.00903155
0.00919087
0.00934961
0.00950772
0.00966515
0.00982185
0.00997778
0.0101329
0.0102871
0.0104404
0.0105927
0.010744
0.0108941
0.0110431
0.0111909
0.0113373
0.0114825
0.0116262
0.0117684
0.0119091
0.0120482
0.0121856
0.0123212
0.0124551
0.012587
0.012717
0.012845
0.0129709
0.0130946
0.0132161
0.0133353
0.0134521
0.0135665
0.0136783
0.0137876
0.0138942
0.0139982
0.0140993
0.0141976
0.0142931
0.0143855
0.014475
0.0145613
0.0146446
0.0147247
0.0148015
0.014875
0.0149452
0.0150121
0.0150755
0.0151355
0.015192
0.015245
0.0152944
0.0153402
0.0153824
0.015421
0.015456
0.0154873
0.0155149
0.0155388
0.0155591
0.0155756
0.0155885
0.0155976
0.0156031
0.0156049
0.015603
0.0155975
0.0155884
0.0155756
0.0155593
0.0155394
0.0155159
0.015489
0.0154586
0.0154248
0.0153875
0.015347
0.0153031
0.0152559
0.0152056
0.015152
0.0150954
0.0150357
0.014973
0.0149073
0.0148387
0.0147673
0.0146931
0.0146162
0.0145366
0.0144544
0.0143697
0.0142825
0.0141928
0.0141008
0.0140065
0.01391
0.0138113
0.0137106
0.0136077
0.0135029
0.0133962
0.0132876
0.0131772
0.0130651
0.0129513
0.0128359
0.0127189
0.0126004
0.0124805
0.0123592
0.0122365
0.0121126
0.0119874
0.0118611
0.0117337
0.0116051
0.0114756
0.0113451
0.0112136
0.0110813
0.0109481
0.0108141
0.0106794
0.010544
0.0104079
0.0102711
0.0101338
0.00999587
0.00985744
0.00971853
0.00957915
0.00943934
0.00929914
0.00915858
0.00901767
0.00887645
0.00873495
0.00859319
0.00845119
0.00830897
0.00816657
0.008024
0.00788127
0.00773842
0.00759545
0.00745239
0.00730925
0.00716604
0.00702279
0.0068795
0.00673618
0.00659286
0.00644954
0.00630622
0.00616293
0.00601967
0.00587645
0.00573328
0.00559016
0.0054471
0.0053041
0.00516118
0.00501833
0.00487557
0.00473288
0.00459029
0.00444778
0.00430536
0.00416304
0.00402081
0.00387867
0.00373663
0.00359469
0.00345283
0.00331108
0.00316941
0.00302784
0.00288635
0.00274495
0.00260363
0.0024624
0.00232124
0.00218016
0.00203916
0.00189821
0.00175734
0.00161652
0.00147576
0.00133505
0.00119439
0.00105378
0.000913195
0.000772647
0.000632127
0.000491631
0.000351152
0.000210686
7.02278e-05
9.88123e-05
0.000296441
0.000494083
0.000691746
0.000889439
0.00108717
0.00128495
0.00148278
0.00168067
0.00187863
0.00207667
0.00227479
0.002473
0.0026713
0.0028697
0.00306821
0.00326683
0.00346556
0.0036644
0.00386337
0.00406245
0.00426165
0.00446097
0.00466042
0.00485998
0.00505965
0.00525944
0.00545933
0.00565933
0.00585942
0.00605959
0.00625984
0.00646016
0.00666053
0.00686095
0.00706139
0.00726184
0.00746228
0.0076627
0.00786307
0.00806338
0.0082636
0.00846369
0.00866365
0.00886343
0.00906301
0.00926235
0.00946143
0.0096602
0.00985863
0.0100567
0.0102543
0.0104515
0.0106481
0.0108442
0.0110397
0.0112345
0.0114286
0.0116219
0.0118144
0.0120061
0.0121967
0.0123864
0.012575
0.0127625
0.0129488
0.0131337
0.0133174
0.0134996
0.0136803
0.0138595
0.014037
0.0142128
0.0143868
0.0145589
0.014729
0.0148971
0.015063
0.0152267
0.0153881
0.0155472
0.0157037
0.0158577
0.0160091
0.0161577
0.0163035
0.0164464
0.0165863
0.0167232
0.0168569
0.0169874
0.0171145
0.0172383
0.0173586
0.0174753
0.0175885
0.0176979
0.0178036
0.0179054
0.0180034
0.0180974
0.0181874
0.0182733
0.0183551
0.0184327
0.0185061
0.0185752
0.01864
0.0187004
0.0187565
0.0188081
0.0188554
0.0188981
0.0189364
0.0189702
0.0189994
0.0190242
0.0190444
0.0190601
0.0190713
0.019078
0.0190801
0.0190778
0.019071
0.0190598
0.0190442
0.0190242
0.0189998
0.0189711
0.0189381
0.0189008
0.0188594
0.0188138
0.0187641
0.0187104
0.0186527
0.018591
0.0185255
0.0184562
0.0183831
0.0183063
0.0182259
0.018142
0.0180546
0.0179638
0.0178696
0.0177723
0.0176717
0.017568
0.0174613
0.0173516
0.017239
0.0171237
0.0170056
0.0168848
0.0167615
0.0166357
0.0165075
0.0163769
0.0162441
0.016109
0.0159718
0.0158326
0.0156914
0.0155484
0.0154034
0.0152567
0.0151084
0.0149583
0.0148068
0.0146537
0.0144992
0.0143433
0.0141861
0.0140277
0.0138681
0.0137073
0.0135455
0.0133826
0.0132188
0.0130541
0.0128885
0.012722
0.0125548
0.0123869
0.0122183
0.012049
0.0118791
0.0117087
0.0115378
0.0113664
0.0111945
0.0110222
0.0108496
0.0106766
0.0105033
0.0103297
0.0101558
0.00998171
0.00980742
0.00963294
0.0094583
0.00928353
0.00910864
0.00893366
0.0087586
0.00858348
0.00840832
0.00823314
0.00805794
0.00788275
0.00770757
0.00753242
0.0073573
0.00718224
0.00700723
0.0068323
0.00665743
0.00648265
0.00630796
0.00613336
0.00595886
0.00578446
0.00561017
0.00543599
0.00526192
0.00508797
0.00491413
0.00474041
0.0045668
0.00439331
0.00421994
0.00404668
0.00387354
0.00370051
0.00352759
0.00335477
0.00318205
0.00300944
0.00283692
0.0026645
0.00249216
0.00231991
0.00214774
0.00197564
0.00180361
0.00163164
0.00145973
0.00128787
0.00111606
0.000944289
0.000772553
0.000600845
0.00042916
0.00025749
8.58288e-05
0.000116768
0.00035031
0.000583866
0.000817448
0.00105107
0.00128473
0.00151845
0.00175223
0.00198608
0.00222002
0.00245405
0.00268818
0.00292241
0.00315676
0.00339122
0.00362581
0.00386053
0.00409539
0.00433038
0.00456551
0.00480079
0.00503621
0.00527178
0.00550749
0.00574334
0.00597933
0.00621545
0.00645171
0.00668808
0.00692457
0.00716116
0.00739784
0.00763461
0.00787145
0.00810833
0.00834525
0.00858219
0.00881913
0.00905603
0.00929289
0.00952967
0.00976635
0.0100029
0.0102393
0.0104754
0.0107114
0.0109471
0.0111824
0.0114174
0.011652
0.0118862
0.0121198
0.0123529
0.0125855
0.0128173
0.0130484
0.0132788
0.0135083
0.013737
0.0139646
0.0141912
0.0144167
0.014641
0.0148641
0.0150858
0.0153061
0.0155249
0.0157421
0.0159576
0.0161714
0.0163833
0.0165933
0.0168012
0.017007
0.0172106
0.0174118
0.0176107
0.017807
0.0180007
0.0181916
0.0183798
0.018565
0.0187472
0.0189263
0.0191021
0.0192746
0.0194437
0.0196093
0.0197712
0.0199294
0.0200838
0.0202343
0.0203807
0.020523
0.0206612
0.0207951
0.0209246
0.0210496
0.0211701
0.0212861
0.0213973
0.0215038
0.0216054
0.0217022
0.021794
0.0218809
0.0219627
0.0220393
0.0221108
0.0221772
0.0222383
0.0222942
0.0223447
0.02239
0.0224299
0.0224645
0.0224938
0.0225177
0.0225362
0.0225494
0.0225573
0.0225598
0.0225571
0.022549
0.0225357
0.0225171
0.0224934
0.0224645
0.0224304
0.0223914
0.0223472
0.0222982
0.0222442
0.0221853
0.0221217
0.0220534
0.0219804
0.0219028
0.0218207
0.0217341
0.0216433
0.0215481
0.0214488
0.0213453
0.0212378
0.0211264
0.0210111
0.0208921
0.0207693
0.020643
0.0205132
0.02038
0.0202435
0.0201038
0.0199609
0.019815
0.0196661
0.0195144
0.0193599
0.0192027
0.0190429
0.0188807
0.018716
0.0185489
0.0183797
0.0182082
0.0180347
0.0178592
0.0176817
0.0175025
0.0173214
0.0171387
0.0169543
0.0167684
0.016581
0.0163922
0.0162021
0.0160107
0.0158182
0.0156244
0.0154296
0.0152338
0.0150369
0.0148392
0.0146407
0.0144413
0.0142411
0.0140403
0.0138388
0.0136367
0.013434
0.0132309
0.0130272
0.0128231
0.0126185
0.0124136
0.0122084
0.0120029
0.0117971
0.011591
0.0113848
0.0111783
0.0109717
0.010765
0.0105581
0.0103512
0.0101442
0.00993717
0.0097301
0.00952302
0.00931594
0.00910888
0.00890186
0.00869488
0.00848797
0.00828112
0.00807436
0.00786769
0.00766111
0.00745464
0.00724828
0.00704205
0.00683593
0.00662994
0.00642409
0.00621837
0.00601278
0.00580733
0.00560203
0.00539686
0.00519183
0.00498694
0.00478218
0.00457756
0.00437307
0.00416871
0.00396448
0.00376038
0.00355639
0.00335251
0.00314875
0.00294509
0.00274153
0.00253806
0.00233468
0.00213139
0.00192816
0.00172501
0.00152192
0.00131888
0.0011159
0.000912951
0.000710038
0.000507152
0.000304283
0.000101427
0.000134719
0.000404162
0.000673624
0.000943115
0.00121265
0.00148223
0.00175188
0.00202161
0.00229142
0.00256132
0.00283133
0.00310146
0.00337171
0.00364209
0.00391261
0.00418328
0.0044541
0.00472508
0.00499622
0.00526752
0.00553899
0.00581063
0.00608244
0.00635442
0.00662657
0.00689887
0.00717134
0.00744395
0.00771672
0.00798961
0.00826263
0.00853576
0.00880899
0.00908231
0.00935568
0.0096291
0.00990255
0.010176
0.0104494
0.0107228
0.0109961
0.0112692
0.0115423
0.0118151
0.0120877
0.01236
0.0126321
0.0129038
0.013175
0.0134459
0.0137162
0.0139859
0.014255
0.0145235
0.0147911
0.015058
0.015324
0.015589
0.015853
0.0161158
0.0163775
0.0166379
0.0168969
0.0171545
0.0174105
0.0176649
0.0179176
0.0181685
0.0184174
0.0186643
0.018909
0.0191516
0.0193917
0.0196295
0.0198646
0.0200971
0.0203268
0.0205536
0.0207773
0.0209979
0.0212153
0.0214293
0.0216398
0.0218467
0.0220499
0.0222492
0.0224446
0.0226359
0.022823
0.0230058
0.0231841
0.023358
0.0235272
0.0236917
0.0238514
0.0240061
0.0241557
0.0243002
0.0244395
0.0245734
0.024702
0.024825
0.0249425
0.0250543
0.0251604
0.0252608
0.0253552
0.0254438
0.0255265
0.0256031
0.0256737
0.0257382
0.0257966
0.0258489
0.025895
0.025935
0.0259688
0.0259963
0.0260177
0.0260329
0.026042
0.0260449
0.0260416
0.0260322
0.0260168
0.0259953
0.0259678
0.0259343
0.0258949
0.0258497
0.0257986
0.0257419
0.0256794
0.0256113
0.0255378
0.0254587
0.0253743
0.0252846
0.0251896
0.0250896
0.0249845
0.0248745
0.0247596
0.02464
0.0245158
0.024387
0.0242537
0.0241161
0.0239743
0.0238283
0.0236783
0.0235243
0.0233666
0.0232051
0.02304
0.0228714
0.0226994
0.0225241
0.0223456
0.022164
0.0219794
0.0217919
0.0216016
0.0214087
0.0212132
0.0210151
0.0208147
0.0206119
0.020407
0.0201999
0.0199908
0.0197797
0.0195668
0.0193521
0.0191357
0.0189177
0.0186982
0.0184772
0.0182548
0.0180311
0.0178061
0.01758
0.0173528
0.0171245
0.0168952
0.016665
0.016434
0.0162021
0.0159695
0.0157362
0.0155022
0.0152677
0.0150326
0.0147969
0.0145609
0.0143243
0.0140874
0.0138502
0.0136127
0.0133748
0.0131368
0.0128985
0.01266
0.0124214
0.0121827
0.0119439
0.011705
0.0114661
0.0112271
0.0109881
0.0107491
0.0105102
0.0102713
0.0100324
0.00979363
0.00955493
0.00931633
0.00907784
0.00883946
0.00860121
0.00836309
0.00812511
0.00788727
0.00764959
0.00741205
0.00717468
0.00693746
0.0067004
0.00646351
0.00622677
0.0059902
0.00575379
0.00551754
0.00528145
0.00504551
0.00480972
0.00457408
0.00433858
0.00410322
0.00386799
0.00363289
0.00339791
0.00316305
0.0029283
0.00269365
0.00245909
0.00222462
0.00199023
0.00175591
0.00152166
0.00128746
0.00105332
0.000819205
0.000585125
0.000351066
0.000117021
0.000152664
0.000457998
0.000763352
0.00106874
0.00137418
0.00167967
0.00198524
0.0022909
0.00259665
0.00290252
0.0032085
0.00351462
0.00382088
0.00412729
0.00443386
0.0047406
0.00504751
0.00535461
0.00566189
0.00596936
0.00627702
0.00658488
0.00689294
0.00720119
0.00750963
0.00781826
0.00812707
0.00843606
0.00874522
0.00905453
0.00936399
0.00967359
0.00998329
0.0102931
0.010603
0.0109129
0.0112229
0.0115329
0.0118428
0.0121528
0.0124626
0.0127723
0.0130818
0.0133911
0.0137002
0.014009
0.0143175
0.0146255
0.0149331
0.0152402
0.0155467
0.0158526
0.0161578
0.0164622
0.0167658
0.0170684
0.0173701
0.0176707
0.0179701
0.0182682
0.018565
0.0188604
0.0191542
0.0194464
0.0197369
0.0200255
0.0203122
0.0205968
0.0208792
0.0211593
0.021437
0.0217122
0.0219847
0.0222545
0.0225213
0.0227852
0.0230458
0.0233032
0.0235571
0.0238075
0.0240542
0.0242971
0.024536
0.0247708
0.0250015
0.0252277
0.0254495
0.0256666
0.025879
0.0260865
0.026289
0.0264864
0.0266785
0.0268652
0.0270465
0.0272221
0.027392
0.027556
0.0277141
0.0278662
0.0280121
0.0281518
0.0282852
0.0284121
0.0285326
0.0286465
0.0287537
0.0288543
0.0289481
0.0290351
0.0291152
0.0291884
0.0292547
0.029314
0.0293663
0.0294116
0.0294499
0.0294812
0.0295054
0.0295226
0.0295328
0.029536
0.0295322
0.0295215
0.0295039
0.0294794
0.0294481
0.02941
0.0293653
0.0293138
0.0292558
0.0291912
0.0291202
0.0290429
0.0289592
0.0288694
0.0287735
0.0286716
0.0285637
0.0284501
0.0283307
0.0282057
0.0280752
0.0279394
0.0277983
0.027652
0.0275007
0.0273444
0.0271833
0.0270176
0.0268473
0.0266725
0.0264934
0.02631
0.0261226
0.0259312
0.0257359
0.0255369
0.0253343
0.0251282
0.0249187
0.0247059
0.02449
0.024271
0.0240491
0.0238244
0.023597
0.0233669
0.0231344
0.0228994
0.0226622
0.0224227
0.0221811
0.0219376
0.0216921
0.0214448
0.0211957
0.020945
0.0206928
0.020439
0.0201839
0.0199274
0.0196697
0.0194108
0.0191507
0.0188897
0.0186277
0.0183647
0.0181009
0.0178364
0.0175711
0.0173051
0.0170385
0.0167713
0.0165036
0.0162354
0.0159668
0.0156979
0.0154285
0.0151589
0.014889
0.0146189
0.0143485
0.014078
0.0138074
0.0135367
0.0132658
0.012995
0.0127241
0.0124532
0.0121823
0.0119114
0.0116406
0.0113699
0.0110992
0.0108286
0.0105582
0.0102879
0.0100177
0.00974765
0.00947776
0.00920803
0.00893847
0.00866908
0.00839986
0.00813083
0.00786198
0.00759331
0.00732483
0.00705653
0.00678842
0.00652049
0.00625275
0.00598518
0.00571779
0.00545058
0.00518353
0.00491664
0.00464992
0.00438334
0.00411691
0.00385062
0.00358447
0.00331843
0.00305251
0.00278671
0.002521
0.00225538
0.00198985
0.00172438
0.00145899
0.00119364
0.000928341
0.000663076
0.000397836
0.00013261
0.000170601
0.000511812
0.000853046
0.00119432
0.00153564
0.00187704
0.00221852
0.00256009
0.00290178
0.00324359
0.00358554
0.00392763
0.00426989
0.00461232
0.00495494
0.00529774
0.00564074
0.00598395
0.00632737
0.006671
0.00701486
0.00735894
0.00770324
0.00804776
0.0083925
0.00873746
0.00908263
0.009428
0.00977356
0.0101193
0.0104652
0.0108113
0.0111575
0.0115038
0.0118502
0.0121967
0.0125433
0.0128898
0.0132363
0.0135828
0.0139292
0.0142755
0.0146216
0.0149674
0.015313
0.0156583
0.0160032
0.0163477
0.0166917
0.0170351
0.0173779
0.01772
0.0180613
0.0184018
0.0187414
0.0190799
0.0194173
0.0197535
0.0200885
0.020422
0.020754
0.0210845
0.0214132
0.0217401
0.0220651
0.022388
0.0227088
0.0230273
0.0233433
0.0236568
0.0239675
0.0242755
0.0245805
0.0248824
0.0251811
0.0254764
0.0257681
0.0260562
0.0263405
0.0266208
0.0268969
0.0271688
0.0274363
0.0276992
0.0279574
0.0282107
0.028459
0.0287021
0.02894
0.0291723
0.029399
0.0296201
0.0298352
0.0300443
0.0302472
0.0304439
0.0306341
0.0308178
0.0309948
0.0311651
0.0313285
0.0314849
0.0316343
0.0317764
0.0319113
0.0320388
0.0321589
0.0322715
0.0323765
0.0324739
0.0325636
0.0326455
0.0327197
0.0327861
0.0328446
0.0328953
0.0329381
0.0329731
0.0330001
0.0330193
0.0330306
0.0330341
0.0330298
0.0330177
0.0329979
0.0329704
0.0329352
0.0328925
0.0328422
0.0327845
0.0327194
0.032647
0.0325674
0.0324807
0.0323869
0.0322862
0.0321787
0.0320645
0.0319436
0.0318162
0.0316825
0.0315424
0.0313963
0.031244
0.0310859
0.0309221
0.0307526
0.0305775
0.0303971
0.0302115
0.0300207
0.0298249
0.0296244
0.0294191
0.0292092
0.0289949
0.0287762
0.0285534
0.0283266
0.0280958
0.0278613
0.0276231
0.0273814
0.0271363
0.0268879
0.0266364
0.0263819
0.0261244
0.0258641
0.0256012
0.0253357
0.0250677
0.0247975
0.0245249
0.0242503
0.0239736
0.0236949
0.0234144
0.0231322
0.0228484
0.0225629
0.022276
0.0219877
0.0216981
0.0214073
0.0211153
0.0208222
0.0205282
0.0202331
0.0199372
0.0196405
0.0193431
0.0190449
0.0187462
0.0184468
0.018147
0.0178466
0.0175458
0.0172447
0.0169432
0.0166414
0.0163394
0.0160372
0.0157348
0.0154322
0.0151295
0.0148267
0.0145239
0.0142211
0.0139182
0.0136154
0.0133126
0.0130099
0.0127072
0.0124047
0.0121023
0.0117999
0.0114978
0.0111958
0.0108939
0.0105923
0.0102908
0.0099895
0.0096884
0.0093875
0.0090868
0.00878631
0.00848603
0.00818596
0.0078861
0.00758645
0.00728701
0.00698777
0.00668874
0.0063899
0.00609126
0.00579281
0.00549455
0.00519646
0.00489855
0.0046008
0.0043032
0.00400576
0.00370845
0.00341128
0.00311422
0.00281728
0.00252045
0.0022237
0.00192704
0.00163045
0.00133392
0.00103744
0.000741003
0.000444591
0.000148195
0.000188532
0.000565604
0.000942702
0.00131984
0.00169704
0.00207432
0.00245169
0.00282917
0.00320678
0.00358452
0.00396242
0.00434049
0.00471874
0.00509718
0.00547582
0.00585468
0.00623377
0.00661308
0.00699263
0.00737243
0.00775247
0.00813277
0.00851331
0.00889411
0.00927516
0.00965645
0.010038
0.0104197
0.0108017
0.0111839
0.0115663
0.0119489
0.0123316
0.0127144
0.0130974
0.0134805
0.0138636
0.0142467
0.0146299
0.015013
0.015396
0.0157788
0.0161615
0.016544
0.0169262
0.017308
0.0176894
0.0180704
0.0184508
0.0188306
0.0192098
0.0195882
0.0199657
0.0203423
0.0207179
0.0210924
0.0214657
0.0218377
0.0222082
0.0225772
0.0229446
0.0233102
0.023674
0.0240358
0.0243954
0.0247527
0.0251077
0.0254602
0.0258099
0.0261569
0.0265009
0.0268418
0.0271794
0.0275136
0.0278442
0.0281711
0.0284941
0.0288131
0.0291278
0.0294381
0.0297439
0.030045
0.0303412
0.0306323
0.0309182
0.0311987
0.0314737
0.031743
0.0320064
0.0322637
0.0325148
0.0327596
0.0329978
0.0332294
0.0334542
0.033672
0.0338827
0.0340862
0.0342823
0.0344709
0.0346519
0.0348252
0.0349906
0.035148
0.0352974
0.0354386
0.0355716
0.0356963
0.0358126
0.0359204
0.0360197
0.0361104
0.0361925
0.036266
0.0363308
0.0363868
0.0364342
0.0364728
0.0365027
0.0365239
0.0365363
0.0365401
0.0365352
0.0365217
0.0364996
0.036469
0.03643
0.0363825
0.0363267
0.0362626
0.0361904
0.0361101
0.0360218
0.0359256
0.0358216
0.0357099
0.0355907
0.035464
0.03533
0.0351888
0.0350405
0.0348853
0.0347233
0.0345546
0.0343794
0.0341978
0.03401
0.033816
0.0336161
0.0334105
0.0331991
0.0329823
0.0327601
0.0325327
0.0323002
0.0320628
0.0318207
0.031574
0.0313228
0.0310673
0.0308076
0.0305438
0.0302762
0.0300049
0.0297299
0.0294514
0.0291697
0.0288847
0.0285966
0.0283056
0.0280117
0.0277151
0.027416
0.0271144
0.0268105
0.0265043
0.0261959
0.0258856
0.0255733
0.0252593
0.0249435
0.0246261
0.0243071
0.0239867
0.023665
0.023342
0.0230178
0.0226925
0.0223662
0.0220389
0.0217108
0.0213818
0.021052
0.0207216
0.0203906
0.020059
0.0197268
0.0193942
0.0190612
0.0187278
0.0183942
0.0180602
0.017726
0.0173916
0.0170571
0.0167224
0.0163877
0.0160529