/*--------------------------------*- C++ -*----------------------------------*\
| =========                 |                                                 |
| \\      /  F ield         | OpenFOAM: The Open Source CFD Toolbox           |
|  \\    /   O peration     | Version:  v2012                                 |
|   \\  /    A nd           | Website:  www.openfoam.com                      |
|    \\/     M anipulation  |                                                 |
\*---------------------------------------------------------------------------*/
FoamFile
{
    version     2.0;
    format      ascii;
    class       volScalarField;
    location    "17.4";
    object      Psi_z;
}
// * * * * * * * * * * * * * * * * * * * * * * * * * * * * * * * * * * * * * //

dimensions      [0 2 -1 0 0 0 0];


internalField   nonuniform List<scalar> 
65536
(
8.20083e-06
2.4603e-05
4.10065e-05
5.7412e-05
7.38205e-05
9.02328e-05
0.00010665
0.000123072
0.0001395
0.000155936
0.000172379
0.00018883
0.000205291
0.000221762
0.000238243
0.000254736
0.00027124
0.000287757
0.000304287
0.000320831
0.000337388
0.00035396
0.000370547
0.00038715
0.000403768
0.000420401
0.000437051
0.000453717
0.0004704
0.000487098
0.000503813
0.000520545
0.000537292
0.000554055
0.000570834
0.000587628
0.000604437
0.000621259
0.000638096
0.000654945
0.000671806
0.000688678
0.00070556
0.000722451
0.000739349
0.000756254
0.000773164
0.000790077
0.000806991
0.000823906
0.000840817
0.000857725
0.000874626
0.000891518
0.000908399
0.000925265
0.000942115
0.000958945
0.000975752
0.000992532
0.00100928
0.001026
0.00104268
0.00105932
0.00107592
0.00109246
0.00110896
0.00112539
0.00114176
0.00115806
0.00117429
0.00119044
0.00120651
0.00122249
0.00123838
0.00125416
0.00126983
0.00128539
0.00130084
0.00131615
0.00133133
0.00134638
0.00136127
0.00137601
0.00139059
0.001405
0.00141924
0.00143329
0.00144715
0.0014608
0.00147426
0.00148749
0.00150051
0.00151329
0.00152583
0.00153813
0.00155017
0.00156194
0.00157345
0.00158468
0.00159562
0.00160626
0.0016166
0.00162663
0.00163635
0.00164573
0.00165479
0.0016635
0.00167187
0.00167989
0.00168754
0.00169483
0.00170175
0.00170829
0.00171444
0.00172021
0.00172558
0.00173055
0.00173513
0.00173929
0.00174304
0.00174638
0.00174931
0.00175181
0.00175389
0.00175555
0.00175678
0.00175759
0.00175797
0.00175792
0.00175745
0.00175655
0.00175522
0.00175347
0.0017513
0.0017487
0.00174569
0.00174226
0.00173842
0.00173417
0.00172951
0.00172445
0.00171899
0.00171314
0.00170691
0.00170029
0.00169329
0.00168592
0.00167819
0.00167009
0.00166165
0.00165286
0.00164373
0.00163427
0.00162448
0.00161437
0.00160396
0.00159324
0.00158223
0.00157093
0.00155934
0.00154749
0.00153537
0.001523
0.00151037
0.00149751
0.00148441
0.00147108
0.00145754
0.00144379
0.00142983
0.00141568
0.00140134
0.00138682
0.00137213
0.00135727
0.00134225
0.00132708
0.00131176
0.00129631
0.00128072
0.00126501
0.00124918
0.00123324
0.00121718
0.00120103
0.00118478
0.00116844
0.00115201
0.00113551
0.00111893
0.00110228
0.00108556
0.00106879
0.00105196
0.00103507
0.00101814
0.00100116
0.000984143
0.000967089
0.000950002
0.000932885
0.00091574
0.000898572
0.000881383
0.000864176
0.000846953
0.000829717
0.00081247
0.000795214
0.000777951
0.000760684
0.000743414
0.000726143
0.000708872
0.000691603
0.000674338
0.000657077
0.000639821
0.000622572
0.00060533
0.000588098
0.000570874
0.00055366
0.000536456
0.000519264
0.000502083
0.000484914
0.000467756
0.000450611
0.000433478
0.000416358
0.00039925
0.000382154
0.00036507
0.000347999
0.000330939
0.000313891
0.000296854
0.000279828
0.000262813
0.000245807
0.000228811
0.000211824
0.000194846
0.000177875
0.000160912
0.000143956
0.000127005
0.00011006
9.31198e-05
7.61835e-05
5.92504e-05
4.23199e-05
2.53912e-05
8.46361e-06
2.46023e-05
7.38081e-05
0.000123018
0.000172234
0.000221458
0.000270694
0.000319944
0.00036921
0.000418495
0.0004678
0.000517129
0.000566483
0.000615865
0.000665277
0.00071472
0.000764197
0.00081371
0.000863261
0.00091285
0.000962481
0.00101215
0.00106187
0.00111163
0.00116144
0.00121129
0.00126119
0.00131114
0.00136114
0.00141119
0.00146128
0.00151143
0.00156162
0.00161186
0.00166215
0.00171249
0.00176287
0.0018133
0.00186377
0.00191428
0.00196483
0.00201541
0.00206603
0.00211668
0.00216735
0.00221805
0.00226876
0.00231949
0.00237023
0.00242098
0.00247172
0.00252246
0.00257319
0.00262389
0.00267457
0.00272522
0.00277582
0.00282637
0.00287686
0.00292729
0.00297763
0.00302789
0.00307805
0.00312809
0.00317802
0.00322781
0.00327745
0.00332693
0.00337624
0.00342535
0.00347427
0.00352296
0.00357142
0.00361963
0.00366758
0.00371523
0.00376259
0.00380962
0.00385631
0.00390264
0.0039486
0.00399415
0.00403928
0.00408398
0.00412821
0.00417195
0.00421519
0.0042579
0.00430006
0.00434164
0.00438263
0.00442299
0.00446271
0.00450175
0.00454011
0.00457774
0.00461464
0.00465077
0.00468611
0.00472063
0.00475432
0.00478715
0.00481909
0.00485012
0.00488022
0.00490937
0.00493754
0.00496471
0.00499086
0.00501598
0.00504003
0.005063
0.00508487
0.00510563
0.00512525
0.00514372
0.00516102
0.00517715
0.00519207
0.00520579
0.00521828
0.00522955
0.00523957
0.00524834
0.00525585
0.0052621
0.00526708
0.00527078
0.0052732
0.00527434
0.0052742
0.00527278
0.00527008
0.0052661
0.00526084
0.00525432
0.00524653
0.00523749
0.0052272
0.00521567
0.00520291
0.00518893
0.00517375
0.00515737
0.00513982
0.0051211
0.00510123
0.00508024
0.00505813
0.00503492
0.00501064
0.00498529
0.00495892
0.00493152
0.00490313
0.00487376
0.00484343
0.00481218
0.00478002
0.00474697
0.00471306
0.0046783
0.00464273
0.00460637
0.00456923
0.00453135
0.00449275
0.00445344
0.00441346
0.00437282
0.00433156
0.00428968
0.00424722
0.00420419
0.00416063
0.00411654
0.00407196
0.0040269
0.00398138
0.00393543
0.00388906
0.00384229
0.00379515
0.00374765
0.00369981
0.00365165
0.00360318
0.00355443
0.0035054
0.00345612
0.0034066
0.00335685
0.0033069
0.00325675
0.00320642
0.00315591
0.00310526
0.00305445
0.00300352
0.00295246
0.0029013
0.00285003
0.00279868
0.00274724
0.00269573
0.00264416
0.00259254
0.00254087
0.00248916
0.00243741
0.00238565
0.00233386
0.00228205
0.00223024
0.00217843
0.00212661
0.0020748
0.00202301
0.00197122
0.00191945
0.00186771
0.00181598
0.00176428
0.00171261
0.00166097
0.00160936
0.00155778
0.00150623
0.00145473
0.00140325
0.00135182
0.00130042
0.00124906
0.00119773
0.00114645
0.0010952
0.00104398
0.000992805
0.000941661
0.000890551
0.000839473
0.000788427
0.000737411
0.000686424
0.000635464
0.000584529
0.000533618
0.000482729
0.000431861
0.00038101
0.000330176
0.000279355
0.000228547
0.000177748
0.000126958
7.61724e-05
2.53904e-05
4.10024e-05
0.000123009
0.000205023
0.000287046
0.000369085
0.000451142
0.000533223
0.00061533
0.000697468
0.000779642
0.000861854
0.000944108
0.00102641
0.00110876
0.00119116
0.00127362
0.00135614
0.00143872
0.00152137
0.00160409
0.00168687
0.00176973
0.00185267
0.00193568
0.00201876
0.00210193
0.00218518
0.00226851
0.00235192
0.00243542
0.00251899
0.00260265
0.00268639
0.00277021
0.0028541
0.00293807
0.00302212
0.00310624
0.00319042
0.00327467
0.00335898
0.00344335
0.00352776
0.00361222
0.00369672
0.00378126
0.00386581
0.00395039
0.00403497
0.00411955
0.00420412
0.00428867
0.00437319
0.00445766
0.00454207
0.00462642
0.00471069
0.00479485
0.0048789
0.00496282
0.00504659
0.0051302
0.00521363
0.00529685
0.00537984
0.00546259
0.00554508
0.00562727
0.00570915
0.00579069
0.00587187
0.00595266
0.00603302
0.00611295
0.00619239
0.00627134
0.00634974
0.00642759
0.00650483
0.00658144
0.00665738
0.00673263
0.00680714
0.00688088
0.00695382
0.00702591
0.00709711
0.0071674
0.00723673
0.00730507
0.00737237
0.00743859
0.00750369
0.00756764
0.0076304
0.00769192
0.00775216
0.00781109
0.00786865
0.00792483
0.00797956
0.00803282
0.00808457
0.00813476
0.00818336
0.00823034
0.00827565
0.00831926
0.00836114
0.00840125
0.00843955
0.00847603
0.00851064
0.00854336
0.00857416
0.00860302
0.0086299
0.0086548
0.00867767
0.00869851
0.00871729
0.00873401
0.00874864
0.00876116
0.00877158
0.00877988
0.00878605
0.00879009
0.008792
0.00879176
0.00878939
0.00878488
0.00877825
0.00876948
0.0087586
0.00874562
0.00873054
0.00871337
0.00869414
0.00867286
0.00864955
0.00862423
0.00859693
0.00856765
0.00853644
0.00850331
0.0084683
0.00843143
0.00839273
0.00835224
0.00830998
0.00826599
0.00822031
0.00817296
0.00812399
0.00807342
0.00802131
0.00796768
0.00791257
0.00785603
0.00779808
0.00773877
0.00767814
0.00761622
0.00755306
0.00748869
0.00742316
0.00735649
0.00728874
0.00721994
0.00715012
0.00707932
0.00700759
0.00693496
0.00686146
0.00678713
0.006712
0.00663612
0.00655951
0.0064822
0.00640424
0.00632565
0.00624646
0.00616671
0.00608642
0.00600562
0.00592435
0.00584262
0.00576047
0.00567791
0.00559499
0.00551172
0.00542812
0.00534421
0.00526003
0.00517559
0.0050909
0.005006
0.0049209
0.00483561
0.00475015
0.00466455
0.00457881
0.00449296
0.004407
0.00432095
0.00423482
0.00414863
0.00406239
0.0039761
0.00388978
0.00380343
0.00371707
0.00363071
0.00354435
0.003458
0.00337166
0.00328535
0.00319907
0.00311282
0.00302661
0.00294044
0.00285431
0.00276824
0.00268222
0.00259626
0.00251035
0.0024245
0.00233872
0.00225299
0.00216733
0.00208172
0.00199618
0.00191071
0.00182529
0.00173993
0.00165464
0.0015694
0.00148421
0.00139909
0.00131401
0.00122899
0.00114401
0.00105908
0.000974189
0.000889339
0.000804527
0.000719747
0.000634999
0.000550277
0.000465579
0.0003809
0.000296239
0.00021159
0.00012695
4.23162e-05
5.74004e-05
0.000172204
0.000287017
0.000401844
0.000516692
0.000631567
0.000746474
0.000861418
0.000976407
0.00109144
0.00120654
0.00132169
0.0014369
0.00155219
0.00166755
0.00178299
0.00189851
0.00201412
0.00212983
0.00224562
0.00236152
0.00247752
0.00259362
0.00270984
0.00282616
0.00294259
0.00305914
0.0031758
0.00329258
0.00340947
0.00352647
0.0036436
0.00376083
0.00387818
0.00399563
0.0041132
0.00423087
0.00434864
0.0044665
0.00458446
0.0047025
0.00482062
0.00493881
0.00505706
0.00517537
0.00529372
0.00541211
0.00553053
0.00564896
0.00576738
0.0058858
0.00600418
0.00612252
0.0062408
0.006359
0.00647711
0.0065951
0.00671295
0.00683064
0.00694816
0.00706546
0.00718254
0.00729936
0.0074159
0.00753212
0.007648
0.00776351
0.00787862
0.00799329
0.00810748
0.00822116
0.0083343
0.00844686
0.00855879
0.00867006
0.00878062
0.00889043
0.00899946
0.00910764
0.00921495
0.00932132
0.00942671
0.00953108
0.00963436
0.00973652
0.0098375
0.00993725
0.0100357
0.0101328
0.0102285
0.0103228
0.0104156
0.0105068
0.0105964
0.0106843
0.0107705
0.0108549
0.0109374
0.0110181
0.0110968
0.0111735
0.0112481
0.0113206
0.0113909
0.011459
0.0115248
0.0115883
0.0116494
0.0117081
0.0117643
0.0118179
0.011869
0.0119175
0.0119634
0.0120066
0.012047
0.0120847
0.0121195
0.0121516
0.0121808
0.0122071
0.0122305
0.012251
0.0122686
0.0122832
0.0122948
0.0123035
0.0123091
0.0123118
0.0123115
0.0123081
0.0123018
0.0122925
0.0122802
0.012265
0.0122468
0.0122257
0.0122016
0.0121747
0.0121449
0.0121122
0.0120767
0.0120384
0.0119974
0.0119537
0.0119073
0.0118582
0.0118066
0.0117523
0.0116956
0.0116364
0.0115748
0.0115108
0.0114444
0.0113758
0.011305
0.011232
0.0111568
0.0110796
0.0110004
0.0109192
0.0108361
0.0107512
0.0106645
0.010576
0.0104858
0.010394
0.0103006
0.0102057
0.0101093
0.0100115
0.00991237
0.00981189
0.00971015
0.0096072
0.00950309
0.00939787
0.00929158
0.00918428
0.00907601
0.00896682
0.00885675
0.00874584
0.00863414
0.0085217
0.00840854
0.00829472
0.00818026
0.00806521
0.0079496
0.00783348
0.00771686
0.00759979
0.00748229
0.00736441
0.00724616
0.00712757
0.00700868
0.00688951
0.00677008
0.00665043
0.00653056
0.00641051
0.00629029
0.00616993
0.00604944
0.00592885
0.00580816
0.0056874
0.00556658
0.00544572
0.00532482
0.00520391
0.00508299
0.00496207
0.00484117
0.00472029
0.00459945
0.00447865
0.00435789
0.00423719
0.00411655
0.00399597
0.00387547
0.00375504
0.00363468
0.00351441
0.00339422
0.00327412
0.0031541
0.00303417
0.00291433
0.00279457
0.0026749
0.00255532
0.00243582
0.00231641
0.00219708
0.00207782
0.00195865
0.00183955
0.00172051
0.00160155
0.00148265
0.00136381
0.00124502
0.00112629
0.0010076
0.00088896
0.000770355
0.000651782
0.000533237
0.000414716
0.000296213
0.000177723
5.924e-05
7.37954e-05
0.00022139
0.000368996
0.000516621
0.000664273
0.000811959
0.000959687
0.00110746
0.0012553
0.00140319
0.00155116
0.0016992
0.00184733
0.00199554
0.00214386
0.00229227
0.00244079
0.00258943
0.00273818
0.00288706
0.00303607
0.0031852
0.00333448
0.00348389
0.00363344
0.00378314
0.00393298
0.00408297
0.00423311
0.0043834
0.00453384
0.00468443
0.00483516
0.00498604
0.00513706
0.00528822
0.00543951
0.00559094
0.00574249
0.00589415
0.00604593
0.00619781
0.00634978
0.00650184
0.00665397
0.00680615
0.00695839
0.00711066
0.00726294
0.00741523
0.0075675
0.00771973
0.00787191
0.00802402
0.00817602
0.00832791
0.00847964
0.0086312
0.00878256
0.00893369
0.00908456
0.00923513
0.00938538
0.00953526
0.00968474
0.00983379
0.00998235
0.0101304
0.0102779
0.0104248
0.010571
0.0107165
0.0108613
0.0110053
0.0111484
0.0112906
0.0114319
0.0115722
0.0117113
0.0118494
0.0119862
0.0121218
0.0122561
0.012389
0.0125204
0.0126503
0.0127787
0.0129053
0.0130303
0.0131535
0.0132748
0.0133941
0.0135115
0.0136268
0.0137399
0.0138508
0.0139594
0.0140657
0.0141694
0.0142707
0.0143694
0.0144654
0.0145587
0.0146493
0.0147369
0.0148216
0.0149033
0.014982
0.0150575
0.0151298
0.0151989
0.0152647
0.0153271
0.0153861
0.0154417
0.0154937
0.0155422
0.0155871
0.0156284
0.0156659
0.0156998
0.01573
0.0157564
0.015779
0.0157978
0.0158127
0.0158239
0.0158311
0.0158346
0.0158341
0.0158299
0.0158217
0.0158098
0.015794
0.0157743
0.0157509
0.0157237
0.0156928
0.0156581
0.0156197
0.0155776
0.015532
0.0154827
0.0154299
0.0153736
0.0153139
0.0152507
0.0151842
0.0151145
0.0150414
0.0149652
0.0148859
0.0148035
0.0147182
0.0146299
0.0145387
0.0144447
0.014348
0.0142487
0.0141467
0.0140423
0.0139353
0.013826
0.0137144
0.0136006
0.0134845
0.0133664
0.0132463
0.0131241
0.0130001
0.0128743
0.0127467
0.0126175
0.0124866
0.0123541
0.0122202
0.0120848
0.0119481
0.01181
0.0116707
0.0115303
0.0113887
0.011246
0.0111023
0.0109577
0.0108121
0.0106657
0.0105185
0.0103705
0.0102218
0.0100725
0.00992246
0.00977188
0.00962077
0.00946915
0.00931706
0.00916455
0.00901165
0.00885838
0.00870479
0.00855091
0.00839675
0.00824237
0.00808777
0.00793298
0.00777804
0.00762296
0.00746776
0.00731248
0.00715711
0.00700169
0.00684623
0.00669075
0.00653527
0.00637979
0.00622432
0.0060689
0.00591351
0.00575818
0.00560291
0.00544771
0.00529259
0.00513756
0.00498262
0.00482777
0.00467303
0.00451839
0.00436385
0.00420943
0.00405512
0.00390093
0.00374684
0.00359287
0.00343901
0.00328527
0.00313163
0.0029781
0.00282468
0.00267136
0.00251814
0.00236501
0.00221197
0.00205903
0.00190616
0.00175337
0.00160066
0.00144801
0.00129542
0.00114288
0.000990399
0.000837957
0.000685551
0.000533176
0.000380823
0.000228487
7.61613e-05
9.01866e-05
0.000270564
0.000450956
0.000631372
0.00081182
0.00099231
0.00117285
0.00135345
0.00153412
0.00171487
0.0018957
0.00207663
0.00225766
0.0024388
0.00262006
0.00280144
0.00298296
0.00316462
0.00334642
0.00352837
0.00371048
0.00389275
0.00407519
0.00425779
0.00444058
0.00462353
0.00480667
0.00498999
0.0051735
0.00535719
0.00554106
0.00572511
0.00590934
0.00609376
0.00627834
0.0064631
0.00664803
0.00683311
0.00701835
0.00720374
0.00738926
0.00757491
0.00776067
0.00794654
0.0081325
0.00831853
0.00850463
0.00869076
0.00887692
0.00906309
0.00924923
0.00943534
0.00962138
0.00980733
0.00999317
0.0101789
0.0103644
0.0105497
0.0107347
0.0109195
0.0111039
0.011288
0.0114718
0.011655
0.0118378
0.01202
0.0122017
0.0123827
0.0125631
0.0127427
0.0129215
0.0130995
0.0132766
0.0134526
0.0136277
0.0138016
0.0139744
0.0141459
0.0143162
0.014485
0.0146524
0.0148182
0.0149825
0.015145
0.0153058
0.0154647
0.0156217
0.0157767
0.0159296
0.0160803
0.0162287
0.0163747
0.0165183
0.0166593
0.0167977
0.0169334
0.0170663
0.0171963
0.0173233
0.0174473
0.017568
0.0176855
0.0177997
0.0179105
0.0180177
0.0181214
0.0182214
0.0183176
0.0184101
0.0184986
0.0185831
0.0186637
0.0187401
0.0188123
0.0188803
0.018944
0.0190033
0.0190583
0.0191088
0.0191548
0.0191963
0.0192332
0.0192655
0.0192931
0.0193161
0.0193345
0.0193481
0.019357
0.0193612
0.0193607
0.0193555
0.0193455
0.0193309
0.0193115
0.0192875
0.0192588
0.0192255
0.0191876
0.0191452
0.0190982
0.0190467
0.0189908
0.0189305
0.0188659
0.018797
0.0187239
0.0186466
0.0185652
0.0184798
0.0183904
0.0182972
0.0182001
0.0180993
0.0179948
0.0178868
0.0177752
0.0176602
0.0175419
0.0174203
0.0172956
0.0171678
0.0170369
0.0169032
0.0167666
0.0166273
0.0164854
0.0163409
0.0161939
0.0160445
0.0158928
0.0157388
0.0155828
0.0154246
0.0152645
0.0151025
0.0149387
0.0147731
0.0146058
0.014437
0.0142667
0.0140949
0.0139217
0.0137472
0.0135715
0.0133946
0.0132166
0.0130375
0.0128575
0.0126765
0.0124947
0.0123121
0.0121286
0.0119445
0.0117597
0.0115744
0.0113884
0.0112019
0.011015
0.0108276
0.0106398
0.0104517
0.0102632
0.0100744
0.00988543
0.0096962
0.00950678
0.00931719
0.00912746
0.00893763
0.0087477
0.00855771
0.00836767
0.00817761
0.00798754
0.00779748
0.00760745
0.00741745
0.00722752
0.00703765
0.00684786
0.00665816
0.00646855
0.00627905
0.00608967
0.00590041
0.00571127
0.00552226
0.00533338
0.00514464
0.00495603
0.00476757
0.00457924
0.00439106
0.00420301
0.0040151
0.00382733
0.00363969
0.00345218
0.00326479
0.00307753
0.00289038
0.00270335
0.00251642
0.0023296
0.00214287
0.00195622
0.00176966
0.00158318
0.00139676
0.0012104
0.0010241
0.000837836
0.000651612
0.000465417
0.000279242
9.30792e-05
0.000106573
0.000319725
0.000532893
0.000746089
0.000959324
0.00117261
0.00138595
0.00159937
0.00181287
0.00202646
0.00224015
0.00245395
0.00266788
0.00288194
0.00309614
0.00331048
0.00352499
0.00373966
0.0039545
0.00416952
0.00438473
0.00460013
0.00481572
0.00503152
0.00524753
0.00546375
0.00568018
0.00589683
0.0061137
0.00633078
0.00654809
0.00676561
0.00698335
0.0072013
0.00741945
0.00763782
0.00785638
0.00807513
0.00829407
0.00851319
0.00873246
0.00895189
0.00917146
0.00939115
0.00961096
0.00983085
0.0100508
0.0102708
0.0104909
0.010711
0.010931
0.011151
0.0113709
0.0115908
0.0118105
0.01203
0.0122493
0.0124684
0.0126871
0.0129056
0.0131237
0.0133414
0.0135586
0.0137753
0.0139914
0.0142069
0.0144217
0.0146358
0.014849
0.0150614
0.0152729
0.0154834
0.0156928
0.015901
0.0161081
0.0163138
0.0165181
0.016721
0.0169224
0.0171221
0.0173201
0.0175163
0.0177106
0.0179029
0.0180931
0.0182811
0.0184668
0.0186502
0.018831
0.0190093
0.0191849
0.0193577
0.0195276
0.0196945
0.0198583
0.0200189
0.0201761
0.02033
0.0204803
0.020627
0.0207699
0.020909
0.0210441
0.0211752
0.0213021
0.0214248
0.0215432
0.0216571
0.0217666
0.0218713
0.0219714
0.0220668
0.0221572
0.0222427
0.0223232
0.0223986
0.0224689
0.0225339
0.0225937
0.0226482
0.0226973
0.022741
0.0227792
0.022812
0.0228392
0.0228609
0.022877
0.0228876
0.0228926
0.022892
0.0228858
0.022874
0.0228566
0.0228337
0.0228053
0.0227713
0.0227319
0.022687
0.0226368
0.0225812
0.0225202
0.0224541
0.0223827
0.0223062
0.0222246
0.0221381
0.0220466
0.0219502
0.0218491
0.0217434
0.021633
0.0215181
0.0213987
0.0212751
0.0211472
0.0210151
0.0208791
0.020739
0.0205952
0.0204475
0.0202963
0.0201414
0.0199832
0.0198216
0.0196568
0.0194888
0.0193178
0.0191439
0.0189671
0.0187876
0.0186055
0.0184209
0.0182338
0.0180444
0.0178527
0.0176589
0.0174631
0.0172652
0.0170655
0.016864
0.0166608
0.016456
0.0162496
0.0160418
0.0158326
0.0156221
0.0154103
0.0151974
0.0149834
0.0147684
0.0145524
0.0143355
0.0141178
0.0138993
0.0136801
0.0134603
0.0132398
0.0130187
0.0127972
0.0125752
0.0123527
0.0121299
0.0119068
0.0116833
0.0114596
0.0112357
0.0110116
0.0107873
0.0105629
0.0103384
0.0101138
0.00988913
0.00966447
0.0094398
0.00921514
0.00899053
0.00876596
0.00854146
0.00831704
0.00809272
0.0078685
0.00764441
0.00742044
0.00719661
0.00697292
0.00674938
0.00652599
0.00630277
0.0060797
0.00585681
0.00563407
0.00541151
0.00518911
0.00496688
0.00474481
0.0045229
0.00430115
0.00407955
0.00385811
0.0036368
0.00341564
0.00319462
0.00297372
0.00275294
0.00253227
0.00231171
0.00209124
0.00187087
0.00165057
0.00143035
0.00121019
0.000990083
0.000770019
0.00054999
0.000329984
0.000109993
0.000122954
0.000368868
0.000614802
0.000860768
0.00110678
0.00135285
0.00159899
0.00184521
0.00209152
0.00233795
0.00258449
0.00283116
0.00307797
0.00332494
0.00357206
0.00381936
0.00406685
0.00431452
0.0045624
0.00481048
0.00505878
0.00530731
0.00555606
0.00580505
0.00605428
0.00630375
0.00655348
0.00680345
0.00705368
0.00730416
0.0075549
0.00780589
0.00805713
0.00830863
0.00856036
0.00881233
0.00906454
0.00931697
0.00956962
0.00982247
0.0100755
0.0103287
0.0105821
0.0108357
0.0110893
0.0113431
0.011597
0.0118509
0.0121049
0.0123589
0.0126128
0.0128667
0.0131206
0.0133743
0.0136279
0.0138813
0.0141345
0.0143873
0.0146399
0.0148921
0.0151438
0.0153951
0.0156459
0.0158961
0.0161456
0.0163944
0.0166424
0.0168896
0.0171359
0.0173811
0.0176253
0.0178683
0.0181101
0.0183506
0.0185897
0.0188273
0.0190633
0.0192977
0.0195302
0.0197609
0.0199896
0.0202162
0.0204406
0.0206628
0.0208825
0.0210997
0.0213143
0.0215261
0.0217351
0.0219411
0.022144
0.0223436
0.0225399
0.0227328
0.0229221
0.0231076
0.0232894
0.0234672
0.0236409
0.0238104
0.0239756
0.0241363
0.0242925
0.0244441
0.0245908
0.0247326
0.0248695
0.0250012
0.0251277
0.0252488
0.0253645
0.0254747
0.0255793
0.0256781
0.0257712
0.0258584
0.0259396
0.0260149
0.026084
0.026147
0.0262037
0.0262543
0.0262985
0.0263363
0.0263678
0.0263929
0.0264116
0.0264238
0.0264295
0.0264288
0.0264216
0.026408
0.026388
0.0263615
0.0263286
0.0262893
0.0262437
0.0261919
0.0261337
0.0260694
0.025999
0.0259225
0.02584
0.0257515
0.0256572
0.0255572
0.0254514
0.02534
0.0252231
0.0251009
0.0249732
0.0248404
0.0247025
0.0245596
0.0244117
0.0242591
0.0241018
0.02394
0.0237737
0.0236031
0.0234283
0.0232494
0.0230665
0.0228798
0.0226893
0.0224952
0.0222977
0.0220967
0.0218925
0.0216851
0.0214747
0.0212614
0.0210453
0.0208265
0.0206051
0.0203812
0.020155
0.0199265
0.0196958
0.0194631
0.0192284
0.0189918
0.0187535
0.0185135
0.0182719
0.0180288
0.0177843
0.0175384
0.0172913
0.0170431
0.0167937
0.0165433
0.0162919
0.0160396
0.0157866
0.0155327
0.0152782
0.015023
0.0147672
0.0145109
0.0142542
0.013997
0.0137394
0.0134815
0.0132232
0.0129648
0.0127061
0.0124472
0.0121882
0.0119291
0.0116699
0.0114106
0.0111513
0.010892
0.0106328
0.0103736
0.0101144
0.00985532
0.00959634
0.00933747
0.00907873
0.00882014
0.00856169
0.0083034
0.00804528
0.00778733
0.00752957
0.00727199
0.00701461
0.00675741
0.00650041
0.00624361
0.00598699
0.00573057
0.00547435
0.00521831
0.00496245
0.00470677
0.00445127
0.00419594
0.00394077
0.00368576
0.00343089
0.00317616
0.00292157
0.0026671
0.00241274
0.00215848
0.00190432
0.00165024
0.00139623
0.00114229
0.000888393
0.000634538
0.000380712
0.000126902
0.000139328
0.000417992
0.000696678
0.000975401
0.00125417
0.00153301
0.00181193
0.00209095
0.00237007
0.00264931
0.00292869
0.00320822
0.00348791
0.00376777
0.00404782
0.00432806
0.00460852
0.00488919
0.00517009
0.00545123
0.00573261
0.00601425
0.00629616
0.00657833
0.00686078
0.00714351
0.00742652
0.00770982
0.00799341
0.00827729
0.00856146
0.00884592
0.00913067
0.00941571
0.00970102
0.00998661
0.0102725
0.0105586
0.010845
0.0111316
0.0114184
0.0117054
0.0119926
0.01228
0.0125676
0.0128553
0.013143
0.0134309
0.0137188
0.0140068
0.0142947
0.0145826
0.0148704
0.015158
0.0154455
0.0157328
0.0160199
0.0163066
0.016593
0.016879
0.0171645
0.0174494
0.0177338
0.0180175
0.0183005
0.0185827
0.018864
0.0191443
0.0194237
0.0197018
0.0199788
0.0202545
0.0205288
0.0208016
0.0210729
0.0213424
0.0216102
0.0218761
0.0221399
0.0224017
0.0226612
0.0229183
0.023173
0.0234251
0.0236744
0.023921
0.0241645
0.0244049
0.0246421
0.0248759
0.0251062
0.0253329
0.0255557
0.0257747
0.0259896
0.0262002
0.0264066
0.0266084
0.0268057
0.0269981
0.0271857
0.0273683
0.0275456
0.0277177
0.0278844
0.0280455
0.0282008
0.0283504
0.0284941
0.0286317
0.0287631
0.0288883
0.0290071
0.0291194
0.0292251
0.0293241
0.0294164
0.0295019
0.0295804
0.0296519
0.0297164
0.0297738
0.029824
0.0298671
0.0299028
0.0299313
0.0299525
0.0299664
0.0299729
0.0299721
0.029964
0.0299485
0.0299257
0.0298956
0.0298582
0.0298136
0.0297619
0.0297029
0.0296369
0.0295639
0.0294838
0.0293969
0.0293032
0.0292027
0.0290956
0.0289819
0.0288618
0.0287353
0.0286026
0.0284637
0.0283187
0.0281679
0.0280113
0.0278489
0.0276811
0.0275078
0.0273292
0.0271454
0.0269566
0.0267629
0.0265644
0.0263613
0.0261537
0.0259417
0.0257255
0.0255052
0.0252809
0.0250528
0.024821
0.0245857
0.0243469
0.0241048
0.0238595
0.0236112
0.0233599
0.0231059
0.0228492
0.0225899
0.0223282
0.0220641
0.0217978
0.0215295
0.0212591
0.0209868
0.0207127
0.020437
0.0201596
0.0198807
0.0196004
0.0193188
0.019036
0.018752
0.0184669
0.0181808
0.0178938
0.0176059
0.0173172
0.0170279
0.0167378
0.0164472
0.016156
0.0158644
0.0155723
0.0152799
0.0149871
0.0146941
0.0144008
0.0141073
0.0138137
0.0135199
0.013226
0.0129321
0.0126382
0.0123443
0.0120504
0.0117565
0.0114628
0.0111691
0.0108755
0.0105821
0.0102888
0.00999571
0.00970278
0.00941002
0.00911746
0.00882511
0.00853296
0.00824103
0.00794932
0.00765782
0.00736656
0.00707551
0.00678469
0.00649408
0.0062037
0.00591353
0.00562358
0.00533382
0.00504427
0.00475492
0.00446574
0.00417675
0.00388793
0.00359926
0.00331075
0.00302237
0.00273413
0.002446
0.00215798
0.00187005
0.00158221
0.00129444
0.00100673
0.000719058
0.000431422
0.000143805
0.000155695
0.000467094
0.000778518
0.00108998
0.00140151
0.0017131
0.00202479
0.00233658
0.00264849
0.00296055
0.00327275
0.00358512
0.00389767
0.00421042
0.00452337
0.00483655
0.00514996
0.00546362
0.00577754
0.00609172
0.00640619
0.00672094
0.00703598
0.00735133
0.00766699
0.00798297
0.00829927
0.00861589
0.00893284
0.00925012
0.00956773
0.00988566
0.0102039
0.0105225
0.0108414
0.0111606
0.0114801
0.0118
0.01212
0.0124404
0.012761
0.0130819
0.013403
0.0137242
0.0140457
0.0143673
0.014689
0.0150109
0.0153327
0.0156547
0.0159766
0.0162985
0.0166203
0.0169419
0.0172634
0.0175847
0.0179056
0.0182263
0.0185465
0.0188663
0.0191856
0.0195043
0.0198224
0.0201397
0.0204562
0.0207719
0.0210865
0.0214001
0.0217126
0.0220238
0.0223337
0.0226421
0.022949
0.0232542
0.0235577
0.0238593
0.024159
0.0244565
0.0247518
0.0250447
0.0253351
0.0256229
0.025908
0.0261901
0.0264692
0.0267452
0.0270178
0.027287
0.0275525
0.0278143
0.0280721
0.0283259
0.0285754
0.0288206
0.0290612
0.0292972
0.0295282
0.0297543
0.0299752
0.0301908
0.0304009
0.0306054
0.030804
0.0309968
0.0311835
0.0313639
0.031538
0.0317056
0.0318666
0.0320207
0.032168
0.0323082
0.0324413
0.0325671
0.0326856
0.0327966
0.0329
0.0329958
0.0330838
0.0331639
0.0332362
0.0333005
0.0333568
0.033405
0.0334451
0.0334771
0.0335008
0.0335164
0.0335237
0.0335228
0.0335136
0.0334963
0.0334707
0.033437
0.0333951
0.0333452
0.0332871
0.0332211
0.0331471
0.0330652
0.0329756
0.0328782
0.0327731
0.0326606
0.0325405
0.0324132
0.0322786
0.0321369
0.0319881
0.0318325
0.0316702
0.0315012
0.0313257
0.0311439
0.0309558
0.0307617
0.0305617
0.0303559
0.0301444
0.0299275
0.0297052
0.0294777
0.0292452
0.0290079
0.0287658
0.0285191
0.028268
0.0280126
0.0277531
0.0274896
0.0272223
0.0269513
0.0266768
0.0263988
0.0261176
0.0258333
0.0255459
0.0252558
0.0249629
0.0246674
0.0243694
0.0240691
0.0237666
0.0234619
0.0231552
0.0228467
0.0225364
0.0222244
0.0219109
0.0215958
0.0212794
0.0209617
0.0206428
0.0203228
0.0200018
0.0196798
0.019357
0.0190334
0.018709
0.018384
0.0180584
0.0177323
0.0174057
0.0170787
0.0167513
0.0164236
0.0160957
0.0157676
0.0154392
0.0151108
0.0147823
0.0144537
0.0141251
0.0137965
0.0134679
0.0131394
0.012811
0.0124827
0.0121546
0.0118266
0.0114988
0.0111711
0.0108437
0.0105165
0.0101894
0.00986268
0.00953614
0.00920985
0.00888381
0.00855802
0.00823248
0.00790719
0.00758216
0.00725737
0.00693284
0.00660855
0.0062845
0.00596067
0.00563708
0.0053137
0.00499054
0.00466757
0.0043448
0.00402221
0.00369978
0.00337752
0.0030554
0.00273341
0.00241155
0.00208979
0.00176812
0.00144654
0.00112502
0.000803546
0.000482113
0.000160702
0.000172054
0.000516171
0.000860316
0.00120451
0.00154876
0.0018931
0.00223754
0.00258209
0.00292678
0.00327162
0.00361664
0.00396184
0.00430724
0.00465285
0.00499871
0.0053448
0.00569116
0.0060378
0.00638472
0.00673194
0.00707947
0.00742732
0.0077755
0.00812403
0.00847289
0.00882211
0.00917169
0.00952163
0.00987194
0.0102226
0.0105737
0.0109251
0.0112769
0.011629
0.0119815
0.0123343
0.0126875
0.013041
0.0133949
0.013749
0.0141034
0.0144581
0.0148131
0.0151683
0.0155237
0.0158792
0.0162349
0.0165907
0.0169466
0.0173026
0.0176585
0.0180144
0.0183703
0.018726
0.0190815
0.0194367
0.0197917
0.0201463
0.0205005
0.0208542
0.0212074
0.0215599
0.0219117
0.0222627
0.0226128
0.022962
0.0233101
0.023657
0.0240027
0.0243471
0.0246899
0.0250312
0.0253708
0.0257086
0.0260444
0.0263782
0.0267098
0.0270391
0.0273659
0.0276902
0.0280116
0.0283302
0.0286458
0.0289582
0.0292672
0.0295727
0.0298746
0.0301726
0.0304667
0.0307565
0.0310421
0.0313231
0.0315995
0.0318711
0.0321376
0.0323989
0.0326549
0.0329053
0.0331501
0.0333889
0.0336217
0.0338482
0.0340684
0.034282
0.0344888
0.0346888
0.0348817
0.0350674
0.0352458
0.0354167
0.0355799
0.0357353
0.0358828
0.0360223
0.0361536
0.0362766
0.0363913
0.0364974
0.036595
0.0366839
0.036764
0.0368353
0.0368977
0.0369511
0.0369956
0.037031
0.0370573
0.0370745
0.0370827
0.0370817
0.0370715
0.0370523
0.037024
0.0369866
0.0369402
0.0368847
0.0368204
0.0367472
0.0366652
0.0365744
0.036475
0.0363671
0.0362506
0.0361259
0.0359928
0.0358517
0.0357025
0.0355454
0.0353806
0.0352081
0.0350282
0.034841
0.0346465
0.034445
0.0342367
0.0340216
0.0338
0.033572
0.0333377
0.0330974
0.0328512
0.0325992
0.0323417
0.0320788
0.0318106
0.0315374
0.0312593
0.0309765
0.0306892
0.0303974
0.0301014
0.0298014
0.0294974
0.0291897
0.0288784
0.0285636
0.0282456
0.0279244
0.0276002
0.0272731
0.0269433
0.0266109
0.0262761
0.025939
0.0255997
0.0252582
0.0249149
0.0245697
0.0242227
0.0238742
0.0235241
0.0231727
0.0228199
0.0224659
0.0221108
0.0217547
0.0213976
0.0210396
0.0206809
0.0203214
0.0199613
0.0196006
0.0192394
0.0188778
0.0185158
0.0181534