/*--------------------------------*- C++ -*----------------------------------*\
| =========                 |                                                 |
| \\      /  F ield         | OpenFOAM: The Open Source CFD Toolbox           |
|  \\    /   O peration     | Version:  v2012                                 |
|   \\  /    A nd           | Website:  www.openfoam.com                      |
|    \\/     M anipulation  |                                                 |
\*---------------------------------------------------------------------------*/
FoamFile
{
    version     2.0;
    format      ascii;
    class       volVectorField;
    location    "17.4";
    object      U;
}
// * * * * * * * * * * * * * * * * * * * * * * * * * * * * * * * * * * * * * //

dimensions      [0 1 -1 0 0 0 0];


internalField   nonuniform List<vector> 
65536
(
(0.000669181 -0.000669196 0)
(0.00200758 -0.000669233 0)
(0.00334608 -0.000669303 0)
(0.00468476 -0.000669407 0)
(0.00602368 -0.000669544 0)
(0.00736291 -0.000669716 0)
(0.00870252 -0.000669922 0)
(0.0100426 -0.00067016 0)
(0.0113831 -0.000670431 0)
(0.0127243 -0.000670734 0)
(0.014066 -0.000671068 0)
(0.0154085 -0.000671432 0)
(0.0167517 -0.000671826 0)
(0.0180958 -0.000672249 0)
(0.0194407 -0.000672699 0)
(0.0207866 -0.000673175 0)
(0.0221334 -0.000673676 0)
(0.0234813 -0.000674202 0)
(0.0248302 -0.00067475 0)
(0.0261802 -0.000675318 0)
(0.0275314 -0.000675906 0)
(0.0288838 -0.000676512 0)
(0.0302375 -0.000677134 0)
(0.0315924 -0.000677769 0)
(0.0329485 -0.000678416 0)
(0.034306 -0.000679074 0)
(0.0356648 -0.000679739 0)
(0.037025 -0.000680409 0)
(0.0383865 -0.000681082 0)
(0.0397493 -0.000681755 0)
(0.0411135 -0.000682426 0)
(0.042479 -0.000683092 0)
(0.0438459 -0.00068375 0)
(0.045214 -0.000684397 0)
(0.0465835 -0.000685029 0)
(0.0479542 -0.000685644 0)
(0.0493261 -0.000686238 0)
(0.0506992 -0.000686807 0)
(0.0520734 -0.000687349 0)
(0.0534486 -0.000687858 0)
(0.0548248 -0.000688331 0)
(0.056202 -0.000688764 0)
(0.0575799 -0.000689153 0)
(0.0589586 -0.000689493 0)
(0.060338 -0.00068978 0)
(0.0617178 -0.000690009 0)
(0.0630981 -0.000690175 0)
(0.0644786 -0.000690273 0)
(0.0658592 -0.000690299 0)
(0.0672399 -0.000690247 0)
(0.0686203 -0.000690111 0)
(0.0700004 -0.000689887 0)
(0.0713799 -0.000689568 0)
(0.0727588 -0.000689149 0)
(0.0741366 -0.000688624 0)
(0.0755134 -0.000687986 0)
(0.0768887 -0.00068723 0)
(0.0782624 -0.00068635 0)
(0.0796342 -0.000685338 0)
(0.0810039 -0.000684189 0)
(0.0823712 -0.000682896 0)
(0.0837357 -0.000681452 0)
(0.0850971 -0.000679851 0)
(0.0864552 -0.000678086 0)
(0.0878096 -0.000676149 0)
(0.08916 -0.000674034 0)
(0.090506 -0.000671733 0)
(0.0918471 -0.000669241 0)
(0.0931831 -0.00066655 0)
(0.0945135 -0.000663652 0)
(0.0958379 -0.000660541 0)
(0.0971559 -0.00065721 0)
(0.098467 -0.000653651 0)
(0.0997708 -0.000649859 0)
(0.101067 -0.000645826 0)
(0.102354 -0.000641545 0)
(0.103633 -0.00063701 0)
(0.104903 -0.000632214 0)
(0.106162 -0.000627152 0)
(0.107411 -0.000621816 0)
(0.10865 -0.000616202 0)
(0.109877 -0.000610302 0)
(0.111091 -0.000604113 0)
(0.112293 -0.000597628 0)
(0.113482 -0.000590844 0)
(0.114657 -0.000583754 0)
(0.115817 -0.000576355 0)
(0.116963 -0.000568644 0)
(0.118092 -0.000560615 0)
(0.119206 -0.000552268 0)
(0.120302 -0.000543598 0)
(0.12138 -0.000534603 0)
(0.12244 -0.000525283 0)
(0.123482 -0.000515635 0)
(0.124503 -0.000505658 0)
(0.125505 -0.000495353 0)
(0.126485 -0.00048472 0)
(0.127444 -0.00047376 0)
(0.12838 -0.000462474 0)
(0.129294 -0.000450864 0)
(0.130184 -0.000438933 0)
(0.13105 -0.000426684 0)
(0.131891 -0.000414122 0)
(0.132707 -0.00040125 0)
(0.133497 -0.000388074 0)
(0.134259 -0.0003746 0)
(0.134995 -0.000360834 0)
(0.135703 -0.000346784 0)
(0.136383 -0.000332456 0)
(0.137033 -0.00031786 0)
(0.137654 -0.000303004 0)
(0.138245 -0.000287898 0)
(0.138806 -0.000272552 0)
(0.139336 -0.000256977 0)
(0.139834 -0.000241184 0)
(0.140301 -0.000225185 0)
(0.140735 -0.000208993 0)
(0.141137 -0.000192619 0)
(0.141506 -0.000176078 0)
(0.141841 -0.000159383 0)
(0.142143 -0.000142549 0)
(0.142412 -0.000125588 0)
(0.142646 -0.000108517 0)
(0.142846 -9.13507e-05 0)
(0.143011 -7.41035e-05 0)
(0.143142 -5.67914e-05 0)
(0.143239 -3.94298e-05 0)
(0.1433 -2.20344e-05 0)
(0.143327 -4.62115e-06 0)
(0.143319 1.27943e-05 0)
(0.143276 3.0196e-05 0)
(0.143198 4.75684e-05 0)
(0.143085 6.48958e-05 0)
(0.142938 8.21626e-05 0)
(0.142757 9.93537e-05 0)
(0.142541 0.000116454 0)
(0.142291 0.000133449 0)
(0.142007 0.000150323 0)
(0.141689 0.000167063 0)
(0.141338 0.000183655 0)
(0.140954 0.000200086 0)
(0.140538 0.000216342 0)
(0.140089 0.000232411 0)
(0.139608 0.000248281 0)
(0.139096 0.00026394 0)
(0.138552 0.000279379 0)
(0.137978 0.000294585 0)
(0.137373 0.00030955 0)
(0.136739 0.000324263 0)
(0.136076 0.000338718 0)
(0.135384 0.000352904 0)
(0.134664 0.000366816 0)
(0.133917 0.000380446 0)
(0.133142 0.000393787 0)
(0.132341 0.000406835 0)
(0.131514 0.000419584 0)
(0.130663 0.00043203 0)
(0.129786 0.000444168 0)
(0.128886 0.000455997 0)
(0.127962 0.000467513 0)
(0.127015 0.000478715 0)
(0.126047 0.0004896 0)
(0.125056 0.000500168 0)
(0.124046 0.000510418 0)
(0.123014 0.000520351 0)
(0.121964 0.000529967 0)
(0.120894 0.000539267 0)
(0.119806 0.000548253 0)
(0.118701 0.000556926 0)
(0.117578 0.00056529 0)
(0.116439 0.000573346 0)
(0.115285 0.000581098 0)
(0.114115 0.00058855 0)
(0.11293 0.000595705 0)
(0.111732 0.000602567 0)
(0.11052 0.000609141 0)
(0.109295 0.000615432 0)
(0.108058 0.000621444 0)
(0.106809 0.000627183 0)
(0.105549 0.000632653 0)
(0.104278 0.000637862 0)
(0.102997 0.000642813 0)
(0.101706 0.000647514 0)
(0.100407 0.000651969 0)
(0.0990983 0.000656186 0)
(0.0977817 0.000660171 0)
(0.0964573 0.000663929 0)
(0.0951257 0.000667467 0)
(0.0937873 0.000670792 0)
(0.0924424 0.00067391 0)
(0.0910914 0.000676827 0)
(0.0897348 0.000679551 0)
(0.088373 0.000682087 0)
(0.0870063 0.000684442 0)
(0.0856351 0.000686622 0)
(0.0842597 0.000688634 0)
(0.0828804 0.000690485 0)
(0.0814976 0.00069218 0)
(0.0801115 0.000693725 0)
(0.0787225 0.000695128 0)
(0.0773309 0.000696394 0)
(0.0759368 0.000697529 0)
(0.0745406 0.00069854 0)
(0.0731425 0.000699431 0)
(0.0717428 0.00070021 0)
(0.0703416 0.00070088 0)
(0.0689392 0.000701449 0)
(0.0675357 0.000701922 0)
(0.0661314 0.000702303 0)
(0.0647264 0.000702599 0)
(0.0633209 0.000702814 0)
(0.0619151 0.000702953 0)
(0.060509 0.000703022 0)
(0.0591029 0.000703024 0)
(0.0576969 0.000702965 0)
(0.056291 0.00070285 0)
(0.0548854 0.000702682 0)
(0.0534802 0.000702465 0)
(0.0520755 0.000702205 0)
(0.0506714 0.000701905 0)
(0.0492679 0.000701568 0)
(0.0478651 0.0007012 0)
(0.046463 0.000700803 0)
(0.0450618 0.00070038 0)
(0.0436615 0.000699936 0)
(0.0422621 0.000699474 0)
(0.0408636 0.000698997 0)
(0.0394661 0.000698507 0)
(0.0380696 0.000698008 0)
(0.036674 0.000697503 0)
(0.0352795 0.000696995 0)
(0.0338861 0.000696485 0)
(0.0324936 0.000695977 0)
(0.0311022 0.000695472 0)
(0.0297117 0.000694974 0)
(0.0283223 0.000694484 0)
(0.0269338 0.000694004 0)
(0.0255463 0.000693537 0)
(0.0241597 0.000693083 0)
(0.022774 0.000692646 0)
(0.0213891 0.000692226 0)
(0.0200051 0.000691825 0)
(0.0186218 0.000691444 0)
(0.0172393 0.000691085 0)
(0.0158575 0.000690749 0)
(0.0144764 0.000690437 0)
(0.0130958 0.00069015 0)
(0.0117158 0.000689889 0)
(0.0103363 0.000689655 0)
(0.00895721 0.000689449 0)
(0.00757852 0.000689271 0)
(0.00620015 0.000689122 0)
(0.00482206 0.000689002 0)
(0.00344418 0.000688912 0)
(0.00206645 0.000688852 0)
(0.000688806 0.000688821 0)
(0.000669149 -0.00200756 0)
(0.00200748 -0.00200767 0)
(0.00334592 -0.00200788 0)
(0.00468453 -0.00200819 0)
(0.00602338 -0.0020086 0)
(0.00736255 -0.00200912 0)
(0.00870209 -0.00200974 0)
(0.0100421 -0.00201045 0)
(0.0113826 -0.00201127 0)
(0.0127236 -0.00201217 0)
(0.0140654 -0.00201318 0)
(0.0154078 -0.00201427 0)
(0.016751 -0.00201545 0)
(0.0180949 -0.00201672 0)
(0.0194398 -0.00201807 0)
(0.0207856 -0.0020195 0)
(0.0221324 -0.00202101 0)
(0.0234802 -0.00202259 0)
(0.0248291 -0.00202423 0)
(0.0261791 -0.00202594 0)
(0.0275303 -0.00202771 0)
(0.0288827 -0.00202952 0)
(0.0302363 -0.00203139 0)
(0.0315911 -0.0020333 0)
(0.0329473 -0.00203524 0)
(0.0343048 -0.00203722 0)
(0.0356636 -0.00203921 0)
(0.0370237 -0.00204123 0)
(0.0383852 -0.00204325 0)
(0.039748 -0.00204527 0)
(0.0411122 -0.00204729 0)
(0.0424778 -0.00204929 0)
(0.0438446 -0.00205126 0)
(0.0452128 -0.00205321 0)
(0.0465823 -0.00205511 0)
(0.047953 -0.00205696 0)
(0.049325 -0.00205874 0)
(0.0506981 -0.00206045 0)
(0.0520724 -0.00206208 0)
(0.0534477 -0.00206361 0)
(0.054824 -0.00206504 0)
(0.0562012 -0.00206634 0)
(0.0575793 -0.00206751 0)
(0.0589581 -0.00206854 0)
(0.0603375 -0.0020694 0)
(0.0617175 -0.00207009 0)
(0.0630979 -0.0020706 0)
(0.0644785 -0.0020709 0)
(0.0658593 -0.00207098 0)
(0.0672401 -0.00207083 0)
(0.0686207 -0.00207043 0)
(0.070001 -0.00206976 0)
(0.0713808 -0.00206881 0)
(0.0727598 -0.00206756 0)
(0.0741379 -0.00206599 0)
(0.0755149 -0.00206408 0)
(0.0768904 -0.00206182 0)
(0.0782644 -0.00205918 0)
(0.0796365 -0.00205615 0)
(0.0810065 -0.00205271 0)
(0.082374 -0.00204884 0)
(0.0837388 -0.00204452 0)
(0.0851006 -0.00203972 0)
(0.086459 -0.00203443 0)
(0.0878138 -0.00202863 0)
(0.0891645 -0.00202229 0)
(0.0905109 -0.00201539 0)
(0.0918524 -0.00200792 0)
(0.0931888 -0.00199986 0)
(0.0945196 -0.00199117 0)
(0.0958445 -0.00198184 0)
(0.0971629 -0.00197186 0)
(0.0984745 -0.00196119 0)
(0.0997787 -0.00194982 0)
(0.101075 -0.00193772 0)
(0.102363 -0.00192489 0)
(0.103643 -0.00191129 0)
(0.104913 -0.00189691 0)
(0.106173 -0.00188173 0)
(0.107423 -0.00186573 0)
(0.108661 -0.00184889 0)
(0.109889 -0.0018312 0)
(0.111104 -0.00181263 0)
(0.112307 -0.00179318 0)
(0.113496 -0.00177283 0)
(0.114672 -0.00175157 0)
(0.115833 -0.00172938 0)
(0.116979 -0.00170625 0)
(0.118109 -0.00168216 0)
(0.119223 -0.00165712 0)
(0.120319 -0.00163112 0)
(0.121399 -0.00160413 0)
(0.12246 -0.00157617 0)
(0.123501 -0.00154723 0)
(0.124524 -0.0015173 0)
(0.125526 -0.00148638 0)
(0.126507 -0.00145448 0)
(0.127466 -0.0014216 0)
(0.128403 -0.00138774 0)
(0.129318 -0.00135291 0)
(0.130208 -0.00131711 0)
(0.131075 -0.00128036 0)
(0.131917 -0.00124267 0)
(0.132733 -0.00120405 0)
(0.133523 -0.00116452 0)
(0.134287 -0.00112409 0)
(0.135023 -0.00108278 0)
(0.135732 -0.00104062 0)
(0.136412 -0.000997632 0)
(0.137063 -0.000953834 0)
(0.137684 -0.000909257 0)
(0.138276 -0.000863929 0)
(0.138837 -0.000817881 0)
(0.139367 -0.000771144 0)
(0.139866 -0.000723754 0)
(0.140333 -0.000675745 0)
(0.140768 -0.000627155 0)
(0.14117 -0.000578021 0)
(0.141539 -0.000528384 0)
(0.141875 -0.000478286 0)
(0.142177 -0.000427767 0)
(0.142446 -0.000376871 0)
(0.14268 -0.000325643 0)
(0.14288 -0.000274128 0)
(0.143046 -0.000222371 0)
(0.143177 -0.000170419 0)
(0.143273 -0.000118318 0)
(0.143335 -6.61162e-05 0)
(0.143362 -1.38606e-05 0)
(0.143353 3.84014e-05 0)
(0.14331 9.06224e-05 0)
(0.143233 0.000142755 0)
(0.14312 0.000194753 0)
(0.142973 0.000246569 0)
(0.142791 0.000298157 0)
(0.142575 0.000349473 0)
(0.142325 0.000400471 0)
(0.14204 0.000451108 0)
(0.141723 0.000501342 0)
(0.141371 0.000551132 0)
(0.140987 0.000600436 0)
(0.14057 0.000649217 0)
(0.140121 0.000697436 0)
(0.139639 0.000745057 0)
(0.139127 0.000792047 0)
(0.138583 0.000838372 0)
(0.138008 0.000884001 0)
(0.137403 0.000928904 0)
(0.136768 0.000973055 0)
(0.136105 0.00101643 0)
(0.135412 0.00105899 0)
(0.134692 0.00110073 0)
(0.133944 0.00114163 0)
(0.133168 0.00118166 0)
(0.132367 0.00122081 0)
(0.13154 0.00125906 0)
(0.130687 0.0012964 0)
(0.12981 0.00133282 0)
(0.128909 0.00136831 0)
(0.127984 0.00140286 0)
(0.127037 0.00143646 0)
(0.126068 0.00146912 0)
(0.125077 0.00150082 0)
(0.124066 0.00153158 0)
(0.123034 0.00156137 0)
(0.121983 0.00159022 0)
(0.120913 0.00161812 0)
(0.119824 0.00164507 0)
(0.118718 0.00167109 0)
(0.117595 0.00169618 0)
(0.116455 0.00172035 0)
(0.1153 0.0017436 0)
(0.114129 0.00176595 0)
(0.112944 0.00178741 0)
(0.111745 0.00180799 0)
(0.110532 0.00182771 0)
(0.109307 0.00184658 0)
(0.108069 0.00186461 0)
(0.10682 0.00188182 0)
(0.105559 0.00189822 0)
(0.104288 0.00191384 0)
(0.103007 0.00192869 0)
(0.101715 0.00194279 0)
(0.100415 0.00195615 0)
(0.0991064 0.00196879 0)
(0.0977893 0.00198074 0)
(0.0964646 0.00199201 0)
(0.0951325 0.00200262 0)
(0.0937936 0.00201258 0)
(0.0924483 0.00202193 0)
(0.091097 0.00203068 0)
(0.08974 0.00203884 0)
(0.0883779 0.00204644 0)
(0.0870108 0.0020535 0)
(0.0856392 0.00206003 0)
(0.0842635 0.00206606 0)
(0.0828839 0.00207161 0)
(0.0815007 0.00207669 0)
(0.0801144 0.00208132 0)
(0.0787251 0.00208552 0)
(0.0773332 0.00208931 0)
(0.0759389 0.00209271 0)
(0.0745425 0.00209574 0)
(0.0731441 0.00209841 0)
(0.0717442 0.00210074 0)
(0.0703428 0.00210274 0)
(0.0689401 0.00210444 0)
(0.0675365 0.00210586 0)
(0.066132 0.00210699 0)
(0.0647269 0.00210788 0)
(0.0633212 0.00210852 0)
(0.0619152 0.00210893 0)
(0.060509 0.00210913 0)
(0.0591028 0.00210913 0)
(0.0576966 0.00210895 0)
(0.0562907 0.0021086 0)
(0.054885 0.00210809 0)
(0.0534797 0.00210744 0)
(0.0520749 0.00210665 0)
(0.0506707 0.00210575 0)
(0.0492671 0.00210474 0)
(0.0478643 0.00210363 0)
(0.0464622 0.00210243 0)
(0.0450609 0.00210116 0)
(0.0436606 0.00209982 0)
(0.0422611 0.00209843 0)
(0.0408626 0.002097 0)
(0.0394651 0.00209553 0)
(0.0380685 0.00209403 0)
(0.036673 0.00209251 0)
(0.0352785 0.00209098 0)
(0.033885 0.00208945 0)
(0.0324926 0.00208792 0)
(0.0311011 0.00208641 0)
(0.0297107 0.00208491 0)
(0.0283213 0.00208344 0)
(0.0269328 0.002082 0)
(0.0255453 0.00208059 0)
(0.0241588 0.00207923 0)
(0.0227731 0.00207792 0)
(0.0213883 0.00207666 0)
(0.0200043 0.00207545 0)
(0.0186211 0.00207431 0)
(0.0172386 0.00207323 0)
(0.0158569 0.00207222 0)
(0.0144758 0.00207128 0)
(0.0130952 0.00207042 0)
(0.0117153 0.00206964 0)
(0.0103358 0.00206893 0)
(0.00895681 0.00206832 0)
(0.00757818 0.00206778 0)
(0.00619988 0.00206733 0)
(0.00482185 0.00206697 0)
(0.00344403 0.0020667 0)
(0.00206636 0.00206652 0)
(0.000688776 0.00206643 0)
(0.000669079 -0.00334583 0)
(0.00200727 -0.003346 0)
(0.00334557 -0.00334635 0)
(0.00468404 -0.00334687 0)
(0.00602276 -0.00334756 0)
(0.00736178 -0.00334842 0)
(0.00870119 -0.00334945 0)
(0.010041 -0.00335065 0)
(0.0113814 -0.003352 0)
(0.0127224 -0.00335352 0)
(0.014064 -0.0033552 0)
(0.0154062 -0.00335702 0)
(0.0167493 -0.003359 0)
(0.0180932 -0.00336111 0)
(0.0194379 -0.00336337 0)
(0.0207836 -0.00336576 0)
(0.0221303 -0.00336827 0)
(0.023478 -0.00337091 0)
(0.0248268 -0.00337365 0)
(0.0261768 -0.0033765 0)
(0.0275279 -0.00337945 0)
(0.0288802 -0.00338249 0)
(0.0302337 -0.00338561 0)
(0.0315885 -0.00338879 0)
(0.0329446 -0.00339204 0)
(0.0343021 -0.00339534 0)
(0.0356609 -0.00339867 0)
(0.037021 -0.00340204 0)
(0.0383825 -0.00340542 0)
(0.0397453 -0.0034088 0)
(0.0411095 -0.00341216 0)
(0.0424751 -0.00341551 0)
(0.043842 -0.00341881 0)
(0.0452102 -0.00342206 0)
(0.0465798 -0.00342524 0)
(0.0479506 -0.00342833 0)
(0.0493226 -0.00343132 0)
(0.0506959 -0.00343419 0)
(0.0520702 -0.00343691 0)
(0.0534457 -0.00343948 0)
(0.0548221 -0.00344186 0)
(0.0561995 -0.00344405 0)
(0.0575778 -0.00344601 0)
(0.0589568 -0.00344774 0)
(0.0603364 -0.00344919 0)
(0.0617166 -0.00345036 0)
(0.0630973 -0.00345122 0)
(0.0644782 -0.00345174 0)
(0.0658593 -0.00345189 0)
(0.0672404 -0.00345166 0)
(0.0686214 -0.00345101 0)
(0.070002 -0.00344991 0)
(0.0713822 -0.00344835 0)
(0.0727616 -0.00344628 0)
(0.0741402 -0.00344368 0)
(0.0755176 -0.00344053 0)
(0.0768936 -0.00343678 0)
(0.0782681 -0.00343241 0)
(0.0796408 -0.00342738 0)
(0.0810113 -0.00342167 0)
(0.0823794 -0.00341524 0)
(0.0837448 -0.00340805 0)
(0.0851072 -0.00340008 0)
(0.0864664 -0.00339129 0)
(0.0878218 -0.00338164 0)
(0.0891733 -0.0033711 0)
(0.0905204 -0.00335963 0)
(0.0918627 -0.0033472 0)
(0.0931999 -0.00333378 0)
(0.0945316 -0.00331933 0)
(0.0958573 -0.00330381 0)
(0.0971766 -0.00328719 0)
(0.0984891 -0.00326943 0)
(0.0997943 -0.0032505 0)
(0.101092 -0.00323037 0)
(0.102381 -0.00320899 0)
(0.103661 -0.00318635 0)
(0.104932 -0.00316241 0)
(0.106193 -0.00313712 0)
(0.107444 -0.00311047 0)
(0.108684 -0.00308243 0)
(0.109913 -0.00305296 0)
(0.111129 -0.00302204 0)
(0.112333 -0.00298964 0)
(0.113524 -0.00295574 0)
(0.114701 -0.00292031 0)
(0.115863 -0.00288334 0)
(0.11701 -0.0028448 0)
(0.118141 -0.00280467 0)
(0.119257 -0.00276295 0)
(0.120355 -0.00271961 0)
(0.121435 -0.00267464 0)
(0.122497 -0.00262805 0)
(0.123541 -0.00257981 0)
(0.124564 -0.00252993 0)
(0.125568 -0.0024784 0)
(0.12655 -0.00242523 0)
(0.127511 -0.00237042 0)
(0.128449 -0.00231398 0)
(0.129365 -0.00225592 0)
(0.130257 -0.00219625 0)
(0.131125 -0.00213499 0)
(0.131968 -0.00207215 0)
(0.132785 -0.00200777 0)
(0.133577 -0.00194186 0)
(0.134341 -0.00187445 0)
(0.135079 -0.00180559 0)
(0.135788 -0.0017353 0)
(0.136469 -0.00166362 0)
(0.137122 -0.00159059 0)
(0.137744 -0.00151626 0)
(0.138337 -0.00144068 0)
(0.138899 -0.0013639 0)
(0.13943 -0.00128597 0)
(0.13993 -0.00120694 0)
(0.140398 -0.00112689 0)
(0.140833 -0.00104586 0)
(0.141236 -0.000963927 0)
(0.141606 -0.000881153 0)
(0.141942 -0.000797608 0)
(0.142245 -0.000713362 0)
(0.142514 -0.000628487 0)
(0.142749 -0.000543057 0)
(0.142949 -0.000457147 0)
(0.143115 -0.000370834 0)
(0.143247 -0.000284195 0)
(0.143343 -0.000197308 0)
(0.143405 -0.000110252 0)
(0.143431 -2.31071e-05 0)
(0.143423 6.4049e-05 0)
(0.14338 0.000151136 0)
(0.143302 0.000238076 0)
(0.143189 0.000324791 0)
(0.143042 0.000411202 0)
(0.14286 0.000497233 0)
(0.142643 0.000582808 0)
(0.142392 0.000667853 0)
(0.142108 0.000752296 0)
(0.141789 0.000836066 0)
(0.141437 0.000919093 0)
(0.141053 0.00100131 0)
(0.140635 0.00108265 0)
(0.140185 0.00116306 0)
(0.139703 0.00124247 0)
(0.139189 0.00132082 0)
(0.138644 0.00139806 0)
(0.138068 0.00147414 0)
(0.137462 0.00154901 0)
(0.136827 0.00162262 0)
(0.136162 0.00169494 0)
(0.135468 0.00176591 0)
(0.134747 0.0018355 0)
(0.133998 0.00190368 0)
(0.133221 0.00197041 0)
(0.132419 0.00203568 0)
(0.13159 0.00209944 0)
(0.130736 0.00216169 0)
(0.129858 0.0022224 0)
(0.128956 0.00228156 0)
(0.12803 0.00233915 0)
(0.127081 0.00239516 0)
(0.126111 0.00244959 0)
(0.125119 0.00250243 0)
(0.124106 0.00255369 0)
(0.123073 0.00260335 0)
(0.122021 0.00265142 0)
(0.120949 0.00269791 0)
(0.119859 0.00274283 0)
(0.118752 0.00278619 0)
(0.117628 0.00282799 0)
(0.116487 0.00286826 0)
(0.11533 0.002907 0)
(0.114159 0.00294424 0)
(0.112972 0.00297999 0)
(0.111772 0.00301428 0)
(0.110558 0.00304713 0)
(0.109332 0.00307856 0)
(0.108093 0.00310859 0)
(0.106842 0.00313726 0)
(0.105581 0.00316458 0)
(0.104308 0.00319059 0)
(0.103026 0.00321532 0)
(0.101734 0.00323879 0)
(0.100433 0.00326104 0)
(0.0991228 0.0032821 0)
(0.0978048 0.00330199 0)
(0.0964792 0.00332075 0)
(0.0951463 0.0033384 0)
(0.0938065 0.003355 0)
(0.0924604 0.00337055 0)
(0.0911083 0.00338511 0)
(0.0897506 0.00339869 0)
(0.0883876 0.00341134 0)
(0.0870199 0.00342308 0)
(0.0856476 0.00343395 0)
(0.0842712 0.00344398 0)
(0.082891 0.0034532 0)
(0.0815072 0.00346164 0)
(0.0801203 0.00346934 0)
(0.0787305 0.00347632 0)
(0.077338 0.00348262 0)
(0.0759432 0.00348827 0)
(0.0745463 0.00349329 0)
(0.0731475 0.00349772 0)
(0.0717471 0.00350158 0)
(0.0703453 0.00350491 0)
(0.0689422 0.00350773 0)
(0.0675382 0.00351006 0)
(0.0661334 0.00351194 0)
(0.0647279 0.0035134 0)
(0.0633219 0.00351445 0)
(0.0619156 0.00351512 0)
(0.0605092 0.00351544 0)
(0.0591027 0.00351543 0)
(0.0576963 0.00351511 0)
(0.0562901 0.00351451 0)
(0.0548842 0.00351365 0)
(0.0534788 0.00351254 0)
(0.0520738 0.00351122 0)
(0.0506694 0.0035097 0)
(0.0492657 0.003508 0)
(0.0478627 0.00350614 0)
(0.0464605 0.00350413 0)
(0.0450592 0.003502 0)
(0.0436587 0.00349977 0)
(0.0422592 0.00349744 0)
(0.0408607 0.00349504 0)
(0.0394631 0.00349258 0)
(0.0380665 0.00349007 0)
(0.036671 0.00348753 0)
(0.0352765 0.00348497 0)
(0.033883 0.00348241 0)
(0.0324905 0.00347986 0)
(0.0310991 0.00347733 0)
(0.0297087 0.00347482 0)
(0.0283193 0.00347236 0)
(0.0269309 0.00346995 0)
(0.0255435 0.00346761 0)
(0.024157 0.00346533 0)
(0.0227714 0.00346314 0)
(0.0213866 0.00346103 0)
(0.0200027 0.00345901 0)
(0.0186196 0.0034571 0)
(0.0172372 0.0034553 0)
(0.0158556 0.00345362 0)
(0.0144746 0.00345205 0)
(0.0130942 0.00345061 0)
(0.0117143 0.00344931 0)
(0.010335 0.00344813 0)
(0.00895605 0.0034471 0)
(0.00757753 0.0034462 0)
(0.00619934 0.00344546 0)
(0.00482143 0.00344485 0)
(0.00344373 0.0034444 0)
(0.00206618 0.0034441 0)
(0.000688715 0.00344395 0)
(0.000668973 -0.00468391 0)
(0.00200696 -0.00468416 0)
(0.00334504 -0.00468465 0)
(0.00468331 -0.00468538 0)
(0.00602181 -0.00468635 0)
(0.00736064 -0.00468756 0)
(0.00869984 -0.004689 0)
(0.0100395 -0.00469068 0)
(0.0113797 -0.00469258 0)
(0.0127204 -0.00469471 0)
(0.0140618 -0.00469706 0)
(0.0154039 -0.00469962 0)
(0.0167468 -0.00470239 0)
(0.0180905 -0.00470537 0)
(0.0194351 -0.00470853 0)
(0.0207807 -0.00471188 0)
(0.0221272 -0.00471541 0)
(0.0234748 -0.00471911 0)
(0.0248234 -0.00472297 0)
(0.0261733 -0.00472697 0)
(0.0275242 -0.00473111 0)
(0.0288764 -0.00473537 0)
(0.0302299 -0.00473975 0)
(0.0315846 -0.00474423 0)
(0.0329407 -0.00474879 0)
(0.034298 -0.00475342 0)
(0.0356568 -0.00475811 0)
(0.0370169 -0.00476283 0)
(0.0383783 -0.00476758 0)
(0.0397412 -0.00477233 0)
(0.0411054 -0.00477707 0)
(0.042471 -0.00478177 0)
(0.043838 -0.00478641 0)
(0.0452063 -0.00479099 0)
(0.0465759 -0.00479546 0)
(0.0479469 -0.00479981 0)
(0.049319 -0.00480402 0)
(0.0506924 -0.00480806 0)
(0.052067 -0.0048119 0)
(0.0534426 -0.00481552 0)
(0.0548193 -0.00481889 0)
(0.0561969 -0.00482198 0)
(0.0575755 -0.00482476 0)
(0.0589548 -0.0048272 0)
(0.0603348 -0.00482928 0)
(0.0617153 -0.00483095 0)
(0.0630964 -0.00483218 0)
(0.0644777 -0.00483294 0)
(0.0658593 -0.00483319 0)
(0.0672409 -0.0048329 0)
(0.0686223 -0.00483203 0)
(0.0700035 -0.00483054 0)
(0.0713843 -0.00482839 0)
(0.0727643 -0.00482554 0)
(0.0741435 -0.00482194 0)
(0.0755216 -0.00481757 0)
(0.0768984 -0.00481236 0)
(0.0782737 -0.00480629 0)
(0.0796471 -0.0047993 0)
(0.0810184 -0.00479135 0)
(0.0823874 -0.00478239 0)
(0.0837538 -0.00477238 0)
(0.0851172 -0.00476126 0)
(0.0864773 -0.004749 0)
(0.0878338 -0.00473554 0)
(0.0891864 -0.00472083 0)
(0.0905346 -0.00470483 0)
(0.0918781 -0.00468748 0)
(0.0932165 -0.00466874 0)
(0.0945495 -0.00464855 0)
(0.0958765 -0.00462687 0)
(0.0971971 -0.00460365 0)
(0.098511 -0.00457884 0)
(0.0998176 -0.00455239 0)
(0.101116 -0.00452425 0)
(0.102407 -0.00449437 0)
(0.103689 -0.00446272 0)
(0.104962 -0.00442924 0)
(0.106225 -0.00439388 0)
(0.107477 -0.00435662 0)
(0.108719 -0.0043174 0)
(0.109949 -0.00427618 0)
(0.111167 -0.00423293 0)
(0.112373 -0.0041876 0)
(0.113565 -0.00414017 0)
(0.114744 -0.0040906 0)
(0.115908 -0.00403887 0)
(0.117057 -0.00398493 0)
(0.118191 -0.00392878 0)
(0.119308 -0.00387038 0)
(0.120408 -0.00380972 0)
(0.12149 -0.00374679 0)
(0.122554 -0.00368156 0)
(0.123599 -0.00361403 0)
(0.124625 -0.0035442 0)
(0.12563 -0.00347206 0)
(0.126615 -0.00339762 0)
(0.127577 -0.00332088 0)
(0.128518 -0.00324184 0)
(0.129435 -0.00316054 0)
(0.130329 -0.00307698 0)
(0.131199 -0.00299118 0)
(0.132044 -0.00290318 0)
(0.132863 -0.002813 0)
(0.133657 -0.00272069 0)
(0.134423 -0.00262628 0)
(0.135162 -0.00252982 0)
(0.135873 -0.00243136 0)
(0.136556 -0.00233095 0)
(0.13721 -0.00222865 0)
(0.137834 -0.00212452 0)
(0.138428 -0.00201864 0)
(0.138992 -0.00191107 0)
(0.139524 -0.00180188 0)
(0.140025 -0.00169117 0)
(0.140494 -0.001579 0)
(0.140931 -0.00146547 0)
(0.141335 -0.00135067 0)
(0.141705 -0.0012347 0)
(0.142043 -0.00111763 0)
(0.142347 -0.000999587 0)
(0.142616 -0.000880659 0)
(0.142852 -0.000760952 0)
(0.143053 -0.000640571 0)
(0.143219 -0.000519624 0)
(0.143351 -0.00039822 0)
(0.143447 -0.000276469 0)
(0.143509 -0.00015448 0)
(0.143536 -3.23656e-05 0)
(0.143528 8.97636e-05 0)
(0.143485 0.000211796 0)
(0.143406 0.000333622 0)
(0.143293 0.000455131 0)
(0.143145 0.000576213 0)
(0.142963 0.000696762 0)
(0.142745 0.000816672 0)
(0.142494 0.000935837 0)
(0.142209 0.00105416 0)
(0.141889 0.00117153 0)
(0.141537 0.00128786 0)
(0.141151 0.00140306 0)
(0.140732 0.00151702 0)
(0.140281 0.00162968 0)
(0.139797 0.00174093 0)
(0.139282 0.0018507 0)
(0.138736 0.00195891 0)
(0.138159 0.00206549 0)
(0.137552 0.00217038 0)
(0.136914 0.00227349 0)
(0.136248 0.00237479 0)
(0.135553 0.0024742 0)
(0.13483 0.00257167 0)
(0.134079 0.00266717 0)
(0.133301 0.00276064 0)
(0.132496 0.00285204 0)
(0.131666 0.00294134 0)
(0.13081 0.00302852 0)
(0.12993 0.00311353 0)
(0.129026 0.00319637 0)
(0.128098 0.00327701 0)
(0.127148 0.00335544 0)
(0.126175 0.00343165 0)
(0.125181 0.00350563 0)
(0.124167 0.00357738 0)
(0.123132 0.00364691 0)
(0.122077 0.0037142 0)
(0.121004 0.00377928 0)
(0.119912 0.00384215 0)
(0.118803 0.00390283 0)
(0.117677 0.00396134 0)
(0.116534 0.00401769 0)
(0.115376 0.00407191 0)
(0.114202 0.00412401 0)
(0.113014 0.00417404 0)
(0.111812 0.00422201 0)
(0.110597 0.00426797 0)
(0.109369 0.00431193 0)
(0.108128 0.00435394 0)
(0.106876 0.00439404 0)
(0.105613 0.00443225 0)
(0.104339 0.00446863 0)
(0.103055 0.00450321 0)
(0.101761 0.00453603 0)
(0.100459 0.00456713 0)
(0.0991474 0.00459656 0)
(0.097828 0.00462436 0)
(0.096501 0.00465058 0)
(0.0951668 0.00467526 0)
(0.0938258 0.00469844 0)
(0.0924785 0.00472018 0)
(0.0911252 0.00474051 0)
(0.0897663 0.00475948 0)
(0.0884023 0.00477714 0)
(0.0870334 0.00479354 0)
(0.0856601 0.00480871 0)
(0.0842827 0.0048227 0)
(0.0829016 0.00483557 0)
(0.0815169 0.00484734 0)
(0.0801291 0.00485808 0)
(0.0787384 0.00486781 0)
(0.0773452 0.00487659 0)
(0.0759496 0.00488445 0)
(0.074552 0.00489144 0)
(0.0731525 0.0048976 0)
(0.0717514 0.00490297 0)
(0.070349 0.00490759 0)
(0.0689453 0.00491149 0)
(0.0675407 0.00491473 0)
(0.0661354 0.00491732 0)
(0.0647294 0.00491932 0)
(0.063323 0.00492075 0)
(0.0619162 0.00492166 0)
(0.0605094 0.00492207 0)
(0.0591025 0.00492202 0)
(0.0576958 0.00492155 0)
(0.0562892 0.00492068 0)
(0.0548831 0.00491944 0)
(0.0534773 0.00491787 0)
(0.0520721 0.00491599 0)
(0.0506675 0.00491383 0)
(0.0492636 0.00491142 0)
(0.0478604 0.00490879 0)
(0.0464581 0.00490596 0)
(0.0450566 0.00490296 0)
(0.043656 0.0048998 0)
(0.0422564 0.00489652 0)
(0.0408577 0.00489314 0)
(0.0394601 0.00488967 0)
(0.0380635 0.00488614 0)
(0.0366679 0.00488257 0)
(0.0352734 0.00487897 0)
(0.0338799 0.00487537 0)
(0.0324875 0.00487177 0)
(0.0310961 0.00486821 0)
(0.0297058 0.00486469 0)
(0.0283164 0.00486124 0)
(0.0269281 0.00485785 0)
(0.0255407 0.00485455 0)
(0.0241543 0.00485135 0)
(0.0227688 0.00484827 0)
(0.0213842 0.00484531 0)
(0.0200004 0.00484248 0)
(0.0186174 0.00483979 0)
(0.0172351 0.00483726 0)
(0.0158536 0.0048349 0)
(0.0144728 0.0048327 0)
(0.0130925 0.00483068 0)
(0.0117128 0.00482884 0)
(0.0103336 0.00482719 0)
(0.00895489 0.00482574 0)
(0.00757654 0.00482448 0)
(0.00619853 0.00482343 0)
(0.0048208 0.00482259 0)
(0.00344327 0.00482195 0)
(0.0020659 0.00482153 0)
(0.000688624 0.00482132 0)
(0.000668833 -0.00602176 0)
(0.00200653 -0.00602207 0)
(0.00334434 -0.0060227 0)
(0.00468233 -0.00602364 0)
(0.00602056 -0.00602489 0)
(0.00735911 -0.00602645 0)
(0.00869804 -0.00602831 0)
(0.0100374 -0.00603047 0)
(0.0113773 -0.00603293 0)
(0.0127178 -0.00603568 0)
(0.014059 -0.00603871 0)
(0.0154009 -0.00604201 0)
(0.0167435 -0.00604559 0)
(0.018087 -0.00604942 0)
(0.0194314 -0.00605351 0)
(0.0207767 -0.00605783 0)
(0.022123 -0.00606238 0)
(0.0234704 -0.00606715 0)
(0.0248189 -0.00607213 0)
(0.0261686 -0.00607729 0)
(0.0275194 -0.00608264 0)
(0.0288715 -0.00608814 0)
(0.0302248 -0.00609379 0)
(0.0315794 -0.00609957 0)
(0.0329354 -0.00610546 0)
(0.0342927 -0.00611144 0)
(0.0356513 -0.0061175 0)
(0.0370114 -0.0061236 0)
(0.0383728 -0.00612974 0)
(0.0397357 -0.00613588 0)
(0.0411 -0.006142 0)
(0.0424656 -0.00614808 0)
(0.0438326 -0.00615409 0)
(0.0452011 -0.00616001 0)
(0.0465708 -0.0061658 0)
(0.0479419 -0.00617143 0)
(0.0493142 -0.00617688 0)
(0.0506878 -0.00618212 0)
(0.0520626 -0.0061871 0)
(0.0534385 -0.00619181 0)
(0.0548155 -0.00619619 0)
(0.0561935 -0.00620021 0)
(0.0575724 -0.00620384 0)
(0.0589521 -0.00620704 0)
(0.0603325 -0.00620976 0)
(0.0617136 -0.00621196 0)
(0.0630951 -0.00621361 0)
(0.064477 -0.00621465 0)
(0.0658592 -0.00621504 0)
(0.0672414 -0.00621473 0)
(0.0686236 -0.00621367 0)
(0.0700055 -0.00621182 0)
(0.071387 -0.00620913 0)
(0.0727679 -0.00620553 0)
(0.0741479 -0.00620098 0)
(0.075527 -0.00619543 0)
(0.0769047 -0.00618882 0)
(0.078281 -0.00618108 0)
(0.0796555 -0.00617217 0)
(0.081028 -0.00616203 0)
(0.0823981 -0.00615059 0)
(0.0837657 -0.0061378 0)
(0.0851304 -0.00612359 0)
(0.0864919 -0.00610791 0)
(0.0878498 -0.00609069 0)
(0.0892038 -0.00607186 0)
(0.0905535 -0.00605137 0)
(0.0918986 -0.00602915 0)
(0.0932386 -0.00600514 0)
(0.0945732 -0.00597927 0)
(0.095902 -0.00595148 0)
(0.0972244 -0.00592171 0)
(0.0985401 -0.00588989 0)
(0.0998486 -0.00585596 0)
(0.101149 -0.00581986 0)
(0.102442 -0.00578153 0)
(0.103726 -0.00574091 0)
(0.105001 -0.00569794 0)
(0.106266 -0.00565256 0)
(0.107521 -0.00560472 0)
(0.108765 -0.00555436 0)
(0.109997 -0.00550143 0)
(0.111218 -0.00544588 0)
(0.112426 -0.00538767 0)
(0.113621 -0.00532674 0)
(0.114802 -0.00526306 0)
(0.115968 -0.00519659 0)
(0.11712 -0.00512729 0)
(0.118256 -0.00505513 0)
(0.119375 -0.00498008 0)
(0.120478 -0.00490212 0)
(0.121563 -0.00482122 0)
(0.12263 -0.00473738 0)
(0.123678 -0.00465057 0)
(0.124706 -0.00456078 0)
(0.125714 -0.00446803 0)
(0.126701 -0.00437231 0)
(0.127666 -0.00427362 0)
(0.128609 -0.00417198 0)
(0.12953 -0.00406741 0)
(0.130426 -0.00395994 0)
(0.131298 -0.00384958 0)
(0.132146 -0.00373638 0)
(0.132968 -0.00362038 0)
(0.133763 -0.00350162 0)
(0.134532 -0.00338016 0)
(0.135274 -0.00325606 0)
(0.135987 -0.00312937 0)
(0.136672 -0.00300017 0)
(0.137328 -0.00286853 0)
(0.137954 -0.00273454 0)
(0.13855 -0.00259828 0)
(0.139116 -0.00245985 0)
(0.13965 -0.00231933 0)
(0.140153 -0.00217684 0)
(0.140623 -0.00203248 0)
(0.141061 -0.00188636 0)
(0.141467 -0.0017386 0)
(0.141839 -0.00158932 0)
(0.142177 -0.00143864 0)
(0.142482 -0.0012867 0)
(0.142753 -0.00113361 0)
(0.142989 -0.000979521 0)
(0.143191 -0.000824563 0)
(0.143358 -0.000668874 0)
(0.14349 -0.000512595 0)
(0.143587 -0.000355868 0)
(0.143649 -0.000198835 0)