/*--------------------------------*- C++ -*----------------------------------*\
| =========                 |                                                 |
| \\      /  F ield         | OpenFOAM: The Open Source CFD Toolbox           |
|  \\    /   O peration     | Version:  v2012                                 |
|   \\  /    A nd           | Website:  www.openfoam.com                      |
|    \\/     M anipulation  |                                                 |
\*---------------------------------------------------------------------------*/
FoamFile
{
    version     2.0;
    format      ascii;
    class       volScalarField;
    location    "16.3";
    object      W;
}
// * * * * * * * * * * * * * * * * * * * * * * * * * * * * * * * * * * * * * //

dimensions      [0 0 -1 0 0 0 0];


internalField   nonuniform List<scalar> 
65536
(
9.28393e-16
2.7959e-15
4.6959e-15
6.6508e-15
8.68368e-15
1.08184e-14
1.30801e-14
1.54948e-14
1.80906e-14
2.08972e-14
2.39464e-14
2.72727e-14
3.09132e-14
3.49082e-14
3.93016e-14
4.41411e-14
4.94788e-14
5.53714e-14
6.18809e-14
6.90753e-14
7.70285e-14
8.58214e-14
9.55426e-14
1.06289e-13
1.18165e-13
1.31286e-13
1.45778e-13
1.61778e-13
1.79433e-13
1.98906e-13
2.20372e-13
2.44021e-13
2.70062e-13
2.98717e-13
3.30229e-13
3.64859e-13
4.0289e-13
4.44626e-13
4.90395e-13
5.40548e-13
5.95463e-13
6.55546e-13
7.21228e-13
7.92973e-13
8.71272e-13
9.56651e-13
1.04967e-12
1.15091e-12
1.26101e-12
1.38062e-12
1.51043e-12
1.65119e-12
1.80365e-12
1.96862e-12
2.14692e-12
2.33944e-12
2.54707e-12
2.77074e-12
3.01142e-12
3.27008e-12
3.54773e-12
3.8454e-12
4.16413e-12
4.50495e-12
4.86892e-12
5.25708e-12
5.67047e-12
6.1101e-12
6.57696e-12
7.07199e-12
7.5961e-12
8.15015e-12
8.73489e-12
9.35105e-12
9.99921e-12
1.06799e-11
1.13935e-11
1.21402e-11
1.29202e-11
1.37334e-11
1.45796e-11
1.54584e-11
1.63693e-11
1.73114e-11
1.82837e-11
1.9285e-11
2.03138e-11
2.13685e-11
2.2447e-11
2.35474e-11
2.4667e-11
2.58032e-11
2.69533e-11
2.8114e-11
2.92819e-11
3.04537e-11
3.16255e-11
3.27934e-11
3.39534e-11
3.51012e-11
3.62327e-11
3.73435e-11
3.84292e-11
3.94853e-11
4.05075e-11
4.14914e-11
4.24329e-11
4.33277e-11
4.41719e-11
4.49618e-11
4.56938e-11
4.63646e-11
4.69713e-11
4.7511e-11
4.79815e-11
4.83808e-11
4.87072e-11
4.89595e-11
4.91369e-11
4.92388e-11
4.92653e-11
4.92166e-11
4.90936e-11
4.88974e-11
4.86295e-11
4.82916e-11
4.78861e-11
4.74152e-11
4.68819e-11
4.6289e-11
4.56398e-11
4.49377e-11
4.41862e-11
4.3389e-11
4.25498e-11
4.16723e-11
4.07605e-11
3.98182e-11
3.8849e-11
3.78567e-11
3.68449e-11
3.58171e-11
3.47767e-11
3.3727e-11
3.26709e-11
3.16115e-11
3.05514e-11
2.94933e-11
2.84394e-11
2.73919e-11
2.63529e-11
2.53242e-11
2.43073e-11
2.33039e-11
2.23152e-11
2.13424e-11
2.03865e-11
1.94485e-11
1.85291e-11
1.76292e-11
1.67492e-11
1.58898e-11
1.50515e-11
1.42346e-11
1.34396e-11
1.26669e-11
1.19167e-11
1.11895e-11
1.04854e-11
9.80485e-12
9.14808e-12
8.51538e-12
7.90702e-12
7.32325e-12
6.76431e-12
6.23042e-12
5.72176e-12
5.23846e-12
4.78064e-12
4.34833e-12
3.9415e-12
3.56007e-12
3.20384e-12
2.87257e-12
2.5659e-12
2.28336e-12
2.02442e-12
1.78842e-12
1.57462e-12
1.38219e-12
1.2102e-12
1.05764e-12
9.23453e-13
8.06488e-13
7.0556e-13
6.1944e-13
5.46871e-13
4.86576e-13
4.37277e-13
3.977e-13
3.66589e-13
3.4272e-13
3.24909e-13
3.12024e-13
3.02996e-13
2.9683e-13
2.92615e-13
2.89531e-13
2.86858e-13
2.83983e-13
2.80402e-13
2.75728e-13
2.69681e-13
2.62093e-13
2.529e-13
2.42129e-13
2.29894e-13
2.16374e-13
2.01804e-13
1.86456e-13
1.70625e-13
1.54609e-13
1.38701e-13
1.23171e-13
1.08257e-13
9.41611e-14
8.104e-14
6.9007e-14
5.81309e-14
4.84395e-14
3.99236e-14
3.2543e-14
2.62328e-14
2.09101e-14
1.64799e-14
1.28412e-14
9.89183e-15
7.53238e-15
5.66944e-15
4.21762e-15
3.10086e-15
2.25296e-15
1.61752e-15
1.14746e-15
8.04247e-16
5.56888e-16
3.80921e-16
2.5736e-16
1.71711e-16
1.13089e-16
7.34415e-17
4.68962e-17
2.92149e-17
1.73544e-17
9.11037e-18
2.82964e-18
3.19482e-15
9.62146e-15
1.61604e-14
2.28891e-14
2.98872e-14
3.72374e-14
4.50259e-14
5.33436e-14
6.22869e-14
7.19587e-14
8.24694e-14
9.3938e-14
1.06493e-13
1.20275e-13
1.35434e-13
1.52137e-13
1.70564e-13
1.90912e-13
2.13396e-13
2.38251e-13
2.65734e-13
2.96126e-13
3.29735e-13
3.66896e-13
4.07974e-13
4.53371e-13
5.0352e-13
5.58898e-13
6.2002e-13
6.8745e-13
7.61798e-13
8.43728e-13
9.33958e-13
1.03327e-12
1.1425e-12
1.26257e-12
1.39445e-12
1.53921e-12
1.69798e-12
1.87199e-12
2.06256e-12
2.27109e-12
2.49909e-12
2.74817e-12
3.02004e-12
3.31653e-12
3.63958e-12
3.99124e-12
4.37368e-12
4.7892e-12
5.2402e-12
5.72924e-12
6.25896e-12
6.83214e-12
7.45168e-12
8.12059e-12
8.84198e-12
9.61908e-12
1.04552e-11
1.13537e-11
1.2318e-11
1.33518e-11
1.44585e-11
1.56417e-11
1.6905e-11
1.82519e-11
1.9686e-11
2.12106e-11
2.28292e-11
2.45448e-11
2.63604e-11
2.82789e-11
3.03028e-11
3.24343e-11
3.46752e-11
3.70272e-11
3.94912e-11
4.20679e-11
4.47575e-11
4.75593e-11
5.04724e-11
5.34949e-11
5.66246e-11
5.98582e-11
6.31919e-11
6.6621e-11
7.01399e-11
7.37425e-11
7.74214e-11
8.11689e-11
8.4976e-11
8.88331e-11
9.27298e-11
9.66549e-11
1.00597e-10
1.04542e-10
1.08478e-10
1.12391e-10
1.16267e-10
1.20091e-10
1.23849e-10
1.27524e-10
1.31103e-10
1.3457e-10
1.3791e-10
1.41109e-10
1.44151e-10
1.47025e-10
1.49715e-10
1.52211e-10
1.54501e-10
1.56573e-10
1.5842e-10
1.60032e-10
1.61402e-10
1.62525e-10
1.63396e-10
1.64012e-10
1.64371e-10
1.64474e-10
1.64321e-10
1.63914e-10
1.63258e-10
1.62357e-10
1.61219e-10
1.59849e-10
1.58258e-10
1.56453e-10
1.54446e-10
1.52248e-10
1.49871e-10
1.47325e-10
1.44626e-10
1.41785e-10
1.38815e-10
1.3573e-10
1.32543e-10
1.29267e-10
1.25914e-10
1.22499e-10
1.19031e-10
1.15525e-10
1.11989e-10
1.08436e-10
1.04875e-10
1.01315e-10
9.77659e-11
9.4235e-11
9.073e-11
8.72577e-11
8.3824e-11
8.04347e-11
7.70946e-11
7.38081e-11
7.05789e-11
6.74105e-11
6.43057e-11
6.12669e-11
5.82964e-11
5.53957e-11
5.25665e-11
4.98101e-11
4.71273e-11
4.45193e-11
4.19867e-11
3.95301e-11
3.71503e-11
3.48478e-11
3.2623e-11
3.04765e-11
2.84088e-11
2.64203e-11
2.45115e-11
2.26828e-11
2.09345e-11
1.9267e-11
1.76806e-11
1.61753e-11
1.47511e-11
1.3408e-11
1.21455e-11
1.09631e-11
9.85999e-12
8.83518e-12
7.88734e-12
7.01489e-12
6.21595e-12
5.48839e-12
4.82975e-12
4.23734e-12
3.7082e-12
3.23913e-12
2.82675e-12
2.46748e-12
2.1576e-12
1.89328e-12
1.67062e-12
1.48566e-12
1.33444e-12
1.21304e-12
1.11759e-12
1.04432e-12
9.8961e-13
9.4998e-13
9.2216e-13
9.03105e-13
8.9003e-13
8.80431e-13
8.72113e-13
8.63205e-13
8.52175e-13
8.37836e-13
8.19344e-13
7.96185e-13
7.68162e-13
7.35361e-13
6.98123e-13
6.56996e-13
6.12693e-13
5.6604e-13
5.17931e-13
4.69274e-13
4.20953e-13
3.73787e-13
3.28502e-13
2.85705e-13
2.45874e-13
2.0935e-13
1.76343e-13
1.46933e-13
1.21094e-13
9.87009e-14
7.95577e-14
6.34115e-14
4.99738e-14
3.89377e-14
2.99928e-14
2.28377e-14
1.71885e-14
1.27863e-14
9.40033e-15
6.82962e-15
4.90315e-15
3.47815e-15
2.43772e-15
1.6879e-15
1.15452e-15
7.79999e-16
5.20403e-16
3.42728e-16
2.22568e-16
1.42118e-16
8.85338e-17
5.25906e-17
2.76079e-17
8.57502e-18
6.84115e-15
2.06033e-14
3.46077e-14
4.90212e-14
6.40157e-14
7.97694e-14
9.64682e-14
1.14308e-13
1.33498e-13
1.5426e-13
1.76832e-13
2.01473e-13
2.2846e-13
2.58095e-13
2.90709e-13
3.26658e-13
3.66335e-13
4.10167e-13
4.5862e-13
5.12206e-13
5.71484e-13
6.37063e-13
7.09612e-13
7.8986e-13
8.78605e-13
9.76717e-13
1.08514e-12
1.20492e-12
1.33718e-12
1.48313e-12
1.64413e-12
1.8216e-12
2.01713e-12
2.23241e-12
2.46928e-12
2.72973e-12
3.01591e-12
3.33013e-12
3.67488e-12
4.05284e-12
4.46687e-12
4.92006e-12
5.41569e-12
5.95728e-12
6.54857e-12
7.19355e-12
7.89644e-12
8.66172e-12
9.49412e-12
1.03987e-11
1.13806e-11
1.24454e-11
1.35988e-11
1.4847e-11
1.61962e-11
1.76529e-11
1.92238e-11
2.09158e-11
2.27362e-11
2.46922e-11
2.67912e-11
2.90407e-11
3.14484e-11
3.40218e-11
3.67684e-11
3.96958e-11
4.28112e-11
4.61218e-11
4.96344e-11
5.33554e-11
5.72908e-11
6.14462e-11
6.58265e-11
7.04357e-11
7.52772e-11
8.03536e-11
8.56662e-11
9.12154e-11
9.70004e-11
1.03019e-10
1.09268e-10
1.15741e-10
1.22433e-10
1.29336e-10
1.36439e-10
1.4373e-10
1.51197e-10
1.58824e-10
1.66594e-10
1.74488e-10
1.82486e-10
1.90565e-10
1.98701e-10
2.06869e-10
2.15041e-10
2.2319e-10
2.31285e-10
2.39297e-10
2.47193e-10
2.54942e-10
2.62512e-10
2.69871e-10
2.76985e-10
2.83823e-10
2.90354e-10
2.96547e-10
3.02374e-10
3.07807e-10
3.12819e-10
3.17387e-10
3.21488e-10
3.25104e-10
3.28218e-10
3.30814e-10
3.32883e-10
3.34415e-10
3.35405e-10
3.3585e-10
3.35753e-10
3.35116e-10
3.33946e-10
3.32253e-10
3.30049e-10
3.2735e-10
3.24172e-10
3.20536e-10
3.16464e-10
3.11978e-10
3.07104e-10
3.01869e-10
2.963e-10
2.90425e-10
2.84273e-10
2.77873e-10
2.71254e-10
2.64444e-10
2.57472e-10
2.50366e-10
2.43153e-10
2.35859e-10
2.28508e-10
2.21124e-10
2.1373e-10
2.06346e-10
1.98991e-10
1.91684e-10
1.84442e-10
1.77278e-10
1.70206e-10
1.63239e-10
1.56386e-10
1.49657e-10
1.43061e-10
1.36603e-10
1.30289e-10
1.24124e-10
1.18111e-10
1.12255e-10
1.06556e-10
1.01016e-10
9.56361e-11
9.04174e-11
8.53597e-11
8.0463e-11
7.5727e-11
7.11512e-11
6.67352e-11
6.24783e-11
5.83798e-11
5.44393e-11
5.06561e-11
4.70296e-11
4.35592e-11
4.02444e-11
3.70846e-11
3.40792e-11
3.12273e-11
2.85282e-11
2.59808e-11
2.35839e-11
2.13358e-11
1.92348e-11
1.72786e-11
1.54647e-11
1.37901e-11
1.22513e-11
1.08444e-11
9.56515e-12
8.40874e-12
7.36998e-12
6.4433e-12
5.62278e-12
4.90217e-12
4.27496e-12
3.73442e-12
3.27369e-12
2.88578e-12
2.56368e-12
2.3004e-12
2.08902e-12
1.92277e-12
1.79506e-12
1.69955e-12
1.6302e-12
1.58134e-12
1.5477e-12
1.52445e-12
1.50728e-12
1.4924e-12
1.4766e-12
1.45724e-12
1.43228e-12
1.40027e-12
1.36034e-12
1.31213e-12
1.25581e-12
1.19196e-12
1.1215e-12
1.04567e-12
9.65859e-13
8.83603e-13
8.00449e-13
7.17903e-13
6.37359e-13
5.6005e-13
4.87011e-13
4.19052e-13
3.56752e-13
3.00462e-13
2.50318e-13
2.0627e-13
1.68106e-13
1.35485e-13
1.07976e-13
8.50846e-14
6.62876e-14
5.10546e-14
3.8871e-14
2.92531e-14
2.17591e-14
1.59956e-14
1.16203e-14
8.34186e-15
5.91703e-15
4.14675e-15
2.87107e-15
1.96368e-15
1.3266e-15
8.85036e-16
5.8284e-16
3.7848e-16
2.41664e-16
1.50542e-16
8.94219e-17
4.69421e-17
1.45802e-17
1.33343e-14
4.01601e-14
6.74622e-14
9.55686e-14
1.24817e-13
1.55558e-13
1.88158e-13
2.23003e-13
2.60502e-13
3.01095e-13
3.45251e-13
3.9348e-13
4.4633e-13
5.044e-13
5.68339e-13
6.38858e-13
7.1673e-13
8.02802e-13
8.98001e-13
1.00334e-12
1.11993e-12
1.24897e-12
1.39181e-12
1.54988e-12
1.72478e-12
1.91824e-12
2.13214e-12
2.36854e-12
2.6297e-12
2.91805e-12
3.23626e-12
3.5872e-12
3.97402e-12
4.40011e-12
4.86913e-12
5.38507e-12
5.95221e-12
6.57518e-12
7.25894e-12
8.00886e-12
8.83066e-12
9.7305e-12
1.0715e-11
1.1791e-11
1.29662e-11
1.42485e-11
1.56463e-11
1.71685e-11
1.88247e-11
2.06247e-11
2.2579e-11
2.46986e-11
2.6995e-11
2.94802e-11
3.21667e-11
3.50672e-11
3.81952e-11
4.15644e-11
4.51887e-11
4.90825e-11
5.32603e-11
5.77369e-11
6.25268e-11
6.76449e-11
7.31055e-11
7.89232e-11
8.51116e-11
9.16842e-11
9.86536e-11
1.06032e-10
1.1383e-10
1.22056e-10
1.30721e-10
1.39829e-10
1.49387e-10
1.59397e-10
1.6986e-10
1.80775e-10
1.92136e-10
2.03939e-10
2.16172e-10
2.28824e-10
2.41877e-10
2.55313e-10
2.69108e-10
2.83237e-10
2.97669e-10
3.12371e-10
3.27305e-10
3.4243e-10
3.57702e-10
3.73074e-10
3.88496e-10
4.03912e-10
4.19268e-10
4.34505e-10
4.49562e-10
4.64378e-10
4.7889e-10
4.93033e-10
5.06744e-10
5.1996e-10
5.32617e-10
5.44656e-10
5.56016e-10
5.66642e-10
5.76479e-10
5.85479e-10
5.93595e-10
6.00786e-10
6.07016e-10
6.12255e-10
6.16476e-10
6.1966e-10
6.21794e-10
6.22871e-10
6.22891e-10
6.21857e-10
6.19782e-10
6.16684e-10
6.12584e-10
6.07513e-10
6.01503e-10
5.94594e-10
5.86828e-10
5.78251e-10
5.68914e-10
5.58871e-10
5.48175e-10
5.36883e-10
5.25055e-10
5.12748e-10
5.00021e-10
4.86934e-10
4.73543e-10
4.59905e-10
4.46075e-10
4.32106e-10
4.18048e-10
4.03949e-10
3.89855e-10
3.75808e-10
3.61846e-10
3.48007e-10
3.34322e-10
3.20821e-10
3.07531e-10
2.94474e-10
2.81672e-10
2.69142e-10
2.56898e-10
2.44952e-10
2.33314e-10
2.21992e-10
2.10991e-10
2.00315e-10
1.89965e-10
1.79942e-10
1.70247e-10
1.60876e-10
1.51828e-10
1.43098e-10
1.34685e-10
1.26583e-10
1.18787e-10
1.11294e-10
1.04099e-10
9.71974e-11
9.0584e-11
8.42548e-11
7.82056e-11
7.24322e-11
6.69307e-11
6.16972e-11
5.6728e-11
5.20194e-11
4.75678e-11
4.33693e-11
3.942e-11
3.57159e-11
3.22526e-11
2.90253e-11
2.60289e-11
2.32577e-11
2.07058e-11
1.83665e-11
1.62327e-11
1.42965e-11
1.25498e-11
1.09837e-11
9.58913e-12
8.3563e-12
7.27519e-12
6.33547e-12
5.52658e-12
4.83781e-12
4.25839e-12
3.77755e-12
3.38465e-12
3.06919e-12
2.82095e-12
2.63004e-12
2.48697e-12
2.38276e-12
2.30897e-12
2.25779e-12
2.2221e-12
2.19553e-12
2.17251e-12
2.14833e-12
2.11911e-12
2.08188e-12
2.03452e-12
1.97574e-12
1.90505e-12
1.82266e-12
1.72943e-12
1.6267e-12
1.51626e-12
1.40014e-12
1.28055e-12
1.15973e-12
1.03987e-12
9.22979e-13
8.10834e-13
7.04928e-13
6.06426e-13
5.16159e-13
4.34627e-13
3.62021e-13
2.9826e-13
2.4303e-13
1.95835e-13
1.56045e-13
1.22943e-13
9.57673e-14
7.37487e-14
5.61412e-14
4.22443e-14
3.1418e-14
2.30931e-14
1.67745e-14
1.20405e-14
8.53961e-15
5.9841e-15
4.14278e-15
2.83322e-15
1.91387e-15
1.27673e-15
8.40729e-16
5.45909e-16
3.48549e-16
2.17113e-16
1.2896e-16
6.76958e-17
2.10262e-17
2.51245e-14
7.56724e-14
1.27126e-13
1.80111e-13
2.35267e-13
2.93263e-13
3.54795e-13
4.20599e-13
4.91458e-13
5.68206e-13
6.51742e-13
7.43038e-13
8.43144e-13
9.53203e-13
1.07446e-12
1.20828e-12
1.35614e-12
1.51966e-12
1.70063e-12
1.901e-12
2.12288e-12
2.36862e-12
2.64077e-12
2.94213e-12
3.27574e-12
3.64496e-12
4.05341e-12
4.50509e-12
5.00432e-12
5.55583e-12
6.16476e-12
6.83669e-12
7.57767e-12
8.39428e-12
9.29364e-12
1.02834e-11
1.1372e-11
1.25682e-11
1.38817e-11
1.5323e-11
1.69031e-11
1.8634e-11
2.05284e-11
2.25998e-11
2.48629e-11
2.7333e-11
3.00265e-11
3.29607e-11
3.61539e-11
3.96254e-11
4.33953e-11
4.74849e-11
5.19165e-11
5.67129e-11
6.18984e-11
6.74975e-11
7.3536e-11
8.00401e-11
8.70365e-11
9.45526e-11
1.02616e-10
1.11254e-10
1.20496e-10
1.30367e-10
1.40896e-10
1.5211e-10
1.64033e-10
1.76689e-10
1.90103e-10
2.04294e-10
2.19282e-10
2.35082e-10
2.51708e-10
2.69171e-10
2.87476e-10
3.06625e-10
3.26617e-10
3.47443e-10
3.69093e-10
3.91547e-10
4.14782e-10
4.38767e-10
4.63467e-10
4.88837e-10
5.14827e-10
5.4138e-10
5.68433e-10
5.95912e-10
6.23742e-10
6.51835e-10
6.80102e-10
7.08445e-10
7.3676e-10
7.6494e-10
7.92873e-10
8.20441e-10
8.47526e-10
8.74006e-10
8.9976e-10
9.24663e-10
9.48595e-10
9.71437e-10
9.9307e-10
1.01338e-09
1.03227e-09
1.04962e-09
1.06536e-09
1.07939e-09
1.09163e-09
1.10202e-09
1.11051e-09
1.11705e-09
1.1216e-09
1.12416e-09
1.1247e-09
1.12324e-09
1.11979e-09
1.11439e-09
1.10706e-09
1.09786e-09
1.08686e-09
1.07413e-09
1.05975e-09
1.0438e-09
1.02639e-09
1.00762e-09
9.87589e-10
9.66418e-10
9.44218e-10
9.21106e-10
8.97197e-10
8.72608e-10
8.47455e-10
8.21849e-10
7.959e-10
7.69713e-10
7.43389e-10
7.17024e-10
6.90708e-10
6.64525e-10
6.38553e-10
6.12863e-10
5.87519e-10
5.6258e-10
5.38097e-10
5.14116e-10
4.90674e-10
4.67805e-10
4.45536e-10
4.23888e-10
4.02879e-10
3.82519e-10
3.62816e-10
3.43775e-10
3.25396e-10
3.07675e-10
2.90608e-10
2.74187e-10
2.58403e-10
2.43244e-10
2.28697e-10
2.14751e-10
2.0139e-10
1.88602e-10
1.7637e-10
1.64681e-10
1.53521e-10
1.42876e-10
1.32731e-10
1.23075e-10
1.13893e-10
1.05175e-10
9.69089e-11
8.90828e-11
8.16866e-11
7.47097e-11
6.81421e-11
6.19739e-11
5.61952e-11
5.07963e-11
4.57669e-11
4.1097e-11
3.67759e-11
3.27927e-11
2.9136e-11
2.57937e-11
2.27535e-11
2.00022e-11
1.75263e-11
1.53117e-11
1.33439e-11
1.16078e-11
1.00882e-11
8.76963e-12
7.63629e-12
6.67249e-12
5.86255e-12
5.19093e-12
4.64236e-12
4.2019e-12
3.8551e-12
3.58803e-12
3.38741e-12
3.24072e-12
3.13622e-12
3.06312e-12
3.0116e-12
2.97291e-12
2.93941e-12
2.90464e-12
2.86332e-12
2.8114e-12
2.74599e-12
2.66535e-12
2.5688e-12
2.45665e-12
2.33002e-12
2.19076e-12
2.04124e-12
1.88423e-12
1.72269e-12
1.55964e-12
1.39799e-12
1.24045e-12
1.08939e-12
9.46825e-13
8.1429e-13
6.92891e-13
5.83287e-13
4.85723e-13
4.00075e-13
3.25914e-13
2.62563e-13
2.09169e-13
1.64763e-13
1.28317e-13
9.8795e-14
7.51936e-14
5.65703e-14
4.20654e-14
3.09142e-14
2.24521e-14
1.61134e-14
1.14267e-14
8.00616e-15
5.54196e-15
3.78966e-15
2.55967e-15
1.70737e-15
1.1242e-15
7.29914e-16
4.65996e-16
2.90252e-16
1.72393e-16
9.04921e-17
2.81062e-17
4.63979e-14
1.39751e-13
2.34795e-13
3.32693e-13
4.34643e-13
5.4189e-13
6.55736e-13
7.77555e-13
9.08809e-13
1.05106e-12
1.206e-12
1.37543e-12
1.56134e-12
1.76587e-12
1.99135e-12
2.24035e-12
2.51565e-12
2.82031e-12
3.15768e-12
3.53143e-12
3.94559e-12
4.40455e-12
4.91314e-12
5.47664e-12
6.10083e-12
6.79203e-12
7.55714e-12
8.4037e-12
9.33992e-12
1.03748e-11
1.1518e-11
1.27802e-11
1.41728e-11
1.57085e-11
1.74006e-11
1.92638e-11
2.1314e-11
2.35681e-11
2.60445e-11
2.8763e-11
3.17448e-11
3.50125e-11
3.85904e-11
4.25045e-11
4.67824e-11
5.14535e-11
5.65488e-11
6.21013e-11
6.8146e-11
7.47193e-11
8.18598e-11
8.96079e-11
9.80055e-11
1.07097e-10
1.16926e-10
1.27542e-10
1.38991e-10
1.51325e-10
1.64592e-10
1.78844e-10
1.94133e-10
2.10511e-10
2.2803e-10
2.4674e-10
2.66691e-10
2.87932e-10
3.10509e-10
3.34466e-10
3.59843e-10
3.86676e-10
4.14999e-10
4.44836e-10
4.76209e-10
5.09132e-10
5.4361e-10
5.79642e-10
6.17217e-10
6.56312e-10
6.96898e-10
7.38931e-10
7.82356e-10
8.27108e-10
8.73106e-10
9.20257e-10
9.68457e-10
1.01758e-09
1.06751e-09
1.11808e-09
1.16914e-09
1.22052e-09
1.27204e-09
1.32349e-09
1.37469e-09
1.4254e-09
1.47542e-09
1.52452e-09
1.57247e-09
1.61903e-09
1.66397e-09
1.70707e-09
1.74809e-09
1.78682e-09
1.82303e-09
1.85654e-09
1.88714e-09
1.91467e-09
1.93895e-09
1.95986e-09
1.97727e-09
1.99108e-09
2.00121e-09
2.00761e-09
2.01024e-09
2.0091e-09
2.0042e-09
1.99559e-09
1.98333e-09
1.9675e-09
1.94822e-09
1.92562e-09
1.89984e-09
1.87105e-09
1.83942e-09
1.80516e-09
1.76847e-09
1.72957e-09
1.68866e-09
1.64599e-09
1.60177e-09
1.55623e-09
1.5096e-09
1.4621e-09
1.41395e-09
1.36536e-09
1.31652e-09
1.26762e-09
1.21886e-09
1.17038e-09
1.12235e-09
1.07491e-09
1.02818e-09
9.82292e-10
9.37334e-10
8.93399e-10
8.50561e-10
8.08885e-10
7.68422e-10
7.29212e-10
6.91286e-10
6.54664e-10
6.19356e-10
5.85368e-10
5.52695e-10
5.21326e-10
4.91246e-10
4.62435e-10
4.34867e-10
4.08516e-10
3.83349e-10
3.59336e-10
3.3644e-10
3.14629e-10
2.93866e-10
2.74115e-10
2.55341e-10
2.37511e-10
2.20589e-10
2.04543e-10
1.89341e-10
1.74953e-10
1.6135e-10
1.48504e-10
1.36388e-10
1.24978e-10
1.14249e-10
1.04178e-10
9.47437e-11
8.59238e-11
7.76977e-11
7.00452e-11
6.29461e-11
5.63806e-11
5.03288e-11
4.47706e-11
3.96858e-11
3.50538e-11
3.08538e-11
2.70644e-11
2.3664e-11
2.06306e-11
1.7942e-11
1.55756e-11
1.35088e-11
1.17187e-11
1.01829e-11
8.8788e-12
7.7842e-12
6.87736e-12
6.13703e-12
5.54263e-12
5.07433e-12
4.71316e-12
4.44116e-12
4.24141e-12
4.0982e-12
3.99711e-12
3.92507e-12
3.87048e-12
3.82324e-12
3.77484e-12
3.71834e-12
3.64841e-12
3.56129e-12
3.45468e-12
3.32772e-12
3.18078e-12
3.01534e-12
2.83379e-12
2.6392e-12
2.43513e-12
2.22543e-12
2.01397e-12
1.80453e-12
1.60057e-12
1.40515e-12
1.22083e-12
1.04958e-12
8.92808e-13
7.5134e-13
6.25473e-13
5.1503e-13
4.19439e-13
3.37816e-13
2.69047e-13
2.11875e-13
1.64967e-13
1.26983e-13
9.6626e-14
7.26788e-14
5.40325e-14
3.97011e-14
2.88283e-14
2.06859e-14
1.46668e-14
1.02747e-14
7.11119e-15
4.86204e-15
3.28357e-15
2.18996e-15
1.4418e-15
9.36022e-16
5.97525e-16
3.72147e-16
2.2102e-16
1.16012e-16
3.60316e-17
8.42715e-14
2.53839e-13
4.26508e-13
6.04416e-13
7.89761e-13
9.8483e-13
1.19201e-12
1.41384e-12
1.653e-12
1.91237e-12
2.19506e-12
2.50441e-12
2.84407e-12
3.218e-12
3.63052e-12
4.08636e-12
4.59069e-12
5.14918e-12
5.76804e-12
6.45407e-12
7.21475e-12
8.05826e-12
8.99356e-12
1.00305e-11
1.11798e-11
1.24533e-11
1.38638e-11
1.54254e-11
1.71534e-11
1.90646e-11
2.11771e-11
2.35109e-11
2.60874e-11
2.893e-11
3.2064e-11
3.55168e-11
3.93181e-11
4.34998e-11
4.80963e-11
5.31447e-11
5.86847e-11
6.4759e-11
7.14131e-11
7.86957e-11
8.66587e-11
9.53572e-11
1.0485e-10
1.15198e-10
1.26468e-10
1.38727e-10
1.52049e-10
1.66509e-10
1.82185e-10
1.9916e-10
2.17518e-10
2.37347e-10
2.58738e-10
2.81783e-10
3.06575e-10
3.33209e-10
3.61782e-10
3.92388e-10
4.25124e-10
4.60081e-10
4.97352e-10
5.37023e-10
5.79179e-10
6.23896e-10
6.71246e-10
7.21291e-10
7.74085e-10
8.29671e-10
8.88079e-10
9.49327e-10
1.01342e-09
1.08033e-09
1.15004e-09
1.22249e-09
1.29762e-09
1.37531e-09
1.45547e-09
1.53794e-09
1.62256e-09
1.70915e-09
1.79748e-09
1.88731e-09
1.97837e-09
2.07038e-09
2.16301e-09
2.25593e-09
2.34878e-09
2.44118e-09
2.53274e-09
2.62303e-09
2.71165e-09
2.79815e-09
2.88211e-09
2.96309e-09
3.04065e-09
3.11436e-09
3.18382e-09
3.24862e-09
3.30837e-09
3.36272e-09
3.41134e-09
3.45393e-09
3.49022e-09
3.51999e-09
3.54305e-09
3.55926e-09
3.56851e-09
3.57076e-09
3.566e-09
3.55427e-09
3.53565e-09
3.51028e-09
3.47834e-09
3.44003e-09
3.39562e-09
3.34541e-09
3.28971e-09
3.22888e-09
3.1633e-09
3.09337e-09
3.0195e-09
2.94213e-09
2.86168e-09
2.7786e-09
2.69333e-09
2.60629e-09
2.51791e-09
2.4286e-09
2.33875e-09
2.24874e-09
2.15893e-09
2.06965e-09
1.9812e-09
1.89388e-09
1.80794e-09
1.7236e-09
1.64109e-09
1.56056e-09
1.48218e-09
1.40607e-09
1.33233e-09
1.26105e-09
1.19228e-09
1.12607e-09
1.06243e-09
1.00136e-09
9.42863e-10
8.86907e-10
8.33458e-10
7.82469e-10
7.33887e-10
6.8765e-10
6.4369e-10
6.01936e-10
5.62314e-10
5.24746e-10
4.89155e-10
4.55462e-10
4.23589e-10
3.9346e-10
3.64998e-10
3.38132e-10
3.12789e-10
2.88903e-10
2.66408e-10
2.45241e-10
2.25344e-10
2.0666e-10
1.89136e-10
1.72721e-10
1.57367e-10
1.4303e-10
1.29666e-10
1.17232e-10
1.05691e-10
9.50033e-11
8.51323e-11
7.6042e-11
6.76971e-11
6.00629e-11
5.31052e-11
4.679e-11
4.10833e-11
3.59514e-11
3.13606e-11
2.72773e-11
2.36681e-11
2.04995e-11
1.77385e-11
1.53525e-11
1.33093e-11
1.15772e-11
1.01254e-11
8.92382e-12
7.94349e-12
7.15646e-12
6.53602e-12
6.0568e-12
5.69491e-12
5.42798e-12
5.23536e-12
5.09814e-12
4.99929e-12
4.92374e-12
4.85841e-12
4.79232e-12
4.71654e-12
4.62425e-12
4.51059e-12
4.37267e-12
4.20935e-12
4.02112e-12
3.80984e-12
3.57853e-12
3.33109e-12
3.07201e-12
2.80612e-12
2.53832e-12
2.27333e-12
2.01552e-12
1.7687e-12
1.53607e-12
1.32008e-12
1.12248e-12
9.4428e-13
7.85814e-13
6.46838e-13
5.26611e-13
4.23998e-13
3.37582e-13
2.65768e-13
2.0687e-13
1.59195e-13
1.21106e-13
9.10694e-14
6.76888e-14
4.97241e-14
3.60986e-14
2.58974e-14
1.83583e-14
1.28584e-14
8.89792e-15
6.08268e-15
4.10731e-15
2.73897e-15
1.80301e-15
1.17039e-15
7.47059e-16
4.65236e-16
2.76286e-16
1.45013e-16
4.50376e-17
1.50682e-13
4.53896e-13
7.6272e-13
1.08101e-12
1.41275e-12
1.76206e-12
2.13328e-12
2.53099e-12
2.96005e-12
3.4257e-12
3.93356e-12
4.48972e-12
5.1008e-12
5.77401e-12
6.51722e-12
7.33906e-12
8.24894e-12
9.25722e-12
1.03752e-11
1.16155e-11
1.29915e-11
1.45184e-11
1.62126e-11
1.8092e-11
2.01765e-11
2.24877e-11
2.50492e-11
2.78868e-11
3.10287e-11
3.45059e-11
3.83518e-11
4.26029e-11
4.7299e-11
5.24832e-11
5.82022e-11
6.45066e-11
7.14513e-11
7.90952e-11
8.7502e-11
9.67403e-11
1.06884e-10
1.18011e-10
1.30207e-10
1.43561e-10
1.5817e-10
1.74135e-10
1.91566e-10
2.10577e-10
2.31288e-10
2.53828e-10
2.7833e-10
3.04934e-10
3.33785e-10
3.65036e-10
3.98844e-10
4.3537e-10
4.74781e-10
5.17246e-10
5.62939e-10
6.12033e-10
6.64704e-10
7.21127e-10
7.81475e-10
8.45918e-10
9.14619e-10
9.87736e-10
1.06542e-09
1.1478e-09
1.23501e-09
1.32715e-09
1.42431e-09
1.52656e-09
1.63394e-09
1.74647e-09
1.86414e-09
1.98691e-09
2.11469e-09
2.24736e-09
2.38478e-09
2.52674e-09
2.67301e-09
2.82328e-09
2.97724e-09
3.13449e-09
3.29461e-09
3.45713e-09
3.62151e-09
3.78718e-09
3.95354e-09
4.11993e-09
4.28565e-09
4.44999e-09
4.61218e-09
4.77145e-09
4.92701e-09
5.07804e-09
5.22373e-09
5.36328e-09
5.4959e-09
5.62079e-09
5.73721e-09
5.84444e-09
5.94182e-09
6.0287e-09
6.10454e-09
6.16883e-09
6.22113e-09
6.26111e-09
6.28847e-09
6.30304e-09
6.30472e-09
6.29349e-09
6.26943e-09
6.23271e-09
6.18357e-09
6.12236e-09
6.04949e-09
5.96545e-09
5.8708e-09
5.76617e-09
5.65222e-09
5.52969e-09
5.39933e-09
5.26195e-09
5.11835e-09
4.96936e-09
4.81581e-09
4.65855e-09
4.49837e-09
4.33608e-09
4.17245e-09
4.00822e-09
3.84409e-09
3.68074e-09
3.51877e-09
3.35876e-09
3.20122e-09
3.04662e-09
2.89538e-09
2.74786e-09
2.60437e-09
2.46517e-09
2.33049e-09
2.20049e-09
2.07528e-09
1.95497e-09
1.83958e-09
1.72914e-09
1.62363e-09
1.52299e-09
1.42717e-09
1.33606e-09
1.24956e-09
1.16755e-09
1.08988e-09
1.01641e-09
9.46988e-10
8.81455e-10
8.19648e-10
7.61406e-10
7.06567e-10
6.54971e-10
6.06461e-10
5.60884e-10
5.18091e-10
4.7794e-10
4.40294e-10
4.05021e-10
3.71998e-10
3.41106e-10
3.12232e-10
2.85272e-10
2.60126e-10
2.367e-10
2.14906e-10
1.9466e-10
1.75884e-10
1.58503e-10
1.42446e-10
1.27647e-10
1.1404e-10
1.01565e-10
9.01608e-11
7.97706e-11
7.03382e-11
6.18089e-11
5.41293e-11
4.72469e-11
4.11102e-11
3.56688e-11
3.0873e-11
2.66742e-11
2.30248e-11
1.98782e-11
1.71892e-11
1.49137e-11
1.30093e-11
1.1435e-11
1.01514e-11
9.12104e-12
8.30834e-12
7.67972e-12
7.20372e-12
6.85112e-12
6.59503e-12
6.41099e-12
6.27706e-12
6.17388e-12
6.08477e-12
5.99569e-12
5.89535e-12
5.77505e-12
5.6287e-12
5.45262e-12
5.24538e-12
5.00759e-12
4.74157e-12
4.45108e-12
4.14096e-12
3.81682e-12
3.48464e-12
3.15049e-12
2.82021e-12
2.49919e-12
2.19214e-12
1.90296e-12
1.63469e-12
1.38942e-12
1.16836e-12
9.71913e-13
7.99724e-13
6.50844e-13
5.2384e-13
4.16935e-13
3.28134e-13
2.55335e-13
1.96433e-13
1.49391e-13
1.12308e-13
8.34532e-14
6.12893e-14
4.44842e-14
3.19061e-14
2.2613e-14
1.58353e-14
1.09558e-14
7.48813e-15
5.0555e-15
3.37075e-15
2.21859e-15
1.43997e-15
9.19024e-16
5.72271e-16
3.39822e-16
1.7835e-16
5.53898e-17
2.65327e-13
7.99278e-13
1.34322e-12
1.90402e-12
2.48876e-12
3.1048e-12
3.75988e-12
4.46215e-12
5.22031e-12
6.04371e-12
6.9424e-12
7.92729e-12
9.01023e-12
1.02042e-11
1.15232e-11
1.29828e-11
1.46e-11
1.63933e-11
1.83832e-11
2.05921e-11
2.30446e-11
2.57678e-11
2.87914e-11
3.21479e-11
3.58731e-11
4.0006e-11
4.45895e-11
4.96705e-11
5.53001e-11
6.15342e-11
6.84338e-11
7.60652e-11
8.45007e-11
9.38187e-11
1.04104e-10
1.1545e-10
1.27954e-10
1.41727e-10
1.56882e-10
1.73546e-10
1.91853e-10
2.11947e-10
2.33982e-10
2.58123e-10
2.84546e-10
3.13437e-10
3.44995e-10
3.79429e-10
4.16962e-10
4.57825e-10
5.02264e-10
5.50535e-10
6.02904e-10
6.59648e-10
7.21055e-10
7.87419e-10
8.59045e-10
9.36241e-10
1.01932e-09
1.10861e-09
1.20441e-09
1.30705e-09
1.41684e-09
1.53408e-09
1.65907e-09
1.79209e-09
1.9334e-09
2.08324e-09
2.24183e-09
2.40934e-09
2.58593e-09
2.7717e-09
2.96672e-09
3.17098e-09
3.38444e-09
3.607e-09
3.83849e-09
4.07864e-09
4.32715e-09
4.5836e-09
4.84753e-09
5.11836e-09
5.39544e-09
5.67802e-09
5.96526e-09
6.25626e-09
6.54999e-09
6.84538e-09
7.14126e-09
7.43638e-09
7.72944e-09
8.01907e-09
8.30387e-09
8.58238e-09
8.85312e-09
9.11461e-09
9.36535e-09
9.60388e-09
9.82875e-09
1.00386e-08
1.0232e-08
1.04077e-08
1.05646e-08
1.07016e-08
1.08177e-08
1.09122e-08
1.09842e-08
1.10334e-08
1.10593e-08
1.10618e-08
1.10407e-08
1.09962e-08
1.09286e-08
1.08383e-08
1.07259e-08
1.05923e-08
1.04383e-08
1.0265e-08
1.00735e-08
9.86505e-09
9.64105e-09
9.4029e-09
9.15211e-09
8.89018e-09
8.61867e-09
8.33915e-09
8.05316e-09
7.76223e-09
7.46786e-09
7.17148e-09
6.87448e-09
6.57817e-09
6.28377e-09
5.99243e-09
5.70518e-09
5.42299e-09
5.14671e-09
4.87708e-09
4.61475e-09
4.36029e-09
4.11414e-09
3.87667e-09
3.64816e-09
3.4288e-09
3.21872e-09
3.01796e-09
2.82651e-09
2.64429e-09
2.47118e-09
2.30701e-09
2.15159e-09
2.00466e-09
1.86597e-09
1.73522e-09
1.61213e-09
1.49637e-09
1.38763e-09
1.28559e-09
1.18992e-09
1.10029e-09
1.01641e-09
9.37949e-10
8.6462e-10
7.96132e-10
7.32207e-10
6.72581e-10
6.17001e-10
5.65227e-10
5.17034e-10
4.72208e-10
4.30547e-10
3.91864e-10
3.55982e-10
3.22734e-10
2.91966e-10
2.63532e-10
2.37296e-10
2.1313e-10
1.90914e-10
1.70533e-10
1.51881e-10
1.34855e-10
1.19359e-10
1.05298e-10
9.25848e-11
8.11328e-11
7.08596e-11
6.16852e-11
5.35324e-11
4.63263e-11
3.99942e-11
3.4466e-11
2.96736e-11
2.55515e-11
2.20363e-11
1.90674e-11
1.65866e-11
1.45381e-11
1.28693e-11
1.153e-11
1.04732e-11
9.65461e-12
9.03318e-12
8.57097e-12
8.23322e-12
7.98851e-12
7.80876e-12
7.66933e-12
7.54903e-12
7.43017e-12
7.29846e-12
7.14301e-12
6.95616e-12
6.73331e-12
6.47268e-12
6.17499e-12
5.84312e-12
5.48169e-12
5.0967e-12
4.69501e-12
4.284e-12
3.87109e-12
3.46344e-12
3.06764e-12
2.68942e-12
2.33353e-12
2.00363e-12
1.70224e-12
1.43079e-12
1.18972e-12
9.78548e-13
7.96066e-13
6.40482e-13
5.09588e-13
4.00913e-13
3.11863e-13
2.39843e-13
1.82349e-13
1.37045e-13
1.01806e-13
7.47475e-14
5.42384e-14
3.88928e-14
2.75584e-14
1.92942e-14
1.33462e-14
9.12019e-15
6.15626e-15
4.10401e-15
2.7008e-15
1.7527e-15
1.11848e-15
6.96396e-16
4.13493e-16
2.17002e-16
6.73916e-17
4.60171e-13
1.3863e-12
2.32995e-12
3.30319e-12
4.31844e-12
5.38863e-12
6.52732e-12
7.74888e-12
9.06861e-12
1.0503e-11
1.20697e-11
1.37879e-11
1.56787e-11
1.77649e-11
2.00714e-11
2.26257e-11
2.54577e-11
2.86005e-11
3.20904e-11
3.5967e-11
4.02744e-11
4.50605e-11
5.03782e-11
5.62855e-11
6.28461e-11
7.01298e-11
7.82131e-11
8.71796e-11
9.71211e-11
1.08137e-10
1.20338e-10
1.33841e-10
1.48776e-10
1.65285e-10
1.8352e-10
2.03646e-10
2.25843e-10
2.50304e-10
2.77239e-10
3.06873e-10
3.39448e-10
3.75224e-10
4.14478e-10
4.57508e-10
5.04631e-10
5.56184e-10
6.12525e-10
6.74033e-10
7.41109e-10
8.14172e-10
8.93665e-10
9.80051e-10
1.07381e-09
1.17545e-09
1.28547e-09
1.40443e-09
1.53285e-09
1.67131e-09
1.82037e-09
1.98059e-09
2.15255e-09
2.33682e-09
2.53396e-09
2.7445e-09
2.96898e-09
3.20788e-09
3.46167e-09
3.73078e-09
4.01556e-09
4.31633e-09
4.63334e-09
4.96674e-09
5.31661e-09
5.68294e-09
6.0656e-09
6.46436e-09
6.87885e-09
7.30858e-09
7.7529e-09
8.21105e-09
8.68207e-09
9.16489e-09
9.65824e-09
1.01607e-08
1.06707e-08
1.11865e-08
1.17062e-08
1.22278e-08
1.27491e-08
1.32677e-08
1.37813e-08
1.42873e-08
1.47831e-08
1.5266e-08
1.57334e-08
1.61826e-08
1.66108e-08
1.70154e-08
1.73938e-08
1.77435e-08
1.80622e-08
1.83477e-08
1.85979e-08
1.8811e-08
1.89855e-08
1.91199e-08
1.92134e-08
1.9265e-08
1.92744e-08
1.92413e-08
1.91659e-08
1.90486e-08
1.88903e-08
1.8692e-08
1.8455e-08
1.8181e-08
1.78719e-08
1.75296e-08
1.71566e-08
1.67553e-08
1.63283e-08
1.58784e-08
1.54084e-08
1.49211e-08
1.44194e-08
1.39063e-08
1.33844e-08
1.28567e-08
1.23257e-08
1.17941e-08
1.12641e-08
1.07382e-08
1.02184e-08
9.70666e-09
9.20468e-09
8.71405e-09
8.23611e-09
7.77205e-09
7.32286e-09
6.88934e-09
6.47212e-09
6.07168e-09
5.68834e-09
5.32226e-09
4.97348e-09
4.64192e-09
4.32741e-09