/*--------------------------------*- C++ -*----------------------------------*\
| =========                 |                                                 |
| \\      /  F ield         | OpenFOAM: The Open Source CFD Toolbox           |
|  \\    /   O peration     | Version:  v2012                                 |
|   \\  /    A nd           | Website:  www.openfoam.com                      |
|    \\/     M anipulation  |                                                 |
\*---------------------------------------------------------------------------*/
FoamFile
{
    version     2.0;
    format      ascii;
    class       surfaceScalarField;
    location    "8.3";
    object      phi;
}
// * * * * * * * * * * * * * * * * * * * * * * * * * * * * * * * * * * * * * //

dimensions      [0 3 -1 0 0 0 0];
oriented        oriented;


internalField   nonuniform List<scalar> 
130560
(
3.70495e-06
-3.70495e-06
7.40989e-06
-3.70494e-06
1.11148e-05
-3.70492e-06
1.48197e-05
-3.70489e-06
1.85245e-05
-3.70485e-06
2.22293e-05
-3.70479e-06
2.5934e-05
-3.7047e-06
2.96386e-05
-3.7046e-06
3.33431e-05
-3.70446e-06
3.70474e-05
-3.70428e-06
4.07514e-05
-3.70406e-06
4.44552e-05
-3.70379e-06
4.81587e-05
-3.70346e-06
5.18618e-05
-3.70306e-06
5.55643e-05
-3.70258e-06
5.92663e-05
-3.702e-06
6.29677e-05
-3.70133e-06
6.66682e-05
-3.70053e-06
7.03678e-05
-3.69962e-06
7.40664e-05
-3.69855e-06
7.77637e-05
-3.69733e-06
8.14596e-05
-3.69594e-06
8.5154e-05
-3.69437e-06
8.88466e-05
-3.69258e-06
9.25372e-05
-3.69057e-06
9.62255e-05
-3.68833e-06
9.99113e-05
-3.68582e-06
0.000103594
-3.68303e-06
0.000107274
-3.67995e-06
0.000110951
-3.67654e-06
0.000114624
-3.6728e-06
0.000118292
-3.66869e-06
0.000121957
-3.66419e-06
0.000125616
-3.65929e-06
0.00012927
-3.65395e-06
0.000132918
-3.64815e-06
0.00013656
-3.64188e-06
0.000140195
-3.63509e-06
0.000143823
-3.62778e-06
0.000147443
-3.61991e-06
0.000151054
-3.61145e-06
0.000154656
-3.60239e-06
0.000158249
-3.59268e-06
0.000161831
-3.58232e-06
0.000165403
-3.57126e-06
0.000168962
-3.55949e-06
0.000172509
-3.54697e-06
0.000176043
-3.53369e-06
0.000179562
-3.5196e-06
0.000183067
-3.50469e-06
0.000186556
-3.48893e-06
0.000190028
-3.47229e-06
0.000193483
-3.45475e-06
0.000196919
-3.43628e-06
0.000200336
-3.41685e-06
0.000203733
-3.39645e-06
0.000207108
-3.37504e-06
0.00021046
-3.35261e-06
0.000213789
-3.32913e-06
0.000217094
-3.30457e-06
0.000220373
-3.27893e-06
0.000223625
-3.25217e-06
0.000226849
-3.22429e-06
0.000230045
-3.19525e-06
0.00023321
-3.16505e-06
0.000236343
-3.13368e-06
0.000239444
-3.1011e-06
0.000242512
-3.06733e-06
0.000245544
-3.03233e-06
0.00024854
-2.99611e-06
0.000251499
-2.95865e-06
0.000254419
-2.91995e-06
0.000257299
-2.88001e-06
0.000260138
-2.83882e-06
0.000262934
-2.79638e-06
0.000265687
-2.75269e-06
0.000268395
-2.70776e-06
0.000271056
-2.66158e-06
0.00027367
-2.61417e-06
0.000276236
-2.56554e-06
0.000278751
-2.51569e-06
0.000281216
-2.46464e-06
0.000283629
-2.41241e-06
0.000285988
-2.359e-06
0.000288292
-2.30445e-06
0.000290541
-2.24876e-06
0.000292733
-2.19198e-06
0.000294867
-2.13411e-06
0.000296942
-2.07518e-06
0.000298957
-2.01523e-06
0.000300912
-1.95429e-06
0.000302804
-1.89239e-06
0.000304633
-1.82955e-06
0.000306399
-1.76583e-06
0.000308101
-1.70126e-06
0.000309736
-1.63587e-06
0.000311306
-1.56972e-06
0.000312809
-1.50283e-06
0.000314244
-1.43525e-06
0.000315611
-1.36704e-06
0.00031691
-1.29823e-06
0.000318138
-1.22887e-06
0.000319297
-1.15902e-06
0.000320386
-1.08871e-06
0.000321404
-1.018e-06
0.000322351
-9.46945e-07
0.000323227
-8.75587e-07
0.000324031
-8.03979e-07
0.000324763
-7.32173e-07
0.000325423
-6.60221e-07
0.000326011
-5.88174e-07
0.000326527
-5.16084e-07
0.000326971
-4.44001e-07
0.000327343
-3.71977e-07
0.000327643
-3.00061e-07
0.000327872
-2.28304e-07
0.000328028
-1.56755e-07
0.000328114
-8.54622e-08
0.000328128
-1.44736e-08
0.000328072
5.61642e-08
0.000327946
1.26405e-07
0.00032775
1.96205e-07
0.000327484
2.65521e-07
0.00032715
3.34309e-07
0.000326747
4.0253e-07
0.000326277
4.70144e-07
0.00032574
5.37112e-07
0.000325137
6.03398e-07
0.000324468
6.68967e-07
0.000323734
7.33786e-07
0.000322936
7.97822e-07
0.000322075
8.61045e-07
0.000321151
9.23427e-07
0.000320167
9.84941e-07
0.000319121
1.04556e-06
0.000318016
1.10526e-06
0.000316852
1.16403e-06
0.00031563
1.22183e-06
0.000314351
1.27866e-06
0.000313017
1.33449e-06
0.000311627
1.38932e-06
0.000310184
1.44312e-06
0.000308688
1.49588e-06
0.000307141
1.5476e-06
0.000305543
1.59827e-06
0.000303895
1.64788e-06
0.000302198
1.69641e-06
0.000300454
1.74388e-06
0.000298664
1.79027e-06
0.000296828
1.83559e-06
0.000294949
1.87983e-06
0.000293026
1.923e-06
0.000291061
1.9651e-06
0.000289054
2.00612e-06
0.000287008
2.04608e-06
0.000284923
2.08499e-06
0.000282801
2.12284e-06
0.000280641
2.15965e-06
0.000278445
2.19542e-06
0.000276215
2.23017e-06
0.000273951
2.2639e-06
0.000271655
2.29663e-06
0.000269326
2.32836e-06
0.000266967
2.35912e-06
0.000264578
2.38891e-06
0.000262161
2.41774e-06
0.000259715
2.44564e-06
0.000257242
2.47262e-06
0.000254744
2.49868e-06
0.00025222
2.52386e-06
0.000249672
2.54815e-06
0.0002471
2.57159e-06
0.000244506
2.59418e-06
0.00024189
2.61594e-06
0.000239253
2.6369e-06
0.000236596
2.65706e-06
0.00023392
2.67645e-06
0.000231224
2.69508e-06
0.000228511
2.71297e-06
0.000225781
2.73014e-06
0.000223035
2.7466e-06
0.000220272
2.76238e-06
0.000217495
2.77749e-06
0.000214703
2.79194e-06
0.000211897
2.80577e-06
0.000209078
2.81897e-06
0.000206247
2.83158e-06
0.000203403
2.8436e-06
0.000200548
2.85507e-06
0.000197682
2.86598e-06
0.000194806
2.87636e-06
0.000191919
2.88623e-06
0.000189024
2.89561e-06
0.000186119
2.9045e-06
0.000183206
2.91292e-06
0.000180285
2.9209e-06
0.000177357
2.92844e-06
0.000174421
2.93557e-06
0.000171479
2.94229e-06
0.000168531
2.94862e-06
0.000165576
2.95458e-06
0.000162616
2.96018e-06
0.00015965
2.96543e-06
0.00015668
2.97036e-06
0.000153705
2.97496e-06
0.000150726
2.97926e-06
0.000147742
2.98327e-06
0.000144755
2.987e-06
0.000141765
2.99047e-06
0.000138771
2.99367e-06
0.000135775
2.99664e-06
0.000132775
2.99938e-06
0.000129773
3.00189e-06
0.000126769
3.0042e-06
0.000123763
3.00631e-06
0.000120755
3.00823e-06
0.000117745
3.00998e-06
0.000114733
3.01156e-06
0.00011172
3.01298e-06
0.000108706
3.01425e-06
0.000105691
3.01538e-06
0.000102674
3.01638e-06
9.96569e-05
3.01727e-06
9.66389e-05
3.01803e-06
9.36202e-05
3.01869e-06
9.06009e-05
3.01926e-06
8.75812e-05
3.01973e-06
8.4561e-05
3.02012e-06
8.15406e-05
3.02044e-06
7.85199e-05
3.02068e-06
7.54991e-05
3.02087e-06
7.24781e-05
3.02099e-06
6.9457e-05
3.02107e-06
6.64359e-05
3.0211e-06
6.34148e-05
3.02109e-06
6.03938e-05
3.02104e-06
5.73728e-05
3.02097e-06
5.43519e-05
3.02087e-06
5.13312e-05
3.02075e-06
4.83106e-05
3.02061e-06
4.52901e-05
3.02046e-06
4.22698e-05
3.02031e-06
3.92497e-05
3.02014e-06
3.62297e-05
3.01998e-06
3.32099e-05
3.01982e-06
3.01902e-05
3.01966e-06
2.71707e-05
3.01951e-06
2.41513e-05
3.01936e-06
2.11321e-05
3.01923e-06
1.8113e-05
3.01911e-06
1.5094e-05
3.019e-06
1.20751e-05
3.01891e-06
9.05625e-06
3.01884e-06
6.03747e-06
3.01878e-06
3.01873e-06
3.01875e-06
3.01873e-06
3.70496e-06
-7.40991e-06
7.40991e-06
-7.40989e-06
1.11148e-05
-7.40985e-06
1.48197e-05
-7.4098e-06
1.85246e-05
-7.40971e-06
2.22294e-05
-7.40959e-06
2.59341e-05
-7.40943e-06
2.96388e-05
-7.40923e-06
3.33433e-05
-7.40896e-06
3.70476e-05
-7.40861e-06
4.07517e-05
-7.40818e-06
4.44556e-05
-7.40765e-06
4.81591e-05
-7.40699e-06
5.18622e-05
-7.4062e-06
5.55649e-05
-7.40524e-06
5.9267e-05
-7.40411e-06
6.29684e-05
-7.40277e-06
6.66691e-05
-7.4012e-06
7.03689e-05
-7.39937e-06
7.40676e-05
-7.39726e-06
7.77651e-05
-7.39484e-06
8.14612e-05
-7.39208e-06
8.51558e-05
-7.38893e-06
8.88486e-05
-7.38538e-06
9.25394e-05
-7.38139e-06
9.6228e-05
-7.37691e-06
9.99141e-05
-7.37192e-06
0.000103597
-7.36637e-06
0.000107278
-7.36022e-06
0.000110955
-7.35343e-06
0.000114628
-7.34596e-06
0.000118297
-7.33776e-06
0.000121961
-7.32879e-06
0.000125621
-7.319e-06
0.000129276
-7.30835e-06
0.000132924
-7.29678e-06
0.000136567
-7.28426e-06
0.000140202
-7.27072e-06
0.00014383
-7.25611e-06
0.000147451
-7.24039e-06
0.000151063
-7.22351e-06
0.000154666
-7.2054e-06
0.000158259
-7.18603e-06
0.000161842
-7.16532e-06
0.000165414
-7.14324e-06
0.000168975
-7.11972e-06
0.000172522
-7.09472e-06
0.000176057
-7.06817e-06
0.000179577
-7.04003e-06
0.000183083
-7.01023e-06
0.000186573
-6.97874e-06
0.000190046
-6.94549e-06
0.000193501
-6.91043e-06
0.000196939
-6.87351e-06
0.000200357
-6.83468e-06
0.000203754
-6.7939e-06
0.00020713
-6.75111e-06
0.000210484
-6.70626e-06
0.000213814
-6.65932e-06
0.00021712
-6.61023e-06
0.0002204
-6.55897e-06
0.000223653
-6.50547e-06
0.000226878
-6.44972e-06
0.000230075
-6.39167e-06
0.000233241
-6.33129e-06
0.000236376
-6.26854e-06
0.000239478
-6.20341e-06
0.000242547
-6.13587e-06
0.00024558
-6.06589e-06
0.000248578
-5.99345e-06
0.000251537
-5.91854e-06
0.000254459
-5.84115e-06
0.00025734
-5.76127e-06
0.00026018
-5.67889e-06
0.000262978
-5.594e-06
0.000265732
-5.50662e-06
0.000268441
-5.41675e-06
0.000271103
-5.32439e-06
0.000273719
-5.22957e-06
0.000276286
-5.13229e-06
0.000278802
-5.03258e-06
0.000281268
-4.93047e-06
0.000283682
-4.82598e-06
0.000286042
-4.71915e-06
0.000288348
-4.61002e-06
0.000290597
-4.49863e-06
0.00029279
-4.38503e-06
0.000294926
-4.26926e-06
0.000297002
-4.15138e-06
0.000299018
-4.03146e-06
0.000300973
-3.90954e-06
0.000302867
-3.78569e-06
0.000304697
-3.66e-06
0.000306464
-3.53252e-06
0.000308166
-3.40333e-06
0.000309802
-3.27252e-06
0.000311373
-3.14016e-06
0.000312876
-3.00634e-06
0.000314312
-2.87115e-06
0.00031568
-2.73467e-06
0.000316979
-2.59701e-06
0.000318208
-2.45825e-06
0.000319368
-2.31849e-06
0.000320457
-2.17782e-06
0.000321475
-2.03636e-06
0.000322422
-1.89419e-06
0.000323298
-1.75142e-06
0.000324102
-1.60815e-06
0.000324835
-1.46449e-06
0.000325495
-1.32054e-06
0.000326083
-1.17639e-06
0.000326599
-1.03216e-06
0.000327043
-8.87942e-07
0.000327415
-7.43843e-07
0.000327715
-5.99962e-07
0.000327943
-4.56399e-07
0.000328099
-3.13252e-07
0.000328185
-1.70619e-07
0.000328199
-2.85956e-08
0.000328142
1.12726e-07
0.000328015
2.53253e-07
0.000327819
3.92896e-07
0.000327553
5.31569e-07
0.000327218
6.69187e-07
0.000326815
8.05668e-07
0.000326344
9.40933e-07
0.000325806
1.07491e-06
0.000325202
1.20751e-06
0.000324532
1.33868e-06
0.000323798
1.46835e-06
0.000322999
1.59646e-06
0.000322137
1.72293e-06
0.000321213
1.84772e-06
0.000320227
1.97078e-06
0.00031918
2.09204e-06
0.000318074
2.21147e-06
0.000316909
2.32902e-06
0.000315686
2.44464e-06
0.000314407
2.55832e-06
0.000313071
2.67e-06
0.000311681
2.77966e-06
0.000310237
2.88727e-06
0.00030874
2.99281e-06
0.000307191
3.09626e-06
0.000305592
3.1976e-06
0.000303943
3.29682e-06
0.000302245
3.3939e-06
0.000300501
3.48884e-06
0.000298709
3.58162e-06
0.000296873
3.67226e-06
0.000294992
3.76074e-06
0.000293068
3.84707e-06
0.000291101
3.93126e-06
0.000289094
4.01331e-06
0.000287047
4.09323e-06
0.000284961
4.17103e-06
0.000282837
4.24672e-06
0.000280676
4.32033e-06
0.00027848
4.39187e-06
0.000276249
4.46135e-06
0.000273984
4.5288e-06
0.000271686
4.59425e-06
0.000269357
4.65771e-06
0.000266997
4.7192e-06
0.000264607
4.77877e-06
0.000262188
4.83643e-06
0.000259742
4.89221e-06
0.000257268
4.94614e-06
0.000254769
4.99826e-06
0.000252244
5.04859e-06
0.000249695
5.09716e-06
0.000247122
5.14402e-06
0.000244527
5.18918e-06
0.000241911
5.2327e-06
0.000239273
5.27459e-06
0.000236615
5.3149e-06
0.000233938
5.35365e-06
0.000231242
5.3909e-06
0.000228528
5.42666e-06
0.000225798
5.46098e-06
0.00022305
5.49389e-06
0.000220287
5.52542e-06
0.000217509
5.55562e-06
0.000214717
5.58452e-06
0.00021191
5.61214e-06
0.000209091
5.63854e-06
0.000206259
5.66374e-06
0.000203414
5.68777e-06
0.000200559
5.71068e-06
0.000197692
5.73249e-06
0.000194815
5.75324e-06
0.000191929
5.77296e-06
0.000189033
5.79169e-06
0.000186128
5.80946e-06
0.000183214
5.82629e-06
0.000180293
5.84223e-06
0.000177364
5.8573e-06
0.000174428
5.87153e-06
0.000171485
5.88496e-06
0.000168536
5.89761e-06
0.000165581
5.90952e-06
0.000162621
5.9207e-06
0.000159655
5.9312e-06
0.000156684
5.94103e-06
0.000153709
5.95023e-06
0.00015073
5.95882e-06
0.000147746
5.96682e-06
0.000144759
5.97427e-06
0.000141768
5.98118e-06
0.000138774
5.98759e-06
0.000135777
5.99351e-06
0.000132778
5.99897e-06
0.000129776
6.00399e-06
0.000126771
6.0086e-06
0.000123765
6.01281e-06
0.000120756
6.01664e-06
0.000117746
6.02012e-06
0.000114735
6.02327e-06
0.000111721
6.0261e-06
0.000108707
6.02863e-06
0.000105691
6.03089e-06
0.000102675
6.03289e-06
9.96576e-05
6.03464e-06
9.66395e-05
6.03617e-06
9.36207e-05
6.03749e-06
9.06013e-05
6.03861e-06
8.75815e-05
6.03955e-06
8.45613e-05
6.04032e-06
8.15408e-05
6.04095e-06
7.85201e-05
6.04143e-06
7.54991e-05
6.04179e-06
7.24781e-05
6.04203e-06
6.9457e-05
6.04218e-06
6.64359e-05
6.04223e-06
6.34147e-05
6.04221e-06
6.03937e-05
6.04211e-06
5.73727e-05
6.04196e-06
5.43518e-05
6.04175e-06
5.1331e-05
6.04151e-06
4.83104e-05
6.04123e-06
4.52899e-05
6.04093e-06
4.22696e-05
6.04062e-06
3.92495e-05
6.04029e-06
3.62295e-05
6.03996e-06
3.32097e-05
6.03963e-06
3.019e-05
6.03931e-06
2.71705e-05
6.039e-06
2.41512e-05
6.03871e-06
2.1132e-05
6.03844e-06
1.81129e-05
6.0382e-06
1.50939e-05
6.03799e-06
1.2075e-05
6.0378e-06
9.0562e-06
6.03766e-06
6.03743e-06
6.03754e-06
3.01871e-06
6.03747e-06
6.03743e-06
3.70498e-06
-1.11149e-05
7.40994e-06
-1.11149e-05
1.11149e-05
-1.11148e-05
1.48198e-05
-1.11147e-05
1.85247e-05
-1.11146e-05
2.22296e-05
-1.11144e-05
2.59344e-05
-1.11142e-05
2.9639e-05
-1.11139e-05
3.33436e-05
-1.11135e-05
3.7048e-05
-1.1113e-05
4.07523e-05
-1.11124e-05
4.44562e-05
-1.11116e-05
4.81599e-05
-1.11107e-05
5.18632e-05
-1.11095e-05
5.5566e-05
-1.11081e-05
5.92684e-05
-1.11064e-05
6.297e-05
-1.11044e-05
6.66709e-05
-1.11021e-05
7.0371e-05
-1.10994e-05
7.407e-05
-1.10963e-05
7.77679e-05
-1.10927e-05
8.14644e-05
-1.10886e-05
8.51593e-05
-1.10839e-05
8.88526e-05
-1.10786e-05
9.25439e-05
-1.10727e-05
9.6233e-05
-1.1066e-05
9.99197e-05
-1.10586e-05
0.000103604
-1.10503e-05
0.000107284
-1.10411e-05
0.000110962
-1.1031e-05
0.000114636
-1.10198e-05
0.000118306
-1.10076e-05
0.000121971
-1.09942e-05
0.000125632
-1.09796e-05
0.000129287
-1.09637e-05
0.000132937
-1.09464e-05
0.00013658
-1.09277e-05
0.000140217
-1.09074e-05
0.000143846
-1.08856e-05
0.000147468
-1.08621e-05
0.000151081
-1.08368e-05
0.000154685
-1.08097e-05
0.00015828
-1.07807e-05
0.000161865
-1.07497e-05
0.000165438
-1.07167e-05
0.000169
-1.06814e-05
0.000172549
-1.0644e-05
0.000176085
-1.06042e-05
0.000179607
-1.05621e-05
0.000183114
-1.05175e-05
0.000186606
-1.04703e-05
0.000190081
-1.04205e-05
0.000193538
-1.0368e-05
0.000196978
-1.03127e-05
0.000200397
-1.02545e-05
0.000203797
-1.01934e-05
0.000207175
-1.01292e-05
0.000210531
-1.0062e-05
0.000213863
-9.99166e-06
0.000217171
-9.91808e-06
0.000220453
-9.84123e-06
0.000223709
-9.76104e-06
0.000226936
-9.67745e-06
0.000230135
-9.59041e-06
0.000233304
-9.49988e-06
0.000236441
-9.4058e-06
0.000239546
-9.30814e-06
0.000242617
-9.20685e-06
0.000245653
-9.1019e-06
0.000248653
-8.99326e-06
0.000251615
-8.88092e-06
0.000254539
-8.76484e-06
0.000257422
-8.64502e-06
0.000260265
-8.52145e-06
0.000263065
-8.39413e-06
0.000265822
-8.26305e-06
0.000268533
-8.12823e-06
0.000271198
-7.98967e-06
0.000273816
-7.84741e-06
0.000276385
-7.70147e-06
0.000278905
-7.55188e-06
0.000281373
-7.39867e-06
0.000283789
-7.2419e-06
0.000286151
-7.08161e-06
0.000288459
-6.91786e-06
0.000290711
-6.75072e-06
0.000292906
-6.58025e-06
0.000295044
-6.40653e-06
0.000297122
-6.22964e-06
0.00029914
-6.04967e-06
0.000301097
-5.86671e-06
0.000302992
-5.68086e-06
0.000304825
-5.49222e-06
0.000306593
-5.30091e-06
0.000308297
-5.10703e-06
0.000309935
-4.91071e-06
0.000311507
-4.71206e-06
0.000313012
-4.51122e-06
0.000314449
-4.30832e-06
0.000315818
-4.1035e-06
0.000317118
-3.89688e-06
0.000318348
-3.68862e-06
0.000319508
-3.47886e-06
0.000320598
-3.26774e-06
0.000321617
-3.05541e-06
0.000322565
-2.84203e-06
0.000323441
-2.62775e-06
0.000324246
-2.41273e-06
0.000324979
-2.1971e-06
0.000325639
-1.98104e-06
0.000326227
-1.7647e-06
0.000326744
-1.54822e-06
0.000327187
-1.33177e-06
0.000327559
-1.11549e-06
0.000327859
-8.99546e-07
0.000328086
-6.84078e-07
0.000328242
-4.69237e-07
0.000328327
-2.55168e-07
0.00032834
-4.20153e-08
0.000328283
1.70081e-07
0.000328155
3.80983e-07
0.000327957
5.90557e-07
0.00032769
7.98672e-07
0.000327354
1.0052e-06
0.00032695
1.21002e-06
0.000326478
1.41301e-06
0.000325939
1.61407e-06
0.000325333
1.81306e-06
0.000324662
2.00991e-06
0.000323926
2.20449e-06
0.000323126
2.39672e-06
0.000322262
2.5865e-06
0.000321336
2.77376e-06
0.000320348
2.9584e-06
0.0003193
3.14035e-06
0.000318192
3.31955e-06
0.000317025
3.49592e-06
0.0003158
3.66941e-06
0.000314519
3.83996e-06
0.000313181
4.00752e-06
0.000311789
4.17205e-06
0.000310342
4.3335e-06
0.000308843
4.49183e-06
0.000307293
4.64703e-06
0.000305691
4.79906e-06
0.00030404
4.9479e-06
0.000302341
5.09353e-06
0.000300593
5.23594e-06
0.0002988
5.37512e-06
0.000296961
5.51108e-06
0.000295078
5.6438e-06
0.000293152
5.77329e-06
0.000291184
5.89956e-06
0.000289174
6.02262e-06
0.000287125
6.14249e-06
0.000285037
6.25917e-06
0.000282911
6.37269e-06
0.000280748
6.48308e-06
0.00027855
6.59037e-06
0.000276316
6.69457e-06
0.000274049
6.79572e-06
0.00027175
6.89385e-06
0.000269419
6.98901e-06
0.000267057
7.08122e-06
0.000264665
7.17053e-06
0.000262244
7.25699e-06
0.000259796
7.34062e-06
0.00025732
7.42148e-06
0.000254819
7.49962e-06
0.000252293
7.57507e-06
0.000249742
7.64789e-06
0.000247168
7.71813e-06
0.000244571
7.78584e-06
0.000241953
7.85107e-06
0.000239313
7.91387e-06
0.000236654
7.97428e-06
0.000233975
8.03238e-06
0.000231278
8.0882e-06
0.000228563
8.1418e-06
0.000225831
8.19323e-06
0.000223082
8.24255e-06
0.000220318
8.28981e-06
0.000217538
8.33506e-06
0.000214744
8.37836e-06
0.000211937
8.41976e-06
0.000209116
8.45931e-06
0.000206283
8.49706e-06
0.000203437
8.53307e-06
0.000200581
8.56738e-06
0.000197713
8.60006e-06
0.000194835
8.63114e-06
0.000191947
8.66069e-06
0.00018905
8.68874e-06
0.000186144
8.71535e-06
0.00018323
8.74056e-06
0.000180308
8.76443e-06
0.000177378
8.78699e-06
0.000174442
8.80831e-06
0.000171498
8.82841e-06
0.000168548
8.84735e-06
0.000165593
8.86517e-06
0.000162631
8.88192e-06
0.000159665
8.89762e-06
0.000156694
8.91234e-06
0.000153718
8.9261e-06
0.000150738
8.93895e-06
0.000147754
8.95093e-06
0.000144766
8.96207e-06
0.000141775
8.97241e-06
0.00013878
8.98199e-06
0.000135783
8.99084e-06
0.000132783
8.99901e-06
0.00012978
9.00651e-06
0.000126776
9.01339e-06
0.000123769
9.01968e-06
0.00012076
9.0254e-06
0.000117749
9.0306e-06
0.000114737
9.0353e-06
0.000111724
9.03952e-06
0.000108709
9.0433e-06
0.000105694
9.04666e-06
0.000102677
9.04964e-06
9.96592e-05
9.05225e-06
9.66408e-05
9.05452e-06
9.36218e-05
9.05647e-06
9.06023e-05
9.05814e-06
8.75823e-05
9.05953e-06
8.4562e-05
9.06067e-06
8.15413e-05
9.06159e-06
7.85205e-05
9.0623e-06
7.54994e-05
9.06282e-06
7.24783e-05
9.06318e-06
6.94571e-05
9.06338e-06
6.64359e-05
9.06345e-06
6.34147e-05
9.06339e-06
6.03935e-05
9.06324e-06
5.73725e-05
9.063e-06
5.43516e-05
9.06268e-06
5.13308e-05
9.06231e-06
4.83101e-05
9.06188e-06
4.52896e-05
9.06142e-06
4.22693e-05
9.06094e-06
3.92492e-05
9.06044e-06
3.62292e-05
9.05993e-06
3.32094e-05
9.05943e-06
3.01897e-05
9.05895e-06
2.71703e-05
9.05848e-06
2.41509e-05
9.05804e-06
2.11317e-05
9.05763e-06
1.81127e-05
9.05727e-06
1.50937e-05
9.05694e-06
1.20749e-05
9.05666e-06
9.05608e-06
9.05644e-06
6.03736e-06
9.05627e-06
3.01867e-06
9.05616e-06
9.0561e-06
3.705e-06
-1.48199e-05
7.41e-06
-1.48199e-05
1.1115e-05
-1.48198e-05
1.482e-05
-1.48197e-05
1.85249e-05
-1.48196e-05
2.22298e-05
-1.48193e-05
2.59347e-05
-1.48191e-05
2.96394e-05
-1.48187e-05
3.33441e-05
-1.48182e-05
3.70487e-05
-1.48176e-05
4.0753e-05
-1.48168e-05
4.44572e-05
-1.48158e-05
4.81611e-05
-1.48145e-05
5.18646e-05
-1.4813e-05
5.55677e-05
-1.48112e-05
5.92704e-05
-1.4809e-05
6.29724e-05
-1.48065e-05
6.66737e-05
-1.48034e-05
7.03741e-05
-1.47999e-05
7.40736e-05
-1.47958e-05
7.7772e-05
-1.47911e-05
8.14691e-05
-1.47857e-05
8.51647e-05
-1.47795e-05
8.88586e-05
-1.47725e-05
9.25506e-05
-1.47647e-05
9.62405e-05
-1.47559e-05
9.9928e-05
-1.47461e-05
0.000103613
-1.47351e-05
0.000107295
-1.4723e-05
0.000110973
-1.47096e-05
0.000114648
-1.46948e-05
0.000118319
-1.46786e-05
0.000121986
-1.46609e-05
0.000125648
-1.46415e-05
0.000129304
-1.46204e-05
0.000132955
-1.45974e-05
0.0001366
-1.45726e-05
0.000140239
-1.45457e-05
0.00014387
-1.45167e-05
0.000147493
-1.44855e-05
0.000151108
-1.44519e-05
0.000154715
-1.44159e-05
0.000158311
-1.43774e-05
0.000161898
-1.43362e-05
0.000165473
-1.42922e-05
0.000169037
-1.42454e-05
0.000172589
-1.41956e-05
0.000176127
-1.41427e-05
0.000179652
-1.40867e-05
0.000183162
-1.40273e-05
0.000186656
-1.39645e-05
0.000190134
-1.38982e-05
0.000193594
-1.38283e-05
0.000197036
-1.37547e-05
0.000200459
-1.36772e-05
0.000203861
-1.35958e-05
0.000207242
-1.35104e-05
0.000210601
-1.34209e-05
0.000213937
-1.33272e-05
0.000217248
-1.32292e-05
0.000220533
-1.31268e-05
0.000223792
-1.302e-05
0.000227024
-1.29086e-05
0.000230226
-1.27927e-05
0.000233398
-1.2672e-05
0.000236539
-1.25466e-05
0.000239647
-1.24165e-05
0.000242722
-1.22815e-05
0.000245762
-1.21416e-05
0.000248765
-1.19968e-05
0.000251731
-1.1847e-05
0.000254659
-1.16923e-05
0.000257546
-1.15325e-05
0.000260392
-1.13678e-05
0.000263196
-1.1198e-05
0.000265956
-1.10232e-05
0.000268672
-1.08434e-05
0.000271341
-1.06587e-05
0.000273962
-1.04689e-05
0.000276535
-1.02743e-05
0.000279058
-1.00748e-05
0.00028153
-9.87044e-06
0.000283949
-9.66133e-06
0.000286315
-9.44752e-06
0.000288626
-9.22909e-06
0.000290882
-9.00613e-06
0.00029308
-8.77872e-06
0.000295221
-8.54697e-06
0.000297302
-8.31098e-06
0.000299323
-8.07087e-06
0.000301283
-7.82677e-06
0.000303181
-7.57881e-06
0.000305016
-7.32713e-06
0.000306787
-7.07186e-06
0.000308493
-6.81318e-06
0.000310134
-6.55122e-06
0.000311708
-6.28616e-06
0.000313215
-6.01817e-06
0.000314654
-5.74743e-06
0.000316024
-5.47411e-06
0.000317326
-5.1984e-06
0.000318558
-4.92049e-06
0.00031972
-4.64058e-06
0.000320811
-4.35886e-06
0.000321831
-4.07552e-06
0.00032278
-3.79078e-06
0.000323657
-3.50484e-06
0.000324462
-3.21789e-06
0.000325195
-2.93015e-06
0.000325856
-2.64183e-06
0.000326444
-2.35313e-06
0.00032696
-2.06426e-06
0.000327404
-1.77542e-06
0.000327775
-1.48681e-06
0.000328074
-1.19865e-06
0.000328301
-9.1113e-07
0.000328456
-6.24449e-07
0.00032854
-3.38801e-07
0.000328552
-5.43788e-08
0.000328494
2.2863e-07
0.000328365
5.10041e-07
0.000328166
7.89677e-07
0.000327897
1.06736e-06
0.000327559
1.34292e-06
0.000327153
1.6162e-06
0.000326679
1.88704e-06
0.000326138
2.15528e-06
0.00032553
2.42077e-06
0.000324857
2.68338e-06
0.000324118
2.94298e-06
0.000323316
3.19942e-06
0.000322449
3.4526e-06
0.000321521
3.7024e-06
0.00032053
3.94871e-06
0.000319479
4.19143e-06
0.000318369
4.43046e-06
0.000317199
4.66572e-06
0.000315971
4.89712e-06
0.000314686
5.1246e-06
0.000313346
5.34808e-06
0.00031195
5.56751e-06
0.000310501
5.78283e-06
0.000308999
5.994e-06
0.000307445
6.20097e-06
0.00030584
6.4037e-06
0.000304186
6.60218e-06
0.000302483
6.79638e-06
0.000300733
6.98627e-06
0.000298936
7.17186e-06
0.000297094
7.35313e-06
0.000295208
7.53009e-06
0.000293278
7.70273e-06
0.000291307
7.87108e-06
0.000289294
8.03514e-06
0.000287242
8.19493e-06
0.000285151
8.35047e-06
0.000283021
8.5018e-06
0.000280856
8.64895e-06
0.000278654
8.79195e-06
0.000276418
8.93083e-06
0.000274148
9.06565e-06
0.000271845
9.19644e-06
0.000269511
9.32325e-06
0.000267146
9.44615e-06
0.000264751
9.56516e-06
0.000262328
9.68037e-06
0.000259877
9.79181e-06
0.000257399
9.89955e-06
0.000254895
1.00037e-05
0.000252366
1.01042e-05
0.000249812
1.02012e-05
0.000247236
1.02948e-05
0.000244636
1.0385e-05
0.000242016
1.04719e-05
0.000239374
1.05555e-05
0.000236712
1.0636e-05
0.000234031
1.07134e-05
0.000231332
1.07877e-05
0.000228614
1.08591e-05
0.00022588
1.09276e-05
0.000223129
1.09933e-05
0.000220363
1.10562e-05
0.000217582
1.11165e-05
0.000214786
1.11741e-05
0.000211976
1.12292e-05
0.000209154
1.12819e-05
0.000206319
1.13321e-05
0.000203472
1.13801e-05
0.000200613
1.14257e-05
0.000197744
1.14692e-05
0.000194865
1.15106e-05
0.000191976
1.15499e-05
0.000189077
1.15872e-05
0.00018617
1.16226e-05
0.000183254
1.16562e-05
0.000180331
1.16879e-05
0.0001774
1.17179e-05
0.000174462
1.17463e-05
0.000171517
1.1773e-05
0.000168566
1.17982e-05
0.00016561
1.18219e-05
0.000162647
1.18442e-05
0.00015968
1.1865e-05
0.000156708
1.18846e-05
0.000153731
1.19029e-05
0.00015075
1.192e-05
0.000147765
1.19359e-05
0.000144776
1.19507e-05
0.000141784
1.19644e-05
0.000138789
1.19771e-05
0.000135791
1.19889e-05
0.00013279
1.19997e-05
0.000129787
1.20097e-05
0.000126782
1.20188e-05
0.000123774
1.20271e-05
0.000120765
1.20347e-05
0.000117754
1.20416e-05
0.000114742
1.20478e-05
0.000111728
1.20534e-05
0.000108713
1.20584e-05
0.000105697
1.20628e-05
0.000102679
1.20668e-05
9.96615e-05
1.20702e-05
9.66428e-05
1.20732e-05
9.36235e-05
1.20758e-05
9.06037e-05
1.20779e-05
8.75835e-05
1.20798e-05
8.45629e-05
1.20813e-05
8.15421e-05
1.20824e-05
7.8521e-05
1.20834e-05
7.54998e-05
1.2084e-05
7.24785e-05
1.20845e-05
6.94572e-05
1.20847e-05
6.64358e-05
1.20848e-05
6.34145e-05
1.20847e-05
6.03933e-05
1.20845e-05
5.73722e-05
1.20841e-05
5.43512e-05
1.20837e-05
5.13304e-05
1.20832e-05
4.83097e-05
1.20826e-05
4.52892e-05
1.20819e-05
4.22688e-05
1.20813e-05
3.92487e-05
1.20806e-05
3.62287e-05
1.20799e-05
3.32089e-05
1.20792e-05
3.01893e-05
1.20786e-05
2.71698e-05
1.20779e-05
2.41505e-05
1.20773e-05
2.11314e-05
1.20768e-05
1.81124e-05
1.20763e-05
1.50935e-05
1.20758e-05
1.20746e-05
1.20755e-05
9.05592e-06
1.20752e-05
6.03724e-06
1.20749e-05
3.01861e-06
1.20748e-05
1.20747e-05
3.70503e-06
-1.85249e-05
7.41006e-06
-1.85249e-05
1.11151e-05
-1.85248e-05
1.48201e-05
-1.85247e-05
1.85251e-05
-1.85246e-05
2.22301e-05
-1.85243e-05
2.5935e-05
-1.8524e-05
2.96399e-05
-1.85236e-05
3.33448e-05
-1.8523e-05
3.70495e-05
-1.85223e-05
4.07541e-05
-1.85214e-05
4.44585e-05
-1.85202e-05
4.81626e-05
-1.85187e-05
5.18665e-05
-1.85169e-05
5.55699e-05
-1.85147e-05
5.9273e-05
-1.85121e-05
6.29754e-05
-1.85089e-05
6.66772e-05
-1.85052e-05
7.03783e-05
-1.85009e-05
7.40784e-05
-1.84959e-05
7.77774e-05
-1.84901e-05
8.14752e-05
-1.84835e-05
8.51717e-05
-1.84759e-05
8.88665e-05
-1.84673e-05
9.25594e-05
-1.84577e-05
9.62503e-05
-1.84468e-05
9.99389e-05
-1.84347e-05
0.000103625
-1.84211e-05
0.000107308
-1.84061e-05
0.000110988
-1.83895e-05
0.000114664
-1.83712e-05
0.000118337
-1.83511e-05
0.000122005
-1.83291e-05
0.000125669
-1.83051e-05
0.000129327
-1.82789e-05
0.00013298
-1.82504e-05
0.000136627
-1.82195e-05
0.000140268
-1.81861e-05
0.000143901
-1.815e-05
0.000147527
-1.81112e-05
0.000151144
-1.80694e-05
0.000154753
-1.80247e-05
0.000158352
-1.79767e-05
0.000161942
-1.79254e-05
0.00016552
-1.78707e-05
0.000169087
-1.78123e-05
0.000172642
-1.77503e-05
0.000176183
-1.76844e-05
0.000179711
-1.76145e-05
0.000183224
-1.75405e-05
0.000186722
-1.74622e-05
0.000190204
-1.73795e-05
0.000193668
-1.72923e-05
0.000197113
-1.72005e-05
0.00020054
-1.71039e-05
0.000203947
-1.70023e-05
0.000207332
-1.68957e-05
0.000210695
-1.6784e-05
0.000214035
-1.66671e-05
0.00021735
-1.65447e-05
0.00022064
-1.64169e-05
0.000223904
-1.62835e-05
0.00022714
-1.61444e-05
0.000230347
-1.59996e-05
0.000233523
-1.58489e-05
0.000236669
-1.56923e-05
0.000239782
-1.55297e-05
0.000242862
-1.5361e-05
0.000245906
-1.51862e-05
0.000248915
-1.50053e-05
0.000251886
-1.48181e-05
0.000254818
-1.46247e-05
0.000257711
-1.44251e-05
0.000260562
-1.42191e-05
0.000263371
-1.40069e-05
0.000266136
-1.37884e-05
0.000268857
-1.35636e-05
0.000271531
-1.33326e-05
0.000274157
-1.30954e-05
0.000276735
-1.2852e-05
0.000279262
-1.26025e-05
0.000281739
-1.2347e-05
0.000284163
-1.20855e-05
0.000286534
-1.18181e-05
0.000288849
-1.15449e-05
0.000291109
-1.1266e-05
0.000293312
-1.09815e-05
0.000295457
-1.06916e-05
0.000297542
-1.03964e-05
0.000299567
-1.00961e-05
0.000301531
-9.7907e-06
0.000303433
-9.48049e-06
0.000305272
-9.16561e-06
0.000307046
-8.84625e-06
0.000308755
-8.52259e-06
0.000310399
-8.19484e-06
0.000311976
-7.8632e-06
0.000313486
-7.52788e-06
0.000314927
-7.18911e-06
0.0003163
-6.84712e-06
0.000317604
-6.50212e-06
0.000318838
-6.15438e-06
0.000320002
-5.80412e-06
0.000321094
-5.45159e-06
0.000322116
-5.09704e-06
0.000323066
-4.74074e-06
0.000323944
-4.38292e-06
0.00032475
-4.02385e-06
0.000325483
-3.66379e-06
0.000326145
-3.303e-06
0.000326733
-2.94174e-06
0.000327249
-2.58026e-06
0.000327693
-2.21883e-06
0.000328063
-1.85769e-06
0.000328362
-1.49712e-06
0.000328588
-1.13734e-06
0.000328742
-7.78627e-07
0.000328825
-4.21209e-07
0.000328836
-6.53292e-08
0.000328776
2.88776e-07
0.000328645
6.40876e-07
0.000328444
9.90747e-07
0.000328173
1.33817e-06
0.000327833
1.68293e-06
0.000327424
2.02483e-06
0.000326948
2.36366e-06
0.000326404
2.69923e-06
0.000325793
3.03136e-06
0.000325117
3.35988e-06
0.000324375
3.68461e-06
0.000323569
4.0054e-06
0.000322699
4.32209e-06
0.000321767
4.63454e-06
0.000320773
4.94261e-06
0.000319719
5.24618e-06
0.000318604
5.54514e-06
0.00031743
5.83936e-06
0.000316199
6.12876e-06
0.00031491
6.41323e-06
0.000313565
6.6927e-06
0.000312166
6.96708e-06
0.000310712
7.23632e-06
0.000309206
7.50036e-06
0.000307648
7.75913e-06
0.000306039
8.01261e-06
0.00030438
8.26075e-06
0.000302673
8.50352e-06
0.000300919
8.74092e-06
0.000299118
8.97291e-06
0.000297271
9.1995e-06
0.000295381
9.42069e-06
0.000293447
9.63648e-06
0.000291471
9.84688e-06
0.000289454
1.00519e-05
0.000287398
1.02516e-05
0.000285302
1.0446e-05
0.000283169
1.06351e-05
0.000280999
1.0819e-05
0.000278793
1.09976e-05
0.000276553
1.11712e-05
0.000274279
1.13396e-05
0.000271972
1.1503e-05
0.000269634
1.16614e-05
0.000267265
1.18149e-05
0.000264867
1.19636e-05
0.00026244
1.21075e-05
0.000259985
1.22467e-05
0.000257503
1.23813e-05
0.000254995
1.25113e-05
0.000252463
1.26368e-05
0.000249906
1.2758e-05
0.000247326
1.28748e-05
0.000244724
1.29874e-05
0.000242099
1.30959e-05
0.000239455
1.32004e-05
0.00023679
1.33008e-05
0.000234106
1.33974e-05