/*--------------------------------*- C++ -*----------------------------------*\
| =========                 |                                                 |
| \\      /  F ield         | OpenFOAM: The Open Source CFD Toolbox           |
|  \\    /   O peration     | Version:  v2012                                 |
|   \\  /    A nd           | Website:  www.openfoam.com                      |
|    \\/     M anipulation  |                                                 |
\*---------------------------------------------------------------------------*/
FoamFile
{
    version     2.0;
    format      ascii;
    class       volVectorField;
    location    "8.3";
    object      U;
}
// * * * * * * * * * * * * * * * * * * * * * * * * * * * * * * * * * * * * * //

dimensions      [0 1 -1 0 0 0 0];


internalField   nonuniform List<vector> 
65536
(
(0.000754767 -0.000754766 0)
(0.0022643 -0.000754764 0)
(0.00377382 -0.00075476 0)
(0.00528334 -0.000754754 0)
(0.00679284 -0.000754745 0)
(0.00830232 -0.000754732 0)
(0.00981177 -0.000754715 0)
(0.0113212 -0.000754693 0)
(0.0128305 -0.000754665 0)
(0.0143399 -0.000754629 0)
(0.0158491 -0.000754583 0)
(0.0173582 -0.000754528 0)
(0.0188672 -0.000754459 0)
(0.020376 -0.000754377 0)
(0.0218847 -0.000754278 0)
(0.0233932 -0.000754161 0)
(0.0249014 -0.000754022 0)
(0.0264093 -0.00075386 0)
(0.0279168 -0.000753672 0)
(0.029424 -0.000753455 0)
(0.0309307 -0.000753206 0)
(0.0324369 -0.000752922 0)
(0.0339424 -0.0007526 0)
(0.0354473 -0.000752235 0)
(0.0369514 -0.000751826 0)
(0.0384547 -0.000751367 0)
(0.0399569 -0.000750855 0)
(0.0414581 -0.000750287 0)
(0.0429581 -0.000749657 0)
(0.0444568 -0.000748962 0)
(0.0459541 -0.000748198 0)
(0.0474497 -0.00074736 0)
(0.0489436 -0.000746442 0)
(0.0504355 -0.000745442 0)
(0.0519254 -0.000744353 0)
(0.053413 -0.000743171 0)
(0.0548982 -0.000741892 0)
(0.0563807 -0.000740508 0)
(0.0578603 -0.000739017 0)
(0.0593369 -0.000737412 0)
(0.0608101 -0.000735688 0)
(0.0622798 -0.00073384 0)
(0.0637456 -0.000731862 0)
(0.0652074 -0.000729749 0)
(0.0666647 -0.000727496 0)
(0.0681175 -0.000725096 0)
(0.0695653 -0.000722545 0)
(0.0710078 -0.000719837 0)
(0.0724448 -0.000716966 0)
(0.0738758 -0.000713927 0)
(0.0753007 -0.000710715 0)
(0.0767189 -0.000707324 0)
(0.0781301 -0.000703749 0)
(0.0795341 -0.000699985 0)
(0.0809303 -0.000696026 0)
(0.0823184 -0.000691868 0)
(0.0836979 -0.000687506 0)
(0.0850686 -0.000682935 0)
(0.0864299 -0.00067815 0)
(0.0877814 -0.000673147 0)
(0.0891227 -0.000667922 0)
(0.0904533 -0.00066247 0)
(0.0917728 -0.000656788 0)
(0.0930807 -0.000650873 0)
(0.0943765 -0.00064472 0)
(0.0956598 -0.000638327 0)
(0.0969301 -0.000631691 0)
(0.0981868 -0.000624809 0)
(0.0994296 -0.00061768 0)
(0.100658 -0.0006103 0)
(0.101871 -0.000602669 0)
(0.103069 -0.000594785 0)
(0.10425 -0.000586648 0)
(0.105416 -0.000578257 0)
(0.106564 -0.000569611 0)
(0.107694 -0.000560711 0)
(0.108807 -0.000551557 0)
(0.109901 -0.000542151 0)
(0.110976 -0.000532493 0)
(0.112031 -0.000522586 0)
(0.113066 -0.000512432 0)
(0.114081 -0.000502033 0)
(0.115075 -0.000491393 0)
(0.116047 -0.000480514 0)
(0.116997 -0.000469402 0)
(0.117925 -0.000458059 0)
(0.118829 -0.000446491 0)
(0.119711 -0.000434703 0)
(0.120568 -0.000422701 0)
(0.121402 -0.00041049 0)
(0.122211 -0.000398076 0)
(0.122994 -0.000385467 0)
(0.123753 -0.000372669 0)
(0.124485 -0.00035969 0)
(0.125192 -0.000346537 0)
(0.125871 -0.000333219 0)
(0.126525 -0.000319743 0)
(0.127151 -0.000306119 0)
(0.127749 -0.000292355 0)
(0.12832 -0.000278461 0)
(0.128863 -0.000264446 0)
(0.129378 -0.000250319 0)
(0.129864 -0.000236091 0)
(0.130322 -0.00022177 0)
(0.130752 -0.000207369 0)
(0.131152 -0.000192895 0)
(0.131523 -0.000178361 0)
(0.131865 -0.000163775 0)
(0.132178 -0.00014915 0)
(0.132462 -0.000134495 0)
(0.132716 -0.00011982 0)
(0.132941 -0.000105136 0)
(0.133137 -9.04544e-05 0)
(0.133303 -7.57842e-05 0)
(0.13344 -6.11362e-05 0)
(0.133548 -4.65205e-05 0)
(0.133626 -3.19471e-05 0)
(0.133675 -1.74259e-05 0)
(0.133696 -2.96654e-06 0)
(0.133687 1.14214e-05 0)
(0.13365 2.57285e-05 0)
(0.133584 3.99459e-05 0)
(0.13349 5.40646e-05 0)
(0.133368 6.8076e-05 0)
(0.133218 8.19718e-05 0)
(0.13304 9.5744e-05 0)
(0.132835 0.000109385 0)
(0.132602 0.000122887 0)
(0.132343 0.000136243 0)
(0.132057 0.000149446 0)
(0.131745 0.00016249 0)
(0.131407 0.000175368 0)
(0.131043 0.000188075 0)
(0.130654 0.000200605 0)
(0.130241 0.000212953 0)
(0.129802 0.000225115 0)
(0.12934 0.000237085 0)
(0.128854 0.00024886 0)
(0.128344 0.000260436 0)
(0.127812 0.00027181 0)
(0.127257 0.000282978 0)
(0.12668 0.000293937 0)
(0.126081 0.000304686 0)
(0.125461 0.000315222 0)
(0.12482 0.000325543 0)
(0.124159 0.000335648 0)
(0.123477 0.000345536 0)
(0.122776 0.000355206 0)
(0.122056 0.000364657 0)
(0.121317 0.000373889 0)
(0.12056 0.000382902 0)
(0.119785 0.000391696 0)
(0.118993 0.000400272 0)
(0.118184 0.00040863 0)
(0.117359 0.000416771 0)
(0.116517 0.000424697 0)
(0.11566 0.000432409 0)
(0.114787 0.000439908 0)
(0.1139 0.000447196 0)
(0.112998 0.000454275 0)
(0.112082 0.000461147 0)
(0.111153 0.000467815 0)
(0.110211 0.000474281 0)
(0.109256 0.000480547 0)
(0.108289 0.000486616 0)
(0.107309 0.000492492 0)
(0.106318 0.000498176 0)
(0.105316 0.000503672 0)
(0.104304 0.000508982 0)
(0.10328 0.000514111 0)
(0.102247 0.000519062 0)
(0.101204 0.000523837 0)
(0.100151 0.00052844 0)
(0.0990899 0.000532875 0)
(0.0980197 0.000537145 0)
(0.0969412 0.000541253 0)
(0.0958546 0.000545204 0)
(0.0947602 0.000549 0)
(0.0936584 0.000552646 0)
(0.0925495 0.000556144 0)
(0.0914337 0.000559499 0)
(0.0903114 0.000562714 0)
(0.0891827 0.000565792 0)
(0.0880481 0.000568738 0)
(0.0869076 0.000571555 0)
(0.0857617 0.000574246 0)
(0.0846105 0.000576815 0)
(0.0834543 0.000579266 0)
(0.0822934 0.000581602 0)
(0.0811278 0.000583826 0)
(0.0799579 0.000585942 0)
(0.0787839 0.000587954 0)
(0.077606 0.000589864 0)
(0.0764244 0.000591676 0)
(0.0752392 0.000593393 0)
(0.0740507 0.000595019 0)
(0.0728591 0.000596556 0)
(0.0716644 0.000598009 0)
(0.070467 0.000599379 0)
(0.0692668 0.000600669 0)
(0.0680642 0.000601884 0)
(0.0668592 0.000603026 0)
(0.065652 0.000604097 0)
(0.0644428 0.000605101 0)
(0.0632316 0.000606039 0)
(0.0620185 0.000606916 0)
(0.0608038 0.000607733 0)
(0.0595876 0.000608494 0)
(0.0583698 0.0006092 0)
(0.0571507 0.000609855 0)
(0.0559303 0.000610459 0)
(0.0547088 0.000611017 0)
(0.0534862 0.00061153 0)
(0.0522627 0.000612001 0)
(0.0510382 0.000612431 0)
(0.0498129 0.000612824 0)
(0.0485869 0.00061318 0)
(0.0473602 0.000613502 0)
(0.0461328 0.000613791 0)
(0.044905 0.000614051 0)
(0.0436766 0.000614282 0)
(0.0424478 0.000614487 0)
(0.0412186 0.000614667 0)
(0.0399891 0.000614824 0)
(0.0387593 0.000614959 0)
(0.0375293 0.000615074 0)
(0.036299 0.000615171 0)
(0.0350686 0.000615251 0)
(0.033838 0.000615316 0)
(0.0326073 0.000615366 0)
(0.0313765 0.000615403 0)
(0.0301457 0.000615429 0)
(0.0289148 0.000615445 0)
(0.0276839 0.000615451 0)
(0.026453 0.000615449 0)
(0.0252221 0.00061544 0)
(0.0239912 0.000615426 0)
(0.0227604 0.000615405 0)
(0.0215296 0.000615381 0)
(0.0202988 0.000615354 0)
(0.0190682 0.000615324 0)
(0.0178375 0.000615292 0)
(0.016607 0.000615259 0)
(0.0153765 0.000615226 0)
(0.0141461 0.000615193 0)
(0.0129157 0.00061516 0)
(0.0116855 0.000615129 0)
(0.0104552 0.0006151 0)
(0.00922506 0.000615073 0)
(0.00799494 0.000615049 0)
(0.00676487 0.000615027 0)
(0.00553483 0.000615009 0)
(0.00430484 0.000614994 0)
(0.00307486 0.000614983 0)
(0.00184491 0.000614975 0)
(0.000614969 0.000614971 0)
(0.000754768 -0.0022643 0)
(0.0022643 -0.00226429 0)
(0.00377383 -0.00226428 0)
(0.00528335 -0.00226426 0)
(0.00679286 -0.00226424 0)
(0.00830235 -0.0022642 0)
(0.00981181 -0.00226415 0)
(0.0113212 -0.00226408 0)
(0.0128306 -0.002264 0)
(0.0143399 -0.00226389 0)
(0.0158492 -0.00226376 0)
(0.0173583 -0.00226359 0)
(0.0188673 -0.00226339 0)
(0.0203762 -0.00226315 0)
(0.0218849 -0.00226285 0)
(0.0233934 -0.0022625 0)
(0.0249017 -0.00226209 0)
(0.0264096 -0.00226161 0)
(0.0279172 -0.00226105 0)
(0.0294245 -0.0022604 0)
(0.0309312 -0.00225965 0)
(0.0324375 -0.0022588 0)
(0.0339431 -0.00225784 0)
(0.0354481 -0.00225675 0)
(0.0369523 -0.00225553 0)
(0.0384556 -0.00225415 0)
(0.039958 -0.00225262 0)
(0.0414593 -0.00225092 0)
(0.0429594 -0.00224904 0)
(0.0444583 -0.00224696 0)
(0.0459556 -0.00224467 0)
(0.0474514 -0.00224216 0)
(0.0489455 -0.00223941 0)
(0.0504376 -0.00223641 0)
(0.0519277 -0.00223315 0)
(0.0534155 -0.00222961 0)
(0.0549009 -0.00222578 0)
(0.0563836 -0.00222163 0)
(0.0578634 -0.00221716 0)
(0.0593402 -0.00221235 0)
(0.0608137 -0.00220719 0)
(0.0622836 -0.00220165 0)
(0.0637497 -0.00219572 0)
(0.0652117 -0.00218939 0)
(0.0666694 -0.00218263 0)
(0.0681224 -0.00217544 0)
(0.0695705 -0.00216779 0)
(0.0710134 -0.00215967 0)
(0.0724507 -0.00215106 0)
(0.0738821 -0.00214195 0)
(0.0753072 -0.00213232 0)
(0.0767258 -0.00212215 0)
(0.0781374 -0.00211143 0)
(0.0795417 -0.00210015 0)
(0.0809383 -0.00208828 0)
(0.0823268 -0.00207581 0)
(0.0837068 -0.00206273 0)
(0.0850779 -0.00204902 0)
(0.0864396 -0.00203467 0)
(0.0877916 -0.00201966 0)
(0.0891333 -0.00200399 0)
(0.0904644 -0.00198764 0)
(0.0917844 -0.0019706 0)
(0.0930927 -0.00195285 0)
(0.094389 -0.0019344 0)
(0.0956728 -0.00191522 0)
(0.0969436 -0.00189532 0)
(0.0982008 -0.00187467 0)
(0.099444 -0.00185329 0)
(0.100673 -0.00183115 0)
(0.101886 -0.00180826 0)
(0.103085 -0.00178461 0)
(0.104267 -0.0017602 0)
(0.105433 -0.00173502 0)
(0.106581 -0.00170908 0)
(0.107712 -0.00168238 0)
(0.108825 -0.00165492 0)
(0.10992 -0.0016267 0)
(0.110995 -0.00159773 0)
(0.112051 -0.001568 0)
(0.113087 -0.00153754 0)
(0.114102 -0.00150634 0)
(0.115096 -0.00147441 0)
(0.116069 -0.00144177 0)
(0.117019 -0.00140843 0)
(0.117947 -0.0013744 0)
(0.118853 -0.00133969 0)
(0.119734 -0.00130432 0)
(0.120593 -0.00126831 0)
(0.121426 -0.00123167 0)
(0.122235 -0.00119442 0)
(0.12302 -0.00115659 0)
(0.123778 -0.00111819 0)
(0.124511 -0.00107924 0)
(0.125218 -0.00103977 0)
(0.125898 -0.000999811 0)
(0.126552 -0.000959376 0)
(0.127178 -0.000918495 0)
(0.127777 -0.000877195 0)
(0.128348 -0.000835503 0)
(0.128891 -0.000793448 0)
(0.129406 -0.000751058 0)
(0.129893 -0.000708362 0)
(0.130351 -0.000665392 0)
(0.13078 -0.000622176 0)
(0.131181 -0.000578745 0)
(0.131552 -0.000535131 0)
(0.131895 -0.000491365 0)
(0.132208 -0.000447478 0)
(0.132491 -0.000403502 0)
(0.132746 -0.000359468 0)
(0.132971 -0.000315407 0)
(0.133166 -0.00027135 0)
(0.133332 -0.00022733 0)
(0.133469 -0.000183375 0)
(0.133577 -0.000139518 0)
(0.133655 -9.57882e-05 0)
(0.133704 -5.2215e-05 0)
(0.133725 -8.82759e-06 0)
(0.133716 3.43453e-05 0)
(0.133678 7.72759e-05 0)
(0.133612 0.000119937 0)
(0.133518 0.000162301 0)
(0.133396 0.000204344 0)
(0.133245 0.000246039 0)
(0.133067 0.000287364 0)
(0.132862 0.000328293 0)
(0.132629 0.000368806 0)
(0.132369 0.000408881 0)
(0.132083 0.000448497 0)
(0.131771 0.000487634 0)
(0.131432 0.000526275 0)
(0.131068 0.000564401 0)
(0.130679 0.000601997 0)
(0.130265 0.000639047 0)
(0.129827 0.000675535 0)
(0.129364 0.000711451 0)
(0.128877 0.000746779 0)
(0.128367 0.000781511 0)
(0.127834 0.000815634 0)
(0.127279 0.00084914 0)
(0.126701 0.000882021 0)
(0.126102 0.00091427 0)
(0.125482 0.000945879 0)
(0.12484 0.000976845 0)
(0.124178 0.00100716 0)
(0.123497 0.00103683 0)
(0.122795 0.00106584 0)
(0.122075 0.00109419 0)
(0.121335 0.00112189 0)
(0.120578 0.00114892 0)
(0.119803 0.00117531 0)
(0.11901 0.00120103 0)
(0.118201 0.00122611 0)
(0.117375 0.00125053 0)
(0.116532 0.0012743 0)
(0.115675 0.00129744 0)
(0.114802 0.00131993 0)
(0.113914 0.00134179 0)
(0.113012 0.00136303 0)
(0.112096 0.00138364 0)
(0.111166 0.00140365 0)
(0.110224 0.00142304 0)
(0.109268 0.00144184 0)
(0.1083 0.00146004 0)
(0.107321 0.00147766 0)
(0.10633 0.00149471 0)
(0.105327 0.0015112 0)
(0.104314 0.00152713 0)
(0.10329 0.00154251 0)
(0.102257 0.00155736 0)
(0.101213 0.00157168 0)
(0.10016 0.00158549 0)
(0.0990986 0.00159879 0)
(0.098028 0.00161159 0)
(0.0969492 0.00162392 0)
(0.0958622 0.00163576 0)
(0.0947676 0.00164715 0)
(0.0936655 0.00165808 0)
(0.0925563 0.00166857 0)
(0.0914402 0.00167863 0)
(0.0903176 0.00168827 0)
(0.0891887 0.00169751 0)
(0.0880538 0.00170634 0)
(0.0869131 0.00171479 0)
(0.0857669 0.00172286 0)
(0.0846155 0.00173056 0)
(0.0834591 0.00173791 0)
(0.0822979 0.00174492 0)
(0.0811321 0.00175158 0)
(0.079962 0.00175793 0)
(0.0787878 0.00176396 0)
(0.0776097 0.00176969 0)
(0.0764279 0.00177512 0)
(0.0752425 0.00178027 0)
(0.0740538 0.00178514 0)
(0.072862 0.00178975 0)
(0.0716672 0.00179411 0)
(0.0704696 0.00179821 0)
(0.0692693 0.00180208 0)
(0.0680665 0.00180572 0)
(0.0668614 0.00180915 0)
(0.0656541 0.00181236 0)
(0.0644447 0.00181536 0)
(0.0632333 0.00181818 0)
(0.0620202 0.00182081 0)
(0.0608054 0.00182326 0)
(0.059589 0.00182553 0)
(0.0583711 0.00182765 0)
(0.0571519 0.00182961 0)
(0.0559315 0.00183142 0)
(0.0547099 0.00183309 0)
(0.0534872 0.00183463 0)
(0.0522635 0.00183604 0)
(0.051039 0.00183733 0)
(0.0498136 0.0018385 0)
(0.0485875 0.00183957 0)
(0.0473607 0.00184054 0)
(0.0461334 0.0018414 0)
(0.0449054 0.00184218 0)
(0.043677 0.00184287 0)
(0.0424482 0.00184348 0)
(0.0412189 0.00184402 0)
(0.0399894 0.00184449 0)
(0.0387595 0.0018449 0)
(0.0375295 0.00184524 0)
(0.0362992 0.00184553 0)
(0.0350687 0.00184577 0)
(0.0338381 0.00184596 0)
(0.0326074 0.00184611 0)
(0.0313766 0.00184622 0)
(0.0301457 0.0018463 0)
(0.0289148 0.00184634 0)
(0.0276839 0.00184636 0)
(0.0264529 0.00184635 0)
(0.025222 0.00184633 0)
(0.0239912 0.00184628 0)
(0.0227603 0.00184622 0)
(0.0215295 0.00184615 0)
(0.0202988 0.00184606 0)
(0.0190681 0.00184597 0)
(0.0178375 0.00184588 0)
(0.0166069 0.00184578 0)
(0.0153764 0.00184568 0)
(0.014146 0.00184558 0)
(0.0129157 0.00184548 0)
(0.0116854 0.00184539 0)
(0.0104552 0.0018453 0)
(0.009225 0.00184522 0)
(0.00799489 0.00184514 0)
(0.00676482 0.00184508 0)
(0.0055348 0.00184502 0)
(0.00430481 0.00184498 0)
(0.00307484 0.00184494 0)
(0.0018449 0.00184492 0)
(0.000614965 0.00184491 0)
(0.000754772 -0.00377384 0)
(0.00226431 -0.00377383 0)
(0.00377385 -0.00377381 0)
(0.00528338 -0.00377378 0)
(0.0067929 -0.00377374 0)
(0.0083024 -0.00377368 0)
(0.00981188 -0.0037736 0)
(0.0113213 -0.0037735 0)
(0.0128307 -0.00377336 0)
(0.0143401 -0.00377319 0)
(0.0158494 -0.00377297 0)
(0.0173586 -0.0037727 0)
(0.0188676 -0.00377237 0)
(0.0203766 -0.00377197 0)
(0.0218854 -0.00377148 0)
(0.0233939 -0.00377091 0)
(0.0249023 -0.00377023 0)
(0.0264103 -0.00376943 0)
(0.027918 -0.00376851 0)
(0.0294254 -0.00376743 0)
(0.0309323 -0.00376621 0)
(0.0324387 -0.0037648 0)
(0.0339445 -0.00376321 0)
(0.0354496 -0.0037614 0)
(0.036954 -0.00375937 0)
(0.0384575 -0.0037571 0)
(0.0399602 -0.00375456 0)
(0.0414617 -0.00375174 0)
(0.0429621 -0.00374861 0)
(0.0444612 -0.00374516 0)
(0.0459588 -0.00374136 0)
(0.0474549 -0.00373719 0)
(0.0489493 -0.00373263 0)
(0.0504418 -0.00372765 0)
(0.0519322 -0.00372223 0)
(0.0534204 -0.00371634 0)
(0.0549062 -0.00370997 0)
(0.0563893 -0.00370308 0)
(0.0578696 -0.00369565 0)
(0.0593469 -0.00368765 0)
(0.0608208 -0.00367906 0)
(0.0622912 -0.00366984 0)
(0.0637578 -0.00365998 0)
(0.0652204 -0.00364945 0)
(0.0666787 -0.0036382 0)
(0.0681323 -0.00362623 0)
(0.069581 -0.00361351 0)
(0.0710245 -0.00359999 0)
(0.0724625 -0.00358567 0)
(0.0738946 -0.0035705 0)
(0.0753204 -0.00355446 0)
(0.0767397 -0.00353754 0)
(0.0781521 -0.00351969 0)
(0.0795572 -0.00350089 0)
(0.0809546 -0.00348112 0)
(0.0823439 -0.00346036 0)
(0.0837247 -0.00343857 0)
(0.0850966 -0.00341574 0)
(0.0864592 -0.00339184 0)
(0.0878121 -0.00336684 0)
(0.0891547 -0.00334074 0)
(0.0904867 -0.0033135 0)
(0.0918076 -0.00328511 0)
(0.0931169 -0.00325555 0)
(0.0944141 -0.0032248 0)
(0.0956989 -0.00319285 0)
(0.0969706 -0.00315968 0)
(0.0982288 -0.00312528 0)
(0.0994731 -0.00308964 0)
(0.100703 -0.00305275 0)
(0.101918 -0.0030146 0)
(0.103117 -0.00297519 0)
(0.1043 -0.00293451 0)
(0.105467 -0.00289255 0)
(0.106616 -0.00284932 0)
(0.107748 -0.00280482 0)
(0.108862 -0.00275904 0)
(0.109958 -0.002712 0)
(0.111034 -0.00266371 0)
(0.112091 -0.00261416 0)
(0.113128 -0.00256338 0)
(0.114144 -0.00251137 0)
(0.115139 -0.00245815 0)
(0.116113 -0.00240374 0)
(0.117064 -0.00234815 0)
(0.117993 -0.00229142 0)
(0.118899 -0.00223355 0)
(0.119782 -0.00217459 0)
(0.120641 -0.00211454 0)
(0.121476 -0.00205346 0)
(0.122286 -0.00199136 0)
(0.12307 -0.00192827 0)
(0.12383 -0.00186425 0)
(0.124564 -0.00179931 0)
(0.125271 -0.00173351 0)
(0.125952 -0.00166688 0)
(0.126606 -0.00159946 0)
(0.127233 -0.00153129 0)
(0.127832 -0.00146243 0)
(0.128404 -0.00139291 0)
(0.128948 -0.00132278 0)
(0.129463 -0.0012521 0)
(0.12995 -0.00118091 0)
(0.130409 -0.00110926 0)
(0.130838 -0.0010372 0)
(0.131239 -0.000964779 0)
(0.131611 -0.000892055 0)
(0.131953 -0.000819076 0)
(0.132266 -0.000745897 0)
(0.13255 -0.000672568 0)
(0.132805 -0.000599142 0)
(0.13303 -0.000525672 0)
(0.133225 -0.00045221 0)
(0.133391 -0.000378808 0)
(0.133528 -0.000305518 0)
(0.133635 -0.000232389 0)
(0.133713 -0.000159473 0)
(0.133762 -8.68183e-05 0)
(0.133782 -1.44742e-05 0)
(0.133773 5.75117e-05 0)
(0.133736 0.000129093 0)
(0.133669 0.000200224 0)
(0.133575 0.00027086 0)
(0.133452 0.000340959 0)
(0.133301 0.000410478 0)
(0.133122 0.000479378 0)
(0.132916 0.000547619 0)
(0.132683 0.000615164 0)
(0.132423 0.000681978 0)
(0.132136 0.000748026 0)
(0.131823 0.000813275 0)
(0.131484 0.000877696 0)
(0.131119 0.000941258 0)
(0.130729 0.00100394 0)
(0.130314 0.0010657 0)
(0.129875 0.00112653 0)
(0.129411 0.0011864 0)
(0.128924 0.0012453 0)
(0.128413 0.00130319 0)
(0.12788 0.00136008 0)
(0.127323 0.00141593 0)
(0.126745 0.00147074 0)
(0.126145 0.00152449 0)
(0.125523 0.00157718 0)
(0.124881 0.0016288 0)
(0.124218 0.00167933 0)
(0.123536 0.00172877 0)
(0.122833 0.00177712 0)
(0.122112 0.00182438 0)
(0.121372 0.00187054 0)
(0.120614 0.0019156 0)
(0.119838 0.00195957 0)
(0.119044 0.00200245 0)
(0.118234 0.00204423 0)
(0.117407 0.00208493 0)
(0.116564 0.00212455 0)
(0.115705 0.0021631 0)
(0.114831 0.00220059 0)
(0.113943 0.00223702 0)
(0.11304 0.00227241 0)
(0.112123 0.00230676 0)
(0.111193 0.00234008 0)
(0.110249 0.0023724 0)
(0.109293 0.00240372 0)
(0.108324 0.00243405 0)
(0.107344 0.00246341 0)
(0.106352 0.00249182 0)
(0.105349 0.00251928 0)
(0.104335 0.00254582 0)
(0.10331 0.00257145 0)
(0.102276 0.00259618 0)
(0.101232 0.00262004 0)
(0.100178 0.00264304 0)
(0.099116 0.0026652 0)
(0.0980448 0.00268653 0)
(0.0969653 0.00270705 0)
(0.0958778 0.00272679 0)
(0.0947825 0.00274575 0)
(0.0936798 0.00276396 0)
(0.09257 0.00278143 0)
(0.0914534 0.00279819 0)
(0.0903302 0.00281425 0)
(0.0892007 0.00282962 0)
(0.0880653 0.00284433 0)
(0.0869241 0.0028584 0)
(0.0857774 0.00287184 0)
(0.0846255 0.00288467 0)
(0.0834687 0.0028969 0)
(0.082307 0.00290856 0)
(0.0811408 0.00291967 0)
(0.0799703 0.00293023 0)
(0.0787957 0.00294027 0)
(0.0776172 0.00294981 0)
(0.0764349 0.00295885 0)
(0.0752492 0.00296742 0)
(0.0740602 0.00297553 0)
(0.072868 0.0029832 0)
(0.0716729 0.00299045 0)
(0.0704749 0.00299728 0)
(0.0692743 0.00300372 0)
(0.0680712 0.00300978 0)
(0.0668658 0.00301548 0)
(0.0656582 0.00302082 0)
(0.0644486 0.00302582 0)
(0.063237 0.0030305 0)
(0.0620236 0.00303487 0)
(0.0608085 0.00303895 0)
(0.0595919 0.00304274 0)
(0.0583739 0.00304626 0)
(0.0571545 0.00304952 0)
(0.0559338 0.00305253 0)
(0.054712 0.00305531 0)
(0.0534892 0.00305786 0)
(0.0522653 0.0030602 0)
(0.0510406 0.00306234 0)
(0.0498151 0.00306429 0)
(0.0485889 0.00306606 0)
(0.047362 0.00306767 0)
(0.0461345 0.0030691 0)
(0.0449064 0.00307039 0)
(0.0436779 0.00307154 0)
(0.0424489 0.00307256 0)
(0.0412196 0.00307345 0)
(0.03999 0.00307422 0)
(0.03876 0.00307489 0)
(0.0375299 0.00307546 0)
(0.0362995 0.00307594 0)
(0.035069 0.00307633 0)
(0.0338383 0.00307665 0)
(0.0326075 0.00307689 0)
(0.0313767 0.00307707 0)
(0.0301458 0.0030772 0)
(0.0289148 0.00307727 0)
(0.0276839 0.00307729 0)
(0.0264529 0.00307728 0)
(0.025222 0.00307723 0)
(0.0239911 0.00307715 0)
(0.0227602 0.00307705 0)
(0.0215294 0.00307692 0)
(0.0202987 0.00307678 0)
(0.019068 0.00307662 0)
(0.0178373 0.00307646 0)
(0.0166068 0.00307629 0)
(0.0153763 0.00307612 0)
(0.0141459 0.00307596 0)
(0.0129155 0.00307579 0)
(0.0116853 0.00307564 0)
(0.0104551 0.00307549 0)
(0.0092249 0.00307535 0)
(0.0079948 0.00307523 0)
(0.00676474 0.00307512 0)
(0.00553473 0.00307502 0)
(0.00430476 0.00307495 0)
(0.00307481 0.00307489 0)
(0.00184488 0.00307485 0)
(0.000614957 0.00307484 0)
(0.000754777 -0.00528338 0)
(0.00226433 -0.00528337 0)
(0.00377388 -0.00528335 0)
(0.00528342 -0.00528331 0)
(0.00679296 -0.00528326 0)
(0.00830249 -0.00528318 0)
(0.00981199 -0.00528308 0)
(0.0113215 -0.00528294 0)
(0.0128309 -0.00528276 0)
(0.0143403 -0.00528252 0)
(0.0158497 -0.00528223 0)
(0.0173589 -0.00528186 0)
(0.0188681 -0.00528141 0)
(0.0203771 -0.00528087 0)
(0.021886 -0.0052802 0)
(0.0233947 -0.00527942 0)
(0.0249031 -0.00527848 0)
(0.0264114 -0.00527739 0)
(0.0279192 -0.00527611 0)
(0.0294268 -0.00527463 0)
(0.0309339 -0.00527293 0)
(0.0324405 -0.00527099 0)
(0.0339465 -0.00526878 0)
(0.0354519 -0.00526628 0)
(0.0369566 -0.00526346 0)
(0.0384604 -0.00526031 0)
(0.0399634 -0.00525678 0)
(0.0414653 -0.00525286 0)
(0.042966 -0.00524851 0)
(0.0444655 -0.00524371 0)
(0.0459636 -0.00523842 0)
(0.0474602 -0.00523261 0)
(0.048955 -0.00522626 0)
(0.050448 -0.00521932 0)
(0.051939 -0.00521177 0)
(0.0534278 -0.00520357 0)
(0.0549141 -0.00519468 0)
(0.0563979 -0.00518507 0)
(0.0578789 -0.00517471 0)
(0.0593568 -0.00516354 0)
(0.0608315 -0.00515155 0)
(0.0623027 -0.00513869 0)
(0.0637701 -0.00512492 0)
(0.0652335 -0.00511021 0)
(0.0666926 -0.00509451 0)
(0.0681471 -0.00507779 0)
(0.0695968 -0.00506001 0)
(0.0710412 -0.00504113 0)
(0.0724802 -0.00502111 0)
(0.0739133 -0.00499991 0)
(0.0753402 -0.0049775 0)
(0.0767606 -0.00495384 0)
(0.0781741 -0.00492889 0)
(0.0795803 -0.00490261 0)
(0.0809789 -0.00487497 0)
(0.0823694 -0.00484593 0)
(0.0837515 -0.00481546 0)
(0.0851247 -0.00478353 0)
(0.0864886 -0.0047501 0)
(0.0878427 -0.00471514 0)
(0.0891867 -0.00467862 0)
(0.0905201 -0.00464051 0)
(0.0918424 -0.00460079 0)
(0.0931531 -0.00455943 0)
(0.0944518 -0.0045164 0)
(0.095738 -0.00447169 0)
(0.0970112 -0.00442527 0)
(0.0982709 -0.00437713 0)
(0.0995166 -0.00432725 0)
(0.100748 -0.00427562 0)
(0.101964 -0.00422222 0)
(0.103165 -0.00416705 0)
(0.10435 -0.00411009 0)
(0.105518 -0.00405135 0)
(0.106669 -0.00399083 0)
(0.107803 -0.00392852 0)
(0.108918 -0.00386443 0)
(0.110015 -0.00379857 0)
(0.111093 -0.00373094 0)
(0.112151 -0.00366156 0)
(0.11319 -0.00359044 0)
(0.114207 -0.00351761 0)
(0.115204 -0.00344308 0)
(0.116179 -0.00336688 0)
(0.117132 -0.00328903 0)
(0.118062 -0.00320956 0)
(0.11897 -0.00312852 0)
(0.119854 -0.00304592 0)
(0.120714 -0.00296182 0)
(0.12155 -0.00287626 0)
(0.122361 -0.00278927 0)
(0.123147 -0.00270091 0)
(0.123907 -0.00261122 0)
(0.124642 -0.00252026 0)
(0.125351 -0.00242807 0)
(0.126032 -0.00233473 0)
(0.126687 -0.00224028 0)
(0.127315 -0.00214479 0)
(0.127915 -0.00204831 0)
(0.128488 -0.00195092 0)
(0.129032 -0.00185268 0)
(0.129548 -0.00175366 0)
(0.130036 -0.00165392 0)
(0.130495 -0.00155353 0)
(0.130925 -0.00145258 0)
(0.131326 -0.00135112 0)
(0.131698 -0.00124923 0)
(0.132041 -0.00114699 0)
(0.132354 -0.00104446 0)
(0.132638 -0.00094173 0)
(0.132893 -0.000838861 0)
(0.133118 -0.00073593 0)
(0.133313 -0.000633011 0)
(0.133479 -0.000530176 0)
(0.133616 -0.000427498 0)
(0.133723 -0.000325048 0)
(0.133801 -0.000222896 0)
(0.13385 -0.000121111 0)
(0.133869 -1.97629e-05 0)
(0.13386 8.10827e-05 0)
(0.133821 0.00018136 0)
(0.133754 0.000281005 0)
(0.133659 0.000379956 0)
(0.133535 0.000478153 0)
(0.133384 0.000575536 0)
(0.133205 0.00067205 0)
(0.132998 0.00076764 0)
(0.132763 0.000862253 0)
(0.132502 0.00095584 0)
(0.132215 0.00104835 0)
(0.131901 0.00113975 0)
(0.131561 0.00122998 0)
(0.131195 0.001319 0)
(0.130804 0.00140678 0)
(0.130388 0.00149329 0)
(0.129947 0.00157848 0)
(0.129483 0.00166233 0)
(0.128994 0.00174481 0)
(0.128482 0.00182589 0)
(0.127947 0.00190555 0)
(0.12739 0.00198376 0)
(0.12681 0.00206051 0)
(0.126209 0.00213578 0)
(0.125586 0.00220956 0)
(0.124943 0.00228183 0)
(0.124279 0.00235258 0)
(0.123595 0.00242181 0)
(0.122891 0.0024895 0)
(0.122168 0.00255567 0)
(0.121427 0.00262029 0)
(0.120667 0.00268338 0)
(0.11989 0.00274493 0)
(0.119095 0.00280495 0)
(0.118283 0.00286344 0)
(0.117455 0.00292042 0)
(0.116611 0.00297588 0)
(0.115751 0.00302984 0)
(0.114876 0.0030823 0)
(0.113986 0.00313329 0)
(0.113082 0.00318282 0)
(0.112164 0.00323089 0)
(0.111232 0.00327753 0)
(0.110287 0.00332276 0)
(0.10933 0.00336658 0)
(0.10836 0.00340903 0)
(0.107379 0.00345011 0)
(0.106385 0.00348986 0)
(0.105381 0.00352829 0)
(0.104366 0.00356542 0)
(0.103341 0.00360128 0)
(0.102305 0.00363588 0)
(0.10126 0.00366926 0)
(0.100206 0.00370144 0)
(0.0991421 0.00373243 0)
(0.09807 0.00376227 0)
(0.0969895 0.00379098 0)
(0.095901 0.00381858 0)
(0.0948048 0.00384511 0)
(0.0937013 0.00387057 0)
(0.0925906 0.00389501 0)
(0.0914731 0.00391844 0)
(0.0903491 0.0039409 0)
(0.0892188 0.0039624 0)
(0.0880826 0.00398297 0)
(0.0869406 0.00400264 0)
(0.0857932 0.00402143 0)
(0.0846406 0.00403936 0)
(0.083483 0.00405647 0)
(0.0823207 0.00407277 0)
(0.0811538 0.00408829 0)
(0.0799827 0.00410306 0)
(0.0788074 0.00411709 0)
(0.0776283 0.00413041 0)
(0.0764455 0.00414305 0)
(0.0752593 0.00415503 0)
(0.0740697 0.00416636 0)
(0.072877 0.00417708 0)
(0.0716813 0.0041872 0)
(0.0704829 0.00419675 0)
(0.0692818 0.00420575 0)
(0.0680783 0.00421421 0)
(0.0668725 0.00422216 0)
(0.0656645 0.00422962 0)
(0.0644544 0.00423661 0)
(0.0632424 0.00424314 0)
(0.0620287 0.00424924 0)
(0.0608133 0.00425492 0)
(0.0595963 0.00426021 0)
(0.058378 0.00426512 0)
(0.0571582 0.00426967 0)
(0.0559373 0.00427387 0)
(0.0547152 0.00427774 0)
(0.0534921 0.0042813 0)
(0.0522681 0.00428457 0)
(0.0510431 0.00428755 0)
(0.0498174 0.00429027 0)
(0.0485909 0.00429273 0)
(0.0473638 0.00429496 0)
(0.0461361 0.00429696 0)
(0.0449079 0.00429875 0)
(0.0436792 0.00430034 0)
(0.0424501 0.00430175 0)
(0.0412206 0.00430299 0)
(0.0399909 0.00430406 0)
(0.0387608 0.00430499 0)
(0.0375305 0.00430577 0)
(0.0363 0.00430643 0)
(0.0350694 0.00430697 0)
(0.0338387 0.0043074 0)
(0.0326078 0.00430774 0)
(0.0313769 0.00430798 0)
(0.0301459 0.00430815 0)
(0.0289149 0.00430824 0)
(0.0276839 0.00430827 0)
(0.0264529 0.00430824 0)
(0.0252219 0.00430816 0)
(0.023991 0.00430805 0)
(0.0227601 0.00430789 0)
(0.0215293 0.00430771 0)
(0.0202985 0.00430751 0)
(0.0190678 0.00430729 0)
(0.0178372 0.00430705 0)
(0.0166066 0.00430681 0)
(0.0153761 0.00430657 0)
(0.0141457 0.00430633 0)
(0.0129154 0.0043061 0)
(0.0116851 0.00430588 0)
(0.0104549 0.00430567 0)
(0.00922474 0.00430547 0)
(0.00799466 0.0043053 0)
(0.00676462 0.00430514 0)
(0.00553463 0.00430501 0)
(0.00430468 0.0043049 0)
(0.00307475 0.00430482 0)
(0.00184484 0.00430477 0)
(0.000614946 0.00430474 0)
(0.000754783 -0.00679294 0)
(0.00226435 -0.00679293 0)
(0.00377391 -0.00679291 0)
(0.00528347 -0.00679286 0)
(0.00679303 -0.0067928 0)
(0.00830259 -0.00679271 0)
(0.00981213 -0.00679259 0)
(0.0113217 -0.00679242 0)
(0.0128312 -0.00679221 0)
(0.0143406 -0.00679192 0)
(0.01585 -0.00679156 0)
(0.0173594 -0.00679112 0)
(0.0188686 -0.00679056 0)
(0.0203778 -0.00678988 0)
(0.0218868 -0.00678906 0)
(0.0233957 -0.00678807 0)
(0.0249043 -0.0067869 0)
(0.0264127 -0.00678552 0)
(0.0279208 -0.00678392 0)
(0.0294286 -0.00678205 0)
(0.0309359 -0.0067799 0)
(0.0324428 -0.00677745 0)
(0.0339492 -0.00677465 0)
(0.0354549 -0.00677147 0)
(0.03696 -0.0067679 0)
(0.0384642 -0.00676388 0)
(0.0399676 -0.0067594 0)
(0.04147 -0.00675441 0)
(0.0429712 -0.00674887 0)
(0.0444713 -0.00674274 0)
(0.0459699 -0.006736 0)
(0.0474671 -0.00672859 0)
(0.0489626 -0.00672048 0)
(0.0504563 -0.00671162 0)
(0.051948 -0.00670197 0)
(0.0534375 -0.00669148 0)
(0.0549247 -0.00668011 0)
(0.0564093 -0.00666782 0)
(0.0578911 -0.00665456 0)
(0.05937 -0.00664027 0)
(0.0608457 -0.00662492 0)
(0.0623179 -0.00660844 0)
(0.0637863 -0.00659081 0)
(0.0652508 -0.00657195 0)
(0.0667111 -0.00655184 0)
(0.0681668 -0.00653041 0)
(0.0696177 -0.00650761 0)
(0.0710634 -0.0064834 0)
(0.0725037 -0.00645773 0)
(0.0739382 -0.00643054 0)
(0.0753665 -0.00640179 0)
(0.0767884 -0.00637144 0)
(0.0782034 -0.00633942 0)
(0.0796112 -0.00630569 0)
(0.0810113 -0.00627022 0)
(0.0824034 -0.00623294 0)
(0.0837872 -0.00619382 0)
(0.085162 -0.00615282 0)
(0.0865277 -0.00610989 0)
(0.0878836 -0.00606499 0)
(0.0892294 -0.00601809 0)
(0.0905646 -0.00596914 0)
(0.0918887 -0.00591811 0)
(0.0932013 -0.00586497 0)
(0.094502 -0.00580969 0)
(0.0957901 -0.00575224 0)
(0.0970653 -0.00569259 0)
(0.098327 -0.00563072 0)
(0.0995747 -0.00556661 0)
(0.100808 -0.00550025 0)
(0.102026 -0.00543161 0)
(0.103229 -0.00536068 0)
(0.104416 -0.00528746 0)
(0.105586 -0.00521194 0)
(0.106739 -0.00513413 0)
(0.107875 -0.00505401 0)
(0.108993 -0.00497159 0)
(0.110092 -0.0048869 0)
(0.111171 -0.00479992 0)
(0.112232 -0.0047107 0)
(0.113272 -0.00461923 0)
(0.114292 -0.00452555 0)
(0.11529 -0.00442968 0)
(0.116267 -0.00433166 0)
(0.117222 -0.00423152 0)
(0.118154 -0.00412929 0)
(0.119063 -0.00402503 0)
(0.119949 -0.00391877 0)
(0.120811 -0.00381057 0)
(0.121648 -0.00370048 0)
(0.122461 -0.00358856 0)
(0.123249 -0.00347487 0)
(0.124011 -0.00335946 0)
(0.124747 -0.00324242 0)
(0.125457 -0.0031238 0)
(0.12614 -0.00300369 0)
(0.126796 -0.00288215 0)
(0.127425 -0.00275926 0)
(0.128026 -0.00263511 0)
(0.1286 -0.00250979 0)
(0.129145 -0.00238336 0)
(0.129662 -0.00225592 0)
(0.130151 -0.00212757 0)
(0.13061 -0.00199838 0)
(0.131041 -0.00186846 0)
(0.131443 -0.00173789 0)
(0.131815 -0.00160677 0)
(0.132158 -0.00147519 0)
(0.132472 -0.00134324 0)
(0.132756 -0.00121103 0)
(0.133011 -0.00107864 0)
(0.133236 -0.000946177 0)
(0.133431 -0.000813728 0)
(0.133597 -0.000681388 0)
(0.133733 -0.000549251 0)
(0.13384 -0.000417408 0)
(0.133918 -0.000285951 0)
(0.133966 -0.000154969 0)
(0.133985 -2.45489e-05 0)
(0.133975 0.000105222 0)
(0.133936 0.000234259 0)
(0.133868 0.000362481 0)
(0.133772 0.000489807 0)
(0.133647 0.00061616 0)
(0.133495 0.000741464 0)
(0.133314 0.000865647 0)
(0.133106 0.000988638 0)
(0.132871 0.00111037 0)
(0.132609 0.00123078 0)