/*--------------------------------*- C++ -*----------------------------------*\
| =========                 |                                                 |
| \\      /  F ield         | OpenFOAM: The Open Source CFD Toolbox           |
|  \\    /   O peration     | Version:  v2012                                 |
|   \\  /    A nd           | Website:  www.openfoam.com                      |
|    \\/     M anipulation  |                                                 |
\*---------------------------------------------------------------------------*/
FoamFile
{
    version     2.0;
    format      ascii;
    class       surfaceScalarField;
    location    "2.3";
    object      phi;
}
// * * * * * * * * * * * * * * * * * * * * * * * * * * * * * * * * * * * * * //

dimensions      [0 3 -1 0 0 0 0];
oriented        oriented;


internalField   nonuniform List<scalar> 
130560
(
3.4669e-06
-3.4669e-06
6.93358e-06
-3.46668e-06
1.03998e-05
-3.46624e-06
1.38654e-05
-3.46559e-06
1.73301e-05
-3.46471e-06
2.07937e-05
-3.46361e-06
2.4256e-05
-3.46229e-06
2.77168e-05
-3.46073e-06
3.11757e-05
-3.45895e-06
3.46326e-05
-3.45692e-06
3.80873e-05
-3.45466e-06
4.15394e-05
-3.45215e-06
4.49888e-05
-3.44939e-06
4.84352e-05
-3.44637e-06
5.18783e-05
-3.44309e-06
5.53178e-05
-3.43954e-06
5.87535e-05
-3.43571e-06
6.21851e-05
-3.4316e-06
6.56123e-05
-3.42719e-06
6.90348e-05
-3.42249e-06
7.24523e-05
-3.41747e-06
7.58644e-05
-3.41213e-06
7.92709e-05
-3.40646e-06
8.26713e-05
-3.40045e-06
8.60654e-05
-3.3941e-06
8.94528e-05
-3.38738e-06
9.28331e-05
-3.38029e-06
9.62059e-05
-3.37282e-06
9.95709e-05
-3.36496e-06
0.000102928
-3.35669e-06
0.000106276
-3.348e-06
0.000109614
-3.33889e-06
0.000112944
-3.32933e-06
0.000116263
-3.31932e-06
0.000119572
-3.30885e-06
0.00012287
-3.29789e-06
0.000126156
-3.28644e-06
0.000129431
-3.27449e-06
0.000132693
-3.26202e-06
0.000135942
-3.24903e-06
0.000139177
-3.23548e-06
0.000142399
-3.22139e-06
0.000145605
-3.20673e-06
0.000148797
-3.19148e-06
0.000151973
-3.17565e-06
0.000155132
-3.15921e-06
0.000158274
-3.14216e-06
0.000161398
-3.12448e-06
0.000164505
-3.10616e-06
0.000167592
-3.08719e-06
0.000170659
-3.06756e-06
0.000173707
-3.04726e-06
0.000176733
-3.02628e-06
0.000179737
-3.00462e-06
0.00018272
-2.98225e-06
0.000185679
-2.95918e-06
0.000188614
-2.9354e-06
0.000191525
-2.9109e-06
0.000194411
-2.88567e-06
0.000197271
-2.8597e-06
0.000200104
-2.833e-06
0.000202909
-2.80556e-06
0.000205687
-2.77737e-06
0.000208435
-2.74843e-06
0.000211154
-2.71874e-06
0.000213842
-2.68829e-06
0.000216499
-2.6571e-06
0.000219124
-2.62514e-06
0.000221717
-2.59244e-06
0.000224276
-2.55899e-06
0.0002268
-2.52478e-06
0.00022929
-2.48984e-06
0.000231744
-2.45415e-06
0.000234162
-2.41773e-06
0.000236543
-2.38058e-06
0.000238885
-2.34271e-06
0.00024119
-2.30412e-06
0.000243454
-2.26483e-06
0.000245679
-2.22485e-06
0.000247863
-2.18418e-06
0.000250006
-2.14284e-06
0.000252107
-2.10084e-06
0.000254165
-2.05819e-06
0.00025618
-2.0149e-06
0.000258151
-1.971e-06
0.000260078
-1.92649e-06
0.000261959
-1.8814e-06
0.000263795
-1.83573e-06
0.000265584
-1.78952e-06
0.000267327
-1.74276e-06
0.000269023
-1.69549e-06
0.00027067
-1.64773e-06
0.00027227
-1.59948e-06
0.000273821
-1.55078e-06
0.000275322
-1.50164e-06
0.000276774
-1.45209e-06
0.000278176
-1.40214e-06
0.000279528
-1.35183e-06
0.000280829
-1.30116e-06
0.00028208
-1.25016e-06
0.000283278
-1.19886e-06
0.000284426
-1.14728e-06
0.000285521
-1.09543e-06
0.000286565
-1.04335e-06
0.000287556
-9.91062e-07
0.000288494
-9.38578e-07
0.00028938
-8.85926e-07
0.000290213
-8.33129e-07
0.000290993
-7.80209e-07
0.000291721
-7.27189e-07
0.000292395
-6.74091e-07
0.000293016
-6.20936e-07
0.000293583
-5.67747e-07
0.000294098
-5.14545e-07
0.000294559
-4.61351e-07
0.000294967
-4.08186e-07
0.000295323
-3.55069e-07
0.000295625
-3.02021e-07
0.000295874
-2.49061e-07
0.00029607
-1.96209e-07
0.000296213
-1.43482e-07
0.000296304
-9.08991e-08
0.000296343
-3.84776e-08
0.000296329
1.37655e-08
0.000296263
6.58135e-08
0.000296145
1.1765e-07
0.000295976
1.69261e-07
0.000295756
2.20629e-07
0.000295484
2.71741e-07
0.000295161
3.22584e-07
0.000294788
3.73142e-07
0.000294365
4.23404e-07
0.000293891
4.73356e-07
0.000293368
5.22987e-07
0.000292796
5.72286e-07
0.000292175
6.21241e-07
0.000291505
6.69841e-07
0.000290787
7.18077e-07
0.000290021
7.65939e-07
0.000289208
8.13417e-07
0.000288347
8.60503e-07
0.00028744
9.07187e-07
0.000286486
9.53463e-07
0.000285487
9.99322e-07
0.000284442
1.04476e-06
0.000283353
1.08976e-06
0.000282218
1.13433e-06
0.00028104
1.17845e-06
0.000279818
1.22212e-06
0.000278552
1.26533e-06
0.000277244
1.30808e-06
0.000275894
1.35037e-06
0.000274502
1.39218e-06
0.000273068
1.43351e-06
0.000271594
1.47436e-06
0.000270079
1.51473e-06
0.000268524
1.5546e-06
0.000266931
1.59398e-06
0.000265298
1.63286e-06
0.000263626
1.67124e-06
0.000261917
1.70912e-06
0.000260171
1.74648e-06
0.000258387
1.78333e-06
0.000256568
1.81967e-06
0.000254712
1.85549e-06
0.000252822
1.89078e-06
0.000250896
1.92556e-06
0.000248936
1.95981e-06
0.000246943
1.99353e-06
0.000244916
2.02672e-06
0.000242857
2.05939e-06
0.000240765
2.09152e-06
0.000238642
2.12312e-06
0.000236488
2.15418e-06
0.000234303
2.18471e-06
0.000232088
2.2147e-06
0.000229844
2.24415e-06
0.000227571
2.27307e-06
0.00022527
2.30145e-06
0.00022294
2.3293e-06
0.000220584
2.35661e-06
0.0002182
2.38338e-06
0.000215791
2.40962e-06
0.000213355
2.43532e-06
0.000210895
2.46049e-06
0.00020841
2.48513e-06
0.000205901
2.50924e-06
0.000203368
2.53283e-06
0.000200812
2.55589e-06
0.000198233
2.57843e-06
0.000195633
2.60045e-06
0.000193011
2.62195e-06
0.000190368
2.64294e-06
0.000187705
2.66342e-06
0.000185021
2.68339e-06
0.000182318
2.70287e-06
0.000179597
2.72184e-06
0.000176856
2.74032e-06
0.000174098
2.75832e-06
0.000171322
2.77583e-06
0.000168529
2.79286e-06
0.00016572
2.80942e-06
0.000162894
2.82551e-06
0.000160053
2.84114e-06
0.000157197
2.85631e-06
0.000154326
2.87103e-06
0.00015144
2.88531e-06
0.000148541
2.89915e-06
0.000145629
2.91256e-06
0.000142703
2.92555e-06
0.000139765
2.93811e-06
0.000136815
2.95027e-06
0.000133853
2.96202e-06
0.000130879
2.97337e-06
0.000127895
2.98434e-06
0.0001249
2.99492e-06
0.000121895
3.00512e-06
0.00011888
3.01496e-06
0.000115856
3.02443e-06
0.000112822
3.03355e-06
0.00010978
3.04232e-06
0.000106729
3.05074e-06
0.00010367
3.05884e-06
0.000100604
3.06661e-06
9.75296e-05
3.07406e-06
9.44484e-05
3.08119e-06
9.13604e-05
3.08803e-06
8.82658e-05
3.09456e-06
8.5165e-05
3.1008e-06
8.20583e-05
3.10675e-06
7.89458e-05
3.11242e-06
7.5828e-05
3.11782e-06
7.27051e-05
3.12296e-06
6.95772e-05
3.12783e-06
6.64448e-05
3.13244e-06
6.3308e-05
3.13681e-06
6.0167e-05
3.14093e-06
5.70222e-05
3.14481e-06
5.38738e-05
3.14846e-06
5.07219e-05
3.15188e-06
4.75668e-05
3.15507e-06
4.44088e-05
3.15804e-06
4.1248e-05
3.16079e-06
3.80847e-05
3.16333e-06
3.4919e-05
3.16566e-06
3.17512e-05
3.16779e-06
2.85815e-05
3.16971e-06
2.54101e-05
3.17143e-06
2.22371e-05
3.17295e-06
1.90628e-05
3.17428e-06
1.58874e-05
3.17542e-06
1.27111e-05
3.17636e-06
9.53395e-06
3.17711e-06
6.35628e-06
3.17767e-06
3.17823e-06
3.17805e-06
3.17823e-06
3.46711e-06
-6.93401e-06
6.934e-06
-6.93358e-06
1.04005e-05
-6.9327e-06
1.38663e-05
-6.93139e-06
1.73312e-05
-6.92964e-06
2.0795e-05
-6.92744e-06
2.42575e-05
-6.9248e-06
2.77185e-05
-6.92169e-06
3.11777e-05
-6.91812e-06
3.46348e-05
-6.91408e-06
3.80897e-05
-6.90956e-06
4.15421e-05
-6.90455e-06
4.49918e-05
-6.89903e-06
4.84384e-05
-6.893e-06
5.18818e-05
-6.88645e-06
5.53216e-05
-6.87936e-06
5.87576e-05
-6.87171e-06
6.21895e-05
-6.86349e-06
6.56169e-05
-6.85468e-06
6.90397e-05
-6.84528e-06
7.24575e-05
-6.83525e-06
7.587e-05
-6.82458e-06
7.92768e-05
-6.81326e-06
8.26776e-05
-6.80125e-06
8.6072e-05
-6.78855e-06
8.94598e-05
-6.77513e-06
9.28404e-05
-6.76096e-06
9.62137e-05
-6.74604e-06
9.9579e-05
-6.73032e-06
0.000102936
-6.7138e-06
0.000106285
-6.69644e-06
0.000109624
-6.67822e-06
0.000112954
-6.65912e-06
0.000116273
-6.63911e-06
0.000119583
-6.61817e-06
0.000122881
-6.59627e-06
0.000126168
-6.57339e-06
0.000129443
-6.5495e-06
0.000132706
-6.52457e-06
0.000135955
-6.49859e-06
0.000139191
-6.47152e-06
0.000142413
-6.44334e-06
0.000145621
-6.41403e-06
0.000148813
-6.38356e-06
0.000151989
-6.3519e-06
0.000155149
-6.31904e-06
0.000158291
-6.28494e-06
0.000161417
-6.24959e-06
0.000164523
-6.21296e-06
0.000167611
-6.17503e-06
0.000170679
-6.13579e-06
0.000173727
-6.0952e-06
0.000176754
-6.05325e-06
0.00017976
-6.00993e-06
0.000182743
-5.96521e-06
0.000185702
-5.91908e-06
0.000188639
-5.87152e-06
0.00019155
-5.82252e-06
0.000194437
-5.77206e-06
0.000197297
-5.72014e-06
0.000200131
-5.66674e-06
0.000202937
-5.61186e-06
0.000205715
-5.55548e-06
0.000208464
-5.49761e-06
0.000211184
-5.43823e-06
0.000213873
-5.37734e-06
0.000216531
-5.31494e-06
0.000219157
-5.25104e-06
0.00022175
-5.18563e-06
0.00022431
-5.11872e-06
0.000226835
-5.05031e-06
0.000229326
-4.98042e-06
0.000231781
-4.90904e-06
0.000234199
-4.83619e-06
0.00023658
-4.76188e-06
0.000238924
-4.68613e-06
0.000241229
-4.60895e-06
0.000243494
-4.53036e-06
0.00024572
-4.45038e-06
0.000247905
-4.36903e-06
0.000250048
-4.28634e-06
0.00025215
-4.20232e-06
0.000254208
-4.11701e-06
0.000256224
-4.03043e-06
0.000258195
-3.9426e-06
0.000260123
-3.85358e-06
0.000262005
-3.76337e-06
0.000263841
-3.67202e-06
0.000265631
-3.57957e-06
0.000267374
-3.48605e-06
0.00026907
-3.39149e-06
0.000270718
-3.29593e-06
0.000272318
-3.19943e-06
0.00027387
-3.102e-06
0.000275372
-3.00371e-06
0.000276824
-2.90458e-06
0.000278227
-2.80466e-06
0.000279579
-2.704e-06
0.00028088
-2.60264e-06
0.000282131
-2.50063e-06
0.00028333
-2.398e-06
0.000284477
-2.29482e-06
0.000285573
-2.19111e-06
0.000286617
-2.08693e-06
0.000287608
-1.98232e-06
0.000288547
-1.87733e-06
0.000289433
-1.772e-06
0.000290266
-1.66638e-06
0.000291046
-1.56052e-06
0.000291774
-1.45446e-06
0.000292448
-1.34824e-06
0.000293069
-1.24191e-06
0.000293636
-1.13551e-06
0.000294151
-1.02909e-06
0.000294612
-9.22678e-07
0.00029502
-8.16326e-07
0.000295375
-7.10073e-07
0.000295677
-6.03958e-07
0.000295926
-4.98019e-07
0.000296122
-3.92296e-07
0.000296266
-2.86824e-07
0.000296357
-1.81641e-07
0.000296395
-7.67809e-08
0.000296381
2.77218e-08
0.000296315
1.31834e-07
0.000296197
2.35523e-07
0.000296027
3.38759e-07
0.000295807
4.4151e-07
0.000295535
5.43749e-07
0.000295212
6.45447e-07
0.000294838
7.46576e-07
0.000294415
8.47112e-07
0.000293941
9.47029e-07
0.000293418
1.0463e-06
0.000292845
1.14491e-06
0.000292223
1.24283e-06
0.000291553
1.34004e-06
0.000290835
1.43652e-06
0.000290068
1.53226e-06
0.000289255
1.62722e-06
0.000288394
1.7214e-06
0.000287486
1.81478e-06
0.000286532
1.90734e-06
0.000285533
1.99906e-06
0.000284487
2.08994e-06
0.000283397
2.17996e-06
0.000282262
2.26909e-06
0.000281083
2.35734e-06
0.000279861
2.44469e-06
0.000278595
2.53112e-06
0.000277287
2.61663e-06
0.000275936
2.7012e-06
0.000274543
2.78483e-06
0.000273109
2.8675e-06
0.000271634
2.94921e-06
0.000270119
3.02995e-06
0.000268564
3.1097e-06
0.000266969
3.18846e-06
0.000265336
3.26623e-06
0.000263664
3.34299e-06
0.000261955
3.41874e-06
0.000260208
3.49347e-06
0.000258424
3.56717e-06
0.000256604
3.63985e-06
0.000254748
3.71149e-06
0.000252856
3.78209e-06
0.00025093
3.85164e-06
0.00024897
3.92014e-06
0.000246976
3.98759e-06
0.000244949
4.05398e-06
0.000242889
4.1193e-06
0.000240797
4.18357e-06
0.000238673
4.24676e-06
0.000236518
4.30889e-06
0.000234333
4.36995e-06
0.000232118
4.42993e-06
0.000229873
4.48884e-06
0.0002276
4.54668e-06
0.000225298
4.60344e-06
0.000222968
4.65913e-06
0.000220611
4.71375e-06
0.000218227
4.76729e-06
0.000215817
4.81977e-06
0.000213381
4.87117e-06
0.00021092
4.92151e-06
0.000208434
4.97079e-06
0.000205924
5.01902e-06
0.000203391
5.06618e-06
0.000200834
5.1123e-06
0.000198256
5.15737e-06
0.000195655
5.20141e-06
0.000193032
5.24441e-06
0.000190389
5.28639e-06
0.000187725
5.32734e-06
0.000185041
5.36729e-06
0.000182337
5.40623e-06
0.000179615
5.44418e-06
0.000176874
5.48114e-06
0.000174116
5.51712e-06
0.000171339
5.55213e-06
0.000168546
5.58619e-06
0.000165736
5.6193e-06
0.00016291
5.65148e-06
0.000160068
5.68273e-06
0.000157212
5.71307e-06
0.00015434
5.74251e-06
0.000151454
5.77106e-06
0.000148555
5.79874e-06
0.000145642
5.82555e-06
0.000142716
5.85151e-06
0.000139777
5.87664e-06
0.000136827
5.90095e-06
0.000133864
5.92444e-06
0.000130891
5.94714e-06
0.000127906
5.96906e-06
0.000124911
5.99021e-06
0.000121905
6.01061e-06
0.00011889
6.03027e-06
0.000115865
6.04921e-06
0.000112831
6.06744e-06
0.000109788
6.08497e-06
0.000106737
6.10182e-06
0.000103678
6.11801e-06
0.000100611
6.13354e-06
9.75368e-05
6.14843e-06
9.44553e-05
6.1627e-06
9.1367e-05
6.17635e-06
8.82721e-05
6.18941e-06
8.5171e-05
6.20188e-06
8.2064e-05
6.21378e-06
7.89513e-05
6.22512e-06
7.58332e-05
6.23592e-06
7.271e-05
6.24618e-06
6.95819e-05
6.25592e-06
6.64492e-05
6.26514e-06
6.33122e-05
6.27387e-06
6.0171e-05
6.2821e-06
5.70259e-05
6.28986e-06
5.38772e-05
6.29715e-06
5.07251e-05
6.30398e-06
4.75698e-05
6.31036e-06
4.44116e-05
6.31629e-06
4.12506e-05
6.3218e-06
3.8087e-05
6.32688e-06
3.49212e-05
6.33153e-06
3.17532e-05
6.33578e-06
2.85833e-05
6.33962e-06
2.54116e-05
6.34306e-06
2.22385e-05
6.34611e-06
1.9064e-05
6.34876e-06
1.58884e-05
6.35103e-06
1.27118e-05
6.35291e-06
9.53452e-06
6.35442e-06
6.35666e-06
6.35554e-06
3.17842e-06
6.35628e-06
6.35665e-06
3.46755e-06
-1.04016e-05
6.93488e-06
-1.04009e-05
1.04018e-05
-1.03996e-05
1.3868e-05
-1.03976e-05
1.73334e-05
-1.0395e-05
2.07977e-05
-1.03917e-05
2.42607e-05
-1.03878e-05
2.77221e-05
-1.03831e-05
3.11817e-05
-1.03778e-05
3.46394e-05
-1.03717e-05
3.80948e-05
-1.0365e-05
4.15477e-05
-1.03574e-05
4.49978e-05
-1.03492e-05
4.8445e-05
-1.03402e-05
5.18889e-05
-1.03303e-05
5.53293e-05
-1.03197e-05
5.87658e-05
-1.03083e-05
6.21983e-05
-1.0296e-05
6.56264e-05
-1.02828e-05
6.90498e-05
-1.02687e-05
7.24682e-05
-1.02537e-05
7.58814e-05
-1.02377e-05
7.92888e-05
-1.02207e-05
8.26903e-05
-1.02028e-05
8.60855e-05
-1.01837e-05
8.9474e-05
-1.01636e-05
9.28554e-05
-1.01424e-05
9.62294e-05
-1.012e-05
9.95956e-05
-1.00965e-05
0.000102954
-1.00717e-05
0.000106303
-1.00457e-05
0.000109643
-1.00184e-05
0.000112974
-9.98981e-06
0.000116294
-9.95983e-06
0.000119605
-9.92845e-06
0.000122904
-9.89563e-06
0.000126192
-9.86134e-06
0.000129468
-9.82554e-06
0.000132732
-9.78818e-06
0.000135982
-9.74924e-06
0.00013922
-9.70867e-06
0.000142443
-9.66643e-06
0.000145651
-9.62249e-06
0.000148844
-9.57682e-06
0.000152022
-9.52936e-06
0.000155183
-9.48009e-06
0.000158327
-9.42898e-06
0.000161453
-9.37598e-06
0.000164561
-9.32106e-06
0.000167651
-9.2642e-06
0.00017072
-9.20536e-06
0.000173769
-9.1445e-06
0.000176798
-9.0816e-06
0.000179804
-9.01664e-06
0.000182789
-8.94958e-06
0.00018575
-8.8804e-06
0.000188688
-8.80908e-06
0.000191601
-8.7356e-06
0.000194489
-8.65993e-06
0.000197351
-8.58206e-06
0.000200186
-8.50197e-06
0.000202994
-8.41966e-06
0.000205773
-8.3351e-06
0.000208524
-8.24829e-06
0.000211245
-8.15922e-06
0.000213935
-8.0679e-06
0.000216595
-7.9743e-06
0.000219222
-7.87844e-06
0.000221817
-7.78033e-06
0.000224378
-7.67995e-06
0.000226905
-7.57733e-06
0.000229397
-7.47247e-06
0.000231854
-7.36539e-06
0.000234273
-7.2561e-06
0.000236656
-7.14462e-06
0.000239001
-7.03098e-06
0.000241307
-6.91519e-06
0.000243574
-6.79728e-06
0.000245801
-6.67729e-06
0.000247987
-6.55523e-06
0.000250132
-6.43116e-06
0.000252235
-6.3051e-06
0.000254295
-6.1771e-06
0.000256312
-6.04719e-06
0.000258285
-5.91542e-06
0.000260213
-5.78183e-06
0.000262096
-5.64649e-06
0.000263933
-5.50942e-06
0.000265725
-5.3707e-06
0.000267469
-5.23036e-06
0.000269166
-5.08848e-06
0.000270815
-4.9451e-06
0.000272416
-4.80028e-06
0.000273968
-4.6541e-06
0.000275471
-4.5066e-06
0.000276924
-4.35785e-06
0.000278327
-4.20792e-06
0.00027968
-4.05688e-06
0.000280982
-3.90479e-06
0.000282233
-3.75171e-06
0.000283433
-3.59771e-06
0.000284581
-3.44287e-06
0.000285677
-3.28725e-06
0.000286721
-3.13092e-06
0.000287713
-2.97395e-06
0.000288652
-2.81641e-06
0.000289538
-2.65836e-06
0.000290372
-2.49988e-06
0.000291152
-2.34103e-06
0.00029188
-2.18188e-06
0.000292554
-2.0225e-06
0.000293175
-1.86295e-06
0.000293743
-1.7033e-06
0.000294257
-1.54361e-06
0.000294719
-1.38394e-06
0.000295127
-1.22437e-06
0.000295482
-1.06494e-06
0.000295783
-9.05716e-07
0.000296032
-7.46761e-07
0.000296228
-5.88129e-07
0.000296371
-4.29877e-07
0.000296461
-2.72058e-07
0.000296499
-1.14725e-07
0.000296485
4.20706e-08
0.000296419
1.98279e-07
0.0002963
3.53852e-07
0.00029613
5.08742e-07
0.000295909
6.62906e-07
0.000295636
8.16299e-07
0.000295313
9.68879e-07
0.000294939
1.12061e-06
0.000294515
1.27144e-06
0.00029404
1.42135e-06
0.000293516
1.57029e-06
0.000292943
1.71823e-06
0.000292321
1.86513e-06
0.00029165
2.01098e-06
0.000290931
2.15572e-06
0.000290163
2.29934e-06
0.000289349
2.44181e-06
0.000288487
2.58311e-06
0.000287579
2.72319e-06
0.000286624
2.86205e-06
0.000285623
2.99966e-06
0.000284577
3.13599e-06
0.000283486
3.27103e-06
0.000282351
3.40475e-06
0.000281171
3.53714e-06
0.000279947
3.66817e-06
0.000278681
3.79784e-06
0.000277371
3.92611e-06
0.000276019
4.05299e-06
0.000274626
4.17844e-06
0.000273191
4.30246e-06
0.000271715
4.42504e-06
0.000270199
4.54615e-06
0.000268643
4.66579e-06
0.000267047
4.78394e-06
0.000265413
4.9006e-06
0.00026374
5.01575e-06
0.000262029
5.12938e-06
0.000260281
5.24148e-06
0.000258497
5.35205e-06
0.000256675
5.46107e-06
0.000254818
5.56853e-06
0.000252926
5.67444e-06
0.000250999
5.77877e-06
0.000249037
5.88153e-06
0.000247042
5.9827e-06
0.000245014
6.08229e-06
0.000242953
6.18029e-06
0.00024086
6.27669e-06
0.000238735
6.37148e-06
0.000236579
6.46468e-06
0.000234393
6.55626e-06
0.000232177
6.64624e-06
0.000229931
6.73461e-06
0.000227656
6.82136e-06
0.000225353
6.9065e-06
0.000223022
6.99004e-06
0.000220664
7.07196e-06
0.000218279
7.15227e-06
0.000215868
7.23098e-06
0.000213431
7.30809e-06
0.000210969
7.3836e-06
0.000208482
7.45751e-06
0.000205971
7.52984e-06
0.000203437
7.60059e-06
0.00020088
7.66976e-06
0.0001983
7.73736e-06
0.000195698
7.80341e-06
0.000193074
7.8679e-06
0.00019043
7.93085e-06
0.000187765
7.99228e-06
0.00018508
8.05219e-06
0.000182375
8.11059e-06
0.000179652
8.1675e-06
0.00017691
8.22292e-06
0.000174151
8.27689e-06
0.000171373
8.3294e-06
0.000168579
8.38047e-06
0.000165768
8.43012e-06
0.000162941
8.47838e-06
0.000160099
8.52524e-06
0.000157241
8.57073e-06
0.000154369
8.61488e-06
0.000151482
8.65769e-06
0.000148582
8.69919e-06
0.000145668
8.73939e-06
0.000142741
8.77832e-06
0.000139802
8.81599e-06
0.00013685
8.85243e-06
0.000133887
8.88765e-06
0.000130912
8.92169e-06
0.000127927
8.95455e-06
0.000124931
8.98626e-06
0.000121925
9.01684e-06
0.000118909
9.04632e-06
0.000115883
9.07471e-06
0.000112849
9.10203e-06
0.000109805
9.12831e-06
0.000106753
9.15357e-06
0.000103694
9.17783e-06
0.000100626
9.20111e-06
9.7551e-05
9.22343e-06
9.44689e-05
9.24481e-06
9.138e-05
9.26528e-06
8.82846e-05
9.28485e-06
8.51829e-05
9.30354e-06
8.20753e-05
9.32137e-06
7.89621e-05
9.33837e-06
7.58434e-05
9.35455e-06
7.27197e-05
9.36992e-06
6.95911e-05
9.38451e-06
6.64579e-05
9.39834e-06
6.33204e-05
9.41141e-06
6.01787e-05
9.42375e-06
5.70332e-05
9.43538e-06
5.38841e-05
9.4463e-06
5.07315e-05
9.45653e-06
4.75758e-05
9.46609e-06
4.44171e-05
9.47498e-06
4.12556e-05
9.48323e-06
3.80917e-05
9.49084e-06
3.49254e-05
9.49782e-06
3.1757e-05
9.50418e-06
2.85867e-05
9.50993e-06
2.54147e-05
9.51509e-06
2.22411e-05
9.51965e-06
1.90663e-05
9.52362e-06
1.58903e-05
9.52702e-06
1.27133e-05
9.52985e-06
9.53565e-06
9.5321e-06
6.35741e-06
9.53378e-06
3.1788e-06
9.5349e-06
9.53545e-06
3.46821e-06
-1.38698e-05
6.9362e-06
-1.38689e-05
1.04038e-05
-1.38672e-05
1.38707e-05
-1.38646e-05
1.73367e-05
-1.38611e-05
2.08017e-05
-1.38567e-05
2.42653e-05
-1.38514e-05
2.77275e-05
-1.38452e-05
3.11878e-05
-1.38381e-05
3.46462e-05
-1.38301e-05
3.81023e-05
-1.38211e-05
4.1556e-05
-1.38111e-05
4.50069e-05
-1.38001e-05
4.84549e-05
-1.37881e-05
5.18996e-05
-1.37751e-05
5.53408e-05
-1.37609e-05
5.87782e-05
-1.37457e-05
6.22116e-05
-1.37293e-05
6.56406e-05
-1.37118e-05
6.90649e-05
-1.3693e-05
7.24843e-05
-1.36731e-05
7.58984e-05
-1.36518e-05
7.93069e-05
-1.36292e-05
8.27094e-05
-1.36053e-05
8.61057e-05
-1.358e-05
8.94953e-05
-1.35532e-05
9.28779e-05
-1.3525e-05
9.62531e-05
-1.34952e-05
9.96205e-05
-1.34639e-05
0.00010298
-1.34309e-05
0.00010633
-1.33963e-05
0.000109672
-1.336e-05
0.000113004
-1.33219e-05
0.000116326
-1.32819e-05
0.000119638
-1.32402e-05
0.000122939
-1.31965e-05
0.000126228
-1.31508e-05
0.000129506
-1.31031e-05
0.000132771
-1.30534e-05
0.000136023
-1.30015e-05
0.000139262
-1.29475e-05
0.000142487
-1.28912e-05
0.000145697
-1.28327e-05
0.000148892
-1.27719e-05
0.000152071
-1.27086e-05
0.000155234
-1.2643e-05
0.00015838
-1.25749e-05
0.000161508
-1.25043e-05
0.000164618
-1.24311e-05
0.00016771
-1.23553e-05
0.000170781
-1.22769e-05
0.000173832
-1.21958e-05
0.000176863
-1.2112e-05
0.000179872
-1.20254e-05
0.000182858
-1.19361e-05
0.000185822
-1.18439e-05
0.000188761
-1.17488e-05
0.000191677
-1.16509e-05
0.000194567
-1.155e-05
0.000197431
-1.14462e-05
0.000200268
-1.13394e-05
0.000203078
-1.12297e-05
0.00020586
-1.1117e-05
0.000208613
-1.10012e-05
0.000211336
-1.08825e-05
0.000214029
-1.07607e-05
0.000216691
-1.06359e-05
0.000219321
-1.05081e-05
0.000221917
-1.03773e-05
0.000224481
-1.02434e-05
0.00022701
-1.01066e-05
0.000229504
-9.96676e-06
0.000231963
-9.82396e-06
0.000234385
-9.67821e-06
0.00023677
-9.52954e-06
0.000239117
-9.37797e-06
0.000241425
-9.22354e-06
0.000243694
-9.06629e-06
0.000245923
-8.90624e-06
0.000248112
-8.74346e-06
0.000250258
-8.57797e-06
0.000252363
-8.40983e-06
0.000254425
-8.23909e-06
0.000256444
-8.06581e-06
0.000258418
-7.89004e-06
0.000260348
-7.71186e-06
0.000262233
-7.53131e-06
0.000264072
-7.34848e-06
0.000265865
-7.16343e-06
0.000267611
-6.97623e-06
0.000269309
-6.78696e-06
0.00027096
-6.59569e-06
0.000272562
-6.40251e-06
0.000274116
-6.2075e-06
0.00027562
-6.01073e-06
0.000277074
-5.81231e-06
0.000278479
-5.6123e-06
0.000279832
-5.41081e-06
0.000281136
-5.20791e-06
0.000282388
-5.0037e-06
0.000283588
-4.79827e-06
0.000284737
-4.59171e-06
0.000285834
-4.38411e-06
0.000286878
-4.17556e-06
0.000287871
-3.96616e-06
0.00028881
-3.756e-06
0.000289697
-3.54516e-06
0.000290531
-3.33375e-06
0.000291312
-3.12184e-06
0.000292039
-2.90954e-06
0.000292714
-2.69693e-06
0.000293335
-2.48409e-06
0.000293903
-2.27112e-06
0.000294417
-2.05811e-06
0.000294878
-1.84512e-06
0.000295286
-1.63226e-06
0.000295641
-1.41959e-06
0.000295942
-1.20721e-06
0.000296191
-9.95176e-07
0.000296386
-7.83581e-07
0.000296529
-5.72493e-07
0.000296619
-3.61985e-07
0.000296656
-1.52129e-07
0.000296641
5.70095e-08
0.000296574
2.65362e-07
0.000296455
4.72865e-07
0.000296285
6.79456e-07
0.000296062
8.85076e-07
0.000295789
1.08966e-06
0.000295465
1.29317e-06
0.00029509
1.49553e-06
0.000294665
1.6967e-06
0.000294189
1.89663e-06
0.000293664
2.09527e-06
0.00029309
2.29258e-06
0.000292467
2.4885e-06
0.000291794
2.68301e-06
0.000291074
2.87605e-06
0.000290306
3.06759e-06
0.00028949
3.25759e-06
0.000288627
3.44602e-06
0.000287718
3.63284e-06
0.000286762
3.81802e-06
0.00028576
4.00153e-06
0.000284712
4.18334e-06
0.00028362
4.36342e-06
0.000282483
4.54175e-06
0.000281302
4.71829e-06
0.000280077
4.89303e-06
0.000278809
5.06594e-06
0.000277498
5.237e-06
0.000276145
5.40619e-06
0.00027475
5.57349e-06
0.000273313
5.73887e-06
0.000271836
5.90232e-06
0.000270318
6.06382e-06
0.000268761
6.22336e-06
0.000267164
6.38092e-06
0.000265528
6.53648e-06
0.000263854
6.69003e-06
0.000262142
6.84155e-06
0.000260392
6.99104e-06
0.000258606
7.13847e-06
0.000256783
7.28384e-06
0.000254924
7.42714e-06
0.00025303
7.56836e-06
0.000251102
7.70748e-06
0.000249139
7.8445e-06
0.000247142
7.97941e-06
0.000245112
8.1122e-06
0.000243049
8.24287e-06
0.000240955
8.37141e-06
0.000238828
8.49781e-06
0.000236671
8.62207e-06
0.000234483
8.74419e-06
0.000232265
8.86416e-06
0.000230018
8.98198e-06
0.000227741
9.09766e-06
0.000225437
9.21118e-06
0.000223104
9.32255e-06
0.000220744
9.43178e-06
0.000218358
9.53886e-06
0.000215945
9.6438e-06
0.000213506
9.74661e-06
0.000211043
9.84728e-06
0.000208554
9.94582e-06
0.000206042
1.00422e-05
0.000203506
1.01366e-05
0.000200947
1.02288e-05
0.000198366
1.03189e-05
0.000195762
1.0407e-05
0.000193137
1.04929e-05
0.000190491
1.05769e-05
0.000187824
1.06587e-05
0.000185138
1.07386e-05
0.000182432
1.08164e-05
0.000179707
1.08923e-05
0.000176964
1.09662e-05
0.000174203
1.10381e-05
0.000171424
1.11081e-05
0.000168629
1.11762e-05
0.000165816
1.12423e-05
0.000162988
1.13067e-05
0.000160144
1.13691e-05
0.000157285
1.14297e-05
0.000154411
1.14886e-05
0.000151524
1.15456e-05
0.000148622
1.16009e-05
0.000145707
1.16545e-05
0.000142779
1.17064e-05
0.000139838
1.17566e-05
0.000136885
1.18051e-05
0.000133921
1.18521e-05
0.000130945
1.18974e-05
0.000127959
1.19412e-05
0.000124961
1.19834e-05
0.000121954
1.20242e-05
0.000118937
1.20634e-05
0.00011591
1.21013e-05
0.000112875
1.21377e-05
0.00010983
1.21727e-05
0.000106778
1.22063e-05
0.000103717
1.22386e-05
0.000100648
1.22696e-05
9.75724e-05
1.22994e-05
9.44893e-05
1.23278e-05
9.13995e-05
1.23551e-05
8.83032e-05
1.23812e-05
8.52007e-05
1.24061e-05
8.20923e-05
1.24298e-05
7.89782e-05
1.24524e-05
7.58588e-05
1.2474e-05
7.27343e-05
1.24944e-05
6.96049e-05
1.25139e-05
6.6471e-05
1.25323e-05
6.33327e-05
1.25497e-05
6.01903e-05
1.25661e-05
5.70441e-05
1.25816e-05
5.38943e-05
1.25961e-05
5.0741e-05
1.26098e-05
4.75846e-05
1.26225e-05
4.44253e-05
1.26343e-05
4.12632e-05
1.26453e-05
3.80986e-05
1.26554e-05
3.49317e-05
1.26647e-05
3.17627e-05
1.26732e-05
2.85918e-05
1.26808e-05
2.54192e-05
1.26877e-05
2.22451e-05
1.26938e-05
1.90696e-05
1.26991e-05
1.58931e-05
1.27036e-05
1.27156e-05
1.27073e-05
9.53733e-06
1.27103e-05
6.35853e-06
1.27126e-05
3.17936e-06
1.27141e-05
1.27148e-05
3.46908e-06
-1.73388e-05
6.93794e-06
-1.73378e-05
1.04064e-05
-1.73356e-05
1.38742e-05
-1.73323e-05
1.73411e-05
-1.7328e-05
2.0807e-05
-1.73226e-05
2.42716e-05
-1.7316e-05
2.77346e-05
-1.73083e-05
3.11959e-05
-1.72994e-05
3.46552e-05
-1.72894e-05
3.81124e-05
-1.72782e-05
4.1567e-05
-1.72658e-05
4.5019e-05
-1.72521e-05
4.8468e-05
-1.72371e-05
5.19138e-05
-1.72209e-05
5.53561e-05
-1.72032e-05
5.87946e-05
-1.71843e-05
6.22292e-05
-1.71639e-05
6.56594e-05
-1.7142e-05
6.9085e-05
-1.71186e-05
7.25056e-05
-1.70937e-05
7.59211e-05
-1.70672e-05
7.93309e-05
-1.70391e-05
8.27349e-05
-1.70093e-05
8.61326e-05
-1.69777e-05
8.95236e-05
-1.69443e-05
9.29078e-05
-1.69091e-05
9.62845e-05
-1.6872e-05
9.96535e-05
-1.68329e-05
0.000103014
-1.67918e-05
0.000106367
-1.67486e-05
0.00010971
-1.67033e-05
0.000113044
-1.66557e-05
0.000116368
-1.66059e-05
0.000119681
-1.65538e-05
0.000122984
-1.64993e-05
0.000126276
-1.64423e-05
0.000129555
-1.63828e-05
0.000132823
-1.63207e-05
0.000136077
-1.6256e-05
0.000139318
-1.61885e-05
0.000142545
-1.61183e-05
0.000145758
-1.60452e-05
0.000148955
-1.59693e-05
0.000152137
-1.58903e-05
0.000155302
-1.58084e-05
0.000158451
-1.57233e-05
0.000161582
-1.56352e-05
0.000164694
-1.55438e-05
0.000167788
-1.54491e-05
0.000170862
-1.53512e-05
0.000173916
-1.52499e-05
0.00017695
-1.51452e-05
0.000179961
-1.5037e-05
0.000182951
-1.49254e-05
0.000185917
-1.48102e-05
0.000188859
-1.46914e-05
0.000191778
-1.4569e-05
0.000194671
-1.4443e-05
0.000197538
-1.43133e-05
0.000200378
-1.41799e-05
0.000203191
-1.40427e-05
0.000205976
-1.39018e-05
0.000208732
-1.37572e-05
0.000211458
-1.36088e-05
0.000214154
-1.34566e-05
0.000216819
-1.33006e-05
0.000219452
-1.31408e-05
0.000222051
-1.29772e-05
0.000224618
-1.28099e-05
0.00022715
-1.26388e-05
0.000229647
-1.2464e-05
0.000232109
-1.22855e-05
0.000234534
-1.21032e-05
0.000236922
-1.19173e-05
0.000239272
-1.17278e-05
0.000241583
-1.15347e-05
0.000243855
-1.13381e-05
0.000246086
-1.11379e-05
0.000248277
-1.09344e-05
0.000250427
-1.07274e-05
0.000252534
-1.05171e-05
0.000254599
-1.03036e-05
0.00025662
-1.00869e-05
0.000258597
-9.86709e-06
0.000260529
-9.64423e-06
0.000262416
-9.41843e-06
0.000264257
-9.18976e-06
0.000266052
-8.9583e-06
0.0002678
-8.72416e-06
0.000269501
-8.48743e-06
0.000271153
-8.2482e-06
0.000272757
-8.00657e-06
0.000274312
-7.76265e-06
0.000275818
-7.51654e-06
0.000277274
-7.26834e-06
0.00027868
-7.01817e-06
0.000280036
-6.76613e-06
0.00028134
-6.51234e-06
0.000282593
-6.25691e-06
0.000283795
-5.99995e-06
0.000284945
-5.74158e-06
0.000286043
-5.4819e-06
0.000287088
-5.22105e-06
0.000288081
-4.95913e-06
0.000289021
-4.69625e-06
0.000289909
-4.43254e-06
0.000290743
-4.1681e-06
0.000291524
-3.90305e-06
0.000292252
-3.6375e-06
0.000292927
-3.37157e-06
0.000293548
-3.10537e-06
0.000294116
-2.83899e-06
0.00029463
-2.57256e-06
0.000295091
-2.30618e-06
0.000295499
-2.03994e-06
0.000295853
-1.77396e-06
0.000296155
-1.50833e-06
0.000296403
-1.24316e-06
0.000296598
-9.78522e-07
0.00029674
-7.14526e-07
0.000296829
-4.5126e-07
0.000296866
-1.8881e-07
0.00029685
7.27366e-08
0.000296782
3.33298e-07
0.000296662
5.92793e-07
0.00029649
8.51145e-07
0.000296267
1.10828e-06
0.000295993
1.36412e-06
0.000295667
1.6186e-06
0.000295291
1.87165e-06
0.000294865
2.12321e-06
0.000294388
2.37321e-06
0.000293862
2.6216e-06
0.000293286
2.86831e-06
0.000292661
3.1133e-06
0.000291988
3.3565e-06
0.000291266
3.59788e-06
0.000290496
3.83737e-06
0.000289679
4.07494e-06
0.000288814
4.31054e-06
0.000287903
4.54412e-06
0.000286945
4.77566e-06
0.000285942
5.0051e-06
0.000284893
5.23242e-06
0.000283798
5.45757e-06
0.00028266
5.68052e-06
0.000281477
5.90125e-06
0.00028025
6.11972e-06
0.00027898
6.3359e-06
0.000277667
6.54977e-06
0.000276312
6.76129e-06
0.000274915
6.97045e-06
0.000273477
7.17721e-06
0.000271998
7.38156e-06
0.000270478
7.58347e-06
0.000268918
7.78292e-06
0.000267319
7.9799e-06
0.000265682
8.17437e-06
0.000264005
8.36634e-06
0.000262291
8.55577e-06
0.000260539
8.74264e-06
0.000258751
8.92696e-06
0.000256926
9.1087e-06
0.000255065
9.28784e-06
0.000253169
9.46438e-06
0.000251239
9.63829e-06
0.000249273
9.80959e-06
0.000247275
9.97824e-06
0.000245243
1.01442e-05
0.000243178
1.03076e-05
0.000241081
1.04683e-05
0.000238953
1.06263e-05
0.000236793
1.07816e-05
0.000234603
1.09343e-05
0.000232383
1.10842e-05
0.000230133