/*--------------------------------*- C++ -*----------------------------------*\
| =========                 |                                                 |
| \\      /  F ield         | OpenFOAM: The Open Source CFD Toolbox           |
|  \\    /   O peration     | Version:  v2012                                 |
|   \\  /    A nd           | Website:  www.openfoam.com                      |
|    \\/     M anipulation  |                                                 |
\*---------------------------------------------------------------------------*/
FoamFile
{
    version     2.0;
    format      ascii;
    class       volScalarField;
    location    "2.3";
    object      Psi_z;
}
// * * * * * * * * * * * * * * * * * * * * * * * * * * * * * * * * * * * * * //

dimensions      [0 2 -1 0 0 0 0];


internalField   nonuniform List<scalar> 
65536
(
8.68411e-06
2.60517e-05
4.34176e-05
6.07808e-05
7.81403e-05
9.54947e-05
0.000112843
0.000130185
0.000147517
0.000164841
0.000182154
0.000199455
0.000216743
0.000234016
0.000251274
0.000268515
0.000285737
0.00030294
0.000320121
0.00033728
0.000354414
0.000371523
0.000388604
0.000405656
0.000422678
0.000439666
0.00045662
0.000473538
0.000490418
0.000507257
0.000524054
0.000540807
0.000557513
0.00057417
0.000590775
0.000607328
0.000623824
0.000640262
0.000656638
0.000672951
0.000689197
0.000705375
0.00072148
0.000737511
0.000753463
0.000769335
0.000785123
0.000800824
0.000816434
0.000831952
0.000847372
0.000862693
0.000877909
0.000893019
0.000908019
0.000922904
0.000937672
0.000952319
0.000966841
0.000981234
0.000995495
0.00100962
0.00102361
0.00103745
0.00105114
0.00106469
0.00107808
0.00109131
0.00110437
0.00111728
0.00113001
0.00114256
0.00115494
0.00116714
0.00117916
0.00119098
0.00120262
0.00121405
0.00122529
0.00123633
0.00124715
0.00125777
0.00126818
0.00127837
0.00128834
0.00129809
0.00130761
0.00131691
0.00132597
0.0013348
0.00134339
0.00135174
0.00135986
0.00136773
0.00137535
0.00138272
0.00138984
0.00139672
0.00140333
0.00140969
0.0014158
0.00142164
0.00142723
0.00143255
0.00143761
0.00144241
0.00144694
0.00145121
0.00145521
0.00145895
0.00146242
0.00146562
0.00146856
0.00147122
0.00147362
0.00147576
0.00147762
0.00147922
0.00148055
0.00148162
0.00148242
0.00148296
0.00148324
0.00148325
0.001483
0.00148249
0.00148172
0.00148069
0.0014794
0.00147786
0.00147607
0.00147402
0.00147172
0.00146918
0.00146638
0.00146334
0.00146005
0.00145653
0.00145276
0.00144875
0.00144451
0.00144003
0.00143532
0.00143038
0.00142521
0.00141982
0.0014142
0.00140837
0.00140231
0.00139603
0.00138955
0.00138285
0.00137594
0.00136882
0.0013615
0.00135397
0.00134625
0.00133833
0.00133021
0.00132191
0.00131341
0.00130473
0.00129586
0.00128681
0.00127758
0.00126817
0.00125859
0.00124884
0.00123892
0.00122883
0.00121858
0.00120817
0.00119761
0.00118688
0.00117601
0.00116498
0.00115381
0.00114249
0.00113103
0.00111943
0.0011077
0.00109583
0.00108383
0.0010717
0.00105944
0.00104706
0.00103457
0.00102195
0.00100922
0.000996373
0.000983419
0.000970357
0.000957189
0.00094392
0.00093055
0.000917083
0.000903522
0.000889867
0.000876123
0.000862291
0.000848373
0.000834373
0.000820292
0.000806133
0.000791898
0.000777589
0.000763208
0.000748758
0.000734241
0.000719659
0.000705013
0.000690307
0.000675542
0.00066072
0.000645842
0.000630912
0.00061593
0.000600899
0.00058582
0.000570695
0.000555527
0.000540316
0.000525064
0.000509773
0.000494444
0.00047908
0.000463681
0.000448249
0.000432785
0.000417292
0.00040177
0.00038622
0.000370645
0.000355045
0.000339421
0.000323776
0.000308109
0.000292423
0.000276718
0.000260996
0.000245257
0.000229503
0.000213735
0.000197955
0.000182162
0.000166358
0.000150544
0.000134721
0.00011889
0.000103052
8.72082e-05
7.13592e-05
5.55059e-05
3.96494e-05
2.37906e-05
7.93033e-06
2.60527e-05
7.81564e-05
0.000130255
0.000182346
0.000234425
0.00028649
0.000338536
0.000390561
0.000442561
0.000494532
0.000546472
0.000598376
0.000650241
0.000702063
0.000753837
0.000805561
0.000857229
0.000908839
0.000960384
0.00101186
0.00106327
0.00111459
0.00116584
0.001217
0.00126806
0.00131903
0.00136989
0.00142065
0.00147129
0.00152181
0.0015722
0.00162246
0.00167258
0.00172256
0.00177238
0.00182204
0.00187153
0.00192084
0.00196997
0.00201892
0.00206766
0.00211619
0.00216451
0.00221261
0.00226047
0.00230808
0.00235545
0.00240256
0.00244939
0.00249595
0.00254221
0.00258818
0.00263383
0.00267916
0.00272417
0.00276883
0.00281313
0.00285708
0.00290065
0.00294383
0.00298662
0.003029
0.00307096
0.00311249
0.00315358
0.00319421
0.00323438
0.00327408
0.00331328
0.00335199
0.00339019
0.00342787
0.00346501
0.00350161
0.00353766
0.00357314
0.00360804
0.00364235
0.00367607
0.00370918
0.00374167
0.00377353
0.00380475
0.00383532
0.00386524
0.00389449
0.00392306
0.00395094
0.00397814
0.00400463
0.00403041
0.00405547
0.00407981
0.00410342
0.00412629
0.00414841
0.00416978
0.0041904
0.00421025
0.00422934
0.00424765
0.00426519
0.00428194
0.00429791
0.0043131
0.00432749
0.00434109
0.0043539
0.00436591
0.00437711
0.00438752
0.00439713
0.00440593
0.00441394
0.00442114
0.00442753
0.00443313
0.00443793
0.00444193
0.00444513
0.00444754
0.00444915
0.00444997
0.00445
0.00444925
0.00444772
0.00444541
0.00444232
0.00443847
0.00443384
0.00442846
0.00442231
0.00441542
0.00440777
0.00439938
0.00439026
0.0043804
0.00436982
0.00435851
0.00434649
0.00433376
0.00432032
0.00430619
0.00429137
0.00427587
0.00425969
0.00424283
0.00422532
0.00420714
0.00418832
0.00416885
0.00414875
0.00412802
0.00410666
0.0040847
0.00406212
0.00403895
0.00401519
0.00399084
0.00396591
0.00394042
0.00391436
0.00388776
0.0038606
0.00383291
0.00380469
0.00377595
0.00374669
0.00371693
0.00368667
0.00365592
0.00362468
0.00359298
0.0035608
0.00352817
0.00349509
0.00346157
0.00342761
0.00339323
0.00335843
0.00332322
0.00328761
0.00325161
0.00321522
0.00317845
0.00314132
0.00310382
0.00306597
0.00302777
0.00298923
0.00295037
0.00291118
0.00287167
0.00283186
0.00279175
0.00275135
0.00271066
0.00266969
0.00262846
0.00258696
0.00254521
0.0025032
0.00246096
0.00241848
0.00237577
0.00233284
0.0022897
0.00224634
0.00220279
0.00215904
0.0021151
0.00207098
0.00202669
0.00198222
0.00193758
0.00189279
0.00184784
0.00180275
0.00175751
0.00171213
0.00166662
0.00162099
0.00157523
0.00152936
0.00148337
0.00143727
0.00139108
0.00134478
0.00129839
0.00125191
0.00120534
0.00115869
0.00111196
0.00106516
0.00101829
0.000971349
0.000924348
0.000877288
0.000830172
0.000783004
0.000735787
0.000688525
0.00064122
0.000593876
0.000546497
0.000499084
0.000451641
0.000404171
0.000356678
0.000309163
0.00026163
0.000214082
0.000166521
0.000118951
7.1373e-05
2.37915e-05
4.34229e-05
0.000130266
0.000217101
0.000303922
0.000390725
0.000477502
0.00056425
0.000650962
0.000737633
0.000824256
0.000910826
0.000997337
0.00108378
0.00117016
0.00125645
0.00134266
0.00142878
0.0015148
0.00160072
0.00168652
0.0017722
0.00185775
0.00194316
0.00202843
0.00211355
0.0021985
0.00228328
0.00236788
0.00245229
0.00253649
0.00262049
0.00270426
0.0027878
0.0028711
0.00295414
0.00303691
0.0031194
0.00320161
0.0032835
0.00336508
0.00344633
0.00352723
0.00360777
0.00368793
0.00376771
0.00384709
0.00392604
0.00400456
0.00408263
0.00416023
0.00423735
0.00431397
0.00439007
0.00446564
0.00454065
0.0046151
0.00468896
0.00476221
0.00483484
0.00490682
0.00497815
0.00504879
0.00511874
0.00518797
0.00525646
0.0053242
0.00539116
0.00545733
0.00552269
0.00558722
0.00565089
0.0057137
0.00577562
0.00583663
0.00589672
0.00595587
0.00601405
0.00607125
0.00612746
0.00618265
0.00623681
0.00628992
0.00634197
0.00639293
0.0064428
0.00649156
0.00653919
0.00658567
0.00663101
0.00667517
0.00671814
0.00675992
0.0068005
0.00683985
0.00687797
0.00691485
0.00695048
0.00698484
0.00701794
0.00704975
0.00708028
0.00710951
0.00713744
0.00716407
0.00718938
0.00721337
0.00723604
0.00725738
0.0072774
0.00729608
0.00731343
0.00732944
0.00734411
0.00735745
0.00736945
0.00738011
0.00738944
0.00739744
0.0074041
0.00740943
0.00741344
0.00741612
0.00741749
0.00741755
0.00741629
0.00741373
0.00740988
0.00740473
0.0073983
0.00739059
0.0073816
0.00737136
0.00735986
0.00734711
0.00733313
0.00731791
0.00730148
0.00728383
0.00726498
0.00724494
0.00722371
0.00720131
0.00717776
0.00715305
0.0071272
0.00710022
0.00707212
0.00704292
0.00701262
0.00698124
0.00694879
0.00691528
0.00688072
0.00684512
0.0068085
0.00677087
0.00673224
0.00669263
0.00665204
0.00661049
0.00656799
0.00652456
0.0064802
0.00643493
0.00638877
0.00634173
0.00629382
0.00624505
0.00619543
0.00614499
0.00609373
0.00604166
0.00598881
0.00593518
0.00588079
0.00582564
0.00576976
0.00571316
0.00565585
0.00559784
0.00553915
0.00547979
0.00541978
0.00535912
0.00529783
0.00523593
0.00517342
0.00511033
0.00504666
0.00498242
0.00491764
0.00485231
0.00478646
0.0047201
0.00465324
0.0045859
0.00451808
0.00444979
0.00438106
0.00431188
0.00424229
0.00417227
0.00410186
0.00403105
0.00395986
0.00388831
0.00381639
0.00374413
0.00367154
0.00359861
0.00352538
0.00345184
0.003378
0.00330388
0.00322948
0.00315482
0.0030799
0.00300474
0.00292933
0.0028537
0.00277785
0.00270179
0.00262552
0.00254905
0.0024724
0.00239557
0.00231857
0.0022414
0.00216408
0.00208661
0.00200899
0.00193123
0.00185335
0.00177534
0.00169722
0.00161898
0.00154065
0.00146221
0.00138368
0.00130506
0.00122636
0.00114759
0.00106874
0.000989834
0.000910865
0.00083184
0.000752765
0.000673646
0.000594487
0.000515292
0.000436067
0.000356817
0.000277546
0.000198259
0.00011896
3.9654e-05
6.07959e-05
0.000182384
0.00030396
0.000425518
0.000547049
0.000668546
0.000790001
0.000911405
0.00103275
0.00115403
0.00127524
0.00139636
0.0015174
0.00163833
0.00175915
0.00187986
0.00200043
0.00212087
0.00224116
0.00236129
0.00248126
0.00260104
0.00272063
0.00284002
0.00295919
0.00307814
0.00319684
0.0033153
0.00343348
0.00355139
0.00366899
0.00378629
0.00390326
0.0040199
0.00413617
0.00425207
0.00436758
0.00448268
0.00459735
0.00471158
0.00482534
0.00493862
0.0050514
0.00516365
0.00527536
0.00538651
0.00549707
0.00560702
0.00571634
0.00582501
0.00593299
0.00604028
0.00614685
0.00625267
0.00635771
0.00646196
0.00656539
0.00666797
0.00676967
0.00687048
0.00697036
0.00706929
0.00716724
0.00726419
0.0073601
0.00745496
0.00754874
0.0076414
0.00773293
0.0078233
0.00791247
0.00800043
0.00808714
0.00817258
0.00825673
0.00833956
0.00842104
0.00850115
0.00857986
0.00865716
0.008733
0.00880738
0.00888027
0.00895165
0.00902148
0.00908976
0.00915646
0.00922156
0.00928505
0.00934689
0.00940707
0.00946559
0.0095224
0.00957751
0.0096309
0.00968254
0.00973243
0.00978056
0.0098269
0.00987145
0.0099142
0.00995514
0.00999425
0.0100315
0.010067
0.0101006
0.0101323
0.0101622
0.0101902
0.0102164
0.0102407
0.0102631
0.0102836
0.0103023
0.0103191
0.010334
0.0103471
0.0103583
0.0103676
0.0103751
0.0103807
0.0103844
0.0103863
0.0103864
0.0103846
0.010381
0.0103756
0.0103684
0.0103594
0.0103486
0.010336
0.0103217
0.0103056
0.0102877
0.0102681
0.0102468
0.0102238
0.010199
0.0101726
0.0101446
0.0101148
0.0100835
0.0100505
0.0100159
0.00997966
0.00994187
0.00990252
0.00986162
0.00981919
0.00977524
0.00972979
0.00968286
0.00963445
0.0095846
0.00953332
0.00948062
0.00942652
0.00937104
0.0093142
0.00925601
0.00919649
0.00913567
0.00907355
0.00901016
0.00894552
0.00887964
0.00881254
0.00874425
0.00867477
0.00860413
0.00853234
0.00845944
0.00838542
0.00831032
0.00823415
0.00815693
0.00807868
0.00799942
0.00791916
0.00783793
0.00775575
0.00767263
0.00758859
0.00750365
0.00741783
0.00733114
0.00724362
0.00715527
0.00706611
0.00697616
0.00688544
0.00679397
0.00670177
0.00660884
0.00651522
0.00642092
0.00632595
0.00623034
0.00613409
0.00603724
0.00593978
0.00584175
0.00574315
0.005644
0.00554432
0.00544413
0.00534344
0.00524226
0.00514061
0.0050385
0.00493595
0.00483298
0.0047296
0.00462581
0.00452165
0.00441711
0.00431221
0.00420696
0.00410139
0.00399549
0.00388929
0.00378278
0.003676
0.00356894
0.00346162
0.00335404
0.00324623
0.00313819
0.00302992
0.00292145
0.00281277
0.00270391
0.00259486
0.00248564
0.00237626
0.00226673
0.00215704
0.00204722
0.00193727
0.0018272
0.00171701
0.00160672
0.00149633
0.00138585
0.00127529
0.00116465
0.00105393
0.00094316
0.00083233
0.000721451
0.00061053
0.000499573
0.000388587
0.000277578
0.000166553
5.55188e-05
7.81726e-05
0.000234513
0.000390839
0.00054714
0.000703408
0.000859631
0.0010158
0.00117191
0.00132794
0.00148389
0.00163974
0.00179548
0.00195111
0.00210661
0.00226197
0.00241718
0.00257222
0.00272709
0.00288177
0.00303624
0.0031905
0.00334452
0.0034983
0.00365182
0.00380507
0.00395802
0.00411066
0.00426298
0.00441496
0.00456658
0.00471781
0.00486865
0.00501907
0.00516905
0.00531857
0.00546762
0.00561616
0.00576417
0.00591164
0.00605854
0.00620484
0.00635052
0.00649555
0.00663992
0.00678358
0.00692652
0.0070687
0.00721011
0.0073507
0.00749045
0.00762934
0.00776732
0.00790438
0.00804047
0.00817557
0.00830965
0.00844267
0.0085746
0.00870541
0.00883506
0.00896352
0.00909076
0.00921675
0.00934144
0.00946481
0.00958681
0.00970743
0.00982662
0.00994434
0.0100606
0.0101753
0.0102884
0.0103999
0.0105098
0.0106181
0.0107246
0.0108294
0.0109324
0.0110337
0.0111331
0.0112307
0.0113263
0.0114201
0.0115119
0.0116017
0.0116895
0.0117753
0.0118591
0.0119407
0.0120203
0.0120977
0.0121729
0.012246
0.0123169
0.0123856
0.012452
0.0125162
0.0125781
0.0126377
0.012695
0.0127499
0.0128026
0.0128529
0.0129008
0.0129464
0.0129896
0.0130304
0.0130689
0.0131049
0.0131386
0.0131698
0.0131986
0.013225
0.013249
0.0132706
0.0132898
0.0133066
0.013321
0.013333
0.0133425
0.0133497
0.0133546
0.013357
0.0133571
0.0133548
0.0133502
0.0133432
0.0133339
0.0133223
0.0133084
0.0132922
0.0132737
0.013253
0.01323
0.0132048
0.0131774
0.0131477
0.0131159
0.013082
0.0130458
0.0130076
0.0129672
0.0129248
0.0128803
0.0128337
0.0127851
0.0127345
0.0126819
0.0126273
0.0125707
0.0125123
0.0124519
0.0123896
0.0123255
0.0122596
0.0121918
0.0121222
0.0120508
0.0119777
0.0119029
0.0118263
0.0117481
0.0116682
0.0115866
0.0115035
0.0114188
0.0113325
0.0112446
0.0111553
0.0110644
0.0109721
0.0108783
0.0107831
0.0106865
0.0105886
0.0104892
0.0103886
0.0102867
0.0101835
0.010079
0.00997328
0.00986638
0.0097583
0.00964906
0.00953868
0.0094272
0.00931464
0.00920101
0.00908635
0.00897067
0.008854
0.00873637
0.00861779
0.00849828
0.00837788
0.00825661
0.00813448
0.00801151
0.00788774
0.00776318
0.00763785
0.00751178
0.00738499
0.00725748
0.0071293
0.00700045
0.00687096
0.00674085
0.00661013
0.00647883
0.00634696
0.00621454
0.00608159
0.00594813
0.00581418
0.00567975
0.00554486
0.00540952
0.00527376
0.00513759
0.00500102
0.00486407
0.00472675
0.00458908
0.00445108
0.00431275
0.00417412
0.00403519
0.00389597
0.00375649
0.00361675
0.00347676
0.00333655
0.00319611
0.00305546
0.00291461
0.00277358
0.00263236
0.00249099
0.00234945
0.00220777
0.00206596
0.00192401
0.00178195
0.00163979
0.00149752
0.00135517
0.00121273
0.00107022
0.000927653
0.000785029
0.000642358
0.000499651
0.000356914
0.000214157
7.13869e-05
9.55542e-05
0.000286657
0.000477742
0.000668797
0.000859811
0.00105077
0.00124167
0.00143248
0.00162321
0.00181383
0.00200434
0.00219472
0.00238495
0.00257503
0.00276494
0.00295467
0.00314419
0.0033335
0.00352257
0.0037114
0.00389997
0.00408825
0.00427624
0.0044639
0.00465124
0.00483821
0.00502481
0.00521101
0.0053968
0.00558215
0.00576703
0.00595143
0.00613531
0.00631867
0.00650146
0.00668367
0.00686527
0.00704622
0.00722651
0.0074061
0.00758496
0.00776307
0.00794038
0.00811688
0.00829253
0.00846728
0.00864112
0.00881401
0.0089859
0.00915677
0.00932658
0.00949529
0.00966287
0.00982927
0.00999446
0.0101584
0.010321
0.0104824
0.0106423
0.0108008
0.0109579
0.0111135
0.0112675
0.01142
0.0115709
0.0117201
0.0118675
0.0120133
0.0121572
0.0122994
0.0124396
0.012578
0.0127144
0.0128487
0.0129811
0.0131114
0.0132395
0.0133655
0.0134893
0.0136109
0.0137302
0.0138472
0.0139619
0.0140741
0.014184
0.0142914
0.0143963
0.0144987
0.0145985
0.0146958
0.0147904
0.0148825
0.0149718
0.0150585
0.0151425
0.0152237
0.0153022
0.0153778
0.0154507
0.0155208
0.015588
0.0156524
0.0157139
0.0157725
0.0158282
0.0158811
0.015931
0.015978
0.016022
0.0160631
0.0161013
0.0161365
0.0161688
0.0161982
0.0162246
0.016248
0.0162685
0.0162861
0.0163007
0.0163124
0.0163212
0.0163271
0.01633
0.0163301
0.0163273
0.0163216
0.0163131
0.0163017
0.0162875
0.0162705
0.0162507
0.016228
0.0162027
0.0161746
0.0161437
0.0161102
0.0160739
0.016035
0.0159934
0.0159493
0.0159025
0.0158531
0.0158012
0.0157467
0.0156898
0.0156303
0.0155684
0.0155041
0.0154373
0.0153682
0.0152967
0.0152228
0.0151467
0.0150683
0.0149876
0.0149047
0.0148196
0.0147323
0.0146429
0.0145514
0.0144578
0.0143621
0.0142644
0.0141647
0.0140631
0.0139595
0.0138539
0.0137465
0.0136373
0.0135262
0.0134133
0.0132986
0.0131822
0.0130641
0.0129443
0.0128229
0.0126998
0.0125752
0.012449
0.0123213
0.012192
0.0120613
0.0119292
0.0117956
0.0116606
0.0115243
0.0113867
0.0112478
0.0111076
0.0109662
0.0108235
0.0106797
0.0105347
0.0103886
0.0102414
0.0100931
0.00994383
0.0097935
0.00964218
0.00948989
0.00933667
0.00918254
0.00902753
0.00887165
0.00871494
0.00855742
0.00839911
0.00824004
0.00808024
0.00791972
0.00775851
0.00759663
0.0074341
0.00727095
0.00710719
0.00694285
0.00677795
0.00661251
0.00644655
0.00628008
0.00611313
0.00594572
0.00577786
0.00560957
0.00544087
0.00527177
0.0051023
0.00493247
0.00476229
0.00459179
0.00442097
0.00424985
0.00407845
0.00390678
0.00373485
0.00356268
0.00339029
0.00321767
0.00304486
0.00287185
0.00269867
0.00252531
0.00235181
0.00217816
0.00200438
0.00183048
0.00165648
0.00148237
0.00130818
0.00113391
0.000959573
0.000785181
0.000610743
0.00043627
0.000261772
8.72591e-05
0.000112942
0.000338818
0.000564674
0.000790495
0.00101627
0.00124198
0.00146761
0.00169315
0.00191858
0.0021439
0.00236907
0.0025941
0.00281895
0.00304363
0.0032681
0.00349235
0.00371637
0.00394014
0.00416363
0.00438683
0.00460972
0.00483228
0.00505449
0.00527632
0.00549776
0.00571878
0.00593936
0.00615946
0.00637908
0.00659818
0.00681673
0.00703471
0.0072521
0.00746885
0.00768494
0.00790034
0.00811502
0.00832894
0.00854207
0.00875439
0.00896584
0.0091764
0.00938604
0.0095947
0.00980236
0.010009
0.0102145
0.0104189
0.0106221
0.0108242
0.0110249
0.0112244
0.0114225
0.0116193
0.0118146
0.0120084
0.0122007
0.0123915
0.0125806
0.0127681
0.0129538
0.0131378
0.0133199
0.0135002
0.0136786
0.013855
0.0140294
0.0142018
0.014372
0.01454
0.0147059
0.0148695
0.0150308
0.0151897
0.0153462
0.0155003
0.0156518
0.0158008
0.0159472
0.016091
0.0162321
0.0163704
0.016506
0.0166388
0.0167687
0.0168957
0.0170197
0.0171408
0.0172589
0.0173739
0.0174859
0.0175947
0.0177003
0.0178028
0.0179021
0.0179982
0.0180909
0.0181804
0.0182666
0.0183495
0.0184289
0.0185051
0.0185778
0.0186471
0.018713
0.0187754
0.0188344
0.01889
0.018942
0.0189906
0.0190358
0.0190774
0.0191156
0.0191503
0.0191814
0.0192092
0.0192334
0.0192541
0.0192714
0.0192852
0.0192956
0.0193025
0.019306
0.0193061
0.0193027
0.019296
0.0192858
0.0192724
0.0192555
0.0192354
0.0192119
0.0191851
0.0191551
0.0191218
0.0190853
0.0190456
0.0190027
0.0189567
0.0189075
0.0188553
0.0187999
0.0187415
0.0186801
0.0186157
0.0185483
0.018478
0.0184048
0.0183287
0.0182497
0.018168
0.0180834
0.0179961
0.017906
0.0178133
0.0177179
0.0176198
0.0175192
0.017416
0.0173103
0.0172021
0.0170914
0.0169782
0.0168627
0.0167448
0.0166246
0.0165021
0.0163773
0.0162503
0.0161211
0.0159897
0.0158562
0.0157206
0.015583
0.0154434
0.0153017
0.0151582
0.0150127
0.0148653
0.0147161
0.014565
0.0144122
0.0142577
0.0141014
0.0139435
0.013784
0.0136228
0.0134601
0.0132958
0.0131301
0.0129629
0.0127942
0.0126242
0.0124528
0.0122801
0.012106
0.0119307
0.0117542
0.0115765
0.0113976
0.0112175
0.0110364
0.0108542
0.0106709
0.0104866
0.0103014
0.0101152
0.00992802
0.00973998
0.00955106
0.0093613
0.00917073
0.00897936
0.00878723
0.00859437
0.00840079
0.00820652
0.00801159
0.00781602
0.00761983
0.00742306
0.00722571
0.00702781
0.00682939
0.00663046
0.00643105
0.00623117
0.00603085
0.0058301
0.00562894
0.0054274
0.00522549
0.00502322
0.00482063
0.00461771
0.00441449
0.00421099
0.00400721
0.00380318
0.00359892
0.00339443
0.00318972
0.00298483
0.00277975
0.0025745
0.0023691
0.00216356
0.00195789
0.0017521
0.00154621
0.00134023
0.00113417
0.000928049
0.000721871
0.000515652
0.000309403
0.000103136
0.000130336
0.000391001
0.000651641
0.000912242
0.00117279
0.00143326
0.00169364
0.00195392
0.00221408
0.0024741
0.00273396
0.00299365
0.00325314
0.00351242
0.00377148
0.00403028
0.00428881
0.00454705
0.00480498
0.00506257
0.00531981
0.00557667
0.00583312
0.00608914
0.00634471
0.00659979
0.00685437
0.00710841
0.00736188
0.00761476
0.00786701
0.0081186
0.00836951
0.00861968
0.0088691
0.00911773
0.00936552
0.00961245
0.00985846
0.0101035
0.0103476
0.0105907
0.0108327
0.0110735
0.0113132
0.0115517
0.011789
0.012025
0.0122596
0.0124928
0.0127246
0.0129549
0.0131836
0.0134107
0.0136362
0.01386
0.014082
0.0143022
0.0145206
0.014737
0.0149515
0.0151639
0.0153742
0.0155823
0.0157883
0.015992
0.0161933
0.0163923
0.0165889
0.0167829
0.0169744
0.0171633
0.0173496
0.0175331
0.0177138
0.0178917
0.0180667
0.0182387
0.0184078
0.0185738
0.0187367
0.0188964
0.019053
0.0192063
0.0193563
0.0195029
0.0196462
0.019786
0.0199223
0.0200551
0.0201844
0.02031
0.020432
0.0205504
0.020665
0.0207759
0.020883
0.0209863
0.0210858
0.0211815
0.0212732
0.0213611
0.0214451
0.0215251
0.0216011
0.0216732
0.0217413
0.0218054
0.0218655
0.0219216
0.0219737
0.0220218
0.0220658
0.0221058
0.0221418
0.0221738
0.0222017
0.0222256
0.0222456
0.0222615
0.0222734
0.0222814
0.0222854
0.0222854
0.0222815
0.0222737
0.0222619
0.0222463
0.0222269
0.0222036
0.0221764
0.0221455
0.0221108
0.0220723
0.0220302
0.0219843
0.0219347
0.0218816
0.0218248
0.0217644
0.0217004
0.021633
0.0215621
0.0214877
0.0214098
0.0213286
0.0212441
0.0211562
0.021065
0.0209705
0.0208729
0.020772
0.0206681
0.020561
0.0204508
0.0203376
0.0202214
0.0201022
0.0199801
0.0198552
0.0197273
0.0195967
0.0194633
0.0193272
0.0191884
0.0190469
0.0189029
0.0187562
0.018607
0.0184554
0.0183013
0.0181447
0.0179858
0.0178246
0.0176611
0.0174953
0.0173274
0.0171572
0.0169849
0.0168106
0.0166342
0.0164558
0.0162754
0.0160931
0.0159089
0.0157228
0.015535
0.0153454
0.015154
0.014961
0.0147663
0.01457
0.0143722
0.0141728
0.0139719
0.0137695
0.0135658
0.0133606
0.0131541
0.0129463
0.0127372
0.0125269
0.0123153
0.0121026
0.0118888
0.0116738
0.0114578
0.0112408
0.0110227
0.0108037
0.0105837
0.0103629
0.0101411
0.00991849
0.00969507
0.00947085
0.00924586
0.00902014
0.00879371
0.0085666
0.00833883
0.00811043
0.00788142
0.00765184
0.00742169
0.00719101
0.00695981
0.00672813
0.00649598
0.00626338
0.00603036
0.00579693
0.00556312
0.00532894
0.00509441
0.00485956
0.00462439
0.00438893
0.0041532
0.00391721
0.00368098
0.00344452
0.00320785
0.002971
0.00273396
0.00249676
0.00225941
0.00202193
0.00178433
0.00154663
0.00130884
0.00107097
0.000833041
0.000595063
0.000357052
0.000119019
0.000147739
0.000443207
0.000738649
0.00103405
0.00132938
0.00162463
0.00191978
0.00221482
0.00250972
0.00280446
0.00309902
0.00339339
0.00368754
0.00398145
0.0042751
0.00456847
0.00486154
0.00515428
0.00544666
0.00573867
0.00603028
0.00632145
0.00661217
0.00690241
0.00719213
0.00748131
0.00776992
0.00805792
0.00834528
0.00863197
0.00891795
0.00920319
0.00948765
0.00977128
0.0100541
0.010336
0.0106169
0.0108969
0.0111758
0.0114537
0.0117304
0.012006
0.0122804
0.0125535
0.0128253
0.0130958
0.0133648
0.0136324
0.0138984
0.0141629
0.0144257
0.0146869
0.0149462
0.0152038
0.0154595
0.0157133
0.0159651
0.0162149
0.0164625
0.0167079
0.0169511
0.017192
0.0174306
0.0176667
0.0179002
0.0181313
0.0183597
0.0185854
0.0188083
0.0190284
0.0192456
0.0194598
0.0196711
0.0198792
0.0200842
0.020286
0.0204845
0.0206796
0.0208714
0.0210597
0.0212444
0.0214256
0.0216032
0.0217771
0.0219472
0.0221135
0.022276
0.0224346
0.0225893
0.0227399
0.0228865
0.023029
0.0231674
0.0233016
0.0234316
0.0235574
0.0236789
0.0237961
0.0239089
0.0240174
0.0241215
0.0242211
0.0243163
0.024407
0.0244933
0.024575
0.0246522
0.0247249
0.0247931
0.0248567
0.0249157
0.0249702
0.0250201
0.0250654
0.0251062
0.0251424
0.0251741
0.0252012
0.0252237
0.0252417
0.0252552
0.0252642
0.0252687
0.0252687
0.0252642
0.0252553
0.0252419
0.0252242
0.0252021
0.0251756
0.0251447
0.0251096
0.0250702
0.0250266
0.0249787
0.0249266
0.0248704
0.02481
0.0247455
0.024677
0.0246045
0.0245279
0.0244474
0.024363
0.0242747
0.0241826
0.0240866
0.0239869
0.0238835
0.0237763
0.0236655
0.0235512
0.0234332
0.0233117
0.0231867
0.0230583
0.0229265
0.0227913
0.0226529
0.0225111
0.0223661
0.022218
0.0220667
0.0219123
0.0217549
0.0215944
0.021431
0.0212647
0.0210955
0.0209235
0.0207487
0.0205712
0.020391
0.0202081
0.0200227
0.0198347
0.0196442
0.0194513
0.0192559
0.0190582
0.0188581
0.0186558
0.0184513
0.0182445
0.0180356
0.0178247
0.0176117
0.0173967
0.0171797
0.0169608
0.0167401
0.0165175
0.0162931
0.016067
0.0158392
0.0156098
0.0153787
0.0151461
0.014912
0.0146763
0.0144392
0.0142008
0.0139609
0.0137198
0.0134773
0.0132336
0.0129887
0.0127426
0.0124954
0.012247
0.0119977
0.0117472
0.0114958
0.0112434
0.0109901
0.0107359
0.0104809
0.010225
0.00996827
0.0097108
0.00945259
0.00919366
0.00893404
0.00867377
0.00841287
0.00815136
0.00788927
0.00762663
0.00736346
0.00709979
0.00683564
0.00657102
0.00630598
0.00604051
0.00577466
0.00550844
0.00524186
0.00497496
0.00470774
0.00444024
0.00417246
0.00390442
0.00363615
0.00336767
0.00309898
0.00283011
0.00256107
0.00229188
0.00202256
0.00175312
0.00148358
0.00121395
0.000944259
0.000674509
0.000404721
0.000134909
0.00016515
0.000495441
0.000825701
0.00115591
0.00148605
0.0018161
0.00214604
0.00247585
0.00280551
0.00313499
0.00346428
0.00379335
0.00412217
0.00445074
0.00477901
0.00510697
0.0054346
0.00576186
0.00608872
0.00641517
0.00674118
0.0070667
0.00739172
0.0077162
0.00804011
0.00836341
0.00868608
0.00900807
0.00932935
0.00964989
0.00996963
0.0102886
0.0106066
0.0109237
0.0112399
0.0115551
0.0118693
0.0121823
0.0124942
0.0128049
0.0131144
0.0134226
0.0137294
0.0140348
0.0143388
0.0146412
0.0149421
0.0152413
0.0155388
0.0158346
0.0161285
0.0164206
0.0167107
0.0169988
0.0172848
0.0175686
0.0178503
0.0181296
0.0184066
0.0186811
0.0189531
0.0192226
0.0194894
0.0197535
0.0200148
0.0202732
0.0205287
0.0207811
0.0210305
0.0212767
0.0215197
0.0217594
0.0219957
0.0222285
0.0224578
0.0226835
0.0229056
0.0231239
0.0233384
0.0235491
0.0237558
0.0239585
0.0241571
0.0243516
0.024542
0.024728
0.0249098
0.0250872
0.0252602
0.0254287
0.0255927
0.0257521
0.0259069
0.0260571
0.0262025
0.0263432
0.0264791
0.0266102
0.0267364
0.0268577
0.0269741
0.0270855
0.027192
0.0272935
0.0273899
0.0274813
0.0275677
0.0276489
0.0277251
0.0277962
0.0278622
0.0279231
0.0279789
0.0280296
0.0280752
0.0281156
0.028151
0.0281812
0.0282064
0.0282265
0.0282415
0.0282515
0.0282565
0.0282564
0.0282513
0.0282413
0.0282263
0.0282064
0.0281816
0.0281519
0.0281174
0.028078
0.0280339
0.027985
0.0279314
0.0278731
0.0278101
0.0277426
0.0276704
0.0275937
0.0275125
0.0274268
0.0273367
0.0272423
0.0271435
0.0270404
0.026933
0.0268214
0.0267056
0.0265858
0.0264618
0.0263338
0.0262019
0.0260659
0.0259261
0.0257825
0.025635
0.0254838
0.0253289
0.0251703
0.0250081
0.0248424
0.0246731
0.0245004
0.0243243
0.0241449
0.0239621
0.023776
0.0235868
0.0233944
0.0231989
0.0230003
0.0227988
0.0225943
0.0223869
0.0221766
0.0219635
0.0217477
0.0215292
0.0213081
0.0210844
0.0208581
0.0206293
0.0203981
0.0201645
0.0199286
0.0196903
0.0194499
0.0192072
0.0189625
0.0187156
0.0184667
0.0182158
0.0179629
0.0177082
0.0174516
0.0171932
0.0169331
0.0166713
0.0164078
0.0161427
0.015876
0.0156078
0.0153382
0.015067
0.0147945
0.0145207
0.0142455
0.0139691
0.0136914
0.0134126
0.0131326
0.0128515
0.0125693
0.0122861
0.0120019
0.0117167
0.0114306
0.0111436
0.0108557
0.0105671
0.0102776
0.00998732
0.00969633
0.00940465
0.00911229
0.00881928
0.00852566
0.00823145
0.00793668
0.00764137
0.00734555
0.00704925
0.00675248
0.00645528
0.00615767
0.00585966
0.00556129
0.00526258
0.00496353
0.00466419
0.00436456
0.00406467
0.00376454
0.00346418
0.00316362
0.00286288
0.00256196
0.0022609
0.00195971
0.00165841
0.00135701
0.00105553
0.000753993
0.000452413
0.000150807
0.000182572
0.000547704
0.000912803
0.00127785
0.00164282
0.00200769
0.00237243
0.00273704
0.00310148
0.00346572
0.00382975
0.00419355
0.00455708
0.00492031
0.00528324
0.00564581
0.00600802
0.00636983
0.00673121
0.00709213
0.00745255
0.00781246
0.0081718
0.00853056
0.00888868
0.00924615
0.00960291
0.00995893
0.0103142
0.0106686
0.0110221
0.0113748
0.0117265
0.0120772
0.0124268
0.0127753
0.0131227
0.0134689
0.0138138
0.0141574
0.0144997
0.0148405
0.0151798
0.0155176
0.0158537
0.0161882
0.016521
0.0168519
0.017181
0.0175081
0.0178333
0.0181563
0.0184772
0.0187959
0.0191122
0.0194262
0.0197377
0.0200467
0.0203531
0.0206568
0.0209577
0.0212558
0.021551
0.0218431
0.0221322
0.0224181
0.0227007
0.02298
0.0232559
0.0235283
0.0237971
0.0240623
0.0243237
0.0245813
0.024835
0.0250848
0.0253304
0.025572
0.0258093
0.0260424
0.0262711
0.0264954
0.0267152
0.0269304
0.027141
0.0273468
0.0275479
0.0277442
0.0279356
0.0281221
0.0283035
0.0284799
0.0286511
0.0288172
0.0289781
0.0291338
0.0292841
0.0294291
0.0295687
0.0297029
0.0298317
0.0299549
0.0300727
0.0301849
0.0302916
0.0303927
0.0304882
0.0305781
0.0306623
0.0307409
0.0308139
0.0308812
0.0309429
0.0309989
0.0310492
0.0310939
0.031133
0.0311664
0.0311942
0.0312163
0.0312329
0.0312439
0.0312493
0.0312491
0.0312435
0.0312323
0.0312157
0.0311936
0.031166
0.0311331
0.0310948
0.0310512
0.0310023
0.0309482
0.0308888
0.0308242
0.0307545
0.0306797
0.0305998
0.0305149
0.030425
0.0303302
0.0302304
0.0301259
0.0300165
0.0299024
0.0297835
0.0296601
0.029532
0.0293993
0.0292621
0.0291205
0.0289745
0.0288241
0.0286694
0.0285104
0.0283472
0.0281799
0.0280085
0.0278331
0.0276537
0.0274703
0.027283
0.027092
0.0268971
0.0266986
0.0264964
0.0262906
0.0260812
0.0258684
0.0256521
0.0254325
0.0252095
0.0249833
0.0247539
0.0245213
0.0242856
0.0240469
0.0238052
0.0235606
0.0233131
0.0230628
0.0228098
0.0225541
0.0222957
0.0220347
0.0217713
0.0215053
0.0212369
0.0209662
0.0206932
0.0204179
0.0201404
0.0198607
0.019579
0.0192953