/*--------------------------------*- C++ -*----------------------------------*\
| =========                 |                                                 |
| \\      /  F ield         | OpenFOAM: The Open Source CFD Toolbox           |
|  \\    /   O peration     | Version:  v2012                                 |
|   \\  /    A nd           | Website:  www.openfoam.com                      |
|    \\/     M anipulation  |                                                 |
\*---------------------------------------------------------------------------*/
FoamFile
{
    version     2.0;
    format      ascii;
    class       volVectorField;
    location    "2.3";
    object      U;
}
// * * * * * * * * * * * * * * * * * * * * * * * * * * * * * * * * * * * * * //

dimensions      [0 1 -1 0 0 0 0];


internalField   nonuniform List<vector> 
65536
(
(0.000706283 -0.000706263 0)
(0.0021188 -0.000706217 0)
(0.00353119 -0.000706127 0)
(0.00494335 -0.000705993 0)
(0.0063552 -0.000705815 0)
(0.00776665 -0.000705591 0)
(0.00917761 -0.00070532 0)
(0.010588 -0.000705004 0)
(0.0119977 -0.00070464 0)
(0.0134066 -0.000704227 0)
(0.0148146 -0.000703766 0)
(0.0162217 -0.000703254 0)
(0.0176277 -0.000702692 0)
(0.0190325 -0.000702077 0)
(0.020436 -0.000701408 0)
(0.0218382 -0.000700684 0)
(0.0232388 -0.000699904 0)
(0.0246379 -0.000699066 0)
(0.0260352 -0.000698168 0)
(0.0274306 -0.000697208 0)
(0.028824 -0.000696185 0)
(0.0302154 -0.000695097 0)
(0.0316045 -0.000693942 0)
(0.0329912 -0.000692718 0)
(0.0343754 -0.000691422 0)
(0.035757 -0.000690054 0)
(0.0371357 -0.000688609 0)
(0.0385115 -0.000687087 0)
(0.0398841 -0.000685484 0)
(0.0412535 -0.000683799 0)
(0.0426194 -0.000682029 0)
(0.0439817 -0.000680171 0)
(0.0453402 -0.000678224 0)
(0.0466947 -0.000676184 0)
(0.048045 -0.000674049 0)
(0.049391 -0.000671816 0)
(0.0507324 -0.000669484 0)
(0.052069 -0.000667048 0)
(0.0534007 -0.000664508 0)
(0.0547272 -0.000661859 0)
(0.0560482 -0.0006591 0)
(0.0573637 -0.000656228 0)
(0.0586732 -0.00065324 0)
(0.0599767 -0.000650134 0)
(0.0612739 -0.000646908 0)
(0.0625645 -0.000643558 0)
(0.0638483 -0.000640084 0)
(0.065125 -0.000636481 0)
(0.0663943 -0.000632748 0)
(0.0676561 -0.000628884 0)
(0.06891 -0.000624884 0)
(0.0701557 -0.000620749 0)
(0.0713931 -0.000616475 0)
(0.0726218 -0.00061206 0)
(0.0738415 -0.000607504 0)
(0.0750519 -0.000602804 0)
(0.0762529 -0.000597958 0)
(0.0774439 -0.000592966 0)
(0.0786249 -0.000587826 0)
(0.0797954 -0.000582537 0)
(0.0809552 -0.000577097 0)
(0.0821039 -0.000571506 0)
(0.0832413 -0.000565763 0)
(0.0843671 -0.000559867 0)
(0.085481 -0.000553818 0)
(0.0865825 -0.000547616 0)
(0.0876716 -0.000541261 0)
(0.0887477 -0.000534752 0)
(0.0898107 -0.00052809 0)
(0.0908603 -0.000521274 0)
(0.091896 -0.000514307 0)
(0.0929176 -0.000507188 0)
(0.0939249 -0.000499918 0)
(0.0949175 -0.000492499 0)
(0.095895 -0.000484931 0)
(0.0968573 -0.000477216 0)
(0.097804 -0.000469356 0)
(0.0987349 -0.000461352 0)
(0.0996496 -0.000453207 0)
(0.100548 -0.000444923 0)
(0.101429 -0.000436502 0)
(0.102294 -0.000427946 0)
(0.103141 -0.000419258 0)
(0.103971 -0.000410441 0)
(0.104783 -0.000401498 0)
(0.105577 -0.000392432 0)
(0.106353 -0.000383246 0)
(0.10711 -0.000373944 0)
(0.107849 -0.00036453 0)
(0.108569 -0.000355006 0)
(0.109269 -0.000345377 0)
(0.10995 -0.000335647 0)
(0.110612 -0.00032582 0)
(0.111254 -0.0003159 0)
(0.111875 -0.000305891 0)
(0.112477 -0.000295797 0)
(0.113059 -0.000285623 0)
(0.11362 -0.000275373 0)
(0.11416 -0.000265052 0)
(0.11468 -0.000254664 0)
(0.115179 -0.000244215 0)
(0.115657 -0.000233707 0)
(0.116114 -0.000223147 0)
(0.11655 -0.000212539 0)
(0.116964 -0.000201887 0)
(0.117357 -0.000191196 0)
(0.117729 -0.000180471 0)
(0.118079 -0.000169717 0)
(0.118408 -0.000158937 0)
(0.118715 -0.000148137 0)
(0.119 -0.000137321 0)
(0.119264 -0.000126493 0)
(0.119506 -0.000115659 0)
(0.119727 -0.000104822 0)
(0.119926 -9.39862e-05 0)
(0.120103 -8.31565e-05 0)
(0.120258 -7.23366e-05 0)
(0.120392 -6.15308e-05 0)
(0.120504 -5.07429e-05 0)
(0.120595 -3.99768e-05 0)
(0.120664 -2.92363e-05 0)
(0.120712 -1.85251e-05 0)
(0.120738 -7.8467e-06 0)
(0.120743 2.79533e-06 0)
(0.120727 1.33976e-05 0)
(0.12069 2.3957e-05 0)
(0.120631 3.44702e-05 0)
(0.120552 4.49341e-05 0)
(0.120451 5.5346e-05 0)
(0.12033 6.57027e-05 0)
(0.120189 7.60017e-05 0)
(0.120026 8.62403e-05 0)
(0.119844 9.6416e-05 0)
(0.119641 0.000106526 0)
(0.119417 0.000116569 0)
(0.119174 0.000126541 0)
(0.118911 0.000136441 0)
(0.118628 0.000146267 0)
(0.118326 0.000156017 0)
(0.118004 0.000165689 0)
(0.117663 0.000175281 0)
(0.117303 0.000184791 0)
(0.116924 0.000194218 0)
(0.116526 0.00020356 0)
(0.11611 0.000212815 0)
(0.115675 0.000221983 0)
(0.115222 0.000231061 0)
(0.11475 0.000240049 0)
(0.114261 0.000248945 0)
(0.113755 0.000257749 0)
(0.11323 0.000266458 0)
(0.112689 0.000275071 0)
(0.11213 0.000283589 0)
(0.111554 0.000292009 0)
(0.110962 0.000300331 0)
(0.110353 0.000308554 0)
(0.109727 0.000316677 0)
(0.109086 0.000324699 0)
(0.108429 0.00033262 0)
(0.107755 0.000340438 0)
(0.107067 0.000348153 0)
(0.106363 0.000355765 0)
(0.105644 0.000363272 0)
(0.10491 0.000370674 0)
(0.104161 0.000377971 0)
(0.103398 0.000385161 0)
(0.10262 0.000392245 0)
(0.101828 0.000399223 0)
(0.101023 0.000406092 0)
(0.100204 0.000412854 0)
(0.0993715 0.000419508 0)
(0.0985258 0.000426054 0)
(0.0976672 0.000432491 0)
(0.0967957 0.000438819 0)
(0.0959118 0.000445038 0)
(0.0950155 0.000451148 0)
(0.0941071 0.000457148 0)
(0.0931868 0.000463039 0)
(0.0922548 0.000468821 0)
(0.0913114 0.000474494 0)
(0.0903567 0.000480057 0)
(0.0893911 0.000485511 0)
(0.0884146 0.000490856 0)
(0.0874275 0.000496093 0)
(0.0864301 0.000501221 0)
(0.0854225 0.00050624 0)
(0.084405 0.000511153 0)
(0.0833778 0.000515957 0)
(0.0823411 0.000520655 0)
(0.0812951 0.000525247 0)
(0.08024 0.000529733 0)
(0.0791761 0.000534113 0)
(0.0781035 0.000538389 0)
(0.0770224 0.000542562 0)
(0.0759331 0.000546631 0)
(0.0748358 0.000550598 0)
(0.0737306 0.000554464 0)
(0.0726178 0.000558229 0)
(0.0714976 0.000561895 0)
(0.0703701 0.000565462 0)
(0.0692356 0.000568932 0)
(0.0680943 0.000572306 0)
(0.0669463 0.000575584 0)
(0.0657919 0.000578768 0)
(0.0646312 0.00058186 0)
(0.0634643 0.000584859 0)
(0.0622916 0.000587768 0)
(0.0611132 0.000590588 0)
(0.0599292 0.00059332 0)
(0.0587398 0.000595966 0)
(0.0575452 0.000598526 0)
(0.0563456 0.000601003 0)
(0.0551411 0.000603397 0)
(0.053932 0.000605711 0)
(0.0527182 0.000607944 0)
(0.0515001 0.0006101 0)
(0.0502777 0.000612179 0)
(0.0490513 0.000614183 0)
(0.0478209 0.000616113 0)
(0.0465868 0.000617971 0)
(0.045349 0.000619758 0)
(0.0441077 0.000621475 0)
(0.042863 0.000623125 0)
(0.0416151 0.000624708 0)
(0.0403641 0.000626226 0)
(0.0391101 0.00062768 0)
(0.0378533 0.000629072 0)
(0.0365938 0.000630403 0)
(0.0353317 0.000631674 0)
(0.034067 0.000632887 0)
(0.0328 0.000634043 0)
(0.0315308 0.000635144 0)
(0.0302594 0.00063619 0)
(0.028986 0.000637182 0)
(0.0277106 0.000638123 0)
(0.0264334 0.000639012 0)
(0.0251545 0.000639852 0)
(0.023874 0.000640643 0)
(0.0225919 0.000641386 0)
(0.0213084 0.000642083 0)
(0.0200235 0.000642733 0)
(0.0187374 0.000643338 0)
(0.0174501 0.000643899 0)
(0.0161618 0.000644417 0)
(0.0148724 0.000644892 0)
(0.0135822 0.000645325 0)
(0.0122911 0.000645717 0)
(0.0109992 0.000646068 0)
(0.00970675 0.000646378 0)
(0.00841369 0.000646649 0)
(0.00712012 0.00064688 0)
(0.00582612 0.000647072 0)
(0.00453179 0.000647226 0)
(0.00323718 0.00064734 0)
(0.00194238 0.000647416 0)
(0.000647474 0.000647455 0)
(0.000706325 -0.00211882 0)
(0.00211893 -0.00211869 0)
(0.0035314 -0.00211842 0)
(0.00494366 -0.00211802 0)
(0.0063556 -0.00211749 0)
(0.00776713 -0.00211681 0)
(0.00917818 -0.002116 0)
(0.0105886 -0.00211505 0)
(0.0119984 -0.00211396 0)
(0.0134074 -0.00211273 0)
(0.0148156 -0.00211134 0)
(0.0162227 -0.00210981 0)
(0.0176288 -0.00210812 0)
(0.0190338 -0.00210628 0)
(0.0204374 -0.00210428 0)
(0.0218397 -0.00210211 0)
(0.0232404 -0.00209977 0)
(0.0246396 -0.00209725 0)
(0.026037 -0.00209456 0)
(0.0274325 -0.00209168 0)
(0.0288261 -0.00208862 0)
(0.0302176 -0.00208536 0)
(0.0316068 -0.00208189 0)
(0.0329937 -0.00207822 0)
(0.034378 -0.00207434 0)
(0.0357597 -0.00207023 0)
(0.0371386 -0.0020659 0)
(0.0385146 -0.00206134 0)
(0.0398874 -0.00205653 0)
(0.0412569 -0.00205148 0)
(0.042623 -0.00204617 0)
(0.0439855 -0.0020406 0)
(0.0453441 -0.00203476 0)
(0.0466988 -0.00202864 0)
(0.0480493 -0.00202224 0)
(0.0493955 -0.00201555 0)
(0.0507371 -0.00200855 0)
(0.0520739 -0.00200125 0)
(0.0534058 -0.00199363 0)
(0.0547325 -0.00198568 0)
(0.0560538 -0.00197741 0)
(0.0573694 -0.0019688 0)
(0.0586793 -0.00195984 0)
(0.059983 -0.00195052 0)
(0.0612804 -0.00194084 0)
(0.0625712 -0.0019308 0)
(0.0638553 -0.00192038 0)
(0.0651322 -0.00190957 0)
(0.0664018 -0.00189838 0)
(0.0676639 -0.00188678 0)
(0.068918 -0.00187479 0)
(0.0701641 -0.00186238 0)
(0.0714017 -0.00184956 0)
(0.0726307 -0.00183632 0)
(0.0738507 -0.00182265 0)
(0.0750614 -0.00180856 0)
(0.0762626 -0.00179402 0)
(0.077454 -0.00177905 0)
(0.0786352 -0.00176363 0)
(0.079806 -0.00174776 0)
(0.0809661 -0.00173144 0)
(0.0821152 -0.00171467 0)
(0.0832529 -0.00169744 0)
(0.084379 -0.00167975 0)
(0.0854931 -0.00166161 0)
(0.086595 -0.001643 0)
(0.0876843 -0.00162394 0)
(0.0887608 -0.00160441 0)
(0.0898241 -0.00158442 0)
(0.0908739 -0.00156398 0)
(0.09191 -0.00154307 0)
(0.0929319 -0.00152171 0)
(0.0939395 -0.0014999 0)
(0.0949324 -0.00147764 0)
(0.0959102 -0.00145494 0)
(0.0968728 -0.00143179 0)
(0.0978198 -0.00140821 0)
(0.098751 -0.0013842 0)
(0.0996659 -0.00135976 0)
(0.100564 -0.00133491 0)
(0.101446 -0.00130964 0)
(0.102311 -0.00128397 0)
(0.103159 -0.0012579 0)
(0.103989 -0.00123145 0)
(0.104801 -0.00120462 0)
(0.105595 -0.00117742 0)
(0.106371 -0.00114986 0)
(0.107129 -0.00112195 0)
(0.107868 -0.0010937 0)
(0.108588 -0.00106513 0)
(0.109288 -0.00103624 0)
(0.10997 -0.00100704 0)
(0.110631 -0.000977556 0)
(0.111273 -0.000947791 0)
(0.111896 -0.000917759 0)
(0.112497 -0.000887473 0)
(0.113079 -0.000856947 0)
(0.11364 -0.000826193 0)
(0.114181 -0.000795226 0)
(0.114701 -0.000764058 0)
(0.1152 -0.000732704 0)
(0.115678 -0.000701178 0)
(0.116135 -0.000669493 0)
(0.116571 -0.000637663 0)
(0.116985 -0.000605703 0)
(0.117379 -0.000573626 0)
(0.11775 -0.000541446 0)
(0.118101 -0.000509178 0)
(0.118429 -0.000476835 0)
(0.118736 -0.00044443 0)
(0.119022 -0.000411978 0)
(0.119286 -0.000379491 0)
(0.119528 -0.000346983 0)
(0.119748 -0.000314467 0)
(0.119947 -0.000281957 0)
(0.120124 -0.000249463 0)
(0.12028 -0.000217 0)
(0.120414 -0.000184578 0)
(0.120526 -0.000152211 0)
(0.120617 -0.000119909 0)
(0.120686 -8.76834e-05 0)
(0.120733 -5.55462e-05 0)
(0.12076 -2.35076e-05 0)
(0.120765 8.42181e-06 0)
(0.120748 4.0232e-05 0)
(0.120711 7.19132e-05 0)
(0.120652 0.000103456 0)
(0.120573 0.000134851 0)
(0.120472 0.000166089 0)
(0.120351 0.000197162 0)
(0.120209 0.000228062 0)
(0.120047 0.00025878 0)
(0.119864 0.000289309 0)
(0.119661 0.000319642 0)
(0.119437 0.000349772 0)
(0.119194 0.000379691 0)
(0.118931 0.000409394 0)
(0.118648 0.000438874 0)
(0.118345 0.000468126 0)
(0.118024 0.000497143 0)
(0.117682 0.00052592 0)
(0.117322 0.000554452 0)
(0.116943 0.000582734 0)
(0.116545 0.000610761 0)
(0.116128 0.000638529 0)
(0.115693 0.000666034 0)
(0.11524 0.000693271 0)
(0.114768 0.000720236 0)
(0.114279 0.000746926 0)
(0.113772 0.000773336 0)
(0.113248 0.000799464 0)
(0.112706 0.000825307 0)
(0.112147 0.00085086 0)
(0.111571 0.000876122 0)
(0.110978 0.000901089 0)
(0.110369 0.000925759 0)
(0.109744 0.000950129 0)
(0.109102 0.000974196 0)
(0.108444 0.000997958 0)
(0.107771 0.00102141 0)
(0.107082 0.00104456 0)
(0.106378 0.0010674 0)
(0.105658 0.00108992 0)
(0.104924 0.00111212 0)
(0.104175 0.00113401 0)
(0.103412 0.00115559 0)
(0.102634 0.00117684 0)
(0.101842 0.00119777 0)
(0.101037 0.00121838 0)
(0.100217 0.00123867 0)
(0.0993847 0.00125863 0)
(0.0985388 0.00127827 0)
(0.09768 0.00129758 0)
(0.0968083 0.00131656 0)
(0.0959242 0.00133522 0)
(0.0950276 0.00135355 0)
(0.094119 0.00137155 0)
(0.0931985 0.00138923 0)
(0.0922663 0.00140657 0)
(0.0913227 0.00142359 0)
(0.0903678 0.00144028 0)
(0.0894019 0.00145664 0)
(0.0884252 0.00147268 0)
(0.0874379 0.00148839 0)
(0.0864403 0.00150377 0)
(0.0854325 0.00151883 0)
(0.0844148 0.00153356 0)
(0.0833874 0.00154798 0)
(0.0823504 0.00156207 0)
(0.0813042 0.00157585 0)
(0.0802489 0.0015893 0)
(0.0791848 0.00160244 0)
(0.078112 0.00161527 0)
(0.0770307 0.00162779 0)
(0.0759412 0.00163999 0)
(0.0748437 0.0016519 0)
(0.0737383 0.00166349 0)
(0.0726253 0.00167479 0)
(0.0715049 0.00168578 0)
(0.0703772 0.00169649 0)
(0.0692425 0.00170689 0)
(0.068101 0.00171701 0)
(0.0669528 0.00172685 0)
(0.0657982 0.0017364 0)
(0.0646373 0.00174567 0)
(0.0634703 0.00175467 0)
(0.0622974 0.0017634 0)
(0.0611188 0.00177185 0)
(0.0599346 0.00178005 0)
(0.0587451 0.00178798 0)
(0.0575503 0.00179566 0)
(0.0563505 0.00180309 0)
(0.0551459 0.00181027 0)
(0.0539365 0.00181721 0)
(0.0527227 0.00182391 0)
(0.0515044 0.00183038 0)
(0.0502819 0.00183661 0)
(0.0490553 0.00184262 0)
(0.0478248 0.00184841 0)
(0.0465905 0.00185398 0)
(0.0453525 0.00185934 0)
(0.0441111 0.00186449 0)
(0.0428663 0.00186944 0)
(0.0416182 0.00187419 0)
(0.0403671 0.00187874 0)
(0.039113 0.0018831 0)
(0.0378561 0.00188728 0)
(0.0365964 0.00189127 0)
(0.0353342 0.00189508 0)
(0.0340694 0.00189872 0)
(0.0328023 0.00190219 0)
(0.031533 0.00190549 0)
(0.0302615 0.00190862 0)
(0.028988 0.0019116 0)
(0.0277125 0.00191442 0)
(0.0264352 0.00191709 0)
(0.0251562 0.00191961 0)
(0.0238755 0.00192198 0)
(0.0225934 0.00192421 0)
(0.0213098 0.0019263 0)
(0.0200248 0.00192825 0)
(0.0187386 0.00193006 0)
(0.0174512 0.00193174 0)
(0.0161628 0.0019333 0)
(0.0148733 0.00193472 0)
(0.013583 0.00193602 0)
(0.0122918 0.00193719 0)
(0.0109999 0.00193825 0)
(0.00970734 0.00193918 0)
(0.00841419 0.00193999 0)
(0.00712055 0.00194068 0)
(0.00582647 0.00194126 0)
(0.00453206 0.00194172 0)
(0.00323737 0.00194206 0)
(0.0019425 0.00194229 0)
(0.000647512 0.0019424 0)
(0.000706415 -0.00353152 0)
(0.0021192 -0.0035313 0)
(0.00353185 -0.00353085 0)
(0.00494428 -0.00353018 0)
(0.00635641 -0.00352929 0)
(0.00776813 -0.00352817 0)
(0.00917936 -0.00352683 0)
(0.01059 -0.00352525 0)
(0.012 -0.00352343 0)
(0.0134092 -0.00352137 0)
(0.0148175 -0.00351907 0)
(0.0162249 -0.00351652 0)
(0.0176312 -0.00351371 0)
(0.0190363 -0.00351064 0)
(0.0204402 -0.00350731 0)
(0.0218427 -0.0035037 0)
(0.0232437 -0.0034998 0)
(0.024643 -0.00349562 0)
(0.0260407 -0.00349114 0)
(0.0274365 -0.00348635 0)
(0.0288303 -0.00348124 0)
(0.0302221 -0.00347581 0)
(0.0316116 -0.00347005 0)
(0.0329987 -0.00346394 0)
(0.0343834 -0.00345747 0)
(0.0357654 -0.00345064 0)
(0.0371446 -0.00344343 0)
(0.0385208 -0.00343583 0)
(0.039894 -0.00342783 0)
(0.0412638 -0.00341941 0)
(0.0426303 -0.00341058 0)
(0.0439931 -0.0034013 0)
(0.0453521 -0.00339158 0)
(0.0467072 -0.00338139 0)
(0.0480581 -0.00337073 0)
(0.0494046 -0.00335958 0)
(0.0507466 -0.00334793 0)
(0.0520839 -0.00333576 0)
(0.0534162 -0.00332307 0)
(0.0547433 -0.00330984 0)
(0.0560651 -0.00329606 0)
(0.0573812 -0.00328171 0)
(0.0586915 -0.00326679 0)
(0.0599957 -0.00325127 0)
(0.0612936 -0.00323515 0)
(0.0625849 -0.00321841 0)
(0.0638694 -0.00320105 0)
(0.0651469 -0.00318305 0)
(0.0664171 -0.0031644 0)
(0.0676796 -0.00314509 0)
(0.0689343 -0.0031251 0)
(0.0701809 -0.00310443 0)
(0.0714191 -0.00308307 0)
(0.0726486 -0.00306101 0)
(0.0738692 -0.00303824 0)
(0.0750805 -0.00301474 0)
(0.0762823 -0.00299052 0)
(0.0774743 -0.00296557 0)
(0.0786561 -0.00293987 0)
(0.0798275 -0.00291343 0)
(0.0809882 -0.00288624 0)
(0.0821379 -0.00285829 0)
(0.0832762 -0.00282958 0)
(0.0844029 -0.0028001 0)
(0.0855177 -0.00276986 0)
(0.0866202 -0.00273885 0)
(0.0877101 -0.00270707 0)
(0.0887872 -0.00267453 0)
(0.0898511 -0.00264121 0)
(0.0909016 -0.00260713 0)
(0.0919382 -0.00257229 0)
(0.0929608 -0.00253669 0)
(0.0939689 -0.00250034 0)
(0.0949624 -0.00246324 0)
(0.0959408 -0.00242539 0)
(0.096904 -0.00238681 0)
(0.0978516 -0.0023475 0)
(0.0987833 -0.00230747 0)
(0.0996988 -0.00226674 0)
(0.100598 -0.0022253 0)
(0.10148 -0.00218318 0)
(0.102346 -0.00214039 0)
(0.103194 -0.00209694 0)
(0.104024 -0.00205284 0)
(0.104837 -0.00200811 0)
(0.105632 -0.00196276 0)
(0.106409 -0.00191681 0)
(0.107167 -0.00187029 0)
(0.107906 -0.0018232 0)
(0.108626 -0.00177556 0)
(0.109327 -0.0017274 0)
(0.110009 -0.00167873 0)
(0.110671 -0.00162957 0)
(0.111313 -0.00157995 0)
(0.111936 -0.00152988 0)
(0.112538 -0.00147939 0)
(0.11312 -0.0014285 0)
(0.113682 -0.00137723 0)
(0.114222 -0.0013256 0)
(0.114743 -0.00127364 0)
(0.115242 -0.00122137 0)
(0.11572 -0.00116881 0)
(0.116177 -0.00111598 0)
(0.116613 -0.00106292 0)
(0.117028 -0.00100963 0)
(0.117421 -0.000956158 0)
(0.117793 -0.00090251 0)
(0.118144 -0.000848714 0)
(0.118473 -0.000794793 0)
(0.11878 -0.00074077 0)
(0.119065 -0.000686668 0)
(0.119329 -0.000632509 0)
(0.119571 -0.000578315 0)
(0.119792 -0.000524108 0)
(0.119991 -0.000469909 0)
(0.120168 -0.000415739 0)
(0.120323 -0.00036162 0)
(0.120457 -0.000307571 0)
(0.120569 -0.000253612 0)
(0.12066 -0.000199763 0)
(0.120729 -0.000146042 0)
(0.120776 -9.24682e-05 0)
(0.120802 -3.9059e-05 0)
(0.120807 1.41679e-05 0)
(0.120791 6.71959e-05 0)
(0.120753 0.000120008 0)
(0.120694 0.00017259 0)
(0.120614 0.000224924 0)
(0.120514 0.000276997 0)
(0.120392 0.000328795 0)
(0.12025 0.000380303 0)
(0.120088 0.000431509 0)
(0.119904 0.000482399 0)
(0.119701 0.000532962 0)
(0.119477 0.000583186 0)
(0.119234 0.000633059 0)
(0.11897 0.000682571 0)
(0.118687 0.000731711 0)
(0.118384 0.000780469 0)
(0.118062 0.000828837 0)
(0.117721 0.000876805 0)
(0.11736 0.000924364 0)
(0.11698 0.000971506 0)
(0.116582 0.00101822 0)
(0.116165 0.00106451 0)
(0.11573 0.00111035 0)
(0.115276 0.00115575 0)
(0.114804 0.0012007 0)
(0.114314 0.00124519 0)
(0.113807 0.00128921 0)
(0.113282 0.00133276 0)
(0.11274 0.00137583 0)
(0.112181 0.00141842 0)
(0.111604 0.00146053 0)
(0.111011 0.00150215 0)
(0.110402 0.00154326 0)
(0.109776 0.00158388 0)
(0.109134 0.001624 0)
(0.108476 0.0016636 0)
(0.107802 0.0017027 0)
(0.107113 0.00174128 0)
(0.106408 0.00177934 0)
(0.105688 0.00181688 0)
(0.104954 0.00185389 0)
(0.104204 0.00189038 0)
(0.10344 0.00192633 0)
(0.102662 0.00196176 0)
(0.10187 0.00199665 0)
(0.101064 0.002031 0)
(0.100244 0.00206481 0)
(0.0994111 0.00209808 0)
(0.0985648 0.00213081 0)
(0.0977055 0.002163 0)
(0.0968334 0.00219464 0)
(0.0959488 0.00222573 0)
(0.0950518 0.00225628 0)
(0.0941428 0.00228629 0)
(0.0932218 0.00231574 0)
(0.0922892 0.00234465 0)
(0.0913451 0.00237301 0)
(0.0903898 0.00240083 0)
(0.0894235 0.0024281 0)
(0.0884464 0.00245482 0)
(0.0874587 0.002481 0)
(0.0864606 0.00250664 0)
(0.0854524 0.00253174 0)
(0.0844342 0.0025563 0)
(0.0834064 0.00258032 0)
(0.082369 0.00260381 0)
(0.0813224 0.00262676 0)
(0.0802666 0.00264919 0)
(0.0792021 0.00267109 0)
(0.0781288 0.00269246 0)
(0.0770472 0.00271332 0)
(0.0759572 0.00273367 0)
(0.0748593 0.0027535 0)
(0.0737535 0.00277282 0)
(0.0726401 0.00279164 0)
(0.0715193 0.00280997 0)
(0.0703913 0.0028278 0)
(0.0692562 0.00284514 0)
(0.0681143 0.00286201 0)
(0.0669657 0.00287839 0)
(0.0658107 0.00289431 0)
(0.0646495 0.00290976 0)
(0.0634821 0.00292475 0)
(0.0623088 0.00293929 0)
(0.0611299 0.00295338 0)
(0.0599453 0.00296704 0)
(0.0587555 0.00298026 0)
(0.0575604 0.00299305 0)
(0.0563603 0.00300543 0)
(0.0551553 0.00301739 0)
(0.0539456 0.00302895 0)
(0.0527314 0.00304012 0)
(0.0515128 0.00305089 0)
(0.05029 0.00306127 0)
(0.0490631 0.00307129 0)
(0.0478323 0.00308093 0)
(0.0465977 0.00309021 0)
(0.0453595 0.00309914 0)
(0.0441178 0.00310772 0)
(0.0428727 0.00311596 0)
(0.0416244 0.00312387 0)
(0.040373 0.00313145 0)
(0.0391187 0.00313871 0)
(0.0378615 0.00314567 0)
(0.0366016 0.00315232 0)
(0.0353391 0.00315867 0)
(0.0340742 0.00316473 0)
(0.0328068 0.0031705 0)
(0.0315373 0.003176 0)
(0.0302655 0.00318122 0)
(0.0289918 0.00318618 0)
(0.0277161 0.00319087 0)
(0.0264386 0.00319532 0)
(0.0251594 0.00319951 0)
(0.0238786 0.00320346 0)
(0.0225962 0.00320717 0)
(0.0213124 0.00321065 0)
(0.0200273 0.0032139 0)
(0.0187409 0.00321692 0)
(0.0174534 0.00321972 0)
(0.0161648 0.00322231 0)
(0.0148751 0.00322468 0)
(0.0135846 0.00322684 0)
(0.0122933 0.00322879 0)
(0.0110012 0.00323055 0)
(0.0097085 0.0032321 0)
(0.00841519 0.00323345 0)
(0.00712139 0.0032346 0)
(0.00582716 0.00323556 0)
(0.00453259 0.00323633 0)
(0.00323775 0.0032369 0)
(0.00194273 0.00323728 0)
(0.000647588 0.00323747 0)
(0.000706548 -0.00494444 0)
(0.0021196 -0.00494413 0)
(0.00353252 -0.00494351 0)
(0.00494522 -0.00494257 0)
(0.00635762 -0.00494133 0)
(0.00776961 -0.00493977 0)
(0.00918112 -0.00493788 0)
(0.0105921 -0.00493568 0)
(0.0120023 -0.00493314 0)
(0.0134118 -0.00493027 0)
(0.0148204 -0.00492705 0)
(0.0162281 -0.00492349 0)
(0.0176347 -0.00491957 0)
(0.0190402 -0.00491528 0)
(0.0204444 -0.00491062 0)
(0.0218472 -0.00490557 0)
(0.0232485 -0.00490013 0)
(0.0246483 -0.00489429 0)
(0.0260463 -0.00488802 0)
(0.0274425 -0.00488133 0)
(0.0288367 -0.0048742 0)
(0.0302288 -0.00486661 0)
(0.0316187 -0.00485855 0)
(0.0330063 -0.00485001 0)
(0.0343914 -0.00484097 0)
(0.0357738 -0.00483142 0)
(0.0371535 -0.00482134 0)
(0.0385302 -0.00481072 0)
(0.0399038 -0.00479954 0)
(0.0412742 -0.00478777 0)
(0.0426412 -0.00477542 0)
(0.0440045 -0.00476245 0)
(0.0453641 -0.00474885 0)
(0.0467197 -0.00473461 0)
(0.0480712 -0.0047197 0)
(0.0494183 -0.00470411 0)
(0.050761 -0.00468782 0)
(0.0520989 -0.00467081 0)
(0.0534318 -0.00465306 0)
(0.0547596 -0.00463455 0)
(0.056082 -0.00461528 0)
(0.0573988 -0.00459521 0)
(0.0587098 -0.00457433 0)
(0.0600147 -0.00455262 0)
(0.0613133 -0.00453007 0)
(0.0626054 -0.00450666 0)
(0.0638907 -0.00448237 0)
(0.0651689 -0.00445718 0)
(0.0664399 -0.00443109 0)
(0.0677032 -0.00440406 0)
(0.0689588 -0.0043761 0)
(0.0702062 -0.00434718 0)
(0.0714452 -0.00431728 0)
(0.0726756 -0.00428641 0)
(0.073897 -0.00425454 0)
(0.0751092 -0.00422166 0)
(0.0763119 -0.00418776 0)
(0.0775047 -0.00415283 0)
(0.0786874 -0.00411687 0)
(0.0798598 -0.00407986 0)
(0.0810214 -0.00404179 0)
(0.0821719 -0.00400267 0)
(0.0833112 -0.00396247 0)
(0.0844388 -0.00392121 0)
(0.0855545 -0.00387888 0)
(0.0866579 -0.00383546 0)
(0.0877488 -0.00379097 0)
(0.0888268 -0.00374541 0)
(0.0898916 -0.00369877 0)
(0.090943 -0.00365106 0)
(0.0919805 -0.00360227 0)
(0.093004 -0.00355243 0)
(0.0940131 -0.00350152 0)
(0.0950074 -0.00344957 0)
(0.0959868 -0.00339657 0)
(0.0969508 -0.00334255 0)
(0.0978993 -0.0032875 0)
(0.0988318 -0.00323145 0)
(0.0997482 -0.00317441 0)
(0.100648 -0.00311638 0)
(0.101531 -0.0030574 0)
(0.102398 -0.00299747 0)
(0.103246 -0.00293661 0)
(0.104078 -0.00287485 0)
(0.104891 -0.00281221 0)
(0.105687 -0.0027487 0)
(0.106464 -0.00268436 0)
(0.107223 -0.00261919 0)
(0.107963 -0.00255324 0)
(0.108684 -0.00248652 0)
(0.109385 -0.00241907 0)
(0.110068 -0.0023509 0)
(0.11073 -0.00228205 0)
(0.111373 -0.00221255 0)
(0.111996 -0.00214243 0)
(0.112599 -0.00207171 0)
(0.113181 -0.00200043 0)
(0.113743 -0.00192862 0)
(0.114285 -0.00185631 0)
(0.114805 -0.00178353 0)
(0.115305 -0.00171031 0)
(0.115784 -0.0016367 0)
(0.116241 -0.00156271 0)
(0.116677 -0.00148839 0)
(0.117092 -0.00141376 0)
(0.117486 -0.00133886 0)
(0.117858 -0.00126372 0)
(0.118208 -0.00118837 0)
(0.118537 -0.00111285 0)
(0.118845 -0.00103719 0)
(0.11913 -0.000961415 0)
(0.119394 -0.000885561 0)
(0.119637 -0.000809659 0)
(0.119857 -0.000733739 0)
(0.120056 -0.000657831 0)
(0.120233 -0.000581965 0)
(0.120388 -0.000506169 0)
(0.120522 -0.000430473 0)
(0.120634 -0.000354903 0)
(0.120724 -0.000279488 0)
(0.120793 -0.000204253 0)
(0.12084 -0.000129224 0)
(0.120866 -5.44272e-05 0)
(0.120871 2.01143e-05 0)
(0.120854 9.43763e-05 0)
(0.120816 0.000168336 0)
(0.120757 0.000241971 0)
(0.120677 0.00031526 0)
(0.120576 0.000388183 0)
(0.120454 0.000460719 0)
(0.120312 0.000532849 0)
(0.120149 0.000604555 0)
(0.119965 0.000675818 0)
(0.119762 0.000746623 0)
(0.119538 0.000816951 0)
(0.119294 0.000886789 0)
(0.11903 0.00095612 0)
(0.118746 0.00102493 0)
(0.118443 0.0010932 0)
(0.11812 0.00116093 0)
(0.117778 0.0012281 0)
(0.117417 0.00129469 0)
(0.117037 0.0013607 0)
(0.116638 0.00142612 0)
(0.11622 0.00149093 0)
(0.115784 0.00155512 0)
(0.11533 0.00161869 0)
(0.114858 0.00168162 0)
(0.114368 0.00174391 0)
(0.11386 0.00180555 0)
(0.113334 0.00186653 0)
(0.112791 0.00192684 0)
(0.112232 0.00198648 0)
(0.111655 0.00204543 0)
(0.111061 0.0021037 0)
(0.110451 0.00216127 0)
(0.109824 0.00221814 0)
(0.109182 0.00227431 0)
(0.108523 0.00232976 0)
(0.107849 0.0023845 0)
(0.107159 0.00243852 0)
(0.106453 0.00249181 0)
(0.105733 0.00254436 0)
(0.104998 0.00259619 0)
(0.104248 0.00264727 0)
(0.103483 0.00269761 0)
(0.102704 0.00274721 0)
(0.101912 0.00279606 0)
(0.101105 0.00284415 0)
(0.100284 0.00289149 0)
(0.0994507 0.00293807 0)
(0.0986037 0.00298389 0)
(0.0977438 0.00302896 0)
(0.096871 0.00307326 0)
(0.0959858 0.00311679 0)
(0.0950882 0.00315956 0)
(0.0941784 0.00320157 0)
(0.0932568 0.0032428 0)
(0.0923236 0.00328328 0)
(0.0913788 0.00332298 0)
(0.0904228 0.00336192 0)
(0.0894559 0.0034001 0)
(0.0884781 0.00343751 0)
(0.0874897 0.00347416 0)
(0.086491 0.00351006 0)
(0.0854821 0.00354519 0)
(0.0844633 0.00357957 0)
(0.0834348 0.0036132 0)
(0.0823968 0.00364607 0)
(0.0813496 0.00367821 0)
(0.0802932 0.0037096 0)
(0.079228 0.00374025 0)
(0.0781541 0.00377018 0)
(0.0770718 0.00379937 0)
(0.0759813 0.00382785 0)
(0.0748828 0.00385561 0)
(0.0737764 0.00388265 0)
(0.0726624 0.003909 0)
(0.071541 0.00393465 0)
(0.0704124 0.0039596 0)
(0.0692767 0.00398388 0)
(0.0681342 0.00400748 0)
(0.0669851 0.00403041 0)
(0.0658295 0.00405268 0)
(0.0646677 0.0040743 0)
(0.0634998 0.00409528 0)
(0.062326 0.00411563 0)
(0.0611465 0.00413535 0)
(0.0599614 0.00415446 0)
(0.058771 0.00417296 0)
(0.0575754 0.00419086 0)
(0.0563748 0.00420818 0)
(0.0551694 0.00422492 0)
(0.0539592 0.00424109 0)
(0.0527445 0.00425671 0)
(0.0515255 0.00427178 0)
(0.0503022 0.00428631 0)
(0.0490749 0.00430032 0)
(0.0478436 0.00431381 0)
(0.0466086 0.00432679 0)
(0.04537 0.00433928 0)
(0.0441279 0.00435128 0)
(0.0428824 0.00436281 0)
(0.0416337 0.00437387 0)
(0.0403819 0.00438448 0)
(0.0391272 0.00439464 0)
(0.0378696 0.00440436 0)
(0.0366094 0.00441366 0)
(0.0353465 0.00442254 0)
(0.0340812 0.00443101 0)
(0.0328136 0.00443909 0)
(0.0315437 0.00444677 0)
(0.0302716 0.00445408 0)
(0.0289976 0.00446101 0)
(0.0277216 0.00446758 0)
(0.0264438 0.00447379 0)
(0.0251643 0.00447966 0)
(0.0238832 0.00448518 0)
(0.0226005 0.00449037 0)
(0.0213165 0.00449523 0)
(0.0200311 0.00449977 0)
(0.0187444 0.00450399 0)
(0.0174566 0.00450791 0)
(0.0161677 0.00451153 0)
(0.0148779 0.00451484 0)
(0.0135871 0.00451786 0)
(0.0122955 0.0045206 0)
(0.0110032 0.00452305 0)
(0.00971024 0.00452521 0)
(0.00841669 0.0045271 0)
(0.00712265 0.00452871 0)
(0.00582819 0.00453006 0)
(0.00453339 0.00453113 0)
(0.00323833 0.00453193 0)
(0.00194307 0.00453246 0)
(0.000647703 0.00453272 0)
(0.000706726 -0.00635767 0)
(0.00212013 -0.00635727 0)
(0.00353341 -0.00635647 0)
(0.00494647 -0.00635528 0)
(0.00635923 -0.00635368 0)
(0.00777159 -0.00635168 0)
(0.00918347 -0.00634927 0)
(0.0105948 -0.00634644 0)
(0.0120054 -0.00634319 0)
(0.0134153 -0.0063395 0)
(0.0148243 -0.00633538 0)
(0.0162324 -0.00633081 0)
(0.0176394 -0.00632578 0)
(0.0190453 -0.00632029 0)
(0.0204499 -0.00631431 0)
(0.0218532 -0.00630784 0)
(0.023255 -0.00630087 0)
(0.0246552 -0.00629337 0)
(0.0260537 -0.00628534 0)
(0.0274504 -0.00627676 0)
(0.0288451 -0.00626761 0)
(0.0302378 -0.00625788 0)
(0.0316283 -0.00624754 0)
(0.0330164 -0.00623659 0)
(0.034402 -0.00622499 0)
(0.0357851 -0.00621274 0)
(0.0371654 -0.00619981 0)
(0.0385427 -0.00618618 0)
(0.039917 -0.00617182 0)
(0.041288 -0.00615673 0)
(0.0426557 -0.00614087 0)
(0.0440197 -0.00612423 0)
(0.04538 -0.00610678 0)
(0.0467364 -0.0060885 0)
(0.0480887 -0.00606936 0)
(0.0494366 -0.00604934 0)
(0.05078 -0.00602843 0)
(0.0521187 -0.00600659 0)
(0.0534525 -0.0059838 0)
(0.0547812 -0.00596004 0)
(0.0561045 -0.00593528 0)
(0.0574222 -0.00590951 0)
(0.0587342 -0.0058827 0)
(0.06004 -0.00585482 0)
(0.0613396 -0.00582586 0)
(0.0626327 -0.00579578 0)
(0.063919 -0.00576458 0)
(0.0651983 -0.00573223 0)
(0.0664703 -0.0056987 0)
(0.0677347 -0.00566398 0)
(0.0689913 -0.00562805 0)
(0.0702399 -0.00559089 0)
(0.07148 -0.00555248 0)
(0.0727115 -0.0055128 0)
(0.0739341 -0.00547185 0)
(0.0751474 -0.00542959 0)
(0.0763513 -0.00538603 0)
(0.0775453 -0.00534114 0)
(0.0787292 -0.00529491 0)
(0.0799027 -0.00524734 0)
(0.0810655 -0.00519841 0)
(0.0822173 -0.00514811 0)
(0.0833578 -0.00509644 0)
(0.0844866 -0.0050434 0)
(0.0856035 -0.00498897 0)
(0.0867082 -0.00493316 0)
(0.0878003 -0.00487596 0)
(0.0888796 -0.00481737 0)
(0.0899456 -0.0047574 0)
(0.0909982 -0.00469605 0)
(0.092037 -0.00463332 0)
(0.0930617 -0.00456922 0)
(0.0940719 -0.00450376 0)
(0.0950675 -0.00443694 0)
(0.096048 -0.00436879 0)
(0.0970132 -0.00429931 0)
(0.0979628 -0.00422852 0)
(0.0988966 -0.00415642 0)
(0.0998141 -0.00408305 0)
(0.100715 -0.00400843 0)
(0.101599 -0.00393256 0)
(0.102467 -0.00385547 0)
(0.103317 -0.0037772 0)
(0.104149 -0.00369776 0)
(0.104964 -0.00361718 0)
(0.10576 -0.00353548 0)
(0.106538 -0.00345271 0)
(0.107298 -0.00336889 0)
(0.108039 -0.00328405 0)
(0.10876 -0.00319822 0)
(0.109463 -0.00311144 0)
(0.110146 -0.00302375 0)
(0.11081 -0.00293518 0)
(0.111453 -0.00284577 0)
(0.112077 -0.00275556 0)
(0.11268 -0.00266459 0)
(0.113263 -0.00257289 0)
(0.113826 -0.0024805 0)
(0.114368 -0.00238748 0)
(0.114889 -0.00229385 0)
(0.115389 -0.00219967 0)
(0.115868 -0.00210496 0)
(0.116326 -0.00200978 0)
(0.116763 -0.00191416 0)
(0.117178 -0.00181816 0)
(0.117572 -0.0017218 0)
(0.117944 -0.00162514 0)
(0.118295 -0.00152821 0)
(0.118624 -0.00143105 0)
(0.118931 -0.00133372 0)
(0.119217 -0.00123624 0)
(0.119481 -0.00113866 0)
(0.119723 -0.00104102 0)
(0.119944 -0.000943357 0)
(0.120143 -0.00084571 0)
(0.12032 -0.000748118 0)
(0.120475 -0.000650618 0)
(0.120608 -0.000553246 0)
(0.12072 -0.000456039 0)
(0.12081 -0.000359031 0)
(0.120879 -0.000262256 0)
(0.120926 -0.000165748 0)
(0.120952 -6.95383e-05 0)
(0.120956 2.63412e-05 0)
(0.120939 0.00012186 0)