/*--------------------------------*- C++ -*----------------------------------*\
| =========                 |                                                 |
| \\      /  F ield         | OpenFOAM: The Open Source CFD Toolbox           |
|  \\    /   O peration     | Version:  v2012                                 |
|   \\  /    A nd           | Website:  www.openfoam.com                      |
|    \\/     M anipulation  |                                                 |
\*---------------------------------------------------------------------------*/
FoamFile
{
    version     2.0;
    format      ascii;
    class       surfaceScalarField;
    location    "7.5";
    object      phi;
}
// * * * * * * * * * * * * * * * * * * * * * * * * * * * * * * * * * * * * * //

dimensions      [0 3 -1 0 0 0 0];
oriented        oriented;


internalField   nonuniform List<scalar> 
130560
(
3.70169e-06
-3.70169e-06
7.40334e-06
-3.70164e-06
1.11049e-05
-3.70154e-06
1.48063e-05
-3.70139e-06
1.85074e-05
-3.70118e-06
2.22084e-05
-3.70091e-06
2.59089e-05
-3.70059e-06
2.96091e-05
-3.70019e-06
3.33089e-05
-3.69973e-06
3.7008e-05
-3.69918e-06
4.07066e-05
-3.69856e-06
4.44044e-05
-3.69784e-06
4.81015e-05
-3.69701e-06
5.17975e-05
-3.69608e-06
5.54926e-05
-3.69503e-06
5.91864e-05
-3.69385e-06
6.2879e-05
-3.69253e-06
6.657e-05
-3.69105e-06
7.02594e-05
-3.68941e-06
7.3947e-05
-3.68759e-06
7.76326e-05
-3.68557e-06
8.13159e-05
-3.68335e-06
8.49968e-05
-3.6809e-06
8.8675e-05
-3.6782e-06
9.23503e-05
-3.67525e-06
9.60223e-05
-3.67203e-06
9.96908e-05
-3.66851e-06
0.000103356
-3.66468e-06
0.000107016
-3.66052e-06
0.000110672
-3.65601e-06
0.000114323
-3.65112e-06
0.000117969
-3.64584e-06
0.000121609
-3.64015e-06
0.000125243
-3.63402e-06
0.000128871
-3.62744e-06
0.000132491
-3.62037e-06
0.000136104
-3.61279e-06
0.000139708
-3.60469e-06
0.000143305
-3.59604e-06
0.000146891
-3.58681e-06
0.000150468
-3.57698e-06
0.000154035
-3.56653e-06
0.00015759
-3.55542e-06
0.000161134
-3.54365e-06
0.000164665
-3.53117e-06
0.000168183
-3.51797e-06
0.000171687
-3.50402e-06
0.000175176
-3.4893e-06
0.00017865
-3.47377e-06
0.000182108
-3.45743e-06
0.000185548
-3.44024e-06
0.00018897
-3.42218e-06
0.000192373
-3.40323e-06
0.000195757
-3.38336e-06
0.000199119
-3.36255e-06
0.00020246
-3.34078e-06
0.000205778
-3.31804e-06
0.000209072
-3.29429e-06
0.000212342
-3.26951e-06
0.000215585
-3.2437e-06
0.000218802
-3.21683e-06
0.000221991
-3.18889e-06
0.000225151
-3.15986e-06
0.000228281
-3.12972e-06
0.000231379
-3.09847e-06
0.000234445
-3.06608e-06
0.000237478
-3.03256e-06
0.000240476
-2.99788e-06
0.000243438
-2.96204e-06
0.000246363
-2.92504e-06
0.00024925
-2.88687e-06
0.000252097
-2.84753e-06
0.000254904
-2.80701e-06
0.00025767
-2.76532e-06
0.000260392
-2.72246e-06
0.00026307
-2.67842e-06
0.000265704
-2.63322e-06
0.000268291
-2.58686e-06
0.00027083
-2.53935e-06
0.000273321
-2.49071e-06
0.000275762
-2.44094e-06
0.000278152
-2.39006e-06
0.00028049
-2.33808e-06
0.000282775
-2.28503e-06
0.000285006
-2.23092e-06
0.000287181
-2.17578e-06
0.000289301
-2.11963e-06
0.000291364
-2.06249e-06
0.000293368
-2.00439e-06
0.000295313
-1.94537e-06
0.000297199
-1.88544e-06
0.000299023
-1.82465e-06
0.000300786
-1.76303e-06
0.000302487
-1.70061e-06
0.000304124
-1.63743e-06
0.000305698
-1.57352e-06
0.000307207
-1.50894e-06
0.000308651
-1.44371e-06
0.000310028
-1.37787e-06
0.00031134
-1.31148e-06
0.000312585
-1.24458e-06
0.000313762
-1.1772e-06
0.000314871
-1.1094e-06
0.000315912
-1.04122e-06
0.000316885
-9.72704e-07
0.000317789
-9.03901e-07
0.000318624
-8.34858e-07
0.000319389
-7.65622e-07
0.000320086
-6.9624e-07
0.000320712
-6.2676e-07
0.00032127
-5.57229e-07
0.000321757
-4.87694e-07
0.000322176
-4.18201e-07
0.000322524
-3.48798e-07
0.000322804
-2.79531e-07
0.000323014
-2.10443e-07
0.000323156
-1.41581e-07
0.000323229
-7.29881e-08
0.000323234
-4.70744e-09
0.00032317
6.32187e-08
0.00032304
1.30749e-07
0.000322842
1.97844e-07
0.000322577
2.64463e-07
0.000322247
3.3057e-07
0.000321851
3.96127e-07
0.00032139
4.611e-07
0.000320864
5.25453e-07
0.000320275
5.89155e-07
0.000319623
6.52174e-07
0.000318908
7.1448e-07
0.000318132
7.76045e-07
0.000317295
8.36843e-07
0.000316399
8.96847e-07
0.000315442
9.56034e-07
0.000314428
1.01438e-06
0.000313356
1.07187e-06
0.000312228
1.12848e-06
0.000311044
1.18419e-06
0.000309805
1.23899e-06
0.000308512
1.29286e-06
0.000307166
1.34578e-06
0.000305768
1.39776e-06
0.000304319
1.44877e-06
0.000302821
1.49881e-06
0.000301273
1.54787e-06
0.000299677
1.59594e-06
0.000298034
1.64302e-06
0.000296345
1.68911e-06
0.00029461
1.7342e-06
0.000292832
1.77829e-06
0.000291011
1.82139e-06
0.000289147
1.86348e-06
0.000287243
1.90459e-06
0.000285298
1.9447e-06
0.000283314
1.98382e-06
0.000281292
2.02196e-06
0.000279233
2.05913e-06
0.000277138
2.09533e-06
0.000275007
2.13056e-06
0.000272842
2.16484e-06
0.000270644
2.19818e-06
0.000268414
2.23059e-06
0.000266152
2.26208e-06
0.000263859
2.29265e-06
0.000261537
2.32232e-06
0.000259185
2.35111e-06
0.000256806
2.37902e-06
0.0002544
2.40606e-06
0.000251968
2.43226e-06
0.00024951
2.45763e-06
0.000247028
2.48218e-06
0.000244522
2.50592e-06
0.000241994
2.52887e-06
0.000239442
2.55104e-06
0.00023687
2.57246e-06
0.000234277
2.59313e-06
0.000231664
2.61307e-06
0.000229032
2.63229e-06
0.000226381
2.65082e-06
0.000223712
2.66866e-06
0.000221026
2.68584e-06
0.000218324
2.70236e-06
0.000215606
2.71825e-06
0.000212872
2.73352e-06
0.000210124
2.74819e-06
0.000207362
2.76227e-06
0.000204586
2.77577e-06
0.000201797
2.78872e-06
0.000198996
2.80112e-06
0.000196183
2.813e-06
0.000193359
2.82436e-06
0.000190523
2.83523e-06
0.000187678
2.84561e-06
0.000184822
2.85553e-06
0.000181957
2.86499e-06
0.000179083
2.87402e-06
0.000176201
2.88262e-06
0.00017331
2.8908e-06
0.000170411
2.89859e-06
0.000167505
2.906e-06
0.000164592
2.91303e-06
0.000161673
2.9197e-06
0.000158746
2.92603e-06
0.000155814
2.93203e-06
0.000152877
2.9377e-06
0.000149934
2.94306e-06
0.000146986
2.94813e-06
0.000144033
2.95291e-06
0.000141075
2.95742e-06
0.000138114
2.96167e-06
0.000135148
2.96566e-06
0.000132178
2.96941e-06
0.000129206
2.97293e-06
0.000126229
2.97623e-06
0.00012325
2.97931e-06
0.000120268
2.9822e-06
0.000117283
2.98489e-06
0.000114296
2.9874e-06
0.000111306
2.98973e-06
0.000108314
2.9919e-06
0.00010532
2.99391e-06
0.000102324
2.99578e-06
9.93267e-05
2.9975e-06
9.63276e-05
2.99909e-06
9.33271e-05
3.00055e-06
9.03252e-05
3.00189e-06
8.73221e-05
3.00313e-06
8.43178e-05
3.00425e-06
8.13125e-05
3.00528e-06
7.83063e-05
3.00622e-06
7.52992e-05
3.00707e-06
7.22914e-05
3.00784e-06
6.92828e-05
3.00854e-06
6.62737e-05
3.00917e-06
6.32639e-05
3.00973e-06
6.02537e-05
3.01024e-06
5.7243e-05
3.01069e-06
5.42319e-05
3.01109e-06
5.12205e-05
3.01144e-06
4.82087e-05
3.01176e-06
4.51967e-05
3.01203e-06
4.21844e-05
3.01227e-06
3.91719e-05
3.01248e-06
3.61593e-05
3.01266e-06
3.31464e-05
3.01282e-06
3.01335e-05
3.01296e-06
2.71204e-05
3.01307e-06
2.41073e-05
3.01317e-06
2.1094e-05
3.01325e-06
1.80807e-05
3.01332e-06
1.50673e-05
3.01337e-06
1.20539e-05
3.01341e-06
9.04046e-06
3.01345e-06
6.02699e-06
3.01347e-06
3.0135e-06
3.01349e-06
3.0135e-06
3.70174e-06
-7.40343e-06
7.40343e-06
-7.40333e-06
1.1105e-05
-7.40313e-06
1.48065e-05
-7.40283e-06
1.85077e-05
-7.40241e-06
2.22087e-05
-7.40189e-06
2.59093e-05
-7.40124e-06
2.96096e-05
-7.40045e-06
3.33094e-05
-7.39953e-06
3.70087e-05
-7.39845e-06
4.07073e-05
-7.3972e-06
4.44052e-05
-7.39577e-06
4.81024e-05
-7.39414e-06
5.17986e-05
-7.39229e-06
5.54937e-05
-7.3902e-06
5.91877e-05
-7.38785e-06
6.28804e-05
-7.38521e-06
6.65716e-05
-7.38227e-06
7.02612e-05
-7.379e-06
7.3949e-05
-7.37537e-06
7.76348e-05
-7.37135e-06
8.13183e-05
-7.36692e-06
8.49995e-05
-7.36203e-06
8.86779e-05
-7.35666e-06
9.23535e-05
-7.35078e-06
9.60258e-05
-7.34435e-06
9.96946e-05
-7.33733e-06
0.00010336
-7.32969e-06
0.00010702
-7.32139e-06
0.000110677
-7.31238e-06
0.000114328
-7.30263e-06
0.000117975
-7.2921e-06
0.000121615
-7.28074e-06
0.00012525
-7.2685e-06
0.000128878
-7.25535e-06
0.000132498
-7.24124e-06
0.000136112
-7.22612e-06
0.000139717
-7.20994e-06
0.000143314
-7.19266e-06
0.000146901
-7.17422e-06
0.000150479
-7.15459e-06
0.000154046
-7.1337e-06
0.000157602
-7.11152e-06
0.000161146
-7.08799e-06
0.000164678
-7.06306e-06
0.000168197
-7.03668e-06
0.000171702
-7.00881e-06
0.000175192
-6.97939e-06
0.000178666
-6.94837e-06
0.000182125
-6.9157e-06
0.000185566
-6.88135e-06
0.000188989
-6.84525e-06
0.000192393
-6.80737e-06
0.000195777
-6.76765e-06
0.000199141
-6.72606e-06
0.000202483
-6.68255e-06
0.000205802
-6.63707e-06
0.000209097
-6.58959e-06
0.000212367
-6.54007e-06
0.000215612
-6.48846e-06
0.00021883
-6.43474e-06
0.00022202
-6.37887e-06
0.000225181
-6.32082e-06
0.000228312
-6.26056e-06
0.000231411
-6.19806e-06
0.000234479
-6.1333e-06
0.000237512
-6.06626e-06
0.000240511
-5.99691e-06
0.000243475
-5.92525e-06
0.000246401
-5.85126e-06
0.000249289
-5.77492e-06
0.000252138
-5.69624e-06
0.000254946
-5.6152e-06
0.000257712
-5.53181e-06
0.000260436
-5.44608e-06
0.000263115
-5.358e-06
0.00026575
-5.26759e-06
0.000268338
-5.17487e-06
0.000270878
-5.07984e-06
0.00027337
-4.98254e-06
0.000275812
-4.88299e-06
0.000278203
-4.78121e-06
0.000280543
-4.67724e-06
0.000282829
-4.57111e-06
0.000285061
-4.46288e-06
0.000287237
-4.35257e-06
0.000289358
-4.24024e-06
0.000291421
-4.12593e-06
0.000293427
-4.00971e-06
0.000295373
-3.89163e-06
0.000297259
-3.77175e-06
0.000299085
-3.65013e-06
0.000300849
-3.52685e-06
0.00030255
-3.40197e-06
0.000304188
-3.27557e-06
0.000305762
-3.14773e-06
0.000307272
-3.01851e-06
0.000308716
-2.88801e-06
0.000310095
-2.75631e-06
0.000311407
-2.62348e-06
0.000312652
-2.48963e-06
0.000313829
-2.35483e-06
0.000314939
-2.21918e-06
0.000315981
-2.08277e-06
0.000316954
-1.94569e-06
0.000317858
-1.80804e-06
0.000318693
-1.66991e-06
0.000319459
-1.53139e-06
0.000320155
-1.39258e-06
0.000320782
-1.25357e-06
0.000321339
-1.11446e-06
0.000321827
-9.75344e-07
0.000322245
-8.36313e-07
0.000322593
-6.97461e-07
0.000322873
-5.5888e-07
0.000323083
-4.20661e-07
0.000323224
-2.82893e-07
0.000323297
-1.45664e-07
0.000323301
-9.06051e-09
0.000323238
1.26833e-07
0.000323106
2.61934e-07
0.000322908
3.96162e-07
0.000322643
5.29439e-07
0.000322312
6.61689e-07
0.000321915
7.92839e-07
0.000321454
9.22817e-07
0.000320928
1.05156e-06
0.000320338
1.17899e-06
0.000319685
1.30506e-06
0.00031897
1.4297e-06
0.000318193
1.55286e-06
0.000317355
1.67448e-06
0.000316457
1.79451e-06
0.000315501
1.91291e-06
0.000314485
2.02962e-06
0.000313413
2.14462e-06
0.000312283
2.25785e-06
0.000311098
2.36929e-06
0.000309858
2.4789e-06
0.000308564
2.58665e-06
0.000307218
2.69252e-06
0.000305819
2.79648e-06
0.000304369
2.89851e-06
0.000302869
2.9986e-06
0.000301321
3.09672e-06
0.000299724
3.19287e-06
0.00029808
3.28704e-06
0.00029639
3.37922e-06
0.000294654
3.4694e-06
0.000292875
3.55758e-06
0.000291053
3.64377e-06
0.000289188
3.72796e-06
0.000287283
3.81016e-06
0.000285337
3.89038e-06
0.000283352
3.96862e-06
0.000281329
4.0449e-06
0.000279269
4.11922e-06
0.000277173
4.19161e-06
0.000275041
4.26207e-06
0.000272876
4.33063e-06
0.000270676
4.3973e-06
0.000268445
4.4621e-06
0.000266182
4.52506e-06
0.000263888
4.58619e-06
0.000261565
4.64553e-06
0.000259213
4.70308e-06
0.000256833
4.75889e-06
0.000254426
4.81297e-06
0.000251993
4.86536e-06
0.000249535
4.91608e-06
0.000247052
4.96516e-06
0.000244545
5.01263e-06
0.000242016
5.05851e-06
0.000239464
5.10285e-06
0.000236891
5.14566e-06
0.000234297
5.18698e-06
0.000231683
5.22684e-06
0.00022905
5.26528e-06
0.000226398
5.30232e-06
0.000223729
5.33799e-06
0.000221043
5.37232e-06
0.00021834
5.40536e-06
0.000215621
5.43712e-06
0.000212887
5.46765e-06
0.000210138
5.49696e-06
0.000207375
5.5251e-06
0.000204599
5.5521e-06
0.000201809
5.57797e-06
0.000199008
5.60277e-06
0.000196194
5.62651e-06
0.000193369
5.64922e-06
0.000190534
5.67094e-06
0.000187688
5.6917e-06
0.000184832
5.71151e-06
0.000181966
5.73043e-06
0.000179092
5.74846e-06
0.000176209
5.76564e-06
0.000173318
5.782e-06
0.000170419
5.79757e-06
0.000167512
5.81236e-06
0.000164599
5.82641e-06
0.000161679
5.83975e-06
0.000158752
5.85239e-06
0.00015582
5.86437e-06
0.000152882
5.87571e-06
0.000149939
5.88642e-06
0.00014699
5.89655e-06
0.000144037
5.9061e-06
0.000141079
5.9151e-06
0.000138117
5.92358e-06
0.000135152
5.93156e-06
0.000132182
5.93905e-06
0.000129209
5.94607e-06
0.000126232
5.95266e-06
0.000123253
5.95882e-06
0.00012027
5.96458e-06
0.000117285
5.96996e-06
0.000114298
5.97497e-06
0.000111308
5.97963e-06
0.000108316
5.98396e-06
0.000105322
5.98797e-06
0.000102326
5.99169e-06
9.93283e-05
5.99513e-06
9.63291e-05
5.9983e-06
9.33284e-05
6.00122e-06
9.03264e-05
6.0039e-06
8.73232e-05
6.00636e-06
8.43188e-05
6.00861e-06
8.13134e-05
6.01066e-06
7.83071e-05
6.01253e-06
7.53e-05
6.01423e-06
7.22921e-05
6.01576e-06
6.92834e-05
6.01715e-06
6.62742e-05
6.0184e-06
6.32644e-05
6.01952e-06
6.02541e-05
6.02053e-06
5.72434e-05
6.02143e-06
5.42323e-05
6.02222e-06
5.12208e-05
6.02293e-06
4.8209e-05
6.02355e-06
4.51969e-05
6.0241e-06
4.21846e-05
6.02458e-06
3.91721e-05
6.02499e-06
3.61594e-05
6.02535e-06
3.31466e-05
6.02566e-06
3.01336e-05
6.02593e-06
2.71205e-05
6.02616e-06
2.41073e-05
6.02635e-06
2.10941e-05
6.02651e-06
1.80807e-05
6.02664e-06
1.50674e-05
6.02675e-06
1.20539e-05
6.02684e-06
9.04048e-06
6.0269e-06
6.027e-06
6.02695e-06
3.0135e-06
6.02699e-06
6.027e-06
3.70184e-06
-1.11053e-05
7.40363e-06
-1.11051e-05
1.11053e-05
-1.11048e-05
1.48069e-05
-1.11044e-05
1.85082e-05
-1.11038e-05
2.22093e-05
-1.1103e-05
2.59101e-05
-1.1102e-05
2.96105e-05
-1.11009e-05
3.33105e-05
-1.10995e-05
3.70099e-05
-1.10979e-05
4.07087e-05
-1.1096e-05
4.44069e-05
-1.10939e-05
4.81042e-05
-1.10915e-05
5.18007e-05
-1.10887e-05
5.54961e-05
-1.10856e-05
5.91904e-05
-1.10821e-05
6.28834e-05
-1.10782e-05
6.65749e-05
-1.10738e-05
7.02649e-05
-1.1069e-05
7.3953e-05
-1.10635e-05
7.76392e-05
-1.10576e-05
8.13233e-05
-1.10509e-05
8.50049e-05
-1.10436e-05
8.86838e-05
-1.10356e-05
9.23599e-05
-1.10269e-05
9.60328e-05
-1.10173e-05
9.97023e-05
-1.10068e-05
0.000103368
-1.09954e-05
0.00010703
-1.0983e-05
0.000110687
-1.09695e-05
0.000114339
-1.09549e-05
0.000117986
-1.09392e-05
0.000121627
-1.09222e-05
0.000125263
-1.09039e-05
0.000128892
-1.08842e-05
0.000132514
-1.08631e-05
0.000136128
-1.08405e-05
0.000139734
-1.08163e-05
0.000143332
-1.07904e-05
0.000146921
-1.07628e-05
0.0001505
-1.07334e-05
0.000154068
-1.07022e-05
0.000157626
-1.0669e-05
0.000161171
-1.06337e-05
0.000164705
-1.05964e-05
0.000168225
-1.05569e-05
0.000171731
-1.05151e-05
0.000175223
-1.04711e-05
0.000178699
-1.04246e-05
0.000182159
-1.03757e-05
0.000185602
-1.03242e-05
0.000189027
-1.02701e-05
0.000192433
-1.02133e-05
0.000195819
-1.01538e-05
0.000199184
-1.00915e-05
0.000202528
-1.00263e-05
0.000205849
-9.95811e-06
0.000209146
-9.88694e-06
0.000212419
-9.8127e-06
0.000215666
-9.73534e-06
0.000218886
-9.6548e-06
0.000222078
-9.57103e-06
0.000225241
-9.48399e-06
0.000228374
-9.39364e-06
0.000231476
-9.29992e-06
0.000234546
-9.20281e-06
0.000237582
-9.10227e-06
0.000240583
-8.99827e-06
0.000243549
-8.89079e-06
0.000246477
-8.77981e-06
0.000249368
-8.66531e-06
0.000252219
-8.54729e-06
0.000255029
-8.42574e-06
0.000257798
-8.30065e-06
0.000260524
-8.17204e-06
0.000263206
-8.03991e-06
0.000265843
-7.90428e-06
0.000268433
-7.76517e-06
0.000270976
-7.62261e-06
0.00027347
-7.47663e-06
0.000275914
-7.32726e-06
0.000278307
-7.17455e-06
0.000280649
-7.01855e-06
0.000282937
-6.85932e-06
0.000285171
-6.6969e-06
0.00028735
-6.53138e-06
0.000289472
-6.36282e-06
0.000291538
-6.19129e-06
0.000293545
-6.01689e-06
0.000295493
-5.83969e-06
0.000297381
-5.65979e-06
0.000299208
-5.47728e-06
0.000300974
-5.29227e-06
0.000302676
-5.10486e-06
0.000304316
-4.91517e-06
0.000305892
-4.7233e-06
0.000307403
-4.52938e-06
0.000308848
-4.33352e-06
0.000310228
-4.13586e-06
0.000311541
-3.93651e-06
0.000312787
-3.73562e-06
0.000313965
-3.53331e-06
0.000315076
-3.32972e-06
0.000316118
-3.12499e-06
0.000317091
-2.91926e-06
0.000317996
-2.71266e-06
0.000318831
-2.50534e-06
0.000319598
-2.29745e-06
0.000320294
-2.08911e-06
0.000320921
-1.88048e-06
0.000321478
-1.6717e-06
0.000321966
-1.46291e-06
0.000322384
-1.25425e-06
0.000322732
-1.04585e-06
0.000323011
-8.37869e-07
0.000323221
-6.30428e-07
0.000323362
-4.23666e-07
0.000323434
-2.17714e-07
0.000323437
-1.27035e-08
0.000323373
1.9124e-07
0.000323241
3.93992e-07
0.000323042
5.95432e-07
0.000322776
7.95442e-07
0.000322443
9.93909e-07
0.000322045
1.19072e-06
0.000321583
1.38578e-06
0.000321055
1.57897e-06
0.000320464
1.7702e-06
0.00031981
1.95937e-06
0.000319093
2.1464e-06
0.000318315
2.33121e-06
0.000317475
2.5137e-06
0.000316576
2.69381e-06
0.000315617
2.87146e-06
0.0003146
3.04659e-06
0.000313526
3.21913e-06
0.000312395
3.38902e-06
0.000311208
3.55622e-06
0.000309966
3.72067e-06
0.00030867
3.88233e-06
0.000307322
4.04116e-06
0.000305921
4.19713e-06
0.000304469
4.3502e-06
0.000302968
4.50035e-06
0.000301417
4.64755e-06
0.000299818
4.79179e-06
0.000298172
4.93305e-06
0.00029648
5.07132e-06
0.000294743
5.20659e-06
0.000292961
5.33887e-06
0.000291137
5.46815e-06
0.000289271
5.59443e-06
0.000287363
5.71772e-06
0.000285415
5.83804e-06
0.000283429
5.95539e-06
0.000281404
6.06979e-06
0.000279342
6.18126e-06
0.000277243
6.28982e-06
0.00027511
6.39549e-06
0.000272942
6.4983e-06
0.000270741
6.59828e-06
0.000268508
6.69546e-06
0.000266243
6.78987e-06
0.000263948
6.88154e-06
0.000261623
6.97051e-06
0.000259269
7.05681e-06
0.000256888
7.14049e-06
0.000254479
7.22158e-06
0.000252044
7.30013e-06
0.000249584
7.37617e-06
0.000247099
7.44975e-06
0.000244591
7.52092e-06
0.00024206
7.58971e-06
0.000239507
7.65617e-06
0.000236932
7.72035e-06
0.000234337
7.7823e-06
0.000231721
7.84205e-06
0.000229087
7.89966e-06
0.000226434
7.95518e-06
0.000223764
8.00865e-06
0.000221076
8.06012e-06
0.000218371
8.10963e-06
0.000215651
8.15724e-06
0.000212916
8.20298e-06
0.000210166
8.24692e-06
0.000207402
8.28909e-06
0.000204625
8.32954e-06
0.000201834
8.36832e-06
0.000199032
8.40547e-06
0.000196217
8.44104e-06
0.000193391
8.47507e-06
0.000190555
8.50762e-06
0.000187707
8.53871e-06
0.000184851
8.56841e-06
0.000181984
8.59674e-06
0.000179109
8.62375e-06
0.000176225
8.64949e-06
0.000173333
8.674e-06
0.000170433
8.69731e-06
0.000167526
8.71947e-06
0.000164612
8.74052e-06
0.000161691
8.76049e-06
0.000158764
8.77942e-06
0.000155831
8.79736e-06
0.000152893
8.81433e-06
0.000149949
8.83038e-06
0.000147
8.84553e-06
0.000144046
8.85984e-06
0.000141088
8.87331e-06
0.000138126
8.886e-06
0.000135159
8.89794e-06
0.000132189
8.90915e-06
0.000129215
8.91967e-06
0.000126239
8.92952e-06
0.000123259
8.93874e-06
0.000120276
8.94736e-06
0.00011729
8.9554e-06
0.000114303
8.96289e-06
0.000111312
8.96986e-06
0.00010832
8.97633e-06
0.000105326
8.98233e-06
0.000102329
8.98789e-06
9.93315e-05
8.99303e-06
9.6332e-05
8.99776e-06
9.33311e-05
9.00212e-06
9.03289e-05
9.00613e-06
8.73254e-05
9.0098e-06
8.43209e-05
9.01315e-06
8.13153e-05
9.01622e-06
7.83088e-05
9.01901e-06
7.53015e-05
9.02154e-06
7.22935e-05
9.02383e-06
6.92847e-05
9.0259e-06
6.62754e-05
9.02776e-06
6.32654e-05
9.02943e-06
6.0255e-05
9.03093e-06
5.72442e-05
9.03226e-06
5.4233e-05
9.03345e-06
5.12214e-05
9.0345e-06
4.82095e-05
9.03542e-06
4.51974e-05
9.03623e-06
4.2185e-05
9.03694e-06
3.91725e-05
9.03756e-06
3.61597e-05
9.03809e-06
3.31468e-05
9.03855e-06
3.01338e-05
9.03895e-06
2.71207e-05
9.03928e-06
2.41075e-05
9.03956e-06
2.10942e-05
9.0398e-06
1.80809e-05
9.04e-06
1.50674e-05
9.04015e-06
1.2054e-05
9.04028e-06
9.04053e-06
9.04038e-06
6.02703e-06
9.04045e-06
3.01352e-06
9.0405e-06
9.04052e-06
3.70199e-06
-1.48073e-05
7.40394e-06
-1.48071e-05
1.11058e-05
-1.48067e-05
1.48075e-05
-1.48061e-05
1.8509e-05
-1.48053e-05
2.22103e-05
-1.48043e-05
2.59113e-05
-1.4803e-05
2.96119e-05
-1.48015e-05
3.33121e-05
-1.47997e-05
3.70118e-05
-1.47976e-05
4.07109e-05
-1.47951e-05
4.44093e-05
-1.47923e-05
4.8107e-05
-1.47892e-05
5.18038e-05
-1.47855e-05
5.54996e-05
-1.47814e-05
5.91943e-05
-1.47768e-05
6.28878e-05
-1.47717e-05
6.65798e-05
-1.47659e-05
7.02703e-05
-1.47594e-05
7.39591e-05
-1.47523e-05
7.76459e-05
-1.47444e-05
8.13306e-05
-1.47356e-05
8.50129e-05
-1.4726e-05
8.86927e-05
-1.47154e-05
9.23696e-05
-1.47038e-05
9.60434e-05
-1.4691e-05
9.97137e-05
-1.46772e-05
0.00010338
-1.4662e-05
0.000107043
-1.46456e-05
0.000110701
-1.46277e-05
0.000114355
-1.46084e-05
0.000118003
-1.45875e-05
0.000121646
-1.4565e-05
0.000125283
-1.45407e-05
0.000128913
-1.45146e-05
0.000132536
-1.44865e-05
0.000136152
-1.44565e-05
0.00013976
-1.44243e-05
0.00014336
-1.43899e-05
0.00014695
-1.43532e-05
0.000150531
-1.43142e-05
0.000154101
-1.42726e-05
0.000157661
-1.42284e-05
0.000161209
-1.41816e-05
0.000164744
-1.41319e-05
0.000168267
-1.40794e-05
0.000171775
-1.40238e-05
0.000175269
-1.39652e-05
0.000178748
-1.39033e-05
0.000182211
-1.38382e-05
0.000185656
-1.37697e-05
0.000189084
-1.36977e-05
0.000192492
-1.36221e-05
0.000195881
-1.35428e-05
0.00019925
-1.34598e-05
0.000202596
-1.3373e-05
0.00020592
-1.32822e-05
0.000209221
-1.31874e-05
0.000212497
-1.30885e-05
0.000215747
-1.29854e-05
0.00021897
-1.28781e-05
0.000222165
-1.27665e-05
0.000225332
-1.26505e-05
0.000228468
-1.25301e-05
0.000231574
-1.24052e-05
0.000234646
-1.22757e-05
0.000237686
-1.21417e-05
0.000240691
-1.20031e-05
0.00024366
-1.18598e-05
0.000246592
-1.17119e-05
0.000249486
-1.15592e-05
0.00025234
-1.14019e-05
0.000255155
-1.12398e-05
0.000257927
-1.1073e-05
0.000260656
-1.09015e-05
0.000263342
-1.07253e-05
0.000265982
-1.05445e-05
0.000268576
-1.03589e-05
0.000271122
-1.01688e-05
0.000273619
-9.9741e-06
0.000276067
-9.77487e-06
0.000278464
-9.57119e-06
0.000280808
-9.3631e-06
0.0002831
-9.15069e-06
0.000285337
-8.93404e-06
0.000287519
-8.71323e-06
0.000289644
-8.48836e-06
0.000291712
-8.25954e-06
0.000293722
-8.02686e-06
0.000295673
-7.79045e-06
0.000297564
-7.55043e-06
0.000299393
-7.30693e-06
0.000301161
-7.06009e-06
0.000302866
-6.81004e-06
0.000304508
-6.55694e-06
0.000306086
-6.30093e-06
0.000307599
-6.04217e-06
0.000309046
-5.78084e-06
0.000310427
-5.51709e-06
0.000311742
-5.25109e-06
0.000312989
-4.98303e-06
0.000314169
-4.71307e-06
0.000315281
-4.44141e-06
0.000316324
-4.16822e-06
0.000317298
-3.89369e-06
0.000318204
-3.61801e-06
0.00031904
-3.34136e-06
0.000319806
-3.06394e-06
0.000320503
-2.78594e-06
0.00032113
-2.50755e-06
0.000321687
-2.22895e-06
0.000322175
-1.95034e-06
0.000322592
-1.67191e-06
0.00032294
-1.39384e-06
0.000323219
-1.11631e-06
0.000323428
-8.39516e-07
0.000323568
-5.63627e-07
0.000323639
-2.88824e-07
0.000323641
-1.52788e-08
0.000323576
2.56839e-07
0.000323442
5.27363e-07
0.000323242
7.96132e-07
0.000322974
1.06299e-06
0.00032264
1.32778e-06
0.000322241
1.59037e-06
0.000321776
1.8506e-06
0.000321247
2.10834e-06
0.000320653
2.36346e-06
0.000319997
2.61583e-06
0.000319278
2.86534e-06
0.000318497
3.11187e-06
0.000317656
3.35531e-06
0.000316754
3.59557e-06
0.000315793
3.83254e-06
0.000314773
4.06614e-06
0.000313696
4.29628e-06
0.000312562
4.52289e-06
0.000311373
4.7459e-06
0.000310128
4.96523e-06
0.000308829
5.18084e-06
0.000307478
5.39267e-06
0.000306074
5.60068e-06
0.00030462
5.80481e-06
0.000303115
6.00504e-06
0.000301561
6.20134e-06
0.000299959
6.39368e-06
0.00029831
6.58204e-06
0.000296615
6.76642e-06
0.000294875
6.94679e-06
0.000293091
7.12316e-06
0.000291263
7.29552e-06
0.000289394
7.46389e-06
0.000287483
7.62826e-06
0.000285533
7.78866e-06
0.000283543
7.94511e-06
0.000281515
8.09761e-06
0.00027945
8.2462e-06
0.000277349
8.39091e-06
0.000275213
8.53177e-06
0.000273042
8.66881e-06
0.000270839
8.80207e-06
0.000268603
8.93159e-06
0.000266335
9.05742e-06
0.000264037
9.17959e-06
0.000261709
9.29816e-06
0.000259353
9.41317e-06
0.000256969
9.52468e-06
0.000254558
9.63274e-06
0.00025212
9.7374e-06
0.000249658
9.83872e-06
0.000247171
9.93676e-06
0.00024466
1.00316e-05
0.000242127
1.01232e-05
0.000239571
1.02118e-05
0.000236994
1.02973e-05
0.000234397
1.03798e-05
0.000231779
1.04594e-05
0.000229143
1.05361e-05
0.000226488
1.06101e-05
0.000223815
1.06813e-05
0.000221125
1.07499e-05
0.000218419
1.08158e-05
0.000215697
1.08792e-05
0.00021296
1.09401e-05
0.000210208
1.09986e-05
0.000207443
1.10548e-05
0.000204663
1.11087e-05
0.000201872
1.11603e-05
0.000199067
1.12098e-05
0.000196251
1.12571e-05
0.000193424
1.13024e-05
0.000190586
1.13457e-05
0.000187737
1.13871e-05
0.000184879
1.14267e-05
0.000182011
1.14644e-05
0.000179135
1.15003e-05
0.00017625
1.15346e-05
0.000173357
1.15672e-05
0.000170456
1.15982e-05
0.000167547
1.16277e-05
0.000164632
1.16557e-05
0.00016171
1.16823e-05
0.000158782
1.17075e-05
0.000155848
1.17313e-05
0.000152909
1.17539e-05
0.000149964
1.17752e-05
0.000147014
1.17954e-05
0.00014406
1.18144e-05
0.000141101
1.18323e-05
0.000138137
1.18492e-05
0.00013517
1.1865e-05
0.0001322
1.18799e-05
0.000129225
1.18939e-05
0.000126248
1.1907e-05
0.000123267
1.19193e-05
0.000120284
1.19307e-05
0.000117298
1.19414e-05
0.00011431
1.19513e-05
0.000111319
1.19606e-05
0.000108326
1.19692e-05
0.000105331
1.19771e-05
0.000102335
1.19845e-05
9.93362e-05
1.19913e-05
9.63364e-05
1.19976e-05
9.33351e-05
1.20034e-05
9.03326e-05
1.20087e-05
8.73288e-05
1.20136e-05
8.4324e-05
1.2018e-05
8.13181e-05
1.20221e-05
7.83114e-05
1.20257e-05
7.53038e-05
1.20291e-05
7.22956e-05
1.20321e-05
6.92866e-05
1.20349e-05
6.6277e-05
1.20373e-05
6.3267e-05
1.20395e-05
6.02564e-05
1.20415e-05
5.72454e-05
1.20433e-05
5.4234e-05
1.20448e-05
5.12224e-05
1.20462e-05
4.82104e-05
1.20474e-05
4.51981e-05
1.20485e-05
4.21857e-05
1.20494e-05
3.9173e-05
1.20502e-05
3.61602e-05
1.20509e-05
3.31473e-05
1.20515e-05
3.01342e-05
1.2052e-05
2.7121e-05
1.20525e-05
2.41077e-05
1.20528e-05
2.10944e-05
1.20531e-05
1.8081e-05
1.20534e-05
1.50676e-05
1.20536e-05
1.20541e-05
1.20538e-05
9.0406e-06
1.20539e-05
6.02708e-06
1.2054e-05
3.01354e-06
1.2054e-05
1.20541e-05
3.70219e-06
-1.85095e-05
7.40433e-06
-1.85092e-05
1.11064e-05
-1.85087e-05
1.48083e-05
-1.8508e-05
1.85101e-05
-1.8507e-05
2.22116e-05
-1.85058e-05
2.59128e-05
-1.85042e-05
2.96137e-05
-1.85024e-05
3.33142e-05
-1.85002e-05
3.70142e-05
-1.84976e-05
4.07137e-05
-1.84946e-05
4.44126e-05
-1.84912e-05
4.81107e-05
-1.84873e-05
5.18079e-05
-1.84828e-05
5.55043e-05
-1.84778e-05
5.91995e-05
-1.84721e-05
6.28936e-05
-1.84657e-05
6.65863e-05
-1.84586e-05
7.02775e-05
-1.84506e-05
7.3967e-05
-1.84418e-05
7.76547e-05
-1.8432e-05
8.13403e-05
-1.84212e-05
8.50236e-05
-1.84093e-05
8.87043e-05
-1.83962e-05
9.23824e-05
-1.83818e-05
9.60573e-05
-1.8366e-05
9.97289e-05
-1.83488e-05
0.000103397
-1.833e-05
0.000107061
-1.83096e-05
0.000110721
-1.82875e-05
0.000114376
-1.82635e-05
0.000118026
-1.82375e-05
0.00012167
-1.82095e-05
0.000125309
-1.81793e-05
0.000128941
-1.81468e-05
0.000132566
-1.81119e-05
0.000136185
-1.80745e-05
0.000139795
-1.80345e-05
0.000143397
-1.79917e-05
0.000146989
-1.79461e-05
0.000150573
-1.78974e-05
0.000154146
-1.78456e-05
0.000157708
-1.77906e-05
0.000161258
-1.77322e-05
0.000164797
-1.76703e-05
0.000168322
-1.76048e-05
0.000171834
-1.75356e-05
0.000175331
-1.74624e-05
0.000178813
-1.73853e-05
0.000182279
-1.73041e-05
0.000185728
-1.72186e-05
0.000189159
-1.71288e-05
0.000192572
-1.70345e-05
0.000195965
-1.69356e-05
0.000199337
-1.6832e-05
0.000202687
-1.67236e-05
0.000206015
-1.66102e-05
0.00020932
-1.64919e-05
0.0002126
-1.63684e-05
0.000215854
-1.62397e-05
0.000219082
-1.61057e-05
0.000222282
-1.59663e-05
0.000225452
-1.58214e-05
0.000228593
-1.5671e-05
0.000231703
-1.5515e-05
0.000234781
-1.53533e-05
0.000237825
-1.51858e-05
0.000240834
-1.50126e-05
0.000243808
-1.48335e-05
0.000246745
-1.46487e-05
0.000249643
-1.44579e-05
0.000252503
-1.42612e-05
0.000255321
-1.40586e-05
0.000258099
-1.38501e-05
0.000260833
-1.36357e-05
0.000263523
-1.34154e-05
0.000266168
-1.31893e-05
0.000268766
-1.29573e-05
0.000271317
-1.27196e-05
0.000273819
-1.24761e-05
0.000276271
-1.2227e-05
0.000278672
-1.19722e-05
0.000281021
-1.1712e-05
0.000283316
-1.14463e-05
0.000285558
-1.11753e-05
0.000287744
-1.08991e-05
0.000289873
-1.06179e-05
0.000291945
-1.03316e-05
0.000293959
-1.00406e-05
0.000295913
-9.74483e-06
0.000297807
-9.44456e-06
0.00029964
-9.13993e-06
0.000301411
-8.83111e-06
0.00030312
-8.51827e-06
0.000304764
-8.20161e-06
0.000306345
-7.8813e-06
0.00030786
-7.55756e-06
0.00030931
-7.23057e-06
0.000310693
-6.90056e-06
0.00031201
-6.56774e-06
0.000313259
-6.23233e-06
0.000314441
-5.89454e-06
0.000315554
-5.55462e-06
0.000316599
-5.21278e-06
0.000317574
-4.86927e-06
0.00031848
-4.52431e-06
0.000319317
-4.17815e-06
0.000320084
-3.83102e-06
0.000320782
-3.48316e-06
0.000321409
-3.13482e-06
0.000321966
-2.78622e-06
0.000322453
-2.4376e-06
0.000322871
-2.08921e-06
0.000323218
-1.74128e-06
0.000323496
-1.39403e-06
0.000323704
-1.0477e-06
0.000323843
-7.02504e-07
0.000323913
-3.58675e-07
0.000323914
-1.64262e-08
0.000323847
3.24031e-07
0.000323711
6.62488e-07
0.000323509
9.98744e-07
0.000323239
1.3326e-06
0.000322903
1.66387e-06
0.000322501
1.99236e-06
0.000322034
2.31791e-06
0.000321502
2.64033e-06
0.000320906
2.95946e-06
0.000320247
3.27515e-06
0.000319525
3.58725e-06
0.000318741
3.89562e-06
0.000317896
4.20011e-06
0.000316991
4.50061e-06
0.000316027
4.79699e-06
0.000315004
5.08915e-06
0.000313923
5.37697e-06
0.000312785
5.66036e-06
0.000311592
5.93924e-06
0.000310344
6.21353e-06
0.000309041
6.48314e-06
0.000307686
6.74801e-06
0.000306279
7.00809e-06
0.00030482
7.26333e-06
0.000303312
7.51367e-06
0.000301754
7.75909e-06
0.000300148
7.99956e-06
0.000298495
8.23504e-06
0.000296796
8.46552e-06
0.000295052
8.69099e-06
0.000293263
8.91145e-06
0.000291432
9.1269e-06
0.000289559
9.33734e-06
0.000287644
9.54278e-06
0.000285689
9.74325e-06
0.000283696
9.93876e-06
0.000281664
1.01293e-05
0.000279595
1.0315e-05
0.00027749
1.04959e-05
0.00027535
1.06719e-05
0.000273176
1.08431e-05
0.000270968
1.10096e-05
0.000268729
1.11714e-05
0.000266457
1.13286e-05
0.000264156
1.14812e-05
0.000261824
1.16294e-05
0.000259465
1.1773e-05
0.000257077
1.19123e-05
0.000254662
1.20473e-05
0.000252222
1.2178e-05
0.000249756
1.23046e-05
0.000247266
1.2427e-05
0.000244752
1.25454e-05
0.000242215
1.26599e-05
0.000239657
1.27704e-05
0.000237077
1.28772e-05
0.000234476
1.29802e-05
0.000231856
1.30796e-05