/*--------------------------------*- C++ -*----------------------------------*\
| =========                 |                                                 |
| \\      /  F ield         | OpenFOAM: The Open Source CFD Toolbox           |
|  \\    /   O peration     | Version:  v2012                                 |
|   \\  /    A nd           | Website:  www.openfoam.com                      |
|    \\/     M anipulation  |                                                 |
\*---------------------------------------------------------------------------*/
FoamFile
{
    version     2.0;
    format      ascii;
    class       volVectorField;
    location    "7.5";
    object      Psi;
}
// * * * * * * * * * * * * * * * * * * * * * * * * * * * * * * * * * * * * * //

dimensions      [0 2 -1 0 0 0 0];


internalField   nonuniform List<vector> 
65536
(
(0 0 9.25678e-06)
(0 0 2.77702e-05)
(0 0 4.62833e-05)
(0 0 6.47958e-05)
(0 0 8.33075e-05)
(0 0 0.000101818)
(0 0 0.000120327)
(0 0 0.000138835)
(0 0 0.000157341)
(0 0 0.000175844)
(0 0 0.000194345)
(0 0 0.000212842)
(0 0 0.000231336)
(0 0 0.000249826)
(0 0 0.000268312)
(0 0 0.000286792)
(0 0 0.000305266)
(0 0 0.000323734)
(0 0 0.000342194)
(0 0 0.000360646)
(0 0 0.000379089)
(0 0 0.000397522)
(0 0 0.000415943)
(0 0 0.000434353)
(0 0 0.000452748)
(0 0 0.000471129)
(0 0 0.000489494)
(0 0 0.000507841)
(0 0 0.000526169)
(0 0 0.000544475)
(0 0 0.000562759)
(0 0 0.000581018)
(0 0 0.00059925)
(0 0 0.000617454)
(0 0 0.000635626)
(0 0 0.000653765)
(0 0 0.000671868)
(0 0 0.000689933)
(0 0 0.000707957)
(0 0 0.000725937)
(0 0 0.00074387)
(0 0 0.000761753)
(0 0 0.000779583)
(0 0 0.000797356)
(0 0 0.00081507)
(0 0 0.000832721)
(0 0 0.000850304)
(0 0 0.000867817)
(0 0 0.000885254)
(0 0 0.000902613)
(0 0 0.000919889)
(0 0 0.000937078)
(0 0 0.000954175)
(0 0 0.000971175)
(0 0 0.000988075)
(0 0 0.00100487)
(0 0 0.00102155)
(0 0 0.00103812)
(0 0 0.00105457)
(0 0 0.00107089)
(0 0 0.00108708)
(0 0 0.00110313)
(0 0 0.00111905)
(0 0 0.00113481)
(0 0 0.00115042)
(0 0 0.00116588)
(0 0 0.00118117)
(0 0 0.00119629)
(0 0 0.00121123)
(0 0 0.00122599)
(0 0 0.00124057)
(0 0 0.00125495)
(0 0 0.00126913)
(0 0 0.0012831)
(0 0 0.00129687)
(0 0 0.00131042)
(0 0 0.00132374)
(0 0 0.00133684)
(0 0 0.0013497)
(0 0 0.00136232)
(0 0 0.00137469)
(0 0 0.00138682)
(0 0 0.00139868)
(0 0 0.00141028)
(0 0 0.00142162)
(0 0 0.00143268)
(0 0 0.00144346)
(0 0 0.00145396)
(0 0 0.00146417)
(0 0 0.00147408)
(0 0 0.0014837)
(0 0 0.00149302)
(0 0 0.00150202)
(0 0 0.00151072)
(0 0 0.0015191)
(0 0 0.00152717)
(0 0 0.00153491)
(0 0 0.00154233)
(0 0 0.00154941)
(0 0 0.00155617)
(0 0 0.00156259)
(0 0 0.00156867)
(0 0 0.00157442)
(0 0 0.00157982)
(0 0 0.00158488)
(0 0 0.0015896)
(0 0 0.00159396)
(0 0 0.00159799)
(0 0 0.00160166)
(0 0 0.00160499)
(0 0 0.00160796)
(0 0 0.00161059)
(0 0 0.00161287)
(0 0 0.0016148)
(0 0 0.00161638)
(0 0 0.00161761)
(0 0 0.0016185)
(0 0 0.00161904)
(0 0 0.00161923)
(0 0 0.00161909)
(0 0 0.0016186)
(0 0 0.00161778)
(0 0 0.00161662)
(0 0 0.00161513)
(0 0 0.0016133)
(0 0 0.00161115)
(0 0 0.00160868)
(0 0 0.00160588)
(0 0 0.00160276)
(0 0 0.00159933)
(0 0 0.00159559)
(0 0 0.00159154)
(0 0 0.00158718)
(0 0 0.00158253)
(0 0 0.00157758)
(0 0 0.00157234)
(0 0 0.00156682)
(0 0 0.00156101)
(0 0 0.00155492)
(0 0 0.00154857)
(0 0 0.00154194)
(0 0 0.00153505)
(0 0 0.0015279)
(0 0 0.0015205)
(0 0 0.00151285)
(0 0 0.00150496)
(0 0 0.00149682)
(0 0 0.00148846)
(0 0 0.00147986)
(0 0 0.00147104)
(0 0 0.001462)
(0 0 0.00145275)
(0 0 0.00144329)
(0 0 0.00143363)
(0 0 0.00142377)
(0 0 0.00141371)
(0 0 0.00140347)
(0 0 0.00139304)
(0 0 0.00138243)
(0 0 0.00137165)
(0 0 0.0013607)
(0 0 0.00134959)
(0 0 0.00133831)
(0 0 0.00132689)
(0 0 0.00131531)
(0 0 0.00130358)
(0 0 0.00129171)
(0 0 0.00127971)
(0 0 0.00126757)
(0 0 0.0012553)
(0 0 0.00124291)
(0 0 0.0012304)
(0 0 0.00121777)
(0 0 0.00120503)
(0 0 0.00119218)
(0 0 0.00117922)
(0 0 0.00116617)
(0 0 0.00115302)
(0 0 0.00113977)
(0 0 0.00112643)
(0 0 0.00111301)
(0 0 0.0010995)
(0 0 0.00108591)
(0 0 0.00107224)
(0 0 0.0010585)
(0 0 0.00104469)
(0 0 0.00103081)
(0 0 0.00101687)
(0 0 0.00100286)
(0 0 0.000988791)
(0 0 0.000974666)
(0 0 0.000960485)
(0 0 0.000946252)
(0 0 0.000931969)
(0 0 0.000917639)
(0 0 0.000903262)
(0 0 0.000888843)
(0 0 0.000874382)
(0 0 0.000859882)
(0 0 0.000845344)
(0 0 0.000830771)
(0 0 0.000816165)
(0 0 0.000801527)
(0 0 0.000786859)
(0 0 0.000772162)
(0 0 0.000757439)
(0 0 0.00074269)
(0 0 0.000727917)
(0 0 0.000713121)
(0 0 0.000698305)
(0 0 0.000683468)
(0 0 0.000668613)
(0 0 0.00065374)
(0 0 0.000638851)
(0 0 0.000623947)
(0 0 0.000609028)
(0 0 0.000594096)
(0 0 0.000579152)
(0 0 0.000564196)
(0 0 0.000549229)
(0 0 0.000534252)
(0 0 0.000519267)
(0 0 0.000504273)
(0 0 0.000489271)
(0 0 0.000474262)
(0 0 0.000459247)
(0 0 0.000444226)
(0 0 0.000429199)
(0 0 0.000414167)
(0 0 0.000399131)
(0 0 0.000384091)
(0 0 0.000369047)
(0 0 0.000354)
(0 0 0.00033895)
(0 0 0.000323898)
(0 0 0.000308843)
(0 0 0.000293786)
(0 0 0.000278727)
(0 0 0.000263667)
(0 0 0.000248605)
(0 0 0.000233542)
(0 0 0.000218478)
(0 0 0.000203414)
(0 0 0.000188348)
(0 0 0.000173282)
(0 0 0.000158215)
(0 0 0.000143148)
(0 0 0.000128081)
(0 0 0.000113013)
(0 0 9.79451e-05)
(0 0 8.28769e-05)
(0 0 6.78086e-05)
(0 0 5.27401e-05)
(0 0 3.76716e-05)
(0 0 2.2603e-05)
(0 0 7.53433e-06)
(0 0 2.77704e-05)
(0 0 8.33109e-05)
(0 0 0.00013885)
(0 0 0.000194388)
(0 0 0.000249923)
(0 0 0.000305455)
(0 0 0.000360984)
(0 0 0.000416507)
(0 0 0.000472024)
(0 0 0.000527535)
(0 0 0.000583037)
(0 0 0.00063853)
(0 0 0.000694013)
(0 0 0.000749483)
(0 0 0.000804939)
(0 0 0.00086038)
(0 0 0.000915804)
(0 0 0.000971207)
(0 0 0.00102659)
(0 0 0.00108195)
(0 0 0.00113728)
(0 0 0.00119258)
(0 0 0.00124784)
(0 0 0.00130307)
(0 0 0.00135826)
(0 0 0.0014134)
(0 0 0.0014685)
(0 0 0.00152354)
(0 0 0.00157853)
(0 0 0.00163345)
(0 0 0.0016883)
(0 0 0.00174308)
(0 0 0.00179778)
(0 0 0.00185239)
(0 0 0.00190691)
(0 0 0.00196133)
(0 0 0.00201564)
(0 0 0.00206984)
(0 0 0.00212391)
(0 0 0.00217786)
(0 0 0.00223166)
(0 0 0.00228531)
(0 0 0.0023388)
(0 0 0.00239213)
(0 0 0.00244527)
(0 0 0.00249823)
(0 0 0.00255098)
(0 0 0.00260352)
(0 0 0.00265584)
(0 0 0.00270792)
(0 0 0.00275975)
(0 0 0.00281132)
(0 0 0.00286262)
(0 0 0.00291362)
(0 0 0.00296433)
(0 0 0.00301472)
(0 0 0.00306477)
(0 0 0.00311448)
(0 0 0.00316383)
(0 0 0.0032128)
(0 0 0.00326137)
(0 0 0.00330954)
(0 0 0.00335729)
(0 0 0.00340459)
(0 0 0.00345143)
(0 0 0.0034978)
(0 0 0.00354367)
(0 0 0.00358903)
(0 0 0.00363387)
(0 0 0.00367816)
(0 0 0.00372189)
(0 0 0.00376504)
(0 0 0.00380759)
(0 0 0.00384952)
(0 0 0.00389082)
(0 0 0.00393147)
(0 0 0.00397145)
(0 0 0.00401074)
(0 0 0.00404933)
(0 0 0.0040872)
(0 0 0.00412433)
(0 0 0.0041607)
(0 0 0.0041963)
(0 0 0.00423111)
(0 0 0.00426512)
(0 0 0.00429831)
(0 0 0.00433066)
(0 0 0.00436216)
(0 0 0.00439279)
(0 0 0.00442254)
(0 0 0.0044514)
(0 0 0.00447935)
(0 0 0.00450638)
(0 0 0.00453248)
(0 0 0.00455763)
(0 0 0.00458182)
(0 0 0.00460505)
(0 0 0.0046273)
(0 0 0.00464856)
(0 0 0.00466883)
(0 0 0.0046881)
(0 0 0.00470635)
(0 0 0.00472359)
(0 0 0.0047398)
(0 0 0.00475498)
(0 0 0.00476913)
(0 0 0.00478224)
(0 0 0.0047943)
(0 0 0.00480533)
(0 0 0.0048153)
(0 0 0.00482423)
(0 0 0.00483211)
(0 0 0.00483894)
(0 0 0.00484473)
(0 0 0.00484947)
(0 0 0.00485317)
(0 0 0.00485583)
(0 0 0.00485745)
(0 0 0.00485804)
(0 0 0.0048576)
(0 0 0.00485614)
(0 0 0.00485367)
(0 0 0.00485019)
(0 0 0.00484571)
(0 0 0.00484023)
(0 0 0.00483378)
(0 0 0.00482634)
(0 0 0.00481794)
(0 0 0.00480859)
(0 0 0.00479829)
(0 0 0.00478706)
(0 0 0.00477491)
(0 0 0.00476184)
(0 0 0.00474788)
(0 0 0.00473303)
(0 0 0.00471731)
(0 0 0.00470073)
(0 0 0.0046833)
(0 0 0.00466504)
(0 0 0.00464596)
(0 0 0.00462608)
(0 0 0.0046054)
(0 0 0.00458395)
(0 0 0.00456174)
(0 0 0.00453879)
(0 0 0.0045151)
(0 0 0.0044907)
(0 0 0.00446559)
(0 0 0.0044398)
(0 0 0.00441334)
(0 0 0.00438622)
(0 0 0.00435846)
(0 0 0.00433008)
(0 0 0.00430108)
(0 0 0.00427149)
(0 0 0.00424132)
(0 0 0.00421059)
(0 0 0.0041793)
(0 0 0.00414747)
(0 0 0.00411513)
(0 0 0.00408227)
(0 0 0.00404892)
(0 0 0.0040151)
(0 0 0.0039808)
(0 0 0.00394606)
(0 0 0.00391088)
(0 0 0.00387527)
(0 0 0.00383925)
(0 0 0.00380283)
(0 0 0.00376602)
(0 0 0.00372885)
(0 0 0.00369131)
(0 0 0.00365342)
(0 0 0.00361519)
(0 0 0.00357664)
(0 0 0.00353777)
(0 0 0.0034986)
(0 0 0.00345914)
(0 0 0.00341939)
(0 0 0.00337938)
(0 0 0.0033391)
(0 0 0.00329858)
(0 0 0.00325781)
(0 0 0.00321681)
(0 0 0.00317558)
(0 0 0.00313414)
(0 0 0.0030925)
(0 0 0.00305066)
(0 0 0.00300864)
(0 0 0.00296643)
(0 0 0.00292405)
(0 0 0.00288151)
(0 0 0.0028388)
(0 0 0.00279595)
(0 0 0.00275296)
(0 0 0.00270983)
(0 0 0.00266657)
(0 0 0.00262318)
(0 0 0.00257968)
(0 0 0.00253607)
(0 0 0.00249235)
(0 0 0.00244853)
(0 0 0.00240461)
(0 0 0.0023606)
(0 0 0.00231651)
(0 0 0.00227234)
(0 0 0.00222809)
(0 0 0.00218377)
(0 0 0.00213938)
(0 0 0.00209493)
(0 0 0.00205042)
(0 0 0.00200586)
(0 0 0.00196124)
(0 0 0.00191657)
(0 0 0.00187185)
(0 0 0.0018271)
(0 0 0.0017823)
(0 0 0.00173747)
(0 0 0.0016926)
(0 0 0.0016477)
(0 0 0.00160277)
(0 0 0.00155781)
(0 0 0.00151283)
(0 0 0.00146782)
(0 0 0.00142279)
(0 0 0.00137775)
(0 0 0.00133268)
(0 0 0.0012876)
(0 0 0.00124251)
(0 0 0.0011974)
(0 0 0.00115228)
(0 0 0.00110714)
(0 0 0.001062)
(0 0 0.00101685)
(0 0 0.000971695)
(0 0 0.00092653)
(0 0 0.000881359)
(0 0 0.000836182)
(0 0 0.000791001)
(0 0 0.000745816)
(0 0 0.000700628)
(0 0 0.000655436)
(0 0 0.000610242)
(0 0 0.000565045)
(0 0 0.000519847)
(0 0 0.000474647)
(0 0 0.000429445)
(0 0 0.000384243)
(0 0 0.000339039)
(0 0 0.000293835)
(0 0 0.000248631)
(0 0 0.000203426)
(0 0 0.00015822)
(0 0 0.000113015)
(0 0 6.78089e-05)
(0 0 2.2603e-05)
(0 0 4.62844e-05)
(0 0 0.000138853)
(0 0 0.000231419)
(0 0 0.000323983)
(0 0 0.000416542)
(0 0 0.000509097)
(0 0 0.000601645)
(0 0 0.000694184)
(0 0 0.000786714)
(0 0 0.000879233)
(0 0 0.000971738)
(0 0 0.00106423)
(0 0 0.0011567)
(0 0 0.00124915)
(0 0 0.00134158)
(0 0 0.00143399)
(0 0 0.00152636)
(0 0 0.0016187)
(0 0 0.00171101)
(0 0 0.00180327)
(0 0 0.00189549)
(0 0 0.00198766)
(0 0 0.00207978)
(0 0 0.00217183)
(0 0 0.00226381)
(0 0 0.00235573)
(0 0 0.00244756)
(0 0 0.0025393)
(0 0 0.00263095)
(0 0 0.00272249)
(0 0 0.00281392)
(0 0 0.00290522)
(0 0 0.00299639)
(0 0 0.00308742)
(0 0 0.00317829)
(0 0 0.003269)
(0 0 0.00335953)
(0 0 0.00344987)
(0 0 0.00354)
(0 0 0.00362991)
(0 0 0.00371959)
(0 0 0.00380903)
(0 0 0.00389819)
(0 0 0.00398708)
(0 0 0.00407566)
(0 0 0.00416393)
(0 0 0.00425187)
(0 0 0.00433945)
(0 0 0.00442666)
(0 0 0.00451348)
(0 0 0.00459988)
(0 0 0.00468584)
(0 0 0.00477135)
(0 0 0.00485638)
(0 0 0.0049409)
(0 0 0.00502489)
(0 0 0.00510834)
(0 0 0.0051912)
(0 0 0.00527346)
(0 0 0.0053551)
(0 0 0.00543608)
(0 0 0.00551638)
(0 0 0.00559597)
(0 0 0.00567482)
(0 0 0.00575291)
(0 0 0.00583021)
(0 0 0.00590668)
(0 0 0.00598231)
(0 0 0.00605705)
(0 0 0.00613089)
(0 0 0.00620379)
(0 0 0.00627573)
(0 0 0.00634666)
(0 0 0.00641657)
(0 0 0.00648543)
(0 0 0.00655319)
(0 0 0.00661985)
(0 0 0.00668535)
(0 0 0.00674969)
(0 0 0.00681282)
(0 0 0.00687472)
(0 0 0.00693536)
(0 0 0.00699471)
(0 0 0.00705275)
(0 0 0.00710945)
(0 0 0.00716478)
(0 0 0.00721871)
(0 0 0.00727123)
(0 0 0.0073223)
(0 0 0.0073719)
(0 0 0.00742001)
(0 0 0.00746661)
(0 0 0.00751167)
(0 0 0.00755518)
(0 0 0.00759711)
(0 0 0.00763744)
(0 0 0.00767617)
(0 0 0.00771326)
(0 0 0.00774871)
(0 0 0.0077825)
(0 0 0.00781462)
(0 0 0.00784505)
(0 0 0.00787378)
(0 0 0.00790081)
(0 0 0.00792612)
(0 0 0.0079497)
(0 0 0.00797155)
(0 0 0.00799167)
(0 0 0.00801004)
(0 0 0.00802667)
(0 0 0.00804155)
(0 0 0.00805468)
(0 0 0.00806607)
(0 0 0.00807571)
(0 0 0.00808361)
(0 0 0.00808977)
(0 0 0.00809419)
(0 0 0.00809689)
(0 0 0.00809787)
(0 0 0.00809714)
(0 0 0.0080947)
(0 0 0.00809057)
(0 0 0.00808476)
(0 0 0.00807728)
(0 0 0.00806815)
(0 0 0.00805737)
(0 0 0.00804498)
(0 0 0.00803097)
(0 0 0.00801537)
(0 0 0.00799819)
(0 0 0.00797946)
(0 0 0.00795919)
(0 0 0.0079374)
(0 0 0.00791411)
(0 0 0.00788935)
(0 0 0.00786313)
(0 0 0.00783548)
(0 0 0.00780642)
(0 0 0.00777597)
(0 0 0.00774416)
(0 0 0.007711)
(0 0 0.00767653)
(0 0 0.00764077)
(0 0 0.00760373)
(0 0 0.00756546)
(0 0 0.00752596)
(0 0 0.00748527)
(0 0 0.00744341)
(0 0 0.00740041)
(0 0 0.00735629)
(0 0 0.00731108)
(0 0 0.0072648)
(0 0 0.00721748)
(0 0 0.00716913)
(0 0 0.0071198)
(0 0 0.0070695)
(0 0 0.00701825)
(0 0 0.00696609)
(0 0 0.00691303)
(0 0 0.00685911)
(0 0 0.00680433)
(0 0 0.00674874)
(0 0 0.00669234)
(0 0 0.00663517)
(0 0 0.00657725)
(0 0 0.0065186)
(0 0 0.00645924)
(0 0 0.00639919)
(0 0 0.00633848)
(0 0 0.00627712)
(0 0 0.00621514)
(0 0 0.00615256)
(0 0 0.0060894)
(0 0 0.00602568)
(0 0 0.00596141)
(0 0 0.00589662)
(0 0 0.00583133)
(0 0 0.00576554)
(0 0 0.00569929)
(0 0 0.00563259)
(0 0 0.00556545)
(0 0 0.00549789)
(0 0 0.00542993)
(0 0 0.00536159)
(0 0 0.00529287)
(0 0 0.0052238)
(0 0 0.00515439)
(0 0 0.00508465)
(0 0 0.00501459)
(0 0 0.00494424)
(0 0 0.0048736)
(0 0 0.00480268)
(0 0 0.00473151)
(0 0 0.00466008)
(0 0 0.00458842)
(0 0 0.00451652)
(0 0 0.00444442)
(0 0 0.0043721)
(0 0 0.00429959)
(0 0 0.00422689)
(0 0 0.00415402)
(0 0 0.00408098)
(0 0 0.00400778)
(0 0 0.00393443)
(0 0 0.00386094)
(0 0 0.00378732)
(0 0 0.00371357)
(0 0 0.00363969)
(0 0 0.00356571)
(0 0 0.00349162)
(0 0 0.00341743)
(0 0 0.00334315)
(0 0 0.00326878)
(0 0 0.00319433)
(0 0 0.0031198)
(0 0 0.0030452)
(0 0 0.00297054)
(0 0 0.00289581)
(0 0 0.00282103)
(0 0 0.00274619)
(0 0 0.00267131)
(0 0 0.00259637)
(0 0 0.0025214)
(0 0 0.00244639)
(0 0 0.00237134)
(0 0 0.00229626)
(0 0 0.00222115)
(0 0 0.00214602)
(0 0 0.00207086)
(0 0 0.00199567)
(0 0 0.00192047)
(0 0 0.00184525)
(0 0 0.00177001)
(0 0 0.00169476)
(0 0 0.0016195)
(0 0 0.00154422)
(0 0 0.00146894)
(0 0 0.00139364)
(0 0 0.00131834)
(0 0 0.00124303)
(0 0 0.00116772)
(0 0 0.0010924)
(0 0 0.00101707)
(0 0 0.000941744)
(0 0 0.000866413)
(0 0 0.000791079)
(0 0 0.000715743)
(0 0 0.000640406)
(0 0 0.000565067)
(0 0 0.000489726)
(0 0 0.000414385)
(0 0 0.000339043)
(0 0 0.000263701)
(0 0 0.000188358)
(0 0 0.000113015)
(0 0 3.76717e-05)
(0 0 6.47989e-05)
(0 0 0.000194396)
(0 0 0.000323991)
(0 0 0.000453582)
(0 0 0.000583167)
(0 0 0.000712745)
(0 0 0.000842314)
(0 0 0.000971872)
(0 0 0.00110142)
(0 0 0.00123095)
(0 0 0.00136046)
(0 0 0.00148994)
(0 0 0.00161941)
(0 0 0.00174885)
(0 0 0.00187825)
(0 0 0.00200762)
(0 0 0.00213695)
(0 0 0.00226624)
(0 0 0.00239547)
(0 0 0.00252465)
(0 0 0.00265376)
(0 0 0.00278281)
(0 0 0.00291177)
(0 0 0.00304066)
(0 0 0.00316944)
(0 0 0.00329813)
(0 0 0.0034267)
(0 0 0.00355515)
(0 0 0.00368347)
(0 0 0.00381164)
(0 0 0.00393965)
(0 0 0.0040675)
(0 0 0.00419515)
(0 0 0.00432261)
(0 0 0.00444985)
(0 0 0.00457685)
(0 0 0.00470361)
(0 0 0.0048301)
(0 0 0.00495631)
(0 0 0.00508221)
(0 0 0.00520778)
(0 0 0.00533301)
(0 0 0.00545786)
(0 0 0.00558233)
(0 0 0.00570637)
(0 0 0.00582998)
(0 0 0.00595311)
(0 0 0.00607576)
(0 0 0.00619788)
(0 0 0.00631945)
(0 0 0.00644044)
(0 0 0.00656082)
(0 0 0.00668056)
(0 0 0.00679963)
(0 0 0.006918)
(0 0 0.00703562)
(0 0 0.00715248)
(0 0 0.00726853)
(0 0 0.00738373)
(0 0 0.00749805)
(0 0 0.00761146)
(0 0 0.00772392)
(0 0 0.00783538)
(0 0 0.00794582)
(0 0 0.00805518)
(0 0 0.00816344)
(0 0 0.00827055)
(0 0 0.00837646)
(0 0 0.00848115)
(0 0 0.00858456)
(0 0 0.00868666)
(0 0 0.00878741)
(0 0 0.00888676)
(0 0 0.00898468)
(0 0 0.00908112)
(0 0 0.00917603)
(0 0 0.00926939)
(0 0 0.00936114)
(0 0 0.00945125)
(0 0 0.00953967)
(0 0 0.00962637)
(0 0 0.00971131)
(0 0 0.00979444)
(0 0 0.00987573)
(0 0 0.00995514)
(0 0 0.0100326)
(0 0 0.0101082)
(0 0 0.0101817)
(0 0 0.0102533)
(0 0 0.0103227)
(0 0 0.0103901)
(0 0 0.0104554)
(0 0 0.0105185)
(0 0 0.0105795)
(0 0 0.0106382)
(0 0 0.0106947)
(0 0 0.0107489)
(0 0 0.0108009)
(0 0 0.0108505)
(0 0 0.0108978)
(0 0 0.0109428)
(0 0 0.0109854)
(0 0 0.0110257)
(0 0 0.0110635)
(0 0 0.011099)
(0 0 0.011132)
(0 0 0.0111626)
(0 0 0.0111908)
(0 0 0.0112165)
(0 0 0.0112398)
(0 0 0.0112606)
(0 0 0.011279)
(0 0 0.0112949)
(0 0 0.0113084)
(0 0 0.0113195)
(0 0 0.0113281)
(0 0 0.0113343)
(0 0 0.0113381)
(0 0 0.0113394)
(0 0 0.0113384)
(0 0 0.0113349)
(0 0 0.0113292)
(0 0 0.011321)
(0 0 0.0113105)
(0 0 0.0112977)
(0 0 0.0112826)
(0 0 0.0112652)
(0 0 0.0112456)
(0 0 0.0112237)
(0 0 0.0111996)
(0 0 0.0111734)
(0 0 0.011145)
(0 0 0.0111145)
(0 0 0.0110818)
(0 0 0.0110471)
(0 0 0.0110104)
(0 0 0.0109717)
(0 0 0.0109309)
(0 0 0.0108883)
(0 0 0.0108437)
(0 0 0.0107972)
(0 0 0.010749)
(0 0 0.0106988)
(0 0 0.010647)
(0 0 0.0105933)
(0 0 0.010538)
(0 0 0.010481)
(0 0 0.0104224)
(0 0 0.0103621)
(0 0 0.0103003)
(0 0 0.010237)
(0 0 0.0101722)
(0 0 0.0101059)
(0 0 0.0100382)
(0 0 0.00996908)
(0 0 0.00989862)
(0 0 0.00982684)
(0 0 0.00975378)
(0 0 0.00967947)
(0 0 0.00960393)
(0 0 0.00952722)
(0 0 0.00944935)
(0 0 0.00937037)
(0 0 0.0092903)
(0 0 0.00920917)
(0 0 0.00912703)
(0 0 0.00904389)
(0 0 0.0089598)
(0 0 0.00887477)
(0 0 0.00878884)
(0 0 0.00870204)
(0 0 0.0086144)
(0 0 0.00852595)
(0 0 0.00843671)
(0 0 0.00834671)
(0 0 0.00825598)
(0 0 0.00816454)
(0 0 0.00807242)
(0 0 0.00797964)
(0 0 0.00788623)
(0 0 0.00779222)
(0 0 0.00769761)
(0 0 0.00760245)
(0 0 0.00750674)
(0 0 0.00741052)
(0 0 0.0073138)
(0 0 0.0072166)
(0 0 0.00711894)
(0 0 0.00702085)
(0 0 0.00692234)
(0 0 0.00682342)
(0 0 0.00672413)
(0 0 0.00662446)
(0 0 0.00652445)
(0 0 0.0064241)
(0 0 0.00632344)
(0 0 0.00622247)
(0 0 0.00612122)
(0 0 0.00601969)
(0 0 0.0059179)
(0 0 0.00581587)
(0 0 0.0057136)
(0 0 0.00561111)
(0 0 0.00550841)
(0 0 0.00540551)
(0 0 0.00530242)
(0 0 0.00519916)
(0 0 0.00509573)
(0 0 0.00499214)
(0 0 0.00488841)
(0 0 0.00478454)
(0 0 0.00468053)
(0 0 0.00457641)
(0 0 0.00447217)
(0 0 0.00436782)
(0 0 0.00426338)
(0 0 0.00415884)
(0 0 0.00405422)
(0 0 0.00394952)
(0 0 0.00384474)
(0 0 0.00373989)
(0 0 0.00363498)
(0 0 0.00353002)
(0 0 0.00342499)
(0 0 0.00331992)
(0 0 0.00321481)
(0 0 0.00310965)
(0 0 0.00300446)
(0 0 0.00289923)
(0 0 0.00279397)
(0 0 0.00268869)
(0 0 0.00258337)
(0 0 0.00247804)
(0 0 0.00237269)
(0 0 0.00226731)
(0 0 0.00216193)
(0 0 0.00205652)
(0 0 0.00195111)
(0 0 0.00184569)
(0 0 0.00174025)
(0 0 0.00163481)
(0 0 0.00152936)
(0 0 0.00142391)
(0 0 0.00131845)
(0 0 0.00121298)
(0 0 0.00110751)
(0 0 0.00100204)
(0 0 0.00089657)
(0 0 0.000791095)
(0 0 0.000685618)
(0 0 0.00058014)
(0 0 0.000474661)
(0 0 0.000369182)
(0 0 0.000263702)
(0 0 0.000158221)
(0 0 5.27404e-05)
(0 0 8.33142e-05)
(0 0 0.000249942)
(0 0 0.000416566)
(0 0 0.000583186)
(0 0 0.000749799)
(0 0 0.000916402)
(0 0 0.00108299)
(0 0 0.00124957)
(0 0 0.00141613)
(0 0 0.00158268)
(0 0 0.00174919)
(0 0 0.00191569)
(0 0 0.00208215)
(0 0 0.00224857)
(0 0 0.00241496)
(0 0 0.0025813)
(0 0 0.00274759)
(0 0 0.00291382)
(0 0 0.00307999)
(0 0 0.00324608)
(0 0 0.0034121)
(0 0 0.00357803)
(0 0 0.00374385)
(0 0 0.00390958)
(0 0 0.00407518)
(0 0 0.00424065)
(0 0 0.00440597)
(0 0 0.00457114)
(0 0 0.00473614)
(0 0 0.00490096)
(0 0 0.00506557)
(0 0 0.00522996)
(0 0 0.00539411)
(0 0 0.00555801)
(0 0 0.00572163)
(0 0 0.00588496)
(0 0 0.00604796)
(0 0 0.00621063)
(0 0 0.00637292)
(0 0 0.00653483)
(0 0 0.00669632)
(0 0 0.00685736)
(0 0 0.00701793)
(0 0 0.00717799)
(0 0 0.00733752)
(0 0 0.00749649)
(0 0 0.00765485)
(0 0 0.00781258)
(0 0 0.00796965)
(0 0 0.008126)
(0 0 0.00828161)
(0 0 0.00843644)
(0 0 0.00859045)
(0 0 0.0087436)
(0 0 0.00889584)
(0 0 0.00904713)
(0 0 0.00919743)
(0 0 0.00934669)
(0 0 0.00949488)
(0 0 0.00964193)
(0 0 0.00978781)
(0 0 0.00993246)
(0 0 0.0100758)
(0 0 0.0102179)
(0 0 0.0103586)
(0 0 0.0104978)
(0 0 0.0106356)
(0 0 0.0107718)
(0 0 0.0109065)
(0 0 0.0110395)
(0 0 0.0111709)
(0 0 0.0113005)
(0 0 0.0114283)
(0 0 0.0115543)
(0 0 0.0116783)
(0 0 0.0118004)
(0 0 0.0119205)
(0 0 0.0120386)
(0 0 0.0121545)
(0 0 0.0122682)
(0 0 0.0123798)
(0 0 0.0124891)
(0 0 0.012596)
(0 0 0.0127006)
(0 0 0.0128028)
(0 0 0.0129025)
(0 0 0.0129996)
(0 0 0.0130943)
(0 0 0.0131863)
(0 0 0.0132757)
(0 0 0.0133624)
(0 0 0.0134463)
(0 0 0.0135275)
(0 0 0.0136059)
(0 0 0.0136815)
(0 0 0.0137542)
(0 0 0.0138239)
(0 0 0.0138908)
(0 0 0.0139547)
(0 0 0.0140155)
(0 0 0.0140734)
(0 0 0.0141282)
(0 0 0.01418)
(0 0 0.0142287)
(0 0 0.0142743)
(0 0 0.0143167)
(0 0 0.0143561)
(0 0 0.0143923)
(0 0 0.0144254)
(0 0 0.0144553)
(0 0 0.0144821)
(0 0 0.0145058)
(0 0 0.0145263)
(0 0 0.0145436)
(0 0 0.0145578)
(0 0 0.0145689)
(0 0 0.0145768)
(0 0 0.0145816)
(0 0 0.0145834)
(0 0 0.014582)
(0 0 0.0145776)
(0 0 0.0145701)
(0 0 0.0145596)
(0 0 0.0145461)
(0 0 0.0145296)
(0 0 0.0145101)
(0 0 0.0144877)
(0 0 0.0144624)
(0 0 0.0144343)
(0 0 0.0144033)
(0 0 0.0143695)
(0 0 0.0143329)
(0 0 0.0142936)
(0 0 0.0142516)
(0 0 0.0142069)
(0 0 0.0141597)
(0 0 0.0141098)
(0 0 0.0140574)
(0 0 0.0140025)
(0 0 0.0139451)
(0 0 0.0138853)
(0 0 0.0138232)
(0 0 0.0137587)
(0 0 0.0136919)
(0 0 0.0136229)
(0 0 0.0135517)
(0 0 0.0134784)
(0 0 0.013403)
(0 0 0.0133254)
(0 0 0.0132459)
(0 0 0.0131644)
(0 0 0.013081)
(0 0 0.0129957)
(0 0 0.0129086)
(0 0 0.0128197)
(0 0 0.0127291)
(0 0 0.0126367)
(0 0 0.0125427)
(0 0 0.0124471)
(0 0 0.0123499)
(0 0 0.0122513)
(0 0 0.0121511)
(0 0 0.0120495)
(0 0 0.0119465)
(0 0 0.0118421)
(0 0 0.0117365)
(0 0 0.0116295)
(0 0 0.0115213)
(0 0 0.011412)
(0 0 0.0113014)
(0 0 0.0111898)
(0 0 0.0110771)
(0 0 0.0109633)
(0 0 0.0108485)
(0 0 0.0107327)
(0 0 0.010616)
(0 0 0.0104984)
(0 0 0.01038)
(0 0 0.0102606)
(0 0 0.0101405)
(0 0 0.0100196)
(0 0 0.0098979)
(0 0 0.00977551)
(0 0 0.00965242)
(0 0 0.00952867)
(0 0 0.00940428)
(0 0 0.00927927)
(0 0 0.00915368)
(0 0 0.00902753)
(0 0 0.00890084)
(0 0 0.00877363)
(0 0 0.00864593)
(0 0 0.00851777)
(0 0 0.00838915)
(0 0 0.00826011)
(0 0 0.00813065)
(0 0 0.00800081)
(0 0 0.00787061)
(0 0 0.00774005)
(0 0 0.00760915)
(0 0 0.00747794)
(0 0 0.00734643)
(0 0 0.00721464)
(0 0 0.00708258)
(0 0 0.00695026)
(0 0 0.0068177)
(0 0 0.00668492)
(0 0 0.00655192)
(0 0 0.00641872)
(0 0 0.00628534)
(0 0 0.00615177)
(0 0 0.00601804)
(0 0 0.00588415)
(0 0 0.00575012)
(0 0 0.00561595)
(0 0 0.00548165)
(0 0 0.00534723)
(0 0 0.00521271)
(0 0 0.00507808)
(0 0 0.00494335)
(0 0 0.00480854)
(0 0 0.00467365)
(0 0 0.00453868)
(0 0 0.00440365)
(0 0 0.00426855)
(0 0 0.0041334)
(0 0 0.00399819)
(0 0 0.00386293)
(0 0 0.00372764)
(0 0 0.0035923)
(0 0 0.00345693)
(0 0 0.00332152)
(0 0 0.00318609)
(0 0 0.00305063)
(0 0 0.00291515)
(0 0 0.00277964)
(0 0 0.00264412)
(0 0 0.00250859)
(0 0 0.00237304)
(0 0 0.00223748)
(0 0 0.00210191)
(0 0 0.00196633)
(0 0 0.00183074)
(0 0 0.00169515)
(0 0 0.00155955)
(0 0 0.00142395)
(0 0 0.00128835)
(0 0 0.00115274)
(0 0 0.00101712)
(0 0 0.000881511)
(0 0 0.000745896)
(0 0 0.00061028)
(0 0 0.000474663)
(0 0 0.000339046)
(0 0 0.000203428)
(0 0 6.78092e-05)
(0 0 0.00010183)
(0 0 0.00030549)
(0 0 0.000509147)
(0 0 0.000712797)
(0 0 0.00091644)
(0 0 0.00112007)
(0 0 0.00132369)
(0 0 0.00152729)
(0 0 0.00173087)
(0 0 0.00193443)
(0 0 0.00213796)
(0 0 0.00234146)
(0 0 0.00254492)
(0 0 0.00274834)
(0 0 0.00295171)
(0 0 0.00315503)
(0 0 0.00335828)
(0 0 0.00356147)
(0 0 0.00376458)
(0 0 0.0039676)
(0 0 0.00417053)
(0 0 0.00437335)
(0 0 0.00457605)
(0 0 0.00477862)
(0 0 0.00498104)
(0 0 0.00518331)
(0 0 0.0053854)
(0 0 0.00558731)
(0 0 0.005789)
(0 0 0.00599047)
(0 0 0.0061917)
(0 0 0.00639266)
(0 0 0.00659333)
(0 0 0.00679369)
(0 0 0.00699371)
(0 0 0.00719338)
(0 0 0.00739265)
(0 0 0.00759151)
(0 0 0.00778993)
(0 0 0.00798787)
(0 0 0.0081853)
(0 0 0.00838219)
(0 0 0.0085785)
(0 0 0.0087742)
(0 0 0.00896924)
(0 0 0.0091636)
(0 0 0.00935723)
(0 0 0.00955008)
(0 0 0.00974212)
(0 0 0.0099333)
(0 0 0.0101236)
(0 0 0.0103129)
(0 0 0.0105012)
(0 0 0.0106885)
(0 0 0.0108746)
(0 0 0.0110596)
(0 0 0.0112434)
(0 0 0.0114259)
(0 0 0.0116072)
(0 0 0.011787)
(0 0 0.0119654)
(0 0 0.0121423)
(0 0 0.0123176)
(0 0 0.0124913)
(0 0 0.0126634)
(0 0 0.0128337)
(0 0 0.0130022)
(0 0 0.0131688)
(0 0 0.0133335)
(0 0 0.0134962)
(0 0 0.0136569)
(0 0 0.0138154)
(0 0 0.0139717)
(0 0 0.0141258)
(0 0 0.0142775)
(0 0 0.0144268)
(0 0 0.0145737)
(0 0 0.0147181)
(0 0 0.0148599)
(0 0 0.014999)
(0 0 0.0151355)
(0 0 0.0152691)
(0 0 0.0154)
(0 0 0.0155279)
(0 0 0.0156528)
(0 0 0.0157748)
(0 0 0.0158937)
(0 0 0.0160094)
(0 0 0.016122)
(0 0 0.0162313)
(0 0 0.0163374)
(0 0 0.0164401)
(0 0 0.0165394)
(0 0 0.0166353)
(0 0 0.0167277)
(0 0 0.0168166)
(0 0 0.0169019)
(0 0 0.0169837)
(0 0 0.0170618)
(0 0 0.0171362)
(0 0 0.017207)
(0 0 0.0172741)
(0 0 0.0173374)
(0 0 0.0173969)
(0 0 0.0174527)
(0 0 0.0175046)
(0 0 0.0175527)
(0 0 0.017597)
(0 0 0.0176375)
(0 0 0.0176741)
(0 0 0.0177068)
(0 0 0.0177357)
(0 0 0.0177607)
(0 0 0.0177819)
(0 0 0.0177993)
(0 0 0.0178128)
(0 0 0.0178224)
(0 0 0.0178283)
(0 0 0.0178304)
(0 0 0.0178287)
(0 0 0.0178232)
(0 0 0.0178141)
(0 0 0.0178012)
(0 0 0.0177846)
(0 0 0.0177644)
(0 0 0.0177405)
(0 0 0.0177131)
(0 0 0.0176822)
(0 0 0.0176477)
(0 0 0.0176097)
(0 0 0.0175683)
(0 0 0.0175236)
(0 0 0.0174755)
(0 0 0.0174241)
(0 0 0.0173694)
(0 0 0.0173115)
(0 0 0.0172505)
(0 0 0.0171864)
(0 0 0.0171192)
(0 0 0.017049)
(0 0 0.0169758)
(0 0 0.0168998)
(0 0 0.0168209)
(0 0 0.0167392)
(0 0 0.0166547)
(0 0 0.0165676)
(0 0 0.0164779)
(0 0 0.0163856)
(0 0 0.0162908)
(0 0 0.0161935)
(0 0 0.0160938)
(0 0 0.0159917)
(0 0 0.0158874)
(0 0 0.0157808)
(0 0 0.0156721)
(0 0 0.0155612)
(0 0 0.0154482)
(0 0 0.0153333)
(0 0 0.0152163)
(0 0 0.0150975)
(0 0 0.0149768)
(0 0 0.0148543)
(0 0 0.01473)
(0 0 0.014604)
(0 0 0.0144764)
(0 0 0.0143471)
(0 0 0.0142164)
(0 0 0.0140841)
(0 0 0.0139503)
(0 0 0.0138151)
(0 0 0.0136786)
(0 0 0.0135408)
(0 0 0.0134016)
(0 0 0.0132613)
(0 0 0.0131197)
(0 0 0.012977)
(0 0 0.0128332)
(0 0 0.0126883)
(0 0 0.0125424)
(0 0 0.0123955)
(0 0 0.0122477)
(0 0 0.0120989)
(0 0 0.0119493)
(0 0 0.0117988)
(0 0 0.0116475)
(0 0 0.0114954)
(0 0 0.0113425)
(0 0 0.011189)
(0 0 0.0110347)
(0 0 0.0108799)
(0 0 0.0107243)
(0 0 0.0105682)
(0 0 0.0104115)
(0 0 0.0102543)
(0 0 0.0100965)
(0 0 0.00993826)
(0 0 0.00977953)
(0 0 0.00962035)
(0 0 0.00946074)
(0 0 0.00930072)
(0 0 0.00914032)
(0 0 0.00897956)
(0 0 0.00881844)
(0 0 0.00865701)
(0 0 0.00849526)
(0 0 0.00833321)
(0 0 0.0081709)
(0 0 0.00800832)
(0 0 0.00784549)
(0 0 0.00768244)
(0 0 0.00751917)
(0 0 0.0073557)
(0 0 0.00719204)
(0 0 0.0070282)
(0 0 0.00686419)
(0 0 0.00670004)
(0 0 0.00653573)
(0 0 0.00637129)
(0 0 0.00620673)
(0 0 0.00604206)
(0 0 0.00587727)
(0 0 0.00571239)
(0 0 0.00554742)
(0 0 0.00538237)
(0 0 0.00521724)
(0 0 0.00505204)
(0 0 0.00488678)
(0 0 0.00472145)
(0 0 0.00455608)
(0 0 0.00439066)
(0 0 0.0042252)
(0 0 0.00405969)
(0 0 0.00389416)
(0 0 0.00372859)
(0 0 0.003563)
(0 0 0.00339738)
(0 0 0.00323174)
(0 0 0.00306608)
(0 0 0.00290041)
(0 0 0.00273472)
(0 0 0.00256902)
(0 0 0.00240331)
(0 0 0.00223759)
(0 0 0.00207186)
(0 0 0.00190613)
(0 0 0.00174039)
(0 0 0.00157465)
(0 0 0.00140891)
(0 0 0.00124316)
(0 0 0.00107741)
(0 0 0.000911654)
(0 0 0.0007459)
(0 0 0.000580146)
(0 0 0.00041439)
(0 0 0.000248634)
(0 0 8.28782e-05)
(0 0 0.000120348)
(0 0 0.000361042)
(0 0 0.000601733)
(0 0 0.000842417)
(0 0 0.00108309)
(0 0 0.00132375)
(0 0 0.0015644)
(0 0 0.00180503)
(0 0 0.00204563)
(0 0 0.00228621)
(0 0 0.00252676)
(0 0 0.00276727)
(0 0 0.00300773)
(0 0 0.00324815)
(0 0 0.00348852)
(0 0 0.00372882)
(0 0 0.00396905)
(0 0 0.00420919)
(0 0 0.00444925)
(0 0 0.00468921)
(0 0 0.00492906)
(0 0 0.00516878)
(0 0 0.00540837)
(0 0 0.0056478)
(0 0 0.00588706)
(0 0 0.00612614)
(0 0 0.00636502)
(0 0 0.00660367)
(0 0 0.00684209)
(0 0 0.00708023)
(0 0 0.00731809)
(0 0 0.00755564)
(0 0 0.00779286)
(0 0 0.0080297)
(0 0 0.00826616)
(0 0 0.00850219)
(0 0 0.00873776)
(0 0 0.00897285)
(0 0 0.00920741)
(0 0 0.00944142)
(0 0 0.00967482)
(0 0 0.00990759)
(0 0 0.0101397)
(0 0 0.0103711)
(0 0 0.0106017)
(0 0 0.0108314)
(0 0 0.0110604)
(0 0 0.0112884)
(0 0 0.0115155)
(0 0 0.0117415)
(0 0 0.0119665)
(0 0 0.0121903)
(0 0 0.012413)
(0 0 0.0126344)
(0 0 0.0128546)
(0 0 0.0130733)
(0 0 0.0132907)
(0 0 0.0135065)
(0 0 0.0137208)
(0 0 0.0139335)
(0 0 0.0141444)
(0 0 0.0143536)
(0 0 0.014561)
(0 0 0.0147665)
(0 0 0.0149699)
(0 0 0.0151714)
(0 0 0.0153706)
(0 0 0.0155677)
(0 0 0.0157625)
(0 0 0.015955)
(0 0 0.016145)
(0 0 0.0163325)
(0 0 0.0165174)
(0 0 0.0166996)
(0 0 0.0168791)
(0 0 0.0170557)
(0 0 0.0172295)
(0 0 0.0174002)
(0 0 0.017568)
(0 0 0.0177326)
(0 0 0.0178939)
(0 0 0.018052)
(0 0 0.0182068)
(0 0 0.0183581)
(0 0 0.0185059)
(0 0 0.0186502)
(0 0 0.0187908)
(0 0 0.0189277)
(0 0 0.0190609)
(0 0 0.0191902)
(0 0 0.0193157)
(0 0 0.0194372)
(0 0 0.0195546)
(0 0 0.0196681)
(0 0 0.0197774)
(0 0 0.0198825)
(0 0 0.0199835)
(0 0 0.0200802)
(0 0 0.0201726)
(0 0 0.0202607)
(0 0 0.0203444)
(0 0 0.0204236)
(0 0 0.0204985)
(0 0 0.0205689)
(0 0 0.0206349)
(0 0 0.0206963)
(0 0 0.0207532)
(0 0 0.0208055)
(0 0 0.0208534)
(0 0 0.0208966)
(0 0 0.0209353)
(0 0 0.0209695)
(0 0 0.0209991)
(0 0 0.0210241)
(0 0 0.0210446)
(0 0 0.0210605)
(0 0 0.0210719)
(0 0 0.0210788)
(0 0 0.0210812)
(0 0 0.0210792)
(0 0 0.0210727)
(0 0 0.0210617)
(0 0 0.0210464)
(0 0 0.0210268)
(0 0 0.0210028)
(0 0 0.0209746)
(0 0 0.0209421)
(0 0 0.0209054)
(0 0 0.0208646)
(0 0 0.0208196)
(0 0 0.0207706)
(0 0 0.0207176)
(0 0 0.0206606)
(0 0 0.0205998)
(0 0 0.020535)
(0 0 0.0204665)
(0 0 0.0203943)
(0 0 0.0203184)
(0 0 0.0202388)
(0 0 0.0201558)
(0 0 0.0200692)
(0 0 0.0199792)
(0 0 0.0198858)
(0 0 0.0197891)
(0 0 0.0196892)
(0 0 0.0195861)
(0 0 0.01948)
(0 0 0.0193707)
(0 0 0.0192585)
(0 0 0.0191434)
(0 0 0.0190255)
(0 0 0.0189048)
(0 0 0.0187813)
(0 0 0.0186552)
(0 0 0.0185266)
(0 0 0.0183954)
(0 0 0.0182618)
(0 0 0.0181258)
(0 0 0.0179875)
(0 0 0.0178469)
(0 0 0.0177041)
(0 0 0.0175592)
(0 0 0.0174122)
(0 0 0.0172632)
(0 0 0.0171123)
(0 0 0.0169594)
(0 0 0.0168047)
(0 0 0.0166483)
(0 0 0.0164901)
(0 0 0.0163302)
(0 0 0.0161688)
(0 0 0.0160057)
(0 0 0.0158412)
(0 0 0.0156752)
(0 0 0.0155078)
(0 0 0.0153391)
(0 0 0.015169)
(0 0 0.0149977)
(0 0 0.0148252)
(0 0 0.0146515)
(0 0 0.0144767)
(0 0 0.0143008)
(0 0 0.0141239)
(0 0 0.0139459)
(0 0 0.013767)
(0 0 0.0135872)
(0 0 0.0134065)
(0 0 0.013225)
(0 0 0.0130426)
(0 0 0.0128595)
(0 0 0.0126756)
(0 0 0.0124911)
(0 0 0.0123058)
(0 0 0.0121199)
(0 0 0.0119334)
(0 0 0.0117463)
(0 0 0.0115587)
(0 0 0.0113705)
(0 0 0.0111818)
(0 0 0.0109927)
(0 0 0.0108031)
(0 0 0.010613)
(0 0 0.0104226)
(0 0 0.0102317)
(0 0 0.0100405)