/*--------------------------------*- C++ -*----------------------------------*\
| =========                 |                                                 |
| \\      /  F ield         | OpenFOAM: The Open Source CFD Toolbox           |
|  \\    /   O peration     | Version:  v2012                                 |
|   \\  /    A nd           | Website:  www.openfoam.com                      |
|    \\/     M anipulation  |                                                 |
\*---------------------------------------------------------------------------*/
FoamFile
{
    version     2.0;
    format      ascii;
    class       volVectorField;
    location    "7.5";
    object      U;
}
// * * * * * * * * * * * * * * * * * * * * * * * * * * * * * * * * * * * * * //

dimensions      [0 1 -1 0 0 0 0];


internalField   nonuniform List<vector> 
65536
(
(0.000754106 -0.000754101 0)
(0.00226231 -0.00075409 0)
(0.00377047 -0.000754069 0)
(0.00527859 -0.000754038 0)
(0.00678664 -0.000753995 0)
(0.00829458 -0.000753941 0)
(0.00980241 -0.000753874 0)
(0.0113101 -0.000753794 0)
(0.0128176 -0.000753699 0)
(0.0143249 -0.000753588 0)
(0.015832 -0.000753459 0)
(0.0173388 -0.000753312 0)
(0.0188452 -0.000753144 0)
(0.0203514 -0.000752954 0)
(0.0218571 -0.00075274 0)
(0.0233623 -0.000752499 0)
(0.0248671 -0.000752229 0)
(0.0263713 -0.000751927 0)
(0.0278748 -0.000751592 0)
(0.0293777 -0.00075122 0)
(0.0308798 -0.000750808 0)
(0.032381 -0.000750354 0)
(0.0338812 -0.000749854 0)
(0.0353804 -0.000749305 0)
(0.0368785 -0.000748703 0)
(0.0383753 -0.000748045 0)
(0.0398707 -0.000747328 0)
(0.0413647 -0.000746546 0)
(0.042857 -0.000745698 0)
(0.0443475 -0.000744777 0)
(0.0458362 -0.000743781 0)
(0.0473227 -0.000742705 0)
(0.0488071 -0.000741544 0)
(0.050289 -0.000740294 0)
(0.0517683 -0.000738951 0)
(0.0532449 -0.00073751 0)
(0.0547185 -0.000735966 0)
(0.0561889 -0.000734315 0)
(0.0576558 -0.000732551 0)
(0.0591192 -0.000730669 0)
(0.0605786 -0.000728666 0)
(0.062034 -0.000726535 0)
(0.0634849 -0.000724271 0)
(0.0649312 -0.000721871 0)
(0.0663725 -0.000719328 0)
(0.0678086 -0.000716637 0)
(0.0692392 -0.000713794 0)
(0.070664 -0.000710793 0)
(0.0720826 -0.00070763 0)
(0.0734947 -0.000704299 0)
(0.0748999 -0.000700796 0)
(0.076298 -0.000697116 0)
(0.0776886 -0.000693254 0)
(0.0790712 -0.000689205 0)
(0.0804456 -0.000684965 0)
(0.0818113 -0.00068053 0)
(0.0831679 -0.000675894 0)
(0.0845151 -0.000671055 0)
(0.0858523 -0.000666008 0)
(0.0871793 -0.000660749 0)
(0.0884955 -0.000655274 0)
(0.0898006 -0.000649581 0)
(0.0910941 -0.000643666 0)
(0.0923755 -0.000637526 0)
(0.0936444 -0.000631158 0)
(0.0949003 -0.00062456 0)
(0.0961429 -0.000617729 0)
(0.0973715 -0.000610665 0)
(0.0985858 -0.000603364 0)
(0.0997852 -0.000595826 0)
(0.100969 -0.00058805 0)
(0.102138 -0.000580035 0)
(0.10329 -0.000571781 0)
(0.104425 -0.000563287 0)
(0.105543 -0.000554555 0)
(0.106643 -0.000545584 0)
(0.107726 -0.000536377 0)
(0.108789 -0.000526933 0)
(0.109834 -0.000517256 0)
(0.110858 -0.000507346 0)
(0.111863 -0.000497208 0)
(0.112847 -0.000486843 0)
(0.113811 -0.000476256 0)
(0.114753 -0.000465449 0)
(0.115673 -0.000454428 0)
(0.116571 -0.000443195 0)
(0.117446 -0.000431757 0)
(0.118298 -0.000420118 0)
(0.119126 -0.000408284 0)
(0.119931 -0.000396261 0)
(0.120712 -0.000384055 0)
(0.121468 -0.000371673 0)
(0.122199 -0.000359121 0)
(0.122904 -0.000346406 0)
(0.123584 -0.000333537 0)
(0.124239 -0.000320521 0)
(0.124867 -0.000307365 0)
(0.125468 -0.000294079 0)
(0.126043 -0.00028067 0)
(0.126591 -0.000267147 0)
(0.127112 -0.00025352 0)
(0.127605 -0.000239796 0)
(0.128071 -0.000225986 0)
(0.128509 -0.000212099 0)
(0.128919 -0.000198143 0)
(0.129302 -0.000184129 0)
(0.129656 -0.000170066 0)
(0.129982 -0.000155964 0)
(0.13028 -0.000141832 0)
(0.130549 -0.00012768 0)
(0.130791 -0.000113518 0)
(0.131003 -9.93544e-05 0)
(0.131188 -8.51999e-05 0)
(0.131344 -7.10636e-05 0)
(0.131472 -5.69547e-05 0)
(0.131572 -4.28826e-05 0)
(0.131644 -2.88564e-05 0)
(0.131687 -1.48849e-05 0)
(0.131703 -9.77e-07 0)
(0.131691 1.28587e-05 0)
(0.131652 2.66139e-05 0)
(0.131585 4.02803e-05 0)
(0.13149 5.385e-05 0)
(0.131369 6.73153e-05 0)
(0.131221 8.06688e-05 0)
(0.131046 9.39031e-05 0)
(0.130845 0.000107011 0)
(0.130618 0.000119987 0)
(0.130365 0.000132824 0)
(0.130087 0.000145515 0)
(0.129783 0.000158056 0)
(0.129454 0.00017044 0)
(0.129101 0.000182663 0)
(0.128724 0.000194719 0)
(0.128322 0.000206605 0)
(0.127897 0.000218315 0)
(0.127449 0.000229846 0)
(0.126977 0.000241195 0)
(0.126484 0.000252357 0)
(0.125968 0.000263331 0)
(0.12543 0.000274113 0)
(0.124871 0.0002847 0)
(0.124291 0.000295092 0)
(0.123691 0.000305285 0)
(0.12307 0.000315279 0)
(0.122429 0.000325072 0)
(0.121769 0.000334664 0)
(0.12109 0.000344052 0)
(0.120393 0.000353238 0)
(0.119677 0.000362221 0)
(0.118944 0.000371 0)
(0.118193 0.000379576 0)
(0.117425 0.000387949 0)
(0.116641 0.000396121 0)
(0.115841 0.000404091 0)
(0.115025 0.000411862 0)
(0.114193 0.000419433 0)
(0.113347 0.000426808 0)
(0.112486 0.000433986 0)
(0.11161 0.000440971 0)
(0.110722 0.000447764 0)
(0.109819 0.000454366 0)
(0.108904 0.00046078 0)
(0.107976 0.000467009 0)
(0.107036 0.000473055 0)
(0.106084 0.000478919 0)
(0.10512 0.000484606 0)
(0.104145 0.000490117 0)
(0.103159 0.000495455 0)
(0.102163 0.000500623 0)
(0.101157 0.000505625 0)
(0.10014 0.000510462 0)
(0.0991145 0.000515138 0)
(0.0980795 0.000519656 0)
(0.0970357 0.000524019 0)
(0.0959833 0.000528231 0)
(0.0949227 0.000532294 0)
(0.093854 0.000536211 0)
(0.0927777 0.000539986 0)
(0.0916939 0.000543622 0)
(0.090603 0.000547122 0)
(0.0895053 0.000550489 0)
(0.088401 0.000553727 0)
(0.0872903 0.000556839 0)
(0.0861735 0.000559827 0)
(0.0850508 0.000562696 0)
(0.0839226 0.000565448 0)
(0.0827889 0.000568086 0)
(0.0816501 0.000570613 0)
(0.0805064 0.000573034 0)
(0.0793579 0.00057535 0)
(0.0782049 0.000577564 0)
(0.0770475 0.000579681 0)
(0.0758861 0.000581702 0)
(0.0747207 0.00058363 0)
(0.0735515 0.000585469 0)
(0.0723787 0.000587221 0)
(0.0712025 0.00058889 0)
(0.0700231 0.000590477 0)
(0.0688405 0.000591986 0)
(0.067655 0.00059342 0)
(0.0664668 0.00059478 0)
(0.0652758 0.00059607 0)
(0.0640824 0.000597291 0)
(0.0628866 0.000598448 0)
(0.0616886 0.000599541 0)
(0.0604884 0.000600574 0)
(0.0592862 0.000601549 0)
(0.0580821 0.000602468 0)
(0.0568763 0.000603333 0)
(0.0556688 0.000604147 0)
(0.0544597 0.000604912 0)
(0.0532491 0.000605629 0)
(0.0520371 0.000606301 0)
(0.0508238 0.000606931 0)
(0.0496093 0.000607519 0)
(0.0483937 0.000608068 0)
(0.047177 0.000608579 0)
(0.0459594 0.000609055 0)
(0.0447408 0.000609498 0)
(0.0435213 0.000609908 0)
(0.0423011 0.000610288 0)
(0.0410802 0.000610639 0)
(0.0398585 0.000610963 0)
(0.0386363 0.000611261 0)
(0.0374135 0.000611535 0)
(0.0361901 0.000611787 0)
(0.0349663 0.000612017 0)
(0.033742 0.000612227 0)
(0.0325174 0.000612418 0)
(0.0312923 0.000612592 0)
(0.030067 0.00061275 0)
(0.0288413 0.000612892 0)
(0.0276154 0.00061302 0)
(0.0263892 0.000613135 0)
(0.0251629 0.000613238 0)
(0.0239363 0.00061333 0)
(0.0227095 0.000613412 0)
(0.0214826 0.000613484 0)
(0.0202556 0.000613548 0)
(0.0190284 0.000613605 0)
(0.0178012 0.000613654 0)
(0.0165738 0.000613697 0)
(0.0153464 0.000613734 0)
(0.0141189 0.000613766 0)
(0.0128913 0.000613794 0)
(0.0116637 0.000613817 0)
(0.010436 0.000613837 0)
(0.00920833 0.000613853 0)
(0.00798061 0.000613867 0)
(0.00675286 0.000613878 0)
(0.00552509 0.000613887 0)
(0.00429731 0.000613894 0)
(0.00306952 0.000613899 0)
(0.00184171 0.000613903 0)
(0.000613905 0.000613904 0)
(0.000754115 -0.00226231 0)
(0.00226233 -0.00226228 0)
(0.00377052 -0.00226222 0)
(0.00527866 -0.00226212 0)
(0.00678673 -0.002262 0)
(0.0082947 -0.00226183 0)
(0.00980255 -0.00226163 0)
(0.0113103 -0.00226139 0)
(0.0128178 -0.00226111 0)
(0.0143251 -0.00226078 0)
(0.0158322 -0.0022604 0)
(0.0173391 -0.00225996 0)
(0.0188456 -0.00225945 0)
(0.0203517 -0.00225889 0)
(0.0218575 -0.00225824 0)
(0.0233628 -0.00225752 0)
(0.0248677 -0.00225672 0)
(0.0263719 -0.00225581 0)
(0.0278755 -0.00225481 0)
(0.0293785 -0.0022537 0)
(0.0308806 -0.00225247 0)
(0.0323819 -0.00225111 0)
(0.0338822 -0.00224961 0)
(0.0353816 -0.00224797 0)
(0.0368797 -0.00224616 0)
(0.0383766 -0.00224419 0)
(0.0398722 -0.00224204 0)
(0.0413663 -0.0022397 0)
(0.0428587 -0.00223716 0)
(0.0443494 -0.00223441 0)
(0.0458382 -0.00223142 0)
(0.0473249 -0.0022282 0)
(0.0488094 -0.00222472 0)
(0.0502916 -0.00222097 0)
(0.0517711 -0.00221695 0)
(0.0532478 -0.00221263 0)
(0.0547216 -0.002208 0)
(0.0561922 -0.00220305 0)
(0.0576595 -0.00219777 0)
(0.059123 -0.00219213 0)
(0.0605827 -0.00218612 0)
(0.0620383 -0.00217973 0)
(0.0634895 -0.00217295 0)
(0.0649361 -0.00216575 0)
(0.0663777 -0.00215813 0)
(0.0678141 -0.00215006 0)
(0.069245 -0.00214154 0)
(0.0706701 -0.00213254 0)
(0.072089 -0.00212306 0)
(0.0735014 -0.00211307 0)
(0.0749071 -0.00210256 0)
(0.0763055 -0.00209153 0)
(0.0776964 -0.00207995 0)
(0.0790795 -0.0020678 0)
(0.0804542 -0.00205509 0)
(0.0818203 -0.00204179 0)
(0.0831773 -0.00202788 0)
(0.0845249 -0.00201337 0)
(0.0858626 -0.00199823 0)
(0.08719 -0.00198246 0)
(0.0885066 -0.00196604 0)
(0.0898122 -0.00194896 0)
(0.0911061 -0.00193122 0)
(0.0923879 -0.0019128 0)
(0.0936573 -0.0018937 0)
(0.0949137 -0.00187391 0)
(0.0961567 -0.00185342 0)
(0.0973858 -0.00183223 0)
(0.0986005 -0.00181033 0)
(0.0998004 -0.00178771 0)
(0.100985 -0.00176439 0)
(0.102154 -0.00174034 0)
(0.103306 -0.00171558 0)
(0.104442 -0.0016901 0)
(0.105561 -0.0016639 0)
(0.106662 -0.00163699 0)
(0.107744 -0.00160936 0)
(0.108808 -0.00158103 0)
(0.109853 -0.001552 0)
(0.110878 -0.00152227 0)
(0.111884 -0.00149185 0)
(0.112868 -0.00146075 0)
(0.113832 -0.00142898 0)
(0.114774 -0.00139656 0)
(0.115695 -0.00136349 0)
(0.116593 -0.00132979 0)
(0.117469 -0.00129547 0)
(0.118321 -0.00126055 0)
(0.11915 -0.00122504 0)
(0.119955 -0.00118896 0)
(0.120736 -0.00115234 0)
(0.121492 -0.00111519 0)
(0.122224 -0.00107752 0)
(0.12293 -0.00103937 0)
(0.12361 -0.00100076 0)
(0.124265 -0.0009617 0)
(0.124893 -0.000922226 0)
(0.125495 -0.000882358 0)
(0.12607 -0.000842123 0)
(0.126618 -0.000801546 0)
(0.127139 -0.000760654 0)
(0.127633 -0.000719475 0)
(0.128099 -0.000678035 0)
(0.128537 -0.000636363 0)
(0.128947 -0.000594487 0)
(0.12933 -0.000552436 0)
(0.129684 -0.000510237 0)
(0.13001 -0.000467921 0)
(0.130308 -0.000425515 0)
(0.130578 -0.00038305 0)
(0.130819 -0.000340553 0)
(0.131032 -0.000298054 0)
(0.131216 -0.000255581 0)
(0.131372 -0.000213163 0)
(0.1315 -0.000170827 0)
(0.1316 -0.000128602 0)
(0.131672 -8.65143e-05 0)
(0.131715 -4.45912e-05 0)
(0.131731 -2.85897e-06 0)
(0.131719 3.86565e-05 0)
(0.131679 7.99301e-05 0)
(0.131612 0.000120937 0)
(0.131517 0.000161654 0)
(0.131396 0.000202057 0)
(0.131248 0.000242125 0)
(0.131073 0.000281835 0)
(0.130871 0.000321166 0)
(0.130644 0.000360099 0)
(0.130391 0.000398615 0)
(0.130112 0.000436696 0)
(0.129808 0.000474323 0)
(0.129479 0.000511481 0)
(0.129125 0.000548154 0)
(0.128747 0.000584328 0)
(0.128346 0.000619988 0)
(0.12792 0.000655123 0)
(0.127471 0.00068972 0)
(0.127 0.000723769 0)
(0.126506 0.00075726 0)
(0.125989 0.000790183 0)
(0.125451 0.000822531 0)
(0.124892 0.000854296 0)
(0.124312 0.000885472 0)
(0.123711 0.000916054 0)
(0.12309 0.000946037 0)
(0.122449 0.000975418 0)
(0.121788 0.00100419 0)
(0.121109 0.00103236 0)
(0.120411 0.00105992 0)
(0.119695 0.00108686 0)
(0.118961 0.0011132 0)
(0.11821 0.00113893 0)
(0.117442 0.00116405 0)
(0.116657 0.00118856 0)
(0.115856 0.00121247 0)
(0.11504 0.00123578 0)
(0.114208 0.0012585 0)
(0.113361 0.00128062 0)
(0.1125 0.00130215 0)
(0.111624 0.0013231 0)
(0.110735 0.00134348 0)
(0.109832 0.00136328 0)
(0.108916 0.00138252 0)
(0.107988 0.00140121 0)
(0.107047 0.00141934 0)
(0.106095 0.00143693 0)
(0.105131 0.00145399 0)
(0.104156 0.00147052 0)
(0.10317 0.00148653 0)
(0.102173 0.00150203 0)
(0.101166 0.00151704 0)
(0.10015 0.00153154 0)
(0.0991236 0.00154557 0)
(0.0980884 0.00155912 0)
(0.0970442 0.00157221 0)
(0.0959915 0.00158484 0)
(0.0949306 0.00159702 0)
(0.0938616 0.00160877 0)
(0.092785 0.00162009 0)
(0.091701 0.001631 0)
(0.0906099 0.0016415 0)
(0.0895119 0.00165159 0)
(0.0884073 0.00166131 0)
(0.0872963 0.00167064 0)
(0.0861793 0.0016796 0)
(0.0850564 0.0016882 0)
(0.0839279 0.00169645 0)
(0.0827941 0.00170437 0)
(0.081655 0.00171195 0)
(0.0805111 0.0017192 0)
(0.0793624 0.00172615 0)
(0.0782092 0.00173279 0)
(0.0770516 0.00173913 0)
(0.07589 0.00174519 0)
(0.0747244 0.00175098 0)
(0.073555 0.00175649 0)
(0.0723821 0.00176175 0)
(0.0712057 0.00176675 0)
(0.0700261 0.00177151 0)
(0.0688434 0.00177603 0)
(0.0676578 0.00178033 0)
(0.0664694 0.00178441 0)
(0.0652783 0.00178827 0)
(0.0640848 0.00179194 0)
(0.0628888 0.0017954 0)
(0.0616907 0.00179868 0)
(0.0604904 0.00180178 0)
(0.0592881 0.0018047 0)
(0.0580839 0.00180746 0)
(0.0568779 0.00181005 0)
(0.0556703 0.00181249 0)
(0.0544611 0.00181478 0)
(0.0532504 0.00181693 0)
(0.0520384 0.00181895 0)
(0.050825 0.00182083 0)
(0.0496105 0.00182259 0)
(0.0483948 0.00182424 0)
(0.047178 0.00182577 0)
(0.0459603 0.0018272 0)
(0.0447416 0.00182852 0)
(0.0435221 0.00182975 0)
(0.0423018 0.00183089 0)
(0.0410808 0.00183194 0)
(0.0398591 0.00183291 0)
(0.0386368 0.00183381 0)
(0.037414 0.00183463 0)
(0.0361906 0.00183538 0)
(0.0349667 0.00183607 0)
(0.0337424 0.0018367 0)
(0.0325177 0.00183727 0)
(0.0312927 0.00183779 0)
(0.0300673 0.00183826 0)
(0.0288416 0.00183869 0)
(0.0276156 0.00183907 0)
(0.0263894 0.00183942 0)
(0.025163 0.00183972 0)
(0.0239364 0.00184 0)
(0.0227097 0.00184024 0)
(0.0214828 0.00184046 0)
(0.0202557 0.00184065 0)
(0.0190285 0.00184082 0)
(0.0178012 0.00184097 0)
(0.0165739 0.0018411 0)
(0.0153464 0.00184121 0)
(0.0141189 0.0018413 0)
(0.0128913 0.00184138 0)
(0.0116637 0.00184145 0)
(0.0104361 0.00184151 0)
(0.00920836 0.00184156 0)
(0.00798063 0.0018416 0)
(0.00675288 0.00184164 0)
(0.00552511 0.00184166 0)
(0.00429732 0.00184168 0)
(0.00306952 0.0018417 0)
(0.00184172 0.00184171 0)
(0.000613906 0.00184171 0)
(0.000754135 -0.00377055 0)
(0.0022624 -0.0037705 0)
(0.00377063 -0.0037704 0)
(0.00527881 -0.00377024 0)
(0.00678692 -0.00377003 0)
(0.00829494 -0.00376977 0)
(0.00980285 -0.00376944 0)
(0.0113106 -0.00376904 0)
(0.0128182 -0.00376857 0)
(0.0143256 -0.00376802 0)
(0.0158328 -0.00376739 0)
(0.0173397 -0.00376666 0)
(0.0188463 -0.00376583 0)
(0.0203526 -0.00376489 0)
(0.0218584 -0.00376383 0)
(0.0233639 -0.00376264 0)
(0.0248688 -0.0037613 0)
(0.0263732 -0.0037598 0)
(0.0278769 -0.00375814 0)
(0.02938 -0.00375629 0)
(0.0308823 -0.00375425 0)
(0.0323838 -0.003752 0)
(0.0338843 -0.00374951 0)
(0.0353839 -0.00374678 0)
(0.0368822 -0.00374379 0)
(0.0383794 -0.00374052 0)
(0.0398752 -0.00373695 0)
(0.0413695 -0.00373307 0)
(0.0428623 -0.00372884 0)
(0.0443532 -0.00372426 0)
(0.0458423 -0.0037193 0)
(0.0473294 -0.00371394 0)
(0.0488143 -0.00370816 0)
(0.0502967 -0.00370193 0)
(0.0517767 -0.00369524 0)
(0.0532538 -0.00368806 0)
(0.054728 -0.00368036 0)
(0.0561991 -0.00367213 0)
(0.0576667 -0.00366334 0)
(0.0591308 -0.00365395 0)
(0.060591 -0.00364396 0)
(0.0620471 -0.00363333 0)
(0.0634989 -0.00362204 0)
(0.064946 -0.00361006 0)
(0.0663882 -0.00359737 0)
(0.0678252 -0.00358394 0)
(0.0692567 -0.00356975 0)
(0.0706824 -0.00355477 0)
(0.072102 -0.00353898 0)
(0.0735151 -0.00352235 0)
(0.0749214 -0.00350486 0)
(0.0763206 -0.00348649 0)
(0.0777123 -0.0034672 0)
(0.079096 -0.00344698 0)
(0.0804716 -0.0034258 0)
(0.0818384 -0.00340364 0)
(0.0831963 -0.00338049 0)
(0.0845447 -0.00335631 0)
(0.0858832 -0.00333109 0)
(0.0872115 -0.00330482 0)
(0.088529 -0.00327746 0)
(0.0898354 -0.00324901 0)
(0.0911302 -0.00321945 0)
(0.092413 -0.00318876 0)
(0.0936833 -0.00315693 0)
(0.0949406 -0.00312396 0)
(0.0961845 -0.00308981 0)
(0.0974146 -0.0030545 0)
(0.0986302 -0.003018 0)
(0.0998311 -0.00298032 0)
(0.101017 -0.00294144 0)
(0.102186 -0.00290137 0)
(0.10334 -0.0028601 0)
(0.104477 -0.00281763 0)
(0.105596 -0.00277396 0)
(0.106698 -0.0027291 0)
(0.107782 -0.00268306 0)
(0.108847 -0.00263583 0)
(0.109892 -0.00258743 0)
(0.110919 -0.00253787 0)
(0.111925 -0.00248717 0)
(0.11291 -0.00243533 0)
(0.113875 -0.00238237 0)
(0.114818 -0.00232832 0)
(0.11574 -0.00227319 0)
(0.116639 -0.002217 0)
(0.117515 -0.00215978 0)
(0.118368 -0.00210156 0)
(0.119198 -0.00204236 0)
(0.120004 -0.00198222 0)
(0.120785 -0.00192115 0)
(0.121542 -0.00185921 0)
(0.122274 -0.00179641 0)
(0.122981 -0.0017328 0)
(0.123662 -0.00166842 0)
(0.124317 -0.0016033 0)
(0.124946 -0.00153748 0)
(0.125548 -0.001471 0)
(0.126124 -0.00140392 0)
(0.126672 -0.00133626 0)
(0.127194 -0.00126808 0)
(0.127688 -0.00119941 0)
(0.128154 -0.00113032 0)
(0.128593 -0.00106083 0)
(0.129003 -0.000991007 0)
(0.129386 -0.000920889 0)
(0.12974 -0.000850526 0)
(0.130067 -0.000779967 0)
(0.130365 -0.000709259 0)
(0.130634 -0.000638451 0)
(0.130876 -0.000567591 0)
(0.131088 -0.000496728 0)
(0.131273 -0.000425908 0)
(0.131429 -0.00035518 0)
(0.131557 -0.000284589 0)
(0.131656 -0.000214184 0)
(0.131728 -0.000144008 0)
(0.131771 -7.41065e-05 0)
(0.131786 -4.5242e-06 0)
(0.131774 6.46963e-05 0)
(0.131734 0.000133513 0)
(0.131666 0.000201885 0)
(0.131572 0.000269772 0)
(0.13145 0.000337135 0)
(0.131301 0.000403938 0)
(0.131125 0.000470145 0)
(0.130924 0.000535719 0)
(0.130696 0.000600629 0)
(0.130442 0.000664843 0)
(0.130162 0.000728329 0)
(0.129858 0.000791059 0)
(0.129528 0.000853007 0)
(0.129174 0.000914145 0)
(0.128795 0.000974449 0)
(0.128393 0.0010339 0)
(0.127967 0.00109247 0)
(0.127517 0.00115014 0)
(0.127045 0.0012069 0)
(0.12655 0.00126273 0)
(0.126033 0.00131761 0)
(0.125494 0.00137153 0)
(0.124934 0.00142448 0)
(0.124353 0.00147645 0)
(0.123751 0.00152742 0)
(0.123129 0.0015774 0)
(0.122487 0.00162637 0)
(0.121826 0.00167433 0)
(0.121146 0.00172127 0)
(0.120447 0.0017672 0)
(0.119731 0.00181212 0)
(0.118996 0.00185601 0)
(0.118244 0.00189889 0)
(0.117475 0.00194075 0)
(0.116689 0.00198161 0)
(0.115888 0.00202145 0)
(0.115071 0.0020603 0)
(0.114238 0.00209815 0)
(0.11339 0.00213501 0)
(0.112528 0.0021709 0)
(0.111652 0.00220581 0)
(0.110762 0.00223976 0)
(0.109858 0.00227277 0)
(0.108942 0.00230483 0)
(0.108013 0.00233596 0)
(0.107071 0.00236617 0)
(0.106118 0.00239548 0)
(0.105153 0.0024239 0)
(0.104177 0.00245144 0)
(0.103191 0.00247812 0)
(0.102193 0.00250395 0)
(0.101186 0.00252894 0)
(0.100169 0.00255311 0)
(0.099142 0.00257648 0)
(0.0981062 0.00259905 0)
(0.0970614 0.00262085 0)
(0.0960081 0.00264189 0)
(0.0949466 0.00266219 0)
(0.093877 0.00268176 0)
(0.0927999 0.00270062 0)
(0.0917153 0.00271878 0)
(0.0906236 0.00273627 0)
(0.0895251 0.00275309 0)
(0.08842 0.00276926 0)
(0.0873085 0.0027848 0)
(0.086191 0.00279973 0)
(0.0850677 0.00281406 0)
(0.0839387 0.0028278 0)
(0.0828044 0.00284098 0)
(0.081665 0.0028536 0)
(0.0805206 0.00286569 0)
(0.0793715 0.00287725 0)
(0.0782179 0.00288831 0)
(0.0770599 0.00289888 0)
(0.0758979 0.00290897 0)
(0.0747319 0.00291859 0)
(0.0735622 0.00292777 0)
(0.0723889 0.00293652 0)
(0.0712122 0.00294485 0)
(0.0700323 0.00295277 0)
(0.0688493 0.00296031 0)
(0.0676634 0.00296746 0)
(0.0664747 0.00297425 0)
(0.0652834 0.00298068 0)
(0.0640895 0.00298678 0)
(0.0628933 0.00299255 0)
(0.0616949 0.00299801 0)
(0.0604944 0.00300316 0)
(0.0592919 0.00300802 0)
(0.0580875 0.0030126 0)
(0.0568813 0.00301692 0)
(0.0556735 0.00302098 0)
(0.0544641 0.00302479 0)
(0.0532532 0.00302837 0)
(0.052041 0.00303172 0)
(0.0508275 0.00303486 0)
(0.0496127 0.00303779 0)
(0.0483969 0.00304052 0)
(0.04718 0.00304307 0)
(0.0459621 0.00304544 0)
(0.0447433 0.00304765 0)
(0.0435237 0.00304969 0)
(0.0423033 0.00305158 0)
(0.0410822 0.00305333 0)
(0.0398604 0.00305494 0)
(0.038638 0.00305642 0)
(0.037415 0.00305779 0)
(0.0361916 0.00305904 0)
(0.0349676 0.00306018 0)
(0.0337432 0.00306123 0)
(0.0325185 0.00306218 0)
(0.0312933 0.00306304 0)
(0.0300679 0.00306382 0)
(0.0288421 0.00306453 0)
(0.0276161 0.00306516 0)
(0.0263899 0.00306573 0)
(0.0251634 0.00306624 0)
(0.0239368 0.0030667 0)
(0.02271 0.0030671 0)
(0.021483 0.00306746 0)
(0.0202559 0.00306778 0)
(0.0190287 0.00306806 0)
(0.0178014 0.0030683 0)
(0.016574 0.00306851 0)
(0.0153466 0.00306869 0)
(0.014119 0.00306885 0)
(0.0128914 0.00306899 0)
(0.0116638 0.0030691 0)
(0.0104361 0.0030692 0)
(0.00920842 0.00306928 0)
(0.00798068 0.00306935 0)
(0.00675292 0.0030694 0)
(0.00552514 0.00306945 0)
(0.00429735 0.00306948 0)
(0.00306954 0.0030695 0)
(0.00184173 0.00306952 0)
(0.00061391 0.00306953 0)
(0.000754166 -0.00527884 0)
(0.00226249 -0.00527877 0)
(0.00377078 -0.00527863 0)
(0.00527903 -0.00527842 0)
(0.00678721 -0.00527813 0)
(0.0082953 -0.00527776 0)
(0.00980328 -0.0052773 0)
(0.0113111 -0.00527676 0)
(0.0128188 -0.00527611 0)
(0.0143263 -0.00527535 0)
(0.0158336 -0.00527447 0)
(0.0173406 -0.00527347 0)
(0.0188474 -0.00527232 0)
(0.0203538 -0.00527102 0)
(0.0218598 -0.00526955 0)
(0.0233654 -0.00526789 0)
(0.0248705 -0.00526604 0)
(0.0263751 -0.00526396 0)
(0.027879 -0.00526165 0)
(0.0293824 -0.00525909 0)
(0.0308849 -0.00525625 0)
(0.0323866 -0.00525312 0)
(0.0338875 -0.00524966 0)
(0.0353873 -0.00524586 0)
(0.036886 -0.0052417 0)
(0.0383835 -0.00523715 0)
(0.0398797 -0.00523218 0)
(0.0413744 -0.00522677 0)
(0.0428675 -0.00522088 0)
(0.044359 -0.0052145 0)
(0.0458485 -0.00520758 0)
(0.0473361 -0.00520011 0)
(0.0488215 -0.00519205 0)
(0.0503045 -0.00518336 0)
(0.051785 -0.00517403 0)
(0.0532627 -0.005164 0)
(0.0547376 -0.00515326 0)
(0.0562093 -0.00514177 0)
(0.0576777 -0.00512949 0)
(0.0591424 -0.00511639 0)
(0.0606034 -0.00510244 0)
(0.0620603 -0.00508759 0)
(0.0635128 -0.00507182 0)
(0.0649608 -0.00505508 0)
(0.0664039 -0.00503735 0)
(0.0678418 -0.00501859 0)
(0.0692742 -0.00499876 0)
(0.0707009 -0.00497782 0)
(0.0721215 -0.00495575 0)
(0.0735356 -0.0049325 0)
(0.074943 -0.00490805 0)
(0.0763432 -0.00488235 0)
(0.077736 -0.00485538 0)
(0.0791209 -0.00482711 0)
(0.0804976 -0.00479749 0)
(0.0818657 -0.0047665 0)
(0.0832247 -0.00473411 0)
(0.0845743 -0.00470029 0)
(0.0859141 -0.00466501 0)
(0.0872437 -0.00462825 0)
(0.0885625 -0.00458998 0)
(0.0898702 -0.00455017 0)
(0.0911664 -0.0045088 0)
(0.0924505 -0.00446586 0)
(0.0937222 -0.00442132 0)
(0.0949809 -0.00437517 0)
(0.0962262 -0.00432738 0)
(0.0974577 -0.00427795 0)
(0.0986748 -0.00422686 0)
(0.0998771 -0.00417411 0)
(0.101064 -0.00411969 0)
(0.102235 -0.00406359 0)
(0.10339 -0.00400581 0)
(0.104528 -0.00394635 0)
(0.105649 -0.00388522 0)
(0.106753 -0.00382241 0)
(0.107838 -0.00375793 0)
(0.108904 -0.0036918 0)
(0.109951 -0.00362403 0)
(0.110979 -0.00355463 0)
(0.111986 -0.00348362 0)
(0.112973 -0.00341102 0)
(0.113939 -0.00333686 0)
(0.114884 -0.00326115 0)
(0.115806 -0.00318394 0)
(0.116707 -0.00310525 0)
(0.117584 -0.00302511 0)
(0.118439 -0.00294356 0)
(0.11927 -0.00286064 0)
(0.120077 -0.00277639 0)
(0.120859 -0.00269085 0)
(0.121617 -0.00260408 0)
(0.12235 -0.00251612 0)
(0.123058 -0.00242701 0)
(0.12374 -0.00233682 0)
(0.124396 -0.00224559 0)
(0.125025 -0.00215339 0)
(0.125628 -0.00206027 0)
(0.126205 -0.00196628 0)
(0.126754 -0.0018715 0)
(0.127276 -0.00177598 0)
(0.12777 -0.00167979 0)
(0.128237 -0.00158299 0)
(0.128676 -0.00148564 0)
(0.129087 -0.00138782 0)
(0.12947 -0.00128959 0)
(0.129825 -0.00119101 0)
(0.130152 -0.00109216 0)
(0.13045 -0.000993102 0)
(0.130719 -0.000893904 0)
(0.130961 -0.000794633 0)
(0.131174 -0.000695357 0)
(0.131358 -0.000596144 0)
(0.131514 -0.000497058 0)
(0.131642 -0.000398167 0)
(0.131741 -0.000299535 0)
(0.131812 -0.000201226 0)
(0.131855 -0.000103303 0)
(0.13187 -5.82752e-06 0)
(0.131857 9.11401e-05 0)
(0.131816 0.000187541 0)
(0.131748 0.000283317 0)
(0.131653 0.000378413 0)
(0.13153 0.000472774 0)
(0.131381 0.000566349 0)
(0.131205 0.000659086 0)
(0.131002 0.000750938 0)
(0.130773 0.000841856 0)
(0.130519 0.000931798 0)
(0.130238 0.00102072 0)
(0.129933 0.00110858 0)
(0.129602 0.00119534 0)
(0.129247 0.00128097 0)
(0.128867 0.00136543 0)
(0.128464 0.00144868 0)
(0.128037 0.00153071 0)
(0.127586 0.00161148 0)
(0.127113 0.00169097 0)
(0.126617 0.00176915 0)
(0.126098 0.001846 0)
(0.125558 0.0019215 0)
(0.124997 0.00199565 0)
(0.124415 0.00206841 0)
(0.123812 0.00213979 0)
(0.123189 0.00220977 0)
(0.122546 0.00227833 0)
(0.121883 0.00234548 0)
(0.121202 0.00241121 0)
(0.120502 0.00247551 0)
(0.119784 0.00253839 0)
(0.119048 0.00259984 0)
(0.118295 0.00265986 0)
(0.117525 0.00271847 0)
(0.116738 0.00277566 0)
(0.115935 0.00283143 0)
(0.115117 0.00288581 0)
(0.114283 0.00293879 0)
(0.113434 0.00299039 0)
(0.112571 0.00304062 0)
(0.111693 0.00308948 0)
(0.110802 0.003137 0)
(0.109897 0.00318319 0)
(0.10898 0.00322806 0)
(0.10805 0.00327162 0)
(0.107107 0.00331391 0)
(0.106153 0.00335492 0)
(0.105187 0.00339469 0)
(0.10421 0.00343323 0)
(0.103222 0.00347056 0)
(0.102224 0.0035067 0)
(0.101216 0.00354166 0)
(0.100197 0.00357548 0)
(0.0991696 0.00360817 0)
(0.0981328 0.00363976 0)
(0.0970871 0.00367026 0)
(0.0960329 0.00369969 0)
(0.0949705 0.00372809 0)
(0.0939001 0.00375546 0)
(0.0928221 0.00378184 0)
(0.0917367 0.00380725 0)
(0.0906442 0.0038317 0)
(0.0895449 0.00385523 0)
(0.088439 0.00387785 0)
(0.0873268 0.00389959 0)
(0.0862086 0.00392046 0)
(0.0850845 0.0039405 0)
(0.0839549 0.00395972 0)
(0.0828199 0.00397814 0)
(0.0816798 0.00399579 0)
(0.0805348 0.00401269 0)
(0.0793851 0.00402886 0)
(0.0782308 0.00404432 0)
(0.0770723 0.00405909 0)
(0.0759097 0.0040732 0)
(0.0747432 0.00408666 0)
(0.073573 0.00409949 0)
(0.0723992 0.00411172 0)
(0.071222 0.00412336 0)
(0.0700416 0.00413443 0)
(0.0688581 0.00414496 0)
(0.0676718 0.00415495 0)
(0.0664826 0.00416444 0)
(0.0652909 0.00417343 0)
(0.0640967 0.00418195 0)
(0.0629001 0.00419001 0)
(0.0617013 0.00419763 0)
(0.0605004 0.00420483 0)
(0.0592976 0.00421162 0)
(0.0580928 0.00421802 0)
(0.0568863 0.00422405 0)
(0.0556782 0.00422971 0)
(0.0544685 0.00423504 0)
(0.0532574 0.00424003 0)
(0.0520449 0.00424471 0)
(0.0508311 0.00424909 0)
(0.0496161 0.00425318 0)
(0.0484001 0.00425699 0)
(0.0471829 0.00426055 0)
(0.0459649 0.00426386 0)
(0.0447459 0.00426693 0)
(0.0435261 0.00426978 0)
(0.0423055 0.00427241 0)
(0.0410842 0.00427485 0)
(0.0398623 0.0042771 0)
(0.0386397 0.00427916 0)
(0.0374166 0.00428106 0)
(0.036193 0.0042828 0)
(0.0349689 0.0042844 0)
(0.0337444 0.00428585 0)
(0.0325195 0.00428717 0)
(0.0312943 0.00428837 0)
(0.0300688 0.00428946 0)
(0.0288429 0.00429044 0)
(0.0276169 0.00429132 0)
(0.0263905 0.00429211 0)
(0.025164 0.00429282 0)
(0.0239373 0.00429345 0)
(0.0227104 0.00429401 0)
(0.0214834 0.00429451 0)
(0.0202563 0.00429494 0)
(0.019029 0.00429533 0)
(0.0178017 0.00429566 0)
(0.0165743 0.00429595 0)
(0.0153468 0.00429621 0)
(0.0141192 0.00429642 0)
(0.0128916 0.00429661 0)
(0.0116639 0.00429677 0)
(0.0104362 0.0042969 0)
(0.00920851 0.00429701 0)
(0.00798076 0.0042971 0)
(0.00675298 0.00429718 0)
(0.00552519 0.00429724 0)
(0.00429738 0.00429728 0)
(0.00306956 0.00429732 0)
(0.00184174 0.00429734 0)
(0.000613914 0.00429735 0)
(0.000754205 -0.0067872 0)
(0.00226261 -0.00678712 0)
(0.00377098 -0.00678694 0)
(0.00527932 -0.00678667 0)
(0.00678758 -0.00678631 0)
(0.00829577 -0.00678584 0)
(0.00980386 -0.00678527 0)
(0.0113118 -0.00678458 0)
(0.0128196 -0.00678376 0)
(0.0143273 -0.0067828 0)
(0.0158347 -0.00678169 0)
(0.0173419 -0.00678042 0)
(0.0188488 -0.00677897 0)
(0.0203553 -0.00677731 0)
(0.0218616 -0.00677545 0)
(0.0233674 -0.00677335 0)
(0.0248727 -0.00677099 0)
(0.0263776 -0.00676836 0)
(0.0278818 -0.00676542 0)
(0.0293854 -0.00676216 0)
(0.0308883 -0.00675855 0)
(0.0323904 -0.00675455 0)
(0.0338916 -0.00675015 0)
(0.0353918 -0.00674531 0)
(0.036891 -0.00674 0)
(0.0383889 -0.00673419 0)
(0.0398856 -0.00672785 0)
(0.0413808 -0.00672094 0)
(0.0428746 -0.00671342 0)
(0.0443666 -0.00670526 0)
(0.0458568 -0.00669642 0)
(0.047345 -0.00668687 0)
(0.048831 -0.00667655 0)
(0.0503148 -0.00666545 0)
(0.051796 -0.0066535 0)
(0.0532746 -0.00664067 0)
(0.0547503 -0.00662692 0)
(0.0562229 -0.0066122 0)
(0.0576922 -0.00659647 0)
(0.0591579 -0.00657969 0)
(0.0606198 -0.0065618 0)
(0.0620778 -0.00654278 0)
(0.0635314 -0.00652256 0)
(0.0649805 -0.0065011 0)
(0.0664247 -0.00647837 0)
(0.0678638 -0.0064543 0)
(0.0692975 -0.00642887 0)
(0.0707255 -0.00640201 0)
(0.0721474 -0.00637369 0)
(0.0735629 -0.00634386 0)
(0.0749716 -0.00631248 0)
(0.0763733 -0.0062795 0)
(0.0777676 -0.00624488 0)
(0.079154 -0.00620858 0)
(0.0805322 -0.00617055 0)
(0.0819019 -0.00613076 0)
(0.0832626 -0.00608917 0)
(0.0846139 -0.00604573 0)
(0.0859553 -0.00600042 0)
(0.0872866 -0.0059532 0)
(0.0886072 -0.00590403 0)
(0.0899167 -0.00585289 0)
(0.0912146 -0.00579974 0)
(0.0925006 -0.00574456 0)
(0.0937741 -0.00568732 0)
(0.0950347 -0.00562801 0)
(0.0962819 -0.00556659 0)
(0.0975152 -0.00550306 0)
(0.0987342 -0.00543739 0)
(0.0999384 -0.00536958 0)
(0.101127 -0.00529962 0)
(0.1023 -0.0052275 0)
(0.103457 -0.00515321 0)
(0.104597 -0.00507676 0)
(0.10572 -0.00499815 0)
(0.106825 -0.00491738 0)
(0.107912 -0.00483446 0)
(0.108981 -0.00474942 0)
(0.11003 -0.00466226 0)
(0.111059 -0.004573 0)
(0.112068 -0.00448166 0)
(0.113057 -0.00438828 0)
(0.114025 -0.00429288 0)
(0.114971 -0.0041955 0)
(0.115896 -0.00409617 0)
(0.116798 -0.00399494 0)
(0.117677 -0.00389184 0)
(0.118533 -0.00378692 0)
(0.119365 -0.00368024 0)
(0.120174 -0.00357184 0)
(0.120958 -0.00346179 0)
(0.121717 -0.00335014 0)
(0.122452 -0.00323696 0)
(0.123161 -0.00312231 0)
(0.123844 -0.00300625 0)
(0.124501 -0.00288887 0)
(0.125131 -0.00277022 0)
(0.125736 -0.00265039 0)
(0.126313 -0.00252945 0)
(0.126863 -0.00240748 0)
(0.127386 -0.00228456 0)
(0.127881 -0.00216077 0)
(0.128348 -0.0020362 0)
(0.128788 -0.00191093 0)
(0.1292 -0.00178504 0)
(0.129583 -0.00165863 0)
(0.129938 -0.00153177 0)
(0.130265 -0.00140456 0)
(0.130563 -0.00127709 0)
(0.130833 -0.00114943 0)
(0.131074 -0.00102168 0)
(0.131287 -0.000893925 0)
(0.131471 -0.000766251 0)
(0.131627 -0.000638743 0)
(0.131755 -0.000511486 0)
(0.131854 -0.000384564 0)
(0.131924 -0.000258059 0)
(0.131967 -0.000132052 0)
(0.131981 -6.62279e-06 0)
(0.131968 0.000118151 0)
(0.131926 0.000242193 0)
(0.131858 0.00036543 0)
(0.131761 0.000487789 0)
(0.131638 0.0006092 0)
(0.131487 0.000729597 0)
(0.13131 0.000848914 0)
(0.131107 0.000967089 0)
(0.130877 0.00108406 0)
(0.130621 0.00119977 0)
(0.130339 0.00131417 0)