/*--------------------------------*- C++ -*----------------------------------*\
| =========                 |                                                 |
| \\      /  F ield         | OpenFOAM: The Open Source CFD Toolbox           |
|  \\    /   O peration     | Version:  v2012                                 |
|   \\  /    A nd           | Website:  www.openfoam.com                      |
|    \\/     M anipulation  |                                                 |
\*---------------------------------------------------------------------------*/
FoamFile
{
    version     2.0;
    format      ascii;
    class       volScalarField;
    location    "17.9";
    object      Psi_z;
}
// * * * * * * * * * * * * * * * * * * * * * * * * * * * * * * * * * * * * * //

dimensions      [0 2 -1 0 0 0 0];


internalField   nonuniform List<scalar> 
65536
(
8.14712e-06
2.44419e-05
4.07378e-05
5.70357e-05
7.33364e-05
8.96407e-05
0.000105949
0.000122263
0.000138582
0.000154908
0.000171242
0.000187583
0.000203933
0.000220292
0.000236662
0.000253041
0.000269433
0.000285835
0.000302251
0.000318678
0.00033512
0.000351574
0.000368043
0.000384526
0.000401024
0.000417537
0.000434064
0.000450608
0.000467166
0.00048374
0.000500329
0.000516933
0.000533552
0.000550187
0.000566835
0.000583498
0.000600175
0.000616865
0.000633568
0.000650282
0.000667008
0.000683744
0.000700489
0.000717242
0.000734002
0.000750768
0.000767539
0.000784312
0.000801086
0.00081786
0.000834631
0.000851398
0.000868158
0.00088491
0.00090165
0.000918377
0.000935087
0.000951779
0.000968448
0.000985091
0.00100171
0.00101829
0.00103484
0.00105135
0.00106781
0.00108423
0.0011006
0.00111691
0.00113316
0.00114934
0.00116546
0.0011815
0.00119746
0.00121333
0.00122912
0.0012448
0.00126039
0.00127586
0.00129122
0.00130646
0.00132157
0.00133654
0.00135138
0.00136606
0.00138059
0.00139496
0.00140916
0.00142318
0.00143702
0.00145066
0.00146411
0.00147734
0.00149036
0.00150316
0.00151573
0.00152806
0.00154014
0.00155196
0.00156352
0.00157482
0.00158583
0.00159656
0.00160699
0.00161712
0.00162694
0.00163644
0.00164562
0.00165447
0.00166298
0.00167115
0.00167896
0.00168641
0.0016935
0.00170022
0.00170656
0.00171253
0.0017181
0.00172328
0.00172807
0.00173245
0.00173643
0.00174
0.00174316
0.0017459
0.00174823
0.00175014
0.00175162
0.00175269
0.00175333
0.00175354
0.00175333
0.00175269
0.00175163
0.00175015
0.00174824
0.00174591
0.00174316
0.00174
0.00173642
0.00173243
0.00172803
0.00172323
0.00171803
0.00171243
0.00170645
0.00170007
0.00169332
0.00168619
0.00167869
0.00167083
0.00166261
0.00165404
0.00164512
0.00163587
0.00162629
0.00161638
0.00160615
0.00159562
0.00158479
0.00157366
0.00156225
0.00155055
0.00153859
0.00152636
0.00151388
0.00150115
0.00148818
0.00147498
0.00146155
0.00144791
0.00143406
0.00142
0.00140575
0.00139132
0.00137671
0.00136192
0.00134697
0.00133186
0.0013166
0.00130119
0.00128565
0.00126998
0.00125418
0.00123826
0.00122223
0.00120609
0.00118986
0.00117352
0.0011571
0.0011406
0.00112401
0.00110735
0.00109062
0.00107383
0.00105697
0.00104006
0.0010231
0.00100609
0.000989035
0.000971942
0.000954811
0.000937648
0.000920455
0.000903236
0.000885992
0.000868728
0.000851446
0.000834148
0.000816837
0.000799515
0.000782185
0.000764847
0.000747505
0.00073016
0.000712813
0.000695467
0.000678122
0.000660781
0.000643443
0.000626111
0.000608785
0.000591466
0.000574155
0.000556853
0.00053956
0.000522278
0.000505006
0.000487744
0.000470494
0.000453255
0.000436028
0.000418812
0.000401609
0.000384417
0.000367236
0.000350067
0.000332909
0.000315763
0.000298627
0.000281502
0.000264387
0.000247281
0.000230185
0.000213097
0.000196018
0.000178946
0.000161882
0.000144824
0.000127772
0.000110725
9.36823e-05
7.66438e-05
5.96085e-05
4.25757e-05
2.55447e-05
8.51479e-06
2.44412e-05
7.33247e-05
0.000122212
0.000171105
0.000220006
0.000268918
0.000317843
0.000366784
0.000415741
0.000464719
0.000513718
0.000562742
0.000611791
0.000660868
0.000709976
0.000759115
0.000808288
0.000857496
0.000906741
0.000956024
0.00100535
0.00105471
0.00110412
0.00115357
0.00120306
0.0012526
0.00130218
0.00135181
0.00140149
0.00145121
0.00150097
0.00155079
0.00160065
0.00165055
0.0017005
0.00175049
0.00180052
0.00185059
0.0019007
0.00195084
0.00200102
0.00205123
0.00210146
0.00215172
0.00220201
0.00225231
0.00230262
0.00235294
0.00240326
0.00245359
0.0025039
0.00255421
0.00260449
0.00265475
0.00270497
0.00275515
0.00280529
0.00285536
0.00290537
0.00295531
0.00300516
0.00305491
0.00310456
0.00315409
0.00320349
0.00325275
0.00330185
0.00335079
0.00339955
0.00344811
0.00349646
0.00354458
0.00359247
0.0036401
0.00368745
0.00373452
0.00378128
0.0038277
0.00387379
0.00391951
0.00396485
0.00400978
0.00405429
0.00409835
0.00414195
0.00418506
0.00422767
0.00426974
0.00431125
0.00435219
0.00439253
0.00443225
0.00447132
0.00450972
0.00454743
0.00458442
0.00462067
0.00465616
0.00469085
0.00472473
0.00475778
0.00478997
0.00482127
0.00485167
0.00488114
0.00490966
0.00493721
0.00496376
0.0049893
0.0050138
0.00503724
0.00505961
0.00508088
0.00510105
0.00512008
0.00513797
0.00515469
0.00517024
0.0051846
0.00519776
0.0052097
0.00522042
0.0052299
0.00523813
0.00524512
0.00525084
0.0052553
0.00525849
0.0052604
0.00526104
0.00526041
0.0052585
0.00525532
0.00525086
0.00524514
0.00523815
0.0052299
0.00522041
0.00520967
0.0051977
0.0051845
0.0051701
0.00515449
0.00513769
0.00511973
0.0051006
0.00508033
0.00505894
0.00503643
0.00501284
0.00498817
0.00496245
0.0049357
0.00490794
0.00487918
0.00484945
0.00481877
0.00478717
0.00475466
0.00472127
0.00468702
0.00465193
0.00461603
0.00457935
0.00454189
0.00450369
0.00446478
0.00442516
0.00438487
0.00434394
0.00430237
0.0042602
0.00421745
0.00417414
0.00413029
0.00408592
0.00404106
0.00399572
0.00394993
0.00390371
0.00385708
0.00381005
0.00376265
0.00371489
0.00366679
0.00361838
0.00356966
0.00352066
0.00347139
0.00342186
0.0033721
0.00332212
0.00327192
0.00322153
0.00317097
0.00312023
0.00306934
0.00301831
0.00296714
0.00291586
0.00286446
0.00281297
0.00276139
0.00270973
0.002658
0.0026062
0.00255435
0.00250246
0.00245052
0.00239855
0.00234656
0.00229454
0.00224252
0.00219048
0.00213844
0.0020864
0.00203436
0.00198234
0.00193032
0.00187832
0.00182634
0.00177439
0.00172245
0.00167055
0.00161867
0.00156682
0.001515
0.00146322
0.00141147
0.00135975
0.00130807
0.00125642
0.00120481
0.00115324
0.0011017
0.00105019
0.000998716
0.000947277
0.00089587
0.000844494
0.000793149
0.000741833
0.000690545
0.000639283
0.000588046
0.000536831
0.000485638
0.000434465
0.000383309
0.000332169
0.000281043
0.000229928
0.000178823
0.000127725
7.6633e-05
2.5544e-05
4.0734e-05
0.000122204
0.00020368
0.000285166
0.000366666
0.000448183
0.000529722
0.000611287
0.000692881
0.000774507
0.000856171
0.000937874
0.00101962
0.00110141
0.00118326
0.00126515
0.00134711
0.00142912
0.00151119
0.00159333
0.00167553
0.00175781
0.00184015
0.00192256
0.00200505
0.00208761
0.00217025
0.00225297
0.00233576
0.00241863
0.00250157
0.0025846
0.00266769
0.00275087
0.00283411
0.00291743
0.00300082
0.00308427
0.00316779
0.00325136
0.003335
0.00341868
0.00350241
0.00358618
0.00366999
0.00375383
0.00383769
0.00392156
0.00400544
0.00408932
0.00417319
0.00425703
0.00434085
0.00442462
0.00450833
0.00459198
0.00467554
0.00475901
0.00484237
0.00492561
0.0050087
0.00509164
0.0051744
0.00525696
0.00533931
0.00542142
0.00550327
0.00558485
0.00566613
0.00574708
0.00582768
0.00590791
0.00598774
0.00606714
0.00614608
0.00622454
0.00630249
0.00637989
0.00645672
0.00653294
0.00660853
0.00668344
0.00675764
0.00683111
0.0069038
0.00697567
0.0070467
0.00711685
0.00718607
0.00725432
0.00732158
0.00738781
0.00745295
0.00751698
0.00757985
0.00764153
0.00770197
0.00776114
0.00781899
0.00787549
0.00793059
0.00798426
0.00803646
0.00808715
0.00813629
0.00818385
0.00822978
0.00827406
0.00831664
0.0083575
0.0083966
0.0084339
0.00846938
0.008503
0.00853474
0.00856457
0.00859247
0.0086184
0.00864235
0.00866429
0.0086842
0.00870207
0.00871788
0.00873162
0.00874326
0.0087528
0.00876024
0.00876556
0.00876876
0.00876983
0.00876877
0.00876558
0.00876027
0.00875284
0.0087433
0.00873165
0.0087179
0.00870206
0.00868415
0.00866419
0.00864219
0.00861816
0.00859213
0.00856413
0.00853416
0.00850227
0.00846847
0.00843279
0.00839527
0.00835592
0.00831479
0.0082719
0.00822729
0.008181
0.00813304
0.00808347
0.00803232
0.00797962
0.00792541
0.00786974
0.00781263
0.00775413
0.00769427
0.00763309
0.00757064
0.00750695
0.00744207
0.00737602
0.00730884
0.00724059
0.00717129
0.00710098
0.0070297
0.00695749
0.00688438
0.00681042
0.00673562
0.00666004
0.0065837
0.00650665
0.0064289
0.0063505
0.00627148
0.00619186
0.00611168
0.00603097
0.00594975
0.00586806
0.00578593
0.00570337
0.00562041
0.00553709
0.00545342
0.00536942
0.00528513
0.00520056
0.00511573
0.00503066
0.00494537
0.00485988
0.00477422
0.00468839
0.0046024
0.00451629
0.00443006
0.00434373
0.0042573
0.0041708
0.00408424
0.00399762
0.00391095
0.00382426
0.00373754
0.0036508
0.00356406
0.00347732
0.00339059
0.00330388
0.00321718
0.00313052
0.00304388
0.00295729
0.00287073
0.00278421
0.00269775
0.00261133
0.00252497
0.00243866
0.00235241
0.00226621
0.00218008
0.002094
0.00200798
0.00192202
0.00183612
0.00175028
0.00166449
0.00157876
0.00149308
0.00140746
0.00132188
0.00123636
0.00115088
0.00106544
0.00098005
0.000894695
0.000809375
0.000724088
0.000638831
0.0005536
0.000468391
0.000383202
0.00029803
0.000212869
0.000127718
4.25721e-05
5.70248e-05
0.000171077
0.000285138
0.000399213
0.000513307
0.000627426
0.000741575
0.00085576
0.000969987
0.00108426
0.00119858
0.00131296
0.0014274
0.00154191
0.00165649
0.00177114
0.00188587
0.00200068
0.00211558
0.00223057
0.00234565
0.00246083
0.00257611
0.00269148
0.00280697
0.00292255
0.00303824
0.00315405
0.00326995
0.00338597
0.0035021
0.00361833
0.00373467
0.00385111
0.00396766
0.00408431
0.00420105
0.00431789
0.00443482
0.00455183
0.00466892
0.00478609
0.00490332
0.00502061
0.00513795
0.00525533
0.00537274
0.00549018
0.00560762
0.00572506
0.00584249
0.00595989
0.00607724
0.00619454
0.00631176
0.00642888
0.00654589
0.00666277
0.0067795
0.00689605
0.00701241
0.00712854
0.00724443
0.00736004
0.00747536
0.00759034
0.00770497
0.00781921
0.00793303
0.0080464
0.00815928
0.00827163
0.00838343
0.00849463
0.00860519
0.00871508
0.00882425
0.00893265
0.00904026
0.00914702
0.00925288
0.0093578
0.00946174
0.00956464
0.00966645
0.00976713
0.00986662
0.00996487
0.0100618
0.0101575
0.0102517
0.0103444
0.0104357
0.0105254
0.0106135
0.0106999
0.0107845
0.0108674
0.0109485
0.0110276
0.0111048
0.01118
0.0112532
0.0113242
0.011393
0.0114597
0.011524
0.0115861
0.0116457
0.011703
0.0117577
0.01181
0.0118597
0.0119068
0.0119513
0.0119931
0.0120322
0.0120685
0.0121021
0.0121328
0.0121607
0.0121858
0.0122079
0.0122272
0.0122435
0.0122569
0.0122673
0.0122748
0.0122792
0.0122807
0.0122793
0.0122748
0.0122674
0.0122569
0.0122436
0.0122272
0.012208
0.0121858
0.0121607
0.0121327
0.0121019
0.0120682
0.0120318
0.0119925
0.0119505
0.0119058
0.0118585
0.0118085
0.0117559
0.0117008
0.0116432
0.0115831
0.0115206
0.0114557
0.0113885
0.0113191
0.0112474
0.0111736
0.0110976
0.0110196
0.0109396
0.0108577
0.0107738
0.0106881
0.0106006
0.0105114
0.0104205
0.010328
0.0102339
0.0101383
0.0100412
0.00994273
0.00984289
0.00974174
0.00963934
0.00953574
0.00943098
0.00932511
0.0092182
0.00911027
0.00900138
0.00889157
0.0087809
0.00866939
0.0085571
0.00844406
0.00833032
0.00821592
0.00810089
0.00798527
0.0078691
0.00775241
0.00763524
0.00751762
0.00739957
0.00728114
0.00716235
0.00704323
0.0069238
0.00680409
0.00668413
0.00656395
0.00644355
0.00632297
0.00620223
0.00608135
0.00596033
0.00583921
0.00571801
0.00559672
0.00547538
0.00535399
0.00523257
0.00511113
0.00498968
0.00486824
0.00474681
0.0046254
0.00450402
0.00438268
0.00426139
0.00414014
0.00401896
0.00389783
0.00377678
0.00365579
0.00353488
0.00341405
0.00329329
0.00317262
0.00305203
0.00293152
0.00281109
0.00269075
0.00257049
0.00245031
0.00233021
0.00221019
0.00209024
0.00197037
0.00185057
0.00173084
0.00161117
0.00149156
0.00137202
0.00125252
0.00113308
0.00101368
0.000894327
0.000775007
0.00065572
0.000536461
0.000417224
0.000298005
0.000178798
5.95984e-05
7.33127e-05
0.000219942
0.000366582
0.00051324
0.000659923
0.000806638
0.000953392
0.00110019
0.00124705
0.00139396
0.00154094
0.00168799
0.00183512
0.00198233
0.00212964
0.00227704
0.00242455
0.00257216
0.00271988
0.00286771
0.00301567
0.00316375
0.00331196
0.0034603
0.00360877
0.00375738
0.00390613
0.00405501
0.00420404
0.0043532
0.00450251
0.00465195
0.00480153
0.00495125
0.0051011
0.00525108
0.00540119
0.00555142
0.00570176
0.00585222
0.00600277
0.00615342
0.00630416
0.00645498
0.00660586
0.00675679
0.00690777
0.00705878
0.0072098
0.00736082
0.00751182
0.00766279
0.0078137
0.00796453
0.00811527
0.0082659
0.00841637
0.00856668
0.0087168
0.00886669
0.00901633
0.00916569
0.00931473
0.00946342
0.00961173
0.00975962
0.00990706
0.010054
0.0102004
0.0103462
0.0104914
0.0106359
0.0107797
0.0109228
0.011065
0.0112063
0.0113468
0.0114862
0.0116246
0.011762
0.0118982
0.0120332
0.0121669
0.0122993
0.0124302
0.0125598
0.0126878
0.0128142
0.0129389
0.013062
0.0131832
0.0133026
0.01342
0.0135354
0.0136487
0.0137599
0.0138689
0.0139756
0.0140799
0.0141817
0.0142811
0.0143778
0.014472
0.0145634
0.014652
0.0147377
0.0148206
0.0149004
0.0149772
0.0150509
0.0151214
0.0151887
0.0152527
0.0153133
0.0153706
0.0154244
0.0154747
0.0155215
0.0155646
0.0156042
0.0156401
0.0156724
0.0157009
0.0157257
0.0157467
0.0157639
0.0157773
0.0157869
0.0157927
0.0157946
0.0157927
0.015787
0.0157774
0.015764
0.0157468
0.0157258
0.015701
0.0156724
0.0156401
0.0156041
0.0155644
0.0155211
0.0154742
0.0154236
0.0153696
0.0153121
0.0152511
0.0151868
0.0151191
0.0150482
0.014974
0.0148967
0.0148162
0.0147327
0.0146463
0.0145569
0.0144647
0.0143697
0.0142719
0.0141715
0.0140686
0.0139631
0.0138552
0.0137449
0.0136324
0.0135176
0.0134006
0.0132815
0.0131605
0.0130375
0.0129126
0.0127858
0.0126574
0.0125272
0.0123955
0.0122622
0.0121274
0.0119912
0.0118537
0.0117149
0.0115748
0.0114335
0.0112911
0.0111477
0.0110033
0.0108579
0.0107116
0.0105644
0.0104164
0.0102677
0.0101183
0.00996822
0.00981751
0.00966623
0.00951441
0.00936209
0.0092093
0.0090561
0.00890251
0.00874856
0.00859428
0.00843972
0.00828489
0.00812982
0.00797455
0.00781909
0.00766347
0.00750772
0.00735185
0.00719589
0.00703985
0.00688376
0.00672763
0.00657147
0.00641531
0.00625915
0.006103
0.00594689
0.00579082
0.0056348
0.00547884
0.00532294
0.00516712
0.00501139
0.00485574
0.00470018
0.00454472
0.00438936
0.0042341
0.00407894
0.00392389
0.00376895
0.00361412
0.00345939
0.00330477
0.00315026
0.00299585
0.00284154
0.00268733
0.00253321
0.00237919
0.00222525
0.0020714
0.00191763
0.00176393
0.0016103
0.00145674
0.00130324
0.00114979
0.000996383
0.000843022
0.000689697
0.000536401
0.000383127
0.00022987
7.66222e-05
8.95971e-05
0.000268796
0.000448008
0.000627242
0.000806507
0.000985811
0.00116516
0.00134457
0.00152405
0.00170359
0.00188322
0.00206294
0.00224275
0.00242267
0.0026027
0.00278284
0.00296311
0.00314352
0.00332406
0.00350474
0.00368557
0.00386655
0.00404769
0.00422898
0.00441045
0.00459208
0.00477387
0.00495584
0.00513798
0.0053203
0.00550278
0.00568544
0.00586826
0.00605126
0.00623441
0.00641773
0.0066012
0.00678483
0.00696859
0.0071525
0.00733653
0.00752067
0.00770493
0.00788928
0.00807371
0.00825822
0.00844277
0.00862737
0.00881198
0.00899659
0.00918119
0.00936574
0.00955023
0.00973463
0.00991891
0.0101031
0.010287
0.0104708
0.0106543
0.0108376
0.0110205
0.0112031
0.0113854
0.0115672
0.0117485
0.0119294
0.0121096
0.0122893
0.0124683
0.0126466
0.0128242
0.0130009
0.0131768
0.0133517
0.0135256
0.0136985
0.0138702
0.0140408
0.0142101
0.0143781
0.0145447
0.0147098
0.0148733
0.0150353
0.0151955
0.0153539
0.0155105
0.0156652
0.0158178
0.0159683
0.0161166
0.0162626
0.0164063
0.0165475
0.0166862
0.0168222
0.0169555
0.0170861
0.0172137
0.0173383
0.0174599
0.0175783
0.0176935
0.0178053
0.0179138
0.0180187
0.0181201
0.0182178
0.0183118
0.018402
0.0184883
0.0185706
0.018649
0.0187232
0.0187932
0.0188591
0.0189207
0.0189779
0.0190308
0.0190793
0.0191232
0.0191627
0.0191976
0.0192279
0.0192537
0.0192747
0.0192912
0.0193029
0.01931
0.0193123
0.01931
0.019303
0.0192913
0.0192749
0.0192538
0.0192281
0.0191977
0.0191628
0.0191233
0.0190792
0.0190306
0.0189776
0.0189201
0.0188583
0.0187922
0.0187218
0.0186472
0.0185684
0.0184856
0.0183988
0.018308
0.0182134
0.0181149
0.0180127
0.0179069
0.0177976
0.0176847
0.0175684
0.0174489
0.017326
0.0172
0.017071
0.016939
0.0168041
0.0166663
0.0165259
0.0163828
0.0162371
0.016089
0.0159385
0.0157857
0.0156307
0.0154736
0.0153144
0.0151532
0.0149902
0.0148253
0.0146587
0.0144905
0.0143207
0.0141493
0.0139766
0.0138025
0.013627
0.0134504
0.0132726
0.0130936
0.0129137
0.0127327
0.0125509
0.0123682
0.0121846
0.0120004
0.0118154
0.0116297
0.0114435
0.0112567
0.0110694
0.0108816
0.0106933
0.0105047
0.0103157
0.0101265
0.00993688
0.00974705
0.00955699
0.00936675
0.00917634
0.00898579
0.00879513
0.00860438
0.00841357
0.00822271
0.00803182
0.00784092
0.00765003
0.00745917
0.00726834
0.00707757
0.00688686
0.00669622
0.00650567
0.00631521
0.00612485
0.0059346
0.00574447
0.00555445
0.00536456
0.0051748
0.00498516
0.00479565
0.00460628
0.00441704
0.00422793
0.00403896
0.00385011
0.00366139
0.00347279
0.00328432
0.00309596
0.00290771
0.00271958
0.00253155
0.00234361
0.00215577
0.00196802
0.00178034
0.00159274
0.0014052
0.00121772
0.00103029
0.000842904
0.000655555
0.000468233
0.000280932
9.36427e-05
0.000105877
0.000317636
0.000529411
0.000741213
0.000953051
0.00116494
0.00137688
0.00158889
0.00180097
0.00201314
0.00222541
0.00243779
0.00265028
0.00286289
0.00307563
0.00328852
0.00350155
0.00371474
0.00392809
0.00414161
0.00435531
0.00456919
0.00478325
0.0049975
0.00521195
0.0054266
0.00564145
0.0058565
0.00607175
0.00628721
0.00650288
0.00671875
0.00693482
0.00715109
0.00736756
0.00758422
0.00780107
0.00801809
0.00823529
0.00845265
0.00867016
0.00888782
0.0091056
0.0093235
0.0095415
0.00975958
0.00997773
0.0101959
0.0104142
0.0106324
0.0108506
0.0110688
0.0112868
0.0115048
0.0117227
0.0119404
0.0121579
0.0123751
0.0125921
0.0128088
0.0130251
0.013241
0.0134564
0.0136714
0.0138858
0.0140997
0.0143128
0.0145253
0.014737
0.0149478
0.0151578
0.0153668
0.0155748
0.0157816
0.0159873
0.0161918
0.0163949
0.0165967
0.0167969
0.0169956
0.0171926
0.0173879
0.0175814
0.017773
0.0179625
0.01815
0.0183352
0.0185182
0.0186987
0.0188768
0.0190523
0.0192251
0.0193951
0.0195622
0.0197262
0.0198872
0.020045
0.0201995
0.0203505
0.020498
0.0206419
0.020782
0.0209183
0.0210507
0.0211791
0.0213033
0.0214233
0.021539
0.0216502
0.021757
0.0218591
0.0219566
0.0220493
0.0221372
0.0222202
0.0222981
0.022371
0.0224388
0.0225014
0.0225588
0.0226108
0.0226576
0.0226989
0.0227348
0.0227653
0.0227902
0.0228097
0.0228236
0.022832
0.0228348
0.022832
0.0228237
0.0228098
0.0227904
0.0227655
0.022735
0.0226991
0.0226577
0.0226109
0.0225588
0.0225012
0.0224385
0.0223705
0.0222973
0.022219
0.0221356
0.0220473
0.0219541
0.0218561
0.0217533
0.0216459
0.0215338
0.0214173
0.0212964
0.0211712
0.0210417
0.0209081
0.0207705
0.020629
0.0204837
0.0203346
0.0201819
0.0200256
0.019866
0.019703
0.0195368
0.0193675
0.0191951
0.0190199
0.0188418
0.0186611
0.0184777
0.0182918
0.0181035
0.0179128
0.0177199
0.0175249
0.0173279
0.0171289
0.016928
0.0167254
0.016521
0.0163151
0.0161076
0.0158987
0.0156884
0.0154768
0.0152639
0.01505
0.0148349
0.0146188
0.0144018
0.0141839
0.0139652
0.0137457
0.0135255
0.0133046
0.0130831
0.0128611
0.0126385
0.0124155
0.0121921
0.0119683
0.0117442
0.0115198
0.0112951
0.0110702
0.0108451
0.0106198
0.0103945
0.010169
0.00994342
0.00971781
0.00949218
0.00926653
0.0090409
0.0088153
0.00858974
0.00836425
0.00813884
0.00791352
0.0076883
0.0074632
0.00723821
0.00701336
0.00678864
0.00656407
0.00633964
0.00611537
0.00589125
0.00566728
0.00544348
0.00521983
0.00499634
0.00477301
0.00454983
0.0043268
0.00410392
0.00388119
0.0036586
0.00343614
0.00321381
0.0029916
0.00276951
0.00254753
0.00232565
0.00210387
0.00188217
0.00166055
0.001439
0.00121751
0.000996075
0.000774681
0.00055332
0.000331982
0.000110659
0.000122152
0.000366461
0.000610789
0.000855147
0.00109955
0.001344
0.00158852
0.00183312
0.00207781
0.0023226
0.0025675
0.00281252
0.00305768
0.00330298
0.00354843
0.00379405
0.00403983
0.0042858
0.00453196
0.00477831
0.00502487
0.00527164
0.00551862
0.00576583
0.00601326
0.00626092
0.00650882
0.00675695
0.00700532
0.00725393
0.00750277
0.00775186
0.00800118
0.00825074
0.00850052
0.00875053
0.00900075
0.00925118
0.00950182
0.00975265
0.0100037
0.0102548
0.0105062
0.0107576
0.0110092
0.0112609
0.0115126
0.0117645
0.0120163
0.0122682
0.01252
0.0127718
0.0130236
0.0132752
0.0135266
0.0137779
0.0140289
0.0142797
0.0145302
0.0147803
0.01503
0.0152793
0.015528
0.0157762
0.0160237
0.0162706
0.0165167
0.016762
0.0170064
0.0172499
0.0174923
0.0177337
0.0179738
0.0182127
0.0184503
0.0186864
0.018921
0.019154
0.0193853
0.0196147
0.0198423
0.0200679
0.0202914
0.0205127
0.0207316
0.0209482
0.0211622
0.0213736
0.0215822
0.0217879
0.0219907
0.0221903
0.0223867
0.0225798
0.0227694
0.0229554
0.0231378
0.0233163
0.0234908
0.0236613
0.0238276
0.0239896
0.0241471
0.0243002
0.0244485
0.0245921
0.0247308
0.0248645
0.0249931
0.0251166
0.0252347
0.0253473
0.0254545
0.0255561
0.025652
0.0257422
0.0258265
0.0259049
0.0259773
0.0260436
0.0261038
0.0261578
0.0262056
0.0262471
0.0262824
0.0263112
0.0263337
0.0263498
0.0263595
0.0263628
0.0263596
0.02635
0.0263339
0.0263115
0.0262827
0.0262475
0.0262059
0.0261581
0.026104
0.0260437
0.0259772
0.0259046
0.025826
0.0257414
0.0256508
0.0255545
0.0254524
0.0253447
0.0252313
0.0251125
0.0249883
0.0248588
0.0247241
0.0245844
0.0244396
0.02429
0.0241356
0.0239766
0.023813
0.023645
0.0234727
0.0232963
0.0231157
0.0229312
0.0227429
0.0225509
0.0223552
0.0221561
0.0219536
0.0217479
0.021539
0.0213272
0.0211124
0.0208949
0.0206746
0.0204518
0.0202266
0.019999
0.0197691
0.0195371
0.0193031
0.0190671
0.0188292
0.0185896
0.0183483
0.0181055
0.0178611
0.0176154
0.0173683
0.01712
0.0168705
0.0166199
0.0163683
0.0161158
0.0158623
0.0156081
0.0153531
0.0150974
0.0148411
0.0145842
0.0143267
0.0140688
0.0138105
0.0135518
0.0132927
0.0130334
0.0127738
0.012514
0.012254
0.0119939
0.0117337
0.0114733
0.011213
0.0109525
0.0106921
0.0104317
0.0101714
0.00991108
0.00965086
0.00939074
0.00913072
0.00887082
0.00861106
0.00835144
0.00809198
0.00783267
0.00757353
0.00731457
0.00705578
0.00679718
0.00653876
0.00628052
0.00602246
0.00576459
0.00550691
0.0052494
0.00499207
0.00473491
0.00447792
0.0042211
0.00396443
0.00370791
0.00345153
0.0031953
0.00293918
0.00268319
0.00242731
0.00217153
0.00191583
0.00166022
0.00140468
0.0011492
0.000893774
0.000638382
0.000383018
0.000127671
0.00013842
0.000415268
0.000692136
0.000969039
0.00124599
0.001523
0.00180009
0.00207727
0.00235455
0.00263194
0.00290946
0.00318712
0.00346494
0.00374291
0.00402106
0.0042994
0.00457793
0.00485667
0.00513563
0.00541481
0.00569422
0.00597387
0.00625377
0.00653392
0.00681433
0.007095
0.00737595
0.00765716
0.00793864
0.0082204
0.00850243
0.00878473
0.00906731
0.00935015
0.00963325
0.00991661
0.0102002
0.0104841
0.0107682
0.0110525
0.011337
0.0116217
0.0119066
0.0121916
0.0124768
0.0127621
0.0130475
0.013333
0.0136185
0.013904
0.0141895
0.014475
0.0147604
0.0150456
0.0153307
0.0156156
0.0159003
0.0161846
0.0164687
0.0167523
0.0170354
0.0173181
0.0176001
0.0178816
0.0181623
0.0184423
0.0187214
0.0189996
0.0192769
0.019553
0.019828
0.0201017
0.0203742
0.0206452
0.0209147
0.0211825
0.0214487
0.021713
0.0219754
0.0222358
0.022494
0.02275
0.0230036
0.0232547
0.0235032
0.0237489
0.0239918
0.0242317
0.0244685
0.024702
0.0249321
0.0251588
0.0253817
0.0256009
0.0258162
0.0260274
0.0262344
0.026437
0.0266352
0.0268288
0.0270176
0.0272015
0.0273805
0.0275542
0.0277227
0.0278858
0.0280433
0.0281952
0.0283413
0.0284814
0.0286156
0.0287436
0.0288653
0.0289807
0.0290897
0.0291921
0.0292879
0.0293769
0.0294592
0.0295345
0.0296029
0.0296643
0.0297186
0.0297658
0.0298058
0.0298386
0.0298642
0.0298825
0.0298935
0.0298972
0.0298936
0.0298827
0.0298644
0.029839
0.0298062
0.0297662
0.029719
0.0296647
0.0296032
0.0295347
0.0294592
0.0293767
0.0292874
0.0291913
0.0290885
0.0289791
0.0288632
0.0287408
0.0286121
0.0284771
0.0283361
0.028189
0.028036
0.0278773
0.0277129
0.027543
0.0273677
0.0271872
0.0270014
0.0268107
0.0266151
0.0264147
0.0262098
0.0260003
0.0257865
0.0255685
0.0253464
0.0251204
0.0248906
0.0246571
0.02442
0.0241796
0.0239358
0.023689
0.023439
0.0231862
0.0229306
0.0226723
0.0224115
0.0221483
0.0218827
0.021615
0.0213451
0.0210733
0.0207996
0.0205241
0.0202469
0.0199681
0.0196878
0.0194062
0.0191232
0.018839
0.0185536
0.0182672
0.0179798
0.0176915
0.0174023
0.0171123
0.0168217
0.0165303
0.0162384
0.015946
0.0156531
0.0153597
0.015066
0.014772
0.0144777
0.0141831
0.0138884
0.0135934
0.0132984
0.0130033
0.0127081
0.0124129
0.0121177
0.0118225
0.0115274
0.0112323
0.0109374
0.0106425
0.0103478
0.0100532
0.00975878
0.00946452
0.00917043
0.00887653
0.00858283
0.00828932
0.00799602
0.00770293
0.00741004
0.00711737
0.00682491
0.00653266
0.00624063
0.00594879
0.00565716
0.00536573
0.00507449
0.00478344
0.00449257
0.00420187
0.00391133
0.00362095
0.00333072
0.00304062
0.00275065
0.00246079
0.00217104
0.00188138
0.00159179
0.00130228
0.00101283
0.000723417
0.000434038
0.000144677
0.000154682
0.000464053
0.000773448
0.00108288
0.00139237
0.00170193
0.00201157
0.00232131
0.00263117
0.00294116
0.00325129
0.00356157
0.00387203
0.00418267
0.00449351
0.00480456
0.00511583
0.00542733
0.00573907
0.00605107
0.00636332
0.00667585
0.00698866
0.00730175
0.00761514
0.00792882
0.0082428
0.00855709
0.00887169
0.0091866
0.00950181
0.00981733
0.0101332
0.0104493
0.0107657
0.0110824
0.0113994
0.0117167
0.0120343
0.0123521
0.0126701
0.0129884
0.0133068
0.0136255
0.0139443
0.0142632
0.0145823
0.0149014
0.0152206
0.0155399
0.0158591
0.0161782
0.0164973
0.0168163
0.0171351
0.0174536
0.0177719
0.0180899
0.0184075
0.0187247
0.0190413
0.0193574
0.0196729
0.0199877
0.0203017
0.0206148
0.020927
0.0212382
0.0215483
0.0218573
0.0221649
0.0224711
0.0227759
0.0230791
0.0233806
0.0236804
0.0239782
0.024274
0.0245676
0.024859
0.025148
0.0254344
0.0257183
0.0259993
0.0262775
0.0265525
0.0268244
0.027093
0.027358
0.0276195
0.0278771
0.0281309
0.0283805
0.0286259
0.028867
0.0291035
0.0293353
0.0295622
0.0297842
0.030001
0.0302125
0.0304185
0.0306189
0.0308136
0.0310023
0.031185
0.0313615
0.0315316
0.0316953
0.0318523
0.0320026
0.0321461
0.0322825
0.0324118
0.0325339
0.0326487
0.032756
0.0328558
0.0329479
0.0330324
0.033109
0.0331778
0.0332387
0.0332916
0.0333365
0.0333732
0.0334019
0.0334224
0.0334347
0.0334389
0.0334349
0.0334226
0.0334022
0.0333737
0.033337
0.0332922
0.0332393
0.0331784
0.0331095
0.0330328
0.0329482
0.0328558
0.0327557
0.032648
0.0325328
0.0324102
0.0322803
0.0321432
0.031999
0.0318478
0.0316898
0.0315251
0.0313537
0.0311759
0.0309918
0.0308015
0.0306051
0.0304029
0.0301949
0.0299813
0.0297622
0.0295378
0.0293083
0.0290737
0.0288343
0.0285902
0.0283416
0.0280885
0.0278312
0.0275698
0.0273044
0.0270353
0.0267624
0.0264861
0.0262063
0.0259233
0.0256373
0.0253482
0.0250563
0.0247617
0.0244646
0.0241649
0.023863
0.0235588
0.0232526
0.0229443
0.0226342
0.0223223
0.0220088
0.0216937
0.0213772
0.0210592
0.02074
0.0204197
0.0200982
0.0197757
0.0194523
0.019128
0.0188029
0.0184771
0.0181506
0.0178236
0.0174961
0.017168
0.0168396
0.0165108
0.0161818
0.0158524
0.0155228
0.0151931
0.0148633
0.0145333
0.0142033
0.0138733
0.0135433
0.0132133
0.0128834
0.0125535
0.0122238
0.0118942
0.0115647
0.0112354
0.0109063
0.0105774
0.0102487
0.0099202
0.00959192
0.00926387
0.00893605
0.00860846
0.00828112
0.00795401
0.00762715
0.00730053
0.00697414
0.00664799
0.00632206
0.00599636
0.00567088
0.00534561
0.00502054
0.00469567
0.00437098
0.00404647
0.00372212
0.00339793
0.00307387
0.00274995
0.00242615
0.00210245
0.00177884
0.00145531
0.00113184
0.00080842
0.000485038
0.000161677
0.000170935
0.000512815
0.000854721
0.00119667
0.00153868
0.00188077
0.00222295
0.00256524
0.00290766
0.00325023
0.00359295
0.00393585
0.00427894
0.00462223
0.00496575
0.00530949
0.00565349
0.00599774
0.00634226
0.00668706
0.00703216
0.00737756
0.00772327
0.00806929
0.00841565
0.00876233
0.00910936
0.00945672
0.00980443
0.0101525
0.0105009
0.0108496
0.0111987
0.0115481
0.0118979
0.012248
0.0125984
0.0129491
0.0133001
0.0136514
0.014003
0.0143548
0.0147069
0.0150591
0.0154116
0.0157642
0.016117
0.0164698
0.0168227
0.0171757
0.0175287
0.0178816
0.0182344
0.0185871
0.0189396
0.0192919
0.0196439
0.0199955
0.0203468
0.0206976
0.0210478
0.0213974
0.0217463
0.0220945
0.0224419
0.0227883
0.0231337
0.0234779
0.023821
0.0241628
0.0245032
0.024842
0.0251793
0.0255148
0.0258484
0.0261801
0.0265097
0.026837
0.027162
0.0274846
0.0278044
0.0281215
0.0284357
0.0287469
0.0290548
0.0293593
0.0296604
0.0299577
0.0302512
0.0305407
0.030826
0.031107
0.0313835
0.0316553
0.0319223
0.0321843
0.032441
0.0326925
0.0329383
0.0331785
0.0334128
0.0336411
0.0338632
0.0340789
0.034288
0.0344904
0.034686
0.0348746
0.0350559
0.03523
0.0353966
0.0355555
0.0357068
0.0358501
0.0359854
0.0361127
0.0362316
0.0363423
0.0364444
0.036538
0.036623
0.0366993
0.0367668
0.0368255
0.0368752
0.036916
0.0369477
0.0369705
0.0369842
0.0369888
0.0369843
0.0369708
0.0369482
0.0369165
0.0368759
0.0368262
0.0367676
0.0367001
0.0366238
0.0365387
0.0364449
0.0363425
0.0362316
0.0361122
0.0359846
0.0358487
0.0357047
0.0355527
0.0353929
0.0352254
0.0350503
0.0348677
0.0346779
0.0344808
0.0342768
0.034066
0.0338484
0.0336243
0.0333939
0.0331573
0.0329146
0.032666
0.0324118
0.032152
0.0318869
0.0316165
0.0313411
0.0310609
0.030776
0.0304865
0.0301927
0.0298946
0.0295925
0.0292866
0.0289769
0.0286636
0.0283469
0.0280269
0.0277039
0.0273778
0.0270489
0.0267173
0.0263831
0.0260465
0.0257076
0.0253665
0.0250233
0.0246782
0.0243313
0.0239827
0.0236325
0.0232807
0.0229276
0.0225732
0.0222176
0.0218609
0.0215031
0.0211444
0.0207848
0.0204245
0.0200635
0.0197018
0.0193395
0.0189768
0.0186136
0.01825
0.0178861
0.0175219