/*--------------------------------*- C++ -*----------------------------------*\
| =========                 |                                                 |
| \\      /  F ield         | OpenFOAM: The Open Source CFD Toolbox           |
|  \\    /   O peration     | Version:  v2012                                 |
|   \\  /    A nd           | Website:  www.openfoam.com                      |
|    \\/     M anipulation  |                                                 |
\*---------------------------------------------------------------------------*/
FoamFile
{
    version     2.0;
    format      ascii;
    class       volScalarField;
    location    "17.9";
    object      W;
}
// * * * * * * * * * * * * * * * * * * * * * * * * * * * * * * * * * * * * * //

dimensions      [0 0 -1 0 0 0 0];


internalField   nonuniform List<scalar> 
65536
(
4.34296e-15
1.30724e-14
2.19338e-14
3.10178e-14
4.04179e-14
5.02302e-14
6.05548e-14
7.14963e-14
8.31652e-14
9.56784e-14
1.09161e-13
1.23745e-13
1.39575e-13
1.56806e-13
1.75603e-13
1.96147e-13
2.18633e-13
2.43274e-13
2.70299e-13
2.9996e-13
3.32527e-13
3.68296e-13
4.07588e-13
4.50753e-13
4.9817e-13
5.50251e-13
6.07444e-13
6.70232e-13
7.39143e-13
8.14747e-13
8.97661e-13
9.88551e-13
1.08814e-12
1.19721e-12
1.31659e-12
1.44719e-12
1.58999e-12
1.74603e-12
1.91644e-12
2.10242e-12
2.30525e-12
2.52633e-12
2.76713e-12
3.02921e-12
3.31424e-12
3.62402e-12
3.96042e-12
4.32543e-12
4.72118e-12
5.14989e-12
5.61391e-12
6.11571e-12
6.65787e-12
7.24309e-12
7.8742e-12
8.55413e-12
9.28594e-12
1.00728e-11
1.09179e-11
1.18246e-11
1.27963e-11
1.38366e-11
1.49489e-11
1.61369e-11
1.74042e-11
1.87543e-11
2.01908e-11
2.17172e-11
2.33371e-11
2.50537e-11
2.68703e-11
2.87898e-11
3.08151e-11
3.29488e-11
3.5193e-11
3.75497e-11
4.00205e-11
4.26064e-11
4.53081e-11
4.81257e-11
5.10586e-11
5.41057e-11
5.72653e-11
6.05348e-11
6.3911e-11
6.73898e-11
7.09663e-11
7.46348e-11
7.83886e-11
8.22201e-11
8.61209e-11
9.00817e-11
9.40919e-11
9.81406e-11
1.02216e-10
1.06304e-10
1.10392e-10
1.14465e-10
1.18508e-10
1.22506e-10
1.26442e-10
1.303e-10
1.34062e-10
1.37712e-10
1.41232e-10
1.44606e-10
1.47817e-10
1.50849e-10
1.53685e-10
1.5631e-10
1.58711e-10
1.60873e-10
1.62784e-10
1.64433e-10
1.65811e-10
1.6691e-10
1.67721e-10
1.68241e-10
1.68466e-10
1.68393e-10
1.68024e-10
1.6736e-10
1.66405e-10
1.65163e-10
1.63643e-10
1.61852e-10
1.598e-10
1.575e-10
1.54964e-10
1.52207e-10
1.49243e-10
1.46088e-10
1.4276e-10
1.39275e-10
1.35651e-10
1.31906e-10
1.28059e-10
1.24126e-10
1.20127e-10
1.16077e-10
1.11995e-10
1.07896e-10
1.03796e-10
9.97091e-11
9.56495e-11
9.16298e-11
8.76618e-11
8.37562e-11
7.99226e-11
7.61696e-11
7.25047e-11
6.89342e-11
6.54636e-11
6.20972e-11
5.88385e-11
5.569e-11
5.26534e-11
4.97296e-11
4.6919e-11
4.42211e-11
4.16349e-11
3.91589e-11
3.67914e-11
3.45299e-11
3.23721e-11
3.0315e-11
2.83557e-11
2.64911e-11
2.47181e-11
2.30334e-11
2.14338e-11
1.99161e-11
1.84773e-11
1.71143e-11
1.58242e-11
1.46042e-11
1.34516e-11
1.2364e-11
1.13389e-11
1.03741e-11
9.46751e-12
8.61701e-12
7.82073e-12
7.07684e-12
6.38357e-12
5.73923e-12
5.14213e-12
4.59062e-12
4.08306e-12
3.61776e-12
3.19305e-12
2.80719e-12
2.45842e-12
2.14491e-12
1.8648e-12
1.61617e-12
1.39706e-12
1.20548e-12
1.0394e-12
8.96771e-13
7.75547e-13
6.73685e-13
5.89165e-13
5.20002e-13
4.64263e-13
4.2008e-13
3.85664e-13
3.59321e-13
3.39466e-13
3.24633e-13
3.13492e-13
3.04853e-13
2.97681e-13
2.91097e-13
2.84384e-13
2.76985e-13
2.68504e-13
2.5869e-13
2.47432e-13
2.34744e-13
2.20742e-13
2.05627e-13
1.89663e-13
1.73153e-13
1.5642e-13
1.39784e-13
1.23547e-13
1.07978e-13
9.33023e-14
7.96975e-14
6.72872e-14
5.61438e-14
4.62919e-14
3.77132e-14
3.03545e-14
2.41353e-14
1.89557e-14
1.47043e-14
1.1265e-14
8.52226e-15
6.36625e-15
4.69547e-15
3.41904e-15
2.45766e-15
1.7438e-15
1.22121e-15
8.44026e-16
5.75626e-16
3.87302e-16
2.56976e-16
1.67958e-16
1.07829e-16
6.74672e-17
4.02094e-17
2.11552e-17
6.57804e-18
1.48238e-14
4.46206e-14
7.487e-14
1.05884e-13
1.37982e-13
1.71494e-13
2.06764e-13
2.44151e-13
2.84033e-13
3.26814e-13
3.7292e-13
4.22812e-13
4.76981e-13
5.35958e-13
6.00318e-13
6.7068e-13
7.47718e-13
8.32161e-13
9.24804e-13
1.02651e-12
1.13821e-12
1.26094e-12
1.39578e-12
1.54397e-12
1.70679e-12
1.88568e-12
2.08218e-12
2.29796e-12
2.53485e-12
2.79482e-12
3.08e-12
3.3927e-12
3.73541e-12
4.11084e-12
4.52188e-12
4.97167e-12
5.46358e-12
6.00124e-12
6.58854e-12
7.22965e-12
7.92906e-12
8.69153e-12
9.52217e-12
1.04264e-11
1.14101e-11
1.24794e-11
1.36408e-11
1.49012e-11
1.6268e-11
1.77488e-11
1.93519e-11
2.10857e-11
2.29593e-11
2.49819e-11
2.71634e-11
2.95138e-11
3.20438e-11
3.47642e-11
3.76862e-11
4.08213e-11
4.41814e-11
4.77785e-11
5.16247e-11
5.57323e-11
6.01136e-11
6.47811e-11
6.97468e-11
7.50227e-11
8.06207e-11
8.65519e-11
9.28272e-11
9.94566e-11
1.0645e-10
1.13814e-10
1.21558e-10
1.29687e-10
1.38206e-10
1.47118e-10
1.56425e-10
1.66125e-10
1.76217e-10
1.86696e-10
1.97553e-10
2.08781e-10
2.20365e-10
2.32292e-10
2.44543e-10
2.57096e-10
2.69928e-10
2.83011e-10
2.96314e-10
3.09804e-10
3.23444e-10
3.37193e-10
3.5101e-10
3.64848e-10
3.78658e-10
3.92391e-10
4.05992e-10
4.19407e-10
4.32581e-10
4.45454e-10
4.5797e-10
4.70069e-10
4.81692e-10
4.92782e-10
5.03283e-10
5.13138e-10
5.22296e-10
5.30704e-10
5.38317e-10
5.45089e-10
5.50983e-10
5.55961e-10
5.59995e-10
5.63058e-10
5.65132e-10
5.66203e-10
5.66262e-10
5.65308e-10
5.63346e-10
5.60385e-10
5.56442e-10
5.5154e-10
5.45706e-10
5.38975e-10
5.31383e-10
5.22976e-10
5.13799e-10
5.03904e-10
4.93345e-10
4.8218e-10
4.70467e-10
4.58266e-10
4.45641e-10
4.32652e-10
4.19361e-10
4.0583e-10
3.92119e-10
3.78287e-10
3.64388e-10
3.50478e-10
3.36607e-10
3.22824e-10
3.09172e-10
2.95694e-10
2.82427e-10
2.69404e-10
2.56656e-10
2.44209e-10
2.32085e-10
2.20304e-10
2.08882e-10
1.97829e-10
1.87157e-10
1.7687e-10
1.66972e-10
1.57465e-10
1.48346e-10
1.39613e-10
1.31261e-10
1.23282e-10
1.15669e-10
1.08413e-10
1.01505e-10
9.4932e-11
8.86849e-11
8.27518e-11
7.7121e-11
7.17812e-11
6.67208e-11
6.19285e-11
5.73933e-11
5.31048e-11
4.90526e-11
4.5227e-11
4.16189e-11
3.82193e-11
3.50201e-11
3.20135e-11
2.91921e-11
2.6549e-11
2.40776e-11
2.17716e-11
1.96252e-11
1.76325e-11
1.57879e-11
1.40858e-11
1.2521e-11
1.10877e-11
9.78065e-12
8.59412e-12
7.52246e-12
6.55986e-12
5.7004e-12
4.93801e-12
4.26654e-12
3.67974e-12
3.17129e-12
2.73484e-12
2.36403e-12
2.05255e-12
1.79417e-12
1.58278e-12
1.41244e-12
1.27742e-12
1.17223e-12
1.0917e-12
1.03097e-12
9.85583e-13
9.51468e-13
9.25005e-13
9.03036e-13
8.82887e-13
8.62377e-13
8.39814e-13
8.13986e-13
7.84138e-13
7.4993e-13
7.11399e-13
6.689e-13
6.2304e-13
5.74619e-13
5.24556e-13
4.73826e-13
4.23399e-13
3.74189e-13
3.27011e-13
2.82548e-13
2.41332e-13
2.03739e-13
1.69988e-13
1.40151e-13
1.14172e-13
9.18895e-14
7.30587e-14
5.73769e-14
4.45063e-14
3.40946e-14
2.57924e-14
1.92665e-14
1.42095e-14
1.03464e-14
7.43688e-15
5.27656e-15
3.69512e-15
2.55377e-15
1.74162e-15
1.1718e-15
7.7747e-16
5.08136e-16
3.26218e-16
2.04106e-16
1.21643e-16
6.3999e-17
1.99003e-17
3.12956e-14
9.42047e-14
1.58078e-13
2.2358e-13
2.91391e-13
3.62214e-13
4.36781e-13
5.15857e-13
6.00252e-13
6.90824e-13
7.88487e-13
8.94221e-13
1.00908e-12
1.1342e-12
1.27081e-12
1.42024e-12
1.58393e-12
1.76344e-12
1.96049e-12
2.17692e-12
2.41475e-12
2.67617e-12
2.96356e-12
3.27952e-12
3.62687e-12
4.00867e-12
4.42825e-12
4.88924e-12
5.39555e-12
5.95145e-12
6.56153e-12
7.2308e-12
7.96463e-12
8.76887e-12
9.64979e-12
1.06142e-11
1.16693e-11
1.28231e-11
1.4084e-11
1.54609e-11
1.69636e-11
1.86024e-11
2.03885e-11
2.23336e-11
2.44503e-11
2.67519e-11
2.92527e-11
3.19676e-11
3.49126e-11
3.81042e-11
4.15603e-11
4.52992e-11
4.93403e-11
5.3704e-11
5.84113e-11
6.34841e-11
6.89453e-11
7.48182e-11
8.11271e-11
8.78968e-11
9.51526e-11
1.0292e-10
1.11226e-10
1.20095e-10
1.29555e-10
1.39632e-10
1.50351e-10
1.61737e-10
1.73816e-10
1.8661e-10
2.00141e-10
2.14431e-10
2.29499e-10
2.45359e-10
2.62028e-10
2.79515e-10
2.97829e-10
3.16974e-10
3.3695e-10
3.57754e-10
3.79377e-10
4.01805e-10
4.25019e-10
4.48994e-10
4.73701e-10
4.99101e-10
5.25151e-10
5.51802e-10
5.78996e-10
6.06669e-10
6.34751e-10
6.63164e-10
6.91825e-10
7.20642e-10
7.4952e-10
7.78355e-10
8.07039e-10
8.3546e-10
8.63501e-10
8.91042e-10
9.17959e-10
9.4413e-10
9.69426e-10
9.93725e-10
1.0169e-09
1.03883e-09
1.0594e-09
1.07849e-09
1.096e-09
1.11182e-09
1.12586e-09
1.13803e-09
1.14827e-09
1.1565e-09
1.16267e-09
1.16674e-09
1.16868e-09
1.16848e-09
1.16613e-09
1.16165e-09
1.15505e-09
1.14638e-09
1.13568e-09
1.12302e-09
1.10847e-09
1.09211e-09
1.07404e-09
1.05437e-09
1.0332e-09
1.01064e-09
9.86838e-10
9.61906e-10
9.35979e-10
9.0919e-10
8.81673e-10
8.5356e-10
8.24984e-10
7.96073e-10
7.66952e-10
7.3774e-10
7.08551e-10
6.79495e-10
6.50673e-10
6.22177e-10
5.94094e-10
5.66503e-10
5.39473e-10
5.13065e-10
4.87334e-10
4.62325e-10
4.38076e-10
4.14617e-10
3.91971e-10
3.70154e-10
3.49177e-10
3.29044e-10
3.09754e-10
2.91302e-10
2.73677e-10
2.56867e-10
2.40853e-10
2.25618e-10
2.11138e-10
1.97391e-10
1.84352e-10
1.71995e-10
1.60294e-10
1.49222e-10
1.38753e-10
1.2886e-10
1.19517e-10
1.10701e-10
1.02385e-10
9.45474e-11
8.71657e-11
8.02187e-11
7.36865e-11
6.75502e-11
6.17921e-11
5.63955e-11
5.1345e-11
4.66258e-11
4.22241e-11
3.81268e-11
3.43217e-11
3.07967e-11
2.75405e-11
2.45419e-11
2.17901e-11
1.92743e-11
1.69838e-11
1.49079e-11
1.30357e-11
1.13565e-11
9.85911e-12
8.53252e-12
7.36547e-12
6.34665e-12
5.46471e-12
4.70831e-12
4.06617e-12
3.52712e-12
3.08021e-12
2.71471e-12
2.42026e-12
2.18686e-12
2.005e-12
1.8657e-12
1.76059e-12
1.68194e-12
1.62275e-12
1.5768e-12
1.53866e-12
1.50375e-12
1.46832e-12
1.42947e-12
1.38514e-12
1.33402e-12
1.27554e-12
1.20975e-12
1.13726e-12
1.0591e-12
9.76616e-13
8.91381e-13
8.05046e-13
7.1926e-13
6.3557e-13
5.55358e-13
4.79781e-13
4.09741e-13
3.45871e-13
2.88539e-13
2.37865e-13
1.93752e-13
1.55921e-13
1.23955e-13
9.7339e-14
7.54969e-14
5.783e-14
4.37442e-14
3.26734e-14
2.40956e-14
1.75434e-14
1.26091e-14
8.94569e-15
6.26417e-15
4.32903e-15
2.95214e-15
1.98615e-15
1.31772e-15
8.61189e-16
5.52851e-16
3.45893e-16
2.06138e-16
1.08452e-16
3.37229e-17
5.99276e-14
1.80399e-13
3.02738e-13
4.28229e-13
5.58189e-13
6.93981e-13
8.37022e-13
9.88796e-13
1.15087e-12
1.32492e-12
1.51271e-12
1.71615e-12
1.93729e-12
2.17835e-12
2.44171e-12
2.72997e-12
3.04594e-12
3.39269e-12
3.77354e-12
4.19212e-12
4.65236e-12
5.15857e-12
5.7154e-12
6.32797e-12
7.00179e-12
7.74288e-12
8.55781e-12
9.45367e-12
1.04382e-11
1.15197e-11
1.27074e-11
1.4011e-11
1.54412e-11
1.70095e-11
1.87282e-11
2.06109e-11
2.26718e-11
2.49266e-11
2.73918e-11
3.00854e-11
3.30266e-11
3.62358e-11
3.9735e-11
4.35475e-11
4.76982e-11
5.22136e-11
5.71218e-11
6.24524e-11
6.8237e-11
7.45085e-11
8.1302e-11
8.8654e-11
9.66029e-11
1.05189e-10
1.14453e-10
1.24439e-10
1.35192e-10
1.46758e-10
1.59185e-10
1.72521e-10
1.86816e-10
2.0212e-10
2.18485e-10
2.35961e-10
2.54599e-10
2.7445e-10
2.95563e-10
3.17987e-10
3.41769e-10
3.66952e-10
3.93578e-10
4.21685e-10
4.51306e-10
4.82472e-10
5.15205e-10
5.49523e-10
5.85438e-10
6.22951e-10
6.62059e-10
7.02747e-10
7.44991e-10
7.88756e-10
8.33998e-10
8.80659e-10
9.2867e-10
9.77948e-10
1.0284e-09
1.07991e-09
1.13237e-09
1.18563e-09
1.23954e-09
1.29395e-09
1.34868e-09
1.40353e-09
1.45832e-09
1.51282e-09
1.56683e-09
1.6201e-09
1.67241e-09
1.72352e-09
1.77318e-09
1.82114e-09
1.86716e-09
1.91099e-09
1.95241e-09
1.99116e-09
2.02704e-09
2.05983e-09
2.08933e-09
2.11536e-09
2.13776e-09
2.15637e-09
2.17108e-09
2.18178e-09
2.1884e-09
2.19088e-09
2.1892e-09
2.18336e-09
2.17339e-09
2.15933e-09
2.14128e-09
2.11932e-09
2.0936e-09
2.06426e-09
2.03148e-09
1.99545e-09
1.95638e-09
1.9145e-09
1.87004e-09
1.82325e-09
1.7744e-09
1.72373e-09
1.67152e-09
1.61803e-09
1.56353e-09
1.50826e-09
1.45249e-09
1.39646e-09
1.3404e-09
1.28454e-09
1.22907e-09
1.17419e-09
1.12008e-09
1.06691e-09
1.01481e-09
9.63925e-10
9.14355e-10
8.66201e-10
8.19543e-10
7.74445e-10
7.30957e-10
6.89115e-10
6.48943e-10
6.1045e-10
5.73637e-10
5.38493e-10
5.04998e-10
4.73127e-10
4.42844e-10
4.1411e-10
3.8688e-10
3.61106e-10
3.36736e-10
3.13715e-10
2.9199e-10
2.71503e-10
2.522e-10
2.34023e-10
2.16918e-10
2.00832e-10
1.85712e-10
1.71509e-10
1.58173e-10
1.45661e-10
1.33927e-10
1.22932e-10
1.12636e-10
1.03003e-10
9.39991e-11
8.5593e-11
7.7755e-11
7.04573e-11
6.36739e-11
5.73807e-11
5.15547e-11
4.61741e-11
4.12182e-11
3.66671e-11
3.25016e-11
2.8703e-11
2.52528e-11
2.21329e-11
1.93252e-11
1.68119e-11
1.45751e-11
1.25969e-11
1.08594e-11
9.34494e-12
8.03574e-12
6.91429e-12
5.96329e-12
5.16573e-12
4.50499e-12
3.96494e-12
3.53001e-12
3.18529e-12
2.91663e-12
2.71071e-12
2.55515e-12
2.43859e-12
2.35073e-12
2.28244e-12
2.22577e-12
2.17403e-12
2.12175e-12
2.06471e-12
1.99989e-12
1.9254e-12
1.84039e-12
1.74494e-12
1.63991e-12
1.52679e-12
1.40753e-12
1.28437e-12
1.1597e-12
1.03589e-12
9.15161e-13
7.99496e-13
6.90556e-13
5.89632e-13
4.97629e-13
4.15066e-13
3.42112e-13
2.78619e-13
2.24182e-13
1.78194e-13
1.39911e-13
1.08501e-13
8.30992e-14
6.28504e-14
4.69383e-14
3.46114e-14
2.51968e-14
1.8108e-14
1.28456e-14
8.99423e-15
6.21514e-15
4.238e-15
2.85103e-15
1.89138e-15
1.23602e-15
7.93431e-16
4.96386e-16
2.95813e-16
1.55627e-16
4.83913e-17
1.10722e-13
3.33317e-13
5.59405e-13
7.91387e-13
1.03173e-12
1.28297e-12
1.54777e-12
1.82891e-12
2.12932e-12
2.45214e-12
2.8007e-12
3.17858e-12
3.58963e-12
4.03801e-12
4.52824e-12
5.06521e-12
5.65421e-12
6.30104e-12
7.01197e-12
7.79387e-12
8.65419e-12
9.60106e-12
1.06433e-11
1.17907e-11
1.30536e-11
1.44436e-11
1.5973e-11
1.76553e-11
1.95054e-11
2.15391e-11
2.37737e-11
2.62281e-11
2.89224e-11
3.18787e-11
3.51206e-11
3.86737e-11
4.25657e-11
4.68262e-11
5.14871e-11
5.65827e-11
6.21497e-11
6.82274e-11
7.48578e-11
8.20858e-11
8.9959e-11
9.85282e-11
1.07847e-10
1.17973e-10
1.28966e-10
1.4089e-10
1.53812e-10
1.67801e-10
1.82932e-10
1.99281e-10
2.16928e-10
2.35955e-10
2.5645e-10
2.78499e-10
3.02194e-10
3.27627e-10
3.54894e-10
3.84089e-10
4.15309e-10
4.48651e-10
4.84211e-10
5.22082e-10
5.62359e-10
6.0513e-10
6.50482e-10
6.98495e-10
7.49244e-10
8.02797e-10
8.59213e-10
9.18541e-10
9.80818e-10
1.04607e-09
1.11431e-09
1.18554e-09
1.25972e-09
1.33683e-09
1.41681e-09
1.49957e-09
1.58501e-09
1.67301e-09
1.76342e-09
1.85607e-09
1.95075e-09
2.04724e-09
2.14528e-09
2.24461e-09
2.3449e-09
2.44584e-09
2.54706e-09
2.6482e-09
2.74886e-09
2.84861e-09
2.94702e-09
3.04366e-09
3.13805e-09
3.22974e-09
3.31825e-09
3.40311e-09
3.48387e-09
3.56006e-09
3.63123e-09
3.69698e-09
3.75688e-09
3.81056e-09
3.85767e-09
3.8979e-09
3.93098e-09
3.95666e-09
3.97477e-09
3.98514e-09
3.98771e-09
3.98241e-09
3.96926e-09
3.94832e-09
3.9197e-09
3.88356e-09
3.84012e-09
3.78964e-09
3.73241e-09
3.66879e-09
3.59914e-09
3.5239e-09
3.44349e-09
3.35839e-09
3.26909e-09
3.17608e-09
3.07987e-09
2.98098e-09
2.87992e-09
2.77719e-09
2.67329e-09
2.5687e-09
2.46389e-09
2.35929e-09
2.25532e-09
2.15237e-09
2.0508e-09
1.95094e-09
1.85308e-09
1.75749e-09
1.66439e-09
1.574e-09
1.48647e-09
1.40194e-09
1.32052e-09
1.24227e-09
1.16726e-09
1.09551e-09
1.02702e-09
9.61769e-10
8.99728e-10
8.40841e-10
7.85043e-10
7.32252e-10
6.82382e-10
6.35333e-10
5.91002e-10
5.4928e-10
5.10055e-10
4.73213e-10
4.3864e-10
4.06222e-10
3.75847e-10
3.47403e-10
3.20785e-10
2.95889e-10
2.72614e-10
2.50867e-10
2.30558e-10
2.116e-10
1.93913e-10
1.77422e-10
1.62055e-10
1.47748e-10
1.34437e-10
1.22067e-10
1.10584e-10
9.99388e-11
9.00849e-11
8.09795e-11
7.25827e-11
6.48568e-11
5.7766e-11
5.12767e-11
4.53566e-11
3.99747e-11
3.51009e-11
3.0706e-11
2.67616e-11
2.32395e-11
2.01123e-11
1.73527e-11
1.49339e-11
1.28296e-11
1.10137e-11
9.46067e-12
8.14552e-12
7.04389e-12
6.13214e-12
5.38749e-12
4.78805e-12
4.31299e-12
3.94265e-12
3.65858e-12
3.44371e-12
3.28242e-12
3.1606e-12
3.06578e-12
2.98714e-12
2.91556e-12
2.84362e-12
2.76561e-12
2.67743e-12
2.57652e-12
2.46172e-12
2.33314e-12
2.19189e-12
2.03999e-12
1.88001e-12
1.71497e-12
1.54804e-12
1.38236e-12
1.22091e-12
1.06632e-12
9.20779e-13
7.86011e-13
6.63205e-13
5.53042e-13
4.55734e-13
3.71073e-13
2.9851e-13
2.37228e-13
1.86226e-13
1.44391e-13
1.10568e-13
8.36114e-14
6.24331e-14
4.60298e-14
3.35044e-14
2.4075e-14
1.70763e-14
1.1955e-14
8.26009e-15
5.63179e-15
3.78828e-15
2.51292e-15
1.64205e-15
1.05399e-15
6.59349e-16
3.92907e-16
2.06699e-16
6.42707e-17
2.0028e-13
6.02952e-13
1.01202e-12
1.43189e-12
1.86706e-12
2.3222e-12
2.80219e-12
3.31212e-12
3.85739e-12
4.44375e-12
5.07732e-12
5.76471e-12
6.51301e-12
7.32989e-12
8.22369e-12
9.20342e-12
1.02789e-11
1.14609e-11
1.27609e-11
1.41918e-11
1.57673e-11
1.75025e-11
1.9414e-11
2.15195e-11
2.38389e-11
2.63932e-11
2.92057e-11
3.23017e-11
3.57085e-11
3.94561e-11
4.35766e-11
4.81052e-11
5.30799e-11
5.85418e-11
6.45353e-11
7.11084e-11
7.83128e-11
8.62043e-11
9.48427e-11
1.04293e-10
1.14623e-10
1.25907e-10
1.38225e-10
1.5166e-10
1.66303e-10
1.82249e-10
1.996e-10
2.18462e-10
2.3895e-10
2.61183e-10
2.85288e-10
3.11396e-10
3.39646e-10
3.70182e-10
4.03155e-10
4.3872e-10
4.7704e-10
5.18279e-10
5.62608e-10
6.10202e-10
6.61236e-10
7.1589e-10
7.74342e-10
8.36774e-10
9.03362e-10
9.74282e-10
1.0497e-09
1.12979e-09
1.2147e-09
1.30458e-09
1.39956e-09
1.49976e-09
1.60528e-09
1.71621e-09
1.83259e-09
1.95448e-09
2.08186e-09
2.21472e-09
2.35301e-09
2.49662e-09
2.64542e-09
2.79924e-09
2.95787e-09
3.12104e-09
3.28844e-09
3.45972e-09
3.63446e-09
3.81222e-09
3.99248e-09
4.17468e-09
4.35824e-09
4.54248e-09
4.72672e-09
4.91023e-09
5.09222e-09
5.27189e-09
5.4484e-09
5.6209e-09
5.78852e-09
5.95037e-09
6.10557e-09
6.25324e-09
6.39252e-09
6.52257e-09
6.64258e-09
6.75179e-09
6.84947e-09
6.93497e-09
7.00769e-09
7.0671e-09
7.11276e-09
7.1443e-09
7.16146e-09
7.16407e-09
7.15203e-09
7.12538e-09
7.08423e-09
7.02879e-09
6.9594e-09
6.87644e-09
6.78043e-09
6.67195e-09
6.55167e-09
6.42031e-09
6.27868e-09
6.12763e-09
5.96806e-09
5.80089e-09
5.6271e-09
5.44764e-09
5.2635e-09
5.07566e-09
4.88507e-09
4.69268e-09
4.4994e-09
4.30609e-09
4.11358e-09
3.92265e-09
3.73403e-09
3.54837e-09
3.36629e-09
3.18832e-09
3.01493e-09
2.84655e-09
2.68352e-09
2.52612e-09
2.37459e-09
2.22909e-09
2.08974e-09
1.95661e-09
1.82972e-09
1.70904e-09
1.59451e-09
1.48603e-09
1.38349e-09
1.28673e-09
1.19558e-09
1.10985e-09
1.02934e-09
9.53823e-10
8.83092e-10
8.16917e-10
7.55069e-10
6.97321e-10
6.4345e-10
5.93234e-10
5.46458e-10
5.02915e-10
4.62403e-10
4.24732e-10
3.89719e-10
3.57191e-10
3.26984e-10
2.98946e-10
2.72933e-10
2.48811e-10
2.26455e-10
2.05749e-10
1.86585e-10
1.68865e-10
1.52496e-10
1.37394e-10
1.2348e-10
1.1068e-10
9.89281e-11
8.81602e-11
7.83176e-11
6.93449e-11
6.11895e-11
5.38019e-11
4.71344e-11
4.11416e-11
3.57794e-11
3.10053e-11
2.6778e-11
2.30572e-11
1.98038e-11
1.69796e-11
1.45474e-11
1.24712e-11
1.07158e-11
9.24757e-12
8.03382e-12
7.04339e-12
6.24654e-12
5.61516e-12
5.1228e-12
4.74483e-12
4.45853e-12
4.24319e-12
4.08021e-12
3.95315e-12
3.84783e-12
3.75231e-12
3.65691e-12
3.55417e-12
3.43875e-12
3.30732e-12
3.15836e-12
2.99197e-12
2.8096e-12
2.61379e-12
2.40786e-12
2.19564e-12
1.9812e-12
1.76854e-12
1.56146e-12
1.3633e-12
1.17686e-12
1.00431e-12
8.47146e-13
7.06231e-13
5.81811e-13
4.73605e-13
3.80896e-13
3.02627e-13
2.37509e-13
1.84113e-13
1.40955e-13
1.06568e-13
7.95596e-14
5.86457e-14
4.26797e-14
3.06628e-14
2.17456e-14
1.52216e-14
1.05156e-14
7.16866e-15
4.82147e-15
3.1979e-15
2.08943e-15
1.34102e-15
8.38838e-16
4.9983e-16
2.62936e-16
8.1755e-17
3.56036e-13
1.07191e-12
1.79931e-12
2.54615e-12
3.32055e-12
4.13093e-12
4.98606e-12
5.89514e-12
6.86793e-12
7.9148e-12
9.04684e-12
1.0276e-11
1.16151e-11
1.30781e-11
1.46802e-11
1.64376e-11
1.83683e-11
2.04917e-11
2.28291e-11
2.54036e-11
2.82404e-11
3.13672e-11
3.4814e-11
3.86137e-11
4.2802e-11
4.7418e-11
5.25042e-11
5.8107e-11
6.42766e-11
7.10679e-11
7.85403e-11
8.67584e-11
9.57921e-11
1.05717e-10
1.16616e-10
1.28576e-10
1.41693e-10
1.56071e-10
1.7182e-10
1.89059e-10
2.07916e-10
2.28527e-10
2.5104e-10
2.7561e-10
3.02403e-10
3.31598e-10
3.63382e-10
3.97954e-10
4.35526e-10
4.76319e-10
5.20568e-10
5.68517e-10
6.20425e-10
6.76558e-10
7.37196e-10
8.02628e-10
8.73153e-10
9.49079e-10
1.03072e-09
1.1184e-09
1.21244e-09
1.31318e-09
1.42094e-09
1.53605e-09
1.65885e-09
1.78965e-09
1.92875e-09
2.07647e-09
2.23308e-09
2.39883e-09
2.57397e-09
2.75871e-09
2.9532e-09
3.1576e-09
3.37198e-09
3.59639e-09
3.83082e-09
4.07519e-09
4.32936e-09
4.59313e-09
4.86622e-09
5.14826e-09
5.43881e-09
5.73734e-09
6.04323e-09
6.35578e-09
6.67416e-09
6.99749e-09
7.32478e-09
7.65493e-09
7.98678e-09
8.31907e-09
8.65046e-09
8.97954e-09
9.30483e-09
9.6248e-09
9.93786e-09
1.02424e-08
1.05368e-08
1.08194e-08
1.10886e-08
1.13427e-08
1.15802e-08
1.17996e-08
1.19994e-08
1.21782e-08
1.23349e-08
1.24681e-08
1.25771e-08
1.26608e-08
1.27187e-08
1.27501e-08
1.27548e-08
1.27324e-08
1.26832e-08
1.26072e-08
1.25049e-08
1.23769e-08
1.22238e-08
1.20467e-08
1.18466e-08
1.16249e-08
1.13827e-08
1.11218e-08
1.08436e-08
1.05498e-08
1.02423e-08
9.92285e-09
9.59322e-09
9.2553e-09
8.91091e-09
8.56188e-09
8.20996e-09
7.85686e-09
7.50421e-09
7.15354e-09
6.80632e-09
6.46388e-09
6.12744e-09
5.79812e-09
5.4769e-09
5.16464e-09
4.86209e-09
4.56987e-09
4.28846e-09
4.01827e-09
3.75957e-09
3.51254e-09
3.27725e-09
3.0537e-09
2.84181e-09
2.64142e-09
2.45231e-09
2.27421e-09
2.10681e-09
1.94975e-09
1.80264e-09
1.66508e-09
1.53664e-09
1.41688e-09
1.30535e-09
1.20162e-09
1.10525e-09
1.0158e-09
9.32845e-10
8.55977e-10
7.84801e-10
7.18937e-10
6.58022e-10
6.01713e-10
5.49685e-10
5.01633e-10
4.57272e-10
4.16333e-10
3.78567e-10
3.43746e-10
3.11653e-10
2.82093e-10
2.54884e-10
2.29857e-10
2.06858e-10
1.85747e-10
1.66392e-10
1.48673e-10
1.3248e-10
1.1771e-10
1.04268e-10
9.20653e-11
8.10188e-11
7.10508e-11
6.20879e-11
5.40602e-11
4.69014e-11
4.0548e-11
3.49392e-11
3.00165e-11
2.57235e-11
2.20061e-11
1.8812e-11
1.60909e-11
1.37946e-11
1.18769e-11
1.02938e-11
9.0032e-12
7.96557e-12
7.14359e-12
6.50244e-12
6.00983e-12
5.63614e-12
5.35451e-12
5.14088e-12
4.97409e-12
4.83592e-12
4.7111e-12
4.58727e-12
4.45491e-12
4.30723e-12
4.13998e-12
3.95122e-12
3.74104e-12
3.51123e-12
3.26495e-12
3.00635e-12
2.74019e-12
2.47152e-12
2.20535e-12
1.94636e-12
1.69872e-12
1.46588e-12
1.25051e-12
1.05447e-12
8.78783e-13
7.23737e-13
5.88958e-13
4.7353e-13
3.76122e-13
2.9511e-13
2.28705e-13
1.75051e-13
1.32315e-13
9.87591e-14
7.27825e-14
5.2957e-14
3.80391e-14
2.69717e-14
1.88765e-14
1.30384e-14
8.88715e-15
5.97642e-15
3.96341e-15
2.58928e-15
1.66164e-15
1.0393e-15
6.19225e-16
3.25726e-16
1.01275e-16
6.22691e-13
1.87482e-12
3.14737e-12
4.45437e-12
5.81023e-12
7.22986e-12
8.72883e-12
1.03235e-11
1.20312e-11
1.38703e-11
1.58607e-11
1.80235e-11
2.03818e-11
2.29604e-11
2.57862e-11
2.88887e-11
3.22998e-11
3.60543e-11
4.01904e-11
4.47495e-11
4.97771e-11
5.53227e-11
6.14404e-11
6.81895e-11
7.56345e-11
8.38457e-11
9.28999e-11
1.02881e-10
1.1388e-10
1.25995e-10
1.39335e-10
1.54017e-10
1.70167e-10
1.87923e-10
2.07434e-10
2.2886e-10
2.52376e-10
2.78168e-10
3.06439e-10
3.37405e-10
3.71299e-10
4.0837e-10
4.48886e-10
4.93133e-10
5.41413e-10
5.94052e-10
6.51394e-10
7.13802e-10
7.81662e-10
8.55382e-10
9.35389e-10
1.02213e-09
1.11608e-09
1.21773e-09
1.32759e-09
1.44619e-09
1.57407e-09
1.7118e-09
1.85995e-09
2.01912e-09
2.18989e-09
2.37287e-09
2.56867e-09
2.77787e-09
3.00108e-09
3.23888e-09
3.49181e-09
3.76043e-09
4.04522e-09
4.34666e-09
4.66515e-09
5.00105e-09
5.35466e-09
5.72619e-09
6.11578e-09
6.52347e-09
6.94919e-09
7.39276e-09
7.8539e-09
8.33215e-09
8.82696e-09
9.3376e-09
9.8632e-09
1.04027e-08
1.09549e-08
1.15184e-08
1.20917e-08
1.26731e-08
1.32605e-08
1.38521e-08
1.44455e-08
1.50383e-08
1.56281e-08
1.62122e-08
1.67877e-08
1.73519e-08
1.79018e-08
1.84344e-08
1.89467e-08
1.94357e-08
1.98984e-08
2.03318e-08
2.07332e-08
2.10997e-08
2.1429e-08
2.17185e-08
2.19661e-08
2.21698e-08
2.23281e-08
2.24395e-08
2.2503e-08
2.25179e-08
2.24837e-08
2.24004e-08
2.22683e-08
2.20881e-08
2.18607e-08
2.15876e-08
2.12704e-08
2.0911e-08
2.05118e-08
2.00753e-08
1.96042e-08
1.91016e-08
1.85705e-08
1.80142e-08
1.7436e-08
1.68394e-08
1.62278e-08
1.56046e-08
1.49732e-08
1.43369e-08
1.36988e-08
1.3062e-08
1.24293e-08
1.18034e-08
1.11868e-08
1.05818e-08
9.99046e-09
9.41451e-09
8.85556e-09
8.31495e-09
7.79379e-09
7.29297e-09
6.81317e-09
6.35483e-09
5.91826e-09
5.50353e-09
5.11059e-09
4.73922e-09
4.38908e-09
4.05972e-09
3.75057e-09
3.46101e-09
3.19033e-09
2.93776e-09
2.70252e-09
2.48377e-09
2.28067e-09
2.09238e-09
1.91803e-09
1.75681e-09
1.60788e-09
1.47045e-09
1.34374e-09
1.22702e-09
1.11957e-09
1.02073e-09
9.29852e-10
8.4634e-10
7.6963e-10
6.99198e-10
6.34554e-10
5.75243e-10
5.20847e-10
4.70976e-10
4.25275e-10
3.83415e-10
3.45095e-10
3.10039e-10
2.77997e-10
2.48737e-10
2.22047e-10
1.97735e-10
1.75624e-10
1.5555e-10
1.37363e-10
1.20926e-10
1.06109e-10
9.27927e-11
8.08658e-11
7.02234e-11
6.07666e-11
5.24022e-11
4.50417e-11
3.8601e-11
3.30003e-11
2.81632e-11
2.40172e-11
2.0493e-11
1.75249e-11
1.50505e-11
1.30107e-11
1.13498e-11
1.00154e-11
8.95862e-12
8.13417e-12
7.50022e-12
7.01862e-12
6.65492e-12
6.37844e-12
6.16227e-12
5.98335e-12
5.82237e-12
5.66377e-12
5.4956e-12
5.30932e-12
5.09958e-12
4.86394e-12
4.60244e-12
4.31729e-12
4.01234e-12
3.69267e-12
3.36411e-12
3.03286e-12
2.70503e-12
2.38633e-12
2.08184e-12
1.79577e-12
1.53134e-12
1.29079e-12
1.07534e-12
8.85306e-13
7.20197e-13
5.78861e-13
4.59642e-13
3.60533e-13
2.79327e-13
2.13738e-13
1.61515e-13
1.20523e-13
8.88006e-14
6.45971e-14
4.63901e-14
3.28863e-14
2.30114e-14
1.58916e-14
1.08301e-14
7.28183e-15
4.82841e-15
3.15395e-15
2.02377e-15
1.26565e-15
7.54027e-16
3.9661e-16
1.23311e-16
1.07187e-12
3.22738e-12
5.41853e-12
7.6698e-12
1.00063e-11
1.24542e-11
1.50405e-11
1.77939e-11
2.07447e-11
2.39252e-11
2.73701e-11
3.11167e-11
3.52052e-11
3.96794e-11
4.45867e-11
4.99788e-11
5.59122e-11
6.24482e-11
6.96542e-11
7.76036e-11
8.63766e-11
9.60612e-11
1.06753e-10
1.18557e-10
1.31589e-10
1.45972e-10
1.61844e-10
1.79353e-10
1.98662e-10
2.19948e-10
2.43401e-10
2.69233e-10
2.97668e-10
3.28953e-10
3.63354e-10
4.01159e-10
4.4268e-10
4.88252e-10
5.38237e-10
5.93025e-10
6.53034e-10
7.18713e-10
7.90542e-10
8.69036e-10
9.54741e-10
1.04824e-09
1.15016e-09
1.26115e-09
1.38191e-09
1.51317e-09
1.65571e-09
1.81033e-09
1.9779e-09
2.15928e-09
2.35542e-09
2.56726e-09
2.7958e-09
3.04204e-09
3.30703e-09
3.59184e-09
3.89753e-09
4.2252e-09
4.57592e-09
4.95079e-09
5.35085e-09
5.77715e-09
6.23069e-09
6.71242e-09
7.22323e-09
7.76395e-09
8.33528e-09
8.93786e-09
9.57217e-09
1.02386e-08
1.09373e-08
1.16683e-08
1.24314e-08
1.32263e-08
1.40523e-08
1.49086e-08
1.57941e-08
1.67073e-08
1.76466e-08
1.86099e-08
1.95951e-08
2.05994e-08
2.16199e-08
2.26534e-08
2.36963e-08
2.47448e-08
2.57946e-08
2.68414e-08
2.78805e-08
2.89068e-08
2.99155e-08
3.0901e-08
3.18582e-08
3.27815e-08
3.36654e-08
3.45044e-08
3.52933e-08
3.60267e-08
3.66996e-08
3.73073e-08
3.78451e-08
3.83091e-08
3.86955e-08
3.9001e-08
3.92231e-08
3.93594e-08
3.94085e-08
3.93694e-08
3.92419e-08
3.90261e-08
3.87232e-08
3.83348e-08
3.78632e-08
3.73112e-08
3.66824e-08
3.59807e-08
3.52108e-08
3.43775e-08
3.34862e-08
3.25427e-08
3.15527e-08
3.05226e-08
2.94584e-08
2.83666e-08
2.72533e-08
2.61249e-08
2.49874e-08
2.38466e-08
2.27082e-08
2.15773e-08
2.04592e-08
1.93582e-08
1.82786e-08
1.72241e-08
1.61982e-08
1.52036e-08
1.42429e-08
1.3318e-08
1.24306e-08
1.15819e-08
1.07727e-08
1.00034e-08
9.27418e-09
8.58485e-09
7.93497e-09
7.32384e-09
6.75056e-09
6.21404e-09
5.71305e-09
5.24623e-09
4.81214e-09
4.40925e-09
4.036e-09
3.69079e-09
3.37203e-09
3.07812e-09
2.80749e-09
2.55863e-09
2.33003e-09
2.12027e-09
1.92798e-09
1.75186e-09
1.59066e-09
1.44322e-09
1.30844e-09
1.18531e-09
1.07285e-09
9.70202e-10
8.76528e-10
7.91078e-10
7.13154e-10
6.4212e-10
5.77391e-10
5.18433e-10
4.64758e-10
4.15922e-10
3.71522e-10
3.3119e-10
2.9459e-10
2.61418e-10
2.31396e-10
2.0427e-10
1.79809e-10
1.57799e-10
1.38044e-10
1.20365e-10
1.04594e-10
9.05756e-11
7.81646e-11
6.72258e-11
5.7632e-11
4.92637e-11
4.20081e-11
3.57592e-11
3.04168e-11
2.58863e-11
2.20788e-11
1.89104e-11
1.63025e-11
1.41816e-11
1.24791e-11
1.11313e-11
1.00797e-11
9.27049e-12
8.6549e-12
8.18912e-12
7.8343e-12
7.55654e-12
7.32685e-12
7.12106e-12
6.91975e-12
6.70801e-12
6.47522e-12
6.21472e-12
5.92342e-12
5.60135e-12
5.25112e-12
4.8774e-12
4.48635e-12
4.08504e-12
3.68095e-12
3.28147e-12
2.89351e-12
2.52317e-12
2.1755e-12
1.85438e-12
1.56245e-12
1.30115e-12
1.0708e-12
8.7078e-13
6.99647e-13
5.55363e-13
4.35474e-13
3.37282e-13
2.58007e-13
1.94913e-13
1.45405e-13
1.07105e-13
7.78934e-14
5.59256e-14
3.96372e-14
2.77294e-14
1.9146e-14
1.30455e-14
8.76992e-15
5.8142e-15
3.79732e-15
2.43626e-15
1.52345e-15
9.07527e-16
4.77316e-16
1.48398e-16
1.81632e-12
5.46919e-12
9.18332e-12
1.30007e-11
1.69647e-11
2.11199e-11
2.55132e-11
3.01938e-11
3.5214e-11
4.06294e-11
4.65e-11
5.28901e-11
5.98696e-11
6.7514e-11
7.59056e-11
8.51341e-11
9.52973e-11
1.06502e-10
1.18866e-10
1.32516e-10
1.47593e-10
1.64249e-10
1.82652e-10
2.02986e-10
2.25451e-10
2.50266e-10
2.7767e-10
3.07924e-10
3.41313e-10
3.78147e-10
4.18764e-10
4.63531e-10
5.12848e-10
5.67147e-10
6.26898e-10
6.92609e-10
7.64831e-10
8.44156e-10
9.31225e-10
1.02673e-09
1.1314e-09
1.24605e-09
1.37151e-09
1.50871e-09
1.65862e-09
1.82227e-09
2.00076e-09
2.19527e-09
2.40703e-09
2.63735e-09
2.88761e-09
3.15925e-09
3.45379e-09
3.77282e-09
4.11797e-09
4.49096e-09
4.89354e-09
5.32754e-09
5.79481e-09
6.29724e-09
6.83675e-09
7.41528e-09
8.03476e-09
8.69712e-09
9.40424e-09
1.0158e-08
1.09601e-08
1.18123e-08
1.27161e-08
1.3673e-08
1.46842e-08
1.57508e-08
1.68736e-08
1.80533e-08
1.929e-08
2.05839e-08
2.19344e-08
2.33408e-08
2.48019e-08
2.63161e-08
2.78812e-08
2.94947e-08
3.11532e-08
3.28531e-08
3.45902e-08
3.63596e-08
3.81558e-08
3.99729e-08
4.18042e-08
4.36428e-08
4.54809e-08
4.73104e-08
4.91228e-08
5.09092e-08
5.26602e-08
5.43662e-08
5.60177e-08
5.76047e-08
5.91174e-08
6.0546e-08
6.1881e-08
6.31131e-08
6.42334e-08
6.52336e-08
6.61058e-08
6.68431e-08
6.74391e-08
6.78886e-08
6.81871e-08
6.83314e-08
6.83192e-08
6.81493e-08
6.78221e-08
6.73386e-08
6.67015e-08
6.59144e-08
6.4982e-08
6.39103e-08
6.27063e-08
6.13777e-08
5.99333e-08
5.83825e-08
5.67355e-08
5.5003e-08
5.31958e-08
5.13253e-08
4.9403e-08
4.74402e-08
4.54483e-08
4.34383e-08
4.14209e-08
3.94066e-08
3.74049e-08
3.54252e-08
3.34757e-08
3.15643e-08
2.96979e-08
2.78827e-08
2.61241e-08
2.44265e-08
2.27937e-08
2.12287e-08
1.97337e-08
1.83102e-08
1.69589e-08
1.56802e-08