/*--------------------------------*- C++ -*----------------------------------*\
| =========                 |                                                 |
| \\      /  F ield         | OpenFOAM: The Open Source CFD Toolbox           |
|  \\    /   O peration     | Version:  v2012                                 |
|   \\  /    A nd           | Website:  www.openfoam.com                      |
|    \\/     M anipulation  |                                                 |
\*---------------------------------------------------------------------------*/
FoamFile
{
    version     2.0;
    format      ascii;
    class       volVectorField;
    location    "12.7";
    object      Psi;
}
// * * * * * * * * * * * * * * * * * * * * * * * * * * * * * * * * * * * * * //

dimensions      [0 2 -1 0 0 0 0];


internalField   nonuniform List<vector> 
65536
(
(0 0 8.85951e-06)
(0 0 2.6579e-05)
(0 0 4.42998e-05)
(0 0 6.20228e-05)
(0 0 7.97489e-05)
(0 0 9.74788e-05)
(0 0 0.000115214)
(0 0 0.000132954)
(0 0 0.0001507)
(0 0 0.000168454)
(0 0 0.000186216)
(0 0 0.000203986)
(0 0 0.000221765)
(0 0 0.000239555)
(0 0 0.000257355)
(0 0 0.000275166)
(0 0 0.000292988)
(0 0 0.000310823)
(0 0 0.00032867)
(0 0 0.00034653)
(0 0 0.000364403)
(0 0 0.000382289)
(0 0 0.000400189)
(0 0 0.000418102)
(0 0 0.000436029)
(0 0 0.000453969)
(0 0 0.000471923)
(0 0 0.00048989)
(0 0 0.000507869)
(0 0 0.000525861)
(0 0 0.000543864)
(0 0 0.000561878)
(0 0 0.000579903)
(0 0 0.000597937)
(0 0 0.00061598)
(0 0 0.00063403)
(0 0 0.000652086)
(0 0 0.000670147)
(0 0 0.000688211)
(0 0 0.000706277)
(0 0 0.000724343)
(0 0 0.000742407)
(0 0 0.000760467)
(0 0 0.000778521)
(0 0 0.000796566)
(0 0 0.000814601)
(0 0 0.000832621)
(0 0 0.000850625)
(0 0 0.00086861)
(0 0 0.000886571)
(0 0 0.000904507)
(0 0 0.000922413)
(0 0 0.000940286)
(0 0 0.000958122)
(0 0 0.000975917)
(0 0 0.000993667)
(0 0 0.00101137)
(0 0 0.00102901)
(0 0 0.0010466)
(0 0 0.00106412)
(0 0 0.00108158)
(0 0 0.00109896)
(0 0 0.00111625)
(0 0 0.00113347)
(0 0 0.00115059)
(0 0 0.00116762)
(0 0 0.00118454)
(0 0 0.00120135)
(0 0 0.00121805)
(0 0 0.00123462)
(0 0 0.00125107)
(0 0 0.00126737)
(0 0 0.00128354)
(0 0 0.00129955)
(0 0 0.00131541)
(0 0 0.0013311)
(0 0 0.00134662)
(0 0 0.00136195)
(0 0 0.0013771)
(0 0 0.00139205)
(0 0 0.0014068)
(0 0 0.00142134)
(0 0 0.00143566)
(0 0 0.00144975)
(0 0 0.0014636)
(0 0 0.00147721)
(0 0 0.00149057)
(0 0 0.00150367)
(0 0 0.00151651)
(0 0 0.00152907)
(0 0 0.00154134)
(0 0 0.00155333)
(0 0 0.00156501)
(0 0 0.00157639)
(0 0 0.00158746)
(0 0 0.00159821)
(0 0 0.00160863)
(0 0 0.00161872)
(0 0 0.00162846)
(0 0 0.00163786)
(0 0 0.00164691)
(0 0 0.00165559)
(0 0 0.00166391)
(0 0 0.00167186)
(0 0 0.00167943)
(0 0 0.00168663)
(0 0 0.00169343)
(0 0 0.00169985)
(0 0 0.00170587)
(0 0 0.00171149)
(0 0 0.00171671)
(0 0 0.00172153)
(0 0 0.00172593)
(0 0 0.00172993)
(0 0 0.00173352)
(0 0 0.00173669)
(0 0 0.00173944)
(0 0 0.00174178)
(0 0 0.0017437)
(0 0 0.00174521)
(0 0 0.00174629)
(0 0 0.00174696)
(0 0 0.00174721)
(0 0 0.00174705)
(0 0 0.00174647)
(0 0 0.00174549)
(0 0 0.00174409)
(0 0 0.00174228)
(0 0 0.00174007)
(0 0 0.00173746)
(0 0 0.00173445)
(0 0 0.00173104)
(0 0 0.00172725)
(0 0 0.00172306)
(0 0 0.0017185)
(0 0 0.00171356)
(0 0 0.00170824)
(0 0 0.00170256)
(0 0 0.00169652)
(0 0 0.00169013)
(0 0 0.00168338)
(0 0 0.00167629)
(0 0 0.00166886)
(0 0 0.0016611)
(0 0 0.00165302)
(0 0 0.00164462)
(0 0 0.00163591)
(0 0 0.00162689)
(0 0 0.00161757)
(0 0 0.00160797)
(0 0 0.00159808)
(0 0 0.00158792)
(0 0 0.00157748)
(0 0 0.00156679)
(0 0 0.00155584)
(0 0 0.00154464)
(0 0 0.0015332)
(0 0 0.00152153)
(0 0 0.00150963)
(0 0 0.00149752)
(0 0 0.00148519)
(0 0 0.00147266)
(0 0 0.00145993)
(0 0 0.00144701)
(0 0 0.00143391)
(0 0 0.00142063)
(0 0 0.00140717)
(0 0 0.00139356)
(0 0 0.00137979)
(0 0 0.00136587)
(0 0 0.0013518)
(0 0 0.00133759)
(0 0 0.00132325)
(0 0 0.00130879)
(0 0 0.0012942)
(0 0 0.0012795)
(0 0 0.00126469)
(0 0 0.00124978)
(0 0 0.00123477)
(0 0 0.00121966)
(0 0 0.00120447)
(0 0 0.00118919)
(0 0 0.00117383)
(0 0 0.0011584)
(0 0 0.0011429)
(0 0 0.00112733)
(0 0 0.0011117)
(0 0 0.00109602)
(0 0 0.00108028)
(0 0 0.00106449)
(0 0 0.00104866)
(0 0 0.00103278)
(0 0 0.00101686)
(0 0 0.00100091)
(0 0 0.000984925)
(0 0 0.00096891)
(0 0 0.000952869)
(0 0 0.000936803)
(0 0 0.000920716)
(0 0 0.00090461)
(0 0 0.000888487)
(0 0 0.00087235)
(0 0 0.000856201)
(0 0 0.000840042)
(0 0 0.000823874)
(0 0 0.000807701)
(0 0 0.000791522)
(0 0 0.000775341)
(0 0 0.000759158)
(0 0 0.000742975)
(0 0 0.000726793)
(0 0 0.000710614)
(0 0 0.000694439)
(0 0 0.000678269)
(0 0 0.000662104)
(0 0 0.000645946)
(0 0 0.000629795)
(0 0 0.000613653)
(0 0 0.00059752)
(0 0 0.000581396)
(0 0 0.000565282)
(0 0 0.000549179)
(0 0 0.000533087)
(0 0 0.000517006)
(0 0 0.000500937)
(0 0 0.00048488)
(0 0 0.000468834)
(0 0 0.000452801)
(0 0 0.000436779)
(0 0 0.00042077)
(0 0 0.000404773)
(0 0 0.000388788)
(0 0 0.000372815)
(0 0 0.000356854)
(0 0 0.000340904)
(0 0 0.000324965)
(0 0 0.000309037)
(0 0 0.00029312)
(0 0 0.000277213)
(0 0 0.000261316)
(0 0 0.000245429)
(0 0 0.00022955)
(0 0 0.00021368)
(0 0 0.000197819)
(0 0 0.000181964)
(0 0 0.000166117)
(0 0 0.000150277)
(0 0 0.000134442)
(0 0 0.000118612)
(0 0 0.000102788)
(0 0 8.69671e-05)
(0 0 7.11501e-05)
(0 0 5.5336e-05)
(0 0 3.95241e-05)
(0 0 2.37138e-05)
(0 0 7.9045e-06)
(0 0 2.65782e-05)
(0 0 7.97359e-05)
(0 0 0.000132898)
(0 0 0.000186066)
(0 0 0.000239243)
(0 0 0.000292432)
(0 0 0.000345635)
(0 0 0.000398855)
(0 0 0.000452095)
(0 0 0.000505355)
(0 0 0.000558639)
(0 0 0.000611949)
(0 0 0.000665287)
(0 0 0.000718654)
(0 0 0.000772054)
(0 0 0.000825486)
(0 0 0.000878953)
(0 0 0.000932457)
(0 0 0.000985998)
(0 0 0.00103958)
(0 0 0.0010932)
(0 0 0.00114686)
(0 0 0.00120055)
(0 0 0.00125429)
(0 0 0.00130808)
(0 0 0.0013619)
(0 0 0.00141576)
(0 0 0.00146966)
(0 0 0.0015236)
(0 0 0.00157757)
(0 0 0.00163158)
(0 0 0.00168563)
(0 0 0.0017397)
(0 0 0.00179381)
(0 0 0.00184793)
(0 0 0.00190209)
(0 0 0.00195626)
(0 0 0.00201044)
(0 0 0.00206463)
(0 0 0.00211883)
(0 0 0.00217303)
(0 0 0.00222723)
(0 0 0.00228141)
(0 0 0.00233557)
(0 0 0.00238971)
(0 0 0.00244382)
(0 0 0.00249788)
(0 0 0.0025519)
(0 0 0.00260585)
(0 0 0.00265974)
(0 0 0.00271355)
(0 0 0.00276727)
(0 0 0.0028209)
(0 0 0.00287441)
(0 0 0.0029278)
(0 0 0.00298105)
(0 0 0.00303416)
(0 0 0.0030871)
(0 0 0.00313986)
(0 0 0.00319244)
(0 0 0.0032448)
(0 0 0.00329695)
(0 0 0.00334885)
(0 0 0.0034005)
(0 0 0.00345187)
(0 0 0.00350296)
(0 0 0.00355373)
(0 0 0.00360418)
(0 0 0.00365427)
(0 0 0.003704)
(0 0 0.00375334)
(0 0 0.00380227)
(0 0 0.00385077)
(0 0 0.00389882)
(0 0 0.00394639)
(0 0 0.00399347)
(0 0 0.00404003)
(0 0 0.00408605)
(0 0 0.0041315)
(0 0 0.00417637)
(0 0 0.00422062)
(0 0 0.00426424)
(0 0 0.0043072)
(0 0 0.00434948)
(0 0 0.00439105)
(0 0 0.0044319)
(0 0 0.00447198)
(0 0 0.00451129)
(0 0 0.0045498)
(0 0 0.00458748)
(0 0 0.00462431)
(0 0 0.00466028)
(0 0 0.00469534)
(0 0 0.00472949)
(0 0 0.00476271)
(0 0 0.00479496)
(0 0 0.00482623)
(0 0 0.00485649)
(0 0 0.00488574)
(0 0 0.00491394)
(0 0 0.00494108)
(0 0 0.00496714)
(0 0 0.00499211)
(0 0 0.00501596)
(0 0 0.00503868)
(0 0 0.00506026)
(0 0 0.00508068)
(0 0 0.00509993)
(0 0 0.005118)
(0 0 0.00513487)
(0 0 0.00515053)
(0 0 0.00516498)
(0 0 0.00517821)
(0 0 0.0051902)
(0 0 0.00520096)
(0 0 0.00521047)
(0 0 0.00521874)
(0 0 0.00522576)
(0 0 0.00523152)
(0 0 0.00523603)
(0 0 0.00523929)
(0 0 0.0052413)
(0 0 0.00524205)
(0 0 0.00524157)
(0 0 0.00523983)
(0 0 0.00523687)
(0 0 0.00523267)
(0 0 0.00522725)
(0 0 0.00522061)
(0 0 0.00521277)
(0 0 0.00520373)
(0 0 0.00519351)
(0 0 0.00518212)
(0 0 0.00516957)
(0 0 0.00515587)
(0 0 0.00514104)
(0 0 0.0051251)
(0 0 0.00510805)
(0 0 0.00508992)
(0 0 0.00507073)
(0 0 0.00505048)
(0 0 0.0050292)
(0 0 0.00500692)
(0 0 0.00498363)
(0 0 0.00495937)
(0 0 0.00493416)
(0 0 0.00490802)
(0 0 0.00488096)
(0 0 0.00485301)
(0 0 0.00482419)
(0 0 0.00479451)
(0 0 0.00476401)
(0 0 0.0047327)
(0 0 0.00470061)
(0 0 0.00466775)
(0 0 0.00463415)
(0 0 0.00459983)
(0 0 0.00456481)
(0 0 0.00452911)
(0 0 0.00449276)
(0 0 0.00445577)
(0 0 0.00441817)
(0 0 0.00437998)
(0 0 0.00434121)
(0 0 0.00430189)
(0 0 0.00426204)
(0 0 0.00422168)
(0 0 0.00418083)
(0 0 0.00413951)
(0 0 0.00409774)
(0 0 0.00405553)
(0 0 0.0040129)
(0 0 0.00396988)
(0 0 0.00392648)
(0 0 0.00388272)
(0 0 0.00383862)
(0 0 0.00379418)
(0 0 0.00374944)
(0 0 0.00370439)
(0 0 0.00365907)
(0 0 0.00361348)
(0 0 0.00356764)
(0 0 0.00352157)
(0 0 0.00347527)
(0 0 0.00342876)
(0 0 0.00338205)
(0 0 0.00333516)
(0 0 0.0032881)
(0 0 0.00324088)
(0 0 0.00319351)
(0 0 0.003146)
(0 0 0.00309837)
(0 0 0.00305062)
(0 0 0.00300276)
(0 0 0.0029548)
(0 0 0.00290675)
(0 0 0.00285863)
(0 0 0.00281043)
(0 0 0.00276216)
(0 0 0.00271384)
(0 0 0.00266547)
(0 0 0.00261706)
(0 0 0.00256861)
(0 0 0.00252013)
(0 0 0.00247163)
(0 0 0.0024231)
(0 0 0.00237457)
(0 0 0.00232602)
(0 0 0.00227747)
(0 0 0.00222892)
(0 0 0.00218038)
(0 0 0.00213184)
(0 0 0.00208331)
(0 0 0.0020348)
(0 0 0.0019863)
(0 0 0.00193783)
(0 0 0.00188938)
(0 0 0.00184095)
(0 0 0.00179255)
(0 0 0.00174418)
(0 0 0.00169583)
(0 0 0.00164752)
(0 0 0.00159925)
(0 0 0.00155101)
(0 0 0.0015028)
(0 0 0.00145463)
(0 0 0.00140649)
(0 0 0.00135839)
(0 0 0.00131032)
(0 0 0.0012623)
(0 0 0.00121431)
(0 0 0.00116635)
(0 0 0.00111843)
(0 0 0.00107055)
(0 0 0.0010227)
(0 0 0.000974882)
(0 0 0.0009271)
(0 0 0.000879349)
(0 0 0.000831628)
(0 0 0.000783938)
(0 0 0.000736276)
(0 0 0.000688641)
(0 0 0.000641032)
(0 0 0.000593448)
(0 0 0.000545886)
(0 0 0.000498345)
(0 0 0.000450823)
(0 0 0.00040332)
(0 0 0.000355832)
(0 0 0.000308359)
(0 0 0.000260898)
(0 0 0.000213447)
(0 0 0.000166006)
(0 0 0.000118571)
(0 0 7.11404e-05)
(0 0 2.37132e-05)
(0 0 4.42955e-05)
(0 0 0.000132889)
(0 0 0.000221489)
(0 0 0.000310099)
(0 0 0.000398726)
(0 0 0.000487371)
(0 0 0.000576041)
(0 0 0.000664738)
(0 0 0.000753467)
(0 0 0.000842232)
(0 0 0.000931037)
(0 0 0.00101988)
(0 0 0.00110878)
(0 0 0.00119772)
(0 0 0.00128672)
(0 0 0.00137577)
(0 0 0.00146488)
(0 0 0.00155405)
(0 0 0.00164329)
(0 0 0.00173259)
(0 0 0.00182195)
(0 0 0.00191138)
(0 0 0.00200088)
(0 0 0.00209045)
(0 0 0.00218008)
(0 0 0.00226978)
(0 0 0.00235955)
(0 0 0.00244939)
(0 0 0.00253929)
(0 0 0.00262925)
(0 0 0.00271927)
(0 0 0.00280934)
(0 0 0.00289947)
(0 0 0.00298965)
(0 0 0.00307987)
(0 0 0.00317012)
(0 0 0.00326041)
(0 0 0.00335072)
(0 0 0.00344105)
(0 0 0.00353139)
(0 0 0.00362173)
(0 0 0.00371206)
(0 0 0.00380237)
(0 0 0.00389265)
(0 0 0.00398289)
(0 0 0.00407308)
(0 0 0.00416319)
(0 0 0.00425323)
(0 0 0.00434316)
(0 0 0.00443299)
(0 0 0.00452269)
(0 0 0.00461224)
(0 0 0.00470162)
(0 0 0.00479082)
(0 0 0.00487982)
(0 0 0.00496859)
(0 0 0.00505711)
(0 0 0.00514536)
(0 0 0.00523332)
(0 0 0.00532096)
(0 0 0.00540825)
(0 0 0.00549518)
(0 0 0.0055817)
(0 0 0.0056678)
(0 0 0.00575345)
(0 0 0.00583861)
(0 0 0.00592325)
(0 0 0.00600735)
(0 0 0.00609086)
(0 0 0.00617376)
(0 0 0.00625602)
(0 0 0.00633759)
(0 0 0.00641845)
(0 0 0.00649856)
(0 0 0.00657787)
(0 0 0.00665636)
(0 0 0.00673398)
(0 0 0.00681071)
(0 0 0.00688649)
(0 0 0.00696129)
(0 0 0.00703508)
(0 0 0.0071078)
(0 0 0.00717943)
(0 0 0.00724992)
(0 0 0.00731923)
(0 0 0.00738733)
(0 0 0.00745417)
(0 0 0.00751971)
(0 0 0.00758392)
(0 0 0.00764674)
(0 0 0.00770816)
(0 0 0.00776812)
(0 0 0.00782659)
(0 0 0.00788353)
(0 0 0.00793891)
(0 0 0.00799269)
(0 0 0.00804482)
(0 0 0.00809529)
(0 0 0.00814405)
(0 0 0.00819108)
(0 0 0.00823633)
(0 0 0.00827979)
(0 0 0.00832142)
(0 0 0.00836119)
(0 0 0.00839908)
(0 0 0.00843506)
(0 0 0.00846911)
(0 0 0.00850121)
(0 0 0.00853133)
(0 0 0.00855946)
(0 0 0.00858557)
(0 0 0.00860966)
(0 0 0.00863171)
(0 0 0.00865171)
(0 0 0.00866965)
(0 0 0.00868551)
(0 0 0.00869929)
(0 0 0.00871099)
(0 0 0.00872059)
(0 0 0.00872811)
(0 0 0.00873354)
(0 0 0.00873688)
(0 0 0.00873814)
(0 0 0.00873732)
(0 0 0.00873443)
(0 0 0.00872948)
(0 0 0.00872247)
(0 0 0.00871343)
(0 0 0.00870236)
(0 0 0.00868928)
(0 0 0.0086742)
(0 0 0.00865716)
(0 0 0.00863815)
(0 0 0.00861722)
(0 0 0.00859438)
(0 0 0.00856965)
(0 0 0.00854305)
(0 0 0.00851463)
(0 0 0.00848439)
(0 0 0.00845238)
(0 0 0.00841862)
(0 0 0.00838313)
(0 0 0.00834596)
(0 0 0.00830714)
(0 0 0.00826668)
(0 0 0.00822464)
(0 0 0.00818104)
(0 0 0.00813592)
(0 0 0.00808932)
(0 0 0.00804126)
(0 0 0.00799178)
(0 0 0.00794092)
(0 0 0.00788871)
(0 0 0.0078352)
(0 0 0.00778041)
(0 0 0.00772439)
(0 0 0.00766716)
(0 0 0.00760877)
(0 0 0.00754925)
(0 0 0.00748864)
(0 0 0.00742697)
(0 0 0.00736427)
(0 0 0.00730059)
(0 0 0.00723596)
(0 0 0.00717041)
(0 0 0.00710397)
(0 0 0.00703669)
(0 0 0.00696858)
(0 0 0.00689969)
(0 0 0.00683004)
(0 0 0.00675967)
(0 0 0.00668862)
(0 0 0.00661689)
(0 0 0.00654454)
(0 0 0.00647159)
(0 0 0.00639806)
(0 0 0.00632398)
(0 0 0.00624939)
(0 0 0.0061743)
(0 0 0.00609875)
(0 0 0.00602275)
(0 0 0.00594633)
(0 0 0.00586952)
(0 0 0.00579234)
(0 0 0.00571482)
(0 0 0.00563696)
(0 0 0.0055588)
(0 0 0.00548035)
(0 0 0.00540163)
(0 0 0.00532267)
(0 0 0.00524348)
(0 0 0.00516408)
(0 0 0.00508448)
(0 0 0.0050047)
(0 0 0.00492477)
(0 0 0.00484468)
(0 0 0.00476446)
(0 0 0.00468412)
(0 0 0.00460367)
(0 0 0.00452313)
(0 0 0.0044425)
(0 0 0.00436181)
(0 0 0.00428105)
(0 0 0.00420025)
(0 0 0.0041194)
(0 0 0.00403852)
(0 0 0.00395762)
(0 0 0.00387671)
(0 0 0.00379578)
(0 0 0.00371486)
(0 0 0.00363395)
(0 0 0.00355305)
(0 0 0.00347217)
(0 0 0.00339131)
(0 0 0.00331048)
(0 0 0.00322969)
(0 0 0.00314893)
(0 0 0.00306822)
(0 0 0.00298755)
(0 0 0.00290693)
(0 0 0.00282636)
(0 0 0.00274584)
(0 0 0.00266538)
(0 0 0.00258497)
(0 0 0.00250462)
(0 0 0.00242433)
(0 0 0.00234411)
(0 0 0.00226394)
(0 0 0.00218383)
(0 0 0.00210379)
(0 0 0.0020238)
(0 0 0.00194388)
(0 0 0.00186401)
(0 0 0.00178421)
(0 0 0.00170446)
(0 0 0.00162477)
(0 0 0.00154513)
(0 0 0.00146555)
(0 0 0.00138601)
(0 0 0.00130653)
(0 0 0.0012271)
(0 0 0.00114771)
(0 0 0.00106836)
(0 0 0.000989054)
(0 0 0.000909786)
(0 0 0.000830553)
(0 0 0.000751352)
(0 0 0.000672181)
(0 0 0.000593037)
(0 0 0.000513917)
(0 0 0.000434818)
(0 0 0.000355736)
(0 0 0.000276668)
(0 0 0.000197612)
(0 0 0.000118564)
(0 0 3.95208e-05)
(0 0 6.20106e-05)
(0 0 0.000186035)
(0 0 0.000310069)
(0 0 0.000434118)
(0 0 0.000558188)
(0 0 0.000682286)
(0 0 0.000806418)
(0 0 0.000930588)
(0 0 0.0010548)
(0 0 0.00117907)
(0 0 0.00130339)
(0 0 0.00142777)
(0 0 0.00155222)
(0 0 0.00167674)
(0 0 0.00180133)
(0 0 0.001926)
(0 0 0.00205075)
(0 0 0.00217559)
(0 0 0.00230051)
(0 0 0.00242553)
(0 0 0.00255064)
(0 0 0.00267584)
(0 0 0.00280114)
(0 0 0.00292653)
(0 0 0.00305202)
(0 0 0.0031776)
(0 0 0.00330328)
(0 0 0.00342905)
(0 0 0.00355491)
(0 0 0.00368086)
(0 0 0.0038069)
(0 0 0.00393301)
(0 0 0.00405919)
(0 0 0.00418545)
(0 0 0.00431176)
(0 0 0.00443813)
(0 0 0.00456454)
(0 0 0.00469099)
(0 0 0.00481746)
(0 0 0.00494395)
(0 0 0.00507043)
(0 0 0.00519691)
(0 0 0.00532336)
(0 0 0.00544977)
(0 0 0.00557612)
(0 0 0.0057024)
(0 0 0.00582858)
(0 0 0.00595465)
(0 0 0.00608059)
(0 0 0.00620637)
(0 0 0.00633197)
(0 0 0.00645736)
(0 0 0.00658253)
(0 0 0.00670743)
(0 0 0.00683206)
(0 0 0.00695637)
(0 0 0.00708033)
(0 0 0.00720392)
(0 0 0.00732709)
(0 0 0.00744982)
(0 0 0.00757207)
(0 0 0.00769381)
(0 0 0.00781498)
(0 0 0.00793556)
(0 0 0.00805551)
(0 0 0.00817477)
(0 0 0.00829332)
(0 0 0.0084111)
(0 0 0.00852807)
(0 0 0.00864418)
(0 0 0.00875938)
(0 0 0.00887364)
(0 0 0.00898689)
(0 0 0.00909908)
(0 0 0.00921018)
(0 0 0.00932011)
(0 0 0.00942884)
(0 0 0.00953631)
(0 0 0.00964246)
(0 0 0.00974724)
(0 0 0.00985059)
(0 0 0.00995246)
(0 0 0.0100528)
(0 0 0.0101515)
(0 0 0.0102486)
(0 0 0.010344)
(0 0 0.0104377)
(0 0 0.0105295)
(0 0 0.0106194)
(0 0 0.0107074)
(0 0 0.0107935)
(0 0 0.0108775)
(0 0 0.0109594)
(0 0 0.0110391)
(0 0 0.0111167)
(0 0 0.0111921)
(0 0 0.0112651)
(0 0 0.0113358)
(0 0 0.0114041)
(0 0 0.01147)
(0 0 0.0115334)
(0 0 0.0115943)
(0 0 0.0116526)
(0 0 0.0117083)
(0 0 0.0117614)
(0 0 0.0118118)
(0 0 0.0118595)
(0 0 0.0119045)
(0 0 0.0119466)
(0 0 0.0119861)
(0 0 0.0120226)
(0 0 0.0120564)
(0 0 0.0120873)
(0 0 0.0121153)
(0 0 0.0121404)
(0 0 0.0121626)
(0 0 0.0121819)
(0 0 0.0121983)
(0 0 0.0122118)
(0 0 0.0122223)
(0 0 0.0122299)
(0 0 0.0122346)
(0 0 0.0122363)
(0 0 0.0122351)
(0 0 0.0122311)
(0 0 0.0122241)
(0 0 0.0122143)
(0 0 0.0122016)
(0 0 0.0121861)
(0 0 0.0121678)
(0 0 0.0121466)
(0 0 0.0121228)
(0 0 0.0120961)
(0 0 0.0120668)
(0 0 0.0120348)
(0 0 0.0120001)
(0 0 0.0119628)
(0 0 0.011923)
(0 0 0.0118806)
(0 0 0.0118358)
(0 0 0.0117885)
(0 0 0.0117388)
(0 0 0.0116867)
(0 0 0.0116323)
(0 0 0.0115756)
(0 0 0.0115167)
(0 0 0.0114556)
(0 0 0.0113924)
(0 0 0.0113271)
(0 0 0.0112597)
(0 0 0.0111904)
(0 0 0.0111192)
(0 0 0.011046)
(0 0 0.0109711)
(0 0 0.0108943)
(0 0 0.0108158)
(0 0 0.0107357)
(0 0 0.0106539)
(0 0 0.0105705)
(0 0 0.0104856)
(0 0 0.0103992)
(0 0 0.0103114)
(0 0 0.0102222)
(0 0 0.0101316)
(0 0 0.0100398)
(0 0 0.00994675)
(0 0 0.00985251)
(0 0 0.00975711)
(0 0 0.00966062)
(0 0 0.00956307)
(0 0 0.00946451)
(0 0 0.00936499)
(0 0 0.00926454)
(0 0 0.0091632)
(0 0 0.00906103)
(0 0 0.00895805)
(0 0 0.0088543)
(0 0 0.00874983)
(0 0 0.00864468)
(0 0 0.00853886)
(0 0 0.00843243)
(0 0 0.00832542)
(0 0 0.00821785)
(0 0 0.00810977)
(0 0 0.0080012)
(0 0 0.00789217)
(0 0 0.00778272)
(0 0 0.00767286)
(0 0 0.00756264)
(0 0 0.00745206)
(0 0 0.00734117)
(0 0 0.00722998)
(0 0 0.00711852)
(0 0 0.00700682)
(0 0 0.00689488)
(0 0 0.00678274)
(0 0 0.00667041)
(0 0 0.00655791)
(0 0 0.00644527)
(0 0 0.00633249)
(0 0 0.0062196)
(0 0 0.00610662)
(0 0 0.00599354)
(0 0 0.0058804)
(0 0 0.0057672)
(0 0 0.00565396)
(0 0 0.00554069)
(0 0 0.0054274)
(0 0 0.0053141)
(0 0 0.0052008)
(0 0 0.00508751)
(0 0 0.00497424)
(0 0 0.004861)
(0 0 0.00474779)
(0 0 0.00463463)
(0 0 0.00452151)
(0 0 0.00440845)
(0 0 0.00429544)
(0 0 0.0041825)
(0 0 0.00406963)
(0 0 0.00395682)
(0 0 0.0038441)
(0 0 0.00373145)
(0 0 0.00361888)
(0 0 0.00350639)
(0 0 0.00339399)
(0 0 0.00328167)
(0 0 0.00316943)
(0 0 0.00305728)
(0 0 0.00294522)
(0 0 0.00283324)
(0 0 0.00272135)
(0 0 0.00260954)
(0 0 0.00249781)
(0 0 0.00238616)
(0 0 0.0022746)
(0 0 0.00216311)
(0 0 0.00205169)
(0 0 0.00194035)
(0 0 0.00182908)
(0 0 0.00171787)
(0 0 0.00160673)
(0 0 0.00149565)
(0 0 0.00138462)
(0 0 0.00127365)
(0 0 0.00116273)
(0 0 0.00105185)
(0 0 0.000941017)
(0 0 0.000830219)
(0 0 0.000719455)
(0 0 0.00060872)
(0 0 0.00049801)
(0 0 0.00038732)
(0 0 0.000276646)
(0 0 0.000165983)
(0 0 5.53269e-05)
(0 0 7.97227e-05)
(0 0 0.000239172)
(0 0 0.000398633)
(0 0 0.000558115)
(0 0 0.000717624)
(0 0 0.000877168)
(0 0 0.00103676)
(0 0 0.00119639)
(0 0 0.00135609)
(0 0 0.00151585)
(0 0 0.00167568)
(0 0 0.0018356)
(0 0 0.00199559)
(0 0 0.00215568)
(0 0 0.00231586)
(0 0 0.00247614)
(0 0 0.00263653)
(0 0 0.00279703)
(0 0 0.00295765)
(0 0 0.00311838)
(0 0 0.00327923)
(0 0 0.0034402)
(0 0 0.0036013)
(0 0 0.00376252)
(0 0 0.00392386)
(0 0 0.00408533)
(0 0 0.00424692)
(0 0 0.00440863)
(0 0 0.00457045)
(0 0 0.0047324)
(0 0 0.00489444)
(0 0 0.0050566)
(0 0 0.00521885)
(0 0 0.00538118)
(0 0 0.0055436)
(0 0 0.00570609)
(0 0 0.00586863)
(0 0 0.00603123)
(0 0 0.00619385)
(0 0 0.0063565)
(0 0 0.00651915)
(0 0 0.00668179)
(0 0 0.00684439)
(0 0 0.00700695)
(0 0 0.00716943)
(0 0 0.00733182)
(0 0 0.00749409)
(0 0 0.00765621)
(0 0 0.00781817)
(0 0 0.00797992)
(0 0 0.00814145)
(0 0 0.00830272)
(0 0 0.00846369)
(0 0 0.00862433)
(0 0 0.00878461)
(0 0 0.00894449)
(0 0 0.00910393)
(0 0 0.00926288)
(0 0 0.00942131)
(0 0 0.00957917)
(0 0 0.00973641)
(0 0 0.00989299)
(0 0 0.0100489)
(0 0 0.010204)
(0 0 0.0103582)
(0 0 0.0105117)
(0 0 0.0106641)
(0 0 0.0108157)
(0 0 0.0109661)
(0 0 0.0111155)
(0 0 0.0112637)
(0 0 0.0114107)
(0 0 0.0115564)
(0 0 0.0117007)
(0 0 0.0118436)
(0 0 0.0119851)
(0 0 0.012125)
(0 0 0.0122632)
(0 0 0.0123998)
(0 0 0.0125346)
(0 0 0.0126676)
(0 0 0.0127987)
(0 0 0.0129278)
(0 0 0.0130548)
(0 0 0.0131797)
(0 0 0.0133025)
(0 0 0.013423)
(0 0 0.0135411)
(0 0 0.0136568)
(0 0 0.0137701)
(0 0 0.0138808)
(0 0 0.0139889)
(0 0 0.0140943)
(0 0 0.0141969)
(0 0 0.0142968)
(0 0 0.0143937)
(0 0 0.0144877)
(0 0 0.0145787)
(0 0 0.0146666)
(0 0 0.0147514)
(0 0 0.014833)
(0 0 0.0149113)
(0 0 0.0149863)
(0 0 0.015058)
(0 0 0.0151264)
(0 0 0.0151912)
(0 0 0.0152526)
(0 0 0.0153105)
(0 0 0.0153648)
(0 0 0.0154155)
(0 0 0.0154625)
(0 0 0.015506)
(0 0 0.0155457)
(0 0 0.0155818)
(0 0 0.0156141)
(0 0 0.0156426)
(0 0 0.0156675)
(0 0 0.0156885)
(0 0 0.0157058)
(0 0 0.0157194)
(0 0 0.0157291)
(0 0 0.0157351)
(0 0 0.0157374)
(0 0 0.0157359)
(0 0 0.0157306)
(0 0 0.0157217)
(0 0 0.015709)
(0 0 0.0156927)
(0 0 0.0156727)
(0 0 0.0156491)
(0 0 0.0156219)
(0 0 0.0155911)
(0 0 0.0155568)
(0 0 0.015519)
(0 0 0.0154778)
(0 0 0.0154332)
(0 0 0.0153852)
(0 0 0.0153339)
(0 0 0.0152794)
(0 0 0.0152216)
(0 0 0.0151607)
(0 0 0.0150967)
(0 0 0.0150297)
(0 0 0.0149597)
(0 0 0.0148867)
(0 0 0.0148109)
(0 0 0.0147323)
(0 0 0.0146509)
(0 0 0.0145669)
(0 0 0.0144802)
(0 0 0.014391)
(0 0 0.0142993)
(0 0 0.0142052)
(0 0 0.0141087)
(0 0 0.0140099)
(0 0 0.0139089)
(0 0 0.0138058)
(0 0 0.0137005)
(0 0 0.0135932)
(0 0 0.013484)
(0 0 0.0133728)
(0 0 0.0132598)
(0 0 0.0131451)
(0 0 0.0130286)
(0 0 0.0129105)
(0 0 0.0127907)
(0 0 0.0126695)
(0 0 0.0125467)
(0 0 0.0124226)
(0 0 0.0122971)
(0 0 0.0121703)
(0 0 0.0120423)
(0 0 0.0119131)
(0 0 0.0117827)
(0 0 0.0116513)
(0 0 0.0115188)
(0 0 0.0113854)
(0 0 0.011251)
(0 0 0.0111157)
(0 0 0.0109796)
(0 0 0.0108427)
(0 0 0.0107051)
(0 0 0.0105667)
(0 0 0.0104277)
(0 0 0.010288)
(0 0 0.0101478)
(0 0 0.010007)
(0 0 0.00986575)
(0 0 0.00972398)
(0 0 0.00958178)
(0 0 0.00943916)
(0 0 0.00929616)
(0 0 0.00915282)
(0 0 0.00900915)
(0 0 0.0088652)
(0 0 0.00872098)
(0 0 0.00857653)
(0 0 0.00843186)
(0 0 0.008287)
(0 0 0.00814198)
(0 0 0.00799681)
(0 0 0.00785151)
(0 0 0.0077061)
(0 0 0.00756061)
(0 0 0.00741505)
(0 0 0.00726943)
(0 0 0.00712378)
(0 0 0.0069781)
(0 0 0.00683241)
(0 0 0.00668673)
(0 0 0.00654106)
(0 0 0.00639541)
(0 0 0.0062498)
(0 0 0.00610424)
(0 0 0.00595873)
(0 0 0.00581328)
(0 0 0.0056679)
(0 0 0.0055226)
(0 0 0.00537738)
(0 0 0.00523225)
(0 0 0.00508722)
(0 0 0.00494228)
(0 0 0.00479744)
(0 0 0.0046527)
(0 0 0.00450807)
(0 0 0.00436355)
(0 0 0.00421914)
(0 0 0.00407484)
(0 0 0.00393064)
(0 0 0.00378656)
(0 0 0.00364259)
(0 0 0.00349873)
(0 0 0.00335498)
(0 0 0.00321133)
(0 0 0.00306779)
(0 0 0.00292435)
(0 0 0.00278101)
(0 0 0.00263777)
(0 0 0.00249462)
(0 0 0.00235156)
(0 0 0.00220858)
(0 0 0.00206569)
(0 0 0.00192288)
(0 0 0.00178014)
(0 0 0.00163747)
(0 0 0.00149486)
(0 0 0.00135231)
(0 0 0.00120981)
(0 0 0.00106737)
(0 0 0.000924964)
(0 0 0.000782598)
(0 0 0.000640264)
(0 0 0.000497956)
(0 0 0.000355668)
(0 0 0.000213395)
(0 0 7.11307e-05)
(0 0 9.74307e-05)
(0 0 0.000292297)
(0 0 0.000487178)
(0 0 0.000682084)
(0 0 0.000877023)
(0 0 0.00107201)
(0 0 0.00126704)
(0 0 0.00146214)
(0 0 0.00165731)
(0 0 0.00185256)
(0 0 0.0020479)
(0 0 0.00224333)
(0 0 0.00243887)
(0 0 0.00263452)
(0 0 0.00283029)
(0 0 0.00302618)
(0 0 0.00322221)
(0 0 0.00341836)
(0 0 0.00361466)
(0 0 0.00381111)
(0 0 0.0040077)
(0 0 0.00420444)
(0 0 0.00440133)
(0 0 0.00459838)
(0 0 0.00479558)
(0 0 0.00499293)
(0 0 0.00519043)
(0 0 0.00538808)
(0 0 0.00558588)
(0 0 0.00578382)
(0 0 0.00598189)
(0 0 0.00618009)
(0 0 0.00637841)
(0 0 0.00657684)
(0 0 0.00677537)
(0 0 0.00697399)
(0 0 0.00717268)
(0 0 0.00737143)
(0 0 0.00757023)
(0 0 0.00776905)
(0 0 0.00796788)
(0 0 0.0081667)
(0 0 0.00836548)
(0 0 0.0085642)
(0 0 0.00876283)
(0 0 0.00896135)
(0 0 0.00915974)
(0 0 0.00935794)
(0 0 0.00955595)
(0 0 0.00975371)
(0 0 0.00995119)
(0 0 0.0101484)
(0 0 0.0103452)
(0 0 0.0105416)
(0 0 0.0107376)
(0 0 0.0109331)
(0 0 0.011128)
(0 0 0.0113224)
(0 0 0.0115161)
(0 0 0.0117091)
(0 0 0.0119014)
(0 0 0.0120929)
(0 0 0.0122835)
(0 0 0.0124732)
(0 0 0.0126618)
(0 0 0.0128495)
(0 0 0.013036)
(0 0 0.0132213)
(0 0 0.0134053)
(0 0 0.013588)
(0 0 0.0137692)
(0 0 0.013949)
(0 0 0.0141272)
(0 0 0.0143038)
(0 0 0.0144786)
(0 0 0.0146516)
(0 0 0.0148227)
(0 0 0.0149918)
(0 0 0.0151589)
(0 0 0.0153238)
(0 0 0.0154865)
(0 0 0.0156468)
(0 0 0.0158048)
(0 0 0.0159602)
(0 0 0.016113)
(0 0 0.0162632)
(0 0 0.0164106)
(0 0 0.0165551)
(0 0 0.0166967)
(0 0 0.0168353)
(0 0 0.0169707)
(0 0 0.017103)
(0 0 0.017232)
(0 0 0.0173576)
(0 0 0.0174797)
(0 0 0.0175983)
(0 0 0.0177133)
(0 0 0.0178246)
(0 0 0.0179322)
(0 0 0.0180359)
(0 0 0.0181358)
(0 0 0.0182316)
(0 0 0.0183235)
(0 0 0.0184112)
(0 0 0.0184948)
(0 0 0.0185741)
(0 0 0.0186492)
(0 0 0.01872)
(0 0 0.0187865)
(0 0 0.0188485)
(0 0 0.0189061)
(0 0 0.0189592)
(0 0 0.0190079)
(0 0 0.0190519)
(0 0 0.0190915)
(0 0 0.0191264)
(0 0 0.0191568)
(0 0 0.0191826)
(0 0 0.0192037)
(0 0 0.0192203)
(0 0 0.0192322)
(0 0 0.0192395)
(0 0 0.0192422)
(0 0 0.0192403)
(0 0 0.0192339)
(0 0 0.0192229)
(0 0 0.0192074)
(0 0 0.0191874)
(0 0 0.0191629)
(0 0 0.019134)
(0 0 0.0191006)
(0 0 0.019063)
(0 0 0.019021)
(0 0 0.0189747)
(0 0 0.0189242)
(0 0 0.0188696)
(0 0 0.0188109)
(0 0 0.0187481)
(0 0 0.0186813)
(0 0 0.0186106)
(0 0 0.0185361)
(0 0 0.0184578)
(0 0 0.0183757)
(0 0 0.01829)
(0 0 0.0182007)
(0 0 0.0181079)
(0 0 0.0180117)
(0 0 0.0179121)
(0 0 0.0178093)
(0 0 0.0177032)
(0 0 0.0175941)
(0 0 0.0174819)
(0 0 0.0173667)
(0 0 0.0172486)
(0 0 0.0171278)
(0 0 0.0170042)
(0 0 0.016878)
(0 0 0.0167492)
(0 0 0.016618)
(0 0 0.0164843)
(0 0 0.0163483)
(0 0 0.0162101)
(0 0 0.0160697)
(0 0 0.0159272)
(0 0 0.0157827)
(0 0 0.0156362)
(0 0 0.0154879)
(0 0 0.0153378)
(0 0 0.0151859)
(0 0 0.0150325)
(0 0 0.0148774)
(0 0 0.0147208)
(0 0 0.0145627)
(0 0 0.0144033)
(0 0 0.0142425)
(0 0 0.0140805)
(0 0 0.0139173)
(0 0 0.013753)
(0 0 0.0135876)
(0 0 0.0134211)
(0 0 0.0132537)
(0 0 0.0130854)
(0 0 0.0129162)
(0 0 0.0127462)
(0 0 0.0125755)
(0 0 0.012404)
(0 0 0.0122319)
(0 0 0.0120591)
(0 0 0.0118858)
(0 0 0.0117119)
(0 0 0.0115375)
(0 0 0.0113627)
(0 0 0.0111874)
(0 0 0.0110118)
(0 0 0.0108358)
(0 0 0.0106595)
(0 0 0.0104829)
(0 0 0.010306)
(0 0 0.0101289)
(0 0 0.00995161)
(0 0 0.00977413)
(0 0 0.00959651)
(0 0 0.00941875)
(0 0 0.0092409)
(0 0 0.00906295)
(0 0 0.00888495)
(0 0 0.00870689)
(0 0 0.00852882)
(0 0 0.00835073)
(0 0 0.00817264)
(0 0 0.00799457)
(0 0 0.00781654)
(0 0 0.00763855)
(0 0 0.00746062)
(0 0 0.00728276)
(0 0 0.00710498)
(0 0 0.00692728)
(0 0 0.00674968)
(0 0 0.00657218)
(0 0 0.00639479)
(0 0 0.00621751)
(0 0 0.00604036)
(0 0 0.00586333)
(0 0 0.00568642)
(0 0 0.00550965)
(0 0 0.00533301)
(0 0 0.0051565)
(0 0 0.00498013)
(0 0 0.0048039)
(0 0 0.0046278)
(0 0 0.00445184)
(0 0 0.00427601)
(0 0 0.00410031)
(0 0 0.00392475)
(0 0 0.00374932)
(0 0 0.00357401)
(0 0 0.00339882)
(0 0 0.00322375)
(0 0 0.0030488)
(0 0 0.00287395)
(0 0 0.00269921)
(0 0 0.00252458)
(0 0 0.00235004)
(0 0 0.00217558)
(0 0 0.00200122)
(0 0 0.00182693)
(0 0 0.00165271)
(0 0 0.00147856)
(0 0 0.00130447)
(0 0 0.00113044)
(0 0 0.000956444)
(0 0 0.000782491)
(0 0 0.000608571)
(0 0 0.000434676)
(0 0 0.000260798)
(0 0 8.69316e-05)
(0 0 0.000115134)
(0 0 0.000345407)
(0 0 0.000575698)
(0 0 0.000806018)
(0 0 0.00103638)
(0 0 0.00126679)
(0 0 0.00149727)
(0 0 0.00172782)
(0 0 0.00195845)
(0 0 0.00218918)
(0 0 0.00242002)
(0 0 0.00265097)
(0 0 0.00288204)
(0 0 0.00311325)
(0 0 0.0033446)
(0 0 0.00357609)
(0 0 0.00380774)
(0 0 0.00403955)
(0 0 0.00427153)
(0 0 0.00450369)
(0 0 0.00473602)
(0 0 0.00496852)
(0 0 0.00520121)
(0 0 0.00543409)
(0 0 0.00566714)
(0 0 0.00590038)
(0 0 0.0061338)
(0 0 0.0063674)
(0 0 0.00660117)
(0 0 0.00683511)
(0 0 0.00706921)
(0 0 0.00730346)
(0 0 0.00753786)
(0 0 0.0077724)
(0 0 0.00800705)
(0 0 0.00824181)
(0 0 0.00847666)
(0 0 0.00871159)
(0 0 0.00894657)
(0 0 0.00918159)
(0 0 0.00941662)
(0 0 0.00965164)
(0 0 0.00988662)
(0 0 0.0101215)
(0 0 0.0103563)
(0 0 0.010591)
(0 0 0.0108256)
(0 0 0.0110599)
(0 0 0.011294)
(0 0 0.0115278)
(0 0 0.0117613)
(0 0 0.0119944)
(0 0 0.0122271)
(0 0 0.0124593)
(0 0 0.012691)
(0 0 0.0129222)
(0 0 0.0131527)
(0 0 0.0133825)
(0 0 0.0136116)
(0 0 0.0138398)
(0 0 0.0140672)
(0 0 0.0142936)
(0 0 0.0145191)
(0 0 0.0147434)
(0 0 0.0149665)
(0 0 0.0151884)
(0 0 0.015409)
(0 0 0.0156281)
(0 0 0.0158458)
(0 0 0.0160619)
(0 0 0.0162763)
(0 0 0.0164889)
(0 0 0.0166997)
(0 0 0.0169085)
(0 0 0.0171153)
(0 0 0.01732)
(0 0 0.0175224)
(0 0 0.0177225)
(0 0 0.0179201)
(0 0 0.0181152)
(0 0 0.0183077)
(0 0 0.0184974)
(0 0 0.0186843)
(0 0 0.0188682)
(0 0 0.019049)
(0 0 0.0192267)
(0 0 0.0194011)
(0 0 0.0195721)
(0 0 0.0197396)
(0 0 0.0199036)
(0 0 0.0200639)
(0 0 0.0202204)
(0 0 0.020373)
(0 0 0.0205216)
(0 0 0.0206662)
(0 0 0.0208065)
(0 0 0.0209426)
(0 0 0.0210744)
(0 0 0.0212017)
(0 0 0.0213244)
(0 0 0.0214426)
(0 0 0.021556)
(0 0 0.0216647)
(0 0 0.0217685)
(0 0 0.0218674)
(0 0 0.0219613)
(0 0 0.0220502)
(0 0 0.022134)
(0 0 0.0222126)
(0 0 0.022286)
(0 0 0.0223541)
(0 0 0.022417)
(0 0 0.0224745)
(0 0 0.0225267)
(0 0 0.0225735)
(0 0 0.0226148)
(0 0 0.0226507)
(0 0 0.0226812)
(0 0 0.0227062)
(0 0 0.0227257)
(0 0 0.0227398)
(0 0 0.0227485)
(0 0 0.0227516)
(0 0 0.0227494)
(0 0 0.0227417)
(0 0 0.0227287)
(0 0 0.0227103)
(0 0 0.0226865)
(0 0 0.0226575)
(0 0 0.0226232)
(0 0 0.0225838)
(0 0 0.0225391)
(0 0 0.0224894)
(0 0 0.0224346)
(0 0 0.0223748)
(0 0 0.0223101)
(0 0 0.0222406)
(0 0 0.0221663)
(0 0 0.0220872)
(0 0 0.0220035)
(0 0 0.0219152)
(0 0 0.0218225)
(0 0 0.0217254)
(0 0 0.0216239)
(0 0 0.0215182)
(0 0 0.0214084)
(0 0 0.0212945)
(0 0 0.0211766)
(0 0 0.0210549)
(0 0 0.0209294)
(0 0 0.0208002)
(0 0 0.0206674)
(0 0 0.0205311)
(0 0 0.0203914)
(0 0 0.0202484)
(0 0 0.0201022)
(0 0 0.0199528)
(0 0 0.0198004)
(0 0 0.0196451)
(0 0 0.019487)
(0 0 0.0193261)
(0 0 0.0191625)
(0 0 0.0189964)
(0 0 0.0188278)
(0 0 0.0186569)
(0 0 0.0184836)
(0 0 0.0183081)
(0 0 0.0181306)
(0 0 0.0179509)
(0 0 0.0177694)
(0 0 0.0175859)
(0 0 0.0174007)
(0 0 0.0172138)
(0 0 0.0170252)
(0 0 0.0168351)
(0 0 0.0166435)
(0 0 0.0164505)
(0 0 0.0162561)
(0 0 0.0160605)
(0 0 0.0158636)
(0 0 0.0156657)
(0 0 0.0154666)
(0 0 0.0152665)
(0 0 0.0150655)
(0 0 0.0148636)
(0 0 0.0146609)
(0 0 0.0144573)
(0 0 0.0142531)
(0 0 0.0140481)
(0 0 0.0138425)
(0 0 0.0136364)
(0 0 0.0134296)
(0 0 0.0132224)
(0 0 0.0130148)
(0 0 0.0128067)
(0 0 0.0125982)
(0 0 0.0123895)
(0 0 0.0121804)
(0 0 0.011971)
(0 0 0.0117614)
(0 0 0.0115516)
(0 0 0.0113416)
(0 0 0.0111315)
(0 0 0.0109213)
(0 0 0.0107109)
(0 0 0.0105005)