/*--------------------------------*- C++ -*----------------------------------*\
| =========                 |                                                 |
| \\      /  F ield         | OpenFOAM: The Open Source CFD Toolbox           |
|  \\    /   O peration     | Version:  v2012                                 |
|   \\  /    A nd           | Website:  www.openfoam.com                      |
|    \\/     M anipulation  |                                                 |
\*---------------------------------------------------------------------------*/
FoamFile
{
    version     2.0;
    format      ascii;
    class       volVectorField;
    location    "12.7";
    object      U;
}
// * * * * * * * * * * * * * * * * * * * * * * * * * * * * * * * * * * * * * //

dimensions      [0 1 -1 0 0 0 0];


internalField   nonuniform List<vector> 
65536
(
(0.000723111 -0.000723127 0)
(0.00216937 -0.000723164 0)
(0.00361573 -0.000723234 0)
(0.00506227 -0.000723339 0)
(0.00650906 -0.000723479 0)
(0.00795616 -0.000723653 0)
(0.00940364 -0.00072386 0)
(0.0108516 -0.000724099 0)
(0.0123 -0.00072437 0)
(0.013749 -0.000724672 0)
(0.0151987 -0.000725003 0)
(0.016649 -0.000725362 0)
(0.0181001 -0.000725747 0)
(0.019552 -0.000726157 0)
(0.0210047 -0.000726591 0)
(0.0224583 -0.000727045 0)
(0.0239129 -0.000727519 0)
(0.0253684 -0.00072801 0)
(0.0268249 -0.000728516 0)
(0.0282824 -0.000729034 0)
(0.029741 -0.000729562 0)
(0.0312007 -0.000730096 0)
(0.0326614 -0.000730634 0)
(0.0341232 -0.000731174 0)
(0.0355861 -0.000731711 0)
(0.0370501 -0.000732242 0)
(0.0385151 -0.000732764 0)
(0.0399811 -0.000733272 0)
(0.0414482 -0.000733764 0)
(0.0429162 -0.000734235 0)
(0.0443852 -0.000734681 0)
(0.045855 -0.000735098 0)
(0.0473256 -0.00073548 0)
(0.0487969 -0.000735825 0)
(0.0502689 -0.000736125 0)
(0.0517415 -0.000736378 0)
(0.0532145 -0.000736576 0)
(0.0546878 -0.000736716 0)
(0.0561614 -0.000736792 0)
(0.0576351 -0.000736798 0)
(0.0591087 -0.000736728 0)
(0.0605821 -0.000736577 0)
(0.0620551 -0.000736338 0)
(0.0635275 -0.000736005 0)
(0.0649992 -0.000735572 0)
(0.0664699 -0.000735033 0)
(0.0679394 -0.000734381 0)
(0.0694076 -0.000733608 0)
(0.070874 -0.000732709 0)
(0.0723385 -0.000731677 0)
(0.0738009 -0.000730504 0)
(0.0752607 -0.000729184 0)
(0.0767177 -0.000727709 0)
(0.0781717 -0.000726072 0)
(0.0796222 -0.000724266 0)
(0.0810689 -0.000722283 0)
(0.0825115 -0.000720117 0)
(0.0839496 -0.000717759 0)
(0.0853827 -0.000715203 0)
(0.0868106 -0.000712442 0)
(0.0882327 -0.000709467 0)
(0.0896487 -0.000706272 0)
(0.091058 -0.00070285 0)
(0.0924603 -0.000699194 0)
(0.0938551 -0.000695296 0)
(0.0952418 -0.000691151 0)
(0.0966199 -0.000686751 0)
(0.097989 -0.000682089 0)
(0.0993485 -0.00067716 0)
(0.100698 -0.000671958 0)
(0.102037 -0.000666476 0)
(0.103364 -0.00066071 0)
(0.10468 -0.000654653 0)
(0.105983 -0.000648301 0)
(0.107273 -0.000641649 0)
(0.10855 -0.000634694 0)
(0.109812 -0.00062743 0)
(0.11106 -0.000619854 0)
(0.112292 -0.000611965 0)
(0.113508 -0.000603757 0)
(0.114707 -0.00059523 0)
(0.115889 -0.000586382 0)
(0.117053 -0.000577211 0)
(0.118199 -0.000567717 0)
(0.119324 -0.0005579 0)
(0.12043 -0.000547759 0)
(0.121516 -0.000537295 0)
(0.12258 -0.000526511 0)
(0.123622 -0.000515408 0)
(0.124642 -0.000503989 0)
(0.125638 -0.000492256 0)
(0.126611 -0.000480214 0)
(0.12756 -0.000467868 0)
(0.128483 -0.000455221 0)
(0.129381 -0.00044228 0)
(0.130252 -0.000429051 0)
(0.131097 -0.000415541 0)
(0.131915 -0.000401757 0)
(0.132705 -0.000387707 0)
(0.133466 -0.000373399 0)
(0.134198 -0.000358843 0)
(0.134902 -0.000344049 0)
(0.135575 -0.000329025 0)
(0.136218 -0.000313784 0)
(0.13683 -0.000298336 0)
(0.137411 -0.000282693 0)
(0.137961 -0.000266867 0)
(0.138479 -0.00025087 0)
(0.138965 -0.000234714 0)
(0.139418 -0.000218414 0)
(0.139839 -0.000201982 0)
(0.140226 -0.000185432 0)
(0.14058 -0.000168778 0)
(0.140901 -0.000152034 0)
(0.141189 -0.000135214 0)
(0.141442 -0.000118334 0)
(0.141662 -0.000101406 0)
(0.141848 -8.44465e-05 0)
(0.142 -6.74694e-05 0)
(0.142118 -5.04893e-05 0)
(0.142202 -3.35208e-05 0)
(0.142252 -1.65783e-05 0)
(0.142268 3.23923e-07 0)
(0.14225 1.71717e-05 0)
(0.142199 3.39511e-05 0)
(0.142115 5.06484e-05 0)
(0.141997 6.72502e-05 0)
(0.141845 8.37432e-05 0)
(0.141661 0.000100115 0)
(0.141445 0.000116352 0)
(0.141196 0.000132443 0)
(0.140915 0.000148376 0)
(0.140602 0.000164139 0)
(0.140258 0.000179723 0)
(0.139883 0.000195116 0)
(0.139477 0.000210308 0)
(0.139042 0.00022529 0)
(0.138576 0.000240052 0)
(0.138081 0.000254588 0)
(0.137558 0.000268887 0)
(0.137005 0.000282944 0)
(0.136425 0.00029675 0)
(0.135818 0.000310301 0)
(0.135184 0.000323589 0)
(0.134524 0.000336609 0)
(0.133837 0.000349357 0)
(0.133126 0.000361829 0)
(0.13239 0.00037402 0)
(0.131629 0.000385928 0)
(0.130846 0.000397549 0)
(0.130039 0.000408882 0)
(0.12921 0.000419924 0)
(0.128359 0.000430675 0)
(0.127487 0.000441133 0)
(0.126594 0.000451298 0)
(0.125681 0.00046117 0)
(0.124749 0.00047075 0)
(0.123798 0.000480039 0)
(0.122829 0.000489037 0)
(0.121842 0.000497746 0)
(0.120837 0.000506168 0)
(0.119817 0.000514306 0)
(0.11878 0.000522163 0)
(0.117728 0.00052974 0)
(0.116661 0.000537041 0)
(0.115579 0.00054407 0)
(0.114484 0.00055083 0)
(0.113376 0.000557326 0)
(0.112255 0.000563561 0)
(0.111121 0.000569539 0)
(0.109976 0.000575266 0)
(0.10882 0.000580746 0)
(0.107653 0.000585984 0)
(0.106476 0.000590984 0)
(0.105289 0.000595752 0)
(0.104093 0.000600293 0)
(0.102887 0.000604613 0)
(0.101674 0.000608716 0)
(0.100452 0.000612608 0)
(0.0992233 0.000616294 0)
(0.097987 0.000619781 0)
(0.0967439 0.000623073 0)
(0.0954945 0.000626176 0)
(0.094239 0.000629096 0)
(0.0929779 0.000631839 0)
(0.0917115 0.000634409 0)
(0.0904401 0.000636813 0)
(0.0891641 0.000639056 0)
(0.0878838 0.000641143 0)
(0.0865994 0.00064308 0)
(0.0853113 0.000644873 0)
(0.0840198 0.000646526 0)
(0.0827251 0.000648045 0)
(0.0814274 0.000649435 0)
(0.0801272 0.000650702 0)
(0.0788245 0.000651851 0)
(0.0775197 0.000652886 0)
(0.0762129 0.000653812 0)
(0.0749043 0.000654635 0)
(0.0735942 0.000655359 0)
(0.0722828 0.000655989 0)
(0.0709702 0.000656529 0)
(0.0696566 0.000656984 0)
(0.0683422 0.000657359 0)
(0.0670271 0.000657657 0)
(0.0657115 0.000657884 0)
(0.0643955 0.000658042 0)
(0.0630792 0.000658136 0)
(0.0617629 0.000658171 0)
(0.0604465 0.000658149 0)
(0.0591302 0.000658075 0)
(0.0578142 0.000657952 0)
(0.0564984 0.000657784 0)
(0.055183 0.000657575 0)
(0.053868 0.000657327 0)
(0.0525536 0.000657043 0)
(0.0512398 0.000656728 0)
(0.0499267 0.000656384 0)
(0.0486143 0.000656013 0)
(0.0473026 0.00065562 0)
(0.0459918 0.000655206 0)
(0.0446818 0.000654775 0)
(0.0433727 0.000654328 0)
(0.0420645 0.000653869 0)
(0.0407572 0.0006534 0)
(0.0394509 0.000652923 0)
(0.0381455 0.00065244 0)
(0.0368411 0.000651954 0)
(0.0355377 0.000651467 0)
(0.0342352 0.00065098 0)
(0.0329338 0.000650495 0)
(0.0316333 0.000650015 0)
(0.0303337 0.000649541 0)
(0.0290351 0.000649074 0)
(0.0277374 0.000648617 0)
(0.0264406 0.000648171 0)
(0.0251448 0.000647737 0)
(0.0238497 0.000647316 0)
(0.0225555 0.00064691 0)
(0.0212621 0.000646521 0)
(0.0199694 0.000646148 0)
(0.0186775 0.000645794 0)
(0.0173863 0.000645458 0)
(0.0160957 0.000645143 0)
(0.0148057 0.000644849 0)
(0.0135163 0.000644577 0)
(0.0122275 0.000644327 0)
(0.0109391 0.000644101 0)
(0.00965108 0.000643898 0)
(0.00836349 0.000643719 0)
(0.00707623 0.000643565 0)
(0.00578925 0.000643436 0)
(0.00450251 0.000643333 0)
(0.00321595 0.000643255 0)
(0.00192952 0.000643203 0)
(0.000643164 0.000643177 0)
(0.000723077 -0.00216935 0)
(0.00216927 -0.00216946 0)
(0.00361556 -0.00216967 0)
(0.00506203 -0.00216999 0)
(0.00650875 -0.00217041 0)
(0.00795578 -0.00217093 0)
(0.0094032 -0.00217155 0)
(0.0108511 -0.00217227 0)
(0.0122994 -0.00217308 0)
(0.0137484 -0.00217399 0)
(0.015198 -0.00217498 0)
(0.0166483 -0.00217606 0)
(0.0180993 -0.00217722 0)
(0.0195511 -0.00217845 0)
(0.0210038 -0.00217975 0)
(0.0224574 -0.00218112 0)
(0.0239119 -0.00218254 0)
(0.0253674 -0.00218402 0)
(0.0268239 -0.00218554 0)
(0.0282814 -0.00218709 0)
(0.02974 -0.00218868 0)
(0.0311996 -0.00219029 0)
(0.0326603 -0.0021919 0)
(0.0341222 -0.00219353 0)
(0.035585 -0.00219514 0)
(0.037049 -0.00219674 0)
(0.0385141 -0.0021983 0)
(0.0399801 -0.00219984 0)
(0.0414472 -0.00220131 0)
(0.0429153 -0.00220273 0)
(0.0443843 -0.00220407 0)
(0.0458542 -0.00220533 0)
(0.0473249 -0.00220648 0)
(0.0487963 -0.00220752 0)
(0.0502684 -0.00220843 0)
(0.051741 -0.00220919 0)
(0.0532142 -0.00220979 0)
(0.0546876 -0.00221021 0)
(0.0561614 -0.00221045 0)
(0.0576352 -0.00221047 0)
(0.0591089 -0.00221027 0)
(0.0605825 -0.00220982 0)
(0.0620557 -0.00220911 0)
(0.0635283 -0.00220812 0)
(0.0650002 -0.00220682 0)
(0.0664711 -0.00220521 0)
(0.0679409 -0.00220326 0)
(0.0694093 -0.00220095 0)
(0.070876 -0.00219826 0)
(0.0723408 -0.00219517 0)
(0.0738034 -0.00219166 0)
(0.0752635 -0.00218771 0)
(0.0767209 -0.00218329 0)
(0.0781752 -0.00217838 0)
(0.079626 -0.00217297 0)
(0.0810731 -0.00216703 0)
(0.0825161 -0.00216054 0)
(0.0839545 -0.00215347 0)
(0.0853881 -0.00214581 0)
(0.0868164 -0.00213754 0)
(0.0882389 -0.00212862 0)
(0.0896553 -0.00211904 0)
(0.0910651 -0.00210878 0)
(0.0924679 -0.00209782 0)
(0.0938631 -0.00208614 0)
(0.0952503 -0.00207371 0)
(0.096629 -0.00206051 0)
(0.0979986 -0.00204653 0)
(0.0993587 -0.00203175 0)
(0.100709 -0.00201615 0)
(0.102048 -0.00199971 0)
(0.103376 -0.00198242 0)
(0.104692 -0.00196425 0)
(0.105996 -0.0019452 0)
(0.107287 -0.00192525 0)
(0.108564 -0.00190439 0)
(0.109827 -0.0018826 0)
(0.111075 -0.00185988 0)
(0.112308 -0.00183621 0)
(0.113525 -0.00181159 0)
(0.114725 -0.00178601 0)
(0.115907 -0.00175947 0)
(0.117072 -0.00173196 0)
(0.118218 -0.00170347 0)
(0.119344 -0.00167402 0)
(0.120451 -0.0016436 0)
(0.121537 -0.0016122 0)
(0.122602 -0.00157985 0)
(0.123645 -0.00154654 0)
(0.124665 -0.00151228 0)
(0.125662 -0.00147708 0)
(0.126636 -0.00144095 0)
(0.127585 -0.0014039 0)
(0.128509 -0.00136596 0)
(0.129407 -0.00132713 0)
(0.130279 -0.00128743 0)
(0.131125 -0.00124689 0)
(0.131943 -0.00120553 0)
(0.132733 -0.00116337 0)
(0.133495 -0.00112044 0)
(0.134228 -0.00107677 0)
(0.134931 -0.00103237 0)
(0.135605 -0.000987292 0)
(0.136249 -0.000941557 0)
(0.136861 -0.000895202 0)
(0.137443 -0.000848261 0)
(0.137993 -0.000800769 0)
(0.138511 -0.000752764 0)
(0.138997 -0.000704285 0)
(0.139451 -0.00065537 0)
(0.139872 -0.000606061 0)
(0.140259 -0.000556397 0)
(0.140614 -0.000506421 0)
(0.140935 -0.000456175 0)
(0.141222 -0.000405701 0)
(0.141476 -0.000355045 0)
(0.141696 -0.000304248 0)
(0.141882 -0.000253355 0)
(0.142034 -0.000202409 0)
(0.142152 -0.000151454 0)
(0.142236 -0.000100534 0)
(0.142286 -4.96922e-05 0)
(0.142302 1.02862e-06 0)
(0.142284 5.15859e-05 0)
(0.142233 0.000101938 0)
(0.142148 0.000152043 0)
(0.14203 0.000201862 0)
(0.141878 0.000251353 0)
(0.141694 0.00030048 0)
(0.141477 0.000349204 0)
(0.141228 0.000397489 0)
(0.140947 0.000445299 0)
(0.140634 0.000492601 0)
(0.140289 0.000539361 0)
(0.139914 0.000585549 0)
(0.139508 0.000631135 0)
(0.139071 0.00067609 0)
(0.138605 0.000720387 0)
(0.13811 0.000764 0)
(0.137586 0.000806906 0)
(0.137033 0.000849083 0)
(0.136453 0.000890509 0)
(0.135845 0.000931166 0)
(0.13521 0.000971035 0)
(0.134549 0.0010101 0)
(0.133862 0.00104835 0)
(0.13315 0.00108577 0)
(0.132414 0.00112235 0)
(0.131653 0.00115807 0)
(0.130869 0.00119294 0)
(0.130061 0.00122694 0)
(0.129232 0.00126007 0)
(0.12838 0.00129232 0)
(0.127507 0.00132369 0)
(0.126614 0.00135419 0)
(0.125701 0.0013838 0)
(0.124768 0.00141254 0)
(0.123816 0.00144041 0)
(0.122846 0.0014674 0)
(0.121859 0.00149353 0)
(0.120854 0.00151879 0)
(0.119833 0.0015432 0)
(0.118795 0.00156677 0)
(0.117743 0.0015895 0)
(0.116675 0.0016114 0)
(0.115593 0.00163248 0)
(0.114497 0.00165276 0)
(0.113388 0.00167224 0)
(0.112267 0.00169094 0)
(0.111133 0.00170887 0)
(0.109987 0.00172605 0)
(0.108831 0.00174248 0)
(0.107663 0.00175819 0)
(0.106485 0.00177318 0)
(0.105298 0.00178748 0)
(0.104101 0.0018011 0)
(0.102896 0.00181405 0)
(0.101682 0.00182636 0)
(0.10046 0.00183803 0)
(0.0992304 0.00184908 0)
(0.0979937 0.00185954 0)
(0.0967503 0.00186941 0)
(0.0955005 0.00187871 0)
(0.0942446 0.00188747 0)
(0.0929832 0.00189569 0)
(0.0917164 0.00190339 0)
(0.0904447 0.0019106 0)
(0.0891684 0.00191732 0)
(0.0878877 0.00192358 0)
(0.0866031 0.00192938 0)
(0.0853147 0.00193476 0)
(0.0840229 0.00193971 0)
(0.0827279 0.00194426 0)
(0.08143 0.00194843 0)
(0.0801295 0.00195222 0)
(0.0788266 0.00195566 0)
(0.0775216 0.00195876 0)
(0.0762146 0.00196154 0)
(0.0749058 0.001964 0)
(0.0735955 0.00196617 0)
(0.0722839 0.00196805 0)
(0.0709711 0.00196967 0)
(0.0696574 0.00197103 0)
(0.0683428 0.00197215 0)
(0.0670276 0.00197304 0)
(0.0657118 0.00197372 0)
(0.0643957 0.00197419 0)
(0.0630793 0.00197447 0)
(0.0617628 0.00197457 0)
(0.0604464 0.0019745 0)
(0.05913 0.00197427 0)
(0.0578138 0.0019739 0)
(0.056498 0.00197339 0)
(0.0551825 0.00197276 0)
(0.0538675 0.00197201 0)
(0.052553 0.00197116 0)
(0.0512391 0.00197021 0)
(0.0499259 0.00196918 0)
(0.0486135 0.00196806 0)
(0.0473018 0.00196688 0)
(0.0459909 0.00196563 0)
(0.0446809 0.00196434 0)
(0.0433717 0.001963 0)
(0.0420635 0.00196162 0)
(0.0407562 0.00196021 0)
(0.0394499 0.00195877 0)
(0.0381445 0.00195732 0)
(0.0368401 0.00195586 0)
(0.0355367 0.0019544 0)
(0.0342342 0.00195293 0)
(0.0329328 0.00195148 0)
(0.0316323 0.00195004 0)
(0.0303327 0.00194861 0)
(0.0290342 0.00194721 0)
(0.0277365 0.00194584 0)
(0.0264397 0.0019445 0)
(0.0251439 0.00194319 0)
(0.0238489 0.00194193 0)
(0.0225547 0.00194071 0)
(0.0212613 0.00193954 0)
(0.0199687 0.00193842 0)
(0.0186768 0.00193736 0)
(0.0173856 0.00193635 0)
(0.0160951 0.00193541 0)
(0.0148052 0.00193452 0)
(0.0135158 0.00193371 0)
(0.012227 0.00193296 0)
(0.0109386 0.00193228 0)
(0.00965069 0.00193167 0)
(0.00836315 0.00193113 0)
(0.00707594 0.00193067 0)
(0.00578902 0.00193028 0)
(0.00450233 0.00192997 0)
(0.00321582 0.00192974 0)
(0.00192944 0.00192958 0)
(0.000643138 0.00192951 0)
(0.000723005 -0.00361547 0)
(0.00216905 -0.00361565 0)
(0.00361521 -0.003616 0)
(0.00506154 -0.00361653 0)
(0.00650812 -0.00361723 0)
(0.00795502 -0.0036181 0)
(0.0094023 -0.00361914 0)
(0.01085 -0.00362034 0)
(0.0122983 -0.0036217 0)
(0.0137471 -0.00362322 0)
(0.0151966 -0.00362488 0)
(0.0166468 -0.00362668 0)
(0.0180977 -0.00362861 0)
(0.0195494 -0.00363067 0)
(0.021002 -0.00363285 0)
(0.0224555 -0.00363513 0)
(0.02391 -0.00363752 0)
(0.0253654 -0.00363998 0)
(0.0268218 -0.00364252 0)
(0.0282793 -0.00364513 0)
(0.0297378 -0.00364778 0)
(0.0311974 -0.00365046 0)
(0.0326582 -0.00365317 0)
(0.03412 -0.00365588 0)
(0.0355829 -0.00365858 0)
(0.0370469 -0.00366126 0)
(0.038512 -0.00366389 0)
(0.0399781 -0.00366645 0)
(0.0414453 -0.00366893 0)
(0.0429134 -0.0036713 0)
(0.0443826 -0.00367356 0)
(0.0458526 -0.00367566 0)
(0.0473234 -0.0036776 0)
(0.048795 -0.00367934 0)
(0.0502673 -0.00368087 0)
(0.0517401 -0.00368216 0)
(0.0532135 -0.00368318 0)
(0.0546872 -0.0036839 0)
(0.0561612 -0.00368431 0)
(0.0576353 -0.00368437 0)
(0.0591093 -0.00368405 0)
(0.0605832 -0.00368332 0)
(0.0620568 -0.00368216 0)
(0.0635298 -0.00368053 0)
(0.0650021 -0.00367839 0)
(0.0664735 -0.00367573 0)
(0.0679437 -0.0036725 0)
(0.0694126 -0.00366867 0)
(0.0708798 -0.00366421 0)
(0.0723451 -0.00365909 0)
(0.0738083 -0.00365326 0)
(0.0752691 -0.00364669 0)
(0.0767271 -0.00363935 0)
(0.078182 -0.0036312 0)
(0.0796335 -0.00362221 0)
(0.0810814 -0.00361233 0)
(0.0825251 -0.00360154 0)
(0.0839643 -0.00358979 0)
(0.0853987 -0.00357704 0)
(0.0868278 -0.00356327 0)
(0.0882512 -0.00354843 0)
(0.0896685 -0.0035325 0)
(0.0910793 -0.00351542 0)
(0.092483 -0.00349717 0)
(0.0938792 -0.00347772 0)
(0.0952674 -0.00345703 0)
(0.0966471 -0.00343506 0)
(0.0980178 -0.00341178 0)
(0.0993789 -0.00338717 0)
(0.10073 -0.00336118 0)
(0.10207 -0.0033338 0)
(0.1034 -0.003305 0)
(0.104717 -0.00327474 0)
(0.106022 -0.003243 0)
(0.107314 -0.00320976 0)
(0.108593 -0.003175 0)
(0.109857 -0.0031387 0)
(0.111106 -0.00310084 0)
(0.11234 -0.00306141 0)
(0.113558 -0.00302038 0)
(0.11476 -0.00297776 0)
(0.115943 -0.00293352 0)
(0.117109 -0.00288767 0)
(0.118256 -0.0028402 0)
(0.119384 -0.00279111 0)
(0.120492 -0.0027404 0)
(0.12158 -0.00268808 0)
(0.122646 -0.00263415 0)
(0.12369 -0.00257862 0)
(0.124711 -0.00252151 0)
(0.12571 -0.00246282 0)
(0.126684 -0.00240259 0)
(0.127635 -0.00234083 0)
(0.12856 -0.00227757 0)
(0.129459 -0.00221284 0)
(0.130333 -0.00214666 0)
(0.131179 -0.00207907 0)
(0.131998 -0.00201011 0)
(0.13279 -0.00193982 0)
(0.133553 -0.00186823 0)
(0.134287 -0.0017954 0)
(0.134991 -0.00172138 0)
(0.135666 -0.00164621 0)
(0.13631 -0.00156995 0)
(0.136923 -0.00149265 0)
(0.137506 -0.00141438 0)
(0.138057 -0.00133518 0)
(0.138576 -0.00125513 0)
(0.139062 -0.00117429 0)
(0.139516 -0.00109272 0)
(0.139938 -0.00101049 0)
(0.140326 -0.000927674 0)
(0.140681 -0.000844334 0)
(0.141002 -0.000760543 0)
(0.14129 -0.000676373 0)
(0.141544 -0.000591896 0)
(0.141764 -0.000507186 0)
(0.14195 -0.000422315 0)
(0.142102 -0.000337357 0)
(0.14222 -0.000252384 0)
(0.142303 -0.000167469 0)
(0.142353 -8.26854e-05 0)
(0.142369 1.89651e-06 0)
(0.142351 8.62052e-05 0)
(0.1423 0.000170171 0)
(0.142214 0.000253725 0)
(0.142096 0.000336799 0)
(0.141944 0.000419328 0)
(0.141759 0.000501248 0)
(0.141542 0.000582495 0)
(0.141292 0.000663009 0)
(0.14101 0.00074273 0)
(0.140696 0.000821603 0)
(0.140351 0.000899572 0)
(0.139975 0.000976586 0)
(0.139568 0.00105259 0)
(0.139131 0.00112755 0)
(0.138664 0.0012014 0)
(0.138168 0.00127412 0)
(0.137643 0.00134565 0)
(0.137089 0.00141597 0)
(0.136508 0.00148504 0)
(0.135899 0.00155282 0)
(0.135263 0.00161928 0)
(0.134601 0.00168441 0)
(0.133913 0.00174817 0)
(0.1332 0.00181055 0)
(0.132462 0.00187152 0)
(0.1317 0.00193107 0)
(0.130915 0.00198919 0)
(0.130106 0.00204586 0)
(0.129275 0.00210108 0)
(0.128423 0.00215484 0)
(0.127549 0.00220713 0)
(0.126654 0.00225796 0)
(0.12574 0.00230732 0)
(0.124806 0.00235521 0)
(0.123853 0.00240165 0)
(0.122882 0.00244663 0)
(0.121893 0.00249017 0)
(0.120887 0.00253227 0)
(0.119865 0.00257294 0)
(0.118826 0.00261221 0)
(0.117772 0.00265008 0)
(0.116704 0.00268657 0)
(0.115621 0.00272169 0)
(0.114524 0.00275548 0)
(0.113414 0.00278793 0)
(0.112291 0.00281909 0)
(0.111156 0.00284896 0)
(0.11001 0.00287757 0)
(0.108852 0.00290494 0)
(0.107684 0.00293111 0)
(0.106505 0.00295608 0)
(0.105317 0.0029799 0)
(0.104119 0.00300257 0)
(0.102913 0.00302414 0)
(0.101698 0.00304463 0)
(0.100475 0.00306406 0)
(0.0992447 0.00308247 0)
(0.0980073 0.00309988 0)
(0.0967631 0.00311631 0)
(0.0955125 0.0031318 0)
(0.094256 0.00314637 0)
(0.0929938 0.00316005 0)
(0.0917264 0.00317288 0)
(0.090454 0.00318487 0)
(0.089177 0.00319605 0)
(0.0878958 0.00320646 0)
(0.0866105 0.00321612 0)
(0.0853216 0.00322506 0)
(0.0840292 0.0032333 0)
(0.0827337 0.00324087 0)
(0.0814354 0.00324779 0)
(0.0801344 0.0032541 0)
(0.078831 0.00325982 0)
(0.0775255 0.00326497 0)
(0.0762181 0.00326958 0)
(0.0749089 0.00327367 0)
(0.0735982 0.00327726 0)
(0.0722863 0.00328039 0)
(0.0709731 0.00328307 0)
(0.069659 0.00328532 0)
(0.0683441 0.00328717 0)
(0.0670286 0.00328864 0)
(0.0657126 0.00328975 0)
(0.0643962 0.00329053 0)
(0.0630796 0.00329098 0)
(0.0617629 0.00329113 0)
(0.0604462 0.003291 0)
(0.0591296 0.00329062 0)
(0.0578132 0.00328998 0)
(0.0564972 0.00328913 0)
(0.0551816 0.00328806 0)
(0.0538664 0.00328681 0)
(0.0525518 0.00328537 0)
(0.0512378 0.00328378 0)
(0.0499245 0.00328204 0)
(0.048612 0.00328018 0)
(0.0473002 0.0032782 0)
(0.0459892 0.00327612 0)
(0.0446791 0.00327395 0)
(0.0433699 0.0032717 0)
(0.0420617 0.00326939 0)
(0.0407543 0.00326704 0)
(0.039448 0.00326464 0)
(0.0381426 0.00326222 0)
(0.0368381 0.00325977 0)
(0.0355347 0.00325733 0)
(0.0342323 0.00325488 0)
(0.0329308 0.00325245 0)
(0.0316304 0.00325004 0)
(0.0303309 0.00324766 0)
(0.0290323 0.00324532 0)
(0.0277347 0.00324303 0)
(0.026438 0.00324079 0)
(0.0251422 0.00323861 0)
(0.0238472 0.0032365 0)
(0.0225531 0.00323447 0)
(0.0212598 0.00323251 0)
(0.0199672 0.00323064 0)
(0.0186754 0.00322887 0)
(0.0173843 0.00322719 0)
(0.0160939 0.00322561 0)
(0.014804 0.00322413 0)
(0.0135148 0.00322277 0)
(0.012226 0.00322152 0)
(0.0109378 0.00322038 0)
(0.00964993 0.00321936 0)
(0.00836249 0.00321847 0)
(0.00707538 0.0032177 0)
(0.00578855 0.00321705 0)
(0.00450197 0.00321653 0)
(0.00321556 0.00321614 0)
(0.00192928 0.00321588 0)
(0.000643086 0.00321576 0)
(0.000722898 -0.00506141 0)
(0.00216873 -0.00506166 0)
(0.00361467 -0.00506216 0)
(0.00506079 -0.0050629 0)
(0.00650717 -0.00506388 0)
(0.00795386 -0.00506511 0)
(0.00940094 -0.00506657 0)
(0.0108485 -0.00506826 0)
(0.0122966 -0.00507017 0)
(0.0137452 -0.0050723 0)
(0.0151945 -0.00507463 0)
(0.0166445 -0.00507716 0)
(0.0180953 -0.00507988 0)
(0.0195469 -0.00508278 0)
(0.0209993 -0.00508584 0)
(0.0224527 -0.00508905 0)
(0.023907 -0.0050924 0)
(0.0253624 -0.00509587 0)
(0.0268187 -0.00509944 0)
(0.0282761 -0.00510311 0)
(0.0297346 -0.00510684 0)
(0.0311942 -0.00511062 0)
(0.0326549 -0.00511443 0)
(0.0341167 -0.00511825 0)
(0.0355796 -0.00512206 0)
(0.0370437 -0.00512582 0)
(0.0385088 -0.00512953 0)
(0.0399751 -0.00513314 0)
(0.0414423 -0.00513664 0)
(0.0429106 -0.00514 0)
(0.0443799 -0.00514318 0)
(0.0458501 -0.00514616 0)
(0.0473211 -0.00514891 0)
(0.048793 -0.00515138 0)
(0.0502655 -0.00515356 0)
(0.0517387 -0.00515539 0)
(0.0532124 -0.00515686 0)
(0.0546865 -0.00515792 0)
(0.0561608 -0.00515852 0)
(0.0576354 -0.00515864 0)
(0.0591099 -0.00515824 0)
(0.0605843 -0.00515726 0)
(0.0620584 -0.00515568 0)
(0.063532 -0.00515344 0)
(0.0650049 -0.0051505 0)
(0.066477 -0.00514681 0)
(0.0679479 -0.00514234 0)
(0.0694175 -0.00513703 0)
(0.0708855 -0.00513083 0)
(0.0723516 -0.00512371 0)
(0.0738157 -0.00511559 0)
(0.0752773 -0.00510645 0)
(0.0767363 -0.00509623 0)
(0.0781922 -0.00508487 0)
(0.0796448 -0.00507233 0)
(0.0810937 -0.00505855 0)
(0.0825385 -0.00504349 0)
(0.0839789 -0.00502709 0)
(0.0854145 -0.0050093 0)
(0.0868449 -0.00499007 0)
(0.0882696 -0.00496935 0)
(0.0896883 -0.00494709 0)
(0.0911004 -0.00492323 0)
(0.0925055 -0.00489773 0)
(0.0939032 -0.00487055 0)
(0.0952929 -0.00484162 0)
(0.0966742 -0.00481091 0)
(0.0980465 -0.00477837 0)
(0.0994092 -0.00474395 0)
(0.100762 -0.00470761 0)
(0.102104 -0.00466932 0)
(0.103435 -0.00462903 0)
(0.104754 -0.0045867 0)
(0.106061 -0.0045423 0)
(0.107355 -0.0044958 0)
(0.108635 -0.00444717 0)
(0.109901 -0.00439637 0)
(0.111153 -0.00434339 0)
(0.112389 -0.00428819 0)
(0.113609 -0.00423077 0)
(0.114812 -0.00417111 0)
(0.115997 -0.00410919 0)
(0.117165 -0.00404501 0)
(0.118314 -0.00397855 0)
(0.119444 -0.00390982 0)
(0.120554 -0.00383882 0)
(0.121643 -0.00376556 0)
(0.122711 -0.00369004 0)
(0.123757 -0.00361228 0)
(0.124781 -0.0035323 0)
(0.125781 -0.00345012 0)
(0.126758 -0.00336577 0)
(0.12771 -0.00327927 0)
(0.128637 -0.00319067 0)
(0.129538 -0.00309999 0)
(0.130413 -0.00300729 0)
(0.131261 -0.00291262 0)
(0.132082 -0.00281602 0)
(0.132875 -0.00271755 0)
(0.133639 -0.00261727 0)
(0.134375 -0.00251524 0)
(0.135081 -0.00241154 0)
(0.135757 -0.00230623 0)
(0.136402 -0.00219938 0)
(0.137017 -0.00209109 0)
(0.1376 -0.00198142 0)
(0.138152 -0.00187046 0)
(0.138672 -0.0017583 0)
(0.13916 -0.00164503 0)
(0.139615 -0.00153073 0)
(0.140037 -0.00141552 0)
(0.140426 -0.00129947 0)
(0.140781 -0.0011827 0)
(0.141103 -0.00106529 0)
(0.141391 -0.000947351 0)
(0.141645 -0.000828983 0)
(0.141866 -0.000710286 0)
(0.142052 -0.000591365 0)
(0.142204 -0.000472321 0)
(0.142322 -0.000353257 0)
(0.142405 -0.000234275 0)
(0.142455 -0.000115477 0)
(0.142471 3.03683e-06 0)
(0.142452 0.000121167 0)
(0.1424 0.000238815 0)
(0.142315 0.000355885 0)
(0.142195 0.000472282 0)
(0.142043 0.000587913 0)
(0.141857 0.000702688 0)
(0.141639 0.000816519 0)
(0.141388 0.00092932 0)
(0.141105 0.00104101 0)
(0.14079 0.00115151 0)
(0.140444 0.00126074 0)
(0.140067 0.00136863 0)
(0.139659 0.0014751 0)
(0.13922 0.0015801 0)
(0.138752 0.00168356 0)
(0.138254 0.00178542 0)
(0.137728 0.00188562 0)
(0.137173 0.00198411 0)
(0.13659 0.00208085 0)
(0.135979 0.00217578 0)
(0.135342 0.00226887 0)
(0.134678 0.00236008 0)
(0.133989 0.00244938 0)
(0.133274 0.00253674 0)
(0.132534 0.00262212 0)
(0.131771 0.00270551 0)
(0.130983 0.00278689 0)
(0.130173 0.00286624 0)
(0.129341 0.00294356 0)
(0.128486 0.00301882 0)
(0.127611 0.00309204 0)
(0.126714 0.00316319 0)
(0.125798 0.00323229 0)
(0.124862 0.00329934 0)
(0.123908 0.00336434 0)
(0.122935 0.0034273 0)
(0.121944 0.00348824 0)
(0.120937 0.00354717 0)
(0.119913 0.0036041 0)
(0.118873 0.00365905 0)
(0.117817 0.00371204 0)
(0.116747 0.0037631 0)
(0.115662 0.00381225 0)
(0.114564 0.00385952 0)
(0.113452 0.00390493 0)
(0.112328 0.00394851 0)
(0.111191 0.0039903 0)
(0.110043 0.00403032 0)
(0.108884 0.00406862 0)
(0.107714 0.00410521 0)
(0.106534 0.00414014 0)
(0.105345 0.00417344 0)
(0.104146 0.00420516 0)
(0.102938 0.00423532 0)
(0.101722 0.00426396 0)
(0.100498 0.00429113 0)
(0.0992662 0.00431686 0)
(0.0980276 0.00434119 0)
(0.0967822 0.00436415 0)
(0.0955306 0.0043858 0)
(0.094273 0.00440616 0)
(0.0930097 0.00442528 0)
(0.0917413 0.00444319 0)
(0.0904679 0.00445994 0)
(0.08919 0.00447557 0)
(0.0879078 0.0044901 0)
(0.0866217 0.00450358 0)
(0.0853319 0.00451606 0)
(0.0840387 0.00452755 0)
(0.0827424 0.00453811 0)
(0.0814433 0.00454777 0)
(0.0801416 0.00455657 0)
(0.0788376 0.00456454 0)
(0.0775314 0.00457172 0)
(0.0762233 0.00457813 0)
(0.0749135 0.00458382 0)
(0.0736023 0.00458883 0)
(0.0722898 0.00459317 0)
(0.0709761 0.00459689 0)
(0.0696615 0.00460001 0)
(0.0683462 0.00460258 0)
(0.0670302 0.00460461 0)
(0.0657137 0.00460613 0)
(0.064397 0.00460718 0)
(0.06308 0.00460779 0)
(0.0617629 0.00460798 0)
(0.0604459 0.00460777 0)
(0.059129 0.0046072 0)
(0.0578124 0.00460629 0)
(0.0564961 0.00460507 0)
(0.0551802 0.00460356 0)
(0.0538648 0.00460177 0)
(0.05255 0.00459975 0)
(0.0512358 0.0045975 0)
(0.0499224 0.00459504 0)
(0.0486097 0.00459241 0)
(0.0472978 0.00458962 0)
(0.0459867 0.00458669 0)
(0.0446765 0.00458363 0)
(0.0433672 0.00458047 0)
(0.0420589 0.00457722 0)
(0.0407515 0.00457391 0)
(0.0394451 0.00457053 0)
(0.0381396 0.00456713 0)
(0.0368352 0.00456369 0)
(0.0355318 0.00456025 0)
(0.0342294 0.00455682 0)
(0.0329279 0.0045534 0)
(0.0316275 0.00455001 0)
(0.030328 0.00454667 0)
(0.0290295 0.00454339 0)
(0.027732 0.00454016 0)
(0.0264353 0.00453702 0)
(0.0251396 0.00453396 0)
(0.0238447 0.004531 0)
(0.0225507 0.00452814 0)
(0.0212575 0.0045254 0)
(0.0199651 0.00452277 0)
(0.0186734 0.00452028 0)
(0.0173824 0.00451792 0)
(0.016092 0.0045157 0)
(0.0148023 0.00451363 0)
(0.0135132 0.00451172 0)
(0.0122246 0.00450996 0)
(0.0109365 0.00450837 0)
(0.00964878 0.00450694 0)
(0.00836149 0.00450568 0)
(0.00707453 0.0045046 0)
(0.00578786 0.00450369 0)
(0.00450142 0.00450297 0)
(0.00321517 0.00450242 0)
(0.00192905 0.00450206 0)
(0.000643008 0.00450188 0)
(0.000722755 -0.0065071 0)
(0.0021683 -0.00650742 0)
(0.00361396 -0.00650806 0)
(0.0050598 -0.00650902 0)
(0.0065059 -0.0065103 0)
(0.00795232 -0.00651188 0)
(0.00939913 -0.00651377 0)
(0.0108464 -0.00651595 0)
(0.0122942 -0.00651842 0)
(0.0137426 -0.00652117 0)
(0.0151917 -0.00652419 0)
(0.0166415 -0.00652746 0)
(0.0180921 -0.00653098 0)
(0.0195434 -0.00653472 0)
(0.0209957 -0.00653868 0)
(0.0224489 -0.00654283 0)
(0.0239031 -0.00654716 0)
(0.0253583 -0.00655165 0)
(0.0268145 -0.00655628 0)
(0.0282719 -0.00656102 0)
(0.0297303 -0.00656585 0)
(0.0311898 -0.00657075 0)
(0.0326505 -0.00657569 0)
(0.0341123 -0.00658064 0)
(0.0355753 -0.00658557 0)
(0.0370394 -0.00659045 0)
(0.0385046 -0.00659526 0)
(0.0399709 -0.00659996 0)
(0.0414384 -0.0066045 0)
(0.0429068 -0.00660887 0)
(0.0443763 -0.00661301 0)
(0.0458468 -0.0066169 0)
(0.0473181 -0.00662048 0)
(0.0487903 -0.00662372 0)
(0.0502632 -0.00662658 0)
(0.0517367 -0.006629 0)
(0.0532109 -0.00663095 0)
(0.0546854 -0.00663237 0)
(0.0561604 -0.00663322 0)
(0.0576355 -0.00663345 0)
(0.0591106 -0.006633 0)
(0.0605857 -0.00663182 0)
(0.0620605 -0.00662985 0)
(0.0635349 -0.00662705 0)
(0.0650086 -0.00662334 0)
(0.0664815 -0.00661869 0)
(0.0679534 -0.00661302 0)
(0.069424 -0.00660627 0)
(0.070893 -0.00659839 0)
(0.0723603 -0.00658931 0)
(0.0738255 -0.00657896 0)
(0.0752883 -0.00656729 0)
(0.0767486 -0.00655423 0)
(0.0782058 -0.00653972 0)
(0.0796598 -0.00652368 0)
(0.0811101 -0.00650606 0)
(0.0825564 -0.00648678 0)
(0.0839984 -0.00646578 0)
(0.0854356 -0.006443 0)
(0.0868677 -0.00641836 0)
(0.0882941 -0.00639181 0)
(0.0897146 -0.00636327 0)
(0.0911285 -0.00633268 0)
(0.0925356 -0.00629998 0)
(0.0939352 -0.00626511 0)
(0.0953269 -0.006228 0)
(0.0967103 -0.00618859 0)
(0.0980847 -0.00614683 0)
(0.0994496 -0.00610265 0)
(0.100805 -0.006056 0)
(0.102149 -0.00600683 0)
(0.103482 -0.00595509 0)
(0.104804 -0.00590073 0)
(0.106113 -0.00584371 0)
(0.107409 -0.00578397 0)
(0.108692 -0.00572149 0)
(0.109961 -0.00565622 0)
(0.111214 -0.00558814 0)
(0.112453 -0.00551721 0)
(0.113675 -0.00544341 0)
(0.114881 -0.00536672 0)
(0.11607 -0.00528713 0)
(0.11724 -0.00520461 0)
(0.118392 -0.00511917 0)
(0.119524 -0.0050308 0)
(0.120637 -0.00493951 0)
(0.121728 -0.0048453 0)
(0.122799 -0.00474818 0)
(0.123848 -0.00464817 0)
(0.124874 -0.0045453 0)
(0.125876 -0.0044396 0)
(0.126855 -0.00433109 0)
(0.12781 -0.00421982 0)
(0.128739 -0.00410583 0)
(0.129643 -0.00398917 0)
(0.13052 -0.00386991 0)
(0.131371 -0.00374809 0)
(0.132194 -0.0036238 0)
(0.132989 -0.00349709 0)
(0.133755 -0.00336805 0)
(0.134492 -0.00323676 0)
(0.1352 -0.0031033 0)
(0.135878 -0.00296777 0)
(0.136525 -0.00283027 0)
(0.137142 -0.00269089 0)
(0.137727 -0.00254974 0)
(0.13828 -0.00240693 0)
(0.138801 -0.00226257 0)
(0.13929 -0.00211678 0)
(0.139746 -0.00196967 0)
(0.140169 -0.00182137 0)
(0.140559 -0.00167201 0)
(0.140915 -0.00152169 0)
(0.141238 -0.00137057 0)
(0.141526 -0.00121876 0)
(0.141781 -0.0010664 0)
(0.142001 -0.000913612 0)
(0.142188 -0.000760537 0)
(0.14234 -0.000607305 0)
(0.142458 -0.000454048 0)
(0.142541 -0.000300898 0)
(0.142591 -0.000147985 0)
(0.142606 4.56018e-06 0)
(0.142587 0.00015661 0)
(0.142535 0.000308037 0)
(0.142448 0.000458717 0)
(0.142328 0.000608529 0)
(0.142175 0.000757352 0)
(0.141988 0.000905071 0)
(0.141769 0.00105157 0)
(0.141517 0.00119674 0)