/*--------------------------------*- C++ -*----------------------------------*\
| =========                 |                                                 |
| \\      /  F ield         | OpenFOAM: The Open Source CFD Toolbox           |
|  \\    /   O peration     | Version:  v2012                                 |
|   \\  /    A nd           | Website:  www.openfoam.com                      |
|    \\/     M anipulation  |                                                 |
\*---------------------------------------------------------------------------*/
FoamFile
{
    version     2.0;
    format      ascii;
    class       volScalarField;
    location    "12.7";
    object      W;
}
// * * * * * * * * * * * * * * * * * * * * * * * * * * * * * * * * * * * * * //

dimensions      [0 0 -1 0 0 0 0];


internalField   nonuniform List<scalar> 
65536
(
2.09658e-17
6.32607e-17
1.06657e-16
1.51916e-16
1.99834e-16
2.51244e-16
3.07036e-16
3.68166e-16
4.35671e-16
5.10683e-16
5.94447e-16
6.88336e-16
7.93873e-16
9.12744e-16
1.04683e-15
1.19822e-15
1.36924e-15
1.56249e-15
1.78086e-15
2.02759e-15
2.30625e-15
2.62086e-15
2.97587e-15
3.37621e-15
3.82739e-15
4.33551e-15
4.90731e-15
5.5503e-15
6.27274e-15
7.08379e-15
7.99352e-15
9.01306e-15
1.01546e-14
1.14317e-14
1.28591e-14
1.44528e-14
1.62307e-14
1.82121e-14
2.04181e-14
2.28716e-14
2.55978e-14
2.86237e-14
3.19788e-14
3.56949e-14
3.98065e-14
4.43507e-14
4.93674e-14
5.48995e-14
6.0993e-14
6.76972e-14
7.50645e-14
8.31511e-14
9.20163e-14
1.01723e-13
1.12339e-13
1.23934e-13
1.36582e-13
1.50362e-13
1.65355e-13
1.81646e-13
1.99324e-13
2.18481e-13
2.39213e-13
2.61618e-13
2.85796e-13
3.11852e-13
3.39891e-13
3.7002e-13
4.02346e-13
4.36978e-13
4.74026e-13
5.13596e-13
5.55796e-13
6.0073e-13
6.485e-13
6.99203e-13
7.52932e-13
8.09776e-13
8.69816e-13
9.33124e-13
9.99767e-13
1.0698e-12
1.14327e-12
1.2202e-12
1.30063e-12
1.38456e-12
1.47197e-12
1.56286e-12
1.65718e-12
1.75487e-12
1.85587e-12
1.96009e-12
2.06741e-12
2.17772e-12
2.29085e-12
2.40666e-12
2.52495e-12
2.64553e-12
2.76816e-12
2.89261e-12
3.01863e-12
3.14593e-12
3.27422e-12
3.40321e-12
3.53256e-12
3.66194e-12
3.79101e-12
3.91941e-12
4.04676e-12
4.17271e-12
4.29686e-12
4.41884e-12
4.53825e-12
4.6547e-12
4.7678e-12
4.87717e-12
4.98242e-12
5.08317e-12
5.17905e-12
5.26968e-12
5.35472e-12
5.43382e-12
5.50666e-12
5.5729e-12
5.63225e-12
5.68442e-12
5.72916e-12
5.76619e-12
5.79532e-12
5.81631e-12
5.82901e-12
5.83324e-12
5.82888e-12
5.81582e-12
5.79399e-12
5.76335e-12
5.72387e-12
5.67558e-12
5.61852e-12
5.55279e-12
5.47849e-12
5.3958e-12
5.3049e-12
5.20602e-12
5.09943e-12
4.98545e-12
4.86442e-12
4.73673e-12
4.6028e-12
4.46309e-12
4.31811e-12
4.16838e-12
4.01447e-12
3.85697e-12
3.6965e-12
3.5337e-12
3.36924e-12
3.20378e-12
3.03801e-12
2.87262e-12
2.70829e-12
2.5457e-12
2.3855e-12
2.22835e-12
2.07486e-12
1.9256e-12
1.78113e-12
1.64195e-12
1.50851e-12
1.38121e-12
1.2604e-12
1.14637e-12
1.03933e-12
9.39457e-13
8.46852e-13
7.61556e-13
6.83549e-13
6.12756e-13
5.49044e-13
4.92231e-13
4.42085e-13
3.9833e-13
3.60652e-13
3.28702e-13
3.02099e-13
2.80437e-13
2.63291e-13
2.50217e-13
2.4076e-13
2.34459e-13
2.30848e-13
2.29464e-13
2.29853e-13
2.3157e-13
2.34187e-13
2.37298e-13
2.40525e-13
2.4352e-13
2.45971e-13
2.47608e-13
2.48205e-13
2.47582e-13
2.45608e-13
2.42204e-13
2.37338e-13
2.31027e-13
2.23332e-13
2.14357e-13
2.04237e-13
1.9314e-13
1.81251e-13
1.68775e-13
1.55918e-13
1.42889e-13
1.29889e-13
1.17105e-13
1.04704e-13
9.28323e-14
8.16112e-14
7.11342e-14
6.14685e-14
5.26549e-14
4.47101e-14
3.7629e-14
3.13878e-14
2.59473e-14
2.12562e-14
1.7255e-14
1.38789e-14
1.10606e-14
8.73293e-15
6.83084e-15
5.29295e-15
4.06261e-15
3.0887e-15
2.32586e-15
1.73464e-15
1.28123e-15
9.37171e-16
6.78833e-16
4.86897e-16
3.45798e-16
2.43164e-16
1.69296e-16
1.16692e-16
7.96284e-17
5.3789e-17
3.59648e-17
2.3798e-17
1.55772e-17
1.00749e-17
6.41962e-18
3.99735e-18
2.37621e-18
1.24888e-18
3.88228e-19
7.2817e-17
2.19713e-16
3.70438e-16
5.27642e-16
6.94085e-16
8.72669e-16
1.06649e-15
1.27886e-15
1.51339e-15
1.77402e-15
2.06508e-15
2.39134e-15
2.7581e-15
3.17122e-15
3.63724e-15
4.16343e-15
4.75789e-15
5.42965e-15
6.18879e-15
7.04652e-15
8.01534e-15
9.10916e-15
1.03435e-14
1.17355e-14
1.33043e-14
1.50711e-14
1.70594e-14
1.92953e-14
2.18074e-14
2.46277e-14
2.77911e-14
3.13364e-14
3.53059e-14
3.97465e-14
4.47093e-14
5.02505e-14
5.64316e-14
6.33197e-14
7.09879e-14
7.95159e-14
8.89905e-14
9.95057e-14
1.11163e-13
1.24074e-13
1.38355e-13
1.54137e-13
1.71557e-13
1.90762e-13
2.11911e-13
2.35174e-13
2.60732e-13
2.88777e-13
3.19512e-13
3.53156e-13
3.89936e-13
4.30093e-13
4.73881e-13
5.21565e-13
5.73424e-13
6.29747e-13
6.90835e-13
7.56999e-13
8.2856e-13
9.05851e-13
9.89208e-13
1.07898e-12
1.17551e-12
1.27917e-12
1.3903e-12
1.50926e-12
1.63641e-12
1.77211e-12
1.91668e-12
2.07048e-12
2.23382e-12
2.40701e-12
2.59034e-12
2.78408e-12
2.98847e-12
3.20372e-12
3.43002e-12
3.66753e-12
3.91634e-12
4.17653e-12
4.44812e-12
4.7311e-12
5.02538e-12
5.33084e-12
5.6473e-12
5.97452e-12
6.3122e-12
6.65998e-12
7.01744e-12
7.38409e-12
7.75938e-12
8.14271e-12
8.53339e-12
8.93071e-12
9.33386e-12
9.74199e-12
1.01542e-11
1.05695e-11
1.0987e-11
1.14054e-11
1.18239e-11
1.22412e-11
1.26561e-11
1.30676e-11
1.34743e-11
1.3875e-11
1.42685e-11
1.46536e-11
1.50289e-11
1.53933e-11
1.57455e-11
1.60843e-11
1.64085e-11
1.67168e-11
1.70083e-11
1.72816e-11
1.75359e-11
1.777e-11
1.79829e-11
1.81738e-11
1.83418e-11
1.8486e-11
1.86057e-11
1.87003e-11
1.8769e-11
1.88115e-11
1.88271e-11
1.88156e-11
1.87767e-11
1.87101e-11
1.86157e-11
1.84934e-11
1.83435e-11
1.81659e-11
1.79611e-11
1.77293e-11
1.7471e-11
1.7187e-11
1.68777e-11
1.65441e-11
1.61871e-11
1.58078e-11
1.54072e-11
1.49868e-11
1.45477e-11
1.40917e-11
1.36202e-11
1.31349e-11
1.26377e-11
1.21304e-11
1.1615e-11
1.10934e-11
1.05677e-11
1.00401e-11
9.51257e-12
8.98728e-12
8.46634e-12
7.95181e-12
7.44571e-12
6.95e-12
6.46655e-12
5.9971e-12
5.54331e-12
5.10668e-12
4.68855e-12
4.29012e-12
3.9124e-12
3.55621e-12
3.2222e-12
2.91083e-12
2.62235e-12
2.35685e-12
2.11422e-12
1.89417e-12
1.69625e-12
1.51985e-12
1.36423e-12
1.22849e-12
1.11163e-12
1.01255e-12
9.3005e-13
8.62855e-13
8.09631e-13
7.68997e-13
7.39539e-13
7.19822e-13
7.08408e-13
7.03864e-13
7.04785e-13
7.09801e-13
7.17595e-13
7.2692e-13
7.36611e-13
7.45602e-13
7.52937e-13
7.57789e-13
7.59464e-13
7.57413e-13
7.51239e-13
7.40698e-13
7.25696e-13
7.06286e-13
6.82657e-13
6.55123e-13
6.24105e-13
5.9011e-13
5.53711e-13
5.15528e-13
4.76195e-13
4.3635e-13
3.96602e-13
3.57523e-13
3.19627e-13
2.83356e-13
2.49079e-13
2.1708e-13
1.87564e-13
1.60655e-13
1.36402e-13
1.14789e-13
9.57411e-14
7.91392e-14
6.48261e-14
5.26194e-14
4.23206e-14
3.37244e-14
2.66253e-14
2.08247e-14
1.61352e-14
1.23838e-14
9.41453e-15
7.08895e-15
5.28668e-15
3.90463e-15
2.85595e-15
2.06858e-15
1.48364e-15
1.05365e-15
7.40892e-16
5.15805e-16
3.55522e-16
2.42593e-16
1.63867e-16
1.09563e-16
7.24959e-17
4.74517e-17
3.06899e-17
1.95549e-17
1.21762e-17
7.23803e-18
3.80414e-18
1.18258e-18
1.58514e-16
4.78294e-16
8.06422e-16
1.14868e-15
1.51108e-15
1.89995e-15
2.32203e-15
2.78457e-15
3.29543e-15
3.8632e-15
4.49733e-15
5.20824e-15
6.00747e-15
6.90784e-15
7.9236e-15
9.07063e-15
1.03666e-14
1.18313e-14
1.34866e-14
1.5357e-14
1.74699e-14
1.98556e-14
2.25479e-14
2.55843e-14
2.90066e-14
3.28611e-14
3.71989e-14
4.2077e-14
4.7558e-14
5.37114e-14
6.06134e-14
6.83484e-14
7.7009e-14
8.66968e-14
9.75235e-14
1.09611e-13
1.23094e-13
1.38117e-13
1.54839e-13
1.73434e-13
1.94089e-13
2.17009e-13
2.42414e-13
2.70542e-13
3.01651e-13
3.36017e-13
3.73938e-13
4.15732e-13
4.6174e-13
5.12326e-13
5.67878e-13
6.28806e-13
6.95548e-13
7.68564e-13
8.48342e-13
9.35391e-13
1.03025e-12
1.13347e-12
1.24565e-12
1.36739e-12
1.49931e-12
1.64208e-12
1.79634e-12
1.96278e-12
2.1421e-12
2.33501e-12
2.54221e-12
2.76441e-12
3.00234e-12
3.25669e-12
3.52817e-12
3.81745e-12
4.12519e-12
4.45203e-12
4.79855e-12
5.16533e-12
5.55285e-12
5.96158e-12
6.39192e-12
6.84418e-12
7.31862e-12
7.8154e-12
8.33461e-12
8.87623e-12
9.44014e-12
1.00261e-11
1.06338e-11
1.12628e-11
1.19126e-11
1.25823e-11
1.32712e-11
1.39784e-11
1.47027e-11
1.54431e-11
1.61981e-11
1.69662e-11
1.77461e-11
1.85358e-11
1.93337e-11
2.01379e-11
2.09463e-11
2.1757e-11
2.25676e-11
2.3376e-11
2.41799e-11
2.4977e-11
2.57649e-11
2.65411e-11
2.73033e-11
2.8049e-11
2.87759e-11
2.94814e-11
3.01633e-11
3.08193e-11
3.1447e-11
3.20442e-11
3.26088e-11
3.31388e-11
3.36321e-11
3.40869e-11
3.45014e-11
3.4874e-11
3.52031e-11
3.54873e-11
3.57253e-11
3.59159e-11
3.60582e-11
3.61511e-11
3.61941e-11
3.61864e-11
3.61277e-11
3.60177e-11
3.58561e-11
3.56432e-11
3.5379e-11
3.50639e-11
3.46984e-11
3.42833e-11
3.38194e-11
3.33078e-11
3.27497e-11
3.21465e-11
3.14998e-11
3.08114e-11
3.00833e-11
2.93176e-11
2.85167e-11
2.76831e-11
2.68195e-11
2.59288e-11
2.50139e-11
2.4078e-11
2.31245e-11
2.21567e-11
2.11782e-11
2.01927e-11
1.92037e-11
1.82151e-11
1.72305e-11
1.62536e-11
1.52881e-11
1.43375e-11
1.34055e-11
1.24952e-11
1.16098e-11
1.07524e-11
9.92559e-12
9.13192e-12
8.3736e-12
7.65252e-12
6.97028e-12
6.32817e-12
5.72712e-12
5.16775e-12
4.65034e-12
4.17484e-12
3.74089e-12
3.34783e-12
2.99471e-12
2.68032e-12
2.40319e-12
2.16164e-12
1.9538e-12
1.77763e-12
1.63092e-12
1.51137e-12
1.41656e-12
1.34401e-12
1.29119e-12
1.25555e-12
1.23454e-12
1.22562e-12
1.2263e-12
1.2342e-12
1.24699e-12
1.26249e-12
1.27866e-12
1.29366e-12
1.30581e-12
1.31369e-12
1.31608e-12
1.31204e-12
1.30089e-12
1.2822e-12
1.25583e-12
1.22185e-12
1.18062e-12
1.13267e-12
1.07873e-12
1.01969e-12
9.56543e-13
8.90349e-13
8.22213e-13
7.5323e-13
6.84455e-13
6.16871e-13
5.51361e-13
4.88688e-13
4.29481e-13
3.74231e-13
3.23284e-13
2.76851e-13
2.35013e-13
1.97739e-13
1.64898e-13
1.36282e-13
1.11616e-13
9.05844e-14
7.28442e-14
5.80395e-14
4.58157e-14
3.58295e-14
2.77575e-14
2.13014e-14
1.6192e-14
1.21909e-14
9.09053e-15
6.71338e-15
4.90986e-15
3.55593e-15
2.55018e-15
1.81093e-15
1.27329e-15
8.86391e-16
6.1091e-16
4.16832e-16
2.81545e-16
1.88233e-16
1.24545e-16
8.15162e-17
5.27192e-17
3.35904e-17
2.09151e-17
1.24325e-17
6.53413e-18
2.03125e-18
3.15651e-16
9.52446e-16
1.6059e-15
2.28755e-15
3.00938e-15
3.78405e-15
4.62498e-15
5.54666e-15
6.56479e-15
7.69651e-15
8.9607e-15
1.03782e-14
1.1972e-14
1.37678e-14
1.5794e-14
1.80824e-14
2.06683e-14
2.35912e-14
2.6895e-14
3.06287e-14
3.48467e-14
3.96099e-14
4.49858e-14
5.10495e-14
5.78844e-14
6.5583e-14
7.42477e-14
8.3992e-14
9.49414e-14
1.07234e-13
1.21023e-13
1.36476e-13
1.53778e-13
1.73132e-13
1.9476e-13
2.18906e-13
2.45836e-13
2.7584e-13
3.09234e-13
3.46362e-13
3.87597e-13
4.33345e-13
4.8404e-13
5.40157e-13
6.02202e-13
6.70723e-13
7.46305e-13
8.29576e-13
9.21205e-13
1.02191e-12
1.13244e-12
1.25361e-12
1.38626e-12
1.53129e-12
1.68964e-12
1.86231e-12
2.05032e-12
2.25475e-12
2.47672e-12
2.71738e-12
2.97793e-12
3.25958e-12
3.56358e-12
3.89121e-12
4.24375e-12
4.6225e-12
5.02875e-12
5.46379e-12
5.9289e-12
6.42532e-12
6.95426e-12
7.51689e-12
8.11432e-12
8.74757e-12
9.41759e-12
1.01252e-11
1.08713e-11
1.16562e-11
1.24807e-11
1.3345e-11
1.42492e-11
1.51933e-11
1.61772e-11
1.72004e-11
1.82624e-11
1.93623e-11
2.04991e-11
2.16715e-11
2.2878e-11
2.41167e-11
2.53859e-11
2.66832e-11
2.80061e-11
2.9352e-11
3.0718e-11
3.21009e-11
3.34975e-11
3.49043e-11
3.63175e-11
3.77333e-11
3.91478e-11
4.05569e-11
4.19564e-11
4.3342e-11
4.47095e-11
4.60545e-11
4.73727e-11
4.86598e-11
4.99114e-11
5.11234e-11
5.22917e-11
5.34122e-11
5.44811e-11
5.54945e-11
5.6449e-11
5.7341e-11
5.81675e-11
5.89253e-11
5.96118e-11
6.02243e-11
6.07606e-11
6.12185e-11
6.15963e-11
6.18924e-11
6.21053e-11
6.22342e-11
6.22781e-11
6.22366e-11
6.21093e-11
6.18962e-11
6.15976e-11
6.12139e-11
6.07458e-11
6.01944e-11
5.95608e-11
5.88466e-11
5.80534e-11
5.71834e-11
5.62386e-11
5.52217e-11
5.41352e-11
5.29822e-11
5.1766e-11
5.04899e-11
4.91577e-11
4.77733e-11
4.63409e-11
4.48648e-11
4.33498e-11
4.18005e-11
4.0222e-11
3.86194e-11
3.69981e-11
3.53636e-11
3.37212e-11
3.20768e-11
3.04359e-11
2.88041e-11
2.71871e-11
2.55905e-11
2.40196e-11
2.24798e-11
2.09759e-11
1.9513e-11
1.80954e-11
1.67273e-11
1.54126e-11
1.41546e-11
1.29562e-11
1.182e-11
1.07479e-11
9.74156e-12
8.80188e-12
7.92939e-12
7.12412e-12
6.38561e-12
5.71292e-12
5.1047e-12
4.55915e-12
4.07413e-12
3.64712e-12
3.27532e-12
2.95563e-12
2.68476e-12
2.45918e-12
2.27522e-12
2.1291e-12
2.01694e-12
1.93483e-12
1.87882e-12
1.845e-12
1.82952e-12
1.82859e-12
1.83858e-12
1.856e-12
1.87757e-12
1.90023e-12
1.92122e-12
1.93805e-12
1.94859e-12
1.95105e-12
1.94403e-12
1.92653e-12
1.89794e-12
1.85803e-12
1.80695e-12
1.74521e-12
1.67362e-12
1.59327e-12
1.50548e-12
1.4117e-12
1.31351e-12
1.21255e-12
1.11043e-12
1.0087e-12
9.08794e-13
8.12021e-13
7.19493e-13
6.32132e-13
5.5065e-13
4.7555e-13
4.07133e-13
3.45515e-13
2.90639e-13
2.4231e-13
2.0021e-13
1.63935e-13
1.33016e-13
1.06943e-13
8.51899e-14
6.72343e-14
5.25695e-14
4.07186e-14
3.12423e-14
2.37444e-14
1.78741e-14
1.33264e-14
9.84009e-15
7.19558e-15
5.21064e-15
3.7364e-15
2.65297e-15
1.86513e-15
1.29826e-15
8.94685e-16
6.10398e-16
4.12252e-16
2.75599e-16
1.82337e-16
1.19334e-16
7.71729e-17
4.91687e-17
3.06136e-17
1.81969e-17
9.56355e-18
2.97298e-18
6.0972e-16
1.8398e-15
3.10214e-15
4.41907e-15
5.81384e-15
7.3109e-15
8.93632e-15
1.07181e-14
1.26868e-14
1.48755e-14
1.73208e-14
2.00632e-14
2.31474e-14
2.6623e-14
3.05453e-14
3.4976e-14
3.99836e-14
4.56446e-14
5.20444e-14
5.9278e-14
6.74514e-14
7.66824e-14
8.71023e-14
9.88568e-14
1.12108e-13
1.27035e-13
1.43837e-13
1.62735e-13
1.83971e-13
2.07814e-13
2.34561e-13
2.64537e-13
2.981e-13
3.35644e-13
3.77599e-13
4.24437e-13
4.76672e-13
5.34866e-13
5.9963e-13
6.71627e-13
7.51577e-13
8.40259e-13
9.38516e-13
1.04725e-12
1.16745e-12
1.30015e-12
1.44648e-12
1.60764e-12
1.7849e-12
1.97963e-12
2.19327e-12
2.42733e-12
2.68344e-12
2.96329e-12
3.26864e-12
3.60135e-12
3.96334e-12
4.35664e-12
4.7833e-12
5.24545e-12
5.74529e-12
6.28504e-12
6.86698e-12
7.49339e-12
8.16658e-12
8.88884e-12
9.66244e-12
1.04896e-11
1.13726e-11
1.23134e-11
1.33141e-11
1.43766e-11
1.55025e-11
1.66936e-11
1.79511e-11
1.92762e-11
2.06698e-11
2.21326e-11
2.3665e-11
2.52669e-11
2.69381e-11
2.86779e-11
3.04853e-11
3.23587e-11
3.42965e-11
3.62962e-11
3.83552e-11
4.04704e-11
4.26381e-11
4.48543e-11
4.71146e-11
4.94141e-11
5.17476e-11
5.41093e-11
5.64933e-11
5.88931e-11
6.13021e-11
6.37134e-11
6.61198e-11
6.85139e-11
7.08881e-11
7.32349e-11
7.55464e-11
7.78151e-11
8.00331e-11
8.21928e-11
8.42868e-11
8.63076e-11
8.82482e-11
9.01016e-11
9.18614e-11
9.3521e-11
9.50748e-11
9.6517e-11
9.78427e-11
9.9047e-11
1.00126e-10
1.01075e-10
1.01892e-10
1.02574e-10
1.03117e-10
1.03521e-10
1.03785e-10
1.03906e-10
1.03885e-10
1.03721e-10
1.03416e-10
1.02971e-10
1.02385e-10
1.01662e-10
1.00804e-10
9.98125e-11
9.8691e-11
9.74428e-11
9.60714e-11
9.45808e-11
9.29753e-11
9.12594e-11
8.9438e-11
8.75163e-11
8.54998e-11
8.33941e-11
8.12053e-11
7.89397e-11
7.66038e-11
7.42043e-11
7.17483e-11
6.92429e-11
6.66956e-11
6.41141e-11
6.15059e-11
5.88792e-11
5.62418e-11
5.36019e-11
5.09676e-11
4.8347e-11
4.57483e-11
4.31793e-11
4.06481e-11
3.81621e-11
3.57288e-11
3.33553e-11
3.10483e-11
2.88141e-11
2.66584e-11
2.45866e-11
2.26035e-11
2.0713e-11
1.89186e-11
1.72231e-11
1.56286e-11
1.41364e-11
1.27472e-11
1.1461e-11
1.0277e-11
9.1938e-12
8.20947e-12
7.32138e-12
6.52636e-12
5.82077e-12
5.20052e-12
4.66114e-12
4.19779e-12
3.80537e-12
3.47856e-12
3.21184e-12
2.99958e-12
2.83608e-12
2.71559e-12
2.63241e-12
2.58087e-12
2.55543e-12
2.5507e-12
2.56151e-12
2.58293e-12
2.61032e-12
2.6394e-12
2.66628e-12
2.68751e-12
2.70012e-12
2.70163e-12
2.69013e-12
2.66422e-12
2.62307e-12
2.5664e-12
2.49443e-12
2.40788e-12
2.30788e-12
2.19595e-12
2.07391e-12
1.94377e-12
1.80773e-12
1.66802e-12
1.52685e-12
1.38637e-12
1.24853e-12
1.11513e-12
9.87669e-13
8.67412e-13
7.5532e-13
6.5207e-13
5.58062e-13
4.7344e-13
3.98116e-13
3.31809e-13
2.74075e-13
2.24351e-13
1.81984e-13
1.46272e-13
1.16488e-13
9.19124e-14
7.18473e-14
5.56373e-14
4.26793e-14
3.24296e-14
2.4407e-14
1.81935e-14
1.34314e-14
9.81996e-15
7.10985e-15
5.09744e-15
3.61881e-15
2.54378e-15
1.77041e-15
1.21991e-15
8.32184e-16
5.61981e-16
3.75658e-16
2.48513e-16
1.62631e-16
1.05165e-16
6.69987e-17
4.17127e-17
2.47932e-17
1.30299e-17
4.0505e-18
1.15748e-15
3.49271e-15
5.88936e-15
8.38995e-15
1.10387e-14
1.38823e-14
1.69703e-14
2.03561e-14
2.40978e-14
2.82587e-14
3.29086e-14
3.81245e-14
4.39918e-14
5.06051e-14
5.80702e-14
6.65044e-14
7.60389e-14
8.68198e-14
9.90099e-14
1.12791e-13
1.28365e-13
1.45958e-13
1.6582e-13
1.88229e-13
2.13495e-13
2.41962e-13
2.74009e-13
3.10056e-13
3.5057e-13
3.96061e-13
4.47097e-13
5.04299e-13
5.6835e-13
6.40001e-13
7.20072e-13
8.09463e-13
9.09154e-13
1.02021e-12
1.1438e-12
1.28119e-12
1.43373e-12
1.60292e-12
1.79034e-12
1.99771e-12
2.22689e-12
2.47984e-12
2.7587e-12
3.06572e-12
3.4033e-12
3.774e-12
4.18052e-12
4.6257e-12
5.11256e-12
5.64422e-12
6.224e-12
6.8553e-12
7.54169e-12
8.28684e-12
9.09453e-12
9.96865e-12
1.09131e-11
1.1932e-11
1.30294e-11
1.42092e-11
1.54756e-11
1.68325e-11
1.82839e-11
1.98335e-11
2.14851e-11
2.3242e-11
2.51076e-11
2.70846e-11
2.91759e-11
3.13835e-11
3.37093e-11
3.61546e-11
3.87204e-11
4.14068e-11
4.42136e-11
4.71397e-11
5.01836e-11
5.33429e-11
5.66144e-11
5.99943e-11
6.34778e-11
6.70596e-11
7.07333e-11
7.44918e-11
7.83273e-11
8.2231e-11
8.61937e-11
9.0205e-11
9.42543e-11
9.83301e-11
1.0242e-10
1.06513e-10
1.10594e-10
1.14651e-10
1.1867e-10
1.22638e-10
1.2654e-10
1.30362e-10
1.34092e-10
1.37715e-10
1.41218e-10
1.44588e-10
1.47812e-10
1.50879e-10
1.53777e-10
1.56495e-10
1.59023e-10
1.61353e-10
1.63475e-10
1.65382e-10
1.67068e-10
1.68527e-10
1.69754e-10
1.70746e-10
1.71499e-10
1.72012e-10
1.72284e-10
1.72315e-10
1.72105e-10
1.71656e-10
1.70971e-10
1.70054e-10
1.68907e-10
1.67536e-10
1.65945e-10
1.64142e-10
1.62132e-10
1.59922e-10
1.57521e-10
1.54935e-10
1.52172e-10
1.49243e-10
1.46155e-10
1.42919e-10
1.39543e-10
1.36038e-10
1.32413e-10
1.2868e-10
1.24848e-10
1.20928e-10
1.16932e-10
1.12871e-10
1.08755e-10
1.04596e-10
1.00405e-10
9.61951e-11
9.19764e-11
8.77608e-11
8.35601e-11
7.93855e-11
7.52486e-11
7.11605e-11
6.71323e-11
6.31745e-11
5.92977e-11
5.55117e-11
5.18261e-11
4.82497e-11
4.47909e-11
4.14573e-11
3.82558e-11
3.51925e-11
3.22727e-11
2.95006e-11
2.68798e-11
2.44128e-11
2.21009e-11
1.99449e-11
1.79442e-11
1.60975e-11
1.44026e-11
1.28563e-11
1.14547e-11
1.01932e-11
9.0664e-12
8.06832e-12
7.19246e-12
6.43186e-12
5.77917e-12
5.22673e-12
4.76665e-12
4.39087e-12
4.09123e-12
3.85954e-12
3.68764e-12
3.56744e-12
3.49103e-12
3.45066e-12
3.43889e-12
3.44856e-12
3.47291e-12
3.50563e-12
3.54088e-12
3.5734e-12
3.59854e-12
3.6123e-12
3.61138e-12
3.59321e-12
3.55597e-12
3.49856e-12
3.42063e-12
3.32251e-12
3.20517e-12
3.07015e-12
2.91949e-12
2.75562e-12
2.58124e-12
2.39925e-12
2.21263e-12
2.02432e-12
1.83713e-12
1.65366e-12
1.47626e-12
1.30692e-12
1.14727e-12
9.98573e-13
8.61705e-13
7.3717e-13
6.25138e-13
5.25476e-13
4.37792e-13
3.61487e-13
2.958e-13
2.3986e-13
1.92727e-13
1.53436e-13
1.21029e-13
9.45797e-14
7.32204e-14
5.61523e-14
4.2656e-14
3.20957e-14
2.39191e-14
1.76544e-14
1.29048e-14
9.34142e-15
6.6961e-15
4.75288e-15
3.34038e-15
2.32446e-15
1.60144e-15
1.0923e-15
7.37545e-16
4.92956e-16
3.26076e-16
2.13368e-16
1.37962e-16
8.78862e-17
5.47134e-17
3.25189e-17
1.70895e-17
5.31239e-18
2.16636e-15
6.53714e-15
1.10233e-14
1.57046e-14
2.06642e-14
2.59896e-14
3.17742e-14
3.81183e-14
4.51309e-14
5.29313e-14
6.16507e-14
7.1434e-14
8.24418e-14
9.48526e-14
1.08865e-13
1.24701e-13
1.42607e-13
1.62858e-13
1.85762e-13
2.1166e-13
2.40935e-13
2.74011e-13
3.11361e-13
3.5351e-13
4.01042e-13
4.54603e-13
5.14911e-13
5.82759e-13
6.59023e-13
7.44671e-13
8.40769e-13
9.48489e-13
1.06912e-12
1.20408e-12
1.3549e-12
1.52329e-12
1.71109e-12
1.9203e-12
2.15312e-12
2.41191e-12
2.69925e-12
3.0179e-12
3.37086e-12
3.76135e-12
4.19282e-12
4.66898e-12
5.19376e-12
5.77139e-12
6.40634e-12
7.10334e-12
7.8674e-12
8.70379e-12
9.61805e-12
1.0616e-11
1.17036e-11
1.28871e-11
1.41732e-11
1.55683e-11
1.70793e-11
1.87133e-11
2.04774e-11
2.23785e-11
2.4424e-11
2.66209e-11
2.89762e-11
3.14969e-11
3.41895e-11
3.70605e-11
4.01158e-11
4.33609e-11
4.6801e-11
5.04404e-11
5.42828e-11
5.83311e-11
6.25875e-11
6.70529e-11
7.17274e-11
7.66099e-11
8.16982e-11
8.69886e-11
9.24763e-11
9.8155e-11
1.04017e-10
1.10053e-10
1.16253e-10
1.22603e-10
1.29092e-10
1.35703e-10
1.42421e-10
1.49226e-10
1.56102e-10
1.63026e-10
1.69978e-10
1.76935e-10
1.83874e-10
1.90772e-10
1.97604e-10
2.04344e-10
2.1097e-10
2.17454e-10
2.23773e-10
2.29902e-10
2.35817e-10
2.41495e-10
2.46913e-10
2.52051e-10
2.56887e-10
2.61403e-10
2.65581e-10
2.69406e-10
2.72864e-10
2.75941e-10
2.78627e-10
2.80914e-10
2.82793e-10
2.8426e-10
2.85312e-10
2.85946e-10
2.86164e-10
2.85966e-10
2.85357e-10
2.84341e-10
2.82926e-10
2.8112e-10
2.78931e-10
2.7637e-10
2.7345e-10
2.70182e-10
2.6658e-10
2.62659e-10
2.58433e-10
2.53918e-10
2.49131e-10
2.44087e-10
2.38804e-10
2.33299e-10
2.27589e-10
2.21692e-10
2.15625e-10
2.09407e-10
2.03054e-10
1.96584e-10
1.90016e-10
1.83367e-10
1.76654e-10
1.69896e-10
1.63108e-10
1.56309e-10
1.49516e-10
1.42745e-10
1.36013e-10
1.29336e-10
1.2273e-10
1.16211e-10
1.09795e-10
1.03495e-10
9.73257e-11
9.13014e-11
8.54346e-11
7.97377e-11
7.42219e-11
6.88978e-11
6.37749e-11
5.88616e-11
5.41653e-11
4.96922e-11
4.54473e-11
4.14343e-11
3.76557e-11
3.41126e-11
3.08048e-11
2.7731e-11
2.48885e-11
2.22734e-11
1.98806e-11
1.7704e-11
1.57366e-11
1.39703e-11
1.23964e-11
1.10051e-11
9.78653e-12
8.72993e-12
7.82428e-12
7.05827e-12
6.42038e-12
5.89897e-12
5.4824e-12
5.15907e-12
4.91754e-12
4.74657e-12
4.63521e-12
4.57284e-12
4.5493e-12
4.55489e-12
4.5805e-12
4.61764e-12
4.65852e-12
4.69615e-12
4.72437e-12
4.7379e-12
4.73242e-12
4.70457e-12
4.65199e-12
4.57328e-12
4.46801e-12
4.33666e-12
4.18053e-12
4.00167e-12
3.80275e-12
3.58696e-12
3.35785e-12
3.11919e-12
2.87485e-12
2.62864e-12
2.38421e-12
2.14493e-12
1.9138e-12
1.69339e-12
1.48578e-12
1.29257e-12
1.11488e-12
9.53312e-13
8.0807e-13
6.78949e-13
5.65418e-13
4.66679e-13
3.81727e-13
3.09419e-13
2.48527e-13
1.97791e-13
1.55962e-13
1.21839e-13
9.42939e-14
7.22916e-14
5.49003e-14
4.12973e-14
3.07685e-14
2.27041e-14
1.6592e-14
1.20078e-14
8.60553e-15
6.10695e-15
4.29122e-15
2.98557e-15
2.05657e-15
1.40252e-15
9.46873e-16
6.32781e-16
4.18515e-16
2.73826e-16
1.77036e-16
1.12768e-16
7.01983e-17
4.17199e-17
2.1924e-17
6.81509e-18
4.00067e-15
1.20725e-14
2.03582e-14
2.90058e-14
3.81692e-14
4.80109e-14
5.8704e-14
7.04345e-14
8.34051e-14
9.7837e-14
1.13974e-13
1.32085e-13
1.52469e-13
1.75458e-13
2.01421e-13
2.30771e-13
2.63966e-13
3.01519e-13
3.44002e-13
3.92052e-13
4.4638e-13
5.07777e-13
5.77123e-13
6.55398e-13
7.43689e-13
8.43202e-13
9.55272e-13
1.08138e-12
1.22316e-12
1.38241e-12
1.56111e-12
1.76147e-12
1.98586e-12
2.23694e-12
2.51757e-12
2.8309e-12
3.18038e-12
3.56974e-12
4.00303e-12
4.48468e-12
5.01944e-12
5.61247e-12
6.26932e-12
6.99594e-12
7.79872e-12
8.68452e-12
9.66063e-12
1.07348e-11
1.19153e-11
1.32108e-11
1.46305e-11
1.61841e-11
1.78816e-11
1.97337e-11
2.17512e-11
2.39456e-11
2.63286e-11
2.89121e-11
3.17084e-11
3.473e-11
3.79895e-11
4.14993e-11
4.5272e-11
4.93201e-11
5.36554e-11
5.82899e-11
6.32345e-11
6.84998e-11
7.40955e-11
8.00302e-11
8.63117e-11
9.29461e-11
9.99383e-11
1.07292e-10
1.15008e-10
1.23086e-10
1.31524e-10
1.40317e-10
1.49458e-10
1.58937e-10
1.68743e-10
1.7886e-10
1.89272e-10
1.99958e-10
2.10896e-10
2.2206e-10
2.33422e-10
2.44952e-10
2.56617e-10
2.6838e-10
2.80205e-10
2.92053e-10
3.03882e-10
3.1565e-10
3.27314e-10
3.38829e-10
3.5015e-10
3.61233e-10
3.72032e-10
3.82504e-10
3.92605e-10
4.02293e-10
4.11527e-10
4.20268e-10
4.28481e-10
4.3613e-10
4.43185e-10
4.49617e-10
4.554e-10
4.60513e-10
4.64936e-10
4.68656e-10
4.71659e-10
4.73939e-10
4.75489e-10
4.76311e-10
4.76405e-10
4.75778e-10
4.74439e-10
4.72398e-10
4.69672e-10
4.66277e-10
4.62233e-10
4.57561e-10
4.52287e-10
4.46434e-10
4.40031e-10
4.33105e-10
4.25686e-10
4.17804e-10
4.0949e-10
4.00776e-10
3.91692e-10
3.82272e-10
3.72545e-10
3.62545e-10
3.52302e-10
3.41847e-10
3.31212e-10
3.20426e-10
3.09519e-10
2.98519e-10
2.87456e-10
2.76357e-10
2.65249e-10
2.54159e-10
2.43112e-10
2.32133e-10
2.21246e-10
2.10476e-10
1.99844e-10
1.89373e-10
1.79084e-10
1.68997e-10
1.59131e-10
1.49505e-10
1.40136e-10
1.3104e-10
1.22233e-10
1.13727e-10
1.05536e-10
9.76707e-11
9.01404e-11
8.29533e-11
7.6116e-11
6.96333e-11
6.35083e-11
5.77426e-11
5.23358e-11
4.72861e-11
4.25897e-11
3.82414e-11
3.42343e-11
3.05601e-11
2.7209e-11
2.41699e-11
2.14306e-11
1.89779e-11
1.67975e-11
1.48745e-11
1.31934e-11
1.17381e-11
1.04923e-11
9.43944e-12
8.56277e-12
7.84571e-12
7.27176e-12
6.82468e-12
6.48853e-12
6.24782e-12
6.08753e-12
5.99326e-12
5.95123e-12
5.94843e-12
5.97268e-12
6.0127e-12
6.0582e-12
6.09997e-12
6.12992e-12
6.14119e-12
6.12817e-12
6.08652e-12
6.01321e-12
5.90649e-12
5.76585e-12
5.59195e-12
5.38652e-12
5.15225e-12
4.89262e-12
4.61176e-12
4.31426e-12
4.00498e-12
3.68887e-12
3.37084e-12
3.05553e-12
2.74725e-12
2.4498e-12
2.16643e-12
1.89979e-12
1.65188e-12
1.42405e-12
1.21707e-12
1.03115e-12
8.65974e-13
7.20842e-13
5.94698e-13
4.86235e-13
3.93969e-13
3.16312e-13
2.51642e-13
1.98351e-13
1.54899e-13
1.19839e-13
9.1846e-14
6.97286e-14
5.24358e-14
3.9056e-14
2.88116e-14
2.10498e-14
1.52302e-14
1.09124e-14
7.74229e-15
5.43922e-15
3.78354e-15
2.60577e-15
1.77675e-15
1.19934e-15
8.01384e-16
5.29958e-16
3.46699e-16
2.24126e-16
1.4275e-16
8.88555e-17
5.28049e-17
2.7748e-17
8.62531e-18
7.29162e-15
2.2004e-14
3.71077e-14
5.28737e-14
6.95841e-14
8.75361e-14
1.07047e-13
1.28457e-13
1.52138e-13
1.78497e-13
2.07979e-13
2.41079e-13
2.78345e-13
3.20387e-13
3.67883e-13
4.2159e-13
4.82353e-13
5.51114e-13
6.28925e-13
7.16958e-13
8.1652e-13
9.29069e-13
1.05623e-12
1.19979e-12
1.36177e-12
1.54438e-12
1.75008e-12
1.9816e-12
2.24195e-12
2.53445e-12
2.86275e-12
3.23089e-12
3.64328e-12
4.10477e-12
4.62066e-12
5.19676e-12
5.83938e-12
6.55541e-12
7.3523e-12
8.23818e-12
9.22179e-12
1.03126e-11
1.15208e-11
1.28572e-11
1.43337e-11
1.59627e-11
1.77576e-11
1.97326e-11
2.19026e-11
2.42835e-11
2.68921e-11
2.97458e-11
3.2863e-11
3.62627e-11
3.99646e-11
4.39893e-11
4.83575e-11
5.30909e-11
5.8211e-11
6.374e-11
6.97e-11
7.61128e-11
8.30003e-11
9.03836e-11
9.82835e-11
1.06719e-10
1.1571e-10
1.25272e-10
1.35422e-10
1.46171e-10
1.57533e-10
1.69514e-10
1.8212e-10
1.95355e-10
2.09216e-10
2.237e-10
2.38796e-10
2.54493e-10
2.70773e-10
2.87613e-10
3.04987e-10
3.22863e-10
3.41204e-10
3.59968e-10
3.7911e-10
3.98578e-10
4.18316e-10
4.38264e-10
4.58357e-10
4.78528e-10
4.98705e-10
5.18813e-10
5.38777e-10
5.58517e-10
5.77953e-10
5.97004e-10
6.15591e-10
6.33633e-10
6.5105e-10
6.67768e-10
6.8371e-10
6.98807e-10
7.1299e-10
7.26198e-10
7.38371e-10
7.49458e-10
7.59411e-10
7.6819e-10
7.75761e-10
7.82095e-10
7.87171e-10
7.90976e-10
7.93501e-10
7.94745e-10
7.94714e-10
7.9342e-10
7.90881e-10
7.87121e-10
7.82168e-10
7.76057e-10
7.68826e-10
7.60518e-10
7.51179e-10
7.40859e-10
7.29609e-10
7.17485e-10
7.04542e-10
6.90838e-10
6.76431e-10
6.6138e-10
6.45745e-10
6.29583e-10
6.12953e-10
5.95913e-10
5.7852e-10
5.60828e-10
5.42892e-10
5.24764e-10
5.06495e-10
4.88134e-10
4.69729e-10
4.51324e-10
4.32965e-10
4.14693e-10
3.96547e-10
3.78567e-10
3.60788e-10
3.43245e-10
3.25972e-10
3.09e-10
2.92358e-10
2.76075e-10
2.60175e-10
2.44685e-10
2.29626e-10
2.15019e-10
2.00884e-10
1.87239e-10
1.74097e-10
1.61474e-10
1.49381e-10
1.37827e-10
1.26819e-10
1.16363e-10
1.06461e-10
9.71157e-11
8.8324e-11
8.00827e-11
7.23859e-11
6.52255e-11
5.85914e-11
5.24714e-11
4.68514e-11
4.17155e-11
3.70463e-11
3.28246e-11
2.90303e-11
2.5642e-11
2.26374e-11
1.99935e-11
1.76867e-11
1.56931e-11
1.39887e-11
1.25495e-11
1.13514e-11
1.03709e-11
9.5848e-12
8.97038e-12
8.50564e-12
8.1693e-12
7.94092e-12
7.80099e-12
7.73101e-12
7.7136e-12
7.73255e-12
7.77298e-12
7.82135e-12
7.8656e-12
7.89522e-12
7.9013e-12
7.87661e-12
7.8156e-12
7.7144e-12
7.57084e-12
7.3843e-12
7.15572e-12
6.88737e-12
6.58274e-12
6.24634e-12
5.88348e-12
5.50003e-12
5.1022e-12
4.69633e-12
4.28862e-12
3.88498e-12
3.49083e-12
3.11098e-12
2.74952e-12
2.40973e-12
2.0941e-12
1.8043e-12
1.54125e-12
1.30513e-12
1.09553e-12
9.11486e-13
7.51632e-13
6.14271e-13
4.97493e-13
3.99262e-13
3.17504e-13
2.50168e-13
1.95291e-13
1.51034e-13
1.15714e-13
8.78201e-14
6.60196e-14
4.91587e-14
3.6254e-14
2.64799e-14
1.9154e-14
1.37204e-14
9.73231e-15
6.83577e-15
4.75401e-15
3.27351e-15
2.23165e-15
1.50616e-15
1.00624e-15
6.65339e-16
4.35211e-16
2.81314e-16
1.79157e-16
1.11508e-16
6.62623e-17
3.4818e-17
1.08227e-17
1.31175e-14
3.95859e-14
6.67618e-14
9.51346e-14
1.25214e-13
1.57539e-13
1.92681e-13
2.31259e-13
2.73943e-13
3.21471e-13
3.7465e-13
4.34377e-13
5.01646e-13
5.77562e-13
6.63358e-13
7.60407e-13
8.70242e-13
9.94577e-13
1.13532e-12
1.29461e-12
1.47481e-12
1.67858e-12
1.90887e-12
2.16896e-12
2.46248e-12
2.79349e-12
3.16646e-12
3.58636e-12
4.05866e-12
4.58942e-12
5.18529e-12
5.85362e-12
6.60244e-12
7.4406e-12
8.37774e-12
9.42443e-12
1.05922e-11
1.18935e-11
1.3342e-11
1.49524e-11
1.67406e-11
1.87238e-11
2.09205e-11
2.33506e-11
2.60352e-11
2.89971e-11
3.22604e-11
3.58507e-11
3.97953e-11
4.41226e-11
4.88627e-11
5.40472e-11
5.97089e-11
6.58818e-11
7.26014e-11
7.9904e-11
8.78267e-11
9.64074e-11
1.05685e-10
1.15697e-10
1.26483e-10
1.3808e-10
1.50527e-10
1.63859e-10
1.78111e-10
1.93316e-10
2.09505e-10
2.26703e-10
2.44937e-10
2.64225e-10
2.84582e-10
3.0602e-10
3.28542e-10
3.52148e-10
3.76828e-10
4.02568e-10
4.29345e-10
4.57127e-10
4.85877e-10
5.15545e-10
5.46075e-10
5.77403e-10
6.09453e-10
6.42142e-10
6.75379e-10
7.09064e-10
7.43088e-10
7.77337e-10
8.11687e-10
8.46011e-10
8.80176e-10
9.14042e-10
9.47471e-10
9.80318e-10
1.01244e-09
1.04369e-09
1.07393e-09
1.10302e-09
1.13082e-09
1.1572e-09
1.18203e-09
1.20521e-09
1.22662e-09
1.24615e-09
1.26373e-09
1.27928e-09
1.29272e-09
1.304e-09
1.31309e-09
1.31994e-09
1.32456e-09
1.32692e-09
1.32704e-09
1.32494e-09
1.32065e-09
1.31422e-09
1.3057e-09
1.29514e-09
1.28263e-09
1.26824e-09
1.25206e-09
1.23418e-09
1.2147e-09
1.19372e-09
1.17134e-09
1.14768e-09
1.12284e-09
1.09693e-09
1.07007e-09
1.04236e-09
1.0139e-09
9.84807e-10
9.55181e-10
9.2512e-10
8.94722e-10
8.6408e-10
8.33283e-10
8.02417e-10
7.71562e-10
7.40796e-10
7.10192e-10
6.79819e-10
6.49741e-10
6.2002e-10
5.90711e-10
5.61868e-10
5.3354e-10
5.05772e-10