/*--------------------------------*- C++ -*----------------------------------*\
| =========                 |                                                 |
| \\      /  F ield         | OpenFOAM: The Open Source CFD Toolbox           |
|  \\    /   O peration     | Version:  v2012                                 |
|   \\  /    A nd           | Website:  www.openfoam.com                      |
|    \\/     M anipulation  |                                                 |
\*---------------------------------------------------------------------------*/
FoamFile
{
    version     2.0;
    format      ascii;
    class       surfaceScalarField;
    location    "16.6";
    object      phi;
}
// * * * * * * * * * * * * * * * * * * * * * * * * * * * * * * * * * * * * * //

dimensions      [0 3 -1 0 0 0 0];
oriented        oriented;


internalField   nonuniform List<scalar> 
130560
(
3.32366e-06
-3.32366e-06
6.64751e-06
-3.32385e-06
9.97173e-06
-3.32422e-06
1.32965e-05
-3.32476e-06
1.6622e-05
-3.32549e-06
1.99484e-05
-3.3264e-06
2.32759e-05
-3.32748e-06
2.66046e-05
-3.32874e-06
2.99348e-05
-3.33017e-06
3.32665e-05
-3.33176e-06
3.66001e-05
-3.33353e-06
3.99355e-05
-3.33545e-06
4.3273e-05
-3.33752e-06
4.66128e-05
-3.33975e-06
4.99549e-05
-3.34212e-06
5.32995e-05
-3.34463e-06
5.66468e-05
-3.34727e-06
5.99968e-05
-3.35004e-06
6.33498e-05
-3.35293e-06
6.67057e-05
-3.35592e-06
7.00647e-05
-3.35901e-06
7.34269e-05
-3.3622e-06
7.67924e-05
-3.36547e-06
8.01612e-05
-3.36881e-06
8.35334e-05
-3.37221e-06
8.6909e-05
-3.37566e-06
9.02882e-05
-3.37914e-06
9.36708e-05
-3.38266e-06
9.7057e-05
-3.38618e-06
0.000100447
-3.38971e-06
0.00010384
-3.39322e-06
0.000107237
-3.3967e-06
0.000110637
-3.40013e-06
0.00011404
-3.4035e-06
0.000117447
-3.40679e-06
0.000120857
-3.40999e-06
0.00012427
-3.41307e-06
0.000127686
-3.41601e-06
0.000131105
-3.4188e-06
0.000134526
-3.42142e-06
0.00013795
-3.42384e-06
0.000141376
-3.42605e-06
0.000144804
-3.42801e-06
0.000148234
-3.42972e-06
0.000151665
-3.43113e-06
0.000155097
-3.43224e-06
0.00015853
-3.433e-06
0.000161964
-3.43341e-06
0.000165397
-3.43342e-06
0.00016883
-3.43302e-06
0.000172262
-3.43217e-06
0.000175693
-3.43084e-06
0.000179122
-3.42901e-06
0.000182549
-3.42664e-06
0.000185973
-3.42371e-06
0.000189393
-3.42018e-06
0.000192809
-3.41602e-06
0.00019622
-3.41119e-06
0.000199626
-3.40567e-06
0.000203025
-3.39943e-06
0.000206417
-3.39241e-06
0.000209802
-3.3846e-06
0.000213178
-3.37596e-06
0.000216544
-3.36645e-06
0.000219901
-3.35603e-06
0.000223245
-3.34467e-06
0.000226578
-3.33234e-06
0.000229897
-3.319e-06
0.000233201
-3.30462e-06
0.00023649
-3.28915e-06
0.000239763
-3.27257e-06
0.000243018
-3.25483e-06
0.000246254
-3.23591e-06
0.000249469
-3.21577e-06
0.000252664
-3.19437e-06
0.000255835
-3.17169e-06
0.000258983
-3.14769e-06
0.000262105
-3.12234e-06
0.000265201
-3.0956e-06
0.000268269
-3.06746e-06
0.000271306
-3.03788e-06
0.000274313
-3.00684e-06
0.000277288
-2.97431e-06
0.000280228
-2.94026e-06
0.000283133
-2.90469e-06
0.000286
-2.86755e-06
0.000288829
-2.82885e-06
0.000291617
-2.78855e-06
0.000294364
-2.74665e-06
0.000297067
-2.70314e-06
0.000299725
-2.658e-06
0.000302336
-2.61123e-06
0.000304899
-2.56283e-06
0.000307412
-2.51279e-06
0.000309873
-2.46111e-06
0.000312281
-2.4078e-06
0.000314634
-2.35286e-06
0.00031693
-2.29631e-06
0.000319168
-2.23815e-06
0.000321347
-2.17841e-06
0.000323464
-2.1171e-06
0.000325518
-2.05424e-06
0.000327508
-1.98986e-06
0.000329432
-1.92398e-06
0.000331289
-1.85665e-06
0.000333076
-1.78789e-06
0.000334794
-1.71773e-06
0.00033644
-1.64624e-06
0.000338014
-1.57343e-06
0.000339513
-1.49937e-06
0.000340937
-1.42411e-06
0.000342285
-1.34769e-06
0.000343555
-1.27017e-06
0.000344747
-1.19161e-06
0.000345859
-1.11207e-06
0.00034689
-1.03161e-06
0.000347841
-9.50303e-07
0.000348709
-8.68211e-07
0.000349494
-7.85405e-07
0.000350196
-7.01954e-07
0.000350814
-6.17932e-07
0.000351348
-5.33413e-07
0.000351796
-4.48471e-07
0.000352159
-3.63182e-07
0.000352437
-2.77625e-07
0.000352629
-1.91875e-07
0.000352735
-1.0601e-07
0.000352755
-2.01097e-08
0.000352689
6.57496e-08
0.000352538
1.5149e-07
0.000352301
2.37034e-07
0.000351978
3.22306e-07
0.000351571
4.0723e-07
0.000351079
4.91731e-07
0.000350504
5.75737e-07
0.000349844
6.59176e-07
0.000349103
7.41977e-07
0.000348278
8.24073e-07
0.000347373
9.05397e-07
0.000346387
9.85884e-07
0.000345322
1.06547e-06
0.000344178
1.14411e-06
0.000342956
1.22172e-06
0.000341658
1.29827e-06
0.000340284
1.3737e-06
0.000338836
1.44795e-06
0.000337315
1.52099e-06
0.000335722
1.59277e-06
0.000334059
1.66325e-06
0.000332327
1.73239e-06
0.000330526
1.80015e-06
0.00032866
1.86652e-06
0.000326728
1.93145e-06
0.000324734
1.99492e-06
0.000322677
2.05691e-06
0.000320559
2.1174e-06
0.000318383
2.17638e-06
0.000316149
2.23382e-06
0.000313859
2.28972e-06
0.000311515
2.34407e-06
0.000309118
2.39687e-06
0.00030667
2.4481e-06
0.000304172
2.49778e-06
0.000301627
2.5459e-06
0.000299034
2.59246e-06
0.000296397
2.63748e-06
0.000293716
2.68096e-06
0.000290993
2.72291e-06
0.000288229
2.76335e-06
0.000285427
2.80228e-06
0.000282587
2.83973e-06
0.000279712
2.87572e-06
0.000276801
2.91026e-06
0.000273858
2.94337e-06
0.000270883
2.97508e-06
0.000267878
3.00541e-06
0.000264843
3.03438e-06
0.000261781
3.06202e-06
0.000258693
3.08836e-06
0.000255579
3.11342e-06
0.000252442
3.13724e-06
0.000249282
3.15983e-06
0.000246101
3.18124e-06
0.0002429
3.20149e-06
0.000239679
3.22061e-06
0.00023644
3.23863e-06
0.000233185
3.25559e-06
0.000229913
3.27151e-06
0.000226627
3.28642e-06
0.000223326
3.30037e-06
0.000220013
3.31337e-06
0.000216688
3.32547e-06
0.000213351
3.33668e-06
0.000210004
3.34706e-06
0.000206647
3.35661e-06
0.000203282
3.36539e-06
0.000199908
3.37341e-06
0.000196528
3.3807e-06
0.00019314
3.38731e-06
0.000189747
3.39325e-06
0.000186349
3.39856e-06
0.000182945
3.40326e-06
0.000179538
3.40739e-06
0.000176127
3.41097e-06
0.000172713
3.41403e-06
0.000169296
3.41659e-06
0.000165878
3.41869e-06
0.000162457
3.42035e-06
0.000159036
3.42159e-06
0.000155613
3.42244e-06
0.00015219
3.42292e-06
0.000148767
3.42306e-06
0.000145344
3.42288e-06
0.000141922
3.4224e-06
0.0001385
3.42165e-06
0.00013508
3.42064e-06
0.00013166
3.4194e-06
0.000128242
3.41794e-06
0.000124826
3.41629e-06
0.000121412
3.41446e-06
0.000117999
3.41248e-06
0.000114589
3.41036e-06
0.000111181
3.40812e-06
0.000107775
3.40577e-06
0.000104372
3.40333e-06
0.000100971
3.40081e-06
9.75726e-05
3.39824e-06
9.4177e-05
3.39563e-06
9.0784e-05
3.39298e-06
8.73937e-05
3.39031e-06
8.40061e-05
3.38764e-06
8.06211e-05
3.38498e-06
7.72388e-05
3.38233e-06
7.3859e-05
3.37971e-06
7.04819e-05
3.37714e-06
6.71073e-05
3.37461e-06
6.37351e-05
3.37215e-06
6.03654e-05
3.36975e-06
5.6998e-05
3.36743e-06
5.36328e-05
3.36519e-06
5.02697e-05
3.36305e-06
4.69087e-05
3.36101e-06
4.35496e-05
3.35907e-06
4.01924e-05
3.35725e-06
3.68368e-05
3.35555e-06
3.34829e-05
3.35397e-06
3.01304e-05
3.35252e-06
2.67792e-05
3.3512e-06
2.34291e-05
3.35002e-06
2.00802e-05
3.34898e-06
1.67321e-05
3.34808e-06
1.33848e-05
3.34732e-06
1.0038e-05
3.34672e-06
6.69178e-06
3.34627e-06
3.34581e-06
3.34596e-06
3.34581e-06
3.32349e-06
-6.64715e-06
6.64716e-06
-6.64752e-06
9.9712e-06
-6.64826e-06
1.32958e-05
-6.64935e-06
1.66211e-05
-6.65081e-06
1.99473e-05
-6.65262e-06
2.32746e-05
-6.65479e-06
2.66032e-05
-6.65731e-06
2.99332e-05
-6.66017e-06
3.32648e-05
-6.66337e-06
3.65982e-05
-6.6669e-06
3.99335e-05
-6.67075e-06
4.32709e-05
-6.6749e-06
4.66105e-05
-6.67936e-06
4.99525e-05
-6.68411e-06
5.3297e-05
-6.68914e-06
5.66441e-05
-6.69443e-06
5.99941e-05
-6.69997e-06
6.33469e-05
-6.70575e-06
6.67027e-05
-6.71174e-06
7.00616e-05
-6.71794e-06
7.34238e-05
-6.72432e-06
7.67892e-05
-6.73087e-06
8.01579e-05
-6.73755e-06
8.35301e-05
-6.74437e-06
8.69057e-05
-6.75128e-06
9.02848e-05
-6.75827e-06
9.36675e-05
-6.76531e-06
9.70537e-05
-6.77237e-06
0.000100443
-6.77944e-06
0.000103837
-6.78647e-06
0.000107233
-6.79345e-06
0.000110634
-6.80033e-06
0.000114037
-6.80709e-06
0.000117444
-6.81369e-06
0.000120854
-6.82009e-06
0.000124267
-6.82627e-06
0.000127684
-6.83218e-06
0.000131103
-6.83779e-06
0.000134524
-6.84304e-06
0.000137948
-6.84791e-06
0.000141375
-6.85234e-06
0.000144803
-6.8563e-06
0.000148233
-6.85973e-06
0.000151664
-6.86258e-06
0.000155097
-6.86482e-06
0.00015853
-6.86638e-06
0.000161964
-6.86721e-06
0.000165398
-6.86726e-06
0.000168831
-6.86648e-06
0.000172264
-6.86481e-06
0.000175695
-6.86219e-06
0.000179125
-6.85855e-06
0.000182552
-6.85385e-06
0.000185976
-6.84802e-06
0.000189397
-6.84099e-06
0.000192814
-6.8327e-06
0.000196226
-6.82309e-06
0.000199632
-6.81208e-06
0.000203032
-6.79962e-06
0.000206426
-6.78563e-06
0.000209811
-6.77004e-06
0.000213188
-6.75278e-06
0.000216555
-6.7338e-06
0.000219912
-6.713e-06
0.000223258
-6.69032e-06
0.000226591
-6.6657e-06
0.000229911
-6.63906e-06
0.000233217
-6.61032e-06
0.000236507
-6.57942e-06
0.000239781
-6.54629e-06
0.000243037
-6.51085e-06
0.000246274
-6.47304e-06
0.000249491
-6.43279e-06
0.000252687
-6.39003e-06
0.00025586
-6.3447e-06
0.000259009
-6.29672e-06
0.000262132
-6.24605e-06
0.000265229
-6.19262e-06
0.000268298
-6.13636e-06
0.000271338
-6.07723e-06
0.000274346
-6.01517e-06
0.000277322
-5.95013e-06
0.000280264
-5.88206e-06
0.00028317
-5.81092e-06
0.000286039
-5.73667e-06
0.000288869
-5.65928e-06
0.00029166
-5.5787e-06
0.000294408
-5.49491e-06
0.000297113
-5.4079e-06
0.000299772
-5.31763e-06
0.000302385
-5.2241e-06
0.00030495
-5.12729e-06
0.000307464
-5.0272e-06
0.000309927
-4.92384e-06
0.000312336
-4.81722e-06
0.000314691
-4.70733e-06
0.000316989
-4.59422e-06
0.000319228
-4.47789e-06
0.000321408
-4.35838e-06
0.000323527
-4.23573e-06
0.000325583
-4.10999e-06
0.000327574
-3.9812e-06
0.000329499
-3.84942e-06
0.000331357
-3.71472e-06
0.000333147
-3.57715e-06
0.000334866
-3.43681e-06
0.000336513
-3.29377e-06
0.000338088
-3.14812e-06
0.000339589
-2.99995e-06
0.000341014
-2.84936e-06
0.000342363
-2.69646e-06
0.000343634
-2.54137e-06
0.000344826
-2.38419e-06
0.000345939
-2.22505e-06
0.000346972
-2.06407e-06
0.000347923
-1.90139e-06
0.000348792
-1.73713e-06
0.000349578
-1.57145e-06
0.00035028
-1.40447e-06
0.000350899
-1.23636e-06
0.000351433
-1.06724e-06
0.000351882
-8.97282e-07
0.000352245
-7.26628e-07
0.000352523
-5.55435e-07
0.000352715
-3.83858e-07
0.000352821
-2.12051e-07
0.000352841
-4.01722e-08
0.000352775
1.31624e-07
0.000352623
3.03182e-07
0.000352386
4.74347e-07
0.000352063
6.44966e-07
0.000351656
8.14888e-07
0.000351163
9.83964e-07
0.000350587
1.15205e-06
0.000349927
1.319e-06
0.000349185
1.48467e-06
0.00034836
1.64892e-06
0.000347454
1.81164e-06
0.000346467
1.97267e-06
0.0003454
2.13191e-06
0.000344255
2.28923e-06
0.000343032
2.44452e-06
0.000341733
2.59767e-06
0.000340358
2.74857e-06
0.000338909
2.89712e-06
0.000337387
3.04324e-06
0.000335793
3.18684e-06
0.000334128
3.32784e-06
0.000332394
3.46615e-06
0.000330593
3.60172e-06
0.000328725
3.73447e-06
0.000326792
3.86436e-06
0.000324795
3.99132e-06
0.000322737
4.11533e-06
0.000320618
4.23633e-06
0.00031844
4.35429e-06
0.000316205
4.46918e-06
0.000313914
4.581e-06
0.000311568
4.6897e-06
0.000309169
4.79529e-06
0.00030672
4.89777e-06
0.00030422
4.99712e-06
0.000301673
5.09335e-06
0.000299079
5.18647e-06
0.00029644
5.2765e-06
0.000293757
5.36345e-06
0.000291033
5.44734e-06
0.000288268
5.5282e-06
0.000285464
5.60605e-06
0.000282623
5.68094e-06
0.000279746
5.75289e-06
0.000276834
5.82194e-06
0.00027389
5.88814e-06
0.000270913
5.95154e-06
0.000267906
6.01217e-06
0.000264871
6.07009e-06
0.000261807
6.12535e-06
0.000258718
6.178e-06
0.000255603
6.22809e-06
0.000252465
6.27569e-06
0.000249304
6.32086e-06
0.000246121
6.36364e-06
0.000242919
6.40411e-06
0.000239697
6.44232e-06
0.000236457
6.47833e-06
0.000233201
6.51221e-06
0.000229928
6.54402e-06
0.000226641
6.57382e-06
0.000223339
6.60168e-06
0.000220025
6.62765e-06
0.000216699
6.65181e-06
0.000213361
6.67422e-06
0.000210013
6.69493e-06
0.000206656
6.71401e-06
0.00020329
6.73153e-06
0.000199916
6.74753e-06
0.000196534
6.7621e-06
0.000193146
6.77528e-06
0.000189752
6.78713e-06
0.000186353
6.79772e-06
0.000182949
6.8071e-06
0.000179541
6.81533e-06
0.00017613
6.82246e-06
0.000172715
6.82855e-06
0.000169298
6.83365e-06
0.000165879
6.83782e-06
0.000162458
6.84111e-06
0.000159036
6.84357e-06
0.000155614
6.84524e-06
0.00015219
6.84618e-06
0.000148767
6.84644e-06
0.000145344
6.84606e-06
0.000141921
6.84508e-06
0.000138499
6.84355e-06
0.000135078
6.84151e-06
0.000131659
6.839e-06
0.000128241
6.83607e-06
0.000124824
6.83275e-06
0.00012141
6.82908e-06
0.000117997
6.8251e-06
0.000114587
6.82084e-06
0.000111178
6.81633e-06
0.000107772
6.81162e-06
0.000104369
6.80672e-06
0.000100968
6.80168e-06
9.75699e-05
6.79653e-06
9.41742e-05
6.79128e-06
9.07812e-05
6.78597e-06
8.73909e-05
6.78062e-06
8.40033e-05
6.77527e-06
8.06183e-05
6.76993e-06
7.7236e-05
6.76463e-06
7.38564e-05
6.75938e-06
7.04793e-05
6.75422e-06
6.71047e-05
6.74916e-06
6.37327e-05
6.74422e-06
6.0363e-05
6.73942e-06
5.69957e-05
6.73477e-06
5.36306e-05
6.73029e-06
5.02676e-05
6.726e-06
4.69067e-05
6.72191e-06
4.35478e-05
6.71803e-06
4.01906e-05
6.71438e-06
3.68352e-05
6.71097e-06
3.34814e-05
6.7078e-06
3.0129e-05
6.7049e-06
2.67779e-05
6.70225e-06
2.34281e-05
6.69989e-06
2.00792e-05
6.6978e-06
1.67313e-05
6.696e-06
1.33841e-05
6.69449e-06
1.00376e-05
6.69328e-06
6.69147e-06
6.69238e-06
3.34566e-06
6.69177e-06
6.69147e-06
3.32312e-06
-9.97027e-06
6.64642e-06
-9.97083e-06
9.9701e-06
-9.97193e-06
1.32943e-05
-9.97358e-06
1.66193e-05
-9.97576e-06
1.99451e-05
-9.97849e-06
2.32721e-05
-9.98175e-06
2.66003e-05
-9.98554e-06
2.993e-05
-9.98984e-06
3.32613e-05
-9.99465e-06
3.65943e-05
-9.99995e-06
3.99293e-05
-1.00057e-05
4.32664e-05
-1.0012e-05
4.66057e-05
-1.00187e-05
4.99474e-05
-1.00258e-05
5.32917e-05
-1.00334e-05
5.66386e-05
-1.00413e-05
5.99882e-05
-1.00497e-05
6.33408e-05
-1.00583e-05
6.66965e-05
-1.00674e-05
7.00552e-05
-1.00767e-05
7.34172e-05
-1.00863e-05
7.67824e-05
-1.00961e-05
8.0151e-05
-1.01062e-05
8.35231e-05
-1.01164e-05
8.68986e-05
-1.01268e-05
9.02777e-05
-1.01373e-05
9.36603e-05
-1.01479e-05
9.70465e-05
-1.01586e-05
0.000100436
-1.01692e-05
0.00010383
-1.01798e-05
0.000107226
-1.01903e-05
0.000110627
-1.02006e-05
0.00011403
-1.02108e-05
0.000117438
-1.02208e-05
0.000120848
-1.02304e-05
0.000124261
-1.02397e-05
0.000127678
-1.02487e-05
0.000131097
-1.02571e-05
0.000134519
-1.02651e-05
0.000137944
-1.02724e-05
0.00014137
-1.02791e-05
0.000144799
-1.02851e-05
0.00014823
-1.02903e-05
0.000151662
-1.02947e-05
0.000155095
-1.02981e-05
0.000158529
-1.03005e-05
0.000161964
-1.03018e-05
0.000165399
-1.03019e-05
0.000168833
-1.03008e-05
0.000172266
-1.02984e-05
0.000175699
-1.02945e-05
0.000179129
-1.02892e-05
0.000182558
-1.02822e-05
0.000185983
-1.02735e-05
0.000189405
-1.02631e-05
0.000192823
-1.02507e-05
0.000196237
-1.02364e-05
0.000199644
-1.02199e-05
0.000203046
-1.02013e-05
0.000206441
-1.01804e-05
0.000209828
-1.01571e-05
0.000213207
-1.01313e-05
0.000216576
-1.0103e-05
0.000219935
-1.00718e-05
0.000223282
-1.00379e-05
0.000226618
-1.00011e-05
0.00022994
-9.9612e-06
0.000233248
-9.91818e-06
0.00023654
-9.87192e-06
0.000239816
-9.82231e-06
0.000243075
-9.76924e-06
0.000246314
-9.71261e-06
0.000249534
-9.65232e-06
0.000252732
-9.58826e-06
0.000255908
-9.52034e-06
0.000259059
-9.44846e-06
0.000262186
-9.37253e-06
0.000265286
-9.29245e-06
0.000268357
-9.20813e-06
0.0002714
-9.11951e-06
0.000274411
-9.02648e-06
0.00027739
-8.92898e-06
0.000280335
-8.82693e-06
0.000283244
-8.72027e-06
0.000286116
-8.60894e-06
0.00028895
-8.49289e-06
0.000291743
-8.37206e-06
0.000294495
-8.24641e-06
0.000297203
-8.11591e-06
0.000299866
-7.98052e-06
0.000302482
-7.84024e-06
0.00030505
-7.69503e-06
0.000307567
-7.5449e-06
0.000310033
-7.38985e-06
0.000312446
-7.22989e-06
0.000314804
-7.06504e-06
0.000317105
-6.89534e-06
0.000319348
-6.7208e-06
0.000321531
-6.5415e-06
0.000323653
-6.35747e-06
0.000325711
-6.16879e-06
0.000327706
-5.97554e-06
0.000329634
-5.77779e-06
0.000331495
-5.57565e-06
0.000333287
-5.36921e-06
0.000335009
-5.15859e-06
0.000336659
-4.94392e-06
0.000338236
-4.72532e-06
0.000339739
-4.50294e-06
0.000341167
-4.27693e-06
0.000342518
-4.04745e-06
0.000343791
-3.81465e-06
0.000344986
-3.57873e-06
0.0003461
-3.33986e-06
0.000347135
-3.09823e-06
0.000348087
-2.85404e-06
0.000348958
-2.60749e-06
0.000349745
-2.35878e-06
0.000350449
-2.10814e-06
0.000351068
-1.85578e-06
0.000351603
-1.60192e-06
0.000352052
-1.34679e-06
0.000352416
-1.09062e-06
0.000352694
-8.33634e-07
0.000352887
-5.76073e-07
0.000352993
-3.18168e-07
0.000353013
-6.01544e-08
0.000352947
1.97734e-07
0.000352794
4.55264e-07
0.000352557
7.12202e-07
0.000352233
9.6832e-07
0.000351825
1.22339e-06
0.000351332
1.47719e-06
0.000350754
1.72949e-06
0.000350093
1.98009e-06
0.000349349
2.22877e-06
0.000348522
2.47532e-06
0.000347615
2.71955e-06
0.000346626
2.96126e-06
0.000345558
3.20026e-06
0.00034441
3.43639e-06
0.000343186
3.66946e-06
0.000341884
3.8993e-06
0.000340507
4.12578e-06
0.000339055
4.34873e-06
0.00033753
4.56802e-06
0.000335934
4.78352e-06
0.000334266
4.9951e-06
0.00033253
5.20266e-06
0.000330725
5.40609e-06
0.000328855
5.60529e-06
0.000326919
5.80018e-06
0.000324919
5.99069e-06
0.000322858
6.17674e-06
0.000320736
6.35828e-06
0.000318555
6.53526e-06
0.000316317
6.70764e-06
0.000314022
6.87537e-06
0.000311674
7.03845e-06
0.000309272
7.19684e-06
0.000306819
7.35055e-06
0.000304317
7.49957e-06
0.000301766
7.64391e-06
0.000299169
7.78358e-06
0.000296527
7.9186e-06
0.000293841
8.04899e-06
0.000291114
8.1748e-06
0.000288346
8.29605e-06
0.000285539
8.41279e-06
0.000282695
8.52507e-06
0.000279815
8.63295e-06
0.000276901
8.73648e-06
0.000273953
8.83573e-06
0.000270974
8.93076e-06
0.000267964
9.02164e-06
0.000264926
9.10846e-06
0.00026186
9.19128e-06
0.000258768
9.27018e-06
0.000255651
9.34526e-06
0.00025251
9.41659e-06
0.000249346
9.48426e-06
0.000246162
9.54836e-06
0.000242957
9.60899e-06
0.000239733
9.66622e-06
0.000236491
9.72016e-06
0.000233232
9.7709e-06
0.000229958
9.81854e-06
0.000226669
9.86316e-06
0.000223365
9.90487e-06
0.000220049
9.94375e-06
0.000216721
9.97991e-06
0.000213382
1.00134e-05
0.000210032
1.00444e-05
0.000206673
1.0073e-05
0.000203306
1.00992e-05
0.00019993
1.01231e-05
0.000196547
1.01449e-05
0.000193158
1.01646e-05
0.000189763
1.01823e-05
0.000186363
1.01981e-05
0.000182958
1.02121e-05
0.000179549
1.02244e-05
0.000176136
1.0235e-05
0.000172721
1.02441e-05
0.000169303
1.02516e-05
0.000165883
1.02578e-05
0.000162461
1.02627e-05
0.000159038
1.02663e-05
0.000155615
1.02688e-05
0.000152191
1.02701e-05
0.000148767
1.02705e-05
0.000145343
1.02698e-05
0.00014192
1.02683e-05
0.000138497
1.0266e-05
0.000135076
1.02628e-05
0.000131656
1.0259e-05
0.000128237
1.02546e-05
0.000124821
1.02496e-05
0.000121406
1.0244e-05
0.000117993
1.0238e-05
0.000114582
1.02316e-05
0.000111174
1.02248e-05
0.000107768
1.02176e-05
0.000104364
1.02103e-05
0.000100963
1.02027e-05
9.75647e-05
1.01949e-05
9.4169e-05
1.0187e-05
9.07759e-05
1.0179e-05
8.73856e-05
1.01709e-05
8.3998e-05
1.01629e-05
8.06131e-05
1.01548e-05
7.72308e-05
1.01469e-05
7.38512e-05
1.0139e-05
7.04743e-05
1.01312e-05
6.70998e-05
1.01236e-05
6.37279e-05
1.01162e-05
6.03584e-05
1.01089e-05
5.69912e-05
1.01019e-05
5.36263e-05
1.00952e-05
5.02635e-05
1.00887e-05
4.69029e-05
1.00826e-05
4.35441e-05
1.00768e-05
4.01872e-05
1.00713e-05
3.68321e-05
1.00661e-05
3.34785e-05
1.00614e-05
3.01264e-05
1.0057e-05
2.67756e-05
1.0053e-05
2.3426e-05
1.00495e-05
2.00774e-05
1.00463e-05
1.67298e-05
1.00436e-05
1.33829e-05
1.00414e-05
1.00367e-05
1.00395e-05
6.69086e-06
1.00382e-05
3.34536e-06
1.00373e-05
1.00368e-05
3.32256e-06
-1.32928e-05
6.64531e-06
-1.32936e-05
9.96843e-06
-1.3295e-05
1.32921e-05
-1.32973e-05
1.66165e-05
-1.33002e-05
1.99419e-05
-1.33038e-05
2.32683e-05
-1.33082e-05
2.6596e-05
-1.33132e-05
2.99251e-05
-1.3319e-05
3.32559e-05
-1.33254e-05
3.65885e-05
-1.33325e-05
3.9923e-05
-1.33402e-05
4.32596e-05
-1.33486e-05
4.65985e-05
-1.33576e-05
4.99398e-05
-1.33671e-05
5.32836e-05
-1.33772e-05
5.66302e-05
-1.33879e-05
5.99795e-05
-1.3399e-05
6.33318e-05
-1.34106e-05
6.66871e-05
-1.34227e-05
7.00455e-05
-1.34351e-05
7.34072e-05
-1.3448e-05
7.67723e-05
-1.34611e-05
8.01407e-05
-1.34746e-05
8.35126e-05
-1.34883e-05
8.6888e-05
-1.35022e-05
9.0267e-05
-1.35163e-05
9.36496e-05
-1.35305e-05
9.70358e-05
-1.35448e-05
0.000100426
-1.3559e-05
0.000103819
-1.35732e-05
0.000107216
-1.35873e-05
0.000110616
-1.36011e-05
0.00011402
-1.36148e-05
0.000117428
-1.36281e-05
0.000120838
-1.36411e-05
0.000124252
-1.36536e-05
0.000127669
-1.36656e-05
0.000131089
-1.3677e-05
0.000134512
-1.36876e-05
0.000137937
-1.36975e-05
0.000141364
-1.37066e-05
0.000144794
-1.37147e-05
0.000148225
-1.37217e-05
0.000151658
-1.37277e-05
0.000155093
-1.37323e-05
0.000158528
-1.37357e-05
0.000161964
-1.37375e-05
0.000165399
-1.37379e-05
0.000168835
-1.37365e-05
0.00017227
-1.37334e-05
0.000175704
-1.37284e-05
0.000179136
-1.37214e-05
0.000182566
-1.37122e-05
0.000185994
-1.37008e-05
0.000189418
-1.3687e-05
0.000192838
-1.36707e-05
0.000196253
-1.36517e-05
0.000199663
-1.363e-05
0.000203067
-1.36053e-05
0.000206464
-1.35776e-05
0.000209854
-1.35467e-05
0.000213235
-1.35125e-05
0.000216607
-1.34748e-05
0.000219968
-1.34335e-05
0.000223319
-1.33884e-05
0.000226657
-1.33395e-05
0.000229983
-1.32865e-05
0.000233294
-1.32293e-05
0.00023659
-1.31678e-05
0.000239869
-1.31018e-05
0.000243131
-1.30312e-05
0.000246374
-1.29558e-05
0.000249598
-1.28756e-05
0.0002528
-1.27904e-05
0.000255979
-1.26999e-05
0.000259135
-1.26043e-05
0.000262266
-1.25032e-05
0.00026537
-1.23965e-05
0.000268446
-1.22842e-05
0.000271493
-1.21662e-05
0.000274508
-1.20423e-05
0.000277492
-1.19124e-05
0.000280441
-1.17764e-05
0.000283355
-1.16343e-05
0.000286232
-1.14859e-05
0.000289071
-1.13313e-05
0.000291869
-1.11702e-05
0.000294625
-1.10028e-05
0.000297338
-1.08288e-05
0.000300006
-1.06483e-05
0.000302627
-1.04613e-05
0.0003052
-1.02677e-05
0.000307722
-1.00675e-05
0.000310193
-9.86077e-06
0.000312611
-9.64746e-06
0.000314973
-9.42762e-06
0.000317279
-9.20128e-06
0.000319527
-8.9685e-06
0.000321715
-8.72934e-06
0.000323841
-8.48387e-06
0.000325904
-8.23218e-06
0.000327903
-7.97437e-06
0.000329836
-7.71056e-06
0.000331701
-7.44087e-06
0.000333498
-7.16544e-06
0.000335223
-6.88443e-06
0.000336877
-6.59799e-06
0.000338458
-6.30631e-06
0.000339965
-6.00957e-06
0.000341396
-5.70798e-06
0.00034275
-5.40174e-06
0.000344027
-5.09108e-06
0.000345224
-4.77623e-06
0.000346342
-4.45744e-06
0.000347379
-4.13496e-06
0.000348334
-3.80906e-06
0.000349206
-3.48e-06
0.000349995
-3.14806e-06
0.000350701
-2.81353e-06
0.000351322
-2.4767e-06
0.000351858
-2.13787e-06
0.000352308
-1.79734e-06
0.000352673
-1.45542e-06
0.000352952
-1.11241e-06
0.000353144
-7.68635e-07
0.000353251
-4.24398e-07
0.000353271
-8.00153e-08
0.000353204
2.64199e-07
0.000353051
6.07932e-07
0.000352813
9.50875e-07
0.000352488
1.29272e-06
0.000352079
1.63316e-06
0.000351584
1.9719e-06
0.000351005
2.30864e-06
0.000350342
2.6431e-06
0.000349595
2.97499e-06
0.000348767
3.30403e-06
0.000347856
3.62997e-06
0.000346865
3.95254e-06
0.000345794
4.2715e-06
0.000344644
4.5866e-06
0.000343415
4.89761e-06
0.00034211
5.20432e-06
0.00034073
5.50651e-06
0.000339274
5.804e-06
0.000337746
6.09658e-06
0.000336145
6.3841e-06
0.000334474
6.66639e-06
0.000332733
6.9433e-06
0.000330925
7.21468e-06
0.00032905
7.48042e-06
0.000327109
7.74039e-06
0.000325106
7.99451e-06
0.00032304
8.24267e-06
0.000320913
8.4848e-06
0.000318728
8.72084e-06
0.000316484
8.95072e-06
0.000314185
9.17441e-06
0.000311832
9.39187e-06
0.000309426
9.60308e-06
0.000306968
9.80802e-06
0.000304461
1.00067e-05
0.000301906
1.01991e-05
0.000299304
1.03853e-05
0.000296657
1.05653e-05
0.000293967
1.07391e-05
0.000291235
1.09068e-05
0.000288463
1.10684e-05
0.000285652
1.1224e-05
0.000282803
1.13736e-05
0.000279919
1.15174e-05
0.000277
1.16553e-05
0.000274048
1.17875e-05
0.000271065
1.19141e-05
0.000268051
1.20352e-05
0.000265009
1.21508e-05
0.000261939
1.22611e-05
0.000258843
1.23662e-05
0.000255722
1.24662e-05
0.000252578
1.25611e-05
0.000249411
1.26512e-05
0.000246222
1.27366e-05
0.000243014
1.28172e-05
0.000239787
1.28934e-05
0.000236542
1.29652e-05
0.00023328
1.30327e-05
0.000230003
1.30961e-05
0.00022671
1.31554e-05
0.000223404
1.32109e-05
0.000220086
1.32626e-05
0.000216755
1.33106e-05
0.000213413
1.33552e-05
0.000210061
1.33964e-05
0.0002067
1.34343e-05
0.00020333
1.34691e-05
0.000199952
1.35008e-05
0.000196567
1.35297e-05
0.000193176
1.35559e-05
0.000189779
1.35793e-05
0.000186377
1.36003e-05
0.00018297
1.36188e-05
0.000179559
1.3635e-05
0.000176145
1.36491e-05
0.000172728
1.3661e-05
0.000169309
1.3671e-05
0.000165888
1.36792e-05
0.000162465
1.36855e-05
0.000159041
1.36903e-05
0.000155616
1.36934e-05
0.000152191
1.36951e-05
0.000148766
1.36954e-05
0.000145342
1.36945e-05
0.000141917
1.36924e-05
0.000138494
1.36891e-05
0.000135072
1.36849e-05
0.000131652
1.36797e-05
0.000128232
1.36737e-05
0.000124815
1.36669e-05
0.0001214
1.36594e-05
0.000117986
1.36513e-05
0.000114575
1.36426e-05
0.000111167
1.36335e-05
0.00010776
1.3624e-05
0.000104357
1.3614e-05
0.000100955
1.36038e-05
9.75568e-05
1.35934e-05
9.4161e-05
1.35828e-05
9.0768e-05
1.35721e-05
8.73776e-05
1.35613e-05
8.399e-05
1.35505e-05
8.06052e-05
1.35397e-05
7.7223e-05
1.3529e-05
7.38435e-05
1.35184e-05
7.04667e-05
1.3508e-05
6.70924e-05
1.34978e-05
6.37207e-05
1.34879e-05
6.03514e-05
1.34782e-05
5.69845e-05
1.34689e-05
5.36199e-05
1.34598e-05
5.02574e-05
1.34512e-05
4.68971e-05
1.3443e-05
4.35387e-05
1.34352e-05
4.01821e-05
1.34278e-05
3.68273e-05
1.34209e-05
3.34741e-05
1.34146e-05
3.01224e-05
1.34087e-05
2.6772e-05
1.34034e-05
2.34229e-05
1.33987e-05
2.00748e-05
1.33945e-05
1.67276e-05
1.33908e-05
1.33811e-05
1.33878e-05
1.00353e-05
1.33854e-05
6.68995e-06
1.33835e-05
3.3449e-06
1.33823e-05
1.33817e-05
3.32182e-06
-1.66147e-05
6.64383e-06
-1.66156e-05
9.96622e-06
-1.66174e-05
1.32892e-05
-1.66202e-05
1.66129e-05
-1.66239e-05
1.99375e-05
-1.66284e-05
2.32632e-05
-1.66339e-05
2.65902e-05
-1.66403e-05
2.99187e-05
-1.66475e-05
3.32488e-05
-1.66555e-05
3.65807e-05
-1.66644e-05
3.99146e-05
-1.66741e-05
4.32506e-05
-1.66846e-05
4.65889e-05
-1.66959e-05
4.99296e-05
-1.67078e-05
5.32729e-05
-1.67205e-05
5.66189e-05
-1.67339e-05
5.99678e-05
-1.67479e-05
6.33196e-05
-1.67624e-05
6.66745e-05
-1.67776e-05
7.00326e-05
-1.67932e-05
7.3394e-05
-1.68093e-05
7.67587e-05
-1.68259e-05
8.01269e-05
-1.68428e-05
8.34986e-05
-1.686e-05
8.68738e-05
-1.68775e-05
9.02527e-05
-1.68952e-05
9.36352e-05
-1.6913e-05
9.70214e-05
-1.69309e-05
0.000100411
-1.69488e-05
0.000103805
-1.69667e-05
0.000107202
-1.69844e-05
0.000110603
-1.70019e-05
0.000114007
-1.70191e-05
0.000117415
-1.70359e-05
0.000120826
-1.70522e-05
0.00012424
-1.7068e-05
0.000127658
-1.70831e-05
0.000131078
-1.70975e-05
0.000134502
-1.7111e-05
0.000137928
-1.71235e-05
0.000141356
-1.7135e-05
0.000144787
-1.71453e-05
0.000148219
-1.71543e-05
0.000151653
-1.71619e-05
0.000155089
-1.71679e-05
0.000158526
-1.71723e-05
0.000161963
-1.71748e-05
0.000165401
-1.71755e-05
0.000168838
-1.7174e-05
0.000172275
-1.71703e-05
0.000175711
-1.71643e-05
0.000179145
-1.71557e-05
0.000182577
-1.71445e-05
0.000186007
-1.71305e-05
0.000189434
-1.71135e-05
0.000192856
-1.70933e-05
0.000196274
-1.70699e-05
0.000199687
-1.7043e-05
0.000203094
-1.70124e-05
0.000206495
-1.6978e-05
0.000209888
-1.69397e-05
0.000213272
-1.68971e-05
0.000216648
-1.68503e-05
0.000220013
-1.67989e-05
0.000223368
-1.67429e-05
0.00022671
-1.66819e-05
0.00023004
-1.66159e-05
0.000233355
-1.65447e-05
0.000236655
-1.64681e-05
0.000239939
-1.63859e-05
0.000243206
-1.62979e-05
0.000246454
-1.6204e-05
0.000249683
-1.61039e-05
0.00025289
-1.59976e-05
0.000256075
-1.58848e-05
0.000259236
-1.57655e-05
0.000262372
-1.56393e-05
0.000265482
-1.55062e-05
0.000268564
-1.53661e-05
0.000271616
-1.52187e-05
0.000274638
-1.5064e-05
0.000277627
-1.49018e-05
0.000280583
-1.47321e-05
0.000283503
-1.45546e-05
0.000286387
-1.43693e-05
0.000289231
-1.41761e-05
0.000292036
-1.39749e-05
0.000294799
-1.37656e-05
0.000297518
-1.35482e-05
0.000300193
-1.33227e-05
0.00030282
-1.30889e-05
0.0003054
-1.28469e-05
0.000307929
-1.25967e-05
0.000310406
-1.23383e-05
0.00031283
-1.20716e-05
0.000315199
-1.17967e-05
0.000317512
-1.15137e-05
0.000319766
-1.12226e-05
0.00032196
-1.09235e-05
0.000324093
-1.06165e-05
0.000326162
-1.03017e-05
0.000328167
-9.97921e-06
0.000330106
-9.64921e-06
0.000331977
-9.31184e-06
0.000333778
-8.96727e-06
0.00033551
-8.61569e-06
0.000337169
-8.25732e-06
0.000338755
-7.89236e-06
0.000340267
-7.52106e-06
0.000341702
-7.14367e-06
0.000343061
-6.76045e-06
0.000344342
-6.37169e-06
0.000345543
-5.97768e-06
0.000346664
-5.57872e-06
0.000347704
-5.17513e-06
0.000348663
-4.76724e-06
0.000349538
-4.35539e-06
0.00035033
-3.93993e-06
0.000351038
-3.52123e-06
0.000351661
-3.09963e-06
0.000352198
-2.67553e-06
0.00035265
-2.24929e-06
0.000353016
-1.82131e-06
0.000353296
-1.39197e-06
0.000353489
-9.61661e-07
0.000353595
-5.30777e-07
0.000353615
-9.9712e-08
0.000353548
3.3114e-07
0.000353394
7.61388e-07
0.000353155
1.19064e-06
0.000352829
1.61852e-06
0.000352417
2.04463e-06
0.000351921
2.4686e-06
0.000351339
2.89007e-06
0.000350674
3.30867e-06
0.000349925
3.72404e-06
0.000349093
4.13585e-06
0.000348179
4.54376e-06
0.000347184
4.94744e-06
0.000346109
5.34658e-06
0.000344955
5.74088e-06
0.000343722
6.13006e-06
0.000342413
6.51384e-06
0.000341027
6.89195e-06
0.000339567
7.26415e-06
0.000338033
7.63022e-06
0.000336428
7.98992e-06
0.000334751
8.34306e-06
0.000333005
8.68945e-06
0.000331191
9.02892e-06
0.00032931
9.3613e-06
0.000327364
9.68647e-06
0.000325354
1.00043e-05
0.000323282
1.03146e-05
0.000321149
1.06174e-05
0.000318958
1.09126e-05
0.000316708
1.12e-05
0.000314403
1.14797e-05
0.000312043
1.17515e-05
0.000309631
1.20156e-05
0.000307167
1.22718e-05
0.000304654
1.25201e-05
0.000302092
1.27606e-05
0.000299484
1.29933e-05
0.000296831
1.32182e-05
0.000294135
1.34354e-05
0.000291397
1.36449e-05
0.000288619
1.38468e-05
0.000285802
1.40411e-05
0.000282947
1.4228e-05
0.000280057
1.44076e-05
0.000277132
1.45798e-05
0.000274175
1.4745e-05
0.000271186
1.4903e-05
0.000268167