/*--------------------------------*- C++ -*----------------------------------*\
| =========                 |                                                 |
| \\      /  F ield         | OpenFOAM: The Open Source CFD Toolbox           |
|  \\    /   O peration     | Version:  v2012                                 |
|   \\  /    A nd           | Website:  www.openfoam.com                      |
|    \\/     M anipulation  |                                                 |
\*---------------------------------------------------------------------------*/
FoamFile
{
    version     2.0;
    format      ascii;
    class       volScalarField;
    location    "16.6";
    object      Psi_z;
}
// * * * * * * * * * * * * * * * * * * * * * * * * * * * * * * * * * * * * * //

dimensions      [0 2 -1 0 0 0 0];


internalField   nonuniform List<scalar> 
65536
(
8.29637e-06
2.48897e-05
4.14844e-05
5.80813e-05
7.46814e-05
9.12856e-05
0.000107895
0.00012451
0.000141131
0.00015776
0.000174398
0.000191044
0.000207701
0.000224368
0.000241047
0.000257737
0.000274441
0.000291158
0.000307889
0.000324634
0.000341395
0.000358171
0.000374963
0.000391772
0.000408597
0.00042544
0.000442299
0.000459176
0.000476071
0.000492983
0.000509913
0.00052686
0.000543824
0.000560805
0.000577802
0.000594816
0.000611846
0.00062889
0.000645949
0.000663021
0.000680106
0.000697202
0.000714309
0.000731425
0.000748549
0.000765679
0.000782814
0.000799952
0.000817091
0.00083423
0.000851365
0.000868496
0.000885618
0.00090273
0.00091983
0.000936913
0.000953978
0.000971021
0.000988038
0.00100503
0.00102198
0.0010389
0.00105578
0.00107261
0.0010894
0.00110613
0.0011228
0.00113941
0.00115595
0.00117242
0.0011888
0.00120511
0.00122132
0.00123743
0.00125344
0.00126935
0.00128514
0.0013008
0.00131634
0.00133174
0.001347
0.0013621
0.00137705
0.00139184
0.00140645
0.00142088
0.00143513
0.00144918
0.00146302
0.00147665
0.00149006
0.00150325
0.0015162
0.0015289
0.00154135
0.00155354
0.00156546
0.00157711
0.00158847
0.00159953
0.0016103
0.00162076
0.0016309
0.00164071
0.0016502
0.00165934
0.00166814
0.00167659
0.00168468
0.0016924
0.00169975
0.00170673
0.00171332
0.00171952
0.00172532
0.00173073
0.00173574
0.00174033
0.00174452
0.00174829
0.00175164
0.00175457
0.00175708
0.00175917
0.00176083
0.00176206
0.00176286
0.00176323
0.00176317
0.00176268
0.00176177
0.00176043
0.00175866
0.00175647
0.00175385
0.00175082
0.00174737
0.00174351
0.00173924
0.00173457
0.00172949
0.00172402
0.00171815
0.0017119
0.00170527
0.00169826
0.00169089
0.00168315
0.00167505
0.00166661
0.00165782
0.00164869
0.00163923
0.00162946
0.00161936
0.00160896
0.00159826
0.00158727
0.00157599
0.00156443
0.00155261
0.00154052
0.00152818
0.0015156
0.00150277
0.00148972
0.00147644
0.00146295
0.00144925
0.00143535
0.00142126
0.00140699
0.00139253
0.00137791
0.00136312
0.00134818
0.00133309
0.00131785
0.00130248
0.00128698
0.00127135
0.00125561
0.00123976
0.0012238
0.00120774
0.00119159
0.00117535
0.00115903
0.00114263
0.00112615
0.00110961
0.00109301
0.00107634
0.00105962
0.00104286
0.00102604
0.00100918
0.000992283
0.00097535
0.000958385
0.000941392
0.000924373
0.000907331
0.00089027
0.000873191
0.000856099
0.000838994
0.000821879
0.000804756
0.000787629
0.000770497
0.000753363
0.00073623
0.000719098
0.000701968
0.000684843
0.000667723
0.000650609
0.000633504
0.000616406
0.000599318
0.00058224
0.000565173
0.000548117
0.000531073
0.000514041
0.000497022
0.000480016
0.000463022
0.000446042
0.000429076
0.000412122
0.000395182
0.000378254
0.00036134
0.000344438
0.000327549
0.000310672
0.000293806
0.000276952
0.000260109
0.000243276
0.000226453
0.00020964
0.000192835
0.000176039
0.00015925
0.000142468
0.000125692
0.000108922
9.21561e-05
7.53948e-05
5.86369e-05
4.18816e-05
2.51282e-05
8.37595e-06
2.48889e-05
7.4668e-05
0.000124451
0.000174241
0.000224041
0.000273853
0.000323679
0.000373523
0.000423387
0.000473274
0.000523186
0.000573125
0.000623093
0.000673094
0.000723129
0.000773201
0.000823311
0.000873461
0.000923654
0.00097389
0.00102417
0.0010745
0.00112488
0.0011753
0.00122578
0.00127631
0.00132688
0.00137752
0.0014282
0.00147894
0.00152972
0.00158057
0.00163146
0.0016824
0.0017334
0.00178444
0.00183553
0.00188666
0.00193784
0.00198905
0.00204031
0.0020916
0.00214292
0.00219427
0.00224565
0.00229704
0.00234844
0.00239986
0.00245128
0.0025027
0.00255411
0.0026055
0.00265687
0.00270821
0.00275951
0.00281076
0.00286196
0.00291309
0.00296415
0.00301512
0.00306599
0.00311675
0.00316739
0.00321789
0.00326825
0.00331845
0.00336847
0.0034183
0.00346793
0.00351733
0.0035665
0.00361541
0.00366405
0.0037124
0.00376045
0.00380816
0.00385553
0.00390254
0.00394915
0.00399536
0.00404114
0.00408647
0.00413133
0.00417569
0.00421954
0.00426284
0.00430558
0.00434774
0.00438928
0.00443018
0.00447043
0.00450999
0.00454884
0.00458696
0.00462432
0.0046609
0.00469667
0.00473161
0.0047657
0.00479891
0.00483121
0.00486259
0.00489301
0.00492247
0.00495093
0.00497838
0.00500479
0.00503014
0.00505441
0.00507758
0.00509964
0.00512057
0.00514034
0.00515895
0.00517637
0.0051926
0.00520762
0.00522141
0.00523397
0.00524529
0.00525535
0.00526415
0.00527168
0.00527793
0.00528291
0.0052866
0.005289
0.00529011
0.00528994
0.00528848
0.00528573
0.00528171
0.0052764
0.00526982
0.00526198
0.00525288
0.00524253
0.00523095
0.00521813
0.0052041
0.00518887
0.00517244
0.00515485
0.00513609
0.00511619
0.00509516
0.00507303
0.0050498
0.00502551
0.00500016
0.00497378
0.0049464
0.00491802
0.00488868
0.00485839
0.00482718
0.00479507
0.00476208
0.00472824
0.00469357
0.00465808
0.00462182
0.00458479
0.00454703
0.00450855
0.00446938
0.00442954
0.00438906
0.00434795
0.00430625
0.00426397
0.00422113
0.00417777
0.00413389
0.00408952
0.00404468
0.0039994
0.00395368
0.00390756
0.00386105
0.00381417
0.00376694
0.00371937
0.00367149
0.00362332
0.00357486
0.00352613
0.00347716
0.00342795
0.00337853
0.0033289
0.00327908
0.00322908
0.00317892
0.00312861
0.00307816
0.00302758
0.00297688
0.00292608
0.00287518
0.0028242
0.00277314
0.00272201
0.00267082
0.00261959
0.0025683
0.00251699
0.00246564
0.00241427
0.00236289
0.00231149
0.00226009
0.00220868
0.00215729
0.0021059
0.00205452
0.00200316
0.00195182
0.0019005
0.00184921
0.00179794
0.00174671
0.0016955
0.00164434
0.0015932
0.00154211
0.00149105
0.00144003
0.00138905
0.00133811
0.00128721
0.00123635
0.00118553
0.00113475
0.001084
0.0010333
0.000982633
0.000932001
0.000881406
0.000830844
0.000780315
0.000729817
0.000679349
0.00062891
0.000578496
0.000528107
0.000477741
0.000427396
0.000377069
0.000326759
0.000276464
0.000226181
0.000175908
0.000125643
7.53834e-05
2.51274e-05
4.148e-05
0.000124442
0.000207411
0.000290392
0.000373388
0.000456405
0.000539446
0.000622517
0.000705621
0.000788762
0.000871946
0.000955175
0.00103845
0.00112179
0.00120518
0.00128863
0.00137214
0.00145572
0.00153937
0.0016231
0.0017069
0.00179078
0.00187474
0.00195878
0.00204291
0.00212712
0.00221142
0.0022958
0.00238027
0.00246483
0.00254948
0.00263422
0.00271904
0.00280395
0.00288894
0.00297401
0.00305916
0.00314439
0.00322968
0.00331505
0.00340048
0.00348597
0.00357151
0.0036571
0.00374272
0.00382838
0.00391407
0.00399977
0.00408547
0.00417117
0.00425686
0.00434253
0.00442815
0.00451373
0.00459924
0.00468467
0.00477001
0.00485524
0.00494034
0.0050253
0.0051101
0.00519472
0.00527913
0.00536332
0.00544726
0.00553094
0.00561433
0.0056974
0.00578012
0.00586248
0.00594445
0.00602599
0.00610708
0.00618769
0.00626778
0.00634733
0.0064263
0.00650466
0.00658238
0.00665942
0.00673574
0.00681132
0.0068861
0.00696007
0.00703317
0.00710537
0.00717663
0.00724691
0.00731617
0.00738437
0.00745147
0.00751744
0.00758222
0.00764577
0.00770807
0.00776906
0.00782871
0.00788697
0.00794381
0.00799918
0.00805305
0.00810537
0.00815611
0.00820522
0.00825268
0.00829845
0.00834249
0.00838476
0.00842524
0.00846388
0.00850067
0.00853556
0.00856854
0.00859956
0.00862862
0.00865568
0.00868072
0.00870373
0.00872467
0.00874354
0.00876032
0.00877499
0.00878755
0.00879798
0.00880627
0.00881242
0.00881643
0.00881829
0.008818
0.00881556
0.00881098
0.00880426
0.00879541
0.00878445
0.00877137
0.00875619
0.00873893
0.00871961
0.00869824
0.00867484
0.00864943
0.00862205
0.0085927
0.00856142
0.00852823
0.00849317
0.00845625
0.00841753
0.00837701
0.00833475
0.00829076
0.00824509
0.00819778
0.00814885
0.00809834
0.0080463
0.00799276
0.00793775
0.00788132
0.00782351
0.00776435
0.00770388
0.00764214
0.00757917
0.00751501
0.00744971
0.00738328
0.00731579
0.00724725
0.00717772
0.00710723
0.00703581
0.00696351
0.00689036
0.00681638
0.00674163
0.00666613
0.00658992
0.00651303
0.00643549
0.00635734
0.0062786
0.00619931
0.00611949
0.00603917
0.00595839
0.00587717
0.00579553
0.0057135
0.00563111
0.00554838
0.00546533
0.00538198
0.00529837
0.0052145
0.0051304
0.00504609
0.00496158
0.0048769
0.00479206
0.00470708
0.00462197
0.00453675
0.00445143
0.00436602
0.00428055
0.00419501
0.00410943
0.0040238
0.00393815
0.00385249
0.00376681
0.00368114
0.00359547
0.00350981
0.00342418
0.00333858
0.003253
0.00316747
0.00308198
0.00299653
0.00291114
0.0028258
0.00274052
0.0026553
0.00257014
0.00248504
0.00240001
0.00231504
0.00223014
0.00214531
0.00206054
0.00197584
0.0018912
0.00180663
0.00172212
0.00163768
0.0015533
0.00146897
0.0013847
0.00130049
0.00121633
0.00113222
0.00104815
0.000964133
0.000880153
0.000796212
0.000712305
0.00062843
0.000544582
0.000460759
0.000376956
0.000293171
0.000209398
0.000125635
4.18778e-05
5.80688e-05
0.00017421
0.00029036
0.000406526
0.000522715
0.000638932
0.000755184
0.000871477
0.000987816
0.00110421
0.00122066
0.00133717
0.00145376
0.00157042
0.00168716
0.00180399
0.0019209
0.00203791
0.00215502
0.00227223
0.00238955
0.00250698
0.00262452
0.00274218
0.00285995
0.00297784
0.00309586
0.003214
0.00333226
0.00345065
0.00356915
0.00368779
0.00380654
0.00392541
0.0040444
0.0041635
0.00428272
0.00440204
0.00452146
0.00464098
0.00476059
0.00488028
0.00500005
0.00511988
0.00523977
0.0053597
0.00547967
0.00559966
0.00571966
0.00583966
0.00595964
0.00607959
0.00619948
0.00631931
0.00643904
0.00655867
0.00667817
0.00679751
0.00691668
0.00703565
0.00715439
0.00727288
0.00739109
0.00750899
0.00762654
0.00774373
0.0078605
0.00797683
0.00809269
0.00820803
0.00832282
0.00843702
0.00855058
0.00866348
0.00877565
0.00888707
0.00899767
0.00910743
0.00921628
0.00932418
0.00943109
0.00953694
0.0096417
0.0097453
0.00984769
0.00994883
0.0100486
0.0101471
0.0102441
0.0103397
0.0104337
0.0105261
0.0106168
0.0107059
0.0107931
0.0108786
0.0109621
0.0110438
0.0111234
0.011201
0.0112764
0.0113497
0.0114208
0.0114896
0.0115561
0.0116203
0.011682
0.0117412
0.0117979
0.011852
0.0119036
0.0119525
0.0119987
0.0120421
0.0120829
0.0121208
0.0121559
0.0121881
0.0122174
0.0122439
0.0122674
0.012288
0.0123055
0.0123202
0.0123318
0.0123404
0.012346
0.0123486
0.0123482
0.0123448
0.0123384
0.0123289
0.0123165
0.0123012
0.0122828
0.0122616
0.0122374
0.0122103
0.0121804
0.0121476
0.012112
0.0120736
0.0120325
0.0119887
0.0119422
0.011893
0.0118413
0.011787
0.0117303
0.0116711
0.0116094
0.0115454
0.0114791
0.0114106
0.0113398
0.0112669
0.0111919
0.0111148
0.0110358
0.0109548
0.0108719
0.0107872
0.0107007
0.0106125
0.0105226
0.0104311
0.0103381
0.0102436
0.0101476
0.0100502
0.00995142
0.00985138
0.00975011
0.00964764
0.00954403
0.00943933
0.00933359
0.00922684
0.00911915
0.00901055
0.00890109
0.00879082
0.00867976
0.00856798
0.0084555
0.00834236
0.00822861
0.00811428
0.00799941
0.00788403
0.00776817
0.00765187
0.00753516
0.00741807
0.00730063
0.00718286
0.0070648
0.00694646
0.00682789
0.00670909
0.00659009
0.00647091
0.00635158
0.00623212
0.00611253
0.00599285
0.00587308
0.00575325
0.00563336
0.00551344
0.0053935
0.00527354
0.00515358
0.00503363
0.00491371
0.00479381
0.00467396
0.00455415
0.0044344
0.0043147
0.00419508
0.00407552
0.00395604
0.00383665
0.00371733
0.00359811
0.00347897
0.00335992
0.00324097
0.0031221
0.00300334
0.00288466
0.00276608
0.00264759
0.0025292
0.00241089
0.00229267
0.00217453
0.00205648
0.00193851
0.00182061
0.00170279
0.00158504
0.00146735
0.00134973
0.00123216
0.00111465
0.000997184
0.000879763
0.000762382
0.000645034
0.000527715
0.00041042
0.000293144
0.000175881
5.86262e-05
7.46544e-05
0.000223967
0.000373293
0.000522639
0.000672013
0.000821424
0.00097088
0.00112039
0.00126996
0.0014196
0.00156931
0.0017191
0.00186899
0.00201897
0.00216906
0.00231926
0.00246957
0.00262
0.00277056
0.00292126
0.00307209
0.00322306
0.00337418
0.00352545
0.00367687
0.00382845
0.00398018
0.00413207
0.00428412
0.00443633
0.0045887
0.00474123
0.00489391
0.00504675
0.00519975
0.00535289
0.00550617
0.00565959
0.00581314
0.00596682
0.00612061
0.00627452
0.00642852
0.0065826
0.00673676
0.00689098
0.00704525
0.00719955
0.00735386
0.00750817
0.00766246
0.0078167
0.00797088
0.00812497
0.00827895
0.0084328
0.00858648
0.00873996
0.00889322
0.00904622
0.00919894
0.00935133
0.00950336
0.009655
0.0098062
0.00995691
0.0101071
0.0102567
0.0104058
0.0105541
0.0107018
0.0108487
0.0109948
0.01114
0.0112843
0.0114276
0.0115699
0.0117111
0.0118511
0.0119899
0.0121275
0.0122637
0.0123984
0.0125317
0.0126635
0.0127936
0.012922
0.0130487
0.0131735
0.0132965
0.0134174
0.0135363
0.0136531
0.0137677
0.01388
0.01399
0.0140975
0.0142025
0.014305
0.0144048
0.014502
0.0145963
0.0146878
0.0147764
0.0148619
0.0149445
0.0150239
0.0151001
0.0151731
0.0152428
0.0153091
0.0153721
0.0154315
0.0154875
0.0155399
0.0155887
0.0156339
0.0156754
0.0157131
0.0157472
0.0157774
0.0158039
0.0158265
0.0158453
0.0158603
0.0158714
0.0158786
0.0158819
0.0158814
0.015877
0.0158687
0.0158566
0.0158407
0.0158209
0.0157973
0.0157699
0.0157388
0.0157039
0.0156653
0.0156231
0.0155773
0.0155279
0.015475
0.0154186
0.0153587
0.0152955
0.0152289
0.015159
0.015086
0.0150098
0.0149304
0.0148481
0.0147628
0.0146745
0.0145835
0.0144896
0.0143931
0.0142939
0.0141922
0.014088
0.0139813
0.0138723
0.013761
0.0136475
0.0135319
0.0134141
0.0132944
0.0131728
0.0130493
0.0129239
0.0127969
0.0126682
0.0125379
0.0124061
0.0122728
0.0121381
0.012002
0.0118647
0.0117262
0.0115865
0.0114457
0.0113038
0.011161
0.0110172
0.0108725
0.010727
0.0105806
0.0104336
0.0102858
0.0101374
0.00998841
0.00983883
0.00968872
0.00953812
0.00938708
0.00923562
0.00908378
0.00893159
0.00877909
0.00862631
0.00847328
0.00832002
0.00816656
0.00801293
0.00785914
0.00770523
0.00755122
0.00739712
0.00724296
0.00708875
0.00693452
0.00678026
0.00662601
0.00647178
0.00631758
0.00616341
0.0060093
0.00585525
0.00570127
0.00554736
0.00539355
0.00523983
0.00508621
0.00493269
0.00477928
0.00462598
0.0044728
0.00431974
0.0041668
0.00401398
0.00386127
0.00370869
0.00355623
0.00340389
0.00325167
0.00309956
0.00294757
0.00279569
0.00264391
0.00249224
0.00234066
0.00218918
0.00203779
0.00188649
0.00173527
0.00158412
0.00143304
0.00128202
0.00113106
0.000980147
0.00082928
0.00067845
0.000527652
0.000376877
0.000226119
7.5372e-05
9.12358e-05
0.000273713
0.000456205
0.000638722
0.000821274
0.00100387
0.00118652
0.00136924
0.00155203
0.00173491
0.00191787
0.00210094
0.00228412
0.00246742
0.00265085
0.00283441
0.00301811
0.00320197
0.00338597
0.00357015
0.00375449
0.003939
0.0041237
0.00430857
0.00449364
0.00467889
0.00486434
0.00504998
0.00523582
0.00542186
0.00560809
0.00579451
0.00598113
0.00616794
0.00635494
0.00654212
0.00672948
0.00691701
0.0071047
0.00729254
0.00748053
0.00766865
0.0078569
0.00804525
0.00823369
0.00842221
0.00861079
0.00879941
0.00898806
0.0091767
0.00936531
0.00955388
0.00974237
0.00993075
0.010119
0.0103071
0.010495
0.0106826
0.01087
0.0110571
0.0112438
0.0114301
0.011616
0.0118014
0.0119863
0.0121706
0.0123543
0.0125373
0.0127195
0.0129009
0.0130815
0.0132611
0.0134398
0.0136174
0.0137939
0.0139692
0.0141432
0.0143159
0.0144872
0.014657
0.0148252
0.0149918
0.0151567
0.0153197
0.0154809
0.0156401
0.0157972
0.0159522
0.0161049
0.0162553
0.0164033
0.0165487
0.0166916
0.0168318
0.0169692
0.0171038
0.0172353
0.0173639
0.0174893
0.0176114
0.0177303
0.0178457
0.0179577
0.0180661
0.0181708
0.0182718
0.018369
0.0184623
0.0185516
0.0186369
0.0187181
0.0187951
0.0188679
0.0189364
0.0190005
0.0190603
0.0191155
0.0191663
0.0192126
0.0192542
0.0192912
0.0193236
0.0193513
0.0193744
0.0193926
0.0194062
0.0194151
0.0194191
0.0194185
0.0194131
0.019403
0.0193881
0.0193686
0.0193444
0.0193155
0.019282
0.0192438
0.0192012
0.019154
0.0191023
0.0190462
0.0189857
0.018921
0.0188519
0.0187786
0.0187012
0.0186198
0.0185343
0.0184449
0.0183516
0.0182545
0.0181537
0.0180493
0.0179413
0.0178299
0.0177151
0.0175969
0.0174756
0.0173511
0.0172236
0.0170931
0.0169597
0.0168235
0.0166847
0.0165432
0.0163991
0.0162527
0.0161039
0.0159527
0.0157995
0.015644
0.0154866
0.0153272
0.015166
0.0150029
0.0148382
0.0146718
0.0145038
0.0143344
0.0141635
0.0139913
0.0138178
0.0136431
0.0134672
0.0132903
0.0131123
0.0129334
0.0127536
0.0125729
0.0123914
0.0122092
0.0120263
0.0118428
0.0116586
0.0114739
0.0112888
0.0111031
0.010917
0.0107306
0.0105438
0.0103567
0.0101693
0.00998171
0.00979388
0.00960588
0.00941773
0.00922945
0.00904107
0.00885261
0.0086641
0.00847555
0.00828699
0.00809843
0.0079099
0.0077214
0.00753296
0.00734457
0.00715627
0.00696806
0.00677994
0.00659193
0.00640404
0.00621627
0.00602862
0.00584112
0.00565375
0.00546652
0.00527944
0.00509251
0.00490573
0.00471909
0.0045326
0.00434627
0.00416008
0.00397403
0.00378813
0.00360236
0.00341673
0.00323124
0.00304587
0.00286062
0.00267549
0.00249047
0.00230555
0.00212073
0.001936
0.00175136
0.0015668
0.0013823
0.00119787
0.00101349
0.000829155
0.000644859
0.000460593
0.000276347
9.21143e-05
0.000107812
0.000323443
0.000539091
0.00075477
0.00097049
0.00118626
0.0014021
0.00161802
0.00183402
0.00205012
0.00226634
0.00248267
0.00269914
0.00291574
0.0031325
0.00334942
0.00356651
0.00378377
0.00400122
0.00421887
0.00443671
0.00465476
0.00487303
0.00509151
0.00531021
0.00552914
0.0057483
0.0059677
0.00618732
0.00640718
0.00662728
0.0068476
0.00706816
0.00728895
0.00750995
0.00773118
0.00795262
0.00817426
0.0083961
0.00861812
0.00884031
0.00906267
0.00928517
0.0095078
0.00973054
0.00995338
0.0101763
0.0103993
0.0106223
0.0108452
0.0110682
0.0112911
0.011514
0.0117367
0.0119592
0.0121816
0.0124037
0.0126256
0.0128471
0.0130683
0.0132891
0.0135094
0.0137292
0.0139484
0.014167
0.014385
0.0146021
0.0148185
0.015034
0.0152486
0.0154621
0.0156746
0.0158859
0.016096
0.0163047
0.016512
0.0167179
0.0169221
0.0171247
0.0173256
0.0175246
0.0177217
0.0179167
0.0181096
0.0183003
0.0184886
0.0186745
0.0188578
0.0190385
0.0192165
0.0193916
0.0195637
0.0197328
0.0198987
0.0200613
0.0202205
0.0203763
0.0205284
0.0206768
0.0208213
0.020962
0.0210986
0.0212312
0.0213595
0.0214834
0.021603
0.021718
0.0218284
0.0219342
0.0220351
0.0221312
0.0222224
0.0223086
0.0223897
0.0224656
0.0225363
0.0226017
0.0226618
0.0227166
0.0227659
0.0228097
0.022848
0.0228808
0.0229081
0.0229297
0.0229458
0.0229563
0.0229611
0.0229603
0.0229539
0.0229419
0.0229244
0.0229012
0.0228725
0.0228383
0.0227986
0.0227535
0.022703
0.0226471
0.0225859
0.0225195
0.0224479
0.0223712
0.0222894
0.0222027
0.0221111
0.0220146
0.0219134
0.0218076
0.0216972
0.0215823
0.021463
0.0213394
0.0212116
0.0210797
0.0209438
0.020804
0.0206604
0.0205131
0.0203621
0.0202077
0.0200499
0.0198887
0.0197244
0.019557
0.0193866
0.0192133
0.0190372
0.0188584
0.0186771
0.0184932
0.018307
0.0181184
0.0179277
0.0177348
0.0175399
0.0173431
0.0171444
0.016944
0.0167419
0.0165382
0.016333
0.0161264
0.0159184
0.0157091
0.0154987
0.0152871
0.0150744
0.0148608
0.0146462
0.0144307
0.0142144
0.0139974
0.0137797
0.0135613
0.0133423
0.0131228
0.0129029
0.0126824
0.0124616
0.0122404
0.0120189
0.0117971
0.011575
0.0113528
0.0111303
0.0109078
0.0106851
0.0104623
0.0102395
0.0100166
0.00979371
0.00957083
0.00934798
0.00912518
0.00890244
0.00867978
0.00845721
0.00823475
0.00801241
0.00779019
0.00756812
0.0073462
0.00712442
0.00690281
0.00668137
0.0064601
0.006239
0.00601807
0.00579733
0.00557676
0.00535637
0.00513615
0.00491611
0.00469625
0.00447655
0.00425702
0.00403765
0.00381844
0.00359937
0.00338046
0.00316168
0.00294303
0.00272451
0.0025061
0.00228781
0.00206961
0.00185151
0.00163348
0.00141554
0.00119765
0.000979822
0.000762037
0.000544287
0.000326562
0.000108852
0.000124383
0.000373155
0.000621948
0.000870775
0.00111965
0.00136859
0.0016176
0.00186671
0.00211591
0.00236523
0.00261468
0.00286427
0.00311401
0.00336391
0.00361399
0.00386426
0.00411472
0.00436539
0.00461627
0.00486738
0.00511872
0.00537031
0.00562214
0.00587422
0.00612656
0.00637916
0.00663204
0.00688518
0.00713859
0.00739227
0.00764623
0.00790046
0.00815496
0.00840972
0.00866475
0.00892003
0.00917555
0.00943132
0.00968731
0.00994352
0.0101999
0.0104565
0.0107133
0.0109702
0.0112273
0.0114845
0.0117417
0.0119991
0.0122564
0.0125138
0.0127712
0.0130285
0.0132857
0.0135427
0.0137996
0.0140563
0.0143127
0.0145688
0.0148246
0.0150799
0.0153348
0.0155891
0.0158429
0.016096
0.0163484
0.0166
0.0168508
0.0171007
0.0173495
0.0175973
0.0178439
0.0180892
0.0183332
0.0185758
0.0188169
0.0190563
0.0192941
0.01953
0.019764
0.019996
0.0202259
0.0204536
0.0206789
0.0209017
0.021122
0.0213396
0.0215543
0.0217662
0.021975
0.0221806
0.0223829
0.0225818
0.0227772
0.0229689
0.0231568
0.0233408
0.0235208
0.0236966
0.0238681
0.0240352
0.0241978
0.0243557
0.0245089
0.0246571
0.0248004
0.0249386
0.0250716
0.0251993
0.0253215
0.0254382
0.0255493
0.0256547
0.0257543
0.0258481
0.0259358
0.0260176
0.0260932
0.0261627
0.026226
0.026283
0.0263337
0.026378
0.0264159
0.0264474
0.0264724
0.026491
0.0265031
0.0265087
0.0265078
0.0265004
0.0264865
0.0264661
0.0264394
0.0264062
0.0263666
0.0263207
0.0262685
0.0262101
0.0261455
0.0260748
0.025998
0.0259152
0.0258265
0.025732
0.0256317
0.0255258
0.0254142
0.0252973
0.0251749
0.0250472
0.0249144
0.0247765
0.0246337
0.024486
0.0243335
0.0241765
0.0240149
0.0238489
0.0236786
0.0235042
0.0233257
0.0231434
0.0229572
0.0227673
0.0225738
0.0223769
0.0221767
0.0219733
0.0217667
0.0215572
0.0213448
0.0211296
0.0209118
0.0206915
0.0204687
0.0202435
0.0200162
0.0197867
0.0195553
0.0193219
0.0190866
0.0188496
0.018611
0.0183708
0.0181292
0.0178862
0.0176418
0.0173963
0.0171496
0.0169018
0.016653
0.0164033
0.0161527
0.0159014
0.0156493
0.0153965
0.0151431
0.0148891
0.0146347
0.0143797
0.0141244
0.0138687
0.0136127
0.0133564
0.0130998
0.0128431
0.0125862
0.0123292
0.0120721
0.0118149
0.0115577
0.0113004
0.0110432
0.010786
0.0105289
0.0102718
0.0100149
0.00975804
0.00950132
0.00924474
0.00898832
0.00873206
0.00847597
0.00822007
0.00796435
0.00770882
0.0074535
0.00719838
0.00694346
0.00668875
0.00643425
0.00617996
0.00592587
0.00567198
0.0054183
0.00516481
0.00491152
0.00465841
0.00440549
0.00415274
0.00390016
0.00364774
0.00339547
0.00314335
0.00289137
0.00263951
0.00238777
0.00213613
0.00188459
0.00163314
0.00138176
0.00113044
0.00087918
0.000627957
0.000376762
0.000125586
0.000140946
0.000422846
0.000704769
0.000986732
0.00126875
0.00155084
0.00183302
0.00211529
0.00239769
0.00268021
0.00296288
0.00324571
0.00352872
0.00381191
0.0040953
0.0043789
0.00466273
0.00494679
0.0052311
0.00551566
0.0058005
0.0060856
0.00637099
0.00665667
0.00694264
0.00722892
0.00751549
0.00780238
0.00808958
0.00837709
0.00866492
0.00895305
0.00924149
0.00953024
0.00981928
0.0101086
0.0103982
0.0106881
0.0109783
0.0112687
0.0115594
0.0118502
0.0121413
0.0124325
0.0127239
0.0130155
0.0133071
0.0135989
0.0138906
0.0141824
0.0144742
0.0147659
0.0150575
0.015349
0.0156402
0.0159313
0.016222
0.0165124
0.0168024
0.017092
0.017381
0.0176695
0.0179573
0.0182443
0.0185306
0.018816
0.0191004
0.0193838
0.0196661
0.0199471
0.0202268
0.0205052
0.020782
0.0210572
0.0213307
0.0216024
0.0218721
0.0221398
0.0224054
0.0226686
0.0229295
0.0231878
0.0234435
0.0236964
0.0239464
0.0241933
0.0244371
0.0246775
0.0249145
0.0251479
0.0253776
0.0256034
0.0258252
0.0260428
0.0262562
0.0264651
0.0266694
0.026869
0.0270638
0.0272535
0.0274381
0.0276175
0.0277914
0.0279598
0.0281226
0.0282795
0.0284305
0.0285755
0.0287143
0.0288469
0.0289731
0.0290928
0.029206
0.0293124
0.0294121
0.029505
0.0295909
0.0296698
0.0297417
0.0298064
0.029864
0.0299143
0.0299574
0.0299932
0.0300216
0.0300427
0.0300564
0.0300627
0.0300617
0.0300533
0.0300375
0.0300144
0.0299839
0.0299462
0.0299013
0.0298491
0.0297898
0.0297234
0.02965
0.0295697
0.0294824
0.0293884
0.0292876
0.0291802
0.0290663
0.028946
0.0288193
0.0286865
0.0285475
0.0284025
0.0282517
0.0280951
0.0279328
0.0277651
0.027592
0.0274136
0.0272301
0.0270417
0.0268483
0.0266503
0.0264477
0.0262406
0.0260293
0.0258137
0.0255941
0.0253706
0.0251433
0.0249124
0.024678
0.0244402
0.0241991
0.0239549
0.0237077
0.0234577
0.0232049
0.0229494
0.0226915
0.0224311
0.0221685
0.0219037
0.0216368
0.0213679
0.0210972
0.0208248
0.0205506
0.020275
0.0199978
0.0197193
0.0194395
0.0191584
0.0188763
0.0185931
0.0183089
0.0180238
0.0177379
0.0174512
0.0171639
0.0168759
0.0165874
0.0162983
0.0160088
0.0157188
0.0154286
0.015138
0.0148471
0.014556
0.0142648
0.0139734
0.0136819
0.0133903
0.0130987
0.0128071
0.0125155
0.012224
0.0119325
0.0116411
0.0113499
0.0110587
0.0107678
0.0104769
0.0101863
0.00989583
0.00960557
0.00931552
0.00902569
0.00873608
0.0084467
0.00815755
0.00786864
0.00757997
0.00729153
0.00700334
0.00671538
0.00642765
0.00614015
0.00585288
0.00556583
0.00527899
0.00499236
0.00470593
0.0044197
0.00413365
0.00384777
0.00356206
0.00327651
0.0029911
0.00270582
0.00242066
0.00213562
0.00185067
0.0015658
0.00128101
0.000996282
0.000711597
0.000426945
0.000142313
0.000157501
0.000472513
0.000787551
0.00110263
0.00141778
0.001733
0.00204833
0.00236376
0.00267933
0.00299504
0.00331092
0.00362698
0.00394323
0.0042597
0.00457639
0.00489332
0.0052105
0.00552794
0.00584567
0.00616368
0.00648199
0.00680061
0.00711955
0.00743882
0.00775842
0.00807836
0.00839864
0.00871928
0.00904026
0.0093616
0.00968329
0.0100053
0.0103277
0.0106504
0.0109735
0.0112969
0.0116207
0.0119447
0.012269
0.0125937
0.0129186
0.0132437
0.0135691
0.0138947
0.0142204
0.0145464
0.0148724
0.0151986
0.0155248
0.015851
0.0161772
0.0165034
0.0168295
0.0171554
0.0174811
0.0178065
0.0181317
0.0184564
0.0187808
0.0191046
0.0194278
0.0197504
0.0200723
0.0203934
0.0207136
0.0210329
0.021351
0.0216681
0.0219838
0.0222982
0.0226112
0.0229226
0.0232323
0.0235403
0.0238463
0.0241503
0.0244522
0.0247518
0.025049
0.0253436
0.0256356
0.0259247
0.0262109
0.026494
0.0267738
0.0270503
0.0273232
0.0275924
0.0278577
0.028119
0.0283762
0.028629
0.0288774
0.0291211
0.02936
0.029594
0.0298228
0.0300464
0.0302645
0.030477
0.0306838
0.0308847
0.0310795
0.0312682
0.0314505
0.0316263
0.0317955
0.0319579
0.0321134
0.032262
0.0324034
0.0325375
0.0326642
0.0327835
0.0328952
0.0329993
0.0330956
0.033184
0.0332645
0.0333371
0.0334016
0.033458
0.0335062
0.0335463
0.0335781
0.0336017
0.0336171
0.0336242
0.033623
0.0336135
0.0335958
0.0335699
0.0335358
0.0334935
0.0334431
0.0333846
0.0333182
0.0332438
0.0331615
0.0330714
0.0329737
0.0328683
0.0327554
0.032635
0.0325074
0.0323726
0.0322307
0.0320818
0.0319261
0.0317636
0.0315946
0.0314192
0.0312375
0.0310496
0.0308557
0.0306559
0.0304504
0.0302393
0.0300228
0.029801
0.0295741
0.0293422
0.0291055
0.0288642
0.0286183
0.0283681
0.0281136
0.0278551
0.0275926
0.0273264
0.0270566
0.0267832
0.0265066
0.0262267
0.0259437
0.0256578
0.0253691
0.0250778
0.0247839
0.0244875
0.0241889
0.0238881
0.0235852
0.0232803
0.0229736
0.0226652
0.0223552
0.0220436
0.0217305
0.0214162
0.0211006
0.0207838
0.0204659
0.0201471
0.0198273
0.0195067
0.0191853
0.0188633
0.0185406
0.0182173
0.0178935
0.0175693
0.0172447
0.0169198
0.0165946
0.0162691
0.0159435
0.0156177
0.0152918
0.0149658
0.0146398
0.0143138
0.0139878
0.0136619
0.0133361
0.0130103
0.0126847
0.0123593
0.012034
0.0117089
0.0113841
0.0110594
0.010735
0.0104108
0.0100868
0.00976311
0.00943967
0.00911649
0.00879359
0.00847095
0.00814858
0.00782648
0.00750465
0.00718308
0.00686178
0.00654072
0.00621992
0.00589936
0.00557903
0.00525894
0.00493905
0.00461938
0.00429991
0.00398062
0.0036615
0.00334255
0.00302375
0.00270508
0.00238654
0.00206811
0.00174978
0.00143152
0.00111334
0.000795204
0.000477108
0.000159033
0.000174048
0.000522153
0.000870288
0.00121847
0.00156673
0.00191507
0.00226352
0.0026121
0.00296082
0.00330971
0.00365878
0.00400805
0.00435754
0.00470726
0.00505724
0.00540748
0.005758
0.00610882
0.00645995
0.0068114
0.00716318
0.00751531
0.00786779
0.00822064
0.00857386
0.00892746
0.00928144
0.00963582
0.00999058
0.0103457
0.0107013
0.0110573
0.0114136
0.0117703
0.0121274
0.0124849
0.0128428
0.013201
0.0135595
0.0139184
0.0142775
0.014637
0.0149967
0.0153566
0.0157168
0.0160771
0.0164376
0.0167982
0.0171589
0.0175197
0.0178804
0.018241
0.0186016
0.018962
0.0193222
0.0196821
0.0200417
0.0204009
0.0207596
0.0211177
0.0214753
0.0218321
0.0221882
0.0225434
0.0228976
0.0232508
0.0236028
0.0239536
0.0243029
0.0246508
0.0249971
0.0253417
0.0256845
0.0260253
0.026364
0.0267004
0.0270345
0.0273661
0.0276951
0.0280212
0.0283444
0.0286645
0.0289814
0.0292948
0.0296047
0.0299107
0.0302129
0.030511
0.0308049
0.0310943
0.0313791
0.0316591
0.0319342
0.0322042
0.0324688
0.032728
0.0329815
0.0332291
0.0334708
0.0337063
0.0339354
0.0341579
0.0343738
0.0345829
0.0347849
0.0349797
0.0351672
0.0353472
0.0355196
0.0356842
0.0358409
0.0359895
0.03613
0.0362622
0.036386
0.0365014
0.0366081
0.0367061
0.0367953
0.0368757
0.0369472
0.0370097
0.0370632
0.0371076
0.0371429
0.037169
0.037186
0.0371939
0.0371925
0.037182
0.0371624
0.0371336
0.0370958
0.0370489
0.036993
0.0369282
0.0368545
0.036772
0.0366808
0.0365809
0.0364725
0.0363557
0.0362305
0.0360972
0.0359557
0.0358062
0.0356489
0.0354839
0.0353113
0.0351313
0.0349441
0.0347497
0.0345483
0.0343401
0.0341252
0.0339039
0.0336762
0.0334423
0.0332025
0.0329568
0.0327055
0.0324487
0.0321865
0.0319192
0.0316469
0.0313697
0.0310879
0.0308017
0.0305111
0.0302163
0.0299175
0.0296149
0.0293086
0.0289987
0.0286855
0.028369
0.0280495
0.027727
0.0274017
0.0270737
0.0267432
0.0264103
0.0260751
0.0257377
0.0253984
0.0250571
0.024714
0.0243693
0.024023
0.0236752
0.023326
0.0229756
0.022624
0.0222713
0.0219175
0.0215629
0.0212075
0.0208512
0.0204943
0.0201368
0.0197788
0.0194202
0.0190613
0.018702
0.0183423
0.0179824
0.0176224
0.0172621
0.0169018