/*--------------------------------*- C++ -*----------------------------------*\
| =========                 |                                                 |
| \\      /  F ield         | OpenFOAM: The Open Source CFD Toolbox           |
|  \\    /   O peration     | Version:  v2012                                 |
|   \\  /    A nd           | Website:  www.openfoam.com                      |
|    \\/     M anipulation  |                                                 |
\*---------------------------------------------------------------------------*/
FoamFile
{
    version     2.0;
    format      ascii;
    class       volScalarField;
    location    "16.6";
    object      W;
}
// * * * * * * * * * * * * * * * * * * * * * * * * * * * * * * * * * * * * * //

dimensions      [0 0 -1 0 0 0 0];


internalField   nonuniform List<scalar> 
65536
(
1.25014e-15
3.76445e-15
6.3213e-15
8.95001e-15
1.16808e-14
1.45449e-14
1.75748e-14
2.0805e-14
2.42716e-14
2.80135e-14
3.20719e-14
3.64916e-14
4.13206e-14
4.66111e-14
5.24198e-14
5.88081e-14
6.58431e-14
7.3598e-14
8.21524e-14
9.15933e-14
1.02016e-13
1.13523e-13
1.26229e-13
1.40257e-13
1.55742e-13
1.72829e-13
1.9168e-13
2.12467e-13
2.3538e-13
2.60625e-13
2.88425e-13
3.19022e-13
3.52678e-13
3.89677e-13
4.30326e-13
4.74956e-13
5.23924e-13
5.77616e-13
6.36444e-13
7.00854e-13
7.71323e-13
8.4836e-13
9.32513e-13
1.02436e-12
1.12453e-12
1.23368e-12
1.35251e-12
1.48177e-12
1.62223e-12
1.77474e-12
1.94017e-12
2.11943e-12
2.31348e-12
2.52334e-12
2.75006e-12
2.99472e-12
3.25846e-12
3.54245e-12
3.84789e-12
4.17602e-12
4.5281e-12
4.90542e-12
5.30927e-12
5.74098e-12
6.20186e-12
6.69322e-12
7.21636e-12
7.77254e-12
8.36301e-12
8.98897e-12
9.65154e-12
1.03518e-11
1.10907e-11
1.18691e-11
1.26878e-11
1.35474e-11
1.44484e-11
1.53911e-11
1.63757e-11
1.7402e-11
1.84698e-11
1.95785e-11
2.07275e-11
2.19157e-11
2.31417e-11
2.44041e-11
2.5701e-11
2.70302e-11
2.83891e-11
2.97751e-11
3.1185e-11
3.26155e-11
3.40627e-11
3.55228e-11
3.69914e-11
3.8464e-11
3.99358e-11
4.14017e-11
4.28567e-11
4.42952e-11
4.57118e-11
4.71009e-11
4.84569e-11
4.97739e-11
5.10466e-11
5.22691e-11
5.34361e-11
5.45422e-11
5.55825e-11
5.65519e-11
5.74461e-11
5.82607e-11
5.89919e-11
5.96363e-11
6.01909e-11
6.06533e-11
6.10213e-11
6.12934e-11
6.14687e-11
6.15467e-11
6.15275e-11
6.14117e-11
6.12004e-11
6.08952e-11
6.04983e-11
6.00122e-11
5.944e-11
5.8785e-11
5.80511e-11
5.72423e-11
5.6363e-11
5.54179e-11
5.44117e-11
5.33495e-11
5.22363e-11
5.10772e-11
4.98774e-11
4.86419e-11
4.7376e-11
4.60844e-11
4.47721e-11
4.34437e-11
4.21037e-11
4.07563e-11
3.94057e-11
3.80556e-11
3.67095e-11
3.53707e-11
3.40423e-11
3.2727e-11
3.14273e-11
3.01455e-11
2.88834e-11
2.76429e-11
2.64255e-11
2.52324e-11
2.40649e-11
2.29237e-11
2.18098e-11
2.07237e-11
1.96658e-11
1.86366e-11
1.76364e-11
1.66654e-11
1.57236e-11
1.48113e-11
1.39284e-11
1.30749e-11
1.2251e-11
1.14565e-11
1.06916e-11
9.95609e-12
9.25007e-12
8.57352e-12
7.92643e-12
7.30877e-12
6.72053e-12
6.16165e-12
5.63206e-12
5.13164e-12
4.66024e-12
4.21763e-12
3.80354e-12
3.41761e-12
3.05941e-12
2.72843e-12
2.42404e-12
2.14554e-12
1.89214e-12
1.66294e-12
1.45695e-12
1.27311e-12
1.11028e-12
9.6724e-13
8.42716e-13
7.35391e-13
6.43907e-13
5.66883e-13
5.02926e-13
4.50643e-13
4.08656e-13
3.75609e-13
3.50186e-13
3.31121e-13
3.17206e-13
3.07309e-13
3.0038e-13
2.9546e-13
2.91696e-13
2.88342e-13
2.84769e-13
2.80467e-13
2.75047e-13
2.6824e-13
2.59891e-13
2.49952e-13
2.38471e-13
2.25579e-13
2.11478e-13
1.96418e-13
1.80685e-13
1.64582e-13
1.48414e-13
1.3247e-13
1.17016e-13
1.02281e-13
8.84526e-14
7.56729e-14
6.40378e-14
5.35986e-14
4.43658e-14
3.63145e-14
2.93907e-14
2.35179e-14
1.86041e-14
1.45481e-14
1.12448e-14
8.59048e-15
6.48581e-15
4.83905e-15
3.56756e-15
2.59876e-15
1.8703e-15
1.32977e-15
9.33953e-16
6.47926e-16
4.43954e-16
3.00407e-16
2.00703e-16
1.32337e-16
8.60262e-17
5.4976e-17
3.42695e-17
2.03659e-17
1.06943e-17
3.32206e-18
4.29597e-15
1.29363e-14
2.17235e-14
3.07588e-14
4.01463e-14
4.99939e-14
6.0414e-14
7.1525e-14
8.34524e-14
9.63299e-14
1.10301e-13
1.25519e-13
1.42151e-13
1.60377e-13
1.80394e-13
2.02414e-13
2.2667e-13
2.53414e-13
2.82923e-13
3.15499e-13
3.51471e-13
3.91198e-13
4.35073e-13
4.83524e-13
5.37018e-13
5.96066e-13
6.61221e-13
7.33088e-13
8.12324e-13
8.99643e-13
9.95821e-13
1.1017e-12
1.21819e-12
1.34628e-12
1.48703e-12
1.6416e-12
1.81124e-12
1.99727e-12
2.20114e-12
2.42439e-12
2.66869e-12
2.93581e-12
3.22764e-12
3.54622e-12
3.89371e-12
4.27241e-12
4.68474e-12
5.13331e-12
5.62083e-12
6.1502e-12
6.72445e-12
7.34678e-12
8.02051e-12
8.74915e-12
9.53632e-12
1.03858e-11
1.13016e-11
1.22876e-11
1.3348e-11
1.44872e-11
1.57094e-11
1.7019e-11
1.84206e-11
1.99187e-11
2.15176e-11
2.3222e-11
2.50361e-11
2.69644e-11
2.90109e-11
3.11797e-11
3.34745e-11
3.58989e-11
3.84559e-11
4.11485e-11
4.3979e-11
4.69493e-11
5.00608e-11
5.33141e-11
5.67095e-11
6.02463e-11
6.39231e-11
6.77377e-11
7.16871e-11
7.57672e-11
7.9973e-11
8.42987e-11
8.87372e-11
9.32805e-11
9.79194e-11
1.02644e-10
1.07442e-10
1.12303e-10
1.17211e-10
1.22154e-10
1.27116e-10
1.32081e-10
1.37032e-10
1.4195e-10
1.46819e-10
1.51619e-10
1.5633e-10
1.60935e-10
1.65412e-10
1.69744e-10
1.73909e-10
1.77891e-10
1.81669e-10
1.85228e-10
1.88548e-10
1.91616e-10
1.94416e-10
1.96934e-10
1.99159e-10
2.0108e-10
2.02687e-10
2.03974e-10
2.04936e-10
2.05567e-10
2.05868e-10
2.05836e-10
2.05476e-10
2.04789e-10
2.03781e-10
2.0246e-10
2.00834e-10
1.98914e-10
1.96711e-10
1.94238e-10
1.91509e-10
1.88539e-10
1.85345e-10
1.81942e-10
1.78349e-10
1.74582e-10
1.70659e-10
1.66599e-10
1.62418e-10
1.58135e-10
1.53766e-10
1.49329e-10
1.4484e-10
1.40313e-10
1.35765e-10
1.31208e-10
1.26657e-10
1.22123e-10
1.17617e-10
1.13151e-10
1.08733e-10
1.04372e-10
1.00076e-10
9.58512e-11
9.17036e-11
8.76382e-11
8.36595e-11
7.9771e-11
7.59755e-11
7.22756e-11
6.86729e-11
6.51689e-11
6.17644e-11
5.846e-11
5.5256e-11
5.21525e-11
4.91492e-11
4.62459e-11
4.34422e-11
4.07375e-11
3.81314e-11
3.56234e-11
3.32129e-11
3.08993e-11
2.86823e-11
2.65613e-11
2.45359e-11
2.26055e-11
2.07697e-11
1.9028e-11
1.73797e-11
1.58243e-11
1.43607e-11
1.29882e-11
1.17055e-11
1.05113e-11
9.40399e-12
8.38175e-12
7.44249e-12
6.58384e-12
5.80316e-12
5.09756e-12
4.46386e-12
3.89867e-12
3.39834e-12
2.95906e-12
2.57684e-12
2.24755e-12
1.96696e-12
1.73079e-12
1.53473e-12
1.37448e-12
1.24578e-12
1.14448e-12
1.06651e-12
1.008e-12
9.6526e-13
9.34809e-13
9.13441e-13
8.98232e-13
8.86574e-13
8.76193e-13
8.65172e-13
8.51958e-13
8.35369e-13
8.14582e-13
7.89126e-13
7.58855e-13
7.23916e-13
6.84708e-13
6.4184e-13
5.96073e-13
5.48277e-13
4.99369e-13
4.50272e-13
4.01867e-13
3.54956e-13
3.10234e-13
2.6827e-13
2.29493e-13
1.94194e-13
1.62526e-13
1.34521e-13
1.10102e-13
8.91038e-14
7.12951e-14
5.63957e-14
4.4098e-14
3.40835e-14
2.60368e-14
1.96568e-14
1.46652e-14
1.08114e-14
7.87515e-15
5.66745e-15
4.02935e-15
2.82989e-15
1.96316e-15
1.3451e-15
9.10153e-16
6.0806e-16
4.00925e-16
2.60617e-16
1.66547e-16
1.03816e-16
6.16956e-17
3.23968e-17
1.00638e-17
9.17661e-15
2.76341e-14
4.64076e-14
6.57151e-14
8.57804e-14
1.06836e-13
1.29123e-13
1.52898e-13
1.7843e-13
2.06008e-13
2.35941e-13
2.68561e-13
3.04228e-13
3.43333e-13
3.86298e-13
4.33584e-13
4.85695e-13
5.43179e-13
6.06633e-13
6.76712e-13
7.54131e-13
8.39668e-13
9.34177e-13
1.03859e-12
1.15392e-12
1.28127e-12
1.42185e-12
1.57698e-12
1.74809e-12
1.93672e-12
2.14458e-12
2.37348e-12
2.62543e-12
2.90257e-12
3.20722e-12
3.5419e-12
3.90933e-12
4.31241e-12
4.75429e-12
5.23835e-12
5.7682e-12
6.34772e-12
6.98106e-12
7.67263e-12
8.42716e-12
9.24964e-12
1.01454e-11
1.11201e-11
1.21796e-11
1.33303e-11
1.45788e-11
1.59319e-11
1.7397e-11
1.89816e-11
2.06936e-11
2.25413e-11
2.4533e-11
2.66775e-11
2.89838e-11
3.1461e-11
3.41186e-11
3.69658e-11
4.00123e-11
4.32676e-11
4.67413e-11
5.04428e-11
5.43812e-11
5.85656e-11
6.30045e-11
6.77061e-11
7.26781e-11
7.79274e-11
8.34601e-11
8.92816e-11
9.5396e-11
1.01807e-10
1.08515e-10
1.15523e-10
1.22827e-10
1.30427e-10
1.38317e-10
1.46491e-10
1.54941e-10
1.63656e-10
1.72624e-10
1.81831e-10
1.91258e-10
2.00888e-10
2.10697e-10
2.20663e-10
2.30758e-10
2.40955e-10
2.51223e-10
2.61529e-10
2.71838e-10
2.82114e-10
2.92319e-10
3.02414e-10
3.12359e-10
3.22112e-10
3.31632e-10
3.40878e-10
3.49807e-10
3.58379e-10
3.66552e-10
3.74289e-10
3.8155e-10
3.88301e-10
3.94507e-10
4.00138e-10
4.05165e-10
4.09563e-10
4.13311e-10
4.16389e-10
4.18784e-10
4.20484e-10
4.21484e-10
4.2178e-10
4.21374e-10
4.20271e-10
4.18482e-10
4.16018e-10
4.12898e-10
4.09141e-10
4.04772e-10
3.99817e-10
3.94305e-10
3.88268e-10
3.8174e-10
3.74757e-10
3.67356e-10
3.59574e-10
3.5145e-10
3.43023e-10
3.34333e-10
3.25417e-10
3.16313e-10
3.07059e-10
2.97691e-10
2.88242e-10
2.78747e-10
2.69236e-10
2.59738e-10
2.50281e-10
2.40891e-10
2.3159e-10
2.22399e-10
2.13339e-10
2.04424e-10
1.95671e-10
1.87092e-10
1.78699e-10
1.705e-10
1.62503e-10
1.54714e-10
1.47138e-10
1.39777e-10
1.32635e-10
1.25712e-10
1.19008e-10
1.12523e-10
1.06255e-10
1.00204e-10
9.43656e-11
8.87388e-11
8.33207e-11
7.81083e-11
7.30988e-11
6.82894e-11
6.36772e-11
5.92594e-11
5.50333e-11
5.09965e-11
4.71463e-11
4.34806e-11
3.99969e-11
3.6693e-11
3.35666e-11
3.06155e-11
2.78371e-11
2.52291e-11
2.27885e-11
2.05125e-11
1.83977e-11
1.64405e-11
1.46369e-11
1.29825e-11
1.14726e-11
1.01018e-11
8.86458e-12
7.75492e-12
6.76643e-12
5.8924e-12
5.1258e-12
4.45941e-12
3.88578e-12
3.39735e-12
2.98648e-12
2.64553e-12
2.36692e-12
2.14317e-12
1.96699e-12
1.83131e-12
1.72937e-12
1.65474e-12
1.60142e-12
1.56385e-12
1.53698e-12
1.51631e-12
1.49793e-12
1.47855e-12
1.45549e-12
1.42672e-12
1.39084e-12
1.34703e-12
1.29505e-12
1.23515e-12
1.168e-12
1.09465e-12
1.0164e-12
9.34728e-13
8.51195e-13
7.67375e-13
6.84766e-13
6.04734e-13
5.28461e-13
4.56909e-13
3.90809e-13
3.30651e-13
2.76693e-13
2.28986e-13
1.87395e-13
1.51638e-13
1.21317e-13
9.59531e-14
7.50216e-14
5.79785e-14
4.4286e-14
3.34312e-14
2.49396e-14
1.83842e-14
1.33902e-14
9.63564e-15
6.85009e-15
4.81061e-15
3.33701e-15
2.28628e-15
1.54691e-15
1.03341e-15
6.81348e-16
4.42882e-16
2.83012e-16
1.76407e-16
1.04832e-16
5.50473e-17
1.71001e-17
1.78318e-14
5.36998e-14
9.01878e-14
1.27723e-13
1.66744e-13
2.07706e-13
2.51085e-13
2.97381e-13
3.47126e-13
4.00886e-13
4.59269e-13
5.2293e-13
5.92578e-13
6.68982e-13
7.52976e-13
8.45472e-13
9.47461e-13
1.06003e-12
1.18436e-12
1.32174e-12
1.47359e-12
1.64146e-12
1.82704e-12
2.03217e-12
2.25886e-12
2.50932e-12
2.78594e-12
3.09134e-12
3.42836e-12
3.8001e-12
4.20991e-12
4.66145e-12
5.15868e-12
5.70588e-12
6.30769e-12
6.96912e-12
7.69558e-12
8.49289e-12
9.36732e-12
1.03256e-11
1.1375e-11
1.25232e-11
1.37785e-11
1.51496e-11
1.66462e-11
1.8278e-11
2.00558e-11
2.19907e-11
2.40947e-11
2.63802e-11
2.88605e-11
3.15492e-11
3.44609e-11
3.76105e-11
4.10138e-11
4.4687e-11
4.86467e-11
5.29103e-11
5.74953e-11
6.24199e-11
6.77022e-11
7.33609e-11
7.94144e-11
8.58812e-11
9.27798e-11
1.00128e-10
1.07944e-10
1.16244e-10
1.25044e-10
1.3436e-10
1.44205e-10
1.54592e-10
1.65531e-10
1.77031e-10
1.89098e-10
2.01736e-10
2.14947e-10
2.2873e-10
2.43078e-10
2.57984e-10
2.73436e-10
2.89418e-10
3.0591e-10
3.22887e-10
3.4032e-10
3.58177e-10
3.76419e-10
3.95005e-10
4.13886e-10
4.3301e-10
4.52323e-10
4.71763e-10
4.91265e-10
5.10762e-10
5.30181e-10
5.49448e-10
5.68485e-10
5.87212e-10
6.05549e-10
6.23414e-10
6.40724e-10
6.57397e-10
6.73353e-10
6.88511e-10
7.02797e-10
7.16136e-10
7.28459e-10
7.397e-10
7.49801e-10
7.58708e-10
7.66373e-10
7.72755e-10
7.77823e-10
7.81549e-10
7.83918e-10
7.84919e-10
7.84552e-10
7.82823e-10
7.79749e-10
7.75351e-10
7.69661e-10
7.62717e-10
7.54565e-10
7.45254e-10
7.34844e-10
7.23395e-10
7.10974e-10
6.97653e-10
6.83505e-10
6.68606e-10
6.53033e-10
6.36865e-10
6.20181e-10
6.03058e-10
5.85575e-10
5.67805e-10
5.49822e-10
5.31697e-10
5.13496e-10
4.95283e-10
4.77118e-10
4.59057e-10
4.4115e-10
4.23446e-10
4.05985e-10
3.88808e-10
3.71947e-10
3.55431e-10
3.39287e-10
3.23536e-10
3.08194e-10
2.93277e-10
2.78794e-10
2.64754e-10
2.51161e-10
2.38017e-10
2.25322e-10
2.13074e-10
2.0127e-10
1.89905e-10
1.78971e-10
1.68463e-10
1.58371e-10
1.48687e-10
1.39403e-10
1.30508e-10
1.21995e-10
1.13853e-10
1.06074e-10
9.86485e-11
9.15687e-11
8.48263e-11
7.84135e-11
7.23229e-11
6.65474e-11
6.10801e-11
5.59146e-11
5.10442e-11
4.64629e-11
4.21642e-11
3.81419e-11
3.43894e-11
3.09001e-11
2.7667e-11
2.46828e-11
2.19397e-11
1.94296e-11
1.71437e-11
1.5073e-11
1.32078e-11
1.15381e-11
1.00533e-11
8.74256e-12
7.59466e-12
6.59815e-12
5.74137e-12
5.0126e-12
4.40008e-12
3.89211e-12
3.47717e-12
3.14395e-12
2.88146e-12
2.67913e-12
2.52685e-12
2.41507e-12
2.33487e-12
2.27805e-12
2.23714e-12
2.20554e-12
2.17748e-12
2.14815e-12
2.11363e-12
2.07095e-12
2.01806e-12
1.95377e-12
1.87773e-12
1.79029e-12
1.69244e-12
1.58569e-12
1.47192e-12
1.35327e-12
1.23201e-12
1.11041e-12
9.90632e-13
8.74646e-13
7.64155e-13
6.60546e-13
5.64867e-13
4.77817e-13
3.99764e-13
3.30774e-13
2.70646e-13
2.18965e-13
1.75151e-13
1.3851e-13
1.08278e-13
8.36669e-14
6.38985e-14
4.82298e-14
3.59745e-14
2.65152e-14
1.93101e-14
1.38941e-14
9.87642e-15
6.9352e-15
4.81033e-15
3.2954e-15
2.22949e-15
1.48929e-15
9.81847e-16
6.38167e-16
4.07778e-16
2.54163e-16
1.51034e-16
7.93054e-17
2.46354e-17
3.34843e-14
1.00841e-13
1.69373e-13
2.39892e-13
3.13228e-13
3.90247e-13
4.71851e-13
5.58991e-13
6.52676e-13
7.53984e-13
8.64074e-13
9.84193e-13
1.11569e-12
1.26004e-12
1.41882e-12
1.59379e-12
1.78684e-12
2.00003e-12
2.23565e-12
2.49617e-12
2.7843e-12
3.10301e-12
3.45555e-12
3.84545e-12
4.2766e-12
4.75321e-12
5.27992e-12
5.86175e-12
6.50418e-12
7.21318e-12
7.99522e-12
8.85737e-12
9.80725e-12
1.08532e-11
1.2004e-11
1.32696e-11
1.46602e-11
1.61873e-11
1.78628e-11
1.96999e-11
2.17125e-11
2.39157e-11
2.63253e-11
2.89585e-11
3.18336e-11
3.49698e-11
3.83877e-11
4.2109e-11
4.61567e-11
5.0555e-11
5.53292e-11
6.05061e-11
6.61134e-11
7.21802e-11
7.87366e-11
8.58138e-11
9.34438e-11
1.0166e-10
1.10496e-10
1.19985e-10
1.30164e-10
1.41067e-10
1.52728e-10
1.65184e-10
1.78467e-10
1.92613e-10
2.07653e-10
2.23618e-10
2.40537e-10
2.58438e-10
2.77344e-10
2.97277e-10
3.18253e-10
3.40286e-10
3.63385e-10
3.87553e-10
4.12789e-10
4.39083e-10
4.66421e-10
4.94781e-10
5.24135e-10
5.54444e-10
5.85663e-10
6.17738e-10
6.50607e-10
6.84197e-10
7.18428e-10
7.53209e-10
7.88443e-10
8.24022e-10
8.59831e-10
8.95744e-10
9.31633e-10
9.67357e-10
1.00278e-09
1.03774e-09
1.07209e-09
1.10568e-09
1.13834e-09
1.16993e-09
1.20028e-09
1.22923e-09
1.25665e-09
1.28237e-09
1.30626e-09
1.32819e-09
1.34803e-09
1.36568e-09
1.38103e-09
1.394e-09
1.40451e-09
1.4125e-09
1.41793e-09
1.42078e-09
1.42102e-09
1.41867e-09
1.41375e-09
1.40629e-09
1.39634e-09
1.38398e-09
1.36928e-09
1.35235e-09
1.33328e-09
1.31219e-09
1.28922e-09
1.2645e-09
1.23816e-09
1.21037e-09
1.18126e-09
1.151e-09
1.11974e-09
1.08764e-09
1.05484e-09
1.0215e-09
9.87762e-10
9.53767e-10
9.19649e-10
8.85534e-10
8.51543e-10
8.17785e-10
7.84365e-10
7.51375e-10
7.189e-10
6.87016e-10
6.5579e-10
6.25279e-10
5.95532e-10
5.66591e-10
5.38489e-10
5.11251e-10
4.84896e-10
4.59437e-10
4.3488e-10
4.11226e-10
3.88472e-10
3.6661e-10
3.45629e-10
3.25515e-10
3.06251e-10
2.87817e-10
2.70193e-10
2.53358e-10
2.37287e-10
2.21959e-10
2.07349e-10
1.93435e-10
1.80192e-10
1.67599e-10
1.55633e-10
1.44273e-10
1.335e-10
1.23293e-10
1.13634e-10
1.04505e-10
9.58901e-11
8.77724e-11
8.0137e-11
7.29692e-11
6.62547e-11
5.99799e-11
5.41311e-11
4.8695e-11
4.36581e-11
3.90068e-11
3.47275e-11
3.08062e-11
2.72284e-11
2.39793e-11
2.10439e-11
1.84063e-11
1.60507e-11
1.39606e-11
1.21192e-11
1.05096e-11
9.11457e-12
7.91702e-12
6.89971e-12
6.04559e-12
5.33783e-12
4.75995e-12
4.29592e-12
3.93023e-12
3.64803e-12
3.4352e-12
3.27847e-12
3.16547e-12
3.08487e-12
3.02641e-12
2.98101e-12
2.94081e-12
2.89919e-12
2.85084e-12
2.79171e-12
2.71902e-12
2.63115e-12
2.52762e-12
2.4089e-12
2.27634e-12
2.13194e-12
1.97826e-12
1.81815e-12
1.65468e-12
1.49087e-12
1.32964e-12
1.1736e-12
1.02504e-12
8.8581e-13
7.57294e-13
6.4042e-13
5.35669e-13
4.43115e-13
3.62479e-13
2.93195e-13
2.34477e-13
1.85385e-13
1.44892e-13
1.11937e-13
8.54732e-14
6.45026e-14
4.81041e-14
3.54497e-14
2.58127e-14
1.85701e-14
1.31985e-14
9.26671e-15
6.42669e-15
4.4022e-15
2.97796e-15
1.98907e-15
1.31121e-15
8.52168e-16
5.44479e-16
3.39345e-16
2.01641e-16
1.05874e-16
3.28882e-17
6.16129e-14
1.8556e-13
3.11695e-13
4.41522e-13
5.7659e-13
7.18506e-13
8.6895e-13
1.02969e-12
1.20262e-12
1.38974e-12
1.59321e-12
1.81537e-12
2.05874e-12
2.32607e-12
2.62034e-12
2.94481e-12
3.30305e-12
3.69894e-12
4.13675e-12
4.62114e-12
5.1572e-12
5.75054e-12
6.40724e-12
7.13402e-12
7.93816e-12
8.82765e-12
9.81122e-12
1.08984e-11
1.20995e-11
1.34258e-11
1.48896e-11
1.65043e-11
1.82844e-11
2.02454e-11
2.24045e-11
2.47801e-11
2.73918e-11
3.02613e-11
3.34114e-11
3.6867e-11
4.06546e-11
4.48028e-11
4.93418e-11
5.43044e-11
5.9725e-11
6.56405e-11
7.209e-11
7.91147e-11
8.67582e-11
9.50667e-11
1.04088e-10
1.13873e-10
1.24475e-10
1.35948e-10
1.4835e-10
1.61739e-10
1.76177e-10
1.91725e-10
2.08447e-10
2.26407e-10
2.45672e-10
2.66306e-10
2.88374e-10
3.11942e-10
3.37073e-10
3.63828e-10
3.92266e-10
4.22444e-10
4.54413e-10
4.8822e-10
5.23907e-10
5.61508e-10
6.01052e-10
6.42557e-10
6.86034e-10
7.3148e-10
7.78885e-10
8.28224e-10
8.79459e-10
9.32539e-10
9.87398e-10
1.04395e-09
1.10211e-09
1.16174e-09
1.22273e-09
1.28492e-09
1.34815e-09
1.41223e-09
1.47696e-09
1.54212e-09
1.60749e-09
1.67282e-09
1.73784e-09
1.80229e-09
1.86589e-09
1.92834e-09
1.98935e-09
2.04863e-09
2.10587e-09
2.16077e-09
2.21305e-09
2.2624e-09
2.30857e-09
2.35128e-09
2.39027e-09
2.42533e-09
2.45624e-09
2.48282e-09
2.50489e-09
2.52233e-09
2.53503e-09
2.54291e-09
2.54593e-09
2.54407e-09
2.53735e-09
2.52582e-09
2.50956e-09
2.48869e-09
2.46333e-09
2.43365e-09
2.39986e-09
2.36216e-09
2.32079e-09
2.276e-09
2.22807e-09
2.17727e-09
2.1239e-09
2.06825e-09
2.01063e-09
1.95133e-09
1.89066e-09
1.8289e-09
1.76635e-09
1.70329e-09
1.63997e-09
1.57666e-09
1.51358e-09
1.45097e-09
1.38902e-09
1.32793e-09
1.26786e-09
1.20896e-09
1.15137e-09
1.09521e-09
1.04056e-09
9.87515e-10
9.36137e-10
8.86475e-10
8.38564e-10
7.92426e-10
7.48073e-10
7.05502e-10
6.64704e-10
6.25659e-10
5.8834e-10
5.52715e-10
5.18744e-10
4.86383e-10
4.55587e-10
4.26306e-10
3.98489e-10
3.72082e-10
3.47033e-10
3.23289e-10
3.00797e-10
2.79506e-10
2.59366e-10
2.40327e-10
2.22343e-10
2.05369e-10
1.89362e-10
1.74281e-10
1.60087e-10
1.46745e-10
1.34218e-10
1.22474e-10
1.11483e-10
1.01213e-10
9.16381e-11
8.27296e-11
7.44619e-11
6.68092e-11
5.97469e-11
5.32502e-11
4.7295e-11
4.1857e-11
3.6912e-11
3.24357e-11
2.84036e-11
2.47911e-11
2.15733e-11
1.87254e-11
1.62223e-11
1.4039e-11
1.21505e-11
1.05322e-11
9.15951e-12
8.00846e-12
7.05557e-12
6.27799e-12
5.65368e-12
5.16146e-12
4.78114e-12
4.49368e-12
4.28122e-12
4.12723e-12
4.0166e-12
3.93573e-12
3.87259e-12
3.8168e-12
3.75969e-12
3.69426e-12
3.61523e-12
3.51894e-12
3.40329e-12
3.26764e-12
3.1126e-12
2.93991e-12
2.75217e-12
2.55266e-12
2.34508e-12
2.13337e-12
1.92142e-12
1.71298e-12
1.5114e-12
1.31962e-12
1.13999e-12
9.74272e-13
8.23649e-13
6.88717e-13
5.6955e-13
4.65773e-13
3.76642e-13
3.01131e-13
2.38023e-13
1.85987e-13
1.43652e-13
1.09665e-13
8.27413e-14
6.16933e-14
4.54551e-14
3.3092e-14
2.38027e-14
1.69146e-14
1.1874e-14
8.23364e-15
5.63914e-15
3.81422e-15
2.54732e-15
1.67902e-15
1.0911e-15
6.97075e-16
4.34414e-16
2.58115e-16
1.35521e-16
4.20964e-17
1.11485e-13
3.35776e-13
5.64068e-13
7.99114e-13
1.04375e-12
1.30091e-12
1.57369e-12
1.86531e-12
2.17924e-12
2.51917e-12
2.88907e-12
3.29322e-12
3.73627e-12
4.22327e-12
4.75973e-12
5.35166e-12
6.00564e-12
6.72886e-12
7.52918e-12
8.41525e-12
9.3965e-12
1.04833e-11
1.16869e-11
1.30199e-11
1.44956e-11
1.61291e-11
1.79364e-11
1.99353e-11
2.21451e-11
2.45868e-11
2.72833e-11
3.02595e-11
3.35424e-11
3.71613e-11
4.1148e-11
4.55368e-11
5.03649e-11
5.56722e-11
6.15019e-11
6.79003e-11
7.49172e-11
8.2606e-11
9.10237e-11
1.00231e-10
1.10293e-10
1.21279e-10
1.33262e-10
1.46319e-10
1.60533e-10
1.75988e-10
1.92776e-10
2.10992e-10
2.30734e-10
2.52105e-10
2.75211e-10
3.00164e-10
3.27076e-10
3.56062e-10
3.87243e-10
4.20736e-10
4.56663e-10
4.95146e-10
5.36303e-10
5.80255e-10
6.27116e-10
6.76999e-10
7.3001e-10
7.86248e-10
8.45807e-10
9.08766e-10
9.75198e-10
1.04516e-09
1.11869e-09
1.19582e-09
1.27656e-09
1.36088e-09
1.44876e-09
1.54014e-09
1.63492e-09
1.733e-09
1.83423e-09
1.93844e-09
2.04542e-09
2.15495e-09
2.26675e-09
2.38052e-09
2.49592e-09
2.6126e-09
2.73016e-09
2.84816e-09
2.96615e-09
3.08366e-09
3.20019e-09
3.3152e-09
3.42816e-09
3.53851e-09
3.64571e-09
3.74919e-09
3.84838e-09
3.94274e-09
4.03172e-09
4.11481e-09
4.19149e-09
4.26131e-09
4.32382e-09
4.37863e-09
4.42539e-09
4.46378e-09
4.49356e-09
4.51452e-09
4.52653e-09
4.5295e-09
4.52342e-09
4.50831e-09
4.48429e-09
4.45151e-09
4.41019e-09
4.36062e-09
4.3031e-09
4.23803e-09
4.16581e-09
4.08691e-09
4.00183e-09
3.91107e-09
3.8152e-09
3.71476e-09
3.61034e-09
3.5025e-09
3.39183e-09
3.2789e-09
3.16427e-09
3.04848e-09
2.93205e-09
2.81549e-09
2.69927e-09
2.58383e-09
2.46958e-09
2.35691e-09
2.24614e-09
2.13759e-09
2.03153e-09
1.92819e-09
1.82777e-09
1.73043e-09
1.63631e-09
1.54552e-09
1.45811e-09
1.37415e-09
1.29364e-09
1.21659e-09
1.14298e-09
1.07277e-09
1.0059e-09
9.42294e-10
8.81883e-10
8.24572e-10
7.70263e-10
7.18853e-10
6.70235e-10
6.24296e-10
5.80927e-10
5.40014e-10
5.01446e-10
4.65113e-10
4.3091e-10
3.9873e-10
3.68474e-10
3.40046e-10
3.13354e-10
2.88308e-10
2.64827e-10
2.4283e-10
2.22245e-10
2.03e-10
1.8503e-10
1.68272e-10
1.52668e-10
1.38162e-10
1.24702e-10
1.12239e-10
1.00725e-10
9.01153e-11
8.03652e-11
7.14329e-11
6.32773e-11
5.58582e-11
4.9136e-11
4.30719e-11
3.76276e-11
3.27649e-11
2.84463e-11
2.46346e-11
2.12931e-11
1.83853e-11
1.58757e-11
1.37293e-11
1.19117e-11
1.03898e-11
9.13123e-12
8.10492e-12
7.28105e-12
6.63121e-12
6.12849e-12
5.74762e-12
5.46508e-12
5.25917e-12
5.11018e-12
5.00039e-12
4.91424e-12
4.83833e-12
4.76147e-12
4.67469e-12
4.5712e-12
4.44635e-12
4.29745e-12
4.12367e-12
3.92577e-12
3.70595e-12
3.46749e-12
3.21452e-12
2.95172e-12
2.68399e-12
2.41627e-12
2.15321e-12
1.89904e-12
1.6574e-12
1.43123e-12
1.22272e-12
1.03331e-12
8.63726e-13
7.14035e-13
5.83741e-13
4.71886e-13
3.77166e-13
2.98036e-13
2.32815e-13
1.79772e-13
1.37204e-13
1.03493e-13
7.71482e-14
5.68293e-14
4.13637e-14
2.97465e-14
2.11342e-14
1.48334e-14
1.0284e-14
7.04228e-15
4.76257e-15
3.18022e-15
2.09592e-15
1.36185e-15
8.69961e-16
5.42106e-16
3.22078e-16
1.69094e-16
5.2524e-17
1.98564e-13
5.98071e-13
1.00479e-12
1.42367e-12
1.85983e-12
2.31856e-12
2.80542e-12
3.32626e-12
3.88732e-12
4.49528e-12
5.15731e-12
5.88117e-12
6.67529e-12
7.54883e-12
8.51178e-12
9.57508e-12
1.07507e-11
1.20516e-11
1.34923e-11
1.50884e-11
1.68572e-11
1.88176e-11
2.09902e-11
2.33978e-11
2.60651e-11
2.90194e-11
3.22903e-11
3.59103e-11
3.99148e-11
4.43424e-11
4.92351e-11
5.46386e-11
6.06027e-11
6.71813e-11
7.44329e-11
8.24208e-11
9.12133e-11
1.00884e-10
1.11513e-10
1.23186e-10
1.35994e-10
1.50036e-10
1.65418e-10
1.82252e-10
2.00658e-10
2.20763e-10
2.42703e-10
2.66622e-10
2.9267e-10
3.21007e-10
3.518e-10
3.85225e-10
4.21463e-10
4.60705e-10
5.03147e-10
5.48994e-10
5.98453e-10
6.51739e-10
7.09069e-10
7.70662e-10
8.36741e-10
9.07527e-10
9.83238e-10
1.06409e-09
1.15029e-09
1.24205e-09
1.33955e-09
1.44297e-09
1.55247e-09
1.66819e-09
1.79026e-09
1.91876e-09
2.05376e-09
2.19528e-09
2.34333e-09
2.49786e-09
2.65878e-09
2.82596e-09
2.99921e-09
3.17828e-09
3.3629e-09
3.55271e-09
3.7473e-09
3.9462e-09
4.14888e-09
4.35475e-09
4.56316e-09
4.77339e-09
4.98467e-09
5.19619e-09
5.40706e-09
5.61638e-09
5.82319e-09
6.02649e-09
6.22528e-09
6.41851e-09
6.60515e-09
6.78415e-09
6.95449e-09
7.11515e-09
7.26516e-09
7.40358e-09
7.52952e-09
7.64215e-09
7.74073e-09
7.82459e-09
7.89313e-09
7.94588e-09
7.98246e-09
8.00259e-09
8.00611e-09
7.99297e-09
7.96325e-09
7.91712e-09
7.8549e-09
7.777e-09
7.68392e-09
7.57629e-09
7.45482e-09
7.3203e-09
7.17361e-09
7.01567e-09
6.84748e-09
6.67008e-09
6.48452e-09
6.29189e-09
6.09329e-09
5.88979e-09
5.6825e-09
5.47245e-09
5.26067e-09
5.04814e-09
4.83581e-09
4.62455e-09
4.41518e-09
4.20846e-09
4.00508e-09
3.80567e-09
3.61078e-09
3.42089e-09
3.23643e-09
3.05772e-09
2.88507e-09
2.71868e-09
2.55871e-09
2.40528e-09
2.25844e-09
2.1182e-09
1.98451e-09
1.85732e-09
1.73651e-09
1.62196e-09
1.51351e-09
1.41097e-09
1.31416e-09
1.22287e-09
1.13688e-09
1.05597e-09
9.79918e-10
9.08494e-10
8.41474e-10
7.78634e-10
7.19755e-10
6.64626e-10
6.13041e-10
5.64801e-10
5.19717e-10
4.77609e-10
4.38306e-10
4.01644e-10
3.6747e-10
3.35642e-10
3.06023e-10
2.78486e-10
2.52913e-10
2.29193e-10
2.07222e-10
1.86902e-10
1.6814e-10
1.50852e-10
1.34956e-10
1.20374e-10
1.07034e-10
9.48637e-11
8.37976e-11
7.37704e-11
6.47196e-11
5.65844e-11
4.93056e-11
4.28259e-11
3.70891e-11
3.20404e-11
2.76265e-11
2.37954e-11
2.04965e-11
1.76808e-11
1.5301e-11
1.33112e-11
1.16678e-11
1.03286e-11
9.25387e-12
8.40583e-12
7.749e-12
7.25023e-12
6.87887e-12
6.60679e-12
6.40852e-12
6.26133e-12
6.14529e-12
6.0433e-12
5.94117e-12
5.82751e-12
5.69375e-12
5.534e-12
5.34489e-12
5.12534e-12
4.87631e-12
4.60052e-12
4.30204e-12
3.98601e-12
3.6582e-12
3.32471e-12
2.9916e-12
2.66464e-12
2.34902e-12
2.04922e-12
1.76881e-12
1.51049e-12
1.27599e-12
1.06616e-12
8.81058e-13
7.20024e-13
5.81852e-13
4.64902e-13
3.67246e-13
2.8679e-13
2.21383e-13
1.68914e-13
1.27377e-13
9.49273e-14
6.99084e-14
5.08714e-14
3.65756e-14
2.59806e-14
1.82312e-14
1.26373e-14
8.65224e-15
5.85037e-15
3.906e-15
2.57388e-15
1.6722e-15
1.06808e-15
6.65497e-16
3.95354e-16
2.07553e-16
6.4468e-17
3.48234e-13
1.04893e-12
1.76241e-12
2.49748e-12
3.26321e-12
4.069e-12
4.92472e-12
5.84078e-12
6.82828e-12
7.89911e-12
9.06604e-12
1.03429e-11
1.17448e-11
1.32881e-11
1.49906e-11
1.6872e-11
1.89535e-11
2.12587e-11
2.38134e-11
2.66457e-11
2.97866e-11
3.32701e-11
3.71335e-11
4.14177e-11
4.61673e-11
5.14315e-11
5.72638e-11
6.37229e-11
7.08728e-11
7.87833e-11
8.75305e-11
9.71974e-11
1.07874e-10
1.19658e-10
1.32656e-10
1.46983e-10
1.62763e-10
1.8013e-10
1.99229e-10
2.20216e-10
2.43258e-10
2.68534e-10
2.96238e-10
3.26574e-10
3.5976e-10
3.96031e-10
4.35633e-10
4.78827e-10
5.25889e-10
5.77112e-10
6.32799e-10
6.93271e-10
7.5886e-10
8.29915e-10
9.06794e-10
9.89868e-10
1.07952e-09
1.17613e-09
1.2801e-09
1.39183e-09
1.51173e-09
1.64018e-09
1.7776e-09
1.92436e-09
2.08084e-09
2.2474e-09
2.42439e-09
2.61211e-09
2.81084e-09
3.02083e-09
3.24228e-09
3.47533e-09
3.72009e-09
3.97658e-09
4.24477e-09
4.52453e-09
4.81568e-09
5.11793e-09
5.4309e-09
5.75411e-09
6.08698e-09
6.42883e-09
6.77886e-09
7.13614e-09
7.49966e-09
7.86828e-09
8.24075e-09
8.61571e-09
8.9917e-09
9.36717e-09
9.74047e-09
1.01099e-08
1.04736e-08
1.08298e-08
1.11766e-08
1.15121e-08
1.18343e-08
1.21415e-08
1.24316e-08
1.27029e-08
1.29536e-08
1.31821e-08
1.33869e-08
1.35664e-08
1.37194e-08
1.38448e-08
1.39417e-08
1.40093e-08
1.4047e-08
1.40545e-08
1.40318e-08
1.39788e-08
1.38959e-08
1.37837e-08
1.36428e-08
1.34741e-08
1.32789e-08
1.30584e-08
1.28141e-08
1.25476e-08
1.22607e-08
1.19551e-08
1.16328e-08
1.12958e-08
1.09461e-08
1.05857e-08
1.02167e-08
9.84116e-09
9.46094e-09
9.07801e-09
8.69418e-09
8.31119e-09
7.93069e-09
7.55419e-09
7.18309e-09
6.81867e-09
6.46205e-09
6.11426e-09
5.77615e-09
5.44848e-09
5.13185e-09
4.82675e-09
4.53355e-09
4.25251e-09
3.98378e-09
3.72743e-09
3.48341e-09
3.25164e-09
3.03193e-09
2.82404e-09
2.6277e-09
2.44256e-09
2.26827e-09
2.10443e-09
1.95062e-09
1.80641e-09
1.67136e-09
1.54503e-09
1.42698e-09
1.31676e-09
1.21393e-09
1.11809e-09
1.02882e-09
9.45728e-10
8.68432e-10
7.96574e-10
7.2981e-10
6.67816e-10
6.10286e-10
5.56932e-10
5.07483e-10
4.61687e-10
4.19307e-10
3.80123e-10
3.43931e-10
3.1054e-10
2.79772e-10
2.51461e-10
2.25453e-10
2.01603e-10
1.79778e-10
1.59849e-10
1.41698e-10
1.25212e-10
1.10283e-10
9.68107e-11
8.46969e-11
7.3849e-11
6.41775e-11
5.55968e-11
4.80242e-11
4.13802e-11
3.55879e-11
3.05737e-11
2.62665e-11
2.25982e-11
1.95037e-11
1.69206e-11
1.47898e-11
1.3055e-11
1.16632e-11
1.05647e-11
9.7129e-12
9.06468e-12
8.58034e-12
8.22367e-12
7.96205e-12
7.76649e-12
7.61167e-12
7.47598e-12
7.3415e-12
7.19393e-12
7.02253e-12
6.81991e-12
6.58185e-12
6.307e-12
5.99653e-12
5.65376e-12
5.28372e-12
4.8927e-12
4.48778e-12
4.07644e-12
3.66608e-12
3.26374e-12
2.87574e-12
2.5075e-12
2.16339e-12
1.84661e-12
1.55925e-12
1.3023e-12
1.07576e-12
8.78797e-13
7.09888e-13
5.66997e-13
4.47739e-13
3.4953e-13
2.69728e-13
2.05737e-13
1.55099e-13
1.15554e-13
8.5076e-14
6.18927e-14
4.44889e-14
3.15944e-14
2.21657e-14
1.53614e-14
1.05153e-14
7.10884e-15
4.74542e-15
3.12654e-15
2.03096e-15
1.29708e-15
8.08089e-16
4.80022e-16
2.51986e-16
7.82667e-17
6.01463e-13
1.81177e-12
3.04445e-12
4.31486e-12
5.63887e-12
7.03293e-12
8.51431e-12
1.01013e-11
1.18132e-11
1.3671e-11
1.56972e-11
1.7916e-11
2.0354e-11
2.30399e-11
2.60053e-11
2.92846e-11
3.29157e-11
3.69401e-11
4.14031e-11
4.63549e-11
5.18503e-11
5.79495e-11
6.47187e-11
7.22304e-11
8.05643e-11
8.98073e-11
1.00055e-10
1.11412e-10
1.23992e-10
1.3792e-10
1.53332e-10
1.70376e-10
1.89212e-10
2.10016e-10
2.32979e-10
2.58305e-10
2.86218e-10
3.16959e-10
3.50786e-10
3.87981e-10
4.28843e-10
4.73696e-10
5.22884e-10
5.76778e-10
6.35771e-10
7.00283e-10
7.70758e-10
8.47668e-10
9.31511e-10
1.02281e-09
1.12212e-09
1.23001e-09
1.34709e-09
1.47397e-09
1.61132e-09
1.75979e-09
1.92008e-09
2.09288e-09
2.2789e-09
2.47886e-09
2.69349e-09
2.9235e-09
3.16961e-09
3.4325e-09
3.71284e-09
4.01128e-09
4.3284e-09
4.66477e-09
5.02086e-09
5.3971e-09
5.79382e-09
6.21125e-09
6.64955e-09
7.10871e-09
7.58864e-09
8.08908e-09
8.60962e-09
9.14969e-09
9.70855e-09
1.02853e-08
1.08787e-08
1.14876e-08
1.21103e-08
1.27452e-08
1.33904e-08
1.40436e-08
1.47025e-08
1.53646e-08
1.60272e-08
1.66874e-08
1.73421e-08
1.79882e-08
1.86223e-08
1.92411e-08
1.98411e-08
2.04189e-08
2.09709e-08
2.14938e-08
2.19843e-08
2.2439e-08
2.28549e-08
2.3229e-08
2.35587e-08
2.38416e-08
2.40755e-08
2.42585e-08
2.43892e-08
2.44665e-08
2.44895e-08
2.4458e-08
2.4372e-08
2.4232e-08
2.40387e-08
2.37936e-08
2.3498e-08
2.31542e-08
2.27644e-08
2.23312e-08
2.18575e-08
2.13465e-08
2.08016e-08
2.02262e-08
1.9624e-08
1.89988e-08
1.83542e-08
1.76941e-08
1.70221e-08
1.6342e-08
1.56572e-08
1.49711e-08
1.42869e-08
1.36077e-08
1.29363e-08
1.22752e-08
1.16269e-08
1.09933e-08
1.03763e-08
9.77753e-09
9.1983e-09
8.6397e-09
8.1026e-09
7.58763e-09
7.09522e-09
6.62561e-09
6.17885e-09