/*--------------------------------*- C++ -*----------------------------------*\
| =========                 |                                                 |
| \\      /  F ield         | OpenFOAM: The Open Source CFD Toolbox           |
|  \\    /   O peration     | Version:  v2012                                 |
|   \\  /    A nd           | Website:  www.openfoam.com                      |
|    \\/     M anipulation  |                                                 |
\*---------------------------------------------------------------------------*/
FoamFile
{
    version     2.0;
    format      ascii;
    class       volVectorField;
    location    "13.4";
    object      Psi;
}
// * * * * * * * * * * * * * * * * * * * * * * * * * * * * * * * * * * * * * //

dimensions      [0 2 -1 0 0 0 0];


internalField   nonuniform List<vector> 
65536
(
(0 0 8.75663e-06)
(0 0 2.62705e-05)
(0 0 4.37857e-05)
(0 0 6.13033e-05)
(0 0 7.88242e-05)
(0 0 9.63492e-05)
(0 0 0.000113879)
(0 0 0.000131415)
(0 0 0.000148958)
(0 0 0.000166509)
(0 0 0.000184067)
(0 0 0.000201636)
(0 0 0.000219214)
(0 0 0.000236803)
(0 0 0.000254403)
(0 0 0.000272015)
(0 0 0.00028964)
(0 0 0.000307278)
(0 0 0.00032493)
(0 0 0.000342596)
(0 0 0.000360276)
(0 0 0.000377971)
(0 0 0.000395682)
(0 0 0.000413407)
(0 0 0.000431148)
(0 0 0.000448904)
(0 0 0.000466676)
(0 0 0.000484463)
(0 0 0.000502265)
(0 0 0.000520081)
(0 0 0.000537912)
(0 0 0.000555757)
(0 0 0.000573615)
(0 0 0.000591486)
(0 0 0.000609368)
(0 0 0.000627261)
(0 0 0.000645163)
(0 0 0.000663075)
(0 0 0.000680993)
(0 0 0.000698917)
(0 0 0.000716846)
(0 0 0.000734777)
(0 0 0.000752709)
(0 0 0.000770639)
(0 0 0.000788567)
(0 0 0.000806488)
(0 0 0.000824401)
(0 0 0.000842304)
(0 0 0.000860193)
(0 0 0.000878065)
(0 0 0.000895918)
(0 0 0.000913748)
(0 0 0.000931552)
(0 0 0.000949326)
(0 0 0.000967067)
(0 0 0.000984769)
(0 0 0.00100243)
(0 0 0.00102004)
(0 0 0.00103761)
(0 0 0.00105512)
(0 0 0.00107257)
(0 0 0.00108995)
(0 0 0.00110726)
(0 0 0.0011245)
(0 0 0.00114165)
(0 0 0.00115872)
(0 0 0.00117569)
(0 0 0.00119257)
(0 0 0.00120934)
(0 0 0.00122599)
(0 0 0.00124253)
(0 0 0.00125894)
(0 0 0.00127522)
(0 0 0.00129136)
(0 0 0.00130735)
(0 0 0.00132319)
(0 0 0.00133887)
(0 0 0.00135437)
(0 0 0.0013697)
(0 0 0.00138485)
(0 0 0.0013998)
(0 0 0.00141455)
(0 0 0.0014291)
(0 0 0.00144343)
(0 0 0.00145753)
(0 0 0.0014714)
(0 0 0.00148503)
(0 0 0.00149841)
(0 0 0.00151153)
(0 0 0.00152439)
(0 0 0.00153698)
(0 0 0.00154928)
(0 0 0.0015613)
(0 0 0.00157302)
(0 0 0.00158443)
(0 0 0.00159554)
(0 0 0.00160632)
(0 0 0.00161678)
(0 0 0.0016269)
(0 0 0.00163668)
(0 0 0.00164612)
(0 0 0.0016552)
(0 0 0.00166392)
(0 0 0.00167227)
(0 0 0.00168026)
(0 0 0.00168786)
(0 0 0.00169508)
(0 0 0.00170192)
(0 0 0.00170836)
(0 0 0.00171441)
(0 0 0.00172005)
(0 0 0.00172529)
(0 0 0.00173012)
(0 0 0.00173454)
(0 0 0.00173855)
(0 0 0.00174213)
(0 0 0.00174531)
(0 0 0.00174806)
(0 0 0.00175039)
(0 0 0.0017523)
(0 0 0.00175378)
(0 0 0.00175485)
(0 0 0.00175549)
(0 0 0.00175571)
(0 0 0.00175551)
(0 0 0.00175489)
(0 0 0.00175385)
(0 0 0.00175239)
(0 0 0.00175053)
(0 0 0.00174825)
(0 0 0.00174556)
(0 0 0.00174247)
(0 0 0.00173898)
(0 0 0.00173509)
(0 0 0.00173081)
(0 0 0.00172615)
(0 0 0.00172109)
(0 0 0.00171567)
(0 0 0.00170986)
(0 0 0.0017037)
(0 0 0.00169716)
(0 0 0.00169028)
(0 0 0.00168304)
(0 0 0.00167547)
(0 0 0.00166755)
(0 0 0.00165931)
(0 0 0.00165074)
(0 0 0.00164185)
(0 0 0.00163266)
(0 0 0.00162316)
(0 0 0.00161337)
(0 0 0.00160329)
(0 0 0.00159293)
(0 0 0.0015823)
(0 0 0.0015714)
(0 0 0.00156024)
(0 0 0.00154884)
(0 0 0.00153719)
(0 0 0.0015253)
(0 0 0.00151318)
(0 0 0.00150084)
(0 0 0.00148829)
(0 0 0.00147553)
(0 0 0.00146257)
(0 0 0.00144942)
(0 0 0.00143608)
(0 0 0.00142257)
(0 0 0.00140888)
(0 0 0.00139502)
(0 0 0.00138101)
(0 0 0.00136685)
(0 0 0.00135254)
(0 0 0.00133809)
(0 0 0.00132351)
(0 0 0.0013088)
(0 0 0.00129398)
(0 0 0.00127903)
(0 0 0.00126398)
(0 0 0.00124882)
(0 0 0.00123357)
(0 0 0.00121822)
(0 0 0.00120278)
(0 0 0.00118726)
(0 0 0.00117167)
(0 0 0.001156)
(0 0 0.00114026)
(0 0 0.00112445)
(0 0 0.00110859)
(0 0 0.00109267)
(0 0 0.0010767)
(0 0 0.00106068)
(0 0 0.00104461)
(0 0 0.00102851)
(0 0 0.00101236)
(0 0 0.000996187)
(0 0 0.000979978)
(0 0 0.000963742)
(0 0 0.000947481)
(0 0 0.000931197)
(0 0 0.000914894)
(0 0 0.000898573)
(0 0 0.000882238)
(0 0 0.000865891)
(0 0 0.000849533)
(0 0 0.000833166)
(0 0 0.000816794)
(0 0 0.000800417)
(0 0 0.000784037)
(0 0 0.000767657)
(0 0 0.000751276)
(0 0 0.000734897)
(0 0 0.000718522)
(0 0 0.000702151)
(0 0 0.000685785)
(0 0 0.000669426)
(0 0 0.000653074)
(0 0 0.000636731)
(0 0 0.000620396)
(0 0 0.000604072)
(0 0 0.000587758)
(0 0 0.000571455)
(0 0 0.000555163)
(0 0 0.000538884)
(0 0 0.000522617)
(0 0 0.000506362)
(0 0 0.00049012)
(0 0 0.000473891)
(0 0 0.000457675)
(0 0 0.000441472)
(0 0 0.000425283)
(0 0 0.000409106)
(0 0 0.000392943)
(0 0 0.000376792)
(0 0 0.000360654)
(0 0 0.000344528)
(0 0 0.000328415)
(0 0 0.000312313)
(0 0 0.000296222)
(0 0 0.000280143)
(0 0 0.000264075)
(0 0 0.000248016)
(0 0 0.000231967)
(0 0 0.000215928)
(0 0 0.000199897)
(0 0 0.000183875)
(0 0 0.000167859)
(0 0 0.000151851)
(0 0 0.00013585)
(0 0 0.000119854)
(0 0 0.000103863)
(0 0 8.78763e-05)
(0 0 7.18936e-05)
(0 0 5.5914e-05)
(0 0 3.99369e-05)
(0 0 2.39614e-05)
(0 0 7.98703e-06)
(0 0 2.62697e-05)
(0 0 7.88104e-05)
(0 0 0.000131355)
(0 0 0.000183907)
(0 0 0.000236469)
(0 0 0.000289043)
(0 0 0.000341633)
(0 0 0.00039424)
(0 0 0.000446868)
(0 0 0.000499519)
(0 0 0.000552195)
(0 0 0.000604898)
(0 0 0.000657632)
(0 0 0.000710398)
(0 0 0.000763199)
(0 0 0.000816035)
(0 0 0.000868909)
(0 0 0.000921823)
(0 0 0.000974778)
(0 0 0.00102778)
(0 0 0.00108082)
(0 0 0.0011339)
(0 0 0.00118703)
(0 0 0.00124021)
(0 0 0.00129343)
(0 0 0.0013467)
(0 0 0.00140002)
(0 0 0.00145338)
(0 0 0.00150678)
(0 0 0.00156023)
(0 0 0.00161373)
(0 0 0.00166726)
(0 0 0.00172084)
(0 0 0.00177445)
(0 0 0.0018281)
(0 0 0.00188178)
(0 0 0.00193549)
(0 0 0.00198922)
(0 0 0.00204298)
(0 0 0.00209675)
(0 0 0.00215054)
(0 0 0.00220434)
(0 0 0.00225813)
(0 0 0.00231193)
(0 0 0.00236571)
(0 0 0.00241948)
(0 0 0.00247322)
(0 0 0.00252693)
(0 0 0.0025806)
(0 0 0.00263422)
(0 0 0.00268778)
(0 0 0.00274128)
(0 0 0.00279469)
(0 0 0.00284802)
(0 0 0.00290124)
(0 0 0.00295435)
(0 0 0.00300734)
(0 0 0.00306019)
(0 0 0.00311289)
(0 0 0.00316542)
(0 0 0.00321777)
(0 0 0.00326992)
(0 0 0.00332186)
(0 0 0.00337358)
(0 0 0.00342505)
(0 0 0.00347625)
(0 0 0.00352718)
(0 0 0.00357781)
(0 0 0.00362812)
(0 0 0.0036781)
(0 0 0.00372772)
(0 0 0.00377696)
(0 0 0.0038258)
(0 0 0.00387423)
(0 0 0.00392221)
(0 0 0.00396973)
(0 0 0.00401677)
(0 0 0.0040633)
(0 0 0.0041093)
(0 0 0.00415474)
(0 0 0.00419961)
(0 0 0.00424387)
(0 0 0.00428751)
(0 0 0.0043305)
(0 0 0.00437282)
(0 0 0.00441444)
(0 0 0.00445534)
(0 0 0.00449549)
(0 0 0.00453487)
(0 0 0.00457345)
(0 0 0.00461121)
(0 0 0.00464814)
(0 0 0.00468419)
(0 0 0.00471936)
(0 0 0.00475361)
(0 0 0.00478693)
(0 0 0.00481928)
(0 0 0.00485066)
(0 0 0.00488104)
(0 0 0.00491039)
(0 0 0.00493871)
(0 0 0.00496596)
(0 0 0.00499213)
(0 0 0.0050172)
(0 0 0.00504115)
(0 0 0.00506397)
(0 0 0.00508564)
(0 0 0.00510615)
(0 0 0.00512548)
(0 0 0.00514362)
(0 0 0.00516055)
(0 0 0.00517627)
(0 0 0.00519077)
(0 0 0.00520403)
(0 0 0.00521605)
(0 0 0.00522682)
(0 0 0.00523634)
(0 0 0.00524459)
(0 0 0.00525159)
(0 0 0.00525731)
(0 0 0.00526177)
(0 0 0.00526496)
(0 0 0.00526688)
(0 0 0.00526754)
(0 0 0.00526694)
(0 0 0.00526507)
(0 0 0.00526196)
(0 0 0.00525759)
(0 0 0.00525199)
(0 0 0.00524515)
(0 0 0.00523709)
(0 0 0.00522781)
(0 0 0.00521734)
(0 0 0.00520567)
(0 0 0.00519282)
(0 0 0.00517882)
(0 0 0.00516366)
(0 0 0.00514737)
(0 0 0.00512996)
(0 0 0.00511144)
(0 0 0.00509185)
(0 0 0.00507118)
(0 0 0.00504947)
(0 0 0.00502673)
(0 0 0.00500298)
(0 0 0.00497823)
(0 0 0.00495252)
(0 0 0.00492586)
(0 0 0.00489827)
(0 0 0.00486978)
(0 0 0.0048404)
(0 0 0.00481015)
(0 0 0.00477907)
(0 0 0.00474716)
(0 0 0.00471446)
(0 0 0.00468098)
(0 0 0.00464675)
(0 0 0.00461178)
(0 0 0.00457611)
(0 0 0.00453976)
(0 0 0.00450273)
(0 0 0.00446507)
(0 0 0.00442678)
(0 0 0.0043879)
(0 0 0.00434844)
(0 0 0.00430842)
(0 0 0.00426786)
(0 0 0.00422679)
(0 0 0.00418522)
(0 0 0.00414318)
(0 0 0.00410069)
(0 0 0.00405775)
(0 0 0.0040144)
(0 0 0.00397065)
(0 0 0.00392652)
(0 0 0.00388203)
(0 0 0.0038372)
(0 0 0.00379203)
(0 0 0.00374656)
(0 0 0.00370079)
(0 0 0.00365474)
(0 0 0.00360843)
(0 0 0.00356186)
(0 0 0.00351507)
(0 0 0.00346805)
(0 0 0.00342083)
(0 0 0.00337341)
(0 0 0.00332582)
(0 0 0.00327805)
(0 0 0.00323013)
(0 0 0.00318207)
(0 0 0.00313387)
(0 0 0.00308555)
(0 0 0.00303712)
(0 0 0.00298858)
(0 0 0.00293996)
(0 0 0.00289124)
(0 0 0.00284246)
(0 0 0.0027936)
(0 0 0.00274469)
(0 0 0.00269573)
(0 0 0.00264672)
(0 0 0.00259768)
(0 0 0.0025486)
(0 0 0.0024995)
(0 0 0.00245038)
(0 0 0.00240125)
(0 0 0.00235211)
(0 0 0.00230296)
(0 0 0.00225382)
(0 0 0.00220468)
(0 0 0.00215556)
(0 0 0.00210644)
(0 0 0.00205734)
(0 0 0.00200826)
(0 0 0.00195921)
(0 0 0.00191018)
(0 0 0.00186117)
(0 0 0.0018122)
(0 0 0.00176326)
(0 0 0.00171435)
(0 0 0.00166547)
(0 0 0.00161664)
(0 0 0.00156783)
(0 0 0.00151907)
(0 0 0.00147034)
(0 0 0.00142166)
(0 0 0.00137301)
(0 0 0.0013244)
(0 0 0.00127583)
(0 0 0.0012273)
(0 0 0.00117881)
(0 0 0.00113036)
(0 0 0.00108195)
(0 0 0.00103357)
(0 0 0.00098523)
(0 0 0.000936925)
(0 0 0.000888654)
(0 0 0.000840417)
(0 0 0.000792212)
(0 0 0.000744037)
(0 0 0.000695891)
(0 0 0.000647774)
(0 0 0.000599682)
(0 0 0.000551615)
(0 0 0.00050357)
(0 0 0.000455547)
(0 0 0.000407542)
(0 0 0.000359555)
(0 0 0.000311583)
(0 0 0.000263625)
(0 0 0.000215677)
(0 0 0.000167739)
(0 0 0.000119809)
(0 0 7.18832e-05)
(0 0 2.39607e-05)
(0 0 4.37812e-05)
(0 0 0.000131346)
(0 0 0.000218918)
(0 0 0.000306502)
(0 0 0.000394102)
(0 0 0.000481722)
(0 0 0.000569369)
(0 0 0.000657045)
(0 0 0.000744755)
(0 0 0.000832503)
(0 0 0.000920294)
(0 0 0.00100813)
(0 0 0.00109602)
(0 0 0.00118396)
(0 0 0.00127196)
(0 0 0.00136002)
(0 0 0.00144814)
(0 0 0.00153633)
(0 0 0.00162458)
(0 0 0.00171291)
(0 0 0.00180131)
(0 0 0.00188979)
(0 0 0.00197834)
(0 0 0.00206696)
(0 0 0.00215567)
(0 0 0.00224445)
(0 0 0.00233331)
(0 0 0.00242225)
(0 0 0.00251126)
(0 0 0.00260034)
(0 0 0.0026895)
(0 0 0.00277873)
(0 0 0.00286802)
(0 0 0.00295738)
(0 0 0.00304679)
(0 0 0.00313626)
(0 0 0.00322578)
(0 0 0.00331535)
(0 0 0.00340494)
(0 0 0.00349457)
(0 0 0.00358423)
(0 0 0.00367389)
(0 0 0.00376356)
(0 0 0.00385322)
(0 0 0.00394287)
(0 0 0.00403249)
(0 0 0.00412207)
(0 0 0.0042116)
(0 0 0.00430106)
(0 0 0.00439043)
(0 0 0.00447971)
(0 0 0.00456888)
(0 0 0.00465792)
(0 0 0.00474681)
(0 0 0.00483553)
(0 0 0.00492406)
(0 0 0.00501239)
(0 0 0.00510049)
(0 0 0.00518833)
(0 0 0.0052759)
(0 0 0.00536316)
(0 0 0.0054501)
(0 0 0.00553669)
(0 0 0.0056229)
(0 0 0.0057087)
(0 0 0.00579407)
(0 0 0.00587897)
(0 0 0.00596337)
(0 0 0.00604725)
(0 0 0.00613056)
(0 0 0.00621328)
(0 0 0.00629538)
(0 0 0.00637681)
(0 0 0.00645754)
(0 0 0.00653754)
(0 0 0.00661676)
(0 0 0.00669518)
(0 0 0.00677276)
(0 0 0.00684945)
(0 0 0.00692521)
(0 0 0.00700002)
(0 0 0.00707382)
(0 0 0.00714658)
(0 0 0.00721826)
(0 0 0.00728881)
(0 0 0.0073582)
(0 0 0.00742639)
(0 0 0.00749334)
(0 0 0.00755899)
(0 0 0.00762333)
(0 0 0.0076863)
(0 0 0.00774786)
(0 0 0.00780798)
(0 0 0.00786661)
(0 0 0.00792372)
(0 0 0.00797927)
(0 0 0.00803323)
(0 0 0.00808555)
(0 0 0.0081362)
(0 0 0.00818515)
(0 0 0.00823236)
(0 0 0.00827779)
(0 0 0.00832143)
(0 0 0.00836323)
(0 0 0.00840318)
(0 0 0.00844123)
(0 0 0.00847736)
(0 0 0.00851156)
(0 0 0.00854379)
(0 0 0.00857403)
(0 0 0.00860227)
(0 0 0.00862848)
(0 0 0.00865265)
(0 0 0.00867476)
(0 0 0.0086948)
(0 0 0.00871276)
(0 0 0.00872863)
(0 0 0.00874239)
(0 0 0.00875405)
(0 0 0.00876359)
(0 0 0.00877103)
(0 0 0.00877634)
(0 0 0.00877955)
(0 0 0.00878064)
(0 0 0.00877963)
(0 0 0.00877652)
(0 0 0.00877131)
(0 0 0.00876403)
(0 0 0.00875468)
(0 0 0.00874327)
(0 0 0.00872983)
(0 0 0.00871436)
(0 0 0.00869688)
(0 0 0.00867742)
(0 0 0.008656)
(0 0 0.00863264)
(0 0 0.00860736)
(0 0 0.00858018)
(0 0 0.00855115)
(0 0 0.00852027)
(0 0 0.00848759)
(0 0 0.00845313)
(0 0 0.00841692)
(0 0 0.008379)
(0 0 0.00833939)
(0 0 0.00829813)
(0 0 0.00825526)
(0 0 0.0082108)
(0 0 0.00816479)
(0 0 0.00811728)
(0 0 0.00806828)
(0 0 0.00801785)
(0 0 0.00796602)
(0 0 0.00791282)
(0 0 0.00785829)
(0 0 0.00780247)
(0 0 0.00774539)
(0 0 0.00768709)
(0 0 0.00762762)
(0 0 0.007567)
(0 0 0.00750527)
(0 0 0.00744247)
(0 0 0.00737864)
(0 0 0.00731381)
(0 0 0.00724801)
(0 0 0.00718129)
(0 0 0.00711367)
(0 0 0.0070452)
(0 0 0.0069759)
(0 0 0.00690581)
(0 0 0.00683496)
(0 0 0.00676338)
(0 0 0.00669111)
(0 0 0.00661818)
(0 0 0.00654461)
(0 0 0.00647044)
(0 0 0.00639569)
(0 0 0.0063204)
(0 0 0.00624459)
(0 0 0.00616829)
(0 0 0.00609152)
(0 0 0.00601432)
(0 0 0.0059367)
(0 0 0.00585869)
(0 0 0.00578031)
(0 0 0.00570159)
(0 0 0.00562255)
(0 0 0.00554321)
(0 0 0.00546359)
(0 0 0.00538371)
(0 0 0.0053036)
(0 0 0.00522325)
(0 0 0.00514271)
(0 0 0.00506198)
(0 0 0.00498108)
(0 0 0.00490002)
(0 0 0.00481882)
(0 0 0.0047375)
(0 0 0.00465607)
(0 0 0.00457454)
(0 0 0.00449293)
(0 0 0.00441124)
(0 0 0.00432949)
(0 0 0.00424769)
(0 0 0.00416585)
(0 0 0.00408398)
(0 0 0.00400209)
(0 0 0.00392018)
(0 0 0.00383827)
(0 0 0.00375636)
(0 0 0.00367446)
(0 0 0.00359258)
(0 0 0.00351072)
(0 0 0.00342888)
(0 0 0.00334708)
(0 0 0.00326532)
(0 0 0.0031836)
(0 0 0.00310192)
(0 0 0.0030203)
(0 0 0.00293873)
(0 0 0.00285721)
(0 0 0.00277575)
(0 0 0.00269435)
(0 0 0.00261301)
(0 0 0.00253174)
(0 0 0.00245053)
(0 0 0.00236938)
(0 0 0.0022883)
(0 0 0.00220729)
(0 0 0.00212634)
(0 0 0.00204546)
(0 0 0.00196464)
(0 0 0.00188389)
(0 0 0.0018032)
(0 0 0.00172258)
(0 0 0.00164201)
(0 0 0.0015615)
(0 0 0.00148105)
(0 0 0.00140066)
(0 0 0.00132032)
(0 0 0.00124003)
(0 0 0.00115979)
(0 0 0.00107959)
(0 0 0.000999442)
(0 0 0.000919332)
(0 0 0.00083926)
(0 0 0.000759223)
(0 0 0.000679218)
(0 0 0.000599241)
(0 0 0.00051929)
(0 0 0.000439362)
(0 0 0.000359452)
(0 0 0.000279557)
(0 0 0.000199675)
(0 0 0.000119802)
(0 0 3.99334e-05)
(0 0 6.12905e-05)
(0 0 0.000183875)
(0 0 0.000306469)
(0 0 0.000429079)
(0 0 0.000551713)
(0 0 0.000674376)
(0 0 0.000797074)
(0 0 0.000919814)
(0 0 0.0010426)
(0 0 0.00116544)
(0 0 0.00128835)
(0 0 0.00141131)
(0 0 0.00153435)
(0 0 0.00165746)
(0 0 0.00178066)
(0 0 0.00190393)
(0 0 0.0020273)
(0 0 0.00215076)
(0 0 0.00227432)
(0 0 0.00239797)
(0 0 0.00252173)
(0 0 0.0026456)
(0 0 0.00276956)
(0 0 0.00289364)
(0 0 0.00301783)
(0 0 0.00314212)
(0 0 0.00326653)
(0 0 0.00339104)
(0 0 0.00351566)
(0 0 0.00364038)
(0 0 0.0037652)
(0 0 0.00389012)
(0 0 0.00401514)
(0 0 0.00414024)
(0 0 0.00426543)
(0 0 0.0043907)
(0 0 0.00451603)
(0 0 0.00464143)
(0 0 0.00476688)
(0 0 0.00489237)
(0 0 0.0050179)
(0 0 0.00514344)
(0 0 0.00526899)
(0 0 0.00539454)
(0 0 0.00552006)
(0 0 0.00564554)
(0 0 0.00577097)
(0 0 0.00589633)
(0 0 0.00602159)
(0 0 0.00614674)
(0 0 0.00627176)
(0 0 0.00639662)
(0 0 0.0065213)
(0 0 0.00664577)
(0 0 0.00677)
(0 0 0.00689398)
(0 0 0.00701767)
(0 0 0.00714103)
(0 0 0.00726405)
(0 0 0.00738667)
(0 0 0.00750888)
(0 0 0.00763064)
(0 0 0.0077519)
(0 0 0.00787263)
(0 0 0.0079928)
(0 0 0.00811235)
(0 0 0.00823125)
(0 0 0.00834946)
(0 0 0.00846693)
(0 0 0.00858362)
(0 0 0.00869947)
(0 0 0.00881445)
(0 0 0.0089285)
(0 0 0.00904158)
(0 0 0.00915363)
(0 0 0.0092646)
(0 0 0.00937444)
(0 0 0.0094831)
(0 0 0.00959052)
(0 0 0.00969665)
(0 0 0.00980143)
(0 0 0.00990481)
(0 0 0.0100067)
(0 0 0.0101071)
(0 0 0.010206)
(0 0 0.0103032)
(0 0 0.0103987)
(0 0 0.0104925)
(0 0 0.0105844)
(0 0 0.0106746)
(0 0 0.0107628)
(0 0 0.010849)
(0 0 0.0109332)
(0 0 0.0110154)
(0 0 0.0110954)
(0 0 0.0111732)
(0 0 0.0112488)
(0 0 0.0113221)
(0 0 0.0113931)
(0 0 0.0114616)
(0 0 0.0115278)
(0 0 0.0115914)
(0 0 0.0116526)
(0 0 0.0117111)
(0 0 0.0117671)
(0 0 0.0118204)
(0 0 0.011871)
(0 0 0.0119189)
(0 0 0.0119641)
(0 0 0.0120065)
(0 0 0.012046)
(0 0 0.0120827)
(0 0 0.0121166)
(0 0 0.0121476)
(0 0 0.0121756)
(0 0 0.0122008)
(0 0 0.012223)
(0 0 0.0122423)
(0 0 0.0122586)
(0 0 0.012272)
(0 0 0.0122824)
(0 0 0.0122898)
(0 0 0.0122943)
(0 0 0.0122958)
(0 0 0.0122944)
(0 0 0.01229)
(0 0 0.0122828)
(0 0 0.0122725)
(0 0 0.0122594)
(0 0 0.0122434)
(0 0 0.0122246)
(0 0 0.0122029)
(0 0 0.0121784)
(0 0 0.0121511)
(0 0 0.0121211)
(0 0 0.0120884)
(0 0 0.0120529)
(0 0 0.0120149)
(0 0 0.0119742)
(0 0 0.0119309)
(0 0 0.0118851)
(0 0 0.0118368)
(0 0 0.0117861)
(0 0 0.011733)
(0 0 0.0116775)
(0 0 0.0116196)
(0 0 0.0115596)
(0 0 0.0114973)
(0 0 0.0114328)
(0 0 0.0113663)
(0 0 0.0112976)
(0 0 0.011227)
(0 0 0.0111543)
(0 0 0.0110798)
(0 0 0.0110034)
(0 0 0.0109252)
(0 0 0.0108453)
(0 0 0.0107636)
(0 0 0.0106803)
(0 0 0.0105953)
(0 0 0.0105089)
(0 0 0.0104209)
(0 0 0.0103315)
(0 0 0.0102407)
(0 0 0.0101485)
(0 0 0.0100551)
(0 0 0.00996035)
(0 0 0.00986444)
(0 0 0.00976737)
(0 0 0.0096692)
(0 0 0.00956996)
(0 0 0.00946971)
(0 0 0.00936849)
(0 0 0.00926634)
(0 0 0.0091633)
(0 0 0.00905942)
(0 0 0.00895473)
(0 0 0.00884929)
(0 0 0.00874311)
(0 0 0.00863626)
(0 0 0.00852875)
(0 0 0.00842063)
(0 0 0.00831192)
(0 0 0.00820268)
(0 0 0.00809292)
(0 0 0.00798268)
(0 0 0.007872)
(0 0 0.00776089)
(0 0 0.0076494)
(0 0 0.00753754)
(0 0 0.00742535)
(0 0 0.00731284)
(0 0 0.00720006)
(0 0 0.00708701)
(0 0 0.00697372)
(0 0 0.00686022)
(0 0 0.00674653)
(0 0 0.00663266)
(0 0 0.00651864)
(0 0 0.00640448)
(0 0 0.0062902)
(0 0 0.00617583)
(0 0 0.00606136)
(0 0 0.00594683)
(0 0 0.00583224)
(0 0 0.00571761)
(0 0 0.00560294)
(0 0 0.00548826)
(0 0 0.00537358)
(0 0 0.00525889)
(0 0 0.00514422)
(0 0 0.00502958)
(0 0 0.00491497)
(0 0 0.00480039)
(0 0 0.00468586)
(0 0 0.00457139)
(0 0 0.00445697)
(0 0 0.00434262)
(0 0 0.00422834)
(0 0 0.00411414)
(0 0 0.00400001)
(0 0 0.00388597)
(0 0 0.003772)
(0 0 0.00365813)
(0 0 0.00354434)
(0 0 0.00343065)
(0 0 0.00331705)
(0 0 0.00320353)
(0 0 0.00309012)
(0 0 0.00297679)
(0 0 0.00286355)
(0 0 0.00275041)
(0 0 0.00263736)
(0 0 0.0025244)
(0 0 0.00241152)
(0 0 0.00229873)
(0 0 0.00218602)
(0 0 0.0020734)
(0 0 0.00196085)
(0 0 0.00184837)
(0 0 0.00173597)
(0 0 0.00162364)
(0 0 0.00151137)
(0 0 0.00139916)
(0 0 0.00128701)
(0 0 0.00117492)
(0 0 0.00106287)
(0 0 0.000950865)
(0 0 0.000838902)
(0 0 0.000726975)
(0 0 0.00061508)
(0 0 0.000503211)
(0 0 0.000391364)
(0 0 0.000279533)
(0 0 0.000167715)
(0 0 5.59043e-05)
(0 0 7.87963e-05)
(0 0 0.000236393)
(0 0 0.000394003)
(0 0 0.000551634)
(0 0 0.000709295)
(0 0 0.000866993)
(0 0 0.00102474)
(0 0 0.00118254)
(0 0 0.0013404)
(0 0 0.00149833)
(0 0 0.00165633)
(0 0 0.00181442)
(0 0 0.00197261)
(0 0 0.00213089)
(0 0 0.00228927)
(0 0 0.00244776)
(0 0 0.00260637)
(0 0 0.0027651)
(0 0 0.00292395)
(0 0 0.00308293)
(0 0 0.00324205)
(0 0 0.0034013)
(0 0 0.00356068)
(0 0 0.00372021)
(0 0 0.00387988)
(0 0 0.00403968)
(0 0 0.00419963)
(0 0 0.00435972)
(0 0 0.00451995)
(0 0 0.00468031)
(0 0 0.0048408)
(0 0 0.00500142)
(0 0 0.00516217)
(0 0 0.00532303)
(0 0 0.005484)
(0 0 0.00564506)
(0 0 0.00580622)
(0 0 0.00596746)
(0 0 0.00612877)
(0 0 0.00629014)
(0 0 0.00645155)
(0 0 0.00661298)
(0 0 0.00677443)
(0 0 0.00693587)
(0 0 0.00709728)
(0 0 0.00725865)
(0 0 0.00741994)
(0 0 0.00758115)
(0 0 0.00774224)
(0 0 0.00790318)
(0 0 0.00806396)
(0 0 0.00822453)
(0 0 0.00838488)
(0 0 0.00854496)
(0 0 0.00870474)
(0 0 0.00886419)
(0 0 0.00902326)
(0 0 0.00918193)
(0 0 0.00934015)
(0 0 0.00949787)
(0 0 0.00965506)
(0 0 0.00981166)
(0 0 0.00996764)
(0 0 0.0101229)
(0 0 0.0102775)
(0 0 0.0104313)
(0 0 0.0105842)
(0 0 0.0107363)
(0 0 0.0108874)
(0 0 0.0110375)
(0 0 0.0111865)
(0 0 0.0113345)
(0 0 0.0114812)
(0 0 0.0116266)
(0 0 0.0117708)
(0 0 0.0119136)
(0 0 0.0120549)
(0 0 0.0121947)
(0 0 0.0123329)
(0 0 0.0124694)
(0 0 0.0126042)
(0 0 0.0127373)
(0 0 0.0128684)
(0 0 0.0129976)
(0 0 0.0131247)
(0 0 0.0132498)
(0 0 0.0133727)
(0 0 0.0134934)
(0 0 0.0136118)
(0 0 0.0137277)
(0 0 0.0138412)
(0 0 0.0139522)
(0 0 0.0140606)
(0 0 0.0141663)
(0 0 0.0142693)
(0 0 0.0143694)
(0 0 0.0144667)
(0 0 0.014561)
(0 0 0.0146523)
(0 0 0.0147406)
(0 0 0.0148257)
(0 0 0.0149076)
(0 0 0.0149863)
(0 0 0.0150616)
(0 0 0.0151337)
(0 0 0.0152023)
(0 0 0.0152674)
(0 0 0.0153291)
(0 0 0.0153872)
(0 0 0.0154417)
(0 0 0.0154926)
(0 0 0.0155398)
(0 0 0.0155834)
(0 0 0.0156233)
(0 0 0.0156594)
(0 0 0.0156918)
(0 0 0.0157204)
(0 0 0.0157452)
(0 0 0.0157662)
(0 0 0.0157834)
(0 0 0.0157967)
(0 0 0.0158063)
(0 0 0.0158121)
(0 0 0.015814)
(0 0 0.0158122)
(0 0 0.0158065)
(0 0 0.0157971)
(0 0 0.0157839)
(0 0 0.0157671)
(0 0 0.0157465)
(0 0 0.0157222)
(0 0 0.0156943)
(0 0 0.0156627)
(0 0 0.0156276)
(0 0 0.015589)
(0 0 0.0155468)
(0 0 0.0155012)
(0 0 0.0154522)
(0 0 0.0153998)
(0 0 0.0153441)
(0 0 0.0152851)
(0 0 0.015223)
(0 0 0.0151577)
(0 0 0.0150893)
(0 0 0.0150178)
(0 0 0.0149434)
(0 0 0.0148661)
(0 0 0.0147859)
(0 0 0.014703)
(0 0 0.0146173)
(0 0 0.014529)
(0 0 0.014438)
(0 0 0.0143446)
(0 0 0.0142487)
(0 0 0.0141504)
(0 0 0.0140497)
(0 0 0.0139468)
(0 0 0.0138417)
(0 0 0.0137345)
(0 0 0.0136253)
(0 0 0.013514)
(0 0 0.0134008)
(0 0 0.0132857)
(0 0 0.0131689)
(0 0 0.0130503)
(0 0 0.0129301)
(0 0 0.0128082)
(0 0 0.0126848)
(0 0 0.0125599)
(0 0 0.0124336)
(0 0 0.012306)
(0 0 0.012177)
(0 0 0.0120468)
(0 0 0.0119154)
(0 0 0.0117828)
(0 0 0.0116492)
(0 0 0.0115145)
(0 0 0.0113789)
(0 0 0.0112423)
(0 0 0.0111049)
(0 0 0.0109666)
(0 0 0.0108275)
(0 0 0.0106877)
(0 0 0.0105472)
(0 0 0.010406)
(0 0 0.0102642)
(0 0 0.0101219)
(0 0 0.00997896)
(0 0 0.00983556)
(0 0 0.0096917)
(0 0 0.00954741)
(0 0 0.00940272)
(0 0 0.00925766)
(0 0 0.00911228)
(0 0 0.00896659)
(0 0 0.00882062)
(0 0 0.00867441)
(0 0 0.00852797)
(0 0 0.00838134)
(0 0 0.00823454)
(0 0 0.00808758)
(0 0 0.0079405)
(0 0 0.0077933)
(0 0 0.00764602)
(0 0 0.00749867)
(0 0 0.00735126)
(0 0 0.00720382)
(0 0 0.00705635)
(0 0 0.00690888)
(0 0 0.00676141)
(0 0 0.00661397)
(0 0 0.00646655)
(0 0 0.00631918)
(0 0 0.00617185)
(0 0 0.00602459)
(0 0 0.0058774)
(0 0 0.00573029)
(0 0 0.00558326)
(0 0 0.00543632)
(0 0 0.00528947)
(0 0 0.00514273)
(0 0 0.0049961)
(0 0 0.00484957)
(0 0 0.00470316)
(0 0 0.00455686)
(0 0 0.00441068)
(0 0 0.00426462)
(0 0 0.00411867)
(0 0 0.00397285)
(0 0 0.00382714)
(0 0 0.00368156)
(0 0 0.00353609)
(0 0 0.00339074)
(0 0 0.0032455)
(0 0 0.00310038)
(0 0 0.00295537)
(0 0 0.00281046)
(0 0 0.00266566)
(0 0 0.00252096)
(0 0 0.00237636)
(0 0 0.00223185)
(0 0 0.00208742)
(0 0 0.00194309)
(0 0 0.00179883)
(0 0 0.00165464)
(0 0 0.00151052)
(0 0 0.00136647)
(0 0 0.00122247)
(0 0 0.00107853)
(0 0 0.000934629)
(0 0 0.000790771)
(0 0 0.000646948)
(0 0 0.000503153)
(0 0 0.000359379)
(0 0 0.000215621)
(0 0 7.18728e-05)
(0 0 9.6298e-05)
(0 0 0.000288899)
(0 0 0.000481516)
(0 0 0.000674159)
(0 0 0.000866839)
(0 0 0.00105956)
(0 0 0.00125235)
(0 0 0.0014452)
(0 0 0.00163812)
(0 0 0.00183113)
(0 0 0.00202424)
(0 0 0.00221744)
(0 0 0.00241076)
(0 0 0.0026042)
(0 0 0.00279777)
(0 0 0.00299147)
(0 0 0.00318532)
(0 0 0.00337931)
(0 0 0.00357346)
(0 0 0.00376776)
(0 0 0.00396223)
(0 0 0.00415686)
(0 0 0.00435166)
(0 0 0.00454664)
(0 0 0.00474178)
(0 0 0.00493711)
(0 0 0.0051326)
(0 0 0.00532827)
(0 0 0.00552411)
(0 0 0.00572011)
(0 0 0.00591628)
(0 0 0.0061126)
(0 0 0.00630908)
(0 0 0.0065057)
(0 0 0.00670246)
(0 0 0.00689934)
(0 0 0.00709633)
(0 0 0.00729343)
(0 0 0.00749061)
(0 0 0.00768786)
(0 0 0.00788517)
(0 0 0.00808251)
(0 0 0.00827987)
(0 0 0.00847723)
(0 0 0.00867455)
(0 0 0.00887182)
(0 0 0.00906901)
(0 0 0.00926609)
(0 0 0.00946303)
(0 0 0.0096598)
(0 0 0.00985636)
(0 0 0.0100527)
(0 0 0.0102487)
(0 0 0.0104444)
(0 0 0.0106398)
(0 0 0.0108348)
(0 0 0.0110293)
(0 0 0.0112233)
(0 0 0.0114167)
(0 0 0.0116096)
(0 0 0.0118018)
(0 0 0.0119933)
(0 0 0.0121841)
(0 0 0.012374)
(0 0 0.012563)
(0 0 0.012751)
(0 0 0.0129381)
(0 0 0.0131241)
(0 0 0.0133089)
(0 0 0.0134925)
(0 0 0.0136747)
(0 0 0.0138556)
(0 0 0.0140351)
(0 0 0.014213)
(0 0 0.0143894)
(0 0 0.014564)
(0 0 0.0147368)
(0 0 0.0149078)
(0 0 0.0150769)
(0 0 0.0152439)
(0 0 0.0154089)
(0 0 0.0155716)
(0 0 0.015732)
(0 0 0.01589)
(0 0 0.0160456)
(0 0 0.0161986)
(0 0 0.016349)
(0 0 0.0164966)
(0 0 0.0166415)
(0 0 0.0167833)
(0 0 0.0169222)
(0 0 0.017058)
(0 0 0.0171906)
(0 0 0.0173199)
(0 0 0.0174459)
(0 0 0.0175685)
(0 0 0.0176875)
(0 0 0.0178029)
(0 0 0.0179146)
(0 0 0.0180226)
(0 0 0.0181268)
(0 0 0.018227)
(0 0 0.0183233)
(0 0 0.0184155)
(0 0 0.0185036)
(0 0 0.0185876)
(0 0 0.0186673)
(0 0 0.0187427)
(0 0 0.0188138)
(0 0 0.0188805)
(0 0 0.0189428)
(0 0 0.0190006)
(0 0 0.019054)
(0 0 0.0191027)
(0 0 0.0191469)
(0 0 0.0191865)
(0 0 0.0192215)
(0 0 0.0192518)
(0 0 0.0192775)
(0 0 0.0192985)
(0 0 0.0193149)
(0 0 0.0193266)
(0 0 0.0193336)
(0 0 0.019336)
(0 0 0.0193337)
(0 0 0.0193268)
(0 0 0.0193152)
(0 0 0.0192991)
(0 0 0.0192784)
(0 0 0.0192532)
(0 0 0.0192234)
(0 0 0.0191892)
(0 0 0.0191506)
(0 0 0.0191076)
(0 0 0.0190603)
(0 0 0.0190087)
(0 0 0.0189528)
(0 0 0.0188928)
(0 0 0.0188287)
(0 0 0.0187605)
(0 0 0.0186884)
(0 0 0.0186123)
(0 0 0.0185323)
(0 0 0.0184486)
(0 0 0.0183612)
(0 0 0.0182701)
(0 0 0.0181755)
(0 0 0.0180774)
(0 0 0.0179759)
(0 0 0.017871)
(0 0 0.0177629)
(0 0 0.0176516)
(0 0 0.0175373)
(0 0 0.0174199)
(0 0 0.0172996)
(0 0 0.0171765)
(0 0 0.0170506)
(0 0 0.016922)
(0 0 0.0167908)
(0 0 0.0166571)
(0 0 0.016521)
(0 0 0.0163826)
(0 0 0.0162418)
(0 0 0.0160989)
(0 0 0.0159538)
(0 0 0.0158067)
(0 0 0.0156576)
(0 0 0.0155067)
(0 0 0.015354)
(0 0 0.0151995)
(0 0 0.0150433)
(0 0 0.0148856)
(0 0 0.0147263)
(0 0 0.0145656)
(0 0 0.0144035)
(0 0 0.01424)
(0 0 0.0140753)
(0 0 0.0139094)
(0 0 0.0137424)
(0 0 0.0135743)
(0 0 0.0134052)
(0 0 0.0132351)
(0 0 0.0130642)
(0 0 0.0128923)
(0 0 0.0127197)
(0 0 0.0125463)
(0 0 0.0123723)
(0 0 0.0121975)
(0 0 0.0120222)
(0 0 0.0118463)
(0 0 0.0116699)
(0 0 0.011493)
(0 0 0.0113156)
(0 0 0.0111379)
(0 0 0.0109597)
(0 0 0.0107813)
(0 0 0.0106025)
(0 0 0.0104235)
(0 0 0.0102442)
(0 0 0.0100647)
(0 0 0.00988509)
(0 0 0.00970528)
(0 0 0.00952534)
(0 0 0.00934529)
(0 0 0.00916515)
(0 0 0.00898496)
(0 0 0.00880471)
(0 0 0.00862445)
(0 0 0.00844418)
(0 0 0.00826392)
(0 0 0.00808368)
(0 0 0.00790348)
(0 0 0.00772334)
(0 0 0.00754326)
(0 0 0.00736325)
(0 0 0.00718334)
(0 0 0.00700351)
(0 0 0.0068238)
(0 0 0.00664419)
(0 0 0.00646471)
(0 0 0.00628535)
(0 0 0.00610612)
(0 0 0.00592703)
(0 0 0.00574807)
(0 0 0.00556926)
(0 0 0.00539059)
(0 0 0.00521207)
(0 0 0.00503369)
(0 0 0.00485546)
(0 0 0.00467738)
(0 0 0.00449944)
(0 0 0.00432165)
(0 0 0.00414401)
(0 0 0.0039665)
(0 0 0.00378913)
(0 0 0.0036119)
(0 0 0.0034348)
(0 0 0.00325783)
(0 0 0.00308098)
(0 0 0.00290425)
(0 0 0.00272764)
(0 0 0.00255113)
(0 0 0.00237472)
(0 0 0.00219842)
(0 0 0.0020222)
(0 0 0.00184607)
(0 0 0.00167001)
(0 0 0.00149403)
(0 0 0.00131811)
(0 0 0.00114224)
(0 0 0.000966429)
(0 0 0.000790657)
(0 0 0.00061492)
(0 0 0.000439209)
(0 0 0.000263518)
(0 0 8.78381e-05)
(0 0 0.000113794)
(0 0 0.000341389)
(0 0 0.000569003)
(0 0 0.000796648)
(0 0 0.00102434)
(0 0 0.00125208)
(0 0 0.00147989)
(0 0 0.00170778)
(0 0 0.00193576)
(0 0 0.00216384)
(0 0 0.00239203)
(0 0 0.00262035)
(0 0 0.0028488)
(0 0 0.00307739)
(0 0 0.00330614)
(0 0 0.00353505)
(0 0 0.00376412)
(0 0 0.00399337)
(0 0 0.0042228)
(0 0 0.00445242)
(0 0 0.00468224)
(0 0 0.00491225)
(0 0 0.00514247)
(0 0 0.00537289)
(0 0 0.00560352)
(0 0 0.00583435)
(0 0 0.00606539)
(0 0 0.00629664)
(0 0 0.00652809)
(0 0 0.00675975)
(0 0 0.00699159)
(0 0 0.00722363)
(0 0 0.00745585)
(0 0 0.00768824)
(0 0 0.00792079)
(0 0 0.0081535)
(0 0 0.00838634)
(0 0 0.0086193)
(0 0 0.00885237)
(0 0 0.00908553)
(0 0 0.00931875)
(0 0 0.00955203)
(0 0 0.00978532)
(0 0 0.0100186)
(0 0 0.0102519)
(0 0 0.0104851)
(0 0 0.0107182)
(0 0 0.0109512)
(0 0 0.011184)
(0 0 0.0114166)
(0 0 0.011649)
(0 0 0.0118811)
(0 0 0.0121129)
(0 0 0.0123443)
(0 0 0.0125753)
(0 0 0.0128058)
(0 0 0.0130358)
(0 0 0.0132652)
(0 0 0.0134939)
(0 0 0.013722)
(0 0 0.0139493)
(0 0 0.0141757)
(0 0 0.0144013)
(0 0 0.0146259)
(0 0 0.0148494)
(0 0 0.0150718)
(0 0 0.015293)
(0 0 0.015513)
(0 0 0.0157316)
(0 0 0.0159487)
(0 0 0.0161643)
(0 0 0.0163783)
(0 0 0.0165906)
(0 0 0.016801)
(0 0 0.0170096)
(0 0 0.0172162)
(0 0 0.0174207)
(0 0 0.017623)
(0 0 0.017823)
(0 0 0.0180206)
(0 0 0.0182157)
(0 0 0.0184082)
(0 0 0.018598)
(0 0 0.018785)
(0 0 0.0189691)
(0 0 0.0191501)
(0 0 0.019328)
(0 0 0.0195027)
(0 0 0.0196741)
(0 0 0.019842)
(0 0 0.0200063)
(0 0 0.020167)
(0 0 0.0203239)
(0 0 0.0204769)
(0 0 0.020626)
(0 0 0.020771)
(0 0 0.0209119)
(0 0 0.0210485)
(0 0 0.0211807)
(0 0 0.0213085)
(0 0 0.0214318)
(0 0 0.0215504)
(0 0 0.0216643)
(0 0 0.0217735)
(0 0 0.0218778)
(0 0 0.0219771)
(0 0 0.0220715)
(0 0 0.0221607)
(0 0 0.0222449)
(0 0 0.0223238)
(0 0 0.0223975)
(0 0 0.022466)
(0 0 0.022529)
(0 0 0.0225867)
(0 0 0.022639)
(0 0 0.0226859)
(0 0 0.0227273)
(0 0 0.0227631)
(0 0 0.0227935)
(0 0 0.0228184)
(0 0 0.0228377)
(0 0 0.0228515)
(0 0 0.0228598)
(0 0 0.0228626)
(0 0 0.0228598)
(0 0 0.0228516)
(0 0 0.0228379)
(0 0 0.0228188)
(0 0 0.0227943)
(0 0 0.0227644)
(0 0 0.0227292)
(0 0 0.0226886)
(0 0 0.0226429)
(0 0 0.022592)
(0 0 0.0225359)
(0 0 0.0224748)
(0 0 0.0224087)
(0 0 0.0223376)
(0 0 0.0222617)
(0 0 0.022181)
(0 0 0.0220955)
(0 0 0.0220054)
(0 0 0.0219108)
(0 0 0.0218117)
(0 0 0.0217082)
(0 0 0.0216004)
(0 0 0.0214884)
(0 0 0.0213722)
(0 0 0.0212521)
(0 0 0.021128)
(0 0 0.021)
(0 0 0.0208683)
(0 0 0.020733)
(0 0 0.0205941)
(0 0 0.0204517)
(0 0 0.020306)
(0 0 0.020157)
(0 0 0.0200049)
(0 0 0.0198497)
(0 0 0.0196915)
(0 0 0.0195304)
(0 0 0.0193666)
(0 0 0.0192001)
(0 0 0.0190309)
(0 0 0.0188593)
(0 0 0.0186853)
(0 0 0.018509)
(0 0 0.0183304)
(0 0 0.0181497)
(0 0 0.0179669)
(0 0 0.0177822)
(0 0 0.0175956)
(0 0 0.0174073)
(0 0 0.0172171)
(0 0 0.0170254)
(0 0 0.0168321)
(0 0 0.0166373)
(0 0 0.0164411)
(0 0 0.0162436)
(0 0 0.0160448)
(0 0 0.0158448)
(0 0 0.0156437)
(0 0 0.0154415)
(0 0 0.0152383)
(0 0 0.0150342)
(0 0 0.0148292)
(0 0 0.0146233)
(0 0 0.0144167)
(0 0 0.0142094)
(0 0 0.0140014)
(0 0 0.0137928)
(0 0 0.0135836)
(0 0 0.013374)
(0 0 0.0131638)
(0 0 0.0129532)
(0 0 0.0127422)
(0 0 0.0125309)
(0 0 0.0123192)
(0 0 0.0121073)
(0 0 0.0118951)
(0 0 0.0116828)
(0 0 0.0114702)
(0 0 0.0112575)
(0 0 0.0110446)
(0 0 0.0108317)
(0 0 0.0106187)
(0 0 0.0104056)