/*--------------------------------*- C++ -*----------------------------------*\
| =========                 |                                                 |
| \\      /  F ield         | OpenFOAM: The Open Source CFD Toolbox           |
|  \\    /   O peration     | Version:  v2012                                 |
|   \\  /    A nd           | Website:  www.openfoam.com                      |
|    \\/     M anipulation  |                                                 |
\*---------------------------------------------------------------------------*/
FoamFile
{
    version     2.0;
    format      ascii;
    class       surfaceScalarField;
    location    "8";
    object      phi;
}
// * * * * * * * * * * * * * * * * * * * * * * * * * * * * * * * * * * * * * //

dimensions      [0 3 -1 0 0 0 0];
oriented        oriented;


internalField   nonuniform List<scalar> 
130560
(
3.70503e-06
-3.70503e-06
7.41004e-06
-3.70501e-06
1.1115e-05
-3.70496e-06
1.48199e-05
-3.70488e-06
1.85247e-05
-3.70477e-06
2.22293e-05
-3.70464e-06
2.59338e-05
-3.70446e-06
2.9638e-05
-3.70425e-06
3.3342e-05
-3.70398e-06
3.70456e-05
-3.70367e-06
4.07489e-05
-3.70329e-06
4.44518e-05
-3.70285e-06
4.81541e-05
-3.70233e-06
5.18559e-05
-3.70173e-06
5.55569e-05
-3.70103e-06
5.92571e-05
-3.70023e-06
6.29564e-05
-3.69931e-06
6.66547e-05
-3.69825e-06
7.03517e-05
-3.69706e-06
7.40474e-05
-3.69571e-06
7.77416e-05
-3.69418e-06
8.14341e-05
-3.69248e-06
8.51247e-05
-3.69056e-06
8.88131e-05
-3.68843e-06
9.24992e-05
-3.68607e-06
9.61826e-05
-3.68344e-06
9.98632e-05
-3.68055e-06
0.000103541
-3.67736e-06
0.000107214
-3.67387e-06
0.000110884
-3.67004e-06
0.00011455
-3.66585e-06
0.000118212
-3.66129e-06
0.000121868
-3.65633e-06
0.000125519
-3.65096e-06
0.000129164
-3.64514e-06
0.000132803
-3.63885e-06
0.000136435
-3.63207e-06
0.00014006
-3.62478e-06
0.000143677
-3.61694e-06
0.000147285
-3.60854e-06
0.000150885
-3.59955e-06
0.000154475
-3.58995e-06
0.000158054
-3.5797e-06
0.000161623
-3.56878e-06
0.00016518
-3.55717e-06
0.000168725
-3.54483e-06
0.000172257
-3.53175e-06
0.000175775
-3.5179e-06
0.000179278
-3.50325e-06
0.000182766
-3.48777e-06
0.000186237
-3.47144e-06
0.000189692
-3.45424e-06
0.000193128
-3.43613e-06
0.000196545
-3.4171e-06
0.000199942
-3.39712e-06
0.000203318
-3.37617e-06
0.000206672
-3.35422e-06
0.000210004
-3.33126e-06
0.000213311
-3.30725e-06
0.000216593
-3.28219e-06
0.000219849
-3.25604e-06
0.000223078
-3.2288e-06
0.000226278
-3.20043e-06
0.000229449
-3.17094e-06
0.000232589
-3.1403e-06
0.000235698
-3.1085e-06
0.000238773
-3.07552e-06
0.000241815
-3.04135e-06
0.000244821
-3.00599e-06
0.00024779
-2.96943e-06
0.000250722
-2.93165e-06
0.000253615
-2.89266e-06
0.000256467
-2.85245e-06
0.000259278
-2.81102e-06
0.000262046
-2.76837e-06
0.000264771
-2.72449e-06
0.00026745
-2.67941e-06
0.000270083
-2.63311e-06
0.000272669
-2.58561e-06
0.000275206
-2.53692e-06
0.000277693
-2.48705e-06
0.000280129
-2.43601e-06
0.000282513
-2.38382e-06
0.000284843
-2.3305e-06
0.000287119
-2.27606e-06
0.00028934
-2.22052e-06
0.000291504
-2.16392e-06
0.00029361
-2.10628e-06
0.000295658
-2.04762e-06
0.000297646
-1.98797e-06
0.000299573
-1.92736e-06
0.000301439
-1.86583e-06
0.000303242
-1.80341e-06
0.000304982
-1.74013e-06
0.000306658
-1.67604e-06
0.00030827
-1.61117e-06
0.000309815
-1.54556e-06
0.000311294
-1.47926e-06
0.000312707
-1.4123e-06
0.000314051
-1.34474e-06
0.000315328
-1.27661e-06
0.000316536
-1.20797e-06
0.000317675
-1.13886e-06
0.000318744
-1.06932e-06
0.000319744
-9.99411e-07
0.000320673
-9.29177e-07
0.000321532
-8.58667e-07
0.000322319
-7.87931e-07
0.000323036
-7.17018e-07
0.000323682
-6.45979e-07
0.000324257
-5.74864e-07
0.000324761
-5.03722e-07
0.000325194
-4.32603e-07
0.000325555
-3.61556e-07
0.000325846
-2.90629e-07
0.000326066
-2.19871e-07
0.000326215
-1.4933e-07
0.000326294
-7.90517e-08
0.000326303
-9.08236e-09
0.000326243
6.0533e-08
0.000326113
1.2975e-07
0.000325914
1.98527e-07
0.000325648
2.6682e-07
0.000325313
3.34591e-07
0.000324911
4.01799e-07
0.000324443
4.68407e-07
0.000323908
5.34377e-07
0.000323309
5.99676e-07
0.000322644
6.64269e-07
0.000321916
7.28125e-07
0.000321125
7.91212e-07
0.000320272
8.53502e-07
0.000319357
9.14968e-07
0.000318381
9.75584e-07
0.000317346
1.03533e-06
0.000316252
1.09417e-06
0.000315099
1.1521e-06
0.00031389
1.20909e-06
0.000312625
1.26513e-06
0.000311305
1.32019e-06
0.000309931
1.37427e-06
0.000308503
1.42736e-06
0.000307024
1.47943e-06
0.000305493
1.53049e-06
0.000303913
1.58052e-06
0.000302283
1.62952e-06
0.000300606
1.67748e-06
0.000298882
1.72439e-06
0.000297111
1.77026e-06
0.000295296
1.81509e-06
0.000293437
1.85886e-06
0.000291536
1.90159e-06
0.000289592
1.94328e-06
0.000287609
1.98393e-06
0.000285585
2.02354e-06
0.000283523
2.06213e-06
0.000281423
2.09969e-06
0.000279287
2.13623e-06
0.000277115
2.17177e-06
0.000274909
2.20631e-06
0.000272669
2.23986e-06
0.000270397
2.27243e-06
0.000268093
2.30404e-06
0.000265758
2.33469e-06
0.000263393
2.3644e-06
0.000261
2.39319e-06
0.000258579
2.42106e-06
0.000256131
2.44803e-06
0.000253657
2.47411e-06
0.000251158
2.49933e-06
0.000248634
2.52368e-06
0.000246087
2.5472e-06
0.000243517
2.5699e-06
0.000240925
2.59179e-06
0.000238312
2.61289e-06
0.000235679
2.63321e-06
0.000233026
2.65277e-06
0.000230355
2.6716e-06
0.000227665
2.6897e-06
0.000224958
2.70709e-06
0.000222234
2.7238e-06
0.000219494
2.73983e-06
0.000216739
2.7552e-06
0.000213969
2.76994e-06
0.000211185
2.78405e-06
0.000208388
2.79756e-06
0.000205577
2.81048e-06
0.000202754
2.82282e-06
0.00019992
2.83462e-06
0.000197074
2.84587e-06
0.000194217
2.8566e-06
0.00019135
2.86682e-06
0.000188474
2.87655e-06
0.000185588
2.8858e-06
0.000182693
2.8946e-06
0.00017979
2.90294e-06
0.00017688
2.91086e-06
0.000173961
2.91837e-06
0.000171036
2.92547e-06
0.000168104
2.93218e-06
0.000165165
2.93853e-06
0.000162221
2.94451e-06
0.00015927
2.95015e-06
0.000156315
2.95546e-06
0.000153354
2.96045e-06
0.000150389
2.96514e-06
0.00014742
2.96953e-06
0.000144446
2.97364e-06
0.000141469
2.97748e-06
0.000138488
2.98106e-06
0.000135503
2.9844e-06
0.000132516
2.9875e-06
0.000129525
2.99038e-06
0.000126532
2.99305e-06
0.000123537
2.99551e-06
0.000120539
2.99778e-06
0.000117539
2.99987e-06
0.000114537
3.00179e-06
0.000111534
3.00354e-06
0.000108529
3.00514e-06
0.000105522
3.00659e-06
0.000102514
3.00791e-06
9.95051e-05
3.0091e-06
9.64949e-05
3.01016e-06
9.34838e-05
3.01112e-06
9.04718e-05
3.01197e-06
8.74591e-05
3.01272e-06
8.44457e-05
3.01338e-06
8.14318e-05
3.01395e-06
7.84173e-05
3.01445e-06
7.54024e-05
3.01488e-06
7.23872e-05
3.01524e-06
6.93717e-05
3.01554e-06
6.63559e-05
3.01579e-06
6.33399e-05
3.01599e-06
6.03237e-05
3.01615e-06
5.73075e-05
3.01626e-06
5.42911e-05
3.01635e-06
5.12747e-05
3.0164e-06
4.82583e-05
3.01643e-06
4.52419e-05
3.01644e-06
4.22254e-05
3.01643e-06
3.9209e-05
3.0164e-06
3.61927e-05
3.01636e-06
3.31763e-05
3.01632e-06
3.01601e-05
3.01627e-06
2.71439e-05
3.01621e-06
2.41277e-05
3.01616e-06
2.11116e-05
3.0161e-06
1.80956e-05
3.01605e-06
1.50796e-05
3.016e-06
1.20636e-05
3.01596e-06
9.04766e-06
3.01593e-06
6.03176e-06
3.0159e-06
3.01588e-06
3.01588e-06
3.01588e-06
3.70506e-06
-7.41009e-06
7.41009e-06
-7.41004e-06
1.11151e-05
-7.40994e-06
1.482e-05
-7.40979e-06
1.85248e-05
-7.40958e-06
2.22295e-05
-7.40931e-06
2.5934e-05
-7.40896e-06
2.96383e-05
-7.40854e-06
3.33423e-05
-7.40802e-06
3.7046e-05
-7.4074e-06
4.07494e-05
-7.40665e-06
4.44523e-05
-7.40578e-06
4.81547e-05
-7.40475e-06
5.18565e-05
-7.40356e-06
5.55577e-05
-7.40217e-06
5.9258e-05
-7.40057e-06
6.29575e-05
-7.39874e-06
6.66559e-05
-7.39665e-06
7.03531e-05
-7.39427e-06
7.4049e-05
-7.39159e-06
7.77433e-05
-7.38855e-06
8.1436e-05
-7.38515e-06
8.51268e-05
-7.38135e-06
8.88154e-05
-7.3771e-06
9.25018e-05
-7.37238e-06
9.61855e-05
-7.36716e-06
9.98663e-05
-7.36139e-06
0.000103544
-7.35504e-06
0.000107218
-7.34806e-06
0.000110889
-7.34042e-06
0.000114555
-7.33207e-06
0.000118216
-7.32298e-06
0.000121873
-7.31309e-06
0.000125525
-7.30235e-06
0.00012917
-7.29074e-06
0.00013281
-7.27819e-06
0.000136442
-7.26465e-06
0.000140067
-7.25009e-06
0.000143685
-7.23445e-06
0.000147294
-7.21767e-06
0.000150894
-7.19972e-06
0.000154485
-7.18053e-06
0.000158065
-7.16006e-06
0.000161635
-7.13825e-06
0.000165193
-7.11505e-06
0.000168738
-7.09041e-06
0.000172271
-7.06428e-06
0.000175789
-7.0366e-06
0.000179293
-7.00732e-06
0.000182782
-6.97639e-06
0.000186254
-6.94376e-06
0.00018971
-6.90938e-06
0.000193147
-6.87319e-06
0.000196565
-6.83516e-06
0.000199963
-6.79522e-06
0.00020334
-6.75334e-06
0.000206695
-6.70946e-06
0.000210027
-6.66355e-06
0.000213336
-6.61556e-06
0.000216619
-6.56545e-06
0.000219876
-6.51318e-06
0.000223106
-6.4587e-06
0.000226308
-6.402e-06
0.00022948
-6.34303e-06
0.000232621
-6.28176e-06
0.000235731
-6.21817e-06
0.000238808
-6.15222e-06
0.00024185
-6.0839e-06
0.000244857
-6.01319e-06
0.000247828
-5.94007e-06
0.000250761
-5.86452e-06
0.000253655
-5.78654e-06
0.000256508
-5.70612e-06
0.000259321
-5.62326e-06
0.00026209
-5.53795e-06
0.000264816
-5.4502e-06
0.000267496
-5.36002e-06
0.000270131
-5.26742e-06
0.000272718
-5.17241e-06
0.000275256
-5.07502e-06
0.000277744
-4.97526e-06
0.000280181
-4.87317e-06
0.000282566
-4.76877e-06
0.000284898
-4.6621e-06
0.000287175
-4.5532e-06
0.000289396
-4.44212e-06
0.000291561
-4.32889e-06
0.000293669
-4.21357e-06
0.000295717
-4.09622e-06
0.000297706
-3.97689e-06
0.000299634
-3.85564e-06
0.000301501
-3.73254e-06
0.000303305
-3.60766e-06
0.000305046
-3.48107e-06
0.000306723
-3.35285e-06
0.000308335
-3.22307e-06
0.000309881
-3.09181e-06
0.000311361
-2.95917e-06
0.000312774
-2.82521e-06
0.000314119
-2.69004e-06
0.000315397
-2.55374e-06
0.000316605
-2.41641e-06
0.000317744
-2.27813e-06
0.000318814
-2.13901e-06
0.000319814
-1.99915e-06
0.000320743
-1.85863e-06
0.000321602
-1.71756e-06
0.00032239
-1.57604e-06
0.000323107
-1.43416e-06
0.000323753
-1.29203e-06
0.000324328
-1.14975e-06
0.000324832
-1.00742e-06
0.000325264
-8.65133e-07
0.000325626
-7.2299e-07
0.000325916
-5.81089e-07
0.000326136
-4.39526e-07
0.000326285
-2.98396e-07
0.000326364
-1.57794e-07
0.000326373
-1.78103e-08
0.000326312
1.21464e-07
0.000326181
2.59942e-07
0.000325982
3.97536e-07
0.000325715
5.34164e-07
0.00032538
6.69744e-07
0.000324978
8.04198e-07
0.000324508
9.3745e-07
0.000323973
1.06943e-06
0.000323373
1.20006e-06
0.000322708
1.32928e-06
0.000321979
1.45702e-06
0.000321187
1.58322e-06
0.000320333
1.70783e-06
0.000319417
1.83079e-06
0.000318441
1.95204e-06
0.000317404
2.07155e-06
0.000316309
2.18926e-06
0.000315156
2.30513e-06
0.000313946
2.41913e-06
0.00031268
2.53122e-06
0.000311359
2.64137e-06
0.000309984
2.74954e-06
0.000308555
2.85572e-06
0.000307075
2.95988e-06
0.000305543
3.06201e-06
0.000303962
3.16207e-06
0.000302331
3.26007e-06
0.000300653
3.35599e-06
0.000298927
3.44983e-06
0.000297156
3.54157e-06
0.00029534
3.63122e-06
0.00029348
3.71877e-06
0.000291577
3.80423e-06
0.000289633
3.8876e-06
0.000287648
3.96889e-06
0.000285623
4.04811e-06
0.00028356
4.12527e-06
0.00028146
4.20039e-06
0.000279322
4.27347e-06
0.00027715
4.34453e-06
0.000274942
4.4136e-06
0.000272701
4.48069e-06
0.000270428
4.54583e-06
0.000268123
4.60903e-06
0.000265787
4.67032e-06
0.000263422
4.72973e-06
0.000261028
4.78729e-06
0.000258606
4.84301e-06
0.000256157
4.89694e-06
0.000253682
4.94909e-06
0.000251182
4.9995e-06
0.000248657
5.04821e-06
0.000246109
5.09523e-06
0.000243539
5.1406e-06
0.000240946
5.18436e-06
0.000238332
5.22654e-06
0.000235698
5.26717e-06
0.000233045
5.30629e-06
0.000230373
5.34392e-06
0.000227682
5.3801e-06
0.000224974
5.41487e-06
0.00022225
5.44826e-06
0.00021951
5.48031e-06
0.000216754
5.51104e-06
0.000213983
5.54049e-06
0.000211198
5.5687e-06
0.0002084
5.5957e-06
0.000205589
5.62152e-06
0.000202766
5.6462e-06
0.000199931
5.66977e-06
0.000197084
5.69225e-06
0.000194227
5.7137e-06
0.00019136
5.73412e-06
0.000188483
5.75357e-06
0.000185597
5.77206e-06
0.000182702
5.78963e-06
0.000179798
5.80632e-06
0.000176887
5.82214e-06
0.000173968
5.83713e-06
0.000171042
5.85132e-06
0.00016811
5.86474e-06
0.000165171
5.87741e-06
0.000162226
5.88937e-06
0.000159276
5.90064e-06
0.00015632
5.91124e-06
0.000153359
5.92121e-06
0.000150394
5.93056e-06
0.000147424
5.93933e-06
0.00014445
5.94754e-06
0.000141472
5.95521e-06
0.000138491
5.96236e-06
0.000135506
5.96903e-06
0.000132519
5.97522e-06
0.000129528
5.98097e-06
0.000126535
5.98629e-06
0.000123539
5.99121e-06
0.000120541
5.99574e-06
0.000117541
5.99991e-06
0.000114539
6.00374e-06
0.000111535
6.00723e-06
0.00010853
6.01042e-06
0.000105523
6.01332e-06
0.000102515
6.01594e-06
9.95061e-05
6.01831e-06
9.64958e-05
6.02044e-06
9.34846e-05
6.02234e-06
9.04725e-05
6.02403e-06
8.74597e-05
6.02552e-06
8.44463e-05
6.02683e-06
8.14322e-05
6.02798e-06
7.84177e-05
6.02897e-06
7.54028e-05
6.02982e-06
7.23875e-05
6.03054e-06
6.93719e-05
6.03114e-06
6.63561e-05
6.03163e-06
6.334e-05
6.03202e-06
6.03238e-05
6.03233e-06
5.73075e-05
6.03256e-06
5.42912e-05
6.03272e-06
5.12747e-05
6.03283e-06
4.82583e-05
6.03288e-06
4.52418e-05
6.03289e-06
4.22254e-05
6.03287e-06
3.9209e-05
6.03281e-06
3.61926e-05
6.03274e-06
3.31763e-05
6.03264e-06
3.016e-05
6.03254e-06
2.71438e-05
6.03242e-06
2.41276e-05
6.03231e-06
2.11115e-05
6.0322e-06
1.80955e-05
6.0321e-06
1.50795e-05
6.032e-06
1.20636e-05
6.03192e-06
9.04763e-06
6.03185e-06
6.03174e-06
6.03179e-06
3.01587e-06
6.03176e-06
6.03174e-06
3.70511e-06
-1.11152e-05
7.41019e-06
-1.11151e-05
1.11152e-05
-1.1115e-05
1.48202e-05
-1.11148e-05
1.85251e-05
-1.11145e-05
2.22298e-05
-1.11141e-05
2.59344e-05
-1.11135e-05
2.96388e-05
-1.11129e-05
3.33429e-05
-1.11122e-05
3.70468e-05
-1.11112e-05
4.07503e-05
-1.11101e-05
4.44533e-05
-1.11089e-05
4.81559e-05
-1.11073e-05
5.18579e-05
-1.11056e-05
5.55593e-05
-1.11035e-05
5.92599e-05
-1.11012e-05
6.29596e-05
-1.10984e-05
6.66583e-05
-1.10953e-05
7.03558e-05
-1.10918e-05
7.4052e-05
-1.10878e-05
7.77467e-05
-1.10833e-05
8.14398e-05
-1.10782e-05
8.5131e-05
-1.10726e-05
8.88202e-05
-1.10662e-05
9.2507e-05
-1.10592e-05
9.61913e-05
-1.10514e-05
9.98727e-05
-1.10428e-05
0.000103551
-1.10333e-05
0.000107226
-1.10229e-05
0.000110897
-1.10115e-05
0.000114564
-1.09991e-05
0.000118226
-1.09855e-05
0.000121884
-1.09707e-05
0.000125536
-1.09546e-05
0.000129183
-1.09373e-05
0.000132823
-1.09185e-05
0.000136457
-1.08983e-05
0.000140083
-1.08765e-05
0.000143702
-1.08531e-05
0.000147312
-1.0828e-05
0.000150914
-1.08011e-05
0.000154505
-1.07724e-05
0.000158087
-1.07418e-05
0.000161658
-1.07091e-05
0.000165217
-1.06744e-05
0.000168764
-1.06375e-05
0.000172298
-1.05983e-05
0.000175819
-1.05569e-05
0.000179324
-1.0513e-05
0.000182815
-1.04667e-05
0.000186289
-1.04178e-05
0.000189746
-1.03663e-05
0.000193185
-1.03121e-05
0.000196605
-1.02551e-05
0.000200005
-1.01953e-05
0.000203384
-1.01325e-05
0.000206741
-1.00667e-05
0.000210075
-9.99793e-06
0.000213386
-9.92599e-06
0.000216671
-9.85087e-06
0.000219931
-9.77251e-06
0.000223163
-9.69085e-06
0.000226367
-9.60583e-06
0.000229541
-9.51741e-06
0.000232685
-9.42555e-06
0.000235797
-9.33019e-06
0.000238876
-9.2313e-06
0.000241921
-9.12884e-06
0.00024493
-9.0228e-06
0.000247904
-8.91313e-06
0.000250839
-8.79983e-06
0.000253735
-8.68287e-06
0.000256591
-8.56224e-06
0.000259406
-8.43794e-06
0.000262178
-8.30997e-06
0.000264906
-8.17834e-06
0.000267589
-8.04306e-06
0.000270226
-7.90413e-06
0.000272815
-7.7616e-06
0.000275356
-7.61548e-06
0.000277846
-7.46581e-06
0.000280286
-7.31263e-06
0.000282673
-7.15599e-06
0.000285007
-6.99594e-06
0.000287286
-6.83254e-06
0.00028951
-6.66585e-06
0.000291677
-6.49595e-06
0.000293786
-6.3229e-06
0.000295837
-6.1468e-06
0.000297827
-5.96772e-06
0.000299758
-5.78577e-06
0.000301626
-5.60104e-06
0.000303432
-5.41363e-06
0.000305175
-5.22365e-06
0.000306853
-5.03122e-06
0.000308466
-4.83645e-06
0.000310014
-4.63946e-06
0.000311495
-4.44038e-06
0.000312909
-4.23934e-06
0.000314256
-4.03647e-06
0.000315534
-3.83191e-06
0.000316743
-3.62579e-06
0.000317884
-3.41826e-06
0.000318954
-3.20946e-06
0.000319954
-2.99953e-06
0.000320884
-2.78863e-06
0.000321744
-2.5769e-06
0.000322532
-2.36449e-06
0.00032325
-2.15156e-06
0.000323896
-1.93824e-06
0.000324471
-1.7247e-06
0.000324974
-1.51107e-06
0.000325407
-1.29752e-06
0.000325768
-1.08418e-06
0.000326058
-8.71211e-07
0.000326277
-6.58747e-07
0.000326426
-4.46936e-07
0.000326504
-2.35917e-07
0.000326512
-2.58293e-08
0.00032645
1.83193e-07
0.000326319
3.91016e-07
0.000326119
5.97513e-07
0.000325851
8.02556e-07
0.000325514
1.00602e-06
0.000325111
1.2078e-06
0.000324641
1.40777e-06
0.000324104
1.60582e-06
0.000323502
1.80185e-06
0.000322836
1.99576e-06
0.000322105
2.18745e-06
0.000321312
2.37683e-06
0.000320456
2.56381e-06
0.000319538
2.74831e-06
0.00031856
2.93025e-06
0.000317522
3.10956e-06
0.000316425
3.28618e-06
0.00031527
3.46004e-06
0.000314058
3.63108e-06
0.00031279
3.79926e-06
0.000311467
3.96451e-06
0.00031009
4.12681e-06
0.00030866
4.28611e-06
0.000307177
4.44237e-06
0.000305643
4.59558e-06
0.00030406
4.7457e-06
0.000302427
4.89271e-06
0.000300747
5.0366e-06
0.000299019
5.17736e-06
0.000297246
5.31497e-06
0.000295427
5.44944e-06
0.000293565
5.58077e-06
0.000291661
5.70895e-06
0.000289714
5.834e-06
0.000287727
5.95593e-06
0.000285701
6.07475e-06
0.000283635
6.19047e-06
0.000281533
6.30312e-06
0.000279393
6.41272e-06
0.000277219
6.51929e-06
0.000275009
6.62287e-06
0.000272767
6.72348e-06
0.000270491
6.82116e-06
0.000268184
6.91593e-06
0.000265847
7.00784e-06
0.00026348
7.09692e-06
0.000261084
7.18322e-06
0.00025866
7.26677e-06
0.000256209
7.34762e-06
0.000253733
7.42582e-06
0.000251231
7.5014e-06
0.000248705
7.57441e-06
0.000246155
7.6449e-06
0.000243583
7.71292e-06
0.000240988
7.77852e-06
0.000238373
7.84175e-06
0.000235738
7.90265e-06
0.000233083
7.96128e-06
0.000230409
8.01769e-06
0.000227717
8.07192e-06
0.000225008
8.12403e-06
0.000222282
8.17408e-06
0.00021954
8.2221e-06
0.000216783
8.26816e-06
0.000214011
8.3123e-06
0.000211226
8.35457e-06
0.000208426
8.39502e-06
0.000205614
8.43372e-06
0.00020279
8.47069e-06
0.000199953
8.506e-06
0.000197106
8.53969e-06
0.000194248
8.57181e-06
0.000191379
8.60241e-06
0.000188501
8.63154e-06
0.000185614
8.65924e-06
0.000182718
8.68556e-06
0.000179814
8.71055e-06
0.000176902
8.73425e-06
0.000173982
8.7567e-06
0.000171056
8.77795e-06
0.000168123
8.79804e-06
0.000165183
8.81702e-06
0.000162237
8.83492e-06
0.000159286
8.85178e-06
0.00015633
8.86766e-06
0.000153368
8.88257e-06
0.000150402
8.89658e-06
0.000147432
8.9097e-06
0.000144458
8.92198e-06
0.000141479
8.93345e-06
0.000138498
8.94416e-06
0.000135512
8.95413e-06
0.000132524
8.96339e-06
0.000129533
8.97199e-06
0.00012654
8.97995e-06
0.000123544
8.9873e-06
0.000120545
8.99407e-06
0.000117545
9.0003e-06
0.000114543
9.00601e-06
0.000111539
9.01124e-06
0.000108533
9.016e-06
0.000105526
9.02032e-06
0.000102518
9.02424e-06
9.95082e-05
9.02777e-06
9.64977e-05
9.03094e-06
9.34863e-05
9.03377e-06
9.04741e-05
9.03629e-06
8.74611e-05
9.03851e-06
8.44474e-05
9.04046e-06
8.14333e-05
9.04216e-06
7.84186e-05
9.04363e-06
7.54035e-05
9.04489e-06
7.23881e-05
9.04595e-06
6.93724e-05
9.04684e-06
6.63565e-05
9.04756e-06
6.33403e-05
9.04814e-06
6.03241e-05
9.04859e-06
5.73077e-05
9.04893e-06
5.42913e-05
9.04916e-06
5.12748e-05
9.04931e-06
4.82583e-05
9.04938e-06
4.52418e-05
9.04938e-06
4.22253e-05
9.04934e-06
3.92089e-05
9.04925e-06
3.61925e-05
9.04912e-06
3.31762e-05
9.04898e-06
3.01599e-05
9.04881e-06
2.71437e-05
9.04864e-06
2.41275e-05
9.04846e-06
2.11114e-05
9.04829e-06
1.80954e-05
9.04813e-06
1.50794e-05
9.04799e-06
1.20635e-05
9.04786e-06
9.04758e-06
9.04775e-06
6.03171e-06
9.04767e-06
3.01585e-06
9.04762e-06
9.04759e-06
3.70518e-06
-1.48204e-05
7.41033e-06
-1.48203e-05
1.11155e-05
-1.48201e-05
1.48205e-05
-1.48198e-05
1.85255e-05
-1.48194e-05
2.22303e-05
-1.48189e-05
2.5935e-05
-1.48183e-05
2.96395e-05
-1.48174e-05
3.33438e-05
-1.48165e-05
3.70479e-05
-1.48153e-05
4.07516e-05
-1.48138e-05
4.44549e-05
-1.48122e-05
4.81577e-05
-1.48102e-05
5.186e-05
-1.48079e-05
5.55617e-05
-1.48052e-05
5.92626e-05
-1.48021e-05
6.29627e-05
-1.47985e-05
6.66618e-05
-1.47944e-05
7.03598e-05
-1.47898e-05
7.40565e-05
-1.47845e-05
7.77518e-05
-1.47786e-05
8.14455e-05
-1.47719e-05
8.51374e-05
-1.47644e-05
8.88273e-05
-1.47561e-05
9.25148e-05
-1.47468e-05
9.61999e-05
-1.47365e-05
9.98822e-05
-1.47251e-05
0.000103561
-1.47126e-05
0.000107237
-1.46988e-05
0.000110909
-1.46837e-05
0.000114578
-1.46672e-05
0.000118241
-1.46491e-05
0.0001219
-1.46295e-05
0.000125554
-1.46083e-05
0.000129202
-1.45852e-05
0.000132843
-1.45603e-05
0.000136479
-1.45334e-05
0.000140107
-1.45045e-05
0.000143727
-1.44734e-05
0.000147339
-1.44401e-05
0.000150942
-1.44044e-05
0.000154536
-1.43662e-05
0.00015812
-1.43255e-05
0.000161693
-1.42821e-05
0.000165254
-1.42359e-05
0.000168804
-1.41868e-05
0.00017234
-1.41347e-05
0.000175863
-1.40796e-05
0.000179371
-1.40212e-05
0.000182864
-1.39596e-05
0.00018634
-1.38945e-05
0.0001898
-1.3826e-05
0.000193242
-1.37538e-05
0.000196665
-1.36779e-05
0.000200068
-1.35982e-05
0.00020345
-1.35147e-05
0.00020681
-1.34271e-05
0.000210148
-1.33354e-05
0.000213461
-1.32396e-05
0.00021675
-1.31395e-05
0.000220012
-1.30351e-05
0.000223248
-1.29263e-05
0.000226455
-1.28131e-05
0.000229633
-1.26952e-05
0.00023278
-1.25728e-05
0.000235896
-1.24457e-05
0.000238979
-1.23139e-05
0.000242027
-1.21774e-05
0.00024504
-1.2036e-05
0.000248017
-1.18898e-05
0.000250956
-1.17388e-05
0.000253856
-1.15829e-05
0.000256716
-1.1422e-05
0.000259534
-1.12563e-05
0.00026231
-1.10857e-05
0.000265042
-1.09101e-05
0.000267728
-1.07297e-05
0.000270369
-1.05445e-05
0.000272961
-1.03544e-05
0.000275505
-1.01595e-05
0.000277999
-9.95987e-06
0.000280442
-9.75556e-06
0.000282833
-9.54662e-06
0.00028517
-9.33313e-06
0.000287453
-9.11516e-06
0.00028968
-8.8928e-06
0.00029185
-8.66615e-06
0.000293962
-8.43529e-06
0.000296016
-8.20035e-06
0.00029801
-7.96144e-06
0.000299943
-7.71869e-06
0.000301814
-7.47222e-06
0.000303622
-7.22217e-06
0.000305367
-6.96869e-06
0.000307048
-6.71193e-06
0.000308664
-6.45205e-06
0.000310213
-6.1892e-06
0.000311697
-5.92356e-06
0.000313112
-5.6553e-06
0.000314461
-5.38459e-06
0.00031574
-5.11163e-06
0.000316951
-4.83658e-06
0.000318092
-4.55965e-06
0.000319164
-4.28102e-06
0.000320165
-4.0009e-06
0.000321096
-3.71946e-06
0.000321956
-3.43693e-06
0.000322745
-3.15348e-06
0.000323463
-2.86933e-06
0.000324109
-2.58468e-06
0.000324685
-2.29972e-06
0.000325188
-2.01466e-06
0.00032562
-1.72969e-06
0.000325981
-1.44501e-06
0.000326271
-1.16082e-06
0.000326489
-8.77317e-07
0.000326637
-5.94683e-07
0.000326714
-3.1311e-07
0.000326721
-3.27825e-08
0.000326658
2.46119e-07
0.000326526
5.23418e-07
0.000326324
7.98942e-07
0.000326054
1.07252e-06
0.000325716
1.344e-06
0.000325311
1.61321e-06
0.000324839
1.88e-06
0.0003243
2.14424e-06
0.000323696
2.40577e-06
0.000323028
2.66446e-06
0.000322295
2.92019e-06
0.000321499
3.17283e-06
0.000320641
3.42226e-06
0.000319721
3.66838e-06
0.00031874
3.91109e-06
0.000317699
4.15028e-06
0.000316599
4.38587e-06
0.000315442
4.61777e-06
0.000314227
4.84591e-06
0.000312956
5.07021e-06
0.00031163
5.29062e-06
0.000310249
5.50708e-06
0.000308816
5.71952e-06
0.00030733
5.92792e-06
0.000305794
6.13224e-06
0.000304207
6.33243e-06
0.000302571
6.52847e-06
0.000300888
6.72034e-06
0.000299157
6.90803e-06
0.00029738
7.09152e-06
0.000295559
7.27082e-06
0.000293694
7.44591e-06
0.000291786
7.61681e-06
0.000289836
7.78353e-06
0.000287846
7.94608e-06
0.000285817
8.10447e-06
0.000283748
8.25874e-06
0.000281642
8.40891e-06
0.0002795
8.555e-06
0.000277322
8.69706e-06
0.00027511
8.83511e-06
0.000272864
8.96921e-06
0.000270586
9.09939e-06
0.000268276
9.2257e-06
0.000265936
9.34818e-06
0.000263566
9.4669e-06
0.000261167
9.5819e-06
0.000258741
9.69323e-06
0.000256288
9.80097e-06
0.000253808
9.90515e-06
0.000251304
1.00059e-05
0.000248775
1.01031e-05
0.000246223
1.0197e-05
0.000243648
1.02877e-05
0.000241052
1.03751e-05
0.000238434
1.04593e-05
0.000235796
1.05404e-05
0.000233139
1.06185e-05
0.000230463
1.06936e-05
0.000227769
1.07659e-05
0.000225058
1.08353e-05
0.00022233
1.09019e-05
0.000219586
1.09659e-05
0.000216827
1.10272e-05
0.000214054
1.1086e-05
0.000211266
1.11423e-05
0.000208465
1.11961e-05
0.000205651
1.12476e-05
0.000202825
1.12968e-05
0.000199987
1.13439e-05
0.000197138
1.13887e-05
0.000194278
1.14315e-05
0.000191409
1.14722e-05
0.000188529
1.15109e-05
0.000185641
1.15478e-05
0.000182743
1.15828e-05
0.000179838
1.16161e-05
0.000176925
1.16476e-05
0.000174004
1.16775e-05
0.000171076
1.17057e-05
0.000168142
1.17325e-05
0.000165201
1.17577e-05
0.000162254
1.17815e-05
0.000159302
1.18039e-05
0.000156345
1.1825e-05
0.000153383
1.18449e-05
0.000150416
1.18635e-05
0.000147444
1.18809e-05
0.000144469
1.18972e-05
0.00014149
1.19125e-05
0.000138508
1.19267e-05
0.000135522
1.19399e-05
0.000132533
1.19522e-05
0.000129541
1.19636e-05
0.000126547
1.19742e-05
0.00012355
1.1984e-05
0.000120552
1.19929e-05
0.000117551
1.20012e-05
0.000114548
1.20088e-05
0.000111543
1.20157e-05
0.000108537
1.2022e-05
0.00010553
1.20277e-05
0.000102521
1.20329e-05
9.95115e-05
1.20376e-05
9.65006e-05
1.20418e-05
9.34889e-05
1.20455e-05
9.04763e-05
1.20488e-05
8.74631e-05
1.20518e-05
8.44492e-05
1.20543e-05
8.14348e-05
1.20566e-05
7.84199e-05
1.20585e-05
7.54046e-05
1.20602e-05
7.2389e-05
1.20615e-05
6.93732e-05
1.20627e-05
6.63571e-05
1.20636e-05
6.33408e-05
1.20644e-05
6.03244e-05
1.2065e-05
5.7308e-05
1.20654e-05
5.42914e-05
1.20657e-05
5.12749e-05
1.20659e-05
4.82583e-05
1.20659e-05
4.52418e-05
1.20659e-05
4.22253e-05
1.20659e-05
3.92088e-05
1.20657e-05
3.61924e-05
1.20655e-05
3.3176e-05
1.20653e-05
3.01597e-05
1.20651e-05
2.71435e-05
1.20649e-05
2.41274e-05
1.20646e-05
2.11113e-05
1.20644e-05
1.80953e-05
1.20642e-05
1.50793e-05
1.2064e-05
1.20634e-05
1.20638e-05
9.0475e-06
1.20636e-05
6.03165e-06
1.20635e-05
3.01582e-06
1.20634e-05
1.20634e-05
3.70527e-06
-1.85256e-05
7.41052e-06
-1.85255e-05
1.11157e-05
-1.85253e-05
1.48209e-05
-1.8525e-05
1.8526e-05
-1.85245e-05
2.2231e-05
-1.85239e-05
2.59358e-05
-1.85231e-05
2.96406e-05
-1.85221e-05
3.33451e-05
-1.8521e-05
3.70493e-05
-1.85195e-05
4.07533e-05
-1.85178e-05
4.44569e-05
-1.85158e-05
4.816e-05
-1.85134e-05
5.18627e-05
-1.85105e-05
5.55648e-05
-1.85073e-05
5.92662e-05
-1.85035e-05
6.29668e-05
-1.84991e-05
6.66665e-05
-1.84941e-05
7.03651e-05
-1.84884e-05
7.40625e-05
-1.8482e-05
7.77586e-05
-1.84746e-05
8.1453e-05
-1.84664e-05
8.51458e-05
-1.84572e-05
8.88366e-05
-1.84469e-05
9.25252e-05
-1.84354e-05
9.62114e-05
-1.84227e-05
9.98948e-05
-1.84086e-05
0.000103575
-1.83931e-05
0.000107252
-1.8376e-05
0.000110926
-1.83572e-05
0.000114596
-1.83367e-05
0.000118261
-1.83144e-05
0.000121921
-1.82901e-05
0.000125577
-1.82636e-05
0.000129227
-1.8235e-05
0.00013287
-1.82041e-05
0.000136508
-1.81707e-05
0.000140138
-1.81347e-05
0.00014376
-1.8096e-05
0.000147375
-1.80545e-05
0.000150981
-1.80101e-05
0.000154577
-1.79626e-05
0.000158163
-1.79118e-05
0.000161739
-1.78578e-05
0.000165303
-1.78002e-05
0.000168856
-1.77391e-05
0.000172395
-1.76742e-05
0.000175921
-1.76055e-05
0.000179433
-1.75327e-05
0.000182929
-1.74559e-05
0.000186409
-1.73747e-05
0.000189872
-1.72892e-05
0.000193318
-1.71992e-05
0.000196744
-1.71045e-05
0.000200151
-1.70051e-05
0.000203537
-1.69008e-05
0.000206902
-1.67915e-05
0.000210243
-1.66771e-05
0.000213561
-1.65575e-05
0.000216854
-1.64325e-05
0.000220121
-1.63022e-05
0.000223361
-1.61663e-05
0.000226573
-1.60249e-05
0.000229756
-1.58777e-05
0.000232908
-1.57248e-05
0.000236028
-1.5566e-05
0.000239115
-1.54013e-05
0.000242169
-1.52307e-05
0.000245187
-1.50541e-05
0.000248168
-1.48714e-05
0.000251112
-1.46826e-05
0.000254017
-1.44877e-05
0.000256882
-1.42867e-05
0.000259705
-1.40796e-05
0.000262485
-1.38663e-05
0.000265222
-1.36468e-05
0.000267914
-1.34213e-05
0.000270559
-1.31896e-05
0.000273156
-1.29519e-05
0.000275705
-1.27083e-05
0.000278204
-1.24586e-05
0.000280651
-1.22031e-05
0.000283047
-1.19418e-05
0.000285388
-1.16748e-05
0.000287675
-1.14022e-05
0.000289907
-1.11241e-05
0.000292081
-1.08405e-05
0.000294197
-1.05518e-05
0.000296255
-1.02579e-05
0.000298253
-9.95901e-06
0.000300189
-9.65532e-06
0.000302064
-9.34697e-06
0.000303876
-9.03414e-06
0.000305624
-8.71701e-06
0.000307308
-8.39577e-06
0.000308927
-8.07061e-06
0.000310479
-7.74174e-06
0.000311965
-7.40936e-06
0.000313383
-7.0737e-06
0.000314734
-6.73498e-06
0.000316016
-6.39342e-06
0.000317228
-6.04926e-06
0.000318371
-5.70274e-06
0.000319444
-5.35409e-06
0.000320447
-5.00357e-06
0.000321379
-4.6514e-06
0.00032224
-4.29786e-06
0.00032303
-3.94318e-06
0.000323748
-3.58762e-06
0.000324395
-3.23142e-06
0.00032497
-2.87485e-06
0.000325473
-2.51815e-06
0.000325905
-2.16157e-06
0.000326265
-1.80535e-06
0.000326554
-1.44976e-06
0.000326772
-1.09501e-06
0.000326919
-7.4137e-07
0.000326995
-3.89058e-07
0.000327
-3.83097e-08
0.000326936
3.10649e-07
0.000326802
6.57595e-07
0.000326598
1.00231e-06
0.000326326
1.34459e-06
0.000325986
1.68423e-06
0.000325578
2.02103e-06
0.000325103
2.3548e-06
0.000324562
2.68536e-06
0.000323955
3.01252e-06
0.000323284
3.33613e-06
0.000322548
3.65602e-06
0.000321749
3.97204e-06
0.000320887
4.28403e-06
0.000319963
4.59188e-06
0.000318979
4.89544e-06
0.000317935
5.1946e-06
0.000316831
5.48924e-06
0.00031567
5.77926e-06
0.000314451
6.06456e-06
0.000313176
6.34506e-06
0.000311846
6.62068e-06
0.000310462
6.89135e-06
0.000309025
7.15699e-06
0.000307535
7.41757e-06
0.000305994
7.67302e-06
0.000304403
7.9233e-06
0.000302763
8.1684e-06
0.000301075
8.40827e-06
0.000299341
8.6429e-06
0.00029756
8.87227e-06
0.000295734
9.09639e-06
0.000293865
9.31525e-06
0.000291953
9.52886e-06
0.000289999
9.73723e-06
0.000288005
9.94038e-06
0.000285971
1.01383e-05
0.000283899
1.03311e-05
0.000281789
1.05188e-05
0.000279642
1.07013e-05
0.000277461
1.08788e-05
0.000275244
1.10513e-05
0.000272995
1.12189e-05
0.000270713
1.13815e-05
0.000268399
1.15393e-05
0.000266055
1.16923e-05
0.000263681
1.18406e-05
0.000261279
1.19842e-05
0.000258849
1.21233e-05
0.000256392
1.22579e-05
0.000253909
1.2388e-05
0.000251401
1.25137e-05
0.000248869
1.26352e-05
0.000246314
1.27525e-05
0.000243736
1.28656e-05
0.000241136
1.29748e-05
0.000238515
1.30799e-05
0.000235875
1.31812e-05
0.000233214