/*--------------------------------*- C++ -*----------------------------------*\
| =========                 |                                                 |
| \\      /  F ield         | OpenFOAM: The Open Source CFD Toolbox           |
|  \\    /   O peration     | Version:  v2012                                 |
|   \\  /    A nd           | Website:  www.openfoam.com                      |
|    \\/     M anipulation  |                                                 |
\*---------------------------------------------------------------------------*/
FoamFile
{
    version     2.0;
    format      ascii;
    class       volVectorField;
    location    "8";
    object      Psi;
}
// * * * * * * * * * * * * * * * * * * * * * * * * * * * * * * * * * * * * * //

dimensions      [0 2 -1 0 0 0 0];


internalField   nonuniform List<vector> 
65536
(
(0 0 9.26296e-06)
(0 0 2.77888e-05)
(0 0 4.63145e-05)
(0 0 6.484e-05)
(0 0 8.33651e-05)
(0 0 0.00010189)
(0 0 0.000120414)
(0 0 0.000138937)
(0 0 0.000157459)
(0 0 0.00017598)
(0 0 0.000194499)
(0 0 0.000213017)
(0 0 0.000231532)
(0 0 0.000250046)
(0 0 0.000268556)
(0 0 0.000287062)
(0 0 0.000305565)
(0 0 0.000324064)
(0 0 0.000342557)
(0 0 0.000361044)
(0 0 0.000379525)
(0 0 0.000397998)
(0 0 0.000416462)
(0 0 0.000434917)
(0 0 0.000453362)
(0 0 0.000471794)
(0 0 0.000490213)
(0 0 0.000508618)
(0 0 0.000527007)
(0 0 0.000545378)
(0 0 0.00056373)
(0 0 0.00058206)
(0 0 0.000600368)
(0 0 0.00061865)
(0 0 0.000636906)
(0 0 0.000655131)
(0 0 0.000673325)
(0 0 0.000691485)
(0 0 0.000709608)
(0 0 0.000727691)
(0 0 0.000745731)
(0 0 0.000763726)
(0 0 0.000781672)
(0 0 0.000799566)
(0 0 0.000817404)
(0 0 0.000835184)
(0 0 0.000852901)
(0 0 0.000870552)
(0 0 0.000888132)
(0 0 0.000905638)
(0 0 0.000923065)
(0 0 0.000940409)
(0 0 0.000957666)
(0 0 0.000974832)
(0 0 0.0009919)
(0 0 0.00100887)
(0 0 0.00102573)
(0 0 0.00104248)
(0 0 0.00105911)
(0 0 0.00107562)
(0 0 0.001092)
(0 0 0.00110826)
(0 0 0.00112437)
(0 0 0.00114034)
(0 0 0.00115616)
(0 0 0.00117182)
(0 0 0.00118732)
(0 0 0.00120266)
(0 0 0.00121782)
(0 0 0.0012328)
(0 0 0.0012476)
(0 0 0.00126221)
(0 0 0.00127661)
(0 0 0.00129082)
(0 0 0.00130481)
(0 0 0.00131859)
(0 0 0.00133215)
(0 0 0.00134548)
(0 0 0.00135857)
(0 0 0.00137143)
(0 0 0.00138403)
(0 0 0.00139639)
(0 0 0.00140848)
(0 0 0.00142032)
(0 0 0.00143188)
(0 0 0.00144317)
(0 0 0.00145418)
(0 0 0.0014649)
(0 0 0.00147533)
(0 0 0.00148546)
(0 0 0.0014953)
(0 0 0.00150482)
(0 0 0.00151404)
(0 0 0.00152294)
(0 0 0.00153152)
(0 0 0.00153978)
(0 0 0.00154771)
(0 0 0.00155531)
(0 0 0.00156258)
(0 0 0.00156951)
(0 0 0.0015761)
(0 0 0.00158234)
(0 0 0.00158824)
(0 0 0.0015938)
(0 0 0.001599)
(0 0 0.00160385)
(0 0 0.00160835)
(0 0 0.00161249)
(0 0 0.00161628)
(0 0 0.00161971)
(0 0 0.00162278)
(0 0 0.0016255)
(0 0 0.00162786)
(0 0 0.00162986)
(0 0 0.00163151)
(0 0 0.0016328)
(0 0 0.00163373)
(0 0 0.00163431)
(0 0 0.00163454)
(0 0 0.00163442)
(0 0 0.00163395)
(0 0 0.00163313)
(0 0 0.00163197)
(0 0 0.00163047)
(0 0 0.00162863)
(0 0 0.00162645)
(0 0 0.00162393)
(0 0 0.00162109)
(0 0 0.00161793)
(0 0 0.00161443)
(0 0 0.00161062)
(0 0 0.0016065)
(0 0 0.00160206)
(0 0 0.00159732)
(0 0 0.00159228)
(0 0 0.00158694)
(0 0 0.0015813)
(0 0 0.00157537)
(0 0 0.00156917)
(0 0 0.00156268)
(0 0 0.00155592)
(0 0 0.00154889)
(0 0 0.00154159)
(0 0 0.00153404)
(0 0 0.00152623)
(0 0 0.00151818)
(0 0 0.00150988)
(0 0 0.00150134)
(0 0 0.00149257)
(0 0 0.00148357)
(0 0 0.00147435)
(0 0 0.00146491)
(0 0 0.00145526)
(0 0 0.00144541)
(0 0 0.00143535)
(0 0 0.0014251)
(0 0 0.00141466)
(0 0 0.00140403)
(0 0 0.00139322)
(0 0 0.00138223)
(0 0 0.00137108)
(0 0 0.00135976)
(0 0 0.00134827)
(0 0 0.00133664)
(0 0 0.00132485)
(0 0 0.00131291)
(0 0 0.00130083)
(0 0 0.00128862)
(0 0 0.00127627)
(0 0 0.0012638)
(0 0 0.0012512)
(0 0 0.00123848)
(0 0 0.00122565)
(0 0 0.0012127)
(0 0 0.00119965)
(0 0 0.0011865)
(0 0 0.00117324)
(0 0 0.00115989)
(0 0 0.00114645)
(0 0 0.00113292)
(0 0 0.0011193)
(0 0 0.00110561)
(0 0 0.00109183)
(0 0 0.00107798)
(0 0 0.00106406)
(0 0 0.00105007)
(0 0 0.00103602)
(0 0 0.0010219)
(0 0 0.00100772)
(0 0 0.000993485)
(0 0 0.000979195)
(0 0 0.000964854)
(0 0 0.000950464)
(0 0 0.000936027)
(0 0 0.000921545)
(0 0 0.000907021)
(0 0 0.000892458)
(0 0 0.000877856)
(0 0 0.000863218)
(0 0 0.000848546)
(0 0 0.000833843)
(0 0 0.000819109)
(0 0 0.000804347)
(0 0 0.000789558)
(0 0 0.000774744)
(0 0 0.000759907)
(0 0 0.000745047)
(0 0 0.000730167)
(0 0 0.000715268)
(0 0 0.00070035)
(0 0 0.000685416)
(0 0 0.000670467)
(0 0 0.000655503)
(0 0 0.000640526)
(0 0 0.000625537)
(0 0 0.000610536)
(0 0 0.000595525)
(0 0 0.000580505)
(0 0 0.000565476)
(0 0 0.00055044)
(0 0 0.000535396)
(0 0 0.000520346)
(0 0 0.00050529)
(0 0 0.000490229)
(0 0 0.000475163)
(0 0 0.000460093)
(0 0 0.00044502)
(0 0 0.000429944)
(0 0 0.000414865)
(0 0 0.000399784)
(0 0 0.000384701)
(0 0 0.000369617)
(0 0 0.000354531)
(0 0 0.000339444)
(0 0 0.000324356)
(0 0 0.000309268)
(0 0 0.00029418)
(0 0 0.000279091)
(0 0 0.000264002)
(0 0 0.000248914)
(0 0 0.000233825)
(0 0 0.000218737)
(0 0 0.000203649)
(0 0 0.000188562)
(0 0 0.000173475)
(0 0 0.000158388)
(0 0 0.000143302)
(0 0 0.000128216)
(0 0 0.000113131)
(0 0 9.80458e-05)
(0 0 8.29612e-05)
(0 0 6.78769e-05)
(0 0 5.27929e-05)
(0 0 3.7709e-05)
(0 0 2.26254e-05)
(0 0 7.54178e-06)
(0 0 2.77889e-05)
(0 0 8.33665e-05)
(0 0 0.000138944)
(0 0 0.00019452)
(0 0 0.000250096)
(0 0 0.000305669)
(0 0 0.000361241)
(0 0 0.000416811)
(0 0 0.000472378)
(0 0 0.000527941)
(0 0 0.000583499)
(0 0 0.000639053)
(0 0 0.0006946)
(0 0 0.000750139)
(0 0 0.00080567)
(0 0 0.000861191)
(0 0 0.0009167)
(0 0 0.000972196)
(0 0 0.00102768)
(0 0 0.00108314)
(0 0 0.00113858)
(0 0 0.001194)
(0 0 0.0012494)
(0 0 0.00130476)
(0 0 0.0013601)
(0 0 0.00141539)
(0 0 0.00147065)
(0 0 0.00152587)
(0 0 0.00158104)
(0 0 0.00163615)
(0 0 0.00169121)
(0 0 0.0017462)
(0 0 0.00180113)
(0 0 0.00185598)
(0 0 0.00191075)
(0 0 0.00196543)
(0 0 0.00202001)
(0 0 0.00207449)
(0 0 0.00212886)
(0 0 0.00218311)
(0 0 0.00223724)
(0 0 0.00229122)
(0 0 0.00234507)
(0 0 0.00239875)
(0 0 0.00245227)
(0 0 0.00250561)
(0 0 0.00255877)
(0 0 0.00261172)
(0 0 0.00266447)
(0 0 0.00271699)
(0 0 0.00276928)
(0 0 0.00282131)
(0 0 0.00287309)
(0 0 0.00292459)
(0 0 0.0029758)
(0 0 0.00302671)
(0 0 0.00307729)
(0 0 0.00312755)
(0 0 0.00317745)
(0 0 0.00322699)
(0 0 0.00327614)
(0 0 0.0033249)
(0 0 0.00337325)
(0 0 0.00342116)
(0 0 0.00346862)
(0 0 0.00351562)
(0 0 0.00356213)
(0 0 0.00360814)
(0 0 0.00365364)
(0 0 0.00369859)
(0 0 0.00374299)
(0 0 0.00378681)
(0 0 0.00383004)
(0 0 0.00387266)
(0 0 0.00391465)
(0 0 0.003956)
(0 0 0.00399667)
(0 0 0.00403666)
(0 0 0.00407595)
(0 0 0.00411452)
(0 0 0.00415235)
(0 0 0.00418942)
(0 0 0.00422571)
(0 0 0.00426122)
(0 0 0.00429591)
(0 0 0.00432978)
(0 0 0.00436281)
(0 0 0.00439498)
(0 0 0.00442628)
(0 0 0.00445668)
(0 0 0.00448619)
(0 0 0.00451477)
(0 0 0.00454243)
(0 0 0.00456913)
(0 0 0.00459488)
(0 0 0.00461966)
(0 0 0.00464346)
(0 0 0.00466627)
(0 0 0.00468807)
(0 0 0.00470886)
(0 0 0.00472863)
(0 0 0.00474737)
(0 0 0.00476508)
(0 0 0.00478173)
(0 0 0.00479734)
(0 0 0.0048119)
(0 0 0.00482539)
(0 0 0.00483782)
(0 0 0.00484918)
(0 0 0.00485948)
(0 0 0.0048687)
(0 0 0.00487685)
(0 0 0.00488393)
(0 0 0.00488993)
(0 0 0.00489487)
(0 0 0.00489874)
(0 0 0.00490154)
(0 0 0.00490329)
(0 0 0.00490397)
(0 0 0.0049036)
(0 0 0.00490219)
(0 0 0.00489974)
(0 0 0.00489625)
(0 0 0.00489174)
(0 0 0.00488621)
(0 0 0.00487967)
(0 0 0.00487213)
(0 0 0.0048636)
(0 0 0.00485409)
(0 0 0.00484362)
(0 0 0.00483218)
(0 0 0.00481981)
(0 0 0.0048065)
(0 0 0.00479226)
(0 0 0.00477713)
(0 0 0.00476109)
(0 0 0.00474418)
(0 0 0.0047264)
(0 0 0.00470777)
(0 0 0.00468831)
(0 0 0.00466802)
(0 0 0.00464692)
(0 0 0.00462503)
(0 0 0.00460237)
(0 0 0.00457894)
(0 0 0.00455476)
(0 0 0.00452986)
(0 0 0.00450424)
(0 0 0.00447793)
(0 0 0.00445093)
(0 0 0.00442326)
(0 0 0.00439495)
(0 0 0.004366)
(0 0 0.00433642)
(0 0 0.00430625)
(0 0 0.00427549)
(0 0 0.00424415)
(0 0 0.00421226)
(0 0 0.00417982)
(0 0 0.00414686)
(0 0 0.00411339)
(0 0 0.00407942)
(0 0 0.00404497)
(0 0 0.00401005)
(0 0 0.00397468)
(0 0 0.00393887)
(0 0 0.00390264)
(0 0 0.00386599)
(0 0 0.00382895)
(0 0 0.00379152)
(0 0 0.00375372)
(0 0 0.00371556)
(0 0 0.00367705)
(0 0 0.00363822)
(0 0 0.00359906)
(0 0 0.00355959)
(0 0 0.00351982)
(0 0 0.00347976)
(0 0 0.00343943)
(0 0 0.00339884)
(0 0 0.00335799)
(0 0 0.0033169)
(0 0 0.00327557)
(0 0 0.00323402)
(0 0 0.00319225)
(0 0 0.00315028)
(0 0 0.00310811)
(0 0 0.00306575)
(0 0 0.00302321)
(0 0 0.00298051)
(0 0 0.00293764)
(0 0 0.00289461)
(0 0 0.00285144)
(0 0 0.00280812)
(0 0 0.00276468)
(0 0 0.0027211)
(0 0 0.00267741)
(0 0 0.0026336)
(0 0 0.00258969)
(0 0 0.00254567)
(0 0 0.00250156)
(0 0 0.00245735)
(0 0 0.00241307)
(0 0 0.0023687)
(0 0 0.00232425)
(0 0 0.00227974)
(0 0 0.00223516)
(0 0 0.00219052)
(0 0 0.00214582)
(0 0 0.00210107)
(0 0 0.00205626)
(0 0 0.00201141)
(0 0 0.00196652)
(0 0 0.00192159)
(0 0 0.00187662)
(0 0 0.00183162)
(0 0 0.00178658)
(0 0 0.00174152)
(0 0 0.00169644)
(0 0 0.00165132)
(0 0 0.00160619)
(0 0 0.00156104)
(0 0 0.00151587)
(0 0 0.00147069)
(0 0 0.00142549)
(0 0 0.00138028)
(0 0 0.00133506)
(0 0 0.00128983)
(0 0 0.0012446)
(0 0 0.00119935)
(0 0 0.0011541)
(0 0 0.00110885)
(0 0 0.00106359)
(0 0 0.00101833)
(0 0 0.000973069)
(0 0 0.000927805)
(0 0 0.000882539)
(0 0 0.000837273)
(0 0 0.000792007)
(0 0 0.000746741)
(0 0 0.000701475)
(0 0 0.000656211)
(0 0 0.000610947)
(0 0 0.000565685)
(0 0 0.000520424)
(0 0 0.000475164)
(0 0 0.000429905)
(0 0 0.000384648)
(0 0 0.000339392)
(0 0 0.000294137)
(0 0 0.000248883)
(0 0 0.00020363)
(0 0 0.000158378)
(0 0 0.000113127)
(0 0 6.7876e-05)
(0 0 2.26253e-05)
(0 0 4.6315e-05)
(0 0 0.000138945)
(0 0 0.000231574)
(0 0 0.000324202)
(0 0 0.000416828)
(0 0 0.000509451)
(0 0 0.000602072)
(0 0 0.000694688)
(0 0 0.0007873)
(0 0 0.000879906)
(0 0 0.000972505)
(0 0 0.00106509)
(0 0 0.00115767)
(0 0 0.00125024)
(0 0 0.00134279)
(0 0 0.00143533)
(0 0 0.00152785)
(0 0 0.00162034)
(0 0 0.00171281)
(0 0 0.00180525)
(0 0 0.00189766)
(0 0 0.00199003)
(0 0 0.00208236)
(0 0 0.00217464)
(0 0 0.00226687)
(0 0 0.00235903)
(0 0 0.00245114)
(0 0 0.00254317)
(0 0 0.00263512)
(0 0 0.00272698)
(0 0 0.00281875)
(0 0 0.00291041)
(0 0 0.00300196)
(0 0 0.00309339)
(0 0 0.00318467)
(0 0 0.00327581)
(0 0 0.0033668)
(0 0 0.00345761)
(0 0 0.00354824)
(0 0 0.00363866)
(0 0 0.00372888)
(0 0 0.00381887)
(0 0 0.00390862)
(0 0 0.0039981)
(0 0 0.00408731)
(0 0 0.00417623)
(0 0 0.00426483)
(0 0 0.00435311)
(0 0 0.00444103)
(0 0 0.00452858)
(0 0 0.00461574)
(0 0 0.00470248)
(0 0 0.00478879)
(0 0 0.00487464)
(0 0 0.00496)
(0 0 0.00504486)
(0 0 0.00512919)
(0 0 0.00521296)
(0 0 0.00529615)
(0 0 0.00537873)
(0 0 0.00546068)
(0 0 0.00554196)
(0 0 0.00562255)
(0 0 0.00570243)
(0 0 0.00578155)
(0 0 0.0058599)
(0 0 0.00593744)
(0 0 0.00601415)
(0 0 0.00608999)
(0 0 0.00616493)
(0 0 0.00623895)
(0 0 0.00631201)
(0 0 0.00638408)
(0 0 0.00645514)
(0 0 0.00652514)
(0 0 0.00659407)
(0 0 0.00666188)
(0 0 0.00672855)
(0 0 0.00679406)
(0 0 0.00685835)
(0 0 0.00692142)
(0 0 0.00698322)
(0 0 0.00704374)
(0 0 0.00710293)
(0 0 0.00716077)
(0 0 0.00721724)
(0 0 0.00727231)
(0 0 0.00732594)
(0 0 0.00737812)
(0 0 0.00742881)
(0 0 0.007478)
(0 0 0.00752565)
(0 0 0.00757176)
(0 0 0.00761629)
(0 0 0.00765922)
(0 0 0.00770053)
(0 0 0.00774021)
(0 0 0.00777823)
(0 0 0.00781458)
(0 0 0.00784924)
(0 0 0.0078822)
(0 0 0.00791344)
(0 0 0.00794295)
(0 0 0.00797072)
(0 0 0.00799675)
(0 0 0.00802101)
(0 0 0.0080435)
(0 0 0.00806422)
(0 0 0.00808316)
(0 0 0.00810032)
(0 0 0.00811569)
(0 0 0.00812927)
(0 0 0.00814107)
(0 0 0.00815108)
(0 0 0.0081593)
(0 0 0.00816575)
(0 0 0.00817042)
(0 0 0.00817332)
(0 0 0.00817445)
(0 0 0.00817384)
(0 0 0.00817147)
(0 0 0.00816738)
(0 0 0.00816156)
(0 0 0.00815403)
(0 0 0.0081448)
(0 0 0.00813389)
(0 0 0.00812131)
(0 0 0.00810709)
(0 0 0.00809123)
(0 0 0.00807376)
(0 0 0.00805469)
(0 0 0.00803405)
(0 0 0.00801185)
(0 0 0.00798811)
(0 0 0.00796287)
(0 0 0.00793613)
(0 0 0.00790793)
(0 0 0.00787828)
(0 0 0.00784722)
(0 0 0.00781476)
(0 0 0.00778092)
(0 0 0.00774575)
(0 0 0.00770925)
(0 0 0.00767145)
(0 0 0.00763239)
(0 0 0.00759208)
(0 0 0.00755056)
(0 0 0.00750785)
(0 0 0.00746397)
(0 0 0.00741895)
(0 0 0.00737283)
(0 0 0.00732562)
(0 0 0.00727735)
(0 0 0.00722804)
(0 0 0.00717773)
(0 0 0.00712645)
(0 0 0.0070742)
(0 0 0.00702103)
(0 0 0.00696696)
(0 0 0.00691201)
(0 0 0.0068562)
(0 0 0.00679957)
(0 0 0.00674214)
(0 0 0.00668392)
(0 0 0.00662496)
(0 0 0.00656526)
(0 0 0.00650485)
(0 0 0.00644376)
(0 0 0.006382)
(0 0 0.00631961)
(0 0 0.00625659)
(0 0 0.00619298)
(0 0 0.00612879)
(0 0 0.00606405)
(0 0 0.00599877)
(0 0 0.00593298)
(0 0 0.00586668)
(0 0 0.00579991)
(0 0 0.00573268)
(0 0 0.00566501)
(0 0 0.00559692)
(0 0 0.00552842)
(0 0 0.00545953)
(0 0 0.00539026)
(0 0 0.00532064)
(0 0 0.00525068)
(0 0 0.00518038)
(0 0 0.00510978)
(0 0 0.00503888)
(0 0 0.00496769)
(0 0 0.00489623)
(0 0 0.00482451)
(0 0 0.00475255)
(0 0 0.00468035)
(0 0 0.00460793)
(0 0 0.0045353)
(0 0 0.00446247)
(0 0 0.00438945)
(0 0 0.00431626)
(0 0 0.00424289)
(0 0 0.00416936)
(0 0 0.00409568)
(0 0 0.00402186)
(0 0 0.00394791)
(0 0 0.00387383)
(0 0 0.00379964)
(0 0 0.00372534)
(0 0 0.00365093)
(0 0 0.00357642)
(0 0 0.00350183)
(0 0 0.00342716)
(0 0 0.0033524)
(0 0 0.00327758)
(0 0 0.00320269)
(0 0 0.00312774)
(0 0 0.00305273)
(0 0 0.00297767)
(0 0 0.00290257)
(0 0 0.00282742)
(0 0 0.00275223)
(0 0 0.00267701)
(0 0 0.00260175)
(0 0 0.00252647)
(0 0 0.00245116)
(0 0 0.00237583)
(0 0 0.00230048)
(0 0 0.00222512)
(0 0 0.00214973)
(0 0 0.00207434)
(0 0 0.00199893)
(0 0 0.00192351)
(0 0 0.00184809)
(0 0 0.00177266)
(0 0 0.00169722)
(0 0 0.00162178)
(0 0 0.00154634)
(0 0 0.0014709)
(0 0 0.00139546)
(0 0 0.00132001)
(0 0 0.00124457)
(0 0 0.00116912)
(0 0 0.00109368)
(0 0 0.00101824)
(0 0 0.000942806)
(0 0 0.000867371)
(0 0 0.000791938)
(0 0 0.000716507)
(0 0 0.000641078)
(0 0 0.000565652)
(0 0 0.000490227)
(0 0 0.000414804)
(0 0 0.000339383)
(0 0 0.000263963)
(0 0 0.000188544)
(0 0 0.000113126)
(0 0 3.77087e-05)
(0 0 6.48413e-05)
(0 0 0.000194524)
(0 0 0.000324205)
(0 0 0.000453885)
(0 0 0.000583562)
(0 0 0.000713236)
(0 0 0.000842906)
(0 0 0.000972571)
(0 0 0.00110223)
(0 0 0.00123188)
(0 0 0.00136152)
(0 0 0.00149115)
(0 0 0.00162076)
(0 0 0.00175036)
(0 0 0.00187994)
(0 0 0.00200949)
(0 0 0.00213902)
(0 0 0.00226852)
(0 0 0.00239798)
(0 0 0.0025274)
(0 0 0.00265678)
(0 0 0.0027861)
(0 0 0.00291537)
(0 0 0.00304457)
(0 0 0.0031737)
(0 0 0.00330274)
(0 0 0.00343169)
(0 0 0.00356055)
(0 0 0.00368929)
(0 0 0.00381791)
(0 0 0.0039464)
(0 0 0.00407474)
(0 0 0.00420292)
(0 0 0.00433093)
(0 0 0.00445875)
(0 0 0.00458636)
(0 0 0.00471376)
(0 0 0.00484091)
(0 0 0.00496781)
(0 0 0.00509443)
(0 0 0.00522075)
(0 0 0.00534676)
(0 0 0.00547243)
(0 0 0.00559773)
(0 0 0.00572265)
(0 0 0.00584716)
(0 0 0.00597123)
(0 0 0.00609484)
(0 0 0.00621796)
(0 0 0.00634056)
(0 0 0.00646261)
(0 0 0.00658408)
(0 0 0.00670495)
(0 0 0.00682517)
(0 0 0.00694472)
(0 0 0.00706355)
(0 0 0.00718165)
(0 0 0.00729897)
(0 0 0.00741547)
(0 0 0.00753112)
(0 0 0.00764588)
(0 0 0.00775972)
(0 0 0.00787258)
(0 0 0.00798445)
(0 0 0.00809526)
(0 0 0.00820499)
(0 0 0.00831359)
(0 0 0.00842102)
(0 0 0.00852724)
(0 0 0.0086322)
(0 0 0.00873587)
(0 0 0.0088382)
(0 0 0.00893915)
(0 0 0.00903866)
(0 0 0.00913671)
(0 0 0.00923325)
(0 0 0.00932823)
(0 0 0.00942162)
(0 0 0.00951336)
(0 0 0.00960342)
(0 0 0.00969175)
(0 0 0.00977832)
(0 0 0.00986308)
(0 0 0.00994599)
(0 0 0.010027)
(0 0 0.0101061)
(0 0 0.0101832)
(0 0 0.0102584)
(0 0 0.0103314)
(0 0 0.0104024)
(0 0 0.0104713)
(0 0 0.0105381)
(0 0 0.0106027)
(0 0 0.010665)
(0 0 0.0107252)
(0 0 0.010783)
(0 0 0.0108386)
(0 0 0.0108919)
(0 0 0.0109428)
(0 0 0.0109913)
(0 0 0.0110375)
(0 0 0.0110812)
(0 0 0.0111226)
(0 0 0.0111615)
(0 0 0.0111979)
(0 0 0.0112319)
(0 0 0.0112634)
(0 0 0.0112924)
(0 0 0.0113189)
(0 0 0.0113429)
(0 0 0.0113645)
(0 0 0.0113835)
(0 0 0.0114)
(0 0 0.011414)
(0 0 0.0114255)
(0 0 0.0114345)
(0 0 0.0114411)
(0 0 0.0114451)
(0 0 0.0114467)
(0 0 0.0114458)
(0 0 0.0114425)
(0 0 0.0114367)
(0 0 0.0114286)
(0 0 0.011418)
(0 0 0.0114051)
(0 0 0.0113898)
(0 0 0.0113721)
(0 0 0.0113522)
(0 0 0.01133)
(0 0 0.0113055)
(0 0 0.0112788)
(0 0 0.0112498)
(0 0 0.0112187)
(0 0 0.0111855)
(0 0 0.0111501)
(0 0 0.0111126)
(0 0 0.0110731)
(0 0 0.0110316)
(0 0 0.0109881)
(0 0 0.0109426)
(0 0 0.0108952)
(0 0 0.0108459)
(0 0 0.0107948)
(0 0 0.0107418)
(0 0 0.0106871)
(0 0 0.0106306)
(0 0 0.0105725)
(0 0 0.0105126)
(0 0 0.0104512)
(0 0 0.0103881)
(0 0 0.0103235)
(0 0 0.0102573)
(0 0 0.0101897)
(0 0 0.0101207)
(0 0 0.0100502)
(0 0 0.00997836)
(0 0 0.00990518)
(0 0 0.00983071)
(0 0 0.00975497)
(0 0 0.009678)
(0 0 0.00959984)
(0 0 0.00952053)
(0 0 0.00944008)
(0 0 0.00935855)
(0 0 0.00927596)
(0 0 0.00919235)
(0 0 0.00910775)
(0 0 0.00902219)
(0 0 0.0089357)
(0 0 0.00884832)
(0 0 0.00876007)
(0 0 0.00867098)
(0 0 0.00858109)
(0 0 0.00849042)
(0 0 0.008399)
(0 0 0.00830686)
(0 0 0.00821403)
(0 0 0.00812052)
(0 0 0.00802638)
(0 0 0.00793161)
(0 0 0.00783626)
(0 0 0.00774033)
(0 0 0.00764386)
(0 0 0.00754687)
(0 0 0.00744938)
(0 0 0.00735141)
(0 0 0.00725298)
(0 0 0.00715411)
(0 0 0.00705483)
(0 0 0.00695515)
(0 0 0.00685509)
(0 0 0.00675466)
(0 0 0.0066539)
(0 0 0.00655281)
(0 0 0.0064514)
(0 0 0.0063497)
(0 0 0.00624773)
(0 0 0.00614549)
(0 0 0.00604299)
(0 0 0.00594027)
(0 0 0.00583732)
(0 0 0.00573416)
(0 0 0.0056308)
(0 0 0.00552725)
(0 0 0.00542353)
(0 0 0.00531965)
(0 0 0.00521561)
(0 0 0.00511143)
(0 0 0.00500712)
(0 0 0.00490268)
(0 0 0.00479813)
(0 0 0.00469346)
(0 0 0.0045887)
(0 0 0.00448385)
(0 0 0.00437891)
(0 0 0.00427389)
(0 0 0.00416881)
(0 0 0.00406365)
(0 0 0.00395844)
(0 0 0.00385317)
(0 0 0.00374786)
(0 0 0.0036425)
(0 0 0.0035371)
(0 0 0.00343166)
(0 0 0.0033262)
(0 0 0.0032207)
(0 0 0.00311518)
(0 0 0.00300964)
(0 0 0.00290409)
(0 0 0.00279851)
(0 0 0.00269293)
(0 0 0.00258733)
(0 0 0.00248173)
(0 0 0.00237612)
(0 0 0.0022705)
(0 0 0.00216488)
(0 0 0.00205926)
(0 0 0.00195364)
(0 0 0.00184801)
(0 0 0.00174239)
(0 0 0.00163677)
(0 0 0.00153115)
(0 0 0.00142554)
(0 0 0.00131993)
(0 0 0.00121432)
(0 0 0.00110871)
(0 0 0.00100311)
(0 0 0.000897507)
(0 0 0.00079191)
(0 0 0.000686315)
(0 0 0.000580724)
(0 0 0.000475134)
(0 0 0.000369547)
(0 0 0.000263961)
(0 0 0.000158376)
(0 0 5.2792e-05)
(0 0 8.3368e-05)
(0 0 0.000250103)
(0 0 0.000416838)
(0 0 0.00058357)
(0 0 0.0007503)
(0 0 0.000917025)
(0 0 0.00108375)
(0 0 0.00125046)
(0 0 0.00141717)
(0 0 0.00158386)
(0 0 0.00175054)
(0 0 0.00191721)
(0 0 0.00208386)
(0 0 0.0022505)
(0 0 0.0024171)
(0 0 0.00258368)
(0 0 0.00275022)
(0 0 0.00291673)
(0 0 0.00308319)
(0 0 0.0032496)
(0 0 0.00341595)
(0 0 0.00358223)
(0 0 0.00374844)
(0 0 0.00391457)
(0 0 0.00408061)
(0 0 0.00424654)
(0 0 0.00441235)
(0 0 0.00457804)
(0 0 0.00474359)
(0 0 0.00490898)
(0 0 0.0050742)
(0 0 0.00523923)
(0 0 0.00540406)
(0 0 0.00556866)
(0 0 0.00573303)
(0 0 0.00589713)
(0 0 0.00606095)
(0 0 0.00622447)
(0 0 0.00638766)
(0 0 0.00655049)
(0 0 0.00671294)
(0 0 0.00687499)
(0 0 0.0070366)
(0 0 0.00719775)
(0 0 0.0073584)
(0 0 0.00751853)
(0 0 0.00767809)
(0 0 0.00783707)
(0 0 0.00799541)
(0 0 0.00815309)
(0 0 0.00831007)
(0 0 0.0084663)
(0 0 0.00862175)
(0 0 0.00877638)
(0 0 0.00893014)
(0 0 0.00908299)
(0 0 0.00923489)
(0 0 0.00938578)
(0 0 0.00953564)
(0 0 0.00968439)
(0 0 0.00983201)
(0 0 0.00997844)
(0 0 0.0101236)
(0 0 0.0102675)
(0 0 0.0104101)
(0 0 0.0105512)
(0 0 0.0106909)
(0 0 0.0108291)
(0 0 0.0109657)
(0 0 0.0111008)
(0 0 0.0112341)
(0 0 0.0113658)
(0 0 0.0114956)
(0 0 0.0116237)
(0 0 0.0117498)
(0 0 0.011874)
(0 0 0.0119962)
(0 0 0.0121163)
(0 0 0.0122344)
(0 0 0.0123502)
(0 0 0.0124639)
(0 0 0.0125752)
(0 0 0.0126843)
(0 0 0.0127909)
(0 0 0.0128952)
(0 0 0.0129969)
(0 0 0.0130962)
(0 0 0.0131928)
(0 0 0.0132868)
(0 0 0.0133782)
(0 0 0.0134668)
(0 0 0.0135527)
(0 0 0.0136358)
(0 0 0.013716)
(0 0 0.0137934)
(0 0 0.0138678)
(0 0 0.0139393)
(0 0 0.0140078)
(0 0 0.0140733)
(0 0 0.0141358)
(0 0 0.0141952)
(0 0 0.0142515)
(0 0 0.0143046)
(0 0 0.0143547)
(0 0 0.0144015)
(0 0 0.0144452)
(0 0 0.0144858)
(0 0 0.0145231)
(0 0 0.0145572)
(0 0 0.0145881)
(0 0 0.0146158)
(0 0 0.0146402)
(0 0 0.0146614)
(0 0 0.0146794)
(0 0 0.0146942)
(0 0 0.0147058)
(0 0 0.0147142)
(0 0 0.0147194)
(0 0 0.0147214)
(0 0 0.0147202)
(0 0 0.0147159)
(0 0 0.0147085)
(0 0 0.014698)
(0 0 0.0146844)
(0 0 0.0146677)
(0 0 0.014648)
(0 0 0.0146253)
(0 0 0.0145996)
(0 0 0.014571)
(0 0 0.0145395)
(0 0 0.0145051)
(0 0 0.0144678)
(0 0 0.0144278)
(0 0 0.014385)
(0 0 0.0143394)
(0 0 0.0142912)
(0 0 0.0142403)
(0 0 0.0141869)
(0 0 0.0141309)
(0 0 0.0140723)
(0 0 0.0140113)
(0 0 0.0139479)
(0 0 0.0138821)
(0 0 0.013814)
(0 0 0.0137435)
(0 0 0.0136709)
(0 0 0.013596)
(0 0 0.013519)
(0 0 0.0134399)
(0 0 0.0133588)
(0 0 0.0132757)
(0 0 0.0131906)
(0 0 0.0131036)
(0 0 0.0130147)
(0 0 0.012924)
(0 0 0.0128316)
(0 0 0.0127375)
(0 0 0.0126417)
(0 0 0.0125442)
(0 0 0.0124452)
(0 0 0.0123446)
(0 0 0.0122426)
(0 0 0.0121391)
(0 0 0.0120342)
(0 0 0.011928)
(0 0 0.0118204)
(0 0 0.0117116)
(0 0 0.0116016)
(0 0 0.0114903)
(0 0 0.0113779)
(0 0 0.0112644)
(0 0 0.0111498)
(0 0 0.0110342)
(0 0 0.0109175)
(0 0 0.0108)
(0 0 0.0106814)
(0 0 0.010562)
(0 0 0.0104418)
(0 0 0.0103207)
(0 0 0.0101988)
(0 0 0.0100762)
(0 0 0.00995279)
(0 0 0.00982872)
(0 0 0.00970398)
(0 0 0.00957859)
(0 0 0.00945259)
(0 0 0.00932601)
(0 0 0.00919886)
(0 0 0.00907118)
(0 0 0.00894298)
(0 0 0.0088143)
(0 0 0.00868516)
(0 0 0.00855557)
(0 0 0.00842557)
(0 0 0.00829517)
(0 0 0.00816439)
(0 0 0.00803325)
(0 0 0.00790177)
(0 0 0.00776997)
(0 0 0.00763787)
(0 0 0.00750548)
(0 0 0.00737283)
(0 0 0.00723992)
(0 0 0.00710677)
(0 0 0.0069734)
(0 0 0.00683981)
(0 0 0.00670604)
(0 0 0.00657207)
(0 0 0.00643794)
(0 0 0.00630365)
(0 0 0.00616921)
(0 0 0.00603463)
(0 0 0.00589992)
(0 0 0.0057651)
(0 0 0.00563016)
(0 0 0.00549513)
(0 0 0.00536001)
(0 0 0.0052248)
(0 0 0.00508952)
(0 0 0.00495416)
(0 0 0.00481875)
(0 0 0.00468328)
(0 0 0.00454776)
(0 0 0.00441219)
(0 0 0.00427659)
(0 0 0.00414094)
(0 0 0.00400527)
(0 0 0.00386957)
(0 0 0.00373385)
(0 0 0.00359811)
(0 0 0.00346236)
(0 0 0.00332659)
(0 0 0.00319081)
(0 0 0.00305502)
(0 0 0.00291922)
(0 0 0.00278342)
(0 0 0.00264762)
(0 0 0.00251182)
(0 0 0.00237602)
(0 0 0.00224022)
(0 0 0.00210442)
(0 0 0.00196862)
(0 0 0.00183283)
(0 0 0.00169704)
(0 0 0.00156126)
(0 0 0.00142548)
(0 0 0.0012897)
(0 0 0.00115393)
(0 0 0.00101816)
(0 0 0.000882401)
(0 0 0.000746641)
(0 0 0.000610884)
(0 0 0.000475129)
(0 0 0.000339377)
(0 0 0.000203625)
(0 0 6.7875e-05)
(0 0 0.000101895)
(0 0 0.000305685)
(0 0 0.000509473)
(0 0 0.000713259)
(0 0 0.000917041)
(0 0 0.00112082)
(0 0 0.00132459)
(0 0 0.00152836)
(0 0 0.00173211)
(0 0 0.00193586)
(0 0 0.00213959)
(0 0 0.0023433)
(0 0 0.00254699)
(0 0 0.00275066)
(0 0 0.00295429)
(0 0 0.0031579)
(0 0 0.00336146)
(0 0 0.00356498)
(0 0 0.00376844)
(0 0 0.00397185)
(0 0 0.00417518)
(0 0 0.00437844)
(0 0 0.0045816)
(0 0 0.00478467)
(0 0 0.00498762)
(0 0 0.00519045)
(0 0 0.00539314)
(0 0 0.00559567)
(0 0 0.00579804)
(0 0 0.00600021)
(0 0 0.00620218)
(0 0 0.00640392)
(0 0 0.00660541)
(0 0 0.00680664)
(0 0 0.00700757)
(0 0 0.00720819)
(0 0 0.00740846)
(0 0 0.00760836)
(0 0 0.00780786)
(0 0 0.00800693)
(0 0 0.00820554)
(0 0 0.00840365)
(0 0 0.00860124)
(0 0 0.00879826)
(0 0 0.00899468)
(0 0 0.00919046)
(0 0 0.00938555)
(0 0 0.00957992)
(0 0 0.00977353)
(0 0 0.00996633)
(0 0 0.0101583)
(0 0 0.0103493)
(0 0 0.0105394)
(0 0 0.0107284)
(0 0 0.0109165)
(0 0 0.0111034)
(0 0 0.0112891)
(0 0 0.0114736)
(0 0 0.0116569)
(0 0 0.0118388)
(0 0 0.0120193)
(0 0 0.0121984)
(0 0 0.012376)
(0 0 0.0125519)
(0 0 0.0127263)
(0 0 0.0128989)
(0 0 0.0130697)
(0 0 0.0132388)
(0 0 0.0134059)
(0 0 0.013571)
(0 0 0.0137341)
(0 0 0.0138951)
(0 0 0.014054)
(0 0 0.0142105)
(0 0 0.0143648)
(0 0 0.0145167)
(0 0 0.0146662)
(0 0 0.0148131)
(0 0 0.0149575)
(0 0 0.0150992)
(0 0 0.0152382)
(0 0 0.0153745)
(0 0 0.0155078)
(0 0 0.0156383)
(0 0 0.0157658)
(0 0 0.0158903)
(0 0 0.0160117)
(0 0 0.0161299)
(0 0 0.0162449)
(0 0 0.0163567)
(0 0 0.0164651)
(0 0 0.0165701)
(0 0 0.0166718)
(0 0 0.0167699)
(0 0 0.0168645)
(0 0 0.0169556)
(0 0 0.017043)
(0 0 0.0171268)
(0 0 0.0172069)
(0 0 0.0172833)
(0 0 0.017356)
(0 0 0.0174248)
(0 0 0.0174898)
(0 0 0.017551)
(0 0 0.0176083)
(0 0 0.0176618)
(0 0 0.0177113)
(0 0 0.017757)
(0 0 0.0177987)
(0 0 0.0178364)
(0 0 0.0178703)
(0 0 0.0179001)
(0 0 0.0179261)
(0 0 0.0179481)
(0 0 0.0179662)
(0 0 0.0179803)
(0 0 0.0179905)
(0 0 0.0179968)
(0 0 0.0179993)
(0 0 0.0179978)
(0 0 0.0179925)
(0 0 0.0179834)
(0 0 0.0179705)
(0 0 0.0179538)
(0 0 0.0179334)
(0 0 0.0179092)
(0 0 0.0178814)
(0 0 0.01785)
(0 0 0.0178149)
(0 0 0.0177763)
(0 0 0.0177342)
(0 0 0.0176886)
(0 0 0.0176396)
(0 0 0.0175872)
(0 0 0.0175314)
(0 0 0.0174724)
(0 0 0.0174102)
(0 0 0.0173447)
(0 0 0.0172762)
(0 0 0.0172045)
(0 0 0.0171299)
(0 0 0.0170523)
(0 0 0.0169718)
(0 0 0.0168884)
(0 0 0.0168022)
(0 0 0.0167133)
(0 0 0.0166217)
(0 0 0.0165275)
(0 0 0.0164308)
(0 0 0.0163315)
(0 0 0.0162298)
(0 0 0.0161257)
(0 0 0.0160193)
(0 0 0.0159106)
(0 0 0.0157996)
(0 0 0.0156866)
(0 0 0.0155714)
(0 0 0.0154542)
(0 0 0.015335)
(0 0 0.0152139)
(0 0 0.0150909)
(0 0 0.0149661)
(0 0 0.0148396)
(0 0 0.0147113)
(0 0 0.0145813)
(0 0 0.0144498)
(0 0 0.0143167)
(0 0 0.0141821)
(0 0 0.014046)
(0 0 0.0139086)
(0 0 0.0137698)
(0 0 0.0136296)
(0 0 0.0134882)
(0 0 0.0133456)
(0 0 0.0132018)
(0 0 0.0130569)
(0 0 0.0129109)
(0 0 0.0127639)
(0 0 0.0126158)
(0 0 0.0124668)
(0 0 0.0123168)
(0 0 0.012166)
(0 0 0.0120143)
(0 0 0.0118617)
(0 0 0.0117084)
(0 0 0.0115544)
(0 0 0.0113996)
(0 0 0.0112441)
(0 0 0.011088)
(0 0 0.0109313)
(0 0 0.010774)
(0 0 0.0106161)
(0 0 0.0104577)
(0 0 0.0102987)
(0 0 0.0101393)
(0 0 0.00997943)
(0 0 0.00981911)
(0 0 0.00965838)
(0 0 0.00949725)
(0 0 0.00933576)
(0 0 0.00917392)
(0 0 0.00901175)
(0 0 0.00884928)
(0 0 0.00868651)
(0 0 0.00852347)
(0 0 0.00836018)
(0 0 0.00819664)
(0 0 0.00803289)
(0 0 0.00786892)
(0 0 0.00770476)
(0 0 0.00754042)
(0 0 0.00737592)
(0 0 0.00721126)
(0 0 0.00704645)
(0 0 0.00688152)
(0 0 0.00671646)
(0 0 0.00655129)
(0 0 0.00638602)
(0 0 0.00622066)
(0 0 0.00605522)
(0 0 0.0058897)
(0 0 0.00572411)
(0 0 0.00555846)
(0 0 0.00539276)
(0 0 0.00522701)
(0 0 0.00506122)
(0 0 0.00489539)
(0 0 0.00472953)
(0 0 0.00456364)
(0 0 0.00439773)
(0 0 0.0042318)
(0 0 0.00406585)
(0 0 0.00389989)
(0 0 0.00373392)
(0 0 0.00356795)
(0 0 0.00340197)
(0 0 0.00323599)
(0 0 0.00307)
(0 0 0.00290402)
(0 0 0.00273804)
(0 0 0.00257206)
(0 0 0.00240609)
(0 0 0.00224012)
(0 0 0.00207416)
(0 0 0.0019082)
(0 0 0.00174224)
(0 0 0.0015763)
(0 0 0.00141035)
(0 0 0.00124442)
(0 0 0.00107848)
(0 0 0.000912555)
(0 0 0.000746631)
(0 0 0.00058071)
(0 0 0.000414791)
(0 0 0.000248874)
(0 0 8.29578e-05)
(0 0 0.000120422)
(0 0 0.000361267)
(0 0 0.00060211)
(0 0 0.000842951)
(0 0 0.00108379)
(0 0 0.00132462)
(0 0 0.00156545)
(0 0 0.00180626)
(0 0 0.00204707)
(0 0 0.00228787)
(0 0 0.00252864)
(0 0 0.0027694)
(0 0 0.00301014)
(0 0 0.00325085)
(0 0 0.00349152)
(0 0 0.00373216)
(0 0 0.00397275)
(0 0 0.00421329)
(0 0 0.00445376)
(0 0 0.00469417)
(0 0 0.0049345)
(0 0 0.00517473)
(0 0 0.00541486)
(0 0 0.00565488)
(0 0 0.00589476)
(0 0 0.0061345)
(0 0 0.00637408)
(0 0 0.00661348)
(0 0 0.00685267)
(0 0 0.00709165)
(0 0 0.00733039)
(0 0 0.00756886)
(0 0 0.00780704)
(0 0 0.00804491)
(0 0 0.00828243)
(0 0 0.00851959)
(0 0 0.00875633)
(0 0 0.00899265)
(0 0 0.00922849)
(0 0 0.00946383)
(0 0 0.00969863)
(0 0 0.00993285)
(0 0 0.0101664)
(0 0 0.0103994)
(0 0 0.0106316)
(0 0 0.0108631)
(0 0 0.0110937)
(0 0 0.0113235)
(0 0 0.0115525)
(0 0 0.0117804)
(0 0 0.0120074)
(0 0 0.0122332)
(0 0 0.012458)
(0 0 0.0126816)
(0 0 0.0129039)
(0 0 0.0131249)
(0 0 0.0133446)
(0 0 0.0135628)
(0 0 0.0137795)
(0 0 0.0139946)
(0 0 0.0142081)
(0 0 0.0144199)
(0 0 0.0146299)
(0 0 0.014838)
(0 0 0.0150442)
(0 0 0.0152483)
(0 0 0.0154504)
(0 0 0.0156503)
(0 0 0.015848)
(0 0 0.0160433)
(0 0 0.0162362)
(0 0 0.0164267)
(0 0 0.0166145)
(0 0 0.0167997)
(0 0 0.0169822)
(0 0 0.0171619)
(0 0 0.0173387)
(0 0 0.0175125)
(0 0 0.0176833)
(0 0 0.017851)
(0 0 0.0180154)
(0 0 0.0181765)
(0 0 0.0183343)
(0 0 0.0184887)
(0 0 0.0186395)
(0 0 0.0187868)
(0 0 0.0189303)
(0 0 0.0190702)
(0 0 0.0192063)
(0 0 0.0193384)
(0 0 0.0194667)
(0 0 0.019591)
(0 0 0.0197112)
(0 0 0.0198273)
(0 0 0.0199392)
(0 0 0.0200469)
(0 0 0.0201504)
(0 0 0.0202495)
(0 0 0.0203443)
(0 0 0.0204346)
(0 0 0.0205205)
(0 0 0.020602)
(0 0 0.0206789)
(0 0 0.0207512)
(0 0 0.020819)
(0 0 0.0208822)
(0 0 0.0209408)
(0 0 0.0209948)
(0 0 0.0210441)
(0 0 0.0210887)
(0 0 0.0211287)
(0 0 0.021164)
(0 0 0.0211947)
(0 0 0.0212207)
(0 0 0.021242)
(0 0 0.0212587)
(0 0 0.0212707)
(0 0 0.0212782)
(0 0 0.021281)
(0 0 0.0212792)
(0 0 0.0212729)
(0 0 0.0212621)
(0 0 0.0212468)
(0 0 0.021227)
(0 0 0.0212028)
(0 0 0.0211741)
(0 0 0.0211412)
(0 0 0.0211039)
(0 0 0.0210624)
(0 0 0.0210167)
(0 0 0.0209668)
(0 0 0.0209128)
(0 0 0.0208548)
(0 0 0.0207927)
(0 0 0.0207267)
(0 0 0.0206569)
(0 0 0.0205832)
(0 0 0.0205057)
(0 0 0.0204246)
(0 0 0.0203398)
(0 0 0.0202514)
(0 0 0.0201596)
(0 0 0.0200643)
(0 0 0.0199656)
(0 0 0.0198636)
(0 0 0.0197584)
(0 0 0.0196501)
(0 0 0.0195386)
(0 0 0.0194241)
(0 0 0.0193066)
(0 0 0.0191863)
(0 0 0.0190631)
(0 0 0.0189372)
(0 0 0.0188086)
(0 0 0.0186774)
(0 0 0.0185437)
(0 0 0.0184074)
(0 0 0.0182688)
(0 0 0.0181278)
(0 0 0.0179845)
(0 0 0.017839)
(0 0 0.0176914)
(0 0 0.0175417)
(0 0 0.01739)
(0 0 0.0172363)
(0 0 0.0170807)
(0 0 0.0169233)
(0 0 0.0167641)
(0 0 0.0166032)
(0 0 0.0164406)
(0 0 0.0162765)
(0 0 0.0161108)
(0 0 0.0159435)
(0 0 0.0157749)
(0 0 0.0156049)
(0 0 0.0154335)
(0 0 0.0152608)
(0 0 0.0150869)
(0 0 0.0149119)
(0 0 0.0147356)
(0 0 0.0145583)
(0 0 0.01438)
(0 0 0.0142006)
(0 0 0.0140203)
(0 0 0.013839)
(0 0 0.0136569)
(0 0 0.0134739)
(0 0 0.0132901)
(0 0 0.0131055)
(0 0 0.0129202)
(0 0 0.0127342)
(0 0 0.0125476)
(0 0 0.0123603)
(0 0 0.0121724)
(0 0 0.0119839)
(0 0 0.0117949)
(0 0 0.0116054)
(0 0 0.0114154)
(0 0 0.0112249)
(0 0 0.011034)
(0 0 0.0108427)
(0 0 0.010651)
(0 0 0.0104589)
(0 0 0.0102665)
(0 0 0.0100738)