/*--------------------------------*- C++ -*----------------------------------*\
| =========                 |                                                 |
| \\      /  F ield         | OpenFOAM: The Open Source CFD Toolbox           |
|  \\    /   O peration     | Version:  v2012                                 |
|   \\  /    A nd           | Website:  www.openfoam.com                      |
|    \\/     M anipulation  |                                                 |
\*---------------------------------------------------------------------------*/
FoamFile
{
    version     2.0;
    format      ascii;
    class       volVectorField;
    location    "8";
    object      U;
}
// * * * * * * * * * * * * * * * * * * * * * * * * * * * * * * * * * * * * * //

dimensions      [0 1 -1 0 0 0 0];


internalField   nonuniform List<vector> 
65536
(
(0.000754785 -0.000754782 0)
(0.00226435 -0.000754777 0)
(0.0037739 -0.000754767 0)
(0.00528342 -0.000754751 0)
(0.0067929 -0.000754729 0)
(0.00830234 -0.000754701 0)
(0.00981171 -0.000754665 0)
(0.011321 -0.000754621 0)
(0.0128302 -0.000754567 0)
(0.0143393 -0.000754502 0)
(0.0158482 -0.000754426 0)
(0.017357 -0.000754335 0)
(0.0188656 -0.000754229 0)
(0.0203739 -0.000754106 0)
(0.021882 -0.000753963 0)
(0.0233898 -0.000753799 0)
(0.0248972 -0.00075361 0)
(0.0264043 -0.000753395 0)
(0.0279108 -0.000753151 0)
(0.0294169 -0.000752875 0)
(0.0309224 -0.000752564 0)
(0.0324272 -0.000752215 0)
(0.0339313 -0.000751825 0)
(0.0354345 -0.00075139 0)
(0.0369369 -0.000750907 0)
(0.0384382 -0.000750372 0)
(0.0399384 -0.000749781 0)
(0.0414374 -0.000749131 0)
(0.042935 -0.000748417 0)
(0.0444311 -0.000747636 0)
(0.0459256 -0.000746782 0)
(0.0474183 -0.000745852 0)
(0.0489091 -0.000744841 0)
(0.0503978 -0.000743745 0)
(0.0518842 -0.000742558 0)
(0.0533681 -0.000741276 0)
(0.0548494 -0.000739894 0)
(0.0563278 -0.000738406 0)
(0.0578031 -0.000736809 0)
(0.0592751 -0.000735097 0)
(0.0607436 -0.000733264 0)
(0.0622083 -0.000731306 0)
(0.063669 -0.000729216 0)
(0.0651253 -0.000726991 0)
(0.0665771 -0.000724624 0)
(0.068024 -0.00072211 0)
(0.0694657 -0.000719444 0)
(0.0709019 -0.000716621 0)
(0.0723323 -0.000713634 0)
(0.0737566 -0.00071048 0)
(0.0751744 -0.000707152 0)
(0.0765854 -0.000703647 0)
(0.0779892 -0.000699957 0)
(0.0793854 -0.000696079 0)
(0.0807737 -0.000692008 0)
(0.0821536 -0.000687738 0)
(0.0835248 -0.000683266 0)
(0.0848869 -0.000678586 0)
(0.0862394 -0.000673694 0)
(0.0875819 -0.000668587 0)
(0.0889139 -0.00066326 0)
(0.0902351 -0.000657709 0)
(0.091545 -0.00065193 0)
(0.0928431 -0.000645921 0)
(0.0941289 -0.000639678 0)
(0.095402 -0.000633199 0)
(0.096662 -0.00062648 0)
(0.0979082 -0.000619519 0)
(0.0991403 -0.000612315 0)
(0.100358 -0.000604866 0)
(0.10156 -0.000597171 0)
(0.102747 -0.000589227 0)
(0.103917 -0.000581035 0)
(0.105071 -0.000572595 0)
(0.106208 -0.000563906 0)
(0.107327 -0.000554968 0)
(0.108428 -0.000545783 0)
(0.10951 -0.000536352 0)
(0.110574 -0.000526676 0)
(0.111617 -0.000516758 0)
(0.112641 -0.000506598 0)
(0.113644 -0.000496202 0)
(0.114626 -0.000485571 0)
(0.115586 -0.000474708 0)
(0.116525 -0.000463619 0)
(0.117441 -0.000452308 0)
(0.118334 -0.000440778 0)
(0.119204 -0.000429036 0)
(0.120051 -0.000417087 0)
(0.120873 -0.000404937 0)
(0.121671 -0.000392592 0)
(0.122443 -0.000380058 0)
(0.123191 -0.000367344 0)
(0.123913 -0.000354455 0)
(0.124609 -0.0003414 0)
(0.125279 -0.000328187 0)
(0.125922 -0.000314824 0)
(0.126538 -0.000301319 0)
(0.127127 -0.000287681 0)
(0.127689 -0.00027392 0)
(0.128223 -0.000260044 0)
(0.128729 -0.000246062 0)
(0.129207 -0.000231985 0)
(0.129657 -0.000217822 0)
(0.130079 -0.000203582 0)
(0.130472 -0.000189277 0)
(0.130836 -0.000174915 0)
(0.131171 -0.000160507 0)
(0.131478 -0.000146064 0)
(0.131756 -0.000131594 0)
(0.132004 -0.000117109 0)
(0.132224 -0.000102619 0)
(0.132415 -8.8133e-05 0)
(0.132577 -7.36618e-05 0)
(0.13271 -5.92152e-05 0)
(0.132814 -4.4803e-05 0)
(0.132889 -3.04348e-05 0)
(0.132935 -1.61201e-05 0)
(0.132953 -1.86835e-06 0)
(0.132943 1.23114e-05 0)
(0.132904 2.641e-05 0)
(0.132837 4.04189e-05 0)
(0.132742 5.43296e-05 0)
(0.132619 6.81337e-05 0)
(0.132469 8.18233e-05 0)
(0.132292 9.53906e-05 0)
(0.132088 0.000108828 0)
(0.131857 0.000122129 0)
(0.131599 0.000135286 0)
(0.131315 0.000148293 0)
(0.131006 0.000161144 0)
(0.130671 0.000173832 0)
(0.13031 0.000186353 0)
(0.129925 0.0001987 0)
(0.129515 0.000210869 0)
(0.129081 0.000222856 0)
(0.128624 0.000234656 0)
(0.128142 0.000246265 0)
(0.127638 0.00025768 0)
(0.127112 0.000268897 0)
(0.126563 0.000279914 0)
(0.125992 0.000290728 0)
(0.125399 0.000301336 0)
(0.124786 0.000311737 0)
(0.124152 0.000321929 0)
(0.123498 0.00033191 0)
(0.122824 0.00034168 0)
(0.122131 0.000351237 0)
(0.121419 0.000360582 0)
(0.120689 0.000369713 0)
(0.11994 0.000378632 0)
(0.119174 0.000387337 0)
(0.118391 0.00039583 0)
(0.117591 0.000404111 0)
(0.116774 0.000412181 0)
(0.115942 0.000420041 0)
(0.115094 0.000427693 0)
(0.114231 0.000435139 0)
(0.113353 0.000442379 0)
(0.112461 0.000449415 0)
(0.111555 0.000456251 0)
(0.110636 0.000462887 0)
(0.109703 0.000469327 0)
(0.108758 0.000475572 0)
(0.107801 0.000481626 0)
(0.106831 0.00048749 0)
(0.105851 0.000493169 0)
(0.104859 0.000498664 0)
(0.103856 0.000503978 0)
(0.102843 0.000509115 0)
(0.101819 0.000514079 0)
(0.100786 0.000518871 0)
(0.0997435 0.000523495 0)
(0.0986919 0.000527955 0)
(0.0976316 0.000532254 0)
(0.0965627 0.000536395 0)
(0.0954858 0.000540381 0)
(0.0944011 0.000544217 0)
(0.0933088 0.000547906 0)
(0.0922093 0.00055145 0)
(0.0911029 0.000554854 0)
(0.0899898 0.00055812 0)
(0.0888703 0.000561253 0)
(0.0877446 0.000564256 0)
(0.0866131 0.000567132 0)
(0.085476 0.000569884 0)
(0.0843335 0.000572517 0)
(0.0831858 0.000575033 0)
(0.0820332 0.000577436 0)
(0.0808759 0.000579729 0)
(0.0797142 0.000581916 0)
(0.0785482 0.000583999 0)
(0.0773781 0.000585982 0)
(0.0762042 0.000587868 0)
(0.0750265 0.00058966 0)
(0.0738454 0.000591362 0)
(0.072661 0.000592975 0)
(0.0714734 0.000594505 0)
(0.0702829 0.000595952 0)
(0.0690896 0.000597321 0)
(0.0678935 0.000598614 0)
(0.066695 0.000599834 0)
(0.0654941 0.000600984 0)
(0.064291 0.000602066 0)
(0.0630858 0.000603083 0)
(0.0618786 0.000604038 0)
(0.0606696 0.000604933 0)
(0.0594588 0.000605771 0)
(0.0582465 0.000606554 0)
(0.0570326 0.000607284 0)
(0.0558173 0.000607965 0)
(0.0546007 0.000608598 0)
(0.0533828 0.000609185 0)
(0.0521639 0.000609728 0)
(0.0509439 0.000610231 0)
(0.0497229 0.000610694 0)
(0.0485011 0.00061112 0)
(0.0472784 0.000611511 0)
(0.046055 0.000611869 0)
(0.0448309 0.000612195 0)
(0.0436062 0.000612491 0)
(0.0423809 0.00061276 0)
(0.0411551 0.000613002 0)
(0.0399289 0.00061322 0)
(0.0387022 0.000613415 0)
(0.0374752 0.000613588 0)
(0.0362479 0.000613741 0)
(0.0350202 0.000613876 0)
(0.0337923 0.000613994 0)
(0.0325642 0.000614096 0)
(0.0313359 0.000614183 0)
(0.0301075 0.000614257 0)
(0.0288789 0.000614319 0)
(0.0276502 0.00061437 0)
(0.0264214 0.000614411 0)
(0.0251926 0.000614443 0)
(0.0239636 0.000614467 0)
(0.0227347 0.000614484 0)
(0.0215057 0.000614495 0)
(0.0202767 0.000614502 0)
(0.0190477 0.000614503 0)
(0.0178187 0.000614501 0)
(0.0165897 0.000614496 0)
(0.0153607 0.000614488 0)
(0.0141317 0.000614479 0)
(0.0129028 0.000614469 0)
(0.0116739 0.000614458 0)
(0.010445 0.000614447 0)
(0.00921607 0.000614436 0)
(0.00798721 0.000614425 0)
(0.00675837 0.000614416 0)
(0.00552955 0.000614407 0)
(0.00430075 0.0006144 0)
(0.00307195 0.000614395 0)
(0.00184317 0.000614392 0)
(0.000614389 0.00061439 0)
(0.000754789 -0.00226435 0)
(0.00226436 -0.00226433 0)
(0.00377392 -0.0022643 0)
(0.00528345 -0.00226426 0)
(0.00679295 -0.00226419 0)
(0.0083024 -0.00226411 0)
(0.00981179 -0.002264 0)
(0.0113211 -0.00226387 0)
(0.0128303 -0.00226371 0)
(0.0143394 -0.00226352 0)
(0.0158484 -0.00226329 0)
(0.0173572 -0.00226302 0)
(0.0188658 -0.0022627 0)
(0.0203742 -0.00226234 0)
(0.0218823 -0.00226191 0)
(0.0233902 -0.00226142 0)
(0.0248976 -0.00226086 0)
(0.0264047 -0.00226021 0)
(0.0279114 -0.00225948 0)
(0.0294175 -0.00225866 0)
(0.030923 -0.00225773 0)
(0.0324279 -0.00225668 0)
(0.0339321 -0.00225552 0)
(0.0354354 -0.00225422 0)
(0.0369379 -0.00225277 0)
(0.0384393 -0.00225117 0)
(0.0399397 -0.0022494 0)
(0.0414387 -0.00224745 0)
(0.0429365 -0.00224532 0)
(0.0444328 -0.00224298 0)
(0.0459274 -0.00224042 0)
(0.0474203 -0.00223764 0)
(0.0489112 -0.00223461 0)
(0.0504001 -0.00223132 0)
(0.0518866 -0.00222777 0)
(0.0533708 -0.00222393 0)
(0.0548522 -0.00221978 0)
(0.0563308 -0.00221533 0)
(0.0578064 -0.00221054 0)
(0.0592787 -0.00220541 0)
(0.0607474 -0.00219992 0)
(0.0622123 -0.00219405 0)
(0.0636733 -0.00218778 0)
(0.0651299 -0.00218111 0)
(0.0665819 -0.00217402 0)
(0.0680291 -0.00216648 0)
(0.0694711 -0.00215849 0)
(0.0709077 -0.00215002 0)
(0.0723384 -0.00214107 0)
(0.073763 -0.00213161 0)
(0.0751812 -0.00212163 0)
(0.0765925 -0.00211112 0)
(0.0779967 -0.00210006 0)
(0.0793933 -0.00208843 0)
(0.080782 -0.00207622 0)
(0.0821623 -0.00206341 0)
(0.0835339 -0.00205 0)
(0.0848964 -0.00203597 0)
(0.0862493 -0.0020213 0)
(0.0875923 -0.00200598 0)
(0.0889248 -0.00199 0)
(0.0902464 -0.00197335 0)
(0.0915567 -0.00195602 0)
(0.0928553 -0.00193799 0)
(0.0941416 -0.00191927 0)
(0.0954152 -0.00189983 0)
(0.0966756 -0.00187968 0)
(0.0979223 -0.0018588 0)
(0.0991549 -0.00183719 0)
(0.100373 -0.00181484 0)
(0.101576 -0.00179176 0)
(0.102763 -0.00176793 0)
(0.103934 -0.00174335 0)
(0.105088 -0.00171803 0)
(0.106225 -0.00169196 0)
(0.107345 -0.00166515 0)
(0.108446 -0.00163759 0)
(0.109529 -0.0016093 0)
(0.110593 -0.00158027 0)
(0.111637 -0.00155051 0)
(0.112661 -0.00152003 0)
(0.113665 -0.00148884 0)
(0.114647 -0.00145694 0)
(0.115608 -0.00142435 0)
(0.116547 -0.00139108 0)
(0.117464 -0.00135714 0)
(0.118358 -0.00132255 0)
(0.119228 -0.00128731 0)
(0.120075 -0.00125146 0)
(0.120897 -0.001215 0)
(0.121695 -0.00117796 0)
(0.122469 -0.00114035 0)
(0.123217 -0.0011022 0)
(0.123939 -0.00106353 0)
(0.124635 -0.00102436 0)
(0.125305 -0.00098471 0)
(0.125949 -0.000944612 0)
(0.126565 -0.000904089 0)
(0.127155 -0.000863166 0)
(0.127717 -0.000821873 0)
(0.128251 -0.000780234 0)
(0.128757 -0.00073828 0)
(0.129236 -0.000696039 0)
(0.129686 -0.00065354 0)
(0.130107 -0.000610812 0)
(0.1305 -0.000567885 0)
(0.130865 -0.00052479 0)
(0.1312 -0.000481556 0)
(0.131507 -0.000438215 0)
(0.131785 -0.000394797 0)
(0.132033 -0.000351332 0)
(0.132253 -0.000307851 0)
(0.132444 -0.000264384 0)
(0.132606 -0.00022096 0)
(0.132738 -0.000177611 0)
(0.132842 -0.000134364 0)
(0.132917 -9.12503e-05 0)
(0.132964 -4.8297e-05 0)
(0.132981 -5.53262e-06 0)
(0.132971 3.70154e-05 0)
(0.132932 7.932e-05 0)
(0.132865 0.000121355 0)
(0.13277 0.000163095 0)
(0.132647 0.000204516 0)
(0.132497 0.000245592 0)
(0.132319 0.000286301 0)
(0.132114 0.000326621 0)
(0.131883 0.000366531 0)
(0.131625 0.000406009 0)
(0.131341 0.000445036 0)
(0.131031 0.000483594 0)
(0.130696 0.000521664 0)
(0.130335 0.000559231 0)
(0.129949 0.000596277 0)
(0.129539 0.00063279 0)
(0.129105 0.000668754 0)
(0.128647 0.000704158 0)
(0.128165 0.000738989 0)
(0.127661 0.000773237 0)
(0.127134 0.000806892 0)
(0.126584 0.000839944 0)
(0.126013 0.000872388 0)
(0.12542 0.000904214 0)
(0.124807 0.000935419 0)
(0.124172 0.000965996 0)
(0.123518 0.000995941 0)
(0.122844 0.00102525 0)
(0.12215 0.00105392 0)
(0.121438 0.00108196 0)
(0.120707 0.00110935 0)
(0.119958 0.00113611 0)
(0.119191 0.00116222 0)
(0.118407 0.0011877 0)
(0.117607 0.00121254 0)
(0.11679 0.00123675 0)
(0.115957 0.00126033 0)
(0.115109 0.00128329 0)
(0.114245 0.00130562 0)
(0.113367 0.00132734 0)
(0.112475 0.00134845 0)
(0.111568 0.00136895 0)
(0.110649 0.00138886 0)
(0.109716 0.00140817 0)
(0.10877 0.00142691 0)
(0.107813 0.00144506 0)
(0.106843 0.00146266 0)
(0.105862 0.00147969 0)
(0.104869 0.00149617 0)
(0.103866 0.00151211 0)
(0.102853 0.00152752 0)
(0.101829 0.0015424 0)
(0.100795 0.00155678 0)
(0.0997525 0.00157065 0)
(0.0987006 0.00158402 0)
(0.0976399 0.00159692 0)
(0.0965708 0.00160934 0)
(0.0954936 0.00162129 0)
(0.0944085 0.0016328 0)
(0.093316 0.00164386 0)
(0.0922162 0.00165449 0)
(0.0911095 0.0016647 0)
(0.0899961 0.00167449 0)
(0.0888763 0.00168389 0)
(0.0877504 0.00169289 0)
(0.0866187 0.00170152 0)
(0.0854813 0.00170977 0)
(0.0843386 0.00171767 0)
(0.0831907 0.00172521 0)
(0.0820379 0.00173242 0)
(0.0808804 0.00173929 0)
(0.0797184 0.00174585 0)
(0.0785522 0.00175209 0)
(0.0773819 0.00175804 0)
(0.0762078 0.00176369 0)
(0.07503 0.00176907 0)
(0.0738487 0.00177417 0)
(0.0726641 0.00177901 0)
(0.0714764 0.00178359 0)
(0.0702857 0.00178793 0)
(0.0690922 0.00179204 0)
(0.067896 0.00179591 0)
(0.0666974 0.00179957 0)
(0.0654963 0.00180302 0)
(0.0642931 0.00180626 0)
(0.0630878 0.00180931 0)
(0.0618804 0.00181217 0)
(0.0606713 0.00181485 0)
(0.0594604 0.00181737 0)
(0.058248 0.00181971 0)
(0.057034 0.0018219 0)
(0.0558186 0.00182394 0)
(0.0546019 0.00182584 0)
(0.053384 0.0018276 0)
(0.0521649 0.00182922 0)
(0.0509448 0.00183073 0)
(0.0497238 0.00183212 0)
(0.0485019 0.00183339 0)
(0.0472791 0.00183457 0)
(0.0460557 0.00183564 0)
(0.0448315 0.00183661 0)
(0.0436067 0.0018375 0)
(0.0423814 0.0018383 0)
(0.0411556 0.00183903 0)
(0.0399293 0.00183968 0)
(0.0387026 0.00184026 0)
(0.0374755 0.00184078 0)
(0.0362481 0.00184124 0)
(0.0350205 0.00184164 0)
(0.0337925 0.001842 0)
(0.0325644 0.0018423 0)
(0.0313361 0.00184256 0)
(0.0301076 0.00184278 0)
(0.028879 0.00184297 0)
(0.0276503 0.00184312 0)
(0.0264215 0.00184324 0)
(0.0251926 0.00184333 0)
(0.0239637 0.00184341 0)
(0.0227347 0.00184346 0)
(0.0215057 0.00184349 0)
(0.0202767 0.00184351 0)
(0.0190477 0.00184351 0)
(0.0178187 0.0018435 0)
(0.0165897 0.00184349 0)
(0.0153607 0.00184347 0)
(0.0141317 0.00184344 0)
(0.0129028 0.00184341 0)
(0.0116738 0.00184337 0)
(0.0104449 0.00184334 0)
(0.00921605 0.00184331 0)
(0.00798719 0.00184327 0)
(0.00675835 0.00184325 0)
(0.00552953 0.00184322 0)
(0.00430073 0.0018432 0)
(0.00307194 0.00184318 0)
(0.00184316 0.00184317 0)
(0.000614387 0.00184317 0)
(0.000754799 -0.00377393 0)
(0.00226439 -0.00377391 0)
(0.00377397 -0.00377386 0)
(0.00528353 -0.00377378 0)
(0.00679305 -0.00377368 0)
(0.00830253 -0.00377354 0)
(0.00981195 -0.00377336 0)
(0.0113213 -0.00377315 0)
(0.0128306 -0.00377289 0)
(0.0143397 -0.00377257 0)
(0.0158487 -0.0037722 0)
(0.0173576 -0.00377175 0)
(0.0188663 -0.00377123 0)
(0.0203747 -0.00377062 0)
(0.0218829 -0.00376992 0)
(0.0233909 -0.00376911 0)
(0.0248984 -0.00376818 0)
(0.0264056 -0.00376712 0)
(0.0279124 -0.00376591 0)
(0.0294187 -0.00376455 0)
(0.0309243 -0.00376301 0)
(0.0324294 -0.00376128 0)
(0.0339337 -0.00375934 0)
(0.0354373 -0.00375719 0)
(0.0369399 -0.00375479 0)
(0.0384416 -0.00375213 0)
(0.0399421 -0.0037492 0)
(0.0414415 -0.00374597 0)
(0.0429395 -0.00374242 0)
(0.044436 -0.00373854 0)
(0.045931 -0.00373429 0)
(0.0474241 -0.00372966 0)
(0.0489154 -0.00372463 0)
(0.0504046 -0.00371917 0)
(0.0518916 -0.00371326 0)
(0.0533761 -0.00370688 0)
(0.054858 -0.00369999 0)
(0.056337 -0.00369258 0)
(0.057813 -0.00368462 0)
(0.0592857 -0.00367608 0)
(0.060755 -0.00366694 0)
(0.0622204 -0.00365718 0)
(0.0636819 -0.00364676 0)
(0.0651391 -0.00363566 0)
(0.0665917 -0.00362385 0)
(0.0680395 -0.00361131 0)
(0.0694821 -0.003598 0)
(0.0709193 -0.00358391 0)
(0.0723507 -0.00356901 0)
(0.073776 -0.00355326 0)
(0.0751949 -0.00353665 0)
(0.0766069 -0.00351915 0)
(0.0780118 -0.00350072 0)
(0.0794092 -0.00348136 0)
(0.0807987 -0.00346103 0)
(0.0821798 -0.0034397 0)
(0.0835522 -0.00341736 0)
(0.0849156 -0.00339398 0)
(0.0862693 -0.00336955 0)
(0.0876131 -0.00334403 0)
(0.0889465 -0.00331741 0)
(0.0902691 -0.00328967 0)
(0.0915803 -0.0032608 0)
(0.0928798 -0.00323077 0)
(0.0941671 -0.00319957 0)
(0.0954416 -0.00316718 0)
(0.096703 -0.0031336 0)
(0.0979507 -0.00309881 0)
(0.0991842 -0.0030628 0)
(0.100403 -0.00302556 0)
(0.101607 -0.00298709 0)
(0.102795 -0.00294737 0)
(0.103967 -0.00290642 0)
(0.105122 -0.00286421 0)
(0.106261 -0.00282076 0)
(0.107381 -0.00277607 0)
(0.108484 -0.00273014 0)
(0.109568 -0.00268298 0)
(0.110632 -0.00263459 0)
(0.111677 -0.00258499 0)
(0.112702 -0.00253418 0)
(0.113707 -0.00248218 0)
(0.11469 -0.002429 0)
(0.115652 -0.00237467 0)
(0.116592 -0.00231921 0)
(0.11751 -0.00226262 0)
(0.118404 -0.00220495 0)
(0.119275 -0.00214621 0)
(0.120123 -0.00208644 0)
(0.120946 -0.00202566 0)
(0.121745 -0.0019639 0)
(0.122519 -0.00190119 0)
(0.123268 -0.00183759 0)
(0.123991 -0.0017731 0)
(0.124688 -0.00170779 0)
(0.125359 -0.00164168 0)
(0.126003 -0.00157482 0)
(0.12662 -0.00150726 0)
(0.12721 -0.00143902 0)
(0.127772 -0.00137017 0)
(0.128307 -0.00130074 0)
(0.128814 -0.00123079 0)
(0.129292 -0.00116035 0)
(0.129743 -0.00108949 0)
(0.130164 -0.00101824 0)
(0.130558 -0.000946662 0)
(0.130922 -0.000874803 0)
(0.131258 -0.000802713 0)
(0.131565 -0.000730444 0)
(0.131843 -0.000658047 0)
(0.132091 -0.000585572 0)
(0.132311 -0.000513069 0)
(0.132502 -0.00044059 0)
(0.132663 -0.000368185 0)
(0.132796 -0.000295903 0)
(0.1329 -0.000223794 0)
(0.132975 -0.000151905 0)
(0.133021 -8.0285e-05 0)
(0.133038 -8.98051e-06 0)
(0.133027 6.19627e-05 0)
(0.132988 0.0001325 0)
(0.132921 0.000202587 0)
(0.132825 0.000272181 0)
(0.132702 0.000341241 0)
(0.132551 0.000409728 0)
(0.132373 0.000477602 0)
(0.132168 0.000544825 0)
(0.131936 0.000611364 0)
(0.131678 0.000677182 0)
(0.131393 0.000742248 0)
(0.131082 0.000806531 0)
(0.130746 0.00087 0)
(0.130385 0.000932628 0)
(0.129999 0.000994389 0)
(0.129588 0.00105526 0)
(0.129153 0.00111521 0)
(0.128694 0.00117423 0)
(0.128212 0.0012323 0)
(0.127706 0.00128939 0)
(0.127178 0.00134549 0)
(0.126628 0.00140058 0)
(0.126056 0.00145466 0)
(0.125462 0.00150772 0)
(0.124848 0.00155973 0)
(0.124213 0.00161069 0)
(0.123557 0.00166061 0)
(0.122882 0.00170946 0)
(0.122188 0.00175725 0)
(0.121475 0.00180397 0)
(0.120743 0.00184963 0)
(0.119993 0.00189422 0)
(0.119226 0.00193774 0)
(0.118441 0.0019802 0)
(0.11764 0.0020216 0)
(0.116822 0.00206195 0)
(0.115988 0.00210125 0)
(0.115139 0.0021395 0)
(0.114275 0.00217672 0)
(0.113396 0.00221291 0)
(0.112502 0.00224808 0)
(0.111595 0.00228225 0)
(0.110675 0.00231542 0)
(0.109741 0.0023476 0)
(0.108795 0.00237882 0)
(0.107837 0.00240907 0)
(0.106866 0.00243838 0)
(0.105884 0.00246676 0)
(0.104891 0.00249422 0)
(0.103887 0.00252077 0)
(0.102873 0.00254644 0)
(0.101848 0.00257124 0)
(0.100814 0.00259519 0)
(0.0997707 0.00261829 0)
(0.0987182 0.00264058 0)
(0.0976568 0.00266205 0)
(0.0965871 0.00268274 0)
(0.0955092 0.00270266 0)
(0.0944236 0.00272182 0)
(0.0933305 0.00274024 0)
(0.0922301 0.00275795 0)
(0.0911228 0.00277495 0)
(0.0900089 0.00279126 0)
(0.0888886 0.00280691 0)
(0.0877622 0.00282191 0)
(0.08663 0.00283627 0)
(0.0854921 0.00285002 0)
(0.0843489 0.00286316 0)
(0.0832005 0.00287573 0)
(0.0820473 0.00288773 0)
(0.0808893 0.00289917 0)
(0.079727 0.00291009 0)
(0.0785603 0.00292049 0)
(0.0773897 0.00293039 0)
(0.0762152 0.0029398 0)
(0.075037 0.00294875 0)
(0.0738553 0.00295724 0)
(0.0726704 0.0029653 0)
(0.0714823 0.00297293 0)
(0.0702913 0.00298015 0)
(0.0690975 0.00298698 0)
(0.0679011 0.00299343 0)
(0.0667021 0.00299952 0)
(0.0655008 0.00300525 0)
(0.0642973 0.00301065 0)
(0.0630917 0.00301572 0)
(0.0618842 0.00302048 0)
(0.0606748 0.00302495 0)
(0.0594637 0.00302912 0)
(0.058251 0.00303303 0)
(0.0570368 0.00303667 0)
(0.0558212 0.00304006 0)
(0.0546043 0.00304321 0)
(0.0533862 0.00304614 0)
(0.052167 0.00304885 0)
(0.0509468 0.00305135 0)
(0.0497256 0.00305365 0)
(0.0485035 0.00305577 0)
(0.0472806 0.00305772 0)
(0.046057 0.0030595 0)
(0.0448328 0.00306112 0)
(0.0436079 0.00306259 0)
(0.0423824 0.00306393 0)
(0.0411565 0.00306513 0)
(0.0399301 0.00306621 0)
(0.0387033 0.00306718 0)
(0.0374762 0.00306804 0)
(0.0362487 0.0030688 0)
(0.035021 0.00306946 0)
(0.033793 0.00307004 0)
(0.0325648 0.00307055 0)
(0.0313364 0.00307098 0)
(0.0301079 0.00307134 0)
(0.0288792 0.00307165 0)
(0.0276505 0.00307189 0)
(0.0264216 0.00307209 0)
(0.0251927 0.00307225 0)
(0.0239638 0.00307237 0)
(0.0227348 0.00307245 0)
(0.0215057 0.0030725 0)
(0.0202767 0.00307253 0)
(0.0190477 0.00307253 0)
(0.0178187 0.00307252 0)
(0.0165896 0.00307249 0)
(0.0153606 0.00307245 0)
(0.0141317 0.0030724 0)
(0.0129027 0.00307235 0)
(0.0116738 0.00307229 0)
(0.0104449 0.00307223 0)
(0.00921601 0.00307217 0)
(0.00798715 0.00307212 0)
(0.00675832 0.00307207 0)
(0.0055295 0.00307203 0)
(0.00430071 0.00307199 0)
(0.00307192 0.00307197 0)
(0.00184315 0.00307195 0)
(0.000614383 0.00307194 0)
(0.000754814 -0.00528354 0)
(0.00226444 -0.00528351 0)
(0.00377405 -0.00528344 0)
(0.00528364 -0.00528334 0)
(0.0067932 -0.00528319 0)
(0.00830272 -0.00528301 0)
(0.00981218 -0.00528277 0)
(0.0113216 -0.00528247 0)
(0.0128309 -0.00528212 0)
(0.0143401 -0.00528168 0)
(0.0158492 -0.00528117 0)
(0.0173582 -0.00528056 0)
(0.0188669 -0.00527985 0)
(0.0203755 -0.00527901 0)
(0.0218838 -0.00527804 0)
(0.0233919 -0.00527692 0)
(0.0248996 -0.00527564 0)
(0.026407 -0.00527417 0)
(0.0279139 -0.0052725 0)
(0.0294204 -0.00527061 0)
(0.0309263 -0.00526848 0)
(0.0324316 -0.00526608 0)
(0.0339362 -0.00526339 0)
(0.03544 -0.0052604 0)
(0.036943 -0.00525707 0)
(0.0384449 -0.00525338 0)
(0.0399458 -0.0052493 0)
(0.0414455 -0.0052448 0)
(0.0429439 -0.00523987 0)
(0.0444409 -0.00523445 0)
(0.0459363 -0.00522854 0)
(0.0474299 -0.00522209 0)
(0.0489217 -0.00521508 0)
(0.0504114 -0.00520747 0)
(0.0518989 -0.00519923 0)
(0.053384 -0.00519033 0)
(0.0548665 -0.00518072 0)
(0.0563462 -0.00517038 0)
(0.0578229 -0.00515927 0)
(0.0592964 -0.00514736 0)
(0.0607663 -0.0051346 0)
(0.0622325 -0.00512097 0)
(0.0636948 -0.00510641 0)
(0.0651528 -0.00509091 0)
(0.0666063 -0.00507442 0)
(0.068055 -0.00505689 0)
(0.0694985 -0.00503831 0)
(0.0709367 -0.00501862 0)
(0.0723691 -0.00499779 0)
(0.0737954 -0.00497578 0)
(0.0752153 -0.00495256 0)
(0.0766285 -0.00492809 0)
(0.0780345 -0.00490233 0)
(0.079433 -0.00487526 0)
(0.0808237 -0.00484682 0)
(0.082206 -0.004817 0)
(0.0835797 -0.00478576 0)
(0.0849443 -0.00475306 0)
(0.0862993 -0.00471888 0)
(0.0876445 -0.00468318 0)
(0.0889792 -0.00464595 0)
(0.0903031 -0.00460714 0)
(0.0916157 -0.00456674 0)
(0.0929166 -0.00452472 0)
(0.0942052 -0.00448106 0)
(0.0954812 -0.00443574 0)
(0.096744 -0.00438874 0)
(0.0979932 -0.00434004 0)
(0.0992282 -0.00428964 0)
(0.100449 -0.00423751 0)
(0.101654 -0.00418366 0)
(0.102843 -0.00412806 0)
(0.104017 -0.00407072 0)
(0.105174 -0.00401164 0)
(0.106314 -0.00395081 0)
(0.107436 -0.00388824 0)
(0.10854 -0.00382393 0)
(0.109625 -0.00375789 0)
(0.110691 -0.00369013 0)
(0.111738 -0.00362067 0)
(0.112764 -0.00354951 0)
(0.11377 -0.00347669 0)
(0.114755 -0.00340222 0)
(0.115718 -0.00332613 0)
(0.116659 -0.00324845 0)
(0.117578 -0.0031692 0)
(0.118474 -0.00308842 0)
(0.119347 -0.00300615 0)
(0.120195 -0.00292242 0)
(0.12102 -0.00283728 0)
(0.12182 -0.00275077 0)
(0.122595 -0.00266294 0)
(0.123345 -0.00257384 0)
(0.124069 -0.00248351 0)
(0.124767 -0.00239202 0)
(0.125438 -0.00229941 0)
(0.126083 -0.00220575 0)
(0.126701 -0.00211109 0)
(0.127292 -0.0020155 0)
(0.127855 -0.00191904 0)
(0.12839 -0.00182178 0)
(0.128898 -0.00172377 0)
(0.129377 -0.00162509 0)
(0.129828 -0.00152581 0)
(0.13025 -0.001426 0)
(0.130644 -0.00132572 0)
(0.131009 -0.00122505 0)
(0.131345 -0.00112405 0)
(0.131652 -0.0010228 0)
(0.13193 -0.000921375 0)
(0.132179 -0.000819838 0)
(0.132398 -0.000718264 0)
(0.132589 -0.000616723 0)
(0.13275 -0.000515287 0)
(0.132883 -0.000414023 0)
(0.132986 -0.000313002 0)
(0.133061 -0.000212291 0)
(0.133107 -0.000111958 0)
(0.133124 -1.20671e-05 0)
(0.133112 8.73162e-05 0)
(0.133073 0.000186129 0)
(0.133005 0.00028431 0)
(0.132908 0.0003818 0)
(0.132785 0.000478541 0)
(0.132633 0.000574476 0)
(0.132454 0.000669552 0)
(0.132248 0.000763715 0)
(0.132015 0.000856917 0)
(0.131756 0.000949108 0)
(0.131471 0.00104024 0)
(0.131159 0.00113028 0)
(0.130822 0.00121918 0)
(0.13046 0.00130689 0)
(0.130072 0.00139339 0)
(0.12966 0.00147864 0)
(0.129224 0.00156261 0)
(0.128764 0.00164526 0)
(0.128281 0.00172658 0)
(0.127774 0.00180653 0)
(0.127245 0.00188509 0)
(0.126694 0.00196224 0)
(0.12612 0.00203797 0)
(0.125526 0.00211226 0)
(0.12491 0.00218508 0)
(0.124273 0.00225645 0)
(0.123617 0.00232633 0)
(0.12294 0.00239473 0)
(0.122245 0.00246164 0)
(0.12153 0.00252706 0)
(0.120797 0.00259098 0)
(0.120046 0.0026534 0)
(0.119277 0.00271433 0)
(0.118491 0.00277377 0)
(0.117689 0.00283172 0)
(0.11687 0.0028882 0)
(0.116035 0.0029432 0)
(0.115184 0.00299675 0)
(0.114319 0.00304884 0)
(0.113439 0.00309949 0)
(0.112544 0.00314872 0)
(0.111636 0.00319654 0)
(0.110714 0.00324296 0)
(0.109779 0.003288 0)
(0.108832 0.00333169 0)
(0.107872 0.00337402 0)
(0.106901 0.00341504 0)
(0.105918 0.00345474 0)
(0.104923 0.00349317 0)
(0.103919 0.00353033 0)
(0.102903 0.00356624 0)
(0.101878 0.00360094 0)
(0.100843 0.00363444 0)
(0.099798 0.00366676 0)
(0.0987444 0.00369794 0)
(0.0976822 0.00372798 0)
(0.0966115 0.00375692 0)
(0.0955327 0.00378478 0)
(0.0944462 0.00381158 0)
(0.0933522 0.00383735 0)
(0.092251 0.00386211 0)
(0.0911429 0.00388589 0)
(0.0900281 0.00390871 0)
(0.088907 0.00393059 0)
(0.0877799 0.00395156 0)
(0.0866469 0.00397164 0)
(0.0855083 0.00399086 0)
(0.0843643 0.00400925 0)
(0.0832153 0.00402681 0)
(0.0820614 0.00404359 0)
(0.0809028 0.00405959 0)
(0.0797398 0.00407485 0)
(0.0785725 0.00408939 0)
(0.0774013 0.00410322 0)
(0.0762262 0.00411638 0)
(0.0750475 0.00412888 0)
(0.0738653 0.00414075 0)
(0.0726798 0.00415201 0)
(0.0714913 0.00416267 0)
(0.0702998 0.00417276 0)
(0.0691055 0.00418231 0)
(0.0679086 0.00419132 0)
(0.0667092 0.00419982 0)
(0.0655075 0.00420783 0)
(0.0643036 0.00421537 0)
(0.0630976 0.00422245 0)
(0.0618897 0.0042291 0)
(0.06068 0.00423533 0)
(0.0594685 0.00424116 0)
(0.0582555 0.00424661 0)
(0.057041 0.00425169 0)
(0.0558251 0.00425642 0)
(0.054608 0.00426082 0)
(0.0533896 0.0042649 0)
(0.0521702 0.00426867 0)
(0.0509497 0.00427216 0)
(0.0497282 0.00427538 0)
(0.048506 0.00427833 0)
(0.0472829 0.00428104 0)
(0.0460591 0.00428352 0)
(0.0448346 0.00428578 0)
(0.0436096 0.00428783 0)
(0.042384 0.00428968 0)
(0.0411579 0.00429136 0)
(0.0399313 0.00429286 0)
(0.0387044 0.0042942 0)
(0.0374772 0.00429539 0)
(0.0362496 0.00429644 0)
(0.0350217 0.00429737 0)
(0.0337936 0.00429817 0)
(0.0325654 0.00429887 0)
(0.0313369 0.00429946 0)
(0.0301083 0.00429996 0)
(0.0288796 0.00430038 0)
(0.0276508 0.00430072 0)
(0.0264219 0.00430099 0)
(0.0251929 0.00430121 0)
(0.0239639 0.00430136 0)
(0.0227349 0.00430147 0)
(0.0215058 0.00430154 0)
(0.0202767 0.00430157 0)
(0.0190477 0.00430157 0)
(0.0178186 0.00430155 0)
(0.0165896 0.0043015 0)
(0.0153606 0.00430144 0)
(0.0141316 0.00430137 0)
(0.0129027 0.00430129 0)
(0.0116737 0.00430121 0)
(0.0104448 0.00430112 0)
(0.00921594 0.00430104 0)
(0.00798709 0.00430096 0)
(0.00675826 0.00430089 0)
(0.00552946 0.00430083 0)
(0.00430067 0.00430078 0)
(0.0030719 0.00430074 0)
(0.00184313 0.00430071 0)
(0.000614377 0.0043007 0)
(0.000754832 -0.00679318 0)
(0.00226449 -0.00679314 0)
(0.00377414 -0.00679306 0)
(0.00528378 -0.00679293 0)
(0.00679338 -0.00679275 0)
(0.00830296 -0.00679252 0)
(0.00981248 -0.00679223 0)
(0.0113219 -0.00679186 0)
(0.0128313 -0.00679142 0)
(0.0143406 -0.00679088 0)
(0.0158498 -0.00679024 0)
(0.0173589 -0.00678948 0)
(0.0188678 -0.00678858 0)
(0.0203765 -0.00678753 0)
(0.021885 -0.00678631 0)
(0.0233933 -0.0067849 0)
(0.0249012 -0.00678328 0)
(0.0264088 -0.00678143 0)
(0.027916 -0.00677931 0)
(0.0294227 -0.00677692 0)
(0.0309289 -0.00677421 0)
(0.0324345 -0.00677117 0)
(0.0339394 -0.00676775 0)
(0.0354436 -0.00676395 0)
(0.036947 -0.00675971 0)
(0.0384494 -0.00675501 0)
(0.0399507 -0.00674981 0)
(0.0414509 -0.00674408 0)
(0.0429498 -0.00673778 0)
(0.0444474 -0.00673088 0)
(0.0459433 -0.00672333 0)
(0.0474376 -0.00671509 0)
(0.04893 -0.00670613 0)
(0.0504205 -0.00669641 0)
(0.0519087 -0.00668587 0)
(0.0533946 -0.00667448 0)
(0.0548779 -0.00666219 0)
(0.0563585 -0.00664895 0)
(0.0578361 -0.00663473 0)
(0.0593104 -0.00661948 0)
(0.0607814 -0.00660314 0)
(0.0622486 -0.00658567 0)
(0.063712 -0.00656703 0)
(0.0651711 -0.00654716 0)
(0.0666257 -0.00652601 0)
(0.0680756 -0.00650355 0)
(0.0695204 -0.00647972 0)
(0.0709598 -0.00645446 0)
(0.0723936 -0.00642775 0)
(0.0738213 -0.00639951 0)
(0.0752426 -0.00636972 0)
(0.0766572 -0.00633832 0)
(0.0780647 -0.00630527 0)
(0.0794648 -0.00627051 0)
(0.080857 -0.00623401 0)
(0.0822409 -0.00619573 0)
(0.0836162 -0.00615561 0)
(0.0849825 -0.00611362 0)
(0.0863393 -0.00606973 0)
(0.0876862 -0.00602388 0)
(0.0890227 -0.00597605 0)
(0.0903484 -0.0059262 0)
(0.0916628 -0.00587429 0)
(0.0929656 -0.0058203 0)
(0.0942561 -0.0057642 0)
(0.095534 -0.00570597 0)
(0.0967987 -0.00564557 0)
(0.0980499 -0.00558298 0)
(0.0992868 -0.0055182 0)
(0.100509 -0.0054512 0)
(0.101716 -0.00538197 0)
(0.102908 -0.0053105 0)
(0.104084 -0.00523678 0)
(0.105242 -0.00516082 0)
(0.106384 -0.0050826 0)
(0.107508 -0.00500214 0)
(0.108614 -0.00491944 0)
(0.109702 -0.00483452 0)
(0.11077 -0.00474737 0)
(0.111818 -0.00465804 0)
(0.112847 -0.00456652 0)
(0.113854 -0.00447285 0)
(0.114841 -0.00437707 0)
(0.115806 -0.00427919 0)
(0.116749 -0.00417926 0)
(0.11767 -0.00407731 0)
(0.118567 -0.00397339 0)
(0.119442 -0.00386754 0)
(0.120292 -0.00375982 0)
(0.121118 -0.00365028 0)
(0.12192 -0.00353898 0)
(0.122696 -0.00342597 0)
(0.123447 -0.00331131 0)
(0.124173 -0.00319509 0)
(0.124872 -0.00307736 0)
(0.125545 -0.00295819 0)
(0.126191 -0.00283767 0)
(0.12681 -0.00271586 0)
(0.127402 -0.00259285 0)
(0.127966 -0.00246872 0)
(0.128502 -0.00234355 0)
(0.12901 -0.00221743 0)
(0.12949 -0.00209044 0)
(0.129942 -0.00196268 0)
(0.130365 -0.00183422 0)
(0.130759 -0.00170517 0)
(0.131124 -0.00157561 0)
(0.131461 -0.00144564 0)
(0.131768 -0.00131534 0)
(0.132046 -0.00118481 0)
(0.132295 -0.00105414 0)
(0.132514 -0.000923426 0)
(0.132705 -0.000792753 0)
(0.132866 -0.000662215 0)
(0.132999 -0.000531901 0)
(0.133102 -0.0004019 0)
(0.133176 -0.0002723 0)
(0.133221 -0.000143188 0)
(0.133238 -1.46464e-05 0)
(0.133226 0.00011324 0)
(0.133185 0.00024039 0)
(0.133117 0.000366726 0)
(0.13302 0.000492169 0)
(0.132895 0.000616646 0)
(0.132742 0.000740084 0)
(0.132563 0.000862414 0)
(0.132355 0.000983567 0)
(0.132122 0.00110348 0)
(0.131861 0.00122209 0)