/*--------------------------------*- C++ -*----------------------------------*\
| =========                 |                                                 |
| \\      /  F ield         | OpenFOAM: The Open Source CFD Toolbox           |
|  \\    /   O peration     | Version:  v2012                                 |
|   \\  /    A nd           | Website:  www.openfoam.com                      |
|    \\/     M anipulation  |                                                 |
\*---------------------------------------------------------------------------*/
FoamFile
{
    version     2.0;
    format      ascii;
    class       volScalarField;
    location    "8";
    object      W;
}
// * * * * * * * * * * * * * * * * * * * * * * * * * * * * * * * * * * * * * //

dimensions      [0 0 -1 0 0 0 0];


internalField   nonuniform List<scalar> 
65536
(
1.44169e-19
4.37477e-19
7.45891e-19
1.08007e-18
1.45152e-18
1.8729e-18
2.35843e-18
2.92429e-18
3.58908e-18
4.37434e-18
5.30514e-18
6.41072e-18
7.72526e-18
9.28875e-18
1.1148e-17
1.33577e-17
1.59819e-17
1.90953e-17
2.27852e-17
2.71533e-17
3.23179e-17
3.84166e-17
4.56092e-17
5.40808e-17
6.40455e-17
7.5751e-17
8.94827e-17
1.0557e-16
1.2439e-16
1.46377e-16
1.72029e-16
2.01915e-16
2.36683e-16
2.77077e-16
3.23937e-16
3.78221e-16
4.41016e-16
5.1355e-16
5.97211e-16
6.93565e-16
8.04373e-16
9.31614e-16
1.07751e-15
1.24453e-15
1.43547e-15
1.65339e-15
1.90175e-15
2.18436e-15
2.50542e-15
2.86963e-15
3.2821e-15
3.74852e-15
4.27509e-15
4.86862e-15
5.53655e-15
6.28698e-15
7.12872e-15
8.07133e-15
9.12517e-15
1.03014e-14
1.1612e-14
1.30698e-14
1.46887e-14
1.64834e-14
1.84695e-14
2.06636e-14
2.30833e-14
2.57469e-14
2.86739e-14
3.18845e-14
3.53999e-14
3.92418e-14
4.34329e-14
4.79964e-14
5.2956e-14
5.83358e-14
6.41601e-14
7.04535e-14
7.72404e-14
8.45448e-14
9.23903e-14
1.008e-13
1.09795e-13
1.19397e-13
1.29624e-13
1.40494e-13
1.52021e-13
1.64218e-13
1.77094e-13
1.90656e-13
2.04905e-13
2.19841e-13
2.35457e-13
2.51744e-13
2.68684e-13
2.86259e-13
3.0444e-13
3.23196e-13
3.42487e-13
3.62269e-13
3.8249e-13
4.03092e-13
4.24011e-13
4.45175e-13
4.66506e-13
4.87922e-13
5.09331e-13
5.30639e-13
5.51745e-13
5.72544e-13
5.92927e-13
6.12782e-13
6.31994e-13
6.50446e-13
6.68022e-13
6.84605e-13
7.0008e-13
7.14334e-13
7.2726e-13
7.38753e-13
7.48716e-13
7.5706e-13
7.63703e-13
7.68575e-13
7.71614e-13
7.72773e-13
7.72015e-13
7.69319e-13
7.64677e-13
7.58095e-13
7.49597e-13
7.39219e-13
7.27014e-13
7.13049e-13
6.97408e-13
6.80185e-13
6.61491e-13
6.41448e-13
6.20187e-13
5.97852e-13
5.74593e-13
5.50567e-13
5.25937e-13
5.00867e-13
4.75525e-13
4.50078e-13
4.24689e-13
3.99519e-13
3.74724e-13
3.5045e-13
3.26839e-13
3.04019e-13
2.82111e-13
2.61222e-13
2.41447e-13
2.22869e-13
2.05558e-13
1.89568e-13
1.74942e-13
1.6171e-13
1.49887e-13
1.39476e-13
1.30469e-13
1.22844e-13
1.16568e-13
1.116e-13
1.07885e-13
1.05361e-13
1.03956e-13
1.0359e-13
1.04177e-13
1.05622e-13
1.07824e-13
1.10678e-13
1.14074e-13
1.17898e-13
1.22034e-13
1.26366e-13
1.30775e-13
1.35146e-13
1.39366e-13
1.43328e-13
1.46928e-13
1.50073e-13
1.52676e-13
1.54664e-13
1.55974e-13
1.56555e-13
1.56374e-13
1.5541e-13
1.53656e-13
1.51123e-13
1.47835e-13
1.43829e-13
1.39156e-13
1.33879e-13
1.28069e-13
1.21805e-13
1.15172e-13
1.08259e-13
1.01156e-13
9.39503e-14
8.67287e-14
7.95721e-14
7.25552e-14
6.5745e-14
5.92e-14
5.29692e-14
4.70919e-14
4.15978e-14
3.65068e-14
3.18301e-14
2.75704e-14
2.3723e-14
2.02768e-14
1.72153e-14
1.45177e-14
1.21599e-14
1.01157e-14
8.35756e-15
6.85748e-15
5.58773e-15
4.52144e-15
3.63307e-15
2.89877e-15
2.29658e-15
1.80661e-15
1.41108e-15
1.09427e-15
8.42515e-16
6.44015e-16
4.88731e-16
3.68203e-16
2.75384e-16
2.04463e-16
1.50697e-16
1.10256e-16
8.00742e-17
5.77262e-17
4.13079e-17
2.93405e-17
2.06855e-17
1.44752e-17
1.00539e-17
6.93092e-18
4.74219e-18
3.2202e-18
2.17002e-18
1.45085e-18
9.61904e-19
6.31527e-19
4.09153e-19
2.59211e-19
1.56614e-19
8.33894e-20
2.61125e-20
4.92278e-19
1.49378e-18
2.54681e-18
3.68772e-18
4.95572e-18
6.39398e-18
8.05097e-18
9.98184e-18
1.225e-17
1.49288e-17
1.81036e-17
2.18741e-17
2.63566e-17
3.16873e-17
3.80254e-17
4.55572e-17
5.45005e-17
6.51096e-17
7.76812e-17
9.25611e-17
1.10152e-16
1.3092e-16
1.5541e-16
1.8425e-16
2.18166e-16
2.58001e-16
3.04721e-16
3.59445e-16
4.23453e-16
4.98218e-16
5.85425e-16
6.87002e-16
8.0515e-16
9.42377e-16
1.10153e-15
1.28586e-15
1.49903e-15
1.74519e-15
2.02903e-15
2.35584e-15
2.73156e-15
3.16286e-15
3.65723e-15
4.22302e-15
4.86956e-15
5.60724e-15
6.44762e-15
7.4035e-15
8.48905e-15
9.71992e-15
1.11134e-14
1.26883e-14
1.44656e-14
1.64679e-14
1.87201e-14
2.12493e-14
2.40847e-14
2.72583e-14
3.08043e-14
3.47599e-14
3.91648e-14
4.40619e-14
4.94965e-14
5.55174e-14
6.21762e-14
6.95275e-14
7.76288e-14
8.65408e-14
9.6327e-14
1.07054e-13
1.18789e-13
1.31605e-13
1.45575e-13
1.60774e-13
1.77278e-13
1.95165e-13
2.14514e-13
2.35402e-13
2.57908e-13
2.82108e-13
3.08075e-13
3.35883e-13
3.65598e-13
3.97285e-13
4.31002e-13
4.66799e-13
5.04721e-13
5.44802e-13
5.87069e-13
6.31535e-13
6.78203e-13
7.27062e-13
7.78085e-13
8.31232e-13
8.86446e-13
9.43652e-13
1.00276e-12
1.06364e-12
1.12619e-12
1.19023e-12
1.2556e-12
1.3221e-12
1.38952e-12
1.45762e-12
1.52615e-12
1.59483e-12
1.66336e-12
1.73144e-12
1.79875e-12
1.86493e-12
1.92965e-12
1.99253e-12
2.05322e-12
2.11134e-12
2.16651e-12
2.21838e-12
2.26657e-12
2.31074e-12
2.35055e-12
2.38567e-12
2.4158e-12
2.44067e-12
2.46004e-12
2.47367e-12
2.48141e-12
2.4831e-12
2.47866e-12
2.46801e-12
2.45116e-12
2.42814e-12
2.39904e-12
2.36399e-12
2.32317e-12
2.27682e-12
2.2252e-12
2.16863e-12
2.10748e-12
2.04214e-12
1.97303e-12
1.90063e-12
1.8254e-12
1.74786e-12
1.66853e-12
1.58792e-12
1.50658e-12
1.42501e-12
1.34375e-12
1.2633e-12
1.18415e-12
1.10675e-12
1.03154e-12
9.58927e-13
8.89283e-13
8.22936e-13
7.6018e-13
7.01268e-13
6.46407e-13
5.95767e-13
5.49471e-13
5.07604e-13
4.70206e-13
4.3728e-13
4.0879e-13
3.84662e-13
3.64788e-13
3.49028e-13
3.37208e-13
3.29128e-13
3.24557e-13
3.23243e-13
3.24908e-13
3.29255e-13
3.35968e-13
3.44713e-13
3.55147e-13
3.66913e-13
3.79649e-13
3.92988e-13
4.06567e-13
4.20025e-13
4.33011e-13
4.4519e-13
4.56244e-13
4.65881e-13
4.73837e-13
4.79881e-13
4.83821e-13
4.85506e-13
4.84827e-13
4.81723e-13
4.76178e-13
4.68222e-13
4.57933e-13
4.45429e-13
4.30868e-13
4.14443e-13
3.96377e-13
3.76916e-13
3.56323e-13
3.34873e-13
3.12843e-13
2.90507e-13
2.6813e-13
2.45963e-13
2.24236e-13
2.03156e-13
1.82903e-13
1.63627e-13
1.4545e-13
1.28462e-13
1.12724e-13
9.82701e-14
8.51076e-14
7.32215e-14
6.25769e-14
5.31222e-14
4.47927e-14
3.75138e-14
3.12039e-14
2.57778e-14
2.11488e-14
1.72311e-14
1.39416e-14
1.12013e-14
8.93657e-15
7.07948e-15
5.56863e-15
4.3491e-15
3.37242e-15
2.59634e-15
1.9845e-15
1.5059e-15
1.13445e-15
8.48421e-16
6.29887e-16
4.64226e-16
3.39627e-16
2.46646e-16
1.77801e-16
1.27226e-16
9.03637e-17
6.37057e-17
4.45782e-17
3.09613e-17
2.13433e-17
1.46029e-17
9.91595e-18
6.68198e-18
4.46745e-18
2.96184e-18
1.94454e-18
1.25981e-18
7.98125e-19
4.82224e-19
2.56762e-19
8.04039e-20
1.04213e-18
3.16219e-18
5.39111e-18
7.80568e-18
1.04887e-17
1.35313e-17
1.70358e-17
2.11186e-17
2.59135e-17
3.15751e-17
3.82835e-17
4.62486e-17
5.57157e-17
6.69714e-17
8.03511e-17
9.6247e-17
1.15117e-16
1.37497e-16
1.64009e-16
1.95381e-16
2.32459e-16
2.76223e-16
3.27813e-16
3.88549e-16
4.59957e-16
5.43796e-16
6.42099e-16
7.572e-16
8.91784e-16
1.04893e-15
1.23216e-15
1.4455e-15
1.69354e-15
1.98152e-15
2.31539e-15
2.70188e-15
3.14864e-15
3.6643e-15
4.25861e-15
4.94253e-15
5.7284e-15
6.63003e-15
7.66292e-15
8.84433e-15
1.01936e-14
1.1732e-14
1.34835e-14
1.54744e-14
1.77338e-14
2.02938e-14
2.31898e-14
2.64605e-14
3.01485e-14
3.43001e-14
3.89658e-14
4.42007e-14
5.00643e-14
5.6621e-14
6.39403e-14
7.2097e-14
8.11711e-14
9.12483e-14
1.0242e-13
1.14783e-13
1.2844e-13
1.435e-13
1.60077e-13
1.7829e-13
1.98265e-13
2.2013e-13
2.44021e-13
2.70076e-13
2.98437e-13
3.29248e-13
3.62656e-13
3.9881e-13
4.37858e-13
4.79947e-13
5.25222e-13
5.73824e-13
6.2589e-13
6.81549e-13
7.40923e-13
8.04123e-13
8.71246e-13
9.4238e-13
1.01759e-12
1.09693e-12
1.18043e-12
1.26809e-12
1.35991e-12
1.45583e-12
1.55578e-12
1.65966e-12
1.76734e-12
1.87864e-12
1.99336e-12
2.11125e-12
2.23204e-12
2.35541e-12
2.481e-12
2.60841e-12
2.73722e-12
2.86694e-12
2.99708e-12
3.12708e-12
3.25638e-12
3.38437e-12
3.51042e-12
3.63388e-12
3.75407e-12
3.87033e-12
3.98194e-12
4.08823e-12
4.18849e-12
4.28205e-12
4.36825e-12
4.44644e-12
4.51601e-12
4.5764e-12
4.62706e-12
4.66752e-12
4.69737e-12
4.71624e-12
4.72386e-12
4.71999e-12
4.70452e-12
4.67739e-12
4.63864e-12
4.58839e-12
4.52685e-12
4.45433e-12
4.37121e-12
4.27797e-12
4.17516e-12
4.06343e-12
3.94346e-12
3.81604e-12
3.68199e-12
3.54219e-12
3.39757e-12
3.24905e-12
3.09763e-12
2.94428e-12
2.78997e-12
2.63568e-12
2.48237e-12
2.33094e-12
2.18229e-12
2.03725e-12
1.89659e-12
1.76105e-12
1.63128e-12
1.50786e-12
1.39129e-12
1.28201e-12
1.18039e-12
1.08668e-12
1.0011e-12
9.23767e-13
8.54726e-13
7.93957e-13
7.41367e-13
6.968e-13
6.60034e-13
6.30793e-13
6.08744e-13
5.93503e-13
5.8464e-13
5.8168e-13
5.84111e-13
5.91384e-13
6.0292e-13
6.18113e-13
6.36334e-13
6.56941e-13
6.79278e-13
7.02687e-13
7.26514e-13
7.50114e-13
7.7286e-13
7.94155e-13
8.13435e-13
8.30181e-13
8.43927e-13
8.54268e-13
8.60866e-13
8.63455e-13
8.61849e-13
8.55944e-13
8.45718e-13
8.31229e-13
8.1262e-13
7.90104e-13
7.63967e-13
7.34554e-13
7.02263e-13
6.67532e-13
6.30829e-13
5.92641e-13
5.53458e-13
5.13766e-13
4.74034e-13
4.34702e-13
3.96176e-13
3.58821e-13
3.22951e-13
2.88831e-13
2.56671e-13
2.2663e-13
1.98811e-13
1.73273e-13
1.50026e-13
1.29041e-13
1.10255e-13
9.35745e-14
7.88842e-14
6.60506e-14
5.49291e-14
4.5368e-14
3.72137e-14
3.03142e-14
2.45225e-14
1.9699e-14
1.57134e-14
1.24459e-14
9.78826e-15
7.64345e-15
5.92608e-15
4.56171e-15
3.48624e-15
2.64513e-15
1.99244e-15
1.48991e-15
1.10602e-15
8.1505e-16
5.96232e-16
4.32958e-16
3.12083e-16
2.23294e-16
1.58585e-16
1.11793e-16
7.82225e-17
5.43255e-17
3.74476e-17
2.56201e-17
1.73963e-17
1.17223e-17
7.83703e-18
5.19567e-18
3.41105e-18
2.20989e-18
1.40001e-18
8.45873e-19
4.50389e-19
1.41039e-19
2.01039e-18
6.10008e-18
1.03992e-17
1.50556e-17
2.02284e-17
2.6093e-17
3.28461e-17
4.07112e-17
4.99453e-17
6.08457e-17
7.37578e-17
8.90844e-17
1.07296e-16
1.28942e-16
1.54666e-16
1.85218e-16
2.21477e-16
2.64465e-16
3.15377e-16
3.75603e-16
4.46757e-16
5.30716e-16
6.29656e-16
7.46094e-16
8.82939e-16
1.04355e-15
1.23179e-15
1.45212e-15
1.70963e-15
2.01018e-15
2.36045e-15
2.76811e-15
3.24184e-15
3.79158e-15
4.42858e-15
5.16559e-15
6.01706e-15
6.99928e-15
8.13063e-15
9.43178e-15
1.09259e-14
1.2639e-14
1.46001e-14
1.68416e-14
1.93997e-14
2.23142e-14
2.56298e-14
2.93953e-14
3.36652e-14
3.84989e-14
4.39619e-14
5.01262e-14
5.70699e-14
6.48788e-14
7.36456e-14
8.34712e-14
9.44648e-14
1.06744e-13
1.20435e-13
1.35674e-13
1.52605e-13
1.71384e-13
1.92175e-13
2.15151e-13
2.40497e-13
2.68406e-13
2.9908e-13
3.3273e-13
3.69575e-13
4.09844e-13
4.5377e-13
5.01592e-13
5.53555e-13
6.09906e-13
6.70896e-13
7.36773e-13
8.07784e-13
8.84174e-13
9.66179e-13
1.05403e-12
1.14794e-12
1.24811e-12
1.35472e-12
1.46795e-12
1.58792e-12
1.71476e-12
1.84854e-12
1.98931e-12
2.13708e-12
2.29181e-12
2.45343e-12
2.62181e-12
2.79678e-12
2.9781e-12
3.16548e-12
3.35858e-12
3.55699e-12
3.76023e-12
3.96778e-12
4.17902e-12
4.39331e-12
4.60992e-12
4.82805e-12
5.04686e-12
5.26546e-12
5.48289e-12
5.69814e-12
5.91018e-12
6.11792e-12
6.32026e-12
6.51606e-12
6.70418e-12
6.88349e-12
7.05283e-12
7.21108e-12
7.35715e-12
7.48998e-12
7.60856e-12
7.71193e-12
7.79924e-12
7.86967e-12
7.92253e-12
7.95721e-12
7.97324e-12
7.97025e-12
7.94799e-12
7.90637e-12
7.84542e-12
7.76532e-12
7.66638e-12
7.54909e-12
7.41403e-12
7.26197e-12
7.09377e-12
6.91047e-12
6.71317e-12
6.50311e-12
6.28164e-12
6.05015e-12
5.81015e-12
5.56317e-12
5.31078e-12
5.0546e-12
4.79621e-12
4.53722e-12
4.27919e-12
4.02365e-12
3.77206e-12
3.52582e-12
3.28623e-12
3.0545e-12
2.83176e-12
2.61899e-12
2.41707e-12
2.22676e-12
2.0487e-12
1.88338e-12
1.73118e-12
1.59235e-12
1.46704e-12
1.35525e-12
1.2569e-12
1.17177e-12
1.09956e-12
1.03987e-12
9.92221e-13
9.56039e-13
9.30679e-13
9.15426e-13
9.09503e-13
9.12075e-13
9.22256e-13
9.39118e-13
9.61694e-13
9.88989e-13
1.01999e-12
1.05366e-12
1.08899e-12
1.12494e-12
1.16051e-12
1.19474e-12
1.22671e-12
1.25555e-12
1.28046e-12
1.30073e-12
1.31576e-12
1.32502e-12
1.32813e-12
1.3248e-12
1.3149e-12
1.29838e-12
1.27537e-12
1.24608e-12
1.21085e-12
1.17013e-12
1.12446e-12
1.07444e-12
1.02077e-12
9.64143e-13
9.05318e-13
8.45044e-13
7.84062e-13
7.23084e-13
6.62783e-13
6.03772e-13
5.46603e-13
4.91751e-13
4.39614e-13
3.90507e-13
3.44664e-13
3.02241e-13
2.63318e-13
2.27907e-13
1.9596e-13
1.67374e-13
1.42005e-13
1.19673e-13
1.00172e-13
8.32799e-14
6.87639e-14
5.63885e-14
4.59214e-14
3.7138e-14
2.98255e-14
2.37852e-14
1.88349e-14
1.48095e-14
1.15619e-14
8.96228e-15
6.8975e-15
5.27035e-15
3.99806e-15
3.01101e-15
2.25121e-15
1.6709e-15
1.23114e-15
9.00489e-16
6.53812e-16
4.71219e-16
3.37117e-16
2.39397e-16
1.68745e-16
1.18061e-16
8.19866e-17
5.65106e-17
3.86597e-17
2.62487e-17
1.76864e-17
1.18239e-17
7.83852e-18
5.14596e-18
3.3338e-18
2.11199e-18
1.27604e-18
6.79429e-19
2.12764e-19
3.76524e-18
1.14244e-17
1.94749e-17
2.81925e-17
3.78747e-17
4.88487e-17
6.14816e-17
7.61904e-17
9.34544e-17
1.13827e-16
1.37953e-16
1.66582e-16
2.0059e-16
2.41e-16
2.89008e-16
3.4601e-16
4.13638e-16
4.93793e-16
5.88691e-16
7.00912e-16
8.33454e-16
9.89793e-16
1.17396e-15
1.39062e-15
1.64516e-15
1.94378e-15
2.29363e-15
2.70294e-15
3.18112e-15
3.73896e-15
4.3888e-15
5.14471e-15
6.02272e-15
7.04105e-15
8.22038e-15
9.5841e-15
1.11587e-14
1.2974e-14
1.50635e-14
1.74651e-14
2.0221e-14
2.33786e-14
2.69907e-14
3.11161e-14
3.58203e-14
4.11759e-14
4.7263e-14
5.41704e-14
6.19956e-14
7.08459e-14
8.08389e-14
9.2103e-14
1.04778e-13
1.19017e-13
1.34986e-13
1.52862e-13
1.72839e-13
1.95125e-13
2.19941e-13
2.47527e-13
2.78136e-13
3.12037e-13
3.49517e-13
3.90875e-13
4.36428e-13
4.86508e-13
5.41461e-13
6.01645e-13
6.67432e-13
7.39204e-13
8.17351e-13
9.02272e-13
9.94369e-13
1.09405e-12
1.20171e-12
1.31776e-12
1.44259e-12
1.57658e-12
1.7201e-12
1.87348e-12
2.03707e-12
2.21114e-12
2.39595e-12
2.59171e-12
2.79861e-12
3.01676e-12
3.24621e-12
3.48698e-12
3.73899e-12
4.00209e-12
4.27607e-12
4.56063e-12
4.85537e-12
5.1598e-12
5.47335e-12
5.79534e-12
6.12499e-12
6.46143e-12
6.80367e-12
7.15063e-12
7.50113e-12
7.85391e-12
8.20758e-12
8.5607e-12
8.91173e-12
9.25907e-12
9.60103e-12
9.9359e-12
1.02619e-11
1.05773e-11
1.08801e-11
1.11687e-11
1.14412e-11
1.16958e-11
1.19308e-11
1.21445e-11
1.23353e-11
1.25018e-11
1.26426e-11
1.27564e-11
1.28421e-11
1.28988e-11
1.29258e-11
1.29224e-11
1.28882e-11
1.28233e-11
1.27274e-11
1.26011e-11
1.24447e-11
1.22589e-11
1.20448e-11
1.18034e-11
1.15362e-11
1.12447e-11
1.09307e-11
1.05961e-11
1.02429e-11
9.87334e-12
9.48979e-12
9.09461e-12
8.69028e-12
8.27928e-12
7.86414e-12
7.44736e-12
7.03138e-12
6.61862e-12
6.21139e-12
5.81189e-12
5.42219e-12
5.04424e-12
4.67981e-12
4.33049e-12
3.99772e-12
3.68273e-12
3.38654e-12
3.11002e-12
2.85379e-12
2.61833e-12
2.40389e-12
2.21056e-12
2.03826e-12
1.88672e-12
1.75555e-12
1.64418e-12
1.55192e-12
1.47796e-12
1.42137e-12
1.38111e-12
1.35604e-12
1.34495e-12
1.34655e-12
1.35947e-12
1.38231e-12
1.4136e-12
1.45184e-12
1.49552e-12
1.54311e-12
1.59308e-12
1.64394e-12
1.69422e-12
1.74249e-12
1.78743e-12
1.82778e-12
1.8624e-12
1.89026e-12
1.91048e-12
1.92235e-12
1.92531e-12
1.91898e-12
1.90316e-12
1.87785e-12
1.8432e-12
1.79957e-12
1.74746e-12
1.68753e-12
1.62056e-12
1.54746e-12
1.46919e-12
1.38681e-12
1.30139e-12
1.21401e-12
1.12574e-12
1.03759e-12
9.50519e-13
8.65413e-13
7.83048e-13
7.04098e-13
6.29125e-13
5.5857e-13
4.92758e-13
4.31902e-13
3.76107e-13
3.25383e-13
2.79649e-13
2.38754e-13
2.02483e-13
1.70572e-13
1.42722e-13
1.1861e-13
9.79003e-14
8.02531e-14
6.5334e-14
5.28204e-14
4.24066e-14
3.38081e-14
2.67639e-14
2.10381e-14
1.64202e-14
1.27249e-14
9.79084e-15
7.47936e-15
5.67253e-15
4.27116e-15
3.19272e-15
2.36926e-15
1.74538e-15
1.2764e-15
9.26594e-16
6.67719e-16
4.77628e-16
3.39133e-16
2.39017e-16
1.67208e-16
1.16104e-16
8.00192e-17
5.47376e-17
3.71623e-17
2.50384e-17
1.6738e-17
1.10957e-17
7.28404e-18
4.7188e-18
2.98934e-18
1.8061e-18
9.61655e-19
3.01143e-19
6.95189e-18
2.10927e-17
3.59539e-17
5.20437e-17
6.99095e-17
9.01535e-17
1.13451e-16
1.40569e-16
1.72389e-16
2.09929e-16
2.54371e-16
3.07092e-16
3.69702e-16
4.44076e-16
5.32409e-16
6.3726e-16
7.61618e-16
9.08968e-16
1.08337e-15
1.28953e-15
1.53295e-15
1.81998e-15
2.15798e-15
2.55546e-15
3.02226e-15
3.56969e-15
4.21079e-15
4.96052e-15
5.83602e-15
6.85693e-15
8.04564e-15
9.42773e-15
1.10322e-14
1.28922e-14
1.50451e-14
1.75332e-14
2.04043e-14
2.37123e-14
2.75178e-14
3.18887e-14
3.6901e-14
4.26398e-14
4.91999e-14
5.66866e-14
6.52169e-14
7.49204e-14
8.59401e-14
9.84337e-14
1.12575e-13
1.28553e-13
1.46576e-13
1.66872e-13
1.89686e-13
2.15287e-13
2.43964e-13
2.76031e-13
3.11823e-13
3.51702e-13
3.96053e-13
4.45288e-13
4.99842e-13
5.60179e-13
6.26787e-13
7.00177e-13
7.80886e-13
8.69473e-13
9.66519e-13
1.07262e-12
1.1884e-12
1.31448e-12
1.45151e-12
1.60012e-12
1.76099e-12
1.93473e-12
2.12201e-12
2.32345e-12
2.53964e-12
2.77118e-12
3.01861e-12
3.28242e-12
3.56308e-12
3.86098e-12
4.17644e-12
4.50972e-12
4.861e-12
5.23033e-12
5.6177e-12
6.02296e-12
6.44586e-12
6.88601e-12
7.34288e-12
7.81582e-12
8.30402e-12
8.80651e-12
9.32219e-12
9.84976e-12
1.03878e-11
1.09347e-11
1.14888e-11
1.20481e-11
1.26105e-11
1.3174e-11
1.3736e-11
1.42943e-11
1.48463e-11
1.53892e-11
1.59204e-11
1.64371e-11
1.69365e-11
1.74156e-11
1.78717e-11
1.8302e-11
1.87036e-11
1.90739e-11
1.94103e-11
1.97104e-11
1.99718e-11
2.01925e-11
2.03706e-11
2.05042e-11
2.05922e-11
2.06332e-11
2.06265e-11
2.05715e-11
2.0468e-11
2.0316e-11
2.01161e-11
1.98691e-11
1.9576e-11
1.92384e-11
1.8858e-11
1.8437e-11
1.79778e-11
1.74832e-11
1.6956e-11
1.63994e-11
1.5817e-11
1.52121e-11
1.45886e-11
1.39502e-11
1.33007e-11
1.26441e-11
1.19842e-11
1.13247e-11
1.06695e-11
1.0022e-11
9.38572e-12
8.76383e-12
8.15937e-12
7.5751e-12
7.01353e-12
6.47689e-12
5.96712e-12
5.48589e-12
5.03454e-12
4.61413e-12
4.22542e-12
3.86889e-12
3.54474e-12
3.25291e-12
2.99307e-12
2.76468e-12
2.56695e-12
2.39892e-12
2.25942e-12
2.14711e-12
2.0605e-12
1.99797e-12
1.95775e-12
1.93799e-12
1.93672e-12
1.95191e-12
1.98144e-12
2.02316e-12
2.07488e-12
2.13437e-12
2.19943e-12
2.26786e-12
2.3375e-12
2.40627e-12
2.47214e-12
2.53323e-12
2.58776e-12
2.63415e-12
2.67096e-12
2.69699e-12
2.71125e-12
2.71297e-12
2.70166e-12
2.67707e-12
2.63923e-12
2.58838e-12
2.52506e-12
2.44999e-12
2.36412e-12
2.26857e-12
2.16461e-12
2.05363e-12
1.93709e-12
1.8165e-12
1.69337e-12
1.56919e-12
1.44536e-12
1.32323e-12
1.204e-12
1.08874e-12
9.78386e-13
8.73697e-13
7.75272e-13
6.8355e-13
5.98808e-13
5.21178e-13
4.50658e-13
3.87124e-13
3.30353e-13
2.80034e-13
2.35794e-13
1.97208e-13
1.63821e-13
1.35161e-13
1.10753e-13
9.01292e-14
7.28392e-14
5.84575e-14
4.65882e-14
3.68689e-14
2.89719e-14
2.26056e-14
1.75131e-14
1.34711e-14
1.0288e-14
7.80066e-15
5.87209e-15
4.3884e-15
3.25583e-15
2.39799e-15
1.7533e-15
1.27256e-15
9.1687e-16
6.55742e-16
4.6553e-16
3.28053e-16
2.29465e-16
1.59315e-16
1.09788e-16
7.5094e-17
5.09783e-17
3.43445e-17
2.29575e-17
1.52179e-17
9.98967e-18
6.47137e-18
4.09948e-18
2.47678e-18
1.31875e-18
4.12967e-19
1.27043e-17
3.8545e-17
6.56989e-17
9.50924e-17
1.27723e-16
1.64688e-16
2.07217e-16
2.56707e-16
3.14761e-16
3.83232e-16
4.64271e-16
5.60382e-16
6.74487e-16
8.09997e-16
9.70895e-16
1.16183e-15
1.38822e-15
1.65639e-15
1.97369e-15
2.34868e-15
2.79128e-15
3.31301e-15
3.92719e-15
4.6492e-15
5.49682e-15
6.49049e-15
7.65373e-15
9.01353e-15
1.06008e-14
1.24509e-14
1.46041e-14
1.71064e-14
2.001e-14
2.33743e-14
2.72663e-14
3.17619e-14
3.69467e-14
4.29169e-14
4.97807e-14
5.76593e-14
6.66882e-14
7.70187e-14
8.88192e-14
1.02277e-13
1.17598e-13
1.35013e-13
1.54774e-13
1.77158e-13
2.02471e-13
2.31047e-13
2.6325e-13
2.99476e-13
3.40157e-13
3.85758e-13
4.36782e-13
4.93771e-13
5.57306e-13
6.28008e-13
7.06539e-13
7.93604e-13
8.89946e-13
9.9635e-13
1.11364e-12
1.24269e-12
1.38438e-12
1.53966e-12
1.70948e-12
1.89484e-12
2.09675e-12
2.31624e-12
2.55433e-12
2.81208e-12
3.0905e-12
3.39063e-12
3.71346e-12
4.05994e-12
4.431e-12
4.82749e-12
5.25019e-12
5.69981e-12
6.17696e-12
6.68214e-12
7.21571e-12
7.77792e-12
8.36883e-12
8.98836e-12
9.63625e-12
1.0312e-11
1.1015e-11
1.17444e-11
1.2499e-11
1.32774e-11
1.40782e-11
1.48995e-11
1.57391e-11
1.65948e-11
1.7464e-11
1.83438e-11
1.92313e-11
2.0123e-11
2.10155e-11
2.19051e-11
2.27879e-11
2.36598e-11
2.45167e-11
2.53543e-11
2.61681e-11
2.69537e-11
2.77067e-11
2.84227e-11
2.90972e-11
2.97261e-11
3.0305e-11
3.08301e-11
3.12977e-11
3.17041e-11
3.20462e-11
3.2321e-11
3.25262e-11
3.26594e-11
3.27191e-11
3.2704e-11
3.26133e-11
3.24468e-11
3.22047e-11
3.18877e-11
3.14972e-11
3.1035e-11
3.05033e-11
2.9905e-11
2.92435e-11
2.85224e-11
2.77459e-11
2.69187e-11
2.60456e-11
2.51318e-11
2.41829e-11
2.32044e-11
2.22022e-11
2.11822e-11
2.01504e-11
1.91126e-11
1.80747e-11
1.70423e-11
1.60209e-11
1.50159e-11
1.4032e-11
1.30741e-11
1.21463e-11
1.12525e-11
1.03963e-11
9.58053e-12
8.80791e-12
8.08053e-12
7.40009e-12
6.76781e-12
6.1845e-12
5.65054e-12
5.16592e-12
4.73023e-12
4.34273e-12
4.00232e-12
3.70762e-12
3.45695e-12
3.2484e-12
3.07982e-12
2.94885e-12
2.85297e-12
2.78949e-12
2.75559e-12
2.74834e-12
2.76471e-12
2.8016e-12
2.85585e-12
2.9243e-12
3.00374e-12
3.091e-12
3.18297e-12
3.27659e-12
3.3689e-12
3.45711e-12
3.53856e-12
3.6108e-12
3.67164e-12
3.71911e-12
3.75157e-12
3.76768e-12
3.76645e-12
3.74721e-12
3.70968e-12
3.65392e-12
3.58035e-12
3.48972e-12
3.38308e-12
3.26178e-12
3.12738e-12
2.98167e-12
2.82657e-12
2.66412e-12
2.49638e-12
2.32545e-12
2.15335e-12
1.98203e-12
1.81329e-12
1.64879e-12
1.48997e-12
1.33808e-12
1.19415e-12
1.05898e-12
9.33132e-13
8.16972e-13
7.10655e-13
6.14157e-13
5.27289e-13
4.49727e-13
3.81032e-13
3.20677e-13
2.68072e-13
2.22585e-13
1.83562e-13
1.50348e-13
1.22299e-13
9.87975e-14
7.92593e-14
6.31426e-14
4.99514e-14
3.92385e-14
3.06058e-14
2.37034e-14
1.82271e-14
1.39161e-14
1.05486e-14
7.93851e-15
5.93118e-15
4.39937e-15
3.23949e-15
2.36806e-15
1.71841e-15
1.23786e-15
8.85154e-16
6.28291e-16
4.42681e-16
3.096e-16
2.14924e-16
1.48093e-16
1.01283e-16
6.87505e-17
4.63139e-17
3.09563e-17
2.05188e-17
1.34688e-17
8.72482e-18
5.52685e-18
3.33909e-18
1.77786e-18
5.56738e-19
2.30043e-17
6.97934e-17
1.18955e-16
1.72162e-16
2.31216e-16
2.98098e-16
3.75029e-16
4.6453e-16
5.69491e-16
6.93254e-16
8.39697e-16
1.01333e-15
1.21943e-15
1.46412e-15
1.75458e-15
2.09917e-15
2.50765e-15
2.99138e-15
3.56358e-15
4.23961e-15
5.0373e-15
5.97732e-15
7.08355e-15
8.3836e-15
9.9093e-15
1.16973e-14
1.37896e-14
1.62345e-14
1.90874e-14
2.24112e-14
2.6278e-14
3.07698e-14
3.59796e-14
4.2013e-14
4.89894e-14
5.70435e-14
6.63273e-14
7.70116e-14
8.92879e-14
1.03371e-13
1.195e-13
1.37941e-13
1.58993e-13
1.82984e-13
2.10277e-13
2.41276e-13
2.76423e-13
3.16203e-13
3.61149e-13
4.11844e-13
4.68919e-13
5.33065e-13
6.05025e-13
6.85605e-13
7.75673e-13
8.76158e-13
9.88057e-13
1.11243e-12
1.2504e-12
1.40318e-12
1.572e-12
1.75821e-12
1.96318e-12
2.18836e-12
2.43524e-12
2.70536e-12
3.00032e-12
3.32173e-12
3.67123e-12
4.05048e-12
4.46115e-12
4.90487e-12
5.38327e-12
5.89793e-12
6.45037e-12
7.04204e-12
7.6743e-12
8.34836e-12
9.06534e-12
9.82616e-12
1.06316e-11
1.14822e-11
1.23782e-11
1.33198e-11
1.43068e-11
1.53386e-11
1.64145e-11
1.75334e-11
1.86937e-11
1.98936e-11
2.11309e-11
2.2403e-11
2.37069e-11
2.50392e-11
2.63962e-11
2.77736e-11
2.9167e-11
3.05713e-11
3.19814e-11
3.33917e-11
3.47961e-11
3.61886e-11
3.75628e-11
3.8912e-11
4.02294e-11
4.15082e-11
4.27415e-11
4.39221e-11
4.50434e-11
4.60984e-11
4.70805e-11
4.79834e-11
4.88009e-11
4.95273e-11
5.01571e-11
5.06855e-11
5.11082e-11
5.14214e-11
5.16218e-11
5.1707e-11
5.16752e-11
5.15254e-11
5.12572e-11
5.08712e-11
5.03687e-11
4.97518e-11
4.90233e-11
4.81869e-11
4.72471e-11
4.6209e-11
4.50784e-11
4.38618e-11
4.25662e-11
4.11993e-11
3.9769e-11
3.82838e-11
3.67523e-11
3.51835e-11
3.35863e-11
3.197e-11
3.03434e-11
2.87155e-11
2.70951e-11
2.54904e-11
2.39096e-11
2.23603e-11
2.08495e-11
1.93838e-11
1.79692e-11
1.66111e-11
1.53141e-11
1.40823e-11
1.29189e-11
1.18267e-11
1.08075e-11
9.8628e-12
8.99317e-12
8.1987e-12
7.4789e-12
6.83273e-12
6.25864e-12
5.75466e-12
5.31836e-12
4.94698e-12
4.63738e-12
4.38616e-12
4.18966e-12
4.04398e-12
3.94506e-12
3.88865e-12
3.8704e-12
3.88584e-12
3.93045e-12
3.99966e-12
4.08888e-12
4.19356e-12
4.30918e-12
4.43134e-12
4.55574e-12
4.67826e-12
4.79499e-12
4.90227e-12
4.99674e-12
5.07538e-12
5.13553e-12
5.17497e-12
5.19191e-12
5.18505e-12
5.15353e-12
5.09705e-12
5.01573e-12
4.91023e-12
4.78162e-12
4.63141e-12
4.46148e-12
4.27401e-12
4.07148e-12
3.85654e-12
3.63198e-12
3.40064e-12
3.16536e-12
2.9289e-12
2.69389e-12
2.46277e-12
2.23776e-12
2.02082e-12
1.8136e-12
1.61746e-12
1.43344e-12
1.26231e-12
1.10449e-12
9.60189e-13
8.29326e-13
7.11623e-13
6.06613e-13
5.1368e-13
4.3209e-13
3.61026e-13
2.9962e-13
2.46975e-13
2.02194e-13
1.644e-13
1.32751e-13
1.06454e-13
8.47738e-14
6.70378e-14
5.2641e-14
4.10452e-14
3.17775e-14
2.44279e-14
1.86444e-14
1.41285e-14
1.06296e-14
7.93968e-15
5.88764e-15
4.33434e-15
3.16765e-15
2.29815e-15
1.65514e-15
1.18332e-15
8.39782e-16
5.91596e-16
4.13686e-16
2.8714e-16
1.97828e-16
1.35283e-16
9.18203e-17
6.18495e-17
4.13371e-17
2.73978e-17
1.79833e-17
1.16488e-17
7.37884e-18
4.4579e-18
2.37354e-18
7.4327e-19
4.1286e-17
1.25256e-16
2.13474e-16
3.08937e-16
4.1487e-16
5.3482e-16
6.7276e-16
8.332e-16
1.02131e-15
1.24307e-15
1.5054e-15
1.81638e-15
2.18539e-15
2.62342e-15
3.14326e-15
3.75984e-15
4.49055e-15
5.35565e-15
6.37871e-15
7.58711e-15
9.01259e-15
1.06919e-14
1.26676e-14
1.49888e-14
1.7712e-14
2.09023e-14
2.46344e-14
2.89939e-14
3.40789e-14
4.00011e-14
4.68881e-14
5.48849e-14
6.4156e-14
7.48879e-14
8.72913e-14
1.01604e-13
1.18093e-13
1.3706e-13
1.58841e-13
1.83813e-13
2.12396e-13
2.45058e-13
2.82317e-13
3.24749e-13
3.7299e-13
4.27739e-13
4.89766e-13
5.59916e-13
6.39111e-13
7.28356e-13
8.28747e-13
9.41467e-13
1.0678e-12
1.20913e-12
1.36693e-12
1.54279e-12
1.73841e-12
1.95559e-12
2.19624e-12
2.46236e-12
2.75607e-12
3.07959e-12
3.43523e-12
3.82537e-12
4.25248e-12
4.7191e-12
5.22782e-12
5.78126e-12
6.38207e-12
7.03291e-12
7.73638e-12
8.49509e-12
9.31155e-12
1.01882e-11
1.11273e-11
1.21309e-11
1.32011e-11
1.43396e-11
1.55478e-11
1.68269e-11
1.81776e-11
1.96005e-11
2.10957e-11
2.26627e-11
2.43006e-11
2.60082e-11
2.77835e-11
2.96241e-11
3.1527e-11
3.34885e-11
3.55044e-11
3.75698e-11
3.96792e-11
4.18266e-11
4.40053e-11
4.62079e-11
4.84265e-11
5.06528e-11
5.28778e-11
5.50921e-11
5.72859e-11
5.94491e-11
6.15713e-11
6.36416e-11
6.56495e-11
6.75839e-11
6.94339e-11
7.11889e-11
7.28383e-11
7.43718e-11
7.57795e-11
7.7052e-11
7.81805e-11
7.91567e-11
7.99733e-11
8.06237e-11
8.11021e-11
8.14039e-11
8.15254e-11
8.1464e-11
8.12184e-11
8.07883e-11
8.01747e-11
7.93798e-11
7.84069e-11
7.72608e-11
7.59472e-11
7.4473e-11
7.28464e-11
7.10763e-11
6.91729e-11
6.7147e-11
6.50103e-11
6.27751e-11
6.04544e-11
5.80614e-11
5.56099e-11
5.31138e-11
5.05867e-11
4.80427e-11
4.54954e-11
4.29579e-11
4.04432e-11
3.79636e-11
3.55307e-11
3.31555e-11
3.08479e-11
2.86171e-11
2.64715e-11
2.44181e-11
2.24633e-11
2.06122e-11
1.88689e-11
1.72365e-11
1.57173e-11
1.43124e-11
1.30219e-11
1.18453e-11
1.07812e-11
9.82727e-12
8.98075e-12
8.23809e-12
7.59526e-12
7.04769e-12
6.59042e-12
6.21809e-12
5.92504e-12
5.70533e-12
5.55283e-12
5.46121e-12
5.42403e-12
5.43475e-12
5.48679e-12
5.57354e-12
5.68845e-12
5.82501e-12
5.97686e-12
6.13778e-12
6.30176e-12
6.46307e-12
6.6163e-12
6.75641e-12
6.8788e-12
6.97934e-12
7.05447e-12
7.10119e-12
7.11713e-12
7.10057e-12
7.05047e-12
6.96645e-12
6.84882e-12
6.69853e-12
6.51713e-12
6.30675e-12
6.07001e-12
5.80994e-12
5.52995e-12
5.23367e-12
4.92491e-12
4.60754e-12
4.2854e-12
3.96223e-12
3.64157e-12
3.32671e-12
3.0206e-12
2.72584e-12
2.44465e-12
2.17879e-12
1.92965e-12
1.69819e-12
1.48495e-12
1.29015e-12
1.11366e-12
9.5505e-13
8.13661e-13
6.88631e-13
5.78945e-13
4.83479e-13
4.01044e-13
3.30417e-13
2.7038e-13
2.1974e-13
1.7736e-13
1.42166e-13
1.13166e-13
8.94546e-14
7.02169e-14
5.47294e-14
4.23571e-14
3.25496e-14
2.48353e-14
1.88141e-14
1.41507e-14
1.05667e-14
7.83364e-15
5.76549e-15
4.21259e-15
3.05557e-15
2.20018e-15
1.57267e-15
1.1159e-15
7.85979e-16
5.49526e-16
3.81373e-16
2.62717e-16
1.79635e-16
1.21911e-16
8.21108e-17
5.48744e-17
3.63678e-17
2.38697e-17
1.54611e-17
9.7934e-18
5.91651e-18
3.15011e-18
9.86451e-19
7.34465e-17
2.22821e-16
3.79738e-16
5.49518e-16
7.37886e-16
9.51138e-16
1.19632e-15
1.48144e-15
1.81566e-15
2.20957e-15
2.67547e-15
3.22763e-15
3.88272e-15
4.66016e-15
5.5826e-15
6.67647e-15
7.97253e-15
9.50663e-15
1.13204e-14
1.34623e-14
1.59883e-14
1.89633e-14
2.24625e-14
2.65724e-14
3.13928e-14
3.70383e-14
4.36405e-14
5.13502e-14
6.03397e-14
7.08057e-14
8.29722e-14
9.70938e-14
1.13459e-13
1.32395e-13
1.54271e-13
1.79502e-13
2.08558e-13
2.41962e-13
2.80302e-13
3.24235e-13
3.74492e-13
4.31887e-13
4.97322e-13
5.71793e-13
6.56401e-13
7.52358e-13
8.60993e-13
9.8376e-13
1.12225e-12
1.27818e-12
1.45344e-12
1.65006e-12
1.87021e-12
2.11625e-12
2.39071e-12
2.69626e-12
3.03578e-12
3.4123e-12
3.82902e-12
4.28931e-12
4.79669e-12
5.35485e-12
5.96759e-12
6.63887e-12
7.37271e-12
8.17327e-12
9.04472e-12
9.99128e-12
1.10172e-11
1.21267e-11
1.33238e-11
1.46126e-11
1.59969e-11
1.74804e-11
1.90664e-11
2.07581e-11
2.25582e-11
2.44689e-11
2.6492e-11
2.86289e-11
3.08802e-11
3.32459e-11
3.57253e-11
3.8317e-11
4.10188e-11
4.38276e-11
4.67392e-11
4.97489e-11
5.28506e-11
5.60377e-11
5.93021e-11
6.26351e-11
6.6027e-11
6.94668e-11
7.2943e-11
7.64429e-11
7.99531e-11
8.34594e-11
8.6947e-11
9.04002e-11
9.3803e-11
9.71389e-11
1.00391e-10
1.03543e-10
1.06576e-10
1.09475e-10
1.12223e-10
1.14802e-10
1.17198e-10
1.19395e-10
1.21378e-10
1.23133e-10
1.24649e-10
1.25914e-10
1.26917e-10
1.27651e-10
1.28109e-10
1.28284e-10
1.28174e-10
1.27776e-10
1.27091e-10
1.2612e-10
1.24867e-10
1.23337e-10
1.21539e-10
1.1948e-10
1.17173e-10
1.14629e-10
1.11862e-10
1.08889e-10
1.05726e-10
1.02391e-10
9.89036e-11
9.52829e-11
9.15497e-11
8.7725e-11
8.38299e-11
7.98858e-11
7.59137e-11
7.19346e-11
6.79687e-11
6.40357e-11
6.01545e-11
5.63427e-11
5.26173e-11
4.89934e-11