/*--------------------------------*- C++ -*----------------------------------*\
| =========                 |                                                 |
| \\      /  F ield         | OpenFOAM: The Open Source CFD Toolbox           |
|  \\    /   O peration     | Version:  v2012                                 |
|   \\  /    A nd           | Website:  www.openfoam.com                      |
|    \\/     M anipulation  |                                                 |
\*---------------------------------------------------------------------------*/
FoamFile
{
    version     2.0;
    format      ascii;
    class       volVectorField;
    location    "7.7";
    object      Psi;
}
// * * * * * * * * * * * * * * * * * * * * * * * * * * * * * * * * * * * * * //

dimensions      [0 2 -1 0 0 0 0];


internalField   nonuniform List<vector> 
65536
(
(0 0 9.26056e-06)
(0 0 2.77816e-05)
(0 0 4.63023e-05)
(0 0 6.48226e-05)
(0 0 8.33422e-05)
(0 0 0.000101861)
(0 0 0.000120379)
(0 0 0.000138895)
(0 0 0.00015741)
(0 0 0.000175923)
(0 0 0.000194434)
(0 0 0.000212942)
(0 0 0.000231447)
(0 0 0.000249949)
(0 0 0.000268447)
(0 0 0.00028694)
(0 0 0.000305428)
(0 0 0.000323911)
(0 0 0.000342387)
(0 0 0.000360855)
(0 0 0.000379316)
(0 0 0.000397767)
(0 0 0.000416209)
(0 0 0.000434639)
(0 0 0.000453056)
(0 0 0.00047146)
(0 0 0.000489849)
(0 0 0.000508222)
(0 0 0.000526576)
(0 0 0.000544911)
(0 0 0.000563224)
(0 0 0.000581514)
(0 0 0.000599779)
(0 0 0.000618016)
(0 0 0.000636224)
(0 0 0.0006544)
(0 0 0.000672542)
(0 0 0.000690647)
(0 0 0.000708712)
(0 0 0.000726735)
(0 0 0.000744713)
(0 0 0.000762643)
(0 0 0.000780521)
(0 0 0.000798345)
(0 0 0.00081611)
(0 0 0.000833814)
(0 0 0.000851453)
(0 0 0.000869022)
(0 0 0.000886519)
(0 0 0.000903938)
(0 0 0.000921276)
(0 0 0.000938528)
(0 0 0.000955691)
(0 0 0.000972758)
(0 0 0.000989727)
(0 0 0.00100659)
(0 0 0.00102335)
(0 0 0.00103999)
(0 0 0.00105651)
(0 0 0.00107291)
(0 0 0.00108918)
(0 0 0.00110531)
(0 0 0.0011213)
(0 0 0.00113715)
(0 0 0.00115285)
(0 0 0.00116838)
(0 0 0.00118376)
(0 0 0.00119897)
(0 0 0.001214)
(0 0 0.00122885)
(0 0 0.00124351)
(0 0 0.00125798)
(0 0 0.00127225)
(0 0 0.00128632)
(0 0 0.00130018)
(0 0 0.00131382)
(0 0 0.00132723)
(0 0 0.00134042)
(0 0 0.00135337)
(0 0 0.00136609)
(0 0 0.00137855)
(0 0 0.00139077)
(0 0 0.00140272)
(0 0 0.00141442)
(0 0 0.00142584)
(0 0 0.00143699)
(0 0 0.00144786)
(0 0 0.00145845)
(0 0 0.00146874)
(0 0 0.00147874)
(0 0 0.00148844)
(0 0 0.00149784)
(0 0 0.00150693)
(0 0 0.00151571)
(0 0 0.00152417)
(0 0 0.00153231)
(0 0 0.00154012)
(0 0 0.00154761)
(0 0 0.00155476)
(0 0 0.00156159)
(0 0 0.00156807)
(0 0 0.00157422)
(0 0 0.00158002)
(0 0 0.00158548)
(0 0 0.00159059)
(0 0 0.00159536)
(0 0 0.00159978)
(0 0 0.00160384)
(0 0 0.00160756)
(0 0 0.00161092)
(0 0 0.00161394)
(0 0 0.0016166)
(0 0 0.0016189)
(0 0 0.00162086)
(0 0 0.00162246)
(0 0 0.00162371)
(0 0 0.00162462)
(0 0 0.00162517)
(0 0 0.00162538)
(0 0 0.00162524)
(0 0 0.00162475)
(0 0 0.00162393)
(0 0 0.00162277)
(0 0 0.00162127)
(0 0 0.00161943)
(0 0 0.00161726)
(0 0 0.00161477)
(0 0 0.00161195)
(0 0 0.00160881)
(0 0 0.00160535)
(0 0 0.00160158)
(0 0 0.0015975)
(0 0 0.00159311)
(0 0 0.00158842)
(0 0 0.00158343)
(0 0 0.00157814)
(0 0 0.00157257)
(0 0 0.00156671)
(0 0 0.00156058)
(0 0 0.00155416)
(0 0 0.00154748)
(0 0 0.00154053)
(0 0 0.00153332)
(0 0 0.00152586)
(0 0 0.00151814)
(0 0 0.00151018)
(0 0 0.00150198)
(0 0 0.00149354)
(0 0 0.00148488)
(0 0 0.00147598)
(0 0 0.00146687)
(0 0 0.00145754)
(0 0 0.00144801)
(0 0 0.00143827)
(0 0 0.00142832)
(0 0 0.00141819)
(0 0 0.00140786)
(0 0 0.00139735)
(0 0 0.00138666)
(0 0 0.0013758)
(0 0 0.00136477)
(0 0 0.00135357)
(0 0 0.00134221)
(0 0 0.0013307)
(0 0 0.00131903)
(0 0 0.00130722)
(0 0 0.00129527)
(0 0 0.00128318)
(0 0 0.00127096)
(0 0 0.00125861)
(0 0 0.00124613)
(0 0 0.00123354)
(0 0 0.00122083)
(0 0 0.001208)
(0 0 0.00119507)
(0 0 0.00118204)
(0 0 0.0011689)
(0 0 0.00115567)
(0 0 0.00114234)
(0 0 0.00112893)
(0 0 0.00111543)
(0 0 0.00110185)
(0 0 0.00108818)
(0 0 0.00107444)
(0 0 0.00106063)
(0 0 0.00104675)
(0 0 0.0010328)
(0 0 0.00101878)
(0 0 0.00100471)
(0 0 0.000990575)
(0 0 0.000976384)
(0 0 0.00096214)
(0 0 0.000947845)
(0 0 0.000933501)
(0 0 0.00091911)
(0 0 0.000904676)
(0 0 0.000890199)
(0 0 0.000875683)
(0 0 0.000861129)
(0 0 0.000846538)
(0 0 0.000831914)
(0 0 0.000817258)
(0 0 0.000802571)
(0 0 0.000787856)
(0 0 0.000773113)
(0 0 0.000758345)
(0 0 0.000743553)
(0 0 0.000728739)
(0 0 0.000713903)
(0 0 0.000699047)
(0 0 0.000684173)
(0 0 0.000669281)
(0 0 0.000654374)
(0 0 0.000639451)
(0 0 0.000624514)
(0 0 0.000609564)
(0 0 0.000594601)
(0 0 0.000579628)
(0 0 0.000564644)
(0 0 0.000549651)
(0 0 0.000534649)
(0 0 0.000519639)
(0 0 0.000504622)
(0 0 0.000489598)
(0 0 0.000474568)
(0 0 0.000459533)
(0 0 0.000444492)
(0 0 0.000429447)
(0 0 0.000414398)
(0 0 0.000399346)
(0 0 0.00038429)
(0 0 0.000369232)
(0 0 0.000354171)
(0 0 0.000339108)
(0 0 0.000324043)
(0 0 0.000308977)
(0 0 0.000293909)
(0 0 0.00027884)
(0 0 0.00026377)
(0 0 0.000248699)
(0 0 0.000233628)
(0 0 0.000218556)
(0 0 0.000203484)
(0 0 0.000188411)
(0 0 0.000173339)
(0 0 0.000158266)
(0 0 0.000143193)
(0 0 0.00012812)
(0 0 0.000113047)
(0 0 9.79737e-05)
(0 0 8.29008e-05)
(0 0 6.78278e-05)
(0 0 5.27549e-05)
(0 0 3.76821e-05)
(0 0 2.26092e-05)
(0 0 7.53641e-06)
(0 0 2.77817e-05)
(0 0 8.33448e-05)
(0 0 0.000138907)
(0 0 0.000194468)
(0 0 0.000250027)
(0 0 0.000305584)
(0 0 0.000361137)
(0 0 0.000416687)
(0 0 0.000472232)
(0 0 0.000527771)
(0 0 0.000583304)
(0 0 0.000638829)
(0 0 0.000694345)
(0 0 0.00074985)
(0 0 0.000805344)
(0 0 0.000860825)
(0 0 0.00091629)
(0 0 0.000971738)
(0 0 0.00102717)
(0 0 0.00108257)
(0 0 0.00113796)
(0 0 0.00119331)
(0 0 0.00124864)
(0 0 0.00130393)
(0 0 0.00135918)
(0 0 0.0014144)
(0 0 0.00146956)
(0 0 0.00152468)
(0 0 0.00157975)
(0 0 0.00163475)
(0 0 0.00168969)
(0 0 0.00174457)
(0 0 0.00179936)
(0 0 0.00185408)
(0 0 0.0019087)
(0 0 0.00196323)
(0 0 0.00201766)
(0 0 0.00207198)
(0 0 0.00212618)
(0 0 0.00218025)
(0 0 0.00223419)
(0 0 0.00228798)
(0 0 0.00234162)
(0 0 0.00239509)
(0 0 0.00244839)
(0 0 0.00250151)
(0 0 0.00255443)
(0 0 0.00260714)
(0 0 0.00265963)
(0 0 0.00271189)
(0 0 0.00276391)
(0 0 0.00281567)
(0 0 0.00286716)
(0 0 0.00291837)
(0 0 0.00296928)
(0 0 0.00301988)
(0 0 0.00307015)
(0 0 0.00312008)
(0 0 0.00316965)
(0 0 0.00321885)
(0 0 0.00326767)
(0 0 0.00331607)
(0 0 0.00336406)
(0 0 0.0034116)
(0 0 0.0034587)
(0 0 0.00350532)
(0 0 0.00355145)
(0 0 0.00359707)
(0 0 0.00364217)
(0 0 0.00368672)
(0 0 0.00373072)
(0 0 0.00377414)
(0 0 0.00381696)
(0 0 0.00385917)
(0 0 0.00390074)
(0 0 0.00394166)
(0 0 0.00398192)
(0 0 0.00402149)
(0 0 0.00406036)
(0 0 0.0040985)
(0 0 0.0041359)
(0 0 0.00417255)
(0 0 0.00420843)
(0 0 0.00424351)
(0 0 0.00427779)
(0 0 0.00431124)
(0 0 0.00434386)
(0 0 0.00437562)
(0 0 0.00440651)
(0 0 0.00443652)
(0 0 0.00446563)
(0 0 0.00449383)
(0 0 0.0045211)
(0 0 0.00454743)
(0 0 0.00457282)
(0 0 0.00459724)
(0 0 0.00462068)
(0 0 0.00464315)
(0 0 0.00466462)
(0 0 0.00468509)
(0 0 0.00470455)
(0 0 0.00472299)
(0 0 0.0047404)
(0 0 0.00475678)
(0 0 0.00477212)
(0 0 0.00478642)
(0 0 0.00479968)
(0 0 0.00481188)
(0 0 0.00482303)
(0 0 0.00483312)
(0 0 0.00484216)
(0 0 0.00485013)
(0 0 0.00485705)
(0 0 0.00486292)
(0 0 0.00486773)
(0 0 0.00487148)
(0 0 0.00487419)
(0 0 0.00487585)
(0 0 0.00487647)
(0 0 0.00487605)
(0 0 0.0048746)
(0 0 0.00487212)
(0 0 0.00486863)
(0 0 0.00486412)
(0 0 0.00485862)
(0 0 0.00485212)
(0 0 0.00484463)
(0 0 0.00483617)
(0 0 0.00482675)
(0 0 0.00481637)
(0 0 0.00480505)
(0 0 0.00479279)
(0 0 0.00477962)
(0 0 0.00476554)
(0 0 0.00475057)
(0 0 0.00473471)
(0 0 0.00471799)
(0 0 0.00470042)
(0 0 0.004682)
(0 0 0.00466276)
(0 0 0.0046427)
(0 0 0.00462185)
(0 0 0.00460022)
(0 0 0.00457782)
(0 0 0.00455467)
(0 0 0.00453078)
(0 0 0.00450617)
(0 0 0.00448086)
(0 0 0.00445485)
(0 0 0.00442817)
(0 0 0.00440083)
(0 0 0.00437284)
(0 0 0.00434422)
(0 0 0.00431499)
(0 0 0.00428516)
(0 0 0.00425475)
(0 0 0.00422377)
(0 0 0.00419223)
(0 0 0.00416016)
(0 0 0.00412757)
(0 0 0.00409446)
(0 0 0.00406086)
(0 0 0.00402678)
(0 0 0.00399224)
(0 0 0.00395724)
(0 0 0.0039218)
(0 0 0.00388594)
(0 0 0.00384967)
(0 0 0.003813)
(0 0 0.00377594)
(0 0 0.00373851)
(0 0 0.00370072)
(0 0 0.00366259)
(0 0 0.00362411)
(0 0 0.00358532)
(0 0 0.00354621)
(0 0 0.0035068)
(0 0 0.0034671)
(0 0 0.00342712)
(0 0 0.00338687)
(0 0 0.00334637)
(0 0 0.00330561)
(0 0 0.00326462)
(0 0 0.0032234)
(0 0 0.00318196)
(0 0 0.00314031)
(0 0 0.00309846)
(0 0 0.00305641)
(0 0 0.00301418)
(0 0 0.00297178)
(0 0 0.0029292)
(0 0 0.00288647)
(0 0 0.00284358)
(0 0 0.00280055)
(0 0 0.00275737)
(0 0 0.00271407)
(0 0 0.00267064)
(0 0 0.00262708)
(0 0 0.00258342)
(0 0 0.00253965)
(0 0 0.00249577)
(0 0 0.0024518)
(0 0 0.00240774)
(0 0 0.00236359)
(0 0 0.00231936)
(0 0 0.00227506)
(0 0 0.00223068)
(0 0 0.00218624)
(0 0 0.00214173)
(0 0 0.00209716)
(0 0 0.00205254)
(0 0 0.00200786)
(0 0 0.00196313)
(0 0 0.00191836)
(0 0 0.00187355)
(0 0 0.0018287)
(0 0 0.00178381)
(0 0 0.00173889)
(0 0 0.00169394)
(0 0 0.00164896)
(0 0 0.00160395)
(0 0 0.00155892)
(0 0 0.00151387)
(0 0 0.0014688)
(0 0 0.00142371)
(0 0 0.0013786)
(0 0 0.00133348)
(0 0 0.00128835)
(0 0 0.0012432)
(0 0 0.00119804)
(0 0 0.00115287)
(0 0 0.0011077)
(0 0 0.00106251)
(0 0 0.00101733)
(0 0 0.000972131)
(0 0 0.000926931)
(0 0 0.000881727)
(0 0 0.00083652)
(0 0 0.00079131)
(0 0 0.000746098)
(0 0 0.000700884)
(0 0 0.000655668)
(0 0 0.000610452)
(0 0 0.000565234)
(0 0 0.000520016)
(0 0 0.000474797)
(0 0 0.000429578)
(0 0 0.000384359)
(0 0 0.00033914)
(0 0 0.000293921)
(0 0 0.000248702)
(0 0 0.000203483)
(0 0 0.000158265)
(0 0 0.000113046)
(0 0 6.78277e-05)
(0 0 2.26092e-05)
(0 0 4.63031e-05)
(0 0 0.000138909)
(0 0 0.000231513)
(0 0 0.000324116)
(0 0 0.000416715)
(0 0 0.00050931)
(0 0 0.0006019)
(0 0 0.000694483)
(0 0 0.000787059)
(0 0 0.000879626)
(0 0 0.000972181)
(0 0 0.00106472)
(0 0 0.00115725)
(0 0 0.00124976)
(0 0 0.00134226)
(0 0 0.00143473)
(0 0 0.00152717)
(0 0 0.00161959)
(0 0 0.00171197)
(0 0 0.00180432)
(0 0 0.00189662)
(0 0 0.00198889)
(0 0 0.0020811)
(0 0 0.00217325)
(0 0 0.00226535)
(0 0 0.00235738)
(0 0 0.00244933)
(0 0 0.0025412)
(0 0 0.00263298)
(0 0 0.00272466)
(0 0 0.00281624)
(0 0 0.0029077)
(0 0 0.00299903)
(0 0 0.00309023)
(0 0 0.00318128)
(0 0 0.00327217)
(0 0 0.00336289)
(0 0 0.00345343)
(0 0 0.00354377)
(0 0 0.0036339)
(0 0 0.0037238)
(0 0 0.00381347)
(0 0 0.00390288)
(0 0 0.00399201)
(0 0 0.00408086)
(0 0 0.00416939)
(0 0 0.00425761)
(0 0 0.00434547)
(0 0 0.00443298)
(0 0 0.00452009)
(0 0 0.0046068)
(0 0 0.00469309)
(0 0 0.00477892)
(0 0 0.00486428)
(0 0 0.00494915)
(0 0 0.0050335)
(0 0 0.0051173)
(0 0 0.00520053)
(0 0 0.00528317)
(0 0 0.00536519)
(0 0 0.00544656)
(0 0 0.00552725)
(0 0 0.00560725)
(0 0 0.00568651)
(0 0 0.00576502)
(0 0 0.00584274)
(0 0 0.00591964)
(0 0 0.0059957)
(0 0 0.00607088)
(0 0 0.00614516)
(0 0 0.00621851)
(0 0 0.00629089)
(0 0 0.00636228)
(0 0 0.00643264)
(0 0 0.00650196)
(0 0 0.00657018)
(0 0 0.0066373)
(0 0 0.00670326)
(0 0 0.00676806)
(0 0 0.00683165)
(0 0 0.00689401)
(0 0 0.00695511)
(0 0 0.00701492)
(0 0 0.00707342)
(0 0 0.00713056)
(0 0 0.00718634)
(0 0 0.00724072)
(0 0 0.00729367)
(0 0 0.00734517)
(0 0 0.0073952)
(0 0 0.00744373)
(0 0 0.00749074)
(0 0 0.00753621)
(0 0 0.00758011)
(0 0 0.00762243)
(0 0 0.00766314)
(0 0 0.00770223)
(0 0 0.00773968)
(0 0 0.00777548)
(0 0 0.0078096)
(0 0 0.00784204)
(0 0 0.00787278)
(0 0 0.00790181)
(0 0 0.00792912)
(0 0 0.0079547)
(0 0 0.00797854)
(0 0 0.00800063)
(0 0 0.00802097)
(0 0 0.00803955)
(0 0 0.00805637)
(0 0 0.00807143)
(0 0 0.00808473)
(0 0 0.00809626)
(0 0 0.00810604)
(0 0 0.00811405)
(0 0 0.0081203)
(0 0 0.00812481)
(0 0 0.00812757)
(0 0 0.0081286)
(0 0 0.00812789)
(0 0 0.00812547)
(0 0 0.00812133)
(0 0 0.0081155)
(0 0 0.00810799)
(0 0 0.0080988)
(0 0 0.00808795)
(0 0 0.00807547)
(0 0 0.00806136)
(0 0 0.00804564)
(0 0 0.00802833)
(0 0 0.00800944)
(0 0 0.00798901)
(0 0 0.00796704)
(0 0 0.00794356)
(0 0 0.00791859)
(0 0 0.00789215)
(0 0 0.00786427)
(0 0 0.00783496)
(0 0 0.00780425)
(0 0 0.00777216)
(0 0 0.00773873)
(0 0 0.00770396)
(0 0 0.00766789)
(0 0 0.00763054)
(0 0 0.00759194)
(0 0 0.00755211)
(0 0 0.00751107)
(0 0 0.00746886)
(0 0 0.0074255)
(0 0 0.00738101)
(0 0 0.00733542)
(0 0 0.00728876)
(0 0 0.00724105)
(0 0 0.00719232)
(0 0 0.00714258)
(0 0 0.00709188)
(0 0 0.00704023)
(0 0 0.00698766)
(0 0 0.00693418)
(0 0 0.00687984)
(0 0 0.00682465)
(0 0 0.00676863)
(0 0 0.00671182)
(0 0 0.00665423)
(0 0 0.00659588)
(0 0 0.00653681)
(0 0 0.00647702)
(0 0 0.00641655)
(0 0 0.00635542)
(0 0 0.00629365)
(0 0 0.00623125)
(0 0 0.00616826)
(0 0 0.00610468)
(0 0 0.00604055)
(0 0 0.00597588)
(0 0 0.00591068)
(0 0 0.00584499)
(0 0 0.00577881)
(0 0 0.00571217)
(0 0 0.00564507)
(0 0 0.00557755)
(0 0 0.00550962)
(0 0 0.00544129)
(0 0 0.00537258)
(0 0 0.0053035)
(0 0 0.00523407)
(0 0 0.00516431)
(0 0 0.00509423)
(0 0 0.00502383)
(0 0 0.00495315)
(0 0 0.00488218)
(0 0 0.00481095)
(0 0 0.00473946)
(0 0 0.00466773)
(0 0 0.00459577)
(0 0 0.00452359)
(0 0 0.00445119)
(0 0 0.0043786)
(0 0 0.00430582)
(0 0 0.00423286)
(0 0 0.00415973)
(0 0 0.00408644)
(0 0 0.004013)
(0 0 0.00393941)
(0 0 0.00386569)
(0 0 0.00379184)
(0 0 0.00371788)
(0 0 0.0036438)
(0 0 0.00356961)
(0 0 0.00349533)
(0 0 0.00342095)
(0 0 0.00334649)
(0 0 0.00327194)
(0 0 0.00319732)
(0 0 0.00312263)
(0 0 0.00304788)
(0 0 0.00297306)
(0 0 0.00289819)
(0 0 0.00282327)
(0 0 0.0027483)
(0 0 0.00267328)
(0 0 0.00259823)
(0 0 0.00252314)
(0 0 0.00244802)
(0 0 0.00237287)
(0 0 0.00229769)
(0 0 0.00222248)
(0 0 0.00214726)
(0 0 0.00207201)
(0 0 0.00199674)
(0 0 0.00192146)
(0 0 0.00184617)
(0 0 0.00177086)
(0 0 0.00169555)
(0 0 0.00162022)
(0 0 0.00154489)
(0 0 0.00146955)
(0 0 0.0013942)
(0 0 0.00131885)
(0 0 0.0012435)
(0 0 0.00116814)
(0 0 0.00109278)
(0 0 0.00101742)
(0 0 0.000942057)
(0 0 0.000866693)
(0 0 0.000791329)
(0 0 0.000715964)
(0 0 0.000640598)
(0 0 0.000565233)
(0 0 0.000489868)
(0 0 0.000414503)
(0 0 0.000339139)
(0 0 0.000263774)
(0 0 0.00018841)
(0 0 0.000113046)
(0 0 3.7682e-05)
(0 0 6.4825e-05)
(0 0 0.000194474)
(0 0 0.000324122)
(0 0 0.000453767)
(0 0 0.000583407)
(0 0 0.000713042)
(0 0 0.000842669)
(0 0 0.000972288)
(0 0 0.0011019)
(0 0 0.00123149)
(0 0 0.00136107)
(0 0 0.00149063)
(0 0 0.00162018)
(0 0 0.0017497)
(0 0 0.00187919)
(0 0 0.00200865)
(0 0 0.00213808)
(0 0 0.00226746)
(0 0 0.00239681)
(0 0 0.0025261)
(0 0 0.00265534)
(0 0 0.00278451)
(0 0 0.00291362)
(0 0 0.00304264)
(0 0 0.00317158)
(0 0 0.00330043)
(0 0 0.00342917)
(0 0 0.0035578)
(0 0 0.00368631)
(0 0 0.00381467)
(0 0 0.00394289)
(0 0 0.00407095)
(0 0 0.00419883)
(0 0 0.00432652)
(0 0 0.00445401)
(0 0 0.00458128)
(0 0 0.0047083)
(0 0 0.00483508)
(0 0 0.00496157)
(0 0 0.00508777)
(0 0 0.00521366)
(0 0 0.00533921)
(0 0 0.00546441)
(0 0 0.00558922)
(0 0 0.00571363)
(0 0 0.00583761)
(0 0 0.00596113)
(0 0 0.00608417)
(0 0 0.00620671)
(0 0 0.0063287)
(0 0 0.00645013)
(0 0 0.00657095)
(0 0 0.00669115)
(0 0 0.00681069)
(0 0 0.00692954)
(0 0 0.00704766)
(0 0 0.00716502)
(0 0 0.00728158)
(0 0 0.00739731)
(0 0 0.00751217)
(0 0 0.00762613)
(0 0 0.00773914)
(0 0 0.00785117)
(0 0 0.00796218)
(0 0 0.00807213)
(0 0 0.00818097)
(0 0 0.00828868)
(0 0 0.0083952)
(0 0 0.0085005)
(0 0 0.00860453)
(0 0 0.00870726)
(0 0 0.00880864)
(0 0 0.00890863)
(0 0 0.00900718)
(0 0 0.00910426)
(0 0 0.00919982)
(0 0 0.00929382)
(0 0 0.00938621)
(0 0 0.00947697)
(0 0 0.00956604)
(0 0 0.00965339)
(0 0 0.00973896)
(0 0 0.00982274)
(0 0 0.00990467)
(0 0 0.00998471)
(0 0 0.0100628)
(0 0 0.010139)
(0 0 0.0102132)
(0 0 0.0102853)
(0 0 0.0103554)
(0 0 0.0104234)
(0 0 0.0104892)
(0 0 0.0105529)
(0 0 0.0106144)
(0 0 0.0106736)
(0 0 0.0107307)
(0 0 0.0107854)
(0 0 0.0108379)
(0 0 0.010888)
(0 0 0.0109358)
(0 0 0.0109812)
(0 0 0.0110243)
(0 0 0.0110649)
(0 0 0.0111032)
(0 0 0.011139)
(0 0 0.0111724)
(0 0 0.0112033)
(0 0 0.0112318)
(0 0 0.0112578)
(0 0 0.0112814)
(0 0 0.0113025)
(0 0 0.0113211)
(0 0 0.0113372)
(0 0 0.0113509)
(0 0 0.0113621)
(0 0 0.0113709)
(0 0 0.0113772)
(0 0 0.011381)
(0 0 0.0113825)
(0 0 0.0113815)
(0 0 0.011378)
(0 0 0.0113722)
(0 0 0.0113641)
(0 0 0.0113535)
(0 0 0.0113406)
(0 0 0.0113254)
(0 0 0.0113079)
(0 0 0.0112882)
(0 0 0.0112661)
(0 0 0.0112419)
(0 0 0.0112154)
(0 0 0.0111868)
(0 0 0.011156)
(0 0 0.0111231)
(0 0 0.0110881)
(0 0 0.011051)
(0 0 0.011012)
(0 0 0.0109709)
(0 0 0.0109279)
(0 0 0.0108829)
(0 0 0.0108361)
(0 0 0.0107874)
(0 0 0.0107368)
(0 0 0.0106845)
(0 0 0.0106304)
(0 0 0.0105746)
(0 0 0.0105172)
(0 0 0.010458)
(0 0 0.0103973)
(0 0 0.010335)
(0 0 0.0102711)
(0 0 0.0102057)
(0 0 0.0101389)
(0 0 0.0100706)
(0 0 0.010001)
(0 0 0.00992996)
(0 0 0.00985761)
(0 0 0.00978397)
(0 0 0.00970908)
(0 0 0.00963297)
(0 0 0.00955567)
(0 0 0.00947721)
(0 0 0.00939764)
(0 0 0.00931697)
(0 0 0.00923526)
(0 0 0.00915252)
(0 0 0.00906879)
(0 0 0.0089841)
(0 0 0.00889849)
(0 0 0.00881197)
(0 0 0.00872459)
(0 0 0.00863637)
(0 0 0.00854734)
(0 0 0.00845752)
(0 0 0.00836695)
(0 0 0.00827566)
(0 0 0.00818366)
(0 0 0.00809098)
(0 0 0.00799766)
(0 0 0.00790371)
(0 0 0.00780916)
(0 0 0.00771402)
(0 0 0.00761834)
(0 0 0.00752212)
(0 0 0.00742539)
(0 0 0.00732817)
(0 0 0.00723048)
(0 0 0.00713235)
(0 0 0.00703378)
(0 0 0.0069348)
(0 0 0.00683543)
(0 0 0.00673569)
(0 0 0.00663559)
(0 0 0.00653515)
(0 0 0.00643439)
(0 0 0.00633331)
(0 0 0.00623195)
(0 0 0.0061303)
(0 0 0.0060284)
(0 0 0.00592624)
(0 0 0.00582385)
(0 0 0.00572123)
(0 0 0.0056184)
(0 0 0.00551537)
(0 0 0.00541215)
(0 0 0.00530875)
(0 0 0.00520519)
(0 0 0.00510146)
(0 0 0.00499759)
(0 0 0.00489359)
(0 0 0.00478945)
(0 0 0.00468519)
(0 0 0.00458082)
(0 0 0.00447635)
(0 0 0.00437177)
(0 0 0.00426711)
(0 0 0.00416236)
(0 0 0.00405754)
(0 0 0.00395264)
(0 0 0.00384768)
(0 0 0.00374265)
(0 0 0.00363758)
(0 0 0.00353245)
(0 0 0.00342727)
(0 0 0.00332205)
(0 0 0.0032168)
(0 0 0.00311151)
(0 0 0.00300619)
(0 0 0.00290084)
(0 0 0.00279546)
(0 0 0.00269007)
(0 0 0.00258466)
(0 0 0.00247923)
(0 0 0.00237378)
(0 0 0.00226832)
(0 0 0.00216285)
(0 0 0.00205738)
(0 0 0.00195189)
(0 0 0.0018464)
(0 0 0.0017409)
(0 0 0.0016354)
(0 0 0.0015299)
(0 0 0.00142439)
(0 0 0.00131888)
(0 0 0.00121337)
(0 0 0.00110786)
(0 0 0.00100235)
(0 0 0.000896838)
(0 0 0.000791327)
(0 0 0.000685815)
(0 0 0.000580305)
(0 0 0.000474794)
(0 0 0.000369284)
(0 0 0.000263774)
(0 0 0.000158264)
(0 0 5.27548e-05)
(0 0 8.33474e-05)
(0 0 0.000250042)
(0 0 0.000416733)
(0 0 0.000583422)
(0 0 0.000750104)
(0 0 0.00091678)
(0 0 0.00108345)
(0 0 0.0012501)
(0 0 0.00141675)
(0 0 0.00158337)
(0 0 0.00174998)
(0 0 0.00191657)
(0 0 0.00208313)
(0 0 0.00224966)
(0 0 0.00241615)
(0 0 0.00258261)
(0 0 0.00274903)
(0 0 0.00291539)
(0 0 0.0030817)
(0 0 0.00324794)
(0 0 0.00341411)
(0 0 0.00358021)
(0 0 0.00374621)
(0 0 0.00391212)
(0 0 0.00407791)
(0 0 0.00424359)
(0 0 0.00440913)
(0 0 0.00457453)
(0 0 0.00473977)
(0 0 0.00490484)
(0 0 0.00506971)
(0 0 0.00523438)
(0 0 0.00539882)
(0 0 0.00556303)
(0 0 0.00572697)
(0 0 0.00589062)
(0 0 0.00605397)
(0 0 0.006217)
(0 0 0.00637967)
(0 0 0.00654197)
(0 0 0.00670386)
(0 0 0.00686532)
(0 0 0.00702632)
(0 0 0.00718684)
(0 0 0.00734684)
(0 0 0.00750628)
(0 0 0.00766514)
(0 0 0.00782339)
(0 0 0.00798097)
(0 0 0.00813787)
(0 0 0.00829404)
(0 0 0.00844945)
(0 0 0.00860405)
(0 0 0.0087578)
(0 0 0.00891066)
(0 0 0.00906258)
(0 0 0.00921353)
(0 0 0.00936346)
(0 0 0.00951232)
(0 0 0.00966006)
(0 0 0.00980664)
(0 0 0.00995201)
(0 0 0.0100961)
(0 0 0.0102389)
(0 0 0.0103803)
(0 0 0.0105204)
(0 0 0.0106589)
(0 0 0.0107959)
(0 0 0.0109314)
(0 0 0.0110652)
(0 0 0.0111974)
(0 0 0.0113278)
(0 0 0.0114564)
(0 0 0.0115832)
(0 0 0.0117081)
(0 0 0.011831)
(0 0 0.0119519)
(0 0 0.0120708)
(0 0 0.0121876)
(0 0 0.0123022)
(0 0 0.0124145)
(0 0 0.0125246)
(0 0 0.0126324)
(0 0 0.0127378)
(0 0 0.0128408)
(0 0 0.0129413)
(0 0 0.0130393)
(0 0 0.0131347)
(0 0 0.0132275)
(0 0 0.0133177)
(0 0 0.0134051)
(0 0 0.0134898)
(0 0 0.0135717)
(0 0 0.0136509)
(0 0 0.0137271)
(0 0 0.0138005)
(0 0 0.0138709)
(0 0 0.0139384)
(0 0 0.0140029)
(0 0 0.0140644)
(0 0 0.0141228)
(0 0 0.0141782)
(0 0 0.0142305)
(0 0 0.0142797)
(0 0 0.0143258)
(0 0 0.0143687)
(0 0 0.0144085)
(0 0 0.0144451)
(0 0 0.0144786)
(0 0 0.0145089)
(0 0 0.014536)
(0 0 0.0145599)
(0 0 0.0145807)
(0 0 0.0145983)
(0 0 0.0146127)
(0 0 0.0146239)
(0 0 0.014632)
(0 0 0.0146369)
(0 0 0.0146387)
(0 0 0.0146374)
(0 0 0.014633)
(0 0 0.0146255)
(0 0 0.014615)
(0 0 0.0146014)
(0 0 0.0145848)
(0 0 0.0145652)
(0 0 0.0145427)
(0 0 0.0145172)
(0 0 0.0144888)
(0 0 0.0144576)
(0 0 0.0144235)
(0 0 0.0143867)
(0 0 0.014347)
(0 0 0.0143047)
(0 0 0.0142596)
(0 0 0.014212)
(0 0 0.0141617)
(0 0 0.0141088)
(0 0 0.0140534)
(0 0 0.0139956)
(0 0 0.0139353)
(0 0 0.0138726)
(0 0 0.0138076)
(0 0 0.0137402)
(0 0 0.0136706)
(0 0 0.0135988)
(0 0 0.0135249)
(0 0 0.0134488)
(0 0 0.0133706)
(0 0 0.0132904)
(0 0 0.0132083)
(0 0 0.0131242)
(0 0 0.0130382)
(0 0 0.0129504)
(0 0 0.0128607)
(0 0 0.0127694)
(0 0 0.0126763)
(0 0 0.0125816)
(0 0 0.0124852)
(0 0 0.0123873)
(0 0 0.0122878)
(0 0 0.0121869)
(0 0 0.0120845)
(0 0 0.0119808)
(0 0 0.0118757)
(0 0 0.0117692)
(0 0 0.0116615)
(0 0 0.0115526)
(0 0 0.0114425)
(0 0 0.0113312)
(0 0 0.0112188)
(0 0 0.0111053)
(0 0 0.0109908)
(0 0 0.0108753)
(0 0 0.0107588)
(0 0 0.0106413)
(0 0 0.010523)
(0 0 0.0104038)
(0 0 0.0102838)
(0 0 0.0101629)
(0 0 0.0100413)
(0 0 0.00991899)
(0 0 0.00979592)
(0 0 0.00967218)
(0 0 0.00954777)
(0 0 0.00942274)
(0 0 0.00929711)
(0 0 0.0091709)
(0 0 0.00904414)
(0 0 0.00891685)
(0 0 0.00878906)
(0 0 0.00866079)
(0 0 0.00853206)
(0 0 0.00840289)
(0 0 0.00827331)
(0 0 0.00814334)
(0 0 0.00801298)
(0 0 0.00788227)
(0 0 0.00775123)
(0 0 0.00761986)
(0 0 0.00748819)
(0 0 0.00735623)
(0 0 0.007224)
(0 0 0.00709151)
(0 0 0.00695878)
(0 0 0.00682582)
(0 0 0.00669265)
(0 0 0.00655928)
(0 0 0.00642572)
(0 0 0.00629198)
(0 0 0.00615807)
(0 0 0.00602401)
(0 0 0.00588981)
(0 0 0.00575547)
(0 0 0.00562101)
(0 0 0.00548643)
(0 0 0.00535174)
(0 0 0.00521696)
(0 0 0.00508208)
(0 0 0.00494712)
(0 0 0.00481208)
(0 0 0.00467697)
(0 0 0.0045418)
(0 0 0.00440656)
(0 0 0.00427128)
(0 0 0.00413594)
(0 0 0.00400056)
(0 0 0.00386514)
(0 0 0.00372969)
(0 0 0.00359421)
(0 0 0.0034587)
(0 0 0.00332316)
(0 0 0.0031876)
(0 0 0.00305203)
(0 0 0.00291643)
(0 0 0.00278083)
(0 0 0.00264521)
(0 0 0.00250959)
(0 0 0.00237395)
(0 0 0.00223831)
(0 0 0.00210267)
(0 0 0.00196702)
(0 0 0.00183136)
(0 0 0.00169571)
(0 0 0.00156005)
(0 0 0.00142439)
(0 0 0.00128874)
(0 0 0.00115308)
(0 0 0.00101742)
(0 0 0.000881762)
(0 0 0.000746105)
(0 0 0.000610449)
(0 0 0.000474793)
(0 0 0.000339138)
(0 0 0.000203482)
(0 0 6.78275e-05)
(0 0 0.000101871)
(0 0 0.000305611)
(0 0 0.000509349)
(0 0 0.000713082)
(0 0 0.000916809)
(0 0 0.00112053)
(0 0 0.00132424)
(0 0 0.00152793)
(0 0 0.00173161)
(0 0 0.00193527)
(0 0 0.00213891)
(0 0 0.00234252)
(0 0 0.0025461)
(0 0 0.00274965)
(0 0 0.00295316)
(0 0 0.00315662)
(0 0 0.00336002)
(0 0 0.00356337)
(0 0 0.00376665)
(0 0 0.00396985)
(0 0 0.00417297)
(0 0 0.00437599)
(0 0 0.0045789)
(0 0 0.0047817)
(0 0 0.00498436)
(0 0 0.00518688)
(0 0 0.00538924)
(0 0 0.00559142)
(0 0 0.00579341)
(0 0 0.00599519)
(0 0 0.00619674)
(0 0 0.00639804)
(0 0 0.00659906)
(0 0 0.00679979)
(0 0 0.00700021)
(0 0 0.00720027)
(0 0 0.00739997)
(0 0 0.00759927)
(0 0 0.00779815)
(0 0 0.00799656)
(0 0 0.00819448)
(0 0 0.00839189)
(0 0 0.00858873)
(0 0 0.00878498)
(0 0 0.00898059)
(0 0 0.00917554)
(0 0 0.00936977)
(0 0 0.00956325)
(0 0 0.00975594)
(0 0 0.00994778)
(0 0 0.0101387)
(0 0 0.0103288)
(0 0 0.0105178)
(0 0 0.0107058)
(0 0 0.0108927)
(0 0 0.0110785)
(0 0 0.0112631)
(0 0 0.0114464)
(0 0 0.0116284)
(0 0 0.0118091)
(0 0 0.0119884)
(0 0 0.0121661)
(0 0 0.0123424)
(0 0 0.012517)
(0 0 0.01269)
(0 0 0.0128612)
(0 0 0.0130306)
(0 0 0.0131982)
(0 0 0.0133639)
(0 0 0.0135276)
(0 0 0.0136892)
(0 0 0.0138487)
(0 0 0.014006)
(0 0 0.0141611)
(0 0 0.0143139)
(0 0 0.0144642)
(0 0 0.0146121)
(0 0 0.0147575)
(0 0 0.0149003)
(0 0 0.0150405)
(0 0 0.0151779)
(0 0 0.0153126)
(0 0 0.0154444)
(0 0 0.0155734)
(0 0 0.0156993)
(0 0 0.0158223)
(0 0 0.0159421)
(0 0 0.0160588)
(0 0 0.0161724)
(0 0 0.0162826)
(0 0 0.0163896)
(0 0 0.0164932)
(0 0 0.0165934)
(0 0 0.0166902)
(0 0 0.0167835)
(0 0 0.0168732)
(0 0 0.0169594)
(0 0 0.0170419)
(0 0 0.0171208)
(0 0 0.017196)
(0 0 0.0172675)
(0 0 0.0173352)
(0 0 0.0173991)
(0 0 0.0174593)
(0 0 0.0175157)
(0 0 0.0175682)
(0 0 0.0176168)
(0 0 0.0176616)
(0 0 0.0177025)
(0 0 0.0177396)
(0 0 0.0177727)
(0 0 0.0178019)
(0 0 0.0178273)
(0 0 0.0178488)
(0 0 0.0178664)
(0 0 0.0178801)
(0 0 0.01789)
(0 0 0.017896)
(0 0 0.0178981)
(0 0 0.0178965)
(0 0 0.0178911)
(0 0 0.0178819)
(0 0 0.0178689)
(0 0 0.0178523)
(0 0 0.017832)
(0 0 0.017808)
(0 0 0.0177804)
(0 0 0.0177492)
(0 0 0.0177144)
(0 0 0.0176762)
(0 0 0.0176345)
(0 0 0.0175893)
(0 0 0.0175408)
(0 0 0.017489)
(0 0 0.0174338)
(0 0 0.0173755)
(0 0 0.0173139)
(0 0 0.0172492)
(0 0 0.0171815)
(0 0 0.0171107)
(0 0 0.0170369)
(0 0 0.0169602)
(0 0 0.0168806)
(0 0 0.0167982)
(0 0 0.0167131)
(0 0 0.0166252)
(0 0 0.0165347)
(0 0 0.0164416)
(0 0 0.016346)
(0 0 0.0162479)
(0 0 0.0161474)
(0 0 0.0160445)
(0 0 0.0159393)
(0 0 0.0158319)
(0 0 0.0157222)
(0 0 0.0156105)
(0 0 0.0154966)
(0 0 0.0153807)
(0 0 0.0152629)
(0 0 0.0151431)
(0 0 0.0150215)
(0 0 0.014898)
(0 0 0.0147728)
(0 0 0.0146459)
(0 0 0.0145174)
(0 0 0.0143872)
(0 0 0.0142555)
(0 0 0.0141223)
(0 0 0.0139876)
(0 0 0.0138515)
(0 0 0.013714)
(0 0 0.0135753)
(0 0 0.0134352)
(0 0 0.013294)
(0 0 0.0131515)
(0 0 0.0130079)
(0 0 0.0128632)
(0 0 0.0127175)
(0 0 0.0125707)
(0 0 0.012423)
(0 0 0.0122743)
(0 0 0.0121247)
(0 0 0.0119742)
(0 0 0.0118229)
(0 0 0.0116708)
(0 0 0.0115179)
(0 0 0.0113643)
(0 0 0.01121)
(0 0 0.011055)
(0 0 0.0108994)
(0 0 0.0107432)
(0 0 0.0105863)
(0 0 0.010429)
(0 0 0.0102711)
(0 0 0.0101126)
(0 0 0.00995373)
(0 0 0.00979438)
(0 0 0.00963458)
(0 0 0.00947438)
(0 0 0.00931378)
(0 0 0.00915282)
(0 0 0.0089915)
(0 0 0.00882986)
(0 0 0.0086679)
(0 0 0.00850564)
(0 0 0.00834311)
(0 0 0.00818032)
(0 0 0.00801728)
(0 0 0.00785402)
(0 0 0.00769054)
(0 0 0.00752685)
(0 0 0.00736298)
(0 0 0.00719893)
(0 0 0.00703472)
(0 0 0.00687036)
(0 0 0.00670586)
(0 0 0.00654123)
(0 0 0.00637647)
(0 0 0.00621161)
(0 0 0.00604664)
(0 0 0.00588158)
(0 0 0.00571643)
(0 0 0.00555121)
(0 0 0.00538591)
(0 0 0.00522055)
(0 0 0.00505513)
(0 0 0.00488966)
(0 0 0.00472414)
(0 0 0.00455858)
(0 0 0.00439298)
(0 0 0.00422734)
(0 0 0.00406168)
(0 0 0.003896)
(0 0 0.00373029)
(0 0 0.00356456)
(0 0 0.00339882)
(0 0 0.00323306)
(0 0 0.00306729)
(0 0 0.00290151)
(0 0 0.00273572)
(0 0 0.00256993)
(0 0 0.00240414)
(0 0 0.00223834)
(0 0 0.00207253)
(0 0 0.00190673)
(0 0 0.00174093)
(0 0 0.00157512)
(0 0 0.00140932)
(0 0 0.00124351)
(0 0 0.00107771)
(0 0 0.000911906)
(0 0 0.000746103)
(0 0 0.000580302)
(0 0 0.000414501)
(0 0 0.0002487)
(0 0 8.29001e-05)
(0 0 0.000120395)
(0 0 0.000361183)
(0 0 0.000601968)
(0 0 0.000842749)
(0 0 0.00108352)
(0 0 0.00132429)
(0 0 0.00156504)
(0 0 0.00180578)
(0 0 0.0020465)
(0 0 0.00228719)
(0 0 0.00252787)
(0 0 0.00276851)
(0 0 0.00300912)
(0 0 0.00324969)
(0 0 0.00349021)
(0 0 0.00373067)
(0 0 0.00397108)
(0 0 0.00421142)
(0 0 0.00445168)
(0 0 0.00469185)
(0 0 0.00493192)
(0 0 0.00517188)
(0 0 0.00541172)
(0 0 0.00565142)
(0 0 0.00589096)
(0 0 0.00613034)
(0 0 0.00636952)
(0 0 0.00660851)
(0 0 0.00684726)
(0 0 0.00708577)
(0 0 0.00732402)
(0 0 0.00756196)
(0 0 0.00779959)
(0 0 0.00803688)
(0 0 0.00827379)
(0 0 0.0085103)
(0 0 0.00874637)
(0 0 0.00898198)
(0 0 0.00921708)
(0 0 0.00945165)
(0 0 0.00968564)
(0 0 0.00991901)
(0 0 0.0101517)
(0 0 0.0103837)
(0 0 0.010615)
(0 0 0.0108455)
(0 0 0.0110752)
(0 0 0.0113039)
(0 0 0.0115317)
(0 0 0.0117586)
(0 0 0.0119844)
(0 0 0.012209)
(0 0 0.0124326)
(0 0 0.0126549)
(0 0 0.0128759)
(0 0 0.0130956)
(0 0 0.0133139)
(0 0 0.0135307)
(0 0 0.0137459)
(0 0 0.0139596)
(0 0 0.0141716)
(0 0 0.0143818)
(0 0 0.0145902)
(0 0 0.0147968)
(0 0 0.0150013)
(0 0 0.0152038)
(0 0 0.0154042)
(0 0 0.0156025)
(0 0 0.0157984)
(0 0 0.015992)
(0 0 0.0161832)
(0 0 0.0163718)
(0 0 0.0165579)
(0 0 0.0167413)
(0 0 0.016922)
(0 0 0.0170999)
(0 0 0.0172748)
(0 0 0.0174468)
(0 0 0.0176157)
(0 0 0.0177815)
(0 0 0.0179441)
(0 0 0.0181034)
(0 0 0.0182594)
(0 0 0.0184119)
(0 0 0.0185609)
(0 0 0.0187063)
(0 0 0.0188481)
(0 0 0.0189862)
(0 0 0.0191205)
(0 0 0.0192509)
(0 0 0.0193775)
(0 0 0.0195)
(0 0 0.0196186)
(0 0 0.019733)
(0 0 0.0198434)
(0 0 0.0199495)
(0 0 0.0200514)
(0 0 0.0201491)
(0 0 0.0202424)
(0 0 0.0203313)
(0 0 0.0204158)
(0 0 0.020496)
(0 0 0.0205716)
(0 0 0.0206428)
(0 0 0.0207094)
(0 0 0.0207715)
(0 0 0.020829)
(0 0 0.020882)
(0 0 0.0209303)
(0 0 0.0209741)
(0 0 0.0210133)
(0 0 0.0210479)
(0 0 0.0210778)
(0 0 0.0211032)
(0 0 0.021124)
(0 0 0.0211401)
(0 0 0.0211518)
(0 0 0.0211588)
(0 0 0.0211614)
(0 0 0.0211594)
(0 0 0.0211529)
(0 0 0.021142)
(0 0 0.0211266)
(0 0 0.0211069)
(0 0 0.0210828)
(0 0 0.0210543)
(0 0 0.0210216)
(0 0 0.0209847)
(0 0 0.0209435)
(0 0 0.0208982)
(0 0 0.0208488)
(0 0 0.0207954)
(0 0 0.0207379)
(0 0 0.0206765)
(0 0 0.0206113)
(0 0 0.0205422)
(0 0 0.0204693)
(0 0 0.0203928)
(0 0 0.0203126)
(0 0 0.0202288)
(0 0 0.0201414)
(0 0 0.0200507)
(0 0 0.0199565)
(0 0 0.019859)
(0 0 0.0197582)
(0 0 0.0196543)
(0 0 0.0195472)
(0 0 0.019437)
(0 0 0.0193239)
(0 0 0.0192078)
(0 0 0.0190889)
(0 0 0.0189672)
(0 0 0.0188427)
(0 0 0.0187156)
(0 0 0.0185859)
(0 0 0.0184537)
(0 0 0.018319)
(0 0 0.0181819)
(0 0 0.0180425)
(0 0 0.0179008)
(0 0 0.017757)
(0 0 0.0176109)
(0 0 0.0174629)
(0 0 0.0173128)
(0 0 0.0171607)
(0 0 0.0170067)
(0 0 0.016851)
(0 0 0.0166934)
(0 0 0.0165341)
(0 0 0.0163732)
(0 0 0.0162106)
(0 0 0.0160465)
(0 0 0.0158809)
(0 0 0.0157138)
(0 0 0.0155454)
(0 0 0.0153756)
(0 0 0.0152045)
(0 0 0.0150322)
(0 0 0.0148586)
(0 0 0.0146839)
(0 0 0.0145081)
(0 0 0.0143312)
(0 0 0.0141533)
(0 0 0.0139744)
(0 0 0.0137946)
(0 0 0.0136138)
(0 0 0.0134322)
(0 0 0.0132498)
(0 0 0.0130666)
(0 0 0.0128826)
(0 0 0.0126979)
(0 0 0.0125125)
(0 0 0.0123264)
(0 0 0.0121397)
(0 0 0.0119524)
(0 0 0.0117646)
(0 0 0.0115762)
(0 0 0.0113873)
(0 0 0.0111979)
(0 0 0.0110081)
(0 0 0.0108178)
(0 0 0.0106271)
(0 0 0.010436)
(0 0 0.0102446)