/*--------------------------------*- C++ -*----------------------------------*\
| =========                 |                                                 |
| \\      /  F ield         | OpenFOAM: The Open Source CFD Toolbox           |
|  \\    /   O peration     | Version:  v2012                                 |
|   \\  /    A nd           | Website:  www.openfoam.com                      |
|    \\/     M anipulation  |                                                 |
\*---------------------------------------------------------------------------*/
FoamFile
{
    version     2.0;
    format      ascii;
    class       volVectorField;
    location    "6.3";
    object      Psi;
}
// * * * * * * * * * * * * * * * * * * * * * * * * * * * * * * * * * * * * * //

dimensions      [0 2 -1 0 0 0 0];


internalField   nonuniform List<vector> 
65536
(
(0 0 9.1991e-06)
(0 0 2.7597e-05)
(0 0 4.59941e-05)
(0 0 6.43899e-05)
(0 0 8.27839e-05)
(0 0 0.000101176)
(0 0 0.000119564)
(0 0 0.000137949)
(0 0 0.000156331)
(0 0 0.000174707)
(0 0 0.000193078)
(0 0 0.000211443)
(0 0 0.000229801)
(0 0 0.000248151)
(0 0 0.000266494)
(0 0 0.000284826)
(0 0 0.000303149)
(0 0 0.000321461)
(0 0 0.00033976)
(0 0 0.000358046)
(0 0 0.000376317)
(0 0 0.000394573)
(0 0 0.000412812)
(0 0 0.000431032)
(0 0 0.000449233)
(0 0 0.000467413)
(0 0 0.000485569)
(0 0 0.000503701)
(0 0 0.000521806)
(0 0 0.000539883)
(0 0 0.00055793)
(0 0 0.000575944)
(0 0 0.000593924)
(0 0 0.000611868)
(0 0 0.000629772)
(0 0 0.000647634)
(0 0 0.000665453)
(0 0 0.000683224)
(0 0 0.000700946)
(0 0 0.000718616)
(0 0 0.00073623)
(0 0 0.000753785)
(0 0 0.000771279)
(0 0 0.000788707)
(0 0 0.000806068)
(0 0 0.000823355)
(0 0 0.000840568)
(0 0 0.0008577)
(0 0 0.00087475)
(0 0 0.000891712)
(0 0 0.000908582)
(0 0 0.000925357)
(0 0 0.000942033)
(0 0 0.000958604)
(0 0 0.000975066)
(0 0 0.000991415)
(0 0 0.00100765)
(0 0 0.00102375)
(0 0 0.00103974)
(0 0 0.00105558)
(0 0 0.0010713)
(0 0 0.00108687)
(0 0 0.00110229)
(0 0 0.00111756)
(0 0 0.00113267)
(0 0 0.00114762)
(0 0 0.0011624)
(0 0 0.001177)
(0 0 0.00119143)
(0 0 0.00120568)
(0 0 0.00121973)
(0 0 0.00123359)
(0 0 0.00124725)
(0 0 0.0012607)
(0 0 0.00127394)
(0 0 0.00128697)
(0 0 0.00129977)
(0 0 0.00131235)
(0 0 0.00132469)
(0 0 0.0013368)
(0 0 0.00134867)
(0 0 0.00136028)
(0 0 0.00137165)
(0 0 0.00138276)
(0 0 0.0013936)
(0 0 0.00140418)
(0 0 0.00141449)
(0 0 0.00142452)
(0 0 0.00143427)
(0 0 0.00144374)
(0 0 0.00145292)
(0 0 0.00146181)
(0 0 0.00147041)
(0 0 0.0014787)
(0 0 0.0014867)
(0 0 0.00149438)
(0 0 0.00150176)
(0 0 0.00150883)
(0 0 0.00151559)
(0 0 0.00152202)
(0 0 0.00152814)
(0 0 0.00153394)
(0 0 0.00153942)
(0 0 0.00154457)
(0 0 0.00154939)
(0 0 0.00155389)
(0 0 0.00155806)
(0 0 0.00156191)
(0 0 0.00156542)
(0 0 0.0015686)
(0 0 0.00157146)
(0 0 0.00157398)
(0 0 0.00157618)
(0 0 0.00157804)
(0 0 0.00157958)
(0 0 0.00158079)
(0 0 0.00158167)
(0 0 0.00158223)
(0 0 0.00158246)
(0 0 0.00158237)
(0 0 0.00158196)
(0 0 0.00158123)
(0 0 0.00158019)
(0 0 0.00157883)
(0 0 0.00157715)
(0 0 0.00157517)
(0 0 0.00157289)
(0 0 0.0015703)
(0 0 0.0015674)
(0 0 0.00156422)
(0 0 0.00156073)
(0 0 0.00155696)
(0 0 0.0015529)
(0 0 0.00154855)
(0 0 0.00154393)
(0 0 0.00153903)
(0 0 0.00153386)
(0 0 0.00152842)
(0 0 0.00152271)
(0 0 0.00151675)
(0 0 0.00151052)
(0 0 0.00150405)
(0 0 0.00149733)
(0 0 0.00149037)
(0 0 0.00148317)
(0 0 0.00147573)
(0 0 0.00146807)
(0 0 0.00146018)
(0 0 0.00145206)
(0 0 0.00144374)
(0 0 0.00143519)
(0 0 0.00142645)
(0 0 0.00141749)
(0 0 0.00140834)
(0 0 0.001399)
(0 0 0.00138946)
(0 0 0.00137974)
(0 0 0.00136984)
(0 0 0.00135976)
(0 0 0.00134951)
(0 0 0.00133909)
(0 0 0.00132851)
(0 0 0.00131776)
(0 0 0.00130686)
(0 0 0.00129581)
(0 0 0.00128461)
(0 0 0.00127327)
(0 0 0.00126178)
(0 0 0.00125016)
(0 0 0.00123841)
(0 0 0.00122653)
(0 0 0.00121452)
(0 0 0.0012024)
(0 0 0.00119015)
(0 0 0.0011778)
(0 0 0.00116533)
(0 0 0.00115275)
(0 0 0.00114007)
(0 0 0.00112729)
(0 0 0.00111441)
(0 0 0.00110144)
(0 0 0.00108838)
(0 0 0.00107523)
(0 0 0.00106199)
(0 0 0.00104867)
(0 0 0.00103528)
(0 0 0.0010218)
(0 0 0.00100825)
(0 0 0.000994633)
(0 0 0.000980944)
(0 0 0.000967189)
(0 0 0.000953369)
(0 0 0.000939488)
(0 0 0.000925548)
(0 0 0.000911551)
(0 0 0.000897499)
(0 0 0.000883395)
(0 0 0.00086924)
(0 0 0.000855036)
(0 0 0.000840785)
(0 0 0.00082649)
(0 0 0.000812152)
(0 0 0.000797773)
(0 0 0.000783355)
(0 0 0.000768899)
(0 0 0.000754407)
(0 0 0.000739881)
(0 0 0.000725321)
(0 0 0.000710731)
(0 0 0.00069611)
(0 0 0.000681461)
(0 0 0.000666784)
(0 0 0.000652081)
(0 0 0.000637354)
(0 0 0.000622603)
(0 0 0.00060783)
(0 0 0.000593036)
(0 0 0.000578221)
(0 0 0.000563387)
(0 0 0.000548535)
(0 0 0.000533666)
(0 0 0.000518781)
(0 0 0.00050388)
(0 0 0.000488965)
(0 0 0.000474035)
(0 0 0.000459093)
(0 0 0.000444139)
(0 0 0.000429173)
(0 0 0.000414197)
(0 0 0.00039921)
(0 0 0.000384213)
(0 0 0.000369208)
(0 0 0.000354194)
(0 0 0.000339173)
(0 0 0.000324144)
(0 0 0.000309108)
(0 0 0.000294066)
(0 0 0.000279017)
(0 0 0.000263964)
(0 0 0.000248905)
(0 0 0.000233842)
(0 0 0.000218774)
(0 0 0.000203702)
(0 0 0.000188627)
(0 0 0.000173549)
(0 0 0.000158467)
(0 0 0.000143383)
(0 0 0.000128296)
(0 0 0.000113207)
(0 0 9.81166e-05)
(0 0 8.30244e-05)
(0 0 6.79308e-05)
(0 0 5.28362e-05)
(0 0 3.77407e-05)
(0 0 2.26447e-05)
(0 0 7.54826e-06)
(0 0 2.75974e-05)
(0 0 8.27915e-05)
(0 0 0.000137983)
(0 0 0.000193171)
(0 0 0.000248354)
(0 0 0.000303529)
(0 0 0.000358696)
(0 0 0.000413852)
(0 0 0.000468996)
(0 0 0.000524126)
(0 0 0.000579239)
(0 0 0.000634335)
(0 0 0.00068941)
(0 0 0.000744462)
(0 0 0.000799489)
(0 0 0.000854488)
(0 0 0.000909457)
(0 0 0.000964393)
(0 0 0.00101929)
(0 0 0.00107415)
(0 0 0.00112897)
(0 0 0.00118373)
(0 0 0.00123845)
(0 0 0.00129312)
(0 0 0.00134772)
(0 0 0.00140226)
(0 0 0.00145673)
(0 0 0.00151113)
(0 0 0.00156544)
(0 0 0.00161968)
(0 0 0.00167382)
(0 0 0.00172787)
(0 0 0.00178181)
(0 0 0.00183564)
(0 0 0.00188935)
(0 0 0.00194294)
(0 0 0.0019964)
(0 0 0.00204972)
(0 0 0.00210289)
(0 0 0.0021559)
(0 0 0.00220875)
(0 0 0.00226141)
(0 0 0.0023139)
(0 0 0.00236619)
(0 0 0.00241827)
(0 0 0.00247014)
(0 0 0.00252178)
(0 0 0.00257318)
(0 0 0.00262433)
(0 0 0.00267522)
(0 0 0.00272584)
(0 0 0.00277617)
(0 0 0.0028262)
(0 0 0.00287592)
(0 0 0.00292531)
(0 0 0.00297436)
(0 0 0.00302306)
(0 0 0.00307139)
(0 0 0.00311934)
(0 0 0.00316689)
(0 0 0.00321403)
(0 0 0.00326074)
(0 0 0.00330701)
(0 0 0.00335282)
(0 0 0.00339816)
(0 0 0.00344302)
(0 0 0.00348736)
(0 0 0.00353119)
(0 0 0.00357448)
(0 0 0.00361721)
(0 0 0.00365938)
(0 0 0.00370096)
(0 0 0.00374195)
(0 0 0.00378231)
(0 0 0.00382204)
(0 0 0.00386112)
(0 0 0.00389954)
(0 0 0.00393727)
(0 0 0.00397431)
(0 0 0.00401064)
(0 0 0.00404624)
(0 0 0.00408109)
(0 0 0.00411519)
(0 0 0.00414852)
(0 0 0.00418106)
(0 0 0.00421281)
(0 0 0.00424374)
(0 0 0.00427384)
(0 0 0.0043031)
(0 0 0.00433151)
(0 0 0.00435906)
(0 0 0.00438573)
(0 0 0.00441152)
(0 0 0.00443641)
(0 0 0.00446039)
(0 0 0.00448346)
(0 0 0.0045056)
(0 0 0.0045268)
(0 0 0.00454707)
(0 0 0.00456638)
(0 0 0.00458474)
(0 0 0.00460214)
(0 0 0.00461857)
(0 0 0.00463402)
(0 0 0.0046485)
(0 0 0.004662)
(0 0 0.00467452)
(0 0 0.00468604)
(0 0 0.00469658)
(0 0 0.00470614)
(0 0 0.0047147)
(0 0 0.00472227)
(0 0 0.00472885)
(0 0 0.00473445)
(0 0 0.00473906)
(0 0 0.00474268)
(0 0 0.00474533)
(0 0 0.004747)
(0 0 0.0047477)
(0 0 0.00474743)
(0 0 0.00474619)
(0 0 0.00474401)
(0 0 0.00474087)
(0 0 0.00473679)
(0 0 0.00473177)
(0 0 0.00472582)
(0 0 0.00471896)
(0 0 0.00471118)
(0 0 0.00470251)
(0 0 0.00469294)
(0 0 0.00468248)
(0 0 0.00467116)
(0 0 0.00465897)
(0 0 0.00464593)
(0 0 0.00463206)
(0 0 0.00461735)
(0 0 0.00460183)
(0 0 0.00458551)
(0 0 0.00456839)
(0 0 0.00455049)
(0 0 0.00453182)
(0 0 0.0045124)
(0 0 0.00449224)
(0 0 0.00447134)
(0 0 0.00444974)
(0 0 0.00442743)
(0 0 0.00440442)
(0 0 0.00438075)
(0 0 0.00435641)
(0 0 0.00433142)
(0 0 0.00430579)
(0 0 0.00427954)
(0 0 0.00425268)
(0 0 0.00422522)
(0 0 0.00419718)
(0 0 0.00416857)
(0 0 0.00413941)
(0 0 0.0041097)
(0 0 0.00407946)
(0 0 0.0040487)
(0 0 0.00401743)
(0 0 0.00398567)
(0 0 0.00395344)
(0 0 0.00392073)
(0 0 0.00388757)
(0 0 0.00385397)
(0 0 0.00381993)
(0 0 0.00378548)
(0 0 0.00375061)
(0 0 0.00371535)
(0 0 0.00367971)
(0 0 0.00364369)
(0 0 0.00360731)
(0 0 0.00357057)
(0 0 0.0035335)
(0 0 0.00349609)
(0 0 0.00345836)
(0 0 0.00342031)
(0 0 0.00338197)
(0 0 0.00334334)
(0 0 0.00330442)
(0 0 0.00326523)
(0 0 0.00322577)
(0 0 0.00318606)
(0 0 0.0031461)
(0 0 0.00310591)
(0 0 0.00306548)
(0 0 0.00302483)
(0 0 0.00298397)
(0 0 0.0029429)
(0 0 0.00290163)
(0 0 0.00286017)
(0 0 0.00281852)
(0 0 0.0027767)
(0 0 0.00273471)
(0 0 0.00269255)
(0 0 0.00265023)
(0 0 0.00260777)
(0 0 0.00256515)
(0 0 0.0025224)
(0 0 0.00247951)
(0 0 0.0024365)
(0 0 0.00239336)
(0 0 0.0023501)
(0 0 0.00230673)
(0 0 0.00226326)
(0 0 0.00221967)
(0 0 0.002176)
(0 0 0.00213222)
(0 0 0.00208836)
(0 0 0.00204441)
(0 0 0.00200038)
(0 0 0.00195627)
(0 0 0.00191209)
(0 0 0.00186783)
(0 0 0.00182351)
(0 0 0.00177913)
(0 0 0.00173468)
(0 0 0.00169018)
(0 0 0.00164562)
(0 0 0.00160101)
(0 0 0.00155636)
(0 0 0.00151165)
(0 0 0.00146691)
(0 0 0.00142212)
(0 0 0.00137729)
(0 0 0.00133243)
(0 0 0.00128753)
(0 0 0.0012426)
(0 0 0.00119764)
(0 0 0.00115265)
(0 0 0.00110763)
(0 0 0.00106259)
(0 0 0.00101752)
(0 0 0.000972438)
(0 0 0.00092733)
(0 0 0.000882203)
(0 0 0.000837058)
(0 0 0.000791897)
(0 0 0.00074672)
(0 0 0.00070153)
(0 0 0.000656326)
(0 0 0.000611111)
(0 0 0.000565885)
(0 0 0.000520649)
(0 0 0.000475404)
(0 0 0.00043015)
(0 0 0.00038489)
(0 0 0.000339624)
(0 0 0.000294351)
(0 0 0.000249074)
(0 0 0.000203794)
(0 0 0.000158509)
(0 0 0.000113223)
(0 0 6.79344e-05)
(0 0 2.26449e-05)
(0 0 4.59966e-05)
(0 0 0.000137988)
(0 0 0.000229976)
(0 0 0.000321958)
(0 0 0.000413931)
(0 0 0.000505891)
(0 0 0.000597838)
(0 0 0.000689767)
(0 0 0.000781675)
(0 0 0.00087356)
(0 0 0.000965419)
(0 0 0.00105725)
(0 0 0.00114904)
(0 0 0.0012408)
(0 0 0.00133251)
(0 0 0.00142418)
(0 0 0.0015158)
(0 0 0.00160736)
(0 0 0.00169886)
(0 0 0.0017903)
(0 0 0.00188166)
(0 0 0.00197295)
(0 0 0.00206415)
(0 0 0.00215526)
(0 0 0.00224627)
(0 0 0.00233717)
(0 0 0.00242796)
(0 0 0.00251863)
(0 0 0.00260917)
(0 0 0.00269956)
(0 0 0.00278981)
(0 0 0.00287989)
(0 0 0.0029698)
(0 0 0.00305953)
(0 0 0.00314906)
(0 0 0.00323839)
(0 0 0.00332749)
(0 0 0.00341636)
(0 0 0.00350499)
(0 0 0.00359335)
(0 0 0.00368144)
(0 0 0.00376923)
(0 0 0.00385671)
(0 0 0.00394387)
(0 0 0.00403069)
(0 0 0.00411715)
(0 0 0.00420323)
(0 0 0.00428891)
(0 0 0.00437418)
(0 0 0.00445901)
(0 0 0.00454338)
(0 0 0.00462728)
(0 0 0.00471068)
(0 0 0.00479355)
(0 0 0.00487589)
(0 0 0.00495766)
(0 0 0.00503884)
(0 0 0.0051194)
(0 0 0.00519933)
(0 0 0.0052786)
(0 0 0.00535719)
(0 0 0.00543506)
(0 0 0.00551219)
(0 0 0.00558857)
(0 0 0.00566415)
(0 0 0.00573892)
(0 0 0.00581285)
(0 0 0.00588591)
(0 0 0.00595808)
(0 0 0.00602932)
(0 0 0.00609962)
(0 0 0.00616894)
(0 0 0.00623726)
(0 0 0.00630455)
(0 0 0.00637079)
(0 0 0.00643594)
(0 0 0.00649999)
(0 0 0.0065629)
(0 0 0.00662464)
(0 0 0.0066852)
(0 0 0.00674455)
(0 0 0.00680266)
(0 0 0.00685951)
(0 0 0.00691508)
(0 0 0.00696933)
(0 0 0.00702225)
(0 0 0.00707381)
(0 0 0.007124)
(0 0 0.00717278)
(0 0 0.00722015)
(0 0 0.00726607)
(0 0 0.00731054)
(0 0 0.00735353)
(0 0 0.00739502)
(0 0 0.007435)
(0 0 0.00747346)
(0 0 0.00751037)
(0 0 0.00754572)
(0 0 0.0075795)
(0 0 0.0076117)
(0 0 0.0076423)
(0 0 0.0076713)
(0 0 0.00769869)
(0 0 0.00772446)
(0 0 0.00774859)
(0 0 0.00777109)
(0 0 0.00779195)
(0 0 0.00781117)
(0 0 0.00782874)
(0 0 0.00784466)
(0 0 0.00785893)
(0 0 0.00787155)
(0 0 0.00788252)
(0 0 0.00789184)
(0 0 0.00789952)
(0 0 0.00790556)
(0 0 0.00790997)
(0 0 0.00791274)
(0 0 0.0079139)
(0 0 0.00791345)
(0 0 0.00791139)
(0 0 0.00790773)
(0 0 0.00790249)
(0 0 0.00789568)
(0 0 0.00788731)
(0 0 0.00787739)
(0 0 0.00786594)
(0 0 0.00785297)
(0 0 0.0078385)
(0 0 0.00782254)
(0 0 0.00780511)
(0 0 0.00778622)
(0 0 0.0077659)
(0 0 0.00774416)
(0 0 0.00772102)
(0 0 0.0076965)
(0 0 0.00767061)
(0 0 0.00764339)
(0 0 0.00761484)
(0 0 0.007585)
(0 0 0.00755387)
(0 0 0.00752149)
(0 0 0.00748787)
(0 0 0.00745304)
(0 0 0.00741701)
(0 0 0.00737981)
(0 0 0.00734146)
(0 0 0.00730198)
(0 0 0.0072614)
(0 0 0.00721973)
(0 0 0.00717701)
(0 0 0.00713324)
(0 0 0.00708846)
(0 0 0.00704268)
(0 0 0.00699594)
(0 0 0.00694824)
(0 0 0.00689962)
(0 0 0.00685008)
(0 0 0.00679967)
(0 0 0.00674839)
(0 0 0.00669627)
(0 0 0.00664332)
(0 0 0.00658958)
(0 0 0.00653506)
(0 0 0.00647978)
(0 0 0.00642376)
(0 0 0.00636702)
(0 0 0.00630958)
(0 0 0.00625146)
(0 0 0.00619269)
(0 0 0.00613326)
(0 0 0.00607322)
(0 0 0.00601257)
(0 0 0.00595133)
(0 0 0.00588953)
(0 0 0.00582717)
(0 0 0.00576427)
(0 0 0.00570086)
(0 0 0.00563694)
(0 0 0.00557254)
(0 0 0.00550767)
(0 0 0.00544234)
(0 0 0.00537657)
(0 0 0.00531037)
(0 0 0.00524377)
(0 0 0.00517676)
(0 0 0.00510938)
(0 0 0.00504162)
(0 0 0.00497351)
(0 0 0.00490505)
(0 0 0.00483626)
(0 0 0.00476715)
(0 0 0.00469774)
(0 0 0.00462802)
(0 0 0.00455803)
(0 0 0.00448776)
(0 0 0.00441723)
(0 0 0.00434644)
(0 0 0.00427541)
(0 0 0.00420415)
(0 0 0.00413267)
(0 0 0.00406097)
(0 0 0.00398906)
(0 0 0.00391696)
(0 0 0.00384467)
(0 0 0.00377221)
(0 0 0.00369957)
(0 0 0.00362676)
(0 0 0.0035538)
(0 0 0.00348069)
(0 0 0.00340744)
(0 0 0.00333405)
(0 0 0.00326053)
(0 0 0.00318689)
(0 0 0.00311313)
(0 0 0.00303926)
(0 0 0.00296528)
(0 0 0.0028912)
(0 0 0.00281703)
(0 0 0.00274276)
(0 0 0.00266841)
(0 0 0.00259398)
(0 0 0.00251947)
(0 0 0.00244489)
(0 0 0.00237024)
(0 0 0.00229553)
(0 0 0.00222075)
(0 0 0.00214592)
(0 0 0.00207103)
(0 0 0.0019961)
(0 0 0.00192111)
(0 0 0.00184608)
(0 0 0.00177101)
(0 0 0.0016959)
(0 0 0.00162075)
(0 0 0.00154557)
(0 0 0.00147036)
(0 0 0.00139511)
(0 0 0.00131984)
(0 0 0.00124455)
(0 0 0.00116923)
(0 0 0.00109389)
(0 0 0.00101853)
(0 0 0.000943152)
(0 0 0.000867758)
(0 0 0.000792348)
(0 0 0.000716925)
(0 0 0.000641491)
(0 0 0.000566045)
(0 0 0.000490591)
(0 0 0.000415128)
(0 0 0.000339659)
(0 0 0.000264185)
(0 0 0.000188707)
(0 0 0.000113225)
(0 0 3.77419e-05)
(0 0 6.4397e-05)
(0 0 0.000193189)
(0 0 0.000321976)
(0 0 0.000450754)
(0 0 0.000579519)
(0 0 0.000708268)
(0 0 0.000836997)
(0 0 0.000965702)
(0 0 0.00109438)
(0 0 0.00122302)
(0 0 0.00135163)
(0 0 0.00148019)
(0 0 0.00160871)
(0 0 0.00173718)
(0 0 0.00186558)
(0 0 0.00199392)
(0 0 0.0021222)
(0 0 0.00225039)
(0 0 0.0023785)
(0 0 0.00250652)
(0 0 0.00263444)
(0 0 0.00276225)
(0 0 0.00288994)
(0 0 0.0030175)
(0 0 0.00314493)
(0 0 0.0032722)
(0 0 0.00339932)
(0 0 0.00352627)
(0 0 0.00365303)
(0 0 0.0037796)
(0 0 0.00390596)
(0 0 0.00403209)
(0 0 0.00415798)
(0 0 0.00428361)
(0 0 0.00440898)
(0 0 0.00453405)
(0 0 0.00465882)
(0 0 0.00478326)
(0 0 0.00490735)
(0 0 0.00503108)
(0 0 0.00515442)
(0 0 0.00527735)
(0 0 0.00539986)
(0 0 0.0055219)
(0 0 0.00564347)
(0 0 0.00576454)
(0 0 0.00588508)
(0 0 0.00600506)
(0 0 0.00612446)
(0 0 0.00624325)
(0 0 0.00636141)
(0 0 0.00647889)
(0 0 0.00659568)
(0 0 0.00671174)
(0 0 0.00682704)
(0 0 0.00694155)
(0 0 0.00705523)
(0 0 0.00716806)
(0 0 0.00727999)
(0 0 0.00739101)
(0 0 0.00750106)
(0 0 0.00761011)
(0 0 0.00771814)
(0 0 0.0078251)
(0 0 0.00793095)
(0 0 0.00803567)
(0 0 0.0081392)
(0 0 0.00824153)
(0 0 0.0083426)
(0 0 0.00844238)
(0 0 0.00854083)
(0 0 0.00863792)
(0 0 0.00873361)
(0 0 0.00882785)
(0 0 0.00892062)
(0 0 0.00901187)
(0 0 0.00910157)
(0 0 0.00918968)
(0 0 0.00927616)
(0 0 0.00936098)
(0 0 0.00944411)
(0 0 0.0095255)
(0 0 0.00960512)
(0 0 0.00968294)
(0 0 0.00975893)
(0 0 0.00983305)
(0 0 0.00990526)
(0 0 0.00997555)
(0 0 0.0100439)
(0 0 0.0101102)
(0 0 0.0101745)
(0 0 0.0102368)
(0 0 0.010297)
(0 0 0.0103551)
(0 0 0.0104111)
(0 0 0.010465)
(0 0 0.0105167)
(0 0 0.0105662)
(0 0 0.0106135)
(0 0 0.0106586)
(0 0 0.0107015)
(0 0 0.0107421)
(0 0 0.0107804)
(0 0 0.0108165)
(0 0 0.0108503)
(0 0 0.0108818)
(0 0 0.010911)
(0 0 0.0109379)
(0 0 0.0109625)
(0 0 0.0109848)
(0 0 0.0110048)
(0 0 0.0110225)
(0 0 0.0110378)
(0 0 0.0110509)
(0 0 0.0110616)
(0 0 0.0110701)
(0 0 0.0110762)
(0 0 0.0110801)
(0 0 0.0110817)
(0 0 0.0110811)
(0 0 0.0110782)
(0 0 0.011073)
(0 0 0.0110657)
(0 0 0.0110561)
(0 0 0.0110444)
(0 0 0.0110305)
(0 0 0.0110144)
(0 0 0.0109963)
(0 0 0.010976)
(0 0 0.0109536)
(0 0 0.0109292)
(0 0 0.0109027)
(0 0 0.0108742)
(0 0 0.0108438)
(0 0 0.0108114)
(0 0 0.010777)
(0 0 0.0107407)
(0 0 0.0107026)
(0 0 0.0106626)
(0 0 0.0106208)
(0 0 0.0105772)
(0 0 0.0105318)
(0 0 0.0104847)
(0 0 0.0104359)
(0 0 0.0103855)
(0 0 0.0103333)
(0 0 0.0102796)
(0 0 0.0102243)
(0 0 0.0101675)
(0 0 0.0101091)
(0 0 0.0100493)
(0 0 0.00998796)
(0 0 0.00992524)
(0 0 0.00986112)
(0 0 0.00979564)
(0 0 0.00972884)
(0 0 0.00966073)
(0 0 0.00959136)
(0 0 0.00952074)
(0 0 0.00944892)
(0 0 0.00937592)
(0 0 0.00930178)
(0 0 0.00922651)
(0 0 0.00915015)
(0 0 0.00907273)
(0 0 0.00899427)
(0 0 0.00891481)
(0 0 0.00883437)
(0 0 0.00875298)
(0 0 0.00867066)
(0 0 0.00858744)
(0 0 0.00850336)
(0 0 0.00841842)
(0 0 0.00833267)
(0 0 0.00824611)
(0 0 0.00815878)
(0 0 0.00807071)
(0 0 0.00798191)
(0 0 0.0078924)
(0 0 0.00780222)
(0 0 0.00771137)
(0 0 0.00761989)
(0 0 0.00752779)
(0 0 0.0074351)
(0 0 0.00734183)
(0 0 0.00724801)
(0 0 0.00715365)
(0 0 0.00705877)
(0 0 0.00696339)
(0 0 0.00686753)
(0 0 0.00677121)
(0 0 0.00667444)
(0 0 0.00657725)
(0 0 0.00647963)
(0 0 0.00638162)
(0 0 0.00628323)
(0 0 0.00618447)
(0 0 0.00608535)
(0 0 0.0059859)
(0 0 0.00588612)
(0 0 0.00578603)
(0 0 0.00568564)
(0 0 0.00558496)
(0 0 0.00548401)
(0 0 0.0053828)
(0 0 0.00528133)
(0 0 0.00517962)
(0 0 0.00507769)
(0 0 0.00497553)
(0 0 0.00487317)
(0 0 0.00477061)
(0 0 0.00466785)
(0 0 0.00456492)
(0 0 0.00446181)
(0 0 0.00435854)
(0 0 0.00425511)
(0 0 0.00415153)
(0 0 0.00404781)
(0 0 0.00394396)
(0 0 0.00383999)
(0 0 0.00373589)
(0 0 0.00363168)
(0 0 0.00352736)
(0 0 0.00342294)
(0 0 0.00331843)
(0 0 0.00321382)
(0 0 0.00310913)
(0 0 0.00300436)
(0 0 0.00289952)
(0 0 0.0027946)
(0 0 0.00268962)
(0 0 0.00258457)
(0 0 0.00247947)
(0 0 0.00237431)
(0 0 0.0022691)
(0 0 0.00216384)
(0 0 0.00205854)
(0 0 0.0019532)
(0 0 0.00184782)
(0 0 0.0017424)
(0 0 0.00163695)
(0 0 0.00153147)
(0 0 0.00142597)
(0 0 0.00132044)
(0 0 0.00121488)
(0 0 0.00110931)
(0 0 0.00100371)
(0 0 0.000898102)
(0 0 0.000792476)
(0 0 0.000686838)
(0 0 0.000581189)
(0 0 0.000475531)
(0 0 0.000369865)
(0 0 0.000264193)
(0 0 0.000158518)
(0 0 5.28395e-05)
(0 0 8.27992e-05)
(0 0 0.000248395)
(0 0 0.000413985)
(0 0 0.000579562)
(0 0 0.000745124)
(0 0 0.000910666)
(0 0 0.00107618)
(0 0 0.00124167)
(0 0 0.00140711)
(0 0 0.00157252)
(0 0 0.00173788)
(0 0 0.00190319)
(0 0 0.00206843)
(0 0 0.00223361)
(0 0 0.00239872)
(0 0 0.00256374)
(0 0 0.00272867)
(0 0 0.00289351)
(0 0 0.00305823)
(0 0 0.00322284)
(0 0 0.00338732)
(0 0 0.00355166)
(0 0 0.00371585)
(0 0 0.00387988)
(0 0 0.00404373)
(0 0 0.00420739)
(0 0 0.00437085)
(0 0 0.00453409)
(0 0 0.0046971)
(0 0 0.00485985)
(0 0 0.00502233)
(0 0 0.00518453)
(0 0 0.00534641)
(0 0 0.00550797)
(0 0 0.00566918)
(0 0 0.00583002)
(0 0 0.00599047)
(0 0 0.0061505)
(0 0 0.00631008)
(0 0 0.0064692)
(0 0 0.00662782)
(0 0 0.00678591)
(0 0 0.00694345)
(0 0 0.00710041)
(0 0 0.00725676)
(0 0 0.00741246)
(0 0 0.00756748)
(0 0 0.00772179)
(0 0 0.00787536)
(0 0 0.00802814)
(0 0 0.0081801)
(0 0 0.0083312)
(0 0 0.00848141)
(0 0 0.00863068)
(0 0 0.00877898)
(0 0 0.00892626)
(0 0 0.00907248)
(0 0 0.0092176)
(0 0 0.00936158)
(0 0 0.00950437)
(0 0 0.00964592)
(0 0 0.0097862)
(0 0 0.00992515)
(0 0 0.0100627)
(0 0 0.0101989)
(0 0 0.0103336)
(0 0 0.0104668)
(0 0 0.0105984)
(0 0 0.0107284)
(0 0 0.0108568)
(0 0 0.0109834)
(0 0 0.0111083)
(0 0 0.0112314)
(0 0 0.0113526)
(0 0 0.011472)
(0 0 0.0115894)
(0 0 0.0117047)
(0 0 0.0118181)
(0 0 0.0119293)
(0 0 0.0120385)
(0 0 0.0121454)
(0 0 0.0122501)
(0 0 0.0123525)
(0 0 0.0124526)
(0 0 0.0125504)
(0 0 0.0126457)
(0 0 0.0127387)
(0 0 0.0128291)
(0 0 0.012917)
(0 0 0.0130023)
(0 0 0.0130851)
(0 0 0.0131652)
(0 0 0.0132426)
(0 0 0.0133174)
(0 0 0.0133894)
(0 0 0.0134587)
(0 0 0.0135252)
(0 0 0.0135889)
(0 0 0.0136498)
(0 0 0.0137078)
(0 0 0.0137629)
(0 0 0.0138151)
(0 0 0.0138645)
(0 0 0.0139109)
(0 0 0.0139543)
(0 0 0.0139949)
(0 0 0.0140324)
(0 0 0.014067)
(0 0 0.0140987)
(0 0 0.0141273)
(0 0 0.014153)
(0 0 0.0141757)
(0 0 0.0141955)
(0 0 0.0142122)
(0 0 0.014226)
(0 0 0.0142369)
(0 0 0.0142448)
(0 0 0.0142498)
(0 0 0.0142518)
(0 0 0.0142509)
(0 0 0.0142472)
(0 0 0.0142406)
(0 0 0.0142311)
(0 0 0.0142188)
(0 0 0.0142037)
(0 0 0.0141858)
(0 0 0.0141651)
(0 0 0.0141417)
(0 0 0.0141156)
(0 0 0.0140868)
(0 0 0.0140553)
(0 0 0.0140212)
(0 0 0.0139846)
(0 0 0.0139454)
(0 0 0.0139036)
(0 0 0.0138594)
(0 0 0.0138127)
(0 0 0.0137637)
(0 0 0.0137122)
(0 0 0.0136584)
(0 0 0.0136023)
(0 0 0.0135439)
(0 0 0.0134833)
(0 0 0.0134205)
(0 0 0.0133555)
(0 0 0.0132885)
(0 0 0.0132194)
(0 0 0.0131482)
(0 0 0.0130751)
(0 0 0.013)
(0 0 0.012923)
(0 0 0.0128441)
(0 0 0.0127634)
(0 0 0.0126809)
(0 0 0.0125967)
(0 0 0.0125107)
(0 0 0.0124231)
(0 0 0.0123339)
(0 0 0.012243)
(0 0 0.0121506)
(0 0 0.0120567)
(0 0 0.0119613)
(0 0 0.0118645)
(0 0 0.0117663)
(0 0 0.0116667)
(0 0 0.0115658)
(0 0 0.0114636)
(0 0 0.0113601)
(0 0 0.0112554)
(0 0 0.0111495)
(0 0 0.0110425)
(0 0 0.0109343)
(0 0 0.0108251)
(0 0 0.0107148)
(0 0 0.0106035)
(0 0 0.0104912)
(0 0 0.0103779)
(0 0 0.0102637)
(0 0 0.0101485)
(0 0 0.0100326)
(0 0 0.00991571)
(0 0 0.00979806)
(0 0 0.00967961)
(0 0 0.0095604)
(0 0 0.00944045)
(0 0 0.00931979)
(0 0 0.00919843)
(0 0 0.00907642)
(0 0 0.00895376)
(0 0 0.00883048)
(0 0 0.00870661)
(0 0 0.00858217)
(0 0 0.00845717)
(0 0 0.00833164)
(0 0 0.0082056)
(0 0 0.00807907)
(0 0 0.00795207)
(0 0 0.00782461)
(0 0 0.00769672)
(0 0 0.00756841)
(0 0 0.0074397)
(0 0 0.0073106)
(0 0 0.00718114)
(0 0 0.00705132)
(0 0 0.00692117)
(0 0 0.0067907)
(0 0 0.00665991)
(0 0 0.00652883)
(0 0 0.00639747)
(0 0 0.00626585)
(0 0 0.00613396)
(0 0 0.00600183)
(0 0 0.00586947)
(0 0 0.00573689)
(0 0 0.0056041)
(0 0 0.00547111)
(0 0 0.00533793)
(0 0 0.00520456)
(0 0 0.00507103)
(0 0 0.00493733)
(0 0 0.00480348)
(0 0 0.00466949)
(0 0 0.00453536)
(0 0 0.00440109)
(0 0 0.00426671)
(0 0 0.00413221)
(0 0 0.0039976)
(0 0 0.00386288)
(0 0 0.00372807)
(0 0 0.00359317)
(0 0 0.00345819)
(0 0 0.00332312)
(0 0 0.00318798)
(0 0 0.00305277)
(0 0 0.0029175)
(0 0 0.00278216)
(0 0 0.00264677)
(0 0 0.00251132)
(0 0 0.00237583)
(0 0 0.00224029)
(0 0 0.00210471)
(0 0 0.00196909)
(0 0 0.00183343)
(0 0 0.00169774)
(0 0 0.00156203)
(0 0 0.00142628)
(0 0 0.00129052)
(0 0 0.00115473)
(0 0 0.00101892)
(0 0 0.000883097)
(0 0 0.000747259)
(0 0 0.00061141)
(0 0 0.000475551)
(0 0 0.000339684)
(0 0 0.000203813)
(0 0 6.79379e-05)
(0 0 0.000101204)
(0 0 0.000303608)
(0 0 0.000506005)
(0 0 0.000708387)
(0 0 0.000910751)
(0 0 0.00111309)
(0 0 0.0013154)
(0 0 0.00151767)
(0 0 0.00171989)
(0 0 0.00192207)
(0 0 0.00212419)
(0 0 0.00232624)
(0 0 0.00252822)
(0 0 0.00273012)
(0 0 0.00293193)
(0 0 0.00313365)
(0 0 0.00333525)
(0 0 0.00353673)
(0 0 0.00373808)
(0 0 0.00393929)
(0 0 0.00414034)
(0 0 0.00434123)
(0 0 0.00454193)
(0 0 0.00474244)
(0 0 0.00494273)
(0 0 0.00514279)
(0 0 0.0053426)
(0 0 0.00554215)
(0 0 0.00574141)
(0 0 0.00594037)
(0 0 0.006139)
(0 0 0.00633727)
(0 0 0.00653518)
(0 0 0.00673268)
(0 0 0.00692976)
(0 0 0.00712639)
(0 0 0.00732254)
(0 0 0.00751818)
(0 0 0.00771328)
(0 0 0.00790781)
(0 0 0.00810174)
(0 0 0.00829502)
(0 0 0.00848764)
(0 0 0.00867954)
(0 0 0.00887069)
(0 0 0.00906106)
(0 0 0.0092506)
(0 0 0.00943927)
(0 0 0.00962703)
(0 0 0.00981384)
(0 0 0.00999965)
(0 0 0.0101844)
(0 0 0.0103681)
(0 0 0.0105506)
(0 0 0.0107319)
(0 0 0.010912)
(0 0 0.0110908)
(0 0 0.0112683)
(0 0 0.0114444)
(0 0 0.011619)
(0 0 0.0117921)
(0 0 0.0119636)
(0 0 0.0121335)
(0 0 0.0123018)
(0 0 0.0124683)
(0 0 0.012633)
(0 0 0.0127959)
(0 0 0.0129569)
(0 0 0.0131159)
(0 0 0.0132729)
(0 0 0.0134278)
(0 0 0.0135805)
(0 0 0.013731)
(0 0 0.0138793)
(0 0 0.0140253)
(0 0 0.0141688)
(0 0 0.01431)
(0 0 0.0144486)
(0 0 0.0145847)
(0 0 0.0147181)
(0 0 0.0148489)
(0 0 0.014977)
(0 0 0.0151023)
(0 0 0.0152247)
(0 0 0.0153443)
(0 0 0.0154609)
(0 0 0.0155745)
(0 0 0.0156851)
(0 0 0.0157926)
(0 0 0.015897)
(0 0 0.0159982)
(0 0 0.0160962)
(0 0 0.0161909)
(0 0 0.0162824)
(0 0 0.0163705)
(0 0 0.0164552)
(0 0 0.0165365)
(0 0 0.0166144)
(0 0 0.0166888)
(0 0 0.0167598)
(0 0 0.0168272)
(0 0 0.0168911)
(0 0 0.0169514)
(0 0 0.0170082)
(0 0 0.0170613)
(0 0 0.0171109)
(0 0 0.0171568)
(0 0 0.0171991)
(0 0 0.0172378)
(0 0 0.0172728)
(0 0 0.0173042)
(0 0 0.0173319)
(0 0 0.017356)
(0 0 0.0173765)
(0 0 0.0173934)
(0 0 0.0174066)
(0 0 0.0174163)
(0 0 0.0174223)
(0 0 0.0174248)
(0 0 0.0174237)
(0 0 0.0174191)
(0 0 0.017411)
(0 0 0.0173993)
(0 0 0.0173842)
(0 0 0.0173657)
(0 0 0.0173438)
(0 0 0.0173185)
(0 0 0.0172898)
(0 0 0.0172578)
(0 0 0.0172225)
(0 0 0.017184)
(0 0 0.0171423)
(0 0 0.0170975)
(0 0 0.0170495)
(0 0 0.0169984)
(0 0 0.0169443)
(0 0 0.0168872)
(0 0 0.0168271)
(0 0 0.0167641)
(0 0 0.0166983)
(0 0 0.0166296)
(0 0 0.0165582)
(0 0 0.016484)
(0 0 0.0164072)
(0 0 0.0163277)
(0 0 0.0162457)
(0 0 0.0161611)
(0 0 0.0160741)
(0 0 0.0159846)
(0 0 0.0158928)
(0 0 0.0157986)
(0 0 0.0157021)
(0 0 0.0156034)
(0 0 0.0155025)
(0 0 0.0153994)
(0 0 0.0152943)
(0 0 0.0151871)
(0 0 0.015078)
(0 0 0.0149669)
(0 0 0.0148539)
(0 0 0.014739)
(0 0 0.0146224)
(0 0 0.0145039)
(0 0 0.0143838)
(0 0 0.014262)
(0 0 0.0141386)
(0 0 0.0140136)
(0 0 0.0138871)
(0 0 0.013759)
(0 0 0.0136296)
(0 0 0.0134987)
(0 0 0.0133664)
(0 0 0.0132328)
(0 0 0.013098)
(0 0 0.0129618)
(0 0 0.0128245)
(0 0 0.012686)
(0 0 0.0125463)
(0 0 0.0124056)
(0 0 0.0122637)
(0 0 0.0121209)
(0 0 0.011977)
(0 0 0.0118322)
(0 0 0.0116864)
(0 0 0.0115398)
(0 0 0.0113923)
(0 0 0.0112439)
(0 0 0.0110947)
(0 0 0.0109447)
(0 0 0.010794)
(0 0 0.0106426)
(0 0 0.0104904)
(0 0 0.0103376)
(0 0 0.0101842)
(0 0 0.0100301)
(0 0 0.00987538)
(0 0 0.00972012)
(0 0 0.0095643)
(0 0 0.00940795)
(0 0 0.00925109)
(0 0 0.00909375)
(0 0 0.00893593)
(0 0 0.00877767)
(0 0 0.00861897)
(0 0 0.00845987)
(0 0 0.00830037)
(0 0 0.00814049)
(0 0 0.00798026)
(0 0 0.00781968)
(0 0 0.00765878)
(0 0 0.00749756)
(0 0 0.00733605)
(0 0 0.00717425)
(0 0 0.00701219)
(0 0 0.00684986)
(0 0 0.0066873)
(0 0 0.0065245)
(0 0 0.00636148)
(0 0 0.00619826)
(0 0 0.00603483)
(0 0 0.00587122)
(0 0 0.00570743)
(0 0 0.00554348)
(0 0 0.00537936)
(0 0 0.0052151)
(0 0 0.0050507)
(0 0 0.00488616)
(0 0 0.0047215)
(0 0 0.00455672)
(0 0 0.00439183)
(0 0 0.00422684)
(0 0 0.00406175)
(0 0 0.00389657)
(0 0 0.0037313)
(0 0 0.00356595)
(0 0 0.00340053)
(0 0 0.00323505)
(0 0 0.00306949)
(0 0 0.00290388)
(0 0 0.00273821)
(0 0 0.0025725)
(0 0 0.00240673)
(0 0 0.00224093)
(0 0 0.00207508)
(0 0 0.0019092)
(0 0 0.00174328)
(0 0 0.00157734)
(0 0 0.00141137)
(0 0 0.00124538)
(0 0 0.00107937)
(0 0 0.000913341)
(0 0 0.000747298)
(0 0 0.000581244)
(0 0 0.00041518)
(0 0 0.000249111)
(0 0 8.30374e-05)
(0 0 0.000119611)
(0 0 0.000358829)
(0 0 0.000598038)
(0 0 0.000837231)
(0 0 0.0010764)
(0 0 0.00131554)
(0 0 0.00155465)
(0 0 0.00179371)
(0 0 0.00203272)
(0 0 0.00227167)
(0 0 0.00251056)
(0 0 0.00274937)
(0 0 0.00298809)
(0 0 0.00322673)
(0 0 0.00346525)
(0 0 0.00370366)
(0 0 0.00394194)
(0 0 0.00418008)
(0 0 0.00441807)
(0 0 0.0046559)
(0 0 0.00489354)
(0 0 0.00513098)
(0 0 0.00536821)
(0 0 0.00560521)
(0 0 0.00584196)
(0 0 0.00607843)
(0 0 0.00631462)
(0 0 0.0065505)
(0 0 0.00678604)
(0 0 0.00702122)
(0 0 0.00725601)
(0 0 0.0074904)
(0 0 0.00772434)
(0 0 0.00795782)
(0 0 0.0081908)
(0 0 0.00842324)
(0 0 0.00865512)
(0 0 0.00888641)
(0 0 0.00911705)
(0 0 0.00934703)
(0 0 0.0095763)
(0 0 0.00980481)
(0 0 0.0100325)
(0 0 0.0102594)
(0 0 0.0104854)
(0 0 0.0107105)
(0 0 0.0109346)
(0 0 0.0111577)
(0 0 0.0113797)
(0 0 0.0116005)
(0 0 0.0118202)
(0 0 0.0120387)
(0 0 0.0122559)
(0 0 0.0124717)
(0 0 0.0126861)
(0 0 0.0128991)
(0 0 0.0131105)
(0 0 0.0133204)
(0 0 0.0135286)
(0 0 0.0137351)
(0 0 0.0139398)
(0 0 0.0141427)
(0 0 0.0143436)
(0 0 0.0145426)
(0 0 0.0147395)
(0 0 0.0149343)
(0 0 0.015127)
(0 0 0.0153173)
(0 0 0.0155054)
(0 0 0.015691)
(0 0 0.0158742)
(0 0 0.0160549)
(0 0 0.016233)
(0 0 0.0164083)
(0 0 0.016581)
(0 0 0.0167508)
(0 0 0.0169177)
(0 0 0.0170817)
(0 0 0.0172426)
(0 0 0.0174005)
(0 0 0.0175552)
(0 0 0.0177066)
(0 0 0.0178548)
(0 0 0.0179997)
(0 0 0.0181411)
(0 0 0.018279)
(0 0 0.0184134)
(0 0 0.0185443)
(0 0 0.0186714)
(0 0 0.0187949)
(0 0 0.0189146)
(0 0 0.0190305)
(0 0 0.0191425)
(0 0 0.0192507)
(0 0 0.0193549)
(0 0 0.0194551)
(0 0 0.0195513)
(0 0 0.0196434)
(0 0 0.0197314)
(0 0 0.0198153)
(0 0 0.0198951)
(0 0 0.0199706)
(0 0 0.0200419)
(0 0 0.020109)
(0 0 0.0201719)
(0 0 0.0202305)
(0 0 0.0202848)
(0 0 0.0203348)
(0 0 0.0203805)
(0 0 0.0204219)
(0 0 0.020459)
(0 0 0.0204918)
(0 0 0.0205203)
(0 0 0.0205445)
(0 0 0.0205644)
(0 0 0.02058)
(0 0 0.0205914)
(0 0 0.0205985)
(0 0 0.0206013)
(0 0 0.0206)
(0 0 0.0205945)
(0 0 0.0205848)
(0 0 0.020571)
(0 0 0.0205531)
(0 0 0.0205312)
(0 0 0.0205052)
(0 0 0.0204752)
(0 0 0.0204412)
(0 0 0.0204033)
(0 0 0.0203616)
(0 0 0.020316)
(0 0 0.0202666)
(0 0 0.0202135)
(0 0 0.0201567)
(0 0 0.0200962)
(0 0 0.0200321)
(0 0 0.0199645)
(0 0 0.0198934)
(0 0 0.0198189)
(0 0 0.019741)
(0 0 0.0196597)
(0 0 0.0195752)
(0 0 0.0194874)
(0 0 0.0193965)
(0 0 0.0193025)
(0 0 0.0192054)
(0 0 0.0191054)
(0 0 0.0190024)
(0 0 0.0188965)
(0 0 0.0187879)
(0 0 0.0186764)
(0 0 0.0185623)
(0 0 0.0184455)
(0 0 0.0183262)
(0 0 0.0182043)
(0 0 0.0180799)
(0 0 0.0179531)
(0 0 0.017824)
(0 0 0.0176926)
(0 0 0.017559)
(0 0 0.0174231)
(0 0 0.0172851)
(0 0 0.0171451)
(0 0 0.017003)
(0 0 0.016859)
(0 0 0.016713)
(0 0 0.0165652)
(0 0 0.0164155)
(0 0 0.0162641)
(0 0 0.016111)
(0 0 0.0159562)
(0 0 0.0157998)
(0 0 0.0156419)
(0 0 0.0154824)
(0 0 0.0153214)
(0 0 0.015159)
(0 0 0.0149952)
(0 0 0.0148301)
(0 0 0.0146636)
(0 0 0.0144959)
(0 0 0.014327)
(0 0 0.0141569)
(0 0 0.0139857)
(0 0 0.0138134)
(0 0 0.01364)
(0 0 0.0134656)
(0 0 0.0132902)
(0 0 0.0131138)
(0 0 0.0129365)
(0 0 0.0127583)
(0 0 0.0125793)
(0 0 0.0123994)
(0 0 0.0122187)
(0 0 0.0120373)
(0 0 0.0118551)
(0 0 0.0116723)
(0 0 0.0114887)
(0 0 0.0113045)
(0 0 0.0111197)
(0 0 0.0109343)
(0 0 0.0107483)
(0 0 0.0105617)
(0 0 0.0103746)
(0 0 0.010187)
(0 0 0.00999896)