/*--------------------------------*- C++ -*----------------------------------*\
| =========                 |                                                 |
| \\      /  F ield         | OpenFOAM: The Open Source CFD Toolbox           |
|  \\    /   O peration     | Version:  v2012                                 |
|   \\  /    A nd           | Website:  www.openfoam.com                      |
|    \\/     M anipulation  |                                                 |
\*---------------------------------------------------------------------------*/
FoamFile
{
    version     2.0;
    format      ascii;
    class       volVectorField;
    location    "6.3";
    object      U;
}
// * * * * * * * * * * * * * * * * * * * * * * * * * * * * * * * * * * * * * //

dimensions      [0 1 -1 0 0 0 0];


internalField   nonuniform List<vector> 
65536
(
(0.000749012 -0.000749002 0)
(0.00224701 -0.000748979 0)
(0.00374495 -0.000748935 0)
(0.00524277 -0.000748869 0)
(0.00674044 -0.00074878 0)
(0.00823791 -0.000748668 0)
(0.00973514 -0.000748532 0)
(0.0112321 -0.000748371 0)
(0.0127286 -0.000748184 0)
(0.0142248 -0.00074797 0)
(0.0157206 -0.000747728 0)
(0.0172158 -0.000747455 0)
(0.0187104 -0.000747151 0)
(0.0202044 -0.000746814 0)
(0.0216977 -0.000746441 0)
(0.0231902 -0.000746032 0)
(0.0246819 -0.000745583 0)
(0.0261726 -0.000745092 0)
(0.0276623 -0.000744558 0)
(0.0291508 -0.000743976 0)
(0.0306382 -0.000743346 0)
(0.0321243 -0.000742663 0)
(0.0336089 -0.000741925 0)
(0.035092 -0.000741129 0)
(0.0365735 -0.000740272 0)
(0.0380532 -0.00073935 0)
(0.039531 -0.00073836 0)
(0.0410067 -0.000737298 0)
(0.0424802 -0.000736162 0)
(0.0439514 -0.000734947 0)
(0.0454201 -0.000733649 0)
(0.0468861 -0.000732265 0)
(0.0483492 -0.00073079 0)
(0.0498093 -0.000729221 0)
(0.0512662 -0.000727553 0)
(0.0527197 -0.000725783 0)
(0.0541694 -0.000723905 0)
(0.0556154 -0.000721916 0)
(0.0570572 -0.000719812 0)
(0.0584947 -0.000717588 0)
(0.0599277 -0.00071524 0)
(0.0613558 -0.000712763 0)
(0.0627789 -0.000710153 0)
(0.0641966 -0.000707405 0)
(0.0656086 -0.000704516 0)
(0.0670148 -0.000701481 0)
(0.0684147 -0.000698294 0)
(0.0698081 -0.000694953 0)
(0.0711947 -0.000691453 0)
(0.0725741 -0.00068779 0)
(0.073946 -0.000683959 0)
(0.0753101 -0.000679956 0)
(0.076666 -0.000675779 0)
(0.0780134 -0.000671421 0)
(0.0793519 -0.000666881 0)
(0.0806811 -0.000662155 0)
(0.0820007 -0.000657238 0)
(0.0833102 -0.000652128 0)
(0.0846094 -0.000646821 0)
(0.0858977 -0.000641315 0)
(0.0871748 -0.000635607 0)
(0.0884403 -0.000629694 0)
(0.0896938 -0.000623573 0)
(0.0909348 -0.000617244 0)
(0.092163 -0.000610703 0)
(0.0933779 -0.000603949 0)
(0.094579 -0.000596981 0)
(0.095766 -0.000589797 0)
(0.0969384 -0.000582398 0)
(0.0980958 -0.000574781 0)
(0.0992378 -0.000566946 0)
(0.100364 -0.000558895 0)
(0.101474 -0.000550626 0)
(0.102567 -0.000542141 0)
(0.103642 -0.000533441 0)
(0.104701 -0.000524526 0)
(0.105741 -0.000515398 0)
(0.106762 -0.000506059 0)
(0.107765 -0.000496511 0)
(0.108749 -0.000486758 0)
(0.109712 -0.0004768 0)
(0.110656 -0.000466643 0)
(0.111579 -0.000456289 0)
(0.112481 -0.000445742 0)
(0.113362 -0.000435005 0)
(0.114222 -0.000424085 0)
(0.115059 -0.000412985 0)
(0.115874 -0.00040171 0)
(0.116666 -0.000390267 0)
(0.117435 -0.000378659 0)
(0.118181 -0.000366894 0)
(0.118903 -0.000354977 0)
(0.119601 -0.000342915 0)
(0.120274 -0.000330715 0)
(0.120924 -0.000318383 0)
(0.121548 -0.000305927 0)
(0.122147 -0.000293354 0)
(0.122722 -0.000280671 0)
(0.12327 -0.000267886 0)
(0.123793 -0.000255006 0)
(0.12429 -0.000242041 0)
(0.124761 -0.000228997 0)
(0.125206 -0.000215884 0)
(0.125625 -0.000202709 0)
(0.126017 -0.00018948 0)
(0.126383 -0.000176206 0)
(0.126722 -0.000162896 0)
(0.127035 -0.000149558 0)
(0.12732 -0.000136199 0)
(0.127579 -0.00012283 0)
(0.127812 -0.000109458 0)
(0.128017 -9.60906e-05 0)
(0.128196 -8.27373e-05 0)
(0.128348 -6.94057e-05 0)
(0.128474 -5.6104e-05 0)
(0.128573 -4.28401e-05 0)
(0.128645 -2.96218e-05 0)
(0.128691 -1.64568e-05 0)
(0.128711 -3.35261e-06 0)
(0.128704 9.68344e-06 0)
(0.128672 2.26442e-05 0)
(0.128614 3.55227e-05 0)
(0.12853 4.83121e-05 0)
(0.12842 6.1006e-05 0)
(0.128286 7.3598e-05 0)
(0.128126 8.6082e-05 0)
(0.127941 9.84521e-05 0)
(0.127732 0.000110703 0)
(0.127498 0.000122828 0)
(0.12724 0.000134824 0)
(0.126959 0.000146685 0)
(0.126654 0.000158407 0)
(0.126325 0.000169985 0)
(0.125974 0.000181414 0)
(0.125599 0.000192693 0)
(0.125203 0.000203816 0)
(0.124784 0.00021478 0)
(0.124343 0.000225583 0)
(0.123881 0.000236222 0)
(0.123398 0.000246693 0)
(0.122894 0.000256996 0)
(0.12237 0.000267127 0)
(0.121826 0.000277085 0)
(0.121262 0.000286869 0)
(0.120678 0.000296477 0)
(0.120076 0.000305908 0)
(0.119454 0.000315162 0)
(0.118815 0.000324237 0)
(0.118157 0.000333133 0)
(0.117482 0.00034185 0)
(0.11679 0.000350387 0)
(0.11608 0.000358746 0)
(0.115354 0.000366926 0)
(0.114612 0.000374928 0)
(0.113855 0.000382753 0)
(0.113081 0.0003904 0)
(0.112293 0.000397872 0)
(0.11149 0.000405169 0)
(0.110672 0.000412293 0)
(0.10984 0.000419244 0)
(0.108995 0.000426025 0)
(0.108136 0.000432637 0)
(0.107264 0.000439082 0)
(0.106379 0.000445361 0)
(0.105482 0.000451477 0)
(0.104573 0.000457431 0)
(0.103653 0.000463225 0)
(0.10272 0.000468862 0)
(0.101777 0.000474344 0)
(0.100823 0.000479673 0)
(0.0998581 0.000484851 0)
(0.0988832 0.00048988 0)
(0.0978984 0.000494764 0)
(0.096904 0.000499504 0)
(0.0959003 0.000504103 0)
(0.0948875 0.000508564 0)
(0.0938659 0.000512888 0)
(0.0928358 0.000517079 0)
(0.0917975 0.000521139 0)
(0.0907511 0.000525071 0)
(0.089697 0.000528877 0)
(0.0886355 0.000532559 0)
(0.0875667 0.000536121 0)
(0.0864909 0.000539565 0)
(0.0854083 0.000542893 0)
(0.0843192 0.000546109 0)
(0.0832238 0.000549214 0)
(0.0821222 0.000552211 0)
(0.0810148 0.000555103 0)
(0.0799017 0.000557892 0)
(0.0787832 0.000560581 0)
(0.0776593 0.000563172 0)
(0.0765304 0.000565668 0)
(0.0753966 0.00056807 0)
(0.074258 0.000570383 0)
(0.0731149 0.000572607 0)
(0.0719675 0.000574746 0)
(0.0708159 0.000576801 0)
(0.0696602 0.000578775 0)
(0.0685007 0.00058067 0)
(0.0673375 0.000582489 0)
(0.0661707 0.000584233 0)
(0.0650005 0.000585905 0)
(0.063827 0.000587508 0)
(0.0626504 0.000589042 0)
(0.0614707 0.000590511 0)
(0.0602883 0.000591915 0)
(0.059103 0.000593258 0)
(0.0579152 0.000594542 0)
(0.0567248 0.000595767 0)
(0.055532 0.000596937 0)
(0.054337 0.000598052 0)
(0.0531398 0.000599116 0)
(0.0519405 0.000600129 0)
(0.0507392 0.000601094 0)
(0.0495361 0.000602011 0)
(0.0483311 0.000602884 0)
(0.0471245 0.000603713 0)
(0.0459162 0.0006045 0)
(0.0447064 0.000605247 0)
(0.0434952 0.000605955 0)
(0.0422826 0.000606626 0)
(0.0410687 0.000607261 0)
(0.0398535 0.000607861 0)
(0.0386372 0.000608429 0)
(0.0374198 0.000608965 0)
(0.0362013 0.000609471 0)
(0.0349819 0.000609947 0)
(0.0337615 0.000610396 0)
(0.0325402 0.000610818 0)
(0.0313182 0.000611215 0)
(0.0300954 0.000611587 0)
(0.0288718 0.000611936 0)
(0.0276476 0.000612263 0)
(0.0264227 0.000612568 0)
(0.0251973 0.000612853 0)
(0.0239713 0.000613119 0)
(0.0227448 0.000613365 0)
(0.0215178 0.000613594 0)
(0.0202904 0.000613807 0)
(0.0190626 0.000614002 0)
(0.0178344 0.000614182 0)
(0.0166058 0.000614348 0)
(0.015377 0.000614499 0)
(0.0141478 0.000614636 0)
(0.0129184 0.00061476 0)
(0.0116888 0.000614871 0)
(0.0104589 0.000614969 0)
(0.0092289 0.000615056 0)
(0.0079987 0.000615131 0)
(0.00676836 0.000615195 0)
(0.00553791 0.000615248 0)
(0.00430736 0.00061529 0)
(0.00307674 0.000615321 0)
(0.00184606 0.000615342 0)
(0.000615357 0.000615352 0)
(0.000749032 -0.00224702 0)
(0.00224707 -0.00224696 0)
(0.00374505 -0.00224682 0)
(0.00524292 -0.00224663 0)
(0.00674064 -0.00224636 0)
(0.00823815 -0.00224603 0)
(0.00973542 -0.00224562 0)
(0.0112324 -0.00224514 0)
(0.012729 -0.00224458 0)
(0.0142253 -0.00224394 0)
(0.0157211 -0.00224321 0)
(0.0172163 -0.00224239 0)
(0.018711 -0.00224148 0)
(0.0202051 -0.00224047 0)
(0.0216985 -0.00223936 0)
(0.023191 -0.00223813 0)
(0.0246828 -0.00223679 0)
(0.0261736 -0.00223532 0)
(0.0276634 -0.00223372 0)
(0.029152 -0.00223198 0)
(0.0306395 -0.00223009 0)
(0.0321257 -0.00222804 0)
(0.0336104 -0.00222583 0)
(0.0350937 -0.00222345 0)
(0.0365752 -0.00222088 0)
(0.0380551 -0.00221811 0)
(0.039533 -0.00221515 0)
(0.0410088 -0.00221197 0)
(0.0424825 -0.00220856 0)
(0.0439539 -0.00220492 0)
(0.0454227 -0.00220103 0)
(0.0468889 -0.00219688 0)
(0.0483522 -0.00219246 0)
(0.0498125 -0.00218776 0)
(0.0512696 -0.00218276 0)
(0.0527233 -0.00217745 0)
(0.0541733 -0.00217182 0)
(0.0556194 -0.00216586 0)
(0.0570615 -0.00215955 0)
(0.0584993 -0.00215289 0)
(0.0599325 -0.00214585 0)
(0.0613609 -0.00213842 0)
(0.0627842 -0.00213059 0)
(0.0642022 -0.00212236 0)
(0.0656145 -0.00211369 0)
(0.0670209 -0.00210459 0)
(0.0684212 -0.00209504 0)
(0.0698149 -0.00208502 0)
(0.0712018 -0.00207452 0)
(0.0725815 -0.00206353 0)
(0.0739538 -0.00205205 0)
(0.0753182 -0.00204004 0)
(0.0766745 -0.00202751 0)
(0.0780222 -0.00201444 0)
(0.0793611 -0.00200083 0)
(0.0806907 -0.00198665 0)
(0.0820106 -0.0019719 0)
(0.0833206 -0.00195658 0)
(0.0846201 -0.00194066 0)
(0.0859089 -0.00192414 0)
(0.0871864 -0.00190702 0)
(0.0884523 -0.00188929 0)
(0.0897062 -0.00187093 0)
(0.0909476 -0.00185194 0)
(0.0921762 -0.00183232 0)
(0.0933915 -0.00181206 0)
(0.0945931 -0.00179116 0)
(0.0957805 -0.00176961 0)
(0.0969533 -0.00174741 0)
(0.0981112 -0.00172456 0)
(0.0992536 -0.00170105 0)
(0.10038 -0.0016769 0)
(0.10149 -0.00165209 0)
(0.102584 -0.00162664 0)
(0.10366 -0.00160053 0)
(0.104718 -0.00157379 0)
(0.105759 -0.0015464 0)
(0.106781 -0.00151838 0)
(0.107784 -0.00148974 0)
(0.108768 -0.00146047 0)
(0.109732 -0.0014306 0)
(0.110676 -0.00140012 0)
(0.1116 -0.00136906 0)
(0.112502 -0.00133741 0)
(0.113384 -0.0013052 0)
(0.114243 -0.00127243 0)
(0.115081 -0.00123913 0)
(0.115896 -0.0012053 0)
(0.116689 -0.00117096 0)
(0.117458 -0.00113613 0)
(0.118204 -0.00110083 0)
(0.118926 -0.00106508 0)
(0.119625 -0.00102888 0)
(0.120299 -0.000992277 0)
(0.120948 -0.000955274 0)
(0.121573 -0.000917898 0)
(0.122173 -0.000880171 0)
(0.122747 -0.000842114 0)
(0.123296 -0.000803751 0)
(0.123819 -0.000765105 0)
(0.124316 -0.000726201 0)
(0.124788 -0.000687062 0)
(0.125233 -0.000647713 0)
(0.125651 -0.000608179 0)
(0.126044 -0.000568485 0)
(0.126409 -0.000528656 0)
(0.126749 -0.000488716 0)
(0.127061 -0.000448693 0)
(0.127347 -0.00040861 0)
(0.127606 -0.000368494 0)
(0.127838 -0.000328368 0)
(0.128044 -0.000288259 0)
(0.128223 -0.000248191 0)
(0.128375 -0.000208188 0)
(0.1285 -0.000168275 0)
(0.128599 -0.000128476 0)
(0.128671 -8.88133e-05 0)
(0.128717 -4.93109e-05 0)
(0.128737 -9.99106e-06 0)
(0.12873 2.91242e-05 0)
(0.128698 6.80133e-05 0)
(0.128639 0.000106655 0)
(0.128555 0.00014503 0)
(0.128446 0.000183118 0)
(0.128311 0.0002209 0)
(0.128151 0.000258358 0)
(0.127966 0.000295474 0)
(0.127756 0.000332231 0)
(0.127522 0.000368613 0)
(0.127264 0.000404606 0)
(0.126982 0.000440193 0)
(0.126677 0.000475362 0)
(0.126348 0.000510099 0)
(0.125996 0.000544393 0)
(0.125622 0.000578231 0)
(0.125225 0.000611603 0)
(0.124806 0.0006445 0)
(0.124365 0.000676911 0)
(0.123902 0.000708829 0)
(0.123419 0.000740246 0)
(0.122915 0.000771156 0)
(0.12239 0.000801551 0)
(0.121845 0.000831428 0)
(0.121281 0.000860781 0)
(0.120697 0.000889606 0)
(0.120094 0.0009179 0)
(0.119473 0.000945661 0)
(0.118833 0.000972886 0)
(0.118175 0.000999575 0)
(0.117499 0.00102573 0)
(0.116806 0.00105134 0)
(0.116097 0.00107641 0)
(0.115371 0.00110095 0)
(0.114628 0.00112496 0)
(0.11387 0.00114843 0)
(0.113096 0.00117137 0)
(0.112307 0.00119379 0)
(0.111504 0.00121568 0)
(0.110686 0.00123705 0)
(0.109854 0.0012579 0)
(0.109008 0.00127824 0)
(0.108149 0.00129808 0)
(0.107277 0.00131741 0)
(0.106392 0.00133624 0)
(0.105494 0.00135459 0)
(0.104585 0.00137245 0)
(0.103664 0.00138983 0)
(0.102731 0.00140674 0)
(0.101788 0.00142318 0)
(0.100833 0.00143917 0)
(0.0998683 0.0014547 0)
(0.0988931 0.00146978 0)
(0.097908 0.00148443 0)
(0.0969133 0.00149865 0)
(0.0959093 0.00151245 0)
(0.0948962 0.00152582 0)
(0.0938744 0.0015388 0)
(0.092844 0.00155137 0)
(0.0918054 0.00156354 0)
(0.0907588 0.00157534 0)
(0.0897045 0.00158675 0)
(0.0886427 0.0015978 0)
(0.0875737 0.00160848 0)
(0.0864976 0.00161881 0)
(0.0854148 0.00162879 0)
(0.0843255 0.00163843 0)
(0.0832299 0.00164775 0)
(0.0821281 0.00165674 0)
(0.0810205 0.00166541 0)
(0.0799072 0.00167377 0)
(0.0787884 0.00168184 0)
(0.0776644 0.00168961 0)
(0.0765353 0.00169709 0)
(0.0754013 0.0017043 0)
(0.0742625 0.00171123 0)
(0.0731193 0.00171791 0)
(0.0719717 0.00172432 0)
(0.0708199 0.00173048 0)
(0.0696641 0.0017364 0)
(0.0685044 0.00174209 0)
(0.067341 0.00174754 0)
(0.0661741 0.00175277 0)
(0.0650037 0.00175778 0)
(0.0638301 0.00176259 0)
(0.0626534 0.00176719 0)
(0.0614736 0.00177159 0)
(0.060291 0.00177581 0)
(0.0591056 0.00177983 0)
(0.0579177 0.00178368 0)
(0.0567272 0.00178736 0)
(0.0555343 0.00179086 0)
(0.0543392 0.00179421 0)
(0.0531419 0.0017974 0)
(0.0519425 0.00180043 0)
(0.0507411 0.00180333 0)
(0.0495379 0.00180608 0)
(0.0483328 0.00180869 0)
(0.0471261 0.00181118 0)
(0.0459178 0.00181354 0)
(0.0447079 0.00181578 0)
(0.0434966 0.0018179 0)
(0.0422839 0.00181991 0)
(0.0410699 0.00182182 0)
(0.0398547 0.00182362 0)
(0.0386383 0.00182532 0)
(0.0374208 0.00182692 0)
(0.0362023 0.00182844 0)
(0.0349828 0.00182987 0)
(0.0337624 0.00183121 0)
(0.0325411 0.00183248 0)
(0.031319 0.00183367 0)
(0.0300961 0.00183478 0)
(0.0288725 0.00183583 0)
(0.0276482 0.00183681 0)
(0.0264233 0.00183772 0)
(0.0251979 0.00183858 0)
(0.0239718 0.00183937 0)
(0.0227453 0.00184011 0)
(0.0215183 0.0018408 0)
(0.0202908 0.00184144 0)
(0.019063 0.00184202 0)
(0.0178347 0.00184256 0)
(0.0166062 0.00184306 0)
(0.0153773 0.00184351 0)
(0.0141481 0.00184392 0)
(0.0129187 0.00184429 0)
(0.011689 0.00184462 0)
(0.0104591 0.00184492 0)
(0.00922906 0.00184518 0)
(0.00799884 0.00184541 0)
(0.00676848 0.0018456 0)
(0.005538 0.00184575 0)
(0.00430743 0.00184588 0)
(0.00307679 0.00184597 0)
(0.00184609 0.00184604 0)
(0.000615368 0.00184607 0)
(0.000749076 -0.00374511 0)
(0.00224721 -0.003745 0)
(0.00374527 -0.00374478 0)
(0.00524323 -0.00374445 0)
(0.00674104 -0.00374401 0)
(0.00823865 -0.00374346 0)
(0.00973602 -0.00374278 0)
(0.0112331 -0.00374198 0)
(0.0127298 -0.00374105 0)
(0.0142262 -0.00373999 0)
(0.0157221 -0.00373878 0)
(0.0172175 -0.00373743 0)
(0.0187123 -0.00373592 0)
(0.0202065 -0.00373424 0)
(0.0217 -0.00373239 0)
(0.0231928 -0.00373035 0)
(0.0246847 -0.00372812 0)
(0.0261756 -0.00372568 0)
(0.0276656 -0.00372302 0)
(0.0291545 -0.00372012 0)
(0.0306421 -0.00371698 0)
(0.0321285 -0.00371358 0)
(0.0336135 -0.00370991 0)
(0.035097 -0.00370595 0)
(0.0365788 -0.00370168 0)
(0.0380589 -0.00369708 0)
(0.0395371 -0.00369215 0)
(0.0410132 -0.00368686 0)
(0.0424872 -0.0036812 0)
(0.0439589 -0.00367514 0)
(0.0454281 -0.00366867 0)
(0.0468946 -0.00366177 0)
(0.0483583 -0.00365442 0)
(0.049819 -0.00364659 0)
(0.0512765 -0.00363827 0)
(0.0527306 -0.00362944 0)
(0.054181 -0.00362008 0)
(0.0556276 -0.00361015 0)
(0.0570702 -0.00359966 0)
(0.0585084 -0.00358856 0)
(0.0599421 -0.00357684 0)
(0.0613711 -0.00356447 0)
(0.0627949 -0.00355145 0)
(0.0642134 -0.00353773 0)
(0.0656264 -0.00352331 0)
(0.0670334 -0.00350815 0)
(0.0684342 -0.00349224 0)
(0.0698286 -0.00347556 0)
(0.0712161 -0.00345808 0)
(0.0725965 -0.00343978 0)
(0.0739695 -0.00342065 0)
(0.0753346 -0.00340065 0)
(0.0766916 -0.00337978 0)
(0.07804 -0.00335802 0)
(0.0793796 -0.00333533 0)
(0.08071 -0.00331172 0)
(0.0820307 -0.00328715 0)
(0.0833414 -0.00326162 0)
(0.0846418 -0.0032351 0)
(0.0859313 -0.00320758 0)
(0.0872097 -0.00317905 0)
(0.0884764 -0.0031495 0)
(0.0897311 -0.00311891 0)
(0.0909734 -0.00308727 0)
(0.0922028 -0.00305457 0)
(0.093419 -0.00302081 0)
(0.0946214 -0.00298598 0)
(0.0958097 -0.00295007 0)
(0.0969834 -0.00291307 0)
(0.0981421 -0.00287499 0)
(0.0992854 -0.00283582 0)
(0.100413 -0.00279556 0)
(0.101524 -0.00275421 0)
(0.102618 -0.00271178 0)
(0.103695 -0.00266827 0)
(0.104755 -0.00262369 0)
(0.105796 -0.00257804 0)
(0.106819 -0.00253134 0)
(0.107823 -0.00248359 0)
(0.108808 -0.0024348 0)
(0.109773 -0.002385 0)
(0.110717 -0.0023342 0)
(0.111642 -0.00228241 0)
(0.112545 -0.00222965 0)
(0.113427 -0.00217595 0)
(0.114288 -0.00212132 0)
(0.115126 -0.0020658 0)
(0.115942 -0.0020094 0)
(0.116735 -0.00195215 0)
(0.117505 -0.00189408 0)
(0.118252 -0.00183523 0)
(0.118975 -0.00177561 0)
(0.119673 -0.00171527 0)
(0.120348 -0.00165423 0)
(0.120998 -0.00159254 0)
(0.121623 -0.00153022 0)
(0.122223 -0.00146732 0)
(0.122798 -0.00140386 0)
(0.123347 -0.0013399 0)
(0.123871 -0.00127546 0)
(0.124368 -0.0012106 0)
(0.12484 -0.00114534 0)
(0.125285 -0.00107973 0)
(0.125704 -0.00101381 0)
(0.126097 -0.000947625 0)
(0.126463 -0.000881215 0)
(0.126802 -0.000814621 0)
(0.127115 -0.000747887 0)
(0.127401 -0.000681055 0)
(0.12766 -0.000614166 0)
(0.127892 -0.000547263 0)
(0.128097 -0.000480386 0)
(0.128276 -0.000413579 0)
(0.128428 -0.000346881 0)
(0.128553 -0.000280333 0)
(0.128652 -0.000213974 0)
(0.128724 -0.000147845 0)
(0.12877 -8.19823e-05 0)
(0.128789 -1.64247e-05 0)
(0.128782 4.87912e-05 0)
(0.128749 0.00011363 0)
(0.128691 0.000178056 0)
(0.128606 0.000242036 0)
(0.128496 0.000305537 0)
(0.128361 0.000368527 0)
(0.1282 0.000430976 0)
(0.128015 0.000492854 0)
(0.127805 0.000554134 0)
(0.127571 0.000614789 0)
(0.127312 0.000674792 0)
(0.12703 0.00073412 0)
(0.126723 0.000792749 0)
(0.126394 0.000850658 0)
(0.126042 0.000907827 0)
(0.125666 0.000964236 0)
(0.125269 0.00101987 0)
(0.124849 0.0010747 0)
(0.124408 0.00112873 0)
(0.123945 0.00118194 0)
(0.123461 0.00123431 0)
(0.122956 0.00128583 0)
(0.12243 0.0013365 0)
(0.121885 0.00138629 0)
(0.12132 0.00143522 0)
(0.120735 0.00148327 0)
(0.120132 0.00153043 0)
(0.119509 0.0015767 0)
(0.118869 0.00162207 0)
(0.11821 0.00166655 0)
(0.117534 0.00171014 0)
(0.11684 0.00175283 0)
(0.11613 0.00179462 0)
(0.115403 0.00183552 0)
(0.11466 0.00187552 0)
(0.113901 0.00191464 0)
(0.113127 0.00195287 0)
(0.112337 0.00199023 0)
(0.111533 0.00202671 0)
(0.110714 0.00206232 0)
(0.109881 0.00209707 0)
(0.109035 0.00213097 0)
(0.108175 0.00216402 0)
(0.107302 0.00219623 0)
(0.106417 0.00222762 0)
(0.105519 0.00225819 0)
(0.104609 0.00228795 0)
(0.103687 0.00231691 0)
(0.102754 0.00234508 0)
(0.101809 0.00237248 0)
(0.100854 0.00239911 0)
(0.0998887 0.00242499 0)
(0.0989129 0.00245013 0)
(0.0979273 0.00247453 0)
(0.096932 0.00249822 0)
(0.0959274 0.0025212 0)
(0.0949138 0.00254349 0)
(0.0938914 0.0025651 0)
(0.0928605 0.00258605 0)
(0.0918214 0.00260633 0)
(0.0907743 0.00262598 0)
(0.0897195 0.00264499 0)
(0.0886572 0.00266339 0)
(0.0875877 0.00268119 0)
(0.0865112 0.0026984 0)
(0.0854279 0.00271503 0)
(0.0843382 0.00273109 0)
(0.0832421 0.0027466 0)
(0.0821399 0.00276158 0)
(0.0810319 0.00277602 0)
(0.0799182 0.00278996 0)
(0.078799 0.00280339 0)
(0.0776746 0.00281633 0)
(0.0765451 0.0028288 0)
(0.0754107 0.0028408 0)
(0.0742716 0.00285235 0)
(0.073128 0.00286346 0)
(0.0719801 0.00287414 0)
(0.0708279 0.00288441 0)
(0.0696718 0.00289427 0)
(0.0685118 0.00290373 0)
(0.0673481 0.00291281 0)
(0.0661809 0.00292152 0)
(0.0650103 0.00292987 0)
(0.0638364 0.00293788 0)
(0.0626594 0.00294554 0)
(0.0614794 0.00295287 0)
(0.0602965 0.00295988 0)
(0.0591109 0.00296659 0)
(0.0579227 0.002973 0)
(0.056732 0.00297911 0)
(0.0555389 0.00298495 0)
(0.0543435 0.00299052 0)
(0.053146 0.00299583 0)
(0.0519464 0.00300089 0)
(0.0507449 0.0030057 0)
(0.0495414 0.00301028 0)
(0.0483362 0.00301464 0)
(0.0471293 0.00301877 0)
(0.0459208 0.0030227 0)
(0.0447108 0.00302643 0)
(0.0434993 0.00302996 0)
(0.0422865 0.00303331 0)
(0.0410724 0.00303647 0)
(0.039857 0.00303947 0)
(0.0386405 0.0030423 0)
(0.0374229 0.00304498 0)
(0.0362042 0.0030475 0)
(0.0349846 0.00304988 0)
(0.0337641 0.00305211 0)
(0.0325427 0.00305422 0)
(0.0313205 0.0030562 0)
(0.0300975 0.00305805 0)
(0.0288738 0.00305979 0)
(0.0276495 0.00306142 0)
(0.0264245 0.00306294 0)
(0.025199 0.00306436 0)
(0.0239728 0.00306569 0)
(0.0227462 0.00306692 0)
(0.0215192 0.00306806 0)
(0.0202916 0.00306911 0)
(0.0190637 0.00307009 0)
(0.0178354 0.00307099 0)
(0.0166068 0.00307181 0)
(0.0153778 0.00307256 0)
(0.0141486 0.00307324 0)
(0.0129191 0.00307386 0)
(0.0116894 0.00307441 0)
(0.0104595 0.00307491 0)
(0.00922938 0.00307534 0)
(0.00799911 0.00307571 0)
(0.00676871 0.00307603 0)
(0.00553819 0.00307629 0)
(0.00430758 0.0030765 0)
(0.00307689 0.00307666 0)
(0.00184616 0.00307676 0)
(0.000615389 0.00307681 0)
(0.000749141 -0.0052433 0)
(0.0022474 -0.00524315 0)
(0.0037456 -0.00524285 0)
(0.00524369 -0.00524239 0)
(0.00674164 -0.00524178 0)
(0.00823939 -0.00524101 0)
(0.00973691 -0.00524007 0)
(0.0112341 -0.00523895 0)
(0.012731 -0.00523766 0)
(0.0142276 -0.00523618 0)
(0.0157236 -0.00523451 0)
(0.0172192 -0.00523262 0)
(0.0187142 -0.00523052 0)
(0.0202086 -0.00522818 0)
(0.0217024 -0.0052256 0)
(0.0231953 -0.00522277 0)
(0.0246875 -0.00521966 0)
(0.0261787 -0.00521626 0)
(0.0276689 -0.00521255 0)
(0.0291581 -0.00520852 0)
(0.0306461 -0.00520414 0)
(0.0321328 -0.0051994 0)
(0.0336181 -0.00519428 0)
(0.0351019 -0.00518875 0)
(0.0365841 -0.0051828 0)
(0.0380646 -0.00517639 0)
(0.0395432 -0.00516951 0)
(0.0410198 -0.00516213 0)
(0.0424943 -0.00515423 0)
(0.0439664 -0.00514578 0)
(0.0454361 -0.00513675 0)
(0.0469032 -0.00512711 0)
(0.0483675 -0.00511684 0)
(0.0498287 -0.00510592 0)
(0.0512868 -0.0050943 0)
(0.0527415 -0.00508197 0)
(0.0541926 -0.00506889 0)
(0.0556399 -0.00505503 0)
(0.0570832 -0.00504036 0)
(0.0585221 -0.00502485 0)
(0.0599566 -0.00500847 0)
(0.0613863 -0.0049912 0)
(0.062811 -0.00497299 0)
(0.0642304 -0.00495382 0)
(0.0656442 -0.00493365 0)
(0.0670521 -0.00491247 0)
(0.0684538 -0.00489022 0)
(0.0698491 -0.00486689 0)
(0.0712376 -0.00484245 0)
(0.072619 -0.00481687 0)
(0.073993 -0.00479011 0)
(0.0753591 -0.00476215 0)
(0.0767172 -0.00473295 0)
(0.0780667 -0.00470251 0)
(0.0794074 -0.00467078 0)
(0.0807389 -0.00463774 0)
(0.0820608 -0.00460337 0)
(0.0833727 -0.00456764 0)
(0.0846742 -0.00453054 0)
(0.085965 -0.00449203 0)
(0.0872446 -0.00445211 0)
(0.0885125 -0.00441075 0)
(0.0897685 -0.00436794 0)
(0.0910121 -0.00432366 0)
(0.0922428 -0.0042779 0)
(0.0934602 -0.00423064 0)
(0.0946639 -0.00418188 0)
(0.0958535 -0.00413161 0)
(0.0970285 -0.00407982 0)
(0.0981886 -0.0040265 0)
(0.0993331 -0.00397166 0)
(0.100462 -0.0039153 0)
(0.101574 -0.00385741 0)
(0.10267 -0.003798 0)
(0.103748 -0.00373708 0)
(0.104809 -0.00367466 0)
(0.105852 -0.00361074 0)
(0.106876 -0.00354533 0)
(0.107881 -0.00347847 0)
(0.108867 -0.00341015 0)
(0.109833 -0.00334041 0)
(0.110779 -0.00326925 0)
(0.111705 -0.00319672 0)
(0.112609 -0.00312283 0)
(0.113492 -0.00304762 0)
(0.114354 -0.00297111 0)
(0.115193 -0.00289334 0)
(0.11601 -0.00281434 0)
(0.116804 -0.00273416 0)
(0.117575 -0.00265282 0)
(0.118323 -0.00257038 0)
(0.119047 -0.00248687 0)
(0.119746 -0.00240235 0)
(0.120422 -0.00231685 0)
(0.121072 -0.00223043 0)
(0.121698 -0.00214313 0)
(0.122299 -0.00205501 0)
(0.122875 -0.00196612 0)
(0.123424 -0.00187652 0)
(0.123948 -0.00178625 0)
(0.124447 -0.00169538 0)
(0.124919 -0.00160396 0)
(0.125364 -0.00151205 0)
(0.125784 -0.00141971 0)
(0.126176 -0.00132699 0)
(0.126543 -0.00123396 0)
(0.126882 -0.00114067 0)
(0.127195 -0.00104718 0)
(0.127481 -0.000953556 0)
(0.12774 -0.000859852 0)
(0.127972 -0.000766129 0)
(0.128178 -0.000672445 0)
(0.128356 -0.000578857 0)
(0.128508 -0.000485424 0)
(0.128633 -0.0003922 0)
(0.128732 -0.000299244 0)
(0.128803 -0.000206608 0)
(0.128849 -0.000114348 0)
(0.128868 -2.25164e-05 0)
(0.12886 6.88361e-05 0)
(0.128827 0.000159659 0)
(0.128768 0.000249903 0)
(0.128683 0.000339521 0)
(0.128572 0.000428466 0)
(0.128436 0.000516695 0)
(0.128275 0.000604165 0)
(0.128089 0.000690834 0)
(0.127878 0.000776664 0)
(0.127643 0.000861616 0)
(0.127384 0.000945655 0)
(0.1271 0.00102875 0)
(0.126793 0.00111086 0)
(0.126463 0.00119196 0)
(0.12611 0.00127202 0)
(0.125734 0.00135102 0)
(0.125335 0.00142893 0)
(0.124915 0.00150572 0)
(0.124472 0.00158138 0)
(0.124008 0.00165588 0)
(0.123523 0.00172922 0)
(0.123017 0.00180136 0)
(0.122491 0.00187231 0)
(0.121944 0.00194204 0)
(0.121378 0.00201054 0)
(0.120792 0.00207781 0)
(0.120188 0.00214384 0)
(0.119564 0.00220862 0)
(0.118923 0.00227216 0)
(0.118263 0.00233443 0)
(0.117586 0.00239545 0)
(0.116891 0.00245521 0)
(0.11618 0.00251372 0)
(0.115452 0.00257097 0)
(0.114707 0.00262698 0)
(0.113947 0.00268174 0)
(0.113172 0.00273526 0)
(0.112381 0.00278754 0)
(0.111576 0.00283861 0)
(0.110756 0.00288845 0)
(0.109923 0.00293709 0)
(0.109075 0.00298454 0)
(0.108214 0.0030308 0)
(0.10734 0.00307589 0)
(0.106454 0.00311981 0)
(0.105555 0.00316259 0)
(0.104644 0.00320424 0)
(0.103721 0.00324478 0)
(0.102787 0.0032842 0)
(0.101842 0.00332254 0)
(0.100886 0.00335981 0)
(0.0999193 0.00339603 0)
(0.0989427 0.0034312 0)
(0.0979562 0.00346535 0)
(0.0969601 0.0034985 0)
(0.0959546 0.00353066 0)
(0.0949402 0.00356184 0)
(0.093917 0.00359208 0)
(0.0928853 0.00362138 0)
(0.0918454 0.00364977 0)
(0.0907975 0.00367725 0)
(0.089742 0.00370386 0)
(0.0886789 0.0037296 0)
(0.0876087 0.00375449 0)
(0.0865315 0.00377857 0)
(0.0854476 0.00380183 0)
(0.0843571 0.0038243 0)
(0.0832604 0.003846 0)
(0.0821576 0.00386694 0)
(0.0810489 0.00388715 0)
(0.0799346 0.00390664 0)
(0.0788148 0.00392543 0)
(0.0776898 0.00394353 0)
(0.0765598 0.00396097 0)
(0.0754248 0.00397776 0)
(0.0742852 0.00399391 0)
(0.0731411 0.00400945 0)
(0.0719926 0.00402438 0)
(0.07084 0.00403874 0)
(0.0696834 0.00405252 0)
(0.068523 0.00406576 0)
(0.0673588 0.00407846 0)
(0.0661911 0.00409064 0)
(0.0650201 0.00410231 0)
(0.0638458 0.0041135 0)
(0.0626684 0.00412421 0)
(0.061488 0.00413446 0)
(0.0603047 0.00414427 0)
(0.0591188 0.00415364 0)
(0.0579302 0.0041626 0)
(0.0567392 0.00417115 0)
(0.0555457 0.00417931 0)
(0.0543501 0.00418709 0)
(0.0531522 0.00419451 0)
(0.0519523 0.00420158 0)
(0.0507505 0.00420831 0)
(0.0495468 0.00421471 0)
(0.0483413 0.00422079 0)
(0.0471342 0.00422657 0)
(0.0459254 0.00423206 0)
(0.0447152 0.00423727 0)
(0.0435035 0.0042422 0)
(0.0422904 0.00424688 0)
(0.0410761 0.0042513 0)
(0.0398605 0.00425549 0)
(0.0386438 0.00425944 0)
(0.037426 0.00426318 0)
(0.0362072 0.0042667 0)
(0.0349874 0.00427002 0)
(0.0337667 0.00427315 0)
(0.0325451 0.00427608 0)
(0.0313228 0.00427885 0)
(0.0300997 0.00428144 0)
(0.0288759 0.00428386 0)
(0.0276514 0.00428614 0)
(0.0264263 0.00428826 0)
(0.0252006 0.00429024 0)
(0.0239744 0.00429209 0)
(0.0227477 0.00429381 0)
(0.0215205 0.0042954 0)
(0.0202929 0.00429687 0)
(0.0190648 0.00429823 0)
(0.0178365 0.00429949 0)
(0.0166077 0.00430063 0)
(0.0153787 0.00430168 0)
(0.0141494 0.00430264 0)
(0.0129198 0.0043035 0)
(0.01169 0.00430427 0)
(0.01046 0.00430495 0)
(0.00922986 0.00430556 0)
(0.00799953 0.00430608 0)
(0.00676906 0.00430652 0)
(0.00553847 0.00430689 0)
(0.0043078 0.00430718 0)
(0.00307705 0.0043074 0)
(0.00184625 0.00430754 0)
(0.00061542 0.00430761 0)
(0.000749227 -0.00674165 0)
(0.00224766 -0.00674146 0)
(0.00374604 -0.00674107 0)
(0.00524431 -0.00674049 0)
(0.00674243 -0.00673971 0)
(0.00824037 -0.00673873 0)
(0.00973808 -0.00673753 0)
(0.0112355 -0.00673611 0)
(0.0127326 -0.00673446 0)
(0.0142294 -0.00673258 0)
(0.0157257 -0.00673044 0)
(0.0172215 -0.00672803 0)
(0.0187168 -0.00672535 0)
(0.0202114 -0.00672237 0)
(0.0217055 -0.00671908 0)
(0.0231987 -0.00671546 0)
(0.0246912 -0.00671149 0)
(0.0261828 -0.00670714 0)
(0.0276734 -0.00670241 0)
(0.0291629 -0.00669726 0)
(0.0306513 -0.00669166 0)
(0.0321384 -0.00668561 0)
(0.0336242 -0.00667906 0)
(0.0351085 -0.00667199 0)
(0.0365912 -0.00666437 0)
(0.0380722 -0.00665618 0)
(0.0395514 -0.00664737 0)
(0.0410286 -0.00663793 0)
(0.0425036 -0.00662781 0)
(0.0439764 -0.00661699 0)
(0.0454468 -0.00660542 0)
(0.0469146 -0.00659308 0)
(0.0483796 -0.00657993 0)
(0.0498416 -0.00656593 0)
(0.0513005 -0.00655105 0)
(0.052756 -0.00653524 0)
(0.054208 -0.00651847 0)
(0.0556562 -0.00650071 0)
(0.0571004 -0.0064819 0)
(0.0585404 -0.00646201 0)
(0.0599759 -0.00644101 0)
(0.0614066 -0.00641885 0)
(0.0628324 -0.00639549 0)
(0.0642529 -0.0063709 0)
(0.0656678 -0.00634503 0)
(0.0670769 -0.00631784 0)
(0.0684799 -0.00628929 0)
(0.0698765 -0.00625935 0)
(0.0712662 -0.00622797 0)
(0.072649 -0.00619513 0)
(0.0740243 -0.00616077 0)
(0.0753918 -0.00612487 0)
(0.0767513 -0.00608738 0)
(0.0781023 -0.00604828 0)
(0.0794445 -0.00600753 0)
(0.0807775 -0.00596509 0)
(0.0821009 -0.00592094 0)
(0.0834144 -0.00587504 0)
(0.0847175 -0.00582737 0)
(0.0860099 -0.0057779 0)
(0.0872911 -0.0057266 0)
(0.0885607 -0.00567346 0)
(0.0898184 -0.00561844 0)
(0.0910636 -0.00556153 0)
(0.092296 -0.00550271 0)
(0.0935152 -0.00544197 0)
(0.0947206 -0.0053793 0)
(0.0959119 -0.00531467 0)
(0.0970887 -0.00524809 0)
(0.0982504 -0.00517955 0)
(0.0993967 -0.00510904 0)
(0.100527 -0.00503657 0)
(0.101641 -0.00496213 0)
(0.102739 -0.00488574 0)
(0.103819 -0.0048074 0)
(0.104881 -0.00472712 0)
(0.105926 -0.00464491 0)
(0.106951 -0.0045608 0)
(0.107958 -0.0044748 0)
(0.108946 -0.00438693 0)
(0.109914 -0.00429722 0)
(0.110861 -0.00420569 0)
(0.111788 -0.00411239 0)
(0.112694 -0.00401734 0)
(0.113579 -0.00392059 0)
(0.114442 -0.00382216 0)
(0.115283 -0.00372211 0)
(0.116101 -0.00362048 0)
(0.116897 -0.00351731 0)
(0.117669 -0.00341267 0)
(0.118418 -0.0033066 0)
(0.119143 -0.00319915 0)
(0.119844 -0.0030904 0)
(0.12052 -0.00298039 0)
(0.121172 -0.00286919 0)
(0.121799 -0.00275686 0)
(0.1224 -0.00264348 0)
(0.122977 -0.0025291 0)
(0.123527 -0.0024138 0)
(0.124052 -0.00229765 0)
(0.124551 -0.00218072 0)
(0.125023 -0.00206308 0)
(0.12547 -0.00194481 0)
(0.12589 -0.00182598 0)
(0.126283 -0.00170667 0)
(0.126649 -0.00158695 0)
(0.126989 -0.00146691 0)
(0.127302 -0.00134661 0)
(0.127588 -0.00122613 0)
(0.127847 -0.00110556 0)
(0.12808 -0.000984957 0)
(0.128285 -0.000864407 0)
(0.128463 -0.000743981 0)
(0.128615 -0.000623755 0)
(0.12874 -0.000503801 0)
(0.128838 -0.000384191 0)
(0.128909 -0.000264997 0)
(0.128954 -0.000146286 0)
(0.128973 -2.81279e-05 0)
(0.128965 8.94114e-05 0)
(0.128931 0.000206267 0)
(0.128871 0.000322377 0)
(0.128785 0.000437678 0)
(0.128674 0.000552113 0)
(0.128537 0.000665624 0)
(0.128375 0.000778155 0)
(0.128188 0.000889655 0)